/*--------------------------------*- C++ -*----------------------------------*\
| =========                 |                                                 |
| \\      /  F ield         | OpenFOAM: The Open Source CFD Toolbox           |
|  \\    /   O peration     | Version:  3.0.1                                 |
|   \\  /    A nd           | Web:      www.OpenFOAM.org                      |
|    \\/     M anipulation  |                                                 |
\*---------------------------------------------------------------------------*/
FoamFile
{
    version     2.0;
    format      ascii;
    class       surfaceScalarField;
    location    "23";
    object      alphaPhi;
}
// * * * * * * * * * * * * * * * * * * * * * * * * * * * * * * * * * * * * * //

dimensions      [0 3 -1 0 0 0 0];

internalField   nonuniform List<scalar> 
42423
(
8.67429e-05
-1.80368e-05
0.000104667
-1.79246e-05
0.000122051
-1.73837e-05
0.000138578
-1.65268e-05
0.000154197
-1.56195e-05
0.000168533
-1.43362e-05
0.000181431
-1.28974e-05
0.000192649
-1.12188e-05
0.000201935
-9.28544e-06
0.000209083
-7.14871e-06
0.000213962
-4.87902e-06
0.000216517
-2.55497e-06
0.000216648
-1.31188e-07
0.000214281
2.36754e-06
0.000209472
4.80878e-06
0.000202314
7.15831e-06
0.000192936
9.37735e-06
0.000181686
1.12505e-05
0.0001686
1.30852e-05
0.000153954
1.46462e-05
0.000138094
1.58599e-05
0.000121179
1.69151e-05
0.000103393
1.77858e-05
8.51934e-05
1.81999e-05
6.6738e-05
1.84553e-05
4.83363e-05
1.84017e-05
2.99924e-05
1.83439e-05
1.19856e-05
1.80068e-05
-5.51279e-06
1.74984e-05
-2.24142e-05
1.69014e-05
-3.85552e-05
1.61409e-05
-5.38674e-05
1.53122e-05
-6.83089e-05
1.44415e-05
-8.18201e-05
1.35112e-05
-9.43983e-05
1.25782e-05
-0.00010603
1.16315e-05
-0.000116716
1.06866e-05
-0.000126494
9.77775e-06
-0.000135359
8.86451e-06
-0.000143364
8.0056e-06
-0.000150536
7.17173e-06
-0.000156893
6.35704e-06
-0.000162472
5.57872e-06
-0.000167274
4.80191e-06
-0.000171322
4.0481e-06
-0.000174672
3.35007e-06
-0.000177294
2.62252e-06
-0.000179222
1.92739e-06
-0.000180441
1.21906e-06
-0.000180983
5.42006e-07
-0.000180684
-2.98573e-07
-0.000179683
-1.00104e-06
-0.000177803
-1.88065e-06
-0.000175197
-2.60541e-06
-0.000171842
-3.3548e-06
-0.000167563
-4.27928e-06
-0.000162424
-5.13966e-06
-0.000156478
-5.94583e-06
-0.000149548
-6.92924e-06
-0.000141795
-7.75337e-06
-0.000133015
-8.77973e-06
-0.000123194
-9.82187e-06
-0.000112554
-1.064e-05
-0.000100882
-1.16718e-05
-8.83507e-05
-1.25311e-05
-7.50261e-05
-1.33247e-05
-6.07202e-05
-1.43059e-05
-4.57134e-05
-1.50069e-05
-2.99265e-05
-1.5787e-05
-1.35616e-05
-1.6365e-05
3.27645e-06
-1.68381e-05
2.04719e-05
-1.71955e-05
3.79171e-05
-1.74453e-05
5.54426e-05
-1.75255e-05
7.28305e-05
-1.73879e-05
9.00603e-05
-1.72299e-05
0.000106865
-1.68047e-05
0.000123077
-1.62123e-05
0.000138479
-1.54021e-05
0.000152824
-1.43442e-05
0.000166064
-1.32402e-05
0.000177816
-1.17522e-05
0.000187862
-1.00456e-05
0.000196135
-8.27317e-06
0.000202408
-6.27338e-06
0.000206466
-4.05804e-06
0.000208258
-1.79187e-06
0.000207905
3.53586e-07
0.000205104
2.80049e-06
0.000199856
5.24854e-06
0.000192358
7.49741e-06
0.000182702
9.65659e-06
0.000171028
1.16738e-05
0.00015762
1.34079e-05
0.000142662
1.49583e-05
0.000126407
1.62549e-05
0.000109017
1.73903e-05
9.08191e-05
1.81975e-05
7.20379e-05
1.87812e-05
5.29502e-05
1.90877e-05
3.39149e-05
1.90353e-05
1.49955e-05
1.89194e-05
-3.54459e-06
1.85401e-05
-2.13909e-05
1.78464e-05
-3.85559e-05
1.7165e-05
-5.48439e-05
1.6288e-05
-7.00725e-05
1.52286e-05
-8.42781e-05
1.42056e-05
-9.73565e-05
1.30785e-05
-0.000109385
1.20283e-05
-0.000120279
1.08938e-05
-0.000130082
9.80326e-06
-0.000138826
8.7444e-06
-0.000146584
7.75733e-06
-0.00015349
6.90608e-06
-0.000159472
5.98243e-06
-0.000164617
5.14455e-06
-0.000168996
4.37964e-06
-0.000172708
3.7115e-06
-0.000175568
2.86017e-06
-0.000177806
2.23825e-06
-0.000179376
1.56948e-06
-0.000180262
8.86751e-07
-0.000180534
2.7184e-07
-0.000180119
-4.1486e-07
-0.000179089
-1.03008e-06
-0.000177449
-1.63976e-06
-0.000175163
-2.28683e-06
-0.000172228
-2.93438e-06
-0.00016869
-3.53824e-06
-0.000164481
-4.20936e-06
-0.000159564
-4.91671e-06
-0.000153943
-5.62123e-06
-0.000147592
-6.35027e-06
-0.00014044
-7.15291e-06
-0.000132428
-8.01166e-06
-0.000123671
-8.75679e-06
-0.000113971
-9.7006e-06
-0.000103357
-1.06139e-05
-9.18047e-05
-1.1552e-05
-7.92911e-05
-1.25137e-05
-6.58705e-05
-1.34206e-05
-5.15053e-05
-1.43652e-05
-3.6281e-05
-1.52244e-05
-2.02649e-05
-1.60162e-05
-3.55649e-06
-1.67084e-05
1.37712e-05
-1.73278e-05
3.16163e-05
-1.78452e-05
4.97451e-05
-1.81288e-05
6.79869e-05
-1.82419e-05
8.60991e-05
-1.81122e-05
0.000103896
-1.77972e-05
0.000121049
-1.71526e-05
0.000137369
-1.63199e-05
0.000152595
-1.52264e-05
0.000166414
-1.38191e-05
0.000178621
-1.22075e-05
0.000189017
-1.03954e-05
0.000197289
-8.27204e-06
0.000203356
-6.06697e-06
0.000207073
-3.71719e-06
0.000208373
-1.30003e-06
0.000207298
1.07514e-06
0.000203778
3.51977e-06
0.000197935
5.84304e-06
0.000189898
8.03679e-06
0.000179845
1.00532e-05
0.000167944
1.19012e-05
0.000154493
1.3451e-05
0.000139627
1.48663e-05
0.00012363
1.59964e-05
0.000106791
1.68393e-05
8.9268e-05
1.75228e-05
7.1421e-05
1.78471e-05
5.34847e-05
1.79362e-05
3.56029e-05
1.78818e-05
1.7975e-05
1.76279e-05
6.10331e-07
1.73647e-05
-1.61148e-05
1.67251e-05
-3.22228e-05
1.6108e-05
-4.76126e-05
1.53898e-05
-6.21654e-05
1.45529e-05
-7.58764e-05
1.3711e-05
-8.86057e-05
1.27293e-05
-0.000100403
1.17974e-05
-0.000111274
1.0871e-05
-0.000121101
9.82723e-06
-0.000130025
8.92323e-06
-0.000138013
7.98868e-06
-0.000145105
7.09159e-06
-0.000151314
6.20893e-06
-0.000156669
5.35504e-06
-0.000161257
4.5878e-06
-0.000165164
3.90761e-06
-0.000168297
3.13299e-06
-0.00017077
2.47247e-06
-0.00017259
1.82004e-06
-0.000173689
1.09908e-06
-0.000174182
4.93748e-07
-0.000173944
-2.38186e-07
-0.000173028
-9.16717e-07
-0.000171389
-1.63858e-06
-0.000169129
-2.25995e-06
-0.00016606
-3.06889e-06
-0.00016226
-3.80011e-06
-0.000157725
-4.53456e-06
-0.000152351
-5.37455e-06
-0.000146193
-6.15826e-06
-0.000139173
-7.01961e-06
-0.000131344
-7.82892e-06
-0.000122679
-8.66551e-06
-0.00011313
-9.54879e-06
-0.000102698
-1.04324e-05
-9.14611e-05
-1.12366e-05
-7.93492e-05
-1.2112e-05
-6.6405e-05
-1.29442e-05
-5.25595e-05
-1.38456e-05
-3.80137e-05
-1.45458e-05
-2.27861e-05
-1.52277e-05
-6.88463e-06
-1.59015e-05
9.46915e-06
-1.63538e-05
2.62915e-05
-1.68223e-05
4.33908e-05
-1.70994e-05
6.06305e-05
-1.72397e-05
7.79198e-05
-1.72894e-05
9.50915e-05
-1.71717e-05
0.000111912
-1.68207e-05
0.000128195
-1.62825e-05
0.0001436
-1.54057e-05
0.000157976
-1.43761e-05
0.000171057
-1.30808e-05
0.000182551
-1.14936e-05
0.000192319
-9.76862e-06
0.000200174
-7.85439e-06
0.000205947
-5.77301e-06
0.000209505
-3.55801e-06
0.000210795
-1.29087e-06
0.000209855
9.40289e-07
0.000206506
3.34899e-06
0.00020093
5.57577e-06
0.000193209
7.72133e-06
0.00018346
9.74891e-06
0.000171844
1.16158e-05
0.000158649
1.31951e-05
0.000144081
1.4568e-05
0.000128394
1.5687e-05
0.000111809
1.65851e-05
9.45128e-05
1.72964e-05
7.69167e-05
1.75962e-05
5.91471e-05
1.77695e-05
4.14127e-05
1.77345e-05
2.38814e-05
1.75313e-05
6.90632e-06
1.69751e-05
-9.42207e-06
1.63284e-05
-2.50729e-05
1.56508e-05
-3.99692e-05
1.48964e-05
-5.39114e-05
1.39422e-05
-6.70117e-05
1.31003e-05
-7.91691e-05
1.21575e-05
-9.03907e-05
1.12216e-05
-0.000100688
1.02975e-05
-0.000110116
9.42751e-06
-0.000118692
8.57618e-06
-0.000126415
7.72302e-06
-0.000133361
6.94582e-06
-0.000139567
6.20691e-06
-0.000144906
5.33811e-06
-0.000149637
4.73153e-06
-0.000153589
3.95173e-06
-0.000156762
3.17368e-06
-0.000159325
2.56307e-06
-0.000160957
1.63146e-06
-0.000161998
1.04102e-06
-0.000162022
2.4457e-08
-0.000161522
-5.00337e-07
-0.000160076
-1.44585e-06
-0.000157819
-2.25723e-06
-0.00015468
-3.13852e-06
-0.000150745
-3.93499e-06
-0.000145767
-4.97817e-06
-0.000139883
-5.88425e-06
-0.000132929
-6.95404e-06
-0.000125042
-7.88713e-06
-0.000116294
-8.74723e-06
-0.000106617
-9.6776e-06
-9.60205e-05
-1.05964e-05
-8.47154e-05
-1.13051e-05
-7.25117e-05
-1.22038e-05
-5.96301e-05
-1.28816e-05
-4.59654e-05
-1.36647e-05
-3.17491e-05
-1.42163e-05
-1.69955e-05
-1.47536e-05
-1.74392e-06
-1.52516e-05
1.42178e-05
-1.59617e-05
3.04452e-05
-1.62274e-05
4.70067e-05
-1.65615e-05
6.3824e-05
-1.68174e-05
8.06738e-05
-1.68498e-05
9.75847e-05
-1.69109e-05
0.000114274
-1.6689e-05
0.000130688
-1.64144e-05
0.000146685
-1.59968e-05
0.000161914
-1.52291e-05
0.000176301
-1.43869e-05
0.000189725
-1.34238e-05
0.000201877
-1.21528e-05
0.000212691
-1.08135e-05
0.00022183
-9.13944e-06
0.000229237
-7.40685e-06
0.000234758
-5.52078e-06
0.000238158
-3.40025e-06
0.000239405
-1.24721e-06
0.000238408
9.97402e-07
0.000234948
3.45993e-06
0.000229352
5.59543e-06
0.000221529
7.82355e-06
0.000211693
9.83601e-06
0.00019994
1.17527e-05
0.000186274
1.36659e-05
0.000171131
1.51435e-05
0.000154707
1.64234e-05
0.000137158
1.75495e-05
0.000118874
1.82836e-05
0.000100079
1.87954e-05
8.11174e-05
1.89612e-05
6.22093e-05
1.89081e-05
4.35508e-05
1.86585e-05
2.54005e-05
1.81503e-05
7.97369e-06
1.74268e-05
-8.51969e-06
1.64934e-05
-2.40778e-05
1.55581e-05
-3.86027e-05
1.45249e-05
-5.19967e-05
1.3394e-05
-6.42029e-05
1.22062e-05
-7.52372e-05
1.10342e-05
-8.51001e-05
9.86287e-06
-9.3838e-05
8.73799e-06
-0.000101485
7.64744e-06
-0.000108086
6.60069e-06
-0.000113711
5.62452e-06
-0.000118423
4.71255e-06
-0.000122259
3.83624e-06
-0.000125277
3.01793e-06
-0.000127537
2.25969e-06
-0.000129098
1.56119e-06
-0.000130026
9.27764e-07
-0.000130345
3.19329e-07
-0.000129952
-3.93868e-07
-0.000128937
-1.01401e-06
-0.000127332
-1.60503e-06
-0.000125155
-2.17758e-06
-0.000122418
-2.73721e-06
-0.000119137
-3.2808e-06
-0.000115303
-3.8339e-06
-0.000110886
-4.41731e-06
-0.000105896
-4.98931e-06
-5.59019e-06
8.67561e-05
-3.6082e-05
0.000104696
-3.58648e-05
0.000122093
-3.47805e-05
0.000138627
-3.3061e-05
0.000154258
-3.12508e-05
0.00016862
-2.86989e-05
0.000181551
-2.58278e-05
0.00019277
-2.24386e-05
0.000202048
-1.85629e-05
0.000209204
-1.43055e-05
0.000214106
-9.78147e-06
0.000216701
-5.15006e-06
0.000216814
-2.43559e-07
0.000214404
4.77682e-06
0.000209589
9.62377e-06
0.000202425
1.43224e-05
0.00019304
1.8762e-05
0.000181779
2.2512e-05
0.000168684
2.61799e-05
0.000154027
2.93028e-05
0.000138155
3.17324e-05
0.000121223
3.38462e-05
0.000103428
3.55817e-05
8.5217e-05
3.64103e-05
6.67522e-05
3.69201e-05
4.83393e-05
3.68146e-05
2.99863e-05
3.66968e-05
1.19713e-05
3.60217e-05
-5.5319e-06
3.50016e-05
-2.24389e-05
3.38084e-05
-3.85866e-05
3.22886e-05
-5.39058e-05
3.06314e-05
-6.83496e-05
2.88853e-05
-8.18621e-05
2.70237e-05
-9.44423e-05
2.51583e-05
-0.000106076
2.3265e-05
-0.000116764
2.13747e-05
-0.000126546
1.95597e-05
-0.000135421
1.77396e-05
-0.000143437
1.60217e-05
-0.000150608
1.4343e-05
-0.000156955
1.27036e-05
-0.000162526
1.11501e-05
-0.00016733
9.60564e-06
-0.000171386
8.10456e-06
-0.000174743
6.70706e-06
-0.000177362
5.24101e-06
-0.000179281
3.8465e-06
-0.000180505
2.44292e-06
-0.00018105
1.08688e-06
-0.000180758
-5.90645e-07
-0.00017975
-2.00839e-06
-0.000177873
-3.75782e-06
-0.000175265
-5.21344e-06
-0.000171908
-6.71177e-06
-0.000167637
-8.5508e-06
-0.000162494
-1.02821e-05
-0.000156548
-1.18921e-05
-0.000149617
-1.38601e-05
-0.000141864
-1.55071e-05
-0.000133078
-1.75649e-05
-0.000123265
-1.96353e-05
-0.000112623
-2.12818e-05
-0.000100948
-2.33469e-05
-8.84132e-05
-2.50663e-05
-7.50834e-05
-2.66545e-05
-6.07763e-05
-2.8613e-05
-4.57617e-05
-3.00215e-05
-2.99741e-05
-3.15747e-05
-1.35987e-05
-3.27404e-05
3.25298e-06
-3.36898e-05
2.04679e-05
-3.44105e-05
3.7929e-05
-3.49064e-05
5.54608e-05
-3.50573e-05
7.28621e-05
-3.47893e-05
9.01075e-05
-3.44753e-05
0.000106929
-3.36268e-05
0.000123157
-3.24397e-05
0.00013856
-3.08055e-05
0.000152916
-2.86997e-05
0.000166165
-2.64897e-05
0.000177921
-2.35083e-05
0.000187979
-2.01032e-05
0.000196247
-1.65411e-05
0.000202518
-1.25443e-05
0.000206579
-8.11885e-06
0.0002084
-3.61281e-06
0.000208038
7.14932e-07
0.000205187
5.6522e-06
0.000199954
1.04813e-05
0.000192452
1.49996e-05
0.000182776
1.93329e-05
0.000171106
2.33436e-05
0.000157691
2.68231e-05
0.000142713
2.99358e-05
0.000126441
3.25272e-05
0.000109041
3.479e-05
9.08384e-05
3.64003e-05
7.20419e-05
3.75777e-05
5.29382e-05
3.81915e-05
3.38972e-05
3.80764e-05
1.49745e-05
3.78422e-05
-3.57608e-06
3.70907e-05
-2.14279e-05
3.56982e-05
-3.85963e-05
3.43334e-05
-5.48914e-05
3.25832e-05
-7.0127e-05
3.04643e-05
-8.43449e-05
2.84235e-05
-9.74266e-05
2.61602e-05
-0.000109444
2.40459e-05
-0.000120337
2.17865e-05
-0.000130133
1.95993e-05
-0.000138876
1.74878e-05
-0.000146634
1.5515e-05
-0.000153551
1.38239e-05
-0.000159531
1.19622e-05
-0.000164666
1.02797e-05
-0.00016904
8.75355e-06
-0.000172755
7.42667e-06
-0.000175622
5.72638e-06
-0.000177854
4.47078e-06
-0.000179419
3.13459e-06
-0.000180307
1.77414e-06
-0.000180581
5.46195e-07
-0.000180166
-8.29292e-07
-0.000179135
-2.06139e-06
-0.000177495
-3.2799e-06
-0.000175208
-4.57416e-06
-0.000172271
-5.87107e-06
-0.000168742
-7.06675e-06
-0.000164536
-8.41558e-06
-0.000159614
-9.83934e-06
-0.000154003
-1.12323e-05
-0.000147649
-1.27043e-05
-0.000140505
-1.42964e-05
-0.000132498
-1.60193e-05
-0.000123729
-1.75257e-05
-0.000114031
-1.9398e-05
-0.000103418
-2.12269e-05
-9.18701e-05
-2.31002e-05
-7.93548e-05
-2.50291e-05
-6.5933e-05
-2.68424e-05
-5.15641e-05
-2.87342e-05
-3.63399e-05
-3.04486e-05
-2.03157e-05
-3.20404e-05
-3.61061e-06
-3.34136e-05
1.37253e-05
-3.46638e-05
3.15812e-05
-3.57011e-05
4.97172e-05
-3.62649e-05
6.79757e-05
-3.65004e-05
8.60924e-05
-3.62289e-05
0.000103906
-3.56106e-05
0.000121071
-3.43175e-05
0.000137395
-3.26446e-05
0.000152635
-3.04658e-05
0.000166467
-2.76517e-05
0.000178683
-2.44233e-05
0.00018908
-2.07928e-05
0.000197373
-1.65651e-05
0.000203458
-1.21513e-05
0.000207167
-7.42697e-06
0.00020847
-2.60318e-06
0.000207386
2.15932e-06
0.000203863
7.04323e-06
0.000198015
1.16907e-05
0.000189976
1.60763e-05
0.000179915
2.01142e-05
0.000168008
2.38082e-05
0.000154542
2.69162e-05
0.000139668
2.97407e-05
0.000123666
3.19981e-05
0.000106815
3.36911e-05
8.92714e-05
3.5066e-05
7.14149e-05
3.57036e-05
5.34694e-05
3.58817e-05
3.55826e-05
3.57687e-05
1.79538e-05
3.52567e-05
5.89842e-07
3.47287e-05
-1.61432e-05
3.34582e-05
-3.22645e-05
3.22293e-05
-4.7661e-05
3.07863e-05
-6.22151e-05
2.9107e-05
-7.59228e-05
2.74187e-05
-8.86497e-05
2.54563e-05
-0.000100446
2.35942e-05
-0.000111329
2.17535e-05
-0.000121161
1.96589e-05
-0.000130078
1.78406e-05
-0.000138062
1.59727e-05
-0.000145149
1.41786e-05
-0.000151357
1.24174e-05
-0.000156714
1.07115e-05
-0.000161303
9.17694e-06
-0.000165212
7.81692e-06
-0.000168338
6.2592e-06
-0.000170818
4.95249e-06
-0.00017264
3.64154e-06
-0.000173741
2.20018e-06
-0.000174238
9.90625e-07
-0.000173996
-4.80036e-07
-0.000173077
-1.83607e-06
-0.000171435
-3.28077e-06
-0.00016918
-4.51436e-06
-0.000166124
-6.1254e-06
-0.000162319
-7.60472e-06
-0.000157777
-9.0763e-06
-0.000152403
-1.07492e-05
-0.000146251
-1.23104e-05
-0.000139239
-1.40317e-05
-0.000131407
-1.56601e-05
-0.000122738
-1.73354e-05
-0.000113186
-1.91006e-05
-0.000102764
-2.08544e-05
-9.15271e-05
-2.24732e-05
-7.94054e-05
-2.42338e-05
-6.64653e-05
-2.58843e-05
-5.26111e-05
-2.76998e-05
-3.8064e-05
-2.90929e-05
-2.28346e-05
-3.04571e-05
-6.92183e-06
-3.18143e-05
9.4274e-06
-3.27031e-05
2.62521e-05
-3.36471e-05
4.3366e-05
-3.42134e-05
6.06065e-05
-3.44801e-05
7.79086e-05
-3.45915e-05
9.50877e-05
-3.43509e-05
0.000111917
-3.36504e-05
0.000128208
-3.25729e-05
0.000143634
-3.08321e-05
0.000158019
-2.87608e-05
0.000171098
-2.61597e-05
0.000182609
-2.30049e-05
0.000192384
-1.95437e-05
0.00020026
-1.57306e-05
0.000206034
-1.15472e-05
0.000209589
-7.11221e-06
0.000210885
-2.58765e-06
0.000209933
1.89217e-06
0.000206583
6.69938e-06
0.000201012
1.11466e-05
0.000193282
1.54516e-05
0.000183526
1.95051e-05
0.000171906
2.32351e-05
0.000158702
2.63991e-05
0.00014413
2.91401e-05
0.000128428
3.13897e-05
0.000111831
3.31823e-05
9.45217e-05
3.46052e-05
7.69201e-05
3.51977e-05
5.91419e-05
3.55478e-05
4.13885e-05
3.54879e-05
2.38435e-05
3.50764e-05
6.87079e-06
3.39478e-05
-9.4491e-06
3.26483e-05
-2.51073e-05
3.13091e-05
-4.00159e-05
2.9805e-05
-5.39568e-05
2.78831e-05
-6.70563e-05
2.61999e-05
-7.92165e-05
2.43177e-05
-9.04437e-05
2.24489e-05
-0.000100744
2.05975e-05
-0.000110169
1.8853e-05
-0.000118739
1.71455e-05
-0.000126455
1.54395e-05
-0.000133402
1.38931e-05
-0.000139619
1.24243e-05
-0.000144957
1.06759e-05
-0.000149683
9.45749e-06
-0.000153642
7.91056e-06
-0.000156816
6.34742e-06
-0.000159384
5.13149e-06
-0.000161017
3.26401e-06
-0.000162073
2.09729e-06
-0.000162096
4.75992e-08
-0.000161584
-1.01257e-06
-0.000160147
-2.88267e-06
-0.000157887
-4.51662e-06
-0.000154755
-6.27087e-06
-0.00015082
-7.8701e-06
-0.000145845
-9.95274e-06
-0.00013996
-1.17695e-05
-0.000133009
-1.39054e-05
-0.000125122
-1.5774e-05
-0.000116373
-1.74966e-05
-0.000106694
-1.93564e-05
-9.60966e-05
-2.11935e-05
-8.47889e-05
-2.26129e-05
-7.2579e-05
-2.44136e-05
-5.96978e-05
-2.57629e-05
-4.60356e-05
-2.73269e-05
-3.18014e-05
-2.84505e-05
-1.70328e-05
-2.95223e-05
-1.78296e-06
-3.05015e-05
1.41779e-05
-3.19226e-05
3.04071e-05
-3.24566e-05
4.69674e-05
-3.31219e-05
6.37828e-05
-3.36328e-05
8.06385e-05
-3.37056e-05
9.7559e-05
-3.38314e-05
0.000114257
-3.33872e-05
0.000130681
-3.28379e-05
0.000146688
-3.20039e-05
0.000161925
-3.04665e-05
0.00017632
-2.87819e-05
0.000189753
-2.6857e-05
0.000201884
-2.42843e-05
0.000212663
-2.15921e-05
0.000221808
-1.82843e-05
0.000229261
-1.48603e-05
0.000234824
-1.10836e-05
0.00023824
-6.81615e-06
0.000239497
-2.50421e-06
0.000238495
1.99872e-06
0.000235042
6.91327e-06
0.000229455
1.11827e-05
0.000221629
1.56492e-05
0.000211788
1.96771e-05
0.000200027
2.35135e-05
0.000186353
2.73402e-05
0.0001712
3.02965e-05
0.000154766
3.28571e-05
0.000137203
3.51129e-05
0.000118907
3.65794e-05
0.000100099
3.76031e-05
8.11259e-05
3.79343e-05
6.22067e-05
3.78273e-05
4.35327e-05
3.73325e-05
2.5377e-05
3.6306e-05
7.94139e-06
3.48624e-05
-8.55468e-06
3.29894e-05
-2.41216e-05
3.11251e-05
-3.86495e-05
2.90528e-05
-5.20451e-05
2.67896e-05
-6.42531e-05
2.44142e-05
-7.52884e-05
2.20695e-05
-8.51528e-05
1.97272e-05
-9.38885e-05
1.74737e-05
-0.00010154
1.52986e-05
-0.000108144
1.32054e-05
-0.000113767
1.1247e-05
-0.000118477
9.42286e-06
-0.00012231
7.66924e-06
-0.000125327
6.03476e-06
-0.000127585
4.51779e-06
-0.000129148
3.1246e-06
-0.000130075
1.85399e-06
-0.000130386
6.30468e-07
-0.000129988
-7.91642e-07
-0.000128972
-2.0304e-06
-0.000127363
-3.21369e-06
-0.000125184
-4.35701e-06
-0.000122444
-5.47648e-06
-0.000119162
-6.56302e-06
-0.000115328
-7.66827e-06
-0.00011091
-8.83504e-06
-0.000105921
-9.9787e-06
-1.11805e-05
8.67836e-05
-5.41453e-05
0.000104746
-5.38276e-05
0.000122172
-5.22068e-05
0.00013874
-4.96284e-05
0.000154393
-4.69046e-05
0.000168774
-4.30794e-05
0.000181732
-3.87865e-05
0.000193003
-3.37094e-05
0.000202309
-2.78696e-05
0.00020946
-2.14565e-05
0.000214351
-1.46724e-05
0.000216945
-7.74421e-06
0.000217038
-3.36779e-07
0.000214596
7.21833e-06
0.000209767
1.44531e-05
0.000202592
2.1497e-05
0.000193193
2.81618e-05
0.000181911
3.3794e-05
0.000168801
3.92895e-05
0.000154127
4.39764e-05
0.000138235
4.76247e-05
0.000121277
5.08035e-05
0.000103468
5.33913e-05
8.52416e-05
5.46364e-05
6.67639e-05
5.53977e-05
4.83284e-05
5.52501e-05
2.9961e-05
5.50641e-05
1.19334e-05
5.40493e-05
-5.58459e-06
5.25195e-05
-2.25043e-05
5.07282e-05
-3.86607e-05
4.8445e-05
-5.3986e-05
4.59567e-05
-6.84375e-05
4.33368e-05
-8.1954e-05
4.05401e-05
-9.4535e-05
3.77393e-05
-0.000106171
3.49009e-05
-0.00011686
3.2064e-05
-0.000126643
2.93425e-05
-0.000135513
2.66093e-05
-0.00014352
2.40285e-05
-0.000150692
2.15157e-05
-0.000157049
1.90599e-05
-0.000162622
1.67237e-05
-0.000167418
1.44011e-05
-0.000171462
1.21483e-05
-0.000174819
1.0064e-05
-0.000177446
7.86821e-06
-0.000179369
5.7699e-06
-0.000180591
3.66467e-06
-0.000181125
1.62142e-06
-0.000180827
-8.89276e-07
-0.000179811
-3.02439e-06
-0.000177938
-5.63061e-06
-0.000175327
-7.82408e-06
-0.000171971
-1.00685e-05
-0.000167695
-1.28269e-05
-0.000162564
-1.54128e-05
-0.000156618
-1.78383e-05
-0.000149688
-2.07903e-05
-0.000141934
-2.32606e-05
-0.000133147
-2.63523e-05
-0.000123341
-2.94407e-05
-0.000112696
-3.19271e-05
-0.000101022
-3.50212e-05
-8.84787e-05
-3.76095e-05
-7.51463e-05
-3.9987e-05
-6.08442e-05
-4.29152e-05
-4.58213e-05
-4.50445e-05
-3.0027e-05
-4.7369e-05
-1.36336e-05
-4.9134e-05
3.22714e-06
-5.05506e-05
2.04523e-05
-5.16357e-05
3.79361e-05
-5.23903e-05
5.54832e-05
-5.26045e-05
7.29024e-05
-5.22086e-05
9.01641e-05
-5.17371e-05
0.000107
-5.04631e-05
0.000123261
-4.87e-05
0.000138687
-4.62314e-05
0.00015306
-4.30727e-05
0.000166324
-3.97544e-05
0.000178094
-3.5278e-05
0.00018818
-3.01895e-05
0.000196473
-2.48338e-05
0.000202752
-1.88235e-05
0.000206803
-1.21693e-05
0.000208614
-5.42372e-06
0.000208233
1.09559e-06
0.000205353
8.53243e-06
0.000200126
1.57082e-05
0.00019261
2.25164e-05
0.000182901
2.90418e-05
0.000171239
3.50054e-05
0.000157814
4.0248e-05
0.000142805
4.49449e-05
0.000126507
4.88254e-05
0.000109081
5.22154e-05
9.08482e-05
5.46335e-05
7.20349e-05
5.6391e-05
5.28987e-05
5.73276e-05
3.38385e-05
5.71367e-05
1.49147e-05
5.6766e-05
-3.64715e-06
5.56525e-05
-2.15071e-05
5.35582e-05
-3.86953e-05
5.15216e-05
-5.49981e-05
4.88861e-05
-7.02302e-05
4.56964e-05
-8.447e-05
4.26633e-05
-9.75695e-05
3.92598e-05
-0.000109567
3.60436e-05
-0.000120457
3.26761e-05
-0.000130247
2.9389e-05
-0.000138991
2.62319e-05
-0.000146754
2.32786e-05
-0.000153654
2.07237e-05
-0.000159642
1.79498e-05
-0.000164768
1.54057e-05
-0.000169129
1.31145e-05
-0.000172829
1.11272e-05
-0.000175705
8.60272e-06
-0.000177941
6.70669e-06
-0.000179518
4.71168e-06
-0.0001804
2.65531e-06
-0.000180649
7.95708e-07
-0.000180236
-1.2423e-06
-0.000179211
-3.08636e-06
-0.000177576
-4.91469e-06
-0.000175291
-6.8596e-06
-0.000172344
-8.81745e-06
-0.000168812
-1.05996e-05
-0.000164611
-1.26164e-05
-0.000159692
-1.47582e-05
-0.000154078
-1.68467e-05
-0.000147737
-1.9045e-05
-0.000140595
-2.14381e-05
-0.000132587
-2.40276e-05
-0.00012382
-2.62927e-05
-0.000114123
-2.90953e-05
-0.000103512
-3.18374e-05
-9.19639e-05
-3.46486e-05
-7.94482e-05
-3.75449e-05
-6.60346e-05
-4.02559e-05
-5.16569e-05
-4.3112e-05
-3.64207e-05
-4.56849e-05
-2.03855e-05
-4.80757e-05
-3.68166e-06
-5.01174e-05
1.36644e-05
-5.20099e-05
3.15413e-05
-5.35781e-05
4.96934e-05
-5.4417e-05
6.7974e-05
-5.47812e-05
8.61044e-05
-5.43594e-05
0.000103936
-5.34425e-05
0.000121124
-5.15052e-05
0.000137473
-4.89942e-05
0.000152736
-4.57281e-05
0.000166587
-4.15031e-05
0.000178829
-3.66653e-05
0.000189239
-3.12031e-05
0.000197526
-2.48523e-05
0.000203628
-1.82529e-05
0.000207357
-1.1156e-05
0.000208665
-3.91141e-06
0.000207565
3.259e-06
0.000204038
1.05709e-05
0.000198174
1.75543e-05
0.000190116
2.41339e-05
0.000180042
3.01886e-05
0.000168124
3.57258e-05
0.000154628
4.04126e-05
0.000139727
4.4642e-05
0.000123713
4.80121e-05
0.000106849
5.05543e-05
8.92792e-05
5.26361e-05
7.13962e-05
5.35865e-05
5.34331e-05
5.38449e-05
3.55296e-05
5.36723e-05
1.78886e-05
5.28976e-05
5.13365e-07
5.21039e-05
-1.62144e-05
5.0186e-05
-3.23428e-05
4.83577e-05
-4.77571e-05
4.62006e-05
-6.23295e-05
4.36794e-05
-7.60382e-05
4.11274e-05
-8.87612e-05
3.81793e-05
-0.000100543
3.53758e-05
-0.000111431
3.26418e-05
-0.000121269
2.94971e-05
-0.000130186
2.67571e-05
-0.000138177
2.39637e-05
-0.000145259
2.1261e-05
-0.000151462
1.862e-05
-0.000156811
1.60606e-05
-0.000161388
1.37544e-05
-0.000165302
1.17305e-05
-0.00016843
9.3876e-06
-0.000170884
7.40618e-06
-0.00017272
5.47767e-06
-0.000173824
3.30375e-06
-0.000174321
1.48762e-06
-0.00017408
-7.20273e-07
-0.000173163
-2.75313e-06
-0.000171548
-4.8965e-06
-0.00016926
-6.8021e-06
-0.000166205
-9.18063e-06
-0.000162411
-1.13984e-05
-0.000157867
-1.36198e-05
-0.000152484
-1.61329e-05
-0.000146338
-1.84562e-05
-0.000139334
-2.10356e-05
-0.000131495
-2.34992e-05
-0.00012283
-2.6001e-05
-0.000113276
-2.8654e-05
-0.000102844
-3.12871e-05
-9.16134e-05
-3.37034e-05
-7.9504e-05
-3.63432e-05
-6.65668e-05
-3.88215e-05
-5.27001e-05
-4.15666e-05
-3.81334e-05
-4.36597e-05
-2.29076e-05
-4.56829e-05
-6.98551e-06
-4.77365e-05
9.37733e-06
-4.9066e-05
2.62202e-05
-5.04899e-05
4.3348e-05
-5.13413e-05
6.05741e-05
-5.17063e-05
7.79027e-05
-5.19202e-05
9.51002e-05
-5.15485e-05
0.000111953
-5.05036e-05
0.000128258
-4.88777e-05
0.000143692
-4.62659e-05
0.000158105
-4.31737e-05
0.000171209
-3.92634e-05
0.000182743
-3.45393e-05
0.000192508
-2.93093e-05
0.000200399
-2.36216e-05
0.000206209
-1.73567e-05
0.000209782
-1.06853e-05
0.000211078
-3.88392e-06
0.000210092
2.8787e-06
0.000206746
1.00454e-05
0.000201172
1.672e-05
0.000193427
2.3197e-05
0.000183653
2.92793e-05
0.000172011
3.4877e-05
0.000158784
3.96259e-05
0.000144198
4.37262e-05
0.000128453
4.71348e-05
0.000111851
4.97836e-05
9.45262e-05
5.19305e-05
7.68955e-05
5.28284e-05
5.91025e-05
5.33408e-05
4.13403e-05
5.32501e-05
2.37854e-05
5.26312e-05
6.79575e-06
5.09375e-05
-9.53265e-06
4.89767e-05
-2.51933e-05
4.69698e-05
-4.01143e-05
4.4726e-05
-5.40679e-05
4.18367e-05
-6.71652e-05
3.92972e-05
-7.93167e-05
3.64692e-05
-9.0547e-05
3.36792e-05
-0.000100848
3.08989e-05
-0.000110268
2.82725e-05
-0.000118835
2.57126e-05
-0.000126555
2.31594e-05
-0.000133494
2.08322e-05
-0.000139702
1.86324e-05
-0.000145043
1.60166e-05
-0.000149762
1.41766e-05
-0.000153733
1.18819e-05
-0.000156886
9.50032e-06
-0.000159465
7.71109e-06
-0.000161096
4.89458e-06
-0.00016214
3.14189e-06
-0.000162168
7.54897e-08
-0.000161646
-1.53485e-06
-0.000160225
-4.30413e-06
-0.000157957
-6.78407e-06
-0.000154835
-9.39299e-06
-0.000150893
-1.18116e-05
-0.000145926
-1.49206e-05
-0.000140046
-1.76489e-05
-0.000133093
-2.08581e-05
-0.000125209
-2.36589e-05
-0.00011646
-2.62452e-05
-0.000106781
-2.90353e-05
-9.61804e-05
-3.17942e-05
-8.48705e-05
-3.39228e-05
-7.26558e-05
-3.66284e-05
-5.97734e-05
-3.86454e-05
-4.61169e-05
-4.09834e-05
-3.18584e-05
-4.27091e-05
-1.70859e-05
-4.42948e-05
-1.83402e-06
-4.57533e-05
1.41372e-05
-4.78939e-05
3.03713e-05
-4.86908e-05
4.69369e-05
-4.96875e-05
6.37503e-05
-5.04462e-05
8.06029e-05
-5.05583e-05
9.75199e-05
-5.07484e-05
0.000114215
-5.00827e-05
0.000130638
-4.92605e-05
0.000146654
-4.80198e-05
0.0001619
-4.57128e-05
0.000176308
-4.31899e-05
0.000189762
-4.0311e-05
0.000201915
-3.64375e-05
0.000212718
-3.2395e-05
0.000221869
-2.74355e-05
0.000229307
-2.22978e-05
0.000234862
-1.66387e-05
0.000238295
-1.02496e-05
0.000239598
-3.80761e-06
0.000238625
2.97204e-06
0.000235198
1.03401e-05
0.000229623
1.67574e-05
0.000221792
2.34802e-05
0.00021194
2.9529e-05
0.000200163
3.52904e-05
0.000186474
4.10292e-05
0.000171304
4.5467e-05
0.000154852
4.93086e-05
0.000137262
5.27033e-05
0.000118944
5.4897e-05
0.000100115
5.64325e-05
8.11212e-05
5.6928e-05
6.2183e-05
5.67656e-05
4.3482e-05
5.60335e-05
2.53198e-05
5.44681e-05
7.87231e-06
5.23099e-05
-8.63198e-06
4.94937e-05
-2.42099e-05
4.6703e-05
-3.87448e-05
4.35877e-05
-5.21449e-05
4.01896e-05
-6.43554e-05
3.66247e-05
-7.53914e-05
3.31055e-05
-8.52553e-05
2.95912e-05
-9.39899e-05
2.62083e-05
-0.000101635
2.29434e-05
-0.000108232
1.98024e-05
-0.000113852
1.6867e-05
-0.000118554
1.41252e-05
-0.000122382
1.14976e-05
-0.000125397
9.04969e-06
-0.000127655
6.77558e-06
-0.000129217
4.68634e-06
-0.000130129
2.76626e-06
-0.000130433
9.34234e-07
-0.000130031
-1.19345e-06
-0.000129012
-3.04913e-06
-0.000127402
-4.82414e-06
-0.000125223
-6.53553e-06
-0.000122484
-8.21534e-06
-0.000119203
-9.84481e-06
-0.00011537
-1.15011e-05
-0.000110954
-1.32513e-05
-0.000105966
-1.4966e-05
-1.67684e-05
8.68243e-05
-7.2235e-05
0.000104824
-7.18277e-05
0.000122289
-6.96716e-05
0.0001389
-6.62395e-05
0.000154603
-6.26082e-05
0.000169034
-5.75106e-05
0.000182035
-5.1787e-05
0.000193339
-4.50138e-05
0.000202689
-3.72197e-05
0.000209872
-2.86403e-05
0.00021478
-1.95803e-05
0.000217371
-1.03353e-05
0.000217401
-3.67049e-07
0.000214889
9.73062e-06
0.000210034
1.93075e-05
0.000202844
2.86871e-05
0.000193421
3.75845e-05
0.000182109
4.51059e-05
0.000168977
5.24219e-05
0.000154277
5.86757e-05
0.000138355
6.35467e-05
0.000121359
6.77994e-05
0.000103528
7.12223e-05
8.52788e-05
7.28859e-05
6.67834e-05
7.38931e-05
4.83119e-05
7.37216e-05
2.9923e-05
7.34529e-05
1.18763e-05
7.2096e-05
-5.66475e-06
7.00606e-05
-2.26028e-05
6.76662e-05
-3.87739e-05
6.46161e-05
-5.41101e-05
6.12929e-05
-6.85697e-05
5.77964e-05
-8.20928e-05
5.40632e-05
-9.46778e-05
5.03243e-05
-0.000106315
4.65382e-05
-0.000117006
4.2755e-05
-0.000126787
3.91238e-05
-0.000135656
3.54778e-05
-0.000143661
3.20332e-05
-0.000150831
2.86859e-05
-0.000157182
2.5411e-05
-0.00016275
2.22921e-05
-0.00016755
1.92008e-05
-0.000171598
1.61962e-05
-0.00017495
1.34158e-05
-0.000177569
1.04871e-05
-0.000179492
7.69307e-06
-0.00018071
4.8829e-06
-0.000181228
2.13986e-06
-0.000180929
-1.18874e-06
-0.000179902
-4.05091e-06
-0.000178037
-7.4957e-06
-0.000175422
-1.04394e-05
-0.000172065
-1.34255e-05
-0.000167785
-1.71075e-05
-0.00016267
-2.05272e-05
-0.000156724
-2.37841e-05
-0.000149794
-2.77205e-05
-0.000142042
-3.10133e-05
-0.000133252
-3.51423e-05
-0.000123457
-3.9235e-05
-0.000112808
-4.25761e-05
-0.000101133
-4.66963e-05
-8.8581e-05
-5.0162e-05
-7.5242e-05
-5.33261e-05
-6.09425e-05
-5.72147e-05
-4.59117e-05
-6.00755e-05
-3.01108e-05
-6.31699e-05
-1.36894e-05
-6.55555e-05
3.18539e-06
-6.74254e-05
2.04327e-05
-6.88831e-05
3.79485e-05
-6.99062e-05
5.55109e-05
-7.0167e-05
7.29652e-05
-6.9663e-05
9.02539e-05
-6.90258e-05
0.000107118
-6.73274e-05
0.000123412
-6.49939e-05
0.000138857
-6.16767e-05
0.000153278
-5.74935e-05
0.000166568
-5.30445e-05
0.000178358
-4.70676e-05
0.000188477
-4.03087e-05
0.000196782
-3.31385e-05
0.000203072
-2.51135e-05
0.000207143
-1.624e-05
0.000208954
-7.23459e-06
0.000208527
1.52254e-06
0.000205622
1.14375e-05
0.00020039
2.09402e-05
0.000192852
3.00536e-05
0.000183066
3.88286e-05
0.000171421
4.66506e-05
0.000157985
5.36838e-05
0.000142946
5.99838e-05
0.000126604
6.51677e-05
0.000109147
6.9672e-05
9.08885e-05
7.2892e-05
7.20238e-05
7.52557e-05
5.28365e-05
7.6515e-05
3.37633e-05
7.62099e-05
1.48367e-05
7.56926e-05
-3.74537e-06
7.42346e-05
-2.1619e-05
7.14319e-05