/*--------------------------------*- C++ -*----------------------------------*\
| =========                 |                                                 |
| \\      /  F ield         | OpenFOAM: The Open Source CFD Toolbox           |
|  \\    /   O peration     | Version:  3.0.1                                 |
|   \\  /    A nd           | Web:      www.OpenFOAM.org                      |
|    \\/     M anipulation  |                                                 |
\*---------------------------------------------------------------------------*/
FoamFile
{
    version     2.0;
    format      ascii;
    class       surfaceScalarField;
    location    "81.4";
    object      alphaPhi;
}
// * * * * * * * * * * * * * * * * * * * * * * * * * * * * * * * * * * * * * //

dimensions      [0 3 -1 0 0 0 0];

internalField   nonuniform List<scalar> 
42423
(
3.99716e-05
-1.4851e-06
4.18391e-05
-1.86751e-06
4.41589e-05
-2.31985e-06
4.69062e-05
-2.74724e-06
5.01721e-05
-3.26597e-06
5.39057e-05
-3.73363e-06
5.82483e-05
-4.34259e-06
6.32066e-05
-4.95832e-06
6.8643e-05
-5.43642e-06
7.48487e-05
-6.20569e-06
8.18784e-05
-7.02976e-06
8.95142e-05
-7.63583e-06
9.81143e-05
-8.60019e-06
0.000107553
-9.43879e-06
0.000118079
-1.05257e-05
0.000129742
-1.16637e-05
0.000142114
-1.23712e-05
0.000155592
-1.34782e-05
0.000170169
-1.45778e-05
0.000185452
-1.52828e-05
0.000201651
-1.61991e-05
0.000218733
-1.70821e-05
0.000236254
-1.75209e-05
0.000254244
-1.79901e-05
0.000272478
-1.82346e-05
0.000290806
-1.83273e-05
0.000309058
-1.82521e-05
0.000326766
-1.77083e-05
0.00034382
-1.70544e-05
0.000360022
-1.62021e-05
0.000374996
-1.49736e-05
0.000388522
-1.35267e-05
0.000400438
-1.19159e-05
0.000410477
-1.00391e-05
0.000418497
-8.02004e-06
0.000424288
-5.79078e-06
0.00042779
-3.50244e-06
0.000428942
-1.15205e-06
0.000427656
1.286e-06
0.000423963
3.69332e-06
0.000417966
5.99595e-06
0.000409899
8.06766e-06
0.000400064
9.83471e-06
0.000388263
1.18004e-05
0.00037486
1.34034e-05
0.000360257
1.46031e-05
0.0003444
1.58572e-05
0.000327652
1.67473e-05
0.000310336
1.73163e-05
0.000292496
1.78401e-05
0.000274438
1.80579e-05
0.000256329
1.81091e-05
0.000238354
1.7975e-05
0.00022067
1.76834e-05
0.000203351
1.73198e-05
0.000186548
1.68031e-05
0.000170351
1.61969e-05
0.000154802
1.55488e-05
0.000139991
1.48106e-05
0.000125944
1.40475e-05
0.000112712
1.32317e-05
0.000100325
1.2387e-05
8.87928e-05
1.15323e-05
7.81418e-05
1.0651e-05
6.83854e-05
9.75633e-06
5.94303e-05
8.95511e-06
5.12247e-05
8.20566e-06
4.37108e-05
7.51385e-06
3.68554e-05
6.85542e-06
3.05508e-05
6.30461e-06
2.46267e-05
5.92413e-06
1.89134e-05
5.71336e-06
1.35143e-05
5.39911e-06
8.16525e-06
5.34902e-06
2.82141e-06
5.34384e-06
-2.18769e-06
5.0091e-06
-7.07241e-06
4.88473e-06
-1.16186e-05
4.54622e-06
-1.5659e-05
4.04033e-06
-1.93289e-05
3.66996e-06
-2.23402e-05
3.01122e-06
-2.44951e-05
2.15494e-06
-2.5874e-05
1.37886e-06
-2.62753e-05
4.01372e-07
-2.52652e-05
-1.01009e-06
-2.29573e-05
-2.308e-06
-1.93282e-05
-3.62908e-06
-1.45059e-05
-4.82228e-06
-8.53851e-06
-5.96744e-06
-1.58894e-06
-6.94959e-06
7.05197e-06
-8.64094e-06
1.65447e-05
-9.49279e-06
2.67993e-05
-1.02546e-05
3.7773e-05
-1.09737e-05
4.93944e-05
-1.16215e-05
6.16571e-05
-1.22627e-05
7.45469e-05
-1.28898e-05
8.80467e-05
-1.34998e-05
0.000102135
-1.40887e-05
0.000116777
-1.46421e-05
0.000131895
-1.51179e-05
0.000147452
-1.55568e-05
0.000163399
-1.59468e-05
0.00017964
-1.62418e-05
0.000196052
-1.64115e-05
0.00021252
-1.64683e-05
0.000228904
-1.63839e-05
0.000245045
-1.61412e-05
0.000260753
-1.57083e-05
0.000275883
-1.51298e-05
0.000290197
-1.43142e-05
0.000303579
-1.3382e-05
0.000315711
-1.21322e-05
0.000326478
-1.07669e-05
0.000335711
-9.23251e-06
0.000343211
-7.50036e-06
0.00034882
-5.6088e-06
0.000352417
-3.5971e-06
0.000353913
-1.49622e-06
0.000353355
5.5844e-07
0.000350583
2.7723e-06
0.000345575
5.00776e-06
0.000338519
7.05624e-06
0.000329445
9.07429e-06
0.00031848
1.09652e-05
0.000305761
1.27188e-05
0.000291463
1.42984e-05
0.000275779
1.56844e-05
0.000259015
1.67637e-05
0.000241323
1.76928e-05
0.000222966
1.83569e-05
0.000204298
1.86677e-05
0.000185457
1.88411e-05
0.000166708
1.87496e-05
0.000148286
1.84218e-05
0.000130309
1.79773e-05
0.000112924
1.73854e-05
9.63103e-05
1.66135e-05
8.05753e-05
1.57351e-05
6.57542e-05
1.48212e-05
5.19895e-05
1.37648e-05
3.93968e-05
1.25927e-05
2.78718e-05
1.1525e-05
1.75634e-05
1.03085e-05
8.47096e-06
9.09241e-06
5.46888e-07
7.92408e-06
-6.21099e-06
6.75787e-06
-1.18551e-05
5.64409e-06
-1.65736e-05
4.71846e-06
-2.03035e-05
3.72989e-06
-2.32018e-05
2.89825e-06
-2.52718e-05
2.07001e-06
-2.66748e-05
1.40294e-06
-2.73981e-05
7.23339e-07
-2.7471e-05
7.28026e-08
-2.69469e-05
-5.24087e-07
-2.58832e-05
-1.06375e-06
-2.42683e-05
-1.61483e-06
-2.213e-05
-2.13838e-06
-1.9486e-05
-2.64401e-06
-1.63751e-05
-3.11095e-06
-1.27806e-05
-3.59448e-06
-8.7177e-06
-4.06293e-06
-4.23728e-06
-4.48044e-06
6.17977e-07
-4.85526e-06
5.86588e-06
-5.24792e-06
1.14482e-05
-5.58233e-06
1.73074e-05
-5.85925e-06
2.34215e-05
-6.11403e-06
2.97892e-05
-6.36777e-06
3.6377e-05
-6.58778e-06
4.32119e-05
-6.83496e-06
5.02968e-05
-7.08491e-06
5.76953e-05
-7.39844e-06
6.54694e-05
-7.77415e-06
7.37544e-05
-8.28498e-06
8.25578e-05
-8.80346e-06
9.20793e-05
-9.52151e-06
0.00010233
-1.02509e-05
0.000113383
-1.10531e-05
0.000125277
-1.18939e-05
0.000138007
-1.27301e-05
0.000151518
-1.3511e-05
0.000165738
-1.42202e-05
0.000180583
-1.48444e-05
0.000195912
-1.53293e-05
0.00021158
-1.5668e-05
0.000227492
-1.59123e-05
0.000243494
-1.60026e-05
0.000259468
-1.59738e-05
0.00027525
-1.57821e-05
0.000290618
-1.5368e-05
0.000305418
-1.47998e-05
0.000319377
-1.39591e-05
0.000332268
-1.2891e-05
0.000343856
-1.15883e-05
0.000353828
-9.97217e-06
0.000361965
-8.13716e-06
0.000368034
-6.06902e-06
0.000371865
-3.83038e-06
0.000373363
-1.49818e-06
0.000372548
8.15468e-07
0.000369289
3.25914e-06
0.000363738
5.55039e-06
0.000356072
7.66586e-06
0.000346432
9.64029e-06
0.000334991
1.14407e-05
0.000321997
1.29943e-05
0.00030767
1.43263e-05
0.000292305
1.53656e-05
0.000276153
1.6152e-05
0.00025945
1.67028e-05
0.000242497
1.6953e-05
0.000225544
1.69532e-05
0.000208838
1.67058e-05
0.000192619
1.62188e-05
0.000177071
1.55474e-05
0.000162403
1.46684e-05
0.000148787
1.36161e-05
0.000136343
1.24434e-05
0.000125087
1.12566e-05
0.00011502
1.00666e-05
0.000106065
8.95485e-06
9.8148e-05
7.91713e-06
9.11617e-05
6.98633e-06
8.50247e-05
6.1369e-06
7.96219e-05
5.40276e-06
7.48273e-05
4.79464e-06
7.05745e-05
4.25278e-06
6.67891e-05
3.78536e-06
6.33583e-05
3.43075e-06
6.02938e-05
3.06453e-06
5.74737e-05
2.82007e-06
5.48945e-05
2.57916e-06
5.25192e-05
2.37535e-06
5.03356e-05
2.18351e-06
4.84069e-05
1.92873e-06
4.67476e-05
1.65927e-06
4.54058e-05
1.34181e-06
4.44094e-05
9.96431e-07
4.37646e-05
6.44708e-07
4.34433e-05
3.21323e-07
4.34371e-05
6.2041e-09
4.37074e-05
-2.70246e-07
4.41982e-05
-4.90842e-07
4.48912e-05
-6.93008e-07
4.57949e-05
-9.03728e-07
4.69162e-05
-1.12126e-06
4.82732e-05
-1.35703e-06
4.99456e-05
-1.67241e-06
5.20012e-05
-2.05559e-06
5.45308e-05
-2.52961e-06
5.76666e-05
-3.13587e-06
6.15305e-05
-3.86391e-06
6.62377e-05
-4.70721e-06
7.18955e-05
-5.65789e-06
7.85636e-05
-6.66815e-06
8.63131e-05
-7.74956e-06
9.51327e-05
-8.81959e-06
0.000104993
-9.86036e-06
0.000115816
-1.08233e-05
0.000127481
-1.16648e-05
0.000139924
-1.24428e-05
0.000153006
-1.30829e-05
0.000166647
-1.36406e-05
0.000180732
-1.40855e-05
0.000195207
-1.44754e-05
0.000210054
-1.48468e-05
0.000225038
-1.4984e-05
0.000240085
-1.50479e-05
0.000255199
-1.51142e-05
0.000270263
-1.50641e-05
0.000285133
-1.48704e-05
0.00029967
-1.45377e-05
0.000313689
-1.40199e-05
0.000327026
-1.33379e-05
0.000339515
-1.24899e-05
0.000351036
-1.15221e-05
0.000361419
-1.03847e-05
0.000370467
-9.04857e-06
0.00037792
-7.45499e-06
0.000383675
-5.75611e-06
0.000387631
-3.95734e-06
0.000388886
-1.25667e-06
0.000387217
1.66744e-06
0.000382887
4.32985e-06
0.000376526
6.35952e-06
0.00036829
8.23598e-06
0.000357862
1.04271e-05
0.000345521
1.23407e-05
0.000331471
1.405e-05
0.000315935
1.5535e-05
0.000299509
1.64261e-05
0.0002825
1.70093e-05
0.000265189
1.73105e-05
0.000248065
1.71239e-05
0.000231301
1.67642e-05
0.00021509
1.6211e-05
0.000199641
1.54492e-05
0.000184981
1.46598e-05
0.000171233
1.3748e-05
0.000158366
1.28672e-05
0.000146367
1.19991e-05
0.000135271
1.10962e-05
0.000125027
1.0244e-05
0.000115606
9.42044e-06
0.00010701
8.59592e-06
9.9192e-05
7.81822e-06
9.21394e-05
7.05253e-06
8.581e-05
6.32943e-06
8.01704e-05
5.63958e-06
7.5193e-05
4.97737e-06
7.08312e-05
4.36182e-06
6.70401e-05
3.79114e-06
6.37762e-05
3.2639e-06
6.09893e-05
2.78691e-06
5.86345e-05
2.3548e-06
5.66667e-05
1.9678e-06
5.50492e-05
1.61744e-06
5.37566e-05
1.29261e-06
5.2777e-05
9.7962e-07
5.21059e-05
6.71094e-07
5.17571e-05
3.48785e-07
5.17505e-05
6.60456e-09
5.21657e-05
-4.1513e-07
5.30322e-05
-8.66555e-07
5.42906e-05
-1.25839e-06
5.61491e-05
-1.85853e-06
5.86346e-05
-2.4855e-06
6.16065e-05
-2.97184e-06
6.53528e-05
-3.7463e-06
6.98805e-05
-4.52775e-06
7.49868e-05
-5.10628e-06
8.09637e-05
-5.97691e-06
8.76603e-05
-6.69666e-06
9.52712e-05
-7.61093e-06
0.000103782
-8.51084e-06
0.000112868
-9.0855e-06
0.000122824
-9.95681e-06
0.000133698
-1.08736e-05
0.000145108
-1.14101e-05
0.000157271
-1.21635e-05
0.000170081
-1.28098e-05
0.000183595
-1.35138e-05
0.000197799
-1.42038e-05
0.000212336
-1.45372e-05
0.000227421
-1.50857e-05
0.000243031
-1.56097e-05
0.000258755
-1.57242e-05
0.00027471
-1.59553e-05
0.000290644
-1.59336e-05
0.000306474
-1.58303e-05
0.000322003
-1.55286e-05
0.000336926
-1.49237e-05
0.000351163
-1.42371e-05
0.000364493
-1.33299e-05
-1.2627e-05
3.99523e-05
-2.9694e-06
4.18186e-05
-3.7339e-06
4.41375e-05
-4.63872e-06
4.68832e-05
-5.49302e-06
5.01499e-05
-6.53264e-06
5.3882e-05
-7.4658e-06
5.82202e-05
-8.68083e-06
6.31758e-05
-9.91398e-06
6.86104e-05
-1.08711e-05
7.48182e-05
-1.24136e-05
8.18454e-05
-1.4057e-05
8.94721e-05
-1.52626e-05
9.80775e-05
-1.72057e-05
0.000107533
-1.88944e-05
0.000118054
-2.10468e-05
0.000129703
-2.33128e-05
0.000142079
-2.47472e-05
0.000155566
-2.69654e-05
0.000170158
-2.91696e-05
0.000185433
-3.05579e-05
0.000201622
-3.23882e-05
0.000218718
-3.41789e-05
0.00023625
-3.50531e-05
0.00025423
-3.59701e-05
0.000272481
-3.64855e-05
0.000290825
-3.66714e-05
0.000309071
-3.64983e-05
0.000326795
-3.54328e-05
0.00034387
-3.41296e-05
0.000360077
-3.24088e-05
0.000375063
-2.99603e-05
0.000388597
-2.70613e-05
0.000400523
-2.38414e-05
0.00041057
-2.00859e-05
0.0004186
-1.60503e-05
0.000424395
-1.15863e-05
0.000427901
-7.00894e-06
0.000429065
-2.31553e-06
0.000427759
2.59156e-06
0.000424066
7.38632e-06
0.000418076
1.19858e-05
0.000410004
1.61398e-05
0.000400162
1.9676e-05
0.000388352
2.36103e-05
0.000374939
2.68166e-05
0.000360328
2.92144e-05
0.000344461
3.17241e-05
0.000327704
3.35035e-05
0.00031038
3.46405e-05
0.000292531
3.56886e-05
0.000274466
3.61233e-05
0.000256349
3.62256e-05
0.000238367
3.59571e-05
0.000220677
3.53732e-05
0.000203352
3.46455e-05
0.000186543
3.36117e-05
0.000170341
3.23988e-05
0.000154788
3.11023e-05
0.000139974
2.96246e-05
0.000125923
2.80984e-05
0.000112688
2.64666e-05
0.000100298
2.47767e-05
8.8763e-05
2.30676e-05
7.81095e-05
2.13045e-05
6.83518e-05
1.95141e-05
5.93956e-05
1.79113e-05
5.11903e-05
1.6411e-05
4.36774e-05
1.50268e-05
3.68191e-05
1.37137e-05
3.05164e-05
1.26074e-05
2.45959e-05
1.18446e-05
1.88839e-05
1.14255e-05
1.34889e-05
1.0794e-05
8.15139e-06
1.06866e-05
2.82554e-06
1.06697e-05
-2.16622e-06
1.00009e-05
-7.03527e-06
9.75379e-06
-1.15669e-05
9.07783e-06
-1.55911e-05
8.06459e-06
-1.92487e-05
7.32755e-06
-2.22505e-05
6.01302e-06
-2.43923e-05
4.2967e-06
-2.57525e-05
2.73906e-06
-2.61415e-05
7.90389e-07
-2.51224e-05
-2.02917e-06
-2.27967e-05
-4.63372e-06
-1.91574e-05
-7.26845e-06
-1.43214e-05
-9.65828e-06
-8.34248e-06
-1.19464e-05
-1.39881e-06
-1.38933e-05
7.27287e-06
-1.73126e-05
1.67639e-05
-1.89838e-05
2.70302e-05
-2.05209e-05
3.8009e-05
-2.19525e-05
4.9634e-05
-2.32465e-05
6.19066e-05
-2.45354e-05
7.47953e-05
-2.57786e-05
8.831e-05
-2.70146e-05
0.000102396
-2.81752e-05
0.000116999
-2.92446e-05
0.000132137
-3.02563e-05
0.000147714
-3.11341e-05
0.000163695
-3.19271e-05
0.000179905
-3.24521e-05
0.000196335
-3.28414e-05
0.000212807
-3.29409e-05
0.000229199
-3.27754e-05
0.000245353
-3.22959e-05
0.000261068
-3.14232e-05
0.000276235
-3.02963e-05
0.000290555
-2.86342e-05
0.000303897
-2.67239e-05
0.000316056
-2.42918e-05
0.000326843
-2.15541e-05
0.000336059
-1.8448e-05
0.000343555
-1.49962e-05
0.000349197
-1.12513e-05
0.000352768
-7.16788e-06
0.000354282
-3.0099e-06
0.000353698
1.14236e-06
0.000350908
5.56235e-06
0.000345919
9.99654e-06
0.000338849
1.41264e-05
0.000329773
1.81503e-05
0.000318798
2.19406e-05
0.000306063
2.54541e-05
0.000291757
2.86044e-05
0.000276108
3.13333e-05
0.000259259
3.36128e-05
0.000241566
3.53869e-05
0.000223235
3.66873e-05
0.000204531
3.73719e-05
0.000185705
3.76676e-05
0.000166959
3.74961e-05
0.000148553
3.68281e-05
0.000130525
3.60049e-05
0.000113143
3.4768e-05
9.65138e-05
3.32426e-05
8.07679e-05
3.14812e-05
6.59616e-05
2.96276e-05
5.2202e-05
2.75245e-05
3.96018e-05
2.51929e-05
2.80579e-05
2.3069e-05
1.77537e-05
2.06127e-05
8.68867e-06
1.81575e-05
7.28099e-07
1.58847e-05
-6.03315e-06
1.35191e-05
-1.17104e-05
1.13214e-05
-1.64005e-05
9.40849e-06
-2.01464e-05
7.47583e-06
-2.30097e-05
5.76151e-06
-2.51269e-05
4.18725e-06
-2.65555e-05
2.83152e-06
-2.72834e-05
1.45116e-06
-2.73796e-05
1.68979e-07
-2.68759e-05
-1.02773e-06
-2.5817e-05
-2.12275e-06
-2.42136e-05
-3.21817e-06
-2.20954e-05
-4.2566e-06
-1.94664e-05
-5.27304e-06
-1.63737e-05
-6.20359e-06
-1.27935e-05
-7.17469e-06
-8.74729e-06
-8.10914e-06
-4.29255e-06
-8.93517e-06
5.4871e-07
-9.69651e-06
5.78469e-06
-1.04839e-05
1.13498e-05
-1.11474e-05
1.72135e-05
-1.17229e-05
2.33226e-05
-1.22231e-05
2.96478e-05
-1.2693e-05
3.62471e-05
-1.31871e-05
4.30653e-05
-1.36531e-05
5.01129e-05
-1.41324e-05
5.75066e-05
-1.47922e-05
6.52623e-05
-1.55298e-05
7.35228e-05
-1.65455e-05
8.23545e-05
-1.76351e-05
9.1877e-05
-1.9044e-05
0.000102104
-2.04775e-05
0.000113183
-2.21324e-05
0.000125077
-2.37877e-05
0.000137787
-2.544e-05
0.00015131
-2.70347e-05
0.000165559
-2.84689e-05
0.000180413
-2.96984e-05
0.00019573
-3.06464e-05
0.000211412
-3.13505e-05
0.000227342
-3.18421e-05
0.000243355
-3.20152e-05
0.000259337
-3.19563e-05
0.000275147
-3.15916e-05
0.000290541
-3.07616e-05
0.000305365
-2.9624e-05
0.000319349
-2.79432e-05
0.000332263
-2.58052e-05
0.00034387
-2.31956e-05
0.000353853
-1.99545e-05
0.000362007
-1.62918e-05
0.000368086
-1.21482e-05
0.000371917
-7.66076e-06
0.000373411
-2.99234e-06
0.000372577
1.64906e-06
0.000369325
6.51139e-06
0.000363773
1.11021e-05
0.000356087
1.53518e-05
0.000346427
1.93003e-05
0.00033498
2.28874e-05
0.000321982
2.59927e-05
0.000307649
2.86595e-05
0.00029225
3.07645e-05
0.000276068
3.23339e-05
0.000259372
3.33986e-05
0.000242406
3.3919e-05
0.000225429
3.39306e-05
0.000208703
3.34314e-05
0.000192457
3.24652e-05
0.000176893
3.11109e-05
0.000162225
2.93367e-05
0.000148596
2.72444e-05
0.000136147
2.48934e-05
0.000124896
2.25068e-05
0.00011482
2.01427e-05
0.000105865
1.79104e-05
9.79574e-05
1.58244e-05
9.09738e-05
1.39699e-05
8.48362e-05
1.22745e-05
7.94362e-05
1.08028e-05
7.46512e-05
9.57967e-06
7.04019e-05
8.50204e-06
6.66205e-05
7.56675e-06
6.31961e-05
6.85511e-06
6.01256e-05
6.13505e-06
5.72995e-05
5.6461e-06
5.47242e-05
5.15449e-06
5.2355e-05
4.74459e-06
5.01698e-05
4.36868e-06
4.82391e-05
3.85946e-06
4.65766e-05
3.32169e-06
4.52326e-05
2.68586e-06
4.42462e-05
1.9828e-06
4.36005e-05
1.29045e-06
4.32764e-05
6.45362e-07
4.3284e-05
-1.42277e-09
4.35605e-05
-5.46713e-07
4.4048e-05
-9.78304e-07
4.47495e-05
-1.39459e-06
4.56483e-05
-1.80246e-06
4.67668e-05
-2.23978e-06
4.81262e-05
-2.7164e-06
4.97977e-05
-3.34397e-06
5.18519e-05
-4.10981e-06
5.43812e-05
-5.05893e-06
5.75216e-05
-6.27623e-06
6.13811e-05
-7.72343e-06
6.60805e-05
-9.40668e-06
7.17419e-05
-1.13193e-05
7.84117e-05
-1.3338e-05
8.61659e-05
-1.55038e-05
9.49955e-05
-1.76492e-05
0.000104874
-1.97387e-05
0.000115707
-2.16569e-05
0.000127384
-2.33414e-05
0.000139828
-2.48874e-05
0.000152927
-2.61818e-05
0.000166574
-2.7288e-05
0.00018067
-2.81808e-05
0.000195148
-2.89536e-05
0.000209977
-2.96764e-05
0.00022495
-2.99569e-05
0.000239995
-3.00931e-05
0.000255139
-3.02585e-05
0.000270229
-3.01547e-05
0.000285115
-2.97576e-05
0.000299668
-2.90907e-05
0.000313699
-2.80517e-05
0.000327043
-2.66834e-05
0.000339539
-2.49865e-05
0.000351041
-2.3026e-05
0.000361378
-2.07223e-05
0.000370374
-1.80465e-05
0.000377804
-1.48871e-05
0.000383534
-1.14873e-05
0.000387299
-7.7243e-06
0.000388356
-2.31449e-06
0.000386761
3.2614e-06
0.000382697
8.39194e-06
0.000376496
1.25597e-05
0.000368293
1.64388e-05
0.000357865
2.08542e-05
0.00034552
2.46852e-05
0.000331465
2.81051e-05
0.000315923
3.10759e-05
0.000299491
3.2858e-05
0.000282476
3.40239e-05
0.000265161
3.46257e-05
0.000248033
3.42517e-05
0.000231267
3.35308e-05
0.000215054
3.24234e-05
0.000199604
3.08995e-05
0.000184944
2.93196e-05
0.000171197
2.74955e-05
0.00015833
2.57337e-05
0.000146332
2.39973e-05
0.000135237
2.21915e-05
0.000124993
2.04872e-05
0.000115574
1.884e-05
0.000106979
1.7191e-05
9.91615e-05
1.56356e-05
9.21097e-05
1.41043e-05
8.5781e-05
1.26581e-05
8.01425e-05
1.12781e-05
7.51658e-05
9.954e-06
7.08043e-05
8.72339e-06
6.70141e-05
7.58134e-06
6.37513e-05
6.52668e-06
6.09644e-05
5.57386e-06
5.86079e-05
4.7113e-06
5.6638e-05
3.93767e-06
5.5021e-05
3.23449e-06
5.37277e-05
2.58591e-06
5.27475e-05
1.95976e-06
5.20716e-05
1.34701e-06
5.17174e-05
7.0296e-07
5.17073e-05
1.67154e-08
5.21178e-05
-8.25625e-07
5.29775e-05
-1.72625e-06
5.42332e-05
-2.51404e-06
5.60863e-05
-3.71171e-06
5.85665e-05
-4.96571e-06
6.15457e-05
-5.95107e-06
6.52903e-05
-7.49089e-06
6.98173e-05
-9.05473e-06
7.49179e-05
-1.02069e-05
8.08947e-05
-1.19537e-05
8.75924e-05
-1.33944e-05
9.51981e-05
-1.52166e-05
0.000103697
-1.70096e-05
0.000112781
-1.81695e-05
0.000122746
-1.99218e-05
0.000133628
-2.17563e-05
0.000145042
-2.28237e-05
0.000157207
-2.43288e-05
0.000170022
-2.56244e-05
0.00018353
-2.70222e-05
0.000197734
-2.84076e-05
0.000212282
-2.90854e-05
0.000227375
-3.01796e-05
0.000242978
-3.1212e-05
0.0002587
-3.14465e-05
0.000274674
-3.19302e-05
0.000290611
-3.18705e-05
0.000306445
-3.1664e-05
0.000321995
-3.1079e-05
0.000336934
-2.98632e-05
0.000351178
-2.84808e-05
0.000364531
-2.6683e-05
-2.52657e-05
3.99157e-05
-4.45413e-06
4.17825e-05
-5.60074e-06
4.41026e-05
-6.95886e-06
4.68497e-05
-8.24016e-06
5.01171e-05
-9.80002e-06
5.38499e-05
-1.11986e-05
5.81932e-05
-1.30242e-05
6.31585e-05
-1.48793e-05
6.86037e-05
-1.63164e-05
7.48132e-05
-1.86231e-05
8.18428e-05
-2.10866e-05
8.94745e-05
-2.28944e-05
9.80754e-05
-2.58067e-05
0.00010751
-2.83295e-05
0.000118026
-3.15624e-05
0.00012968
-3.49675e-05
0.000142055
-3.71225e-05
0.000155529
-4.04389e-05
0.000170116
-4.37567e-05
0.000185393
-4.58349e-05
0.000201596
-4.85915e-05
0.00021869
-5.12736e-05
0.000236228
-5.25915e-05
0.000254223
-5.39648e-05
0.000272473
-5.47356e-05
0.000290834
-5.50329e-05
0.000309107
-5.47717e-05
0.000326834
-5.31599e-05
0.000343928
-5.12232e-05
0.000360159
-4.86401e-05
0.000375158
-4.496e-05
0.000388708
-4.06107e-05
0.000400638
-3.57719e-05
0.0004107
-3.01479e-05
0.000418751
-2.41013e-05
0.000424551
-1.73864e-05
0.000428067
-1.05255e-05
0.000429252
-3.50046e-06
0.000427909
3.93463e-06
0.000424219
1.10755e-05
0.000418238
1.7967e-05
0.000410156
2.42217e-05
0.0004003
2.95316e-05
0.000388474
3.54365e-05
0.000375043
4.02476e-05
0.000360413
4.3844e-05
0.000344528
4.76092e-05
0.000327754
5.02776e-05
0.000310413
5.19815e-05
0.000292549
5.35527e-05
0.000274469
5.42031e-05
0.00025634
5.43549e-05
0.000238346
5.39507e-05
0.000220646
5.30729e-05
0.000203312
5.19794e-05
0.000186497
5.04274e-05
0.000170289
4.86068e-05
0.00015473
4.66604e-05
0.000139913
4.44419e-05
0.00012586
4.21514e-05
0.000112624
3.9703e-05
0.000100233
3.71673e-05
8.86975e-05
3.46031e-05
7.80447e-05
3.19573e-05
6.82889e-05
2.92699e-05
5.9338e-05
2.68622e-05
5.11382e-05
2.46108e-05
4.36304e-05
2.25346e-05
3.67815e-05
2.05627e-05
3.04877e-05
1.89011e-05
2.45778e-05
1.77546e-05
1.88751e-05
1.71282e-05
1.34872e-05
1.6182e-05
8.18031e-06
1.59934e-05
2.89371e-06
1.59563e-05
-2.08062e-06
1.49752e-05
-6.9203e-06
1.45935e-05
-1.1429e-05
1.35865e-05
-1.54269e-05
1.20625e-05
-1.9061e-05
1.09617e-05
-2.20497e-05
9.00169e-06
-2.41683e-05
6.41525e-06
-2.55052e-05
4.076e-06
-2.58743e-05
1.1594e-06
-2.48223e-05
-3.08113e-06
-2.24765e-05
-6.97958e-06
-1.88234e-05
-1.09215e-05
-1.39784e-05
-1.45033e-05
-8.01279e-06
-1.7912e-05
-1.05587e-06
-2.08502e-05
7.68343e-06
-2.6052e-05
1.71761e-05
-2.84765e-05
2.74387e-05
-3.07835e-05
3.84183e-05
-3.29322e-05
5.00495e-05
-3.48777e-05
6.23045e-05
-3.67904e-05
7.52155e-05
-3.86896e-05
8.86965e-05
-4.04955e-05
0.0001028
-4.2279e-05
0.000117416
-4.38607e-05
0.000132555
-4.53949e-05
0.000148145
-4.6724e-05
0.0001641
-4.78829e-05
0.000180378
-4.87301e-05
0.000196813
-4.92758e-05
0.000213283
-4.94112e-05
0.000229674
-4.91667e-05
0.000245851
-4.84724e-05
0.000261555
-4.71279e-05
0.000276699
-4.544e-05
0.000291061
-4.29958e-05
0.000304414
-4.00768e-05
0.000316601
-3.64795e-05
0.000327437
-3.23899e-05
0.000336634
-2.76454e-05
0.000344127
-2.24885e-05
0.000349741
-1.68656e-05
0.000353359
-1.07854e-05
0.000354897
-4.54782e-06
0.000354258
1.78161e-06
0.000351439
8.38099e-06
0.000346515
1.49204e-05
0.000339404
2.12379e-05
0.000330329
2.7225e-05
0.000319361
3.29092e-05
0.000306584
3.82314e-05
0.00029225
4.29381e-05
0.000276552
4.70319e-05
0.000259706
5.0459e-05
0.000241991
5.31016e-05
0.000223663
5.50153e-05
0.000204937
5.60987e-05
0.000186143
5.64611e-05
0.000167374
5.62653e-05
0.000148872
5.53306e-05
0.000130875
5.40013e-05
0.000113557
5.20865e-05
9.68783e-05
4.99214e-05
8.11055e-05
4.72541e-05
6.6293e-05
4.44402e-05
5.25432e-05
4.12744e-05
3.98612e-05
3.7875e-05
2.84165e-05
3.45137e-05
1.80963e-05
3.0933e-05
9.06427e-06
2.71896e-05
1.06099e-06
2.3888e-05
-5.69868e-06
2.02788e-05
-1.14135e-05
1.70362e-05
-1.60914e-05
1.40864e-05
-1.98581e-05
1.12424e-05
-2.27666e-05
8.67005e-06
-2.49031e-05
6.32369e-06
-2.63141e-05
4.2425e-06
-2.7045e-05
2.18202e-06
-2.71749e-05
2.98845e-07
-2.6708e-05
-1.4946e-06
-2.56741e-05
-3.15664e-06
-2.40662e-05
-4.82607e-06
-2.1995e-05
-6.32784e-06
-1.94127e-05
-7.85528e-06
-1.63479e-05
-9.26842e-06
-1.281e-05
-1.07126e-05
-8.78948e-06
-1.21296e-05
-4.38003e-06
-1.33446e-05
4.54499e-07
-1.4531e-05
5.67096e-06
-1.57003e-05
1.12185e-05
-1.66949e-05
1.70363e-05
-1.75407e-05
2.31136e-05
-1.83004e-05
2.94395e-05
-1.90188e-05
3.59812e-05
-1.97287e-05
4.27701e-05
-2.04421e-05
4.98195e-05
-2.11818e-05
5.7172e-05
-2.21446e-05
6.49248e-05
-2.32826e-05
7.31363e-05
-2.4757e-05
8.1949e-05
-2.64477e-05
9.14476e-05
-2.85426e-05
0.000101702
-3.0732e-05
0.000112721
-3.31515e-05
0.00012463
-3.56964e-05
0.000137401
-3.82107e-05
0.000150921
-4.05549e-05
0.000165152
-4.26994e-05
0.000180022
-4.45684e-05
0.000195394
-4.60188e-05
0.000211091
-4.70468e-05
0.000227024
-4.77759e-05
0.000243059
-4.805e-05
0.000259067
-4.7964e-05
0.000274894
-4.74185e-05
0.000290312
-4.61796e-05
0.000305171
-4.44832e-05
0.000319193
-4.19648e-05
0.000332142
-3.87547e-05
0.000343775
-3.48278e-05
0.000353783
-2.9963e-05
0.000361963
-2.44717e-05
0.000368056
-1.82414e-05
0.000371902
-1.15059e-05
0.000373414
-4.50512e-06
0.000372546
2.51695e-06
0.000369282
9.77579e-06
0.000363744
1.664e-05
0.000356055
2.3041e-05
0.000346377
2.8978e-05
0.000334898
3.43666e-05
0.000321881
3.90096e-05
0.000307539
4.3001e-05
0.000292128
4.61758e-05
0.000275904
4.85576e-05
0.000259166
5.0137e-05
0.000242181
5.09032e-05
0.000225193
5.09194e-05
0.00020844
5.01836e-05
0.00019216
4.87451e-05
0.000176569
4.67021e-05
0.000161886
4.40197e-05
0.000148253
4.08771e-05
0.000135793
3.73539e-05
0.000124539
3.37609e-05
0.000114476
3.02058e-05
0.000105525
2.6861e-05
9.76239e-05
2.37254e-05
9.06498e-05
2.0944e-05
8.45183e-05
1.8406e-05
7.91162e-05
1.62048e-05
7.43319e-05
1.43639e-05
7.00916e-05
1.27423e-05
6.63143e-05
1.1344e-05
6.28914e-05
1.0278e-05
5.98313e-05
9.19514e-06
5.70045e-05
8.47291e-06
5.44239e-05
7.73497e-06
5.20543e-05
7.11423e-06
4.98774e-05
6.54553e-06
4.79455e-05
5.79133e-06
4.62814e-05
4.98577e-06
4.49336e-05
4.03373e-06
4.39456e-05
2.97073e-06
4.33118e-05
1.92425e-06
4.29971e-05
9.60057e-07
4.30077e-05
-1.20393e-08
4.32987e-05
-8.37688e-07
4.37917e-05
-1.47129e-06
4.44885e-05
-2.09137e-06
4.53925e-05
-2.70648e-06
4.65127e-05
-3.36005e-06
4.78673e-05
-4.07092e-06
4.95302e-05
-5.00687e-06
5.15775e-05
-6.15713e-06
5.41052e-05
-7.58667e-06
5.72341e-05
-9.40513e-06
6.10915e-05
-1.15809e-05
6.57936e-05
-1.41088e-05
7.14589e-05
-1.69845e-05
7.81323e-05
-2.00114e-05
8.58899e-05
-2.32614e-05
9.47225e-05
-2.64819e-05
0.000104604
-2.96202e-05
0.000115448
-3.25015e-05
0.000127143
-3.5036e-05
0.0001396
-3.73442e-05
0.000152713
-3.92949e-05
0.00016637
-4.09456e-05
0.000180476
-4.22867e-05
0.000194959
-4.3437e-05
0.000209754
-4.44713e-05
0.000224708
-4.49114e-05
0.00023978
-4.51646e-05
0.00025495
-4.54296e-05
0.000270067
-4.52716e-05
0.000284982
-4.46737e-05
0.000299552
-4.36607e-05
0.000313609
-4.21094e-05
0.000326987
-4.00631e-05
0.000339485
-3.74849e-05
0.000350978
-3.45209e-05
0.000361308
-3.10537e-05
0.000370263
-2.70024e-05
0.000377554
-2.218e-05
0.000383015
-1.69497e-05
0.00038635
-1.10605e-05
0.00038719
-3.15608e-06
0.000385972
4.47725e-06
0.000382456
1.19073e-05
0.000376485
1.85292e-05
0.000368318
2.46051e-05
0.000357885
3.12876e-05
0.000345527
3.70419e-05
0.000331458
4.21745e-05
0.000315901
4.66322e-05
0.000299455
4.93045e-05
0.000282427
5.10518e-05
0.000265101
5.19514e-05
0.000247964
5.1388e-05
0.000231187
5.03082e-05
0.000214978
4.86325e-05
0.000199526
4.63517e-05
0.000184865
4.39799e-05
0.000171119
4.1242e-05
0.000158254
3.85983e-05
0.000146258
3.59932e-05
0.000135166
3.32844e-05
0.000124925
3.07279e-05
0.000115508
2.82571e-05
0.000106915
2.57837e-05
9.91001e-05
2.34506e-05
9.20506e-05
2.11537e-05
8.57243e-05
1.89845e-05
8.00882e-05
1.69142e-05
7.51141e-05
1.49281e-05
7.07557e-05
1.30818e-05
6.69681e-05
1.13689e-05
6.37073e-05
9.7875e-06
6.09225e-05
8.35865e-06
5.85681e-05
7.06573e-06
5.65999e-05
5.90587e-06
5.49825e-05
4.85186e-06
5.36891e-05
3.87933e-06
5.27076e-05
2.94132e-06
5.2029e-05
2.02561e-06
5.16715e-05
1.0604e-06
5.16585e-05
2.96808e-08
5.20638e-05
-1.23088e-06
5.29177e-05
-2.58014e-06
5.41659e-05
-3.76225e-06
5.60145e-05
-5.56027e-06
5.84857e-05
-7.43701e-06
6.14612e-05
-8.9265e-06
6.52022e-05
-1.12319e-05
6.9725e-05
-1.35775e-05
7.48271e-05
-1.5309e-05
8.08045e-05
-1.79312e-05
8.74993e-05
-2.00892e-05
9.51058e-05
-2.28231e-05
0.000103608
-2.55123e-05
0.000112694
-2.72553e-05
0.000122655
-2.98831e-05
0.000133531
-3.26322e-05
0.000144947
-3.42397e-05
0.000157115
-3.64964e-05
0.000169923
-3.84329e-05
0.000183438
-4.05377e-05
0.000197654
-4.26236e-05
0.000212202
-4.36335e-05
0.000227288
-4.52654e-05
0.000242896
-4.68198e-05
0.000258629
-4.71796e-05
0.000274599
-4.79009e-05
0.000290538
-4.78097e-05
0.000306396
-4.75222e-05
0.000321965
-4.66473e-05
0.000336912
-4.48104e-05
0.000351191
-4.27603e-05
0.000364599
-4.00915e-05
-3.79345e-05
3.98608e-05
-5.93949e-06
4.17283e-05
-7.46831e-06
4.40495e-05
-9.28005e-06
4.67983e-05
-1.09891e-05
5.00702e-05
-1.30719e-05
5.38094e-05
-1.49378e-05
5.81581e-05
-1.7373e-05
6.3128e-05
-1.98492e-05
6.858e-05
-2.17685e-05
7.47947e-05
-2.48378e-05
8.18205e-05
-2.81125e-05
8.94527e-05
-3.05266e-05
9.80511e-05
-3.44052e-05
0.000107489
-3.77677e-05
0.000118005
-4.20783e-05
0.000129641
-4.66041e-05
0.000142012
-4.94935e-05
0.000155484
-5.39107e-05
0.000170071
-5.83433e-05
0.000185343
-6.11078e-05
0.00020155
-6.47981e-05
0.00021865
-6.83737e-05
0.000236194
-7.01361e-05
0.000254202
-7.19728e-05
0.000272469
-7.30033e-05
0.000290849
-7.34127e-05
0.000309148
-7.30709e-05
0.000326899
-7.09109e-05
0.000344015
-6.83399e-05
0.000360279
-6.49041e-05
0.000375297
-5.99784e-05
0.00038887
-5.41833e-05
0.000400819
-4.77213e-05
0.000410904
-4.0233e-05
0.000418979
-3.21769e-05
0.000424788
-2.31946e-05
0.000428311
-1.40495e-05
0.000429511
-4.7001e-06
0.000428136
5.30964e-06
0.000424457
1.47538e-05
0.000418482
2.3942e-05
0.000410384
3.23195e-05
0.000400507
3.94086e-05
0.000388656
4.7288e-05
0.000375197
5.37062e-05
0.000360541
5.85003e-05
0.000344628
6.35214e-05
0.000327828
6.70782e-05
0.000310462
6.93474e-05
0.000292574
7.14403e-05
0.000274473
7.2304e-05
0.000256325
7.25034e-05
0.000238314
7.19612e-05
0.0002206
7.07874e-05
0.000203253
6.93263e-05
0.000186426
6.7254e-05
0.00017021
6.48231e-05
0.000154645
6.22251e-05
0.000139823
5.92643e-05
0.000125766
5.62081e-05
0.000112527
5.29418e-05
0.000100135
4.95594e-05
8.85991e-05
4.61392e-05
7.79472e-05
4.26092e-05
6.81943e-05
3.90228e-05
5.92505e-05
3.5806e-05
5.10598e-05
3.28015e-05
4.35609e-05
3.00335e-05
3.67226e-05
2.7401e-05
3.04436e-05
2.51802e-05
2.45501e-05
2.36481e-05
1.88618e-05
2.28165e-05
1.34869e-05
2.15569e-05
8.22154e-06
2.12588e-05
2.99349e-06
2.11844e-05
-1.95556e-06
1.99243e-05
-6.75454e-06
1.93925e-05
-1.12268e-05
1.80587e-05
-1.51904e-05
1.60262e-05
-1.87956e-05
1.45669e-05
-2.17574e-05
1.19635e-05
-2.38435e-05
8.50133e-06
-2.51444e-05
5.37691e-06
-2.54751e-05
1.49013e-06
-2.43798e-05
-4.17651e-06
-2.20027e-05
-9.35662e-06
-1.83298e-05
-1.45945e-05
-1.34636e-05
-1.93695e-05
-7.45977e-06
-2.39158e-05
-3.03074e-07
-2.80069e-05
8.29514e-06
-3.46502e-05
1.77802e-05
-3.79616e-05
2.80417e-05
-4.1045e-05
3.90263e-05
-4.39168e-05
5.0665e-05
-4.65164e-05
6.29353e-05
-4.90607e-05
7.58336e-05
-5.1588e-05
8.93312e-05
-5.39932e-05
0.000103414
-5.6362e-05
0.000118066
-5.85121e-05
0.000133194
-6.05234e-05
0.000148803
-6.23335e-05
0.000164743
-6.38226e-05
0.000181007
-6.49935e-05
0.000197457
-6.57267e-05
0.000213998
-6.59516e-05
0.000230405
-6.55745e-05
0.000246564
-6.46314e-05
0.000262304
-6.28679e-05
0.000277457
-6.05929e-05
0.000291819
-5.73573e-05
0.000305209
-5.34673e-05
0.000317421
-4.86908e-05
0.000328205
-4.31746e-05
0.000337483
-3.69231e-05
0.000344974
-2.99795e-05
0.000350586
-2.24772e-05
0.000354209
-1.44081e-05
0.000355761
-6.1001e-06
0.000355098
2.44462e-06
0.000352285
1.11938e-05
0.000347272
1.99342e-05
0.000340217
2.82924e-05