/*--------------------------------*- C++ -*----------------------------------*\
| =========                 |                                                 |
| \\      /  F ield         | OpenFOAM: The Open Source CFD Toolbox           |
|  \\    /   O peration     | Version:  3.0.1                                 |
|   \\  /    A nd           | Web:      www.OpenFOAM.org                      |
|    \\/     M anipulation  |                                                 |
\*---------------------------------------------------------------------------*/
FoamFile
{
    version     2.0;
    format      ascii;
    class       surfaceScalarField;
    location    "70.2";
    object      phi;
}
// * * * * * * * * * * * * * * * * * * * * * * * * * * * * * * * * * * * * * //

dimensions      [0 3 -1 0 0 0 0];

internalField   nonuniform List<scalar> 
42423
(
-2.81955e-05
1.67508e-05
-4.40754e-05
1.58799e-05
-5.91521e-05
1.50767e-05
-7.33433e-05
1.41912e-05
-8.65511e-05
1.32078e-05
-9.88254e-05
1.22743e-05
-0.000110115
1.12894e-05
-0.000120477
1.03625e-05
-0.000129912
9.43477e-06
-0.000138425
8.51309e-06
-0.000146061
7.63579e-06
-0.000152843
6.78234e-06
-0.000158805
5.96154e-06
-0.000163973
5.16829e-06
-0.000168381
4.40828e-06
-0.000172045
3.6631e-06
-0.000174985
2.9407e-06
-0.000177218
2.2331e-06
-0.00017876
1.54154e-06
-0.000179659
8.98649e-07
-0.000179868
2.0917e-07
-0.000179358
-5.09677e-07
-0.000178209
-1.1492e-06
-0.000176265
-1.94375e-06
-0.000173614
-2.65132e-06
-0.000170146
-3.46744e-06
-0.000165907
-4.23884e-06
-0.000160955
-4.95205e-06
-0.000155048
-5.90764e-06
-0.000148273
-6.77522e-06
-0.000140664
-7.60855e-06
-0.000132005
-8.65947e-06
-0.000122426
-9.57835e-06
-0.000111781
-1.06458e-05
-0.00010018
-1.16002e-05
-8.76977e-05
-1.24826e-05
-7.41536e-05
-1.35442e-05
-5.95976e-05
-1.4556e-05
-4.42902e-05
-1.53074e-05
-2.80666e-05
-1.62236e-05
-1.11464e-05
-1.69203e-05
6.53416e-06
-1.76805e-05
2.47647e-05
-1.82306e-05
4.32121e-05
-1.84474e-05
6.18816e-05
-1.86695e-05
8.06085e-05
-1.8727e-05
9.9009e-05
-1.84005e-05
0.000116997
-1.79881e-05
0.000134386
-1.73888e-05
0.000150767
-1.63807e-05
0.000166066
-1.52992e-05
0.000180027
-1.39617e-05
0.000192449
-1.24212e-05
0.000203134
-1.0685e-05
0.000211856
-8.72218e-06
0.000218601
-6.74501e-06
0.000223183
-4.58232e-06
0.000225476
-2.29262e-06
0.00022551
-3.47772e-08
0.000223233
2.27684e-06
0.000218737
4.49673e-06
0.000212127
6.6102e-06
0.000203429
8.6975e-06
0.000192811
1.06175e-05
0.000180457
1.2354e-05
0.000166573
1.38847e-05
0.000151418
1.51543e-05
0.000135063
1.63549e-05
0.00011785
1.72137e-05
0.000100029
1.78204e-05
8.17352e-05
1.82941e-05
6.32049e-05
1.85302e-05
4.46951e-05
1.85098e-05
2.63438e-05
1.83512e-05
8.39133e-06
1.79525e-05
-9.05383e-06
1.74452e-05
-2.58522e-05
1.67984e-05
-4.19832e-05
1.61309e-05
-5.72854e-05
1.53022e-05
-7.16858e-05
1.44005e-05
-8.51788e-05
1.3493e-05
-9.76623e-05
1.24835e-05
-0.000109163
1.15009e-05
-0.000119637
1.04736e-05
-0.000129033
9.39578e-06
-0.00013734
8.30707e-06
-0.000144596
7.25596e-06
-0.00015071
6.11439e-06
-0.000155789
5.07853e-06
-0.000159814
4.02529e-06
-0.000162875
3.06134e-06
-0.000165051
2.17529e-06
-0.000166424
1.37316e-06
-0.00016708
6.56607e-07
-0.000167115
3.44326e-08
-0.000166482
-6.32622e-07
-0.000165263
-1.2195e-06
-0.000163461
-1.80114e-06
-0.000161136
-2.32584e-06
-0.000158232
-2.90399e-06
-0.00015479
-3.44178e-06
-0.000150712
-4.07822e-06
-0.000146141
-4.57105e-06
-0.00014092
-5.22112e-06
-0.000135075
-5.8443e-06
-0.00012859
-6.48536e-06
-0.000121421
-7.16924e-06
-0.000113559
-7.86133e-06
-0.000105096
-8.46327e-06
-9.58739e-05
-9.22217e-06
-8.59071e-05
-9.96687e-06
-7.51731e-05
-1.0734e-05
-6.37653e-05
-1.14078e-05
-5.15654e-05
-1.21999e-05
-3.86847e-05
-1.28808e-05
-2.51116e-05
-1.35731e-05
-1.08937e-05
-1.4218e-05
3.92378e-06
-1.48175e-05
1.93119e-05
-1.53882e-05
3.51072e-05
-1.57954e-05
5.12816e-05
-1.61744e-05
6.77075e-05
-1.6426e-05
8.42382e-05
-1.65307e-05
0.000100729
-1.64911e-05
0.00011698
-1.62511e-05
0.000132815
-1.58346e-05
0.000148019
-1.52043e-05
0.000162345
-1.43257e-05
0.00017558
-1.32357e-05
0.000187505
-1.19244e-05
0.000197797
-1.02918e-05
0.000206377
-8.58007e-06
0.000213021
-6.644e-06
0.000217503
-4.48213e-06
0.000219799
-2.29622e-06
0.000219807
-7.66482e-09
0.000217495
2.31136e-06
0.00021286
4.63511e-06
0.000205915
6.94529e-06
0.000196901
9.01401e-06
0.000185874
1.10267e-05
0.000173098
1.27758e-05
0.000158713
1.43851e-05
0.000142959
1.57543e-05
0.000126137
1.68218e-05
0.000108466
1.7671e-05
9.02126e-05
1.82532e-05
7.16669e-05
1.85456e-05
5.30372e-05
1.86297e-05
3.45702e-05
1.84671e-05
1.6461e-05
1.81092e-05
-1.0747e-06
1.75357e-05
-1.8001e-05
1.69263e-05
-3.40644e-05
1.60634e-05
-4.92249e-05
1.51605e-05
-6.33944e-05
1.41695e-05
-7.65496e-05
1.31552e-05
-8.87421e-05
1.21925e-05
-9.98939e-05
1.11518e-05
-0.000110059
1.01651e-05
-0.000119254
9.19455e-06
-0.0001275
8.24671e-06
-0.000134807
7.30699e-06
-0.000141332
6.52487e-06
-0.000146992
5.66035e-06
-0.000151907
4.91421e-06
-0.000156105
4.19884e-06
-0.000159557
3.45187e-06
-0.000162356
2.79859e-06
-0.000164503
2.14664e-06
-0.000165997
1.49429e-06
-0.000166893
8.96451e-07
-0.000167162
2.68245e-07
-0.000166856
-3.05567e-07
-0.000166012
-8.43639e-07
-0.000164581
-1.43139e-06
-0.000162573
-2.00766e-06
-0.00016
-2.57311e-06
-0.000156842
-3.15806e-06
-0.000153148
-3.6937e-06
-0.000148843
-4.305e-06
-0.000143952
-4.89135e-06
-0.000138392
-5.55994e-06
-0.000132162
-6.23065e-06
-0.000125241
-6.92047e-06
-0.000117596
-7.64509e-06
-0.000109188
-8.40813e-06
-0.000100064
-9.12436e-06
-9.01468e-05
-9.91675e-06
-7.94078e-05
-1.07391e-05
-6.79073e-05
-1.15005e-05
-5.55263e-05
-1.2381e-05
-4.23127e-05
-1.32136e-05
-2.8193e-05
-1.41197e-05
-1.34169e-05
-1.47762e-05
2.15388e-06
-1.55708e-05
1.83089e-05
-1.61551e-05
3.4963e-05
-1.66541e-05
5.19008e-05
-1.69379e-05
6.89338e-05
-1.7033e-05
8.58393e-05
-1.69055e-05
0.000102438
-1.6599e-05
0.000118523
-1.6085e-05
0.000133879
-1.53558e-05
0.000148269
-1.43901e-05
0.000161506
-1.32367e-05
0.000173318
-1.1812e-05
0.000183463
-1.01459e-05
0.000191695
-8.23157e-06
0.00019777
-6.07481e-06
0.000201552
-3.78245e-06
0.000202911
-1.35866e-06
0.000201827
1.08343e-06
0.000198242
3.58552e-06
0.000192196
6.046e-06
0.000183871
8.32515e-06
0.000173396
1.04746e-05
0.000161013
1.23831e-05
0.000146909
1.41037e-05
0.000131269
1.56405e-05
0.000114503
1.67657e-05
9.68392e-05
1.76636e-05
7.8617e-05
1.82222e-05
6.00945e-05
1.85225e-05
4.15385e-05
1.8556e-05
2.32031e-05
1.83353e-05
5.28556e-06
1.79175e-05
-1.21048e-05
1.73903e-05
-2.87785e-05
1.66737e-05
-4.46242e-05
1.58457e-05
-5.95433e-05
1.49191e-05
-7.34743e-05
1.3931e-05
-8.64325e-05
1.29581e-05
-9.8438e-05
1.20055e-05
-0.000109522
1.10838e-05
-0.000119738
1.02162e-05
-0.000129068
9.3299e-06
-0.000137536
8.46784e-06
-0.000145137
7.60105e-06
-0.000151962
6.82479e-06
-0.000157949
5.98692e-06
-0.000163171
5.2223e-06
-0.00016761
4.43922e-06
-0.000171321
3.71114e-06
-0.000174326
3.00451e-06
-0.000176624
2.29843e-06
-0.000178231
1.6068e-06
-0.000179152
9.20603e-07
-0.000179397
2.4578e-07
-0.000178965
-4.32316e-07
-0.000177848
-1.11682e-06
-0.000176072
-1.77584e-06
-0.00017363
-2.44215e-06
-0.000170662
-2.96855e-06
-0.000167113
-3.54889e-06
-0.000163013
-4.09974e-06
-0.000158325
-4.68828e-06
-0.000153155
-5.17023e-06
-0.000147313
-5.84164e-06
-0.000140826
-6.48712e-06
-0.000133645
-7.18128e-06
-0.000125746
-7.89884e-06
-0.000117092
-8.65375e-06
-0.000107734
-9.35805e-06
-9.76178e-05
-1.01162e-05
-8.66049e-05
-1.1013e-05
-7.47706e-05
-1.18343e-05
-6.21742e-05
-1.25964e-05
-4.87065e-05
-1.34677e-05
-3.44804e-05
-1.4226e-05
-1.95728e-05
-1.49077e-05
-4.05924e-06
-1.55135e-05
1.19382e-05
-1.59974e-05
2.84356e-05
-1.64974e-05
4.52031e-05
-1.67676e-05
6.22304e-05
-1.70273e-05
7.92272e-05
-1.69969e-05
9.61915e-05
-1.69643e-05
0.000112759
-1.65677e-05
0.000128779
-1.60203e-05
0.000144071
-1.52912e-05
0.000158261
-1.41902e-05
0.000170972
-1.27114e-05
0.000181867
-1.08945e-05
0.000190729
-8.86219e-06
0.000197261
-6.53265e-06
0.000201133
-3.87137e-06
0.000202306
-1.17303e-06
0.000200618
1.68735e-06
0.000196122
4.49675e-06
0.000188825
7.297e-06
0.000179007
9.8181e-06
0.000166947
1.20599e-05
0.000152959
1.39876e-05
0.000137376
1.55826e-05
0.000120578
1.67978e-05
0.000102957
1.76215e-05
8.49037e-05
1.80533e-05
6.65587e-05
1.83449e-05
4.84065e-05
1.81522e-05
3.06018e-05
1.78047e-05
1.32583e-05
1.73435e-05
-3.41731e-06
1.66756e-05
-1.9255e-05
1.58376e-05
-3.41986e-05
1.49437e-05
-4.81742e-05
1.39755e-05
-6.11503e-05
1.29761e-05
-7.31453e-05
1.19949e-05
-8.41642e-05
1.10189e-05
-9.42748e-05
1.01106e-05
-0.000103515
9.24004e-06
-0.000111957
8.44246e-06
-0.000119669
7.71149e-06
-0.000126686
7.01673e-06
-0.000133042
6.3569e-06
-0.000138825
5.78231e-06
-0.000144022
5.19717e-06
-0.000148652
4.63001e-06
-0.000152725
4.07311e-06
-0.000156201
3.47634e-06
-0.000159078
2.87615e-06
-0.000161316
2.23845e-06
-0.00016287
1.55429e-06
-0.000163711
8.41212e-07
-0.000163764
5.23813e-08
-0.000162932
-8.3139e-07
-0.000161216
-1.71686e-06
-0.000158516
-2.69961e-06
-0.00015485
-3.66634e-06
-0.000150229
-4.62057e-06
-0.0001445
-5.72903e-06
-0.000137725
-6.77536e-06
-0.000129961
-7.76345e-06
-0.000121059
-8.90199e-06
-0.000111184
-9.87491e-06
-0.000100223
-1.09619e-05
-8.8318e-05
-1.19045e-05
-7.56173e-05
-1.27007e-05
-6.1995e-05
-1.36223e-05
-4.76113e-05
-1.43837e-05
-3.26307e-05
-1.49806e-05
-1.70318e-05
-1.5599e-05
-1.08708e-06
-1.59447e-05
1.52589e-05
-1.6346e-05
3.17622e-05
-1.65033e-05
4.82219e-05
-1.64597e-05
6.46574e-05
-1.64356e-05
8.08822e-05
-1.62248e-05
9.66291e-05
-1.5747e-05
0.000111843
-1.52135e-05
0.00012627
-1.44273e-05
0.000139777
-1.35071e-05
0.000152099
-1.23224e-05
0.00016306
-1.09612e-05
0.000172546
-9.48513e-06
0.000180388
-7.84253e-06
-6.21027e-06
-2.82279e-05
3.3505e-05
-4.41104e-05
3.17623e-05
-5.91897e-05
3.0156e-05
-7.33834e-05
2.83849e-05
-8.65929e-05
2.64173e-05
-9.88686e-05
2.455e-05
-0.000110161
2.2582e-05
-0.000120527
2.07285e-05
-0.000129963
1.8871e-05
-0.000138473
1.70228e-05
-0.000146108
1.52702e-05
-0.000152893
1.3568e-05
-0.000158854
1.19228e-05
-0.00016402
1.0334e-05
-0.000168431
8.81917e-06
-0.000172098
7.33002e-06
-0.00017504
5.88277e-06
-0.000177271
4.46377e-06
-0.000178816
3.08719e-06
-0.000179717
1.79881e-06
-0.000179918
4.108e-07
-0.000179403
-1.02437e-06
-0.000178255
-2.29745e-06
-0.00017631
-3.88865e-06
-0.000173662
-5.29982e-06
-0.000170197
-6.93279e-06
-0.000165959
-8.47641e-06
-0.000161009
-9.90223e-06
-0.000155102
-1.18149e-05
-0.000148327
-1.35502e-05
-0.00014072
-1.52148e-05
-0.000132061
-1.73193e-05
-0.000122491
-1.91482e-05
-0.000111836
-2.13009e-05
-0.000100232
-2.32039e-05
-8.7749e-05
-2.49655e-05
-7.42041e-05
-2.70892e-05
-5.96441e-05
-2.91161e-05
-4.43351e-05
-3.06164e-05
-2.8104e-05
-3.24547e-05
-1.11781e-05
-3.38463e-05
6.50652e-06
-3.53652e-05
2.47457e-05
-3.64698e-05
4.32018e-05
-3.69036e-05
6.18826e-05
-3.73504e-05
8.06203e-05
-3.74647e-05
9.90323e-05
-3.68125e-05
0.000117034
-3.59898e-05
0.000134432
-3.47872e-05
0.000150821
-3.27698e-05
0.000166132
-3.06101e-05
0.000180103
-2.79319e-05
0.000192538
-2.48572e-05
0.000203236
-2.13822e-05
0.000211959
-1.74456e-05
0.000218706
-1.34925e-05
0.000223296
-9.17189e-06
0.000225595
-4.59188e-06
0.000225627
-6.66825e-08
0.000223342
4.56195e-06
0.000218848
8.99096e-06
0.000212235
1.32228e-05
0.000203532
1.74005e-05
0.000192908
2.12419e-05
0.000180545
2.47166e-05
0.000166653
2.77763e-05
0.000151487
3.03204e-05
0.000135117
3.27247e-05
0.000117893
3.44384e-05
0.000100057
3.5656e-05
8.17558e-05
3.65953e-05
6.32115e-05
3.70745e-05
4.46887e-05
3.70326e-05
2.63275e-05
3.67124e-05
8.36587e-06
3.59141e-05
-9.09126e-06
3.49023e-05
-2.58995e-05
3.36066e-05
-4.20408e-05
3.22722e-05
-5.7349e-05
3.06104e-05
-7.17528e-05
2.88043e-05
-8.52454e-05
2.69856e-05
-9.773e-05
2.49681e-05
-0.000109217
2.29875e-05
-0.000119696
2.09525e-05
-0.000129091
1.87916e-05
-0.000137403
1.66185e-05
-0.000144657
1.45099e-05
-0.000150769
1.22268e-05
-0.000155841
1.01507e-05
-0.000159855
8.03901e-06
-0.000162912
6.11816e-06
-0.000165083
4.34621e-06
-0.000166452
2.7422e-06
-0.000167095
1.29966e-06
-0.000167133
7.282e-08
-0.000166506
-1.25959e-06
-0.000165296
-2.4295e-06
-0.000163503
-3.59464e-06
-0.000161168
-4.66015e-06
-0.000158267
-5.80523e-06
-0.000154835
-6.87433e-06
-0.00015076
-8.15305e-06
-0.000146193
-9.13763e-06
-0.000140976
-1.04388e-05
-0.000135139
-1.16805e-05
-0.000128655
-1.29703e-05
-0.000121486
-1.43377e-05
-0.000113626
-1.57211e-05
-0.000105163
-1.69271e-05
-9.59421e-05
-1.84428e-05
-8.59705e-05
-1.99385e-05
-7.52217e-05
-2.14828e-05
-6.38208e-05
-2.28088e-05
-5.1626e-05
-2.43949e-05
-3.87478e-05
-2.5759e-05
-2.51664e-05
-2.71545e-05
-1.09442e-05
-2.84402e-05
3.87823e-06
-2.964e-05
1.9272e-05
-3.07819e-05
3.50756e-05
-3.15991e-05
5.12578e-05
-3.23567e-05
6.76811e-05
-3.28494e-05
8.42117e-05
-3.30614e-05
0.000100704
-3.29835e-05
0.000116963
-3.25102e-05
0.0001328
-3.16713e-05
0.000148008
-3.04131e-05
0.000162335
-2.86523e-05
0.000175575
-2.64759e-05
0.00018749
-2.38395e-05
0.0001978
-2.06015e-05
0.000206378
-1.71588e-05
0.000213022
-1.32876e-05
0.000217497
-8.95726e-06
0.00021979
-4.5889e-06
0.000219814
-3.2141e-08
0.000217462
4.66367e-06
0.000212789
9.30791e-06
0.000205863
1.38707e-05
0.000196833
1.80443e-05
0.0001858
2.20596e-05
0.000173
2.55755e-05
0.000158605
2.87802e-05
0.000142852
3.15075e-05
0.000126015
3.36593e-05
0.000108343
3.53423e-05
9.00992e-05
3.64972e-05
7.15219e-05
3.71229e-05
5.28789e-05
3.72727e-05
3.44078e-05
3.69382e-05
1.62918e-05
3.62251e-05
-1.25177e-06
3.50793e-05
-1.81804e-05
3.38549e-05
-3.42417e-05
3.21247e-05
-4.93954e-05
3.03142e-05
-6.35543e-05
2.83283e-05
-7.66838e-05
2.62847e-05
-8.8891e-05
2.43996e-05
-0.000100041
2.23023e-05
-0.000110214
2.03379e-05
-0.000119393
1.8373e-05
-0.000127637
1.64906e-05
-0.000134972
1.46422e-05
-0.00014147
1.30227e-05
-0.000147124
1.13148e-05
-0.000152019
9.80866e-06
-0.000156236
8.41585e-06
-0.000159682
6.89833e-06
-0.000162451
5.56798e-06
-0.000164619
4.31436e-06
-0.000166107
2.9821e-06
-0.000166992
1.78134e-06
-0.000167261
5.37796e-07
-0.000166959
-6.08182e-07
-0.000166105
-1.69769e-06
-0.000164674
-2.86225e-06
-0.000162662
-4.01989e-06
-0.00016009
-5.1443e-06
-0.000156936
-6.31271e-06
-0.000153236
-7.39377e-06
-0.000148933
-8.60744e-06
-0.000144036
-9.7888e-06
-0.000138474
-1.11222e-05
-0.000132251
-1.2453e-05
-0.000125328
-1.38439e-05
-0.00011768
-1.52933e-05
-0.000109287
-1.68005e-05
-0.000100158
-1.82539e-05
-9.02467e-05
-1.9828e-05
-7.95078e-05
-2.1478e-05
-6.80025e-05
-2.30059e-05
-5.56279e-05
-2.47557e-05
-4.24089e-05
-2.64326e-05
-2.83396e-05
-2.81891e-05
-1.35226e-05
-2.95932e-05
2.06056e-06
-3.1154e-05
1.82179e-05
-3.23125e-05
3.48784e-05
-3.33147e-05
5.18225e-05
-3.3882e-05
6.88558e-05
-3.40664e-05
8.57649e-05
-3.38147e-05
0.000102366
-3.32001e-05
0.00011845
-3.2169e-05
0.000133816
-3.07216e-05
0.000148223
-2.87972e-05
0.000161461
-2.64756e-05
0.00017328
-2.36309e-05
0.000183419
-2.02849e-05
0.000191658
-1.64704e-05
0.00019774
-1.2157e-05
0.000201522
-7.56399e-06
0.000202895
-2.73239e-06
0.000201786
2.19282e-06
0.000198202
7.1695e-06
0.000192148
1.20993e-05
0.000183826
1.66476e-05
0.000173341
2.09593e-05
0.000160941
2.47837e-05
0.000146803
2.82416e-05
0.00013118
3.12632e-05
0.000114404
3.35414e-05
9.6738e-05
3.53299e-05
7.85049e-05
3.64552e-05
5.99762e-05
3.70512e-05
4.14082e-05
3.7124e-05
2.30697e-05
3.66738e-05
5.14787e-06
3.58393e-05
-1.22437e-05
3.47819e-05
-2.89142e-05
3.33442e-05
-4.47605e-05
3.1692e-05
-5.96829e-05
2.98414e-05
-7.36157e-05
2.78638e-05
-8.65533e-05
2.58957e-05
-9.85752e-05
2.40274e-05
-0.000109656
2.21647e-05
-0.000119869
2.0429e-05
-0.00012919
1.86512e-05
-0.000137659
1.69367e-05
-0.000145258
1.52003e-05
-0.000152087
1.36532e-05
-0.000158071
1.19707e-05
-0.000163291
1.04423e-05
-0.000167734
8.88273e-06
-0.000171445
7.42214e-06
-0.000174442
6.00114e-06
-0.00017674
4.59694e-06
-0.000178349
3.21535e-06
-0.000179276
1.84752e-06
-0.000179519
4.886e-07
-0.00017909
-8.61285e-07
-0.000177974
-2.23245e-06
-0.0001762
-3.54959e-06
-0.000173747
-4.8953e-06
-0.000170791
-5.92455e-06
-0.000167235
-7.10519e-06
-0.000163135
-8.19913e-06
-0.000158439
-9.38434e-06
-0.000153274
-1.0336e-05
-0.000147427
-1.16879e-05
-0.000140927
-1.29876e-05
-0.000133738
-1.43704e-05
-0.000125841
-1.57953e-05
-0.000117191
-1.73036e-05
-0.000107805
-1.87443e-05
-9.76922e-05
-2.02293e-05
-8.66767e-05
-2.20285e-05
-7.48327e-05
-2.36783e-05
-6.22225e-05
-2.52067e-05
-4.87619e-05
-2.69284e-05
-3.45078e-05
-2.84802e-05
-1.96092e-05
-2.98064e-05
-4.09595e-06
-3.10269e-05
1.19169e-05
-3.20103e-05
2.84184e-05
-3.2999e-05
4.51992e-05
-3.35485e-05
6.2228e-05
-3.40561e-05
7.92359e-05
-3.40049e-05
9.62104e-05
-3.39389e-05
0.000112787
-3.31446e-05
0.000128824
-3.20569e-05
0.000144127
-3.05944e-05
0.000158332
-2.83949e-05
0.000171055
-2.54345e-05
0.000181964
-2.18038e-05
0.000190848
-1.77469e-05
0.000197393
-1.30777e-05
0.000201269
-7.74713e-06
0.00020245
-2.35437e-06
0.00020075
3.38815e-06
0.000196255
8.99112e-06
0.000188954
1.45985e-05
0.000179124
1.96478e-05
0.00016705
2.41341e-05
0.000153046
2.7991e-05
0.000137448
3.11811e-05
0.000120631
3.36142e-05
0.000102997
3.52555e-05
8.49232e-05
3.61272e-05
6.6574e-05
3.66941e-05
4.84007e-05
3.63255e-05
3.05921e-05
3.56132e-05
1.32401e-05
3.46955e-05
-3.44467e-06
3.33604e-05
-1.92878e-05
3.16807e-05
-3.42362e-05
2.98921e-05
-4.82147e-05
2.79541e-05
-6.11928e-05
2.59542e-05
-7.31864e-05
2.39886e-05
-8.42079e-05
2.20404e-05
-9.43183e-05
2.02209e-05
-0.000103559
1.84807e-05
-0.000111999
1.68826e-05
-0.000119709
1.54212e-05
-0.000126725
1.4033e-05
-0.000133084
1.27161e-05
-0.000138869
1.15674e-05
-0.000144065
1.03924e-05
-0.000148692
9.25772e-06
-0.000152765
8.14609e-06
-0.000156246
6.95682e-06
-0.000159123
5.75305e-06
-0.000161363
4.47833e-06
-0.000162924
3.11569e-06
-0.00016377
1.6871e-06
-0.000163819
1.01932e-07
-0.000162986
-1.6653e-06
-0.00016127
-3.43222e-06
-0.000158573
-5.39723e-06
-0.000154908
-7.33124e-06
-0.000150287
-9.24116e-06
-0.000144557
-1.14594e-05
-0.000137782
-1.35502e-05
-0.00013002
-1.55259e-05
-0.000121116
-1.78059e-05
-0.000111235
-1.97556e-05
-0.000100273
-2.19235e-05
-8.83635e-05
-2.38145e-05
-7.56595e-05
-2.54047e-05
-6.20318e-05
-2.72501e-05
-4.7642e-05
-2.87735e-05
-3.26532e-05
-2.99695e-05
-1.70514e-05
-3.12008e-05
-1.10051e-06
-3.18956e-05
1.52491e-05
-3.26957e-05
3.17608e-05
-3.3015e-05
4.82263e-05
-3.29252e-05
6.46663e-05
-3.28757e-05
8.08967e-05
-3.24552e-05
9.66494e-05
-3.14997e-05
0.000111869
-3.04327e-05
0.000126302
-2.88612e-05
0.000139815
-2.70197e-05
0.000152144
-2.46514e-05
0.00016311
-2.19273e-05
0.000172604
-1.89789e-05
0.000180457
-1.56955e-05
-1.24234e-05
-2.82929e-05
5.02662e-05
-4.41806e-05
4.76501e-05
-5.92641e-05
4.52394e-05
-7.34606e-05
4.25815e-05
-8.66724e-05
3.96291e-05
-9.89491e-05
3.68267e-05
-0.000110241
3.38738e-05
-0.000120606
3.10939e-05
-0.000130042
2.83065e-05
-0.000138554
2.55346e-05
-0.00014619
2.29064e-05
-0.000152972
2.03504e-05
-0.000158932
1.78827e-05
-0.000164098
1.55e-05
-0.000168511
1.32322e-05
-0.000172176
1.09943e-05
-0.000175116
8.82284e-06
-0.000177352
6.6998e-06
-0.0001789
4.63525e-06
-0.000179787
2.6861e-06
-0.000179976
5.99566e-07
-0.000179459
-1.54157e-06
-0.000178313
-3.44348e-06
-0.000176366
-5.83483e-06
-0.000173719
-7.94711e-06
-0.000170257
-1.03954e-05
-0.000166023
-1.27101e-05
-0.000161075
-1.48503e-05
-0.00015517
-1.77197e-05
-0.000148397
-2.03231e-05
-0.000140792
-2.28196e-05
-0.000132134
-2.59775e-05
-0.00012257
-2.87125e-05
-0.000111909
-3.1962e-05
-0.000100307
-3.48057e-05
-8.78238e-05
-3.74489e-05
-7.42739e-05
-4.06391e-05
-5.97123e-05
-4.36776e-05
-4.43994e-05
-4.59294e-05
-2.81625e-05
-4.86916e-05
-1.12294e-05
-5.07794e-05
6.46696e-06
-5.30616e-05
2.4722e-05
-5.47249e-05
4.31923e-05
-5.53739e-05
6.18903e-05
-5.60484e-05
8.06388e-05
-5.62133e-05
9.9064e-05
-5.52378e-05
0.000117088
-5.40136e-05
0.000134508
-5.22073e-05
0.000150909
-4.91707e-05
0.000166233
-4.59348e-05
0.000180223
-4.19221e-05
0.00019268
-3.73135e-05
0.000203394
-3.20963e-05
0.000212116
-2.6168e-05
0.000218872
-2.02488e-05
0.000223473
-1.37727e-05
0.000225773
-6.8921e-06
0.000225797
-9.01568e-08
0.000223497
6.86116e-06
0.000219006
1.34824e-05
0.000212388
1.98411e-05
0.000203674
2.61145e-05
0.00019304
3.18758e-05
0.000180666
3.70904e-05
0.000166767
4.16757e-05
0.000151578
4.5509e-05
0.000135185
4.91176e-05
0.000117947
5.16764e-05
0.000100085
5.35183e-05
8.17741e-05
5.49057e-05
6.32099e-05
5.56387e-05
4.46701e-05
5.55724e-05
2.62967e-05
5.50859e-05
8.32072e-06
5.38901e-05
-9.14685e-06
5.23698e-05
-2.59646e-05
5.04243e-05
-4.21156e-05
4.84232e-05
-5.74294e-05
4.59242e-05
-7.18366e-05
4.32114e-05
-8.53303e-05
4.04793e-05
-9.78223e-05
3.74601e-05
-0.000109302
3.44674e-05
-0.000119776
3.14264e-05
-0.000129181
2.81966e-05
-0.000137494
2.49314e-05
-0.000144753
2.17685e-05
-0.000150872
1.83466e-05
-0.000155944
1.52217e-05
-0.000159955
1.20506e-05
-0.000163004
9.16708e-06
-0.000165169
6.51079e-06
-0.000166536
4.10974e-06
-0.000167204
1.96793e-06
-0.000167223
9.11172e-08
-0.000166606
-1.87644e-06
-0.000165407
-3.62864e-06
-0.000163604
-5.39722e-06
-0.000161309
-6.95517e-06
-0.000158418
-8.69682e-06
-0.000154998
-1.02939e-05
-0.000150927
-1.22242e-05
-0.000146364
-1.37004e-05
-0.000141159
-1.56442e-05
-0.000135327
-1.75123e-05
-0.000128842
-1.94553e-05
-0.000121694
-2.1486e-05
-0.000113873
-2.35416e-05
-0.000105358
-2.54419e-05
-9.6142e-05
-2.76591e-05
-8.6169e-05
-2.99115e-05
-7.5423e-05
-3.22288e-05
-6.40306e-05
-3.42013e-05
-5.17915e-05
-3.6634e-05
-3.89486e-05
-3.8602e-05
-2.53618e-05
-4.07414e-05
-1.11324e-05
-4.26696e-05
3.69701e-06
-4.44694e-05
1.91056e-05
-4.61906e-05
3.49161e-05
-4.74097e-05
5.11055e-05
-4.85461e-05
6.75405e-05
-4.92844e-05
8.40806e-05
-4.96016e-05
0.000100588
-4.94912e-05
0.000116858
-4.87801e-05
0.000132714
-4.75275e-05
0.000147955
-4.5654e-05
0.000162296
-4.29932e-05
0.000175542
-3.97217e-05
0.000187472
-3.57696e-05
0.000197806
-3.09361e-05
0.000206419
-2.57713e-05
0.000213029
-1.98981e-05
0.000217529
-1.34568e-05
0.000219827
-6.88699e-06
0.000219844
-4.95745e-08
0.000217468
7.03941e-06
0.000212781
1.3995e-05
0.000205849
2.08032e-05
0.000196798
2.7095e-05
0.000185757
3.31008e-05
0.000172937
3.83952e-05
0.000158526
4.31914e-05
0.00014278
4.72535e-05
0.000125905
5.05339e-05
0.000108214
5.30335e-05
8.99733e-05
5.47375e-05
7.13501e-05
5.5746e-05
5.26829e-05
5.59399e-05
3.41841e-05
5.54369e-05
1.60648e-05
5.43444e-05
-1.53395e-06
5.2678e-05
-1.84351e-05
5.07561e-05
-3.45008e-05
4.81904e-05
-4.96471e-05
4.54604e-05
-6.38071e-05
4.24883e-05
-7.69423e-05
3.94199e-05
-8.91443e-05
3.66016e-05
-0.000100284
3.34423e-05
-0.000110464
3.05175e-05
-0.000119643
2.75517e-05
-0.00012784
2.46876e-05
-0.00013524
2.20429e-05
-0.000141733
1.95151e-05
-0.00014738
1.69621e-05
-0.000152233
1.46617e-05
-0.000156477
1.26595e-05
-0.000159922
1.03438e-05
-0.000162684
8.32965e-06
-0.000164853
6.48356e-06
-0.000166351
4.48036e-06
-0.000167223
2.65277e-06
-0.000167495
8.09799e-07
-0.000167193
-9.10324e-07
-0.000166273
-2.61748e-06
-0.000164886
-4.24892e-06
-0.000162881
-6.02503e-06
-0.000160301
-7.72462e-06
-0.000157173
-9.44056e-06
-0.000153466
-1.11006e-05
-0.00014916
-1.29136e-05
-0.000144264
-1.46844e-05
-0.000138706
-1.66807e-05
-0.00013248
-1.86786e-05
-0.000125554
-2.07704e-05
-0.00011791
-2.29372e-05
-0.000109543
-2.51678e-05
-0.000100363
-2.7434e-05
-9.04784e-05
-2.97123e-05
-7.97482e-05
-3.22083e-05
-6.82246e-05
-3.45295e-05
-5.58595e-05
-3.71209e-05
-4.26175e-05
-3.96746e-05
-2.85974e-05
-4.22092e-05
-1.37468e-05
-4.44439e-05
1.85222e-06
-4.67531e-05
1.80505e-05
-4.85108e-05
3.47104e-05
-4.99747e-05
5.1671e-05
-5.08426e-05
6.87168e-05
-5.11122e-05
8.56441e-05
-5.07421e-05
0.000102256
-4.98117e-05
0.000118349
-4.8262e-05
0.000133726
-4.60995e-05
0.000148155
-4.32262e-05
0.000161414
-3.97348e-05
0.000173274
-3.54905e-05
0.000183419
-3.04305e-05
0.000191676
-2.47274e-05
0.000197771
-1.8252e-05
0.000201559
-1.13518e-05
0.000202953
-4.12609e-06
0.000201802
3.34373e-06
0.000198233
1.07387e-05
0.000192153
1.8179e-05
0.00018382
2.49809e-05
0.000173323
3.14558e-05
0.000160906
3.72004e-05
0.000146738
4.24097e-05
0.000131099
4.69021e-05
0.000114301
5.03396e-05
9.66249e-05
5.30057e-05
7.8366e-05
5.47142e-05
5.98352e-05
5.55819e-05
4.12357e-05
5.57235e-05
2.28836e-05
5.50259e-05
4.91547e-06
5.38074e-05
-1.24748e-05
5.21721e-05
-2.9157e-05
5.00265e-05
-4.50095e-05
4.75444e-05
-5.99326e-05
4.47645e-05
-7.38675e-05
4.17987e-05
-8.67885e-05
3.88168e-05
-9.88353e-05
3.60741e-05
-0.000109912
3.32411e-05
-0.000120119
3.06366e-05
-0.000129434
2.79654e-05
-0.000137911
2.54137e-05
-0.000145518
2.28079e-05
-0.000152336
2.04711e-05
-0.000158322
1.7957e-05
-0.000163536
1.56557e-05
-0.00016799
1.33367e-05
-0.000171692
1.11246e-05
-0.000174671
8.98014e-06
-0.000177001
6.92638e-06
-0.000178607
4.82182e-06
-0.000179529
2.76976e-06
-0.000179758
7.16796e-07
-0.000179341
-1.27785e-06
-0.000178218
-3.35533e-06
-0.00017644
-5.32733e-06
-0.000173982
-7.35407e-06
-0.00017102
-8.88644e-06
-0.000167452
-1.06729e-05
-0.000163351
-1.23003e-05
-0.000158702
-1.40334e-05
-0.000153474
-1.5564e-05
-0.000147616
-1.75453e-05
-0.000141107
-1.94971e-05
-0.00013391
-2.15674e-05
-0.000126004
-2.37009e-05
-0.00011736
-2.59479e-05
-0.000107945
-2.81595e-05
-9.78221e-05
-3.03521e-05
-8.68042e-05
-3.30464e-05
-7.49541e-05
-3.55284e-05
-6.23037e-05
-3.78571e-05
-4.88687e-05
-4.03635e-05
-3.45771e-05
-4.27718e-05
-1.96842e-05
-4.46992e-05
-4.1734e-06
-4.65377e-05
1.18592e-05
-4.8043e-05
2.83698e-05
-4.95096e-05
4.51702e-05
-5.03489e-05
6.22061e-05
-5.1092e-05
7.92365e-05
-5.10352e-05
9.62114e-05
-5.09138e-05
0.000112811
-4.9744e-05
0.00012887
-4.81161e-05
0.000144194
-4.59187e-05
0.000158424
-4.26248e-05
0.000171171
-3.81812e-05
0.00018211
-3.27433e-05
0.000191024
-2.66609e-05
0.000197589
-1.96425e-05
0.000201478
-1.1636e-05
0.000202675
-3.55115e-06
0.00020095
5.11258e-06
0.00019646
1.34807e-05
0.00018915
2.19087e-05
0.000179301
2.94972e-05
0.000167201
3.62338e-05
0.00015317
4.20225e-05
0.000137544
4.68067e-05
0.000120695
5.04633e-05
0.000103045
5.29053e-05
8.49248e-05
5.42474e-05
6.65838e-05
5.5035e-05
4.83624e-05
5.45469e-05
3.05515e-05
5.34241e-05
1.3187e-05
5.206e-05
-3.51241e-06
5.00598e-05
-1.93623e-05
4.75306e-05
-3.43155e-05
4.48452e-05
-4.82977e-05
4.19363e-05
-6.12774e-05
3.89338e-05
-7.3267e-05
3.59782e-05
-8.42899e-05
3.30632e-05
-9.43969e-05
3.03279e-05
-0.000103634
2.77182e-05
-0.000112066
2.53147e-05
-0.000119774
2.31286e-05
-0.000126791
2.10505e-05
-0.000133149
1.90735e-05
-0.00013893
1.73481e-05
-0.000144126
1.55886e-05
-0.000148757
1.38886e-05
-0.000152827
1.22165e-05
-0.00015631
1.04401e-05
-0.000159195
8.63771e-06
-0.000161441
6.72463e-06
-0.000163005
4.67949e-06
-0.000163844
2.52636e-06
-0.000163889
1.46767e-07
-0.000163056
-2.49843e-06
-0.000161343
-5.14543e-06
-0.000158648
-8.0924e-06
-0.000154985
-1.09941e-05
-0.000150365
-1.38615e-05
-0.000144636
-1.71881e-05
-0.000137866
-2.03203e-05
-0.000130097
-2.32946e-05
-0.000121192
-2.67111e-05
-0.000111314
-2.96338e-05
-0.000100345
-3.28921e-05
-8.84353e-05
-3.57243e-05
-7.57276e-05
-3.81124e-05
-6.20924e-05
-4.08853e-05
-4.76935e-05
-4.31725e-05
-3.26949e-05
-4.49681e-05
-1.70859e-05
-4.68098e-05
-1.12061e-06
-4.78609e-05
1.52448e-05
-4.90611e-05
3.17658e-05
-4.95361e-05
4.82403e-05
-4.93997e-05
6.4691e-05
-4.93265e-05
8.09278e-05
-4.8692e-05
9.66883e-05
-4.72603e-05
0.000111917
-4.56615e-05
0.000126362
-4.33059e-05
0.000139883
-4.05406e-05
0.000152222
-3.69913e-05
0.000163202
-3.29068e-05
0.000172713
-2.84903e-05
0.000180587
-2.35691e-05
-1.86494e-05
-2.83905e-05
6.70381e-05
-4.42864e-05
6.3546e-05
-5.93762e-05
6.03293e-05
-7.35774e-05
5.67827e-05
-8.67924e-05
5.2844e-05
-9.90711e-05
4.91055e-05
-0.000110365
4.51677e-05
-0.000120732
4.14606e-05
-0.000130167
3.77419e-05
-0.000138679
3.40464e-05
-0.000146315
3.0542e-05
-0.000153095
2.71309e-05
-0.000159054
2.38416e-05
-0.000164219
2.06647e-05
-0.000168636
1.76501e-05
-0.000172301
1.46584e-05
-0.000175238
1.17599e-05
-0.000177477
8.93873e-06
-0.000179039
6.19802e-06
-0.000179904
3.55124e-06
-0.000180069
7.63914e-07
-0.000179541
-2.0693e-06
-0.000178399
-4.58573e-06
-0.000176451
-7.78301e-06
-0.000173806
-1.05923e-05
-0.000170348
-1.38533e-05
-0.00016612
-1.69378e-05
-0.000161176
-1.97947e-05
-0.000155274
-2.36211e-05
-0.000148503
-2.7094e-05
-0.000140899
-3.04238e-05
-0.000132244
-3.46324e-05
-0.00012269
-3.82672e-05
-0.000112021
-4.26302e-05
-0.000100421
-4.64063e-05
-8.7935e-05
-4.99346e-05
-7.43636e-05
-5.42105e-05
-5.98157e-05
-5.82256e-05
-4.44972e-05
-6.1248e-05
-2.82497e-05
-6.49391e-05
-1.13049e-05
-6.77242e-05
6.40951e-06
-7.07761e-05
2.46851e-05
-7.30005e-05
4.31766e-05
-7.38655e-05
6.19039e-05
-7.47758e-05
8.06662e-05
-7.49756e-05
9.91127e-05
-7.36844e-05
0.000117159
-7.20603e-05
0.000134616
-6.9664e-05
0.00015104
-6.55952e-05
0.000166387
-6.12814e-05
0.000180399
-5.59341e-05
0.000192872
-4.97868e-05
0.000203613
-4.28377e-05
0.000212347
-3.49012e-05
0.000219116
-2.70185e-05
0.000223735
-1.83918e-05
0.000226033
-9.18955e-06
0.000226044
-1.01577e-07
0.000223732
9.1736e-06
0.000219246
1.79686e-05
0.000212616
2.64703e-05
0.000203886
3.48445e-05
0.000193237
4.25244e-05
0.000180846
4.94816e-05
0.000166939
5.55829e-05
0.000151712
6.07356e-05
0.000135286
6.55444e-05
0.000118029
6.89328e-05
0.000100126
7.14216e-05
8.18011e-05
7.32305e-05
6.32069e-05
7.42329e-05
4.46411e-05
7.41381e-05
2.62505e-05
7.34765e-05
8.25331e-06
7.18873e-05
-9.2324e-06
6.98555e-05
-2.60638e-05
6.72557e-05
-4.2233e-05
6.45923e-05
-5.75551e-05
6.12463e-05
-7.19673e-05
5.76237e-05
-8.54592e-05
5.39711e-05
-9.79668e-05
4.99678e-05
-0.000109444
4.59449e-05
-0.000119919
4.19007e-05
-0.000129332
3.761e-05
-0.000137649
3.32481e-05
-0.000144914
2.9034e-05
-0.000151041
2.44733e-05
-0.000156116
2.02965e-05
-0.000160127
1.60616e-05
-0.000163171
1.22107e-05
-0.000165334
8.67418e-06
-0.000166696
5.47217e-06
-0.000167402
2.67394e-06
-0.000167404
9.23289e-08
-0.0001668
-2.47953e-06
-0.000165613
-4.81599e-06
-0.000163818
-7.19248e-06
-0.000161547
-9.22609e-06
-0.000158678
-1.15661e-05
-0.000155267