/*--------------------------------*- C++ -*----------------------------------*\
| =========                 |                                                 |
| \\      /  F ield         | OpenFOAM: The Open Source CFD Toolbox           |
|  \\    /   O peration     | Version:  3.0.1                                 |
|   \\  /    A nd           | Web:      www.OpenFOAM.org                      |
|    \\/     M anipulation  |                                                 |
\*---------------------------------------------------------------------------*/
FoamFile
{
    version     2.0;
    format      ascii;
    class       volVectorField;
    location    "22.6";
    object      U;
}
// * * * * * * * * * * * * * * * * * * * * * * * * * * * * * * * * * * * * * //

dimensions      [0 1 -1 0 0 0 0];

internalField   nonuniform List<vector> 
22680
(
(0.195709 0.000804582 0)
(0.188415 0.000977809 0)
(0.179437 0.0011496 0)
(0.169116 0.00129252 0)
(0.157584 0.00143784 0)
(0.144981 0.00154269 0)
(0.13146 0.00165523 0)
(0.117182 0.00171866 0)
(0.102312 0.00179467 0)
(0.087015 0.00181692 0)
(0.0714539 0.00185573 0)
(0.0557855 0.00184049 0)
(0.0401564 0.00184467 0)
(0.0247033 0.0017987 0)
(0.0096485 0.00177442 0)
(-0.00509366 0.00172798 0)
(-0.0194211 0.00164916 0)
(-0.033065 0.00158936 0)
(-0.046067 0.00149669 0)
(-0.0583742 0.00142202 0)
(-0.0699477 0.00132281 0)
(-0.0807612 0.00123974 0)
(-0.0907988 0.00113927 0)
(-0.100055 0.00105291 0)
(-0.108532 0.000955176 0)
(-0.11624 0.000869693 0)
(-0.123196 0.000777746 0)
(-0.129425 0.000696462 0)
(-0.134953 0.000612544 0)
(-0.139814 0.000537859 0)
(-0.144042 0.000463312 0)
(-0.147675 0.000396611 0)
(-0.150752 0.00033183 0)
(-0.153308 0.000273485 0)
(-0.155383 0.000218728 0)
(-0.157009 0.000167088 0)
(-0.158218 0.000119678 0)
(-0.159037 7.48993e-05 0)
(-0.159482 3.29182e-05 0)
(-0.159589 -6.74695e-06 0)
(-0.159361 -4.55857e-05 0)
(-0.158811 -8.40611e-05 0)
(-0.15794 -0.000122219 0)
(-0.156746 -0.000160612 0)
(-0.155224 -0.000200091 0)
(-0.153364 -0.000241099 0)
(-0.151153 -0.000283293 0)
(-0.148574 -0.000328507 0)
(-0.14561 -0.000374763 0)
(-0.142242 -0.000425833 0)
(-0.138448 -0.000476286 0)
(-0.134195 -0.00052981 0)
(-0.129458 -0.000591062 0)
(-0.124209 -0.000650224 0)
(-0.118419 -0.000720184 0)
(-0.112056 -0.00078486 0)
(-0.105089 -0.000863381 0)
(-0.0974966 -0.000932044 0)
(-0.0892547 -0.00101764 0)
(-0.0803527 -0.00108749 0)
(-0.0707834 -0.00117701 0)
(-0.0605492 -0.00124436 0)
(-0.0496594 -0.00133399 0)
(-0.0381351 -0.00139447 0)
(-0.0260055 -0.00147865 0)
(-0.0133167 -0.00152772 0)
(-0.000126511 -0.00159975 0)
(0.0135025 -0.0016324 0)
(0.027488 -0.00168454 0)
(0.0417503 -0.00169957 0)
(0.0561614 -0.00169652 0)
(0.0706075 -0.00170793 0)
(0.0849739 -0.00167955 0)
(0.0991246 -0.00165722 0)
(0.112919 -0.00159745 0)
(0.126211 -0.00153759 0)
(0.13885 -0.00144485 0)
(0.150688 -0.00134874 0)
(0.161583 -0.00122262 0)
(0.171405 -0.00109264 0)
(0.180019 -0.000937514 0)
(0.187315 -0.000782574 0)
(0.193214 -0.000605331 0)
(0.197625 -0.000430483 0)
(0.200478 -0.000243655 0)
(0.201752 -5.90169e-05 0)
(0.201455 0.00013367 0)
(0.199505 0.000316177 0)
(0.19598 0.000500057 0)
(0.190912 0.000683062 0)
(0.184444 0.000844148 0)
(0.176561 0.00100462 0)
(0.167406 0.00113974 0)
(0.157104 0.0012716 0)
(0.145862 0.00137977 0)
(0.133733 0.00147848 0)
(0.120842 0.00155227 0)
(0.107402 0.00162183 0)
(0.0935049 0.00165775 0)
(0.0793256 0.00169036 0)
(0.0649698 0.00170026 0)
(0.0505589 0.00170651 0)
(0.0361579 0.00168736 0)
(0.0219564 0.00167236 0)
(0.00801127 0.00163308 0)
(-0.00565882 0.00160076 0)
(-0.0189486 0.00154661 0)
(-0.0318255 0.00149653 0)
(-0.0442089 0.00143207 0)
(-0.0560789 0.00137406 0)
(-0.0673924 0.00130355 0)
(-0.0781503 0.00123686 0)
(-0.0883019 0.00117096 0)
(-0.0978426 0.00109269 0)
(-0.106774 0.00102379 0)
(-0.115068 0.000943661 0)
(-0.122754 0.000879051 0)
(-0.129831 0.000794937 0)
(-0.136276 0.000731116 0)
(-0.142083 0.000645113 0)
(-0.147236 0.000582083 0)
(-0.151758 0.000492089 0)
(-0.155734 0.000439782 0)
(-0.159021 0.000345585 0)
(-0.161651 0.000281814 0)
(-0.163718 0.000208209 0)
(-0.165223 0.000148064 0)
(-0.166186 8.17299e-05 0)
(-0.166605 2.22872e-05 0)
(-0.166542 -3.84043e-05 0)
(-0.165933 -0.000100052 0)
(-0.164879 -0.000154256 0)
(-0.16333 -0.000211879 0)
(-0.161339 -0.000265108 0)
(-0.158871 -0.000317573 0)
(-0.15595 -0.000369271 0)
(-0.152605 -0.000425281 0)
(-0.148804 -0.000472824 0)
(-0.144582 -0.000526969 0)
(-0.139903 -0.000578473 0)
(-0.134807 -0.000627277 0)
(-0.129282 -0.000679512 0)
(-0.123332 -0.000728963 0)
(-0.116969 -0.000776103 0)
(-0.110194 -0.000825894 0)
(-0.103023 -0.000875735 0)
(-0.09544 -0.000916202 0)
(-0.0874656 -0.000965424 0)
(-0.0791075 -0.00101259 0)
(-0.0703425 -0.00106114 0)
(-0.0611798 -0.00111276 0)
(-0.051573 -0.0011602 0)
(-0.0415343 -0.00121164 0)
(-0.0310716 -0.00126691 0)
(-0.0201763 -0.00132076 0)
(-0.00881827 -0.00136423 0)
(0.00298413 -0.00141232 0)
(0.0151381 -0.00145939 0)
(0.0276258 -0.00149327 0)
(0.0403859 -0.00152248 0)
(0.0533369 -0.00154163 0)
(0.0664064 -0.00154813 0)
(0.0794791 -0.00154337 0)
(0.0924296 -0.0015218 0)
(0.105139 -0.00148403 0)
(0.117473 -0.00143463 0)
(0.129298 -0.00136322 0)
(0.140462 -0.00128012 0)
(0.150831 -0.00117324 0)
(0.160245 -0.00105558 0)
(0.168567 -0.000919042 0)
(0.175674 -0.000765312 0)
(0.181443 -0.000602198 0)
(0.185785 -0.000425224 0)
(0.188587 -0.000242121 0)
(0.189806 -5.52117e-05 0)
(0.189475 0.000134532 0)
(0.187459 0.000335531 0)
(0.183862 0.00051812 0)
(0.178646 0.000720385 0)
(0.171805 0.000892907 0)
(0.163517 0.00106286 0)
(0.153976 0.00120541 0)
(0.143178 0.00134427 0)
(0.131364 0.0014541 0)
(0.11866 0.00155527 0)
(0.105196 0.00163027 0)
(0.0912364 0.00168261 0)
(0.0768113 0.0017265 0)
(0.0621932 0.00173767 0)
(0.047465 0.00174205 0)
(0.0328393 0.00171859 0)
(0.0184346 0.001691 0)
(0.00438351 0.0016373 0)
(-0.00921078 0.00158162 0)
(-0.0222612 0.00150864 0)
(-0.0346674 0.00143219 0)
(-0.0464022 0.00134858 0)
(-0.0574243 0.00126541 0)
(-0.0677583 0.00117969 0)
(-0.0773752 0.00110014 0)
(-0.0862356 0.0010029 0)
(-0.094386 0.000922738 0)
(-0.101809 0.000842435 0)
(-0.108581 0.00076438 0)
(-0.11475 0.000700284 0)
(-0.120345 0.000626376 0)
(-0.125419 0.000574229 0)
(-0.12996 0.000502113 0)
(-0.133987 0.00045722 0)
(-0.13758 0.000399396 0)
(-0.140831 0.00036606 0)
(-0.143633 0.000296849 0)
(-0.145957 0.000258554 0)
(-0.147873 0.000193984 0)
(-0.149318 0.000140529 0)
(-0.150201 4.55883e-05 0)
(-0.15041 -5.28514e-05 0)
(-0.149222 -4.56731e-05 0)
(-0.147804 0.000244023 0)
(-0.148738 0.000550625 0)
(-0.152314 0.000694245 0)
(-0.158026 -0.000680156 0)
(-0.16035 -0.00358415 0)
(-0.130471 -0.0143409 0)
(0.195796 0.00241428 0)
(0.188497 0.00293409 0)
(0.179513 0.0034496 0)
(0.169184 0.00387843 0)
(0.157645 0.0043145 0)
(0.145032 0.0046291 0)
(0.131503 0.00496681 0)
(0.117216 0.00515705 0)
(0.102337 0.00538512 0)
(0.0870299 0.0054518 0)
(0.0714602 0.0055682 0)
(0.0557836 0.00552238 0)
(0.0401469 0.00553483 0)
(0.0246876 0.00539683 0)
(0.00962469 0.00532497 0)
(-0.00512327 0.00518346 0)
(-0.0194528 0.00494798 0)
(-0.0331011 0.00476851 0)
(-0.0461055 0.00449038 0)
(-0.0584154 0.0042663 0)
(-0.0699897 0.00396858 0)
(-0.0808047 0.00371929 0)
(-0.0908421 0.00341784 0)
(-0.100098 0.00315869 0)
(-0.108574 0.00286545 0)
(-0.116282 0.00260895 0)
(-0.123237 0.00233308 0)
(-0.129464 0.00208919 0)
(-0.13499 0.00183742 0)
(-0.139849 0.00161335 0)
(-0.144075 0.0013897 0)
(-0.147706 0.00118959 0)
(-0.15078 0.000995252 0)
(-0.153335 0.000820206 0)
(-0.155407 0.000655968 0)
(-0.157031 0.000501056 0)
(-0.158239 0.000358908 0)
(-0.159058 0.000224084 0)
(-0.159501 9.92825e-05 0)
(-0.159607 -2.05081e-05 0)
(-0.15938 -0.000136803 0)
(-0.158829 -0.000252124 0)
(-0.157958 -0.000366585 0)
(-0.156765 -0.00048176 0)
(-0.155243 -0.000600165 0)
(-0.153384 -0.000723176 0)
(-0.151173 -0.000849753 0)
(-0.148596 -0.00098534 0)
(-0.145633 -0.00112411 0)
(-0.142267 -0.00127718 0)
(-0.138474 -0.00142868 0)
(-0.134223 -0.0015892 0)
(-0.129488 -0.00177295 0)
(-0.12424 -0.00195044 0)
(-0.118452 -0.0021603 0)
(-0.112091 -0.00235437 0)
(-0.105126 -0.00258993 0)
(-0.0975344 -0.00279597 0)
(-0.089294 -0.00305279 0)
(-0.0803922 -0.00326239 0)
(-0.0708236 -0.00353104 0)
(-0.0605887 -0.00373315 0)
(-0.0496985 -0.00400213 0)
(-0.0381725 -0.0041836 0)
(-0.026041 -0.00443634 0)
(-0.0133493 -0.00458357 0)
(-0.000155604 -0.00479978 0)
(0.0134776 -0.00489776 0)
(0.0274682 -0.0050545 0)
(0.0417361 -0.00509937 0)
(0.056153 -0.00509036 0)
(0.0706066 -0.00512515 0)
(0.0849803 -0.00503938 0)
(0.0991394 -0.00497288 0)
(0.112942 -0.00479382 0)
(0.126243 -0.00461477 0)
(0.138892 -0.00433458 0)
(0.150738 -0.00404865 0)
(0.161643 -0.00366975 0)
(0.171473 -0.00327749 0)
(0.180093 -0.00281576 0)
(0.187397 -0.00234919 0)
(0.193302 -0.00181825 0)
(0.197718 -0.00129105 0)
(0.200574 -0.000730473 0)
(0.201851 -0.000179792 0)
(0.201549 0.000397994 0)
(0.199595 0.00094858 0)
(0.196075 0.00149933 0)
(0.191004 0.00204975 0)
(0.184532 0.0025329 0)
(0.176641 0.0030149 0)
(0.167479 0.00341915 0)
(0.157169 0.00381749 0)
(0.145917 0.00414079 0)
(0.133778 0.00443662 0)
(0.120878 0.00465893 0)
(0.107427 0.00486561 0)
(0.0935205 0.00497484 0)
(0.0793322 0.00507237 0)
(0.0649686 0.00510169 0)
(0.0505487 0.00511917 0)
(0.0361447 0.0050652 0)
(0.0219377 0.00501964 0)
(0.00798757 0.00489955 0)
(-0.00568797 0.00480238 0)
(-0.0189834 0.00464181 0)
(-0.0318649 0.00448832 0)
(-0.0442531 0.00430001 0)
(-0.0561285 0.00411802 0)
(-0.0674385 0.00391685 0)
(-0.078195 0.0037153 0)
(-0.0883488 0.00350988 0)
(-0.0978853 0.0032802 0)
(-0.106817 0.00307643 0)
(-0.11511 0.00283144 0)
(-0.122798 0.00263751 0)
(-0.129871 0.00238335 0)
(-0.136319 0.0021943 0)
(-0.142127 0.00193455 0)
(-0.147284 0.00174279 0)
(-0.151802 0.00147365 0)
(-0.155782 0.00131618 0)
(-0.159071 0.00103588 0)
(-0.161696 0.000842971 0)
(-0.163758 0.000624387 0)
(-0.165265 0.000445689 0)
(-0.166231 0.000246487 0)
(-0.166649 6.31575e-05 0)
(-0.166584 -0.000115777 0)
(-0.165974 -0.000300575 0)
(-0.164917 -0.000462103 0)
(-0.163368 -0.000638118 0)
(-0.161374 -0.000790248 0)
(-0.158909 -0.000955657 0)
(-0.155988 -0.00111065 0)
(-0.152641 -0.00127261 0)
(-0.148841 -0.00141892 0)
(-0.144619 -0.00158195 0)
(-0.139938 -0.00173048 0)
(-0.134845 -0.00188738 0)
(-0.129317 -0.00203426 0)
(-0.123365 -0.00218472 0)
(-0.117007 -0.0023351 0)
(-0.11023 -0.00247854 0)
(-0.103053 -0.00262175 0)
(-0.0954736 -0.00275401 0)
(-0.0874995 -0.00289968 0)
(-0.0791403 -0.00304104 0)
(-0.070378 -0.00318992 0)
(-0.0612132 -0.00333864 0)
(-0.051605 -0.00347772 0)
(-0.0415684 -0.00363868 0)
(-0.0311044 -0.00379768 0)
(-0.0202047 -0.00396041 0)
(-0.00884376 -0.00409708 0)
(0.00296256 -0.00423736 0)
(0.0151235 -0.00437488 0)
(0.0276172 -0.00448153 0)
(0.0403823 -0.0045677 0)
(0.0533383 -0.00462713 0)
(0.0664118 -0.00464913 0)
(0.0794904 -0.00463074 0)
(0.0924457 -0.00457219 0)
(0.10516 -0.00445688 0)
(0.117502 -0.0043088 0)
(0.129333 -0.00409285 0)
(0.140506 -0.00384436 0)
(0.150885 -0.00352447 0)
(0.160309 -0.00316499 0)
(0.168641 -0.00275407 0)
(0.17575 -0.0023 0)
(0.181527 -0.00180846 0)
(0.185874 -0.00127685 0)
(0.18868 -0.000722952 0)
(0.189897 -0.000164042 0)
(0.18956 0.000398514 0)
(0.187537 0.00100497 0)
(0.183946 0.00155728 0)
(0.178726 0.00215965 0)
(0.171874 0.00267791 0)
(0.163578 0.00318982 0)
(0.15403 0.00361398 0)
(0.143224 0.00403847 0)
(0.131397 0.00435998 0)
(0.118686 0.00466227 0)
(0.105209 0.0048897 0)
(0.0912414 0.00504944 0)
(0.0768037 0.00517974 0)
(0.0621809 0.00521415 0)
(0.0474468 0.0052345 0)
(0.0328188 0.00516053 0)
(0.0184095 0.0050789 0)
(0.00435418 0.00491616 0)
(-0.00924678 0.0047488 0)
(-0.0223034 0.00452918 0)
(-0.0347127 0.00429657 0)
(-0.0464493 0.00404868 0)
(-0.0574717 0.00379312 0)
(-0.0678066 0.00354077 0)
(-0.0774319 0.00329606 0)
(-0.0862907 0.00300287 0)
(-0.0944391 0.00276949 0)
(-0.101865 0.00252522 0)
(-0.108632 0.00229322 0)
(-0.1148 0.00209963 0)
(-0.120388 0.00188008 0)
(-0.125464 0.00172266 0)
(-0.129997 0.0015071 0)
(-0.13402 0.00137355 0)
(-0.137609 0.0011958 0)
(-0.140864 0.00109632 0)
(-0.143662 0.000890043 0)
(-0.145985 0.000772734 0)
(-0.147894 0.000581858 0)
(-0.149326 0.000441009 0)
(-0.150218 0.000186601 0)
(-0.150546 -9.92918e-05 0)
(-0.149971 -0.000534706 0)
(-0.14808 -0.000372059 0)
(-0.145201 0.000632706 0)
(-0.14293 0.00121533 0)
(-0.140724 0.0012078 0)
(-0.134277 0.000646807 0)
(-0.1057 -0.000241603 0)
(0.19597 0.00402564 0)
(0.188659 0.00489238 0)
(0.179664 0.00575202 0)
(0.169319 0.00646701 0)
(0.157766 0.00719415 0)
(0.145134 0.00771859 0)
(0.131589 0.00828171 0)
(0.117281 0.00859869 0)
(0.102385 0.00897888 0)
(0.0870591 0.00908981 0)
(0.0714722 0.00928373 0)
(0.0557792 0.00920702 0)
(0.0401273 0.00922751 0)
(0.0246558 0.00899705 0)
(0.00957607 0.00887976 0)
(-0.00518351 0.0086384 0)
(-0.0195167 0.00824839 0)
(-0.0331743 0.00794891 0)
(-0.0461833 0.00748497 0)
(-0.0584988 0.00711122 0)
(-0.0700747 0.00661476 0)
(-0.0808926 0.00619906 0)
(-0.0909294 0.00569644 0)
(-0.100187 0.00526435 0)
(-0.10866 0.00477545 0)
(-0.116367 0.0043478 0)
(-0.123318 0.0038879 0)
(-0.129543 0.00348131 0)
(-0.135064 0.00306162 0)
(-0.13992 0.0026881 0)
(-0.144141 0.00231534 0)
(-0.147769 0.0019818 0)
(-0.150838 0.00165792 0)
(-0.153389 0.00136615 0)
(-0.155458 0.0010925 0)
(-0.157077 0.000834518 0)
(-0.158282 0.000597467 0)
(-0.159099 0.000373124 0)
(-0.159542 0.000164929 0)
(-0.159644 -3.43678e-05 0)
(-0.159416 -0.000228065 0)
(-0.158865 -0.000420069 0)
(-0.157994 -0.000610801 0)
(-0.156802 -0.000802765 0)
(-0.155281 -0.000999981 0)
(-0.153423 -0.00120498 0)
(-0.151215 -0.00141592 0)
(-0.14864 -0.00164173 0)
(-0.145679 -0.00187303 0)
(-0.142315 -0.00212775 0)
(-0.138525 -0.00238066 0)
(-0.134276 -0.002648 0)
(-0.129545 -0.00295429 0)
(-0.124301 -0.00325009 0)
(-0.118516 -0.00359981 0)
(-0.112157 -0.00392336 0)
(-0.105196 -0.00431603 0)
(-0.0976064 -0.00465954 0)
(-0.0893684 -0.00508772 0)
(-0.0804664 -0.00543724 0)
(-0.0708985 -0.00588519 0)
(-0.0606617 -0.00622229 0)
(-0.0497699 -0.00667085 0)
(-0.0382398 -0.00697341 0)
(-0.0261041 -0.00739516 0)
(-0.0134058 -0.0076407 0)
(-0.000204353 -0.00800136 0)
(0.0134377 -0.00816486 0)
(0.0274392 -0.00842657 0)
(0.0417185 -0.00850169 0)
(0.0561474 -0.00848671 0)
(0.0706161 -0.00854498 0)
(0.0850039 -0.00840239 0)
(0.09918 -0.00829209 0)
(0.112999 -0.00799303 0)
(0.126317 -0.00769585 0)
(0.138982 -0.00722818 0)
(0.150845 -0.0067532 0)
(0.161766 -0.006119 0)
(0.171609 -0.00546772 0)
(0.180242 -0.00469811 0)
(0.187555 -0.00391947 0)
(0.19347 -0.0030338 0)
(0.197889 -0.00215669 0)
(0.20075 -0.00122121 0)
(0.202031 -0.000300512 0)
(0.20171 0.000666502 0)
(0.199757 0.00158117 0)
(0.196243 0.0024971 0)
(0.191165 0.00341901 0)
(0.184684 0.00422359 0)
(0.17678 0.0050277 0)
(0.167605 0.00569923 0)
(0.157282 0.0063672 0)
(0.146013 0.00690619 0)
(0.133857 0.00739969 0)
(0.120943 0.00776806 0)
(0.107471 0.00811106 0)
(0.0935504 0.0082933 0)
(0.079347 0.00845678 0)
(0.0649732 0.00850672 0)
(0.0505357 0.00853531 0)
(0.0361267 0.00843636 0)
(0.021911 0.00837253 0)
(0.00795668 0.0081665 0)
(-0.00572878 0.00800738 0)
(-0.0190382 0.00773779 0)
(-0.0319289 0.00748299 0)
(-0.0443236 0.00717046 0)
(-0.0562124 0.00686927 0)
(-0.0675251 0.00652685 0)
(-0.0782753 0.00619271 0)
(-0.088432 0.00585243 0)
(-0.0979649 0.00546514 0)
(-0.106902 0.00512455 0)
(-0.115186 0.00471849 0)
(-0.122884 0.004394 0)
(-0.129947 0.00397033 0)
(-0.136406 0.00365968 0)
(-0.142218 0.00322111 0)
(-0.147389 0.00290575 0)
(-0.151895 0.00245611 0)
(-0.155877 0.0021929 0)
(-0.159162 0.00172982 0)
(-0.16178 0.00140546 0)
(-0.163834 0.00103892 0)
(-0.165349 0.000741475 0)
(-0.16632 0.000408502 0)
(-0.166731 0.000105479 0)
(-0.166666 -0.000193779 0)
(-0.166047 -0.000502422 0)
(-0.16499 -0.000770776 0)
(-0.163436 -0.00106321 0)
(-0.161442 -0.00132091 0)
(-0.158975 -0.00159126 0)
(-0.156053 -0.00184903 0)
(-0.152706 -0.00212549 0)
(-0.148905 -0.00236805 0)
(-0.144684 -0.00263726 0)
(-0.140001 -0.00288704 0)
(-0.134907 -0.00314437 0)
(-0.12938 -0.00339382 0)
(-0.123429 -0.00364395 0)
(-0.117069 -0.00389013 0)
(-0.110294 -0.00413145 0)
(-0.103114 -0.00437226 0)
(-0.0955311 -0.00459297 0)
(-0.0875575 -0.00483141 0)
(-0.0791976 -0.00506675 0)
(-0.0704362 -0.00531456 0)
(-0.0612743 -0.00556264 0)
(-0.0516699 -0.00579882 0)
(-0.0416386 -0.00606469 0)
(-0.0311764 -0.00633413 0)
(-0.0202684 -0.00660312 0)
(-0.00889805 -0.00683085 0)
(0.0029101 -0.00706882 0)
(0.0150796 -0.00729746 0)
(0.0275858 -0.00747236 0)
(0.0403559 -0.00761659 0)
(0.0533166 -0.00771695 0)
(0.0663981 -0.00774803 0)
(0.079483 -0.00772178 0)
(0.0924514 -0.00762173 0)
(0.105173 -0.00742843 0)
(0.117528 -0.00718511 0)
(0.129373 -0.00682475 0)
(0.140565 -0.00641101 0)
(0.150967 -0.00587374 0)
(0.160406 -0.00528095 0)
(0.168755 -0.00459594 0)
(0.17588 -0.00383512 0)
(0.181673 -0.00301707 0)
(0.186036 -0.00212948 0)
(0.188846 -0.00120878 0)
(0.190064 -0.000270859 0)
(0.189717 0.000669737 0)
(0.187697 0.00167276 0)
(0.184116 0.00259628 0)
(0.178891 0.00360384 0)
(0.172016 0.00446521 0)
(0.163704 0.00531596 0)
(0.15415 0.00602664 0)
(0.143328 0.00673268 0)
(0.131484 0.00726866 0)
(0.11876 0.00777421 0)
(0.105259 0.00815417 0)
(0.0912725 0.0084219 0)
(0.0768132 0.00863486 0)
(0.0621767 0.0086935 0)
(0.047429 0.00872567 0)
(0.0327973 0.00860173 0)
(0.0183764 0.00846465 0)
(0.00431418 0.00819499 0)
(-0.00930259 0.00791732 0)
(-0.0223731 0.00754933 0)
(-0.0347952 0.00716374 0)
(-0.0465363 0.00674472 0)
(-0.0575576 0.00632023 0)
(-0.0678946 0.00590294 0)
(-0.077536 0.00549421 0)
(-0.0863913 0.00500676 0)
(-0.0945406 0.00461832 0)
(-0.101973 0.00420935 0)
(-0.108734 0.00382225 0)
(-0.114901 0.00350067 0)
(-0.120473 0.00313181 0)
(-0.125556 0.0028694 0)
(-0.130078 0.00250579 0)
(-0.134102 0.00228637 0)
(-0.137673 0.00199217 0)
(-0.140927 0.00182856 0)
(-0.143706 0.00148132 0)
(-0.146029 0.00128924 0)
(-0.147944 0.0009656 0)
(-0.149401 0.000716488 0)
(-0.150293 0.000301632 0)
(-0.150541 -5.60648e-05 0)
(-0.149854 -0.000654646 0)
(-0.148328 -0.000909075 0)
(-0.145321 -0.000486367 0)
(-0.140021 -0.00040564 0)
(-0.135011 -0.00295847 0)
(-0.126179 -0.00811186 0)
(-0.0995521 -0.0207732 0)
(0.196231 0.00563974 0)
(0.188903 0.00685405 0)
(0.179892 0.00805847 0)
(0.169523 0.00906006 0)
(0.157948 0.0100788 0)
(0.145288 0.0108132 0)
(0.131717 0.0116021 0)
(0.11738 0.0120457 0)
(0.102457 0.0125782 0)
(0.0871029 0.0127331 0)
(0.0714901 0.0130044 0)
(0.0557724 0.0128963 0)
(0.0400977 0.0129244 0)
(0.0246084 0.0126006 0)
(0.00950262 0.0124367 0)
(-0.00527437 0.0120974 0)
(-0.0196123 0.0115516 0)
(-0.0332841 0.0111314 0)
(-0.0463001 0.0104811 0)
(-0.0586239 0.00995722 0)
(-0.0702023 0.0092616 0)
(-0.0810245 0.00867918 0)
(-0.0910604 0.0079751 0)
(-0.100319 0.00736977 0)
(-0.108789 0.006685 0)
(-0.116494 0.00608598 0)
(-0.12344 0.00544187 0)
(-0.129661 0.00487242 0)
(-0.135176 0.00428471 0)
(-0.140027 0.00376165 0)
(-0.144241 0.00323974 0)
(-0.147863 0.00277275 0)
(-0.150925 0.00231935 0)
(-0.15347 0.00191085 0)
(-0.155533 0.00152795 0)
(-0.157147 0.00116699 0)
(-0.158346 0.000834927 0)
(-0.15916 0.000522018 0)
(-0.159602 0.000230182 0)
(-0.1597 -4.92459e-05 0)
(-0.159471 -0.000319591 0)
(-0.158919 -0.000587913 0)
(-0.158049 -0.000854748 0)
(-0.156857 -0.00112353 0)
(-0.155338 -0.00139935 0)
(-0.153482 -0.00168632 0)
(-0.151276 -0.0019816 0)
(-0.148705 -0.00229739 0)
(-0.145748 -0.0026212 0)
(-0.142388 -0.00297732 0)
(-0.138602 -0.00333199 0)
(-0.134357 -0.00370576 0)
(-0.129631 -0.00413468 0)
(-0.124392 -0.00454874 0)
(-0.118613 -0.00503832 0)
(-0.112258 -0.00549145 0)
(-0.105302 -0.00604137 0)
(-0.0977144 -0.00652253 0)
(-0.08948 -0.00712226 0)
(-0.0805778 -0.00761199 0)
(-0.0710111 -0.00823953 0)
(-0.0607713 -0.008712 0)
(-0.0498772 -0.00934045 0)
(-0.0383411 -0.00976449 0)
(-0.0261989 -0.0103556 0)
(-0.0134907 -0.0106999 0)
(-0.000277734 -0.0112054 0)
(0.0133776 -0.0114348 0)
(0.0273955 -0.011802 0)
(0.0416919 -0.0119079 0)
(0.0561386 -0.0118869 0)
(0.0706298 -0.0119692 0)
(0.0850392 -0.0117698 0)
(0.0992407 -0.0116155 0)
(0.113083 -0.0111972 0)
(0.126428 -0.0107818 0)
(0.139117 -0.0101265 0)
(0.151005 -0.00946196 0)
(0.161951 -0.00857295 0)
(0.171812 -0.00766188 0)
(0.180465 -0.0065849 0)
(0.187792 -0.00549231 0)
(0.193722 -0.004251 0)
(0.198146 -0.00302438 0)
(0.201013 -0.00171268 0)
(0.202298 -0.000426518 0)
(0.201957 0.000939796 0)
(0.200009 0.00221552 0)
(0.196495 0.00349514 0)
(0.191406 0.00479093 0)
(0.184911 0.00591801 0)
(0.176987 0.00704318 0)
(0.167795 0.00798335 0)
(0.15745 0.00892166 0)
(0.146158 0.00967792 0)
(0.133972 0.010367 0)
(0.121041 0.0108816 0)
(0.107541 0.0113592 0)
(0.0935964 0.0116155 0)
(0.0793701 0.0118456 0)
(0.0649785 0.0119154 0)
(0.0505187 0.0119536 0)
(0.0361012 0.0118136 0)
(0.0218641 0.0117257 0)
(0.00789925 0.0114378 0)
(-0.00579228 0.0112155 0)
(-0.0191173 0.0108393 0)
(-0.0320196 0.0104847 0)
(-0.0444233 0.0100461 0)
(-0.0563247 0.00961729 0)
(-0.0676422 0.00914545 0)
(-0.078397 0.0086589 0)
(-0.0885585 0.00818994 0)
(-0.098077 0.0076476 0)
(-0.107028 0.00717709 0)
(-0.115293 0.00660274 0)
(-0.123016 0.00615294 0)
(-0.130059 0.00555741 0)
(-0.136537 0.0051234 0)
(-0.14234 0.00451407 0)
(-0.147535 0.00407068 0)
(-0.15201 0.00343449 0)
(-0.156016 0.00307168 0)
(-0.159283 0.00242721 0)
(-0.161908 0.00196289 0)
(-0.163951 0.00145145 0)
(-0.165467 0.00104226 0)
(-0.166454 0.000571806 0)
(-0.166828 0.000144544 0)
(-0.166791 -0.000273781 0)
(-0.166137 -0.000703009 0)
(-0.165101 -0.00108025 0)
(-0.163531 -0.00148953 0)
(-0.161537 -0.0018487 0)
(-0.159071 -0.00222906 0)
(-0.156144 -0.00258968 0)
(-0.1528 -0.00297552 0)
(-0.148998 -0.00331751 0)
(-0.144777 -0.00369648 0)
(-0.140088 -0.00403771 0)
(-0.135 -0.00440444 0)
(-0.129468 -0.00474994 0)
(-0.123521 -0.00510127 0)
(-0.117155 -0.00544561 0)
(-0.110382 -0.00578548 0)
(-0.103197 -0.00611796 0)
(-0.095616 -0.00643245 0)
(-0.0876379 -0.00676323 0)
(-0.0792762 -0.00709316 0)
(-0.0705163 -0.00743643 0)
(-0.0613602 -0.00778349 0)
(-0.0517621 -0.00812287 0)
(-0.0417349 -0.00849036 0)
(-0.0312708 -0.00886884 0)
(-0.0203588 -0.00924795 0)
(-0.00897871 -0.00956445 0)
(0.00282893 -0.00990859 0)
(0.015011 -0.0102206 0)
(0.0275317 -0.0104657 0)
(0.0403145 -0.0106693 0)
(0.0532836 -0.0108053 0)
(0.0663746 -0.0108495 0)
(0.0794784 -0.0108127 0)
(0.0924647 -0.0106726 0)
(0.105196 -0.0104024 0)
(0.117582 -0.010061 0)
(0.129446 -0.00956073 0)
(0.140667 -0.00897917 0)
(0.151092 -0.00823371 0)
(0.160557 -0.00739792 0)
(0.168933 -0.00644061 0)
(0.176075 -0.00537723 0)
(0.181888 -0.00423019 0)
(0.186276 -0.0029891 0)
(0.189098 -0.00169259 0)
(0.190321 -0.000375152 0)
(0.18996 0.000946141 0)
(0.187939 0.0023392 0)
(0.184374 0.00363654 0)
(0.179143 0.00505061 0)
(0.172231 0.00625989 0)
(0.16389 0.00744709 0)
(0.154351 0.00844378 0)
(0.143493 0.0094329 0)
(0.131619 0.0101856 0)
(0.118886 0.010889 0)
(0.105333 0.0114261 0)
(0.0913391 0.0118051 0)
(0.0768296 0.012098 0)
(0.0621831 0.0121766 0)
(0.0474009 0.0122222 0)
(0.0327622 0.0120473 0)
(0.0183096 0.0118478 0)
(0.00424113 0.0114797 0)
(-0.00939364 0.0110855 0)
(-0.0224832 0.0105757 0)
(-0.0349277 0.0100287 0)
(-0.0466749 0.00944156 0)
(-0.0576736 0.00885606 0)
(-0.0680227 0.00826705 0)
(-0.0776954 0.00769398 0)
(-0.0865208 0.00701837 0)
(-0.0946822 0.0064678 0)
(-0.102121 0.00589297 0)
(-0.108874 0.00534711 0)
(-0.115047 0.00489765 0)
(-0.120578 0.00437821 0)
(-0.125673 0.00401805 0)
(-0.130178 0.00350329 0)
(-0.134224 0.00319293 0)
(-0.137765 0.00278648 0)
(-0.141014 0.00255685 0)
(-0.143761 0.00206902 0)
(-0.146109 0.00180512 0)
(-0.148039 0.00134974 0)
(-0.149492 0.0010306 0)
(-0.150422 0.000425707 0)
(-0.150701 -0.000120636 0)
(-0.149967 -0.00101159 0)
(-0.148366 -0.0014127 0)
(-0.145337 -0.00119162 0)
(-0.139047 -0.00161789 0)
(-0.133303 -0.00342409 0)
(-0.122339 -0.00666167 0)
(-0.103459 -0.0166853 0)
(0.196579 0.00725771 0)
(0.189229 0.00882046 0)
(0.180196 0.0103706 0)
(0.169794 0.0116594 0)
(0.15819 0.0129704 0)
(0.145492 0.0139152 0)
(0.131889 0.0149302 0)
(0.117511 0.0155004 0)
(0.102553 0.0161852 0)
(0.0871612 0.0163836 0)
(0.0715138 0.0167322 0)
(0.0557632 0.016592 0)
(0.0400579 0.0166271 0)
(0.0245448 0.0162088 0)
(0.00940485 0.015993 0)
(-0.00539533 0.0155658 0)
(-0.0197402 0.0148589 0)
(-0.0334308 0.0143167 0)
(-0.0464561 0.0134792 0)
(-0.0587909 0.0128047 0)
(-0.0703725 0.0119094 0)
(-0.0812004 0.0111598 0)
(-0.0912352 0.0102538 0)
(-0.100495 0.00947489 0)
(-0.10896 0.00859392 0)
(-0.116663 0.00782322 0)
(-0.123602 0.00699466 0)
(-0.129819 0.00626209 0)
(-0.135325 0.00550622 0)
(-0.140169 0.00483348 0)
(-0.144374 0.00416239 0)
(-0.147988 0.00356192 0)
(-0.151041 0.00297904 0)
(-0.153579 0.0024539 0)
(-0.155634 0.00196188 0)
(-0.15724 0.00149798 0)
(-0.158433 0.00107096 0)
(-0.159241 0.000670157 0)
(-0.159681 0.000294662 0)
(-0.159774 -6.44258e-05 0)
(-0.159543 -0.000412047 0)
(-0.158991 -0.000755943 0)
(-0.158121 -0.00109827 0)
(-0.15693 -0.00144399 0)
(-0.155414 -0.00179809 0)
(-0.153561 -0.00216699 0)
(-0.151358 -0.00254656 0)
(-0.148791 -0.00295207 0)
(-0.145839 -0.00336833 0)
(-0.142484 -0.00382565 0)
(-0.138703 -0.0042824 0)
(-0.134464 -0.00476208 0)
(-0.129746 -0.00531373 0)
(-0.124512 -0.00584602 0)
(-0.118742 -0.00647547 0)
(-0.112392 -0.00705827 0)
(-0.105443 -0.00776569 0)
(-0.0978585 -0.0083847 0)
(-0.089629 -0.00915627 0)
(-0.0807265 -0.00978657 0)
(-0.0711613 -0.0105942 0)
(-0.0609177 -0.0112024 0)
(-0.0500206 -0.0120113 0)
(-0.0384763 -0.0125572 0)
(-0.0263256 -0.0133184 0)
(-0.0136043 -0.0137619 0)
(-0.000375947 -0.0144128 0)
(0.0132969 -0.0147086 0)
(0.0273366 -0.0151822 0)
(0.041656 -0.0153192 0)
(0.0561262 -0.0152924 0)
(0.0706481 -0.0153993 0)
(0.0850852 -0.0151431 0)
(0.0993214 -0.0149454 0)
(0.113194 -0.0144071 0)
(0.126576 -0.0138746 0)
(0.139293 -0.013031 0)
(0.151219 -0.0121752 0)
(0.162192 -0.0110303 0)
(0.172084 -0.00986196 0)
(0.180758 -0.00847374 0)
(0.188109 -0.00706824 0)
(0.194053 -0.00546599 0)
(0.198491 -0.00389864 0)
(0.201361 -0.002197 0)
(0.202657 -0.000553147 0)
(0.202301 0.00121079 0)
(0.200353 0.00284972 0)
(0.196832 0.00449482 0)
(0.191728 0.00616587 0)
(0.185214 0.00761702 0)
(0.177265 0.00906402 0)
(0.168047 0.0102727 0)
(0.157677 0.0114833 0)
(0.146349 0.0124569 0)
(0.134127 0.0133434 0)
(0.12117 0.0139989 0)
(0.107633 0.0146136 0)
(0.0936575 0.0149417 0)
(0.079401 0.0152456 0)
(0.0649832 0.0153288 0)
(0.0504987 0.0153779 0)
(0.0360638 0.0151917 0)
(0.0218008 0.0150877 0)
(0.00780803 0.0147098 0)
(-0.00588036 0.014424 0)
(-0.0192275 0.0139458 0)
(-0.0321469 0.0134864 0)
(-0.0445508 0.0129164 0)
(-0.0564628 0.012382 0)
(-0.0677973 0.0117525 0)
(-0.0785305 0.0111298 0)
(-0.0887367 0.010536 0)
(-0.0982043 0.00982322 0)
(-0.107211 0.00924057 0)
(-0.115417 0.00847744 0)
(-0.123203 0.0079256 0)
(-0.130196 0.0071357 0)
(-0.136714 0.006599 0)
(-0.142476 0.00580093 0)
(-0.147715 0.00524436 0)
(-0.152154 0.00440643 0)
(-0.15619 0.00396337 0)
(-0.159404 0.00310688 0)
(-0.162093 0.00253191 0)
(-0.164112 0.0018551 0)
(-0.165612 0.00134383 0)
(-0.166624 0.0007332 0)
(-0.166925 0.000181804 0)
(-0.166955 -0.000347477 0)
(-0.166242 -0.00090895 0)
(-0.165244 -0.00138193 0)
(-0.16365 -0.00192116 0)
(-0.161654 -0.00237185 0)
(-0.159193 -0.00287117 0)
(-0.156254 -0.00332555 0)
(-0.15292 -0.00382496 0)
(-0.149116 -0.00426821 0)
(-0.144895 -0.00475427 0)
(-0.140199 -0.00518583 0)
(-0.135124 -0.00566648 0)
(-0.129581 -0.00610134 0)
(-0.123638 -0.00655851 0)
(-0.117265 -0.0070019 0)
(-0.110492 -0.00743657 0)
(-0.103302 -0.00786436 0)
(-0.0957284 -0.00827289 0)
(-0.0877421 -0.00869789 0)
(-0.0793767 -0.00911673 0)
(-0.0706248 -0.00955879 0)
(-0.0614677 -0.00999656 0)
(-0.051882 -0.0104476 0)
(-0.0418587 -0.0109181 0)
(-0.0313853 -0.0113967 0)
(-0.0204767 -0.0118878 0)
(-0.00908912 -0.0123069 0)
(0.00272609 -0.0127455 0)
(0.0149178 -0.0131479 0)
(0.0274507 -0.0134593 0)
(0.04026 -0.0137226 0)
(0.0532316 -0.0138944 0)
(0.0663545 -0.0139518 0)
(0.0794816 -0.0139119 0)
(0.0925031 -0.0137286 0)
(0.105248 -0.0133762 0)
(0.117676 -0.0129534 0)
(0.129571 -0.0122986 0)
(0.140816 -0.0115596 0)
(0.151285 -0.0105984 0)
(0.160766 -0.00951932 0)
(0.169198 -0.00829782 0)
(0.176335 -0.00691291 0)
(0.182206 -0.00545436 0)
(0.18659 -0.00384907 0)
(0.189428 -0.00217439 0)
(0.190682 -0.000481714 0)
(0.190292 0.00122713 0)
(0.188284 0.00300512 0)
(0.184725 0.00467553 0)
(0.179463 0.00650742 0)
(0.172529 0.00806179 0)
(0.16415 0.00958151 0)
(0.154641 0.0108547 0)
(0.143692 0.0121533 0)
(0.131812 0.013103 0)
(0.119053 0.0140113 0)
(0.105438 0.0147143 0)
(0.0914356 0.0151863 0)
(0.0768357 0.0155754 0)
(0.0622084 0.0156572 0)
(0.0473494 0.0157344 0)
(0.0327157 0.0154899 0)
(0.0182182 0.0152501 0)
(0.00411448 0.0147657 0)
(-0.00951102 0.0142637 0)
(-0.02266 0.0136061 0)
(-0.0350857 0.0129049 0)
(-0.0468739 0.012143 0)
(-0.0578348 0.0113844 0)
(-0.0681918 0.0106376 0)
(-0.0779244 0.00989396 0)
(-0.0866672 0.00901243 0)
(-0.0948503 0.0083287 0)
(-0.102306 0.00757661 0)
(-0.109011 0.00686743 0)
(-0.115239 0.00630407 0)
(-0.120686 0.00560664 0)
(-0.125822 0.00517298 0)
(-0.130263 0.00449658 0)
(-0.134357 0.0041137 0)
(-0.137885 0.00357194 0)
(-0.141117 0.00328618 0)
(-0.143829 0.00264849 0)
(-0.146247 0.00233813 0)
(-0.148187 0.00173563 0)
(-0.149632 0.00133196 0)
(-0.150565 0.000541253 0)
(-0.150834 -9.55236e-05 0)
(-0.150167 -0.00124189 0)
(-0.148658 -0.00197201 0)
(-0.145724 -0.00243561 0)
(-0.139108 -0.00335125 0)
(-0.133624 -0.00661987 0)
(-0.121803 -0.011746 0)
(-0.107991 -0.0253243 0)
(0.197015 0.00888064 0)
(0.189636 0.010793 0)
(0.180576 0.01269 0)
(0.170133 0.0142668 0)
(0.158494 0.0158711 0)
(0.145748 0.0170265 0)
(0.132103 0.0182682 0)
(0.117676 0.0189648 0)
(0.102673 0.0198022 0)
(0.0872339 0.0200436 0)
(0.0715433 0.0204692 0)
(0.0557514 0.020296 0)
(0.0400077 0.0203374 0)
(0.024464 0.019823 0)
(0.00928332 0.0195514 0)
(-0.00554582 0.0190432 0)
(-0.0199012 0.0181711 0)
(-0.0336147 0.0175058 0)
(-0.0466514 0.0164801 0)
(-0.0589999 0.0156542 0)
(-0.0705855 0.0145584 0)
(-0.0814206 0.013641 0)
(-0.0914539 0.0125327 0)
(-0.100715 0.0115796 0)
(-0.109175 0.010502 0)
(-0.116875 0.00955922 0)
(-0.123806 0.00854593 0)
(-0.130016 0.00764993 0)
(-0.135511 0.0067257 0)