/*--------------------------------*- C++ -*----------------------------------*\
| =========                 |                                                 |
| \\      /  F ield         | OpenFOAM: The Open Source CFD Toolbox           |
|  \\    /   O peration     | Version:  3.0.1                                 |
|   \\  /    A nd           | Web:      www.OpenFOAM.org                      |
|    \\/     M anipulation  |                                                 |
\*---------------------------------------------------------------------------*/
FoamFile
{
    version     2.0;
    format      ascii;
    class       surfaceScalarField;
    location    "28.8";
    object      alphaPhi;
}
// * * * * * * * * * * * * * * * * * * * * * * * * * * * * * * * * * * * * * //

dimensions      [0 3 -1 0 0 0 0];

internalField   nonuniform List<scalar> 
42423
(
0.000226955
-6.61389e-06
0.000232093
-5.13849e-06
0.000235575
-3.48209e-06
0.000237393
-1.81794e-06
0.000237539
-1.45602e-07
0.000236147
1.39213e-06
0.000233088
3.05919e-06
0.000228355
4.73218e-06
0.000221905
6.45087e-06
0.000213939
7.96526e-06
0.000204543
9.39657e-06
0.000193702
1.08406e-05
0.000181629
1.2073e-05
0.000168322
1.33073e-05
0.000154053
1.42684e-05
0.000138911
1.51425e-05
0.000122997
1.59138e-05
0.000106586
1.64112e-05
8.98675e-05
1.67186e-05
7.30252e-05
1.68423e-05
5.62846e-05
1.67406e-05
3.97931e-05
1.64915e-05
2.37492e-05
1.60439e-05
8.29882e-06
1.54504e-05
-6.44499e-06
1.47438e-05
-2.04133e-05
1.39683e-05
-3.35099e-05
1.30966e-05
-4.56581e-05
1.21483e-05
-5.68263e-05
1.11682e-05
-6.70123e-05
1.0186e-05
-7.61974e-05
9.18509e-06
-8.43968e-05
8.19948e-06
-9.16488e-05
7.25196e-06
-9.79925e-05
6.34374e-06
-0.000103466
5.47314e-06
-0.000108101
4.63547e-06
-0.000111936
3.8351e-06
-0.000115008
3.0714e-06
-0.000117343
2.33534e-06
-0.000118952
1.60943e-06
-0.00011989
9.38024e-07
-0.000120134
2.43114e-07
-0.00011973
-4.03325e-07
-0.000118613
-1.11752e-06
-0.000116713
-1.90005e-06
-0.000114086
-2.62669e-06
-0.000110704
-3.38222e-06
-0.000106508
-4.19621e-06
-0.000101543
-4.96411e-06
-9.58306e-05
-5.71282e-06
-8.92777e-05
-6.55295e-06
-8.20795e-05
-7.1982e-06
-7.40688e-05
-8.01072e-06
-6.54245e-05
-8.64432e-06
-5.62284e-05
-9.19614e-06
-4.64416e-05
-9.78674e-06
-3.62171e-05
-1.02246e-05
-2.55823e-05
-1.06348e-05
-1.45078e-05
-1.10746e-05
-3.10085e-06
-1.1407e-05
8.58033e-06
-1.16812e-05
2.0489e-05
-1.19088e-05
3.24911e-05
-1.20021e-05
4.45916e-05
-1.21005e-05
5.67305e-05
-1.21389e-05
6.8757e-05
-1.20266e-05
8.06771e-05
-1.19201e-05
9.23362e-05
-1.16591e-05
0.000103685
-1.13485e-05
0.000114595
-1.09107e-05
0.000124882
-1.02868e-05
0.000134438
-9.55616e-06
0.000143133
-8.69496e-06
0.000150765
-7.63202e-06
0.000157232
-6.46698e-06
0.000162367
-5.13539e-06
0.000166079
-3.71133e-06
0.000168253
-2.17396e-06
0.00016883
-5.7725e-07
0.000167942
8.88143e-07
0.000165423
2.5188e-06
0.000161254
4.16938e-06
0.00015559
5.6643e-06
0.000148507
7.08283e-06
0.000140167
8.33978e-06
0.000130705
9.46284e-06
0.000120244
1.04603e-05
0.000109003
1.12411e-05
9.69914e-05
1.20122e-05
8.43988e-05
1.25927e-05
7.13293e-05
1.30696e-05
5.78111e-05
1.35182e-05
4.40239e-05
1.37872e-05
3.02043e-05
1.38195e-05
1.64869e-05
1.37175e-05
2.93367e-06
1.35532e-05
-1.01647e-05
1.30984e-05
-2.27406e-05
1.25759e-05
-3.46702e-05
1.19295e-05
-4.5899e-05
1.12289e-05
-5.63562e-05
1.04571e-05
-6.60161e-05
9.65992e-06
-7.48572e-05
8.84111e-06
-8.28988e-05
8.04156e-06
-9.01341e-05
7.2353e-06
-9.66031e-05
6.46905e-06
-0.000102331
5.72757e-06
-0.000107342
5.01126e-06
-0.000111659
4.31738e-06
-0.000115338
3.67908e-06
-0.000118394
3.05565e-06
-0.000120822
2.42808e-06
-0.00012278
1.95822e-06
-0.000124131
1.35073e-06
-0.000124993
8.61504e-07
-0.000125358
3.65045e-07
-0.00012517
-1.87314e-07
-0.000124474
-6.95959e-07
-0.000123272
-1.20208e-06
-0.000121551
-1.72125e-06
-0.000119267
-2.2842e-06
-0.000116391
-2.87553e-06
-0.000112897
-3.49442e-06
-0.000108813
-4.08397e-06
-0.000104053
-4.75996e-06
-9.86329e-05
-5.42022e-06
-9.25177e-05
-6.11519e-06
-8.56564e-05
-6.86127e-06
-7.81368e-05
-7.51965e-06
-6.98618e-05
-8.27508e-06
-6.08688e-05
-8.99303e-06
-5.11881e-05
-9.68069e-06
-4.08759e-05
-1.03123e-05
-2.99692e-05
-1.09068e-05
-1.85148e-05
-1.14544e-05
-6.56706e-06
-1.19478e-05
5.7228e-06
-1.22899e-05
1.83569e-05
-1.26342e-05
3.12267e-05
-1.28699e-05
4.4199e-05
-1.29723e-05
5.70608e-05
-1.28619e-05
6.97149e-05
-1.26542e-05
8.1942e-05
-1.22271e-05
9.35868e-05
-1.16449e-05
0.000104478
-1.08913e-05
0.000114446
-9.96826e-06
0.00012334
-8.89396e-06
0.000130998
-7.65786e-06
0.000137297
-6.29956e-06
0.000142151
-4.85372e-06
0.000145456
-3.3047e-06
0.0001472
-1.74453e-06
0.000147358
-1.57624e-07
0.000145982
1.37551e-06
0.000143066
2.91655e-06
0.000138689
4.37695e-06
0.000132963
5.72585e-06
0.00012597
6.99225e-06
0.000117818
8.1524e-06
0.000108608
9.20955e-06
9.84802e-05
1.01281e-05
8.75694e-05
1.09107e-05
7.60318e-05
1.15376e-05
6.40093e-05
1.20225e-05
5.16594e-05
1.23499e-05
3.91064e-05
1.2553e-05
2.64844e-05
1.2622e-05
1.39269e-05
1.25575e-05
1.54545e-06
1.23814e-05
-1.06482e-05
1.21936e-05
-2.24804e-05
1.18323e-05
-3.39266e-05
1.14462e-05
-4.49151e-05
1.09884e-05
-5.54129e-05
1.04979e-05
-6.5377e-05
9.96406e-06
-7.48001e-05
9.42308e-06
-8.36615e-05
8.86149e-06
-9.19594e-05
8.29786e-06
-9.96569e-05
7.69753e-06
-0.000106731
7.07418e-06
-0.000113162
6.43078e-06
-0.000118934
5.77195e-06
-0.000124017
5.08273e-06
-0.000128393
4.37674e-06
-0.0001321
3.70621e-06
-0.000135076
2.97662e-06
-0.000137355
2.27892e-06
-0.000138913
1.55797e-06
-0.000139771
8.57642e-07
-0.000139928
1.57184e-07
-0.000139378
-5.50268e-07
-0.000138152
-1.22522e-06
-0.000136234
-1.91854e-06
-0.000133676
-2.55809e-06
-0.00013045
-3.22543e-06
-0.000126562
-3.88794e-06
-0.000122026
-4.53603e-06
-0.00011684
-5.18597e-06
-0.000110973
-5.86791e-06
-0.000104557
-6.41571e-06
-9.74899e-05
-7.06697e-06
-8.9822e-05
-7.66792e-06
-8.15744e-05
-8.24764e-06
-7.27813e-05
-8.7932e-06
-6.34616e-05
-9.31964e-06
-5.36486e-05
-9.81306e-06
-4.33767e-05
-1.0272e-05
-3.27009e-05
-1.06758e-05
-2.1632e-05
-1.1069e-05
-1.02431e-05
-1.13889e-05
1.39183e-06
-1.1635e-05
1.32214e-05
-1.18296e-05
2.51483e-05
-1.19269e-05
3.71036e-05
-1.19553e-05
4.89687e-05
-1.18652e-05
6.06599e-05
-1.16913e-05
7.20468e-05
-1.13869e-05
8.30178e-05
-1.0971e-05
9.34328e-05
-1.04151e-05
0.00010316
-9.72693e-06
0.000112066
-8.90674e-06
0.000120011
-7.94477e-06
0.000126864
-6.8527e-06
0.000132487
-5.62294e-06
0.000136802
-4.31548e-06
0.000139708
-2.90544e-06
0.000141133
-1.42571e-06
0.000141046
8.70318e-08
0.000139415
1.63119e-06
0.000136232
3.18263e-06
0.000131566
4.66603e-06
0.000125464
6.10184e-06
0.000118043
7.4218e-06
0.0001094
8.64285e-06
9.96542e-05
9.74547e-06
8.89648e-05
1.06894e-05
7.74835e-05
1.14813e-05
6.5379e-05
1.21045e-05
5.28088e-05
1.25702e-05
3.99562e-05
1.28525e-05
2.69714e-05
1.29848e-05
1.4007e-05
1.29644e-05
1.18631e-06
1.28206e-05
-1.13575e-05
1.25438e-05
-2.34913e-05
1.21338e-05
-3.51478e-05
1.16565e-05
-4.62182e-05
1.10704e-05
-5.66503e-05
1.0432e-05
-6.63967e-05
9.74643e-06
-7.54311e-05
9.03438e-06
-8.37555e-05
8.32446e-06
-9.13365e-05
7.58102e-06
-9.82183e-05
6.88173e-06
-0.00010437
6.15153e-06
-0.00010983
5.46026e-06
-0.000114652
4.82192e-06
-0.00011879
4.13764e-06
-0.000122317
3.52782e-06
-0.000125228
2.9104e-06
-0.000127547
2.31905e-06
-0.000129295
1.74761e-06
-0.000130501
1.20599e-06
-0.00013118
6.78988e-07
-0.000131392
2.12713e-07
-0.000131079
-3.12961e-07
-0.000130195
-8.84121e-07
-0.000128941
-1.25431e-06
-0.000127038
-1.90302e-06
-0.000124582
-2.45549e-06
-0.000121538
-3.04446e-06
-0.000117795
-3.74255e-06
-0.000113312
-4.48291e-06
-0.000108039
-5.27329e-06
-0.000101899
-6.14006e-06
-9.48839e-05
-7.01487e-06
-8.69274e-05
-7.9564e-06
-7.80677e-05
-8.85978e-06
-6.82842e-05
-9.78343e-06
-5.77256e-05
-1.05586e-05
-4.64275e-05
-1.12981e-05
-3.45353e-05
-1.18922e-05
-2.20546e-05
-1.24807e-05
-9.31076e-06
-1.27439e-05
3.66531e-06
-1.29761e-05
1.71465e-05
-1.34813e-05
3.07953e-05
-1.36488e-05
4.43525e-05
-1.35573e-05
5.77551e-05
-1.34026e-05
7.0812e-05
-1.30569e-05
8.34369e-05
-1.2625e-05
9.55118e-05
-1.20749e-05
0.00010683
-1.13182e-05
0.00011733
-1.04999e-05
0.00012691
-9.57991e-06
0.000135389
-8.47891e-06
0.000142726
-7.33738e-06
0.0001488
-6.07449e-06
0.000153486
-4.68604e-06
0.000156758
-3.27157e-06
0.000158533
-1.77541e-06
0.000158825
-2.91744e-07
0.000157902
9.23184e-07
0.000155656
2.24587e-06
0.000152195
3.46078e-06
0.000147478
4.71698e-06
0.000141523
5.95523e-06
0.000134517
7.00577e-06
0.000126456
8.06068e-06
0.000117538
8.91813e-06
0.000107823
9.71556e-06
9.74017e-05
1.0421e-05
8.64172e-05
1.09844e-05
7.49754e-05
1.14418e-05
6.31525e-05
1.18229e-05
5.11669e-05
1.19856e-05
3.90083e-05
1.21586e-05
2.68169e-05
1.21913e-05
1.46754e-05
1.21415e-05
2.67575e-06
1.19997e-05
-9.14593e-06
1.18217e-05
-2.06628e-05
1.15169e-05
-3.17834e-05
1.11206e-05
-4.24311e-05
1.06477e-05
-5.25562e-05
1.01251e-05
-6.20918e-05
9.5356e-06
-7.09883e-05
8.8965e-06
-7.91978e-05
8.20955e-06
-8.66928e-05
7.49492e-06
-9.34553e-05
6.76254e-06
-9.94593e-05
6.00404e-06
-0.000104689
5.22967e-06
-0.000109145
4.45586e-06
-0.000112827
3.68192e-06
-0.00011574
2.91363e-06
-0.000117906
2.16602e-06
-0.000119337
1.43106e-06
-0.000120063
7.25817e-07
-0.000120053
-9.85048e-09
-0.000119307
-7.46074e-07
-0.000117867
-1.43993e-06
-0.000115753
-2.11416e-06
-0.000112953
-2.80031e-06
-0.00010954
-3.41315e-06
-0.000105447
-4.09241e-06
-0.000100724
-4.7237e-06
-9.53652e-05
-5.35852e-06
-8.93181e-05
-6.04709e-06
-8.26597e-05
-6.65838e-06
-7.54082e-05
-7.25159e-06
-6.75074e-05
-7.90073e-06
-5.90265e-05
-8.48088e-06
-4.99108e-05
-9.11573e-06
-4.0287e-05
-9.62376e-06
-3.01892e-05
-1.00979e-05
-1.95516e-05
-1.06375e-05
-8.52745e-06
-1.10242e-05
-1.13455e-05
0.000227029
-1.32368e-05
0.000232174
-1.02842e-05
0.000235662
-6.9698e-06
0.000237486
-3.64168e-06
0.000237642
-3.0129e-07
0.000236242
2.79177e-06
0.000233181
6.12027e-06
0.000228447
9.46589e-06
0.000221995
1.29027e-05
0.000214028
1.59326e-05
0.000204627
1.87977e-05
0.000193779
2.16885e-05
0.000181698
2.41542e-05
0.000168388
2.66168e-05
0.000154112
2.85448e-05
0.000138961
3.02935e-05
0.000123039
3.18359e-05
0.000106622
3.28283e-05
8.98901e-05
3.34504e-05
7.30365e-05
3.36959e-05
5.6286e-05
3.34912e-05
3.97852e-05
3.29923e-05
2.37329e-05
3.20962e-05
8.27606e-06
3.09072e-05
-6.47092e-06
2.94908e-05
-2.04454e-05
2.79428e-05
-3.35487e-05
2.61999e-05
-4.57037e-05
2.43033e-05
-5.68725e-05
2.2337e-05
-6.70572e-05
2.03707e-05
-7.62477e-05
1.83756e-05
-8.44527e-05
1.64046e-05
-9.17008e-05
1.45001e-05
-9.80397e-05
1.26826e-05
-0.000103513
1.09464e-05
-0.00010815
9.27228e-06
-0.000111986
7.67159e-06
-0.000115059
6.14411e-06
-0.000117398
4.67456e-06
-0.000119022
3.23323e-06
-0.000119962
1.87772e-06
-0.00012019
4.71395e-07
-0.000119781
-8.12529e-07
-0.000118664
-2.23467e-06
-0.000116765
-3.79843e-06
-0.000114141
-5.25055e-06
-0.000110761
-6.76288e-06
-0.000106563
-8.39385e-06
-0.000101601
-9.92652e-06
-9.58889e-05
-1.14246e-05
-8.9343e-05
-1.30989e-05
-8.21354e-05
-1.44058e-05
-7.41179e-05
-1.60282e-05
-6.54714e-05
-1.72909e-05
-5.62735e-05
-1.83941e-05
-4.64873e-05
-1.9573e-05
-3.62563e-05
-2.04556e-05
-2.56181e-05
-2.1273e-05
-1.45312e-05
-2.21615e-05
-3.12787e-06
-2.28104e-05
8.55958e-06
-2.33687e-05
2.04746e-05
-2.38238e-05
3.24839e-05
-2.40115e-05
4.45914e-05
-2.42081e-05
5.67388e-05
-2.42864e-05
6.87762e-05
-2.4064e-05
8.07089e-05
-2.38529e-05
9.23834e-05
-2.33337e-05
0.000103739
-2.27044e-05
0.000114654
-2.18258e-05
0.00012495
-2.05826e-05
0.000134516
-1.91222e-05
0.000143221
-1.74007e-05
0.000150864
-1.52749e-05
0.000157341
-1.29435e-05
0.000162487
-1.02815e-05
0.000166207
-7.43163e-06
0.000168387
-4.35416e-06
0.000168973
-1.16298e-06
0.000168088
1.77281e-06
0.000165566
5.04166e-06
0.0001614
8.33474e-06
0.000155736
1.13283e-05
0.000148645
1.41741e-05
0.000140301
1.66844e-05
0.000130827
1.89363e-05
0.000120348
2.09397e-05
0.000109088
2.25009e-05
9.70609e-05
2.40399e-05
8.4449e-05
2.52047e-05
7.13573e-05
2.61614e-05
5.78217e-05
2.70539e-05
4.40227e-05
2.75863e-05
3.01806e-05
2.76617e-05
1.64533e-05
2.74448e-05
2.87669e-06
2.71298e-05
-1.02285e-05
2.62036e-05
-2.28023e-05
2.51498e-05
-3.47276e-05
2.38549e-05
-4.59767e-05
2.2478e-05
-5.64407e-05
2.09212e-05
-6.60964e-05
1.93156e-05
-7.49395e-05
1.76843e-05
-8.29848e-05
1.60869e-05
-9.0221e-05
1.44715e-05
-9.66882e-05
1.29363e-05
-0.000102415
1.14542e-05
-0.00010743
1.00264e-05
-0.000111747
8.63453e-06
-0.000115419
7.35108e-06
-0.000118477
6.11369e-06
-0.000120904
4.85475e-06
-0.000122863
3.91765e-06
-0.000124214
2.70195e-06
-0.000125058
1.70521e-06
-0.000125433
7.39681e-07
-0.000125247
-3.72818e-07
-0.00012456
-1.38278e-06
-0.00012336
-2.40253e-06
-0.000121623
-3.45859e-06
-0.000119337
-4.56957e-06
-0.00011646
-5.75235e-06
-0.000112981
-6.97404e-06
-0.000108893
-8.17153e-06
-0.000104131
-9.52265e-06
-9.87099e-05
-1.08409e-05
-9.25905e-05
-1.22347e-05
-8.57481e-05
-1.37037e-05
-7.82182e-05
-1.50495e-05
-6.99362e-05
-1.65571e-05
-6.09263e-05
-1.80029e-05
-5.12501e-05
-1.93569e-05
-4.09366e-05
-2.06259e-05
-3.00257e-05
-2.18177e-05
-1.8577e-05
-2.29031e-05
-6.61497e-06
-2.39099e-05
5.69497e-06
-2.45999e-05
1.83374e-05
-2.52767e-05
3.12123e-05
-2.57449e-05
4.41861e-05
-2.59462e-05
5.70574e-05
-2.57333e-05
6.97181e-05
-2.53149e-05
8.19547e-05
-2.44639e-05
9.3609e-05
-2.32993e-05
0.000104509
-2.17912e-05
0.000114488
-1.99478e-05
0.000123402
-1.78082e-05
0.000131061
-1.53168e-05
0.000137362
-1.26e-05
0.00014222
-9.71217e-06
0.000145526
-6.61079e-06
0.000147269
-3.48768e-06
0.000147428
-3.16838e-07
0.000146049
2.75482e-06
0.000143128
5.8368e-06
0.000138748
8.75783e-06
0.000133018
1.14549e-05
0.000126018
1.39925e-05
0.000117854
1.63167e-05
0.000108638
1.8425e-05
9.85109e-05
2.02555e-05
8.75942e-05
2.18274e-05
7.60446e-05
2.30872e-05
6.4009e-05
2.40581e-05
5.16479e-05
2.4711e-05
3.9093e-05
2.51079e-05
2.6468e-05
2.5247e-05
1.39e-05
2.51255e-05
1.49829e-06
2.47832e-05
-1.06888e-05
2.43807e-05
-2.25263e-05
2.36698e-05
-3.398e-05
2.28999e-05
-4.49722e-05
2.19807e-05
-5.54709e-05
2.09965e-05
-6.5435e-05
1.99282e-05
-7.48624e-05
1.88505e-05
-8.37283e-05
1.77274e-05
-9.20275e-05
1.65971e-05
-9.97257e-05
1.53958e-05
-0.000106802
1.41508e-05
-0.00011324
1.28689e-05
-0.000119014
1.15459e-05
-0.000124092
1.01606e-05
-0.000128468
8.7523e-06
-0.000132178
7.41658e-06
-0.000135158
5.95627e-06
-0.000137439
4.56003e-06
-0.000138994
3.11301e-06
-0.000139851
1.71456e-06
-0.00014001
3.15939e-07
-0.000139461
-1.09871e-06
-0.000138228
-2.45889e-06
-0.000136314
-3.83175e-06
-0.000133756
-5.11689e-06
-0.000130527
-6.45396e-06
-0.000126641
-7.77355e-06
-0.000122105
-9.0728e-06
-0.000116915
-1.03757e-05
-0.000111063
-1.17194e-05
-0.000104627
-1.28525e-05
-9.75573e-05
-1.41363e-05
-8.98891e-05
-1.53361e-05
-8.16368e-05
-1.65e-05
-7.28442e-05
-1.75858e-05
-6.35208e-05
-1.86431e-05
-5.37019e-05
-1.96319e-05
-4.34285e-05
-2.05454e-05
-3.27482e-05
-2.13561e-05
-2.1678e-05
-2.21393e-05
-1.02847e-05
-2.27822e-05
1.35597e-06
-2.32757e-05
1.31965e-05
-2.36702e-05
2.51319e-05
-2.38624e-05
3.70923e-05
-2.39158e-05
4.89694e-05
-2.37423e-05
6.06665e-05
-2.33884e-05
7.20556e-05
-2.27761e-05
8.30311e-05
-2.19466e-05
9.34504e-05
-2.08344e-05
0.000103189
-1.94658e-05
0.000112109
-1.78272e-05
0.000120062
-1.58972e-05
0.000126924
-1.37154e-05
0.000132547
-1.12459e-05
0.000136865
-8.63312e-06
0.000139774
-5.81467e-06
0.000141208
-2.85985e-06
0.000141114
1.80857e-07
0.00013948
3.26572e-06
0.0001363
6.36235e-06
0.000131629
9.33663e-06
0.000125526
1.22049e-05
0.000118093
1.48551e-05
0.000109441
1.72945e-05
9.9697e-05
1.94897e-05
8.89974e-05
2.1389e-05
7.75064e-05
2.29722e-05
6.53928e-05
2.42182e-05
5.28095e-05
2.51536e-05
3.99482e-05
2.57138e-05
2.69518e-05
2.59813e-05
1.39813e-05
2.59349e-05
1.15864e-06
2.56433e-05
-1.13909e-05
2.50934e-05
-2.35349e-05
2.42778e-05
-3.51981e-05
2.33197e-05
-4.62714e-05
2.21438e-05
-5.67068e-05
2.08674e-05
-6.64567e-05
1.94964e-05
-7.54927e-05
1.80703e-05
-8.38157e-05
1.66474e-05
-9.13999e-05
1.51652e-05
-9.82874e-05
1.37693e-05
-0.000104437
1.2301e-05
-0.000109897
1.09206e-05
-0.000114721
9.64559e-06
-0.000118858
8.27425e-06
-0.000122385
7.05515e-06
-0.000125293
5.8181e-06
-0.000127616
4.64226e-06
-0.000129361
3.49263e-06
-0.000130561
2.40649e-06
-0.000131244
1.36134e-06
-0.000131453
4.22056e-07
-0.000131144
-6.22168e-07
-0.000130254
-1.77346e-06
-0.000129002
-2.5072e-06
-0.000127092
-3.8128e-06
-0.000124647
-4.89985e-06
-0.0001216
-6.09182e-06
-0.000117855
-7.48733e-06
-0.000113375
-8.96323e-06
-0.000108104
-1.05435e-05
-0.000101965
-1.22791e-05
-9.4958e-05
-1.40221e-05
-8.7007e-05
-1.59074e-05
-7.81394e-05
-1.77274e-05
-6.83622e-05
-1.95606e-05
-5.78052e-05
-2.11156e-05
-4.65028e-05
-2.26005e-05
-3.46125e-05
-2.37825e-05
-2.21341e-05
-2.49592e-05
-9.37324e-06
-2.55048e-05
3.60566e-06
-2.5955e-05
1.70951e-05
-2.69708e-05
3.07504e-05
-2.73041e-05
4.43167e-05
-2.71236e-05
5.77273e-05
-2.68132e-05
7.0793e-05
-2.61227e-05
8.34232e-05
-2.52553e-05
9.55006e-05
-2.41523e-05
0.000106829
-2.26467e-05
0.000117343
-2.10143e-05
0.000126931
-1.9168e-05
0.000135414
-1.69619e-05
0.000142758
-1.46809e-05
0.000148816
-1.21331e-05
0.000153485
-9.35456e-06
0.000156783
-6.56989e-06
0.000158578
-3.57092e-06
0.000158874
-5.87455e-07
0.000157957
1.84007e-06
0.00015572
4.4829e-06
0.000152262
6.91906e-06
0.000147543
9.43571e-06
0.000141584
1.19137e-05
0.000134576
1.40144e-05
0.000126511
1.61258e-05
0.000117587
1.78415e-05
0.000107866
1.94366e-05
9.74411e-05
2.0846e-05
8.6451e-05
2.19746e-05
7.50035e-05
2.28893e-05
6.31737e-05
2.36527e-05
5.11833e-05
2.3976e-05
3.90205e-05
2.43214e-05
2.6823e-05
2.43888e-05
1.4676e-05
2.42884e-05
2.67371e-06
2.4002e-05
-9.15537e-06
2.36507e-05
-2.06781e-05
2.30396e-05
-3.18037e-05
2.22462e-05
-4.24547e-05
2.12987e-05
-5.25823e-05
2.02527e-05
-6.21221e-05
1.90754e-05
-7.1025e-05
1.77994e-05
-7.92451e-05
1.64297e-05
-8.6747e-05
1.49968e-05
-9.35109e-05
1.35264e-05
-9.95137e-05
1.20069e-05
-0.000104743
1.04587e-05
-0.0001092
8.91308e-06
-0.000112883
7.36506e-06
-0.000115797
5.82746e-06
-0.00011796
4.32928e-06
-0.000119388
2.85897e-06
-0.00012011
1.44808e-06
-0.000120099
-2.07506e-08
-0.000119347
-1.49828e-06
-0.000117914
-2.8733e-06
-0.000115798
-4.23014e-06
-0.000112997
-5.60108e-06
-0.000109583
-6.82679e-06
-0.000105492
-8.18401e-06
-0.000100769
-9.44659e-06
-9.54114e-05
-1.07161e-05
-8.93616e-05
-1.20969e-05
-8.26984e-05
-1.33216e-05
-7.54432e-05
-1.45068e-05
-6.75392e-05
-1.58047e-05
-5.90551e-05
-1.69649e-05
-4.99357e-05
-1.82352e-05
-4.03084e-05
-1.92511e-05
-3.02069e-05
-2.01994e-05
-1.95655e-05
-2.12789e-05
-8.53715e-06
-2.20525e-05
-2.26958e-05
0.000227176
-1.98772e-05
0.000232343
-1.54511e-05
0.00023585
-1.04775e-05
0.000237676
-5.46754e-06
0.000237821
-4.45607e-07
0.000236383
4.22975e-06
0.000233311
9.19222e-06
0.000228572
1.42046e-05
0.000222118
1.93571e-05
0.000214146
2.39037e-05
0.000204737
2.82067e-05
0.000193876
3.25499e-05
0.000181781
3.62497e-05
0.000168469
3.9928e-05
0.000154181
4.28334e-05
0.000139017
4.54574e-05
0.000123083
4.77695e-05
0.000106665
4.92466e-05
8.99099e-05
5.02056e-05
7.30377e-05
5.05681e-05
5.62713e-05
5.02576e-05
3.9756e-05
4.95076e-05
2.36904e-05
4.81618e-05
8.22451e-06
4.63732e-05
-6.5352e-06
4.42505e-05
-2.05197e-05
4.19273e-05
-3.36291e-05
3.93093e-05
-4.57892e-05
3.64634e-05
-5.69647e-05
3.35126e-05
-6.71504e-05
3.05564e-05
-7.63358e-05
2.7561e-05
-8.45397e-05
2.46085e-05
-9.17948e-05
2.17551e-05
-9.81344e-05
1.90222e-05
-0.000103603
1.64154e-05
-0.000108235
1.39042e-05
-0.000112067
1.15038e-05
-0.000115139
9.21571e-06
-0.000117476
7.01155e-06
-0.000119095
4.85262e-06
-0.000120028
2.81078e-06
-0.000120246
6.89124e-07
-0.000119832
-1.22623e-06
-0.000118714
-3.35346e-06
-0.000116817
-5.69516e-06
-0.000114196
-7.872e-06
-0.000110817
-1.0141e-05
-0.000106625
-1.2586e-05
-0.000101659
-1.48926e-05
-9.59475e-05
-1.71364e-05
-8.94067e-05
-1.96396e-05
-8.21924e-05
-2.16202e-05
-7.41681e-05
-2.40525e-05
-6.55169e-05
-2.59421e-05
-5.63153e-05
-2.75957e-05
-4.65274e-05
-2.93609e-05
-3.62899e-05
-3.06931e-05
-2.56477e-05
-3.19152e-05
-1.45538e-05
-3.32555e-05
-3.14831e-06
-3.4216e-05
8.54629e-06
-3.50634e-05
2.04684e-05
-3.5746e-05
3.24862e-05
-3.60294e-05
4.4602e-05
-3.6324e-05
5.67587e-05
-3.64431e-05
6.88056e-05
-3.6111e-05
8.07461e-05
-3.57935e-05
9.24282e-05
-3.50159e-05
0.000103794
-3.40699e-05
0.000114723
-3.27553e-05
0.000125035
-3.0895e-05
0.000134621
-2.87078e-05
0.000143347
-2.61269e-05
0.00015101
-2.29375e-05
0.000157509
-1.94427e-05
0.000162679
-1.54516e-05
0.000166431
-1.11837e-05
0.000168633
-6.55635e-06
0.000169204
-1.73367e-06
0.000168287
2.68918e-06
0.000165758
7.57139e-06
0.000161597
1.24951e-05
0.000155934
1.6992e-05
0.000148834
2.12737e-05
0.000140477
2.50415e-05
0.000130991
2.84228e-05
0.000120494
3.14371e-05
0.000109209
3.37855e-05
9.7157e-05
3.60923e-05
8.45164e-05
3.78453e-05
7.13983e-05
3.92796e-05
5.78369e-05
4.06153e-05
4.40134e-05
4.14099e-05
3.01332e-05
4.15419e-05
1.63939e-05
4.11841e-05
2.80153e-06
4.07221e-05
-1.03146e-05
3.93197e-05
-2.29017e-05
3.77369e-05
-3.48301e-05
3.57833e-05
-4.60959e-05
3.37438e-05
-5.65613e-05
3.13866e-05
-6.6213e-05
2.89673e-05
-7.50548e-05
2.65261e-05
-8.31076e-05
2.41398e-05
-9.03375e-05
2.17013e-05
-9.68105e-05
1.94092e-05
-0.000102524
1.7168e-05
-0.000107531
1.5033e-05
-0.000111848
1.29517e-05
-0.000115516
1.1019e-05
-0.000118581
9.17909e-06
-0.000121026
7.29899e-06
-0.000122957
5.84875e-06
-0.000124311
4.05666e-06
-0.000125154
2.54817e-06
-0.000125529
1.11455e-06
-0.000125344
-5.57843e-07
-0.000124649
-2.07817e-06
-0.000123445
-3.60673e-06
-0.000121716
-5.18707e-06
-0.00011944
-6.84608e-06
-0.00011656
-8.63183e-06
-0.00011308
-1.04547e-05
-0.000108983
-1.22677e-05
-0.000104229
-1.42776e-05
-9.88132e-05
-1.62562e-05
-9.26944e-05
-1.83534e-05
-8.58699e-05
-2.05283e-05
-7.83195e-05
-2.25999e-05
-7.0039e-05
-2.48376e-05
-6.10287e-05
-2.70132e-05
-5.13468e-05
-2.90388e-05
-4.10259e-05
-3.09468e-05
-3.01102e-05
-3.27334e-05
-1.8663e-05
-3.43504e-05
-6.71762e-06
-3.58553e-05
5.62096e-06
-3.69386e-05
1.82778e-05
-3.79336e-05
3.11679e-05
-3.86351e-05
4.41414e-05
-3.89197e-05
5.70332e-05
-3.86251e-05
6.97092e-05
-3.7991e-05
8.19632e-05
-3.67179e-05
9.36353e-05
-3.49715e-05
0.000104569
-3.27251e-05
0.000114544
-2.99231e-05
0.000123463
-2.67272e-05
0.000131131
-2.29843e-05
0.000137449
-1.89188e-05
0.000142307
-1.45697e-05
0.000145618
-9.92159e-06
0.00014736
-5.22983e-06
0.000147513
-4.69831e-07
0.000146128
4.13968e-06
0.000143204
8.76031e-06
0.000138815
1.31473e-05
0.000133075
1.71939e-05
0.000126065
2.10028e-05
0.000117901
2.44806e-05
0.000108672
2.76545e-05
9.85272e-05
3.04e-05
8.7611e-05
3.27436e-05
7.60449e-05
3.46533e-05
6.39979e-05
3.61051e-05
5.16185e-05
3.70904e-05
3.90553e-05
3.76711e-05
2.6424e-05
3.78783e-05
1.38471e-05
3.77024e-05
1.43312e-06
3.71972e-05
-1.07581e-05
3.65719e-05
-2.26042e-05
3.5516e-05
-3.40572e-05
3.43529e-05
-4.505e-05
3.29736e-05
-5.55524e-05
3.14989e-05
-6.5519e-05
2.98948e-05
-7.4949e-05
2.82805e-05
-8.38168e-05
2.65952e-05
-9.21153e-05
2.48956e-05
-9.98201e-05
2.31005e-05
-0.000106899
2.12293e-05
-0.000113335
1.93051e-05
-0.000119105
1.73159e-05
-0.000124188
1.52436e-05
-0.000128571
1.3135e-05
-0.000132278
1.11243e-05
-0.000135257
8.93502e-06
-0.000137539
6.84174e-06
-0.000139099
4.67338e-06
-0.000139956
2.5712e-06
-0.000140107
4.66453e-07
-0.000139551
-1.65404e-06
-0.000138314
-3.69636e-06
-0.000136411
-5.73409e-06
-0.000133844
-7.68429e-06
-0.000130618
-9.67985e-06
-0.000126729
-1.16629e-05
-0.000122191
-1.3611e-05
-0.000117004
-1.55619e-05
-0.000111167
-1.75572e-05
-0.000104716
-1.93036e-05
-9.76425e-05
-2.12094e-05
-8.99716e-05
-2.3007e-05
-8.17172e-05
-2.47545e-05
-7.29224e-05
-2.63806e-05
-6.35962e-05
-2.79693e-05
-5.37814e-05
-2.94467e-05
-4.35005e-05
-3.08263e-05
-3.28092e-05
-3.20474e-05
-2.17381e-05
-3.32105e-05
-1.03377e-05
-3.41826e-05
1.31031e-06
-3.49238e-05
1.31499e-05
-3.55098e-05
2.50978e-05
-3.58103e-05
3.70699e-05
-3.5888e-05
4.89513e-05
-3.56238e-05
6.0656e-05
-3.50931e-05
7.20559e-05
-3.4176e-05
8.30449e-05
-3.29356e-05
9.34809e-05
-3.12704e-05
0.000103228
-2.92128e-05
0.000112152
-2.67512e-05
0.00012011
-2.38552e-05
0.000126993
-2.05984e-05
0.000132626
-1.68789e-05
0.000136958
-1.29652e-05
0.000139868
-8.72477e-06
0.000141299
-4.29173e-06
0.000141206
2.73988e-07
0.00013957
4.90225e-06
0.000136382
9.5499e-06
0.000131702
1.40171e-05
0.000125597
1.83091e-05
0.000118158
2.22943e-05
0.000109498
2.59551e-05
9.9741e-05
2.92463e-05
8.90209e-05
3.21091e-05
7.7519e-05
3.44741e-05
6.53943e-05
3.63429e-05
5.28007e-05
3.77472e-05
3.99302e-05
3.85843e-05
2.69173e-05
3.89942e-05
1.39353e-05
3.8917e-05
1.1043e-06
3.84743e-05
-1.14539e-05
3.76516e-05
-2.36129e-05
3.64368e-05
-3.52797e-05
3.49865e-05
-4.63535e-05
3.32176e-05
-5.67917e-05
3.13055e-05
-6.65448e-05
2.92495e-05
-7.55832e-05
2.71087e-05
-8.3914e-05
2.49783e-05
-9.14953e-05
2.27465e-05
-9.8377e-05
2.06509e-05
-0.000104526
1.84502e-05
-0.000109983
1.63774e-05
-0.000114804
1.44669e-05
-0.000118943
1.24131e-05
-0.000122468
1.05799e-05
-0.000125373
8.72321e-06
-0.000127692
6.96101e-06
-0.000129438
5.23927e-06
-0.000130638
3.60657e-06
-0.00013133
2.05326e-06
-0.000131525
6.16477e-07
-0.00013121
-9.36815e-07
-0.000130332
-2.65126e-06
-0.00012906
-3.77917e-06
-0.000127141
-5.73226e-06
-0.000124704
-7.33613e-06
-0.000121651
-9.14552e-06
-0.000117911
-1.1227e-05
-0.000113433
-1.34407e-05
-0.000108167
-1.58099e-05
-0.000102029
-1.84173e-05
-9.50308e-05
-2.102e-05
-8.70935e-05
-2.38446e-05
-7.82218e-05
-2.65991e-05
-6.84536e-05
-2.93288e-05
-5.79031e-05
-3.16661e-05
-4.65982e-05
-3.39055e-05
-3.4713e-05
-3.56677e-05
-2.22359e-05
-3.74363e-05
-9.44883e-06
-3.82919e-05
3.5183e-06
-3.89222e-05
1.70233e-05
-4.04758e-05
3.06917e-05
-4.09726e-05
4.42687e-05
-4.07007e-05
5.76906e-05
-4.02352e-05
7.07712e-05
-3.92033e-05
8.34156e-05
-3.78998e-05
9.55054e-05
-3.62421e-05
0.000106843
-3.39841e-05
0.000117364
-3.15361e-05
0.000126957
-2.87607e-05
0.000135433
-2.54376e-05
0.000142752
-2.20001e-05
0.000148801
-1.81827e-05
0.000153493
-1.40461e-05
0.000156791
-9.8681e-06
0.000158589
-5.36921e-06
0.000158917
-9.15572e-07
0.000158035
2.72184e-06
0.000155818
6.70025e-06
0.000152361
1.03757e-05
0.000147639
1.41583e-05
0.000141672
1.78807e-05
0.000134656
2.10303e-05
0.000126581
2.42e-05
0.000117651
2.67718e-05
0.000107918
2.91701e-05
9.74853e-05
3.12781e-05
8.64857e-05
3.29742e-05
7.50292e-05
3.43457e-05
6.31904e-05
3.54914e-05
5.11909e-05
3.59755e-05
3.90236e-05
3.64886e-05
2.6817e-05
3.65954e-05
1.46631e-05
3.64424e-05
2.65973e-06
3.60053e-05
-9.18334e-06
3.54938e-05
-2.07145e-05
3.45707e-05
-3.18465e-05
3.33782e-05
-4.25033e-05
3.19554e-05
-5.26371e-05
3.03865e-05
-6.21814e-05
2.86196e-05
-7.10878e-05
2.67058e-05
-7.93108e-05
2.46527e-05
-8.68149e-05
2.25008e-05
-9.35835e-05
2.0295e-05
-9.95926e-05
1.8016e-05
-0.000104826
1.56922e-05
-0.000109285
1.33722e-05
-0.00011297
1.10496e-05
-0.000115887
8.74435e-06
-0.000118051
6.49372e-06
-0.000119478
4.28603e-06
-0.000120186
2.15583e-06
-0.00012016
-4.6963e-08
-0.000119405
-2.25308e-06
-0.000117965
-4.31297e-06
-0.00011585
-6.34561e-06
-0.000113049
-8.40163e-06
-0.000109633
-1.02435e-05
-0.000105537
-1.22799e-05
-0.000100811
-1.41726e-05
-9.54546e-05
-1.60722e-05
-8.94084e-05
-1.81431e-05
-8.27467e-05
-1.99834e-05
-7.54912e-05
-2.17623e-05
-6.75854e-05
-2.37105e-05
-5.90989e-05
-2.54515e-05
-4.99763e-05
-2.73578e-05
-4.03451e-05
-2.88822e-05
-3.0239e-05
-3.03055e-05
-1.95919e-05
-3.19261e-05
-8.5563e-06
-3.30881e-05
-3.40552e-05
0.000227398
-2.65457e-05
0.000232615
-2.06678e-05
0.000236159
-1.40216e-05
0.000237983
-7.29185e-06
0.0002381
-5.62355e-07
0.000236597
5.73332e-06
0.000233505
1.22837e-05
0.000228759
1.89505e-05
0.000222301
2.58154e-05
0.000214325
3.18801e-05
0.000204904
3.76275e-05
0.000194022
4.34316e-05
0.000181906
4.83657e-05
0.000168591
5.32437e-05
0.000154284
5.71404e-05
0.0001391
6.06407e-05
0.000123149
6.37208e-05
0.000106738
6.56581e-05
8.99423e-05
6.70009e-05
7.30411e-05
6.74693e-05
5.62504e-05
6.70483e-05
3.97131e-05
6.6045e-05
2.36279e-05
6.4247e-05
8.1507e-06
6.18504e-05
-6.63427e-06
5.90355e-05
-2.06352e-05
5.59282e-05
-3.37547e-05
5.24288e-05
-4.59207e-05
4.86294e-05
-5.7099e-05
4.46909e-05
-6.7288e-05
4.07453e-05
-7.64739e-05
3.6747e-05
-8.46758e-05
3.28103e-05
-9.19287e-05
2.9008e-05
-9.82647e-05
2.53582e-05
-0.000103732
2.18825e-05
-0.000108364
1.85365e-05
-0.000112198
1.53378e-05
-0.00011527
1.22877e-05
-0.000117604
9.34554e-06
-0.000119222
6.4707e-06
-0.000120139
3.72801e-06
-0.000120336
8.85729e-07
-0.000119913
-1.64895e-06
-0.000118793
-4.47387e-06
-0.000116897
-7.59127e-06
-0.000114278
-1.04909e-05
-0.000110905
-1.35134e-05
-0.000106719
-1.67726e-05
-0.000101748
-1.98638e-05
-9.60352e-05
-2.28487e-05
-8.9506e-05
-2.61689e-05
-8.2279e-05
-2.88471e-05
-7.42437e-05
-3.20879e-05
-6.55859e-05
-3.46e-05
-5.63791e-05
-3.68025e-05
-4.65889e-05
-3.91512e-05
-3.6341e-05
-4.09411e-05
-2.5694e-05
-4.25622e-05
-1.45879e-05
-4.43617e-05
-3.17943e-06
-4.56245e-05
8.52549e-06
-4.67684e-05
2.04584e-05
-4.7679e-05
3.24858e-05
-4.80568e-05
4.46124e-05
-4.84507e-05
5.6782e-05
-4.86128e-05
6.88423e-05
-4.81714e-05
8.07991e-05
-4.77504e-05
9.25006e-05
-4.67175e-05
0.000103887
-4.5456e-05
0.000114844
-4.37128e-05
0.000125182
-4.12331e-05
0.000134793
-3.83192e-05
0.000143552
-3.48853e-05
0.000151244
-3.06298e-05
0.000157775
-2.59742e-05
0.000162978
-2.06545e-05
0.000166753
-1.49587e-05
0.000168979
-8.78232e-06
0.000169548
-2.30279e-06
0.00016859
3.64751e-06
0.00016604
1.01213e-05
0.000161886
1.66494e-05
0.000156221
2.26573e-05
0.000149111
2.83841e-05
0.000140738
3.34144e-05
0.00013123
3.79306e-05
0.000120706
4.19616e-05
0.000109385
4.51068e-05
9.72934e-05
4.81839e-05
8.46081e-05
5.05306e-05
7.14524e-05
5.24354e-05
5.78548e-05
5.42129e-05
4.39951e-05
5.52696e-05
3.00581e-05
5.54789e-05
1.63001e-05
5.49421e-05
2.70821e-06
5.43141e-05
-1.04442e-05
5.24721e-05
-2.30453e-05
5.0338e-05
-3.49913e-05
4.77293e-05
-4.62615e-05
4.5014e-05
-5.67407e-05
4.18658e-05
-6.63898e-05
3.86163e-05
-7.52038e-05
3.53401e-05
-8.32794e-05
3.22153e-05
-9.05031e-05
2.8925e-05