/*--------------------------------*- C++ -*----------------------------------*\
| =========                 |                                                 |
| \\      /  F ield         | OpenFOAM: The Open Source CFD Toolbox           |
|  \\    /   O peration     | Version:  3.0.1                                 |
|   \\  /    A nd           | Web:      www.OpenFOAM.org                      |
|    \\/     M anipulation  |                                                 |
\*---------------------------------------------------------------------------*/
FoamFile
{
    version     2.0;
    format      ascii;
    class       volScalarField;
    location    "78.6";
    object      p;
}
// * * * * * * * * * * * * * * * * * * * * * * * * * * * * * * * * * * * * * //

dimensions      [1 -1 -2 0 0 0 0];

internalField   nonuniform List<scalar> 
21420
(
4279.92
4265.02
4246.57
4224.79
4199.96
4172.42
4142.54
4110.73
4077.37
4042.91
4007.75
3972.37
3937.31
3904.58
3870.94
3838.04
3806.32
3776.07
3747.43
3720.56
3695.51
3672.34
3651.05
3631.65
3614.1
3598.37
3584.42
3572.19
3561.66
3552.76
3545.45
3539.71
3535.5
3532.81
3531.68
3532.05
3533.9
3537.32
3542.31
3548.89
3557.12
3567.01
3578.62
3592
3607.17
3624.18
3643.06
3663.81
3686.41
3710.87
3737.11
3765.05
3794.58
3825.57
3857.85
3891.24
3922.38
3956.8
3991.28
4025.44
4058.96
4091.45
4122.56
4151.91
4179.17
4204
4226.09
4245.14
4260.91
4273.18
4281.75
4286.5
4287.27
4284.14
4276.99
4265.9
4251.05
4232.62
4210.82
4185.94
4158.33
4128.35
4096.4
4062.88
4028.22
3992.84
3957.17
3921.62
3886.56
3852.33
3819.25
3787.59
3757.57
3729.39
3703.18
3679.06
3657.08
3637.26
3619.6
3604.05
3590.54
3578.99
3569.3
3561.4
3555.17
3550.53
3547.39
3545.72
3545.47
3546.57
3548.99
3552.73
3557.8
3564.19
3571.93
3581.04
3591.54
3603.46
3616.84
3631.69
3648.06
3665.96
3685.4
3706.39
3728.95
3753.05
3778.65
3805.7
3834.13
3863.8
3894.55
3926.36
3958.68
3991.38
4024.15
4056.61
4088.4
4119.11
4148.31
4175.6
4200.56
4222.81
4241.97
4257.72
4269.8
4277.97
4282.07
4281.98
4277.73
4269.37
4256.96
4240.71
4220.86
4197.72
4171.65
4143.06
4112.38
4080.07
4046.6
4012.44
3978.03
3943.78
3910.09
3877.26
3845.58
3815.29
3786.56
3759.52
3734.25
3710.82
3689.25
3669.53
3651.65
3635.56
3621.23
3608.6
3597.61
3588.19
3580.27
3573.81
3568.74
3565.03
3562.61
3561.48
3561.63
3562.99
3565.56
3569.36
3574.39
3580.67
3588.22
3597.08
3607.28
3618.86
3631.86
3646.33
3662.31
3679.83
3698.94
3719.64
3741.94
3765.82
3791.24
3818.1
3846.29
3875.66
3906
3937.11
3968.73
4000.55
4032.26
4063.51
4093.94
4123.17
4150.8
4176.43
4199.7
4220.23
4237.7
4251.79
4262.25
4268.88
4271.5
4270.05
4264.51
4254.99
4241.58
4224.5
4204.04
4180.53
4154.35
4125.92
4095.67
4064.06
4031.53
3998.51
3965.41
3932.58
3900.38
3869.07
3838.92
3810.11
3782.82
3757.17
3733.22
3711.05
3690.68
3672.1
3655.3
3640.25
3626.92
3615.26
3605.22
3596.74
3589.76
3584.21
3580.01
3577.09
3575.37
3574.83
3575.43
3577.09
3579.82
3583.61
3588.46
3594.37
3601.35
3609.42
3618.61
3628.95
3640.48
3653.23
3667.25
3682.61
3699.34
3717.47
3737.02
3758.03
3780.48
3804.33
3829.53
3856
3883.61
3912.2
3941.72
3971.73
4001.97
4032.19
4062.05
4091.21
4119.26
4145.8
4170.43
4192.76
4212.4
4228.99
4242.25
4251.91
4257.81
4259.85
4257.11
4250.44
4239.99
4225.91
4208.49
4187.99
4164.8
4139.29
4111.87
4082.97
4052.99
4022.34
3991.42
3960.52
3929.96
3900.04
3876.67
3849.28
3823.04
3798.17
3774.72
3752.73
3732.2
3713.09
3695.38
3679.02
3663.96
3650.15
3637.56
3626.15
3615.9
3606.8
3598.85
3592.05
3586.43
3582
3578.8
3576.88
3576.3
3577.17
3579.46
3583.18
3588.37
3595.03
3603.18
3612.83
3623.98
3636.63
3650.78
3666.4
3683.49
3702.01
3721.89
3743.04
3765.3
3788.35
3811.47
4181.97
4167.06
4148.6
4126.8
4101.95
4074.39
4044.5
4012.66
3979.29
3944.8
3909.63
3874.23
3839.15
3806.44
3772.79
3739.87
3708.15
3677.89
3649.25
3622.37
3597.33
3574.15
3552.87
3533.47
3515.92
3500.19
3486.24
3474.03
3463.49
3454.59
3447.29
3441.55
3437.34
3434.65
3433.52
3433.89
3435.74
3439.16
3444.15
3450.73
3458.95
3468.84
3480.45
3493.83
3509
3526
3544.88
3565.62
3588.23
3612.69
3638.93
3666.87
3696.41
3727.4
3759.68
3793.08
3824.25
3858.68
3893.17
3927.34
3960.87
3993.38
4024.5
4053.87
4081.15
4105.99
4128.09
4147.16
4162.95
4175.22
4183.8
4188.55
4189.34
4186.19
4179.04
4167.94
4153.08
4134.64
4112.82
4087.93
4060.3
4030.31
3998.34
3964.8
3930.12
3894.73
3859.04
3823.47
3788.4
3754.16
3721.07
3689.4
3659.38
3631.19
3604.98
3580.86
3558.88
3539.07
3521.41
3505.86
3492.35
3480.81
3471.13
3463.22
3457
3452.36
3449.23
3447.56
3447.31
3448.41
3450.83
3454.57
3459.64
3466.04
3473.77
3482.88
3493.38
3505.3
3518.67
3533.52
3549.89
3567.78
3587.22
3608.22
3630.78
3654.87
3680.47
3707.53
3735.96
3765.63
3796.39
3828.2
3860.53
3893.25
3926.03
3958.51
3990.32
4021.04
4050.27
4077.57
4102.55
4124.81
4143.99
4159.76
4171.84
4180.02
4184.14
4184.04
4179.78
4171.42
4159
4142.74
4122.87
4099.72
4073.63
4045.01
4014.31
3981.99
3948.5
3914.32
3879.89
3845.63
3811.92
3779.08
3747.4
3717.1
3688.37
3661.33
3636.07
3612.64
3591.06
3571.35
3553.46
3537.38
3523.06
3510.43
3499.44
3490.02
3482.11
3475.65
3470.58
3466.87
3464.46
3463.33
3463.48
3464.83
3467.41
3471.21
3476.24
3482.52
3490.07
3498.92
3509.12
3520.69
3533.7
3548.16
3564.14
3581.66
3600.76
3621.46
3643.76
3667.65
3693.07
3719.93
3748.13
3777.5
3807.85
3838.97
3870.6
3902.43
3934.15
3965.42
3995.87
4025.11
4052.75
4078.41
4101.69
4122.24
4139.72
4153.82
4164.3
4170.93
4173.56
4172.1
4166.56
4157.04
4143.61
4126.52
4106.04
4082.51
4056.31
4027.86
3997.6
3965.97
3933.42
3900.39
3867.27
3834.43
3802.21
3770.9
3740.74
3711.93
3684.64
3658.98
3635.04
3612.87
3592.5
3573.92
3557.12
3542.07
3528.75
3517.09
3507.05
3498.58
3491.6
3486.05
3481.85
3478.94
3477.22
3476.68
3477.29
3478.95
3481.68
3485.47
3490.32
3496.22
3503.2
3511.27
3520.47
3530.8
3542.33
3555.07
3569.1
3584.45
3601.18
3619.3
3638.86
3659.87
3682.32
3706.16
3731.36
3757.84
3785.45
3814.04
3843.57
3873.6
3903.84
3934.07
3963.95
3993.12
4021.19
4047.75
4072.4
4094.75
4114.4
4131.02
4144.28
4153.95
4159.86
4161.9
4159.16
4152.49
4142.02
4127.94
4110.5
4089.99
4066.77
4041.25
4013.81
3984.89
3954.89
3924.23
3893.29
3862.39
3831.82
3801.89
3778.51
3751.11
3724.87
3700
3676.55
3654.56
3634.03
3614.93
3597.23
3580.86
3565.8
3552
3539.41
3528
3517.76
3508.66
3500.7
3493.91
3488.28
3483.85
3480.65
3478.73
3478.14
3479.02
3481.3
3485.02
3490.21
3496.87
3505.02
3514.67
3525.82
3538.47
3552.61
3568.24
3585.33
3603.85
3623.73
3644.88
3667.15
3690.2
3713.32
4084.18
4069.24
4050.75
4028.92
4004.03
3976.43
3946.5
3914.63
3881.22
3846.7
3811.5
3776.06
3740.94
3708.26
3674.57
3641.63
3609.89
3579.62
3550.98
3524.1
3499.06
3475.88
3454.6
3435.21
3417.67
3401.95
3388
3375.79
3365.26
3356.36
3349.06
3343.33
3339.12
3336.43
3335.3
3335.67
3337.52
3340.93
3345.92
3352.5
3360.72
3370.6
3382.21
3395.58
3410.74
3427.75
3446.62
3467.36
3489.97
3514.42
3540.67
3568.61
3598.16
3629.15
3661.45
3694.86
3726.08
3760.53
3795.04
3829.24
3862.8
3895.34
3926.49
3955.9
3983.21
4008.08
4030.21
4049.31
4065.11
4077.41
4086
4090.76
4091.56
4088.39
4081.24
4070.13
4055.25
4036.78
4014.93
3990.01
3962.35
3932.32
3900.31
3866.73
3832.02
3796.59
3760.88
3725.28
3690.19
3655.93
3622.82
3591.13
3561.1
3532.9
3506.69
3482.57
3460.59
3440.78
3423.13
3407.59
3394.09
3382.55
3372.88
3364.99
3358.77
3354.14
3351.01
3349.35
3349.1
3350.2
3352.62
3356.36
3361.43
3367.82
3375.56
3384.66
3395.16
3407.07
3420.44
3435.29
3451.65
3469.54
3488.98
3509.98
3532.53
3556.62
3582.23
3609.29
3637.72
3667.4
3698.18
3729.99
3762.35
3795.09
3827.9
3860.41
3892.25
3923.01
3952.27
3979.62
4004.63
4026.93
4046.14
4061.93
4074.04
4082.23
4086.36
4086.26
4082
4073.63
4061.19
4044.9
4025
4001.81
3975.68
3947.03
3916.29
3883.92
3850.4
3816.18
3781.72
3747.43
3713.7
3680.84
3649.15
3618.84
3590.1
3563.06
3537.79
3514.37
3492.8
3473.08
3455.21
3439.13
3424.81
3412.19
3401.21
3391.79
3383.89
3377.43
3372.37
3368.67
3366.25
3365.13
3365.28
3366.63
3369.21
3373.01
3378.04
3384.31
3391.86
3400.71
3410.9
3422.47
3435.47
3449.93
3465.9
3483.42
3502.52
3523.21
3545.51
3569.4
3594.82
3621.7
3649.9
3679.28
3709.64
3740.79
3772.44
3804.29
3836.04
3867.34
3897.82
3927.09
3954.77
3980.46
4003.78
4024.36
4041.87
4056
4066.49
4073.14
4075.78
4074.31
4068.77
4059.23
4045.78
4028.66
4008.15
3984.59
3958.35
3929.86
3899.56
3867.89
3835.31
3802.24
3769.09
3736.23
3704
3672.67
3642.49
3613.68
3586.38
3560.72
3536.78
3514.61
3494.24
3475.66
3458.87
3443.83
3430.51
3418.85
3408.83
3400.36
3393.39
3387.84
3383.65
3380.74
3379.03
3378.5
3379.1
3380.76
3383.5
3387.29
3392.13
3398.04
3405.01
3413.08
3422.27
3432.61
3444.12
3456.87
3470.88
3486.23
3502.96
3521.08
3540.63
3561.64
3584.08
3607.93
3633.13
3659.61
3687.23
3715.83
3745.38
3775.42
3805.69
3835.95
3865.85
3895.06
3923.16
3949.76
3974.45
3996.84
4016.52
4033.16
4046.45
4056.14
4062.06
4064.12
4061.35
4054.67
4044.2
4030.09
4012.62
3992.08
3968.83
3943.26
3915.79
3886.84
3856.8
3826.11
3795.15
3764.22
3733.64
3703.68
3680.29
3652.87
3626.63
3601.76
3578.31
3556.33
3535.8
3516.71
3499.01
3482.65
3467.6
3453.8
3441.21
3429.81
3419.56
3410.46
3402.51
3395.71
3390.09
3385.66
3382.45
3380.52
3379.94
3380.81
3383.09
3386.81
3391.99
3398.65
3406.8
3416.45
3427.59
3440.24
3454.39
3470.01
3487.1
3505.62
3525.51
3546.66
3568.94
3592
3615.13
3986.53
3971.56
3953.02
3931.14
3906.2
3878.55
3848.56
3816.64
3783.17
3748.6
3713.35
3677.85
3642.67
3610.03
3576.29
3543.31
3511.56
3481.27
3452.63
3425.75
3400.7
3377.53
3356.26
3336.87
3319.34
3303.62
3289.69
3277.48
3266.96
3258.07
3250.78
3245.04
3240.84
3238.16
3237.02
3237.39
3239.24
3242.65
3247.63
3254.2
3262.41
3272.29
3283.89
3297.26
3312.41
3329.41
3348.28
3369.01
3391.62
3416.08
3442.33
3470.28
3499.83
3530.84
3563.15
3596.58
3627.88
3662.36
3696.9
3731.14
3764.75
3797.34
3828.53
3857.99
3885.34
3910.26
3932.43
3951.57
3967.41
3979.73
3988.35
3993.12
3993.94
3990.75
3983.59
3972.46
3957.55
3939.04
3917.15
3892.18
3864.47
3834.38
3802.31
3768.69
3733.92
3698.44
3662.68
3627.05
3591.91
3557.62
3524.49
3492.78
3462.73
3434.52
3408.31
3384.18
3362.21
3342.4
3324.76
3309.23
3295.74
3284.22
3274.56
3266.68
3260.47
3255.85
3252.74
3251.08
3250.84
3251.93
3254.36
3258.1
3263.17
3269.56
3277.29
3286.39
3296.88
3308.79
3322.15
3337
3353.35
3371.24
3390.67
3411.66
3434.21
3458.31
3483.91
3510.98
3539.42
3569.11
3599.92
3631.74
3664.13
3696.91
3729.76
3762.32
3794.21
3825.02
3854.34
3881.74
3906.81
3929.16
3948.41
3964.25
3976.39
3984.61
3988.75
3988.65
3984.38
3975.99
3963.52
3947.19
3927.25
3904
3877.82
3849.1
3818.3
3785.87
3752.29
3718.03
3683.52
3649.19
3615.42
3582.54
3550.82
3520.5
3491.75
3464.7
3439.44
3416.01
3394.45
3374.74
3356.87
3340.81
3326.5
3313.89
3302.91
3293.51
3285.61
3279.16
3274.11
3270.4
3268
3266.88
3267.03
3268.38
3270.96
3274.76
3279.78
3286.05
3293.59
3302.44
3312.63
3324.19
3337.18
3351.64
3367.6
3385.11
3404.2
3424.89
3447.19
3471.08
3496.51
3523.39
3551.61
3581.01
3611.39
3642.56
3674.24
3706.14
3737.93
3769.27
3799.8
3829.12
3856.85
3882.59
3905.96
3926.59
3944.14
3958.31
3968.83
3975.5
3978.17
3976.68
3971.13
3961.57
3948.09
3930.93
3910.37
3886.75
3860.46
3831.91
3801.55
3769.83
3737.19
3704.08
3670.88
3637.99
3605.72
3574.37
3544.18
3515.35
3488.04
3462.37
3438.43
3416.26
3395.9
3377.33
3360.54
3345.51
3332.2
3320.55
3310.53
3302.07
3295.11
3289.58
3285.39
3282.49
3280.79
3280.27
3280.87
3282.54
3285.27
3289.06
3293.9
3299.81
3306.78
3314.85
3324.03
3334.36
3345.87
3358.61
3372.62
3387.96
3404.67
3422.79
3442.33
3463.34
3485.78
3509.63
3534.84
3561.32
3588.95
3617.57
3647.14
3677.21
3707.51
3737.8
3767.76
3797.01
3825.17
3851.82
3876.57
3899.01
3918.75
3935.43
3948.76
3958.48
3964.41
3966.49
3963.7
3957.01
3946.5
3932.36
3914.85
3894.26
3870.96
3845.34
3817.81
3788.8
3758.72
3727.98
3696.98
3666.02
3635.41
3605.42
3582
3554.56
3528.32
3503.44
3480.01
3458.03
3437.51
3418.42
3400.73
3384.38
3369.34
3355.55
3342.96
3331.56
3321.32
3312.22
3304.27
3297.47
3291.84
3287.41
3284.2
3282.27
3281.67
3282.54
3284.82
3288.54
3293.72
3300.37
3308.52
3318.16
3329.31
3341.95
3356.1
3371.72
3388.82
3407.34
3427.23
3448.39
3470.67
3493.74
3516.89
3889.03
3874.01
3855.42
3833.47
3808.46
3780.74
3750.68
3718.68
3685.14
3650.5
3615.17
3579.6
3544.34
3511.76
3477.95
3444.93
3413.15
3382.85
3354.19
3327.31
3302.26
3279.1
3257.83
3238.45
3220.93
3205.23
3191.3
3179.11
3168.59
3159.71
3152.43
3146.7
3142.5
3139.82
3138.69
3139.04
3140.89
3144.3
3149.28
3155.84
3164.05
3173.92
3185.51
3198.86
3214.01
3230.99
3249.85
3270.59
3293.19
3317.65
3343.9
3371.86
3401.43
3432.45
3464.78
3498.24
3529.64
3564.16
3598.75
3633.04
3666.7
3699.36
3730.62
3760.14
3787.56
3812.54
3834.77
3853.95
3869.84
3882.2
3890.85
3895.64
3896.48
3893.27
3886.09
3874.94
3859.98
3841.43
3819.48
3794.44
3766.66
3736.5
3704.36
3670.66
3635.82
3600.28
3564.46
3528.76
3493.58
3459.25
3426.08
3394.34
3364.27
3336.05
3309.83
3285.7
3263.73
3243.93
3226.3
3210.79
3197.32
3185.81
3176.18
3168.31
3162.11
3157.51
3154.4
3152.76
3152.52
3153.62
3156.04
3159.79
3164.85
3171.24
3178.96
3188.06
3198.54
3210.44
3223.8
3238.64
3254.99
3272.87
3292.29
3313.28
3335.83
3359.92
3385.53
3412.6
3441.05
3470.77
3501.6
3533.44
3565.87
3598.7
3631.6
3664.22
3696.18
3727.06
3756.45
3783.93
3809.08
3831.49
3850.81
3866.7
3878.88
3887.14
3891.29
3891.21
3886.92
3878.5
3866
3849.61
3829.61
3806.3
3780.04
3751.24
3720.36
3687.85
3654.19
3619.85
3585.28
3550.9
3517.08
3484.16
3452.42
3422.08
3393.32
3366.26
3341
3317.58
3296.02
3276.32
3258.46
3242.41
3228.11
3215.52
3204.55
3195.16
3187.27
3180.83
3175.79
3172.09
3169.69
3168.58
3168.73
3170.09
3172.66
3176.46
3181.48
3187.75
3195.28
3204.12
3214.3
3225.85
3238.83
3253.28
3269.23
3286.74
3305.82
3326.5
3348.8
3372.69
3398.12
3425.02
3453.25
3482.68
3513.09
3544.3
3576.02
3607.96
3639.81
3671.21
3701.8
3731.19
3758.99
3784.8
3808.23
3828.93
3846.54
3860.76
3871.33
3878.02
3880.7
3879.22
3873.66
3864.06
3850.54
3833.33
3812.7
3789.01
3762.64
3734.01
3703.57
3671.78
3639.07
3605.89
3572.64
3539.69
3507.39
3476
3445.78
3416.94
3389.62
3363.95
3340.01
3317.84
3297.48
3278.92
3262.14
3247.12
3233.82
3222.19
3212.18
3203.73
3196.78
3191.26
3187.09
3184.2
3182.51
3181.99
3182.59
3184.27
3187
3190.79
3195.63
3201.53
3208.51
3216.57
3225.74
3236.07
3247.57
3260.29
3274.29
3289.63
3306.33
3324.43
3343.98
3364.97
3387.41
3411.26
3436.48
3462.97
3490.61
3519.25
3548.84
3578.96
3609.3
3639.65
3669.66
3698.98
3727.21
3753.93
3778.76
3801.27
3821.08
3837.83
3851.21
3860.96
3866.92
3869
3866.21
3859.49
3848.95
3834.77
3817.2
3796.54
3773.16
3747.47
3719.86
3690.79
3660.64
3629.84
3598.79
3567.78
3537.14
3507.12
3483.65
3456.19
3429.93
3405.06
3381.63
3359.66
3339.15
3320.08
3302.4
3286.06
3271.02
3257.24
3244.67
3233.27
3223.03
3213.94
3205.98
3199.18
3193.55
3189.12
3185.9
3183.96
3183.36
3184.22
3186.5
3190.21
3195.39
3202.03
3210.17
3219.82
3230.96
3243.6
3257.75
3273.37
3290.46
3308.99
3328.88
3350.05
3372.35
3395.43
3418.61
3791.68
3776.6
3757.94
3735.91
3710.82
3683
3652.84
3620.75
3587.12
3552.39
3516.98
3481.32
3445.96
3413.45
3379.56
3346.48
3314.66
3284.33
3255.67
3228.78
3203.74
3180.58
3159.32
3139.95
3122.44
3106.76
3092.85
3080.66
3070.16
3061.29
3054.02
3048.3
3044.11
3041.43
3040.29
3040.64
3042.49
3045.89
3050.86
3057.42
3065.61
3075.47
3087.05
3100.39
3115.53
3132.5
3151.35
3172.08
3194.68
3219.13
3245.39
3273.36
3302.95
3333.99
3366.34
3399.84
3431.38
3465.93
3500.58
3534.94
3568.68
3601.41
3632.75
3662.35
3689.85
3714.91
3737.21
3756.46
3772.4
3784.81
3793.5
3798.31
3799.16
3795.95
3788.74
3777.56
3762.55
3743.93
3721.91
3696.79
3668.92
3638.67
3606.44
3572.65
3537.72
3502.1
3466.2
3430.44
3395.2
3360.81
3327.59
3295.82
3265.72
3237.48
3211.25
3187.12
3165.15
3145.37
3127.75
3112.26
3098.81
3087.33
3077.72
3069.87
3063.69
3059.1
3056.01
3054.38
3054.14
3055.25
3057.68
3061.42
3066.48
3072.86
3080.59
3089.67
3100.14
3112.04
3125.38
3140.21
3156.55
3174.42
3193.85
3214.83
3237.37
3261.46
3287.07
3314.15
3342.61
3372.35
3403.22
3435.09
3467.58
3500.47
3533.44
3566.13
3598.17
3629.15
3658.63
3686.2
3711.44
3733.94
3753.34
3769.3
3781.54
3789.83
3794
3793.93
3789.63
3781.17
3768.62
3752.17
3732.09
3708.69
3682.33
3653.44
3622.45
3589.84
3556.09
3521.66
3487.01
3452.56
3418.69
3385.72
3353.94
3323.57
3294.8
3267.74
3242.47
3219.06
3197.51
3177.82
3159.98
3143.94
3129.66
3117.08
3106.13
3096.75
3088.88
3082.45
3077.42
3073.73
3071.34
3070.24
3070.38
3071.74
3074.32
3078.11
3083.13
3089.39
3096.91
3105.74
3115.91
3127.46
3140.42
3154.86
3170.8
3188.29
3207.36
3228.04
3250.33
3274.23
3299.67
3326.58
3354.84
3384.29
3414.74
3445.99
3477.77
3509.77
3541.69
3573.16
3603.83
3633.31
3661.19
3687.09
3710.61
3731.38
3749.07
3763.35
3773.97
3780.7
3783.39
3781.93
3776.34
3766.71
3753.13
3735.85
3715.14
3691.36
3664.89
3636.17
3605.63
3573.74
3540.94
3507.68
3474.36
3441.35
3408.99
3377.57
3347.32
3318.45
3291.12
3265.44
3241.5
3219.34
3198.99
3180.43
3163.67
3148.66
3135.37
3123.75
3113.76
3105.33
3098.4
3092.89
3088.73
3085.85
3084.18
3083.67
3084.28
3085.96
3088.69
3092.48
3097.32
3103.22
3110.19
3118.24
3127.41
3137.72
3149.21
3161.93
3175.91
3191.24
3207.93
3226.02
3245.55
3266.54
3288.98
3312.83
3338.05
3364.55
3392.21
3420.88
3450.51
3480.67
3511.06
3541.47
3571.56
3600.96
3629.28
3656.1
3681.02
3703.63
3723.52
3740.35
3753.79
3763.59
3769.57
3771.64
3768.87
3762.12
3751.54
3737.3
3719.65
3698.91
3675.44
3649.65
3621.96
3592.79
3562.56
3531.69
3500.57
3469.52
3438.83
3408.76
3385.24
3357.74
3331.48
3306.61
3283.19
3261.23
3240.73
3221.67
3204
3187.68
3172.66
3158.89
3146.32
3134.93
3124.7
3115.6
3107.65
3100.85
3095.21
3090.77
3087.55
3085.6
3084.98
3085.84
3088.12
3091.83
3097
3103.64
3111.77
3121.41
3132.55
3145.19
3159.33
3174.96
3192.05
3210.57
3230.48
3251.66
3273.97
3297.07
3320.28
3694.49
3679.34
3660.58
3638.46
3613.26
3585.33
3555.06
3522.86
3489.12
3454.29
3418.78
3383.01
3347.51
3315.09
3281.09
3247.95
3216.08
3185.74
3157.06
3130.16
3105.12
3081.97
3060.73
3041.37
3023.88
3008.21
2994.32
2982.15
2971.66
2962.81
2955.54
2949.83
2945.65
2942.98
2941.83
2942.17
2944.02
2947.42
2952.38
2958.93
2967.11
2976.95
2988.52
3001.85
3016.97
3033.93
3052.77
3073.49
3096.08
3120.54
3146.8
3174.79
3204.39
3235.46
3267.84
3301.36
3333.08
3367.68
3402.39
3436.84
3470.66
3503.49
3534.93
3564.62
3592.22
3617.37
3639.76
3659.09
3675.1
3687.57
3696.3
3701.14
3702
3698.78
3691.55
3680.32
3665.26
3646.56
3624.45
3599.23
3571.25
3540.89
3508.55
3474.65
3439.62
3403.9
3367.91
3332.07
3296.75
3262.3
3229.03
3197.22
3167.08
3138.82
3112.58
3088.45
3066.49
3046.71
3029.12
3013.65
3000.23
2988.77
2979.19
2971.36
2965.21
2960.64
2957.57
2955.95
2955.72
2956.83
2959.26
2963.01
2968.06
2974.44
2982.15
2991.23
3001.69
3013.57
3026.91
3041.73
3058.06
3075.92
3095.33
3116.3
3138.84
3162.93
3188.54
3215.63
3244.11
3273.88
3304.79
3336.69
3369.24
3402.2
3435.26
3468.05
3500.18
3531.26
3560.86
3588.54
3613.89
3636.5
3655.99
3672.03
3684.34
3692.68
3696.88
3696.82
3692.51
3684
3671.39
3654.87
3634.69
3611.18
3584.71
3555.69
3524.58
3491.85
3457.98
3423.45
3388.7
3354.17
3320.23
3287.2
3255.38
3224.99
3196.2
3169.13
3143.87
3120.45
3098.91
3079.24
3061.41
3045.39
3031.13
3018.57
3007.64
2998.28
2990.43
2984.01
2978.99
2975.31
2972.93
2971.84
2971.98
2973.35
2975.92
2979.71
2984.73
2990.98
2998.5
3007.31
3017.47
3029
3041.95
3056.37
3072.3
3089.78
3108.84
3129.51
3151.8
3175.69
3201.14
3228.07
3256.36
3285.84
3316.34
3347.64
3379.49
3411.57
3443.56
3475.12
3505.89
3535.47
3563.45
3589.45
3613.07
3633.95
3651.72
3666.08
3676.76
3683.54
3686.25
3684.79
3679.19
3669.5
3655.86
3638.49
3617.69
3593.8
3567.21
3538.37
3507.71
3475.71
3442.81
3409.45
3376.04
3342.96
3310.54
3279.07
3248.78
3219.89
3192.54
3166.85
3142.91
3120.76
3100.41
3081.87
3065.12
3050.13
3036.85
3025.25
3015.28
3006.86
2999.95
2994.46
2990.33
2987.46
2985.8
2985.31
2985.92
2987.6
2990.34
2994.13
2998.97
3004.86
3011.82
3019.87
3029.03
3039.33
3050.81
3063.51
3077.48
3092.79
3109.46
3127.54
3147.06
3168.05
3190.48
3214.33
3239.56
3266.07
3293.74
3322.44
3352.12
3382.34
3412.8
3443.29
3473.46
3502.96
3531.39
3558.32
3583.35
3606.07
3626.07
3642.99
3656.51
3666.36
3672.37
3674.44
3671.68
3664.91
3654.27
3639.95
3622.22
3601.38
3577.8
3551.9
3524.09
3494.82
3464.49
3433.53
3402.33
3371.22
3340.48
3310.36
3286.75
3259.21
3232.95
3208.09
3184.67
3162.73
3142.24
3123.2
3105.55
3089.24
3074.24
3060.48
3047.93
3036.55
3026.32
3017.23
3009.27
3002.47
2996.83
2992.38
2989.15
2987.19
2986.56
2987.41
2989.69
2993.39
2998.55
3005.18
3013.31
3022.94
3034.08
3046.72
3060.86
3076.48
3093.57
3112.1
3132.01
3153.2
3175.53
3198.66
3221.9
3597.45
3582.21
3563.35
3541.12
3515.79
3487.73
3457.33
3425
3391.13
3356.18
3320.55
3284.65
3249
3216.7
3182.57
3149.34
3117.43
3087.06
3058.36
3031.46
3006.43
2983.28
2962.05
2942.72
2925.24
2909.59
2895.72
2883.57
2873.1
2864.26
2857.01
2851.31
2847.13
2844.46
2843.31
2843.65
2845.5
2848.89
2853.84
2860.37
2868.54
2878.37
2889.92
2903.23
2918.33
2935.28
2954.1
2974.81
2997.4
3021.86
3048.13
3076.13
3105.76
3136.85
3169.27
3202.82
3234.75
3269.41
3304.19
3338.73
3372.66
3405.6
3437.15
3466.96
3494.67
3519.93
3542.42
3561.84
3577.93
3590.47
3599.25
3604.12
3605
3601.78
3594.51
3583.23
3568.1
3549.31
3527.1
3501.76
3473.66
3443.17
3410.7
3376.67
3341.52
3305.68
3269.58
3233.65
3198.25
3163.72
3130.39
3098.52
3068.36
3040.07
3013.81
2989.68
2967.72
2947.97
2930.39
2914.95
2901.56
2890.14
2880.58
2872.79
2866.66
2862.12
2859.07
2857.46
2857.24
2858.36
2860.79
2864.54
2869.59
2875.96
2883.66
2892.73
2903.18
2915.05
2928.37
2943.18
2959.49
2977.34
2996.74
3017.71
3040.24
3064.33
3089.94
3117.04
3145.54
3175.34
3206.29
3238.24
3270.87
3303.91
3337.06
3369.96
3402.22
3433.42
3463.15
3490.96
3516.44
3539.17
3558.77
3574.91
3587.3
3595.69
3599.92
3599.87
3595.54
3586.99
3574.31
3557.7
3537.41
3513.78
3487.17
3458.01
3426.75
3393.88
3359.88
3325.22
3290.36
3255.73
3221.71
3188.62
3156.75
3126.33
3097.51
3070.44
3045.17
3021.77
3000.24
2980.58
2962.77
2946.77
2932.54
2919.99
2909.09
2899.75
2891.92
2885.52
2880.51
2876.85
2874.48
2873.39
2873.54
2874.91
2877.48
2881.27
2886.28
2892.52
2900.02
2908.83
2918.97
2930.48
2943.42
2957.82
2973.74
2991.2
3010.24
3030.9
3053.18
3077.08
3102.54
3129.49
3157.81
3187.34
3217.89
3249.26
3281.18
3313.34
3345.43
3377.1
3407.97
3437.67
3465.78
3491.9
3515.64
3536.62
3554.5
3568.95
3579.7
3586.53
3589.27
3587.82
3582.19
3572.45
3558.73
3541.26
3520.34
3496.32
3469.61
3440.62
3409.83
3377.69
3344.67
3311.19
3277.69
3244.52
3212.03
3180.5
3150.17
3121.24
3093.88
3068.18
3044.24
3022.09
3001.76
2983.23
2966.5
2951.52
2938.27
2926.69
2916.73
2908.34
2901.45
2895.99
2891.87
2889.03
2887.38
2886.9
2887.52
2889.21
2891.95
2895.74
2900.57
2906.46
2913.42
2921.46
2930.61
2940.89
2952.35
2965.03
2978.99
2994.28
3010.93
3028.99
3048.51
3069.48
3091.91
3115.76
3141
3167.53
3195.22
3223.95
3253.69
3283.97
3314.5
3345.08
3375.36
3404.98
3433.53
3460.59
3485.76
3508.61
3528.73
3545.76
3559.37
3569.29
3575.33
3577.4
3574.64
3567.84
3557.13
3542.73
3524.9
3503.94
3480.24
3454.2
3426.27
3396.87
3366.42
3335.36
3304.07
3272.88
3242.09
3211.92
3188.19
3160.62
3134.36
3109.5
3086.09
3064.16
3043.69
3024.67
3007.04
2990.75
2975.76
2962.02
2949.48
2938.11
2927.89
2918.8
2910.85
2904.04
2898.4
2893.94
2890.7
2888.73
2888.08
2888.93
2891.19
2894.89
2900.04
2906.67
2914.79
2924.42
2935.55
2948.18
2962.32
2977.94
2995.03
3013.56
3033.48
3054.69
3077.04
3100.2
3123.47
3500.56
3485.22
3466.25
3443.88
3418.42
3390.21
3359.65
3327.17
3293.16
3258.07
3222.31
3186.27
3150.43
3118.27
3083.98
3050.67
3018.7
2988.3
2959.58
2932.68
2907.64
2884.51
2863.29
2843.98
2826.53
2810.9
2797.05
2784.92
2774.47
2765.65
2758.41
2752.72
2748.55
2745.89
2744.74
2745.07
2746.91
2750.3
2755.23
2761.75
2769.9
2779.71
2791.24
2804.53
2819.62
2836.55
2855.36
2876.06
2898.64
2923.1
2949.38
2977.39
3007.05
3038.18
3070.63
3104.2
3136.4
3171.1
3205.98
3240.62
3274.67
3307.74
3339.42
3369.36
3397.2
3422.58
3445.18
3464.71
3480.9
3493.51
3502.35
3507.27
3508.16
3504.92
3497.62
3486.29
3471.08
3452.18
3429.85
3404.39
3376.14
3345.5
3312.89
3278.71
3243.42
3207.45
3171.23
3135.18
3099.68
3065.07
3031.67
2999.75
2969.54
2941.22
2914.95
2890.81
2868.86
2849.13
2831.58
2816.17
2802.82
2791.43
2781.91
2774.15
2768.05
2763.53
2760.51
2758.92
2758.71
2759.83
2762.27
2766.01
2771.06
2777.42
2785.12
2794.17
2804.61
2816.46
2829.77
2844.56
2860.86
2878.7
2898.09
2919.04
2941.57
2965.65
2991.27
3018.38
3046.91
3076.74
3107.74
3139.74
3172.46
3205.6
3238.85
3271.87
3304.26
3335.61
3365.49
3393.45
3419.08
3441.95
3461.68
3477.93
3490.41
3498.86
3503.13
3503.09
3498.74
3490.14
3477.38
3460.66
3440.25
3416.47
3389.7
3360.38
3328.96
3295.93
3261.77
3226.97
3191.99
3157.24
3123.13
3089.97
3058.04
3027.58
2998.74
2971.66
2946.39
2923
2901.48
2881.84
2864.06
2848.08
2833.87
2821.35
2810.47
2801.16
2793.35
2786.97
2781.98
2778.33
2775.97
2774.89
2775.05
2776.42
2778.99
2782.78
2787.78
2794.01
2801.5
2810.29
2820.41
2831.91
2844.83
2859.21
2875.11
2892.55
2911.58
2932.22
2954.5
2978.4
3003.87
3030.85
3059.2
3088.78
3119.39
3150.83
3182.85
3215.1
3247.29
3279.08
3310.08
3339.91
3368.16
3394.42
3418.3
3439.41
3457.41
3471.96
3482.8
3489.69
3492.46
3491.01
3485.35
3475.55
3461.74
3444.16
3423.11
3398.94
3372.07
3342.93
3311.98
3279.69
3246.52
3212.92
3179.3
3146.03
3113.46
3081.86
3051.48
3022.52
2995.14
2969.43
2945.49
2923.35
2903.03
2884.52
2867.8
2852.85
2839.61
2828.05
2818.12
2809.76
2802.89
2797.45
2793.36
2790.54
2788.92
2788.44
2789.08
2790.77
2793.52
2797.31
2802.14
2808.02
2814.97
2823
2832.13
2842.4
2853.84
2866.51
2880.44
2895.71
2912.34
2930.39
2949.89
2970.85
2993.27
3017.13
3042.38
3068.92
3096.64
3125.4
3155.21
3185.56
3216.18
3246.86
3277.26
3307.01
3335.71
3362.92
3388.24
3411.24
3431.5
3448.65
3462.37
3472.36
3478.45
3480.52
3477.76
3470.92
3460.14
3445.65
3427.69
3406.59
3382.75
3356.56
3328.48
3298.93
3268.35
3237.17
3205.77
3174.51
3143.65
3113.45
3089.54
3061.95
3035.69
3010.83
2987.44
2965.52
2945.08
2926.07
2908.47
2892.21
2877.24
2863.51
2850.99
2839.63
2829.41
2820.33
2812.38
2805.57
2799.92
2795.45
2792.21
2790.22
2789.55
2790.39
2792.65
2796.33
2801.48
2808.09
2816.21
2825.83
2836.95
2849.58
2863.71
2879.33
2896.42
2914.96
2934.89
2956.12
2978.49
3001.68
3025
3403.82
3388.37
3369.27
3346.76
3321.13
3292.75
3262.03
3229.38
3195.2
3159.96
3124.05
3087.85
3051.79
3019.79
2985.32
2951.91
2919.89
2889.45
2860.71
2833.8
2808.77
2785.65
2764.45
2745.16
2727.73
2712.13
2698.31
2686.2
2675.78
2666.97
2659.75
2654.07
2649.91
2647.26
2646.1
2646.43
2648.27
2651.64
2656.57
2663.07
2671.2
2680.99
2692.5
2705.77
2720.83
2737.74
2756.53
2777.22
2799.79
2824.25
2850.54
2878.58
2908.26
2939.43
2971.93
3005.51
3038.02
3072.77
3107.74
3142.51
3176.7
3209.9
3241.74
3271.83
3299.81
3325.33
3348.06
3367.71
3384
3396.7
3405.6
3410.56
3411.48
3408.23
3400.89
3389.49
3374.19
3355.18
3332.71
3307.1
3278.69
3247.89
3215.11
3180.77
3145.32
3109.19
3072.84
3036.67
3001.06
2966.35
2932.87
2900.88
2870.62
2842.28
2815.98
2791.84
2769.91
2750.19
2732.68
2717.3
2703.99
2692.64
2683.16
2675.44
2669.38
2664.89
2661.89
2660.32
2660.12
2661.26
2663.7
2667.44
2672.48
2678.83
2686.52
2695.56
2705.98
2717.82
2731.11
2745.88
2762.17
2779.99
2799.37
2820.31
2842.82
2866.9
2892.53
2919.65
2948.2
2978.08
3009.13
3041.2
3074
3107.25
3140.63
3173.79
3206.33
3237.84
3267.88
3296.02
3321.81
3344.84
3364.72
3381.1
3393.67
3402.2
3406.51
3406.48
3402.11
3393.44
3380.59
3363.76
3343.2
3319.26
3292.32
3262.82
3231.21
3198
3163.66
3128.7
3093.57
3058.71
3024.49
2991.24
2959.26
2928.75
2899.89
2872.79
2847.53
2824.14
2802.64
2783.02
2765.26
2749.32
2735.13
2722.65
2711.8
2702.51
2694.72
2688.37
2683.39
2679.76
2677.42
2676.35
2676.51
2677.88
2680.46
2684.24
2689.23
2695.45
2702.93
2711.7
2721.8
2733.28
2746.17
2760.54
2776.41
2793.83
2812.84
2833.47
2855.74
2879.64
2905.13
2932.13
2960.53
2990.16
3020.84
3052.35
3084.48
3116.83
3149.15
3181.07
3212.22
3242.2
3270.6
3297.02
3321.05
3342.31
3360.44
3375.12
3386.05
3393
3395.81
3394.36
3388.67
3378.8
3364.89
3347.19
3325.98
3301.65
3274.61
3245.28
3214.15
3181.69
3148.36
3114.62
3080.87
3047.49
3014.83
2983.16
2952.72
2923.73
2896.31
2870.6
2846.65
2824.52
2804.21
2785.73
2769.03
2754.1
2740.89
2729.35
2719.45
2711.11
2704.28
2698.87
2694.81
2692.01
2690.41
2689.95
2690.59
2692.3
2695.04
2698.83
2703.66
2709.54
2716.47
2724.49
2733.61
2743.87
2755.29
2767.93
2781.84
2797.09
2813.69
2831.72
2851.2
2872.15
2894.56
2918.43
2943.68
2970.24
2997.99
3026.79
3056.68
3087.1
3117.82
3148.62
3179.16
3209.06
3237.91
3265.3
3290.79
3313.96
3334.38
3351.67
3365.5
3375.58
3381.71
3383.8
3381.04
3374.14
3363.29
3348.68
3330.6
3309.34
3285.33
3258.98
3230.72
3201.02
3170.28
3138.97
3107.46
3076.1
3045.18
3014.95
2990.79
2963.2
2936.94
2912.1
2888.71
2866.82
2846.39
2827.42
2809.84
2793.6
2778.66
2764.96
2752.45
2741.1
2730.89
2721.81
2713.86
2707.05
2701.39
2696.92
2693.66
2691.65
2690.96
2691.79
2694.05
2697.72
2702.85
2709.46
2717.56
2727.18
2738.29
2750.92
2765.05
2780.66
2797.75
2816.29
2836.24
2857.49
2879.89
2903.11
2926.48
3307.24
3291.67
3272.42
3249.74
3223.93
3195.37
3164.46
3131.61
3097.26
3061.85
3025.77
2989.4
2953.1
2921.27
2886.59
2853.08
2820.99
2790.51
2761.76
2734.84
2709.82
2686.71
2665.53
2646.26
2628.86
2613.29
2599.49
2587.42
2577.01
2568.23
2561.03
2555.36
2551.22
2548.56
2547.41
2547.73
2549.56
2552.93
2557.84
2564.32
2572.43
2582.2
2593.68
2606.92
2621.96
2638.85
2657.63
2678.29
2700.86
2725.32
2751.62
2779.68
2809.39
2840.61
2873.16
2906.77
2939.59
2974.4
3009.49
3044.4
3078.73
3112.1
3144.1
3174.35
3202.49
3228.17
3251.04
3270.82
3287.23
3300.03
3309.01
3314.02
3314.95
3311.7
3304.31
3292.84
3277.44
3258.3
3235.68
3209.9
3181.32
3150.33
3117.36
3082.84
3047.21
3010.92
2974.41
2938.1
2902.38
2867.56
2833.99
2801.93
2771.62
2743.24
2716.92
2692.78
2670.86
2651.16
2633.68
2618.35
2605.08
2593.78
2584.35
2576.67
2570.65
2566.19
2563.22
2561.67
2561.48
2562.63
2565.07
2568.81
2573.85
2580.19
2587.86
2596.89
2607.29
2619.11
2632.39
2647.14
2663.41
2681.21
2700.57
2721.5
2744.01
2768.09
2793.71
2820.85
2849.43
2879.34
2910.45