/*--------------------------------*- C++ -*----------------------------------*\
| =========                 |                                                 |
| \\      /  F ield         | OpenFOAM: The Open Source CFD Toolbox           |
|  \\    /   O peration     | Version:  3.0.1                                 |
|   \\  /    A nd           | Web:      www.OpenFOAM.org                      |
|    \\/     M anipulation  |                                                 |
\*---------------------------------------------------------------------------*/
FoamFile
{
    version     2.0;
    format      ascii;
    class       volScalarField;
    location    "55.2";
    object      p;
}
// * * * * * * * * * * * * * * * * * * * * * * * * * * * * * * * * * * * * * //

dimensions      [1 -1 -2 0 0 0 0];

internalField   nonuniform List<scalar> 
21420
(
3719.33
3738.52
3756.03
3781.66
3809.77
3839.35
3870.13
3901.84
3934.24
3967.1
4000.07
4032.81
4065.02
4096.32
4126.34
4154.71
4181.02
4204.98
4226.24
4244.48
4259.44
4270.89
4278.63
4282.5
4282.31
4277.81
4269.34
4257.13
4241.25
4221.97
4199.55
4174.34
4146.67
4116.94
4085.55
4052.87
4019.37
3985.42
3951.4
3917.67
3884.54
3852.27
3821.11
3791.23
3762.78
3735.9
3710.67
3687.23
3666.21
3646.27
3627.92
3611.22
3596.18
3582.76
3570.91
3560.59
3551.72
3544.28
3538.2
3533.45
3530
3527.8
3526.84
3527.08
3528.49
3531.06
3535.29
3540.84
3547.7
3555.88
3565.39
3576.25
3588.48
3602.11
3617.16
3633.65
3651.62
3671.06
3692
3714.51
3738.71
3764.46
3781.7
3806.93
3833.41
3860.98
3889.48
3918.74
3948.54
3978.6
4008.6
4038.16
4066.88
4094.35
4120.14
4143.9
4165.25
4183.86
4199.46
4211.77
4220.59
4225.75
4227.13
4224.69
4218.34
4208.28
4194.53
4177.24
4156.64
4132.99
4106.61
4077.84
4047.05
4014.65
3981.05
3946.66
3911.91
3877.19
3842.88
3809.33
3776.86
3745.75
3716.22
3688.44
3662.54
3638.62
3616.74
3596.83
3578.91
3562.94
3548.86
3536.6
3526.07
3517.2
3509.89
3504.06
3499.62
3496.51
3494.66
3493.98
3494.45
3496.02
3498.63
3502.26
3506.88
3512.48
3519.04
3526.56
3535.04
3544.5
3554.96
3566.45
3579.02
3592.71
3607.57
3623.66
3641.03
3659.76
3679.85
3701.28
3724.04
3748.11
3773.41
3799.82
3827.19
3855.34
3884.03
3912.99
3941.93
3970.52
3998.4
4025.2
4050.55
4074.07
4095.36
4114.07
4129.83
4142.32
4151.27
4156.46
4157.71
4154.84
4148
4137.23
4122.57
4104.27
4082.64
4058.02
4030.82
4001.47
3970.44
3938.18
3905.17
3871.84
3838.63
3805.91
3774.02
3743.27
3713.9
3686.09
3660.01
3635.73
3613.3
3592.74
3574.01
3557.04
3541.76
3528.09
3515.94
3505.23
3495.87
3487.76
3480.82
3474.97
3470.15
3466.3
3463.36
3461.31
3460.12
3459.82
3460.37
3461.8
3464.14
3467.42
3471.67
3476.94
3483.26
3490.69
3499.26
3509.01
3519.99
3532.23
3545.76
3560.62
3576.97
3594.58
3613.59
3633.99
3655.78
3678.92
3703.33
3728.93
3755.59
3783.15
3811.43
3840.19
3869.16
3898.05
3926.5
3954.16
3980.62
4005.47
4028.3
4048.72
4066.34
4080.81
4091.84
4099.19
4102.56
4102.08
4097.59
4089.16
4076.92
4061.09
4041.95
4019.82
3995.08
3968.16
3939.52
3909.62
3878.99
3848.1
3817.45
3787.47
3758.55
3731
3705.06
3680.86
3658.52
3638.06
3619.37
3602.23
3588.53
3582.03
3574.53
3567.69
3561.81
3556.92
3552.97
3549.91
3547.68
3546.24
3545.56
3545.62
3546.39
3547.88
3550.15
3553.18
3557.19
3562.03
3567.65
3574.01
3581.12
3589.01
3597.75
3607.42
3618.14
3630.05
3643.31
3658.28
3675.4
3694.06
3714.42
3736.63
3760.8
3786.87
3814.76
3844.31
3875.31
3907.53
3940.63
3974.25
4008.05
4041.61
4074.51
4106.29
4136.52
4164.81
4190.78
4214.04
4234.29
4251.27
4264.7
4274.42
4280.29
4282.14
4280.16
4274.27
4264.52
4251.18
4234.5
4214.76
4192.27
4167.4
4140.5
4111.92
4082.07
4051.3
4019.94
3988.34
3956.79
3925.58
3894.94
3865.12
3836.39
3809
3783.33
3621.15
3640.39
3657.83
3683.49
3711.6
3741.19
3771.98
3803.69
3836.1
3868.97
3901.95
3934.71
3966.93
3998.25
4028.28
4056.66
4083
4106.97
4128.24
4146.5
4161.47
4172.93
4180.68
4184.56
4184.38
4179.86
4171.38
4159.17
4143.28
4123.98
4101.55
4076.32
4048.64
4018.89
3987.47
3954.79
3921.26
3887.3
3853.27
3819.52
3786.38
3754.11
3722.94
3693.06
3664.61
3637.72
3612.49
3589.05
3568.04
3548.1
3529.74
3513.05
3498.01
3484.6
3472.75
3462.43
3453.57
3446.12
3440.05
3435.3
3431.85
3429.65
3428.69
3428.93
3430.34
3432.91
3437.14
3442.7
3449.56
3457.73
3467.24
3478.1
3490.33
3503.96
3519.01
3535.51
3553.47
3572.91
3593.85
3616.36
3640.56
3666.29
3683.57
3708.81
3735.29
3762.85
3791.35
3820.62
3850.43
3880.5
3910.51
3940.08
3968.82
3996.29
4022.11
4045.88
4067.24
4085.87
4101.47
4113.8
4122.63
4127.79
4129.18
4126.74
4120.39
4110.32
4096.57
4079.27
4058.65
4034.99
4008.59
3979.8
3949
3916.58
3882.96
3848.56
3813.78
3779.04
3744.72
3711.16
3678.69
3647.57
3618.03
3590.25
3564.35
3540.42
3518.55
3498.64
3480.73
3464.76
3450.68
3438.43
3427.9
3419.03
3411.73
3405.9
3401.47
3398.36
3396.5
3395.83
3396.3
3397.87
3400.48
3404.11
3408.74
3414.34
3420.9
3428.42
3436.9
3446.36
3456.82
3468.31
3480.87
3494.55
3509.41
3525.5
3542.87
3561.59
3581.68
3603.11
3625.87
3649.95
3675.24
3701.66
3729.04
3757.19
3785.89
3814.87
3843.82
3872.42
3900.31
3927.13
3952.5
3976.04
3997.35
4016.07
4031.84
4044.35
4053.31
4058.51
4059.78
4056.89
4050.05
4039.28
4024.6
4006.29
3984.64
3960.01
3932.78
3903.41
3872.36
3840.08
3807.05
3773.71
3740.48
3707.75
3675.85
3645.09
3615.71
3587.91
3561.82
3537.54
3515.11
3494.55
3475.83
3458.86
3443.59
3429.92
3417.78
3407.07
3397.71
3389.61
3382.67
3376.83
3372.01
3368.16
3365.22
3363.17
3361.98
3361.68
3362.23
3363.66
3366
3369.28
3373.53
3378.79
3385.11
3392.54
3401.1
3410.86
3421.83
3434.07
3447.6
3462.45
3478.8
3496.41
3515.42
3535.82
3557.61
3580.75
3605.16
3630.76
3657.43
3685
3713.28
3742.05
3771.04
3799.94
3828.41
3856.08
3882.56
3907.43
3930.28
3950.72
3968.35
3982.84
3993.88
4001.23
4004.62
4004.13
3999.64
3991.21
3978.95
3963.11
3943.95
3921.8
3897.04
3870.1
3841.44
3811.52
3780.87
3749.97
3719.3
3689.32
3660.39
3632.84
3606.89
3582.69
3560.35
3539.89
3521.18
3504.03
3490.49
3483.9
3476.4
3469.56
3463.68
3458.79
3454.84
3451.78
3449.56
3448.12
3447.44
3447.49
3448.26
3449.75
3452.02
3455.05
3459.06
3463.91
3469.52
3475.88
3482.99
3490.88
3499.62
3509.28
3520
3531.89
3545.14
3560.1
3577.23
3595.89
3616.23
3638.45
3662.61
3688.68
3716.57
3746.13
3777.14
3809.37
3842.48
3876.12
3909.94
3943.51
3976.42
4008.23
4038.47
4066.79
4092.77
4116.05
4136.32
4153.3
4166.74
4176.47
4182.34
4184.21
4182.21
4176.31
4166.55
4153.21
4136.51
4116.75
4094.25
4069.36
4042.45
4013.85
3983.98
3953.2
3921.83
3890.21
3858.66
3827.44
3796.79
3766.96
3738.23
3710.84
3685.17
3522.9
3542.21
3559.54
3585.24
3613.37
3642.97
3673.77
3705.49
3737.92
3770.81
3803.82
3836.6
3868.86
3900.2
3930.27
3958.68
3985.05
4009.05
4030.36
4048.64
4063.64
4075.12
4082.88
4086.77
4086.64
4082.07
4073.58
4061.34
4045.43
4026.11
4003.65
3978.39
3950.67
3920.89
3889.43
3856.71
3823.15
3789.16
3755.1
3721.33
3688.17
3655.89
3624.7
3594.81
3566.35
3539.46
3514.22
3490.77
3469.81
3449.85
3431.5
3414.81
3399.78
3386.37
3374.53
3364.21
3355.35
3347.91
3341.84
3337.1
3333.65
3331.45
3330.49
3330.74
3332.15
3334.72
3338.95
3344.5
3351.36
3359.54
3369.04
3379.9
3392.13
3405.76
3420.81
3437.31
3455.27
3474.71
3495.66
3518.16
3542.34
3568.04
3585.44
3610.67
3637.14
3664.7
3693.21
3722.49
3752.31
3782.39
3812.42
3842.02
3870.78
3898.29
3924.13
3947.93
3969.32
3987.98
4003.61
4015.96
4024.8
4029.98
4031.38
4028.94
4022.6
4012.5
3998.74
3981.42
3960.78
3937.09
3910.66
3881.83
3850.99
3818.54
3784.88
3750.44
3715.63
3680.86
3646.51
3612.93
3580.44
3549.3
3519.75
3491.97
3466.07
3442.14
3420.27
3400.37
3382.46
3366.5
3352.43
3340.18
3329.66
3320.8
3313.5
3307.68
3303.26
3300.16
3298.31
3297.64
3298.12
3299.69
3302.3
3305.93
3310.56
3316.16
3322.72
3330.24
3338.72
3348.17
3358.63
3370.11
3382.67
3396.35
3411.2
3427.29
3444.65
3463.36
3483.45
3504.87
3527.64
3551.71
3577.01
3603.44
3630.83
3659
3687.72
3716.71
3745.69
3774.32
3802.24
3829.1
3854.5
3878.07
3899.42
3918.17
3933.98
3946.52
3955.5
3960.71
3961.99
3959.12
3952.26
3941.47
3926.77
3908.44
3886.75
3862.08
3834.81
3805.4
3774.3
3741.99
3708.92
3675.55
3642.29
3609.53
3577.61
3546.84
3517.44
3489.63
3463.54
3439.26
3416.84
3396.28
3377.57
3360.61
3345.34
3331.69
3319.55
3308.86
3299.51
3291.41
3284.48
3278.65
3273.83
3269.98
3267.05
3265
3263.82
3263.51
3264.06
3265.49
3267.82
3271.1
3275.34
3280.6
3286.92
3294.34
3302.9
3312.65
3323.62
3335.85
3349.38
3364.23
3380.58
3398.18
3417.18
3437.58
3459.37
3482.51
3506.93
3532.54
3559.21
3586.8
3615.1
3643.89
3672.9
3701.82
3730.33
3758.03
3784.55
3809.46
3832.35
3852.82
3870.49
3885
3896.06
3903.43
3906.85
3906.33
3901.84
3893.39
3881.11
3865.24
3846.05
3823.86
3799.06
3772.08
3743.38
3713.42
3682.73
3651.8
3621.11
3591.1
3562.16
3534.6
3508.65
3484.45
3462.11
3441.65
3422.92
3405.75
3392.51
3385.74
3378.24
3371.39
3365.52
3360.63
3356.69
3353.63
3351.41
3349.97
3349.29
3349.34
3350.11
3351.59
3353.85
3356.89
3360.91
3365.76
3371.37
3377.73
3384.83
3392.72
3401.44
3411.1
3421.8
3433.68
3446.91
3461.84
3478.99
3497.63
3517.97
3540.17
3564.34
3590.41
3618.31
3647.88
3678.91
3711.15
3744.29
3777.95
3811.8
3845.41
3878.36
3910.2
3940.48
3968.83
3994.85
4018.16
4038.46
4055.47
4068.93
4078.67
4084.55
4086.44
4084.4
4078.49
4068.72
4055.36
4038.63
4018.84
3996.31
3971.39
3944.44
3915.81
3885.91
3855.1
3823.7
3792.07
3760.49
3729.25
3698.59
3668.75
3640.01
3612.61
3586.93
3424.58
3443.99
3461.15
3486.91
3515.08
3544.69
3575.5
3607.25
3639.7
3672.63
3705.67
3738.49
3770.79
3802.18
3832.3
3860.76
3887.17
3911.22
3932.57
3950.9
3965.93
3977.44
3985.23
3989.14
3989.05
3984.43
3975.92
3963.66
3947.72
3928.36
3905.85
3880.54
3852.76
3822.93
3791.42
3758.64
3725.04
3691
3656.9
3623.1
3589.91
3557.6
3526.4
3496.49
3468.03
3441.13
3415.88
3392.41
3371.51
3351.54
3333.18
3316.5
3301.47
3288.07
3276.24
3265.93
3257.08
3249.65
3243.58
3238.84
3235.4
3233.21
3232.25
3232.49
3233.9
3236.48
3240.71
3246.26
3253.12
3261.29
3270.79
3281.65
3293.88
3307.51
3322.56
3339.06
3357.02
3376.47
3397.42
3419.92
3444.07
3469.7
3487.3
3512.51
3538.96
3566.53
3595.04
3624.33
3654.17
3684.29
3714.35
3743.98
3772.78
3800.33
3826.22
3850.06
3871.5
3890.2
3905.87
3918.25
3927.12
3932.32
3933.72
3931.28
3924.96
3914.83
3901.04
3883.7
3863.02
3839.29
3812.81
3783.93
3753.04
3720.53
3686.81
3652.32
3617.46
3582.64
3548.25
3514.63
3482.11
3450.96
3421.39
3393.59
3367.69
3343.77
3321.9
3302
3284.1
3268.15
3254.1
3241.86
3231.36
3222.51
3215.22
3209.41
3205
3201.9
3200.06
3199.4
3199.88
3201.46
3204.08
3207.71
3212.34
3217.94
3224.5
3232.02
3240.49
3249.95
3260.4
3271.87
3284.42
3298.09
3312.94
3329.01
3346.37
3365.07
3385.15
3406.57
3429.34
3453.41
3478.72
3505.16
3532.57
3560.76
3589.51
3618.54
3647.55
3676.22
3704.19
3731.1
3756.55
3780.18
3801.58
3820.38
3836.24
3848.82
3857.83
3863.07
3864.36
3861.51
3854.62
3843.81
3829.08
3810.7
3788.97
3764.23
3736.91
3707.44
3676.28
3643.9
3610.78
3577.35
3544.05
3511.25
3479.31
3448.5
3419.1
3391.27
3365.18
3340.9
3318.48
3297.93
3279.23
3262.29
3247.03
3233.39
3221.27
3210.59
3201.25
3193.16
3186.24
3180.42
3175.61
3171.77
3168.84
3166.79
3165.61
3165.3
3165.85
3167.28
3169.61
3172.88
3177.12
3182.37
3188.68
3196.1
3204.65
3214.39
3225.36
3237.58
3251.1
3265.94
3282.29
3299.88
3318.88
3339.28
3361.06
3384.2
3408.63
3434.25
3460.94
3488.54
3516.87
3545.69
3574.73
3603.7
3632.25
3660.01
3686.58
3711.55
3734.49
3755.02
3772.74
3787.29
3798.39
3805.78
3809.24
3808.68
3804.19
3795.72
3783.41
3767.49
3748.24
3726
3701.14
3674.1
3645.34
3615.33
3584.58
3553.6
3522.87
3492.84
3463.87
3436.3
3410.35
3386.15
3363.81
3343.34
3324.58
3307.37
3294.58
3287.56
3280.04
3273.19
3267.33
3262.45
3258.51
3255.46
3253.23
3251.79
3251.11
3251.16
3251.93
3253.41
3255.65
3258.7
3262.73
3267.58
3273.19
3279.55
3286.65
3294.52
3303.23
3312.87
3323.55
3335.41
3348.61
3363.5
3380.68
3399.3
3419.62
3441.81
3465.98
3492.05
3519.96
3549.55
3580.6
3612.88
3646.05
3679.76
3713.65
3747.31
3780.31
3812.21
3842.55
3870.95
3897.03
3920.38
3940.72
3957.76
3971.26
3981.02
3986.91
3988.82
3986.74
3980.82
3971.03
3957.63
3940.86
3921.03
3898.45
3873.48
3846.48
3817.8
3787.85
3757
3725.57
3693.9
3662.29
3631.03
3600.35
3570.49
3541.73
3514.32
3488.63
3326.17
3345.75
3362.67
3388.52
3416.72
3446.36
3477.18
3508.96
3541.45
3574.41
3607.51
3640.38
3672.74
3704.18
3734.37
3762.9
3789.37
3813.49
3834.9
3853.28
3868.36
3879.91
3887.72
3891.66
3891.61
3886.96
3878.42
3866.11
3850.13
3830.72
3808.15
3782.77
3754.92
3725.02
3693.44
3660.59
3626.92
3592.82
3558.67
3524.82
3491.59
3459.24
3428.02
3398.09
3369.62
3342.72
3317.46
3293.95
3273.14
3253.15
3234.79
3218.12
3203.1
3189.71
3177.89
3167.59
3158.75
3151.33
3145.27
3140.54
3137.09
3134.91
3133.96
3134.2
3135.62
3138.19
3142.43
3147.97
3154.83
3163
3172.5
3183.35
3195.58
3209.21
3224.26
3240.76
3258.73
3278.18
3299.13
3321.62
3345.74
3371.26
3389.17
3414.33
3440.77
3468.33
3496.86
3526.16
3556.03
3586.17
3616.28
3645.96
3674.81
3702.42
3728.37
3752.28
3773.77
3792.53
3808.25
3820.67
3829.58
3834.8
3836.22
3833.78
3827.46
3817.3
3803.49
3786.1
3765.38
3741.59
3715.05
3686.1
3655.13
3622.54
3588.75
3554.19
3519.26
3484.38
3449.94
3416.27
3383.71
3352.53
3322.94
3295.13
3269.23
3245.3
3223.44
3203.55
3185.66
3169.73
3155.69
3143.47
3132.98
3124.15
3116.88
3111.08
3106.68
3103.6
3101.77
3101.12
3101.61
3103.19
3105.81
3109.45
3114.08
3119.68
3126.24
3133.76
3142.23
3151.68
3162.12
3173.59
3186.13
3199.79
3214.62
3230.68
3248.03
3266.72
3286.79
3308.21
3330.97
3355.05
3380.37
3406.82
3434.26
3462.48
3491.26
3520.34
3549.4
3578.13
3606.16
3633.13
3658.66
3682.35
3703.82
3722.69
3738.61
3751.25
3760.31
3765.58
3766.88
3764.06
3757.14
3746.3
3731.53
3713.09
3691.29
3666.48
3639.07
3609.51
3578.27
3545.82
3512.62
3479.13
3445.77
3412.92
3380.93
3350.1
3320.66
3292.83
3266.72
3242.45
3220.04
3199.5
3180.82
3163.89
3148.65
3135.02
3122.92
3112.26
3102.94
3094.87
3087.96
3082.15
3077.36
3073.52
3070.6
3068.55
3067.37
3067.07
3067.61
3069.03
3071.36
3074.62
3078.85
3084.1
3090.4
3097.81
3106.35
3116.09
3127.04
3139.26
3152.76
3167.6
3183.93
3201.52
3220.51
3240.9
3262.69
3285.83
3310.26
3335.9
3362.61
3390.24
3418.59
3447.46
3476.55
3505.57
3534.19
3562.02
3588.66
3613.7
3636.72
3657.32
3675.1
3689.72
3700.86
3708.28
3711.77
3711.21
3706.7
3698.19
3685.84
3669.86
3650.54
3628.22
3603.29
3576.16
3547.32
3517.23
3486.41
3455.37
3424.59
3394.51
3365.52
3337.93
3311.97
3287.77
3265.43
3244.96
3226.16
3208.89
3196.71
3189.35
3181.81
3174.96
3169.11
3164.24
3160.31
3157.26
3155.03
3153.59
3152.91
3152.96
3153.72
3155.19
3157.41
3160.49
3164.53
3169.38
3174.99
3181.34
3188.43
3196.29
3204.99
3214.61
3225.26
3237.08
3250.25
3265.08
3282.3
3300.89
3321.19
3343.37
3367.53
3393.6
3421.53
3451.14
3482.23
3514.54
3547.77
3581.53
3615.49
3649.21
3682.29
3714.26
3744.67
3773.15
3799.29
3822.71
3843.1
3860.2
3873.73
3883.52
3889.42
3891.35
3889.24
3883.3
3873.48
3860.03
3843.21
3823.31
3800.67
3775.63
3748.56
3719.82
3689.81
3658.91
3627.42
3595.7
3564.06
3532.76
3502.05
3472.16
3443.38
3415.96
3390.26
3227.67
3247.46
3264.09
3290.05
3318.3
3347.96
3378.81
3410.61
3443.15
3476.17
3509.32
3542.27
3574.69
3606.22
3636.48
3665.09
3691.65
3715.84
3737.33
3755.78
3770.92
3782.52
3790.37
3794.34
3794.32
3789.64
3781.07
3768.71
3752.68
3733.19
3710.55
3685.08
3657.15
3627.15
3595.48
3562.55
3528.79
3494.62
3460.4
3426.49
3393.21
3360.83
3329.58
3299.63
3271.14
3244.22
3218.95
3195.41
3174.71
3154.68
3136.33
3119.66
3104.66
3091.28
3079.48
3069.19
3060.36
3052.95
3046.9
3042.18
3038.74
3036.56
3035.61
3035.87
3037.28
3039.86
3044.1
3049.64
3056.49
3064.66
3074.15
3085.01
3097.23
3110.86
3125.91
3142.41
3160.38
3179.85
3200.8
3223.29
3247.35
3272.69
3291.08
3316.13
3342.54
3370.11
3398.64
3427.97
3457.87
3488.06
3518.21
3547.95
3576.88
3604.56
3630.58
3654.56
3676.14
3694.96
3710.75
3723.22
3732.17
3737.43
3738.87
3736.43
3730.1
3719.93
3706.07
3688.64
3667.85
3643.99
3617.37
3588.33
3557.27
3524.59
3490.71
3456.05
3421.04
3386.08
3351.57
3317.85
3285.24
3254.02
3224.41
3196.58
3170.67
3146.75
3124.88
3105.01
3087.14
3071.23
3057.21
3045.01
3034.54
3025.73
3018.48
3012.7
3008.32
3005.25
3003.43
3002.79
3003.29
3004.88
3007.51
3011.15
3015.78
3021.39
3027.95
3035.46
3043.93
3053.37
3063.8
3075.26
3087.79
3101.43
3116.25
3132.29
3149.62
3168.3
3188.37
3209.77
3232.54
3256.62
3281.95
3308.43
3335.89
3364.15
3392.98
3422.11
3451.24
3480.04
3508.15
3535.2
3560.81
3584.59
3606.15
3625.11
3641.11
3653.82
3662.94
3668.24
3669.56
3666.75
3659.83
3648.94
3634.11
3615.6
3593.71
3568.81
3541.3
3511.64
3480.29
3447.74
3414.45
3380.88
3347.44
3314.53
3282.49
3251.61
3222.15
3194.29
3168.18
3143.91
3121.5
3100.98
3082.33
3065.41
3050.2
3036.59
3024.52
3013.87
3004.57
2996.52
2989.64
2983.84
2979.06
2975.23
2972.32
2970.28
2969.11
2968.79
2969.33
2970.75
2973.07
2976.32
2980.54
2985.78
2992.07
2999.47
3008
3017.73
3028.67
3040.88
3054.37
3069.19
3085.52
3103.09
3122.07
3142.46
3164.24
3187.39
3211.83
3237.48
3264.22
3291.88
3320.28
3349.19
3378.35
3407.44
3436.13
3464.05
3490.78
3515.92
3539.03
3559.72
3577.59
3592.27
3603.47
3610.93
3614.45
3613.9
3609.36
3600.82
3588.4
3572.35
3552.94
3530.53
3505.49
3478.27
3449.32
3419.13
3388.22
3357.1
3326.26
3296.13
3267.1
3239.5
3213.53
3189.33
3166.99
3146.51
3127.67
3110.31
3098.87
3091.13
3083.55
3076.7
3070.85
3066
3062.07
3059.03
3056.81
3055.37
3054.69
3054.73
3055.49
3056.94
3059.14
3062.24
3066.29
3071.15
3076.76
3083.11
3090.19
3098.03
3106.71
3116.3
3126.92
3138.7
3151.82
3166.59
3183.85
3202.4
3222.67
3244.83
3268.99
3295.07
3323.02
3352.66
3383.78
3416.15
3449.43
3483.26
3517.3
3551.11
3584.28
3616.34
3646.85
3675.41
3701.64
3725.14
3745.61
3762.77
3776.35
3786.17
3792.09
3794.03
3791.9
3785.92
3776.06
3762.55
3745.66
3725.69
3702.96
3677.84
3650.69
3621.87
3591.78
3560.81
3529.25
3497.48
3465.79
3434.45
3403.7
3373.79
3344.98
3317.54
3291.82
3129.09
3149.14
3165.41
3191.52
3219.82
3249.5
3280.38
3312.22
3344.81
3377.9
3411.12
3444.15
3476.66
3508.27
3538.64
3567.35
3594
3618.29
3639.87
3658.4
3673.61
3685.28
3693.17
3697.17
3697.19
3692.48
3683.87
3671.45
3655.35
3635.79
3613.04
3587.48
3559.44
3529.33
3497.55
3464.51
3430.66
3396.4
3362.09
3328.12
3294.78
3262.35
3231.06
3201.09
3172.58
3145.65
3120.37
3096.77
3076.21
3056.14
3037.79
3021.14
3006.15
2992.79
2981
2970.73
2961.92
2954.52
2948.48
2943.77
2940.34
2938.17
2937.23
2937.48
2938.9
2941.48
2945.72
2951.26
2958.11
2966.27
2975.76
2986.61
2998.83
3012.46
3027.51
3044.02
3061.99
3081.46
3102.42
3124.9
3148.92
3174.03
3192.98
3217.9
3244.29
3271.86
3300.41
3329.77
3359.7
3389.94
3420.16
3449.97
3478.97
3506.74
3532.86
3556.93
3578.6
3597.5
3613.37
3625.91
3634.91
3640.2
3641.66
3639.23
3632.9
3622.7
3608.8
3591.3
3570.44
3546.5
3519.78
3490.64
3459.46
3426.67
3392.67
3357.9
3322.79
3287.74
3253.15
3219.36
3186.69
3155.43
3125.78
3097.94
3072.02
3048.1
3026.24
3006.39
2988.54
2972.64
2958.65
2946.47
2936.03
2927.24
2920.01
2914.26
2909.9
2906.85
2905.05
2904.42
2904.93
2906.53
2909.16
2912.81
2917.45
2923.05
2929.61
2937.12
2945.59
2955.02
2965.44
2976.89
2989.4
3003.03
3017.82
3033.85
3051.16
3069.82
3089.88
3111.27
3134.04
3158.13
3183.47
3209.97
3237.47
3265.77
3294.66
3323.86
3353.06
3381.95
3410.15
3437.3
3463.02
3486.9
3508.57
3527.64
3543.73
3556.52
3565.71
3571.06
3572.41
3569.61
3562.68
3551.73
3536.83
3518.24
3496.25
3471.22
3443.59
3413.81
3382.34
3349.67
3316.27
3282.59
3249.06
3216.08
3183.97
3153.05
3123.55
3095.67
3069.55
3045.28
3022.89
3002.37
2983.75
2966.86
2951.67
2938.1
2926.05
2915.43
2906.16
2898.13
2891.27
2885.49
2880.73
2876.91
2874.01
2871.98
2870.8
2870.49
2871.02
2872.43
2874.74
2877.98
2882.2
2887.42
2893.7
2901.08
2909.6
2919.31
2930.25
2942.44
2955.92
2970.72
2987.03
3004.59
3023.56
3043.95
3065.73
3088.88
3113.34
3139
3165.77
3193.47
3221.92
3250.89
3280.12
3309.3
3338.09
3366.11
3392.95
3418.2
3441.43
3462.23
3480.19
3494.97
3506.23
3513.74
3517.29
3516.75
3512.18
3503.58
3491.1
3474.96
3455.44
3432.91
3407.76
3380.41
3351.34
3321.03
3290.01
3258.8
3227.88
3197.69
3168.63
3141
3115.02
3090.82
3068.48
3047.98
3029.1
3011.65
3001.05
2992.9
2985.25
2978.41
2972.57
2967.73
2963.82
2960.78
2958.56
2957.12
2956.44
2956.47
2957.23
2958.67
2960.82
2963.97
2968.04
2972.9
2978.51
2984.85
2991.91
2999.74
3008.39
3017.94
3028.53
3040.26
3053.32
3068.02
3085.32
3103.82
3124.06
3146.21
3170.36
3196.45
3224.42
3254.09
3285.26
3317.7
3351.05
3384.97
3419.1
3453.01
3486.28
3518.46
3549.08
3577.75
3604.09
3627.68
3648.24
3665.47
3679.11
3688.97
3694.91
3696.86
3694.72
3688.69
3678.78
3665.2
3648.23
3628.17
3605.34
3580.12
3552.87
3523.94
3493.77
3462.71
3431.08
3399.24
3367.49
3336.1
3305.31
3275.35
3246.52
3219.05
3193.32
3030.41
3050.78
3066.64
3092.92
3121.28
3150.98
3181.89
3213.78
3246.44
3279.6
3312.91
3346.02
3378.63
3410.36
3440.83
3469.66
3496.43
3520.83
3542.51
3561.14
3576.44
3588.17
3596.12
3600.15
3600.22
3595.46
3586.81
3574.33
3558.15
3538.49
3515.64
3489.96
3461.8
3431.56
3399.65
3366.49
3332.52
3298.16
3263.76
3229.69
3196.29
3163.81
3132.47
3102.47
3073.95
3047.01
3021.71
2998.06
2977.64
2957.52
2939.18
2922.55
2907.58
2894.23
2882.46
2872.21
2863.42
2856.03
2850.01
2845.31
2841.89
2839.73
2838.79
2839.05
2840.48
2843.06
2847.29
2852.83
2859.68
2867.83
2877.32
2888.16
2900.38
2914
2929.06
2945.57
2963.55
2983.03
3004
3026.48
3050.44
3075.31
3094.84
3119.64
3146.01
3173.58
3202.15
3231.54
3261.52
3291.82
3322.11
3352
3381.1
3408.97
3435.19
3459.38
3481.15
3500.15
3516.1
3528.73
3537.79
3543.12
3544.61
3542.19
3535.84
3525.62
3511.66
3494.09
3473.15
3449.1
3422.27
3393.01
3361.7
3328.77
3294.64
3259.75
3224.52
3189.36
3154.67
3120.8
3088.07
3056.75
3027.07
2999.21
2973.28
2949.37
2927.51
2907.68
2889.85
2873.98
2860.01
2847.87
2837.46
2828.69
2821.49
2815.77
2811.43
2808.4
2806.61
2806.01
2806.53
2808.13
2810.78
2814.44
2819.08
2824.68
2831.24
2838.75
2847.21
2856.63
2867.04
2878.47
2890.96
2904.57
2919.35
2935.35
2952.64
2971.27
2991.32
3012.71
3035.47
3059.56
3084.93
3111.45
3138.99
3167.35
3196.3
3225.58
3254.88
3283.86
3312.17
3339.44
3365.27
3389.28
3411.08
3430.26
3446.47
3459.36
3468.63
3474.04
3475.42
3472.63
3465.68
3454.67
3439.7
3421
3398.88
3373.73
3345.95
3316.02
3284.41
3251.6
3218.07
3184.27
3150.64
3117.56
3085.39
3054.41
3024.87
2996.97
2970.84
2946.56
2924.18
2903.69
2885.11
2868.24
2853.08
2839.54
2827.52
2816.94
2807.69
2799.7
2792.86
2787.1
2782.35
2778.56
2775.66
2773.64
2772.47
2772.15
2772.68
2774.08
2776.38
2779.61
2783.81
2789.02
2795.28
2802.65
2811.16
2820.85
2831.77
2843.94
2857.41
2872.2
2888.48
2906.03
2924.99
2945.37
2967.15
2990.3
3014.77
3040.46
3067.26
3095.01
3123.52
3152.56
3181.87
3211.15
3240.05
3268.19
3295.16
3320.54
3343.91
3364.83
3382.91
3397.79
3409.14
3416.7
3420.28
3419.75
3415.15
3406.5
3393.93
3377.68
3358.05
3335.38
3310.08
3282.59
3253.38
3222.94
3191.79
3160.46
3129.45
3099.19
3070.08
3042.42
3016.44
2992.24
2969.9
2949.39
2930.47
2912.96
2903.22
2894.65
2886.93
2880.09
2874.26
2869.43
2865.53
2862.5
2860.29
2858.85
2858.16
2858.19
2858.94
2860.37
2862.47
2865.67
2869.76
2874.62
2880.23
2886.56
2893.61
2901.41
2910.03
2919.55
2930.09
2941.77
2954.77
2969.37
2986.73
3005.17
3025.37
3047.5
3071.64
3097.74
3125.73
3155.45
3186.68
3219.18
3252.62
3286.64
3320.88
3354.9
3388.31
3420.62
3451.36
3480.17
3506.62
3530.33
3550.99
3568.3
3582.02
3591.93
3597.9
3599.84
3597.69
3591.61
3581.63
3567.98
3550.91
3530.74
3507.8
3482.45
3455.09
3426.05
3395.77
3364.61
3332.89
3300.97
3269.15
3237.7
3206.86
3176.87
3147.99
3120.5
3094.75
2931.64
2952.35
2967.79
2994.26
3022.68
3052.41
3083.35
3115.29
3148.02
3181.27
3214.67
3247.89
3280.62
3312.47
3343.07
3372.03
3398.93
3423.45
3445.26
3464
3479.4
3491.21
3499.23
3503.29
3503.39
3498.6
3489.9
3477.35
3461.08
3441.31
3418.34
3392.53
3364.22
3333.83
3301.78
3268.48
3234.38
3199.89
3165.38
3131.23
3097.74
3065.2
3033.82
3003.78
2975.23
2948.28
2922.98
2899.27
2878.98
2858.82
2840.49
2823.88
2808.94
2795.61
2783.86
2773.63
2764.86
2757.49
2751.48
2746.8
2743.39
2741.24
2740.31
2740.57
2742
2744.59
2748.82
2754.36
2761.2
2769.34
2778.82
2789.66
2801.88
2815.5
2830.56
2847.07
2865.06
2884.55
2905.53
2928.01
2951.92
2976.55
2996.64
3021.35
3047.69
3075.27
3103.87
3133.29
3163.33
3193.69
3224.06
3254.06
3283.26
3311.25
3337.59
3361.9
3383.79
3402.91
3418.96
3431.67
3440.81
3446.19
3447.71
3445.29
3438.93
3428.68
3414.66
3397.01
3375.97
3351.81
3324.85
3295.44
3263.99
3230.91
3196.63
3161.59
3126.22
3090.94
3056.14
3022.17
2989.37
2957.99
2928.27
2900.38
2874.44
2850.54
2828.69
2808.87
2791.07
2775.24
2761.3
2749.19
2738.81
2730.08
2722.91
2717.21
2712.9
2709.9
2708.13
2707.55
2708.08
2709.7
2712.36
2716.02
2720.66
2726.27
2732.83
2740.33
2748.79
2758.2
2768.6
2780.01
2792.48
2806.06
2820.81
2836.79
2854.06
2872.66
2892.7
2914.08
2936.83
2960.94
2986.32
3012.88
3040.46
3068.88
3097.91
3127.28
3156.67
3185.77
3214.2
3241.6
3267.58
3291.73
3313.67
3332.99
3349.33
3362.33
3371.7
3377.18
3378.59
3375.81
3368.84
3357.76
3342.7
3323.88
3301.63
3276.32
3248.38
3218.28
3186.5
3153.53
3119.85
3085.92
3052.17
3018.99
2986.73
2955.69
2926.1
2898.17
2872.03
2847.76
2825.39
2804.91
2786.38
2769.54
2754.42
2740.91
2728.93
2718.39
2709.17
2701.21
2694.4
2688.67
2683.94
2680.16
2677.28
2675.26
2674.1
2673.77
2674.3
2675.69
2677.98
2681.19
2685.38
2690.57
2696.82
2704.17
2712.66
2722.33
2733.23
2745.39
2758.84
2773.62
2789.86
2807.4
2826.35
2846.72
2868.5
2891.66
2916.14
2941.86
2968.69
2996.49
3025.07
3054.19
3083.6
3112.99
3142.02
3170.3
3197.42
3222.95
3246.47
3267.54
3285.75
3300.75
3312.19
3319.82
3323.44
3322.92
3318.28
3309.56
3296.89
3280.53
3260.75
3237.93
3212.47
3184.82
3155.44
3124.84
3093.54
3062.09
3030.97
3000.64
2971.47
2943.78
2917.79
2893.59
2871.25
2850.73
2831.77
2814.25
2805.33
2796.37
2788.57
2781.73
2775.92
2771.11
2767.23
2764.2
2762
2760.55
2759.86
2759.89
2760.63
2762.03
2764.09
2767.35
2771.45
2776.32
2781.93
2788.25
2795.28
2803.06
2811.64
2821.12
2831.61
2843.23
2856.16
2870.64
2888.07
2906.43
2926.59
2948.69
2972.83
2998.94
3026.96
3056.73
3088.02
3120.61
3154.15
3188.27
3222.64
3256.8
3290.35
3322.81
3353.7
3382.65
3409.25
3433.09
3453.86
3471.27
3485.07
3495.03
3501.03
3502.99
3500.81
3494.68
3484.63
3470.88
3453.7
3433.41
3410.33
3384.85
3357.35
3328.18
3297.78
3266.51
3234.69
3202.68
3170.78
3139.26
3108.36
3078.32
3049.41
3021.88
2996.1
2832.77
2853.85
2868.87
2895.55
2924.01
2953.77
2984.75
3016.75
3049.56
3082.9
3116.42
3149.76
3182.61
3214.6
3245.35
3274.46
3301.51
3326.17
3348.12
3366.98
3382.49
3394.4
3402.48
3406.59
3406.68
3401.89
3393.14
3380.51
3364.14
3344.25
3321.14
3295.17
3266.7
3236.15
3203.94
3170.48
3136.22
3101.6
3066.97
3032.71
2999.14
2966.52
2935.09
2905.01
2876.44
2849.48
2824.17
2800.46
2780.19
2760.04
2741.73
2725.14
2710.22
2696.93
2685.2
2674.99
2666.24
2658.89
2652.9
2648.23
2644.84
2642.7
2641.78
2642.05
2643.49
2646.08
2650.31
2655.84
2662.67
2670.81
2680.28
2691.11
2703.33
2716.94
2732.01
2748.52
2766.52
2786.02
2807.02
2829.51
2853.38
2877.75
2898.37
2923.02
2949.35
2976.94
3005.56
3035.02
3065.12
3095.56
3126.02
3156.13
3185.45
3213.58
3240.06
3264.5
3286.53
3305.77
3321.94
3334.75
3343.97
3349.41
3350.96
3348.55
3342.18
3331.89
3317.8
3300.06
3278.91
3254.62
3227.51
3197.95
3166.33
3133.07
3098.62
3063.42
3027.89
2992.47
2957.55
2923.48
2890.59
2859.15
2829.38
2801.46
2775.51
2751.62
2729.78
2709.99
2692.21
2676.41
2662.51
2650.44
2640.1
2631.41
2624.27
2618.61
2614.33
2611.35
2609.61
2609.04
2609.59
2611.23
2613.89
2617.56
2622.21
2627.82
2634.38
2641.88
2650.33
2659.73
2670.11
2681.5
2693.95
2707.5
2722.23
2738.18
2755.41
2773.99
2794.02
2815.38
2838.13
2862.24
2887.64
2914.24
2941.88
2970.37
2999.48
3028.95
3058.46
3087.68
3116.26
3143.8
3169.93
3194.25
3216.35
3235.83
3252.31
3265.44
3274.91
3280.47
3281.92
3279.15
3272.15
3261.01
3245.85
3226.89
3204.48
3179
3150.87
3120.58
3088.61
3055.46
3021.62
2987.54
2953.65
2920.36
2888.01
2856.89
2827.25
2799.29
2773.13
2748.86
2726.51
2706.05
2687.57
2670.76
2655.68
2642.22
2630.28
2619.78
2610.6
2602.68
2595.9
2590.2
2585.5
2581.73
2578.86
2576.85
2575.69
2575.37
2575.88
2577.27
2579.54
2582.74
2586.91
2592.08
2598.31
2605.64
2614.11
2623.77
2634.65
2646.79
2660.22
2674.98
2691.18
2708.71
2727.64
2748
2769.77
2792.94
2817.44
2843.19
2870.07
2897.92
2926.57
2955.79
2985.3
3014.82
3043.99
3072.43
3099.72
3125.42
3149.11
3170.34
3188.71
3203.84
3215.39
3223.1
3226.75
3226.24
3221.57
3212.77
3200
3183.49
3163.56
3140.56
3114.92
3087.08
3057.51
3026.74
2995.28
2963.68
2932.44
2902.02
2872.79
2845.07
2819.06
2794.88
2772.53
2752
2733.01
2715.62
2707.31
2698.05
2690.18
2683.35
2677.55
2672.76
2668.89
2665.88
2663.68
2662.23
2661.54
2661.56
2662.29
2663.68
2665.66
2669
2673.12
2678
2683.6
2689.91
2696.92
2704.67
2713.22
2722.64
2733.07
2744.63
2757.48
2771.83
2789.33
2807.61
2827.72
2849.8
2873.93
2900.05
2928.11
2957.92
2989.29
3021.97
3055.62
3089.87
3124.38
3158.69
3192.41
3225.03
3256.1
3285.21
3311.97
3335.95
3356.85
3374.38
3388.27
3398.29
3404.33
3406.29
3404.09
3397.89
3387.76
3373.91
3356.6
3336.17
3312.95
3287.32
3259.66
3230.34
3199.8
3168.4
3136.47
3104.36
3072.37
3040.78
3009.82
2979.72
2950.76
2923.19
2897.39
2733.8
2755.22
2769.92
2796.8
2825.29
2855.07
2886.09
2918.16
2951.05
2984.51
3018.15
3051.62
3084.61
3116.76
3147.67
3176.95
3204.16
3228.98
3251.08
3270.09
3285.72
3297.73
3305.88
3310.04
3310.13
3305.34
3296.53
3283.81
3267.33
3247.31
3224.04
3197.9
3169.25
3138.52
3106.12
3072.48
3038.06
3003.28
2968.52
2934.14
2900.48
2867.78
2836.29
2806.17
2777.57
2750.59
2725.29
2701.62
2681.29
2661.18
2642.9
2626.33
2611.44
2598.17
2586.48
2576.3
2567.57
2560.24
2554.27
2549.62
2546.24
2544.11
2543.2
2543.48
2544.92
2547.52
2551.74
2557.27
2564.1
2572.23
2581.69
2592.51
2604.72
2618.34
2633.4
2649.92
2667.93
2687.44
2708.46
2730.97
2754.81
2778.92
2800.02
2824.65
2850.97
2878.58
2907.23
2936.74
2966.89
2997.42
3027.99
3058.21
3087.68
3115.95
3142.58
3167.18
3189.36
3208.75
3225.04
3237.96
3247.27
3252.77
3254.36
3251.97
3245.57
3235.24
3221.08
3203.24
3181.97
3157.53
3130.26
3100.52
3068.71
3035.26
3000.62
2965.23
2929.54
2893.97
2858.9
2824.72
2791.73
2760.22
2730.4
2702.45
2676.49
2652.6
2630.78
2611.01