/*--------------------------------*- C++ -*----------------------------------*\
| =========                 |                                                 |
| \\      /  F ield         | OpenFOAM: The Open Source CFD Toolbox           |
|  \\    /   O peration     | Version:  3.0.1                                 |
|   \\  /    A nd           | Web:      www.OpenFOAM.org                      |
|    \\/     M anipulation  |                                                 |
\*---------------------------------------------------------------------------*/
FoamFile
{
    version     2.0;
    format      ascii;
    class       volVectorField;
    location    "79.8";
    object      U;
}
// * * * * * * * * * * * * * * * * * * * * * * * * * * * * * * * * * * * * * //

dimensions      [0 1 -1 0 0 0 0];

internalField   nonuniform List<vector> 
21420
(
(-0.155894 0.000389265 0)
(-0.158986 0.000316154 0)
(-0.161824 0.000245778 0)
(-0.163955 0.000176308 0)
(-0.165398 0.0001072 0)
(-0.166131 4.00664e-05 0)
(-0.1662 -2.85341e-05 0)
(-0.165566 -9.78914e-05 0)
(-0.164229 -0.000168052 0)
(-0.162176 -0.000239965 0)
(-0.159394 -0.000312918 0)
(-0.155862 -0.00038764 0)
(-0.151561 -0.000466349 0)
(-0.146466 -0.000545499 0)
(-0.140549 -0.000630497 0)
(-0.133781 -0.00071527 0)
(-0.12613 -0.000802386 0)
(-0.117565 -0.000898293 0)
(-0.108062 -0.000989998 0)
(-0.0975962 -0.00108249 0)
(-0.0861509 -0.00118731 0)
(-0.0737219 -0.00127968 0)
(-0.0603132 -0.00136972 0)
(-0.0459361 -0.00147535 0)
(-0.0306253 -0.00155623 0)
(-0.0144247 -0.00165472 0)
(0.00253167 -0.00171854 0)
(0.0201405 -0.00176902 0)
(0.0383365 -0.00183832 0)
(0.0569532 -0.00185858 0)
(0.07579 -0.0018567 0)
(0.0946432 -0.00187038 0)
(0.113296 -0.00182576 0)
(0.131506 -0.00178881 0)
(0.149027 -0.00169665 0)
(0.165585 -0.00157867 0)
(0.180914 -0.00145594 0)
(0.194771 -0.0012923 0)
(0.206921 -0.00110784 0)
(0.21715 -0.000909489 0)
(0.225267 -0.000691239 0)
(0.231136 -0.000459259 0)
(0.234628 -0.000220048 0)
(0.235688 1.94615e-05 0)
(0.23439 0.000257316 0)
(0.230508 0.000500012 0)
(0.224316 0.00073625 0)
(0.215879 0.000936111 0)
(0.205368 0.00113652 0)
(0.192958 0.00132648 0)
(0.178862 0.00146272 0)
(0.163303 0.00160152 0)
(0.146574 0.00168833 0)
(0.128884 0.00177297 0)
(0.110452 0.0018412 0)
(0.0916882 0.00185775 0)
(0.0726823 0.00186689 0)
(0.0535776 0.00186516 0)
(0.034797 0.00182295 0)
(0.0164948 0.00178605 0)
(-0.000858587 0.00171818 0)
(-0.0174697 0.00165096 0)
(-0.0336349 0.00157279 0)
(-0.0490091 0.0014836 0)
(-0.063557 0.00139646 0)
(-0.077185 0.00130263 0)
(-0.0898598 0.00120653 0)
(-0.101611 0.00111379 0)
(-0.112412 0.00101814 0)
(-0.122307 0.000931545 0)
(-0.131309 0.000838968 0)
(-0.139377 0.000748067 0)
(-0.146609 0.000664179 0)
(-0.152967 0.000578806 0)
(-0.158427 0.000491911 0)
(-0.163053 0.000412995 0)
(-0.16679 0.000326551 0)
(-0.1697 0.00024818 0)
(-0.171857 0.00016603 0)
(-0.173151 8.07955e-05 0)
(-0.173567 6.49527e-06 0)
(-0.173222 -7.96023e-05 0)
(-0.172171 -0.000163266 0)
(-0.170172 -0.000253778 0)
(-0.167256 -0.000325512 0)
(-0.16351 -0.000421435 0)
(-0.158932 -0.000507246 0)
(-0.153422 -0.000606097 0)
(-0.146953 -0.000676748 0)
(-0.139671 -0.000757214 0)
(-0.131685 -0.000832655 0)
(-0.122933 -0.000903033 0)
(-0.113484 -0.000970858 0)
(-0.103331 -0.00104348 0)
(-0.0924605 -0.0011143 0)
(-0.0808404 -0.00119442 0)
(-0.0684161 -0.00126818 0)
(-0.0552149 -0.00134721 0)
(-0.0412367 -0.0014264 0)
(-0.026477 -0.00149705 0)
(-0.0109875 -0.00157092 0)
(0.00520838 -0.00163476 0)
(0.0219755 -0.00168486 0)
(0.0391686 -0.00171996 0)
(0.0566573 -0.00174596 0)
(0.0743006 -0.00175208 0)
(0.0919214 -0.00173809 0)
(0.109301 -0.00170791 0)
(0.126257 -0.00165258 0)
(0.142543 -0.00157314 0)
(0.157934 -0.00147655 0)
(0.172209 -0.00135164 0)
(0.185127 -0.00120841 0)
(0.196465 -0.0010318 0)
(0.205979 -0.000848588 0)
(0.213509 -0.000640059 0)
(0.21886 -0.000417853 0)
(0.221884 -0.00018145 0)
(0.222535 5.51013e-05 0)
(0.220767 0.000296558 0)
(0.216419 0.000542484 0)
(0.209769 0.000775999 0)
(0.20082 0.000995841 0)
(0.189746 0.00119563 0)
(0.176761 0.00137677 0)
(0.162048 0.00153655 0)
(0.145872 0.00167181 0)
(0.128498 0.00177068 0)
(0.110187 0.00185537 0)
(0.0912326 0.00190605 0)
(0.0718863 0.00192934 0)
(0.0524202 0.00192624 0)
(0.0330544 0.00191016 0)
(0.0140021 0.00187308 0)
(-0.00453062 0.00181145 0)
(-0.0223762 0.00173014 0)
(-0.0393943 0.00164797 0)
(-0.0554769 0.00154642 0)
(-0.0705466 0.00144561 0)
(-0.0845529 0.00133463 0)
(-0.0974554 0.00122321 0)
(-0.109249 0.00111467 0)
(-0.119936 0.00101067 0)
(-0.129557 0.000901515 0)
(-0.138142 0.000804755 0)
(-0.145749 0.00070573 0)
(-0.152414 0.000618248 0)
(-0.158201 0.000534052 0)
(-0.163186 0.00045707 0)
(-0.167404 0.000375342 0)
(-0.170843 0.000299885 0)
(-0.17357 0.000245151 0)
(-0.175614 0.000167339 0)
(-0.17699 0.000108374 0)
(-0.177736 4.51548e-05 0)
(-0.177845 -1.94647e-05 0)
(-0.17733 -7.57474e-05 0)
(-0.176207 -0.000144115 0)
(-0.174442 -0.00020366 0)
(-0.172127 -0.000266412 0)
(-0.169126 -0.000319612 0)
(-0.165481 -0.000389141 0)
(-0.161217 -0.00045972 0)
(-0.156229 -0.000525955 0)
(-0.150557 -0.000601057 0)
(-0.144116 -0.000673842 0)
(-0.136895 -0.000755117 0)
(-0.128887 -0.000841956 0)
(-0.12001 -0.000921015 0)
(-0.110254 -0.00100603 0)
(-0.0996283 -0.00109036 0)
(-0.0881221 -0.00118401 0)
(-0.0757893 -0.00127016 0)
(-0.0625822 -0.00134518 0)
(-0.0485369 -0.0014315 0)
(-0.0337155 -0.00150463 0)
(-0.0181845 -0.00156565 0)
(-0.00206209 -0.00162745 0)
(0.0145887 -0.00167531 0)
(0.0316365 -0.00170332 0)
(0.0489021 -0.00172049 0)
(0.0662373 -0.00171549 0)
(0.0834014 -0.00168114 0)
(0.100166 -0.00163276 0)
(0.116325 -0.00156638 0)
(0.131632 -0.00147183 0)
(0.145854 -0.00135103 0)
(0.158751 -0.00119966 0)
(0.170029 -0.00103021 0)
(0.17941 -0.000827002 0)
(0.186625 -0.000606081 0)
(0.191507 -0.000363624 0)
(0.193919 -0.000120261 0)
(0.193864 0.000131351 0)
(0.191236 0.000385005 0)
(0.186094 0.00062883 0)
(0.178603 0.000859908 0)
(0.168854 0.00107087 0)
(0.157065 0.00126186 0)
(0.143469 0.0014274 0)
(0.128331 0.00156756 0)
(0.111958 0.00168106 0)
(0.094628 0.00175619 0)
(0.0766575 0.00180705 0)
(0.0583095 0.00183324 0)
(0.039833 0.00182836 0)
(0.0214856 0.00181091 0)
(0.00344501 0.00176903 0)
(-0.0141117 0.00171208 0)
(-0.0310522 0.00165496 0)
(-0.0472584 0.00156685 0)
(-0.0626019 0.00148081 0)
(-0.077055 0.00138807 0)
(-0.0905788 0.00129109 0)
(-0.103131 0.00120321 0)
(-0.11474 0.0011038 0)
(-0.12537 0.00100814 0)
(-0.135053 0.000915125 0)
(-0.143845 0.000824438 0)
(-0.151734 0.000737718 0)
(-0.158767 0.000662613 0)
(-0.165018 0.000583507 0)
(-0.170516 0.000508002 0)
(-0.17528 0.000437313 0)
(-0.179326 0.000369816 0)
(-0.182695 0.000303805 0)
(-0.185444 0.000240728 0)
(-0.187563 0.000177743 0)
(-0.189011 0.000110996 0)
(-0.189808 5.52865e-05 0)
(-0.190019 -1.20374e-05 0)
(-0.189544 -7.75686e-05 0)
(-0.188448 -0.000136783 0)
(-0.186716 -0.000205223 0)
(-0.184339 -0.000267222 0)
(-0.181328 -0.000324708 0)
(-0.177733 -0.000390983 0)
(-0.173484 -0.000447494 0)
(-0.168572 -0.000518524 0)
(-0.162974 -0.000587934 0)
(-0.156627 -0.000665384 0)
(-0.14951 -0.000747076 0)
(-0.141591 -0.000819291 0)
(-0.132901 -0.000901778 0)
(-0.123411 -0.000980182 0)
(-0.11312 -0.00105889 0)
(-0.102077 -0.00114068 0)
(-0.0902374 -0.00120381 0)
(-0.0776501 -0.00128111 0)
(-0.0644162 -0.00135379 0)
(-0.0505009 -0.00140367 0)
(-0.0359828 -0.00146845 0)
(-0.0209404 -0.00151514 0)
(-0.00542041 -0.00155385 0)
(0.0104581 -0.001593 0)
(0.0265936 -0.001606 0)
(0.0428226 -0.00160697 0)
(0.0589628 -0.00159102 0)
(0.0747867 -0.00154341 0)
(0.0900382 -0.00147722 0)
(0.104484 -0.00138259 0)
(0.117856 -0.0012684 0)
(0.129919 -0.00111891 0)
(0.140421 -0.000951679 0)
(0.14912 -0.000761851 0)
(0.15582 -0.0005555 0)
(0.160368 -0.000336569 0)
(0.162597 -0.000104734 0)
(0.162576 0.000120463 0)
(0.160282 0.000352204 0)
(0.15556 0.000571788 0)
(0.148685 0.00078606 0)
(0.13995 0.000968111 0)
(0.129485 0.00112425 0)
(0.117542 0.00125849 0)
(0.104288 0.00137217 0)
(0.0900999 0.00143532 0)
(0.0753818 0.00149935 0)
(0.0601297 0.00151403 0)
(0.0448851 0.00152355 0)
(0.0296385 0.00151085 0)
(0.0146377 0.00148635 0)
(0.000392234 0.0014593 0)
(-0.0136171 0.00141963 0)
(-0.0274821 0.00138012 0)
(-0.0410487 0.00133383 0)
(-0.0541058 0.00127526 0)
(-0.0666101 0.00121204 0)
(-0.0784791 0.00114503 0)
(-0.0896255 0.00106752 0)
(-0.100026 0.000993715 0)
(-0.109592 0.000909347 0)
(-0.118313 0.000826811 0)
(-0.12622 0.000747072 0)
(-0.133272 0.000663906 0)
(-0.139516 0.000585524 0)
(-0.145002 0.000512223 0)
(-0.149738 0.000440451 0)
(-0.153805 0.000376649 0)
(-0.157256 0.000318329 0)
(-0.160153 0.000262146 0)
(-0.16255 0.000214538 0)
(-0.164467 0.000169414 0)
(-0.165971 0.000128814 0)
(-0.167088 9.15743e-05 0)
(-0.167787 5.35789e-05 0)
(-0.168105 1.58145e-05 0)
(-0.168009 -3.04625e-05 0)
(-0.167444 -8.30248e-05 0)
(-0.166338 -0.000139475 0)
(-0.164588 -0.000205408 0)
(-0.162117 -0.000281546 0)
(-0.158853 -0.000364246 0)
(-0.154695 -0.000456078 0)
(-0.149559 -0.00055968 0)
(-0.143383 -0.000663006 0)
(-0.136109 -0.000778713 0)
(-0.127718 -0.000887421 0)
(-0.118179 -0.000998069 0)
(-0.107478 -0.00112064 0)
(-0.095648 -0.00122483 0)
(-0.0827326 -0.00132356 0)
(-0.0687704 -0.00143572 0)
(-0.0538525 -0.0015164 0)
(-0.0380887 -0.00161014 0)
(-0.021487 -0.00166425 0)
(-0.00445773 -0.00170814 0)
(0.0128616 -0.00175707 0)
(0.0305387 -0.00175836 0)
(0.048238 -0.00173767 0)
(0.065743 -0.00172704 0)
(0.0828357 -0.0016634 0)
(0.0992714 -0.00157738 0)
(0.11482 -0.00149412 0)
(0.129269 -0.00136705 0)
(0.142413 -0.00123817 0)
(0.154069 -0.00107676 0)
(0.164076 -0.000903733 0)
(0.172308 -0.000725819 0)
(0.178669 -0.000535412 0)
(0.183104 -0.00034182 0)
(0.185589 -0.000147152 0)
(0.186099 4.48948e-05 0)
(0.184734 0.000231686 0)
(0.181419 0.000416958 0)
(0.176335 0.00059282 0)
(0.169546 0.000752574 0)
(0.161162 0.000907496 0)
(0.151308 0.00105208 0)
(0.14012 0.0011686 0)
(0.127741 0.00128537 0)
(0.11432 0.00136861 0)
(0.100012 0.00145518 0)
(0.0849675 0.00152764 0)
(0.0693379 0.00156059 0)
(0.0532571 0.00160159 0)
(0.0351292 0.00162748 0)
(-0.155923 0.0011677 0)
(-0.159014 0.000948389 0)
(-0.161852 0.000737274 0)
(-0.163982 0.000528916 0)
(-0.165426 0.000321396 0)
(-0.166158 0.000120368 0)
(-0.166228 -8.55076e-05 0)
(-0.165594 -0.000293652 0)
(-0.164257 -0.000504119 0)
(-0.162205 -0.000719837 0)
(-0.159423 -0.000938681 0)
(-0.155893 -0.00116283 0)
(-0.151593 -0.00139892 0)
(-0.146498 -0.00163638 0)
(-0.140583 -0.00189138 0)
(-0.133816 -0.00214567 0)
(-0.126166 -0.00240703 0)
(-0.117603 -0.00269476 0)
(-0.1081 -0.0029699 0)
(-0.0976355 -0.0032474 0)
(-0.0861911 -0.0035619 0)
(-0.0737619 -0.00383909 0)
(-0.0603524 -0.00410923 0)
(-0.0459745 -0.00442621 0)
(-0.0306614 -0.00466901 0)
(-0.0144583 -0.00496467 0)
(0.00250207 -0.00515571 0)
(0.0201156 -0.00530758 0)
(0.0383174 -0.00551565 0)
(0.0569411 -0.00557649 0)
(0.0757855 -0.00557094 0)
(0.0946478 -0.0056121 0)
(0.11331 -0.00547827 0)
(0.131531 -0.00536758 0)
(0.149061 -0.00509111 0)
(0.165629 -0.00473691 0)
(0.180969 -0.00436947 0)
(0.194836 -0.00387796 0)
(0.206996 -0.00332309 0)
(0.21723 -0.00273228 0)
(0.225358 -0.00207217 0)
(0.231226 -0.00138243 0)
(0.234725 -0.000664254 0)
(0.235799 6.71171e-05 0)
(0.234483 0.000772744 0)
(0.230601 0.00149977 0)
(0.22441 0.00220896 0)
(0.215968 0.00280874 0)
(0.205451 0.00341015 0)
(0.193035 0.00398016 0)
(0.178929 0.00438897 0)
(0.163362 0.00480545 0)
(0.146623 0.00506599 0)
(0.128926 0.00531975 0)
(0.110484 0.00552448 0)
(0.0917091 0.0055742 0)
(0.0726954 0.00560161 0)
(0.0535831 0.005596 0)
(0.034795 0.00547018 0)
(0.0164855 0.00535846 0)
(-0.000874704 0.00515569 0)
(-0.0174918 0.0049535 0)
(-0.0336623 0.00471853 0)
(-0.0490393 0.00445239 0)
(-0.0635924 0.00419098 0)
(-0.077225 0.00390729 0)
(-0.0899015 0.00361975 0)
(-0.101656 0.0033433 0)
(-0.112459 0.00305394 0)
(-0.122358 0.00279327 0)
(-0.13136 0.00251637 0)
(-0.13943 0.00224556 0)
(-0.146664 0.00199214 0)
(-0.153022 0.00173919 0)
(-0.158483 0.00147451 0)
(-0.163112 0.0012429 0)
(-0.166851 0.000978985 0)
(-0.169759 0.000744206 0)
(-0.171924 0.000499578 0)
(-0.173215 0.000240563 0)
(-0.17363 2.0906e-05 0)
(-0.173286 -0.000236175 0)
(-0.172233 -0.000491505 0)
(-0.170233 -0.000760096 0)
(-0.167315 -0.000979135 0)
(-0.163568 -0.00127221 0)
(-0.158978 -0.00152274 0)
(-0.153461 -0.00181624 0)
(-0.14699 -0.00202859 0)
(-0.139704 -0.0022761 0)
(-0.131708 -0.0025021 0)
(-0.122947 -0.0027139 0)
(-0.113496 -0.00292058 0)
(-0.103333 -0.00313422 0)
(-0.0924542 -0.00334646 0)
(-0.0808337 -0.00358325 0)
(-0.0684172 -0.00380234 0)
(-0.0552302 -0.00404277 0)
(-0.0412586 -0.00427784 0)
(-0.0265088 -0.00450784 0)
(-0.0110016 -0.00471329 0)
(0.0051918 -0.00490185 0)
(0.0219547 -0.00505523 0)
(0.039146 -0.00517546 0)
(0.0566503 -0.0052372 0)
(0.0743018 -0.00525879 0)
(0.0919209 -0.00522299 0)
(0.109316 -0.00512023 0)
(0.126275 -0.00495915 0)
(0.142575 -0.00473075 0)
(0.157984 -0.00443112 0)
(0.172272 -0.00405585 0)
(0.185199 -0.00362093 0)
(0.196534 -0.00311182 0)
(0.206068 -0.00254874 0)
(0.213597 -0.00192426 0)
(0.218953 -0.00125883 0)
(0.221982 -0.000552019 0)
(0.222629 0.000158012 0)
(0.22084 0.000894785 0)
(0.216491 0.00163327 0)
(0.209833 0.00233373 0)
(0.200871 0.00298868 0)
(0.189783 0.00359392 0)
(0.176774 0.00413689 0)
(0.162035 0.00460717 0)
(0.145834 0.00501807 0)
(0.128439 0.00532241 0)
(0.110099 0.00556928 0)
(0.0911154 0.00570795 0)
(0.0717593 0.00579366 0)
(0.0522712 0.00579634 0)
(0.0328768 0.00572313 0)
(0.0138085 0.00561777 0)
(-0.00473909 0.00542978 0)
(-0.0225909 0.00519644 0)
(-0.039622 0.00494065 0)
(-0.0557141 0.00463815 0)
(-0.0707875 0.00433702 0)
(-0.0847924 0.00400171 0)
(-0.0976963 0.00368202 0)
(-0.109496 0.00333925 0)
(-0.120176 0.00302139 0)
(-0.129802 0.00270662 0)
(-0.13839 0.0024017 0)
(-0.14599 0.00211775 0)
(-0.152645 0.00185121 0)
(-0.158424 0.00160405 0)
(-0.163409 0.00136049 0)
(-0.167611 0.00112925 0)
(-0.17105 0.000906747 0)
(-0.173767 0.000721852 0)
(-0.175809 0.000514825 0)
(-0.177189 0.000314799 0)
(-0.177917 0.000130502 0)
(-0.178023 -5.96861e-05 0)
(-0.177511 -0.000246824 0)
(-0.176366 -0.000425434 0)
(-0.174611 -0.000612119 0)
(-0.172287 -0.000804409 0)
(-0.169282 -0.000966204 0)
(-0.165635 -0.00116961 0)
(-0.161359 -0.001375 0)
(-0.156378 -0.00158412 0)
(-0.150704 -0.00180439 0)
(-0.144257 -0.00201484 0)
(-0.137039 -0.00227061 0)
(-0.129027 -0.00253603 0)
(-0.120143 -0.00277189 0)
(-0.110384 -0.00302666 0)
(-0.0997441 -0.00326493 0)
(-0.0882403 -0.00354583 0)
(-0.0759043 -0.00381271 0)
(-0.0626903 -0.0040492 0)
(-0.0486355 -0.00429038 0)
(-0.0338102 -0.00451423 0)
(-0.0182805 -0.00472128 0)
(-0.00213286 -0.00488158 0)
(0.0145258 -0.00502193 0)
(0.0315726 -0.00512317 0)
(0.0488703 -0.00515858 0)
(0.0662144 -0.0051367 0)
(0.0833723 -0.00506102 0)
(0.100154 -0.00491514 0)
(0.116331 -0.00469568 0)
(0.131653 -0.00441138 0)
(0.145884 -0.00404938 0)
(0.158774 -0.00361659 0)
(0.170076 -0.00309012 0)
(0.179462 -0.00248385 0)
(0.186682 -0.00181757 0)
(0.191571 -0.00108526 0)
(0.19398 -0.000352707 0)
(0.19391 0.000393779 0)
(0.191263 0.00115348 0)
(0.186113 0.0018843 0)
(0.178605 0.00257461 0)
(0.168839 0.0032157 0)
(0.157029 0.0037902 0)
(0.143416 0.00428651 0)
(0.128252 0.00470375 0)
(0.111854 0.00504002 0)
(0.0945071 0.00527068 0)
(0.0765172 0.00542462 0)
(0.0581492 0.00549723 0)
(0.0396594 0.00549168 0)
(0.021304 0.0054369 0)
(0.00325058 0.00531443 0)
(-0.0143202 0.00513373 0)
(-0.031265 0.00495439 0)
(-0.0474731 0.00469851 0)
(-0.0628234 0.00443891 0)
(-0.077283 0.00416576 0)
(-0.0908102 0.00387893 0)
(-0.103373 0.0036023 0)
(-0.114972 0.0033043 0)
(-0.125593 0.00302551 0)
(-0.13527 0.00274107 0)
(-0.144051 0.00247391 0)
(-0.151938 0.00220988 0)
(-0.158964 0.00198995 0)
(-0.165214 0.00174691 0)
(-0.170706 0.0015193 0)
(-0.175469 0.00130694 0)
(-0.179505 0.00110649 0)
(-0.182869 0.00090924 0)
(-0.185615 0.000721404 0)
(-0.187729 0.000525903 0)
(-0.189182 0.000339932 0)
(-0.189978 0.000154407 0)
(-0.19017 -3.13723e-05 0)
(-0.189701 -0.000233586 0)
(-0.188593 -0.000420594 0)
(-0.186857 -0.000615778 0)
(-0.184479 -0.000793264 0)
(-0.181473 -0.000981977 0)
(-0.177875 -0.0011801 0)
(-0.173618 -0.00134413 0)
(-0.168715 -0.00156302 0)
(-0.163115 -0.00176877 0)
(-0.156764 -0.00200097 0)
(-0.149641 -0.00223693 0)
(-0.141726 -0.00246136 0)
(-0.133037 -0.00270916 0)
(-0.123549 -0.00293865 0)
(-0.113262 -0.00317965 0)
(-0.102213 -0.00342546 0)
(-0.0903843 -0.00361863 0)
(-0.0777907 -0.00384198 0)
(-0.0645515 -0.00406488 0)
(-0.0506343 -0.00421525 0)
(-0.0361043 -0.00440263 0)
(-0.0210526 -0.00455019 0)
(-0.0055199 -0.00467087 0)
(0.0103824 -0.00477078 0)
(0.0265275 -0.00482442 0)
(0.0427726 -0.00482999 0)
(0.058933 -0.00477075 0)
(0.0747685 -0.0046375 0)
(0.0900389 -0.00443701 0)
(0.104503 -0.00415282 0)
(0.1179 -0.00379896 0)
(0.129972 -0.00335794 0)
(0.140484 -0.00285743 0)
(0.149198 -0.00229215 0)
(0.155912 -0.00166743 0)
(0.160467 -0.00101295 0)
(0.162709 -0.000308974 0)
(0.162679 0.00036356 0)
(0.160381 0.0010554 0)
(0.155662 0.00171551 0)
(0.148784 0.00235938 0)
(0.140033 0.00290934 0)
(0.129557 0.00337327 0)
(0.117603 0.00377639 0)
(0.104335 0.00411443 0)
(0.0901377 0.00431286 0)
(0.0754068 0.00449884 0)
(0.0601415 0.00454421 0)
(0.0448873 0.004571 0)
(0.0296343 0.00453063 0)
(0.0146307 0.00446338 0)
(0.000380379 0.00437942 0)
(-0.0136317 0.00426007 0)
(-0.0275001 0.00414001 0)
(-0.0410687 0.00400301 0)
(-0.0541298 0.00382571 0)
(-0.0666361 0.00363691 0)
(-0.0785089 0.00343492 0)
(-0.0896564 0.00320314 0)
(-0.100059 0.00298128 0)
(-0.109625 0.00272868 0)
(-0.118346 0.00248062 0)
(-0.126254 0.00224103 0)
(-0.133306 0.00199179 0)
(-0.139549 0.0017552 0)
(-0.145032 0.00153634 0)
(-0.149767 0.00132094 0)
(-0.153831 0.00113117 0)
(-0.157281 0.000953779 0)
(-0.160176 0.000785935 0)
(-0.16257 0.00064419 0)
(-0.164485 0.000509186 0)
(-0.165989 0.000386278 0)
(-0.167107 0.000273581 0)
(-0.167805 0.000161079 0)
(-0.168124 4.82741e-05 0)
(-0.168031 -9.12715e-05 0)
(-0.167468 -0.000248696 0)
(-0.166365 -0.000417997 0)
(-0.164618 -0.000615735 0)
(-0.162152 -0.000844194 0)
(-0.158891 -0.00109231 0)
(-0.154736 -0.0013679 0)
(-0.149603 -0.0016787 0)
(-0.143429 -0.00198874 0)
(-0.136157 -0.00233589 0)
(-0.127766 -0.00266224 0)
(-0.118228 -0.00299415 0)
(-0.107526 -0.00336196 0)
(-0.0956944 -0.00367465 0)
(-0.0827763 -0.00397088 0)
(-0.0688114 -0.00430746 0)
(-0.0538889 -0.00454969 0)
(-0.0381203 -0.00483113 0)
(-0.0215138 -0.00499416 0)
(-0.0044776 -0.00512418 0)
(0.0128503 -0.00527187 0)
(0.0305351 -0.0052759 0)
(0.0482428 -0.00521386 0)
(0.0657574 -0.00518205 0)
(0.0828591 -0.00499111 0)
(0.0993035 -0.00473304 0)
(0.114862 -0.00448324 0)
(0.129319 -0.00410193 0)
(0.142471 -0.00371523 0)
(0.154132 -0.00323087 0)
(0.164145 -0.00271169 0)
(0.172381 -0.00217782 0)
(0.178745 -0.00160644 0)
(0.18318 -0.00102537 0)
(0.185666 -0.000440709 0)
(0.186179 0.000133873 0)
(0.184805 0.00069557 0)
(0.18149 0.00125109 0)
(0.176403 0.00177882 0)
(0.169609 0.00225814 0)
(0.16122 0.00272297 0)
(0.151362 0.00315679 0)
(0.140168 0.00350637 0)
(0.127782 0.00385674 0)
(0.114355 0.00410643 0)
(0.100041 0.00436616 0)
(0.0849904 0.00458356 0)
(0.0693542 0.00468237 0)
(0.0532673 0.00480539 0)
(0.0351323 0.00488305 0)
(-0.155981 0.00194586 0)
(-0.159071 0.00158044 0)
(-0.161907 0.00122863 0)
(-0.164036 0.000881609 0)
(-0.165479 0.000535854 0)
(-0.166214 0.00020045 0)
(-0.166282 -0.000142546 0)
(-0.165649 -0.000489318 0)
(-0.164313 -0.000840051 0)
(-0.162262 -0.00119952 0)
(-0.159482 -0.00156421 0)
(-0.155953 -0.00193773 0)
(-0.151655 -0.00233112 0)
(-0.146563 -0.00272693 0)
(-0.14065 -0.00315194 0)
(-0.133886 -0.00357566 0)
(-0.126238 -0.00401135 0)
(-0.117677 -0.00449092 0)
(-0.108176 -0.00494956 0)
(-0.0977121 -0.00541217 0)
(-0.0862691 -0.00593646 0)
(-0.073839 -0.00639871 0)
(-0.0604275 -0.00684901 0)
(-0.0460478 -0.00737757 0)
(-0.0307296 -0.00778251 0)
(-0.0145212 -0.00827548 0)
(0.00244763 -0.00859437 0)
(0.0200712 -0.00884789 0)
(0.0382847 -0.00919504 0)
(0.0569229 -0.00929665 0)
(0.075783 -0.00928766 0)
(0.0946638 -0.00935661 0)
(0.113344 -0.00913367 0)
(0.131587 -0.00894951 0)
(0.149137 -0.00848868 0)
(0.165724 -0.00789839 0)
(0.181087 -0.00728555 0)
(0.194971 -0.00646621 0)
(0.207146 -0.00554229 0)
(0.217398 -0.00455437 0)
(0.225538 -0.00345539 0)
(0.231416 -0.00230333 0)
(0.234923 -0.00110795 0)
(0.236002 0.00010772 0)
(0.234656 0.00128983 0)
(0.230779 0.0024997 0)
(0.224585 0.00368305 0)
(0.216129 0.0046834 0)
(0.205599 0.00568615 0)
(0.193166 0.00663654 0)
(0.17904 0.00731806 0)
(0.163454 0.0080123 0)
(0.146694 0.00844664 0)
(0.128978 0.00886932 0)
(0.110518 0.00921004 0)
(0.0917214 0.00929352 0)
(0.0726924 0.00933924 0)
(0.0535661 0.00932779 0)
(0.0347649 0.00912128 0)
(0.0164437 0.00893164 0)
(-0.000928358 0.008593 0)
(-0.0175518 0.00825763 0)
(-0.033728 0.00786605 0)
(-0.0491097 0.00742158 0)
(-0.063666 0.00698529 0)
(-0.0772984 0.00651392 0)
(-0.0899767 0.00603354 0)
(-0.101732 0.00557133 0)
(-0.11253 0.00509199 0)
(-0.122431 0.00465607 0)
(-0.131434 0.00419427 0)
(-0.139503 0.00374247 0)
(-0.146735 0.00332133 0)
(-0.153093 0.00289626 0)
(-0.158549 0.00246095 0)
(-0.163181 0.0020724 0)
(-0.166917 0.00163441 0)
(-0.169828 0.0012428 0)
(-0.172006 0.000830612 0)
(-0.173291 0.000402561 0)
(-0.173704 3.19714e-05 0)
(-0.173358 -0.000396385 0)
(-0.172318 -0.000822574 0)
(-0.170311 -0.0012646 0)
(-0.167387 -0.00163221 0)
(-0.163646 -0.0021224 0)
(-0.15906 -0.00254107 0)
(-0.153548 -0.00302953 0)
(-0.147074 -0.00338709 0)
(-0.139786 -0.00379585 0)
(-0.131787 -0.00417212 0)
(-0.123026 -0.00452468 0)
(-0.113578 -0.00486546 0)
(-0.10342 -0.00522008 0)
(-0.0925535 -0.0055751 0)
(-0.0809484 -0.00596959 0)
(-0.0685476 -0.00634165 0)
(-0.0553755 -0.00674527 0)
(-0.0414123 -0.00713112 0)
(-0.0266603 -0.00750205 0)
(-0.0111601 -0.00785454 0)
(0.00503193 -0.00817435 0)
(0.0218016 -0.00843275 0)
(0.0390066 -0.00861662 0)
(0.0565113 -0.00873108 0)
(0.0741656 -0.00876605 0)
(0.0917936 -0.00870106 0)
(0.109199 -0.00854088 0)
(0.126177 -0.00826714 0)
(0.142502 -0.00788189 0)
(0.157937 -0.00738404 0)
(0.172243 -0.00677032 0)
(0.185187 -0.00604467 0)
(0.196545 -0.00517891 0)
(0.20609 -0.00424985 0)
(0.213635 -0.00320696 0)
(0.218999 -0.00209214 0)
(0.222037 -0.000916384 0)
(0.22268 0.000265443 0)
(0.220858 0.00149243 0)
(0.216525 0.00271938 0)
(0.209866 0.00389306 0)
(0.200886 0.00498229 0)
(0.189774 0.00599501 0)
(0.176741 0.0069065 0)
(0.161981 0.00768574 0)
(0.145755 0.00836651 0)
(0.128335 0.00887503 0)
(0.109971 0.00928692 0)
(0.0909572 0.00952264 0)
(0.0715736 0.00965785 0)
(0.0520595 0.00967071 0)
(0.0326402 0.00954971 0)
(0.013539 0.00936373 0)
(-0.00501666 0.00904863 0)
(-0.0228765 0.00867354 0)
(-0.039923 0.0082323 0)
(-0.0560182 0.0077412 0)
(-0.0711026 0.00722163 0)
(-0.0851102 0.00667765 0)
(-0.0980218 0.00613202 0)
(-0.109807 0.00556763 0)
(-0.120475 0.00504153 0)
(-0.130093 0.00451214 0)
(-0.138684 0.00400274 0)
(-0.146286 0.00351784 0)
(-0.152947 0.00310699 0)
(-0.158727 0.00266122 0)
(-0.163702 0.00226732 0)
(-0.167895 0.0018741 0)
(-0.171324 0.00152715 0)
(-0.174046 0.00119802 0)
(-0.176094 0.000848873 0)
(-0.177469 0.000523706 0)
(-0.178194 0.000217502 0)
(-0.178296 -0.000101171 0)
(-0.177768 -0.000401412 0)
(-0.176632 -0.000714267 0)
(-0.174876 -0.00102827 0)
(-0.172547 -0.00132684 0)
(-0.169548 -0.0016155 0)
(-0.165911 -0.00195296 0)
(-0.161636 -0.0022917 0)
(-0.156656 -0.00263466 0)
(-0.150994 -0.00300986 0)
(-0.144553 -0.00337438 0)
(-0.137328 -0.00378869 0)
(-0.129301 -0.0042058 0)
(-0.120412 -0.00461477 0)
(-0.110657 -0.00504558 0)
(-0.100022 -0.0054521 0)
(-0.088524 -0.00591809 0)
(-0.0761723 -0.00634691 0)
(-0.0629506 -0.00675133 0)
(-0.0489012 -0.00716101 0)
(-0.0340705 -0.00752721 0)
(-0.0185202 -0.00785574 0)
(-0.00236514 -0.00814433 0)
(0.0143021 -0.00838391 0)
(0.0313733 -0.00853379 0)
(0.0486841 -0.0085994 0)
(0.0660424 -0.00857688 0)
(0.0832357 -0.00842632 0)
(0.100038 -0.00818344 0)
(0.116228 -0.0078312 0)
(0.131566 -0.00735709 0)
(0.145818 -0.00676307 0)
(0.158741 -0.0060175 0)
(0.170061 -0.00515322 0)
(0.179464 -0.00414231 0)
(0.186704 -0.00302994 0)
(0.191596 -0.00180974 0)
(0.194003 -0.000589152 0)
(0.193924 0.000652388 0)
(0.191268 0.00193113 0)
(0.186121 0.00314838 0)
(0.178599 0.00429538 0)
(0.168811 0.00536525 0)
(0.156975 0.00631921 0)
(0.143339 0.00714976 0)
(0.128153 0.00785155 0)
(0.111721 0.00840537 0)
(0.0943439 0.00879416 0)
(0.0763354 0.00904589 0)
(0.0579497 0.00916366 0)
(0.0394426 0.00916624 0)
(0.0210718 0.00905739 0)
(0.00300365 0.00886002 0)
(-0.0145767 0.0085679 0)
(-0.0315388 0.00825157 0)
(-0.04775 0.00783252 0)
(-0.0631073 0.00740758 0)
(-0.077577 0.00694264 0)
(-0.0911012 0.00647015 0)
(-0.103666 0.00600185 0)
(-0.115265 0.00550705 0)
(-0.125889 0.00503945 0)
(-0.13556 0.00456848 0)
(-0.144333 0.00411903 0)
(-0.152209 0.00368932 0)
(-0.159234 0.00330595 0)
(-0.16548 0.00291149 0)
(-0.170972 0.00253114 0)
(-0.175727 0.00217331 0)
(-0.179764 0.001855 0)
(-0.183137 0.00151465 0)
(-0.185881 0.0011972 0)
(-0.187989 0.000873916 0)
(-0.189445 0.000573445 0)
(-0.190242 0.000262819 0)
(-0.190443 -5.63355e-05 0)
(-0.189967 -0.000397475 0)
(-0.188853 -0.000698497 0)
(-0.187127 -0.00103123 0)
(-0.184748 -0.00131875 0)
(-0.181744 -0.00163227 0)
(-0.178138 -0.00195956 0)
(-0.173882 -0.00224869 0)
(-0.168981 -0.00260421 0)
(-0.16338 -0.00294576 0)
(-0.157036 -0.00333532 0)
(-0.14992 -0.0037282 0)
(-0.142012 -0.00409914 0)
(-0.133325 -0.00451268 0)
(-0.123834 -0.00490013 0)
(-0.113541 -0.00529537 0)
(-0.102487 -0.005705 0)
(-0.0906546 -0.00602958 0)
(-0.0780737 -0.00640134 0)
(-0.0648186 -0.00677114 0)
(-0.0508846 -0.0070364 0)
(-0.0363427 -0.00733763 0)
(-0.0212746 -0.0075877 0)
(-0.00572741 -0.00779036 0)
(0.0102027 -0.00795736 0)
(0.0263777 -0.00804764 0)
(0.0426489 -0.00805024 0)
(0.0588337 -0.00795749 0)
(0.0746963 -0.00773461 0)
(0.0900005 -0.007399 0)
(0.104495 -0.00692349 0)
(0.11792 -0.0063356 0)
(0.130018 -0.00560369 0)
(0.140554 -0.00476868 0)
(0.149298 -0.00381856 0)
(0.156029 -0.00278187 0)
(0.160605 -0.00169035 0)
(0.162861 -0.000517165 0)
(0.16282 0.000605932 0)
(0.160518 0.00176208 0)
(0.155812 0.00285715 0)
(0.148926 0.00393189 0)
(0.140152 0.00485294 0)
(0.129659 0.00562801 0)
(0.117691 0.00629917 0)
(0.104394 0.00686345 0)
(0.0901724 0.0071912 0)
(0.0754293 0.00750365 0)
(0.0601394 0.00757706 0)
(0.0448728 0.00762182 0)
(0.0296101 0.00755434 0)
(0.0145979 0.00743967 0)
(0.000343619 0.007301 0)
(-0.0136707 0.00710191 0)
(-0.0275415 0.00690037 0)
(-0.041116 0.00667155 0)
(-0.0541807 0.00637734 0)
(-0.0666911 0.00606202 0)
(-0.0785687 0.00572583 0)
(-0.0897184 0.00533835 0)
(-0.100124 0.00496908 0)
(-0.109692 0.00454747 0)
(-0.118412 0.00413434 0)
(-0.12632 0.00373557 0)
(-0.13337 0.00332056 0)
(-0.13961 0.00292783 0)
(-0.14509 0.00256415 0)
(-0.14982 0.00220301 0)
(-0.153879 0.00188222 0)
(-0.157326 0.0015902 0)
(-0.160217 0.00130911 0)
(-0.162607 0.00107322 0)
(-0.164519 0.000848585 0)
(-0.16602 0.000643704 0)
(-0.167136 0.000457417 0)
(-0.167837 0.000268193 0)
(-0.168158 8.10512e-05 0)
(-0.16807 -0.000152229 0)
(-0.167512 -0.000413569 0)
(-0.166415 -0.000695529 0)
(-0.164674 -0.00102496 0)
(-0.162215 -0.0014058 0)
(-0.158962 -0.00181934 0)
(-0.154813 -0.00227902 0)
(-0.149686 -0.00279703 0)
(-0.143515 -0.00331393 0)
(-0.136247 -0.00389259 0)
(-0.127857 -0.00443721 0)
(-0.118318 -0.00499036 0)
(-0.107616 -0.00560364 0)
(-0.0957806 -0.00612507 0)
(-0.0828572 -0.00661898 0)
(-0.068887 -0.00718025 0)
(-0.0539554 -0.00758436 0)
(-0.0381774 -0.00805391 0)
(-0.0215613 -0.00832656 0)
(-0.00451141 -0.00854135 0)
(0.012833 -0.00878894 0)
(0.0305332 -0.00879595 0)
(0.0482574 -0.00869261 0)
(0.0657908 -0.00863976 0)
(0.0829101 -0.00832151 0)
(0.0993715 -0.0078913 0)
(0.11495 -0.00747489 0)
(0.129421 -0.00683907 0)
(0.14259 -0.00619431 0)
(0.154262 -0.00538664 0)
(0.164284 -0.00452096 0)
(0.172529 -0.00363076 0)
(0.178897 -0.00267804 0)
(0.183334 -0.00170901 0)
(0.18582 -0.000734531 0)
(0.186338 0.000223416 0)
(0.184946 0.00116174 0)
(0.181631 0.00208605 0)
(0.176538 0.00296603 0)
(0.169734 0.00376506 0)
(0.161336 0.00453996 0)
(0.151468 0.0052632 0)
(0.140261 0.00584589 0)
(0.127864 0.00642996 0)
(0.114424 0.00684609 0)
(0.100098 0.00727904 0)
(0.0850351 0.00764141 0)
(0.0693857 0.00780601 0)
(0.0532867 0.00801103 0)
(0.0351382 0.00814042 0)
(-0.156068 0.0027236 0)
(-0.159156 0.00221219 0)
(-0.16199 0.00171976 0)
(-0.164117 0.00123425 0)
(-0.165558 0.000751447 0)
(-0.166299 0.000279577 0)
(-0.166363 -0.000200109 0)
(-0.165732 -0.000684818 0)
(-0.164398 -0.00117575 0)
(-0.162349 -0.00167887 0)
(-0.15957 -0.00218934 0)
(-0.156044 -0.00271215 0)
(-0.151749 -0.00326259 0)
(-0.14666 -0.00381698 0)
(-0.140751 -0.00441196 0)
(-0.13399 -0.00500496 0)
(-0.126345 -0.00561511 0)
(-0.117789 -0.00628658 0)
(-0.10829 -0.00692881 0)
(-0.0978269 -0.00757671 0)
(-0.086386 -0.00831099 0)
(-0.0739548 -0.0089587 0)
(-0.0605402 -0.00958929 0)
(-0.0461578 -0.0103297 0)
(-0.0308321 -0.010897 0)
(-0.0146157 -0.0115872 0)
(0.00236578 -0.0120362 0)
(0.0200043 -0.0123912 0)
(0.0382355 -0.0128779 0)
(0.0568955 -0.0130206 0)
(0.0757791 -0.0130085 0)
(0.0946876 -0.0131058 0)
(0.113395 -0.0127939 0)
(0.131671 -0.0125367 0)
(0.149251 -0.0118915 0)
(0.165867 -0.0110648 0)
(0.181263 -0.0102069 0)
(0.195174 -0.00905958 0)
(0.207373 -0.00776441 0)
(0.21765 -0.00638272 0)
(0.225808 -0.00484317 0)
(0.231701 -0.00323241 0)
(0.23522 -0.00156007 0)
(0.236297 0.000161791 0)
(0.234916 0.00181356 0)
(0.23105 0.00349949 0)
(0.224847 0.00515939 0)
(0.21637 0.00656144 0)
(0.20582 0.00796603 0)
(0.193362 0.00929734 0)
(0.179207 0.0102519 0)
(0.163591 0.011224 0)
(0.1468 0.0118323 0)
(0.129056 0.0124243 0)
(0.110569 0.0128994 0)
(0.0917392 0.0130178 0)
(0.0726867 0.0130821 0)
(0.0535401 0.0130612 0)
(0.0347192 0.0127794 0)
(0.0163796 0.0125058 0)
(-0.001008 0.0120311 0)
(-0.017643 0.0115635 0)
(-0.0338282 0.0110147 0)
(-0.0492147 0.0103924 0)
(-0.0637765 0.00978149 0)
(-0.0774122 0.00912008 0)
(-0.0900888 0.00844784 0)
(-0.101848 0.00780012 0)
(-0.112641 0.00712721 0)
(-0.122541 0.00651958 0)
(-0.131548 0.00587106 0)
(-0.13961 0.00523866 0)
(-0.146839 0.00465104 0)
(-0.153199 0.00405692 0)