/*--------------------------------*- C++ -*----------------------------------*\
| =========                 |                                                 |
| \\      /  F ield         | OpenFOAM: The Open Source CFD Toolbox           |
|  \\    /   O peration     | Version:  3.0.1                                 |
|   \\  /    A nd           | Web:      www.OpenFOAM.org                      |
|    \\/     M anipulation  |                                                 |
\*---------------------------------------------------------------------------*/
FoamFile
{
    version     2.0;
    format      ascii;
    class       surfaceScalarField;
    location    "80.2";
    object      alphaPhi;
}
// * * * * * * * * * * * * * * * * * * * * * * * * * * * * * * * * * * * * * //

dimensions      [0 3 -1 0 0 0 0];

internalField   nonuniform List<scalar> 
42423
(
-3.62965e-05
1.65236e-05
-5.19389e-05
1.56424e-05
-6.67815e-05
1.48426e-05
-8.07445e-05
1.3963e-05
-9.37322e-05
1.29877e-05
-0.000105797
1.2065e-05
-0.000116886
1.1089e-05
-0.000127055
1.01685e-05
-0.000136302
9.24692e-06
-0.000144628
8.32655e-06
-0.000152083
7.45442e-06
-0.000158685
6.60264e-06
-0.000164461
5.77594e-06
-0.000169432
4.97084e-06
-0.00017364
4.2075e-06
-0.000177086
3.4466e-06
-0.000179799
2.71284e-06
-0.000181784
1.98458e-06
-0.000183075
1.29183e-06
-0.000183696
6.20727e-07
-0.000183568
-1.27739e-07
-0.000182705
-8.63803e-07
-0.000181161
-1.54334e-06
-0.000178815
-2.34656e-06
-0.000175733
-3.08197e-06
-0.000171828
-3.90484e-06
-0.000167129
-4.69917e-06
-0.000161629
-5.49951e-06
-0.00015518
-6.44967e-06
-0.000147862
-7.31805e-06
-0.00013968
-8.18192e-06
-0.000130432
-9.24741e-06
-0.000120241
-1.0191e-05
-0.00010899
-1.12515e-05
-9.66882e-05
-1.23017e-05
-8.35871e-05
-1.31011e-05
-6.93306e-05
-1.42565e-05
-5.41438e-05
-1.51869e-05
-3.81361e-05
-1.60077e-05
-2.11679e-05
-1.69683e-05
-3.5648e-06
-1.76031e-05
1.48002e-05
-1.8365e-05
3.36907e-05
-1.88905e-05
5.27349e-05
-1.90442e-05
7.193e-05
-1.91951e-05
9.1053e-05
-1.91231e-05
0.000109709
-1.86561e-05
0.000127782
-1.80728e-05
0.000145001
-1.72196e-05
0.000161033
-1.60315e-05
0.000175748
-1.47154e-05
0.000188788
-1.30395e-05
0.00020005
-1.12619e-05
0.000209328
-9.27827e-06
0.000216321
-6.99348e-06
0.000221023
-4.70144e-06
0.000223383
-2.36046e-06
0.000223268
1.14825e-07
0.000220767
2.5015e-06
0.000215821
4.94624e-06
0.000208617
7.2039e-06
0.000199291
9.32591e-06
0.000187896
1.13944e-05
0.000174682
1.32142e-05
0.000159874
1.48078e-05
0.000143694
1.61804e-05
0.00012642
1.72737e-05
0.000108249
1.81716e-05
8.95856e-05
1.86631e-05
7.0476e-05
1.91097e-05
5.12856e-05
1.91903e-05
3.22363e-05
1.90493e-05
1.34322e-05
1.8804e-05
-4.83913e-06
1.82714e-05
-2.25065e-05
1.76674e-05
-3.94851e-05
1.69785e-05
-5.56215e-05
1.61364e-05
-7.09433e-05
1.53217e-05
-8.52343e-05
1.4291e-05
-9.85975e-05
1.33631e-05
-0.000111038
1.24401e-05
-0.00012241
1.13722e-05
-0.000132826
1.04153e-05
-0.000142287
9.4612e-06
-0.000150645
8.35813e-06
-0.000158067
7.42113e-06
-0.000164489
6.42186e-06
-0.000169812
5.32304e-06
-0.000174171
4.35845e-06
-0.00017745
3.2786e-06
-0.000179741
2.2909e-06
-0.000181103
1.36136e-06
-0.000181624
5.2152e-07
-0.000181367
-2.57522e-07
-0.000180395
-9.72751e-07
-0.00017879
-1.6047e-06
-0.000176554
-2.23609e-06
-0.000173715
-2.84009e-06
-0.00017026
-3.45518e-06
-0.000166153
-4.10676e-06
-0.000161466
-4.68691e-06
-0.000156061
-5.40573e-06
-0.000149981
-6.08011e-06
-0.000143094
-6.88719e-06
-0.000135434
-7.65975e-06
-0.000126902
-8.53204e-06
-0.000117542
-9.36014e-06
-0.000107351
-1.01917e-05
-9.62571e-05
-1.10938e-05
-8.43375e-05
-1.19197e-05
-7.15509e-05
-1.27867e-05
-5.79521e-05
-1.35989e-05
-4.35664e-05
-1.43858e-05
-2.84339e-05
-1.51325e-05
-1.26366e-05
-1.57974e-05
3.74938e-06
-1.6386e-05
2.06439e-05
-1.68946e-05
3.79223e-05
-1.72785e-05
5.54589e-05
-1.75367e-05
7.31078e-05
-1.7649e-05
9.06937e-05
-1.7586e-05
0.000108029
-1.73355e-05
0.000124891
-1.68618e-05
0.000141063
-1.61721e-05
0.000156322
-1.52588e-05
0.000170419
-1.40969e-05
0.00018309
-1.26716e-05
0.000194125
-1.10346e-05
0.00020327
-9.14568e-06
0.000210354
-7.08362e-06
0.000215182
-4.82819e-06
0.000217686
-2.50428e-06
0.00021774
-5.39428e-08
0.000215365
2.37552e-06
0.000210462
4.90277e-06
0.000203251
7.21078e-06
0.000193771
9.48084e-06
0.000182219
1.15511e-05
0.000168779
1.34406e-05
0.000153683
1.50963e-05
0.000137191
1.64921e-05
0.000119565
1.76257e-05
0.000101067
1.84977e-05
8.19755e-05
1.90916e-05
6.25734e-05
1.94022e-05
4.31272e-05
1.94462e-05
2.38631e-05
1.92642e-05
4.98453e-06
1.88785e-05
-1.32427e-05
1.82272e-05
-3.07513e-05
1.75086e-05
-4.73465e-05
1.65952e-05
-6.29435e-05
1.5597e-05
-7.74942e-05
1.45507e-05
-9.09325e-05
1.34383e-05
-0.000103287
1.23542e-05
-0.000114516
1.12295e-05
-0.000124644
1.01279e-05
-0.000133712
9.06767e-06
-0.000141761
8.04914e-06
-0.000148889
7.1282e-06
-0.000155082
6.19248e-06
-0.000160419
5.33781e-06
-0.000164959
4.5397e-06
-0.000168742
3.78321e-06
-0.00017181
3.06763e-06
-0.000174208
2.39818e-06
-0.000175927
1.7191e-06
-0.000177021
1.09431e-06
-0.000177496
4.74764e-07
-0.000177415
-8.15527e-08
-0.000176689
-7.25544e-07
-0.000175352
-1.33743e-06
-0.000173406
-1.94552e-06
-0.000170859
-2.54661e-06
-0.000167706
-3.15345e-06
-0.000163951
-3.75534e-06
-0.000159564
-4.38621e-06
-0.000154519
-5.04569e-06
-0.000148772
-5.74677e-06
-0.00014243
-6.34161e-06
-0.000135312
-7.11829e-06
-0.000127451
-7.86103e-06
-0.000118823
-8.62764e-06
-0.000109439
-9.38454e-06
-9.92368e-05
-1.0202e-05
-8.81851e-05
-1.10517e-05
-7.63894e-05
-1.17957e-05
-6.37204e-05
-1.26691e-05
-5.02145e-05
-1.35059e-05
-3.59e-05
-1.43145e-05
-2.07331e-05
-1.5167e-05
-5.03014e-06
-1.5703e-05
1.13184e-05
-1.63486e-05
2.81212e-05
-1.68029e-05
4.52325e-05
-1.71114e-05
6.24842e-05
-1.72518e-05
7.96827e-05
-1.71986e-05
9.66209e-05
-1.69382e-05
0.000113075
-1.64541e-05
0.000128796
-1.57214e-05
0.000143544
-1.47482e-05
0.000157073
-1.35288e-05
0.000169115
-1.20419e-05
0.000179451
-1.0336e-05
0.00018781
-8.35866e-06
0.000194043
-6.23394e-06
0.000197964
-3.92053e-06
0.000199517
-1.55323e-06
0.000198629
8.87862e-07
0.000195277
3.3521e-06
0.000189446
5.83068e-06
0.000181367
8.07938e-06
0.000171202
1.0165e-05
0.000159032
1.21697e-05
0.000145281
1.37508e-05
0.000130178
1.51029e-05
0.000113899
1.62792e-05
9.68127e-05
1.70865e-05
7.9161e-05
1.76517e-05
6.11953e-05
1.79657e-05
4.30931e-05
1.81022e-05
2.51371e-05
1.7956e-05
7.46466e-06
1.76725e-05
-9.80278e-06
1.72674e-05
-2.64405e-05
1.66377e-05
-4.232e-05
1.58795e-05
-5.73274e-05
1.50074e-05
-7.14732e-05
1.41459e-05
-8.45996e-05
1.31264e-05
-9.67258e-05
1.21262e-05
-0.000107831
1.11054e-05
-0.000117937
1.01062e-05
-0.000127139
9.20131e-06
-0.000135375
8.23656e-06
-0.000142755
7.38003e-06
-0.000149279
6.52375e-06
-0.000154996
5.71692e-06
-0.000159985
4.98926e-06
-0.00016423
4.24498e-06
-0.000167864
3.63393e-06
-0.000170826
2.96218e-06
-0.000173218
2.3922e-06
-0.000175064
1.84566e-06
-0.00017644
1.37644e-06
-0.00017736
9.20114e-07
-0.000177808
4.4767e-07
-0.0001778
-7.71883e-09
-0.000177236
-5.63598e-07
-0.000176093
-1.14265e-06
-0.000174467
-1.62619e-06
-0.000172159
-2.30784e-06
-0.000169188
-2.97029e-06
-0.000165525
-3.66296e-06
-0.000161131
-4.39384e-06
-0.000156074
-5.05735e-06
-0.000150289
-5.78479e-06
-0.000143967
-6.32178e-06
-0.000136946
-7.02046e-06
-0.000129261
-7.6853e-06
-0.000120936
-8.32431e-06
-0.000111905
-9.03142e-06
-0.000102098
-9.80619e-06
-9.16335e-05
-1.04646e-05
-8.02349e-05
-1.13985e-05
-6.80698e-05
-1.2165e-05
-5.50371e-05
-1.30327e-05
-4.11942e-05
-1.38429e-05
-2.65071e-05
-1.46871e-05
-1.11678e-05
-1.53392e-05
4.78257e-06
-1.59505e-05
2.12211e-05
-1.64386e-05
3.80332e-05
-1.68121e-05
5.49364e-05
-1.69034e-05
7.18248e-05
-1.68885e-05
8.84232e-05
-1.65984e-05
0.000104684
-1.62612e-05
0.000120342
-1.56575e-05
0.000135331
-1.4989e-05
0.000149334
-1.40028e-05
0.0001623
-1.29662e-05
0.000173948
-1.16485e-05
0.000184043
-1.00953e-05
0.000192273
-8.22989e-06
0.000198249
-5.97597e-06
0.000201793
-3.54358e-06
0.000202534
-7.40958e-07
0.000200774
1.75948e-06
0.000196364
4.4097e-06
0.000189223
7.14155e-06
0.000179598
9.62475e-06
0.000167559
1.20393e-05
0.000153404
1.41552e-05
0.000137561
1.58424e-05
0.000120427
1.71345e-05
0.000102369
1.80573e-05
8.3827e-05
1.85423e-05
6.50581e-05
1.87689e-05
4.63904e-05
1.86677e-05
2.80496e-05
1.83408e-05
1.01829e-05
1.78667e-05
-6.96887e-06
1.71518e-05
-2.32779e-05
1.6309e-05
-3.86733e-05
1.53954e-05
-5.3075e-05
1.44017e-05
-6.65056e-05
1.34306e-05
-7.89443e-05
1.24387e-05
-9.0372e-05
1.14276e-05
-0.00010083
1.04584e-05
-0.000110319
9.48883e-06
-0.000118889
8.57028e-06
-0.000126567
7.67789e-06
-0.000133378
6.81021e-06
-0.000139361
5.98319e-06
-0.000144549
5.18862e-06
-0.000148968
4.41836e-06
-0.000152645
3.67729e-06
-0.000155597
2.95215e-06
-0.000157837
2.24004e-06
-0.000159365
1.52778e-06
-0.000160202
8.36989e-07
-0.000160384
1.81487e-07
-0.000159981
-4.0289e-07
-0.00015895
-1.03022e-06
-0.000157244
-1.70621e-06
-0.000154817
-2.4273e-06
-0.000151679
-3.13817e-06
-0.000147862
-3.81654e-06
-0.000143193
-4.66932e-06
-0.000137699
-5.49431e-06
-0.000131495
-6.20323e-06
-0.000124331
-7.16461e-06
-0.00011631
-8.02061e-06
-0.000107407
-8.90296e-06
-9.75818e-05
-9.82544e-06
-8.68824e-05
-1.06994e-05
-7.51236e-05
-1.17588e-05
-6.24944e-05
-1.26293e-05
-4.90391e-05
-1.34553e-05
-3.45062e-05
-1.45329e-05
-1.91535e-05
-1.53528e-05
-3.17268e-06
-1.59808e-05
1.36429e-05
-1.68156e-05
3.09526e-05
-1.73097e-05
4.88978e-05
-1.79453e-05
6.71372e-05
-1.82395e-05
8.54203e-05
-1.82831e-05
0.0001038
-1.83796e-05
0.000122012
-1.82123e-05
0.000139723
-1.77111e-05
0.000156774
-1.70509e-05
0.000172954
-1.61797e-05
0.000187976
-1.50227e-05
0.000201559
-1.3583e-05
0.000213427
-1.18677e-05
0.000223386
-9.95925e-06
0.000231249
-7.86311e-06
-5.85827e-06
-3.63289e-05
3.30505e-05
-5.1974e-05
3.12874e-05
-6.68197e-05
2.96883e-05
-8.0786e-05
2.79293e-05
-9.37764e-05
2.59781e-05
-0.000105842
2.41305e-05
-0.000116931
2.21782e-05
-0.0001271
2.03378e-05
-0.000136348
1.84947e-05
-0.000144675
1.66539e-05
-0.000152131
1.49099e-05
-0.000158736
1.32078e-05
-0.000164512
1.15515e-05
-0.000169484
9.9431e-06
-0.000173696
8.41918e-06
-0.000177139
6.88976e-06
-0.00017985
5.42433e-06
-0.000181841
3.97538e-06
-0.000183131
2.58184e-06
-0.000183748
1.23786e-06
-0.000183616
-2.60358e-07
-0.000182752
-1.72746e-06
-0.00018121
-3.08531e-06
-0.000178864
-4.69268e-06
-0.000175783
-6.16313e-06
-0.000171878
-7.8096e-06
-0.000167179
-9.39855e-06
-0.000161681
-1.09973e-05
-0.000155233
-1.28979e-05
-0.000147915
-1.46355e-05
-0.000139735
-1.63623e-05
-0.000130486
-1.84963e-05
-0.000120297
-2.03796e-05
-0.000109044
-2.25045e-05
-9.67425e-05
-2.46036e-05
-8.36378e-05
-2.62058e-05
-6.93784e-05
-2.8516e-05
-5.41894e-05
-3.03759e-05
-3.81756e-05
-3.20215e-05
-2.1203e-05
-3.39409e-05
-3.59558e-06
-3.52106e-05
1.47758e-05
-3.67364e-05
3.36767e-05
-3.77915e-05
5.27307e-05
-3.80983e-05
7.19351e-05
-3.83995e-05
9.10705e-05
-3.82586e-05
0.000109742
-3.73277e-05
0.000127825
-3.61559e-05
0.00014506
-3.44548e-05
0.000161104
-3.20756e-05
0.000175832
-2.94433e-05
0.000188884
-2.60915e-05
0.000200156
-2.25336e-05
0.000209448
-1.85707e-05
0.000216442
-1.39874e-05
0.000221153
-9.41194e-06
0.000223523
-4.73132e-06
0.000223398
2.40302e-07
0.000220889
5.00991e-06
0.000215942
9.894e-06
0.000208731
1.44145e-05
0.000199396
1.86612e-05
0.000187989
2.28012e-05
0.000174761
2.64421e-05
0.00015994
2.96285e-05
0.000143752
3.23682e-05
0.000126468
3.45583e-05
0.000108307
3.63322e-05
8.96108e-05
3.73594e-05
7.04907e-05
3.82298e-05
5.12918e-05
3.83892e-05
3.22233e-05
3.81179e-05
1.34069e-05
3.76204e-05
-4.86407e-06
3.65423e-05
-2.2547e-05
3.53503e-05
-3.95372e-05
3.39687e-05
-5.56762e-05
3.22754e-05
-7.10001e-05
3.06455e-05
-8.52933e-05
2.85842e-05
-9.86592e-05
2.67289e-05
-0.000111101
2.4882e-05
-0.000122471
2.27424e-05
-0.000132884
2.08277e-05
-0.000142352
1.89289e-05
-0.000150705
1.67105e-05
-0.000158119
1.48349e-05
-0.000164539
1.2842e-05
-0.000169855
1.06391e-05
-0.000174215
8.71809e-06
-0.000177487
6.54947e-06
-0.000179775
4.57879e-06
-0.000181131
2.71696e-06
-0.00018164
1.03071e-06
-0.000181374
-5.235e-07
-0.000180393
-1.95434e-06
-0.000178778
-3.22017e-06
-0.000176535
-4.47902e-06
-0.000173705
-5.67016e-06
-0.000170252
-6.90861e-06
-0.000166148
-8.21083e-06
-0.000161481
-9.35398e-06
-0.00015605
-1.08375e-05
-0.000149984
-1.21458e-05
-0.000143099
-1.37722e-05
-0.000135436
-1.53237e-05
-0.00012691
-1.70579e-05
-0.000117565
-1.87052e-05
-0.000107365
-2.03915e-05
-9.62632e-05
-2.2196e-05
-8.43492e-05
-2.38338e-05
-7.15565e-05
-2.55795e-05
-5.796e-05
-2.71954e-05
-4.35726e-05
-2.87733e-05
-2.84324e-05
-3.02728e-05
-1.26319e-05
-3.1598e-05
3.75558e-06
-3.27735e-05
2.06488e-05
-3.37879e-05
3.79342e-05
-3.45639e-05
5.54779e-05
-3.50804e-05
7.31189e-05
-3.529e-05
9.07028e-05
-3.517e-05
0.000108046
-3.46789e-05
0.000124903
-3.37186e-05
0.000141077
-3.23465e-05
0.000156336
-3.05174e-05
0.00017044
-2.82013e-05
0.000183093
-2.53244e-05
0.000194117
-2.20586e-05
0.000203266
-1.82951e-05
0.000210352
-1.4169e-05
0.000215165
-9.64112e-06
0.000217653
-4.99323e-06
0.00021769
-8.99909e-08
0.000215297
4.76853e-06
0.000210387
9.8123e-06
0.000203149
1.44492e-05
0.000193642
1.89872e-05
0.000182082
2.31113e-05
0.000168651
2.68716e-05
0.000153526
3.02215e-05
0.000137025
3.29927e-05
0.000119387
3.52641e-05
0.000100871
3.70141e-05
8.1775e-05
3.81873e-05
6.23662e-05
3.8811e-05
4.28953e-05
3.89172e-05
2.36311e-05
3.85284e-05
4.75867e-06
3.7751e-05
-1.35007e-05
3.64866e-05
-3.09889e-05
3.49968e-05
-4.75833e-05
3.31897e-05
-6.31698e-05
3.11835e-05
-7.77045e-05
2.90854e-05
-9.11649e-05
2.68987e-05
-0.000103497
2.46864e-05
-0.000114714
2.24462e-05
-0.00012483
2.02445e-05
-0.000133889
1.81265e-05
-0.000141904
1.60639e-05
-0.000149056
1.42808e-05
-0.000155236
1.23721e-05
-0.000160566
1.06679e-05
-0.000165096
9.06939e-06
-0.000168869
7.5561e-06
-0.000171922
6.12129e-06
-0.000174316
4.79165e-06
-0.000176044
3.44745e-06
-0.000177135
2.18521e-06
-0.000177612
9.51887e-07
-0.000177503
-1.9047e-07
-0.000176776
-1.45239e-06
-0.000175428
-2.68535e-06
-0.000173473
-3.90052e-06
-0.000170925
-5.09474e-06
-0.000167764
-6.31518e-06
-0.000164003
-7.51619e-06
-0.000159623
-8.76627e-06
-0.000154573
-1.00954e-05
-0.000148819
-1.15007e-05
-0.000142483
-1.26775e-05
-0.000135363
-1.42383e-05
-0.000127504
-1.57202e-05
-0.000118878
-1.72531e-05
-0.000109489
-1.87743e-05
-9.92834e-05
-2.04072e-05
-8.82331e-05
-2.21021e-05
-7.64453e-05
-2.35835e-05
-6.37797e-05
-2.53347e-05
-5.02795e-05
-2.70062e-05
-3.5968e-05
-2.8626e-05
-2.08239e-05
-3.03112e-05
-5.10387e-06
-3.14231e-05
1.12439e-05
-3.26964e-05
2.80434e-05
-3.36025e-05
4.51513e-05
-3.42194e-05
6.24013e-05
-3.45018e-05
7.9604e-05
-3.44014e-05
9.65367e-05
-3.3871e-05
0.000113013
-3.29301e-05
0.00012872
-3.14288e-05
0.000143465
-2.94934e-05
0.000156992
-2.70558e-05
0.000169033
-2.40829e-05
0.000179362
-2.06649e-05
0.000187721
-1.67184e-05
0.00019396
-1.24723e-05
0.000197885
-7.84631e-06
0.000199427
-3.0949e-06
0.00019852
1.79497e-06
0.000195152
6.71949e-06
0.000189353
1.16298e-05
0.000181239
1.6194e-05
0.000171033
2.0371e-05
0.000158881
2.43215e-05
0.000145125
2.75065e-05
0.00012998
3.02483e-05
0.000113735
3.25237e-05
9.66499e-05
3.41716e-05
7.89878e-05
3.53139e-05
6.10044e-05
3.5949e-05
4.29048e-05
3.62018e-05
2.49349e-05
3.59259e-05
7.24719e-06
3.53602e-05
-9.99123e-06
3.45059e-05
-2.66215e-05
3.32681e-05
-4.25003e-05
3.17583e-05
-5.75025e-05
3.00096e-05
-7.16485e-05
2.8292e-05
-8.47741e-05
2.6252e-05
-9.68952e-05
2.42474e-05
-0.000107993
2.22035e-05
-0.000118113
2.02258e-05
-0.000127277
1.8365e-05
-0.000135513
1.64727e-05
-0.000142883
1.47509e-05
-0.0001494
1.304e-05
-0.000155121
1.14386e-05
-0.000160098
9.96577e-06
-0.000164327
8.47454e-06
-0.000167955
7.26198e-06
-0.000170915
5.92196e-06
-0.000173301
4.77787e-06
-0.000175136
3.68143e-06
-0.00017651
2.75016e-06
-0.000177434
1.84418e-06
-0.000177884
8.98282e-07
-0.000177873
-1.91829e-08
-0.000177317
-1.11912e-06
-0.000176187
-2.27208e-06
-0.000174554
-3.25908e-06
-0.000172256
-4.60582e-06
-0.000169283
-5.9432e-06
-0.000165622
-7.32426e-06
-0.000161232
-8.78379e-06
-0.000156175
-1.01138e-05
-0.0001504
-1.15596e-05
-0.000144063
-1.26586e-05
-0.000137033
-1.40497e-05
-0.000129348
-1.53706e-05
-0.000121023
-1.66495e-05
-0.000111993
-1.80612e-05
-0.00010218
-1.96187e-05
-9.17155e-05
-2.09291e-05
-8.03165e-05
-2.27975e-05
-6.81208e-05
-2.43606e-05
-5.51058e-05
-2.60477e-05
-4.12474e-05
-2.77013e-05
-2.65584e-05
-2.93762e-05
-1.12227e-05
-3.06749e-05
4.74328e-06
-3.19165e-05
2.11896e-05
-3.28849e-05
3.80096e-05
-3.36323e-05
5.49173e-05
-3.38111e-05
7.18205e-05
-3.37917e-05
8.84261e-05
-3.32041e-05
0.000104693
-3.25286e-05
0.000120355
-3.13191e-05
0.000135348
-2.99825e-05
0.000149353
-2.8008e-05
0.000162341
-2.59542e-05
0.00017399
-2.32974e-05
0.000184096
-2.02016e-05
0.000192358
-1.64917e-05
0.000198362
-1.198e-05
0.000201923
-7.10524e-06
0.000202673
-1.49039e-06
0.000200913
3.51955e-06
0.000196506
8.81589e-06
0.00018936
1.42879e-05
0.000179725
1.92601e-05
0.000167671
2.40931e-05
0.000153499
2.83273e-05
0.000137639
3.17017e-05
0.000120488
3.42863e-05
0.000102415
3.613e-05
8.38574e-05
3.70998e-05
6.50745e-05
3.75518e-05
4.63945e-05
3.73476e-05
2.80444e-05
3.66909e-05
1.01698e-05
3.57412e-05
-6.98875e-06
3.43103e-05
-2.33002e-05
3.26204e-05
-3.86973e-05
3.07925e-05
-5.31001e-05
2.88045e-05
-6.65312e-05
2.68617e-05
-7.89697e-05
2.48772e-05
-9.03964e-05
2.28544e-05
-0.000100854
2.09158e-05
-0.000110341
1.8976e-05
-0.00011891
1.71394e-05
-0.000126589
1.53569e-05
-0.0001334
1.36213e-05
-0.000139382
1.1965e-05
-0.000144569
1.03758e-05
-0.000148986
8.83467e-06
-0.000152663
7.35503e-06
-0.000155623
5.91216e-06
-0.000157864
4.48057e-06
-0.000159398
3.06197e-06
-0.00016024
1.67886e-06
-0.000160418
3.59726e-07
-0.000160017
-8.04282e-07
-0.000158992
-2.05474e-06
-0.000157288
-3.41051e-06
-0.00015486
-4.85547e-06
-0.00015172
-6.27835e-06
-0.000147904
-7.63203e-06
-0.000143235
-9.33869e-06
-0.000137742
-1.09872e-05
-0.000131541
-1.24044e-05
-0.000124375
-1.43302e-05
-0.000116346
-1.60501e-05
-0.000107455
-1.77936e-05
-9.76273e-05
-1.96533e-05
-8.69317e-05
-2.1395e-05
-7.51722e-05
-2.35184e-05
-6.25393e-05
-2.52622e-05
-4.90723e-05
-2.69222e-05
-3.45496e-05
-2.90556e-05
-1.9193e-05
-3.07095e-05
-3.20624e-06
-3.19676e-05
1.36158e-05
-3.36377e-05
3.09286e-05
-3.46225e-05
4.88775e-05
-3.58943e-05
6.71207e-05
-3.64827e-05
8.54063e-05
-3.65686e-05
0.000103791
-3.67649e-05
0.000122006
-3.64273e-05
0.000139729
-3.54338e-05
0.000156797
-3.41186e-05
0.000172981
-3.23643e-05
0.000188011
-3.0053e-05
0.000201601
-2.71731e-05
0.000213479
-2.37451e-05
0.000223456
-1.99367e-05
0.000231337
-1.5744e-05
-1.17177e-05
-3.63939e-05
4.95841e-05
-5.20441e-05
4.69376e-05
-6.68939e-05
4.45382e-05
-8.08632e-05
4.18986e-05
-9.38562e-05
3.8971e-05
-0.000105924
3.61986e-05
-0.000117016
3.32702e-05
-0.000127185
3.0507e-05
-0.000136431
2.77403e-05
-0.000144758
2.49811e-05
-0.000152215
2.2367e-05
-0.000158817
1.98094e-05
-0.000164592
1.73268e-05
-0.000169572
1.49228e-05
-0.000173776
1.26228e-05
-0.000177219
1.03332e-05
-0.000179931
8.1363e-06
-0.00018192
5.96403e-06
-0.000183212
3.87453e-06
-0.00018382
1.84546e-06
-0.000183677
-4.0344e-07
-0.000182808
-2.59689e-06
-0.000181263
-4.63013e-06
-0.000178919
-7.03599e-06
-0.00017584
-9.24209e-06
-0.000171938
-1.17117e-05
-0.000167243
-1.40941e-05
-0.000161748
-1.64919e-05
-0.000155302
-1.93442e-05
-0.000147987
-2.19502e-05
-0.000139809
-2.45402e-05
-0.000130562
-2.77436e-05
-0.000120375
-3.05669e-05
-0.000109125
-3.37547e-05
-9.68269e-05
-3.69014e-05
-8.37153e-05
-3.93175e-05
-6.94537e-05
-4.27776e-05
-5.42637e-05
-4.5566e-05
-3.82404e-05
-4.80448e-05
-2.12608e-05
-5.09206e-05
-3.64795e-06
-5.28234e-05
1.47417e-05
-5.51261e-05
3.36579e-05
-5.67077e-05
5.27255e-05
-5.71659e-05
7.19455e-05
-5.76195e-05
9.1101e-05
-5.74141e-05
0.000109791
-5.60176e-05
0.000127898
-5.42634e-05
0.000145155
-5.17113e-05
0.000161215
-4.81363e-05
0.00017596
-4.41882e-05
0.000189031
-3.9163e-05
0.00020032
-3.38218e-05
0.000209628
-2.78788e-05
0.000216636
-2.09957e-05
0.000221353
-1.41291e-05
0.000223733
-7.11138e-06
0.000223592
3.81717e-07
0.000221065
7.53615e-06
0.000216118
1.48416e-05
0.000208898
2.16343e-05
0.000199549
2.80104e-05
0.000188128
3.42217e-05
0.000174888
3.9682e-05
0.00016005
4.44667e-05
0.000143839
4.85791e-05
0.000126534
5.18638e-05
0.00010836
5.4506e-05
8.96403e-05
5.6079e-05
7.05086e-05
5.73614e-05
5.1285e-05
5.76128e-05
3.22012e-05
5.72017e-05
1.33707e-05
5.64509e-05
-4.90717e-06
5.48202e-05
-2.25947e-05
5.30379e-05
-3.96019e-05
5.09758e-05
-5.5746e-05
4.84195e-05
-7.10787e-05
4.59781e-05
-8.53728e-05
4.28783e-05
-9.87342e-05
4.00902e-05
-0.000111189
3.73367e-05
-0.000122562
3.41152e-05
-0.000132968
3.12338e-05
-0.000142443
2.84037e-05
-0.000150793
2.50598e-05
-0.000158205
2.22467e-05
-0.000164636
1.92731e-05
-0.000169948
1.59509e-05
-0.000174309
1.3078e-05
-0.000177585
9.82536e-06
-0.000179873
6.86702e-06
-0.000181227
4.07037e-06
-0.000181724
1.52704e-06
-0.000181451
-7.96337e-07
-0.000180468
-2.93764e-06
-0.000178856
-4.83294e-06
-0.000176625
-6.70954e-06
-0.000173799
-8.49669e-06
-0.000170364
-1.03433e-05
-0.000166293
-1.22824e-05
-0.000161576
-1.40717e-05
-0.000156195
-1.62186e-05
-0.000150137
-1.82033e-05
-0.000143266
-2.06434e-05
-0.000135605
-2.29852e-05
-0.000127111
-2.55521e-05
-0.000117737
-2.80786e-05
-0.000107571
-3.0558e-05
-9.64923e-05
-3.32749e-05
-8.45639e-05
-3.57622e-05
-7.17909e-05
-3.83525e-05
-5.81718e-05
-4.08146e-05
-4.37603e-05
-4.31848e-05
-2.86258e-05
-4.54073e-05
-1.28152e-05
-4.74086e-05
3.58762e-06
-4.91764e-05
2.05109e-05
-5.07112e-05
3.77814e-05
-5.18345e-05
5.53404e-05
-5.26395e-05
7.29892e-05
-5.29389e-05
9.05898e-05
-5.27706e-05
0.000107956
-5.20448e-05
0.000124829
-5.05916e-05
0.00014102
-4.85374e-05
0.000156296
-4.57937e-05
0.000170421
-4.23269e-05
0.000183091
-3.79941e-05
0.000194123
-3.30908e-05
0.000203288
-2.74593e-05
0.000210358
-2.12397e-05
0.000215191
-1.44739e-05
0.000217677
-7.47889e-06
0.000217706
-1.19331e-07
0.000215288
7.18691e-06
0.000210379
1.47206e-05
0.000203117
2.17117e-05
0.000193593
2.8511e-05
0.000182036
3.46685e-05
0.000168548
4.03599e-05
0.000153413
4.53568e-05
0.000136889
4.95158e-05
0.00011922
5.29336e-05
0.000100683
5.55514e-05
8.15776e-05
5.72925e-05
6.2152e-05
5.82366e-05
4.26494e-05
5.84198e-05
2.33579e-05
5.78199e-05
4.49526e-06
5.66136e-05
-1.38056e-05
5.47875e-05
-3.1298e-05
5.24892e-05
-4.79026e-05
4.97943e-05
-6.34824e-05
4.67634e-05
-7.79813e-05
4.35844e-05
-9.14848e-05
4.04022e-05
-0.000103803
3.70048e-05
-0.000115011
3.36536e-05
-0.000125138
3.03717e-05
-0.000134191
2.71801e-05
-0.000142194
2.40665e-05
-0.000149329
2.1416e-05
-0.000155499
1.85418e-05
-0.000160825
1.5994e-05
-0.000165355
1.35992e-05
-0.000169126
1.13279e-05
-0.000172193
9.18806e-06
-0.00017457
7.1687e-06
-0.00017631
5.18767e-06
-0.0001774
3.27495e-06
-0.000177884
1.43549e-06
-0.000177759
-3.14884e-07
-0.000177025
-2.18636e-06
-0.000175671
-4.04016e-06
-0.000173715
-5.85591e-06
-0.000171167
-7.64284e-06
-0.000168003
-9.47888e-06
-0.000164247
-1.12729e-05
-0.000159855
-1.31579e-05
-0.000154791
-1.51598e-05
-0.000149116
-1.71748e-05
-0.000142723
-1.90709e-05
-0.000135609
-2.13518e-05
-0.000127754
-2.35754e-05
-0.000119132
-2.58753e-05
-0.00010973
-2.81763e-05
-9.95334e-05
-3.06038e-05
-8.84779e-05
-3.31576e-05
-7.66933e-05
-3.53682e-05
-6.40022e-05
-3.80258e-05
-5.05171e-05
-4.04913e-05
-3.61962e-05
-4.29469e-05
-2.11034e-05
-4.54039e-05
-5.32388e-06
-4.72027e-05
1.10385e-05
-4.90588e-05
2.78394e-05
-5.04034e-05
4.49583e-05
-5.13383e-05
6.22273e-05
-5.17709e-05
7.94638e-05
-5.1638e-05
9.64024e-05
-5.08096e-05
0.000112871
-4.9399e-05
0.000128617
-4.71749e-05
0.00014338
-4.4256e-05
0.000156937
-4.06131e-05
0.000168974
-3.61196e-05
0.000179314
-3.10052e-05
0.00018769
-2.50944e-05
0.000193935
-1.87173e-05
0.00019787
-1.1781e-05
0.000199414
-4.63897e-06
0.000198482
2.72663e-06
0.000195097
1.01045e-05
0.000189313
1.74139e-05
0.000181168
2.43387e-05
0.000170941
3.05977e-05
0.000158784
3.64792e-05
0.000144998
4.12922e-05
0.000129832
4.54143e-05
0.000113608
4.87476e-05
9.65314e-05
5.12484e-05
7.87927e-05
5.30526e-05
6.07918e-05
5.395e-05
4.26863e-05
5.43072e-05
2.46972e-05
5.39151e-05
6.99272e-06
5.30647e-05
-1.02534e-05
5.1752e-05
-2.68803e-05
4.9895e-05
-4.2768e-05
4.7646e-05
-5.78218e-05
4.50633e-05
-7.19313e-05
4.24015e-05
-8.50644e-05
3.93851e-05
-9.71788e-05
3.63619e-05
-0.000108277
3.33019e-05
-0.000118413
3.03614e-05
-0.000127546
2.74986e-05
-0.00013578
2.47064e-05
-0.000143142
2.21124e-05
-0.00014966
1.95587e-05
-0.000155391
1.71688e-05
-0.000160356
1.49308e-05
-0.000164622
1.27406e-05
-0.000168203
1.08433e-05
-0.000171128
8.84673e-06
-0.000173534
7.18428e-06
-0.000175383
5.53049e-06
-0.000176763
4.12999e-06
-0.000177673
2.75457e-06
-0.000178122
1.34769e-06
-0.000178099
-4.26446e-08
-0.000177551
-1.6663e-06
-0.000176468
-3.35498e-06
-0.000174791
-4.93633e-06
-0.000172504
-6.89292e-06
-0.000169531
-8.91551e-06
-0.00016586
-1.09955e-05
-0.000161472
-1.31715e-05
-0.000156397
-1.51883e-05
-0.000150662
-1.72943e-05
-0.000144268
-1.90527e-05
-0.000137235
-2.10817e-05
-0.000129544
-2.30621e-05
-0.000121199
-2.49942e-05
-0.000112164
-2.70956e-05
-0.000102395
-2.93879e-05
-9.18729e-05
-3.1451e-05
-8.04684e-05
-3.42019e-05
-6.82507e-05
-3.65782e-05
-5.52485e-05
-3.90498e-05
-4.13605e-05
-4.15893e-05
-2.66581e-05
-4.40786e-05
-1.13247e-05
-4.60084e-05
4.66728e-06
-4.79084e-05
2.11211e-05
-4.93388e-05
3.79652e-05
-5.04764e-05
5.48868e-05
-5.07327e-05
7.18031e-05
-5.07082e-05
8.84171e-05
-4.98181e-05
0.000104697
-4.88085e-05
0.000120369
-4.69911e-05
0.000135378
-4.49916e-05
0.000149391
-4.20209e-05
0.000162402
-3.8966e-05
0.000174047
-3.49419e-05
0.000184176
-3.03304e-05
0.000192454
-2.47704e-05
0.000198503
-1.80293e-05
0.000202116
-1.0718e-05
0.000202889
-2.26331e-06
0.00020112
5.28864e-06
0.000196719
1.32167e-05
0.000189564
2.1443e-05
0.000179909
2.89148e-05
0.00016783
3.61726e-05
0.000153628
4.25291e-05
0.000137739
4.75907e-05
0.000120556
5.14692e-05
0.000102457
5.42285e-05
8.38751e-05
5.5682e-05
6.50697e-05
5.63572e-05
4.63698e-05
5.60476e-05
2.80053e-05
5.50554e-05
1.01198e-05
5.36267e-05
-7.04831e-06
5.14785e-05
-2.3366e-05
4.89381e-05
-3.87669e-05
4.61933e-05
-5.31718e-05
4.32094e-05
-6.66034e-05
4.02933e-05
-7.90409e-05
3.73147e-05
-9.04659e-05
3.42793e-05
-0.00010092
3.13702e-05
-0.000110404
2.84598e-05
-0.00011897
2.5705e-05
-0.000126642
2.30294e-05
-0.000133446
2.04253e-05
-0.000139424
1.79426e-05
-0.000144607
1.55587e-05
-0.000149021
1.32489e-05
-0.000152694
1.10285e-05
-0.000155642
8.8599e-06
-0.000157891
6.72918e-06
-0.000159439
4.61025e-06
-0.00016029
2.52982e-06
-0.000160471
5.40951e-07
-0.000160075
-1.20086e-06
-0.000159054
-3.07536e-06
-0.000157351
-5.11378e-06
-0.000154921
-7.28532e-06
-0.000151779
-9.41989e-06
-0.000147965
-1.14465e-05
-0.000143296
-1.40071e-05
-0.000137807
-1.64764e-05
-0.000131608
-1.86035e-05
-0.000124442
-2.14958e-05
-0.000116406
-2.40869e-05
-0.000107528
-2.66713e-05
-9.76992e-05
-2.94822e-05
-8.70032e-05
-3.20911e-05
-7.52435e-05
-3.5278e-05
-6.26062e-05
-3.78996e-05
-4.91271e-05
-4.04014e-05
-3.46114e-05
-4.35713e-05
-1.92476e-05
-4.60734e-05
-3.25497e-06
-4.79602e-05
1.3574e-05
-5.04667e-05
3.08941e-05
-5.19427e-05
4.88538e-05
-5.38541e-05
6.71135e-05
-5.47425e-05
8.54045e-05
-5.48597e-05
0.000103802
-5.51625e-05
0.000122029
-5.46543e-05
0.00013976
-5.31646e-05
0.000156837
-5.11966e-05
0.000173035
-4.85619e-05
0.000188078
-4.50959e-05
0.000201685
-4.07807e-05
0.000213581
-3.56412e-05
0.000223584
-2.99393e-05
0.000231497
-2.36576e-05
-1.7595e-05
-3.64914e-05
6.61278e-05
-5.21498e-05
6.25959e-05
-6.70065e-05
5.93949e-05
-8.09812e-05
5.58732e-05
-9.39783e-05
5.19682e-05
-0.000106049
4.82689e-05
-0.000117143
4.43641e-05
-0.000127314
4.06784e-05
-0.00013656
3.6986e-05
-0.000144887
3.33082e-05
-0.000152345
2.98254e-05
-0.000158942
2.6406e-05
-0.000164715
2.31005e-05
-0.000169695
1.99027e-05
-0.0001739
1.68279e-05
-0.000177343
1.3776e-05
-0.000180055
1.08484e-05
-0.000182047
7.95565e-06
-0.000183336
5.16402e-06
-0.000183918
2.42702e-06
-0.00018376
-5.61774e-07
-0.000182891
-3.46566e-06
-0.000181343
-6.17799e-06
-0.000179003
-9.37645e-06
-0.000175927
-1.23178e-05
-0.00017203
-1.56088e-05
-0.00016734
-1.87843e-05
-0.00016185
-2.19818e-05
-0.000155406
-2.57875e-05
-0.000148096
-2.92609e-05
-0.000139921
-3.27145e-05
-0.000130677
-3.69881e-05
-0.000120493
-4.0751e-05
-0.000109245
-4.50024e-05
-9.69569e-05
-4.91897e-05
-8.38312e-05
-5.24432e-05
-6.95664e-05
-5.70425e-05
-5.43759e-05
-6.07565e-05
-3.83372e-05
-6.40835e-05
-2.13478e-05
-6.791e-05
-3.72705e-06
-7.04442e-05
1.46885e-05
-7.35417e-05
3.36286e-05
-7.56479e-05
5.2719e-05
-7.62564e-05
7.19613e-05
-7.68618e-05
9.11433e-05
-7.65962e-05
0.000109861
-7.4735e-05
0.000128004
-7.24063e-05
0.000145302
-6.90101e-05
0.000161381
-6.42147e-05
0.000176153
-5.89603e-05
0.000189251
-5.22616e-05
0.000200564
-4.51349e-05
0.000209901
-3.7215e-05
0.000216924
-2.80192e-05
0.000221655
-1.88599e-05
0.000224042
-9.49897e-06
0.000223879
5.45423e-07
0.000221333
1.0082e-05
0.000216381
1.97931e-05
0.000209147
2.88686e-05
0.000199778
3.73797e-05
0.000188337
4.5662e-05
0.000175077
5.29426e-05
0.000160207
5.93358e-05
0.000143967
6.48191e-05
0.000126631
6.91999e-05
0.000108434
7.27038e-05
8.96823e-05
7.48302e-05
7.05213e-05
7.65224e-05
5.12733e-05
7.68608e-05
3.21677e-05
7.63073e-05
1.33163e-05
7.53023e-05
-4.97316e-06
7.31097e-05
-2.26687e-05
7.07333e-05
-3.97039e-05
6.8011e-05
-5.58527e-05
6.45683e-05
-7.11984e-05
6.13237e-05
-8.54974e-05
5.71772e-05
-9.88558e-05
5.34485e-05
-0.000111324
4.98049e-05
-0.0001227
4.54912e-05
-0.000133102
4.16352e-05
-0.000142588
3.78895e-05
-0.000150949
3.34207e-05
-0.000158349
2.96469e-05
-0.000164789
2.57124e-05
-0.000170103
2.12649e-05
-0.000174454
1.74284e-05
-0.000177748
1.31188e-05
-0.000180046
9.16562e-06
-0.000181397
5.42067e-06
-0.000181884
2.01378e-06
-0.000181603
-1.07757e-06
-0.000180621
-3.92031e-06
-0.000179016
-6.4381e-06
-0.000176801
-8.92506e-06
-0.000173988
-1.13095e-05
-0.000170577
-1.37546e-05
-0.000166554