/*--------------------------------*- C++ -*----------------------------------*\
| =========                 |                                                 |
| \\      /  F ield         | OpenFOAM: The Open Source CFD Toolbox           |
|  \\    /   O peration     | Version:  3.0.1                                 |
|   \\  /    A nd           | Web:      www.OpenFOAM.org                      |
|    \\/     M anipulation  |                                                 |
\*---------------------------------------------------------------------------*/
FoamFile
{
    version     2.0;
    format      ascii;
    class       volVectorField;
    location    "45.2";
    object      U;
}
// * * * * * * * * * * * * * * * * * * * * * * * * * * * * * * * * * * * * * //

dimensions      [0 1 -1 0 0 0 0];

internalField   nonuniform List<vector> 
21420
(
(-0.0602471 -0.00146942 0)
(-0.0469109 -0.00157365 0)
(-0.030596 -0.00165063 0)
(-0.0128568 -0.00172429 0)
(0.00483653 -0.00179408 0)
(0.0224568 -0.00183791 0)
(0.0411874 -0.00189275 0)
(0.0601885 -0.0018932 0)
(0.079209 -0.00187003 0)
(0.0980181 -0.00185968 0)
(0.116376 -0.00178901 0)
(0.134016 -0.00169309 0)
(0.150675 -0.00160178 0)
(0.166092 -0.00145607 0)
(0.180011 -0.00130752 0)
(0.192191 -0.00111626 0)
(0.20241 -0.000907985 0)
(0.210478 -0.000689756 0)
(0.216251 -0.000452532 0)
(0.219635 -0.000210238 0)
(0.220523 3.44475e-05 0)
(0.218998 0.000278663 0)
(0.214886 0.000528138 0)
(0.208443 0.000752934 0)
(0.199744 0.000974783 0)
(0.188952 0.00116036 0)
(0.176278 0.0013432 0)
(0.161933 0.00150848 0)
(0.146158 0.00161666 0)
(0.129222 0.00172895 0)
(0.111376 0.00181858 0)
(0.0928639 0.00184655 0)
(0.0739195 0.00188462 0)
(0.054796 0.00186699 0)
(0.0355456 0.00186191 0)
(0.016541 0.00183986 0)
(-0.00134732 0.0017611 0)
(-0.0184853 0.00170903 0)
(-0.0352614 0.00164116 0)
(-0.0512816 0.00154828 0)
(-0.0664473 0.00146344 0)
(-0.0806939 0.00136294 0)
(-0.0939911 0.00127097 0)
(-0.106318 0.00117589 0)
(-0.11767 0.00107553 0)
(-0.128057 0.000982121 0)
(-0.137494 0.000888927 0)
(-0.146003 0.000795889 0)
(-0.153607 0.000707398 0)
(-0.160329 0.000620924 0)
(-0.1662 0.000536099 0)
(-0.171245 0.00045505 0)
(-0.175496 0.000374191 0)
(-0.178974 0.000298219 0)
(-0.181678 0.000221172 0)
(-0.183636 0.000145988 0)
(-0.18482 7.72277e-05 0)
(-0.18528 2.51092e-06 0)
(-0.184956 -7.76391e-05 0)
(-0.183844 -0.000152114 0)
(-0.181942 -0.000235482 0)
(-0.179261 -0.000306899 0)
(-0.175778 -0.000385144 0)
(-0.171424 -0.000477184 0)
(-0.166272 -0.00055556 0)
(-0.160258 -0.000633648 0)
(-0.153359 -0.000734986 0)
(-0.145584 -0.000820706 0)
(-0.13683 -0.000917224 0)
(-0.127184 -0.00100619 0)
(-0.11674 -0.0010949 0)
(-0.105262 -0.00118274 0)
(-0.0928771 -0.00127266 0)
(-0.07986 -0.00134719 0)
(-0.0658689 -0.00142866 0)
(-0.0511886 -0.00149334 0)
(-0.0358625 -0.00157855 0)
(-0.0196664 -0.00162109 0)
(-0.00286912 -0.00167972 0)
(0.0143934 -0.00171582 0)
(0.0318591 -0.00174369 0)
(0.0494242 -0.00175838 0)
(0.0671292 -0.00175334 0)
(0.0847029 -0.00174514 0)
(0.102015 -0.00170715 0)
(0.118893 -0.00165548 0)
(0.135124 -0.00157883 0)
(0.150497 -0.0014824 0)
(0.164748 -0.00135974 0)
(0.177643 -0.00120567 0)
(0.188928 -0.00103536 0)
(0.198382 -0.00083774 0)
(0.205763 -0.000630047 0)
(0.210938 -0.000400524 0)
(0.213774 -0.0001658 0)
(0.21425 6.37805e-05 0)
(0.21234 0.000311156 0)
(0.207909 0.000551655 0)
(0.201215 0.000776627 0)
(0.19231 0.00099003 0)
(0.181341 0.001186 0)
(0.168462 0.0013633 0)
(0.153897 0.00152168 0)
(0.137884 0.00165548 0)
(0.120628 0.00176605 0)
(0.1024 0.00184598 0)
(0.0834737 0.00190456 0)
(0.0641301 0.00193419 0)
(0.0446318 0.00193411 0)
(0.0252309 0.00191756 0)
(0.00617092 0.00186382 0)
(-0.0123383 0.00180267 0)
(-0.0301041 0.00172951 0)
(-0.0470156 0.00163118 0)
(-0.0629583 0.00153202 0)
(-0.0778432 0.00142296 0)
(-0.091632 0.0013158 0)
(-0.104316 0.00120373 0)
(-0.115875 0.00109394 0)
(-0.126345 0.000984781 0)
(-0.135737 0.000880922 0)
(-0.144099 0.000777296 0)
(-0.151478 0.000680703 0)
(-0.157871 0.000594281 0)
(-0.163352 0.000498094 0)
(-0.167984 0.000418088 0)
(-0.171773 0.000335681 0)
(-0.174754 0.000256066 0)
(-0.177 0.000185649 0)
(-0.178521 0.000118031 0)
(-0.179341 4.74031e-05 0)
(-0.179557 -1.59858e-05 0)
(-0.17908 -6.97823e-05 0)
(-0.178 -0.000133353 0)
(-0.176389 -0.000187864 0)
(-0.174178 -0.000245408 0)
(-0.171437 -0.000296886 0)
(-0.168156 -0.000347877 0)
(-0.164326 -0.000412642 0)
(-0.159937 -0.000456167 0)
(-0.154993 -0.000522336 0)
(-0.149474 -0.000586061 0)
(-0.143284 -0.000642694 0)
(-0.13639 -0.000714383 0)
(-0.128821 -0.000784685 0)
(-0.120488 -0.000863028 0)
(-0.111412 -0.000940829 0)
(-0.101525 -0.00101244 0)
(-0.0908971 -0.00109985 0)
(-0.0794402 -0.00117025 0)
(-0.0671869 -0.00125045 0)
(-0.0541855 -0.00132759 0)
(-0.0404398 -0.00139828 0)
(-0.0259652 -0.00146608 0)
(-0.010869 -0.00152904 0)
(0.00482821 -0.00157578 0)
(0.0209671 -0.00161761 0)
(0.0374026 -0.00164457 0)
(0.0540217 -0.00165138 0)
(0.0706312 -0.00163601 0)
(0.0870003 -0.00161131 0)
(0.102986 -0.00155795 0)
(0.11834 -0.00147841 0)
(0.132795 -0.00138534 0)
(0.146149 -0.00126226 0)
(0.158167 -0.00111342 0)
(0.16859 -0.000947906 0)
(0.177209 -0.00075908 0)
(0.183824 -0.00055514 0)
(0.188342 -0.000339021 0)
(0.190609 -0.000114618 0)
(0.190625 0.000108859 0)
(0.188303 0.000346941 0)
(0.183636 0.000574397 0)
(0.176787 0.000785672 0)
(0.167833 0.000988161 0)
(0.15694 0.00117173 0)
(0.144354 0.00132601 0)
(0.130266 0.00145884 0)
(0.114982 0.00156643 0)
(0.0987744 0.00165242 0)
(0.0818636 0.00170579 0)
(0.0645582 0.00172606 0)
(0.0471055 0.00172995 0)
(0.0297279 0.00172008 0)
(0.0126293 0.0016769 0)
(-0.00405372 0.00163039 0)
(-0.0201694 0.00156678 0)
(-0.0355863 0.00148853 0)
(-0.0502091 0.00141086 0)
(-0.0639691 0.00132101 0)
(-0.0768373 0.00123207 0)
(-0.0887571 0.00113601 0)
(-0.0997522 0.00104662 0)
(-0.10984 0.000957834 0)
(-0.11904 0.000870673 0)
(-0.127399 0.000789065 0)
(-0.134897 0.00070313 0)
(-0.141581 0.000618659 0)
(-0.147458 0.000546813 0)
(-0.152529 0.00046633 0)
(-0.156866 0.000391846 0)
(-0.160478 0.000323833 0)
(-0.163419 0.000259884 0)
(-0.165762 0.000203006 0)
(-0.167542 0.000153174 0)
(-0.168824 0.000101006 0)
(-0.169637 5.7663e-05 0)
(-0.170002 1.20063e-05 0)
(-0.169934 -2.67859e-05 0)
(-0.169452 -6.41383e-05 0)
(-0.16853 -0.000117343 0)
(-0.167193 -0.000154166 0)
(-0.165433 -0.000191691 0)
(-0.163209 -0.000244817 0)
(-0.16053 -0.000282824 0)
(-0.157407 -0.000335987 0)
(-0.153781 -0.000380879 0)
(-0.149609 -0.000445027 0)
(-0.144844 -0.000503441 0)
(-0.139438 -0.000570182 0)
(-0.133376 -0.000630417 0)
(-0.126633 -0.000707368 0)
(-0.119149 -0.000772829 0)
(-0.110988 -0.000851536 0)
(-0.102035 -0.000920059 0)
(-0.0923372 -0.000994958 0)
(-0.0819046 -0.0010757 0)
(-0.0706647 -0.00115021 0)
(-0.0586847 -0.00122287 0)
(-0.0459891 -0.00129244 0)
(-0.0326203 -0.00135673 0)
(-0.0186775 -0.00140793 0)
(-0.00422063 -0.00145723 0)
(0.0107068 -0.00149839 0)
(0.0259588 -0.00152592 0)
(0.0414138 -0.00153896 0)
(0.056935 -0.00153775 0)
(0.0723978 -0.00152431 0)
(0.087605 -0.00149114 0)
(0.102407 -0.00143859 0)
(0.116571 -0.0013703 0)
(0.129891 -0.00126887 0)
(0.142151 -0.00115581 0)
(0.15315 -0.00102242 0)
(0.162675 -0.000867955 0)
(0.170552 -0.000694773 0)
(0.176648 -0.00051095 0)
(0.180823 -0.000310871 0)
(0.182982 -0.00011648 0)
(0.183151 8.48966e-05 0)
(0.181233 0.000291169 0)
(0.177252 0.000488745 0)
(0.171368 0.000680304 0)
(0.163601 0.000860506 0)
(0.154108 0.0010198 0)
(0.143069 0.00116783 0)
(0.13067 0.00129119 0)
(0.117116 0.00139829 0)
(0.102593 0.00147827 0)
(0.087388 0.00153748 0)
(0.0716924 0.00158048 0)
(0.0556883 0.00159362 0)
(0.0396038 0.00159766 0)
(0.0236316 0.00157424 0)
(0.00796115 0.00154242 0)
(-0.00725409 0.00149185 0)
(-0.0219177 0.00142997 0)
(-0.0359028 0.00135998 0)
(-0.0491624 0.00127922 0)
(-0.0616041 0.00119656 0)
(-0.0731353 0.00110641 0)
(-0.0837824 0.00101652 0)
(-0.0935412 0.000934764 0)
(-0.102464 0.000844368 0)
(-0.110479 0.000757111 0)
(-0.117576 0.000669662 0)
(-0.123877 0.000586028 0)
(-0.129281 0.000506075 0)
(-0.133849 0.000418202 0)
(-0.137614 0.000350807 0)
(-0.140666 0.00027286 0)
(-0.143131 0.000216555 0)
(-0.144965 0.000160889 0)
(-0.146362 0.000105343 0)
(-0.147436 7.22938e-05 0)
(-0.148122 3.4427e-05 0)
(-0.148425 -5.79956e-07 0)
(-0.148448 -3.25842e-05 0)
(-0.148071 -6.8038e-05 0)
(-0.147281 -9.22137e-05 0)
(-0.146288 -0.000121103 0)
(-0.144878 -0.000157333 0)
(-0.143087 -0.00018456 0)
(-0.141061 -0.00022073 0)
(-0.138569 -0.000263595 0)
(-0.135681 -0.000305417 0)
(-0.132333 -0.000350038 0)
(-0.128463 -0.000411385 0)
(-0.124011 -0.000464543 0)
(-0.118931 -0.000540354 0)
(-0.113146 -0.000608502 0)
(-0.106575 -0.000679199 0)
(-0.0992298 -0.000776666 0)
(-0.0909472 -0.000859673 0)
(-0.0817744 -0.000943416 0)
(-0.0716557 -0.00105678 0)
(-0.0604559 -0.00114334 0)
(-0.0483205 -0.00125943 0)
(-0.0351331 -0.0013477 0)
(-0.0209228 -0.00141834 0)
(-0.00612364 -0.00153563 0)
(0.00941405 -0.00159521 0)
(0.025775 -0.00164308 0)
(0.042693 -0.00170925 0)
(0.0600274 -0.00172793 0)
(0.077574 -0.00175816 0)
(0.0951541 -0.00173969 0)
(0.112518 -0.00169602 0)
(0.129432 -0.00165682 0)
(0.145686 -0.00157149 0)
(0.161035 -0.00146267 0)
(0.175242 -0.00134915 0)
(0.188098 -0.00119999 0)
(0.199403 -0.00104201 0)
(0.208975 -0.000858696 0)
(0.21667 -0.000663574 0)
(0.222363 -0.000459746 0)
(0.225994 -0.000249721 0)
(0.227481 -3.77061e-05 0)
(0.226862 0.00016983 0)
(0.224 0.000384039 0)
(0.219075 0.000589542 0)
(0.21221 0.000772624 0)
(0.203512 0.000951682 0)
(0.193138 0.00109886 0)
(0.181272 0.00124347 0)
(0.168095 0.00137272 0)
(0.153805 0.00145828 0)
(0.138604 0.00154757 0)
(0.122683 0.00161971 0)
(0.106229 0.00164669 0)
(0.0894234 0.00168263 0)
(0.0724352 0.00167629 0)
(0.0554191 0.00168087 0)
(0.0385076 0.00167134 0)
(0.0217381 0.00162396 0)
(0.00546318 0.00158821 0)
(-0.0101725 0.00154205 0)
(-0.0252738 0.0014674 0)
(-0.0397412 0.00140322 0)
(-0.0534675 0.00131604 0)
(-0.0663819 0.001238 0)
(-0.0784278 0.0011532 0)
(-0.0895537 0.0010543 0)
(-0.099732 0.000961805 0)
(-0.110108 0.000865284 0)
(-0.060284 -0.00440841 0)
(-0.046947 -0.00472119 0)
(-0.0306304 -0.00495201 0)
(-0.0128843 -0.0051723 0)
(0.00481414 -0.00538378 0)
(0.0224381 -0.00551456 0)
(0.0411768 -0.00567908 0)
(0.0601864 -0.00568049 0)
(0.0792158 -0.00561099 0)
(0.098035 -0.00558008 0)
(0.116402 -0.00536807 0)
(0.134052 -0.00508031 0)
(0.150723 -0.0048064 0)
(0.166149 -0.00436922 0)
(0.180079 -0.00392354 0)
(0.192267 -0.00334962 0)
(0.202494 -0.00272472 0)
(0.210569 -0.00206971 0)
(0.216343 -0.00135977 0)
(0.219735 -0.000627472 0)
(0.220626 0.000102444 0)
(0.219094 0.000835145 0)
(0.21498 0.00158472 0)
(0.208532 0.00225921 0)
(0.199829 0.00292496 0)
(0.189028 0.00348181 0)
(0.176346 0.00403049 0)
(0.161992 0.0045264 0)
(0.146206 0.00485095 0)
(0.129261 0.00518787 0)
(0.111405 0.00545674 0)
(0.0928832 0.00554059 0)
(0.0739295 0.00565473 0)
(0.0547979 0.00560178 0)
(0.0355409 0.00558634 0)
(0.0165265 0.00552063 0)
(-0.00136699 0.00528334 0)
(-0.0185071 0.00512763 0)
(-0.035288 0.00492392 0)
(-0.0513111 0.00464524 0)
(-0.0664793 0.00439061 0)
(-0.0807269 0.00408902 0)
(-0.0940253 0.00381302 0)
(-0.106353 0.00352778 0)
(-0.117704 0.00322673 0)
(-0.128092 0.00294656 0)
(-0.137528 0.00266692 0)
(-0.146036 0.00238788 0)
(-0.15364 0.00212266 0)
(-0.160362 0.00186308 0)
(-0.166233 0.00160783 0)
(-0.171277 0.00136574 0)
(-0.175528 0.00112308 0)
(-0.179008 0.000894607 0)
(-0.181711 0.000665555 0)
(-0.183671 0.00044125 0)
(-0.184861 0.000230477 0)
(-0.185321 6.79701e-06 0)
(-0.184998 -0.000232934 0)
(-0.183889 -0.000455887 0)
(-0.181989 -0.000706674 0)
(-0.179309 -0.000919712 0)
(-0.175831 -0.00115607 0)
(-0.171478 -0.00143019 0)
(-0.16633 -0.00166839 0)
(-0.160314 -0.0018988 0)
(-0.153421 -0.00220547 0)
(-0.145645 -0.00246017 0)
(-0.136891 -0.00275232 0)
(-0.127248 -0.00302034 0)
(-0.116798 -0.00328552 0)
(-0.105319 -0.00354693 0)
(-0.0929307 -0.00381455 0)
(-0.0799192 -0.00405118 0)
(-0.0659141 -0.00428404 0)
(-0.0512318 -0.00448037 0)
(-0.0359017 -0.00473402 0)
(-0.0196946 -0.00486464 0)
(-0.00289803 -0.00503872 0)
(0.0143765 -0.00515019 0)
(0.0318476 -0.00523349 0)
(0.0494241 -0.00527316 0)
(0.0671344 -0.0052649 0)
(0.0847236 -0.00523905 0)
(0.102048 -0.00511954 0)
(0.118923 -0.00498308 0)
(0.135185 -0.0047327 0)
(0.150563 -0.00444721 0)
(0.164829 -0.00408135 0)
(0.177735 -0.0036176 0)
(0.189023 -0.00311241 0)
(0.198481 -0.00252344 0)
(0.205881 -0.00188294 0)
(0.211051 -0.00120548 0)
(0.213886 -0.000506108 0)
(0.214372 0.000199554 0)
(0.212436 0.000934465 0)
(0.207999 0.00164814 0)
(0.201303 0.00231895 0)
(0.192396 0.00297434 0)
(0.18142 0.00356016 0)
(0.168531 0.00409467 0)
(0.153953 0.00456712 0)
(0.137927 0.00496429 0)
(0.12066 0.00529484 0)
(0.102425 0.005535 0)
(0.0834871 0.00571307 0)
(0.0641291 0.00580384 0)
(0.044616 0.0058004 0)
(0.025202 0.00575241 0)
(0.00612915 0.00559761 0)
(-0.0123907 0.00540889 0)
(-0.0301677 0.00518705 0)
(-0.0470829 0.00488889 0)
(-0.0630296 0.00459897 0)
(-0.07792 0.0042665 0)
(-0.0917146 0.00394707 0)
(-0.1044 0.00360772 0)
(-0.115964 0.00327873 0)
(-0.126436 0.00295205 0)
(-0.135834 0.00264934 0)
(-0.144205 0.00232908 0)
(-0.151579 0.00203986 0)
(-0.157971 0.00178601 0)
(-0.163458 0.00149786 0)
(-0.168091 0.00124526 0)
(-0.171874 0.00100927 0)
(-0.174856 0.000781609 0)
(-0.17711 0.000554432 0)
(-0.178633 0.000353 0)
(-0.179455 0.000147204 0)
(-0.179673 -5.11587e-05 0)
(-0.179197 -0.000207201 0)
(-0.178123 -0.000408607 0)
(-0.176508 -0.000568278 0)
(-0.174299 -0.000730939 0)
(-0.171564 -0.000900385 0)
(-0.168295 -0.00105471 0)
(-0.164449 -0.0012244 0)
(-0.160076 -0.00138029 0)
(-0.155117 -0.00156193 0)
(-0.149596 -0.00174979 0)
(-0.143414 -0.00192867 0)
(-0.13653 -0.00214345 0)
(-0.12897 -0.00236231 0)
(-0.120629 -0.00258688 0)
(-0.111557 -0.00282632 0)
(-0.101666 -0.00304915 0)
(-0.0910306 -0.00329924 0)
(-0.0795787 -0.0035146 0)
(-0.0673159 -0.00375066 0)
(-0.0543214 -0.00398959 0)
(-0.040551 -0.00419015 0)
(-0.0260911 -0.00441363 0)
(-0.0109676 -0.00458246 0)
(0.0047172 -0.00473758 0)
(0.0208797 -0.00485706 0)
(0.037324 -0.00492741 0)
(0.053954 -0.00495627 0)
(0.0705737 -0.00491854 0)
(0.0869654 -0.00482978 0)
(0.102965 -0.00467889 0)
(0.118324 -0.00444587 0)
(0.132803 -0.00415752 0)
(0.146175 -0.0037825 0)
(0.158189 -0.00335778 0)
(0.168638 -0.00284456 0)
(0.177265 -0.00227811 0)
(0.18389 -0.00166902 0)
(0.188415 -0.00101569 0)
(0.19069 -0.000350548 0)
(0.190712 0.00033002 0)
(0.18838 0.00104219 0)
(0.183718 0.00171517 0)
(0.176871 0.00236138 0)
(0.167903 0.00296289 0)
(0.157008 0.00350572 0)
(0.144415 0.0039782 0)
(0.130316 0.00438289 0)
(0.115011 0.00469829 0)
(0.0987851 0.00495155 0)
(0.0818718 0.00510984 0)
(0.0645598 0.00518559 0)
(0.0470893 0.00519279 0)
(0.0296973 0.00515189 0)
(0.0125923 0.00503715 0)
(-0.00409718 0.00489739 0)
(-0.0202178 0.00470224 0)
(-0.0356381 0.00447663 0)
(-0.0502736 0.00423618 0)
(-0.0640391 0.00395856 0)
(-0.0769094 0.00369855 0)
(-0.0888353 0.00341221 0)
(-0.0998367 0.00313899 0)
(-0.109932 0.00286587 0)
(-0.119135 0.00260071 0)
(-0.127496 0.00235594 0)
(-0.134991 0.0021105 0)
(-0.141678 0.0018622 0)
(-0.147563 0.00163668 0)
(-0.152634 0.00139548 0)
(-0.156967 0.00118261 0)
(-0.160581 0.000980435 0)
(-0.163526 0.000784463 0)
(-0.165871 0.000610084 0)
(-0.167654 0.000454337 0)
(-0.168936 0.000306779 0)
(-0.16975 0.000174297 0)
(-0.170114 4.22639e-05 0)
(-0.170049 -8.2026e-05 0)
(-0.169571 -0.000202331 0)
(-0.168645 -0.000335855 0)
(-0.167321 -0.00046392 0)
(-0.165566 -0.000580698 0)
(-0.163342 -0.000734249 0)
(-0.160661 -0.000848275 0)
(-0.15754 -0.00100989 0)
(-0.153923 -0.00115527 0)
(-0.149735 -0.00132257 0)
(-0.144973 -0.00150998 0)
(-0.139571 -0.00171031 0)
(-0.133509 -0.00189019 0)
(-0.126775 -0.00212094 0)
(-0.11929 -0.0023279 0)
(-0.111129 -0.00256016 0)
(-0.102167 -0.00276039 0)
(-0.0924867 -0.00299718 0)
(-0.0820421 -0.00322229 0)
(-0.0707931 -0.00345125 0)
(-0.0588176 -0.00367452 0)
(-0.046098 -0.0038776 0)
(-0.0327305 -0.00406904 0)
(-0.0187776 -0.00422614 0)
(-0.00431256 -0.00438009 0)
(0.0106217 -0.00449526 0)
(0.0258848 -0.00457364 0)
(0.0413486 -0.00462908 0)
(0.0568964 -0.00460987 0)
(0.0723503 -0.00457535 0)
(0.0875775 -0.00447945 0)
(0.10239 -0.0043219 0)
(0.116574 -0.00410521 0)
(0.129901 -0.0038138 0)
(0.142174 -0.00348227 0)
(0.153191 -0.00306073 0)
(0.162721 -0.00261655 0)
(0.170618 -0.00208379 0)
(0.176711 -0.00153245 0)
(0.180893 -0.000946002 0)
(0.183068 -0.000345659 0)
(0.183234 0.000251336 0)
(0.18131 0.000865385 0)
(0.177335 0.00146318 0)
(0.171449 0.00204915 0)
(0.163673 0.00257773 0)
(0.15418 0.00307033 0)
(0.143123 0.00350231 0)
(0.130709 0.00387486 0)
(0.117143 0.00418846 0)
(0.102612 0.00443624 0)
(0.0873936 0.00460999 0)
(0.071685 0.00473722 0)
(0.0556715 0.00478002 0)
(0.0395774 0.00479814 0)
(0.0235925 0.00472697 0)
(0.00791326 0.00462955 0)
(-0.00731062 0.00447788 0)
(-0.0219802 0.00428564 0)
(-0.0359661 0.00407242 0)
(-0.0492204 0.00383749 0)
(-0.0616644 0.00359086 0)
(-0.0731974 0.00331658 0)
(-0.0838339 0.0030551 0)
(-0.0935975 0.00281208 0)
(-0.102526 0.00252684 0)
(-0.110533 0.00227197 0)
(-0.117632 0.00201414 0)
(-0.123933 0.00175664 0)
(-0.129339 0.00151491 0)
(-0.1339 0.00125444 0)
(-0.137666 0.00105431 0)
(-0.140717 0.000816533 0)
(-0.143174 0.000652102 0)
(-0.14501 0.000483356 0)
(-0.146403 0.000314718 0)
(-0.147472 0.00021626 0)
(-0.148156 0.000105667 0)
(-0.148459 -2.53667e-06 0)
(-0.14848 -9.80714e-05 0)
(-0.148101 -0.000203197 0)
(-0.14731 -0.000276598 0)
(-0.146318 -0.000364804 0)
(-0.144906 -0.000470825 0)
(-0.143117 -0.000553206 0)
(-0.141091 -0.000660947 0)
(-0.138601 -0.000792097 0)
(-0.135713 -0.000914188 0)
(-0.132368 -0.00104778 0)
(-0.128499 -0.0012347 0)
(-0.124049 -0.00139321 0)
(-0.118972 -0.00162105 0)
(-0.113188 -0.00182501 0)
(-0.106619 -0.0020372 0)
(-0.0992769 -0.00232966 0)
(-0.0909944 -0.00257854 0)
(-0.0818238 -0.0028305 0)
(-0.0717058 -0.00316984 0)
(-0.0605058 -0.00342989 0)
(-0.0483705 -0.0037785 0)
(-0.0351783 -0.00404329 0)
(-0.0209687 -0.00425468 0)
(-0.0061666 -0.00460775 0)
(0.00937952 -0.00478583 0)
(0.0257448 -0.00492984 0)
(0.0426695 -0.00512836 0)
(0.0600113 -0.00518457 0)
(0.0775667 -0.00527531 0)
(0.0951559 -0.00522004 0)
(0.112529 -0.00508899 0)
(0.129453 -0.00497147 0)
(0.145716 -0.00471558 0)
(0.161075 -0.00438882 0)
(0.175292 -0.00404868 0)
(0.188156 -0.00360075 0)
(0.199469 -0.00312689 0)
(0.209048 -0.00257677 0)
(0.216748 -0.00199042 0)
(0.222444 -0.0013799 0)
(0.226079 -0.00074723 0)
(0.227569 -0.000115153 0)
(0.226948 0.000508855 0)
(0.224079 0.00115236 0)
(0.219154 0.00176887 0)
(0.212284 0.00231841 0)
(0.203579 0.00285562 0)
(0.193198 0.00329723 0)
(0.181325 0.00373109 0)
(0.168141 0.00411894 0)
(0.153842 0.00437557 0)
(0.138635 0.00464346 0)
(0.122706 0.00485987 0)
(0.106244 0.00494075 0)
(0.0894321 0.00504853 0)
(0.0724376 0.00502947 0)
(0.0554158 0.00504318 0)
(0.0384986 0.00501456 0)
(0.0217241 0.00487246 0)
(0.00544478 0.00476502 0)
(-0.0101948 0.00462645 0)
(-0.0252992 0.00440251 0)
(-0.03977 0.00420996 0)
(-0.0534985 0.00394837 0)
(-0.0664154 0.00371422 0)
(-0.0784635 0.00345977 0)
(-0.0895904 0.00316303 0)
(-0.0997701 0.00288551 0)
(-0.110147 0.00259592 0)
(-0.0603571 -0.00734792 0)
(-0.0470178 -0.00786948 0)
(-0.0306976 -0.0082538 0)
(-0.0129382 -0.00861788 0)
(0.00477076 -0.00897875 0)
(0.0224027 -0.00919376 0)
(0.0411579 -0.00946791 0)
(0.0601847 -0.00947039 0)
(0.0792319 -0.00935467 0)
(0.0980713 -0.00930351 0)
(0.116458 -0.0089502 0)
(0.134128 -0.00847056 0)
(0.150821 -0.00801416 0)
(0.166267 -0.00728531 0)
(0.180219 -0.00654236 0)
(0.192422 -0.00558539 0)
(0.202662 -0.00454346 0)
(0.210752 -0.00345165 0)
(0.216532 -0.00226684 0)
(0.219929 -0.00104965 0)
(0.220836 0.000172179 0)
(0.219278 0.00139611 0)
(0.215167 0.00264251 0)
(0.208709 0.00376711 0)
(0.199994 0.0048773 0)
(0.189175 0.0058057 0)
(0.176477 0.00672062 0)
(0.162104 0.00754739 0)
(0.146296 0.00808827 0)
(0.129331 0.0086499 0)
(0.111455 0.00909783 0)
(0.0929126 0.00923748 0)
(0.07394 0.00942741 0)
(0.0547919 0.009339 0)
(0.0355214 0.00931227 0)
(0.0164875 0.00920375 0)
(-0.00141656 0.00880645 0)
(-0.0185609 0.00854774 0)
(-0.0353514 0.00820776 0)
(-0.05138 0.00774293 0)
(-0.066553 0.00731826 0)
(-0.0808024 0.00681533 0)
(-0.0941024 0.00635509 0)
(-0.106431 0.00587964 0)
(-0.117781 0.00537791 0)
(-0.128167 0.00491085 0)
(-0.137602 0.00444483 0)
(-0.146108 0.00397965 0)
(-0.15371 0.00353775 0)
(-0.160429 0.00310539 0)
(-0.166298 0.00268036 0)
(-0.171341 0.0022761 0)
(-0.17559 0.0018729 0)
(-0.179067 0.00149246 0)
(-0.18177 0.00110978 0)
(-0.183732 0.000735367 0)
(-0.184923 0.000386669 0)
(-0.185381 9.20319e-06 0)
(-0.185058 -0.000389083 0)
(-0.183949 -0.000759476 0)
(-0.18205 -0.00117714 0)
(-0.179371 -0.0015332 0)
(-0.175894 -0.00192568 0)
(-0.171545 -0.00238448 0)
(-0.166395 -0.00278013 0)
(-0.160384 -0.0031662 0)
(-0.153493 -0.00367547 0)
(-0.145717 -0.00410071 0)
(-0.136961 -0.00458739 0)
(-0.127324 -0.00503477 0)
(-0.116868 -0.00547517 0)
(-0.105391 -0.00591451 0)
(-0.0930044 -0.00636116 0)
(-0.0799775 -0.00674551 0)
(-0.065977 -0.00714655 0)
(-0.0512941 -0.00746993 0)
(-0.0359584 -0.00789177 0)
(-0.0197373 -0.00810792 0)
(-0.00294462 -0.00840432 0)
(0.0143501 -0.00858162 0)
(0.0318219 -0.00872839 0)
(0.0494127 -0.00879499 0)
(0.0671298 -0.00877791 0)
(0.0847386 -0.00872976 0)
(0.102071 -0.00854224 0)
(0.118966 -0.00830245 0)
(0.135245 -0.00789198 0)
(0.150626 -0.00742439 0)
(0.164919 -0.00680215 0)
(0.177841 -0.00603375 0)
(0.189141 -0.00518789 0)
(0.198614 -0.00420435 0)
(0.20602 -0.00314701 0)
(0.211194 -0.00200987 0)
(0.214031 -0.000835388 0)
(0.214504 0.000327178 0)
(0.212538 0.001563 0)
(0.208115 0.00274955 0)
(0.201415 0.00387684 0)
(0.192489 0.00495751 0)
(0.181485 0.00593064 0)
(0.16858 0.00682561 0)
(0.153977 0.00761323 0)
(0.13793 0.008279 0)
(0.120645 0.0088316 0)
(0.102392 0.00923018 0)
(0.0834407 0.00952639 0)
(0.0640529 0.00967595 0)
(0.0445259 0.00967171 0)
(0.0250862 0.00959473 0)
(0.00598697 0.00932815 0)
(-0.0125419 0.00902307 0)
(-0.0303394 0.00864481 0)
(-0.0472607 0.00815134 0)
(-0.0632114 0.00765928 0)
(-0.0781016 0.00711834 0)
(-0.0919027 0.006578 0)
(-0.104584 0.0060154 0)
(-0.116149 0.00546803 0)
(-0.126621 0.00492368 0)
(-0.136024 0.00441082 0)
(-0.144391 0.00388426 0)
(-0.151756 0.00340518 0)
(-0.158146 0.00296662 0)
(-0.163623 0.00249648 0)
(-0.168249 0.00208145 0)
(-0.172041 0.00167922 0)
(-0.175022 0.00129391 0)
(-0.177263 0.000930007 0)
(-0.178797 0.000593696 0)
(-0.179626 0.000243237 0)
(-0.179827 -8.67598e-05 0)
(-0.179348 -0.000346386 0)
(-0.178274 -0.000681674 0)
(-0.176653 -0.000935811 0)
(-0.174453 -0.00123083 0)
(-0.17171 -0.00149026 0)
(-0.168452 -0.00175267 0)
(-0.164609 -0.00205009 0)
(-0.160224 -0.00229211 0)
(-0.155287 -0.00261156 0)
(-0.149758 -0.00291902 0)
(-0.143572 -0.00320856 0)
(-0.136707 -0.00357964 0)
(-0.12914 -0.00392558 0)
(-0.120811 -0.00431907 0)
(-0.111725 -0.00470107 0)
(-0.101841 -0.00508434 0)
(-0.0912014 -0.00549887 0)
(-0.0797527 -0.00585489 0)
(-0.0674977 -0.00625604 0)
(-0.0544875 -0.00664643 0)
(-0.0407178 -0.00699228 0)
(-0.0262437 -0.00734759 0)
(-0.0111191 -0.00764515 0)
(0.00457902 -0.00789247 0)
(0.0207387 -0.00809748 0)
(0.0371976 -0.00821785 0)
(0.0538516 -0.00826841 0)
(0.0704928 -0.00819767 0)
(0.0869063 -0.00805283 0)
(0.102927 -0.00780249 0)
(0.118302 -0.00741115 0)
(0.132803 -0.00693016 0)
(0.14619 -0.00631561 0)
(0.158227 -0.00558961 0)
(0.168693 -0.00474137 0)
(0.177331 -0.00380438 0)
(0.183971 -0.00278035 0)
(0.188497 -0.00170672 0)
(0.190787 -0.000576251 0)
(0.190798 0.000549023 0)
(0.188457 0.00173758 0)
(0.1838 0.00286354 0)
(0.176945 0.00393577 0)
(0.167965 0.00493805 0)
(0.157053 0.00585353 0)
(0.14444 0.00663595 0)
(0.130318 0.00730357 0)
(0.11499 0.0078417 0)
(0.09874 0.00826039 0)
(0.0818039 0.0085224 0)
(0.0644724 0.00864676 0)
(0.0469899 0.00865902 0)
(0.0295799 0.00859 0)
(0.0124582 0.00840264 0)
(-0.00424501 0.00815405 0)
(-0.0203752 0.00783875 0)
(-0.0358009 0.0074581 0)
(-0.0504419 0.00706063 0)
(-0.0642093 0.0066013 0)
(-0.0770879 0.00616442 0)
(-0.0890175 0.00568416 0)
(-0.100012 0.00523206 0)
(-0.110102 0.00478337 0)
(-0.119299 0.00434152 0)
(-0.127654 0.00393106 0)
(-0.135156 0.00352887 0)
(-0.141846 0.00310159 0)
(-0.147728 0.00272679 0)
(-0.152799 0.00233 0)
(-0.157134 0.0019684 0)
(-0.160745 0.00162646 0)
(-0.163682 0.0013054 0)
(-0.166022 0.00101955 0)
(-0.167803 0.000762407 0)
(-0.16908 0.000503619 0)
(-0.169887 0.00028249 0)
(-0.170249 7.75588e-05 0)
(-0.170185 -0.000132554 0)
(-0.169714 -0.000332877 0)
(-0.168795 -0.000562979 0)
(-0.167473 -0.000776945 0)
(-0.165718 -0.000966247 0)
(-0.163494 -0.00121731 0)
(-0.160819 -0.00142052 0)
(-0.157686 -0.00168089 0)
(-0.154067 -0.00192028 0)
(-0.149898 -0.00221055 0)
(-0.145129 -0.00251191 0)
(-0.139723 -0.00284556 0)
(-0.133681 -0.00315824 0)
(-0.126938 -0.00353256 0)
(-0.11945 -0.00387728 0)
(-0.111287 -0.00425614 0)
(-0.102333 -0.00460761 0)
(-0.0926516 -0.00499678 0)
(-0.082221 -0.00537543 0)
(-0.070968 -0.00575455 0)
(-0.0589836 -0.00611625 0)
(-0.046264 -0.00646761 0)
(-0.032881 -0.0067824 0)
(-0.018921 -0.00705395 0)
(-0.00443946 -0.00728787 0)
(0.0104987 -0.0074983 0)
(0.0257708 -0.0076351 0)
(0.0412632 -0.00770168 0)
(0.0568091 -0.00769397 0)
(0.0722746 -0.00762916 0)
(0.0875193 -0.00746662 0)
(0.10235 -0.00720295 0)
(0.11655 -0.00685247 0)
(0.129888 -0.00636183 0)
(0.142182 -0.00578986 0)
(0.153205 -0.00512094 0)
(0.162763 -0.00435399 0)
(0.170663 -0.00348002 0)
(0.176768 -0.00255666 0)
(0.180955 -0.00157304 0)
(0.183141 -0.000580067 0)
(0.18331 0.000420763 0)
(0.181375 0.00144788 0)
(0.177403 0.00244319 0)
(0.171505 0.00341358 0)
(0.163715 0.00429885 0)
(0.154207 0.00511297 0)
(0.143132 0.00584129 0)
(0.130699 0.0064596 0)
(0.117116 0.00698773 0)
(0.102571 0.00739253 0)
(0.0873443 0.0076876 0)
(0.071616 0.00790612 0)
(0.0555873 0.0079708 0)
(0.0394796 0.00799892 0)
(0.0234853 0.0078776 0)
(0.00780146 0.00771637 0)
(-0.00742891 0.00746613 0)
(-0.0220949 0.00714601 0)
(-0.0360751 0.00679169 0)
(-0.0493268 0.00639471 0)
(-0.0617665 0.00598138 0)
(-0.0732945 0.0055293 0)
(-0.0839249 0.00509225 0)
(-0.0936891 0.0046854 0)
(-0.102613 0.00421381 0)
(-0.110611 0.00378651 0)
(-0.117715 0.0033547 0)
(-0.124005 0.00292815 0)
(-0.129412 0.00252799 0)
(-0.133967 0.00209166 0)
(-0.13773 0.00176012 0)
(-0.140778 0.00136019 0)
(-0.143224 0.00108522 0)
(-0.145061 0.00080617 0)
(-0.146443 0.000523372 0)
(-0.147508 0.000358144 0)
(-0.148188 0.00017312 0)
(-0.148488 -3.92751e-06 0)
(-0.148509 -0.000165804 0)
(-0.148127 -0.00033927 0)
(-0.147335 -0.000460132 0)
(-0.146342 -0.000607606 0)
(-0.144931 -0.000784087 0)
(-0.143145 -0.000922137 0)
(-0.141122 -0.00110214 0)
(-0.138634 -0.00131701 0)
(-0.13575 -0.00152258 0)
(-0.132408 -0.00174302 0)
(-0.128544 -0.00205809 0)
(-0.124099 -0.00232033 0)
(-0.119028 -0.00270119 0)
(-0.113247 -0.0030403 0)
(-0.106684 -0.00339406 0)
(-0.0993479 -0.0038826 0)
(-0.0910659 -0.00429613 0)
(-0.0819003 -0.00471859 0)
(-0.0717843 -0.00528211 0)
(-0.0605846 -0.00571601 0)
(-0.0484501 -0.0062984 0)
(-0.0352489 -0.0067393 0)
(-0.0210419 -0.00709384 0)
(-0.00623459 -0.00767926 0)
(0.00932769 -0.00797753 0)
(0.0257008 -0.0082182 0)
(0.0426379 -0.00854942 0)
(0.0599936 -0.00864343 0)
(0.0775657 -0.00879491 0)
(0.0951719 -0.00870291 0)
(0.112562 -0.00848463 0)
(0.129506 -0.00828887 0)
(0.145787 -0.00786228 0)
(0.161162 -0.00731777 0)
(0.175399 -0.00675042 0)
(0.188277 -0.00600386 0)
(0.199607 -0.00521399 0)
(0.209197 -0.00429634 0)
(0.216905 -0.00331962 0)
(0.22261 -0.00229953 0)
(0.226246 -0.00124849 0)
(0.227749 -0.000186706 0)
(0.227113 0.0008483 0)
(0.224236 0.0019223 0)
(0.21931 0.00294934 0)
(0.212427 0.00386608 0)
(0.203712 0.00476153 0)
(0.193315 0.00549779 0)
(0.181428 0.00622096 0)
(0.168229 0.00686753 0)
(0.153914 0.00729517 0)
(0.138691 0.00774164 0)
(0.122748 0.00810224 0)
(0.106272 0.00823685 0)
(0.0894464 0.00841638 0)
(0.0724396 0.00838437 0)
(0.0554063 0.00840714 0)
(0.0384778 0.00835931 0)
(0.0216938 0.00812258 0)
(0.0054058 0.00794291 0)
(-0.0102414 0.00771182 0)
(-0.0253518 0.00733854 0)
(-0.0398292 0.00701753 0)
(-0.053562 0.00658139 0)
(-0.0664838 0.00619102 0)
(-0.078536 0.00576681 0)
(-0.0896649 0.00527212 0)
(-0.0998471 0.00480947 0)
(-0.110226 0.00432671 0)
(-0.0604669 -0.0102883 0)
(-0.047124 -0.011019 0)
(-0.0307979 -0.0115564 0)
(-0.0130198 -0.012058 0)
(0.00470482 -0.0125839 0)
(0.0223501 -0.0128772 0)
(0.0411294 -0.0132609 0)
(0.0601819 -0.0132647 0)
(0.079256 -0.0131029 0)
(0.0981257 -0.013032 0)
(0.116542 -0.0125374 0)
(0.134241 -0.0118659 0)
(0.150969 -0.0112272 0)
(0.166442 -0.0102063 0)
(0.180428 -0.00916587 0)
(0.192655 -0.0078253 0)
(0.202915 -0.00636564 0)
(0.211026 -0.00483621 0)
(0.216817 -0.00317818 0)
(0.220225 -0.00147413 0)
(0.221142 0.000246624 0)
(0.219555 0.00196347 0)
(0.21545 0.00370176 0)
(0.208975 0.00527783 0)
(0.200242 0.00683326 0)
(0.189396 0.0081336 0)
(0.176672 0.00941539 0)
(0.162273 0.0105734 0)
(0.146431 0.0113306 0)
(0.129436 0.0121171 0)
(0.111529 0.0127438 0)
(0.0929565 0.0129391 0)
(0.0739558 0.0132043 0)
(0.0547826 0.0130803 0)
(0.0354921 0.0130405 0)
(0.0164288 0.0128903 0)
(-0.00149113 0.0123318 0)
(-0.0186417 0.0119706 0)
(-0.0354466 0.0114935 0)
(-0.0514835 0.0108419 0)
(-0.0666637 0.0102468 0)
(-0.0809156 0.00954212 0)
(-0.0942181 0.00889738 0)
(-0.106547 0.00823159 0)
(-0.117895 0.00752891 0)
(-0.12828 0.00687494 0)
(-0.137713 0.0062225 0)
(-0.146215 0.00557101 0)
(-0.153814 0.00495289 0)
(-0.16053 0.00434773 0)
(-0.166395 0.00375276 0)
(-0.171437 0.00318722 0)
(-0.175681 0.0026228 0)
(-0.179157 0.0020902 0)
(-0.181859 0.00155326 0)
(-0.183818 0.00103071 0)
(-0.185022 0.000538803 0)
(-0.185474 6.58863e-06 0)
(-0.185149 -0.000546404 0)
(-0.18404 -0.00106276 0)
(-0.182142 -0.00164719 0)
(-0.179465 -0.00214616 0)
(-0.17599 -0.00269644 0)
(-0.171646 -0.0033376 0)
(-0.166495 -0.00389328 0)
(-0.160488 -0.00443124 0)
(-0.153606 -0.00515017 0)
(-0.145824 -0.00573607 0)
(-0.137072 -0.00642641 0)
(-0.127439 -0.00705 0)
(-0.116976 -0.00766975 0)
(-0.105493 -0.00827779 0)
(-0.0931166 -0.00890939 0)
(-0.0800768 -0.0094535 0)
(-0.0660643 -0.0100011 0)