/*--------------------------------*- C++ -*----------------------------------*\
| =========                 |                                                 |
| \\      /  F ield         | OpenFOAM: The Open Source CFD Toolbox           |
|  \\    /   O peration     | Version:  3.0.1                                 |
|   \\  /    A nd           | Web:      www.OpenFOAM.org                      |
|    \\/     M anipulation  |                                                 |
\*---------------------------------------------------------------------------*/
FoamFile
{
    version     2.0;
    format      ascii;
    class       volVectorField;
    location    "41.4";
    object      U;
}
// * * * * * * * * * * * * * * * * * * * * * * * * * * * * * * * * * * * * * //

dimensions      [0 1 -1 0 0 0 0];

internalField   nonuniform List<vector> 
21420
(
(-0.142506 -0.000742669 0)
(-0.135578 -0.000836403 0)
(-0.126692 -0.000927224 0)
(-0.11686 -0.0010193 0)
(-0.106053 -0.00112242 0)
(-0.0942628 -0.00121602 0)
(-0.0814857 -0.00132226 0)
(-0.0677338 -0.00141232 0)
(-0.0530397 -0.00149659 0)
(-0.0374447 -0.0015963 0)
(-0.0209853 -0.00166652 0)
(-0.00382357 -0.00172351 0)
(0.0139255 -0.00179836 0)
(0.0322049 -0.00182794 0)
(0.0508214 -0.00187361 0)
(0.0695891 -0.00186589 0)
(0.0882891 -0.0018347 0)
(0.106693 -0.00181564 0)
(0.124567 -0.00173822 0)
(0.141651 -0.00163613 0)
(0.157688 -0.00153694 0)
(0.172437 -0.00138869 0)
(0.185651 -0.00122005 0)
(0.197104 -0.00104331 0)
(0.206603 -0.000837785 0)
(0.21398 -0.000621966 0)
(0.219107 -0.000391575 0)
(0.221908 -0.000153666 0)
(0.222326 7.56938e-05 0)
(0.220411 0.000312125 0)
(0.216034 0.000549344 0)
(0.209459 0.000758938 0)
(0.20076 0.000967542 0)
(0.190108 0.00113881 0)
(0.177701 0.00130833 0)
(0.16374 0.00146163 0)
(0.148461 0.00156068 0)
(0.132122 0.00166283 0)
(0.114943 0.00174379 0)
(0.0971528 0.00176903 0)
(0.078981 0.00180171 0)
(0.0606393 0.00178662 0)
(0.0423123 0.00178091 0)
(0.0242544 0.00175256 0)
(0.00701834 0.00168499 0)
(-0.00945209 0.00163606 0)
(-0.0254616 0.00157149 0)
(-0.040809 0.00148618 0)
(-0.0553778 0.00140702 0)
(-0.0690976 0.00132168 0)
(-0.0819254 0.00122727 0)
(-0.0938468 0.00113773 0)
(-0.104854 0.00104367 0)
(-0.114951 0.000954697 0)
(-0.124145 0.00086534 0)
(-0.132459 0.000776073 0)
(-0.139911 0.000692618 0)
(-0.14651 0.000607581 0)
(-0.15228 0.000525535 0)
(-0.157258 0.000447625 0)
(-0.161471 0.000368839 0)
(-0.16494 0.000296297 0)
(-0.167639 0.000221326 0)
(-0.169587 0.00014657 0)
(-0.17081 8.17341e-05 0)
(-0.171334 8.39058e-06 0)
(-0.171047 -6.42919e-05 0)
(-0.170046 -0.000134007 0)
(-0.168329 -0.000213666 0)
(-0.165834 -0.000282802 0)
(-0.162612 -0.000355714 0)
(-0.158626 -0.000439062 0)
(-0.153858 -0.000510073 0)
(-0.14843 -0.000585086 0)
(-0.142093 -0.000668268 0)
(-0.134953 -0.000739069 0)
(-0.127236 -0.000826732 0)
(-0.118496 -0.00090176 0)
(-0.108988 -0.000972801 0)
(-0.0989424 -0.00105621 0)
(-0.0880021 -0.00112931 0)
(-0.0762099 -0.00119325 0)
(-0.0637909 -0.00126534 0)
(-0.0506741 -0.00133659 0)
(-0.0368893 -0.00139614 0)
(-0.0225227 -0.00146092 0)
(-0.0074831 -0.00151564 0)
(0.00810372 -0.00156644 0)
(0.0240841 -0.00160803 0)
(0.0404528 -0.00163668 0)
(0.0570666 -0.00165885 0)
(0.0737781 -0.00166151 0)
(0.0904578 -0.00164952 0)
(0.106926 -0.00161142 0)
(0.122931 -0.0015615 0)
(0.138327 -0.00149139 0)
(0.152927 -0.00140262 0)
(0.166507 -0.00129025 0)
(0.178897 -0.00116191 0)
(0.189927 -0.0010148 0)
(0.199369 -0.000857868 0)
(0.207125 -0.000684839 0)
(0.213073 -0.000492082 0)
(0.217078 -0.000295052 0)
(0.219039 -9.40927e-05 0)
(0.218961 0.000108912 0)
(0.216737 0.00031964 0)
(0.21242 0.00053313 0)
(0.206065 0.000731596 0)
(0.197717 0.000922 0)
(0.187518 0.00109997 0)
(0.175624 0.00125926 0)
(0.162198 0.00140269 0)
(0.147424 0.00152763 0)
(0.131548 0.0016218 0)
(0.114762 0.00169995 0)
(0.0973009 0.00175555 0)
(0.0794663 0.00178852 0)
(0.0614267 0.00179283 0)
(0.0434049 0.00177799 0)
(0.0256444 0.00174575 0)
(0.00829131 0.0016979 0)
(-0.00846879 0.00163324 0)
(-0.0244976 0.00154857 0)
(-0.0397068 0.00146387 0)
(-0.0540063 0.00137295 0)
(-0.0673555 0.00127689 0)
(-0.0797238 0.00117939 0)
(-0.0910788 0.00107801 0)
(-0.101422 0.00097346 0)
(-0.11077 0.000879046 0)
(-0.119126 0.000777099 0)
(-0.126505 0.000695233 0)
(-0.132988 0.000597121 0)
(-0.138594 0.000512995 0)
(-0.143361 0.000436125 0)
(-0.147344 0.000354042 0)
(-0.150574 0.000285618 0)
(-0.153101 0.000215713 0)
(-0.154956 0.000152639 0)
(-0.15621 9.80383e-05 0)
(-0.156918 4.38899e-05 0)
(-0.157091 -1.17648e-05 0)
(-0.156704 -5.9627e-05 0)
(-0.155888 -0.000110024 0)
(-0.154581 -0.000145417 0)
(-0.152839 -0.000195327 0)
(-0.15067 -0.000230178 0)
(-0.148085 -0.000274764 0)
(-0.145119 -0.000317966 0)
(-0.141695 -0.000357425 0)
(-0.137821 -0.000410006 0)
(-0.133439 -0.000459482 0)
(-0.1285 -0.000513617 0)
(-0.122999 -0.000580741 0)
(-0.116863 -0.00063449 0)
(-0.110091 -0.000708183 0)
(-0.10262 -0.000768007 0)
(-0.0944833 -0.000841915 0)
(-0.0855999 -0.000919255 0)
(-0.0759611 -0.00099143 0)
(-0.0655556 -0.001074 0)
(-0.054368 -0.0011398 0)
(-0.0423941 -0.00122971 0)
(-0.0296559 -0.00130967 0)
(-0.0161294 -0.00136959 0)
(-0.00182143 -0.00144684 0)
(0.0131254 -0.00151014 0)
(0.0286182 -0.00155911 0)
(0.0445387 -0.0016033 0)
(0.0608221 -0.00162146 0)
(0.0772747 -0.00163712 0)
(0.0937561 -0.00163104 0)
(0.110091 -0.00160013 0)
(0.126007 -0.00155798 0)
(0.141354 -0.00148377 0)
(0.155848 -0.00138244 0)
(0.169199 -0.00126478 0)
(0.181198 -0.00111415 0)
(0.191601 -0.000940421 0)
(0.200161 -0.000752047 0)
(0.206697 -0.000543762 0)
(0.211075 -0.000319962 0)
(0.213134 -9.40537e-05 0)
(0.212899 0.000138676 0)
(0.210228 0.000381172 0)
(0.2052 0.000609731 0)
(0.19791 0.000833137 0)
(0.188515 0.00102895 0)
(0.177217 0.00121014 0)
(0.164185 0.00137151 0)
(0.149686 0.00150282 0)
(0.133988 0.00161317 0)
(0.117317 0.00169606 0)
(0.0999248 0.00175014 0)
(0.082076 0.0017903 0)
(0.0639875 0.00179986 0)
(0.0458965 0.00178827 0)
(0.0280459 0.00174644 0)
(0.0106539 0.00169534 0)
(-0.00610306 0.00162806 0)
(-0.0220643 0.00154979 0)
(-0.0371847 0.00145568 0)
(-0.0514065 0.00136212 0)
(-0.0646432 0.0012706 0)
(-0.0769599 0.00117672 0)
(-0.0883712 0.0010875 0)
(-0.0988764 0.000999287 0)
(-0.108537 0.0009116 0)
(-0.117294 0.000827156 0)
(-0.12518 0.000738831 0)
(-0.132211 0.000653363 0)
(-0.138391 0.000576025 0)
(-0.143792 0.000496002 0)
(-0.148436 0.000422297 0)
(-0.15236 0.000354378 0)
(-0.155635 0.000298382 0)
(-0.158311 0.000239327 0)
(-0.16039 0.000171944 0)
(-0.161824 0.000113093 0)
(-0.162611 5.07831e-05 0)
(-0.162836 -1.25605e-05 0)
(-0.162456 -6.57453e-05 0)
(-0.161441 -0.000125674 0)
(-0.15986 -0.000183673 0)
(-0.157691 -0.000245546 0)
(-0.154922 -0.000303649 0)
(-0.151554 -0.000366641 0)
(-0.147511 -0.000434873 0)
(-0.142789 -0.0005038 0)
(-0.137354 -0.000567084 0)
(-0.131198 -0.000648838 0)
(-0.124308 -0.000719841 0)
(-0.116637 -0.000796855 0)
(-0.108184 -0.000882293 0)
(-0.0988584 -0.000963854 0)
(-0.0886057 -0.00105907 0)
(-0.0774221 -0.00115896 0)
(-0.0652977 -0.00125576 0)
(-0.0521512 -0.00134894 0)
(-0.0380014 -0.00144649 0)
(-0.0229719 -0.00153284 0)
(-0.0071146 -0.00160401 0)
(0.00942191 -0.00167027 0)
(0.0265086 -0.0017143 0)
(0.0439815 -0.00174548 0)
(0.0616451 -0.00175187 0)
(0.079261 -0.00174475 0)
(0.0966727 -0.00170676 0)
(0.113616 -0.00164994 0)
(0.129866 -0.0015681 0)
(0.145155 -0.00145588 0)
(0.15919 -0.00132958 0)
(0.171786 -0.00116438 0)
(0.18263 -0.000981372 0)
(0.191479 -0.000771298 0)
(0.19817 -0.000547525 0)
(0.202513 -0.000309916 0)
(0.204377 -6.56921e-05 0)
(0.203803 0.000181266 0)
(0.200596 0.000440351 0)
(0.194946 0.000682305 0)
(0.18692 0.00090818 0)
(0.176665 0.00112297 0)
(0.164426 0.00131205 0)
(0.150435 0.00146783 0)
(0.134934 0.00160646 0)
(0.118268 0.0017032 0)
(0.100799 0.00177153 0)
(0.0828076 0.00180748 0)
(0.0645639 0.00181787 0)
(0.0462683 0.00179411 0)
(0.0282429 0.00177745 0)
(0.0109513 0.00169697 0)
(-0.00559674 0.00163419 0)
(-0.0214262 0.0015466 0)
(-0.0363696 0.00144868 0)
(-0.0503649 0.00134701 0)
(-0.0632449 0.001239 0)
(-0.0750316 0.00112939 0)
(-0.0857787 0.00103065 0)
(-0.0954671 0.000921173 0)
(-0.104224 0.000834562 0)
(-0.112068 0.000739644 0)
(-0.11902 0.000656205 0)
(-0.125274 0.000586291 0)
(-0.130798 0.000510493 0)
(-0.135599 0.000438654 0)
(-0.139762 0.000376114 0)
(-0.143283 0.000307275 0)
(-0.146204 0.000251722 0)
(-0.148502 0.000192041 0)
(-0.150174 0.000129857 0)
(-0.151267 7.96796e-05 0)
(-0.151789 2.63254e-05 0)
(-0.151717 -3.09628e-05 0)
(-0.151127 -8.54712e-05 0)
(-0.149956 -0.000140644 0)
(-0.148148 -0.000205004 0)
(-0.145746 -0.000265395 0)
(-0.142688 -0.000337642 0)
(-0.138943 -0.000407512 0)
(-0.134452 -0.000481297 0)
(-0.129095 -0.000571047 0)
(-0.122881 -0.000652961 0)
(-0.115799 -0.000745881 0)
(-0.107708 -0.000854951 0)
(-0.0985952 -0.00095126 0)
(-0.0884013 -0.00106971 0)
(-0.0770792 -0.00116913 0)
(-0.0647058 -0.00126562 0)
(-0.051253 -0.00138557 0)
(-0.0367246 -0.00147306 0)
(-0.0213191 -0.00154657 0)
(-0.00527802 -0.0016523 0)
(0.011432 -0.00169532 0)
(0.0287946 -0.00175906 0)
(0.0465435 -0.00177368 0)
(0.0644273 -0.00176392 0)
(0.0822251 -0.00176429 0)
(0.0997337 -0.0017128 0)
(0.116689 -0.00163584 0)
(0.132843 -0.00156002 0)
(0.147966 -0.00143839 0)
(0.161822 -0.00131155 0)
(0.174201 -0.00114913 0)
(0.184904 -0.000970048 0)
(0.193754 -0.000781973 0)
(0.200613 -0.000576304 0)
(0.205389 -0.000362395 0)
(0.208005 -0.000144223 0)
(0.208399 6.691e-05 0)
(0.20664 0.000285476 0)
(0.202631 0.000496553 0)
(0.196603 0.000698592 0)
(0.188634 0.000876672 0)
(0.178884 0.00104867 0)
(0.167524 0.001206 0)
(0.154754 0.00132272 0)
(0.140789 0.00143873 0)
(0.125836 0.00153618 0)
(0.110105 0.00158626 0)
(0.0938064 0.00164249 0)
(0.0771378 0.00165285 0)
(0.0602832 0.00167221 0)
(0.0434063 0.001675 0)
(0.0266125 0.00163759 0)
(0.0100169 0.00161046 0)
(-0.00597403 0.00157602 0)
(-0.0213269 0.00150645 0)
(-0.0362127 0.0014483 0)
(-0.0504169 0.00136574 0)
(-0.063865 0.00129362 0)
(-0.0765007 0.00121482 0)
(-0.0882725 0.00112065 0)
(-0.0991531 0.00103428 0)
(-0.110328 0.000943923 0)
(-0.142541 -0.00222781 0)
(-0.135615 -0.00250906 0)
(-0.126729 -0.00278155 0)
(-0.116898 -0.00305782 0)
(-0.106092 -0.00336722 0)
(-0.0943021 -0.00364806 0)
(-0.0815251 -0.00396684 0)
(-0.0677719 -0.0042371 0)
(-0.0530757 -0.00448997 0)
(-0.0374788 -0.00478919 0)
(-0.0210157 -0.00499986 0)
(-0.00384924 -0.00517096 0)
(0.0139045 -0.00539573 0)
(0.0321903 -0.00548451 0)
(0.050814 -0.00562165 0)
(0.0695899 -0.00559853 0)
(0.0882988 -0.00550501 0)
(0.106713 -0.00544792 0)
(0.124596 -0.00521568 0)
(0.14169 -0.0049094 0)
(0.157738 -0.0046119 0)
(0.172495 -0.00416701 0)
(0.185718 -0.00366104 0)
(0.19718 -0.00313075 0)
(0.206685 -0.00251399 0)
(0.214069 -0.00186616 0)
(0.219199 -0.00117366 0)
(0.222001 -0.000465449 0)
(0.22243 0.000227881 0)
(0.220497 0.000937361 0)
(0.216124 0.00164804 0)
(0.209544 0.00227718 0)
(0.20084 0.00290328 0)
(0.190179 0.0034172 0)
(0.177765 0.00392578 0)
(0.163796 0.00438579 0)
(0.148507 0.004683 0)
(0.132159 0.00498943 0)
(0.114971 0.00523229 0)
(0.0971717 0.00530794 0)
(0.0789917 0.00540587 0)
(0.0606429 0.00536058 0)
(0.0423085 0.00534322 0)
(0.0242424 0.00525876 0)
(0.00700285 0.00505525 0)
(-0.00947055 0.00490859 0)
(-0.0254847 0.00471483 0)
(-0.0408348 0.00445885 0)
(-0.0554061 0.00422137 0)
(-0.0691277 0.00396531 0)
(-0.0819563 0.00368211 0)
(-0.0938786 0.00341362 0)
(-0.104886 0.00313132 0)
(-0.114984 0.00286397 0)
(-0.124178 0.00259639 0)
(-0.132492 0.00232901 0)
(-0.139945 0.00207703 0)
(-0.146543 0.00182315 0)
(-0.152314 0.00157785 0)
(-0.157295 0.00134214 0)
(-0.161508 0.00110603 0)
(-0.164977 0.000889524 0)
(-0.167679 0.000664739 0)
(-0.169629 0.00043987 0)
(-0.170855 0.000245746 0)
(-0.171378 2.89704e-05 0)
(-0.171094 -0.000195479 0)
(-0.170094 -0.000400393 0)
(-0.168381 -0.000639554 0)
(-0.165888 -0.00085125 0)
(-0.162664 -0.00106606 0)
(-0.15868 -0.00131388 0)
(-0.153917 -0.00153427 0)
(-0.148485 -0.0017534 0)
(-0.142148 -0.00200368 0)
(-0.13501 -0.00221656 0)
(-0.127292 -0.00247914 0)
(-0.11855 -0.00270637 0)
(-0.109042 -0.00291952 0)
(-0.0989979 -0.00316925 0)
(-0.0880484 -0.00338285 0)
(-0.0762618 -0.00358417 0)
(-0.0638396 -0.00380488 0)
(-0.0507112 -0.0040006 0)
(-0.0369395 -0.00419875 0)
(-0.0225556 -0.00438624 0)
(-0.00751537 -0.00454757 0)
(0.00807661 -0.00470093 0)
(0.0240631 -0.00482752 0)
(0.04043 -0.00491862 0)
(0.0570587 -0.00497304 0)
(0.0737836 -0.00498331 0)
(0.0904657 -0.00493716 0)
(0.106925 -0.00484683 0)
(0.122945 -0.00468893 0)
(0.138349 -0.00447275 0)
(0.152956 -0.00420546 0)
(0.166542 -0.00387792 0)
(0.17894 -0.003499 0)
(0.189977 -0.00304861 0)
(0.19944 -0.00257123 0)
(0.207198 -0.00205165 0)
(0.213141 -0.0014781 0)
(0.217155 -0.000894374 0)
(0.219127 -0.00028315 0)
(0.219049 0.000319456 0)
(0.216834 0.000963419 0)
(0.212514 0.00159984 0)
(0.206148 0.00218568 0)
(0.197799 0.00276381 0)
(0.187593 0.00329628 0)
(0.175695 0.0037787 0)
(0.162255 0.00420714 0)
(0.147475 0.00457427 0)
(0.131593 0.00487516 0)
(0.114789 0.00510718 0)
(0.0973182 0.00526503 0)
(0.0794674 0.00536212 0)
(0.0614172 0.00537601 0)
(0.0433896 0.00534287 0)
(0.0256051 0.00523832 0)
(0.00823611 0.00508512 0)
(-0.00852948 0.00489336 0)
(-0.0245589 0.00465583 0)
(-0.0397753 0.004401 0)
(-0.054086 0.00412462 0)
(-0.0674408 0.003826 0)
(-0.0798183 0.00353234 0)
(-0.0911764 0.00323427 0)
(-0.101519 0.00292479 0)
(-0.110872 0.00263066 0)
(-0.119226 0.0023271 0)
(-0.126612 0.00207741 0)
(-0.133095 0.0017944 0)
(-0.138707 0.00154713 0)
(-0.143478 0.00129795 0)
(-0.147452 0.00106778 0)
(-0.150687 0.000856914 0)
(-0.153213 0.000647135 0)
(-0.155067 0.000462502 0)
(-0.156321 0.000288021 0)
(-0.157029 0.000132591 0)
(-0.157197 -3.39787e-05 0)
(-0.156821 -0.00017932 0)
(-0.156007 -0.000335655 0)
(-0.154692 -0.00043159 0)
(-0.152957 -0.000586045 0)
(-0.150797 -0.000699298 0)
(-0.148201 -0.000828935 0)
(-0.145225 -0.000942657 0)
(-0.141816 -0.00108227 0)
(-0.137941 -0.00123062 0)
(-0.133558 -0.00137842 0)
(-0.128627 -0.00154991 0)
(-0.123109 -0.00173391 0)
(-0.116986 -0.00190521 0)
(-0.110214 -0.00212402 0)
(-0.102755 -0.00231722 0)
(-0.0946086 -0.00253147 0)
(-0.0857126 -0.00275565 0)
(-0.0760643 -0.00296651 0)
(-0.0656733 -0.00322525 0)
(-0.0544759 -0.00343322 0)
(-0.0424881 -0.00368035 0)
(-0.0297577 -0.00393213 0)
(-0.0162152 -0.00411731 0)
(-0.00190795 -0.00434055 0)
(0.0130411 -0.00453626 0)
(0.0285475 -0.00468099 0)
(0.0444836 -0.00480625 0)
(0.060766 -0.00487313 0)
(0.0772365 -0.00491433 0)
(0.0937324 -0.00488764 0)
(0.110056 -0.00482247 0)
(0.126011 -0.00467138 0)
(0.141369 -0.0044498 0)
(0.155874 -0.00415743 0)
(0.169253 -0.00379379 0)
(0.18126 -0.00334078 0)
(0.191672 -0.00283475 0)
(0.200246 -0.00225986 0)
(0.206796 -0.00162862 0)
(0.211174 -0.000966378 0)
(0.213245 -0.000277194 0)
(0.213011 0.000415855 0)
(0.210333 0.00114467 0)
(0.205302 0.00183207 0)
(0.198002 0.00249077 0)
(0.188606 0.00308905 0)
(0.177296 0.00363535 0)
(0.164248 0.00411102 0)
(0.149738 0.004501 0)
(0.134023 0.00484074 0)
(0.117338 0.00508636 0)
(0.0999352 0.00525595 0)
(0.0820599 0.00536908 0)
(0.063958 0.00539066 0)
(0.0458638 0.00535928 0)
(0.0280117 0.0052642 0)
(0.0105988 0.00509791 0)
(-0.00617579 0.00487759 0)
(-0.0221477 0.00464827 0)
(-0.0372777 0.0043606 0)
(-0.0514941 0.0040886 0)
(-0.0647339 0.00382087 0)
(-0.0770616 0.0035209 0)
(-0.0884733 0.00325898 0)
(-0.0989825 0.00299798 0)
(-0.108644 0.00274291 0)
(-0.11741 0.00247725 0)
(-0.125292 0.00221903 0)
(-0.132322 0.00196942 0)
(-0.138506 0.0017191 0)
(-0.143904 0.00148829 0)
(-0.148552 0.00127085 0)
(-0.152481 0.00106536 0)
(-0.155759 0.00088901 0)
(-0.158435 0.000706951 0)
(-0.160504 0.00051965 0)
(-0.161947 0.000338682 0)
(-0.162734 0.000148585 0)
(-0.162942 -2.05191e-05 0)
(-0.16258 -0.000203634 0)
(-0.161572 -0.00038637 0)
(-0.159981 -0.000551431 0)
(-0.157814 -0.000735047 0)
(-0.155041 -0.00090728 0)
(-0.151677 -0.00109652 0)
(-0.147639 -0.00130496 0)
(-0.142913 -0.0015141 0)
(-0.137481 -0.00171289 0)
(-0.131319 -0.00193958 0)
(-0.124426 -0.00216945 0)
(-0.116751 -0.00238766 0)
(-0.108303 -0.00264487 0)
(-0.0989881 -0.00291053 0)
(-0.0887163 -0.00318144 0)
(-0.077526 -0.00346668 0)
(-0.0654162 -0.00377751 0)
(-0.0522551 -0.00405057 0)
(-0.0380905 -0.00433456 0)
(-0.0230599 -0.00459504 0)
(-0.0071967 -0.00482265 0)
(0.00935259 -0.00501071 0)
(0.0264433 -0.00514877 0)
(0.0439316 -0.00523836 0)
(0.0616015 -0.00526773 0)
(0.0792465 -0.0052328 0)
(0.0966613 -0.00512381 0)
(0.11362 -0.00495309 0)
(0.129882 -0.00470652 0)
(0.145177 -0.00439032 0)
(0.15925 -0.0039798 0)
(0.171859 -0.00349289 0)
(0.182712 -0.00294125 0)
(0.191567 -0.00232401 0)
(0.198265 -0.00165265 0)
(0.202615 -0.000930586 0)
(0.204496 -0.000199908 0)
(0.203911 0.000549973 0)
(0.200694 0.00131957 0)
(0.195042 0.0020469 0)
(0.187005 0.0027255 0)
(0.176739 0.00336572 0)
(0.164493 0.00393645 0)
(0.150489 0.00441195 0)
(0.134968 0.00481464 0)
(0.11829 0.00510375 0)
(0.100819 0.00531715 0)
(0.08281 0.00543374 0)
(0.0645487 0.00544353 0)
(0.0462587 0.00539357 0)
(0.0282173 0.00533263 0)
(0.0109143 0.00508912 0)
(-0.00563609 0.00490386 0)
(-0.0214749 0.00463712 0)
(-0.0364157 0.00434814 0)
(-0.050414 0.0040468 0)
(-0.0632986 0.00371499 0)
(-0.0750849 0.00338952 0)
(-0.0858345 0.00308622 0)
(-0.0955166 0.00276626 0)
(-0.104274 0.00250373 0)
(-0.112114 0.002221 0)
(-0.119064 0.00196867 0)
(-0.125317 0.0017582 0)
(-0.13084 0.00153037 0)
(-0.135637 0.00131686 0)
(-0.139801 0.00112851 0)
(-0.14332 0.000921976 0)
(-0.14624 0.000755713 0)
(-0.148537 0.000575615 0)
(-0.150208 0.000389888 0)
(-0.151299 0.000241476 0)
(-0.151822 7.91187e-05 0)
(-0.15175 -9.38668e-05 0)
(-0.15116 -0.000256535 0)
(-0.149989 -0.000420545 0)
(-0.148182 -0.000614499 0)
(-0.145781 -0.00079661 0)
(-0.142725 -0.0010131 0)
(-0.138982 -0.00122152 0)
(-0.134492 -0.00144342 0)
(-0.129137 -0.00171226 0)
(-0.122926 -0.00195892 0)
(-0.115846 -0.00223752 0)
(-0.107757 -0.00256458 0)
(-0.0986448 -0.00285351 0)
(-0.0884518 -0.00320898 0)
(-0.077129 -0.00350726 0)
(-0.0647549 -0.00379712 0)
(-0.0513006 -0.00415699 0)
(-0.036768 -0.00441963 0)
(-0.0213604 -0.00464205 0)
(-0.00531314 -0.00495545 0)
(0.0114058 -0.00508646 0)
(0.0287749 -0.00527791 0)
(0.0465321 -0.00532183 0)
(0.0644245 -0.00529267 0)
(0.0822325 -0.00529389 0)
(0.0997507 -0.00513945 0)
(0.116715 -0.00490849 0)
(0.13288 -0.00468106 0)
(0.148013 -0.00431612 0)
(0.161879 -0.00393561 0)
(0.174265 -0.00344822 0)
(0.184975 -0.0029108 0)
(0.193832 -0.00234639 0)
(0.200695 -0.00172899 0)
(0.205474 -0.00108801 0)
(0.208091 -0.000436543 0)
(0.208494 0.000202756 0)
(0.20672 0.000857917 0)
(0.202712 0.00148991 0)
(0.196681 0.00209623 0)
(0.188705 0.00263058 0)
(0.178948 0.00314668 0)
(0.167581 0.00361874 0)
(0.154802 0.00396894 0)
(0.14083 0.00431702 0)
(0.125868 0.00460936 0)
(0.110128 0.00475958 0)
(0.0938223 0.00492824 0)
(0.0771463 0.00495925 0)
(0.0602849 0.00501727 0)
(0.0434016 0.0050256 0)
(0.0266021 0.00491336 0)
(0.0100022 0.00483204 0)
(-0.00599312 0.00472829 0)
(-0.0213502 0.00451966 0)
(-0.0362394 0.00434519 0)
(-0.0504458 0.00409747 0)
(-0.0638965 0.00388107 0)
(-0.0765343 0.00364462 0)
(-0.088307 0.00336207 0)
(-0.099189 0.00310293 0)
(-0.110365 0.00283184 0)
(-0.142612 -0.00371254 0)
(-0.135688 -0.00418135 0)
(-0.126804 -0.00463559 0)
(-0.116974 -0.00509613 0)
(-0.10617 -0.00561192 0)
(-0.0943794 -0.00608016 0)
(-0.0816025 -0.00661167 0)
(-0.0678464 -0.00706229 0)
(-0.0531459 -0.00748401 0)
(-0.0375451 -0.00798297 0)
(-0.0210742 -0.00833416 0)
(-0.00389828 -0.00861989 0)
(0.013865 -0.008995 0)
(0.0321639 -0.00914315 0)
(0.0508021 -0.00937208 0)
(0.0695947 -0.00933377 0)
(0.0883211 -0.00917805 0)
(0.106756 -0.00908318 0)
(0.124658 -0.00869612 0)
(0.14177 -0.00818559 0)
(0.157841 -0.00768984 0)
(0.172616 -0.00694806 0)
(0.185854 -0.00610448 0)
(0.197335 -0.00522036 0)
(0.206852 -0.004192 0)
(0.214247 -0.00311221 0)
(0.219382 -0.00195924 0)
(0.222193 -0.000777538 0)
(0.222629 0.000382333 0)
(0.220668 0.00156574 0)
(0.216302 0.00274736 0)
(0.20971 0.00379696 0)
(0.200994 0.00484128 0)
(0.190316 0.00569811 0)
(0.177885 0.00654592 0)
(0.163899 0.00731289 0)
(0.148589 0.00780827 0)
(0.132223 0.00831892 0)
(0.115015 0.00872361 0)
(0.0971974 0.00884953 0)
(0.0790003 0.00901225 0)
(0.0606372 0.00893652 0)
(0.0422878 0.00890626 0)
(0.0242051 0.0087679 0)
(0.00695846 0.00842667 0)
(-0.00952069 0.00818235 0)
(-0.0255438 0.00785901 0)
(-0.0408989 0.0074321 0)
(-0.0554744 0.00703623 0)
(-0.0691988 0.00660933 0)
(-0.0820286 0.00613701 0)
(-0.0939517 0.00568962 0)
(-0.104959 0.00521895 0)
(-0.115055 0.0047736 0)
(-0.124248 0.0043275 0)
(-0.13256 0.00388148 0)
(-0.140011 0.00346173 0)
(-0.146608 0.00303932 0)
(-0.152377 0.00263018 0)
(-0.157356 0.00223756 0)
(-0.161567 0.00184377 0)
(-0.165035 0.0014832 0)
(-0.167736 0.0011087 0)
(-0.169685 0.000734057 0)
(-0.170916 0.000409664 0)
(-0.171434 5.14609e-05 0)
(-0.171149 -0.000326615 0)
(-0.170152 -0.000667651 0)
(-0.16844 -0.00106722 0)
(-0.165946 -0.00141627 0)
(-0.162723 -0.0017766 0)
(-0.158743 -0.00219268 0)
(-0.153976 -0.00255429 0)
(-0.148547 -0.00292532 0)
(-0.142209 -0.00333885 0)
(-0.135073 -0.00369715 0)
(-0.127358 -0.00413258 0)
(-0.118611 -0.00450848 0)
(-0.109103 -0.00486509 0)
(-0.0990641 -0.00528633 0)
(-0.0881119 -0.00564393 0)
(-0.0763186 -0.00596808 0)
(-0.0638981 -0.00633998 0)
(-0.050776 -0.00667703 0)
(-0.0369949 -0.00698872 0)
(-0.0226131 -0.00731277 0)
(-0.00756977 -0.00758216 0)
(0.00802291 -0.00783517 0)
(0.0240171 -0.00804533 0)
(0.0403894 -0.00819832 0)
(0.0570255 -0.00829121 0)
(0.0737572 -0.0083074 0)
(0.0904451 -0.00824367 0)
(0.106919 -0.00807368 0)
(0.122952 -0.00780969 0)
(0.138364 -0.0074623 0)
(0.152975 -0.00701538 0)
(0.166573 -0.00646129 0)
(0.178988 -0.00582828 0)
(0.190039 -0.00508313 0)
(0.199508 -0.0042833 0)
(0.207268 -0.00342658 0)
(0.213216 -0.00246979 0)
(0.217236 -0.00148586 0)
(0.219217 -0.000472524 0)
(0.219134 0.000533925 0)
(0.216916 0.00160562 0)
(0.2126 0.00266314 0)
(0.206234 0.00365064 0)
(0.197874 0.00460844 0)
(0.187656 0.00549487 0)
(0.175746 0.00630448 0)
(0.16229 0.00701599 0)
(0.14749 0.00763428 0)
(0.131578 0.00812544 0)
(0.114757 0.00850376 0)
(0.0972774 0.00878218 0)
(0.0794066 0.00894716 0)
(0.0613372 0.00896497 0)
(0.0432886 0.00890852 0)
(0.025487 0.00873468 0)
(0.00811078 0.00848059 0)
(-0.00866957 0.00816114 0)
(-0.0247124 0.0077581 0)
(-0.0399392 0.00733294 0)
(-0.0542553 0.00687229 0)
(-0.0676072 0.00638072 0)
(-0.0799849 0.00589112 0)
(-0.0913501 0.00539068 0)
(-0.101689 0.00487199 0)
(-0.111033 0.00438737 0)
(-0.119382 0.00389143 0)
(-0.126774 0.00345922 0)
(-0.13326 0.00299041 0)
(-0.138871 0.00257529 0)
(-0.14364 0.00216926 0)
(-0.147608 0.00177508 0)
(-0.150837 0.00142988 0)
(-0.153366 0.00107776 0)
(-0.155217 0.000768521 0)
(-0.156469 0.000478312 0)
(-0.157172 0.000221107 0)
(-0.157336 -5.34665e-05 0)
(-0.156962 -0.000305206 0)
(-0.156138 -0.000549241 0)
(-0.154831 -0.000728745 0)
(-0.153102 -0.000982234 0)
(-0.15093 -0.00115632 0)
(-0.148334 -0.00137733 0)
(-0.145366 -0.00158417 0)
(-0.141953 -0.00179517 0)
(-0.138085 -0.00205275 0)
(-0.133705 -0.00229535 0)
(-0.128773 -0.00257759 0)
(-0.123256 -0.00289239 0)
(-0.117138 -0.00317938 0)
(-0.110373 -0.00353673 0)
(-0.102907 -0.00385191 0)
(-0.0947707 -0.00422054 0)
(-0.0858704 -0.00459855 0)
(-0.0762299 -0.00495544 0)
(-0.0658281 -0.00537111 0)
(-0.0546239 -0.00571415 0)
(-0.0426502 -0.00614731 0)
(-0.0298969 -0.00654765 0)
(-0.0163471 -0.00686414 0)
(-0.00205125 -0.00723474 0)
(0.0129047 -0.00756079 0)
(0.0284227 -0.00780092 0)
(0.0443719 -0.00801992 0)
(0.0606661 -0.0081262 0)
(0.0771507 -0.00818868 0)
(0.0936578 -0.00815962 0)
(0.110001 -0.00802363 0)
(0.125965 -0.0077959 0)
(0.141349 -0.0074214 0)
(0.155876 -0.0069251 0)
(0.169271 -0.00632797 0)
(0.181297 -0.00558474 0)
(0.191734 -0.00471828 0)
(0.200327 -0.00376667 0)
(0.206889 -0.0027163 0)
(0.21127 -0.00160889 0)
(0.213349 -0.000467929 0)
(0.213109 0.000689842 0)
(0.210429 0.00191285 0)
(0.205401 0.00304949 0)
(0.198094 0.00415411 0)
(0.188681 0.00515468 0)
(0.177349 0.00605915 0)
(0.164284 0.00685645 0)
(0.149755 0.00751673 0)
(0.13402 0.00806865 0)
(0.117315 0.00848352 0)
(0.0998917 0.00876743 0)
(0.0819975 0.00895232 0)
(0.0638789 0.00899344 0)
(0.0457617 0.00893545 0)
(0.0278842 0.00877204 0)
(0.0104585 0.00849173 0)
(-0.00631678 0.00813801 0)
(-0.0223024 0.00775457 0)
(-0.0374424 0.00726762 0)
(-0.0516577 0.00681349 0)
(-0.0648998 0.00636462 0)
(-0.0772198 0.00587545 0)
(-0.088634 0.00543994 0)
(-0.0991483 0.00499009 0)
(-0.108801 0.00456143 0)
(-0.117565 0.00413617 0)
(-0.12546 0.0036999 0)
(-0.132486 0.00327605 0)
(-0.138665 0.00287326 0)
(-0.144064 0.00248202 0)
(-0.148709 0.0021165 0)
(-0.152634 0.0017787 0)
(-0.1559 0.00147849 0)
(-0.158574 0.00118691 0)
(-0.160652 0.000864273 0)
(-0.162098 0.000563049 0)
(-0.162882 0.000254778 0)
(-0.163091 -4.91604e-05 0)
(-0.162728 -0.000344159 0)
(-0.161711 -0.000625018 0)
(-0.160127 -0.000921037 0)
(-0.15796 -0.00123069 0)
(-0.15519 -0.00151048 0)
(-0.151836 -0.00183439 0)
(-0.147797 -0.00217464 0)
(-0.143072 -0.00251925 0)
(-0.137642 -0.00285168 0)
(-0.131479 -0.00323761 0)
(-0.124575 -0.00360722 0)
(-0.116906 -0.00398713 0)
(-0.108463 -0.00441495 0)
(-0.0991387 -0.00483163 0)
(-0.0888722 -0.00530215 0)
(-0.0776933 -0.00579116 0)
(-0.0655736 -0.00629471 0)
(-0.0524139 -0.00674115 0)
(-0.038257 -0.0072341 0)
(-0.0232108 -0.00766607 0)
(-0.00733407 -0.00803247 0)
(0.00922205 -0.00835422 0)
(0.0263244 -0.00858582 0)
(0.0438211 -0.00873748 0)
(0.0615135 -0.00877532 0)
(0.0791732 -0.00872738 0)
(0.0966067 -0.00854735 0)
(0.113587 -0.00825229 0)
(0.129874 -0.00785193 0)
(0.145191 -0.00731012 0)
(0.159286 -0.00664504 0)
(0.171913 -0.00582672 0)
(0.182781 -0.00491157 0)
(0.19166 -0.00387027 0)
(0.198369 -0.00275137 0)
(0.202729 -0.00155557 0)
(0.204618 -0.000326515 0)
(0.20402 0.000913264 0)
(0.200803 0.0021989 0)
(0.195149 0.00341801 0)
(0.187099 0.00454529 0)
(0.17683 0.00561236 0)
(0.164566 0.00656768 0)
(0.150538 0.00735233 0)
(0.135004 0.00802805 0)
(0.118309 0.00851753 0)
(0.100817 0.00886363 0)
(0.0827864 0.0090556 0)
(0.0645142 0.00908376 0)
(0.0462175 0.00899001 0)
(0.0281576 0.00888302 0)
(0.010844 0.00849068 0)
(-0.00571383 0.00817467 0)
(-0.0215605 0.00773201 0)
(-0.0365069 0.00724709 0)
(-0.0505084 0.00674219 0)
(-0.0633931 0.00619622 0)
(-0.0751755 0.00565 0)
(-0.0859254 0.00514784 0)
(-0.0956013 0.00460792 0)
(-0.104356 0.0041719 0)
(-0.112189 0.00370065 0)
(-0.119128 0.00328178 0)
(-0.125379 0.0029292 0)
(-0.130898 0.00255124 0)
(-0.135693 0.00219353 0)
(-0.139855 0.00188083 0)
(-0.14337 0.0015351 0)
(-0.146287 0.0012588 0)
(-0.148584 0.000960638 0)
(-0.150253 0.000650766 0)
(-0.151347 0.00040143 0)
(-0.151864 0.000136676 0)
(-0.151794 -0.000156111 0)
(-0.151205 -0.000425773 0)
(-0.150034 -0.000701346 0)
(-0.148231 -0.00102398 0)
(-0.145833 -0.00132688 0)
(-0.142782 -0.00168952 0)
(-0.139042 -0.00203374 0)
(-0.134555 -0.00240465 0)
(-0.129205 -0.00285159 0)
(-0.122999 -0.00326544 0)
(-0.115924 -0.00372909 0)
(-0.107838 -0.00427375 0)
(-0.0987282 -0.00475526 0)
(-0.0885375 -0.0053481 0)
(-0.0772132 -0.00584503 0)
(-0.064838 -0.00632952 0)
(-0.0513813 -0.00692899 0)
(-0.0368411 -0.00736746 0)
(-0.0214288 -0.007742 0)
(-0.00536995 -0.0082572 0)
(0.0113654 -0.00847947 0)
(0.0287472 -0.00879901 0)
(0.0465203 -0.00887241 0)
(0.0644293 -0.00882404 0)
(0.0822567 -0.00882634 0)
(0.0997934 -0.00856891 0)
(0.116776 -0.00818395 0)
(0.132962 -0.00780485 0)
(0.148111 -0.00719653 0)
(0.161997 -0.00656214 0)
(0.174398 -0.0057495 0)
(0.18512 -0.00485352 0)
(0.193989 -0.00391262 0)
(0.20086 -0.00288396 0)
(0.205643 -0.00181566 0)
(0.208266 -0.000729615 0)
(0.208677 0.0003404 0)
(0.20688 0.00143423 0)
(0.202874 0.00248441 0)
(0.196835 0.00349553 0)
(0.188845 0.00438641 0)
(0.179074 0.00524694 0)
(0.167693 0.00603391 0)
(0.154896 0.00661759 0)
(0.140908 0.00719784 0)
(0.12593 0.00768508 0)
(0.110173 0.00793527 0)
(0.0938515 0.00821628 0)
(0.0771606 0.00826771 0)
(0.0602857 0.00836426 0)
(0.0433899 0.00837799 0)
(0.0265792 0.00819074 0)
(0.00997088 0.00805529 0)
(-0.00603307 0.00788148 0)
(-0.0213983 0.00753382 0)
(-0.0362942 0.00724293 0)
(-0.050505 0.0068299 0)
(-0.0639606 0.0064691 0)
(-0.0766024 0.00607488 0)
(-0.0883771 0.00560385 0)
(-0.0992616 0.00517184 0)
(-0.110439 0.00471992 0)
(-0.142717 -0.00519663 0)
(-0.135798 -0.00585304 0)
(-0.126916 -0.00648916 0)
(-0.117088 -0.0071341 0)
(-0.106287 -0.00785648 0)
(-0.0944955 -0.00851235 0)
(-0.0817187 -0.0092569 0)
(-0.0679584 -0.00988818 0)
(-0.0532514 -0.0104791 0)
(-0.0376446 -0.0111782 0)
(-0.0211621 -0.0116698 0)
(-0.00397204 -0.0120715 0)
(0.0138056 -0.0125975 0)
(0.032124 -0.0128053 0)
(0.0507841 -0.0131265 0)
(0.0696018 -0.0130733 0)
(0.0883546 -0.0128557 0)
(0.106819 -0.0127234 0)
(0.124751 -0.0121815 0)
(0.141891 -0.0114667 0)
(0.157995 -0.0107727 0)
(0.172796 -0.00973373 0)
(0.186059 -0.00855205 0)
(0.197567 -0.00731367 0)
(0.207102 -0.00587306 0)
(0.214515 -0.00436092 0)
(0.219661 -0.00274697 0)
(0.222485 -0.00109632 0)
(0.222913 0.000546092 0)
(0.220931 0.00219847 0)
(0.216569 0.00384798 0)
(0.209959 0.00531929 0)
(0.201226 0.00678293 0)
(0.190521 0.0079831 0)
(0.178066 0.00917046 0)
(0.164053 0.0102448 0)
(0.148713 0.0109384 0)
(0.132318 0.0116532 0)
(0.115081 0.0122196 0)
(0.0972356 0.0123956 0)
(0.0790131 0.0126224 0)
(0.0606283 0.0125157 0)
(0.0422569 0.0124697 0)
(0.0241494 0.0122823 0)
(0.00689147 0.0118006 0)
(-0.00959614 0.0114584 0)
(-0.0256328 0.0110049 0)
(-0.0409953 0.0104065 0)
(-0.0555773 0.00985206 0)
(-0.0693058 0.0092539 0)
(-0.0821371 0.00859228 0)
(-0.0940614 0.00796592 0)
(-0.105067 0.00730669 0)
(-0.115162 0.00668318 0)
(-0.124355 0.00605846 0)
(-0.132663 0.0054345 0)
(-0.140112 0.00484591 0)
(-0.146705 0.00425567 0)
(-0.152471 0.00368305 0)
(-0.15745 0.00313169 0)
(-0.161656 0.00258131 0)
(-0.165122 0.00207841 0)
(-0.167824 0.00155285 0)
(-0.169769 0.00102914 0)
(-0.171007 0.000573818 0)
(-0.171522 6.94085e-05 0)
(-0.171233 -0.00046032 0)
(-0.170238 -0.000935467 0)
(-0.168531 -0.00149331 0)
(-0.166037 -0.00198435 0)
(-0.162813 -0.00248877 0)
(-0.158839 -0.00306723 0)
(-0.154072 -0.00357928 0)
(-0.14864 -0.00409593 0)