/*--------------------------------*- C++ -*----------------------------------*\
| =========                 |                                                 |
| \\      /  F ield         | OpenFOAM: The Open Source CFD Toolbox           |
|  \\    /   O peration     | Version:  3.0.1                                 |
|   \\  /    A nd           | Web:      www.OpenFOAM.org                      |
|    \\/     M anipulation  |                                                 |
\*---------------------------------------------------------------------------*/
FoamFile
{
    version     2.0;
    format      ascii;
    class       volScalarField;
    location    "66.2";
    object      p;
}
// * * * * * * * * * * * * * * * * * * * * * * * * * * * * * * * * * * * * * //

dimensions      [1 -1 -2 0 0 0 0];

internalField   nonuniform List<scalar> 
21420
(
3876.96
3871.47
3845.66
3818.67
3792.39
3767.32
3743.75
3721.78
3701.46
3682.82
3665.84
3650.48
3636.72
3624.5
3613.79
3604.53
3596.69
3590.23
3585.11
3581.31
3578.81
3577.65
3577.78
3579.19
3581.94
3586.06
3591.58
3598.55
3607.03
3617.06
3628.71
3642.03
3657.06
3673.87
3692.46
3712.89
3735.12
3759.14
3784.89
3812.29
3841.2
3871.47
3902.78
3935.09
3968.1
4001.47
4034.86
4067.94
4100.32
4131.6
4161.41
4189.39
4215.18
4238.43
4258.84
4276.15
4290.12
4300.58
4307.38
4310.42
4309.4
4304.57
4295.98
4283.75
4268.08
4249.13
4227.18
4202.51
4175.45
4146.34
4115.54
4083.43
4050.39
4016.8
3983.01
3949.35
3916.17
3884.44
3853.11
3822.93
3794.1
3766.78
3741.09
3717.13
3694.99
3674.69
3656.28
3639.77
3625.15
3612.41
3601.52
3592.43
3585.11
3579.48
3575.49
3573.1
3572.26
3572.86
3574.91
3578.36
3583.22
3589.49
3597.17
3606.3
3616.92
3629.06
3642.75
3658.03
3674.91
3693.43
3713.58
3735.36
3758.71
3783.61
3809.96
3837.68
3866.64
3896.71
3927.67
3959.33
3991.43
4023.71
4055.86
4087.54
4118.39
4148.02
4176.03
4202.02
4225.61
4246.42
4264.1
4278.34
4288.9
4295.57
4298.13
4296.65
4291.03
4281.33
4267.67
4250.23
4229.26
4205.07
4178.01
4148.46
4116.87
4083.67
4049.36
4014.38
3979.2
3944.25
3909.95
3876.62
3844.58
3814.07
3785.27
3758.32
3733.3
3710.25
3689.18
3670.09
3652.92
3637.64
3624.17
3612.44
3602.39
3593.92
3586.99
3581.5
3577.42
3574.68
3573.26
3573.14
3574.26
3576.63
3580.26
3585.16
3591.36
3598.88
3607.76
3618.05
3629.79
3643.02
3657.78
3674.12
3692.06
3711.64
3732.86
3755.73
3780.22
3806.28
3833.8
3862.68
3892.73
3923.75
3955.49
3987.65
4019.91
4051.95
4083.38
4113.81
4142.82
4169.99
4194.89
4217.14
4236.34
4252.16
4264.32
4272.58
4276.76
4276.77
4272.62
4264.36
4252.08
4236
4216.37
4193.53
4167.84
4139.71
4109.58
4077.92
4045.17
4011.78
3978.18
3944.75
3911.85
3879.79
3848.84
3819.22
3791.12
3764.68
3739.99
3717.11
3696.08
3676.9
3659.54
3643.97
3630.14
3618
3607.48
3598.53
3591.08
3585.08
3580.47
3577.19
3575.17
3574.39
3574.81
3576.37
3579.07
3582.92
3587.93
3594.13
3601.55
3610.2
3620.14
3631.4
3644.02
3658.05
3673.54
3690.51
3709.01
3729.04
3750.61
3773.68
3798.22
3824.16
3851.37
3879.74
3909.07
3939.11
3970.53
4001.36
4032.17
4062.57
4092.2
4120.66
4147.55
4172.48
4195.05
4214.9
4231.64
4244.95
4254.57
4260.25
4261.86
4259.28
4252.61
4241.84
4227.12
4208.7
4186.88
4162.07
4134.7
4105.25
4074.23
4042.14
4009.44
3976.59
3944.02
3912.18
3881.69
3852.18
3823.97
3797.27
3772.22
3748.89
3727.31
3707.44
3689.25
3672.66
3657.59
3643.94
3631.63
3620.58
3610.71
3601.97
3594.32
3587.76
3582.29
3577.93
3574.72
3572.72
3572
3572.79
3574.98
3578.71
3584.05
3591.07
3599.85
3610.43
3622.83
3637.08
3653.17
3671.09
3690.77
3712.15
3735.13
3759.59
3785.39
3812.33
3840.2
3868.74
3899.87
3929.34
3958.98
3988.44
4017.4
4045.5
4072.42
4097.84
4121.46
4143.01
4162.2
4178.81
4192.66
4203.53
4211.25
3778.82
3773.31
3747.5
3720.5
3694.21
3669.14
3645.57
3623.6
3603.29
3584.65
3567.67
3552.31
3538.55
3526.34
3515.63
3506.38
3498.54
3492.07
3486.96
3483.16
3480.66
3479.5
3479.63
3481.04
3483.79
3487.9
3493.42
3500.39
3508.87
3518.89
3530.54
3543.86
3558.89
3575.69
3594.28
3614.7
3636.94
3660.96
3686.71
3714.11
3743.03
3773.3
3804.62
3836.94
3869.96
3903.35
3936.75
3969.84
4002.24
4033.53
4063.36
4091.36
4117.16
4140.43
4160.86
4178.17
4192.16
4202.62
4209.43
4212.48
4211.44
4206.61
4198.02
4185.78
4170.1
4151.14
4129.17
4104.49
4077.41
4048.28
4017.46
3985.34
3952.28
3918.68
3884.87
3851.21
3818.02
3786.27
3754.94
3724.76
3695.92
3668.6
3642.91
3618.95
3596.8
3576.51
3558.1
3541.59
3526.97
3514.23
3503.35
3494.26
3486.94
3481.32
3477.33
3474.94
3474.09
3474.7
3476.75
3480.2
3485.06
3491.33
3499.01
3508.14
3518.76
3530.89
3544.58
3559.85
3576.74
3595.26
3615.41
3637.18
3660.54
3685.43
3711.79
3739.51
3768.47
3798.55
3829.52
3861.18
3893.3
3925.59
3957.75
3989.45
4020.31
4049.95
4077.99
4104
4127.61
4148.43
4166.12
4180.38
4190.95
4197.62
4200.19
4198.71
4193.09
4183.38
4169.71
4152.25
4131.27
4107.06
4079.98
4050.41
4018.8
3985.59
3951.25
3916.25
3881.05
3846.09
3811.78
3778.44
3746.4
3715.88
3687.08
3660.13
3635.1
3612.06
3590.99
3571.9
3554.74
3539.46
3526
3514.27
3504.22
3495.76
3488.82
3483.35
3479.27
3476.52
3475.11
3474.99
3476.1
3478.47
3482.1
3487.01
3493.2
3500.72
3509.6
3519.89
3531.63
3544.85
3559.61
3575.95
3593.89
3613.46
3634.69
3657.56
3682.04
3708.1
3735.63
3764.51
3794.57
3825.6
3857.35
3889.52
3921.8
3953.85
3985.3
4015.74
4044.77
4071.96
4096.88
4119.14
4138.36
4154.2
4166.37
4174.64
4178.83
4178.83
4174.67
4166.41
4154.12
4138.03
4118.39
4095.52
4069.81
4041.66
4011.52
3979.83
3947.07
3913.66
3880.04
3846.6
3813.69
3781.62
3750.66
3721.04
3692.94
3666.49
3641.8
3618.93
3597.9
3578.72
3561.36
3545.8
3531.97
3519.83
3509.31
3500.36
3492.92
3486.92
3482.31
3479.04
3477.02
3476.24
3476.67
3478.22
3480.92
3484.77
3489.78
3495.98
3503.39
3512.05
3521.98
3533.24
3545.86
3559.89
3575.37
3592.35
3610.84
3630.87
3652.44
3675.51
3700.05
3725.99
3753.21
3781.58
3810.92
3840.98
3872.39
3903.24
3934.06
3964.48
3994.12
4022.6
4049.51
4074.46
4097.05
4116.91
4133.66
4146.99
4156.62
4162.31
4163.92
4161.35
4154.67
4143.89
4129.16
4110.72
4088.89
4064.05
4036.66
4007.2
3976.15
3944.04
3911.32
3878.45
3845.87
3814.02
3783.52
3754.01
3725.79
3699.09
3674.04
3650.71
3629.13
3609.27
3591.08
3574.5
3559.43
3545.79
3533.48
3522.43
3512.56
3503.82
3496.18
3489.62
3484.15
3479.79
3476.58
3474.57
3473.84
3474.63
3476.82
3480.54
3485.88
3492.9
3501.68
3512.25
3524.65
3538.9
3555
3572.91
3592.59
3613.97
3636.95
3661.42
3687.23
3714.18
3742.06
3770.61
3801.73
3831.21
3860.86
3890.33
3919.31
3947.43
3974.36
3999.8
4023.43
4044.99
4064.19
4080.81
4094.67
4105.55
4113.27
3680.65
3675.1
3649.27
3622.26
3595.96
3570.88
3547.31
3525.34
3505.04
3486.4
3469.43
3454.08
3440.32
3428.12
3417.41
3408.16
3400.33
3393.87
3388.75
3384.96
3382.46
3381.29
3381.43
3382.83
3385.58
3389.69
3395.21
3402.17
3410.64
3420.66
3432.3
3445.61
3460.64
3477.43
3496.02
3516.44
3538.68
3562.69
3588.45
3615.86
3644.78
3675.07
3706.4
3738.73
3771.77
3805.19
3838.62
3871.74
3904.17
3935.5
3965.37
3993.4
4019.23
4042.53
4062.98
4080.32
4094.33
4104.81
4111.62
4114.69
4113.63
4108.79
4100.19
4087.94
4072.23
4053.25
4031.26
4006.54
3979.42
3950.27
3919.41
3887.25
3854.17
3820.54
3786.71
3753.02
3719.81
3688.05
3656.7
3626.51
3597.66
3570.34
3544.64
3520.68
3498.54
3478.24
3459.84
3443.33
3428.71
3415.98
3405.1
3396.02
3388.7
3383.08
3379.1
3376.72
3375.87
3376.49
3378.53
3381.99
3386.85
3393.11
3400.79
3409.92
3420.53
3432.66
3446.34
3461.61
3478.5
3497.01
3517.16
3538.93
3562.29
3587.19
3613.55
3641.27
3670.25
3700.33
3731.32
3763
3795.13
3827.45
3859.64
3891.36
3922.26
3951.94
3980
4006.06
4029.7
4050.55
4068.28
4082.56
4093.15
4099.83
4102.42
4100.92
4095.3
4085.58
4071.88
4054.41
4033.39
4009.15
3982.02
3952.42
3920.76
3887.51
3853.14
3818.1
3782.87
3747.88
3713.55
3680.19
3648.13
3617.6
3588.8
3561.84
3536.82
3513.78
3492.72
3473.63
3456.48
3441.21
3427.75
3416.03
3405.99
3397.53
3390.6
3385.13
3381.06
3378.32
3376.9
3376.78
3377.9
3380.27
3383.9
3388.8
3394.99
3402.51
3411.39
3421.67
3433.4
3446.62
3461.37
3477.7
3495.64
3515.21
3536.44
3559.3
3583.79
3609.85
3637.39
3666.28
3696.35
3727.4
3759.17
3791.36
3823.67
3855.75
3887.23
3917.71
3946.77
3974
3998.96
4021.26
4040.51
4056.38
4068.57
4076.85
4081.06
4081.05
4076.89
4068.62
4056.31
4040.18
4020.51
3997.61
3971.86
3943.67
3913.49
3881.77
3848.96
3815.52
3781.87
3748.4
3715.47
3683.38
3652.41
3622.79
3594.68
3568.23
3543.53
3520.66
3499.64
3480.46
3463.11
3447.55
3433.73
3421.59
3411.08
3402.14
3394.7
3388.71
3384.11
3380.83
3378.82
3378.05
3378.47
3380.03
3382.73
3386.58
3391.59
3397.78
3405.19
3413.84
3423.77
3435.02
3447.64
3461.67
3477.15
3494.11
3512.61
3532.64
3554.2
3577.27
3601.82
3627.76
3654.99
3683.37
3712.73
3742.82
3774.21
3805.1
3835.95
3866.4
3896.07
3924.58
3951.53
3976.51
3999.13
4019.03
4035.82
4049.17
4058.82
4064.52
4066.15
4063.59
4056.88
4046.09
4031.34
4012.87
3991
3966.12
3938.69
3909.18
3878.09
3845.93
3813.18
3780.28
3747.67
3715.8
3685.29
3655.76
3627.53
3600.83
3575.78
3552.45
3530.88
3511.02
3492.84
3476.27
3461.21
3447.58
3435.28
3424.23
3414.37
3405.63
3397.99
3391.43
3385.96
3381.6
3378.38
3376.37
3375.64
3376.42
3378.6
3382.32
3387.65
3394.67
3403.43
3414
3426.4
3440.64
3456.74
3474.65
3494.34
3515.72
3538.71
3563.19
3589.01
3615.97
3643.87
3672.45
3703.53
3733.05
3762.73
3792.23
3821.24
3849.39
3876.34
3901.81
3925.47
3947.05
3966.28
3982.92
3996.79
4007.69
4015.42
3582.43
3576.83
3550.98
3523.94
3497.62
3472.55
3448.98
3427.01
3406.71
3388.08
3371.11
3355.78
3342.03
3329.83
3319.13
3309.89
3302.06
3295.61
3290.49
3286.7
3284.21
3283.04
3283.17
3284.58
3287.32
3291.43
3296.93
3303.89
3312.35
3322.37
3334
3347.3
3362.32
3379.1
3397.68
3418.1
3440.33
3464.35
3490.11
3517.52
3546.46
3576.76
3608.11
3640.47
3673.55
3707
3740.48
3773.65
3806.12
3837.5
3867.42
3895.5
3921.38
3944.73
3965.22
3982.59
3996.63
4007.13
4013.96
4017.05
4015.97
4011.12
4002.5
3990.23
3974.49
3955.47
3933.43
3908.66
3881.5
3852.29
3821.39
3789.18
3756.05
3722.37
3688.5
3654.79
3621.55
3589.75
3558.39
3528.18
3499.33
3471.99
3446.29
3422.33
3400.19
3379.9
3361.49
3344.99
3330.38
3317.66
3306.78
3297.71
3290.39
3284.79
3280.81
3278.44
3277.6
3278.21
3280.26
3283.72
3288.58
3294.83
3302.51
3311.63
3322.24
3334.36
3348.04
3363.3
3380.18
3398.69
3418.84
3440.61
3463.97
3488.87
3515.24
3542.97
3571.96
3602.06
3633.07
3664.77
3696.94
3729.29
3761.52
3793.29
3824.23
3853.96
3882.09
3908.19
3931.89
3952.79
3970.56
3984.88
3995.5
4002.2
4004.82
4003.29
3997.67
3987.93
3974.2
3956.68
3935.62
3911.32
3884.14
3854.48
3822.76
3789.45
3755.02
3719.93
3684.65
3649.62
3615.25
3581.86
3549.78
3519.24
3490.43
3463.47
3438.45
3415.41
3394.36
3375.28
3358.14
3342.88
3329.43
3317.72
3307.69
3299.25
3292.33
3286.86
3282.79
3280.06
3278.65
3278.53
3279.65
3282.02
3285.65
3290.54
3296.73
3304.24
3313.11
3323.39
3335.11
3348.32
3363.07
3379.39
3397.33
3416.89
3438.11
3460.97
3485.47
3511.53
3539.08
3567.98
3598.07
3629.15
3660.95
3693.18
3725.52
3757.65
3789.18
3819.71
3848.83
3876.11
3901.13
3923.48
3942.78
3958.69
3970.92
3979.23
3983.45
3983.44
3979.27
3970.98
3958.64
3942.47
3922.75
3899.8
3873.99
3845.74
3815.49
3783.71
3750.85
3717.36
3683.67
3650.16
3617.2
3585.08
3554.1
3524.45
3496.33
3469.88
3445.18
3422.31
3401.29
3382.12
3364.78
3349.23
3335.42
3323.29
3312.79
3303.85
3296.42
3290.44
3285.84
3282.58
3280.57
3279.81
3280.23
3281.79
3284.49
3288.34
3293.34
3299.53
3306.94
3315.58
3325.51
3336.75
3349.36
3363.38
3378.85
3395.82
3414.3
3434.33
3455.89
3478.97
3503.52
3529.47
3556.71
3585.11
3614.49
3644.63
3676
3706.94
3737.84
3768.33
3798.05
3826.61
3853.61
3878.64
3901.32
3921.26
3938.09
3951.49
3961.17
3966.9
3968.54
3965.99
3959.26
3948.45
3933.66
3915.15
3893.22
3868.28
3840.78
3811.2
3780.05
3747.83
3715.02
3682.07
3649.43
3617.53
3586.99
3557.44
3529.2
3502.49
3477.44
3454.12
3432.55
3412.7
3394.54
3377.97
3362.93
3349.31
3337.02
3325.99
3316.13
3307.4
3299.76
3293.2
3287.73
3283.36
3280.14
3278.13
3277.39
3278.15
3280.32
3284.03
3289.35
3296.36
3305.12
3315.68
3328.07
3342.31
3358.41
3376.32
3396.01
3417.4
3440.4
3464.89
3490.72
3517.71
3545.64
3574.27
3605.29
3634.87
3664.59
3694.13
3723.18
3751.37
3778.37
3803.88
3827.58
3849.19
3868.46
3885.13
3899.03
3909.95
3917.7
3484.17
3478.52
3452.62
3425.55
3399.22
3374.13
3350.56
3328.6
3308.31
3289.69
3272.73
3257.4
3243.67
3231.48
3220.79
3211.56
3203.74
3197.29
3192.18
3188.4
3185.91
3184.74
3184.86
3186.26
3189
3193.1
3198.6
3205.55
3214
3224
3235.62
3248.91
3263.92
3280.69
3299.27
3319.67
3341.9
3365.92
3391.68
3419.11
3448.07
3478.39
3509.77
3542.17
3575.29
3608.79
3642.32
3675.55
3708.09
3739.53
3769.52
3797.67
3823.62
3847.02
3867.57
3884.99
3899.07
3909.6
3916.45
3919.55
3918.46
3913.59
3904.95
3892.65
3876.86
3857.79
3835.69
3810.87
3783.63
3754.36
3723.39
3691.11
3657.92
3624.19
3590.27
3556.5
3523.23
3491.4
3460.01
3429.78
3400.92
3373.57
3347.86
3323.9
3301.76
3281.47
3263.07
3246.57
3231.97
3219.25
3208.38
3199.32
3192.02
3186.42
3182.46
3180.1
3179.26
3179.88
3181.94
3185.39
3190.25
3196.5
3204.17
3213.29
3223.88
3236
3249.67
3264.92
3281.79
3300.3
3320.44
3342.21
3365.57
3390.48
3416.86
3444.61
3473.61
3503.73
3534.77
3566.51
3598.71
3631.11
3663.39
3695.22
3726.23
3756.03
3784.23
3810.41
3834.17
3855.14
3872.97
3887.34
3898
3904.73
3907.37
3905.83
3900.19
3890.43
3876.66
3859.09
3837.97
3813.6
3786.34
3756.6
3724.8
3691.41
3656.9
3621.74
3586.39
3551.3
3516.88
3483.46
3451.35
3420.79
3391.97
3365
3339.98
3316.95
3295.91
3276.84
3259.72
3244.47
3231.04
3219.35
3209.33
3200.9
3193.99
3188.53
3184.47
3181.75
3180.35
3180.23
3181.35
3183.72
3187.34
3192.23
3198.41
3205.92
3214.78
3225.05
3236.76
3249.96
3264.7
3281.01
3298.94
3318.5
3339.71
3362.57
3387.06
3413.14
3440.7
3469.62
3499.74
3530.84
3562.69
3594.96
3627.37
3659.55
3691.15
3721.75
3750.95
3778.3
3803.39
3825.81
3845.18
3861.15
3873.42
3881.76
3886
3886
3881.81
3873.49
3861.11
3844.89
3825.1
3802.08
3776.19
3747.86
3717.54
3685.68
3652.74
3619.19
3585.43
3551.88
3518.87
3486.72
3455.7
3426.04
3397.91
3371.44
3346.75
3323.88
3302.87
3283.71
3266.38
3250.84
3237.04
3224.92
3214.43
3205.51
3198.09
3192.12
3187.53
3184.27
3182.28
3181.52
3181.94
3183.5
3186.2
3190.05
3195.05
3201.24
3208.63
3217.27
3227.19
3238.43
3251.03
3265.03
3280.5
3297.45
3315.93
3335.95
3357.51
3380.59
3405.15
3431.11
3458.37
3486.79
3516.2
3546.4
3577.75
3608.76
3639.71
3670.27
3700.05
3728.68
3755.75
3780.85
3803.59
3823.6
3840.49
3853.94
3863.67
3869.44
3871.09
3868.55
3861.8
3850.96
3836.13
3817.55
3795.55
3770.52
3742.93
3713.26
3682.02
3649.73
3616.84
3583.83
3551.14
3519.19
3488.62
3459.04
3430.79
3404.07
3379.01
3355.7
3334.14
3314.31
3296.16
3279.61
3264.59
3250.99
3238.71
3227.69
3217.84
3209.12
3201.49
3194.93
3189.45
3185.08
3181.85
3179.83
3179.08
3179.82
3181.98
3185.67
3190.98
3197.98
3206.73
3217.28
3229.67
3243.9
3259.99
3277.91
3297.6
3319
3342.01
3366.52
3392.37
3419.39
3447.36
3476.05
3507
3536.65
3566.43
3596.02
3625.13
3653.38
3680.44
3706
3729.76
3751.42
3770.73
3787.45
3801.38
3812.33
3820.1
3385.86
3380.17
3354.21
3327.09
3300.73
3275.64
3252.07
3230.11
3209.83
3191.23
3174.28
3158.97
3145.24
3133.07
3122.39
3113.17
3105.36
3098.92
3093.82
3090.04
3087.56
3086.38
3086.5
3087.9
3090.63
3094.72
3100.21
3107.15
3115.58
3125.57
3137.18
3150.45
3165.44
3182.2
3200.77
3221.16
3243.39
3267.41
3293.18
3320.62
3349.6
3379.95
3411.36
3443.8
3476.98
3510.55
3544.15
3577.45
3610.08
3641.6
3671.68
3699.91
3725.93
3749.42
3770.03
3787.52
3801.64
3812.21
3819.08
3822.18
3821.11
3816.22
3807.54
3795.2
3779.36
3760.22
3738.05
3713.14
3685.83
3656.46
3625.41
3593.05
3559.79
3525.98
3492
3458.18
3424.87
3392.98
3361.56
3331.31
3302.42
3275.06
3249.35
3225.39
3203.24
3182.96
3164.56
3148.07
3133.48
3120.78
3109.92
3100.87
3093.58
3088
3084.05
3081.7
3080.87
3081.5
3083.55
3087.01
3091.87
3098.11
3105.78
3114.88
3125.47
3137.57
3151.23
3166.47
3183.34
3201.83
3221.97
3243.74
3267.11
3292.02
3318.41
3346.17
3375.2
3405.35
3436.42
3468.2
3500.46
3532.91
3565.26
3597.16
3628.26
3658.14
3686.43
3712.7
3736.55
3757.61
3775.51
3789.95
3800.65
3807.42
3810.08
3808.54
3802.88
3793.08
3779.26
3761.62
3740.42
3715.96
3688.61
3658.77
3626.87
3593.38
3558.77
3523.52
3488.1
3452.93
3418.45
3384.98
3352.84
3322.25
3293.41
3266.45
3241.43
3218.4
3197.38
3178.33
3161.21
3145.99
3132.58
3120.9
3110.9
3102.49
3095.6
3090.15
3086.1
3083.39
3082
3081.87
3083
3085.37
3088.99
3093.87
3100.04
3107.54
3116.39
3126.65
3138.35
3151.54
3166.26
3182.56
3200.48
3220.03
3241.23
3264.09
3288.59
3314.67
3342.25
3371.2
3401.35
3432.49
3464.39
3496.73
3529.2
3561.46
3593.13
3623.83
3653.11
3680.56
3705.75
3728.26
3747.71
3763.74
3776.07
3784.45
3788.71
3788.73
3784.52
3776.16
3763.72
3747.44
3727.57
3704.46
3678.47
3650.04
3619.61
3587.66
3554.63
3520.99
3487.16
3453.54
3420.48
3388.29
3357.24
3327.55
3299.4
3272.93
3248.23
3225.37
3204.36
3185.21
3167.9
3152.37
3138.59
3126.49
3116.01
3107.1
3099.7
3093.74
3089.17
3085.92
3083.94
3083.19
3083.61
3085.18
3087.88
3091.72
3096.71
3102.89
3110.28
3118.91
3128.82
3140.04
3152.63
3166.63
3182.08
3199.02
3217.49
3237.51
3259.07
3282.15
3306.71
3332.69
3359.97
3388.42
3417.87
3448.13
3479.47
3510.56
3541.59
3572.22
3602.08
3630.79
3657.94
3683.13
3705.96
3726.05
3743.02
3756.54
3766.32
3772.13
3773.81
3771.26
3764.51
3753.62
3738.73
3720.07
3697.98
3672.85
3645.14
3615.36
3584.02
3551.62
3518.64
3485.55
3452.79
3420.8
3390.18
3360.57
3332.3
3305.57
3280.51
3257.2
3235.65
3215.84
3197.71
3181.19
3166.19
3152.61
3140.35
3129.35
3119.51
3110.8
3103.17
3096.61
3091.13
3086.75
3083.52
3081.49
3080.73
3081.45
3083.58
3087.26
3092.55
3099.53
3108.27
3118.81
3131.18
3145.41
3161.5
3179.42
3199.12
3220.53
3243.55
3268.08
3293.96
3321.01
3349.03
3377.81
3408.66
3438.4
3468.25
3497.92
3527.09
3555.42
3582.54
3608.18
3632
3653.73
3673.09
3689.86
3703.84
3714.83
3722.62
3287.48
3281.79
3255.73
3228.55
3202.17
3177.06
3153.5
3131.55
3111.27
3092.69
3075.76
3060.46
3046.76
3034.6
3023.94
3014.73
3006.93
3000.5
2995.41
2991.63
2989.15
2987.98
2988.09
2989.48
2992.21
2996.29
3001.77
3008.69
3017.11
3027.08
3038.66
3051.91
3066.89
3083.64
3102.18
3122.57
3144.79
3168.81
3194.6
3222.05
3251.05
3281.44
3312.89
3345.39
3378.63
3412.27
3445.96
3479.36
3512.08
3543.71
3573.88
3602.21
3628.34
3651.91
3672.61
3690.16
3704.35
3714.96
3721.86
3724.97
3723.9
3718.99
3710.27
3697.88
3681.97
3662.75
3640.5
3615.49
3588.08
3558.61
3527.46
3495
3461.64
3427.76
3393.69
3359.81
3326.44
3294.49
3263.04
3232.76
3203.85
3176.48
3150.76
3126.79
3104.64
3084.36
3065.98
3049.5
3034.92
3022.23
3011.38
3002.34
2995.07
2989.5
2985.57
2983.23
2982.41
2983.05
2985.12
2988.58
2993.43
2999.67
3007.32
3016.42
3026.99
3039.08
3052.72
3067.96
3084.81
3103.3
3123.43
3145.2
3168.57
3193.48
3219.89
3247.67
3276.72
3306.9
3338.02
3369.85
3402.17
3434.69
3467.12
3499.12
3530.31
3560.3
3588.69
3615.07
3639.03
3660.19
3678.18
3692.7
3703.46
3710.26
3712.95
3711.42
3705.73
3695.88
3682
3664.28
3642.99
3618.42
3590.96
3561
3528.97
3495.36
3460.64
3425.28
3389.76
3354.51
3319.95
3286.43
3254.24
3223.63
3194.77
3167.8
3142.79
3119.77
3098.76
3079.72
3062.63
3047.43
3034.04
3022.39
3012.41
3004.02
2997.14
2991.72
2987.68
2984.98
2983.59
2983.47
2984.6
2986.96
2990.58
2995.46
3001.62
3009.1
3017.94
3028.19
3039.87
3053.04
3067.75
3084.04
3101.94
3121.48
3142.68
3165.54
3190.04
3216.13
3243.72
3272.7
3302.89
3334.09
3366.05
3398.46
3431.01
3463.36
3495.14
3525.94
3555.33
3582.9
3608.19
3630.81
3650.36
3666.48
3678.88
3687.3
3691.59
3691.61
3687.39
3678.98
3666.49
3650.12
3630.16
3606.93
3580.83
3552.28
3521.73
3489.65
3456.52
3422.77
3388.85
3355.16
3322.03
3289.79
3258.7
3228.98
3200.81
3174.33
3149.63
3126.77
3105.78
3086.64
3069.34
3053.83
3040.07
3027.99
3017.53
3008.64
3001.25
2995.3
2990.75
2987.51
2985.55
2984.81
2985.24
2986.8
2989.5
2993.34
2998.33
3004.5
3011.88
3020.49
3030.39
3041.6
3054.18
3068.16
3083.59
3100.53
3118.99
3139
3160.55
3183.63
3208.21
3234.2
3261.5
3289.99
3319.49
3349.81
3381.16
3412.34
3443.45
3474.18
3504.14
3532.95
3560.2
3585.49
3608.43
3628.61
3645.67
3659.28
3669.13
3674.99
3676.69
3674.14
3667.38
3656.44
3641.48
3622.72
3600.52
3575.26
3547.42
3517.51
3486.03
3453.51
3420.42
3387.23
3354.4
3322.35
3291.68
3262.03
3233.73
3206.98
3181.92
3158.62
3137.09
3117.3
3099.2
3082.7
3067.73
3054.17
3041.94
3030.96
3021.14
3012.43
3004.81
2998.25
2992.76
2988.38
2985.14
2983.1
2982.32
2983.01
2985.12
2988.78
2994.05
3001.01
3009.73
3020.26
3032.62
3046.85
3062.93
3080.85
3100.56
3121.98
3145.02
3169.58
3195.49
3222.58
3250.66
3279.52
3310.29
3340.13
3370.06
3399.81
3429.07
3457.48
3484.69
3510.41
3534.32
3556.12
3575.55
3592.39
3606.42
3617.45
3625.27
3189.02
3183.4
3157.19
3129.94
3103.52
3078.41
3054.84
3032.9
3012.64
2994.07
2977.16
2961.89
2948.2
2936.06
2925.42
2916.22
2908.44
2902.02
2896.94
2893.17
2890.7
2889.52
2889.62
2891.02
2893.74
2897.8
2903.26
2910.17
2918.56
2928.52
2940.08
2953.31
2968.26
2984.99
3003.52
3023.9
3046.12
3070.14
3095.93
3123.41
3152.44
3182.87
3214.36
3246.92
3280.24
3313.97
3347.75
3381.26
3414.09
3445.84
3476.14
3504.59
3530.83
3554.5
3575.3
3592.94
3607.19
3617.86
3624.79
3627.91
3626.85
3621.9
3613.14
3600.69
3584.7
3565.4
3543.03
3517.92
3490.39
3460.8
3429.53
3396.96
3363.49
3329.51
3295.36
3261.39
3227.97
3195.94
3164.45
3134.13
3105.2
3077.81
3052.08
3028.11
3005.96
2985.69
2967.31
2950.84
2936.28
2923.6
2912.77
2903.75
2896.49
2890.95
2887.03
2884.71
2883.91
2884.56
2886.62
2890.09
2894.93
2901.17
2908.81
2917.89
2928.45
2940.52
2954.15
2969.37
2986.21
3004.69
3024.82
3046.58
3069.95
3094.88
3121.3
3149.1
3178.19
3208.4
3239.57
3271.46
3303.85
3336.45
3368.98
3401.08
3432.38
3462.5
3491.02
3517.53
3541.61
3562.89
3580.99
3595.59
3606.42
3613.27
3615.98
3614.46
3608.74
3598.84
3584.88
3567.08
3545.67
3520.98
3493.38
3463.28
3431.11
3397.36
3362.5
3327.02
3291.38
3256.03
3221.39
3187.79
3155.56
3124.91
3096.04
3069.06
3044.05
3021.05
3000.05
2981.04
2963.97
2948.8
2935.43
2923.81
2913.86
2905.49
2898.63
2893.23
2889.2
2886.52
2885.14
2885.02
2886.15
2888.51
2892.12
2896.99
2903.14
2910.61
2919.44
2929.67
2941.33
2954.49
2969.18
2985.45
3003.34
3022.87
3044.05
3066.91
3091.41
3117.51
3145.13
3174.15
3204.38
3235.64
3267.67
3300.16
3332.81
3365.27
3397.16
3428.08
3457.61
3485.3
3510.73
3533.47
3553.13
3569.36
3581.83
3590.32
3594.64
3594.67
3590.42
3581.96
3569.39
3552.93
3532.86
3509.5
3483.26
3454.57
3423.88
3391.67
3358.4
3324.54
3290.51
3256.73
3223.52
3191.22
3160.09
3130.34
3102.15
3075.65
3050.95
3028.1
3007.11
2987.99
2970.71
2955.22
2941.48
2929.42
2918.99
2910.11
2902.74
2896.81
2892.28
2889.06
2887.11
2886.38
2886.82
2888.39
2891.08
2894.91
2899.89
2906.05
2913.42
2922.03
2931.91
2943.11
2955.66
2969.62
2985.04
3001.96
3020.41
3040.41
3061.96
3085.05
3109.63
3135.64
3162.98
3191.5
3221.06
3251.45
3282.83
3314.1
3345.32
3376.15
3406.22
3435.14
3462.51
3487.93
3510.98
3531.29
3548.45
3562.15
3572.08
3578
3579.73
3577.18
3570.41
3559.42
3544.37
3525.5
3503.16
3477.75
3449.76
3419.69
3388.06
3355.4
3322.18
3288.88
3255.95
3223.85
3193.11
3163.41
3135.08
3108.32
3083.26
3059.96
3038.45
3018.68
3000.61
2984.15
2969.21
2955.68
2943.48
2932.52
2922.71
2914.02
2906.4
2899.84
2894.35
2889.96
2886.71
2884.66
2883.87
2884.52
2886.6
2890.23
2895.49
2902.43
2911.13
2921.64
2933.99
2948.2
2964.29
2982.21
3001.92
3023.35
3046.42
3071
3096.96
3124.09
3152.23
3181.19
3211.88
3241.83
3271.86
3301.7
3331.06
3359.57
3386.88
3412.7
3436.7
3458.59
3478.11
3495.01
3509.11
3520.19
3528.05
3090.49
3084.98
3058.58
3031.25
3004.8
2979.68
2956.11
2934.18
2913.94
2895.39
2878.5
2863.24
2849.58
2837.46
2826.84
2817.67
2809.9
2803.49
2798.42
2794.66
2792.19
2791.01
2791.11
2792.5
2795.21
2799.26
2804.7
2811.59
2819.96
2829.89
2841.43
2854.63
2869.56
2886.27
2904.78
2925.15
2947.36
2971.38
2997.18
3024.68
3053.74
3084.22
3115.76
3148.4
3181.8
3215.64
3249.53
3283.16
3316.13
3348.01
3378.44
3407.03
3433.4
3457.2
3478.11
3495.84
3510.17
3520.89
3527.86
3531
3529.94
3524.96
3516.16
3503.63
3487.56
3468.14
3445.66
3420.42
3392.75
3363.03
3331.62
3298.92
3265.33
3231.23
3196.98
3162.92
3129.43
3097.32
3065.78
3035.43
3006.47
2979.06
2953.32
2929.34
2907.2
2886.93
2868.56
2852.11
2837.56
2824.89
2814.08
2805.08
2797.85
2792.32
2788.43
2786.13
2785.34
2786
2788.08
2791.54
2796.38
2802.61
2810.24
2819.3
2829.84
2841.9
2855.51
2870.71
2887.54
2906.01
2926.13
2947.89
2971.26
2996.2
3022.63
3050.47
3079.58
3109.84
3141.07
3173.03
3205.49
3238.2
3270.83
3303.05
3334.48
3364.74
3393.4
3420.06
3444.29
3465.7
3483.92
3498.62
3509.54
3516.44
3519.18
3517.66
3511.91
3501.95
3487.91
3470
3448.46
3423.63
3395.88
3365.61
3333.29
3299.37
3264.36
3228.73
3192.96
3157.49
3122.75
3089.08
3056.79
3026.11
2997.21
2970.23
2945.22
2922.23
2901.26
2882.27
2865.23
2850.09
2836.75
2825.16
2815.24
2806.9
2800.07
2794.68
2790.67
2788
2786.63
2786.52
2787.65
2790.01
2793.62
2798.48
2804.62
2812.07
2820.88
2831.09
2842.73
2855.87
2870.54
2886.79
2904.66
2924.17
2945.35
2968.2
2992.7
3018.82
3046.47
3075.52
3105.81
3137.14
3169.26
3201.84
3234.59
3267.17
3299.19
3330.26
3359.93
3387.78
3413.36
3436.24
3456.04
3472.38
3484.95
3493.5
3497.85
3497.89
3493.62
3485.1
3472.45
3455.88
3435.67
3412.17
3385.77
3356.91
3326.06
3293.69
3260.28
3226.28
3192.13
3158.25
3124.96
3092.59
3061.4
3031.61
3003.39
2976.89
2952.18
2929.33
2908.36
2889.26
2872
2856.54
2842.82
2830.79
2820.38
2811.53
2804.18
2798.27
2793.75
2790.55
2788.62
2787.91
2788.35
2789.92
2792.62
2796.44
2801.41
2807.56
2814.92
2823.51
2833.37
2844.55
2857.09
2871.03
2886.43
2903.34
2921.77
2941.76
2963.31
2986.4
3010.99
3037.02
3064.39
3092.96
3122.57
3153.05
3184.47
3215.84
3247.17
3278.12
3308.32
3337.38
3364.89
3390.44
3413.63
3434.07
3451.36
3465.17
3475.19
3481.18
3482.95
3480.39
3473.61
3462.55
3447.4
3428.41
3405.92
3380.34
3352.16
3321.91
3290.11
3257.28
3223.91
3190.49
3157.45
3125.28
3094.47
3064.72
3036.35
3009.57
2984.51
2961.22
2939.73
2919.99
2901.96
2885.53
2870.62
2857.14
2844.97
2834.03
2824.25
2815.57
2807.96
2801.4
2795.9
2791.5
2788.23
2786.17
2785.38
2785.98
2788.02
2791.62
2796.85
2803.77
2812.45
2822.94
2835.27
2849.48
2865.56
2883.48
2903.2
2924.65
2947.74
2972.36
2998.36
3025.55
3053.76
3082.81
3113.44
3143.5
3173.64
3203.59
3233.07
3261.69
3289.12
3315.05
3339.15
3361.15
3380.76
3397.74
3411.91
3423.05
3430.96
2991.93
2986.52
2959.91
2932.49
2906
2880.86
2857.3
2835.38
2815.16
2796.63
2779.76
2764.53
2750.9
2738.8
2728.2
2719.05
2711.3
2704.91
2699.85
2696.1
2693.63
2692.45
2692.55
2693.92
2696.62
2700.66
2706.09
2712.95
2721.3
2731.2
2742.71
2755.88
2770.79
2787.47
2805.96
2826.31
2848.51
2872.53
2898.35
2925.87
2954.97
2985.5
3017.1
3049.82
3083.33
3117.27
3151.29
3185.06
3218.18
3250.21
3280.8
3309.54
3336.05
3359.99
3381.02
3398.87
3413.29
3424.08
3431.09
3434.24
3433.18
3428.17
3419.31
3406.71
3390.53
3371
3348.38
3323
3295.18
3265.3
3233.74
3200.89
3167.16
3132.93
3098.57
3064.41
3030.84
2998.64
2967.05
2936.65
2907.66
2880.22
2854.47
2830.49
2808.35
2788.09
2769.73
2753.29
2738.76
2726.11
2715.32
2706.35
2699.14
2693.64
2689.77
2687.49
2686.72
2687.39
2689.47
2692.94
2697.78
2703.99
2711.61
2720.66
2731.18
2743.21
2756.8
2771.99
2788.8
2807.25
2827.37
2849.12
2872.5
2897.45
2923.9
2951.76
2980.92
3011.23
3042.51
3074.55
3107.11
3139.91
3172.67
3205.02
3236.6
3267.02
3295.85
3322.67
3347.06
3368.62
3386.98
3401.8
3412.81
3419.78
3422.55
3421.03
3415.24
3405.22
3391.08
3373.05
3351.37
3326.38
3298.45
3268
3235.49
3201.4
3166.21
3130.41
3094.49
3058.9
3024.05
2990.3
2957.94
2927.22
2898.3
2871.3
2846.31
2823.33
2802.38
2783.42
2766.41
2751.3
2738
2726.45
2716.55
2708.24
2701.44
2696.08
2692.09
2689.44
2688.08
2687.97
2689.1
2691.46
2695.06
2699.91
2706.03
2713.47
2722.26
2732.45
2744.07
2757.19
2771.84
2788.06
2805.91
2825.41
2846.57
2869.42
2893.92
2920.06
2947.73
2976.83
3007.18
3038.58
3070.8
3103.49
3136.36
3169.07
3201.25
3232.47
3262.31
3290.33
3316.08
3339.13
3359.07
3375.54
3388.21
3396.84
3401.23
3401.28
3396.98
3388.4
3375.65
3358.96
3338.6
3314.94
3288.36
3259.32
3228.28
3195.73
3162.15
3128
3093.72
3059.72
3026.33
2993.88
2962.64
2932.8
2904.56
2878.04
2853.33
2830.49
2809.54
2790.46
2773.22
2757.78
2744.09
2732.09
2721.7
2712.88
2705.55
2699.67
2695.17
2692
2690.09
2689.39
2689.84
2691.42
2694.11
2697.92
2702.89
2709.02
2716.36
2724.94
2734.79
2745.94
2758.46
2772.38
2787.76
2804.64
2823.06
2843.04
2864.58
2887.68
2912.28
2938.33
2965.74
2994.36
3024.04
3054.59
3086.08
3117.57
3149.02
3180.11
3210.45
3239.66
3267.32
3293.03
3316.38
3336.96
3354.39
3368.33
3378.46
3384.52
3386.33
3383.77
3376.97
3365.84
3350.58
3331.44
3308.78
3283
3254.62
3224.17
3192.17
3159.16
3125.62
3092.06
3058.89
3026.65
2995.76
2965.94
2937.53
2910.74
2885.67
2862.4
2840.93
2821.23
2803.23
2786.85
2771.98
2758.54
2746.4
2735.49
2725.74
2717.07
2709.47
2702.91
2697.41
2692.99
2689.71
2687.63
2686.83
2687.38
2689.38
2692.95
2698.15
2705.04
2713.69
2724.16
2736.48
2750.68
2766.75
2784.68
2804.41
2825.88
2848.99
2873.65
2899.69
2926.95
2955.23
2984.38
3014.97
3045.15
3075.4
3105.48
3135.08
3163.83
3191.39
3217.45
3241.67
3263.78
3283.5
3300.58
3314.83
3326.03
3333.99
2893.34
2888
2861.15
2833.64
2807.11
2781.96
2758.4
2736.5
2716.3
2697.79
2680.96
2665.76
2652.15
2640.08
2629.51
2620.38
2612.65
2606.27
2601.23
2597.48
2595.02
2593.84
2593.93
2595.3
2597.99
2602
2607.41
2614.25
2622.57
2632.44
2643.92
2657.06
2671.93
2688.59
2707.06
2727.39
2749.58
2773.61
2799.43
2826.98
2856.12
2886.71
2918.37
2951.18
2984.8
3018.87
3053.04
3086.96
3120.24
3152.45
3183.21
3212.11
3238.79
3262.88
3284.06
3302.02
3316.54
3327.41
3334.47
3337.63
3336.57
3331.53
3322.6
3309.91
3293.63
3273.96
3251.2
3225.65
3197.66
3167.61
3135.88
3102.86
3068.98
3034.61
3000.12
2965.85
2932.19
2899.89
2868.24
2837.79
2808.76
2781.31
2755.54
2731.56
2709.42
2689.16
2670.82
2654.4
2639.88
2627.26
2616.49
2607.54
2600.36
2594.88
2591.05
2588.79
2588.03
2588.72
2590.82
2594.28
2599.12
2605.32
2612.92
2621.95
2632.45
2644.46
2658.03
2673.19
2689.98
2708.43
2728.53
2750.28
2773.67
2798.63
2825.1
2852.99
2882.19
2912.55
2943.91
2976.03
3008.69
3041.61
3074.5
3107
3138.75
3169.34
3198.35
3225.36
3249.93
3271.66
3290.18
3305.13
3316.24