/*--------------------------------*- C++ -*----------------------------------*\
| =========                 |                                                 |
| \\      /  F ield         | OpenFOAM: The Open Source CFD Toolbox           |
|  \\    /   O peration     | Version:  3.0.1                                 |
|   \\  /    A nd           | Web:      www.OpenFOAM.org                      |
|    \\/     M anipulation  |                                                 |
\*---------------------------------------------------------------------------*/
FoamFile
{
    version     2.0;
    format      ascii;
    class       volVectorField;
    location    "66.2";
    object      U;
}
// * * * * * * * * * * * * * * * * * * * * * * * * * * * * * * * * * * * * * //

dimensions      [0 1 -1 0 0 0 0];

internalField   nonuniform List<vector> 
21420
(
(0.0130912 0.00171628 0)
(-0.00222674 0.00163636 0)
(-0.0168787 0.0015675 0)
(-0.0320614 0.00149013 0)
(-0.0465057 0.00139216 0)
(-0.0600792 0.00130591 0)
(-0.0727413 0.00120656 0)
(-0.0844778 0.0011183 0)
(-0.0952932 0.0010296 0)
(-0.105198 0.00093608 0)
(-0.114213 0.000851076 0)
(-0.122364 0.000767718 0)
(-0.129675 0.000683765 0)
(-0.136176 0.000605678 0)
(-0.141893 0.000528076 0)
(-0.146853 0.000454832 0)
(-0.151078 0.000383342 0)
(-0.154589 0.00031292 0)
(-0.157402 0.000244441 0)
(-0.159536 0.000176249 0)
(-0.160992 0.000108847 0)
(-0.16175 4.49465e-05 0)
(-0.161856 -2.3769e-05 0)
(-0.161259 -9.33278e-05 0)
(-0.159969 -0.000163682 0)
(-0.157962 -0.000236052 0)
(-0.155218 -0.00031018 0)
(-0.151712 -0.000386603 0)
(-0.147415 -0.000467404 0)
(-0.1423 -0.000549555 0)
(-0.136332 -0.000634166 0)
(-0.129479 -0.000725999 0)
(-0.121711 -0.000815858 0)
(-0.113001 -0.000915352 0)
(-0.103329 -0.00100892 0)
(-0.0926752 -0.00110274 0)
(-0.0810187 -0.00121026 0)
(-0.0683663 -0.00130216 0)
(-0.0547468 -0.00139035 0)
(-0.0401569 -0.0014971 0)
(-0.0246626 -0.00157291 0)
(-0.00835042 -0.00167019 0)
(0.00872636 -0.00172909 0)
(0.0264158 -0.00177188 0)
(0.0445964 -0.0018335 0)
(0.0631381 -0.00184913 0)
(0.0818335 -0.00184145 0)
(0.100472 -0.00184414 0)
(0.118872 -0.00180083 0)
(0.136793 -0.0017314 0)
(0.153986 -0.0016605 0)
(0.170235 -0.00154829 0)
(0.185298 -0.00142664 0)
(0.198958 -0.0012734 0)
(0.211007 -0.00109759 0)
(0.221247 -0.000913942 0)
(0.229522 -0.000712015 0)
(0.23569 -0.000490508 0)
(0.239643 -0.000271264 0)
(0.241288 -3.939e-05 0)
(0.240696 0.000179473 0)
(0.237614 0.00040956 0)
(0.232269 0.000639118 0)
(0.224756 0.000836145 0)
(0.215106 0.00103876 0)
(0.203552 0.00122822 0)
(0.190278 0.00138403 0)
(0.175456 0.00152701 0)
(0.159363 0.00163609 0)
(0.142094 0.0017344 0)
(0.123985 0.00181702 0)
(0.105375 0.00185153 0)
(0.0863659 0.00189272 0)
(0.0670895 0.00189201 0)
(0.0479842 0.00187849 0)
(0.0290788 0.00184149 0)
(0.0107047 0.00180083 0)
(-0.00691326 0.00174464 0)
(-0.0241294 0.00167095 0)
(-0.0405633 0.00158743 0)
(-0.0562233 0.00150642 0)
(-0.0709815 0.00140762 0)
(-0.0847573 0.00130442 0)
(-0.0974812 0.00120357 0)
(-0.109097 0.00108818 0)
(-0.119574 0.000977581 0)
(-0.12892 0.000862725 0)
(-0.137131 0.000748634 0)
(-0.144187 0.000649248 0)
(-0.150176 0.000546798 0)
(-0.155183 0.000447789 0)
(-0.159274 0.000357623 0)
(-0.162485 0.000272733 0)
(-0.164848 0.000190185 0)
(-0.166391 0.000120361 0)
(-0.1672 4.41883e-05 0)
(-0.167306 -2.68755e-05 0)
(-0.166678 -9.44429e-05 0)
(-0.165387 -0.000163091 0)
(-0.163406 -0.000228387 0)
(-0.160751 -0.000294871 0)
(-0.157408 -0.000362482 0)
(-0.153411 -0.000435078 0)
(-0.14867 -0.000503793 0)
(-0.143184 -0.000580612 0)
(-0.136995 -0.000648439 0)
(-0.130042 -0.000725741 0)
(-0.122307 -0.000807278 0)
(-0.113764 -0.000890258 0)
(-0.104401 -0.000976572 0)
(-0.0941892 -0.00104703 0)
(-0.0831108 -0.00113375 0)
(-0.0712132 -0.0012199 0)
(-0.0585093 -0.00130419 0)
(-0.0450006 -0.00137369 0)
(-0.0307372 -0.00145136 0)
(-0.0157398 -0.00151579 0)
(-8.03262e-05 -0.00157769 0)
(0.0161558 -0.00163768 0)
(0.032869 -0.00167461 0)
(0.0499573 -0.00170918 0)
(0.067273 -0.00172557 0)
(0.08466 -0.00172442 0)
(0.101959 -0.0017028 0)
(0.118949 -0.00166381 0)
(0.135405 -0.00159982 0)
(0.151098 -0.00150771 0)
(0.165766 -0.00139433 0)
(0.179139 -0.00125381 0)
(0.190981 -0.00108906 0)
(0.201035 -0.00090257 0)
(0.209094 -0.000689351 0)
(0.214944 -0.000471668 0)
(0.218457 -0.000227596 0)
(0.21952 1.18651e-05 0)
(0.218161 0.000262271 0)
(0.214188 0.000510817 0)
(0.207844 0.000747179 0)
(0.199163 0.000970954 0)
(0.188318 0.00118046 0)
(0.175455 0.00136712 0)
(0.160813 0.00152994 0)
(0.144645 0.00167121 0)
(0.12722 0.00177862 0)
(0.108845 0.00186059 0)
(0.0897749 0.00192357 0)
(0.0702795 0.0019472 0)
(0.050641 0.00194598 0)
(0.0311323 0.00192533 0)
(0.0119721 0.00187749 0)
(-0.0066436 0.0018179 0)
(-0.0245788 0.00174627 0)
(-0.0417 0.00165194 0)
(-0.0578577 0.0015537 0)
(-0.0729909 0.00145585 0)
(-0.0870927 0.0013438 0)
(-0.100104 0.00123383 0)
(-0.112011 0.00113229 0)
(-0.122884 0.00102866 0)
(-0.132744 0.000928805 0)
(-0.141591 0.000825233 0)
(-0.149429 0.000733145 0)
(-0.156321 0.00063931 0)
(-0.162334 0.000552669 0)
(-0.167467 0.000466552 0)
(-0.171738 0.000387218 0)
(-0.175235 0.000308477 0)
(-0.177976 0.000238263 0)
(-0.179991 0.000163959 0)
(-0.181295 9.57743e-05 0)
(-0.181934 3.56945e-05 0)
(-0.181932 -3.22768e-05 0)
(-0.181277 -9.79049e-05 0)
(-0.179985 -0.000164947 0)
(-0.178016 -0.000218263 0)
(-0.175406 -0.000290686 0)
(-0.172166 -0.000352756 0)
(-0.168258 -0.000418011 0)
(-0.16371 -0.000487141 0)
(-0.158454 -0.000549151 0)
(-0.152508 -0.000624649 0)
(-0.14584 -0.00069825 0)
(-0.138395 -0.000778627 0)
(-0.130166 -0.000854148 0)
(-0.121134 -0.000931452 0)
(-0.111313 -0.00101725 0)
(-0.100673 -0.00109398 0)
(-0.0892175 -0.00117279 0)
(-0.0769819 -0.00125264 0)
(-0.0639345 -0.00133605 0)
(-0.0500772 -0.00141324 0)
(-0.035424 -0.00149193 0)
(-0.0200239 -0.00155921 0)
(-0.00401095 -0.00161094 0)
(0.0124692 -0.00164584 0)
(0.0292091 -0.00166957 0)
(0.046102 -0.00167744 0)
(0.0629831 -0.00166786 0)
(0.0796627 -0.00163989 0)
(0.0959746 -0.00159691 0)
(0.111744 -0.00152788 0)
(0.126705 -0.00143309 0)
(0.140576 -0.00131298 0)
(0.153084 -0.00116668 0)
(0.163945 -0.000989315 0)
(0.172941 -0.000788441 0)
(0.179818 -0.000572985 0)
(0.184431 -0.000341915 0)
(0.186651 -0.000102852 0)
(0.186487 0.000133649 0)
(0.18383 0.000386824 0)
(0.178737 0.000617546 0)
(0.171386 0.000840287 0)
(0.161869 0.00104954 0)
(0.150352 0.00122944 0)
(0.13707 0.00139544 0)
(0.122274 0.00153865 0)
(0.106205 0.00165078 0)
(0.0891092 0.00173604 0)
(0.071298 0.00179774 0)
(0.0530235 0.00182767 0)
(0.0345434 0.00183604 0)
(0.0161149 0.00182064 0)
(-0.00202986 0.00177976 0)
(-0.0197198 0.00173085 0)
(-0.0368053 0.00166023 0)
(-0.0531113 0.0015721 0)
(-0.0684953 0.00148572 0)
(-0.082927 0.00138619 0)
(-0.0963611 0.0012779 0)
(-0.108742 0.00117712 0)
(-0.120111 0.00108479 0)
(-0.13051 0.000978754 0)
(-0.139923 0.000885555 0)
(-0.148371 0.000794158 0)
(-0.155912 0.000705583 0)
(-0.162579 0.000621331 0)
(-0.168417 0.00054201 0)
(-0.173457 0.00046237 0)
(-0.177742 0.000387274 0)
(-0.181296 0.000319996 0)
(-0.184175 0.000253007 0)
(-0.186416 0.000185816 0)
(-0.188025 0.000135048 0)
(-0.189083 8.05413e-05 0)
(-0.189649 3.45124e-05 0)
(-0.18967 -2.32959e-05 0)
(-0.189162 -8.36104e-05 0)
(-0.188111 -0.000136949 0)
(-0.186412 -0.00018964 0)
(-0.184081 -0.000265746 0)
(-0.181101 -0.000326454 0)
(-0.177459 -0.000388942 0)
(-0.173213 -0.000457254 0)
(-0.168335 -0.000509244 0)
(-0.162876 -0.0005724 0)
(-0.156797 -0.000630795 0)
(-0.150068 -0.000700188 0)
(-0.142676 -0.000767146 0)
(-0.134562 -0.000848012 0)
(-0.12565 -0.000914696 0)
(-0.115947 -0.000996861 0)
(-0.105518 -0.00107068 0)
(-0.0942687 -0.00114873 0)
(-0.0822563 -0.00122496 0)
(-0.069516 -0.00129938 0)
(-0.0560886 -0.00136073 0)
(-0.0419538 -0.0014277 0)
(-0.0271539 -0.00148834 0)
(-0.0119134 -0.00153569 0)
(0.00384926 -0.00156532 0)
(0.0199704 -0.00159204 0)
(0.0361369 -0.00160846 0)
(0.0523002 -0.00159666 0)
(0.0684044 -0.00158466 0)
(0.0842268 -0.00154475 0)
(0.0995626 -0.00150173 0)
(0.11437 -0.0014252 0)
(0.128361 -0.0013294 0)
(0.141213 -0.00122898 0)
(0.152854 -0.0010855 0)
(0.163049 -0.000922543 0)
(0.171468 -0.000727497 0)
(0.177827 -0.00051507 0)
(0.18193 -0.000281193 0)
(0.183496 -3.54092e-05 0)
(0.182611 0.000220976 0)
(0.17907 0.000485564 0)
(0.172931 0.000737471 0)
(0.164249 0.000967858 0)
(0.153373 0.00118692 0)
(0.140422 0.0013772 0)
(0.125778 0.00151924 0)
(0.109839 0.0016449 0)
(0.092809 0.00173236 0)
(0.0751198 0.00177155 0)
(0.0570523 0.00178725 0)
(0.0390981 0.00178559 0)
(0.0212657 0.00173866 0)
(0.00426571 0.00168483 0)
(-0.0118123 0.00160874 0)
(-0.0274722 0.00152804 0)
(-0.0422914 0.00143689 0)
(-0.0561681 0.0013341 0)
(-0.0690599 0.00123602 0)
(-0.0809541 0.00113708 0)
(-0.0918599 0.00103721 0)
(-0.101813 0.000945356 0)
(-0.110861 0.000855977 0)
(-0.119063 0.000775558 0)
(-0.126481 0.000700961 0)
(-0.133178 0.000631235 0)
(-0.139218 0.000569038 0)
(-0.144653 0.000511599 0)
(-0.149529 0.000457183 0)
(-0.15388 0.000406485 0)
(-0.157726 0.000356365 0)
(-0.161075 0.000306848 0)
(-0.163919 0.0002557 0)
(-0.166242 0.00020168 0)
(-0.168013 0.000143779 0)
(-0.169157 8.43256e-05 0)
(-0.169692 1.94199e-05 0)
(-0.169531 -5.40522e-05 0)
(-0.168597 -0.000132196 0)
(-0.16686 -0.000214829 0)
(-0.164258 -0.000302036 0)
(-0.160754 -0.000394758 0)
(-0.156306 -0.000489379 0)
(-0.150877 -0.000586407 0)
(-0.144446 -0.000689119 0)
(-0.136999 -0.000788424 0)
(-0.128528 -0.000886907 0)
(-0.119037 -0.000992284 0)
(-0.108549 -0.00108615 0)
(-0.0970921 -0.00118784 0)
(-0.0847137 -0.00127184 0)
(-0.0714724 -0.00134814 0)
(-0.0574369 -0.00143421 0)
(-0.042695 -0.00149247 0)
(-0.0273551 -0.00153938 0)
(-0.0116501 -0.00159861 0)
(0.00454813 -0.00161098 0)
(0.0210944 -0.00164461 0)
(0.0375926 -0.00163681 0)
(0.0540185 -0.0016123 0)
(0.0702119 -0.00159702 0)
(0.0860049 -0.00153944 0)
(0.101219 -0.00146549 0)
(0.115683 -0.00139605 0)
(0.129227 -0.00128961 0)
(0.141686 -0.00118396 0)
(0.152904 -0.00104767 0)
(0.162732 -0.000899716 0)
(0.171041 -0.00074735 0)
(0.177714 -0.000577467 0)
(0.182919 -0.000401356 0)
(0.0130657 0.00514962 0)
(-0.00225445 0.00490917 0)
(-0.0169102 0.00470268 0)
(-0.0320954 0.00447059 0)
(-0.0465408 0.00417661 0)
(-0.0601154 0.00391779 0)
(-0.0727773 0.00361967 0)
(-0.0845138 0.00335486 0)
(-0.0953288 0.00308876 0)
(-0.105233 0.00280817 0)
(-0.114247 0.00255315 0)
(-0.122397 0.00230307 0)
(-0.129707 0.00205122 0)
(-0.136207 0.00181697 0)
(-0.141923 0.00158418 0)
(-0.146881 0.00136447 0)
(-0.151106 0.00115002 0)
(-0.154616 0.000938785 0)
(-0.157429 0.000733376 0)
(-0.159562 0.000528882 0)
(-0.161019 0.000326356 0)
(-0.161777 0.000134897 0)
(-0.161883 -7.11634e-05 0)
(-0.161287 -0.000279848 0)
(-0.159998 -0.000490871 0)
(-0.157991 -0.000707965 0)
(-0.155249 -0.000930377 0)
(-0.151744 -0.00115963 0)
(-0.147448 -0.00140204 0)
(-0.142334 -0.00164847 0)
(-0.136367 -0.00190232 0)
(-0.129516 -0.00217782 0)
(-0.12175 -0.00244742 0)
(-0.113041 -0.0027459 0)
(-0.10337 -0.00302657 0)
(-0.0927164 -0.00330816 0)
(-0.0810608 -0.00363075 0)
(-0.0684079 -0.00390635 0)
(-0.0547875 -0.00417132 0)
(-0.0401966 -0.00449125 0)
(-0.0246999 -0.00471939 0)
(-0.00838509 -0.00501086 0)
(0.00869604 -0.00518765 0)
(0.0263902 -0.00531619 0)
(0.0445767 -0.00550122 0)
(0.0631252 -0.0055482 0)
(0.0818279 -0.0055251 0)
(0.100476 -0.00553343 0)
(0.118884 -0.00540374 0)
(0.136813 -0.00519607 0)
(0.154018 -0.00498224 0)
(0.170277 -0.00464549 0)
(0.185351 -0.00427898 0)
(0.199018 -0.00382456 0)
(0.211078 -0.00329405 0)
(0.221328 -0.00273918 0)
(0.229609 -0.0021361 0)
(0.235786 -0.00147019 0)
(0.239743 -0.000814178 0)
(0.241395 -0.000119981 0)
(0.240797 0.000537451 0)
(0.237713 0.00122818 0)
(0.232372 0.00191696 0)
(0.224858 0.00250864 0)
(0.215204 0.00311641 0)
(0.203643 0.00368536 0)
(0.190361 0.00415259 0)
(0.175529 0.00458229 0)
(0.159426 0.00491064 0)
(0.142146 0.00520287 0)
(0.124024 0.00545245 0)
(0.105403 0.00555583 0)
(0.0863829 0.00568086 0)
(0.0670931 0.00567451 0)
(0.0479795 0.00564159 0)
(0.0290606 0.00552625 0)
(0.0106787 0.00540189 0)
(-0.00695192 0.00523356 0)
(-0.0241688 0.00501379 0)
(-0.0406072 0.00476963 0)
(-0.0562835 0.00451573 0)
(-0.0710394 0.00421893 0)
(-0.08481 0.00391946 0)
(-0.0975407 0.00360914 0)
(-0.109157 0.00326791 0)
(-0.119634 0.00293373 0)
(-0.128981 0.0025899 0)
(-0.137191 0.00223883 0)
(-0.144239 0.00193325 0)
(-0.150217 0.00163637 0)
(-0.155221 0.00134386 0)
(-0.15931 0.00107809 0)
(-0.162528 0.000814383 0)
(-0.164892 0.000569149 0)
(-0.166439 0.000360602 0)
(-0.167245 0.000132745 0)
(-0.167349 -7.9904e-05 0)
(-0.166725 -0.000277245 0)
(-0.165445 -0.000487299 0)
(-0.16348 -0.000694463 0)
(-0.160826 -0.000893058 0)
(-0.157482 -0.00109282 0)
(-0.153486 -0.00130481 0)
(-0.148747 -0.00150526 0)
(-0.14326 -0.00172701 0)
(-0.13708 -0.00195377 0)
(-0.130124 -0.00218764 0)
(-0.122383 -0.00241928 0)
(-0.113851 -0.00267595 0)
(-0.104479 -0.00292241 0)
(-0.0942736 -0.00315512 0)
(-0.0831932 -0.00340285 0)
(-0.0712849 -0.00365996 0)
(-0.0585747 -0.00390541 0)
(-0.0450786 -0.00413173 0)
(-0.0308047 -0.00436108 0)
(-0.0158001 -0.00456112 0)
(-0.000140362 -0.00473803 0)
(0.0160988 -0.00491329 0)
(0.0328202 -0.00502834 0)
(0.04991 -0.00512599 0)
(0.0672329 -0.00516991 0)
(0.0846214 -0.00517515 0)
(0.101918 -0.0051178 0)
(0.118926 -0.00499014 0)
(0.135392 -0.0048047 0)
(0.151092 -0.00452287 0)
(0.165762 -0.00418582 0)
(0.179144 -0.00376718 0)
(0.190989 -0.00326876 0)
(0.201047 -0.00270269 0)
(0.209095 -0.00207992 0)
(0.214962 -0.00139812 0)
(0.218464 -0.000687167 0)
(0.219526 2.91e-05 0)
(0.218146 0.000788206 0)
(0.21417 0.00153247 0)
(0.207819 0.00224328 0)
(0.199125 0.00291187 0)
(0.188266 0.00353595 0)
(0.175396 0.00410965 0)
(0.160746 0.00459571 0)
(0.144561 0.00501429 0)
(0.127128 0.0053357 0)
(0.108737 0.00558603 0)
(0.0896548 0.00576349 0)
(0.0701492 0.00584566 0)
(0.0504988 0.00583888 0)
(0.0309809 0.0057655 0)
(0.011824 0.00564037 0)
(-0.0068096 0.00545638 0)
(-0.0247541 0.00522516 0)
(-0.0418599 0.00495765 0)
(-0.0580195 0.00466192 0)
(-0.0731613 0.00435522 0)
(-0.0872516 0.00402782 0)
(-0.100258 0.00371252 0)
(-0.112167 0.00339979 0)
(-0.123033 0.00307876 0)
(-0.132893 0.00278012 0)
(-0.141733 0.00247177 0)
(-0.149572 0.0022031 0)
(-0.156465 0.0019148 0)
(-0.162475 0.00165599 0)
(-0.167602 0.00139154 0)
(-0.171867 0.00115808 0)
(-0.175356 0.000925529 0)
(-0.178102 0.000709283 0)
(-0.180108 0.000486001 0)
(-0.181407 0.000294668 0)
(-0.182051 0.000101911 0)
(-0.182045 -0.000106047 0)
(-0.181379 -0.000291861 0)
(-0.18009 -0.000496453 0)
(-0.178119 -0.000657796 0)
(-0.175509 -0.000868506 0)
(-0.172269 -0.0010619 0)
(-0.168359 -0.0012534 0)
(-0.163809 -0.00146248 0)
(-0.158555 -0.00166235 0)
(-0.152596 -0.00187212 0)
(-0.145933 -0.00209306 0)
(-0.138494 -0.00232422 0)
(-0.130268 -0.00256554 0)
(-0.121236 -0.00281301 0)
(-0.111396 -0.00304473 0)
(-0.100763 -0.00328085 0)
(-0.0893174 -0.00352575 0)
(-0.0770731 -0.00375596 0)
(-0.0640221 -0.00400929 0)
(-0.0501765 -0.00424443 0)
(-0.0355143 -0.00448047 0)
(-0.0201072 -0.00467435 0)
(-0.00409305 -0.00483336 0)
(0.0123807 -0.00495135 0)
(0.0291393 -0.0050154 0)
(0.0460415 -0.00502637 0)
(0.062923 -0.00500047 0)
(0.0796022 -0.00492449 0)
(0.0959223 -0.00479335 0)
(0.111701 -0.00458309 0)
(0.126658 -0.00430701 0)
(0.140539 -0.00394195 0)
(0.153058 -0.00349545 0)
(0.163926 -0.00296519 0)
(0.172919 -0.00237954 0)
(0.179811 -0.00171412 0)
(0.18442 -0.00102651 0)
(0.186644 -0.000311326 0)
(0.186475 0.000410454 0)
(0.1838 0.00115516 0)
(0.178708 0.00185079 0)
(0.171348 0.00251674 0)
(0.16182 0.00314408 0)
(0.150298 0.00369772 0)
(0.137007 0.00419145 0)
(0.122192 0.00461858 0)
(0.106108 0.00494076 0)
(0.0890151 0.00521322 0)
(0.0711873 0.00539243 0)
(0.0529026 0.00547873 0)
(0.0344186 0.00550937 0)
(0.0159783 0.00545459 0)
(-0.00216245 0.00534664 0)
(-0.0198621 0.00518834 0)
(-0.0369507 0.00496726 0)
(-0.0532504 0.00472074 0)
(-0.0686488 0.00446008 0)
(-0.0830818 0.00414392 0)
(-0.0965025 0.00384548 0)
(-0.108885 0.00353321 0)
(-0.120255 0.00324675 0)
(-0.130647 0.00294003 0)
(-0.140057 0.00265252 0)
(-0.148508 0.00238479 0)
(-0.156044 0.00210834 0)
(-0.162714 0.00185821 0)
(-0.16855 0.00161305 0)
(-0.173579 0.00138315 0)
(-0.177855 0.00116658 0)
(-0.18141 0.000961689 0)
(-0.184291 0.000753853 0)
(-0.18652 0.000563841 0)
(-0.188132 0.000412207 0)
(-0.1892 0.000234452 0)
(-0.189763 9.52225e-05 0)
(-0.189784 -7.70511e-05 0)
(-0.189264 -0.000233248 0)
(-0.188232 -0.000414264 0)
(-0.186533 -0.000580788 0)
(-0.184191 -0.00078555 0)
(-0.181222 -0.000983673 0)
(-0.177578 -0.00117395 0)
(-0.173327 -0.00136195 0)
(-0.168458 -0.00153127 0)
(-0.163004 -0.00171899 0)
(-0.156927 -0.00189045 0)
(-0.150191 -0.00209452 0)
(-0.142806 -0.00231142 0)
(-0.134679 -0.00254861 0)
(-0.125756 -0.00274717 0)
(-0.116056 -0.00299069 0)
(-0.105612 -0.0032168 0)
(-0.0943571 -0.00345335 0)
(-0.0823314 -0.00367806 0)
(-0.0695787 -0.00389182 0)
(-0.0561557 -0.00409239 0)
(-0.0420011 -0.00428416 0)
(-0.0271927 -0.00446617 0)
(-0.0119454 -0.00460458 0)
(0.00382571 -0.00469641 0)
(0.0199512 -0.00478905 0)
(0.0361409 -0.00481745 0)
(0.0523024 -0.00479692 0)
(0.0684272 -0.00474892 0)
(0.0842474 -0.00463695 0)
(0.0995979 -0.00451071 0)
(0.114421 -0.00427508 0)
(0.128413 -0.00399305 0)
(0.141284 -0.00368409 0)
(0.152934 -0.00325671 0)
(0.163141 -0.00276801 0)
(0.171565 -0.00218995 0)
(0.177944 -0.00153856 0)
(0.182046 -0.00085193 0)
(0.183628 -0.00010231 0)
(0.182734 0.000663413 0)
(0.179191 0.00145646 0)
(0.173052 0.0022126 0)
(0.164363 0.00290454 0)
(0.153475 0.00356195 0)
(0.14051 0.00413303 0)
(0.125852 0.00455954 0)
(0.109898 0.00493621 0)
(0.0928516 0.00519848 0)
(0.0751465 0.00531554 0)
(0.0570666 0.00536237 0)
(0.039101 0.00535656 0)
(0.021257 0.00521627 0)
(0.00424953 0.0050561 0)
(-0.0118345 0.0048272 0)
(-0.0275004 0.00458482 0)
(-0.0423233 0.00431118 0)
(-0.056202 0.00400264 0)
(-0.0690951 0.00370824 0)
(-0.0809894 0.00341127 0)
(-0.0918941 0.00311168 0)
(-0.101846 0.00283602 0)
(-0.110892 0.00256784 0)
(-0.119092 0.00232652 0)
(-0.126507 0.00210276 0)
(-0.133203 0.00189358 0)
(-0.13924 0.00170701 0)
(-0.144674 0.00153474 0)
(-0.149549 0.00137151 0)
(-0.153899 0.0012195 0)
(-0.157746 0.00106908 0)
(-0.161094 0.000920756 0)
(-0.163939 0.000767493 0)
(-0.166263 0.000605281 0)
(-0.168035 0.000432139 0)
(-0.169184 0.000252125 0)
(-0.169719 5.87782e-05 0)
(-0.169561 -0.000161739 0)
(-0.168629 -0.000396282 0)
(-0.166894 -0.000644162 0)
(-0.164295 -0.000905839 0)
(-0.160791 -0.00118402 0)
(-0.156345 -0.00146794 0)
(-0.150917 -0.00175906 0)
(-0.144487 -0.00206725 0)
(-0.13704 -0.00236524 0)
(-0.128568 -0.00266072 0)
(-0.119078 -0.0029769 0)
(-0.108588 -0.00325858 0)
(-0.0971298 -0.0035637 0)
(-0.0847489 -0.00381576 0)
(-0.0715044 -0.00404469 0)
(-0.0574661 -0.00430297 0)
(-0.0427201 -0.00447782 0)
(-0.0273758 -0.00461856 0)
(-0.0116644 -0.00479707 0)
(0.00453937 -0.00483276 0)
(0.0210896 -0.00493447 0)
(0.0375943 -0.00491108 0)
(0.0540267 -0.00483757 0)
(0.0702271 -0.00479174 0)
(0.0860268 -0.00461899 0)
(0.101248 -0.00439713 0)
(0.115719 -0.00418883 0)
(0.129269 -0.00386947 0)
(0.141735 -0.00355251 0)
(0.152958 -0.00314359 0)
(0.162791 -0.00269963 0)
(0.171106 -0.0022425 0)
(0.177782 -0.00173279 0)
(0.18299 -0.00120433 0)
(0.0130146 0.00858531 0)
(-0.00231048 0.00818209 0)
(-0.016974 0.00783835 0)
(-0.0321643 0.00745158 0)
(-0.0466119 0.00696138 0)
(-0.0601887 0.00652981 0)
(-0.0728502 0.00603277 0)
(-0.0845868 0.00559129 0)
(-0.0954009 0.0051477 0)
(-0.105303 0.00467999 0)
(-0.114315 0.00425491 0)
(-0.122463 0.0038381 0)
(-0.129771 0.00341835 0)
(-0.136268 0.00302795 0)
(-0.141982 0.00264002 0)
(-0.146939 0.00227386 0)
(-0.151162 0.0019165 0)
(-0.154671 0.00156451 0)
(-0.157482 0.00122225 0)
(-0.159614 0.000881748 0)
(-0.161071 0.000544252 0)
(-0.161833 0.000224066 0)
(-0.161937 -0.000118773 0)
(-0.161343 -0.00046624 0)
(-0.160054 -0.000817823 0)
(-0.158049 -0.00117954 0)
(-0.155309 -0.00155034 0)
(-0.151806 -0.00193234 0)
(-0.147513 -0.00233639 0)
(-0.142401 -0.00274702 0)
(-0.136437 -0.00317011 0)
(-0.129588 -0.0036293 0)
(-0.121824 -0.00407867 0)
(-0.113117 -0.00457618 0)
(-0.103447 -0.00504391 0)
(-0.0927942 -0.00551352 0)
(-0.0811396 -0.00605133 0)
(-0.0684851 -0.00651054 0)
(-0.054862 -0.00695295 0)
(-0.0402678 -0.00748481 0)
(-0.0247653 -0.00786829 0)
(-0.00844435 -0.00835268 0)
(0.00864645 -0.00864767 0)
(0.0263511 -0.00886221 0)
(0.0445502 -0.00917097 0)
(0.0631129 -0.00924952 0)
(0.0818306 -0.00921129 0)
(0.100496 -0.00922532 0)
(0.118922 -0.00900907 0)
(0.136869 -0.00866284 0)
(0.154094 -0.00830717 0)
(0.17037 -0.00774553 0)
(0.185462 -0.00713483 0)
(0.199148 -0.0063759 0)
(0.211221 -0.00549278 0)
(0.221483 -0.00457035 0)
(0.229779 -0.00356024 0)
(0.235959 -0.00245508 0)
(0.239927 -0.001358 0)
(0.241584 -0.00019801 0)
(0.240963 0.000892872 0)
(0.237877 0.00204572 0)
(0.23254 0.00319535 0)
(0.225017 0.00418297 0)
(0.215355 0.00519514 0)
(0.20378 0.0061444 0)
(0.190481 0.00692334 0)
(0.17563 0.00764102 0)
(0.159508 0.00818708 0)
(0.142214 0.00867524 0)
(0.12407 0.00908926 0)
(0.105433 0.00926493 0)
(0.0863955 0.00947159 0)
(0.0670879 0.00946211 0)
(0.0479537 0.00940439 0)
(0.0290234 0.00921143 0)
(0.0106358 0.00900996 0)
(-0.00701103 0.00872404 0)
(-0.024236 0.00835875 0)
(-0.0406841 0.00794976 0)
(-0.0563665 0.00753094 0)
(-0.0711341 0.00703201 0)
(-0.0848982 0.00652867 0)
(-0.0976302 0.0060199 0)
(-0.109255 0.00544282 0)
(-0.119735 0.00489302 0)
(-0.129094 0.00431363 0)
(-0.137287 0.00373264 0)
(-0.144329 0.00323499 0)
(-0.150317 0.00272884 0)
(-0.155326 0.00223991 0)
(-0.15942 0.00179401 0)
(-0.162643 0.00135958 0)
(-0.165009 0.000949395 0)
(-0.166572 0.000598082 0)
(-0.167388 0.00021878 0)
(-0.167488 -0.000136401 0)
(-0.166878 -0.000464727 0)
(-0.165615 -0.000814035 0)
(-0.163646 -0.00115041 0)
(-0.160997 -0.00147746 0)
(-0.157667 -0.00181746 0)
(-0.153685 -0.00218039 0)
(-0.148957 -0.00251076 0)
(-0.143473 -0.00288701 0)
(-0.137289 -0.00324786 0)
(-0.130331 -0.00363718 0)
(-0.122601 -0.00404027 0)
(-0.114071 -0.0044635 0)
(-0.104698 -0.00486494 0)
(-0.0944879 -0.0052616 0)
(-0.0834158 -0.00566937 0)
(-0.0715014 -0.00609791 0)
(-0.0587868 -0.00652009 0)
(-0.0452829 -0.0068895 0)
(-0.031005 -0.00725069 0)
(-0.0159982 -0.00759881 0)
(-0.000339875 -0.00790371 0)
(0.0159178 -0.00818892 0)
(0.0326494 -0.00837619 0)
(0.0497378 -0.00855089 0)
(0.0670698 -0.00862534 0)
(0.0844795 -0.00862889 0)
(0.101805 -0.00853014 0)
(0.118837 -0.00831237 0)
(0.135323 -0.00800794 0)
(0.151043 -0.00754162 0)
(0.165725 -0.00697728 0)
(0.179125 -0.0062772 0)
(0.190986 -0.00545277 0)
(0.20106 -0.00450734 0)
(0.209121 -0.00346228 0)
(0.214994 -0.00234432 0)
(0.218517 -0.00113426 0)
(0.219576 5.44508e-05 0)
(0.218166 0.00131324 0)
(0.214191 0.00255613 0)
(0.207832 0.00373876 0)
(0.199132 0.00485849 0)
(0.188259 0.00590595 0)
(0.175359 0.00685013 0)
(0.16069 0.00766159 0)
(0.144484 0.00835796 0)
(0.127038 0.00889396 0)
(0.108633 0.00932795 0)
(0.0895259 0.00960164 0)
(0.0699939 0.00974149 0)
(0.0503212 0.00973129 0)
(0.0307921 0.00961983 0)
(0.0116035 0.00941209 0)
(-0.00705196 0.00908776 0)
(-0.0249991 0.0087159 0)
(-0.0421053 0.0082557 0)
(-0.0582587 0.00777456 0)
(-0.0734048 0.00726635 0)
(-0.0875071 0.00671155 0)
(-0.100516 0.00617886 0)
(-0.112422 0.00566662 0)
(-0.123284 0.00513044 0)
(-0.133143 0.00463429 0)
(-0.141974 0.0041218 0)
(-0.149817 0.00367695 0)
(-0.156713 0.00318668 0)
(-0.162726 0.00275798 0)
(-0.167844 0.0023198 0)
(-0.172106 0.00194278 0)
(-0.175596 0.0015395 0)
(-0.178338 0.00118093 0)
(-0.180342 0.000812851 0)
(-0.181647 0.000485886 0)
(-0.18229 0.000171289 0)
(-0.182274 -0.000170913 0)
(-0.181603 -0.00048901 0)
(-0.180311 -0.000826668 0)
(-0.178347 -0.00109821 0)
(-0.175744 -0.00145278 0)
(-0.172499 -0.00176931 0)
(-0.168595 -0.00209555 0)
(-0.164045 -0.00244662 0)
(-0.158774 -0.00275251 0)
(-0.152817 -0.00311577 0)
(-0.146165 -0.0034899 0)
(-0.138736 -0.00388636 0)
(-0.130509 -0.0042776 0)
(-0.121469 -0.0046773 0)
(-0.111631 -0.00508108 0)
(-0.100995 -0.00546928 0)
(-0.0895448 -0.00587016 0)
(-0.077298 -0.00625884 0)
(-0.0642476 -0.00668526 0)
(-0.050391 -0.00707592 0)
(-0.0357189 -0.00746094 0)
(-0.0203059 -0.00779537 0)
(-0.0042835 -0.00806072 0)
(0.0122048 -0.00824402 0)
(0.0289724 -0.008361 0)
(0.045884 -0.00838113 0)
(0.0627784 -0.00833895 0)
(0.0794766 -0.00821131 0)
(0.0958213 -0.00799288 0)
(0.111619 -0.00763907 0)
(0.126597 -0.0071764 0)
(0.140492 -0.00657364 0)
(0.153029 -0.00583484 0)
(0.163919 -0.00494251 0)
(0.172924 -0.00395666 0)
(0.179823 -0.0028645 0)
(0.184451 -0.00170766 0)
(0.186684 -0.000511463 0)
(0.186508 0.000681913 0)
(0.183827 0.00192436 0)
(0.17873 0.00309618 0)
(0.171353 0.00419306 0)
(0.161808 0.00524628 0)
(0.150272 0.00616328 0)
(0.136964 0.00698759 0)
(0.122126 0.00769914 0)
(0.106019 0.00824746 0)
(0.0889071 0.00868913 0)
(0.0710648 0.00898906 0)
(0.0527568 0.00913986 0)
(0.034249 0.00917822 0)
(0.0158004 0.00909837 0)
(-0.00236026 0.00891432 0)
(-0.0200681 0.0086423 0)
(-0.0371571 0.00828963 0)
(-0.0534701 0.00787196 0)
(-0.0688843 0.00743051 0)
(-0.0833241 0.00691342 0)
(-0.0967502 0.00640956 0)
(-0.109132 0.00588844 0)
(-0.120504 0.00540687 0)
(-0.130894 0.00489538 0)
(-0.140298 0.00442193 0)
(-0.14875 0.0039828 0)
(-0.156286 0.00351568 0)
(-0.162955 0.00309901 0)
(-0.16879 0.00269278 0)
(-0.173816 0.00230514 0)
(-0.178088 0.00194272 0)
(-0.181637 0.00160002 0)
(-0.184517 0.00125819 0)
(-0.186738 0.000937167 0)
(-0.18835 0.000684509 0)
(-0.189427 0.000394262 0)
(-0.189993 0.000156523 0)
(-0.19001 -0.000118954 0)
(-0.189498 -0.000397564 0)
(-0.188466 -0.000685144 0)
(-0.186766 -0.000963225 0)
(-0.184428 -0.00131605 0)
(-0.181447 -0.00163789 0)
(-0.177806 -0.00195084 0)
(-0.17356 -0.00226905 0)
(-0.16869 -0.00255621 0)
(-0.163237 -0.00287247 0)
(-0.157157 -0.00314874 0)
(-0.150419 -0.00349852 0)
(-0.143021 -0.00384666 0)
(-0.134876 -0.00423672 0)
(-0.125947 -0.00458748 0)
(-0.11624 -0.00499147 0)
(-0.105776 -0.00536568 0)
(-0.0945091 -0.00575317 0)
(-0.0824686 -0.0061283 0)
(-0.0697066 -0.00649752 0)
(-0.0562683 -0.00682056 0)
(-0.0421 -0.00713724 0)
(-0.0272797 -0.00745069 0)
(-0.0120094 -0.00767528 0)
(0.00376628 -0.00783412 0)
(0.0199119 -0.00797514 0)
(0.0361199 -0.00803703 0)
(0.0522985 -0.00799618 0)
(0.0684299 -0.00792193 0)
(0.0842733 -0.00772905 0)
(0.0996382 -0.0075196 0)
(0.114479 -0.00712954 0)
(0.128488 -0.00665395 0)
(0.141372 -0.00614963 0)
(0.15305 -0.00542992 0)
(0.163277 -0.00461638 0)
(0.171721 -0.00364936 0)
(0.178113 -0.00257362 0)
(0.182239 -0.00141699 0)
(0.183832 -0.000174743 0)
(0.182925 0.00110524 0)
(0.179386 0.0024278 0)
(0.173244 0.0036888 0)
(0.164543 0.00484344 0)
(0.153635 0.00594087 0)
(0.140643 0.00689258 0)
(0.125959 0.00760461 0)
(0.109978 0.00823192 0)
(0.0929022 0.00866923 0)
(0.0751689 0.00886402 0)
(0.0570675 0.0089427 0)
(0.0390814 0.00894079 0)
(0.0212183 0.00869037 0)
(0.00419816 0.00843404 0)
(-0.0118962 0.00804707 0)
(-0.0275718 0.00764287 0)
(-0.0424003 0.00718609 0)
(-0.0562812 0.00667144 0)
(-0.0691751 0.00618042 0)
(-0.0810682 0.00568525 0)
(-0.0919699 0.00518568 0)
(-0.101918 0.0047261 0)
(-0.110959 0.00427901 0)
(-0.119154 0.00387679 0)
(-0.126565 0.0035038 0)
(-0.133255 0.00315525 0)
(-0.139288 0.00284438 0)
(-0.144718 0.00255739 0)
(-0.14959 0.00228557 0)
(-0.153939 0.0020324 0)
(-0.157784 0.00178196 0)
(-0.161134 0.00153504 0)
(-0.16398 0.00127966 0)
(-0.166306 0.00100971 0)
(-0.16808 0.000721524 0)
(-0.169238 0.000421058 0)
(-0.169776 9.72117e-05 0)
(-0.16962 -0.000269181 0)
(-0.168693 -0.000659766 0)
(-0.166962 -0.00107287 0)
(-0.164366 -0.00150918 0)
(-0.160866 -0.00197284 0)
(-0.156422 -0.00244616 0)
(-0.150996 -0.00293146 0)
(-0.144567 -0.00344526 0)
(-0.13712 -0.00394205 0)
(-0.128648 -0.00443468 0)
(-0.119157 -0.0049618 0)
(-0.108664 -0.00543144 0)
(-0.0972032 -0.00594019 0)
(-0.0848172 -0.00636045 0)
(-0.0715666 -0.00674216 0)
(-0.0575224 -0.00717282 0)
(-0.0427683 -0.00746433 0)
(-0.0274155 -0.00769893 0)
(-0.0116909 -0.00799765 0)
(0.00452385 -0.00805555 0)
(0.0210817 -0.00822632 0)
(0.0375994 -0.0081873 0)
(0.0540446 -0.00806481 0)
(0.0702591 -0.00798853 0)
(0.086072 -0.00770058 0)
(0.101306 -0.00733073 0)
(0.115792 -0.00698358 0)
(0.129354 -0.00645118 0)
(0.141834 -0.00592287 0)
(0.153067 -0.00524115 0)
(0.16291 -0.00450101 0)
(0.171235 -0.00373896 0)
(0.177919 -0.0028892 0)
(0.183133 -0.00200812 0)
(0.0129376 0.0120252 0)
(-0.00239481 0.0114549 0)
(-0.0170698 0.0109749 0)
(-0.0322678 0.0104335 0)
(-0.0467187 0.00974669 0)
(-0.0602988 0.00914205 0)
(-0.0729596 0.00844585 0)
(-0.0846962 0.00782751 0)
(-0.0955091 0.00720628 0)
(-0.105407 0.00655136 0)
(-0.114418 0.00595616 0)
(-0.122562 0.00537259 0)
(-0.129866 0.00478492 0)
(-0.136361 0.00423843 0)
(-0.142071 0.00369538 0)
(-0.147026 0.00318286 0)
(-0.151246 0.00268265 0)
(-0.154753 0.00218999 0)
(-0.157563 0.00171104 0)
(-0.159692 0.00123536 0)
(-0.161147 0.000764173 0)
(-0.161919 0.000310466 0)
(-0.162018 -0.000167346 0)
(-0.161426 -0.000652425 0)
(-0.160139 -0.00114442 0)
(-0.158137 -0.00165057 0)
(-0.155399 -0.00216999 0)
(-0.151899 -0.00270464 0)
(-0.14761 -0.00327039 0)
(-0.142502 -0.00384496 0)
(-0.13654 -0.00443729 0)
(-0.129696 -0.0050802 0)
(-0.121935 -0.00570939 0)
(-0.113232 -0.00640599 0)
(-0.103564 -0.00706082 0)
(-0.092911 -0.0077188 0)
(-0.0812578 -0.00847207 0)
(-0.0686009 -0.00911481 0)
(-0.0549736 -0.00973549 0)
(-0.040375 -0.0104773 0)
(-0.0248638 -0.0110211 0)
(-0.00853311 -0.0116966 0)
(0.00857187 -0.0121102 0)
(0.0262921 -0.012411 0)
(0.0445101 -0.0128442 0)
(0.0630943 -0.0129546 0)
(0.0818344 -0.0129014 0)
(0.100527 -0.0129216 0)
(0.11898 -0.0126194 0)
(0.136953 -0.0121347 0)
(0.154208 -0.0116375 0)
(0.17051 -0.0108505 0)
(0.185632 -0.00999515 0)
(0.199343 -0.00893511 0)
(0.211437 -0.00769659 0)
(0.221717 -0.00640099 0)
(0.23003 -0.00499348 0)
(0.236226 -0.00343913 0)
(0.240197 -0.00191142 0)
(0.241862 -0.000277108 0)
(0.241205 0.00125971 0)
(0.238128 0.00286195 0)
(0.23279 0.00447452 0)
(0.225256 0.00586052 0)
(0.215579 0.00727559 0)
(0.203983 0.00860668 0)
(0.19066 0.00969634 0)
(0.17578 0.010706 0)
(0.159631 0.011469 0)
(0.142314 0.0121508 0)
(0.124138 0.0127279 0)