/*--------------------------------*- C++ -*----------------------------------*\
| =========                 |                                                 |
| \\      /  F ield         | OpenFOAM: The Open Source CFD Toolbox           |
|  \\    /   O peration     | Version:  3.0.1                                 |
|   \\  /    A nd           | Web:      www.OpenFOAM.org                      |
|    \\/     M anipulation  |                                                 |
\*---------------------------------------------------------------------------*/
FoamFile
{
    version     2.0;
    format      ascii;
    class       volScalarField;
    location    "16.8";
    object      p;
}
// * * * * * * * * * * * * * * * * * * * * * * * * * * * * * * * * * * * * * //

dimensions      [1 -1 -2 0 0 0 0];

internalField   nonuniform List<scalar> 
21420
(
4256.06
4272.37
4284.94
4293.66
4298.5
4299.19
4295.68
4288.17
4276.79
4261.57
4242.76
4220.62
4195.48
4167.67
4137.58
4105.58
4072.11
4037.62
4002.56
3967.42
3932.79
3901.6
3868.81
3836.58
3805.43
3775.66
3747.45
3720.93
3696.17
3673.2
3652.05
3632.71
3615.15
3599.36
3585.29
3572.9
3562.15
3553
3545.42
3539.38
3534.85
3531.86
3530.42
3530.52
3532.12
3535.32
3540.11
3546.52
3554.6
3564.42
3575.99
3589.37
3604.6
3621.71
3640.72
3661.62
3684.38
3708.97
3735.3
3763.28
3792.76
3823.59
3855.53
3888.24
3921.55
3955.33
3989.19
4022.79
4055.78
4087.81
4118.53
4147.59
4174.65
4199.37
4221.45
4240.57
4256.47
4268.92
4277.69
4282.63
4283.55
4280.55
4273.59
4262.73
4248.11
4229.92
4208.41
4183.88
4156.66
4127.14
4095.7
4062.77
4028.77
3994.14
3959.28
3924.58
3890.41
3857.02
3824.68
3793.63
3764.01
3735.95
3709.54
3684.92
3662.13
3641.18
3622.12
3604.98
3589.75
3576.42
3564.98
3555.38
3547.58
3541.51
3537.1
3534.34
3533.29
3533.77
3535.78
3539.33
3544.42
3551.05
3559.26
3569.08
3580.54
3593.71
3608.6
3625.26
3643.72
3664
3686.09
3709.99
3735.63
3762.93
3791.79
3822.06
3853.55
3886.03
3919.25
3952.9
3986.68
4020.23
4053.2
4085.21
4115.89
4144.85
4171.75
4196.23
4218.02
4236.82
4252.4
4264.55
4273.15
4278.09
4279.24
4276.71
4270.44
4260.51
4247.02
4230.13
4210.01
4186.88
4160.98
4132.63
4102.14
4069.87
4036.19
4001.48
3966.16
3930.64
3895.35
3860.6
3826.78
3794.21
3763.18
3733.93
3706.65
3681.46
3658.51
3637.82
3619.38
3603.17
3589.12
3577.17
3567.22
3559.15
3552.85
3548.19
3545.09
3543.5
3543.22
3544.2
3546.39
3549.75
3554.28
3559.97
3566.86
3574.97
3584.37
3595.12
3607.3
3621.01
3636.33
3653.33
3672.08
3692.65
3715.1
3739.43
3765.62
3793.63
3823.33
3854.59
3887.19
3920.88
3955.31
3990.15
4024.97
4059.36
4092.84
4124.95
4155.24
4183.24
4208.57
4230.84
4249.69
4264.88
4276.16
4283.4
4286.43
4285.33
4280.03
4270.7
4257.46
4240.52
4220.16
4196.68
4170.43
4141.81
4111.23
4079.13
4045.91
4012.01
3977.82
3943.69
3909.97
3876.93
3844.84
3813.89
3784.25
3756.07
3729.39
3704.31
3680.93
3659.26
3639.27
3620.98
3604.41
3589.58
3576.48
3565.09
3555.41
3547.42
3541.12
3536.46
3533.47
3532.18
3532.52
3534.52
3538.2
3543.58
3550.68
3559.5
3570.08
3582.42
3596.55
3612.47
3630.16
3649.61
3670.8
3693.68
3718.19
3744.25
3771.74
3800.52
3830.44
3861.3
3892.76
3924.77
3957.01
3989.16
4020.94
4052
4082.05
4110.75
4137.79
4162.88
4185.71
4206.01
4223.54
4238.07
4249.41
4257.41
4261.97
4262.97
4260.39
4254.21
4244.58
4231.62
4215.54
4196.55
4174.91
4150.95
4125
4097.38
4068.49
4038.7
4008.37
3977.88
3947.59
3917.92
3889.79
3862.36
3835.6
3809.84
3785.37
3762.34
3740.86
3721
3702.8
3686.26
3671.41
3658.22
3646.68
3636.77
3628.44
3621.67
3616.43
3612.66
3610.36
3609.5
3610.13
3612.13
3615.5
3620.19
3626.17
3633.41
3641.87
3651.53
3662.38
3674.38
3687.51
3701.75
3717.06
3733.37
3750.6
3768.62
3787.24
4158.08
4174.41
4186.99
4195.72
4200.56
4201.25
4197.74
4190.23
4178.83
4163.61
4144.78
4122.62
4097.47
4069.64
4039.53
4007.51
3974.02
3939.52
3904.44
3869.28
3834.63
3803.46
3770.66
3738.41
3707.25
3677.48
3649.27
3622.75
3597.99
3575.02
3553.87
3534.53
3516.98
3501.19
3487.12
3474.73
3463.98
3454.84
3447.26
3441.22
3436.69
3433.7
3432.26
3432.36
3433.96
3437.16
3441.95
3448.35
3456.44
3466.25
3477.81
3491.2
3506.43
3523.53
3542.54
3563.44
3586.2
3610.79
3637.13
3665.1
3694.59
3725.42
3757.37
3790.09
3823.41
3857.2
3891.08
3924.69
3957.69
3989.74
4020.47
4049.55
4076.62
4101.36
4123.45
4142.59
4158.51
4170.96
4179.74
4184.68
4185.61
4182.6
4175.64
4164.77
4150.14
4131.94
4110.42
4085.87
4058.63
4029.09
3997.63
3964.68
3930.67
3896.02
3861.15
3826.43
3792.25
3758.86
3726.51
3695.45
3665.84
3637.77
3611.36
3586.74
3563.95
3543
3523.94
3506.8
3491.57
3478.25
3466.81
3457.21
3449.41
3443.34
3438.94
3436.18
3435.13
3435.61
3437.62
3441.17
3446.26
3452.89
3461.09
3470.91
3482.37
3495.53
3510.43
3527.08
3545.54
3565.82
3587.91
3611.81
3637.45
3664.76
3693.62
3723.89
3755.39
3787.88
3821.1
3854.77
3888.56
3922.13
3955.11
3987.14
4017.83
4046.82
4073.72
4098.23
4120.02
4138.84
4154.43
4166.59
4175.2
4180.14
4181.3
4178.75
4172.48
4162.54
4149.05
4132.14
4112.02
4088.87
4062.96
4034.59
4004.09
3971.8
3938.1
3903.38
3868.04
3832.5
3797.2
3762.44
3728.6
3696.03
3664.99
3635.74
3608.45
3583.27
3560.31
3539.62
3521.19
3504.98
3490.93
3478.99
3469.04
3460.98
3454.68
3450.03
3446.94
3445.35
3445.07
3446.05
3448.24
3451.6
3456.13
3461.82
3468.71
3476.82
3486.21
3496.96
3509.14
3522.85
3538.16
3555.15
3573.9
3594.47
3616.92
3641.25
3667.44
3695.44
3725.16
3756.42
3789.03
3822.72
3857.17
3892.02
3926.86
3961.27
3994.77
4026.9
4057.2
4085.23
4110.58
4132.86
4151.73
4166.93
4178.22
4185.46
4188.5
4187.38
4182.09
4172.75
4159.5
4142.54
4122.16
4098.67
4072.41
4043.76
4013.17
3981.04
3947.81
3913.89
3879.69
3845.55
3811.82
3778.77
3746.68
3715.72
3686.08
3657.89
3631.22
3606.14
3582.76
3561.09
3541.09
3522.8
3506.24
3491.41
3478.31
3466.92
3457.24
3449.25
3442.95
3438.29
3435.31
3434.01
3434.36
3436.36
3440.03
3445.41
3452.51
3461.33
3471.9
3484.25
3498.38
3514.29
3531.98
3551.44
3572.63
3595.51
3620.02
3646.08
3673.57
3702.36
3732.28
3763.15
3794.62
3826.64
3858.89
3891.06
3922.84
3953.92
3983.98
4012.7
4039.75
4064.85
4087.69
4108.01
4125.55
4140.09
4151.44
4159.45
4164.01
4165.02
4162.42
4156.24
4146.6
4133.64
4117.55
4098.54
4076.89
4052.91
4026.94
3999.32
3970.41
3940.6
3910.26
3879.75
3849.45
3819.76
3791.65
3764.21
3737.43
3711.68
3687.2
3664.17
3642.69
3622.83
3604.62
3588.09
3573.24
3560.05
3548.52
3538.6
3530.28
3523.51
3518.27
3514.5
3512.2
3511.35
3511.97
3513.98
3517.35
3522.04
3528.02
3535.26
3543.72
3553.38
3564.23
3576.23
3589.37
3603.61
3618.91
3635.23
3652.46
3670.48
3689.1
4060.22
4076.58
4089.17
4097.92
4102.77
4103.49
4099.95
4092.44
4081.02
4065.77
4046.92
4024.73
3999.54
3971.67
3941.52
3909.48
3875.95
3841.41
3806.3
3771.09
3736.4
3705.28
3672.44
3640.17
3609
3579.22
3551.01
3524.49
3499.72
3476.76
3455.61
3436.28
3418.73
3402.94
3388.88
3376.5
3365.75
3356.61
3349.04
3343
3338.47
3335.49
3334.04
3334.13
3335.74
3338.93
3343.72
3350.12
3358.2
3368
3379.57
3392.94
3408.17
3425.27
3444.28
3465.18
3487.94
3512.53
3538.87
3566.85
3596.35
3627.19
3659.16
3691.9
3725.24
3759.04
3792.95
3826.58
3859.62
3891.69
3922.46
3951.57
3978.67
4003.44
4025.56
4044.72
4060.67
4073.15
4081.94
4086.89
4087.83
4084.81
4077.84
4066.96
4052.31
4034.08
4012.53
3987.94
3960.67
3931.09
3899.6
3866.61
3832.56
3797.88
3762.98
3728.24
3694.04
3660.63
3628.27
3597.2
3567.58
3539.51
3513.09
3488.48
3465.68
3444.73
3425.68
3408.54
3393.31
3379.99
3368.56
3358.97
3351.17
3345.11
3340.71
3337.96
3336.91
3337.39
3339.4
3342.95
3348.03
3354.66
3362.86
3372.68
3384.14
3397.29
3412.18
3428.83
3447.28
3467.56
3489.65
3513.55
3539.19
3566.5
3595.38
3625.66
3657.17
3689.68
3722.92
3756.61
3790.43
3824.03
3857.04
3889.1
3919.82
3948.84
3975.78
4000.31
4022.14
4040.98
4056.59
4068.77
4077.38
4082.33
4083.5
4080.94
4074.66
4064.71
4051.21
4034.28
4014.13
3990.95
3965.01
3936.62
3906.08
3873.76
3840.02
3805.27
3769.9
3734.33
3699
3664.21
3630.36
3597.76
3566.71
3537.45
3510.16
3484.97
3462.02
3441.33
3422.9
3406.7
3392.67
3380.73
3370.79
3362.74
3356.45
3351.81
3348.74
3347.14
3346.87
3347.85
3350.05
3353.41
3357.94
3363.63
3370.51
3378.62
3388
3398.74
3410.92
3424.61
3439.92
3456.9
3475.64
3496.21
3518.65
3542.98
3569.17
3597.18
3626.9
3658.17
3690.8
3724.51
3758.99
3793.87
3828.74
3863.19
3896.72
3928.89
3959.24
3987.3
4012.69
4035
4053.9
4069.12
4080.44
4087.68
4090.74
4089.6
4084.3
4074.95
4061.67
4044.69
4024.28
4000.76
3974.45
3945.77
3915.14
3882.98
3849.71
3815.76
3781.53
3747.37
3713.61
3680.56
3648.44
3617.48
3587.83
3559.64
3532.96
3507.88
3484.51
3462.84
3442.84
3424.56
3408
3393.17
3380.07
3368.68
3359
3351.02
3344.72
3340.06
3337.08
3335.78
3336.12
3338.12
3341.8
3347.17
3354.27
3363.09
3373.66
3386
3400.13
3416.04
3433.73
3453.18
3474.38
3497.26
3521.77
3547.84
3575.33
3604.13
3634.07
3664.95
3696.44
3728.48
3760.75
3792.94
3824.75
3855.86
3885.94
3914.69
3941.77
3966.9
3989.77
4010.11
4027.67
4042.23
4053.59
4061.62
4066.18
4067.21
4064.59
4058.41
4048.76
4035.77
4019.66
4000.63
3978.95
3954.94
3928.94
3901.28
3872.34
3842.5
3812.13
3781.59
3751.26
3721.54
3693.46
3666
3639.21
3613.44
3588.96
3565.92
3544.44
3524.58
3506.38
3489.85
3475
3461.82
3450.28
3440.37
3432.05
3425.29
3420.05
3416.29
3413.99
3413.14
3413.76
3415.77
3419.15
3423.84
3429.83
3437.07
3445.52
3455.19
3466.04
3478.04
3491.17
3505.41
3520.72
3537.04
3554.27
3572.3
3590.92
3962.48
3978.88
3991.51
4000.27
4005.13
4005.88
4002.33
3994.8
3983.35
3968.07
3949.18
3926.94
3901.69
3873.77
3843.57
3811.47
3777.88
3743.29
3708.13
3672.87
3638.11
3607.06
3574.17
3541.87
3510.67
3480.88
3452.66
3426.14
3401.38
3378.42
3357.27
3337.95
3320.41
3304.63
3290.57
3278.19
3267.46
3258.32
3250.75
3244.72
3240.2
3237.21
3235.76
3235.85
3237.45
3240.64
3245.43
3251.82
3259.89
3269.69
3281.25
3294.62
3309.84
3326.93
3345.93
3366.83
3389.59
3414.18
3440.53
3468.53
3498.04
3528.9
3560.88
3593.65
3627.02
3660.86
3694.8
3728.48
3761.56
3793.68
3824.49
3853.64
3880.8
3905.61
3927.78
3946.98
3962.96
3975.47
3984.28
3989.25
3990.21
3987.17
3980.19
3969.29
3954.6
3936.34
3914.74
3890.1
3862.78
3833.14
3801.59
3768.56
3734.45
3699.72
3664.78
3630.01
3595.77
3562.33
3529.96
3498.88
3469.24
3441.17
3414.75
3390.13
3367.34
3346.39
3327.34
3310.2
3294.98
3281.66
3270.24
3260.65
3252.86
3246.8
3242.41
3239.67
3238.62
3239.1
3241.12
3244.67
3249.75
3256.37
3264.57
3274.37
3285.83
3298.98
3313.85
3330.5
3348.95
3369.22
3391.31
3415.21
3440.86
3468.17
3497.06
3527.36
3558.89
3591.43
3624.7
3658.43
3692.28
3725.92
3758.98
3791.09
3821.86
3850.93
3877.91
3902.49
3924.36
3943.23
3958.87
3971.08
3979.71
3984.66
3985.85
3983.27
3976.99
3967.02
3953.49
3936.53
3916.34
3893.13
3867.15
3838.7
3808.12
3775.74
3741.96
3707.15
3671.73
3636.12
3600.75
3565.93
3532.04
3499.42
3468.35
3439.07
3411.77
3386.58
3363.63
3342.95
3324.53
3308.33
3294.31
3282.39
3272.46
3264.42
3258.15
3253.53
3250.48
3248.88
3248.62
3249.61
3251.81
3255.17
3259.7
3265.39
3272.26
3280.36
3289.74
3300.47
3312.63
3326.32
3341.6
3358.58
3377.31
3397.86
3420.3
3444.62
3470.82
3498.83
3528.56
3559.85
3592.5
3626.25
3660.76
3695.69
3730.61
3765.11
3798.7
3830.93
3861.34
3889.47
3914.9
3937.27
3956.21
3971.47
3982.81
3990.07
3993.15
3991.98
3986.67
3977.3
3963.99
3946.97
3926.51
3902.93
3876.57
3847.83
3817.14
3784.93
3751.61
3717.61
3683.34
3649.14
3615.36
3582.28
3550.15
3519.17
3489.51
3461.31
3434.63
3409.55
3386.18
3364.51
3344.52
3326.24
3309.68
3294.86
3281.76
3270.38
3260.7
3252.71
3246.42
3241.77
3238.79
3237.49
3237.83
3239.82
3243.49
3248.87
3255.96
3264.78
3275.34
3287.68
3301.81
3317.71
3335.4
3354.86
3376.05
3398.93
3423.45
3449.52
3477.03
3505.85
3535.8
3566.71
3598.22
3630.29
3662.58
3694.82
3726.67
3757.81
3787.94
3816.73
3843.85
3869.02
3891.93
3912.3
3929.9
3944.49
3955.88
3963.92
3968.5
3969.54
3966.89
3960.7
3951.03
3938.02
3921.88
3902.81
3881.08
3857.03
3830.98
3803.27
3774.29
3744.4
3713.98
3683.4
3653.03
3623.27
3595.23
3567.74
3540.93
3515.14
3490.64
3467.6
3446.12
3426.26
3408.06
3391.53
3376.69
3363.51
3351.99
3342.08
3333.77
3327.01
3321.77
3318.02
3315.73
3314.87
3315.5
3317.51
3320.89
3325.59
3331.58
3338.82
3347.28
3356.95
3367.79
3379.8
3392.93
3407.18
3422.49
3438.8
3456.04
3474.08
3492.71
3864.87
3881.31
3893.98
3902.78
3907.65
3908.43
3904.87
3897.32
3885.83
3870.5
3851.55
3829.25
3803.94
3775.94
3745.66
3713.49
3679.83
3645.17
3609.94
3574.6
3539.75
3508.8
3475.84
3443.49
3412.27
3382.46
3354.23
3327.71
3302.95
3279.99
3258.86
3239.54
3222.01
3206.24
3192.19
3179.83
3169.1
3159.97
3152.41
3146.38
3141.86
3138.88
3137.42
3137.5
3139.11
3142.29
3147.07
3153.46
3161.52
3171.31
3182.85
3196.21
3211.42
3228.51
3247.51
3268.4
3291.16
3315.76
3342.12
3370.13
3399.66
3430.54
3462.55
3495.36
3528.77
3562.66
3596.65
3630.38
3663.51
3695.69
3726.56
3755.78
3783
3807.87
3830.1
3849.36
3865.39
3877.94
3886.78
3891.76
3892.74
3889.69
3882.7
3871.76
3857.03
3838.71
3817.05
3792.35
3764.96
3735.25
3703.63
3670.51
3636.34
3601.55
3566.55
3531.72
3497.44
3463.98
3431.58
3400.47
3370.83
3342.74
3316.32
3291.7
3268.91
3247.96
3228.91
3211.78
3196.56
3183.26
3171.84
3162.27
3154.49
3148.44
3144.05
3141.32
3140.27
3140.76
3142.77
3146.32
3151.4
3158.02
3166.21
3176.01
3187.45
3200.59
3215.46
3232.09
3250.53
3270.8
3292.89
3316.79
3342.44
3369.77
3398.67
3428.99
3460.55
3493.12
3526.44
3560.21
3594.12
3627.81
3660.94
3693.11
3723.95
3753.08
3780.13
3804.76
3826.68
3845.61
3861.29
3873.53
3882.18
3887.15
3888.34
3885.75
3879.45
3869.46
3855.9
3838.9
3818.67
3795.4
3769.36
3740.85
3710.2
3677.76
3643.9
3609.03
3573.55
3537.87
3502.45
3467.57
3433.65
3400.99
3369.89
3340.59
3313.28
3288.08
3265.14
3244.47
3226.06
3209.88
3195.87
3183.97
3174.06
3166.04
3159.79
3155.19
3152.15
3150.57
3150.32
3151.32
3153.52
3156.89
3161.41
3167.1
3173.97
3182.05
3191.42
3202.13
3214.28
3227.95
3243.22
3260.18
3278.89
3299.44
3321.87
3346.18
3372.38
3400.4
3430.14
3461.46
3494.14
3527.93
3562.49
3597.48
3632.47
3667.04
3700.71
3733.02
3763.51
3791.71
3817.23
3839.66
3858.66
3873.97
3885.34
3892.62
3895.71
3894.53
3889.21
3879.8
3866.44
3849.37
3828.84
3805.2
3778.77
3749.95
3719.19
3686.9
3653.51
3619.45
3585.12
3550.87
3517.05
3483.94
3451.78
3420.78
3391.12
3362.91
3336.23
3311.15
3287.77
3266.11
3246.13
3227.84
3211.29
3196.47
3183.38
3172
3162.33
3154.35
3148.05
3143.41
3140.43
3139.12
3139.46
3141.46
3145.13
3150.5
3157.58
3166.39
3176.95
3189.29
3203.41
3219.31
3237
3256.45
3277.64
3300.53
3325.06
3351.14
3378.66
3407.5
3437.48
3468.41
3499.96
3532.07
3564.4
3596.68
3628.58
3659.78
3689.96
3718.81
3745.99
3771.21
3794.17
3814.6
3832.24
3846.87
3858.29
3866.36
3870.95
3872
3869.34
3863.13
3853.44
3840.39
3824.2
3805.08
3783.3
3759.18
3733.07
3705.3
3676.25
3646.3
3615.83
3585.19
3554.75
3524.94
3496.97
3469.43
3442.58
3416.77
3392.26
3369.21
3347.73
3327.87
3309.67
3293.15
3278.31
3265.14
3253.62
3243.72
3235.42
3228.67
3223.44
3219.69
3217.41
3216.55
3217.18
3219.21
3222.59
3227.29
3233.28
3240.53
3248.99
3258.66
3269.51
3281.51
3294.65
3308.89
3324.2
3340.53
3357.77
3375.81
3394.45
3767.38
3783.88
3796.61
3805.44
3810.33
3811.13
3807.57
3799.99
3788.45
3773.07
3754.05
3731.66
3706.26
3678.18
3647.81
3615.54
3581.79
3547.05
3511.73
3476.29
3441.33
3410.51
3377.45
3345.04
3313.78
3283.96
3255.72
3229.19
3204.43
3181.49
3160.36
3141.05
3123.54
3107.78
3093.75
3081.39
3070.67
3061.56
3054
3047.98
3043.47
3040.49
3039.02
3039.1
3040.7
3043.88
3048.65
3055.03
3063.08
3072.86
3084.39
3097.74
3112.93
3130.01
3149
3169.89
3192.65
3217.26
3243.63
3271.65
3301.21
3332.12
3364.17
3397.02
3430.48
3464.42
3498.48
3532.28
3565.48
3597.73
3628.68
3657.98
3685.27
3710.23
3732.52
3751.85
3767.94
3780.55
3789.43
3794.43
3795.43
3792.37
3785.35
3774.37
3759.59
3741.21
3719.47
3694.69
3667.21
3637.4
3605.69
3572.48
3538.22
3503.35
3468.28
3433.39
3399.06
3365.55
3333.13
3302
3272.34
3244.24
3217.81
3193.2
3170.4
3149.46
3130.41
3113.28
3098.07
3084.78
3073.37
3063.81
3056.04
3050.01
3045.63
3042.91
3041.86
3042.36
3044.37
3047.92
3052.99
3059.6
3067.78
3077.57
3089
3102.13
3116.98
3133.61
3152.04
3172.3
3194.39
3218.29
3243.94
3271.29
3300.21
3330.56
3362.15
3394.76
3428.13
3461.96
3495.94
3529.71
3562.9
3595.16
3626.08
3655.29
3682.42
3707.13
3729.12
3748.11
3763.84
3776.11
3784.8
3789.78
3790.98
3788.39
3782.06
3772.04
3758.44
3741.39
3721.09
3697.76
3671.65
3643.06
3612.32
3579.8
3545.86
3510.9
3475.34
3439.59
3404.09
3369.16
3335.18
3302.48
3271.35
3242.03
3214.7
3189.5
3166.55
3145.89
3127.49
3111.33
3097.35
3085.47
3075.58
3067.59
3061.36
3056.79
3053.78
3052.21
3051.97
3052.98
3055.19
3058.56
3063.08
3068.76
3075.62
3083.69
3093.04
3103.74
3115.87
3129.52
3144.77
3161.7
3180.4
3200.93
3223.35
3247.66
3273.85
3301.88
3331.65
3362.99
3395.72
3429.55
3464.18
3499.24
3534.32
3568.98
3602.75
3635.16
3665.75
3694.05
3719.65
3742.17
3761.24
3776.61
3788.02
3795.33
3798.43
3797.25
3791.9
3782.44
3769.03
3751.89
3731.29
3707.55
3681.03
3652.12
3621.26
3588.88
3555.41
3521.27
3486.87
3452.57
3418.69
3385.54
3353.36
3322.33
3292.65
3264.43
3237.75
3212.67
3189.3
3167.64
3147.66
3129.38
3112.83
3098.02
3084.93
3073.55
3063.89
3055.91
3049.62
3044.98
3042.01
3040.7
3041.03
3043.02
3046.69
3052.05
3059.13
3067.94
3078.49
3090.82
3104.94
3120.83
3138.52
3157.97
3179.16
3202.06
3226.59
3252.69
3280.23
3309.08
3339.09
3370.06
3401.66
3433.81
3466.2
3498.54
3530.51
3561.77
3592.02
3620.94
3648.19
3673.48
3696.51
3717
3734.69
3749.37
3760.83
3768.93
3773.54
3774.6
3771.93
3765.7
3755.97
3742.88
3726.63
3707.44
3685.59
3661.4
3635.2
3607.35
3578.23
3548.2
3517.65
3486.94
3456.43
3426.54
3398.66
3371.07
3344.17
3318.33
3293.8
3270.74
3249.26
3229.4
3211.2
3194.69
3179.86
3166.7
3155.19
3145.3
3137
3130.26
3125.05
3121.31
3119.03
3118.17
3118.81
3120.84
3124.24
3128.94
3134.93
3142.18
3150.65
3160.32
3171.17
3183.17
3196.31
3210.56
3225.88
3242.21
3259.46
3277.51
3296.16
3670
3686.59
3699.37
3708.25
3713.17
3713.98
3710.43
3702.81
3691.22
3675.76
3656.66
3634.18
3608.68
3580.48
3550
3517.62
3483.76
3448.91
3413.49
3377.94
3342.84
3312.17
3278.99
3246.52
3215.22
3185.38
3157.13
3130.59
3105.84
3082.9
3061.79
3042.49
3024.99
3009.25
2995.23
2982.89
2972.19
2963.08
2955.53
2949.52
2945.02
2942.03
2940.56
2940.64
2942.24
2945.41
2950.16
2956.53
2964.57
2974.33
2985.85
2999.18
3014.37
3031.43
3050.42
3071.3
3094.06
3118.67
3145.05
3173.1
3202.68
3233.63
3265.72
3298.63
3332.15
3366.16
3400.29
3434.17
3467.46
3499.8
3530.84
3560.23
3587.62
3612.67
3635.05
3654.47
3670.63
3683.3
3692.22
3697.26
3698.27
3695.21
3688.16
3677.13
3662.29
3643.82
3622
3597.12
3569.53
3539.61
3507.78
3474.47
3440.1
3405.13
3369.97
3335.02
3300.62
3267.07
3234.6
3203.44
3173.77
3145.66
3119.23
3094.6
3071.81
3050.87
3031.82
3014.7
2999.5
2986.22
2974.82
2965.28
2957.53
2951.51
2947.15
2944.43
2943.4
2943.89
2945.91
2949.46
2954.52
2961.12
2969.29
2979.07
2990.49
3003.6
3018.44
3035.05
3053.47
3073.72
3095.8
3119.7
3145.37
3172.73
3201.67
3232.05
3263.69
3296.36
3329.78
3363.69
3397.74
3431.59
3464.88
3497.23
3528.25
3557.56
3584.79
3609.59
3631.66
3650.72
3666.51
3678.84
3687.56
3692.56
3693.76
3691.16
3684.82
3674.76
3661.1
3643.99
3623.63
3600.21
3574.01
3545.33
3514.5
3481.87
3447.83
3412.77
3377.11
3341.27
3305.69
3270.68
3236.64
3203.89
3172.71
3143.36
3116.01
3090.81
3067.87
3047.21
3028.84
3012.7
2998.74
2986.89
2977.03
2969.06
2962.87
2958.33
2955.34
2953.79
2953.57
2954.6
2956.81
2960.18
2964.7
2970.38
2977.22
2985.28
2994.61
3005.29
3017.39
3031.02
3046.25
3063.16
3081.83
3102.34
3124.74
3149.04
3175.24
3203.28
3233.07
3264.45
3297.22
3331.12
3365.83
3400.97
3436.15
3470.93
3504.81
3537.35
3568.06
3596.47
3622.19
3644.8
3663.97
3679.4
3690.87
3698.21
3701.32
3700.13
3694.75
3685.24
3671.77
3654.54
3633.84
3610
3583.37
3554.35
3523.38
3490.88
3457.31
3423.07
3388.59
3354.21
3320.28
3287.08
3254.86
3223.81
3194.11
3165.88
3139.19
3114.11
3090.74
3069.09
3049.11
3030.84
3014.3
2999.49
2986.4
2975.04
2965.38
2957.41
2951.12
2946.49
2943.52
2942.21
2942.54
2944.52
2948.19
2953.54
2960.61
2969.41
2979.96
2992.28
3006.39
3022.28
3039.96
3059.41
3080.61
3103.51
3128.05
3154.16
3181.72
3210.61
3240.65
3271.66
3303.32
3335.53
3367.98
3400.39
3432.43
3463.78
3494.11
3523.11
3550.45
3575.82
3598.93
3619.49
3637.25
3651.99
3663.5
3671.64
3676.27
3677.34
3674.66
3668.4
3658.63
3645.49
3629.17
3609.9
3587.96
3563.67
3537.39
3509.44
3480.22
3450.11
3419.47
3388.67
3358.06
3328.09
3300.31
3272.65
3245.69
3219.82
3195.27
3172.2
3150.71
3130.85
3112.66
3096.16
3081.34
3068.19
3056.69
3046.81
3038.53
3031.8
3026.59
3022.87
3020.6
3019.74
3020.39
3022.43
3025.83
3030.54
3036.54
3043.79
3052.26
3061.93
3072.79
3084.79
3097.93
3112.18
3127.5
3143.84
3161.1
3179.16
3197.83
3572.75
3589.43
3602.29
3611.22
3616.16
3617
3613.44
3605.79
3594.13
3578.6
3559.39
3536.8
3511.18
3482.85
3452.24
3419.73
3385.75
3350.78
3315.23
3279.56
3244.28
3213.8
3180.48
3147.92
3116.58
3086.71
3058.45
3031.91
3007.16
2984.23
2963.13
2943.86
2926.37
2910.65
2896.65
2884.32
2873.63
2864.54
2857
2851
2846.5
2843.52
2842.04
2842.12
2843.71
2846.87
2851.62
2857.97
2865.99
2875.74
2887.23
2900.55
2915.72
2932.77
2951.75
2972.63
2995.39
3020
3046.4
3074.47
3104.09
3135.08
3167.22
3200.19
3233.78
3267.87
3302.09
3336.06
3369.45
3401.9
3433.05
3462.55
3490.05
3515.2
3537.69
3557.2
3573.46
3586.19
3595.17
3600.24
3601.27
3598.21
3591.11
3580.03
3565.12
3546.56
3524.63
3499.63
3471.91
3441.87
3409.91
3376.47
3341.98
3306.89
3271.63
3236.59
3202.12
3168.51
3136
3104.82
3075.12
3047
3020.55
2995.93
2973.14
2952.19
2933.15
2916.04
2900.85
2887.58
2876.2
2866.68
2858.94
2852.94
2848.6
2845.89
2844.87
2845.37
2847.39
2850.93
2855.99
2862.58
2870.74
2880.5
2891.9
2905
2919.82
2936.41
2954.82
2975.06
2997.14
3021.04
3046.71
3074.09
3103.06
3133.48
3165.17
3197.9
3231.4
3265.38
3299.53
3333.48
3366.88
3399.34
3430.47
3459.9
3487.23
3512.14
3534.31
3553.46
3569.32
3581.7
3590.46
3595.48
3596.69
3594.09
3587.71
3577.61
3563.9
3546.72
3526.27
3502.76
3476.45
3447.66
3416.71
3383.97
3349.81
3314.63
3278.86
3242.91
3207.23
3172.14
3138.02
3105.21
3073.99
3044.6
3017.23
2992.02
2969.08
2948.44
2930.09
2913.98
2900.05
2888.23
2878.41
2870.47
2864.31
2859.81
2856.85
2855.32
2855.12
2856.16
2858.39
2861.76
2866.28
2871.94
2878.78
2886.82
2896.12
2906.78
2918.86
2932.45
2947.65
2964.53
2983.18
3003.67
3026.06
3050.35
3076.54
3104.6
3134.41
3165.83
3198.66
3232.63
3267.43
3302.68
3337.98
3372.88
3406.9
3439.58
3470.43
3498.98
3524.83
3547.56
3566.83
3582.35
3593.88
3601.25
3604.37
3603.18
3597.76
3588.19
3574.64
3557.31
3536.51
3512.55
3485.78
3456.63
3425.52
3392.9
3359.2
3324.86
3290.27
3255.82
3221.82
3188.56
3156.3
3125.22
3095.49
3067.25
3040.55
3015.47
2992.11
2970.47
2950.49
2932.22
2915.7
2900.89
2887.81
2876.46
2866.8
2858.84
2852.56
2847.93
2844.97
2843.65
2843.98
2845.96
2849.61
2854.96
2862.03
2870.81
2881.36
2893.67
2907.77
2923.65
2941.33
2960.78
2981.97
3004.88
3029.44
3055.57
3083.15
3112.07
3142.15
3173.22
3204.94
3237.21
3269.74
3302.23
3334.36
3365.8
3396.23
3425.33
3452.76
3478.23
3501.44
3522.09
3539.93
3554.74
3566.31
3574.48
3579.14
3580.22
3577.53
3571.23
3561.42
3548.21
3531.81
3512.45
3490.41
3466.02
3439.61
3411.55
3382.23
3352.01
3321.26
3290.36
3259.65
3229.58
3201.91
3174.17
3147.15
3121.24
3096.67
3073.59
3052.09
3032.24
3014.05
2997.56
2982.75
2969.61
2958.13
2948.26
2939.99
2933.28
2928.08
2924.37
2922.11
2921.26
2921.92
2923.97
2927.37
2932.09
2938.09
2945.35
2953.82
2963.5
2974.36
2986.36
2999.51
3013.76
3029.09
3045.43
3062.7
3080.78
3099.46
3475.63
3492.4
3505.35
3514.34
3519.32
3520.18
3516.62
3508.92
3497.19
3481.56
3462.25
3439.53
3413.76
3385.29
3354.52
3321.86
3287.74
3252.63
3216.95
3181.13
3145.66
3115.38
3081.9
3049.25
3017.87
2987.96
2959.69
2933.15
2908.4
2885.48
2864.4
2845.14
2827.68
2811.98
2797.99
2785.69
2775.02
2765.93
2758.41
2752.42
2747.93
2744.95
2743.47
2743.54
2745.12
2748.27
2753
2759.35
2767.35
2777.07
2788.55
2801.84
2816.99
2834.03
2853
2873.87
2896.63
2921.25
2947.67
2975.76
3005.42
3036.45
3068.65
3101.7
3135.37
3169.56
3203.87
3237.95
3271.46
3304.03
3335.3
3364.92
3392.55
3417.82
3440.43
3460.05
3476.41
3489.23
3498.27
3503.38
3504.43
3501.36
3494.23
3483.08
3468.08
3449.41
3427.36
3402.23
3374.37
3344.18
3312.07
3278.48
3243.85
3208.64
3173.26
3138.12
3103.57
3069.89
3037.33
3006.11
2976.39
2948.25
2921.8
2897.18
2874.39
2853.44
2834.41
2817.3
2802.12
2788.87
2777.51
2768
2760.29
2754.31
2749.99
2747.29
2746.28
2746.78
2748.8
2752.34
2757.39
2763.98
2772.12
2781.87
2793.25
2806.32
2821.12
2837.7
2856.09
2876.31
2898.39
2922.29
2947.98
2975.37
3004.37
3034.84
3066.59
3099.38
3132.96
3167.04
3201.29
3235.36
3268.88
3301.47
3332.74
3362.3
3389.76
3414.79
3437.07
3456.31
3472.26
3484.71
3493.51
3498.56
3499.78
3497.16
3490.75
3480.6
3466.82
3449.56
3429.01
3405.4
3378.97
3350.05
3318.98
3286.09
3251.8
3216.49
3180.58
3144.51
3108.72
3073.53
3039.33
3006.45
2975.17
2945.75
2918.35
2893.13
2870.2
2849.58
2831.24
2815.16
2801.27
2789.48
2779.7
2771.81
2765.69
2761.23
2758.3
2756.8
2756.62
2757.68
2759.92
2763.29
2767.81
2773.47
2780.28
2788.3
2797.58
2808.21
2820.26
2833.82
2848.99
2865.83
2884.45
2904.92
2927.28
2951.56
2977.76
3005.83
3035.67
3067.14
3100.03
3134.09
3168.99
3204.36
3239.79
3274.83
3309.01
3341.85
3372.87
3401.58
3427.57
3450.44
3469.83
3485.45
3497.04
3504.46
3507.59
3506.39
3500.93
3491.3
3477.65
3460.22
3439.28
3415.18
3388.27
3358.96
3327.7
3294.93
3261.1
3226.62
3191.93
3157.38
3123.3
3089.98
3057.66
3026.55
2996.8
2968.54
2941.84
2916.76
2893.4
2871.77
2851.8
2833.54
2817.02
2802.22
2789.15
2777.8
2768.16
2760.21
2753.93
2749.31
2746.35
2745.03
2745.35
2747.33
2750.98
2756.32
2763.37
2772.15
2782.68
2794.98
2809.07
2824.95
2842.62
2862.06
2883.26
2906.18
2930.75
2956.9
2984.51
3013.47
3043.6
3074.71
3106.52
3138.86
3171.47
3204.06
3236.29
3267.84
3298.38
3327.59
3355.14
3380.72
3404.03
3424.78
3442.72
3457.6
3469.24
3477.46
3482.15
3483.24
3480.54
3474.2
3464.33
3451.05
3434.56
3415.1
3392.94
3368.42
3341.89
3313.7
3284.25
3253.91
3223.05
3192.03
3161.2
3131
3103.48
3075.64
3048.55
3022.59
2997.99
2974.9
2953.4
2933.55
2915.37
2898.88
2884.09
2870.97
2859.49
2849.65
2841.39
2834.69
2829.51
2825.82
2823.57
2822.73
2823.39
2825.45
2828.87
2833.59
2839.6
2846.86
2855.34
2865.02
2875.88
2887.89
2901.03
2915.29
2930.62
2946.97
2964.26
2982.35
3001.05
3378.62
3395.51
3408.55
3417.62
3422.64
3423.52
3419.95
3412.2
3400.39
3384.66
3365.22
3342.36
3316.44
3287.79
3256.86
3224.03
3189.74
3154.48
3118.65
3082.67
3046.98
3016.92
2983.24
2950.5
2919.07
2889.13
2860.84
2834.3
2809.56
2786.65
2765.59
2746.35
2728.91
2713.23
2699.27
2686.99
2676.33
2667.27
2659.76
2653.77
2649.3
2646.31
2644.83
2644.9
2646.48
2649.61
2654.33
2660.65
2668.64
2678.33
2689.79
2703.06
2718.19
2735.21
2754.16
2775.03
2797.79
2822.42
2848.85
2876.98
2906.68
2937.76
2970.03
3003.15
3036.92
3071.21
3105.64
3139.84
3173.47
3206.18
3237.59
3267.35
3295.12
3320.54
3343.28
3363.03
3379.49
3392.41
3401.52
3406.68
3407.74
3404.67
3397.49
3386.28
3371.17
3352.39
3330.2
3304.92
3276.9
3246.54
3214.26
3180.5
3145.71
3110.35
3074.85
3039.59
3004.95
2971.2
2938.59
2907.33
2877.58
2849.42
2822.97
2798.34
2775.55
2754.61
2735.58
2718.48
2703.31
2690.08
2678.74
2669.26
2661.57
2655.62
2651.32
2648.63
2647.63
2648.14
2650.16
2653.7
2658.74
2665.31
2673.44
2683.16
2694.53
2707.57
2722.35
2738.9
2757.28
2777.49
2799.56
2823.47
2849.16
2876.58
2905.61
2936.13
2967.94
3000.81
3034.49
3068.67
3103.04
3137.24
3170.9
3203.63
3235.05
3264.76
3292.36
3317.53
3339.93
3359.29
3375.33
3387.85
3396.7
3401.78
3403.01
3400.38
3393.94
3383.73
3369.88
3352.52
3331.86
3308.13
3281.57
3252.51
3221.28
3188.25
3153.8
3118.33
3082.28
3046.08
3010.15
2974.85
2940.56
2907.6
2876.26
2846.8
2819.37
2794.14
2771.22
2750.61
2732.3
2716.26
2702.41
2690.66
2680.92
2673.07
2667
2662.58
2659.7
2658.23
2658.07
2659.16
2661.4
2664.78
2669.3
2674.94
2681.74
2689.74
2698.99
2709.58
2721.6
2735.13
2750.25
2767.06
2785.64
2806.08
2828.42
2852.69
2878.89
2906.97
2936.84
2968.37
3001.33
3035.48
3070.5
3106
3141.58
3176.8
3211.15
3244.17
3275.37
3304.26
3330.43
3353.45
3372.97
3388.69
3400.37
3407.83
3410.98
3409.77
3404.26
3394.55
3380.8
3363.24
3342.16
3317.9
3290.82
3261.35
3229.92
3196.98
3162.99
3128.37
3093.55
3058.89
3024.73
2991.34
2958.97
2927.81
2898.03
2869.76
2843.05
2817.97
2794.62
2772.99
2753.03
2734.78
2718.27
2703.48
2690.42
2679.08
2669.45
2661.51
2655.24
2650.62
2647.66
2646.34
2646.66
2648.63
2652.27
2657.6
2664.64
2673.41
2683.93
2696.22
2710.3
2726.17
2743.83
2763.27
2784.48
2807.4
2831.99
2858.16
2885.8
2914.8
2944.98
2976.16
3008.06
3040.48
3073.19
3105.88
3138.23
3169.9
3200.56
3229.9
3257.58
3283.28
3306.71
3327.58
3345.61
3360.59
3372.3
3380.58
3385.3
3386.4
3383.68
3377.31
3367.38
3354.01
3337.42
3317.84
3295.55
3270.89
3244.21
3215.88
3186.28
3155.81
3124.82
3093.67
3062.7
3032.36
3005.01
2977.05
2949.88
2923.87
2899.25
2876.14
2854.63
2834.78
2816.61
2800.14
2785.36
2772.25
2760.8
2750.97
2742.73
2736.05
2730.88
2727.2
2724.97
2724.14
2724.82
2726.89
2730.31
2735.04
2741.06
2748.32
2756.81
2766.49
2777.36
2789.37
2802.51
2816.77
2832.11
2848.48
2865.77
2883.88
2902.61
3281.74
3298.76
3311.9
3321.05
3326.12
3327.02
3323.44
3315.64
3303.74
3287.9
3268.32
3245.29
3219.19
3190.37
3159.24
3126.23
3091.76
3056.32
3020.33
2984.18
2948.25
2918.4
2884.52
2851.68
2820.18
2790.22
2761.91
2735.36
2710.63
2687.74
2666.69
2647.48
2630.06
2614.41
2600.48
2588.22
2577.59
2568.54
2561.05
2555.07
2550.6
2547.62
2546.14
2546.2
2547.77
2550.89
2555.59
2561.89
2569.85
2579.53
2590.95
2604.2
2619.31
2636.31
2655.25
2676.11
2698.87
2723.51
2749.96
2778.12
2807.86
2839.01
2871.35
2904.56
2938.43
2972.83
3007.39
3041.73
3075.5
3108.36
3139.92
3169.84
3197.77
3223.34
3246.23
3266.12
3282.71
3295.73
3304.93
3310.13
3311.22
3308.14
3300.91
3289.62
3274.4
3255.49
3233.15
3207.7
3179.49
3148.95
3116.48
3082.54
3047.57
3012.05
2976.4
2941.02
2906.28
2872.45
2839.77
2808.46
2778.68
2750.52
2724.05
2699.42
2676.63
2655.69
2636.66
2619.58
2604.43
2591.21
2579.89
2570.44
2562.78
2556.85
2552.58
2549.91
2548.92
2549.44
2551.46
2554.99
2560.02
2566.58
2574.69
2584.4
2595.74
2608.75
2623.5
2640.03
2658.39