/*--------------------------------*- C++ -*----------------------------------*\
| =========                 |                                                 |
| \\      /  F ield         | OpenFOAM: The Open Source CFD Toolbox           |
|  \\    /   O peration     | Version:  3.0.1                                 |
|   \\  /    A nd           | Web:      www.OpenFOAM.org                      |
|    \\/     M anipulation  |                                                 |
\*---------------------------------------------------------------------------*/
FoamFile
{
    version     2.0;
    format      ascii;
    class       volScalarField;
    location    "68.4";
    object      p;
}
// * * * * * * * * * * * * * * * * * * * * * * * * * * * * * * * * * * * * * //

dimensions      [1 -1 -2 0 0 0 0];

internalField   nonuniform List<scalar> 
21420
(
4129.45
4098.8
4067.03
4034.49
4001.62
3968.72
3936.29
3905.43
3874.89
3844.81
3815.84
3788.24
3762.16
3737.69
3714.9
3693.82
3674.44
3656.76
3640.75
3626.36
3613.56
3602.3
3592.54
3584.22
3577.32
3571.8
3567.63
3564.84
3563.42
3563.34
3564.63
3567.32
3571.45
3577.04
3584.16
3592.85
3603.16
3615.13
3628.81
3644.24
3661.46
3680.46
3701.28
3723.89
3748.27
3774.32
3802
3831.19
3861.77
3891.72
3924.17
3957.2
3990.58
4023.97
4057.03
4089.47
4120.91
4151
4179.4
4205.77
4229.81
4251.21
4269.71
4285.09
4297.16
4305.76
4310.78
4312.1
4309.76
4303.73
4294.03
4280.84
4264.32
4244.66
4222.11
4196.98
4169.56
4140.22
4109.29
4077.16
4044.2
4010.77
3977.24
3943.93
3911.21
3879.24
3848.28
3818.56
3790.27
3763.58
3738.61
3715.44
3694.15
3674.77
3657.32
3641.8
3628.18
3616.44
3606.5
3598.31
3591.8
3586.89
3583.5
3581.59
3581.12
3582
3584.22
3587.77
3592.65
3598.84
3606.37
3615.26
3625.51
3637.17
3650.24
3664.78
3680.78
3698.27
3717.26
3737.76
3759.77
3783.25
3808.19
3834.52
3862.18
3891.09
3921.12
3952.05
3983.7
4015.83
4048.16
4080.39
4112.15
4143.07
4172.76
4200.8
4226.78
4250.3
4271
4288.52
4302.55
4312.85
4319.21
4321.42
4319.57
4313.55
4303.42
4289.32
4271.44
4250.05
4225.45
4198
4168.11
4136.21
4102.79
4068.29
4033.19
3997.95
3962.97
3928.66
3895.33
3863.25
3832.66
3803.74
3776.6
3751.34
3727.99
3706.57
3687.07
3669.45
3653.67
3639.68
3627.42
3616.82
3607.83
3600.39
3594.44
3589.94
3586.82
3585.08
3584.7
3585.63
3587.88
3591.46
3596.36
3602.63
3610.27
3619.31
3629.78
3641.69
3655.09
3669.98
3686.41
3704.39
3723.96
3745.14
3767.92
3792.31
3818.26
3845.69
3874.5
3904.52
3935.58
3967.42
3999.79
4032.38
4064.86
4096.86
4128
4157.83
4185.94
4211.88
4235.21
4255.53
4272.48
4285.72
4294.99
4300.1
4300.86
4297.31
4289.47
4277.4
4261.32
4241.5
4218.26
4192
4163.14
4132.13
4099.47
4065.63
4031.08
3996.29
3961.69
3927.65
3894.52
3862.59
3832.07
3803.16
3775.99
3750.65
3727.21
3705.68
3686.06
3668.33
3652.42
3638.28
3625.84
3615.02
3605.76
3597.99
3591.68
3586.76
3583.22
3581
3580.11
3580.53
3582.22
3585.19
3589.43
3594.97
3601.8
3609.94
3619.41
3630.25
3642.48
3656.12
3671.21
3687.79
3705.87
3725.46
3746.58
3769.22
3793.33
3818.87
3845.76
3873.9
3903.12
3933.27
3964.32
3995.94
4027.6
4059
4089.73
4119.41
4147.64
4173.99
4198.03
4219.36
4237.59
4252.36
4263.38
4270.4
4273.25
4271.76
4265.97
4255.91
4241.74
4223.81
4202.45
4178.04
4151.03
4121.88
4091.05
4059.03
4026.28
3993.22
3960.25
3927.92
3901.05
3871.18
3842.34
3814.89
3788.98
3764.67
3741.99
3720.91
3701.39
3683.38
3666.83
3651.66
3637.82
3625.26
3613.95
3603.87
3595.02
3587.41
3581.07
3576.05
3572.39
3570.19
3569.53
3570.55
3573.24
3577.67
3583.88
3591.91
3601.78
3613.51
3627.09
3642.51
3659.75
3678.74
3699.42
3721.71
3745.47
3770.6
3796.95
3824.33
3852.48
3880.82
3908.46
3937.35
3966.23
3994.77
4022.72
4049.65
4075.24
4031.39
4000.72
3968.93
3936.38
3903.49
3870.58
3838.14
3807.28
3776.73
3746.64
3717.66
3690.06
3663.98
3639.51
3616.73
3595.64
3576.27
3558.59
3542.58
3528.2
3515.4
3504.14
3494.38
3486.07
3479.17
3473.64
3469.48
3466.68
3465.26
3465.19
3466.48
3469.16
3473.29
3478.88
3486
3494.69
3504.99
3516.96
3530.64
3546.07
3563.28
3582.28
3603.1
3625.71
3650.09
3676.15
3703.82
3733.02
3763.59
3793.58
3826.03
3859.07
3892.45
3925.85
3958.93
3991.38
4022.84
4052.94
4081.36
4107.75
4131.8
4153.21
4171.73
4187.12
4199.2
4207.8
4212.83
4214.14
4211.8
4205.77
4196.06
4182.86
4166.33
4146.66
4124.1
4098.95
4071.52
4042.16
4011.21
3979.07
3946.09
3912.65
3879.1
3845.79
3813.05
3781.08
3750.11
3720.38
3692.1
3665.4
3640.42
3617.26
3595.96
3576.58
3559.13
3543.62
3530.01
3518.26
3508.33
3500.14
3493.63
3488.73
3485.34
3483.43
3482.96
3483.84
3486.07
3489.62
3494.49
3500.68
3508.22
3517.1
3527.35
3539
3552.08
3566.61
3582.61
3600.1
3619.09
3639.59
3661.6
3685.08
3710.02
3736.35
3764.02
3792.93
3822.96
3853.9
3885.55
3917.69
3950.04
3982.28
4014.06
4045
4074.7
4102.76
4128.76
4152.3
4173.01
4190.54
4204.59
4214.9
4221.27
4223.49
4221.62
4215.6
4205.47
4191.35
4173.47
4152.06
4127.44
4099.97
4070.06
4038.14
4004.7
3970.18
3935.07
3899.8
3864.82
3830.5
3797.15
3765.07
3734.47
3705.55
3678.41
3653.15
3629.8
3608.39
3588.89
3571.27
3555.5
3541.51
3529.25
3518.65
3509.67
3502.23
3496.28
3491.78
3488.67
3486.93
3486.55
3487.48
3489.73
3493.3
3498.21
3504.47
3512.11
3521.15
3531.61
3543.53
3556.92
3571.81
3588.24
3606.22
3625.79
3646.96
3669.75
3694.14
3720.09
3747.52
3776.33
3806.35
3837.42
3869.28
3901.65
3934.25
3966.75
3998.77
4029.92
4059.78
4087.91
4113.86
4137.21
4157.55
4174.51
4187.77
4197.05
4202.17
4202.92
4199.37
4191.53
4179.45
4163.36
4143.52
4120.26
4093.98
4065.1
4034.07
4001.39
3967.52
3932.96
3898.16
3863.54
3829.49
3796.35
3764.41
3733.89
3704.97
3677.8
3652.46
3629.02
3607.49
3587.88
3570.15
3554.24
3540.11
3527.67
3516.85
3507.59
3499.83
3493.52
3488.6
3485.06
3482.85
3481.95
3482.38
3484.07
3487.04
3491.28
3496.81
3503.64
3511.78
3521.26
3532.09
3544.32
3557.96
3573.05
3589.62
3607.7
3627.29
3648.41
3671.05
3695.16
3720.7
3747.6
3775.74
3804.97
3835.12
3866.18
3897.81
3929.48
3960.89
3991.64
4021.34
4049.59
4075.96
4100.02
4121.37
4139.62
4154.4
4165.43
4172.46
4175.32
4173.84
4168.02
4157.96
4143.79
4125.83
4104.45
4080.03
4053
4023.82
3992.97
3960.94
3928.17
3895.09
3862.11
3829.74
3802.91
3773.02
3744.16
3716.71
3690.8
3666.5
3643.82
3622.74
3603.22
3585.22
3568.67
3553.5
3539.66
3527.11
3515.8
3505.72
3496.87
3489.25
3482.92
3477.89
3474.24
3472.03
3471.37
3472.38
3475.07
3479.5
3485.71
3493.74
3503.61
3515.33
3528.91
3544.33
3561.57
3580.57
3601.25
3623.54
3647.3
3672.43
3698.79
3726.18
3754.33
3782.69
3810.33
3839.23
3868.12
3896.67
3924.63
3951.58
3977.19
3933.37
3902.67
3870.85
3838.26
3805.34
3772.4
3739.94
3709.08
3678.5
3648.4
3619.42
3591.81
3565.72
3541.26
3518.47
3497.39
3478.02
3460.35
3444.34
3429.97
3417.17
3405.92
3396.16
3387.85
3380.96
3375.44
3371.27
3368.48
3367.05
3366.98
3368.27
3370.95
3375.07
3380.66
3387.77
3396.46
3406.75
3418.72
3432.39
3447.82
3465.02
3484.03
3504.84
3527.45
3551.83
3577.89
3605.57
3634.77
3665.34
3695.38
3727.84
3760.9
3794.3
3827.73
3860.84
3893.32
3924.8
3954.94
3983.38
4009.8
4033.88
4055.32
4073.86
4089.27
4101.37
4109.98
4115.02
4116.34
4113.98
4107.94
4098.23
4085.01
4068.46
4048.76
4026.17
4000.99
3973.52
3944.13
3913.16
3880.98
3847.98
3814.51
3780.93
3747.6
3714.85
3682.85
3651.87
3622.14
3593.84
3567.14
3542.16
3518.99
3497.7
3478.32
3460.87
3445.36
3431.75
3420.01
3410.08
3401.9
3395.4
3390.5
3387.12
3385.22
3384.75
3385.63
3387.86
3391.41
3396.28
3402.47
3410
3418.88
3429.13
3440.78
3453.86
3468.38
3484.38
3501.86
3520.85
3541.35
3563.35
3586.84
3611.78
3638.11
3665.78
3694.7
3724.75
3755.7
3787.37
3819.53
3851.9
3884.17
3915.98
3946.95
3976.69
4004.78
4030.82
4054.4
4075.14
4092.7
4106.77
4117.1
4123.48
4125.72
4123.84
4117.81
4107.66
4093.53
4075.62
4054.18
4029.52
4002.01
3972.06
3940.11
3906.62
3872.07
3836.92
3801.62
3766.61
3732.27
3698.9
3666.81
3636.2
3607.27
3580.14
3554.87
3531.53
3510.12
3490.62
3473.01
3457.24
3443.26
3431.01
3420.42
3411.44
3404.01
3398.06
3393.56
3390.45
3388.72
3388.34
3389.27
3391.52
3395.09
3400
3406.26
3413.89
3422.93
3433.39
3445.3
3458.69
3473.58
3490
3507.98
3527.54
3548.71
3571.5
3595.89
3621.84
3649.28
3678.09
3708.13
3739.22
3771.09
3803.49
3836.11
3868.64
3900.69
3931.88
3961.78
3989.94
4015.94
4039.33
4059.7
4076.69
4089.97
4099.27
4104.4
4105.17
4101.6
4093.75
4081.65
4065.53
4045.66
4022.37
3996.04
3967.12
3936.05
3903.32
3869.42
3834.82
3799.99
3765.34
3731.27
3698.11
3666.15
3635.62
3606.7
3579.53
3554.19
3530.75
3509.22
3489.62
3471.89
3455.99
3441.87
3429.44
3418.63
3409.37
3401.61
3395.3
3390.39
3386.86
3384.64
3383.75
3384.18
3385.87
3388.83
3393.08
3398.61
3405.44
3413.58
3423.05
3433.88
3446.1
3459.74
3474.83
3491.39
3509.47
3529.06
3550.17
3572.81
3596.92
3622.47
3649.37
3677.51
3706.76
3736.92
3767.99
3799.64
3831.35
3862.79
3893.57
3923.3
3951.59
3978
4002.1
4023.49
4041.77
4056.58
4067.64
4074.68
4077.55
4076.09
4070.24
4060.16
4045.97
4027.98
4006.57
3982.1
3955.03
3925.81
3894.92
3862.85
3830.05
3796.93
3763.92
3731.48
3704.74
3674.78
3645.91
3618.46
3592.55
3568.25
3545.57
3524.5
3504.99
3486.99
3470.45
3455.29
3441.45
3428.9
3417.6
3407.52
3398.67
3391.05
3384.71
3379.69
3376.02
3373.81
3373.14
3374.15
3376.84
3381.26
3387.47
3395.49
3405.36
3417.08
3430.66
3446.08
3463.32
3482.32
3503.01
3525.3
3549.07
3574.21
3600.58
3627.97
3656.15
3684.51
3712.18
3741.1
3770.01
3798.59
3826.57
3853.55
3879.17
3835.4
3804.64
3772.77
3740.14
3707.16
3674.19
3641.69
3610.82
3580.21
3550.09
3521.1
3493.48
3467.39
3442.93
3420.14
3399.06
3379.7
3362.04
3346.04
3331.67
3318.89
3307.64
3297.89
3289.58
3282.69
3277.18
3273.01
3270.22
3268.79
3268.71
3270
3272.68
3276.8
3282.38
3289.49
3298.16
3308.45
3320.4
3334.07
3349.49
3366.69
3385.69
3406.5
3429.11
3453.49
3479.55
3507.24
3536.45
3567.02
3597.14
3629.61
3662.69
3696.13
3729.59
3762.74
3795.26
3826.8
3856.98
3885.47
3911.93
3936.05
3957.54
3976.11
3991.55
4003.67
4012.3
4017.35
4018.68
4016.3
4010.26
4000.53
3987.28
3970.7
3950.96
3928.33
3903.1
3875.59
3846.15
3815.13
3782.9
3749.85
3716.34
3682.73
3649.36
3616.59
3584.57
3553.57
3523.82
3495.51
3468.8
3443.81
3420.64
3399.35
3379.97
3362.53
3347.02
3333.42
3321.69
3311.77
3303.6
3297.11
3292.22
3288.84
3286.95
3286.48
3287.37
3289.6
3293.15
3298.02
3304.21
3311.73
3320.61
3330.86
3342.5
3355.57
3370.09
3386.08
3403.56
3422.55
3443.05
3465.05
3488.53
3513.47
3539.81
3567.49
3596.41
3626.48
3657.45
3689.14
3721.34
3753.75
3786.05
3817.91
3848.93
3878.72
3906.87
3932.96
3956.59
3977.39
3994.99
4009.1
4019.46
4025.85
4028.12
4026.22
4020.18
4010.01
3995.85
3977.9
3956.41
3931.7
3904.13
3874.12
3842.11
3808.56
3773.95
3738.74
3703.4
3668.35
3633.97
3600.58
3568.46
3537.85
3508.91
3481.77
3456.51
3433.17
3411.76
3392.28
3374.68
3358.92
3344.95
3332.7
3322.12
3313.15
3305.72
3299.79
3295.29
3292.19
3290.46
3290.08
3291.01
3293.26
3296.83
3301.73
3307.99
3315.62
3324.65
3335.11
3347.02
3360.4
3375.28
3391.7
3409.67
3429.23
3450.39
3473.17
3497.56
3523.52
3550.97
3579.79
3609.85
3640.96
3672.86
3705.29
3737.96
3770.53
3802.63
3833.87
3863.82
3892.05
3918.1
3941.55
3961.97
3979.01
3992.33
4001.66
4006.8
4007.58
4004
3996.13
3984.01
3967.85
3947.92
3924.58
3898.19
3869.2
3838.07
3805.28
3771.32
3736.67
3701.78
3667.09
3632.99
3599.8
3567.82
3537.28
3508.35
3481.17
3455.83
3432.39
3410.87
3391.27
3373.56
3357.67
3343.56
3331.13
3320.33
3311.09
3303.34
3297.03
3292.13
3288.59
3286.38
3285.5
3285.92
3287.61
3290.58
3294.82
3300.35
3307.18
3315.31
3324.78
3335.61
3347.83
3361.46
3376.54
3393.1
3411.17
3430.76
3451.87
3474.5
3498.62
3524.17
3551.08
3579.23
3608.49
3638.67
3669.77
3701.45
3733.19
3764.68
3795.51
3825.29
3853.64
3880.11
3904.26
3925.71
3944.04
3958.9
3970
3977.07
3979.95
3978.51
3972.62
3962.52
3948.29
3930.26
3908.78
3884.26
3857.12
3827.84
3796.89
3764.76
3731.91
3698.75
3665.68
3633.15
3606.52
3576.48
3547.59
3520.12
3494.21
3469.92
3447.25
3426.19
3406.69
3388.7
3372.17
3357.02
3343.19
3330.65
3319.35
3309.27
3300.42
3292.8
3286.46
3281.42
3277.75
3275.54
3274.85
3275.85
3278.53
3282.95
3289.16
3297.17
3307.03
3318.75
3332.33
3347.75
3364.99
3383.99
3404.69
3426.99
3450.77
3475.92
3502.3
3529.72
3557.91
3586.31
3614
3642.95
3671.89
3700.5
3728.53
3755.54
3781.21
3737.46
3706.63
3674.69
3641.99
3608.96
3575.93
3543.38
3512.51
3481.85
3451.72
3422.7
3395.07
3368.98
3344.51
3321.73
3300.66
3281.31
3263.65
3247.66
3233.3
3220.53
3209.3
3199.55
3191.26
3184.37
3178.86
3174.7
3171.92
3170.48
3170.4
3171.68
3174.35
3178.46
3184.04
3191.13
3199.8
3210.08
3222.02
3235.68
3251.09
3268.28
3287.27
3308.08
3330.69
3355.07
3381.14
3408.84
3438.05
3468.63
3498.85
3531.34
3564.45
3597.93
3631.44
3664.65
3697.23
3728.82
3759.06
3787.62
3814.14
3838.32
3859.85
3878.48
3893.95
3906.11
3914.77
3919.82
3921.17
3918.78
3912.71
3902.96
3889.68
3873.05
3853.26
3830.57
3805.28
3777.71
3748.2
3717.11
3684.83
3651.72
3618.15
3584.49
3551.08
3518.27
3486.23
3455.2
3425.42
3397.1
3370.38
3345.39
3322.21
3300.92
3281.54
3264.1
3248.6
3235.01
3223.29
3213.39
3205.23
3198.75
3193.87
3190.51
3188.63
3188.16
3189.05
3191.28
3194.84
3199.7
3205.89
3213.41
3222.28
3232.52
3244.16
3257.22
3271.73
3287.72
3305.2
3324.18
3344.67
3366.67
3390.15
3415.09
3441.44
3469.13
3498.07
3528.15
3559.15
3590.88
3623.11
3655.57
3687.93
3719.85
3750.94
3780.8
3809.02
3835.19
3858.89
3879.75
3897.41
3911.57
3921.97
3928.39
3930.68
3928.76
3922.71
3912.51
3898.31
3880.3
3858.75
3833.97
3806.32
3776.23
3744.14
3710.51
3675.82
3640.55
3605.14
3570.03
3535.61
3502.19
3470.04
3439.41
3410.46
3383.32
3358.06
3334.73
3313.33
3293.85
3276.26
3260.52
3246.56
3234.33
3223.76
3214.8
3207.38
3201.45
3196.97
3193.87
3192.15
3191.77
3192.7
3194.95
3198.51
3203.41
3209.66
3217.29
3226.32
3236.77
3248.67
3262.05
3276.92
3293.33
3311.29
3330.84
3352
3374.78
3399.17
3425.13
3452.59
3481.43
3511.51
3542.64
3574.58
3607.06
3639.78
3672.41
3704.58
3735.89
3765.92
3794.22
3820.35
3843.87
3864.37
3881.47
3894.84
3904.2
3909.37
3910.17
3906.58
3898.68
3886.51
3870.3
3850.31
3826.89
3800.42
3771.35
3740.13
3707.26
3673.22
3638.5
3603.54
3568.8
3534.65
3501.43
3469.42
3438.85
3409.91
3382.72
3357.38
3333.95
3312.44
3292.85
3275.14
3259.28
3245.17
3232.77
3221.98
3212.75
3205
3198.71
3193.81
3190.28
3188.07
3187.2
3187.62
3189.31
3192.27
3196.52
3202.05
3208.87
3217
3226.46
3237.28
3249.49
3263.12
3278.19
3294.74
3312.81
3332.39
3353.49
3376.13
3400.25
3425.8
3452.72
3480.89
3510.16
3540.38
3571.5
3603.23
3635.02
3666.56
3697.46
3727.31
3755.74
3782.28
3806.52
3828.04
3846.44
3861.36
3872.51
3879.62
3882.52
3881.1
3875.18
3865.04
3850.76
3832.66
3811.11
3786.5
3759.28
3729.92
3698.88
3666.68
3633.76
3600.54
3567.41
3534.75
3508.24
3478.1
3449.18
3421.71
3395.81
3371.52
3348.86
3327.81
3308.33
3290.35
3273.83
3258.69
3244.88
3232.34
3221.04
3210.97
3202.12
3194.5
3188.15
3183.11
3179.43
3177.2
3176.5
3177.49
3180.16
3184.57
3190.77
3198.78
3208.63
3220.35
3233.92
3249.34
3266.59
3285.59
3306.3
3328.6
3352.4
3377.57
3403.97
3431.41
3459.63
3488.06
3515.79
3544.78
3573.77
3602.43
3630.5
3657.57
3683.28
3639.56
3608.64
3576.62
3543.84
3510.74
3477.64
3445.04
3414.13
3383.43
3353.27
3324.23
3296.59
3270.49
3246.02
3223.25
3202.19
3182.84
3165.2
3149.22
3134.87
3122.12
3110.89
3101.16
3092.88
3086
3080.49
3076.34
3073.55
3072.11
3072.02
3073.3
3075.97
3080.07
3085.63
3092.72
3101.37
3111.64
3123.57
3137.22
3152.61
3169.79
3188.78
3209.58
3232.19
3256.57
3282.65
3310.36
3339.58
3370.17
3400.51
3433.01
3466.17
3499.7
3533.28
3566.55
3599.21
3630.88
3661.2
3689.83
3716.43
3740.68
3762.28
3780.96
3796.49
3808.68
3817.37
3822.44
3823.8
3821.4
3815.31
3805.52
3792.2
3775.51
3755.66
3732.9
3707.54
3679.88
3650.29
3619.12
3586.76
3553.58
3519.94
3486.22
3452.76
3419.9
3387.82
3356.76
3326.96
3298.62
3271.88
3246.88
3223.7
3202.4
3183.03
3165.6
3150.11
3136.53
3124.82
3114.93
3106.79
3100.33
3095.46
3092.12
3090.25
3089.79
3090.69
3092.92
3096.47
3101.34
3107.52
3115.04
3123.9
3134.13
3145.76
3158.82
3173.32
3189.29
3206.76
3225.74
3246.23
3268.22
3291.71
3316.65
3343
3370.7
3399.66
3429.77
3460.8
3492.57
3524.86
3557.38
3589.81
3621.8
3652.98
3682.93
3711.24
3737.49
3761.29
3782.23
3799.97
3814.19
3824.63
3831.08
3833.39
3831.48
3825.41
3815.17
3800.91
3782.84
3761.2
3736.33
3708.59
3678.4
3646.2
3612.47
3577.69
3542.33
3506.85
3471.66
3437.19
3403.72
3371.54
3340.89
3311.93
3284.78
3259.52
3236.2
3214.81
3195.35
3177.77
3162.04
3148.1
3135.88
3125.33
3116.39
3108.98
3103.06
3098.59
3095.5
3093.78
3093.4
3094.34
3096.58
3100.15
3105.04
3111.29
3118.91
3127.93
3138.37
3150.26
3163.63
3178.49
3194.89
3212.84
3232.38
3253.53
3276.31
3300.7
3326.66
3354.13
3383
3413.11
3444.28
3476.27
3508.8
3541.58
3574.29
3606.54
3637.94
3668.06
3696.46
3722.69
3746.31
3766.89
3784.07
3797.5
3806.92
3812.11
3812.93
3809.33
3801.39
3789.17
3772.89
3752.82
3729.3
3702.74
3673.56
3642.24
3609.26
3575.12
3540.3
3505.27
3470.45
3436.24
3402.98
3370.94
3340.35
3311.39
3284.19
3258.85
3235.42
3213.92
3194.34
3176.66
3160.81
3146.72
3134.33
3123.56
3114.34
3106.61
3100.32
3095.44
3091.91
3089.71
3088.84
3089.26
3090.95
3093.92
3098.16
3103.69
3110.5
3118.63
3128.08
3138.9
3151.1
3164.71
3179.78
3196.32
3214.38
3233.95
3255.05
3277.68
3301.81
3327.37
3354.3
3382.48
3411.78
3442.03
3473.19
3504.97
3536.84
3568.45
3599.42
3629.37
3657.88
3684.52
3708.86
3730.47
3748.96
3763.96
3775.17
3782.33
3785.25
3783.84
3777.9
3767.71
3753.37
3735.19
3713.54
3688.83
3661.5
3632.03
3600.9
3568.6
3535.59
3502.3
3469.09
3436.3
3409.89
3379.65
3350.7
3323.22
3297.32
3273.04
3250.39
3229.36
3209.89
3191.94
3175.43
3160.31
3146.51
3133.98
3122.69
3112.62
3103.77
3096.14
3089.78
3084.73
3081.05
3078.8
3078.08
3079.06
3081.73
3086.12
3092.31
3100.31
3110.16
3121.87
3135.44
3150.86
3168.1
3187.12
3207.83
3230.15
3253.97
3279.16
3305.58
3333.05
3361.31
3389.78
3417.55
3446.6
3475.64
3504.36
3532.5
3559.62
3585.4
3541.7
3510.68
3478.56
3445.68
3412.48
3379.3
3346.64
3315.7
3284.95
3254.75
3225.69
3198.03
3171.92
3147.46
3124.69
3103.63
3084.3
3066.67
3050.71
3036.38
3023.64
3012.43
3002.71
2994.44
2987.57
2982.07
2977.93
2975.14
2973.69
2973.6
2974.87
2977.53
2981.62
2987.17
2994.24
3002.88
3013.13
3025.05
3038.68
3054.06
3071.23
3090.2
3111
3133.61
3157.99
3184.08
3211.8
3241.04
3271.63
3302.11
3334.65
3367.85
3401.45
3435.1
3468.46
3501.2
3532.96
3563.38
3592.1
3618.79
3643.12
3664.8
3683.55
3699.14
3711.39
3720.11
3725.2
3726.57
3724.16
3718.04
3708.22
3694.85
3678.09
3658.16
3635.32
3609.86
3582.11
3552.42
3521.16
3488.7
3455.43
3421.71
3387.91
3354.38
3321.48
3289.35
3258.25
3228.42
3200.05
3173.3
3148.29
3125.1
3103.81
3084.44
3067.01
3051.53
3037.97
3026.28
3016.41
3008.29
3001.85
2997
2993.67
2991.81
2991.36
2992.27
2994.5
2998.05
3002.92
3009.1
3016.61
3025.46
3035.68
3047.3
3060.35
3074.84
3090.81
3108.27
3127.24
3147.72
3169.71
3193.19
3218.14
3244.5
3272.21
3301.18
3331.34
3362.4
3394.23
3426.57
3459.16
3491.68
3523.77
3555.04
3585.1
3613.52
3639.89
3663.79
3684.83
3702.66
3716.95
3727.45
3733.94
3736.27
3734.36
3728.26
3717.98
3703.66
3685.5
3663.77
3638.79
3610.93
3580.62
3548.3
3514.45
3479.55
3444.08
3408.51
3373.24
3338.71
3305.18
3272.96
3242.28
3213.31
3186.15
3160.9
3137.58
3116.21
3096.76
3079.2
3063.49
3049.57
3037.37
3026.84
3017.91
3010.52
3004.62
3000.15
2997.07
2995.36
2994.98
2995.92
2998.17
3001.73
3006.62
3012.85
3020.47
3029.48
3039.91
3051.79
3065.15
3080
3096.39
3114.33
3133.85
3155
3177.76
3202.15
3228.13
3255.61
3284.5
3314.65
3345.86
3377.91
3410.51
3443.37
3476.16
3508.51
3540.02
3570.25
3598.77
3625.12
3648.85
3669.54
3686.81
3700.32
3709.79
3715.02
3715.85
3712.24
3704.26
3691.99
3675.62
3655.45
3631.82
3605.13
3575.83
3544.38
3511.28
3477.02
3442.09
3406.96
3372.06
3337.78
3304.46
3272.38
3241.76
3212.78
3185.58
3160.24
3136.81
3115.32
3095.76
3078.09
3062.26
3048.2
3035.83
3025.08
3015.88
3008.16
3001.89
2997.01
2993.49
2991.3
2990.43
2990.86
2992.55
2995.52
2999.76
3005.28
3012.09
3020.21
3029.66
3040.46
3052.65
3066.25
3081.3
3097.84
3115.88
3135.45
3156.54
3179.17
3203.3
3228.87
3255.81
3284.02
3313.34
3343.63
3374.84
3406.69
3438.63
3470.32
3501.39
3531.45
3560.07
3586.83
3611.29
3633.01
3651.61
3666.71
3677.99
3685.2
3688.16
3686.76
3680.79
3670.54
3656.12
3637.84
3616.08
3591.24
3563.79
3534.19
3502.93
3470.52
3437.41
3404.03
3370.73
3337.83
3311.45
3281.12
3252.14
3224.66
3198.75
3174.48
3151.85
3130.83
3111.39
3093.46
3076.98
3061.87
3048.09
3035.57
3024.29
3014.22
3005.37
2997.74
2991.37
2986.31
2982.61
2980.35
2979.6
2980.57
2983.23
2987.61
2993.78
3001.77
3011.61
3023.31
3036.88
3052.3
3069.55
3088.57
3109.29
3131.63
3155.46
3180.68
3207.13
3234.64
3262.94
3291.47
3319.29
3348.4
3377.51
3406.3
3434.51
3461.71
3487.56
3443.88
3412.74
3380.5
3347.51
3314.2
3280.93
3248.2
3217.21
3186.4
3156.17
3127.07
3099.39
3073.27
3048.81
3026.04
3005
2985.69
2968.07
2952.13
2937.82
2925.09
2913.9
2904.2
2895.94
2889.08
2883.6
2879.46
2876.67
2875.21
2875.12
2876.39
2879.04
2883.11
2888.65
2895.7
2904.32
2914.55
2926.45
2940.07
2955.43
2972.59
2991.55
3012.33
3034.94
3059.33
3085.43
3113.16
3142.42
3173.03
3203.66
3236.23
3269.5
3303.17
3336.91
3370.36
3403.21
3435.08
3465.6
3494.43
3521.23
3545.66
3567.44
3586.27
3601.93
3614.23
3622.99
3628.11
3629.49
3627.07
3620.92
3611.05
3597.62
3580.79
3560.77
3537.82
3512.25
3484.39
3454.58
3423.21
3390.65
3357.27
3323.46
3289.57
3255.96
3223.01
3190.82
3159.67
3129.8
3101.41
3074.64
3049.62
3026.42
3005.13
2985.76
2968.35
2952.88
2939.33
2927.66
2917.82
2909.72
2903.3
2898.47
2895.16
2893.32
2892.88
2893.79
2896.03
2899.58
2904.45
2910.62
2918.12
2926.97
2937.18
2948.79
2961.82
2976.3
2992.25
3009.7
3028.66
3049.14
3071.13
3094.61
3119.56
3145.93
3173.65
3202.65
3232.85
3263.96
3295.84
3328.26
3360.93
3393.55
3425.74
3457.14
3487.32
3515.87
3542.36
3566.38
3587.54
3605.47
3619.86
3630.42
3636.96
3639.31
3637.41
3631.27
3620.94
3606.54
3588.29
3566.45
3541.34
3513.35
3482.9
3450.43
3416.44
3381.41
3345.81
3310.13
3274.76
3240.16
3206.56
3174.3
3143.59
3114.6
3087.44
3062.18
3038.88
3017.52
2998.09
2980.56
2964.87
2950.97
2938.8
2928.29
2919.37
2912
2906.11
2901.66
2898.6
2896.89
2896.52
2897.45
2899.7
2903.25
2908.14
2914.37
2921.97
2930.97
2941.39
2953.26
2966.61
2981.45
2997.82
3015.74
3035.26
3056.39
3079.15
3103.53
3129.52
3157.02
3185.94
3216.12
3247.39
3279.5
3312.18
3345.13
3378.03
3410.49
3442.13
3472.5
3501.15
3527.64
3551.5
3572.32
3589.7
3603.3
3612.84
3618.1
3618.95
3615.33
3607.3
3594.96
3578.5
3558.21
3534.45
3507.62
3478.16
3446.56
3413.32
3378.92
3343.87
3308.62
3273.62
3239.26
3205.87
3173.74
3143.09
3114.09
3086.88
3061.53
3038.11
3016.64
2997.09
2979.45
2963.64
2949.61
2937.27
2926.54
2917.36
2909.66
2903.39
2898.53
2895.02
2892.84
2891.98
2892.4
2894.1
2897.06
2901.3
2906.81
2913.62
2921.73
2931.17
2941.96
2954.14
2967.73
2982.77
2999.29
3017.32
3036.87
3057.96
3080.59
3104.72
3130.3
3157.26
3185.49
3214.85
3245.18
3276.45
3308.37
3340.4
3372.19
3403.38
3433.56
3462.32
3489.21
3513.8
3535.66
3554.38
3569.59
3580.96
3588.24
3591.23
3589.84
3583.85
3573.53
3559.01
3540.62
3518.72
3493.74
3466.14
3436.39
3404.99
3372.44
3339.22
3305.73
3272.34
3239.33
3212.92
3182.51
3153.5
3126.01
3100.11
3075.85
3053.24
3032.24
3012.83
2994.92
2978.46
2963.38
2949.61
2937.11
2925.84
2915.77
2906.92
2899.28
2892.91
2887.83
2884.11
2881.83
2881.06
2882.01
2884.66
2889.02
2895.18
2903.16
2912.99
2924.68
2938.24
2953.66
2970.91
2989.94
3010.68
3033.04
3056.89
3082.14
3108.63
3136.17
3164.53
3193.12
3220.99
3250.18
3279.37
3308.24
3336.54
3363.83
3389.77
3346.1
3314.83
3282.45
3249.33
3215.89
3182.51
3149.71
3118.66
3087.79
3057.51
3028.38
3000.68
2974.55
2950.08
2927.33
2906.3
2887
2869.4
2853.48
2839.19
2826.49
2815.32
2805.63
2797.39
2790.54
2785.07
2780.94
2778.15
2776.69
2776.59
2777.85
2780.48
2784.55
2790.06
2797.1
2805.7
2815.91
2827.79
2841.38
2856.73
2873.87
2892.82
2913.59
2936.2
2960.59
2986.7
3014.45
3043.74
3074.36
3105.16
3137.77
3171.1
3204.87
3238.71
3272.27
3305.23
3337.23
3367.87
3396.83
3423.75
3448.29
3470.17
3489.1
3504.84
3517.2
3526.02
3531.17
3532.55
3530.13
3523.94
3514.02
3500.52
3483.6
3463.47
3440.41
3414.72
3386.73
3356.79
3325.29
3292.6
3259.1
3225.18
3191.19
3157.49
3124.48
3092.23
3061.03
3031.12
3002.69
2975.9
2950.86
2927.66
2906.36
2887
2869.6
2854.14
2840.62
2828.97
2819.15
2811.08
2804.69
2799.88
2796.6
2794.77
2794.34
2795.27
2797.51
2801.06
2805.92
2812.09
2819.58
2828.41
2838.62
2850.21
2863.23
2877.69
2893.64
2911.07
2930.02
2950.49
2972.47
2995.96
3020.91
3047.29
3075.03
3104.05
3134.31
3165.46
3197.41
3229.91
3262.68
3295.4
3327.73
3359.26
3389.58
3418.28
3444.92
3469.08
3490.38
3508.43
3522.91
3533.56
3540.14
3542.52
3540.62
3534.45
3524.05
3509.57
3491.21
3469.24
3443.99
3415.84
3385.22
3352.6
3318.44
3283.25
3247.52
3211.7
3176.23
3141.54
3107.87
3075.56
3044.81
3015.8
2988.63
2963.38
2940.09
2918.75
2899.34
2881.83
2866.17
2852.3
2840.15
2829.66
2820.77
2813.42
2807.55
2803.11
2800.06
2798.37
2798
2798.93
2801.18
2804.73
2809.6
2815.82
2823.41
2832.4
2842.81
2854.67
2868
2882.83
2899.18
2917.09
2936.59
2957.7
2980.45
3004.84
3030.83
3058.35
3087.31
3117.54
3148.86
3181.05
3213.82
3246.88
3279.89
3312.49
3344.26
3374.79
3403.6
3430.25
3454.27
3475.22
3492.73
3506.43
3516.04
3521.36
3522.23
3518.59
3510.51
3498.08
3481.51
3461.09
3437.18
3410.18
3380.56
3348.79
3315.37
3280.82
3245.62
3210.24
3175.13
3140.67
3107.21
3075.03
3044.34
3015.31
2988.09
2962.74
2939.33
2917.87
2898.35
2880.73
2864.95
2850.95
2838.64
2827.94
2818.78
2811.09
2804.85
2799.99
2796.49
2794.33
2793.47
2793.9
2795.59
2798.55
2802.79
2808.3
2815.1
2823.2
2832.63
2843.41
2855.57
2869.14
2884.17
2900.67
2918.69
2938.23
2959.32
2981.94
3006.07
3031.66
3058.64
3086.9
3116.3
3146.67
3178.02
3210.03
3242.15
3274.06
3305.37
3335.69
3364.6
3391.66
3416.41
3438.42
3457.28
3472.62
3484.09
3491.44
3494.48
3493.09
3487.07
3476.67
3462.05
3443.52
3421.48
3396.33
3368.55
3338.63
3307.06
3274.37
3241.01
3207.4
3173.91
3140.79
3114.29
3083.82
3054.78
3027.28
3001.39
2977.14
2954.55
2933.58
2914.19
2896.32
2879.89
2864.83
2851.09
2838.6
2827.34
2817.28
2808.42
2800.78
2794.39
2789.3
2785.56
2783.26
2782.46
2783.39
2786.02
2790.36
2796.51
2804.47
2814.28
2825.97
2839.52
2854.94
2872.2
2891.24
2912
2934.37
2958.26
2983.53
3010.06
3037.65
3066.06
3094.73
3122.67
3151.94
3181.22
3210.19
3238.59
3265.98
3292.02
3248.36
3216.93
3184.4
3151.13
3117.56
3084.05
3051.16
3020.04
2989.11
2958.78
2929.61
2901.88
2875.74
2851.28
2828.53
2807.51
2788.23
2770.66
2754.76
2740.5
2727.82
2716.67
2707.01
2698.78
2691.95
2686.49
2682.36
2679.57
2678.11
2678
2679.25
2681.88
2685.92
2691.42
2698.43
2707.01
2717.2
2729.05
2742.62
2757.95
2775.07
2794
2814.77
2837.37
2861.77
2887.89
2915.66
2944.97
2975.63
3006.59
3039.26
3072.67
3106.53
3140.49
3174.17
3207.27
3239.4
3270.19
3299.29
3326.34
3351.02
3373.02
3392.05
3407.88
3420.32
3429.19
3434.37
3435.76
3433.33
3427.1
3417.13
3403.54
3386.52
3366.28
3343.09
3317.25
3289.11
3259.03
3227.38
3194.55
3160.92
3126.87
3092.77
3058.96
3025.9
2993.58
2962.31
2932.35
2903.89
2877.08
2852.02
2828.82
2807.52
2788.16
2770.77
2755.33
2741.83
2730.21
2720.42
2712.38
2706.01
2701.24
2697.98
2696.17
2695.76
2696.69
2698.94
2702.49
2707.34
2713.5
2720.99
2729.81
2740
2751.58
2764.58
2779.03
2794.95
2812.38
2831.32
2851.78
2873.75
2897.23
2922.19
2948.58
2976.34
3005.38
3035.7
3066.91
3098.93
3131.52
3164.41
3197.26
3229.72
3261.4
3291.89
3320.75
3347.56
3371.89
3393.33
3411.51
3426.11
3436.84
3443.49
3445.9
3443.99
3437.79
3427.33
3412.75
3394.26
3372.15
3346.74
3318.41
3287.61
3254.79
3220.45
3185.09
3149.2
3113.24
3077.65
3042.85
3009.11
2976.73
2945.95
2916.91
2889.74
2864.49
2841.21
2819.89
2800.51
2783.03
2767.4
2753.56
2741.44
2730.98
2722.11
2714.79
2708.93
2704.51
2701.48
2699.79
2699.42
2700.36
2702.61
2706.15
2711.02
2717.23
2724.8
2733.78
2744.17
2756.02
2769.33
2784.14
2800.47
2818.37
2837.84
2858.94
2881.69
2906.07
2932.07
2959.62
2988.61
3018.89
3050.28
3082.56
3115.43
3148.6
3181.75
3214.49
3246.43
3277.13
3306.12
3332.94
3357.13
3378.25
3395.9
3409.72
3419.42
3424.79
3425.68
3422.03
3413.89
3401.36
3384.67
3364.1
3340.01
3312.83
3283.02
3251.05
3217.45
3182.72
3147.35
3111.82
3076.58
3042.02
3008.48
2976.23
2945.5
2916.45
2889.21
2863.86
2840.46
2819.02
2799.52
2781.93
2766.19
2752.22
2739.94
2729.27
2720.13
2712.47
2706.24
2701.4
2697.92
2695.76
2694.91
2695.34
2697.04
2700
2704.23
2709.74
2716.53
2724.62
2734.03
2744.8
2756.94
2770.5
2785.51
2801.99
2819.99
2839.52
2860.6
2883.22
2907.36
2932.96
2959.96
2988.24
3017.68
3048.11
3079.54
3111.65
3143.89
3175.92
3207.38
3237.86
3266.94
3294.17
3319.1
3341.29
3360.31
3375.78
3387.38
3394.81
3397.9
3396.52
3390.46
3379.98
3365.24
3346.56
3324.33
3299
3271.03
3240.92
3209.16
3176.3
3142.78
3109.04
3075.44
3042.23
3015.57
2985.04
2955.98
2928.47
2902.58
2878.35
2855.79
2834.85
2815.49
2797.65
2781.25
2766.23
2752.51
2740.04
2728.79
2718.73
2709.87
2702.22
2695.82
2690.71
2686.95
2684.62
2683.79
2684.7
2687.31
2691.64
2697.76
2705.71
2715.51
2727.18
2740.73
2756.15
2773.41
2792.47
2813.24
2835.64
2859.55
2884.87
2911.44
2939.08
2967.56
2996.3
3024.32
3053.69
3083.07
3112.14
3140.65
3168.16
3194.31
3150.66
3119.06
3086.36
3052.92
3019.19
2985.54
2952.56
2921.38
2890.38
2859.98
2830.76
2803.01
2776.86
2752.39
2729.65
2708.66
2689.4
2671.85
2655.98
2641.74
2629.09
2617.97
2608.33
2600.12
2593.3
2587.85
2583.73
2580.94
2579.48
2579.37
2580.61
2583.21
2587.24
2592.71
2599.7
2608.26
2618.42
2630.24
2643.79
2659.09
2676.19
2695.11
2715.86
2738.46
2762.86
2789
2816.8
2846.14
2876.83
2907.96
2940.69
2974.2
3008.17
3042.25
3076.08
3109.32
3141.61
3172.55
3201.81
3229.01
3253.83
3275.96
3295.12
3311.05
3323.57
3332.5
3337.71
3339.12
3336.68
3330.41
3320.37
3306.69
3289.56
3269.19
3245.85
3219.86
3191.56
3161.31
3129.5
3096.51
3062.73
3028.55
2994.31
2960.39
2927.27
2894.86
2863.52
2833.51
2805.01
2778.17
2753.1
2729.89
2708.58
2689.24
2671.85
2656.44
2642.96
2631.37
2621.61
2613.61
2607.27
2602.53
2599.3
2597.51
2597.11
2598.06
2600.31
2603.86
2608.72
2614.87
2622.34
2631.15
2641.32
2652.88
2665.86
2680.3
2696.21
2713.62
2732.54
2752.99
2774.96
2798.44
2823.4
2849.81
2877.59
2906.65
2937.05
2968.31
3000.41
3033.11
3066.11
3099.1
3131.72