/*--------------------------------*- C++ -*----------------------------------*\
| =========                 |                                                 |
| \\      /  F ield         | OpenFOAM: The Open Source CFD Toolbox           |
|  \\    /   O peration     | Version:  3.0.1                                 |
|   \\  /    A nd           | Web:      www.OpenFOAM.org                      |
|    \\/     M anipulation  |                                                 |
\*---------------------------------------------------------------------------*/
FoamFile
{
    version     2.0;
    format      ascii;
    class       surfaceScalarField;
    location    "22.2";
    object      phi;
}
// * * * * * * * * * * * * * * * * * * * * * * * * * * * * * * * * * * * * * //

dimensions      [0 3 -1 0 0 0 0];

internalField   nonuniform List<scalar> 
42423
(
-3.31673e-05
1.66649e-05
-4.89659e-05
1.57986e-05
-6.39883e-05
1.50224e-05
-7.8144e-05
1.41557e-05
-9.13262e-05
1.31822e-05
-0.000103578
1.22518e-05
-0.000114836
1.12582e-05
-0.000125161
1.03247e-05
-0.000134552
9.3911e-06
-0.000143007
8.45509e-06
-0.000150569
7.56177e-06
-0.000157257
6.68828e-06
-0.000163095
5.83834e-06
-0.000168137
5.0413e-06
-0.000172394
4.25716e-06
-0.000175907
3.51294e-06
-0.000178698
2.79118e-06
-0.000180768
2.06989e-06
-0.000182129
1.36139e-06
-0.000182847
7.1807e-07
-0.00018284
-6.96493e-09
-0.000182084
-7.56191e-07
-0.000180658
-1.42657e-06
-0.000178481
-2.17626e-06
-0.000175605
-2.87616e-06
-0.000171906
-3.69949e-06
-0.000167435
-4.47106e-06
-0.000162263
-5.17182e-06
-0.000156164
-6.09883e-06
-0.000149224
-6.93981e-06
-0.000141371
-7.85357e-06
-0.000132506
-8.86459e-06
-0.00012278
-9.72594e-06
-0.000111987
-1.07934e-05
-0.000100198
-1.17891e-05
-8.75139e-05
-1.26838e-05
-7.37434e-05
-1.37705e-05
-5.90314e-05
-1.4712e-05
-4.3444e-05
-1.55874e-05
-2.69419e-05
-1.65021e-05
-9.68492e-06
-1.7257e-05
8.32485e-06
-1.80098e-05
2.68902e-05
-1.85653e-05
4.56546e-05
-1.87645e-05
6.4687e-05
-1.90324e-05
8.3709e-05
-1.9022e-05
0.000102342
-1.86327e-05
0.000120484
-1.81425e-05
0.000137873
-1.73886e-05
0.00015411
-1.62376e-05
0.000169147
-1.50365e-05
0.000182555
-1.34083e-05
0.000194266
-1.17109e-05
0.000204055
-9.78937e-06
0.000211621
-7.56542e-06
0.000216944
-5.32348e-06
0.000219924
-2.97951e-06
0.00022044
-5.15907e-07
0.000218521
1.91834e-06
0.000214223
4.29802e-06
0.000207699
6.52394e-06
0.000199084
8.61545e-06
0.000188345
1.07392e-05
0.000175731
1.2613e-05
0.000161342
1.43894e-05
0.000145692
1.56498e-05
0.000128785
1.69074e-05
0.000111017
1.77679e-05
9.25147e-05
1.85022e-05
7.35228e-05
1.89919e-05
5.44319e-05
1.90909e-05
3.53361e-05
1.90958e-05
1.64089e-05
1.89272e-05
-1.99976e-06
1.84087e-05
-1.98647e-05
1.78649e-05
-3.70489e-05
1.71843e-05
-5.33717e-05
1.63228e-05
-6.88921e-05
1.55204e-05
-8.35034e-05
1.46113e-05
-9.71775e-05
1.36741e-05
-0.000109827
1.265e-05
-0.000121511
1.16839e-05
-0.000132292
1.07805e-05
-0.00014207
9.77812e-06
-0.000150765
8.69452e-06
-0.000158607
7.84283e-06
-0.000165564
6.9569e-06
-0.000171454
5.88952e-06
-0.000176436
4.9826e-06
-0.000180462
4.02537e-06
-0.000183596
3.13384e-06
-0.000185862
2.26618e-06
-0.000187205
1.34316e-06
-0.000187725
5.20495e-07
-0.000187407
-3.18629e-07
-0.000186283
-1.12415e-06
-0.000184516
-1.76705e-06
-0.000181953
-2.56302e-06
-0.000178669
-3.28331e-06
-0.000174928
-3.7413e-06
-0.000170476
-4.45188e-06
-0.000165197
-5.27914e-06
-0.000159337
-5.85984e-06
-0.000152695
-6.64193e-06
-0.000145285
-7.40979e-06
-0.000137108
-8.17794e-06
-0.000128096
-9.01117e-06
-0.000118265
-9.83143e-06
-0.000107602
-1.06628e-05
-9.60802e-05
-1.15221e-05
-8.37049e-05
-1.23753e-05
-7.04507e-05
-1.32543e-05
-5.63432e-05
-1.41075e-05
-4.15711e-05
-1.47722e-05
-2.59992e-05
-1.5572e-05
-9.7694e-06
-1.62298e-05
6.90859e-06
-1.6678e-05
2.40851e-05
-1.71765e-05
4.1546e-05
-1.7461e-05
5.91674e-05
-1.76214e-05
7.67975e-05
-1.76302e-05
9.42674e-05
-1.74699e-05
0.000111343
-1.70759e-05
0.000127782
-1.64387e-05
0.000143397
-1.56155e-05
0.000157885
-1.4488e-05
0.000171018
-1.31324e-05
0.00018255
-1.15326e-05
0.000192198
-9.64755e-06
0.000199767
-7.56944e-06
0.000205139
-5.37199e-06
0.000208148
-3.00839e-06
0.000208744
-5.96195e-07
0.000206882
1.86171e-06
0.000202458
4.42444e-06
0.000195687
6.77027e-06
0.000186631
9.05614e-06
0.000175476
1.11547e-05
0.00016241
1.3066e-05
0.000147633
1.47778e-05
0.000131429
1.62032e-05
0.000114068
1.73615e-05
9.58284e-05
1.82393e-05
7.70227e-05
1.88057e-05
5.78784e-05
1.91443e-05
3.87321e-05
1.91463e-05
1.98716e-05
1.88606e-05
1.40627e-06
1.84653e-05
-1.6448e-05
1.78542e-05
-3.3641e-05
1.7193e-05
-4.99095e-05
1.62685e-05
-6.5163e-05
1.52535e-05
-7.946e-05
1.42971e-05
-9.26451e-05
1.31851e-05
-0.0001048
1.21551e-05
-0.000115897
1.10971e-05
-0.000125965
1.00681e-05
-0.000135034
9.06847e-06
-0.000143236
8.20179e-06
-0.000150433
7.19704e-06
-0.000156844
6.41172e-06
-0.00016241
5.56565e-06
-0.000167171
4.76092e-06
-0.000171174
4.003e-06
-0.00017443
3.25548e-06
-0.00017702
2.59097e-06
-0.000178992
1.97188e-06
-0.000180205
1.21304e-06
-0.000180808
6.02474e-07
-0.00018081
2.32169e-09
-0.000180079
-7.30965e-07
-0.000178658
-1.42157e-06
-0.000176699
-1.95837e-06
-0.00017412
-2.57904e-06
-0.000170764
-3.35673e-06
-0.000166681
-4.08209e-06
-0.000161664
-5.01786e-06
-0.000156104
-5.55974e-06
-0.000149728
-6.37553e-06
-0.000142483
-7.24526e-06
-0.000134412
-8.07134e-06
-0.000125556
-8.85587e-06
-0.000115743
-9.813e-06
-0.000105096
-1.06468e-05
-9.34564e-05
-1.16398e-05
-8.09272e-05
-1.25292e-05
-6.74447e-05
-1.34825e-05
-5.30522e-05
-1.43925e-05
-3.78397e-05
-1.52126e-05
-2.18006e-05
-1.60391e-05
-5.03224e-06
-1.67684e-05
1.2218e-05
-1.72502e-05
2.99438e-05
-1.77258e-05
4.79454e-05
-1.80017e-05
6.60113e-05
-1.80659e-05
8.39494e-05
-1.79381e-05
0.000101502
-1.75524e-05
0.000118487
-1.69856e-05
0.000134601
-1.61135e-05
0.000149645
-1.50442e-05
0.000163333
-1.3688e-05
0.00017547
-1.2137e-05
0.000185853
-1.0383e-05
0.000194256
-8.40314e-06
0.000200525
-6.2688e-06
0.000204556
-4.03124e-06
0.000206321
-1.76497e-06
0.000205772
5.48868e-07
0.000202862
2.91046e-06
0.000197624
5.23765e-06
0.000190215
7.40861e-06
0.000180777
9.43793e-06
0.000169425
1.13526e-05
0.000156383
1.30418e-05
0.000141857
1.45263e-05
0.000126152
1.57048e-05
0.000109468
1.66844e-05
9.19727e-05
1.7495e-05
7.39558e-05
1.80169e-05
5.56681e-05
1.82876e-05
3.73125e-05
1.83556e-05
1.91834e-05
1.81292e-05
1.26099e-06
1.79224e-05
-1.59417e-05
1.72026e-05
-3.2462e-05
1.65204e-05
-4.82446e-05
1.57825e-05
-6.31475e-05
1.49029e-05
-7.71337e-05
1.39863e-05
-9.00872e-05
1.29534e-05
-0.000102007
1.19198e-05
-0.000113002
1.09948e-05
-0.000122949
9.94672e-06
-0.000131855
8.90637e-06
-0.000139852
7.99697e-06
-0.00014688
7.02766e-06
-0.000153042
6.16277e-06
-0.000158456
5.41387e-06
-0.000162974
4.51778e-06
-0.000166796
3.82166e-06
-0.000169881
3.08544e-06
-0.000172273
2.39232e-06
-0.000174038
1.76459e-06
-0.000175218
1.1798e-06
-0.000175751
5.32896e-07
-0.000175669
-8.18393e-08
-0.000174948
-7.2089e-07
-0.000173432
-1.51547e-06
-0.000171378
-2.05494e-06
-0.000168724
-2.65309e-06
-0.00016522
-3.50427e-06
-0.000160968
-4.25174e-06
-0.000156047
-4.92135e-06
-0.000150333
-5.71379e-06
-0.000143688
-6.64496e-06
-0.000135968
-7.72026e-06
-0.000127492
-8.47586e-06
-0.000117955
-9.53743e-06
-0.000107422
-1.05324e-05
-9.58748e-05
-1.15476e-05
-8.33441e-05
-1.25307e-05
-6.98132e-05
-1.35309e-05
-5.5367e-05
-1.44462e-05
-4.00028e-05
-1.53643e-05
-2.38856e-05
-1.61172e-05
-7.08718e-06
-1.67984e-05
1.0258e-05
-1.73452e-05
2.79983e-05
-1.77403e-05
4.59795e-05
-1.79813e-05
6.39991e-05
-1.80196e-05
8.18371e-05
-1.78381e-05
9.93297e-05
-1.74926e-05
0.000116193
-1.68629e-05
0.000132365
-1.61726e-05
0.000147515
-1.51496e-05
0.000161562
-1.40468e-05
0.000174249
-1.26875e-05
0.00018543
-1.11809e-05
0.000194898
-9.46807e-06
0.000202504
-7.60588e-06
0.000208226
-5.72213e-06
0.000211902
-3.67607e-06
0.000213517
-1.61533e-06
0.000213043
4.74626e-07
0.000210411
2.63179e-06
0.000205677
4.7334e-06
0.000198835
6.84268e-06
0.00018998
8.85467e-06
0.000179363
1.06168e-05
0.000166939
1.24243e-05
0.000152882
1.4057e-05
0.000137449
1.54332e-05
0.00012079
1.6659e-05
0.000103288
1.75018e-05
8.5002e-05
1.8286e-05
6.61946e-05
1.88074e-05
4.72554e-05
1.89392e-05
2.83159e-05
1.89396e-05
9.5305e-06
1.87854e-05
-8.73913e-06
1.82696e-05
-2.63876e-05
1.76485e-05
-4.32179e-05
1.68302e-05
-5.91563e-05
1.59385e-05
-7.40277e-05
1.48713e-05
-8.77843e-05
1.37567e-05
-0.000100388
1.26035e-05
-0.000111761
1.13734e-05
-0.000121906
1.01452e-05
-0.000130834
8.92797e-06
-0.000138564
7.72991e-06
-0.000145156
6.59205e-06
-0.000150622
5.46559e-06
-0.000155047
4.4248e-06
-0.000158478
3.43132e-06
-0.000160955
2.47704e-06
-0.000162557
1.60234e-06
-0.000163358
8.00206e-07
-0.000163447
8.9209e-08
-0.000162901
-5.45634e-07
-0.000161743
-1.1586e-06
-0.000159989
-1.75354e-06
-0.000157681
-2.3082e-06
-0.000154822
-2.85921e-06
-0.000151345
-3.47657e-06
-0.000147405
-3.94023e-06
-0.000142852
-4.55311e-06
-0.000137718
-5.13391e-06
-0.000132094
-5.62351e-06
-0.000125749
-6.34492e-06
-0.000118822
-6.92704e-06
-0.000111291
-7.53118e-06
-0.000102888
-8.40312e-06
-9.36721e-05
-9.21602e-06
-8.37793e-05
-9.89285e-06
-7.29409e-05
-1.08384e-05
-6.11824e-05
-1.17586e-05
-4.85058e-05
-1.26766e-05
-3.48676e-05
-1.36382e-05
-2.04311e-05
-1.44365e-05
-4.98658e-06
-1.54445e-05
1.14284e-05
-1.64151e-05
2.8408e-05
-1.69796e-05
4.62103e-05
-1.78024e-05
6.44572e-05
-1.8247e-05
8.3254e-05
-1.87969e-05
0.000102239
-1.89853e-05
0.000121031
-1.8792e-05
0.000139669
-1.86381e-05
0.000157794
-1.81242e-05
0.000175049
-1.72556e-05
0.000191253
-1.62042e-05
0.000206062
-1.4809e-05
0.000219268
-1.32059e-05
0.000230487
-1.12191e-05
0.00023934
-8.85286e-06
0.0002457
-6.36016e-06
0.000249389
-3.6897e-06
-1.15862e-06
-3.31989e-05
3.3333e-05
-4.90001e-05
3.15998e-05
-6.4026e-05
3.00483e-05
-7.81846e-05
2.83142e-05
-9.13681e-05
2.63657e-05
-0.000103622
2.45058e-05
-0.000114884
2.25205e-05
-0.000125215
2.06549e-05
-0.000134605
1.87811e-05
-0.000143059
1.69091e-05
-0.000150624
1.5127e-05
-0.000157317
1.33818e-05
-0.00016316
1.16815e-05
-0.000168198
1.00787e-05
-0.00017245
8.50943e-06
-0.000175961
7.0237e-06
-0.000178752
5.58183e-06
-0.000180822
4.14045e-06
-0.000182199
2.73804e-06
-0.000182909
1.42781e-06
-0.000182895
-2.09301e-08
-0.00018214
-1.51045e-06
-0.000180709
-2.85769e-06
-0.000178533
-4.35234e-06
-0.000175657
-5.75181e-06
-0.000171963
-7.39437e-06
-0.000167492
-8.94143e-06
-0.00016232
-1.03443e-05
-0.000156221
-1.2198e-05
-0.000149278
-1.38823e-05
-0.000141433
-1.56992e-05
-0.000132568
-1.77293e-05
-0.000122859
-1.94347e-05
-0.000112048
-2.16043e-05
-0.000100258
-2.35796e-05
-8.75733e-05
-2.53685e-05
-7.37972e-05
-2.75466e-05
-5.90743e-05
-2.9435e-05
-4.34921e-05
-3.11697e-05
-2.69848e-05
-3.30094e-05
-9.72723e-06
-3.45146e-05
8.28672e-06
-3.60238e-05
2.68674e-05
-3.71461e-05
4.56373e-05
-3.75344e-05
6.46681e-05
-3.80632e-05
8.36984e-05
-3.80524e-05
0.000102352
-3.72866e-05
0.000120503
-3.62933e-05
0.000137903
-3.4789e-05
0.000154153
-3.24869e-05
0.000169204
-3.00884e-05
0.000182624
-2.68275e-05
0.000194336
-2.34238e-05
0.000204135
-1.95874e-05
0.000211702
-1.51325e-05
0.000217036
-1.06579e-05
0.000220043
-5.98697e-06
0.000220562
-1.03463e-06
0.000218642
3.83834e-06
0.000214349
8.59088e-06
0.000207828
1.30451e-05
0.000199208
1.72354e-05
0.000188461
2.14862e-05
0.000175836
2.52376e-05
0.000161434
2.87917e-05
0.00014577
3.13142e-05
0.000128847
3.38298e-05
0.00011107
3.55451e-05
9.25497e-05
3.70225e-05
7.35426e-05
3.79991e-05
5.44408e-05
3.81927e-05
3.53295e-05
3.82071e-05
1.64205e-05
3.78362e-05
-2.03331e-06
3.68625e-05
-1.99096e-05
3.57412e-05
-3.71035e-05
3.43782e-05
-5.34349e-05
3.26542e-05
-6.89624e-05
3.10479e-05
-8.35759e-05
2.92247e-05
-9.72598e-05
2.73581e-05
-0.00010991
2.53003e-05
-0.000121594
2.33678e-05
-0.00013238
2.15666e-05
-0.000142167
1.95655e-05
-0.000150864
1.73914e-05
-0.000158701
1.56795e-05
-0.000165659
1.39149e-05
-0.000171555
1.17856e-05
-0.000176534
9.96117e-06
-0.000180552
8.04346e-06
-0.000183689
6.27123e-06
-0.000185969
4.54623e-06
-0.000187316
2.68992e-06
-0.000187821
1.02569e-06
-0.000187492
-6.47397e-07
-0.000186352
-2.26419e-06
-0.00018459
-3.52976e-06
-0.000182034
-5.11909e-06
-0.000178755
-6.56226e-06
-0.000175001
-7.49503e-06
-0.000170553
-8.89987e-06
-0.000165266
-1.05662e-05
-0.000159405
-1.17214e-05
-0.000152768
-1.32789e-05
-0.000145345
-1.48328e-05
-0.000137161
-1.63617e-05
-0.000128149
-1.80231e-05
-0.000118318
-1.96625e-05
-0.00010765
-2.13305e-05
-9.61295e-05
-2.30429e-05
-8.37506e-05
-2.47542e-05
-7.04902e-05
-2.65147e-05
-5.63826e-05
-2.82152e-05
-4.15964e-05
-2.95584e-05
-2.60123e-05
-3.11561e-05
-9.77792e-06
-3.24643e-05
6.90377e-06
-3.33598e-05
2.40901e-05
-3.43629e-05
4.1565e-05
-3.4936e-05
5.92025e-05
-3.5259e-05
7.68427e-05
-3.52704e-05
9.43166e-05
-3.49439e-05
0.000111411
-3.41704e-05
0.000127864
-3.28922e-05
0.000143489
-3.124e-05
0.000157996
-2.89955e-05
0.000171129
-2.62656e-05
0.000182665
-2.30686e-05
0.000192333
-1.93155e-05
0.000199912
-1.51485e-05
0.000205276
-1.07362e-05
0.000208287
-6.01936e-06
0.000208881
-1.18965e-06
0.000207013
3.72956e-06
0.000202583
8.8539e-06
0.000195806
1.35472e-05
0.000186744
1.81188e-05
0.000175575
2.23237e-05
0.000162477
2.61637e-05
0.000147688
2.95666e-05
0.000131478
3.24136e-05
0.000114111
3.47285e-05
9.58474e-05
3.65025e-05
7.70059e-05
3.76473e-05
5.78564e-05
3.82937e-05
3.86977e-05
3.8305e-05
1.98235e-05
3.77347e-05
1.33454e-06
3.69543e-05
-1.65463e-05
3.57351e-05
-3.37118e-05
3.43586e-05
-4.99875e-05
3.25442e-05
-6.52541e-05
3.05201e-05
-7.9562e-05
2.86049e-05
-9.2742e-05
2.63651e-05
-0.000104894
2.4307e-05
-0.000115997
2.21998e-05
-0.000126075
2.01463e-05
-0.000135148
1.81417e-05
-0.000143347
1.64006e-05
-0.000150533
1.43832e-05
-0.000156934
1.28133e-05
-0.000162497
1.11281e-05
-0.00016726
9.52413e-06
-0.000171267
8.00964e-06
-0.000174532
6.52059e-06
-0.000177138
5.1968e-06
-0.000179076
3.91049e-06
-0.000180288
2.42497e-06
-0.000180881
1.19505e-06
-0.000180889
1.00573e-08
-0.000180163
-1.45605e-06
-0.000178736
-2.84908e-06
-0.000176773
-3.92137e-06
-0.000174188
-5.1636e-06
-0.00017083
-6.71472e-06
-0.000166762
-8.15019e-06
-0.000161736
-1.00441e-05
-0.000156168
-1.1128e-05
-0.000149795
-1.27482e-05
-0.000142547
-1.44938e-05
-0.000134471
-1.61469e-05
-0.0001256
-1.77272e-05
-0.000115792
-1.96209e-05
-0.000105146
-2.1293e-05
-9.35003e-05
-2.32855e-05
-8.0972e-05
-2.50575e-05
-6.74792e-05
-2.69754e-05
-5.30737e-05
-2.8798e-05
-3.78611e-05
-3.04252e-05
-2.18183e-05
-3.20821e-05
-5.04389e-06
-3.35428e-05
1.22172e-05
-3.45114e-05
2.99566e-05
-3.54653e-05
4.79717e-05
-3.60168e-05
6.60455e-05
-3.61397e-05
8.40012e-05
-3.58939e-05
0.000101573
-3.51239e-05
0.000118561
-3.39736e-05
0.000134685
-3.2238e-05
0.000149738
-3.00976e-05
0.000163445
-2.73946e-05
0.00017559
-2.42825e-05
0.000185968
-2.07611e-05
0.000194377
-1.68116e-05
0.000200665
-1.25575e-05
0.000204696
-8.0615e-06
0.000206468
-3.53704e-06
0.000205907
1.10921e-06
0.000202976
5.84199e-06
0.000197744
1.04694e-05
0.000190327
1.48258e-05
0.000180868
1.88963e-05
0.000169502
2.27188e-05
0.000156458
2.60858e-05
0.000141925
2.90589e-05
0.000126195
3.14352e-05
0.000109495
3.33846e-05
9.19893e-05
3.50003e-05
7.39539e-05
3.60523e-05
5.56497e-05
3.65918e-05
3.72797e-05
3.67256e-05
1.91426e-05
3.62663e-05
1.19882e-06
3.58662e-05
-1.60197e-05
3.44212e-05
-3.25441e-05
3.30448e-05
-4.83312e-05
3.15696e-05
-6.32222e-05
2.97939e-05
-7.72301e-05
2.79942e-05
-9.0194e-05
2.59173e-05
-0.00010211
2.38354e-05
-0.000113102
2.19868e-05
-0.000123045
1.98906e-05
-0.000131971
1.78317e-05
-0.000139952
1.59786e-05
-0.000146972
1.40472e-05
-0.000153129
1.23201e-05
-0.000158546
1.08309e-05
-0.000163068
9.03984e-06
-0.000166894
7.64742e-06
-0.000169975
6.16658e-06
-0.000172358
4.77542e-06
-0.000174103
3.5096e-06
-0.000175297
2.37369e-06
-0.000175833
1.06849e-06
-0.000175747
-1.67411e-07
-0.000175029
-1.43914e-06
-0.000173504
-3.04068e-06
-0.000171454
-4.10524e-06
-0.0001688
-5.30706e-06
-0.000165288
-7.01579e-06
-0.000161037
-8.50244e-06
-0.000156113
-9.84538e-06
-0.0001504
-1.14272e-05
-0.000143765
-1.32795e-05
-0.000136044
-1.54417e-05
-0.000127561
-1.69593e-05
-0.000118021
-1.90774e-05
-0.000107479
-2.10745e-05
-9.5921e-05
-2.31051e-05
-8.33896e-05
-2.50621e-05
-6.98526e-05
-2.7068e-05
-5.54071e-05
-2.88917e-05
-4.0037e-05
-3.07343e-05
-2.39078e-05
-3.22465e-05
-7.09945e-06
-3.36068e-05
1.02533e-05
-3.4698e-05
2.80044e-05
-3.54914e-05
4.59918e-05
-3.59686e-05
6.40244e-05
-3.60522e-05
8.18813e-05
-3.5695e-05
9.93813e-05
-3.49927e-05
0.000116251
-3.37324e-05
0.000132431
-3.2353e-05
0.000147585
-3.0304e-05
0.000161643
-2.81044e-05
0.000174339
-2.53835e-05
0.000185525
-2.23671e-05
0.00019499
-1.89326e-05
0.000202598
-1.52138e-05
0.000208337
-1.14613e-05
0.000212017
-7.35646e-06
0.000213636
-3.23379e-06
0.000213158
9.52622e-07
0.000210528
5.26088e-06
0.000205799
9.46321e-06
0.000198952
1.36894e-05
0.000190091
1.77151e-05
0.000179473
2.12349e-05
0.000167044
2.48538e-05
0.000152973
2.81278e-05
0.000137531
3.08751e-05
0.000120858
3.33318e-05
0.000103349
3.50107e-05
8.50517e-05
3.65836e-05
6.6228e-05
3.76311e-05
4.72777e-05
3.78894e-05
2.83275e-05
3.78897e-05
9.52866e-06
3.75842e-05
-8.73965e-06
3.65379e-05
-2.63943e-05
3.53031e-05
-4.32303e-05
3.36662e-05
-5.91737e-05
3.18819e-05
-7.40495e-05
2.97471e-05
-8.78084e-05
2.75155e-05
-0.000100408
2.52036e-05
-0.000111779
2.27443e-05
-0.000121931
2.02973e-05
-0.000130865
1.78615e-05
-0.000138595
1.546e-05
-0.000145188
1.31849e-05
-0.000150653
1.0931e-05
-0.000155077
8.84853e-06
-0.000158511
6.86467e-06
-0.000160988
4.95489e-06
-0.000162593
3.20655e-06
-0.000163393
1.60017e-06
-0.000163483
1.79302e-07
-0.000162937
-1.09115e-06
-0.000161779
-2.31705e-06
-0.000160024
-3.50819e-06
-0.00015772
-4.61177e-06
-0.000154861
-5.71891e-06
-0.000151389
-6.94848e-06
-0.000147443
-7.88603e-06
-0.000142887
-9.10877e-06
-0.000137758
-1.02631e-05
-0.000132136
-1.12462e-05
-0.00012579
-1.26903e-05
-0.000118861
-1.38559e-05
-0.000111336
-1.50568e-05
-0.000102931
-1.68076e-05
-9.37166e-05
-1.84308e-05
-8.38232e-05
-1.97864e-05
-7.29896e-05
-2.1672e-05
-6.12332e-05
-2.3515e-05
-4.85508e-05
-2.5359e-05
-3.49124e-05
-2.72767e-05
-2.04682e-05
-2.88808e-05
-5.00511e-06
-3.09077e-05
1.13927e-05
-3.2813e-05
2.83747e-05
-3.39617e-05
4.61852e-05
-3.56129e-05
6.44505e-05
-3.65123e-05
8.32579e-05
-3.76044e-05
0.000102246
-3.7973e-05
0.00012104
-3.7587e-05
0.000139693
-3.72907e-05
0.000157831
-3.62622e-05
0.00017509
-3.45147e-05
0.000191285
-3.23994e-05
0.000206096
-2.96199e-05
0.000219327
-2.64371e-05
0.000230562
-2.24542e-05
0.000239424
-1.77149e-05
0.000245794
-1.27304e-05
0.000249491
-7.3869e-06
-2.32072e-06
-3.32629e-05
5.00085e-05
-4.907e-05
4.74069e-05
-6.41006e-05
4.5079e-05
-7.82627e-05
4.24763e-05
-9.14503e-05
3.95533e-05
-0.000103709
3.67648e-05
-0.000114975
3.37858e-05
-0.000125302
3.09826e-05
-0.000134689
2.81681e-05
-0.000143146
2.53664e-05
-0.000150715
2.26956e-05
-0.000157411
2.00773e-05
-0.000163249
1.75196e-05
-0.00016829
1.51197e-05
-0.000172556
1.27756e-05
-0.00017606
1.0528e-05
-0.000178842
8.36352e-06
-0.000180912
6.2106e-06
-0.000182282
4.10811e-06
-0.000182981
2.12706e-06
-0.000182965
-3.75527e-08
-0.000182208
-2.26715e-06
-0.000180764
-4.3019e-06
-0.000178589
-6.52689e-06
-0.000175716
-8.62492e-06
-0.000172029
-1.10821e-05
-0.000167558
-1.34117e-05
-0.000162385
-1.55177e-05
-0.000156287
-1.82961e-05
-0.000149343
-2.08257e-05
-0.000141508
-2.35343e-05
-0.00013264
-2.65974e-05
-0.000122945
-2.91297e-05
-0.000112125
-3.24245e-05
-0.000100342
-3.53631e-05
-8.76486e-05
-3.80616e-05
-7.38719e-05
-4.13233e-05
-5.91377e-05
-4.41693e-05
-4.35597e-05
-4.67477e-05
-2.70476e-05
-4.95216e-05
-9.78717e-06
-5.1775e-05
8.23138e-06
-5.40424e-05
2.68241e-05
-5.57389e-05
4.56117e-05
-5.63221e-05
6.46603e-05
-5.71118e-05
8.36971e-05
-5.70893e-05
0.000102359
-5.59487e-05
0.000120526
-5.44605e-05
0.000137952
-5.22145e-05
0.000154216
-4.87507e-05
0.000169283
-4.51554e-05
0.000182729
-4.02741e-05
0.000194458
-3.51529e-05
0.00020426
-2.93893e-05
0.000211841
-2.27136e-05
0.000217181
-1.59976e-05
0.000220199
-9.00527e-06
0.000220726
-1.56157e-06
0.000218806
5.75778e-06
0.000214524
1.28734e-05
0.000208009
1.95597e-05
0.000199372
2.5873e-05
0.000188611
3.22467e-05
0.000175959
3.78896e-05
0.00016155
4.32011e-05
0.00014586
4.70042e-05
0.000128918
5.07717e-05
0.000111126
5.33373e-05
9.25761e-05
5.5572e-05
7.35485e-05
5.70267e-05
5.44323e-05
5.73089e-05
3.53015e-05
5.73378e-05
1.63908e-05
5.67469e-05
-2.0891e-06
5.53424e-05
-1.99789e-05
5.3631e-05
-3.71841e-05
5.15834e-05
-5.35197e-05
4.89897e-05
-6.90523e-05
4.65805e-05
-8.36684e-05
4.38408e-05
-9.73676e-05
4.10573e-05
-0.000110015
3.79478e-05
-0.000121684
3.50372e-05
-0.000132474
3.23557e-05
-0.000142277
2.93689e-05
-0.000150965
2.60796e-05
-0.00015878
2.34944e-05
-0.000165747
2.08816e-05
-0.000171647
1.76854e-05
-0.000176623
1.49373e-05
-0.000180644
1.20648e-05
-0.000183775
9.40208e-06
-0.000186057
6.82845e-06
-0.000187411
4.04348e-06
-0.000187901
1.51609e-06
-0.00018757
-9.78086e-07
-0.000186419
-3.4155e-06
-0.000184664
-5.28457e-06
-0.000182112
-7.67157e-06
-0.000178833
-9.84157e-06
-0.000175075
-1.12522e-05
-0.00017064
-1.33349e-05
-0.000165354
-1.58527e-05
-0.000159501
-1.75747e-05
-0.000152865
-1.99142e-05
-0.000145418
-2.22806e-05
-0.000137245
-2.45344e-05
-0.000128237
-2.70309e-05
-0.000118412
-2.94875e-05
-0.000107741
-3.20017e-05
-9.62188e-05
-3.45651e-05
-8.38453e-05
-3.71278e-05
-7.05863e-05
-3.97738e-05
-5.64996e-05
-4.2302e-05
-4.16757e-05
-4.43823e-05
-2.60881e-05
-4.67438e-05
-9.84617e-06
-4.87063e-05
6.85236e-06
-5.00584e-05
2.40484e-05
-5.1559e-05
4.15296e-05
-5.24173e-05
5.91898e-05
-5.29193e-05
7.68505e-05
-5.29312e-05
9.43388e-05
-5.24322e-05
0.000111437
-5.12684e-05
0.00012792
-4.93753e-05
0.000143567
-4.68875e-05
0.0001581
-4.35289e-05
0.000171256
-3.94211e-05
0.000182797
-3.46094e-05
0.000192487
-2.90056e-05
0.000200094
-2.27555e-05
0.00020547
-1.61127e-05
0.000208484
-9.03374e-06
0.000209068
-1.77311e-06
0.000207169
5.62878e-06
0.000202749
1.32739e-05
0.000195966
2.03297e-05
0.000186893
2.71922e-05
0.000175707
3.35089e-05
0.000162587
3.92836e-05
0.000147776
4.43775e-05
0.000131542
4.86479e-05
0.000114157
5.21131e-05
9.58732e-05
5.47868e-05
7.69926e-05
5.65278e-05
5.78318e-05
5.74545e-05
3.86541e-05
5.74827e-05
1.97706e-05
5.66183e-05
1.26798e-06
5.54568e-05
-1.6642e-05
5.3645e-05
-3.38097e-05
5.15263e-05
-5.00947e-05
4.88292e-05
-6.53552e-05
4.57805e-05
-7.96729e-05
4.29227e-05
-9.28528e-05
3.95449e-05
-0.000105001
3.6455e-05
-0.000116097
3.32956e-05
-0.000126174
3.02238e-05
-0.00013525
2.72177e-05
-0.00014345
2.46006e-05
-0.000150623
2.15556e-05
-0.00015702
1.92102e-05
-0.000162566
1.66747e-05
-0.000167321
1.42791e-05
-0.000171327
1.20157e-05
-0.000174603
9.79648e-06
-0.000177224
7.81792e-06
-0.000179146
5.83281e-06
-0.000180358
3.63654e-06
-0.000180954
1.79052e-06
-0.00018097
2.64204e-08
-0.000180231
-2.19465e-06
-0.000178788
-4.29198e-06
-0.000176836
-5.87386e-06
-0.000174265
-7.73469e-06
-0.000170909
-1.00708e-05
-0.000166851
-1.22081e-05
-0.000161815
-1.50805e-05
-0.000156258
-1.66847e-05
-0.000149895
-1.9111e-05
-0.000142632
-2.17569e-05
-0.000134564
-2.42145e-05
-0.000125698
-2.65934e-05
-0.000115878
-2.94408e-05
-0.000105241
-3.19299e-05
-9.36075e-05
-3.49195e-05
-8.10689e-05
-3.75962e-05
-6.75793e-05
-4.04651e-05
-5.3167e-05
-4.32104e-05
-3.79407e-05
-4.56516e-05
-2.18893e-05
-4.81335e-05
-5.11768e-06
-5.03145e-05
1.21503e-05
-5.17795e-05
2.99203e-05
-5.32353e-05
4.79549e-05
-5.40515e-05
6.60532e-05
-5.4238e-05
8.4022e-05
-5.38628e-05
0.00010161
-5.27117e-05
0.00011863
-5.09936e-05
0.000134768
-4.8376e-05
0.000149836
-4.51665e-05
0.00016356
-4.11178e-05
0.000175729
-3.64516e-05
0.000186118
-3.11505e-05
0.000194527
-2.52209e-05
0.000200829
-1.88595e-05
0.000204874
-1.21067e-05
0.000206654
-5.3169e-06
0.000206072
1.69176e-06
0.000203117
8.79612e-06
0.000197894
1.56928e-05
0.00019048
2.224e-05
0.000181008
2.83679e-05
0.000169612
3.41151e-05
0.00015654
3.91577e-05
0.000142013
4.35856e-05
0.000126255
4.71938e-05
0.000109537
5.01017e-05
9.19991e-05
5.25387e-05
7.39501e-05
5.41013e-05
5.56387e-05
5.49032e-05
3.72522e-05
5.5112e-05
1.90946e-05
5.44239e-05
1.12994e-06
5.38308e-05
-1.61006e-05
5.16517e-05
-3.26249e-05
4.9569e-05
-4.84259e-05
4.73707e-05
-6.33052e-05
4.46732e-05
-7.73301e-05
4.20191e-05
-9.02943e-05
3.88815e-05
-0.000102215
3.5756e-05
-0.000113213
3.29845e-05
-0.000123138
2.98164e-05
-0.000132076
2.67688e-05
-0.000140052
2.39549e-05
-0.000147057
2.1052e-05
-0.000153193
1.84569e-05
-0.000158611
1.62484e-05
-0.000163141
1.35698e-05
-0.000166975
1.14818e-05
-0.000170045
9.23679e-06
-0.000172413
7.14276e-06
-0.000174154
5.25034e-06
-0.000175369
3.58955e-06
-0.000175913
1.6119e-06
-0.000175821
-2.58793e-07
-0.000175101
-2.15995e-06
-0.000173567
-4.57423e-06
-0.000171526
-6.14588e-06
-0.000168887
-7.94631e-06
-0.00016538
-1.05232e-05
-0.00016113
-1.27527e-05
-0.000156206
-1.47686e-05
-0.000150493
-1.71406e-05
-0.000143862
-1.99105e-05
-0.000136163
-2.31405e-05
-0.000127657
-2.54657e-05
-0.000118119
-2.86149e-05
-0.000107589
-3.16047e-05
-9.60359e-05
-3.46586e-05
-8.34968e-05
-3.76013e-05
-6.99505e-05
-4.06142e-05
-5.54967e-05
-4.33456e-05
-4.01247e-05
-4.61064e-05
-2.39852e-05
-4.8386e-05
-7.15942e-06
-5.04326e-05
1.02134e-05
-5.20709e-05
2.79731e-05
-5.32511e-05
4.59766e-05
-5.39722e-05
6.40143e-05
-5.40899e-05
8.18893e-05
-5.357e-05
9.94166e-05
-5.252e-05
0.000116313
-5.0629e-05
0.000132496
-4.85363e-05
0.000147653
-4.54608e-05
0.000161742
-4.21931e-05
0.000174443
-3.80852e-05
0.000185636
-3.35596e-05
0.00019511
-2.84063e-05
0.000202722
-2.28257e-05
0.000208463
-1.72031e-05
0.000212147
-1.10401e-05
0.000213776
-4.86318e-06
0.000213295
1.43386e-06
0.000210677
7.8793e-06
0.000205956
1.41837e-05
0.000199109
2.05362e-05
0.000190241
2.65832e-05
0.000179614
3.18618e-05
0.000167172
3.72961e-05
0.000153088
4.22118e-05
0.000137626
4.63375e-05
0.000120927
5.003e-05
0.000103406
5.2532e-05
8.50876e-05
5.4902e-05
6.62408e-05
5.64779e-05
4.72747e-05
5.68556e-05
2.82967e-05
5.68678e-05
9.49838e-06
5.63825e-05
-8.78433e-06
5.48207e-05
-2.64478e-05
5.29666e-05
-4.32906e-05
5.0509e-05
-5.92388e-05
4.78301e-05
-7.41181e-05
4.46265e-05
-8.78791e-05
4.12765e-05
-0.00010048
3.78043e-05
-0.00011185
3.41146e-05
-0.000121999
3.04459e-05
-0.000130931
2.67934e-05
-0.000138655
2.31844e-05
-0.000145242
1.97721e-05
-0.000150706
1.63952e-05
-0.000155121
1.32637e-05
-0.00015855
1.02933e-05
-0.000161028
7.43325e-06
-0.000162636
4.81399e-06
-0.000163442
2.40614e-06
-0.000163535
2.72968e-07
-0.000162988
-1.63853e-06
-0.000161826
-3.47932e-06
-0.000160067
-5.26731e-06
-0.000157769
-6.90973e-06
-0.000154905
-8.58281e-06
-0.000151443
-1.04107e-05
-0.000147485
-1.18437e-05
-0.000142927
-1.36666e-05
-0.000137807
-1.5383e-05
-0.000132186
-1.68674e-05
-0.000125842
-1.90339e-05
-0.000118913
-2.07854e-05
-0.000111397
-2.25726e-05
-0.000102993
-2.52123e-05
-9.37834e-05
-2.764e-05
-8.38902e-05
-2.96796e-05
-7.30671e-05
-3.24951e-05
-6.13184e-05
-3.52638e-05
-4.8622e-05
-3.80555e-05
-3.49904e-05
-4.09083e-05
-2.0532e-05
-4.33393e-05
-5.06056e-06
-4.63792e-05
1.13661e-05
-4.92397e-05
2.83539e-05
-5.09495e-05
4.61651e-05
-5.34242e-05
6.4433e-05
-5.47804e-05
8.3265e-05
-5.64365e-05
0.000102275
-5.69829e-05
0.000121081
-5.63934e-05
0.000139743
-5.59526e-05
0.000157881
-5.44002e-05
0.000175151
-5.17849e-05
0.000191367
-4.86159e-05
0.000206181
-4.44343e-05
0.000219413
-3.96691e-05
0.000230671
-3.37125e-05
0.000239548
-2.6592e-05
0.000245939
-1.91216e-05
0.000249674
-1.11216e-05
-3.5089e-06
-3.33587e-05
6.66949e-05
-4.91747e-05
6.32229e-05
-6.42134e-05
6.01178e-05
-7.83826e-05
5.66455e-05
-9.1576e-05
5.27467e-05
-0.000103839
4.90281e-05
-0.000115108
4.50548e-05
-0.000125439
4.13135e-05
-0.000134827
3.75561e-05
-0.000143287
3.3826e-05
-0.000150857
3.02657e-05
-0.000157556
2.67766e-05
-0.000163394
2.33573e-05
-0.000168437
2.01627e-05
-0.000172698
1.70366e-05
-0.000176202
1.40318e-05
-0.000178983
1.11449e-05
-0.000181061
8.28851e-06
-0.000182421
5.46772e-06
-0.000183096
2.80166e-06
-0.000183064
-6.85701e-08
-0.000182291
-3.04041e-06
-0.000180846
-5.74749e-06
-0.000178673
-8.69945e-06
-0.000175804
-1.14938e-05
-0.000172128
-1.47583e-05
-0.000167659
-1.78809e-05
-0.000162482
-2.0695e-05
-0.000156385
-2.43923e-05
-0.000149445
-2.77666e-05
-0.000141623
-3.13561e-05
-0.000132751
-3.5469e-05
-0.000123066
-3.8815e-05
-0.00011224
-4.32505e-05
-0.000100468
-4.71351e-05
-8.77624e-05
-5.07673e-05
-7.39829e-05
-5.51029e-05
-5.92378e-05
-5.89144e-05
-4.36631e-05
-6.23225e-05
-2.71445e-05
-6.60402e-05
-9.88191e-06
-6.90377e-05
8.15278e-06
-7.20771e-05
2.67608e-05
-7.4347e-05
4.55662e-05
-7.51275e-05
6.46289e-05
-7.61745e-05
8.36918e-05
-7.61522e-05
0.000102375
-7.46319e-05
0.000120563
-7.26482e-05
0.000138014
-6.96657e-05
0.000154302
-6.50388e-05
0.000169395
-6.02482e-05
0.000182865
-5.37444e-05
0.000194612
-4.69007e-05
0.000204435
-3.9212e-05
0.000212029
-3.03079e-05
0.000217385
-2.13537e-05
0.000220425
-1.20445e-05
0.000220959
-2.0963e-06
0.000219053
7.66435e-06
0.000214789
1.71369e-05
0.000208282
2.60668e-05
0.000199615
3.45405e-05
0.000188835
4.30265e-05
0.000176143
5.0581e-05
0.000161724
5.76208e-05
0.000145993
6.27347e-05
0.000129021
6.77436e-05
0.000111208
7.11506e-05
9.26144e-05
7.41654e-05
7.35575e-05
7.60835e-05
5.44216e-05
7.64448e-05
3.52563e-05
7.65031e-05
1.63295e-05
7.56736e-05
-2.17999e-06
7.38519e-05
-2.00905e-05
7.15415e-05
-3.73104e-05
6.88033e-05
-5.36572e-05
6.53365e-05
-6.91917e-05
6.2115e-05
-8.3796e-05
5.84451e-05
-9.75114e-05
5.47727e-05
-0.000110167
5.06029e-05
-0.000121831
4.67014e-05
-0.000132622
4.31474e-05
-0.000142439
3.9185e-05
-0.000151128
3.47688e-05
-0.000158951
3.13174e-05
-0.000165885
2.78156e-05
-0.000171805
2.36051e-05
-0.000176769
1.9902e-05
-0.000180775
1.60706e-05
-0.000183913
1.25396e-05
-0.000186205
9.12074e-06
-0.000187568
5.40639e-06
-0.000188037
1.9851e-06
-0.000187679
-1.3359e-06
-0.000186507
-4.58743e-06
-0.000184785
-7.00648e-06
-0.000182221
-1.0236e-05
-0.000178925
-1.31373e-05
-0.000175193
-1.49845e-05