/*--------------------------------*- C++ -*----------------------------------*\
| =========                 |                                                 |
| \\      /  F ield         | OpenFOAM: The Open Source CFD Toolbox           |
|  \\    /   O peration     | Version:  3.0.1                                 |
|   \\  /    A nd           | Web:      www.OpenFOAM.org                      |
|    \\/     M anipulation  |                                                 |
\*---------------------------------------------------------------------------*/
FoamFile
{
    version     2.0;
    format      ascii;
    class       surfaceScalarField;
    location    "11.2";
    object      phi;
}
// * * * * * * * * * * * * * * * * * * * * * * * * * * * * * * * * * * * * * //

dimensions      [0 3 -1 0 0 0 0];

internalField   nonuniform List<scalar> 
42423
(
-4.96792e-05
-1.38812e-05
-3.45747e-05
-1.51047e-05
-1.84063e-05
-1.61686e-05
-1.30291e-06
-1.71036e-05
1.6472e-05
-1.77751e-05
3.46625e-05
-1.81906e-05
5.3406e-05
-1.87437e-05
7.23024e-05
-1.88965e-05
9.10133e-05
-1.87111e-05
0.000109505
-1.84923e-05
0.000127494
-1.79889e-05
0.000144626
-1.71314e-05
0.000160705
-1.60794e-05
0.000175458
-1.47535e-05
0.000188657
-1.31994e-05
0.000200089
-1.14313e-05
0.000209442
-9.35354e-06
0.000216539
-7.09699e-06
0.000221263
-4.72437e-06
0.000223595
-2.33143e-06
0.000223448
1.46548e-07
0.000220772
2.6753e-06
0.000215451
5.32106e-06
0.000207853
7.59854e-06
0.000197976
9.87618e-06
0.000186204
1.17724e-05
0.000172628
1.35762e-05
0.000157412
1.52159e-05
0.00014096
1.64516e-05
0.000123459
1.75009e-05
0.000105169
1.82901e-05
8.63907e-05
1.87782e-05
6.7298e-05
1.90927e-05
4.81347e-05
1.91633e-05
2.91829e-05
1.89517e-05
1.06502e-05
1.85327e-05
-7.41396e-06
1.80641e-05
-2.48372e-05
1.74232e-05
-4.14731e-05
1.66359e-05
-5.72243e-05
1.57512e-05
-7.20371e-05
1.48128e-05
-8.58612e-05
1.38241e-05
-9.87023e-05
1.2841e-05
-0.000110517
1.18145e-05
-0.000121336
1.08191e-05
-0.000131182
9.84648e-06
-0.000140049
8.86636e-06
-0.000147986
7.93771e-06
-0.000155051
7.065e-06
-0.00016125
6.19912e-06
-0.000166628
5.37716e-06
-0.000171233
4.60578e-06
-0.000175077
3.8433e-06
-0.000178222
3.1455e-06
-0.000180657
2.43473e-06
-0.000182365
1.70794e-06
-0.000183416
1.05098e-06
-0.000183734
3.18483e-07
-0.000183189
-5.45656e-07
-0.000181904
-1.28471e-06
-0.000179693
-2.2115e-06
-0.000176705
-2.98766e-06
-0.000172867
-3.83796e-06
-0.000168046
-4.82058e-06
-0.00016249
-5.55636e-06
-0.000156071
-6.41931e-06
-0.000148581
-7.48988e-06
-0.000140269
-8.31219e-06
-0.000130935
-9.33374e-06
-0.000120691
-1.02446e-05
-0.000109698
-1.0993e-05
-9.78481e-05
-1.18496e-05
-8.51735e-05
-1.26747e-05
-7.18097e-05
-1.33638e-05
-5.77271e-05
-1.40827e-05
-4.31022e-05
-1.4625e-05
-2.78135e-05
-1.52889e-05
-1.19566e-05
-1.5857e-05
4.32928e-06
-1.6286e-05
2.09843e-05
-1.66552e-05
3.79193e-05
-1.69351e-05
5.50476e-05
-1.71284e-05
7.22077e-05
-1.71603e-05
8.92746e-05
-1.7067e-05
0.000106079
-1.68048e-05
0.000122431
-1.63519e-05
0.000138128
-1.56973e-05
0.000152948
-1.48201e-05
0.000166649
-1.37013e-05
0.000178984
-1.23348e-05
0.000189734
-1.075e-05
0.000198637
-8.90337e-06
0.000205514
-6.8771e-06
0.000210159
-4.64492e-06
0.000212474
-2.31539e-06
0.000212403
7.11602e-08
0.000209848
2.55415e-06
0.000204769
5.07931e-06
0.000197272
7.49685e-06
0.000187447
9.8253e-06
0.000175456
1.19911e-05
0.000161524
1.39319e-05
0.00014581
1.57138e-05
0.000128671
1.71389e-05
0.000110384
1.82866e-05
9.13257e-05
1.90584e-05
7.18136e-05
1.95121e-05
5.21537e-05
1.96599e-05
3.26572e-05
1.94964e-05
1.3633e-05
1.90242e-05
-4.65336e-06
1.82864e-05
-2.20449e-05
1.73916e-05
-3.83993e-05
1.63543e-05
-5.36588e-05
1.52595e-05
-6.77624e-05
1.41036e-05
-8.0727e-05
1.29646e-05
-9.25662e-05
1.18392e-05
-0.000103343
1.07771e-05
-0.000113125
9.78166e-06
-0.000121998
8.87317e-06
-0.000130009
8.01071e-06
-0.000137239
7.23007e-06
-0.00014375
6.5115e-06
-0.000149596
5.84533e-06
-0.000154859
5.26357e-06
-0.000159515
4.65578e-06
-0.000163625
4.11024e-06
-0.000167191
3.56593e-06
-0.000170231
3.03999e-06
-0.000172732
2.5006e-06
-0.000174683
1.95128e-06
-0.000176047
1.3641e-06
-0.000176808
7.60637e-07
-0.000176916
1.0793e-07
-0.000176339
-5.77414e-07
-0.000175004
-1.33492e-06
-0.000172877
-2.12684e-06
-0.000169912
-2.965e-06
-0.000166035
-3.87673e-06
-0.000161204
-4.83107e-06
-0.000155378
-5.8257e-06
-0.000148512
-6.86597e-06
-0.000140601
-7.91176e-06
-0.000131602
-8.99842e-06
-0.000121535
-1.00675e-05
-0.000110374
-1.1161e-05
-9.82162e-05
-1.21578e-05
-8.50214e-05
-1.31948e-05
-7.08726e-05
-1.41489e-05
-5.58236e-05
-1.50491e-05
-3.99666e-05
-1.5857e-05
-2.34242e-05
-1.65426e-05
-6.30418e-06
-1.71201e-05
1.12761e-05
-1.75803e-05
2.91121e-05
-1.78361e-05
4.70745e-05
-1.79625e-05
6.49636e-05
-1.78892e-05
8.25857e-05
-1.76222e-05
9.97276e-05
-1.7142e-05
0.000116195
-1.64671e-05
0.000131748
-1.55538e-05
0.00014622
-1.44715e-05
0.000159399
-1.31793e-05
0.000171109
-1.17104e-05
0.00018119
-1.0081e-05
0.000189509
-8.31945e-06
0.000195943
-6.43358e-06
0.000200417
-4.47384e-06
0.000202889
-2.4721e-06
0.000203375
-4.86243e-07
0.00020182
1.55479e-06
0.000198278
3.5423e-06
0.000192857
5.42022e-06
0.000185668
7.18918e-06
0.00017684
8.82759e-06
0.000166526
1.03147e-05
0.000154899
1.16263e-05
0.000142151
1.2748e-05
0.000128436
1.37153e-05
0.00011397
1.44654e-05
9.89722e-05
1.49982e-05
8.3638e-05
1.53342e-05
6.8141e-05
1.54971e-05
5.26615e-05
1.54794e-05
3.73553e-05
1.53061e-05
2.23595e-05
1.49958e-05
7.8291e-06
1.45304e-05
-6.16329e-06
1.39924e-05
-1.9516e-05
1.33527e-05
-3.21576e-05
1.26416e-05
-4.40373e-05
1.18797e-05
-5.51121e-05
1.10747e-05
-6.53552e-05
1.02431e-05
-7.47491e-05
9.39384e-06
-8.32816e-05
8.5325e-06
-9.09722e-05
7.6906e-06
-9.77981e-05
6.82596e-06
-0.000103777
5.97871e-06
-0.000108938
5.16145e-06
-0.000113272
4.33338e-06
-0.000116799
3.52723e-06
-0.000119531
2.73213e-06
-0.000121482
1.95112e-06
-0.000122675
1.19268e-06
-0.00012312
4.44656e-07
-0.000122817
-3.02658e-07
-0.000121781
-1.03567e-06
-0.000120049
-1.73211e-06
-0.000117597
-2.45203e-06
-0.000114446
-3.15156e-06
-0.0001106
-3.84553e-06
-0.000106078
-4.52181e-06
-0.000100876
-5.20241e-06
-9.50321e-05
-5.84376e-06
-8.85422e-05
-6.48986e-06
-8.14309e-05
-7.11137e-06
-7.37201e-05
-7.71074e-06
-6.54413e-05
-8.27885e-06
-5.66304e-05
-8.81095e-06
-4.7323e-05
-9.30738e-06
-3.75716e-05
-9.75138e-06
-2.7422e-05
-1.01496e-05
-1.69447e-05
-1.04774e-05
-6.19819e-06
-1.07465e-05
4.72566e-06
-1.09239e-05
1.57677e-05
-1.10421e-05
2.68235e-05
-1.10558e-05
3.78094e-05
-1.09859e-05
4.86066e-05
-1.07972e-05
5.91417e-05
-1.05352e-05
6.92948e-05
-1.01531e-05
7.89834e-05
-9.68862e-06
8.80664e-05
-9.08302e-06
9.65044e-05
-8.43801e-06
0.000104157
-7.65277e-06
0.000110966
-6.80889e-06
0.000116865
-5.89864e-06
0.000121784
-4.91977e-06
0.000125675
-3.89059e-06
0.0001285
-2.82511e-06
0.000130253
-1.75313e-06
0.000130936
-6.82796e-07
0.000130575
3.60684e-07
0.000129173
1.4019e-06
0.000126781
2.39259e-06
0.000123452
3.329e-06
0.000119241
4.2101e-06
0.000114257
4.98415e-06
0.000108588
5.66956e-06
0.000102307
6.28024e-06
9.55252e-05
6.78212e-06
8.83422e-05
7.18306e-06
8.0858e-05
7.48414e-06
7.31733e-05
7.68464e-06
6.53833e-05
7.79006e-06
5.75791e-05
7.80413e-06
4.98443e-05
7.73481e-06
4.22553e-05
7.58897e-06
3.48807e-05
7.37461e-06
2.77791e-05
7.10156e-06
2.10033e-05
6.77577e-06
1.45977e-05
6.40563e-06
8.61593e-06
5.98174e-06
3.03195e-06
5.58397e-06
-2.09811e-06
5.13006e-06
-6.76175e-06
4.66363e-06
-1.09545e-05
4.19271e-06
-1.46757e-05
3.72125e-06
-1.7928e-05
3.25229e-06
-2.07188e-05
2.79075e-06
-2.30583e-05
2.33952e-06
-2.49607e-05
1.90241e-06
-2.64415e-05
1.48078e-06
-2.75187e-05
1.07719e-06
-2.82125e-05
6.9377e-07
-2.85452e-05
3.32707e-07
-2.85368e-05
-8.42738e-09
-2.82094e-05
-3.2733e-07
-2.75858e-05
-6.23591e-07
-2.66879e-05
-8.97896e-07
-2.55383e-05
-1.14961e-06
-2.41588e-05
-1.37953e-06
-2.25717e-05
-1.5871e-06
-2.07989e-05
-1.77279e-06
-1.88589e-05
-1.94004e-06
-1.67743e-05
-2.08455e-06
-1.45659e-05
-2.20842e-06
-1.22532e-05
-2.31268e-06
-9.85655e-06
-2.39669e-06
-7.39661e-06
-2.45994e-06
-4.8892e-06
-2.50741e-06
-2.3542e-06
-2.535e-06
1.9098e-07
-2.54518e-06
2.73003e-06
-2.53905e-06
5.24613e-06
-2.5161e-06
7.72387e-06
-2.47775e-06
1.01476e-05
-2.42368e-06
1.25035e-05
-2.35594e-06
1.47794e-05
-2.27586e-06
1.69628e-05
-2.18344e-06
1.90445e-05
-2.08175e-06
2.10131e-05
-1.96858e-06
2.28612e-05
-1.8481e-06
2.45823e-05
-1.72108e-06
2.61702e-05
-1.58791e-06
2.76203e-05
-1.45004e-06
2.89295e-05
-1.30921e-06
3.00953e-05
-1.16583e-06
3.1117e-05
-1.02166e-06
3.19942e-05
-8.77205e-07
3.27279e-05
-7.33702e-07
3.33203e-05
-5.92464e-07
3.37753e-05
-4.54964e-07
3.40961e-05
-3.20805e-07
3.42863e-05
-1.90237e-07
3.43499e-05
-6.35987e-08
3.42876e-05
6.2321e-08
3.41087e-05
1.78881e-07
3.38211e-05
2.87622e-07
3.34329e-05
3.88208e-07
3.29512e-05
4.81688e-07
3.23835e-05
5.6772e-07
3.17379e-05
6.45568e-07
3.10219e-05
7.16053e-07
3.02435e-05
7.78372e-07
2.94103e-05
8.3326e-07
2.85296e-05
8.80677e-07
2.76093e-05
9.20315e-07
2.66562e-05
9.53027e-07
2.56772e-05
9.78995e-07
2.46791e-05
9.98126e-07
2.36679e-05
1.01122e-06
2.26493e-05
1.01857e-06
2.16291e-05
1.02022e-06
2.06121e-05
1.01698e-06
1.96032e-05
1.00895e-06
1.86064e-05
9.96821e-07
1.76254e-05
9.80972e-07
1.66638e-05
9.6158e-07
1.57245e-05
9.39328e-07
1.48099e-05
9.14533e-07
1.39226e-05
8.87386e-07
1.3064e-05
8.58506e-07
1.2236e-05
8.28015e-07
1.14396e-05
7.96437e-07
1.06756e-05
7.64007e-07
9.94467e-06
7.3092e-07
9.24708e-06
6.97587e-07
8.58286e-06
6.64215e-07
7.95186e-06
6.31004e-07
7.35362e-06
5.98235e-07
6.78761e-06
5.66012e-07
6.25313e-06
5.34477e-07
5.74951e-06
5.03619e-07
5.27622e-06
4.73295e-07
4.83268e-06
4.43531e-07
4.14387e-07
-4.97158e-05
-2.77631e-05
-3.46096e-05
-3.02112e-05
-1.84431e-05
-3.23355e-05
-1.32815e-06
-3.42189e-05
1.64492e-05
-3.55528e-05
3.46463e-05
-3.63881e-05
5.33975e-05
-3.74952e-05
7.23056e-05
-3.78049e-05
9.10292e-05
-3.7435e-05
0.000109535
-3.69981e-05
0.000127538
-3.59927e-05
0.000144685
-3.42786e-05
0.000160787
-3.21815e-05
0.000175583
-2.95494e-05
0.000188803
-2.64204e-05
0.00020022
-2.28481e-05
0.000209563
-1.86966e-05
0.000216671
-1.42051e-05
0.000221413
-9.46675e-06
0.000223745
-4.66343e-06
0.000223581
3.10316e-07
0.000220898
5.35763e-06
0.000215574
1.0645e-05
0.000207966
1.52062e-05
0.000198082
1.97599e-05
0.000186301
2.35538e-05
0.000172714
2.71631e-05
0.000157486
3.04437e-05
0.000141022
3.29151e-05
0.000123509
3.50136e-05
0.000105209
3.65908e-05
8.64157e-05
3.75711e-05
6.73136e-05
3.81947e-05
4.81374e-05
3.83394e-05
2.91841e-05
3.79049e-05
1.06374e-05
3.70794e-05
-7.43564e-06
3.61371e-05
-2.48662e-05
3.48538e-05
-4.15066e-05
3.32762e-05
-5.72608e-05
3.15053e-05
-7.20791e-05
2.96311e-05
-8.59082e-05
2.76532e-05
-9.87521e-05
2.56849e-05
-0.00011057
2.36322e-05
-0.00012139
2.1639e-05
-0.000131236
1.96932e-05
-0.000140107
1.77365e-05
-0.000148047
1.58777e-05
-0.000155113
1.4131e-05
-0.000161313
1.23996e-05
-0.000166692
1.0756e-05
-0.000171299
9.21296e-06
-0.000175145
7.68947e-06
-0.000178298
6.29849e-06
-0.00018074
4.87649e-06
-0.000182445
3.41339e-06
-0.000183492
2.09733e-06
-0.000183814
6.40355e-07
-0.000183275
-1.0842e-06
-0.000181984
-2.5763e-06
-0.00017977
-4.42519e-06
-0.000176778
-5.98e-06
-0.000172951
-7.6651e-06
-0.000168147
-9.62436e-06
-0.000162563
-1.11403e-05
-0.000156143
-1.28394e-05
-0.000148653
-1.49803e-05
-0.000140339
-1.66263e-05
-0.000131002
-1.86704e-05
-0.000120755
-2.04919e-05
-0.00010976
-2.19882e-05
-9.79057e-05
-2.37038e-05
-8.52286e-05
-2.53521e-05
-7.1862e-05
-2.67306e-05
-5.77742e-05
-2.81706e-05
-4.31311e-05
-2.92683e-05
-2.78365e-05
-3.05838e-05
-1.19801e-05
-3.17136e-05
4.30372e-06
-3.257e-05
2.0964e-05
-3.33157e-05
3.79091e-05
-3.38805e-05
5.50434e-05
-3.42629e-05
7.2209e-05
-3.43262e-05
8.92805e-05
-3.41388e-05
0.000106094
-3.36182e-05
0.00012246
-3.27187e-05
0.000138161
-3.13983e-05
0.000152992
-2.96512e-05
0.000166716
-2.74252e-05
0.000179063
-2.46826e-05
0.000189823
-2.15104e-05
0.000198714
-1.77944e-05
0.000205606
-1.37696e-05
0.000210274
-9.31258e-06
0.000212596
-4.6374e-06
0.000212508
1.58199e-07
0.000209947
5.1152e-06
0.000204864
1.0162e-05
0.000197365
1.49957e-05
0.000187546
1.96445e-05
0.000175547
2.39904e-05
0.000161592
2.78864e-05
0.000145868
3.14373e-05
0.000128713
3.42943e-05
0.000110411
3.65886e-05
9.13364e-05
3.81326e-05
7.18121e-05
3.90363e-05
5.21395e-05
3.93324e-05
3.26244e-05
3.90114e-05
1.35937e-05
3.80548e-05
-4.70227e-06
3.65824e-05
-2.21e-05
3.47893e-05
-3.84631e-05
3.27173e-05
-5.37242e-05
3.05206e-05
-6.78317e-05
2.82111e-05
-8.07957e-05
2.59286e-05
-9.26325e-05
2.3676e-05
-0.00010341
2.15544e-05
-0.000113186
1.95584e-05
-0.000122044
1.77305e-05
-0.000130058
1.60252e-05
-0.000137292
1.44642e-05
-0.000143802
1.30207e-05
-0.00014965
1.16936e-05
-0.000154915
1.05287e-05
-0.000159561
9.3016e-06
-0.00016367
8.21937e-06
-0.00016724
7.13553e-06
-0.000170281
6.08092e-06
-0.000172783
5.0028e-06
-0.000174734
3.90219e-06
-0.000176094
2.72421e-06
-0.000176856
1.52244e-06
-0.00017697
2.22535e-07
-0.000176394
-1.15403e-06
-0.00017506
-2.66885e-06
-0.000172941
-4.24626e-06
-0.000169969
-5.93645e-06
-0.000166088
-7.75809e-06
-0.000161262
-9.65737e-06
-0.000155436
-1.16517e-05
-0.000148573
-1.37286e-05
-0.000140663
-1.58223e-05
-0.000131662
-1.79989e-05
-0.000121594
-2.01358e-05
-0.000110437
-2.23181e-05
-9.82711e-05
-2.43237e-05
-8.50708e-05
-2.63953e-05
-7.09152e-05
-2.83046e-05
-5.5856e-05
-3.01084e-05
-3.99982e-05
-3.17149e-05
-2.34453e-05
-3.30956e-05
-6.31135e-06
-3.42542e-05
1.12765e-05
-3.51683e-05
2.91172e-05
-3.5677e-05
4.70935e-05
-3.5939e-05
6.49961e-05
-3.5792e-05
8.26327e-05
-3.5259e-05
9.97842e-05
-3.42936e-05
0.000116254
-3.29375e-05
0.000131818
-3.11171e-05
0.000146297
-2.89511e-05
0.000159486
-2.63682e-05
0.000171205
-2.34298e-05
0.000181292
-2.01682e-05
0.000189614
-1.66418e-05
0.000196061
-1.28801e-05
0.000200543
-8.9562e-06
0.000203005
-4.93414e-06
0.000203489
-9.70647e-07
0.000201925
3.11869e-06
0.000198385
7.08246e-06
0.000192959
1.08453e-05
0.000185762
1.43866e-05
0.000176926
1.7663e-05
0.000166605
2.06357e-05
0.00015498
2.32512e-05
0.00014221
2.55185e-05
0.000128474
2.74512e-05
0.000114004
2.89353e-05
9.89984e-05
3.00034e-05
8.36536e-05
3.06789e-05
6.81471e-05
3.10035e-05
5.26583e-05
3.09682e-05
3.73418e-05
3.06226e-05
2.23439e-05
2.99937e-05
7.80316e-06
2.90711e-05
-6.19488e-06
2.79904e-05
-1.95537e-05
2.67115e-05
-3.22007e-05
2.52886e-05
-4.40803e-05
2.37593e-05
-5.51561e-05
2.21506e-05
-6.54035e-05
2.04904e-05
-7.47987e-05
1.8789e-05
-8.33348e-05
1.70686e-05
-9.10243e-05
1.53801e-05
-9.78495e-05
1.36512e-05
-0.000103828
1.19572e-05
-0.000108987
1.03203e-05
-0.000113323
8.66977e-06
-0.00011685
7.05383e-06
-0.000119583
5.46573e-06
-0.000121534
3.90202e-06
-0.000122721
2.37905e-06
-0.000123163
8.86959e-07
-0.000122865
-6.00602e-07
-0.000121826
-2.07436e-06
-0.000120095
-3.4639e-06
-0.000117643
-4.90386e-06
-0.000114486
-6.30846e-06
-0.000110638
-7.69329e-06
-0.00010612
-9.04059e-06
-0.000100912
-1.04101e-05
-9.507e-05
-1.16856e-05
-8.85785e-05
-1.29814e-05
-8.14651e-05
-1.42248e-05
-7.37459e-05
-1.543e-05
-6.54697e-05
-1.65551e-05
-5.66558e-05
-1.76249e-05
-4.73458e-05
-1.86174e-05
-3.75882e-05
-1.9509e-05
-2.74361e-05
-2.03018e-05
-1.6954e-05
-2.09595e-05
-6.20328e-06
-2.14973e-05
4.7281e-06
-2.18553e-05
1.57763e-05
-2.20903e-05
2.68368e-05
-2.21163e-05
3.78264e-05
-2.19757e-05
4.86298e-05
-2.16006e-05
5.91703e-05
-2.10757e-05
6.93287e-05
-2.03115e-05
7.90208e-05
-1.93808e-05
8.81109e-05
-1.81732e-05
9.65559e-05
-1.6883e-05
0.000104212
-1.53086e-05
0.000111023
-1.36204e-05
0.000116928
-1.18035e-05
0.000121851
-9.84315e-06
0.000125751
-7.79047e-06
0.000128567
-5.64115e-06
0.000130322
-3.50838e-06
0.000131006
-1.3663e-06
0.000130638
7.27712e-07
0.000129234
2.80672e-06
0.000126837
4.78864e-06
0.000123513
6.65389e-06
0.000119293
8.42933e-06
0.000114306
9.97172e-06
0.00010863
1.13452e-05
0.000102344
1.25659e-05
9.55568e-05
1.35694e-05
8.83682e-05
1.43717e-05
8.08782e-05
1.49741e-05
7.31884e-05
1.53744e-05
6.53937e-05
1.55847e-05
5.75849e-05
1.56129e-05
4.98455e-05
1.54742e-05
4.22526e-05
1.51819e-05
3.48743e-05
1.47529e-05
2.77697e-05
1.42061e-05
2.09911e-05
1.35543e-05
1.4583e-05
1.28138e-05
8.60059e-06
1.19641e-05
3.01269e-06
1.11719e-05
-2.11807e-06
1.02608e-05
-6.78262e-06
9.32818e-06
-1.09759e-05
8.38593e-06
-1.46975e-05
7.44291e-06
-1.79501e-05
6.50488e-06
-2.07409e-05
5.58148e-06
-2.308e-05
4.67867e-06
-2.49821e-05
3.80443e-06
-2.64624e-05
2.96115e-06
-2.75394e-05
2.15414e-06
-2.82324e-05
1.38674e-06
-2.85638e-05
6.64082e-07
-2.85545e-05
-1.76564e-08
-2.82264e-05
-6.55439e-07
-2.76017e-05
-1.24832e-06
-2.67029e-05
-1.79673e-06
-2.55524e-05
-2.3001e-06
-2.41719e-05
-2.75998e-06
-2.25842e-05
-3.17486e-06
-2.08111e-05
-3.54585e-06
-1.88695e-05
-3.88165e-06
-1.6784e-05
-4.17011e-06
-1.45746e-05
-4.41778e-06
-1.22609e-05
-4.62634e-06
-9.86313e-06
-4.79451e-06
-7.40277e-06
-4.9203e-06
-4.89392e-06
-5.01626e-06
-2.35814e-06
-5.07078e-06
1.88637e-07
-5.09196e-06
2.72896e-06
-5.07936e-06
5.24609e-06
-5.03324e-06
7.72478e-06
-4.95643e-06
1.01495e-05
-4.84841e-06
1.25064e-05
-4.71287e-06
1.47831e-05
-4.55247e-06
1.69673e-05
-4.36768e-06
1.90498e-05
-4.16425e-06
2.1019e-05
-3.9378e-06
2.28677e-05
-3.69679e-06
2.45893e-05
-3.44268e-06
2.61777e-05
-3.17626e-06
2.76281e-05
-2.90046e-06
2.89376e-05
-2.61873e-06
3.01037e-05
-2.3319e-06
3.11255e-05
-2.04349e-06
3.20028e-05
-1.75452e-06
3.27365e-05
-1.46744e-06
3.3329e-05
-1.18493e-06
3.37841e-05
-9.10072e-07
3.41048e-05
-6.41476e-07
3.42946e-05
-3.80051e-07
3.4358e-05
-1.27002e-07
3.42954e-05
1.24944e-07
3.41162e-05
3.58052e-07
3.38283e-05
5.75557e-07
3.34397e-05
7.76769e-07
3.29577e-05
9.63754e-07
3.23895e-05
1.13584e-06
3.17436e-05
1.29155e-06
3.10271e-05
1.43253e-06
3.02483e-05
1.55716e-06
2.94146e-05
1.66693e-06
2.85335e-05
1.76176e-06
2.76128e-05
1.84102e-06
2.66594e-05
1.90644e-06
2.56801e-05
1.95836e-06
2.46816e-05
1.9966e-06
2.367e-05
2.02278e-06
2.26511e-05
2.03745e-06
2.16306e-05
2.04074e-06
2.06134e-05
2.03424e-06
1.96041e-05
2.01815e-06
1.86071e-05
1.99388e-06
1.76259e-05
1.96217e-06
1.66641e-05
1.92336e-06
1.57246e-05
1.87884e-06
1.48099e-05
1.82923e-06
1.39224e-05
1.77492e-06
1.30637e-05
1.71714e-06
1.22356e-05
1.65615e-06
1.1439e-05
1.59298e-06
1.06749e-05
1.5281e-06
9.94394e-06
1.46192e-06
9.24629e-06
1.39524e-06
8.58201e-06
1.32849e-06
7.95096e-06
1.26205e-06
7.35269e-06
1.19651e-06
6.78664e-06
1.13206e-06
6.25213e-06
1.06898e-06
5.74848e-06
1.00727e-06
5.27516e-06
9.46614e-07
4.8316e-06
8.8709e-07
8.28806e-07
-4.97866e-05
-4.16485e-05
-3.46763e-05
-4.53218e-05
-1.85145e-05
-4.84976e-05
-1.37466e-06
-5.13591e-05
1.64157e-05
-5.33435e-05
3.46347e-05
-5.46074e-05
5.3412e-05
-5.62727e-05
7.23457e-05
-5.67389e-05
9.10935e-05
-5.61831e-05
0.00010962
-5.55251e-05
0.000127643
-5.40156e-05
0.000144808
-5.14435e-05
0.000160925
-4.82996e-05
0.000175738
-4.43621e-05
0.000188979
-3.9662e-05
0.000200437
-3.43057e-05
0.000209803
-2.80631e-05
0.00021691
-2.13123e-05
0.000221658
-1.4215e-05
0.000224009
-7.01495e-06
0.000223812
5.07848e-07
0.000221089
8.07999e-06
0.000215757
1.59771e-05
0.000208132
2.28308e-05
0.000198236
2.96554e-05
0.00018644
3.53501e-05
0.000172836
4.07667e-05
0.00015759
4.56896e-05
0.000141108
4.93978e-05
0.000123577
5.25442e-05
0.000105263
5.4905e-05
8.64371e-05
5.63964e-05
6.73205e-05
5.73112e-05
4.81228e-05
5.75371e-05
2.91792e-05
5.68484e-05
1.05989e-05
5.56596e-05
-7.49157e-06
5.42275e-05
-2.49355e-05
5.22977e-05
-4.15863e-05
4.9927e-05
-5.73493e-05
4.72683e-05
-7.21725e-05
4.44543e-05
-8.60037e-05
4.14844e-05
-9.88507e-05
3.85318e-05
-0.000110671
3.54524e-05
-0.000121488
3.24558e-05
-0.000131333
2.9538e-05
-0.000140201
2.66046e-05
-0.000148139
2.38158e-05
-0.000155206
2.11983e-05
-0.000161408
1.86017e-05
-0.000166787
1.61351e-05
-0.000171394
1.38194e-05
-0.000175238
1.15339e-05
-0.000178387
9.44765e-06
-0.00018082
7.30903e-06
-0.000182524
5.11802e-06
-0.000183575
3.1481e-06
-0.000183889
9.54458e-07
-0.000183345
-1.62881e-06
-0.000182048
-3.87282e-06
-0.000179845
-6.62858e-06
-0.000176863
-8.96249e-06
-0.000173032
-1.14961e-05
-0.000168228
-1.44277e-05
-0.000162631
-1.6738e-05
-0.000156206
-1.9264e-05
-0.000148724
-2.24619e-05
-0.00014041
-2.49405e-05
-0.000131075
-2.8006e-05
-0.000120828
-3.07388e-05
-0.000109831
-3.29857e-05
-9.79727e-05
-3.55621e-05
-8.5287e-05
-3.80379e-05
-7.19176e-05
-4.01003e-05
-5.78282e-05
-4.22602e-05
-4.31665e-05
-4.39302e-05
-2.78863e-05
-4.58642e-05
-1.20236e-05
-4.75765e-05
4.26651e-06
-4.88604e-05
2.09353e-05
-4.99848e-05
3.78917e-05
-5.08371e-05
5.50368e-05
-5.14083e-05
7.22117e-05
-5.15012e-05
8.92967e-05
-5.12241e-05
0.000106121
-5.04427e-05
0.000122502
-4.91e-05
0.000138222
-4.71187e-05
0.000153076
-4.4505e-05
0.000166823
-4.1173e-05
0.000179187
-3.70465e-05
0.000189975
-3.22986e-05
0.00019888
-2.66995e-05
0.000205776
-2.06664e-05
0.000210447
-1.39835e-05
0.000212795
-6.9855e-06
0.000212706
2.46813e-07
0.000210123
7.69819e-06
0.00020504
1.52449e-05
0.000197533
2.25029e-05
0.0001877
2.94773e-05
0.000175689
3.60009e-05
0.000161692
4.18829e-05
0.000145973
4.71564e-05
0.000128793
5.14741e-05
0.000110465
5.4917e-05
9.13585e-05
5.72387e-05
7.17947e-05
5.86e-05
5.21058e-05
5.90213e-05
3.25707e-05
5.85465e-05
1.3528e-05
5.70974e-05
-4.77973e-06
5.48901e-05
-2.21895e-05
5.21991e-05
-3.85632e-05
4.9091e-05
-5.38248e-05
4.57822e-05
-6.79291e-05
4.23154e-05
-8.08924e-05
3.88918e-05
-9.27218e-05
3.55054e-05
-0.000103491
3.23237e-05
-0.000113268
2.93355e-05
-0.000122124
2.65868e-05
-0.000130137
2.40374e-05
-0.000137365
2.16927e-05
-0.000143867
1.95226e-05
-0.0001497
1.75269e-05
-0.000154958
1.57867e-05
-0.00015961
1.39529e-05
-0.000163725
1.23349e-05
-0.000167298
1.07088e-05
-0.00017034
9.12274e-06
-0.000172838
7.50107e-06
-0.000174785
5.84907e-06
-0.000176154
4.09318e-06
-0.000176918
2.28573e-06
-0.000177034
3.38776e-07
-0.000176461
-1.72715e-06
-0.000175131
-3.99859e-06
-0.000173009
-6.36819e-06
-0.000170039
-8.90709e-06
-0.000166171
-1.16262e-05
-0.000161347
-1.44811e-05
-0.000155521
-1.74773e-05
-0.000148661
-2.05895e-05
-0.000140752
-2.37312e-05
-0.000131751
-2.69999e-05
-0.000121683
-3.02036e-05
-0.000110534
-3.34673e-05
-9.83534e-05
-3.65045e-05
-8.51475e-05
-3.96013e-05
-7.09861e-05
-4.24661e-05
-5.59061e-05
-4.51886e-05
-4.0049e-05
-4.75721e-05
-2.34901e-05
-4.96547e-05
-6.34852e-06
-5.13959e-05
1.1247e-05
-5.2764e-05
2.9112e-05
-5.35421e-05
4.71045e-05
-5.39316e-05
6.50157e-05
-5.37034e-05
8.26684e-05
-5.29118e-05
9.98422e-05
-5.14676e-05
0.000116333
-4.94281e-05
0.000131919
-4.67038e-05
0.000146413
-4.34455e-05
0.000159614
-3.9569e-05
0.000171346
-3.51621e-05
0.000181445
-3.02671e-05
0.000189773
-2.49703e-05
0.000196218
-1.93251e-05
0.00020071
-1.34479e-05
0.000203182
-7.40645e-06
0.000203646
-1.43485e-06
0.000202065
4.69949e-06
0.000198524
1.06236e-05
0.000193096
1.62733e-05
0.000185892
2.15897e-05
0.000177046
2.65094e-05
0.000166715
3.09668e-05
0.000155078
3.48881e-05
0.000142277
3.83193e-05
0.000128519
4.12088e-05
0.00011404
4.34146e-05
9.90273e-05
4.50159e-05
8.36644e-05
4.60418e-05
6.81452e-05
4.65227e-05
5.26366e-05
4.64767e-05
3.73119e-05
4.59472e-05
2.23157e-05
4.49899e-05
7.75735e-06
4.36294e-05
-6.24661e-06
4.19943e-05
-1.96098e-05
4.00747e-05
-3.226e-05
3.79387e-05
-4.41453e-05
3.56445e-05
-5.52261e-05
3.32313e-05
-6.54753e-05
3.07397e-05
-7.48719e-05
2.81856e-05
-8.34114e-05
2.56081e-05
-9.10952e-05
2.30639e-05
-9.79197e-05
2.04757e-05
-0.0001039
1.79372e-05
-0.000109044
1.54647e-05
-0.000113389
1.30143e-05
-0.000116915
1.05802e-05
-0.000119647
8.19757e-06
-0.000121597
5.85213e-06
-0.000122785
3.56744e-06
-0.000123224
1.32542e-06
-0.000122924
-9.00302e-07
-0.000121881
-3.11768e-06
-0.000120148
-5.19718e-06
-0.000117694
-7.35773e-06
-0.000114539
-9.46354e-06
-0.000110692
-1.15401e-05
-0.000106172
-1.35606e-05
-0.00010096
-1.56222e-05
-9.51187e-05
-1.75269e-05
-8.86258e-05
-1.94743e-05
-8.1511e-05
-2.13397e-05
-7.37788e-05
-2.31623e-05
-6.55088e-05
-2.4825e-05
-5.66905e-05
-2.64433e-05
-4.73778e-05
-2.79302e-05
-3.76077e-05
-2.9279e-05
-2.74576e-05
-3.0452e-05
-1.69706e-05
-3.14465e-05
-6.21469e-06
-3.22532e-05
4.72867e-06
-3.27987e-05
1.57792e-05
-3.3141e-05
2.68453e-05
-3.31824e-05
3.78425e-05
-3.2973e-05
4.8658e-05
-3.24161e-05
5.92064e-05
-3.16242e-05
6.93724e-05
-3.04777e-05
7.90688e-05
-2.90772e-05
8.81684e-05
-2.72728e-05
9.66221e-05
-2.53368e-05
0.000104281
-2.29675e-05
0.000111099
-2.04383e-05
0.000117006
-1.77109e-05
0.000121934
-1.47715e-05
0.000125844
-1.17001e-05
0.000128658
-8.45504e-06
0.000130411
-5.26152e-06
0.000131095
-2.05049e-06
0.00013072
1.10281e-06
0.000129309
4.21784e-06
0.000126907
7.18975e-06
0.000123582
9.97897e-06
0.000119355
1.26564e-05
0.000114364
1.49631e-05
0.000108677
1.70316e-05
0.000102383
1.88598e-05
9.55884e-05
2.03643e-05
8.83918e-05
2.15683e-05
8.08941e-05
2.24717e-05
7.31966e-05
2.30719e-05
6.53945e-05
2.33869e-05
5.75791e-05
2.34282e-05
4.98334e-05
2.32198e-05
4.22351e-05
2.27802e-05
3.48521e-05
2.21358e-05
2.77438e-05
2.13144e-05
2.09623e-05
2.03358e-05
1.45516e-05
1.92244e-05
8.56885e-06
1.79468e-05
2.97531e-06
1.67654e-05
-2.1551e-06
1.53912e-05
-6.81986e-06
1.39929e-05
-1.10132e-05
1.25793e-05
-1.47348e-05
1.11645e-05
-1.79868e-05
9.75691e-06
-2.07766e-05
8.37125e-06
-2.31147e-05
7.01679e-06
-2.50156e-05
5.70535e-06
-2.64947e-05
4.44025e-06
-2.757e-05
3.22937e-06
-2.82613e-05
2.07803e-06
-2.85909e-05
9.93685e-07
-2.85797e-05
-2.87892e-08
-2.82496e-05
-9.85555e-07
-2.76232e-05
-1.87477e-06
-2.67228e-05
-2.69716e-06
-2.55706e-05
-3.45228e-06
-2.41883e-05
-4.14221e-06
-2.25988e-05
-4.76438e-06
-2.08243e-05
-5.32037e-06
-1.88809e-05
-5.82505e-06
-1.67937e-05
-6.25729e-06
-1.45828e-05
-6.62871e-06
-1.22676e-05
-6.94156e-06
-9.86824e-06
-7.19386e-06
-7.40642e-06
-7.38212e-06
-4.89616e-06
-7.52652e-06
-2.35895e-06
-7.60799e-06
1.89073e-07
-7.63999e-06
2.73058e-06
-7.62087e-06
5.249e-06
-7.55166e-06
7.72897e-06
-7.4364e-06
1.01548e-05
-7.27422e-06
1.25128e-05
-7.07084e-06
1.47903e-05
-6.83003e-06
1.69754e-05
-6.55276e-06
1.90586e-05
-6.24746e-06
2.10285e-05
-5.90771e-06
2.28778e-05
-5.54605e-06
2.45999e-05
-5.16477e-06
2.61886e-05
-4.76501e-06
2.76393e-05
-4.35117e-06
2.8949e-05
-3.92846e-06
3.01152e-05
-3.49808e-06
3.11371e-05
-3.06535e-06
3.20143e-05
-2.63178e-06
3.27479e-05
-2.20103e-06
3.33402e-05
-1.77715e-06
3.37951e-05
-1.36498e-06
3.41155e-05
-9.61927e-07
3.43049e-05
-5.69425e-07
3.43678e-05
-1.89932e-07
3.43044e-05
1.88381e-07
3.41246e-05
5.37819e-07
3.38361e-05
8.6402e-07
3.3447e-05
1.16589e-06
3.29644e-05
1.4464e-06
3.23957e-05
1.70455e-06
3.17491e-05
1.93813e-06
3.1032e-05
2.1496e-06
3.02526e-05
2.33655e-06
2.94183e-05
2.5012e-06
2.85367e-05
2.64342e-06
2.76154e-05
2.76229e-06
2.66615e-05
2.86038e-06
2.56816e-05
2.93823e-06
2.46826e-05
2.99557e-06
2.36706e-05
3.0348e-06
2.26513e-05
3.05677e-06
2.16304e-05
3.06165e-06
2.06127e-05
3.05186e-06
1.96032e-05
3.02769e-06
1.86058e-05
2.99125e-06
1.76244e-05
2.94363e-06
1.66624e-05
2.88538e-06
1.57226e-05
2.81856e-06
1.48078e-05
2.74411e-06
1.39201e-05
2.6626e-06
1.30613e-05
2.5759e-06
1.22331e-05
2.48437e-06
1.14365e-05
2.38959e-06
1.06723e-05
2.29225e-06
9.94131e-06
2.19294e-06
9.24365e-06
2.0929e-06
8.57939e-06
1.99275e-06
7.94836e-06
1.89308e-06
7.35013e-06
1.79475e-06
6.78413e-06
1.69805e-06
6.24968e-06
1.60344e-06
5.74609e-06
1.51085e-06
5.27282e-06
1.41988e-06
4.82932e-06
1.33059e-06
1.24317e-06
-4.98929e-05
-5.5539e-05
-3.47763e-05
-6.04388e-05
-1.8596e-05
-6.46782e-05
-1.4453e-06
-6.85101e-05
1.63642e-05
-7.11533e-05
3.46144e-05
-7.28579e-05
5.34284e-05
-7.5087e-05
7.24037e-05
-7.57145e-05
9.11961e-05
-7.49757e-05
0.000109765
-7.40944e-05
0.000127828
-7.20783e-05
0.000145029
-6.86449e-05
0.000161178
-6.44487e-05
0.00017602
-5.92042e-05
0.000189283
-5.29261e-05
0.000200765
-4.57871e-05
0.000210159
-3.74578e-05
0.000217293
-2.84464e-05
0.000222045
-1.89668e-05
0.000224384
-9.35434e-06
0.000224136
7.55351e-07
0.000221375
1.0841e-05
0.000216023
2.13285e-05
0.000208381
3.04729e-05
0.000198468
3.95685e-05
0.000186649
4.71687e-05
0.00017302
5.43955e-05
0.000157747
6.09627e-05
0.000141236
6.59091e-05
0.000123679
7.0101e-05
0.000105347
7.32364e-05
8.64689e-05
7.52747e-05
6.73305e-05
7.64495e-05
4.81001e-05
7.67674e-05
2.91687e-05
7.57798e-05
1.05412e-05
7.42871e-05
-7.57728e-06
7.2346e-05
-2.50402e-05
6.97606e-05
-4.17026e-05
6.65893e-05
-5.74753e-05
6.3041e-05
-7.23073e-05
5.92863e-05
-8.61454e-05
5.53224e-05
-9.8997e-05
5.13834e-05
-0.000110824
4.72792e-05
-0.000121639
4.32707e-05
-0.000131481
3.93806e-05
-0.00014035
3.54729e-05
-0.000148287
3.17531e-05
-0.000155352
2.82633e-05
-0.000161552
2.48019e-05
-0.000166928
2.15113e-05
-0.000171532
1.84232e-05
-0.000175374
1.53761e-05
-0.000178524
1.2597e-05
-0.000180959
9.74463e-06
-0.000182665
6.82429e-06
-0.000183707
4.18966e-06
-0.000184006
1.25315e-06
-0.000183457
-2.17771e-06
-0.000182145
-5.1849e-06
-0.000179966
-8.80707e-06
-0.000176985
-1.19437e-05
-0.000173153
-1.53282e-05
-0.000168355
-1.92255e-05
-0.000162734
-2.236e-05
-0.000156289
-2.57087e-05
-0.000148835
-2.99158e-05
-0.000140522
-3.32537e-05
-0.000131185
-3.73429e-05
-0.000120937
-4.09871e-05
-0.000109936
-4.39868e-05
-9.80712e-05
-4.74271e-05
-8.53822e-05
-5.0727e-05
-7.20114e-05
-5.34713e-05
-5.79115e-05
-5.63602e-05
-4.32109e-05
-5.8631e-05
-2.79594e-05
-6.11159e-05
-1.2092e-05
-6.34442e-05
4.20711e-06
-6.51597e-05
2.08897e-05
-6.66676e-05
3.7859e-05
-6.78067e-05
5.50178e-05
-6.85674e-05
7.22081e-05
-6.86918e-05
8.93181e-05
-6.83343e-05
0.000106168
-6.72929e-05
0.000122577
-6.55091e-05
0.000138321
-6.28632e-05
0.000153205
-5.93887e-05
0.000166986
-5.4955e-05
0.000179376
-4.9436e-05
0.000190195
-4.31183e-05
0.000199121
-3.56259e-05
0.000206046
-2.7591e-05
0.000210729
-1.86671e-05
0.000213082
-9.33787e-06
0.000212981
3.47058e-07
0.000210388
1.02911e-05
0.000205307
2.03254e-05
0.000197791
3.00191e-05
0.000187942
3.93262e-05
0.000175908
4.80344e-05
0.000161864
5.59267e-05
0.000146135
6.2886e-05
0.000128906
6.87025e-05
0.000110547
7.32762e-05
9.13932e-05
7.63925e-05
7.17682e-05
7.82248e-05
5.20252e-05
7.87642e-05
3.24967e-05
7.8075e-05
1.34287e-05
7.61653e-05
-4.89966e-06