/*--------------------------------*- C++ -*----------------------------------*\
| =========                 |                                                 |
| \\      /  F ield         | OpenFOAM: The Open Source CFD Toolbox           |
|  \\    /   O peration     | Version:  3.0.1                                 |
|   \\  /    A nd           | Web:      www.OpenFOAM.org                      |
|    \\/     M anipulation  |                                                 |
\*---------------------------------------------------------------------------*/
FoamFile
{
    version     2.0;
    format      ascii;
    class       volScalarField;
    location    "17.8";
    object      p;
}
// * * * * * * * * * * * * * * * * * * * * * * * * * * * * * * * * * * * * * //

dimensions      [1 -1 -2 0 0 0 0];

internalField   nonuniform List<scalar> 
21420
(
3552.01
3546.17
3541.73
3538.67
3537.05
3536.85
3538
3540.59
3544.63
3550.14
3557.14
3565.69
3575.82
3587.6
3601.08
3616.3
3633.31
3652.14
3672.79
3695.29
3719.59
3745.66
3773.44
3802.81
3833.63
3865.75
3898.63
3932.41
3966.75
4001.24
4035.48
4069.13
4101.73
4132.89
4162.17
4189.16
4213.5
4234.85
4252.9
4267.4
4278.15
4285
4287.84
4286.11
4280.34
4270.65
4257.12
4239.99
4219.49
4195.91
4169.59
4140.89
4110.21
4077.93
4044.46
4010.24
3975.61
3940.97
3906.84
3874.54
3842.29
3811.06
3781.14
3752.71
3725.89
3700.81
3677.51
3656.03
3636.4
3618.61
3602.67
3588.54
3576.21
3565.64
3556.82
3549.73
3544.33
3540.58
3538.49
3538.04
3539.15
3541.81
3546.02
3551.76
3559
3567.74
3577.96
3589.67
3602.83
3617.47
3633.58
3651.17
3670.27
3690.89
3713.04
3736.7
3761.84
3788.43
3816.36
3845.53
3875.78
3906.92
3938.73
3970.95
4003.3
4035.46
4067.1
4097.86
4127.39
4155.3
4181.23
4204.8
4225.65
4243.46
4257.91
4268.73
4275.72
4278.67
4277.53
4272.24
4262.88
4249.51
4232.32
4211.58
4187.58
4160.69
4131.32
4099.89
4066.86
4032.7
3997.87
3962.81
3927.96
3893.71
3860.42
3828.38
3797.86
3769.05
3742.11
3717.13
3694.17
3673.24
3654.3
3637.33
3622.24
3608.95
3597.37
3587.41
3578.97
3571.97
3566.34
3562.02
3558.95
3557.09
3556.44
3557
3558.73
3561.68
3565.87
3571.35
3578.16
3586.37
3596.04
3607.23
3620
3634.43
3650.59
3668.52
3688.26
3709.83
3733.24
3758.43
3785.34
3813.88
3843.86
3875.11
3907.39
3940.39
3973.77
4007.18
4040.23
4072.52
4103.62
4133.13
4160.63
4185.76
4208.15
4227.48
4243.48
4255.92
4264.64
4269.52
4270.44
4267.55
4260.8
4250.33
4236.31
4218.96
4198.53
4175.31
4149.61
4121.79
4092.18
4061.14
4029.03
3996.19
3962.97
3929.71
3896.71
3864.28
3832.69
3802.2
3773.03
3745.38
3719.4
3695.22
3672.94
3652.63
3634.32
3618.02
3603.73
3591.4
3580.99
3572.44
3565.69
3560.64
3557.21
3555.33
3554.95
3555.93
3558.24
3561.83
3566.66
3572.7
3579.95
3588.43
3598.15
3609.14
3621.47
3635.18
3650.34
3667.02
3685.27
3705.14
3726.67
3749.89
3774.76
3801.25
3829.27
3858.69
3889.34
3921.05
3953.4
3986.13
4018.88
4051.26
4082.85
4113.21
4141.91
4168.53
4192.65
4213.91
4231.97
4246.55
4257.43
4264.45
4267.48
4266.51
4261.59
4252.83
4240.34
4224.37
4205.17
4183.04
4158.32
4131.38
4102.6
4072.38
4041.09
4009.13
3976.87
3944.65
3912.83
3882.27
3852.09
3822.95
3795.04
3768.5
3743.42
3719.87
3697.9
3677.53
3658.77
3641.62
3626.07
3612.13
3599.76
3588.97
3579.73
3572.04
3565.88
3561.26
3558.13
3556.54
3556.48
3557.89
3560.8
3565.23
3571.16
3578.63
3587.67
3598.28
3610.52
3624.43
3640.01
3657.3
3676.28
3696.96
3719.3
3743.25
3768.71
3795.58
3823.71
3852.9
3882.9
3913.18
3944.03
3975.1
4006
4036.38
4065.91
4094.24
4121
4145.87
4168.53
4188.68
4206.05
4220.41
4231.57
4239.38
4243.75
4244.5
4241.74
4235.53
4225.95
4213.15
4197.33
4178.74
4157.65
4134.39
4109.29
4082.72
4055.06
4026.73
3998.29
3970.45
3944.98
3453.85
3448.01
3443.57
3440.52
3438.9
3438.7
3439.85
3442.43
3446.48
3451.98
3458.98
3467.52
3477.66
3489.43
3502.91
3518.12
3535.13
3553.96
3574.61
3597.1
3621.41
3647.48
3675.26
3704.63
3735.46
3767.58
3800.47
3834.27
3868.62
3903.12
3937.38
3971.04
4003.67
4034.84
4064.14
4091.14
4115.5
4136.87
4154.93
4169.44
4180.2
4187.06
4189.91
4188.16
4182.39
4172.7
4159.15
4142.01
4121.5
4097.9
4071.56
4042.84
4012.14
3979.85
3946.37
3912.12
3877.48
3842.83
3808.69
3776.38
3744.12
3712.89
3682.97
3654.53
3627.71
3602.63
3579.32
3557.85
3538.22
3520.43
3504.49
3490.37
3478.04
3467.47
3458.65
3451.56
3446.16
3442.42
3440.32
3439.87
3440.99
3443.65
3447.86
3453.59
3460.84
3469.57
3479.8
3491.51
3504.67
3519.3
3535.41
3553.01
3572.1
3592.72
3614.87
3638.53
3663.67
3690.26
3718.19
3747.37
3777.62
3808.77
3840.59
3872.82
3905.18
3937.35
3969.01
3999.79
4029.33
4057.26
4083.2
4106.79
4127.66
4145.48
4159.94
4170.78
4177.78
4180.74
4179.59
4174.3
4164.93
4151.55
4134.35
4113.59
4089.58
4062.67
4033.27
4001.83
3968.78
3934.6
3899.75
3864.68
3829.81
3795.55
3762.24
3730.2
3699.67
3670.86
3643.92
3618.94
3595.98
3575.05
3556.12
3539.15
3524.06
3510.78
3499.2
3489.25
3480.81
3473.82
3468.19
3463.87
3460.8
3458.94
3458.29
3458.85
3460.58
3463.53
3467.72
3473.2
3480.01
3488.21
3497.88
3509.06
3521.83
3536.26
3552.42
3570.34
3590.08
3611.65
3635.05
3660.25
3687.16
3715.7
3745.69
3776.95
3809.24
3842.24
3875.64
3909.07
3942.13
3974.44
4005.56
4035.08
4062.61
4087.75
4110.15
4129.5
4145.51
4157.96
4166.69
4171.57
4172.5
4169.59
4162.84
4152.36
4138.33
4120.97
4100.52
4077.29
4051.58
4023.74
3994.11
3963.06
3930.93
3898.08
3864.85
3831.57
3798.57
3766.13
3734.53
3704.03
3674.86
3647.2
3621.21
3597.03
3574.76
3554.44
3536.13
3519.84
3505.55
3493.22
3482.81
3474.27
3467.52
3462.47
3459.04
3457.17
3456.79
3457.78
3460.09
3463.68
3468.51
3474.55
3481.8
3490.28
3499.99
3510.99
3523.31
3537.01
3552.17
3568.85
3587.09
3606.96
3628.5
3651.71
3676.58
3703.07
3731.1
3760.53
3791.18
3822.9
3855.26
3888
3920.77
3953.16
3984.77
4015.15
4043.87
4070.51
4094.65
4115.92
4134
4148.59
4159.48
4166.51
4169.54
4168.57
4163.63
4154.87
4142.37
4126.39
4107.17
4085.02
4060.29
4033.33
4004.54
3974.3
3942.99
3911.02
3878.75
3846.51
3814.69
3784.12
3753.93
3724.78
3696.87
3670.33
3645.25
3621.7
3599.72
3579.35
3560.6
3543.45
3527.91
3513.96
3501.6
3490.8
3481.57
3473.88
3467.72
3463.1
3459.97
3458.38
3458.32
3459.73
3462.65
3467.07
3473
3480.47
3489.5
3500.12
3512.36
3526.26
3541.84
3559.12
3578.11
3598.78
3621.13
3645.08
3670.54
3697.42
3725.55
3754.75
3784.75
3815.04
3845.9
3876.98
3907.9
3938.29
3967.84
3996.18
4022.96
4047.85
4070.51
4090.68
4108.06
4122.43
4133.6
4141.42
4145.79
4146.55
4143.78
4137.56
4127.97
4115.16
4099.33
4080.73
4059.62
4036.35
4011.23
3984.65
3956.97
3928.62
3900.17
3872.32
3846.84
3355.64
3349.8
3345.36
3342.31
3340.69
3340.49
3341.63
3344.22
3348.26
3353.76
3360.75
3369.29
3379.42
3391.2
3404.66
3419.87
3436.88
3455.7
3476.35
3498.84
3523.14
3549.22
3577
3606.38
3637.21
3669.35
3702.27
3736.08
3770.45
3804.99
3839.28
3872.97
3905.63
3936.84
3966.18
3993.22
4017.61
4039.01
4057.09
4071.62
4082.4
4089.27
4092.14
4090.37
4084.6
4074.88
4061.32
4044.16
4023.62
3999.98
3973.61
3944.85
3914.12
3881.79
3848.27
3814
3779.33
3744.65
3710.49
3678.15
3645.88
3614.64
3584.71
3556.26
3529.45
3504.36
3481.06
3459.59
3439.96
3422.18
3406.24
3392.12
3379.79
3369.23
3360.41
3353.32
3347.93
3344.19
3342.1
3341.65
3342.76
3345.42
3349.63
3355.37
3362.62
3371.35
3381.58
3393.28
3406.45
3421.08
3437.18
3454.77
3473.87
3494.48
3516.63
3540.28
3565.43
3592.02
3619.96
3649.14
3679.41
3710.58
3742.41
3774.67
3807.05
3839.25
3870.93
3901.74
3931.32
3959.28
3985.26
4008.88
4029.78
4047.63
4062.12
4072.98
4079.99
4082.97
4081.8
4076.51
4067.14
4053.73
4036.51
4015.72
3991.67
3964.72
3935.29
3903.8
3870.71
3836.49
3801.61
3766.5
3731.61
3697.33
3664
3631.94
3601.4
3572.58
3545.63
3520.66
3497.7
3476.77
3457.85
3440.89
3425.81
3412.53
3400.97
3391.02
3382.6
3375.61
3369.99
3365.67
3362.6
3360.74
3360.1
3360.65
3362.38
3365.33
3369.52
3374.99
3381.79
3389.99
3399.65
3410.83
3423.59
3438.02
3454.17
3472.09
3491.82
3513.38
3536.79
3561.98
3588.9
3617.45
3647.45
3678.73
3711.03
3744.06
3777.48
3810.94
3844.04
3876.38
3907.54
3937.1
3964.66
3989.83
4012.27
4031.64
4047.68
4060.15
4068.88
4073.77
4074.72
4071.78
4065.03
4054.53
4040.48
4023.09
4002.62
3979.35
3953.61
3925.74
3896.08
3864.99
3832.84
3799.96
3766.7
3733.4
3700.37
3667.91
3636.3
3605.79
3576.6
3548.93
3522.94
3498.76
3476.48
3456.17
3437.86
3421.57
3407.28
3394.96
3384.56
3376.02
3369.28
3364.24
3360.82
3358.96
3358.58
3359.57
3361.89
3365.48
3370.31
3376.35
3383.6
3392.07
3401.79
3412.78
3425.09
3438.79
3453.94
3470.61
3488.85
3508.71
3530.24
3553.45
3578.33
3604.82
3632.85
3662.29
3692.96
3724.7
3757.08
3789.85
3822.65
3855.08
3886.72
3917.14
3945.9
3972.57
3996.75
4018.05
4036.16
4050.78
4061.68
4068.71
4071.76
4070.77
4065.83
4057.05
4044.54
4028.53
4009.28
3987.1
3962.33
3935.34
3906.51
3876.23
3844.9
3812.9
3780.6
3748.34
3716.49
3685.91
3655.7
3626.55
3598.63
3572.08
3547
3523.45
3501.48
3481.11
3462.36
3445.21
3429.67
3415.73
3403.37
3392.58
3383.34
3375.65
3369.5
3364.88
3361.76
3360.17
3360.1
3361.52
3364.43
3368.85
3374.78
3382.25
3391.28
3401.89
3414.12
3428.02
3443.6
3460.88
3479.86
3500.53
3522.88
3546.83
3572.3
3599.19
3627.33
3656.54
3686.56
3716.86
3747.75
3778.85
3809.8
3840.22
3869.79
3898.17
3924.97
3949.89
3972.59
3992.78
4010.19
4024.57
4035.75
4043.58
4047.96
4048.73
4045.95
4039.72
4030.12
4017.29
4001.43
3982.8
3961.67
3938.36
3913.21
3886.6
3858.89
3830.51
3802.03
3774.16
3748.65
3257.36
3251.53
3247.09
3244.05
3242.43
3242.22
3243.36
3245.95
3249.99
3255.48
3262.47
3271
3281.12
3292.89
3306.34
3321.55
3338.55
3357.36
3378
3400.49
3424.8
3450.87
3478.66
3508.05
3538.9
3571.05
3604
3637.84
3672.26
3706.83
3741.17
3774.91
3807.62
3838.89
3868.28
3895.38
3919.82
3941.26
3959.39
3973.95
3984.75
3991.64
3994.53
3992.73
3986.95
3977.22
3963.63
3946.42
3925.84
3902.16
3875.73
3846.92
3816.13
3783.75
3750.18
3715.86
3681.15
3646.43
3612.24
3579.86
3547.57
3516.31
3486.37
3457.92
3431.1
3406.01
3382.71
3361.24
3341.62
3323.84
3307.91
3293.8
3281.47
3270.91
3262.1
3255.02
3249.63
3245.89
3243.81
3243.36
3244.47
3247.14
3251.35
3257.09
3264.33
3273.07
3283.3
3295
3308.16
3322.79
3338.89
3356.48
3375.56
3396.17
3418.31
3441.97
3467.12
3493.71
3521.66
3550.86
3581.14
3612.33
3644.2
3676.48
3708.9
3741.14
3772.86
3803.72
3833.35
3861.36
3887.39
3911.06
3932.01
3949.9
3964.43
3975.32
3982.36
3985.36
3984.19
3978.89
3969.49
3956.06
3938.8
3917.96
3893.86
3866.85
3837.36
3805.81
3772.66
3738.39
3703.45
3668.3
3633.36
3599.04
3565.68
3533.6
3503.04
3474.21
3447.26
3422.28
3399.33
3378.41
3359.5
3342.55
3327.49
3314.22
3302.67
3292.74
3284.32
3277.35
3271.73
3267.42
3264.35
3262.5
3261.86
3262.41
3264.14
3267.08
3271.26
3276.73
3283.53
3291.72
3301.36
3312.53
3325.28
3339.7
3355.84
3373.75
3393.47
3415.04
3438.44
3463.63
3490.56
3519.12
3549.14
3580.44
3612.77
3645.84
3679.3
3712.8
3745.95
3778.34
3809.56
3839.17
3866.79
3892.01
3914.49
3933.91
3949.98
3962.48
3971.23
3976.13
3977.09
3974.13
3967.36
3956.84
3942.76
3925.33
3904.81
3881.5
3855.71
3827.79
3798.08
3766.95
3734.75
3701.83
3668.53
3635.19
3602.13
3569.64
3538.01
3507.48
3478.27
3450.59
3424.59
3400.4
3378.12
3357.81
3339.51
3323.22
3308.94
3296.63
3286.23
3277.71
3270.97
3265.95
3262.54
3260.69
3260.32
3261.31
3263.64
3267.23
3272.06
3278.11
3285.35
3293.82
3303.53
3314.51
3326.82
3340.51
3355.65
3372.31
3390.54
3410.39
3431.91
3455.12
3479.99
3506.49
3534.53
3563.98
3594.67
3626.45
3658.86
3691.67
3724.51
3756.99
3788.69
3819.17
3847.98
3874.71
3898.94
3920.3
3938.45
3953.1
3964.03
3971.08
3974.14
3973.13
3968.18
3959.38
3946.83
3930.79
3911.49
3889.26
3864.44
3837.4
3808.52
3778.19
3746.81
3714.76
3682.42
3650.13
3618.26
3587.64
3557.42
3528.25
3500.32
3473.77
3448.68
3425.13
3403.16
3382.8
3364.05
3346.91
3331.37
3317.43
3305.08
3294.29
3285.05
3277.37
3271.22
3266.6
3263.48
3261.9
3261.82
3263.24
3266.15
3270.57
3276.5
3283.96
3292.98
3303.59
3315.81
3329.71
3345.28
3362.56
3381.53
3402.21
3424.56
3448.52
3473.99
3500.89
3529.05
3558.28
3588.33
3618.65
3649.56
3680.71
3711.69
3742.15
3771.78
3800.2
3827.05
3852.01
3874.75
3894.98
3912.42
3926.84
3938.04
3945.89
3950.27
3951.05
3948.25
3942.01
3932.38
3919.52
3903.63
3884.95
3863.78
3840.43
3815.23
3788.57
3760.81
3732.4
3703.88
3675.96
3650.43
3159.02
3153.2
3148.77
3145.73
3144.11
3143.89
3145.04
3147.62
3151.65
3157.14
3164.12
3172.64
3182.75
3194.51
3207.95
3223.15
3240.14
3258.94
3279.58
3302.06
3326.37
3352.45
3380.24
3409.64
3440.51
3472.68
3505.69
3539.57
3574.03
3608.66
3643.05
3676.87
3709.65
3740.99
3770.46
3797.63
3822.14
3843.64
3861.82
3876.43
3887.26
3894.16
3897.06
3895.26
3889.46
3879.7
3866.07
3848.81
3828.17
3804.42
3777.93
3749.04
3718.18
3685.73
3652.09
3617.7
3582.94
3548.17
3513.94
3481.51
3449.19
3417.91
3387.95
3359.49
3332.66
3307.58
3284.28
3262.81
3243.2
3225.43
3209.5
3195.4
3183.08
3172.53
3163.73
3156.65
3151.26
3147.53
3145.45
3145.01
3146.12
3148.79
3153.01
3158.75
3165.99
3174.73
3184.96
3196.65
3209.81
3224.43
3240.53
3258.11
3277.19
3297.8
3319.93
3343.59
3368.74
3395.34
3423.3
3452.51
3482.82
3514.04
3545.94
3578.27
3610.73
3643.02
3674.81
3705.73
3735.42
3763.5
3789.6
3813.33
3834.35
3852.3
3866.88
3877.82
3884.88
3887.91
3886.74
3881.43
3872
3858.53
3841.22
3820.32
3796.15
3769.06
3739.49
3707.85
3674.63
3640.28
3605.27
3570.05
3535.06
3500.69
3467.29
3435.17
3404.59
3375.75
3348.8
3323.82
3300.88
3279.97
3261.07
3244.14
3229.09
3215.84
3204.31
3194.39
3185.99
3179.03
3173.42
3169.12
3166.06
3164.21
3163.58
3164.12
3165.85
3168.78
3172.96
3178.41
3185.2
3193.38
3203.01
3214.17
3226.91
3241.31
3257.44
3275.34
3295.05
3316.61
3340
3365.21
3392.14
3420.71
3450.76
3482.09
3514.46
3547.57
3581.09
3614.65
3647.87
3680.33
3711.61
3741.3
3768.99
3794.28
3816.83
3836.3
3852.42
3864.95
3873.73
3878.64
3879.6
3876.63
3869.84
3859.28
3845.15
3827.67
3807.1
3783.72
3757.87
3729.88
3700.12
3668.92
3636.66
3603.68
3570.34
3536.95
3503.85
3471.32
3439.65
3409.09
3379.86
3352.17
3326.15
3301.96
3279.68
3259.37
3241.06
3224.79
3210.52
3198.21
3187.84
3179.32
3172.6
3167.59
3164.19
3162.36
3161.99
3163
3165.33
3168.93
3173.77
3179.81
3187.06
3195.52
3205.22
3216.19
3228.49
3242.16
3257.29
3273.93
3292.15
3312
3333.51
3356.71
3381.58
3408.09
3436.14
3465.61
3496.33
3528.14
3560.6
3593.46
3626.37
3658.92
3690.68
3721.24
3750.13
3776.93
3801.24
3822.66
3840.86
3855.56
3866.53
3873.6
3876.67
3875.66
3870.69
3861.85
3849.26
3833.16
3813.81
3791.51
3766.62
3739.51
3710.56
3680.17
3648.72
3616.62
3584.22
3551.88
3519.97
3489.32
3459.07
3429.88
3401.94
3375.38
3350.29
3326.74
3304.77
3284.41
3265.67
3248.53
3233
3219.07
3206.72
3195.93
3186.71
3179.02
3172.88
3168.26
3165.14
3163.56
3163.48
3164.9
3167.82
3172.23
3178.15
3185.61
3194.63
3205.22
3217.44
3231.33
3246.89
3264.16
3283.14
3303.81
3326.16
3350.12
3375.61
3402.52
3430.71
3459.96
3490.04
3520.39
3551.35
3582.54
3613.58
3644.1
3673.78
3702.27
3729.18
3754.2
3777
3797.28
3814.77
3829.22
3840.46
3848.32
3852.71
3853.51
3850.7
3844.43
3834.77
3821.87
3805.93
3787.2
3765.96
3742.55
3717.29
3690.56
3662.75
3634.27
3605.7
3577.74
3552.17
3060.63
3054.81
3050.39
3047.36
3045.74
3045.52
3046.66
3049.24
3053.26
3058.74
3065.71
3074.22
3084.32
3096.06
3109.49
3124.67
3141.65
3160.44
3181.07
3203.55
3227.86
3253.94
3281.74
3311.16
3342.05
3374.24
3407.31
3441.24
3475.76
3510.46
3544.94
3578.83
3611.71
3643.14
3672.7
3699.96
3724.56
3746.14
3764.38
3779.04
3789.91
3796.84
3799.74
3797.95
3792.13
3782.32
3768.64
3751.33
3730.61
3706.78
3680.2
3651.22
3620.27
3587.72
3554
3519.54
3484.7
3449.88
3415.59
3383.09
3350.74
3319.44
3289.46
3260.98
3234.15
3209.06
3185.76
3164.31
3144.7
3126.94
3111.02
3096.93
3084.62
3074.08
3065.28
3058.21
3052.83
3049.11
3047.04
3046.59
3047.71
3050.38
3054.6
3060.34
3067.59
3076.33
3086.55
3098.25
3111.4
3126.02
3142.11
3159.68
3178.76
3199.35
3221.48
3245.13
3270.29
3296.9
3324.87
3354.11
3384.44
3415.7
3447.65
3480.02
3512.55
3544.91
3576.76
3607.76
3637.53
3665.7
3691.88
3715.7
3736.8
3754.83
3769.48
3780.46
3787.56
3790.61
3789.45
3784.13
3774.67
3761.15
3743.77
3722.79
3698.53
3671.35
3641.67
3609.94
3576.61
3542.17
3507.07
3471.77
3436.7
3402.27
3368.82
3336.67
3306.06
3277.2
3250.24
3225.27
3202.33
3181.43
3162.55
3145.64
3130.61
3117.39
3105.88
3095.98
3087.6
3080.65
3075.06
3070.77
3067.72
3065.88
3065.24
3065.78
3067.51
3070.44
3074.6
3080.05
3086.82
3094.98
3104.6
3115.74
3128.46
3142.85
3158.96
3176.84
3196.55
3218.1
3241.49
3266.69
3293.64
3322.23
3352.31
3383.67
3416.09
3449.27
3482.85
3516.49
3549.79
3582.34
3613.71
3643.49
3671.27
3696.65
3719.27
3738.81
3754.99
3767.57
3776.38
3781.3
3782.27
3779.28
3772.46
3761.86
3747.68
3730.13
3709.48
3686.03
3660.1
3632.03
3602.18
3570.91
3538.58
3505.53
3472.12
3438.67
3405.52
3372.94
3341.23
3310.63
3281.38
3253.66
3227.63
3203.43
3181.14
3160.83
3142.54
3126.27
3112.01
3099.72
3089.36
3080.86
3074.16
3069.17
3065.79
3063.98
3063.62
3064.64
3066.98
3070.59
3075.43
3081.47
3088.71
3097.17
3106.86
3117.82
3130.1
3143.76
3158.87
3175.49
3193.7
3213.53
3235.03
3258.22
3283.1
3309.61
3337.68
3367.17
3397.92
3429.79
3462.3
3495.23
3528.21
3560.84
3592.7
3623.35
3652.34
3679.24
3703.63
3725.13
3743.41
3758.17
3769.18
3776.27
3779.35
3778.34
3773.34
3764.46
3751.82
3735.66
3716.23
3693.85
3668.87
3641.67
3612.64
3582.16
3550.63
3518.46
3486
3453.6
3421.64
3390.94
3360.66
3331.45
3303.49
3276.92
3251.83
3228.28
3206.31
3185.96
3167.22
3150.09
3134.57
3120.64
3108.29
3097.52
3088.29
3080.62
3074.47
3069.86
3066.75
3065.17
3065.08
3066.51
3069.42
3073.83
3079.75
3087.2
3096.21
3106.79
3119
3132.87
3148.43
3165.69
3184.66
3205.33
3227.69
3251.66
3277.16
3304.09
3332.3
3361.59
3391.71
3422.1
3453.11
3484.36
3515.47
3546.06
3575.82
3604.38
3631.37
3656.46
3679.33
3699.68
3717.23
3731.73
3743.01
3750.9
3755.3
3756.1
3753.28
3746.99
3737.28
3724.32
3708.32
3689.53
3668.22
3644.72
3619.38
3592.58
3564.69
3536.14
3507.5
3479.48
3453.87
2962.17
2956.37
2951.96
2948.93
2947.31
2947.09
2948.23
2950.8
2954.82
2960.28
2967.24
2975.74
2985.82
2997.54
3010.96
3026.12
3043.08
3061.86
3082.48
3104.96
3129.26
3155.35
3183.16
3212.6
3243.51
3275.73
3308.89
3342.87
3377.46
3412.25
3446.82
3480.82
3513.8
3545.34
3575.01
3602.38
3627.08
3648.75
3667.08
3681.8
3692.72
3699.67
3702.57
3700.8
3694.95
3685.1
3671.36
3653.96
3633.16
3609.23
3582.54
3553.46
3522.39
3489.74
3455.92
3421.36
3386.43
3351.54
3317.19
3284.61
3252.22
3220.88
3190.88
3162.39
3135.55
3110.46
3087.17
3065.71
3046.12
3028.37
3012.46
2998.38
2986.08
2975.56
2966.77
2959.7
2954.33
2950.62
2948.56
2948.11
2949.23
2951.91
2956.13
2961.88
2969.13
2977.87
2988.09
2999.78
3012.93
3027.54
3043.62
3061.19
3080.25
3100.84
3122.96
3146.61
3171.77
3198.38
3226.38
3255.64
3286.01
3317.31
3349.31
3381.75
3414.35
3446.79
3478.73
3509.82
3539.69
3567.96
3594.24
3618.17
3639.36
3657.48
3672.2
3683.26
3690.41
3693.48
3692.33
3687
3677.49
3663.91
3646.45
3625.38
3601.01
3573.71
3543.91
3512.06
3478.61
3444.05
3408.84
3373.45
3338.3
3303.79
3270.28
3238.08
3207.44
3178.57
3151.59
3126.62
3103.69
3082.81
3063.95
3047.06
3032.06
3018.87
3007.38
2997.51
2989.15
2982.23
2976.65
2972.37
2969.33
2967.5
2966.86
2967.4
2969.12
2972.04
2976.2
2981.63
2988.39
2996.53
3006.13
3017.25
3029.95
3044.32
3060.4
3078.27
3097.96
3119.5
3142.89
3168.1
3195.06
3223.67
3253.78
3285.2
3317.68
3350.92
3384.58
3418.31
3451.71
3484.36
3515.85
3545.74
3573.62
3599.1
3621.82
3641.45
3657.69
3670.33
3679.18
3684.12
3685.09
3682.09
3675.22
3664.57
3650.32
3632.7
3611.97
3588.42
3562.39
3534.23
3504.28
3472.92
3440.49
3407.36
3373.87
3340.36
3307.14
3274.5
3242.74
3212.1
3182.81
3155.07
3129.03
3104.81
3082.52
3062.21
3043.93
3027.67
3013.42
3001.15
2990.81
2982.33
2975.65
2970.68
2967.33
2965.53
2965.19
2966.23
2968.58
2972.19
2977.03
2983.08
2990.32
2998.76
3008.44
3019.39
3031.65
3045.29
3060.38
3076.99
3095.17
3114.98
3136.47
3159.66
3184.53
3211.05
3239.14
3268.66
3299.45
3331.38
3363.96
3396.97
3430.04
3462.78
3494.74
3525.51
3554.61
3581.62
3606.12
3627.73
3646.09
3660.92
3671.98
3679.11
3682.19
3681.18
3676.15
3667.22
3654.51
3638.27
3618.75
3596.27
3571.2
3543.89
3514.75
3484.17
3452.55
3420.29
3387.75
3355.28
3323.26
3292.5
3262.19
3232.95
3204.97
3178.39
3153.29
3129.74
3107.78
3087.43
3068.7
3051.58
3036.07
3022.15
3009.81
2999.04
2989.82
2982.15
2976.01
2971.4
2968.3
2966.72
2966.63
2968.06
2970.97
2975.38
2981.28
2988.72
2997.72
3008.29
3020.49
3034.35
3049.9
3067.15
3086.12
3106.78
3129.14
3153.12
3178.64
3205.59
3233.84
3263.17
3293.34
3323.76
3354.84
3386.17
3417.35
3448.03
3477.88
3506.53
3533.61
3558.8
3581.75
3602.18
3619.8
3634.36
3645.68
3653.61
3658.02
3658.83
3656
3649.67
3639.91
3626.89
3610.82
3591.94
3570.54
3546.96
3521.52
3494.62
3466.64
3438.01
3409.29
3381.18
3355.52
2863.66
2857.87
2853.46
2850.45
2848.83
2848.6
2849.74
2852.31
2856.31
2861.77
2868.71
2877.19
2887.25
2898.96
2912.35
2927.5
2944.44
2963.2
2983.81
3006.28
3030.58
3056.67
3084.5
3113.96
3144.9
3177.16
3210.4
3244.45
3279.13
3314.01
3348.69
3382.81
3415.92
3447.59
3477.4
3504.89
3529.7
3551.49
3569.9
3584.7
3595.68
3602.66
3605.57
3603.8
3597.92
3588.02
3574.2
3556.72
3535.82
3511.77
3484.96
3455.75
3424.55
3391.78
3357.83
3323.16
3288.14
3253.16
3218.74
3186.06
3153.63
3122.26
3092.23
3063.72
3036.87
3011.77
2988.48
2967.04
2947.45
2929.72
2913.83
2899.76
2887.48
2876.96
2868.18
2861.13
2855.77
2852.07
2850.01
2849.57
2850.69
2853.38
2857.61
2863.35
2870.61
2879.35
2889.57
2901.26
2914.4
2929
2945.07
2962.62
2981.68
3002.26
3024.37
3048.02
3073.18
3099.8
3127.82
3157.11
3187.52
3218.88
3250.94
3283.45
3316.13
3348.66
3380.71
3411.91
3441.89
3470.28
3496.68
3520.73
3542.03
3560.26
3575.07
3586.2
3593.41
3596.51
3595.38
3590.02
3580.47
3566.82
3549.27
3528.08
3503.58
3476.15
3446.21
3414.21
3380.63
3345.93
3310.6
3275.09
3239.84
3205.25
3171.67
3139.42
3108.74
3079.84
3052.85
3027.88
3004.96
2984.1
2965.27
2948.41
2933.44
2920.28
2908.82
2898.98
2890.65
2883.75
2878.19
2873.92
2870.89
2869.07
2868.43
2868.97
2870.68
2873.6
2877.74
2883.16
2889.89
2898.02
2907.6
2918.69
2931.37
2945.71
2961.77
2979.62
2999.29
3020.82
3044.21
3069.42
3096.4
3125.04
3155.19
3186.65
3219.2
3252.53
3286.29
3320.12
3353.64
3386.41
3418.02
3448.04
3476.05
3501.65
3524.48
3544.21
3560.54
3573.24
3582.13
3587.09
3588.06
3585.05
3578.13
3567.42
3553.1
3535.38
3514.55
3490.89
3464.75
3436.48
3406.42
3374.95
3342.42
3309.19
3275.61
3242
3208.71
3176.01
3144.19
3113.5
3084.17
3056.4
3030.33
3006.11
2983.81
2963.51
2945.23
2928.98
2914.75
2902.51
2892.19
2883.73
2877.07
2872.13
2868.8
2867.03
2866.71
2867.76
2870.13
2873.75
2878.6
2884.64
2891.87
2900.31
2909.97
2920.9
2933.15
2946.77
2961.83
2978.41
2996.57
3016.36
3037.84
3061.01
3085.89
3112.42
3140.52
3170.08
3200.91
3232.93
3265.58
3298.68
3331.86
3364.71
3396.81
3427.7
3456.94
3484.09
3508.72
3530.43
3548.9
3563.81
3574.93
3582.1
3585.19
3584.17
3579.11
3570.12
3557.34
3541
3521.38
3498.78
3473.59
3446.16
3416.9
3386.2
3354.47
3322.1
3289.47
3256.92
3224.84
3194.01
3163.65
3134.38
3106.38
3079.78
3054.68
3031.13
3009.17
2988.83
2970.11
2953
2937.5
2923.59
2911.26
2900.5
2891.29
2883.62
2877.48
2872.88
2869.79
2868.2
2868.12
2869.55
2872.46
2876.86
2882.76
2890.19
2899.17
2909.73
2921.91
2935.76
2951.29
2968.53
2987.49
3008.16
3030.52
3054.51
3080.05
3107.03
3135.31
3164.69
3194.91
3225.39
3256.54
3287.95
3319.24
3350.01
3379.96
3408.73
3435.91
3461.21
3484.26
3504.78
3522.49
3537.12
3548.49
3556.45
3560.88
3561.7
3558.86
3552.48
3542.67
3529.57
3513.42
3494.45
3472.94
3449.24
3423.69
3396.69
3368.6
3339.87
3311.05
3282.86
3257.13
2765.09
2759.31
2754.92
2751.91
2750.29
2750.06
2751.2
2753.76
2757.75
2763.19
2770.12
2778.58
2788.62
2800.3
2813.67
2828.8
2845.72
2864.47
2885.06
2907.52
2931.82
2957.92
2985.76
3015.24
3046.22
3078.53
3111.85
3145.98
3180.76
3215.76
3250.57
3284.82
3318.07
3349.89
3379.85
3407.48
3432.44
3454.34
3472.87
3487.75
3498.79
3505.81
3508.73
3506.96
3501.05
3491.08
3477.19
3459.61
3438.58
3414.4
3387.45
3358.09
3326.75
3293.83
3259.75
3224.95
3189.81
3154.74
3120.23
3087.45
3054.97
3023.55
2993.49
2964.96
2938.1
2913
2889.72
2868.28
2848.71
2830.99
2815.11
2801.06
2788.8
2778.3
2769.53
2762.49
2757.14
2753.45
2751.4
2750.97
2752.1
2754.78
2759.02
2764.77
2772.02
2780.77
2790.99
2802.67
2815.81
2830.4
2846.46
2864
2883.04
2903.6
2925.71
2949.35
2974.51
3001.15
3029.19
3058.51
3088.97
3120.39
3152.52
3185.12
3217.9
3250.53
3282.7
3314.02
3344.14
3372.66
3399.2
3423.38
3444.81
3463.16
3478.08
3489.3
3496.57
3499.7
3498.59
3493.21
3483.6
3469.87
3452.21
3430.9
3406.26
3378.67
3348.57
3316.4
3282.66
3247.81
3212.33
3176.7
3141.33
3106.64
3072.98
3040.67
3009.95
2981.02
2954.02
2929.05
2906.15
2885.31
2866.5
2849.67
2834.74
2821.62
2810.2
2800.39
2792.09
2785.21
2779.68
2775.43
2772.41
2770.59
2769.96
2770.49
2772.2
2775.1
2779.23
2784.63
2791.35
2799.45
2809
2820.06
2832.72
2847.03
2863.07
2880.89
2900.55
2922.06
2945.44
2970.66
2997.66
3026.33
3056.52
3088.05
3120.67
3154.09
3187.96
3221.92
3255.56
3288.48
3320.24
3350.4
3378.55
3404.3
3427.25
3447.09
3463.52
3476.29
3485.24
3490.22
3491.19
3488.15
3481.19
3470.41
3456
3438.18
3417.23
3393.45
3367.18
3338.77
3308.59
3276.99
3244.34
3211
3177.31
3143.62
3110.23
3077.45
3045.57
3014.83
2985.45
2957.64
2931.56
2907.32
2885.01
2864.71
2846.44
2830.21
2816
2803.78
2793.49
2785.06
2778.43
2773.51
2770.22
2768.47
2768.17
2769.24
2771.62
2775.26
2780.11
2786.15
2793.38
2801.81
2811.46
2822.36
2834.58
2848.18
2863.22
2879.77
2897.9
2917.67
2939.12
2962.29
2987.16
3013.7
3041.83
3071.42
3102.3
3134.42
3167.15
3200.36
3233.66
3266.65
3298.9
3329.94
3359.34
3386.63
3411.41
3433.26
3451.84
3466.84
3478.04
3485.24
3488.35
3487.33
3482.23
3473.16
3460.3
3443.85
3424.11
3401.38
3376.05
3348.49
3319.09
3288.25
3256.39
3223.9
3191.16
3158.52
3126.36
3095.45
3065.05
3035.74
3007.72
2981.1
2955.99
2932.45
2910.49
2890.16
2871.45
2854.35
2838.86
2824.96
2812.64
2801.89
2792.69
2785.03
2778.9
2774.3
2771.21
2769.63
2769.55
2770.98
2773.89
2778.28
2784.17
2791.59
2800.56
2811.1
2823.27
2837.09
2852.61
2869.84
2888.79
2909.46
2931.82
2955.82
2981.38
3008.39
3036.72
3066.15
3096.44
3126.97
3158.2
3189.72
3221.11
3252
3282.08
3310.96
3338.28
3363.69
3386.86
3407.49
3425.28
3440
3451.43
3459.43
3463.89
3464.7
3461.85
3455.42
3445.54
3432.37
3416.12
3397.04
3375.41
3351.59
3325.91
3298.78
3270.57
3241.72
3212.8
3184.5
3158.7
2666.46
2660.7
2656.32
2653.31
2651.7
2651.47
2652.6
2655.15
2659.13
2664.55
2671.46
2679.9
2689.92
2701.57
2714.92
2730.02
2746.92
2765.65
2786.23
2808.68
2832.98
2859.08
2886.93
2916.44
2947.46
2979.83
3013.23
3047.46
3082.36
3117.49
3152.43
3186.84
3220.25
3252.24
3282.36
3310.17
3335.27
3357.32
3375.96
3390.95
3402.05
3409.12
3412.04
3410.29
3404.34
3394.3
3380.31
3362.62
3341.46
3317.13
3290.01
3260.49
3228.98
3195.9
3161.67
3126.72
3091.45
3056.28
3021.66
2988.77
2956.24
2924.77
2894.67
2866.12
2839.24
2814.14
2790.87
2769.44
2749.89
2732.19
2716.33
2702.29
2690.04
2679.56
2670.81
2663.78
2658.44
2654.76
2652.73
2652.3
2653.44
2656.13
2660.37
2666.12
2673.38
2682.13
2692.35
2704.02
2717.15
2731.74
2747.78
2765.31
2784.33
2804.88
2826.97
2850.61
2875.78
2902.43
2930.5
2959.86
2990.37
3021.85
3054.07
3086.76
3119.64
3152.4
3184.69
3216.16
3246.43
3275.1
3301.8
3326.12
3347.71
3366.19
3381.23
3392.55
3399.89
3403.07
3401.96
3396.56
3386.89
3373.07
3355.29
3333.84
3309.03
3281.27
3250.98
3218.63
3184.7
3149.68
3114.05
3078.26
3042.77
3007.97
2974.22
2941.83
2911.06
2882.1
2855.1
2830.13
2807.24
2786.42
2767.65
2750.86
2735.97
2722.88
2711.5
2701.73
2693.47
2686.62
2681.12
2676.88
2673.88
2672.07
2671.44
2671.97
2673.67
2676.56
2680.67
2686.05
2692.75
2700.82
2710.34
2721.37
2734
2748.28
2764.29
2782.08
2801.72
2823.22
2846.59
2871.82
2898.83
2927.53
2957.78
2989.38
3022.09
3055.61
3089.61
3123.7
3157.49
3190.57
3222.49
3252.82
3281.14
3307.03
3330.13
3350.1
3366.63
3379.49
3388.49
3393.51
3394.48
3391.42
3384.4
3373.54
3359.02
3341.09
3320
3296.08
3269.67
3241.11
3210.78
3179.05
3146.26
3112.8
3078.99
3045.19
3011.71
2978.84
2946.88
2916.08
2886.66
2858.81
2832.69
2808.44
2786.13
2765.83
2747.57
2731.36
2717.17
2704.97
2694.71
2686.32
2679.72
2674.83
2671.57
2669.85
2669.58
2670.67
2673.07
2676.72
2681.57
2687.62
2694.84
2703.25
2712.88
2723.77
2735.97
2749.53
2764.54
2781.05
2799.15
2818.9
2840.34
2863.49
2888.36
2914.91
2943.07
2972.7
3003.63
3035.86
3068.69
3102.01
3135.45
3168.6
3201
3232.22
3261.79
3289.26
3314.2
3336.2
3354.91
3370.02
3381.3
3388.55
3391.68
3390.64
3385.49
3376.36
3363.39
3346.83
3326.94
3304.07
3278.58
3250.86
3221.31
3190.32
3158.31
3125.69
3092.83
3060.09
3027.84
2996.84
2966.38
2937.04
2908.98
2882.35
2857.24
2833.69
2811.74
2791.42
2772.72
2755.63
2740.16
2726.27
2713.96
2703.22
2694.03
2686.37
2680.25
2675.66
2672.58
2671
2670.92
2672.35
2675.26
2679.65
2685.53
2692.93
2701.88
2712.41
2724.55
2738.36
2753.86
2771.08
2790.02
2810.68
2833.05
2857.06
2882.64
2909.69
2938.07
2967.56
2997.92
3028.51
3059.84
3091.47
3122.99
3154.01
3184.21
3213.24
3240.69
3266.25
3289.55
3310.29
3328.2
3343
3354.5
3362.55
3367.03
3367.85
3364.98
3358.5
3348.55
3335.28
3318.92
3299.71
3277.95
3253.98
3228.16
3200.89
3172.54
3143.56
3114.52
3086.11
3060.22
2567.77
2562.02
2557.66
2554.67
2553.06
2552.82
2553.95
2556.49
2560.45
2565.86
2572.74
2581.16
2591.15
2602.78
2616.09
2631.17
2648.04
2666.75
2687.31
2709.75
2734.05
2760.16
2788.03
2817.57
2848.63
2881.06
2914.56
2948.89
2983.92
3019.19
3054.29
3088.87
3122.46
3154.64
3184.95
3212.93
3238.21
3260.41
3279.19
3294.28
3305.47
3312.59
3315.53
3313.77
3307.78
3297.66
3283.57
3265.75
3244.44
3219.95
3192.65
3162.95
3131.25
3097.99
3063.58
3028.47
2993.06
2957.77
2923.04
2890.03
2857.43
2825.91
2795.77
2767.19
2740.31
2715.2
2691.94
2670.52
2650.98
2633.3
2617.46
2603.44
2591.22
2580.76
2572.02
2565
2559.68
2556.01
2553.99
2553.58
2554.71
2557.41
2561.66
2567.41
2574.68
2583.43
2593.64
2605.32
2618.44
2633.01
2649.04
2666.55
2685.56
2706.09
2728.17
2751.8
2776.97
2803.64
2831.73
2861.14
2891.71
2923.26
2955.57
2988.37
3021.37
3054.26
3086.7
3118.32
3148.75
3177.6
3204.47
3228.97
3250.71
3269.35
3284.52
3295.95
3303.37
3306.59
3305.51
3300.07
3290.34
3276.41
3258.51
3236.89
3211.9
3183.94
3153.45
3120.89
3086.76
3051.55
3015.73