/*--------------------------------*- C++ -*----------------------------------*\
| =========                 |                                                 |
| \\      /  F ield         | OpenFOAM: The Open Source CFD Toolbox           |
|  \\    /   O peration     | Version:  3.0.1                                 |
|   \\  /    A nd           | Web:      www.OpenFOAM.org                      |
|    \\/     M anipulation  |                                                 |
\*---------------------------------------------------------------------------*/
FoamFile
{
    version     2.0;
    format      ascii;
    class       surfaceScalarField;
    location    "63.8";
    object      phi;
}
// * * * * * * * * * * * * * * * * * * * * * * * * * * * * * * * * * * * * * //

dimensions      [0 3 -1 0 0 0 0];

internalField   nonuniform List<scalar> 
42423
(
-0.000179282
3.61692e-06
-0.000182103
2.82071e-06
-0.000184227
2.12422e-06
-0.000185655
1.42749e-06
-0.000186407
7.51882e-07
-0.000186469
6.29373e-08
-0.000185773
-6.96686e-07
-0.000184396
-1.37672e-06
-0.000182361
-2.03498e-06
-0.000179477
-2.88422e-06
-0.000175872
-3.60493e-06
-0.000171565
-4.30663e-06
-0.000166356
-5.20982e-06
-0.000160296
-6.05946e-06
-0.000153257
-7.03944e-06
-0.000145309
-7.94759e-06
-0.000136537
-8.77222e-06
-0.000126782
-9.75544e-06
-0.000115983
-1.07984e-05
-0.000104265
-1.17183e-05
-9.14305e-05
-1.28344e-05
-7.7563e-05
-1.38675e-05
-6.28388e-05
-1.47243e-05
-4.71071e-05
-1.57318e-05
-3.06146e-05
-1.64925e-05
-1.32692e-05
-1.73454e-05
4.85617e-06
-1.81254e-05
2.33779e-05
-1.85218e-05
4.23451e-05
-1.89672e-05
6.15174e-05
-1.91724e-05
8.05362e-05
-1.90188e-05
9.93268e-05
-1.87907e-05
0.000117594
-1.82672e-05
0.000135153
-1.75589e-05
0.0001517
-1.6547e-05
0.000166891
-1.5191e-05
0.000180515
-1.36247e-05
0.000192364
-1.18485e-05
0.000202232
-9.86815e-06
0.000209976
-7.74367e-06
0.000215406
-5.4305e-06
0.000218468
-3.06211e-06
0.000219108
-6.40431e-07
0.000217155
1.95308e-06
0.00021279
4.36541e-06
0.000206188
6.60151e-06
0.000197263
8.92553e-06
0.000186355
1.09075e-05
0.000173607
1.27486e-05
0.000159241
1.43651e-05
0.000143556
1.56851e-05
0.000126768
1.67885e-05
0.00010914
1.76281e-05
9.08839e-05
1.82558e-05
7.22527e-05
1.86311e-05
5.347e-05
1.87827e-05
3.47406e-05
1.87295e-05
1.6287e-05
1.84535e-05
-1.75287e-06
1.80399e-05
-1.9211e-05
1.74582e-05
-3.59662e-05
1.67551e-05
-5.19914e-05
1.60252e-05
-6.71218e-05
1.51304e-05
-8.13508e-05
1.4229e-05
-9.46972e-05
1.33464e-05
-0.000107047
1.235e-05
-0.000118426
1.13785e-05
-0.000128892
1.04663e-05
-0.000138377
9.48475e-06
-0.000146975
8.59849e-06
-0.000154662
7.68676e-06
-0.000161459
6.79715e-06
-0.000167447
5.98758e-06
-0.000172529
5.08178e-06
-0.000176723
4.19467e-06
-0.00018014
3.41639e-06
-0.00018268
2.5401e-06
-0.000184397
1.7172e-06
-0.000185379
9.82269e-07
-0.000185452
7.2598e-08
-0.000184855
-5.97018e-07
-0.000183371
-1.48337e-06
-0.000181054
-2.31773e-06
-0.000177992
-3.06214e-06
-0.000174054
-3.93723e-06
-0.000169381
-4.673e-06
-0.000163892
-5.48927e-06
-0.000157525
-6.3673e-06
-0.000150325
-7.2e-06
-0.000142315
-8.00961e-06
-0.000133527
-8.78815e-06
-0.000124004
-9.52288e-06
-0.000113693
-1.03115e-05
-0.000102645
-1.10479e-05
-9.08452e-05
-1.17997e-05
-7.82903e-05
-1.25549e-05
-6.4998e-05
-1.32923e-05
-5.09705e-05
-1.40275e-05
-3.62428e-05
-1.47278e-05
-2.08413e-05
-1.54016e-05
-4.83445e-06
-1.60069e-05
1.16845e-05
-1.6519e-05
2.863e-05
-1.69455e-05
4.5881e-05
-1.72511e-05
6.32744e-05
-1.73935e-05
8.06608e-05
-1.73864e-05
9.78021e-05
-1.71414e-05
0.000114528
-1.67264e-05
0.000130623
-1.60943e-05
0.000145879
-1.52566e-05
0.000160055
-1.41758e-05
0.000172943
-1.28886e-05
0.000184339
-1.13957e-05
0.000194015
-9.67575e-06
0.000201778
-7.76299e-06
0.000207475
-5.69736e-06
0.000210974
-3.49955e-06
0.000212159
-1.18493e-06
0.000211027
1.13233e-06
0.000207484
3.54256e-06
0.000201581
5.90287e-06
0.000193455
8.126e-06
0.000183242
1.02133e-05
0.000171103
1.21393e-05
0.000157237
1.38651e-05
0.000141935
1.5302e-05
0.000125376
1.65595e-05
0.000107851
1.75253e-05
8.96575e-05
1.8193e-05
7.10144e-05
1.8643e-05
5.2206e-05
1.88084e-05
3.34279e-05
1.87781e-05
1.49176e-05
1.85103e-05
-3.18709e-06
1.81047e-05
-2.06634e-05
1.74763e-05
-3.74408e-05
1.67773e-05
-5.32915e-05
1.58507e-05
-6.82827e-05
1.49912e-05
-8.22322e-05
1.39495e-05
-9.51659e-05
1.29336e-05
-0.000107001
1.18349e-05
-0.000117786
1.07857e-05
-0.000127626
9.83996e-06
-0.000136415
8.7888e-06
-0.000144261
7.84599e-06
-0.000151141
6.87961e-06
-0.000157132
5.99158e-06
-0.00016225
5.11796e-06
-0.000166588
4.3379e-06
-0.00017013
3.54173e-06
-0.000172931
2.80102e-06
-0.000175064
2.13279e-06
-0.000176531
1.46672e-06
-0.00017739
8.59795e-07
-0.000177661
2.7091e-07
-0.000177353
-3.07951e-07
-0.000176475
-8.78412e-07
-0.000175027
-1.44753e-06
-0.000173049
-1.97879e-06
-0.000170511
-2.53718e-06
-0.000167427
-3.08406e-06
-0.000163748
-3.6799e-06
-0.000159475
-4.27304e-06
-0.000154547
-4.92763e-06
-0.000149053
-5.49342e-06
-0.000142819
-6.2345e-06
-0.000135817
-7.00189e-06
-0.000128191
-7.62574e-06
-0.000119771
-8.42032e-06
-0.000110579
-9.19198e-06
-0.000100582
-9.99737e-06
-8.97263e-05
-1.08555e-05
-7.81649e-05
-1.15615e-05
-6.57931e-05
-1.23718e-05
-5.26313e-05
-1.31619e-05
-3.87098e-05
-1.39215e-05
-2.409e-05
-1.46199e-05
-8.8312e-06
-1.52589e-05
6.96626e-06
-1.57975e-05
2.32359e-05
-1.62697e-05
3.98334e-05
-1.65975e-05
5.65984e-05
-1.67651e-05
7.33496e-05
-1.67513e-05
8.98839e-05
-1.65343e-05
0.000106008
-1.61246e-05
0.000121479
-1.54711e-05
0.000136007
-1.45275e-05
0.000149416
-1.34095e-05
0.000161429
-1.20132e-05
0.000171862
-1.04322e-05
0.000180426
-8.56404e-06
0.000187
-6.57484e-06
0.000191405
-4.40497e-06
0.000193539
-2.13361e-06
0.000193379
1.59595e-07
0.000190839
2.53995e-06
0.000185944
4.8949e-06
0.000178877
7.06725e-06
0.000169743
9.1344e-06
0.000158633
1.11096e-05
0.000145859
1.27743e-05
0.000131576
1.42826e-05
0.000116014
1.55618e-05
9.9493e-05
1.6521e-05
8.22799e-05
1.72131e-05
6.46173e-05
1.76626e-05
4.67338e-05
1.78835e-05
2.89814e-05
1.77524e-05
1.15088e-05
1.74725e-05
-5.45387e-06
1.69627e-05
-2.18012e-05
1.63474e-05
-3.73918e-05
1.55906e-05
-5.21733e-05
1.47815e-05
-6.60786e-05
1.39053e-05
-7.90642e-05
1.29856e-05
-9.11483e-05
1.20841e-05
-0.000102276
1.11272e-05
-0.000112444
1.01686e-05
-0.000121671
9.22717e-06
-0.000130108
8.4366e-06
-0.000137692
7.5844e-06
-0.000144506
6.81314e-06
-0.00015061
6.10474e-06
-0.000156073
5.46284e-06
-0.000160926
4.85337e-06
-0.000165311
4.38468e-06
-0.000169127
3.81602e-06
-0.000172416
3.28908e-06
-0.000175176
2.75982e-06
-0.000177333
2.1564e-06
-0.000178845
1.5126e-06
-0.00017969
8.44613e-07
-0.000179888
1.98505e-07
-0.000179397
-4.91655e-07
-0.000178207
-1.18955e-06
-0.000176367
-1.84044e-06
-0.000173887
-2.47996e-06
-0.000170751
-3.13569e-06
-0.000167113
-3.63803e-06
-0.000162821
-4.29215e-06
-0.000157909
-4.91155e-06
-0.000152344
-5.56493e-06
-0.000146115
-6.22902e-06
-0.000139238
-6.87719e-06
-0.000131686
-7.55206e-06
-0.000123469
-8.21756e-06
-0.0001146
-8.86857e-06
-0.000105067
-9.53334e-06
-9.48703e-05
-1.01964e-05
-8.40258e-05
-1.08446e-05
-7.25419e-05
-1.14838e-05
-6.03647e-05
-1.21773e-05
-4.75177e-05
-1.2847e-05
-3.40353e-05
-1.34825e-05
-1.99147e-05
-1.41206e-05
-5.27393e-06
-1.46408e-05
9.79352e-06
-1.50675e-05
2.51492e-05
-1.53558e-05
4.05623e-05
-1.54132e-05
5.59335e-05
-1.53712e-05
7.10418e-05
-1.51084e-05
8.57924e-05
-1.47506e-05
9.99916e-05
-1.41993e-05
0.000113507
-1.35156e-05
0.000126182
-1.2675e-05
0.000137789
-1.16066e-05
0.000148149
-1.03607e-05
0.000156929
-8.77969e-06
0.000164058
-7.12916e-06
0.000169285
-5.22722e-06
0.000172522
-3.23644e-06
0.000173631
-1.1094e-06
0.000172814
8.17282e-07
0.000169898
2.91562e-06
0.000165172
4.72565e-06
0.000158622
6.5498e-06
0.000150559
8.06381e-06
0.000141011
9.54796e-06
0.000130432
1.05787e-05
0.000118726
1.1706e-05
0.0001062
1.25253e-05
9.3111e-05
1.30895e-05
7.9349e-05
1.3762e-05
6.5151e-05
1.4198e-05
5.06798e-05
1.44711e-05
3.60193e-05
1.46605e-05
2.12078e-05
1.48115e-05
6.64443e-06
1.45634e-05
-7.73572e-06
1.43801e-05
-2.16556e-05
1.39199e-05
-3.50624e-05
1.34068e-05
-4.77692e-05
1.27068e-05
-5.97133e-05
1.19441e-05
-7.08757e-05
1.11623e-05
-8.1174e-05
1.02984e-05
-9.0583e-05
9.40894e-06
-9.91586e-05
8.57558e-06
-0.000106839
7.6802e-06
-0.000113721
6.88209e-06
-0.000119839
6.11796e-06
-0.000125211
5.37213e-06
-0.000129914
4.70281e-06
-0.000134008
4.09436e-06
-0.000137536
3.52819e-06
-0.000140564
3.02757e-06
-0.000143102
2.53766e-06
-0.000145216
2.11429e-06
-0.00014696
1.74436e-06
-0.00014833
1.36975e-06
-0.000149341
1.011e-06
-0.000149974
6.32951e-07
-0.000150186
2.11732e-07
-0.000149918
-2.68003e-07
-0.000149086
-8.31574e-07
-0.000147526
-1.55963e-06
-0.000145263
-2.26338e-06
-0.000142082
-3.18133e-06
-0.000138032
-4.04936e-06
-0.000133084
-4.94831e-06
-0.000127031
-6.053e-06
-0.000119942
-7.08901e-06
-0.00011185
-8.09231e-06
-0.000102543
-9.30656e-06
-9.2201e-05
-1.03424e-05
-8.07496e-05
-1.14514e-05
-6.81639e-05
-1.25857e-05
-5.46959e-05
-1.3468e-05
-4.02632e-05
-1.44327e-05
-2.50073e-05
-1.52559e-05
-9.12026e-06
-1.58871e-05
7.45383e-06
-1.65741e-05
2.45543e-05
-1.71005e-05
4.18604e-05
-1.73062e-05
5.93326e-05
-1.74722e-05
7.66742e-05
-1.73416e-05
9.37438e-05
-1.70697e-05
0.000110339
-1.65955e-05
0.00012615
-1.58106e-05
0.000141063
-1.49134e-05
0.000154875
-1.38121e-05
0.000167361
-1.24861e-05
0.000178378
-1.1017e-05
0.000187804
-9.42627e-06
0.000195521
-7.71686e-06
0.00020146
-5.93897e-06
0.000205519
-4.05921e-06
0.000207683
-2.1634e-06
0.000207916
-2.33445e-07
0.000206126
1.79043e-06
0.000202408
3.71718e-06
0.00019683
5.5787e-06
0.000189587
7.24275e-06
0.000180667
8.92025e-06
0.000170127
1.05393e-05
0.000158299
1.18278e-05
0.000145164
1.31354e-05
1.43227e-05
-0.00017932
7.2418e-06
-0.000182143
5.64334e-06
-0.000184268
4.24931e-06
-0.000185698
2.85776e-06
-0.00018645
1.50379e-06
-0.000186515
1.27868e-07
-0.00018582
-1.39121e-06
-0.000184442
-2.75457e-06
-0.000182411
-4.06684e-06
-0.000179525
-5.7696e-06
-0.000175922
-7.20816e-06
-0.000171617
-8.61136e-06
-0.000166411
-1.04166e-05
-0.000160349
-1.21215e-05
-0.000153307
-1.40808e-05
-0.000145362
-1.58925e-05
-0.000136592
-1.75423e-05
-0.000126837
-1.9511e-05
-0.000116038
-2.15969e-05
-0.000104317
-2.34394e-05
-9.14815e-05
-2.56704e-05
-7.76097e-05
-2.77394e-05
-6.28827e-05
-2.94513e-05
-4.71473e-05
-3.14672e-05
-3.06498e-05
-3.29901e-05
-1.3286e-05
-3.47093e-05
4.8363e-06
-3.62479e-05
2.33637e-05
-3.70493e-05
4.23379e-05
-3.79415e-05
6.15226e-05
-3.83572e-05
8.05575e-05
-3.80538e-05
9.93645e-05
-3.75978e-05
0.000117637
-3.65399e-05
0.000135204
-3.51258e-05
0.000151764
-3.31069e-05
0.000166967
-3.03945e-05
0.000180604
-2.72613e-05
0.000192462
-2.37071e-05
0.000202336
-1.9742e-05
0.000210087
-1.54955e-05
0.000215522
-1.0865e-05
0.00021859
-6.13003e-06
0.000219234
-1.28523e-06
0.00021727
3.9174e-06
0.000212902
8.73325e-06
0.000206299
1.32045e-05
0.00019737
1.78546e-05
0.000186454
2.18233e-05
0.000173696
2.55065e-05
0.000159318
2.87431e-05
0.000143622
3.13811e-05
0.000126822
3.35886e-05
0.000109182
3.52677e-05
9.09147e-05
3.65232e-05
7.22736e-05
3.72722e-05
5.34848e-05
3.75714e-05
3.47456e-05
3.74687e-05
1.62801e-05
3.69189e-05
-1.76686e-06
3.60869e-05
-1.92343e-05
3.49256e-05
-3.59976e-05
3.35184e-05
-5.20301e-05
3.20577e-05
-6.71689e-05
3.02691e-05
-8.14071e-05
2.84672e-05
-9.4757e-05
2.66963e-05
-0.000107111
2.47038e-05
-0.000118489
2.27572e-05
-0.000128956
2.09331e-05
-0.000138444
1.89725e-05
-0.000147049
1.72038e-05
-0.000154735
1.53724e-05
-0.000161529
1.35908e-05
-0.00016752
1.19787e-05
-0.000172602
1.01644e-05
-0.000176797
8.389e-06
-0.000180222
6.84159e-06
-0.000182753
5.0713e-06
-0.000184469
3.43324e-06
-0.000185443
1.95635e-06
-0.00018552
1.49314e-07
-0.000184925
-1.19177e-06
-0.000183437
-2.97214e-06
-0.000181113
-4.64152e-06
-0.000178041
-6.13347e-06
-0.000174116
-7.86289e-06
-0.000169442
-9.34665e-06
-0.000163944
-1.0987e-05
-0.000157578
-1.27337e-05
-0.000150373
-1.44056e-05
-0.000142351
-1.60314e-05
-0.00013356
-1.75788e-05
-0.000124032
-1.90514e-05
-0.000113722
-2.06215e-05
-0.000102669
-2.21004e-05
-9.08662e-05
-2.3603e-05
-7.8314e-05
-2.51072e-05
-6.50265e-05
-2.65799e-05
-5.10058e-05
-2.80484e-05
-3.6285e-05
-2.94487e-05
-2.08849e-05
-3.08018e-05
-4.87769e-06
-3.20143e-05
1.16479e-05
-3.30447e-05
2.85993e-05
-3.38971e-05
4.58736e-05
-3.45254e-05
6.3269e-05
-3.4789e-05
8.06554e-05
-3.47729e-05
9.78093e-05
-3.42954e-05
0.000114544
-3.3461e-05
0.000130653
-3.22033e-05
0.000145925
-3.05296e-05
0.000160113
-2.8363e-05
0.00017301
-2.57861e-05
0.000184418
-2.28034e-05
0.000194123
-1.93813e-05
0.00020188
-1.55205e-05
0.000207576
-1.13936e-05
0.000211073
-6.99597e-06
0.000212262
-2.37378e-06
0.00021112
2.27413e-06
0.000207575
7.0868e-06
0.000201662
1.18165e-05
0.000193522
1.62658e-05
0.000183301
2.04336e-05
0.000171159
2.42812e-05
0.000157255
2.77697e-05
0.00014193
3.06267e-05
0.000125346
3.31431e-05
0.000107806
3.50655e-05
8.95923e-05
3.64066e-05
7.09346e-05
3.73007e-05
5.2106e-05
3.7637e-05
3.33076e-05
3.75764e-05
1.47733e-05
3.70445e-05
-3.34424e-06
3.62222e-05
-2.0824e-05
3.4956e-05
-3.76044e-05
3.35577e-05
-5.34881e-05
3.17344e-05
-6.84749e-05
2.99779e-05
-8.2411e-05
2.78856e-05
-9.53623e-05
2.58849e-05
-0.0001072
2.3673e-05
-0.000117991
2.15759e-05
-0.000127835
1.96848e-05
-0.00013662
1.75729e-05
-0.000144453
1.56795e-05
-0.000151332
1.37588e-05
-0.000157323
1.19824e-05
-0.000162433
1.0228e-05
-0.000166763
8.66767e-06
-0.000170322
7.10056e-06
-0.000173115
5.59435e-06
-0.000175237
4.25498e-06
-0.000176705
2.93413e-06
-0.000177558
1.71296e-06
-0.000177826
5.38871e-07
-0.000177515
-6.18969e-07
-0.000176627
-1.76591e-06
-0.000175148
-2.92682e-06
-0.000173192
-3.93514e-06
-0.000170653
-5.07557e-06
-0.000167559
-6.17836e-06
-0.00016388
-7.3587e-06
-0.000159605
-8.54835e-06
-0.000154669
-9.86344e-06
-0.000149176
-1.09868e-05
-0.000142947
-1.24634e-05
-0.000135957
-1.39923e-05
-0.000128314
-1.52681e-05
-0.000119892
-1.68433e-05
-0.000110692
-1.83921e-05
-0.000100688
-2.00014e-05
-8.98299e-05
-2.17133e-05
-7.8281e-05
-2.31105e-05
-6.5892e-05
-2.47609e-05
-5.27142e-05
-2.63398e-05
-3.87918e-05
-2.7844e-05
-2.41659e-05
-2.92458e-05
-8.8985e-06
-3.05264e-05
6.91144e-06
-3.16076e-05
2.31925e-05
-3.25509e-05
3.97991e-05
-3.32043e-05
5.65764e-05
-3.35424e-05
7.3347e-05
-3.35221e-05
8.98948e-05
-3.30822e-05
0.000106027
-3.22565e-05
0.000121509
-3.09532e-05
0.000136045
-2.90637e-05
0.000149468
-2.68327e-05
0.000161493
-2.40384e-05
0.000171925
-2.08645e-05
0.000180501
-1.71403e-05
0.000187081
-1.31551e-05
0.000191491
-8.81492e-06
0.000193622
-4.26422e-06
0.000193449
3.32424e-07
0.000190886
5.10207e-06
0.000185989
9.79252e-06
0.000178907
1.4149e-05
0.000169765
1.82764e-05
0.000158642
2.22325e-05
0.000145843
2.55724e-05
0.000131542
2.85839e-05
0.00011596
3.11438e-05
9.94154e-05
3.30655e-05
8.21927e-05
3.44357e-05
6.45065e-05
3.53488e-05
4.66135e-05
3.57765e-05
2.88439e-05
3.55219e-05
1.13502e-05
3.49662e-05
-5.61163e-06
3.39245e-05
-2.19683e-05
3.2704e-05
-3.7573e-05
3.11952e-05
-5.23614e-05
2.95698e-05
-6.62819e-05
2.78258e-05
-7.92658e-05
2.59695e-05
-9.12967e-05
2.41149e-05
-0.00010246
2.229e-05
-0.00011263
2.03389e-05
-0.000121892
1.84896e-05
-0.000130298
1.6842e-05
-0.000137877
1.51636e-05
-0.000144681
1.36169e-05
-0.000150768
1.21921e-05
-0.000156215
1.09101e-05
-0.000161125
9.76295e-06
-0.000165463
8.72315e-06
-0.000169274
7.6266e-06
-0.000172568
6.58297e-06
-0.000175324
5.5164e-06
-0.000177481
4.31356e-06
-0.00017899
3.02103e-06
-0.000179834
1.68858e-06
-0.000180005
3.69866e-07
-0.000179514
-9.82524e-07
-0.000178345
-2.35925e-06
-0.000176501
-3.68402e-06
-0.000174009
-4.97163e-06
-0.000170863
-6.28247e-06
-0.000167232
-7.26843e-06
-0.000162938
-8.58689e-06
-0.000158015
-9.83375e-06
-0.000152444
-1.11365e-05
-0.000146232
-1.24413e-05
-0.000139343
-1.37658e-05
-0.000131788
-1.51073e-05
-0.000123565
-1.64403e-05
-0.000114691
-1.77426e-05
-0.000105162
-1.90627e-05
-9.49698e-05
-2.03886e-05
-8.41165e-05
-2.1698e-05
-7.26254e-05
-2.2975e-05
-6.04335e-05
-2.43693e-05
-4.7613e-05
-2.56677e-05
-3.41241e-05
-2.69714e-05
-2.00016e-05
-2.82432e-05
-5.35689e-06
-2.92856e-05
9.71864e-06
-3.01431e-05
2.50787e-05
-3.07159e-05
4.05064e-05
-3.08409e-05
5.58991e-05
-3.0764e-05
7.10222e-05
-3.02316e-05
8.57768e-05
-2.95053e-05
9.9993e-05
-2.84156e-05
0.000113528
-2.70505e-05
0.000126214
-2.53612e-05
0.000137837
-2.32302e-05
0.000148222
-2.07449e-05
0.000157007
-1.75654e-05
0.000164137
-1.42592e-05
0.000169375
-1.04653e-05
0.000172617
-6.47846e-06
0.00017373
-2.22257e-06
0.000172904
1.64316e-06
0.000169988
5.8319e-06
0.000165258
9.4554e-06
0.000158719
1.30889e-05
0.000150629
1.61539e-05
0.000141077
1.90996e-05
0.00013049
2.11658e-05
0.00011877
2.34253e-05
0.000106241
2.50545e-05
9.31451e-05
2.61853e-05
7.93742e-05
2.75329e-05
6.51732e-05
2.8399e-05
5.06997e-05
2.89446e-05
3.6029e-05
2.93311e-05
2.121e-05
2.96304e-05
6.6388e-06
2.91346e-05
-7.75002e-06
2.87689e-05
-2.16765e-05
2.78463e-05
-3.509e-05
2.68203e-05
-4.78022e-05
2.5419e-05
-5.97491e-05
2.3891e-05
-7.09146e-05
2.23278e-05
-8.1218e-05
2.06018e-05
-9.06294e-05
1.88203e-05
-9.91999e-05
1.7146e-05
-0.000106884
1.53639e-05
-0.000113766
1.37641e-05
-0.000119883
1.22356e-05
-0.000125254
1.07424e-05
-0.000129957
9.40638e-06
-0.000134051
8.18778e-06
-0.000137579
7.05642e-06
-0.000140601
6.05018e-06
-0.000143142
5.07848e-06
-0.000145256
4.22784e-06
-0.000146999
3.48774e-06
-0.000148372
2.74279e-06
-0.000149384
2.02243e-06
-0.000150016
1.26534e-06
-0.000150232
4.28109e-07
-0.000149963
-5.37388e-07
-0.000149135
-1.6601e-06
-0.000147578
-3.11646e-06
-0.00014532
-4.52113e-06
-0.000142136
-6.36553e-06
-0.000138089
-8.09622e-06
-0.000133144
-9.89381e-06
-0.000127091
-1.21053e-05
-0.000120001
-1.4179e-05
-0.000111909
-1.61848e-05
-0.0001026
-1.86159e-05
-9.22543e-05
-2.06877e-05
-8.08064e-05
-2.28995e-05
-6.82137e-05
-2.51784e-05
-5.47428e-05
-2.6939e-05
-4.03077e-05
-2.88679e-05
-2.50421e-05
-3.05216e-05
-9.14702e-06
-3.17823e-05
7.43696e-06
-3.31582e-05
2.45433e-05
-3.42069e-05
4.1854e-05
-3.46169e-05
5.93394e-05
-3.49578e-05
7.66992e-05
-3.47016e-05
9.37871e-05
-3.41576e-05
0.000110394
-3.32028e-05
0.000126206
-3.16227e-05
0.000141122
-2.98291e-05
0.000154942
-2.76322e-05
0.000167437
-2.49815e-05
0.000178462
-2.20419e-05
0.000187894
-1.88577e-05
0.000195615
-1.54382e-05
0.00020156
-1.18841e-05
0.000205622
-8.12134e-06
0.000207784
-4.32581e-06
0.000208013
-4.62737e-07
0.000206212
3.59144e-06
0.000202493
7.4367e-06
0.000196909
1.11623e-05
0.00018966
1.44918e-05
0.000180733
1.78473e-05
0.000170186
2.10862e-05
0.000158351
2.36627e-05
0.000145208
2.62784e-05
2.8654e-05
-0.00017938
1.08678e-05
-0.000182208
8.47084e-06
-0.00018434
6.38115e-06
-0.000185775
4.29292e-06
-0.000186522
2.25094e-06
-0.000186577
1.83188e-07
-0.000185881
-2.08774e-06
-0.000184499
-4.13665e-06
-0.000182471
-6.09508e-06
-0.000179583
-8.65767e-06
-0.000175982
-1.08089e-05
-0.000171677
-1.29159e-05
-0.00016648
-1.56143e-05
-0.000160408
-1.81934e-05
-0.000153373
-2.11156e-05
-0.000145433
-2.38327e-05
-0.000136667
-2.63084e-05
-0.000126916
-2.92614e-05
-0.000116121
-3.23922e-05
-0.000104392
-3.51685e-05
-9.15558e-05
-3.85069e-05
-7.7684e-05
-4.16112e-05
-6.29524e-05
-4.4183e-05
-4.72104e-05
-4.72093e-05
-3.0704e-05
-4.94966e-05
-1.3331e-05
-5.20824e-05
4.80308e-06
-5.4382e-05
2.33423e-05
-5.55886e-05
4.23387e-05
-5.6938e-05
6.1541e-05
-5.75596e-05
8.05901e-05
-5.7103e-05
9.94149e-05
-5.64227e-05
0.000117706
-5.4831e-05
0.000135295
-5.27153e-05
0.000151879
-4.96905e-05
0.000167105
-4.56205e-05
0.000180765
-4.09213e-05
0.000192641
-3.55837e-05
0.000202519
-2.96196e-05
0.000210282
-2.32592e-05
0.000215724
-1.63066e-05
0.000218798
-9.20394e-06
0.000219439
-1.92657e-06
0.000217446
5.91032e-06
0.000213076
1.31033e-05
0.000206464
1.98164e-05
0.000197531
2.67878e-05
0.0001866
3.27542e-05
0.000173831
3.82751e-05
0.000159425
4.31485e-05
0.000143708
4.70987e-05
0.000126884
5.0412e-05
0.000109222
5.29303e-05
9.09334e-05
5.48115e-05
7.22745e-05
5.5931e-05
5.3481e-05
5.6365e-05
3.4726e-05
5.62236e-05
1.62356e-05
5.54092e-05
-1.8147e-06
5.41372e-05
-1.92919e-05
5.24028e-05
-3.60641e-05
5.02905e-05
-5.21058e-05
4.80994e-05
-6.72492e-05
4.54126e-05
-8.14897e-05
4.27076e-05
-9.48419e-05
4.00486e-05
-0.0001072
3.70622e-05
-0.000118576
3.41323e-05
-0.000129039
3.1397e-05
-0.00013853
2.84633e-05
-0.000147136
2.58097e-05
-0.000154817
2.30538e-05
-0.000161616
2.03893e-05
-0.000167612
1.79745e-05
-0.000172689
1.52412e-05
-0.00017688
1.25805e-05
-0.000180318
1.02797e-05
-0.000182846
7.59922e-06
-0.000184565
5.15171e-06
-0.000185523
2.91468e-06
-0.000185601
2.27527e-07
-0.000184999
-1.79402e-06
-0.000183513
-4.45805e-06
-0.000181188
-6.96692e-06
-0.000178107
-9.21388e-06
-0.000174188
-1.17822e-05
-0.000169519
-1.40158e-05
-0.000164028
-1.64778e-05
-0.000157662
-1.90995e-05
-0.000150461
-2.1607e-05
-0.000142435
-2.40576e-05
-0.000133669
-2.63448e-05
-0.00012413
-2.85905e-05
-0.00011382
-3.09314e-05
-0.000102774
-3.31467e-05
-9.09754e-05
-3.54013e-05
-7.84272e-05
-3.76555e-05
-6.51552e-05
-3.9852e-05
-5.1142e-05
-4.20617e-05
-3.64288e-05
-4.4162e-05
-2.10291e-05
-4.62016e-05
-5.02024e-06
-4.80232e-05
1.15165e-05
-4.95816e-05
2.84802e-05
-5.08609e-05
4.5744e-05
-5.17894e-05
6.31726e-05
-5.22177e-05
8.05616e-05
-5.21621e-05
9.77362e-05
-5.14701e-05
0.00011448
-5.02052e-05
0.000130602
-4.83256e-05
0.000145899
-4.58267e-05
0.000160124
-4.2588e-05
0.000173032
-3.86944e-05
0.000184453
-3.42245e-05
0.000194156
-2.90841e-05
0.000201952
-2.33168e-05
0.000207661
-1.71026e-05
0.000211163
-1.0498e-05
0.000212355
-3.56602e-06
0.000211187
3.44196e-06
0.000207631
1.06435e-05
0.00020173
1.77172e-05
0.000193568
2.44276e-05
0.000183327
3.06747e-05
0.000171179
3.64284e-05
0.000157247
4.17023e-05
0.00014189
4.59831e-05
0.00012528
4.97537e-05
0.000107721
5.26241e-05
8.94893e-05
5.46382e-05
7.08201e-05
5.59699e-05
5.1962e-05
5.64951e-05
3.31399e-05
5.63984e-05
1.45835e-05
5.56009e-05
-3.55166e-06
5.43574e-05
-2.10573e-05
5.24616e-05
-3.78431e-05
5.03435e-05
-5.37436e-05
4.76349e-05
-6.87258e-05
4.49601e-05
-8.2635e-05
4.17948e-05
-9.56119e-05
3.88619e-05
-0.000107459
3.55203e-05
-0.000118286
3.24022e-05
-0.000128084
2.9483e-05
-0.000136866
2.63546e-05
-0.000144695
2.3509e-05
-0.000151562
2.06262e-05
-0.000157557
1.79766e-05
-0.000162675
1.5346e-05
-0.000166956
1.29494e-05
-0.00017056
1.07046e-05
-0.000173344
8.37805e-06
-0.000175446
6.3565e-06
-0.00017694
4.42861e-06
-0.000177791
2.56396e-06
-0.000178044
7.91328e-07
-0.000177722
-9.40063e-07
-0.000176837
-2.65133e-06
-0.000175329
-4.435e-06
-0.000173398
-5.86585e-06
-0.000170858
-7.6158e-06
-0.000167747
-9.28957e-06
-0.000164088
-1.10179e-05
-0.000159819
-1.28173e-05
-0.000154888
-1.47944e-05
-0.000149387
-1.64876e-05
-0.000143168
-1.8682e-05
-0.000136233
-2.09277e-05
-0.000128547
-2.29539e-05
-0.000120118
-2.52731e-05
-0.000110912
-2.75977e-05
-0.000100906
-3.00073e-05
-9.01072e-05
-3.25124e-05
-7.84998e-05
-3.4718e-05
-6.61175e-05
-3.71432e-05
-5.29378e-05
-3.95196e-05
-3.90023e-05
-4.17796e-05
-2.43681e-05
-4.38802e-05
-9.08863e-06
-4.5806e-05
6.74101e-06
-4.74373e-05
2.30338e-05
-4.88438e-05
3.96546e-05
-4.98252e-05
5.64485e-05
-5.03364e-05
7.32396e-05
-5.03134e-05
8.98014e-05
-4.96441e-05
0.000105949
-4.84047e-05
0.000121461
-4.64647e-05
0.000136025
-4.36282e-05
0.00014947
-4.02777e-05
0.000161512
-3.60807e-05
0.00017195
-3.13021e-05
0.000180552
-2.57427e-05
0.000187139
-1.97425e-05
0.000191555
-1.32303e-05
0.000193689
-6.39905e-06
0.000193485
5.37138e-07
0.000190916
7.67089e-06
0.000186024
1.46844e-05
0.000178935
2.12375e-05
0.000169768
2.74438e-05
0.000158637
3.33633e-05
0.000145813
3.83959e-05
0.000131495
4.29018e-05
0.000115906
4.67333e-05
9.9331e-05
4.96402e-05
8.20553e-05
5.17113e-05
6.4364e-05
5.304e-05
4.64875e-05
5.36529e-05
2.86854e-05
5.3324e-05
1.11506e-05
5.25009e-05
-5.83069e-06
5.09057e-05
-2.21674e-05
4.90407e-05
-3.78038e-05
4.68316e-05
-5.25974e-05
4.43634e-05
-6.65219e-05
4.17503e-05
-7.94993e-05
3.89469e-05
-9.15234e-05
3.6139e-05
-0.000102689
3.34552e-05
-0.000112869
3.05191e-05
-0.000122143
2.77642e-05
-0.000130533
2.52312e-05
-0.000138103
2.27343e-05
-0.000144901
2.04145e-05
-0.000150959
1.82497e-05
-0.000156443
1.63944e-05
-0.000161351
1.46713e-05
-0.000165672
1.30439e-05
-0.000169476
1.14307e-05
-0.000172772
9.87893e-06
-0.000175527
8.2707e-06
-0.000177692
6.47907e-06
-0.000179211
4.5399e-06
-0.000180063
2.54038e-06
-0.00018019
4.96609e-07
-0.000179701
-1.47094e-06
-0.00017856
-3.50014e-06
-0.000176707
-5.53686e-06
-0.000174214
-7.46548e-06
-0.000171071
-9.42467e-06
-0.000167445
-1.08953e-05
-0.000163149
-1.28823e-05
-0.00015824
-1.47432e-05
-0.000152618
-1.67578e-05
-0.000146455
-1.86046e-05
-0.000139558
-2.06629e-05
-0.000131996
-2.26695e-05
-0.00012376
-2.46763e-05
-0.00011489
-2.66128e-05
-0.000105367
-2.85855e-05
-9.51698e-05
-3.05859e-05
-8.43108e-05
-3.25571e-05
-7.28064e-05
-3.44794e-05
-6.06204e-05
-3.65554e-05
-4.78381e-05
-3.845e-05
-3.43305e-05
-4.04791e-05
-2.01913e-05
-4.23825e-05
-5.53864e-06
-4.39384e-05
9.55375e-06
-4.52356e-05
2.49212e-05
-4.60835e-05
4.03819e-05
-4.63017e-05
5.57928e-05
-4.6175e-05
7.09369e-05
-4.53758e-05
8.57155e-05
-4.4284e-05
9.99602e-05
-4.26604e-05
0.000113519
-4.06096e-05
0.000126234
-3.8076e-05
0.000137887
-3.48831e-05
0.000148306
-3.11638e-05
0.000157106
-2.63655e-05
0.000164252
-2.14055e-05
0.000169506
-1.57199e-05
0.000172743
-9.71535e-06
0.000173869
-3.3484e-06
0.000173034
2.47756e-06
0.000170117
8.74872e-06
0.00016538
1.41928e-05
0.000158873
1.95958e-05
0.000150728
2.42993e-05
0.000141168
2.86586e-05
0.000130563
3.17716e-05
0.000118826
3.51622e-05
0.000106289
3.75906e-05
9.31821e-05
3.92927e-05
7.93965e-05
4.13184e-05
6.51919e-05
4.26036e-05
5.07188e-05
4.34176e-05
3.60194e-05
4.40305e-05
2.11974e-05
4.44525e-05
6.61096e-06
4.37209e-05
-7.785e-06
4.31649e-05
-2.1719e-05
4.17803e-05
-3.51405e-05
4.02418e-05
-4.78593e-05
3.81378e-05
-5.98108e-05
3.58425e-05
-7.098e-05
3.3497e-05
-8.12854e-05
3.09072e-05
-9.06973e-05
2.82323e-05
-9.92627e-05
2.57113e-05
-0.000106946
2.30472e-05
-0.000113827
2.06456e-05
-0.00011994
1.83481e-05
-0.000125305
1.61079e-05
-0.000130008
1.41086e-05
-0.000134102
1.22818e-05
-0.00013763
1.05853e-05
-0.000140645
9.06463e-06
-0.000143185
7.61875e-06
-0.0001453
6.34274e-06
-0.00014704
5.22782e-06
-0.000148413
4.11598e-06
-0.000149426
3.03558e-06
-0.000150064
1.90285e-06
-0.000150288
6.52072e-07
-0.000150011
-8.14171e-07
-0.000149189
-2.4825e-06
-0.000147638
-4.667e-06
-0.00014539
-6.76964e-06
-0.000142205
-9.55068e-06
-0.000138164
-1.21369e-05
-0.000133224
-1.48339e-05
-0.000127174
-1.81549e-05
-0.000120086
-2.12679e-05
-0.000111994
-2.42767e-05
-0.000102683
-2.79265e-05
-9.23348e-05
-3.1036e-05
-8.08775e-05
-3.43567e-05
-6.82942e-05
-3.77618e-05
-5.4818e-05
-4.04153e-05
-4.03832e-05
-4.33027e-05
-2.50978e-05
-4.58071e-05
-9.19043e-06
-4.76897e-05
7.4083e-06
-4.9757e-05
2.45315e-05
-5.13301e-05
4.18618e-05
-5.19473e-05
5.93705e-05
-5.24666e-05
7.67443e-05
-5.20754e-05
9.3845e-05
-5.12584e-05
0.000110469
-4.9827e-05
0.000126301
-4.74544e-05
0.000141235
-4.47631e-05
0.000155071
-4.14691e-05
0.000167586
-3.74961e-05
0.000178623
-3.30791e-05
0.000188062
-2.82967e-05
0.000195791
-2.31673e-05
0.000201724
-1.7817e-05
0.000205779
-1.21769e-05
0.000207943
-6.48903e-06
0.000208165
-6.85652e-07
0.000206349
5.40785e-06
0.000202632
1.11539e-05
0.000197045
1.67489e-05
0.000189788
2.17492e-05
0.000180852
2.67832e-05
0.000170294
3.16437e-05
0.000158448
3.55091e-05
0.000145292
3.9434e-05
4.2999e-05
-0.000179472
1.4496e-05
-0.000182308
1.13069e-05
-0.000184445
8.51852e-06
-0.000185886
5.73326e-06
-0.000186624
2.98906e-06
-0.000186668
2.26963e-07
-0.000185974
-2.78159e-06
-0.000184583
-5.52724e-06
-0.000182561
-8.11705e-06
-0.000179668
-1.15508e-05
-0.00017607
-1.44069e-05
-0.000171768
-1.72183e-05
-0.000166584
-2.07976e-05
-0.000160497
-2.42813e-05
-0.000153467
-2.8145e-05
-0.000145538
-3.17617e-05
-0.00013678
-3.50663e-05
-0.000127036
-3.9006e-05
-0.000116246
-4.3182e-05
-0.000104504
-4.69108e-05
-9.16666e-05
-5.13442e-05
-7.77954e-05
-5.54825e-05
-6.30575e-05
-5.89209e-05
-4.73064e-05
-6.29606e-05
-3.07872e-05
-6.60158e-05
-1.33996e-05
-6.94701e-05
4.75785e-06
-7.25396e-05
2.33164e-05
-7.41472e-05
4.23344e-05
-7.59562e-05
6.1567e-05
-7.67923e-05
8.06442e-05
-7.61802e-05
9.94991e-05
-7.52777e-05
0.000117817
-7.31489e-05
0.000135437
-7.0336e-05
0.000152054
-6.63071e-05
0.00016731
-6.08761e-05
0.000181001
-5.46126e-05
0.000192907
-4.74901e-05
0.000202791
-3.95039e-05
0.00021057
-3.10383e-05
0.000216019
-2.17556e-05
0.000219101
-1.22861e-05
0.000219742
-2.56784e-06
0.000217713
7.93953e-06
0.000213338
1.74784e-05
0.000206711
2.6443e-05
0.000197771
3.57283e-05
0.000186817
4.37076e-05
0.000174036
5.10562e-05
0.000159587
5.7598e-05
0.000143836
6.28491e-05
0.000126978
6.727e-05
0.000109282
7.06266e-05
9.09622e-05
7.3131e-05
7.22767e-05
7.46165e-05
5.34745e-05
7.51671e-05
3.46964e-05
7.50017e-05
1.617e-05
7.39357e-05
-1.88801e-06
7.21951e-05
-1.93808e-05
6.98956e-05
-3.61652e-05
6.70749e-05
-5.22195e-05
6.41537e-05
-6.73715e-05
6.05645e-05
-8.16182e-05
5.69543e-05
-9.49748e-05
5.34053e-05
-0.000107334
4.94212e-05
-0.000118709
4.55078e-05
-0.00012917
4.18576e-05
-0.000138658
3.79518e-05
-0.000147274
3.44255e-05
-0.000154953
3.07325e-05
-0.000161748
2.71841e-05
-0.000167747
2.39738e-05
-0.000172825
2.03195e-05
-0.000177018
1.67728e-05
-0.000180463
1.37247e-05
-0.000182981
1.01174e-05
-0.000184717
6.88774e-06
-0.000185652
3.84964e-06
-0.000185725
3.00548e-07
-0.00018511
-2.40854e-06
-0.000183634
-5.9341e-06
-0.000181307
-9.29379e-06
-0.000178217
-1.2304e-05
-0.000174305
-1.56942e-05
-0.000169651
-1.86698e-05
-0.000164167
-2.1962e-05
-0.000157802
-2.54651e-05
-0.000150605
-2.88031e-05
-0.000142598
-3.20656e-05
-0.000133845
-3.50978e-05
-0.000124297
-3.8138e-05
-0.000113995
-4.12334e-05
-0.000102958
-4.41837e-05
-9.11708e-05
-4.71889e-05
-7.86351e-05
-5.01913e-05
-6.53774e-05
-5.31098e-05
-5.13697e-05
-5.60694e-05
-3.66724e-05
-5.88594e-05
-2.12742e-05
-6.15999e-05
-5.26109e-06
-6.40364e-05
1.12888e-05
-6.61317e-05
2.82637e-05
-6.78359e-05