/*--------------------------------*- C++ -*----------------------------------*\
| =========                 |                                                 |
| \\      /  F ield         | OpenFOAM: The Open Source CFD Toolbox           |
|  \\    /   O peration     | Version:  3.0.1                                 |
|   \\  /    A nd           | Web:      www.OpenFOAM.org                      |
|    \\/     M anipulation  |                                                 |
\*---------------------------------------------------------------------------*/
FoamFile
{
    version     2.0;
    format      ascii;
    class       surfaceScalarField;
    location    "74.4";
    object      alphaPhi;
}
// * * * * * * * * * * * * * * * * * * * * * * * * * * * * * * * * * * * * * //

dimensions      [0 3 -1 0 0 0 0];

internalField   nonuniform List<scalar> 
42423
(
0.000330022
1.01806e-05
0.000318545
1.1477e-05
0.000305572
1.29733e-05
0.000291125
1.44468e-05
0.000275732
1.53929e-05
0.000259388
1.63442e-05
0.00024252
1.68683e-05
0.000225238
1.72816e-05
0.000207671
1.75666e-05
0.000190227
1.74445e-05
0.000173042
1.71851e-05
0.000156248
1.6794e-05
0.000140094
1.61539e-05
0.00012466
1.54342e-05
0.000110076
1.45844e-05
9.63889e-05
1.36866e-05
8.36043e-05
1.27846e-05
7.17979e-05
1.18064e-05
6.0909e-05
1.08889e-05
5.08935e-05
1.00155e-05
4.17527e-05
9.14081e-06
3.3407e-05
8.3457e-06
2.5781e-05
7.62602e-06
1.88139e-05
6.96707e-06
1.24826e-05
6.33127e-06
6.72215e-06
5.76047e-06
1.51769e-06
5.20447e-06
-3.21032e-06
4.72801e-06
-7.44027e-06
4.22995e-06
-1.11831e-05
3.74288e-06
-1.44509e-05
3.26776e-06
-1.72105e-05
2.7596e-06
-1.94657e-05
2.25521e-06
-2.11714e-05
1.70571e-06
-2.23379e-05
1.16645e-06
-2.29433e-05
6.05426e-07
-2.29529e-05
9.61563e-09
-2.23609e-05
-5.91973e-07
-2.11898e-05
-1.17114e-06
-1.92705e-05
-1.91931e-06
-1.67675e-05
-2.50298e-06
-1.35375e-05
-3.22999e-06
-9.53501e-06
-4.00254e-06
-4.92263e-06
-4.61238e-06
5.25881e-07
-5.44852e-06
6.72293e-06
-6.19706e-06
1.36208e-05
-6.89787e-06
2.13785e-05
-7.75771e-06
3.00122e-05
-8.63375e-06
3.93719e-05
-9.35972e-06
4.97025e-05
-1.03306e-05
6.08555e-05
-1.1153e-05
7.29768e-05
-1.21213e-05
8.60701e-05
-1.30933e-05
9.99246e-05
-1.38546e-05
0.000114683
-1.47581e-05
0.00013032
-1.56377e-05
0.000146572
-1.62513e-05
0.000163572
-1.70007e-05
0.00018111
-1.75379e-05
0.000199095
-1.79846e-05
0.000217437
-1.8342e-05
0.000235878
-1.84417e-05
0.000254243
-1.83651e-05
0.000272399
-1.81558e-05
0.000289991
-1.75918e-05
0.000306808
-1.68175e-05
0.000322468
-1.566e-05
0.000336651
-1.41825e-05
0.000349025
-1.23746e-05
0.000359076
-1.00508e-05
0.000366468
-7.39184e-06
0.00037104
-4.57223e-06
0.000372761
-1.72121e-06
0.000372037
7.24302e-07
0.000368424
3.61216e-06
0.000362006
6.41824e-06
0.000353235
8.7709e-06
0.000342432
1.08028e-05
0.000330045
1.23872e-05
0.000316366
1.3679e-05
0.000301614
1.47517e-05
0.000286073
1.55418e-05
0.000269915
1.61576e-05
0.000253209
1.67058e-05
0.000236121
1.7088e-05
0.000218714
1.74074e-05
0.000201107
1.76065e-05
0.000183414
1.76937e-05
0.000165748
1.76655e-05
0.00014827
1.74786e-05
0.000131091
1.71781e-05
0.000114319
1.67728e-05
9.8118e-05
1.62006e-05
8.23564e-05
1.57616e-05
6.74126e-05
1.49438e-05
5.30167e-05
1.43959e-05
3.94135e-05
1.36032e-05
2.65519e-05
1.28616e-05
1.454e-05
1.20119e-05
3.27195e-06
1.12681e-05
-7.15325e-06
1.04252e-05
-1.67028e-05
9.54955e-06
-2.53851e-05
8.68227e-06
-3.31543e-05
7.76915e-06
-4.0112e-05
6.95772e-06
-4.61694e-05
6.05736e-06
-5.13848e-05
5.21542e-06
-5.5743e-05
4.35814e-06
-5.92892e-05
3.54618e-06
-6.20285e-05
2.73925e-06
-6.39758e-05
1.94724e-06
-6.51637e-05
1.18788e-06
-6.5621e-05
4.57208e-07
-6.53533e-05
-2.67688e-07
-6.44125e-05
-9.4082e-07
-6.28032e-05
-1.6094e-06
-6.04524e-05
-2.35084e-06
-5.76313e-05
-2.82119e-06
-5.40998e-05
-3.53152e-06
-4.99666e-05
-4.13325e-06
-4.53061e-05
-4.66054e-06
-4.01693e-05
-5.1369e-06
-3.44469e-05
-5.72239e-06
-2.81973e-05
-6.24964e-06
-2.14398e-05
-6.75762e-06
-1.42413e-05
-7.19849e-06
-6.57042e-06
-7.67092e-06
1.62408e-06
-8.19453e-06
1.03201e-05
-8.69607e-06
1.95743e-05
-9.25421e-06
2.93577e-05
-9.78344e-06
3.97479e-05
-1.03901e-05
5.06951e-05
-1.09473e-05
6.22268e-05
-1.15317e-05
7.43483e-05
-1.21215e-05
8.70619e-05
-1.27136e-05
0.000100311
-1.32494e-05
0.000114104
-1.37922e-05
0.00012837
-1.4266e-05
0.000143065
-1.46958e-05
0.000158137
-1.50712e-05
0.000173522
-1.53848e-05
0.000189102
-1.55806e-05
0.000204822
-1.57199e-05
0.000220564
-1.57422e-05
0.000236243
-1.5679e-05
0.000251665
-1.54219e-05
0.000266738
-1.50727e-05
0.000281328
-1.45898e-05
0.000295277
-1.39493e-05
0.000308407
-1.31296e-05
0.000320485
-1.20776e-05
0.000331317
-1.08327e-05
0.000340756
-9.43866e-06
0.000348496
-7.74015e-06
0.000354393
-5.8968e-06
0.000358192
-3.79894e-06
0.00035979
-1.59788e-06
0.00035914
6.50678e-07
0.00035607
3.06948e-06
0.000350556
5.51456e-06
0.000342762
7.79406e-06
0.0003328
9.96178e-06
0.000320825
1.19745e-05
0.000307082
1.37436e-05
0.000291817
1.52651e-05
0.00027533
1.64869e-05
0.000257924
1.74057e-05
0.000239918
1.80062e-05
0.000221609
1.83092e-05
0.000203308
1.83008e-05
0.000185309
1.79998e-05
0.000167843
1.74661e-05
0.000151113
1.673e-05
0.00013529
1.58224e-05
0.00012046
1.483e-05
0.000106711
1.37491e-05
9.40877e-05
1.26234e-05
8.26191e-05
1.14686e-05
7.23252e-05
1.02938e-05
6.31865e-05
9.13871e-06
5.51718e-05
8.01468e-06
4.82431e-05
6.9287e-06
4.23491e-05
5.89398e-06
3.74212e-05
4.92793e-06
3.34223e-05
3.9989e-06
3.02587e-05
3.16362e-06
2.78348e-05
2.42384e-06
2.60744e-05
1.76039e-06
2.49144e-05
1.16007e-06
2.42955e-05
6.18881e-07
2.41531e-05
1.42328e-07
2.448e-05
-3.26841e-07
2.52059e-05
-7.25964e-07
2.63334e-05
-1.12746e-06
2.78079e-05
-1.47453e-06
2.96098e-05
-1.80192e-06
3.16925e-05
-2.0827e-06
3.3986e-05
-2.29347e-06
3.64165e-05
-2.43057e-06
3.89137e-05
-2.49716e-06
4.14232e-05
-2.50949e-06
4.3921e-05
-2.49784e-06
4.64055e-05
-2.48452e-06
4.88928e-05
-2.48738e-06
5.14597e-05
-2.56694e-06
5.41468e-05
-2.6871e-06
5.70399e-05
-2.89313e-06
6.01784e-05
-3.13846e-06
6.36339e-05
-3.45551e-06
6.74341e-05
-3.80032e-06
7.15967e-05
-4.16255e-06
7.62186e-05
-4.622e-06
8.13218e-05
-5.1032e-06
8.69876e-05
-5.66582e-06
9.32532e-05
-6.26571e-06
0.00010015
-6.89689e-06
0.000107699
-7.54876e-06
0.00011594
-8.2413e-06
0.000124942
-9.00231e-06
0.000134783
-9.84044e-06
0.000145489
-1.07067e-05
0.000157055
-1.15659e-05
0.00016944
-1.23852e-05
0.000182582
-1.31422e-05
0.000196357
-1.37748e-05
0.000210646
-1.42896e-05
0.000225303
-1.46566e-05
0.00024017
-1.48668e-05
0.000255071
-1.49015e-05
0.000269818
-1.47469e-05
0.000284229
-1.44107e-05
0.000298104
-1.38754e-05
0.000311243
-1.31393e-05
0.000323462
-1.22191e-05
0.00033453
-1.10678e-05
0.000344221
-9.69112e-06
0.000352304
-8.08266e-06
0.000358509
-6.20581e-06
0.000362659
-4.15006e-06
0.000364646
-1.98679e-06
0.000364429
2.16635e-07
0.000361958
2.47185e-06
0.000357241
4.71701e-06
0.000350514
6.72633e-06
0.000341941
8.57348e-06
0.000331754
1.01871e-05
0.00032017
1.15834e-05
0.000307465
1.27055e-05
0.000293857
1.36073e-05
0.000279614
1.4243e-05
0.000264965
1.46492e-05
0.000250134
1.48308e-05
0.000235318
1.48156e-05
0.000220681
1.46377e-05
0.000206365
1.43155e-05
0.000192473
1.38914e-05
0.000179056
1.34177e-05
0.000166133
1.29224e-05
0.000153727
1.24057e-05
0.000141862
1.18659e-05
0.000130531
1.13306e-05
0.000119727
1.0804e-05
0.000109471
1.02559e-05
9.98461e-05
9.62474e-06
9.08633e-05
8.98274e-06
8.25051e-05
8.35814e-06
7.47762e-05
7.72884e-06
6.76803e-05
7.09582e-06
6.11876e-05
6.4926e-06
5.53202e-05
5.86731e-06
5.00097e-05
5.31036e-06
4.52545e-05
4.75507e-06
4.10464e-05
4.20808e-06
3.73457e-05
3.70056e-06
3.41758e-05
3.16979e-06
3.16067e-05
2.569e-06
2.95893e-05
2.01735e-06
2.82536e-05
1.33561e-06
2.75236e-05
7.29897e-07
2.72847e-05
2.3892e-07
2.7608e-05
-3.23441e-07
2.86223e-05
-1.01434e-06
3.01452e-05
-1.52293e-06
3.22459e-05
-2.10081e-06
3.48379e-05
-2.59201e-06
3.77205e-05
-2.88268e-06
4.09698e-05
-3.24937e-06
4.43702e-05
-3.40041e-06
4.78963e-05
-3.52611e-06
5.16262e-05
-3.73001e-06
5.55061e-05
-3.87987e-06
5.95715e-05
-4.06546e-06
6.39359e-05
-4.36441e-06
6.86565e-05
-4.72066e-06
7.3834e-05
-5.17753e-06
7.95159e-05
-5.682e-06
8.58715e-05
-6.35556e-06
9.2893e-05
-7.02158e-06
0.000100745
-7.85168e-06
0.00010946
-8.71561e-06
0.000118993
-9.53294e-06
0.000129561
-1.0568e-05
0.000141149
-1.15884e-05
0.000153588
-1.24384e-05
0.000167157
-1.35697e-05
0.000181575
-1.44175e-05
0.000196936
-1.53618e-05
0.000213103
-1.61666e-05
0.00022967
-1.65673e-05
0.00024666
-1.69905e-05
0.000263952
-1.72914e-05
0.000281134
-1.71828e-05
0.000298086
-1.69514e-05
0.000314517
-1.64317e-05
0.000330306
-1.57887e-05
0.000345198
-1.48927e-05
0.000358878
-1.36793e-05
0.000371221
-1.23432e-05
0.000382066
-1.08454e-05
0.000391118
-9.05254e-06
0.000398336
-7.21739e-06
0.000403504
-5.16813e-06
0.000406636
-3.13209e-06
0.000407573
-9.37728e-07
0.000406224
1.34955e-06
0.000402607
3.61653e-06
0.000396917
5.6901e-06
0.000389086
7.831e-06
0.000379472
9.61365e-06
0.000368296
1.11757e-05
0.000355467
1.28292e-05
0.000341468
1.39994e-05
0.000326449
1.50186e-05
0.000310732
1.57169e-05
0.000294582
1.61503e-05
0.000278017
1.65642e-05
0.000261428
1.65892e-05
0.000244984
1.64438e-05
0.000228736
1.62479e-05
0.000212946
1.57905e-05
0.000197653
1.52924e-05
0.00018299
1.46629e-05
0.000168976
1.40142e-05
0.000155603
1.33731e-05
0.00014294
1.26634e-05
0.000130959
1.198e-05
0.000119631
1.1328e-05
0.000108965
1.06668e-05
9.89188e-05
1.00457e-05
8.94727e-05
9.44607e-06
8.06e-05
8.87268e-06
7.2283e-05
8.31699e-06
6.45197e-05
7.76332e-06
5.73067e-05
7.21292e-06
6.67407e-06
0.000330089
2.03636e-05
0.000318609
2.29569e-05
0.00030563
2.5952e-05
0.000291176
2.89006e-05
0.000275776
3.0793e-05
0.000259424
3.26969e-05
0.000242547
3.37451e-05
0.000225257
3.45716e-05
0.000207681
3.51427e-05
0.000190227
3.48981e-05
0.000173035
3.43767e-05
0.000156234
3.35954e-05
0.000140074
3.23135e-05
0.000124636
3.08724e-05
0.000110048
2.91726e-05
9.63591e-05
2.73754e-05
8.35738e-05
2.557e-05
7.17667e-05
2.36135e-05
6.08785e-05
2.17772e-05
5.0864e-05
2.003e-05
4.17245e-05
1.82803e-05
3.33782e-05
1.6692e-05
2.57533e-05
1.52509e-05
1.87926e-05
1.39277e-05
1.24601e-05
1.26638e-05
6.7035e-06
1.15171e-05
1.495e-06
1.0413e-05
-3.22935e-06
9.45236e-06
-7.46069e-06
8.46129e-06
-1.12032e-05
7.48543e-06
-1.44722e-05
6.53668e-06
-1.72333e-05
5.52075e-06
-1.94888e-05
4.51069e-06
-2.11956e-05
3.41248e-06
-2.23698e-05
2.34064e-06
-2.29796e-05
1.21523e-06
-2.29929e-05
2.29347e-08
-2.23921e-05
-1.1928e-06
-2.12031e-05
-2.36015e-06
-1.93033e-05
-3.81912e-06
-1.68157e-05
-4.9905e-06
-1.35724e-05
-6.47337e-06
-9.57183e-06
-8.0031e-06
-4.94915e-06
-9.23508e-06
4.89061e-07
-1.08868e-05
6.68308e-06
-1.23911e-05
1.3579e-05
-1.37938e-05
2.13339e-05
-1.55127e-05
2.99675e-05
-1.72674e-05
3.93243e-05
-1.87165e-05
4.96548e-05
-2.06611e-05
6.08072e-05
-2.23055e-05
7.29289e-05
-2.42431e-05
8.60258e-05
-2.61903e-05
9.98813e-05
-2.77101e-05
0.000114644
-2.95213e-05
0.000130287
-3.12805e-05
0.000146544
-3.25087e-05
0.000163553
-3.4009e-05
0.000181095
-3.50807e-05
0.000199091
-3.59803e-05
0.000217448
-3.66997e-05
0.000235906
-3.68991e-05
0.000254283
-3.67429e-05
0.000272451
-3.63238e-05
0.000290062
-3.52021e-05
0.000306911
-3.36668e-05
0.000322621
-3.13705e-05
0.000336831
-2.83928e-05
0.000349215
-2.47586e-05
0.000359291
-2.01271e-05
0.000366698
-1.47987e-05
0.00037128
-9.15455e-06
0.000373024
-3.46492e-06
0.000372296
1.45182e-06
0.000368677
7.23168e-06
0.00036226
1.28348e-05
0.000353501
1.75303e-05
0.00034271
2.15935e-05
0.000330334
2.47633e-05
0.000316665
2.73483e-05
0.00030192
2.94964e-05
0.000286384
3.10777e-05
0.000270232
3.23096e-05
0.000253529
3.34089e-05
0.00023644
3.4177e-05
0.000219029
3.48187e-05
0.000201417
3.52177e-05
0.000183717
3.53945e-05
0.000166054
3.5328e-05
0.000148553
3.49795e-05
0.000131362
3.4369e-05
0.00011458
3.35551e-05
9.83713e-05
3.24095e-05
8.26871e-05
3.14458e-05
6.76015e-05
3.00295e-05
5.32565e-05
2.87409e-05
3.96406e-05
2.72192e-05
2.68073e-05
2.56949e-05
1.47582e-05
2.4061e-05
3.48451e-06
2.25418e-05
-6.93062e-06
2.08403e-05
-1.64789e-05
1.90979e-05
-2.51652e-05
1.73685e-05
-3.29657e-05
1.55697e-05
-3.99029e-05
1.38949e-05
-4.59619e-05
1.21163e-05
-5.11758e-05
1.04293e-05
-5.55229e-05
8.70516e-06
-5.90827e-05
7.10596e-06
-6.18155e-05
5.47202e-06
-6.37633e-05
3.89502e-06
-6.49556e-05
2.3801e-06
-6.5411e-05
9.12578e-07
-6.51408e-05
-5.37934e-07
-6.41934e-05
-1.88829e-06
-6.25761e-05
-3.22675e-06
-6.02907e-05
-4.63623e-06
-5.742e-05
-5.69198e-06
-5.39e-05
-7.05151e-06
-4.97513e-05
-8.28203e-06
-4.5139e-05
-9.27293e-06
-3.99403e-05
-1.03356e-05
-3.41932e-05
-1.14695e-05
-2.79809e-05
-1.2462e-05
-2.12066e-05
-1.35319e-05
-1.40348e-05
-1.43703e-05
-6.35012e-06
-1.53556e-05
1.83905e-06
-1.63837e-05
1.05483e-05
-1.74053e-05
1.97886e-05
-1.84945e-05
2.95739e-05
-1.95687e-05
3.99492e-05
-2.07655e-05
5.08852e-05
-2.18832e-05
6.2407e-05
-2.30535e-05
7.45228e-05
-2.42372e-05
8.72198e-05
-2.54106e-05
0.000100454
-2.64833e-05
0.000114242
-2.75803e-05
0.000128495
-2.8519e-05
0.000143171
-2.9372e-05
0.000158233
-3.01327e-05
0.000173598
-3.07501e-05
0.000189166
-3.11481e-05
0.000204879
-3.1433e-05
0.000220608
-3.14718e-05
0.000236259
-3.13297e-05
0.00025168
-3.08428e-05
0.000266747
-3.01393e-05
0.00028133
-2.91733e-05
0.000295272
-2.7891e-05
0.000308395
-2.62526e-05
0.000320479
-2.41616e-05
0.000331326
-2.16791e-05
0.000340763
-1.88755e-05
0.00034851
-1.54872e-05
0.000354409
-1.17959e-05
0.000358202
-7.59233e-06
0.000359831
-3.22662e-06
0.000359153
1.32896e-06
0.000356071
6.15134e-06
0.000350559
1.10263e-05
0.000342741
1.56129e-05
0.000332776
1.99261e-05
0.0003208
2.39505e-05
0.000307045
2.74988e-05
0.000291777
3.05337e-05
0.000275277
3.29863e-05
0.000257858
3.4825e-05
0.000239843
3.60219e-05
0.000221522
3.66295e-05
0.000203212
3.66117e-05
0.000185201
3.60107e-05
0.000167736
3.49311e-05
0.000151
3.34661e-05
0.00013516
3.16623e-05
0.000120318
2.96717e-05
0.000106571
2.74966e-05
9.39509e-05
2.52433e-05
8.24839e-05
2.29357e-05
7.21826e-05
2.05952e-05
6.30439e-05
1.82774e-05
5.50109e-05
1.60477e-05
4.80887e-05
1.3851e-05
4.2202e-05
1.17806e-05
3.72842e-05
9.84573e-06
3.32783e-05
8.00489e-06
3.0107e-05
6.33494e-06
2.76836e-05
4.84721e-06
2.59307e-05
3.51326e-06
2.4768e-05
2.32282e-06
2.41491e-05
1.23777e-06
2.40073e-05
2.84083e-07
2.43292e-05
-6.48721e-07
2.50513e-05
-1.44814e-06
2.61745e-05
-2.25063e-06
2.76489e-05
-2.94891e-06
2.94502e-05
-3.60326e-06
3.15341e-05
-4.16656e-06
3.38292e-05
-4.58858e-06
3.62595e-05
-4.86095e-06
3.8766e-05
-5.00363e-06
4.12813e-05
-5.02475e-06
4.37732e-05
-4.98982e-06
4.62531e-05
-4.96442e-06
4.87418e-05
-4.97609e-06
5.13086e-05
-5.13375e-06
5.39955e-05
-5.37401e-06
5.68893e-05
-5.78691e-06
6.00262e-05
-6.27543e-06
6.34748e-05
-6.90409e-06
6.72737e-05
-7.59928e-06
7.14442e-05
-8.33313e-06
7.60685e-05
-9.24628e-06
8.11758e-05
-1.02105e-05
8.68484e-05
-1.13385e-05
9.31149e-05
-1.25323e-05
0.000100007
-1.37887e-05
0.000107545
-1.50873e-05
0.000115793
-1.64889e-05
0.000124804
-1.8014e-05
0.000134648
-1.96838e-05
0.000145354
-2.14133e-05
0.000156923
-2.31348e-05
0.00016932
-2.47827e-05
0.000182474
-2.62964e-05
0.000196256
-2.75562e-05
0.000210552
-2.85861e-05
0.000225215
-2.93202e-05
0.00024009
-2.97419e-05
0.000255013
-2.98243e-05
0.00026977
-2.95039e-05
0.000284189
-2.88293e-05
0.000298088
-2.77748e-05
0.000311239
-2.62909e-05
0.000323474
-2.44542e-05
0.000334563
-2.21569e-05
0.000344261
-1.93894e-05
0.000352349
-1.61701e-05
0.000358582
-1.24388e-05
0.00036275
-8.31871e-06
0.000364723
-3.95909e-06
0.000364493
4.46401e-07
0.000362012
4.95291e-06
0.000357297
9.4315e-06
0.000350564
1.34593e-05
0.00034199
1.71476e-05
0.000331785
2.03914e-05
0.000320187
2.31823e-05
0.000307461
2.54306e-05
0.000293846
2.7223e-05
0.000279588
2.85004e-05
0.000264928
2.93089e-05
0.000250074
2.96855e-05
0.000235233
2.96567e-05
0.000220592
2.92784e-05
0.000206273
2.86343e-05
0.000192367
2.77973e-05
0.000178942
2.68428e-05
0.000166019
2.58459e-05
0.000153612
2.48121e-05
0.000141742
2.37363e-05
0.000130396
2.26761e-05
0.000119592
2.16084e-05
0.000109339
2.05089e-05
9.97038e-05
1.92597e-05
9.07173e-05
1.79692e-05
8.23662e-05
1.67091e-05
7.46419e-05
1.54531e-05
6.75557e-05
1.41819e-05
6.10767e-05
1.29715e-05
5.52142e-05
1.17297e-05
4.99142e-05
1.06103e-05
4.51707e-05
9.49841e-06
4.09725e-05
8.4062e-06
3.72783e-05
7.39468e-06
3.411e-05
6.33803e-06
3.15412e-05
5.13767e-06
2.95235e-05
4.03491e-06
2.8185e-05
2.67403e-06
2.74502e-05
1.46461e-06
2.72049e-05
4.84232e-07
2.75197e-05
-6.38357e-07
2.85292e-05
-2.02388e-06
3.00452e-05
-3.03901e-06
3.2141e-05
-4.19665e-06
3.47317e-05
-5.18278e-06
3.76137e-05
-5.76474e-06
4.08656e-05
-6.50138e-06
4.42699e-05
-6.80475e-06
4.77997e-05
-7.05594e-06
5.15342e-05
-7.46459e-06
5.54192e-05
-7.76492e-06
5.94894e-05
-8.13573e-06
6.38584e-05
-8.73347e-06
6.8583e-05
-9.44537e-06
7.37644e-05
-1.03589e-05
7.94475e-05
-1.13652e-05
8.58045e-05
-1.27127e-05
9.28267e-05
-1.40439e-05
0.000100678
-1.57028e-05
0.000109391
-1.74286e-05
0.000118915
-1.90576e-05
0.000129473
-2.11257e-05
0.00014106
-2.31755e-05
0.000153499
-2.48776e-05
0.000167057
-2.71285e-05
0.000181471
-2.88315e-05
0.00019682
-3.07105e-05
0.000212976
-3.23229e-05
0.000229565
-3.31566e-05
0.000246576
-3.40017e-05
0.000263894
-3.46094e-05
0.000281079
-3.43686e-05
0.000298031
-3.39027e-05
0.000314499
-3.29005e-05
0.000330306
-3.15954e-05
0.000345208
-2.97949e-05
0.000358913
-2.7385e-05
0.000371257
-2.46875e-05
0.000382115
-2.17035e-05
0.000391176
-1.81138e-05
0.000398406
-1.44475e-05
0.000403586
-1.03484e-05
0.000406726
-6.27235e-06
0.000407672
-1.88354e-06
0.000406306
2.71526e-06
0.000402691
7.23134e-06
0.000397006
1.1375e-05
0.00038917
1.56666e-05
0.00037955
1.92341e-05
0.000368366
2.23592e-05
0.000355527
2.5668e-05
0.000341517
2.8009e-05
0.000326488
3.00481e-05
0.000310761
3.14437e-05
0.000294602
3.23089e-05
0.000278029
3.31369e-05
0.000261433
3.31855e-05
0.000244983
3.28939e-05
0.000228729
3.25014e-05
0.000212934
3.1585e-05
0.000197639
3.0588e-05
0.000182974
2.9328e-05
0.000168958
2.80298e-05
0.000155584
2.67472e-05
0.00014292
2.53273e-05
0.00013094
2.396e-05
0.000119612
2.26559e-05
0.000108945
2.13336e-05
9.88996e-05
2.00911e-05
8.94534e-05
1.88922e-05
8.05807e-05
1.77454e-05
7.22634e-05
1.66343e-05
6.44993e-05
1.55273e-05
5.72855e-05
1.44267e-05
1.3349e-05
0.000330217
3.05568e-05
0.000318725
3.44487e-05
0.000305733
3.89444e-05
0.000291263
4.33703e-05
0.000275846
4.62102e-05
0.000259475
4.90677e-05
0.000242579
5.06408e-05
0.000225272
5.1879e-05
0.000207677
5.27377e-05
0.000190205
5.23694e-05
0.000173001
5.15808e-05
0.000156186
5.0411e-05
0.000140016
4.8483e-05
0.000124571
4.63182e-05
0.000109977
4.3766e-05
9.62857e-05
4.10669e-05
8.35009e-05
3.83547e-05
7.16937e-05
3.54207e-05
6.08072e-05
3.26637e-05
5.07977e-05
3.00395e-05
4.16619e-05
2.74161e-05
3.33167e-05
2.50373e-05
2.56954e-05
2.28722e-05
1.87474e-05
2.08757e-05
1.24133e-05
1.89979e-05
6.66579e-06
1.72646e-05
1.4514e-06
1.56274e-05
-3.26768e-06
1.41714e-05
-7.5005e-06
1.26941e-05
-1.12414e-05
1.12263e-05
-1.45116e-05
9.80688e-06
-1.72743e-05
8.28348e-06
-1.95303e-05
6.76661e-06
-2.12373e-05
5.11956e-06
-2.24169e-05
3.52016e-06
-2.30279e-05
1.82623e-06
-2.30414e-05
3.64758e-08
-2.24392e-05
-1.79495e-06
-2.12384e-05
-3.56098e-06
-1.93543e-05
-5.70322e-06
-1.68704e-05
-7.47441e-06
-1.36326e-05
-9.71123e-06
-9.64058e-06
-1.19951e-05
-4.99968e-06
-1.3876e-05
4.28848e-07
-1.63153e-05
6.61978e-06
-1.85821e-05
1.35137e-05
-2.06877e-05
2.12665e-05
-2.32656e-05
2.9899e-05
-2.58998e-05
3.92537e-05
-2.80713e-05
4.95834e-05
-3.09909e-05
6.07367e-05
-3.34588e-05
7.28577e-05
-3.63642e-05
8.59575e-05
-3.92901e-05
9.98177e-05
-4.15703e-05
0.000114584
-4.42881e-05
0.000130237
-4.6933e-05
0.000146503
-4.87747e-05
0.000163523
-5.10291e-05
0.00018108
-5.26382e-05
0.000199088
-5.39879e-05
0.000217462
-5.50744e-05
0.000235938
-5.53747e-05
0.000254336
-5.5141e-05
0.000272528
-5.45163e-05
0.000290161
-5.28346e-05
0.000307039
-5.05454e-05
0.00032279
-4.71217e-05
0.000337072
-4.26741e-05
0.000349551
-3.72385e-05
0.000359731
-3.03073e-05
0.000367254
-2.23216e-05
0.000371868
-1.3768e-05
0.000373537
-5.13423e-06
0.000372709
2.27914e-06
0.000369058
1.08831e-05
0.000362635
1.92573e-05
0.00035389
2.62755e-05
0.000343117
3.23668e-05
0.00033076
3.71196e-05
0.000317109
4.09994e-05
0.000302379
4.42264e-05
0.000286853
4.6604e-05
0.00027071
4.84528e-05
0.000254011
5.01071e-05
0.000236924
5.12639e-05
0.000219516
5.22276e-05
0.000201903
5.28297e-05
0.000184187
5.31115e-05
0.00016652
5.29946e-05
0.000149007
5.2492e-05
0.000131805
5.15719e-05
0.000115004
5.0356e-05
9.87325e-05
4.86807e-05
8.31351e-05
4.70432e-05
6.80773e-05
4.50874e-05
5.36815e-05
4.31366e-05
4.00919e-05
4.08089e-05
2.72117e-05
3.85751e-05
1.51174e-05
3.61553e-05
3.881e-06
3.37782e-05
-6.52017e-06
3.12415e-05
-1.60659e-05
2.86436e-05
-2.47492e-05
2.60518e-05
-3.25684e-05
2.33889e-05
-3.95002e-05
2.08266e-05
-4.5537e-05
1.81531e-05
-5.07712e-05
1.56635e-05
-5.51242e-05
1.30582e-05
-5.86784e-05
1.06601e-05
-6.14208e-05
8.21431e-06
-6.33725e-05
5.84675e-06
-6.45602e-05
3.56771e-06
-6.5013e-05
1.36529e-06
-6.47438e-05
-8.0714e-07
-6.37872e-05
-2.84497e-06
-6.21129e-05
-4.90104e-06
-5.99097e-05
-6.83948e-06
-5.70051e-05
-8.59668e-06
-5.35148e-05
-1.05418e-05
-4.94119e-05
-1.2385e-05
-4.47568e-05
-1.39281e-05
-3.95347e-05
-1.55577e-05
-3.37335e-05
-1.72707e-05
-2.75886e-05
-1.86069e-05
-2.08715e-05
-2.0249e-05
-1.36498e-05
-2.15921e-05
-5.91376e-06
-2.30916e-05
2.24811e-06
-2.45456e-05
1.0927e-05
-2.60842e-05
2.01608e-05
-2.77283e-05
2.99736e-05
-2.93815e-05
4.0279e-05
-3.10708e-05
5.12125e-05
-3.28167e-05
6.27074e-05
-3.45483e-05
7.48039e-05
-3.63337e-05
8.7489e-05
-3.80956e-05
0.000100706
-3.97006e-05
0.000114469
-4.13428e-05
0.000128688
-4.27381e-05
0.000143342
-4.40256e-05
0.00015837
-4.51609e-05
0.000173706
-4.6086e-05
0.000189251
-4.66927e-05
0.000204942
-4.71242e-05
0.000220646
-4.71757e-05
0.000236268
-4.69509e-05
0.000251672
-4.62472e-05
0.000266725
-4.51924e-05
0.000281296
-4.37437e-05
0.000295218
-4.18135e-05
0.000308309
-3.93433e-05
0.000320407
-3.62593e-05
0.000331268
-3.25397e-05
0.000340686
-2.82934e-05
0.000348451
-2.32524e-05
0.000354343
-1.76884e-05
0.000358173
-1.14215e-05
0.000359789
-4.84252e-06
0.000359082
2.03604e-06
0.000355995
9.23776e-06
0.000350489
1.65323e-05
0.000342669
2.34334e-05
0.000332677
2.99184e-05
0.000320677
3.59502e-05
0.000306907
4.12686e-05
0.000291614
4.58274e-05
0.0002751
4.95006e-05
0.000257667
5.22581e-05
0.000239638
5.40501e-05
0.000221309
5.49588e-05
0.000202981
5.49404e-05
0.000184949
5.40424e-05
0.00016747
5.24105e-05
0.000150718
5.02177e-05
0.000134871
4.75093e-05
0.00012002
4.45228e-05
0.000106261
4.1255e-05
9.3637e-05
3.78677e-05
8.21737e-05
3.4399e-05
7.18816e-05
3.08872e-05
6.27445e-05
2.74145e-05
5.47172e-05
2.40749e-05
4.77929e-05
2.07754e-05
4.19144e-05
1.76591e-05
3.70112e-05
1.47489e-05
3.30084e-05
1.20077e-05
2.98372e-05
9.50612e-06
2.74124e-05
7.27199e-06
2.56624e-05
5.26323e-06
2.45064e-05
3.4788e-06
2.38931e-05
1.85114e-06
2.37494e-05
4.27761e-07
2.40669e-05
-9.66207e-07
2.47858e-05
-2.16703e-06
2.59112e-05
-3.37611e-06
2.73876e-05
-4.42533e-06
2.9188e-05
-5.40362e-06
3.12713e-05
-6.24986e-06
3.35763e-05
-6.89362e-06
3.60215e-05
-7.30617e-06
3.85321e-05
-7.51424e-06
4.10525e-05
-7.54515e-06
4.35466e-05
-7.48391e-06
4.60247e-05
-7.44252e-06
4.85057e-05
-7.4571e-06
5.107e-05
-7.69809e-06
5.37458e-05
-8.04975e-06
5.66265e-05
-8.66765e-06
5.97649e-05
-9.41386e-06
6.32134e-05
-1.03526e-05
6.70068e-05
-1.13926e-05
7.11821e-05
-1.25085e-05
7.58076e-05
-1.38718e-05
8.09152e-05
-1.53182e-05
8.65844e-05
-1.70077e-05
9.28494e-05
-1.87973e-05
9.97405e-05
-2.06798e-05
0.00010728
-2.26271e-05
0.000115522
-2.47306e-05
0.000124531
-2.70235e-05
0.000134372
-2.95243e-05
0.000145083
-3.21241e-05
0.000156659
-3.47114e-05
0.000169075
-3.71982e-05
0.000182245
-3.94668e-05
0.00019604
-4.13508e-05
0.000210347
-4.28936e-05
0.000225023
-4.39966e-05
0.000239912
-4.4631e-05
0.000254849
-4.47606e-05
0.000269627
-4.42822e-05
0.000284066
-4.32685e-05
0.000297978
-4.16866e-05
0.000311153
-3.94659e-05
0.000323413
-3.6715e-05
0.000334518
-3.32621e-05
0.000344238
-2.91087e-05
0.000352347
-2.42793e-05
0.000358591
-1.86829e-05
0.000362791
-1.2519e-05
0.000364797
-5.9649e-06
0.000364546
6.96705e-07
0.000362036
7.46283e-06
0.000357308
1.41593e-05
0.000350557
2.02102e-05
0.000341957
2.57476e-05
0.000331742
3.06068e-05
0.000320125
3.47991e-05
0.000307372
3.81832e-05
0.000293727
4.08683e-05
0.00027945
4.27776e-05
0.000264764
4.39941e-05
0.000249898
4.4552e-05
0.000235046
4.45082e-05
0.00022038
4.39449e-05
0.000206049
4.29649e-05
0.000192139
4.17072e-05
0.000178708
4.02736e-05
0.000165784
3.87701e-05
0.000153386
3.72102e-05
0.00014151
3.56122e-05
0.000130149
3.4037e-05
0.000119338
3.24188e-05
0.000109084
3.07631e-05
9.94511e-05
2.88927e-05
9.04711e-05
2.69491e-05
8.21292e-05
2.5051e-05
7.44239e-05
2.31583e-05
6.73589e-05
2.12468e-05
6.0904e-05
1.94263e-05
5.50661e-05
1.75675e-05
4.97851e-05
1.58913e-05
4.5059e-05
1.42244e-05
4.08754e-05
1.25897e-05
3.71929e-05
1.10771e-05
3.40372e-05
9.49364e-06
3.1476e-05
7.69881e-06
2.94569e-05
6.05387e-06
2.81123e-05
4.01855e-06
2.73705e-05
2.20637e-06
2.7118e-05
7.36601e-07
2.74208e-05
-9.41192e-07
2.842e-05
-3.02321e-06
2.99248e-05
-4.54385e-06
3.20109e-05
-6.28284e-06
3.45971e-05
-7.76906e-06
3.74752e-05
-8.6429e-06
4.07296e-05
-9.75583e-06
4.4139e-05
-1.02142e-05
4.76715e-05
-1.05884e-05
5.14125e-05
-1.12057e-05
5.53056e-05
-1.1658e-05
5.9382e-05
-1.22122e-05
6.37575e-05
-1.3109e-05
6.84881e-05
-1.41761e-05
7.36727e-05
-1.55436e-05
7.9362e-05
-1.70545e-05
8.57226e-05
-1.90734e-05
9.2746e-05
-2.10674e-05
0.000100597
-2.35537e-05
0.000109307
-2.61389e-05
0.000118825
-2.85762e-05
0.00012937
-3.16701e-05
0.000140931
-3.47366e-05
0.000153343
-3.72902e-05
0.000166878
-4.06639e-05
0.000181267
-4.32202e-05
0.000196603
-4.60466e-05
0.000212768
-4.84884e-05
0.000229361
-4.97495e-05
0.000246387
-5.10283e-05
0.000263735
-5.19569e-05
0.000280949
-5.1583e-05
0.000297951
-5.09056e-05
0.000314452
-4.94016e-05
0.000330282
-4.74248e-05
0.000345218
-4.47315e-05
0.000358957
-4.11239e-05
0.000371335
-3.70656e-05
0.000382212
-3.25811e-05
0.000391291
-2.71926e-05
0.000398536
-2.1693e-05
0.000403725
-1.55377e-05
0.00040688
-9.42735e-06
0.000407844
-2.84788e-06
0.000406447
4.11265e-06
0.000402835
1.08423e-05
0.000397157
1.70528e-05
0.000389313
2.35111e-05
0.000379679
2.8868e-05
0.00036848
3.35581e-05
0.000355623
3.85244e-05
0.000341595
4.20373e-05
0.000326546
4.50963e-05
0.000310801
4.71892e-05
0.000294624
4.84855e-05
0.000278034
4.97262e-05
0.000261423
4.97966e-05
0.00024496
4.93567e-05
0.000228696
4.87654e-05
0.000212893
4.73878e-05
0.000197592
4.58896e-05
0.000182922
4.39971e-05
0.000168904
4.20478e-05
0.000155529
4.01221e-05
0.000142866
3.79909e-05
0.000130887
3.5939e-05
0.00011956
3.39822e-05
0.000108895
3.19984e-05
9.8852e-05
3.01344e-05
8.94074e-05
2.83368e-05
8.05363e-05
2.66164e-05
7.22199e-05
2.49507e-05
6.44559e-05
2.32913e-05
5.72418e-05
2.16407e-05
2.00246e-05
0.000330409
4.07653e-05
0.000318899
4.5958e-05
0.000305886
5.19577e-05
0.000291393
5.78638e-05
0.00027595
6.1653e-05
0.000259552
6.54659e-05
0.000242628
6.75647e-05
0.000225295
6.92121e-05
0.000207671
7.03615e-05
0.000190174
6.98667e-05
0.000172951
6.88033e-05
0.000156112
6.72502e-05
0.000139929
6.46657e-05
0.000124472
6.17754e-05
0.000109871
5.83669e-05
9.61754e-05
5.47625e-05
8.33925e-05
5.11376e-05
7.15842e-05
4.7229e-05
6.06983e-05
4.35496e-05
5.06995e-05
4.00383e-05
4.15696e-05
3.65461e-05
3.32276e-05
3.33792e-05
2.5612e-05
3.04878e-05
1.86823e-05
2.78054e-05
1.23451e-05
2.5335e-05
6.61334e-06
2.29964e-05
1.39249e-06
2.08482e-05
-3.32494e-06
1.88889e-05
-7.55982e-06
1.6929e-05
-1.13013e-05
1.49678e-05
-1.45703e-05
1.30759e-05
-1.73358e-05
1.1049e-05
-1.95915e-05
9.0223e-06
-2.12997e-05
6.82777e-06
-2.24869e-05
4.70735e-06
-2.31016e-05
2.44094e-06
-2.31192e-05
5.40753e-08
-2.25127e-05
-2.40151e-06
-2.13068e-05
-4.76685e-06
-1.9433e-05
-7.57698e-06
-1.69531e-05
-9.95435e-06
-1.37229e-05
-1.29415e-05
-9.76621e-06
-1.59518e-05
-5.07985e-06
-1.85624e-05
3.37172e-07
-2.17323e-05
6.52403e-06
-2.47689e-05
1.34146e-05
-2.75783e-05
2.11636e-05
-3.10147e-05
2.97955e-05
-3.45318e-05
3.91468e-05
-3.74226e-05
4.94749e-05
-4.1319e-05
6.06277e-05
-4.46117e-05
7.27499e-05
-4.84863e-05
8.58547e-05
-5.23951e-05
9.97211e-05
-5.54368e-05
0.000114496
-5.90626e-05
0.000130162
-6.2599e-05
0.000146442
-6.50554e-05
0.00016348
-6.8067e-05
0.000181059
-7.02169e-05
0.00019909
-7.20189e-05
0.000217489
-7.34744e-05
0.000235997
-7.38825e-05
0.000254427
-7.3571e-05
0.000272661
-7.27509e-05
0.000290347
-7.05203e-05
0.000307291
-6.7489e-05
0.000323123
-6.2954e-05
0.000337498
-5.7049e-05
0.000350103
-4.98438e-05
0.00036044
-4.06448e-05
0.000368144
-3.00249e-05
0.000372934
-1.85589e-05
0.000374567
-6.76709e-06
0.000373438
3.40814e-06
0.000369618
1.47034e-05
0.000363191
2.56839e-05
0.000354469
3.49978e-05
0.000343719
4.31167e-05
0.000331388
4.94507e-05
0.000317762
5.46251e-05
0.000303053
5.89352e-05
0.000287547
6.21102e-05
0.000271418
6.45821e-05
0.000254729
6.67954e-05
0.000237646
6.83477e-05
0.000220234
6.9639e-05
0.000202618
7.04461e-05
0.000184891
7.08385e-05
0.000167208
7.06777e-05
0.000149675
7.00245e-05
0.000132504
6.87427e-05
0.000115714
6.71469e-05
9.94007e-05
6.49936e-05
8.3707e-05
6.27369e-05
6.87156e-05
6.00788e-05
5.43103e-05
5.7542e-05
4.06671e-05
5.4452e-05
2.78038e-05
5.14384e-05
1.57127e-05
4.82464e-05
4.50059e-06
4.49903e-05
-5.92772e-06
4.16698e-05
-1.54663e-05
3.81822e-05
-2.41618e-05
3.47472e-05
-3.19642e-05
3.11913e-05
-3.89041e-05
2.77665e-05
-4.49558e-05
2.42048e-05
-5.01766e-05
2.08842e-05
-5.45464e-05
1.7428e-05
-5.8066e-05
1.41796e-05
-6.08308e-05
1.09791e-05
-6.27731e-05
7.78901e-06
-6.39283e-05
4.72283e-06
-6.43823e-05
1.81928e-06
-6.40947e-05
-1.09479e-06
-6.31654e-05
-3.77428e-06
-6.15991e-05
-6.46739e-06
-5.93144e-05
-9.12426e-06
-5.63541e-05
-1.1557e-05
-5.29324e-05
-1.39635e-05
-4.88333e-05
-1.64841e-05
-4.41753e-05
-1.85863e-05
-3.88849e-05
-2.0848e-05
-3.32447e-05
-2.2911e-05
-2.70093e-05
-2.48424e-05