/*--------------------------------*- C++ -*----------------------------------*\
| =========                 |                                                 |
| \\      /  F ield         | OpenFOAM: The Open Source CFD Toolbox           |
|  \\    /   O peration     | Version:  3.0.1                                 |
|   \\  /    A nd           | Web:      www.OpenFOAM.org                      |
|    \\/     M anipulation  |                                                 |
\*---------------------------------------------------------------------------*/
FoamFile
{
    version     2.0;
    format      ascii;
    class       volScalarField;
    location    "52.2";
    object      p_rgh;
}
// * * * * * * * * * * * * * * * * * * * * * * * * * * * * * * * * * * * * * //

dimensions      [1 -1 -2 0 0 0 0];

internalField   nonuniform List<scalar> 
21420
(
-33.8132
-62.7037
-91.332
-118.946
-145.157
-169.797
-192.727
-213.902
-233.281
-250.865
-266.683
-280.766
-293.156
-303.904
-313.057
-320.66
-326.754
-331.375
-334.555
-336.269
-336.534
-335.406
-332.85
-328.834
-323.331
-316.311
-307.726
-297.53
-285.67
-272.091
-256.74
-239.576
-220.565
-199.691
-176.959
-152.372
-125.992
-97.9083
-68.2218
-37.0998
-4.75969
28.4955
62.4585
96.7816
131.158
165.181
198.44
230.558
261.112
289.687
315.927
339.47
359.995
377.222
390.904
400.86
406.962
409.074
407.145
401.203
391.362
377.735
360.521
339.971
316.364
290.014
261.283
230.556
198.249
164.769
130.514
95.9068
61.326
27.1633
-6.19897
-38.7194
-70.1135
-100.156
-128.663
-155.492
-180.529
-203.704
-224.974
-244.301
-261.676
-277.11
-290.62
-302.231
-311.971
-319.891
-326.04
-330.484
-333.269
-334.443
-334.094
-332.291
-329.066
-324.454
-318.48
-311.154
-302.473
-292.41
-280.941
-268.041
-253.672
-237.806
-220.417
-201.491
-181.025
-159.023
-135.505
-110.516
-84.1212
-56.4065
-27.4868
2.49172
33.4104
64.9555
96.9355
129.076
161.069
192.578
223.24
252.671
280.478
306.259
329.621
350.188
367.609
381.574
391.818
398.136
400.314
398.406
392.32
382.138
367.977
350.056
328.635
304.038
276.635
246.839
215.09
181.853
147.597
112.791
77.8885
43.3172
9.46646
-23.3237
-54.7645
-84.6252
-112.732
-138.963
-163.25
-185.565
-205.911
-224.326
-240.861
-255.58
-268.562
-279.889
-289.638
-297.891
-304.724
-310.196
-314.366
-317.297
-319
-319.483
-318.792
-316.925
-313.863
-309.586
-304.065
-297.271
-289.17
-279.718
-268.877
-256.601
-242.841
-227.558
-210.713
-192.267
-172.203
-150.529
-127.266
-102.461
-76.1875
-48.5455
-19.668
10.2772
41.1086
72.5507
104.336
136.159
167.685
198.55
228.37
256.74
283.25
307.484
329.045
347.558
362.687
374.146
381.706
385.189
384.501
379.668
370.76
357.847
341.162
320.966
297.58
271.38
242.782
212.228
180.18
147.099
113.44
79.634
46.0783
13.1281
-18.9066
-49.7636
-79.2295
-107.138
-133.367
-157.839
-180.505
-201.349
-220.378
-237.621
-253.111
-266.899
-279.039
-289.582
-298.588
-306.118
-312.223
-316.964
-320.415
-322.603
-323.56
-323.383
-322.069
-319.64
-316.098
-311.44
-305.645
-298.689
-290.538
-281.15
-270.484
-258.495
-245.137
-230.369
-214.151
-196.455
-177.262
-156.566
-134.38
-110.733
-85.6808
-59.31
-31.7354
-3.10075
26.4787
56.8666
87.4749
118.128
148.508
178.297
207.108
234.559
260.258
283.793
304.768
322.794
337.52
348.64
355.891
359.074
358.077
352.805
343.495
330.147
312.942
292.232
268.391
241.824
213.009
182.435
150.585
117.953
84.9898
52.1237
19.7542
-11.794
-41.8797
-70.5033
-97.9269
-123.882
-148.223
-170.871
-191.802
-211.037
-228.616
-244.607
-259.08
-272.118
-283.802
-294.205
-303.392
-311.416
-318.312
-324.101
-328.787
-332.357
-334.786
-336.009
-335.979
-334.651
-331.944
-327.783
-322.107
-314.876
-306.029
-295.52
-283.323
-269.413
-253.782
-236.448
-217.45
-196.844
-174.714
-151.157
-126.297
-100.29
-73.2669
-45.3701
-17.0129
11.6692
40.399
68.9279
97.0102
124.348
150.644
175.629
198.992
220.455
239.726
256.546
270.698
281.956
290.105
-33.8771
-62.775
-91.4084
-119.026
-145.239
-169.879
-192.809
-213.982
-233.359
-250.94
-266.756
-280.836
-293.223
-303.969
-313.119
-320.721
-326.813
-331.432
-334.61
-336.324
-336.591
-335.465
-332.907
-328.893
-323.392
-316.374
-307.791
-297.598
-285.741
-272.165
-256.817
-239.655
-220.646
-199.774
-177.042
-152.456
-126.075
-97.9887
-68.2982
-37.1705
-4.82305
28.443
62.4168
96.7526
131.143
165.183
198.459
230.594
261.167
289.76
316.016
339.575
360.115
377.354
391.046
401.01
407.116
409.237
407.295
401.351
391.504
377.868
360.642
340.078
316.454
290.087
261.338
230.593
198.268
164.77
130.499
95.8764
61.2826
27.1094
-6.26189
-38.7905
-70.1913
-100.239
-128.749
-155.581
-180.619
-203.795
-225.065
-244.39
-261.765
-277.197
-290.706
-302.315
-312.054
-319.971
-326.119
-330.56
-333.342
-334.512
-334.163
-332.358
-329.132
-324.519
-318.546
-311.22
-302.54
-292.478
-281.011
-268.113
-253.746
-237.882
-220.495
-201.57
-181.105
-159.103
-135.585
-110.595
-84.1983
-56.4805
-27.5566
2.42842
33.3518
64.9062
96.8966
129.049
161.055
192.579
223.257
252.706
280.531
306.329
329.709
350.293
367.729
381.707
391.961
398.286
400.475
398.555
392.468
382.279
368.108
350.173
328.736
304.121
276.698
246.881
215.112
181.855
147.579
112.756
77.8371
43.2518
9.38921
-23.4103
-54.8581
-84.7235
-112.832
-139.064
-163.35
-185.663
-206.007
-224.419
-240.95
-255.665
-268.643
-279.965
-289.71
-297.961
-304.79
-310.26
-314.429
-317.358
-319.059
-319.54
-318.851
-316.984
-313.923
-309.647
-304.128
-297.335
-289.236
-279.786
-268.947
-256.673
-242.916
-227.635
-210.793
-192.348
-172.286
-150.612
-127.348
-102.543
-76.2662
-48.6206
-19.7379
10.2145
41.0541
72.5063
104.303
136.14
167.68
198.562
228.399
256.787
283.315
307.568
329.147
347.676
362.819
374.289
381.857
385.35
384.655
379.818
370.904
357.981
341.283
321.071
297.667
271.448
242.829
212.255
180.187
147.088
113.412
79.5905
46.0219
13.0609
-18.9825
-49.846
-79.3166
-107.227
-133.459
-157.93
-180.596
-201.437
-220.465
-237.705
-253.192
-266.978
-279.114
-289.654
-298.658
-306.185
-312.288
-317.026
-320.476
-322.659
-323.616
-323.438
-322.123
-319.694
-316.153
-311.495
-305.702
-298.747
-290.598
-281.212
-270.549
-258.561
-245.205
-230.439
-214.224
-196.529
-177.337
-156.642
-134.455
-110.807
-85.7527
-59.3784
-31.7987
-3.1583
26.4288
56.8284
87.4473
118.113
148.507
178.311
207.139
234.607
260.324
283.877
304.869
322.911
337.653
348.786
356.046
359.236
358.242
352.977
343.647
330.291
313.073
292.346
268.485
241.896
213.059
182.464
150.594
117.943
84.9624
52.0818
19.6997
-11.8579
-41.9455
-70.576
-98.0033
-123.96
-148.302
-170.948
-191.877
-211.109
-228.685
-244.671
-259.14
-272.174
-283.855
-294.255
-303.439
-311.461
-318.356
-324.145
-328.831
-332.403
-334.833
-336.057
-336.031
-334.706
-332
-327.842
-322.169
-314.941
-306.096
-295.589
-283.394
-269.486
-253.855
-236.521
-217.523
-196.914
-174.782
-151.222
-126.357
-100.345
-73.3149
-45.4116
-17.0457
11.6459
40.3859
68.9256
97.0195
124.37
150.679
175.678
199.054
220.53
239.813
256.645
270.807
282.072
290.228
-34.0048
-62.9176
-91.5612
-119.186
-145.402
-170.043
-192.972
-214.143
-233.515
-251.092
-266.902
-280.976
-293.358
-304.099
-313.244
-320.841
-326.93
-331.547
-334.721
-336.433
-336.707
-335.581
-333.022
-329.01
-323.513
-316.499
-307.922
-297.734
-285.882
-272.313
-256.97
-239.813
-220.809
-199.94
-177.21
-152.624
-126.241
-98.1494
-68.4508
-37.3116
-4.94956
28.338
62.3336
96.6949
131.115
165.187
198.497
230.668
261.277
289.906
316.196
339.787
360.355
377.619
391.331
401.31
407.426
409.563
407.596
401.648
391.789
378.135
360.885
340.292
316.636
290.234
261.448
230.668
198.306
164.774
130.47
95.8177
61.1982
27.0048
-6.38411
-38.9283
-70.3416
-100.399
-128.916
-155.751
-180.791
-203.967
-225.235
-244.558
-261.928
-277.357
-290.862
-302.466
-312.2
-320.113
-326.256
-330.693
-333.468
-334.631
-334.281
-332.472
-329.243
-324.629
-318.656
-311.332
-302.653
-292.595
-281.132
-268.238
-253.875
-238.014
-220.631
-201.709
-181.245
-159.244
-135.726
-110.735
-84.334
-56.6103
-27.6782
2.31938
33.2523
64.8251
96.8361
129.012
161.044
192.598
223.308
252.792
280.652
306.487
329.902
350.519
367.986
381.989
392.264
398.602
400.811
398.871
392.781
382.578
368.386
350.423
328.954
304.302
276.841
246.984
215.174
181.877
147.563
112.704
77.7536
43.1405
9.25465
-23.5633
-55.0246
-84.899
-113.012
-139.245
-163.53
-185.838
-206.177
-224.581
-241.104
-255.811
-268.781
-280.095
-289.833
-298.077
-304.9
-310.365
-314.53
-317.456
-319.154
-319.634
-318.947
-317.081
-314.021
-309.747
-304.231
-297.442
-289.347
-279.902
-269.067
-256.797
-243.046
-227.77
-210.932
-192.492
-172.432
-150.759
-127.496
-102.688
-76.4066
-48.7539
-19.8612
10.1055
40.961
72.4333
104.254
136.117
167.687
198.601
228.471
256.896
283.461
307.75
329.364
347.925
363.096
374.588
382.172
385.683
384.976
380.133
371.206
358.264
341.539
321.295
297.854
271.596
242.937
212.323
180.216
147.08
113.37
79.5189
45.925
12.9426
-19.1178
-49.9942
-79.4737
-107.39
-133.624
-158.095
-180.758
-201.597
-220.619
-237.853
-253.335
-267.115
-279.245
-289.78
-298.779
-306.299
-312.397
-317.132
-320.576
-322.752
-323.71
-323.529
-322.213
-319.783
-316.243
-311.587
-305.796
-298.846
-290.701
-281.318
-270.66
-258.677
-245.326
-230.564
-214.353
-196.662
-177.473
-156.778
-134.59
-110.94
-85.8829
-59.5023
-31.9134
-3.26195
26.3395
56.7615
87.4011
118.091
148.512
178.346
207.206
234.707
260.46
284.048
305.075
323.15
337.922
349.08
356.359
359.562
358.573
353.317
343.954
330.581
313.337
292.575
268.674
242.042
213.16
182.521
150.61
117.922
84.9076
51.9985
19.5906
-11.9856
-42.077
-70.7215
-98.1563
-124.117
-148.46
-171.103
-192.028
-211.253
-228.821
-244.799
-259.26
-272.287
-283.96
-294.354
-303.534
-311.552
-318.445
-324.233
-328.92
-332.493
-334.927
-336.153
-336.136
-334.814
-332.113
-327.96
-322.293
-315.07
-306.23
-295.728
-283.536
-269.63
-254.001
-236.668
-217.667
-197.056
-174.919
-151.352
-126.477
-100.454
-73.4107
-45.4947
-17.1114
11.5993
40.3596
68.9209
97.0381
124.414
150.749
175.775
199.178
220.681
239.989
256.843
271.024
282.306
290.472
-34.1966
-63.1316
-91.7907
-119.426
-145.648
-170.29
-193.217
-214.383
-233.75
-251.319
-267.121
-281.187
-293.561
-304.293
-313.431
-321.022
-327.106
-331.718
-334.888
-336.598
-336.881
-335.753
-333.195
-329.186
-323.694
-316.687
-308.117
-297.937
-286.095
-272.534
-257.2
-240.051
-221.054
-200.19
-177.462
-152.877
-126.49
-98.3907
-68.6799
-37.5235
-5.13961
28.1803
62.2083
96.6081
131.072
165.192
198.554
230.779
261.442
290.124
316.466
340.105
360.716
378.017
391.759
401.76
407.889
410.046
408.052
402.097
392.217
378.536
361.248
340.612
316.909
290.455
261.614
230.779
198.364
164.779
130.427
95.7295
61.0714
26.8482
-6.56749
-39.1351
-70.5669
-100.638
-129.165
-156.005
-181.048
-204.223
-225.489
-244.807
-262.173
-277.596
-291.094
-302.691
-312.418
-320.325
-326.46
-330.889
-333.653
-334.81
-334.455
-332.639
-329.406
-324.791
-318.818
-311.496
-302.821
-292.767
-281.31
-268.421
-254.065
-238.209
-220.832
-201.914
-181.453
-159.453
-135.935
-110.941
-84.5346
-56.802
-27.8576
2.15799
33.1067
64.7067
96.7483
128.959
161.032
192.63
223.389
252.924
280.838
306.727
330.195
350.863
368.375
382.417
392.721
399.079
401.314
399.352
393.257
383.03
368.807
350.802
329.284
304.579
277.059
247.141
215.271
181.914
147.543
112.63
77.6316
42.977
9.05612
-23.7896
-55.2712
-85.159
-113.279
-139.514
-163.796
-186.097
-206.427
-224.821
-241.332
-256.027
-268.986
-280.287
-290.014
-298.248
-305.061
-310.52
-314.68
-317.6
-319.291
-319.774
-319.087
-317.222
-314.165
-309.895
-304.383
-297.6
-289.51
-280.072
-269.244
-256.981
-243.238
-227.97
-211.139
-192.705
-172.649
-150.978
-127.714
-102.902
-76.6146
-48.9511
-20.0434
9.94444
40.824
72.3266
104.182
136.086
167.7
198.662
228.584
257.062
283.682
308.026
329.692
348.302
363.515
375.04
382.647
386.174
385.47
380.613
371.663
358.691
341.926
321.633
298.139
271.823
243.103
212.429
180.263
147.071
113.31
79.4142
45.7822
12.7678
-19.318
-50.2138
-79.7068
-107.631
-133.869
-158.34
-181
-201.833
-220.849
-238.074
-253.548
-267.319
-279.439
-289.966
-298.956
-306.468
-312.559
-317.287
-320.724
-322.89
-323.848
-323.663
-322.345
-319.914
-316.376
-311.723
-305.936
-298.99
-290.851
-281.475
-270.824
-258.848
-245.504
-230.749
-214.544
-196.858
-177.673
-156.98
-134.792
-111.139
-86.0763
-59.6866
-32.0842
-3.41585
26.2066
56.6616
87.333
118.058
148.521
178.399
207.308
234.859
260.664
284.305
305.384
323.509
338.326
349.521
356.829
360.052
359.069
353.822
344.421
331.018
313.734
292.919
268.957
242.259
213.311
182.607
150.635
117.89
84.8252
51.8719
19.4264
-12.177
-42.275
-70.9398
-98.3858
-124.353
-148.696
-171.336
-192.254
-211.469
-229.026
-244.992
-259.441
-272.455
-284.118
-294.503
-303.675
-311.688
-318.578
-324.365
-329.052
-332.628
-335.066
-336.298
-336.293
-334.976
-332.283
-328.137
-322.478
-315.264
-306.431
-295.936
-283.749
-269.848
-254.221
-236.887
-217.884
-197.268
-175.123
-151.546
-126.658
-100.618
-73.5548
-45.6194
-17.21
11.5293
40.3201
68.9138
97.066
124.479
150.853
175.92
199.365
220.907
240.252
257.14
271.351
282.656
290.839
-34.4526
-63.4174
-92.0969
-119.747
-145.976
-170.62
-193.544
-214.705
-234.063
-251.622
-267.414
-281.468
-293.83
-304.553
-313.681
-321.264
-327.34
-331.946
-335.11
-336.819
-337.11
-335.981
-333.425
-329.421
-323.935
-316.937
-308.377
-298.208
-286.378
-272.829
-257.506
-240.367
-221.38
-200.522
-177.799
-153.213
-126.822
-98.7126
-68.9858
-37.8063
-5.39349
27.9696
62.0408
96.492
131.015
165.199
198.63
230.926
261.662
290.415
316.826
340.528
361.197
378.548
392.331
402.36
408.507
410.677
408.672
402.698
392.789
379.07
361.733
341.04
317.272
290.749
261.836
230.927
198.441
164.787
130.368
95.6115
60.9018
26.6393
-6.81241
-39.4112
-70.8679
-100.958
-129.497
-156.345
-181.39
-204.565
-225.828
-245.14
-262.498
-277.915
-291.404
-302.991
-312.709
-320.606
-326.732
-331.148
-333.9
-335.051
-334.687
-332.863
-329.624
-325.006
-319.033
-311.714
-303.043
-292.995
-281.546
-268.666
-254.317
-238.469
-221.098
-202.186
-181.729
-159.731
-136.212
-111.215
-84.8014
-57.0571
-28.0964
1.94234
32.914
64.5495
96.6317
128.889
161.015
192.673
223.496
253.101
281.086
307.047
330.587
351.321
368.894
382.988
393.333
399.717
401.975
400.005
393.895
383.636
369.37
351.31
329.726
304.948
277.35
247.352
215.401
181.964
147.516
112.532
77.4694
42.7595
8.79175
-24.091
-55.5997
-85.5053
-113.635
-139.871
-164.15
-186.443
-206.761
-225.141
-241.635
-256.315
-269.257
-280.542
-290.255
-298.476
-305.276
-310.725
-314.878
-317.79
-319.475
-319.96
-319.274
-317.41
-314.356
-310.091
-304.586
-297.81
-289.728
-280.298
-269.479
-257.226
-243.493
-228.236
-211.414
-192.987
-172.938
-151.269
-128.004
-103.187
-76.8915
-49.2138
-20.286
9.72972
40.6418
72.1849
104.088
136.044
167.717
198.743
228.734
257.284
283.977
308.395
330.131
348.806
364.075
375.645
383.283
386.822
386.132
381.257
372.275
359.263
342.443
322.086
298.519
272.125
243.325
212.57
180.325
147.059
113.231
79.2748
45.5919
12.5351
-19.5849
-50.5064
-80.0172
-107.953
-134.195
-158.666
-181.321
-202.147
-221.154
-238.368
-253.83
-267.59
-279.698
-290.213
-299.193
-306.694
-312.774
-317.494
-320.92
-323.076
-324.031
-323.84
-322.52
-320.089
-316.552
-311.903
-306.121
-299.182
-291.051
-281.684
-271.042
-259.076
-245.741
-230.995
-214.798
-197.12
-177.939
-157.249
-135.061
-111.404
-86.3338
-59.9323
-32.3123
-3.62071
26.0291
56.5276
87.2427
118.015
148.533
178.468
207.442
235.061
260.936
284.648
305.796
323.987
338.864
350.11
357.457
360.705
359.732
354.488
345.05
331.602
314.263
293.377
269.334
242.549
213.512
182.722
150.667
117.847
84.7148
51.703
19.2068
-12.4321
-42.5399
-71.2312
-98.6921
-124.668
-149.012
-171.647
-192.555
-211.757
-229.299
-245.248
-259.681
-272.68
-284.328
-294.701
-303.864
-311.869
-318.755
-324.54
-329.229
-332.808
-335.251
-336.492
-336.501
-335.192
-332.509
-328.374
-322.726
-315.522
-306.7
-296.213
-284.034
-270.138
-254.514
-237.18
-218.173
-197.551
-175.397
-151.806
-126.9
-100.837
-73.7479
-45.7854
-17.3415
11.4358
40.2674
68.9042
97.1029
124.566
150.992
176.113
199.613
221.208
240.604
257.537
271.786
283.123
291.328
-34.7732
-63.775
-92.4802
-120.147
-146.386
-171.032
-193.953
-215.106
-234.455
-252.001
-267.779
-281.819
-294.168
-304.877
-313.993
-321.565
-327.633
-332.231
-335.388
-337.098
-337.394
-336.265
-333.712
-329.714
-324.237
-317.249
-308.702
-298.547
-286.732
-273.198
-257.89
-240.764
-221.788
-200.939
-178.22
-153.635
-127.238
-99.1156
-69.3687
-38.1604
-5.71135
27.7053
61.8305
96.3462
130.942
165.208
198.725
231.11
261.937
290.78
317.276
341.058
361.799
379.212
393.045
403.112
409.279
411.455
409.454
403.453
393.506
379.739
362.34
341.574
317.727
291.117
262.112
231.113
198.536
164.795
130.295
95.4631
60.6886
26.378
-7.11916
-39.7572
-71.2448
-101.358
-129.913
-156.77
-181.819
-204.993
-226.252
-245.557
-262.906
-278.313
-291.791
-303.366
-313.072
-320.958
-327.071
-331.471
-334.21
-335.351
-334.975
-333.142
-329.896
-325.275
-319.302
-311.986
-303.32
-293.281
-281.842
-268.971
-254.632
-238.794
-221.432
-202.527
-182.074
-160.078
-136.56
-111.558
-85.1352
-57.3765
-28.3953
1.67168
32.6734
64.3527
96.4857
128.802
160.994
192.726
223.631
253.321
281.396
307.448
331.077
351.895
369.544
383.703
394.099
400.517
402.793
400.828
394.693
384.395
370.075
351.945
330.28
305.41
277.715
247.616
215.563
182.025
147.482
112.409
77.2659
42.4868
8.46055
-24.4685
-56.011
-85.9389
-114.08
-140.319
-164.592
-186.874
-207.178
-225.54
-242.015
-256.675
-269.597
-280.862
-290.556
-298.76
-305.545
-310.982
-315.125
-318.026
-319.708
-320.193
-319.506
-317.644
-314.595
-310.337
-304.839
-298.072
-290
-280.581
-269.773
-257.532
-243.813
-228.568
-211.758
-193.341
-173.299
-151.633
-128.367
-103.545
-77.238
-49.5427
-20.5896
9.46042
40.4134
72.0074
103.969
135.992
167.738
198.845
228.921
257.561
284.347
308.856
330.681
349.436
364.776
376.402
384.079
387.636
386.956
382.065
373.042
359.978
343.09
322.652
298.995
272.503
243.602
212.746
180.403
147.044
113.131
79.0998
45.3535
12.2434
-19.9192
-50.8727
-80.4058
-108.355
-134.603
-159.074
-181.724
-202.541
-221.535
-238.735
-254.183
-267.928
-280.021
-290.522
-299.488
-306.975
-313.044
-317.751
-321.163
-323.31
-324.26
-324.062
-322.739
-320.307
-316.773
-312.128
-306.353
-299.423
-291.301
-281.945
-271.314
-259.36
-246.037
-231.303
-215.116
-197.447
-178.273
-157.586
-135.397
-111.735
-86.656
-60.2399
-32.5985
-3.877
25.8063
56.3592
87.1297
117.96
148.547
178.555
207.61
235.313
261.276
285.077
306.311
324.585
339.537
350.846
358.241
361.523
360.562
355.313
345.843
332.335
314.925
293.951
269.805
242.912
213.764
182.864
150.707
117.793
84.5762
51.4906
18.931
-12.7507
-42.8728
-71.5959
-99.0756
-125.062
-149.407
-172.036
-192.932
-212.118
-229.64
-245.569
-259.981
-272.961
-284.591
-294.949
-304.099
-312.096
-318.976
-324.76
-329.45
-333.034
-335.482
-336.736
-336.76
-335.462
-332.791
-328.669
-323.036
-315.846
-307.036
-296.56
-284.39
-270.5
-254.88
-237.546
-218.536
-197.905
-175.738
-152.131
-127.203
-101.111
-73.9903
-45.9929
-17.5061
11.3189
40.2012
68.892
97.1487
124.674
151.166
176.355
199.923
221.585
241.043
258.033
272.331
283.708
291.941
-35.1586
-64.205
-92.9409
-120.629
-146.878
-171.528
-194.445
-215.589
-234.925
-252.456
-268.217
-282.24
-294.572
-305.265
-314.368
-321.927
-327.984
-332.574
-335.723
-337.433
-337.732
-336.605
-334.056
-330.066
-324.599
-317.624
-309.092
-298.954
-287.157
-273.641
-258.35
-241.239
-222.277
-201.439
-178.725
-154.141
-127.738
-99.6001
-69.8291
-38.586
-6.09299
27.3863
61.5769
96.1702
130.855
165.217
198.837
231.33
262.267
291.216
317.816
341.694
362.522
380.01
393.903
404.014
410.208
412.389
410.391
404.359
394.368
380.542
363.069
342.216
318.273
291.558
262.443
231.335
198.651
164.804
130.206
95.284
60.4311
26.0643
-7.488
-40.1733
-71.698
-101.839
-130.413
-157.28
-182.334
-205.507
-226.761
-246.057
-263.396
-278.791
-292.256
-303.817
-313.509
-321.38
-327.478
-331.86
-334.583
-335.71
-335.322
-333.476
-330.222
-325.597
-319.624
-312.312
-303.654
-293.624
-282.196
-269.338
-255.011
-239.184
-221.832
-202.936
-182.489
-160.496
-136.977
-111.97
-85.5365
-57.7605
-28.7547
1.3452
32.3846
64.1158
96.3096
128.696
160.969
192.789
223.791
253.586
281.768
307.929
331.665
352.585
370.325
384.563
395.02
401.479
403.775
401.817
395.653
385.307
370.921
352.707
330.945
305.965
278.153
247.932
215.756
182.099
147.441
112.261
77.0205
42.1582
8.06176
-24.9229
-56.506
-86.4602
-114.615
-140.857
-165.125
-187.393
-207.679
-226.02
-242.471
-257.106
-270.004
-281.245
-290.917
-299.101
-305.868
-311.29
-315.421
-318.311
-319.987
-320.471
-319.784
-317.925
-314.881
-310.631
-305.143
-298.386
-290.326
-280.92
-270.126
-257.9
-244.197
-228.968
-212.172
-193.766
-173.733
-152.071
-128.803
-103.975
-77.6547
-49.9382
-20.9549
9.13598
40.1383
71.7936
103.826
135.928
167.763
198.966
229.145
257.894
284.79
309.409
331.34
350.193
365.618
377.311
385.035
388.616
387.944
383.035
373.965
360.837
343.868
323.332
299.566
272.957
243.934
212.957
180.496
147.026
113.01
78.8885
45.0661
11.8921
-20.3217
-51.3134
-80.8732
-108.838
-135.094
-159.564
-182.207
-203.014
-221.994
-239.177
-254.608
-268.334
-280.41
-290.894
-299.843
-307.314
-313.367
-318.06
-321.455
-323.591
-324.533
-324.328
-323.001
-320.569
-317.038
-312.399
-306.631
-299.711
-291.602
-282.258
-271.642
-259.702
-246.393
-231.672
-215.498
-197.839
-178.673
-157.991
-135.802
-112.134
-87.0434
-60.6097
-32.9431
-4.18532
25.5374
56.1559
86.9938
117.894
148.563
178.658
207.81
235.615
261.683
285.591
306.928
325.303
340.345
351.73
359.184
362.505
361.559
356.3
346.796
333.218
315.722
294.64
270.371
243.346
214.064
183.034
150.753
117.726
84.4089
51.2334
18.5982
-13.133
-43.2746
-72.0337
-99.5364
-125.535
-149.882
-172.503
-193.384
-212.55
-230.05
-245.954
-260.342
-273.298
-284.907
-295.246
-304.381
-312.368
-319.241
-325.023
-329.715
-333.304
-335.76
-337.029
-337.07
-335.785
-333.13
-329.024
-323.407
-316.233
-307.439
-296.977
-284.818
-270.936
-255.319
-237.986
-218.971
-198.331
-176.149
-152.521
-127.566
-101.441
-74.2824
-46.2422
-17.704
11.1782
40.1214
68.8768
97.2032
124.803
151.374
176.644
200.295
222.037
241.571
258.629
272.986
284.41
292.678
-35.6095
-64.7076
-93.4794
-121.192
-147.454
-172.106
-195.019
-216.152
-235.473
-252.987
-268.729
-282.732
-295.044
-305.719
-314.804
-322.349
-328.394
-332.973
-336.114
-337.824
-338.126
-337.001
-334.457
-330.476
-325.021
-318.061
-309.547
-299.429
-287.652
-274.158
-258.887
-241.795
-222.849
-202.022
-179.316
-154.733
-128.322
-100.166
-70.3674
-39.0836
-6.53779
27.0109
61.2793
95.9635
130.751
165.227
198.968
231.587
262.651
291.726
318.446
342.437
363.366
380.941
394.906
405.069
411.293
413.482
411.484
405.418
395.376
381.481
363.92
342.966
318.909
292.072
262.83
231.593
198.783
164.813
130.101
95.0735
60.1282
25.698
-7.9194
-40.6602
-72.228
-102.401
-130.997
-157.877
-182.935
-206.108
-227.355
-246.642
-263.967
-279.349
-292.799
-304.343
-314.019
-321.873
-327.953
-332.315
-335.019
-336.13
-335.725
-333.866
-330.603
-325.973
-320
-312.693
-304.042
-294.024
-282.61
-269.766
-255.453
-239.64
-222.3
-203.413
-182.974
-160.985
-137.464
-112.452
-86.0055
-58.2097
-29.1751
0.961657
32.0476
63.8383
96.1028
128.571
160.937
192.862
223.977
253.893
282.201
308.49
332.351
353.39
371.237
385.566
396.096
402.603
404.924
402.97
396.774
386.374
371.91
353.598
331.721
306.612
278.663
248.3
215.982
182.184
147.391
112.086
76.7324
41.773
7.59446
-25.4548
-57.0854
-87.0703
-115.241
-141.486
-165.746
-188
-208.265
-226.58
-243.003
-257.611
-270.48
-281.693
-291.339
-299.498
-306.245
-311.649
-315.766
-318.644
-320.313
-320.795
-320.109
-318.253
-315.216
-310.975
-305.498
-298.753
-290.707
-281.317
-270.538
-258.33
-244.645
-229.434
-212.654
-194.263
-174.24
-152.582
-129.313
-104.477
-78.1419
-50.4011
-21.3823
8.75579
39.8158
71.543
103.657
135.853
167.791
199.106
229.406
258.281
285.306
310.055
332.11
351.077
366.601
378.374
386.153
389.763
389.098
384.167
375.043
361.841
344.776
324.127
300.233
273.486
244.321
213.201
180.602
147.002
112.867
78.64
44.7291
11.4804
-20.7929
-51.8292
-81.4199
-109.404
-135.668
-160.137
-182.772
-203.566
-222.529
-239.693
-255.103
-268.809
-280.863
-291.328
-300.257
-307.709
-313.745
-318.42
-321.797
-323.92
-324.852
-324.639
-323.307
-320.875
-317.347
-312.714
-306.956
-300.048
-291.952
-282.624
-272.024
-260.101
-246.809
-232.104
-215.944
-198.298
-179.141
-158.464
-136.275
-112.601
-87.4965
-61.0417
-33.3464
-4.54665
25.2218
55.9176
86.8347
117.816
148.58
178.777
208.042
235.967
262.157
286.191
307.649
326.141
341.289
352.763
360.286
363.653
362.726
357.453
347.908
334.251
316.652
295.445
271.032
243.853
214.414
183.231
150.806
117.647
84.2121
50.9332
18.2077
-13.5796
-43.7459
-72.5448
-100.075
-126.088
-150.437
-173.049
-193.913
-213.055
-230.528
-246.403
-260.762
-273.69
-285.275
-295.592
-304.71
-312.684
-319.55
-325.329
-330.023
-333.619
-336.085
-337.37
-337.43
-336.162
-333.525
-329.438
-323.841
-316.686
-307.909
-297.463
-285.317
-271.444
-255.833
-238.499
-219.479
-198.827
-176.629
-152.977
-127.991
-101.827
-74.6244
-46.5337
-17.9354
11.0135
40.0278
68.8585
97.266
124.953
151.616
176.982
200.728
222.564
242.187
259.325
273.751
285.231
293.539
-36.1262
-65.2835
-94.0961
-121.837
-148.113
-172.768
-195.675
-216.796
-236.101
-253.595
-269.314
-283.294
-295.584
-306.237
-315.303
-322.831
-328.862
-333.43
-336.562
-338.27
-338.575
-337.452
-334.914
-330.944
-325.503
-318.561
-310.067
-299.971
-288.219
-274.749
-259.501
-242.431
-223.503
-202.69
-179.992
-155.41
-128.991
-100.816
-70.984
-39.6537
-7.04637
26.5788
60.9369
95.7254
130.631
165.236
199.116
231.879
263.09
292.309
319.166
343.286
364.331
382.007
396.052
406.275
412.535
414.735
412.732
406.629
396.529
382.554
364.894
343.824
319.637
292.659
263.271
231.888
198.933
164.822
129.979
94.8308
59.7784
25.2796
-8.41394
-41.2184
-72.8353
-103.045
-131.667
-158.56
-183.624
-206.796
-228.035
-247.31
-264.622
-279.988
-293.419
-304.945
-314.603
-322.437
-328.496
-332.835
-335.518
-336.609
-336.186
-334.312
-331.038
-326.402
-320.429
-313.128
-304.487
-294.481
-283.083
-270.255
-255.958
-240.161
-222.835
-203.96
-183.529
-161.544
-138.023
-113.003
-86.5426
-58.7244
-29.6573
0.52175
31.6609
63.5196
95.8647
128.426
160.899
192.943
224.188
254.243
282.696
309.131
333.135
354.31
372.28
386.715
397.327
403.891
406.241
404.289
398.058
387.595
373.042
354.618
332.608
307.353
279.247
248.72
216.238
182.279
147.333
111.884
76.4007
41.3301
7.05789
-26.0653
-57.7499
-87.7697
-115.958
-142.207
-166.458
-188.694
-208.935
-227.221
-243.612
-258.187
-271.023
-282.204
-291.821
-299.952
-306.675
-312.06
-316.16
-319.025
-320.686
-321.165
-320.479
-318.628
-315.598
-311.368
-305.903
-299.173
-291.143
-281.769
-271.009
-258.821
-245.157
-229.967
-213.207
-194.832
-174.82
-153.168
-129.898
-105.053
-78.7001
-50.9318
-21.8724
8.31906
39.4457
71.2549
103.463
135.765
167.821
199.264
229.702
258.722
285.896
310.793
332.99
352.088
367.726
379.59
387.434
391.077
390.419
385.461
376.277
362.99
345.816
325.035
300.995
274.091
244.763
213.48
180.723
146.973
112.702
78.3537
44.3419
11.0076
-21.3337
-52.4206
-82.0467
-110.051
-136.325
-160.793
-183.419
-204.198
-223.141
-240.282
-255.67
-269.351
-281.382
-291.824
-300.73
-308.161
-314.176
-318.831
-322.188
-324.297
-325.216
-324.993
-323.657
-321.224
-317.7
-313.074
-307.327
-300.433
-292.353
-283.042
-272.462
-260.557
-247.284
-232.598
-216.455
-198.823
-179.676
-159.005
-136.816
-113.136
-88.0157
-61.5366
-33.8087
-4.96238
24.859
55.645
86.6514
117.724
148.597
178.912
208.305
236.369
262.698
286.876
308.473
327.099
342.369
353.944
361.547
364.968
364.061
358.774
349.18
335.434
317.718
296.366
271.788
244.432
214.813
183.454
150.864
117.554
83.9852
50.5899
17.7581
-14.0929
-44.2863
-73.1288
-100.692
-126.722
-151.072
-173.674
-194.518
-213.633
-231.075
-246.917
-261.243
-274.139
-285.695
-295.987
-305.086
-313.045
-319.903
-325.679
-330.376
-333.978
-336.456
-337.759
-337.841
-336.592
-333.977
-329.912
-324.337
-317.204
-308.448
-298.019
-285.888
-272.026
-256.42
-239.087
-220.06
-199.396
-177.178
-153.499
-128.478
-102.269
-75.0167
-46.8679
-18.2008
10.8246
39.9201
68.8367
97.3368
125.124
151.892
177.367
201.223
223.167
242.892
260.121
274.626
286.17
294.525
-36.7093
-65.9331
-94.7917
-122.563
-148.856
-173.514
-196.415
-217.522
-236.808
-254.278
-269.972
-283.926
-296.191
-306.82
-315.864
-323.373
-329.388
-333.943
-337.066
-338.771
-339.078
-337.959
-335.429
-331.471
-326.046
-319.123
-310.652
-300.581
-288.856
-275.413
-260.192
-243.146
-224.238
-203.443
-180.754
-156.173
-129.745
-101.548
-71.6796
-40.297
-7.61965
26.0892
60.5491
95.4552
130.494
165.246
199.281
232.207
263.583
292.964
319.977
344.242
365.418
383.207
397.344
407.634
413.935
416.148
414.138
407.994
397.829
383.764
365.991
344.789
320.457
293.319
263.766
232.219
199.101
164.831
129.84
94.5555
59.3821
24.8072
-8.97243
-41.8486
-73.5205
-103.772
-132.421
-159.33
-184.399
-207.57
-228.8
-248.063
-265.359
-280.706
-294.117
-305.623
-315.26
-323.072
-329.107
-333.421
-336.079
-337.148
-336.704
-334.813
-331.527
-326.885
-320.912
-313.617
-304.987
-294.996
-283.615
-270.806
-256.527
-240.748
-223.437
-204.575
-184.154
-162.173
-138.652
-113.625
-87.1484
-59.3049
-30.2019
0.0251124
31.2235
63.159
95.5946
128.261
160.854
193.032
224.424
254.635
283.251
309.852
334.018
355.346
373.456
388.009
398.715
405.343
407.725
405.775
399.505
388.971
374.317
355.767
333.607
308.186
279.903
249.193
216.525
182.384
147.265
111.653
76.0244
40.8289
6.45111
-26.7554
-58.5004
-88.5594
-116.767
-143.02
-167.261
-189.476
-209.689
-227.942
-244.298
-258.837
-271.635
-282.78
-292.363
-300.463
-307.159
-312.522
-316.603
-319.454
-321.106
-321.581
-320.896
-319.049
-316.028
-311.811
-306.36
-299.645
-291.633
-282.279
-271.54
-259.374
-245.734
-230.567
-213.829
-195.473
-175.473
-153.828
-130.557
-105.702
-79.3302
-51.5308
-22.4263
7.82484
39.0273
70.9289
103.243
135.664
167.853
199.441
230.034
259.217
286.559
311.623
333.981
353.227
368.994
380.962
388.878
392.56
391.908
386.92
377.669
364.286
346.987
326.059
301.853
274.77
245.259
213.792
180.856
146.938
112.512
78.0284
43.9035