/*--------------------------------*- C++ -*----------------------------------*\
| =========                 |                                                 |
| \\      /  F ield         | OpenFOAM: The Open Source CFD Toolbox           |
|  \\    /   O peration     | Version:  3.0.1                                 |
|   \\  /    A nd           | Web:      www.OpenFOAM.org                      |
|    \\/     M anipulation  |                                                 |
\*---------------------------------------------------------------------------*/
FoamFile
{
    version     2.0;
    format      ascii;
    class       volScalarField;
    location    "30.4";
    object      p;
}
// * * * * * * * * * * * * * * * * * * * * * * * * * * * * * * * * * * * * * //

dimensions      [1 -1 -2 0 0 0 0];

internalField   nonuniform List<scalar> 
21420
(
4067.44
4034.58
4000.76
3966.34
3931.69
3897.08
3862.84
3829.2
3797.12
3765.65
3735.62
3707.19
3680.46
3655.51
3632.39
3611.12
3591.72
3574.16
3558.4
3544.41
3532.14
3521.54
3512.57
3505.17
3499.31
3494.93
3492.05
3490.64
3490.64
3492.05
3494.9
3499.21
3504.99
3512.25
3521.05
3531.41
3543.36
3556.96
3572.24
3589.22
3607.94
3628.41
3650.61
3674.56
3700.18
3727.37
3756.04
3785.93
3816.55
3848.24
3880.7
3913.54
3946.42
3978.98
4010.82
4041.59
4070.9
4098.35
4123.6
4146.31
4166.14
4182.83
4196.1
4205.74
4211.62
4213.55
4211.44
4205.43
4195.55
4181.78
4164.32
4143.36
4119.18
4092.1
4062.48
4030.74
3997.31
3962.61
3927.11
3891.25
3855.47
3820.16
3785.7
3751.87
3718.44
3686.98
3657.63
3630.45
3605.44
3582.63
3562.01
3543.54
3527.18
3512.86
3500.5
3490.03
3481.36
3474.4
3469.08
3465.32
3463.04
3462.17
3462.67
3464.49
3467.57
3471.92
3477.52
3484.38
3492.52
3501.96
3512.73
3524.87
3538.4
3553.36
3569.79
3587.72
3607.17
3628.14
3650.64
3674.64
3700.11
3726.96
3755.15
3784.77
3815.17
3846.39
3878.22
3910.4
3942.63
3974.58
4005.87
4036.12
4064.91
4091.83
4116.46
4138.4
4157.26
4172.72
4184.48
4192.31
4196.04
4195.51
4190.83
4182.01
4169.1
4152.35
4132.01
4108.41
4081.93
4052.98
4022.03
3989.54
3956.01
3921.91
3887.7
3853.82
3820.67
3788.59
3757.88
3728.73
3701.34
3675.81
3652.22
3630.61
3610.94
3593.2
3577.33
3563.25
3550.87
3540.13
3530.93
3523.19
3516.83
3511.79
3508.02
3505.47
3504.1
3503.88
3504.81
3506.86
3510
3514.27
3519.66
3526.2
3533.92
3542.87
3553.1
3564.65
3577.61
3592.02
3607.96
3625.47
3644.6
3665.37
3687.79
3711.82
3737.44
3764.54
3793.02
3822.73
3853.45
3884.92
3916.85
3948.95
3980.84
4012.17
4042.52
4071.48
4098.64
4123.6
4145.96
4165.37
4181.5
4194.08
4202.88
4207.76
4208.53
4205.37
4198.21
4187.18
4172.48
4154.36
4133.14
4109.14
4082.75
4054.39
4024.48
3993.44
3961.67
3929.59
3897.56
3865.94
3835.03
3805.1
3776.37
3749.01
3723.18
3698.96
3676.44
3655.66
3636.61
3619.3
3603.68
3589.72
3577.35
3566.53
3557.19
3549.26
3542.7
3537.46
3533.5
3530.78
3529.27
3528.98
3529.88
3531.94
3535.18
3539.62
3545.28
3552.18
3560.37
3569.89
3580.78
3593.07
3606.82
3622.04
3638.79
3657.06
3676.85
3698.13
3720.86
3744.89
3770.07
3796.07
3822.6
3862.7
3894.39
3927.4
3961.06
3995
4028.73
4061.86
4093.91
4124.36
4152.75
4178.58
4201.31
4220.58
4235.88
4246.84
4253.37
4255.62
4254.06
4248.32
4238.63
4225.3
4208.44
4188.4
4165.56
4140.24
4112.94
4084
4053.88
4023.03
3991.78
3960.47
3929.45
3898.88
3869.96
3842.7
3816.02
3790.2
3765.52
3742.15
3720.22
3699.75
3680.78
3663.32
3647.35
3632.87
3619.85
3608.3
3598.21
3589.58
3582.42
3576.72
3572.52
3569.83
3568.69
3569.1
3571.07
3574.66
3579.87
3586.69
3595.13
3605.2
3616.88
3630.18
3645.06
3661.52
3679.52
3699.03
3720
3742.37
3766.06
3790.97
3817
3844.02
3871.9
3900.43
3929.44
3958.76
3988.09
4017.19
4045.8
4073.51
4099.94
3969.38
3936.5
3902.66
3868.23
3833.57
3798.94
3764.69
3731.05
3698.95
3667.47
3637.44
3609.01
3582.28
3557.32
3534.21
3512.94
3493.54
3475.98
3460.23
3446.24
3433.97
3423.38
3414.4
3407.01
3401.15
3396.77
3393.89
3392.48
3392.48
3393.89
3396.74
3401.05
3406.83
3414.09
3422.89
3433.24
3445.2
3458.79
3474.07
3491.05
3509.77
3530.23
3552.44
3576.38
3602
3629.19
3657.87
3687.76
3718.39
3750.09
3782.56
3815.41
3848.31
3880.88
3912.74
3943.52
3972.85
4000.32
4025.59
4048.31
4068.16
4084.86
4098.13
4107.79
4113.68
4115.61
4113.49
4107.49
4097.6
4083.82
4066.35
4045.37
4021.18
3994.08
3964.45
3932.69
3899.24
3864.52
3829
3793.12
3757.32
3722
3687.53
3653.69
3620.26
3588.79
3559.44
3532.26
3507.25
3484.44
3463.82
3445.35
3429
3414.68
3402.33
3391.86
3383.19
3376.24
3370.92
3367.16
3364.88
3364.02
3364.51
3366.33
3369.42
3373.77
3379.36
3386.23
3394.37
3403.81
3414.58
3426.71
3440.24
3455.2
3471.63
3489.55
3509
3529.97
3552.47
3576.47
3601.94
3628.8
3656.98
3686.61
3717.02
3748.24
3780.08
3812.28
3844.52
3876.48
3907.79
3938.05
3966.86
3993.8
4018.45
4040.41
4059.29
4074.76
4086.53
4094.36
4098.11
4097.57
4092.88
4084.06
4071.15
4054.38
4034.02
4010.4
3983.9
3954.94
3923.96
3891.46
3857.9
3823.78
3789.56
3755.67
3722.51
3690.42
3659.69
3630.54
3603.15
3577.62
3554.03
3532.42
3512.76
3495.02
3479.15
3465.07
3452.71
3441.97
3432.77
3425.03
3418.67
3413.64
3409.87
3407.33
3405.95
3405.73
3406.66
3408.71
3411.86
3416.12
3421.51
3428.05
3435.77
3444.72
3454.94
3466.49
3479.45
3493.86
3509.79
3527.3
3546.43
3567.19
3589.61
3613.65
3639.26
3666.37
3694.85
3724.57
3755.3
3786.77
3818.72
3850.83
3882.74
3914.08
3944.45
3973.43
4000.61
4025.58
4047.97
4067.39
4083.54
4096.12
4104.94
4109.82
4110.6
4107.42
4100.26
4089.22
4074.5
4056.37
4035.13
4011.11
3984.71
3956.33
3926.4
3895.34
3863.56
3831.46
3799.42
3767.79
3736.87
3706.93
3678.19
3650.83
3625
3600.78
3578.26
3557.48
3538.43
3521.12
3505.51
3491.55
3479.19
3468.37
3459.03
3451.1
3444.55
3439.31
3435.35
3432.63
3431.12
3430.83
3431.74
3433.79
3437.04
3441.47
3447.13
3454.03
3462.22
3471.73
3482.62
3494.91
3508.66
3523.88
3540.62
3558.89
3578.68
3599.96
3622.69
3646.73
3671.92
3697.93
3724.48
3764.53
3796.22
3829.26
3862.93
3896.89
3930.64
3963.79
3995.86
4026.33
4054.74
4080.59
4103.34
4122.63
4137.94
4148.92
4155.48
4157.7
4156.13
4150.38
4140.69
4127.34
4110.47
4090.41
4067.55
4042.21
4014.88
3985.93
3955.79
3924.93
3893.66
3862.34
3831.3
3800.73
3771.81
3744.54
3717.86
3692.04
3667.35
3643.98
3622.05
3601.58
3582.62
3565.15
3549.18
3534.7
3521.69
3510.14
3500.05
3491.42
3484.26
3478.57
3474.36
3471.67
3470.53
3470.94
3472.91
3476.5
3481.7
3488.52
3496.97
3507.03
3518.72
3532.01
3546.9
3563.35
3581.35
3600.87
3621.84
3644.21
3667.9
3692.81
3718.85
3745.87
3773.75
3802.29
3831.31
3860.64
3889.98
3919.09
3947.71
3975.43
4001.88
3871.36
3838.44
3804.57
3770.1
3735.41
3700.76
3666.49
3632.83
3600.71
3569.22
3539.19
3510.74
3484.01
3459.06
3435.94
3414.68
3395.28
3377.73
3361.98
3348
3335.74
3325.15
3316.18
3308.79
3302.93
3298.56
3295.67
3294.26
3294.26
3295.67
3298.53
3302.83
3308.61
3315.87
3324.66
3335.01
3346.96
3360.55
3375.82
3392.8
3411.51
3431.98
3454.18
3478.13
3503.75
3530.94
3559.62
3589.53
3620.17
3651.89
3684.38
3717.25
3750.18
3782.78
3814.67
3845.48
3874.85
3902.35
3927.65
3950.41
3970.29
3987.01
4000.31
4009.98
4015.88
4017.84
4015.71
4009.69
3999.8
3986.01
3968.51
3947.5
3923.28
3896.15
3866.47
3834.67
3801.18
3766.43
3730.87
3694.96
3659.13
3623.79
3589.3
3555.44
3522
3490.52
3461.16
3433.98
3408.97
3386.16
3365.54
3347.08
3330.73
3316.42
3304.07
3293.61
3284.95
3278
3272.69
3268.94
3266.67
3265.81
3266.31
3268.13
3271.22
3275.57
3281.16
3288.02
3296.16
3305.6
3316.36
3328.49
3342.02
3356.97
3373.4
3391.32
3410.76
3431.73
3454.23
3478.23
3503.7
3530.56
3558.75
3588.4
3618.81
3650.05
3681.91
3714.13
3746.39
3778.38
3809.72
3840.02
3868.87
3895.85
3920.53
3942.52
3961.44
3976.94
3988.73
3996.58
4000.34
3999.81
3995.11
3986.27
3973.34
3956.54
3936.15
3912.5
3885.95
3856.95
3825.93
3793.38
3759.79
3725.63
3691.37
3657.46
3624.27
3592.16
3561.43
3532.27
3504.87
3479.34
3455.75
3434.14
3414.49
3396.76
3380.9
3366.83
3354.47
3343.74
3334.55
3326.82
3320.47
3315.44
3311.67
3309.13
3307.76
3307.54
3308.48
3310.52
3313.67
3317.93
3323.32
3329.86
3337.57
3346.51
3356.73
3368.28
3381.22
3395.63
3411.55
3429.06
3448.18
3468.95
3491.36
3515.4
3541.01
3568.13
3596.62
3626.35
3657.09
3688.59
3720.56
3752.69
3784.63
3816.01
3846.41
3875.43
3902.64
3927.66
3950.07
3969.53
3985.7
3998.31
4007.14
4012.03
4012.83
4009.62
4002.46
3991.39
3976.65
3958.49
3937.22
3913.16
3886.72
3858.31
3828.34
3797.24
3765.43
3733.3
3701.24
3669.58
3638.64
3608.69
3579.94
3552.58
3526.74
3502.52
3480.01
3459.22
3440.18
3422.87
3407.27
3393.31
3380.96
3370.15
3360.81
3352.89
3346.34
3341.11
3337.15
3334.43
3332.93
3332.64
3333.54
3335.6
3338.84
3343.28
3348.93
3355.82
3364.01
3373.52
3384.4
3396.69
3410.43
3425.65
3442.38
3460.65
3480.44
3501.73
3524.46
3548.51
3573.72
3599.75
3626.32
3666.28
3698
3731.07
3764.78
3798.78
3832.57
3865.76
3897.86
3928.38
3956.83
3982.72
4005.51
4024.83
4040.17
4051.2
4057.8
4059.96
4058.35
4052.61
4042.91
4029.53
4012.63
3992.53
3969.62
3944.24
3916.88
3887.89
3857.71
3826.81
3795.51
3764.17
3733.11
3702.52
3673.61
3646.32
3619.63
3593.8
3569.11
3545.74
3523.81
3503.34
3484.38
3466.92
3450.96
3436.48
3423.47
3411.92
3401.83
3393.2
3386.04
3380.35
3376.14
3373.45
3372.31
3372.72
3374.69
3378.27
3383.48
3390.29
3398.74
3408.8
3420.49
3433.78
3448.66
3465.12
3483.12
3502.63
3523.61
3545.98
3569.67
3594.59
3620.64
3647.67
3675.56
3704.11
3733.15
3762.49
3791.85
3820.98
3849.64
3877.38
3903.86
3773.37
3740.4
3706.48
3671.96
3637.23
3602.54
3568.24
3534.57
3502.38
3470.89
3440.85
3412.4
3385.66
3360.71
3337.59
3316.34
3296.95
3279.4
3263.66
3249.68
3237.43
3226.85
3217.89
3210.5
3204.65
3200.29
3197.4
3195.99
3195.99
3197.4
3200.26
3204.56
3210.33
3217.59
3226.37
3236.72
3248.66
3262.24
3277.5
3294.48
3313.18
3333.64
3355.84
3379.79
3405.41
3432.62
3461.31
3491.23
3521.9
3553.64
3586.16
3619.07
3652.03
3684.69
3716.62
3747.48
3776.9
3804.45
3829.8
3852.6
3872.53
3889.29
3902.62
3912.32
3918.23
3920.21
3918.08
3912.06
3902.15
3888.33
3870.8
3849.75
3825.47
3798.29
3768.56
3736.7
3703.15
3668.34
3632.73
3596.77
3560.9
3525.52
3491
3457.11
3423.65
3392.16
3362.8
3335.61
3310.6
3287.79
3267.18
3248.72
3232.38
3218.08
3205.74
3195.29
3186.64
3179.71
3174.41
3170.66
3168.4
3167.55
3168.06
3169.88
3172.97
3177.32
3182.91
3189.77
3197.9
3207.33
3218.1
3230.22
3243.74
3258.69
3275.11
3293.02
3312.46
3333.42
3355.92
3379.92
3405.39
3432.26
3460.46
3490.13
3520.55
3551.81
3583.7
3615.95
3648.26
3680.29
3711.68
3742.03
3770.93
3797.96
3822.71
3844.75
3863.71
3879.26
3891.08
3898.96
3902.73
3902.22
3897.49
3888.63
3875.67
3858.84
3838.4
3814.69
3788.08
3759.01
3727.93
3695.32
3661.67
3627.45
3593.15
3559.19
3525.97
3493.83
3463.08
3433.9
3406.5
3380.97
3357.39
3335.78
3316.14
3298.42
3282.57
3268.51
3256.17
3245.45
3236.27
3228.55
3222.21
3217.18
3213.43
3210.89
3209.52
3209.31
3210.25
3212.29
3215.44
3219.7
3225.08
3231.61
3239.32
3248.26
3258.47
3270
3282.94
3297.33
3313.25
3330.75
3349.86
3370.62
3393.03
3417.07
3442.69
3469.81
3498.32
3528.06
3558.83
3590.36
3622.36
3654.54
3686.52
3717.95
3748.4
3777.47
3804.75
3829.81
3852.28
3871.79
3888
3900.64
3909.5
3914.4
3915.22
3911.98
3904.8
3893.71
3878.93
3860.73
3839.4
3815.29
3788.79
3760.32
3730.3
3699.15
3667.28
3635.11
3603.01
3571.32
3540.36
3510.39
3481.62
3454.24
3428.4
3404.18
3381.67
3360.89
3341.85
3324.55
3308.95
3295.01
3282.67
3271.86
3262.54
3254.63
3248.08
3242.85
3238.9
3236.19
3234.69
3234.41
3235.3
3237.36
3240.6
3245.03
3250.67
3257.57
3265.75
3275.25
3286.12
3298.41
3312.14
3327.35
3344.08
3362.35
3382.13
3403.42
3426.16
3450.23
3475.46
3501.53
3528.14
3567.95
3599.71
3632.85
3666.61
3700.65
3734.5
3767.75
3799.92
3830.5
3859.01
3884.97
3907.81
3927.18
3942.57
3953.66
3960.3
3962.4
3960.76
3955.01
3945.28
3931.87
3914.91
3894.75
3871.78
3846.34
3818.92
3789.87
3759.64
3728.69
3697.35
3665.96
3634.87
3604.26
3575.35
3548.04
3521.34
3495.5
3470.8
3447.43
3425.5
3405.04
3386.08
3368.62
3352.67
3338.19
3325.19
3313.64
3303.56
3294.93
3287.76
3282.07
3277.86
3275.17
3274.03
3274.43
3276.4
3279.98
3285.18
3292
3300.44
3310.5
3322.19
3335.48
3350.36
3366.81
3384.82
3404.33
3425.31
3447.69
3471.39
3496.32
3522.38
3549.42
3577.33
3605.89
3634.95
3664.32
3693.71
3722.88
3751.57
3779.36
3805.87
3675.42
3642.38
3608.39
3573.81
3539.02
3504.29
3469.94
3436.26
3403.97
3372.48
3342.43
3313.97
3287.23
3262.27
3239.16
3217.92
3198.53
3181
3165.26
3151.3
3139.06
3128.49
3119.54
3112.16
3106.31
3101.96
3099.08
3097.66
3097.66
3099.08
3101.93
3106.22
3111.99
3119.24
3128.02
3138.36
3150.29
3163.86
3179.11
3196.08
3214.78
3235.23
3257.43
3281.38
3307
3334.22
3362.93
3392.87
3423.56
3455.34
3487.9
3520.86
3553.88
3586.59
3618.58
3649.51
3679
3706.62
3732.04
3754.9
3774.88
3791.7
3805.07
3814.81
3820.74
3822.72
3820.63
3814.59
3804.64
3790.79
3773.21
3752.11
3727.77
3700.51
3670.71
3638.77
3605.14
3570.26
3534.58
3498.55
3462.63
3427.19
3392.63
3358.7
3325.22
3293.72
3264.34
3237.15
3212.14
3189.33
3168.72
3150.28
3133.95
3119.66
3107.33
3096.9
3088.26
3081.34
3076.06
3072.33
3070.08
3069.23
3069.75
3071.58
3074.67
3079.02
3084.61
3091.46
3099.59
3109.02
3119.77
3131.89
3145.4
3160.34
3176.75
3194.66
3214.09
3235.05
3257.54
3281.55
3307.02
3333.9
3362.09
3391.8
3422.24
3453.53
3485.45
3517.75
3550.1
3582.19
3613.65
3644.07
3673.04
3700.15
3724.97
3747.09
3766.12
3781.72
3793.59
3801.5
3805.28
3804.79
3800.04
3791.15
3778.15
3761.26
3740.76
3716.97
3690.29
3661.13
3629.97
3597.27
3563.54
3529.25
3494.88
3460.86
3427.6
3395.43
3364.64
3335.45
3308.03
3282.5
3258.93
3237.33
3217.7
3200
3184.16
3170.12
3157.8
3147.09
3137.93
3130.22
3123.89
3118.88
3115.13
3112.6
3111.24
3111.03
3111.97
3114.01
3117.16
3121.42
3126.8
3133.32
3141.03
3149.95
3160.15
3171.67
3184.6
3198.98
3214.88
3232.37
3251.47
3272.23
3294.63
3318.67
3344.3
3371.43
3399.95
3429.72
3460.52
3492.08
3524.14
3556.36
3588.41
3619.9
3650.42
3679.57
3706.92
3732.06
3754.6
3774.17
3790.44
3803.12
3812.01
3816.93
3817.76
3814.5
3807.3
3796.17
3781.34
3763.07
3741.67
3717.49
3690.92
3662.37
3632.28
3601.06
3569.13
3536.9
3504.74
3473.01
3442.01
3412.01
3383.23
3355.84
3329.98
3305.76
3283.25
3262.47
3243.45
3226.16
3210.57
3196.64
3184.31
3173.52
3164.2
3156.31
3149.77
3144.55
3140.6
3137.89
3136.4
3136.12
3137.01
3139.07
3142.31
3146.73
3152.37
3159.26
3167.43
3176.92
3187.79
3200.06
3213.79
3228.99
3245.72
3263.97
3283.76
3305.05
3327.8
3351.89
3377.15
3403.27
3429.94
3469.55
3501.35
3534.57
3568.41
3602.52
3636.44
3669.77
3702.02
3732.69
3761.29
3787.33
3810.25
3829.69
3845.14
3856.29
3862.95
3865.04
3863.35
3857.58
3847.82
3834.35
3817.32
3797.09
3774.04
3748.51
3721
3691.88
3661.57
3630.56
3599.16
3567.71
3536.59
3505.95
3477.04
3449.7
3422.98
3397.13
3372.42
3349.05
3327.12
3306.66
3287.71
3270.26
3254.31
3239.84
3226.84
3215.3
3205.22
3196.59
3189.42
3183.73
3179.53
3176.83
3175.68
3176.08
3178.05
3181.63
3186.83
3193.64
3202.08
3212.14
3223.82
3237.11
3251.99
3268.44
3286.45
3305.97
3326.95
3349.34
3373.04
3397.98
3424.06
3451.12
3479.05
3507.63
3536.72
3566.13
3595.56
3624.77
3653.52
3681.36
3707.93
3577.51
3544.38
3510.3
3475.64
3440.78
3405.99
3371.59
3337.88
3305.49
3274
3243.93
3215.46
3188.71
3163.75
3140.65
3119.41
3100.04
3082.52
3066.8
3052.85
3040.62
3030.06
3021.12
3013.75
3007.92
3003.57
3000.7
2999.27
2999.28
3000.69
3003.54
3007.83
3013.59
3020.83
3029.6
3039.93
3051.85
3065.41
3080.65
3097.6
3116.3
3136.74
3158.94
3182.89
3208.52
3235.74
3264.47
3294.44
3325.17
3356.98
3389.6
3422.62
3455.7
3488.49
3520.56
3551.58
3581.14
3608.85
3634.35
3657.29
3677.35
3694.23
3707.66
3717.44
3723.41
3725.4
3723.32
3717.27
3707.29
3693.4
3675.76
3654.59
3630.17
3602.82
3572.92
3540.88
3507.16
3472.18
3436.41
3400.31
3364.3
3328.81
3294.2
3260.21
3226.7
3195.18
3165.8
3138.6
3113.59
3090.78
3070.18
3051.75
3035.43
3021.16
3008.85
2998.43
2989.82
2982.91
2977.64
2973.93
2971.7
2970.87
2971.4
2973.23
2976.32
2980.67
2986.26
2993.11
3001.23
3010.65
3021.39
3033.5
3047
3061.93
3078.33
3096.23
3115.65
3136.6
3159.09
3183.1
3208.58
3235.46
3263.66
3293.42
3323.87
3355.2
3387.17
3419.52
3451.94
3484.1
3515.64
3546.14
3575.21
3602.41
3627.33
3649.53
3668.65
3684.32
3696.25
3704.2
3708
3707.52
3702.76
3693.83
3680.78
3663.82
3643.23
3619.35
3592.57
3563.31
3532.04
3499.24
3465.41
3431.03
3396.57
3362.48
3329.16
3296.94
3266.12
3236.91
3209.48
3183.95
3160.38
3138.79
3119.18
3101.49
3085.68
3071.66
3059.36
3048.68
3039.53
3031.84
3025.53
3020.53
3016.79
3014.26
3012.91
3012.71
3013.65
3015.69
3018.84
3023.09
3028.47
3034.99
3042.68
3051.59
3061.77
3073.29
3086.19
3100.56
3116.44
3133.91
3153.01
3173.75
3196.16
3220.19
3245.83
3272.97
3301.51
3331.31
3362.16
3393.77
3425.88
3458.17
3490.3
3521.87
3552.48
3581.72
3609.16
3634.39
3657.02
3676.66
3693
3705.75
3714.67
3719.61
3720.45
3717.19
3709.94
3698.76
3683.87
3665.53
3644.04
3619.77
3593.1
3564.46
3534.27
3502.97
3470.96
3438.65
3406.43
3374.65
3343.6
3313.57
3284.76
3257.35
3231.48
3207.26
3184.75
3163.98
3144.97
3127.69
3112.12
3098.2
3085.89
3075.12
3065.81
3057.93
3051.41
3046.19
3042.25
3039.55
3038.07
3037.78
3038.68
3040.74
3043.97
3048.39
3054.02
3060.9
3069.06
3078.54
3089.4
3101.66
3115.37
3130.57
3147.28
3165.53
3185.31
3206.61
3229.37
3253.49
3278.79
3304.97
3331.72
3371.06
3402.93
3436.26
3470.18
3504.39
3538.4
3571.82
3604.18
3634.95
3663.66
3689.81
3712.83
3732.35
3747.87
3759.09
3765.79
3767.87
3766.14
3760.32
3750.52
3736.97
3719.86
3699.52
3676.37
3650.75
3623.14
3593.91
3563.52
3532.43
3500.95
3469.44
3438.25
3407.58
3378.68
3351.31
3324.56
3298.69
3273.97
3250.6
3228.67
3208.22
3189.28
3171.84
3155.89
3141.43
3128.44
3116.9
3106.82
3098.2
3091.03
3085.34
3081.13
3078.43
3077.28
3077.67
3079.63
3083.21
3088.41
3095.21
3103.65
3113.71
3125.39
3138.67
3153.56
3170.01
3188.01
3207.54
3228.52
3250.92
3274.64
3299.59
3325.68
3352.77
3380.72
3409.34
3438.46
3467.91
3497.39
3526.67
3555.47
3583.38
3610.02
3479.63
3446.4
3412.21
3377.46
3342.52
3307.65
3273.19
3239.44
3206.95
3175.44
3145.35
3116.86
3090.11
3065.15
3042.06
3020.83
3001.47
2983.96
2968.26
2954.32
2942.11
2931.57
2922.64
2915.29
2909.46
2905.13
2902.26
2900.83
2900.84
2902.25
2905.1
2909.38
2915.13
2922.37
2931.12
2941.44
2953.34
2966.89
2982.12
2999.05
3017.74
3038.18
3060.36
3084.31
3109.95
3137.19
3165.94
3195.95
3226.71
3258.58
3291.26
3324.35
3357.52
3390.39
3422.56
3453.67
3483.34
3511.15
3536.75
3559.79
3579.93
3596.89
3610.39
3620.22
3626.22
3628.23
3626.17
3620.11
3610.1
3596.15
3578.44
3557.19
3532.66
3505.21
3475.19
3443.04
3409.2
3374.1
3338.23
3302.03
3265.94
3230.37
3195.7
3161.64
3128.11
3096.57
3067.17
3039.96
3014.94
2992.15
2971.55
2953.13
2936.83
2922.57
2910.29
2899.89
2891.3
2884.42
2879.17
2875.48
2873.26
2872.45
2872.99
2874.82
2877.92
2882.27
2887.86
2894.7
2902.82
2912.22
2922.96
2935.05
2948.54
2963.46
2979.85
2997.73
3017.14
3038.09
3060.58
3084.58
3110.07
3136.96
3165.15
3194.98
3225.45
3256.82
3288.85
3321.26
3353.76
3386.01
3417.64
3448.26
3477.43
3504.75
3529.77
3552.09
3571.3
3587.06
3599.06
3607.06
3610.88
3610.42
3605.65
3596.67
3583.55
3566.51
3545.83
3521.84
3494.93
3465.54
3434.14
3401.22
3367.27
3332.77
3298.22
3264.04
3230.65
3198.38
3167.52
3138.28
3110.84
3085.31
3061.74
3040.17
3020.57
3002.91
2987.12
2973.13
2960.85
2950.2
2941.08
2933.4
2927.11
2922.12
2918.4
2915.88
2914.53
2914.34
2915.28
2917.33
2920.48
2924.73
2930.09
2936.6
2944.28
2953.18
2963.35
2974.84
2987.72
3002.07
3017.94
3035.39
3054.47
3075.21
3097.6
3121.64
3147.28
3174.44
3203.01
3232.84
3263.74
3295.41
3327.59
3359.96
3392.18
3423.84
3454.56
3483.91
3511.47
3536.81
3559.54
3579.28
3595.71
3608.52
3617.49
3622.46
3623.31
3620.03
3612.74
3601.5
3586.53
3568.09
3546.51
3522.13
3495.34
3466.59
3436.29
3404.88
3372.77
3340.38
3308.08
3276.23
3245.13
3215.05
3186.21
3158.78
3132.91
3108.68
3086.17
3065.41
3046.41
3029.15
3013.6
2999.7
2987.41
2976.65
2967.37
2959.5
2952.99
2947.79
2943.86
2941.16
2939.68
2939.4
2940.3
2942.36
2945.59
2950
2955.62
2962.49
2970.63
2980.1
2990.94
3003.2
3016.89
3032.07
3048.78
3067.02
3086.79
3108.1
3130.87
3155.03
3180.37
3206.64
3233.49
3272.48
3304.45
3337.9
3371.93
3406.24
3440.36
3473.9
3506.38
3537.29
3566.13
3592.41
3615.55
3635.17
3650.78
3662.08
3668.81
3670.88
3669.1
3663.24
3653.38
3639.74
3622.53
3602.07
3578.8
3553.05
3525.31
3495.97
3465.47
3434.28
3402.71
3371.12
3339.87
3309.16
3280.27
3252.85
3226.07
3200.18
3175.45
3152.07
3130.15
3109.7
3090.77
3073.34
3057.41
3042.96
3029.97
3018.44
3008.37
2999.74
2992.57
2986.88
2982.67
2979.97
2978.81
2979.19
2981.16
2984.73
2989.92
2996.73
3005.16
3015.21
3026.89
3040.17
3055.05
3071.5
3089.51
3109.04
3130.03
3152.44
3176.17
3201.14
3227.25
3254.36
3282.35
3311
3340.17
3369.67
3399.21
3428.56
3457.44
3485.43
3512.15
3381.8
3348.44
3314.13
3279.26
3244.22
3209.27
3174.74
3140.94
3108.34
3076.8
3046.69
3018.19
2991.42
2966.47
2943.38
2922.16
2902.82
2885.32
2869.64
2855.73
2843.54
2833.01
2824.1
2816.76
2810.95
2806.62
2803.76
2802.34
2802.34
2803.76
2806.6
2810.88
2816.62
2823.84
2832.58
2842.88
2854.77
2868.3
2883.51
2900.43
2919.1
2939.53
2961.71
2985.66
3011.31
3038.56
3067.34
3097.39
3128.19
3160.12
3192.87
3226.05
3259.31
3292.29
3324.57
3355.8
3385.59
3413.52
3439.24
3462.38
3482.63
3499.68
3513.25
3523.15
3529.19
3531.23
3529.18
3523.1
3513.05
3499.04
3481.25
3459.9
3435.26
3407.68
3377.52
3345.24
3311.26
3276.03
3240.03
3203.72
3167.52
3131.87
3097.13
3063
3029.43
2997.86
2968.44
2941.22
2916.21
2893.42
2872.84
2854.43
2838.15
2823.91
2811.65
2801.28
2792.71
2785.86
2780.64
2776.97
2774.77
2773.97
2774.52
2776.37
2779.47
2783.82
2789.41
2796.25
2804.35
2813.75
2824.47
2836.55
2850.02
2864.92
2881.3
2899.17
2918.57
2939.51
2961.99
2986
3011.49
3038.4
3066.6
3096.48
3126.97
3158.4
3190.49
3222.98
3255.57
3287.92
3319.67
3350.4
3379.71
3407.16
3432.31
3454.76
3474.08
3489.94
3502.02
3510.08
3513.94
3513.48
3508.7
3499.67
3486.48
3469.34
3448.54
3424.41
3397.36
3367.83
3336.28
3303.21
3269.12
3234.49
3199.82
3165.55
3132.07
3099.74
3068.83
3039.57
3012.11
2986.57
2963.01
2941.45
2921.88
2904.25
2888.49
2874.53
2862.28
2851.65
2842.56
2834.91
2828.64
2823.67
2819.96
2817.45
2816.12
2815.93
2816.88
2818.92
2822.07
2826.31
2831.67
2838.17
2845.84
2854.72
2864.87
2876.34
2889.2
2903.52
2919.37
2936.8
2955.86
2976.59
2998.97
3023.01
3048.66
3075.84
3104.44
3134.31
3165.26
3197
3229.26
3261.73
3294.05
3325.84
3356.68
3386.16
3413.84
3439.31
3462.16
3482.02
3498.55
3511.44
3520.47
3525.46
3526.32
3523.03
3515.68
3504.38
3489.32
3470.77
3449.07
3424.56
3397.64
3368.75
3338.32
3306.79
3274.57
3242.07
3209.69
3177.76
3146.6
3116.47
3087.59
3060.14
3034.25
3010.02
2987.52
2966.77
2947.78
2930.53
2915
2901.13
2888.86
2878.12
2868.86
2861.01
2854.52
2849.33
2845.41
2842.73
2841.25
2840.98
2841.87
2843.93
2847.15
2851.56
2857.17
2864.02
2872.15
2881.61
2892.43
2904.67
2918.35
2933.52
2950.21
2968.44
2988.21
3009.52
3032.31
3056.5
3081.9
3108.26
3135.24
3173.8
3205.9
3239.51
3273.66
3308.09
3342.33
3376.01
3408.64
3439.7
3468.7
3495.12
3518.4
3538.15
3553.86
3565.24
3572.01
3574.07
3572.25
3566.34
3556.4
3542.66
3525.33
3504.73
3481.31
3455.42
3427.54
3398.06
3367.43
3336.13
3304.45
3272.77
3241.44
3210.68
3181.81
3154.34
3127.52
3101.6
3076.86
3053.48
3031.56
3011.12
2992.2
2974.78
2958.86
2944.42
2931.45
2919.92
2909.85
2901.23
2894.06
2888.36
2884.15
2881.45
2880.28
2880.66
2882.62
2886.19
2891.37
2898.17
2906.6
2916.65
2928.32
2941.6
2956.48
2972.93
2990.94
3010.47
3031.47
3053.89
3077.64
3102.63
3128.77
3155.91
3183.93
3212.62
3241.84
3271.4
3301.02
3330.44
3359.42
3387.5
3414.32
3284
3250.5
3216.05
3181.05
3145.9
3110.84
3076.23
3042.36
3009.66
2978.09
2947.95
2919.43
2892.65
2867.7
2844.61
2823.41
2804.09
2786.61
2770.95
2757.06
2744.89
2734.39
2725.5
2718.17
2712.37
2708.06
2705.21
2703.78
2703.79
2705.2
2708.04
2712.31
2718.04
2725.24
2733.97
2744.26
2756.13
2769.64
2784.83
2801.73
2820.39
2840.8
2862.99
2886.93
2912.59
2939.86
2968.66
2998.76
3029.62
3061.6
3094.45
3127.72
3161.09
3194.19
3226.6
3257.96
3287.89
3315.95
3341.8
3365.08
3385.44
3402.6
3416.26
3426.22
3432.32
3434.38
3432.34
3426.25
3416.15
3402.08
3384.19
3362.72
3337.95
3310.23
3279.92
3247.47
3213.34
3177.96
3141.82
3105.37
3069.07
3033.31
2998.49
2964.27
2930.66
2899.07
2869.63
2842.4
2817.38
2794.6
2774.03
2755.64
2739.38
2725.17
2712.94
2702.6
2694.06
2687.24
2682.04
2678.4
2676.23
2675.45
2676.01
2677.87
2680.97
2685.32
2690.91
2697.74
2705.83
2715.22
2725.92
2737.99
2751.44
2766.33
2782.68
2800.54
2819.93
2840.86
2863.33
2887.34
2912.84
2939.77
2968.01
2997.88
3028.43
3059.92
3092.09
3124.67
3157.36
3189.83
3221.7
3252.58
3282.03
3309.64
3334.94
3357.53
3376.99
3392.96
3405.14
3413.26
3417.16
3416.71
3411.91
3402.82
3389.55
3372.3
3351.36
3327.09
3299.88
3270.17
3238.45
3205.21
3170.96
3136.19
3101.38
3066.99
3033.42
3001.02
2970.06
2940.76
2913.28
2887.74
2864.19
2842.65
2823.11
2805.5
2789.78
2775.85
2763.64
2753.05
2743.98
2736.36
2730.11
2725.17
2721.47
2718.98
2717.65
2717.48
2718.42
2720.47
2723.62
2727.86
2733.21
2739.7
2747.35
2756.21
2766.33
2777.78
2790.61
2804.91
2820.73
2838.14
2857.18
2877.89
2900.27
2924.31
2949.97
2977.16
3005.8
3035.72
3066.74
3098.55
3130.91
3163.48
3195.92
3227.84
3258.83
3288.45
3316.28
3341.9
3364.9
3384.88
3401.52
3414.51
3423.6
3428.63
3429.5
3426.19
3418.79
3407.4
3392.23
3373.57
3351.72
3327.06
3300
3270.95
3240.38
3208.7
3176.35
3143.74
3111.25
3079.23
3048
3017.81
2988.9
2961.42
2935.51
2911.28
2888.78
2868.04
2849.07
2831.85
2816.34
2802.49
2790.25
2779.54
2770.3
2762.47
2755.99
2750.82
2746.92
2744.24
2742.78
2742.5
2743.4
2745.46
2748.68
2753.07
2758.67
2765.51
2773.62
2783.06
2793.87
2806.08
2819.74
2834.9
2851.57
2869.79
2889.56
2910.87
2933.68
2957.91
2983.37
3009.85
3036.99
3075.02
3107.29
3141.07
3175.37
3209.93
3244.32
3278.15
3310.95
3342.18
3371.36
3397.95
3421.4
3441.29
3457.12
3468.58
3475.4
3477.45
3475.59
3469.61
3459.58
3445.73
3428.25
3407.51
3383.92
3357.85
3329.81
3300.17
3269.4
3237.97
3206.16
3174.38
3142.95
3112.16
3083.28
3055.76
3028.91
3002.96
2978.2
2954.81
2932.89
2912.47
2893.56
2876.16
2860.25
2845.83
2832.86
2821.34
2811.28
2802.66
2795.49
2789.79
2785.58
2782.87
2781.69
2782.06
2784.02
2787.58
2792.76
2799.55
2807.98
2818.02
2829.69
2842.97
2857.84
2874.29
2892.3
2911.84
2932.85
2955.28
2979.04
3004.06
3030.23
3057.4
3085.47
3114.21
3143.48
3173.11
3202.8
3232.33
3261.41
3289.6
3316.52
3186.24
3152.57
3117.97
3082.83
3047.54
3012.37
2977.67
2943.72
2910.92
2879.3
2849.12
2820.58
2793.8
2768.84
2745.77
2724.58
2705.28
2687.83
2672.19
2658.33
2646.18
2635.7
2626.83
2619.52
2613.74
2609.44
2606.6
2605.17
2605.18
2606.59
2609.42
2613.69
2619.4
2626.59
2635.3
2645.57
2657.42
2670.91
2686.08
2702.96
2721.6
2742
2764.18
2788.12
2813.79
2841.08
2869.91
2900.07
2930.97
2963.04
2995.98
3029.36
3062.86
3096.09
3128.64
3160.15
3190.23
3218.45
3244.45
3267.87
3288.37
3305.64
3319.41
3329.45
3335.6
3337.7
3335.67
3329.56
3319.41
3305.26
3287.26
3265.67
3240.75
3212.86
3182.38
3149.75
3115.44
3079.89
3043.59
3007
2970.56
2934.69
2899.78
2865.47
2831.81
2800.18
2770.72
2743.49
2718.47
2695.69
2675.13
2656.77
2640.53
2626.35
2614.15
2603.84
2595.34
2588.54
2583.38
2579.77
2577.62
2576.87
2577.45
2579.32
2582.43
2586.78
2592.36
2599.18
2607.26
2616.63
2627.32
2639.37
2652.8
2667.67
2684.01
2701.85
2721.22
2742.14
2764.6
2788.61
2814.12
2841.07
2869.36
2899.21
2929.84
2961.4
2993.65
3026.33
3059.14
3091.74
3123.76
3154.79
3184.41
3212.19
3237.67
3260.42
3280.03
3296.13
3308.41
3316.61
3320.55
3320.12
3315.29
3306.14
3292.76
3275.39
3254.3
3229.86
3202.47
3172.57
3140.65
3107.23
3072.79
3037.85
3002.9
2968.38
2934.7
2902.22
2871.2
2841.86
2814.36
2788.82
2765.28
2743.76
2724.25
2706.68
2690.99
2677.11
2664.93
2654.38
2645.35
2637.76
2631.54
2626.61
2622.93
2620.45
2619.14
2618.98
2619.93
2621.98
2625.12
2629.36
2634.7
2641.17
2648.8
2657.64
2667.74
2679.16
2691.96
2706.23
2722.02
2739.4
2758.43
2779.12
2801.49
2825.53
2851.2
2878.42
2907.08
2937.06
2968.15
3000.06
3032.51
3065.21
3097.79
3129.85
3161
3190.79
3218.79
3244.58
3267.73
3287.87
3304.63
3317.72
3326.89
3331.96
3332.84
3329.5
3322.04
3310.56
3295.28
3276.47
3254.47
3229.64
3202.41
3173.19
3142.45
3110.61
3078.12
3045.37
3012.76
2980.64
2949.33
2919.09
2890.12
2862.61
2836.69
2812.45
2789.96
2769.23
2750.28
2733.08
2717.6
2703.78
2691.57
2680.89
2671.68
2663.88
2657.42
2652.26
2648.37
2645.71
2644.25
2643.99
2644.88
2646.94
2650.15
2654.54
2660.12
2666.94
2675.03
2684.45
2695.24
2707.43
2721.08
2736.21
2752.87
2771.07
2790.83
2812.15
2834.98
2859.25
2884.78
2911.39
2938.75
2976.13
3008.62
3042.6
3077.05
3111.77
3146.31
3180.32
3213.31
3244.74
3274.11
3300.91
3324.53
3344.58
3360.54
3372.11
3378.97
3381.01
3379.11
3373.06
3362.93
3348.94
3331.3
3310.37
3286.6
3260.35
3232.12
3202.31
3171.38
3139.79
3107.86
3075.95
3044.41
3013.57
2984.7
2957.14
2930.23
2904.24
2879.47
2856.08
2834.16
2813.75
2794.86
2777.47
2761.58
2747.17
2734.21
2722.71
2712.64
2704.02
2696.86
2691.16
2686.94
2684.23
2683.05
2683.41
2685.35
2688.9
2694.08
2700.87
2709.29
2719.33
2730.99
2744.26
2759.14
2775.59
2793.6
2813.14
2834.15
2856.6
2880.39
2905.44
2931.63
2958.84
2986.96
3015.75
3045.08
3074.79
3104.58
3134.21
3163.4
3191.72
3218.77
3088.51
3054.67
3019.89
2984.58
2949.15
2913.86
2879.05
2845
2812.11
2780.43
2750.22
2721.65
2694.86
2669.9
2646.84
2625.67
2606.39
2588.97
2573.36
2559.52
2547.4
2536.94
2528.1
2520.81
2515.05
2510.76
2507.93
2506.52
2506.52
2507.93
2510.75
2515
2520.71
2527.88
2536.57
2546.82
2558.64
2572.1
2587.25
2604.11
2622.73
2643.12
2665.29
2689.23
2714.9
2742.22
2771.09
2801.31
2832.27
2864.42
2897.47
2930.97
2964.6
2997.98
3030.69
3062.37
3092.63
3121.02
3147.19
3170.76
3191.41
3208.81
3222.69
3232.82
3239.03
3241.17
3239.16
3233.03
3222.82
3208.58
3190.47
3168.73
3143.64
3115.57
3084.9
3052.08
3017.57
2981.83
2945.35
2908.59
2872
2836
2801
2766.58
2732.88
2701.21
2671.73
2644.48
2619.46
2596.69
2576.15
2557.8
2541.6
2527.45
2515.28
2505.01
2496.54
2489.79
2484.66
2481.08
2478.97
2478.24
2478.84
2480.71
2483.83
2488.18
2493.76
2500.57
2508.64
2517.99
2528.67
2540.69
2554.11
2568.95
2585.27
2603.09
2622.44
2643.34
2665.81
2689.81
2715.33
2742.3
2770.64
2800.48
2831.19
2862.83
2895.17
2927.97
2960.9
2993.65