/*--------------------------------*- C++ -*----------------------------------*\
| =========                 |                                                 |
| \\      /  F ield         | OpenFOAM: The Open Source CFD Toolbox           |
|  \\    /   O peration     | Version:  3.0.1                                 |
|   \\  /    A nd           | Web:      www.OpenFOAM.org                      |
|    \\/     M anipulation  |                                                 |
\*---------------------------------------------------------------------------*/
FoamFile
{
    version     2.0;
    format      ascii;
    class       surfaceScalarField;
    location    "30.4";
    object      phi;
}
// * * * * * * * * * * * * * * * * * * * * * * * * * * * * * * * * * * * * * //

dimensions      [0 3 -1 0 0 0 0];

internalField   nonuniform List<scalar> 
42423
(
0.000129017
1.71583e-05
0.000111498
1.75189e-05
9.34651e-05
1.80331e-05
7.50973e-05
1.83677e-05
5.68314e-05
1.82659e-05
3.86288e-05
1.82027e-05
2.08275e-05
1.78013e-05
3.45376e-06
1.73737e-05
-1.32728e-05
1.67265e-05
-2.91727e-05
1.58999e-05
-4.42026e-05
1.503e-05
-5.82747e-05
1.40721e-05
-7.13413e-05
1.30666e-05
-8.34015e-05
1.20602e-05
-9.44408e-05
1.10392e-05
-0.000104487
1.00467e-05
-0.000113536
9.04858e-06
-0.000121621
8.08486e-06
-0.000128783
7.16159e-06
-0.000135048
6.26549e-06
-0.00014046
5.4119e-06
-0.000145036
4.57621e-06
-0.000148826
3.78972e-06
-0.00015184
3.01399e-06
-0.000154126
2.28621e-06
-0.00015569
1.5642e-06
-0.000156589
8.98427e-07
-0.0001568
2.11119e-07
-0.000156262
-5.37319e-07
-0.000155036
-1.22665e-06
-0.000153155
-1.88105e-06
-0.000150512
-2.64257e-06
-0.000147205
-3.30753e-06
-0.000143116
-4.08856e-06
-0.000138268
-4.84844e-06
-0.000132655
-5.6131e-06
-0.000126144
-6.51056e-06
-0.000118833
-7.31141e-06
-0.000110791
-8.04198e-06
-0.000101718
-9.07304e-06
-9.16818e-05
-1.00359e-05
-8.06747e-05
-1.10071e-05
-6.8623e-05
-1.20517e-05
-5.58129e-05
-1.28102e-05
-4.18476e-05
-1.39653e-05
-2.69787e-05
-1.48688e-05
-1.12824e-05
-1.56964e-05
5.26816e-06
-1.65506e-05
2.26093e-05
-1.73412e-05
4.04241e-05
-1.78148e-05
5.87915e-05
-1.83674e-05
7.74766e-05
-1.86852e-05
9.63092e-05
-1.88327e-05
0.000115191
-1.88822e-05
0.00013368
-1.8489e-05
0.000151623
-1.79421e-05
0.000168923
-1.73004e-05
0.000185122
-1.61996e-05
0.000200105
-1.49828e-05
0.000213584
-1.34784e-05
0.000225401
-1.18171e-05
0.000235461
-1.00609e-05
0.000243366
-7.90448e-06
0.000249106
-5.7397e-06
0.000252524
-3.41809e-06
0.000253487
-9.63522e-07
0.000252233
1.25447e-06
0.000248421
3.81204e-06
0.000242239
6.18183e-06
0.00023383
8.40897e-06
0.000223117
1.07129e-05
0.000210437
1.26799e-05
0.000195964
1.44724e-05
0.00017979
1.6174e-05
0.000162345
1.74456e-05
0.00014384
1.8505e-05
0.000124595
1.92447e-05
0.000104855
1.97404e-05
8.4917e-05
1.99376e-05
6.51202e-05
1.97968e-05
4.56674e-05
1.94528e-05
2.68442e-05
1.88232e-05
8.84392e-06
1.80003e-05
-8.1961e-06
1.704e-05
-2.41589e-05
1.59628e-05
-3.8948e-05
1.4789e-05
-5.26163e-05
1.36683e-05
-6.51038e-05
1.24875e-05
-7.64939e-05
1.13901e-05
-8.68481e-05
1.03543e-05
-9.62016e-05
9.35349e-06
-0.000104575
8.373e-06
-0.000112008
7.43368e-06
-0.000118562
6.55347e-06
-0.000124285
5.72344e-06
-0.000129109
4.82368e-06
-0.000133169
4.05999e-06
-0.000136456
3.28667e-06
-0.000139044
2.58842e-06
-0.000140939
1.89455e-06
-0.000142146
1.2072e-06
-0.000142729
5.82885e-07
-0.000142687
-4.1264e-08
-0.000142069
-6.18539e-07
-0.000140867
-1.20173e-06
-0.000139038
-1.82886e-06
-0.000136651
-2.38695e-06
-0.000133691
-2.96068e-06
-0.000130084
-3.60699e-06
-0.000125862
-4.22187e-06
-0.000120973
-4.88881e-06
-0.000115377
-5.59653e-06
-0.00010911
-6.26638e-06
-0.000102017
-7.09269e-06
-9.41801e-05
-7.83738e-06
-8.55315e-05
-8.64866e-06
-7.59885e-05
-9.54298e-06
-6.57286e-05
-1.026e-05
-5.4545e-05
-1.11836e-05
-4.25137e-05
-1.20314e-05
-2.9619e-05
-1.28947e-05
-1.60343e-05
-1.35847e-05
-1.59627e-06
-1.44381e-05
1.35403e-05
-1.51366e-05
2.93788e-05
-1.58385e-05
4.57755e-05
-1.63968e-05
6.26551e-05
-1.68797e-05
7.98562e-05
-1.72011e-05
9.71935e-05
-1.73373e-05
0.000114521
-1.73279e-05
0.000131587
-1.70659e-05
0.000148227
-1.66398e-05
0.000164153
-1.59257e-05
0.000179099
-1.49461e-05
0.000192802
-1.37037e-05
0.000205008
-1.22059e-05
0.000215426
-1.04182e-05
0.000223869
-8.4427e-06
0.000230076
-6.20679e-06
0.000233922
-3.84663e-06
0.000235352
-1.42937e-06
0.000234305
1.04666e-06
0.000230663
3.64213e-06
0.000224549
6.11358e-06
0.000216078
8.47104e-06
0.000205412
1.06663e-05
0.0001928
1.26113e-05
0.000178348
1.44527e-05
0.000162427
1.59205e-05
0.000145246
1.71812e-05
0.000127133
1.81127e-05
0.000108367
1.87663e-05
8.92759e-05
1.90909e-05
7.0082e-05
1.91938e-05
5.10699e-05
1.90121e-05
3.24812e-05
1.85887e-05
1.45059e-05
1.79753e-05
-2.78932e-06
1.72952e-05
-1.91857e-05
1.63963e-05
-3.46242e-05
1.54385e-05
-4.90843e-05
1.44601e-05
-6.2475e-05
1.33907e-05
-7.48253e-05
1.23504e-05
-8.61597e-05
1.13343e-05
-9.64762e-05
1.03165e-05
-0.000105825
9.34852e-06
-0.000114199
8.37469e-06
-0.000121754
7.5547e-06
-0.000128403
6.64882e-06
-0.000134244
5.84134e-06
-0.0001393
5.05567e-06
-0.000143692
4.3924e-06
-0.000147414
3.72117e-06
-0.000150484
3.06998e-06
-0.000152942
2.45849e-06
-0.000154704
1.76145e-06
-0.000155818
1.11415e-06
-0.00015648
6.62566e-07
-0.000156462
-1.79979e-08
-0.00015594
-5.22322e-07
-0.000154838
-1.10176e-06
-0.000153185
-1.65336e-06
-0.000150892
-2.29298e-06
-0.000148069
-2.82258e-06
-0.000144496
-3.57366e-06
-0.000140408
-4.08771e-06
-0.000135484
-4.92442e-06
-0.000129929
-5.55417e-06
-0.00012351
-6.41905e-06
-0.000116392
-7.11839e-06
-0.000108347
-8.0452e-06
-9.94798e-05
-8.86695e-06
-8.95994e-05
-9.88046e-06
-7.88774e-05
-1.07219e-05
-6.70923e-05
-1.17851e-05
-5.43867e-05
-1.27056e-05
-4.07031e-05
-1.36837e-05
-2.61188e-05
-1.45842e-05
-1.06719e-05
-1.5447e-05
5.53885e-06
-1.62107e-05
2.24275e-05
-1.68887e-05
3.98674e-05
-1.744e-05
5.76655e-05
-1.77981e-05
7.56778e-05
-1.80124e-05
9.36509e-05
-1.79731e-05
0.000111404
-1.7753e-05
0.000128633
-1.72294e-05
0.000145151
-1.65175e-05
0.000160647
-1.5496e-05
0.000174885
-1.42379e-05
0.000187593
-1.27088e-05
0.000198539
-1.09454e-05
0.000207449
-8.91083e-06
0.000214194
-6.74459e-06
0.000218597
-4.40256e-06
0.000220568
-1.97165e-06
0.000220125
4.42926e-07
0.000217225
2.89999e-06
0.000211827
5.39832e-06
0.000204186
7.64083e-06
0.000194351
9.83488e-06
0.000182616
1.17351e-05
0.000169132
1.34843e-05
0.000154126
1.50053e-05
0.000138
1.61265e-05
0.000120931
1.70688e-05
0.000103226
1.77047e-05
8.51083e-05
1.81177e-05
6.6777e-05
1.83313e-05
4.8503e-05
1.82739e-05
3.03641e-05
1.81389e-05
1.27019e-05
1.76621e-05
-4.4803e-06
1.71822e-05
-2.09369e-05
1.64566e-05
-3.66775e-05
1.57406e-05
-5.15201e-05
1.48426e-05
-6.54313e-05
1.39112e-05
-7.83308e-05
1.28995e-05
-9.02507e-05
1.19199e-05
-0.000101219
1.09679e-05
-0.00011118
9.96103e-06
-0.00012022
9.0403e-06
-0.000128402
8.18214e-06
-0.000135739
7.33689e-06
-0.000142289
6.55012e-06
-0.000148023
5.73342e-06
-0.000152979
4.95609e-06
-0.000157245
4.26663e-06
-0.000160766
3.52042e-06
-0.000163541
2.77488e-06
-0.000165583
2.04276e-06
-0.000166943
1.36008e-06
-0.000167635
6.91384e-07
-0.000167704
6.86942e-08
-0.00016696
-7.4374e-07
-0.00016561
-1.3495e-06
-0.000163552
-2.05818e-06
-0.000160881
-2.67113e-06
-0.000157536
-3.34478e-06
-0.000153582
-3.95429e-06
-0.000148948
-4.63441e-06
-0.000143661
-5.28641e-06
-0.000137639
-6.022e-06
-0.000131026
-6.61317e-06
-0.000123619
-7.40673e-06
-0.00011538
-8.23958e-06
-0.000106475
-8.90481e-06
-9.66867e-05
-9.78814e-06
-8.58826e-05
-1.08041e-05
-7.43636e-05
-1.15191e-05
-6.17431e-05
-1.26205e-05
-4.82955e-05
-1.34476e-05
-3.37804e-05
-1.45151e-05
-1.83276e-05
-1.54528e-05
-2.10987e-06
-1.62178e-05
1.51023e-05
-1.72122e-05
3.31514e-05
-1.80491e-05
5.1996e-05
-1.88447e-05
7.13418e-05
-1.93459e-05
9.10533e-05
-1.97115e-05
0.000110732
-1.96783e-05
0.00013012
-1.93886e-05
0.000148879
-1.87584e-05
0.000166495
-1.76162e-05
0.00018266
-1.61655e-05
0.000197048
-1.43883e-05
0.00020916
-1.21116e-05
0.000218899
-9.73914e-06
0.000225911
-7.01193e-06
0.000230122
-4.21144e-06
0.000231195
-1.07214e-06
0.000229573
1.62105e-06
0.000225619
3.95464e-06
0.000219519
6.09988e-06
0.000211208
8.31086e-06
0.000201031
1.01771e-05
0.000189037
1.19939e-05
0.000175465
1.35717e-05
0.000160672
1.47935e-05
0.000144776
1.58955e-05
0.000128223
1.65531e-05
0.000111096
1.71271e-05
9.36173e-05
1.74787e-05
7.61075e-05
1.75098e-05
5.87202e-05
1.73873e-05
4.15289e-05
1.71913e-05
2.47805e-05
1.67484e-05
8.49096e-06
1.62895e-05
-7.14365e-06
1.56346e-05
-2.21529e-05
1.50093e-05
-3.64427e-05
1.42898e-05
-4.99218e-05
1.34791e-05
-6.26038e-05
1.2682e-05
-7.44598e-05
1.18559e-05
-8.54729e-05
1.10131e-05
-9.56789e-05
1.0206e-05
-0.000105064
9.38504e-06
-0.000113667
8.603e-06
-0.000121498
7.83152e-06
-0.000128569
7.07053e-06
-0.000134899
6.32991e-06
-0.000140484
5.58492e-06
-0.000145323
4.83957e-06
-0.000149427
4.10403e-06
-0.000152801
3.37365e-06
-0.000155405
2.60357e-06
-0.000157233
1.82835e-06
-0.000158309
1.07604e-06
-0.000158593
2.83784e-07
-0.000157993
-5.99889e-07
-0.00015652
-1.47251e-06
-0.000154202
-2.31879e-06
-0.000151095
-3.10686e-06
-0.000147049
-4.04565e-06
-0.000142203
-4.84643e-06
-0.000136427
-5.77576e-06
-0.000129876
-6.55046e-06
-0.000122545
-7.33198e-06
-0.000114274
-8.27061e-06
-0.000105189
-9.08491e-06
-9.53943e-05
-9.79472e-06
-8.47113e-05
-1.0683e-05
-7.33641e-05
-1.13472e-05
-6.11381e-05
-1.2226e-05
-4.82071e-05
-1.2931e-05
-3.46775e-05
-1.35297e-05
-2.03314e-05
-1.43461e-05
-5.34712e-06
-1.49843e-05
1.01125e-05
-1.54596e-05
2.61548e-05
-1.60423e-05
4.25141e-05
-1.63594e-05
5.92148e-05
-1.67007e-05
7.60197e-05
-1.68049e-05
9.26893e-05
-1.66696e-05
0.000109217
-1.65278e-05
0.000125333
-1.61164e-05
-1.57095e-05
0.000129043
3.43239e-05
0.000111517
3.5045e-05
9.34758e-05
3.60739e-05
7.51001e-05
3.67434e-05
5.6826e-05
3.654e-05
3.86207e-05
3.6408e-05
2.08068e-05
3.56152e-05
3.44172e-06
3.47388e-05
-1.33028e-05
3.34711e-05
-2.92074e-05
3.18044e-05
-4.42411e-05
3.00637e-05
-5.83187e-05
2.81497e-05
-7.13866e-05
2.61345e-05
-8.34471e-05
2.41207e-05
-9.44884e-05
2.20805e-05
-0.000104535
2.00935e-05
-0.000113585
1.80987e-05
-0.000121673
1.61723e-05
-0.000128834
1.43224e-05
-0.000135101
1.25327e-05
-0.00014051
1.08206e-05
-0.000145084
9.15058e-06
-0.000148875
7.58104e-06
-0.000151887
6.02579e-06
-0.000154178
4.57697e-06
-0.000155748
3.13388e-06
-0.000156641
1.79193e-06
-0.000156844
4.13623e-07
-0.000156309
-1.07218e-06
-0.000155083
-2.45297e-06
-0.000153203
-3.76019e-06
-0.000150562
-5.28437e-06
-0.000147255
-6.6141e-06
-0.000143168
-8.17588e-06
-0.000138322
-9.69406e-06
-0.000132706
-1.12296e-05
-0.000126197
-1.30196e-05
-0.000118886
-1.46221e-05
-0.000110845
-1.60828e-05
-0.000101757
-1.8161e-05
-9.17357e-05
-2.00575e-05
-8.07309e-05
-2.20119e-05
-6.86747e-05
-2.4108e-05
-5.58678e-05
-2.56172e-05
-4.1897e-05
-2.79362e-05
-2.70286e-05
-2.97373e-05
-1.13252e-05
-3.13998e-05
5.22649e-06
-3.31024e-05
2.25722e-05
-3.4687e-05
4.03971e-05
-3.56398e-05
5.8775e-05
-3.67454e-05
7.74683e-05
-3.73786e-05
9.63099e-05
-3.76743e-05
0.000115211
-3.77836e-05
0.00013371
-3.69878e-05
0.000151662
-3.58947e-05
0.000168984
-3.46217e-05
0.000185186
-3.24022e-05
0.000200186
-2.99826e-05
0.00021369
-2.69825e-05
0.000225509
-2.36366e-05
0.000235586
-2.01376e-05
0.000243493
-1.58115e-05
0.000249246
-1.14924e-05
0.000252668
-6.84101e-06
0.000253636
-1.93086e-06
0.000252375
2.51511e-06
0.000248561
7.62565e-06
0.000242377
1.23662e-05
0.000233963
1.68228e-05
0.000223244
2.14316e-05
0.000210553
2.53707e-05
0.000196071
2.89541e-05
0.000179888
3.23576e-05
0.000162428
3.49058e-05
0.000143912
3.70208e-05
0.000124656
3.85001e-05
0.000104905
3.94917e-05
8.4957e-05
3.98853e-05
6.51515e-05
3.96022e-05
4.56875e-05
3.89167e-05
2.68522e-05
3.76585e-05
8.83751e-06
3.6015e-05
-8.20897e-06
3.40865e-05
-2.41788e-05
3.19327e-05
-3.89757e-05
2.9586e-05
-5.26482e-05
2.73407e-05
-6.51351e-05
2.49744e-05
-7.65307e-05
2.27857e-05
-8.68951e-05
2.07186e-05
-9.62557e-05
1.87141e-05
-0.000104642
1.67592e-05
-0.000112082
1.48741e-05
-0.000118635
1.31061e-05
-0.000124349
1.14375e-05
-0.000129182
9.65636e-06
-0.000133247
8.12485e-06
-0.00013653
6.57032e-06
-0.000139122
5.18044e-06
-0.000141013
3.78563e-06
-0.000142228
2.42224e-06
-0.0001428
1.15489e-06
-0.00014276
-8.19717e-08
-0.000142133
-1.24484e-06
-0.00014092
-2.41536e-06
-0.000139091
-3.65807e-06
-0.000136687
-4.7903e-06
-0.000133751
-5.89729e-06
-0.000130144
-7.21345e-06
-0.000125917
-8.44875e-06
-0.000121037
-9.76947e-06
-0.000115441
-1.11923e-05
-0.000109156
-1.25512e-05
-0.000102069
-1.41793e-05
-9.42296e-05
-1.56773e-05
-8.55823e-05
-1.7296e-05
-7.60501e-05
-1.90752e-05
-6.57834e-05
-2.05267e-05
-5.45971e-05
-2.23699e-05
-4.25586e-05
-2.40699e-05
-2.9663e-05
-2.57904e-05
-1.60735e-05
-2.71743e-05
-1.63147e-06
-2.88802e-05
1.35143e-05
-3.02825e-05
2.93554e-05
-3.16796e-05
4.57608e-05
-3.28023e-05
6.26503e-05
-3.37693e-05
7.98526e-05
-3.44035e-05
9.72129e-05
-3.46977e-05
0.000114536
-3.46511e-05
0.000131616
-3.41464e-05
0.00014827
-3.3293e-05
0.000164201
-3.18574e-05
0.000179155
-2.99004e-05
0.000192879
-2.74271e-05
0.000205079
-2.44064e-05
0.000215513
-2.08525e-05
0.000223981
-1.69106e-05
0.000230177
-1.24025e-05
0.000234029
-7.69904e-06
0.000235458
-2.85885e-06
0.000234401
2.10365e-06
0.000230751
7.29187e-06
0.000224625
1.22395e-05
0.000216144
1.69524e-05
0.000205465
2.1345e-05
0.000192829
2.52474e-05
0.000178381
2.89003e-05
0.000162454
3.18478e-05
0.00014526
3.43747e-05
0.000127125
3.62476e-05
0.000108338
3.75535e-05
8.92057e-05
3.82234e-05
7.00308e-05
3.83686e-05
5.10108e-05
3.80321e-05
3.2403e-05
3.71964e-05
1.43955e-05
3.59828e-05
-2.89047e-06
3.45811e-05
-1.92934e-05
3.27993e-05
-3.47285e-05
3.08735e-05
-4.91842e-05
2.89158e-05
-6.25713e-05
2.67778e-05
-7.49297e-05
2.47088e-05
-8.62644e-05
2.2669e-05
-9.65797e-05
2.06318e-05
-0.000105915
1.86838e-05
-0.000114304
1.67639e-05
-0.000121831
1.50814e-05
-0.000128491
1.33088e-05
-0.000134338
1.16883e-05
-0.000139385
1.01023e-05
-0.000143773
8.78078e-06
-0.000147488
7.43656e-06
-0.000150556
6.1377e-06
-0.000153025
4.92708e-06
-0.000154781
3.51775e-06
-0.000155886
2.21939e-06
-0.000156549
1.32521e-06
-0.000156532
-3.4805e-08
-0.000156005
-1.04981e-06
-0.000154897
-2.20904e-06
-0.000153244
-3.30661e-06
-0.000150962
-4.57466e-06
-0.000148127
-5.65813e-06
-0.000144555
-7.14598e-06
-0.000140464
-8.17784e-06
-0.000135543
-9.84629e-06
-0.00012998
-1.11164e-05
-0.000123573
-1.28261e-05
-0.000116453
-1.42391e-05
-0.00010841
-1.60882e-05
-9.95397e-05
-1.77369e-05
-8.96547e-05
-1.97656e-05
-7.89282e-05
-2.14485e-05
-6.71403e-05
-2.3573e-05
-5.4436e-05
-2.541e-05
-4.07482e-05
-2.73716e-05
-2.61606e-05
-2.91719e-05
-1.07133e-05
-3.08943e-05
5.50308e-06
-3.24272e-05
2.23932e-05
-3.37789e-05
3.98507e-05
-3.48975e-05
5.7665e-05
-3.56124e-05
7.5684e-05
-3.60314e-05
9.36665e-05
-3.59558e-05
0.000111431
-3.55172e-05
0.000128671
-3.44701e-05
0.000145209
-3.30558e-05
0.000160702
-3.0989e-05
0.000174948
-2.84839e-05
0.000187671
-2.54318e-05
0.000198629
-2.19031e-05
0.000207546
-1.78282e-05
0.000214297
-1.34961e-05
0.000218699
-8.80464e-06
0.000220675
-3.94749e-06
0.000220231
8.87141e-07
0.000217314
5.81677e-06
0.000211913
1.07989e-05
0.000204258
1.52966e-05
0.00019441
1.96826e-05
0.000182653
2.34915e-05
0.000169164
2.69739e-05
0.000154145
3.00237e-05
0.000138003
3.22683e-05
0.000120926
3.41464e-05
0.000103207
3.54228e-05
8.50487e-05
3.62764e-05
6.67289e-05
3.66511e-05
4.8439e-05
3.65638e-05
3.03004e-05
3.62775e-05
1.26187e-05
3.53438e-05
-4.57201e-06
3.43729e-05
-2.10306e-05
3.29151e-05
-3.67706e-05
3.14806e-05
-5.16155e-05
2.96875e-05
-6.55272e-05
2.78228e-05
-7.84402e-05
2.58125e-05
-9.03802e-05
2.38599e-05
-0.000101316
2.1904e-05
-0.00011128
1.99244e-05
-0.00012032
1.80809e-05
-0.000128491
1.63525e-05
-0.000135825
1.46713e-05
-0.000142382
1.31076e-05
-0.000148112
1.1463e-05
-0.000153041
9.88514e-06
-0.000157329
8.55479e-06
-0.000160846
7.03741e-06
-0.000163621
5.54917e-06
-0.000165669
4.09107e-06
-0.000167029
2.72011e-06
-0.000167715
1.37741e-06
-0.000167784
1.3795e-07
-0.000167033
-1.4946e-06
-0.000165669
-2.71428e-06
-0.000163619
-4.10775e-06
-0.000160943
-5.34747e-06
-0.000157593
-6.69454e-06
-0.00015364
-7.9077e-06
-0.000149006
-9.26791e-06
-0.000143722
-1.05705e-05
-0.000137694
-1.205e-05
-0.000131077
-1.32301e-05
-0.000123669
-1.48153e-05
-0.000115425
-1.64833e-05
-0.000106523
-1.78064e-05
-9.67342e-05
-1.95773e-05
-8.59322e-05
-2.16061e-05
-7.44007e-05
-2.30506e-05
-6.17863e-05
-2.5235e-05
-4.83351e-05
-2.68989e-05
-3.38142e-05
-2.9036e-05
-1.83663e-05
-3.09008e-05
-2.14222e-06
-3.24419e-05
1.50648e-05
-3.44193e-05
3.31122e-05
-3.60966e-05
5.19591e-05
-3.76917e-05
7.13068e-05
-3.86936e-05
9.10219e-05
-3.94266e-05
0.000110705
-3.93614e-05
0.000130105
-3.87891e-05
0.000148883
-3.75363e-05
0.000166503
-3.52364e-05
0.00018267
-3.23325e-05
0.000197077
-2.87948e-05
0.000209205
-2.42405e-05
0.000218952
-1.94858e-05
0.000225963
-1.40233e-05
0.000230175
-8.42308e-06
0.000231249
-2.1468e-06
0.000229623
3.24765e-06
0.000225694
7.8837e-06
0.000219612
1.21817e-05
0.000211299
1.66231e-05
0.000201116
2.03605e-05
0.000189115
2.39952e-05
0.000175533
2.71529e-05
0.00016073
2.95971e-05
0.000144825
3.18004e-05
0.00012826
3.31177e-05
0.000111126
3.42612e-05
9.36353e-05
3.4969e-05
7.61164e-05
3.50286e-05
5.87216e-05
3.47821e-05
4.15201e-05
3.43928e-05
2.47692e-05
3.34993e-05
8.47311e-06
3.25855e-05
-7.16448e-06
3.12722e-05
-2.21782e-05
3.0023e-05
-3.64715e-05
2.8583e-05
-4.99538e-05
2.69614e-05
-6.26384e-05
2.53667e-05
-7.44968e-05
2.37143e-05
-8.5511e-05
2.20273e-05
-9.57167e-05
2.04117e-05
-0.000105105
1.87729e-05
-0.000113711
1.72096e-05
-0.000121548
1.56679e-05
-0.000128618
1.41407e-05
-0.000134944
1.26566e-05
-0.000140531
1.1171e-05
-0.000145375
9.68352e-06
-0.000149486
8.21529e-06
-0.000152856
6.74339e-06
-0.000155459
5.20748e-06
-0.000157295
3.66388e-06
-0.00015837
2.15069e-06
-0.000158644
5.57685e-07
-0.000158047
-1.1967e-06
-0.000156575
-2.94398e-06
-0.000154263
-4.63154e-06
-0.000151147
-6.22217e-06
-0.000147102
-8.09071e-06
-0.000142254
-9.69443e-06
-0.000136477
-1.15532e-05
-0.00012992
-1.31072e-05
-0.00012259
-1.46624e-05
-0.000114319
-1.6541e-05
-0.000105235
-1.81688e-05
-9.54367e-05
-1.95934e-05
-8.47523e-05
-2.13674e-05
-7.34024e-05
-2.26972e-05
-6.11729e-05
-2.44556e-05
-4.82394e-05
-2.58645e-05
-3.47045e-05
-2.70646e-05
-2.03573e-05
-2.86934e-05
-5.37435e-06
-2.99673e-05
1.00829e-05
-3.09169e-05
2.61295e-05
-3.2089e-05
4.24927e-05
-3.27226e-05
5.91996e-05
-3.34076e-05
7.60117e-05
-3.36171e-05
9.26891e-05
-3.33471e-05
0.000109224
-3.30633e-05
0.000125353
-3.22449e-05
-3.14304e-05
0.000129091
5.15072e-05
0.000111548
5.25883e-05
9.34899e-05
5.41314e-05
7.50983e-05
5.5135e-05
5.6808e-05
5.48302e-05
3.86004e-05
5.46156e-05
2.07608e-05
5.34547e-05
3.39465e-06
5.21049e-05
-1.33708e-05
5.02365e-05
-2.9284e-05
4.77176e-05
-4.43234e-05
4.51031e-05
-5.8405e-05
4.22313e-05
-7.14759e-05
3.92053e-05
-8.3538e-05
3.61828e-05
-9.45803e-05
3.31227e-05
-0.000104628
3.01416e-05
-0.000113676
2.71469e-05
-0.000121764
2.42601e-05
-0.000128927
2.14853e-05
-0.000135202
1.88071e-05
-0.000140599
1.62179e-05
-0.00014517
1.37222e-05
-0.00014896
1.13707e-05
-0.00015197
9.03535e-06
-0.000154259
6.86659e-06
-0.000155825
4.69935e-06
-0.00015671
2.67706e-06
-0.000156901
6.04759e-07
-0.000156363
-1.61058e-06
-0.000155136
-3.67937e-06
-0.000153259
-5.63766e-06
-0.000150619
-7.92446e-06
-0.000147314
-9.91913e-06
-0.000143229
-1.22604e-05
-0.000138391
-1.45327e-05
-0.000132768
-1.68522e-05
-0.000126263
-1.9525e-05
-0.000118955
-2.19294e-05
-0.000110917
-2.41208e-05
-0.000101818
-2.72606e-05
-9.18091e-05
-3.00662e-05
-8.08112e-05
-3.30098e-05
-6.87491e-05
-3.61701e-05
-5.59488e-05
-3.84175e-05
-4.19693e-05
-4.19157e-05
-2.71039e-05
-4.46028e-05
-1.13887e-05
-4.7115e-05
5.16876e-06
-4.96599e-05
2.25243e-05
-5.20426e-05
4.03615e-05
-5.3477e-05
5.8748e-05
-5.5132e-05
7.74588e-05
-5.60894e-05
9.63135e-05
-5.65291e-05
0.000115233
-5.67032e-05
0.000133753
-5.55083e-05
0.000151723
-5.3864e-05
0.000169066
-5.19648e-05
0.000185291
-4.8628e-05
0.000200312
-4.50031e-05
0.000213836
-4.05071e-05
0.000225668
-3.54683e-05
0.000235774
-3.02439e-05
0.000243691
-2.37282e-05
0.000249466
-1.7268e-05
0.000252907
-1.02813e-05
0.000253858
-2.88232e-06
0.000252567
3.80601e-06
0.000248747
1.14451e-05
0.000242558
1.85554e-05
0.000234135
2.52458e-05
0.000223413
3.21541e-05
0.000210705
3.80785e-05
0.000196203
4.34554e-05
0.000180011
4.85496e-05
0.000162532
5.23856e-05
0.000143999
5.55533e-05
0.000124729
5.77706e-05
0.00010496
5.92602e-05
8.49986e-05
5.98466e-05
6.5178e-05
5.94229e-05
4.57004e-05
5.83942e-05
2.68503e-05
5.65086e-05
8.81921e-06
5.40461e-05
-8.23438e-06
5.114e-05
-2.42122e-05
4.79104e-05
-3.90151e-05
4.43889e-05
-5.26938e-05
4.10193e-05
-6.51884e-05
3.74689e-05
-7.65888e-05
3.41861e-05
-8.69615e-05
3.10913e-05
-9.63335e-05
2.80861e-05
-0.000104734
2.51595e-05
-0.000112183
2.23237e-05
-0.000118737
1.96598e-05
-0.000124434
1.71341e-05
-0.00012928
1.45028e-05
-0.000133353
1.2198e-05
-0.000136635
9.8518e-06
-0.000139229
7.77451e-06
-0.000141131
5.68787e-06
-0.000142358
3.6494e-06
-0.000142925
1.72169e-06
-0.000142873
-1.33715e-07
-0.00014224
-1.87865e-06
-0.000141023
-3.63215e-06
-0.000139189
-5.49199e-06
-0.000136768
-7.21158e-06
-0.000133856
-8.80924e-06
-0.000130245
-1.08242e-05
-0.000126033
-1.26608e-05
-0.000121147
-1.46559e-05
-0.000115563
-1.67759e-05
-0.000109276
-1.88386e-05
-0.000102202
-2.12531e-05
-9.43478e-05
-2.35314e-05
-8.57052e-05
-2.59386e-05
-7.62129e-05
-2.85675e-05
-6.59085e-05
-3.08311e-05
-5.47156e-05
-3.35628e-05
-4.26821e-05
-3.61035e-05
-2.97817e-05
-3.86908e-05
-1.6188e-05
-4.0768e-05
-1.74083e-06
-4.33274e-05
1.34167e-05
-4.54401e-05
2.92763e-05
-4.75394e-05
4.56943e-05
-4.92203e-05
6.25913e-05
-5.06664e-05
7.98033e-05
-5.16156e-05
9.71952e-05
-5.20897e-05
0.000114523
-5.19788e-05
0.000131626
-5.12496e-05
0.000148296
-4.99629e-05
0.000164258
-4.78195e-05
0.000179233
-4.48753e-05
0.000192982
-4.11765e-05
0.000205192
-3.66163e-05
0.000215642
-3.13027e-05
0.000224116
-2.53853e-05
0.000230335
-1.86206e-05
0.000234198
-1.15629e-05
0.000235635
-4.29514e-06
0.000234563
3.17482e-06
0.000230894
1.09611e-05
0.000224761
1.83727e-05
0.000216269
2.54441e-05
0.00020557
3.20439e-05
0.000192913
3.79044e-05
0.000178447
4.33658e-05
0.000162504
4.77913e-05
0.000145282
5.15966e-05
0.000127117
5.44121e-05
0.000108311
5.63598e-05
8.91385e-05
5.73958e-05
6.99601e-05
5.7547e-05
5.09278e-05
5.70643e-05
3.22942e-05
5.583e-05
1.42748e-05
5.40021e-05
-3.01639e-06
5.18723e-05
-1.94304e-05
4.92133e-05
-3.48659e-05
4.6309e-05
-4.93245e-05
4.33743e-05
-6.26978e-05
4.0151e-05
-7.50539e-05
3.70649e-05
-8.63842e-05
3.39993e-05
-9.67045e-05
3.09521e-05
-0.000106036
2.80155e-05
-0.000114448
2.51759e-05
-0.000121938
2.25706e-05
-0.000128603
1.99746e-05
-0.000134459
1.75442e-05
-0.000139489
1.51317e-05
-0.000143868
1.31606e-05
-0.00014759
1.11584e-05
-0.000150656
9.20332e-06
-0.000153132
7.40311e-06
-0.000154899
5.28522e-06
-0.000155997
3.31736e-06
-0.00015666
1.98772e-06
-0.00015664
-5.48658e-08
-0.000156101
-1.58843e-06
-0.000154998
-3.31186e-06
-0.000153343
-4.96185e-06
-0.000151073
-6.84472e-06
-0.000148238
-8.49353e-06
-0.000144716
-1.06678e-05
-0.000140578
-1.23156e-05
-0.000135683
-1.47415e-05
-0.000130103
-1.66967e-05
-0.000123731
-1.91975e-05
-0.000116575
-2.13954e-05
-0.000108539
-2.41247e-05
-9.96715e-05
-2.6604e-05
-8.98291e-05
-2.9608e-05
-7.90666e-05
-3.22111e-05
-6.72729e-05
-3.53667e-05
-5.45621e-05
-3.81209e-05
-4.08715e-05
-4.10623e-05
-2.62786e-05
-4.37649e-05
-1.08172e-05
-4.63558e-05
5.41147e-06
-4.86559e-05
2.23141e-05
-5.06817e-05
3.9781e-05
-5.23645e-05
5.76056e-05
-5.34371e-05
7.56599e-05
-5.40858e-05
9.3647e-05
-5.39429e-05
0.000111423
-5.32935e-05
0.0001287
-5.1747e-05
0.000145256
-4.96118e-05
0.000160774
-4.65072e-05
0.000175046
-4.27556e-05
0.000187781
-3.81669e-05
0.000198767
-3.2889e-05
0.000207701
-2.67622e-05
0.000214469
-2.02651e-05
0.00021887
-1.32057e-05
0.000220843
-5.91972e-06
0.000220401
1.32919e-06
0.000217438
8.77954e-06
0.000212048
1.61888e-05
0.000204382
2.29617e-05
0.000194522
2.95432e-05
0.000182741
3.52723e-05
0.000169206
4.05085e-05
0.000154184
4.50454e-05
0.000138021
4.84316e-05
0.000120927
5.12399e-05
0.000103193
5.31572e-05
8.50017e-05
5.44678e-05
6.66716e-05
5.49811e-05
4.83693e-05
5.48661e-05
3.02187e-05
5.4428e-05
1.25122e-05
5.30503e-05
-4.69271e-06
5.15778e-05
-2.11712e-05
4.93936e-05
-3.68887e-05
4.71981e-05
-5.17334e-05
4.45322e-05
-6.56484e-05
4.17377e-05
-7.85623e-05
3.87264e-05
-9.05174e-05
3.5815e-05
-0.000101446
3.28321e-05
-0.000111396
2.98746e-05
-0.00012043
2.71147e-05
-0.000128599
2.45215e-05
-0.000135936
2.20091e-05
-0.0001425
1.96709e-05
-0.000148229
1.71922e-05
-0.000153132
1.47882e-05
-0.000157436
1.28585e-05
-0.000160959
1.05602e-05
-0.000163744
8.3348e-06
-0.000165793
6.13946e-06
-0.000167152
4.0793e-06
-0.000167833
2.0583e-06
-0.000167898
2.0307e-07
-0.000167144
-2.2486e-06
-0.000165744
-4.11454e-06
-0.000163722
-6.12977e-06
-0.000161046
-8.02286e-06
-0.0001577
-1.00409e-05
-0.000153749
-1.18581e-05
-0.000149117
-1.39001e-05
-0.000143836
-1.58518e-05
-0.000137808
-1.80778e-05
-0.000131182
-1.98566e-05
-0.000123767
-2.22298e-05
-0.000115528
-2.47227e-05
-0.00010663
-2.6704e-05
-9.68238e-05
-2.93838e-05
-8.60437e-05
-3.23863e-05
-7.4461e-05
-3.46333e-05
-6.18462e-05
-3.78499e-05
-4.83955e-05
-4.03497e-05
-3.38786e-05
-4.3553e-05
-1.84372e-05
-4.63423e-05
-2.18542e-06
-4.86937e-05
1.50191e-05
-5.16239e-05
3.30649e-05
-5.41425e-05
5.19138e-05
-5.65406e-05
7.12659e-05
-5.80457e-05
9.09925e-05
-5.91533e-05
0.000110687
-5.90555e-05
0.000130097
-5.81997e-05
0.000148893
-5.63324e-05
0.000166532
-5.28757e-05
0.000182705
-4.85054e-05
0.000197102
-4.31914e-05
0.000209198
-3.63371e-05
0.000218894
-2.91816e-05
0.000225815
-2.09444e-05
0.000229972
-1.25803e-05
0.000231135
-3.30946e-06
0.000229635
4.74727e-06
0.000225813
1.17056e-05
0.000219762
1.8233e-05
0.000211444
2.49402e-05
0.000201247
3.05576e-05
0.000189222
3.60206e-05
0.000175634
4.07403e-05
0.000160809
4.44228e-05
0.000144885
4.7724e-05
0.000128297
4.97055e-05
0.00011115
5.14086e-05
9.36388e-05
5.24799e-05
7.61057e-05
5.25617e-05
5.8697e-05
5.21908e-05
4.14768e-05
5.16129e-05
2.47258e-05
5.02503e-05
8.42162e-06
4.88897e-05
-7.22179e-06
4.69156e-05
-2.22413e-05
4.50425e-05
-3.65395e-05
4.28812e-05
-5.00253e-05
4.04471e-05
-6.2712e-05
3.80533e-05
-7.45707e-05
3.5573e-05
-8.55841e-05
3.30407e-05
-9.57913e-05
3.06189e-05
-0.00010518
2.81615e-05
-0.000113784
2.58142e-05
-0.00012162
2.35031e-05
-0.000128693
2.12139e-05
-0.000135024
1.89876e-05
-0.000140612
1.67588e-05
-0.000145454
1.45258e-05
-0.000149571
1.23326e-05
-0.000152939
1.01114e-05
-0.000155544
7.81185e-06
-0.000157378
5.49788e-06
-0.000158457
3.23008e-06
-0.000158715
8.15698e-07
-0.000158112
-1.79986e-06
-0.000156641
-4.41525e-06
-0.000154343
-6.92881e-06
-0.000151212
-9.35358e-06
-0.000147165
-1.21374e-05
-0.000142317
-1.45431e-05
-0.00013654
-1.733e-05
-0.000129987
-1.96599e-05
-0.000122643
-2.20065e-05
-0.000114373
-2.48113e-05
-0.000105288
-2.7254e-05
-9.55e-05
-2.9381e-05
-8.48063e-05
-3.20612e-05
-7.3462e-05
-3.40415e-05
-6.12265e-05
-3.66911e-05
-4.82936e-05
-3.87975e-05
-3.47524e-05
-4.06058e-05
-2.04042e-05
-4.30416e-05
-5.41658e-06
-4.49549e-05
1.00441e-05
-4.63776e-05
2.60923e-05
-4.81373e-05
4.24597e-05
-4.90901e-05
5.91767e-05
-5.01247e-05
7.60012e-05
-5.04416e-05
9.2689e-05
-5.0035e-05
0.000109243
-4.96173e-05
0.000125394
-4.8396e-05
-4.7172e-05
0.000129163
6.87174e-05
0.000111594
7.01574e-05
9.35112e-05
7.22142e-05
7.50956e-05
7.35506e-05
5.67806e-05
7.31452e-05
3.8571e-05
7.28252e-05
2.06912e-05
7.13345e-05
3.31219e-06
6.9484e-05
-1.34747e-05
6.70233e-05
-2.9399e-05
6.36419e-05
-4.44479e-05
6.01521e-05
-5.8537e-05
5.63203e-05
-7.16108e-05
5.22791e-05
-8.36758e-05
4.82478e-05
-9.47202e-05
4.41671e-05
-0.00010477
4.01918e-05
-0.000113817
3.61937e-05
-0.000121905
3.23476e-05
-0.000129069
2.86495e-05
-0.000135339
2.50766e-05
-0.000140731
2.16106e-05
-0.000145302
1.82931e-05
-0.000149089
1.51571e-05
-0.000152098
1.20447e-05
-0.000154387
9.15609e-06
-0.000155952
6.26358e-06
-0.000156829
3.55405e-06
-0.000156994
7.70355e-07
-0.000156443
-2.16178e-06
-0.000155217
-4.90538e-06
-0.000153342
-7.51259e-06
-0.000150705
-1.05616e-05
-0.000147403
-1.32214e-05
-0.000143321
-1.6342e-05
-0.000138495
-1.93594e-05
-0.000132862
-2.24851e-05
-0.000126362
-2.60247e-05
-0.000119061
-2.92308e-05
-0.000111026
-3.21551e-05
-0.000101913
-3.6374e-05
-9.19197e-05
-4.00595e-05
-8.09327e-05
-4.39969e-05
-6.88612e-05
-4.82417e-05
-5.60711e-05
-5.12076e-05
-4.20786e-05
-5.59083e-05
-2.72178e-05
-5.94636e-05
-1.14844e-05
-6.28484e-05
5.07817e-06
-6.62226e-05
2.24499e-05
-6.94144e-05
4.03066e-05
-7.13337e-05
5.87076e-05
-7.3533e-05
7.74459e-05
-7.48278e-05
9.63167e-05
-7.54e-05
0.000115266
-7.56527e-05
0.00013382
-7.4062e-05
0.000151812
-7.18568e-05
0.000169191
-6.9343e-05
0.000185448
-6.48851e-05
0.000200507
-6.00627e-05
0.000214058
-5.40585e-05
0.000225909
-4.73193e-05
0.000236055
-4.03898e-05
0.000243986
-3.16595e-05
0.000249795
-2.30763e-05
0.000253258
-1.37449e-05
0.000254193
-3.81728e-06
0.000252859
5.14007e-06
0.000249029
1.52754e-05
0.00024283
2.47544e-05
0.000234389
3.36864e-05
0.000223663
4.288e-05
0.00021093
5.08115e-05
0.000196401
5.79844e-05
0.000180196
6.47541e-05
0.000162683
6.98983e-05
0.000144129
7.41074e-05
0.000124839
7.7061e-05
0.000105042
7.90574e-05
8.50592e-05
7.98291e-05
6.52153e-05
7.92667e-05
4.57183e-05
7.78911e-05
2.68476e-05
7.53793e-05
8.80377e-06
7.20898e-05
-8.26122e-06
6.8205e-05
-2.42604e-05
6.39096e-05
-3.90812e-05
5.92096e-05
-5.2764e-05
5.47022e-05
-6.5268e-05
4.99729e-05
-7.66786e-05
4.55967e-05
-8.70641e-05
4.14768e-05
-9.64581e-05
3.74801e-05
-0.000104878
3.35793e-05
-0.000112335
2.9781e-05
-0.000118893
2.62174e-05
-0.000124577
2.28178e-05
-0.000129425
1.93516e-05
-0.000133498
1.6271e-05
-0.000136776
1.3129e-05
-0.000139389
1.03882e-05
-0.000141321
7.61998e-06
-0.000142539
4.86653e-06
-0.000143095
2.27774e-06
-0.000143037
-1.91579e-07