/*--------------------------------*- C++ -*----------------------------------*\
| =========                 |                                                 |
| \\      /  F ield         | OpenFOAM: The Open Source CFD Toolbox           |
|  \\    /   O peration     | Version:  3.0.1                                 |
|   \\  /    A nd           | Web:      www.OpenFOAM.org                      |
|    \\/     M anipulation  |                                                 |
\*---------------------------------------------------------------------------*/
FoamFile
{
    version     2.0;
    format      ascii;
    class       volVectorField;
    location    "30.4";
    object      U;
}
// * * * * * * * * * * * * * * * * * * * * * * * * * * * * * * * * * * * * * //

dimensions      [0 1 -1 0 0 0 0];

internalField   nonuniform List<vector> 
21420
(
(0.139187 0.00176484 0)
(0.122808 0.00180551 0)
(0.104266 0.00185643 0)
(0.0854586 0.00188332 0)
(0.0666359 0.0018531 0)
(0.0480097 0.00183699 0)
(0.0297552 0.0017722 0)
(0.012012 0.00172316 0)
(-0.00500731 0.00166062 0)
(-0.0212214 0.00156465 0)
(-0.0366011 0.00148258 0)
(-0.0510485 0.00139312 0)
(-0.0645203 0.00128597 0)
(-0.0769936 0.0011908 0)
(-0.0884596 0.00108484 0)
(-0.0989233 0.000989577 0)
(-0.108399 0.000894609 0)
(-0.116909 0.000796803 0)
(-0.124481 0.000706933 0)
(-0.131147 0.000619393 0)
(-0.136941 0.000532924 0)
(-0.141896 0.00045191 0)
(-0.146047 0.000373575 0)
(-0.149423 0.000297393 0)
(-0.152056 0.000224126 0)
(-0.153978 0.000152641 0)
(-0.15518 8.5579e-05 0)
(-0.155701 1.94217e-05 0)
(-0.155543 -4.99742e-05 0)
(-0.154708 -0.000118051 0)
(-0.153191 -0.000185974 0)
(-0.150984 -0.000255628 0)
(-0.148075 -0.000325763 0)
(-0.144444 -0.000399417 0)
(-0.140077 -0.000473593 0)
(-0.134941 -0.000550372 0)
(-0.129009 -0.000633828 0)
(-0.122258 -0.000714587 0)
(-0.114646 -0.000797718 0)
(-0.106138 -0.000892601 0)
(-0.0967173 -0.00098149 0)
(-0.0863162 -0.00108344 0)
(-0.0749395 -0.00117448 0)
(-0.0625631 -0.00126118 0)
(-0.0492095 -0.00137428 0)
(-0.0347405 -0.00145685 0)
(-0.0194606 -0.00153995 0)
(-0.00367728 -0.00163694 0)
(0.0129955 -0.00170374 0)
(0.0304347 -0.00175317 0)
(0.0484679 -0.00182117 0)
(0.0669704 -0.00184519 0)
(0.0857408 -0.00187493 0)
(0.104604 -0.00186611 0)
(0.123328 -0.00182928 0)
(0.14165 -0.00178623 0)
(0.159358 -0.00171243 0)
(0.176206 -0.00160711 0)
(0.191929 -0.00148816 0)
(0.206271 -0.00134011 0)
(0.219023 -0.00117606 0)
(0.230006 -0.000993856 0)
(0.239023 -0.000781754 0)
(0.245889 -0.000564921 0)
(0.250434 -0.000337026 0)
(0.252593 -9.21102e-05 0)
(0.252415 0.000135724 0)
(0.249671 0.000393173 0)
(0.244538 0.000630595 0)
(0.237228 0.00085742 0)
(0.227467 0.00108931 0)
(0.215724 0.00128539 0)
(0.202146 0.00146875 0)
(0.186617 0.00163954 0)
(0.16984 0.00176769 0)
(0.151947 0.00187568 0)
(0.132919 0.00194905 0)
(0.113552 0.00200081 0)
(0.0937211 0.00202024 0)
(0.0739911 0.00200609 0)
(0.054525 0.00197056 0)
(0.0355147 0.00190627 0)
(0.0174598 0.00182102 0)
(-0.000748335 0.00172216 0)
(-0.0181016 0.00161138 0)
(-0.0336815 0.00148963 0)
(-0.0479835 0.00137657 0)
(-0.0609755 0.00125536 0)
(-0.0727646 0.00113802 0)
(-0.083422 0.00103589 0)
(-0.0930237 0.000931746 0)
(-0.101602 0.000834468 0)
(-0.109227 0.000739312 0)
(-0.115952 0.000652291 0)
(-0.121813 0.000567207 0)
(-0.126886 0.000480273 0)
(-0.131211 0.000403098 0)
(-0.134825 0.000326708 0)
(-0.137774 0.000255307 0)
(-0.140039 0.00019236 0)
(-0.141589 0.000120821 0)
(-0.142457 5.86634e-05 0)
(-0.142814 -5.98874e-06 0)
(-0.142448 -5.6936e-05 0)
(-0.141474 -0.00012121 0)
(-0.139987 -0.000180176 0)
(-0.137918 -0.00023656 0)
(-0.135225 -0.000294504 0)
(-0.131898 -0.000352459 0)
(-0.128011 -0.000417072 0)
(-0.123439 -0.000485943 0)
(-0.118201 -0.000549846 0)
(-0.112278 -0.000621908 0)
(-0.105604 -0.000704227 0)
(-0.0981434 -0.000775789 0)
(-0.0898675 -0.000857221 0)
(-0.0808304 -0.00094515 0)
(-0.0709285 -0.00101946 0)
(-0.0601441 -0.00110572 0)
(-0.0485655 -0.00119134 0)
(-0.0361696 -0.00127706 0)
(-0.0229094 -0.00134669 0)
(-0.00881924 -0.00143181 0)
(0.00598212 -0.0015011 0)
(0.0214937 -0.00157172 0)
(0.0376315 -0.00162321 0)
(0.0542528 -0.00167267 0)
(0.0712998 -0.001705 0)
(0.0885637 -0.00172148 0)
(0.105874 -0.00171803 0)
(0.123092 -0.00168987 0)
(0.139945 -0.00164843 0)
(0.156238 -0.00157935 0)
(0.171681 -0.00148207 0)
(0.186015 -0.00135654 0)
(0.198963 -0.00121266 0)
(0.210319 -0.00102737 0)
(0.219728 -0.0008398 0)
(0.227046 -0.000616517 0)
(0.232118 -0.00038185 0)
(0.234747 -0.000140365 0)
(0.234925 0.000104944 0)
(0.232551 0.000359464 0)
(0.227599 0.000608356 0)
(0.220302 0.000841995 0)
(0.210719 0.00105882 0)
(0.199034 0.00125029 0)
(0.185503 0.00143558 0)
(0.170302 0.00157603 0)
(0.153731 0.0017058 0)
(0.136078 0.00179207 0)
(0.117634 0.00186102 0)
(0.0986314 0.00189476 0)
(0.0794705 0.00190157 0)
(0.0603909 0.00188615 0)
(0.0415783 0.00184335 0)
(0.0232994 0.00178394 0)
(0.00570808 0.00171579 0)
(-0.0110917 0.00162776 0)
(-0.0269948 0.00153249 0)
(-0.0419326 0.00143424 0)
(-0.0558614 0.0013261 0)
(-0.0687132 0.00122603 0)
(-0.0805513 0.0011258 0)
(-0.0913711 0.0010255 0)
(-0.101228 0.000926407 0)
(-0.110114 0.000831342 0)
(-0.11805 0.000751685 0)
(-0.12515 0.000659031 0)
(-0.131383 0.000581128 0)
(-0.136799 0.000503085 0)
(-0.141521 0.000434948 0)
(-0.145602 0.000371487 0)
(-0.149057 0.000303021 0)
(-0.151788 0.000245082 0)
(-0.153881 0.000176468 0)
(-0.155367 0.000110249 0)
(-0.156213 6.38313e-05 0)
(-0.156507 -2.38395e-06 0)
(-0.156226 -4.91271e-05 0)
(-0.15542 -0.000107603 0)
(-0.154044 -0.000163156 0)
(-0.152089 -0.000224182 0)
(-0.149527 -0.000277695 0)
(-0.146358 -0.000354612 0)
(-0.142513 -0.000403476 0)
(-0.137995 -0.000488764 0)
(-0.13275 -0.000550157 0)
(-0.126771 -0.000635879 0)
(-0.120006 -0.000707292 0)
(-0.112439 -0.000794213 0)
(-0.103994 -0.000877786 0)
(-0.0946215 -0.000979091 0)
(-0.0843106 -0.00106235 0)
(-0.0729898 -0.00116735 0)
(-0.0607697 -0.0012622 0)
(-0.0475596 -0.00135481 0)
(-0.0334395 -0.00144638 0)
(-0.0184327 -0.00153134 0)
(-0.00256021 -0.00160388 0)
(0.0140197 -0.0016725 0)
(0.0311871 -0.0017267 0)
(0.0487872 -0.00176568 0)
(0.0666975 -0.00178776 0)
(0.0846889 -0.00178078 0)
(0.102538 -0.00176249 0)
(0.120046 -0.00170717 0)
(0.136918 -0.0016371 0)
(0.152937 -0.00153629 0)
(0.167826 -0.00141015 0)
(0.181318 -0.00125857 0)
(0.193134 -0.00108561 0)
(0.203089 -0.000881419 0)
(0.210939 -0.000667397 0)
(0.216511 -0.000436437 0)
(0.219693 -0.000194716 0)
(0.220439 4.13696e-05 0)
(0.218766 0.000288825 0)
(0.214514 0.00053289 0)
(0.208026 0.000758496 0)
(0.199284 0.000977428 0)
(0.188467 0.00116466 0)
(0.175794 0.00133676 0)
(0.161541 0.001488 0)
(0.146001 0.00159961 0)
(0.129379 0.00169331 0)
(0.111979 0.00175357 0)
(0.0940445 0.00179818 0)
(0.0758134 0.00182043 0)
(0.0575081 0.00181269 0)
(0.0393159 0.00179844 0)
(0.0214236 0.00174974 0)
(0.00400944 0.00170567 0)
(-0.0128049 0.00163178 0)
(-0.0289138 0.00155904 0)
(-0.0441853 0.00147296 0)
(-0.0585504 0.00137971 0)
(-0.071962 0.00127844 0)
(-0.0843949 0.00118448 0)
(-0.0958129 0.00108879 0)
(-0.106239 0.000985684 0)
(-0.115728 0.000899896 0)
(-0.124369 0.000811123 0)
(-0.132159 0.00072676 0)
(-0.139067 0.00065057 0)
(-0.145201 0.000570286 0)
(-0.150565 0.000490886 0)
(-0.155157 0.000423248 0)
(-0.159053 0.000350341 0)
(-0.16221 0.000275315 0)
(-0.164602 0.000202945 0)
(-0.166301 0.000135838 0)
(-0.167353 7.01122e-05 0)
(-0.167723 6.83362e-06 0)
(-0.167319 -7.01939e-05 0)
(-0.166331 -0.000134813 0)
(-0.164591 -0.000202962 0)
(-0.162208 -0.000261226 0)
(-0.159213 -0.000333433 0)
(-0.155544 -0.000390546 0)
(-0.151254 -0.00046069 0)
(-0.146279 -0.000522152 0)
(-0.140673 -0.000597224 0)
(-0.134288 -0.000657484 0)
(-0.127214 -0.000739321 0)
(-0.119433 -0.000823068 0)
(-0.110704 -0.000892289 0)
(-0.101247 -0.00098202 0)
(-0.0909914 -0.00108558 0)
(-0.0797317 -0.00115977 0)
(-0.0675987 -0.00127106 0)
(-0.0545053 -0.00135383 0)
(-0.0405943 -0.00146226 0)
(-0.0259371 -0.00155718 0)
(-0.0104603 -0.00163141 0)
(0.00735775 -0.00172375 0)
(0.0269062 -0.00179549 0)
(0.0465169 -0.0018624 0)
(0.0666859 -0.00189858 0)
(0.0872867 -0.00192317 0)
(0.108036 -0.00190941 0)
(0.128511 -0.00186893 0)
(0.148511 -0.00179945 0)
(0.167494 -0.00168207 0)
(0.184973 -0.00153401 0)
(0.200732 -0.00135719 0)
(0.214227 -0.00113576 0)
(0.225174 -0.000908447 0)
(0.233353 -0.000650826 0)
(0.238515 -0.000390344 0)
(0.240735 -0.000101635 0)
(0.240372 0.000197456 0)
(0.237415 0.00044922 0)
(0.231991 0.000675507 0)
(0.224148 0.000903537 0)
(0.21418 0.00109312 0)
(0.202401 0.0012747 0)
(0.188895 0.00143751 0)
(0.174014 0.00155079 0)
(0.157986 0.00165723 0)
(0.141117 0.00171516 0)
(0.123651 0.00176888 0)
(0.105729 0.00180091 0)
(0.0876964 0.00179384 0)
(0.0696473 0.00178151 0)
(0.0517542 0.00175861 0)
(0.0341283 0.00170438 0)
(0.0169341 0.00165605 0)
(0.00134571 0.00158142 0)
(-0.0132305 0.00151765 0)
(-0.0277609 0.00144512 0)
(-0.0416378 0.00135818 0)
(-0.0547759 0.0012781 0)
(-0.0671286 0.00119555 0)
(-0.0786595 0.00110708 0)
(-0.0893659 0.00102582 0)
(-0.0992558 0.000941133 0)
(-0.108342 0.000863196 0)
(-0.116644 0.000786231 0)
(-0.124171 0.000708068 0)
(-0.130939 0.000633964 0)
(-0.136957 0.000559999 0)
(-0.142228 0.000484849 0)
(-0.146751 0.00041084 0)
(-0.150524 0.000335443 0)
(-0.15354 0.000259502 0)
(-0.155794 0.000181677 0)
(-0.15725 0.000104348 0)
(-0.157927 2.73686e-05 0)
(-0.157792 -5.55786e-05 0)
(-0.156813 -0.000138931 0)
(-0.154997 -0.000222392 0)
(-0.152326 -0.000305813 0)
(-0.148801 -0.000391524 0)
(-0.144419 -0.000475711 0)
(-0.139177 -0.000562284 0)
(-0.133081 -0.000645469 0)
(-0.126132 -0.000727726 0)
(-0.118338 -0.000814286 0)
(-0.109711 -0.000894073 0)
(-0.10026 -0.000971761 0)
(-0.0899986 -0.00105681 0)
(-0.0789452 -0.00113033 0)
(-0.0671213 -0.00121309 0)
(-0.0545545 -0.00128048 0)
(-0.0412816 -0.00134289 0)
(-0.0273337 -0.00141685 0)
(-0.0127854 -0.00146787 0)
(0.00230113 -0.00151154 0)
(0.0178656 -0.00156733 0)
(0.0338123 -0.00159215 0)
(0.0500411 -0.00162968 0)
(0.0664345 -0.00163101 0)
(0.0828534 -0.00161765 0)
(0.099157 -0.00161415 0)
(0.115176 -0.00156838 0)
(0.132019 -0.0015047 0)
(0.139217 0.00529555 0)
(0.122829 0.0054175 0)
(0.104277 0.00557022 0)
(0.08546 0.00565084 0)
(0.0666291 0.00556008 0)
(0.0479953 0.00551167 0)
(0.0297348 0.00531716 0)
(0.0119863 0.00516865 0)
(-0.00503765 0.0049836 0)
(-0.0212548 0.00469426 0)
(-0.0366374 0.00444795 0)
(-0.0510867 0.0041795 0)
(-0.064559 0.00385799 0)
(-0.0770329 0.00357242 0)
(-0.0884983 0.00325451 0)
(-0.0989617 0.00296867 0)
(-0.108437 0.00268373 0)
(-0.116945 0.00239029 0)
(-0.124516 0.00212068 0)
(-0.131182 0.00185804 0)
(-0.136974 0.00159864 0)
(-0.141928 0.00135559 0)
(-0.146077 0.00112059 0)
(-0.149452 0.000892064 0)
(-0.152084 0.000672401 0)
(-0.154005 0.000458221 0)
(-0.155208 0.000256004 0)
(-0.155727 5.78084e-05 0)
(-0.15557 -0.000149804 0)
(-0.154736 -0.000354149 0)
(-0.153218 -0.000557866 0)
(-0.151012 -0.0007668 0)
(-0.148104 -0.000977183 0)
(-0.144475 -0.0011981 0)
(-0.140109 -0.00142059 0)
(-0.134974 -0.00165101 0)
(-0.129044 -0.0019013 0)
(-0.122295 -0.00214359 0)
(-0.114684 -0.00239296 0)
(-0.106178 -0.0026778 0)
(-0.0967587 -0.00294401 0)
(-0.0863593 -0.00325016 0)
(-0.0749835 -0.00352344 0)
(-0.0626081 -0.00378342 0)
(-0.0492551 -0.00412305 0)
(-0.0347858 -0.00437045 0)
(-0.0195045 -0.0046204 0)
(-0.00371835 -0.00491053 0)
(0.0129571 -0.00511145 0)
(0.0304 -0.00526031 0)
(0.0484389 -0.00546461 0)
(0.0669487 -0.00553573 0)
(0.0857258 -0.00562627 0)
(0.104598 -0.00560008 0)
(0.123335 -0.00548717 0)
(0.141663 -0.00536171 0)
(0.159384 -0.00513942 0)
(0.176249 -0.00481836 0)
(0.191974 -0.00447337 0)
(0.206338 -0.0040186 0)
(0.219099 -0.00352944 0)
(0.230096 -0.00297911 0)
(0.239121 -0.00234767 0)
(0.245998 -0.00169415 0)
(0.250551 -0.00101288 0)
(0.252717 -0.000278744 0)
(0.25254 0.000404806 0)
(0.249791 0.00117914 0)
(0.244666 0.00189235 0)
(0.237354 0.00257283 0)
(0.22759 0.00326879 0)
(0.215838 0.00385849 0)
(0.202253 0.0044057 0)
(0.186716 0.00492333 0)
(0.169925 0.00530371 0)
(0.152021 0.00562894 0)
(0.132982 0.00585021 0)
(0.113606 0.00600232 0)
(0.0937645 0.00606472 0)
(0.0740252 0.00601768 0)
(0.054551 0.00591317 0)
(0.035529 0.00572009 0)
(0.0174599 0.00546463 0)
(-0.000760403 0.00516859 0)
(-0.018121 0.0048362 0)
(-0.0337102 0.00447381 0)
(-0.0480218 0.00412426 0)
(-0.0610146 0.0037589 0)
(-0.0728066 0.00342558 0)
(-0.0834754 0.00310399 0)
(-0.0930903 0.00279726 0)
(-0.101674 0.00250106 0)
(-0.109307 0.00222001 0)
(-0.116031 0.00195464 0)
(-0.121888 0.00170318 0)
(-0.126961 0.00143437 0)
(-0.131288 0.00121017 0)
(-0.134903 0.000979016 0)
(-0.137847 0.00077131 0)
(-0.140128 0.000561524 0)
(-0.141666 0.000359555 0)
(-0.142537 0.000171894 0)
(-0.142882 -6.20531e-06 0)
(-0.142526 -0.000189659 0)
(-0.141527 -0.00035268 0)
(-0.140046 -0.000538641 0)
(-0.137967 -0.000713795 0)
(-0.13527 -0.000873845 0)
(-0.131974 -0.00107768 0)
(-0.128065 -0.00125608 0)
(-0.123498 -0.00145008 0)
(-0.118275 -0.00166975 0)
(-0.112327 -0.00186375 0)
(-0.105651 -0.00210541 0)
(-0.0981944 -0.00233023 0)
(-0.0899186 -0.00257207 0)
(-0.0808804 -0.00283634 0)
(-0.0709743 -0.0030468 0)
(-0.0602126 -0.00333189 0)
(-0.0486161 -0.00357985 0)
(-0.0362183 -0.00383226 0)
(-0.0229544 -0.00404243 0)
(-0.00885898 -0.00429407 0)
(0.00594675 -0.00450181 0)
(0.0214677 -0.00470666 0)
(0.0375937 -0.00488145 0)
(0.0542338 -0.0050247 0)
(0.0712872 -0.00511516 0)
(0.0885566 -0.00515745 0)
(0.105882 -0.00515033 0)
(0.123096 -0.00508191 0)
(0.139971 -0.00495216 0)
(0.156273 -0.00473205 0)
(0.171724 -0.00445037 0)
(0.186069 -0.00407494 0)
(0.199035 -0.00362755 0)
(0.210371 -0.0031076 0)
(0.219822 -0.0025082 0)
(0.227143 -0.00184698 0)
(0.232215 -0.00114022 0)
(0.234845 -0.000424367 0)
(0.235021 0.00030849 0)
(0.232638 0.00108349 0)
(0.227684 0.00182067 0)
(0.220372 0.00252091 0)
(0.210775 0.00317317 0)
(0.199082 0.00375499 0)
(0.185536 0.00429905 0)
(0.170336 0.00474127 0)
(0.153745 0.00511177 0)
(0.136089 0.00539635 0)
(0.117612 0.00558708 0)
(0.098595 0.00568161 0)
(0.0794299 0.00571187 0)
(0.0603318 0.00565632 0)
(0.0415141 0.00553306 0)
(0.0232205 0.00535153 0)
(0.00561571 0.00514361 0)
(-0.0111946 0.00488019 0)
(-0.0270994 0.0045936 0)
(-0.0420343 0.0043042 0)
(-0.0559553 0.00398495 0)
(-0.0688132 0.00367533 0)
(-0.0806537 0.00337224 0)
(-0.0914774 0.00306694 0)
(-0.101323 0.00278294 0)
(-0.110204 0.00249337 0)
(-0.118138 0.00224779 0)
(-0.125236 0.00197698 0)
(-0.131478 0.00173817 0)
(-0.136887 0.00150449 0)
(-0.1416 0.0013083 0)
(-0.145684 0.00110643 0)
(-0.149125 0.000916018 0)
(-0.151871 0.000729991 0)
(-0.153965 0.000523088 0)
(-0.155438 0.000332196 0)
(-0.156284 0.000201812 0)
(-0.156574 -5.0881e-06 0)
(-0.156296 -0.00015415 0)
(-0.155484 -0.000329989 0)
(-0.154099 -0.000488685 0)
(-0.152157 -0.000682523 0)
(-0.149588 -0.000842816 0)
(-0.146413 -0.00105832 0)
(-0.14258 -0.00121664 0)
(-0.138046 -0.00146299 0)
(-0.132802 -0.00165095 0)
(-0.126821 -0.00190608 0)
(-0.12006 -0.00211272 0)
(-0.112507 -0.00239543 0)
(-0.104056 -0.00263636 0)
(-0.0946821 -0.00293963 0)
(-0.0843664 -0.00319099 0)
(-0.073041 -0.00350143 0)
(-0.060821 -0.00377701 0)
(-0.04761 -0.00407166 0)
(-0.0334841 -0.00433396 0)
(-0.0184783 -0.00459732 0)
(-0.00260451 -0.00482611 0)
(0.0139789 -0.00502277 0)
(0.031144 -0.00519184 0)
(0.0487768 -0.00529391 0)
(0.0666886 -0.00535327 0)
(0.0846856 -0.00535089 0)
(0.102559 -0.00527561 0)
(0.120061 -0.00512855 0)
(0.136955 -0.00491473 0)
(0.152984 -0.00460758 0)
(0.167879 -0.00423728 0)
(0.181376 -0.00378164 0)
(0.193214 -0.00325548 0)
(0.203171 -0.00265377 0)
(0.211031 -0.00200765 0)
(0.216605 -0.00130414 0)
(0.219784 -0.00058871 0)
(0.220538 0.000131064 0)
(0.21885 0.000863048 0)
(0.214603 0.001611 0)
(0.208103 0.00227184 0)
(0.19935 0.0029281 0)
(0.18852 0.0034905 0)
(0.175836 0.00401423 0)
(0.161567 0.00446772 0)
(0.146011 0.00479947 0)
(0.129379 0.00507974 0)
(0.111973 0.00527009 0)
(0.0940142 0.00539347 0)
(0.0757674 0.00545372 0)
(0.0574512 0.00543868 0)
(0.0392554 0.00539499 0)
(0.0213588 0.00526028 0)
(0.00391876 0.00511088 0)
(-0.0128948 0.00489959 0)
(-0.0290028 0.00468556 0)
(-0.0442811 0.00441323 0)
(-0.0586436 0.00414019 0)
(-0.0720584 0.00383874 0)
(-0.0845043 0.00354687 0)
(-0.0959147 0.00326419 0)
(-0.106335 0.00296424 0)
(-0.11583 0.00268687 0)
(-0.124459 0.00243547 0)
(-0.132247 0.00218121 0)
(-0.139162 0.00195156 0)
(-0.145295 0.00170751 0)
(-0.150647 0.0014715 0)
(-0.155239 0.00127219 0)
(-0.159134 0.0010472 0)
(-0.162289 0.000826683 0)
(-0.164678 0.000607964 0)
(-0.166383 0.000407745 0)
(-0.167435 0.000204504 0)
(-0.167801 2.25931e-05 0)
(-0.167405 -0.000222924 0)
(-0.166397 -0.000399145 0)
(-0.164657 -0.00061153 0)
(-0.162278 -0.00079611 0)
(-0.159272 -0.000990305 0)
(-0.155604 -0.00117508 0)
(-0.15131 -0.00137672 0)
(-0.146341 -0.00157614 0)
(-0.140732 -0.00179903 0)
(-0.134341 -0.00197478 0)
(-0.127268 -0.0022137 0)
(-0.11948 -0.00246859 0)
(-0.110751 -0.00267309 0)
(-0.101297 -0.0029468 0)
(-0.0910362 -0.00325858 0)
(-0.0797695 -0.00347725 0)
(-0.0676442 -0.00381499 0)
(-0.0545486 -0.00407154 0)
(-0.0406321 -0.00438952 0)
(-0.0259628 -0.00466339 0)
(-0.0104922 -0.00489118 0)
(0.0073191 -0.005167 0)
(0.0268683 -0.00538589 0)
(0.0464813 -0.00558758 0)
(0.0666557 -0.00569231 0)
(0.0872593 -0.00577076 0)
(0.108017 -0.00572748 0)
(0.128499 -0.0056158 0)
(0.148521 -0.00539866 0)
(0.167522 -0.00504206 0)
(0.185005 -0.00460525 0)
(0.200788 -0.00407403 0)
(0.214297 -0.00340872 0)
(0.225254 -0.00272216 0)
(0.233445 -0.00194722 0)
(0.238622 -0.00115842 0)
(0.240853 -0.000295182 0)
(0.24048 0.000593852 0)
(0.237504 0.00134577 0)
(0.232088 0.00202449 0)
(0.224244 0.00271074 0)
(0.21427 0.00327776 0)
(0.202483 0.00383072 0)
(0.188966 0.00429006 0)
(0.174075 0.00464824 0)
(0.158036 0.00497183 0)
(0.141155 0.0051467 0)
(0.123679 0.00530765 0)
(0.105748 0.00540389 0)
(0.0877057 0.0053825 0)
(0.0696487 0.00534536 0)
(0.0517491 0.00527681 0)
(0.0341176 0.00511356 0)
(0.016918 0.0049689 0)
(0.00132618 0.00474457 0)
(-0.0132529 0.00455334 0)
(-0.0277866 0.00433577 0)
(-0.0416653 0.00407482 0)
(-0.054805 0.00383452 0)
(-0.0671586 0.00358683 0)
(-0.0786895 0.00332133 0)
(-0.0893959 0.00307751 0)
(-0.0992853 0.00282347 0)
(-0.108372 0.00258967 0)
(-0.116673 0.00235878 0)
(-0.1242 0.0021242 0)
(-0.130968 0.00190189 0)
(-0.136986 0.00168008 0)
(-0.142256 0.00145471 0)
(-0.14678 0.00123268 0)
(-0.150554 0.00100625 0)
(-0.153569 0.000778739 0)
(-0.155823 0.000545688 0)
(-0.157284 0.000312117 0)
(-0.157959 8.22298e-05 0)
(-0.157825 -0.000166505 0)
(-0.156846 -0.000416723 0)
(-0.15503 -0.000667017 0)
(-0.152359 -0.000917431 0)
(-0.148835 -0.00117453 0)
(-0.144453 -0.00142712 0)
(-0.139211 -0.00168687 0)
(-0.133115 -0.00193643 0)
(-0.126165 -0.00218319 0)
(-0.118372 -0.00244288 0)
(-0.109744 -0.00268225 0)
(-0.100292 -0.00291533 0)
(-0.0900303 -0.00317049 0)
(-0.0789759 -0.00339108 0)
(-0.0671513 -0.00363939 0)
(-0.054583 -0.00384158 0)
(-0.0413081 -0.00402885 0)
(-0.0273585 -0.00425079 0)
(-0.0128076 -0.00440394 0)
(0.00228215 -0.00453483 0)
(0.01785 -0.00470236 0)
(0.0338007 -0.00477688 0)
(0.050034 -0.00488954 0)
(0.0664327 -0.00489359 0)
(0.0828574 -0.00485357 0)
(0.0991678 -0.00484313 0)
(0.115194 -0.00470586 0)
(0.132044 -0.00451487 0)
(0.139276 0.00882936 0)
(0.122868 0.00903239 0)
(0.104297 0.00928683 0)
(0.0854618 0.00942102 0)
(0.0666144 0.00926937 0)
(0.0479654 0.00918841 0)
(0.0296929 0.00886379 0)
(0.011934 0.00861314 0)
(-0.00509923 0.00831016 0)
(-0.0213231 0.00782473 0)
(-0.0367112 0.00741391 0)
(-0.0511644 0.00696624 0)
(-0.0646375 0.0064302 0)
(-0.0771127 0.00595406 0)
(-0.0885769 0.00542406 0)
(-0.0990397 0.00494754 0)
(-0.108514 0.00447255 0)
(-0.117019 0.00398341 0)
(-0.124588 0.00353402 0)
(-0.131251 0.00309624 0)
(-0.13704 0.00266397 0)
(-0.141992 0.00225889 0)
(-0.146138 0.00186725 0)
(-0.149511 0.00148647 0)
(-0.152141 0.00112063 0)
(-0.154058 0.000763767 0)
(-0.155265 0.000425443 0)
(-0.155782 9.56905e-05 0)
(-0.155624 -0.000249756 0)
(-0.15479 -0.000590276 0)
(-0.153273 -0.000929644 0)
(-0.151068 -0.0012778 0)
(-0.148161 -0.00162839 0)
(-0.144534 -0.00199647 0)
(-0.14017 -0.00236717 0)
(-0.135037 -0.0027515 0)
(-0.12911 -0.00316842 0)
(-0.122362 -0.00357226 0)
(-0.114753 -0.00398786 0)
(-0.106251 -0.00446301 0)
(-0.0968327 -0.00490585 0)
(-0.0864353 -0.00541663 0)
(-0.0750597 -0.00587261 0)
(-0.0626844 -0.00630554 0)
(-0.0493309 -0.00687247 0)
(-0.0348593 -0.00728399 0)
(-0.0195733 -0.00770256 0)
(-0.00377984 -0.008184 0)
(0.0129019 -0.00852096 0)
(0.0303547 -0.00876857 0)
(0.0484058 -0.00910971 0)
(0.0669287 -0.00922932 0)
(0.0857219 -0.00937991 0)
(0.104611 -0.00933567 0)
(0.123365 -0.00915019 0)
(0.141713 -0.00893885 0)
(0.159453 -0.00856799 0)
(0.176335 -0.00803745 0)
(0.192082 -0.00745446 0)
(0.206459 -0.00670689 0)
(0.219242 -0.00588075 0)
(0.230247 -0.00497847 0)
(0.239294 -0.00390885 0)
(0.246171 -0.00283368 0)
(0.250744 -0.00168856 0)
(0.252918 -0.000463286 0)
(0.252725 0.000673986 0)
(0.24997 0.00196733 0)
(0.244853 0.00315423 0)
(0.237538 0.00428942 0)
(0.227766 0.00544961 0)
(0.215998 0.00643374 0)
(0.202402 0.00734702 0)
(0.186848 0.00820589 0)
(0.170041 0.00884474 0)
(0.152118 0.00938486 0)
(0.133062 0.00975237 0)
(0.113669 0.0100084 0)
(0.0938126 0.0101093 0)
(0.0740584 0.0100331 0)
(0.0545703 0.00985803 0)
(0.0355325 0.00953626 0)
(0.0174504 0.00911298 0)
(-0.000785036 0.0086161 0)
(-0.0181517 0.00806172 0)
(-0.0337511 0.0074561 0)
(-0.0480685 0.00687902 0)
(-0.0610751 0.00626952 0)
(-0.0728755 0.0057038 0)
(-0.0835455 0.00518059 0)
(-0.0931731 0.004665 0)
(-0.101766 0.00417494 0)
(-0.109411 0.00370063 0)
(-0.116142 0.0032574 0)
(-0.122001 0.00284041 0)
(-0.127071 0.00240299 0)
(-0.131399 0.00201451 0)
(-0.135009 0.00162767 0)
(-0.137956 0.00128936 0)
(-0.140245 0.000936743 0)
(-0.141789 0.000604661 0)
(-0.142666 0.00028888 0)
(-0.143009 -2.56492e-05 0)
(-0.142629 -0.000303885 0)
(-0.141641 -0.000596224 0)
(-0.140158 -0.000909169 0)
(-0.138063 -0.00118321 0)
(-0.135385 -0.00146095 0)
(-0.13208 -0.0017839 0)
(-0.128179 -0.00208985 0)
(-0.123618 -0.00242519 0)
(-0.118389 -0.00276637 0)
(-0.112449 -0.00310973 0)
(-0.105777 -0.00351342 0)
(-0.0983186 -0.00388746 0)
(-0.0900452 -0.00428425 0)
(-0.0810089 -0.00472322 0)
(-0.0711127 -0.00509558 0)
(-0.0603444 -0.00554119 0)
(-0.0487448 -0.00596466 0)
(-0.036345 -0.00639662 0)
(-0.0230763 -0.00672996 0)
(-0.00898205 -0.00715976 0)
(0.0058304 -0.00751238 0)
(0.0213556 -0.00785708 0)
(0.037505 -0.00812815 0)
(0.054158 -0.00836581 0)
(0.0712111 -0.00853255 0)
(0.0884957 -0.00860732 0)
(0.105839 -0.00858985 0)
(0.123077 -0.00846337 0)
(0.139968 -0.0082518 0)
(0.156285 -0.00790445 0)
(0.171767 -0.00740725 0)
(0.186121 -0.00680683 0)
(0.199114 -0.00605173 0)
(0.210477 -0.00516231 0)
(0.219935 -0.00419909 0)
(0.227282 -0.00307342 0)
(0.23235 -0.00191242 0)
(0.234994 -0.000705205 0)
(0.235164 0.000513668 0)
(0.23277 0.00181072 0)
(0.227825 0.00304079 0)
(0.220503 0.0042078 0)
(0.210885 0.00529469 0)
(0.199179 0.0062636 0)
(0.185614 0.00717107 0)
(0.170389 0.00789825 0)
(0.153778 0.00852936 0)
(0.136089 0.0089887 0)
(0.117596 0.00931189 0)
(0.0985533 0.00948786 0)
(0.0793646 0.00951061 0)
(0.0602552 0.00943416 0)
(0.041419 0.0092278 0)
(0.0231134 0.00892355 0)
(0.00549424 0.00857593 0)
(-0.0113298 0.00813375 0)
(-0.0272352 0.00765744 0)
(-0.0421795 0.00716688 0)
(-0.0560921 0.00663838 0)
(-0.0689395 0.00612732 0)
(-0.080776 0.0056216 0)
(-0.0916023 0.0051197 0)
(-0.101451 0.00462824 0)
(-0.110318 0.00416214 0)
(-0.118252 0.00373462 0)
(-0.125352 0.00330549 0)
(-0.131604 0.00289818 0)
(-0.137006 0.00250266 0)
(-0.141704 0.00217972 0)
(-0.145785 0.00184335 0)
(-0.149225 0.00152138 0)
(-0.151976 0.00122778 0)
(-0.154083 0.000872027 0)
(-0.15555 0.000549082 0)
(-0.156403 0.000326049 0)
(-0.156687 -3.77663e-06 0)
(-0.156404 -0.000260493 0)
(-0.155585 -0.00054186 0)
(-0.154211 -0.000818193 0)
(-0.15226 -0.00113002 0)
(-0.149696 -0.00139979 0)
(-0.146529 -0.00176945 0)
(-0.142695 -0.00202902 0)
(-0.13817 -0.00243672 0)
(-0.132924 -0.00275539 0)
(-0.126951 -0.00317483 0)
(-0.120193 -0.00353476 0)
(-0.112638 -0.00398699 0)
(-0.104194 -0.00439569 0)
(-0.094816 -0.00489297 0)
(-0.0845006 -0.00531403 0)
(-0.0731924 -0.00584688 0)
(-0.0609585 -0.00629979 0)
(-0.047741 -0.00678138 0)
(-0.0336157 -0.00723677 0)
(-0.0185958 -0.00765791 0)
(-0.00270857 -0.00803329 0)
(0.0138749 -0.00837513 0)
(0.0310578 -0.00864927 0)
(0.0486979 -0.00882835 0)
(0.0666186 -0.00894132 0)
(0.0846419 -0.00891053 0)
(0.102533 -0.00881095 0)
(0.120064 -0.00854439 0)
(0.136978 -0.00819472 0)
(0.153022 -0.00768423 0)
(0.167941 -0.00706394 0)
(0.181455 -0.00630573 0)
(0.193318 -0.00543119 0)
(0.203301 -0.00441808 0)
(0.211173 -0.00334248 0)
(0.216747 -0.00218584 0)
(0.219934 -0.000978836 0)
(0.220685 0.000214932 0)
(0.218965 0.00144789 0)
(0.214726 0.00267217 0)
(0.208229 0.00379877 0)
(0.199465 0.00488313 0)
(0.188624 0.00583215 0)
(0.175918 0.00669161 0)
(0.161615 0.00744506 0)
(0.146034 0.00800133 0)
(0.129391 0.0084705 0)
(0.111967 0.00878567 0)
(0.0939898 0.00900134 0)
(0.0757154 0.00908929 0)
(0.0573889 0.00906369 0)
(0.0391786 0.0090001 0)
(0.0212679 0.00876453 0)
(0.00380867 0.0085286 0)
(-0.0130315 0.00815647 0)
(-0.02913 0.00780193 0)
(-0.0444003 0.00736751 0)
(-0.0587683 0.00689817 0)
(-0.0721755 0.00640105 0)
(-0.0846223 0.00592432 0)
(-0.0960513 0.00542646 0)
(-0.106461 0.0049388 0)
(-0.11594 0.00448861 0)
(-0.12457 0.00405091 0)
(-0.132354 0.00364325 0)
(-0.139285 0.00325056 0)
(-0.145422 0.00283891 0)
(-0.150756 0.00244948 0)
(-0.155342 0.00212264 0)
(-0.159245 0.00174886 0)
(-0.16241 0.00137648 0)
(-0.164798 0.00101725 0)
(-0.166506 0.000672529 0)
(-0.167553 0.000343799 0)
(-0.167925 3.57222e-05 0)
(-0.167521 -0.000367051 0)
(-0.166513 -0.000674716 0)
(-0.164768 -0.00101356 0)
(-0.162389 -0.00132121 0)
(-0.159388 -0.00165995 0)
(-0.155716 -0.00196055 0)
(-0.151427 -0.00229865 0)
(-0.146455 -0.0026226 0)
(-0.140843 -0.0029952 0)
(-0.134454 -0.00329061 0)
(-0.127385 -0.00369982 0)
(-0.119587 -0.00411621 0)
(-0.110859 -0.00445862 0)
(-0.101401 -0.00491116 0)
(-0.0911246 -0.0054302 0)
(-0.0798493 -0.00580277 0)
(-0.0677112 -0.00635488 0)
(-0.0546098 -0.00678122 0)
(-0.0406978 -0.00731348 0)
(-0.026019 -0.00777803 0)
(-0.0105424 -0.00816064 0)
(0.00727096 -0.00861316 0)
(0.0268193 -0.00897752 0)
(0.0464369 -0.00931044 0)
(0.0666119 -0.00949149 0)
(0.087228 -0.00961877 0)
(0.108001 -0.00954604 0)
(0.128495 -0.0093568 0)
(0.148533 -0.00900832 0)
(0.167566 -0.00840902 0)
(0.18507 -0.00766926 0)
(0.200873 -0.00679262 0)
(0.21441 -0.00568679 0)
(0.225389 -0.0045382 0)
(0.233598 -0.00323547 0)
(0.238789 -0.00192786 0)
(0.241049 -0.000493509 0)
(0.240635 0.000980308 0)
(0.237637 0.00223051 0)
(0.232235 0.0033687 0)
(0.224388 0.00451866 0)
(0.214405 0.00546798 0)
(0.202595 0.00637534 0)
(0.189062 0.00720924 0)
(0.17416 0.00776178 0)
(0.158097 0.00829105 0)
(0.141197 0.00858137 0)
(0.123703 0.00884844 0)
(0.105755 0.00900969 0)
(0.087697 0.00897322 0)
(0.069627 0.00891112 0)
(0.051717 0.00879719 0)
(0.0340768 0.00852325 0)
(0.0168686 0.00828305 0)
(0.00127174 0.00790834 0)
(-0.0133113 0.00758968 0)
(-0.02785 0.00722695 0)
(-0.041731 0.0067918 0)
(-0.0548725 0.00639112 0)
(-0.0672265 0.00597813 0)
(-0.0787562 0.0055355 0)
(-0.0894618 0.00512907 0)
(-0.0993493 0.00470565 0)
(-0.108434 0.00431598 0)
(-0.116734 0.00393123 0)
(-0.12426 0.00354028 0)
(-0.131027 0.00316979 0)
(-0.137045 0.00280018 0)
(-0.142315 0.0024246 0)
(-0.146839 0.00205476 0)
(-0.150613 0.00167733 0)
(-0.153629 0.00129812 0)
(-0.155883 0.00091009 0)
(-0.157349 0.00052092 0)
(-0.158025 0.000135948 0)
(-0.15789 -0.000277481 0)
(-0.156913 -0.00069444 0)
(-0.155097 -0.00111116 0)
(-0.152426 -0.00152914 0)
(-0.148903 -0.00195754 0)
(-0.14452 -0.00237856 0)
(-0.139279 -0.00281152 0)
(-0.133182 -0.00322745 0)
(-0.126231 -0.00363875 0)
(-0.118438 -0.00407159 0)
(-0.109808 -0.00447057 0)
(-0.100355 -0.00485909 0)
(-0.0900928 -0.0052844 0)
(-0.0790362 -0.00565212 0)
(-0.0672102 -0.00606604 0)
(-0.0546387 -0.00640313 0)
(-0.04136 -0.00671535 0)
(-0.0274069 -0.00708546 0)
(-0.012851 -0.00734088 0)
(0.00224516 -0.00755898 0)
(0.0178196 -0.00783852 0)
(0.0337785 -0.00796288 0)
(0.0500207 -0.0081509 0)
(0.06643 -0.00815783 0)
(0.0828663 -0.0080913 0)
(0.0991901 -0.00807417 0)
(0.11523 -0.00784552 0)
(0.132096 -0.00752731 0)
(0.139364 0.0123684 0)
(0.122927 0.0126521 0)
(0.104327 0.0130081 0)
(0.0854645 0.0131956 0)
(0.0665923 0.0129825 0)
(0.0479204 0.0128686 0)
(0.0296294 0.0124133 0)
(0.0118559 0.0120583 0)
(-0.00519135 0.0116404 0)
(-0.0214259 0.0109565 0)
(-0.036822 0.0103809 0)
(-0.051281 0.00975362 0)
(-0.0647553 0.00900272 0)
(-0.0772324 0.00833574 0)
(-0.0886949 0.00759342 0)
(-0.0991568 0.00692603 0)
(-0.108629 0.00626086 0)
(-0.11713 0.00557594 0)
(-0.124696 0.0049467 0)
(-0.131355 0.00433374 0)
(-0.137139 0.00372866 0)
(-0.142087 0.00316156 0)
(-0.14623 0.00261337 0)
(-0.149599 0.00208057 0)
(-0.152225 0.00156894 0)
(-0.154138 0.00107061 0)
(-0.155346 0.000595612 0)
(-0.155867 0.000128644 0)
(-0.155705 -0.000350923 0)
(-0.154871 -0.000826416 0)
(-0.153354 -0.00130121 0)
(-0.151151 -0.00178848 0)
(-0.148246 -0.00227921 0)
(-0.144622 -0.00279431 0)
(-0.140261 -0.00331295 0)
(-0.135131 -0.00385183 0)
(-0.129208 -0.0044349 0)
(-0.122463 -0.00500031 0)
(-0.114857 -0.00558216 0)
(-0.10636 -0.006248 0)
(-0.0969435 -0.0068669 0)
(-0.0865495 -0.00758257 0)
(-0.075174 -0.00822207 0)
(-0.0627992 -0.00882738 0)
(-0.0494448 -0.00962274 0)
(-0.03497 -0.0101974 0)
(-0.019677 -0.0107874 0)
(-0.00387209 -0.0114582 0)
(0.012819 -0.0119328 0)
(0.0302865 -0.0122796 0)
(0.0483555 -0.0127592 0)
(0.0668985 -0.012926 0)
(0.0857165 -0.0131376 0)
(0.10463 -0.013078 0)
(0.12341 -0.0128168 0)
(0.141788 -0.0125213 0)
(0.159554 -0.0120059 0)
(0.176466 -0.0112577 0)
(0.192243 -0.0104469 0)
(0.206646 -0.00939565 0)
(0.219452 -0.00824416 0)
(0.230478 -0.00697381 0)
(0.239548 -0.00548344 0)
(0.24644 -0.00397136 0)
(0.251023 -0.00237835 0)
(0.253213 -0.000655412 0)
(0.252991 0.000969991 0)
(0.250245 0.00275789 0)
(0.245135 0.00441774 0)
(0.23781 0.00600863 0)
(0.228028 0.00763091 0)
(0.216236 0.00901289 0)
(0.202622 0.0102915 0)