/*--------------------------------*- C++ -*----------------------------------*\
| =========                 |                                                 |
| \\      /  F ield         | OpenFOAM: The Open Source CFD Toolbox           |
|  \\    /   O peration     | Version:  3.0.1                                 |
|   \\  /    A nd           | Web:      www.OpenFOAM.org                      |
|    \\/     M anipulation  |                                                 |
\*---------------------------------------------------------------------------*/
FoamFile
{
    version     2.0;
    format      ascii;
    class       volVectorField;
    location    "94.8";
    object      U;
}
// * * * * * * * * * * * * * * * * * * * * * * * * * * * * * * * * * * * * * //

dimensions      [0 1 -1 0 0 0 0];

internalField   nonuniform List<vector> 
21420
(
(0.315102 -0.00156756 0)
(0.329395 -0.00161476 0)
(0.345736 -0.00163046 0)
(0.362253 -0.00162995 0)
(0.378762 -0.00163585 0)
(0.395096 -0.00160069 0)
(0.411058 -0.00156697 0)
(0.426435 -0.00149028 0)
(0.440993 -0.00139005 0)
(0.454492 -0.00128372 0)
(0.466701 -0.00113885 0)
(0.477383 -0.000973165 0)
(0.486321 -0.000794602 0)
(0.493324 -0.000592728 0)
(0.498247 -0.000378106 0)
(0.500961 -0.000149496 0)
(0.501322 6.61955e-05 0)
(0.499576 0.00029311 0)
(0.495312 0.000527038 0)
(0.48892 0.000746085 0)
(0.480434 0.000938368 0)
(0.470016 0.00112514 0)
(0.45785 0.00129814 0)
(0.44415 0.00142434 0)
(0.429142 0.00155207 0)
(0.413053 0.00163067 0)
(0.396122 0.00171201 0)
(0.378548 0.00177796 0)
(0.360521 0.00179484 0)
(0.342252 0.00181832 0)
(0.323912 0.00182817 0)
(0.305648 0.00179693 0)
(0.287626 0.00177312 0)
(0.269992 0.00171626 0)
(0.252885 0.00166359 0)
(0.236427 0.00159919 0)
(0.220725 0.00151118 0)
(0.205888 0.00142428 0)
(0.191999 0.00132912 0)
(0.179124 0.00122201 0)
(0.167311 0.00111667 0)
(0.156583 0.00100671 0)
(0.14694 0.000901033 0)
(0.138357 0.00079825 0)
(0.130792 0.000699581 0)
(0.124182 0.000608884 0)
(0.118452 0.000525951 0)
(0.113518 0.000451175 0)
(0.109293 0.000385115 0)
(0.105695 0.00032691 0)
(0.102649 0.000275112 0)
(0.100096 0.000228637 0)
(0.0979881 0.000185554 0)
(0.0962974 0.00014426 0)
(0.0950117 0.000104707 0)
(0.0941287 6.47272e-05 0)
(0.0936539 2.09097e-05 0)
(0.093575 -2.42239e-05 0)
(0.0938946 -7.25381e-05 0)
(0.0947208 -0.000117306 0)
(0.0960301 -0.000162997 0)
(0.0978641 -0.000212836 0)
(0.100224 -0.000261045 0)
(0.103098 -0.000312076 0)
(0.106547 -0.000367022 0)
(0.110551 -0.000411969 0)
(0.115013 -0.000458679 0)
(0.119966 -0.000500065 0)
(0.125258 -0.000527308 0)
(0.13081 -0.000553536 0)
(0.136547 -0.000559914 0)
(0.142301 -0.000565352 0)
(0.147865 -0.000545615 0)
(0.153192 -0.000538926 0)
(0.158294 -0.000519338 0)
(0.163229 -0.000527249 0)
(0.168435 -0.000539176 0)
(0.173752 -0.000555371 0)
(0.179645 -0.00063505 0)
(0.186647 -0.000692445 0)
(0.194288 -0.000753406 0)
(0.202939 -0.000844723 0)
(0.212649 -0.00092388 0)
(0.223357 -0.00101646 0)
(0.235193 -0.00111064 0)
(0.248113 -0.00119869 0)
(0.261972 -0.00127491 0)
(0.276542 -0.00132447 0)
(0.291512 -0.0013405 0)
(0.306539 -0.00133895 0)
(0.321299 -0.00129784 0)
(0.335444 -0.00123729 0)
(0.348665 -0.00113535 0)
(0.360581 -0.00102803 0)
(0.371001 -0.000883939 0)
(0.379691 -0.000735143 0)
(0.38658 -0.000564753 0)
(0.391661 -0.000394352 0)
(0.394872 -0.000212904 0)
(0.396074 -2.53292e-05 0)
(0.395392 0.000166558 0)
(0.392577 0.000357179 0)
(0.388011 0.000538501 0)
(0.381698 0.000716886 0)
(0.373618 0.000877128 0)
(0.364075 0.00102391 0)
(0.35305 0.00115822 0)
(0.340699 0.00127119 0)
(0.327383 0.0013765 0)
(0.313171 0.00143744 0)
(0.298376 0.00148168 0)
(0.283334 0.00150652 0)
(0.26815 0.00150634 0)
(0.252988 0.00149258 0)
(0.238072 0.00146414 0)
(0.223542 0.0014252 0)
(0.20943 0.00136821 0)
(0.195913 0.0013106 0)
(0.183077 0.00124232 0)
(0.170896 0.00117264 0)
(0.159437 0.0010968 0)
(0.148803 0.00101819 0)
(0.138893 0.000948912 0)
(0.129696 0.000873276 0)
(0.121253 0.000806905 0)
(0.113433 0.000744275 0)
(0.106277 0.000681152 0)
(0.0997169 0.00062456 0)
(0.0936393 0.000578369 0)
(0.0880878 0.000523138 0)
(0.0830204 0.000490147 0)
(0.078296 0.000447102 0)
(0.0740078 0.0004131 0)
(0.0700508 0.000382619 0)
(0.066329 0.00034595 0)
(0.0629872 0.0003207 0)
(0.0599001 0.000297712 0)
(0.0569653 0.00026559 0)
(0.0544093 0.000245992 0)
(0.0520937 0.000225282 0)
(0.0499208 0.000189279 0)
(0.0481773 0.000164086 0)
(0.0467051 0.000131873 0)
(0.04549 9.5968e-05 0)
(0.0446832 6.39359e-05 0)
(0.0442166 3.29517e-05 0)
(0.0440002 2.95749e-08 0)
(0.0441466 -3.25696e-05 0)
(0.0446856 -7.03263e-05 0)
(0.0455907 -0.000102978 0)
(0.0469084 -0.000149628 0)
(0.0486436 -0.000185863 0)
(0.050803 -0.0002515 0)
(0.0536217 -0.00031071 0)
(0.0571312 -0.000366128 0)
(0.0612643 -0.000439694 0)
(0.0660998 -0.000520133 0)
(0.0717545 -0.000603573 0)
(0.0782841 -0.000685408 0)
(0.0856515 -0.000770893 0)
(0.0938947 -0.000860206 0)
(0.103041 -0.000952382 0)
(0.113075 -0.00103614 0)
(0.123964 -0.00112137 0)
(0.135718 -0.00121443 0)
(0.148351 -0.00129027 0)
(0.161771 -0.00137323 0)
(0.176007 -0.00144415 0)
(0.190922 -0.00151264 0)
(0.206465 -0.00157399 0)
(0.222578 -0.00161995 0)
(0.239069 -0.0016581 0)
(0.25585 -0.00167324 0)
(0.272746 -0.00167605 0)
(0.289575 -0.00166626 0)
(0.3062 -0.0016199 0)
(0.322288 -0.00156777 0)
(0.337678 -0.00148047 0)
(0.35209 -0.00137432 0)
(0.365246 -0.00123466 0)
(0.376927 -0.0010767 0)
(0.386896 -0.000893314 0)
(0.394914 -0.000696519 0)
(0.400892 -0.000485477 0)
(0.404695 -0.000250846 0)
(0.406102 -3.4823e-05 0)
(0.405314 0.00019784 0)
(0.40198 0.000445269 0)
(0.3963 0.000674129 0)
(0.388436 0.000886937 0)
(0.378513 0.00108776 0)
(0.366626 0.00126403 0)
(0.353095 0.00142543 0)
(0.3381 0.00154952 0)
(0.321913 0.00165206 0)
(0.304846 0.00172376 0)
(0.28722 0.00177551 0)
(0.269237 0.00179569 0)
(0.25117 0.00178634 0)
(0.233275 0.00176714 0)
(0.215652 0.00172202 0)
(0.198551 0.00167164 0)
(0.181992 0.00161138 0)
(0.16613 0.00153431 0)
(0.151031 0.00146113 0)
(0.136708 0.00137195 0)
(0.123351 0.00127689 0)
(0.11089 0.00119199 0)
(0.0993421 0.00109353 0)
(0.0888411 0.000992161 0)
(0.0792828 0.000892947 0)
(0.0707115 0.000800536 0)
(0.0631045 0.000704937 0)
(0.0564496 0.000617073 0)
(0.0507222 0.000517422 0)
(0.0459267 0.000430378 0)
(0.0419685 0.00035368 0)
(0.0387816 0.000280085 0)
(0.0363753 0.000206671 0)
(0.0346786 0.000135173 0)
(0.0336316 7.10224e-05 0)
(0.0332071 1.12426e-05 0)
(0.0333678 -4.32813e-05 0)
(0.0340794 -9.24054e-05 0)
(0.0352167 -0.000133382 0)
(0.0368075 -0.000182012 0)
(0.0388371 -0.000208468 0)
(0.0411525 -0.000253975 0)
(0.0438884 -0.000290937 0)
(0.0470267 -0.000325381 0)
(0.0505423 -0.000375552 0)
(0.0545435 -0.00041354 0)
(0.0589533 -0.000452728 0)
(0.0637977 -0.000500206 0)
(0.0690806 -0.000535891 0)
(0.0747092 -0.000583344 0)
(0.0807772 -0.000623246 0)
(0.0872341 -0.00065691 0)
(0.0940598 -0.000708092 0)
(0.101406 -0.000746911 0)
(0.109203 -0.000803463 0)
(0.117577 -0.000855767 0)
(0.126488 -0.000913532 0)
(0.135923 -0.000967978 0)
(0.145951 -0.0010178 0)
(0.15653 -0.00107217 0)
(0.167612 -0.00112812 0)
(0.179239 -0.00118341 0)
(0.191425 -0.00123155 0)
(0.204124 -0.00127735 0)
(0.217283 -0.0013397 0)
(0.231041 -0.001384 0)
(0.245247 -0.0014308 0)
(0.259818 -0.0014669 0)
(0.274724 -0.00147794 0)
(0.289759 -0.00150386 0)
(0.304842 -0.00148731 0)
(0.319797 -0.00146441 0)
(0.334434 -0.00144155 0)
(0.34865 -0.00138076 0)
(0.362164 -0.00131528 0)
(0.374806 -0.00122158 0)
(0.386311 -0.00111095 0)
(0.396533 -0.000979711 0)
(0.405352 -0.000820742 0)
(0.412483 -0.000634554 0)
(0.417713 -0.00043201 0)
(0.420905 -0.000213081 0)
(0.421951 1.72062e-05 0)
(0.420814 0.000256017 0)
(0.417622 0.000502068 0)
(0.413255 0.000747417 0)
(0.406242 0.000947397 0)
(0.396652 0.00110978 0)
(0.38529 0.00125397 0)
(0.372654 0.00136163 0)
(0.359091 0.00143293 0)
(0.344867 0.00146346 0)
(0.330569 0.00146257 0)
(0.316449 0.0014368 0)
(0.302889 0.00139983 0)
(0.29011 0.00134477 0)
(0.277811 0.00128537 0)
(0.266089 0.00121837 0)
(0.255037 0.00115633 0)
(0.244377 0.00110966 0)
(0.234078 0.00106989 0)
(0.224025 0.00104169 0)
(0.214072 0.00101987 0)
(0.20428 0.000996307 0)
(0.194623 0.000971461 0)
(0.185144 0.000942524 0)
(0.17597 0.00089883 0)
(0.16719 0.000851781 0)
(0.158886 0.000795459 0)
(0.151154 0.000731872 0)
(0.144065 0.000664141 0)
(0.137644 0.000596589 0)
(0.131912 0.000527965 0)
(0.126861 0.000462908 0)
(0.122456 0.000400578 0)
(0.118663 0.000343518 0)
(0.115429 0.000292549 0)
(0.112699 0.000245819 0)
(0.110424 0.000203365 0)
(0.108552 0.000165984 0)
(0.107034 0.000133341 0)
(0.105826 0.000104801 0)
(0.104888 7.86888e-05 0)
(0.104183 5.55522e-05 0)
(0.103679 3.49396e-05 0)
(0.103354 1.69056e-05 0)
(0.103211 6.10001e-07 0)
(0.103273 -1.63281e-05 0)
(0.103541 -3.59495e-05 0)
(0.104012 -5.76281e-05 0)
(0.104716 -8.25057e-05 0)
(0.105684 -0.000111441 0)
(0.106977 -0.000145957 0)
(0.10866 -0.000187986 0)
(0.11079 -0.000237017 0)
(0.113458 -0.000293115 0)
(0.11675 -0.000359419 0)
(0.120743 -0.000432166 0)
(0.125521 -0.00051524 0)
(0.131148 -0.000602942 0)
(0.137692 -0.000694773 0)
(0.145214 -0.00079714 0)
(0.153743 -0.000896439 0)
(0.163294 -0.000993649 0)
(0.173868 -0.00110155 0)
(0.185446 -0.00119517 0)
(0.197978 -0.00127968 0)
(0.211404 -0.00137609 0)
(0.225645 -0.00144463 0)
(0.240603 -0.00152425 0)
(0.256171 -0.00157086 0)
(0.272208 -0.00159994 0)
(0.288571 -0.00164165 0)
(0.305118 -0.0016429 0)
(0.321675 -0.00162461 0)
(0.338067 -0.00161628 0)
(0.35412 -0.00156423 0)
(0.369648 -0.00151725 0)
(0.384467 -0.00142952 0)
(0.398382 -0.00132349 0)
(0.411208 -0.00121694 0)
(0.422778 -0.00107925 0)
(0.432931 -0.000928397 0)
(0.441524 -0.000771901 0)
(0.44844 -0.000599111 0)
(0.453586 -0.000421282 0)
(0.456892 -0.000236566 0)
(0.458336 -4.46936e-05 0)
(0.457946 0.000133947 0)
(0.455736 0.000313567 0)
(0.450979 0.000483446 0)
(0.315086 -0.00470309 0)
(0.329382 -0.00484479 0)
(0.345729 -0.00489194 0)
(0.362252 -0.00489051 0)
(0.378768 -0.00490835 0)
(0.39511 -0.00480293 0)
(0.41108 -0.00470194 0)
(0.426467 -0.00447182 0)
(0.441033 -0.00417113 0)
(0.454543 -0.00385208 0)
(0.46676 -0.00341743 0)
(0.477451 -0.00292037 0)
(0.486397 -0.00238463 0)
(0.493407 -0.00177875 0)
(0.498332 -0.00113597 0)
(0.501045 -0.000456262 0)
(0.501433 0.000207051 0)
(0.499657 0.000882599 0)
(0.495399 0.00158122 0)
(0.489004 0.00223871 0)
(0.480511 0.00281574 0)
(0.470086 0.00337615 0)
(0.457913 0.00389528 0)
(0.444202 0.0042739 0)
(0.429187 0.00465709 0)
(0.413089 0.00489285 0)
(0.396149 0.00513682 0)
(0.378568 0.00533467 0)
(0.360533 0.00538526 0)
(0.342258 0.00545564 0)
(0.323911 0.00548517 0)
(0.305641 0.00539139 0)
(0.287614 0.00531995 0)
(0.269974 0.00514931 0)
(0.252863 0.00499132 0)
(0.2364 0.00479815 0)
(0.220693 0.00453405 0)
(0.205853 0.00427317 0)
(0.191961 0.00398765 0)
(0.179084 0.00366612 0)
(0.16727 0.00334995 0)
(0.156542 0.00302007 0)
(0.1469 0.00270302 0)
(0.138319 0.00239455 0)
(0.130756 0.00209857 0)
(0.124149 0.0018263 0)
(0.118422 0.00157743 0)
(0.113491 0.0013533 0)
(0.109269 0.00115512 0)
(0.105674 0.000980453 0)
(0.10263 0.000825213 0)
(0.100078 0.000685941 0)
(0.0979714 0.000556727 0)
(0.0962809 0.000432775 0)
(0.0949951 0.000313722 0)
(0.0941111 0.00019379 0)
(0.0936333 6.2729e-05 0)
(0.0935517 -7.22311e-05 0)
(0.0938744 -0.000217368 0)
(0.0947004 -0.000350273 0)
(0.0960052 -0.000489317 0)
(0.0978395 -0.000637482 0)
(0.100195 -0.000783628 0)
(0.103067 -0.000935957 0)
(0.106517 -0.00109898 0)
(0.110517 -0.00123765 0)
(0.11498 -0.00137656 0)
(0.119932 -0.00150064 0)
(0.125233 -0.00157942 0)
(0.130782 -0.00165887 0)
(0.13653 -0.00169031 0)
(0.1423 -0.00168847 0)
(0.147856 -0.00164529 0)
(0.153213 -0.0016162 0)
(0.158323 -0.0015581 0)
(0.163255 -0.00158615 0)
(0.168475 -0.00162253 0)
(0.173817 -0.00166974 0)
(0.17971 -0.00190313 0)
(0.186749 -0.00207012 0)
(0.194388 -0.0022772 0)
(0.203065 -0.00252395 0)
(0.21279 -0.00276812 0)
(0.223536 -0.00304668 0)
(0.235384 -0.00332976 0)
(0.248325 -0.00361046 0)
(0.262214 -0.00383014 0)
(0.276795 -0.00397822 0)
(0.291771 -0.00403551 0)
(0.306823 -0.00400357 0)
(0.321593 -0.0039006 0)
(0.33577 -0.00369654 0)
(0.348974 -0.00343228 0)
(0.360921 -0.0030775 0)
(0.371329 -0.00266288 0)
(0.380042 -0.00219183 0)
(0.386927 -0.00170371 0)
(0.392014 -0.00118244 0)
(0.395225 -0.000639154 0)
(0.396431 -8.11656e-05 0)
(0.395735 0.00049822 0)
(0.392922 0.00107662 0)
(0.388371 0.00162136 0)
(0.382038 0.00213664 0)
(0.373962 0.00261179 0)
(0.364416 0.00307473 0)
(0.353389 0.00348176 0)
(0.341025 0.00382183 0)
(0.327672 0.00410985 0)
(0.313476 0.00431846 0)
(0.298674 0.00444403 0)
(0.283609 0.00451475 0)
(0.268431 0.00452654 0)
(0.253242 0.00447839 0)
(0.238317 0.00439152 0)
(0.223788 0.00427186 0)
(0.209675 0.00410966 0)
(0.196148 0.00392664 0)
(0.183313 0.0037303 0)
(0.171126 0.00351912 0)
(0.159669 0.00328511 0)
(0.149041 0.00306592 0)
(0.139112 0.00284391 0)
(0.129919 0.00262014 0)
(0.121486 0.0024258 0)
(0.113665 0.0022241 0)
(0.106508 0.00204464 0)
(0.0999493 0.00188764 0)
(0.09387 0.00172883 0)
(0.0883305 0.001584 0)
(0.0832574 0.00146528 0)
(0.0785218 0.00132755 0)
(0.0742393 0.00123205 0)
(0.0702887 0.00114482 0)
(0.0665637 0.00103963 0)
(0.0632232 0.00096842 0)
(0.060128 0.000897998 0)
(0.0571869 0.000796117 0)
(0.0546397 0.000739105 0)
(0.0523168 0.000664878 0)
(0.0501523 0.000556464 0)
(0.048416 0.00049889 0)
(0.0469283 0.000381154 0)
(0.0457 0.000282677 0)
(0.0449022 0.000203348 0)
(0.0444397 0.000111939 0)
(0.0442204 9.75446e-07 0)
(0.044373 -9.82452e-05 0)
(0.0449147 -0.000199274 0)
(0.045803 -0.000321034 0)
(0.047126 -0.000427237 0)
(0.0488409 -0.000577915 0)
(0.0510172 -0.000744757 0)
(0.0538369 -0.000921526 0)
(0.0573345 -0.00110945 0)
(0.0614628 -0.00132651 0)
(0.0662968 -0.00155973 0)
(0.0719559 -0.00180656 0)
(0.0784823 -0.00204823 0)
(0.0858468 -0.00232357 0)
(0.0940958 -0.00257742 0)
(0.10324 -0.00284969 0)
(0.11328 -0.00310339 0)
(0.124155 -0.00337378 0)
(0.135923 -0.00362788 0)
(0.148537 -0.0038817 0)
(0.161959 -0.00412627 0)
(0.176209 -0.00434404 0)
(0.191129 -0.0045488 0)
(0.206685 -0.00472391 0)
(0.222801 -0.0048616 0)
(0.239291 -0.00496783 0)
(0.256085 -0.00501973 0)
(0.272974 -0.00504412 0)
(0.289825 -0.00499408 0)
(0.306445 -0.00488682 0)
(0.322557 -0.00470752 0)
(0.337968 -0.00445124 0)
(0.352415 -0.00410453 0)
(0.36556 -0.00371382 0)
(0.377267 -0.00322349 0)
(0.387242 -0.0026822 0)
(0.395264 -0.00209104 0)
(0.401255 -0.0014511 0)
(0.405053 -0.000776236 0)
(0.40648 -9.90557e-05 0)
(0.40568 0.000593897 0)
(0.402335 0.00134122 0)
(0.396653 0.0020169 0)
(0.388791 0.00266194 0)
(0.37885 0.00326096 0)
(0.366961 0.00379295 0)
(0.353415 0.00426297 0)
(0.33841 0.00466405 0)
(0.322205 0.00496468 0)
(0.305122 0.00518433 0)
(0.28745 0.00531384 0)
(0.269455 0.0053832 0)
(0.25137 0.00536585 0)
(0.233439 0.00529745 0)
(0.215807 0.00517641 0)
(0.198678 0.00501821 0)
(0.182099 0.00483243 0)
(0.1662 0.00460623 0)
(0.151097 0.00438432 0)
(0.136748 0.00411299 0)
(0.123365 0.0038495 0)
(0.110878 0.00356896 0)
(0.0993179 0.0032791 0)
(0.0887868 0.00298393 0)
(0.0792156 0.00269554 0)
(0.07062 0.0024057 0)
(0.0630157 0.00211969 0)
(0.0563188 0.00183283 0)
(0.0505931 0.00157189 0)
(0.0457779 0.0013014 0)
(0.0417988 0.00106289 0)
(0.0385908 0.000830469 0)
(0.0361661 0.000607685 0)
(0.0344631 0.000415114 0)
(0.0334013 0.000217081 0)
(0.0329711 4.57757e-05 0)
(0.0331017 -0.000125918 0)
(0.0338129 -0.000267013 0)
(0.0349412 -0.000409347 0)
(0.0365232 -0.000540842 0)
(0.0385435 -0.000631719 0)
(0.0408543 -0.000758093 0)
(0.0435751 -0.000867306 0)
(0.0467032 -0.000986126 0)
(0.0502206 -0.00112082 0)
(0.0542066 -0.00124707 0)
(0.0586222 -0.00137435 0)
(0.0634694 -0.0015079 0)
(0.0687418 -0.00162054 0)
(0.0743762 -0.0017392 0)
(0.0804594 -0.00184564 0)
(0.0868906 -0.00197853 0)
(0.0937432 -0.00210071 0)
(0.101077 -0.0022592 0)
(0.108878 -0.00241479 0)
(0.117268 -0.00256277 0)
(0.126205 -0.00273587 0)
(0.135632 -0.00290667 0)
(0.145674 -0.00306159 0)
(0.156245 -0.00323496 0)
(0.167371 -0.00336409 0)
(0.178995 -0.00354637 0)
(0.191189 -0.00369908 0)
(0.203894 -0.00384447 0)
(0.217087 -0.00401389 0)
(0.230854 -0.00415087 0)
(0.245065 -0.0042826 0)
(0.25966 -0.00438313 0)
(0.274573 -0.0044502 0)
(0.289635 -0.00449273 0)
(0.30472 -0.00446772 0)
(0.319681 -0.00441208 0)
(0.334345 -0.00430833 0)
(0.348557 -0.0041499 0)
(0.362101 -0.00392589 0)
(0.374732 -0.00368159 0)
(0.38627 -0.00332656 0)
(0.396508 -0.00293479 0)
(0.40534 -0.00245708 0)
(0.412485 -0.00190915 0)
(0.417723 -0.00129427 0)
(0.42091 -0.00064559 0)
(0.421986 5.66369e-05 0)
(0.420827 0.000761248 0)
(0.417651 0.00150886 0)
(0.413287 0.00224176 0)
(0.406267 0.00284215 0)
(0.396668 0.00333698 0)
(0.3853 0.00376871 0)
(0.372651 0.00408076 0)
(0.359077 0.00429188 0)
(0.344849 0.00439096 0)
(0.330539 0.00438609 0)
(0.316413 0.0043144 0)
(0.302841 0.004202 0)
(0.290053 0.00403717 0)
(0.277743 0.00385669 0)
(0.266013 0.0036563 0)
(0.254956 0.00346898 0)
(0.244293 0.00332959 0)
(0.233991 0.00321001 0)
(0.223941 0.0031256 0)
(0.213988 0.00306033 0)
(0.204198 0.00298586 0)
(0.194544 0.00291622 0)
(0.18507 0.00282414 0)
(0.1759 0.00269831 0)
(0.167125 0.00255321 0)
(0.158827 0.00238681 0)
(0.1511 0.00219282 0)
(0.144016 0.00199331 0)
(0.137601 0.00178783 0)
(0.131873 0.00158159 0)
(0.126827 0.00138677 0)
(0.122426 0.00120123 0)
(0.118638 0.00103092 0)
(0.115406 0.000876656 0)
(0.112679 0.000736875 0)
(0.110407 0.000611226 0)
(0.108537 0.000499429 0)
(0.107021 0.000399917 0)
(0.105814 0.000313006 0)
(0.104877 0.000235262 0)
(0.104173 0.000166743 0)
(0.10367 0.000105543 0)
(0.103347 5.15532e-05 0)
(0.103204 1.16006e-06 0)
(0.103265 -4.92561e-05 0)
(0.103532 -0.000107923 0)
(0.104002 -0.000172582 0)
(0.104705 -0.00024689 0)
(0.105671 -0.00033406 0)
(0.106961 -0.000437353 0)
(0.108641 -0.000563195 0)
(0.110768 -0.000710484 0)
(0.113433 -0.000878885 0)
(0.116721 -0.00107787 0)
(0.120711 -0.00129611 0)
(0.125486 -0.00154532 0)
(0.13111 -0.00180864 0)
(0.137653 -0.00208409 0)
(0.145173 -0.00239125 0)
(0.153702 -0.00268907 0)
(0.163253 -0.00298093 0)
(0.173827 -0.00330477 0)
(0.185407 -0.00358562 0)
(0.197942 -0.00383928 0)
(0.211371 -0.00412858 0)
(0.225615 -0.00433428 0)
(0.240578 -0.00457325 0)
(0.256151 -0.0047131 0)
(0.272194 -0.0048004 0)
(0.288563 -0.0049256 0)
(0.305116 -0.00492935 0)
(0.32168 -0.00487453 0)
(0.338079 -0.00484959 0)
(0.354139 -0.00469344 0)
(0.369675 -0.00455254 0)
(0.384502 -0.00428931 0)
(0.398424 -0.00397119 0)
(0.411258 -0.00365147 0)
(0.422834 -0.00323835 0)
(0.432992 -0.0027857 0)
(0.44159 -0.00231615 0)
(0.448509 -0.00179772 0)
(0.453659 -0.0012638 0)
(0.456965 -0.000710307 0)
(0.458411 -0.000135678 0)
(0.458022 0.00040197 0)
(0.455802 0.000941119 0)
(0.451044 0.00145048 0)
(0.315055 -0.00783982 0)
(0.329359 -0.00807635 0)
(0.345716 -0.00815519 0)
(0.362251 -0.00815304 0)
(0.378781 -0.0081832 0)
(0.395138 -0.00800769 0)
(0.411127 -0.00783971 0)
(0.426531 -0.00745619 0)
(0.441115 -0.00695503 0)
(0.454646 -0.00642328 0)
(0.46688 -0.00569869 0)
(0.477587 -0.00487001 0)
(0.48655 -0.00397678 0)
(0.493572 -0.00296661 0)
(0.498505 -0.00189403 0)
(0.501223 -0.000764485 0)
(0.501637 0.000347185 0)
(0.49982 0.00147749 0)
(0.495572 0.00263594 0)
(0.48917 0.00373293 0)
(0.480662 0.0046952 0)
(0.470223 0.00562957 0)
(0.458034 0.0064951 0)
(0.444304 0.00712617 0)
(0.429272 0.00776482 0)
(0.413155 0.00815758 0)
(0.396199 0.00856405 0)
(0.378603 0.00889369 0)
(0.360553 0.00897779 0)
(0.342263 0.00909494 0)
(0.323904 0.00914406 0)
(0.305622 0.00898756 0)
(0.287583 0.00886842 0)
(0.269933 0.00858386 0)
(0.252811 0.00832049 0)
(0.236339 0.0079985 0)
(0.220625 0.0075581 0)
(0.205778 0.00712291 0)
(0.19188 0.00664676 0)
(0.179 0.0061105 0)
(0.167184 0.00558321 0)
(0.156457 0.00503314 0)
(0.146816 0.00450443 0)
(0.138238 0.00399005 0)
(0.130681 0.00349663 0)
(0.12408 0.00304262 0)
(0.118359 0.00262764 0)
(0.113435 0.00225427 0)
(0.10922 0.00192408 0)
(0.105631 0.00163309 0)
(0.102592 0.00137458 0)
(0.100043 0.00114274 0)
(0.0979389 0.000927629 0)
(0.0962497 0.000721141 0)
(0.0949646 0.000522169 0)
(0.0940793 0.000321152 0)
(0.0935969 0.000104131 0)
(0.0935142 -0.000119329 0)
(0.0938453 -0.000359763 0)
(0.0946699 -0.00058188 0)
(0.0959731 -0.000814441 0)
(0.0978054 -0.00106273 0)
(0.100162 -0.00130502 0)
(0.103033 -0.00156001 0)
(0.106481 -0.00183254 0)
(0.110486 -0.00206145 0)
(0.114951 -0.00229403 0)
(0.119908 -0.00250254 0)
(0.125216 -0.00263513 0)
(0.130772 -0.00276836 0)
(0.136544 -0.00281464 0)
(0.142321 -0.00282031 0)
(0.147915 -0.00274214 0)
(0.153279 -0.00270065 0)
(0.158419 -0.00259882 0)
(0.163353 -0.00264414 0)
(0.168593 -0.00270881 0)
(0.173949 -0.00278636 0)
(0.179854 -0.00318075 0)
(0.186915 -0.00346369 0)
(0.19459 -0.00379207 0)
(0.203289 -0.0042187 0)
(0.213059 -0.00462169 0)
(0.223845 -0.00508906 0)
(0.235726 -0.00556102 0)
(0.248697 -0.00601697 0)
(0.262612 -0.00638126 0)
(0.277211 -0.00663343 0)
(0.292214 -0.00672994 0)
(0.307284 -0.00669154 0)
(0.322091 -0.00649122 0)
(0.33628 -0.00618265 0)
(0.349505 -0.00570893 0)
(0.361454 -0.00513398 0)
(0.371879 -0.00443362 0)
(0.380589 -0.00366594 0)
(0.387493 -0.00283316 0)
(0.392588 -0.00196344 0)
(0.395795 -0.0010654 0)
(0.39701 -0.00013492 0)
(0.396282 0.000827773 0)
(0.393471 0.00178696 0)
(0.388933 0.00269609 0)
(0.382608 0.00357612 0)
(0.374526 0.00436206 0)
(0.364964 0.00512513 0)
(0.353918 0.0057992 0)
(0.341552 0.00637248 0)
(0.328186 0.00686188 0)
(0.313964 0.00719558 0)
(0.299156 0.00741316 0)
(0.284085 0.00752754 0)
(0.268885 0.00754155 0)
(0.253681 0.00746678 0)
(0.238753 0.00732454 0)
(0.224215 0.00712089 0)
(0.210097 0.00684952 0)
(0.196571 0.00654759 0)
(0.183735 0.00622105 0)
(0.171546 0.00586637 0)
(0.160089 0.00547627 0)
(0.149457 0.00510202 0)
(0.139533 0.00474149 0)
(0.130349 0.00436805 0)
(0.121915 0.00403733 0)
(0.11411 0.00371644 0)
(0.106946 0.00340228 0)
(0.100394 0.00314213 0)
(0.0943143 0.00287723 0)
(0.0887762 0.00263461 0)
(0.0837037 0.00244453 0)
(0.0789753 0.00222088 0)
(0.0746896 0.00205715 0)
(0.0707388 0.00190557 0)
(0.0670092 0.00172686 0)
(0.0636696 0.00160825 0)
(0.0605743 0.00149313 0)
(0.0576301 0.00132235 0)
(0.0550891 0.00123817 0)
(0.0527581 0.00110785 0)
(0.0506 0.000931173 0)
(0.0488502 0.000824703 0)
(0.0473727 0.000651084 0)
(0.0461352 0.000471617 0)
(0.0453255 0.000334086 0)
(0.0448532 0.000173722 0)
(0.0446398 -2.58726e-07 0)
(0.0447942 -0.000167654 0)
(0.0453327 -0.000339017 0)
(0.0462168 -0.000528219 0)
(0.0475252 -0.000723598 0)
(0.0492437 -0.000948368 0)
(0.0514077 -0.00125142 0)
(0.0542305 -0.00153587 0)
(0.0577224 -0.00184032 0)
(0.0618323 -0.0022082 0)
(0.0666576 -0.00260295 0)
(0.0723194 -0.00301389 0)
(0.078842 -0.00342048 0)
(0.0862126 -0.00385928 0)
(0.0944395 -0.00431241 0)
(0.103578 -0.0047488 0)
(0.11361 -0.00518048 0)
(0.124478 -0.00562297 0)
(0.136247 -0.00604747 0)
(0.148867 -0.00645815 0)
(0.16229 -0.00687509 0)
(0.176545 -0.00723347 0)
(0.191468 -0.00758122 0)
(0.207026 -0.00787199 0)
(0.223147 -0.00810756 0)
(0.23964 -0.00828794 0)
(0.256445 -0.0083702 0)
(0.273355 -0.00840595 0)
(0.290219 -0.00832654 0)
(0.306856 -0.00813238 0)
(0.322973 -0.00786235 0)
(0.338414 -0.00741546 0)
(0.352872 -0.00686202 0)
(0.366048 -0.0061895 0)
(0.377776 -0.00537584 0)
(0.387768 -0.00446815 0)
(0.395801 -0.00348974 0)
(0.401802 -0.00241906 0)
(0.405607 -0.00128704 0)
(0.407043 -0.000171116 0)
(0.406214 0.000993057 0)
(0.402871 0.00223249 0)
(0.397208 0.00336752 0)
(0.389342 0.00443766 0)
(0.379384 0.00544101 0)
(0.367479 0.00632888 0)
(0.353909 0.00711316 0)
(0.33887 0.00777073 0)
(0.322637 0.00827876 0)
(0.305524 0.00864833 0)
(0.287819 0.00887164 0)
(0.269791 0.00897999 0)
(0.25167 0.00894961 0)
(0.233702 0.00884008 0)
(0.216035 0.0086332 0)
(0.198872 0.00836492 0)
(0.182268 0.00805765 0)
(0.166332 0.00768475 0)
(0.151196 0.00731789 0)
(0.136815 0.006865 0)
(0.123374 0.0064113 0)
(0.110872 0.0059571 0)
(0.0992831 0.00547094 0)
(0.0887161 0.00497508 0)
(0.0791107 0.00449119 0)
(0.0704896 0.00401648 0)
(0.0628593 0.0035364 0)
(0.0561396 0.00306394 0)
(0.050359 0.00260904 0)
(0.0455146 0.00217506 0)
(0.0415143 0.00177881 0)
(0.0382847 0.00140026 0)
(0.035825 0.0010232 0)
(0.0340851 0.000689494 0)
(0.0329962 0.000364913 0)
(0.0325424 7.44893e-05 0)
(0.0326577 -0.000206412 0)
(0.0333369 -0.000445259 0)
(0.0344511 -0.000676368 0)
(0.0360096 -0.000903602 0)
(0.0380174 -0.00104479 0)
(0.0403008 -0.00127017 0)
(0.0430078 -0.00144274 0)
(0.0461319 -0.00163446 0)
(0.0496262 -0.00187175 0)
(0.0536076 -0.00207362 0)
(0.0580224 -0.00228167 0)
(0.0628695 -0.00250635 0)
(0.0681409 -0.00270328 0)
(0.0737756 -0.00290934 0)
(0.0798602 -0.00308369 0)
(0.0863054 -0.00329744 0)
(0.0931526 -0.00351609 0)
(0.100505 -0.00375791 0)
(0.108318 -0.00403207 0)
(0.11672 -0.0042729 0)
(0.125659 -0.00457468 0)
(0.135115 -0.00484438 0)
(0.145171 -0.00509567 0)
(0.155757 -0.00539299 0)
(0.166876 -0.00563227 0)
(0.178534 -0.00590667 0)
(0.190749 -0.00617332 0)
(0.203468 -0.00640395 0)
(0.216674 -0.00669756 0)
(0.230454 -0.0069268 0)
(0.24468 -0.00714685 0)
(0.259296 -0.00731971 0)
(0.274234 -0.0074117 0)
(0.28931 -0.00750573 0)
(0.304434 -0.00744275 0)
(0.319401 -0.00735794 0)
(0.334083 -0.00719214 0)
(0.348318 -0.00692081 0)
(0.361869 -0.00656217 0)
(0.374532 -0.00612798 0)
(0.38609 -0.00556198 0)
(0.396359 -0.00490145 0)
(0.405224 -0.00410191 0)
(0.412389 -0.00318148 0)
(0.417637 -0.00216693 0)
(0.420848 -0.00108697 0)
(0.421943 9.57765e-05 0)
(0.42076 0.00128134 0)
(0.417635 0.00251691 0)
(0.413272 0.00373859 0)
(0.406244 0.00473919 0)
(0.39664 0.00555921 0)
(0.385268 0.00628013 0)
(0.372608 0.0068081 0)
(0.359028 0.00716018 0)
(0.344797 0.00732043 0)
(0.330482 0.00731414 0)
(0.316345 0.00719095 0)
(0.302758 0.00700585 0)
(0.289951 0.00673083 0)
(0.277629 0.00643122 0)
(0.265886 0.00609566 0)
(0.254822 0.00578287 0)
(0.244155 0.00554983 0)
(0.233848 0.00535001 0)
(0.223798 0.0052086 0)
(0.213843 0.0050995 0)
(0.204055 0.00497703 0)
(0.194405 0.00485741 0)
(0.184935 0.0047072 0)
(0.175771 0.0044937 0)
(0.167004 0.0042545 0)
(0.158714 0.00397536 0)
(0.150996 0.00365426 0)
(0.143921 0.00331897 0)
(0.137515 0.00298083 0)
(0.131798 0.00263577 0)
(0.12676 0.00231083 0)
(0.122368 0.00200128 0)
(0.118586 0.00171735 0)
(0.115362 0.00146047 0)
(0.11264 0.00122721 0)
(0.110373 0.00101801 0)
(0.108507 0.000832881 0)
(0.106994 0.000666432 0)
(0.105791 0.000520631 0)
(0.104858 0.000391576 0)
(0.104156 0.000278002 0)
(0.103655 0.000176737 0)
(0.103333 8.70567e-05 0)
(0.10319 1.99444e-06 0)
(0.10325 -8.24466e-05 0)
(0.103516 -0.000179758 0)
(0.103984 -0.000286882 0)
(0.104684 -0.000410351 0)
(0.105645 -0.0005557 0)
(0.106931 -0.000727427 0)
(0.108605 -0.000936871 0)
(0.110726 -0.00118234 0)
(0.113384 -0.00146337 0)
(0.116666 -0.00179505 0)
(0.12065 -0.00215901 0)
(0.125418 -0.00257442 0)
(0.131038 -0.00301363 0)
(0.137577 -0.00347282 0)
(0.145094 -0.00398496 0)
(0.153621 -0.00448154 0)
(0.163173 -0.00496835 0)
(0.173748 -0.00550841 0)
(0.185331 -0.00597669 0)
(0.197872 -0.0063997 0)
(0.211306 -0.00688214 0)
(0.225559 -0.00722517 0)
(0.24053 -0.00762377 0)
(0.256114 -0.00785694 0)
(0.272168 -0.00800257 0)
(0.288549 -0.00821146 0)
(0.305116 -0.00821777 0)
(0.321692 -0.00812648 0)
(0.338107 -0.00808507 0)
(0.35418 -0.00782483 0)
(0.369733 -0.00759011 0)
(0.384574 -0.00715129 0)
(0.398509 -0.00662095 0)
(0.411358 -0.00608797 0)
(0.422945 -0.0053992 0)
(0.433114 -0.00464449 0)
(0.441722 -0.00386164 0)
(0.448648 -0.00299722 0)
(0.453804 -0.00210669 0)
(0.457112 -0.00118422 0)
(0.458561 -0.000224859 0)
(0.458173 0.000665511 0)
(0.455934 0.00156965 0)
(0.451175 0.00241804 0)
(0.315008 -0.0109786 0)
(0.329323 -0.0113105 0)
(0.345697 -0.0114214 0)
(0.36225 -0.0114189 0)
(0.378801 -0.0114619 0)
(0.395181 -0.0112166 0)
(0.411197 -0.010982 0)
(0.426627 -0.0104453 0)
(0.441239 -0.00974365 0)
(0.454799 -0.00899932 0)
(0.46706 -0.00798444 0)
(0.477791 -0.00682366 0)
(0.48678 -0.00557245 0)
(0.493819 -0.00415725 0)
(0.498766 -0.00265569 0)
(0.501499 -0.0010822 0)
(0.501928 0.000499495 0)
(0.500069 0.00208118 0)
(0.495833 0.00369191 0)
(0.489419 0.00522985 0)
(0.480889 0.00657812 0)
(0.470429 0.00788701 0)
(0.458217 0.00909937 0)
(0.444457 0.00998288 0)
(0.429399 0.010877 0)
(0.413254 0.0114265 0)
(0.396274 0.0119953 0)
(0.378654 0.0124566 0)
(0.360581 0.0125738 0)
(0.342272 0.0127376 0)
(0.323892 0.0128061 0)
(0.305593 0.0125866 0)
(0.287536 0.0124196 0)
(0.269872 0.0120209 0)
(0.252734 0.011652 0)
(0.236248 0.011201 0)
(0.220523 0.010584 0)
(0.205665 0.00997418 0)
(0.191759 0.00930693 0)
(0.178874 0.00855555 0)
(0.167055 0.00781667 0)
(0.156329 0.00704581 0)
(0.146691 0.00630483 0)
(0.138118 0.00558421 0)
(0.130568 0.00489303 0)
(0.123976 0.00425709 0)
(0.118266 0.00367597 0)
(0.113352 0.00315325 0)
(0.109147 0.00269117 0)
(0.105566 0.00228423 0)
(0.102535 0.00192264 0)
(0.0999913 0.00159847 0)
(0.0978902 0.0012978 0)
(0.0962028 0.00100895 0)
(0.0949184 0.000729776 0)
(0.0940314 0.000446512 0)
(0.0935437 0.000143445 0)
(0.0934608 -0.000164414 0)
(0.0938001 -0.000498174 0)
(0.0946225 -0.000810376 0)
(0.0959237 -0.00113958 0)
(0.0977547 -0.00148743 0)
(0.10011 -0.00182759 0)
(0.102981 -0.00218365 0)
(0.106429 -0.00256555 0)
(0.110436 -0.00288782 0)
(0.114907 -0.00321347 0)
(0.119871 -0.00350524 0)
(0.125194 -0.00369083 0)
(0.130759 -0.00387817 0)
(0.136551 -0.00395157 0)
(0.142357 -0.0039515 0)
(0.147992 -0.00384822 0)
(0.153382 -0.00378661 0)
(0.158562 -0.00364473 0)
(0.163495 -0.00370821 0)
(0.168765 -0.00380089 0)
(0.174128 -0.00390853 0)
(0.18005 -0.00445855 0)
(0.187151 -0.0048524 0)
(0.194867 -0.0053247 0)
(0.20362 -0.00591765 0)
(0.213456 -0.00649076 0)
(0.224317 -0.00713772 0)
(0.236253 -0.00779097 0)
(0.249259 -0.0084313 0)
(0.263193 -0.0089419 0)
(0.277818 -0.00930564 0)
(0.292868 -0.00944586 0)
(0.307985 -0.00937639 0)
(0.322827 -0.00910907 0)
(0.33704 -0.00866637 0)
(0.350282 -0.00801074 0)
(0.362241 -0.00718716 0)
(0.372676 -0.00620398 0)
(0.381404 -0.00513011 0)
(0.388322 -0.00396989 0)
(0.393422 -0.00274577 0)
(0.396634 -0.00149087 0)
(0.397853 -0.000178341 0)
(0.397086 0.00117475 0)
(0.394294 0.00249731 0)
(0.389765 0.00377306 0)
(0.383434 0.00498664 0)
(0.375347 0.00609841 0)