/*--------------------------------*- C++ -*----------------------------------*\
| =========                 |                                                 |
| \\      /  F ield         | OpenFOAM: The Open Source CFD Toolbox           |
|  \\    /   O peration     | Version:  3.0.1                                 |
|   \\  /    A nd           | Web:      www.OpenFOAM.org                      |
|    \\/     M anipulation  |                                                 |
\*---------------------------------------------------------------------------*/
FoamFile
{
    version     2.0;
    format      ascii;
    class       volScalarField;
    location    "26";
    object      p_rgh;
}
// * * * * * * * * * * * * * * * * * * * * * * * * * * * * * * * * * * * * * //

dimensions      [1 -1 -2 0 0 0 0];

internalField   nonuniform List<scalar> 
21420
(
-222.958
-241.355
-258.182
-273.397
-286.972
-298.936
-309.313
-318.135
-325.429
-331.222
-335.544
-338.377
-339.696
-339.422
-337.702
-334.472
-329.723
-323.432
-315.557
-306.06
-294.898
-282.026
-267.4
-250.985
-232.756
-212.698
-190.817
-167.122
-141.658
-114.506
-85.7386
-55.4953
-23.9601
8.66173
42.007
75.9609
110.18
144.258
177.796
210.421
241.711
271.273
298.704
323.626
345.717
364.674
380.225
392.167
400.345
404.643
404.943
401.296
393.694
382.268
367.184
348.684
327.01
302.445
275.345
246.07
215.011
182.56
149.123
115.096
80.8801
46.8249
13.4238
-18.9388
-50.5098
-80.9991
-110.152
-137.79
-163.792
-188.055
-210.521
-231.153
-249.924
-266.84
-281.888
-295.101
-306.503
-316.098
-323.939
-330.069
-334.51
-337.292
-338.459
-338.108
-336.263
-332.933
-328.167
-321.995
-314.438
-305.501
-295.188
-283.498
-270.398
-255.855
-239.847
-222.329
-203.271
-182.665
-160.509
-136.82
-111.648
-85.0611
-57.1564
-28.0639
2.06633
33.0402
64.5933
96.4903
128.442
160.132
191.217
221.329
250.086
277.095
301.962
324.293
343.721
359.908
372.551
381.396
386.261
386.943
383.547
375.983
364.353
348.819
329.612
307.022
281.391
253.103
222.579
190.262
156.615
122.101
87.1739
52.2734
17.8082
-15.8436
-48.3696
-79.4961
-109.008
-136.745
-162.599
-186.516
-208.484
-228.523
-246.678
-263.013
-277.606
-290.54
-301.895
-311.752
-320.179
-327.233
-332.964
-337.42
-340.63
-342.596
-343.299
-342.793
-341.044
-338.021
-333.695
-328.035
-320.997
-312.528
-302.574
-291.084
-277.992
-263.238
-246.781
-228.576
-208.608
-186.882
-163.411
-138.257
-111.515
-83.3102
-53.8167
-23.105
8.32312
40.3197
72.5681
104.722
136.416
167.269
196.885
224.87
250.84
274.419
295.261
313.051
327.513
338.414
345.573
348.875
348.182
343.612
335.199
323.005
307.243
288.141
265.968
241.047
213.729
184.387
153.414
121.208
88.1673
54.6788
21.1138
-12.1785
-44.8797
-76.6955
-107.399
-136.777
-164.658
-190.911
-215.439
-238.169
-259.061
-278.089
-295.265
-310.611
-324.16
-335.966
-346.08
-354.563
-361.482
-366.891
-370.869
-373.453
-374.65
-374.562
-373.186
-370.53
-366.603
-361.404
-354.913
-347.109
-337.961
-327.434
-315.498
-302.114
-287.243
-270.858
-252.94
-233.475
-212.463
-189.924
-165.889
-140.422
-113.597
-85.5117
-56.3395
-26.2614
4.51759
35.7457
67.1383
98.3772
129.118
158.997
187.625
214.613
239.584
262.161
281.986
298.74
312.147
321.973
328.013
330.102
328.35
322.624
312.991
299.556
282.563
262.271
238.978
213.023
184.798
154.729
123.257
90.8244
57.8706
24.8093
-7.97755
-40.1509
-71.3507
-99.7111
-127.999
-154.806
-179.98
-203.407
-225.05
-244.888
-262.922
-279.183
-293.709
-306.546
-317.746
-327.36
-335.442
-342.038
-347.19
-350.935
-353.307
-354.297
-353.914
-352.172
-349.116
-344.698
-338.93
-331.799
-323.294
-313.408
-302.112
-289.385
-275.219
-259.598
-242.511
-223.959
-203.94
-182.476
-159.606
-135.374
-109.852
-83.1501
-55.3864
-26.7041
2.68865
32.5983
62.7749
92.9589
122.882
152.218
180.633
207.803
233.369
256.996
278.333
297.053
312.864
325.487
334.681
340.255
342.015
339.883
333.771
323.756
310.038
292.936
272.808
-223.032
-241.428
-258.252
-273.466
-287.039
-299
-309.375
-318.196
-325.489
-331.281
-335.601
-338.435
-339.759
-339.482
-337.761
-334.532
-329.785
-323.495
-315.622
-306.127
-294.967
-282.098
-267.475
-251.062
-232.835
-212.778
-190.898
-167.203
-141.739
-114.584
-85.8141
-55.5663
-24.0247
8.60545
41.959
75.925
110.158
144.251
177.805
210.448
241.755
271.334
298.783
323.721
345.828
364.798
380.36
392.311
400.496
404.797
405.105
401.443
393.837
382.405
367.311
348.798
327.109
302.528
275.409
246.117
215.04
182.572
149.118
115.075
80.845
46.7772
13.3698
-19.0015
-50.5801
-81.0747
-110.231
-137.872
-163.876
-188.14
-210.605
-231.236
-250.007
-266.921
-281.967
-295.179
-306.579
-316.173
-324.012
-330.141
-334.581
-337.361
-338.525
-338.175
-336.327
-332.997
-328.23
-322.058
-314.5
-305.565
-295.253
-283.564
-270.466
-255.925
-239.919
-222.404
-203.347
-182.742
-160.588
-136.898
-111.725
-85.1357
-57.2275
-28.1302
2.00624
32.9876
64.5501
96.4578
128.422
160.126
191.226
221.354
250.128
277.155
302.039
324.388
343.833
360.035
372.69
381.544
386.414
387.107
383.698
376.133
364.494
348.949
329.727
307.12
281.471
253.163
222.618
190.281
156.615
122.082
87.1385
52.2228
17.7446
-15.918
-48.4523
-79.5847
-109.101
-136.839
-162.693
-186.609
-208.574
-228.61
-246.761
-263.092
-277.681
-290.611
-301.963
-311.816
-320.24
-327.292
-333.022
-337.476
-340.685
-342.649
-343.354
-342.849
-341.101
-338.078
-333.754
-328.097
-321.061
-312.595
-302.643
-291.157
-278.067
-263.317
-246.862
-228.659
-208.693
-186.967
-163.495
-138.34
-111.595
-83.3854
-53.884
-23.1686
8.27087
40.2792
72.5407
104.709
136.419
167.288
196.922
224.925
250.912
274.507
295.365
313.169
327.643
338.553
345.719
349.029
348.331
343.756
335.338
323.135
307.362
288.246
266.058
241.119
213.784
184.425
153.434
121.211
88.1545
54.6514
21.0733
-12.2306
-44.9416
-76.7656
-107.476
-136.858
-164.742
-190.998
-215.526
-238.256
-259.147
-278.174
-295.347
-310.692
-324.237
-336.04
-346.151
-354.632
-361.548
-366.954
-370.931
-373.51
-374.708
-374.618
-373.242
-370.586
-366.66
-361.461
-354.972
-347.169
-338.023
-327.498
-315.564
-302.182
-287.314
-270.931
-253.014
-233.55
-212.539
-189.999
-165.964
-140.495
-113.667
-85.5781
-56.4003
-26.3148
4.47313
35.7118
67.1166
98.3694
129.125
159.021
187.666
214.671
239.66
262.254
282.094
298.862
312.282
322.116
328.163
330.262
328.5
322.772
313.132
299.689
282.684
262.377
239.067
213.093
184.849
154.762
123.27
90.8197
57.8494
24.7734
-8.02524
-40.2082
-71.4136
-99.7899
-128.081
-154.888
-180.063
-203.49
-225.131
-244.968
-262.999
-279.257
-293.78
-306.614
-317.811
-327.423
-335.502
-342.096
-347.246
-350.99
-353.36
-354.35
-353.967
-352.225
-349.169
-344.751
-338.984
-331.854
-323.349
-313.465
-302.171
-289.445
-275.28
-259.66
-242.574
-224.023
-204.005
-182.541
-159.67
-135.437
-109.912
-83.207
-55.4387
-26.7508
2.64913
32.5671
62.7535
92.9485
122.884
152.234
180.663
207.849
233.43
257.073
278.426
297.16
312.984
325.619
334.822
340.403
342.175
340.026
333.913
323.894
310.166
293.05
272.906
-223.181
-241.572
-258.393
-273.602
-287.171
-299.129
-309.501
-318.318
-325.609
-331.398
-335.715
-338.551
-339.885
-339.602
-337.879
-334.652
-329.907
-323.621
-315.752
-306.262
-295.107
-282.243
-267.624
-251.216
-232.992
-212.938
-191.06
-167.365
-141.899
-114.741
-85.9648
-55.7079
-24.1538
8.49325
41.8634
75.8535
110.114
144.238
177.824
210.501
241.843
271.458
298.941
323.912
346.05
365.047
380.632
392.601
400.797
405.105
405.429
401.736
394.126
382.68
367.565
349.026
327.307
302.693
275.539
246.211
215.099
182.595
149.108
115.033
80.7754
46.6828
13.2634
-19.1255
-50.7191
-81.2241
-110.389
-138.035
-164.041
-188.305
-210.77
-231.399
-250.167
-267.077
-282.121
-295.328
-306.724
-316.315
-324.15
-330.275
-334.711
-337.485
-338.648
-338.296
-336.445
-333.113
-328.343
-322.17
-314.612
-305.678
-295.368
-283.682
-270.588
-256.051
-240.05
-222.539
-203.486
-182.884
-160.73
-137.04
-111.865
-85.271
-57.3558
-28.2487
1.89996
32.8962
64.4775
96.4064
128.395
160.126
191.256
221.417
250.225
277.288
302.208
324.592
344.069
360.3
372.98
381.853
386.734
387.446
384.013
376.444
364.789
349.22
329.969
307.328
281.641
253.294
222.709
190.332
156.628
122.058
87.0799
52.134
17.63
-16.0543
-48.6051
-79.7495
-109.273
-137.015
-162.869
-186.782
-208.742
-228.772
-246.915
-263.238
-277.819
-290.741
-302.085
-311.931
-320.35
-327.397
-333.124
-337.577
-340.785
-342.744
-343.453
-342.948
-341.201
-338.182
-333.862
-328.208
-321.177
-312.716
-302.77
-291.29
-278.207
-263.462
-247.013
-228.815
-208.852
-187.128
-163.654
-138.496
-111.745
-83.5255
-54.0085
-23.2856
8.17641
40.2081
72.4956
104.693
136.435
167.337
197.005
225.043
251.065
274.694
295.582
313.415
327.912
338.841
346.02
349.337
348.645
344.054
335.625
323.405
307.609
288.465
266.246
241.274
213.903
184.509
153.483
121.227
88.1386
54.6063
21.0021
-12.3249
-45.0554
-76.8958
-107.618
-137.011
-164.901
-191.161
-215.691
-238.42
-259.309
-278.333
-295.502
-310.841
-324.381
-336.178
-346.283
-354.758
-361.668
-367.07
-371.043
-373.613
-374.813
-374.721
-373.344
-370.687
-366.762
-361.566
-355.079
-347.278
-338.136
-327.616
-315.686
-302.309
-287.444
-271.065
-253.151
-233.689
-212.68
-190.14
-166.103
-140.631
-113.797
-85.7017
-56.5126
-26.4127
4.39293
35.6525
67.0817
98.362
129.148
159.076
187.755
214.796
239.819
262.447
282.317
299.114
312.558
322.409
328.468
330.587
328.802
323.072
313.418
299.957
282.927
262.59
239.247
213.235
184.953
154.828
123.298
90.811
57.8075
24.7021
-8.12037
-40.3228
-71.5388
-99.9478
-128.243
-155.053
-180.229
-203.655
-225.294
-245.126
-263.152
-279.405
-293.922
-306.75
-317.941
-327.547
-335.622
-342.212
-347.358
-351.099
-353.466
-354.455
-354.072
-352.332
-349.275
-344.857
-339.092
-331.963
-323.461
-313.578
-302.287
-289.564
-275.402
-259.785
-242.701
-224.152
-204.135
-182.671
-159.799
-135.563
-110.033
-83.3208
-55.5431
-26.8441
2.57012
32.5048
62.7106
92.9279
122.888
152.266
180.725
207.941
233.553
257.227
278.611
297.374
313.225
325.883
335.105
340.699
342.494
340.316
334.199
324.169
310.421
293.278
273.103
-223.403
-241.79
-258.605
-273.808
-287.371
-299.323
-309.689
-318.502
-325.788
-331.573
-335.886
-338.723
-340.075
-339.783
-338.055
-334.831
-330.091
-323.81
-315.947
-306.464
-295.317
-282.46
-267.848
-251.446
-233.228
-213.179
-191.302
-167.608
-142.14
-114.976
-86.1911
-55.9207
-24.3475
8.32459
41.7196
75.746
110.048
144.217
177.853
210.581
241.976
271.643
299.179
324.2
346.382
365.42
381.039
393.035
401.25
405.567
405.909
402.181
394.561
383.093
367.947
349.369
327.605
302.94
275.734
246.353
215.186
182.63
149.092
114.971
80.6708
46.5412
13.1036
-19.312
-50.9276
-81.4485
-110.625
-138.279
-164.289
-188.554
-211.017
-231.643
-250.406
-267.311
-282.35
-295.551
-306.942
-316.527
-324.356
-330.475
-334.905
-337.671
-338.833
-338.476
-336.62
-333.284
-328.511
-322.337
-314.779
-305.846
-295.539
-283.857
-270.769
-256.239
-240.244
-222.74
-203.692
-183.094
-160.942
-137.251
-112.073
-85.4724
-57.5465
-28.4251
1.7419
32.7608
64.3701
96.3309
128.356
160.128
191.304
221.514
250.373
277.49
302.463
324.899
344.426
360.701
373.417
382.318
387.216
387.951
384.493
376.914
365.233
349.63
330.334
307.642
281.899
253.493
222.847
190.41
156.647
122.022
86.9931
52.0019
17.4591
-16.2578
-48.8333
-79.9956
-109.531
-137.278
-163.132
-187.041
-208.993
-229.013
-247.144
-263.455
-278.024
-290.934
-302.267
-312.104
-320.514
-327.555
-333.276
-337.725
-340.932
-342.885
-343.599
-343.096
-341.351
-338.336
-334.021
-328.374
-321.35
-312.897
-302.96
-291.488
-278.415
-263.679
-247.238
-229.047
-209.089
-187.367
-163.892
-138.729
-111.969
-83.7346
-54.1952
-23.459
8.03597
40.1027
72.4293
104.67
136.459
167.411
197.131
225.222
251.296
274.975
295.91
313.785
328.318
339.275
346.472
349.795
349.119
344.505
336.057
323.812
307.981
288.795
266.529
241.507
214.084
184.637
153.558
121.252
88.1158
54.5399
20.8964
-12.4653
-45.2249
-77.0899
-107.831
-137.238
-165.138
-191.403
-215.936
-238.666
-259.551
-278.57
-295.733
-311.064
-324.596
-336.383
-346.48
-354.945
-361.847
-367.243
-371.209
-373.768
-374.968
-374.874
-373.495
-370.838
-366.914
-361.72
-355.238
-347.441
-338.304
-327.791
-315.867
-302.497
-287.638
-271.265
-253.356
-233.898
-212.89
-190.351
-166.312
-140.835
-113.992
-85.886
-56.6799
-26.5584
4.27363
35.5647
67.0304
98.3519
129.184
159.16
187.89
214.983
240.06
262.737
282.654
299.492
312.972
322.85
328.926
331.071
329.261
323.524
313.849
300.359
283.293
262.911
239.517
213.449
185.109
154.927
123.339
90.7977
57.7443
24.5947
-8.26341
-40.4949
-71.7271
-100.185
-128.486
-155.3
-180.478
-203.904
-225.538
-245.364
-263.383
-279.627
-294.134
-306.953
-318.136
-327.735
-335.802
-342.386
-347.527
-351.263
-353.624
-354.611
-354.232
-352.493
-349.433
-345.016
-339.253
-332.127
-323.628
-313.749
-302.462
-289.743
-275.586
-259.972
-242.892
-224.346
-204.329
-182.866
-159.992
-135.752
-110.215
-83.4917
-55.7
-26.9843
2.45144
32.4113
62.6462
92.8967
122.895
152.314
180.816
208.079
233.738
257.459
278.889
297.695
313.586
326.279
335.528
341.144
342.964
340.756
334.63
324.582
310.803
293.62
273.399
-223.7
-242.08
-258.887
-274.082
-287.637
-299.581
-309.94
-318.746
-326.027
-331.807
-336.113
-338.949
-340.325
-340.02
-338.29
-335.07
-330.335
-324.062
-316.208
-306.734
-295.596
-282.749
-268.147
-251.754
-233.543
-213.499
-191.627
-167.932
-142.461
-115.29
-86.4932
-56.2047
-24.6064
8.09891
41.5276
75.6024
109.96
144.19
177.891
210.687
242.152
271.891
299.496
324.583
346.826
365.918
381.583
393.614
401.854
406.184
406.539
402.785
395.144
383.645
368.457
349.826
328.002
303.27
275.994
246.541
215.302
182.676
149.071
114.888
80.5309
46.3525
12.8902
-19.5614
-51.206
-81.7483
-110.94
-138.605
-164.619
-188.886
-211.346
-231.968
-250.726
-267.624
-282.657
-295.849
-307.231
-316.81
-324.631
-330.741
-335.164
-337.92
-339.079
-338.715
-336.852
-333.512
-328.735
-322.559
-315
-306.069
-295.766
-284.091
-271.01
-256.489
-240.503
-223.007
-203.967
-183.374
-161.225
-137.534
-112.351
-85.741
-57.8008
-28.6604
1.53077
32.5805
64.2268
96.2302
128.304
160.131
191.367
221.642
250.571
277.758
302.803
325.309
344.902
361.236
374.001
382.939
387.86
388.615
385.142
377.543
365.827
350.176
330.821
308.061
282.243
253.758
223.03
190.514
156.673
121.974
86.877
51.8253
17.2307
-16.5295
-49.1381
-80.3242
-109.875
-137.628
-163.482
-187.386
-209.328
-229.334
-247.451
-263.745
-278.297
-291.191
-302.51
-312.333
-320.732
-327.764
-333.478
-337.923
-341.126
-343.076
-343.794
-343.292
-341.551
-338.542
-334.234
-328.595
-321.581
-313.138
-303.212
-291.753
-278.692
-263.969
-247.539
-229.357
-209.406
-187.686
-164.209
-139.04
-112.268
-84.0139
-54.4461
-23.6887
7.84876
39.9619
72.3406
104.64
136.491
167.51
197.299
225.461
251.604
275.35
296.348
314.278
328.859
339.853
347.076
350.408
349.745
345.112
336.635
324.356
308.478
289.235
266.907
241.818
214.325
184.807
153.659
121.285
88.0854
54.4512
20.7553
-12.6526
-45.4511
-77.3488
-108.116
-137.541
-165.455
-191.727
-216.264
-238.992
-259.874
-278.886
-296.04
-311.362
-324.882
-336.657
-346.741
-355.195
-362.086
-367.472
-371.428
-373.977
-375.176
-375.077
-373.696
-371.039
-367.117
-361.927
-355.449
-347.658
-338.529
-328.023
-316.108
-302.747
-287.897
-271.532
-253.628
-234.175
-213.171
-190.631
-166.59
-141.106
-114.252
-86.1318
-56.9029
-26.7528
4.11436
35.4474
66.9618
98.3384
129.231
159.272
188.07
215.234
240.38
263.124
283.102
299.997
313.525
323.437
329.536
331.703
329.884
324.131
314.425
300.897
283.781
263.339
239.876
213.733
185.318
155.059
123.395
90.7796
57.6597
24.451
-8.45483
-40.7249
-71.9794
-100.5
-128.81
-155.63
-180.81
-204.235
-225.864
-245.682
-263.691
-279.923
-294.418
-307.225
-318.396
-327.984
-336.042
-342.617
-347.751
-351.481
-353.836
-354.82
-354.447
-352.706
-349.643
-345.227
-339.468
-332.345
-323.85
-313.975
-302.695
-289.982
-275.83
-260.222
-243.146
-224.604
-204.589
-183.126
-160.25
-136.004
-110.457
-83.7199
-55.9097
-27.1712
2.29293
32.2863
62.5599
92.8547
122.902
152.377
180.939
208.262
233.984
257.767
279.259
298.124
314.068
326.807
336.093
341.736
343.58
341.353
335.207
325.134
311.313
294.076
273.793
-224.071
-242.442
-259.239
-274.425
-287.969
-299.904
-310.254
-319.052
-326.326
-332.1
-336.399
-339.231
-340.622
-340.314
-338.583
-335.369
-330.641
-324.376
-316.533
-307.071
-295.946
-283.11
-268.52
-252.138
-233.937
-213.9
-192.032
-168.338
-142.863
-115.683
-86.8713
-56.5603
-24.9307
7.81568
41.2872
75.4222
109.85
144.156
177.938
210.82
242.372
272.2
299.892
325.062
347.381
366.541
382.263
394.339
402.609
406.955
407.317
403.55
395.875
384.336
369.094
350.397
328.498
303.683
276.319
246.777
215.447
182.733
149.044
114.783
80.3553
46.1165
12.6225
-19.8741
-51.5546
-82.1236
-111.335
-139.013
-165.033
-189.301
-211.759
-232.375
-251.126
-268.015
-283.04
-296.222
-307.593
-317.164
-324.975
-331.073
-335.486
-338.235
-339.387
-339.014
-337.143
-333.797
-329.016
-322.836
-315.277
-306.348
-296.051
-284.383
-271.311
-256.802
-240.827
-223.341
-204.311
-183.725
-161.579
-137.887
-112.699
-86.0773
-58.1193
-28.9552
1.2659
32.3548
64.0471
96.1035
128.238
160.134
191.445
221.802
250.817
278.094
303.227
325.822
345.497
361.904
374.731
383.716
388.665
389.436
385.961
378.33
366.571
350.859
331.43
308.584
282.673
254.089
223.26
190.643
156.704
121.913
86.731
51.6037
16.9443
-16.8702
-49.52
-80.736
-110.305
-138.067
-163.921
-187.818
-209.747
-229.737
-247.834
-264.107
-278.638
-291.513
-302.814
-312.62
-321.005
-328.026
-333.732
-338.17
-341.367
-343.317
-344.037
-343.538
-341.801
-338.798
-334.5
-328.871
-321.868
-313.439
-303.528
-292.084
-279.038
-264.331
-247.914
-229.744
-209.801
-188.085
-164.607
-139.43
-112.642
-84.3639
-54.7621
-23.9749
7.61438
39.7855
72.2292
104.601
136.531
167.633
197.509
225.759
251.989
275.819
296.895
314.896
329.536
340.576
347.831
351.177
350.52
345.875
337.36
325.036
309.099
289.786
267.38
242.207
214.627
185.02
153.784
121.326
88.0467
54.3397
20.5781
-12.8873
-45.7347
-77.673
-108.472
-137.921
-165.851
-192.133
-216.674
-239.402
-260.278
-279.282
-296.425
-311.734
-325.24
-336.999
-347.069
-355.508
-362.384
-367.758
-371.701
-374.24
-375.435
-375.33
-373.946
-371.29
-367.37
-362.185
-355.713
-347.93
-338.81
-328.315
-316.41
-303.06
-288.22
-271.865
-253.97
-234.522
-213.522
-190.983
-166.938
-141.446
-114.579
-86.4393
-57.1821
-26.9964
3.91458
35.3001
66.8753
98.3207
129.289
159.411
188.295
215.546
240.78
263.608
283.663
300.629
314.216
324.171
330.3
332.483
330.668
324.892
315.146
301.57
284.392
263.875
240.326
214.089
185.578
155.223
123.463
90.7563
57.5532
24.2705
-8.6953
-41.0133
-72.2965
-100.894
-129.215
-156.043
-181.226
-204.65
-226.271
-246.079
-264.075
-280.294
-294.773
-307.564
-318.722
-328.296
-336.341
-342.906
-348.032
-351.754
-354.101
-355.082
-354.714
-352.971
-349.905
-345.492
-339.737
-332.619
-324.129
-314.259
-302.986
-290.281
-276.136
-260.534
-243.465
-224.926
-204.914
-183.451
-160.572
-136.319
-110.76
-84.0057
-56.1724
-27.4052
2.09433
32.1296
62.4517
92.8017
122.912
152.455
181.091
208.492
234.291
258.152
279.721
298.66
314.67
327.467
336.8
342.475
344.341
342.107
335.933
325.826
311.952
294.647
274.286
-224.517
-242.877
-259.663
-274.836
-288.369
-300.291
-310.631
-319.42
-326.684
-332.451
-336.742
-339.571
-340.969
-340.663
-338.934
-335.727
-331.008
-324.753
-316.923
-307.476
-296.365
-283.544
-268.968
-252.6
-234.41
-214.382
-192.519
-168.825
-143.346
-116.154
-87.3258
-56.988
-25.3208
7.47447
40.9977
75.2052
109.716
144.114
177.994
210.979
242.636
272.57
300.368
325.637
348.048
367.289
383.08
395.209
403.516
407.882
408.246
404.468
396.755
385.167
369.859
351.083
329.094
304.179
276.709
247.059
215.62
182.8
149.011
114.656
80.1438
45.8332
12.3
-20.2505
-51.9738
-82.575
-111.81
-139.503
-165.529
-189.799
-212.255
-232.864
-251.606
-268.484
-283.499
-296.67
-308.028
-317.589
-325.388
-331.473
-335.873
-338.613
-339.755
-339.373
-337.492
-334.139
-329.353
-323.169
-315.609
-306.682
-296.393
-284.733
-271.673
-257.177
-241.215
-223.743
-204.725
-184.147
-162.005
-138.312
-113.117
-86.4816
-58.5026
-29.3102
0.947028
32.0833
63.8305
95.9506
128.159
160.136
191.538
221.993
251.112
278.495
303.737
326.437
346.211
362.707
375.608
384.65
389.635
390.421
386.944
379.277
367.464
351.68
332.162
309.213
283.189
254.485
223.535
190.797
156.741
121.838
86.5544
51.3364
16.599
-17.2802
-49.9797
-81.2314
-110.823
-138.595
-164.449
-188.336
-210.251
-230.22
-248.293
-264.542
-279.048
-291.899
-303.178
-312.964
-321.332
-328.339
-334.035
-338.466
-341.656
-343.606
-344.328
-343.832
-342.101
-339.107
-334.818
-329.202
-322.214
-313.8
-303.907
-292.481
-279.454
-264.765
-248.365
-230.209
-210.277
-188.565
-165.084
-139.898
-113.092
-84.7852
-55.1441
-24.3178
7.33249
39.5727
72.0947
104.553
136.577
167.78
197.761
226.117
252.452
276.382
297.552
315.637
330.349
341.445
348.739
352.102
351.45
346.791
338.232
325.852
309.845
290.447
267.948
242.674
214.988
185.275
153.934
121.374
87.9995
54.2049
20.3644
-13.1701
-46.0762
-78.0629
-108.9
-138.377
-166.327
-192.62
-217.166
-239.893
-260.763
-279.757
-296.888
-312.18
-325.669
-337.41
-347.461
-355.883
-362.742
-368.101
-372.027
-374.557
-375.745
-375.635
-374.247
-371.591
-367.674
-362.494
-356.03
-348.256
-339.147
-328.664
-316.773
-303.436
-288.609
-272.265
-254.38
-234.939
-213.943
-191.405
-167.356
-141.855
-114.972
-86.8093
-57.5179
-27.2895
3.67387
35.1223
66.7706
98.2986
129.358
159.577
188.564
215.922
241.26
264.188
284.338
301.388
315.046
325.053
331.219
333.42
331.611
325.805
316.014
302.379
285.125
264.517
240.865
214.516
185.89
155.419
123.544
90.7276
57.4242
24.0525
-8.9858
-41.3605
-72.6793
-101.368
-129.702
-156.539
-181.725
-205.148
-226.761
-246.556
-264.537
-280.738
-295.199
-307.972
-319.112
-328.67
-336.701
-343.253
-348.368
-352.081
-354.42
-355.398
-355.032
-353.288
-350.22
-345.809
-340.059
-332.947
-324.463
-314.599
-303.335
-290.639
-276.503
-260.909
-243.846
-225.314
-205.305
-183.842
-160.959
-136.697
-111.125
-84.3494
-56.4884
-27.6865
1.85534
31.9409
62.321
92.7373
122.922
152.549
181.273
208.766
234.66
258.614
280.276
299.303
315.394
328.26
337.648
343.364
345.251
343.015
336.807
326.656
312.719
295.332
274.878
-225.037
-243.385
-260.157
-275.316
-288.834
-300.743
-311.071
-319.848
-327.102
-332.86
-337.143
-339.967
-341.367
-341.067
-339.343
-336.144
-331.435
-325.193
-317.379
-307.947
-296.854
-284.05
-269.491
-253.139
-234.962
-214.944
-193.088
-169.395
-143.91
-116.706
-87.8572
-57.4882
-25.7773
7.07478
40.6585
74.9506
109.559
144.064
178.058
211.163
242.944
273.002
300.922
326.308
348.826
368.162
384.034
396.225
404.576
408.964
409.332
405.539
397.784
386.137
370.753
351.885
329.789
304.757
277.164
247.387
215.821
182.879
148.971
114.508
79.8959
45.5022
11.9217
-20.6913
-52.4639
-83.1029
-112.364
-140.076
-166.11
-190.381
-212.833
-233.434
-252.167
-269.032
-284.035
-297.193
-308.535
-318.084
-325.87
-331.939
-336.325
-339.055
-340.185
-339.791
-337.899
-334.537
-329.746
-323.557
-315.996
-307.073
-296.791
-285.141
-272.095
-257.615
-241.669
-224.212
-205.207
-184.639
-162.502
-138.808
-113.605
-86.9541
-58.951
-29.7258
0.573813
31.7656
63.5765
95.7709
128.064
160.138
191.645
222.215
251.455
278.964
304.331
327.155
347.045
363.644
376.632
385.741
390.768
391.571
388.091
380.383
368.508
352.639
333.016
309.947
283.791
254.947
223.855
190.976
156.783
121.75
86.3468
51.0227
16.1942
-17.7603
-50.5179
-81.8111
-111.428
-139.212
-165.065
-188.943
-210.839
-230.784
-248.83
-265.05
-279.527
-292.35
-303.603
-313.366
-321.714
-328.705
-334.389
-338.81
-341.993
-343.943
-344.667
-344.175
-342.45
-339.466
-335.19
-329.588
-322.617
-314.221
-304.349
-292.945
-279.94
-265.273
-248.892
-230.753
-210.832
-189.126
-165.643
-140.446
-113.618
-85.2785
-55.593
-24.7173
7.00252
39.3232
71.9366
104.496
136.631
167.951
198.053
226.533
252.991
277.039
298.319
316.503
331.298
342.46
349.8
353.185
352.535
347.859
339.25
326.806
310.715
291.219
268.61
243.218
215.41
185.571
154.107
121.429
87.9432
54.0462
20.1139
-13.5013
-46.4761
-78.5191
-109.401
-138.911
-166.883
-193.189
-217.741
-240.467
-261.329
-280.313
-297.427
-312.701
-326.17
-337.89
-347.92
-356.32
-363.159
-368.501
-372.41
-374.927
-376.106
-375.989
-374.598
-371.942
-368.029
-362.855
-356.399
-348.636
-339.54
-329.072
-317.196
-303.875
-289.062
-272.732
-254.858
-235.426
-214.435
-191.898
-167.845
-142.333
-115.431
-87.242
-57.9109
-27.6325
3.39181
34.9136
66.6472
98.2715
129.438
159.77
188.877
216.359
241.819
264.865
285.126
302.275
316.014
326.084
332.293
334.515
332.709
326.872
317.027
303.325
285.982
265.268
241.494
215.015
186.254
155.648
123.638
90.693
57.2722
23.7963
-9.32721
-41.7674
-73.1294
-101.919
-130.269
-157.119
-182.308
-205.729
-227.333
-247.112
-265.076
-281.257
-295.696
-308.447
-319.567
-329.106
-337.12
-343.658
-348.761
-352.464
-354.793
-355.767
-355.403
-353.657
-350.587
-346.179
-340.435
-333.329
-324.852
-314.997
-303.743
-291.057
-276.931
-261.347
-244.292
-225.766
-205.76
-184.298
-161.411
-137.14
-111.551
-84.7512
-56.858
-28.0156
1.57558
31.7197
62.1675
92.661
122.933
152.657
181.485
209.086
235.089
259.153
280.924
300.054
316.239
329.186
338.639
344.401
346.313
344.074
337.831
327.628
313.615
296.133
275.57
-225.632
-243.966
-260.722
-275.865
-289.367
-301.26
-311.573
-320.338
-327.581
-333.328
-337.603
-340.42
-341.81
-341.527
-339.81
-336.621
-331.924
-325.696
-317.899
-308.486
-297.412
-284.629
-270.089
-253.755
-235.594
-215.587
-193.738
-170.046
-144.556
-117.338
-88.466
-58.0614
-26.3009
6.61597
40.269
74.6579
109.378
144.005
178.13
211.373
243.295
273.496
301.556
327.075
349.716
369.162
385.125
397.388
405.788
410.204
410.575
406.763
398.962
387.248
371.775
352.801
330.585
305.418
277.683
247.762
216.05
182.967
148.923
114.336
79.611
45.1231
11.4866
-21.1971
-53.0252
-83.7079
-113
-140.732
-166.774
-191.048
-213.495
-234.087
-252.808
-269.658
-284.648
-297.791
-309.116
-318.65
-326.421
-332.471
-336.842
-339.559
-340.676
-340.268
-338.363
-334.993
-330.195
-324.001
-316.438
-307.519
-297.245
-285.608
-272.578
-258.116
-242.188
-224.749
-205.76
-185.202
-163.071
-139.376
-114.165
-87.4953
-59.4649
-30.2025
0.145845
31.4011
63.2847
95.564
127.955
160.138
191.767
222.467
251.846
279.498
305.01
327.975
347.999
364.717
377.805
386.99
392.065
392.89
389.402
381.649
369.703
353.736
333.993
310.786
284.478
255.475
224.22
191.179
156.829
121.648
86.1074
50.6619
15.7293
-18.3112
-51.1352
-82.4756
-112.122
-139.919
-165.771
-189.637
-211.512
-231.43
-249.444
-265.631
-280.074
-292.864
-304.088
-313.825
-322.15
-329.123
-334.793
-339.203
-342.379
-344.326
-345.053
-344.567
-342.85
-339.877
-335.615
-330.03
-323.078
-314.702
-304.854
-293.475
-280.496
-265.853
-249.495
-231.374
-211.468
-189.768
-166.282
-141.073
-114.22
-85.8445
-56.1081
-25.175
6.62385
39.0365
71.7541
104.43
136.691
168.145
198.387
227.009
253.606
277.79
299.196
317.493
332.385
343.622
351.014
354.426
353.778
349.079
340.416
327.897
311.711
292.103
269.367
243.84
215.891
185.909
154.305
121.491
87.8774
53.8632
19.8257
-13.8816
-46.935
-79.0423
-109.974
-139.522
-167.52
-193.841
-218.4
-241.124
-261.978
-280.948
-298.045
-313.297
-326.743
-338.439
-348.443
-356.82
-363.636
-368.957
-372.846
-375.349
-376.518
-376.395
-374.999
-372.343
-368.434
-363.266
-356.821
-349.071
-339.99
-329.539
-317.68
-304.376
-289.581
-273.266
-255.405
-235.983
-214.998
-192.462
-168.405
-142.881
-115.958
-87.7377
-58.3616
-28.0263
3.06789
34.6735
66.5043
98.239
129.526
159.989
189.235
216.859
242.457
265.639
286.027
303.289
317.122
327.263
333.522
335.769
333.965
328.092
318.189
304.408
286.963
266.126
242.212
215.585
186.671
155.908
123.743
90.652
57.0963
23.5011
-9.7205
-42.235
-73.6485
-102.549
-130.917
-157.783
-182.976
-206.393
-227.987
-247.749
-265.692
-281.85
-296.264
-308.99
-320.087
-329.605
-337.599
-344.12
-349.209
-352.9
-355.22
-356.188
-355.826
-354.078
-351.007
-346.601
-340.864
-333.766
-325.297
-315.452
-304.208
-291.536
-277.421
-261.847
-244.802
-226.283
-206.281
-184.82
-161.928
-137.646
-112.04
-85.2114
-57.2816
-28.3929
1.25461
31.4656
61.9906
92.5724
122.944
152.779
181.726
209.451
235.579
259.769
281.664
300.913
317.205
330.245
339.773
345.587
347.528
345.285
339.003
328.74
314.641
297.049
276.36
-226.302
-244.62
-261.358
-276.482
-289.966
-301.842
-312.138
-320.888
-328.118
-333.855
-338.119
-340.929
-342.304
-342.043
-340.335
-337.156
-332.473
-326.262
-318.485
-309.092
-298.041
-285.28
-270.762
-254.449
-236.304
-216.311
-194.471
-170.78
-145.284
-118.051
-89.1526
-58.7083
-26.8923
6.09771
39.828
74.3263
109.172
143.938
178.21
211.607
243.689
274.05
302.269
327.938
350.718
370.287
386.354
398.698
407.155
411.6
411.975
408.141
400.29
388.5
372.926
353.833
331.48
306.162
278.267
248.182
216.307
183.065
148.868
114.141
79.2882
44.6956
10.9935
-21.7684
-53.6583
-84.3906
-113.716
-141.47
-167.523
-191.798
-214.241
-234.821
-253.53
-270.363
-285.338
-298.463
-309.769
-319.288
-327.041
-333.072
-337.424
-340.127
-341.229
-340.805
-338.886
-335.505
-330.699
-324.499
-316.935
-308.02
-297.756
-286.133
-273.121
-258.679
-242.772
-225.353
-206.381
-185.837
-163.712
-140.017
-114.795
-88.1057
-60.0448
-30.7408
-0.337564
30.9895
62.9545
95.3291
127.829
160.137
191.901
222.749
252.285
280.098
305.773
328.898
349.072
365.925
379.126
388.398
393.528
394.376
390.879
383.076
371.05
354.972
335.094
311.731
285.251
256.068
224.63
191.406
156.879
121.53
85.8356
50.253
15.2031
-18.9339
-51.8326
-83.2259
-112.906
-140.716
-166.567
-190.418
-212.27
-232.157
-250.134
-266.284
-280.689
-293.443
-304.633
-314.341
-322.64
-329.593
-335.248
-339.646
-342.814
-344.76
-345.487
-345.007
-343.3
-340.34
-336.093
-330.526
-323.596
-315.244
-305.422
-294.071
-281.121
-266.506
-250.174
-232.075
-212.184
-190.491
-167.004
-141.781
-114.901
-86.4839
-56.6901
-25.6916
6.19583
38.7121
71.5466
104.353
136.756
168.362
198.762
227.544
254.299
278.635
300.184
318.608
333.609
344.931
352.383
355.824
355.179
350.453
341.73
329.127
312.833
293.097
270.22
244.54
216.431
186.289
154.526
121.559
87.8015
53.6553
19.4992
-14.3118
-47.4534
-79.6332
-110.622
-140.211
-168.238
-194.576
-219.141
-241.864
-262.708
-281.663
-298.74
-313.968
-327.389