/*--------------------------------*- C++ -*----------------------------------*\
| =========                 |                                                 |
| \\      /  F ield         | OpenFOAM: The Open Source CFD Toolbox           |
|  \\    /   O peration     | Version:  3.0.1                                 |
|   \\  /    A nd           | Web:      www.OpenFOAM.org                      |
|    \\/     M anipulation  |                                                 |
\*---------------------------------------------------------------------------*/
FoamFile
{
    version     2.0;
    format      ascii;
    class       surfaceScalarField;
    location    "17.8";
    object      alphaPhi;
}
// * * * * * * * * * * * * * * * * * * * * * * * * * * * * * * * * * * * * * //

dimensions      [0 3 -1 0 0 0 0];

internalField   nonuniform List<scalar> 
42423
(
-0.000177591
3.30762e-06
-0.000180084
2.49339e-06
-0.000181858
1.77352e-06
-0.000182958
1.10035e-06
-0.000183369
4.10746e-07
-0.00018306
-3.09064e-07
-0.000181945
-1.11457e-06
-0.000180123
-1.82215e-06
-0.000177697
-2.42615e-06
-0.000174472
-3.22441e-06
-0.000170532
-3.9402e-06
-0.000165785
-4.7469e-06
-0.000160157
-5.62882e-06
-0.000153744
-6.41303e-06
-0.000146401
-7.3427e-06
-0.00013818
-8.22093e-06
-0.000129114
-9.0664e-06
-0.000119095
-1.00191e-05
-0.00010807
-1.10248e-05
-9.61977e-05
-1.18722e-05
-8.32098e-05
-1.29879e-05
-6.92515e-05
-1.39584e-05
-5.43222e-05
-1.49294e-05
-3.84759e-05
-1.58464e-05
-2.19299e-05
-1.6546e-05
-4.3941e-06
-1.75359e-05
1.36155e-05
-1.80097e-05
3.20769e-05
-1.84615e-05
5.09405e-05
-1.88637e-05
6.996e-05
-1.90195e-05
8.87824e-05
-1.88225e-05
0.000107336
-1.85532e-05
0.000125318
-1.79822e-05
0.00014248
-1.71627e-05
0.000158551
-1.60708e-05
0.000173141
-1.45896e-05
0.00018616
-1.30201e-05
0.000197396
-1.12356e-05
0.000206608
-9.21242e-06
0.000213649
-7.04028e-06
0.000218325
-4.67706e-06
0.000220681
-2.3557e-06
0.000220572
1.09299e-07
0.000217879
2.69227e-06
0.000212782
5.09697e-06
0.000205402
7.38004e-06
0.000195801
9.60117e-06
0.000184309
1.14922e-05
0.000171028
1.3281e-05
0.000156103
1.49246e-05
0.000139885
1.62182e-05
0.000122638
1.7247e-05
0.000104669
1.79691e-05
8.60682e-05
1.86003e-05
6.72543e-05
1.88139e-05
4.83186e-05
1.89356e-05
2.94841e-05
1.88345e-05
1.10942e-05
1.83899e-05
-6.84572e-06
1.79399e-05
-2.41944e-05
1.73486e-05
-4.07881e-05
1.65938e-05
-5.65847e-05
1.57965e-05
-7.15034e-05
1.49187e-05
-8.55044e-05
1.40009e-05
-9.85783e-05
1.30739e-05
-0.00011065
1.20718e-05
-0.000121768
1.11179e-05
-0.000131952
1.01844e-05
-0.00014116
9.20759e-06
-0.000149484
8.3241e-06
-0.0001569
7.4156e-06
-0.000163395
6.49494e-06
-0.000169086
5.69124e-06
-0.000173887
4.8013e-06
-0.000177759
3.87112e-06
-0.000180828
3.06966e-06
-0.000183012
2.18358e-06
-0.000184434
1.42219e-06
-0.000185018
5.83155e-07
-0.000184714
-3.03732e-07
-0.000183588
-1.12661e-06
-0.000181726
-1.8623e-06
-0.000179062
-2.6639e-06
-0.000175633
-3.42895e-06
-0.000171435
-4.19812e-06
-0.000166544
-4.89163e-06
-0.000160865
-5.67854e-06
-0.000154518
-6.34772e-06
-0.000147477
-7.04102e-06
-0.000139695
-7.78233e-06
-0.00013123
-8.46517e-06
-0.000122011
-9.2188e-06
-0.000112035
-9.97572e-06
-0.00010133
-1.07054e-05
-8.98088e-05
-1.15214e-05
-7.74745e-05
-1.23344e-05
-6.43432e-05
-1.31314e-05
-5.04096e-05
-1.39338e-05
-3.5731e-05
-1.46788e-05
-2.0322e-05
-1.54091e-05
-4.31354e-06
-1.60087e-05
1.22109e-05
-1.65246e-05
2.91465e-05
-1.69358e-05
4.63457e-05
-1.71994e-05
6.36325e-05
-1.7287e-05
8.08517e-05
-1.72194e-05
9.7784e-05
-1.69324e-05
0.000114238
-1.64544e-05
0.000129974
-1.57357e-05
0.000144772
-1.47981e-05
0.000158414
-1.36425e-05
0.00017065
-1.22358e-05
0.000181259
-1.06093e-05
0.000190034
-8.77505e-06
0.000196769
-6.73543e-06
0.000201323
-4.55399e-06
0.00020356
-2.2372e-06
0.000203414
1.45933e-07
0.000200815
2.59889e-06
0.000195782
5.03288e-06
0.000188408
7.37315e-06
0.00017878
9.62852e-06
0.000167133
1.16467e-05
0.000153602
1.35304e-05
0.000138471
1.51316e-05
0.000122023
1.64479e-05
0.000104516
1.75064e-05
8.62114e-05
1.8305e-05
6.74292e-05
1.87821e-05
4.84126e-05
1.90166e-05
2.93904e-05
1.90222e-05
1.06742e-05
1.87162e-05
-7.56888e-06
1.8243e-05
-2.52153e-05
1.76464e-05
-4.20119e-05
1.67967e-05
-5.79065e-05
1.58946e-05
-7.28249e-05
1.49184e-05
-8.6655e-05
1.38301e-05
-9.93865e-05
1.27315e-05
-0.000111053
1.16661e-05
-0.000121694
1.06416e-05
-0.000131232
9.53785e-06
-0.000139788
8.55588e-06
-0.000147317
7.52924e-06
-0.000153954
6.63726e-06
-0.000159761
5.80668e-06
-0.000164698
4.93658e-06
-0.000168901
4.2034e-06
-0.000172349
3.44844e-06
-0.00017515
2.80064e-06
-0.000177353
2.20307e-06
-0.00017892
1.56662e-06
-0.000179925
1.00549e-06
-0.000180351
4.25894e-07
-0.000180245
-1.06055e-07
-0.000179567
-6.77727e-07
-0.000178293
-1.27444e-06
-0.000176418
-1.87534e-06
-0.000173936
-2.48186e-06
-0.0001708
-3.13572e-06
-0.000166985
-3.81481e-06
-0.000162444
-4.54112e-06
-0.000157143
-5.30131e-06
-0.000151018
-6.12518e-06
-0.000144168
-6.84974e-06
-0.00013641
-7.75853e-06
-0.000127735
-8.67499e-06
-0.000118098
-9.63673e-06
-0.000107528
-1.05697e-05
-9.5942e-05
-1.15863e-05
-8.33328e-05
-1.26093e-05
-6.97632e-05
-1.35697e-05
-5.52264e-05
-1.45368e-05
-3.97431e-05
-1.54834e-05
-2.35478e-05
-1.61954e-05
-6.55731e-06
-1.69906e-05
1.10186e-05
-1.7576e-05
2.90232e-05
-1.80047e-05
4.72736e-05
-1.82505e-05
6.5565e-05
-1.82915e-05
8.36635e-05
-1.80986e-05
0.000101346
-1.76822e-05
0.000118329
-1.6984e-05
0.000134365
-1.60353e-05
0.000149221
-1.4857e-05
0.000162668
-1.34465e-05
0.000174464
-1.17962e-05
0.000184393
-9.92932e-06
0.000192314
-7.92078e-06
0.000198074
-5.75975e-06
0.000201598
-3.52413e-06
0.000202824
-1.22672e-06
0.000201782
1.04243e-06
0.000198419
3.36293e-06
0.000192836
5.58299e-06
0.000185202
7.63398e-06
0.000175616
9.5853e-06
0.000164276
1.13403e-05
0.000151351
1.29251e-05
0.000137059
1.4292e-05
0.000121638
1.54203e-05
0.000105293
1.63458e-05
8.82058e-05
1.70869e-05
7.06077e-05
1.7598e-05
5.27205e-05
1.78872e-05
3.46997e-05
1.80208e-05
1.67003e-05
1.79994e-05
-1.03631e-06
1.77366e-05
-1.84016e-05
1.73652e-05
-3.52717e-05
1.68702e-05
-5.14319e-05
1.61602e-05
-6.68337e-05
1.54019e-05
-8.14124e-05
1.45786e-05
-9.50378e-05
1.36254e-05
-0.000107645
1.26072e-05
-0.000119232
1.15866e-05
-0.000129752
1.05209e-05
-0.000139192
9.43971e-06
-0.000147586
8.39368e-06
-0.000154878
7.29259e-06
-0.000161127
6.2486e-06
-0.000166384
5.25684e-06
-0.000170713
4.32862e-06
-0.000174068
3.35582e-06
-0.000176558
2.48988e-06
-0.000178191
1.63231e-06
-0.000179057
8.66541e-07
-0.000179212
1.54649e-07
-0.00017866
-5.52243e-07
-0.000177468
-1.19139e-06
-0.000175674
-1.79466e-06
-0.00017326
-2.41385e-06
-0.000170273
-2.98705e-06
-0.000166764
-3.50852e-06
-0.000162667
-4.09685e-06
-0.000157993
-4.67428e-06
-0.000152711
-5.28243e-06
-0.000146799
-5.91185e-06
-0.000140226
-6.57238e-06
-0.000132985
-7.24115e-06
-0.000124968
-8.01692e-06
-0.000116171
-8.79754e-06
-0.000106501
-9.67014e-06
-9.59797e-05
-1.05212e-05
-8.45274e-05
-1.14524e-05
-7.21295e-05
-1.23979e-05
-5.88177e-05
-1.33119e-05
-4.45542e-05
-1.42635e-05
-2.93879e-05
-1.51664e-05
-1.34711e-05
-1.59169e-05
3.21984e-06
-1.66911e-05
2.05148e-05
-1.72951e-05
3.826e-05
-1.77453e-05
5.62845e-05
-1.80245e-05
7.43581e-05
-1.80738e-05
9.22506e-05
-1.78926e-05
0.00010971
-1.74597e-05
0.000126452
-1.67419e-05
0.000142216
-1.57636e-05
0.000156734
-1.45182e-05
0.000169741
-1.30077e-05
0.000180998
-1.12573e-05
0.000190313
-9.31427e-06
0.000197442
-7.12977e-06
0.000202331
-4.8885e-06
0.000204865
-2.53447e-06
0.000205018
-1.53342e-07
0.000202794
2.22476e-06
0.000198195
4.59889e-06
0.000191453
6.74154e-06
0.000182639
8.81367e-06
0.000172011
1.06286e-05
0.000159695
1.23154e-05
0.000145907
1.3788e-05
0.000130953
1.49537e-05
0.000115125
1.58286e-05
9.85924e-05
1.65322e-05
8.15125e-05
1.70798e-05
6.42102e-05
1.73024e-05
4.69381e-05
1.7272e-05
2.97718e-05
1.71663e-05
1.28308e-05
1.6941e-05
-3.59847e-06
1.64293e-05
-1.95471e-05
1.59486e-05
-3.47712e-05
1.52241e-05
-4.94208e-05
1.46496e-05
-6.32104e-05
1.37896e-05
-7.61773e-05
1.29669e-05
-8.84611e-05
1.22838e-05
-9.97554e-05
1.12943e-05
-0.00011031
1.05548e-05
-0.00012003
9.71935e-06
-0.0001289
8.87087e-06
-0.000136957
8.05689e-06
-0.000144215
7.25788e-06
-0.000150653
6.43812e-06
-0.000156365
5.71214e-06
-0.000161259
4.89356e-06
-0.00016539
4.13088e-06
-0.000168769
3.37864e-06
-0.000171278
2.50909e-06
-0.000173107
1.82969e-06
-0.000174191
1.08389e-06
-0.000174507
3.1574e-07
-0.000174011
-4.95695e-07
-0.000172737
-1.27379e-06
-0.000170628
-2.10975e-06
-0.00016784
-2.78804e-06
-0.000164187
-3.65292e-06
-0.000159737
-4.45e-06
-0.000154524
-5.2125e-06
-0.000148455
-6.06932e-06
-0.000141606
-6.84914e-06
-0.000133956
-7.65006e-06
-0.000125194
-8.7619e-06
-0.000115654
-9.54018e-06
-0.000105168
-1.04855e-05
-9.37773e-05
-1.13911e-05
-8.15539e-05
-1.22234e-05
-6.84144e-05
-1.31395e-05
-5.43615e-05
-1.4053e-05
-3.96834e-05
-1.46781e-05
-2.41539e-05
-1.55296e-05
-8.0017e-06
-1.61522e-05
8.60633e-06
-1.66081e-05
2.5625e-05
-1.70187e-05
4.2754e-05
-1.7129e-05
5.99926e-05
-1.72387e-05
7.71486e-05
-1.71561e-05
9.38713e-05
-1.67227e-05
0.000110083
-1.62115e-05
0.000125587
-1.55042e-05
0.000140123
-1.45361e-05
0.000153441
-1.33176e-05
0.000165407
-1.1967e-05
0.000175919
-1.0512e-05
0.000184748
-8.82821e-06
0.000191708
-6.96069e-06
0.000196757
-5.04849e-06
0.000199724
-2.96764e-06
0.000200601
-8.76793e-07
0.000199353
1.24798e-06
0.000195924
3.42858e-06
0.000190479
5.44515e-06
0.000183095
7.38389e-06
0.000173826
9.26866e-06
0.000163026
1.08004e-05
0.000150812
1.2214e-05
0.000137243
1.35688e-05
0.000122694
1.45486e-05
0.000107159
1.5535e-05
9.11654e-05
1.59939e-05
7.46755e-05
1.64899e-05
5.78573e-05
1.68182e-05
4.10288e-05
1.68284e-05
2.42581e-05
1.67707e-05
1.64753e-05
-0.000177628
6.62247e-06
-0.000180126
4.99076e-06
-0.000181909
3.55667e-06
-0.000183009
2.20081e-06
-0.000183417
8.18057e-07
-0.00018311
-6.15942e-07
-0.000181994
-2.22998e-06
-0.000180172
-3.64447e-06
-0.000177746
-4.85194e-06
-0.000174522
-6.44851e-06
-0.000170575
-7.88779e-06
-0.00016584
-9.48168e-06
-0.00016021
-1.12591e-05
-0.000153798
-1.28251e-05
-0.000146454
-1.4686e-05
-0.000138236
-1.64392e-05
-0.00012917
-1.81326e-05
-0.000119149
-2.00403e-05
-0.00010812
-2.20532e-05
-9.62507e-05
-2.37419e-05
-8.32605e-05
-2.59782e-05
-6.92932e-05
-2.79258e-05
-5.43739e-05
-2.98488e-05
-3.85136e-05
-3.17068e-05
-2.19542e-05
-3.31056e-05
-4.43313e-06
-3.50571e-05
1.35942e-05
-3.60371e-05
3.20687e-05
-3.69362e-05
5.0937e-05
-3.77321e-05
6.99648e-05
-3.80475e-05
8.87981e-05
-3.7656e-05
0.000107373
-3.71281e-05
0.000125368
-3.59777e-05
0.000142537
-3.43314e-05
0.00015862
-3.21546e-05
0.000173226
-2.91951e-05
0.000186256
-2.60508e-05
0.0001975
-2.24795e-05
0.000206726
-1.84386e-05
0.000213771
-1.40853e-05
0.000218448
-9.35401e-06
0.000220814
-4.72216e-06
0.000220704
2.19603e-07
0.000218003
5.39332e-06
0.000212904
1.01954e-05
0.00020552
1.47644e-05
0.000195911
1.92093e-05
0.000184413
2.29909e-05
0.000171122
2.6571e-05
0.000156183
2.98635e-05
0.000139953
3.24482e-05
0.000122695
3.45056e-05
0.000104715
3.59488e-05
8.61021e-05
3.72131e-05
6.72795e-05
3.76365e-05
4.83318e-05
3.78833e-05
2.94863e-05
3.768e-05
1.10907e-05
3.67855e-05
-6.86522e-06
3.58958e-05
-2.42254e-05
3.47087e-05
-4.08298e-05
3.31982e-05
-5.66361e-05
3.16028e-05
-7.15562e-05
2.98388e-05
-8.5563e-05
2.80076e-05
-9.8641e-05
2.6152e-05
-0.000110711
2.41413e-05
-0.000121828
2.22355e-05
-0.000132007
2.03636e-05
-0.000141211
1.84112e-05
-0.000149541
1.66536e-05
-0.000156955
1.48299e-05
-0.000163451
1.2991e-05
-0.000169138
1.13785e-05
-0.000173939
9.60228e-06
-0.000177818
7.74996e-06
-0.00018089
6.14091e-06
-0.00018307
4.36346e-06
-0.000184495
2.84765e-06
-0.00018508
1.16737e-06
-0.000184777
-6.06262e-07
-0.000183642
-2.26185e-06
-0.00018178
-3.72458e-06
-0.000179126
-5.31885e-06
-0.000175697
-6.85783e-06
-0.000171495
-8.40046e-06
-0.000166606
-9.78056e-06
-0.000160925
-1.13596e-05
-0.000154586
-1.26869e-05
-0.000147541
-1.40865e-05
-0.000139762
-1.55614e-05
-0.000131304
-1.69233e-05
-0.000122087
-1.84358e-05
-0.000112098
-1.99654e-05
-0.000101397
-2.14062e-05
-8.98806e-05
-2.30381e-05
-7.75435e-05
-2.46716e-05
-6.44075e-05
-2.62676e-05
-5.04798e-05
-2.78617e-05
-3.57956e-05
-2.93632e-05
-2.0387e-05
-3.08179e-05
-4.36185e-06
-3.2034e-05
1.2167e-05
-3.30536e-05
2.91176e-05
-3.38866e-05
4.63264e-05
-3.44084e-05
6.36284e-05
-3.45892e-05
8.08524e-05
-3.44437e-05
9.77962e-05
-3.38764e-05
0.000114256
-3.29141e-05
0.000130008
-3.14884e-05
0.000144832
-2.9622e-05
0.000158483
-2.72935e-05
0.000170724
-2.44777e-05
0.000181347
-2.12317e-05
0.000190132
-1.75605e-05
0.00019687
-1.34739e-05
0.000201428
-9.11248e-06
0.000203665
-4.47447e-06
0.000203527
2.84501e-07
0.000200923
5.2022e-06
0.000195884
1.00716e-05
0.000188498
1.47596e-05
0.000178872
1.92542e-05
0.000167209
2.33096e-05
0.000153667
2.70719e-05
0.000138527
3.02724e-05
0.000122058
3.29165e-05
0.000104538
3.50264e-05
8.62203e-05
3.66225e-05
6.74144e-05
3.7588e-05
4.83927e-05
3.80383e-05
2.9372e-05
3.80429e-05
1.06384e-05
3.74499e-05
-7.6175e-06
3.64989e-05
-2.52744e-05
3.53033e-05
-4.2083e-05
3.36054e-05
-5.7976e-05
3.17877e-05
-7.2896e-05
2.98384e-05
-8.67362e-05
2.76704e-05
-9.94745e-05
2.54698e-05
-0.000111138
2.33298e-05
-0.000121776
2.12795e-05
-0.000131309
1.90705e-05
-0.000139869
1.71158e-05
-0.0001474
1.50608e-05
-0.000154029
1.32662e-05
-0.000159838
1.16155e-05
-0.000164776
9.87476e-06
-0.000168981
8.40853e-06
-0.000172432
6.89941e-06
-0.00017522
5.58867e-06
-0.000177425
4.40814e-06
-0.000178999
3.14029e-06
-0.000179996
2.00252e-06
-0.000180415
8.44595e-07
-0.000180312
-2.09069e-07
-0.000179632
-1.3578e-06
-0.000178348
-2.55757e-06
-0.000176481
-3.7432e-06
-0.00017401
-4.9524e-06
-0.00017087
-6.27593e-06
-0.00016705
-7.63482e-06
-0.000162511
-9.07999e-06
-0.000157209
-1.0603e-05
-0.000151086
-1.22482e-05
-0.00014424
-1.3696e-05
-0.000136479
-1.55196e-05
-0.000127799
-1.73553e-05
-0.000118171
-1.92648e-05
-0.0001076
-2.11402e-05
-9.60064e-05
-2.31802e-05
-8.33989e-05
-2.52169e-05
-6.98228e-05
-2.7146e-05
-5.5282e-05
-2.90777e-05
-3.97917e-05
-3.09738e-05
-2.35881e-05
-3.23991e-05
-6.59221e-06
-3.39866e-05
1.09921e-05
-3.51605e-05
2.90081e-05
-3.60208e-05
4.72782e-05
-3.65209e-05
6.55816e-05
-3.65949e-05
8.36901e-05
-3.62073e-05
0.000101377
-3.53691e-05
0.000118381
-3.39878e-05
0.000134437
-3.20922e-05
0.0001493
-2.97195e-05
0.00016275
-2.68971e-05
0.000174569
-2.36156e-05
0.000184501
-1.9861e-05
0.000192416
-1.58359e-05
0.000198184
-1.15284e-05
0.000201718
-7.05789e-06
0.000202938
-2.44705e-06
0.000201888
2.09284e-06
0.000198523
6.72726e-06
0.000192932
1.11739e-05
0.00018529
1.52765e-05
0.000175694
1.9181e-05
0.000164331
2.27032e-05
0.000151409
2.58469e-05
0.000137112
2.85893e-05
0.000121674
3.08584e-05
0.000105313
3.27063e-05
8.82175e-05
3.41824e-05
7.06134e-05
3.52021e-05
5.271e-05
3.57906e-05
3.46713e-05
3.60596e-05
1.66694e-05
3.60013e-05
-1.08047e-06
3.54865e-05
-1.8456e-05
3.47408e-05
-3.5325e-05
3.37392e-05
-5.15008e-05
3.2336e-05
-6.69077e-05
3.08088e-05
-8.14787e-05
2.91497e-05
-9.51147e-05
2.72615e-05
-0.000107728
2.52205e-05
-0.000119311
2.31699e-05
-0.000129833
2.10424e-05
-0.000139275
1.88817e-05
-0.000147664
1.67827e-05
-0.000154962
1.45908e-05
-0.000161213
1.24992e-05
-0.000166466
1.05103e-05
-0.000170792
8.65459e-06
-0.000174142
6.70532e-06
-0.000176635
4.98343e-06
-0.000178269
3.26578e-06
-0.00017912
1.71738e-06
-0.000179274
3.08578e-07
-0.00017873
-1.09545e-06
-0.000177531
-2.39038e-06
-0.000175732
-3.5941e-06
-0.000173322
-4.82368e-06
-0.000170339
-5.97036e-06
-0.000166819
-7.02826e-06
-0.000162723
-8.1926e-06
-0.000158054
-9.34422e-06
-0.000152768
-1.05684e-05
-0.000146848
-1.18315e-05
-0.000140266
-1.31542e-05
-0.000133048
-1.44598e-05
-0.000125034
-1.60307e-05
-0.000116228
-1.76038e-05
-0.000106555
-1.93428e-05
-9.60362e-05
-2.10403e-05
-8.45775e-05
-2.29113e-05
-7.2179e-05
-2.47965e-05
-5.88654e-05
-2.66256e-05
-4.46075e-05
-2.85215e-05
-2.94392e-05
-3.03348e-05
-1.34965e-05
-3.18597e-05
3.19518e-06
-3.33828e-05
2.0498e-05
-3.4598e-05
3.82567e-05
-3.55042e-05
5.62962e-05
-3.60643e-05
7.43789e-05
-3.61566e-05
9.22828e-05
-3.57966e-05
0.000109755
-3.49323e-05
0.000126514
-3.35011e-05
0.000142291
-3.15403e-05
0.000156819
-2.90468e-05
0.000169842
-2.60308e-05
0.000181108
-2.25236e-05
0.000190423
-1.8629e-05
0.000197563
-1.427e-05
0.000202447
-9.77215e-06
0.000204998
-5.08559e-06
0.000205146
-3.02052e-07
0.000202909
4.46159e-06
0.000198307
9.20111e-06
0.000191554
1.34944e-05
0.000182732
1.76354e-05
0.0001721
2.12609e-05
0.000159765
2.46501e-05
0.000145966
2.75869e-05
0.000131
2.99195e-05
0.000115162
3.16668e-05
9.86257e-05
3.30685e-05
8.15269e-05
3.41786e-05
6.42192e-05
3.461e-05
4.69365e-05
3.45547e-05
2.97579e-05
3.4345e-05
1.28164e-05
3.38825e-05
-3.62556e-06
3.28713e-05
-1.958e-05
3.19031e-05
-3.48128e-05
3.04569e-05
-4.94649e-05
2.93018e-05
-6.32616e-05
2.75863e-05
-7.62245e-05
2.59298e-05
-8.85085e-05
2.45678e-05
-9.98138e-05
2.25997e-05
-0.000110369
2.11097e-05
-0.000120087
1.94377e-05
-0.000128965
1.77485e-05
-0.000137022
1.61145e-05
-0.000144281
1.45163e-05
-0.000150721
1.28784e-05
-0.000156431
1.14222e-05
-0.000161321
9.78393e-06
-0.00016545
8.2599e-06
-0.000168825
6.75357e-06
-0.000171347
5.03093e-06
-0.000173175
3.65718e-06
-0.000174254
2.1634e-06
-0.000174568
6.29864e-07
-0.000174077
-9.87267e-07
-0.000172801
-2.54918e-06
-0.00017069
-4.22072e-06
-0.000167901
-5.57749e-06
-0.000164245
-7.30838e-06
-0.0001598
-8.89506e-06
-0.000154594
-1.04184e-05
-0.000148516
-1.21476e-05
-0.000141665
-1.37004e-05
-0.000134006
-1.53092e-05
-0.000125256
-1.75122e-05
-0.000115713
-1.90825e-05
-0.000105225
-2.09741e-05
-9.383e-05
-2.2786e-05
-8.16037e-05
-2.44498e-05
-6.84582e-05
-2.62851e-05
-5.44113e-05
-2.81e-05
-3.97209e-05
-2.93686e-05
-2.41878e-05
-3.10629e-05
-8.02658e-06
-3.23135e-05
8.58433e-06
-3.32191e-05
2.56124e-05
-3.40469e-05
4.27572e-05
-3.42739e-05
6.00074e-05
-3.4489e-05
7.7167e-05
-3.43158e-05
9.38976e-05
-3.34534e-05
0.000110123
-3.24374e-05
0.000125649
-3.10303e-05
0.000140191
-2.90783e-05
0.000153513
-2.66389e-05
0.000165495
-2.39491e-05
0.000176016
-2.10333e-05
0.00018485
-1.76631e-05
0.000191833
-1.39429e-05
0.00019688
-1.00958e-05
0.000199835
-5.92276e-06
0.000200717
-1.75914e-06
0.000199461
2.50405e-06
0.000196027
6.86213e-06
0.000190579
1.08933e-05
0.000183187
1.47755e-05
0.000173912
1.85438e-05
0.000163103
2.16089e-05
0.000150879
2.44386e-05
0.000137299
2.71487e-05
0.000122741
2.91063e-05
0.000107193
3.1083e-05
9.11893e-05
3.19974e-05
7.46892e-05
3.299e-05
5.78621e-05
3.36452e-05
4.10259e-05
3.36645e-05
2.42459e-05
3.35507e-05
3.29578e-05
-0.000177692
9.94112e-06
-0.000180195
7.4938e-06
-0.000181982
5.34337e-06
-0.000183081
3.2995e-06
-0.000183482
1.21955e-06
-0.000183168
-9.30025e-07
-0.000182051
-3.34681e-06
-0.000180229
-5.46707e-06
-0.000177801
-7.27945e-06
-0.000174578
-9.67195e-06
-0.000170634
-1.18323e-05
-0.000165905
-1.42103e-05
-0.000160273
-1.68911e-05
-0.000153862
-1.92367e-05
-0.000146523
-2.20242e-05
-0.000138312
-2.46507e-05
-0.000129247
-2.71971e-05
-0.000119224
-3.00634e-05
-0.000108197
-3.30809e-05
-9.63257e-05
-3.56132e-05
-8.33334e-05
-3.89706e-05
-6.9365e-05
-4.18943e-05
-5.44613e-05
-4.47525e-05
-3.8575e-05
-4.75932e-05
-2.20114e-05
-4.96694e-05
-4.50329e-06
-5.25653e-05
1.35573e-05
-5.40979e-05
3.20531e-05
-5.54321e-05
5.09454e-05
-5.66246e-05
6.99901e-05
-5.70924e-05
8.88345e-05
-5.65006e-05
0.000107426
-5.57194e-05
0.000125451
-5.4003e-05
0.000142645
-5.1526e-05
0.000158747
-4.82565e-05
0.000173368
-4.3816e-05
0.00018642
-3.91031e-05
0.000197677
-3.37371e-05
0.000206915
-2.76759e-05
0.000213972
-2.11429e-05
0.000218649
-1.4031e-05
0.00022102
-7.0934e-06
0.000220901
3.38628e-07
0.00021818
8.11462e-06
0.000213076
1.52984e-05
0.000205687
2.21538e-05
0.000196069
2.88266e-05
0.000184553
3.4507e-05
0.000171248
3.98766e-05
0.000156283
4.48278e-05
0.000140036
4.86953e-05
0.000122759
5.17826e-05
0.000104755
5.39524e-05
8.61254e-05
5.58429e-05
6.72873e-05
5.64745e-05
4.83178e-05
5.68527e-05
2.94604e-05
5.65373e-05
1.10547e-05
5.51912e-05
-6.91705e-06
5.38675e-05
-2.42845e-05
5.20761e-05
-4.08956e-05
4.98093e-05
-5.67079e-05
4.74151e-05
-7.16278e-05
4.47587e-05
-8.56344e-05
4.20142e-05
-9.87136e-05
3.92312e-05
-0.000110781
3.62084e-05
-0.000121895
3.33496e-05
-0.000132075
3.05441e-05
-0.000141277
2.76132e-05
-0.000149608
2.49845e-05
-0.000157014
2.22353e-05
-0.000163506
1.94833e-05
-0.000169197
1.70688e-05
-0.000173997
1.4403e-05
-0.000177874
1.16267e-05
-0.000180939
9.20575e-06
-0.00018312
6.54456e-06
-0.00018455
4.27747e-06
-0.000185133
1.75018e-06
-0.000184855
-8.84663e-07
-0.000183717
-3.40068e-06
-0.00018184
-5.60118e-06
-0.000179189
-7.97051e-06
-0.000175763
-1.02842e-05
-0.000171575
-1.25888e-05
-0.000166679
-1.4676e-05
-0.000160993
-1.70461e-05
-0.000154661
-1.9019e-05
-0.000147614
-2.11335e-05
-0.000139836
-2.33395e-05
-0.00013138
-2.53796e-05
-0.000122178
-2.76378e-05
-0.000112184
-2.99597e-05
-0.000101497
-3.20936e-05
-8.99788e-05
-3.45563e-05
-7.76438e-05
-3.70068e-05
-6.44918e-05
-3.94196e-05
-5.05758e-05
-4.17778e-05
-3.58902e-05
-4.40489e-05
-2.04781e-05
-4.62302e-05
-4.44594e-06
-4.80663e-05
1.20997e-05
-4.95994e-05
2.90703e-05
-5.08574e-05
4.62832e-05
-5.16215e-05
6.36003e-05
-5.19065e-05
8.08495e-05
-5.16931e-05
9.78139e-05
-5.0841e-05
0.000114292
-4.93921e-05
0.00013005
-4.72474e-05
0.000144886
-4.44576e-05
0.000158569
-4.09769e-05
0.000170834
-3.67429e-05
0.000181466
-3.18643e-05
0.000190269
-2.63635e-05
0.000197016
-2.02207e-05
0.000201589
-1.36861e-05
0.000203848
-6.73383e-06
0.000203708
4.24836e-07
0.000201067
7.84345e-06
0.000196028
1.51097e-05
0.000188623
2.21647e-05
0.000178994
2.88834e-05
0.000167317
3.49863e-05
0.000153755
4.06331e-05
0.000138599
4.54286e-05
0.000122108
4.94078e-05
0.000104558
5.25757e-05
8.62212e-05
5.49597e-05
6.73963e-05
5.64129e-05
4.83509e-05
5.70836e-05
2.93102e-05
5.70836e-05
1.05586e-05
5.62016e-05
-7.70661e-06
5.47642e-05
-2.53611e-05
5.29578e-05
-4.21891e-05
5.04335e-05
-5.80838e-05
4.76823e-05
-7.30054e-05
4.476e-05
-8.68599e-05
4.15249e-05
-9.96024e-05
3.82123e-05
-0.000111255
3.49823e-05
-0.000121898
3.19224e-05
-0.000131432
2.86042e-05
-0.000139986
2.56699e-05
-0.000147515
2.25906e-05
-0.000154129
1.98798e-05
-0.000159942
1.74285e-05
-0.000164885
1.48174e-05
-0.00016907
1.25936e-05
-0.000172518
1.0348e-05
-0.000175299
8.36992e-06
-0.000177511
6.61987e-06
-0.000179084
4.71299e-06
-0.000180078
2.99618e-06
-0.000180483
1.24977e-06
-0.000180374
-3.17897e-07
-0.000179719
-2.01319e-06
-0.000178432
-3.84439e-06
-0.000176554
-5.62081e-06
-0.000174087
-7.41921e-06
-0.000170953
-9.41073e-06
-0.000167141
-1.14463e-05
-0.0001626
-1.36211e-05
-0.0001573
-1.59032e-05
-0.000151179
-1.83692e-05
-0.000144338
-2.05368e-05
-0.000136577
-2.32807e-05
-0.000127898
-2.60345e-05
-0.000118274
-2.88884e-05
-0.000107706
-3.17091e-05
-9.61159e-05
-3.477e-05
-8.35079e-05
-3.78249e-05
-6.99265e-05
-4.07275e-05
-5.53846e-05
-4.36196e-05
-3.98879e-05
-4.64706e-05
-2.36655e-05
-4.86216e-05
-6.6514e-06
-5.10009e-05
1.09428e-05
-5.27548e-05
2.89679e-05
-5.4046e-05
4.72509e-05
-5.48039e-05
6.55801e-05
-5.49243e-05
8.37258e-05
-5.43532e-05
0.000101419
-5.30624e-05
0.000118433
-5.1002e-05
0.000134514
-4.81735e-05
0.000149404
-4.46093e-05
0.000162873
-4.03663e-05
0.000174703
-3.54459e-05
0.000184647
-2.98044e-05
0.000192578
-2.37676e-05
0.000198349
-1.72999e-05
0.000201893
-1.06012e-05
0.000203116
-3.671e-06
0.000202032
3.17719e-06
0.000198663
1.0096e-05
0.000193074
1.67635e-05
0.000185417
2.29328e-05
0.000175808
2.87904e-05
0.000164427
3.40839e-05
0.000151483
3.87909e-05
0.000137172
4.28999e-05
0.000121731
4.62991e-05
0.00010535
4.90878e-05
8.82265e-05
5.13058e-05
7.06081e-05
5.28205e-05
5.26917e-05
5.3707e-05
3.46369e-05
5.41144e-05
1.66311e-05
5.40071e-05
-1.13598e-06
5.32536e-05
-1.85348e-05
5.21396e-05
-3.54017e-05
5.06061e-05
-5.1582e-05
4.85162e-05
-6.7006e-05
4.62328e-05
-8.1582e-05
4.37257e-05
-9.52186e-05
4.08981e-05
-0.000107833
3.78348e-05
-0.000119423
3.47596e-05
-0.000129948
3.15678e-05
-0.000139396
2.83294e-05
-0.000147772
2.5159e-05
-0.000155071
2.18902e-05
-0.000161323
1.87509e-05
-0.000166567
1.57542e-05
-0.000170888
1.29756e-05
-0.000174234
1.00517e-05
-0.000176719
7.46826e-06
-0.000178359
4.90563e-06
-0.000179211
2.5693e-06
-0.000179336
4.33208e-07
-0.000178805
-1.62674e-06
-0.000177598
-3.59703e-06
-0.000175796
-5.39565e-06
-0.000173386
-7.23379e-06
-0.000170412
-8.94495e-06
-0.000166884
-1.05562e-05
-0.000162785
-1.22914e-05
-0.000158114
-1.40151e-05
-0.000152837
-1.58454e-05
-0.000146925
-1.77436e-05
-0.000140334
-1.97449e-05
-0.000133119
-2.16756e-05
-0.000125115
-2.40343e-05
-0.000116315
-2.64034e-05
-0.000106648
-2.90103e-05
-9.61268e-05
-3.15615e-05
-8.46622e-05
-3.43759e-05
-7.2273e-05
-3.71858e-05
-5.89501e-05
-3.99487e-05
-4.4686e-05
-4.27857e-05
-2.95308e-05
-4.54902e-05
-1.35725e-05
-4.78181e-05
3.14256e-06
-5.0098e-05
2.0459e-05
-5.19146e-05
3.82269e-05
-5.32722e-05
5.62854e-05
-5.41229e-05
7.439e-05
-5.42614e-05
9.23157e-05
-5.37223e-05
0.000109806
-5.24231e-05
0.000126588
-5.02826e-05
0.000142389
-4.73421e-05
0.000156947
-4.36046e-05
0.000169982
-3.90661e-05
0.000181267
-3.38089e-05
0.000190583
-2.79446e-05
0.000197739
-2.14263e-05
0.000202637
-1.46706e-05
0.000205193
-7.64118e-06
0.000205319
-4.28425e-07
0.000203068
6.71285e-06
0.000198462
1.38065e-05
0.000191697
2.02593e-05
0.000182869
2.64631e-05
0.000172227
3.1903e-05
0.000159859
3.70187e-05
0.00014605
4.13951e-05
0.000131062
4.49081e-05
0.000115204
4.75243e-05
9.86659e-05
4.96065e-05
8.15338e-05
5.13107e-05
6.42151e-05
5.19286e-05
4.69232e-05
5.18467e-05
2.9723e-05
5.15451e-05
1.27737e-05
5.08319e-05
-3.67666e-06
4.93216e-05
-1.96327e-05
4.78592e-05
-3.48782e-05
4.57024e-05
-4.95313e-05
4.39549e-05
-6.33384e-05
4.13935e-05
-7.6296e-05
3.88873e-05
-8.85802e-05
3.6852e-05
-9.9893e-05
3.39125e-05
-0.000110443
3.16593e-05
-0.000120154
2.91487e-05
-0.00012904
2.66346e-05
-0.000137098
2.41731e-05
-0.000144352
2.17702e-05
-0.000150792
1.93181e-05
-0.000156507
1.71376e-05
-0.000161392
1.46684e-05
-0.000165526
1.23938e-05
-0.000168894
1.01215e-05
-0.000171421
7.55801e-06
-0.000173249
5.48532e-06
-0.000174322
3.23607e-06
-0.000174629
9.36757e-07
-0.000174141
-1.47473e-06
-0.000172863
-3.82728e-06
-0.00017075
-6.33331e-06
-0.00016796
-8.36767e-06
-0.000164305
-1.09632e-05
-0.000159867
-1.33336e-05
-0.000154672
-1.56139e-05
-0.000148581
-1.82379e-05
-0.00014173
-2.05516e-05
-0.000134069
-2.29707e-05
-0.000125329
-2.62514e-05
-0.000115786
-2.86264e-05
-0.000105296
-3.14636e-05
-9.39003e-05
-3.41818e-05
-8.16714e-05
-3.66788e-05
-6.85238e-05
-3.94328e-05
-5.44873e-05
-4.21365e-05
-3.97768e-05
-4.40791e-05
-2.42413e-05
-4.65984e-05
-8.06399e-06
-4.8491e-05
8.56249e-06
-4.98457e-05
2.56037e-05
-5.10882e-05
4.27621e-05
-5.14324e-05
6.00331e-05
-5.176e-05
7.72163e-05
-5.14992e-05
9.39664e-05
-5.02036e-05
0.0001102
-4.86715e-05
0.000125743
-4.6573e-05
0.000140315
-4.36505e-05
0.000153663
-3.99872e-05
0.00016566
-3.59455e-05
0.000176203
-3.1577e-05
0.000185039
-2.64989e-05
0.000192022
-2.09257e-05
0.000197087
-1.51609e-05
0.000200044
-8.88046e-06
0.000200915
-2.63033e-06
0.000199633
3.78637e-06
0.000196185
1.03097e-05
0.00019073
1.63487e-05
0.000183324
2.2181e-05
0.000174039
2.78286e-05
0.000163219
3.24291e-05
0.000150976
3.66813e-05
0.00013738
4.07449e-05
0.000122804
4.36818e-05
0.000107242
4.66453e-05
9.12235e-05
4.80157e-05
7.47077e-05
4.95058e-05
5.78663e-05
5.04864e-05
4.10176e-05
5.05132e-05
2.42208e-05
5.03474e-05
4.94543e-05
-0.000177789
1.32661e-05
-0.000180303
1.00077e-05
-0.0001821
7.14007e-06
-0.000183199
4.398e-06
-0.000183587
1.60766e-06
-0.000183256
-1.26036e-06
-0.000182137
-4.46583e-06
-0.000180314
-7.28998e-06
-0.000177884
-9.70977e-06
-0.000174662
-1.28941e-05
-0.000170721
-1.57733e-05
-0.000166003
-1.89282e-05
-0.000160367
-2.25273e-05
-0.000153958
-2.56454e-05
-0.000146627
-2.93558e-05
-0.000138426
-3.28514e-05
-0.000129365
-3.62583e-05
-0.000119337
-4.00912e-05
-0.00010831
-4.41087e-05
-9.64391e-05
-4.74839e-05
-8.34429e-05
-5.19669e-05
-6.94753e-05
-5.5862e-05
-5.4597e-05
-5.96309e-05
-3.86677e-05
-6.35227e-05
-2.20954e-05
-6.62418e-05
-4.61827e-06
-7.00426e-05
1.35111e-05
-7.22274e-05
3.20345e-05
-7.39557e-05
5.09525e-05
-7.55427e-05
7.00258e-05
-7.61658e-05
8.88962e-05
-7.53711e-05
0.00010752
-7.43429e-05
0.000125577
-7.20603e-05
0.0001428
-6.8749e-05
0.000158942
-6.43988e-05
0.000173587
-5.84614e-05
0.000186666
-5.21826e-05
0.000197954
-4.50253e-05
0.000207206
-3.69274e-05
0.000214271
-2.82087e-05
0.000218956
-1.87161e-05
0.000221329
-9.4659e-06
0.00022119
4.77333e-07
0.000218447
1.08574e-05
0.000213337
2.04082e-05
0.000205937
2.95534e-05
0.000196307
3.8457e-05
0.000184763
4.60506e-05
0.000171434
5.32053e-05
0.000156432
5.98302e-05
0.000140159
6.49686e-05
0.000122855
6.9086e-05
0.000104815
7.19923e-05
8.61598e-05
7.44982e-05
6.72985e-05
7.53358e-05
4.82967e-05
7.58544e-05
2.9421e-05
7.5413e-05
1.10011e-05
7.36111e-05
-6.99452e-06
7.18631e-05
-2.43753e-05
6.94569e-05
-4.0997e-05
6.64309e-05
-5.68213e-05
6.32394e-05
-7.17346e-05
5.9672e-05
-8.57397e-05
5.60193e-05
-9.8822e-05
5.23135e-05
-0.000110883
4.8269e-05
-0.000121992
4.44593e-05
-0.00013217
4.0722e-05
-0.000141366
3.68091e-05
-0.000149702
3.33199e-05
-0.000157095
2.96286e-05
-0.00016358
2.59678e-05
-0.000169269
2.2758e-05
-0.000174069
1.92027e-05
-0.000177953
1.55103e-05
-0.000181014
1.22673e-05
-0.000183194
8.72368e-06
-0.000184643
5.72701e-06
-0.000185225
2.33212e-06
-0.000184966
-1.14426e-06
-0.000183839
-4.52789e-06
-0.000181949
-7.49183e-06
-0.000179292
-1.0627e-05
-0.000175862
-1.37151e-05
-0.000171683
-1.67674e-05
-0.000166788
-1.95713e-05
-0.000161117
-2.27179e-05
-0.000154784
-2.53518e-05
-0.000147724
-2.81936e-05
-0.000139953
-3.11107e-05
-0.000131494
-3.38386e-05
-0.000122302
-3.68296e-05
-0.00011233
-3.9932e-05
-0.000101643
-4.27813e-05
-9.01323e-05
-4.60666e-05
-7.77953e-05
-4.93439e-05
-6.46115e-05
-5.26036e-05
-5.07234e-05
-5.56661e-05
-3.60265e-05
-5.87459e-05
-2.06007e-05
-6.16561e-05
-4.56218e-06
-6.4105e-05
1.20053e-05
-6.61671e-05
2.8996e-05