/*--------------------------------*- C++ -*----------------------------------*\
| =========                 |                                                 |
| \\      /  F ield         | OpenFOAM: The Open Source CFD Toolbox           |
|  \\    /   O peration     | Version:  3.0.1                                 |
|   \\  /    A nd           | Web:      www.OpenFOAM.org                      |
|    \\/     M anipulation  |                                                 |
\*---------------------------------------------------------------------------*/
FoamFile
{
    version     2.0;
    format      ascii;
    class       surfaceScalarField;
    location    "92";
    object      alphaPhi;
}
// * * * * * * * * * * * * * * * * * * * * * * * * * * * * * * * * * * * * * //

dimensions      [0 3 -1 0 0 0 0];

internalField   nonuniform List<scalar> 
42423
(
-9.38698e-05
1.02814e-05
-0.000103177
9.30671e-06
-0.000111616
8.43918e-06
-0.000119207
7.59172e-06
-0.000125973
6.76595e-06
-0.000131959
5.98568e-06
-0.000137181
5.2218e-06
-0.000141675
4.49398e-06
-0.000145465
3.78998e-06
-0.000148572
3.10759e-06
-0.000151025
2.45241e-06
-0.000152812
1.78679e-06
-0.000153953
1.14101e-06
-0.000154445
4.9241e-07
-0.000154237
-2.08114e-07
-0.000153331
-9.05742e-07
-0.000151847
-1.48469e-06
-0.000149556
-2.29021e-06
-0.000146539
-3.01742e-06
-0.000142881
-3.65764e-06
-0.000138355
-4.52595e-06
-0.000132998
-5.35698e-06
-0.00012691
-6.08826e-06
-0.00011982
-7.08995e-06
-0.000111864
-7.95622e-06
-0.00010288
-8.98367e-06
-9.29112e-05
-9.96906e-06
-8.20216e-05
-1.08896e-05
-7.00238e-05
-1.19978e-05
-5.69701e-05
-1.30537e-05
-4.30293e-05
-1.39408e-05
-2.80238e-05
-1.50056e-05
-1.21151e-05
-1.59087e-05
4.66673e-06
-1.67818e-05
2.22604e-05
-1.75937e-05
4.03306e-05
-1.80703e-05
5.89569e-05
-1.86262e-05
7.79625e-05
-1.90057e-05
9.69353e-05
-1.89728e-05
0.000115835
-1.89001e-05
0.000134309
-1.8474e-05
0.000152198
-1.78882e-05
0.000169227
-1.7029e-05
0.000185033
-1.58067e-05
0.000199436
-1.44027e-05
0.000212167
-1.2731e-05
0.00022296
-1.07928e-05
0.00023166
-8.7002e-06
0.000238135
-6.47543e-06
0.000242158
-4.02256e-06
0.00024377
-1.61198e-06
0.000242922
8.47703e-07
0.000239557
3.36477e-06
0.000233878
5.67969e-06
0.000225825
8.05248e-06
0.000215698
1.01276e-05
0.000203702
1.19957e-05
0.00018989
1.3812e-05
0.000174681
1.52085e-05
0.000158175
1.65057e-05
0.00014062
1.75558e-05
0.000122368
1.82519e-05
0.000103675
1.86923e-05
8.47313e-05
1.89442e-05
6.56764e-05
1.90549e-05
4.69315e-05
1.87449e-05
2.85049e-05
1.84266e-05
1.05978e-05
1.79071e-05
-6.62408e-06
1.72219e-05
-2.31621e-05
1.6538e-05
-3.88094e-05
1.56473e-05
-5.36336e-05
1.48241e-05
-6.75728e-05
1.39392e-05
-8.05424e-05
1.29696e-05
-9.25303e-05
1.19878e-05
-0.00010362
1.10895e-05
-0.000113717
1.00971e-05
-0.000122978
9.26153e-06
-0.00013134
8.36196e-06
-0.000138828
7.48719e-06
-0.000145513
6.68501e-06
-0.000151358
5.84535e-06
-0.000156352
4.99374e-06
-0.000160523
4.17087e-06
-0.000163873
3.35002e-06
-0.000166397
2.52345e-06
-0.000168026
1.62848e-06
-0.000168775
7.4878e-07
-0.000168598
-1.77367e-07
-0.000167446
-1.15235e-06
-0.000165355
-2.09065e-06
-0.000162341
-3.01492e-06
-0.000158483
-3.85832e-06
-0.000153941
-4.54245e-06
-0.000148675
-5.26533e-06
-0.000142761
-5.9145e-06
-0.000136177
-6.58438e-06
-0.000128933
-7.24479e-06
-0.000120947
-7.98592e-06
-0.000112216
-8.73095e-06
-0.000102726
-9.49028e-06
-9.23243e-05
-1.04019e-05
-8.10464e-05
-1.1278e-05
-6.88727e-05
-1.21737e-05
-5.57649e-05
-1.31079e-05
-4.17518e-05
-1.40132e-05
-2.68632e-05
-1.48887e-05
-1.12451e-05
-1.56182e-05
5.11776e-06
-1.63629e-05
2.2086e-05
-1.69683e-05
3.95438e-05
-1.74578e-05
5.73381e-05
-1.77943e-05
7.53078e-05
-1.79697e-05
9.33181e-05
-1.80103e-05
0.000111113
-1.7795e-05
0.000128531
-1.74178e-05
0.000145332
-1.68013e-05
0.000161303
-1.59711e-05
0.000176229
-1.49256e-05
0.000189864
-1.36354e-05
0.000201983
-1.21186e-05
0.000212339
-1.03558e-05
0.000220721
-8.38213e-06
0.000226961
-6.2399e-06
0.00023093
-3.96944e-06
0.000232472
-1.54095e-06
0.000231652
8.19295e-07
0.000228326
3.32669e-06
0.000222583
5.74313e-06
0.000214551
8.03157e-06
0.000204302
1.02494e-05
0.000192123
1.21787e-05
0.000178161
1.39622e-05
0.000162634
1.55273e-05
0.000145863
1.67711e-05
0.000128013
1.78499e-05
0.000109409
1.86042e-05
9.03454e-05
1.90632e-05
7.10017e-05
1.93437e-05
5.1609e-05
1.93926e-05
3.24558e-05
1.91533e-05
1.37474e-05
1.87083e-05
-4.41386e-06
1.81613e-05
-2.17966e-05
1.73827e-05
-3.8253e-05
1.64565e-05
-5.37649e-05
1.55118e-05
-6.81768e-05
1.44119e-05
-8.1473e-05
1.32963e-05
-9.36053e-05
1.21322e-05
-0.000104687
1.10822e-05
-0.000114701
1.00131e-05
-0.000123675
8.97445e-06
-0.000131645
7.97046e-06
-0.000138665
7.01912e-06
-0.000144782
6.11749e-06
-0.00015001
5.22827e-06
-0.000154508
4.49742e-06
-0.000158211
3.70376e-06
-0.000161225
3.01342e-06
-0.000163534
2.30961e-06
-0.000165175
1.64016e-06
-0.000166166
9.91165e-07
-0.000166669
5.03061e-07
-0.000166526
-1.43103e-07
-0.000165778
-7.48039e-07
-0.000164476
-1.30152e-06
-0.00016256
-1.91593e-06
-0.000160031
-2.52901e-06
-0.00015698
-3.05134e-06
-0.000153232
-3.74794e-06
-0.000148808
-4.42341e-06
-0.000143675
-5.13374e-06
-0.000137811
-5.86308e-06
-0.000131165
-6.64606e-06
-0.000123771
-7.3948e-06
-0.000115585
-8.18568e-06
-0.000106605
-8.97948e-06
-9.67777e-05
-9.82776e-06
-8.61099e-05
-1.06678e-05
-7.45359e-05
-1.1574e-05
-6.20938e-05
-1.24421e-05
-4.87899e-05
-1.3304e-05
-3.46422e-05
-1.41478e-05
-1.96868e-05
-1.49554e-05
-4.00049e-06
-1.56864e-05
1.23526e-05
-1.63531e-05
2.92483e-05
-1.68958e-05
4.65537e-05
-1.73054e-05
6.40947e-05
-1.75411e-05
8.16782e-05
-1.75835e-05
9.90744e-05
-1.73962e-05
0.000116072
-1.69977e-05
0.000132418
-1.63463e-05
0.000147865
-1.54471e-05
0.000162108
-1.42424e-05
0.000174894
-1.27868e-05
0.000185964
-1.107e-05
0.000195053
-9.08818e-06
0.000201979
-6.92694e-06
0.000206575
-4.59533e-06
0.000208725
-2.14998e-06
0.000208419
3.06079e-07
0.000205601
2.81802e-06
0.000200331
5.26981e-06
0.000192772
7.5589e-06
0.00018306
9.71153e-06
0.000171395
1.16657e-05
0.000157897
1.34973e-05
0.000142876
1.50208e-05
0.000126578
1.62981e-05
0.000109139
1.74395e-05
9.10505e-05
1.80882e-05
7.25109e-05
1.85396e-05
5.37591e-05
1.87518e-05
3.51564e-05
1.86026e-05
1.69581e-05
1.81982e-05
-7.74761e-07
1.77329e-05
-1.77642e-05
1.69894e-05
-3.39106e-05
1.61464e-05
-4.9164e-05
1.52534e-05
-6.34713e-05
1.43073e-05
-7.68213e-05
1.335e-05
-8.92041e-05
1.23828e-05
-0.000100581
1.13771e-05
-0.000111095
1.05142e-05
-0.00012062
9.52464e-06
-0.000129262
8.64226e-06
-0.000137027
7.76451e-06
-0.00014397
6.94382e-06
-0.000150135
6.1645e-06
-0.000155574
5.43909e-06
-0.000160324
4.75049e-06
-0.000164436
4.11173e-06
-0.000167932
3.49592e-06
-0.000170841
2.90867e-06
-0.00017318
2.33945e-06
-0.000174962
1.78243e-06
-0.000176144
1.18127e-06
-0.000176841
6.98011e-07
-0.000176889
4.79413e-08
-0.000176361
-5.28202e-07
-0.000175252
-1.10839e-06
-0.00017357
-1.68259e-06
-0.000171472
-2.09797e-06
-0.000168778
-2.69323e-06
-0.000165572
-3.20562e-06
-0.000161724
-3.84875e-06
-0.000157235
-4.48857e-06
-0.000151968
-5.26709e-06
-0.000145883
-6.08427e-06
-0.000138938
-6.94466e-06
-0.000131075
-7.86318e-06
-0.000122243
-8.8322e-06
-0.00011246
-9.78293e-06
-0.000101741
-1.07184e-05
-9.01215e-05
-1.16194e-05
-7.76448e-05
-1.24766e-05
-6.4345e-05
-1.32998e-05
-5.02998e-05
-1.40451e-05
-3.5571e-05
-1.47288e-05
-2.02492e-05
-1.53218e-05
-4.44132e-06
-1.58079e-05
1.17861e-05
-1.62275e-05
2.82515e-05
-1.64654e-05
4.48299e-05
-1.65785e-05
6.1359e-05
-1.65292e-05
7.76172e-05
-1.62583e-05
9.34092e-05
-1.57921e-05
0.000108525
-1.51163e-05
0.000122687
-1.41618e-05
0.000135647
-1.29601e-05
0.000147269
-1.16222e-05
0.000157325
-1.00558e-05
0.000165523
-8.19838e-06
0.000171898
-6.37531e-06
0.000176237
-4.33912e-06
0.000178504
-2.26652e-06
0.000178666
-1.61917e-07
0.000177153
1.51298e-06
0.000173625
3.52816e-06
0.00016828
5.34413e-06
0.000161242
7.03796e-06
0.000152257
8.98493e-06
0.00014151
1.07472e-05
0.000129017
1.24929e-05
0.000114889
1.41285e-05
9.93605e-05
1.55284e-05
8.27325e-05
1.6628e-05
6.52609e-05
1.74716e-05
4.72794e-05
1.79815e-05
2.90837e-05
1.81956e-05
1.10953e-05
1.79884e-05
-6.57722e-06
1.76725e-05
-2.36195e-05
1.70423e-05
-3.99042e-05
1.62847e-05
-5.53411e-05
1.54369e-05
-6.99018e-05
1.45607e-05
-8.35106e-05
1.36089e-05
-9.61546e-05
1.2644e-05
-0.000107836
1.16809e-05
-0.000118533
1.06976e-05
-0.000128287
9.75402e-06
-0.000137089
8.80169e-06
-0.000144964
7.87489e-06
-0.000151945
6.9814e-06
-0.000158043
6.09783e-06
-0.000163286
5.24353e-06
-0.000167705
4.41852e-06
-0.000171301
3.59625e-06
-0.000174095
2.79347e-06
-0.000176057
1.96261e-06
-0.000177185
1.12815e-06
-0.00017751
3.24566e-07
-0.000177161
-3.493e-07
-0.000176123
-1.0378e-06
-0.000174357
-1.76612e-06
-0.000171808
-2.54915e-06
-0.000168476
-3.33205e-06
-0.000164327
-4.14837e-06
-0.000159216
-5.11088e-06
-0.000153244
-5.97247e-06
-0.000146395
-6.84891e-06
-0.000138508
-7.88725e-06
-0.000129676
-8.83189e-06
-0.00011968
-9.9957e-06
-0.000108759
-1.09213e-05
-9.6965e-05
-1.1794e-05
-8.40776e-05
-1.28874e-05
-7.02376e-05
-1.384e-05
-5.55614e-05
-1.46762e-05
-3.98818e-05
-1.56797e-05
-2.31985e-05
-1.66833e-05
-6.08752e-06
-1.7111e-05
1.17928e-05
-1.78803e-05
3.00918e-05
-1.8299e-05
4.88269e-05
-1.8735e-05
6.77449e-05
-1.89181e-05
8.64823e-05
-1.87374e-05
0.000105048
-1.85658e-05
0.000123113
-1.80647e-05
0.000140352
-1.72389e-05
0.000156663
-1.63113e-05
0.000171723
-1.50598e-05
0.000185338
-1.36153e-05
0.000197252
-1.1914e-05
0.000207274
-1.00218e-05
0.000215206
-7.93242e-06
0.000220881
-5.67444e-06
0.000224133
-3.25234e-06
0.000224865
-7.31861e-07
0.000223048
1.81628e-06
0.000218764
4.28475e-06
0.000212096
6.66729e-06
0.000203072
9.02477e-06
0.000192087
1.09842e-05
0.000179146
1.29417e-05
1.46993e-05
-9.39094e-05
2.05653e-05
-0.000103217
1.8614e-05
-0.000111658
1.68811e-05
-0.000119252
1.51851e-05
-0.000126016
1.35304e-05
-0.000132001
1.19702e-05
-0.000137222
1.04427e-05
-0.000141718
8.99022e-06
-0.000145513
7.58461e-06
-0.000148619
6.21378e-06
-0.000151069
4.90308e-06
-0.000152861
3.57789e-06
-0.000154009
2.28905e-06
-0.000154498
9.81466e-07
-0.000154284
-4.21776e-07
-0.000153377
-1.81238e-06
-0.000151892
-2.96993e-06
-0.000149601
-4.58157e-06
-0.000146586
-6.03243e-06
-0.000142929
-7.31426e-06
-0.000138403
-9.05211e-06
-0.000133045
-1.07151e-05
-0.000126962
-1.21713e-05
-0.000119876
-1.41756e-05
-0.00011192
-1.59127e-05
-0.000102935
-1.79681e-05
-9.29565e-05
-1.99479e-05
-8.20733e-05
-2.17728e-05
-7.00724e-05
-2.39988e-05
-5.70174e-05
-2.61087e-05
-4.30766e-05
-2.78816e-05
-2.80645e-05
-3.00177e-05
-1.21548e-05
-3.18184e-05
4.62848e-06
-3.35651e-05
2.22324e-05
-3.51976e-05
4.03104e-05
-3.61483e-05
5.89424e-05
-3.72583e-05
7.79576e-05
-3.80209e-05
9.69403e-05
-3.79555e-05
0.000115848
-3.78079e-05
0.000134334
-3.69603e-05
0.00015224
-3.57944e-05
0.000169283
-3.40713e-05
0.000185102
-3.16256e-05
0.000199516
-2.88171e-05
0.000212259
-2.54744e-05
0.000223061
-2.15949e-05
0.00023177
-1.74091e-05
0.000238243
-1.29487e-05
0.000242272
-8.05106e-06
0.000243897
-3.23678e-06
0.000243038
1.70674e-06
0.000239675
6.72706e-06
0.000234001
1.13539e-05
0.000225943
1.61108e-05
0.000215808
2.02624e-05
0.000203804
2.39992e-05
0.000189985
2.76318e-05
0.000174763
3.043e-05
0.000158249
3.30202e-05
0.000140671
3.51332e-05
0.000122406
3.65177e-05
0.0001037
3.73981e-05
8.47527e-05
3.78912e-05
6.56976e-05
3.81099e-05
4.69296e-05
3.7513e-05
2.84763e-05
3.68798e-05
1.05594e-05
3.5824e-05
-6.67036e-06
3.44517e-05
-2.3215e-05
3.30827e-05
-3.88765e-05
3.13088e-05
-5.36943e-05
2.96419e-05
-6.76364e-05
2.78813e-05
-8.06051e-05
2.59383e-05
-9.25926e-05
2.39753e-05
-0.000103683
2.21802e-05
-0.00011378
2.01933e-05
-0.00012304
1.8522e-05
-0.000131404
1.6726e-05
-0.000138891
1.49741e-05
-0.000145573
1.33667e-05
-0.000151416
1.16888e-05
-0.000156406
9.98335e-06
-0.000160564
8.32883e-06
-0.000163923
6.70847e-06
-0.00016645
5.05024e-06
-0.000168075
3.25367e-06
-0.000168816
1.4894e-06
-0.000168632
-3.62138e-07
-0.000167476
-2.3089e-06
-0.00016538
-4.18648e-06
-0.000162363
-6.03215e-06
-0.000158488
-7.73354e-06
-0.00015394
-9.0909e-06
-0.000148665
-1.05407e-05
-0.000142745
-1.18345e-05
-0.000136152
-1.31775e-05
-0.000128902
-1.44953e-05
-0.000120898
-1.59902e-05
-0.000112187
-1.74416e-05
-0.000102704
-1.89742e-05
-9.23031e-05
-2.08025e-05
-8.09957e-05
-2.25855e-05
-6.88252e-05
-2.43444e-05
-5.57233e-05
-2.62099e-05
-4.17102e-05
-2.80264e-05
-2.67878e-05
-2.98111e-05
-1.11985e-05
-3.12075e-05
5.17086e-06
-3.27323e-05
2.21428e-05
-3.39403e-05
3.96074e-05
-3.49224e-05
5.74138e-05
-3.56008e-05
7.539e-05
-3.59459e-05
9.34067e-05
-3.60269e-05
0.000111203
-3.55914e-05
0.000128629
-3.48432e-05
0.000145436
-3.36085e-05
0.000161407
-3.19424e-05
0.000176338
-2.98561e-05
0.000189975
-2.72729e-05
0.000202086
-2.42293e-05
0.000212435
-2.07052e-05
0.000220815
-1.67613e-05
0.000227042
-1.24672e-05
0.000231008
-7.93489e-06
0.000232542
-3.07569e-06
0.000231688
1.67398e-06
0.000228326
6.68795e-06
0.000222562
1.15074e-05
0.000214525
1.60686e-05
0.000204242
2.05325e-05
0.000192054
2.43672e-05
0.000178068
2.79477e-05
0.000162486
3.11094e-05
0.000145688
3.35698e-05
0.000127841
3.56961e-05
0.00010919
3.72562e-05
9.00934e-05
3.81594e-05
7.07378e-05
3.86994e-05
5.13314e-05
3.87991e-05
3.21744e-05
3.83102e-05
1.34366e-05
3.74462e-05
-4.72319e-06
3.63211e-05
-2.21105e-05
3.477e-05
-3.85845e-05
3.29306e-05
-5.40796e-05
3.10069e-05
-6.84814e-05
2.88138e-05
-8.17597e-05
2.65745e-05
-9.39066e-05
2.42792e-05
-0.000104982
2.21577e-05
-0.000114971
2.00023e-05
-0.000123907
1.79102e-05
-0.000131861
1.59248e-05
-0.000138862
1.40197e-05
-0.000144987
1.22425e-05
-0.000150238
1.04798e-05
-0.000154734
8.99364e-06
-0.000158426
7.39483e-06
-0.000161411
5.99891e-06
-0.000163714
4.61266e-06
-0.000165353
3.27902e-06
-0.000166365
2.00322e-06
-0.000166814
9.5249e-07
-0.000166656
-3.01521e-07
-0.000165888
-1.51621e-06
-0.0001646
-2.5896e-06
-0.00016269
-3.82501e-06
-0.000160144
-5.07562e-06
-0.000157081
-6.11431e-06
-0.000153327
-7.50174e-06
-0.000148897
-8.85308e-06
-0.000143761
-1.02705e-05
-0.000137892
-1.17319e-05
-0.000131227
-1.33111e-05
-0.00012384
-1.4781e-05
-0.000115654
-1.63724e-05
-0.000106662
-1.79709e-05
-9.68299e-05
-1.96601e-05
-8.61552e-05
-2.13425e-05
-7.45771e-05
-2.31521e-05
-6.21383e-05
-2.4881e-05
-4.88303e-05
-2.66119e-05
-3.46693e-05
-2.83088e-05
-1.97059e-05
-2.99187e-05
-4.02272e-06
-3.13696e-05
1.23394e-05
-3.27152e-05
2.92381e-05
-3.37946e-05
4.65414e-05
-3.46087e-05
6.40835e-05
-3.50833e-05
8.16667e-05
-3.51668e-05
9.90669e-05
-3.47965e-05
0.000116061
-3.3992e-05
0.000132407
-3.26926e-05
0.000147866
-3.09058e-05
0.000162098
-2.84739e-05
0.000174882
-2.55712e-05
0.000185943
-2.21309e-05
0.000195034
-1.81795e-05
0.000201957
-1.38502e-05
0.000206538
-9.17599e-06
0.000208668
-4.28037e-06
0.000208373
6.01112e-07
0.000205505
5.68669e-06
0.000200215
1.05589e-05
0.000192649
1.51257e-05
0.000182909
1.94512e-05
0.000171217
2.33573e-05
0.000157712
2.70031e-05
0.00014267
3.00628e-05
0.000126314
3.26536e-05
0.000108901
3.48523e-05
9.07976e-05
3.61921e-05
7.2249e-05
3.70882e-05
5.34864e-05
3.75144e-05
3.49225e-05
3.71666e-05
1.66453e-05
3.64755e-05
-1.03194e-06
3.54101e-05
-1.80385e-05
3.3996e-05
-3.41862e-05
3.22942e-05
-4.94287e-05
3.0496e-05
-6.3746e-05
2.86246e-05
-7.70788e-05
2.66829e-05
-8.94474e-05
2.47514e-05
-0.000100821
2.27509e-05
-0.00011132
2.10126e-05
-0.000120838
1.90434e-05
-0.00012947
1.7274e-05
-0.000137228
1.5523e-05
-0.000144158
1.38731e-05
-0.000150311
1.23179e-05
-0.000155742
1.08699e-05
-0.000160487
9.49558e-06
-0.000164587
8.21172e-06
-0.000168066
6.97509e-06
-0.000170975
5.81809e-06
-0.00017331
4.67454e-06
-0.000175087
3.55909e-06
-0.000176272
2.36683e-06
-0.000176944
1.36979e-06
-0.000176991
9.48114e-08
-0.000176459
-1.05969e-06
-0.000175344
-2.2233e-06
-0.000173653
-3.37373e-06
-0.000171555
-4.1956e-06
-0.000168854
-5.39378e-06
-0.000165667
-6.3926e-06
-0.000161809
-7.7067e-06
-0.000157333
-8.9646e-06
-0.000152073
-1.05267e-05
-0.000145999
-1.21584e-05
-0.000139052
-1.38917e-05
-0.00013119
-1.57252e-05
-0.000122359
-1.76624e-05
-0.000112573
-1.95693e-05
-0.000101847
-2.14438e-05
-9.02205e-05
-2.32459e-05
-7.77332e-05
-2.49638e-05
-6.44282e-05
-2.66047e-05
-5.03796e-05
-2.80937e-05
-3.56421e-05
-2.94662e-05
-2.03132e-05
-3.06508e-05
-4.49177e-06
-3.16293e-05
1.17476e-05
-3.24669e-05
2.82212e-05
-3.2939e-05
4.48118e-05
-3.31692e-05
6.13509e-05
-3.30684e-05
7.76183e-05
-3.25259e-05
9.3425e-05
-3.15989e-05
0.000108546
-3.02373e-05
0.00012273
-2.83458e-05
0.000135695
-2.59254e-05
0.000147327
-2.32543e-05
0.000157377
-2.0106e-05
0.000165586
-1.64071e-05
0.000171956
-1.27457e-05
0.000176303
-8.68601e-06
0.000178577
-4.54084e-06
0.000178741
-3.26194e-07
0.000177228
3.02572e-06
0.000173698
7.05853e-06
0.000168375
1.06667e-05
0.000161323
1.40903e-05
0.000152339
1.79682e-05
0.000141594
2.14924e-05
0.000129097
2.49898e-05
0.000114962
2.82642e-05
9.94225e-05
3.10674e-05
8.27803e-05
3.32701e-05
6.52952e-05
3.49567e-05
4.72999e-05
3.59768e-05
2.9091e-05
3.64045e-05
1.10939e-05
3.59855e-05
-6.58756e-06
3.5354e-05
-2.36343e-05
3.4089e-05
-3.99219e-05
3.25722e-05
-5.53613e-05
3.08764e-05
-6.99241e-05
2.91235e-05
-8.35338e-05
2.72186e-05
-9.61785e-05
2.52887e-05
-0.00010786
2.33624e-05
-0.000118557
2.13947e-05
-0.00012831
1.95066e-05
-0.00013711
1.76017e-05
-0.000144983
1.57479e-05
-0.000151964
1.39623e-05
-0.000158064
1.21982e-05
-0.000163309
1.04886e-05
-0.000167724
8.8333e-06
-0.000171318
7.18993e-06
-0.000174116
5.59139e-06
-0.000176087
3.93387e-06
-0.000177216
2.2569e-06
-0.000177546
6.55408e-07
-0.000177205
-6.91125e-07
-0.000176176
-2.06639e-06
-0.000174418
-3.52436e-06
-0.000171867
-5.09989e-06
-0.000168531
-6.66842e-06
-0.000164373
-8.30598e-06
-0.000159273
-1.0211e-05
-0.000153299
-1.19463e-05
-0.000146452
-1.3696e-05
-0.000138558
-1.5781e-05
-0.000129731
-1.76591e-05
-0.000119734
-1.99928e-05
-0.000108809
-2.18463e-05
-9.70132e-05
-2.35899e-05
-8.4124e-05
-2.57766e-05
-7.02811e-05
-2.76829e-05
-5.56022e-05
-2.93552e-05
-3.9925e-05
-3.13569e-05
-2.32315e-05
-3.33768e-05
-6.10456e-06
-3.42379e-05
1.17712e-05
-3.57561e-05
3.00759e-05
-3.66038e-05
4.88164e-05
-3.74756e-05
6.7745e-05
-3.78467e-05
8.64931e-05
-3.74856e-05
0.00010507
-3.71427e-05
0.000123158
-3.61526e-05
0.000140409
-3.44905e-05
0.000156725
-3.2627e-05
0.000171795
-3.01296e-05
0.000185423
-2.72437e-05
0.000197342
-2.38332e-05
0.000207371
-2.00502e-05
0.0002153
-1.58616e-05
0.000220977
-1.13514e-05
0.000224238
-6.51316e-06
0.000224969
-1.46376e-06
0.000223142
3.64326e-06
0.000218858
8.56866e-06
0.000212189
1.33364e-05
0.000203156
1.80576e-05
0.000192164
2.1977e-05
0.000179212
2.58931e-05
2.94101e-05
-9.39831e-05
3.08486e-05
-0.000103289
2.79201e-05
-0.00011173
2.53214e-05
-0.000119322
2.27777e-05
-0.000126086
2.02945e-05
-0.000132071
1.79552e-05
-0.000137291
1.56622e-05
-0.000141785
1.3484e-05
-0.000145579
1.1379e-05
-0.000148691
9.32537e-06
-0.000151146
7.35818e-06
-0.00015293
5.36246e-06
-0.00015407
3.42873e-06
-0.00015455
1.46172e-06
-0.000154336
-6.35801e-07
-0.000153439
-2.70948e-06
-0.000151951
-4.45835e-06
-0.000149654
-6.878e-06
-0.000146641
-9.04595e-06
-0.000142984
-1.09708e-05
-0.000138462
-1.35739e-05
-0.000133107
-1.60702e-05
-0.000127025
-1.82537e-05
-0.000119938
-2.12621e-05
-0.000111979
-2.38719e-05
-0.000103001
-2.69464e-05
-9.30314e-05
-2.99176e-05
-8.21503e-05
-3.26539e-05
-7.015e-05
-3.59991e-05
-5.70942e-05
-3.91645e-05
-4.31514e-05
-4.18245e-05
-2.81336e-05
-4.50355e-05
-1.22196e-05
-4.77324e-05
4.57926e-06
-5.0364e-05
2.21919e-05
-5.28102e-05
4.02763e-05
-5.42328e-05
5.89208e-05
-5.59028e-05
7.79523e-05
-5.70524e-05
9.69491e-05
-5.69523e-05
0.000115876
-5.6735e-05
0.000134377
-5.54613e-05
0.000152301
-5.37186e-05
0.000169368
-5.11376e-05
0.000185211
-4.74687e-05
0.000199641
-4.32475e-05
0.000212403
-3.82367e-05
0.000223217
-3.24088e-05
0.000231947
-2.61394e-05
0.000238427
-1.94282e-05
0.000242454
-1.20785e-05
0.000244086
-4.86793e-06
0.000243206
2.58646e-06
0.000239849
1.00835e-05
0.000234181
1.70225e-05
0.000226114
2.41778e-05
0.000215963
3.04127e-05
0.000203944
3.60184e-05
0.000190115
4.14605e-05
0.000174862
4.56838e-05
0.000158299
4.95824e-05
0.00014072
5.27126e-05
0.000122434
5.48041e-05
0.000103703
5.61288e-05
8.47586e-05
5.68356e-05
6.57207e-05
5.71478e-05
4.68835e-05
5.63502e-05
2.84273e-05
5.5336e-05
1.04985e-05
5.37529e-05
-6.73333e-06
5.16835e-05
-2.32841e-05
4.96334e-05
-3.89594e-05
4.69842e-05
-5.37688e-05
4.44513e-05
-6.77158e-05
4.18283e-05
-8.0683e-05
3.89055e-05
-9.26687e-05
3.59611e-05
-0.000103757
3.32688e-05
-0.00011385
3.02855e-05
-0.000123112
2.7784e-05
-0.000131475
2.50896e-05
-0.000138958
2.24573e-05
-0.000145643
2.00515e-05
-0.000151488
1.75328e-05
-0.000156472
1.49674e-05
-0.000160636
1.24931e-05
-0.00016399
1.00624e-05
-0.00016653
7.58973e-06
-0.000168156
4.87978e-06
-0.000168895
2.22827e-06
-0.000168713
-5.45267e-07
-0.000167553
-3.46841e-06
-0.000165461
-6.27892e-06
-0.000162441
-9.05289e-06
-0.000158586
-1.1589e-05
-0.000154009
-1.3668e-05
-0.000148734
-1.58156e-05
-0.000142815
-1.77545e-05
-0.000136231
-1.9761e-05
-0.000128988
-2.17387e-05
-0.000121008
-2.39709e-05
-0.000112279
-2.617e-05
-0.00010281
-2.84441e-05
-9.24179e-05
-3.11943e-05
-8.11362e-05
-3.38674e-05
-6.89647e-05
-3.6516e-05
-5.58717e-05
-3.93031e-05
-4.18575e-05
-4.20406e-05
-2.69886e-05
-4.46801e-05
-1.13474e-05
-4.68487e-05
5.02961e-06
-4.91093e-05
2.20048e-05
-5.09155e-05
3.94775e-05
-5.23951e-05
5.72899e-05
-5.34131e-05
7.5278e-05
-5.39341e-05
9.329e-05
-5.40389e-05
0.000111113
-5.34146e-05
0.000128565
-5.22953e-05
0.000145389
-5.04321e-05
0.000161381
-4.79339e-05
0.000176325
-4.48004e-05
0.00018998
-4.09274e-05
0.000202103
-3.63525e-05
0.000212462
-3.10648e-05
0.000220848
-2.51466e-05
0.000227087
-1.87066e-05
0.000231035
-1.18828e-05
0.000232588
-4.6281e-06
0.000231703
2.55896e-06
0.000228334
1.00572e-05
0.000222559
1.72821e-05
0.000214475
2.4153e-05
0.00020421
3.07973e-05
0.000191966
3.66108e-05
0.000177978
4.19359e-05
0.00016236
4.67278e-05
0.000145529
5.04007e-05
0.000127672
5.35533e-05
0.000108967
5.59614e-05
8.98391e-05
5.7287e-05
7.04257e-05
5.81128e-05
5.104e-05
5.81848e-05
3.18529e-05
5.74974e-05
1.30984e-05
5.62007e-05
-5.065e-06
5.44845e-05
-2.24453e-05
5.21503e-05
-3.89516e-05
4.94368e-05
-5.44395e-05
4.64948e-05
-6.88365e-05
4.32108e-05
-8.20788e-05
3.98169e-05
-9.43332e-05
3.65336e-05
-0.00010541
3.32342e-05
-0.000115396
2.99889e-05
-0.000124326
2.68401e-05
-0.000132255
2.38537e-05
-0.000139233
2.09978e-05
-0.000145301
1.83103e-05
-0.000150627
1.58057e-05
-0.000155057
1.34235e-05
-0.000158753
1.1091e-05
-0.000161719
8.96558e-06
-0.000164012
6.90477e-06
-0.000165634
4.90106e-06
-0.000166656
3.02546e-06
-0.00016709
1.38655e-06
-0.000166941
-4.5005e-07
-0.000166126
-2.33105e-06
-0.000164878
-3.83747e-06
-0.000162976
-5.72705e-06
-0.000160489
-7.56333e-06
-0.000157365
-9.23749e-06
-0.000153603
-1.12643e-05
-0.000149168
-1.32884e-05
-0.000144033
-1.54053e-05
-0.000138151
-1.76136e-05
-0.000131495
-1.99669e-05
-0.000124175
-2.21012e-05
-0.000116007
-2.45402e-05
-0.000106997
-2.69809e-05
-9.71441e-05
-2.95131e-05
-8.64354e-05
-3.20512e-05
-7.48539e-05
-3.47335e-05
-6.24065e-05
-3.73284e-05
-4.90943e-05
-3.99242e-05
-3.49276e-05
-4.24755e-05
-1.9964e-05
-4.48823e-05
-4.27e-06
-4.70636e-05
1.21274e-05
-4.91126e-05
2.90243e-05
-5.06915e-05
4.63507e-05
-5.19351e-05
6.39114e-05
-5.26439e-05
8.15028e-05
-5.27582e-05
9.89419e-05
-5.22356e-05
0.00011593
-5.09796e-05
0.000132289
-4.90517e-05
0.000147765
-4.63826e-05
0.000162013
-4.27211e-05
0.000174818
-3.83767e-05
0.000185896
-3.32088e-05
0.000195006
-2.72897e-05
0.000201934
-2.07784e-05
0.00020652
-1.37616e-05
0.00020865
-6.41018e-06
0.000208295
9.55975e-07
0.00020543
8.55176e-06
0.000200132
1.58569e-05
0.000192591
2.26664e-05
0.000182811
2.92307e-05
0.000171083
3.50859e-05
0.00015756
4.05263e-05
0.000142489
4.5133e-05
0.000126109
4.90342e-05
0.000108681
5.22798e-05
9.05354e-05
5.43379e-05
7.19344e-05
5.56891e-05
5.32003e-05
5.62486e-05
3.46098e-05
5.57571e-05
1.63116e-05
5.47736e-05
-1.33098e-06
5.30527e-05
-1.83844e-05
5.10494e-05
-3.45196e-05
4.84294e-05
-4.971e-05
4.56863e-05
-6.40772e-05
4.29919e-05
-7.74042e-05
4.00099e-05
-8.97706e-05
3.71178e-05
-0.000101187
3.41677e-05
-0.000111638
3.14634e-05
-0.000121157
2.85626e-05
-0.000129771
2.58878e-05
-0.000137537
2.32886e-05
-0.000144463
2.07996e-05
-0.000150616
1.84706e-05
-0.00015604
1.62935e-05
-0.000160773
1.42287e-05
-0.00016486
1.22997e-05
-0.000168327
1.04415e-05
-0.00017126
8.7514e-06
-0.000173582
6.99681e-06
-0.000175357
5.33359e-06
-0.000176564
3.57441e-06
-0.000177219
2.02442e-06
-0.000177258
1.34392e-07
-0.000176727
-1.59082e-06
-0.000175604
-3.34597e-06
-0.000173959
-5.01919e-06
-0.000171815
-6.33951e-06
-0.000169097
-8.11082e-06
-0.00016594
-9.55005e-06
-0.000162053
-1.15933e-05
-0.00015762
-1.3398e-05
-0.000152354
-1.57915e-05
-0.000146293
-1.82195e-05
-0.00013933
-2.08548e-05
-0.000131469
-2.35858e-05
-0.000122636
-2.64951e-05
-0.000112835
-2.937e-05
-0.000102104
-3.21753e-05
-9.04627e-05
-3.48867e-05
-7.79595e-05
-3.74669e-05
-6.46377e-05
-3.99264e-05
-5.05695e-05
-4.21618e-05
-3.58169e-05
-4.42188e-05
-2.04709e-05
-4.59967e-05
-4.62545e-06
-4.74748e-05
1.16353e-05
-4.87277e-05
2.81355e-05
-4.94393e-05
4.47489e-05
-4.97826e-05
6.13142e-05
-4.96338e-05
7.76031e-05
-4.88149e-05
9.34307e-05
-4.74267e-05
0.000108561
-4.53679e-05
0.000122784
-4.25686e-05
0.000135765
-3.89062e-05
0.000147413
-3.4903e-05
0.000157462
-3.01554e-05
0.000165696
-2.46413e-05
0.000172063
-1.91127e-05
0.000176413
-1.30361e-05
0.000178675
-6.80231e-06
0.000178846
-4.97819e-07
0.000177303
4.56944e-06
0.0001738
1.05607e-05
0.000168543
1.59236e-05
0.000161434
2.12e-05
0.000152453
2.69486e-05
0.000141714
3.22317e-05
0.000129208
3.74956e-05
0.00011506
4.24126e-05
9.95027e-05
4.66244e-05
8.28343e-05
4.99385e-05
6.5324e-05
5.2467e-05
4.73057e-05
5.39951e-05
2.90764e-05
5.46338e-05
1.10603e-05
5.40015e-05
-6.63105e-06
5.30454e-05
-2.36874e-05
5.11454e-05
-3.99814e-05
4.88662e-05
-5.54246e-05
4.63195e-05
-6.99899e-05
4.36888e-05
-8.36003e-05
4.0829e-05
-9.62465e-05
3.79348e-05
-0.000107927
3.50427e-05
-0.000118622
3.20895e-05
-0.000128372
2.92568e-05
-0.000137168
2.63983e-05
-0.000145036
2.36158e-05
-0.000152011
2.09372e-05
-0.000158101
1.82882e-05
-0.000163334
1.57216e-05
-0.000167743
1.3242e-05
-0.000171335
1.07816e-05
-0.000174126
8.38267e-06
-0.000176102
5.90981e-06
-0.000177246
3.40109e-06
-0.000177598
1.00711e-06
-0.000177268
-1.02076e-06
-0.000176246
-3.08871e-06
-0.000174493
-5.27744e-06
-0.000171943
-7.64915e-06
-0.000168615
-9.99739e-06
-0.000164445
-1.24759e-05
-0.000159349
-1.53068e-05
-0.000153376
-1.7919e-05
-0.000146533
-2.05394e-05
-0.000138634
-2.36794e-05
-0.000129814
-2.64797e-05
-0.000119817
-2.99894e-05
-0.000108888
-3.27751e-05
-9.70901e-05
-3.53882e-05
-8.41993e-05
-3.86674e-05
-7.03529e-05
-4.15293e-05
-5.56698e-05
-4.40383e-05
-3.99935e-05
-4.70333e-05
-2.32872e-05
-5.00831e-05
-6.14005e-06
-5.13851e-05
1.17375e-05
-5.36337e-05
3.00499e-05
-5.49162e-05
4.88091e-05
-5.62348e-05
6.77585e-05
-5.67961e-05
8.65253e-05
-5.62523e-05
0.000105119
-5.57368e-05
0.000123231
-5.4264e-05
0.000140503
-5.17627e-05
0.000156841
-4.89654e-05
0.000171928
-4.5216e-05
0.00018557
-4.08861e-05
0.000197497
-3.57604e-05
0.000207531
-3.00838e-05
0.000215467
-2.37983e-05
0.000221139
-1.70226e-05
0.000224403
-9.77729e-06
0.000225146
-2.2071e-06
0.000223308
5.48114e-06
0.000219035
1.2842e-05
0.000212364
2.00069e-05
0.000203319
2.71032e-05
0.000192311
3.29849e-05
0.000179342
3.8862e-05
4.41403e-05
-9.4094e-05
4.11313e-05
-0.0001034
3.7226e-05
-0.00011184
3.37615e-05
-0.000119434
3.03711e-05
-0.000126196
2.70574e-05
-0.000132182
2.39413e-05
-0.000137399
2.08792e-05
-0.000141892
1.79771e-05
-0.000145687
1.51734e-05
-0.000148803
1.24414e-05
-0.000151258
9.81328e-06
-0.000153038
7.14241e-06
-0.000154173
4.56329e-06
-0.000154635
1.92412e-06
-0.000154414
-8.57149e-07
-0.00015354
-3.58305e-06
-0.000152039
-5.95913e-06
-0.000149735
-9.182e-06
-0.000146725
-1.2056e-05
-0.000143069
-1.46266e-05
-0.00013855
-1.80932e-05
-0.000133201
-2.14199e-05
-0.000127113
-2.43415e-05
-0.00012003
-2.8345e-05
-0.000112072
-3.18301e-05
-0.000103105
-3.59136e-05
-9.3143e-05
-3.98791e-05
-8.22662e-05
-4.35307e-05
-7.02653e-05
-4.8e-05
-5.72087e-05
-5.22212e-05
-4.32627e-05
-5.57705e-05
-2.82376e-05
-6.00606e-05
-1.23272e-05
-6.36428e-05
4.50175e-06
-6.7193e-05
2.21291e-05
-7.04376e-05
4.02272e-05
-7.23309e-05
5.88913e-05
-7.45669e-05
7.79456e-05
-7.61067e-05
9.69615e-05
-7.59683e-05
0.000115915
-7.56884e-05
0.000134441
-7.39873e-05
0.000152395
-7.16726e-05
0.000169491
-6.8234e-05
0.000185371
-6.33484e-05
0.000199829
-5.77051e-05
0.00021262
-5.10284e-05
0.000223453
-4.32417e-05
0.00023221
-3.4896e-05
0.000238694
-2.59121e-05
0.000242723
-1.61078e-05
0.000244356
-6.50128e-06
0.000243457
3.48578e-06
0.000240115
1.34255e-05
0.00023445
2.26873e-05
0.000226371
3.22568e-05
0.000216196
4.05875e-05
0.000204153
4.80615e-05
0.00019032
5.52939e-05
0.000175009
6.09942e-05
0.000158384
6.62078e-05
0.000140793
7.03031e-05
0.000122476
7.3121e-05
0.000103712
7.48935e-05
8.47651e-05
7.5782e-05
6.56928e-05
7.62201e-05
4.68079e-05
7.52351e-05
2.83543e-05
7.37896e-05
1.0408e-05
7.16992e-05
-6.83067e-06
6.89221e-05
-2.33878e-05
6.61905e-05
-3.90845e-05
6.26809e-05
-5.38843e-05
5.92511e-05
-6.7838e-05
5.57819e-05
-8.08013e-05
5.18687e-05
-9.27826e-05
4.79424e-05
-0.000103872
4.43578e-05
-0.000113956
4.03698e-05
-0.000123221
3.7049e-05
-0.000131584
3.34523e-05
-0.000139061
2.99345e-05
-0.00014575
2.67403e-05
-0.000151595
2.33775e-05
-0.000156569
1.99414e-05
-0.000160754
1.66777e-05
-0.000164101
1.34097e-05
-0.000166656
1.01443e-05
-0.0001683
6.52301e-06
-0.000169027
2.9549e-06
-0.000168844
-7.28355e-07
-0.000167692
-4.62079e-06
-0.0001656
-8.37105e-06
-0.000162565
-1.20878e-05
-0.000158745
-1.54094e-05
-0.000154147
-1.8266e-05
-0.000148878
-2.10853e-05
-0.00014296
-2.36729e-05
-0.00013639
-2.63309e-05
-0.00012917
-2.89587e-05
-0.000121233
-3.19085e-05
-0.000112494
-3.49095e-05
-0.000103022
-3.79154e-05
-9.26135e-05