/*--------------------------------*- C++ -*----------------------------------*\
| =========                 |                                                 |
| \\      /  F ield         | OpenFOAM: The Open Source CFD Toolbox           |
|  \\    /   O peration     | Version:  3.0.1                                 |
|   \\  /    A nd           | Web:      www.OpenFOAM.org                      |
|    \\/     M anipulation  |                                                 |
\*---------------------------------------------------------------------------*/
FoamFile
{
    version     2.0;
    format      ascii;
    class       surfaceScalarField;
    location    "79.8";
    object      phi;
}
// * * * * * * * * * * * * * * * * * * * * * * * * * * * * * * * * * * * * * //

dimensions      [0 3 -1 0 0 0 0];

internalField   nonuniform List<scalar> 
42423
(
-0.000185901
3.41525e-06
-0.00018853
2.62957e-06
-0.000190463
1.93302e-06
-0.000191726
1.26329e-06
-0.000192321
5.94323e-07
-0.000192217
-1.03867e-07
-0.000191348
-8.68828e-07
-0.000189799
-1.54937e-06
-0.000187607
-2.1915e-06
-0.000184564
-3.0432e-06
-0.000180789
-3.77476e-06
-0.000176236
-4.55338e-06
-0.000170798
-5.43811e-06
-0.000164479
-6.31875e-06
-0.00015718
-7.2996e-06
-0.000148939
-8.24064e-06
-0.000139861
-9.07832e-06
-0.000129709
-1.01514e-05
-0.000118514
-1.11949e-05
-0.000106457
-1.20571e-05
-9.31524e-05
-1.3305e-05
-7.87945e-05
-1.43579e-05
-6.36017e-05
-1.51929e-05
-4.73994e-05
-1.62023e-05
-3.04187e-05
-1.69808e-05
-1.26018e-05
-1.78169e-05
5.83638e-06
-1.84382e-05
2.46694e-05
-1.8833e-05
4.38209e-05
-1.91516e-05
6.31332e-05
-1.93123e-05
8.22082e-05
-1.9075e-05
0.000100904
-1.86958e-05
0.000118912
-1.80082e-05
0.000136053
-1.71407e-05
0.000152064
-1.60116e-05
0.000166588
-1.45241e-05
0.000179409
-1.28212e-05
0.000190355
-1.09458e-05
0.000199163
-8.80821e-06
0.000205752
-6.5885e-06
0.000209929
-4.17751e-06
0.000211726
-1.79641e-06
0.000211044
6.81703e-07
0.000207825
3.21878e-06
0.000202209
5.61596e-06
0.000194368
7.84121e-06
0.000184358
1.00096e-05
0.000172417
1.19408e-05
0.000158727
1.36906e-05
0.000143542
1.5185e-05
0.000127159
1.63824e-05
0.000109748
1.7411e-05
9.15557e-05
1.81924e-05
7.29008e-05
1.8655e-05
5.40015e-05
1.88993e-05
3.50765e-05
1.8925e-05
1.62945e-05
1.8782e-05
-2.08623e-06
1.83807e-05
-1.99999e-05
1.79137e-05
-3.72886e-05
1.72887e-05
-5.38323e-05
1.65437e-05
-6.95958e-05
1.57635e-05
-8.44233e-05
1.48275e-05
-9.83453e-05
1.39219e-05
-0.000111305
1.29602e-05
-0.000123272
1.19668e-05
-0.00013422
1.09472e-05
-0.00014423
1.00106e-05
-0.000153222
8.99173e-06
-0.00016131
8.08864e-06
-0.000168439
7.12898e-06
-0.000174637
6.19773e-06
-0.000179975
5.33803e-06
-0.000184386
4.41078e-06
-0.000187881
3.49472e-06
-0.000190507
2.62676e-06
-0.000192221
1.71364e-06
-0.000193209
9.87662e-07
-0.00019331
1.00996e-07
-0.00019253
-7.7995e-07
-0.000191032
-1.49807e-06
-0.000188675
-2.35709e-06
-0.000185431
-3.24326e-06
-0.000181379
-4.05256e-06
-0.000176472
-4.90643e-06
-0.000170734
-5.73804e-06
-0.000164093
-6.6414e-06
-0.00015662
-7.47345e-06
-0.00014832
-8.2993e-06
-0.000139325
-8.99493e-06
-0.00012962
-9.70529e-06
-0.000119246
-1.03743e-05
-0.000108203
-1.10427e-05
-9.64844e-05
-1.17188e-05
-8.40494e-05
-1.24351e-05
-7.08776e-05
-1.31718e-05
-5.69808e-05
-1.38969e-05
-4.23546e-05
-1.46262e-05
-2.69984e-05
-1.53562e-05
-1.09721e-05
-1.60263e-05
5.62562e-06
-1.65978e-05
2.27238e-05
-1.70982e-05
4.01688e-05
-1.74451e-05
5.78041e-05
-1.76354e-05
7.54223e-05
-1.76182e-05
9.28592e-05
-1.7437e-05
0.000109865
-1.70055e-05
0.000126254
-1.63893e-05
0.000141764
-1.55102e-05
0.000156177
-1.44133e-05
0.00016923
-1.30523e-05
0.000180697
-1.14675e-05
0.000190352
-9.65529e-06
0.000197995
-7.64235e-06
0.000203445
-5.45004e-06
0.000206551
-3.10665e-06
0.000207254
-7.02912e-07
0.000205505
1.74856e-06
0.000201216
4.2892e-06
0.000194508
6.70791e-06
0.000185494
9.01421e-06
0.000174343
1.1151e-05
0.000161286
1.30566e-05
0.000146527
1.47592e-05
0.000130301
1.62258e-05
0.000112951
1.73505e-05
9.4715e-05
1.82358e-05
7.58722e-05
1.88428e-05
5.67504e-05
1.91218e-05
3.75099e-05
1.92405e-05
1.84715e-05
1.90383e-05
-1.81064e-07
1.86526e-05
-1.82905e-05
1.81095e-05
-3.56244e-05
1.73338e-05
-5.21207e-05
1.64963e-05
-6.7756e-05
1.56353e-05
-8.23e-05
1.4544e-05
-9.57872e-05
1.34872e-05
-0.000108268
1.24809e-05
-0.000119642
1.13743e-05
-0.000129906
1.0264e-05
-0.000139139
9.23264e-06
-0.000147389
8.24948e-06
-0.000154626
7.23794e-06
-0.000160976
6.34914e-06
-0.000166439
5.46322e-06
-0.000171109
4.66977e-06
-0.000175036
3.92785e-06
-0.000178245
3.20901e-06
-0.000180791
2.54544e-06
-0.000182683
1.8918e-06
-0.000184048
1.36529e-06
-0.000184794
7.4605e-07
-0.000184939
1.4461e-07
-0.000184492
-4.46726e-07
-0.000183434
-1.05767e-06
-0.00018181
-1.62461e-06
-0.000179565
-2.24446e-06
-0.000176678
-2.88711e-06
-0.000173236
-3.44199e-06
-0.000169054
-4.18179e-06
-0.000164165
-4.88895e-06
-0.000158664
-5.50179e-06
-0.000152348
-6.3157e-06
-0.000145282
-7.06586e-06
-0.000137406
-7.87662e-06
-0.000128648
-8.75708e-06
-0.000119145
-9.50348e-06
-0.000108736
-1.04089e-05
-9.74417e-05
-1.12944e-05
-8.52522e-05
-1.21895e-05
-7.22794e-05
-1.29729e-05
-5.84543e-05
-1.38251e-05
-4.3862e-05
-1.45923e-05
-2.8543e-05
-1.53191e-05
-1.25282e-05
-1.60148e-05
3.91024e-06
-1.64385e-05
2.08079e-05
-1.68977e-05
3.79765e-05
-1.71687e-05
5.52416e-05
-1.72651e-05
7.23445e-05
-1.7103e-05
8.91329e-05
-1.67884e-05
0.000105351
-1.62179e-05
0.000120739
-1.53886e-05
0.000135048
-1.43088e-05
0.00014802
-1.2972e-05
0.000159427
-1.14069e-05
0.00016904
-9.61352e-06
0.000176663
-7.6229e-06
0.000182141
-5.47815e-06
0.000185346
-3.20435e-06
0.000186195
-8.49729e-07
0.000184692
1.50309e-06
0.000180744
3.94766e-06
0.000174452
6.292e-06
0.000165945
8.50755e-06
0.000155401
1.05438e-05
0.000143055
1.23457e-05
0.000129159
1.38959e-05
0.000113897
1.52624e-05
9.76182e-05
1.62788e-05
8.05659e-05
1.70523e-05
6.30174e-05
1.75485e-05
4.52196e-05
1.77977e-05
2.7351e-05
1.78686e-05
9.57309e-06
1.77779e-05
-7.90759e-06
1.74807e-05
-2.49268e-05
1.70192e-05
-4.13856e-05
1.64589e-05
-5.70767e-05
1.56911e-05
-7.19202e-05
1.48434e-05
-8.58652e-05
1.3945e-05
-9.87786e-05
1.29135e-05
-0.000110799
1.20201e-05
-0.000121798
1.09989e-05
-0.000131908
1.01106e-05
-0.000141096
9.188e-06
-0.000149403
8.30728e-06
-0.000156901
7.49734e-06
-0.000163563
6.6626e-06
-0.000169388
5.82426e-06
-0.000174442
5.05474e-06
-0.000178684
4.24189e-06
-0.000182118
3.4335e-06
-0.000184879
2.76135e-06
-0.000186856
1.97655e-06
-0.00018808
1.22472e-06
-0.000188641
5.60402e-07
-0.000188452
-1.89091e-07
-0.000187768
-6.83676e-07
-0.000186415
-1.35284e-06
-0.000184505
-1.91063e-06
-0.000182068
-2.43702e-06
-0.000179093
-2.97488e-06
-0.000175562
-3.53095e-06
-0.000171556
-4.0062e-06
-0.000166941
-4.61457e-06
-0.000161786
-5.15512e-06
-0.000156027
-5.75918e-06
-0.000149652
-6.3743e-06
-0.000142715
-6.93784e-06
-0.000135083
-7.63195e-06
-0.000126816
-8.26649e-06
-0.000117785
-9.03164e-06
-0.000108032
-9.75265e-06
-9.75072e-05
-1.05248e-05
-8.6266e-05
-1.12411e-05
-7.42224e-05
-1.20437e-05
-6.16421e-05
-1.25803e-05
-4.84005e-05
-1.32417e-05
-3.46062e-05
-1.37943e-05
-2.03071e-05
-1.42991e-05
-5.63047e-06
-1.46767e-05
9.39702e-06
-1.50275e-05
2.46816e-05
-1.52846e-05
4.01149e-05
-1.54333e-05
5.55564e-05
-1.54416e-05
7.08458e-05
-1.52894e-05
8.58044e-05
-1.49586e-05
0.000100207
-1.44027e-05
0.000113786
-1.35786e-05
0.000126229
-1.24438e-05
0.000137325
-1.10962e-05
0.000146758
-9.43263e-06
0.000154307
-7.54911e-06
0.000159792
-5.485e-06
0.000163027
-3.23519e-06
0.000163994
-9.66393e-07
0.000162711
1.28229e-06
0.000159066
3.6455e-06
0.000153252
5.81383e-06
0.000145432
7.8196e-06
0.000135751
9.68133e-06
0.000124539
1.12121e-05
0.000111982
1.2557e-05
9.83541e-05
1.36277e-05
8.39616e-05
1.43925e-05
6.92154e-05
1.47462e-05
5.42362e-05
1.49792e-05
3.9467e-05
1.47692e-05
2.48159e-05
1.46511e-05
1.05605e-05
1.42554e-05
-3.24619e-06
1.38067e-05
-1.66258e-05
1.33796e-05
-2.96056e-05
1.29798e-05
-4.21159e-05
1.25104e-05
-5.40364e-05
1.19205e-05
-6.53433e-05
1.13069e-05
-7.60094e-05
1.06661e-05
-8.59251e-05
9.91565e-06
-9.51176e-05
9.19249e-06
-0.000103503
8.38505e-06
-0.000111113
7.61025e-06
-0.000117992
6.8796e-06
-0.000124096
6.10328e-06
-0.000129472
5.37662e-06
-0.000134142
4.66963e-06
-0.000138151
4.00924e-06
-0.000141558
3.40716e-06
-0.000144442
2.88337e-06
-0.00014676
2.3186e-06
-0.000148643
1.88282e-06
-0.000150134
1.49123e-06
-0.000151171
1.03683e-06
-0.000151889
7.17947e-07
-0.000152278
3.89076e-07
-0.000152233
-4.53538e-08
-0.000151844
-3.89271e-07
-0.000150989
-8.54833e-07
-0.000149715
-1.27388e-06
-0.000147953
-1.76222e-06
-0.000145534
-2.41867e-06
-0.000142441
-3.09276e-06
-0.000138668
-3.77314e-06
-0.000134019
-4.64895e-06
-0.000128521
-5.49831e-06
-0.000121992
-6.5292e-06
-0.000114513
-7.47863e-06
-0.000106111
-8.40163e-06
-9.65495e-05
-9.56197e-06
-8.59641e-05
-1.05854e-05
-7.4467e-05
-1.14971e-05
-6.18512e-05
-1.26158e-05
-4.82668e-05
-1.35845e-05
-3.37885e-05
-1.44783e-05
-1.85231e-05
-1.52654e-05
-2.73787e-06
-1.57853e-05
1.36289e-05
-1.63668e-05
3.03952e-05
-1.67663e-05
4.72568e-05
-1.68617e-05
6.4225e-05
-1.69682e-05
8.10277e-05
-1.68028e-05
9.73707e-05
-1.6343e-05
0.000113155
-1.5784e-05
0.000128133
-1.49784e-05
0.000142115
-1.39817e-05
0.000154917
-1.2802e-05
0.000166304
-1.13877e-05
0.000176193
-9.88881e-06
0.000184412
-8.21887e-06
0.000190849
-6.43676e-06
0.000195427
-4.57881e-06
0.000198116
-2.68856e-06
0.000198912
-7.96127e-07
0.000197769
1.14272e-06
0.000194635
3.13468e-06
0.000189716
4.91822e-06
0.000183097
6.61889e-06
0.000174833
8.26473e-06
0.000165221
9.61208e-06
0.000154265
1.09557e-05
0.000142294
1.19704e-05
0.000129321
1.29736e-05
0.000115457
1.38635e-05
0.000101064
1.43938e-05
8.61273e-05
1.49362e-05
1.53218e-05
-0.000185937
6.83788e-06
-0.000188569
5.26147e-06
-0.00019051
3.87399e-06
-0.000191777
2.5298e-06
-0.000192367
1.18498e-06
-0.000192264
-2.07688e-07
-0.000191395
-1.73739e-06
-0.00018985
-3.09453e-06
-0.000187658
-4.38354e-06
-0.000184615
-6.08626e-06
-0.000180841
-7.54839e-06
-0.00017629
-9.10423e-06
-0.00017085
-1.08786e-05
-0.000164536
-1.26325e-05
-0.000157237
-1.4599e-05
-0.000148994
-1.64832e-05
-0.000139918
-1.81546e-05
-0.000129765
-2.03042e-05
-0.00011857
-2.23904e-05
-0.000106515
-2.41118e-05
-9.32044e-05
-2.66159e-05
-7.88438e-05
-2.87186e-05
-6.36492e-05
-3.03875e-05
-4.74422e-05
-3.24094e-05
-3.04548e-05
-3.39682e-05
-1.26284e-05
-3.56435e-05
5.81546e-06
-3.68822e-05
2.46544e-05
-3.76721e-05
4.38233e-05
-3.83206e-05
6.31459e-05
-3.8635e-05
8.22295e-05
-3.81588e-05
0.000100943
-3.74093e-05
0.000118969
-3.60344e-05
0.000136117
-3.42887e-05
0.000152137
-3.20317e-05
0.000166672
-2.90595e-05
0.000179505
-2.56543e-05
0.000190469
-2.19095e-05
0.000199283
-1.76228e-05
0.000205873
-1.31781e-05
0.000210051
-8.35611e-06
0.000211852
-3.59764e-06
0.000211162
1.37195e-06
0.000207939
6.44165e-06
0.000202324
1.12306e-05
0.000194477
1.56885e-05
0.000184462
2.00244e-05
0.000172512
2.38904e-05
0.000158812
2.73912e-05
0.000143613
3.03833e-05
0.000127221
3.27745e-05
0.000109802
3.48299e-05
9.15978e-05
3.63966e-05
7.29296e-05
3.73231e-05
5.40198e-05
3.7809e-05
3.50847e-05
3.786e-05
1.62931e-05
3.75735e-05
-2.09582e-06
3.67696e-05
-2.00201e-05
3.5838e-05
-3.73206e-05
3.45892e-05
-5.38716e-05
3.30947e-05
-6.9645e-05
3.15369e-05
-8.44769e-05
2.96594e-05
-9.8405e-05
2.785e-05
-0.000111374
2.59296e-05
-0.000123343
2.39353e-05
-0.000134294
2.18984e-05
-0.00014431
2.00268e-05
-0.000153304
1.79858e-05
-0.000161393
1.61776e-05
-0.00016852
1.42552e-05
-0.000174716
1.23937e-05
-0.000180054
1.0676e-05
-0.000184462
8.81955e-06
-0.000187964
6.99627e-06
-0.000190585
5.248e-06
-0.000192296
3.42453e-06
-0.000193291
1.98221e-06
-0.00019338
1.90941e-07
-0.0001926
-1.56062e-06
-0.000191097
-3.00069e-06
-0.000188741
-4.71382e-06
-0.00018549
-6.49381e-06
-0.000181437
-8.10595e-06
-0.000176534
-9.8088e-06
-0.00017078
-1.14925e-05
-0.00016414
-1.32811e-05
-0.000156656
-1.49576e-05
-0.000148341
-1.6614e-05
-0.000139341
-1.79952e-05
-0.000129636
-1.94104e-05
-0.000119256
-2.07547e-05
-0.000108206
-2.20929e-05
-9.64862e-05
-2.34383e-05
-8.40572e-05
-2.48642e-05
-7.08836e-05
-2.63455e-05
-5.69828e-05
-2.77979e-05
-4.23533e-05
-2.92558e-05
-2.69965e-05
-3.07132e-05
-1.09707e-05
-3.20522e-05
5.62745e-06
-3.3196e-05
2.27248e-05
-3.41956e-05
4.01734e-05
-3.48938e-05
5.78166e-05
-3.52787e-05
7.54429e-05
-3.52446e-05
9.28885e-05
-3.48827e-05
0.000109905
-3.40226e-05
0.000126303
-3.27866e-05
0.00014182
-3.10279e-05
0.000156238
-2.88314e-05
0.000169304
-2.61183e-05
0.000180786
-2.29496e-05
0.000190452
-1.93212e-05
0.000198089
-1.52795e-05
0.000203543
-1.09035e-05
0.000206656
-6.22018e-06
0.000207354
-1.40078e-06
0.000205586
3.51596e-06
0.000201283
8.59203e-06
0.000194566
1.3425e-05
0.000185539
1.80415e-05
0.000174395
2.22945e-05
0.000161298
2.61537e-05
0.000146509
2.95485e-05
0.00013027
3.24644e-05
0.000112893
3.47282e-05
9.46598e-05
3.64685e-05
7.57684e-05
3.77342e-05
5.66277e-05
3.82625e-05
3.73874e-05
3.84807e-05
1.83035e-05
3.81223e-05
-3.64633e-07
3.73207e-05
-1.8489e-05
3.62339e-05
-3.58453e-05
3.46901e-05
-5.23486e-05
3.29997e-05
-6.79905e-05
3.12772e-05
-8.25479e-05
2.91014e-05
-9.60593e-05
2.69986e-05
-0.000108515
2.49368e-05
-0.000119892
2.27515e-05
-0.000130156
2.05278e-05
-0.000139356
1.84327e-05
-0.000147633
1.65268e-05
-0.000154861
1.44652e-05
-0.000161198
1.2686e-05
-0.000166672
1.09379e-05
-0.000171336
9.33368e-06
-0.000175257
7.84866e-06
-0.000178457
6.40938e-06
-0.000181005
5.09295e-06
-0.000182917
3.80406e-06
-0.000184256
2.70376e-06
-0.000184974
1.46479e-06
-0.000185119
2.88728e-07
-0.000184666
-8.99288e-07
-0.000183608
-2.11566e-06
-0.000181977
-3.25579e-06
-0.000179729
-4.49185e-06
-0.000176827
-5.78954e-06
-0.000173393
-6.87632e-06
-0.000169218
-8.35612e-06
-0.000164319
-9.78882e-06
-0.000158805
-1.10151e-05
-0.000152475
-1.26459e-05
-0.000145418
-1.41234e-05
-0.000137541
-1.57529e-05
-0.00012878
-1.75185e-05
-0.000119271
-1.90123e-05
-0.000108855
-2.08253e-05
-9.75551e-05
-2.25942e-05
-8.53776e-05
-2.43671e-05
-7.23907e-05
-2.59599e-05
-5.85527e-05
-2.76632e-05
-4.39503e-05
-2.91948e-05
-2.86223e-05
-3.06471e-05
-1.26013e-05
-3.20358e-05
3.84299e-06
-3.28829e-05
2.07542e-05
-3.38089e-05
3.7929e-05
-3.43436e-05
5.52106e-05
-3.45468e-05
7.23356e-05
-3.42281e-05
8.91318e-05
-3.35847e-05
0.00010536
-3.24458e-05
0.000120773
-3.08017e-05
0.000135082
-2.86184e-05
0.000148059
-2.59485e-05
0.000159468
-2.28166e-05
0.000169088
-1.92331e-05
0.000176716
-1.52514e-05
0.000182193
-1.0955e-05
0.000185397
-6.40863e-06
0.000186246
-1.69799e-06
0.000184731
3.01774e-06
0.000180768
7.91034e-06
0.000174461
1.25995e-05
0.000165938
1.70303e-05
0.000155378
2.11036e-05
0.000143016
2.47073e-05
0.000129097
2.78149e-05
0.000113808
3.05517e-05
9.75033e-05
3.25834e-05
8.04413e-05
3.41143e-05
6.28809e-05
3.51089e-05
4.5055e-05
3.56236e-05
2.71907e-05
3.57329e-05
9.39216e-06
3.55764e-05
-8.10556e-06
3.49784e-05
-2.51285e-05
3.40421e-05
-4.1582e-05
3.29123e-05
-5.72977e-05
3.14069e-05
-7.21469e-05
2.96926e-05
-8.60916e-05
2.78897e-05
-9.90396e-05
2.58615e-05
-0.000111033
2.40139e-05
-0.000122029
2.19941e-05
-0.000132093
2.01744e-05
-0.000141316
1.84114e-05
-0.000149629
1.66203e-05
-0.000157111
1.49793e-05
-0.000163767
1.33185e-05
-0.000169594
1.16516e-05
-0.000174637
1.00977e-05
-0.000178881
8.48617e-06
-0.000182305
6.85712e-06
-0.000185052
5.50829e-06
-0.000187029
3.95378e-06
-0.000188251
2.44653e-06
-0.000188808
1.11764e-06
-0.000188657
-3.40001e-07
-0.000187923
-1.41841e-06
-0.000186564
-2.71119e-06
-0.000184659
-3.81575e-06
-0.000182213
-4.88308e-06
-0.000179233
-5.95461e-06
-0.000175673
-7.0919e-06
-0.000171689
-7.98931e-06
-0.000167077
-9.2273e-06
-0.00016191
-1.03214e-05
-0.000156149
-1.15208e-05
-0.000149762
-1.27611e-05
-0.000142851
-1.38493e-05
-0.000135226
-1.52566e-05
-0.000126954
-1.65381e-05
-0.000117917
-1.80686e-05
-0.000108159
-1.95108e-05
-9.76327e-05
-2.10515e-05
-8.63919e-05
-2.2482e-05
-7.43742e-05
-2.40615e-05
-6.17694e-05
-2.5185e-05
-4.85235e-05
-2.64876e-05
-3.47229e-05
-2.7595e-05
-2.04282e-05
-2.85939e-05
-5.73073e-06
-2.93742e-05
9.31588e-06
-3.00742e-05
2.46129e-05
-3.05818e-05
4.00639e-05
-3.08843e-05
5.55156e-05
-3.08934e-05
7.08203e-05
-3.05942e-05
8.58014e-05
-2.99397e-05
0.000100224
-2.88251e-05
0.000113811
-2.71657e-05
0.000126272
-2.49049e-05
0.000137382
-2.22062e-05
0.000146829
-1.88802e-05
0.000154387
-1.51072e-05
0.000159881
-1.09785e-05
0.000163126
-6.48063e-06
0.000164098
-1.93792e-06
0.000162811
2.56873e-06
0.000159162
7.29453e-06
0.000153348
1.16277e-05
0.000145524
1.5644e-05
0.000135826
1.93791e-05
0.000124604
2.24344e-05
0.000112042
2.51187e-05
9.83977e-05
2.72718e-05
8.39988e-05
2.87914e-05
6.92329e-05
2.95121e-05
5.4247e-05
2.9965e-05
3.94673e-05
2.95488e-05
2.48057e-05
2.93127e-05
1.05476e-05
2.85136e-05
-3.26389e-06
2.76181e-05
-1.66484e-05
2.67641e-05
-2.9633e-05
2.59644e-05
-4.21484e-05
2.50258e-05
-5.40729e-05
2.3845e-05
-6.53856e-05
2.26195e-05
-7.60481e-05
2.13287e-05
-8.59647e-05
1.98322e-05
-9.51597e-05
1.83875e-05
-0.000103542
1.67673e-05
-0.000111155
1.52228e-05
-0.000118038
1.37631e-05
-0.000124143
1.22083e-05
-0.000129513
1.07471e-05
-0.00013419
9.3458e-06
-0.000138201
8.02091e-06
-0.000141611
6.81714e-06
-0.000144491
5.76347e-06
-0.000146806
4.63276e-06
-0.000148694
3.77075e-06
-0.000150178
2.97541e-06
-0.00015122
2.07918e-06
-0.000151941
1.43847e-06
-0.000152312
7.60511e-07
-0.000152272
-8.51899e-08
-0.000151885
-7.76022e-07
-0.000151034
-1.70641e-06
-0.000149775
-2.53285e-06
-0.000148
-3.53698e-06
-0.000145575
-4.84373e-06
-0.000142491
-6.17682e-06
-0.000138722
-7.54208e-06
-0.000134076
-9.2948e-06
-0.000128577
-1.09973e-05
-0.00012205
-1.30563e-05
-0.000114572
-1.49571e-05
-0.000106171
-1.68027e-05
-9.66079e-05
-1.9125e-05
-8.60202e-05
-2.11731e-05
-7.45276e-05
-2.29897e-05
-6.19024e-05
-2.5241e-05
-4.83152e-05
-2.71717e-05
-3.38269e-05
-2.89666e-05
-1.85532e-05
-3.05392e-05
-2.76205e-06
-3.15764e-05
1.3608e-05
-3.27368e-05
3.0385e-05
-3.35434e-05
4.72588e-05
-3.37355e-05
6.42375e-05
-3.39469e-05
8.1051e-05
-3.36163e-05
9.74027e-05
-3.26948e-05
0.000113195
-3.1576e-05
0.000128184
-2.9968e-05
0.000142175
-2.79727e-05
0.000154993
-2.56197e-05
0.000166398
-2.27933e-05
0.00017629
-1.97804e-05
0.000184504
-1.64326e-05
0.000190944
-1.28774e-05
0.000195527
-9.16132e-06
0.000198219
-5.38115e-06
0.000199017
-1.59417e-06
0.000197865
2.29472e-06
0.000194726
6.27365e-06
0.000189804
9.84012e-06
0.00018318
1.32427e-05
0.000174906
1.65389e-05
0.000165286
1.92324e-05
0.00015432
2.19212e-05
0.000142341
2.39499e-05
0.000129358
2.59559e-05
0.000115486
2.77356e-05
0.000101084
2.87956e-05
8.61403e-05
2.988e-05
3.06512e-05
-0.000185999
1.02635e-05
-0.000188634
7.8962e-06
-0.000190577
5.81775e-06
-0.000191851
3.80313e-06
-0.000192441
1.77536e-06
-0.000192326
-3.2315e-07
-0.000191451
-2.61217e-06
-0.000189915
-4.63052e-06
-0.000187717
-6.58101e-06
-0.000184672
-9.13163e-06
-0.000180901
-1.13195e-05
-0.000176354
-1.3651e-05
-0.000170918
-1.63144e-05
-0.0001646
-1.89511e-05
-0.000157312
-2.18867e-05
-0.000149067
-2.47283e-05
-0.00013999
-2.7232e-05
-0.000129842
-3.0452e-05
-0.00011865
-3.35825e-05
-0.000106602
-3.61595e-05
-9.3282e-05
-3.99362e-05
-7.89201e-05
-4.30807e-05
-6.37199e-05
-4.55877e-05
-4.75069e-05
-4.86226e-05
-3.05099e-05
-5.09653e-05
-1.26731e-05
-5.34804e-05
5.78438e-06
-5.53398e-05
2.46436e-05
-5.65314e-05
4.38273e-05
-5.75044e-05
6.31682e-05
-5.7976e-05
8.22742e-05
-5.72649e-05
0.000101006
-5.61407e-05
0.000119051
-5.40797e-05
0.00013622
-5.1458e-05
0.000152264
-4.80759e-05
0.000166822
-4.36174e-05
0.000179672
-3.85042e-05
0.000190645
-3.2883e-05
0.000199468
-2.64457e-05
0.000206067
-1.97772e-05
0.000210253
-1.25422e-05
0.00021206
-5.40487e-06
0.000211349
2.08314e-06
0.000208111
9.6793e-06
0.0002025
1.68421e-05
0.000194641
2.35473e-05
0.000184616
3.00494e-05
0.00017265
3.58558e-05
0.000158938
4.11028e-05
0.000143711
4.56106e-05
0.000127298
4.91875e-05
0.000109866
5.22622e-05
9.16486e-05
5.46137e-05
7.29539e-05
5.60178e-05
5.40249e-05
5.67379e-05
3.50721e-05
5.68128e-05
1.62647e-05
5.63809e-05
-2.13639e-06
5.51707e-05
-2.00725e-05
5.3774e-05
-3.73841e-05
5.19008e-05
-5.39439e-05
4.96544e-05
-6.97247e-05
4.73177e-05
-8.45613e-05
4.4496e-05
-9.84856e-05
4.17743e-05
-0.000111461
3.89049e-05
-0.000123421
3.58956e-05
-0.000134389
3.28665e-05
-0.0001444
3.00374e-05
-0.000153386
2.69721e-05
-0.00016148
2.42715e-05
-0.000168613
2.13879e-05
-0.00017481
1.85911e-05
-0.000180146
1.60121e-05
-0.000184553
1.32258e-05
-0.000188061
1.05046e-05
-0.000190683
7.8704e-06
-0.000192392
5.13362e-06
-0.000193381
2.97099e-06
-0.000193454
2.63551e-07
-0.000192686
-2.32872e-06
-0.000191171
-4.51528e-06
-0.00018881
-7.07469e-06
-0.000185562
-9.74176e-06
-0.000181514
-1.21544e-05
-0.000176618
-1.47052e-05
-0.000170858
-1.72523e-05
-0.000164224
-1.99144e-05
-0.000156712
-2.24705e-05
-0.000148418
-2.4908e-05
-0.000139412
-2.70003e-05
-0.000129706
-2.91171e-05
-0.000119326
-3.11347e-05
-0.000108282
-3.31367e-05
-9.65695e-05
-3.51509e-05
-8.41511e-05
-3.72826e-05
-7.09895e-05
-3.95071e-05
-5.70969e-05
-4.16905e-05
-4.24754e-05
-4.38774e-05
-2.71227e-05
-4.60659e-05
-1.10987e-05
-4.80763e-05
5.49987e-06
-4.97946e-05
2.2599e-05
-5.12948e-05
4.0057e-05
-5.2352e-05
5.77005e-05
-5.29223e-05
7.53441e-05
-5.28883e-05
9.28026e-05
-5.23413e-05
0.000109831
-5.10506e-05
0.000126243
-4.91992e-05
0.000141782
-4.65672e-05
0.000156221
-4.32705e-05
0.000169308
-3.92051e-05
0.000180808
-3.44495e-05
0.000190496
-2.90091e-05
0.000198137
-2.29209e-05
0.000203601
-1.63678e-05
0.000206723
-9.34195e-06
0.000207414
-2.09171e-06
0.000205621
5.30898e-06
0.000201314
1.28991e-05
0.000194583
2.01554e-05
0.000185554
2.7071e-05
0.000174367
3.34809e-05
0.00016128
3.92412e-05
0.000146436
4.43922e-05
0.000130182
4.87186e-05
0.000112778
5.21321e-05
9.45284e-05
5.47179e-05
7.55967e-05
5.66659e-05
5.64372e-05
5.7422e-05
3.71981e-05
5.77198e-05
1.80742e-05
5.72462e-05
-6.11451e-07
5.60063e-05
-1.87543e-05
5.43767e-05
-3.6143e-05
5.20789e-05
-5.26993e-05
4.9556e-05
-6.83025e-05
4.68804e-05
-8.28648e-05
4.36637e-05
-9.64112e-05
4.05449e-05
-0.000108835
3.73605e-05
-0.000120204
3.41204e-05
-0.000130471
3.07951e-05
-0.000139678
2.76399e-05
-0.000147939
2.47872e-05
-0.000155155
2.16821e-05
-0.000161436
1.89665e-05
-0.000166969
1.64708e-05
-0.00017162
1.39853e-05
-0.000175541
1.17697e-05
-0.00017874
9.60772e-06
-0.00018129
7.64276e-06
-0.000183225
5.73919e-06
-0.000184528
4.00665e-06
-0.000185191
2.12779e-06
-0.000185381
4.79136e-07
-0.000184924
-1.35622e-06
-0.000183871
-3.16875e-06
-0.00018222
-4.90732e-06
-0.000179974
-6.73771e-06
-0.000177134
-8.62948e-06
-0.00017365
-1.03605e-05
-0.000169485
-1.25212e-05
-0.000164615
-1.46588e-05
-0.000159078
-1.6552e-05
-0.000152703
-1.90211e-05
-0.000145686
-2.11398e-05
-0.000137811
-2.3628e-05
-0.000129083
-2.62472e-05
-0.000119552
-2.85429e-05
-0.00010913
-3.1247e-05
-9.78208e-05
-3.39038e-05
-8.56623e-05
-3.65256e-05
-7.26542e-05
-3.8968e-05
-5.87987e-05
-4.15187e-05
-4.42025e-05
-4.37911e-05
-2.88531e-05
-4.59966e-05
-1.28521e-05
-4.80369e-05
3.63162e-06
-4.93668e-05
2.05554e-05
-5.07328e-05
3.77506e-05
-5.15389e-05
5.50314e-05
-5.18277e-05
7.21894e-05
-5.13862e-05
8.90138e-05
-5.04092e-05
0.000105267
-4.86985e-05
0.000120685
-4.62204e-05
0.000135026
-4.29597e-05
0.000148028
-3.89505e-05
0.000159459
-3.42469e-05
0.000169091
-2.88658e-05
0.000176751
-2.29114e-05
0.00018222
-1.64239e-05
0.000185435
-9.62381e-06
0.000186277
-2.5399e-06
0.000184741
4.55401e-06
0.000180777
1.18741e-05
0.000174459
1.89169e-05
0.000165914
2.5576e-05
0.000155342
3.16754e-05
0.000142981
3.7068e-05
0.000128977
4.18193e-05
0.000113692
4.58367e-05
9.73448e-05
4.89301e-05
8.02743e-05
5.11849e-05
6.27288e-05
5.26544e-05
4.48581e-05
5.34943e-05
2.69656e-05
5.36254e-05
9.16657e-06
5.33755e-05
-8.36064e-06
5.25056e-05
-2.53919e-05
5.10734e-05
-4.18223e-05
4.93428e-05
-5.7593e-05
4.71776e-05
-7.24494e-05
4.4549e-05
-8.63952e-05
4.18355e-05
-9.93491e-05
3.88153e-05
-0.000111326
3.59908e-05
-0.000122322
3.29901e-05
-0.000132384
3.02368e-05
-0.000141599
2.76258e-05
-0.000149916
2.49381e-05
-0.00015738
2.24433e-05
-0.000164025
1.9963e-05
-0.000169863
1.74895e-05
-0.000174896
1.51312e-05
-0.000179154
1.27439e-05
-0.000182617
1.03205e-05
-0.000185324
8.21543e-06
-0.000187306
5.93545e-06
-0.000188527
3.66761e-06
-0.000189077
1.66714e-06
-0.000188938
-4.78258e-07
-0.00018817
-2.18719e-06
-0.000186807
-4.07346e-06
-0.000184915
-5.70853e-06
-0.000182457
-7.34061e-06
-0.000179485
-8.9263e-06
-0.000175941
-1.06363e-05
-0.000171944
-1.19866e-05
-0.000167328
-1.38432e-05
-0.000162141
-1.5508e-05
-0.000156415
-1.72475e-05
-0.000150032
-1.91439e-05
-0.000143128
-2.07535e-05
-0.000135508
-2.2876e-05
-0.000127221
-2.48254e-05
-0.000118193
-2.70968e-05
-0.000108377
-2.93262e-05
-9.79023e-05
-3.15266e-05
-8.66625e-05
-3.37218e-05
-7.4685e-05
-3.60391e-05
-6.2034e-05
-3.78361e-05
-4.87724e-05
-3.97493e-05
-3.49573e-05
-4.14101e-05
-2.06538e-05
-4.28975e-05
-5.93079e-06
-4.40973e-05
9.13642e-06
-4.51415e-05
2.44618e-05
-4.59073e-05
3.99179e-05
-4.63404e-05
5.54119e-05
-4.63875e-05
7.07484e-05
-4.59307e-05
8.57563e-05
-4.49478e-05
0.000100199
-4.32681e-05
0.00011383
-4.07965e-05
0.000126323
-3.73982e-05
0.000137449
-3.33316e-05
0.000146925
-2.8357e-05
0.000154501
-2.26825e-05
0.000160011
-1.64894e-05
0.000163271
-9.74051e-06
0.000164252
-2.91853e-06
0.00016296
3.86049e-06
0.000159302
1.09529e-05
0.000153483
1.74458e-05
0.000145658
2.34698e-05
0.00013594
2.90966e-05
0.0001247
3.36748e-05
0.000112123
3.76948e-05
9.84514e-05
4.09439e-05
8.40487e-05
4.31941e-05
6.92427e-05
4.4318e-05
5.42463e-05
4.49614e-05
3.94463e-05
4.43488e-05
2.47671e-05
4.39918e-05
1.05051e-05
4.27756e-05
-3.30723e-06
4.14305e-05
-1.66926e-05
4.01494e-05
-2.96805e-05
3.89522e-05
-4.22026e-05
3.75479e-05
-5.41289e-05
3.57713e-05
-6.54467e-05
3.39373e-05
-7.61034e-05
3.19854e-05
-8.60203e-05
2.97491e-05
-9.52201e-05
2.75873e-05
-0.000103599
2.51459e-05
-0.00011121
2.28341e-05
-0.000118096
2.06491e-05
-0.0001242
1.83127e-05
-0.000129565
1.61116e-05
-0.000134245
1.40257e-05
-0.00013825
1.2026e-05
-0.000141668
1.02352e-05
-0.00014455
8.64572e-06
-0.000146854
6.9367e-06
-0.000148742
5.65866e-06
-0.000150212
4.44528e-06
-0.000151257
3.12464e-06
-0.000151982
2.16304e-06
-0.000152351
1.12949e-06
-0.000152307
-1.29201e-07
-0.00015192
-1.16315e-06
-0.000151073
-2.55277e-06
-0.000149819
-3.78732e-06
-0.000148049
-5.30673e-06
-0.000145621
-7.27228e-06
-0.000142547
-9.2502e-06
-0.000138786
-1.13039e-05
-0.000134148
-1.39321e-05
-0.00012865
-1.64957e-05
-0.000122127
-1.95795e-05
-0.000114651
-2.24331e-05
-0.000106251
-2.5202e-05
-9.669e-05
-2.86865e-05
-8.61019e-05
-3.17612e-05
-7.46231e-05
-3.44685e-05
-6.19823e-05
-3.78819e-05
-4.83923e-05
-4.07618e-05
-3.38882e-05
-4.34708e-05
-1.86033e-05
-4.58242e-05
-2.79784e-06
-4.73819e-05
1.35905e-05
-4.91253e-05
3.03869e-05
-5.03398e-05
4.72737e-05
-5.06224e-05
6.42701e-05
-5.09433e-05
8.11023e-05
-5.04485e-05
9.74693e-05
-4.90618e-05
0.00011328
-4.73865e-05
0.00012829
-4.49784e-05
0.000142303
-4.19859e-05
0.000155142
-3.84582e-05
0.000166552
-3.42036e-05
0.000176455
-2.96833e-05
0.000184683
-2.46607e-05
0.000191136
-1.93307e-05
0.000195726
-1.37509e-05
0.000198414
-8.06909e-06
0.000199198
-2.37888e-06
0.000198015
3.47811e-06
0.000194864
9.42416e-06
0.000189935
1.47689e-05
0.000183304
1.98747e-05
0.000175018
2.48245e-05
0.000165387
2.88634e-05
0.000154409
3.28992e-05
0.000142416
3.59429e-05
0.000129421
3.89511e-05
0.000115536
4.16205e-05
0.000101121
4.32104e-05
8.6164e-05
4.48368e-05
4.59936e-05
-0.00018609
1.36926e-05
-0.000188735
1.05412e-05
-0.000190687
7.76934e-06
-0.000191962
5.0789e-06
-0.00019254
2.35265e-06
-0.000192409
-4.53936e-07
-0.000191534
-3.48684e-06
-0.000190008
-6.15695e-06
-0.000187807
-8.78209e-06
-0.000184758
-1.21801e-05
-0.00018099
-1.50882e-05
-0.00017645
-1.81907e-05
-0.00017102
-2.1744e-05
-0.000164698
-2.52739e-05
-0.000157426
-2.91585e-05
-0.000149176
-3.29782e-05
-0.000140099
-3.63087e-05
-0.000129957
-4.05946e-05
-0.00011877
-4.47695e-05
-0.000106734
-4.81958e-05
-9.33981e-05
-5.32718e-05
-7.90344e-05
-5.74444e-05
-6.38271e-05
-6.0795e-05
-4.7606e-05
-6.48438e-05
-3.05949e-05
-6.79765e-05
-1.27417e-05
-7.13337e-05
5.7433e-06
-7.38249e-05
2.46273e-05
-7.54155e-05
4.38364e-05
-7.67136e-05
6.32065e-05
-7.73462e-05
8.23424e-05
-7.6401e-05
0.000101104
-7.49025e-05
0.000119182
-7.21582e-05
0.000136384
-6.86593e-05
0.000152461
-6.41536e-05
0.000167047
-5.8203e-05
0.000179922
-5.13797e-05
0.000190916
-4.38772e-05
0.000199754
-3.52839e-05
0.000206367
-2.63902e-05
0.000210563
-1.67378e-05
0.000212369
-7.21083e-06
0.00021163
2.82215e-06
0.000208373
1.29355e-05
0.000202763
2.24528e-05
0.000194886
3.1424e-05
0.000184845
4.00899e-05
0.000172856
4.78452e-05
0.000159131
5.48273e-05
0.000143858
6.08841e-05
0.000127413
6.56325e-05
0.00010996
6.97146e-05
9.17279e-05
7.2846e-05
7.29904e-05
7.47553e-05
5.40321e-05
7.56962e-05
3.50528e-05
7.57922e-05
1.62218e-05
7.52118e-05
-2.19892e-06
7.35914e-05
-2.01539e-05
7.1729e-05
-3.74822e-05
6.9229e-05
-5.40552e-05
6.62275e-05
-6.98481e-05
6.31105e-05
-8.46912e-05
5.93391e-05
-9.86079e-05
5.5691e-05
-0.000111602
5.18991e-05
-0.000123555
4.7848e-05
-0.000134531
4.38433e-05
-0.000144542
4.00483e-05
-0.000153524
3.59543e-05
-0.000161627
3.23741e-05
-0.000168756
2.8517e-05
-0.000174951
2.47859e-05
-0.000180294
2.13557e-05
-0.000184694
1.76256e-05
-0.000188207
1.40172e-05
-0.000190832
1.04951e-05
-0.000192531
6.83314e-06
-0.000193521
3.96132e-06
-0.000193572
3.14553e-07
-0.000192814
-3.08688e-06
-0.000191291
-6.03837e-06
-0.000188927
-9.43885e-06
-0.000185679
-1.29898e-05
-0.000181635
-1.61987e-05
-0.000176753
-1.95867e-05
-0.000170991
-2.30147e-05
-0.000164367
-2.65379e-05
-0.00015683
-3.00075e-05
-0.000148568
-3.31704e-05
-0.000139551
-3.60171e-05
-0.000129848
-3.88203e-05
-0.000119478
-4.15045e-05
-0.000108446
-4.4169e-05
-9.6756e-05
-4.68412e-05
-8.43379e-05
-4.97007e-05
-7.12122e-05
-5.26329e-05
-5.73379e-05
-5.55649e-05
-4.27231e-05
-5.84922e-05
-2.73789e-05
-6.14102e-05
-1.1369e-05
-6.40864e-05