/*--------------------------------*- C++ -*----------------------------------*\
| =========                 |                                                 |
| \\      /  F ield         | OpenFOAM: The Open Source CFD Toolbox           |
|  \\    /   O peration     | Version:  3.0.1                                 |
|   \\  /    A nd           | Web:      www.OpenFOAM.org                      |
|    \\/     M anipulation  |                                                 |
\*---------------------------------------------------------------------------*/
FoamFile
{
    version     2.0;
    format      ascii;
    class       surfaceScalarField;
    location    "9.8";
    object      alphaPhi;
}
// * * * * * * * * * * * * * * * * * * * * * * * * * * * * * * * * * * * * * //

dimensions      [0 3 -1 0 0 0 0];

internalField   nonuniform List<scalar> 
42423
(
-0.000176827
3.34111e-06
-0.000179337
2.5099e-06
-0.00018114
1.80334e-06
-0.000182269
1.12943e-06
-0.000182737
4.67959e-07
-0.000182523
-2.13931e-07
-0.000181497
-1.02654e-06
-0.000179799
-1.69764e-06
-0.000177459
-2.34012e-06
-0.000174271
-3.18848e-06
-0.000170331
-3.93924e-06
-0.000165669
-4.66251e-06
-0.000160111
-5.55811e-06
-0.000153734
-6.37733e-06
-0.000146415
-7.31826e-06
-0.00013819
-8.22507e-06
-0.00012911
-9.08044e-06
-0.000119016
-1.00943e-05
-0.000107963
-1.10532e-05
-9.60322e-05
-1.19305e-05
-8.3017e-05
-1.30152e-05
-6.90056e-05
-1.40115e-05
-5.41648e-05
-1.48409e-05
-3.83345e-05
-1.58303e-05
-2.17338e-05
-1.66008e-05
-4.32157e-06
-1.74123e-05
1.36821e-05
-1.80038e-05
3.21057e-05
-1.84237e-05
5.09265e-05
-1.8821e-05
6.99596e-05
-1.90332e-05
8.88158e-05
-1.88562e-05
0.000107396
-1.85804e-05
0.000125394
-1.79982e-05
0.000142547
-1.71532e-05
0.000158612
-1.60646e-05
0.000173255
-1.46432e-05
0.000186286
-1.30318e-05
0.000197484
-1.11982e-05
0.000206581
-9.09628e-06
0.000213504
-6.92348e-06
0.000218083
-4.57872e-06
0.000220309
-2.22676e-06
0.000220095
2.14301e-07
0.000217351
2.74375e-06
0.000212283
5.06771e-06
0.000205042
7.24115e-06
0.000195648
9.3938e-06
0.00018437
1.12786e-05
0.000171404
1.29653e-05
0.000156902
1.45024e-05
0.000141111
1.57907e-05
0.000124265
1.6846e-05
0.000106572
1.76928e-05
8.82408e-05
1.83313e-05
6.95349e-05
1.87058e-05
5.06504e-05
1.88845e-05
3.17725e-05
1.88778e-05
1.31411e-05
1.86314e-05
-5.09051e-06
1.82316e-05
-2.28065e-05
1.7716e-05
-3.98294e-05
1.70229e-05
-5.61281e-05
1.62987e-05
-7.15551e-05
1.5427e-05
-8.60782e-05
1.45231e-05
-9.96744e-05
1.35962e-05
-0.000112224
1.25495e-05
-0.000123725
1.15009e-05
-0.0001342
1.04747e-05
-0.000143583
9.38338e-06
-0.000151966
8.38351e-06
-0.000159257
7.29018e-06
-0.000165494
6.23733e-06
-0.000170748
5.25369e-06
-0.00017497
4.2217e-06
-0.000178144
3.17395e-06
-0.000180365
2.22101e-06
-0.000181622
1.25694e-06
-0.000182033
4.11426e-07
-0.000181579
-4.54571e-07
-0.00018029
-1.2886e-06
-0.000178253
-2.03694e-06
-0.000175513
-2.74054e-06
-0.000172085
-3.42734e-06
-0.000168034
-4.05191e-06
-0.000163408
-4.62528e-06
-0.000158247
-5.16143e-06
-0.000152584
-5.66277e-06
-0.000146419
-6.16542e-06
-0.000139737
-6.68217e-06
-0.000132605
-7.13141e-06
-0.000124894
-7.71117e-06
-0.000116671
-8.22387e-06
-0.000107784
-8.88646e-06
-9.81836e-05
-9.60076e-06
-8.77585e-05
-1.04253e-05
-7.6448e-05
-1.13106e-05
-6.41813e-05
-1.22668e-05
-5.09371e-05
-1.32444e-05
-3.66832e-05
-1.42541e-05
-2.14502e-05
-1.52331e-05
-5.30605e-06
-1.61444e-05
1.16151e-05
-1.69214e-05
2.92441e-05
-1.76292e-05
4.74175e-05
-1.81736e-05
6.58386e-05
-1.84213e-05
8.43279e-05
-1.84895e-05
0.00010262
-1.82919e-05
0.000120425
-1.78052e-05
0.000137448
-1.70238e-05
0.000153399
-1.5951e-05
0.000167958
-1.4559e-05
0.000180867
-1.29094e-05
0.000191882
-1.10155e-05
0.000200763
-8.88128e-06
0.000207349
-6.5854e-06
0.000211508
-4.16002e-06
0.000213176
-1.66781e-06
0.000212394
7.81761e-07
0.000209122
3.27214e-06
0.000203465
5.65649e-06
0.000195614
7.85114e-06
0.000185754
9.85978e-06
0.000174122
1.16322e-05
0.000160961
1.31604e-05
0.000146449
1.45123e-05
0.000130996
1.54532e-05
0.000114801
1.61948e-05
9.81483e-05
1.66525e-05
8.12764e-05
1.68718e-05
6.44187e-05
1.68577e-05
4.77704e-05
1.66483e-05
3.15221e-05
1.62483e-05
1.57975e-05
1.57246e-05
7.48945e-07
1.50485e-05
-1.35735e-05
1.43224e-05
-2.70512e-05
1.34778e-05
-3.9661e-05
1.26097e-05
-5.13826e-05
1.17216e-05
-6.21905e-05
1.08079e-05
-7.20874e-05
9.89697e-06
-8.10839e-05
8.99649e-06
-8.92033e-05
8.11935e-06
-9.64925e-05
7.28927e-06
-0.000102924
6.43111e-06
-0.000108599
5.67575e-06
-0.000113483
4.8835e-06
-0.000117625
4.14225e-06
-0.000121042
3.41702e-06
-0.000123756
2.71388e-06
-0.00012578
2.02444e-06
-0.000127134
1.35322e-06
-0.000127842
7.0877e-07
-0.000127894
5.17806e-08
-0.000127303
-5.90833e-07
-0.000126073
-1.23089e-06
-0.000124181
-1.89198e-06
-0.000121669
-2.51176e-06
-0.000118521
-3.14748e-06
-0.000114727
-3.79431e-06
-0.000110285
-4.44227e-06
-0.000105196
-5.08874e-06
-9.94566e-05
-5.73954e-06
-9.30689e-05
-6.38765e-06
-8.60376e-05
-7.03135e-06
-7.83705e-05
-7.66719e-06
-7.00787e-05
-8.29174e-06
-6.1189e-05
-8.88973e-06
-5.17229e-05
-9.46613e-06
-4.17258e-05
-9.99718e-06
-3.12322e-05
-1.04937e-05
-2.03067e-05
-1.09255e-05
-9.01797e-06
-1.12888e-05
2.56356e-06
-1.15816e-05
1.43504e-05
-1.17869e-05
2.62422e-05
-1.18918e-05
3.81364e-05
-1.18942e-05
4.99133e-05
-1.1777e-05
6.14568e-05
-1.15435e-05
7.26432e-05
-1.11865e-05
8.33482e-05
-1.0705e-05
9.34508e-05
-1.01026e-05
0.000102825
-9.374e-06
0.000111347
-8.52194e-06
0.000118916
-7.569e-06
0.00012543
-6.51438e-06
0.000130826
-5.39612e-06
0.00013504
-4.21396e-06
0.000138028
-2.98782e-06
0.000139763
-1.7353e-06
0.000140251
-4.88067e-07
0.000139514
7.37111e-07
0.000137555
1.95901e-06
0.000134442
3.11281e-06
0.000130252
4.19025e-06
0.000125066
5.18588e-06
0.000118983
6.08263e-06
0.000112114
6.86889e-06
0.000104576
7.53773e-06
9.64596e-05
8.11676e-06
8.7923e-05
8.53654e-06
7.90853e-05
8.83777e-06
7.00662e-05
9.019e-06
6.09793e-05
9.08694e-06
5.19291e-05
9.05014e-06
4.3021e-05
8.90808e-06
3.43421e-05
8.67894e-06
2.5963e-05
8.37912e-06
1.79187e-05
8.04426e-06
1.03283e-05
7.59041e-06
3.21358e-06
7.11468e-06
-3.39168e-06
6.60526e-06
-9.46479e-06
6.0731e-06
-1.49838e-05
5.51896e-06
-1.99386e-05
4.9548e-06
-2.43259e-05
4.38732e-06
-2.81485e-05
3.82263e-06
-3.14121e-05
3.26353e-06
-3.41297e-05
2.71768e-06
-3.63179e-05
2.18815e-06
-3.79941e-05
1.67618e-06
-3.91814e-05
1.18735e-06
-3.99045e-05
7.23093e-07
-4.01903e-05
2.85803e-07
-4.0062e-05
-1.2833e-07
-3.9547e-05
-5.15042e-07
-3.8671e-05
-8.75916e-07
-3.74654e-05
-1.2056e-06
-3.59542e-05
-1.51121e-06
-3.41643e-05
-1.78997e-06
-3.21241e-05
-2.04021e-06
-2.98587e-05
-2.26541e-06
-2.73945e-05
-2.4642e-06
-2.47565e-05
-2.63794e-06
-2.19727e-05
-2.78386e-06
-1.90648e-05
-2.90791e-06
-1.60604e-05
-3.00437e-06
-1.29817e-05
-3.07864e-06
-9.85126e-06
-3.13048e-06
-6.69404e-06
-3.15722e-06
-3.53035e-06
-3.16369e-06
-3.81075e-07
-3.14928e-06
2.73178e-06
-3.11286e-06
5.79189e-06
-3.06011e-06
8.77679e-06
-2.9849e-06
1.16736e-05
-2.89677e-06
1.44633e-05
-2.78972e-06
1.71328e-05
-2.66949e-06
1.96699e-05
-2.53712e-06
2.20603e-05
-2.39043e-06
2.42968e-05
-2.23652e-06
2.63673e-05
-2.0705e-06
2.82677e-05
-1.90041e-06
2.99897e-05
-1.72201e-06
3.15315e-05
-1.54172e-06
3.28883e-05
-1.3568e-06
3.40604e-05
-1.17213e-06
3.50483e-05
-9.87898e-07
3.58525e-05
-8.04216e-07
3.64782e-05
-6.25684e-07
3.69267e-05
-4.48541e-07
3.72064e-05
-2.79702e-07
3.73235e-05
-1.17087e-07
3.72853e-05
3.82623e-08
3.71004e-05
1.84836e-07
3.67762e-05
3.24207e-07
3.63231e-05
4.53104e-07
3.5751e-05
5.72139e-07
3.50699e-05
6.8109e-07
3.42888e-05
7.81093e-07
3.34193e-05
8.69442e-07
3.24718e-05
9.47514e-07
3.14566e-05
1.01519e-06
3.03831e-05
1.07359e-06
2.92621e-05
1.12098e-06
2.81031e-05
1.15898e-06
2.69155e-05
1.18756e-06
2.57079e-05
1.2076e-06
2.44888e-05
1.21917e-06
2.32657e-05
1.2231e-06
2.20458e-05
1.21983e-06
2.08358e-05
1.21001e-06
1.96412e-05
1.19457e-06
1.84681e-05
1.17312e-06
1.73206e-05
1.14755e-06
1.62031e-05
1.11745e-06
1.51192e-05
1.0839e-06
1.40718e-05
1.04746e-06
1.30635e-05
1.00824e-06
1.20963e-05
9.67275e-07
1.11716e-05
9.24628e-07
1.02907e-05
8.80933e-07
9.45418e-06
8.36514e-07
8.6625e-06
7.9168e-07
7.91564e-06
7.46859e-07
7.21338e-06
7.02254e-07
6.55523e-06
6.58158e-07
5.9404e-06
6.14824e-07
5.36798e-06
5.72417e-07
4.83682e-06
5.31163e-07
4.34566e-06
4.91157e-07
3.89308e-06
4.52583e-07
3.47757e-06
4.15513e-07
3.09751e-06
3.8006e-07
2.75123e-06
3.46276e-07
2.43703e-06
3.14198e-07
2.15313e-06
2.83905e-07
1.8978e-06
2.55331e-07
1.66923e-06
2.28564e-07
1.46573e-06
2.03498e-07
1.28553e-06
1.80204e-07
1.12699e-06
1.58542e-07
9.8842e-07
1.38568e-07
8.68274e-07
1.20146e-07
7.65007e-07
1.03267e-07
6.77138e-07
8.7869e-08
6.03299e-07
7.38394e-08
5.42091e-07
6.12076e-08
4.92322e-07
4.9769e-08
4.52699e-07
3.96229e-08
4.22182e-07
3.05168e-08
3.99631e-07
2.2551e-08
3.84101e-07
1.55299e-08
3.74708e-07
9.39264e-09
3.7049e-07
4.21814e-09
3.71369e-07
-8.7906e-10
3.7629e-07
-4.92142e-09
3.84421e-07
-8.13062e-09
3.95097e-07
-1.06758e-08
4.0774e-07
-1.2643e-08
4.2184e-07
-1.40999e-08
4.36946e-07
-1.51063e-08
4.52661e-07
-1.57152e-08
4.68628e-07
-1.59667e-08
4.84541e-07
-1.59136e-08
5.00141e-07
-1.55996e-08
5.15203e-07
-1.50623e-08
5.29536e-07
-1.43332e-08
5.42981e-07
-1.34451e-08
5.55409e-07
-1.24277e-08
5.66716e-07
-1.13068e-08
5.76821e-07
-1.01056e-08
5.85667e-07
-8.84547e-09
5.93213e-07
-7.54621e-09
5.99438e-07
-6.22533e-09
6.04337e-07
-4.89838e-09
6.07916e-07
-3.579e-09
6.10194e-07
-2.27857e-09
6.112e-07
-1.00553e-09
6.10778e-07
4.21457e-10
6.09033e-07
1.74536e-09
6.06046e-07
2.98647e-09
6.01889e-07
4.1572e-09
5.9663e-07
5.25893e-09
5.90339e-07
6.29163e-09
5.83083e-07
7.25526e-09
5.74934e-07
8.14957e-09
8.97479e-09
-0.000176865
6.6908e-06
-0.000179376
5.02099e-06
-0.000181184
3.6106e-06
-0.000182316
2.26125e-06
-0.000182783
9.34959e-07
-0.000182572
-4.24627e-07
-0.000181544
-2.05462e-06
-0.000179853
-3.38892e-06
-0.000177513
-4.67967e-06
-0.000174327
-6.37459e-06
-0.000170388
-7.87801e-06
-0.000165727
-9.32374e-06
-0.00016017
-1.11155e-05
-0.000153793
-1.27542e-05
-0.00014647
-1.46415e-05
-0.000138241
-1.64542e-05
-0.000129163
-1.8158e-05
-0.00011907
-2.01878e-05
-0.000108016
-2.21069e-05
-9.60862e-05
-2.38608e-05
-8.30695e-05
-2.60321e-05
-6.90552e-05
-2.8026e-05
-5.42119e-05
-2.96845e-05
-3.83777e-05
-3.16647e-05
-2.17724e-05
-3.32063e-05
-4.35297e-06
-3.4832e-05
1.36626e-05
-3.60196e-05
3.20944e-05
-3.68557e-05
5.0925e-05
-3.76518e-05
6.99728e-05
-3.80813e-05
8.88472e-05
-3.77308e-05
0.000107438
-3.71716e-05
0.000125441
-3.6001e-05
0.000142604
-3.4317e-05
0.000158682
-3.21426e-05
0.000173337
-2.92986e-05
0.000186381
-2.60753e-05
0.000197588
-2.24061e-05
0.000206691
-1.81992e-05
0.000213621
-1.38537e-05
0.000218203
-9.16136e-06
0.000220435
-4.45867e-06
0.000220217
4.32184e-07
0.000217468
5.4923e-06
0.000212402
1.01339e-05
0.000205158
1.44852e-05
0.000195758
1.87939e-05
0.000184472
2.25645e-05
0.000171498
2.59391e-05
0.000156986
2.90143e-05
0.000141185
3.15912e-05
0.00012433
3.37012e-05
0.000106629
3.53936e-05
8.8286e-05
3.66741e-05
6.95691e-05
3.74227e-05
5.06735e-05
3.778e-05
3.17849e-05
3.77663e-05
1.31439e-05
3.72724e-05
-5.10176e-06
3.64773e-05
-2.2836e-05
3.54502e-05
-3.98723e-05
3.40591e-05
-5.61809e-05
3.26073e-05
-7.16092e-05
3.08554e-05
-8.61384e-05
2.90522e-05
-9.97376e-05
2.71954e-05
-0.000112288
2.51001e-05
-0.000123788
2.30012e-05
-0.000134266
2.09517e-05
-0.000143652
1.87693e-05
-0.00015204
1.6772e-05
-0.000159337
1.45866e-05
-0.000165573
1.2474e-05
-0.000170822
1.05024e-05
-0.00017504
8.43938e-06
-0.00017821
6.34376e-06
-0.000180438
4.44946e-06
-0.000181699
2.51726e-06
-0.000182104
8.16523e-07
-0.000181651
-9.07886e-07
-0.000180364
-2.5757e-06
-0.000178328
-4.07271e-06
-0.000175585
-5.48376e-06
-0.000172154
-6.85851e-06
-0.000168107
-8.09831e-06
-0.000163481
-9.25135e-06
-0.00015831
-1.03328e-05
-0.00015265
-1.13234e-05
-0.000146487
-1.23284e-05
-0.000139804
-1.33655e-05
-0.000132674
-1.42609e-05
-0.000124962
-1.54236e-05
-0.000116755
-1.64311e-05
-0.000107862
-1.77798e-05
-9.82514e-05
-1.9211e-05
-8.78305e-05
-2.08464e-05
-7.65228e-05
-2.26185e-05
-6.42553e-05
-2.45345e-05
-5.10058e-05
-2.64942e-05
-3.67532e-05
-2.85069e-05
-2.15155e-05
-3.04711e-05
-5.35185e-06
-3.23084e-05
1.15796e-05
-3.38531e-05
2.92255e-05
-3.52754e-05
4.74004e-05
-3.63488e-05
6.58333e-05
-3.68547e-05
8.43389e-05
-3.69954e-05
0.000102647
-3.66009e-05
0.00012047
-3.5628e-05
0.000137509
-3.40636e-05
0.000153478
-3.192e-05
0.000168053
-2.91342e-05
0.000180976
-2.58329e-05
0.000192004
-2.2044e-05
0.000200895
-1.77724e-05
0.000207488
-1.3179e-05
0.000211653
-8.32451e-06
0.000213324
-3.33985e-06
0.000212535
1.57093e-06
0.000209259
6.54778e-06
0.000203598
1.13176e-05
0.000195738
1.57102e-05
0.000185867
1.97307e-05
0.00017422
2.3279e-05
0.000161052
2.63288e-05
0.000146521
2.90433e-05
0.000131056
3.09176e-05
0.000114849
3.24015e-05
9.81827e-05
3.33189e-05
8.12973e-05
3.37572e-05
6.44281e-05
3.37268e-05
4.77692e-05
3.33073e-05
3.15126e-05
3.25048e-05
1.579e-05
3.14472e-05
7.21888e-07
3.01167e-05
-1.36061e-05
2.86504e-05
-2.70893e-05
2.69609e-05
-3.97015e-05
2.5222e-05
-5.14206e-05
2.34407e-05
-6.22296e-05
2.16168e-05
-7.21312e-05
1.97987e-05
-8.11315e-05
1.79968e-05
-8.92526e-05
1.62404e-05
-9.65405e-05
1.45772e-05
-0.000102971
1.28616e-05
-0.000108648
1.13529e-05
-0.000113532
9.76713e-06
-0.000117672
8.28206e-06
-0.000121088
6.83377e-06
-0.000123804
5.42979e-06
-0.00012583
4.05032e-06
-0.000127183
2.70605e-06
-0.000127891
1.41647e-06
-0.000127944
1.04798e-07
-0.000127351
-1.18338e-06
-0.000126116
-2.46628e-06
-0.000124224
-3.78397e-06
-0.000121717
-5.01863e-06
-0.000118569
-6.29517e-06
-0.000114775
-7.58878e-06
-0.000110332
-8.88545e-06
-0.000105242
-1.01783e-05
-9.95027e-05
-1.1479e-05
-9.31112e-05
-1.27792e-05
-8.60762e-05
-1.40664e-05
-7.84092e-05
-1.53342e-05
-7.01162e-05
-1.65848e-05
-6.12242e-05
-1.77818e-05
-5.17549e-05
-1.89354e-05
-4.17531e-05
-1.99991e-05
-3.12567e-05
-2.09901e-05
-2.03263e-05
-2.18559e-05
-9.02868e-06
-2.25865e-05
2.55801e-06
-2.31683e-05
1.43493e-05
-2.35782e-05
2.6247e-05
-2.37897e-05
3.81482e-05
-2.37954e-05
4.99324e-05
-2.35613e-05
6.14837e-05
-2.30949e-05
7.2678e-05
-2.23809e-05
8.3392e-05
-2.14191e-05
9.35089e-05
-2.02196e-05
0.00010288
-1.87455e-05
0.000111408
-1.70501e-05
0.000118974
-1.51343e-05
0.000125496
-1.30368e-05
0.000130897
-1.07975e-05
0.000135115
-8.43154e-06
0.000138105
-5.97774e-06
0.000139841
-3.4718e-06
0.000140328
-9.75585e-07
0.000139587
1.47811e-06
0.000137626
3.92006e-06
0.000134511
6.22814e-06
0.000130316
8.38462e-06
0.000125126
1.03766e-05
0.000119037
1.21717e-05
0.000112162
1.37433e-05
0.000104616
1.50833e-05
9.6508e-05
1.62252e-05
8.79523e-05
1.70921e-05
7.9108e-05
1.7682e-05
7.00826e-05
1.80444e-05
6.09896e-05
1.81799e-05
5.19335e-05
1.81062e-05
4.302e-05
1.78215e-05
3.43352e-05
1.73637e-05
2.59557e-05
1.67586e-05
1.79061e-05
1.60939e-05
1.03122e-05
1.51843e-05
3.19455e-06
1.42323e-05
-3.413e-06
1.32128e-05
-9.48881e-06
1.21489e-05
-1.50085e-05
1.10387e-05
-1.9964e-05
9.91026e-06
-2.43524e-05
8.77568e-06
-2.81751e-05
7.64533e-06
-3.14391e-05
6.52756e-06
-3.41571e-05
5.43568e-06
-3.63449e-05
4.3759e-06
-3.80227e-05
3.35397e-06
-3.92067e-05
2.37139e-06
-3.99289e-05
1.44528e-06
-4.02133e-05
5.70191e-07
-4.00841e-05
-2.57496e-07
-3.95679e-05
-1.0313e-06
-3.86907e-05
-1.75308e-06
-3.74839e-05
-2.41238e-06
-3.59714e-05
-3.02378e-06
-3.41802e-05
-3.58115e-06
-3.21385e-05
-4.0819e-06
-2.98717e-05
-4.53224e-06
-2.74059e-05
-4.92994e-06
-2.47668e-05
-5.27713e-06
-2.19813e-05
-5.56931e-06
-1.90719e-05
-5.81734e-06
-1.60661e-05
-6.01013e-06
-1.2986e-05
-6.1588e-06
-9.85418e-06
-6.26227e-06
-6.69548e-06
-6.31593e-06
-3.5303e-06
-6.32886e-06
-3.79798e-07
-6.29979e-06
2.73446e-06
-6.22712e-06
5.79591e-06
-6.12156e-06
8.78193e-06
-5.97091e-06
1.16799e-05
-5.79476e-06
1.44706e-05
-5.58043e-06
1.71412e-05
-5.34004e-06
1.96791e-05
-5.075e-06
2.20704e-05
-4.7818e-06
2.43078e-05
-4.47385e-06
2.63788e-05
-4.14159e-06
2.82799e-05
-3.80146e-06
3.00023e-05
-3.44441e-06
3.15446e-05
-3.08405e-06
3.29018e-05
-2.71397e-06
3.40742e-05
-2.34455e-06
3.50618e-05
-1.97553e-06
3.58661e-05
-1.60846e-06
3.64916e-05
-1.2512e-06
3.69401e-05
-8.97038e-07
3.72197e-05
-5.59344e-07
3.73364e-05
-2.33767e-07
3.72978e-05
7.69063e-08
3.71126e-05
3.7001e-07
3.67879e-05
6.48949e-07
3.63343e-05
9.06644e-07
3.57618e-05
1.14462e-06
3.50799e-05
1.36303e-06
3.42984e-05
1.56262e-06
3.34284e-05
1.73945e-06
3.24804e-05
1.89544e-06
3.14645e-05
2.03116e-06
3.03902e-05
2.14786e-06
2.92686e-05
2.24253e-06
2.81091e-05
2.31855e-06
2.69209e-05
2.37569e-06
2.57128e-05
2.41577e-06
2.44931e-05
2.43889e-06
2.32694e-05
2.44673e-06
2.20491e-05
2.44018e-06
2.08386e-05
2.42046e-06
1.96436e-05
2.38958e-06
1.84701e-05
2.34666e-06
1.73221e-05
2.2955e-06
1.62044e-05
2.23522e-06
1.51201e-05
2.16812e-06
1.40724e-05
2.09521e-06
1.30639e-05
2.01675e-06
1.20964e-05
1.93478e-06
1.11715e-05
1.84946e-06
1.02904e-05
1.76205e-06
9.45375e-06
1.67318e-06
8.66194e-06
1.58349e-06
7.91497e-06
1.49383e-06
7.21262e-06
1.4046e-06
6.55439e-06
1.31639e-06
5.9395e-06
1.22971e-06
5.36704e-06
1.14488e-06
4.83585e-06
1.06236e-06
4.34467e-06
9.82332e-07
3.89209e-06
9.05172e-07
3.47657e-06
8.31024e-07
3.09653e-06
7.60108e-07
2.75027e-06
6.92534e-07
2.4361e-06
6.2837e-07
2.15222e-06
5.67778e-07
1.89693e-06
5.10626e-07
1.6684e-06
4.57088e-07
1.46494e-06
4.06955e-07
1.28478e-06
3.60365e-07
1.12629e-06
3.1704e-07
9.87761e-07
2.77093e-07
8.67661e-07
2.40246e-07
7.64437e-07
2.0649e-07
6.76613e-07
1.75693e-07
6.02816e-07
1.47637e-07
5.41651e-07
1.22372e-07
4.91922e-07
9.94976e-08
4.52339e-07
7.92064e-08
4.21863e-07
6.09928e-08
3.99345e-07
4.50683e-08
3.83854e-07
3.10212e-08
3.7449e-07
1.8756e-08
3.70306e-07
8.40179e-09
3.71219e-07
-1.79143e-09
3.76169e-07
-9.87204e-09
3.84327e-07
-1.6288e-08
3.95027e-07
-2.13762e-08
4.07692e-07
-2.53086e-08
4.21813e-07
-2.82204e-08
4.36938e-07
-3.02314e-08
4.52669e-07
-3.14468e-08
4.68651e-07
-3.1948e-08
4.84577e-07
-3.18401e-08
5.00188e-07
-3.12107e-08
5.1526e-07
-3.01347e-08
5.29602e-07
-2.86749e-08
5.43055e-07
-2.68975e-08
5.55488e-07
-2.48614e-08
5.668e-07
-2.26182e-08
5.76909e-07
-2.02147e-08
5.85756e-07
-1.76931e-08
5.93303e-07
-1.50934e-08
5.99529e-07
-1.24505e-08
6.04426e-07
-9.79557e-09
6.08003e-07
-7.15579e-09
6.10278e-07
-4.55401e-09
6.1128e-07
-2.00729e-09
6.10853e-07
8.47828e-10
6.09103e-07
3.49604e-09
6.06111e-07
5.97836e-09
6.01948e-07
8.3198e-09
5.96684e-07
1.05232e-08
5.90387e-07
1.25884e-08
5.83127e-07
1.45155e-08
5.74971e-07
1.63051e-08
1.79582e-08
-0.000176933
1.00481e-05
-0.000179454
7.54244e-06
-0.000181271
5.42682e-06
-0.000182401
3.39131e-06
-0.000182848
1.38229e-06
-0.000182625
-6.47999e-07
-0.000181595
-3.08425e-06
-0.000179904
-5.07998e-06
-0.000177567
-7.017e-06
-0.000174388
-9.553e-06
-0.000170451
-1.18158e-05
-0.000165792
-1.3983e-05
-0.000160237
-1.66706e-05
-0.000153863
-1.91282e-05
-0.000146535
-2.19692e-05
-0.000138312
-2.46773e-05
-0.000129237
-2.72333e-05
-0.000119145
-3.02795e-05
-0.000108093
-3.31592e-05
-9.61634e-05
-3.57906e-05
-8.31461e-05
-3.90496e-05
-6.91303e-05
-4.20419e-05
-5.42838e-05
-4.45311e-05
-3.84455e-05
-4.75032e-05
-2.1834e-05
-4.9818e-05
-4.40438e-06
-5.22619e-05
1.36269e-05
-5.40511e-05
3.20777e-05
-5.53067e-05
5.09292e-05
-5.65035e-05
6.99934e-05
-5.71458e-05
8.8882e-05
-5.66196e-05
0.000107491
-5.5781e-05
0.000125514
-5.40238e-05
0.000142699
-5.15022e-05
0.000158798
-4.82424e-05
0.000173473
-4.39732e-05
0.000186534
-3.9137e-05
0.000197754
-3.36262e-05
0.000206867
-2.7312e-05
0.000213806
-2.07926e-05
0.00021839
-1.37463e-05
0.000220632
-6.70012e-06
0.000220403
6.61009e-07
0.000217638
8.25691e-06
0.000212573
1.51983e-05
0.000205322
2.17369e-05
0.000195908
2.82076e-05
0.000184606
3.3866e-05
0.000171614
3.89307e-05
0.000157083
4.35455e-05
0.000141262
4.74122e-05
0.000124386
5.0577e-05
0.00010668
5.30993e-05
8.8318e-05
5.50362e-05
6.95834e-05
5.61573e-05
5.06722e-05
5.66912e-05
3.17691e-05
5.66694e-05
1.3114e-05
5.59275e-05
-5.14561e-06
5.47369e-05
-2.28879e-05
5.31925e-05
-3.99363e-05
5.11075e-05
-5.62525e-05
4.89234e-05
-7.1684e-05
4.62869e-05
-8.62177e-05
4.35858e-05
-9.98176e-05
4.07953e-05
-0.000112371
3.76535e-05
-0.000123875
3.45049e-05
-0.000134354
3.14308e-05
-0.000143737
2.81517e-05
-0.000152126
2.51612e-05
-0.00015942
2.18807e-05
-0.000165653
1.87074e-05
-0.0001709
1.57489e-05
-0.000175121
1.26602e-05
-0.000178294
9.51676e-06
-0.000180522
6.67761e-06
-0.000181771
3.76579e-06
-0.000182164
1.20987e-06
-0.000181711
-1.36157e-06
-0.000180424
-3.86285e-06
-0.000178383
-6.11295e-06
-0.00017564
-8.22745e-06
-0.00017221
-1.02881e-05
-0.000168157
-1.21515e-05
-0.000163531
-1.38777e-05
-0.000158358
-1.55059e-05
-0.000152693
-1.69879e-05
-0.000146524
-1.84983e-05
-0.00013984
-2.00489e-05
-0.000132721
-2.13802e-05
-0.000125016
-2.31293e-05
-0.000116819
-2.46283e-05
-0.000107931
-2.66678e-05
-9.83259e-05
-2.8816e-05
-8.79082e-05
-3.12643e-05
-7.66003e-05
-3.39266e-05
-6.43317e-05
-3.68033e-05
-5.10869e-05
-3.97392e-05
-3.68318e-05
-4.27623e-05
-2.15901e-05
-4.5713e-05
-5.41207e-06
-4.84867e-05
1.15312e-05
-5.07966e-05
2.92184e-05
-5.2963e-05
4.7369e-05
-5.44997e-05
6.58367e-05
-5.53226e-05
8.43665e-05
-5.55255e-05
0.000102697
-5.49319e-05
0.000120542
-5.34733e-05
0.000137607
-5.11285e-05
0.000153602
-4.79151e-05
0.000168198
-4.37306e-05
0.000181142
-3.87778e-05
0.000192191
-3.30933e-05
0.000201094
-2.66759e-05
0.000207698
-1.9783e-05
0.000211868
-1.24943e-05
0.000213549
-5.02164e-06
0.00021273
2.38949e-06
0.000209432
9.84606e-06
0.000203766
1.69831e-05
0.000195893
2.35827e-05
0.000186003
2.96211e-05
0.000174335
3.49467e-05
0.000161134
3.95299e-05
0.000146597
4.35796e-05
0.00013111
4.64048e-05
0.000114881
4.86298e-05
9.8196e-05
5.00041e-05
8.12929e-05
5.06603e-05
6.44076e-05
5.06121e-05
4.7735e-05
4.99797e-05
3.14658e-05
4.87741e-05
1.57669e-05
4.7146e-05
6.5716e-07
4.52264e-05
-1.36723e-05
4.29799e-05
-2.71605e-05
4.04491e-05
-3.97775e-05
3.7839e-05
-5.14962e-05
3.51594e-05
-6.23081e-05
3.24288e-05
-7.22054e-05
2.96959e-05
-8.12031e-05
2.69945e-05
-8.93262e-05
2.43635e-05
-9.66086e-05
2.18596e-05
-0.000103042
1.92947e-05
-0.000108706
1.70176e-05
-0.000113592
1.46523e-05
-0.000117732
1.24225e-05
-0.000121147
1.02491e-05
-0.00012386
8.14263e-06
-0.000125886
6.07595e-06
-0.00012724
4.06035e-06
-0.000127946
2.12193e-06
-0.000127996
1.54676e-07
-0.000127403
-1.77631e-06
-0.000126166
-3.70338e-06
-0.00012427
-5.67919e-06
-0.000121765
-7.52372e-06
-0.000118617
-9.44316e-06
-0.000114824
-1.13819e-05
-0.000110382
-1.33275e-05
-0.000105293
-1.52672e-05
-9.95539e-05
-1.72184e-05
-9.31627e-05
-1.91704e-05
-8.6127e-05
-2.11022e-05
-7.8456e-05
-2.30052e-05
-7.01598e-05
-2.4881e-05
-6.12658e-05
-2.66759e-05
-5.17945e-05
-2.84068e-05
-4.17898e-05
-3.00038e-05
-3.12897e-05
-3.14903e-05
-2.03545e-05
-3.27911e-05
-9.05063e-06
-3.38904e-05
2.5466e-06
-3.47656e-05
1.43481e-05
-3.53798e-05
2.62542e-05
-3.56958e-05
3.81637e-05
-3.5705e-05
4.99572e-05
-3.53548e-05
6.15192e-05
-3.4657e-05
7.27259e-05
-3.35877e-05
8.34571e-05
-3.21504e-05
9.35745e-05
-3.0337e-05
0.000102956
-2.81268e-05
0.000111486
-2.55807e-05
0.000119055
-2.27036e-05
0.000125588
-1.95699e-05
0.000130997
-1.6206e-05
0.000135219
-1.26538e-05
0.000138212
-8.97065e-06
0.00013995
-5.21006e-06
0.000140433
-1.45851e-06
0.000139679
2.23229e-06
0.000137714
5.88451e-06
0.000134595
9.34756e-06
0.000130394
1.25855e-05
0.000125195
1.55749e-05
0.000119097
1.82699e-05
0.000112213
2.06276e-05
0.000104655
2.2641e-05
9.65534e-05
2.43269e-05
8.79765e-05
2.5669e-05
7.91226e-05
2.65359e-05
7.00878e-05
2.70791e-05
6.09861e-05
2.72817e-05
5.19215e-05
2.71708e-05
4.30005e-05
2.67425e-05
3.43076e-05
2.60566e-05
2.59298e-05
2.51364e-05
1.78735e-05
2.41502e-05
1.02749e-05
2.27828e-05
3.15364e-06
2.13536e-05
-3.45567e-06
1.98221e-05
-9.53355e-06
1.82268e-05
-1.50536e-05
1.65587e-05
-2.00093e-05
1.48659e-05
-2.43976e-05
1.31641e-05
-2.82195e-05
1.14672e-05
-3.14825e-05
9.7905e-06
-3.41991e-05
8.15232e-06
-3.63855e-05
6.56226e-06
-3.80622e-05
5.03071e-06
-3.92446e-05
3.55378e-06
-3.99651e-05
2.16578e-06
-4.02462e-05
8.51297e-07
-4.01144e-05
-3.89331e-07
-3.95958e-05
-1.54985e-06
-3.87168e-05
-2.63214e-06
-3.75077e-05
-3.62147e-06
-3.59928e-05
-4.53865e-06
-3.41999e-05
-5.37412e-06
-3.2156e-05
-6.12583e-06
-2.98871e-05
-6.80114e-06
-2.74191e-05
-7.39794e-06
-2.47783e-05
-7.9179e-06
-2.19907e-05
-8.3569e-06
-1.90793e-05
-8.72874e-06
-1.60718e-05
-9.01766e-06
-1.29896e-05
-9.24094e-06
-9.85631e-06
-9.39559e-06
-6.69577e-06
-9.47646e-06
-3.52869e-06
-9.49595e-06
-3.76924e-07
-9.45155e-06
2.739e-06
-9.34304e-06
5.80118e-06
-9.18374e-06
8.78919e-06
-8.95892e-06
1.16885e-05
-8.6941e-06
1.44803e-05
-8.37217e-06
1.7152e-05
-8.01181e-06
1.96905e-05
-7.61349e-06
2.20829e-05
-7.17416e-06
2.4321e-05
-6.71198e-06
2.63926e-05
-6.21319e-06
2.82943e-05
-5.7031e-06
3.0017e-05
-5.16712e-06
3.15595e-05
-4.6266e-06
3.29166e-05
-4.071e-06
3.40895e-05
-3.5175e-06
3.50764e-05
-2.96245e-06
3.58805e-05
-2.41259e-06
3.65052e-05
-1.87588e-06
3.69538e-05
-1.34557e-06
3.72335e-05
-8.39113e-07
3.7349e-05
-3.49283e-07
3.73095e-05
1.16438e-07
3.71235e-05
5.56015e-07
3.6798e-05
9.74464e-07
3.63438e-05
1.36087e-06
3.57709e-05
1.71745e-06
3.50876e-05
2.0464e-06
3.43054e-05
2.3448e-06
3.34346e-05
2.61023e-06
3.2486e-05
2.84401e-06
3.14689e-05
3.04828e-06
3.03939e-05
3.22284e-06
2.92716e-05
3.3648e-06
2.81114e-05
3.47882e-06
2.69226e-05
3.5645e-06
2.57137e-05
3.62459e-06
2.44934e-05
3.65923e-06
2.32692e-05
3.67094e-06
2.20483e-05
3.66107e-06
2.08374e-05
3.63136e-06
1.9642e-05
3.58497e-06
1.8468e-05
3.52066e-06
1.73198e-05
3.44374e-06
1.62017e-05
3.35327e-06
1.51173e-05
3.25258e-06
1.40693e-05
3.14316e-06
1.30606e-05
3.02542e-06
1.2093e-05
2.90241e-06
1.11681e-05
2.77439e-06
1.02869e-05
2.64322e-06
9.45022e-06
2.50988e-06
8.6584e-06
2.37531e-06
7.91145e-06
2.24078e-06
7.20914e-06
2.10691e-06
6.55097e-06
1.97456e-06
5.93616e-06
1.84452e-06
5.36379e-06
1.71725e-06
4.83269e-06
1.59345e-06
4.34163e-06
1.4734e-06
3.88916e-06
1.35764e-06
3.47378e-06
1.24641e-06
3.09386e-06
1.14002e-06
2.74774e-06
1.03866e-06
2.4337e-06
9.42403e-07
2.14997e-06
8.51512e-07
1.89481e-06
7.65784e-07
1.66643e-06
6.85474e-07
1.4631e-06
6.10278e-07
1.28308e-06
5.40392e-07
1.12471e-06
4.75408e-07
9.86306e-07
4.15494e-07
8.66329e-07
3.60223e-07
7.63219e-07
3.096e-07
6.75508e-07
2.63403e-07
6.01814e-07
2.2133e-07
5.4075e-07
1.83436e-07
4.91115e-07
1.49133e-07
4.5162e-07
1.18701e-07
4.21232e-07
9.13806e-08
3.98787e-07
6.75129e-08
3.83375e-07
4.64331e-08
3.7407e-07
2.80609e-08
3.69953e-07
1.25181e-08
3.70929e-07
-2.76662e-09
3.75932e-07
-1.48759e-08
3.84137e-07
-2.4493e-08
3.9488e-07
-3.21193e-08
4.07584e-07
-3.80126e-08
4.21739e-07
-4.23753e-08
4.36895e-07
-4.53877e-08
4.52653e-07
-4.72049e-08
4.68658e-07
-4.79525e-08
4.84605e-07
-4.7787e-08
5.00233e-07
-4.68393e-08
5.1532e-07
-4.52219e-08
5.29674e-07
-4.30292e-08
5.43137e-07
-4.03602e-08
5.55579e-07
-3.73035e-08
5.66897e-07
-3.39362e-08
5.77011e-07
-3.03285e-08
5.85862e-07
-2.6544e-08
5.93411e-07
-2.26424e-08
5.99636e-07
-1.86763e-08
6.04533e-07
-1.46922e-08
6.08108e-07
-1.07311e-08
6.10381e-07
-6.8272e-09
6.1138e-07
-3.00634e-09
6.1095e-07
1.27806e-09
6.09195e-07
5.25104e-09
6.06199e-07
8.97487e-09
6.02031e-07
1.24872e-08
5.96762e-07
1.57923e-08
5.9046e-07
1.88901e-08
5.83195e-07
2.17807e-08
5.75034e-07
2.44656e-08
2.69465e-08
-0.00017703
1.34118e-05
-0.000179562
1.00754e-05
-0.000181386
7.25057e-06
-0.000182514
4.51874e-06
-0.000182941
1.80983e-06
-0.000182703
-8.85911e-07
-0.000181672
-4.11614e-06
-0.000179978
-6.77305e-06
-0.000177648
-9.34725e-06
-0.000174481
-1.27203e-05
-0.000170545
-1.57523e-05
-0.000165888
-1.86393e-05
-0.000160337
-2.22221e-05
-0.000153968
-2.54975e-05
-0.000146637
-2.93002e-05
-0.000138416
-3.28981e-05
-0.000129345
-3.63043e-05
-0.000119257
-4.03673e-05
-0.000108208
-4.42088e-05
-9.62794e-05
-4.77192e-05
-8.32612e-05
-5.20679e-05
-6.92429e-05
-5.60604e-05
-5.43913e-05
-5.93828e-05
-3.85467e-05
-6.33481e-05
-2.19258e-05
-6.6439e-05
-4.48113e-06
-6.97068e-05
1.35799e-05
-7.21123e-05
3.2056e-05
-7.3783e-05
5.09347e-05
-7.53825e-05
7.00293e-05
-7.62406e-05
8.89498e-05
-7.55403e-05
0.000107586
-7.44176e-05
0.000125637
-7.20753e-05
0.000142855
-6.87202e-05
0.000158986
-6.4373e-05
0.000173687
-5.86749e-05
0.000186774
-5.22245e-05
0.000198009
-4.48609e-05
0.000207133
-3.64364e-05
0.000214083
-2.77429e-05
0.000218671
-1.83345e-05
0.000220916
-8.94485e-06
0.000220675
9.0177e-07
0.000217898
1.10332e-05
0.000212834
2.02627e-05
0.000205566
2.90044e-05
0.000196132
3.76422e-05
0.000184807
4.5191e-05
0.000171788
5.19487e-05
0.000157228
5.81055e-05
0.000141377
6.3264e-05
0.000124469
6.74842e-05
0.000106755
7.08132e-05
8.8365e-05
7.34265e-05
6.96045e-05
7.49178e-05
5.06694e-05
7.56262e-05
3.1744e-05
7.55947e-05
1.30685e-05
7.46031e-05
-5.21136e-06
7.30167e-05
-2.29677e-05
7.09488e-05
-4.00375e-05
6.81773e-05
-5.63706e-05
6.52565e-05
-7.17993e-05
6.17156e-05
-8.63378e-05
5.81243e-05
-9.99459e-05
5.44034e-05
-0.000112506
5.02137e-05
-0.00012401
4.60089e-05
-0.000134491
4.19121e-05
-0.000143867
3.75269e-05
-0.000152258
3.35522e-05
-0.000159549
2.91717e-05
-0.000165776
2.49344e-05
-0.000171021
2.09943e-05
-0.000175238
1.68769e-05
-0.000178406
1.26851e-05
-0.00018064
8.91058e-06
-0.000181888
5.01436e-06
-0.000182274
1.59547e-06
-0.000181806
-1.82927e-06
-0.000180518
-5.15093e-06
-0.000178473
-8.15852e-06
-0.000175724
-1.0976e-05
-0.00017229
-1.3722e-05
-0.000168229
-1.6213e-05
-0.0001636
-1.8507e-05
-0.000158422
-2.06839e-05
-0.000152758
-2.26523e-05
-0.000146577
-2.46789e-05
-0.00013992
-2.67056e-05
-0.000132799
-2.85014e-05
-0.000125097
-3.08319e-05
-0.000116907
-3.28185e-05
-0.000108025
-3.55492e-05
-9.84277e-05
-3.84139e-05
-8.80209e-05
-4.16713e-05
-7.672e-05
-4.52277e-05
-6.44538e-05
-4.90697e-05
-5.12073e-05
-5.29859e-05
-3.69468e-05
-5.7023e-05
-2.17006e-05
-6.09594e-05
-5.49637e-06
-6.46912e-05
1.14675e-05
-6.77608e-05
2.91724e-05
-7.06681e-05
4.73349e-05
-7.26625e-05
6.58368e-05
-7.38248e-05
8.44018e-05
-7.40907e-05
0.000102768
-7.32985e-05
0.000120649
-7.13548e-05
0.00013775
-6.82295e-05
0.000153777
-6.39421e-05
0.000168408