/*--------------------------------*- C++ -*----------------------------------*\
| =========                 |                                                 |
| \\      /  F ield         | OpenFOAM: The Open Source CFD Toolbox           |
|  \\    /   O peration     | Version:  3.0.1                                 |
|   \\  /    A nd           | Web:      www.OpenFOAM.org                      |
|    \\/     M anipulation  |                                                 |
\*---------------------------------------------------------------------------*/
FoamFile
{
    version     2.0;
    format      ascii;
    class       surfaceScalarField;
    location    "9.8";
    object      phi;
}
// * * * * * * * * * * * * * * * * * * * * * * * * * * * * * * * * * * * * * //

dimensions      [0 3 -1 0 0 0 0];

internalField   nonuniform List<scalar> 
42423
(
-0.000175857
3.59385e-06
-0.000178608
2.75137e-06
-0.000180647
2.03879e-06
-0.000181998
1.35063e-06
-0.00018269
6.92587e-07
-0.000182715
2.52674e-08
-0.000181938
-7.7766e-07
-0.00018048
-1.45757e-06
-0.000178382
-2.09827e-06
-0.000175443
-2.93883e-06
-0.000171761
-3.68177e-06
-0.000167364
-4.39716e-06
-0.000162083
-5.28085e-06
-0.000155994
-6.08946e-06
-0.000148977
-7.01723e-06
-0.000141064
-7.91264e-06
-0.000132303
-8.76125e-06
-0.000122536
-9.76707e-06
-0.000111817
-1.0719e-05
-0.000100221
-1.15965e-05
-8.7538e-05
-1.26826e-05
-7.38569e-05
-1.36812e-05
-5.93341e-05
-1.45228e-05
-4.38047e-05
-1.55295e-05
-2.74842e-05
-1.63205e-05
-1.03222e-05
-1.71621e-05
7.49633e-06
-1.78187e-05
2.57767e-05
-1.82804e-05
4.45135e-05
-1.8737e-05
6.35305e-05
-1.90171e-05
8.24416e-05
-1.89112e-05
0.00010116
-1.87189e-05
0.000119382
-1.82216e-05
0.000136849
-1.74677e-05
0.000153319
-1.647e-05
0.000168451
-1.51315e-05
0.000182052
-1.36015e-05
0.000193894
-1.18417e-05
0.000203695
-9.80113e-06
0.000211372
-7.6773e-06
0.00021674
-5.36782e-06
0.000219776
-3.03601e-06
0.000220425
-6.49205e-07
0.000218511
1.91311e-06
0.000214233
4.27802e-06
0.000207734
6.49949e-06
0.000199034
8.6995e-06
0.000188394
1.06407e-05
0.000176001
1.23924e-05
0.000161995
1.40061e-05
0.000146623
1.53717e-05
0.000130116
1.65072e-05
0.000112682
1.74335e-05
9.45328e-05
1.81496e-05
7.59298e-05
1.86029e-05
5.70746e-05
1.88551e-05
3.81591e-05
1.89156e-05
1.94279e-05
1.87311e-05
1.04228e-06
1.83856e-05
-1.68811e-05
1.79234e-05
-3.41525e-05
1.72713e-05
-5.07324e-05
1.65799e-05
-6.64669e-05
1.57345e-05
-8.13179e-05
1.4851e-05
-9.52561e-05
1.39382e-05
-0.000108157
1.29009e-05
-0.000120015
1.18581e-05
-0.000130848
1.08331e-05
-0.00014059
9.74144e-06
-0.000149328
8.73801e-06
-0.000156966
7.63874e-06
-0.000163547
6.58038e-06
-0.000169136
5.58886e-06
-0.000173682
4.54681e-06
-0.000177173
3.49072e-06
-0.000179703
2.53007e-06
-0.000181245
1.54154e-06
-0.000181937
6.92057e-07
-0.000181753
-1.83821e-07
-0.00018072
-1.0331e-06
-0.000178927
-1.79293e-06
-0.000176418
-2.50892e-06
-0.000173211
-3.20682e-06
-0.000169371
-3.84032e-06
-0.000164949
-4.42226e-06
-0.000159984
-4.96497e-06
-0.000154514
-5.4701e-06
-0.00014854
-5.97363e-06
-0.000142054
-6.48606e-06
-0.000135126
-6.92768e-06
-0.000127631
-7.49536e-06
-0.000119639
-7.99174e-06
-0.000111004
-8.63597e-06
-0.000101674
-9.32996e-06
-9.15383e-05
-1.01355e-05
-8.05338e-05
-1.10047e-05
-6.85844e-05
-1.19495e-05
-5.56618e-05
-1.29227e-05
-4.1725e-05
-1.39369e-05
-2.67947e-05
-1.49304e-05
-1.09268e-05
-1.58681e-05
5.75367e-06
-1.66806e-05
2.31909e-05
-1.74374e-05
4.12333e-05
-1.80425e-05
5.95947e-05
-1.83616e-05
7.81048e-05
-1.85102e-05
9.65053e-05
-1.84007e-05
0.000114513
-1.80077e-05
0.000131836
-1.73231e-05
0.000148183
-1.63477e-05
0.000163233
-1.50502e-05
0.000176722
-1.3489e-05
0.000188397
-1.16749e-05
0.000198005
-9.60838e-06
0.00020537
-7.36533e-06
0.000210346
-4.97583e-06
0.000212846
-2.49997e-06
0.000212883
-3.70833e-08
0.000210447
2.43595e-06
0.000205569
4.8775e-06
0.000198443
7.12566e-06
0.000189246
9.19716e-06
0.000178201
1.10448e-05
0.000165545
1.26557e-05
0.000151449
1.40959e-05
0.000136321
1.5128e-05
0.000120362
1.59594e-05
0.000103857
1.65047e-05
8.70503e-05
1.68066e-05
7.0182e-05
1.68683e-05
5.34553e-05
1.67267e-05
3.70694e-05
1.63858e-05
2.11561e-05
1.59133e-05
5.87153e-06
1.52845e-05
-8.70142e-06
1.45729e-05
-2.24602e-05
1.37588e-05
-3.53682e-05
1.29079e-05
-4.73974e-05
1.20292e-05
-5.85167e-05
1.11193e-05
-6.87244e-05
1.02078e-05
-7.80279e-05
9.30347e-06
-8.64481e-05
8.4202e-06
-9.40302e-05
7.58211e-06
-0.000100746
6.71541e-06
-0.000106697
5.95101e-06
-0.000111846
5.14973e-06
-0.000116246
4.39998e-06
-0.000119913
3.66682e-06
-0.00012287
2.95664e-06
-0.000125131
2.26166e-06
-0.000126715
1.58398e-06
-0.000127646
9.30115e-07
-0.000127922
2.7612e-07
-0.000127552
-3.69675e-07
-0.000126539
-1.01257e-06
-0.000124865
-1.67473e-06
-0.00012257
-2.29478e-06
-0.00011964
-2.9304e-06
-0.000116063
-3.57667e-06
-0.000111839
-4.22404e-06
-0.000106969
-4.8702e-06
-0.000101448
-5.5212e-06
-9.52772e-05
-6.17032e-06
-8.8461e-05
-6.81622e-06
-8.10052e-05
-7.45581e-06
-7.29194e-05
-8.08587e-06
-6.42278e-05
-8.69159e-06
-5.49496e-05
-9.27825e-06
-4.51272e-05
-9.8224e-06
-3.47921e-05
-1.03352e-05
-2.40056e-05
-1.07865e-05
-1.28327e-05
-1.1173e-05
-1.34038e-06
-1.14923e-05
1.03866e-05
-1.1727e-05
2.22519e-05
-1.18653e-05
3.41556e-05
-1.19037e-05
4.59803e-05
-1.18248e-05
5.76116e-05
-1.16313e-05
6.89271e-05
-1.13155e-05
7.98027e-05
-1.08757e-05
9.01173e-05
-1.03146e-05
9.97432e-05
-9.62598e-06
0.000108555
-8.81172e-06
0.000116448
-7.89338e-06
0.000123317
-6.86922e-06
0.000129094
-5.77634e-06
0.000133707
-4.61378e-06
0.000137108
-3.40099e-06
0.000139264
-2.15572e-06
0.000140166
-9.01541e-07
0.000139841
3.24387e-07
0.000138291
1.55011e-06
0.00013556
2.73147e-06
0.000131727
3.83211e-06
0.000126871
4.8564e-06
0.000121085
5.78623e-06
0.000114476
6.60906e-06
0.000107159
7.31704e-06
9.92219e-05
7.93665e-06
9.0824e-05
8.3979e-06
8.20837e-05
8.74024e-06
7.31224e-05
8.9613e-06
6.40553e-05
9.06716e-06
5.49895e-05
9.06576e-06
4.60334e-05
8.95611e-06
3.72772e-05
8.75611e-06
2.87952e-05
8.48198e-06
2.0626e-05
8.16924e-06
1.2892e-05
7.73403e-06
5.61873e-06
7.27322e-06
-1.15583e-06
6.77455e-06
-7.40701e-06
6.25118e-06
-1.311e-05
5.70302e-06
-1.82524e-05
5.14236e-06
-2.28285e-05
4.57611e-06
-2.68392e-05
4.01065e-06
-3.02883e-05
3.44908e-06
-3.31875e-05
2.89929e-06
-3.55521e-05
2.36459e-06
-3.73986e-05
1.84643e-06
-3.87494e-05
1.35078e-06
-3.96272e-05
8.7785e-07
-4.00593e-05
4.32124e-07
-4.00699e-05
1.05512e-08
-3.96849e-05
-3.84969e-07
-3.893e-05
-7.549e-07
-3.78366e-05
-1.09345e-06
-3.64287e-05
-1.40788e-06
-3.47333e-05
-1.69542e-06
-3.27789e-05
-1.95442e-06
-3.05905e-05
-2.18832e-06
-2.81948e-05
-2.39573e-06
-2.56168e-05
-2.578e-06
-2.28845e-05
-2.73235e-06
-2.00198e-05
-2.86469e-06
-1.70505e-05
-2.96932e-06
-1.39989e-05
-3.05159e-06
-1.08876e-05
-3.11126e-06
-7.74197e-06
-3.14564e-06
-4.58244e-06
-3.15953e-06
-1.43014e-06
-3.1523e-06
1.69253e-06
-3.12267e-06
4.76902e-06
-3.07649e-06
7.77655e-06
-3.00753e-06
1.07018e-05
-2.92527e-06
1.35255e-05
-2.82367e-06
1.62339e-05
-2.70846e-06
1.88146e-05
-2.58067e-06
2.12527e-05
-2.43807e-06
2.35404e-05
-2.28775e-06
2.56653e-05
-2.12483e-06
2.76226e-05
-1.95732e-06
2.94036e-05
-1.78099e-06
3.10058e-05
-1.60224e-06
3.24242e-05
-1.41836e-06
3.36584e-05
-1.2342e-06
3.47083e-05
-1.04998e-06
3.55742e-05
-8.65824e-07
3.62605e-05
-6.86339e-07
3.67683e-05
-5.07799e-07
3.71055e-05
-3.37147e-07
3.72778e-05
-1.72365e-07
3.72922e-05
-1.44105e-08
3.71578e-05
1.34459e-07
3.68809e-05
2.76904e-07
3.6472e-05
4.08874e-07
3.59409e-05
5.31079e-07
3.52976e-05
6.43339e-07
3.45508e-05
7.46747e-07
3.37123e-05
8.38566e-07
3.27921e-05
9.20137e-07
3.18008e-05
9.91303e-07
3.07477e-05
1.05315e-06
2.96437e-05
1.10392e-06
2.84985e-05
1.1452e-06
2.73216e-05
1.17691e-06
2.61217e-05
1.19995e-06
2.49073e-05
1.21435e-06
2.36864e-05
1.22093e-06
2.24663e-05
1.22013e-06
2.12537e-05
1.21257e-06
2.00545e-05
1.1992e-06
1.88749e-05
1.17962e-06
1.77192e-05
1.15572e-06
1.65921e-05
1.12708e-06
1.54973e-05
1.09481e-06
1.44378e-05
1.05946e-06
1.34167e-05
1.02115e-06
1.24358e-05
9.80928e-07
1.14969e-05
9.38869e-07
1.06013e-05
8.95617e-07
9.74976e-06
8.51506e-07
8.9429e-06
8.06855e-07
8.1808e-06
7.62104e-07
7.46333e-06
7.17467e-07
6.79009e-06
6.73244e-07
6.16038e-06
6.29701e-07
5.57337e-06
5.8701e-07
5.02797e-06
5.45406e-07
4.52297e-06
5.04995e-07
4.05701e-06
4.65966e-07
3.6286e-06
4.28403e-07
3.23618e-06
3.92422e-07
2.87809e-06
3.58085e-07
2.55266e-06
3.25436e-07
2.2581e-06
2.94558e-07
1.99271e-06
2.65393e-07
1.75467e-06
2.38033e-07
1.5423e-06
2.12378e-07
1.3538e-06
1.88499e-07
1.18753e-06
1.66265e-07
1.0418e-06
1.4573e-07
9.15036e-07
1.26764e-07
8.05678e-07
1.09358e-07
7.12227e-07
9.34516e-08
6.3329e-07
7.89367e-08
5.67452e-07
6.58381e-08
5.13492e-07
5.39596e-08
4.701e-07
4.33916e-08
4.36208e-07
3.38927e-08
4.10655e-07
2.55525e-08
3.92473e-07
1.81824e-08
3.80756e-07
1.17167e-08
3.7455e-07
6.20566e-09
3.73345e-07
1.20484e-09
3.76716e-07
-3.37088e-09
3.83562e-07
-6.84574e-09
3.93185e-07
-9.62309e-09
4.04982e-07
-1.17977e-08
4.18422e-07
-1.344e-08
4.33034e-07
-1.4612e-08
4.48402e-07
-1.53682e-08
4.64152e-07
-1.57501e-08
4.79964e-07
-1.58114e-08
4.95561e-07
-1.55969e-08
5.10706e-07
-1.51456e-08
5.25196e-07
-1.449e-08
5.3886e-07
-1.36643e-08
5.51559e-07
-1.2699e-08
5.63181e-07
-1.16213e-08
5.73636e-07
-1.04551e-08
5.82858e-07
-9.22235e-09
5.90802e-07
-7.94348e-09
5.97438e-07
-6.63662e-09
6.02756e-07
-5.31782e-09
6.06757e-07
-4.00122e-09
6.09456e-07
-2.69872e-09
6.10875e-07
-1.41947e-09
6.1093e-07
-5.43478e-11
6.09618e-07
1.31201e-09
6.07044e-07
2.57332e-09
6.03281e-07
3.76392e-09
5.98394e-07
4.88634e-09
5.92454e-07
5.94052e-09
5.85527e-07
6.92628e-09
5.77684e-07
7.84321e-09
8.69141e-09
-0.000175896
7.19624e-06
-0.000178648
5.50375e-06
-0.000180691
4.08134e-06
-0.000182045
2.70485e-06
-0.000182736
1.38414e-06
-0.000182763
5.20755e-08
-0.000181985
-1.55604e-06
-0.000180533
-2.9091e-06
-0.000178436
-4.19603e-06
-0.000175499
-5.87535e-06
-0.000171818
-7.36307e-06
-0.000167422
-8.79302e-06
-0.000162142
-1.0561e-05
-0.000156053
-1.21784e-05
-0.000149031
-1.40393e-05
-0.000141115
-1.58292e-05
-0.000132357
-1.75195e-05
-0.000122591
-1.95331e-05
-0.000111871
-2.14384e-05
-0.000100275
-2.31926e-05
-8.75913e-05
-2.53668e-05
-7.39075e-05
-2.73652e-05
-5.93825e-05
-2.9048e-05
-4.38493e-05
-3.10629e-05
-2.75246e-05
-3.26454e-05
-1.03554e-05
-3.43314e-05
7.47354e-06
-3.56478e-05
2.57617e-05
-3.65688e-05
4.45079e-05
-3.74834e-05
6.35392e-05
-3.80486e-05
8.24681e-05
-3.78403e-05
0.000101198
-3.74485e-05
0.000119424
-3.6448e-05
0.000136902
-3.49459e-05
0.000153385
-3.29535e-05
0.000168529
-3.02755e-05
0.000182142
-2.72152e-05
0.000193994
-2.36937e-05
0.000203802
-1.96095e-05
0.000211487
-1.5362e-05
0.000216859
-1.07402e-05
0.0002199
-6.07668e-06
0.00022055
-1.29962e-06
0.000218629
3.83402e-06
0.000214352
8.55497e-06
0.000207851
1.29998e-05
0.000199146
1.74046e-05
0.000188499
2.12883e-05
0.000176098
2.4793e-05
0.000162082
2.80214e-05
0.000146701
3.0753e-05
0.000130185
3.30233e-05
0.000112743
3.4875e-05
9.4582e-05
3.63109e-05
7.59679e-05
3.7217e-05
5.71015e-05
3.77214e-05
3.8175e-05
3.78421e-05
1.94339e-05
3.74722e-05
1.03608e-06
3.67835e-05
-1.69065e-05
3.58659e-05
-3.41918e-05
3.45567e-05
-5.07823e-05
3.31703e-05
-6.65189e-05
3.14711e-05
-8.13763e-05
2.97084e-05
-9.53179e-05
2.78798e-05
-0.00010822
2.58033e-05
-0.000120078
2.37158e-05
-0.000130914
2.16689e-05
-0.000140658
1.94856e-05
-0.000149401
1.74811e-05
-0.000157046
1.52838e-05
-0.000163626
1.31602e-05
-0.00016921
1.11728e-05
-0.000173753
9.08966e-06
-0.000177239
6.97728e-06
-0.000179776
5.06697e-06
-0.000181323
3.08798e-06
-0.000182008
1.37738e-06
-0.000181825
-3.6642e-07
-0.000180794
-2.06471e-06
-0.000179002
-3.58471e-06
-0.00017649
-5.02058e-06
-0.00017328
-6.41736e-06
-0.000169445
-7.6751e-06
-0.000165022
-8.84557e-06
-0.000160047
-9.93997e-06
-0.000154579
-1.0938e-05
-0.000148608
-1.1945e-05
-0.00014212
-1.29735e-05
-0.000135195
-1.38535e-05
-0.000127698
-1.4992e-05
-0.000119723
-1.5967e-05
-0.00011108
-1.7279e-05
-0.000101741
-1.86693e-05
-9.16101e-05
-2.02665e-05
-8.06086e-05
-2.20064e-05
-6.86588e-05
-2.38995e-05
-5.57313e-05
-2.58505e-05
-4.17965e-05
-2.7872e-05
-2.68621e-05
-2.9865e-05
-1.09756e-05
-3.17549e-05
5.71479e-06
-3.33714e-05
2.31686e-05
-3.48915e-05
4.1212e-05
-3.60863e-05
5.95849e-05
-3.67348e-05
7.81108e-05
-3.70364e-05
9.6528e-05
-3.68182e-05
0.000114553
-3.60329e-05
0.000131892
-3.46621e-05
0.000148257
-3.27136e-05
0.000163324
-3.01169e-05
0.000176827
-2.69925e-05
0.000188515
-2.33634e-05
0.000198134
-1.92274e-05
0.000205508
-1.47397e-05
0.000210489
-9.95707e-06
0.000212992
-5.00369e-06
0.000213027
-7.23258e-08
0.000210585
4.87824e-06
0.000205703
9.75927e-06
0.000198571
1.42576e-05
0.000189363
1.84047e-05
0.000178304
2.21038e-05
0.00016564
2.53192e-05
0.000151525
2.82104e-05
0.000136386
3.02671e-05
0.000120415
3.19308e-05
0.000103896
3.30236e-05
8.70753e-05
3.36269e-05
7.01951e-05
3.37483e-05
5.34574e-05
3.34644e-05
3.70629e-05
3.27803e-05
2.11515e-05
3.18247e-05
5.84708e-06
3.05889e-05
-8.73201e-06
2.9152e-05
-2.24968e-05
2.75236e-05
-3.54076e-05
2.58187e-05
-4.74346e-05
2.40561e-05
-5.85551e-05
2.22398e-05
-6.87678e-05
2.04204e-05
-7.80752e-05
1.86109e-05
-8.64972e-05
1.68422e-05
-9.4078e-05
1.5163e-05
-0.000100793
1.34303e-05
-0.000106745
1.19034e-05
-0.000111895
1.02996e-05
-0.000116293
8.79752e-06
-0.000119959
7.33341e-06
-0.000122918
5.9153e-06
-0.000125181
4.52451e-06
-0.000126765
3.16792e-06
-0.000127694
1.8597e-06
-0.000127971
5.52603e-07
-0.0001276
-7.40801e-07
-0.000126583
-2.02964e-06
-0.000124908
-3.34942e-06
-0.000122618
-4.58465e-06
-0.000119688
-5.86099e-06
-0.000116111
-7.15347e-06
-0.000111886
-8.44896e-06
-0.000107015
-9.74116e-06
-0.000101494
-1.10422e-05
-9.53199e-05
-1.23445e-05
-8.85001e-05
-1.3636e-05
-8.10447e-05
-1.49113e-05
-7.29576e-05
-1.61729e-05
-6.42639e-05
-1.73854e-05
-5.49826e-05
-1.85595e-05
-4.51557e-05
-1.96494e-05
-3.4818e-05
-2.06729e-05
-2.40268e-05
-2.15778e-05
-1.28452e-05
-2.23546e-05
-1.34798e-06
-2.29896e-05
1.03834e-05
-2.34584e-05
2.22546e-05
-2.37366e-05
3.41651e-05
-2.38143e-05
4.5997e-05
-2.36567e-05
5.7636e-05
-2.32704e-05
6.89594e-05
-2.2639e-05
7.98442e-05
-2.17606e-05
9.01731e-05
-2.06436e-05
9.97967e-05
-1.92497e-05
0.000108615
-1.76299e-05
0.000116505
-1.57834e-05
0.000123382
-1.37467e-05
0.000129164
-1.15582e-05
0.000133782
-9.23152e-06
0.000137185
-6.80441e-06
0.000139342
-4.31264e-06
0.000140245
-1.80446e-06
0.000139916
6.53176e-07
0.000138363
3.1027e-06
0.00013563
5.46482e-06
0.000131794
7.66802e-06
0.000126933
9.71738e-06
0.00012114
1.15787e-05
0.000114526
1.32235e-05
0.000107201
1.46419e-05
9.92724e-05
1.5865e-05
9.08555e-05
1.68148e-05
8.21087e-05
1.7487e-05
7.31409e-05
1.79291e-05
6.40675e-05
1.81405e-05
5.49957e-05
1.81376e-05
4.6034e-05
1.79177e-05
3.72719e-05
1.75182e-05
2.87894e-05
1.69645e-05
2.06146e-05
1.6344e-05
1.28769e-05
1.54717e-05
5.60058e-06
1.45496e-05
-1.17639e-06
1.35515e-05
-7.43041e-06
1.25052e-05
-1.31343e-05
1.14069e-05
-1.82775e-05
1.02855e-05
-2.28548e-05
9.15336e-06
-2.68656e-05
8.02147e-06
-3.03153e-05
6.89875e-06
-3.3215e-05
5.79899e-06
-3.55793e-05
4.72884e-06
-3.74274e-05
3.69452e-06
-3.87748e-05
2.69823e-06
-3.9652e-05
1.75499e-06
-4.00828e-05
8.62983e-07
-4.00923e-05
2.00742e-08
-3.97063e-05
-7.71063e-07
-3.89501e-05
-1.51104e-06
-3.78555e-05
-2.18807e-06
-3.64463e-05
-2.81711e-06
-3.47497e-05
-3.39204e-06
-3.27938e-05
-3.91031e-06
-3.0604e-05
-4.37805e-06
-2.82068e-05
-4.79299e-06
-2.56275e-05
-5.15724e-06
-2.28936e-05
-5.46627e-06
-2.00274e-05
-5.7309e-06
-1.70567e-05
-5.94002e-06
-1.40036e-05
-6.1047e-06
-1.0891e-05
-6.22384e-06
-7.74389e-06
-6.29278e-06
-4.58286e-06
-6.32056e-06
-1.42934e-06
-6.30582e-06
1.69476e-06
-6.24677e-06
4.7726e-06
-6.15434e-06
7.78127e-06
-6.0162e-06
1.07078e-05
-5.85177e-06
1.35325e-05
-5.64836e-06
1.6242e-05
-5.41802e-06
1.88235e-05
-5.16211e-06
2.12625e-05
-4.8771e-06
2.35511e-05
-4.57635e-06
2.56765e-05
-4.25028e-06
2.76345e-05
-3.91531e-06
2.94159e-05
-3.56239e-06
3.10188e-05
-3.20513e-06
3.24376e-05
-2.83711e-06
3.36721e-05
-2.46873e-06
3.47219e-05
-2.09973e-06
3.55877e-05
-1.73171e-06
3.62739e-05
-1.37254e-06
3.67817e-05
-1.01558e-06
3.71188e-05
-6.74259e-07
3.72908e-05
-3.44329e-07
3.73049e-05
-2.85062e-08
3.71701e-05
2.69278e-07
3.68926e-05
5.54333e-07
3.64833e-05
8.18163e-07
3.59519e-05
1.06249e-06
3.53078e-05
1.28751e-06
3.45606e-05
1.49392e-06
3.37215e-05
1.67769e-06
3.28009e-05
1.84068e-06
3.18088e-05
1.98338e-06
3.0755e-05
2.10699e-06
2.96505e-05
2.20841e-06
2.85047e-05
2.29098e-06
2.73272e-05
2.3544e-06
2.61267e-05
2.40048e-06
2.49118e-05
2.42926e-06
2.36903e-05
2.4424e-06
2.24697e-05
2.44077e-06
2.12567e-05
2.42559e-06
2.0057e-05
2.39884e-06
1.8877e-05
2.35966e-06
1.77209e-05
2.31184e-06
1.65934e-05
2.2545e-06
1.54983e-05
2.18995e-06
1.44385e-05
2.11922e-06
1.34171e-05
2.04258e-06
1.24359e-05
1.9621e-06
1.14969e-05
1.87795e-06
1.06011e-05
1.79142e-06
9.74938e-06
1.70318e-06
8.94238e-06
1.61385e-06
8.18016e-06
1.52433e-06
7.46259e-06
1.43503e-06
6.78927e-06
1.34657e-06
6.1595e-06
1.25947e-06
5.57245e-06
1.17407e-06
5.02701e-06
1.09085e-06
4.52199e-06
1.01001e-06
4.05601e-06
9.31942e-07
3.62761e-06
8.56806e-07
3.2352e-06
7.84835e-07
2.87713e-06
7.16154e-07
2.55171e-06
6.50848e-07
2.25718e-06
5.89087e-07
1.99182e-06
5.30753e-07
1.75383e-06
4.76028e-07
1.54149e-06
4.24716e-07
1.35303e-06
3.76956e-07
1.18681e-06
3.32486e-07
1.04113e-06
2.91417e-07
9.14408e-07
2.53482e-07
8.05093e-07
2.18672e-07
7.11687e-07
1.86858e-07
6.32793e-07
1.57831e-07
5.66998e-07
1.31633e-07
5.13079e-07
1.07878e-07
4.69727e-07
8.67434e-08
4.35875e-07
6.77442e-08
4.10357e-07
5.10707e-08
3.92213e-07
3.63262e-08
3.80525e-07
2.3404e-08
3.74352e-07
1.23788e-08
3.73186e-07
2.37061e-09
3.76585e-07
-6.77026e-09
3.83458e-07
-1.37185e-08
3.93106e-07
-1.92714e-08
4.04927e-07
-2.36186e-08
4.18388e-07
-2.69014e-08
4.3302e-07
-2.92435e-08
4.48405e-07
-3.07534e-08
4.6417e-07
-3.15154e-08
4.79995e-07
-3.16363e-08
4.95604e-07
-3.12058e-08
5.1076e-07
-3.03016e-08
5.25259e-07
-2.89891e-08
5.38931e-07
-2.73362e-08
5.51636e-07
-2.54045e-08
5.63263e-07
-2.32477e-08
5.73722e-07
-2.09141e-08
5.82947e-07
-1.84472e-08
5.90891e-07
-1.58883e-08
5.97528e-07
-1.32734e-08
6.02845e-07
-1.06347e-08
6.06844e-07
-8.00047e-09
6.0954e-07
-5.39454e-09
6.10956e-07
-2.83532e-09
6.11005e-07
-1.04006e-10
6.09688e-07
2.62922e-09
6.0711e-07
5.15196e-09
6.0334e-07
7.53319e-09
5.98449e-07
9.77791e-09
5.92503e-07
1.18861e-08
5.85572e-07
1.38575e-08
5.77723e-07
1.56923e-08
1.73915e-08
-0.000175964
1.08061e-05
-0.000178726
8.26606e-06
-0.000180777
6.13254e-06
-0.000182137
4.06412e-06
-0.000182819
2.06641e-06
-0.000182827
6.02717e-08
-0.000182037
-2.3466e-06
-0.000180585
-4.36101e-06
-0.000178489
-6.29177e-06
-0.00017556
-8.80443e-06
-0.00017188
-1.10434e-05
-0.000167486
-1.3187e-05
-0.000162208
-1.58388e-05
-0.000156122
-1.82645e-05
-0.000149096
-2.10656e-05
-0.000141185
-2.37397e-05
-0.00013243
-2.62754e-05
-0.000122665
-2.92973e-05
-0.000111948
-3.21561e-05
-0.000100353
-3.47879e-05
-8.76683e-05
-3.80512e-05
-7.39834e-05
-4.10503e-05
-5.94556e-05
-4.35759e-05
-4.39188e-05
-4.65999e-05
-2.75882e-05
-4.89762e-05
-1.041e-05
-5.15098e-05
7.43369e-06
-5.34917e-05
2.57397e-05
-5.4875e-05
4.4506e-05
-5.625e-05
6.35533e-05
-5.70961e-05
8.24961e-05
-5.67832e-05
0.000101243
-5.6196e-05
0.000119489
-5.46942e-05
0.000136989
-5.24458e-05
0.000153494
-4.94591e-05
0.000168658
-4.54391e-05
0.00018229
-4.08476e-05
0.000194155
-3.55588e-05
0.000203974
-2.94289e-05
0.000211669
-2.30566e-05
0.000217044
-1.61159e-05
0.000220093
-9.12582e-06
0.000220743
-1.94966e-06
0.000218799
5.77825e-06
0.000214523
1.2831e-05
0.000208018
1.9504e-05
0.000199301
2.6122e-05
0.000188638
3.19507e-05
0.00017622
3.72108e-05
0.000162186
4.20557e-05
0.000146784
4.61545e-05
0.000130247
4.95601e-05
0.000112801
5.23217e-05
9.462e-05
5.44914e-05
7.5988e-05
5.58491e-05
5.71056e-05
5.66038e-05
3.8164e-05
5.67837e-05
1.94083e-05
5.62278e-05
9.96011e-07
5.51957e-05
-1.69552e-05
5.38171e-05
-3.4253e-05
5.18545e-05
-5.08516e-05
4.97689e-05
-6.6592e-05
4.72115e-05
-8.14544e-05
4.45709e-05
-9.53972e-05
4.18226e-05
-0.000108303
3.87089e-05
-0.000120164
3.55773e-05
-0.000131002
3.25068e-05
-0.000140743
2.92265e-05
-0.000149487
2.62251e-05
-0.00015713
2.29265e-05
-0.000163707
1.97368e-05
-0.000169288
1.67547e-05
-0.000173835
1.36357e-05
-0.000177324
1.04666e-05
-0.000179858
7.60145e-06
-0.000181397
4.62647e-06
-0.000182071
2.05128e-06
-0.000181887
-5.50601e-07
-0.000180855
-3.09656e-06
-0.000179058
-5.38101e-06
-0.000176546
-7.53269e-06
-0.000173337
-9.62646e-06
-0.000169496
-1.15168e-05
-0.000165072
-1.32692e-05
-0.000160095
-1.4917e-05
-0.000154623
-1.64101e-05
-0.000148644
-1.79236e-05
-0.000142157
-1.94613e-05
-0.000135241
-2.07696e-05
-0.000127751
-2.24822e-05
-0.000119785
-2.39324e-05
-0.000111148
-2.59166e-05
-0.000101814
-2.80033e-05
-9.16866e-05
-3.03941e-05
-8.06853e-05
-3.30078e-05
-6.87349e-05
-3.58501e-05
-5.58129e-05
-3.87727e-05
-4.18763e-05
-4.18089e-05
-2.6939e-05
-4.48027e-05
-1.10397e-05
-4.76544e-05
5.66177e-06
-5.00732e-05
2.31562e-05
-5.23863e-05
4.11749e-05
-5.41053e-05
5.95818e-05
-5.5142e-05
7.81313e-05
-5.55862e-05
9.65701e-05
-5.52573e-05
0.000114617
-5.40803e-05
0.000131981
-5.20263e-05
0.000148373
-4.91057e-05
0.000163461
-4.52053e-05
0.000176986
-4.05182e-05
0.000188696
-3.50737e-05
0.000198329
-2.88599e-05
0.000205714
-2.21258e-05
0.000210702
-1.4945e-05
0.000213217
-7.51845e-06
0.000213232
-8.83986e-08
0.000210759
7.3514e-06
0.000205873
1.46448e-05
0.00019873
2.14004e-05
0.000189504
2.76307e-05
0.000178425
3.3183e-05
0.000165729
3.80149e-05
0.000151609
4.233e-05
0.000136447
4.5429e-05
0.000120454
4.7924e-05
0.000103916
4.95616e-05
8.70769e-05
5.04655e-05
7.01799e-05
5.06451e-05
5.3428e-05
5.02163e-05
3.70201e-05
4.9188e-05
2.11321e-05
4.77127e-05
5.78517e-06
4.59358e-05
-8.79575e-06
4.37329e-05
-2.25666e-05
4.12944e-05
-3.54828e-05
3.87349e-05
-4.75098e-05
3.60831e-05
-5.86338e-05
3.33637e-05
-6.88422e-05
3.06289e-05
-7.81472e-05
2.79159e-05
-8.65714e-05
2.52664e-05
-9.41469e-05
2.27384e-05
-0.000100864
2.01477e-05
-0.000106804
1.78435e-05
-0.000111956
1.54509e-05
-0.000116354
1.31957e-05
-0.000120019
1.09985e-05
-0.000122975
8.87077e-06
-0.000125237
6.78664e-06
-0.000126823
4.7538e-06
-0.000127751
2.78807e-06
-0.000128022
8.24118e-07
-0.000127652
-1.11172e-06
-0.000126633
-3.04857e-06
-0.000124955
-5.02744e-06
-0.000122667
-6.87281e-06
-0.000119736
-8.79188e-06
-0.00011616
-1.07289e-05
-0.000111936
-1.26727e-05
-0.000107066
-1.46113e-05
-0.000101545
-1.65632e-05
-9.53716e-05
-1.85182e-05
-8.85512e-05
-2.04565e-05
-8.10919e-05
-2.23707e-05
-7.30018e-05
-2.4263e-05
-6.43063e-05
-2.6081e-05
-5.50233e-05
-2.78426e-05
-4.51938e-05
-2.94789e-05
-3.48526e-05
-3.10141e-05
-2.40569e-05
-3.23735e-05
-1.28694e-05
-3.35422e-05
-1.36199e-06
-3.44971e-05
1.03795e-05
-3.52e-05
2.22588e-05
-3.5616e-05
3.41776e-05
-3.57331e-05
4.60185e-05
-3.54977e-05
5.76682e-05
-3.49202e-05
6.90039e-05
-3.39748e-05
7.99059e-05
-3.26626e-05
9.02354e-05
-3.09732e-05
9.98689e-05
-2.88833e-05
0.00010869
-2.64507e-05
0.000116584
-2.36776e-05
0.000123472
-2.06353e-05
0.000129262
-1.73476e-05
0.000133885
-1.38544e-05
0.000137291
-1.02113e-05
0.000139449
-6.47073e-06
0.000140354
-2.70934e-06
0.000140014
9.93528e-07
0.000138452
4.66472e-06
0.000135715
8.20138e-06
0.000131873
1.151e-05
0.000127005
1.45857e-05
0.000121204
1.738e-05
0.000114579
1.98475e-05
0.000107243
2.19786e-05
9.93211e-05
2.37866e-05
9.08829e-05
2.52529e-05
8.21264e-05
2.62435e-05
7.31491e-05
2.69063e-05
6.40668e-05
2.72227e-05
5.49863e-05
2.72181e-05
4.60168e-05
2.68872e-05
3.72463e-05
2.62887e-05
2.87652e-05
2.54456e-05
2.05834e-05
2.45257e-05
1.28408e-05
2.32143e-05
5.56058e-06
2.18298e-05
-1.21838e-06
2.03305e-05
-7.47467e-06
1.87615e-05
-1.31791e-05
1.71114e-05
-1.83227e-05
1.5429e-05
-2.29001e-05
1.37308e-05
-2.69102e-05
1.20316e-05
-3.03589e-05
1.03475e-05
-3.32574e-05
8.69742e-06
-3.56203e-05
7.0918e-06
-3.74674e-05
5.5416e-06
-3.88131e-05
4.04395e-06
-3.96887e-05
2.63055e-06
-4.01169e-05
1.29114e-06
-4.01236e-05
2.68461e-08
-3.97349e-05
-1.15977e-06
-3.89769e-05
-2.26909e-06
-3.788e-05
-3.285e-06
-3.64684e-05
-4.22863e-06
-3.477e-05
-5.09046e-06
-3.28119e-05
-5.86844e-06
-3.06201e-05
-6.56985e-06
-2.82206e-05
-7.19252e-06
-2.56397e-05
-7.73807e-06
-2.29037e-05
-8.20236e-06
-2.00355e-05
-8.59909e-06
-1.7063e-05
-8.91251e-06
-1.40079e-05
-9.15982e-06
-1.08938e-05
-9.33795e-06
-7.74477e-06
-9.44176e-06
-4.58181e-06
-9.48353e-06
-1.42701e-06
-9.46063e-06
1.69878e-06
-9.37255e-06
4.77739e-06
-9.23295e-06
7.78807e-06
-9.02689e-06
1.0716e-05
-8.77965e-06
1.35417e-05
-8.47412e-06
1.62525e-05
-8.12883e-06
1.88346e-05
-7.74421e-06
2.12747e-05
-7.31716e-06
2.35641e-05
-6.86578e-06
2.56901e-05
-6.37628e-06
2.76487e-05
-5.87393e-06
2.94305e-05
-5.34416e-06
3.10336e-05
-4.80828e-06
3.24523e-05
-4.25577e-06
3.36874e-05
-3.70382e-06
3.47365e-05
-3.14882e-06
3.56023e-05
-2.59751e-06
3.62877e-05
-2.05794e-06
3.67955e-05
-1.52343e-06
3.71328e-05
-1.01153e-06
3.73036e-05
-5.15142e-07
3.73169e-05
-4.18261e-08
3.71812e-05
4.05001e-07
3.6903e-05
8.32527e-07
3.64931e-05
1.22812e-06
3.59613e-05
1.59424e-06
3.53157e-05
1.93312e-06
3.45679e-05
2.24174e-06
3.3728e-05
2.51758e-06
3.28068e-05
2.76187e-06
3.18136e-05
2.97663e-06
3.0759e-05
3.16154e-06
2.96538e-05
3.31364e-06
2.85073e-05
3.43747e-06
2.73291e-05
3.53258e-06
2.61279e-05
3.60167e-06
2.49124e-05
3.64479e-06
2.36903e-05
3.66446e-06
2.24691e-05
3.66198e-06
2.12556e-05
3.63908e-06
2.00556e-05
3.59889e-06
1.8875e-05
3.54019e-06
1.77186e-05
3.46827e-06
1.65909e-05
3.3822e-06
1.54955e-05
3.28534e-06
1.44355e-05
3.17919e-06
1.34139e-05
3.06417e-06
1.24326e-05
2.9434e-06
1.14934e-05
2.81714e-06
1.05976e-05
2.68729e-06
9.74586e-06
2.55489e-06
8.93885e-06
2.42086e-06
8.17664e-06
2.28654e-06
7.45911e-06
2.15257e-06
6.78583e-06
2.01984e-06
6.15614e-06
1.88916e-06
5.56916e-06
1.76104e-06
5.02382e-06
1.63619e-06
4.51891e-06
1.51492e-06
4.05305e-06
1.3978e-06
3.62477e-06
1.28509e-06
3.23249e-06
1.17712e-06
2.87455e-06
1.07409e-06
2.54928e-06
9.76122e-07
2.25489e-06
8.83476e-07
1.98966e-06
7.95976e-07
1.75181e-06
7.13885e-07
1.5396e-06
6.36919e-07
1.35128e-06
5.65279e-07
1.18519e-06
4.98577e-07
1.03963e-06
4.36979e-07
9.13034e-07
3.80075e-07
8.03835e-07
3.27871e-07
7.10543e-07
2.8015e-07
6.31754e-07
2.3662e-07
5.66062e-07
1.97325e-07
5.12238e-07
1.61702e-07
4.68977e-07
1.30005e-07
4.35215e-07
1.01506e-07
4.09771e-07
7.65141e-08
3.91707e-07
5.43898e-08
3.8008e-07
3.50317e-08
3.73971e-07
1.84876e-08
3.72879e-07
3.46169e-09
3.76331e-07
-1.02221e-08
3.83252e-07
-2.06397e-08
3.92944e-07
-2.89637e-08
4.04805e-07
-3.54794e-08
4.18302e-07
-4.03985e-08
4.32966e-07
-4.39075e-08
4.48379e-07
-4.61664e-08
4.64169e-07
-4.73052e-08
4.80015e-07
-4.74826e-08
4.95642e-07
-4.68331e-08
5.10814e-07
-4.54735e-08
5.25326e-07
-4.35015e-08
5.3901e-07
-4.10194e-08
5.51724e-07
-3.8119e-08
5.63358e-07
-3.48813e-08
5.73822e-07
-3.13784e-08
5.8305e-07
-2.76758e-08
5.90997e-07
-2.38354e-08
5.97635e-07
-1.99112e-08
6.02952e-07
-1.59514e-08
6.0695e-07
-1.19986e-08
6.09644e-07
-8.08842e-09
6.11057e-07
-4.2487e-09
6.11103e-07
-1.50014e-10
6.09782e-07
3.95053e-09
6.07199e-07
7.73506e-09
6.03425e-07
1.13072e-08
5.98528e-07
1.46743e-08
5.92578e-07
1.78366e-08
5.85642e-07
2.07937e-08
5.77788e-07
2.35464e-08
2.60963e-08
-0.000176061
1.44223e-05
-0.000178835
1.10393e-05
-0.000180893
8.19107e-06
-0.000182253
5.42449e-06
-0.000182915
2.7284e-06
-0.000182907
5.20369e-08
-0.000182113
-3.14061e-06
-0.000180659
-5.8155e-06
-0.00017857
-8.38076e-06
-0.000175652
-1.17228e-05
-0.000171972
-1.47227e-05
-0.000167581
-1.75781e-05
-0.000162307
-2.11131e-05
-0.000156226
-2.4346e-05
-0.000149196
-2.8095e-05
-0.000141288
-3.16479e-05
-0.000132537
-3.50268e-05
-0.000122777
-3.90572e-05
-0.000112062
-4.28708e-05
-0.000100469
-4.63817e-05
-8.77841e-05
-5.0736e-05
-7.40972e-05
-5.47374e-05
-5.9565e-05
-5.81082e-05
-4.40225e-05
-6.21427e-05
-2.76831e-05
-6.53157e-05
-1.04919e-05
-6.87012e-05
7.37969e-06
-7.13635e-05
2.57099e-05
-7.32053e-05
4.45024e-05
-7.50427e-05
6.35792e-05
-7.6173e-05
8.25532e-05
-7.57574e-05
0.000101327
-7.49704e-05
0.000119602
-7.29689e-05
0.000137134
-6.99784e-05
0.000153671
-6.59958e-05
0.000168862
-6.06306e-05
0.000182521
-5.45069e-05
0.000194402
-4.74399e-05
0.000204235
-3.92615e-05
0.000211942
-3.07642e-05
0.000217323
-2.14967e-05
0.000220376
-1.2179e-05
0.000221024
-2.598e-06
0.000219058
7.74367e-06
0.000214783
1.71059e-05
0.000208268
2.60192e-05
0.000199531
3.48587e-05
0.000188846
4.26354e-05
0.000176403
4.96541e-05
0.00016234
5.61181e-05
0.000146908
6.15865e-05
0.00013034
6.61281e-05
0.000112885
6.97769e-05
9.46761e-05
7.27005e-05
7.60176e-05
7.45075e-05
5.71108e-05
7.55106e-05
3.81461e-05
7.57483e-05
1.93691e-05
7.50048e-05
9.36051e-07
7.36288e-05
-1.70301e-05
7.17832e-05
-3.43497e-05
6.91741e-05
-5.0966e-05
6.63852e-05
-6.67047e-05
6.29502e-05
-8.15728e-05
5.9439e-05
-9.55243e-05
5.57741e-05
-0.000108437
5.16217e-05
-0.000120299
4.74395e-05
-0.00013114
4.33472e-05
-0.000140874
3.89605e-05
-0.00014962
3.49711e-05
-0.000157259
3.05663e-05
-0.00016383
2.63072e-05
-0.000169411
2.23357e-05
-0.000173953
1.81777e-05
-0.000177437
1.39512e-05
-0.000179975
1.01389e-05
-0.000181517
6.16814e-06
-0.000182183
2.71751e-06
-0.000181984
-7.49671e-07
-0.000180951
-4.12944e-06
-0.000179149
-7.18272e-06
-0.000176632
-1.00498e-05
-0.000173419
-1.284e-05
-0.000169568
-1.5367e-05
-0.000165142
-1.76961e-05
-0.00016016
-1.98991e-05
-0.000154687
-2.18826e-05
-0.000148698
-2.39133e-05
-0.000142236
-2.5923e-05
-0.000135318
-2.7688e-05
-0.00012783
-2.99698e-05
-0.000119871
-3.18913e-05
-0.00011124
-3.45477e-05
-0.000101914
-3.73301e-05
-9.17975e-05
-4.05105e-05
-8.08038e-05
-4.40017e-05
-6.88567e-05
-4.77974e-05
-5.5934e-05
-5.16956e-05
-4.19934e-05
-5.57498e-05
-2.70529e-05
-5.97434e-05
-1.11297e-05
-6.35779e-05
5.59145e-06
-6.67946e-05
2.31027e-05
-6.98978e-05
4.11322e-05
-7.21352e-05
5.95722e-05
-7.35823e-05
7.81559e-05
-7.41703e-05
9.66296e-05
-7.37313e-05
0.000114713
-7.21635e-05
0.000132112
-6.94265e-05
0.000148537
-6.553e-05