/*--------------------------------*- C++ -*----------------------------------*\
| =========                 |                                                 |
| \\      /  F ield         | OpenFOAM: The Open Source CFD Toolbox           |
|  \\    /   O peration     | Version:  3.0.1                                 |
|   \\  /    A nd           | Web:      www.OpenFOAM.org                      |
|    \\/     M anipulation  |                                                 |
\*---------------------------------------------------------------------------*/
FoamFile
{
    version     2.0;
    format      ascii;
    class       surfaceScalarField;
    location    "97.8";
    object      alphaPhi;
}
// * * * * * * * * * * * * * * * * * * * * * * * * * * * * * * * * * * * * * //

dimensions      [0 3 -1 0 0 0 0];

internalField   nonuniform List<scalar> 
42423
(
0.000159096
8.32055e-06
0.000151378
7.71861e-06
0.000144266
7.11198e-06
0.000137732
6.53342e-06
0.000131753
5.97978e-06
0.000126303
5.4495e-06
0.000121374
4.92894e-06
0.00011695
4.42443e-06
0.00011302
3.92959e-06
0.000109592
3.42809e-06
0.000106667
2.92523e-06
0.000104239
2.42753e-06
0.000102342
1.89714e-06
0.00010096
1.38176e-06
0.000100116
8.44254e-07
9.98116e-05
3.04607e-07
0.000100036
-2.24175e-07
0.000100836
-8.00453e-07
0.000102252
-1.41554e-06
0.000104167
-1.91558e-06
0.000106665
-2.4976e-06
0.000109812
-3.14724e-06
0.000113431
-3.61834e-06
0.000117643
-4.21235e-06
0.000122384
-4.74156e-06
0.000127756
-5.37143e-06
0.000133797
-6.04072e-06
0.000140252
-6.45496e-06
0.000147321
-7.06958e-06
0.000155108
-7.7866e-06
0.000163314
-8.20587e-06
0.000172195
-8.88179e-06
0.000181669
-9.47381e-06
0.000191881
-1.02114e-05
0.000202969
-1.10885e-05
0.000214612
-1.16429e-05
0.000227014
-1.24017e-05
0.000240397
-1.33835e-05
0.000254339
-1.39417e-05
0.000269067
-1.47286e-05
0.000284453
-1.53857e-05
0.000300455
-1.60018e-05
0.000317144
-1.6689e-05
0.000334006
-1.68622e-05
0.000350952
-1.69461e-05
0.000368003
-1.70517e-05
0.000384649
-1.6646e-05
0.000400693
-1.60441e-05
0.000416108
-1.54146e-05
0.000430434
-1.43265e-05
0.000443522
-1.30878e-05
0.000455206
-1.16846e-05
0.000465244
-1.00373e-05
0.000473607
-8.36362e-06
0.000480091
-6.48361e-06
0.00048458
-4.4891e-06
0.000487081
-2.50098e-06
0.000487556
-4.7557e-07
0.000486148
1.40846e-06
0.000482555
3.59264e-06
0.000476935
5.61999e-06
0.000469494
7.44071e-06
0.000460206
9.2877e-06
0.000449223
1.09831e-05
0.00043676
1.24635e-05
0.00042288
1.388e-05
0.000407997
1.48821e-05
0.000392372
1.56252e-05
0.00037631
1.60622e-05
0.000359919
1.63908e-05
0.000343303
1.66164e-05
0.000326597
1.6706e-05
0.000309426
1.71702e-05
0.000291202
1.82246e-05
0.000272072
1.91301e-05
0.000252466
1.96059e-05
0.000232787
1.96785e-05
0.000213529
1.92578e-05
0.000195403
1.8126e-05
0.000178723
1.66805e-05
0.000163824
1.48991e-05
0.00015082
1.30042e-05
0.00013978
1.104e-05
0.000130477
9.30292e-06
0.000122585
7.89143e-06
0.00011596
6.62569e-06
0.000110372
5.58809e-06
0.000105635
4.73646e-06
0.000101624
4.01147e-06
9.8185e-05
3.4387e-06
9.52645e-05
2.92051e-06
9.27951e-05
2.46941e-06
9.07094e-05
2.08579e-06
8.89776e-05
1.73182e-06
8.75364e-05
1.44116e-06
8.63088e-05
1.22761e-06
8.52393e-05
1.06951e-06
8.43669e-05
8.72467e-07
8.36403e-05
7.26643e-07
8.30601e-05
5.80183e-07
8.26441e-05
4.16029e-07
8.24212e-05
2.22897e-07
8.24031e-05
1.80803e-08
8.25911e-05
-1.87964e-07
8.29902e-05
-3.99019e-07
8.35849e-05
-5.94763e-07
8.439e-05
-8.05019e-07
8.54059e-05
-1.01589e-06
8.66934e-05
-1.2875e-06
8.82398e-05
-1.54646e-06
9.00788e-05
-1.83891e-06
9.22878e-05
-2.20898e-06
9.48742e-05
-2.58643e-06
9.79255e-05
-3.05126e-06
0.000101434
-3.50874e-06
0.000105562
-4.12753e-06
0.000110302
-4.73997e-06
0.000115701
-5.39975e-06
0.000121845
-6.14381e-06
0.000128695
-6.84989e-06
0.000136317
-7.62244e-06
0.000144736
-8.41854e-06
0.00015393
-9.19428e-06
0.000163915
-9.98456e-06
0.000174685
-1.07702e-05
0.000186175
-1.149e-05
0.000198365
-1.219e-05
0.00021121
-1.28449e-05
0.000224602
-1.33922e-05
0.000238521
-1.39194e-05
0.000252816
-1.42946e-05
0.000267376
-1.456e-05
0.000282107
-1.47311e-05
0.000296763
-1.46561e-05
0.000311288
-1.45253e-05
0.000325425
-1.41373e-05
0.000338993
-1.35682e-05
0.000351894
-1.29012e-05
0.000363805
-1.1911e-05
0.000374628
-1.08227e-05
0.000384127
-9.4988e-06
0.000392128
-8.00082e-06
0.000398579
-6.45074e-06
0.000403277
-4.6982e-06
0.000406204
-2.92751e-06
0.000407383
-1.17865e-06
0.000406762
6.20964e-07
0.000404238
2.52463e-06
0.000399896
4.34142e-06
0.000393828
6.06795e-06
0.000386108
7.72081e-06
0.000376933
9.17429e-06
0.000366375
1.05584e-05
0.000354571
1.18041e-05
0.000341744
1.28267e-05
0.000328096
1.36481e-05
0.000313762
1.43341e-05
0.000298892
1.48705e-05
0.000283703
1.51888e-05
0.000268389
1.53145e-05
0.00025308
1.53092e-05
0.000237918
1.51617e-05
0.000223054
1.48642e-05
0.000208572
1.44818e-05
0.000194539
1.40328e-05
0.000181047
1.34924e-05
0.000168109
1.29387e-05
0.000155809
1.22999e-05
0.000144148
1.16604e-05
0.000133141
1.10073e-05
0.000122835
1.0306e-05
0.000113157
9.67791e-06
0.000104157
8.99986e-06
9.58503e-05
8.30703e-06
8.81123e-05
7.7381e-06
8.10258e-05
7.08647e-06
7.46055e-05
6.42031e-06
6.87551e-05
5.85043e-06
6.3523e-05
5.2321e-06
5.89649e-05
4.5582e-06
5.5009e-05
3.95587e-06
5.16464e-05
3.36259e-06
4.89384e-05
2.70809e-06
4.68101e-05
2.12831e-06
4.52334e-05
1.57666e-06
4.42134e-05
1.01999e-06
4.37122e-05
5.01261e-07
4.36621e-05
5.01076e-08
4.41237e-05
-4.61571e-07
4.5084e-05
-9.60251e-07
4.65699e-05
-1.48591e-06
4.86543e-05
-2.08431e-06
5.12895e-05
-2.63527e-06
5.4517e-05
-3.22741e-06
5.83377e-05
-3.82072e-06
6.28425e-05
-4.50477e-06
6.79897e-05
-5.14711e-06
7.37938e-05
-5.80406e-06
8.03099e-05
-6.51609e-06
8.74888e-05
-7.17884e-06
9.53226e-05
-7.83376e-06
0.000103833
-8.51061e-06
0.000112939
-9.10571e-06
0.000122688
-9.74933e-06
0.000133056
-1.03673e-05
0.000144046
-1.09899e-05
0.000155673
-1.16268e-05
0.000167931
-1.22587e-05
0.000180862
-1.2931e-05
0.000194399
-1.35365e-05
0.000208588
-1.41892e-05
0.000223327
-1.47388e-05
0.000238581
-1.5254e-05
0.000254308
-1.57268e-05
0.000270383
-1.60744e-05
0.000286721
-1.63384e-05
0.000303121
-1.64001e-05
0.000319485
-1.63635e-05
0.000335612
-1.6127e-05
0.000351317
-1.57051e-05
0.000366336
-1.50191e-05
0.000380524
-1.41877e-05
0.000393647
-1.31229e-05
0.00040543
-1.17829e-05
0.000415662
-1.02322e-05
0.000424136
-8.47412e-06
0.00043061
-6.47352e-06
0.000434944
-4.3334e-06
0.000436987
-2.04357e-06
0.000436693
2.94647e-07
0.000433923
2.76967e-06
0.000428621
5.30177e-06
0.000421045
7.57605e-06
0.000411305
9.74055e-06
0.000399605
1.16996e-05
0.000386199
1.34067e-05
0.000371313
1.48862e-05
0.000355294
1.60187e-05
0.000338389
1.6905e-05
0.000320886
1.75025e-05
0.00030306
1.78269e-05
0.000285191
1.78684e-05
0.000267532
1.7659e-05
0.000250303
1.7229e-05
0.000233762
1.65409e-05
0.00021798
1.57824e-05
0.000203119
1.48605e-05
0.00018934
1.37791e-05
0.000176602
1.27386e-05
0.000165135
1.14665e-05
0.000154906
1.02292e-05
0.000145889
9.0173e-06
0.00013807
7.81874e-06
0.000131444
6.62633e-06
0.000125842
5.60195e-06
0.000121133
4.70901e-06
0.000117285
3.84821e-06
0.000114219
3.06582e-06
0.000111734
2.48484e-06
0.00010993
1.80373e-06
0.000108693
1.23775e-06
0.000107956
7.36305e-07
0.00010767
2.86657e-07
0.000107687
-1.74638e-08
0.000107922
-2.3489e-07
0.000108478
-5.5585e-07
0.000109242
-7.63682e-07
0.000110077
-8.35652e-07
0.00011118
-1.10296e-06
0.000112388
-1.20821e-06
0.000113589
-1.2006e-06
0.000114869
-1.28023e-06
0.000116284
-1.41559e-06
0.000117758
-1.47368e-06
0.00011939
-1.63284e-06
0.000121261
-1.87104e-06
0.000123365
-2.10434e-06
0.000125909
-2.54418e-06
0.000128844
-2.93569e-06
0.000132284
-3.44046e-06
0.000136355
-4.07179e-06
0.000141215
-4.86061e-06
0.000147302
-6.08718e-06
0.000154531
-7.22974e-06
0.000162712
-8.18238e-06
0.00017184
-9.12868e-06
0.000181808
-9.96787e-06
0.000192404
-1.0597e-05
0.000203641
-1.12374e-05
0.000215337
-1.16968e-05
0.000227348
-1.20121e-05
0.000239756
-1.24084e-05
0.000252465
-1.27093e-05
0.000265447
-1.29818e-05
0.000278786
-1.33395e-05
0.000292443
-1.36575e-05
0.000306511
-1.40679e-05
0.000320923
-1.44125e-05
0.000335766
-1.48432e-05
0.000350913
-1.51473e-05
0.000366305
-1.53926e-05
0.000381791
-1.54858e-05
0.000397074
-1.52832e-05
0.000411947
-1.4873e-05
0.000426113
-1.41663e-05
0.000439143
-1.30296e-05
0.000450918
-1.1776e-05
0.000461101
-1.01827e-05
0.000469383
-8.28178e-06
0.000475721
-6.33835e-06
0.000479944
-4.22323e-06
0.000481822
-1.8784e-06
0.000481392
4.30476e-07
0.000478585
2.80619e-06
0.000473796
4.78956e-06
0.000467048
6.74741e-06
0.000458569
8.47879e-06
0.000448515
1.0054e-05
0.000436811
1.17044e-05
0.000423927
1.28839e-05
0.000410085
1.38418e-05
0.000395284
1.48008e-05
0.000379991
1.52934e-05
0.000364288
1.57027e-05
0.000348497
1.57908e-05
0.000332766
1.57313e-05
0.000317129
1.5636e-05
0.000301895
1.52347e-05
0.00028715
1.47443e-05
0.000272933
1.4217e-05
0.000259437
1.34968e-05
0.000246683
1.27538e-05
0.000234682
1.20007e-05
0.000223521
1.11609e-05
0.000213161
1.03602e-05
0.000203618
9.54329e-06
0.000194832
8.78552e-06
0.000186744
8.0885e-06
0.000179322
7.42182e-06
0.000172489
6.83299e-06
0.000166178
6.31049e-06
0.000160343
5.83565e-06
0.00015491
5.43225e-06
0.000149842
5.06788e-06
0.000145095
4.74785e-06
0.000140634
4.46021e-06
0.000136455
4.17905e-06
0.000132553
3.90265e-06
0.000128934
3.61918e-06
0.000125603
3.33026e-06
0.000122594
3.00939e-06
0.000119934
2.65951e-06
0.000117654
2.28075e-06
0.000115805
1.84885e-06
0.000114416
1.3887e-06
0.000113524
8.91711e-07
3.62468e-07
0.000159071
1.66406e-05
0.000151351
1.54381e-05
0.00014424
1.42237e-05
0.000137706
1.30666e-05
0.000131728
1.19585e-05
0.000126277
1.09008e-05
0.000121346
9.85942e-06
0.000116922
8.84813e-06
0.000112991
7.86047e-06
0.000109566
6.85366e-06
0.000106647
5.844e-06
0.000104223
4.85159e-06
0.000102319
3.80122e-06
0.000100933
2.76832e-06
0.000100095
1.68198e-06
9.97864e-05
6.13006e-07
0.000100001
-4.38701e-07
0.000100799
-1.59857e-06
0.000102217
-2.83363e-06
0.000104133
-3.83132e-06
0.000106636
-5.00026e-06
0.000109783
-6.29459e-06
0.000113392
-7.22714e-06
0.000117607
-8.42769e-06
0.000122347
-9.48118e-06
0.000127713
-1.07375e-05
0.000133763
-1.2091e-05
0.000140215
-1.2907e-05
0.000147279
-1.41332e-05
0.000155057
-1.55649e-05
0.000163266
-1.6415e-05
0.000172153
-1.77684e-05
0.000181614
-1.89351e-05
0.000191825
-2.04222e-05
0.000202913
-2.2177e-05
0.00021455
-2.328e-05
0.000226948
-2.47994e-05
0.000240341
-2.67771e-05
0.000254287
-2.78873e-05
0.000269022
-2.9464e-05
0.000284416
-3.07796e-05
0.000300424
-3.20099e-05
0.000317125
-3.33903e-05
0.000333996
-3.3734e-05
0.000350953
-3.39033e-05
0.00036801
-3.41082e-05
0.000384666
-3.33022e-05
0.000400729
-3.21076e-05
0.000416163
-3.0848e-05
0.000430496
-2.86595e-05
0.000443601
-2.61935e-05
0.000455295
-2.33783e-05
0.000465345
-2.00874e-05
0.000473731
-1.67504e-05
0.000480218
-1.29702e-05
0.000484726
-8.99774e-06
0.000487237
-5.01198e-06
0.0004877
-9.39136e-07
0.000486282
2.82693e-06
0.000482689
7.18543e-06
0.000477068
1.12405e-05
0.000469623
1.48858e-05
0.00046033
1.85811e-05
0.000449341
2.19716e-05
0.000436871
2.49331e-05
0.000422981
2.77704e-05
0.000408084
2.97787e-05
0.000392441
3.12688e-05
0.000376356
3.21462e-05
0.000359939
3.28078e-05
0.000343294
3.3262e-05
0.000326559
3.34409e-05
0.000309415
3.43145e-05
0.000291227
3.64124e-05
0.000272114
3.82429e-05
0.000252518
3.92016e-05
0.000232856
3.93413e-05
0.00021361
3.85029e-05
0.000195493
3.62437e-05
0.000178826
3.33471e-05
0.000163947
2.97787e-05
0.000150964
2.59868e-05
0.000139944
2.20598e-05
0.000130652
1.85948e-05
0.00012277
1.57741e-05
0.000116159
1.32364e-05
0.000110587
1.11601e-05
0.000105867
9.45672e-06
0.000101863
8.01526e-06
9.8429e-05
6.87298e-06
9.55087e-05
5.84084e-06
9.30386e-05
4.9395e-06
9.09602e-05
4.16423e-06
8.92278e-05
3.46427e-06
8.77895e-05
2.87946e-06
8.65643e-05
2.45284e-06
8.54931e-05
2.14076e-06
8.46188e-05
1.7468e-06
8.38882e-05
1.45721e-06
8.33108e-05
1.15766e-06
8.28942e-05
8.32663e-07
8.26713e-05
4.45821e-07
8.26574e-05
3.19355e-08
8.28425e-05
-3.73003e-07
8.32462e-05
-8.02733e-07
8.38475e-05
-1.19599e-06
8.46517e-05
-1.60926e-06
8.5666e-05
-2.03015e-06
8.6953e-05
-2.57445e-06
8.84945e-05
-3.08795e-06
9.03399e-05
-3.68423e-06
9.25502e-05
-4.41929e-06
9.51222e-05
-5.15848e-06
9.81659e-05
-6.0949e-06
0.000101683
-7.02625e-06
0.000105812
-8.25582e-06
0.000110542
-9.4708e-06
0.000115948
-1.08049e-05
0.000122094
-1.22906e-05
0.000128936
-1.36914e-05
0.000136548
-1.52348e-05
0.000144969
-1.68395e-05
0.000154172
-1.8397e-05
0.000164154
-1.99667e-05
0.000174917
-2.15333e-05
0.000186411
-2.2984e-05
0.000198602
-2.43809e-05
0.000211444
-2.56873e-05
0.000224839
-2.6788e-05
0.000238769
-2.78493e-05
0.000253071
-2.85965e-05
0.000267638
-2.9127e-05
0.000282376
-2.94697e-05
0.000297034
-2.93134e-05
0.000311565
-2.90568e-05
0.0003257
-2.82729e-05
0.000339281
-2.71489e-05
0.000352193
-2.58136e-05
0.000364112
-2.383e-05
0.000374946
-2.16562e-05
0.000384452
-1.90048e-05
0.000392453
-1.60024e-05
0.000398923
-1.29207e-05
0.000403638
-9.41315e-06
0.00040656
-5.849e-06
0.000407727
-2.34631e-06
0.000407085
1.26349e-06
0.000404556
5.0533e-06
0.000400221
8.67629e-06
0.000394152
1.2137e-05
0.000386426
1.54471e-05
0.000377239
1.83617e-05
0.000366668
2.11289e-05
0.000354861
2.36118e-05
0.000342032
2.56554e-05
0.000328379
2.73009e-05
0.000314034
2.86798e-05
0.000299155
2.97488e-05
0.000283958
3.03864e-05
0.000268637
3.06356e-05
0.000253325
3.06213e-05
0.000238156
3.03311e-05
0.000223289
2.97309e-05
0.000208802
2.89694e-05
0.00019476
2.80751e-05
0.000181263
2.6989e-05
0.000168326
2.58759e-05
0.000156026
2.45998e-05
0.000144368
2.33181e-05
0.000133362
2.20133e-05
0.000123054
2.06149e-05
0.000113375
1.93567e-05
0.000104377
1.79977e-05
9.60668e-05
1.66175e-05
8.83184e-05
1.54865e-05
8.12349e-05
1.417e-05
7.48194e-05
1.28359e-05
6.89688e-05
1.1701e-05
6.3745e-05
1.04559e-05
5.91938e-05
9.10947e-06
5.52215e-05
7.92819e-06
5.18511e-05
6.73297e-06
4.91473e-05
5.41193e-06
4.70169e-05
4.25868e-06
4.54447e-05
3.14896e-06
4.44196e-05
2.0451e-06
4.39131e-05
1.00777e-06
4.38646e-05
9.85596e-08
4.43364e-05
-9.33336e-07
4.53099e-05
-1.93371e-06
4.67958e-05
-2.97175e-06
4.88725e-05
-4.16099e-06
5.15019e-05
-5.26466e-06
5.47346e-05
-6.46004e-06
5.85546e-05
-7.64064e-06
6.30599e-05
-9.01002e-06
6.8206e-05
-1.02932e-05
7.40147e-05
-1.16127e-05
8.05309e-05
-1.30323e-05
8.77031e-05
-1.43509e-05
9.55413e-05
-1.56719e-05
0.000104047
-1.70158e-05
0.000113159
-1.82182e-05
0.000122916
-1.95063e-05
0.000133279
-2.07303e-05
0.000144269
-2.19798e-05
0.00015589
-2.32477e-05
0.000168144
-2.45127e-05
0.000181072
-2.58584e-05
0.000194599
-2.70632e-05
0.000208782
-2.83727e-05
0.000223514
-2.94705e-05
0.000238769
-3.05088e-05
0.00025449
-3.14477e-05
0.00027055
-3.21343e-05
0.000286871
-3.26591e-05
0.000303269
-3.27984e-05
0.000319623
-3.27172e-05
0.000335734
-3.2238e-05
0.000351427
-3.13979e-05
0.000366434
-3.0026e-05
0.000380615
-2.83686e-05
0.000393736
-2.62438e-05
0.000405514
-2.35607e-05
0.000415743
-2.04612e-05
0.00042422
-1.69516e-05
0.000430682
-1.29348e-05
0.000434996
-8.64777e-06
0.000437027
-4.07434e-06
0.000436705
6.16558e-07
0.000433899
5.57565e-06
0.000428588
1.06124e-05
0.000420993
1.51712e-05
0.00041123
1.9504e-05
0.000399506
2.34235e-05
0.00038607
2.68427e-05
0.000371162
2.9794e-05
0.000355126
3.20545e-05
0.000338188
3.38428e-05
0.000320653
3.50376e-05
0.000302805
3.56759e-05
0.000284914
3.57589e-05
0.000267245
3.53282e-05
0.000250007
3.44673e-05
0.000233446
3.3102e-05
0.000217666
3.15627e-05
0.000202802
2.97238e-05
0.000188993
2.7589e-05
0.000176245
2.54863e-05
0.000164794
2.29178e-05
0.000154559
2.04641e-05
0.000145546
1.803e-05
0.000137736
1.56293e-05
0.000131121
1.32411e-05
0.000125526
1.11969e-05
0.00012083
9.40482e-06
0.000116993
7.68524e-06
0.000113935
6.1243e-06
0.000111471
4.9484e-06
0.000109684
3.59084e-06
0.000108476
2.44623e-06
0.000107744
1.46799e-06
0.000107456
5.74484e-07
0.000107487
-4.83052e-08
0.000107737
-4.85044e-07
0.000108299
-1.11785e-06
0.000109063
-1.52685e-06
0.00010991
-1.68282e-06
0.000111026
-2.21945e-06
0.000112253
-2.43464e-06
0.000113427
-2.37489e-06
0.000114725
-2.57909e-06
0.000116158
-2.84861e-06
0.000117648
-2.96368e-06
0.000119297
-3.28164e-06
0.000121181
-3.7561e-06
0.000123294
-4.2177e-06
0.000125841
-5.0914e-06
0.000128773
-5.86764e-06
0.000132209
-6.87774e-06
0.00013628
-8.14342e-06
0.000141136
-9.71728e-06
0.000147218
-1.21692e-05
0.000154443
-1.44555e-05
0.00016262
-1.63604e-05
0.000171744
-1.82529e-05
0.000181707
-1.99324e-05
0.000192302
-2.11926e-05
0.000203535
-2.24704e-05
0.000215229
-2.33923e-05
0.000227243
-2.40261e-05
0.000239653
-2.48192e-05
0.000252366
-2.54225e-05
0.000265347
-2.59632e-05
0.00027869
-2.66835e-05
0.000292348
-2.73159e-05
0.000306417
-2.81368e-05
0.00032083
-2.88261e-05
0.000335664
-2.9678e-05
0.000350817
-3.03004e-05
0.000366203
-3.07785e-05
0.000381667
-3.09506e-05
0.000396953
-3.0569e-05
0.000411812
-2.97326e-05
0.000425993
-2.83473e-05
0.000439081
-2.61178e-05
0.00045081
-2.35058e-05
0.000460933
-2.03053e-05
0.000469299
-1.66486e-05
0.000475649
-1.26879e-05
0.000479797
-8.37223e-06
0.000481721
-3.8025e-06
0.000481381
7.70951e-07
0.000478618
5.56873e-06
0.000473859
9.5484e-06
0.00046712
1.34866e-05
0.000458636
1.6962e-05
0.000448575
2.01145e-05
0.000436863
2.34167e-05
0.000423971
2.5776e-05
0.000410121
2.7692e-05
0.000395311
2.96103e-05
0.000380009
3.05951e-05
0.000364298
3.14136e-05
0.000348499
3.15893e-05
0.000332761
3.14698e-05
0.000317118
3.12787e-05
0.000301878
3.04752e-05
0.000287128
2.94941e-05
0.000272905
2.84394e-05
0.000259404
2.6998e-05
0.000246647
2.55112e-05
0.000234644
2.40031e-05
0.000223482
2.23235e-05
0.000213119
2.07229e-05
0.000203573
1.90893e-05
0.000194783
1.75758e-05
0.000186696
1.6175e-05
0.00017928
1.48377e-05
0.000172455
1.36583e-05
0.000166149
1.2616e-05
0.000160316
1.16694e-05
0.000154885
1.08626e-05
0.000149822
1.0131e-05
0.000145079
9.49141e-06
0.000140621
8.91795e-06
0.000136444
8.35573e-06
0.000132542
7.80461e-06
0.000128922
7.23943e-06
0.00012559
6.66182e-06
0.00012258
6.02033e-06
0.000119919
5.31987e-06
0.000117638
4.56208e-06
0.000115786
3.70029e-06
0.000114395
2.78045e-06
0.000113503
1.78364e-06
7.25131e-07
0.000159022
2.49576e-05
0.000151307
2.31533e-05
0.000144199
2.13313e-05
0.000137671
1.95951e-05
0.000131698
1.79315e-05
0.000126254
1.63452e-05
0.000121327
1.47864e-05
0.000116907
1.32679e-05
0.00011298
1.1787e-05
0.000109556
1.02776e-05
0.000106635
8.76559e-06
0.000104207
7.27973e-06
0.000102302
5.70584e-06
0.000100914
4.15615e-06
0.000100072
2.52383e-06
9.97698e-05
9.15562e-07
9.9997e-05
-6.65903e-07
0.000100795
-2.39654e-06
0.000102208
-4.24651e-06
0.000104115
-5.73859e-06
0.000106611
-7.4963e-06
0.000109766
-9.44894e-06
0.000113372
-1.08335e-05
0.000117581
-1.2637e-05
0.000122321
-1.42214e-05
0.000127688
-1.61038e-05
0.000133734
-1.8137e-05
0.000140175
-1.93482e-05
0.00014724
-2.11982e-05
0.00015502
-2.33454e-05
0.00016321
-2.46045e-05
0.000172089
-2.66474e-05
0.000181545
-2.83909e-05
0.000191753
-3.06303e-05
0.000202841
-3.32648e-05
0.000214465
-3.49047e-05
0.000226855
-3.71891e-05
0.000240251
-4.01739e-05
0.00025419
-4.18264e-05
0.000268925
-4.41985e-05
0.00028432
-4.61745e-05
0.000300336
-4.80261e-05
0.000317062
-5.01164e-05
0.000333943
-5.06159e-05
0.000350915
-5.08745e-05
0.000368003
-5.11967e-05
0.000384676
-4.99756e-05
0.00040075
-4.81817e-05
0.000416216
-4.63137e-05
0.000430575
-4.30195e-05
0.000443708
-3.93262e-05
0.000455434
-3.51038e-05
0.000465498
-3.01523e-05
0.000473917
-2.51692e-05
0.000480424
-1.94772e-05
0.000484947
-1.35209e-05
0.000487486
-7.55153e-06
0.000487928
-1.38114e-06
0.000486451
4.30329e-06
0.000482848
1.07883e-05
0.000477225
1.68637e-05
0.000469773
2.23375e-05
0.00046047
2.78839e-05
0.000449471
3.2971e-05
0.000436991
3.74125e-05
0.000423085
4.16767e-05
0.000408166
4.46974e-05
0.000392496
4.69391e-05
0.000376382
4.82595e-05
0.000359936
4.92542e-05
0.000343242
4.9956e-05
0.000326454
5.02289e-05
0.000309344
5.14244e-05
0.000291227
5.45289e-05
0.000272161
5.73096e-05
0.000252592
5.87708e-05
0.000232952
5.89811e-05
0.000213743
5.77119e-05
0.000195659
5.43275e-05
0.000179017
4.9989e-05
0.000164167
4.46291e-05
0.000151216
3.89378e-05
0.000140228
3.30471e-05
0.00013097
2.78532e-05
0.000123119
2.36253e-05
0.000116539
1.98164e-05
0.000110992
1.67071e-05
0.000106291
1.41572e-05
0.000102307
1.2e-05
9.88816e-05
1.02981e-05
9.59695e-05
8.75298e-06
9.35052e-05
7.40381e-06
9.14322e-05
6.23725e-06
8.97031e-05
5.19341e-06
8.82692e-05
4.31331e-06
8.70493e-05
3.67275e-06
8.59758e-05
3.21429e-06
8.5092e-05
2.6306e-06
8.43558e-05
2.19349e-06
8.37797e-05
1.73377e-06
8.33724e-05
1.24e-06
8.31517e-05
6.66576e-07
8.31448e-05
3.88112e-08
8.33257e-05
-5.53913e-07
8.37225e-05
-1.19945e-06
8.43267e-05
-1.8002e-06
8.51407e-05
-2.42319e-06
8.61662e-05
-3.05566e-06
8.74557e-05
-3.86393e-06
8.89856e-05
-4.61788e-06
9.0829e-05
-5.52759e-06
9.30274e-05
-6.61767e-06
9.5595e-05
-7.72607e-06
9.86385e-05
-9.13833e-06
0.000102155
-1.05433e-05
0.000106284
-1.23844e-05
0.000111011
-1.41976e-05
0.000116411
-1.62054e-05
0.000122545
-1.84242e-05
0.000129381
-2.05276e-05
0.000136996
-2.28493e-05
0.000145414
-2.52576e-05
0.000154612
-2.75951e-05
0.000164589
-2.99436e-05
0.000175351
-3.2296e-05
0.000186842
-3.4475e-05
0.000199026
-3.6565e-05
0.000211865
-3.85262e-05
0.000225265
-4.01881e-05
0.0002392
-4.17841e-05
0.000253506
-4.29029e-05
0.000268081
-4.37023e-05
0.000282825
-4.42134e-05
0.000297482
-4.39709e-05
0.000312029
-4.36037e-05
0.000326176
-4.24195e-05
0.000339776
-4.07487e-05
0.000352704
-3.87424e-05
0.000364632
-3.57583e-05
0.000375476
-3.24998e-05
0.000384991
-2.85194e-05
0.000393009
-2.40214e-05
0.000399484
-1.93952e-05
0.000404202
-1.41309e-05
0.000407146
-8.79342e-06
0.000408328
-3.52782e-06
0.000407645
1.9465e-06
0.0004051
7.59782e-06
0.000400776
1.30005e-05
0.000394701
1.8212e-05
0.000386966
2.31825e-05
0.000377762
2.75659e-05
0.000367167
3.1724e-05
0.000355345
3.5433e-05
0.000342514
3.84871e-05
0.000328853
4.09616e-05
0.000314488
4.30452e-05
0.00029959
4.46468e-05
0.000284385
4.55917e-05
0.000269057
4.59631e-05
0.00025374
4.59385e-05
0.000238562
4.55093e-05
0.000223678
4.46148e-05
0.000209185
4.34627e-05
0.000195147
4.21127e-05
0.000181648
4.04887e-05
0.00016871
3.8814e-05
0.000156407
3.69025e-05
0.000144744
3.49806e-05
0.000133741
3.30169e-05
0.000123428
3.0928e-05
0.000113746
2.90383e-05
0.000104745
2.69989e-05
9.6435e-05
2.49273e-05
8.87033e-05
2.32182e-05
8.16319e-05
2.12415e-05
7.52151e-05
1.92527e-05
6.93617e-05
1.75544e-05
6.4138e-05
1.56796e-05
5.95772e-05
1.36704e-05
5.56053e-05
1.19001e-05
5.22419e-05
1.00963e-05
4.95352e-05
8.11865e-06
4.73972e-05
6.39673e-06
4.58265e-05
4.71969e-06
4.48065e-05
3.06512e-06
4.43045e-05
1.50975e-06
4.4253e-05
1.50085e-07
4.47166e-05
-1.39689e-06
4.56895e-05
-2.90653e-06
4.71845e-05
-4.46672e-06
4.92628e-05
-6.23934e-06
5.18853e-05
-7.88711e-06
5.5112e-05
-9.68668e-06
5.89294e-05
-1.14579e-05
6.34301e-05
-1.35107e-05
6.85766e-05
-1.54396e-05
7.43868e-05
-1.74229e-05
8.09011e-05
-1.95465e-05
8.80716e-05
-2.15212e-05
9.5914e-05
-2.35143e-05
0.000104429
-2.55306e-05
0.000113537
-2.73265e-05
0.000123287
-2.92554e-05
0.000133641
-3.10845e-05
0.000144627
-3.29654e-05
0.000156247
-3.4868e-05
0.000168493
-3.67585e-05
0.000181406
-3.8771e-05
0.000194926
-4.05834e-05
0.000209101
-4.25473e-05
0.000223821
-4.41909e-05
0.000239061
-4.57482e-05
0.000254762
-4.71482e-05
0.000270809
-4.81819e-05
0.000287115
-4.89646e-05
0.000303494
-4.91778e-05
0.00031983
-4.90525e-05
0.000335922
-4.833e-05
0.000351597
-4.70725e-05
0.00036659
-4.5019e-05
0.000380762
-4.25406e-05
0.000393865
-3.93472e-05
0.000405629
-3.53244e-05
0.000415838
-3.06702e-05
0.000424294
-2.54068e-05
0.000430742
-1.93831e-05
0.000435045
-1.29509e-05
0.000437053
-6.08231e-06
0.00043666
1.01002e-06
0.000433794
8.44172e-06
0.000428467
1.59392e-05
0.000420833
2.28047e-05
0.000411025
2.93128e-05
0.000399252
3.51959e-05
0.000385765
4.03294e-05
0.000370811
4.47483e-05
0.000354731
4.81341e-05
0.000337748
5.08254e-05
0.000320178
5.26076e-05
0.000302295
5.35594e-05
0.000284373
5.36802e-05
0.000266681
5.30209e-05
0.00024942
5.17282e-05
0.00023284
4.96815e-05
0.000217048
4.7355e-05
0.000202175
4.45969e-05
0.000188364
4.13997e-05
0.000175622
3.82284e-05
0.000164166
3.43734e-05
0.000153933
3.06976e-05
0.000144946
2.70167e-05
0.000137149
2.34264e-05
0.000130548
1.9842e-05
0.000124967
1.67776e-05
0.000120294
1.40785e-05
0.000116478
1.15008e-05
0.000113441
9.16143e-06
0.000111005
7.3843e-06
0.000109248
5.34761e-06
0.000108069
3.62534e-06
0.000107341
2.19596e-06
0.00010705
8.65796e-07
0.000107091
-8.92585e-08
0.000107359
-7.53141e-07
0.000107929
-1.688e-06
0.000108711
-2.30817e-06
0.000109577
-2.54952e-06
0.000110696
-3.33811e-06
0.000111965
-3.70362e-06
0.000113137
-3.54655e-06
0.00011446
-3.90272e-06
0.000115917
-4.30592e-06
0.000117433
-4.47926e-06
0.000119111
-4.96069e-06
0.000121028
-5.67287e-06
0.000123165
-6.35512e-06
0.000125724
-7.65099e-06
0.000128664
-8.8078e-06
0.000132104
-1.03182e-05
0.00013618
-1.22207e-05
0.000141041
-1.4579e-05
0.000147118
-1.82462e-05
0.000154341
-2.16799e-05
0.000162517
-2.45362e-05
0.000171633
-2.73699e-05
0.000181592
-2.98923e-05
0.000192176
-3.17772e-05
0.000203405
-3.37005e-05
0.000215102
-3.50893e-05
0.000227109
-3.60344e-05
0.00023952
-3.72308e-05
0.000252236
-3.81388e-05
0.00026522
-3.89476e-05
0.000278568
-4.00318e-05
0.000292231
-4.09796e-05
0.000306297
-4.22035e-05
0.000320707
-4.32358e-05
0.000335525
-4.44965e-05
0.00035065
-4.54259e-05
0.000366002
-4.61308e-05
0.000381427
-4.63753e-05
0.000396657
-4.57992e-05
0.000411458
-4.45346e-05
0.000425585
-4.24736e-05
0.000438648
-3.91813e-05
0.000450447
-3.53052e-05
0.000460614
-3.04725e-05
0.000468953
-2.49879e-05
0.00047536
-1.90952e-05
0.000479612
-1.26247e-05
0.000481613
-5.80322e-06
0.000481362
1.02173e-06
0.000478692
8.23886e-06
0.000473997
1.42432e-05
0.000467262
2.02208e-05
0.000458767
2.54572e-05
0.000448691
3.01904e-05
0.000436961
3.51464e-05
0.000424051
3.86859e-05
0.000410183
4.15599e-05
0.000395355
4.44375e-05
0.000380036
4.59139e-05
0.000364309
4.71405e-05
0.000348496
4.74028e-05
0.000332744
4.7222e-05
0.000317089
4.69338e-05
0.000301837
4.57268e-05
0.000287078
4.4253e-05
0.000272848
4.26689e-05
0.000259341
4.05048e-05
0.00024658
3.82725e-05
0.000234574
3.6009e-05
0.00022341
3.34874e-05
0.000213047
3.10858e-05
0.000203502
2.86341e-05
0.000194716
2.63625e-05
0.000186632
2.42583e-05
0.00017922
2.22503e-05
0.000172399
2.0479e-05
0.000166099
1.89162e-05
0.000160273
1.74952e-05
0.00015485
1.62851e-05
0.000149791
1.51908e-05
0.000145049
1.4233e-05
0.000140595
1.33716e-05
0.00013642
1.25309e-05
0.000132518
1.17073e-05
0.000128899
1.08585e-05
0.000125566
9.99448e-06
0.000122553
9.03345e-06
0.000119891
7.98112e-06
0.000117607
6.84662e-06
0.000115753
5.55438e-06
0.000114357
4.17618e-06
0.000113462
2.67841e-06
1.09115e-06
0.000158949
3.32699e-05
0.000151241
3.0861e-05
0.000144141
2.8431e-05
0.000137622
2.61149e-05
0.000131656
2.38973e-05
0.000126221
2.17804e-05
0.000121302
1.97051e-05
0.000116886
1.7684e-05
0.000112967
1.57056e-05
0.000109547
1.36981e-05
0.000106624
1.16887e-05
0.000104201
9.70268e-06
0.000102297
7.60928e-06
0.000100909
5.54427e-06
0.000100063
3.37007e-06
9.97572e-05
1.22145e-06
9.99856e-05
-8.94312e-07
0.000100783
-3.19363e-06
0.000102195
-5.65902e-06
0.000104098
-7.6418e-06
0.000106589
-9.98724e-06
0.00010974
-1.25999e-05
0.000113342
-1.4435e-05
0.000117546
-1.68412e-05
0.00012228
-1.89553e-05
0.000127641
-2.14651e-05
0.000133689
-2.41847e-05
0.000140119
-2.57779e-05
0.000147178
-2.82572e-05
0.000154954
-3.11217e-05
0.000163134
-3.27841e-05
0.000171998
-3.55117e-05
0.000181439
-3.78324e-05
0.000191634
-4.08254e-05
0.00020272
-4.43505e-05
0.00021433
-4.65147e-05
0.000226711
-4.95701e-05
0.000240116
-5.3579e-05
0.00025405
-5.57604e-05
0.000268788
-5.89364e-05
0.000284186
-6.15723e-05
0.000300208
-6.40485e-05
0.000316963
-6.68714e-05
0.000333862
-6.7515e-05
0.00035085
-6.78626e-05
0.000367979
-6.83265e-05
0.000384683
-6.66797e-05
0.000400786
-6.42848e-05
0.000416297
-6.18252e-05
0.000430696
-5.74178e-05
0.000443865
-5.24955e-05
0.00045563
-4.6869e-05
0.000465731
-4.02532e-05
0.000474196
-3.36349e-05
0.000480738
-2.60194e-05
0.000485294
-1.8077e-05
0.000487855
-1.01124e-05
0.000488259
-1.78511e-06
0.000486708
5.85378e-06
0.00048309
1.44061e-05
0.000477463
2.24911e-05
0.000469998
2.98024e-05
0.000460678
3.7204e-05
0.000449663
4.39859e-05
0.000437169
4.99056e-05
0.00042324
5.56065e-05
0.000408289
5.96477e-05
0.000392581
6.26473e-05
0.000376422
6.44186e-05
0.00035993
6.57463e-05
0.000343165
6.67201e-05
0.000326306
6.70888e-05
0.000309215
6.85151e-05
0.00029122
7.25235e-05
0.000272225
7.63047e-05
0.000252705
7.82907e-05
0.000233106
7.858e-05
0.000213939
7.68795e-05
0.000195899
7.23674e-05
0.0001793
6.65878e-05
0.000164494
5.94356e-05
0.000151584
5.18474e-05
0.000140641
4.39905e-05
0.000131432
3.70616e-05
0.000123635
3.14227e-05
0.00011711
2.63417e-05
0.000111604
2.22127e-05
0.000106922
1.88393e-05
0.000102951
1.59714e-05
9.95422e-05
1.37068e-05
9.66464e-05
1.16487e-05
9.41988e-05
9.85146e-06
9.21376e-05
8.29851e-06
9.04126e-05
6.91841e-06
8.89748e-05
5.75111e-06
8.77551e-05
4.89247e-06
8.67092e-05
4.26021e-06
8.58043e-05
3.53549e-06
8.50563e-05
2.94157e-06
8.44811e-05
2.30895e-06
8.40853e-05
1.63589e-06
8.38628e-05
8.89045e-07
8.38524e-05
4.92219e-08
8.40373e-05
-7.38818e-07
8.44411e-05
-1.60317e-06
8.50596e-05
-2.41868e-06
8.58824e-05
-3.24599e-06
8.69189e-05
-4.09211e-06
8.82103e-05
-5.1553e-06
8.97314e-05
-6.13896e-06
9.15715e-05
-7.36772e-06
9.37673e-05
-8.81345e-06
9.63321e-05
-1.02908e-05
9.93743e-05
-1.21805e-05
0.000102889
-1.40584e-05
0.000107007
-1.65016e-05
0.00011172
-1.89111e-05
0.000117112
-2.15971e-05
0.000123222
-2.45342e-05
0.000130053
-2.73589e-05
0.000137662
-3.04586e-05
0.000146067
-3.36621e-05
0.000155261
-3.67894e-05
0.000165233
-3.99154e-05
0.000175989
-4.30529e-05
0.000187478
-4.59632e-05
0.000199654
-4.87415e-05
0.000212493
-5.13655e-05
0.000225894
-5.35891e-05
0.000239827
-5.57173e-05
0.000254144
-5.72195e-05