/*--------------------------------*- C++ -*----------------------------------*\
| =========                 |                                                 |
| \\      /  F ield         | OpenFOAM: The Open Source CFD Toolbox           |
|  \\    /   O peration     | Version:  3.0.1                                 |
|   \\  /    A nd           | Web:      www.OpenFOAM.org                      |
|    \\/     M anipulation  |                                                 |
\*---------------------------------------------------------------------------*/
FoamFile
{
    version     2.0;
    format      ascii;
    class       volScalarField;
    location    "72";
    object      p_rgh;
}
// * * * * * * * * * * * * * * * * * * * * * * * * * * * * * * * * * * * * * //

dimensions      [1 -1 -2 0 0 0 0];

internalField   nonuniform List<scalar> 
21420
(
-214.396
-232.213
-248.424
-263.015
-275.989
-287.392
-297.265
-305.654
-312.596
-318.121
-322.261
-325.037
-326.442
-326.455
-324.92
-321.99
-317.631
-311.836
-304.561
-295.759
-285.383
-273.377
-259.683
-244.256
-227.052
-208.04
-187.206
-164.541
-140.069
-113.844
-85.9276
-56.4307
-25.4968
6.73438
39.0223
72.8996
107.109
141.32
175.173
208.32
240.347
270.863
299.461
325.747
349.383
370.035
387.408
401.266
411.419
417.718
420.07
418.448
412.937
403.599
390.502
373.897
354.02
331.128
305.559
277.655
247.792
216.349
183.715
150.295
116.467
82.5912
49.0168
16.0498
-16.095
-47.0522
-76.6721
-104.798
-131.305
-156.098
-179.123
-200.347
-219.763
-237.379
-253.212
-267.3
-279.671
-290.348
-299.361
-306.742
-312.514
-316.696
-319.32
-320.382
-319.883
-317.884
-314.403
-309.452
-303.054
-295.229
-285.989
-275.34
-263.28
-249.798
-234.884
-218.513
-200.662
-181.322
-160.485
-138.157
-114.359
-89.1444
-62.5852
-34.7815
-5.86439
24.0201
54.6578
85.8211
117.269
148.732
179.921
210.529
240.236
268.713
295.625
320.636
343.417
363.649
381.034
395.299
406.204
413.551
417.2
416.97
413.001
405.216
393.678
378.559
360.059
338.428
313.965
287.005
257.922
227.107
194.971
161.926
128.385
94.746
61.3884
28.6615
-3.10289
-33.6521
-62.7379
-90.168
-115.796
-139.521
-161.281
-181.055
-198.852
-214.708
-228.683
-240.852
-251.304
-260.133
-267.435
-273.307
-277.841
-281.117
-283.211
-284.193
-284.099
-282.947
-280.803
-277.657
-273.512
-268.359
-262.179
-254.954
-246.657
-237.252
-226.705
-214.985
-202.055
-187.875
-172.407
-155.617
-137.468
-117.931
-96.9887
-74.6382
-50.8924
-25.7904
0.600655
28.1831
56.8761
86.4128
116.62
147.249
178.014
208.59
238.622
267.734
295.534
321.617
345.589
367.064
385.671
401.08
412.997
421.181
425.458
425.638
421.856
414.056
402.351
386.949
368.109
346.14
321.398
294.276
265.187
234.561
202.833
170.435
137.785
105.275
73.2646
42.0703
11.9458
-16.904
-44.3082
-70.1456
-94.3363
-116.837
-137.63
-156.724
-174.143
-189.928
-204.13
-216.801
-228.002
-237.789
-246.223
-253.355
-259.234
-263.901
-267.389
-269.747
-270.986
-271.109
-270.165
-268.164
-265.094
-260.944
-255.698
-249.32
-241.766
-232.987
-222.929
-211.535
-198.75
-184.524
-168.815
-151.591
-132.826
-112.511
-90.6578
-67.2971
-42.4791
-16.2851
11.1785
39.782
69.4588
100.305
131.468
162.795
194.019
224.834
254.859
283.706
310.937
336.122
358.809
378.554
394.968
407.68
416.374
420.782
420.756
416.159
407.956
395.801
379.637
359.653
336.078
309.271
279.625
247.672
214.017
179.236
143.926
108.77
74.4948
41.1348
-2.7085
-36.5779
-68.5584
-98.6336
-126.682
-152.642
-176.506
-198.257
-217.91
-235.511
-251.098
-264.728
-276.45
-286.312
-294.361
-300.628
-305.143
-307.985
-309.135
-308.48
-306.252
-302.421
-296.922
-289.726
-280.794
-270.075
-257.53
-243.124
-226.827
-208.624
-188.512
-166.487
-142.572
-116.821
-89.2982
-60.0796
-29.3141
2.84813
36.1606
70.3829
105.229
140.298
175.244
209.728
243.28
275.512
305.92
334.084
359.639
382.164
401.314
416.809
428.402
435.894
439.199
438.258
433.063
423.66
410.195
-214.471
-232.286
-248.494
-263.083
-276.054
-287.455
-297.325
-305.712
-312.652
-318.176
-322.315
-325.091
-326.496
-326.51
-324.976
-322.046
-317.688
-311.895
-304.622
-295.822
-285.449
-273.446
-259.755
-244.331
-227.129
-208.12
-187.287
-164.623
-140.151
-113.925
-86.0067
-56.5068
-25.5693
6.66711
38.9745
72.8606
107.081
141.305
175.174
208.336
240.381
270.915
299.53
325.834
349.485
370.153
387.539
401.407
411.567
417.872
420.232
418.599
413.084
403.74
390.634
374.018
354.126
331.219
305.633
277.712
247.831
216.372
183.72
150.285
116.442
82.5534
48.9674
15.9899
-16.161
-47.1252
-76.75
-104.879
-131.388
-156.182
-179.207
-200.429
-219.845
-237.459
-253.29
-267.376
-279.745
-290.421
-299.433
-306.813
-312.584
-316.766
-319.39
-320.451
-319.95
-317.953
-314.471
-309.52
-303.122
-295.296
-286.057
-275.409
-263.35
-249.87
-234.957
-218.587
-200.739
-181.401
-160.565
-138.236
-114.439
-89.2223
-62.6607
-34.8534
-5.9312
23.959
54.6045
85.7767
117.234
148.709
179.91
210.532
240.253
268.745
295.672
320.698
343.494
363.741
381.14
395.416
406.331
413.686
417.339
417.119
413.135
405.349
393.804
378.675
360.162
338.516
314.036
287.059
257.957
227.125
194.97
161.908
128.351
94.6981
61.3276
28.5898
-3.18414
-33.7406
-62.8319
-90.2655
-115.895
-139.621
-161.38
-181.152
-198.946
-214.799
-228.769
-240.935
-251.382
-260.207
-267.505
-273.373
-277.903
-281.177
-283.268
-284.249
-284.151
-283
-280.855
-277.71
-273.566
-268.413
-262.235
-255.011
-246.715
-237.311
-226.767
-215.049
-202.121
-187.943
-172.477
-155.689
-137.542
-118.007
-97.0663
-74.7162
-50.9703
-25.8672
0.526316
28.1134
56.8094
86.3539
116.57
147.211
177.987
208.577
238.625
267.754
295.571
321.672
345.662
367.154
385.777
401.2
413.129
421.322
425.604
425.794
421.998
414.195
402.481
387.067
368.211
346.226
321.465
294.324
265.216
234.572
202.826
170.411
137.745
105.222
73.2004
41.9979
11.8663
-16.9882
-44.3953
-70.234
-94.4249
-116.924
-137.716
-156.808
-174.224
-190.006
-204.204
-216.874
-228.071
-237.856
-246.287
-253.417
-259.294
-263.959
-267.447
-269.804
-271.041
-271.162
-270.22
-268.218
-265.148
-261
-255.755
-249.379
-241.828
-233.051
-222.996
-211.604
-198.822
-184.598
-168.891
-151.669
-132.906
-112.592
-90.7388
-67.3771
-42.5575
-16.3607
11.1071
39.7164
69.3991
100.258
131.432
162.771
194.008
224.838
254.88
283.746
310.996
336.2
358.907
378.671
395.101
407.829
416.535
420.956
420.941
416.33
408.126
395.966
379.789
359.787
336.19
309.359
279.687
247.708
214.028
179.224
143.893
108.717
74.4208
41.0349
-2.76005
-36.6503
-68.6405
-98.7207
-126.772
-152.732
-176.595
-198.344
-217.995
-235.594
-251.178
-264.806
-276.525
-286.386
-294.433
-300.699
-305.214
-308.055
-309.199
-308.546
-306.319
-302.489
-296.992
-289.798
-280.867
-270.15
-257.607
-243.203
-226.908
-208.707
-188.596
-166.572
-142.657
-116.906
-89.3816
-60.1604
-29.3907
2.77788
36.0986
70.3317
105.19
140.273
175.234
209.735
243.305
275.556
305.984
334.167
359.741
382.283
401.448
416.956
428.56
436.062
439.379
438.42
433.219
423.812
410.341
-214.622
-232.432
-248.635
-263.219
-276.184
-287.58
-297.446
-305.829
-312.765
-318.287
-322.423
-325.197
-326.604
-326.621
-325.087
-322.158
-317.802
-312.012
-304.744
-295.949
-285.581
-273.584
-259.899
-244.48
-227.283
-208.278
-187.449
-164.787
-140.315
-114.087
-86.1649
-56.6588
-25.7142
6.53154
38.8801
72.7828
107.025
141.276
175.175
208.37
240.449
271.018
299.67
326.008
349.692
370.389
387.8
401.69
411.865
418.18
420.554
418.904
413.379
404.022
390.9
374.259
354.34
331.401
305.781
277.825
247.91
216.416
183.731
150.265
116.393
82.4787
48.8696
15.8722
-16.2919
-47.2692
-76.9032
-105.039
-131.55
-156.346
-179.369
-200.589
-220.001
-237.611
-253.438
-267.519
-279.884
-290.556
-299.565
-306.942
-312.711
-316.892
-319.513
-320.569
-320.068
-318.071
-314.588
-309.635
-303.236
-295.411
-286.172
-275.526
-263.469
-249.992
-235.082
-218.715
-200.87
-181.535
-160.701
-138.373
-114.575
-89.3562
-62.7899
-34.9755
-6.04336
23.858
54.5188
85.7086
117.186
148.683
179.909
210.557
240.306
268.827
295.784
320.841
343.668
363.944
381.369
395.669
406.603
413.972
417.633
417.43
413.425
405.633
394.074
378.924
360.385
338.709
314.196
287.185
258.047
227.178
194.988
161.893
128.304
94.6222
61.2264
28.4669
-3.32579
-33.8965
-62.9983
-90.4389
-116.073
-139.799
-161.556
-181.324
-199.112
-214.957
-228.919
-241.076
-251.515
-260.331
-267.62
-273.481
-278.004
-281.271
-283.358
-284.334
-284.23
-283.08
-280.935
-277.789
-273.646
-268.495
-262.319
-255.098
-246.804
-237.404
-226.864
-215.15
-202.226
-188.052
-172.591
-155.808
-137.665
-118.133
-97.196
-74.8473
-51.1014
-25.9963
0.402078
27.9982
56.7
86.2602
116.494
147.156
177.958
208.575
238.654
267.817
295.668
321.805
345.83
367.356
386.011
401.463
413.415
421.625
425.916
426.123
422.302
414.492
402.76
387.321
368.435
346.415
321.618
294.439
265.293
234.61
202.828
170.38
137.684
105.135
73.0906
41.8716
11.7263
-17.1376
-44.5503
-70.3915
-94.5825
-117.08
-137.868
-156.954
-174.365
-190.141
-204.333
-216.996
-228.187
-237.966
-246.393
-253.518
-259.39
-264.052
-267.538
-269.893
-271.126
-271.246
-270.305
-268.303
-265.233
-261.087
-255.845
-249.473
-241.926
-233.155
-223.105
-211.719
-198.942
-184.724
-169.021
-151.803
-133.043
-112.731
-90.8787
-67.5155
-42.693
-16.4911
10.9844
39.6049
69.2985
100.181
131.377
162.739
194.002
224.862
254.937
283.838
311.126
336.368
359.114
378.912
395.376
408.134
416.865
421.31
421.306
416.679
408.471
396.3
380.097
360.058
336.417
309.536
279.811
247.781
214.051
179.201
143.826
108.611
74.2735
40.8361
-2.86289
-36.7951
-68.8047
-98.8948
-126.95
-152.911
-176.773
-198.519
-218.166
-235.76
-251.339
-264.962
-276.676
-286.532
-294.576
-300.84
-305.356
-308.194
-309.326
-308.677
-306.454
-302.625
-297.132
-289.94
-281.013
-270.299
-257.76
-243.361
-227.07
-208.872
-188.764
-166.742
-142.828
-117.076
-89.5484
-60.3219
-29.5437
2.63747
35.9747
70.2292
105.112
140.223
175.214
209.748
243.355
275.645
306.113
334.334
359.945
382.522
401.717
417.25
428.875
436.397
439.727
438.756
433.534
424.119
410.632
-214.849
-232.652
-248.847
-263.422
-276.379
-287.767
-297.626
-306.003
-312.934
-318.452
-322.586
-325.357
-326.764
-326.788
-325.253
-322.326
-317.973
-312.188
-304.926
-296.139
-285.779
-273.79
-260.114
-244.704
-227.515
-208.516
-187.692
-165.032
-140.561
-114.331
-86.4022
-56.8869
-25.9316
6.32275
38.7434
72.6659
106.941
141.233
175.177
208.421
240.551
271.174
299.879
326.268
350.001
370.743
388.192
402.113
412.312
418.641
421.024
419.373
413.826
404.448
391.298
374.622
354.66
331.674
306.004
277.996
248.028
216.483
183.748
150.234
116.32
82.3664
48.7228
15.6958
-16.4889
-47.4854
-77.1333
-105.278
-131.794
-156.591
-179.613
-200.83
-220.236
-237.84
-253.66
-267.734
-280.092
-290.759
-299.764
-307.136
-312.9
-317.079
-319.697
-320.745
-320.247
-318.248
-314.761
-309.807
-303.407
-295.582
-286.343
-275.699
-263.646
-250.172
-235.267
-218.905
-201.066
-181.734
-160.903
-138.576
-114.777
-89.5552
-62.9818
-35.1567
-6.20977
23.7089
54.3926
85.6087
117.116
148.646
179.909
210.597
240.389
268.954
295.956
321.059
343.931
364.25
381.716
396.052
407.015
414.406
418.078
417.895
413.867
406.063
394.482
379.302
360.724
339.003
314.44
287.376
258.184
227.261
195.018
161.872
128.236
94.5113
61.0771
28.2852
-3.53558
-34.1277
-63.2456
-90.6967
-116.336
-140.063
-161.818
-181.579
-199.358
-215.192
-229.143
-241.287
-251.712
-260.514
-267.791
-273.64
-278.152
-281.41
-283.49
-284.46
-284.348
-283.199
-281.052
-277.906
-273.764
-268.615
-262.443
-255.226
-246.937
-237.542
-227.008
-215.3
-202.382
-188.215
-172.761
-155.984
-137.847
-118.321
-97.3884
-75.0419
-51.2959
-26.1879
0.217687
27.8265
56.539
86.1221
116.383
147.077
177.915
208.575
238.7
267.912
295.816
322.007
346.085
367.662
386.365
401.859
413.847
422.082
426.387
426.614
422.766
414.942
403.183
387.706
368.774
346.702
321.85
294.614
265.411
234.671
202.835
170.337
137.595
105.006
72.9282
41.6843
11.5183
-17.3596
-44.7809
-70.6258
-94.817
-117.311
-138.093
-157.172
-174.574
-190.342
-204.524
-217.178
-228.36
-238.131
-246.549
-253.667
-259.534
-264.19
-267.673
-270.024
-271.251
-271.373
-270.431
-268.428
-265.359
-261.216
-255.979
-249.612
-242.072
-233.309
-223.266
-211.888
-199.12
-184.91
-169.215
-152.002
-133.246
-112.938
-91.0868
-67.7216
-42.8948
-16.6854
10.8016
39.4387
69.1488
100.068
131.295
162.691
193.994
224.898
255.022
283.977
311.321
336.621
359.425
379.275
395.788
408.591
417.359
421.838
421.843
417.212
408.993
396.801
380.559
360.465
336.757
309.801
279.998
247.89
214.086
179.167
143.727
108.452
74.0528
40.5361
-3.01929
-37.0135
-69.0516
-99.1562
-127.219
-153.181
-177.04
-198.781
-218.422
-236.008
-251.58
-265.195
-276.903
-286.752
-294.79
-301.052
-305.568
-308.402
-309.519
-308.875
-306.657
-302.83
-297.341
-290.153
-281.232
-270.524
-257.991
-243.598
-227.313
-209.12
-189.017
-166.997
-143.084
-117.331
-89.7988
-60.5643
-29.7736
2.42656
35.7885
70.0753
104.995
140.147
175.184
209.768
243.429
275.777
306.305
334.585
360.251
382.879
402.12
417.692
429.349
436.896
440.234
439.27
434.014
424.58
411.068
-215.151
-232.944
-249.129
-263.693
-276.64
-288.017
-297.867
-306.235
-313.159
-318.672
-322.802
-325.569
-326.976
-327.011
-325.475
-322.548
-318.2
-312.423
-305.169
-296.392
-286.043
-274.066
-260.402
-245.003
-227.824
-208.833
-188.016
-165.36
-140.889
-114.656
-86.7189
-57.1912
-26.2217
6.03207
38.5724
72.5093
106.829
141.174
175.179
208.488
240.688
271.381
300.157
326.616
350.413
371.214
388.716
402.678
412.908
419.256
421.642
420
414.428
405.016
391.83
375.105
355.087
332.039
306.301
278.223
248.186
216.571
183.77
150.194
116.222
82.2163
48.5268
15.4606
-16.7524
-47.7743
-77.4406
-105.597
-132.12
-156.918
-179.939
-201.15
-220.55
-238.145
-253.957
-268.021
-280.369
-291.029
-300.028
-307.394
-313.153
-317.329
-319.941
-320.982
-320.486
-318.483
-314.993
-310.036
-303.635
-295.809
-286.572
-275.93
-263.881
-250.413
-235.513
-219.158
-201.326
-182
-161.173
-138.848
-115.048
-89.8206
-63.2376
-35.3984
-6.43234
23.5107
54.2244
85.4756
117.023
148.598
179.91
210.65
240.499
269.122
296.186
321.35
344.282
364.66
382.18
396.563
407.565
414.985
418.673
418.507
414.465
406.639
395.029
379.806
361.176
339.396
314.766
287.632
258.368
227.373
195.059
161.845
128.146
94.3635
60.8783
28.0431
-3.81513
-34.4359
-63.5751
-91.0404
-116.687
-140.415
-162.166
-181.919
-199.686
-215.506
-229.44
-241.567
-251.974
-260.759
-268.019
-273.851
-278.349
-281.596
-283.665
-284.626
-284.507
-283.357
-281.207
-278.062
-273.922
-268.776
-262.609
-255.397
-247.114
-237.726
-227.199
-215.499
-202.59
-188.431
-172.987
-156.218
-138.09
-118.572
-97.6447
-75.3014
-51.5555
-26.4434
-0.0285264
27.5955
56.3264
85.9384
116.235
146.971
177.859
208.575
238.762
268.04
296.013
322.276
346.426
368.071
386.838
402.389
414.423
422.693
427.017
427.261
423.396
415.545
403.747
388.219
369.226
347.086
322.161
294.848
265.568
234.753
202.845
170.279
137.477
104.834
72.7115
41.4343
11.241
-17.6557
-45.0883
-70.9383
-95.1295
-117.619
-138.394
-157.462
-174.854
-190.609
-204.779
-217.42
-228.591
-238.35
-246.758
-253.867
-259.725
-264.375
-267.853
-270.199
-271.419
-271.542
-270.599
-268.594
-265.527
-261.388
-256.156
-249.797
-242.267
-233.513
-223.482
-212.115
-199.357
-185.158
-169.472
-152.267
-133.518
-113.214
-91.3644
-67.9967
-43.1641
-16.9447
10.5575
39.2163
68.9488
99.9164
131.186
162.628
193.982
224.945
255.135
284.162
311.583
336.958
359.838
379.76
396.338
409.201
418.019
422.538
422.557
417.928
409.698
397.472
381.176
361.009
337.211
310.155
280.247
248.035
214.132
179.12
143.594
108.239
73.7592
40.1413
-3.23273
-37.3064
-69.3817
-99.5054
-127.577
-153.54
-177.396
-199.131
-218.763
-236.34
-251.901
-265.507
-277.205
-287.045
-295.076
-301.333
-305.848
-308.676
-309.781
-309.14
-306.926
-303.103
-297.619
-290.437
-281.524
-270.822
-258.298
-243.914
-227.636
-209.451
-189.353
-167.338
-143.426
-117.671
-90.133
-60.888
-30.0804
2.14474
35.5399
69.8697
104.839
140.046
175.144
209.795
243.528
275.954
306.561
334.918
360.66
383.357
402.658
418.281
429.98
437.558
440.909
439.95
434.664
425.199
411.652
-215.529
-233.31
-249.481
-264.032
-276.965
-288.33
-298.168
-306.526
-313.441
-318.948
-323.072
-325.835
-327.241
-327.287
-325.749
-322.825
-318.484
-312.716
-305.473
-296.709
-286.374
-274.411
-260.761
-245.377
-228.21
-209.23
-188.421
-165.77
-141.3
-115.062
-87.1153
-57.5719
-26.5837
5.67156
38.3542
72.3119
106.687
141.1
175.181
208.572
240.857
271.64
300.505
327.051
350.929
371.805
389.37
403.385
413.654
420.026
422.417
420.777
415.184
405.729
392.495
375.71
355.622
332.494
306.672
278.508
248.382
216.681
183.796
150.142
116.098
82.028
48.2816
15.1662
-17.083
-48.1362
-77.8253
-105.997
-132.528
-157.328
-180.346
-201.551
-220.942
-238.526
-254.327
-268.38
-280.716
-291.366
-300.358
-307.717
-313.47
-317.641
-320.246
-321.282
-320.784
-318.777
-315.283
-310.323
-303.92
-296.094
-286.858
-276.22
-264.175
-250.715
-235.822
-219.475
-201.651
-182.332
-161.51
-139.187
-115.386
-90.1526
-63.5579
-35.7011
-6.71146
23.262
54.0138
85.3088
116.907
148.537
179.91
210.717
240.636
269.333
296.473
321.714
344.722
365.172
382.76
397.202
408.253
415.71
419.418
419.265
415.218
407.361
395.713
380.437
361.743
339.887
315.175
287.953
258.598
227.512
195.109
161.811
128.033
94.1782
60.6289
27.7396
-4.16521
-34.822
-63.9877
-91.471
-117.127
-140.857
-162.602
-182.344
-200.097
-215.898
-229.812
-241.917
-252.302
-261.064
-268.303
-274.116
-278.596
-281.827
-283.884
-284.834
-284.707
-283.555
-281.402
-278.257
-274.119
-268.977
-262.816
-255.611
-247.335
-237.956
-227.439
-215.748
-202.85
-188.703
-173.269
-156.512
-138.394
-118.886
-97.9654
-75.6266
-51.8806
-26.7633
-0.337119
27.3052
56.0602
85.7081
116.049
146.838
177.787
208.573
238.838
268.2
296.26
322.612
346.851
368.582
387.43
403.052
415.145
423.458
427.807
428.062
424.188
416.3
404.454
388.862
369.792
347.566
322.548
295.14
265.764
234.855
202.856
170.206
137.327
104.618
72.4397
41.1209
10.8934
-18.0267
-45.4732
-71.3296
-95.5207
-118.005
-138.77
-157.826
-175.203
-190.944
-205.098
-217.723
-228.879
-238.624
-247.018
-254.116
-259.965
-264.606
-268.077
-270.416
-271.631
-271.753
-270.808
-268.803
-265.737
-261.603
-256.378
-250.029
-242.51
-233.769
-223.751
-212.398
-199.654
-185.468
-169.795
-152.6
-133.858
-113.56
-91.7118
-68.3414
-43.5016
-17.2696
10.2514
38.9368
68.6983
99.7272
131.05
162.548
193.967
225.004
255.275
284.393
311.909
337.379
360.355
380.366
397.024
409.965
418.844
423.413
423.452
418.819
410.584
398.313
381.948
361.688
337.778
310.597
280.557
248.216
214.189
179.061
143.427
107.974
73.3934
39.6526
-3.50722
-37.6755
-69.7958
-99.9428
-128.025
-153.99
-177.841
-199.569
-219.19
-236.755
-252.303
-265.896
-277.582
-287.412
-295.434
-301.684
-306.196
-309.015
-310.113
-309.472
-307.263
-303.445
-297.968
-290.792
-281.889
-271.196
-258.682
-244.308
-228.041
-209.864
-189.774
-167.763
-143.854
-118.097
-90.551
-61.2931
-30.4647
1.79152
35.2285
69.6118
104.643
139.919
175.092
209.827
243.651
276.174
306.881
335.335
361.171
383.954
403.331
419.018
430.769
438.385
441.752
440.794
435.485
425.977
412.382
-215.982
-233.749
-249.904
-264.439
-277.356
-288.705
-298.529
-306.875
-313.779
-319.278
-323.396
-326.155
-327.559
-327.617
-326.075
-323.156
-318.825
-313.067
-305.838
-297.089
-286.77
-274.825
-261.193
-245.825
-228.673
-209.707
-188.907
-166.262
-141.793
-115.551
-87.5914
-58.029
-27.0173
5.25141
38.0777
72.0722
106.515
141.011
175.182
208.672
241.061
271.95
300.923
327.572
351.549
372.513
390.156
404.234
414.55
420.95
423.35
421.708
416.091
406.587
393.293
376.436
356.264
333.041
307.117
278.848
248.617
216.813
183.828
150.08
115.949
81.8012
47.9867
14.8123
-17.4809
-48.5714
-78.2878
-106.477
-133.017
-157.82
-180.835
-202.032
-221.412
-238.984
-254.771
-268.811
-281.133
-291.771
-300.754
-308.105
-313.85
-318.014
-320.611
-321.643
-321.142
-319.13
-315.631
-310.667
-304.262
-296.436
-287.202
-276.567
-264.529
-251.076
-236.192
-219.855
-202.041
-182.732
-161.916
-139.595
-115.793
-90.5516
-63.943
-36.0654
-7.04723
22.9624
53.7603
85.1078
116.766
148.463
179.91
210.796
240.799
269.586
296.817
322.15
345.249
365.787
383.456
397.97
409.081
416.581
420.315
420.173
416.122
408.23
396.535
381.196
362.423
340.477
315.665
288.337
258.873
227.679
195.169
161.769
127.896
93.9546
60.3284
27.3742
-4.58647
-35.2864
-64.4841
-91.9887
-117.656
-141.387
-163.127
-182.856
-200.59
-216.37
-230.259
-242.338
-252.696
-261.432
-268.645
-274.434
-278.893
-282.105
-284.147
-285.082
-284.948
-283.792
-281.636
-278.49
-274.355
-269.219
-263.064
-255.868
-247.602
-238.232
-227.726
-216.048
-203.162
-189.028
-173.608
-156.864
-138.76
-119.263
-98.3511
-76.0176
-52.2715
-27.148
-0.708551
26.9556
55.7396
85.4307
115.824
146.677
177.7
208.571
238.929
268.391
296.556
323.015
347.361
369.196
388.141
403.849
416.012
424.378
428.757
429.022
425.141
417.208
405.303
389.633
370.472
348.142
323.014
295.491
265.998
234.976
202.869
170.117
137.147
104.358
72.1123
40.7436
10.4751
-18.473
-45.9362
-71.8001
-95.9909
-118.468
-139.221
-158.263
-175.623
-191.345
-205.48
-218.087
-229.225
-238.952
-247.332
-254.416
-260.252
-264.884
-268.346
-270.676
-271.887
-272.006
-271.058
-269.053
-265.99
-261.861
-256.645
-250.307
-242.802
-234.077
-224.075
-212.738
-200.011
-185.841
-170.182
-152.999
-134.267
-113.975
-92.1293
-68.756
-43.9078
-17.6603
9.88265
38.5983
68.3975
99.4997
130.885
162.452
193.947
225.072
255.444
284.67
312.302
337.884
360.974
381.095
397.85
410.882
419.835
424.462
424.531
419.89
411.648
399.324
382.876
362.504
338.46
311.126
280.929
248.432
214.256
178.989
143.226
107.655
72.9559
39.0729
-3.84705
-38.1225
-70.2949
-100.469
-128.564
-154.531
-178.376
-200.094
-219.702
-237.252
-252.785
-266.362
-278.034
-287.851
-295.862
-302.104
-306.612
-309.422
-310.513
-309.872
-307.668
-303.856
-298.386
-291.218
-282.326
-271.644
-259.144
-244.782
-228.526
-210.361
-190.279
-168.275
-144.368
-118.608
-91.0534
-61.7801
-30.9268
1.36636
34.8539
69.3014
104.407
139.766
175.029
209.864
243.798
276.438
307.264
335.836
361.784
384.671
404.14
419.904
431.716
439.376
442.765
441.805
436.473
426.914
413.26
-216.512
-234.261
-250.398
-264.914
-277.811
-289.143
-298.95
-307.281
-314.174
-319.663
-323.774
-326.528
-327.931
-327.996
-326.455
-323.541
-319.222
-313.477
-306.263
-297.532
-287.233
-275.308
-261.697
-246.348
-229.214
-210.263
-189.475
-166.837
-142.369
-116.122
-88.1478
-58.5628
-27.522
4.77401
37.7393
71.789
106.313
140.905
175.183
208.788
241.297
272.311
301.41
328.18
352.271
373.341
391.074
405.226
415.596
422.03
424.442
422.794
417.148
407.59
394.226
377.284
357.013
333.678
307.637
279.246
248.891
216.965
183.864
150.006
115.774
81.5355
47.6415
14.3983
-17.9468
-49.0805
-78.8285
-107.038
-133.589
-158.395
-181.406
-202.595
-221.962
-239.519
-255.29
-269.313
-281.62
-292.244
-301.216
-308.557
-314.293
-318.45
-321.038
-322.065
-321.558
-319.541
-316.037
-311.069
-304.662
-296.835
-287.603
-276.973
-264.941
-251.498
-236.625
-220.3
-202.498
-183.198
-162.39
-140.073
-116.268
-91.018
-64.3933
-36.4915
-7.4401
22.6113
53.4635
84.8723
116.6
148.376
179.908
210.887
240.99
269.88
297.217
322.659
345.865
366.505
384.269
398.867
410.047
417.599
421.364
421.235
417.177
409.246
397.495
382.082
363.217
341.165
316.236
288.785
259.194
227.872
195.238
161.719
127.734
93.6922
59.9764
26.946
-5.07963
-35.8299
-65.065
-92.5943
-118.274
-142.008
-163.74
-183.453
-201.166
-216.921
-230.782
-242.83
-253.156
-261.86
-269.043
-274.805
-279.239
-282.429
-284.453
-285.373
-285.23
-284.068
-281.909
-278.763
-274.632
-269.501
-263.355
-256.168
-247.912
-238.555
-228.062
-216.398
-203.526
-189.408
-174.004
-157.276
-139.187
-119.704
-98.8021
-76.4746
-52.7284
-27.5982
-1.14329
26.5463
55.3638
85.1057
115.561
146.487
177.598
208.567
239.033
268.612
296.9
323.485
347.957
369.913
388.97
404.779
417.025
425.453
429.868
430.145
426.252
418.27
406.296
390.535
371.266
348.814
323.556
295.899
266.271
235.116
202.882
170.012
136.935
104.052
71.7284
40.3017
9.9852
-18.9953
-46.4779
-72.3504
-96.5406
-119.01
-139.749
-158.774
-176.114
-191.814
-205.927
-218.512
-229.629
-239.336
-247.697
-254.765
-260.588
-265.208
-268.661
-270.981
-272.186
-272.301
-271.35
-269.344
-266.285
-262.162
-256.956
-250.632
-243.143
-234.436
-224.453
-213.136
-200.428
-186.276
-170.634
-153.465
-134.745
-114.461
-92.6172
-69.2411
-44.383
-18.1175
9.45091
38.2002
68.0438
99.2354
130.692
162.339
193.924
225.151
255.639
284.991
312.759
338.475
361.697
381.945
398.814
411.951
420.992
425.687
425.792
421.143
412.893
400.508
383.961
363.458
339.255
311.744
281.361
248.682
214.333
178.903
142.99
107.282
72.4475
38.4106
-4.25726
-38.6494
-70.8801
-101.085
-129.193
-155.162
-179.001
-200.707
-220.301
-237.833
-253.348
-266.907
-278.562
-288.364
-296.362
-302.594
-307.095
-309.896
-310.982
-310.34
-308.14
-304.335
-298.874
-291.716
-282.836
-272.167
-259.682
-245.335
-229.093
-210.94
-190.87
-168.872
-144.968
-119.205
-91.6404
-62.3494
-31.4674
0.868613
34.4153
68.9379
104.131
139.586
174.955
209.907
243.968
276.744
307.711
336.42
362.499
385.509
405.083
420.937
432.822
440.534
443.947
442.986
437.627
428.011
414.285
-217.117
-234.847
-250.962
-265.456
-278.332
-289.643
-299.431
-307.746
-314.625
-320.103
-324.206
-326.954
-328.356
-328.421
-326.889
-323.98
-319.675
-313.946
-306.749
-298.038
-287.762
-275.86
-262.272
-246.947
-229.833
-210.899
-190.125
-167.495
-143.029
-116.775
-88.7848
-59.1737
-28.0978
4.23891
37.3383
71.461
106.08
140.782
175.182
208.918
241.566
272.723
301.966
328.876
353.098
374.287
392.124
406.36
416.793
423.266
425.692
424.038
418.356
408.738
395.294
378.255
357.869
334.407
308.23
279.699
249.203
217.138
183.904
149.92
115.572
81.2302
47.2454
13.9238
-18.4812
-49.664
-79.4479
-107.681
-134.244
-159.053
-182.059
-203.238
-222.59
-240.13
-255.882
-269.887
-282.176
-292.784
-301.743
-309.074
-314.8
-318.947
-321.527
-322.547
-322.035
-320.011
-316.502
-311.529
-305.119
-297.291
-288.061
-277.436
-265.413
-251.98
-237.12
-220.808
-203.019
-183.732
-162.932
-140.619
-116.812
-91.5522
-64.9094
-36.9798
-7.89055
22.2082
53.1227
84.6017
116.409
148.274
179.905
210.99
241.206
270.215
297.675
323.24
346.568
367.326
385.198
399.893
411.153
418.765
422.566
422.45
418.382
410.409
398.595
383.096
364.125
341.952
316.89
289.297
259.56
228.092
195.315
161.659
127.548
93.39
59.5722
26.4542
-5.64517
-36.4531
-65.7309
-93.2884
-118.983
-142.718
-164.441
-184.138
-201.826
-217.551
-231.379
-243.392
-253.682
-262.351
-269.499
-275.229
-279.634
-282.8
-284.803
-285.706
-285.552
-284.382
-282.22
-279.075
-274.948
-269.824
-263.687
-256.511
-248.268
-238.924
-228.446
-216.798
-203.944
-189.843
-174.457
-157.747
-139.676
-120.208
-99.3184
-76.9978
-53.252
-28.1143
-1.6417
26.0765
54.9322
84.7323
115.258
146.269
177.478
208.56
239.151
268.864
297.292
324.022
348.637
370.732
389.919
405.843
418.185
426.684
431.141
431.432
427.522
419.487
407.432
391.567
372.174
349.583
324.176
296.365
266.582
235.275
202.896
169.89
136.69
103.701
71.2865
39.7949
9.42323
-19.5942
-47.0987
-72.9808
-97.1702
-119.63
-140.354
-159.358
-176.675
-192.351
-206.439
-218.999
-230.091
-239.775
-248.115
-255.165
-260.972
-265.578
-269.02
-271.33
-272.527
-272.638
-271.684
-269.678
-266.621
-262.506
-257.312
-251.003
-243.533
-234.846
-224.885
-213.59
-200.905
-186.774
-171.151
-153.999
-135.292
-115.017
-93.176
-69.7967
-44.9272
-18.6416
8.95559
37.7419
67.6358
98.9348
130.472
162.208
193.895
225.24
255.861
285.358
313.281
339.15
362.522
382.919
399.918
413.173
422.316
427.09
427.24
422.58
414.321
401.865
385.204
364.549
340.164
312.45
281.854
248.966
214.418
178.803
142.719
106.855
71.869
37.6664
-4.74235
-39.2582
-71.5526
-101.791
-129.915
-155.885
-179.716
-201.409
-220.984
-238.497
-253.991
-267.529
-279.165
-288.949
-296.933
-303.153
-307.646
-310.438
-311.518
-310.876
-308.68
-304.882
-299.431
-292.284
-283.419
-272.765
-260.297
-245.968
-229.741
-211.603
-191.545
-169.555
-145.654
-119.888
-92.3124
-63.0015
-32.087
0.297546
33.9122
68.5206
103.814
139.378
174.868
209.953
244.161
277.094
308.221
337.087
363.317
386.466
406.163
422.12
434.088
441.857
445.3
444.338
438.947
429.269
415.459
-217.798
-235.507
-251.597
-266.066
-278.918
-290.205
-299.972
-308.268
-315.132
-320.597
-324.692
-327.434
-328.833
-328.897
-327.375
-324.475
-320.185
-314.472
-307.295
-298.607
-288.356
-276.482
-262.92
-247.621
-230.529
-211.615
-190.857
-168.237
-143.773
-117.511
-89.5029
-59.8622
-28.7452
3.64456
36.8749
71.087
105.815
140.642
175.179
209.064
241.868
273.186
302.591
329.658
354.028
375.353
393.307
407.638
418.142
424.659
427.101
425.438
419.717
410.032
396.496
379.347
358.833
335.227
308.897
280.209
249.553
217.331
183.947
149.821
115.343
80.8848
46.7974
13.3883
-19.0846
-50.3228
-80.1464
-108.406
-134.982
-159.795
-182.796
-203.962
-223.298
-240.817
-256.549
-270.533
-282.802
-293.392
-302.335
-309.656
-315.371
-319.506
-322.077
-323.091
-322.571
-320.54
-317.024
-312.046
-305.632
-297.804
-288.576
-277.957
-265.943
-252.523
-237.676
-221.38
-203.607
-184.333
-163.543
-141.235
-117.425
-92.1549
-65.4917
-37.5308
-8.39923
21.7524
52.7381
84.2955
116.193
148.159
179.9
211.105
241.448
270.59
298.188
323.893
347.359
368.25
386.245
401.049
412.399
420.078
423.921
423.82
419.74
411.72
399.834
384.238
365.149
342.838
317.625
289.872
259.972
228.338
195.401
161.591
127.336
93.0476
59.1145
25.8979
-6.28388
-37.157
-66.4827
-94.0717
-119.782
-143.519
-165.233
-184.909
-202.57
-218.262
-232.052
-244.025
-254.275
-262.903
-270.012
-275.706
-280.079
-283.217
-285.196
-286.08
-285.914
-284.737
-282.571
-279.426
-275.303
-270.187
-264.06
-256.897
-248.668
-239.34
-228.878
-217.248
-204.413
-190.332
-174.967
-158.278
-140.226
-120.776
-99.9002
-77.5878
-53.8427
-28.6965
-2.20461
25.5452
54.4446
84.3099
114.914
146.021
177.342
208.55
239.281
269.145
297.733
324.625
349.402
371.655
390.988
407.042
419.492
428.072
432.577
432.882
428.953
420.858
408.713
392.73
373.196
350.449
324.874
296.888
266.93
235.452
202.909
169.75
136.412
103.302
70.7857
39.2223
8.78832
-20.2705
-47.7995
-73.6921
-97.88
-120.329
-141.035
-160.016
-177.307
-192.955
-207.014
-219.546
-230.611
-240.269
-248.586
-255.615
-261.404