/*--------------------------------*- C++ -*----------------------------------*\
| =========                 |                                                 |
| \\      /  F ield         | OpenFOAM: The Open Source CFD Toolbox           |
|  \\    /   O peration     | Version:  3.0.1                                 |
|   \\  /    A nd           | Web:      www.OpenFOAM.org                      |
|    \\/     M anipulation  |                                                 |
\*---------------------------------------------------------------------------*/
FoamFile
{
    version     2.0;
    format      ascii;
    class       volScalarField;
    location    "21.4";
    object      p;
}
// * * * * * * * * * * * * * * * * * * * * * * * * * * * * * * * * * * * * * //

dimensions      [1 -1 -2 0 0 0 0];

internalField   nonuniform List<scalar> 
21420
(
3620.46
3636.71
3654.81
3674.73
3696.43
3719.92
3745.15
3772.03
3800.48
3830.36
3861.51
3893.57
3926.59
3960.19
3994.04
4027.74
4060.89
4093.13
4124.03
4153.16
4180.14
4204.59
4226.1
4244.37
4259.13
4270.13
4277.24
4280.26
4278.5
4272.68
4262.95
4249.37
4232.16
4211.57
4187.9
4161.47
4132.7
4101.96
4069.67
4036.28
4002.19
3967.78
3933.42
3899.67
3868.05
3836.34
3805.73
3776.5
3748.81
3722.81
3698.56
3676.13
3655.52
3636.75
3619.8
3604.64
3591.23
3579.53
3569.51
3561.12
3554.32
3549.09
3545.41
3543.23
3542.57
3543.45
3545.78
3549.59
3554.91
3561.72
3570.06
3579.94
3591.38
3604.39
3618.98
3635.13
3652.86
3672.14
3692.94
3715.24
3738.99
3764.14
3790.62
3818.32
3847.14
3876.93
3908.36
3939.66
3971.42
4003.35
4035.15
4066.49
4096.99
4126.28
4153.98
4179.69
4203.03
4223.66
4241.24
4255.5
4266.17
4273.08
4276.03
4274.96
4269.84
4260.72
4247.64
4230.77
4210.31
4186.56
4159.83
4130.54
4099.1
4065.97
4031.65
3996.62
3961.33
3926.24
3891.77
3858.24
3825.98
3795.22
3766.19
3739.01
3713.79
3690.6
3669.46
3650.37
3633.28
3618.15
3604.91
3593.46
3583.71
3575.56
3568.93
3563.71
3559.83
3557.23
3555.83
3555.64
3556.64
3558.78
3562.11
3566.66
3572.47
3579.61
3588.15
3598.14
3609.67
3622.8
3637.6
3654.13
3672.42
3692.49
3714.35
3737.97
3763.3
3790.26
3818.71
3848.51
3879.48
3911.4
3943.97
3976.9
4009.87
4042.52
4074.49
4105.38
4134.8
4162.34
4187.63
4210.28
4229.96
4246.36
4259.22
4268.31
4273.48
4274.57
4271.69
4264.79
4253.95
4239.36
4221.22
4199.81
4175.46
4148.51
4119.36
4088.41
4056.09
4022.8
3988.96
3954.97
3921.19
3887.95
3855.56
3824.28
3794.33
3765.88
3739.08
3714.03
3690.79
3669.41
3649.89
3632.24
3616.42
3602.4
3590.14
3579.59
3570.71
3563.44
3557.73
3553.53
3550.8
3549.5
3549.63
3551.1
3553.93
3558.12
3563.67
3570.58
3578.9
3588.65
3599.88
3612.63
3626.96
3642.89
3660.49
3679.78
3700.79
3723.54
3747.99
3774.1
3801.8
3830.98
3861.48
3893.09
3925.56
3958.58
3991.81
4024.89
4057.4
4088.92
4119.01
4147.24
4173.18
4196.45
4216.68
4233.58
4246.87
4256.37
4261.97
4263.55
4261.22
4254.97
4244.98
4231.41
4214.49
4194.5
4171.75
4146.56
4119.28
4090.27
4059.89
4028.5
3996.45
3964.06
3931.63
3899.47
3867.83
3836.93
3806.97
3778.13
3750.58
3724.45
3699.85
3676.87
3655.57
3636.01
3618.23
3602.24
3588.05
3575.66
3565.09
3556.31
3549.3
3544.04
3540.52
3538.7
3538.71
3540.34
3543.6
3548.47
3554.91
3562.89
3572.4
3583.42
3595.91
3609.87
3625.26
3642.07
3660.28
3679.86
3700.8
3723.07
3746.61
3771.4
3797.36
3824.36
3852.19
3879.95
3909.04
3938.77
3968.79
3998.81
4028.56
4057.7
4085.92
4112.85
4138.15
4161.49
4182.52
4200.91
4216.38
4228.65
4237.49
4242.7
4244.02
4241.01
4234.07
4223.32
4208.79
4190.67
4169.22
4144.77
4117.63
4088.22
4056.93
4024.21
3990.55
3956.39
3922.16
3888.31
3855.35
3825.12
3794.35
3764.94
3737.11
3711.01
3686.75
3664.37
3643.9
3625.34
3608.66
3593.83
3580.8
3569.49
3559.81
3522.28
3538.53
3556.63
3576.55
3598.25
3621.73
3646.96
3673.85
3702.3
3732.19
3763.34
3795.41
3828.44
3862.05
3895.91
3929.63
3962.8
3995.06
4025.97
4055.12
4082.13
4106.59
4128.11
4146.4
4161.17
4172.18
4179.29
4182.33
4180.55
4174.73
4164.99
4151.4
4134.18
4113.58
4089.89
4063.45
4034.65
4003.9
3971.59
3938.18
3904.07
3869.65
3835.28
3801.51
3769.89
3738.17
3707.56
3678.32
3650.63
3624.62
3600.38
3577.94
3557.34
3538.57
3521.63
3506.47
3493.06
3481.36
3471.34
3462.95
3456.16
3450.93
3447.25
3445.07
3444.41
3445.29
3447.62
3451.43
3456.75
3463.56
3471.9
3481.78
3493.21
3506.23
3520.81
3536.96
3554.69
3573.97
3594.77
3617.07
3640.82
3665.98
3692.46
3720.16
3748.98
3778.79
3810.21
3841.52
3873.28
3905.23
3937.05
3968.4
3998.91
4028.23
4055.94
4081.66
4105.03
4125.67
4143.27
4157.53
4168.22
4175.13
4178.09
4177.02
4171.9
4162.77
4149.68
4132.8
4112.33
4088.56
4061.81
4032.5
4001.03
3967.89
3933.55
3898.5
3863.19
3828.09
3793.61
3760.07
3727.79
3697.04
3668
3640.82
3615.6
3592.41
3571.27
3552.18
3535.1
3519.97
3506.73
3495.29
3485.54
3477.4
3470.77
3465.56
3461.68
3459.08
3457.69
3457.5
3458.49
3460.64
3463.96
3468.51
3474.31
3481.45
3489.99
3499.98
3511.5
3524.63
3539.43
3555.95
3574.24
3594.31
3616.17
3639.79
3665.12
3692.08
3720.54
3750.35
3781.32
3813.25
3845.83
3878.77
3911.75
3944.42
3976.41
4007.32
4036.75
4064.31
4089.62
4112.29
4131.98
4148.4
4161.26
4170.36
4175.54
4176.64
4173.75
4166.84
4156
4141.39
4123.24
4101.82
4077.44
4050.48
4021.31
3990.34
3958
3924.7
3890.84
3856.84
3823.04
3789.8
3757.4
3726.11
3696.15
3667.7
3640.9
3615.85
3592.61
3571.23
3551.71
3534.06
3518.24
3504.23
3491.97
3481.42
3472.54
3465.27
3459.57
3455.37
3452.64
3451.35
3451.47
3452.95
3455.78
3459.96
3465.51
3472.43
3480.74
3490.49
3501.72
3514.46
3528.79
3544.72
3562.32
3581.61
3602.62
3625.36
3649.81
3675.92
3703.63
3732.81
3763.31
3794.93
3827.41
3860.44
3893.69
3926.78
3959.31
3990.85
4020.96
4049.21
4075.17
4098.46
4118.71
4135.61
4148.91
4158.42
4164.02
4165.61
4163.27
4157.02
4147.02
4133.44
4116.5
4096.5
4073.73
4048.52
4021.22
3992.2
3961.81
3930.41
3898.34
3865.94
3833.5
3801.33
3769.68
3738.77
3708.8
3679.96
3652.41
3626.28
3601.68
3578.69
3557.4
3537.84
3520.05
3504.06
3489.87
3477.49
3466.92
3458.14
3451.13
3445.87
3442.35
3440.53
3440.54
3442.17
3445.43
3450.31
3456.75
3464.73
3474.24
3485.26
3497.75
3511.71
3527.1
3543.91
3562.12
3581.7
3602.64
3624.91
3648.45
3673.24
3699.2
3726.2
3754.04
3781.8
3810.9
3840.64
3870.67
3900.7
3930.46
3959.62
3987.85
4014.8
4040.11
4063.47
4084.51
4102.92
4118.4
4130.68
4139.53
4144.75
4146.08
4143.06
4136.12
4125.36
4110.82
4092.69
4071.23
4046.76
4019.6
3990.17
3958.86
3926.12
3892.44
3858.26
3824.03
3790.17
3757.19
3726.95
3696.17
3666.75
3638.92
3612.83
3588.57
3566.19
3545.72
3527.16
3510.48
3495.65
3482.63
3471.32
3461.64
3424.03
3440.28
3458.37
3478.28
3499.98
3523.47
3548.7
3575.59
3604.05
3633.95
3665.11
3697.2
3730.24
3763.87
3797.77
3831.52
3864.72
3897.01
3927.96
3957.15
3984.19
4008.69
4030.25
4048.56
4063.35
4074.39
4081.5
4084.57
4082.76
4076.93
4067.18
4053.57
4036.33
4015.7
3991.97
3965.49
3936.66
3905.87
3873.53
3840.08
3805.94
3771.49
3737.1
3703.31
3671.65
3639.92
3609.3
3580.05
3552.36
3526.35
3502.11
3479.68
3459.08
3440.32
3423.37
3408.22
3394.81
3383.12
3373.11
3364.72
3357.93
3352.71
3349.03
3346.85
3346.19
3347.07
3349.4
3353.22
3358.53
3365.34
3373.67
3383.55
3394.99
3407.99
3422.57
3438.72
3456.45
3475.73
3496.54
3518.83
3542.58
3567.74
3594.23
3621.94
3650.77
3680.59
3712
3743.33
3775.12
3807.09
3838.94
3870.32
3900.87
3930.21
3957.96
3983.72
4007.11
4027.79
4045.41
4059.71
4070.41
4077.34
4080.32
4079.23
4074.11
4064.98
4051.87
4034.96
4014.46
3990.66
3963.88
3934.52
3903.01
3869.83
3835.45
3800.36
3765.02
3729.89
3695.38
3661.82
3629.53
3598.76
3569.72
3542.53
3517.32
3494.13
3473
3453.91
3436.83
3421.71
3408.48
3397.05
3387.31
3379.18
3372.56
3367.35
3363.48
3360.88
3359.49
3359.31
3360.3
3362.44
3365.77
3370.31
3376.11
3383.24
3391.77
3401.75
3413.27
3426.39
3441.18
3457.7
3475.98
3496.05
3517.91
3541.53
3566.86
3593.83
3622.29
3652.11
3683.1
3715.05
3747.65
3780.61
3813.62
3846.33
3878.34
3909.29
3938.75
3966.35
3991.69
4014.4
4034.12
4050.56
4063.45
4072.56
4077.75
4078.87
4075.95
4069.04
4058.18
4043.55
4025.37
4003.92
3979.51
3952.51
3923.3
3892.3
3859.92
3826.59
3792.71
3758.67
3724.85
3691.59
3659.17
3627.87
3597.9
3569.44
3542.64
3517.58
3494.34
3472.96
3453.45
3435.8
3419.99
3405.98
3393.73
3383.19
3374.31
3367.05
3361.34
3357.16
3354.42
3353.14
3353.26
3354.74
3357.57
3361.76
3367.3
3374.21
3382.52
3392.27
3403.49
3416.23
3430.55
3446.48
3464.07
3483.36
3504.36
3527.1
3551.55
3577.67
3605.38
3634.57
3665.08
3696.72
3729.22
3762.27
3795.55
3828.67
3861.24
3892.81
3922.96
3951.25
3977.25
4000.57
4020.85
4037.78
4051.1
4060.63
4066.23
4067.84
4065.46
4059.21
4049.19
4035.59
4018.63
3998.59
3975.79
3950.55
3923.22
3894.16
3863.74
3832.31
3800.22
3767.79
3735.34
3703.14
3671.48
3640.56
3610.58
3581.73
3554.17
3528.04
3503.43
3480.44
3459.14
3439.58
3421.8
3405.81
3391.63
3379.24
3368.67
3359.9
3352.89
3347.64
3344.12
3342.31
3342.31
3343.94
3347.21
3352.08
3358.53
3366.51
3376.02
3387.03
3399.53
3413.48
3428.88
3445.69
3463.9
3483.48
3504.42
3526.68
3550.23
3575.02
3600.99
3628
3655.85
3683.6
3712.72
3742.47
3772.53
3802.58
3832.37
3861.55
3889.81
3916.79
3942.14
3965.52
3986.6
4005.03
4020.54
4032.84
4041.71
4046.95
4048.3
4045.26
4038.32
4027.55
4012.99
3994.83
3973.34
3948.83
3921.64
3892.17
3860.82
3828.04
3794.33
3760.12
3725.85
3691.97
3658.98
3628.7
3597.92
3568.49
3540.66
3514.56
3490.29
3467.92
3447.46
3428.9
3412.23
3397.41
3384.38
3373.08
3363.41
3325.71
3341.95
3360.03
3379.94
3401.64
3425.12
3450.36
3477.25
3505.72
3535.63
3566.81
3598.93
3631.99
3665.66
3699.6
3733.39
3766.65
3798.99
3830
3859.24
3886.34
3910.89
3932.5
3950.86
3965.68
3976.74
3983.87
3986.96
3985.13
3979.29
3969.52
3955.88
3938.59
3917.92
3894.14
3867.61
3838.72
3807.87
3775.48
3741.98
3707.79
3673.3
3638.87
3605.05
3573.35
3541.61
3510.97
3481.71
3454.01
3428
3403.75
3381.33
3360.73
3341.98
3325.04
3309.89
3296.5
3284.82
3274.81
3266.43
3259.64
3254.43
3250.75
3248.57
3247.92
3248.79
3251.12
3254.94
3260.25
3267.05
3275.38
3285.26
3296.69
3309.69
3324.27
3340.42
3358.14
3377.42
3398.23
3420.52
3444.28
3469.44
3495.93
3523.65
3552.49
3582.34
3613.73
3645.1
3676.93
3708.93
3740.82
3772.24
3802.84
3832.24
3860.04
3885.85
3909.29
3930.01
3947.69
3962.02
3972.75
3979.7
3982.7
3981.6
3976.48
3967.33
3954.19
3937.25
3916.71
3892.85
3866.02
3836.6
3805.03
3771.79
3737.35
3702.2
3666.81
3631.63
3597.09
3563.5
3531.19
3500.4
3471.35
3444.16
3418.94
3395.76
3374.63
3355.55
3338.49
3323.38
3310.16
3298.74
3289.02
3280.9
3274.29
3269.09
3265.23
3262.64
3261.25
3261.07
3262.06
3264.2
3267.52
3272.06
3277.85
3284.97
3293.49
3303.46
3314.97
3328.08
3342.86
3359.37
3377.65
3397.71
3419.57
3443.19
3468.53
3495.5
3523.97
3553.81
3584.82
3616.8
3649.43
3682.43
3715.48
3748.23
3780.3
3811.29
3840.81
3868.47
3893.86
3916.61
3936.39
3952.87
3965.79
3974.92
3980.12
3981.25
3978.32
3971.39
3960.51
3945.84
3927.62
3906.12
3881.67
3854.61
3825.35
3794.29
3761.86
3728.47
3694.55
3660.47
3626.61
3593.32
3560.88
3529.55
3499.57
3471.1
3444.29
3419.23
3396
3374.62
3355.11
3337.47
3321.66
3307.66
3295.42
3284.89
3276.02
3268.76
3263.06
3258.88
3256.15
3254.88
3255
3256.48
3259.31
3263.49
3269.04
3275.94
3284.25
3293.99
3305.2
3317.94
3332.25
3348.17
3365.75
3385.03
3406.03
3428.76
3453.21
3479.33
3507.05
3536.26
3566.79
3598.45
3630.98
3664.07
3697.39
3730.56
3763.18
3794.81
3825.02
3853.36
3879.42
3902.79
3923.11
3940.09
3953.44
3962.98
3968.6
3970.21
3967.81
3961.55
3951.5
3937.86
3920.86
3900.79
3877.94
3852.65
3825.27
3796.16
3765.7
3734.22
3702.09
3669.63
3637.14
3604.92
3573.24
3542.29
3512.29
3483.43
3455.86
3429.72
3405.1
3382.11
3360.81
3341.26
3323.47
3307.48
3293.3
3280.92
3270.36
3261.58
3254.58
3249.33
3245.82
3244.02
3244.01
3245.65
3248.92
3253.8
3260.24
3268.22
3277.74
3288.75
3301.24
3315.2
3330.59
3347.4
3365.61
3385.19
3406.13
3428.4
3451.95
3476.74
3502.72
3529.74
3557.61
3585.36
3614.5
3644.28
3674.37
3704.45
3734.28
3763.5
3791.8
3818.83
3844.22
3867.65
3888.77
3907.25
3922.8
3935.14
3944.04
3949.29
3950.68
3947.62
3940.67
3929.88
3915.29
3897.09
3875.55
3851
3823.75
3794.22
3762.81
3729.98
3696.21
3661.95
3627.64
3593.73
3560.72
3530.37
3499.58
3470.14
3442.3
3416.2
3391.94
3369.57
3349.11
3330.56
3313.9
3299.08
3286.07
3274.78
3265.12
3227.32
3243.54
3261.62
3281.52
3303.21
3326.69
3351.93
3378.83
3407.31
3437.24
3468.44
3500.59
3533.69
3567.41
3601.4
3635.26
3668.58
3700.99
3732.07
3761.39
3788.56
3813.19
3834.86
3853.28
3868.15
3879.25
3886.4
3889.5
3887.66
3881.81
3872
3858.32
3840.98
3820.25
3796.41
3769.8
3740.84
3709.92
3677.45
3643.88
3609.63
3575.08
3540.61
3506.74
3474.98
3443.21
3412.56
3383.28
3355.57
3329.56
3305.32
3282.89
3262.31
3243.56
3226.63
3211.5
3198.11
3186.44
3176.44
3168.07
3161.29
3156.08
3152.41
3150.24
3149.59
3150.46
3152.79
3156.6
3161.91
3168.71
3177.04
3186.9
3198.33
3211.33
3225.9
3242.04
3259.77
3279.04
3299.85
3322.15
3345.9
3371.07
3397.57
3425.3
3454.16
3484.04
3515.42
3546.83
3578.7
3610.75
3642.69
3674.18
3704.84
3734.31
3762.17
3788.06
3811.57
3832.35
3850.08
3864.46
3875.23
3882.21
3885.23
3884.14
3879.01
3869.83
3856.67
3839.68
3819.08
3795.15
3768.24
3738.74
3707.09
3673.76
3639.24
3604.02
3568.56
3533.32
3498.74
3465.11
3432.76
3401.96
3372.88
3345.69
3320.47
3297.29
3276.17
3257.11
3240.06
3224.97
3211.77
3200.36
3190.66
3182.56
3175.96
3170.78
3166.93
3164.34
3162.96
3162.79
3163.78
3165.91
3169.23
3173.75
3179.54
3186.65
3195.15
3205.11
3216.61
3229.7
3244.47
3260.97
3279.23
3299.29
3321.14
3344.77
3370.11
3397.09
3425.58
3455.45
3486.49
3518.5
3551.17
3584.22
3617.33
3650.14
3682.27
3713.33
3742.93
3770.65
3796.11
3818.93
3838.77
3855.3
3868.27
3877.43
3882.65
3883.8
3880.85
3873.9
3862.98
3848.27
3829.99
3808.43
3783.91
3756.78
3727.44
3696.31
3663.81
3630.36
3596.37
3562.24
3528.33
3494.99
3462.52
3431.17
3401.16
3372.68
3345.86
3320.8
3297.57
3276.19
3256.69
3239.06
3223.26
3209.27
3197.04
3186.52
3177.66
3170.41
3164.72
3160.55
3157.83
3156.56
3156.68
3158.17
3161
3165.18
3170.72
3177.62
3185.92
3195.65
3206.85
3219.58
3233.87
3249.78
3267.36
3286.62
3307.62
3330.35
3354.8
3380.92
3408.65
3437.87
3468.43
3500.12
3532.69
3565.83
3599.21
3632.44
3665.13
3696.84
3727.12
3755.54
3781.67
3805.11
3825.5
3842.53
3855.92
3865.49
3871.12
3872.74
3870.32
3864.03
3853.95
3840.26
3823.21
3803.07
3780.16
3754.81
3727.36
3698.19
3667.67
3636.13
3603.95
3571.44
3538.91
3506.65
3474.94
3443.96
3413.94
3385.06
3357.48
3331.33
3306.7
3283.71
3262.41
3242.85
3225.07
3209.08
3194.9
3182.53
3171.97
3163.2
3156.2
3150.96
3147.45
3145.66
3145.65
3147.3
3150.57
3155.45
3161.89
3169.88
3179.39
3190.41
3202.9
3216.85
3232.25
3249.06
3267.27
3286.85
3307.79
3330.05
3353.6
3378.4
3404.39
3431.43
3459.32
3487.07
3516.24
3546.06
3576.18
3606.31
3636.19
3665.46
3693.82
3720.91
3746.37
3769.86
3791.04
3809.58
3825.18
3837.56
3846.5
3851.78
3853.2
3850.14
3843.18
3832.35
3817.72
3799.47
3777.87
3753.25
3725.93
3696.32
3664.84
3631.93
3598.09
3563.76
3529.4
3495.43
3462.4
3431.97
3401.17
3371.72
3343.87
3317.76
3293.5
3271.13
3250.68
3232.14
3215.49
3200.69
3187.69
3176.4
3166.76
3128.85
3145.06
3163.12
3183.02
3204.7
3228.18
3253.42
3280.33
3308.83
3338.78
3370.01
3402.2
3435.34
3469.12
3503.19
3537.12
3570.52
3603.02
3634.2
3663.61
3690.87
3715.59
3737.35
3755.84
3770.77
3781.9
3789.08
3792.19
3790.36
3784.49
3774.63
3760.9
3743.5
3722.69
3698.76
3672.06
3643.01
3611.99
3579.43
3545.78
3511.44
3476.83
3442.3
3408.38
3376.55
3344.75
3314.07
3284.78
3257.06
3231.04
3206.79
3184.37
3163.8
3145.06
3128.15
3113.02
3099.65
3087.99
3078
3069.64
3062.88
3057.67
3054.01
3051.84
3051.2
3052.06
3054.39
3058.2
3063.5
3070.3
3078.62
3088.49
3099.91
3112.9
3127.46
3143.6
3161.32
3180.59
3201.4
3223.7
3247.46
3272.63
3299.14
3326.89
3355.77
3385.69
3417.06
3448.52
3480.44
3512.56
3544.56
3576.12
3606.87
3636.42
3664.37
3690.34
3713.94
3734.8
3752.6
3767.05
3777.87
3784.88
3787.91
3786.84
3781.7
3772.49
3759.28
3742.23
3721.56
3697.55
3670.55
3640.94
3609.19
3575.76
3541.14
3505.82
3470.28
3434.96
3400.32
3366.64
3334.25
3303.42
3274.33
3247.13
3221.91
3198.74
3177.63
3158.57
3141.54
3126.47
3113.29
3101.91
3092.23
3084.15
3077.57
3072.41
3068.57
3066
3064.63
3064.46
3065.45
3067.58
3070.89
3075.4
3081.17
3088.27
3096.76
3106.7
3118.17
3131.25
3146
3162.49
3180.74
3200.79
3222.64
3246.26
3271.61
3298.61
3327.12
3357.01
3388.09
3420.14
3452.87
3485.98
3519.16
3552.04
3584.26
3615.41
3645.09
3672.91
3698.45
3721.36
3741.27
3757.87
3770.89
3780.1
3785.33
3786.5
3783.54
3776.56
3765.6
3750.83
3732.48
3710.84
3686.23
3659.01
3629.58
3598.36
3565.77
3532.23
3498.17
3463.97
3430
3396.61
3364.09
3332.71
3302.68
3274.18
3247.35
3222.28
3199.05
3177.68
3158.19
3140.57
3124.79
3110.81
3098.59
3088.08
3079.23
3072
3066.32
3062.15
3059.45
3058.18
3058.31
3059.8
3062.63
3066.81
3072.34
3079.24
3087.53
3097.25
3108.44
3121.15
3135.43
3151.33
3168.89
3188.14
3209.13
3231.85
3256.3
3282.43
3310.17
3339.42
3370
3401.74
3434.36
3467.56
3501.01
3534.32
3567.1
3598.9
3629.28
3657.79
3684.02
3707.54
3728.01
3745.1
3758.55
3768.15
3773.8
3775.42
3772.99
3766.66
3756.53
3742.79
3725.67
3705.46
3682.47
3657.03
3629.51
3600.26
3569.65
3538.05
3505.8
3473.23
3440.65
3408.34
3376.59
3345.58
3315.53
3286.63
3259.03
3232.86
3208.23
3185.23
3163.93
3144.37
3126.59
3110.61
3096.43
3084.06
3073.5
3064.74
3057.75
3052.52
3049.02
3047.24
3047.23
3048.88
3052.15
3057.04
3063.49
3071.47
3080.99
3092
3104.49
3118.45
3133.84
3150.65
3168.86
3188.44
3209.38
3231.64
3255.2
3280.01
3306
3333.06
3360.98
3388.72
3417.93
3447.8
3477.98
3508.16
3538.1
3567.44
3595.88
3623.04
3648.57
3672.14
3693.4
3712.01
3727.68
3740.12
3749.11
3754.42
3755.86
3752.82
3745.84
3734.97
3720.29
3701.98
3680.3
3655.59
3628.18
3598.48
3566.89
3533.89
3499.96
3465.55
3431.11
3397.09
3364.02
3333.5
3302.67
3273.21
3245.35
3219.23
3194.97
3172.61
3152.17
3133.64
3117
3102.21
3089.23
3077.96
3068.33
3030.3
3046.5
3064.55
3084.43
3106.11
3129.59
3154.83
3181.75
3210.26
3240.25
3271.51
3303.74
3336.94
3370.8
3404.94
3438.97
3472.47
3505.08
3536.36
3565.89
3593.27
3618.09
3639.95
3658.52
3673.53
3684.71
3691.92
3695.03
3693.21
3687.31
3677.41
3663.62
3646.13
3625.23
3601.2
3574.4
3545.23
3514.11
3481.44
3447.68
3413.25
3378.54
3343.94
3309.97
3278.05
3246.21
3215.5
3186.19
3158.45
3132.43
3108.19
3085.77
3065.21
3046.48
3029.58
3014.48
3001.12
2989.48
2979.5
2971.15
2964.4
2959.2
2955.55
2953.39
2952.75
2953.61
2955.94
2959.75
2965.04
2971.84
2980.15
2990.01
3001.42
3014.4
3028.96
3045.09
3062.81
3082.07
3102.88
3125.18
3148.95
3174.13
3200.65
3228.41
3257.32
3287.28
3318.64
3350.17
3382.15
3414.34
3446.43
3478.08
3508.92
3538.57
3566.63
3592.7
3616.41
3637.36
3655.25
3669.77
3680.65
3687.7
3690.76
3689.7
3684.54
3675.3
3662.04
3644.92
3624.16
3600.05
3572.93
3543.21
3511.33
3477.77
3443.03
3407.6
3371.96
3336.55
3301.84
3268.09
3235.66
3204.8
3175.69
3148.48
3123.26
3100.09
3078.99
3059.96
3042.95
3027.9
3014.75
3003.4
2993.74
2985.69
2979.13
2973.99
2970.17
2967.61
2966.26
2966.09
2967.07
2969.2
2972.5
2977
2982.76
2989.83
2998.3
3008.22
3019.67
3032.73
3047.46
3063.93
3082.17
3102.21
3124.05
3147.68
3173.04
3200.05
3228.58
3258.51
3289.63
3321.74
3354.52
3387.71
3420.98
3453.95
3486.27
3517.52
3547.31
3575.23
3600.89
3623.89
3643.9
3660.58
3673.66
3682.91
3688.18
3689.35
3686.39
3679.37
3668.35
3653.52
3635.09
3613.35
3588.64
3561.31
3531.77
3500.44
3467.74
3434.11
3399.95
3365.66
3331.62
3298.17
3265.6
3234.18
3204.12
3175.6
3148.76
3123.69
3100.45
3079.09
3059.61
3042
3026.23
3012.27
3000.07
2989.58
2980.74
2973.52
2967.86
2963.71
2961.01
2959.75
2959.89
2961.38
2964.21
2968.39
2973.91
2980.8
2989.08
2998.79
3009.96
3022.66
3036.92
3052.8
3070.35
3089.59
3110.56
3133.28
3157.73
3183.86
3211.62
3240.89
3271.51
3303.29
3335.98
3369.25
3402.78
3436.2
3469.08
3500.99
3531.48
3560.11
3586.45
3610.08
3630.64
3647.81
3661.32
3670.96
3676.63
3678.25
3675.81
3669.44
3659.26
3645.45
3628.25
3607.94
3584.86
3559.32
3531.7
3502.36
3471.66
3439.97
3407.64
3374.99
3342.35
3309.99
3278.18
3247.14
3217.06
3188.13
3160.5
3134.32
3109.68
3086.67
3065.37
3045.81
3028.03
3012.05
2997.89
2985.53
2974.97
2966.21
2959.23
2954
2950.52
2948.74
2948.74
2950.4
2953.68
2958.56
2965.02
2973
2982.52
2993.53
3006.02
3019.98
3035.37
3052.18
3070.39
3089.97
3110.91
3133.17
3156.73
3181.55
3207.56
3234.64
3262.59
3290.33
3319.59
3349.51
3379.75
3410
3440.02
3469.44
3497.96
3525.22
3550.84
3574.51
3595.86
3614.55
3630.3
3642.81
3651.85
3657.21
3658.68
3655.66
3648.65
3637.73
3622.99
3604.6
3582.83
3558.02
3530.5
3500.68
3468.98
3435.86
3401.82
3367.31
3332.79
3298.7
3265.58
3234.95
3204.1
3174.61
3146.74
3120.62
3096.36
3074
3053.57
3035.06
3018.44
3003.67
2990.7
2979.46
2969.84
2931.68
2947.86
2965.9
2985.77
3007.44
3030.91
3056.16
3083.09
3111.63
3141.64
3172.94
3205.23
3238.49
3272.43
3306.68
3340.81
3374.43
3407.16
3438.57
3468.23
3495.74
3520.69
3542.67
3561.34
3576.43
3587.68
3594.92
3598.04
3596.23
3590.3
3580.33
3566.47
3548.89
3527.88
3503.74
3476.81
3447.51
3416.25
3383.46
3349.58
3315.03
3280.23
3245.55
3211.49
3179.48
3147.6
3116.85
3087.51
3059.77
3033.73
3009.49
2987.09
2966.53
2947.82
2930.94
2915.85
2902.52
2890.89
2880.93
2872.6
2865.86
2860.67
2857.03
2854.88
2854.24
2855.1
2857.43
2861.23
2866.52
2873.31
2881.61
2891.46
2902.86
2915.84
2930.38
2946.51
2964.22
2983.49
3004.29
3026.6
3050.37
3075.55
3102.09
3129.87
3158.82
3188.81
3220.18
3251.77
3283.83
3316.1
3348.28
3380.04
3410.99
3440.77
3468.95
3495.14
3518.96
3540.03
3558.02
3572.62
3583.57
3590.68
3593.77
3592.72
3587.55
3578.27
3564.94
3547.74
3526.88
3502.65
3475.4
3445.53
3413.51
3379.8
3344.92
3309.36
3273.6
3238.08
3203.29
3169.47
3136.99
3106.09
3076.96
3049.73
3024.51
3001.35
2980.27
2961.25
2944.27
2929.25
2916.13
2904.81
2895.19
2887.17
2880.64
2875.52
2871.72
2869.18
2867.83
2867.67
2868.65
2870.77
2874.06
2878.55
2884.29
2891.34
2899.79
2909.68
2921.11
2934.14
2948.85
2965.3
2983.52
3003.54
3025.38
3049.01
3074.38
3101.41
3129.97
3159.94
3191.11
3223.28
3256.14
3289.42
3322.78
3355.86
3388.29
3419.66
3449.58
3477.63
3503.41
3526.53
3546.64
3563.42
3576.58
3585.89
3591.19
3592.37
3589.39
3582.33
3571.26
3556.34
3537.82
3515.97
3491.13
3463.67
3434
3402.54
3369.72
3335.97
3301.71
3267.32
3233.2
3199.68
3167.05
3135.58
3105.48
3076.94
3050.08
3025
3001.77
2980.42
2960.95
2943.36
2927.61
2913.66
2901.48
2891.01
2882.19
2874.99
2869.34
2865.2
2862.52
2861.27
2861.41
2862.9
2865.74
2869.91
2875.43
2882.31
2890.57
2900.27
2911.42
2924.1
2938.35
2954.2
2971.73
2990.96
3011.91
3034.63
3059.07
3085.22
3112.99
3142.29
3172.95
3204.79
3237.55
3270.91
3304.54
3338.06
3371.07
3403.11
3433.74
3462.5
3488.98
3512.73
3533.4
3550.66
3564.24
3573.93
3579.62
3581.24
3578.79
3572.37
3562.12
3548.23
3530.93
3510.53
3487.33
3461.68
3433.94
3404.48
3373.68
3341.89
3309.46
3276.74
3244.02
3211.59
3179.73
3148.64
3118.52
3089.56
3061.91
3035.71
3011.06
2988.04
2966.73
2947.17
2929.4
2913.43
2899.27
2886.91
2876.36
2867.62
2860.64
2855.43
2851.95
2850.18
2850.19
2851.85
2855.14
2860.03
2866.48
2874.47
2883.99
2895.01
2907.5
2921.45
2936.84
2953.65
2971.86
2991.43
3012.37
3034.64
3058.2
3083.03
3109.05
3136.17
3164.16
3191.89
3221.2
3251.19
3281.5
3311.83
3341.93
3371.45
3400.07
3427.44
3453.17
3476.94
3498.4
3517.2
3533.04
3545.63
3554.74
3560.15
3561.66
3558.64
3551.61
3540.63
3525.82
3507.35
3485.47
3460.54
3432.89
3402.93
3371.1
3337.84
3303.68
3269.05
3234.43
3200.26
3167.08
3136.33
3105.45
3075.94
3048.05
3021.92
2997.66
2975.31
2954.89
2936.4
2919.8
2905.05
2892.1
2880.88
2871.29
2832.99
2849.15
2867.16
2887.02
2908.68
2932.15
2957.4
2984.35
3012.91
3042.96
3074.31
3106.64
3139.99
3174.02
3208.38
3242.64
3276.39
3309.26
3340.83
3370.63
3398.3
3423.39
3445.5
3464.3
3479.48
3490.79
3498.08
3501.21
3499.4
3493.43
3483.41
3469.46
3451.78
3430.64
3406.36
3379.29
3349.84
3318.43
3285.49
3251.47
3216.8
3181.88
3147.1
3112.97
3080.84
3048.92
3018.13
2988.76
2960.99
2934.95
2910.71
2888.32
2867.78
2849.09
2832.23
2817.16
2803.84
2792.23
2782.29
2773.98
2767.25
2762.08
2758.45
2756.31
2755.67
2756.53
2758.86
2762.66
2767.94
2774.72
2783.02
2792.85
2804.24
2817.2
2831.74
2847.86
2865.57
2884.83
2905.63
2927.94
2951.72
2976.91
3003.46
3031.27
3060.25
3090.29
3121.67
3153.34
3185.47
3217.84
3250.13
3282
3313.09
3343
3371.32
3397.66
3421.62
3442.81
3460.92
3475.62
3486.65
3493.81
3496.94
3495.9
3490.71
3481.39
3467.99
3450.7
3429.72
3405.35
3377.94
3347.92
3315.72
3281.85
3246.81
3211.1
3175.2
3139.56
3104.67
3070.77
3038.23
3007.29
2978.13
2950.89
2925.67
2902.52
2881.45
2862.46
2845.51
2830.52
2817.44
2806.15
2796.57
2788.58
2782.09
2776.99
2773.22
2770.69
2769.36
2769.2
2770.18
2772.3
2775.58
2780.05
2785.77
2792.8
2801.21
2811.08
2822.48
2835.48
2850.16
2866.59
2884.79
2904.8
2926.63
2950.26
2975.64
3002.69
3031.29
3061.3
3092.53
3124.77
3157.72
3191.09
3224.56
3257.77
3290.33
3321.84
3351.9
3380.09
3406.01
3429.28
3449.51
3466.4
3479.64
3489.02
3494.35
3495.55
3492.56
3485.45
3474.31
3459.3
3440.66
3418.68
3393.71
3366.1
3336.29
3304.68
3271.72
3237.83
3203.44
3168.95
3134.73
3101.12
3068.42
3036.9
3006.76
2978.19
2951.32
2926.24
2903.01
2881.67
2862.21
2844.63
2828.9
2814.98
2802.82
2792.37
2783.57
2776.39
2770.76
2766.63
2763.97
2762.73
2762.88
2764.38
2767.21
2771.38
2776.89
2783.76
2792.01
2801.69
2812.82
2825.47
2839.7
2855.54
2873.04
2892.25
2913.19
2935.9
2960.34
2986.49
3014.29
3043.62
3074.33
3106.23
3139.07
3172.53
3206.27
3239.93
3273.07
3305.26
3336.05
3364.97
3391.59
3415.48
3436.28
3453.64
3467.31
3477.06
3482.78
3484.4
3481.92
3475.44
3465.12
3451.13
3433.73
3413.2
3389.88
3364.1
3336.23
3306.64
3275.72
3243.81
3211.28
3178.46
3145.65
3113.16
3081.23
3050.08
3019.92
2990.93
2963.25
2937.02
2912.36
2889.33
2868.02
2848.46
2830.69
2814.72
2800.57
2788.23
2777.68
2768.95
2761.98
2756.78
2753.32
2751.56
2751.57
2753.25
2756.53
2761.43
2767.89
2775.88
2785.4
2796.42
2808.91
2822.86
2838.25
2855.06
2873.26
2892.84
2913.78
2936.05
2959.61
2984.45
3010.49
3037.64
3065.68
3093.4
3122.77
3152.84
3183.23
3213.65
3243.85
3273.48
3302.21
3329.7
3355.56
3379.46
3401.04
3419.96
3435.9
3448.59
3457.78
3463.24
3464.79
3461.78
3454.72
3443.68
3428.79
3410.22
3388.22
3363.15
3335.35
3305.24
3273.24
3239.84
3205.52
3170.76
3136.03
3101.77
3068.52
3037.63
3006.72
2977.18
2949.27
2923.14
2898.87
2876.54
2856.13
2837.66
2821.08
2806.35
2793.43
2782.23
2772.67
2734.22
2750.35
2768.35
2788.19
2809.84
2833.31
2858.56
2885.53
2914.11
2944.21
2975.61
3008
3041.43
3075.58
3110.06
3144.47
3178.36
3211.39
3243.12
3273.1
3300.93
3326.2
3348.46
3367.38
3382.67
3394.07
3401.4
3404.55
3402.73
3396.73
3386.63
3372.58
3354.78
3333.51
3309.08
3281.84
3252.23
3220.65
3187.54
3153.37
3118.54
3083.5
3048.62
3014.38
2982.14
2950.16
2919.32
2889.92
2862.13
2836.09
2811.85
2789.46
2768.94
2750.27
2733.43
2718.39
2705.09
2693.51
2683.59
2675.3
2668.59
2663.43
2659.8
2657.68
2657.05
2657.9
2660.23
2664.03
2669.3
2676.07
2684.36
2694.18
2705.55
2718.51
2733.04
2749.15
2766.84
2786.1
2806.9
2829.21
2853
2878.2
2904.76
2932.6
2961.62
2991.71
3023.1
3054.85
3087.09
3119.56
3151.97
3183.98
3215.21
3245.28
3273.76
3300.26
3324.37
3345.71
3363.94
3378.76
3389.88
3397.1
3400.27
3399.24
3394.04
3384.66
3371.19
3353.78
3332.67
3308.15
3280.57
3250.36
3217.98
3183.92
3148.69
3112.81
3076.76
3040.99
3005.99
2972
2939.39
2908.4
2879.21
2851.96
2826.74
2803.6
2782.55
2763.58
2746.66
2731.72
2718.67
2707.43
2697.89
2689.94
2683.48
2678.42
2674.67
2672.16
2670.85
2670.69
2671.67
2673.78
2677.05
2681.5
2687.19
2694.19
2702.58
2712.41
2723.78
2736.75
2751.4
2767.8
2785.98
2805.98
2827.8
2851.43
2876.82
2903.9
2932.53
2962.59
2993.89
3026.21
3059.25
3092.74
3126.33
3159.68
3192.39
3224.05
3254.28
3282.63
3308.71
3332.13
3352.5
3369.51
3382.86
3392.3
3397.68
3398.89
3395.89
3388.73
3377.5
3362.39
3343.63
3321.5
3296.37
3268.6
3238.62
3206.84
3173.72
3139.68
3105.16
3070.54
3036.21
3002.51
2969.73
2938.15
2907.97
2879.36
2852.47
2827.39
2804.16
2782.83
2763.39
2745.83
2730.12
2716.23
2704.09
2693.66
2684.89
2677.73
2672.12
2668.01
2665.36
2664.14
2664.29
2665.8
2668.63
2672.8
2678.3
2685.15
2693.39
2703.05
2714.16
2726.79
2740.99
2756.8
2774.28
2793.46
2814.39
2837.08
2861.53
2887.69
2915.5
2944.87
2975.63
3007.61
3040.54
3074.11
3107.99
3141.78
3175.08
3207.45
3238.41
3267.5
3294.29
3318.35
3339.28
3356.77
3370.52
3380.33
3386.09
3387.71
3385.2
3378.67
3368.26
3354.17
3336.64
3315.98
3292.51
3266.58
3238.57
3208.84
3177.77
3145.73
3113.08
3080.15
3047.25
3014.67
2982.68
2951.47
2921.26
2892.22
2864.51
2838.26
2813.58
2790.55
2769.23
2749.67
2731.91
2715.94
2701.8
2689.47
2678.93
2670.21
2663.26
2658.06
2654.61
2652.87
2652.89
2654.57
2657.87
2662.77
2669.23
2677.23
2686.75
2697.77
2710.26
2724.21
2739.6
2756.41
2774.61
2794.18
2815.12
2837.39
2860.96
2885.81
2911.87
2939.06
2967.16
2994.85
3024.3
3054.45
3084.94
3115.46
3145.77
3175.52
3204.38
3232.01
3258.01
3282.05
3303.77
3322.82
3338.88
3351.68
3360.95
3366.49
3368.09
3365.08
3357.98
3346.88
3331.9
3313.21
3291.07
3265.85
3237.88
3207.59
3175.42
3141.84
3107.36
3072.45
3037.59
3003.22
2969.89
2938.86
2907.91
2878.34
2850.41
2824.26
2800
2777.67
2757.29
2738.83
2722.28
2707.58
2694.69
2683.52
2673.98
2635.38
2651.48
2669.46
2689.28
2710.92
2734.38
2759.64
2786.62
2815.24
2845.37
2876.84
2909.29
2942.82
2977.09
3011.72
3046.28
3080.34
3113.54
3145.46
3175.63
3203.65
3229.1
3251.53
3270.6
3286.01
3297.49
3304.88
3308.04
3306.23
3300.18
3290
3275.85
3257.91
3236.49
3211.89
3184.46
3154.66
3122.9
3089.61
3055.25
3020.27
2985.08
2950.08
2915.73
2883.36
2851.32
2820.44
2791
2763.19
2737.13
2712.9
2690.52
2670.02
2651.37
2634.56
2619.54
2606.27
2594.72
2584.82
2576.55
2569.86
2564.72
2561.1
2558.99
2558.36
2559.21
2561.54
2565.34
2570.6
2577.36
2585.63
2595.44
2606.8
2619.74
2634.26
2650.36
2668.05
2687.3
2708.1
2730.41
2754.21
2779.42
2806
2833.87
2862.92
2893.07
2924.49
2956.33
2988.66
3021.25
3053.8
3085.96
3117.36
3147.6
3176.26
3202.93
3227.21
3248.71
3267.09
3282.03
3293.25
3300.55
3303.76
3302.75
3297.52
3288.09
3274.53
3257.01
3235.75
3211.05
3183.28
3152.86
3120.27
3086
3050.57
3014.5
2978.28
2942.36
2907.23
2873.15
2840.46
2809.42
2780.2
2752.93
2727.71
2704.58
2683.55
2664.62
2647.73
2632.83
2619.83