/*--------------------------------*- C++ -*----------------------------------*\
| =========                 |                                                 |
| \\      /  F ield         | OpenFOAM: The Open Source CFD Toolbox           |
|  \\    /   O peration     | Version:  3.0.1                                 |
|   \\  /    A nd           | Web:      www.OpenFOAM.org                      |
|    \\/     M anipulation  |                                                 |
\*---------------------------------------------------------------------------*/
FoamFile
{
    version     2.0;
    format      ascii;
    class       surfaceScalarField;
    location    "18.6";
    object      alphaPhi;
}
// * * * * * * * * * * * * * * * * * * * * * * * * * * * * * * * * * * * * * //

dimensions      [0 3 -1 0 0 0 0];

internalField   nonuniform List<scalar> 
42423
(
0.000207827
6.78212e-06
0.000199212
8.61534e-06
0.000188493
1.07191e-05
0.000175755
1.2738e-05
0.000161509
1.42456e-05
0.000145714
1.57952e-05
0.000128824
1.68901e-05
0.00011097
1.78535e-05
9.23851e-05
1.85852e-05
7.34817e-05
1.89034e-05
5.43378e-05
1.91439e-05
3.53615e-05
1.89763e-05
1.65751e-05
1.87864e-05
-1.60959e-06
1.81847e-05
-1.92017e-05
1.75921e-05
-3.60919e-05
1.68902e-05
-5.2124e-05
1.60321e-05
-6.72226e-05
1.50986e-05
-8.13833e-05
1.41606e-05
-9.45338e-05
1.31506e-05
-0.00010667
1.2136e-05
-0.00011782
1.11502e-05
-0.000127965
1.01451e-05
-0.00013715
9.1845e-06
-0.000145393
8.24353e-06
-0.000152704
7.31098e-06
-0.000159141
6.43645e-06
-0.000164724
5.58377e-06
-0.000169489
4.76489e-06
-0.000173468
3.97882e-06
-0.000176678
3.20953e-06
-0.000179139
2.46173e-06
-0.000180899
1.7598e-06
-0.000181967
1.06757e-06
-0.000182364
3.9763e-07
-0.000182043
-3.21484e-07
-0.00018093
-1.11301e-06
-0.000179134
-1.79567e-06
-0.000176667
-2.4674e-06
-0.000173311
-3.35603e-06
-0.000169303
-4.00761e-06
-0.000164393
-4.91049e-06
-0.000158627
-5.76515e-06
-0.000152143
-6.48483e-06
-0.000144624
-7.51874e-06
-0.0001362
-8.42358e-06
-0.000126963
-9.23752e-06
-0.00011662
-1.03424e-05
-0.000105286
-1.13346e-05
-9.31575e-05
-1.21284e-05
-7.98073e-05
-1.33502e-05
-6.57401e-05
-1.40672e-05
-5.06549e-05
-1.50852e-05
-3.45976e-05
-1.60573e-05
-1.79567e-05
-1.6641e-05
-6.58698e-07
-1.7298e-05
1.72748e-05
-1.79335e-05
3.53826e-05
-1.81078e-05
5.37564e-05
-1.83738e-05
7.21448e-05
-1.83884e-05
9.03188e-05
-1.8174e-05
0.000108151
-1.78318e-05
0.000125332
-1.71813e-05
0.000141568
-1.62364e-05
0.000156848
-1.52802e-05
0.000170747
-1.38981e-05
0.000183138
-1.23914e-05
0.000193836
-1.06978e-05
0.000202707
-8.87088e-06
0.000209531
-6.82424e-06
0.000214242
-4.71126e-06
0.000216642
-2.4003e-06
0.000216672
-3.01027e-08
0.000214466
2.20668e-06
0.000209783
4.68303e-06
0.000202905
6.87776e-06
0.000193896
9.00879e-06
0.000182817
1.10797e-05
0.000170013
1.28042e-05
0.000155493
1.45199e-05
0.000139537
1.59564e-05
0.000122497
1.70398e-05
0.000104438
1.80597e-05
8.57163e-05
1.87215e-05
6.66621e-05
1.90543e-05
4.73109e-05
1.93513e-05
2.79381e-05
1.93729e-05
8.85273e-06
1.90854e-05
-9.88222e-06
1.8735e-05
-2.8024e-05
1.81418e-05
-4.54432e-05
1.74192e-05
-6.19911e-05
1.65478e-05
-7.7632e-05
1.56409e-05
-9.22475e-05
1.46155e-05
-0.0001057
1.34523e-05
-0.000118021
1.23213e-05
-0.000129162
1.11414e-05
-0.000139199
1.0037e-05
-0.000148058
8.85807e-06
-0.000155815
7.75768e-06
-0.000162543
6.7279e-06
-0.000168269
5.72602e-06
-0.000173009
4.73956e-06
-0.000176897
3.88822e-06
-0.000179973
3.07623e-06
-0.000182257
2.28366e-06
-0.000183785
1.52834e-06
-0.00018462
8.3544e-07
-0.000184846
2.25437e-07
-0.000184345
-5.01083e-07
-0.000183185
-1.15995e-06
-0.000181398
-1.78691e-06
-0.000178983
-2.41527e-06
-0.000175883
-3.09956e-06
-0.000172143
-3.7396e-06
-0.000167736
-4.40745e-06
-0.000162633
-5.10244e-06
-0.000156837
-5.79594e-06
-0.000150337
-6.5005e-06
-0.000143195
-7.14214e-06
-0.000135276
-7.91872e-06
-0.00012661
-8.66643e-06
-0.000117178
-9.43154e-06
-0.000106973
-1.02055e-05
-9.59576e-05
-1.10151e-05
-8.41039e-05
-1.18537e-05
-7.15433e-05
-1.25606e-05
-5.80727e-05
-1.34706e-05
-4.38264e-05
-1.42463e-05
-2.88717e-05
-1.49548e-05
-1.31482e-05
-1.57236e-05
3.18236e-06
-1.63306e-05
2.00832e-05
-1.69009e-05
3.74207e-05
-1.73376e-05
5.49776e-05
-1.75569e-05
7.26449e-05
-1.76673e-05
9.01949e-05
-1.75501e-05
0.000107335
-1.71402e-05
0.000123888
-1.6553e-05
0.000139572
-1.5684e-05
0.000154031
-1.44595e-05
0.000167089
-1.30579e-05
0.000178453
-1.13639e-05
0.000187831
-9.3777e-06
0.000195088
-7.25713e-06
0.000200029
-4.94101e-06
0.000202494
-2.46557e-06
0.000202511
-1.6928e-08
0.000199995
2.51636e-06
0.000194967
5.02763e-06
0.000187543
7.42353e-06
0.000177906
9.63746e-06
0.000166264
1.1642e-05
0.000152762
1.35021e-05
0.000137734
1.50277e-05
0.000121415
1.63195e-05
0.000104158
1.72564e-05
8.62118e-05
1.79462e-05
6.78679e-05
1.83439e-05
4.94209e-05
1.8447e-05
3.10375e-05
1.83835e-05
1.29982e-05
1.80393e-05
-4.52662e-06
1.75248e-05
-2.14061e-05
1.68795e-05
-3.75541e-05
1.6148e-05
-5.28814e-05
1.53273e-05
-6.724e-05
1.43586e-05
-8.06777e-05
1.34376e-05
-9.31566e-05
1.2479e-05
-0.000104696
1.15393e-05
-0.000115226
1.05298e-05
-0.000124865
9.63932e-06
-0.000133652
8.7869e-06
-0.00014154
7.88837e-06
-0.000148643
7.10272e-06
-0.000154923
6.27995e-06
-0.000160488
5.56535e-06
-0.000165352
4.86359e-06
-0.000169519
4.16729e-06
-0.000173039
3.51961e-06
-0.000175982
2.94388e-06
-0.000178251
2.26863e-06
-0.000179923
1.67202e-06
-0.000180965
1.04191e-06
-0.000181405
4.39847e-07
-0.000181181
-2.23526e-07
-0.000180271
-9.09908e-07
-0.000178654
-1.61704e-06
-0.000176349
-2.30518e-06
-0.000173236
-3.11305e-06
-0.000169325
-3.91085e-06
-0.000164602
-4.72305e-06
-0.000158994
-5.60797e-06
-0.00015249
-6.50407e-06
-0.000145059
-7.43096e-06
-0.00013668
-8.37881e-06
-0.000127351
-9.3295e-06
-0.000117073
-1.02782e-05
-0.000105808
-1.12642e-05
-9.36237e-05
-1.21848e-05
-8.05131e-05
-1.31106e-05
-6.6494e-05
-1.40191e-05
-5.17096e-05
-1.47845e-05
-3.61561e-05
-1.55536e-05
-1.99119e-05
-1.62442e-05
-3.1151e-06
-1.67969e-05
1.41183e-05
-1.72334e-05
3.16578e-05
-1.75396e-05
4.93211e-05
-1.76633e-05
6.69248e-05
-1.76037e-05
8.42849e-05
-1.73602e-05
0.000101204
-1.69187e-05
0.000117464
-1.62607e-05
0.000132842
-1.53779e-05
0.000147163
-1.43209e-05
0.000160177
-1.30137e-05
0.000171685
-1.15083e-05
0.000181562
-9.87704e-06
0.000189587
-8.02478e-06
0.000195605
-6.01872e-06
0.000199567
-3.96161e-06
0.000201345
-1.77789e-06
0.000200915
4.30412e-07
0.000198198
2.71655e-06
0.000193233
4.96469e-06
0.000186097
7.13662e-06
0.000176893
9.20326e-06
0.000165747
1.11464e-05
0.000152806
1.29413e-05
0.000138303
1.45025e-05
0.000122437
1.58661e-05
0.000105458
1.69788e-05
8.76593e-05
1.77991e-05
6.92785e-05
1.83808e-05
5.05328e-05
1.87457e-05
3.17727e-05
1.87602e-05
1.32103e-05
1.85624e-05
-4.93887e-06
1.81491e-05
-2.24441e-05
1.75052e-05
-3.92154e-05
1.67713e-05
-5.50645e-05
1.58491e-05
-6.98794e-05
1.48149e-05
-8.36181e-05
1.37387e-05
-9.62307e-05
1.26126e-05
-0.000107727
1.1496e-05
-0.000118079
1.03526e-05
-0.000127373
9.2934e-06
-0.000135639
8.26623e-06
-0.000142875
7.23641e-06
-0.000149232
6.35638e-06
-0.000154749
5.51702e-06
-0.000159421
4.67222e-06
-0.000163417
3.99612e-06
-0.000166672
3.25519e-06
-0.000169332
2.65999e-06
-0.000171416
2.08408e-06
-0.000172895
1.47878e-06
-0.000173868
9.72606e-07
-0.000174355
4.87736e-07
-0.000174261
-9.40018e-08
-0.000173627
-6.34012e-07
-0.000172483
-1.14383e-06
-0.00017069
-1.79346e-06
-0.000168306
-2.38432e-06
-0.000165201
-3.10478e-06
-0.000161352
-3.84898e-06
-0.000156764
-4.5876e-06
-0.000151287
-5.47683e-06
-0.000144895
-6.39278e-06
-0.000137608
-7.28601e-06
-0.000129261
-8.34758e-06
-0.000119926
-9.33512e-06
-0.000109526
-1.03994e-05
-9.80282e-05
-1.14982e-05
-8.55537e-05
-1.24745e-05
-7.19946e-05
-1.35591e-05
-5.74637e-05
-1.45309e-05
-4.20746e-05
-1.53891e-05
-2.58836e-05
-1.6191e-05
-8.92626e-06
-1.69574e-05
8.59873e-06
-1.7525e-05
2.65551e-05
-1.79564e-05
4.4731e-05
-1.8176e-05
6.29686e-05
-1.82376e-05
8.10649e-05
-1.80963e-05
9.87491e-05
-1.76843e-05
0.000115795
-1.7046e-05
0.000132073
-1.62776e-05
0.000147159
-1.50866e-05
0.000160964
-1.38045e-05
0.000173392
-1.24288e-05
0.000184029
-1.06364e-05
0.000192793
-8.76382e-06
0.000199645
-6.85265e-06
0.000204325
-4.67994e-06
0.000206853
-2.52759e-06
0.000207167
-3.14382e-07
0.000205236
1.93125e-06
0.000201041
4.19494e-06
0.000194746
6.29461e-06
0.000186557
8.18933e-06
0.000176516
1.00414e-05
0.000164742
1.17731e-05
0.000151565
1.31777e-05
0.000137105
1.44598e-05
0.000121554
1.55512e-05
0.000105244
1.63101e-05
8.8302e-05
1.69416e-05
7.08977e-05
1.74043e-05
5.3363e-05
1.75347e-05
3.57788e-05
1.75841e-05
1.84482e-05
1.73307e-05
1.37524e-06
1.70729e-05
-1.52367e-05
1.6612e-05
-3.12302e-05
1.59934e-05
-4.65111e-05
1.52809e-05
-6.09899e-05
1.44788e-05
-7.46196e-05
1.36297e-05
-8.73374e-05
1.27178e-05
-9.91281e-05
1.17908e-05
-0.000109989
1.08604e-05
-0.000119901
9.91212e-06
-0.000128897
8.99658e-06
-0.000136982
8.08449e-06
-0.000144175
7.19316e-06
-0.000150506
6.33132e-06
-0.000155995
5.48888e-06
-0.000160657
4.662e-06
-0.0001645
3.84295e-06
-0.000167551
3.05073e-06
-0.000169798
2.24674e-06
-0.000171282
1.48421e-06
-0.000172015
7.33136e-07
-0.000171912
-1.03313e-07
-0.000170983
-9.29017e-07
-0.000169229
-1.75322e-06
-0.000166673
-2.55596e-06
-0.000163396
-3.27733e-06
-0.000159264
-4.13249e-06
-0.000154363
-4.90054e-06
-0.00014878
-5.58289e-06
-0.000142274
-6.50567e-06
-0.000135033
-7.24196e-06
-0.000126883
-8.14942e-06
-0.000117973
-8.91001e-06
-0.000108329
-9.64384e-06
-9.77678e-05
-1.05615e-05
-8.63741e-05
-1.13936e-05
-7.42725e-05
-1.21017e-05
-6.11999e-05
-1.30726e-05
-4.74192e-05
-1.37807e-05
-3.27175e-05
-1.47016e-05
-1.7353e-05
-1.53645e-05
-1.37912e-06
-1.59739e-05
1.49776e-05
-1.63567e-05
3.16454e-05
-1.66678e-05
-1.68804e-05
0.000207917
1.35656e-05
0.000199299
1.72332e-05
0.000188575
2.14431e-05
0.00017583
2.54831e-05
0.000161576
2.84991e-05
0.000145771
3.16001e-05
0.00012887
3.37912e-05
0.000111004
3.572e-05
9.24125e-05
3.71766e-05
7.3495e-05
3.78209e-05
5.43389e-05
3.83e-05
3.53564e-05
3.79587e-05
1.6562e-05
3.75808e-05
-1.63041e-06
3.63771e-05
-1.92298e-05
3.51915e-05
-3.61253e-05
3.37857e-05
-5.21623e-05
3.20691e-05
-6.72673e-05
3.02036e-05
-8.14294e-05
2.83227e-05
-9.45811e-05
2.63022e-05
-0.00010672
2.42748e-05
-0.000117872
2.23027e-05
-0.00012802
2.02929e-05
-0.000137204
1.83681e-05
-0.000145444
1.64841e-05
-0.000152761
1.46277e-05
-0.000159203
1.28786e-05
-0.000164786
1.11665e-05
-0.000169548
9.52687e-06
-0.000173524
7.95518e-06
-0.000176739
6.42436e-06
-0.000179208
4.93094e-06
-0.000180962
3.51372e-06
-0.00018202
2.12478e-06
-0.000182415
7.92954e-07
-0.000182094
-6.42456e-07
-0.000180983
-2.22356e-06
-0.000179188
-3.5907e-06
-0.00017672
-4.93629e-06
-0.000173371
-6.70443e-06
-0.000169362
-8.01647e-06
-0.000164459
-9.81359e-06
-0.00015869
-1.15342e-05
-0.000152206
-1.29687e-05
-0.000144692
-1.50334e-05
-0.000136265
-1.68503e-05
-0.000127046
-1.84563e-05
-0.000116683
-2.07056e-05
-0.000105348
-2.26695e-05
-9.3217e-05
-2.42595e-05
-7.98735e-05
-2.66938e-05
-6.57972e-05
-2.81436e-05
-5.07121e-05
-3.01702e-05
-3.46461e-05
-3.21234e-05
-1.80008e-05
-3.32864e-05
-6.96434e-07
-3.46024e-05
1.72496e-05
-3.58796e-05
3.53667e-05
-3.6225e-05
5.37462e-05
-3.67533e-05
7.21474e-05
-3.67897e-05
9.0336e-05
-3.63626e-05
0.000108183
-3.56785e-05
0.000125373
-3.43717e-05
0.000141618
-3.24813e-05
0.000156911
-3.05732e-05
0.000170819
-2.78062e-05
0.000183226
-2.47987e-05
0.000193927
-2.13987e-05
0.000202804
-1.77478e-05
0.000209644
-1.36643e-05
0.000214368
-9.43473e-06
0.000216763
-4.79528e-06
0.000216797
-6.47953e-08
0.000214582
4.42203e-06
0.000209901
9.36444e-06
0.000203021
1.37575e-05
0.000194003
1.80267e-05
0.000182913
2.21696e-05
0.000170098
2.56204e-05
0.000155572
2.9046e-05
0.000139593
3.19349e-05
0.000122534
3.40997e-05
0.000104467
3.61266e-05
8.57396e-05
3.74492e-05
6.66559e-05
3.81381e-05
4.72989e-05
3.87084e-05
2.79004e-05
3.87716e-05
8.80011e-06
3.81857e-05
-9.94068e-06
3.74758e-05
-2.80992e-05
3.63004e-05
-4.55255e-05
3.48456e-05
-6.20778e-05
3.31001e-05
-7.77099e-05
3.12731e-05
-9.23425e-05
2.92481e-05
-0.0001058
2.69102e-05
-0.000118128
2.46489e-05
-0.000129283
2.22969e-05
-0.00013931
2.00636e-05
-0.000148161
1.77096e-05
-0.000155908
1.55044e-05
-0.000162627
1.34469e-05
-0.000168364
1.14627e-05
-0.000173107
9.48274e-06
-0.000176996
7.77692e-06
-0.000180062
6.14261e-06
-0.000182341
4.5624e-06
-0.000183875
3.06249e-06
-0.000184714
1.67515e-06
-0.000184936
4.47334e-07
-0.000184425
-1.01262e-06
-0.000183258
-2.32643e-06
-0.000181462
-3.58288e-06
-0.000179065
-4.81242e-06
-0.00017596
-6.20412e-06
-0.000172222
-7.4776e-06
-0.00016782
-8.80963e-06
-0.000162711
-1.02117e-05
-0.000156911
-1.15954e-05
-0.000150412
-1.29995e-05
-0.000143268
-1.42869e-05
-0.000135346
-1.58403e-05
-0.000126677
-1.73353e-05
-0.000117257
-1.88518e-05
-0.000107046
-2.04168e-05
-9.6027e-05
-2.20338e-05
-8.41681e-05
-2.37126e-05
-7.1611e-05
-2.51179e-05
-5.81381e-05
-2.69436e-05
-4.38815e-05
-2.85029e-05
-2.89228e-05
-2.99135e-05
-1.31993e-05
-3.14472e-05
3.14155e-06
-3.26715e-05
2.00608e-05
-3.38203e-05
3.73981e-05
-3.46749e-05
5.49664e-05
-3.51253e-05
7.26437e-05
-3.53448e-05
9.02022e-05
-3.51087e-05
0.000107362
-3.43005e-05
0.000123927
-3.31178e-05
0.00013962
-3.13764e-05
0.000154103
-2.89434e-05
0.000167179
-2.61337e-05
0.000178543
-2.27279e-05
0.000187936
-1.87708e-05
0.000195206
-1.4527e-05
0.000200139
-9.87457e-06
0.000202616
-4.94255e-06
0.000202638
-3.85273e-08
0.000200104
5.05038e-06
0.000195066
1.00651e-05
0.000187641
1.48486e-05
0.000177999
1.92794e-05
0.000166334
2.33069e-05
0.000152822
2.70143e-05
0.000137784
3.00659e-05
0.000121462
3.26419e-05
0.000104184
3.45339e-05
8.62212e-05
3.59094e-05
6.78627e-05
3.67025e-05
4.9398e-05
3.69117e-05
3.10095e-05
3.6772e-05
1.29608e-05
3.60881e-05
-4.5761e-06
3.50617e-05
-2.14591e-05
3.37625e-05
-3.7604e-05
3.2293e-05
-5.29413e-05
3.06647e-05
-6.73104e-05
2.87278e-05
-8.07522e-05
2.68794e-05
-9.32347e-05
2.49615e-05
-0.000104766
2.30703e-05
-0.000115303
2.10675e-05
-0.000124955
1.92911e-05
-0.000133725
1.75572e-05
-0.000141604
1.57675e-05
-0.00014871
1.42088e-05
-0.000154997
1.25672e-05
-0.000160566
1.11343e-05
-0.000165423
9.72055e-06
-0.000169581
8.32455e-06
-0.000173116
7.05548e-06
-0.000176052
5.87908e-06
-0.000178325
4.54242e-06
-0.000179997
3.34378e-06
-0.000181036
2.08099e-06
-0.000181472
8.76125e-07
-0.000181255
-4.40497e-07
-0.000180346
-1.8192e-06
-0.000178732
-3.23081e-06
-0.000176427
-4.61074e-06
-0.000173316
-6.22338e-06
-0.000169384
-7.8436e-06
-0.00016468
-9.42628e-06
-0.000159075
-1.12135e-05
-0.000152564
-1.30146e-05
-0.000145134
-1.48615e-05
-0.000136761
-1.67517e-05
-0.000127427
-1.86637e-05
-0.000117148
-2.05568e-05
-0.000105882
-2.25303e-05
-9.36935e-05
-2.43734e-05
-8.05786e-05
-2.62255e-05
-6.65547e-05
-2.80429e-05
-5.17662e-05
-2.9573e-05
-3.62034e-05
-3.11164e-05
-1.99552e-05
-3.24925e-05
-3.15083e-06
-3.36012e-05
1.40969e-05
-3.44812e-05
3.16406e-05
-3.50833e-05
4.9312e-05
-3.53347e-05
6.69385e-05
-3.52303e-05
8.4305e-05
-3.47267e-05
0.000101233
-3.38465e-05
0.00011751
-3.25384e-05
0.000132895
-3.07625e-05
0.000147217
-2.86432e-05
0.000160254
-2.60506e-05
0.000171767
-2.30213e-05
0.000181649
-1.97591e-05
0.000189697
-1.60723e-05
0.00019572
-1.2042e-05
0.000199674
-7.91571e-06
0.000201455
-3.55918e-06
0.000201027
8.591e-07
0.000198301
5.44239e-06
0.000193333
9.93217e-06
0.000186194
1.42763e-05
0.000176992
1.84051e-05
0.000165831
2.23071e-05
0.000152878
2.58945e-05
0.000138367
2.90132e-05
0.000122488
3.17451e-05
0.000105492
3.39755e-05
8.76757e-05
3.56152e-05
6.92837e-05
3.67729e-05
5.05357e-05
3.74937e-05
3.17573e-05
3.75386e-05
1.31846e-05
3.71352e-05
-4.97342e-06
3.63072e-05
-2.24941e-05
3.50259e-05
-3.92682e-05
3.35455e-05
-5.5131e-05
3.17119e-05
-6.99407e-05
2.96246e-05
-8.36807e-05
2.74787e-05
-9.63029e-05
2.52349e-05
-0.000107803
2.29961e-05
-0.000118153
2.07024e-05
-0.000127446
1.85865e-05
-0.00013571
1.65309e-05
-0.000142947
1.44728e-05
-0.000149296
1.27058e-05
-0.000154809
1.10302e-05
-0.000159486
9.3486e-06
-0.000163482
7.99206e-06
-0.000166732
6.50552e-06
-0.000169386
5.31432e-06
-0.000171476
4.17389e-06
-0.000172957
2.95961e-06
-0.000173927
1.94296e-06
-0.000174408
9.68302e-07
-0.000174321
-1.80709e-07
-0.000173683
-1.27184e-06
-0.000172543
-2.28408e-06
-0.000170757
-3.57889e-06
-0.000168367
-4.77483e-06
-0.000165258
-6.21334e-06
-0.000161422
-7.68515e-06
-0.000156837
-9.1731e-06
-0.000151356
-1.09573e-05
-0.000144968
-1.27807e-05
-0.00013768
-1.45744e-05
-0.000129339
-1.66882e-05
-0.000119997
-1.86776e-05
-0.000109596
-2.08002e-05
-9.80955e-05
-2.29987e-05
-8.56154e-05
-2.49546e-05
-7.2057e-05
-2.71174e-05
-5.75113e-05
-2.90766e-05
-4.21273e-05
-3.07731e-05
-2.59312e-05
-3.23872e-05
-8.95514e-06
-3.39335e-05
8.57923e-06
-3.50594e-05
2.6541e-05
-3.59182e-05
4.47285e-05
-3.63634e-05
6.29801e-05
-3.64893e-05
8.10863e-05
-3.62025e-05
9.87844e-05
-3.53825e-05
0.000115847
-3.41085e-05
0.000132129
-3.25596e-05
0.000147224
-3.01816e-05
0.000161039
-2.76197e-05
0.000173482
-2.48719e-05
0.000184135
-2.12894e-05
0.000192901
-1.75299e-05
0.000199764
-1.37157e-05
0.000204445
-9.36103e-06
0.000206976
-5.0588e-06
0.00020729
-6.28638e-07
0.000205356
3.86531e-06
0.000201159
8.39255e-06
0.000194861
1.25924e-05
0.000186666
1.6384e-05
0.000176615
2.00925e-05
0.000164833
2.35556e-05
0.000151643
2.63669e-05
0.000137174
2.89291e-05
0.00012161
3.11156e-05
0.00010529
3.26296e-05
8.83395e-05
3.38924e-05
7.09216e-05
3.48222e-05
5.33786e-05
3.50777e-05
3.57825e-05
3.51802e-05
1.84457e-05
3.46674e-05
1.36359e-06
3.4155e-05
-1.52555e-05
3.32311e-05
-3.12544e-05
3.19923e-05
-4.65416e-05
3.05681e-05
-6.10253e-05
2.89625e-05
-7.46613e-05
2.72657e-05
-8.73856e-05
2.54421e-05
-9.9177e-05
2.35821e-05
-0.000110038
2.17218e-05
-0.000119957
1.98305e-05
-0.000128953
1.79925e-05
-0.000137035
1.61668e-05
-0.000144231
1.43891e-05
-0.000150562
1.26623e-05
-0.000156048
1.09755e-05
-0.000160712
9.32512e-06
-0.000164557
7.68866e-06
-0.000167612
6.1059e-06
-0.000169862
4.49599e-06
-0.000171343
2.96512e-06
-0.000172069
1.45986e-06
-0.000171966
-2.06876e-07
-0.000171038
-1.85699e-06
-0.000169285
-3.50617e-06
-0.000166734
-5.10712e-06
-0.000163454
-6.55715e-06
-0.000159319
-8.26765e-06
-0.000154415
-9.80401e-06
-0.000148828
-1.11701e-05
-0.000142322
-1.30112e-05
-0.000135085
-1.4479e-05
-0.000126929
-1.63058e-05
-0.000118018
-1.78208e-05
-0.000108377
-1.9285e-05
-9.78075e-05
-2.1131e-05
-8.64141e-05
-2.2787e-05
-7.43068e-05
-2.42089e-05
-6.12335e-05
-2.61459e-05
-4.7448e-05
-2.75662e-05
-3.27445e-05
-2.94052e-05
-1.73782e-05
-3.07308e-05
-1.40562e-06
-3.19465e-05
1.49601e-05
-3.27224e-05
3.16359e-05
-3.33436e-05
-3.37696e-05
0.000208089
2.03588e-05
0.00019946
2.5863e-05
0.000188721
3.21818e-05
0.000175959
3.82451e-05
0.000161687
4.2771e-05
0.000145863
4.74244e-05
0.00012894
5.07143e-05
0.000111049
5.36102e-05
9.24501e-05
5.5776e-05
7.35059e-05
5.67651e-05
5.43296e-05
5.74763e-05
3.53379e-05
5.69505e-05
1.65354e-05
5.63833e-05
-1.68029e-06
5.45928e-05
-1.9293e-05
5.28042e-05
-3.61989e-05
5.06916e-05
-5.22442e-05
4.81145e-05
-6.7353e-05
4.53124e-05
-8.15202e-05
4.24899e-05
-9.46765e-05
3.94586e-05
-0.000106814
3.64123e-05
-0.000117969
3.34574e-05
-0.000128116
3.044e-05
-0.000137299
2.75511e-05
-0.000145543
2.4728e-05
-0.000152856
2.1941e-05
-0.000159296
1.93192e-05
-0.000164885
1.67551e-05
-0.000169644
1.42855e-05
-0.000173618
1.19295e-05
-0.000176836
9.6427e-06
-0.000179303
7.39794e-06
-0.000181062
5.27223e-06
-0.000182108
3.17056e-06
-0.000182478
1.16367e-06
-0.00018215
-9.70486e-07
-0.00018104
-3.33358e-06
-0.000179245
-5.3861e-06
-0.000176778
-7.40338e-06
-0.000173437
-1.00454e-05
-0.000169424
-1.20298e-05
-0.000164536
-1.47016e-05
-0.000158758
-1.73118e-05
-0.000152275
-1.94512e-05
-0.000144769
-2.25401e-05
-0.00013634
-2.52794e-05
-0.000127124
-2.76717e-05
-0.000116758
-3.10716e-05
-0.000105425
-3.40032e-05
-9.32917e-05
-3.63926e-05
-7.99548e-05
-4.00307e-05
-6.58701e-05
-4.22283e-05
-5.07828e-05
-4.52576e-05
-3.47062e-05
-4.82e-05
-1.80563e-05
-4.99363e-05
-7.44157e-07
-5.19145e-05
1.72065e-05
-5.38303e-05
3.53349e-05
-5.43534e-05
5.37341e-05
-5.51526e-05
7.21399e-05
-5.51956e-05
9.03487e-05
-5.45715e-05
0.000108217
-5.35465e-05
0.000125413
-5.15684e-05
0.00014168
-4.87484e-05
0.000156998
-4.58911e-05
0.000170915
-4.17231e-05
0.000183343
-3.72261e-05
0.000194061
-3.21172e-05
0.000202943
-2.66302e-05
0.000209793
-2.05142e-05
0.000214533
-1.41742e-05
0.000216934
-7.19607e-06
0.000216976
-1.06677e-07
0.000214742
6.65543e-06
0.000210069
1.40381e-05
0.000203188
2.0638e-05
0.000194153
2.70617e-05
0.000183049
3.3274e-05
0.00017022
3.84502e-05
0.00015568
4.35853e-05
0.000139677
4.79385e-05
0.000122587
5.11904e-05
0.000104496
5.42175e-05
8.57732e-05
5.61721e-05
6.66496e-05
5.72619e-05
4.72798e-05
5.80784e-05
2.78494e-05
5.82021e-05
8.72688e-06
5.73083e-05
-1.00317e-05
5.62344e-05
-2.82065e-05
5.44753e-05
-4.5646e-05
5.22851e-05
-6.22091e-05
4.96632e-05
-7.78408e-05
4.69047e-05
-9.24798e-05
4.38872e-05
-0.000105937
4.03671e-05
-0.000118264
3.69762e-05
-0.000129427
3.34604e-05
-0.000139447
3.00835e-05
-0.00014831
2.65722e-05
-0.000156049
2.32433e-05
-0.000162726
2.01243e-05
-0.00016848
1.72166e-05
-0.000173221
1.42239e-05
-0.000177112
1.16678e-05
-0.00018018
9.21034e-06
-0.00018245
6.83249e-06
-0.000183977
4.59e-06
-0.00018482
2.51816e-06
-0.000185036
6.62948e-07
-0.000184531
-1.51702e-06
-0.000183363
-3.49432e-06
-0.000181549
-5.39682e-06
-0.00017916
-7.20141e-06
-0.00017606
-9.30432e-06
-0.000172312
-1.12256e-05
-0.000167918
-1.32032e-05
-0.00016281
-1.53197e-05
-0.000157006
-1.73994e-05
-0.000150536
-1.94701e-05
-0.000143373
-2.14499e-05
-0.000135452
-2.37608e-05
-0.000126763
-2.60248e-05
-0.000117361
-2.82533e-05
-0.00010715
-3.06278e-05
-9.61365e-05
-3.30473e-05
-8.43204e-05
-3.55287e-05
-7.17116e-05
-3.77267e-05
-5.82418e-05
-4.04134e-05
-4.39853e-05
-4.27595e-05
-2.90066e-05
-4.48922e-05
-1.32842e-05
-4.71697e-05
3.06268e-06
-4.90184e-05
1.99916e-05
-5.07493e-05
3.73385e-05
-5.20219e-05
5.49346e-05
-5.27215e-05
7.26345e-05
-5.30447e-05
9.02048e-05
-5.2679e-05
0.000107393
-5.14892e-05
0.000123978
-4.97026e-05
0.000139678
-4.70761e-05
0.000154188
-4.34537e-05
0.000167289
-3.92342e-05
0.000178675
-3.41147e-05
0.000188085
-2.81803e-05
0.000195366
-2.18079e-05
0.000200309
-1.48183e-05
0.000202798
-7.43103e-06
0.0002028
-4.05978e-08
0.00020026
7.59061e-06
0.000195223
1.51018e-05
0.000187794
2.22777e-05
0.000178128
2.89448e-05
0.000166426
3.50089e-05
0.000152914
4.05269e-05
0.000137848
4.51314e-05
0.000121501
4.89889e-05
0.000104203
5.18322e-05
8.62153e-05
5.38971e-05
6.78392e-05
5.50785e-05
4.93518e-05
5.53991e-05
3.09499e-05
5.51739e-05
1.28895e-05
5.41486e-05
-4.65759e-06
5.26088e-05
-2.15557e-05
5.06606e-05
-3.77004e-05
4.84378e-05
-5.30391e-05
4.60034e-05
-6.74114e-05
4.31002e-05
-8.08602e-05
4.03282e-05
-9.33537e-05
3.74551e-05
-0.000104879
3.45951e-05
-0.000115418
3.16067e-05
-0.000125074
2.89473e-05
-0.00013383
2.6313e-05
-0.000141704
2.36415e-05
-0.000148795
2.13005e-05
-0.000155086
1.88576e-05
-0.000160658
1.67063e-05
-0.000165514
1.4577e-05
-0.000169672
1.24822e-05
-0.000173215
1.05991e-05
-0.000176129
8.79255e-06
-0.000178411
6.82439e-06
-0.000180085
5.01842e-06
-0.000181132
3.12796e-06
-0.000181553
1.29651e-06
-0.00018133
-6.62985e-07
-0.000180434
-2.71494e-06
-0.00017883
-4.83547e-06
-0.000176507
-6.93304e-06
-0.000173407
-9.32374e-06
-0.000169475
-1.17753e-05
-0.00016477
-1.41318e-05
-0.000159177
-1.68063e-05
-0.000152672
-1.95192e-05
-0.00014523
-2.23041e-05
-0.000136866
-2.51158e-05
-0.000127534
-2.79947e-05
-0.000117246
-3.08449e-05
-0.000105986
-3.37903e-05
-9.37994e-05
-3.65604e-05
-8.06765e-05
-3.93484e-05
-6.6643e-05
-4.20764e-05
-5.18477e-05
-4.43684e-05
-3.62755e-05
-4.66886e-05
-2.00206e-05
-4.87474e-05
-3.21056e-06
-5.04113e-05
1.40553e-05
-5.17471e-05
3.16212e-05
-5.26492e-05
4.93021e-05
-5.30156e-05
6.6938e-05
-5.28662e-05
8.43286e-05
-5.21174e-05
0.000101274
-5.0792e-05
0.000117562
-4.88263e-05
0.000132967
-4.61674e-05
0.000147306
-4.29829e-05
0.000160363
-3.91069e-05
0.000171892
-3.4551e-05
0.000181781
-2.9648e-05
0.000189836
-2.41272e-05
0.000195871
-1.80771e-05
0.000199836
-1.18806e-05
0.000201628
-5.35049e-06
0.000201194
1.29306e-06
0.000198453
8.18344e-06
0.000193488
1.48964e-05
0.000186336
2.1429e-05
0.00017712
2.76203e-05
0.000165949
3.34788e-05
0.000152982
3.88611e-05
0.000138447
4.3548e-05
0.000122554
4.7639e-05
0.000105537
5.09916e-05
8.77001e-05
5.34525e-05
6.92773e-05
5.51957e-05
5.05135e-05
5.62576e-05
3.17191e-05
5.6333e-05
1.3127e-05
5.57273e-05
-5.04479e-06
5.4479e-05
-2.25774e-05
5.25585e-05
-3.93611e-05
5.03293e-05
-5.52427e-05
4.75935e-05
-7.00568e-05
4.44388e-05
-8.37917e-05
4.12136e-05
-9.6413e-05
3.78562e-05
-0.000107914
3.4497e-05
-0.00011826
3.10488e-05
-0.000127551
2.78777e-05
-0.000135809
2.47884e-05
-0.000143044
2.1708e-05
-0.000149383
1.90446e-05
-0.000154894
1.6541e-05
-0.00015957
1.40244e-05
-0.000163558
1.19804e-05
-0.000166809
9.75637e-06
-0.000169452
7.95761e-06
-0.000171539
6.26078e-06
-0.00017302
4.44116e-06
-0.000174004
2.92637e-06
-0.000174472
1.43694e-06
-0.000174383
-2.70314e-07
-0.00017375
-1.90409e-06
-0.000172606
-3.42807e-06
-0.00017082
-5.3649e-06
-0.00016844
-7.15535e-06
-0.000165337
-9.31577e-06
-0.0001615
-1.15223e-05
-0.000156923
-1.37501e-05
-0.000151449
-1.64312e-05
-0.000145069
-1.91611e-05
-0.000137781
-2.18626e-05
-0.000129443
-2.50261e-05
-0.000120086
-2.80342e-05
-0.000109699
-3.11872e-05
-9.81904e-05
-3.45071e-05
-8.5701e-05
-3.74441e-05
-7.21571e-05
-4.06613e-05
-5.7588e-05
-4.36457e-05
-4.21994e-05
-4.61618e-05
-2.6e-05
-4.85866e-05
-9.00763e-06
-5.09259e-05
8.53901e-06
-5.26061e-05
2.65058e-05
-5.3885e-05
4.47065e-05
-5.45643e-05
6.29846e-05
-5.47674e-05
8.10971e-05
-5.4315e-05
9.88155e-05
-5.31009e-05
0.0001159
-5.11928e-05
0.000132194
-4.88538e-05
0.00014731
-4.52974e-05
0.000161147
-4.14572e-05
0.000173601
-3.73258e-05
0.000184261
-3.19494e-05
0.000193041
-2.63101e-05
0.000199918
-2.05931e-05
0.000204603
-1.40456e-05
0.000207146
-7.60156e-06
0.000207456
-9.38783e-07
0.000205517
5.80373e-06
0.00020132
1.25893e-05
0.000195022
1.88908e-05
0.000186813
2.45935e-05
0.000176744
3.01607e-05
0.000164958
3.53423e-05
0.000151741
3.95839e-05
0.000137258
4.34112e-05
0.000121674
4.67001e-05
0.000105338
4.8965e-05
8.83748e-05
5.0856e-05
7.09359e-05
5.22611e-05
5.33808e-05
5.26328e-05
3.5767e-05
5.2794e-05
1.8422e-05
5.20124e-05
1.32345e-06
5.12536e-05
-1.53075e-05
4.98621e-05
-3.13171e-05
4.80018e-05
-4.66116e-05
4.58625e-05
-6.1102e-05
4.34529e-05
-7.47441e-05
4.09078e-05
-8.74693e-05
3.81673e-05
-9.92633e-05
3.53761e-05
-0.000110129
3.25871e-05
-0.000120044
2.97461e-05
-0.00012904
2.69886e-05
-0.000137123
2.42491e-05
-0.000144321
2.15874e-05
-0.000150654
1.89958e-05
-0.000156136
1.64575e-05
-0.0001608
1.39884e-05
-0.000164645
1.15343e-05
-0.000167699
9.15957e-06
-0.000169947
6.74379e-06
-0.000171431
4.44968e-06
-0.000172153
2.18175e-06
-0.000172036
-3.24313e-07
-0.000171099
-2.79415e-06
-0.000169346
-5.25859e-06
-0.000166804
-7.64981e-06
-0.00016351
-9.85102e-06
-0.000159372
-1.2405e-05
-0.000154466
-1.47099e-05
-0.000148875
-1.67619e-05
-0.000142365
-1.95213e-05
-0.000135131
-2.17131e-05
-0.000126984
-2.44523e-05
-0.000118073
-2.67321e-05
-0.000108435
-2.89229e-05
-9.78683e-05
-3.16976e-05
-8.64779e-05
-3.41775e-05
-7.43636e-05
-3.63232e-05
-6.1291e-05
-3.92185e-05
-4.74996e-05
-4.13576e-05
-3.27947e-05
-4.41101e-05
-1.74269e-05
-4.60985e-05
-1.4586e-06
-4.79148e-05
1.49278e-05
-4.91088e-05
3.16188e-05
-5.00346e-05
-5.06743e-05
0.000208349
2.71665e-05
0.000199701
3.45108e-05
0.00018894
4.29424e-05
0.000176153
5.10325e-05
0.000161853
5.70705e-05
0.000146
6.32775e-05
0.000129044
6.76708e-05
0.000111118
7.15356e-05
9.2508e-05
7.43863e-05
7.35223e-05
7.57507e-05
5.4316e-05
7.66826e-05
3.53097e-05
7.59568e-05
1.64996e-05
7.51934e-05
-1.7555e-06
7.28479e-05
-1.93898e-05
7.04385e-05
-3.63116e-05
6.76133e-05
-5.23672e-05
6.41701e-05
-6.74847e-05
6.04299e-05
-8.16597e-05
5.6665e-05
-9.48197e-05
5.26186e-05
-0.000106959
4.85519e-05
-0.000118118
4.46161e-05
-0.000128265
4.05874e-05
-0.000137447
3.67325e-05
-0.000145691
3.29717e-05
-0.000153002
2.92527e-05
-0.000159443
2.57603e-05
-0.000165034
2.23458e-05
-0.000169789
1.90404e-05
-0.000173768
1.5908e-05
-0.000176989
1.28645e-05
-0.000179453
9.86194e-06
-0.000181214
7.03296e-06
-0.000182246
4.20283e-06
-0.000182583
1.50024e-06
-0.000182235
-1.31838e-06
-0.000181126
-4.44272e-06
-0.00017933
-7.18197e-06
-0.000176866
-9.86713e-06
-0.000173539
-1.33725e-05
-0.000169516
-1.6053e-05
-0.00016463
-1.95877e-05
-0.000158861
-2.30812e-05
-0.00015238
-2.59316e-05
-0.000144886
-3.00345e-05
-0.000136452
-3.37128e-05
-0.000127243
-3.68808e-05
-0.000116873
-4.14421e-05
-0.00010554
-4.53356e-05
-9.34053e-05
-4.85278e-05
-8.00799e-05
-5.33561e-05
-6.59803e-05
-5.6328e-05
-5.08899e-05
-6.0348e-05
-3.47969e-05
-6.4293e-05
-1.81411e-05
-6.65921e-05
-8.22949e-07
-6.92327e-05
1.71386e-05
-7.17918e-05
3.52776e-05
-7.24925e-05
5.37035e-05
-7.35785e-05
7.21245e-05
-7.36165e-05
9.03579e-05
-7.2805e-05
0.000108263
-7.14511e-05
0.000125478
-6.87835e-05
0.00014177
-6.50406e-05
0.000157118
-6.12391e-05
0.000171049
-5.56548e-05
0.000183502
-4.96785e-05
0.000194248
-4.28634e-05
0.000203139
-3.55218e-05
0.000210017
-2.73914e-05
0.000214777
-1.89343e-05
0.000217175
-9.59437e-06
0.000217241
-1.73046e-07
0.000214985
8.91242e-06
0.00021032
1.87023e-05
0.000203435
2.7523e-05
0.000194378
3.61191e-05
0.000183248
4.44043e-05
0.000170393
5.13059e-05
0.000155834
5.81447e-05
0.000139788
6.39846e-05
0.000122663
6.83151e-05
0.000104544
7.23371e-05
8.58508e-05
7.48651e-05
6.66256e-05
7.64872e-05
4.72381e-05
7.7466e-05
2.77645e-05
7.76757e-05
8.61491e-06
7.6458e-05
-1.01649e-05
7.50143e-05
-2.83618e-05
7.26722e-05
-4.58186e-05
6.97418e-05
-6.24005e-05
6.62452e-05
-7.80338e-05
6.2538e-05
-9.26801e-05
5.85335e-05
-0.000106146
5.38327e-05
-0.000118477
4.93073e-05
-0.00012965
4.46333e-05
-0.000139651
4.00843e-05
-0.000148506
3.54276e-05
-0.000156244
3.09811e-05
-0.000162922
2.68026e-05
-0.000168663
2.29571e-05