/*--------------------------------*- C++ -*----------------------------------*\
| =========                 |                                                 |
| \\      /  F ield         | OpenFOAM: The Open Source CFD Toolbox           |
|  \\    /   O peration     | Version:  3.0.1                                 |
|   \\  /    A nd           | Web:      www.OpenFOAM.org                      |
|    \\/     M anipulation  |                                                 |
\*---------------------------------------------------------------------------*/
FoamFile
{
    version     2.0;
    format      ascii;
    class       surfaceScalarField;
    location    "84.2";
    object      phi;
}
// * * * * * * * * * * * * * * * * * * * * * * * * * * * * * * * * * * * * * //

dimensions      [0 3 -1 0 0 0 0];

internalField   nonuniform List<scalar> 
42423
(
0.000283427
1.53803e-05
0.000268144
1.52826e-05
0.000252933
1.52106e-05
0.000237851
1.50824e-05
0.000223225
1.46264e-05
0.000209008
1.42164e-05
0.000195407
1.36012e-05
0.000182397
1.30098e-05
0.000169996
1.24011e-05
0.000158334
1.16619e-05
0.000147382
1.0952e-05
0.000137137
1.02456e-05
0.000127645
9.49212e-06
0.00011887
8.77446e-06
0.000110816
8.0538e-06
0.00010345
7.36626e-06
9.67444e-05
6.70563e-06
9.06693e-05
6.07517e-06
8.51879e-05
5.48135e-06
8.02688e-05
4.91915e-06
7.58748e-05
4.39399e-06
7.19598e-05
3.91499e-06
6.84956e-05
3.46415e-06
6.54496e-05
3.046e-06
6.2784e-05
2.66567e-06
6.0484e-05
2.30001e-06
5.85178e-05
1.96619e-06
5.68587e-05
1.65908e-06
5.55105e-05
1.3482e-06
5.44568e-05
1.05372e-06
5.36985e-05
7.58313e-07
5.32476e-05
4.50873e-07
5.31025e-05
1.45089e-07
5.33285e-05
-2.26049e-07
5.39485e-05
-6.19978e-07
5.49182e-05
-9.69726e-07
5.63608e-05
-1.4426e-06
5.83197e-05
-1.95892e-06
6.07147e-05
-2.395e-06
6.37176e-05
-3.00288e-06
6.72868e-05
-3.56917e-06
7.15602e-05
-4.27347e-06
7.65973e-05
-5.03711e-06
8.22893e-05
-5.692e-06
8.87917e-05
-6.50238e-06
9.62826e-05
-7.49102e-06
0.000104567
-8.28437e-06
0.0001138
-9.23283e-06
0.000124178
-1.03786e-05
0.000135418
-1.12399e-05
0.000147736
-1.23184e-05
0.000161016
-1.32797e-05
0.000175263
-1.42468e-05
0.000190557
-1.52946e-05
0.000206545
-1.59875e-05
0.000223151
-1.66063e-05
0.000240403
-1.72516e-05
0.000257906
-1.75032e-05
0.000275555
-1.76494e-05
0.000293124
-1.75689e-05
0.000310329
-1.72049e-05
0.000327108
-1.67794e-05
0.000343141
-1.60329e-05
0.000358271
-1.51302e-05
0.00037243
-1.41595e-05
0.000385457
-1.30266e-05
0.000397291
-1.18339e-05
0.000407723
-1.04326e-05
0.000416539
-8.81599e-06
0.000423564
-7.02499e-06
0.000428315
-4.75041e-06
0.000430402
-2.08785e-06
0.000429968
4.34489e-07
0.000426222
3.74581e-06
0.000418716
7.50604e-06
0.000407669
1.10468e-05
0.000393563
1.41055e-05
0.000376837
1.67266e-05
0.00035829
1.85468e-05
0.000338654
1.96358e-05
0.000318555
2.00988e-05
0.000298496
2.00595e-05
0.000278971
1.9524e-05
0.00026012
1.88515e-05
0.000241918
1.82017e-05
0.000224508
1.741e-05
0.000207777
1.6731e-05
0.000191661
1.61166e-05
0.000176101
1.55591e-05
0.000161078
1.50238e-05
0.00014665
1.44277e-05
0.000132821
1.3829e-05
0.000119642
1.31786e-05
0.000107096
1.25464e-05
9.51482e-05
1.19477e-05
8.3765e-05
1.13832e-05
7.28964e-05
1.08686e-05
6.25526e-05
1.03438e-05
5.26694e-05
9.8832e-06
4.32821e-05
9.38733e-06
3.44326e-05
8.84947e-06
2.61606e-05
8.27197e-06
1.84941e-05
7.66657e-06
1.14454e-05
7.0487e-06
5.05509e-06
6.39026e-06
-6.45492e-07
5.70058e-06
-5.66057e-06
5.01507e-06
-9.98859e-06
4.32802e-06
-1.35881e-05
3.59946e-06
-1.65321e-05
2.94409e-06
-1.87609e-05
2.22871e-06
-2.03105e-05
1.54965e-06
-2.11927e-05
8.82218e-07
-2.141e-05
2.1729e-07
-2.09805e-05
-4.29532e-07
-1.99243e-05
-1.05621e-06
-1.82196e-05
-1.7047e-06
-1.5877e-05
-2.34257e-06
-1.28829e-05
-2.99409e-06
-9.26441e-06
-3.61854e-06
-4.96322e-06
-4.3012e-06
1.57202e-08
-4.97894e-06
5.65748e-06
-5.64176e-06
1.2006e-05
-6.34849e-06
1.90244e-05
-7.01845e-06
2.67432e-05
-7.71879e-06
3.51644e-05
-8.42123e-06
4.42615e-05
-9.09712e-06
5.40683e-05
-9.80682e-06
6.45856e-05
-1.05173e-05
7.57889e-05
-1.12033e-05
8.76746e-05
-1.18857e-05
0.00010025
-1.25755e-05
0.000113456
-1.32057e-05
0.000127332
-1.38758e-05
0.000141812
-1.44802e-05
0.000156842
-1.50303e-05
0.000172402
-1.55599e-05
0.000188406
-1.6004e-05
0.000204745
-1.63394e-05
0.000221327
-1.6582e-05
0.000238012
-1.66851e-05
0.000254634
-1.66226e-05
0.000271006
-1.6372e-05
0.000286978
-1.59721e-05
0.000302316
-1.53378e-05
0.000316876
-1.45603e-05
0.000330492
-1.36156e-05
0.000342912
-1.24207e-05
0.000354013
-1.11007e-05
0.000363601
-9.58842e-06
0.000371498
-7.89704e-06
0.000377529
-6.03075e-06
0.000381576
-4.04673e-06
0.000383497
-1.92112e-06
0.000383204
2.92673e-07
0.000380586
2.61843e-06
0.000375535
5.05083e-06
0.000368156
7.37842e-06
0.00035859
9.5664e-06
0.000346948
1.16414e-05
0.000333425
1.35236e-05
0.000318232
1.51927e-05
0.000301676
1.65558e-05
0.000284046
1.76294e-05
0.000265666
1.83801e-05
0.000246875
1.87917e-05
0.000227981
1.88936e-05
0.00020925
1.87314e-05
0.000190956
1.82936e-05
0.000173268
1.76878e-05
0.000156364
1.69038e-05
0.000140321
1.60428e-05
0.000125201
1.51203e-05
0.000111011
1.41898e-05
9.77958e-05
1.32157e-05
8.55666e-05
1.22291e-05
7.43748e-05
1.11918e-05
6.42398e-05
1.0135e-05
5.52094e-05
9.03041e-06
4.73088e-05
7.90061e-06
4.05483e-05
6.76049e-06
3.49582e-05
5.59002e-06
3.04938e-05
4.46446e-06
2.71525e-05
3.34132e-06
2.48542e-05
2.2983e-06
2.35691e-05
1.2851e-06
2.31513e-05
4.17705e-07
2.35574e-05
-4.06037e-07
2.46856e-05
-1.1282e-06
2.6405e-05
-1.71941e-06
2.86946e-05
-2.28965e-06
3.14027e-05
-2.70806e-06
3.45233e-05
-3.12059e-06
3.798e-05
-3.4567e-06
4.17206e-05
-3.74061e-06
4.57612e-05
-4.04062e-06
5.00827e-05
-4.3214e-06
5.46557e-05
-4.57308e-06
5.95266e-05
-4.87082e-06
6.46166e-05
-5.09005e-06
6.99565e-05
-5.33982e-06
7.55372e-05
-5.58077e-06
8.13553e-05
-5.81809e-06
8.74212e-05
-6.06582e-06
9.36998e-05
-6.27866e-06
0.000100236
-6.53569e-06
0.000107063
-6.82704e-06
0.000114181
-7.11873e-06
0.000121718
-7.53665e-06
0.000129728
-8.00984e-06
0.000138271
-8.5431e-06
0.000147367
-9.0957e-06
0.000157106
-9.73915e-06
0.000167518
-1.04124e-05
0.000178645
-1.11271e-05
0.00019046
-1.18146e-05
0.000202957
-1.24977e-05
0.000216137
-1.31799e-05
0.000229937
-1.37997e-05
0.0002443
-1.43632e-05
0.000259124
-1.4824e-05
0.000274293
-1.51684e-05
0.000289783
-1.54908e-05
0.000305363
-1.55793e-05
0.000320928
-1.5566e-05
0.000336281
-1.53529e-05
0.000351153
-1.48716e-05
0.000365387
-1.42345e-05
0.000378642
-1.32552e-05
0.000390692
-1.20493e-05
0.000401261
-1.05694e-05
0.000410087
-8.82573e-06
0.000416974
-6.88748e-06
0.000421702
-4.7279e-06
0.000424108
-2.40632e-06
0.000424105
3.19003e-09
0.000421596
2.50832e-06
0.000416537
5.05908e-06
0.000409148
7.38946e-06
0.00039959
9.55773e-06
0.000388127
1.14627e-05
0.000375012
1.31152e-05
0.000360528
1.44841e-05
0.000345037
1.54904e-05
0.00032886
1.61775e-05
0.000312285
1.65743e-05
0.000295599
1.66869e-05
0.000279031
1.65671e-05
0.000262775
1.62567e-05
0.000246964
1.58106e-05
0.000231733
1.52305e-05
0.000217188
1.45458e-05
0.000203395
1.3793e-05
0.00019046
1.29348e-05
0.000178408
1.20518e-05
0.00016731
1.10979e-05
0.000157193
1.01165e-05
0.000148014
9.17937e-06
0.000139783
8.2309e-06
0.000132426
7.35728e-06
0.000125902
6.52419e-06
0.000120064
5.83724e-06
0.000114805
5.25946e-06
0.000110017
4.78757e-06
0.000105669
4.34809e-06
0.000101633
4.03574e-06
9.78888e-05
3.74455e-06
9.43875e-05
3.50133e-06
9.11342e-05
3.25329e-06
8.80427e-05
3.09152e-06
8.51988e-05
2.84389e-06
8.26297e-05
2.56908e-06
8.04248e-05
2.20488e-06
7.86493e-05
1.77546e-06
7.73362e-05
1.31317e-06
7.65199e-05
8.1624e-07
7.63536e-05
1.6634e-07
7.66678e-05
-3.1427e-07
7.76019e-05
-9.34017e-07
7.92915e-05
-1.68967e-06
8.18034e-05
-2.51191e-06
8.49919e-05
-3.18848e-06
8.88992e-05
-3.90728e-06
9.33531e-05
-4.45392e-06
9.84137e-05
-5.0606e-06
0.000104043
-5.62929e-06
0.000110118
-6.07489e-06
0.000116739
-6.62084e-06
0.000123757
-7.01876e-06
0.000131103
-7.34607e-06
0.000138875
-7.7712e-06
0.000147031
-8.15663e-06
0.0001556
-8.56868e-06
0.000164714
-9.11419e-06
0.000174447
-9.73316e-06
0.000184928
-1.04806e-05
0.000196175
-1.12479e-05
0.000208378
-1.22026e-05
0.000221473
-1.30954e-05
0.00023557
-1.40967e-05
0.00025059
-1.50205e-05
0.000266341
-1.57505e-05
0.000282817
-1.64766e-05
0.000299807
-1.69895e-05
0.000316944
-1.71371e-05
0.000334119
-1.71756e-05
0.000350917
-1.67977e-05
0.000367083
-1.61664e-05
0.00038238
-1.52977e-05
0.000396391
-1.40106e-05
0.000408964
-1.2573e-05
0.000419902
-1.09381e-05
0.000429
-9.09848e-06
0.000436143
-7.14328e-06
0.000441103
-4.96011e-06
0.000443803
-2.69932e-06
0.000444316
-5.13922e-07
0.000442341
1.97518e-06
0.000438121
4.21966e-06
0.000431986
6.13565e-06
0.000423692
8.2936e-06
0.000413657
1.00353e-05
0.000401913
1.17437e-05
0.00038879
1.31225e-05
0.000374565
1.42255e-05
0.000359149
1.54154e-05
0.000343024
1.6125e-05
0.000326445
1.65791e-05
0.000309425
1.70204e-05
0.000292379
1.70457e-05
0.000275471
1.69074e-05
0.000258755
1.67162e-05
0.000242527
1.62281e-05
0.000226827
1.57002e-05
0.000211817
1.50093e-05
0.000197517
1.43006e-05
0.000183925
1.35916e-05
0.000171132
1.27931e-05
0.000159102
1.20301e-05
0.000147808
1.12943e-05
0.000137269
1.05388e-05
0.00012743
9.83892e-06
0.000118285
9.14453e-06
0.000109789
8.49583e-06
0.000101911
7.87876e-06
9.46432e-05
7.26754e-06
8.79619e-05
6.68128e-06
8.18568e-05
6.10502e-06
7.63252e-05
5.53166e-06
7.13576e-05
4.96754e-06
6.69578e-05
4.39985e-06
6.31334e-05
3.82436e-06
5.98858e-05
3.24758e-06
5.72252e-05
2.66066e-06
5.51625e-05
2.06265e-06
1.47106e-06
0.00028343
3.07657e-05
0.000268143
3.05696e-05
0.000252928
3.04258e-05
0.000237841
3.0169e-05
0.000223212
2.92562e-05
0.000208992
2.84358e-05
0.000195389
2.72047e-05
0.000182377
2.60216e-05
0.000169974
2.48041e-05
0.00015831
2.33253e-05
0.000147358
2.19047e-05
0.000137112
2.0491e-05
0.00012762
1.89843e-05
0.000118846
1.75486e-05
0.000110794
1.61063e-05
0.000103426
1.47334e-05
9.67193e-05
1.34127e-05
9.0644e-05
1.21505e-05
8.51631e-05
1.09622e-05
8.02445e-05
9.83777e-06
7.58504e-05
8.78809e-06
7.19373e-05
7.82802e-06
6.84742e-05
6.92734e-06
6.54252e-05
6.09497e-06
6.27588e-05
5.33209e-06
6.04595e-05
4.59925e-06
5.84926e-05
3.93315e-06
5.68318e-05
3.31989e-06
5.54836e-05
2.69637e-06
5.44284e-05
2.10896e-06
5.36659e-05
1.52073e-06
5.32101e-05
9.06724e-07
5.30635e-05
2.91635e-07
5.32888e-05
-4.51269e-07
5.39105e-05
-1.24171e-06
5.48791e-05
-1.9384e-06
5.63133e-05
-2.87677e-06
5.82692e-05
-3.9149e-06
6.06599e-05
-4.78569e-06
6.36622e-05
-6.0052e-06
6.72336e-05
-7.14054e-06
7.15056e-05
-8.54559e-06
7.65392e-05
-1.00707e-05
8.22292e-05
-1.1382e-05
8.87339e-05
-1.30071e-05
9.62279e-05
-1.4985e-05
0.000104507
-1.65637e-05
0.000113736
-1.84613e-05
0.000124124
-2.07672e-05
0.000135359
-2.24751e-05
0.000147675
-2.46342e-05
0.000160966
-2.65714e-05
0.000175213
-2.84937e-05
0.000190514
-3.05959e-05
0.000206508
-3.19812e-05
0.000223119
-3.32181e-05
0.000240392
-3.4524e-05
0.000257905
-3.50169e-05
0.000275569
-3.53135e-05
0.000293152
-3.51518e-05
0.000310371
-3.4424e-05
0.000327165
-3.35735e-05
0.000343217
-3.20856e-05
0.000358347
-3.02606e-05
0.000372498
-2.83107e-05
0.00038552
-2.60487e-05
0.000397362
-2.36755e-05
0.000407795
-2.08658e-05
0.000416615
-1.76365e-05
0.000423647
-1.40565e-05
0.000428417
-9.52057e-06
0.000430532
-4.20395e-06
0.000430101
8.66024e-07
0.00042637
7.47655e-06
0.000418899
1.49771e-05
0.000407863
2.20821e-05
0.000393769
2.81994e-05
0.00037705
3.34462e-05
0.000358505
3.70916e-05
0.00033888
3.92602e-05
0.000318782
4.01968e-05
0.000298724
4.01178e-05
0.00027921
3.90375e-05
0.000260363
3.76988e-05
0.000242168
3.63964e-05
0.000224765
3.48129e-05
0.000208033
3.34635e-05
0.000191914
3.22351e-05
0.000176353
3.112e-05
0.000161327
3.00495e-05
0.000146895
2.88604e-05
0.000133063
2.7661e-05
0.000119885
2.63558e-05
0.000107338
2.50937e-05
9.53758e-05
2.39098e-05
8.40006e-05
2.27584e-05
7.31352e-05
2.17339e-05
6.27855e-05
2.06934e-05
5.29032e-05
1.97655e-05
4.35118e-05
1.87787e-05
3.46576e-05
1.77037e-05
2.63882e-05
1.65413e-05
1.87157e-05
1.5339e-05
1.16798e-05
1.40846e-05
5.3106e-06
1.27594e-05
-4.35104e-07
1.14463e-05
-5.4509e-06
1.00309e-05
-9.76345e-06
8.64056e-06
-1.33926e-05
7.22861e-06
-1.6282e-05
5.83352e-06
-1.85427e-05
4.48931e-06
-2.0094e-05
3.10095e-06
-2.09543e-05
1.74257e-06
-2.11453e-05
4.08268e-07
-2.07632e-05
-8.11652e-07
-1.96447e-05
-2.17473e-06
-1.79982e-05
-3.35115e-06
-1.56535e-05
-4.6873e-06
-1.26084e-05
-6.03922e-06
-9.04348e-06
-7.18346e-06
-4.73911e-06
-8.60557e-06
2.28173e-07
-9.94623e-06
5.87684e-06
-1.12904e-05
1.22082e-05
-1.26798e-05
1.92442e-05
-1.40545e-05
2.69733e-05
-1.54479e-05
3.53851e-05
-1.68331e-05
4.44696e-05
-1.81816e-05
5.42827e-05
-1.96199e-05
6.47953e-05
-2.10299e-05
7.59901e-05
-2.23981e-05
8.78854e-05
-2.37811e-05
0.00010046
-2.51505e-05
0.000113689
-2.64342e-05
0.00012754
-2.77276e-05
0.000142037
-2.89764e-05
0.000157081
-3.0075e-05
0.000172626
-3.11046e-05
0.000188639
-3.20178e-05
0.000204997
-3.26976e-05
0.000221616
-3.32009e-05
0.000238289
-3.33584e-05
0.000254921
-3.32539e-05
0.000271286
-3.27377e-05
0.000287251
-3.19372e-05
0.000302611
-3.06982e-05
0.000317208
-2.91572e-05
0.000330804
-2.72119e-05
0.000343245
-2.48612e-05
0.00035438
-2.22365e-05
0.000363948
-1.9156e-05
0.000371853
-1.58022e-05
0.000377895
-1.20727e-05
0.000381941
-8.09332e-06
0.000383847
-3.82671e-06
0.00038357
5.68779e-07
0.000380931
5.25727e-06
0.000375849
1.01332e-05
0.00036847
1.47572e-05
0.000358882
1.91542e-05
0.000347215
2.33082e-05
0.000333655
2.70839e-05
0.000318436
3.0411e-05
0.000301842
3.31496e-05
0.000284188
3.5284e-05
0.000265782
3.67853e-05
0.000246956
3.76177e-05
0.000228026
3.78233e-05
0.000209262
3.74958e-05
0.000190937
3.66187e-05
0.000173224
3.54004e-05
0.0001563
3.38277e-05
0.000140235
3.21079e-05
0.000125103
3.02525e-05
0.000110884
2.84084e-05
9.76526e-05
2.64474e-05
8.54035e-05
2.44781e-05
7.41845e-05
2.24108e-05
6.40468e-05
2.02727e-05
5.49938e-05
1.80834e-05
4.7079e-05
1.58154e-05
4.0294e-05
1.35455e-05
3.46991e-05
1.11849e-05
3.02292e-05
8.93432e-06
2.68808e-05
6.68975e-06
2.45823e-05
4.59674e-06
2.32975e-05
2.56991e-06
2.28849e-05
8.30297e-07
2.32921e-05
-8.13234e-07
2.44163e-05
-2.25234e-06
2.61398e-05
-3.44292e-06
2.84434e-05
-4.59323e-06
3.11569e-05
-5.42156e-06
3.42778e-05
-6.24153e-06
3.77322e-05
-6.91103e-06
4.14804e-05
-7.48887e-06
4.55336e-05
-8.09375e-06
4.98672e-05
-8.655e-06
5.4444e-05
-9.14984e-06
5.93174e-05
-9.74421e-06
6.44117e-05
-1.01844e-05
6.97691e-05
-1.06972e-05
7.53676e-05
-1.11793e-05
8.11866e-05
-1.16371e-05
8.72478e-05
-1.2127e-05
9.3536e-05
-1.25668e-05
0.000100086
-1.30855e-05
0.000106915
-1.36558e-05
0.000114039
-1.42431e-05
0.000121579
-1.50766e-05
0.000129575
-1.60058e-05
0.000138118
-1.70862e-05
0.000147233
-1.82106e-05
0.000156968
-1.94745e-05
0.00016737
-2.08146e-05
0.000178498
-2.22544e-05
0.000190325
-2.36416e-05
0.000202825
-2.49986e-05
0.000216008
-2.6363e-05
0.000229814
-2.76051e-05
0.000244174
-2.87231e-05
0.000259003
-2.96537e-05
0.000274188
-3.03534e-05
0.000289689
-3.0992e-05
0.000305281
-3.11715e-05
0.000320847
-3.11321e-05
0.000336202
-3.07078e-05
0.000351091
-2.97609e-05
0.000365332
-2.84754e-05
0.000378597
-2.65199e-05
0.000390656
-2.41085e-05
0.000401228
-2.11421e-05
0.000410068
-1.76656e-05
0.000416968
-1.37875e-05
0.000421697
-9.45718e-06
0.000424121
-4.83034e-06
0.000424125
-8.67318e-10
0.000421601
5.03238e-06
0.000416537
1.01228e-05
0.000409142
1.47839e-05
0.000399588
1.9112e-05
0.000388107
2.29438e-05
0.000374964
2.62579e-05
0.000360466
2.89823e-05
0.000344958
3.09975e-05
0.000328772
3.23639e-05
0.000312186
3.31597e-05
0.000295483
3.33905e-05
0.000278901
3.31488e-05
0.000262637
3.252e-05
0.000246824
3.16242e-05
0.000231595
3.04597e-05
0.000217042
2.90988e-05
0.000203242
2.75923e-05
0.000190297
2.58798e-05
0.000178244
2.41052e-05
0.000167146
2.21954e-05
0.000157026
2.02369e-05
0.000147858
1.83476e-05
0.000139632
1.64563e-05
0.00013228
1.47097e-05
0.000125753
1.30513e-05
0.00011992
1.16698e-05
0.000114662
1.05169e-05
0.000109881
9.56915e-06
0.00010555
8.67933e-06
0.000101524
8.06092e-06
9.77802e-05
7.48871e-06
9.42818e-05
6.99974e-06
9.10363e-05
6.49878e-06
8.79562e-05
6.1716e-06
8.51237e-05
5.6764e-06
8.2563e-05
5.12971e-06
8.03661e-05
4.40182e-06
7.85937e-05
3.54783e-06
7.7281e-05
2.62586e-06
7.64665e-05
1.63075e-06
7.63018e-05
3.31009e-07
7.66165e-05
-6.28996e-07
7.75504e-05
-1.86791e-06
7.92388e-05
-3.37809e-06
8.17454e-05
-5.01847e-06
8.49267e-05
-6.3698e-06
8.88245e-05
-7.80509e-06
9.32698e-05
-8.89926e-06
9.83222e-05
-1.01131e-05
0.000103943
-1.12503e-05
0.000110013
-1.21445e-05
0.00011663
-1.32377e-05
0.000123648
-1.40368e-05
0.000130995
-1.46939e-05
0.000138767
-1.55429e-05
0.000146925
-1.63145e-05
0.000155496
-1.71402e-05
0.000164614
-1.82319e-05
0.000174348
-1.94672e-05
0.000184831
-2.09643e-05
0.000196081
-2.24977e-05
0.000208286
-2.44074e-05
0.000221384
-2.61935e-05
0.000235479
-2.81924e-05
0.000250494
-3.00353e-05
0.000266221
-3.14776e-05
0.000282692
-3.29484e-05
0.000299689
-3.39867e-05
0.000316819
-3.4267e-05
0.000333997
-3.43538e-05
0.000350799
-3.36001e-05
0.000366978
-3.2345e-05
0.000382289
-3.06097e-05
0.000396326
-2.80472e-05
0.000408915
-2.51625e-05
0.000419904
-2.19268e-05
0.000429021
-1.82159e-05
0.00043613
-1.42522e-05
0.000441097
-9.92812e-06
0.000443846
-5.44787e-06
0.000444385
-1.05325e-06
0.000442398
3.9618e-06
0.000438192
8.42525e-06
0.000432067
1.22608e-05
0.00042377
1.65905e-05
0.000413728
2.00766e-05
0.000401977
2.34948e-05
0.000388846
2.62533e-05
0.000374612
2.84597e-05
0.000359187
3.08405e-05
0.000343052
3.22597e-05
0.000326464
3.31673e-05
0.000309434
3.405e-05
0.00029238
3.41e-05
0.000275464
3.38229e-05
0.000258741
3.34393e-05
0.000242506
3.24627e-05
0.0002268
3.14068e-05
0.000211784
3.0025e-05
0.000197478
2.8606e-05
0.000183884
2.71855e-05
0.000171091
2.55862e-05
0.000159063
2.40587e-05
0.000147768
2.25891e-05
0.000137231
2.10751e-05
0.000127397
1.96729e-05
0.000118257
1.82853e-05
0.000109762
1.69905e-05
0.000101884
1.57566e-05
9.4619e-05
1.45326e-05
8.79401e-05
1.33602e-05
8.18355e-05
1.22096e-05
7.63032e-05
1.1064e-05
7.13356e-05
9.93516e-06
6.69364e-05
8.79903e-06
6.31129e-05
7.64792e-06
5.98649e-05
6.4955e-06
5.72025e-05
5.3231e-06
5.51383e-05
4.12683e-06
2.94166e-06
0.000283434
4.61647e-05
0.000268136
4.58683e-05
0.00025291
4.56515e-05
0.000237814
4.52648e-05
0.000223176
4.38937e-05
0.00020895
4.26617e-05
0.000195342
4.08134e-05
0.000182326
3.90373e-05
0.000169921
3.72096e-05
0.000158256
3.49902e-05
0.000147302
3.28584e-05
0.000137056
3.07368e-05
0.000127566
2.84749e-05
0.000118793
2.63216e-05
0.000110742
2.4157e-05
0.000103378
2.20975e-05
9.66742e-05
2.01162e-05
9.06028e-05
1.82219e-05
8.51266e-05
1.64385e-05
8.0208e-05
1.47564e-05
7.58169e-05
1.31791e-05
7.19052e-05
1.17397e-05
6.84425e-05
1.03901e-05
6.53969e-05
9.14052e-06
6.27287e-05
8.00035e-06
6.04302e-05
6.89773e-06
5.84663e-05
5.89702e-06
5.68029e-05
4.9833e-06
5.54532e-05
4.04604e-06
5.43986e-05
3.16355e-06
5.36345e-05
2.28484e-06
5.3177e-05
1.36427e-06
5.30282e-05
4.40397e-07
5.32514e-05
-6.74427e-07
5.38697e-05
-1.86007e-06
5.48331e-05
-2.90182e-06
5.62672e-05
-4.31084e-06
5.82214e-05
-5.86911e-06
6.06049e-05
-7.16925e-06
6.36025e-05
-9.00281e-06
6.71645e-05
-1.07025e-05
7.14237e-05
-1.28049e-05
7.64632e-05
-1.51102e-05
8.21521e-05
-1.7071e-05
8.86506e-05
-1.95057e-05
9.61413e-05
-2.24757e-05
0.000104415
-2.48375e-05
0.000113642
-2.76889e-05
0.000124033
-3.11575e-05
0.000135265
-3.37073e-05
0.000147583
-3.6952e-05
0.000160874
-3.98627e-05
0.000175119
-4.27394e-05
0.000190432
-4.59087e-05
0.000206442
-4.79912e-05
0.000223061
-4.98372e-05
0.000240354
-5.18176e-05
0.000257886
-5.25487e-05
0.000275574
-5.30016e-05
0.00029318
-5.27577e-05
0.000310423
-5.16671e-05
0.000327243
-5.03937e-05
0.000343313
-4.81562e-05
0.000358452
-4.53996e-05
0.000372597
-4.24558e-05
0.000385598
-3.90494e-05
0.000397425
-3.55029e-05
0.000407858
-3.1299e-05
0.000416683
-2.64617e-05
0.000423738
-2.11114e-05
0.000428565
-1.43475e-05
0.000430737
-6.37637e-06
0.000430284
1.31863e-06
0.000426569
1.11918e-05
0.000419153
2.23926e-05
0.000408148
3.30868e-05
0.000394072
4.22755e-05
0.000377371
5.01473e-05
0.000358839
5.56235e-05
0.000339226
5.88735e-05
0.00031914
6.02827e-05
0.000299087
6.01699e-05
0.00027958
5.85445e-05
0.000260749
5.65304e-05
0.000242565
5.45795e-05
0.000225175
5.22029e-05
0.000208453
5.01853e-05
0.000192334
4.8355e-05
0.000176768
4.66852e-05
0.000161745
4.50732e-05
0.000147316
4.32885e-05
0.00013348
4.14972e-05
0.0001203
3.95363e-05
0.000107747
3.76463e-05
9.57855e-05
3.58714e-05
8.44091e-05
3.41348e-05
7.35504e-05
3.25926e-05
6.31996e-05
3.10442e-05
5.33182e-05
2.96468e-05
4.39279e-05
2.8169e-05
3.50707e-05
2.65609e-05
2.67942e-05
2.48178e-05
1.91303e-05
2.30029e-05
1.20965e-05
2.11184e-05
5.6897e-06
1.91662e-05
-1.48667e-08
1.71508e-05
-5.02163e-06
1.50376e-05
-9.35557e-06
1.29745e-05
-1.29836e-05
1.08567e-05
-1.59058e-05
8.75571e-06
-1.81228e-05
6.70627e-06
-1.9648e-05
4.62618e-06
-2.05362e-05
2.63074e-06
-2.077e-05
6.42088e-07
-2.0342e-05
-1.23965e-06
-1.92748e-05
-3.24197e-06
-1.75266e-05
-5.09938e-06
-1.5188e-05
-7.02587e-06
-1.22524e-05
-8.97484e-06
-8.57051e-06
-1.08653e-05
-4.26894e-06
-1.29072e-05
6.33106e-07
-1.48483e-05
6.27096e-06
-1.69283e-05
1.26224e-05
-1.90313e-05
1.9648e-05
-2.10801e-05
2.73512e-05
-2.31511e-05
3.57643e-05
-2.52463e-05
4.4876e-05
-2.72934e-05
5.46688e-05
-2.94128e-05
6.51932e-05
-3.15543e-05
7.63819e-05
-3.35868e-05
8.82666e-05
-3.56658e-05
0.000100845
-3.77289e-05
0.000114061
-3.96504e-05
0.000127936
-4.16021e-05
0.000142398
-4.34393e-05
0.000157431
-4.51081e-05
0.000172997
-4.66704e-05
0.00018906
-4.80805e-05
0.000205412
-4.90504e-05
0.000222003
-4.97919e-05
0.000238738
-5.00938e-05
0.000255357
-4.98725e-05
0.000271736
-4.9117e-05
0.000287721
-4.79218e-05
0.000303099
-4.60772e-05
0.000317698
-4.37563e-05
0.000331327
-4.08408e-05
0.000343797
-3.73308e-05
0.000354872
-3.33124e-05
0.000364483
-2.87666e-05
0.000372402
-2.37219e-05
0.000378464
-1.81347e-05
0.000382541
-1.21705e-05
0.000384428
-5.71321e-06
0.000384093
9.03735e-07
0.000381415
7.935e-06
0.000376335
1.52127e-05
0.000368969
2.21231e-05
0.000359334
2.87895e-05
0.000347613
3.50286e-05
0.000334021
4.0676e-05
0.00031875
4.56819e-05
0.000302102
4.9797e-05
0.000284389
5.29974e-05
0.000265933
5.52413e-05
0.000247056
5.64942e-05
0.00022807
5.6809e-05
0.000209251
5.63157e-05
0.00019088
5.49895e-05
0.00017312
5.31602e-05
0.000156162
5.07854e-05
0.00014006
4.82098e-05
0.000124904
4.54087e-05
0.000110655
4.26577e-05
9.73801e-05
3.97218e-05
8.51024e-05
3.67559e-05
7.38429e-05
3.36703e-05
6.36667e-05
3.04488e-05
5.45929e-05
2.71571e-05
4.66275e-05
2.37809e-05
3.98354e-05
2.03375e-05
3.42161e-05
1.68042e-05
2.97447e-05
1.34057e-05
2.63884e-05
1.0046e-05
2.40809e-05
6.90417e-06
2.27958e-05
3.85505e-06
2.23872e-05
1.2389e-06
2.2813e-05
-1.23903e-06
2.3947e-05
-3.38636e-06
2.56774e-05
-5.17332e-06
2.79881e-05
-6.90395e-06
3.07137e-05
-8.14714e-06
3.38518e-05
-9.3796e-06
3.7314e-05
-1.03732e-05
4.10711e-05
-1.12459e-05
4.51307e-05
-1.21534e-05
4.94698e-05
-1.29941e-05
5.40585e-05
-1.37385e-05
5.89434e-05
-1.4629e-05
6.40516e-05
-1.52926e-05
6.94214e-05
-1.6067e-05
7.50322e-05
-1.67901e-05
8.08713e-05
-1.74761e-05
8.69422e-05
-1.81979e-05
9.32333e-05
-1.88578e-05
9.97872e-05
-1.96395e-05
0.000106618
-2.04866e-05
0.000113744
-2.13687e-05
0.000121282
-2.26151e-05
0.00012928
-2.40039e-05
0.000137807
-2.5613e-05
0.000146916
-2.73193e-05
0.000156665
-2.92242e-05
0.00016708
-3.12291e-05
0.000178211
-3.33855e-05
0.000190035
-3.54653e-05
0.000202541
-3.75047e-05
0.000215738
-3.95601e-05
0.000229557
-4.14247e-05
0.000243926
-4.30916e-05
0.000258757
-4.44853e-05
0.000273951
-4.55472e-05
0.000289466
-4.6507e-05
0.000305072
-4.67774e-05
0.00032066
-4.6721e-05
0.000336024
-4.60715e-05
0.00035093
-4.46674e-05
0.000365193
-4.27381e-05
0.000378475
-3.98019e-05
0.000390551
-3.61847e-05
0.000401137
-3.17282e-05
0.000409998
-2.65263e-05
0.000416918
-2.0708e-05
0.000421676
-1.42151e-05
0.000424111
-7.26552e-06
0.000424083
2.64817e-08
0.000421538
7.57769e-06
0.000416487
1.51741e-05
0.000409074
2.21961e-05
0.000399499
2.86867e-05
0.000388012
3.44317e-05
0.000374842
3.94273e-05
0.000360313
4.35113e-05
0.000344777
4.65329e-05
0.000328557
4.85844e-05
0.000311952
4.97642e-05
0.000295235
5.01079e-05
0.000278636
4.97472e-05
0.000262357
4.87993e-05
0.000246533
4.74479e-05
0.000231295
4.56976e-05
0.000216735
4.36588e-05
0.000202935
4.13925e-05
0.000189988
3.88264e-05
0.000177922
3.61716e-05
0.000166823
3.3294e-05
0.000156706
3.03536e-05
0.000147543
2.75108e-05
0.000139325
2.46744e-05
0.000131995
2.20399e-05
0.000125479
1.95666e-05
0.000119644
1.75053e-05
0.000114392
1.57685e-05
0.000109625
1.43366e-05
0.000105298
1.30057e-05
0.000101288
1.20715e-05
9.75557e-05
1.12208e-05
9.40651e-05
1.04903e-05
9.08386e-05
9.72529e-06
8.77794e-05
9.23072e-06
8.49689e-05
8.48696e-06
8.24266e-05
7.67193e-06
8.02423e-05
6.58617e-06
7.84809e-05
5.30916e-06
7.71797e-05
3.92709e-06
7.63744e-05
2.43604e-06
7.62244e-05
4.80974e-07
7.65492e-05
-9.53812e-07
7.7486e-05
-2.80468e-06
7.91772e-05
-5.06934e-06
8.16816e-05
-7.52294e-06
8.48541e-05
-9.54231e-06
8.87454e-05
-1.16964e-05
9.31779e-05
-1.33318e-05
9.82148e-05
-1.515e-05
0.000103825
-1.68607e-05
0.000109881
-1.82005e-05
0.000116492
-1.98491e-05
0.000123509
-2.10532e-05
0.000130852
-2.20366e-05
0.000138625
-2.33161e-05
0.000146785
-2.44753e-05
0.000155358
-2.57125e-05
0.000164478
-2.73528e-05
0.000174216
-2.92053e-05
0.000184701
-3.14486e-05
0.000195958
-3.37552e-05
0.000208165
-3.6615e-05
0.000221263
-3.92915e-05
0.000235354
-4.22832e-05
0.000250357
-4.50384e-05
0.000266071
-4.71926e-05
0.000282516
-4.93932e-05
0.000299481
-5.09516e-05
0.000316587
-5.1374e-05
0.000333755
-5.15218e-05
0.000350563
-5.04076e-05
0.000366766
-4.85487e-05
0.000382115
-4.59584e-05
0.000396194
-4.21267e-05
0.000408831
-3.78002e-05
0.000419844
-3.29397e-05
0.000428965
-2.73364e-05
0.000436126
-2.1414e-05
0.000441137
-1.49387e-05
0.000443914
-8.22521e-06
0.000444487
-1.62638e-06
0.000442504
5.94435e-06
0.000438332
1.25973e-05
0.000432218
1.83741e-05
0.000423912
2.48962e-05
0.000413858
3.01313e-05
0.00040209
3.52619e-05
0.000388942
3.94018e-05
0.000374689
4.2712e-05
0.000359245
4.62844e-05
0.000343091
4.84134e-05
0.000326485
4.97738e-05
0.000309438
5.1097e-05
0.000292367
5.11704e-05
0.000275437
5.07527e-05
0.000258702
5.0175e-05
0.000242456
4.87081e-05
0.000226741
4.71219e-05
0.000211719
4.50473e-05
0.000197408
4.29165e-05
0.00018381
4.07839e-05
0.000171016
3.83804e-05
0.000158988
3.60862e-05
0.000147698
3.38795e-05
0.000137165
3.16073e-05
0.000127334
2.95045e-05
0.000118196
2.74228e-05
0.000109706
2.54805e-05
0.000101833
2.36301e-05
9.45701e-05
2.17952e-05
8.78918e-05
2.00386e-05
8.17882e-05
1.83132e-05
7.62575e-05
1.65946e-05
7.12913e-05
1.49014e-05
6.68924e-05
1.31979e-05
6.30678e-05
1.14724e-05
5.98191e-05
9.74421e-06
5.71565e-05
7.98574e-06
5.50918e-05
6.19149e-06
4.41327e-06
0.00028344
6.15842e-05
0.000268124
6.11847e-05
0.000252882
6.08931e-05
0.000237772
6.03745e-05
0.000223123
5.85428e-05
0.000208888
5.68973e-05
0.000195271
5.44298e-05
0.00018225
5.20589e-05
0.00016984
4.96192e-05
0.000158173
4.66577e-05
0.000147218
4.38131e-05
0.000136973
4.09816e-05
0.000127485
3.79637e-05
0.000118715
3.50917e-05
0.000110668
3.22038e-05
0.000103307
2.94578e-05
9.66087e-05
2.68149e-05
9.05416e-05
2.42891e-05
8.50693e-05
2.19107e-05
8.01541e-05
1.96716e-05
7.57669e-05
1.75663e-05
7.18583e-05
1.56483e-05
6.83955e-05
1.38529e-05
6.53514e-05
1.21846e-05
6.26833e-05
1.06685e-05
6.03865e-05
9.19446e-06
5.84231e-05
7.86041e-06
5.67584e-05
6.64802e-06
5.54081e-05
5.39633e-06
5.43533e-05
4.21832e-06
5.35844e-05
3.05373e-06
5.31232e-05
1.82548e-06
5.29697e-05
5.93886e-07
5.31911e-05
-8.95825e-07
5.38095e-05
-2.47841e-06
5.47644e-05
-3.85674e-06
5.61927e-05
-5.73918e-06
5.81457e-05
-7.82215e-06
6.05165e-05
-9.54005e-06
6.35029e-05
-1.19892e-05
6.70512e-05
-1.42508e-05
7.13035e-05
-1.70573e-05
7.63462e-05
-2.01529e-05
8.2025e-05
-2.27499e-05
8.85112e-05
-2.59919e-05
9.60083e-05
-2.99728e-05
0.000104275
-3.31042e-05
0.000113493
-3.69075e-05
0.000123889
-4.1553e-05
0.000135115
-4.49336e-05
0.000147434
-4.92709e-05
0.000160724
-5.31528e-05
0.000174973
-5.69891e-05
0.000190305
-6.12404e-05
0.000206331
-6.40171e-05
0.000222968
-6.64743e-05
0.000240292
-6.91422e-05
0.000257856
-7.01123e-05
0.00027558
-7.07264e-05
0.000293223
-7.04009e-05
0.000310502
-6.8946e-05
0.000327364
-6.7256e-05
0.000343461
-6.42535e-05
0.00035861
-6.05483e-05
0.000372747
-5.65929e-05
0.000385725
-5.20277e-05
0.000397524
-4.73021e-05
0.000407934
-4.17092e-05
0.000416758
-3.52859e-05
0.000423846
-2.81996e-05
0.000428782
-1.92833e-05
0.000431082
-8.67606e-06
0.000430593
1.80672e-06
0.000426864
1.49214e-05
0.000419532
2.97245e-05
0.000408574
4.40441e-05
0.000394528
5.63216e-05
0.00037785
6.68248e-05
0.000359339
7.41345e-05
0.000339738
7.84749e-05
0.000319659
8.03614e-05
0.000299615
8.02137e-05
0.00028012
7.80395e-05
0.00026131
7.53406e-05
0.000243154
7.27359e-05
0.000225784
6.95727e-05
0.000209071
6.68976e-05
0.000192955
6.44709e-05
0.000177388
6.22529e-05
0.000162357
6.01034e-05
0.000147926
5.77194e-05
0.000134088
5.53354e-05
0.000120909
5.27155e-05
0.000108357
5.01984e-05
9.63981e-05
4.78302e-05
8.50408e-05
4.54921e-05
7.4186e-05
4.34475e-05
6.38183e-05
4.14119e-05
5.39296e-05
3.95355e-05
4.45419e-05
3.75568e-05
3.5683e-05
3.54198e-05
2.74034e-05
3.30974e-05
1.97027e-05
3.07036e-05
1.26707e-05
2.81505e-05
6.28254e-06
2.55544e-05
5.80305e-07
2.28531e-05
-4.42386e-06
2.00418e-05
-8.74191e-06
1.72925e-05
-1.23638e-05
1.44786e-05
-1.527e-05
1.16619e-05
-1.74958e-05
8.93207e-06
-1.9067e-05
6.19742e-06
-1.99277e-05
3.49138e-06
-2.01503e-05
8.64641e-07
-1.97123e-05
-1.67757e-06
-1.86612e-05
-4.29314e-06
-1.69669e-05
-6.79368e-06
-1.46395e-05
-9.35324e-06
-1.16455e-05
-1.19688e-05
-8.04437e-06
-1.44665e-05
-3.74661e-06
-1.72049e-05
1.22436e-06
-1.98193e-05
6.86013e-06
-2.25641e-05
1.31951e-05
-2.53663e-05
2.02217e-05
-2.81067e-05
2.79305e-05
-3.08599e-05
3.63461e-05
-3.36618e-05
4.54323e-05
-3.63797e-05
5.52279e-05