/*--------------------------------*- C++ -*----------------------------------*\
| =========                 |                                                 |
| \\      /  F ield         | OpenFOAM: The Open Source CFD Toolbox           |
|  \\    /   O peration     | Version:  3.0.1                                 |
|   \\  /    A nd           | Web:      www.OpenFOAM.org                      |
|    \\/     M anipulation  |                                                 |
\*---------------------------------------------------------------------------*/
FoamFile
{
    version     2.0;
    format      ascii;
    class       volScalarField;
    location    "19.6";
    object      p;
}
// * * * * * * * * * * * * * * * * * * * * * * * * * * * * * * * * * * * * * //

dimensions      [1 -1 -2 0 0 0 0];

internalField   nonuniform List<scalar> 
21420
(
3542.49
3547.06
3553.13
3560.7
3569.79
3580.49
3592.83
3606.89
3622.71
3640.31
3659.73
3680.99
3704.07
3728.94
3755.54
3783.79
3813.56
3844.68
3876.87
3909.5
3943.3
3977.51
4011.72
4045.58
4078.68
4110.59
4140.9
4169.2
4195.13
4218.33
4238.46
4255.25
4268.46
4277.88
4283.38
4284.76
4282.11
4275.44
4264.82
4250.44
4232.52
4211.31
4187.11
4160.26
4131.16
4100.18
4067.72
4034.19
3999.95
3965.37
3930.85
3902.13
3869.17
3837.15
3806.37
3776.99
3749.15
3722.94
3698.43
3675.66
3654.66
3635.43
3617.98
3602.3
3588.34
3576.1
3565.54
3556.66
3549.42
3543.81
3539.75
3537.25
3536.51
3537.46
3540.07
3544.33
3550.23
3557.76
3566.92
3577.67
3590
3603.91
3619.38
3636.4
3654.95
3675.03
3696.61
3719.68
3744.21
3770.16
3797.47
3826.06
3855.82
3886.6
3918.21
3950.4
3982.9
4015.39
4047.54
4078.98
4109.34
4138.24
4165.3
4190.15
4212.44
4231.85
4248.07
4260.84
4269.94
4275.19
4276.4
4273.61
4266.81
4256.02
4241.38
4223.12
4201.48
4176.79
4149.43
4119.8
4088.33
4055.46
4021.65
3987.33
3952.9
3918.77
3885.27
3852.7
3821.32
3791.34
3762.93
3736.19
3711.22
3688.06
3666.74
3647.28
3629.65
3613.84
3599.84
3587.6
3577.1
3568.29
3561.12
3555.55
3551.5
3548.96
3547.95
3548.3
3550.05
3553.16
3557.63
3563.48
3570.72
3579.36
3589.45
3601.03
3614.15
3628.85
3645.18
3663.18
3682.88
3704.29
3727.4
3752.17
3778.53
3806.39
3835.62
3866.02
3897.43
3929.53
3962.06
3994.7
4027.12
4058.94
4089.8
4119.3
4147.07
4172.73
4195.93
4216.32
4233.62
4247.57
4257.94
4264.56
4267.28
4266.14
4261.03
4252.06
4239.29
4222.89
4203.07
4180.1
4154.28
4125.97
4095.56
4063.46
4030.1
3995.92
3961.36
3926.86
3892.8
3859.56
3827.47
3796.81
3767.8
3740.63
3715.43
3692.27
3671.18
3652.17
3635.19
3620.17
3607.03
3595.67
3585.99
3577.88
3571.25
3566
3562.07
3559.35
3557.84
3557.55
3558.37
3560.37
3563.56
3567.99
3573.74
3580.88
3589.51
3599.71
3611.59
3625.24
3640.74
3658.15
3677.52
3698.86
3722.15
3747.35
3774.35
3803.01
3833.17
3864.59
3897.03
3930.14
3963.6
3997.04
4030.07
4062.29
4093.29
4122.67
4150.05
4175.09
4197.43
4216.8
4232.96
4245.71
4254.89
4260.41
4262.17
4260.27
4254.68
4245.54
4232.95
4217.1
4198.21
4176.51
4152.29
4125.83
4097.46
4067.5
4036.29
4004.18
3971.5
3938.58
3905.77
3873.95
3842.31
3811.57
3781.96
3753.7
3726.92
3701.76
3678.29
3656.59
3636.71
3618.67
3602.48
3588.13
3575.64
3564.97
3556.11
3549.05
3543.74
3540.15
3538.31
3538.19
3539.72
3542.9
3547.7
3554.08
3562.01
3571.46
3582.42
3594.85
3608.73
3624.06
3640.81
3658.98
3678.56
3699.54
3721.91
3745.66
3770.74
3797.1
3824.67
3853.31
3882.82
3912.94
3943.75
3974.97
4006.27
4037.35
4067.9
4097.55
4125.96
4152.74
4177.51
4199.96
4219.74
4236.54
4250.11
4260.2
4266.64
4269.15
4267.21
4261.22
4251.35
4237.57
4220.07
4199.05
4174.83
4147.77
4118.24
4086.71
4053.62
4019.48
3984.78
3950.03
3915.72
3883.1
3851.68
3820.72
3791.12
3763.22
3737.26
3713.3
3691.4
3444.33
3448.9
3454.97
3462.53
3471.63
3482.32
3494.66
3508.72
3524.53
3542.13
3561.55
3582.81
3605.88
3630.75
3657.36
3685.61
3715.39
3746.51
3778.71
3811.35
3845.16
3879.38
3913.6
3947.49
3980.6
4012.53
4042.86
4071.17
4097.12
4120.34
4140.48
4157.29
4170.5
4179.93
4185.43
4186.83
4184.16
4177.49
4166.86
4152.47
4134.53
4113.31
4089.1
4062.23
4033.11
4002.11
3969.64
3936.09
3901.84
3867.24
3832.71
3803.97
3771
3738.97
3708.19
3678.81
3650.96
3624.76
3600.25
3577.48
3556.48
3537.26
3519.81
3504.12
3490.17
3477.93
3467.38
3458.49
3451.26
3445.64
3441.59
3439.1
3438.35
3439.3
3441.91
3446.17
3452.07
3459.6
3468.75
3479.5
3491.83
3505.74
3521.22
3538.23
3556.79
3576.86
3598.44
3621.52
3646.04
3671.99
3699.3
3727.9
3757.66
3788.45
3820.06
3852.27
3884.78
3917.28
3949.44
3980.9
4011.27
4040.19
4067.27
4092.14
4114.44
4133.87
4150.1
4162.88
4171.99
4177.25
4178.45
4175.66
4168.87
4158.06
4143.42
4125.13
4103.48
4078.78
4051.4
4021.74
3990.25
3957.37
3923.54
3889.2
3854.77
3820.62
3787.1
3754.53
3723.15
3693.16
3664.75
3638.01
3613.04
3589.88
3568.56
3549.1
3531.47
3515.67
3501.67
3489.43
3478.93
3470.12
3462.95
3457.38
3453.34
3450.81
3449.79
3450.15
3451.89
3455
3459.48
3465.33
3472.56
3481.2
3491.29
3502.87
3515.98
3530.68
3547
3565.01
3584.7
3606.11
3629.22
3653.99
3680.36
3708.22
3737.45
3767.86
3799.28
3831.39
3863.93
3896.58
3929.02
3960.85
3991.73
4021.24
4049.03
4074.71
4097.93
4118.33
4135.65
4149.6
4159.98
4166.62
4169.34
4168.19
4163.08
4154.1
4141.32
4124.91
4105.08
4082.09
4056.26
4027.93
3997.5
3965.38
3932
3897.81
3863.23
3828.71
3794.64
3761.39
3729.29
3698.62
3669.61
3642.44
3617.24
3594.08
3573
3553.98
3537
3521.99
3508.86
3497.51
3487.83
3479.73
3473.1
3467.85
3463.92
3461.21
3459.69
3459.4
3460.22
3462.22
3465.41
3469.84
3475.59
3482.72
3491.34
3501.54
3513.42
3527.06
3542.55
3559.96
3579.33
3600.67
3623.97
3649.16
3676.17
3704.83
3735
3766.43
3798.88
3832
3865.47
3898.93
3931.97
3964.21
3995.23
4024.62
4052.02
4077.08
4099.44
4118.82
4134.99
4147.75
4156.93
4162.46
4164.22
4162.31
4156.72
4147.57
4134.97
4119.11
4100.21
4078.5
4054.26
4027.79
3999.4
3969.43
3938.2
3906.08
3873.39
3840.45
3807.63
3775.8
3744.16
3713.41
3683.79
3655.52
3628.74
3603.58
3580.11
3558.41
3538.53
3520.49
3504.3
3489.96
3477.46
3466.8
3457.94
3450.88
3445.57
3441.99
3440.15
3440.02
3441.55
3444.74
3449.54
3455.92
3463.85
3473.3
3484.26
3496.69
3510.57
3525.9
3542.65
3560.82
3580.4
3601.37
3623.75
3647.5
3672.57
3698.94
3726.51
3755.16
3784.67
3814.79
3845.61
3876.84
3908.16
3939.24
3969.81
3999.48
4027.9
4054.7
4079.49
4101.95
4121.75
4138.57
4152.14
4162.24
4168.69
4171.22
4169.26
4163.27
4153.4
4139.61
4122.09
4101.06
4076.82
4049.74
4020.2
3988.64
3955.54
3921.37
3886.66
3851.89
3817.57
3784.94
3753.5
3722.54
3692.93
3665.03
3639.07
3615.11
3593.21
3346.12
3350.69
3356.75
3364.31
3373.4
3384.09
3396.42
3410.47
3426.28
3443.88
3463.29
3484.55
3507.62
3532.49
3559.1
3587.36
3617.14
3648.28
3680.49
3713.14
3746.97
3781.22
3815.48
3849.39
3882.53
3914.5
3944.87
3973.22
3999.2
4022.45
4042.63
4059.46
4072.69
4082.13
4087.65
4089.05
4086.37
4079.69
4069.04
4054.64
4036.67
4015.41
3991.17
3964.26
3935.1
3904.07
3871.56
3837.99
3803.71
3769.09
3734.53
3705.75
3672.76
3640.73
3609.93
3580.55
3552.7
3526.5
3501.99
3479.22
3458.22
3439
3421.56
3405.88
3391.93
3379.7
3369.14
3360.26
3353.03
3347.41
3343.36
3340.89
3340.13
3341.07
3343.68
3347.94
3353.84
3361.37
3370.52
3381.27
3393.6
3407.51
3422.98
3440
3458.55
3478.63
3500.21
3523.28
3547.8
3573.75
3601.07
3629.67
3659.44
3690.24
3721.87
3754.09
3786.63
3819.16
3851.35
3882.84
3913.24
3942.19
3969.31
3994.21
4016.54
4036
4052.26
4065.07
4074.19
4079.46
4080.67
4077.87
4071.07
4060.25
4045.58
4027.27
4005.59
3980.85
3953.43
3923.74
3892.21
3859.29
3825.42
3791.05
3756.59
3722.41
3688.88
3656.29
3624.9
3594.91
3566.48
3539.74
3514.77
3491.62
3470.3
3450.84
3433.22
3417.42
3403.42
3391.19
3380.7
3371.89
3364.72
3359.16
3355.12
3352.6
3351.58
3351.94
3353.68
3356.8
3361.27
3367.12
3374.34
3382.98
3393.07
3404.64
3417.75
3432.44
3448.76
3466.76
3486.45
3507.86
3530.97
3555.74
3582.11
3609.98
3639.21
3669.64
3701.07
3733.2
3765.76
3798.45
3830.91
3862.78
3893.68
3923.23
3951.06
3976.78
4000.02
4020.46
4037.8
4051.78
4062.17
4068.82
4071.56
4070.38
4065.28
4056.29
4043.49
4027.06
4007.2
3984.18
3958.31
3929.95
3899.48
3867.32
3833.91
3799.68
3765.07
3730.52
3696.42
3663.15
3631.04
3600.35
3571.33
3544.16
3518.95
3495.8
3474.72
3455.71
3438.74
3423.74
3410.61
3399.27
3389.6
3381.51
3374.89
3369.65
3365.73
3363.01
3361.5
3361.21
3362.03
3364.02
3367.21
3371.64
3377.38
3384.51
3393.11
3403.31
3415.17
3428.8
3444.29
3461.7
3481.06
3502.4
3525.69
3550.89
3577.9
3606.58
3636.75
3668.2
3700.67
3733.81
3767.32
3800.8
3833.88
3866.16
3897.21
3926.64
3954.07
3979.16
4001.55
4020.95
4037.15
4049.92
4059.12
4064.65
4066.42
4064.49
4058.9
4049.73
4037.12
4021.24
4002.31
3980.57
3956.3
3929.8
3901.38
3871.38
3840.13
3807.98
3775.26
3742.3
3709.45
3677.6
3645.94
3615.18
3585.55
3557.27
3530.49
3505.32
3481.85
3460.15
3440.27
3422.23
3406.04
3391.7
3379.21
3368.55
3359.7
3352.64
3347.33
3343.75
3341.92
3341.79
3343.32
3346.52
3351.31
3357.7
3365.63
3375.08
3386.04
3398.47
3412.35
3427.67
3444.42
3462.59
3482.17
3503.15
3525.52
3549.27
3574.34
3600.71
3628.29
3656.94
3686.47
3716.61
3747.44
3778.69
3810.03
3841.14
3871.74
3901.43
3929.89
3956.72
3981.54
4004.03
4023.86
4040.71
4054.31
4064.43
4070.89
4073.47
4071.47
4065.48
4055.59
4041.79
4024.25
4003.18
3978.91
3951.79
3922.21
3890.61
3857.47
3823.26
3788.51
3753.71
3719.37
3686.72
3655.25
3624.27
3594.65
3566.75
3540.78
3516.82
3494.92
3247.84
3252.41
3258.47
3266.02
3275.1
3285.78
3298.11
3312.15
3327.95
3345.54
3364.95
3386.2
3409.27
3434.14
3460.76
3489.02
3518.81
3549.97
3582.21
3614.88
3648.75
3683.03
3717.33
3751.3
3784.49
3816.52
3846.94
3875.34
3901.38
3924.68
3944.9
3961.77
3975.03
3984.49
3990.01
3991.44
3988.73
3982.04
3971.37
3956.93
3938.92
3917.62
3893.32
3866.36
3837.15
3806.07
3773.51
3739.88
3705.56
3670.9
3636.3
3607.47
3574.45
3542.4
3511.6
3482.21
3454.36
3428.15
3403.65
3380.89
3359.89
3340.68
3323.24
3307.56
3293.62
3281.39
3270.84
3261.96
3254.73
3249.11
3245.07
3242.61
3241.84
3242.79
3245.4
3249.65
3255.55
3263.08
3272.23
3282.98
3295.31
3309.22
3324.69
3341.7
3360.25
3380.32
3401.9
3424.97
3449.5
3475.44
3502.76
3531.37
3561.16
3591.98
3623.63
3655.88
3688.45
3721.02
3753.26
3784.79
3815.25
3844.25
3871.42
3896.37
3918.75
3938.25
3954.55
3967.39
3976.54
3981.83
3983.06
3980.24
3973.43
3962.58
3947.88
3929.53
3907.79
3883
3855.53
3825.78
3794.19
3761.21
3727.3
3692.88
3658.37
3624.16
3590.6
3557.98
3526.57
3496.57
3468.14
3441.4
3416.42
3393.27
3371.96
3352.5
3334.89
3319.1
3305.1
3292.88
3282.39
3273.59
3266.43
3260.88
3256.84
3254.33
3253.31
3253.67
3255.42
3258.53
3263.01
3268.85
3276.07
3284.71
3294.79
3306.35
3319.45
3334.14
3350.45
3368.43
3388.12
3409.53
3432.63
3457.4
3483.78
3511.66
3540.91
3571.36
3602.81
3634.98
3667.57
3700.3
3732.8
3764.72
3795.67
3825.27
3853.15
3878.92
3902.21
3922.69
3940.07
3954.09
3964.51
3971.17
3973.94
3972.74
3967.63
3958.62
3945.8
3929.33
3909.43
3886.36
3860.44
3832.03
3801.5
3769.29
3735.82
3701.53
3666.88
3632.28
3598.15
3564.85
3532.7
3502
3472.97
3445.79
3420.58
3397.42
3376.35
3357.36
3340.4
3325.4
3312.3
3300.97
3291.31
3283.23
3276.62
3271.39
3267.48
3264.77
3263.27
3262.98
3263.79
3265.78
3268.97
3273.38
3279.11
3286.23
3294.82
3305
3316.85
3330.47
3345.95
3363.35
3382.7
3404.04
3427.33
3452.54
3479.55
3508.25
3538.44
3569.91
3602.41
3635.59
3669.14
3702.67
3735.8
3768.12
3799.22
3828.71
3856.19
3881.33
3903.76
3923.2
3939.43
3952.23
3961.45
3966.98
3968.77
3966.81
3961.21
3952.03
3939.38
3923.47
3904.5
3882.73
3858.41
3831.87
3803.41
3773.36
3742.06
3709.87
3677.11
3644.12
3611.24
3579.36
3547.67
3516.89
3487.24
3458.95
3432.16
3406.98
3383.51
3361.81
3341.93
3323.9
3307.71
3293.38
3280.89
3270.23
3261.38
3254.33
3249.03
3245.45
3243.63
3243.49
3245.03
3248.23
3253.03
3259.41
3267.35
3276.8
3287.76
3300.19
3314.06
3329.39
3346.14
3364.3
3383.88
3404.85
3427.23
3450.97
3476.05
3502.42
3530.01
3558.67
3588.22
3618.37
3649.23
3680.51
3711.88
3743.03
3773.67
3803.42
3831.92
3858.8
3883.67
3906.21
3926.08
3942.97
3956.6
3966.75
3973.23
3975.87
3973.84
3967.84
3957.94
3944.1
3926.52
3905.42
3881.09
3853.92
3824.27
3792.62
3759.41
3725.15
3690.34
3655.49
3621.11
3588.43
3556.93
3525.92
3496.29
3468.37
3442.39
3418.43
3396.53
3149.51
3154.07
3160.12
3167.67
3176.74
3187.41
3199.73
3213.76
3229.55
3247.13
3266.53
3287.77
3310.84
3335.71
3362.33
3390.6
3420.41
3451.6
3483.87
3516.56
3550.48
3584.82
3619.18
3653.21
3686.47
3718.57
3749.06
3777.54
3803.64
3827.01
3847.29
3864.21
3877.51
3887.01
3892.54
3893.98
3891.26
3884.54
3873.83
3859.35
3841.29
3819.93
3795.56
3768.53
3739.25
3708.09
3675.46
3641.77
3607.4
3572.7
3538.04
3509.12
3476.08
3444.01
3413.2
3383.8
3355.94
3329.73
3305.23
3282.47
3261.48
3242.27
3224.85
3209.18
3195.24
3183.02
3172.48
3163.6
3156.37
3150.75
3146.71
3144.28
3143.5
3144.44
3147.05
3151.3
3157.2
3164.72
3173.87
3184.62
3196.95
3210.86
3226.32
3243.33
3261.88
3281.95
3303.53
3326.59
3351.12
3377.07
3404.4
3433.01
3462.82
3493.66
3525.34
3557.64
3590.25
3622.87
3655.17
3686.77
3717.28
3746.35
3773.59
3798.61
3821.06
3840.62
3856.97
3869.86
3879.04
3884.35
3885.6
3882.78
3875.94
3865.06
3850.32
3831.91
3810.11
3785.24
3757.69
3727.86
3696.2
3663.14
3629.16
3594.68
3560.11
3525.86
3492.25
3459.61
3428.17
3398.15
3369.71
3342.97
3318
3294.85
3273.54
3254.09
3236.48
3220.7
3206.71
3194.5
3184.02
3175.23
3168.08
3162.53
3158.5
3156
3154.98
3155.35
3157.1
3160.22
3164.69
3170.53
3177.75
3186.37
3196.44
3208
3221.09
3235.76
3252.06
3270.04
3289.72
3311.12
3334.22
3358.99
3385.38
3413.27
3442.54
3473.01
3504.5
3536.71
3569.35
3602.12
3634.69
3666.67
3697.69
3727.36
3755.3
3781.14
3804.5
3825.04
3842.48
3856.53
3866.99
3873.67
3876.46
3875.25
3870.14
3861.1
3848.24
3831.73
3811.77
3788.64
3762.65
3734.16
3703.56
3671.27
3637.73
3603.38
3568.66
3534
3499.82
3466.47
3434.29
3403.56
3374.51
3347.32
3322.11
3298.96
3277.9
3258.91
3241.97
3226.99
3213.9
3202.6
3192.96
3184.9
3178.3
3173.09
3169.18
3166.48
3164.99
3164.69
3165.51
3167.49
3170.67
3175.07
3180.79
3187.89
3196.47
3206.63
3218.46
3232.07
3247.53
3264.91
3284.26
3305.59
3328.88
3354.09
3381.12
3409.83
3440.05
3471.56
3504.1
3537.33
3570.93
3604.52
3637.72
3670.11
3701.28
3730.83
3758.39
3783.59
3806.08
3825.57
3841.84
3854.68
3863.92
3869.46
3871.26
3869.28
3863.67
3854.45
3841.77
3825.82
3806.8
3784.97
3760.6
3733.99
3705.47
3675.36
3644.01
3611.76
3578.95
3545.91
3512.98
3481.06
3449.33
3418.53
3388.86
3360.55
3333.75
3308.56
3285.09
3263.39
3243.51
3225.48
3209.3
3194.97
3182.49
3171.83
3162.99
3155.95
3150.65
3147.08
3145.26
3145.13
3146.68
3149.87
3154.68
3161.07
3169
3178.46
3189.42
3201.85
3215.72
3231.04
3247.79
3265.95
3285.52
3306.5
3328.87
3352.61
3377.69
3404.07
3431.66
3460.35
3489.91
3520.09
3550.99
3582.31
3613.72
3644.93
3675.62
3705.43
3734
3760.94
3785.87
3808.48
3828.41
3845.35
3859.03
3869.22
3875.72
3878.41
3876.38
3870.37
3860.43
3846.56
3828.93
3807.77
3783.37
3756.12
3726.39
3694.66
3661.37
3627.03
3592.15
3557.24
3522.81
3490.09
3458.52
3427.49
3397.83
3369.9
3343.91
3319.94
3298.05
3051.13
3055.68
3061.72
3069.26
3078.32
3088.98
3101.28
3115.29
3131.07
3148.64
3168.03
3189.26
3212.33
3237.2
3263.82
3292.11
3321.94
3353.15
3385.46
3418.19
3452.16
3486.57
3521
3555.12
3588.47
3620.65
3651.24
3679.81
3706
3729.45
3749.8
3766.79
3780.14
3789.67
3795.22
3796.68
3793.95
3787.19
3776.44
3761.91
3743.77
3722.33
3697.88
3670.76
3641.39
3610.15
3577.43
3543.67
3509.22
3474.46
3439.74
3410.72
3377.63
3345.54
3314.71
3285.3
3257.44
3231.23
3206.72
3183.97
3162.99
3143.8
3126.38
3110.72
3096.79
3084.58
3074.04
3065.17
3057.94
3052.33
3048.3
3045.87
3045.09
3046.03
3048.63
3052.89
3058.78
3066.3
3075.45
3086.2
3098.53
3112.43
3127.89
3144.9
3163.44
3183.51
3205.08
3228.15
3252.67
3278.63
3305.96
3334.59
3364.41
3395.29
3427.01
3459.35
3492.02
3524.71
3557.08
3588.76
3619.36
3648.51
3675.84
3700.94
3723.47
3743.1
3759.53
3772.47
3781.69
3787.02
3788.3
3785.47
3778.6
3767.69
3752.89
3734.41
3712.52
3687.57
3659.92
3629.99
3598.23
3565.09
3531.01
3496.45
3461.82
3427.5
3393.85
3361.16
3329.7
3299.66
3271.21
3244.46
3219.48
3196.34
3175.04
3155.6
3138
3122.23
3108.25
3096.05
3085.58
3076.8
3069.66
3064.12
3060.11
3057.62
3056.6
3056.98
3058.73
3061.85
3066.32
3072.15
3079.36
3087.98
3098.04
3109.58
3122.65
3137.31
3153.6
3171.57
3191.24
3212.63
3235.73
3260.51
3286.9
3314.81
3344.11
3374.61
3406.14
3438.39
3471.09
3503.94
3536.57
3568.63
3599.73
3629.49
3657.52
3683.45
3706.88
3727.5
3745
3759.11
3769.61
3776.33
3779.13
3777.93
3772.79
3763.73
3750.82
3734.25
3714.22
3691.01
3664.94
3636.36
3605.66
3573.28
3539.64
3505.2
3470.4
3435.67
3401.42
3368.02
3335.8
3305.04
3275.97
3248.77
3223.55
3200.4
3179.35
3160.38
3143.46
3128.51
3115.44
3104.16
3094.54
3086.5
3079.93
3074.73
3070.83
3068.14
3066.66
3066.36
3067.18
3069.16
3072.32
3076.72
3082.41
3089.49
3098.05
3108.19
3120
3133.58
3149.03
3166.4
3185.73
3207.06
3230.35
3255.57
3282.61
3311.34
3341.6
3373.15
3405.74
3439.02
3472.69
3506.36
3539.64
3572.12
3603.38
3633.02
3660.66
3685.94
3708.5
3728.06
3744.39
3757.26
3766.53
3772.09
3773.89
3771.91
3766.26
3757.01
3744.29
3728.28
3709.2
3687.3
3662.85
3636.17
3607.58
3577.4
3545.97
3513.65
3480.77
3447.67
3414.69
3382.71
3350.94
3320.1
3290.41
3262.08
3235.26
3210.06
3186.58
3164.89
3145.01
3126.98
3110.81
3096.49
3084.01
3073.37
3064.53
3057.49
3052.21
3048.65
3046.83
3046.7
3048.26
3051.46
3056.27
3062.66
3070.6
3080.05
3091.02
3103.44
3117.32
3132.64
3149.38
3167.54
3187.11
3208.07
3230.44
3254.19
3279.27
3305.66
3333.26
3361.97
3391.56
3421.77
3452.7
3484.07
3515.55
3546.82
3577.58
3607.47
3636.12
3663.14
3688.16
3710.84
3730.85
3747.86
3761.59
3771.83
3778.36
3781.08
3779.06
3773.05
3763.07
3749.15
3731.46
3710.22
3685.74
3658.4
3628.57
3596.73
3563.34
3528.9
3493.93
3458.94
3424.45
3391.67
3360.05
3328.98
3299.29
3271.33
3245.33
3221.36
3199.47
2952.68
2957.23
2963.26
2970.78
2979.83
2990.47
3002.76
3016.75
3032.51
3050.07
3069.44
3090.67
3113.73
3138.6
3165.23
3193.53
3223.39
3254.64
3287
3319.76
3353.81
3388.29
3422.82
3457.03
3490.49
3522.78
3553.48
3582.15
3608.45
3631.99
3652.44
3669.5
3682.92
3692.49
3698.07
3699.53
3696.79
3689.99
3679.2
3664.59
3646.38
3624.84
3600.29
3573.06
3543.58
3512.23
3479.42
3445.55
3411.03
3376.2
3341.41
3312.24
3279.11
3247
3216.15
3186.72
3158.86
3132.64
3108.14
3085.4
3064.43
3045.24
3027.83
3012.19
2998.27
2986.07
2975.54
2966.68
2959.45
2953.84
2949.82
2947.4
2946.62
2947.55
2950.16
2954.41
2960.3
2967.82
2976.97
2987.71
3000.04
3013.94
3029.4
3046.4
3064.94
3085
3106.57
3129.63
3154.16
3180.11
3207.45
3236.1
3265.95
3296.86
3328.63
3361.03
3393.77
3426.54
3458.99
3490.77
3521.47
3550.72
3578.15
3603.35
3625.98
3645.71
3662.21
3675.22
3684.5
3689.86
3691.15
3688.33
3681.42
3670.46
3655.59
3637.03
3615.04
3589.98
3562.21
3532.17
3500.29
3467.03
3432.85
3398.2
3363.48
3329.09
3295.38
3262.64
3231.14
3201.08
3172.62
3145.86
3120.89
3097.75
3076.46
3057.03
3039.44
3023.68
3009.72
2997.53
2987.07
2978.3
2971.18
2965.65
2961.65
2959.18
2958.17
2958.55
2960.31
2963.42
2967.89
2973.72
2980.92
2989.53
2999.57
3011.1
3024.16
3038.8
3055.07
3073.02
3092.68
3114.06
3137.16
3161.95
3188.35
3216.28
3245.6
3276.15
3307.72
3340.04
3372.81
3405.73
3438.45
3470.6
3501.81
3531.67
3559.8
3585.83
3609.37
3630.08
3647.66
3661.84
3672.39
3679.14
3681.95
3680.76
3675.6
3666.5
3653.54
3636.9
3616.79
3593.48
3567.3
3538.61
3507.8
3475.31
3441.56
3407.02
3372.12
3337.3
3302.97
3269.51
3237.23
3206.43
3177.34
3150.12
3124.9
3101.76
3080.72
3061.77
3044.87
3029.94
3016.91
3005.65
2996.06
2988.05
2981.5
2976.32
2972.44
2969.76
2968.29
2967.99
2968.8
2970.77
2973.93
2978.3
2983.98
2991.04
2999.57
3009.68
3021.47
3035.02
3050.44
3067.79
3087.12
3108.43
3131.73
3156.95
3184.01
3212.78
3243.07
3274.67
3307.32
3340.68
3374.43
3408.19
3441.56
3474.15
3505.51
3535.26
3563
3588.38
3611.03
3630.67
3647.06
3659.99
3669.29
3674.86
3676.66
3674.67
3669
3659.7
3646.92
3630.85
3611.69
3589.71
3565.18
3538.41
3509.73
3479.45
3447.94
3415.54
3382.58
3349.4
3316.36
3284.31
3252.49
3221.61
3191.88
3163.53
3136.69
3111.49
3088
3066.31
3046.43
3028.41
3012.24
2997.93
2985.46
2974.82
2966
2958.97
2953.69
2950.15
2948.34
2948.21
2949.77
2952.98
2957.79
2964.19
2972.13
2981.59
2992.55
3004.98
3018.85
3034.17
3050.91
3069.06
3088.63
3109.59
3131.96
3155.7
3180.79
3207.18
3234.8
3263.53
3293.15
3323.4
3354.38
3385.81
3417.36
3448.7
3479.55
3509.53
3538.28
3565.4
3590.51
3613.29
3633.39
3650.48
3664.29
3674.58
3681.15
3683.89
3681.9
3675.87
3665.86
3651.89
3634.12
3612.79
3588.2
3560.75
3530.8
3498.84
3465.33
3430.77
3395.69
3360.6
3326.05
3293.2
3261.49
3230.38
3200.66
3172.67
3146.66
3122.68
3100.79
2854.18
2858.72
2864.74
2872.25
2881.27
2891.9
2904.16
2918.14
2933.88
2951.42
2970.78
2992
3015.05
3039.92
3066.56
3094.88
3124.76
3156.05
3188.47
3221.28
3255.41
3289.99
3324.62
3358.94
3392.52
3424.94
3455.77
3484.57
3510.98
3534.65
3555.2
3572.35
3585.84
3595.47
3601.07
3602.55
3599.79
3592.95
3582.09
3567.41
3549.1
3527.45
3502.78
3475.43
3445.82
3414.35
3381.41
3347.44
3312.82
3277.91
3243.04
3213.7
3180.52
3148.38
3117.5
3088.07
3060.19
3033.97
3009.48
2986.74
2965.78
2946.61
2929.22
2913.58
2899.68
2887.49
2876.97
2868.12
2860.9
2855.29
2851.28
2848.87
2848.09
2849.02
2851.62
2855.87
2861.76
2869.28
2878.42
2889.16
2901.48
2915.38
2930.84
2947.83
2966.37
2986.43
3007.99
3031.05
3055.57
3081.53
3108.88
3137.55
3167.42
3198.37
3230.2
3262.67
3295.49
3328.35
3360.91
3392.79
3423.61
3452.99
3480.54
3505.85
3528.59
3548.43
3565.02
3578.11
3587.45
3592.85
3594.17
3591.34
3584.4
3573.38
3558.43
3539.77
3517.67
3492.48
3464.57
3434.39
3402.38
3368.99
3334.69
3299.92
3265.1
3230.62
3196.84
3164.06
3132.51
3102.43
3073.94
3047.18
3022.21
2999.08
2977.8
2958.38
2940.8
2925.06
2911.11
2898.94
2888.5
2879.74
2872.64
2867.12
2863.14
2860.68
2859.68
2860.07
2861.83
2864.94
2869.41
2875.24
2882.42
2891.01
2901.05
2912.55
2925.59
2940.22
2956.47
2974.4
2994.05
3015.42
3038.52
3063.3
3089.72
3117.67
3147.03
3177.62
3209.25
3241.63
3274.49
3307.5
3340.33
3372.59
3403.91
3433.89
3462.15
3488.3
3511.95
3532.76
3550.44
3564.7
3575.31
3582.1
3584.93
3583.75
3578.56
3569.41
3556.39
3539.67
3519.46
3496.04
3469.74
3440.92
3409.98
3377.35
3343.48
3308.81
3273.8
3238.88
3204.46
3170.92
3138.59
3107.74
3078.61
3051.38
3026.15
3003.02
2981.99
2963.07
2946.2
2931.3
2918.3
2907.08
2897.52
2889.54
2883.01
2877.86
2874
2871.33
2869.87
2869.57
2870.38
2872.34
2875.49
2879.84
2885.49
2892.52
2901.02
2911.1
2922.86
2936.39
2951.78
2969.11
2988.42
3009.72
3033.02
3058.25
3085.33
3114.13
3144.46
3176.12
3208.84
3242.29
3276.14
3310
3343.49
3376.2
3407.69
3437.55
3465.42
3490.91
3513.67
3533.39
3549.86
3562.85
3572.19
3577.78
3579.59
3577.59
3571.87
3562.53
3549.68
3533.53
3514.29
3492.21
3467.58
3440.71
3411.91
3381.54
3349.92
3317.42
3284.37
3251.11
3217.99
3185.86
3153.98
3123.05
3093.29
3064.9
3038.04
3012.83
2989.34
2967.64
2947.77
2929.76
2913.6
2899.29
2886.83
2876.21
2867.39
2860.38
2855.11
2851.58
2849.78
2849.66
2851.22
2854.44
2859.26
2865.66
2873.6
2883.06
2894.03
2906.46
2920.33
2935.64
2952.38
2970.52
2990.08
3011.04
3033.4
3057.15
3082.24
3108.64
3136.27
3165.03
3194.69
3224.99
3256.02
3287.52
3319.15
3350.58
3381.54
3411.62
3440.48
3467.72
3492.95
3515.84
3536.04
3553.23
3567.12
3577.47
3584.09
3586.86
3584.9
3578.86
3568.79
3554.76
3536.91
3515.47
3490.76
3463.17
3433.09
3400.98
3367.33
3332.63
3297.42
3262.22
3227.59
3194.65
3162.87
3131.7
3101.93
3073.92
3047.89
3023.91
3002.02
2755.62
2760.15
2766.15
2773.65
2782.66
2793.26
2805.5
2819.45
2835.17
2852.69
2872.04
2893.24
2916.29
2941.16
2967.81
2996.14
3026.06
3057.4
3089.88
3122.74
3156.96
3191.65
3226.4
3260.85
3294.57
3327.14
3358.11
3387.06
3413.62
3437.41
3458.08
3475.34
3488.91
3498.6
3504.23
3505.72
3502.95
3496.06
3485.13
3470.35
3451.93
3430.17
3405.36
3377.87
3348.11
3316.49
3283.42
3249.32
3214.59
3179.6
3144.65
3115.07
3081.85
3049.68
3018.78
2989.33
2961.44
2935.23
2910.74
2888.01
2867.06
2847.9
2830.53
2814.91
2801.02
2788.84
2778.34
2769.49
2762.28
2756.68
2752.67
2750.27
2749.49
2750.42
2753.02
2757.27
2763.16
2770.67
2779.81
2790.55
2802.87
2816.76
2832.21
2849.2
2867.73
2887.78
2909.34
2932.4
2956.92
2982.88
3010.24
3038.93
3068.84
3099.83
3131.72
3164.27
3197.18
3230.15
3262.82
3294.84
3325.79
3355.3
3382.99
3408.44
3431.31
3451.26
3467.97
3481.15
3490.56
3496.01
3497.34
3494.51
3487.53
3476.45
3461.41
3442.63
3420.4
3395.06
3367
3336.66
3304.49
3270.95
3236.51
3201.61
3166.68
3132.11
3098.25
3065.4
3033.81
3003.69
2975.19
2948.42
2923.45
2900.32
2879.05
2859.65
2842.09
2826.36
2812.43
2800.27
2789.85
2781.12
2774.03
2768.53
2764.57
2762.12
2761.13
2761.53
2763.3
2766.41
2770.88
2776.69
2783.87
2792.45
2802.46
2813.95
2826.96
2841.57
2857.79
2875.71
2895.34
2916.7
2939.79
2964.58
2991.02
3018.99
3048.39
3079.03
3110.72
3143.19
3176.13
3209.25
3242.2
3274.59
3306.04
3336.16
3364.55
3390.84
3414.62
3435.56
3453.34
3467.69
3478.38
3485.21
3488.07
3486.89
3481.68
3472.48
3459.38
3442.57
3422.25
3398.7
3372.26
3343.3
3312.2
3279.42
3245.4
3210.59
3175.45
3140.41
3105.89
3072.26
3039.86
3008.96
2979.8
2952.54
2927.31
2904.19
2883.18
2864.28
2847.44
2832.58
2819.62
2808.43
2798.92
2790.97
2784.47
2779.34
2775.5
2772.86
2771.42
2771.11
2771.92
2773.87
2776.99
2781.33
2786.95
2793.95
2802.41
2812.46
2824.18
2837.67
2853.04
2870.34
2889.63
2910.93
2934.22
2959.46
2986.57
3015.4
3045.79
3077.51
3110.32
3143.86
3177.82
3211.81
3245.43
3278.27
3309.9
3339.91
3367.91
3393.53
3416.4
3436.23
3452.79
3465.85
3475.23
3480.85
3482.66
3480.64
3474.89
3465.48
3452.57
3436.32
3416.98
3394.79
3370.05
3343.06
3314.14
3283.64
3251.91
3219.3
3186.15
3152.78
3119.58
3087.36
3055.42
3024.43
2994.62
2966.2
2939.32
2914.09
2890.59
2868.9
2849.03
2831.02
2814.87
2800.58
2788.13
2777.52
2768.72
2761.71
2756.46
2752.94
2751.15
2751.04
2752.61
2755.84
2760.66
2767.07
2775.01
2784.48
2795.45
2807.87
2821.74
2837.05
2853.78
2871.92
2891.47
2912.42
2934.78
2958.53
2983.62
3010.03
3037.69
3066.47
3096.18
3126.52
3157.63
3189.21
3220.93
3252.46
3283.53
3313.74
3342.73
3370.1
3395.46
3418.48
3438.8
3456.1
3470.08
3480.51
3487.18
3489.98
3488.04
3481.99
3471.88
3457.77
3439.83
3418.27
3393.42
3365.67
3335.43
3303.16
3269.34
3234.48
3199.13
3163.8
3129.07
3096.04
3064.16
3032.94
3003.12
2975.07
2949.02
2925.03
2903.15
2657.01
2661.52
2667.51
2674.98
2683.97
2694.55
2706.77
2720.69
2736.38
2753.88
2773.21
2794.4
2817.44
2842.31
2868.97
2897.32
2927.27
2958.67
2991.22
3024.14
3058.47
3093.28
3128.16
3162.77
3196.64
3229.37
3260.52
3289.62
3316.34
3340.29
3361.09
3378.46
3392.13
3401.88
3407.56
3409.06
3406.27
3399.32
3388.32
3373.44
3354.89
3332.98
3308.02
3280.36
3250.45
3218.66
3185.44
3151.2
3116.34
3081.25
3046.24
3016.36
2983.12
2950.91
2919.99
2890.51
2862.62
2836.4
2811.91
2789.2
2768.26
2749.12
2731.76
2716.16
2702.29
2690.13
2679.64
2670.8
2663.6
2658
2654.01
2651.61
2650.83
2651.76
2654.36
2658.6
2664.49
2672
2681.13
2691.87
2704.18
2718.07
2733.52
2750.5
2769.03
2789.07
2810.62
2833.67
2858.19
2884.16
2911.53
2940.24
2970.18
3001.24
3033.19
3065.83
3098.85
3131.93
3164.74
3196.89
3228
3257.66
3285.51
3311.11
3334.13
3354.22
3371.05
3384.33
3393.82
3399.32
3400.68
3397.84
3390.82
3379.66
3364.52
3345.61
3323.23
3297.72
3269.49
3238.97
3206.62
3172.92
3138.32
3103.27
3068.21
3033.54
2999.58
2966.66
2935.03
2904.87
2876.35
2849.57
2824.6
2801.49
2780.23
2760.84
2743.3
2727.59
2713.68
2701.54
2691.14
2682.43
2675.36
2669.88
2665.94
2663.51
2662.53
2662.94
2664.71
2667.83
2672.29
2678.1
2685.26
2693.82
2703.81
2715.27
2728.27
2742.84
2759.05
2776.94
2796.55
2817.9
2840.98
2865.78
2892.23
2920.24
2949.68
2980.37
3012.14
3044.7
3077.75
3110.99
3144.06
3176.59
3208.2
3238.47
3267.03
3293.47
3317.4
3338.47
3356.38
3370.83
3381.59
3388.48
3391.37
3390.19
3384.95
3375.69
3362.51
3345.59
3325.14
3301.46
3274.86
3245.73
3214.46
3181.51
3147.32
3112.35
3077.06
3041.89
3007.25
2973.53
2941.05
2910.09
2880.89
2853.61
2828.38
2805.26
2784.28
2765.41
2748.6
2733.79
2720.87
2709.72
2700.25
2692.34
2685.88
2680.78
2676.96
2674.34
2672.91
2672.6
2673.4
2675.35
2678.45
2682.76
2688.36
2695.32
2703.74
2713.75
2725.42
2738.88
2754.21
2771.49
2790.76
2812.04
2835.33
2860.59
2887.72
2916.59
2947.04
2978.84
3011.73
3045.39
3079.47
3113.59
3147.36
3180.36
3212.15
3242.32
3270.47
3296.24
3319.25
3339.2
3355.85
3368.99
3378.42
3384.07
3385.88
3383.85
3378.05
3368.58
3355.57
3339.23
3319.78
3297.46
3272.59
3245.46
3216.41
3185.78
3153.92
3121.18
3087.9
3054.43
3021.13
2988.81
2956.79
2925.74
2895.88
2867.42
2840.52
2815.27
2791.77
2770.07
2750.21
2732.21
2716.07
2701.79
2689.36
2678.76
2669.97
2662.98
2657.74
2654.23
2652.45
2652.35
2653.94
2657.17
2662
2668.41
2676.37
2685.83
2696.8
2709.23
2723.09
2738.4
2755.13
2773.26
2792.8
2813.74
2836.1
2859.84
2884.94
2911.36
2939.04
2967.85
2997.62
3028.02
3059.19
3090.86
3122.68
3154.34
3185.54
3215.88
3245.02
3272.54
3298.05
3321.21
3341.67
3359.09
3373.18
3383.69
3390.42
3393.25
3391.34
3385.28
3375.12
3360.93
3342.87
3321.17
3296.17
3268.25
3237.82
3205.37
3171.37
3136.33
3100.8
3065.33
3030.5
2997.37
2965.38
2934.09
2904.22
2876.13
2850.06
2826.06
2804.18
2558.33
2562.83
2568.8
2576.26
2585.22
2595.77
2607.96
2621.86
2637.52
2654.99
2674.3
2695.48
2718.51
2743.38
2770.04
2798.42
2828.41
2859.87
2892.5
2925.49
2959.93
2994.88
3029.91
3064.68
3098.73
3131.64
3162.97
3192.26
3219.15
3243.27
3264.22
3281.72
3295.5
3305.33
3311.04
3312.55
3309.75
3302.74
3291.64
3276.65
3257.96
3235.9
3210.76
3182.93
3152.83
3120.87
3087.47
3053.07
3018.07
2982.87
2947.81
2917.56
2884.3
2852.07
2821.11
2791.61
2763.7
2737.48
2713.01
2690.3
2669.39
2650.26
2632.92
2617.34
2603.49
2591.34
2580.87
2572.05
2564.85
2559.26
2555.28
2552.89
2552.11
2553.04
2555.63
2559.87
2565.76
2573.26
2582.39
2593.12
2605.43
2619.32
2634.76
2651.74
2670.26
2690.29
2711.84
2734.88
2759.4
2785.37
2812.75
2841.48
2871.47
2902.58
2934.62
2967.35
3000.48
3033.7
3066.65
3098.97
3130.24
3160.08
3188.1
3213.87
3237.05
3257.29
3274.26
3287.66
3297.24
3302.79
3304.18
3301.34
3294.27
3283.03
3267.77
3248.72
3226.17
3200.47
3172.05
3141.33
3108.78
3074.89
3040.11
3004.91
2969.71
2934.91
2900.86
2867.86
2836.16
2805.97
2777.43
2750.64
2725.67