/*--------------------------------*- C++ -*----------------------------------*\
| =========                 |                                                 |
| \\      /  F ield         | OpenFOAM: The Open Source CFD Toolbox           |
|  \\    /   O peration     | Version:  3.0.1                                 |
|   \\  /    A nd           | Web:      www.OpenFOAM.org                      |
|    \\/     M anipulation  |                                                 |
\*---------------------------------------------------------------------------*/
FoamFile
{
    version     2.0;
    format      ascii;
    class       volScalarField;
    location    "55";
    object      p;
}
// * * * * * * * * * * * * * * * * * * * * * * * * * * * * * * * * * * * * * //

dimensions      [1 -1 -2 0 0 0 0];

internalField   nonuniform List<scalar> 
21420
(
3909.33
3942.62
3976.44
4010.45
4044.3
4077.45
4109.5
4139.98
4168.51
4194.77
4218.39
4239.03
4256.43
4270.34
4280.55
4286.92
4289.22
4287.55
4281.94
4272.52
4259.34
4242.6
4222.53
4199.43
4173.62
4145.45
4115.28
4083.49
4050.52
4016.74
3982.54
3948.28
3914.33
3880.97
3848.47
3817.07
3786.97
3758.33
3731.27
3705.91
3682.44
3660.54
3640.29
3621.71
3604.81
3589.57
3575.94
3563.88
3553.35
3544.3
3536.66
3530.4
3525.46
3521.82
3519.43
3518.27
3518.45
3519.93
3522.68
3526.71
3532.04
3538.72
3546.79
3556.34
3567.41
3580.11
3594.54
3610.73
3628.8
3648.79
3670.68
3693.97
3717.05
3741.96
3768.67
3796.82
3826.12
3856.33
3887.18
3918.42
3949.83
3981.15
4012.14
4042.56
4072.1
4100.49
4127.37
4152.41
4175.26
4195.55
4212.93
4227.09
4237.75
4244.69
4247.76
4246.81
4241.9
4233.04
4220.36
4203.96
4184.06
4160.9
4134.8
4106.08
4075.11
4042.29
4008.05
3972.82
3937.02
3901.07
3865.38
3830.29
3796.15
3763.23
3731.78
3701.99
3674.03
3647.98
3623.91
3601.82
3581.73
3563.62
3547.46
3533.2
3520.76
3510.09
3501.11
3493.75
3487.95
3483.64
3480.76
3479.24
3479.03
3480.11
3482.4
3485.89
3490.54
3496.35
3503.3
3511.39
3520.62
3531
3542.54
3555.24
3569.15
3584.29
3600.68
3618.38
3637.42
3657.86
3679.7
3702.93
3727.56
3753.54
3780.79
3809.21
3838.62
3868.82
3899.56
3930.53
3961.41
3991.83
4021.4
4049.71
4076.38
4101
4123.19
4142.56
4158.78
4171.52
4180.54
4185.61
4186.59
4183.29
4175.92
4164.43
4148.99
4129.79
4107.16
4081.44
4053.03
4022.36
3989.89
3956.1
3921.44
3886.36
3851.3
3816.63
3782.71
3749.82
3718.22
3688.1
3659.6
3632.86
3607.94
3584.89
3563.74
3544.71
3527.36
3511.89
3498.25
3486.37
3476.19
3467.64
3460.62
3455.06
3450.87
3447.98
3446.3
3445.77
3446.35
3447.97
3450.59
3454.19
3458.73
3464.2
3470.61
3477.96
3486.3
3495.65
3506.07
3517.6
3530.3
3544.23
3559.43
3575.95
3593.83
3613.34
3634.04
3656.11
3679.53
3704.25
3730.16
3757.16
3785.07
3813.7
3842.8
3872.09
3901.26
3929.97
3957.86
3984.54
4009.64
4032.77
4053.57
4071.65
4086.71
4098.43
4106.56
4110.92
4111.35
4107.67
4100.13
4088.73
4073.52
4054.79
4032.86
4008.06
3980.81
3951.56
3920.76
3888.89
3856.41
3823.73
3791.24
3759.28
3728.18
3698.21
3669.61
3642.57
3617.26
3593.73
3571.96
3552.66
3537.3
3524.02
3512.63
3503.24
3495.76
3490.17
3486.33
3484.16
3483.52
3484.2
3485.93
3489.26
3493.82
3499.45
3506.07
3513.54
3521.8
3530.74
3540.3
3550.42
3561.07
3572.21
3583.84
3595.93
3608.58
3621.81
3636.31
3653.96
3671.71
3690.39
3710.36
3731.93
3755.29
3780.48
3807.52
3836.31
3866.71
3898.52
3931.43
3965.1
3999.16
4033.17
4066.7
4099.25
4130.34
4159.57
4186.5
4210.72
4231.92
4249.76
4264
4274.43
4280.89
4283.26
4281.56
4275.79
4266.06
4252.68
4235.87
4215.96
4193.25
4168.12
4140.93
4112.06
4081.94
4050.95
4019.44
3987.8
3956.31
3925.24
3894.82
3865.21
3836.59
3809.06
3782.72
3757.67
3733.99
3711.79
3691.37
3672.58
3655.02
3638.97
3624.49
3811.18
3844.48
3878.31
3912.34
3946.21
3979.38
4011.44
4041.94
4070.49
4096.76
4120.39
4141.05
4158.46
4172.38
4182.6
4188.97
4191.29
4189.6
4183.99
4174.57
4161.37
4144.62
4124.53
4101.42
4075.59
4047.41
4017.22
3985.42
3952.43
3918.64
3884.42
3850.15
3816.18
3782.81
3750.31
3718.91
3688.8
3660.15
3633.09
3607.74
3584.27
3562.37
3542.11
3523.54
3506.64
3491.4
3477.77
3465.72
3455.19
3446.14
3438.51
3432.24
3427.31
3423.67
3421.28
3420.12
3420.3
3421.79
3424.53
3428.56
3433.89
3440.57
3448.64
3458.18
3469.25
3481.95
3496.37
3512.56
3530.63
3550.62
3572.51
3595.79
3618.88
3643.79
3670.52
3698.67
3727.99
3758.21
3789.07
3820.31
3851.73
3883.07
3914.07
3944.5
3974.06
4002.45
4029.35
4054.41
4077.26
4097.56
4114.96
4129.13
4139.8
4146.75
4149.82
4148.88
4143.95
4135.08
4122.4
4105.99
4086.07
4062.91
4036.79
4008.05
3977.06
3944.23
3909.97
3874.72
3838.9
3802.94
3767.23
3732.14
3697.98
3665.06
3633.6
3603.81
3575.84
3549.79
3525.72
3503.63
3483.54
3465.44
3449.28
3435.02
3422.59
3411.92
3402.94
3395.59
3389.79
3385.48
3382.6
3381.08
3380.88
3381.96
3384.25
3387.74
3392.39
3398.2
3405.15
3413.24
3422.47
3432.85
3444.38
3457.09
3471
3486.13
3502.53
3520.22
3539.25
3559.69
3581.53
3604.76
3629.39
3655.37
3682.63
3711.05
3740.47
3770.68
3801.43
3832.41
3863.3
3893.74
3923.32
3951.65
3978.34
4002.98
4025.18
4044.57
4060.8
4073.56
4082.59
4087.66
4088.65
4085.36
4077.97
4066.48
4051.02
4031.81
4009.17
3983.43
3955
3924.31
3891.82
3858
3823.33
3788.24
3753.16
3718.48
3684.54
3651.65
3620.04
3589.91
3561.42
3534.67
3509.75
3486.71
3465.55
3446.53
3429.18
3413.71
3400.07
3388.2
3378.03
3369.47
3362.46
3356.91
3352.72
3349.82
3348.15
3347.63
3348.21
3349.83
3352.45
3356.05
3360.59
3366.06
3372.47
3379.82
3388.15
3397.5
3407.92
3419.45
3432.15
3446.07
3461.27
3477.78
3495.66
3515.18
3535.87
3557.94
3581.36
3606.08
3632
3659
3686.92
3715.55
3744.66
3773.97
3803.15
3831.88
3859.78
3886.48
3911.6
3934.75
3955.55
3973.66
3988.73
4000.46
4008.61
4012.97
4013.41
4009.73
4002.18
3990.77
3975.54
3956.81
3934.86
3910.04
3882.77
3853.49
3822.68
3790.79
3758.29
3725.59
3693.09
3661.12
3630.01
3600.03
3571.42
3544.38
3519.07
3495.54
3473.78
3454.48
3439.12
3425.85
3414.47
3405.09
3397.61
3392.03
3388.2
3386.03
3385.4
3386.08
3387.81
3391.15
3395.71
3401.35
3407.97
3415.44
3423.7
3432.64
3442.2
3452.32
3462.97
3474.1
3485.72
3497.81
3510.45
3523.68
3538.16
3555.82
3573.55
3592.22
3612.19
3633.75
3657.1
3682.29
3709.33
3738.13
3768.54
3800.35
3833.28
3866.96
3901.03
3935.06
3968.61
4001.18
4032.29
4061.54
4088.49
4112.73
4133.94
4151.8
4166.05
4176.48
4182.95
4185.33
4183.61
4177.84
4168.1
4154.71
4137.89
4117.96
4095.23
4070.08
4042.88
4013.99
3983.85
3952.84
3921.32
3889.67
3858.17
3827.1
3796.67
3767.05
3738.43
3710.9
3684.56
3659.51
3635.83
3613.62
3593.21
3574.41
3556.86
3540.8
3526.32
3712.97
3746.29
3780.16
3814.22
3848.12
3881.32
3913.42
3943.96
3972.54
3998.84
4022.5
4043.19
4060.63
4074.56
4084.79
4091.18
4093.53
4091.8
4086.19
4076.75
4063.54
4046.76
4026.65
4003.51
3977.65
3949.43
3919.21
3887.37
3854.34
3820.52
3786.27
3751.98
3717.99
3684.61
3652.09
3620.67
3590.56
3561.9
3534.84
3509.49
3486.02
3464.12
3443.87
3425.3
3408.4
3393.17
3379.55
3367.5
3356.98
3347.93
3340.3
3334.04
3329.11
3325.47
3323.08
3321.92
3322.11
3323.59
3326.34
3330.36
3335.69
3342.36
3350.43
3359.96
3371.03
3383.72
3398.14
3414.33
3432.39
3452.37
3474.28
3497.55
3520.64
3545.56
3572.31
3600.48
3629.82
3660.06
3690.94
3722.21
3753.65
3785.01
3816.03
3846.48
3876.06
3904.48
3931.4
3956.49
3979.37
3999.7
4017.12
4031.31
4042
4048.96
4052.03
4051.1
4046.16
4037.28
4024.58
4008.15
3988.21
3965.02
3938.87
3910.1
3879.08
3846.21
3811.92
3776.63
3740.78
3704.79
3669.05
3633.93
3599.76
3566.81
3535.34
3505.54
3477.56
3451.52
3427.44
3405.36
3385.27
3367.18
3351.02
3336.77
3324.34
3313.68
3304.71
3297.36
3291.57
3287.26
3284.39
3282.87
3282.68
3283.76
3286.05
3289.54
3294.2
3300.01
3306.96
3315.05
3324.28
3334.65
3346.18
3358.89
3372.79
3387.92
3404.31
3422
3441.03
3461.46
3483.3
3506.53
3531.15
3557.14
3584.4
3612.83
3642.26
3672.49
3703.26
3734.27
3765.19
3795.65
3825.27
3853.64
3880.36
3905.03
3927.27
3946.69
3962.95
3975.74
3984.79
3989.88
3990.87
3987.6
3980.18
3968.68
3953.2
3933.97
3911.29
3885.51
3857.04
3826.31
3793.78
3759.93
3725.21
3690.09
3654.98
3620.27
3586.32
3553.41
3521.79
3491.65
3463.15
3436.4
3411.48
3388.44
3367.28
3348.27
3330.92
3315.46
3301.82
3289.96
3279.79
3271.25
3264.24
3258.69
3254.51
3251.62
3249.95
3249.44
3250.02
3251.64
3254.27
3257.87
3262.41
3267.88
3274.29
3281.64
3289.97
3299.32
3309.72
3321.25
3333.95
3347.86
3363.05
3379.56
3397.43
3416.95
3437.64
3459.71
3483.13
3507.85
3533.78
3560.79
3588.72
3617.37
3646.5
3675.83
3705.04
3733.79
3761.72
3788.46
3813.61
3836.79
3857.63
3875.77
3890.87
3902.63
3910.8
3915.17
3915.62
3911.95
3904.37
3892.95
3877.71
3858.94
3836.95
3812.1
3784.79
3755.47
3724.61
3692.68
3660.14
3627.42
3594.89
3562.9
3531.76
3501.77
3473.15
3446.11
3420.79
3397.26
3375.51
3356.23
3340.87
3327.61
3316.25
3306.88
3299.41
3293.84
3290.02
3287.87
3287.26
3287.95
3289.68
3293.04
3297.6
3303.25
3309.87
3317.34
3325.6
3334.54
3344.09
3354.21
3364.85
3375.98
3387.59
3399.68
3412.3
3425.52
3439.96
3457.65
3475.34
3493.99
3513.94
3535.49
3558.84
3584.02
3611.06
3639.87
3670.29
3702.12
3735.07
3768.77
3802.88
3836.95
3870.53
3903.14
3934.29
3963.58
3990.57
4014.84
4036.08
4053.97
4068.24
4078.69
4085.16
4087.57
4085.8
4080.02
4070.28
4056.86
4040.01
4020.05
3997.29
3972.11
3944.87
3915.94
3885.77
3854.74
3823.19
3791.51
3759.99
3728.9
3698.46
3668.84
3640.21
3612.67
3586.33
3561.28
3537.59
3515.38
3494.99
3476.18
3458.62
3442.56
3428.08
3614.72
3648.07
3681.98
3716.09
3750.04
3783.29
3815.45
3846.03
3874.66
3901.01
3924.72
3945.45
3962.92
3976.89
3987.14
3993.54
3995.91
3994.17
3988.55
3979.09
3965.84
3949.03
3928.87
3905.69
3879.77
3851.5
3821.23
3789.34
3756.27
3722.4
3688.11
3653.78
3619.76
3586.35
3553.81
3522.37
3492.25
3463.58
3436.51
3411.17
3387.7
3365.8
3345.55
3326.98
3310.1
3294.87
3281.25
3269.21
3258.7
3249.65
3242.03
3235.78
3230.85
3227.22
3224.83
3223.68
3223.87
3225.35
3228.1
3232.12
3237.44
3244.11
3252.17
3261.69
3272.75
3285.43
3299.84
3316.02
3334.08
3354.06
3375.97
3399.24
3422.32
3447.27
3474.04
3502.24
3531.61
3561.88
3592.8
3624.1
3655.57
3686.96
3718.02
3748.51
3778.12
3806.58
3833.54
3858.66
3881.59
3901.95
3919.4
3933.63
3944.34
3951.32
3954.4
3953.49
3948.52
3939.63
3926.91
3910.45
3890.48
3867.24
3841.04
3812.22
3781.15
3748.23
3713.88
3678.54
3642.65
3606.61
3570.83
3535.67
3501.47
3468.5
3437.01
3407.19
3379.2
3353.16
3329.08
3307
3286.92
3268.83
3252.69
3238.44
3226.02
3215.37
3206.41
3199.07
3193.29
3188.99
3186.12
3184.61
3184.43
3185.51
3187.81
3191.3
3195.96
3201.77
3208.72
3216.81
3226.04
3236.41
3247.94
3260.64
3274.53
3289.66
3306.04
3323.73
3342.75
3363.17
3385
3408.23
3432.86
3458.84
3486.12
3514.56
3544.01
3574.26
3605.06
3636.11
3667.07
3697.58
3727.24
3755.67
3782.44
3807.17
3829.45
3848.93
3865.23
3878.06
3887.14
3892.25
3893.26
3890.01
3882.55
3871.04
3855.53
3836.25
3813.52
3787.68
3759.15
3728.36
3695.77
3661.86
3627.09
3591.91
3556.76
3522.02
3488.03
3455.1
3423.46
3393.31
3364.8
3338.05
3313.13
3290.09
3268.93
3249.93
3232.58
3217.12
3203.5
3191.65
3181.49
3172.96
3165.96
3160.43
3156.26
3153.38
3151.71
3151.21
3151.79
3153.42
3156.05
3159.66
3164.2
3169.67
3176.07
3183.42
3191.74
3201.08
3211.48
3223
3235.69
3249.6
3264.78
3281.28
3299.14
3318.66
3339.34
3361.41
3384.84
3409.56
3435.5
3462.52
3490.47
3519.14
3548.3
3577.67
3606.92
3635.71
3663.69
3690.47
3715.68
3738.91
3759.81
3777.99
3793.13
3804.93
3813.13
3817.52
3817.98
3814.34
3806.72
3795.27
3780
3761.19
3739.15
3714.24
3686.86
3657.48
3626.56
3594.58
3561.98
3529.21
3496.64
3464.61
3433.45
3403.44
3374.8
3347.75
3322.43
3298.9
3277.15
3257.9
3242.55
3229.31
3217.96
3208.61
3201.16
3195.61
3191.81
3189.68
3189.09
3189.8
3191.54
3194.92
3199.49
3205.14
3211.76
3219.24
3227.5
3236.43
3245.99
3256.1
3266.73
3277.85
3289.45
3301.52
3314.13
3327.32
3341.71
3359.44
3377.08
3395.69
3415.62
3437.15
3460.49
3485.67
3512.71
3541.53
3571.96
3603.82
3636.8
3670.55
3704.71
3738.83
3772.47
3805.14
3836.35
3865.69
3892.74
3917.06
3938.35
3956.27
3970.58
3981.05
3987.54
3989.97
3988.14
3982.36
3972.59
3959.14
3942.25
3922.24
3899.43
3874.2
3846.9
3817.92
3787.71
3756.62
3725.03
3693.32
3661.77
3630.66
3600.2
3570.57
3541.93
3514.38
3488.04
3462.98
3439.29
3417.08
3396.7
3377.88
3360.32
3344.25
3329.77
3516.41
3549.81
3583.77
3617.94
3651.96
3685.29
3717.51
3748.16
3776.86
3803.27
3827.04
3847.83
3865.35
3879.36
3889.64
3896.05
3898.44
3896.69
3891.06
3881.56
3868.28
3851.42
3831.2
3807.96
3781.98
3753.64
3723.3
3691.34
3658.2
3624.27
3589.93
3555.55
3521.49
3488.04
3455.47
3424.01
3393.86
3365.18
3338.1
3312.78
3289.31
3267.41
3247.16
3228.6
3211.72
3196.5
3182.89
3170.87
3160.36
3151.33
3143.71
3137.47
3132.55
3128.92
3126.54
3125.38
3125.58
3127.06
3129.81
3133.83
3139.14
3145.8
3153.85
3163.36
3174.41
3187.08
3201.47
3217.65
3235.69
3255.67
3277.59
3300.86
3323.93
3348.91
3375.72
3403.96
3433.37
3463.68
3494.64
3525.98
3557.5
3588.94
3620.04
3650.57
3680.23
3708.74
3735.75
3760.93
3783.91
3804.32
3821.82
3836.09
3846.83
3853.83
3856.93
3856.03
3851.04
3842.14
3829.38
3812.88
3792.86
3769.57
3743.31
3714.42
3683.28
3650.29
3615.87
3580.46
3544.5
3508.41
3472.57
3437.36
3403.11
3370.11
3338.59
3308.76
3280.76
3254.71
3230.63
3208.55
3188.48
3170.4
3154.27
3140.04
3127.64
3117
3108.05
3100.72
3094.95
3090.66
3087.8
3086.3
3086.13
3087.21
3089.52
3093.01
3097.67
3103.48
3110.43
3118.52
3127.75
3138.12
3149.64
3162.33
3176.23
3191.34
3207.72
3225.39
3244.41
3264.81
3286.64
3309.87
3334.49
3360.48
3387.77
3416.23
3445.71
3475.99
3506.84
3537.93
3568.95
3599.52
3629.25
3657.74
3684.58
3709.38
3731.73
3751.27
3767.64
3780.52
3789.64
3794.79
3795.81
3792.58
3785.09
3773.55
3757.99
3738.66
3715.86
3689.95
3661.33
3630.46
3597.79
3563.8
3528.96
3493.71
3458.5
3423.71
3389.68
3356.72
3325.06
3294.89
3266.37
3239.61
3214.69
3191.65
3170.52
3151.48
3134.16
3118.72
3105.11
3093.27
3083.12
3074.61
3067.63
3062.1
3057.95
3055.08
3053.43
3052.93
3053.52
3055.16
3057.8
3061.41
3065.95
3071.42
3077.82
3085.16
3093.48
3102.81
3113.2
3124.71
3137.38
3151.28
3166.45
3182.94
3200.78
3220.31
3240.98
3263.05
3286.47
3311.21
3337.15
3364.2
3392.17
3420.88
3450.08
3479.49
3508.79
3537.64
3565.68
3592.53
3617.8
3641.11
3662.07
3680.32
3695.52
3707.37
3715.61
3720.03
3720.5
3716.88
3709.23
3697.74
3682.43
3663.56
3641.45
3616.46
3589
3559.53
3528.53
3496.47
3463.81
3430.97
3398.34
3366.27
3335.07
3305.02
3276.36
3249.3
3223.97
3200.45
3178.72
3159.5
3144.16
3130.94
3119.61
3110.28
3102.87
3097.33
3093.56
3091.46
3090.9
3091.64
3093.39
3096.79
3101.38
3107.03
3113.66
3121.13
3129.39
3138.33
3147.88
3157.98
3168.6
3179.71
3191.29
3203.34
3215.93
3229.08
3243.42
3261.19
3278.76
3297.33
3317.22
3338.73
3362.05
3387.22
3414.27
3443.1
3473.56
3505.45
3538.48
3572.29
3606.51
3640.7
3674.41
3707.16
3738.45
3767.88
3794.99
3819.39
3840.73
3858.71
3873.06
3883.56
3890.07
3892.52
3890.66
3884.84
3875.04
3861.55
3844.6
3824.53
3801.65
3776.34
3748.98
3719.93
3689.65
3658.5
3626.86
3595.1
3563.52
3532.38
3501.89
3472.24
3443.59
3416.03
3389.68
3364.62
3340.92
3318.71
3298.35
3279.52
3261.95
3245.88
3231.4
3418.04
3451.5
3485.53
3519.79
3553.89
3587.3
3619.61
3650.35
3679.13
3705.62
3729.47
3750.33
3767.91
3781.97
3792.29
3798.72
3801.12
3799.38
3793.73
3784.18
3770.85
3753.93
3733.64
3710.32
3684.26
3655.83
3625.4
3593.36
3560.14
3526.14
3491.72
3457.28
3423.16
3389.67
3357.06
3325.58
3295.41
3266.71
3239.61
3214.32
3190.84
3168.94
3148.7
3130.14
3113.27
3098.06
3084.47
3072.46
3061.96
3052.94
3045.34
3039.11
3034.2
3030.57
3028.2
3027.04
3027.24
3028.73
3031.47
3035.48
3040.79
3047.44
3055.48
3064.98
3076.01
3088.66
3103.04
3119.2
3137.24
3157.21
3179.14
3202.41
3225.48
3250.49
3277.33
3305.63
3335.09
3365.46
3396.47
3427.87
3459.44
3490.93
3522.09
3552.68
3582.4
3610.97
3638.05
3663.29
3686.33
3706.81
3724.37
3738.69
3749.47
3756.5
3759.61
3758.71
3753.73
3744.8
3732
3715.45
3695.36
3672
3645.67
3616.69
3585.47
3552.39
3517.88
3482.39
3446.35
3410.17
3374.27
3339
3304.7
3271.65
3240.1
3210.24
3182.22
3156.18
3132.1
3110.02
3089.96
3071.9
3055.78
3041.56
3029.18
3018.55
3009.62
3002.31
2996.55
2992.28
2989.43
2987.94
2987.77
2988.87
2991.18
2994.68
2999.34
3005.15
3012.1
3020.19
3029.41
3039.78
3051.3
3063.98
3077.87
3092.97
3109.34
3127
3146
3166.4
3188.22
3211.44
3236.06
3262.06
3289.36
3317.84
3347.35
3377.68
3408.58
3439.73
3470.82
3501.46
3531.27
3559.85
3586.78
3611.67
3634.11
3653.73
3670.18
3683.13
3692.3
3697.49
3698.52
3695.3
3687.8
3676.21
3660.6
3641.2
3618.31
3592.3
3563.59
3532.61
3499.84
3465.75
3430.82
3395.49
3360.2
3325.35
3291.27
3258.27
3226.58
3196.39
3167.86
3141.09
3116.17
3093.14
3072.02
3052.96
3035.66
3020.24
3006.64
2994.82
2984.69
2976.19
2969.23
2963.73
2959.59
2956.73
2955.1
2954.61
2955.21
2956.86
2959.51
2963.12
2967.67
2973.13
2979.53
2986.86
2995.17
3004.49
3014.87
3026.36
3039.02
3052.9
3068.06
3084.53
3102.35
3121.9
3142.55
3164.62
3188.05
3212.79
3238.75
3265.82
3293.83
3322.57
3351.82
3381.28
3410.65
3439.58
3467.7
3494.63
3519.98
3543.38
3564.42
3582.76
3598.03
3609.95
3618.24
3622.7
3623.17
3619.56
3611.9
3600.36
3584.99
3566.04
3543.84
3518.75
3491.19
3461.62
3430.52
3398.36
3365.61
3332.69
3299.99
3267.86
3236.62
3206.53
3177.84
3150.76
3125.43
3101.91
3080.19
3061.02
3045.69
3032.5
3021.2
3011.91
3004.52
2999.01
2995.28
2993.21
2992.68
2993.45
2995.22
2998.66
3003.26
3008.92
3015.56
3023.03
3031.29
3040.22
3049.76
3059.86
3070.47
3081.56
3093.12
3105.15
3117.7
3130.81
3145.07
3162.91
3180.39
3198.9
3218.75
3240.23
3263.53
3288.69
3315.74
3344.59
3375.08
3407.02
3440.11
3473.98
3508.28
3542.56
3576.37
3609.22
3640.61
3670.13
3697.34
3721.82
3743.24
3761.29
3775.69
3786.23
3792.77
3795.22
3793.34
3787.47
3777.63
3764.08
3747.06
3726.91
3703.95
3678.55
3651.1
3621.97
3591.6
3560.38
3528.67
3496.86
3465.22
3434.04
3403.53
3373.86
3345.18
3317.62
3291.26
3266.19
3242.49
3220.27
3199.93
3181.09
3163.51
3147.44
3132.95
3319.62
3353.15
3387.27
3421.62
3455.83
3489.35
3521.76
3552.6
3581.47
3608.06
3632.01
3652.94
3670.6
3684.72
3695.09
3701.54
3703.96
3702.23
3696.54
3686.95
3673.56
3656.56
3636.19
3612.78
3586.61
3558.09
3527.55
3495.41
3462.09
3427.99
3393.49
3358.98
3324.8
3291.25
3258.6
3227.08
3196.88
3168.16
3141.05
3115.78
3092.3
3070.4
3050.16
3031.62
3014.76
2999.56
2985.99
2973.98
2963.51
2954.5
2946.91
2940.69
2935.79
2932.18
2929.81
2928.65
2928.86
2930.34
2933.08
2937.09
2942.39
2949.03
2957.05
2966.53
2977.55
2990.18
3004.54
3020.69
3038.71
3058.68
3080.61
3103.89
3126.95
3151.99
3178.9
3207.25
3236.77
3267.21
3298.28
3329.75
3361.39
3392.94
3424.16
3454.82
3484.62
3513.26
3540.42
3565.74
3588.86
3609.42
3627.05
3641.43
3652.27
3659.33
3662.46
3661.56
3656.57
3647.6
3634.75
3618.14
3597.99
3574.54
3548.11
3519.04
3487.71
3454.53
3419.92
3384.32
3348.18
3311.91
3275.93
3240.58
3206.22
3173.12
3141.52
3111.64
3083.6
3057.56
3033.48
3011.41
2991.36
2973.31
2957.21
2943.01
2930.64
2920.04
2911.13
2903.84
2898.09
2893.84
2891
2889.53
2889.37
2890.47
2892.79
2896.3
2900.96
2906.78
2913.73
2921.81
2931.03
2941.39
2952.9
2965.58
2979.46
2994.55
3010.9
3028.55
3047.54
3067.92
3089.73
3112.94
3137.57
3163.57
3190.89
3219.4
3248.95
3279.33
3310.28
3341.51
3372.68
3403.42
3433.33
3462
3489.04
3514.03
3536.58
3556.3
3572.84
3585.87
3595.11
3600.34
3601.4
3598.18
3590.67
3579.03
3563.35
3543.86
3520.87
3494.75
3465.92
3434.82
3401.92
3367.71
3332.67
3297.24
3261.87
3226.94
3192.8
3159.75
3128.02
3097.81
3069.26
3042.49
3017.56
2994.54
2973.44
2954.36
2937.08
2921.68
2908.1
2896.3
2886.19
2877.72
2870.78
2865.29
2861.17
2858.34
2856.72
2856.25
2856.86
2858.52
2861.18
2864.79
2869.34
2874.81
2881.2
2888.53
2896.82
2906.13
2916.49
2927.97
2940.61
2954.48
2969.62
2986.08
3003.86
3023.43
3044.06
3066.12
3089.56
3114.31
3140.29
3167.38
3195.43
3224.22
3253.53
3283.06
3312.51
3341.52
3369.73
3396.76
3422.22
3445.72
3466.87
3485.3
3500.67
3512.66
3521.02
3525.51
3526.01
3522.4
3514.73
3503.13
3487.68
3468.65
3446.34
3421.13
3393.45
3363.75
3332.52
3300.24
3267.39
3234.38
3201.6
3169.4
3138.09
3107.96
3079.24
3052.14
3026.79
3003.29
2981.59
2962.47
2947.16
2934
2922.73
2913.47
2906.12
2900.65
2896.95
2894.93
2894.44
2895.25
2897.05
2900.52
2905.14
2910.81
2917.45
2924.93
2933.19
2942.11
2951.65
2961.73
2972.33
2983.4
2994.94
3006.93
3019.45
3032.52
3046.68
3064.59
3081.96
3100.41
3120.21
3141.65
3164.93
3190.08
3217.13
3246
3276.53
3308.52
3341.68
3375.63
3410.03
3444.42
3478.34
3511.3
3542.81
3572.45
3599.77
3624.36
3645.88
3664
3678.47
3689.06
3695.62
3698.08
3696.18
3690.26
3680.37
3666.74
3649.64
3629.39
3606.33
3580.83
3553.27
3524.03
3493.56
3462.25
3430.47
3398.58
3366.89
3335.66
3305.11
3275.41
3246.72
3219.15
3192.78
3167.69
3143.98
3121.76
3101.46
3082.59
3065
3048.92
3034.43
3221.15
3254.76
3288.97
3323.44
3357.77
3391.41
3423.95
3454.9
3483.89
3510.59
3534.64
3555.68
3573.43
3587.62
3598.04
3604.52
3606.96
3605.23
3599.51
3589.86
3576.4
3559.31
3538.85
3515.32
3489.05
3460.4
3429.74
3397.48
3364.05
3329.84
3295.24
3260.65
3226.39
3192.77
3160.07
3128.51
3098.28
3069.54
3042.41
3017.17
2993.69
2971.78
2951.55
2933.02
2916.17
2900.99
2887.43
2875.45
2864.99
2856
2848.43
2842.22
2837.33
2833.73
2831.37
2830.21
2830.43
2831.91
2834.65
2838.65
2843.94
2850.56
2858.57
2868.03
2879.03
2891.64
2905.98
2922.1
2940.12
2960.07
2982
3005.31
3028.34
3053.44
3080.4
3108.82
3138.42
3168.93
3200.08
3231.62
3263.34
3294.97
3326.27
3357.01
3386.89
3415.62
3442.86
3468.28
3491.5
3512.14
3529.86
3544.31
3555.21
3562.31
3565.46
3564.56
3559.57
3550.56
3537.66
3520.98
3500.73
3477.19
3450.65
3421.47
3390.01
3356.7
3321.97
3286.26
3250
3213.63
3177.54
3142.11
3107.67
3074.51
3042.87
3012.95
2984.9
2958.86
2934.77
2912.71
2892.67
2874.64
2858.56
2844.38
2832.04
2821.46
2812.57
2805.3
2799.58
2795.34
2792.52
2791.06
2790.92
2792.03
2794.36
2797.87
2802.54
2808.36
2815.31
2823.39
2832.61
2842.96
2854.46
2867.13
2880.99
2896.07
2912.41
2930.04
2949.01
2969.37
2991.18
3014.38
3039.01
3065.02
3092.35
3120.9
3150.49
3180.93
3211.96
3243.27
3274.54
3305.38
3335.4
3364.2
3391.37
3416.48
3439.15
3458.99
3475.64
3488.76
3498.08
3503.36
3504.45
3501.23
3493.71
3482.01
3466.25
3446.66
3423.55
3397.3
3368.32
3337.07
3304.03
3269.69
3234.51
3198.96
3163.49
3128.47
3094.26
3061.15
3029.38
2999.14
2970.58
2943.8
2918.87
2895.85
2874.77
2855.69
2838.43
2823.04
2809.49
2797.71
2787.63
2779.18
2772.27
2766.81
2762.71
2759.9
2758.3
2757.84
2758.47
2760.14
2762.81
2766.43
2770.98
2776.45
2782.83
2790.15
2798.43
2807.72
2818.07
2829.52
2842.15
2855.99
2871.11
2887.56
2905.35
2924.85
2945.5
2967.56
2991
3015.77
3041.77
3068.89
3096.98
3125.83
3155.21
3184.82
3214.36
3243.47
3271.79
3298.94
3324.52
3348.13
3369.4
3387.95
3403.42
3415.51
3423.94
3428.49
3429.01
3425.4
3417.7
3406.04
3390.51
3371.37
3348.94
3323.59
3295.76
3265.91
3234.54
3202.12
3169.14
3136.03
3103.15
3070.87
3039.5
3009.31
2980.55
2953.42
2928.07
2904.57
2882.89
2863.83
2848.54
2835.42
2824.2
2814.98
2807.67
2802.25
2798.59
2796.61
2796.17
2797.02
2798.86
2802.38
2807.02
2812.7
2819.34
2826.83
2835.08
2844.01
2853.53
2863.6
2874.18
2885.23
2896.74
2908.7
2921.18
2934.19
2948.24
2966.23
2983.47
3001.84
3021.59
3042.99
3066.24
3091.37
3118.43
3147.33
3177.89
3209.95
3243.19
3277.24
3311.75
3346.26
3380.32
3413.42
3445.07
3474.84
3502.3
3527.01
3548.63
3566.85
3581.39
3592.04
3598.63
3601.09
3599.17
3593.2
3583.24
3569.53
3552.33
3531.97
3508.78
3483.16
3455.47
3426.11
3395.54
3364.12
3332.24
3300.27
3268.51
3237.23
3206.64
3176.91
3148.2
3120.61
3094.23
3069.13
3045.41
3023.18
3002.93
2984.03
2966.43
2950.34
2935.85
3122.62
3156.32
3190.65
3225.25
3259.72
3293.5
3326.17
3357.27
3386.39
3413.21
3437.39
3458.54
3476.39
3490.66
3501.14
3507.66
3510.11
3508.38
3502.62
3492.91
3479.37
3462.19
3441.61
3417.96
3391.55
3362.77
3331.97
3299.57
3266.01
3231.68
3196.97
3162.27
3127.93
3094.24
3061.48
3029.88
2999.61
2970.84
2943.69
2918.49
2895
2873.09
2852.87
2834.35
2817.52
2802.36
2788.82
2776.86
2766.42
2757.45
2749.89
2743.7
2738.83
2735.23
2732.88
2731.74
2731.95
2733.44
2736.17
2740.17
2745.44
2752.05
2760.04
2769.48
2780.45
2793.03
2807.34
2823.45
2841.45
2861.39
2883.31
2906.66
2929.67
2954.81
2981.85
3010.35
3040.02
3070.62
3101.86
3133.49
3165.29
3197.01
3228.4
3259.23
3289.21
3318.04
3345.39
3370.91
3394.24
3414.99
3432.8
3447.33
3458.3
3465.45
3468.62
3467.73
3462.72
3453.68
3440.7
3423.94
3403.6
3379.95
3353.29
3323.96
3292.37
3258.92
3224.05
3188.19
3151.81
3115.31
3079.12
3043.59
3009.06
2975.83
2944.14
2914.18
2886.1
2860.07
2835.98
2813.92
2793.9
2775.88
2759.83
2745.68
2733.37
2722.81
2713.95
2706.7
2701
2696.78
2693.99
2692.55
2692.42
2693.55
2695.88
2699.4
2704.08
2709.89
2716.84
2724.92
2734.13
2744.48
2755.98
2768.63
2782.48
2797.54
2813.86
2831.48
2850.43
2870.76
2892.56
2915.75
2940.38
2966.4
2993.76
3022.34
3051.98
3082.49
3113.6
3145.01
3176.39
3207.35
3237.51
3266.44
3293.75
3319
3341.81
3361.79
3378.56
3391.79
3401.2
3406.54
3407.66
3404.45
3396.91
3385.14
3369.29
3349.58
3326.34
3299.93
3270.79
3239.38
3206.17
3171.67
3136.34
3100.66
3065.07
3029.95
2995.66
2962.49
2930.67
2900.4
2871.81
2845.02
2820.09
2797.08
2776.02
2756.93
2739.69
2724.33
2710.8
2699.05
2689
2680.58
2673.69
2668.26
2664.19
2661.41
2659.83
2659.39
2660.04
2661.72
2664.4
2668.03
2672.59
2678.05
2684.43
2691.74
2700
2709.27
2719.6
2731.03
2743.63
2757.46
2772.56
2788.98
2806.77
2826.2
2846.87
2868.93
2892.38
2917.16
2943.18
2970.35
2998.49
3027.4
3056.85
3086.56
3116.2
3145.43
3173.87
3201.15
3226.87
3250.62
3272.03
3290.71
3306.3
3318.5
3327.01
3331.62
3332.17
3328.56
3320.83
3309.1
3293.47
3274.21
3251.64
3226.13
3198.13
3168.11
3136.57
3104
3070.88
3037.64
3004.65
2972.28
2940.83
2910.58
2881.78
2854.62
2829.26
2805.77
2784.12
2765.13
2749.86
2736.78
2725.61
2716.44
2709.18
2703.81
2700.2
2698.27
2697.88
2698.77
2700.67
2704.24
2708.89
2714.58
2721.24
2728.72
2736.98
2745.9
2755.41
2765.47
2776.02
2787.05
2798.53
2810.45
2822.88
2835.84
2849.75
2867.83
2884.92
2903.21
2922.89
2944.24
2967.46
2992.58
3019.65
3048.56
3079.18
3111.31
3144.64
3178.8
3213.44
3248.1
3282.31
3315.57
3347.38
3377.31
3404.91
3429.76
3451.51
3469.84
3484.47
3495.18
3501.8
3504.27
3502.32
3496.29
3486.26
3472.45
3455.13
3434.64
3411.32
3385.55
3357.73
3328.23
3297.52
3265.98
3233.99
3201.93
3170.09
3138.75
3108.12
3078.35
3049.62
3022.01
2995.61
2970.51
2946.77
2924.53
2904.33
2885.4
2867.79
2851.69
2837.2
3024.04
3057.84
3092.3
3127.04
3161.67
3195.61
3228.44
3259.69
3288.96
3315.93
3340.24
3361.52
3379.49
3393.85
3404.4
3410.96
3413.43
3411.69
3405.89
3396.11
3382.48
3365.19
3344.49
3320.7
3294.14
3265.19
3234.24
3201.69
3167.97
3133.51
3098.67
3063.87
3029.42
2995.66
2962.83
2931.17
2900.86
2872.06
2844.9
2819.73
2796.23
2774.33
2754.11
2735.61
2718.8
2703.65
2690.14
2678.2
2667.78
2658.83
2651.3
2645.13
2640.27
2636.69
2634.35
2633.22
2633.43
2634.92
2637.65
2641.63
2646.9
2653.48
2661.45
2670.86
2681.81
2694.37
2708.64
2724.73
2742.71
2762.63
2784.55
2807.94
2830.92
2856.12
2883.24
2911.82
2941.59
2972.29
3003.62
3035.35
3067.26
3099.07
3130.56
3161.5
3191.58
3220.53
3247.99
3273.64
3297.08
3317.95
3335.87
3350.49
3361.53
3368.74
3371.95
3371.06
3366.03
3356.94
3343.89
3327.04
3306.59
3282.81
3256.01
3226.54
3194.79
3161.18
3126.14
3090.14
3053.6
3016.97
2980.65
2945.01
2910.39
2877.08
2845.33
2815.32
2787.21
2761.19
2737.09
2715.05
2695.04
2677.05
2661.03
2646.91
2634.62
2624.1
2615.26
2608.04
2602.37
2598.17
2595.4
2593.98
2593.87
2595.01
2597.36
2600.88
2605.56
2611.38
2618.33
2626.41
2635.62
2645.96
2657.44
2670.09
2683.92
2698.96
2715.26
2732.85
2751.78
2772.09
2793.88
2817.06
2841.68
2867.71
2895.09
2923.71
2953.42
2984
3015.21
3046.73
3078.23
3109.33
3139.63
3168.73
3196.19
3221.61
3244.57
3264.7
3281.61
3294.97
3304.47
3309.89
3311.05
3307.84
3300.27
3288.43
3272.48
3252.64
3229.24
3202.66
3173.33
3141.73
3108.34
3073.66
3038.16
3002.33
2966.6
2931.38
2897
2863.75
2831.88
2801.57
2772.96
2746.16
2721.23
2698.23
2677.18
2658.09
2640.88
2625.54
2612.04
2600.32
2590.3
2581.91
2575.07
2569.67
2565.63
2562.87
2561.31
2560.9
2561.56
2563.27
2565.96
2569.6
2574.16
2579.62
2585.99
2593.28
2601.53
2610.78
2621.08
2632.49
2645.07
2658.86
2673.94
2690.34
2708.13
2727.5
2748.17
2770.24
2793.69
2818.48
2844.54
2871.74
2899.94
2928.92
2958.46
2988.27
3018.03
3047.39
3075.98
3103.4
3129.27
3153.19
3174.75
3193.58
3209.31
3221.62
3230.23
3234.9
3235.49
3231.88
3224.12
3212.3
3196.57
3177.17
3154.44
3128.75
3100.56
3070.35
3038.62
3005.88
2972.6
2939.21
2906.1
2873.63
2842.09
2811.77
2782.92
2755.73
2730.35
2706.88
2685.25
2666.34
2651.1
2638.08
2626.95
2617.83
2610.63
2605.32
2601.77
2599.9
2599.56
2600.51
2602.49
2606.1
2610.76
2616.47
2623.13
2630.62
2638.87
2647.79
2657.29
2667.33
2677.86
2688.86
2700.3
2712.18
2724.57
2737.47
2751.21
2769.39
2786.31
2804.51
2824.12
2845.42
2868.59
2893.7
2920.77
2949.72
2980.39
3012.6
3046.03
3080.32
3115.11
3149.92
3184.31
3217.75
3249.74
3279.84
3307.62
3332.62
3354.51
3372.96
3387.69
3398.47
3405.13
3407.61
3405.63
3399.54
3389.42
3375.5
3358.04
3337.41
3313.93
3288.01
3260.02
3230.37
3199.51
3167.83
3135.72
3103.55
3071.63
3040.23
3009.54
2979.74
2950.97
2923.35
2896.93
2871.81
2848.06
2825.81
2805.66
2786.71
2769.08
2752.97
2738.47
2925.39
2959.31
2993.91
3028.82
3063.63
3097.75
3130.75
3162.17
3191.6
3218.73
3243.2
3264.63
3282.72
3297.18
3307.81
3314.42
3316.91
3315.16
3309.31
3299.46
3285.73
3268.32
3247.47
3223.53
3196.8
3167.68
3136.55
3103.82
3069.94
3035.32
3000.35
2965.42
2930.87
2897.02
2864.12
2832.4
2802.05
2773.21
2746.03
2720.9
2697.39
2675.49
2655.28
2636.79
2620
2604.88
2591.39
2579.48
2569.09
2560.16
2552.65
2546.5
2541.66
2538.1
2535.76
2534.64
2534.86
2536.35
2539.07
2543.05
2548.3
2554.86
2562.81
2572.2
2583.11
2595.63
2609.88
2625.93
2643.89
2663.8
2685.72
2709.14
2732.1
2757.36
2784.57
2813.25
2843.13
2873.93
2905.37
2937.21
2969.23
3001.15
3032.75
3063.8
3094
3123.07
3150.68
3176.45
3200.03
3221.02
3239.06
3253.8
3264.92
3272.19
3275.43
3274.55
3269.5
3260.35
3247.23
3230.27
3209.7
3185.78
3158.82
3129.18
3097.26
3063.47
3028.26
2992.08
2955.38
2918.6
2882.14
2846.37
2811.64
2778.25
2746.43
2716.38
2688.23
2662.23
2638.12
2616.08
2596.1
2578.14
2562.14
2548.05
2535.8
2525.31
2516.51
2509.32