/*--------------------------------*- C++ -*----------------------------------*\
| =========                 |                                                 |
| \\      /  F ield         | OpenFOAM: The Open Source CFD Toolbox           |
|  \\    /   O peration     | Version:  3.0.1                                 |
|   \\  /    A nd           | Web:      www.OpenFOAM.org                      |
|    \\/     M anipulation  |                                                 |
\*---------------------------------------------------------------------------*/
FoamFile
{
    version     2.0;
    format      ascii;
    class       volVectorField;
    location    "32.6";
    object      U;
}
// * * * * * * * * * * * * * * * * * * * * * * * * * * * * * * * * * * * * * //

dimensions      [0 1 -1 0 0 0 0];

internalField   nonuniform List<vector> 
21420
(
(0.269442 0.000357079 0)
(0.265091 0.000595764 0)
(0.257889 0.000830204 0)
(0.248413 0.00105401 0)
(0.236842 0.00124077 0)
(0.223383 0.00142537 0)
(0.208272 0.00155846 0)
(0.19177 0.00169361 0)
(0.174142 0.00180544 0)
(0.155661 0.00185294 0)
(0.136604 0.0019105 0)
(0.117227 0.00194352 0)
(0.0977745 0.0019169 0)
(0.0784695 0.00190421 0)
(0.0595105 0.00184125 0)
(0.0410561 0.00179336 0)
(0.0231636 0.0017306 0)
(0.00614793 0.00162863 0)
(-0.00981692 0.00154807 0)
(-0.0248981 0.00145783 0)
(-0.0390294 0.00134995 0)
(-0.0521609 0.00125395 0)
(-0.0642815 0.00115626 0)
(-0.075394 0.00105203 0)
(-0.0855173 0.000957135 0)
(-0.0946754 0.000859789 0)
(-0.102898 0.000770328 0)
(-0.110219 0.000683201 0)
(-0.11667 0.000597449 0)
(-0.122287 0.000516915 0)
(-0.127103 0.000438991 0)
(-0.131148 0.000363387 0)
(-0.134453 0.000290735 0)
(-0.137044 0.000219525 0)
(-0.138947 0.000150378 0)
(-0.140142 8.55058e-05 0)
(-0.140688 2.06302e-05 0)
(-0.140568 -4.70563e-05 0)
(-0.139758 -0.000115365 0)
(-0.138271 -0.000184368 0)
(-0.136089 -0.000253661 0)
(-0.133193 -0.000328138 0)
(-0.129577 -0.000399466 0)
(-0.125186 -0.000475841 0)
(-0.119989 -0.000563006 0)
(-0.113987 -0.000639457 0)
(-0.107101 -0.0007234 0)
(-0.099316 -0.000824938 0)
(-0.0905753 -0.000908726 0)
(-0.0808895 -0.00100072 0)
(-0.0701399 -0.00110828 0)
(-0.0583917 -0.00120196 0)
(-0.045594 -0.00130907 0)
(-0.031627 -0.00140152 0)
(-0.0168618 -0.00148524 0)
(-0.00158308 -0.00159238 0)
(0.0144885 -0.00166101 0)
(0.0315324 -0.00170992 0)
(0.0491592 -0.00177654 0)
(0.0672687 -0.00180394 0)
(0.0856498 -0.00182982 0)
(0.10414 -0.00183102 0)
(0.122568 -0.00179621 0)
(0.140611 -0.00175405 0)
(0.158062 -0.00168824 0)
(0.174722 -0.00158665 0)
(0.190286 -0.00147411 0)
(0.20448 -0.00132771 0)
(0.217146 -0.00116698 0)
(0.22813 -0.000981024 0)
(0.237045 -0.000773843 0)
(0.243763 -0.000552032 0)
(0.248234 -0.00031345 0)
(0.250055 -6.13588e-05 0)
(0.249397 0.00018755 0)
(0.246218 0.000465209 0)
(0.240335 0.000719821 0)
(0.232081 0.000972074 0)
(0.221587 0.00120554 0)
(0.208679 0.00141239 0)
(0.193999 0.0015932 0)
(0.177846 0.00173856 0)
(0.160195 0.00184677 0)
(0.141781 0.00192191 0)
(0.122885 0.00196305 0)
(0.103667 0.00197253 0)
(0.0842537 0.00195807 0)
(0.0652235 0.00192002 0)
(0.046563 0.00186779 0)
(0.0281623 0.00181469 0)
(0.0102745 0.00175389 0)
(-0.00715353 0.00167414 0)
(-0.0236167 0.00159382 0)
(-0.0390263 0.00150437 0)
(-0.0534836 0.00141718 0)
(-0.0670199 0.00132054 0)
(-0.0796521 0.00122183 0)
(-0.0913721 0.00111409 0)
(-0.102141 0.00101384 0)
(-0.11188 0.000919651 0)
(-0.120586 0.000811337 0)
(-0.128256 0.00071894 0)
(-0.134984 0.000615982 0)
(-0.140791 0.000531586 0)
(-0.145663 0.000444841 0)
(-0.14975 0.000365214 0)
(-0.153064 0.000292844 0)
(-0.15564 0.000217758 0)
(-0.15755 0.000151859 0)
(-0.15874 9.7465e-05 0)
(-0.159296 2.78638e-05 0)
(-0.159298 -3.2731e-05 0)
(-0.158634 -9.18821e-05 0)
(-0.157347 -0.000161856 0)
(-0.155434 -0.000218935 0)
(-0.152891 -0.000279019 0)
(-0.149702 -0.000350371 0)
(-0.145841 -0.000419315 0)
(-0.141345 -0.000480642 0)
(-0.136099 -0.000548332 0)
(-0.130087 -0.000632968 0)
(-0.123411 -0.000709425 0)
(-0.115876 -0.000775008 0)
(-0.107545 -0.000865688 0)
(-0.098398 -0.000951416 0)
(-0.0884378 -0.00103517 0)
(-0.0775592 -0.00111722 0)
(-0.0657994 -0.00120491 0)
(-0.0532109 -0.00129256 0)
(-0.0397676 -0.00137539 0)
(-0.0255049 -0.00145114 0)
(-0.0104633 -0.0015276 0)
(0.00531739 -0.00159398 0)
(0.0216926 -0.00165297 0)
(0.0385841 -0.00169418 0)
(0.0558656 -0.00173043 0)
(0.0733849 -0.00174228 0)
(0.0909632 -0.00174352 0)
(0.108408 -0.00172035 0)
(0.125525 -0.00166929 0)
(0.142045 -0.0016008 0)
(0.157717 -0.00150427 0)
(0.172264 -0.00137406 0)
(0.185371 -0.00122187 0)
(0.196813 -0.00104281 0)
(0.206315 -0.000839035 0)
(0.213701 -0.000620212 0)
(0.218767 -0.000382106 0)
(0.221363 -0.000138412 0)
(0.221493 0.000119007 0)
(0.219009 0.000369316 0)
(0.21391 0.00062468 0)
(0.206385 0.000862642 0)
(0.196542 0.00108594 0)
(0.184594 0.0012862 0)
(0.17072 0.00145989 0)
(0.155217 0.00161039 0)
(0.138359 0.00173169 0)
(0.120402 0.00182389 0)
(0.101703 0.00188761 0)
(0.0825147 0.00191962 0)
(0.0631412 0.00192024 0)
(0.0438852 0.00189689 0)
(0.0249582 0.00186066 0)
(0.00655491 0.00179332 0)
(-0.0111297 0.00171274 0)
(-0.0279226 0.00162468 0)
(-0.0438051 0.00153309 0)
(-0.0587502 0.00143052 0)
(-0.0726391 0.00133026 0)
(-0.0855034 0.00122486 0)
(-0.0973754 0.00112841 0)
(-0.108251 0.00102814 0)
(-0.118086 0.000923958 0)
(-0.12688 0.00082222 0)
(-0.134645 0.000723217 0)
(-0.141463 0.000625594 0)
(-0.147392 0.000541886 0)
(-0.152408 0.000464275 0)
(-0.156638 0.000383969 0)
(-0.160129 0.000306767 0)
(-0.16287 0.000241104 0)
(-0.164959 0.000174018 0)
(-0.16642 0.000116067 0)
(-0.167254 5.56474e-05 0)
(-0.167588 5.54567e-06 0)
(-0.167374 -4.46528e-05 0)
(-0.166599 -9.907e-05 0)
(-0.165336 -0.000151483 0)
(-0.163508 -0.000211621 0)
(-0.161087 -0.000266927 0)
(-0.158048 -0.000335758 0)
(-0.154335 -0.000397112 0)
(-0.150012 -0.000466458 0)
(-0.144986 -0.000526347 0)
(-0.13933 -0.000600295 0)
(-0.132929 -0.000663034 0)
(-0.125759 -0.000751174 0)
(-0.117775 -0.000831844 0)
(-0.108899 -0.000922658 0)
(-0.0991169 -0.00101502 0)
(-0.0883729 -0.00111443 0)
(-0.0766557 -0.0012053 0)
(-0.0640105 -0.00130309 0)
(-0.0504501 -0.00138705 0)
(-0.0360287 -0.00147542 0)
(-0.0207806 -0.00154771 0)
(-0.00480184 -0.0016172 0)
(0.0118387 -0.00167483 0)
(0.0289768 -0.0017234 0)
(0.0465122 -0.00175037 0)
(0.0642504 -0.00176681 0)
(0.0820284 -0.0017526 0)
(0.0995479 -0.00171853 0)
(0.116599 -0.00165948 0)
(0.132894 -0.00156791 0)
(0.148164 -0.00145889 0)
(0.162191 -0.00131976 0)
(0.174702 -0.00115984 0)
(0.185488 -0.000973366 0)
(0.194287 -0.000770661 0)
(0.200964 -0.000551658 0)
(0.205383 -0.00032378 0)
(0.207402 -8.5076e-05 0)
(0.207111 0.000149037 0)
(0.204348 0.000390751 0)
(0.199192 0.000618749 0)
(0.191823 0.00083573 0)
(0.182356 0.00104586 0)
(0.170944 0.00122471 0)
(0.157783 0.00138065 0)
(0.143179 0.00150816 0)
(0.127411 0.00161696 0)
(0.110753 0.00168582 0)
(0.0934702 0.00173412 0)
(0.0758158 0.00176443 0)
(0.0580235 0.00176643 0)
(0.040292 0.00175724 0)
(0.0227338 0.00173048 0)
(0.00552593 0.00168588 0)
(-0.0112224 0.00163118 0)
(-0.0273854 0.00156932 0)
(-0.0428335 0.0014983 0)
(-0.0574841 0.00141019 0)
(-0.0712333 0.0013184 0)
(-0.0840094 0.00121961 0)
(-0.0957799 0.00111604 0)
(-0.106513 0.00101581 0)
(-0.116203 0.000909815 0)
(-0.124857 0.000809566 0)
(-0.132549 0.000719125 0)
(-0.13938 0.000634559 0)
(-0.145376 0.000559191 0)
(-0.150546 0.000476215 0)
(-0.154994 0.000405324 0)
(-0.158724 0.000333888 0)
(-0.161776 0.000268965 0)
(-0.164175 0.000211859 0)
(-0.165956 0.000142007 0)
(-0.167106 8.92466e-05 0)
(-0.167664 2.59246e-05 0)
(-0.167623 -2.59514e-05 0)
(-0.167001 -9.07807e-05 0)
(-0.165788 -0.000137348 0)
(-0.164061 -0.000202014 0)
(-0.161796 -0.000240997 0)
(-0.158964 -0.000314712 0)
(-0.155384 -0.000366225 0)
(-0.151122 -0.000459476 0)
(-0.146018 -0.000528994 0)
(-0.139976 -0.000635417 0)
(-0.13293 -0.000731599 0)
(-0.124816 -0.000852353 0)
(-0.115605 -0.000971174 0)
(-0.105153 -0.00109221 0)
(-0.0936625 -0.00119847 0)
(-0.080968 -0.00132133 0)
(-0.0671047 -0.00141957 0)
(-0.0524875 -0.00149726 0)
(-0.0372192 -0.00158304 0)
(-0.0218139 -0.00162154 0)
(-0.00442375 -0.00167 0)
(0.0154947 -0.00175482 0)
(0.0356357 -0.0017764 0)
(0.0556243 -0.00178834 0)
(0.0756486 -0.00179199 0)
(0.0953644 -0.00175757 0)
(0.114556 -0.00171967 0)
(0.133136 -0.00165514 0)
(0.150734 -0.00157467 0)
(0.167336 -0.00148181 0)
(0.182599 -0.00135483 0)
(0.196248 -0.0012189 0)
(0.208236 -0.00105956 0)
(0.218272 -0.000876089 0)
(0.226184 -0.00068277 0)
(0.231914 -0.000480416 0)
(0.235273 -0.000232237 0)
(0.236331 2.60065e-06 0)
(0.235359 0.000226225 0)
(0.232173 0.000433257 0)
(0.226882 0.000637339 0)
(0.219446 0.000849636 0)
(0.210039 0.00102555 0)
(0.198897 0.00119915 0)
(0.186085 0.00135995 0)
(0.171882 0.0014706 0)
(0.156562 0.00158161 0)
(0.140323 0.00164322 0)
(0.123435 0.00170556 0)
(0.106062 0.00174797 0)
(0.0884234 0.00174526 0)
(0.0707694 0.00174637 0)
(0.0531477 0.00173207 0)
(0.0358193 0.00168461 0)
(0.0189119 0.00163693 0)
(0.00307896 0.00156476 0)
(-0.011836 0.00150587 0)
(-0.0264682 0.00143831 0)
(-0.0404321 0.00135353 0)
(-0.0536457 0.00127762 0)
(-0.0660697 0.00119872 0)
(-0.0776783 0.00111138 0)
(-0.0884676 0.00103212 0)
(-0.0984404 0.000947147 0)
(-0.107603 0.000869159 0)
(-0.115963 0.000790855 0)
(-0.123522 0.000709402 0)
(-0.130286 0.000631739 0)
(-0.136255 0.000553262 0)
(-0.141426 0.000472777 0)
(-0.145793 0.000393296 0)
(-0.149353 0.000312779 0)
(-0.152102 0.000230872 0)
(-0.154034 0.000148423 0)
(-0.155115 6.79878e-05 0)
(-0.155404 -1.37161e-05 0)
(-0.154834 -9.79589e-05 0)
(-0.153424 -0.000181944 0)
(-0.151176 -0.000264727 0)
(-0.148086 -0.000347075 0)
(-0.144165 -0.00043026 0)
(-0.139418 -0.000510848 0)
(-0.133854 -0.000593231 0)
(-0.127485 -0.000671524 0)
(-0.120321 -0.000747893 0)
(-0.112376 -0.000828192 0)
(-0.103665 -0.000901098 0)
(-0.0942034 -0.000971486 0)
(-0.0840091 -0.00104877 0)
(-0.0731021 -0.00111467 0)
(-0.0614991 -0.00118942 0)
(-0.049216 -0.00125017 0)
(-0.0362591 -0.00130744 0)
(-0.0224553 -0.00137695 0)
(-0.00753181 -0.00142887 0)
(0.00864489 -0.00145187 0)
(0.26954 0.00107143 0)
(0.265185 0.00178766 0)
(0.257978 0.00249117 0)
(0.248497 0.00316276 0)
(0.236917 0.00372313 0)
(0.223449 0.00427706 0)
(0.208327 0.00467635 0)
(0.191815 0.00508188 0)
(0.174177 0.00541739 0)
(0.155684 0.00555986 0)
(0.136617 0.00573249 0)
(0.117231 0.0058315 0)
(0.0977699 0.00575152 0)
(0.0784569 0.00571337 0)
(0.0594916 0.00552439 0)
(0.0410313 0.0053806 0)
(0.0231328 0.00519228 0)
(0.00611446 0.00488622 0)
(-0.0098522 0.0046444 0)
(-0.0249359 0.00437362 0)
(-0.0390676 0.00404993 0)
(-0.0521997 0.0037619 0)
(-0.0643203 0.00346872 0)
(-0.0754318 0.00315601 0)
(-0.0855544 0.00287129 0)
(-0.0947111 0.0025792 0)
(-0.102933 0.00231077 0)
(-0.110252 0.0020494 0)
(-0.116702 0.00179211 0)
(-0.122318 0.00155047 0)
(-0.127133 0.00131667 0)
(-0.131177 0.0010898 0)
(-0.13448 0.000871808 0)
(-0.137071 0.000658688 0)
(-0.138973 0.000451559 0)
(-0.14017 0.000256748 0)
(-0.140715 6.03142e-05 0)
(-0.140596 -0.00014168 0)
(-0.139786 -0.000346261 0)
(-0.1383 -0.000553196 0)
(-0.136119 -0.000760915 0)
(-0.133225 -0.000983577 0)
(-0.12961 -0.00119878 0)
(-0.125221 -0.00142728 0)
(-0.120026 -0.00168759 0)
(-0.114025 -0.00191876 0)
(-0.107142 -0.00216963 0)
(-0.0993597 -0.00247506 0)
(-0.0906209 -0.00272599 0)
(-0.0809372 -0.00300201 0)
(-0.07019 -0.00332471 0)
(-0.0584421 -0.00360587 0)
(-0.0456453 -0.00392691 0)
(-0.0316798 -0.00420463 0)
(-0.0169143 -0.00445735 0)
(-0.00163233 -0.00477647 0)
(0.014447 -0.00498163 0)
(0.0314904 -0.00513263 0)
(0.0491259 -0.00533007 0)
(0.0672434 -0.00541269 0)
(0.0856324 -0.00549181 0)
(0.104137 -0.00548957 0)
(0.122566 -0.00539691 0)
(0.14063 -0.00526392 0)
(0.158095 -0.00506315 0)
(0.174769 -0.00476152 0)
(0.190346 -0.00442009 0)
(0.204554 -0.00398789 0)
(0.217238 -0.00349605 0)
(0.228221 -0.00295956 0)
(0.237165 -0.00231835 0)
(0.243889 -0.00164587 0)
(0.248368 -0.000943902 0)
(0.250202 -0.000186545 0)
(0.249536 0.000564053 0)
(0.246359 0.0013929 0)
(0.240488 0.00216166 0)
(0.232232 0.00291751 0)
(0.221734 0.00362054 0)
(0.208813 0.00423692 0)
(0.194132 0.00477567 0)
(0.177972 0.0052249 0)
(0.160301 0.00554124 0)
(0.141874 0.00577044 0)
(0.122958 0.005891 0)
(0.103718 0.00591882 0)
(0.0842888 0.00587231 0)
(0.0652507 0.00576031 0)
(0.0465747 0.00560527 0)
(0.0281593 0.00544907 0)
(0.0102501 0.00526266 0)
(-0.00720299 0.00501904 0)
(-0.0236754 0.00477407 0)
(-0.0390866 0.00452432 0)
(-0.0535595 0.00425139 0)
(-0.0670988 0.00395612 0)
(-0.0797362 0.00366018 0)
(-0.0914523 0.0033504 0)
(-0.102229 0.00304514 0)
(-0.111981 0.00274843 0)
(-0.120681 0.00242893 0)
(-0.128348 0.00215144 0)
(-0.135075 0.00185632 0)
(-0.140876 0.00158566 0)
(-0.145747 0.00133936 0)
(-0.149823 0.00108795 0)
(-0.15312 0.000884289 0)
(-0.155707 0.000659482 0)
(-0.157618 0.000446625 0)
(-0.158812 0.000285626 0)
(-0.159374 7.38558e-05 0)
(-0.159363 -0.000105414 0)
(-0.158694 -0.000269581 0)
(-0.157404 -0.000484963 0)
(-0.155488 -0.000658304 0)
(-0.152955 -0.000843194 0)
(-0.149756 -0.00104744 0)
(-0.145897 -0.00124716 0)
(-0.141428 -0.00146551 0)
(-0.13616 -0.00164278 0)
(-0.130155 -0.00189759 0)
(-0.123467 -0.0021263 0)
(-0.11595 -0.00233584 0)
(-0.107603 -0.00259236 0)
(-0.0984613 -0.00284376 0)
(-0.0885049 -0.00311352 0)
(-0.0776232 -0.00335229 0)
(-0.0658643 -0.00361939 0)
(-0.0532723 -0.00386953 0)
(-0.0398287 -0.00412225 0)
(-0.0255693 -0.00436059 0)
(-0.0105186 -0.00459015 0)
(0.00526371 -0.00478148 0)
(0.0216497 -0.00495589 0)
(0.0385325 -0.00509767 0)
(0.0558355 -0.00518048 0)
(0.073346 -0.00523999 0)
(0.0909424 -0.00522725 0)
(0.108406 -0.00515877 0)
(0.125525 -0.00501244 0)
(0.142063 -0.00480302 0)
(0.157745 -0.00450764 0)
(0.172297 -0.00413443 0)
(0.18543 -0.0036658 0)
(0.196874 -0.00312916 0)
(0.20638 -0.00252378 0)
(0.213769 -0.00186097 0)
(0.218837 -0.00115243 0)
(0.221441 -0.000413911 0)
(0.221571 0.00034145 0)
(0.21909 0.00112189 0)
(0.213989 0.00188431 0)
(0.20645 0.00258819 0)
(0.196596 0.0032545 0)
(0.184638 0.00385432 0)
(0.170763 0.00438542 0)
(0.155241 0.00483881 0)
(0.138355 0.00518988 0)
(0.120386 0.00546689 0)
(0.101674 0.00566973 0)
(0.0824664 0.00575493 0)
(0.0630957 0.00576245 0)
(0.0438331 0.00570312 0)
(0.0248786 0.00557219 0)
(0.00646665 0.00537035 0)
(-0.011213 0.00514081 0)
(-0.0280022 0.00488049 0)
(-0.0438957 0.00459058 0)
(-0.0588387 0.00429348 0)
(-0.0727386 0.00398624 0)
(-0.0855957 0.00367691 0)
(-0.0974723 0.00338329 0)
(-0.108346 0.00307835 0)
(-0.118176 0.00277269 0)
(-0.126974 0.00246571 0)
(-0.134739 0.00216888 0)
(-0.141549 0.00188468 0)
(-0.147475 0.00162905 0)
(-0.152493 0.00138401 0)
(-0.156716 0.00114159 0)
(-0.160197 0.000924495 0)
(-0.162944 0.00072143 0)
(-0.165029 0.000515605 0)
(-0.166487 0.000347356 0)
(-0.167322 0.000164523 0)
(-0.167648 8.58764e-06 0)
(-0.167422 -0.000128752 0)
(-0.166654 -0.00029764 0)
(-0.1654 -0.000460445 0)
(-0.163563 -0.000623667 0)
(-0.161159 -0.000812317 0)
(-0.158108 -0.00100425 0)
(-0.154398 -0.00119651 0)
(-0.150069 -0.00140106 0)
(-0.145042 -0.00157354 0)
(-0.139388 -0.00179793 0)
(-0.132995 -0.00199674 0)
(-0.12582 -0.00224582 0)
(-0.117848 -0.00250409 0)
(-0.108971 -0.00277468 0)
(-0.0991993 -0.00305022 0)
(-0.0884483 -0.00334926 0)
(-0.0767255 -0.00361378 0)
(-0.0640778 -0.00390079 0)
(-0.0505212 -0.0041702 0)
(-0.0360823 -0.00441071 0)
(-0.0208497 -0.00465816 0)
(-0.00484834 -0.00484765 0)
(0.0117836 -0.00502979 0)
(0.0289386 -0.00516632 0)
(0.0464624 -0.0052646 0)
(0.064231 -0.00529688 0)
(0.0820124 -0.00526489 0)
(0.0995495 -0.00516308 0)
(0.116612 -0.00497193 0)
(0.132909 -0.00471165 0)
(0.148197 -0.00437475 0)
(0.162238 -0.00396139 0)
(0.174759 -0.00347215 0)
(0.185545 -0.00293043 0)
(0.194366 -0.00231087 0)
(0.201042 -0.00165676 0)
(0.205457 -0.000971969 0)
(0.207477 -0.000263863 0)
(0.207188 0.000453074 0)
(0.204415 0.00117188 0)
(0.199266 0.00186059 0)
(0.191884 0.00250985 0)
(0.182398 0.00313037 0)
(0.170971 0.00366436 0)
(0.157812 0.00414773 0)
(0.143196 0.00453628 0)
(0.127395 0.00484283 0)
(0.110733 0.00506231 0)
(0.0934422 0.0052116 0)
(0.0757788 0.00528674 0)
(0.057985 0.00531139 0)
(0.0402284 0.00526482 0)
(0.0226606 0.00518351 0)
(0.00545545 0.00506334 0)
(-0.0112966 0.00489637 0)
(-0.027468 0.00469919 0)
(-0.0429163 0.00449956 0)
(-0.0575741 0.00422589 0)
(-0.0713268 0.00396 0)
(-0.0841026 0.00365521 0)
(-0.0958674 0.00335252 0)
(-0.106608 0.00304165 0)
(-0.116296 0.00272527 0)
(-0.124943 0.00243028 0)
(-0.132633 0.00216141 0)
(-0.139471 0.00189613 0)
(-0.145463 0.00167205 0)
(-0.150635 0.00142693 0)
(-0.155068 0.00121266 0)
(-0.158792 0.0010131 0)
(-0.161848 0.000799234 0)
(-0.164242 0.00063743 0)
(-0.166018 0.000430895 0)
(-0.16717 0.000266084 0)
(-0.167726 7.63792e-05 0)
(-0.167686 -8.93035e-05 0)
(-0.167055 -0.000275436 0)
(-0.16584 -0.000411245 0)
(-0.164115 -0.000609714 0)
(-0.161832 -0.00071464 0)
(-0.159009 -0.000945853 0)
(-0.15543 -0.00109815 0)
(-0.151171 -0.00137988 0)
(-0.146062 -0.00158133 0)
(-0.140035 -0.00191535 0)
(-0.13298 -0.00219734 0)
(-0.124871 -0.00255615 0)
(-0.115663 -0.00290681 0)
(-0.105213 -0.00326989 0)
(-0.0937384 -0.0035993 0)
(-0.0810387 -0.00395721 0)
(-0.0671837 -0.00426648 0)
(-0.0525614 -0.00448744 0)
(-0.0372926 -0.00474809 0)
(-0.0218918 -0.00487165 0)
(-0.00450339 -0.00500749 0)
(0.0154124 -0.00527065 0)
(0.0355719 -0.00533054 0)
(0.0555656 -0.00536322 0)
(0.075603 -0.00537294 0)
(0.0953263 -0.0052735 0)
(0.114531 -0.00516523 0)
(0.133132 -0.00496453 0)
(0.150737 -0.0047308 0)
(0.167358 -0.00444772 0)
(0.182634 -0.00406715 0)
(0.196297 -0.0036505 0)
(0.208289 -0.00318351 0)
(0.218349 -0.00261868 0)
(0.22626 -0.00205781 0)
(0.232006 -0.0014175 0)
(0.235385 -0.000740949 0)
(0.236436 -3.12631e-05 0)
(0.235447 0.000667126 0)
(0.232261 0.00129538 0)
(0.226974 0.00191092 0)
(0.219536 0.00254916 0)
(0.210122 0.00307715 0)
(0.198973 0.00359817 0)
(0.186151 0.00408073 0)
(0.171939 0.00441272 0)
(0.156608 0.00474582 0)
(0.140359 0.00493061 0)
(0.123461 0.00511762 0)
(0.106079 0.0052448 0)
(0.0884324 0.00523652 0)
(0.0707708 0.00523987 0)
(0.0531426 0.00519679 0)
(0.0358075 0.00505451 0)
(0.018894 0.00491155 0)
(0.00305874 0.00469424 0)
(-0.0118589 0.00451795 0)
(-0.0264942 0.0043152 0)
(-0.0404598 0.00406079 0)
(-0.0536749 0.00383303 0)
(-0.0660999 0.00359626 0)
(-0.0777085 0.00333419 0)
(-0.0884982 0.00309642 0)
(-0.0984706 0.00284148 0)
(-0.107633 0.00260751 0)
(-0.115993 0.0023726 0)
(-0.123552 0.00212825 0)
(-0.130317 0.00189527 0)
(-0.136286 0.00165985 0)
(-0.141457 0.00141837 0)
(-0.145825 0.00117994 0)
(-0.149385 0.000938309 0)
(-0.152134 0.000692599 0)
(-0.154066 0.000445154 0)
(-0.155149 0.000203789 0)
(-0.155437 -4.02095e-05 0)
(-0.154867 -0.000293774 0)
(-0.153458 -0.000546072 0)
(-0.151209 -0.000794174 0)
(-0.148119 -0.00104124 0)
(-0.144198 -0.00129081 0)
(-0.13945 -0.00153257 0)
(-0.133886 -0.00177975 0)
(-0.127517 -0.00201459 0)
(-0.120352 -0.00224373 0)
(-0.112406 -0.00248463 0)
(-0.103695 -0.00270336 0)
(-0.0942325 -0.00291452 0)
(-0.0840378 -0.00314637 0)
(-0.0731297 -0.00334409 0)
(-0.0615262 -0.00356835 0)
(-0.0492419 -0.0037506 0)
(-0.0362837 -0.00392244 0)
(-0.0224794 -0.00413125 0)
(-0.0075497 -0.00428673 0)
(0.00863091 -0.00435584 0)
(0.269737 0.00178651 0)
(0.265374 0.00298081 0)
(0.258157 0.00415392 0)
(0.248664 0.0052738 0)
(0.237065 0.00620808 0)
(0.22358 0.00713169 0)
(0.208435 0.00779728 0)
(0.191903 0.00847334 0)
(0.174244 0.00903257 0)
(0.155729 0.00926989 0)
(0.136642 0.00955748 0)
(0.117237 0.0097223 0)
(0.0977579 0.00958859 0)
(0.0784289 0.00952471 0)
(0.059451 0.00920935 0)
(0.0409789 0.00896929 0)
(0.0230685 0.0086552 0)
(0.0060447 0.00814477 0)
(-0.00992556 0.00774132 0)
(-0.0250141 0.00728976 0)
(-0.0391467 0.00675005 0)
(-0.0522799 0.00626989 0)
(-0.0644003 0.00578098 0)
(-0.0755098 0.00525973 0)
(-0.0856307 0.00478506 0)
(-0.0947846 0.00429817 0)
(-0.103004 0.00385078 0)
(-0.110321 0.00341516 0)
(-0.116768 0.00298632 0)
(-0.122381 0.00258358 0)
(-0.127194 0.00219395 0)
(-0.131235 0.00181591 0)
(-0.134537 0.00145268 0)
(-0.137125 0.00109782 0)
(-0.139025 0.000753146 0)
(-0.140226 0.000427119 0)
(-0.140769 0.000100264 0)
(-0.140649 -0.000237008 0)
(-0.13984 -0.000577296 0)
(-0.138355 -0.000922186 0)
(-0.136176 -0.00126792 0)
(-0.133283 -0.00163801 0)
(-0.12967 -0.00199831 0)
(-0.125284 -0.00237826 0)
(-0.120091 -0.00280936 0)
(-0.114091 -0.00319932 0)
(-0.107214 -0.00361487 0)
(-0.099433 -0.00412574 0)
(-0.090695 -0.0045429 0)
(-0.0810137 -0.00500363 0)
(-0.0702682 -0.00554058 0)
(-0.0585188 -0.00601046 0)
(-0.0457209 -0.00654459 0)
(-0.0317568 -0.00701016 0)
(-0.0169889 -0.00743264 0)
(-0.00169606 -0.00795724 0)
(0.0143929 -0.00830564 0)
(0.0314463 -0.00855363 0)
(0.0490903 -0.00888715 0)
(0.0672239 -0.00902159 0)
(0.0856246 -0.00915787 0)
(0.104145 -0.00915626 0)
(0.122597 -0.0089926 0)
(0.140674 -0.00878084 0)
(0.158159 -0.008441 0)
(0.174853 -0.00793983 0)
(0.190443 -0.00737889 0)
(0.204683 -0.00664452 0)
(0.217373 -0.00584087 0)
(0.228381 -0.00492865 0)
(0.237345 -0.00386995 0)
(0.244075 -0.00275628 0)
(0.248572 -0.00156939 0)
(0.25042 -0.000311854 0)
(0.249737 0.000939482 0)
(0.24657 0.00232406 0)
(0.240713 0.0036008 0)
(0.232454 0.00486345 0)
(0.221948 0.0060351 0)
(0.209017 0.00706513 0)
(0.194323 0.00796376 0)
(0.178145 0.00870821 0)
(0.160454 0.00924226 0)
(0.141999 0.00962127 0)
(0.123063 0.0098251 0)
(0.103798 0.00987039 0)
(0.0843381 0.00979318 0)
(0.0652779 0.00960575 0)
(0.0465823 0.00934658 0)
(0.0281442 0.00908474 0)
(0.0102131 0.00877754 0)
(-0.00726555 0.00837425 0)
(-0.0237573 0.00796388 0)
(-0.0391927 0.00753733 0)
(-0.0536792 0.00708995 0)
(-0.0672263 0.00660091 0)
(-0.0798684 0.00610501 0)
(-0.0915899 0.00557721 0)
(-0.102365 0.00507398 0)
(-0.112126 0.00458777 0)
(-0.120833 0.00404581 0)
(-0.128501 0.0035959 0)
(-0.135234 0.00308418 0)
(-0.14102 0.00264252 0)
(-0.145888 0.0022319 0)
(-0.149948 0.00181478 0)
(-0.153243 0.00147047 0)
(-0.155836 0.00109304 0)
(-0.157735 0.00074622 0)
(-0.158933 0.000483067 0)
(-0.159495 0.000127034 0)
(-0.159477 -0.000169336 0)
(-0.158822 -0.00046148 0)
(-0.157525 -0.000806504 0)
(-0.155606 -0.00109956 0)
(-0.153079 -0.00140662 0)
(-0.14988 -0.00174468 0)
(-0.146029 -0.00208913 0)
(-0.141548 -0.00242468 0)
(-0.1363 -0.00274506 0)
(-0.130292 -0.00316066 0)
(-0.1236 -0.00354064 0)
(-0.116079 -0.00389134 0)
(-0.107744 -0.00432634 0)
(-0.0986062 -0.00475627 0)
(-0.0886296 -0.00518045 0)
(-0.077755 -0.00558574 0)
(-0.0659945 -0.00602527 0)
(-0.0534141 -0.00646327 0)
(-0.039957 -0.00686853 0)
(-0.0256958 -0.00727033 0)
(-0.0106353 -0.00764262 0)
(0.00514963 -0.00798171 0)
(0.0215462 -0.0082566 0)
(0.0384404 -0.00849198 0)
(0.0557496 -0.00864779 0)
(0.0732837 -0.00871583 0)
(0.0908843 -0.00873301 0)
(0.108381 -0.00859277 0)
(0.125515 -0.00836477 0)
(0.142067 -0.00800677 0)
(0.157768 -0.00752579 0)
(0.172352 -0.00688974 0)
(0.185507 -0.00610893 0)
(0.196965 -0.00522547 0)
(0.206493 -0.00419488 0)
(0.213892 -0.00311036 0)
(0.21897 -0.001914 0)
(0.221586 -0.000697011 0)
(0.221714 0.000581213 0)
(0.219209 0.00186348 0)
(0.214118 0.00313356 0)
(0.206567 0.00431892 0)
(0.196703 0.00542882 0)
(0.184729 0.00643227 0)
(0.170832 0.00731096 0)
(0.155287 0.0080664 0)
(0.138376 0.00865949 0)
(0.120387 0.00912464 0)
(0.10164 0.00944288 0)
(0.0824135 0.0095944 0)
(0.0630305 0.0096097 0)
(0.0437505 0.00950236 0)
(0.0247864 0.00929499 0)
(0.00635858 0.00896217 0)
(-0.0113325 0.00855819 0)
(-0.0281293 0.0081383 0)
(-0.0440256 0.00765332 0)
(-0.0589789 0.00716112 0)
(-0.0728873 0.00664002 0)
(-0.0857376 0.00612698 0)
(-0.0976076 0.00563638 0)
(-0.108481 0.00513332 0)
(-0.11832 0.00461996 0)
(-0.12712 0.00411305 0)
(-0.134889 0.003616 0)
(-0.141699 0.00313092 0)
(-0.147614 0.00271632 0)
(-0.152624 0.00230517 0)
(-0.156844 0.00191139 0)
(-0.160324 0.00153881 0)
(-0.163066 0.00120077 0)
(-0.165147 0.000862386 0)
(-0.166609 0.000571018 0)
(-0.167441 0.000275985 0)
(-0.16776 2.39153e-05 0)
(-0.167535 -0.000221762 0)
(-0.166776 -0.000500445 0)
(-0.165515 -0.000760741 0)
(-0.163688 -0.00104752 0)
(-0.161284 -0.00135226 0)
(-0.158229 -0.00167093 0)
(-0.154522 -0.00199933 0)
(-0.150192 -0.00232431 0)
(-0.145181 -0.00263911 0)
(-0.139512 -0.0029944 0)
(-0.133126 -0.00332513 0)
(-0.125957 -0.00374998 0)
(-0.117981 -0.00416626 0)
(-0.109104 -0.00461418 0)
(-0.0993417 -0.00508761 0)
(-0.0885839 -0.00557217 0)
(-0.0768721 -0.00603313 0)
(-0.0642225 -0.00650929 0)
(-0.0506559 -0.0069448 0)
(-0.036214 -0.00736645 0)
(-0.0209601 -0.00775289 0)
(-0.00496088 -0.00808673 0)
(0.0116787 -0.00838376 0)
(0.0288401 -0.00861634 0)
(0.0463837 -0.00877178 0)
(0.0641711 -0.00883378 0)
(0.0819781 -0.00877716 0)
(0.0995423 -0.00859797 0)
(0.116617 -0.00830434 0)
(0.132938 -0.00784938 0)
(0.148242 -0.00729136 0)
(0.162295 -0.00660679 0)
(0.174826 -0.00580304 0)
(0.185637 -0.00487783 0)
(0.194479 -0.00386092 0)
(0.201171 -0.00275562 0)
(0.205593 -0.00162098 0)
(0.207619 -0.000431935 0)
(0.207302 0.000748914 0)
(0.204526 0.00195464 0)
(0.19939 0.00310304 0)
(0.191996 0.00418637 0)
(0.182491 0.00522331 0)
(0.171049 0.00611265 0)
(0.15787 0.006918 0)
(0.14323 0.00755384 0)
(0.127399 0.00808405 0)
(0.110704 0.0084358 0)
(0.0934081 0.00868516 0)
(0.075734 0.00882623 0)
(0.057927 0.0088456 0)
(0.0401691 0.00878319 0)
(0.0225806 0.00864966 0)
(0.00535652 0.00842708 0)
(-0.0113895 0.00816665 0)
(-0.0275667 0.00784516 0)
(-0.0430319 0.00749103 0)
(-0.0577008 0.0070543 0)
(-0.0714687 0.00659177 0)
(-0.084243 0.00609234 0)
(-0.0960028 0.00558363 0)
(-0.106746 0.00507448 0)
(-0.11644 0.00454726 0)
(-0.12509 0.00404905 0)
(-0.132779 0.00359389 0)
(-0.139602 0.00316246 0)
(-0.145595 0.00279285 0)
(-0.150768 0.00237795 0)
(-0.155195 0.00202053 0)
(-0.158917 0.0016815 0)
(-0.161961 0.0013393 0)
(-0.164362 0.00105542 0)
(-0.166133 0.000715586 0)
(-0.167291 0.000440627 0)
(-0.167841 0.000127539 0)
(-0.167799 -0.000147443 0)
(-0.167157 -0.000456699 0)
(-0.165942 -0.000689431 0)
(-0.164202 -0.00101289 0)
(-0.161925 -0.00120246 0)
(-0.159083 -0.00157263 0)
(-0.155504 -0.00183149 0)
(-0.151235 -0.00229935 0)
(-0.146127 -0.00263883 0)
(-0.140089 -0.00318432 0)
(-0.133045 -0.00366028 0)
(-0.124944 -0.00425864 0)
(-0.115738 -0.00484883 0)
(-0.105286 -0.00544904 0)
(-0.0938214 -0.00599218 0)
(-0.0811356 -0.00660149 0)
(-0.0672717 -0.00710592 0)
(-0.0526633 -0.00748349 0)
(-0.0373893 -0.0079114 0)
(-0.0219836 -0.00811647 0)
(-0.00462864 -0.00834783 0)
(0.0152878 -0.00878304 0)
(0.0354728 -0.0088854 0)
(0.0554749 -0.00894419 0)
(0.0755306 -0.00895929 0)
(0.0952744 -0.00878864 0)
(0.114497 -0.00860788 0)
(0.133116 -0.00827982 0)
(0.150746 -0.0078849 0)
(0.167389 -0.00741912 0)
(0.182694 -0.00678136 0)
(0.196374 -0.00608257 0)
(0.208392 -0.00529828 0)
(0.218467 -0.00436875 0)
(0.226399 -0.00340586 0)
(0.232157 -0.00238749 0)
(0.235554 -0.00120497 0)
(0.236615 -3.19884e-05 0)
(0.235598 0.00111178 0)
(0.232414 0.00215305 0)
(0.22713 0.00318401 0)
(0.219687 0.00425023 0)
(0.21026 0.00513084 0)
(0.199097 0.00599969 0)
(0.186258 0.0068042 0)
(0.172027 0.00735772 0)
(0.156677 0.00791287 0)
(0.14041 0.00822072 0)
(0.123494 0.00853226 0)
(0.106095 0.00874423 0)
(0.0884334 0.00872977 0)
(0.0707583 0.00873545 0)
(0.0531187 0.00866279 0)
(0.0357717 0.00842584 0)
(0.018847 0.00818806 0)
(0.0030084 0.00782379 0)
(-0.0119136 0.0075308 0)
(-0.0265542 0.00719268 0)
(-0.0405222 0.00676838 0)
(-0.0537396 0.00638863 0)
(-0.0661655 0.00599389 0)
(-0.0777736 0.00555697 0)
(-0.0885631 0.00516067 0)
(-0.0985344 0.00473575 0)
(-0.107697 0.00434578 0)
(-0.116056 0.00395431 0)
(-0.123615 0.00354709 0)
(-0.130379 0.00315884 0)
(-0.136349 0.00276654 0)
(-0.14152 0.002364 0)
(-0.145888 0.00196665 0)
(-0.149448 0.00156395 0)
(-0.152196 0.00115467 0)
(-0.15413 0.000742845 0)
(-0.155215 0.000342552 0)
(-0.155506 -7.03887e-05 0)
(-0.154934 -0.000490112 0)
(-0.153524 -0.000910364 0)
(-0.151275 -0.0013237 0)
(-0.148185 -0.00173548 0)
(-0.144263 -0.00215144 0)
(-0.139515 -0.00255439 0)
(-0.13395 -0.00296642 0)
(-0.12758 -0.0033578 0)
(-0.120413 -0.00373973 0)
(-0.112467 -0.00414128 0)
(-0.103754 -0.00450582 0)
(-0.0942898 -0.00485778 0)
(-0.0840942 -0.00524423 0)
(-0.073184 -0.0055738 0)
(-0.0615793 -0.00594758 0)
(-0.0492927 -0.00625135 0)
(-0.0363321 -0.00653776 0)
(-0.0225267 -0.0068868 0)
(-0.00758474 -0.00714493 0)
(0.00860317 -0.00726054 0)
(0.270031 0.00250288 0)
(0.265656 0.00417612 0)
(0.258426 0.00581969 0)
(0.248915 0.00738867 0)
(0.237286 0.00869735 0)
(0.223776 0.00999121 0)
(0.208597 0.0109232 0)
(0.192035 0.0118701 0)
(0.174345 0.0126532 0)
(0.155796 0.0129851 0)
(0.136679 0.0133874 0)
(0.117245 0.0136178 0)
(0.0977399 0.0134297 0)
(0.0783868 0.0133397 0)
(0.0593899 0.0128974 0)
(0.0409002 0.0125604 0)
(0.0229718 0.01212 0)
(0.00593997 0.011405 0)
(-0.0100357 0.0108393 0)
(-0.0251315 0.0102066 0)
(-0.0392654 0.00945043 0)
(-0.0524003 0.0087779 0)
(-0.0645203 0.008093 0)
(-0.0756267 0.00736303 0)
(-0.0857452 0.00669825 0)
(-0.0948948 0.00601653 0)
(-0.103111 0.00539012 0)
(-0.110424 0.0047802 0)
(-0.116867 0.00417982 0)
(-0.122476 0.00361603 0)
(-0.127285 0.00307072 0)
(-0.131323 0.00254165 0)
(-0.134621 0.00203348 0)
(-0.137206 0.00153779 0)
(-0.139102 0.00105615 0)
(-0.140306 0.000596415 0)
(-0.140853 0.000135599 0)
(-0.14073 -0.000333735 0)
(-0.139921 -0.00080841 0)
(-0.138437 -0.00129148 0)
(-0.13626 -0.0017745 0)
(-0.13337 -0.00229181 0)
(-0.12976 -0.00279745 0)
(-0.125379 -0.00332858 0)
(-0.12019 -0.00392907 0)
(-0.114192 -0.00448031 0)
(-0.107321 -0.00505982 0)
(-0.0995436 -0.00577437 0)
(-0.0908064 -0.00635934 0)
(-0.0811286 -0.00700526 0)
(-0.0703859 -0.00775591 0)
(-0.0586343 -0.00841656 0)
(-0.0458349 -0.00916145 0)
(-0.0318732 -0.00982307 0)
(-0.0170993 -0.0104066 0)
(-0.00179273 -0.0111386 0)
(0.0143117 -0.0116289 0)
(0.0313779 -0.0119795 0)
(0.049038 -0.0124462 0)
(0.067191 -0.0126379 0)
(0.0856158 -0.0128258 0)
(0.104157 -0.0128265 0)
(0.122638 -0.0125987 0)
(0.140743 -0.0122998 0)
(0.158252 -0.0118317 0)
(0.174975 -0.0111225 0)
(0.1906 -0.0103394 0)
(0.20487 -0.0093223 0)
(0.217577 -0.00818021 0)
(0.228616 -0.00691772 0)
(0.237611 -0.00543939 0)
(0.244351 -0.0038625 0)
(0.248876 -0.00221228 0)
(0.250744 -0.000438093 0)