/*--------------------------------*- C++ -*----------------------------------*\
| =========                 |                                                 |
| \\      /  F ield         | OpenFOAM: The Open Source CFD Toolbox           |
|  \\    /   O peration     | Version:  3.0.1                                 |
|   \\  /    A nd           | Web:      www.OpenFOAM.org                      |
|    \\/     M anipulation  |                                                 |
\*---------------------------------------------------------------------------*/
FoamFile
{
    version     2.0;
    format      ascii;
    class       surfaceScalarField;
    location    "24.6";
    object      alphaPhi;
}
// * * * * * * * * * * * * * * * * * * * * * * * * * * * * * * * * * * * * * //

dimensions      [0 3 -1 0 0 0 0];

internalField   nonuniform List<scalar> 
42423
(
0.000207444
6.70304e-06
0.000198919
8.5252e-06
0.000188275
1.06434e-05
0.000175594
1.26812e-05
0.000161391
1.42029e-05
0.000145638
1.57534e-05
0.000128759
1.68791e-05
0.000110916
1.78428e-05
9.23111e-05
1.86049e-05
7.34405e-05
1.88706e-05
5.43598e-05
1.90806e-05
3.52842e-05
1.90756e-05
1.66685e-05
1.86157e-05
-1.57206e-06
1.82406e-05
-1.91841e-05
1.7612e-05
-3.60851e-05
1.6901e-05
-5.21259e-05
1.60409e-05
-6.72402e-05
1.51143e-05
-8.1415e-05
1.41748e-05
-9.45868e-05
1.31718e-05
-0.000106747
1.21604e-05
-0.000117902
1.11551e-05
-0.000128067
1.01649e-05
-0.000137263
9.19627e-06
-0.000145512
8.24859e-06
-0.000152853
7.34129e-06
-0.000159328
6.47428e-06
-0.000164955
5.62696e-06
-0.000169762
4.80787e-06
-0.000173792
4.02935e-06
-0.000177072
3.27988e-06
-0.000179609
2.53698e-06
-0.000181433
1.8243e-06
-0.000182568
1.13458e-06
-0.000183049
4.81001e-07
-0.000182798
-2.50953e-07
-0.000181763
-1.0341e-06
-0.000180027
-1.73621e-06
-0.000177612
-2.41557e-06
-0.000174356
-3.25621e-06
-0.000170354
-4.00142e-06
-0.000165531
-4.82289e-06
-0.000159914
-5.6171e-06
-0.000153413
-6.50111e-06
-0.000145999
-7.41435e-06
-0.000137698
-8.30123e-06
-0.00012848
-9.2178e-06
-0.000118235
-1.02453e-05
-0.000106944
-1.12906e-05
-9.48346e-05
-1.21095e-05
-8.16086e-05
-1.3226e-05
-6.73652e-05
-1.42435e-05
-5.218e-05
-1.51852e-05
-3.60443e-05
-1.61358e-05
-1.91615e-05
-1.68829e-05
-1.56206e-06
-1.75995e-05
1.66638e-05
-1.82259e-05
3.51423e-05
-1.84786e-05
5.39286e-05
-1.87864e-05
7.26921e-05
-1.87636e-05
9.12697e-05
-1.85776e-05
0.00010956
-1.82902e-05
0.000127037
-1.74778e-05
0.000143612
-1.65746e-05
0.000159086
-1.54745e-05
0.000173093
-1.40064e-05
0.000185544
-1.24509e-05
0.000196178
-1.06341e-05
0.00020483
-8.65203e-06
0.000211487
-6.65735e-06
0.000215829
-4.34219e-06
0.000217796
-1.96753e-06
0.000217519
2.77084e-07
0.000214801
2.71854e-06
0.000209705
5.09562e-06
0.000202323
7.38262e-06
0.000192954
9.36873e-06
0.000181478
1.14759e-05
0.000168344
1.31343e-05
0.000153547
1.47967e-05
0.000137438
1.61088e-05
0.000120177
1.72609e-05
0.000102107
1.80703e-05
8.35209e-05
1.85862e-05
6.45874e-05
1.89335e-05
4.54922e-05
1.90953e-05
2.65062e-05
1.8986e-05
7.76869e-06
1.87375e-05
-1.05261e-05
1.82948e-05
-2.83005e-05
1.77745e-05
-4.5369e-05
1.70684e-05
-6.16243e-05
1.62553e-05
-7.70064e-05
1.53821e-05
-9.13954e-05
1.4389e-05
-0.000104772
1.3377e-05
-0.000117086
1.23137e-05
-0.000128334
1.12475e-05
-0.000138433
1.00991e-05
-0.000147565
9.13235e-06
-0.000155584
8.01902e-06
-0.000162471
6.88721e-06
-0.000168476
6.00436e-06
-0.000173478
5.00207e-06
-0.00017753
4.05284e-06
-0.000180807
3.27682e-06
-0.00018325
2.44289e-06
-0.000184919
1.66881e-06
-0.000185888
9.69199e-07
-0.000186133
2.44883e-07
-0.000185682
-4.51422e-07
-0.000184521
-1.16066e-06
-0.000182605
-1.91624e-06
-0.000180086
-2.51873e-06
-0.000176814
-3.27154e-06
-0.000172801
-4.01379e-06
-0.000168095
-4.70552e-06
-0.000162664
-5.43158e-06
-0.000156466
-6.19766e-06
-0.000149549
-6.91712e-06
-0.00014185
-7.69887e-06
-0.000133394
-8.45623e-06
-0.000124158
-9.23537e-06
-0.00011416
-9.99801e-06
-0.000103382
-1.07788e-05
-9.18034e-05
-1.15784e-05
-7.9458e-05
-1.23454e-05
-6.63286e-05
-1.31295e-05
-5.2405e-05
-1.39237e-05
-3.77696e-05
-1.46355e-05
-2.24348e-05
-1.53349e-05
-6.40898e-06
-1.60259e-05
1.02033e-05
-1.66124e-05
2.73097e-05
-1.71065e-05
4.4797e-05
-1.74875e-05
6.24925e-05
-1.76957e-05
8.02341e-05
-1.77417e-05
9.78149e-05
-1.75809e-05
0.000114985
-1.71703e-05
0.000131502
-1.65166e-05
0.000147097
-1.55955e-05
0.00016151
-1.44127e-05
0.000174438
-1.29288e-05
0.000185642
-1.12039e-05
0.000194895
-9.25265e-06
0.00020201
-7.11516e-06
0.000206853
-4.84314e-06
0.000209247
-2.39409e-06
0.000209205
4.17433e-08
0.000206653
2.55235e-06
0.00020156
5.09255e-06
0.000194086
7.47362e-06
0.000184368
9.71862e-06
0.000172634
1.17337e-05
0.000159096
1.35377e-05
0.000144021
1.50754e-05
0.000127673
1.63478e-05
0.000110256
1.74168e-05
9.21506e-05
1.81057e-05
7.35622e-05
1.85884e-05
5.48758e-05
1.86864e-05
3.61584e-05
1.87174e-05
1.77671e-05
1.83912e-05
-1.14726e-07
1.78818e-05
-1.73478e-05
1.72331e-05
-3.37911e-05
1.64433e-05
-4.93942e-05
1.5603e-05
-6.39985e-05
1.46043e-05
-7.75854e-05
1.35869e-05
-9.0159e-05
1.25737e-05
-0.000101666
1.15069e-05
-0.000112225
1.05595e-05
-0.000121805
9.5795e-06
-0.000130449
8.64444e-06
-0.000138107
7.65728e-06
-0.000144914
6.80693e-06
-0.000150833
5.91939e-06
-0.000155985
5.15244e-06
-0.000160516
4.53055e-06
-0.000164188
3.67252e-06
-0.000167269
3.0807e-06
-0.000169767
2.49745e-06
-0.000171556
1.78927e-06
-0.000172747
1.19117e-06
-0.000173335
5.88315e-07
-0.000173263
-7.22524e-08
-0.000172663
-5.99884e-07
-0.000171347
-1.31619e-06
-0.000169431
-1.91626e-06
-0.000166822
-2.60881e-06
-0.000163474
-3.34743e-06
-0.000159395
-4.0791e-06
-0.000154526
-4.86945e-06
-0.000148809
-5.71701e-06
-0.000142279
-6.5302e-06
-0.000134858
-7.42083e-06
-0.000126536
-8.32216e-06
-0.000117371
-9.16509e-06
-0.000107245
-1.01256e-05
-9.62401e-05
-1.10051e-05
-8.42748e-05
-1.19654e-05
-7.14658e-05
-1.2809e-05
-5.77426e-05
-1.37233e-05
-4.31686e-05
-1.4574e-05
-2.78257e-05
-1.5343e-05
-1.17566e-05
-1.60691e-05
4.90641e-06
-1.66631e-05
2.20986e-05
-1.71923e-05
3.96755e-05
-1.75769e-05
5.74836e-05
-1.78082e-05
7.53363e-05
-1.78528e-05
9.30431e-05
-1.77069e-05
0.000110433
-1.73897e-05
0.000127258
-1.68251e-05
0.00014325
-1.59922e-05
0.00015823
-1.49798e-05
0.000171951
-1.3721e-05
0.000184209
-1.22583e-05
0.000194734
-1.05256e-05
0.000203342
-8.60738e-06
0.000209893
-6.55138e-06
0.000214154
-4.26099e-06
0.000216143
-1.98876e-06
0.000215777
3.65404e-07
0.000213108
2.66957e-06
0.00020817
4.93826e-06
0.000200942
7.22725e-06
0.000191705
9.23732e-06
0.000180527
1.11777e-05
0.000167702
1.28257e-05
0.000153329
1.43724e-05
0.000137728
1.56013e-05
0.00012117
1.65574e-05
0.000103891
1.72796e-05
8.61007e-05
1.77901e-05
6.81069e-05
1.79938e-05
5.00745e-05
1.80324e-05
3.22413e-05
1.78332e-05
1.47389e-05
1.75024e-05
-2.24428e-06
1.69832e-05
-1.85159e-05
1.62716e-05
-3.40451e-05
1.55292e-05
-4.87514e-05
1.47064e-05
-6.25253e-05
1.37738e-05
-7.52365e-05
1.27113e-05
-8.69588e-05
1.17222e-05
-9.76583e-05
1.06996e-05
-0.000107293
9.63434e-06
-0.000116034
8.74163e-06
-0.000123728
7.69376e-06
-0.00013052
6.79166e-06
-0.000136486
5.96617e-06
-0.000141633
5.14747e-06
-0.000145885
4.25149e-06
-0.000149295
3.41053e-06
-0.000152016
2.72027e-06
-0.000154012
1.99603e-06
-0.000155345
1.33375e-06
-0.000156022
6.76661e-07
-0.000156049
2.67603e-08
-0.000155454
-5.94476e-07
-0.000154209
-1.24476e-06
-0.000152329
-1.88015e-06
-0.000149759
-2.57054e-06
-0.000146649
-3.1101e-06
-0.000142819
-3.82957e-06
-0.000138273
-4.54614e-06
-0.000133108
-5.16514e-06
-0.000127089
-6.01853e-06
-0.000120355
-6.73391e-06
-0.000112844
-7.51085e-06
-0.000104466
-8.37862e-06
-9.53076e-05
-9.15818e-06
-8.51222e-05
-1.01854e-05
-7.42395e-05
-1.08827e-05
-6.22293e-05
-1.20102e-05
-4.94864e-05
-1.2743e-05
-3.56221e-05
-1.38643e-05
-2.10392e-05
-1.4583e-05
-5.47427e-06
-1.5565e-05
1.0735e-05
-1.62093e-05
2.77445e-05
-1.70096e-05
4.53968e-05
-1.76524e-05
6.35357e-05
-1.8139e-05
8.19374e-05
-1.84018e-05
0.000100378
-1.84405e-05
0.000118738
-1.83607e-05
0.00013666
-1.79215e-05
0.000154011
-1.73514e-05
0.000170468
-1.64569e-05
0.000185769
-1.5301e-05
0.000199829
-1.40599e-05
0.000212204
-1.23751e-05
0.000222829
-1.06258e-05
0.000231488
-8.65866e-06
0.000237986
-6.49829e-06
0.000242238
-4.25226e-06
0.000244078
-1.83962e-06
0.000243648
4.29625e-07
0.000241017
2.63112e-06
0.000235971
5.04642e-06
0.000228797
7.17391e-06
0.00021953
9.2667e-06
0.000208097
1.14325e-05
0.000194715
1.33825e-05
0.000179758
1.49564e-05
0.000163207
1.65511e-05
0.000145531
1.76756e-05
0.000126915
1.86166e-05
0.000107601
1.93134e-05
8.79478e-05
1.96535e-05
6.82101e-05
1.97377e-05
4.86304e-05
1.95796e-05
2.94239e-05
1.92065e-05
1.08916e-05
1.85323e-05
-6.95594e-06
1.78476e-05
-2.38303e-05
1.68744e-05
-3.96141e-05
1.57838e-05
-5.42332e-05
1.4619e-05
-6.76139e-05
1.33807e-05
-7.9751e-05
1.21371e-05
-9.0634e-05
1.08831e-05
-0.00010026
9.62576e-06
-0.000108677
8.41679e-06
-0.000115936
7.25983e-06
-0.000122111
6.17497e-06
-0.000127281
5.16941e-06
-0.000131489
4.2082e-06
-0.000134858
3.36898e-06
-0.000137466
2.60833e-06
-0.000139368
1.90125e-06
-0.000140647
1.27915e-06
-0.000141364
7.17676e-07
-0.000141591
2.26478e-07
-0.000141277
-3.14036e-07
-0.00014053
-7.46675e-07
-0.000139374
-1.15619e-06
-0.000137819
-1.55517e-06
-0.000135869
-1.94949e-06
-0.000133421
-2.44783e-06
-0.000130546
-2.87504e-06
-0.00012731
-3.23683e-06
-0.000123412
-3.898e-06
-0.000118993
-4.41815e-06
-0.000113699
-5.29433e-06
-0.000107756
-5.94305e-06
-0.000101079
-6.67656e-06
-9.32475e-05
-7.83199e-06
-8.4447e-05
-8.80046e-06
-7.45762e-05
-9.87077e-06
-6.33657e-05
-1.12105e-05
-5.09562e-05
-1.24095e-05
-3.70706e-05
-1.38856e-05
-2.17873e-05
-1.52832e-05
-5.17565e-06
-1.66117e-05
1.24433e-05
-1.7619e-05
3.09635e-05
-1.85201e-05
-1.93445e-05
0.000207534
1.34074e-05
0.000199007
1.70528e-05
0.000188358
2.12917e-05
0.00017567
2.53697e-05
0.000161459
2.84136e-05
0.000145697
3.15151e-05
0.000128805
3.37711e-05
0.000110951
3.56969e-05
9.23363e-05
3.72196e-05
7.3453e-05
3.77539e-05
5.43582e-05
3.81755e-05
3.52775e-05
3.81563e-05
1.66532e-05
3.724e-05
-1.59331e-06
3.64871e-05
-1.9211e-05
3.52297e-05
-3.61163e-05
3.38064e-05
-5.21619e-05
3.20864e-05
-6.72812e-05
3.02336e-05
-8.14605e-05
2.83541e-05
-9.46335e-05
2.63449e-05
-0.000106794
2.43213e-05
-0.000117956
2.23163e-05
-0.00012812
2.0329e-05
-0.000137318
1.83947e-05
-0.000145572
1.65019e-05
-0.000152911
1.46804e-05
-0.000159381
1.29451e-05
-0.000165008
1.12531e-05
-0.000169817
9.61693e-06
-0.000173847
8.05967e-06
-0.000177126
6.55896e-06
-0.000179664
5.07487e-06
-0.00018149
3.6499e-06
-0.000182625
2.2698e-06
-0.000183102
9.58701e-07
-0.000182852
-5.0145e-07
-0.000181819
-2.06694e-06
-0.000180083
-3.47278e-06
-0.000177668
-4.82973e-06
-0.000174416
-6.50862e-06
-0.000170414
-8.00311e-06
-0.000165592
-9.64563e-06
-0.000159983
-1.12263e-05
-0.000153486
-1.29981e-05
-0.000146063
-1.48374e-05
-0.000137765
-1.65988e-05
-0.000128545
-1.84378e-05
-0.000118297
-2.04933e-05
-0.000107022
-2.25665e-05
-9.48973e-05
-2.42339e-05
-8.16621e-05
-2.64613e-05
-6.74289e-05
-2.84768e-05
-5.22375e-05
-3.03768e-05
-3.6101e-05
-3.22724e-05
-1.92107e-05
-3.37735e-05
-1.60632e-06
-3.5204e-05
1.66339e-05
-3.64663e-05
3.51107e-05
-3.69555e-05
5.39084e-05
-3.75844e-05
7.26927e-05
-3.7548e-05
9.12726e-05
-3.71578e-05
0.000109578
-3.65957e-05
0.000127068
-3.49679e-05
0.000143655
-3.31621e-05
0.000159157
-3.09763e-05
0.000173169
-2.80184e-05
0.000185635
-2.49177e-05
0.000196283
-2.1282e-05
0.000204936
-1.73055e-05
0.000211609
-1.33304e-05
0.000215955
-8.68805e-06
0.000217923
-3.93525e-06
0.000217646
5.54069e-07
0.00021492
5.44439e-06
0.000209826
1.01893e-05
0.000202447
1.47611e-05
0.000193057
1.87586e-05
0.00018157
2.29634e-05
0.000168416
2.62882e-05
0.000153601
2.96122e-05
0.000137492
3.22177e-05
0.000120211
3.45422e-05
0.000102121
3.61603e-05
8.35141e-05
3.71929e-05
6.45655e-05
3.78822e-05
4.54582e-05
3.82026e-05
2.64627e-05
3.79815e-05
7.71331e-06
3.7487e-05
-1.05922e-05
3.66004e-05
-2.83751e-05
3.55573e-05
-4.54519e-05
3.41453e-05
-6.1721e-05
3.25245e-05
-7.70921e-05
3.07532e-05
-9.14831e-05
2.87801e-05
-0.000104858
2.67516e-05
-0.000117173
2.46291e-05
-0.000128428
2.25026e-05
-0.000138526
2.0197e-05
-0.000147653
1.82592e-05
-0.000155678
1.60447e-05
-0.000162552
1.37609e-05
-0.000168559
1.2011e-05
-0.000173558
1.0001e-05
-0.000177589
8.08467e-06
-0.000180869
6.5565e-06
-0.000183316
4.89035e-06
-0.000184985
3.33694e-06
-0.000185954
1.93856e-06
-0.000186197
4.8765e-07
-0.000185741
-9.07613e-07
-0.000184573
-2.32827e-06
-0.000182656
-3.83347e-06
-0.000180138
-5.03611e-06
-0.000176865
-6.54511e-06
-0.00017285
-8.02874e-06
-0.000168151
-9.40389e-06
-0.000162716
-1.08674e-05
-0.000156513
-1.24003e-05
-0.000149595
-1.38352e-05
-0.000141889
-1.54051e-05
-0.00013344
-1.69046e-05
-0.000124203
-1.84725e-05
-0.0001142
-2.00016e-05
-0.000103425
-2.15536e-05
-9.1839e-05
-2.31647e-05
-7.94874e-05
-2.46971e-05
-6.63658e-05
-2.62512e-05
-5.2445e-05
-2.78447e-05
-3.77995e-05
-2.92811e-05
-2.24646e-05
-3.067e-05
-6.43424e-06
-3.20564e-05
1.01958e-05
-3.32426e-05
2.72945e-05
-3.42054e-05
4.47894e-05
-3.49826e-05
6.24987e-05
-3.54051e-05
8.0258e-05
-3.55011e-05
9.78403e-05
-3.51634e-05
0.000115025
-3.43552e-05
0.000131555
-3.3047e-05
0.000147149
-3.11898e-05
0.000161572
-2.88352e-05
0.000174516
-2.58736e-05
0.000185733
-2.24207e-05
0.000194995
-1.85144e-05
0.000202106
-1.42267e-05
0.000206934
-9.67115e-06
0.000209348
-4.80803e-06
0.000209296
9.38156e-08
0.000206731
5.11642e-06
0.000201637
1.01868e-05
0.000194153
1.49574e-05
0.000184439
1.9433e-05
0.000172676
2.34965e-05
0.000159131
2.70824e-05
0.000144047
3.01599e-05
0.000127672
3.27225e-05
0.000110247
3.48422e-05
9.21221e-05
3.62302e-05
7.35287e-05
3.71818e-05
5.4837e-05
3.73781e-05
3.61168e-05
3.74376e-05
1.7713e-05
3.67951e-05
-1.86136e-07
3.5781e-05
-1.74306e-05
3.44776e-05
-3.38764e-05
3.28892e-05
-4.94705e-05
3.11972e-05
-6.40781e-05
2.92119e-05
-7.76695e-05
2.71783e-05
-9.02506e-05
2.51549e-05
-0.000101773
2.30292e-05
-0.000112305
2.1092e-05
-0.000121885
1.91596e-05
-0.000130531
1.72905e-05
-0.000138189
1.53151e-05
-0.000144998
1.36158e-05
-0.000150905
1.18259e-05
-0.000156045
1.02931e-05
-0.000160589
9.07434e-06
-0.000164257
7.34077e-06
-0.000167329
6.15244e-06
-0.000169816
4.98451e-06
-0.000171612
3.58529e-06
-0.000172802
2.38152e-06
-0.000173392
1.17824e-06
-0.000173318
-1.46746e-07
-0.000172705
-1.21248e-06
-0.000171391
-2.63059e-06
-0.000169475
-3.83226e-06
-0.000166874
-5.20939e-06
-0.000163527
-6.69482e-06
-0.000159447
-8.15901e-06
-0.000154576
-9.74035e-06
-0.000148859
-1.14337e-05
-0.000142329
-1.30601e-05
-0.000134902
-1.48485e-05
-0.000126587
-1.66371e-05
-0.000117416
-1.83357e-05
-0.000107288
-2.02542e-05
-9.62889e-05
-2.20041e-05
-8.43225e-05
-2.39318e-05
-7.15048e-05
-2.56268e-05
-5.77816e-05
-2.74467e-05
-4.32112e-05
-2.91444e-05
-2.78605e-05
-3.06939e-05
-1.17854e-05
-3.21443e-05
4.88728e-06
-3.33359e-05
2.20964e-05
-3.44016e-05
3.96775e-05
-3.51581e-05
5.74881e-05
-3.5619e-05
7.53507e-05
-3.57155e-05
9.30774e-05
-3.54337e-05
0.000110462
-3.47745e-05
0.000127297
-3.36601e-05
0.000143308
-3.20031e-05
0.00015829
-2.99623e-05
0.000172017
-2.74475e-05
0.000184294
-2.4536e-05
0.000194831
-2.10626e-05
0.000203436
-1.72119e-05
0.000209983
-1.30993e-05
0.000214254
-8.5316e-06
0.000216248
-3.98272e-06
0.000215872
7.41529e-07
0.000213185
5.35583e-06
0.000208234
9.88918e-06
0.000201008
1.4454e-05
0.000191768
1.84774e-05
0.000180575
2.23702e-05
0.000167712
2.56889e-05
0.000153348
2.87365e-05
0.000137734
3.12157e-05
0.000121163
3.31279e-05
0.000103874
3.45691e-05
8.60787e-05
3.5585e-05
6.80723e-05
3.60002e-05
5.00291e-05
3.60757e-05
3.2189e-05
3.56733e-05
1.46782e-05
3.50133e-05
-2.31563e-06
3.39771e-05
-1.85918e-05
3.25478e-05
-3.41229e-05
3.10603e-05
-4.88267e-05
2.94102e-05
-6.26018e-05
2.7549e-05
-7.53161e-05
2.54256e-05
-8.70435e-05
2.34497e-05
-9.77407e-05
2.13968e-05
-0.000107375
1.92687e-05
-0.000116119
1.74858e-05
-0.00012381
1.53849e-05
-0.000130587
1.35684e-05
-0.000136555
1.19343e-05
-0.000141713
1.03051e-05
-0.000145968
8.50625e-06
-0.000149363
6.80651e-06
-0.000152077
5.43419e-06
-0.000154087
4.00583e-06
-0.000155405
2.65198e-06
-0.000156076
1.34731e-06
-0.000156095
4.56277e-08
-0.000155499
-1.19067e-06
-0.000154259
-2.48443e-06
-0.000152383
-3.75597e-06
-0.000149821
-5.13241e-06
-0.000146697
-6.23403e-06
-0.000142865
-7.66226e-06
-0.000138317
-9.09354e-06
-0.000133157
-1.03258e-05
-0.000127144
-1.20307e-05
-0.000120407
-1.3471e-05
-0.000112896
-1.50222e-05
-0.000104513
-1.67621e-05
-9.53611e-05
-1.83097e-05
-8.51684e-05
-2.03782e-05
-7.42904e-05
-2.17607e-05
-6.22886e-05
-2.40121e-05
-4.95279e-05
-2.55037e-05
-3.56856e-05
-2.77067e-05
-2.10678e-05
-2.92009e-05
-5.53566e-06
-3.10972e-05
1.06972e-05
-3.24424e-05
2.77089e-05
-3.40214e-05
4.5364e-05
-3.53077e-05
6.35187e-05
-3.62938e-05
8.19306e-05
-3.68139e-05
0.00010038
-3.689e-05
0.000118754
-3.67348e-05
0.000136684
-3.58524e-05
0.000154053
-3.47201e-05
0.000170514
-3.29183e-05
0.000185825
-3.0612e-05
0.000199893
-2.81282e-05
0.000212273
-2.47554e-05
0.000222926
-2.12786e-05
0.000231596
-1.73293e-05
0.000238105
-1.30066e-05
0.000242327
-8.47503e-06
0.000244161
-3.67378e-06
0.000243759
8.32059e-07
0.000241148
5.24128e-06
0.000236108
1.00871e-05
0.000228931
1.43504e-05
0.000219661
1.85369e-05
0.000208218
2.28751e-05
0.000194825
2.67756e-05
0.00017986
2.99207e-05
0.00016329
3.31214e-05
0.000145609
3.5357e-05
0.000126981
3.72446e-05
0.000107658
3.86359e-05
8.79893e-05
3.93222e-05
6.82228e-05
3.95042e-05
4.86326e-05
3.91698e-05
2.94125e-05
3.84265e-05
1.08727e-05
3.70721e-05
-6.97708e-06
3.56973e-05
-2.38604e-05
3.37577e-05
-3.96532e-05
3.15766e-05
-5.42754e-05
2.92412e-05
-6.76579e-05
2.67632e-05
-7.97973e-05
2.42765e-05
-9.0685e-05
2.17708e-05
-0.000100314
1.92543e-05
-0.000108728
1.6831e-05
-0.000115987
1.45195e-05
-0.000122162
1.23496e-05
-0.000127327
1.03342e-05
-0.000131538
8.4193e-06
-0.000134902
6.73273e-06
-0.000137506
5.21303e-06
-0.000139408
3.80245e-06
-0.000140682
2.55337e-06
-0.000141398
1.43368e-06
-0.000141622
4.50362e-07
-0.000141308
-6.27796e-07
-0.000140559
-1.49523e-06
-0.000139401
-2.31425e-06
-0.000137841
-3.11529e-06
-0.000135901
-3.88927e-06
-0.000133453
-4.89652e-06
-0.000130577
-5.75112e-06
-0.000127341
-6.47254e-06
-0.000123441
-7.79747e-06
-0.000119033
-8.82686e-06
-0.000113739
-1.05883e-05
-0.000107794
-1.18878e-05
-0.000101125
-1.33456e-05
-9.32929e-05
-1.56639e-05
-8.4491e-05
-1.76024e-05
-7.46277e-05
-1.9734e-05
-6.3416e-05
-2.24222e-05
-5.10054e-05
-2.48201e-05
-3.71219e-05
-2.77691e-05
-2.1839e-05
-3.0566e-05
-5.22829e-06
-3.32224e-05
1.23987e-05
-3.52459e-05
3.09284e-05
-3.70498e-05
-3.87001e-05
0.000207708
2.01213e-05
0.000199168
2.55923e-05
0.000188505
3.19549e-05
0.000175799
3.80752e-05
0.00016157
4.26428e-05
0.000145792
4.72935e-05
0.000128874
5.06889e-05
0.000110999
5.35721e-05
9.2369e-05
5.58496e-05
7.34625e-05
5.66604e-05
5.43432e-05
5.72947e-05
3.52572e-05
5.72424e-05
1.66172e-05
5.588e-05
-1.6448e-06
5.47491e-05
-1.92743e-05
5.28592e-05
-3.61898e-05
5.07219e-05
-5.22439e-05
4.81405e-05
-6.73692e-05
4.53589e-05
-8.15507e-05
4.25355e-05
-9.47266e-05
3.95208e-05
-0.000106893
3.64875e-05
-0.000118052
3.34752e-05
-0.000128214
3.0491e-05
-0.000137413
2.75943e-05
-0.000145662
2.47509e-05
-0.000153003
2.20213e-05
-0.000159477
1.94189e-05
-0.0001651
1.68761e-05
-0.000169912
1.44285e-05
-0.000173943
1.20911e-05
-0.000177219
9.83524e-06
-0.000179762
7.61753e-06
-0.000181589
5.47674e-06
-0.00018271
3.39114e-06
-0.000183167
1.41516e-06
-0.00018291
-7.57962e-07
-0.000181878
-3.09867e-06
-0.00018014
-5.21097e-06
-0.000177728
-7.24218e-06
-0.000174481
-9.75553e-06
-0.000170477
-1.2007e-05
-0.000165655
-1.44674e-05
-0.000160062
-1.68199e-05
-0.000153571
-1.94894e-05
-0.000146135
-2.2273e-05
-0.000137847
-2.48868e-05
-0.000128623
-2.76616e-05
-0.000118375
-3.07416e-05
-0.000107121
-3.38203e-05
-9.4976e-05
-3.63793e-05
-8.17283e-05
-3.97091e-05
-6.75076e-05
-4.26976e-05
-5.23108e-05
-4.55738e-05
-3.61719e-05
-4.84114e-05
-1.92732e-05
-5.06723e-05
-1.66901e-06
-5.28083e-05
1.65846e-05
-5.47201e-05
3.50788e-05
-5.54499e-05
5.38886e-05
-5.63943e-05
7.26817e-05
-5.63412e-05
9.1292e-05
-5.57683e-05
0.00010961
-5.49141e-05
0.000127121
-5.24783e-05
0.000143726
-4.97671e-05
0.00015924
-4.64912e-05
0.000173276
-4.20538e-05
0.000185758
-3.74001e-05
0.000196416
-3.19403e-05
0.000205087
-2.59762e-05
0.000211773
-2.0017e-05
0.000216123
-1.30386e-05
0.000218106
-5.91742e-06
0.00021782
8.39957e-07
0.000215085
8.17886e-06
0.000209999
1.52749e-05
0.00020263
2.21309e-05
0.000193206
2.81827e-05
0.000181698
3.44715e-05
0.000168523
3.94631e-05
0.000153686
4.44489e-05
0.000137568
4.83358e-05
0.000120256
5.18539e-05
0.00010215
5.42667e-05
8.35223e-05
5.58205e-05
6.45536e-05
5.68509e-05
4.54354e-05
5.73209e-05
2.6432e-05
5.6985e-05
7.66105e-06
5.6258e-05
-1.0661e-05
5.49225e-05
-2.8458e-05
5.33543e-05
-4.55523e-05
5.12396e-05
-6.18279e-05
4.88001e-05
-7.71954e-05
4.61207e-05
-9.15891e-05
4.31738e-05
-0.000104972
4.01341e-05
-0.000117293
3.69506e-05
-0.000128558
3.37678e-05
-0.000138653
3.02917e-05
-0.000147768
2.7374e-05
-0.000155807
2.40836e-05
-0.000162674
2.06284e-05
-0.000168676
1.80126e-05
-0.000173672
1.4997e-05
-0.000177659
1.20721e-05
-0.000180965
9.8623e-06
-0.000183413
7.33832e-06
-0.000185086
5.00976e-06
-0.000186062
2.91524e-06
-0.000186288
7.13707e-07
-0.000185841
-1.35486e-06
-0.000184674
-3.49497e-06
-0.00018277
-5.73777e-06
-0.00018023
-7.57672e-06
-0.000176959
-9.81609e-06
-0.000172949
-1.20386e-05
-0.000168242
-1.41106e-05
-0.000162807
-1.63025e-05
-0.000156608
-1.85994e-05
-0.000149696
-2.07468e-05
-0.00014198
-2.31219e-05
-0.000133525
-2.53593e-05
-0.000124297
-2.77001e-05
-0.000114297
-3.00023e-05
-0.000103517
-3.23336e-05
-9.19332e-05
-3.47485e-05
-7.95721e-05
-3.70583e-05
-6.64531e-05
-3.93704e-05
-5.25413e-05
-4.17566e-05
-3.78791e-05
-4.39434e-05
-2.25363e-05
-4.60129e-05
-6.50245e-06
-4.80904e-05
1.01368e-05
-4.9882e-05
2.72508e-05
-5.13196e-05
4.47534e-05
-5.24853e-05
6.24703e-05
-5.31222e-05
8.02477e-05
-5.32787e-05
9.78596e-05
-5.27754e-05
0.000115063
-5.15592e-05
0.000131616
-4.95993e-05
0.000147231
-4.6805e-05
0.000161673
-4.32776e-05
0.000174646
-3.88466e-05
0.000185869
-3.36438e-05
0.000195151
-2.77969e-05
0.000202284
-2.13594e-05
0.0002071
-1.44872e-05
0.000209533
-7.24132e-06
0.000209475
1.51302e-07
0.000206897
7.69479e-06
0.000201796
1.5287e-05
0.000194287
2.24672e-05
0.000184564
2.91559e-05
0.000172781
3.52791e-05
0.000159224
4.06397e-05
0.000144114
4.52691e-05
0.00012771
4.91271e-05
0.000110274
5.22778e-05
9.21252e-05
5.43792e-05
7.35066e-05
5.58004e-05
5.47998e-05
5.60849e-05
3.60782e-05
5.61591e-05
1.76671e-05
5.52063e-05
-2.5234e-07
5.37005e-05
-1.75186e-05
5.17438e-05
-3.39781e-05
4.93487e-05
-4.9567e-05
4.67862e-05
-6.41797e-05
4.38245e-05
-7.77824e-05
4.0781e-05
-9.03706e-05
3.77431e-05
-0.000101895
3.45536e-05
-0.000112403
3.15999e-05
-0.000121988
2.87444e-05
-0.000130643
2.59459e-05
-0.000138298
2.29705e-05
-0.000145101
2.04187e-05
-0.00015101
1.77349e-05
-0.000156135
1.54181e-05
-0.000160681
1.36197e-05
-0.000164344
1.10045e-05
-0.000167431
9.23911e-06
-0.000169909
7.46252e-06
-0.0001717
5.37676e-06
-0.000172886
3.5671e-06
-0.000173483
1.77517e-06
-0.000173424
-2.05346e-07
-0.000172799
-1.83757e-06
-0.000171481
-3.94829e-06
-0.000169554
-5.75987e-06
-0.000166959
-7.80439e-06
-0.00016363
-1.00233e-05
-0.000159556
-1.22332e-05
-0.000154686
-1.46101e-05
-0.000148965
-1.71548e-05
-0.000142429
-1.95961e-05
-0.000135004
-2.22736e-05
-0.000126686
-2.49552e-05
-0.000117521
-2.75014e-05
-0.000107402
-3.03724e-05
-9.63903e-05
-3.30163e-05
-8.44264e-05
-3.58958e-05
-7.15985e-05
-3.84548e-05
-5.78741e-05
-4.11711e-05
-4.33031e-05
-4.37156e-05
-2.79444e-05
-4.60526e-05
-1.18608e-05
-4.8228e-05
4.81792e-06
-5.00147e-05
2.20407e-05
-5.16245e-05
3.96413e-05
-5.27588e-05
5.74786e-05
-5.34564e-05
7.53409e-05
-5.35779e-05
9.30862e-05
-5.31792e-05
0.000110504
-5.21922e-05
0.000127361
-5.05173e-05
0.000143371
-4.80134e-05
0.00015837
-4.49612e-05
0.00017211
-4.11878e-05
0.000184412
-3.68382e-05
0.000194967
-3.16169e-05
0.000203588
-2.58336e-05
0.000210142
-1.96534e-05
0.000214431
-1.28202e-05
0.000216426
-5.97778e-06
0.000216019
1.14809e-06
0.000213323
8.05174e-06
0.000208378
1.48348e-05
0.000201138
2.16937e-05
0.000191886
2.77295e-05
0.000180679
3.35773e-05
0.000167788
3.85795e-05
0.000153411
4.31131e-05
0.000137771
4.68557e-05
0.000121181
4.97178e-05
0.000103874
5.18768e-05
8.60772e-05
5.33815e-05
6.80635e-05
5.4014e-05
5.00017e-05
5.41375e-05
3.21062e-05
5.35688e-05
1.46065e-05
5.25131e-05
-2.3905e-06
5.0974e-05
-1.86649e-05
4.88223e-05
-3.42086e-05
4.66041e-05
-4.8929e-05
4.41307e-05
-6.27234e-05
4.13434e-05
-7.54348e-05
3.81371e-05
-8.71509e-05
3.51657e-05
-9.78455e-05
3.20914e-05
-0.000107483
2.89065e-05
-0.000116244
2.62464e-05
-0.000123938
2.30788e-05
-0.000130697
2.03281e-05
-0.000136658
1.7895e-05
-0.000141811
1.54581e-05
-0.000146065
1.27608e-05
-0.00014948
1.02213e-05
-0.00015217
8.12376e-06
-0.000154206
6.04251e-06
-0.000155504
3.94943e-06
-0.000156184
2.02775e-06
-0.000156194
5.56807e-08
-0.000155588
-1.7967e-06
-0.000154338
-3.73485e-06
-0.000152468
-5.62628e-06
-0.000149927
-7.67253e-06
-0.000146793
-9.3683e-06
-0.000142955
-1.15004e-05
-0.000138397
-1.36511e-05
-0.000133244
-1.54789e-05
-0.000127238
-1.80373e-05
-0.000120504
-2.0205e-05
-0.000112998
-2.25279e-05
-0.000104596
-2.51644e-05
-9.54522e-05
-2.74533e-05
-8.52487e-05
-3.05817e-05
-7.43752e-05
-3.26342e-05
-6.23922e-05
-3.59953e-05
-4.95849e-05
-3.83111e-05
-3.57797e-05
-4.1512e-05
-2.11106e-05
-4.38701e-05
-5.63461e-06
-4.65734e-05
1.06318e-05
-4.87089e-05
2.76536e-05
-5.10433e-05
4.53184e-05
-5.29727e-05
6.34848e-05
-5.44604e-05
8.19108e-05
-5.524e-05
0.000100371
-5.53508e-05
0.000118763
-5.51264e-05
0.000136712
-5.38022e-05
0.000154093
-5.21011e-05
0.00017057
-4.93957e-05
0.000185896
-4.59381e-05
0.000199987
-4.22194e-05
0.000212365
-3.71334e-05
0.00022301
-3.19239e-05
0.000231691
-2.601e-05
0.000238187
-1.95027e-05
0.000242431
-1.27191e-05
0.000244276
-5.51918e-06
0.000243904
1.20433e-06
0.000241313
7.83227e-06
0.000236284
1.51151e-05
0.000229109
2.15257e-05
0.000219825
2.78208e-05
0.000208359
3.43414e-05
0.000194964
4.01698e-05
0.00017998
4.49046e-05
0.000163382
4.97203e-05
0.000145687
5.30517e-05
0.000127037
5.58941e-05
0.000107694
5.79795e-05
8.80068e-05
5.9009e-05
6.82199e-05
5.9291e-05
4.86039e-05
5.87859e-05
2.93653e-05
5.76651e-05
1.08168e-05
5.56206e-05
-7.04385e-06
5.35579e-05
-2.39359e-05
5.06498e-05
-3.97381e-05
4.73788e-05
-5.43638e-05
4.38669e-05
-6.7753e-05
4.01524e-05
-7.98919e-05
3.64153e-05
-9.07783e-05
3.26573e-05
-0.000100405
2.88814e-05
-0.000108818
2.52435e-05
-0.000116075
2.17761e-05
-0.000122241
1.85163e-05
-0.000127399
1.54921e-05
-0.000131611
1.26311e-05
-0.000134965
1.00869e-05
-0.000137564
7.81181e-06
-0.000139462
5.7002e-06
-0.000140729
3.82055e-06
-0.000141439
2.14369e-06
-0.000141657
6.69005e-07
-0.000141344
-9.4123e-07
-0.000140592
-2.24748e-06
-0.000139432
-3.47437e-06
-0.000137869
-4.67834e-06
-0.000135941
-5.81648e-06
-0.000133495
-7.34308e-06
-0.000130617
-8.62863e-06
-0.000127381
-9.7086e-06
-0.000123484
-1.16946e-05
-0.000119089
-1.32216e-05
-0.000113799
-1.58783e-05
-0.000107853
-1.78336e-05
-0.000101197
-2.00022e-05
-9.33679e-05
-2.34929e-05
-8.45658e-05
-2.64044e-05
-7.47183e-05
-2.95815e-05
-6.35072e-05
-3.36333e-05
-5.10969e-05
-3.72304e-05
-3.72203e-05
-4.16456e-05
-2.19407e-05
-4.58456e-05
-5.33319e-06
-4.98299e-05
1.23116e-05
-5.28906e-05
3.08607e-05
-5.5599e-05
-5.80753e-05
0.000207968
2.68496e-05
0.000199411
3.41497e-05
0.000188725
4.26405e-05
0.000175994
5.08063e-05
0.000161737
5.68998e-05
0.000145934
6.30964e-05
0.000128978
6.76454e-05
0.000111068
7.14817e-05
9.24188e-05
7.44989e-05
7.34767e-05
7.56026e-05
5.43222e-05
7.64492e-05
3.52278e-05
7.63368e-05
1.65632e-05
7.45446e-05
-1.72287e-06
7.30351e-05
-1.93708e-05
7.05071e-05
-3.63024e-05
6.76535e-05
-5.23683e-05
6.42065e-05
-6.75009e-05
6.04914e-05
-8.16893e-05
5.67239e-05
-9.48695e-05
5.27011e-05
-0.000107039
4.86565e-05
-0.000118199
4.46353e-05
-0.000128361
4.06537e-05
-0.000137561
3.67944e-05
-0.000145808
3.29974e-05
-0.00015315
2.93634e-05
-0.000159622
2.58908e-05
-0.000165246
2.25001e-05
-0.000170061
1.92435e-05
-0.000174088
1.61187e-05
-0.000177367
1.31143e-05
-0.000179913
1.01636e-05
-0.000181737
7.3005e-06
-0.000182852
4.50615e-06
-0.000183278
1.84095e-06
-0.000182998
-1.03853e-06
-0.000181968
-4.12799e-06
-0.000180227
-6.95211e-06
-0.000177817
-9.65209e-06
-0.000174579
-1.29935e-05
-0.000170572
-1.60139e-05
-0.000165751
-1.92884e-05
-0.000160154
-2.24171e-05
-0.0001537
-2.59436e-05
-0.000146244
-2.97292e-05
-0.000137971
-3.31598e-05
-0.000128742
-3.6891e-05
-0.000118492
-4.09913e-05
-0.000107251
-4.5062e-05
-9.50956e-05
-4.85344e-05
-8.18325e-05
-5.29723e-05
-6.7628e-05
-5.69021e-05
-5.24214e-05
-6.07806e-05
-3.62798e-05
-6.45531e-05
-1.9371e-05
-6.75812e-05
-1.76259e-06
-7.04169e-05
1.65032e-05
-7.2986e-05
3.5012e-05
-7.39589e-05
5.38576e-05
-7.52401e-05
7.26675e-05
-7.51513e-05
9.13096e-05
-7.44106e-05
0.00010965
-7.32544e-05
0.00012719
-7.00187e-05
0.00014383
-6.64077e-05
0.000159364
-6.20248e-05
0.000173428
-5.61177e-05
0.000185947
-4.992e-05
0.000196612
-4.26049e-05
0.000205306
-3.46702e-05
0.000212027
-2.67381e-05
0.000216367
-1.73793e-05
0.000218365
-7.91479e-06
0.000218081
1.12371e-06
0.000215335
1.09244e-05
0.000210254
2.03556e-05
0.000202912
2.94732e-05
0.000193427
3.76674e-05
0.000181889
4.60095e-05
0.00016868
5.26721e-05
0.000153814
5.93155e-05
0.000137688
6.4462e-05
0.000120322
6.92201e-05
0.000102182
7.2406e-05
8.35306e-05
7.44722e-05
6.45395e-05
7.58421e-05
4.53952e-05
7.64652e-05
2.63638e-05
7.60164e-05
7.5719e-06
7.50499e-05
-1.07643e-05
7.32586e-05
-2.85782e-05
7.11682e-05
-4.57044e-05
6.83659e-05
-6.19959e-05
6.50916e-05
-7.73577e-05
6.14825e-05
-9.17528e-05
5.7569e-05
-0.000105148
5.35292e-05
-0.000117472
4.92746e-05
-0.000128727
4.50229e-05
-0.000138821
4.03852e-05
-0.000147958
3.6511e-05
-0.000156018
3.21438e-05
-0.000162849
2.746e-05
-0.000168832