/*--------------------------------*- C++ -*----------------------------------*\
| =========                 |                                                 |
| \\      /  F ield         | OpenFOAM: The Open Source CFD Toolbox           |
|  \\    /   O peration     | Version:  3.0.1                                 |
|   \\  /    A nd           | Web:      www.OpenFOAM.org                      |
|    \\/     M anipulation  |                                                 |
\*---------------------------------------------------------------------------*/
FoamFile
{
    version     2.0;
    format      ascii;
    class       volScalarField;
    location    "33.4";
    object      p;
}
// * * * * * * * * * * * * * * * * * * * * * * * * * * * * * * * * * * * * * //

dimensions      [1 -1 -2 0 0 0 0];

internalField   nonuniform List<scalar> 
21420
(
3561.45
3575.48
3591.2
3608.65
3627.85
3648.84
3671.64
3696.23
3722.57
3750.65
3780.23
3811.34
3843.86
3877.47
3911.88
3946.72
3981.64
4016.29
4050.27
4083.13
4114.47
4143.83
4170.75
4194.85
4215.74
4233.11
4246.66
4256.19
4261.55
4262.59
4259.41
4252.04
4240.52
4225.09
4205.99
4183.53
4158.06
4129.98
4099.67
4067.61
4034.22
3999.95
3965.23
3930.46
3896.06
3862.34
3829.95
3798.96
3769.13
3740.68
3713.82
3688.69
3665.36
3643.86
3624.22
3606.39
3590.36
3576.07
3563.49
3552.55
3543.22
3535.46
3529.23
3524.51
3521.28
3519.54
3519.31
3520.63
3523.42
3527.72
3533.57
3540.96
3549.94
3560.54
3572.76
3586.64
3602.2
3619.44
3638.36
3658.96
3681.2
3705.05
3730.46
3757.36
3785.67
3815.28
3846.08
3877.87
3910.41
3943.46
3976.75
4009.95
4042.73
4074.7
4105.46
4134.61
4161.76
4186.51
4208.49
4227.39
4242.89
4254.75
4262.76
4266.73
4266.66
4262.45
4254.19
4241.92
4225.82
4206.11
4183.07
4157.03
4128.38
4097.55
4064.98
4031.14
3996.51
3961.55
3926.7
3892.35
3858.88
3826.6
3795.74
3766.54
3739.12
3713.61
3690.07
3668.52
3648.98
3631.41
3615.79
3602.04
3590.12
3579.94
3571.43
3564.49
3559.05
3555.03
3552.34
3550.94
3550.78
3551.82
3554
3557.34
3561.83
3567.49
3574.36
3582.47
3591.87
3602.62
3614.78
3628.39
3643.51
3660.21
3678.53
3698.49
3720.11
3743.38
3768.28
3794.75
3822.68
3851.95
3882.41
3913.85
3946.01
3978.61
4011.32
4043.78
4075.61
4106.38
4135.67
4163.04
4188.07
4210.33
4229.46
4245.09
4256.95
4264.81
4268.5
4267.94
4263.16
4254.27
4241.36
4224.67
4204.52
4181.23
4155.2
4126.87
4096.67
4065.06
4032.5
3999.42
3966.23
3933.33
3901.06
3869.71
3839.55
3810.77
3783.52
3757.92
3734.01
3711.82
3691.35
3672.56
3655.42
3639.86
3625.85
3613.33
3602.25
3592.56
3584.24
3577.25
3571.56
3567.15
3564.03
3562.17
3561.6
3562.37
3564.42
3567.81
3572.57
3578.73
3586.33
3595.4
3606
3618.15
3631.91
3647.3
3664.35
3683.08
3703.49
3725.57
3749.28
3774.55
3801.3
3829.39
3858.67
3888.94
3919.98
3951.54
3983.31
4014.99
4046.24
4076.72
4106.04
4133.83
4159.7
4183.27
4204.21
4222.18
4236.89
4248.11
4255.64
4259.36
4259.14
4255.03
4247.1
4235.39
4220.1
4201.46
4179.77
4155.33
4128.52
4099.73
4069.37
4037.84
4005.58
3972.97
3940.4
3908.35
3876.89
3846.37
3817.05
3789.09
3762.65
3737.85
3714.75
3693.41
3673.86
3656.09
3640.09
3625.81
3613.2
3602.22
3592.8
3584.88
3578.41
3573.35
3569.62
3567.22
3566.13
3566.33
3567.73
3570.35
3574.18
3579.21
3585.49
3593.06
3601.97
3612.28
3624.06
3637.37
3652.3
3668.89
3687.17
3707.21
3728.98
3752.47
3777.62
3804.31
3832.41
3861.75
3891.95
3922.72
3954.04
3985.53
4016.84
4047.55
4077.28
4105.67
4132.36
4156.97
4179.21
4198.76
4215.38
4228.84
4238.96
4245.62
4248.65
4247.45
4242.6
4234.3
4222.61
4207.73
4189.87
4169.32
4146.33
4121.2
4094.29
4065.9
4036.37
4006.05
3975.27
3944.4
3913.9
3887.91
3858.7
3830.01
3802.3
3775.8
3750.68
3727.08
3705.07
3684.78
3666.24
3649.47
3634.46
3463.28
3477.31
3493.03
3510.47
3529.67
3550.66
3573.46
3598.05
3624.39
3652.47
3682.05
3713.16
3745.69
3779.32
3813.73
3848.59
3883.52
3918.19
3952.19
3985.06
4016.42
4045.8
4072.75
4096.86
4117.77
4135.15
4148.72
4158.26
4163.62
4164.65
4161.47
4154.1
4142.57
4127.12
4108.01
4085.53
4060.05
4031.94
4001.62
3969.53
3936.12
3901.84
3867.1
3832.32
3797.9
3764.18
3731.78
3700.79
3670.95
3642.5
3615.64
3590.5
3567.17
3545.68
3526.04
3508.22
3492.18
3477.9
3465.32
3454.39
3445.06
3437.29
3431.07
3426.35
3423.12
3421.39
3421.15
3422.47
3425.26
3429.56
3435.41
3442.8
3451.78
3462.37
3474.59
3488.47
3504.03
3521.27
3540.19
3560.78
3583.02
3606.88
3632.29
3659.19
3687.51
3717.11
3747.92
3779.72
3812.26
3845.32
3878.62
3911.84
3944.64
3976.62
4007.4
4036.57
4063.74
4088.5
4110.5
4129.41
4144.93
4156.79
4164.81
4168.8
4168.71
4164.5
4156.24
4143.96
4127.85
4108.12
4085.07
4059.01
4030.34
3999.49
3966.9
3933.04
3898.39
3863.42
3828.55
3794.19
3760.71
3728.42
3697.56
3668.35
3640.93
3615.42
3591.88
3570.33
3550.79
3533.23
3517.61
3503.87
3491.95
3481.77
3473.26
3466.33
3460.89
3456.87
3454.19
3452.79
3452.64
3453.67
3455.86
3459.19
3463.68
3469.35
3476.21
3484.32
3493.72
3504.46
3516.61
3530.22
3545.35
3562.04
3580.36
3600.31
3621.93
3645.21
3670.11
3696.57
3724.51
3753.79
3784.25
3815.7
3847.87
3880.48
3913.2
3945.68
3977.52
4008.32
4037.63
4065.02
4090.06
4112.35
4131.48
4147.13
4159
4166.87
4170.57
4170.01
4165.22
4156.32
4143.4
4126.7
4106.53
4083.22
4057.17
4028.82
3998.6
3966.98
3934.39
3901.29
3868.09
3835.18
3802.9
3771.54
3741.37
3712.59
3685.34
3659.74
3635.83
3613.64
3593.17
3574.39
3557.25
3541.7
3527.69
3515.17
3504.09
3494.41
3486.09
3479.09
3473.4
3469
3465.88
3464.02
3463.45
3464.21
3466.27
3469.65
3474.41
3480.57
3488.16
3497.24
3507.83
3519.98
3533.74
3549.13
3566.18
3584.91
3605.32
3627.4
3651.11
3676.38
3703.13
3731.23
3760.51
3790.79
3821.84
3853.41
3885.19
3916.88
3948.15
3978.64
4007.98
4035.78
4061.67
4085.26
4106.21
4124.2
4138.92
4150.15
4157.69
4161.42
4161.19
4157.08
4149.14
4137.42
4122.12
4103.47
4081.76
4057.31
4030.48
4001.67
3971.29
3939.75
3907.47
3874.84
3842.27
3810.2
3778.73
3748.21
3718.88
3690.92
3664.48
3639.67
3616.57
3595.24
3575.68
3557.92
3541.91
3527.64
3515.04
3504.06
3494.63
3486.72
3480.26
3475.19
3471.47
3469.07
3467.99
3468.18
3469.59
3472.2
3476.03
3481.07
3487.34
3494.91
3503.81
3514.12
3525.89
3539.2
3554.13
3570.71
3589
3609.03
3630.81
3654.29
3679.44
3706.14
3734.25
3763.59
3793.8
3824.58
3855.92
3887.42
3918.74
3949.47
3979.21
4007.62
4034.33
4058.95
4081.2
4100.77
4117.4
4130.87
4141
4147.66
4150.7
4149.49
4144.63
4136.33
4124.63
4109.74
4091.87
4071.3
4048.3
4023.15
3996.22
3967.82
3938.28
3907.95
3877.15
3846.27
3815.74
3789.78
3760.56
3731.85
3704.14
3677.63
3652.51
3628.9
3606.9
3586.6
3568.06
3551.29
3536.28
3365.05
3379.07
3394.78
3412.22
3431.42
3452.4
3475.2
3499.78
3526.12
3554.21
3583.8
3614.92
3647.47
3681.11
3715.55
3750.43
3785.39
3820.09
3854.12
3887.04
3918.43
3947.86
3974.84
3998.99
4019.93
4037.34
4050.93
4060.48
4065.86
4066.89
4063.69
4056.31
4044.76
4029.29
4010.15
3987.63
3962.11
3933.97
3903.6
3871.48
3838.04
3803.72
3768.95
3734.13
3699.69
3665.96
3633.54
3602.54
3572.69
3544.23
3517.37
3492.23
3468.91
3447.42
3427.78
3409.96
3393.94
3379.66
3367.08
3356.16
3346.83
3339.07
3332.85
3328.13
3324.9
3323.17
3322.94
3324.25
3327.04
3331.34
3337.18
3344.57
3353.55
3364.13
3376.36
3390.23
3405.79
3423.02
3441.94
3462.54
3484.78
3508.63
3534.04
3560.95
3589.27
3618.89
3649.7
3681.51
3714.07
3747.16
3780.48
3813.73
3846.55
3878.57
3909.38
3938.59
3965.79
3990.59
4012.63
4031.56
4047.1
4058.99
4067.02
4071.03
4070.93
4066.72
4058.45
4046.15
4030.01
4010.26
3987.17
3961.07
3932.37
3901.47
3868.84
3834.94
3800.26
3765.25
3730.35
3695.97
3662.47
3630.16
3599.29
3570.07
3542.65
3517.14
3493.6
3472.06
3452.52
3434.96
3419.35
3405.62
3393.71
3383.54
3375.03
3368.11
3362.67
3358.66
3355.98
3354.59
3354.44
3355.48
3357.66
3361
3365.49
3371.15
3378.01
3386.11
3395.51
3406.25
3418.39
3431.99
3447.11
3463.8
3482.11
3502.06
3523.68
3546.96
3571.86
3598.33
3626.27
3655.56
3686.03
3717.5
3749.69
3782.32
3815.07
3847.58
3879.46
3910.29
3939.64
3967.07
3992.15
4014.47
4033.64
4049.32
4061.21
4069.09
4072.81
4072.23
4067.44
4058.53
4045.58
4028.85
4008.65
3985.3
3959.22
3930.82
3900.57
3868.9
3836.28
3803.15
3769.92
3736.98
3704.68
3673.31
3643.13
3614.34
3587.08
3561.48
3537.57
3515.39
3494.92
3476.14
3459.01
3443.47
3429.46
3416.95
3405.87
3396.19
3387.88
3380.89
3375.2
3370.8
3367.68
3365.82
3365.25
3366.01
3368.06
3371.44
3376.2
3382.35
3389.94
3399.01
3409.6
3421.75
3435.5
3450.88
3467.93
3486.66
3507.07
3529.15
3552.86
3578.14
3604.89
3633
3662.29
3692.59
3723.66
3755.24
3787.05
3818.77
3850.06
3880.59
3909.96
3937.8
3963.72
3987.34
4008.33
4026.34
4041.09
4052.33
4059.89
4063.62
4063.4
4059.28
4051.33
4039.59
4024.27
4005.59
3983.85
3959.36
3932.5
3903.65
3873.23
3841.66
3809.34
3776.69
3744.09
3712
3680.51
3649.98
3620.64
3592.67
3566.22
3541.42
3518.32
3496.98
3477.43
3459.67
3443.67
3429.4
3416.8
3405.83
3396.41
3388.5
3382.05
3376.99
3373.27
3370.87
3369.79
3369.98
3371.39
3374.01
3377.84
3382.87
3389.14
3396.7
3405.6
3415.9
3427.67
3440.97
3455.89
3472.47
3490.75
3510.78
3532.55
3556.04
3581.19
3607.89
3636.01
3665.37
3695.6
3726.4
3757.76
3789.29
3820.64
3851.4
3881.17
3909.62
3936.35
3961.01
3983.29
4002.88
4019.54
4033.02
4043.16
4049.84
4052.9
4051.66
4046.81
4038.49
4026.76
4011.85
3993.96
3973.37
3950.33
3925.16
3898.2
3869.77
3840.2
3809.84
3779.02
3748.1
3717.53
3691.63
3662.36
3633.64
3605.91
3579.4
3554.27
3530.65
3508.65
3488.34
3469.8
3453.03
3438.03
3266.75
3280.76
3296.47
3313.9
3333.08
3354.06
3376.85
3401.43
3427.78
3455.86
3485.47
3516.6
3549.17
3582.84
3617.32
3652.24
3687.24
3721.99
3756.08
3789.05
3820.5
3849.99
3877.03
3901.23
3922.23
3939.67
3953.29
3962.87
3968.26
3969.3
3966.08
3958.68
3947.1
3931.59
3912.41
3889.84
3864.26
3836.06
3805.63
3773.45
3739.95
3705.58
3670.76
3635.9
3601.42
3567.67
3535.23
3504.22
3474.36
3445.88
3419.01
3393.88
3370.55
3349.07
3329.44
3311.63
3295.61
3281.35
3268.78
3257.86
3248.54
3240.79
3234.57
3229.85
3226.63
3224.89
3224.67
3225.97
3228.76
3233.06
3238.9
3246.28
3255.25
3265.83
3278.05
3291.92
3307.47
3324.71
3343.62
3364.22
3386.45
3410.31
3435.73
3462.64
3490.96
3520.59
3551.42
3583.26
3615.84
3648.96
3682.31
3715.61
3748.47
3780.54
3811.41
3840.67
3867.92
3892.78
3914.86
3933.84
3949.42
3961.34
3969.39
3973.42
3973.3
3969.09
3960.8
3948.48
3932.31
3912.51
3889.37
3863.22
3834.45
3803.49
3770.8
3736.85
3702.11
3667.04
3632.1
3597.68
3564.15
3531.82
3500.93
3471.7
3444.28
3418.77
3395.23
3373.69
3354.16
3336.62
3321.01
3307.29
3295.39
3285.23
3276.74
3269.82
3264.4
3260.4
3257.73
3256.34
3256.21
3257.24
3259.43
3262.76
3267.25
3272.9
3279.76
3287.86
3297.24
3307.97
3320.11
3333.7
3348.81
3365.49
3383.79
3403.74
3425.36
3448.63
3473.53
3500.01
3527.96
3557.26
3587.75
3619.25
3651.47
3684.13
3716.93
3749.48
3781.41
3812.3
3841.7
3869.19
3894.33
3916.71
3935.93
3951.65
3963.57
3971.48
3975.21
3974.63
3969.83
3960.89
3947.91
3931.14
3910.88
3887.48
3861.33
3832.88
3802.56
3770.84
3738.17
3704.99
3671.72
3638.74
3606.4
3575.01
3544.81
3516
3488.75
3463.14
3439.23
3417.06
3396.6
3377.83
3360.7
3345.17
3331.17
3318.67
3307.6
3297.93
3289.62
3282.63
3276.94
3272.55
3269.42
3267.56
3267
3267.75
3269.8
3273.18
3277.93
3284.08
3291.66
3300.73
3311.31
3323.45
3337.19
3352.57
3369.61
3388.34
3408.74
3430.82
3454.54
3479.82
3506.59
3534.71
3564.02
3594.33
3625.43
3657.05
3688.89
3720.65
3751.99
3782.56
3811.98
3839.87
3865.84
3889.52
3910.55
3928.6
3943.38
3954.66
3962.23
3965.98
3965.76
3961.63
3953.66
3941.9
3926.54
3907.82
3886.03
3861.49
3834.57
3805.67
3775.2
3743.57
3711.21
3678.51
3645.87
3613.75
3582.23
3551.68
3522.32
3494.35
3467.89
3443.08
3419.98
3398.65
3379.11
3361.35
3345.36
3331.1
3318.51
3307.54
3298.13
3290.23
3283.78
3278.73
3275.01
3272.62
3271.54
3271.74
3273.15
3275.77
3279.59
3284.62
3290.88
3298.44
3307.33
3317.62
3329.38
3342.67
3357.58
3374.15
3392.42
3412.44
3434.22
3457.71
3482.86
3509.58
3537.72
3567.09
3597.35
3628.17
3659.57
3691.14
3722.54
3753.34
3783.17
3811.66
3838.45
3863.15
3885.47
3905.1
3921.79
3935.3
3945.47
3952.15
3955.24
3953.98
3949.12
3940.77
3929.02
3914.08
3896.15
3875.51
3852.43
3827.22
3800.22
3771.75
3742.14
3711.74
3680.87
3649.91
3619.27
3593.46
3564.12
3535.36
3507.61
3481.09
3455.95
3432.33
3410.32
3390.01
3371.47
3354.7
3339.7
3168.38
3182.38
3198.08
3215.5
3234.67
3255.64
3278.42
3303
3329.35
3357.44
3387.06
3418.21
3450.81
3484.52
3519.04
3554.02
3589.08
3623.89
3658.05
3691.09
3722.63
3752.19
3779.31
3803.59
3824.65
3842.15
3855.81
3865.42
3870.82
3871.89
3868.64
3861.2
3849.59
3834.03
3814.78
3792.14
3766.49
3738.21
3707.71
3675.45
3641.87
3607.43
3572.55
3537.63
3503.09
3469.31
3436.85
3405.82
3375.94
3347.45
3320.57
3295.44
3272.12
3250.64
3231.02
3213.22
3197.22
3182.96
3170.4
3159.49
3150.19
3142.44
3136.22
3131.52
3128.29
3126.56
3126.33
3127.64
3130.42
3134.72
3140.55
3147.93
3156.89
3167.47
3179.68
3193.54
3209.09
3226.32
3245.23
3265.82
3288.06
3311.92
3337.34
3364.26
3392.59
3422.24
3453.08
3484.95
3517.57
3550.72
3584.13
3617.47
3650.4
3682.54
3713.48
3742.81
3770.14
3795.06
3817.21
3836.25
3851.87
3863.83
3871.91
3875.97
3875.85
3871.63
3863.31
3850.95
3834.73
3814.88
3791.67
3765.44
3736.6
3705.56
3672.78
3638.75
3603.94
3568.81
3533.81
3499.34
3465.77
3433.4
3402.49
3373.25
3345.82
3320.3
3296.77
3275.24
3255.72
3238.19
3222.59
3208.89
3197
3186.86
3178.38
3171.48
3166.08
3162.08
3159.43
3158.05
3157.92
3158.95
3161.14
3164.48
3168.96
3174.61
3181.46
3189.55
3198.92
3209.64
3221.77
3235.35
3250.44
3267.12
3285.41
3305.35
3326.96
3350.23
3375.13
3401.61
3429.58
3458.9
3489.42
3520.95
3553.2
3585.92
3618.77
3651.39
3683.39
3714.34
3743.83
3771.39
3796.61
3819.06
3838.34
3854.12
3866.09
3874.03
3877.77
3877.2
3872.37
3863.4
3850.37
3833.55
3813.22
3789.74
3763.52
3734.99
3704.59
3672.79
3640.05
3606.8
3573.47
3540.44
3508.07
3476.64
3446.42
3417.6
3390.33
3364.72
3340.82
3318.65
3298.2
3279.44
3262.33
3246.81
3232.82
3220.33
3209.27
3199.61
3191.3
3184.32
3178.64
3174.24
3171.12
3169.26
3168.7
3169.44
3171.49
3174.86
3179.61
3185.75
3193.33
3202.38
3212.95
3225.09
3238.82
3254.19
3271.22
3289.94
3310.34
3332.42
3356.14
3381.44
3408.21
3436.35
3465.68
3496.03
3527.16
3558.82
3590.71
3622.52
3653.92
3684.55
3714.04
3742
3768.04
3791.78
3812.87
3830.98
3845.81
3857.13
3864.73
3868.49
3868.28
3864.13
3856.14
3844.34
3828.93
3810.16
3788.3
3763.69
3736.7
3707.73
3677.18
3645.49
3613.06
3580.31
3547.62
3515.45
3483.9
3453.32
3423.94
3395.95
3369.49
3344.67
3321.57
3300.24
3280.7
3262.96
3246.97
3232.72
3220.14
3209.19
3199.79
3191.9
3185.46
3180.41
3176.71
3174.32
3173.25
3173.45
3174.87
3177.48
3181.3
3186.32
3192.58
3200.13
3209
3219.28
3231.02
3244.3
3259.2
3275.75
3294.02
3314.04
3335.8
3359.3
3384.46
3411.19
3439.35
3468.75
3499.05
3529.91
3561.36
3592.98
3624.44
3655.31
3685.19
3713.75
3740.61
3765.37
3787.75
3807.43
3824.16
3837.71
3847.91
3854.6
3857.71
3856.45
3851.57
3843.19
3831.4
3816.41
3798.43
3777.74
3754.61
3729.33
3702.27
3673.74
3644.08
3613.63
3582.71
3551.68
3520.94
3495.25
3465.82
3437.02
3409.25
3382.71
3357.56
3333.93
3311.91
3291.6
3273.06
3256.29
3241.29
3069.95
3083.93
3099.61
3117.02
3136.18
3157.14
3179.91
3204.49
3230.83
3258.94
3288.57
3319.74
3352.39
3386.15
3420.73
3455.77
3490.9
3525.79
3560.03
3593.17
3624.81
3654.48
3681.69
3706.06
3727.2
3744.77
3758.49
3768.13
3773.54
3774.63
3771.37
3763.89
3752.22
3736.6
3717.27
3694.55
3668.8
3640.43
3609.83
3577.47
3543.8
3509.27
3474.3
3439.31
3404.71
3370.89
3338.41
3307.36
3277.44
3248.94
3222.05
3196.91
3173.6
3152.13
3132.52
3114.74
3098.75
3084.5
3071.96
3061.06
3051.77
3044.03
3037.82
3033.12
3029.9
3028.17
3027.94
3029.24
3032.02
3036.31
3042.14
3049.51
3058.46
3069.03
3081.23
3095.09
3110.63
3127.85
3146.76
3167.35
3189.59
3213.45
3238.88
3265.8
3294.15
3323.81
3354.68
3386.59
3419.25
3452.45
3485.92
3519.33
3552.34
3584.56
3615.59
3645.01
3672.43
3697.44
3719.67
3738.78
3754.47
3766.48
3774.6
3778.66
3778.56
3774.33
3765.98
3753.57
3737.29
3717.36
3694.07
3667.75
3638.8
3607.66
3574.79
3540.66
3505.75
3470.54
3435.46
3400.93
3367.31
3334.9
3303.97
3274.71
3247.27
3221.75
3198.22
3176.7
3157.19
3139.67
3124.1
3110.41
3098.55
3088.43
3079.97
3073.08
3067.69
3063.72
3061.08
3059.71
3059.58
3060.62
3062.81
3066.15
3070.63
3076.27
3083.11
3091.18
3100.55
3111.25
3123.36
3136.93
3152.01
3168.67
3186.95
3206.88
3228.48
3251.75
3276.66
3303.15
3331.13
3360.48
3391.03
3422.59
3454.9
3487.68
3520.6
3553.29
3585.38
3616.43
3646
3673.67
3698.98
3721.52
3740.89
3756.74
3768.77
3776.74
3780.5
3779.93
3775.09
3766.07
3752.98
3736.08
3715.67
3692.1
3665.78
3637.15
3606.65
3574.76
3541.93
3508.6
3475.19
3442.1
3409.67
3378.21
3347.95
3319.11
3291.83
3266.22
3242.33
3220.17
3199.73
3180.99
3163.89
3148.38
3134.41
3121.93
3110.88
3101.23
3092.93
3085.96
3080.28
3075.89
3072.77
3070.91
3070.35
3071.08
3073.12
3076.49
3081.23
3087.36
3094.93
3103.97
3114.53
3126.65
3140.38
3155.74
3172.76
3191.47
3211.87
3233.95
3257.67
3282.98
3309.77
3337.93
3367.29
3397.67
3428.85
3460.56
3492.51
3524.38
3555.86
3586.57
3616.14
3644.18
3670.31
3694.14
3715.31
3733.48
3748.38
3759.74
3767.38
3771.15
3770.95
3766.79
3758.76
3746.92
3731.45
3712.61
3690.67
3665.97
3638.89
3609.83
3579.19
3547.41
3514.9
3482.08
3449.32
3417.1
3385.5
3354.89
3325.49
3297.48
3271
3246.18
3223.08
3201.76
3182.23
3164.49
3148.52
3134.28
3121.72
3110.78
3101.39
3093.51
3087.09
3082.05
3078.35
3075.97
3074.91
3075.11
3076.53
3079.15
3082.97
3087.98
3094.22
3101.76
3110.62
3120.89
3132.61
3145.87
3160.75
3177.29
3195.54
3215.55
3237.31
3260.81
3285.98
3312.73
3340.92
3370.36
3400.69
3431.61
3463.12
3494.81
3526.34
3557.28
3587.25
3615.9
3642.83
3667.67
3690.12
3709.87
3726.66
3740.25
3750.48
3757.2
3760.32
3759.06
3754.15
3745.73
3733.9
3718.86
3700.81
3680.05
3656.85
3631.5
3604.36
3575.76
3546.03
3515.51
3484.53
3453.42
3422.57
3397.01
3367.48
3338.63
3310.82
3284.26
3259.09
3235.45
3213.43
3193.11
3174.57
3157.8
3142.8
2971.45
2985.42
3001.08
3018.47
3037.61
3058.55
3081.32
3105.89
3132.24
3160.36
3190
3221.21
3253.9
3287.72
3322.37
3357.49
3392.7
3427.69
3462.04
3495.29
3527.05
3556.84
3584.17
3608.65
3629.89
3647.54
3661.32
3671.01
3676.44
3677.54
3674.26
3666.73
3655.01
3639.31
3619.89
3597.05
3571.2
3542.71
3511.99
3479.51
3445.73
3411.1
3376.03
3340.95
3306.26
3272.39
3239.91
3208.82
3178.87
3150.34
3123.44
3098.3
3074.99
3053.53
3033.94
3016.17
3000.2
2985.98
2973.45
2962.57
2953.29
2945.56
2939.36
2934.66
2931.45
2929.72
2929.48
2930.78
2933.57
2937.85
2943.67
2951.03
2959.97
2970.53
2982.72
2996.57
3012.1
3029.32
3048.22
3068.81
3091.05
3114.91
3140.35
3167.28
3195.64
3225.33
3256.22
3288.17
3320.88
3354.15
3387.69
3421.19
3454.29
3486.61
3517.74
3547.27
3574.79
3599.91
3622.24
3641.44
3657.21
3669.28
3677.43
3681.53
3681.44
3677.19
3668.8
3656.34
3639.99
3619.97
3596.57
3570.14
3541.07
3509.81
3476.81
3442.56
3407.54
3372.23
3337.07
3302.46
3268.78
3236.33
3205.36
3176.07
3148.62
3123.1
3099.58
3078.07
3058.58
3041.08
3025.52
3011.86
3000.02
2989.92
2981.48
2974.62
2969.25
2965.3
2962.67
2961.32
2961.2
2962.25
2964.44
2967.77
2972.25
2977.88
2984.71
2992.77
3002.12
3012.81
3024.9
3038.44
3053.51
3070.15
3088.41
3108.33
3129.93
3153.2
3178.11
3204.61
3232.61
3261.99
3292.57
3324.19
3356.56
3389.41
3422.41
3455.2
3487.39
3518.55
3548.24
3576.02
3601.45
3624.09
3643.57
3659.5
3671.6
3679.61
3683.39
3682.83
3677.97
3668.89
3655.74
3638.75
3618.24
3594.55
3568.12
3539.36
3508.74
3476.74
3443.8
3410.37
3376.88
3343.71
3311.22
3279.7
3249.41
3220.55
3193.26
3167.64
3143.75
3121.6
3101.19
3082.46
3065.38
3049.89
3035.94
3023.47
3012.44
3002.8
2994.51
2987.54
2981.87
2977.48
2974.36
2972.51
2971.95
2972.67
2974.7
2978.07
2982.79
2988.91
2996.47
3005.5
3016.05
3028.16
3041.86
3057.21
3074.23
3092.93
3113.32
3135.4
3159.13
3184.44
3211.26
3239.44
3268.84
3299.26
3330.49
3362.27
3394.28
3426.24
3457.8
3488.61
3518.28
3546.43
3572.65
3596.58
3617.85
3636.11
3651.08
3662.5
3670.17
3673.97
3673.78
3669.61
3661.53
3649.63
3634.1
3615.17
3593.13
3568.33
3541.14
3511.96
3481.22
3449.34
3416.73
3383.82
3350.99
3318.69
3287.05
3256.4
3226.96
3198.93
3172.45
3147.62
3124.52
3103.19
3083.67
3065.95
3049.99
3035.77
3023.22
3012.3
3002.93
2995.07
2988.65
2983.63
2979.94
2977.58
2976.51
2976.73
2978.15
2980.77
2984.58
2989.58
2995.82
3003.34
3012.18
3022.43
3034.13
3047.37
3062.23
3078.75
3096.99
3116.98
3138.74
3162.24
3187.43
3214.19
3242.41
3271.9
3302.29
3333.26
3364.84
3396.62
3428.23
3459.28
3489.34
3518.08
3545.11
3570.05
3592.59
3612.41
3629.27
3642.92
3653.19
3659.93
3663.06
3661.81
3656.87
3648.4
3636.51
3621.41
3603.29
3582.45
3559.15
3533.72
3506.49
3477.81
3447.99
3417.4
3386.34
3355.14
3324.16
3298.73
3269.07
3240.17
3212.33
3185.74
3160.56
3136.9
3114.87
3094.55
3076
3059.24
3044.24
2872.88
2886.83
2902.47
2919.84
2938.96
2959.89
2982.64
3007.2
3033.56
3061.69
3091.34
3122.59
3155.34
3189.23
3223.96
3259.17
3294.49
3329.59
3364.06
3397.45
3429.34
3459.27
3486.75
3511.35
3532.7
3550.45
3564.31
3574.05
3579.51
3580.61
3577.32
3569.73
3557.94
3542.15
3522.62
3499.66
3473.68
3445.05
3414.19
3381.58
3347.67
3312.91
3277.73
3242.55
3207.76
3173.82
3141.34
3110.2
3080.22
3051.65
3024.74
2999.6
2976.3
2954.86
2935.28
2917.53
2901.58
2887.38
2874.87
2864.01
2854.74
2847.03
2840.84
2836.15
2832.94
2831.22
2830.97
2832.27
2835.05
2839.32
2845.13
2852.49
2861.42
2871.96
2884.14
2897.98
2913.5
2930.71
2949.61
2970.2
2992.43
3016.3
3041.74
3068.69
3097.06
3126.78
3157.7
3189.7
3222.47
3255.81
3289.43
3323.03
3356.24
3388.67
3419.93
3449.59
3477.24
3502.48
3524.92
3544.23
3560.08
3572.22
3580.43
3584.55
3584.48
3580.21
3571.77
3559.25
3542.81
3522.69
3499.17
3472.61
3443.41
3412
3378.86
3344.47
3309.32
3273.89
3238.62
3203.93
3170.17
3137.67
3106.66
3077.35
3049.89
3024.37
3000.85
2979.35
2959.88
2942.4
2926.87
2913.23
2901.42
2891.35
2882.94
2876.1
2870.76
2866.82
2864.22
2862.89
2862.77
2863.83
2866.02
2869.35
2873.82
2879.44
2886.26
2894.3
2903.63
2914.3
2926.37
2939.9
2954.94
2971.56
2989.81
3009.71
3031.3
3054.57
3079.48
3106
3134.02
3163.43
3194.06
3225.73
3258.17
3291.1
3324.2
3357.1
3389.41
3420.7
3450.53
3478.44
3504.01
3526.78
3546.37
3562.41
3574.58
3582.65
3586.46
3585.9
3581.01
3571.87
3558.64
3541.55
3520.91
3497.1
3470.52
3441.62
3410.87
3378.73
3345.66
3312.12
3278.52
3245.27
3212.71
3181.13
3150.8
3121.91
3094.6
3068.98
3045.1
3022.97
3002.57
2983.86
2966.8
2951.34
2937.4
2924.95
2913.94
2904.31
2896.03
2889.08
2883.41
2879.03
2875.91
2874.06
2873.49
2874.21
2876.23
2879.59
2884.3
2890.41
2897.95
2906.97
2917.5
2929.59
2943.28
2958.62
2975.62
2994.31
3014.7
3036.78
3060.51
3085.84
3112.67
3140.89
3170.33
3200.8
3232.09
3263.94
3296.04
3328.09
3359.76
3390.67
3420.46
3448.73
3475.07
3499.12
3520.49
3538.86
3553.91
3565.4
3573.12
3576.94
3576.76
3572.57
3564.45
3552.49
3536.87
3517.84
3495.69
3470.77
3443.45
3414.14
3383.27
3351.27
3318.55
3285.53
3252.62
3220.24
3188.53
3157.84
3128.36
3100.31
3073.81
3048.97
3025.87
3004.55
2985.04
2967.33
2951.39
2937.19
2924.66
2913.76
2904.41
2896.56
2890.17
2885.15
2881.48
2879.13
2878.07
2878.3
2879.73
2882.34
2886.15
2891.14
2897.36
2904.86
2913.69
2923.91
2935.59
2948.81
2963.64
2980.14
2998.36
3018.34
3040.1
3063.6
3088.79
3115.59
3143.84
3173.38
3203.83
3234.87
3266.54
3298.41
3330.13
3361.29
3391.46
3420.32
3447.47
3472.51
3495.15
3515.06
3532
3545.72
3556.03
3562.81
3565.95
3564.69
3559.73
3551.21
3539.25
3524.07
3505.86
3484.92
3461.53
3435.99
3408.66
3379.88
3349.97
3319.28
3288.13
3256.83
3225.72
3200.4
3170.62
3141.65
3113.76
3087.15
3061.94
3038.27
3016.23
2995.91
2977.36
2960.59
2945.6
2774.24
2788.17
2803.79
2821.13
2840.24
2861.15
2883.88
2908.44
2934.79
2962.94
2992.61
3023.91
3056.72
3090.69
3125.51
3160.82
3196.26
3231.48
3266.09
3299.63
3331.69
3361.79
3389.42
3414.17
3435.65
3453.51
3467.46
3477.26
3482.75
3483.86
3480.54
3472.89
3461.02
3445.12
3425.47
3402.38
3376.24
3347.45
3316.43
3283.67
3249.6
3214.71
3179.39
3144.09
3109.2
3075.17
3042.71
3011.52
2981.48
2952.89
2925.96
2900.82
2877.52
2856.09
2836.53
2818.81
2802.89
2788.71
2776.23
2765.38
2756.13
2748.43
2742.26
2737.58
2734.37
2732.65
2732.4
2733.7
2736.47
2740.74
2746.54
2753.88
2762.8
2773.33
2785.5
2799.32
2814.83
2832.03
2850.93
2871.51
2893.75
2917.61
2943.06
2970.02
2998.42
3028.16
3059.12
3091.18
3124.02
3157.43
3191.15
3224.86
3258.19
3290.77
3322.17
3351.97
3379.77
3405.14
3427.72
3447.14
3463.1
3475.32
3483.59
3487.74
3487.68
3483.39
3474.9
3462.31
3445.77
3425.53
3401.88
3375.17
3345.8
3314.23
3280.92
3246.37
3211.08
3175.51
3140.12
3105.33
3071.5
3038.93
3007.88
2978.54
2951.06
2925.54
2902.03
2880.55
2861.1
2843.64
2828.14
2814.53
2802.75
2792.71
2784.33
2777.52
2772.21
2768.3
2765.71
2764.4
2764.3
2765.36
2767.56
2770.89
2775.35
2780.96
2787.76
2795.79
2805.1
2815.74
2827.79
2841.29
2856.31
2872.91
2891.13
2911.02
2932.6
2955.86
2980.78
3007.31
3035.36
3064.8
3095.49
3127.22
3159.74
3192.77
3225.98
3259.01
3291.45
3322.89
3352.87
3380.94
3406.66
3429.58
3449.31
3465.46
3477.73
3485.86
3489.7
3489.14
3484.21
3475.01
3461.68
3444.47
3423.7
3399.73
3373
3343.94
3313.02
3280.73
3247.52
3213.84
3180.13
3146.78
3114.13
3082.49
3052.11
3023.19
2995.87
2970.24
2946.37
2924.25
2903.87
2885.19
2868.16
2852.72
2838.81
2826.38
2815.38
2805.77
2797.51
2790.56
2784.9
2780.52
2777.41
2775.55
2774.98
2775.69
2777.71
2781.05
2785.75
2791.85
2799.38
2808.37
2818.89
2830.96
2844.63
2859.95
2876.94
2895.62
2916
2938.08
2961.82
2987.16
3014.02
3042.27
3071.76
3102.29
3133.65
3165.58
3197.78
3229.93
3261.71
3292.76
3322.68
3351.08
3377.57
3401.75
3423.25
3441.73
3456.88
3468.44
3476.22
3480.07
3479.89
3475.69
3467.52
3455.48
3439.77
3420.62
3398.34
3373.28
3345.81
3316.36
3285.34
3253.2
3220.35
3187.21
3154.2
3121.74
3089.96
3059.21
3029.69
3001.61
2975.09
2950.25
2927.15
2905.84
2886.34
2868.64
2852.72
2838.54
2826.03
2815.15
2805.82
2798
2791.62
2786.63
2782.97
2780.63
2779.59
2779.82
2781.26
2783.87
2787.67
2792.65
2798.85
2806.33
2815.13
2825.33
2836.98
2850.17
2864.98
2881.45
2899.65
2919.62
2941.37
2964.87
2990.08
3016.91
3045.21
3074.8
3105.32
3136.43
3168.2
3200.19
3232.03
3263.31
3293.62
3322.61
3349.88
3375.05
3397.8
3417.82
3434.85
3448.64
3459.01
3465.82
3468.98
3467.72
3462.72
3454.14
3442.11
3426.84
3408.53
3387.48
3363.97
3338.31
3310.87
3281.97
3251.95
3221.15
3189.91
3158.5
3127.27
3101.99
3072.1
3043.06
3015.14
2988.49
2963.26
2939.57
2917.52
2897.18
2878.63
2861.87
2846.88
2675.54
2689.44
2705.03
2722.35
2741.43
2762.32
2785.04
2809.58
2835.94
2864.1
2893.8
2925.15
2958.03
2992.09
3027.01
3062.44
3098
3133.38
3168.14
3201.86
3234.1
3264.38
3292.18
3317.11
3338.73
3356.72
3370.76
3380.63
3386.16
3387.27
3383.93
3376.22
3364.25
3348.24
3328.44
3305.19
3278.88
3249.92
3218.72
3185.78
3151.55
3116.49
3081.03
3045.59
3010.57
2976.44
2944.01
2912.76
2882.66
2854.03
2827.09
2801.94
2778.66
2757.25
2737.71
2720.02
2704.12
2689.97
2677.51
2666.69
2657.46
2649.78
2643.62
2638.95
2635.75
2634.03
2633.78
2635.07
2637.83
2642.09
2647.88
2655.21
2664.11
2674.63
2686.78
2700.59
2716.09
2733.28
2752.17
2772.74
2794.98
2818.85
2844.31
2871.28
2899.7
2929.47
2960.48
2992.6
3025.52
3059.02
3092.85
3126.68
3160.16
3192.88
3224.44
3254.41
3282.37
3307.9
3330.63
3350.19
3366.26
3378.57
3386.91
3391.09
3391.05
3386.73
3378.19
3365.51
3348.87
3328.49
3304.68
3277.8
3248.25
3216.49
3183
3148.28
3112.81
3077.09
3041.57
3006.67
2972.74
2940.1
2909
2879.64
2852.15
2826.62
2803.12
2781.66
2762.23
2744.8
2729.33
2715.75
2704
2694
2685.66
2678.88
2673.6
2669.72
2667.16
2665.87
2665.78
2666.85
2669.05
2672.38
2676.83
2682.43
2689.21
2697.22
2706.5
2717.13
2729.14
2742.61
2757.61
2774.18
2792.38
2812.25
2833.82
2857.08
2882.01
2908.55
2936.62
2966.11
2996.85
3028.66
3061.27
3094.41
3127.74
3160.91
3193.51
3225.11
3255.27
3283.52
3309.41
3332.5
3352.38
3368.66
3381.03
3389.23
3393.11
3392.55
3387.58
3378.3
3364.87
3347.53
3326.6
3302.46
3275.55
3246.3
3215.21
3182.74
3149.37
3115.55
3081.7
3048.23
3015.49
2983.78
2953.34
2924.39
2897.05
2871.42
2847.55
2825.46
2805.1
2786.45
2769.45
2754.03
2740.15
2727.74
2716.76
2707.17
2698.92
2691.99
2686.34
2681.97
2678.85
2677
2676.43
2677.13
2679.13
2682.47
2687.15
2693.23
2700.74
2709.72
2720.21
2732.26
2745.92
2761.22
2778.19
2796.86
2817.23
2839.31
2863.05
2888.41
2915.3
2943.59
2973.13
3003.73
3035.17
3067.19
3099.49
3131.77
3163.68
3194.86
3224.94
3253.5
3280.14
3304.47
3326.12
3344.72
3359.98
3371.63
3379.47
3383.35
3383.19
3378.96
3370.73
3358.61
3342.79
3323.51
3301.08
3275.86
3248.23
3218.61
3187.43
3155.13
3122.14
3088.87
3055.75
3023.18
2991.32
2960.51
2930.95
2902.84
2876.3
2851.44
2828.34
2807.04
2787.56
2769.88
2753.98
2739.82
2727.34
2716.49
2707.18
2699.38
2693.03
2688.05
2684.41
2682.08
2681.05
2681.3
2682.74
2685.35
2689.14
2694.11
2700.29
2707.75
2716.53
2726.69
2738.31
2751.47
2766.25
2782.69
2800.87
2820.82
2842.56
2866.07
2891.3
2918.15
2946.5
2976.16
3006.75
3037.95
3069.84
3101.94
3133.92
3165.34
3195.8
3224.94
3252.36
3277.67
3300.55
3320.69
3337.82
3351.7
3362.13
3368.98
3372.16
3370.88
3365.85
3357.2
3345.09
3329.72
3311.3
3290.12
3266.48
3240.69
3213.11
3184.08
3153.94
3123.03
3091.67
3060.15
3028.79
3003.52
2973.52
2944.41
2916.44
2889.76
2864.5
2840.79
2818.73
2798.39
2779.83
2763.07
2748.09
2576.77
2590.64
2606.2
2623.49
2642.55
2663.42
2686.12
2710.64
2737
2765.18
2794.91
2826.31
2859.27
2893.43
2928.47
2964.03
2999.73
3035.26
3070.21
3104.11
3136.56
3167.04
3195.05
3220.15
3241.95
3260.07
3274.23
3284.17
3289.74
3290.85
3287.49
3279.7
3267.63
3251.49
3231.54
3208.1
3181.61
3152.45
3121.05
3087.91
3053.49
3018.26
2982.64
2947.05
2911.88
2877.63
2845.26
2813.93
2783.76
2755.09
2728.13
2702.99
2679.71
2658.32
2638.81
2621.14
2605.27
2591.16
2578.73
2567.94
2558.73
2551.06
2544.92
2540.25
2537.06
2535.35
2535.09
2536.38
2539.14
2543.39
2549.16
2556.47
2565.36
2575.86
2587.99
2601.79
2617.27
2634.45
2653.33
2673.9
2696.14
2720.02
2745.48
2772.47
2800.91
2830.72
2861.77
2893.97
2926.97
2960.57
2994.52
3028.49
3062.12
3095.02
3126.76
3156.91
3185.05
3210.76
3233.65
3253.36
3269.56
3281.98
3290.39
3294.61
3294.58
3290.24
3281.64
3268.87
3252.1
3231.57
3207.59
3180.52
3150.77
3118.8
3085.11
3050.18
3014.53
2978.64
2942.97
2907.94
2873.91
2841.2
2810.04
2780.64