/*--------------------------------*- C++ -*----------------------------------*\
| =========                 |                                                 |
| \\      /  F ield         | OpenFOAM: The Open Source CFD Toolbox           |
|  \\    /   O peration     | Version:  3.0.1                                 |
|   \\  /    A nd           | Web:      www.OpenFOAM.org                      |
|    \\/     M anipulation  |                                                 |
\*---------------------------------------------------------------------------*/
FoamFile
{
    version     2.0;
    format      ascii;
    class       volScalarField;
    location    "21.8";
    object      p;
}
// * * * * * * * * * * * * * * * * * * * * * * * * * * * * * * * * * * * * * //

dimensions      [1 -1 -2 0 0 0 0];

internalField   nonuniform List<scalar> 
21420
(
3552.12
3546.21
3541.71
3538.6
3536.92
3536.68
3537.8
3540.34
3544.34
3549.79
3556.73
3565.21
3575.27
3586.95
3600.32
3615.44
3632.36
3651.09
3671.66
3694.09
3718.33
3744.36
3772.1
3801.46
3832.26
3864.36
3897.42
3931.23
3965.64
4000.25
4034.66
4068.49
4101.31
4132.72
4162.27
4189.54
4214.17
4235.81
4254.15
4268.92
4279.92
4287
4290.07
4288.36
4282.57
4272.81
4259.21
4242.02
4221.47
4197.82
4171.45
4142.7
4111.96
4079.62
4046.1
4011.81
3977.1
3942.38
3908.23
3875.76
3843.58
3812.31
3782.27
3753.67
3726.66
3701.35
3677.8
3656.06
3636.15
3618.06
3601.78
3587.27
3574.51
3563.46
3554.1
3546.41
3540.36
3535.94
3533.15
3532.03
3532.57
3534.71
3538.49
3543.93
3551.02
3559.73
3570.08
3582.05
3595.62
3610.8
3627.56
3645.9
3665.83
3687.33
3710.39
3734.99
3761.08
3788.61
3817.48
3847.55
3878.66
3910.67
3943.23
3976.11
4009.02
4041.61
4073.53
4104.44
4133.95
4161.72
4187.37
4210.57
4230.98
4248.29
4262.23
4272.56
4279.07
4281.58
4280.09
4274.49
4264.88
4251.34
4234.06
4213.26
4189.26
4162.4
4133.05
4101.64
4068.59
4034.35
3999.36
3964.04
3928.83
3894.11
3860.24
3827.54
3796.28
3766.68
3738.92
3713.12
3689.34
3667.62
3647.95
3630.29
3614.59
3600.76
3588.74
3578.43
3569.74
3562.61
3556.97
3552.74
3549.86
3548.33
3548.14
3549.24
3551.62
3555.3
3560.32
3566.7
3574.48
3583.72
3594.46
3606.76
3620.67
3636.22
3653.46
3672.41
3693.08
3715.45
3739.52
3765.23
3792.48
3821.18
3851.2
3882.33
3914.53
3947.24
3980.31
4013.42
4046.2
4078.25
4109.18
4138.56
4166
4191.08
4213.43
4232.72
4248.63
4260.92
4269.38
4273.9
4274.33
4270.76
4263.24
4251.83
4236.73
4218.17
4196.43
4171.82
4144.7
4115.45
4084.46
4052.14
4018.9
3985.14
3951.23
3917.55
3884.42
3852.15
3820.98
3791.14
3762.82
3736.14
3711.22
3688.13
3666.89
3647.53
3630.05
3614.39
3600.54
3588.42
3578
3569.21
3561.97
3556.24
3551.97
3549.08
3547.58
3547.45
3548.6
3551.07
3554.87
3560
3566.5
3574.4
3583.75
3594.63
3607.08
3621.18
3636.97
3654.51
3673.85
3695.01
3718
3742.78
3769.29
3797.41
3827.01
3857.91
3889.87
3922.57
3955.72
3988.95
4021.89
4054.14
4085.27
4114.88
4142.56
4167.93
4190.64
4210.38
4226.89
4239.94
4249.38
4255.09
4256.99
4255.16
4249.58
4240.41
4227.74
4211.77
4192.72
4170.85
4146.43
4119.76
4091.15
4060.92
4029.42
3996.98
3963.92
3930.55
3897.09
3862.82
3829.94
3798.15
3767.59
3738.38
3710.69
3684.67
3660.42
3638.06
3617.65
3599.26
3582.9
3568.59
3556.31
3546.04
3537.75
3531.38
3526.77
3523.86
3522.76
3523.19
3525.09
3528.43
3533.15
3539.22
3546.6
3555.28
3565.24
3576.49
3589.04
3602.92
3618.16
3634.78
3652.85
3672.38
3693.42
3715.98
3740.07
3765.68
3792.81
3821.35
3849.99
3880.42
3911.86
3944.1
3976.76
4009.48
4041.9
4073.58
4104.07
4132.95
4159.79
4184.16
4205.65
4223.87
4238.52
4249.32
4256.07
4258.57
4256.65
4250.4
4239.99
4225.49
4207.16
4185.28
4160.21
4132.37
4102.18
4070.15
4036.73
4002.46
3968.02
3934.14
3902.31
3453.96
3448.06
3443.55
3440.44
3438.76
3438.52
3439.64
3442.19
3446.18
3451.63
3458.57
3467.05
3477.1
3488.78
3502.15
3517.27
3534.18
3552.91
3573.48
3595.9
3620.15
3646.18
3673.92
3703.28
3734.09
3766.2
3799.27
3833.08
3867.51
3902.13
3936.55
3970.4
4003.24
4034.67
4064.24
4091.52
4116.18
4137.83
4156.18
4170.96
4181.97
4189.06
4192.14
4190.41
4184.62
4174.86
4161.25
4144.04
4123.47
4099.81
4073.42
4044.65
4013.9
3981.54
3948
3913.69
3878.97
3844.24
3810.08
3777.6
3745.42
3714.14
3684.09
3655.49
3628.47
3603.16
3579.62
3557.88
3537.97
3519.89
3503.61
3489.1
3476.34
3465.29
3455.93
3448.24
3442.2
3437.77
3434.98
3433.86
3434.41
3436.54
3440.32
3445.77
3452.86
3461.57
3471.91
3483.88
3497.46
3512.63
3529.39
3547.73
3567.66
3589.16
3612.22
3636.82
3662.91
3690.44
3719.31
3749.39
3780.51
3812.52
3845.09
3877.99
3910.9
3943.51
3975.45
4006.37
4035.9
4063.68
4089.35
4112.56
4132.99
4150.32
4164.27
4174.61
4181.13
4183.65
4182.14
4176.54
4166.93
4153.38
4136.08
4115.28
4091.26
4064.37
4035.01
4003.58
3970.51
3936.25
3901.24
3865.91
3830.68
3795.95
3762.07
3729.36
3698.09
3668.49
3640.73
3614.93
3591.15
3569.43
3549.76
3532.11
3516.41
3502.59
3490.57
3480.26
3471.58
3464.45
3458.81
3454.59
3451.71
3450.17
3449.99
3451.09
3453.47
3457.15
3462.16
3468.54
3476.32
3485.56
3496.3
3508.59
3522.5
3538.05
3555.28
3574.23
3594.9
3617.28
3641.34
3667.05
3694.31
3723.01
3753.03
3784.17
3816.38
3849.1
3882.19
3915.31
3948.1
3980.17
4011.11
4040.52
4067.97
4093.07
4115.44
4134.74
4150.67
4162.96
4171.43
4175.96
4176.39
4172.81
4165.29
4153.87
4138.76
4120.19
4098.43
4073.8
4046.66
4017.39
3986.39
3954.05
3920.8
3887.02
3853.1
3819.41
3786.27
3753.98
3722.81
3692.97
3664.64
3637.96
3613.04
3589.94
3568.71
3549.35
3531.87
3516.22
3502.37
3490.26
3479.83
3471.05
3463.81
3458.09
3453.81
3450.93
3449.43
3449.3
3450.45
3452.92
3456.71
3461.84
3468.34
3476.24
3485.59
3496.47
3508.92
3523
3538.79
3556.33
3575.67
3596.83
3619.81
3644.59
3671.11
3699.24
3728.84
3759.74
3791.71
3824.43
3857.59
3890.83
3923.8
3956.06
3987.21
4016.83
4044.53
4069.92
4092.64
4112.4
4128.92
4141.98
4151.42
4157.14
4159.05
4157.2
4151.62
4142.44
4129.77
4113.79
4094.72
4072.84
4048.41
4021.72
3993.09
3962.85
3931.34
3898.88
3865.81
3832.42
3798.95
3764.67
3731.78
3699.99
3669.41
3640.2
3612.51
3586.48
3562.23
3539.87
3519.47
3501.07
3484.72
3470.41
3458.13
3447.87
3439.57
3433.2
3428.6
3425.7
3424.6
3425.03
3426.93
3430.27
3434.99
3441.06
3448.44
3457.12
3467.09
3478.34
3490.88
3504.76
3520
3536.62
3554.68
3574.22
3595.25
3617.81
3641.9
3667.51
3694.64
3723.18
3751.83
3782.27
3813.71
3845.96
3878.64
3911.37
3943.81
3975.51
4006.01
4034.91
4061.77
4086.16
4107.66
4125.9
4140.56
4151.38
4158.13
4160.65
4158.71
4152.46
4142.05
4127.54
4109.19
4087.29
4062.2
4034.34
4004.13
3972.08
3938.64
3904.35
3869.9
3836
3804.16
3355.75
3349.84
3345.34
3342.23
3340.56
3340.31
3341.43
3343.97
3347.96
3353.41
3360.35
3368.82
3378.87
3390.55
3403.91
3419.02
3435.93
3454.65
3475.22
3497.64
3521.89
3547.91
3575.66
3605.03
3635.85
3667.97
3701.05
3734.89
3769.34
3803.99
3838.44
3872.33
3905.2
3936.67
3966.27
3993.6
4018.28
4039.97
4058.34
4073.15
4084.18
4091.27
4094.37
4092.62
4086.82
4077.05
4063.42
4046.19
4025.59
4001.9
3975.47
3946.66
3915.87
3883.48
3849.91
3815.57
3780.81
3746.05
3711.89
3679.38
3647.18
3615.89
3585.84
3557.23
3530.21
3504.9
3481.35
3459.62
3439.71
3421.63
3405.36
3390.86
3378.1
3367.06
3357.7
3350.01
3343.97
3339.54
3336.75
3335.64
3336.18
3338.31
3342.09
3347.53
3354.62
3363.33
3373.68
3385.65
3399.22
3414.39
3431.15
3449.49
3469.42
3490.91
3513.97
3538.58
3564.67
3592.2
3621.08
3651.16
3682.3
3714.33
3746.92
3779.84
3812.78
3845.41
3877.38
3908.33
3937.9
3965.71
3991.41
4014.66
4035.11
4052.47
4066.45
4076.8
4083.34
4085.88
4084.35
4078.76
4069.13
4055.56
4038.24
4017.4
3993.35
3966.43
3937.03
3905.56
3872.45
3838.15
3803.11
3767.75
3732.49
3697.73
3663.83
3631.1
3599.82
3570.22
3542.45
3516.64
3492.87
3471.15
3451.49
3433.84
3418.15
3404.34
3392.33
3382.03
3373.36
3366.23
3360.6
3356.38
3353.5
3351.97
3351.79
3352.89
3355.26
3358.94
3363.95
3370.33
3378.1
3387.33
3398.07
3410.36
3424.26
3439.8
3457.03
3475.98
3496.65
3519.02
3543.09
3568.8
3596.06
3624.77
3654.8
3685.96
3718.17
3750.92
3784.03
3817.18
3850
3882.11
3913.09
3942.53
3970.02
3995.15
4017.56
4036.89
4052.84
4065.16
4073.64
4078.18
4078.61
4075.02
4067.48
4056.05
4040.91
4022.31
4000.52
3975.86
3948.69
3919.38
3888.34
3855.97
3822.68
3788.87
3754.93
3721.21
3688.05
3655.75
3624.56
3594.71
3566.38
3539.69
3514.77
3491.68
3470.44
3451.09
3433.61
3417.97
3404.12
3392.02
3381.6
3372.82
3365.59
3359.87
3355.6
3352.72
3351.22
3351.09
3352.25
3354.71
3358.51
3363.63
3370.13
3378.02
3387.37
3398.24
3410.68
3424.76
3440.54
3458.08
3477.41
3498.57
3521.55
3546.33
3572.85
3600.98
3630.6
3661.51
3693.5
3726.24
3759.42
3792.7
3825.7
3857.99
3889.18
3918.84
3946.57
3971.99
3994.75
4014.54
4031.08
4044.16
4053.61
4059.33
4061.26
4059.39
4053.8
4044.61
4031.91
4015.91
3996.83
3974.91
3950.45
3923.74
3895.08
3864.81
3833.27
3800.79
3767.69
3734.28
3700.79
3666.46
3633.56
3601.76
3571.17
3541.95
3514.25
3488.22
3463.96
3441.6
3421.2
3402.8
3386.45
3372.14
3359.87
3349.61
3341.32
3334.95
3330.35
3327.48
3326.38
3326.81
3328.72
3332.06
3336.78
3342.85
3350.24
3358.92
3368.88
3380.13
3392.67
3406.55
3421.78
3438.4
3456.45
3475.98
3497.01
3519.56
3543.65
3569.26
3596.39
3624.92
3653.62
3684.05
3715.51
3747.78
3780.48
3813.24
3845.71
3877.45
3907.99
3936.93
3963.82
3988.25
4009.79
4028.06
4042.76
4053.59
4060.36
4062.9
4060.94
4054.68
4044.25
4029.72
4011.35
3989.41
3964.28
3936.38
3906.13
3874.03
3840.55
3806.23
3771.75
3737.83
3705.96
3257.47
3251.57
3247.08
3243.97
3242.29
3242.04
3243.16
3245.7
3249.69
3255.13
3262.06
3270.53
3280.57
3292.24
3305.59
3320.69
3337.6
3356.32
3376.87
3399.29
3423.54
3449.57
3477.32
3506.7
3537.53
3569.67
3602.78
3636.64
3671.14
3705.83
3740.33
3774.26
3807.2
3838.72
3868.38
3895.75
3920.49
3942.22
3960.64
3975.48
3986.53
3993.64
3996.76
3994.98
3989.17
3979.38
3965.72
3948.46
3927.81
3904.07
3877.59
3848.73
3817.88
3785.44
3751.81
3717.42
3682.63
3647.83
3613.65
3581.1
3548.88
3517.57
3487.51
3458.89
3431.86
3406.55
3383.01
3361.28
3341.38
3323.3
3307.04
3292.54
3279.79
3268.75
3259.4
3251.71
3245.67
3241.25
3238.46
3237.35
3237.88
3240.02
3243.79
3249.24
3256.33
3265.04
3275.38
3287.35
3300.92
3316.09
3332.85
3351.19
3371.11
3392.6
3415.66
3440.26
3466.36
3493.9
3522.78
3552.88
3584.03
3616.08
3648.7
3681.66
3714.64
3747.31
3779.33
3810.33
3839.94
3867.81
3893.56
3916.85
3937.35
3954.75
3968.76
3979.15
3985.7
3988.27
3986.72
3981.13
3971.48
3957.88
3940.52
3919.64
3895.53
3868.56
3839.1
3807.57
3774.41
3740.06
3704.96
3669.55
3634.25
3599.46
3565.52
3532.77
3501.47
3471.85
3444.07
3418.27
3394.49
3372.79
3353.13
3335.5
3319.82
3306.02
3294.02
3283.73
3275.07
3267.95
3262.33
3258.11
3255.25
3253.72
3253.54
3254.63
3257.01
3260.69
3265.69
3272.06
3279.83
3289.05
3299.78
3312.06
3325.95
3341.49
3358.71
3377.65
3398.32
3420.69
3444.76
3470.47
3497.74
3526.46
3556.51
3587.69
3619.92
3652.7
3685.85
3719.04
3751.91
3784.07
3815.1
3844.6
3872.14
3897.33
3919.79
3939.16
3955.15
3967.5
3976
3980.55
3980.99
3977.39
3969.83
3958.37
3943.2
3924.56
3902.72
3878.01
3850.78
3821.42
3790.33
3757.9
3724.57
3690.71
3656.73
3622.97
3589.78
3557.45
3526.25
3496.38
3468.03
3441.35
3416.42
3393.33
3372.1
3352.75
3335.28
3319.64
3305.8
3293.71
3283.3
3274.53
3267.31
3261.6
3257.33
3254.45
3252.97
3252.84
3253.99
3256.46
3260.25
3265.37
3271.86
3279.74
3289.08
3299.94
3312.37
3326.44
3342.22
3359.74
3379.07
3400.22
3423.2
3447.98
3474.51
3502.65
3532.29
3563.22
3595.24
3628.01
3661.23
3694.56
3727.6
3759.95
3791.19
3820.9
3848.69
3874.16
3896.97
3916.79
3933.37
3946.47
3955.94
3961.68
3963.61
3961.72
3956.13
3946.91
3934.19
3918.15
3899.03
3877.07
3852.57
3825.82
3797.11
3766.8
3735.21
3702.69
3669.56
3636.12
3602.6
3568.2
3535.28
3503.46
3472.86
3443.62
3415.91
3389.87
3365.61
3343.24
3322.84
3304.44
3288.09
3273.79
3261.53
3251.27
3242.99
3236.62
3232.03
3229.19
3228.09
3228.52
3230.44
3233.79
3238.51
3244.59
3251.98
3260.66
3270.62
3281.86
3294.4
3308.27
3323.49
3340.11
3358.16
3377.68
3398.69
3421.25
3445.33
3470.94
3498.06
3526.59
3555.35
3585.79
3617.26
3649.56
3682.3
3715.1
3747.62
3779.41
3810.01
3839.01
3865.96
3890.44
3912.04
3930.36
3945.09
3955.96
3962.75
3965.31
3963.35
3957.08
3946.62
3932.05
3913.63
3891.64
3866.45
3838.49
3808.17
3776.02
3742.48
3708.1
3673.57
3639.61
3607.71
3159.13
3153.24
3148.75
3145.65
3143.98
3143.72
3144.83
3147.38
3151.36
3156.8
3163.72
3172.17
3182.2
3193.86
3207.2
3222.29
3239.19
3257.9
3278.45
3300.86
3325.11
3351.14
3378.9
3408.29
3439.15
3471.31
3504.46
3538.36
3572.9
3607.65
3642.21
3676.21
3709.22
3740.81
3770.55
3798
3822.8
3844.6
3863.07
3877.95
3889.03
3896.17
3899.3
3897.51
3891.68
3881.86
3868.16
3850.85
3830.14
3806.33
3779.78
3750.85
3719.93
3687.41
3653.72
3619.27
3584.41
3549.56
3515.35
3482.77
3450.51
3419.18
3389.1
3360.46
3333.43
3308.12
3284.58
3262.85
3242.96
3224.89
3208.64
3194.15
3181.41
3170.38
3161.03
3153.35
3147.31
3142.89
3140.1
3138.99
3139.52
3141.66
3145.43
3150.88
3157.96
3166.68
3177.02
3188.98
3202.56
3217.72
3234.48
3252.81
3272.73
3294.22
3317.27
3341.87
3367.97
3395.52
3424.42
3454.54
3485.71
3517.79
3550.45
3583.45
3616.48
3649.21
3681.29
3712.35
3742.03
3769.96
3795.78
3819.14
3839.7
3857.15
3871.21
3881.64
3888.22
3890.81
3889.26
3883.65
3873.98
3860.34
3842.93
3821.99
3797.81
3770.76
3741.23
3709.62
3676.39
3641.96
3606.79
3571.32
3535.97
3501.12
3467.14
3434.36
3403.03
3373.39
3345.61
3319.8
3296.03
3274.33
3254.69
3237.07
3221.4
3207.63
3195.64
3185.37
3176.72
3169.62
3164
3159.79
3156.93
3155.42
3155.24
3156.32
3158.7
3162.38
3167.37
3173.73
3181.49
3190.71
3201.42
3213.69
3227.57
3243.1
3260.32
3279.25
3299.91
3322.28
3346.35
3372.06
3399.34
3428.08
3458.15
3489.36
3521.62
3554.44
3587.64
3620.89
3653.82
3686.04
3717.15
3746.72
3774.34
3799.6
3822.12
3841.56
3857.6
3869.99
3878.52
3883.07
3883.53
3879.91
3872.33
3860.83
3845.61
3826.91
3805.01
3780.23
3752.94
3723.5
3692.34
3659.85
3626.44
3592.53
3558.49
3524.69
3491.45
3459.09
3427.86
3397.97
3369.61
3342.92
3317.99
3294.89
3273.67
3254.33
3236.87
3221.24
3207.42
3195.34
3184.94
3176.18
3168.97
3163.26
3159.01
3156.14
3154.66
3154.53
3155.68
3158.15
3161.93
3167.05
3173.53
3181.41
3190.74
3201.58
3214
3228.06
3243.82
3261.33
3280.64
3301.79
3324.77
3349.55
3376.08
3404.25
3433.9
3464.87
3496.92
3529.74
3563.01
3596.4
3629.5
3661.92
3693.23
3723.02
3750.88
3776.42
3799.28
3819.16
3835.78
3848.93
3858.42
3864.17
3866.11
3864.2
3858.59
3849.34
3836.58
3820.51
3801.33
3779.32
3754.77
3727.95
3699.19
3668.81
3637.17
3604.6
3571.41
3537.93
3504.38
3469.89
3436.93
3405.09
3374.47
3345.22
3317.49
3291.43
3267.17
3244.8
3224.39
3206
3189.65
3175.36
3163.1
3152.86
3144.58
3138.22
3133.65
3130.83
3129.74
3130.18
3132.11
3135.46
3140.19
3146.27
3153.66
3162.34
3172.31
3183.54
3196.08
3209.94
3225.15
3241.76
3259.8
3279.3
3300.31
3322.86
3346.94
3372.54
3399.66
3428.19
3457.02
3487.46
3518.96
3551.29
3584.08
3616.95
3649.53
3681.39
3712.07
3741.14
3768.17
3792.73
3814.4
3832.79
3847.58
3858.49
3865.3
3867.88
3865.94
3859.63
3849.13
3834.52
3816.04
3793.98
3768.71
3740.67
3710.27
3678.03
3644.41
3609.96
3575.37
3541.35
3509.41
3060.74
3054.86
3050.37
3047.28
3045.6
3045.34
3046.45
3049
3052.97
3058.4
3065.31
3073.76
3083.77
3095.42
3108.75
3123.82
3140.7
3159.4
3179.94
3202.35
3226.59
3252.63
3280.4
3309.81
3340.68
3372.88
3406.07
3440.02
3474.62
3509.45
3544.09
3578.17
3611.27
3642.96
3672.79
3700.33
3725.22
3747.09
3765.63
3780.57
3791.69
3798.85
3801.98
3800.2
3794.35
3784.48
3770.74
3753.36
3732.58
3708.69
3682.05
3653.03
3622.01
3589.41
3555.63
3521.09
3486.17
3451.25
3417.01
3384.37
3352.07
3320.71
3290.61
3261.96
3234.92
3209.6
3186.07
3164.35
3144.47
3126.41
3110.16
3095.69
3082.95
3071.93
3062.59
3054.92
3048.88
3044.47
3041.69
3040.57
3041.09
3043.23
3047.01
3052.45
3059.54
3068.25
3078.59
3090.55
3104.12
3119.29
3136.04
3154.37
3174.28
3195.76
3218.82
3243.42
3269.52
3297.07
3325.99
3356.13
3387.34
3419.46
3452.17
3485.22
3518.32
3551.12
3583.27
3614.41
3644.17
3672.19
3698.09
3721.52
3742.16
3759.68
3773.8
3784.28
3790.9
3793.5
3791.97
3786.34
3776.63
3762.94
3745.47
3724.45
3700.19
3673.05
3643.42
3611.71
3578.38
3543.86
3508.61
3473.06
3437.63
3402.72
3368.69
3335.86
3304.51
3274.85
3247.05
3221.24
3197.48
3175.79
3156.16
3138.56
3122.91
3109.16
3097.2
3086.94
3078.31
3071.22
3065.62
3061.42
3058.57
3057.06
3056.88
3057.97
3060.34
3064.01
3069
3075.35
3083.1
3092.3
3103
3115.26
3129.13
3144.64
3161.85
3180.77
3201.42
3223.79
3247.86
3273.58
3300.87
3329.63
3359.72
3390.97
3423.26
3456.14
3489.4
3522.72
3555.73
3588.04
3619.24
3648.9
3676.61
3701.96
3724.57
3744.08
3760.19
3772.62
3781.19
3785.76
3786.23
3782.59
3774.97
3763.43
3748.15
3729.39
3707.4
3682.54
3655.15
3625.63
3594.37
3561.8
3528.31
3494.32
3460.21
3426.35
3393.07
3360.66
3329.4
3299.48
3271.11
3244.4
3219.47
3196.38
3175.16
3155.83
3138.38
3122.77
3108.96
3096.89
3086.51
3077.76
3070.57
3064.88
3060.63
3057.77
3056.3
3056.17
3057.32
3059.79
3063.57
3068.68
3075.15
3083.01
3092.33
3103.16
3115.56
3129.6
3145.34
3162.84
3182.14
3203.28
3226.26
3251.04
3277.58
3305.76
3335.44
3366.44
3398.54
3431.42
3464.76
3498.22
3531.41
3563.91
3595.31
3625.19
3653.14
3678.76
3701.71
3721.66
3738.33
3751.52
3761.05
3766.81
3768.75
3766.84
3761.2
3751.91
3739.11
3722.97
3703.74
3681.66
3657.03
3630.14
3601.3
3570.86
3539.14
3506.5
3473.26
3439.72
3406.12
3371.52
3338.53
3306.66
3276.01
3246.73
3218.98
3192.92
3168.64
3146.26
3125.86
3107.47
3091.13
3076.84
3064.6
3054.37
3046.1
3039.75
3035.2
3032.4
3031.33
3031.78
3033.71
3037.08
3041.82
3047.9
3055.3
3063.98
3073.94
3085.17
3097.7
3111.55
3126.75
3143.34
3161.37
3180.86
3201.86
3224.4
3248.47
3274.07
3301.19
3329.71
3358.64
3389.08
3420.6
3452.99
3485.84
3518.78
3551.45
3583.4
3614.16
3643.34
3670.47
3695.12
3716.88
3735.35
3750.21
3761.17
3768.02
3770.61
3768.68
3762.36
3751.81
3737.13
3718.58
3696.43
3671.06
3642.91
3612.41
3580.07
3546.35
3511.81
3477.14
3443.05
3411.05
2962.28
2956.41
2951.94
2948.85
2947.17
2946.9
2948.02
2950.56
2954.53
2959.94
2966.84
2975.27
2985.28
2996.9
3010.21
3025.27
3042.13
3060.82
3081.35
3103.75
3127.99
3154.04
3181.82
3211.24
3242.15
3274.38
3307.62
3341.63
3376.31
3411.22
3445.96
3480.15
3513.35
3545.15
3575.09
3602.75
3627.74
3649.71
3668.32
3683.33
3694.5
3701.69
3704.83
3703.05
3697.17
3687.25
3673.45
3656
3635.13
3611.14
3584.39
3555.26
3524.14
3491.42
3457.54
3422.91
3387.89
3352.9
3318.62
3285.91
3253.57
3222.17
3192.04
3163.37
3136.33
3111.01
3087.47
3065.76
3045.89
3027.85
3011.62
2997.16
2984.43
2973.42
2964.09
2956.42
2950.39
2945.98
2943.2
2942.08
2942.6
2944.74
2948.52
2953.95
2961.04
2969.75
2980.09
2992.05
3005.62
3020.78
3037.53
3055.85
3075.76
3097.24
3120.29
3144.89
3170.99
3198.56
3227.49
3257.66
3288.91
3321.07
3353.84
3386.96
3420.14
3453.02
3485.26
3516.5
3546.36
3574.47
3600.47
3624
3644.73
3662.34
3676.53
3687.07
3693.73
3696.36
3694.83
3689.19
3679.44
3665.69
3648.13
3627.02
3602.66
3575.41
3545.66
3513.84
3480.4
3445.77
3410.41
3374.76
3339.25
3304.27
3270.17
3237.29
3205.9
3176.21
3148.4
3122.59
3098.83
3077.15
3057.55
3039.97
3024.35
3010.61
2998.68
2988.45
2979.84
2972.77
2967.18
2962.99
2960.15
2958.66
2958.47
2959.56
2961.93
2965.6
2970.58
2976.91
2984.65
2993.83
3004.52
3016.76
3030.61
3046.11
3063.3
3082.22
3102.86
3125.22
3149.29
3175.02
3202.32
3231.1
3261.23
3292.52
3324.86
3357.8
3391.13
3424.54
3457.65
3490.06
3521.36
3551.13
3578.96
3604.42
3627.13
3646.73
3662.91
3675.41
3684.02
3688.61
3689.08
3685.43
3677.77
3666.17
3650.82
3631.97
3609.9
3584.93
3557.44
3527.8
3496.44
3463.76
3430.18
3396.09
3361.9
3327.97
3294.63
3262.17
3230.86
3200.92
3172.52
3145.8
3120.87
3097.78
3076.57
3057.25
3039.81
3024.22
3010.43
2998.38
2988.02
2979.29
2972.11
2966.43
2962.2
2959.35
2957.89
2957.75
2958.91
2961.38
2965.15
2970.25
2976.71
2984.56
2993.86
3004.67
3017.05
3031.07
3046.79
3064.28
3083.56
3104.69
3127.66
3152.44
3179
3207.2
3236.91
3267.96
3300.11
3333.05
3366.48
3400.02
3433.31
3465.92
3497.43
3527.42
3555.47
3581.2
3604.24
3624.27
3641.01
3654.25
3663.82
3669.59
3671.54
3669.62
3663.95
3654.61
3641.75
3625.55
3606.24
3584.08
3559.37
3532.39
3503.46
3472.93
3441.13
3408.41
3375.09
3341.49
3307.84
3273.09
3240.07
3208.16
3177.48
3148.17
3120.4
3094.32
3070.02
3047.64
3027.24
3008.85
2992.52
2978.25
2966.01
2955.79
2947.55
2941.2
2936.67
2933.9
2932.85
2933.31
2935.26
2938.64
2943.39
2949.48
2956.87
2965.56
2975.51
2986.74
2999.26
3013.1
3028.29
3044.87
3062.88
3082.36
3103.34
3125.87
3149.94
3175.53
3202.64
3231.15
3260.19
3290.64
3322.2
3354.64
3387.57
3420.6
3453.37
3485.42
3516.3
3545.59
3572.84
3597.61
3619.48
3638.04
3652.98
3664.01
3670.91
3673.51
3671.6
3665.25
3654.64
3639.89
3621.24
3598.99
3573.5
3545.23
3514.6
3482.13
3448.29
3413.65
3378.88
3344.71
3312.65
2863.77
2857.91
2853.45
2850.36
2848.69
2848.42
2849.52
2852.07
2856.03
2861.43
2868.32
2876.73
2886.71
2898.32
2911.61
2926.65
2943.49
2962.16
2982.68
3005.07
3029.31
3055.36
3083.15
3112.6
3143.54
3175.83
3209.11
3243.2
3277.97
3312.98
3347.82
3382.13
3415.46
3447.39
3477.47
3505.25
3530.36
3552.44
3571.15
3586.23
3597.46
3604.69
3607.84
3606.05
3600.14
3590.17
3576.3
3558.76
3537.78
3513.68
3486.81
3457.55
3426.29
3393.45
3359.45
3324.7
3289.59
3254.51
3220.18
3187.39
3154.99
3123.55
3093.39
3064.71
3037.65
3012.33
2988.8
2967.09
2947.24
2929.21
2912.99
2898.55
2885.84
2874.84
2865.52
2857.86
2851.83
2847.43
2844.65
2843.53
2844.05
2846.19
2849.96
2855.4
2862.48
2871.2
2881.53
2893.49
2907.06
2922.21
2938.95
2957.27
2977.17
2998.64
3021.68
3046.28
3072.39
3099.97
3128.93
3159.13
3190.42
3222.64
3255.48
3288.68
3321.94
3354.92
3387.27
3418.62
3448.6
3476.82
3502.94
3526.58
3547.42
3565.12
3579.4
3590.01
3596.72
3599.37
3597.86
3592.19
3582.39
3568.57
3550.93
3529.71
3505.23
3477.85
3447.96
3416.01
3382.43
3347.67
3312.19
3276.44
3240.82
3205.75
3171.58
3138.64
3107.21
3077.49
3049.66
3023.84
3000.09
2978.43
2958.84
2941.29
2925.7
2912
2900.09
2889.89
2881.3
2874.26
2868.68
2864.51
2861.69
2860.2
2860.02
2861.1
2863.47
2867.13
2872.1
2878.42
2886.14
2895.31
2905.97
2918.19
2932.02
2947.51
2964.69
2983.59
3004.22
3026.58
3050.65
3076.39
3103.7
3132.51
3162.67
3194.01
3226.4
3259.42
3292.84
3326.35
3359.56
3392.09
3423.52
3453.42
3481.38
3506.96
3529.79
3549.5
3565.78
3578.35
3587.01
3591.62
3592.1
3588.43
3580.72
3569.05
3553.62
3534.67
3512.49
3487.4
3459.78
3430.02
3398.53
3365.73
3332.03
3297.84
3263.56
3229.54
3196.12
3163.61
3132.26
3102.28
3073.85
3047.12
3022.18
2999.09
2977.89
2958.59
2941.17
2925.59
2911.82
2899.8
2889.46
2880.75
2873.59
2867.93
2863.71
2860.87
2859.42
2859.29
2860.45
2862.91
2866.68
2871.77
2878.21
2886.05
2895.33
2906.12
2918.48
2932.47
2948.17
2965.63
2984.9
3006.01
3028.98
3053.77
3080.33
3108.56
3138.31
3169.41
3201.62
3234.65
3268.16
3301.81
3335.21
3367.94
3399.58
3429.7
3457.88
3483.72
3506.87
3527
3543.83
3557.13
3566.73
3572.53
3574.48
3572.55
3566.84
3557.45
3544.53
3528.25
3508.85
3486.6
3461.79
3434.7
3405.67
3375.03
3343.13
3310.31
3276.9
3243.23
3209.53
3174.6
3141.54
3109.6
3078.88
3049.54
3021.74
2995.63
2971.33
2948.94
2928.53
2910.15
2893.83
2879.56
2867.34
2857.14
2848.91
2842.59
2838.08
2835.34
2834.31
2834.79
2836.75
2840.14
2844.9
2851
2858.4
2867.08
2877.04
2888.26
2900.77
2914.6
2929.77
2946.33
2964.32
2983.78
3004.75
3027.27
3051.32
3076.91
3104.02
3132.52
3161.68
3192.14
3223.74
3256.25
3289.27
3322.4
3355.28
3387.47
3418.48
3447.9
3475.29
3500.19
3522.19
3540.87
3555.91
3567.01
3573.96
3576.58
3574.68
3568.3
3557.63
3542.79
3524.04
3501.66
3476.03
3447.61
3416.83
3384.22
3350.25
3315.47
3280.59
3246.33
3214.19
2765.2
2759.36
2754.9
2751.83
2750.15
2749.87
2750.98
2753.52
2757.47
2762.85
2769.73
2778.12
2788.08
2799.67
2812.94
2827.95
2844.77
2863.42
2883.92
2906.31
2930.55
2956.6
2984.41
3013.88
3044.86
3077.2
3110.54
3144.71
3179.59
3214.71
3249.68
3284.12
3317.6
3349.68
3379.91
3407.84
3433.09
3455.29
3474.11
3489.28
3500.58
3507.84
3511
3509.22
3503.27
3493.24
3479.28
3461.64
3440.55
3416.31
3389.29
3359.89
3328.48
3295.5
3261.36
3226.48
3191.25
3156.07
3121.69
3088.81
3056.35
3024.86
2994.67
2965.96
2938.89
2913.56
2890.04
2868.35
2848.5
2830.49
2814.3
2799.87
2787.18
2776.2
2766.89
2759.23
2753.21
2748.81
2746.04
2744.91
2745.43
2747.57
2751.34
2756.77
2763.86
2772.57
2782.91
2794.86
2808.42
2823.58
2840.31
2858.62
2878.51
2899.97
2923.01
2947.61
2973.72
3001.31
3030.29
3060.54
3091.88
3124.16
3157.07
3190.37
3223.73
3256.83
3289.3
3320.77
3350.88
3379.24
3405.49
3429.26
3450.22
3468.03
3482.41
3493.1
3499.87
3502.55
3501.05
3495.35
3485.5
3471.6
3453.85
3432.51
3407.89
3380.36
3350.32
3318.21
3284.48
3249.58
3213.96
3178.07
3142.34
3107.17
3072.92
3039.91
3008.42
2978.67
2950.83
2925
2901.26
2879.62
2860.06
2842.53
2826.97
2813.3
2801.43
2791.26
2782.71
2775.69
2770.13
2765.98
2763.17
2761.69
2761.51
2762.6
2764.96
2768.61
2773.56
2779.87
2787.57
2796.72
2807.36
2819.56
2833.37
2848.83
2865.99
2884.88
2905.5
2927.85
2951.93
2977.67
3005.01
3033.84
3064.04
3095.44
3127.89
3160.99
3194.51
3228.13
3261.48
3294.14
3325.72
3355.77
3383.87
3409.6
3432.57
3452.4
3468.78
3481.43
3490.15
3494.79
3495.27
3491.59
3483.82
3472.08
3456.56
3437.49
3415.17
3389.95
3362.19
3332.28
3300.65
3267.71
3233.88
3199.57
3165.18
3131.06
3097.56
3064.98
3033.57
3003.56
2975.11
2948.36
2923.41
2900.33
2879.14
2859.85
2842.44
2826.89
2813.15
2801.15
2790.83
2782.14
2775.01
2769.37
2765.16
2762.34
2760.9
2760.77
2761.93
2764.39
2768.16
2773.24
2779.66
2787.48
2796.74
2807.5
2819.83
2833.8
2849.47
2866.91
2886.16
2907.25
2930.21
2955
2981.58
3009.84
3039.63
3070.79
3103.08
3136.19
3169.81
3203.58
3237.12
3269.99
3301.77
3332.03
3360.35
3386.34
3409.61
3429.85
3446.77
3460.14
3469.8
3475.62
3477.57
3475.63
3469.88
3460.43
3447.42
3431.06
3411.56
3389.2
3364.27
3337.07
3307.92
3277.16
3245.15
3212.22
3178.71
3144.95
3111.18
3076.06
3042.96
3010.97
2980.2
2950.82
2922.99
2896.86
2872.54
2850.14
2829.73
2811.36
2795.04
2780.8
2768.6
2758.42
2750.21
2743.9
2739.43
2736.71
2735.7
2736.2
2738.18
2741.58
2746.36
2752.47
2759.87
2768.56
2778.51
2789.72
2802.22
2816.03
2831.19
2847.73
2865.7
2885.14
2906.09
2928.59
2952.64
2978.22
3005.33
3033.82
3063.11
3093.58
3125.23
3157.82
3190.94
3224.18
3257.2
3289.53
3320.69
3350.27
3377.81
3402.87
3425.02
3443.83
3458.98
3470.17
3477.18
3479.83
3477.93
3471.52
3460.77
3445.84
3426.96
3404.44
3378.65
3350.07
3319.12
3286.34
3252.2
3217.29
3182.28
3147.91
3115.69
2666.57
2660.74
2656.3
2653.23
2651.56
2651.28
2652.38
2654.91
2658.85
2664.22
2671.08
2679.45
2689.39
2700.95
2714.19
2729.18
2745.97
2764.6
2785.09
2807.46
2831.7
2857.76
2885.58
2915.08
2946.1
2978.5
3011.91
3046.18
3081.17
3116.42
3151.53
3186.13
3219.77
3252.02
3282.42
3310.51
3335.92
3358.26
3377.21
3392.48
3403.85
3411.16
3414.33
3412.55
3406.56
3396.46
3382.41
3364.65
3343.42
3319.03
3291.86
3262.28
3230.71
3197.56
3163.27
3128.24
3092.88
3057.59
3023.14
2990.17
2957.64
2926.1
2895.86
2867.13
2840.04
2814.71
2791.19
2769.52
2749.69
2731.7
2715.52
2701.12
2688.45
2677.48
2668.19
2660.54
2654.53
2650.13
2647.36
2646.23
2646.74
2648.88
2652.66
2658.08
2665.16
2673.88
2684.22
2696.17
2709.72
2724.87
2741.6
2759.9
2779.78
2801.23
2824.26
2848.86
2874.98
2902.59
2931.59
2961.88
2993.28
3025.62
3058.63
3092.02
3125.5
3158.73
3191.33
3222.95
3253.21
3281.72
3308.12
3332.03
3353.13
3371.07
3385.56
3396.34
3403.17
3405.9
3404.4
3398.68
3388.76
3374.77
3356.91
3335.43
3310.65
3282.95
3252.74
3220.45
3186.55
3151.48
3115.7
3079.67
3043.81
3008.53
2974.18
2941.1
2909.55
2879.77
2851.9
2826.07
2802.34
2780.71
2761.18
2743.69
2728.17
2714.54
2702.71
2692.57
2684.05
2677.06
2671.53
2667.39
2664.6
2663.13
2662.95
2664.04
2666.4
2670.04
2674.98
2681.27
2688.94
2698.07
2708.69
2720.86
2734.65
2750.09
2767.23
2786.1
2806.71
2829.05
2853.12
2878.88
2906.24
2935.11
2965.35
2996.81
3029.33
3062.53
3096.16
3129.91
3163.39
3196.21
3227.95
3258.17
3286.44
3312.34
3335.45
3355.42
3371.92
3384.67
3393.45
3398.12
3398.61
3394.9
3387.07
3375.25
3359.62
3340.42
3317.96
3292.58
3264.66
3234.59
3202.79
3169.7
3135.72
3101.27
3066.76
3032.53
2998.94
2966.29
2934.82
2904.75
2876.27
2849.51
2824.56
2801.48
2780.3
2761.02
2743.64
2728.12
2714.4
2702.43
2692.14
2683.48
2676.37
2670.75
2666.57
2663.76
2662.33
2662.2
2663.37
2665.83
2669.58
2674.65
2681.06
2688.85
2698.08
2708.82
2721.12
2735.06
2750.7
2768.11
2787.33
2808.41
2831.36
2856.16
2882.75
2911.04
2940.88
2972.1
3004.48
3037.69
3071.43
3105.34
3139.02
3172.05
3203.99
3234.42
3262.9
3289.04
3312.46
3332.82
3349.84
3363.3
3373.01
3378.86
3380.81
3378.85
3373.06
3363.54
3350.45
3333.98
3314.37
3291.89
3266.83
3239.49
3210.21
3179.32
3147.18
3114.12
3080.5
3046.65
3012.81
2977.45
2944.31
2912.27
2881.46
2852.03
2824.16
2798
2773.67
2751.26
2730.85
2712.48
2696.18
2681.95
2669.77
2659.61
2651.42
2645.14
2640.7
2638.01
2637.03
2637.55
2639.55
2642.97
2647.76
2653.88
2661.3
2669.98
2679.93
2691.13
2703.61
2717.41
2732.54
2749.06
2767.01
2786.42
2807.36
2829.84
2853.88
2879.45
2906.56
2935.06
2964.46
2994.95
3026.66
3059.34
3092.57
3125.95
3159.12
3191.61
3222.94
3252.7
3280.42
3305.65
3327.96
3346.92
3362.2
3373.49
3380.57
3383.25
3381.36
3374.9
3364.07
3349.03
3330.02
3307.33
3281.37
3252.59
3221.45
3188.48
3154.17
3119.08
3083.93
3049.44
3017.13
2567.88
2562.07
2557.64
2554.58
2552.91
2552.63
2553.72
2556.25
2560.17
2565.53
2572.36
2580.71
2590.63
2602.16
2615.37
2630.33
2647.09
2665.69
2686.17
2708.53
2732.76
2758.83
2786.67
2816.2
2847.27
2879.74
2913.22
2947.59
2982.71
3018.1
3053.37
3088.14
3121.97
3154.41
3185
3213.28
3238.86
3261.36
3280.44
3295.82
3307.27
3314.64
3317.82
3316.03
3310
3299.82
3285.67
3267.78
3246.4
3221.84
3194.49
3164.73
3132.97
3099.64
3065.18
3029.99
2994.48
2959.07
2924.55
2891.46
2858.85
2827.25
2796.97
2768.21
2741.11
2715.78
2692.27
2670.6
2650.8
2632.83
2616.68
2602.29
2589.65
2578.7
2569.42
2561.78
2555.77
2551.38
2548.62
2547.48
2547.99
2550.13
2553.91
2559.33
2566.41
2575.12
2585.46
2597.41
2610.96
2626.1
2642.82
2661.11
2680.98
2702.42
2725.45
2750.04
2776.16
2803.79
2832.83
2863.15
2894.62
2927.04
2960.14
2993.65
3027.26
3060.62
3093.38
3125.16
3155.58
3184.26
3210.82
3234.91
3256.15
3274.24
3288.85
3299.73
3306.64
3309.4
3307.92
3302.16
3292.18
3278.09
3260.09
3238.45