/*--------------------------------*- C++ -*----------------------------------*\
| =========                 |                                                 |
| \\      /  F ield         | OpenFOAM: The Open Source CFD Toolbox           |
|  \\    /   O peration     | Version:  3.0.1                                 |
|   \\  /    A nd           | Web:      www.OpenFOAM.org                      |
|    \\/     M anipulation  |                                                 |
\*---------------------------------------------------------------------------*/
FoamFile
{
    version     2.0;
    format      ascii;
    class       volVectorField;
    location    "75";
    object      U;
}
// * * * * * * * * * * * * * * * * * * * * * * * * * * * * * * * * * * * * * //

dimensions      [0 1 -1 0 0 0 0];

internalField   nonuniform List<vector> 
21420
(
(0.138784 -0.00137949 0)
(0.151234 -0.00146343 0)
(0.166252 -0.00152193 0)
(0.1819 -0.00156907 0)
(0.198059 -0.00162937 0)
(0.214593 -0.0016482 0)
(0.231329 -0.00167595 0)
(0.248069 -0.00165569 0)
(0.264586 -0.00161136 0)
(0.280646 -0.00157104 0)
(0.296015 -0.00148132 0)
(0.310445 -0.00136827 0)
(0.323701 -0.00125343 0)
(0.335568 -0.00109913 0)
(0.345842 -0.000939278 0)
(0.354347 -0.000751633 0)
(0.360934 -0.000552746 0)
(0.365496 -0.000346836 0)
(0.367935 -0.000131296 0)
(0.368203 7.73217e-05 0)
(0.366395 0.00029083 0)
(0.362297 0.000506441 0)
(0.356186 0.000712045 0)
(0.348105 0.000894467 0)
(0.338187 0.00107486 0)
(0.326599 0.00121806 0)
(0.313539 0.00136022 0)
(0.299203 0.00148818 0)
(0.283809 0.00156169 0)
(0.267607 0.00164055 0)
(0.250813 0.00170147 0)
(0.233642 0.0017071 0)
(0.21632 0.00172237 0)
(0.19905 0.00169059 0)
(0.182025 0.00166736 0)
(0.1654 0.00162932 0)
(0.149311 0.00155676 0)
(0.133893 0.00149138 0)
(0.119239 0.00141641 0)
(0.105426 0.00132154 0)
(0.0925187 0.00123339 0)
(0.0805563 0.00113327 0)
(0.0695633 0.00103966 0)
(0.0595398 0.000945218 0)
(0.0504816 0.000848038 0)
(0.0423756 0.000756631 0)
(0.0351781 0.000669346 0)
(0.028852 0.000582591 0)
(0.0233637 0.000505632 0)
(0.0186413 0.000432543 0)
(0.0146227 0.000365931 0)
(0.0112416 0.000304748 0)
(0.00844676 0.000249231 0)
(0.00621632 0.00020184 0)
(0.00445222 0.000157203 0)
(0.00308355 0.000116008 0)
(0.002113 8.46034e-05 0)
(0.00143436 5.40582e-05 0)
(0.00108332 1.96828e-05 0)
(0.000975258 -5.03674e-06 0)
(0.00113093 -3.49561e-05 0)
(0.00166703 -6.3813e-05 0)
(0.00243595 -9.16579e-05 0)
(0.00351393 -0.000126495 0)
(0.0050137 -0.000164658 0)
(0.00683898 -0.000196563 0)
(0.00904252 -0.000241041 0)
(0.0117209 -0.000280364 0)
(0.0147732 -0.000319752 0)
(0.0182841 -0.000363398 0)
(0.02222 -0.000400664 0)
(0.0265177 -0.000434786 0)
(0.0311562 -0.00046973 0)
(0.0361637 -0.000500573 0)
(0.0414083 -0.000520615 0)
(0.047006 -0.000562032 0)
(0.0529956 -0.000586996 0)
(0.0592629 -0.000630964 0)
(0.0662399 -0.000695805 0)
(0.0738717 -0.000740764 0)
(0.0820655 -0.000813766 0)
(0.0912124 -0.000902225 0)
(0.101231 -0.000977542 0)
(0.112157 -0.00106782 0)
(0.124075 -0.00115178 0)
(0.136916 -0.00122744 0)
(0.150578 -0.00129616 0)
(0.164914 -0.00135946 0)
(0.179752 -0.00139136 0)
(0.194871 -0.0014046 0)
(0.210047 -0.00139519 0)
(0.224973 -0.00136239 0)
(0.239366 -0.00130576 0)
(0.25296 -0.00123132 0)
(0.265441 -0.00111934 0)
(0.276559 -0.00100049 0)
(0.286143 -0.000851544 0)
(0.294083 -0.000700989 0)
(0.300299 -0.000522243 0)
(0.304653 -0.000344781 0)
(0.307148 -0.000157847 0)
(0.307783 2.55698e-05 0)
(0.306547 0.000218772 0)
(0.303345 0.000405578 0)
(0.298368 0.000578561 0)
(0.29165 0.000747743 0)
(0.283361 0.000902351 0)
(0.273556 0.00104271 0)
(0.262411 0.00116373 0)
(0.250114 0.00127346 0)
(0.236813 0.00135752 0)
(0.222723 0.00143442 0)
(0.208031 0.00148446 0)
(0.19289 0.00151858 0)
(0.177514 0.00153458 0)
(0.162035 0.00153058 0)
(0.146647 0.00152022 0)
(0.131529 0.0014837 0)
(0.116771 0.00145006 0)
(0.102492 0.00139112 0)
(0.0888195 0.00132309 0)
(0.0758259 0.00125237 0)
(0.0635798 0.00117768 0)
(0.0521161 0.00110085 0)
(0.0414464 0.00102141 0)
(0.0315624 0.000944304 0)
(0.0225001 0.000861424 0)
(0.0142003 0.000786792 0)
(0.00665047 0.000707055 0)
(-0.00011681 0.000644578 0)
(-0.00619047 0.000564063 0)
(-0.0115674 0.000510513 0)
(-0.016293 0.000440946 0)
(-0.0204076 0.000375238 0)
(-0.0238969 0.000314952 0)
(-0.0268052 0.000254923 0)
(-0.0291331 0.00020178 0)
(-0.0309365 0.000152941 0)
(-0.0321981 0.000103309 0)
(-0.0329838 4.76264e-05 0)
(-0.0332622 4.191e-06 0)
(-0.0330678 -3.10297e-05 0)
(-0.032447 -8.88513e-05 0)
(-0.0313587 -0.000130337 0)
(-0.029835 -0.000174845 0)
(-0.0278677 -0.000212875 0)
(-0.0254346 -0.000265041 0)
(-0.0225431 -0.000310316 0)
(-0.0191799 -0.000355956 0)
(-0.0153524 -0.000403119 0)
(-0.0110311 -0.000453104 0)
(-0.00621599 -0.000509428 0)
(-0.000791067 -0.000560285 0)
(0.00522014 -0.000623243 0)
(0.0118962 -0.000698335 0)
(0.0193023 -0.000773233 0)
(0.0274687 -0.000850477 0)
(0.0364661 -0.000930402 0)
(0.0463353 -0.00101226 0)
(0.0570321 -0.00110347 0)
(0.0686138 -0.00118305 0)
(0.0810454 -0.00127539 0)
(0.0943513 -0.00136059 0)
(0.10847 -0.00144281 0)
(0.123373 -0.00151162 0)
(0.139017 -0.00158275 0)
(0.155295 -0.00164673 0)
(0.172168 -0.00170022 0)
(0.189525 -0.00174083 0)
(0.207231 -0.00177145 0)
(0.225164 -0.00179642 0)
(0.243231 -0.00179274 0)
(0.261195 -0.0017714 0)
(0.278888 -0.00173742 0)
(0.296116 -0.00167525 0)
(0.312656 -0.00160312 0)
(0.328315 -0.0014975 0)
(0.34281 -0.00137312 0)
(0.355924 -0.00122521 0)
(0.367415 -0.00104776 0)
(0.376993 -0.000850514 0)
(0.38446 -0.000621041 0)
(0.38958 -0.000392643 0)
(0.392209 -0.000141243 0)
(0.39239 0.000111929 0)
(0.389956 0.000372345 0)
(0.38481 0.000623156 0)
(0.37734 0.000856006 0)
(0.367593 0.00108019 0)
(0.355743 0.00127748 0)
(0.341989 0.00144516 0)
(0.326613 0.00159894 0)
(0.309863 0.00171953 0)
(0.292017 0.0018193 0)
(0.273387 0.00187947 0)
(0.254233 0.00191327 0)
(0.234868 0.00192282 0)
(0.215557 0.00190377 0)
(0.196576 0.00186281 0)
(0.178158 0.00179285 0)
(0.160465 0.0017139 0)
(0.143665 0.00162425 0)
(0.127824 0.00151961 0)
(0.113004 0.00141704 0)
(0.0992484 0.00131263 0)
(0.0865194 0.00121219 0)
(0.0748295 0.00110542 0)
(0.0641711 0.00101062 0)
(0.0545236 0.000902174 0)
(0.0459002 0.000805521 0)
(0.038239 0.000708775 0)
(0.0315807 0.000617175 0)
(0.025811 0.000523172 0)
(0.0208926 0.00044601 0)
(0.0167805 0.000373081 0)
(0.0134158 0.000298435 0)
(0.0107388 0.00023241 0)
(0.00872967 0.000171854 0)
(0.00727594 0.00011691 0)
(0.00634252 7.48274e-05 0)
(0.00586699 2.34774e-05 0)
(0.00585077 -2.42273e-05 0)
(0.0062939 -6.6421e-05 0)
(0.00721213 -0.000109405 0)
(0.00862332 -0.000165881 0)
(0.010526 -0.000216324 0)
(0.0129399 -0.000264295 0)
(0.015829 -0.000301318 0)
(0.0191198 -0.000340937 0)
(0.0227839 -0.00037819 0)
(0.0267599 -0.000408261 0)
(0.0310312 -0.000434463 0)
(0.0355717 -0.000463729 0)
(0.0403682 -0.000486109 0)
(0.0454163 -0.000513149 0)
(0.050722 -0.000540733 0)
(0.0562942 -0.000571119 0)
(0.0622475 -0.000605869 0)
(0.0686031 -0.000663808 0)
(0.0755148 -0.000715259 0)
(0.0830683 -0.000777819 0)
(0.0912818 -0.000848355 0)
(0.100184 -0.000921754 0)
(0.109777 -0.000986013 0)
(0.120062 -0.00104347 0)
(0.130975 -0.00111688 0)
(0.142516 -0.00117254 0)
(0.154683 -0.00123335 0)
(0.167451 -0.00129756 0)
(0.180817 -0.00135873 0)
(0.194747 -0.00140405 0)
(0.209144 -0.00145173 0)
(0.223922 -0.00148137 0)
(0.238952 -0.00149237 0)
(0.254062 -0.00149425 0)
(0.269084 -0.00148078 0)
(0.283827 -0.00143975 0)
(0.29807 -0.00138298 0)
(0.3116 -0.00129383 0)
(0.324165 -0.00118836 0)
(0.335503 -0.00106556 0)
(0.345381 -0.000910682 0)
(0.353571 -0.000732789 0)
(0.3599 -0.000536819 0)
(0.36421 -0.000318211 0)
(0.366353 -9.55148e-05 0)
(0.366333 0.000141729 0)
(0.364139 0.000397713 0)
(0.359658 0.000630247 0)
(0.352947 0.000839544 0)
(0.344103 0.0010311 0)
(0.333452 0.00119047 0)
(0.321321 0.00131514 0)
(0.30807 0.00140387 0)
(0.293982 0.00146118 0)
(0.279511 0.00148867 0)
(0.264848 0.00148944 0)
(0.250385 0.00146459 0)
(0.236475 0.00142886 0)
(0.223177 0.00137451 0)
(0.210475 0.0013078 0)
(0.198456 0.00124011 0)
(0.187044 0.00117614 0)
(0.176231 0.00111421 0)
(0.16597 0.00106559 0)
(0.155979 0.00102755 0)
(0.146372 0.000995086 0)
(0.136906 0.000974213 0)
(0.127575 0.000953224 0)
(0.118422 0.000934145 0)
(0.109361 0.000912842 0)
(0.100531 0.000882701 0)
(0.0920251 0.000840525 0)
(0.0839226 0.000794237 0)
(0.0763238 0.000736074 0)
(0.0693181 0.000671988 0)
(0.0629687 0.000603133 0)
(0.057299 0.000534023 0)
(0.0523361 0.00046247 0)
(0.0480712 0.000393645 0)
(0.0444753 0.000327021 0)
(0.0415271 0.000265102 0)
(0.0391673 0.000208051 0)
(0.0373526 0.000155133 0)
(0.0360359 0.000107816 0)
(0.035151 6.57322e-05 0)
(0.0346471 2.77727e-05 0)
(0.0345019 -4.98018e-06 0)
(0.0346944 -3.39125e-05 0)
(0.0351787 -5.94344e-05 0)
(0.0359067 -8.20025e-05 0)
(0.0368597 -0.000103962 0)
(0.0380268 -0.000125392 0)
(0.0394162 -0.000147693 0)
(0.0410501 -0.000173996 0)
(0.0429628 -0.000203422 0)
(0.0452067 -0.000239839 0)
(0.0478394 -0.000282208 0)
(0.0509355 -0.000331222 0)
(0.0545792 -0.000390276 0)
(0.0588395 -0.000455547 0)
(0.0637982 -0.000527115 0)
(0.0695365 -0.000609688 0)
(0.0761101 -0.000693427 0)
(0.0835699 -0.000787467 0)
(0.0919489 -0.000878323 0)
(0.101266 -0.00096803 0)
(0.111532 -0.00106843 0)
(0.12273 -0.00115594 0)
(0.134825 -0.00123633 0)
(0.147772 -0.00132833 0)
(0.161511 -0.00139717 0)
(0.175955 -0.00145383 0)
(0.191013 -0.00152355 0)
(0.206582 -0.00155981 0)
(0.222547 -0.00160809 0)
(0.238784 -0.00161981 0)
(0.255141 -0.00161381 0)
(0.271466 -0.00161929 0)
(0.287606 -0.00158365 0)
(0.303379 -0.00152859 0)
(0.3186 -0.00147976 0)
(0.333088 -0.0013898 0)
(0.346652 -0.0013003 0)
(0.359109 -0.00117467 0)
(0.370267 -0.00103258 0)
(0.379954 -0.000884755 0)
(0.388015 -0.000713592 0)
(0.394313 -0.000532091 0)
(0.398732 -0.000345444 0)
(0.401211 -0.000143085 0)
(0.401627 5.18547e-05 0)
(0.400201 0.000250968 0)
(0.39669 0.000446145 0)
(0.391297 0.000623822 0)
(0.384119 0.000796247 0)
(0.374106 0.000955012 0)
(0.138755 -0.00413857 0)
(0.151206 -0.00439054 0)
(0.166227 -0.00456615 0)
(0.18188 -0.00470773 0)
(0.198044 -0.00488878 0)
(0.214585 -0.00494533 0)
(0.231328 -0.00502868 0)
(0.248077 -0.00496801 0)
(0.264603 -0.00483508 0)
(0.280673 -0.0047142 0)
(0.296051 -0.00444491 0)
(0.310489 -0.00410573 0)
(0.323756 -0.00376117 0)
(0.335629 -0.00329818 0)
(0.345912 -0.00281855 0)
(0.354423 -0.00225548 0)
(0.361013 -0.00165866 0)
(0.365578 -0.00104013 0)
(0.368022 -0.000389137 0)
(0.368297 0.000225638 0)
(0.366472 0.00087275 0)
(0.362379 0.00151932 0)
(0.356265 0.0021365 0)
(0.348178 0.0026839 0)
(0.338255 0.00322524 0)
(0.326659 0.00365492 0)
(0.313591 0.00408145 0)
(0.299247 0.00446541 0)
(0.283843 0.00468594 0)
(0.267633 0.0049225 0)
(0.250831 0.00510529 0)
(0.233651 0.00512211 0)
(0.216321 0.00516788 0)
(0.199045 0.00507246 0)
(0.182013 0.00500273 0)
(0.165382 0.00488854 0)
(0.149289 0.00467078 0)
(0.133867 0.00447456 0)
(0.119209 0.00424957 0)
(0.105395 0.00396488 0)
(0.0924854 0.00370036 0)
(0.0805224 0.00339994 0)
(0.0695288 0.00311908 0)
(0.0595053 0.0028357 0)
(0.050448 0.00254406 0)
(0.0423429 0.00226989 0)
(0.0351467 0.0020078 0)
(0.0288226 0.00174789 0)
(0.0233364 0.00151702 0)
(0.0186159 0.00129689 0)
(0.0145995 0.00109812 0)
(0.0112203 0.000913923 0)
(0.00842768 0.000747614 0)
(0.00619865 0.000605723 0)
(0.00443538 0.000471345 0)
(0.0030687 0.000348109 0)
(0.00209905 0.000253804 0)
(0.00141919 0.000162464 0)
(0.00106817 5.94182e-05 0)
(0.000960179 -1.44719e-05 0)
(0.00111338 -0.000104787 0)
(0.0016489 -0.000190471 0)
(0.00241377 -0.000274117 0)
(0.00348937 -0.000379693 0)
(0.00498705 -0.000492914 0)
(0.0068076 -0.000590132 0)
(0.00901279 -0.000722822 0)
(0.0116922 -0.000838311 0)
(0.0147388 -0.000964509 0)
(0.0182539 -0.00109061 0)
(0.0221951 -0.00120259 0)
(0.0264989 -0.00130582 0)
(0.0311498 -0.00140722 0)
(0.0361687 -0.001497 0)
(0.0414263 -0.00157282 0)
(0.0470404 -0.00168719 0)
(0.0530385 -0.00176023 0)
(0.0593261 -0.00189895 0)
(0.066315 -0.00208576 0)
(0.073951 -0.0022394 0)
(0.0821724 -0.00244476 0)
(0.0913516 -0.0026923 0)
(0.101395 -0.00292628 0)
(0.112337 -0.00319382 0)
(0.124285 -0.00345394 0)
(0.137126 -0.0037018 0)
(0.150813 -0.00390858 0)
(0.16517 -0.0040704 0)
(0.180025 -0.00417688 0)
(0.195151 -0.00421857 0)
(0.210347 -0.00418735 0)
(0.225276 -0.0040895 0)
(0.239691 -0.00391642 0)
(0.253285 -0.00368971 0)
(0.265778 -0.00336069 0)
(0.276904 -0.00300086 0)
(0.286487 -0.00256575 0)
(0.294447 -0.00208533 0)
(0.300646 -0.00157813 0)
(0.305011 -0.00104118 0)
(0.307507 -0.000471299 0)
(0.30813 7.24583e-05 0)
(0.306882 0.000652053 0)
(0.303684 0.00122061 0)
(0.298701 0.00173215 0)
(0.29199 0.00224539 0)
(0.283681 0.00270439 0)
(0.273863 0.00312412 0)
(0.262707 0.00349051 0)
(0.250399 0.0038131 0)
(0.237094 0.00408071 0)
(0.223006 0.00430568 0)
(0.208304 0.00445929 0)
(0.193149 0.00455235 0)
(0.177767 0.00459602 0)
(0.162295 0.0045937 0)
(0.146894 0.00455911 0)
(0.131774 0.00444494 0)
(0.117001 0.0043256 0)
(0.102716 0.00416602 0)
(0.089057 0.00396724 0)
(0.0760569 0.00375549 0)
(0.063811 0.0035345 0)
(0.0523445 0.00329812 0)
(0.0416759 0.0030492 0)
(0.0317917 0.00281627 0)
(0.0227228 0.00259515 0)
(0.0144148 0.0023513 0)
(0.00685788 0.00212215 0)
(9.6159e-05 0.00193438 0)
(-0.00597449 0.00169529 0)
(-0.0113667 0.00150502 0)
(-0.0161014 0.00131012 0)
(-0.0202176 0.00112999 0)
(-0.023718 0.000954971 0)
(-0.0266317 0.000779416 0)
(-0.0289798 0.000611581 0)
(-0.0307953 0.000451827 0)
(-0.0320826 0.000298103 0)
(-0.0328657 0.000158475 0)
(-0.0331698 1.67472e-05 0)
(-0.0330078 -0.000124533 0)
(-0.0323854 -0.000253172 0)
(-0.0313282 -0.00038227 0)
(-0.0298253 -0.000519689 0)
(-0.0278725 -0.000651121 0)
(-0.0254509 -0.000793639 0)
(-0.0225761 -0.000925563 0)
(-0.0192354 -0.00106442 0)
(-0.0154245 -0.00120633 0)
(-0.0111293 -0.00135615 0)
(-0.00631153 -0.00151996 0)
(-0.00091994 -0.00169638 0)
(0.00508625 -0.00186816 0)
(0.0117507 -0.00208784 0)
(0.0191416 -0.00230559 0)
(0.0272951 -0.00255442 0)
(0.0362963 -0.00279468 0)
(0.046129 -0.00305599 0)
(0.0568369 -0.00331449 0)
(0.0684249 -0.00356358 0)
(0.0808519 -0.00382982 0)
(0.0941709 -0.0040656 0)
(0.1083 -0.00431482 0)
(0.123193 -0.00455022 0)
(0.138835 -0.00475459 0)
(0.155133 -0.0049413 0)
(0.172001 -0.00510448 0)
(0.189366 -0.00522968 0)
(0.207098 -0.00531448 0)
(0.225053 -0.00536991 0)
(0.243122 -0.00537251 0)
(0.261115 -0.00531768 0)
(0.278818 -0.00521143 0)
(0.296058 -0.00504541 0)
(0.312633 -0.00479641 0)
(0.328294 -0.00450071 0)
(0.342819 -0.00412154 0)
(0.355947 -0.00367432 0)
(0.367442 -0.00314578 0)
(0.37704 -0.00254245 0)
(0.384504 -0.0018842 0)
(0.389653 -0.00115258 0)
(0.392286 -0.000414654 0)
(0.392449 0.000305957 0)
(0.389983 0.00111349 0)
(0.384858 0.00188545 0)
(0.377396 0.00258178 0)
(0.367628 0.00323013 0)
(0.355755 0.00382384 0)
(0.341997 0.00436009 0)
(0.326598 0.00479876 0)
(0.309834 0.00516984 0)
(0.291972 0.00544274 0)
(0.273324 0.00564543 0)
(0.254151 0.00575255 0)
(0.234762 0.00577499 0)
(0.215435 0.00571628 0)
(0.196436 0.00557957 0)
(0.178005 0.0053882 0)
(0.160302 0.00514271 0)
(0.143485 0.00486392 0)
(0.127655 0.00456863 0)
(0.112834 0.0042561 0)
(0.099065 0.00393915 0)
(0.0863345 0.00363126 0)
(0.0746458 0.00332217 0)
(0.0639829 0.00301298 0)
(0.054343 0.00271661 0)
(0.0457142 0.00241905 0)
(0.0380574 0.0021249 0)
(0.0313791 0.00184318 0)
(0.025629 0.00159302 0)
(0.0207061 0.0013382 0)
(0.0165988 0.00111117 0)
(0.0132388 0.000896415 0)
(0.0105708 0.000694602 0)
(0.00854963 0.000511041 0)
(0.00710102 0.000352886 0)
(0.00616262 0.000200801 0)
(0.00571038 7.24574e-05 0)
(0.00569741 -5.87205e-05 0)
(0.00613017 -0.000198722 0)
(0.00704471 -0.000345194 0)
(0.00846346 -0.0004815 0)
(0.0103768 -0.000636983 0)
(0.0128016 -0.000779526 0)
(0.0156765 -0.000918628 0)
(0.018978 -0.00102923 0)
(0.0226404 -0.00113107 0)
(0.0266065 -0.00122703 0)
(0.0308991 -0.0013083 0)
(0.035447 -0.00138556 0)
(0.0402269 -0.00146926 0)
(0.0452924 -0.00153298 0)
(0.0505902 -0.00161583 0)
(0.0561669 -0.00171377 0)
(0.0621145 -0.00182913 0)
(0.0684955 -0.00196923 0)
(0.0753935 -0.00215675 0)
(0.0829316 -0.00234339 0)
(0.0911585 -0.00254647 0)
(0.100076 -0.00274579 0)
(0.10967 -0.00296185 0)
(0.119945 -0.00315353 0)
(0.130876 -0.00333655 0)
(0.142411 -0.00352534 0)
(0.154579 -0.00370828 0)
(0.167347 -0.00389559 0)
(0.180735 -0.00405703 0)
(0.194663 -0.00422442 0)
(0.209075 -0.00434084 0)
(0.223857 -0.00443883 0)
(0.238881 -0.00449158 0)
(0.254004 -0.00449294 0)
(0.269053 -0.00443065 0)
(0.283802 -0.00431938 0)
(0.298054 -0.00414366 0)
(0.311579 -0.00390091 0)
(0.324159 -0.00357346 0)
(0.335514 -0.00318013 0)
(0.345391 -0.00272866 0)
(0.35359 -0.00220628 0)
(0.359932 -0.00160553 0)
(0.364239 -0.000969803 0)
(0.3664 -0.000278157 0)
(0.366377 0.000432097 0)
(0.364158 0.00119061 0)
(0.359694 0.00189521 0)
(0.352971 0.00252622 0)
(0.344119 0.00309485 0)
(0.333468 0.00356853 0)
(0.321326 0.00393918 0)
(0.308066 0.00421463 0)
(0.29397 0.00438329 0)
(0.279496 0.00446378 0)
(0.264827 0.0044717 0)
(0.250355 0.00439799 0)
(0.236432 0.00428367 0)
(0.223126 0.00412381 0)
(0.210414 0.00392606 0)
(0.198386 0.00372222 0)
(0.186964 0.003529 0)
(0.176144 0.00334306 0)
(0.165881 0.00319818 0)
(0.155886 0.00308143 0)
(0.146279 0.00298513 0)
(0.136815 0.00292161 0)
(0.127488 0.00285939 0)
(0.118339 0.00280093 0)
(0.109283 0.00273913 0)
(0.100458 0.00264493 0)
(0.0919574 0.00252369 0)
(0.0838598 0.00237914 0)
(0.0762661 0.00220937 0)
(0.0692652 0.00201402 0)
(0.0629206 0.0018111 0)
(0.0572555 0.00159895 0)
(0.0522966 0.00138538 0)
(0.0480356 0.00117999 0)
(0.0444433 0.000980559 0)
(0.0414984 0.000794736 0)
(0.0391417 0.000623759 0)
(0.0373299 0.000465386 0)
(0.0360155 0.000322937 0)
(0.0351331 0.000196912 0)
(0.0346313 8.32879e-05 0)
(0.034488 -1.48595e-05 0)
(0.0346823 -0.000101697 0)
(0.0351677 -0.000178144 0)
(0.0358966 -0.00024587 0)
(0.0368499 -0.000311638 0)
(0.0380168 -0.0003759 0)
(0.0394054 -0.000442704 0)
(0.0410379 -0.000521375 0)
(0.0429487 -0.000609916 0)
(0.0451899 -0.000719072 0)
(0.0478198 -0.000846018 0)
(0.0509128 -0.000993228 0)
(0.0545531 -0.00117035 0)
(0.0588103 -0.00136616 0)
(0.0637664 -0.00158099 0)
(0.0695018 -0.00182875 0)
(0.0760735 -0.00208003 0)
(0.0835316 -0.00236221 0)
(0.0919098 -0.00263481 0)
(0.101227 -0.00290406 0)
(0.111493 -0.00320533 0)
(0.122693 -0.00346798 0)
(0.13479 -0.00370918 0)
(0.147739 -0.00398517 0)
(0.161482 -0.00419186 0)
(0.175929 -0.00436183 0)
(0.190991 -0.00457111 0)
(0.206565 -0.0046799 0)
(0.222534 -0.00482477 0)
(0.238778 -0.00486 0)
(0.255141 -0.00484204 0)
(0.271472 -0.00485859 0)
(0.287619 -0.00475166 0)
(0.303399 -0.0045865 0)
(0.318628 -0.00444009 0)
(0.333123 -0.00417018 0)
(0.346696 -0.00390167 0)
(0.359159 -0.00352475 0)
(0.370324 -0.00309842 0)
(0.380018 -0.00265485 0)
(0.388084 -0.00214128 0)
(0.394386 -0.00159665 0)
(0.398809 -0.00103377 0)
(0.401279 -0.000440233 0)
(0.401724 0.000165234 0)
(0.400274 0.000752658 0)
(0.396764 0.00133814 0)
(0.391367 0.00187183 0)
(0.384184 0.00238929 0)
(0.374165 0.0028657 0)
(0.138697 -0.00689801 0)
(0.15115 -0.00731837 0)
(0.166177 -0.00761147 0)
(0.181839 -0.00784789 0)
(0.198014 -0.00815013 0)
(0.214569 -0.00824469 0)
(0.231328 -0.00838401 0)
(0.248094 -0.0082831 0)
(0.264638 -0.00806163 0)
(0.280728 -0.00786029 0)
(0.296124 -0.0074113 0)
(0.31058 -0.00684583 0)
(0.323866 -0.00627144 0)
(0.335754 -0.00549946 0)
(0.346053 -0.00469979 0)
(0.354574 -0.00376094 0)
(0.361173 -0.00276574 0)
(0.365744 -0.00173484 0)
(0.36819 -0.000661391 0)
(0.368485 0.000387459 0)
(0.366628 0.00145853 0)
(0.362542 0.00253274 0)
(0.356422 0.00356232 0)
(0.348322 0.0044751 0)
(0.338387 0.00537781 0)
(0.326774 0.00609414 0)
(0.31369 0.00680524 0)
(0.29933 0.00744538 0)
(0.283907 0.0078129 0)
(0.267679 0.00820714 0)
(0.250859 0.00851177 0)
(0.233662 0.00853956 0)
(0.216317 0.00861565 0)
(0.199027 0.00845632 0)
(0.181981 0.00833992 0)
(0.165339 0.0081493 0)
(0.149237 0.00778606 0)
(0.133806 0.00745876 0)
(0.119142 0.00708351 0)
(0.105324 0.00660878 0)
(0.0924109 0.00616765 0)
(0.0804468 0.00566672 0)
(0.0694522 0.00519846 0)
(0.0594293 0.004726 0)
(0.0503741 0.00423962 0)
(0.0422712 0.00378289 0)
(0.0350778 0.00334529 0)
(0.0287583 0.00291304 0)
(0.0232765 0.00252837 0)
(0.0185606 0.00216051 0)
(0.0145492 0.0018289 0)
(0.0111742 0.00152211 0)
(0.00838758 0.0012453 0)
(0.00616238 0.00100929 0)
(0.00440219 0.000784788 0)
(0.00304143 0.000580127 0)
(0.0020753 0.000422202 0)
(0.00139573 0.000270062 0)
(0.00104784 9.96845e-05 0)
(0.00094213 -2.43926e-05 0)
(0.00109567 -0.00017413 0)
(0.00163033 -0.000317313 0)
(0.00239393 -0.000456357 0)
(0.00346928 -0.000632019 0)
(0.00496481 -0.000821052 0)
(0.00678533 -0.000982931 0)
(0.00898959 -0.00120552 0)
(0.0116714 -0.0013983 0)
(0.0147244 -0.00160446 0)
(0.0182424 -0.00181943 0)
(0.0221929 -0.00200586 0)
(0.0265085 -0.00217887 0)
(0.0311774 -0.00235046 0)
(0.0362098 -0.00250313 0)
(0.0414998 -0.00262064 0)
(0.0471264 -0.00281654 0)
(0.0531509 -0.00294038 0)
(0.0594545 -0.00316764 0)
(0.066466 -0.0034827 0)
(0.0741409 -0.00372953 0)
(0.0823752 -0.00408116 0)
(0.0915867 -0.00450127 0)
(0.101669 -0.00488443 0)
(0.112635 -0.00533566 0)
(0.124615 -0.00576506 0)
(0.137489 -0.00617287 0)
(0.1512 -0.00651488 0)
(0.165573 -0.0067923 0)
(0.180456 -0.00696023 0)
(0.1956 -0.00704343 0)
(0.210813 -0.00698467 0)
(0.225753 -0.00682417 0)
(0.240188 -0.00653052 0)
(0.253797 -0.00614535 0)
(0.266298 -0.0056055 0)
(0.277429 -0.00499708 0)
(0.28703 -0.00427355 0)
(0.294992 -0.00348598 0)
(0.301207 -0.00262457 0)
(0.305574 -0.00172841 0)
(0.308075 -0.000778739 0)
(0.308692 0.000124634 0)
(0.307412 0.00108806 0)
(0.304222 0.00202541 0)
(0.299239 0.0028962 0)
(0.292521 0.00374744 0)
(0.284203 0.00450599 0)
(0.274373 0.00522101 0)
(0.263215 0.00582438 0)
(0.250894 0.00636441 0)
(0.237562 0.00680619 0)
(0.223451 0.00717005 0)
(0.208735 0.00743127 0)
(0.193574 0.0075937 0)
(0.178183 0.0076642 0)
(0.162698 0.00765731 0)
(0.147292 0.00759972 0)
(0.132164 0.00742706 0)
(0.117385 0.00721935 0)
(0.103098 0.00695488 0)
(0.0894334 0.00660926 0)
(0.0764346 0.0062633 0)
(0.064178 0.00589659 0)
(0.0527222 0.00549447 0)
(0.0420534 0.00510053 0)
(0.0321675 0.00468998 0)
(0.0230937 0.00432124 0)
(0.0147837 0.00392217 0)
(0.00722896 0.00355343 0)
(0.000459295 0.00320039 0)
(-0.0056123 0.002841 0)
(-0.0109981 0.00251939 0)
(-0.015746 0.00219069 0)
(-0.0198774 0.00187796 0)
(-0.0234001 0.00159339 0)
(-0.0263367 0.00129776 0)
(-0.0287002 0.00101604 0)
(-0.0305217 0.000768844 0)
(-0.0318339 0.000501297 0)
(-0.0326545 0.000257137 0)
(-0.0329846 3.20694e-05 0)
(-0.0328452 -0.00018146 0)
(-0.0322681 -0.000426167 0)
(-0.0312466 -0.000637821 0)
(-0.0297736 -0.000857861 0)
(-0.0278504 -0.00107409 0)
(-0.0254628 -0.00131527 0)
(-0.0226192 -0.00154272 0)
(-0.0193103 -0.00177285 0)
(-0.0155351 -0.00200542 0)
(-0.0112782 -0.00225634 0)
(-0.00648858 -0.00252336 0)
(-0.00112238 -0.00281757 0)
(0.00485538 -0.00311353 0)
(0.0114774 -0.00348587 0)
(0.0188456 -0.00384067 0)
(0.0269799 -0.004251 0)
(0.0359632 -0.0046539 0)
(0.0457782 -0.00508987 0)
(0.0564834 -0.00550925 0)
(0.0680566 -0.00594414 0)
(0.0804925 -0.00637814 0)
(0.0937975 -0.00679551 0)
(0.107939 -0.00719597 0)
(0.122855 -0.00757577 0)
(0.138494 -0.0079288 0)
(0.154798 -0.00823496 0)
(0.171682 -0.0085109 0)
(0.189052 -0.00871784 0)
(0.206787 -0.00887332 0)
(0.224763 -0.00896435 0)
(0.242858 -0.00896723 0)
(0.260881 -0.00886768 0)
(0.278614 -0.0086978 0)
(0.295893 -0.00839791 0)
(0.312484 -0.00801761 0)
(0.328175 -0.00750585 0)
(0.342727 -0.00687182 0)
(0.355879 -0.00612628 0)
(0.367394 -0.00524823 0)
(0.377009 -0.00424271 0)
(0.38449 -0.003139 0)
(0.389649 -0.00194568 0)
(0.39232 -0.000694895 0)
(0.392478 0.000534452 0)
(0.389965 0.00186546 0)
(0.384859 0.00313239 0)
(0.377398 0.00430141 0)
(0.367617 0.00539448 0)
(0.355723 0.00638527 0)
(0.341931 0.00725688 0)
(0.326511 0.00800494 0)
(0.309728 0.00861922 0)
(0.291839 0.00908561 0)
(0.273157 0.00941146 0)
(0.253951 0.0095902 0)
(0.234535 0.00962742 0)
(0.215188 0.009531 0)
(0.196162 0.00930405 0)
(0.177701 0.00897655 0)
(0.159995 0.00857955 0)
(0.143175 0.00810779 0)
(0.127336 0.00760596 0)
(0.112516 0.00708809 0)
(0.0987476 0.00656675 0)
(0.086015 0.0060535 0)
(0.0743185 0.00553063 0)
(0.0636621 0.00503485 0)
(0.0540049 0.00451844 0)
(0.0453713 0.00403158 0)
(0.0377231 0.00354602 0)
(0.0310464 0.00307386 0)
(0.025294 0.0026437 0)
(0.0203898 0.00222957 0)
(0.0162895 0.00185251 0)
(0.0129299 0.00148959 0)
(0.0102713 0.00116003 0)
(0.00825695 0.000852849 0)
(0.00681631 0.00058941 0)
(0.00588907 0.000347425 0)
(0.00542996 0.000117504 0)
(0.00541378 -0.000108479 0)
(0.00584937 -0.000328296 0)
(0.0067612 -0.000568281 0)
(0.00817129 -0.000821825 0)
(0.0100999 -0.00106597 0)
(0.0125355 -0.00130501 0)
(0.0154221 -0.00152123 0)
(0.0187211 -0.00171851 0)
(0.0223795 -0.00189091 0)
(0.0263571 -0.00204216 0)
(0.0306462 -0.00218282 0)
(0.0351978 -0.00231327 0)
(0.0399942 -0.00244357 0)
(0.0450499 -0.00256647 0)
(0.0503436 -0.00269903 0)
(0.0559231 -0.00285627 0)
(0.0618729 -0.00304323 0)
(0.0682353 -0.00329695 0)
(0.0751445 -0.00357846 0)
(0.0826767 -0.00390576 0)
(0.0908862 -0.00425708 0)
(0.0998067 -0.00459062 0)
(0.109418 -0.00492922 0)
(0.119698 -0.00525718 0)
(0.130625 -0.00556867 0)
(0.142178 -0.00586805 0)
(0.154333 -0.00618776 0)
(0.167108 -0.00648393 0)
(0.180486 -0.00678789 0)
(0.194433 -0.00702968 0)
(0.208853 -0.00724908 0)
(0.223647 -0.00740393 0)
(0.23869 -0.00747964 0)
(0.253826 -0.0074859 0)
(0.268883 -0.00740082 0)
(0.283657 -0.00720632 0)
(0.297935 -0.00690656 0)
(0.311484 -0.00649066 0)
(0.324071 -0.00596318 0)
(0.335441 -0.00531297 0)
(0.345343 -0.00454869 0)
(0.353562 -0.00367585 0)
(0.359917 -0.00268689 0)
(0.364247 -0.00160921 0)
(0.366421 -0.00046593 0)
(0.366377 0.000720327 0)
(0.364152 0.00198891 0)
(0.359704 0.00315475 0)
(0.352977 0.00420913 0)
(0.344119 0.00515841 0)
(0.33346 0.00595166 0)
(0.321314 0.0065729 0)
(0.308047 0.00702543 0)
(0.293943 0.00730751 0)
(0.279459 0.00744244 0)
(0.264776 0.00745313 0)
(0.250294 0.00733086 0)
(0.236365 0.00714542 0)
(0.223043 0.00687633 0)
(0.210316 0.00654512 0)
(0.198276 0.00620622 0)
(0.18684 0.00588474 0)
(0.176008 0.00557319 0)
(0.165739 0.00533061 0)
(0.155739 0.00513731 0)
(0.146129 0.00497486 0)
(0.136667 0.00486898 0)
(0.127341 0.00476414 0)
(0.1182 0.0046672 0)
(0.109149 0.00456283 0)
(0.10033 0.00440824 0)
(0.0918367 0.00420261 0)
(0.0837465 0.00396553 0)
(0.07616 0.00367943 0)
(0.0691677 0.00335605 0)
(0.0628302 0.00301534 0)
(0.0571727 0.00266642 0)
(0.052222 0.00230884 0)
(0.0479681 0.00196585 0)
(0.0443827 0.0016333 0)
(0.041444 0.00132361 0)
(0.0390932 0.00103879 0)
(0.0372867 0.00077482 0)
(0.0359775 0.000537663 0)
(0.0350997 0.00032761 0)
(0.034602 0.000138416 0)
(0.0344625 -2.53889e-05 0)
(0.0346605 -0.000169932 0)
(0.0351482 -0.000296949 0)
(0.0358787 -0.000409612 0)
(0.0368328 -0.000518873 0)
(0.0379994 -0.000625735 0)
(0.0393865 -0.000737013 0)
(0.041016 -0.000867898 0)
(0.0429229 -0.00101559 0)
(0.045159 -0.00119724 0)
(0.0477833 -0.00140863 0)
(0.0508703 -0.00165417 0)
(0.054504 -0.00194935 0)
(0.0587551 -0.00227569 0)
(0.0637057 -0.00263401 0)
(0.0694357 -0.00304708 0)
(0.0760038 -0.00346608 0)
(0.0834584 -0.00393659 0)
(0.0918353 -0.00439115 0)
(0.101153 -0.00484016 0)
(0.111419 -0.00534252 0)
(0.122622 -0.00578053 0)
(0.134723 -0.00618271 0)
(0.147676 -0.00664285 0)
(0.161426 -0.00698756 0)
(0.175881 -0.00727099 0)
(0.19095 -0.00762 0)
(0.206534 -0.00780144 0)
(0.222513 -0.00804303 0)
(0.238768 -0.00810191 0)
(0.255143 -0.0080721 0)
(0.271487 -0.00809991 0)
(0.287648 -0.00792177 0)
(0.303441 -0.00764654 0)
(0.318686 -0.00740265 0)
(0.333195 -0.00695275 0)
(0.346785 -0.00650527 0)
(0.359261 -0.00587693 0)
(0.370439 -0.00516618 0)
(0.380147 -0.00442667 0)
(0.388223 -0.00357039 0)
(0.394533 -0.0026621 0)
(0.398962 -0.00172066 0)
(0.401436 -0.00072972 0)
(0.401894 0.000269382 0)
(0.400422 0.00125379 0)
(0.396912 0.00222953 0)
(0.391506 0.00312105 0)
(0.384314 0.00398407 0)
(0.374281 0.00477847 0)
(0.138611 -0.00965801 0)
(0.151066 -0.0102474 0)
(0.166103 -0.0106586 0)
(0.181779 -0.0109905 0)
(0.197969 -0.0114147 0)
(0.214545 -0.0115478 0)
(0.231327 -0.0117438 0)
(0.24812 -0.0116028 0)
(0.26469 -0.0112929 0)
(0.280811 -0.0110112 0)
(0.296234 -0.0103824 0)
(0.310716 -0.00959035 0)
(0.324031 -0.00878594 0)
(0.335941 -0.0077045 0)
(0.346265 -0.00658432 0)
(0.354802 -0.00526911 0)
(0.361413 -0.00387503 0)
(0.365995 -0.00243298 0)
(0.368455 -0.000932588 0)
(0.368749 0.000550595 0)
(0.366866 0.00205057 0)
(0.362787 0.00354733 0)
(0.356657 0.00499046 0)
(0.348537 0.00626919 0)
(0.338585 0.00753396 0)
(0.326946 0.00853717 0)
(0.31384 0.00953323 0)
(0.299454 0.0104299 0)
(0.284002 0.0109443 0)
(0.267747 0.0114962 0)
(0.250901 0.0119226 0)
(0.233679 0.011961 0)
(0.21631 0.0120672 0)
(0.198999 0.0118435 0)
(0.181933 0.0116802 0)
(0.165273 0.0114127 0)
(0.149159 0.0109035 0)
(0.133715 0.0104446 0)
(0.119041 0.00991884 0)
(0.105217 0.00925366 0)
(0.092299 0.00863554 0)
(0.0803335 0.00793374 0)
(0.0693373 0.00727778 0)
(0.0593151 0.00661609 0)
(0.0502632 0.00593443 0)
(0.0421635 0.00529563 0)
(0.0349745 0.004681 0)
(0.0286619 0.0040792 0)
(0.0231866 0.00353848 0)
(0.0184775 0.0030238 0)
(0.0144738 0.00255694 0)
(0.0111053 0.00212892 0)
(0.00832742 0.00174206 0)
(0.00610793 0.00141146 0)
(0.00435241 0.00109763 0)
(0.00300036 0.000813183 0)
(0.00203945 0.000587831 0)
(0.0013607 0.000375262 0)
(0.00101698 0.000139833 0)
(0.000914945 -3.47125e-05 0)
(0.00106873 -0.000243633 0)
(0.00160245 -0.000443687 0)
(0.00236389 -0.000638427 0)
(0.00343752 -0.000884604 0)
(0.00493075 -0.0011489 0)
(0.00675086 -0.00137615 0)
(0.00895525 -0.00168788 0)
(0.0116382 -0.00195818 0)
(0.0146968 -0.0022503 0)
(0.0182257 -0.00254935 0)
(0.0221884 -0.00281267 0)
(0.026523 -0.00305613 0)
(0.0312242 -0.00329651 0)
(0.0362761 -0.00350851 0)
(0.0415994 -0.00368093 0)
(0.0472512 -0.00394967 0)
(0.0533085 -0.00412161 0)
(0.0596328 -0.00444339 0)
(0.0666824 -0.0048828 0)
(0.0744019 -0.00523524 0)
(0.0826764 -0.00572498 0)
(0.0919354 -0.00631426 0)
(0.102068 -0.00685313 0)
(0.113084 -0.0074778 0)
(0.125106 -0.00807859 0)