/*--------------------------------*- C++ -*----------------------------------*\
| =========                 |                                                 |
| \\      /  F ield         | OpenFOAM: The Open Source CFD Toolbox           |
|  \\    /   O peration     | Version:  3.0.1                                 |
|   \\  /    A nd           | Web:      www.OpenFOAM.org                      |
|    \\/     M anipulation  |                                                 |
\*---------------------------------------------------------------------------*/
FoamFile
{
    version     2.0;
    format      ascii;
    class       surfaceScalarField;
    location    "16.8";
    object      phi;
}
// * * * * * * * * * * * * * * * * * * * * * * * * * * * * * * * * * * * * * //

dimensions      [0 3 -1 0 0 0 0];

internalField   nonuniform List<scalar> 
42423
(
0.000200487
-1.10697e-05
0.000209772
-9.2843e-06
0.000216838
-7.06679e-06
0.000221552
-4.71339e-06
0.000223904
-2.35214e-06
0.000223807
9.73638e-08
0.000221245
2.56199e-06
0.000216125
5.11912e-06
0.000208575
7.55048e-06
0.000198851
9.72362e-06
0.000187054
1.17974e-05
0.000173415
1.36392e-05
0.000158244
1.51709e-05
0.000141612
1.6632e-05
0.000124105
1.75064e-05
0.000105739
1.83661e-05
8.67148e-05
1.90243e-05
6.7581e-05
1.91338e-05
4.83085e-05
1.92725e-05
2.91654e-05
1.91431e-05
1.05591e-05
1.86064e-05
-7.6536e-06
1.82127e-05
-2.51767e-05
1.75231e-05
-4.19015e-05
1.67248e-05
-5.77497e-05
1.58482e-05
-7.26277e-05
1.48781e-05
-8.65399e-05
1.39121e-05
-9.9424e-05
1.28841e-05
-0.000111273
1.18493e-05
-0.000122126
1.08524e-05
-0.000131975
9.84951e-06
-0.000140846
8.87081e-06
-0.000148784
7.93829e-06
-0.000155815
7.03084e-06
-0.000161977
6.16218e-06
-0.000167313
5.33582e-06
-0.000171829
4.51635e-06
-0.000175572
3.74211e-06
-0.000178559
2.98754e-06
-0.000180793
2.23374e-06
-0.000182333
1.54028e-06
-0.000183196
8.62997e-07
-0.000183329
1.33089e-07
-0.000182751
-5.77824e-07
-0.000181383
-1.36881e-06
-0.000179301
-2.08122e-06
-0.000176556
-2.74511e-06
-0.00017294
-3.61629e-06
-0.000168599
-4.34062e-06
-0.000163529
-5.07009e-06
-0.000157451
-6.07808e-06
-0.000150595
-6.85586e-06
-0.00014275
-7.84536e-06
-0.000133891
-8.85932e-06
-0.000124286
-9.60475e-06
-0.000113612
-1.06736e-05
-0.000101802
-1.18103e-05
-8.93049e-05
-1.24973e-05
-7.57003e-05
-1.36046e-05
-6.12292e-05
-1.44711e-05
-4.59131e-05
-1.53162e-05
-2.96776e-05
-1.62355e-05
-1.29598e-05
-1.67178e-05
4.35144e-06
-1.73113e-05
2.21766e-05
-1.78252e-05
4.01178e-05
-1.79413e-05
5.82293e-05
-1.81115e-05
7.62591e-05
-1.80299e-05
9.39938e-05
-1.77347e-05
0.000111338
-1.7344e-05
0.00012801
-1.66721e-05
0.000143764
-1.57544e-05
0.000158439
-1.46746e-05
0.000171764
-1.33252e-05
0.000183619
-1.1855e-05
0.00019368
-1.00614e-05
0.000201958
-8.27751e-06
0.000208135
-6.17778e-06
0.000212133
-3.99777e-06
0.00021394
-1.80695e-06
0.000213388
5.52171e-07
0.000210525
2.86298e-06
0.000205249
5.27557e-06
0.000197723
7.52578e-06
0.000188073
9.65051e-06
0.000176327
1.17461e-05
0.000162847
1.34798e-05
0.000147758
1.50894e-05
0.000131243
1.6515e-05
0.000113644
1.75988e-05
9.51399e-05
1.85039e-05
7.60477e-05
1.90921e-05
5.65692e-05
1.94785e-05
3.69712e-05
1.95979e-05
1.75141e-05
1.94572e-05
-1.62837e-06
1.91424e-05
-2.02389e-05
1.86105e-05
-3.81465e-05
1.79076e-05
-5.5193e-05
1.70465e-05
-7.12333e-05
1.60403e-05
-8.62339e-05
1.50006e-05
-0.000100126
1.38916e-05
-0.000112779
1.26533e-05
-0.000124302
1.1523e-05
-0.00013466
1.03583e-05
-0.000143876
9.21596e-06
-0.000152017
8.14073e-06
-0.00015913
7.11332e-06
-0.00016526
6.12983e-06
-0.000170461
5.20085e-06
-0.000174785
4.32436e-06
-0.000178298
3.51334e-06
-0.000181006
2.70715e-06
-0.000182955
1.94953e-06
-0.000184203
1.24827e-06
-0.000184737
5.33443e-07
-0.000184586
-1.51183e-07
-0.000183803
-7.82601e-07
-0.000182374
-1.42899e-06
-0.000180282
-2.09247e-06
-0.000177544
-2.73764e-06
-0.000174252
-3.29197e-06
-0.000170272
-3.97956e-06
-0.000165686
-4.58607e-06
-0.000160475
-5.21163e-06
-0.00015459
-5.88493e-06
-0.000148008
-6.58171e-06
-0.000140723
-7.28492e-06
-0.000132711
-8.01247e-06
-0.000123903
-8.80755e-06
-0.000114308
-9.59565e-06
-0.000103882
-1.04262e-05
-9.25444e-05
-1.13372e-05
-8.03567e-05
-1.21877e-05
-6.72509e-05
-1.31058e-05
-5.32324e-05
-1.40186e-05
-3.83618e-05
-1.48706e-05
-2.26664e-05
-1.56955e-05
-6.25794e-06
-1.64085e-05
1.07877e-05
-1.70457e-05
2.83339e-05
-1.75462e-05
4.62133e-05
-1.78795e-05
6.42296e-05
-1.80164e-05
8.2197e-05
-1.79674e-05
9.9883e-05
-1.76861e-05
0.000117013
-1.713e-05
0.000133344
-1.63307e-05
0.000148578
-1.52341e-05
0.000162483
-1.39049e-05
0.000174769
-1.22866e-05
0.000185226
-1.04573e-05
0.000193599
-8.37285e-06
0.000199704
-6.10455e-06
0.000203435
-3.7313e-06
0.000204707
-1.27177e-06
0.00020351
1.19639e-06
0.0001998
3.71072e-06
0.000193679
6.12099e-06
0.000185274
8.40433e-06
0.000174826
1.0448e-05
0.000162486
1.23401e-05
0.000148546
1.39397e-05
0.000133264
1.5282e-05
0.000116915
1.63496e-05
9.9744e-05
1.71707e-05
8.20645e-05
1.76795e-05
6.41217e-05
1.79428e-05
4.6101e-05
1.80207e-05
2.82191e-05
1.78819e-05
1.06907e-05
1.75284e-05
-6.34498e-06
1.70357e-05
-2.27804e-05
1.64354e-05
-3.85422e-05
1.57618e-05
-5.35037e-05
1.49615e-05
-6.76581e-05
1.41544e-05
-8.09317e-05
1.32736e-05
-9.33748e-05
1.2443e-05
-0.000104947
1.15725e-05
-0.000115655
1.07073e-05
-0.00012551
9.85546e-06
-0.000134559
9.04895e-06
-0.000142814
8.2555e-06
-0.000150297
7.48259e-06
-0.000157026
6.72908e-06
-0.000163011
5.9846e-06
-0.00016825
5.23916e-06
-0.000172783
4.53342e-06
-0.000176581
3.79766e-06
-0.000179622
3.04076e-06
-0.00018191
2.28808e-06
-0.000183392
1.4824e-06
-0.000184111
7.19239e-07
-0.000184001
-1.10427e-07
-0.00018304
-9.61007e-07
-0.000181248
-1.79197e-06
-0.000178562
-2.6864e-06
-0.000175021
-3.54025e-06
-0.000170646
-4.37572e-06
-0.000165373
-5.27232e-06
-0.000159261
-6.11199e-06
-0.000152308
-6.95336e-06
-0.000144485
-7.82331e-06
-0.000135846
-8.63884e-06
-0.000126414
-9.43152e-06
-0.000116166
-1.02483e-05
-0.000105119
-1.10469e-05
-9.33801e-05
-1.17392e-05
-8.08794e-05
-1.25008e-05
-6.76224e-05
-1.3257e-05
-5.37556e-05
-1.38668e-05
-3.9223e-05
-1.45326e-05
-2.40521e-05
-1.51709e-05
-8.34853e-06
-1.57036e-05
7.81776e-06
-1.61663e-05
2.44138e-05
-1.6596e-05
4.12855e-05
-1.68717e-05
5.83238e-05
-1.70384e-05
7.54146e-05
-1.70908e-05
9.22971e-05
-1.68825e-05
0.000108862
-1.65651e-05
0.000124874
-1.60121e-05
0.000140101
-1.52266e-05
0.000154315
-1.42141e-05
0.000167258
-1.29435e-05
0.000178691
-1.14323e-05
0.000188403
-9.71279e-06
0.000196154
-7.75042e-06
0.000201764
-5.61003e-06
0.000205127
-3.3633e-06
0.000206057
-9.29976e-07
0.000204573
1.48393e-06
0.000200606
3.96712e-06
0.000194245
6.36068e-06
0.00018561
8.63541e-06
0.000174828
1.0782e-05
0.000162138
1.26898e-05
0.000147779
1.43589e-05
0.000131996
1.57835e-05
0.000115061
1.69345e-05
9.72967e-05
1.77646e-05
7.89645e-05
1.83321e-05
6.03575e-05
1.8607e-05
4.17582e-05
1.85993e-05
2.33456e-05
1.84126e-05
5.40116e-06
1.79445e-05
-1.19246e-05
1.73258e-05
-2.84989e-05
1.65743e-05
-4.4214e-05
1.57151e-05
-5.89637e-05
1.47497e-05
-7.27131e-05
1.37494e-05
-8.54292e-05
1.27161e-05
-9.71635e-05
1.17343e-05
-0.000107863
1.06992e-05
-0.000117582
9.71923e-06
-0.000126403
8.82134e-06
-0.000134307
7.90376e-06
-0.000141378
7.07074e-06
-0.000147656
6.27825e-06
-0.00015315
5.49411e-06
-0.000157944
4.79369e-06
-0.00016205
4.10594e-06
-0.000165463
3.41356e-06
-0.000168233
2.76976e-06
-0.000170453
2.21951e-06
-0.000171989
1.53669e-06
-0.000172956
9.67062e-07
-0.000173276
3.19617e-07
-0.000172979
-2.971e-07
-0.000172069
-9.10121e-07
-0.000170411
-1.65817e-06
-0.000168076
-2.33469e-06
-0.000165092
-2.98386e-06
-0.00016125
-3.84176e-06
-0.000156657
-4.59367e-06
-0.000151234
-5.4228e-06
-0.000144874
-6.35948e-06
-0.000137684
-7.19e-06
-0.000129406
-8.27886e-06
-0.000120283
-9.12218e-06
-0.000110096
-1.01878e-05
-9.89002e-05
-1.11955e-05
-8.68295e-05
-1.20707e-05
-7.35654e-05
-1.32641e-05
-5.96442e-05
-1.39213e-05
-4.46575e-05
-1.49868e-05
-2.88953e-05
-1.57622e-05
-1.25453e-05
-1.635e-05
4.56267e-06
-1.7108e-05
2.2062e-05
-1.74994e-05
3.9894e-05
-1.7832e-05
5.79492e-05
-1.80553e-05
7.58748e-05
-1.79256e-05
9.35645e-05
-1.76898e-05
0.000110818
-1.72533e-05
0.000127342
-1.65247e-05
0.000142944
-1.56021e-05
0.000157359
-1.44143e-05
0.000170406
-1.30474e-05
0.000181875
-1.14693e-05
0.000191465
-9.58941e-06
0.000199139
-7.67435e-06
0.000204735
-5.59569e-06
0.000207958
-3.22359e-06
0.000208944
-9.85976e-07
0.000207659
1.28469e-06
0.000203917
3.7418e-06
0.000197993
5.92421e-06
0.000190017
7.97625e-06
0.000180077
9.93962e-06
0.00016839
1.16877e-05
0.000155177
1.32128e-05
0.000140636
1.45412e-05
0.000124982
1.56532e-05
0.000108573
1.64087e-05
9.15741e-05
1.69994e-05
7.42052e-05
1.73689e-05
5.68367e-05
1.73685e-05
3.9537e-05
1.72996e-05
2.24917e-05
1.70453e-05
5.97042e-06
1.65213e-05
-9.98043e-06
1.59508e-05
-2.52517e-05
1.52713e-05
-3.97086e-05
1.44569e-05
-5.32924e-05
1.35838e-05
-6.5936e-05
1.26436e-05
-7.76476e-05
1.17116e-05
-8.84068e-05
1.07592e-05
-9.82099e-05
9.80314e-06
-0.000107093
8.88323e-06
-0.000115069
7.97588e-06
-0.000122171
7.10183e-06
-0.00012843
6.25896e-06
-0.000133874
5.4446e-06
-0.000138557
4.68233e-06
-0.000142493
3.93625e-06
-0.000145702
3.20869e-06
-0.000148236
2.53403e-06
-0.000150092
1.85662e-06
-0.000151295
1.20248e-06
-0.000151889
5.94136e-07
-0.000151793
-9.64001e-08
-0.000150996
-7.96553e-07
-0.000149579
-1.41732e-06
-0.000147475
-2.10337e-06
-0.000144746
-2.72973e-06
-0.000141411
-3.3345e-06
-0.000137415
-3.99627e-06
-0.000132786
-4.62879e-06
-0.000127542
-5.2438e-06
-0.000121612
-5.93029e-06
-0.000115066
-6.5462e-06
-0.000107814
-7.25208e-06
-9.99439e-05
-7.86975e-06
-9.14403e-05
-8.50366e-06
-8.21855e-05
-9.25474e-06
-7.2281e-05
-9.90454e-06
-1.05654e-05
0.000200576
-2.21531e-05
0.000209875
-1.85836e-05
0.000216951
-1.41426e-05
0.000221672
-9.43423e-06
0.000224036
-4.71695e-06
0.000223935
1.98711e-07
0.000221366
5.13125e-06
0.000216242
1.02424e-05
0.000208687
1.51062e-05
0.000198956
1.94538e-05
0.000187149
2.36051e-05
0.000173499
2.7289e-05
0.000158313
3.03565e-05
0.000141672
3.32738e-05
0.000124154
3.50246e-05
0.000105772
3.67481e-05
8.67371e-05
3.80588e-05
6.75926e-05
3.82782e-05
4.83075e-05
3.85577e-05
2.91579e-05
3.82927e-05
1.05429e-05
3.72213e-05
-7.67644e-06
3.6432e-05
-2.52071e-05
3.50538e-05
-4.19365e-05
3.34541e-05
-5.77894e-05
3.17011e-05
-7.26738e-05
2.97625e-05
-8.65872e-05
2.78255e-05
-9.94705e-05
2.57675e-05
-0.000111322
2.3701e-05
-0.000122176
2.17059e-05
-0.000132028
1.97021e-05
-0.0001409
1.77422e-05
-0.000148838
1.58765e-05
-0.000155874
1.40671e-05
-0.000162043
1.2331e-05
-0.000167375
1.06677e-05
-0.000171886
9.0274e-06
-0.000175627
7.48352e-06
-0.000178616
5.97658e-06
-0.000180853
4.47047e-06
-0.000182393
3.07962e-06
-0.000183252
1.7221e-06
-0.000183389
2.70047e-07
-0.00018281
-1.15625e-06
-0.000181447
-2.73193e-06
-0.000179363
-4.16528e-06
-0.000176619
-5.48893e-06
-0.000173007
-7.22853e-06
-0.000168665
-8.68277e-06
-0.000163596
-1.0139e-05
-0.000157522
-1.21524e-05
-0.000150665
-1.37129e-05
-0.000142816
-1.56937e-05
-0.000133965
-1.77113e-05
-0.000124355
-1.92145e-05
-0.000113687
-2.13413e-05
-0.000101869
-2.36285e-05
-8.93709e-05
-2.49955e-05
-7.57676e-05
-2.7208e-05
-6.1285e-05
-2.89538e-05
-4.59674e-05
-3.06339e-05
-2.9741e-05
-3.2462e-05
-1.29963e-05
-3.34626e-05
4.32058e-06
-3.46283e-05
2.21535e-05
-3.56582e-05
4.01149e-05
-3.59028e-05
5.82315e-05
-3.62283e-05
7.62704e-05
-3.60688e-05
9.40239e-05
-3.54883e-05
0.000111382
-3.47019e-05
0.000128064
-3.33545e-05
0.000143835
-3.15255e-05
0.000158517
-2.93571e-05
0.000171861
-2.66685e-05
0.000183731
-2.37254e-05
0.000193792
-2.01223e-05
0.00020209
-1.6576e-05
0.000208273
-1.23602e-05
0.000212265
-7.99054e-06
0.000214098
-3.63967e-06
0.000213539
1.11127e-06
0.000210656
5.74594e-06
0.000205372
1.05588e-05
0.000197837
1.50613e-05
0.000188174
1.93129e-05
0.000176422
2.34989e-05
0.000162925
2.6976e-05
0.000147803
3.02112e-05
0.000131275
3.30431e-05
0.000113665
3.52086e-05
9.51625e-05
3.70068e-05
7.60586e-05
3.81961e-05
5.65511e-05
3.8986e-05
3.69437e-05
3.92053e-05
1.74746e-05
3.89264e-05
-1.68318e-06
3.83002e-05
-2.03096e-05
3.72369e-05
-3.82277e-05
3.58257e-05
-5.52784e-05
3.40972e-05
-7.13159e-05
3.20778e-05
-8.63122e-05
2.99969e-05
-0.000100215
2.77944e-05
-0.000112876
2.53139e-05
-0.0001244
2.30474e-05
-0.000134756
2.07148e-05
-0.000143973
1.84322e-05
-0.000152113
1.62812e-05
-0.000159226
1.42261e-05
-0.000165353
1.22565e-05
-0.000170541
1.03893e-05
-0.000174867
8.65075e-06
-0.000178383
7.02899e-06
-0.000181089
5.41263e-06
-0.000183036
3.89651e-06
-0.000184284
2.49709e-06
-0.000184821
1.06994e-06
-0.000184674
-2.97593e-07
-0.000183885
-1.57251e-06
-0.000182447
-2.86703e-06
-0.000180347
-4.19187e-06
-0.000177637
-5.44756e-06
-0.000174321
-6.60859e-06
-0.000170341
-7.959e-06
-0.000165768
-9.15894e-06
-0.000160546
-1.04343e-05
-0.000154653
-1.17778e-05
-0.000148083
-1.31519e-05
-0.000140796
-1.45712e-05
-0.000132776
-1.60324e-05
-0.000123982
-1.7602e-05
-0.000114384
-1.91938e-05
-0.000103948
-2.08619e-05
-9.26114e-05
-2.2674e-05
-8.04155e-05
-2.43837e-05
-6.73088e-05
-2.62126e-05
-5.3295e-05
-2.80324e-05
-3.84147e-05
-2.9751e-05
-2.27125e-05
-3.13977e-05
-6.29893e-06
-3.28221e-05
1.07553e-05
-3.41e-05
2.83043e-05
-3.50952e-05
4.62022e-05
-3.57774e-05
6.42386e-05
-3.60529e-05
8.22091e-05
-3.59379e-05
9.99149e-05
-3.5392e-05
0.000117055
-3.42701e-05
0.000133396
-3.26716e-05
0.000148653
-3.04911e-05
0.000162559
-2.78113e-05
0.000174864
-2.45918e-05
0.00018534
-2.0933e-05
0.000193703
-1.6736e-05
0.000199825
-1.22271e-05
0.000203582
-7.488e-06
0.000204837
-2.52673e-06
0.000203633
2.4002e-06
0.000199925
7.41899e-06
0.000193796
1.22492e-05
0.000185376
1.68248e-05
0.000174917
2.09069e-05
0.000162568
2.46891e-05
0.000148619
2.78881e-05
0.00013332
3.05811e-05
0.000116952
3.27179e-05
9.97687e-05
3.4354e-05
8.20799e-05
3.53683e-05
6.41279e-05
3.58948e-05
4.6085e-05
3.60636e-05
2.81955e-05
3.57713e-05
1.0664e-05
3.50599e-05
-6.38124e-06
3.40809e-05
-2.28287e-05
3.28829e-05
-3.85914e-05
3.15244e-05
-5.35606e-05
2.99308e-05
-6.77192e-05
2.8313e-05
-8.09952e-05
2.65497e-05
-9.34365e-05
2.48842e-05
-0.00010501
2.31463e-05
-0.000115719
2.14158e-05
-0.000125579
1.97152e-05
-0.00013463
1.81007e-05
-0.000142882
1.65071e-05
-0.000150362
1.49624e-05
-0.000157095
1.34626e-05
-0.000163081
1.19708e-05
-0.000168322
1.04796e-05
-0.000172854
9.06602e-06
-0.000176653
7.59626e-06
-0.000179701
6.08899e-06
-0.000181993
4.57998e-06
-0.000183467
2.95613e-06
-0.000184188
1.4408e-06
-0.000184084
-2.15002e-07
-0.000183115
-1.93001e-06
-0.000181322
-3.58488e-06
-0.000178642
-5.36615e-06
-0.000175098
-7.08472e-06
-0.000170719
-8.75408e-06
-0.000165457
-1.0535e-05
-0.000159339
-1.22293e-05
-0.000152376
-1.39171e-05
-0.000144554
-1.56448e-05
-0.000135923
-1.72698e-05
-0.000126483
-1.88717e-05
-0.000116227
-2.05041e-05
-0.000105195
-2.20797e-05
-9.34405e-05
-2.34933e-05
-8.09353e-05
-2.5006e-05
-6.76956e-05
-2.64967e-05
-5.38076e-05
-2.77549e-05
-3.92621e-05
-2.90781e-05
-2.41001e-05
-3.0333e-05
-8.38526e-06
-3.14185e-05
7.79707e-06
-3.23487e-05
2.43926e-05
-3.31916e-05
4.12736e-05
-3.37528e-05
5.83272e-05
-3.4092e-05
7.5419e-05
-3.41826e-05
9.23207e-05
-3.37843e-05
0.000108898
-3.31422e-05
0.000124916
-3.20306e-05
0.000140157
-3.04677e-05
0.000154381
-2.84377e-05
0.000167345
-2.59073e-05
0.000178791
-2.28789e-05
0.000188504
-1.94258e-05
0.000196278
-1.55241e-05
0.000201909
-1.1241e-05
0.000205248
-6.7029e-06
0.000206187
-1.86908e-06
0.000204701
2.97024e-06
0.00020073
7.93796e-06
0.000194356
1.27354e-05
0.000185717
1.7274e-05
0.000174934
2.15651e-05
0.00016223
2.53932e-05
0.000147857
2.87323e-05
0.000132061
3.15795e-05
0.000115108
3.38872e-05
9.73216e-05
3.55511e-05
7.89804e-05
3.66733e-05
6.03698e-05
3.72176e-05
4.17559e-05
3.72132e-05
2.33288e-05
3.68397e-05
5.38471e-06
3.58886e-05
-1.19685e-05
3.4679e-05
-2.85479e-05
3.31537e-05
-4.42612e-05
3.14284e-05
-5.90146e-05
2.95031e-05
-7.27754e-05
2.75102e-05
-8.54924e-05
2.54332e-05
-9.72161e-05
2.3458e-05
-0.000107919
2.14022e-05
-0.000117645
1.94454e-05
-0.000126467
1.76425e-05
-0.000134365
1.58026e-05
-0.000141438
1.41429e-05
-0.000147719
1.25593e-05
-0.000153212
1.09877e-05
-0.000158001
9.58266e-06
-0.000162108
8.21238e-06
-0.000165525
6.83054e-06
-0.000168301
5.54597e-06
-0.000170515
4.43367e-06
-0.000172055
3.07625e-06
-0.000173019
1.93123e-06
-0.000173344
6.45004e-07
-0.000173039
-6.02543e-07
-0.000172125
-1.82338e-06
-0.000170476
-3.30721e-06
-0.00016815
-4.66073e-06
-0.000165159
-5.97521e-06
-0.000161322
-7.67917e-06
-0.000156722
-9.19334e-06
-0.000151304
-1.08407e-05
-0.000144951
-1.27131e-05
-0.00013775
-1.43905e-05
-0.00012948
-1.65492e-05
-0.000120354
-1.82483e-05
-0.00011016
-2.0382e-05
-9.89636e-05
-2.23916e-05
-8.68942e-05
-2.41402e-05
-7.36227e-05
-2.65356e-05
-5.96854e-05
-2.78587e-05
-4.47112e-05
-2.99611e-05
-2.89353e-05
-3.15382e-05
-1.25835e-05
-3.27019e-05
4.53263e-06
-3.42243e-05
2.20365e-05
-3.50034e-05
3.98768e-05
-3.56724e-05
5.79457e-05
-3.61243e-05
7.588e-05
-3.586e-05
9.35782e-05
-3.53881e-05
0.000110847
-3.4522e-05
0.000127371
-3.3049e-05
0.00014298
-3.12108e-05
0.000157418
-2.88532e-05
0.000170478
-2.61075e-05
0.000181958
-2.29491e-05
0.000191542
-1.91733e-05
0.000199226
-1.53583e-05
0.000204845
-1.12146e-05
0.000208069
-6.44837e-06
0.000209062
-1.97819e-06
0.000207771
2.57485e-06
0.000204028
7.48466e-06
0.000198105
1.18475e-05
0.000190122
1.59591e-05
0.000180172
1.98895e-05
0.000168476
2.33844e-05
0.000155253
2.64356e-05
0.000140701
2.90931e-05
0.000125034
3.13203e-05
0.000108614
3.28279e-05
9.16042e-05
3.40095e-05
7.42216e-05
3.47514e-05
5.68446e-05
3.47454e-05
3.95363e-05
3.46079e-05
2.24798e-05
3.41017e-05
5.97022e-06
3.30309e-05
-1.00029e-05
3.19239e-05
-2.52822e-05
3.05506e-05
-3.97436e-05
2.89182e-05
-5.33301e-05
2.71703e-05
-6.59782e-05
2.52917e-05
-7.76946e-05
2.3428e-05
-8.84538e-05
2.15183e-05
-9.82569e-05
1.96063e-05
-0.000107142
1.77684e-05
-0.000115121
1.59549e-05
-0.000122222
1.42022e-05
-0.000128481
1.2518e-05
-0.000133929
1.08932e-05
-0.000138608
9.36128e-06
-0.000142544
7.87238e-06
-0.000145757
6.42132e-06
-0.000148288
5.06541e-06
-0.00015014
3.70848e-06
-0.000151341
2.40338e-06
-0.000151938
1.19067e-06
-0.000151842
-1.9152e-07
-0.000151043
-1.59598e-06
-0.000149624
-2.83606e-06
-0.00014752
-4.20808e-06
-0.000144788
-5.46155e-06
-0.000141453
-6.66892e-06
-0.000137453
-7.99663e-06
-0.000132824
-9.25771e-06
-0.000127578
-1.04895e-05
-0.000121646
-1.18623e-05
-0.000115098
-1.30943e-05
-0.000107844
-1.45059e-05
-9.9973e-05
-1.57412e-05
-9.14685e-05
-1.70082e-05
-8.22125e-05
-1.85108e-05
-7.23068e-05
-1.98102e-05
-2.11324e-05
0.000200752
-3.32636e-05
0.000210091
-2.79227e-05
0.000217193
-2.12441e-05
0.000221929
-1.41705e-05
0.000224323
-7.11139e-06
0.000224189
3.32585e-07
0.000221564
7.75688e-06
0.000216426
1.53798e-05
0.000208859
2.2674e-05
0.000199116
2.91964e-05
0.00018729
3.54306e-05
0.000173621
4.09579e-05
0.00015841
4.5568e-05
0.000141754
4.99293e-05
0.000124216
5.25626e-05
0.000105808
5.51562e-05
8.67605e-05
5.71064e-05
6.75981e-05
5.74406e-05
4.82919e-05
5.78639e-05
2.9137e-05
5.74475e-05
1.05044e-05
5.58539e-05
-7.73342e-06
5.46698e-05
-2.52751e-05
5.25955e-05
-4.2014e-05
5.01931e-05
-5.78748e-05
4.75619e-05
-7.27619e-05
4.46496e-05
-8.6678e-05
4.17415e-05
-9.95678e-05
3.86573e-05
-0.000111421
3.55545e-05
-0.000122274
3.25581e-05
-0.00013213
2.95586e-05
-0.000140999
2.66112e-05
-0.000148937
2.3814e-05
-0.000155972
2.11021e-05
-0.000162136
1.84953e-05
-0.000167472
1.60037e-05
-0.000171986
1.3541e-05
-0.000175723
1.12208e-05
-0.000178716
8.96926e-06
-0.000180954
6.70868e-06
-0.000182487
4.61239e-06
-0.000183333
2.5684e-06
-0.000183457
3.94213e-07
-0.000182867
-1.7462e-06
-0.000181513
-4.0857e-06
-0.000179421
-6.2574e-06
-0.000176679
-8.23106e-06
-0.000173073
-1.08347e-05
-0.000168727
-1.30283e-05
-0.000163662
-1.52048e-05
-0.000157593
-1.82209e-05
-0.000150735
-2.05711e-05
-0.000142888
-2.35411e-05
-0.000134044
-2.65552e-05
-0.00012443
-2.88278e-05
-0.000113772
-3.19999e-05
-0.000101946
-3.54545e-05
-8.94431e-05
-3.74982e-05
-7.58422e-05
-4.0809e-05
-6.13557e-05
-4.34404e-05
-4.60283e-05
-4.59613e-05
-2.9807e-05
-4.86834e-05
-1.30488e-05
-5.02208e-05
4.28218e-06
-5.19593e-05
2.21205e-05
-5.34966e-05
4.00901e-05
-5.38725e-05
5.82345e-05
-5.43727e-05
7.62802e-05
-5.41147e-05
9.40501e-05
-5.32583e-05
0.000111438
-5.20894e-05
0.000128139
-5.00557e-05
0.000143937
-4.73244e-05
0.000158635
-4.40545e-05
0.000171989
-4.00225e-05
0.000183877
-3.56142e-05
0.000193957
-3.02023e-05
0.000202269
-2.48874e-05
0.000208463
-1.85541e-05
0.00021247
-1.19979e-05
0.000214302
-5.47242e-06
0.00021373
1.68395e-06
0.000210835
8.64046e-06
0.000205537
1.5857e-05
0.000197991
2.26076e-05
0.000188319
2.89841e-05
0.000176558
3.52606e-05
0.000163035
4.04988e-05
0.000147865
4.5381e-05
0.00013134
4.95687e-05
0.000113704
5.28442e-05
9.51718e-05
5.55388e-05
7.60506e-05
5.73173e-05
5.65532e-05
5.84834e-05
3.69042e-05
5.88543e-05
1.74036e-05
5.8427e-05
-1.76042e-06
5.74641e-05
-2.03985e-05
5.5875e-05
-3.83353e-05
5.37625e-05
-5.5402e-05
5.11639e-05
-7.1449e-05
4.81248e-05
-8.64548e-05
4.50027e-05
-0.000100338
4.16774e-05
-0.000113009
3.79851e-05
-0.000124541
3.45792e-05
-0.000134887
3.10607e-05
-0.000144093
2.76384e-05
-0.00015223
2.44188e-05
-0.000159341
2.13372e-05
-0.000165475
1.83897e-05
-0.000170659
1.55732e-05
-0.00017497
1.29618e-05
-0.000178478
1.05373e-05
-0.000181192
8.12659e-06
-0.00018314
5.84468e-06
-0.000184387
3.74404e-06
-0.00018491
1.59261e-06
-0.000184759
-4.47944e-07
-0.000183953
-2.37905e-06
-0.000182535
-4.28507e-06
-0.000180436
-6.29082e-06
-0.000177739
-8.14479e-06
-0.000174411
-9.93639e-06
-0.000170427
-1.19435e-05
-0.000165854
-1.37312e-05
-0.000160637
-1.56512e-05
-0.00015474
-1.76756e-05
-0.000148166
-1.97258e-05
-0.00014089
-2.18472e-05
-0.000132876
-2.40466e-05
-0.000124074
-2.64041e-05
-0.000114474
-2.87932e-05
-0.000104052
-3.12843e-05
-9.27221e-05
-3.40041e-05
-8.05099e-05
-3.65959e-05
-6.74072e-05
-3.93153e-05
-5.33902e-05
-4.20495e-05
-3.85021e-05
-4.46392e-05
-2.27853e-05
-4.71146e-05
-6.36792e-06
-4.92395e-05
1.06951e-05
-5.11631e-05
2.82616e-05
-5.26618e-05
4.61703e-05
-5.36861e-05
6.4225e-05
-5.41077e-05
8.22125e-05
-5.39255e-05
9.99344e-05
-5.3114e-05
0.000117106
-5.14414e-05
0.000133457
-4.90232e-05
0.00014874
-4.57739e-05
0.000162674
-4.17456e-05
0.000174999
-3.69169e-05
0.00018548
-3.1414e-05
0.000193871
-2.51272e-05
0.000200006
-1.83614e-05
0.000203784
-1.12667e-05
0.000205034
-3.77596e-06
0.000203792
3.64137e-06
0.000200075
1.1136e-05
0.000193956
1.83687e-05
0.00018552
2.526e-05
0.000175039
3.13886e-05
0.000162667
3.70602e-05
0.000148699
4.18567e-05
0.000133385
4.58947e-05
0.000116992
4.91112e-05
9.97881e-05
5.15577e-05
8.20774e-05
5.30789e-05
6.41105e-05
5.38617e-05
4.6048e-05
5.41261e-05
2.81426e-05
5.36768e-05
1.05985e-05
5.26039e-05
-6.45832e-06
5.11378e-05
-2.29202e-05
4.93447e-05
-3.86766e-05
4.72809e-05
-5.36458e-05
4.49e-05
-6.78047e-05
4.24718e-05
-8.10957e-05
3.98407e-05
-9.35415e-05
3.733e-05
-0.000105102
3.4707e-05
-0.000115809
3.21222e-05
-0.000125669
2.95758e-05
-0.000134722
2.71532e-05
-0.000142976
2.47616e-05
-0.000150449
2.24349e-05
-0.000157177
2.01906e-05
-0.000163162
1.79561e-05
-0.000168404
1.57211e-05
-0.000172942
1.36046e-05
-0.000176743
1.13966e-05
-0.000179786
9.13271e-06
-0.000182082
6.87527e-06
-0.000183563
4.43762e-06
-0.000184275
2.1528e-06
-0.000184177
-3.13021e-07
-0.00018321
-2.89666e-06
-0.000181408
-5.38704e-06
-0.000178724
-8.04995e-06
-0.000175189
-1.06204e-05
-0.000170808
-1.31351e-05
-0.00016554
-1.58032e-05
-0.000159434
-1.83353e-05
-0.000152466
-2.08847e-05
-0.000144632
-2.34786e-05
-0.000136004
-2.58983e-05
-0.000126564
-2.83112e-05
-0.000116314
-3.07548e-05
-0.000105288
-3.31052e-05
-9.3516e-05
-3.52655e-05
-8.10032e-05
-3.75188e-05
-6.7772e-05
-3.97279e-05
-5.38772e-05
-4.16497e-05
-3.93304e-05
-4.36249e-05
-2.4163e-05
-4.55004e-05
-8.43419e-06
-4.71474e-05
7.75305e-06
-4.8536e-05
2.43617e-05
-4.98003e-05
4.1252e-05
-5.06432e-05
5.83216e-05
-5.11616e-05
7.5416e-05
-5.12771e-05
9.23341e-05
-5.07023e-05
0.000108933
-4.97412e-05
0.000124975
-4.80723e-05
0.000140234
-4.57268e-05
0.00015448
-4.26837e-05
0.00016746
-3.88877e-05
0.000178933
-3.43522e-05
0.000188664
-2.91564e-05
0.000196439
-2.32988e-05
0.000202094
-1.68966e-05
0.000205432
-1.00404e-05
0.000206378
-2.81566e-06
0.000204865
4.48372e-06
0.000200898
1.19048e-05
0.000194524
1.91095e-05
0.00018587
2.59283e-05
0.000175069
3.23653e-05
0.00016235
3.81124e-05
0.000147957
4.31252e-05
0.000132137
4.73996e-05
0.000115165
5.08596e-05
9.73476e-05
5.33682e-05
7.89866e-05
5.50344e-05
6.03516e-05
5.58526e-05
4.17149e-05
5.58499e-05
2.32837e-05
5.5271e-05
5.3495e-06
5.38228e-05
-1.2037e-05
5.20655e-05
-2.86338e-05
4.97505e-05
-4.43535e-05
4.71481e-05
-5.91095e-05
4.42592e-05
-7.28667e-05
4.12674e-05
-8.559e-05
3.81565e-05
-9.73145e-05
3.51825e-05
-0.000108006
3.20939e-05
-0.000117726
2.91655e-05
-0.000126555
2.64714e-05
-0.000134451
2.36988e-05
-0.000141513
2.12041e-05
-0.000147789
1.8836e-05
-0.000153288
1.64865e-05
-0.000158077
1.43717e-05
-0.00016217
1.23058e-05
-0.000165587
1.02466e-05
-0.00016838
8.33979e-06
-0.000170581
6.63425e-06
-0.00017212
4.61565e-06
-0.000173078
2.88866e-06
-0.000173405
9.72563e-07
-0.000173107
-9.01258e-07
-0.00017219
-2.74018e-06
-0.000170545
-4.95167e-06
-0.000168233
-6.97279e-06
-0.000165221
-8.98727e-06
-0.000161396
-1.1504e-05
-0.000156797
-1.3793e-05
-0.000151386
-1.62516e-05
-0.000145037
-1.90618e-05
-0.000137829
-2.15987e-05
-0.000129565
-2.48135e-05
-0.000120433
-2.73798e-05
-0.000110249
-3.05664e-05
-9.9037e-05
-3.36036e-05
-8.69701e-05
-3.62071e-05
-7.37052e-05
-3.98006e-05
-5.97355e-05
-4.18285e-05
-4.47779e-05
-4.49187e-05
-2.89899e-05
-4.73262e-05
-1.26348e-05
-4.90571e-05
4.49118e-06
-5.13503e-05
2.19963e-05
-5.25086e-05
3.98466e-05
-5.35227e-05
5.7928e-05
-5.42058e-05
7.58773e-05
-5.38094e-05
9.35847e-05
-5.30955e-05
0.000110869
-5.18065e-05
0.000127416
-4.9596e-05
0.000143039
-4.68343e-05
0.000157488
-4.3302e-05
0.000170567
-3.91861e-05
0.000182057
-3.44395e-05
0.000191667
-2.87835e-05
0.000199359
-2.30503e-05
0.000204981
-1.68373e-05
0.000208227
-9.6944e-06
0.000209233
-2.98416e-06
0.000207934
3.87412e-06
0.000204193
1.12257e-05
0.000198273
1.77669e-05
0.000190275
2.39573e-05
0.000180306
2.98584e-05
0.000168597
3.5093e-05
0.000155355
3.96776e-05
0.000140786
4.36623e-05
0.000125097
4.70095e-05
0.000108659
4.92656e-05
9.1632e-05
5.10367e-05
7.42273e-05
5.2156e-05
5.68364e-05
5.21362e-05
3.95154e-05
5.19289e-05
2.2441e-05
5.11762e-05
5.93688e-06
4.9535e-05
-1.00608e-05
4.79216e-05
-2.535e-05
4.58398e-05
-3.98183e-05
4.33865e-05
-5.34111e-05
4.07631e-05
-6.60624e-05
3.79429e-05
-7.77781e-05
3.51437e-05
-8.85381e-05
3.22784e-05
-9.83457e-05
2.94138e-05
-0.000107228
2.66503e-05
-0.000115203
2.39301e-05
-0.000122301
2.13008e-05
-0.000128562
1.87786e-05
-0.000134006
1.63376e-05
-0.000138683
1.40381e-05
-0.00014262
1.18094e-05
-0.000145829
9.63041e-06
-0.000148358
7.59402e-06
-0.000150211
5.56225e-06
-0.00015141
3.60147e-06
-0.000151996
1.77664e-06
-0.00015189
-2.97454e-07
-0.000151094
-2.39138e-06
-0.000149665
-4.26531e-06
-0.000147561
-6.31208e-06
-0.000144835
-8.18728e-06
-0.0001415
-1.00045e-05
-0.000137501
-1.19956e-05
-0.000132873
-1.38858e-05
-0.000127627
-1.57353e-05
-0.000121696
-1.77932e-05
-0.000115148
-1.96424e-05
-0.000107894
-2.17592e-05
-0.000100023
-2.3613e-05
-9.15186e-05
-2.55122e-05
-8.22625e-05
-2.77669e-05
-7.23565e-05
-2.97162e-05
-3.17006e-05
0.000201012
-4.44103e-05
0.000210406
-3.7317e-05
0.000217559
-2.83965e-05
0.000222334
-1.89464e-05
0.000224735
-9.51169e-06
0.000224547
5.20169e-07
0.00022186
1.04438e-05
0.000216703
2.05369e-05
0.000209116
3.02608e-05
0.000199355
3.8958e-05
0.000187503
4.72823e-05
0.000173805
5.46559e-05
0.000158556
6.08169e-05
0.000141879
6.66065e-05
0.000124311
7.01308e-05
0.000105864
7.36028e-05
8.67963e-05
7.61743e-05
6.76062e-05
7.66307e-05
4.82688e-05
7.72013e-05
2.91079e-05
7.66085e-05
1.04467e-05
7.45151e-05
-7.81928e-06
7.29358e-05
-2.53789e-05
7.01551e-05
-4.21325e-05
6.69467e-05
-5.80023e-05
6.34316e-05
-7.28981e-05
5.95454e-05
-8.68201e-05
5.56636e-05
-9.97146e-05
5.15518e-05
-0.000111569
4.74093e-05
-0.000122424
4.34123e-05
-0.000132282
3.94169e-05
-0.000141148
3.54772e-05
-0.000149087
3.17531e-05
-0.000156121
2.81365e-05
-0.000162284
2.46582e-05
-0.000167622
2.13413e-05
-0.000172134
1.80534e-05
-0.000175872
1.49589e-05
-0.000178867
1.19641e-05
-0.000181104
8.94569e-06
-0.000182636
6.14417e-06
-0.000183464
3.39674e-06
-0.000183568
4.98434e-07
-0.000182952
-2.36277e-06
-0.000181615
-5.42295e-06
-0.00017951
-8.36217e-06
-0.000176769
-1.09719e-05
-0.000173173
-1.44309e-05
-0.000168823
-1.73783e-05
-0.000163761
-2.02662e-05
-0.000157701
-2.42814e-05
-0.000150842
-2.743e-05
-0.000142996
-3.13874e-05
-0.000134165
-3.53864e-05
-0.000124546
-3.8447e-05
-0.000113901
-4.26452e-05
-0.000102062
-4.72936e-05
-8.95555e-05
-5.00043e-05
-7.59558e-05
-5.44087e-05
-6.14608e-05
-5.79354e-05
-4.61242e-05
-6.12979e-05
-2.99142e-05
-6.48936e-05
-1.31273e-05
-6.70077e-05
4.21497e-06
-6.93017e-05
2.20651e-05
-7.13468e-05
4.00515e-05
-7.1859e-05
5.82285e-05
-7.25497e-05
7.62923e-05
-7.21786e-05
9.40896e-05
-7.10556e-05
0.000111526
-6.95259e-05
0.000128254
-6.67834e-05
0.000144081
-6.31514e-05
0.000158808
-5.87823e-05
0.00017219
-5.34042e-05
0.000184094
-4.75178e-05
0.000194205
-4.03141e-05
0.000202542
-3.32242e-05
0.000208742
-2.47545e-05
0.000212778
-1.60338e-05
0.000214606
-7.30059e-06
0.000214007
2.28315e-06
0.000211096
1.15517e-05
0.000205785
2.11678e-05
0.000198228
3.01648e-05
0.000188535
3.86773e-05
0.000176752
4.70435e-05
0.000163185
5.40659e-05
0.000147954
6.06118e-05
0.000131436
6.60867e-05
0.000113775
7.05048e-05
9.52089e-05
7.4105e-05
7.60436e-05
7.64826e-05
5.65093e-05
7.80176e-05
3.68365e-05
7.8527e-05
1.73051e-05
7.79584e-05
-1.88158e-06
7.66508e-05
-2.05448e-05
7.45382e-05
-3.8493e-05
7.17107e-05
-5.55682e-05
6.82391e-05
-7.16349e-05
6.41915e-05
-8.66722e-05
6.00401e-05
-0.000100534
5.55393e-05
-0.000113208
5.06587e-05
-0.000124737