/*--------------------------------*- C++ -*----------------------------------*\
| =========                 |                                                 |
| \\      /  F ield         | OpenFOAM: The Open Source CFD Toolbox           |
|  \\    /   O peration     | Version:  3.0.1                                 |
|   \\  /    A nd           | Web:      www.OpenFOAM.org                      |
|    \\/     M anipulation  |                                                 |
\*---------------------------------------------------------------------------*/
FoamFile
{
    version     2.0;
    format      ascii;
    class       volVectorField;
    location    "42";
    object      U;
}
// * * * * * * * * * * * * * * * * * * * * * * * * * * * * * * * * * * * * * //

dimensions      [0 1 -1 0 0 0 0];

internalField   nonuniform List<vector> 
21420
(
(-0.120057 0.00097515 0)
(-0.128392 0.000878274 0)
(-0.136814 0.000790656 0)
(-0.144345 0.000705326 0)
(-0.151023 0.000620225 0)
(-0.156879 0.000541239 0)
(-0.161945 0.000463331 0)
(-0.166249 0.000389748 0)
(-0.169816 0.000317983 0)
(-0.172665 0.000247355 0)
(-0.174814 0.000178241 0)
(-0.176277 0.000109396 0)
(-0.177031 4.30079e-05 0)
(-0.177126 -2.54177e-05 0)
(-0.176519 -9.46234e-05 0)
(-0.17522 -0.00016416 0)
(-0.17321 -0.000234791 0)
(-0.170477 -0.000307677 0)
(-0.167007 -0.000381591 0)
(-0.162776 -0.000457332 0)
(-0.157763 -0.000537698 0)
(-0.15194 -0.000618187 0)
(-0.145279 -0.000700992 0)
(-0.13775 -0.00079166 0)
(-0.129323 -0.00087968 0)
(-0.11997 -0.000977814 0)
(-0.109667 -0.00106967 0)
(-0.0983984 -0.00116177 0)
(-0.0861495 -0.00126761 0)
(-0.072926 -0.00135773 0)
(-0.0587476 -0.00144348 0)
(-0.0436411 -0.00154665 0)
(-0.0276691 -0.00161969 0)
(-0.0109041 -0.00171059 0)
(0.00654808 -0.00176134 0)
(0.0245348 -0.00179553 0)
(0.0429145 -0.00184759 0)
(0.0615173 -0.00184754 0)
(0.0801253 -0.00182461 0)
(0.0985218 -0.00181322 0)
(0.116485 -0.00174721 0)
(0.133774 -0.00168399 0)
(0.150155 -0.00157299 0)
(0.165379 -0.00143919 0)
(0.179208 -0.00129772 0)
(0.191433 -0.00112451 0)
(0.201856 -0.000933665 0)
(0.210304 -0.000732025 0)
(0.216625 -0.000515643 0)
(0.220707 -0.000286073 0)
(0.222471 -6.22634e-05 0)
(0.221987 0.000171291 0)
(0.219073 0.000395791 0)
(0.213911 0.00061658 0)
(0.206611 0.000833014 0)
(0.19727 0.00101472 0)
(0.186091 0.00119157 0)
(0.173267 0.00135833 0)
(0.158988 0.00147384 0)
(0.143522 0.00159022 0)
(0.127101 0.00166028 0)
(0.109951 0.00172904 0)
(0.0923708 0.00177124 0)
(0.0744759 0.00177844 0)
(0.0565089 0.00178074 0)
(0.0386677 0.00176205 0)
(0.0211271 0.00171844 0)
(0.00402177 0.00167227 0)
(-0.0125403 0.00160716 0)
(-0.0284745 0.00154038 0)
(-0.043635 0.00146036 0)
(-0.0579503 0.00137688 0)
(-0.0714335 0.00129492 0)
(-0.0840029 0.00120195 0)
(-0.0956515 0.00110979 0)
(-0.106406 0.00102168 0)
(-0.116227 0.000927616 0)
(-0.125188 0.000842371 0)
(-0.133286 0.000752494 0)
(-0.140464 0.000670443 0)
(-0.146809 0.000594209 0)
(-0.152354 0.000509272 0)
(-0.157083 0.00042875 0)
(-0.161022 0.000352357 0)
(-0.164188 0.000277139 0)
(-0.166553 0.000190207 0)
(-0.168098 0.000117683 0)
(-0.16887 4.10558e-05 0)
(-0.16886 -4.18248e-05 0)
(-0.168069 -0.000116147 0)
(-0.166512 -0.000189647 0)
(-0.164206 -0.000260657 0)
(-0.161215 -0.000330114 0)
(-0.157567 -0.000395633 0)
(-0.153251 -0.000454563 0)
(-0.148314 -0.000524685 0)
(-0.142716 -0.000587949 0)
(-0.136469 -0.000646639 0)
(-0.129606 -0.000716629 0)
(-0.122064 -0.000774836 0)
(-0.113848 -0.000846652 0)
(-0.104971 -0.000914733 0)
(-0.0954007 -0.000979428 0)
(-0.0851163 -0.00105935 0)
(-0.0740886 -0.00112804 0)
(-0.0623493 -0.0012003 0)
(-0.0499121 -0.00126756 0)
(-0.0367746 -0.00133514 0)
(-0.022994 -0.0013952 0)
(-0.00863242 -0.00144861 0)
(0.00624576 -0.00149555 0)
(0.0215425 -0.00152983 0)
(0.0371623 -0.00156174 0)
(0.0530155 -0.00158296 0)
(0.0689969 -0.00158396 0)
(0.0849491 -0.00157711 0)
(0.100746 -0.00155672 0)
(0.116237 -0.00150926 0)
(0.131225 -0.00145916 0)
(0.145552 -0.00138305 0)
(0.159035 -0.00128926 0)
(0.171464 -0.00117915 0)
(0.18269 -0.0010441 0)
(0.192505 -0.000895548 0)
(0.20072 -0.000728908 0)
(0.207187 -0.000548426 0)
(0.211759 -0.000356808 0)
(0.2143 -0.000155703 0)
(0.214768 5.65677e-05 0)
(0.213116 0.00027412 0)
(0.20921 0.000487256 0)
(0.203273 0.00069105 0)
(0.195321 0.000883264 0)
(0.185484 0.00106818 0)
(0.17389 0.00123006 0)
(0.160739 0.00137278 0)
(0.146231 0.0015003 0)
(0.130607 0.00159904 0)
(0.114095 0.00167753 0)
(0.0969006 0.00173302 0)
(0.0792848 0.00175952 0)
(0.0614564 0.00176951 0)
(0.0436607 0.00175957 0)
(0.0260957 0.00172741 0)
(0.00891977 0.00167892 0)
(-0.00768554 0.00161732 0)
(-0.0236209 0.00154946 0)
(-0.0387818 0.00146286 0)
(-0.0530587 0.0013683 0)
(-0.0663757 0.00127667 0)
(-0.0786913 0.00117028 0)
(-0.0899994 0.00107234 0)
(-0.100246 0.000963305 0)
(-0.109478 0.000868512 0)
(-0.117767 0.000773255 0)
(-0.125081 0.000680795 0)
(-0.131473 0.000592853 0)
(-0.137051 0.000511509 0)
(-0.141844 0.000435348 0)
(-0.145852 0.000366323 0)
(-0.149207 0.000295993 0)
(-0.151926 0.000235894 0)
(-0.153998 0.000181307 0)
(-0.155516 0.000127618 0)
(-0.156553 8.05629e-05 0)
(-0.157111 3.45992e-05 0)
(-0.157208 -1.59334e-05 0)
(-0.156815 -5.93829e-05 0)
(-0.155999 -9.69574e-05 0)
(-0.154773 -0.000145589 0)
(-0.153106 -0.000183548 0)
(-0.150982 -0.000234391 0)
(-0.148359 -0.000286136 0)
(-0.145196 -0.000339104 0)
(-0.141536 -0.000384366 0)
(-0.137368 -0.000439936 0)
(-0.132673 -0.000494721 0)
(-0.127389 -0.00054695 0)
(-0.121512 -0.000608657 0)
(-0.115073 -0.000668061 0)
(-0.108015 -0.000734384 0)
(-0.100282 -0.000795007 0)
(-0.0918241 -0.000874941 0)
(-0.0826758 -0.000953644 0)
(-0.0727418 -0.00101685 0)
(-0.061997 -0.00110179 0)
(-0.0505118 -0.00117727 0)
(-0.0382114 -0.0012574 0)
(-0.0251091 -0.00133944 0)
(-0.0112178 -0.00141088 0)
(0.00344041 -0.0014839 0)
(0.0187681 -0.00155023 0)
(0.0346677 -0.00160392 0)
(0.0510523 -0.00164771 0)
(0.0677864 -0.00167236 0)
(0.0846905 -0.00167705 0)
(0.101543 -0.00166339 0)
(0.118155 -0.00162323 0)
(0.134269 -0.00156813 0)
(0.149628 -0.00148245 0)
(0.163995 -0.00136897 0)
(0.177114 -0.00123027 0)
(0.188728 -0.00106559 0)
(0.198566 -0.000882294 0)
(0.206422 -0.000674516 0)
(0.212099 -0.000452241 0)
(0.215433 -0.00021358 0)
(0.216351 3.50466e-05 0)
(0.214801 0.000280489 0)
(0.210576 0.000530552 0)
(0.204047 0.000766844 0)
(0.195237 0.000981266 0)
(0.184306 0.00118043 0)
(0.171552 0.00134948 0)
(0.157193 0.00149549 0)
(0.141474 0.00161671 0)
(0.124717 0.00170755 0)
(0.107187 0.00175963 0)
(0.08921 0.00180035 0)
(0.0710922 0.00179756 0)
(0.0530445 0.00178096 0)
(0.0352843 0.0017418 0)
(0.0180083 0.00168526 0)
(0.0013606 0.00162305 0)
(-0.0145445 0.00153982 0)
(-0.029644 0.0014527 0)
(-0.0438815 0.00136638 0)
(-0.0571613 0.00127714 0)
(-0.0695108 0.00118075 0)
(-0.0809545 0.00108827 0)
(-0.091474 0.00100453 0)
(-0.101141 0.000916651 0)
(-0.109984 0.000831801 0)
(-0.117998 0.000752191 0)
(-0.125217 0.000684497 0)
(-0.131713 0.000608929 0)
(-0.13752 0.000546453 0)
(-0.142699 0.000485739 0)
(-0.147258 0.000421719 0)
(-0.151182 0.000357902 0)
(-0.154492 0.000300296 0)
(-0.157225 0.000244182 0)
(-0.159401 0.000186405 0)
(-0.160999 0.000128731 0)
(-0.161985 7.58752e-05 0)
(-0.162414 1.26133e-05 0)
(-0.162246 -4.34333e-05 0)
(-0.1615 -0.000102794 0)
(-0.160103 -0.000170583 0)
(-0.158074 -0.000236482 0)
(-0.155317 -0.000308004 0)
(-0.15176 -0.000386163 0)
(-0.147486 -0.000462094 0)
(-0.142399 -0.000546946 0)
(-0.136436 -0.000628873 0)
(-0.129621 -0.000718365 0)
(-0.121949 -0.000806382 0)
(-0.11333 -0.000899096 0)
(-0.103779 -0.000993979 0)
(-0.0932985 -0.00108276 0)
(-0.0818744 -0.00117761 0)
(-0.0695709 -0.00126492 0)
(-0.0563867 -0.00135559 0)
(-0.0423235 -0.00141958 0)
(-0.0274493 -0.00150879 0)
(-0.0118804 -0.00158077 0)
(0.00459422 -0.00163489 0)
(0.0217581 -0.00168902 0)
(0.0392577 -0.0017269 0)
(0.0570739 -0.00174387 0)
(0.075008 -0.00174157 0)
(0.0928764 -0.00172036 0)
(0.110388 -0.00167535 0)
(0.127334 -0.00160014 0)
(0.143492 -0.00151374 0)
(0.158585 -0.00139803 0)
(0.172356 -0.00126809 0)
(0.184624 -0.00112149 0)
(0.195137 -0.000942382 0)
(0.20363 -0.000758379 0)
(0.209858 -0.000540786 0)
(0.21371 -0.000312034 0)
(0.215026 -7.05362e-05 0)
(0.213844 0.000189383 0)
(0.210098 0.000455056 0)
(0.203891 0.000723569 0)
(0.19514 0.000987508 0)
(0.184049 0.00121803 0)
(0.170672 0.00143554 0)
(0.155323 0.00160424 0)
(0.138351 0.00175009 0)
(0.120053 0.00185799 0)
(0.10097 0.00191445 0)
(0.0814478 0.00195176 0)
(0.0617916 0.00195686 0)
(0.0425431 0.0019271 0)
(0.023961 0.00188358 0)
(0.00455798 0.00183036 0)
(-0.0151432 0.0017331 0)
(-0.0333894 0.0016447 0)
(-0.0503475 0.00153952 0)
(-0.0660595 0.00143986 0)
(-0.0805927 0.00133598 0)
(-0.0939263 0.00122634 0)
(-0.106092 0.00112274 0)
(-0.117125 0.00101927 0)
(-0.127042 0.000915105 0)
(-0.135883 0.000816305 0)
(-0.143686 0.00071777 0)
(-0.150484 0.000623998 0)
(-0.156313 0.000532078 0)
(-0.161202 0.000441026 0)
(-0.165172 0.000352716 0)
(-0.168237 0.000265199 0)
(-0.170408 0.000175722 0)
(-0.171673 8.75186e-05 0)
(-0.172084 -3.95894e-07 0)
(-0.171596 -8.45186e-05 0)
(-0.170248 -0.000172316 0)
(-0.168029 -0.000261945 0)
(-0.164914 -0.000353061 0)
(-0.160866 -0.000446042 0)
(-0.155865 -0.000543911 0)
(-0.14989 -0.000641099 0)
(-0.142912 -0.000745234 0)
(-0.134909 -0.000846044 0)
(-0.125856 -0.000948193 0)
(-0.115734 -0.00106098 0)
(-0.104535 -0.00116398 0)
(-0.0922558 -0.00126547 0)
(-0.0789 -0.00138167 0)
(-0.0644928 -0.00147733 0)
(-0.0490772 -0.00156605 0)
(-0.0327052 -0.00167273 0)
(-0.0155167 -0.00174429 0)
(0.0024841 -0.00182957 0)
(0.0211619 -0.00187413 0)
(0.0402544 -0.00189936 0)
(0.0596483 -0.00194223 0)
(0.0791433 -0.00192768 0)
(0.0985053 -0.0018895 0)
(0.117507 -0.00186455 0)
(0.135896 -0.00177772 0)
(0.153412 -0.00169794 0)
(0.169791 -0.00156015 0)
(0.184761 -0.00139952 0)
(0.198078 -0.00123634 0)
(0.209518 -0.00103341 0)
(0.218877 -0.000816043 0)
(0.225989 -0.000589862 0)
(0.230725 -0.000349409 0)
(0.232995 -0.000101523 0)
(0.232765 0.000145671 0)
(0.230094 0.000392293 0)
(0.224928 0.000627649 0)
(0.217439 0.000855175 0)
(0.206684 0.00107146 0)
(-0.120095 0.00292535 0)
(-0.128428 0.00263469 0)
(-0.136849 0.00237182 0)
(-0.144379 0.00211582 0)
(-0.151055 0.0018605 0)
(-0.15691 0.00162354 0)
(-0.161975 0.00138982 0)
(-0.166278 0.00116907 0)
(-0.169844 0.000953773 0)
(-0.172693 0.000741899 0)
(-0.174841 0.000534614 0)
(-0.176304 0.000327913 0)
(-0.177058 0.000128949 0)
(-0.177153 -7.62936e-05 0)
(-0.176547 -0.000283958 0)
(-0.175248 -0.00049253 0)
(-0.173238 -0.000704405 0)
(-0.170507 -0.00092306 0)
(-0.167037 -0.00114476 0)
(-0.162807 -0.00137195 0)
(-0.157795 -0.00161302 0)
(-0.151973 -0.00185447 0)
(-0.145314 -0.00210288 0)
(-0.137786 -0.00237486 0)
(-0.12936 -0.00263893 0)
(-0.120008 -0.00293334 0)
(-0.109706 -0.00320896 0)
(-0.0984376 -0.00348528 0)
(-0.0861894 -0.00380285 0)
(-0.0729651 -0.00407327 0)
(-0.0587851 -0.0043306 0)
(-0.0436773 -0.00464018 0)
(-0.027702 -0.00485995 0)
(-0.0109333 -0.00513169 0)
(0.00652408 -0.00528454 0)
(0.0245167 -0.00538724 0)
(0.0429033 -0.00554355 0)
(0.0615139 -0.00554344 0)
(0.08013 -0.00547471 0)
(0.0985361 -0.00544067 0)
(0.116508 -0.00524263 0)
(0.133808 -0.00505302 0)
(0.150198 -0.00472006 0)
(0.165431 -0.00431826 0)
(0.17927 -0.00389466 0)
(0.191502 -0.00337496 0)
(0.201933 -0.00280196 0)
(0.210388 -0.00219792 0)
(0.216716 -0.00154302 0)
(0.220801 -0.000857619 0)
(0.22257 -0.000189699 0)
(0.222081 0.000513577 0)
(0.21916 0.00118721 0)
(0.214001 0.00184968 0)
(0.206699 0.00249924 0)
(0.197353 0.00304484 0)
(0.186167 0.00357522 0)
(0.173336 0.00407598 0)
(0.159048 0.00442227 0)
(0.143574 0.00477184 0)
(0.127143 0.00498156 0)
(0.109984 0.0051885 0)
(0.0923934 0.00531485 0)
(0.0744899 0.00533621 0)
(0.056514 0.00534301 0)
(0.0386641 0.00528741 0)
(0.0211159 0.00515636 0)
(0.00400335 0.00501804 0)
(-0.0125652 0.00482256 0)
(-0.0285054 0.00462228 0)
(-0.0436706 0.00438228 0)
(-0.0579899 0.00413063 0)
(-0.0714769 0.00388375 0)
(-0.0840497 0.00360848 0)
(-0.0957018 0.00332992 0)
(-0.106459 0.00306553 0)
(-0.116281 0.00278119 0)
(-0.125245 0.00252701 0)
(-0.133344 0.00225458 0)
(-0.140516 0.00201052 0)
(-0.146863 0.00178817 0)
(-0.152413 0.00152899 0)
(-0.15714 0.00129044 0)
(-0.161082 0.0010551 0)
(-0.164247 0.000823629 0)
(-0.166604 0.000575849 0)
(-0.168162 0.000354588 0)
(-0.168939 0.000112993 0)
(-0.168914 -0.00012183 0)
(-0.168125 -0.000347945 0)
(-0.166572 -0.000574864 0)
(-0.164261 -0.000786181 0)
(-0.16127 -0.000988816 0)
(-0.15763 -0.00118934 0)
(-0.153321 -0.00137312 0)
(-0.148375 -0.00157151 0)
(-0.142778 -0.00175676 0)
(-0.136532 -0.00194585 0)
(-0.129672 -0.00215457 0)
(-0.122128 -0.00233269 0)
(-0.113916 -0.00253919 0)
(-0.105039 -0.00275281 0)
(-0.0954659 -0.00294311 0)
(-0.0851702 -0.00317289 0)
(-0.0741396 -0.00338312 0)
(-0.0623991 -0.00359621 0)
(-0.0499562 -0.00381047 0)
(-0.0368062 -0.00400261 0)
(-0.0230173 -0.00418917 0)
(-0.00864896 -0.00434726 0)
(0.00623116 -0.00448927 0)
(0.0215236 -0.00460888 0)
(0.037163 -0.00469313 0)
(0.0530351 -0.00473597 0)
(0.0690103 -0.00476368 0)
(0.0849779 -0.00473322 0)
(0.100782 -0.00466739 0)
(0.116264 -0.0045463 0)
(0.131268 -0.00437422 0)
(0.14561 -0.00413818 0)
(0.159098 -0.00386777 0)
(0.171534 -0.00353422 0)
(0.18276 -0.00313384 0)
(0.192576 -0.00269247 0)
(0.200791 -0.00219369 0)
(0.207258 -0.00165187 0)
(0.211834 -0.00106215 0)
(0.214376 -0.000458355 0)
(0.214838 0.00017314 0)
(0.21316 0.000819551 0)
(0.209256 0.00145747 0)
(0.203316 0.00207609 0)
(0.195349 0.00265592 0)
(0.185495 0.00319608 0)
(0.173894 0.00369199 0)
(0.160734 0.0041254 0)
(0.146202 0.00450003 0)
(0.130561 0.00479345 0)
(0.114037 0.00503108 0)
(0.0968336 0.00519181 0)
(0.0792123 0.00529101 0)
(0.0613656 0.00531219 0)
(0.0435561 0.00527338 0)
(0.0259854 0.0051898 0)
(0.00879722 0.00504054 0)
(-0.00781522 0.00484818 0)
(-0.0237586 0.00463902 0)
(-0.0389216 0.00438382 0)
(-0.0531944 0.0041112 0)
(-0.0665235 0.00382998 0)
(-0.0788433 0.00350577 0)
(-0.0901395 0.0032062 0)
(-0.10038 0.0029085 0)
(-0.109619 0.00260018 0)
(-0.117908 0.00231467 0)
(-0.125223 0.00203159 0)
(-0.131607 0.00178575 0)
(-0.137178 0.00153371 0)
(-0.141972 0.00130511 0)
(-0.14597 0.00109961 0)
(-0.149315 0.000892276 0)
(-0.152028 0.000697768 0)
(-0.154094 0.000545787 0)
(-0.15562 0.00038334 0)
(-0.156656 0.000238968 0)
(-0.157206 9.3751e-05 0)
(-0.157287 -4.66496e-05 0)
(-0.156898 -0.000179781 0)
(-0.156084 -0.000298953 0)
(-0.154849 -0.000431759 0)
(-0.153192 -0.000560573 0)
(-0.151054 -0.000710069 0)
(-0.148425 -0.00084919 0)
(-0.145269 -0.00101359 0)
(-0.141607 -0.00116251 0)
(-0.137439 -0.00133372 0)
(-0.132726 -0.00148357 0)
(-0.127448 -0.00164284 0)
(-0.12157 -0.00182837 0)
(-0.115128 -0.00200685 0)
(-0.108071 -0.00221278 0)
(-0.100336 -0.00239671 0)
(-0.091863 -0.00261706 0)
(-0.0827119 -0.00285245 0)
(-0.072781 -0.00305384 0)
(-0.0620335 -0.00329848 0)
(-0.0505554 -0.00354196 0)
(-0.0382498 -0.0037806 0)
(-0.025138 -0.0040102 0)
(-0.0112618 -0.00424756 0)
(0.00340444 -0.00445205 0)
(0.0187443 -0.0046447 0)
(0.0346448 -0.00481434 0)
(0.051043 -0.00493601 0)
(0.0677815 -0.00501247 0)
(0.0846868 -0.00503526 0)
(0.101542 -0.0049964 0)
(0.118156 -0.0048826 0)
(0.134292 -0.00469411 0)
(0.149653 -0.00444138 0)
(0.164021 -0.0041128 0)
(0.177144 -0.00369739 0)
(0.188767 -0.00319786 0)
(0.198614 -0.00264168 0)
(0.206477 -0.0020214 0)
(0.212158 -0.00135413 0)
(0.215489 -0.00064378 0)
(0.216402 9.47103e-05 0)
(0.214835 0.000844158 0)
(0.210608 0.00159225 0)
(0.20407 0.00229816 0)
(0.195246 0.00294623 0)
(0.184304 0.00353233 0)
(0.171543 0.00405356 0)
(0.15717 0.00449422 0)
(0.141435 0.00484496 0)
(0.124669 0.00512572 0)
(0.107127 0.00528727 0)
(0.0891324 0.0054066 0)
(0.0710002 0.00540007 0)
(0.0529404 0.00534074 0)
(0.0351715 0.00522032 0)
(0.017886 0.00504969 0)
(0.00124242 0.00486933 0)
(-0.0146633 0.00462989 0)
(-0.0297743 0.00435615 0)
(-0.0440175 0.0040925 0)
(-0.0572982 0.00382706 0)
(-0.0696411 0.00354085 0)
(-0.0810838 0.00327437 0)
(-0.0916111 0.0030016 0)
(-0.101264 0.00274355 0)
(-0.110099 0.00250033 0)
(-0.118115 0.00225392 0)
(-0.125326 0.00205345 0)
(-0.131817 0.00183225 0)
(-0.137624 0.00163393 0)
(-0.142803 0.00144749 0)
(-0.147353 0.00125456 0)
(-0.151271 0.00108106 0)
(-0.154588 0.000895056 0)
(-0.157316 0.00072898 0)
(-0.159491 0.000561627 0)
(-0.161088 0.000378154 0)
(-0.16207 0.000216459 0)
(-0.162478 4.75033e-05 0)
(-0.162318 -0.000131549 0)
(-0.161577 -0.000309946 0)
(-0.160178 -0.000518131 0)
(-0.158147 -0.000719304 0)
(-0.155377 -0.000918846 0)
(-0.15183 -0.00116022 0)
(-0.147551 -0.00139055 0)
(-0.142465 -0.00163804 0)
(-0.1365 -0.00189282 0)
(-0.12968 -0.00215969 0)
(-0.122005 -0.00241901 0)
(-0.113383 -0.00269911 0)
(-0.103833 -0.00298505 0)
(-0.0933508 -0.00324658 0)
(-0.0819269 -0.0035302 0)
(-0.069624 -0.00379892 0)
(-0.0564364 -0.00407426 0)
(-0.0423737 -0.00427676 0)
(-0.0274971 -0.00452761 0)
(-0.0119195 -0.00474065 0)
(0.00455603 -0.00491052 0)
(0.0217307 -0.00505979 0)
(0.0392375 -0.00517013 0)
(0.0570531 -0.00523472 0)
(0.0750005 -0.00522828 0)
(0.0928816 -0.00516023 0)
(0.110405 -0.00502505 0)
(0.127361 -0.00480441 0)
(0.143528 -0.00453901 0)
(0.158627 -0.00420288 0)
(0.172416 -0.00380097 0)
(0.184687 -0.00336676 0)
(0.195216 -0.00282914 0)
(0.203715 -0.00227327 0)
(0.209952 -0.00161951 0)
(0.213812 -0.000938117 0)
(0.215137 -0.000211702 0)
(0.213949 0.000568004 0)
(0.21021 0.00136428 0)
(0.20401 0.00217142 0)
(0.195254 0.00296322 0)
(0.184157 0.00365497 0)
(0.170769 0.00430834 0)
(0.155406 0.00481366 0)
(0.138418 0.00525273 0)
(0.120104 0.00557518 0)
(0.101008 0.00574496 0)
(0.081471 0.00585659 0)
(0.0618029 0.00587067 0)
(0.0425441 0.0057799 0)
(0.0239533 0.00564797 0)
(0.00454071 0.00548735 0)
(-0.0151686 0.00520215 0)
(-0.0334181 0.00493338 0)
(-0.0503793 0.00461933 0)
(-0.0660939 0.00431961 0)
(-0.0806285 0.00400818 0)
(-0.0939629 0.00367915 0)
(-0.106129 0.00336834 0)
(-0.117162 0.00305794 0)
(-0.127079 0.00274534 0)
(-0.13592 0.00244892 0)
(-0.143721 0.00215335 0)
(-0.150519 0.00187177 0)
(-0.156348 0.00159589 0)
(-0.161236 0.00132347 0)
(-0.165206 0.00105867 0)
(-0.16827 0.000795559 0)
(-0.170444 0.000527726 0)
(-0.171711 0.00026241 0)
(-0.172118 7.22212e-07 0)
(-0.171631 -0.000253574 0)
(-0.170284 -0.000516626 0)
(-0.168065 -0.000785709 0)
(-0.164952 -0.00105881 0)
(-0.160904 -0.00133814 0)
(-0.155904 -0.00163164 0)
(-0.14993 -0.00192317 0)
(-0.142954 -0.0022356 0)
(-0.134952 -0.00253803 0)
(-0.125899 -0.00284447 0)
(-0.115777 -0.0031829 0)
(-0.104579 -0.00349192 0)
(-0.0922989 -0.00379643 0)
(-0.0789428 -0.00414512 0)
(-0.0645338 -0.00443218 0)
(-0.0491155 -0.00469839 0)
(-0.0327411 -0.00501855 0)
(-0.0155471 -0.00523397 0)
(0.00245836 -0.00548867 0)
(0.0211418 -0.00562304 0)
(0.0402417 -0.00569883 0)
(0.0596435 -0.00582752 0)
(0.0791472 -0.00578395 0)
(0.0985183 -0.00566943 0)
(0.11753 -0.0055947 0)
(0.13593 -0.0053342 0)
(0.153457 -0.00509489 0)
(0.169846 -0.00468148 0)
(0.184825 -0.00419949 0)
(0.198153 -0.00370989 0)
(0.209599 -0.00310095 0)
(0.218964 -0.00244871 0)
(0.226082 -0.00177 0)
(0.230821 -0.0010485 0)
(0.233094 -0.000304205 0)
(0.232867 0.000436311 0)
(0.230188 0.00117725 0)
(0.225019 0.00188318 0)
(0.217526 0.00256609 0)
(0.206764 0.0032151 0)
(-0.120169 0.00487526 0)
(-0.1285 0.00439076 0)
(-0.136919 0.0039526 0)
(-0.144446 0.00352592 0)
(-0.15112 0.00310039 0)
(-0.156972 0.00270547 0)
(-0.162034 0.00231597 0)
(-0.166336 0.00194809 0)
(-0.169901 0.00158932 0)
(-0.172748 0.00123623 0)
(-0.174895 0.000890929 0)
(-0.176356 0.000546606 0)
(-0.177114 0.000214403 0)
(-0.177207 -0.000127376 0)
(-0.176602 -0.000473333 0)
(-0.175303 -0.000820806 0)
(-0.173295 -0.0011739 0)
(-0.170565 -0.00153827 0)
(-0.167097 -0.00190771 0)
(-0.162869 -0.00228631 0)
(-0.157859 -0.00268805 0)
(-0.152039 -0.00309043 0)
(-0.145381 -0.00350443 0)
(-0.137857 -0.00395773 0)
(-0.129433 -0.00439788 0)
(-0.120083 -0.00488862 0)
(-0.109782 -0.00534808 0)
(-0.0985142 -0.00580874 0)
(-0.0862668 -0.0063382 0)
(-0.0730406 -0.00678911 0)
(-0.0588573 -0.00721824 0)
(-0.0437463 -0.00773447 0)
(-0.0277637 -0.0081016 0)
(-0.0109874 -0.00855391 0)
(0.00648048 -0.00880946 0)
(0.0244855 -0.00898091 0)
(0.0428863 -0.00924182 0)
(0.0615127 -0.00924181 0)
(0.0801452 -0.00912737 0)
(0.0985708 -0.00907097 0)
(0.116561 -0.00874083 0)
(0.133882 -0.00842507 0)
(0.15029 -0.00786981 0)
(0.165539 -0.0072004 0)
(0.179398 -0.00649349 0)
(0.191645 -0.0056273 0)
(0.202089 -0.00467176 0)
(0.210556 -0.00366411 0)
(0.216893 -0.00257706 0)
(0.220986 -0.00142968 0)
(0.222761 -0.000312587 0)
(0.222257 0.000854179 0)
(0.219325 0.00197889 0)
(0.214169 0.0030836 0)
(0.206859 0.00416648 0)
(0.197498 0.0050775 0)
(0.186297 0.00596091 0)
(0.173449 0.00679687 0)
(0.159142 0.00737301 0)
(0.143649 0.00795672 0)
(0.1272 0.00830502 0)
(0.110023 0.00865115 0)
(0.0924133 0.00886093 0)
(0.0744954 0.00889654 0)
(0.0565045 0.00890783 0)
(0.0386401 0.0088152 0)
(0.0210815 0.00859596 0)
(0.00395924 0.00836612 0)
(-0.0126176 0.00803888 0)
(-0.0285658 0.00770437 0)
(-0.0437353 0.00730481 0)
(-0.0580555 0.00688635 0)
(-0.0715461 0.00647376 0)
(-0.0841231 0.00601426 0)
(-0.0957754 0.00554925 0)
(-0.106532 0.00510964 0)
(-0.116352 0.00463691 0)
(-0.125319 0.00421017 0)
(-0.133414 0.00375957 0)
(-0.14058 0.00334939 0)
(-0.146931 0.00298062 0)
(-0.152488 0.00254717 0)
(-0.157214 0.00214643 0)
(-0.161151 0.00175931 0)
(-0.164315 0.0013782 0)
(-0.166678 0.000956813 0)
(-0.168247 0.000589048 0)
(-0.169023 0.000197976 0)
(-0.168998 -0.000204846 0)
(-0.168213 -0.000582397 0)
(-0.16666 -0.000955766 0)
(-0.164351 -0.00130888 0)
(-0.161369 -0.00164994 0)
(-0.157728 -0.00198318 0)
(-0.153426 -0.00227364 0)
(-0.148493 -0.00262086 0)
(-0.142893 -0.00293341 0)
(-0.13665 -0.00323865 0)
(-0.129791 -0.00358629 0)
(-0.122258 -0.00388977 0)
(-0.114062 -0.0042303 0)
(-0.105185 -0.00457912 0)
(-0.0956171 -0.00490785 0)
(-0.0853231 -0.00529108 0)
(-0.0742918 -0.00564036 0)
(-0.0625516 -0.00600099 0)
(-0.0501021 -0.00634966 0)
(-0.0369499 -0.0066782 0)
(-0.023154 -0.00698337 0)
(-0.00877419 -0.00725342 0)
(0.00612299 -0.00748117 0)
(0.0214256 -0.00766984 0)
(0.0370607 -0.00782651 0)
(0.0529426 -0.00790409 0)
(0.0689382 -0.00793498 0)
(0.0849148 -0.00789347 0)
(0.100734 -0.00777383 0)
(0.116227 -0.0075693 0)
(0.131238 -0.0073015 0)
(0.145602 -0.00690545 0)
(0.159103 -0.00645192 0)
(0.171561 -0.00589463 0)
(0.182801 -0.00522239 0)
(0.192631 -0.00448543 0)
(0.200863 -0.0036496 0)
(0.207336 -0.00275111 0)
(0.211916 -0.00177942 0)
(0.214471 -0.000765938 0)
(0.214935 0.000286325 0)
(0.213238 0.00137257 0)
(0.209349 0.00243587 0)
(0.203394 0.00346258 0)
(0.195416 0.00442474 0)
(0.185552 0.00533783 0)
(0.173931 0.00615561 0)
(0.160753 0.00687898 0)
(0.146202 0.00749911 0)
(0.130544 0.00799926 0)
(0.114005 0.00839109 0)
(0.0967806 0.00866344 0)
(0.0791351 0.00881641 0)
(0.0612699 0.00885527 0)
(0.0434453 0.00879717 0)
(0.0258515 0.00865762 0)
(0.00864542 0.00839648 0)
(-0.00796859 0.00808608 0)
(-0.0239152 0.00773963 0)
(-0.0390837 0.00731523 0)
(-0.0533619 0.00685125 0)
(-0.0667074 0.00637715 0)
(-0.0790302 0.00584239 0)
(-0.090327 0.00534803 0)
(-0.100574 0.00484445 0)
(-0.109801 0.00433392 0)
(-0.118087 0.00386171 0)
(-0.1254 0.00338346 0)
(-0.13178 0.00298117 0)
(-0.13735 0.00254902 0)
(-0.142129 0.00216978 0)
(-0.146123 0.00183395 0)
(-0.149464 0.00147911 0)
(-0.152163 0.00117189 0)
(-0.154231 0.000915905 0)
(-0.155761 0.000631272 0)
(-0.156797 0.000395289 0)
(-0.157345 0.000161941 0)
(-0.157422 -7.90343e-05 0)
(-0.157024 -0.00030526 0)
(-0.156208 -0.000492251 0)
(-0.154981 -0.00072626 0)
(-0.153321 -0.000926256 0)
(-0.151195 -0.0011769 0)
(-0.148577 -0.00142469 0)
(-0.14542 -0.00169784 0)
(-0.141755 -0.00192966 0)
(-0.137578 -0.00221335 0)
(-0.132869 -0.00248034 0)
(-0.1276 -0.00273368 0)
(-0.121726 -0.00305089 0)
(-0.115281 -0.00334178 0)
(-0.108223 -0.00367917 0)
(-0.100491 -0.00399516 0)
(-0.0920256 -0.00436392 0)
(-0.0828688 -0.00475321 0)
(-0.0729402 -0.00509789 0)
(-0.0621987 -0.00550393 0)
(-0.0507124 -0.00589927 0)
(-0.0384056 -0.00629473 0)
(-0.0252984 -0.00668867 0)
(-0.0114155 -0.00706913 0)
(0.00325536 -0.00742884 0)
(0.0186088 -0.00774574 0)
(0.0345216 -0.00802603 0)
(0.0509294 -0.00823954 0)
(0.0676927 -0.00835237 0)
(0.0846017 -0.00839251 0)
(0.101473 -0.00832896 0)
(0.118112 -0.00813081 0)
(0.134258 -0.00783877 0)
(0.14965 -0.0074061 0)
(0.164045 -0.00685646 0)
(0.177192 -0.00615357 0)
(0.188821 -0.00533265 0)
(0.198682 -0.00441178 0)
(0.206565 -0.0033735 0)
(0.212257 -0.00225939 0)
(0.215602 -0.00107169 0)
(0.216522 0.000167942 0)
(0.214926 0.00140787 0)
(0.210711 0.00265667 0)
(0.204163 0.00383809 0)
(0.195316 0.00491062 0)
(0.184361 0.00589118 0)
(0.171571 0.00676518 0)
(0.157174 0.0074923 0)
(0.141428 0.00808355 0)
(0.124637 0.00854707 0)
(0.107071 0.00882156 0)
(0.0890462 0.00900504 0)
(0.0708893 0.0089975 0)
(0.0528207 0.00890595 0)
(0.035034 0.00871056 0)
(0.0177404 0.00842141 0)
(0.00108912 0.00811356 0)
(-0.0148297 0.00771219 0)
(-0.0299422 0.00726206 0)
(-0.0441851 0.00682431 0)
(-0.0574713 0.00638117 0)
(-0.0698223 0.00590218 0)
(-0.0812684 0.00544964 0)
(-0.0917816 0.00500454 0)
(-0.101423 0.0045774 0)
(-0.110259 0.00416218 0)
(-0.118263 0.00375541 0)
(-0.125478 0.00342472 0)
(-0.13197 0.00304651 0)
(-0.137764 0.00272295 0)
(-0.142934 0.00241597 0)
(-0.147485 0.00209775 0)
(-0.151411 0.00179843 0)
(-0.154729 0.00149505 0)
(-0.157461 0.00121371 0)
(-0.159644 0.000930203 0)
(-0.161235 0.000628148 0)
(-0.162218 0.000373975 0)
(-0.162629 7.0995e-05 0)
(-0.162466 -0.000220769 0)
(-0.161733 -0.000521823 0)
(-0.160335 -0.000861882 0)
(-0.158296 -0.00118746 0)
(-0.155536 -0.00153847 0)
(-0.151988 -0.00193396 0)
(-0.147713 -0.00231586 0)
(-0.142633 -0.0027377 0)
(-0.136666 -0.00315046 0)
(-0.129848 -0.0035954 0)
(-0.122179 -0.00403885 0)
(-0.113559 -0.00449627 0)
(-0.104003 -0.00497163 0)
(-0.0935207 -0.0054183 0)
(-0.0820957 -0.0058925 0)
(-0.0697887 -0.00633316 0)
(-0.0565786 -0.0067855 0)
(-0.042503 -0.00711417 0)
(-0.0276357 -0.00754742 0)
(-0.0120433 -0.00789937 0)
(0.00444939 -0.00818598 0)
(0.0216329 -0.00844324 0)
(0.039159 -0.00862273 0)
(0.0569953 -0.00872454 0)
(0.074968 -0.00871646 0)
(0.0928673 -0.00860465 0)
(0.110417 -0.0083804 0)
(0.127396 -0.00800955 0)
(0.143574 -0.00756705 0)
(0.158694 -0.0070009 0)
(0.172494 -0.00634182 0)
(0.184784 -0.0056113 0)
(0.19533 -0.0047165 0)
(0.203844 -0.00379342 0)
(0.2101 -0.00270561 0)
(0.213974 -0.00156684 0)
(0.21531 -0.000354173 0)
(0.21411 0.000945635 0)
(0.21039 0.00227263 0)
(0.204198 0.00361839 0)
(0.19544 0.00494094 0)
(0.184328 0.00609445 0)
(0.170919 0.00718436 0)
(0.155531 0.00802727 0)
(0.138514 0.00875861 0)
(0.120173 0.00929671 0)
(0.10105 0.00957927 0)
(0.0814874 0.00976497 0)
(0.0617982 0.00978903 0)
(0.0425208 0.00963817 0)
(0.0239159 0.00942036 0)
(0.00448736 0.00916316 0)
(-0.0152359 0.00866848 0)
(-0.0334907 0.00822414 0)
(-0.0504553 0.00769905 0)
(-0.0661731 0.00719981 0)
(-0.0807096 0.00668026 0)
(-0.0940436 0.0061318 0)
(-0.10621 0.00561376 0)
(-0.117241 0.00509631 0)
(-0.127157 0.00457507 0)
(-0.135996 0.00408103 0)
(-0.143795 0.00358853 0)
(-0.150591 0.00311878 0)
(-0.156418 0.00265866 0)
(-0.161305 0.00220535 0)
(-0.165274 0.0017644 0)
(-0.168338 0.00132527 0)
(-0.170514 0.000878873 0)
(-0.171784 0.000441024 0)
(-0.172188 3.09164e-06 0)
(-0.171698 -0.000421718 0)
(-0.170354 -0.000860418 0)
(-0.168137 -0.00130917 0)
(-0.165025 -0.00176411 0)
(-0.160979 -0.00223003 0)
(-0.155981 -0.0027191 0)
(-0.150009 -0.00320493 0)
(-0.143035 -0.0037257 0)
(-0.135035 -0.00422977 0)
(-0.125982 -0.00474053 0)
(-0.115863 -0.00530473 0)
(-0.104664 -0.00581991 0)
(-0.0923829 -0.00632751 0)
(-0.0790264 -0.00690897 0)
(-0.0646135 -0.00738759 0)
(-0.04919 -0.00783148 0)
(-0.0328107 -0.00836542 0)
(-0.0156057 -0.00872577 0)
(0.00240914 -0.0091488 0)
(0.0211036 -0.009374 0)
(0.0402183 -0.00950049 0)
(0.0596358 -0.00971534 0)
(0.0791569 -0.00964289 0)
(0.0985461 -0.00945216 0)
(0.117579 -0.00932789 0)
(0.135998 -0.00889374 0)
(0.153549 -0.00849502 0)
(0.169957 -0.00780583 0)
(0.184954 -0.00700223 0)
(0.198302 -0.00618599 0)
(0.209763 -0.00517066 0)
(0.21914 -0.00408307 0)
(0.22627 -0.00295131 0)
(0.231014 -0.00174792 0)
(0.233293 -0.000506237 0)
(0.233069 0.000725905 0)
(0.230376 0.00196296 0)
(0.225202 0.00313951 0)
(0.217699 0.00427874 0)
(0.206925 0.00536097 0)
(-0.120281 0.00682469 0)
(-0.128608 0.00614625 0)
(-0.137024 0.00553276 0)
(-0.144548 0.00493537 0)
(-0.151216 0.00433965 0)
(-0.157066 0.0037868 0)
(-0.162124 0.00324161 0)
(-0.166423 0.00272666 0)
(-0.169985 0.00222449 0)
(-0.17283 0.00173028 0)
(-0.174976 0.00124721 0)
(-0.176434 0.000766417 0)
(-0.177199 0.000297855 0)
(-0.177288 -0.000179208 0)
(-0.176684 -0.000662737 0)
(-0.175387 -0.00114889 0)
(-0.17338 -0.00164317 0)
(-0.170652 -0.00215315 0)
(-0.167186 -0.00267024 0)
(-0.162961 -0.00320019 0)
(-0.157954 -0.00376255 0)
(-0.152138 -0.00432584 0)
(-0.145483 -0.00490541 0)
(-0.137963 -0.00554004 0)
(-0.129542 -0.0061563 0)
(-0.120196 -0.00684347 0)
(-0.109897 -0.00748689 0)
(-0.0986291 -0.00813207 0)
(-0.0863831 -0.0088737 0)
(-0.073154 -0.00950542 0)
(-0.0589656 -0.0101067 0)
(-0.0438499 -0.01083 0)
(-0.0278564 -0.0113439 0)
(-0.0110686 -0.0119796 0)
(0.00641496 -0.0123373 0)
(0.0244385 -0.0125779 0)
(0.0428606 -0.0129439 0)
(0.0615108 -0.0129443 0)
(0.0801681 -0.0127844 0)
(0.0986229 -0.012706 0)
(0.116639 -0.0122438 0)
(0.133993 -0.0118019 0)
(0.150428 -0.0110245 0)
(0.165702 -0.0100867 0)
(0.17959 -0.00909734 0)
(0.191859 -0.00788438 0)
(0.202324 -0.00654545 0)
(0.21081 -0.00513531 0)
(0.217162 -0.00361268 0)
(0.221264 -0.00200607 0)
(0.223046 -0.000439775 0)
(0.222512 0.00121108 0)
(0.219577 0.0027712 0)
(0.214421 0.00431902 0)
(0.207097 0.00583674 0)
(0.197714 0.00711373 0)
(0.186491 0.00834972 0)
(0.173619 0.009523 0)
(0.159283 0.0103277 0)
(0.143762 0.0111469 0)
(0.127286 0.0116322 0)
(0.11008 0.0121193 0)
(0.0924423 0.0124112 0)
(0.0745028 0.0124608 0)
(0.0564889 0.0124762 0)
(0.0386037 0.0123462 0)
(0.0210296 0.0120388 0)
(0.00389145 0.0117163 0)
(-0.0126962 0.0112569 0)
(-0.0286559 0.010788 0)
(-0.0438319 0.0102293 0)
(-0.0581556 0.00964312 0)
(-0.0716529 0.00906303 0)