/*--------------------------------*- C++ -*----------------------------------*\
| =========                 |                                                 |
| \\      /  F ield         | OpenFOAM: The Open Source CFD Toolbox           |
|  \\    /   O peration     | Version:  3.0.1                                 |
|   \\  /    A nd           | Web:      www.OpenFOAM.org                      |
|    \\/     M anipulation  |                                                 |
\*---------------------------------------------------------------------------*/
FoamFile
{
    version     2.0;
    format      ascii;
    class       surfaceScalarField;
    location    "44.6";
    object      alphaPhi;
}
// * * * * * * * * * * * * * * * * * * * * * * * * * * * * * * * * * * * * * //

dimensions      [0 3 -1 0 0 0 0];

internalField   nonuniform List<scalar> 
42423
(
0.000207304
6.83654e-06
0.000198647
8.65676e-06
0.000187892
1.07553e-05
0.000175112
1.27798e-05
0.000160836
1.4276e-05
0.000145024
1.58116e-05
0.0001281
1.69245e-05
0.000110239
1.7861e-05
9.1666e-05
1.85727e-05
7.27479e-05
1.89181e-05
5.36847e-05
1.90632e-05
3.47006e-05
1.89841e-05
1.60663e-05
1.86343e-05
-2.13344e-06
1.81997e-05
-1.97021e-05
1.75687e-05
-3.6561e-05
1.68589e-05
-5.25596e-05
1.59987e-05
-6.76411e-05
1.50814e-05
-8.1781e-05
1.414e-05
-9.49173e-05
1.31363e-05
-0.000107038
1.21204e-05
-0.00011817
1.11326e-05
-0.000128304
1.0134e-05
-0.000137458
9.15403e-06
-0.000145658
8.1996e-06
-0.000152935
7.27707e-06
-0.000159338
6.40329e-06
-0.000164882
5.544e-06
-0.000169598
4.71611e-06
-0.000173525
3.92682e-06
-0.000176688
3.1625e-06
-0.000179118
2.43005e-06
-0.000180815
1.69736e-06
-0.00018184
1.02478e-06
-0.000182168
3.27843e-07
-0.000181744
-4.24046e-07
-0.000180594
-1.14973e-06
-0.000178722
-1.87226e-06
-0.000176126
-2.59583e-06
-0.000172712
-3.41363e-06
-0.000168556
-4.15625e-06
-0.000163515
-5.04115e-06
-0.00015769
-5.82491e-06
-0.000151054
-6.63581e-06
-0.000143478
-7.57579e-06
-0.000135014
-8.46396e-06
-0.000125702
-9.31215e-06
-0.000115374
-1.03281e-05
-0.00010404
-1.13348e-05
-9.1921e-05
-1.21186e-05
-7.86465e-05
-1.32745e-05
-6.45999e-05
-1.40467e-05
-4.94822e-05
-1.51177e-05
-3.35027e-05
-1.59795e-05
-1.68741e-05
-1.66287e-05
4.88404e-07
-1.73625e-05
1.84513e-05
-1.79629e-05
3.66569e-05
-1.82057e-05
5.52073e-05
-1.85505e-05
7.37234e-05
-1.85161e-05
9.21548e-05
-1.84315e-05
0.000110241
-1.80867e-05
0.000127541
-1.72995e-05
0.00014396
-1.64195e-05
0.000159301
-1.53412e-05
0.000173192
-1.38909e-05
0.000185519
-1.23272e-05
0.000196057
-1.05375e-05
0.000204646
-8.58903e-06
0.000211233
-6.58693e-06
0.000215537
-4.30452e-06
0.000217616
-2.07923e-06
0.000217341
2.7546e-07
0.000214697
2.64359e-06
0.000209755
4.94249e-06
0.000202567
7.18774e-06
0.000193355
9.21169e-06
0.000182151
1.12048e-05
0.000169157
1.29933e-05
0.000154643
1.45148e-05
0.000138789
1.58535e-05
0.000121869
1.69203e-05
0.000104143
1.77261e-05
8.58363e-05
1.83069e-05
6.72626e-05
1.85738e-05
4.86301e-05
1.86326e-05
3.01209e-05
1.85092e-05
1.1982e-05
1.81389e-05
-5.68083e-06
1.76629e-05
-2.27704e-05
1.70896e-05
-3.91479e-05
1.63775e-05
-5.47676e-05
1.56196e-05
-6.95349e-05
1.47673e-05
-8.34231e-05
1.38881e-05
-9.6386e-05
1.29628e-05
-0.000108303
1.19168e-05
-0.000119237
1.09341e-05
-0.00012912
9.88298e-06
-0.000138012
8.89236e-06
-0.000145909
7.89607e-06
-0.00015274
6.83128e-06
-0.000158642
5.90176e-06
-0.000163561
4.91936e-06
-0.000167588
4.02685e-06
-0.000170762
3.17415e-06
-0.000173154
2.39222e-06
-0.00017476
1.60524e-06
-0.000175664
9.04675e-07
-0.000175864
1.99326e-07
-0.000175473
-3.91014e-07
-0.00017439
-1.08294e-06
-0.000172671
-1.71839e-06
-0.000170311
-2.36027e-06
-0.000167316
-2.99511e-06
-0.000163707
-3.60916e-06
-0.000159449
-4.25733e-06
-0.000154544
-4.90578e-06
-0.000148969
-5.57453e-06
-0.000142688
-6.28096e-06
-0.000135759
-6.92966e-06
-0.00012812
-7.63889e-06
-0.000119752
-8.36783e-06
-0.000110681
-9.07134e-06
-0.000100855
-9.8259e-06
-9.03585e-05
-1.04964e-05
-7.91281e-05
-1.12305e-05
-6.7187e-05
-1.19412e-05
-5.45645e-05
-1.26226e-05
-4.1247e-05
-1.33176e-05
-2.72832e-05
-1.39639e-05
-1.27411e-05
-1.45422e-05
2.36738e-06
-1.51086e-05
1.79699e-05
-1.56026e-05
3.39663e-05
-1.59966e-05
5.02299e-05
-1.62637e-05
6.66435e-05
-1.64137e-05
8.30287e-05
-1.63853e-05
9.92179e-05
-1.61894e-05
0.000115009
-1.5791e-05
0.000130165
-1.51558e-05
0.000144442
-1.42776e-05
0.000157627
-1.31849e-05
0.000169479
-1.18526e-05
0.000179754
-1.02744e-05
0.000188274
-8.52083e-06
0.000194854
-6.57934e-06
0.000199294
-4.43992e-06
0.0002015
-2.20635e-06
0.000201423
7.66626e-08
0.000199018
2.40479e-06
0.000194286
4.73224e-06
0.000187333
6.95339e-06
0.000178215
9.11724e-06
0.000167172
1.10432e-05
0.000154334
1.2838e-05
0.000139965
1.43691e-05
0.000124257
1.57076e-05
0.000107525
1.67325e-05
8.99871e-05
1.75377e-05
7.19356e-05
1.80515e-05
5.36793e-05
1.82563e-05
3.54581e-05
1.82212e-05
1.74373e-05
1.80208e-05
-7.64292e-08
1.75137e-05
-1.70142e-05
1.69378e-05
-3.3101e-05
1.60868e-05
-4.83106e-05
1.52096e-05
-6.25321e-05
1.42215e-05
-7.57412e-05
1.32091e-05
-8.78628e-05
1.21216e-05
-9.89084e-05
1.10456e-05
-0.000108874
9.96567e-06
-0.000117879
9.00484e-06
-0.000125886
8.00731e-06
-0.000133003
7.11643e-06
-0.000139235
6.23195e-06
-0.000144697
5.46217e-06
-0.000149381
4.68385e-06
-0.00015332
3.93953e-06
-0.000156579
3.25856e-06
-0.000159231
2.65198e-06
-0.000161238
2.00719e-06
-0.000162688
1.45011e-06
-0.000163576
8.88596e-07
-0.000164027
4.51006e-07
-0.000163969
-5.80368e-08
-0.000163445
-5.24365e-07
-0.000162564
-8.81427e-07
-0.000161214
-1.34912e-06
-0.000159463
-1.75154e-06
-0.000157333
-2.13037e-06
-0.000154752
-2.58017e-06
-0.000151766
-2.98688e-06
-0.000148349
-3.41643e-06
-0.000144491
-3.85863e-06
-0.000140171
-4.3195e-06
-0.000135378
-4.79325e-06
-0.000130078
-5.29941e-06
-0.000124228
-5.85092e-06
-0.000117818
-6.41006e-06
-0.000110754
-7.06378e-06
-0.000103064
-7.68962e-06
-9.46419e-05
-8.42242e-06
-8.5467e-05
-9.17494e-06
-7.56234e-05
-9.84368e-06
-6.49285e-05
-1.0695e-05
-5.34293e-05
-1.14993e-05
-4.11798e-05
-1.22496e-05
-2.81477e-05
-1.30321e-05
-1.43925e-05
-1.37553e-05
-4.14053e-08
-1.43512e-05
1.49494e-05
-1.49909e-05
3.0375e-05
-1.54258e-05
4.61836e-05
-1.58087e-05
6.21887e-05
-1.60052e-05
7.82113e-05
-1.60227e-05
9.40278e-05
-1.58166e-05
0.000109413
-1.5385e-05
0.000124155
-1.47427e-05
0.000138001
-1.38462e-05
0.00015071
-1.27085e-05
0.000162066
-1.13568e-05
0.000171854
-9.7876e-06
0.000179866
-8.01189e-06
0.00018585
-5.98389e-06
0.000189789
-3.93937e-06
0.000191553
-1.76428e-06
0.000191081
4.71785e-07
0.000188398
2.68368e-06
0.000183532
4.86597e-06
0.000176635
6.8961e-06
0.000167862
8.77362e-06
0.000157342
1.05199e-05
0.000145362
1.19798e-05
0.000132098
1.32642e-05
0.000117824
1.42736e-05
0.000102797
1.5027e-05
8.72163e-05
1.55808e-05
7.13267e-05
1.58895e-05
5.54e-05
1.59267e-05
3.95601e-05
1.58398e-05
2.40158e-05
1.55444e-05
8.86578e-06
1.515e-05
-5.71089e-06
1.45767e-05
-1.97684e-05
1.40576e-05
-3.30431e-05
1.32747e-05
-4.56305e-05
1.25873e-05
-5.74032e-05
1.17728e-05
-6.84205e-05
1.10172e-05
-7.86372e-05
1.02168e-05
-8.80526e-05
9.41542e-06
-9.67611e-05
8.70845e-06
-0.000104802
8.041e-06
-0.000112159
7.35689e-06
-0.000118928
6.76861e-06
-0.000125064
6.13616e-06
-0.000130669
5.60577e-06
-0.000135707
5.03809e-06
-0.000140226
4.51852e-06
-0.000144327
4.10088e-06
-0.000147904
3.57689e-06
-0.000151059
3.15601e-06
-0.000153737
2.67778e-06
-0.000156081
2.34372e-06
-0.00015791
1.82978e-06
-0.00015935
1.43926e-06
-0.000160382
1.03266e-06
-0.000160959
5.77254e-07
-0.000161027
6.80776e-08
-0.000160613
-4.14234e-07
-0.000159559
-1.05401e-06
-0.000157912
-1.6463e-06
-0.000155529
-2.38361e-06
-0.000152471
-3.05785e-06
-0.000148799
-3.67105e-06
-0.000144419
-4.38067e-06
-0.000139281
-5.13735e-06
-0.000133237
-6.044e-06
-0.000126369
-6.86877e-06
-0.000118333
-8.03533e-06
-0.000109209
-9.12445e-06
-9.87348e-05
-1.04741e-05
-8.68833e-05
-1.18516e-05
-7.37419e-05
-1.31414e-05
-5.92521e-05
-1.44899e-05
-4.35486e-05
-1.57035e-05
-2.70973e-05
-1.64514e-05
-9.87467e-06
-1.72227e-05
7.8638e-06
-1.77386e-05
2.61962e-05
-1.83325e-05
4.50075e-05
-1.88114e-05
6.39611e-05
-1.89537e-05
8.30363e-05
-1.90753e-05
0.00010212
-1.90834e-05
0.000120839
-1.87191e-05
0.000139102
-1.82631e-05
0.000156666
-1.75649e-05
0.000173153
-1.6487e-05
0.000188414
-1.52605e-05
0.000202051
-1.36372e-05
0.000213915
-1.1864e-05
0.00022379
-9.87547e-06
0.000231336
-7.54611e-06
0.000236471
-5.13497e-06
0.000238977
-2.50586e-06
0.00023887
1.0653e-07
0.000236545
2.32461e-06
0.000231809
4.73595e-06
0.000224879
6.93012e-06
0.000215759
9.11976e-06
0.000204391
1.1368e-05
0.000191116
1.32754e-05
0.000176208
1.49076e-05
0.000159784
1.64242e-05
0.00014222
1.75637e-05
0.00012378
1.84404e-05
0.000104787
1.89925e-05
8.54313e-05
1.93558e-05
6.60206e-05
1.94107e-05
4.67097e-05
1.93109e-05
2.77726e-05
1.8937e-05
9.43985e-06
1.83327e-05
-8.34618e-06
1.7786e-05
-2.529e-05
1.69438e-05
-4.13272e-05
1.60371e-05
-5.64099e-05
1.50827e-05
-7.04588e-05
1.40489e-05
-8.34428e-05
1.29839e-05
-9.53939e-05
1.19511e-05
-0.000106294
1.09e-05
-0.000116132
9.83807e-06
-0.000124959
8.82684e-06
-0.000132784
7.82525e-06
-0.000139628
6.84432e-06
-0.000145546
5.91725e-06
-0.000150543
4.99758e-06
-0.000154679
4.13591e-06
-0.00015797
3.29073e-06
-0.000160431
2.46166e-06
-0.000162104
1.67209e-06
-0.000163006
9.02506e-07
-0.000163108
1.02062e-07
-0.000162422
-6.8608e-07
-0.00016089
-1.53168e-06
-0.000158599
-2.29103e-06
-0.000155593
-3.00683e-06
-0.000151628
-3.9648e-06
-0.000146835
-4.79321e-06
-0.000141191
-5.64308e-06
-0.00013456
-6.63175e-06
-0.000127014
-7.54567e-06
-0.000118406
-8.60797e-06
-0.000108866
-9.54027e-06
-9.83109e-05
-1.05548e-05
-8.65693e-05
-1.17416e-05
-7.37235e-05
-1.28458e-05
-1.39716e-05
0.000207393
1.36745e-05
0.000198734
1.73161e-05
0.000187974
2.15157e-05
0.000175187
2.55669e-05
0.000160902
2.85603e-05
0.000145081
3.16333e-05
0.000128146
3.38593e-05
0.000110271
3.57361e-05
9.16892e-05
3.71542e-05
7.27578e-05
3.78494e-05
5.36865e-05
3.81345e-05
3.46907e-05
3.798e-05
1.60506e-05
3.72744e-05
-2.1545e-06
3.64048e-05
-1.97288e-05
3.5143e-05
-3.65924e-05
3.37225e-05
-5.25954e-05
3.20017e-05
-6.76789e-05
3.01649e-05
-8.18213e-05
2.82823e-05
-9.49612e-05
2.62762e-05
-0.000107085
2.42443e-05
-0.000118219
2.22662e-05
-0.000128355
2.027e-05
-0.000137509
1.83081e-05
-0.00014571
1.64003e-05
-0.000152991
1.45586e-05
-0.000159392
1.28042e-05
-0.000164931
1.10829e-05
-0.00016965
9.43511e-06
-0.000173579
7.8558e-06
-0.000176748
6.33177e-06
-0.000179178
4.86011e-06
-0.000180878
3.39719e-06
-0.000181895
2.042e-06
-0.000182215
6.47464e-07
-0.000181794
-8.44765e-07
-0.000180643
-2.30068e-06
-0.000178773
-3.74242e-06
-0.000176179
-5.19018e-06
-0.000172766
-6.82657e-06
-0.000168611
-8.31094e-06
-0.000163571
-1.00816e-05
-0.000157744
-1.16519e-05
-0.000151113
-1.32671e-05
-0.000143536
-1.51522e-05
-0.000135071
-1.69297e-05
-0.000125765
-1.86173e-05
-0.000115435
-2.06588e-05
-0.000104097
-2.26724e-05
-9.1982e-05
-2.4234e-05
-7.87034e-05
-2.65532e-05
-6.46582e-05
-2.8092e-05
-4.95352e-05
-3.02408e-05
-3.35543e-05
-3.19605e-05
-1.69172e-05
-3.32659e-05
4.49882e-07
-3.47297e-05
1.84232e-05
-3.59364e-05
3.6639e-05
-3.64215e-05
5.52037e-05
-3.71154e-05
7.37338e-05
-3.70463e-05
9.21736e-05
-3.68714e-05
0.000110279
-3.61925e-05
0.000127584
-3.46045e-05
0.000144009
-3.28443e-05
0.00015936
-3.06928e-05
0.000173261
-2.77918e-05
0.000185597
-2.46634e-05
0.000196137
-2.10774e-05
0.000204737
-1.71893e-05
0.000211331
-1.31802e-05
0.000215644
-8.6176e-06
0.000217728
-4.16335e-06
0.000217449
5.53818e-07
0.000214805
5.28783e-06
0.000209868
9.87964e-06
0.000202677
1.43786e-05
0.000193457
1.84319e-05
0.000182244
2.2418e-05
0.000169246
2.5991e-05
0.000154718
2.9043e-05
0.000138851
3.17205e-05
0.000121918
3.38532e-05
0.000104179
3.54652e-05
8.58589e-05
3.66274e-05
6.72735e-05
3.71594e-05
4.86314e-05
3.72748e-05
3.01131e-05
3.70276e-05
1.19655e-05
3.62866e-05
-5.70753e-06
3.5336e-05
-2.28031e-05
3.41851e-05
-3.91864e-05
3.27608e-05
-5.48157e-05
3.12488e-05
-6.95885e-05
2.95401e-05
-8.34814e-05
2.7781e-05
-9.64465e-05
2.59279e-05
-0.000108372
2.3842e-05
-0.000119316
2.18785e-05
-0.000129196
1.97623e-05
-0.000138091
1.77878e-05
-0.000145986
1.57912e-05
-0.000152816
1.36614e-05
-0.000158714
1.17999e-05
-0.000163635
9.83978e-06
-0.000167658
8.04976e-06
-0.000170828
6.34436e-06
-0.000173212
4.77599e-06
-0.000174816
3.2094e-06
-0.000175716
1.80491e-06
-0.000175915
3.978e-07
-0.000175525
-7.80363e-07
-0.000174446
-2.16268e-06
-0.000172719
-3.44486e-06
-0.000170355
-4.72418e-06
-0.000167367
-5.98352e-06
-0.000163756
-7.21944e-06
-0.000159505
-8.5086e-06
-0.000154605
-9.80652e-06
-0.000149033
-1.11465e-05
-0.000142756
-1.25573e-05
-0.000135817
-1.38694e-05
-0.000128182
-1.52732e-05
-0.000119816
-1.67337e-05
-0.000110751
-1.81369e-05
-0.000100936
-1.96407e-05
-9.04304e-05
-2.10023e-05
-7.92098e-05
-2.24511e-05
-6.72732e-05
-2.3878e-05
-5.46492e-05
-2.52467e-05
-4.13363e-05
-2.66306e-05
-2.7383e-05
-2.79174e-05
-1.28335e-05
-2.90918e-05
2.28013e-06
-3.02224e-05
1.78822e-05
-3.12049e-05
3.38807e-05
-3.19952e-05
5.01502e-05
-3.25334e-05
6.6565e-05
-3.28287e-05
8.29545e-05
-3.2775e-05
9.91474e-05
-3.23825e-05
0.000114944
-3.15874e-05
0.000130107
-3.0319e-05
0.000144406
-2.85769e-05
0.000157604
-2.63833e-05
0.000169466
-2.37147e-05
0.000179754
-2.05629e-05
0.000188275
-1.70419e-05
0.000194856
-1.31602e-05
0.000199305
-8.88858e-06
0.000201532
-4.43413e-06
0.000201441
1.67744e-07
0.000199034
4.81175e-06
0.00019431
9.45656e-06
0.000187351
1.39119e-05
0.000178232
1.82369e-05
0.000167176
2.20991e-05
0.000154331
2.56829e-05
0.00013996
2.87401e-05
0.000124249
3.14186e-05
0.000107497
3.34838e-05
8.99586e-05
3.50765e-05
7.18979e-05
3.61123e-05
5.36313e-05
3.6523e-05
3.53843e-05
3.64682e-05
1.73625e-05
3.60427e-05
-1.7208e-07
3.50484e-05
-1.70925e-05
3.38582e-05
-3.31797e-05
3.21741e-05
-4.83931e-05
3.0423e-05
-6.26208e-05
2.84494e-05
-7.58233e-05
2.64116e-05
-8.79487e-05
2.4247e-05
-9.89893e-05
2.20863e-05
-0.000108952
1.99279e-05
-0.000117956
1.80095e-05
-0.000125963
1.60144e-05
-0.000133072
1.4225e-05
-0.0001393
1.24607e-05
-0.000144763
1.09245e-05
-0.000149446
9.36734e-06
-0.000153379
7.87283e-06
-0.000156627
6.50617e-06
-0.000159271
5.29642e-06
-0.000161282
4.01763e-06
-0.000162734
2.90226e-06
-0.00016362
1.77456e-06
-0.000164068
8.98573e-07
-0.000164018
-1.07924e-07
-0.000163486
-1.05575e-06
-0.000162609
-1.75899e-06
-0.000161268
-2.68946e-06
-0.000159513
-3.50709e-06
-0.00015738
-4.26334e-06
-0.000154802
-5.15776e-06
-0.00015182
-5.96952e-06
-0.000148406
-6.83016e-06
-0.000144552
-7.71287e-06
-0.000140239
-8.63212e-06
-0.000135455
-9.57707e-06
-0.000130157
-1.05981e-05
-0.00012431
-1.16979e-05
-0.000117908
-1.28114e-05
-0.000110857
-1.41151e-05
-0.000103169
-1.53779e-05
-9.47513e-05
-1.68401e-05
-8.56068e-05
-1.83195e-05
-7.57365e-05
-1.97141e-05
-6.50473e-05
-2.13842e-05
-5.35538e-05
-2.29929e-05
-4.12997e-05
-2.45039e-05
-2.82708e-05
-2.60611e-05
-1.45239e-05
-2.75024e-05
-1.64842e-07
-2.87104e-05
1.48332e-05
-2.99891e-05
3.02631e-05
-3.08557e-05
4.6088e-05
-3.16338e-05
6.20932e-05
-3.20105e-05
7.81368e-05
-3.20664e-05
9.39527e-05
-3.16327e-05
0.000109349
-3.07812e-05
0.000124103
-2.94972e-05
0.000137966
-2.77093e-05
0.000150684
-2.5427e-05
0.000162041
-2.27135e-05
0.000171848
-1.95948e-05
0.00017987
-1.60339e-05
0.000185867
-1.19805e-05
0.000189818
-7.89078e-06
0.000191579
-3.5259e-06
0.000191101
9.5028e-07
0.000188427
5.35775e-06
0.000183549
9.7435e-06
0.00017666
1.37855e-05
0.000167881
1.75527e-05
0.000157348
2.10529e-05
0.000145362
2.39656e-05
0.000132093
2.65334e-05
0.000117813
2.85529e-05
0.000102769
3.0071e-05
8.71893e-05
3.11608e-05
7.12972e-05
3.17816e-05
5.53541e-05
3.187e-05
3.95086e-05
3.16853e-05
2.39669e-05
3.10862e-05
8.80537e-06
3.03115e-05
-5.7586e-06
2.91407e-05
-1.98155e-05
2.81145e-05
-3.31004e-05
2.65596e-05
-4.56941e-05
2.51811e-05
-5.74641e-05
2.35428e-05
-6.8471e-05
2.20242e-05
-7.86868e-05
2.04326e-05
-8.81037e-05
1.88324e-05
-9.68176e-05
1.74224e-05
-0.000104849
1.60721e-05
-0.000112205
1.47128e-05
-0.000118967
1.3531e-05
-0.000125097
1.2266e-05
-0.000130707
1.12163e-05
-0.000135752
1.00834e-05
-0.000140272
9.03804e-06
-0.000144373
8.20218e-06
-0.000147955
7.15883e-06
-0.000151112
6.31292e-06
-0.000153794
5.36071e-06
-0.000156136
4.68579e-06
-0.000157964
3.65758e-06
-0.000159405
2.88032e-06
-0.000160445
2.0731e-06
-0.000161029
1.16127e-06
-0.000161096
1.3549e-07
-0.000160685
-8.25631e-07
-0.000159629
-2.11004e-06
-0.000157985
-3.28991e-06
-0.000155602
-4.76696e-06
-0.000152545
-6.11393e-06
-0.000148873
-7.34311e-06
-0.000144495
-8.75843e-06
-0.000139361
-1.02718e-05
-0.000133325
-1.20797e-05
-0.000126459
-1.37346e-05
-0.000118425
-1.607e-05
-0.000109306
-1.82435e-05
-9.88353e-05
-2.09447e-05
-8.69885e-05
-2.36985e-05
-7.38393e-05
-2.62907e-05
-5.93447e-05
-2.89846e-05
-4.36403e-05
-3.14081e-05
-2.71581e-05
-3.29338e-05
-9.92411e-06
-3.44569e-05
7.81424e-06
-3.54771e-05
2.61522e-05
-3.66707e-05
4.4971e-05
-3.76303e-05
6.39283e-05
-3.79112e-05
8.30113e-05
-3.81584e-05
0.000102109
-3.81809e-05
0.00012084
-3.74509e-05
0.000139113
-3.65358e-05
0.000156694
-3.51466e-05
0.000173184
-3.29773e-05
0.000188454
-3.05303e-05
0.000202114
-2.72979e-05
0.000213993
-2.37427e-05
0.000223876
-1.97586e-05
0.00023139
-1.50604e-05
0.000236511
-1.02562e-05
0.000239062
-5.0575e-06
0.000238968
2.00883e-07
0.000236656
4.6359e-06
0.000231935
9.45673e-06
0.000225005
1.38599e-05
0.000215878
1.82469e-05
0.000204503
2.27429e-05
0.000191216
2.65627e-05
0.000176294
2.98292e-05
0.000159862
3.28566e-05
0.000142283
3.51422e-05
0.000123838
3.68852e-05
0.000104822
3.80088e-05
8.54546e-05
3.87228e-05
6.60294e-05
3.88358e-05
4.6708e-05
3.86323e-05
2.77575e-05
3.78875e-05
9.41317e-06
3.6677e-05
-8.36078e-06
3.55599e-05
-2.53032e-05
3.38863e-05
-4.13447e-05
3.20786e-05
-5.64337e-05
3.01717e-05
-7.04938e-05
2.81089e-05
-8.34789e-05
2.59691e-05
-9.54264e-05
2.38985e-05
-0.000106328
2.18014e-05
-0.000116168
1.96787e-05
-0.000124996
1.76544e-05
-0.000132824
1.56535e-05
-0.000139668
1.36878e-05
-0.000145586
1.1835e-05
-0.000150582
9.99379e-06
-0.000154717
8.27134e-06
-0.000158006
6.57979e-06
-0.000160468
4.92363e-06
-0.000162143
3.34693e-06
-0.000163045
1.80493e-06
-0.000163146
2.02769e-07
-0.000162464
-1.36835e-06
-0.00016093
-3.06549e-06
-0.000158639
-4.58161e-06
-0.000155634
-6.01194e-06
-0.00015167
-7.92869e-06
-0.000146876
-9.58724e-06
-0.000141235
-1.12846e-05
-0.000134604
-1.32627e-05
-0.000127057
-1.50926e-05
-0.000118449
-1.72163e-05
-0.000108908
-1.90806e-05
-9.83534e-05
-2.11096e-05
-8.66118e-05
-2.34832e-05
-7.37652e-05
-2.56925e-05
-2.79444e-05
0.000207566
2.0522e-05
0.000198895
2.59874e-05
0.000188119
3.22913e-05
0.000175315
3.83708e-05
0.000161012
4.28638e-05
0.000145169
4.74758e-05
0.000128214
5.08143e-05
0.000110313
5.3637e-05
9.17172e-05
5.57503e-05
7.27628e-05
5.68039e-05
5.36788e-05
5.72185e-05
3.46629e-05
5.69958e-05
1.60142e-05
5.59231e-05
-2.20462e-06
5.46236e-05
-1.97897e-05
5.27281e-05
-3.6662e-05
5.05947e-05
-5.26746e-05
4.80143e-05
-6.77644e-05
4.52547e-05
-8.19111e-05
4.2429e-05
-9.50542e-05
3.94193e-05
-0.00010718
3.63705e-05
-0.00011831
3.33955e-05
-0.000128445
3.04054e-05
-0.000137599
2.74624e-05
-0.000145795
2.45963e-05
-0.000153075
2.18379e-05
-0.000159477
1.92069e-05
-0.000165017
1.66228e-05
-0.000169733
1.4151e-05
-0.00017366
1.17826e-05
-0.000176828
9.50005e-06
-0.000179257
7.2887e-06
-0.000180954
5.09484e-06
-0.000181968
3.05598e-06
-0.000182277
9.55728e-07
-0.000181855
-1.26664e-06
-0.000180699
-3.45608e-06
-0.000178833
-5.60888e-06
-0.000176239
-7.78369e-06
-0.000172828
-1.0238e-05
-0.000168676
-1.24634e-05
-0.000163639
-1.51186e-05
-0.000157811
-1.74797e-05
-0.000151186
-1.98918e-05
-0.00014361
-2.27282e-05
-0.000135143
-2.53965e-05
-0.000125848
-2.7913e-05
-0.000115514
-3.09927e-05
-0.000104173
-3.40134e-05
-9.20611e-05
-3.63458e-05
-7.87772e-05
-3.98371e-05
-6.4733e-05
-4.21364e-05
-4.96028e-05
-4.53711e-05
-3.36195e-05
-4.79439e-05
-1.69698e-05
-4.99157e-05
4.056e-07
-5.21052e-05
1.83915e-05
-5.39224e-05
3.66179e-05
-5.4648e-05
5.52033e-05
-5.57009e-05
7.37579e-05
-5.5601e-05
9.22036e-05
-5.53171e-05
0.000110334
-5.43226e-05
0.000127648
-5.19194e-05
0.000144091
-4.92873e-05
0.000159463
-4.60648e-05
0.000173376
-4.1705e-05
0.000185726
-3.70129e-05
0.000196273
-3.16252e-05
0.000204889
-2.58047e-05
0.000211495
-1.97862e-05
0.000215815
-1.29378e-05
0.000217909
-6.25721e-06
0.000217622
8.40121e-07
0.00021497
7.93999e-06
0.000210036
1.48134e-05
0.00020284
2.15747e-05
0.000193611
2.76613e-05
0.000182383
3.36463e-05
0.000169373
3.90011e-05
0.000154822
4.35934e-05
0.000138931
4.76119e-05
0.000121975
5.08097e-05
0.000104221
5.32192e-05
8.5875e-05
5.49732e-05
6.72637e-05
5.57708e-05
4.86049e-05
5.59338e-05
3.00687e-05
5.55638e-05
1.19001e-05
5.44553e-05
-5.77902e-06
5.30151e-05
-2.28838e-05
5.12899e-05
-3.92868e-05
4.91638e-05
-5.49291e-05
4.68911e-05
-6.97167e-05
4.43277e-05
-8.36017e-05
4.16659e-05
-9.65921e-05
3.89183e-05
-0.000108523
3.57725e-05
-0.000119484
3.28398e-05
-0.000129381
2.96594e-05
-0.000138261
2.66673e-05
-0.000146171
2.37011e-05
-0.000153005
2.04959e-05
-0.000158897
1.76914e-05
-0.000163817
1.47605e-05
-0.000167832
1.20639e-05
-0.000171009
9.52142e-06
-0.00017338
7.14702e-06
-0.000174979
4.80842e-06
-0.000175871
2.69756e-06
-0.00017608
6.06352e-07
-0.000175663
-1.19757e-06
-0.000174586
-3.23938e-06
-0.000172866
-5.16451e-06
-0.000170506
-7.08501e-06
-0.00016752
-8.96922e-06
-0.000163903
-1.08366e-05
-0.000159652
-1.27593e-05
-0.000154753
-1.47055e-05
-0.000149181
-1.67182e-05
-0.000142923
-1.88153e-05
-0.000135965
-2.08282e-05
-0.000128318
-2.29199e-05
-0.000119964
-2.50879e-05
-0.000110894
-2.72068e-05
-0.000101083
-2.94522e-05
-9.05333e-05
-3.15519e-05
-7.93552e-05
-3.36293e-05
-6.74169e-05
-3.58163e-05
-5.47891e-05
-3.78746e-05
-4.14719e-05
-3.9948e-05
-2.75154e-05
-4.1874e-05
-1.29576e-05
-4.36497e-05
2.15977e-06
-4.53399e-05
1.77694e-05
-4.68147e-05
3.37751e-05
-4.8001e-05
5.00554e-05
-4.88139e-05
6.64845e-05
-4.92579e-05
8.28839e-05
-4.91744e-05
9.90938e-05
-4.85925e-05
0.000114912
-4.74053e-05
0.000130097
-4.55049e-05
0.000144412
-4.28913e-05
0.000157631
-3.9603e-05
0.000169509
-3.55927e-05
0.000179811
-3.08649e-05
0.000188342
-2.55732e-05
0.000194934
-1.97524e-05
0.000199401
-1.3356e-05
0.000201658
-6.69078e-06
0.000201552
2.73308e-07
0.000199111
7.25328e-06
0.000194381
1.41863e-05
0.000187396
2.0897e-05
0.000178285
2.73479e-05
0.000167212
3.31714e-05
0.00015435
3.85451e-05
0.000139969
4.3121e-05
0.000124257
4.71314e-05
0.000107459
5.02812e-05
8.99072e-05
5.26285e-05
7.18295e-05
5.419e-05
5.35413e-05
5.48112e-05
3.52655e-05
5.47441e-05
1.72253e-05
5.40829e-05
-3.33728e-07
5.26074e-05
-1.72483e-05
5.07728e-05
-3.33417e-05
4.82676e-05
-4.85625e-05
4.56438e-05
-6.27957e-05
4.26827e-05
-7.59755e-05
3.95914e-05
-8.81357e-05
3.64073e-05
-9.9184e-05
3.31347e-05
-0.000109149
2.98934e-05
-0.000118126
2.69865e-05
-0.000126142
2.40298e-05
-0.000133245
2.13281e-05
-0.000139471
1.8687e-05
-0.000144923
1.63766e-05
-0.000149606
1.40502e-05
-0.000153545
1.18122e-05
-0.0001568
9.7607e-06
-0.000159431
7.92737e-06
-0.000161442
6.02881e-06
-0.000162886
4.34594e-06
-0.000163773
2.66201e-06
-0.000164209
1.33446e-06
-0.00016416
-1.57459e-07
-0.000163627
-1.58863e-06
-0.00016275
-2.63524e-06
-0.000161405
-4.0348e-06
-0.000159652
-5.26045e-06
-0.000157507
-6.40771e-06
-0.000154933
-7.73161e-06
-0.000151951
-8.95153e-06
-0.000148534
-1.02479e-05
-0.000144688
-1.15585e-05
-0.000140332
-1.29884e-05
-0.000135596
-1.43132e-05
-0.000130301
-1.58929e-05
-0.000124454
-1.75444e-05
-0.000118051
-1.92149e-05
-0.000111
-2.1166e-05
-0.000103316
-2.30619e-05
-9.49127e-05
-2.52435e-05
-8.579e-05
-2.74423e-05
-7.58941e-05
-2.96101e-05
-6.52081e-05
-3.20703e-05
-5.37136e-05
-3.44875e-05
-4.1444e-05
-3.67735e-05
-2.84193e-05
-3.90859e-05
-1.46697e-05
-4.12521e-05
-3.02414e-07
-4.30778e-05
1.46997e-05
-4.49913e-05
3.01402e-05
-4.62963e-05
4.59902e-05
-4.7484e-05
6.19917e-05
-4.80121e-05
7.80795e-05
-4.81543e-05
9.38945e-05
-4.74478e-05
0.000109307
-4.6194e-05
0.000124085
-4.42753e-05
0.000137935
-4.15591e-05
0.000150704
-3.81959e-05
0.000162077
-3.40873e-05
0.000171906
-2.94235e-05
0.000179945
-2.40731e-05
0.000185945
-1.79807e-05
0.000189904
-1.18496e-05
0.000191676
-5.29841e-06
0.000191179
1.44721e-06
0.000188509
8.02772e-06
0.000183611
1.46422e-05
0.000176743
2.06529e-05
0.000167898
2.63977e-05
0.000157371
3.15796e-05
0.000145372
3.59647e-05
0.000132087
3.98188e-05
0.00011779
4.28494e-05
0.000102727
4.51343e-05
8.71345e-05
4.67531e-05
7.12153e-05
4.77007e-05
5.52446e-05
4.78406e-05
3.9388e-05
4.7542e-05
2.38405e-05
4.66336e-05
8.66257e-06
4.54895e-05
-5.93732e-06
4.37406e-05
-1.99694e-05
4.21466e-05
-3.32669e-05
3.98572e-05
-4.58595e-05
3.77737e-05
-5.76252e-05
3.53086e-05
-6.86064e-05
3.30054e-05
-7.88502e-05
3.06764e-05
-8.82663e-05
2.82485e-05
-9.69866e-05
2.61427e-05
-0.000104994
2.40791e-05
-0.000112352
2.20713e-05
-0.000119116
2.0295e-05
-0.000125245
1.83952e-05
-0.000130851
1.68226e-05
-0.000135901
1.51331e-05
-0.00014043
1.35673e-05
-0.000144509
1.22814e-05
-0.000148086
1.07357e-05
-0.000151228
9.45463e-06
-0.00015393
8.06256e-06
-0.000156254
7.01013e-06
-0.000158048
5.45207e-06
-0.00015951
4.34277e-06
-0.000160562
3.12503e-06
-0.000161139
1.73782e-06
-0.000161191
1.88459e-07
-0.000160784
-1.2332e-06
-0.000159719
-3.17446e-06
-0.000158073
-4.93638e-06
-0.000155695
-7.14488e-06
-0.00015264
-9.16879e-06
-0.000148956
-1.10263e-05
-0.000144599
-1.31157e-05
-0.000139455
-1.54159e-05
-0.000133431
-1.81034e-05
-0.000126572
-2.05936e-05
-0.000118549
-2.40936e-05
-0.000109437
-2.73547e-05
-9.89712e-05
-3.14109e-05
-8.71337e-05
-3.55361e-05
-7.39753e-05
-3.94493e-05
-5.94707e-05
-4.34894e-05
-4.37587e-05
-4.71201e-05
-2.72632e-05
-4.94294e-05
-9.9797e-06
-5.17406e-05
7.75046e-06
-5.32074e-05
2.61009e-05
-5.50213e-05
4.49337e-05
-5.64634e-05
6.39048e-05
-5.68825e-05
8.30008e-05
-5.72546e-05
0.000102115
-5.72953e-05
0.000120865
-5.62005e-05
0.000139158
-5.4829e-05
0.000156745
-5.27347e-05
0.000173259
-4.94908e-05
0.000188549
-4.58206e-05
0.000202205
-4.09542e-05
0.000214081
-3.56191e-05
0.000223958
-2.96354e-05
0.000231461
-2.25634e-05
0.000236565
-1.53602e-05
0.000239117
-7.60975e-06
0.00023906
2.57448e-07
0.000236812
6.88394e-06
0.000232124
1.41445e-05
0.000225194
2.07891e-05
0.000216048
2.73931e-05
0.000204659
3.41318e-05
0.000191355
3.98668e-05
0.000176406
4.47778e-05
0.000159957
4.93057e-05
0.000142357
5.27422e-05
0.000123889
5.53526e-05
0.000104847
5.70515e-05
8.54623e-05
5.8107e-05
6.60207e-05
5.82774e-05
4.66801e-05
5.79728e-05
2.77305e-05
5.68371e-05
9.34574e-06
5.50617e-05
-8.41977e-06
5.33254e-05
-2.53678e-05
5.08343e-05
-4.1411e-05
4.81218e-05
-5.65004e-05
4.52611e-05
-7.05615e-05
4.217e-05
-8.35535e-05
3.8961e-05
-9.5503e-05
3.5848e-05
-0.000106403
3.2701e-05
-0.000116241
2.95167e-05
-0.000125065
2.64789e-05
-0.000132891
2.34793e-05
-0.000139737
2.05334e-05
-0.00014565
1.77483e-05
-0.000150644
1.49884e-05
-0.000154777
1.24035e-05
-0.000158067
9.86971e-06
-0.000160529
7.38597e-06
-0.000162205
5.02272e-06
-0.000163106
2.70675e-06
-0.000163207
3.03496e-07
-0.000162529
-2.04676e-06
-0.00016099
-4.60391e-06
-0.0001587
-6.87192e-06
-0.000155696
-9.01633e-06
-0.000151735
-1.18898e-05
-0.00014694
-1.43815e-05
-0.000141302
-1.69227e-05
-0.000134676
-1.98894e-05
-0.000127129
-2.26396e-05
-0.000118523
-2.5822e-05
-0.000108985
-2.86187e-05
-9.8432e-05
-3.16623e-05
-8.66927e-05
-3.52225e-05
-7.38467e-05
-3.85385e-05
-4.19174e-05
0.000207825
2.7384e-05
0.000199136
3.46766e-05
0.000188338
4.30895e-05
0.000175508
5.12002e-05
0.000161176
5.71962e-05
0.000145302
6.33497e-05
0.000128317
6.77993e-05
0.000110378
7.15759e-05
9.17593e-05
7.43691e-05
7.27708e-05
7.57925e-05
5.36671e-05
7.63222e-05
3.46217e-05
7.60412e-05
1.59596e-05
7.45852e-05
-2.28016e-06
7.28634e-05
-1.98821e-05
7.033e-05
-3.67683e-05
6.74809e-05
-5.27929e-05
6.40389e-05
-6.78895e-05
6.03513e-05
-8.20437e-05
5.65831e-05
-9.51884e-05
5.25641e-05
-0.000107319
4.85008e-05
-0.000118449
4.45256e-05
-0.000128583
4.05398e-05
-0.000137737
3.6616e-05
-0.00014593
3.27895e-05
-0.000153208
2.9116e-05
-0.000159607
2.56061e-05
-0.000165147
2.2162e-05
-0.000169859
1.88634e-05
-0.000173786
1.57098e-05
-0.000176962
1.2676e-05
-0.000179384
9.71013e-06
-0.00018108
6.79118e-06
-0.000182087
4.06278e-06
-0.000182373
1.24242e-06
-0.00018195
-1.6902e-06
-0.000180783
-4.62269e-06
-0.000178923
-7.46924e-06
-0.000176331
-1.0376e-05
-0.000172922
-1.36471e-05
-0.000168772
-1.66127e-05
-0.000163741
-2.01501e-05
-0.000157912
-2.33091e-05
-0.000151298
-2.65053e-05
-0.000143721
-3.0305e-05
-0.000135253
-3.38649e-05
-0.000125974
-3.71922e-05
-0.000115633
-4.13335e-05
-0.000104287
-4.53598e-05
-9.21806e-05
-4.84521e-05
-7.88887e-05
-5.31291e-05
-6.48462e-05
-5.6179e-05
-4.97049e-05
-6.05125e-05
-3.3718e-05
-6.39309e-05
-1.70495e-05
-6.65842e-05
3.38317e-07
-6.94931e-05
1.83416e-05
-7.19259e-05
3.65902e-05
-7.28967e-05
5.51999e-05
-7.43107e-05
7.38054e-05
-7.42066e-05
9.22491e-05
-7.3761e-05
0.000110388
-7.24615e-05
0.000127741
-6.92728e-05
0.000144214
-6.57604e-05
0.000159611
-6.14615e-05
0.000173545
-5.56392e-05
0.000185914
-4.93823e-05
0.000196476
-4.21871e-05
0.000205112
-3.44409e-05
0.000211733
-2.64073e-05
0.000216068
-1.72725e-05
0.000218169
-8.35824e-06
0.000217876
1.13354e-06
0.000215221
1.05941e-05
0.00021029
1.9745e-05
0.000203082
2.87822e-05
0.000193841
3.6903e-05
0.000182587
4.49003e-05
0.000169561
5.20264e-05
0.000154978
5.81769e-05
0.000139054
6.35355e-05
0.000122057
6.78069e-05
0.000104278
7.09989e-05
8.58922e-05
7.33588e-05
6.7244e-05
7.44192e-05
4.85444e-05
7.46334e-05
2.9989e-05
7.41193e-05
1.17903e-05
7.2654e-05
-5.90959e-06
7.0715e-05
-2.30224e-05
6.84027e-05
-3.94486e-05
6.559e-05
-5.51078e-05
6.25502e-05
-6.9921e-05
5.91409e-05
-8.38199e-05
5.55647e-05
-9.68235e-05
5.19218e-05
-0.000108762
4.77107e-05
-0.000119738
4.38165e-05
-0.000129666
3.95871e-05
-0.000138542
3.55432e-05
-0.000146445
3.16044e-05
-0.000153287
2.73372e-05
-0.000159175
2.35794e-05
-0.000164092
1.96779e-05
-0.000168094