/*--------------------------------*- C++ -*----------------------------------*\
| =========                 |                                                 |
| \\      /  F ield         | OpenFOAM: The Open Source CFD Toolbox           |
|  \\    /   O peration     | Version:  3.0.1                                 |
|   \\  /    A nd           | Web:      www.OpenFOAM.org                      |
|    \\/     M anipulation  |                                                 |
\*---------------------------------------------------------------------------*/
FoamFile
{
    version     2.0;
    format      ascii;
    class       surfaceScalarField;
    location    "79";
    object      alphaPhi;
}
// * * * * * * * * * * * * * * * * * * * * * * * * * * * * * * * * * * * * * //

dimensions      [0 3 -1 0 0 0 0];

internalField   nonuniform List<scalar> 
42423
(
0.000101055
-1.84132e-05
0.000119452
-1.83977e-05
0.000137425
-1.79729e-05
0.000154639
-1.72143e-05
0.000171068
-1.64286e-05
0.000186326
-1.52589e-05
0.000200235
-1.39089e-05
0.000212553
-1.23183e-05
0.000222958
-1.0405e-05
0.000231275
-8.31706e-06
0.000237368
-6.09271e-06
0.000241132
-3.76425e-06
0.000242467
-1.33492e-06
0.000241273
1.1934e-06
0.00023754
3.73321e-06
0.000231348
6.19214e-06
0.000222663
8.68487e-06
0.000211979
1.06844e-05
0.000199276
1.27022e-05
0.000184716
1.45598e-05
0.000168777
1.59392e-05
0.000151564
1.7213e-05
0.000133412
1.81523e-05
0.000114512
1.89e-05
9.52174e-05
1.92943e-05
7.5849e-05
1.93684e-05
5.64458e-05
1.94032e-05
3.72981e-05
1.91477e-05
1.86139e-05
1.86841e-05
5.1586e-07
1.80981e-05
-1.68626e-05
1.73785e-05
-3.33974e-05
1.65348e-05
-4.90241e-05
1.56267e-05
-6.36638e-05
1.46396e-05
-7.73128e-05
1.3649e-05
-8.99411e-05
1.26283e-05
-0.000101536
1.15953e-05
-0.000112145
1.06087e-05
-0.000121763
9.61836e-06
-0.000130433
8.66998e-06
-0.000138185
7.75159e-06
-0.000145059
6.87399e-06
-0.000151095
6.03548e-06
-0.000156338
5.24341e-06
-0.000160771
4.43285e-06
-0.000164468
3.6972e-06
-0.000167434
2.96558e-06
-0.000169667
2.23379e-06
-0.000171201
1.53345e-06
-0.000172042
8.41319e-07
-0.000172179
1.37122e-07
-0.000171585
-5.94644e-07
-0.000170174
-1.41048e-06
-0.00016807
-2.10438e-06
-0.00016522
-2.8497e-06
-0.000161529
-3.69088e-06
-0.000157034
-4.4956e-06
-0.000151756
-5.27798e-06
-0.000145537
-6.21844e-06
-0.000138472
-7.06523e-06
-0.000130401
-8.07087e-06
-0.000121296
-9.10557e-06
-0.00011132
-9.97584e-06
-0.000100343
-1.09768e-05
-8.83562e-05
-1.19869e-05
-7.55302e-05
-1.28261e-05
-6.17083e-05
-1.38219e-05
-4.70422e-05
-1.46662e-05
-3.1535e-05
-1.55073e-05
-1.52014e-05
-1.63337e-05
1.74693e-06
-1.69483e-05
1.9214e-05
-1.74671e-05
3.7114e-05
-1.79e-05
5.52041e-05
-1.80902e-05
7.33927e-05
-1.81887e-05
9.14972e-05
-1.81045e-05
0.000109339
-1.78423e-05
0.000126801
-1.74619e-05
0.000143532
-1.67308e-05
0.000159396
-1.58644e-05
0.000174177
-1.47805e-05
0.00018774
-1.35635e-05
0.000199649
-1.19082e-05
0.000209952
-1.03031e-05
0.000218327
-8.37458e-06
0.000224752
-6.4246e-06
0.000228945
-4.19318e-06
0.000230857
-1.91136e-06
0.000230523
3.34385e-07
0.000227664
2.85969e-06
0.000222358
5.30627e-06
0.000214638
7.721e-06
0.000204652
9.98614e-06
0.00019257
1.20823e-05
0.000178569
1.4002e-05
0.000162922
1.56471e-05
0.000145857
1.70652e-05
0.000127671
1.81861e-05
0.000108637
1.90348e-05
8.90433e-05
1.95937e-05
6.91346e-05
1.99087e-05
4.91721e-05
1.99626e-05
2.94093e-05
1.97628e-05
1.00628e-05
1.93466e-05
-8.65705e-06
1.87198e-05
-2.65981e-05
1.7941e-05
-4.36257e-05
1.70276e-05
-5.96628e-05
1.60371e-05
-7.46224e-05
1.49596e-05
-8.84537e-05
1.38313e-05
-0.000101164
1.27103e-05
-0.000112721
1.15573e-05
-0.000123167
1.04457e-05
-0.000132603
9.43576e-06
-0.000140916
8.31282e-06
-0.000148258
7.34205e-06
-0.000154615
6.35729e-06
-0.000160055
5.4399e-06
-0.000164583
4.52843e-06
-0.000168228
3.64434e-06
-0.000171073
2.84558e-06
-0.000173132
2.05862e-06
-0.0001744
1.26845e-06
-0.000174968
5.67718e-07
-0.00017481
-1.58564e-07
-0.000173912
-8.97721e-07
-0.000172435
-1.47677e-06
-0.00017022
-2.21537e-06
-0.000167431
-2.78857e-06
-0.000163916
-3.51531e-06
-0.000159801
-4.11507e-06
-0.000155018
-4.78337e-06
-0.000149516
-5.50131e-06
-0.000143426
-6.09078e-06
-0.000136615
-6.81035e-06
-0.000129005
-7.60987e-06
-0.000120692
-8.31318e-06
-0.000111519
-9.17307e-06
-0.000101562
-9.95771e-06
-9.07185e-05
-1.08432e-05
-7.9047e-05
-1.16716e-05
-6.64733e-05
-1.25737e-05
-5.30861e-05
-1.33873e-05
-3.88487e-05
-1.42374e-05
-2.3832e-05
-1.50169e-05
-8.08643e-06
-1.57456e-05
8.2776e-06
-1.63641e-05
2.51407e-05
-1.68632e-05
4.23785e-05
-1.72379e-05
5.98218e-05
-1.74434e-05
7.73169e-05
-1.74952e-05
9.46475e-05
-1.73307e-05
0.000111549
-1.69017e-05
0.000127855
-1.63061e-05
0.00014327
-1.54154e-05
0.000157526
-1.42558e-05
0.000170372
-1.28459e-05
0.000181538
-1.11664e-05
0.00019082
-9.28225e-06
0.000197952
-7.13145e-06
0.000202826
-4.87483e-06
0.000205275
-2.44851e-06
0.000205271
4.07448e-09
0.000202754
2.51658e-06
0.000197628
5.12583e-06
0.000190138
7.49033e-06
0.000180401
9.73616e-06
0.000168523
1.18785e-05
0.000154826
1.36972e-05
0.000139488
1.53376e-05
0.000122841
1.66472e-05
0.000105176
1.7665e-05
8.67389e-05
1.84366e-05
6.78842e-05
1.88547e-05
4.87666e-05
1.91176e-05
2.96524e-05
1.91141e-05
1.07987e-05
1.88537e-05
-7.58551e-06
1.83842e-05
-2.52841e-05
1.76986e-05
-4.2142e-05
1.68578e-05
-5.80137e-05
1.58718e-05
-7.28271e-05
1.48134e-05
-8.65504e-05
1.37234e-05
-9.92061e-05
1.26557e-05
-0.000110861
1.16546e-05
-0.00012156
1.06993e-05
-0.000131367
9.80666e-06
-0.000140257
8.8907e-06
-0.000148268
8.01083e-06
-0.000155461
7.19266e-06
-0.000161819
6.35827e-06
-0.000167457
5.63818e-06
-0.000172218
4.76064e-06
-0.000176225
4.00762e-06
-0.000179453
3.22793e-06
-0.000181978
2.52442e-06
-0.00018389
1.91195e-06
-0.000185225
1.33559e-06
-0.000186022
7.9665e-07
-0.000186241
2.1881e-07
-0.000185834
-4.06955e-07
-0.000184859
-9.74494e-07
-0.000183147
-1.71202e-06
-0.000180768
-2.37955e-06
-0.000177614
-3.15326e-06
-0.000173797
-3.81751e-06
-0.000169215
-4.58201e-06
-0.000163971
-5.24365e-06
-0.000157908
-6.06377e-06
-0.000151255
-6.65291e-06
-0.000143802
-7.45235e-06
-0.00013556
-8.24206e-06
-0.000126544
-9.01674e-06
-0.000116671
-9.87269e-06
-0.000106074
-1.05967e-05
-9.46208e-05
-1.14535e-05
-8.23706e-05
-1.22503e-05
-6.93435e-05
-1.30272e-05
-5.55332e-05
-1.38103e-05
-4.09545e-05
-1.45787e-05
-2.58229e-05
-1.51316e-05
-1.00804e-05
-1.57425e-05
6.15528e-06
-1.62358e-05
2.27693e-05
-1.66141e-05
3.96078e-05
-1.68386e-05
5.6498e-05
-1.68902e-05
7.32472e-05
-1.67493e-05
8.96189e-05
-1.63718e-05
0.000105398
-1.57793e-05
0.000120337
-1.49387e-05
0.000134127
-1.37903e-05
0.00014658
-1.24531e-05
0.000157413
-1.08331e-05
0.000166417
-9.00376e-06
0.000173368
-6.95126e-06
0.000178056
-4.68814e-06
0.000180406
-2.34979e-06
0.000180342
6.35624e-08
0.000177825
2.51727e-06
0.000172831
4.99351e-06
0.000165531
7.29992e-06
0.000156022
9.50923e-06
0.000144418
1.16034e-05
0.000131039
1.33791e-05
0.000116082
1.49573e-05
9.98358e-05
1.62455e-05
8.25909e-05
1.72448e-05
6.46158e-05
1.7975e-05
4.61607e-05
1.8455e-05
2.75589e-05
1.86017e-05
8.98133e-06
1.85775e-05
-9.27022e-06
1.82515e-05
-2.70468e-05
1.77766e-05
-4.41707e-05
1.71239e-05
-6.04605e-05
1.62899e-05
-7.5879e-05
1.54186e-05
-9.03396e-05
1.44608e-05
-0.00010383
1.34901e-05
-0.000116367
1.25371e-05
-0.000127912
1.15457e-05
-0.000138495
1.05831e-05
-0.000148104
9.60935e-06
-0.000156795
8.69108e-06
-0.000164574
7.77882e-06
-0.000171489
6.91545e-06
-0.000177554
6.06509e-06
-0.000182746
5.19208e-06
-0.000187165
4.41918e-06
-0.000190916
3.75038e-06
-0.000193878
2.96218e-06
-0.000196094
2.21658e-06
-0.000197687
1.59317e-06
-0.00019866
9.72568e-07
-0.000198831
1.7177e-07
-0.000198401
-4.30567e-07
-0.000197228
-1.17242e-06
-0.000195341
-1.88763e-06
-0.000192658
-2.68263e-06
-0.000189196
-3.46249e-06
-0.000184925
-4.27075e-06
-0.000179798
-5.12716e-06
-0.000173772
-6.02557e-06
-0.000166961
-6.81139e-06
-0.000159431
-7.52957e-06
-0.000151131
-8.3e-06
-0.000142238
-8.8931e-06
-0.000132853
-9.38558e-06
-0.000122794
-1.00581e-05
-0.000112285
-1.05098e-05
-0.000101082
-1.12023e-05
-8.92148e-05
-1.18676e-05
-7.68097e-05
-1.24051e-05
-6.35824e-05
-1.32273e-05
-4.94973e-05
-1.40851e-05
-3.47274e-05
-1.477e-05
-1.90374e-05
-1.56901e-05
-2.48351e-06
-1.65539e-05
1.45143e-05
-1.69979e-05
3.22707e-05
-1.77564e-05
5.03238e-05
-1.80532e-05
6.86112e-05
-1.82874e-05
8.68112e-05
-1.82e-05
0.000104465
-1.76536e-05
0.000121447
-1.69825e-05
0.000137425
-1.59778e-05
0.000151954
-1.45288e-05
0.000164901
-1.29477e-05
0.000175965
-1.10635e-05
0.000185052
-9.08719e-06
0.000191887
-6.83503e-06
0.00019637
-4.48359e-06
0.000198444
-2.07385e-06
0.000198094
3.5029e-07
0.00019521
2.88394e-06
0.000190003
5.20737e-06
0.000182604
7.39827e-06
0.000173244
9.36021e-06
0.00016219
1.10543e-05
0.000149487
1.27032e-05
0.00013558
1.39066e-05
0.000120702
1.48783e-05
0.00010504
1.56612e-05
8.89921e-05
1.60483e-05
7.26057e-05
1.63863e-05
5.63051e-05
1.63006e-05
4.0101e-05
1.62041e-05
2.40916e-05
1.60094e-05
8.44609e-06
1.56455e-05
-6.78736e-06
1.52334e-05
-2.15335e-05
1.47462e-05
-3.57307e-05
1.41971e-05
-4.9383e-05
1.36523e-05
-6.24356e-05
1.30526e-05
-7.48596e-05
1.2424e-05
-8.66565e-05
1.17969e-05
-9.77811e-05
1.11246e-05
-0.000108245
1.04638e-05
-0.000118008
9.76277e-06
-0.000127046
9.03822e-06
-0.000135372
8.32617e-06
-0.000142957
7.58454e-06
-0.000149779
6.82262e-06
-0.00015584
6.06059e-06
-0.00016111
5.27047e-06
-0.000165589
4.47891e-06
-0.00016926
3.67099e-06
-0.000172105
2.8452e-06
-0.00017411
2.00429e-06
-0.000175276
1.16601e-06
-0.000175602
3.25926e-07
-0.000174981
-6.20697e-07
-0.000173438
-1.5426e-06
-0.000170993
-2.44518e-06
-0.000167656
-3.33763e-06
-0.000163394
-4.26196e-06
-0.00015826
-5.13384e-06
-6.0193e-06
0.000101063
-3.68342e-05
0.00011947
-3.68058e-05
0.000137455
-3.59579e-05
0.000154683
-3.44423e-05
0.000171124
-3.28699e-05
0.000186408
-3.0543e-05
0.000200344
-2.78454e-05
0.000212669
-2.4643e-05
0.000223084
-2.08207e-05
0.000231434
-1.66666e-05
0.000237543
-1.2202e-05
0.000241287
-7.50819e-06
0.00024261
-2.65881e-06
0.000241401
2.40276e-06
0.000237664
7.47011e-06
0.000231465
1.23914e-05
0.000222777
1.7372e-05
0.00021208
2.13813e-05
0.00019937
2.54124e-05
0.000184797
2.91322e-05
0.000168848
3.18884e-05
0.000151621
3.44403e-05
0.000133458
3.63146e-05
0.00011455
3.78086e-05
9.52342e-05
3.86099e-05
7.58582e-05
3.87443e-05
5.6444e-05
3.88174e-05
3.72871e-05
3.83045e-05
1.85948e-05
3.73763e-05
4.90452e-07
3.62024e-05
-1.68928e-05
3.47617e-05
-3.34319e-05
3.30739e-05
-4.90617e-05
3.12565e-05
-6.37062e-05
2.92841e-05
-7.73598e-05
2.73026e-05
-8.99889e-05
2.52575e-05
-0.000101584
2.31902e-05
-0.000112195
2.122e-05
-0.000121817
1.92405e-05
-0.000130487
1.73397e-05
-0.00013824
1.55041e-05
-0.000145118
1.37527e-05
-0.00015115
1.20667e-05
-0.000156393
1.04868e-05
-0.000160832
8.87176e-06
-0.000164524
7.38929e-06
-0.000167487
5.9286e-06
-0.000169723
4.46944e-06
-0.000171262
3.07251e-06
-0.000172111
1.69002e-06
-0.000172242
2.68681e-07
-0.000171646
-1.19036e-06
-0.000170235
-2.82184e-06
-0.000168134
-4.2056e-06
-0.000165285
-5.6986e-06
-0.000161598
-7.3778e-06
-0.000157101
-8.99314e-06
-0.000151828
-1.05501e-05
-0.000145606
-1.24412e-05
-0.000138543
-1.4128e-05
-0.000130478
-1.61358e-05
-0.000121363
-1.82205e-05
-0.000111392
-1.99475e-05
-0.00010042
-2.19484e-05
-8.84255e-05
-2.39816e-05
-7.55951e-05
-2.56566e-05
-6.1771e-05
-2.76461e-05
-4.71004e-05
-2.93368e-05
-3.15867e-05
-3.10211e-05
-1.52486e-05
-3.26719e-05
1.70531e-06
-3.39024e-05
1.91781e-05
-3.494e-05
3.70857e-05
-3.58077e-05
5.51879e-05
-3.61925e-05
7.33854e-05
-3.63863e-05
9.15092e-05
-3.62284e-05
0.000109353
-3.56865e-05
0.000126827
-3.49357e-05
0.000143569
-3.34728e-05
0.000159448
-3.17429e-05
0.000174256
-2.95888e-05
0.000187822
-2.71294e-05
0.000199739
-2.38251e-05
0.000210051
-2.06151e-05
0.000218437
-1.67601e-05
0.000224892
-1.28798e-05
0.00022909
-8.39056e-06
0.000231013
-3.83405e-06
0.000230682
6.65931e-07
0.000227825
5.71687e-06
0.000222527
1.06053e-05
0.000214807
1.54415e-05
0.000204824
1.99695e-05
0.000192734
2.41726e-05
0.000178704
2.80329e-05
0.000163029
3.13222e-05
0.000145942
3.41525e-05
0.000127737
3.63919e-05
0.000108687
3.80844e-05
8.90679e-05
3.92132e-05
6.91314e-05
3.98453e-05
4.9156e-05
3.99381e-05
2.9383e-05
3.95359e-05
1.00132e-05
3.87165e-05
-8.72219e-06
3.74552e-05
-2.66718e-05
3.58907e-05
-4.37131e-05
3.4069e-05
-5.9754e-05
3.2078e-05
-7.47114e-05
2.9917e-05
-8.85446e-05
2.76645e-05
-0.00010126
2.54261e-05
-0.000112828
2.31247e-05
-0.000123271
2.0889e-05
-0.000132714
1.88786e-05
-0.000141034
1.6633e-05
-0.000148371
1.4679e-05
-0.00015473
1.27161e-05
-0.000160172
1.08824e-05
-0.000164709
9.06505e-06
-0.000168359
7.29456e-06
-0.000171174
5.66053e-06
-0.000173261
4.1451e-06
-0.000174535
2.54246e-06
-0.000175081
1.11385e-06
-0.000174958
-2.81233e-07
-0.000174082
-1.77398e-06
-0.000172595
-2.96339e-06
-0.000170385
-4.42584e-06
-0.000167598
-5.57533e-06
-0.000164112
-7.00201e-06
-0.000159945
-8.28186e-06
-0.000155218
-9.51027e-06
-0.000149716
-1.10034e-05
-0.000143648
-1.2159e-05
-0.000136819
-1.36393e-05
-0.000129225
-1.52041e-05
-0.0001209
-1.66383e-05
-0.000111749
-1.83242e-05
-0.000101784
-1.99222e-05
-9.09533e-05
-2.1674e-05
-7.92733e-05
-2.33517e-05
-6.67194e-05
-2.51277e-05
-5.33065e-05
-2.68004e-05
-3.90759e-05
-2.84681e-05
-2.4041e-05
-3.00518e-05
-8.21523e-06
-3.15715e-05
8.08373e-06
-3.26632e-05
2.49608e-05
-3.37404e-05
4.22173e-05
-3.44945e-05
5.96804e-05
-3.49067e-05
7.71868e-05
-3.50017e-05
9.45402e-05
-3.46842e-05
0.000111464
-3.38258e-05
0.000127784
-3.2626e-05
0.000143221
-3.08524e-05
0.000157493
-2.85283e-05
0.000170358
-2.57111e-05
0.000181548
-2.23567e-05
0.000190853
-1.85866e-05
0.000197987
-1.42664e-05
0.000202882
-9.76996e-06
0.000205348
-4.91397e-06
0.000205332
2.00832e-08
0.000202791
5.05714e-06
0.000197686
1.02304e-05
0.000190191
1.49859e-05
0.000180428
1.94991e-05
0.000168561
2.37453e-05
0.000154848
2.74095e-05
0.000139507
3.06786e-05
0.000122841
3.3314e-05
0.000105164
3.53413e-05
8.67359e-05
3.68649e-05
6.78472e-05
3.77434e-05
4.87206e-05
3.82441e-05
2.95974e-05
3.82374e-05
1.07324e-05
3.77187e-05
-7.65881e-06
3.67755e-05
-2.53543e-05
3.53941e-05
-4.22175e-05
3.3721e-05
-5.8116e-05
3.17703e-05
-7.29413e-05
2.96387e-05
-8.66612e-05
2.74433e-05
-9.93155e-05
2.531e-05
-0.00011098
2.33193e-05
-0.000121686
2.14057e-05
-0.000131487
1.96069e-05
-0.000140391
1.77948e-05
-0.000148403
1.60234e-05
-0.000155599
1.43885e-05
-0.000161953
1.27118e-05
-0.000167597
1.12825e-05
-0.000172373
9.5367e-06
-0.00017638
8.01457e-06
-0.000179617
6.46452e-06
-0.000182149
5.05705e-06
-0.000184058
3.82126e-06
-0.000185405
2.68219e-06
-0.000186209
1.60012e-06
-0.000186433
4.43024e-07
-0.000186066
-7.73755e-07
-0.000185068
-1.97242e-06
-0.00018337
-3.40992e-06
-0.000180985
-4.76445e-06
-0.00017784
-6.29797e-06
-0.000174024
-7.63378e-06
-0.00016945
-9.15612e-06
-0.000164196
-1.04977e-05
-0.000158196
-1.20634e-05
-0.000151486
-1.33631e-05
-0.00014402
-1.49184e-05
-0.000135789
-1.64731e-05
-0.000126767
-1.80392e-05
-0.000116916
-1.97231e-05
-0.000106302
-2.12112e-05
-9.4844e-05
-2.29114e-05
-8.25998e-05
-2.44945e-05
-6.95567e-05
-2.60704e-05
-5.57245e-05
-2.76426e-05
-4.11572e-05
-2.91461e-05
-2.60026e-05
-3.02862e-05
-1.02436e-05
-3.15017e-05
6.00892e-06
-3.24883e-05
2.26345e-05
-3.32397e-05
3.94921e-05
-3.36963e-05
5.63941e-05
-3.37923e-05
7.31612e-05
-3.35164e-05
8.95542e-05
-3.27649e-05
0.000105344
-3.1569e-05
0.000120302
-2.98975e-05
0.000134116
-2.76043e-05
0.000146585
-2.49218e-05
0.000157452
-2.17005e-05
0.000166457
-1.80083e-05
0.000173416
-1.39108e-05
0.000178109
-9.38122e-06
0.000180471
-4.71161e-06
0.000180404
1.3056e-07
0.000177872
5.04899e-06
0.000172881
9.98399e-06
0.000165583
1.45983e-05
0.000156061
1.90309e-05
0.000144442
2.32215e-05
0.000131044
2.67777e-05
0.000116063
2.99377e-05
9.98035e-05
3.2505e-05
8.25362e-05
3.45119e-05
6.45474e-05
3.59638e-05
4.60721e-05
3.69302e-05
2.74456e-05
3.72282e-05
8.88169e-06
3.71414e-05
-9.37384e-06
3.65071e-05
-2.71592e-05
3.5562e-05
-4.42717e-05
3.42365e-05
-6.0569e-05
3.25873e-05
-7.59816e-05
3.08313e-05
-9.04404e-05
2.89197e-05
-0.000103937
2.69864e-05
-0.000116468
2.50685e-05
-0.000128004
2.30816e-05
-0.000138585
2.11646e-05
-0.000148198
1.92225e-05
-0.00015689
1.73828e-05
-0.000164661
1.555e-05
-0.000171569
1.38243e-05
-0.00017763
1.21262e-05
-0.000182821
1.03832e-05
-0.000187237
8.835e-06
-0.000190985
7.49818e-06
-0.00019395
5.92758e-06
-0.000196161
4.42794e-06
-0.000197751
3.18261e-06
-0.000198732
1.95365e-06
-0.000198902
3.41647e-07
-0.000198468
-8.64553e-07
-0.000197292
-2.34805e-06
-0.000195406
-3.7734e-06
-0.000192726
-5.36313e-06
-0.000189272
-6.91654e-06
-0.000184994
-8.54819e-06
-0.000179869
-1.02518e-05
-0.000173841
-1.20538e-05
-0.000167028
-1.3625e-05
-0.000159498
-1.50591e-05
-0.000151186
-1.66118e-05
-0.000142287
-1.77924e-05
-0.000132901
-1.87714e-05
-0.000122842
-2.0117e-05
-0.000112333
-2.10195e-05
-0.000101132
-2.24033e-05
-8.92644e-05
-2.3735e-05
-7.68614e-05
-2.48082e-05
-6.36364e-05
-2.64523e-05
-4.95503e-05
-2.81713e-05
-3.47799e-05
-2.95404e-05
-1.90882e-05
-3.13818e-05
-2.53134e-06
-3.31108e-05
1.44826e-05
-3.40119e-05
3.22498e-05
-3.55237e-05
5.03145e-05
-3.61179e-05
6.86194e-05
-3.65924e-05
8.68358e-05
-3.64165e-05
0.00010451
-3.5328e-05
0.000121507
-3.39797e-05
0.000137494
-3.19643e-05
0.000152038
-2.90731e-05
0.000165007
-2.59171e-05
0.000176074
-2.21304e-05
0.000185168
-1.81817e-05
0.000192005
-1.36722e-05
0.000196494
-8.97174e-06
0.000198573
-4.15292e-06
0.000198215
7.0728e-07
0.000195325
5.77435e-06
0.000190113
1.04195e-05
0.00018271
1.48013e-05
0.000173338
1.87315e-05
0.00016227
2.21229e-05
0.000149557
2.54157e-05
0.000135636
2.78275e-05
0.000120747
2.9767e-05
0.000105073
3.13359e-05
8.9016e-05
3.21048e-05
7.26184e-05
3.27839e-05
5.63072e-05
3.26117e-05
4.00942e-05
3.24171e-05
2.40838e-05
3.20198e-05
8.43264e-06
3.12966e-05
-6.80192e-06
3.0468e-05
-2.15509e-05
2.94951e-05
-3.57508e-05
2.83971e-05
-4.94071e-05
2.73086e-05
-6.24649e-05
2.61103e-05
-7.48916e-05
2.48508e-05
-8.66903e-05
2.35956e-05
-9.78151e-05
2.22493e-05
-0.000108279
2.09281e-05
-0.000118045
1.95283e-05
-0.000127084
1.80778e-05
-0.000135412
1.66536e-05
-0.000142999
1.51713e-05
-0.000149823
1.36464e-05
-0.000155884
1.21217e-05
-0.000161156
1.05427e-05
-0.000165635
8.95809e-06
-0.000169309
7.34452e-06
-0.000172152
5.68815e-06
-0.000174157
4.00938e-06
-0.000175321
2.33084e-06
-0.000175644
6.4867e-07
-0.000175023
-1.24189e-06
-0.000173478
-3.08721e-06
-0.000171032
-4.8917e-06
-0.000167693
-6.6762e-06
-0.00016343
-8.52507e-06
-0.000158295
-1.0269e-05
-1.20403e-05
0.000101082
-5.52737e-05
0.000119514
-5.52387e-05
0.000137524
-5.39679e-05
0.000154781
-5.16994e-05
0.000171249
-4.93378e-05
0.000186564
-4.58585e-05
0.000200521
-4.18023e-05
0.000212878
-3.7001e-05
0.000223329
-3.1272e-05
0.000231682
-2.5019e-05
0.000237789
-1.831e-05
0.000241544
-1.12634e-05
0.000242878
-3.99238e-06
0.000241616
3.66464e-06
0.000237861
1.12251e-05
0.000231643
1.86093e-05
0.000222956
2.60587e-05
0.00021223
3.21068e-05
0.000199507
3.81358e-05
0.000184913
4.37262e-05
0.000168947
4.78545e-05
0.000151695
5.16914e-05
0.000133517
5.44928e-05
0.000114604
5.67212e-05
9.52448e-05
5.79695e-05
7.58568e-05
5.81323e-05
5.64248e-05
5.82494e-05
3.72532e-05
5.74761e-05
1.85481e-05
5.60813e-05
4.29411e-07
5.43211e-05
-1.69626e-05
5.21537e-05
-3.35083e-05
4.96196e-05
-4.91444e-05
4.68926e-05
-6.37935e-05
4.39332e-05
-7.74474e-05
4.09564e-05
-9.0079e-05
3.78892e-05
-0.000101676
3.47876e-05
-0.000112284
3.18277e-05
-0.000121904
2.88603e-05
-0.000130576
2.60118e-05
-0.000138329
2.3257e-05
-0.000145202
2.06262e-05
-0.000151236
1.81006e-05
-0.000156477
1.57279e-05
-0.000160913
1.33075e-05
-0.000164603
1.10795e-05
-0.000167567
8.89232e-06
-0.000169799
6.7011e-06
-0.000171338
4.61162e-06
-0.000172181
2.53279e-06
-0.0001723
3.87935e-07
-0.000171707
-1.78318e-06
-0.000170293
-4.2363e-06
-0.000168195
-6.30363e-06
-0.000165346
-8.54729e-06
-0.000161664
-1.10597e-05
-0.000157167
-1.34903e-05
-0.000151899
-1.58181e-05
-0.000145674
-1.8666e-05
-0.000138617
-2.11853e-05
-0.000130559
-2.41941e-05
-0.000121442
-2.73369e-05
-0.000111473
-2.99168e-05
-0.000100507
-3.29143e-05
-8.85112e-05
-3.59777e-05
-7.56674e-05
-3.85004e-05
-6.18421e-05
-4.14714e-05
-4.71689e-05
-4.40101e-05
-3.165e-05
-4.654e-05
-1.53007e-05
-4.90213e-05
1.6588e-06
-5.08619e-05
1.91355e-05
-5.24167e-05
3.70555e-05
-5.37278e-05
5.51608e-05
-5.42979e-05
7.33735e-05
-5.45991e-05
9.15232e-05
-5.43782e-05
0.000109372
-5.35357e-05
0.00012687
-5.24332e-05
0.000143621
-5.02239e-05
0.000159515
-4.76371e-05
0.000174375
-4.44485e-05
0.000187935
-4.06901e-05
0.000199855
-3.57449e-05
0.000210191
-3.09504e-05
0.000218589
-2.51584e-05
0.00022505
-1.93405e-05
0.000229262
-1.26021e-05
0.000231209
-5.78048e-06
0.00023087
1.00602e-06
0.000228
8.58735e-06
0.000222706
1.58991e-05
0.000214976
2.31724e-05
0.000204971
2.99751e-05
0.000192845
3.62989e-05
0.000178784
4.20945e-05
0.000163079
4.70272e-05
0.000145993
5.1239e-05
0.000127716
5.46686e-05
0.000108632
5.71689e-05
8.89802e-05
5.88653e-05
6.90225e-05
5.98031e-05
4.90209e-05
5.99398e-05
2.92032e-05
5.93537e-05
9.80858e-06
5.81112e-05
-8.94863e-06
5.62125e-05
-2.69189e-05
5.38609e-05
-4.39661e-05
5.11162e-05
-5.99966e-05
4.81084e-05
-7.49643e-05
4.48847e-05
-8.88025e-05
4.15027e-05
-0.000101515
3.81381e-05
-0.000113093
3.47035e-05
-0.000123563
3.1359e-05
-0.000132966
2.82808e-05
-0.000141297
2.4964e-05
-0.00014863
2.20129e-05
-0.000154991
1.90763e-05
-0.000160415
1.63065e-05
-0.000164969
1.36196e-05
-0.00016863
1.09551e-05
-0.000171426
8.45641e-06
-0.00017348
6.19934e-06
-0.000174776
3.8382e-06
-0.000175312
1.6503e-06
-0.000175216
-3.77493e-07
-0.000174343
-2.64696e-06
-0.000172844
-4.46291e-06
-0.000170642
-6.6272e-06
-0.000167834
-8.38317e-06
-0.000164367
-1.04696e-05
-0.000160197
-1.24521e-05
-0.000155479
-1.42277e-05
-0.000150043
-1.64399e-05
-0.000143928
-1.8274e-05
-0.000137034
-2.0533e-05
-0.000129509
-2.27296e-05
-0.000121114
-2.50333e-05
-0.000112031
-2.7407e-05
-0.00010206
-2.98931e-05
-9.12433e-05
-3.24908e-05
-7.95659e-05
-3.50292e-05
-6.70225e-05
-3.76711e-05
-5.3581e-05
-4.02419e-05
-3.93424e-05
-4.27068e-05
-2.42866e-05
-4.51077e-05
-8.45738e-06
-4.74008e-05
7.84901e-06
-4.89697e-05
2.47278e-05
-5.06193e-05
4.20068e-05
-5.17736e-05
5.94795e-05
-5.23795e-05
7.70174e-05
-5.25396e-05
9.43646e-05
-5.20315e-05
0.000111341
-5.08027e-05
0.000127678
-4.89627e-05
0.000143131
-4.63055e-05
0.000157438
-4.28359e-05
0.000170325
-3.85976e-05
0.000181534
-3.35656e-05
0.000190863
-2.79163e-05
0.000198012
-2.14152e-05
0.000202913
-1.46714e-05
0.000205399
-7.39951e-06
0.000205356
6.22582e-08
0.00020278
7.63362e-06
0.000197685
1.53253e-05
0.000190224
2.24464e-05
0.000180403
2.932e-05
0.000168534
3.56148e-05
0.000154791
4.11525e-05
0.00013945
4.60194e-05
0.000122742
5.00215e-05
0.000105021
5.30627e-05
8.65572e-05
5.53282e-05
6.76386e-05
5.66619e-05
4.85308e-05
5.73519e-05
2.94328e-05
5.73353e-05
1.05133e-05
5.66382e-05
-7.86043e-06
5.51492e-05
-2.55901e-05
5.31238e-05
-4.24741e-05
5.0605e-05
-5.83572e-05
4.76534e-05
-7.31898e-05
4.44713e-05
-8.69307e-05
4.11842e-05
-9.95895e-05
3.79689e-05
-0.00011126
3.49903e-05
-0.000121956
3.2101e-05
-0.000131706
2.93571e-05
-0.000140655
2.6744e-05
-0.000148665
2.40338e-05
-0.000155864
2.15868e-05
-0.000162242
1.90903e-05
-0.000167871
1.69118e-05
-0.000172656
1.43218e-05
-0.000176642
1.19998e-05
-0.000179881
9.70357e-06
-0.000182415
7.5915e-06
-0.000184289
5.69482e-06
-0.000185661
4.0541e-06
-0.000186472
2.4115e-06
-0.000186702
6.72992e-07
-0.00018635
-1.1258e-06
-0.000185337
-2.98507e-06
-0.000183654
-5.09276e-06
-0.000181266
-7.15338e-06
-0.000178116
-9.44709e-06
-0.000174301
-1.14496e-05
-0.000169729
-1.37278e-05
-0.00016447
-1.5757e-05
-0.000158481
-1.80523e-05
-0.000151756
-2.00879e-05
-0.000144259
-2.24149e-05
-0.000136062
-2.46706e-05
-0.000127039
-2.70627e-05
-0.000117207
-2.95543e-05
-0.000106576
-3.1843e-05
-9.51035e-05
-3.43835e-05
-8.28736e-05
-3.67244e-05
-6.98264e-05
-3.91177e-05
-5.59774e-05
-4.14916e-05
-4.14661e-05
-4.36575e-05
-2.62511e-05
-4.55013e-05
-1.0472e-05
-4.72809e-05
5.79753e-06
-4.87579e-05
2.2441e-05
-4.98832e-05
3.93285e-05
-5.0584e-05
5.62314e-05
-5.06953e-05
7.30167e-05
-5.03017e-05
8.94278e-05
-4.9176e-05
0.000105243
-4.73843e-05
0.0001202
-4.48547e-05
0.000134052
-4.14563e-05
0.000146547
-3.74168e-05
0.000157414
-3.25676e-05
0.000166452
-2.70465e-05
0.000173412
-2.08708e-05
0.000178135
-1.41043e-05
0.000180504
-7.08077e-06
0.000180441
1.93752e-07
0.000177888
7.60208e-06
0.000172889
1.49823e-05
0.000165573
2.19148e-05
0.000156013
2.859e-05
0.000144399
3.48354e-05
0.000130977
4.02002e-05
0.00011597
4.49444e-05
9.969e-05
4.87849e-05
8.23885e-05
5.18133e-05
6.43661e-05
5.39861e-05
4.58996e-05
5.53965e-05
2.72394e-05
5.58884e-05
8.65203e-06
5.57288e-05
-9.61939e-06
5.47785e-05
-2.73928e-05
5.33355e-05
-4.44808e-05
5.13246e-05
-6.07732e-05
4.88798e-05
-7.61799e-05
4.62381e-05
-9.06412e-05
4.33811e-05
-0.00010413
4.04756e-05
-0.000116642
3.75808e-05
-0.000128171
3.46107e-05
-0.000138753
3.17466e-05
-0.000148354
2.88233e-05
-0.000157036
2.60653e-05
-0.000164802
2.33157e-05
-0.000171703
2.07252e-05
-0.000177754
1.81778e-05
-0.000182939
1.55685e-05
-0.000187361
1.32567e-05
-0.000191094
1.12312e-05
-0.000194059
8.89306e-06
-0.000196255
6.62389e-06
-0.000197838
4.76573e-06
-0.000198824
2.93929e-06
-0.000198987
5.04781e-07
-0.000198544
-1.30675e-06
-0.000197359
-3.53309e-06
-0.00019548
-5.65249e-06
-0.000192803
-8.04074e-06
-0.00018936
-1.0359e-05
-0.000185073
-1.28352e-05
-0.000179951
-1.53742e-05
-0.000173916
-1.80882e-05
-0.000167101
-2.04399e-05
-0.000159566
-2.25941e-05
-0.000151242
-2.49359e-05
-0.000142338
-2.66969e-05
-0.000132949
-2.81604e-05
-0.000122889
-3.01767e-05
-0.000112381
-3.15273e-05
-0.000101183
-3.36018e-05
-8.93194e-05
-3.55985e-05
-7.69244e-05
-3.72032e-05
-6.37041e-05
-3.96727e-05
-4.96191e-05
-4.22564e-05
-3.48482e-05
-4.43115e-05
-1.91535e-05
-4.70765e-05
-2.59085e-06
-4.96736e-05
1.44363e-05
-5.10391e-05
3.22211e-05
-5.33086e-05
5.03068e-05
-5.42037e-05
6.86386e-05
-5.49243e-05
8.68784e-05
-5.46564e-05
0.000104578
-5.30273e-05
0.000121601
-5.10031e-05
0.000137612
-4.79751e-05
0.00015218
-4.36414e-05
0.000165173
-3.89107e-05
0.000176252
-3.32091e-05
0.000185371
-2.73002e-05
0.000192229
-2.05302e-05
0.000196725
-1.34683e-05
0.000198812
-6.23997e-06
0.000198421
1.0978e-06
0.000195502
8.69408e-06
0.000190281
1.56403e-05
0.000182869
2.22131e-05
0.000173482
2.81186e-05
0.000162383
3.32211e-05
0.000149657
3.81424e-05
0.000135711
4.1773e-05
0.000120806
4.46722e-05
0.000105109
4.70328e-05
8.90392e-05
4.81747e-05
7.26258e-05
4.91972e-05
5.62944e-05
4.89431e-05
4.00667e-05
4.86447e-05
2.40587e-05
4.80279e-05
8.39965e-06
4.69556e-05
-6.84325e-06
4.57109e-05
-2.15981e-05
4.42499e-05
-3.58022e-05
4.26012e-05
-4.94607e-05
4.09671e-05
-6.25202e-05
3.91697e-05
-7.4949e-05
3.72796e-05
-8.6749e-05
3.53956e-05
-9.78744e-05
3.33747e-05
-0.000108341
3.13944e-05
-0.000118109
2.92964e-05
-0.000127149
2.71182e-05
-0.000135479
2.49833e-05
-0.000143066
2.27585e-05
-0.000149889
2.04697e-05
-0.00015595
1.81825e-05
-0.000161222
1.58146e-05
-0.000165702
1.34378e-05
-0.000169373
1.10164e-05
-0.000172217
8.53161e-06
-0.000174226
6.01893e-06
-0.000175393
3.49774e-06
-0.000175713
9.68199e-07
-0.000175092
-1.86283e-06
-0.000173547
-4.63193e-06
-0.000171101
-7.33829e-06
-0.000167762
-1.0015e-05
-0.000163498
-1.27884e-05
-0.000158363
-1.54045e-05
-1.80618e-05
0.000101108
-7.37391e-05
0.000119577
-7.37079e-05
0.000137627
-7.20181e-05
0.000154928
-6.90009e-05
0.000171441
-6.58505e-05
0.000186804
-6.12222e-05
0.000200805
-5.58034e-05
0.000213206
-4.94019e-05
0.000223698
-4.1764e-05
0.000232081
-3.34026e-05
0.000238214
-2.44428e-05
0.000241982
-1.50318e-05
0.0002433
-5.31027e-06
0.000241946
5.01876e-06
0.000238162
1.50093e-05
0.000231911
2.48602e-05
0.000223226
3.4743e-05
0.000212456
4.28767e-05
0.000199712
5.08796e-05
0.000185086
5.83525e-05
0.000169094
6.3846e-05
0.000151808
6.89781e-05
0.000133603
7.26971e-05
0.000114659
7.56657e-05
9.52604e-05
7.73677e-05
7.58544e-05
7.75383e-05
5.63958e-05
7.7708e-05
3.72022e-05
7.66696e-05
1.84781e-05
7.48054e-05
3.37607e-07
7.24616e-05
-1.70683e-05
6.95596e-05
-3.36257e-05
6.61769e-05
-4.927e-05
6.25368e-05
-6.39244e-05
5.85876e-05
-7.75815e-05
5.46134e-05
-9.02163e-05
5.05239e-05
-0.000101816
4.63872e-05
-0.00011242
4.24321e-05
-0.000122039
3.84791e-05
-0.000130711
3.46833e-05
-0.000138474
3.10204e-05
-0.000145336
2.74878e-05
-0.000151373
2.4138e-05
-0.000156605
2.09601e-05
-0.000161043
1.77455e-05
-0.000164726
1.47626e-05
-0.000167692
1.18577e-05
-0.000169926
8.93513e-06
-0.000171467
6.15251e-06
-0.000172301
3.36764e-06
-0.000172395
4.8196e-07
-0.000171799
-2.37971e-06
-0.00017038
-5.65522e-06
-0.000168287
-8.39641e-06
-0.000165438
-1.13961e-05
-0.000161764
-1.47339e-05
-0.000157268
-1.79866e-05
-0.000152008
-2.1078e-05
-0.000145779
-2.48947e-05
-0.000138731
-2.82339e-05
-0.000130682
-3.22433e-05
-0.000121564
-3.64552e-05
-0.000111614
-3.98665e-05
-0.000100643
-4.38847e-05
-8.86379e-05
-4.79833e-05
-7.57757e-05
-5.13627e-05
-6.1954e-05
-5.52932e-05
-4.72741e-05
-5.86902e-05
-3.17461e-05
-6.20681e-05
-1.53803e-05
-6.53872e-05
1.58456e-06
-6.78269e-05
1.90687e-05
-6.9901e-05
3.70099e-05
-7.16691e-05
5.51245e-05
-7.24126e-05
7.33562e-05
-7.28309e-05
9.15252e-05
-7.25473e-05
0.000109394
-7.14049e-05
0.000126926
-6.99646e-05
0.000143687
-6.69851e-05
0.000159614
-6.35645e-05
0.000174542
-5.93768e-05
0.000188105
-5.42521e-05
0.000200029
-4.76692e-05
0.000210386
-4.13073e-05
0.000218802
-3.35747e-05
0.000225257
-2.57947e-05
0.000229499
-1.68439e-05
0.00023148
-7.76121e-06
0.000231106
1.38106e-06
0.000228218
1.14754e-05
0.000222915
2.12029e-05
0.000215156
3.09321e-05
0.00020512
4.0011e-05
0.000192951
4.84692e-05
0.000178845
5.62003e-05
0.000163084
6.27883e-05
0.000145908
6.84154e-05
0.000127614
7.29636e-05
0.000108484
7.62989e-05
8.87902e-05
7.8559e-05
6.88048e-05
7.97886e-05
4.87641e-05
7.99805e-05
2.89251e-05
7.91928e-05
9.53053e-06
7.75057e-05
-9.30697e-06
7.505e-05