/*--------------------------------*- C++ -*----------------------------------*\
| =========                 |                                                 |
| \\      /  F ield         | OpenFOAM: The Open Source CFD Toolbox           |
|  \\    /   O peration     | Version:  3.0.1                                 |
|   \\  /    A nd           | Web:      www.OpenFOAM.org                      |
|    \\/     M anipulation  |                                                 |
\*---------------------------------------------------------------------------*/
FoamFile
{
    version     2.0;
    format      ascii;
    class       volScalarField;
    location    "18.8";
    object      p_rgh;
}
// * * * * * * * * * * * * * * * * * * * * * * * * * * * * * * * * * * * * * //

dimensions      [1 -1 -2 0 0 0 0];

internalField   nonuniform List<scalar> 
21420
(
381.575
398.221
411.058
419.98
424.942
425.672
422.102
414.445
402.843
387.359
368.239
345.762
320.276
292.13
261.732
229.476
195.794
161.174
126.061
90.9467
56.348
23.6479
-8.96009
-40.9021
-71.7243
-101.131
-128.941
-155.027
-179.324
-201.798
-222.438
-241.261
-258.303
-273.605
-287.218
-299.193
-309.581
-318.43
-325.779
-331.666
-336.116
-339.089
-340.597
-340.656
-339.261
-336.34
-331.876
-325.836
-318.149
-308.769
-297.645
-284.718
-269.95
-253.295
-234.723
-214.247
-191.902
-167.702
-141.722
-114.078
-84.8914
-54.3359
-22.6069
9.99049
43.1993
76.8946
110.77
144.456
177.608
209.871
240.88
270.291
297.753
322.918
345.463
365.072
381.458
394.377
403.603
408.939
410.214
407.543
400.809
390.065
375.47
357.217
335.53
310.727
283.147
253.146
221.131
187.519
152.738
117.228
81.4274
45.7671
10.6575
-23.5289
-56.4551
-87.8352
-117.448
-145.14
-170.796
-194.347
-215.805
-235.202
-252.589
-268.05
-281.667
-293.527
-303.719
-312.325
-319.416
-325.046
-329.287
-332.151
-333.632
-333.792
-332.626
-330.093
-326.179
-320.848
-314.054
-305.743
-295.861
-284.351
-271.166
-256.267
-239.619
-221.208
-201.03
-179.102
-155.461
-130.158
-103.268
-74.887
-45.1385
-14.1765
17.8235
50.617
83.9528
117.531
151.017
184.043
216.217
247.132
276.367
303.514
328.176
349.979
368.576
383.671
395.026
402.452
405.798
405.038
400.147
391.254
378.426
361.868
341.826
318.587
292.489
263.9
233.214
200.85
167.233
132.788
97.9359
63.0774
28.5832
-5.19861
-37.9723
-69.4801
-99.5044
-127.861
-154.421
-179.083
-201.77
-222.458
-241.137
-257.818
-272.528
-285.311
-296.223
-305.327
-312.684
-318.369
-322.457
-324.991
-325.993
-325.609
-323.85
-320.755
-316.351
-310.651
-303.665
-295.39
-285.808
-274.89
-262.602
-248.893
-233.707
-216.985
-198.671
-178.702
-157.033
-133.645
-108.535
-81.7367
-53.324
-23.4157
7.82836
40.1746
73.3425
107.009
140.804
174.31
207.067
238.614
268.475
296.18
321.292
343.397
362.133
377.204
388.36
395.442
398.306
397.005
391.531
382.052
368.711
351.776
331.544
308.361
282.6
254.666
224.98
193.948
161.975
129.452
96.7366
64.1541
32.0013
0.536363
-30.0185
-59.4886
-87.7286
-114.628
-140.111
-164.114
-186.582
-207.499
-226.86
-244.65
-260.871
-275.535
-288.648
-300.218
-310.247
-318.737
-325.687
-331.092
-334.967
-337.268
-337.942
-337.064
-334.584
-330.456
-324.644
-317.132
-307.874
-296.834
-284.02
-269.398
-252.945
-234.692
-214.669
-192.892
-169.443
-144.431
-117.964
-90.1566
-61.1509
-31.0785
0.326643
33.7479
67.001
100.156
133.013
165.31
196.798
227.167
256.085
283.258
308.353
331.035
351.017
367.989
381.696
391.885
398.314
400.927
399.885
394.753
385.543
372.381
355.49
335.042
311.293
284.613
255.355
223.926
190.821
156.47
121.371
85.9462
50.6256
16.5105
-16.2393
-48.4035
-79.5114
-109.16
-137.062
-163.048
-186.988
-208.822
-228.532
-246.124
-261.634
-275.12
-286.646
-296.288
-304.127
-310.241
-314.717
-317.594
-318.926
-318.681
-317
-313.908
-309.444
-303.66
-296.567
-288.193
-278.563
-267.666
-255.513
-242.103
-227.43
-211.502
-194.323
-175.927
-156.36
-135.7
-114.085
381.698
398.358
411.205
420.134
425.099
425.843
422.26
414.602
402.989
387.493
368.359
345.866
320.362
292.197
261.78
229.505
195.804
161.165
126.035
90.9025
56.2881
23.6006
-9.02
-40.9727
-71.802
-101.213
-129.025
-155.112
-179.408
-201.88
-222.517
-241.338
-258.377
-273.675
-287.286
-299.258
-309.643
-318.49
-325.838
-331.723
-336.171
-339.145
-340.654
-340.715
-339.32
-336.401
-331.938
-325.901
-318.217
-308.839
-297.719
-284.795
-270.029
-253.376
-234.805
-214.33
-191.985
-167.785
-141.802
-114.155
-84.964
-54.4026
-22.6667
9.93934
43.1581
76.865
110.753
144.453
177.619
209.897
240.922
270.348
297.827
323.007
345.566
365.189
381.588
394.518
403.751
409.092
410.377
407.694
400.959
390.208
375.603
357.336
335.634
310.814
283.216
253.196
221.162
187.532
152.732
117.205
81.3876
45.7122
10.5893
-23.6084
-56.5435
-87.9298
-117.546
-145.241
-170.896
-194.445
-215.9
-235.293
-252.675
-268.132
-281.744
-293.6
-303.788
-312.39
-319.478
-325.108
-329.346
-332.209
-333.687
-333.85
-332.684
-330.152
-326.239
-320.911
-314.119
-305.81
-295.931
-284.424
-271.242
-256.344
-239.698
-221.288
-201.111
-179.183
-155.541
-130.237
-103.345
-74.9609
-45.208
-14.24
17.7669
50.5696
83.9164
117.507
151.008
184.05
216.241
247.173
276.426
303.592
328.272
350.091
368.702
383.809
395.174
402.607
405.961
405.192
400.299
391.399
378.562
361.991
341.934
318.679
292.563
263.955
233.251
200.869
167.234
132.771
97.9036
63.0311
28.5245
-5.26763
-38.0496
-69.564
-99.5929
-127.953
-154.515
-179.177
-201.864
-222.55
-241.227
-257.905
-272.613
-285.392
-296.301
-305.402
-312.756
-318.438
-322.523
-325.053
-326.054
-325.668
-323.908
-320.811
-316.407
-310.708
-303.722
-295.448
-285.867
-274.951
-262.666
-248.959
-233.777
-217.059
-198.747
-178.782
-157.115
-133.729
-108.619
-81.8199
-53.4045
-23.4914
7.75896
40.1142
73.2936
106.974
140.785
174.309
207.085
238.652
268.534
296.259
321.39
343.513
362.264
377.348
388.513
395.6
398.471
397.157
391.68
382.193
368.84
351.89
331.642
308.441
282.661
254.709
225.004
193.956
161.967
129.429
96.7012
64.1078
31.9459
0.473784
-30.0867
-59.5607
-87.8035
-114.704
-140.188
-164.191
-186.659
-207.574
-226.935
-244.723
-260.942
-275.605
-288.717
-300.286
-310.314
-318.803
-325.753
-331.159
-335.034
-337.332
-338.009
-337.133
-334.652
-330.526
-324.716
-317.205
-307.95
-296.911
-284.099
-269.478
-253.026
-234.773
-214.749
-192.971
-169.521
-144.506
-118.035
-90.2234
-61.2129
-31.1356
0.27542
33.7088
66.9717
100.137
133.005
165.314
196.816
227.2
256.132
283.321
308.431
331.128
351.124
368.11
381.829
392.029
398.47
401.09
400.038
394.901
385.689
372.523
355.62
335.158
311.393
284.694
255.416
223.967
190.841
156.47
121.351
85.9084
50.5745
16.4542
-16.3062
-48.4804
-79.5965
-109.25
-137.156
-163.143
-187.083
-208.915
-228.623
-246.212
-261.718
-275.2
-286.722
-296.361
-304.195
-310.306
-314.778
-317.653
-318.983
-318.738
-317.054
-313.96
-309.496
-303.711
-296.618
-288.244
-278.614
-267.718
-255.565
-242.156
-227.484
-211.557
-194.379
-175.983
-156.416
-135.756
-114.141
381.946
398.631
411.499
420.443
425.414
426.184
422.579
414.916
403.281
387.762
368.599
346.073
320.534
292.332
261.876
229.562
195.824
161.149
125.982
90.8141
56.1679
23.5061
-9.13986
-41.114
-71.9573
-101.377
-129.193
-155.281
-179.575
-202.044
-222.677
-241.492
-258.524
-273.817
-287.421
-299.388
-309.768
-318.611
-325.955
-331.837
-336.28
-339.254
-340.77
-340.835
-339.439
-336.522
-332.064
-326.031
-318.352
-308.98
-297.865
-284.946
-270.185
-253.537
-234.968
-214.495
-192.15
-167.948
-141.961
-114.308
-85.1078
-54.5346
-22.7848
9.83843
43.0774
76.8075
110.721
144.448
177.643
209.952
241.008
270.466
297.976
323.188
345.777
365.427
381.852
394.804
404.053
409.404
410.706
408.004
401.266
390.502
375.876
357.583
335.851
310.998
283.364
253.307
221.236
187.568
152.732
117.17
81.3198
45.6143
10.4649
-23.7552
-56.708
-88.107
-117.731
-145.429
-171.084
-194.629
-216.078
-235.463
-252.837
-268.284
-281.887
-293.735
-303.915
-312.511
-319.594
-325.219
-329.454
-332.312
-333.791
-333.956
-332.79
-330.261
-326.352
-321.028
-314.24
-305.937
-296.064
-284.562
-271.385
-256.492
-239.85
-221.442
-201.266
-179.338
-155.695
-130.388
-103.492
-75.1017
-45.34
-14.3601
17.6607
50.4817
83.8506
117.467
150.996
184.07
216.296
247.264
276.554
303.756
328.471
350.323
368.963
384.095
395.478
402.924
406.295
405.506
400.611
391.699
378.842
362.247
342.161
318.873
292.721
264.076
233.335
200.916
167.245
132.748
97.8495
62.949
28.4179
-5.39488
-38.1935
-69.7208
-99.759
-128.125
-154.69
-179.354
-202.04
-222.723
-241.396
-258.069
-272.771
-285.544
-296.447
-305.541
-312.889
-318.566
-322.646
-325.164
-326.166
-325.776
-324.013
-320.915
-316.51
-310.811
-303.826
-295.555
-285.977
-275.065
-262.785
-249.084
-233.908
-217.196
-198.892
-178.932
-157.27
-133.887
-108.779
-81.9771
-53.5563
-23.6337
7.62963
40.0029
73.2056
106.914
140.757
174.317
207.131
238.739
268.662
296.428
321.598
343.756
362.538
377.646
388.828
395.926
398.813
397.473
391.991
382.486
369.11
352.13
331.848
308.612
282.796
254.806
225.065
193.983
161.962
129.395
96.6428
64.0277
31.8476
0.361157
-30.2105
-59.6925
-87.9408
-114.845
-140.33
-164.334
-186.801
-207.714
-227.073
-244.858
-261.075
-275.735
-288.844
-300.411
-310.438
-318.927
-325.876
-331.282
-335.157
-337.451
-338.136
-337.261
-334.782
-330.659
-324.852
-317.345
-308.094
-297.059
-284.25
-269.632
-253.182
-234.929
-214.905
-193.125
-169.672
-144.65
-118.173
-90.3531
-61.3333
-31.2465
0.176082
33.6334
66.9156
100.101
132.992
165.326
196.853
227.265
256.228
283.447
308.588
331.314
351.34
368.353
382.096
392.318
398.782
401.418
400.345
395.2
385.984
372.806
355.881
335.391
311.592
284.857
255.54
224.049
190.882
156.47
121.311
85.8328
50.472
16.3418
-16.4401
-48.6344
-79.7668
-109.432
-137.344
-163.333
-187.273
-209.102
-228.804
-246.387
-261.886
-275.36
-286.875
-296.505
-304.332
-310.436
-314.901
-317.772
-319.098
-318.851
-317.162
-314.066
-309.599
-303.812
-296.719
-288.345
-278.716
-267.821
-255.669
-242.262
-227.592
-211.666
-194.49
-176.096
-156.529
-135.868
-114.251
382.317
399.042
411.941
420.907
425.886
426.687
423.061
415.388
403.72
388.166
368.96
346.385
320.792
292.534
262.02
229.649
195.854
161.124
125.904
90.6814
55.987
23.3647
-9.31999
-41.3262
-72.1907
-101.622
-129.445
-155.534
-179.826
-202.29
-222.916
-241.723
-258.746
-274.029
-287.624
-299.582
-309.956
-318.792
-326.13
-332.007
-336.446
-339.419
-340.946
-341.012
-339.617
-336.704
-332.251
-326.226
-318.554
-309.191
-298.085
-285.173
-270.42
-253.778
-235.214
-214.743
-192.398
-168.193
-142.2
-114.537
-85.3236
-54.7327
-22.962
9.68667
42.9559
76.721
110.673
144.44
177.679
210.033
241.136
270.642
298.2
323.458
346.093
365.785
382.248
395.233
404.507
409.872
411.196
408.475
401.729
390.944
376.287
357.955
336.177
311.274
283.587
253.474
221.347
187.623
152.733
117.119
81.2188
45.468
10.2788
-23.975
-56.9545
-88.3726
-118.008
-145.711
-171.366
-194.905
-216.344
-235.718
-253.08
-268.513
-282.102
-293.937
-304.107
-312.693
-319.767
-325.387
-329.616
-332.467
-333.95
-334.116
-332.95
-330.425
-326.521
-321.203
-314.423
-306.128
-296.263
-284.77
-271.6
-256.714
-240.077
-221.673
-201.499
-179.571
-155.926
-130.616
-103.713
-75.3128
-45.5379
-14.5403
17.5017
50.35
83.752
117.407
150.979
184.101
216.379
247.401
276.745
304.002
328.77
350.671
369.356
384.524
395.935
403.4
406.79
405.986
401.084
392.149
379.265
362.632
342.501
319.164
292.959
264.259
233.461
200.987
167.262
132.715
97.7688
62.8263
28.2584
-5.58534
-38.4088
-69.9557
-100.008
-128.383
-154.954
-179.619
-202.303
-222.983
-241.65
-258.314
-273.008
-285.772
-296.665
-305.75
-313.089
-318.757
-322.828
-325.335
-326.335
-325.938
-324.171
-321.071
-316.665
-310.966
-303.983
-295.715
-286.142
-275.236
-262.963
-249.271
-234.104
-217.403
-199.108
-179.158
-157.503
-134.125
-109.018
-82.213
-53.784
-23.8471
7.43576
39.8362
73.0737
106.824
140.715
174.328
207.201
238.871
268.856
296.682
321.911
344.121
362.949
378.095
389.304
396.416
399.32
397.953
392.462
382.927
369.515
352.491
332.159
308.87
282.998
254.953
225.158
194.024
161.956
129.346
96.5559
63.9082
31.7009
0.192747
-30.3958
-59.8897
-88.1465
-115.056
-140.543
-164.547
-187.013
-207.923
-227.279
-245.061
-261.273
-275.93
-289.036
-300.599
-310.624
-319.112
-326.061
-331.468
-335.342
-337.632
-338.326
-337.454
-334.977
-330.859
-325.057
-317.555
-308.311
-297.282
-284.476
-269.862
-253.416
-235.164
-215.138
-193.356
-169.898
-144.868
-118.38
-90.5479
-61.5139
-31.4128
0.0269407
33.52
66.8313
100.047
132.972
165.342
196.909
227.364
256.371
283.636
308.823
331.594
351.663
368.717
382.497
392.751
399.25
401.912
400.812
395.651
386.428
373.232
356.274
335.741
311.892
285.102
255.725
224.172
190.944
156.469
121.25
85.719
50.3176
16.1733
-16.6408
-48.8656
-80.0227
-109.705
-137.627
-163.619
-187.558
-209.382
-229.077
-246.65
-262.138
-275.6
-287.103
-296.722
-304.538
-310.632
-315.085
-317.948
-319.272
-319.021
-317.323
-314.223
-309.753
-303.965
-296.871
-288.497
-278.868
-267.975
-255.826
-242.421
-227.753
-211.83
-194.657
-176.264
-156.698
-136.037
-114.417
382.813
399.589
412.53
421.525
426.518
427.346
423.712
416.016
404.305
388.704
369.441
346.799
321.136
292.803
262.212
229.764
195.893
161.091
125.799
90.5043
55.7448
23.1764
-9.56088
-41.61
-72.5024
-101.95
-129.781
-155.872
-180.161
-202.618
-223.234
-242.03
-259.042
-274.312
-287.895
-299.842
-310.205
-319.033
-326.364
-332.235
-336.667
-339.642
-341.178
-341.247
-339.853
-336.947
-332.501
-326.486
-318.824
-309.472
-298.378
-285.477
-270.734
-254.1
-235.542
-215.074
-192.729
-168.52
-142.519
-114.844
-85.6118
-54.9972
-23.1984
9.48386
42.7935
76.6053
110.608
144.43
177.727
210.142
241.307
270.876
298.498
323.819
346.514
366.262
382.777
395.806
405.112
410.498
411.843
409.11
402.348
391.533
376.835
358.45
336.612
311.643
283.884
253.697
221.495
187.697
152.734
117.049
81.0835
45.2723
10.0299
-24.2689
-57.284
-88.7275
-118.379
-146.088
-171.742
-195.273
-216.701
-236.06
-253.403
-268.818
-282.388
-294.207
-304.362
-312.935
-319.999
-325.61
-329.832
-332.675
-334.161
-334.327
-333.164
-330.643
-326.747
-321.438
-314.667
-306.383
-296.529
-285.046
-271.888
-257.01
-240.38
-221.981
-201.81
-179.882
-156.235
-130.919
-104.007
-75.5947
-45.8023
-14.7813
17.2893
50.1742
83.6202
117.326
150.956
184.142
216.489
247.583
277.001
304.331
329.169
351.136
369.879
385.096
396.546
404.035
407.436
406.636
401.717
392.751
379.828
363.145
342.955
319.552
293.277
264.503
233.63
201.081
167.285
132.669
97.6609
62.6622
28.0452
-5.83985
-38.6966
-70.2695
-100.34
-128.728
-155.306
-179.973
-202.655
-223.329
-241.988
-258.642
-273.324
-286.076
-296.956
-306.029
-313.355
-319.011
-323.067
-325.567
-326.56
-326.155
-324.383
-321.28
-316.871
-311.173
-304.192
-295.928
-286.361
-275.464
-263.2
-249.52
-234.366
-217.679
-199.398
-179.458
-157.814
-134.442
-109.337
-82.528
-54.0882
-24.1324
7.17679
39.6133
72.8974
106.703
140.658
174.344
207.294
239.046
269.114
297.021
322.329
344.609
363.498
378.694
389.938
397.07
399.983
398.606
393.091
383.517
370.057
352.973
332.574
309.214
283.268
255.148
225.281
194.079
161.947
129.28
96.4394
63.7482
31.5048
-0.0323504
-30.6434
-60.1532
-88.4212
-115.337
-140.828
-164.833
-187.296
-208.203
-227.555
-245.332
-261.538
-276.19
-289.291
-300.85
-310.873
-319.359
-326.306
-331.715
-335.588
-337.875
-338.579
-337.71
-335.238
-331.125
-325.331
-317.835
-308.599
-297.579
-284.778
-270.17
-253.729
-235.478
-215.449
-193.665
-170.199
-145.158
-118.656
-90.8078
-61.755
-31.6346
-0.172159
33.3686
66.7188
99.9755
132.946
165.364
196.984
227.495
256.562
283.888
309.137
331.968
352.095
369.203
383.031
393.329
399.87
402.561
401.446
396.263
387.023
373.8
356.797
336.207
312.291
285.427
255.971
224.337
191.025
156.469
121.168
85.5664
50.1107
15.949
-16.9084
-49.1743
-80.3643
-110.069
-138.004
-164.001
-187.939
-209.756
-229.44
-247
-262.474
-275.921
-287.408
-297.012
-304.813
-310.892
-315.331
-318.181
-319.506
-319.246
-317.538
-314.432
-309.959
-304.168
-297.073
-288.7
-279.072
-268.181
-256.034
-242.633
-227.969
-212.049
-194.879
-176.488
-156.923
-136.262
-114.638
383.433
400.274
413.267
422.3
427.312
428.159
424.528
416.799
405.037
389.378
370.043
347.318
321.567
293.139
262.451
229.907
195.942
161.049
125.667
90.2827
55.4403
22.9416
-9.86313
-41.9659
-72.893
-102.361
-130.202
-156.295
-180.58
-203.028
-223.633
-242.415
-259.411
-274.666
-288.234
-300.167
-310.517
-319.334
-326.657
-332.52
-336.945
-339.922
-341.465
-341.537
-340.148
-337.25
-332.814
-326.81
-319.162
-309.824
-298.744
-285.856
-271.125
-254.503
-235.951
-215.488
-193.143
-168.929
-142.918
-115.228
-85.9726
-55.3282
-23.4939
9.22955
42.5897
76.46
110.526
144.416
177.786
210.277
241.52
271.169
298.871
324.27
347.041
366.859
383.438
396.522
405.869
411.282
412.644
409.909
403.123
392.271
377.52
359.07
337.156
312.104
284.255
253.976
221.68
187.789
152.734
116.962
80.9138
45.0268
9.71774
-24.6374
-57.6968
-89.1722
-118.843
-146.56
-172.213
-195.735
-217.146
-236.486
-253.808
-269.2
-282.746
-294.545
-304.682
-313.237
-320.288
-325.889
-330.101
-332.937
-334.424
-334.592
-333.431
-330.917
-327.029
-321.73
-314.972
-306.702
-296.861
-285.392
-272.247
-257.38
-240.759
-222.366
-202.198
-180.271
-156.621
-131.299
-104.376
-75.9477
-46.1335
-15.0833
17.0232
49.9537
83.4548
117.224
150.927
184.192
216.625
247.81
277.32
304.741
329.668
351.718
370.534
385.812
397.309
404.83
408.241
407.449
402.511
393.505
380.533
363.787
343.523
320.038
293.674
264.807
233.841
201.199
167.312
132.612
97.525
62.4561
27.7777
-6.15894
-39.0571
-70.6626
-100.757
-129.16
-155.746
-180.416
-203.095
-223.763
-242.411
-259.052
-273.72
-286.456
-297.321
-306.378
-313.688
-319.328
-323.367
-325.857
-326.841
-326.426
-324.647
-321.54
-317.129
-311.431
-304.454
-296.194
-286.636
-275.749
-263.497
-249.832
-234.694
-218.024
-199.759
-179.835
-158.203
-134.839
-109.736
-82.9225
-54.4694
-24.4903
6.85229
39.334
72.6759
106.551
140.586
174.362
207.409
239.264
269.437
297.445
322.85
345.22
364.185
379.443
390.731
397.889
400.806
399.426
393.879
384.255
370.734
353.575
333.093
309.643
283.605
255.392
225.435
194.147
161.935
129.197
96.2928
63.5473
31.2588
-0.314541
-30.9536
-60.4832
-88.7652
-115.689
-141.184
-165.189
-187.651
-208.552
-227.899
-245.671
-261.87
-276.515
-289.611
-301.165
-311.184
-319.668
-326.614
-332.023
-335.894
-338.183
-338.894
-338.03
-335.563
-331.458
-325.673
-318.186
-308.96
-297.951
-285.157
-270.555
-254.12
-235.87
-215.839
-194.051
-170.577
-145.521
-119.001
-91.1332
-62.0565
-31.9117
-0.421577
33.1787
66.5779
99.8854
132.912
165.391
197.077
227.659
256.8
284.202
309.529
332.435
352.635
369.811
383.7
394.051
400.641
403.369
402.24
397.037
387.771
374.511
357.452
336.79
312.791
285.835
256.279
224.542
191.127
156.467
121.066
85.3741
49.8502
15.6691
-17.2428
-49.5608
-80.7922
-110.525
-138.476
-164.479
-188.415
-210.223
-229.895
-247.439
-262.894
-276.322
-287.789
-297.373
-305.156
-311.217
-315.638
-318.475
-319.797
-319.525
-317.806
-314.692
-310.216
-304.422
-297.326
-288.953
-279.327
-268.438
-256.294
-242.898
-228.238
-212.323
-195.157
-176.768
-157.205
-136.543
-114.914
384.178
401.096
414.153
423.232
428.269
429.132
425.505
417.736
405.915
390.187
370.765
347.941
322.083
293.542
262.738
230.078
196.001
160.998
125.509
90.0165
55.0723
22.6605
-10.2275
-42.3948
-73.3632
-102.855
-130.707
-156.803
-181.083
-203.521
-224.112
-242.877
-259.855
-275.09
-288.64
-300.556
-310.891
-319.695
-327.008
-332.863
-337.28
-340.259
-341.807
-341.885
-340.502
-337.613
-333.19
-327.2
-319.567
-310.246
-299.183
-286.312
-271.596
-254.986
-236.444
-215.986
-193.641
-169.421
-143.398
-115.688
-86.4062
-55.7261
-23.8486
8.923
42.3441
76.2849
110.427
144.4
177.857
210.439
241.776
271.521
299.318
324.812
347.673
367.576
384.232
397.382
406.778
412.225
413.604
410.87
404.054
393.157
378.344
359.814
337.809
312.657
284.7
254.309
221.901
187.898
152.734
116.857
80.7092
44.731
9.34183
-25.0809
-58.1936
-89.707
-119.401
-147.128
-172.779
-196.289
-217.682
-236.999
-254.294
-269.657
-283.177
-294.95
-305.065
-313.6
-320.634
-326.223
-330.423
-333.253
-334.74
-334.908
-333.751
-331.244
-327.368
-322.081
-315.338
-307.084
-297.26
-285.808
-272.678
-257.824
-241.214
-222.829
-202.665
-180.738
-157.085
-131.755
-104.819
-76.372
-46.5317
-15.4469
16.7031
49.6882
83.2552
117.101
150.891
184.252
216.789
248.083
277.702
305.234
330.267
352.416
371.32
386.672
398.226
405.784
409.211
408.423
403.464
394.412
381.379
364.558
344.205
320.621
294.15
265.172
234.093
201.34
167.345
132.542
97.361
62.2076
27.4557
-6.54315
-39.4909
-71.1354
-101.258
-129.679
-156.276
-180.949
-203.624
-224.284
-242.92
-259.544
-274.195
-286.913
-297.758
-306.796
-314.088
-319.708
-323.727
-326.203
-327.176
-326.75
-324.964
-321.852
-317.439
-311.742
-304.767
-296.514
-286.965
-276.091
-263.854
-250.206
-235.088
-218.438
-200.193
-180.286
-158.67
-135.317
-110.216
-83.3969
-54.928
-24.9211
6.46158
38.9977
72.4089
106.368
140.499
174.382
207.547
239.525
269.823
297.953
323.476
345.953
365.011
380.342
391.685
398.873
401.797
400.41
394.824
385.142
371.546
354.299
333.715
310.158
284.009
255.685
225.618
194.227
161.92
129.095
96.1158
63.3052
30.9625
-0.6541
-31.3267
-60.8801
-89.1787
-116.113
-141.612
-165.618
-188.077
-208.972
-228.313
-246.077
-262.268
-276.906
-289.994
-301.542
-311.557
-320.038
-326.983
-332.392
-336.261
-338.554
-339.272
-338.414
-335.953
-331.857
-326.083
-318.607
-309.393
-298.397
-285.611
-271.017
-254.59
-236.341
-216.306
-194.514
-171.03
-145.958
-119.416
-91.5241
-62.4186
-32.2441
-0.721802
32.9503
66.4084
99.7767
132.871
165.422
197.188
227.856
257.085
284.579
310
332.996
353.283
370.54
384.503
394.918
401.563
404.328
403.193
397.97
388.673
375.366
358.238
337.491
313.391
286.324
256.649
224.788
191.249
156.464
120.943
85.1412
49.5348
15.3338
-17.644
-50.0256
-81.307
-111.073
-139.043
-165.053
-188.987
-210.785
-230.441
-247.965
-263.398
-276.803
-288.247
-297.807
-305.567
-311.608
-316.007
-318.828
-320.143
-319.86
-318.127
-315.005
-310.524
-304.728
-297.629
-289.257
-279.633
-268.747
-256.607
-243.216
-228.562
-212.651
-195.49
-177.105
-157.543
-136.881
-115.247
385.047
402.057
415.187
424.32
429.388
430.268
426.641
418.829
406.941
391.131
371.609
348.668
322.686
294.012
263.072
230.277
196.068
160.939
125.325
89.7056
54.6391
22.3334
-10.655
-42.8976
-73.9136
-103.433
-131.298
-157.396
-181.671
-204.097
-224.671
-243.416
-260.372
-275.586
-289.114
-301.01
-311.328
-320.117
-327.417
-333.262
-337.673
-340.652
-342.205
-342.289
-340.914
-338.037
-333.628
-327.654
-320.04
-310.738
-299.696
-286.843
-272.144
-255.55
-237.018
-216.567
-194.222
-169.995
-143.958
-116.226
-86.9129
-56.1913
-24.2625
8.56326
42.0565
76.0796
110.311
144.38
177.938
210.627
242.074
271.93
299.84
325.443
348.41
368.413
385.159
398.385
407.84
413.327
414.725
411.991
405.141
394.192
379.306
360.683
338.572
313.303
285.219
254.698
222.158
188.024
152.733
116.733
80.4692
44.3845
8.90152
-25.6003
-58.7751
-90.3328
-120.053
-147.792
-173.441
-196.937
-218.307
-237.597
-254.861
-270.191
-283.679
-295.422
-305.511
-314.024
-321.038
-326.612
-330.798
-333.622
-335.108
-335.277
-334.124
-331.627
-327.763
-322.491
-315.766
-307.53
-297.725
-286.293
-273.182
-258.343
-241.745
-223.369
-203.21
-181.283
-157.627
-132.287
-105.337
-76.8679
-46.9973
-15.8724
16.3283
49.3772
83.0209
116.957
150.847
184.321
216.979
248.399
278.148
305.808
330.966
353.231
372.238
387.677
399.298
406.9
410.345
409.56
404.575
395.471
382.367
365.457
345.001
321.301
294.705
265.597
234.387
201.503
167.381
132.459
97.1682
61.9162
27.0786
-6.99294
-39.9985
-71.6881
-101.843
-130.285
-156.894
-181.571
-204.241
-224.892
-243.513
-260.119
-274.75
-287.446
-298.269
-307.284
-314.554
-320.152
-324.148
-326.604
-327.566
-327.129
-325.333
-322.216
-317.8
-312.103
-305.133
-296.887
-287.349
-276.489
-264.27
-250.642
-235.547
-218.921
-200.7
-180.814
-159.216
-135.874
-110.777
-83.9517
-55.4645
-25.4255
6.00395
38.6038
72.0958
106.152
140.396
174.405
207.707
239.829
270.273
298.547
324.207
346.808
365.974
381.393
392.799
400.023
402.956
401.557
395.927
386.178
372.495
355.143
334.442
310.759
284.479
256.025
225.831
194.32
161.901
128.976
95.9077
63.0213
30.6154
-1.05146
-31.763
-61.3444
-89.6617
-116.608
-142.112
-166.118
-188.574
-209.463
-228.796
-246.552
-262.733
-277.361
-290.441
-301.982
-311.992
-320.47
-327.413
-332.822
-336.689
-338.987
-339.712
-338.862
-336.409
-332.323
-326.562
-319.098
-309.898
-298.918
-286.141
-271.557
-255.138
-236.891
-216.853
-195.055
-171.56
-146.468
-119.901
-91.9808
-62.8415
-32.6317
-1.07344
32.6828
66.21
99.6493
132.822
165.458
197.316
228.084
257.417
285.019
310.548
333.65
354.039
371.391
385.44
395.929
402.636
405.442
404.305
399.061
389.728
376.364
359.157
338.31
314.092
286.894
257.08
225.075
191.39
156.46
120.798
84.8666
49.1624
14.9435
-18.1118
-50.5693
-81.9094
-111.714
-139.706
-165.725
-189.655
-211.441
-231.078
-248.58
-263.987
-277.364
-288.78
-298.313
-306.048
-312.063
-316.439
-319.241
-320.545
-320.248
-318.502
-315.369
-310.882
-305.083
-297.983
-289.611
-279.989
-269.107
-256.971
-243.586
-228.939
-213.035
-195.879
-177.498
-157.938
-137.275
-115.634
386.041
403.155
416.371
425.566
430.672
431.569
427.936
420.076
408.115
392.212
372.573
349.5
323.375
294.548
263.453
230.504
196.144
160.87
125.115
89.35
54.1388
21.9609
-11.1468
-43.4755
-74.5451
-104.096
-131.975
-158.076
-182.343
-204.755
-225.31
-244.032
-260.963
-276.152
-289.655
-301.529
-311.826
-320.598
-327.885
-333.719
-338.123
-341.101
-342.658
-342.749
-341.385
-338.521
-334.129
-328.172
-320.58
-311.3
-300.282
-287.452
-272.772
-256.195
-237.676
-217.232
-194.887
-170.653
-144.6
-116.843
-87.4928
-56.724
-24.7358
8.14954
41.7264
75.8437
110.177
144.355
178.03
210.841
242.414
272.397
300.435
326.165
349.253
369.37
386.22
399.534
409.055
414.588
416.009
413.272
406.386
395.377
380.407
361.677
339.444
314.041
285.812
255.142
222.451
188.168
152.73
116.59
80.1933
43.9866
8.39607
-26.1962
-59.4419
-91.0501
-120.801
-148.552
-174.198
-197.678
-219.023
-238.282
-255.509
-270.802
-284.253
-295.962
-306.02
-314.508
-321.5
-327.056
-331.228
-334.044
-335.527
-335.698
-334.55
-332.063
-328.213
-322.959
-316.253
-308.04
-298.257
-286.848
-273.758
-258.937
-242.353
-223.987
-203.833
-181.908
-158.247
-132.896
-105.93
-77.4358
-47.5308
-16.3604
15.8985
49.0202
82.7513
116.789
150.796
184.398
217.194
248.76
278.657
306.465
331.765
354.162
373.288
388.826
400.524
408.177
411.645
410.86
405.846
396.683
383.498
366.487
345.911
322.079
295.34
266.082
234.721
201.688
167.422
132.363
96.9462
61.5813
26.6456
-7.50892
-40.5806
-72.3215
-102.513
-130.98
-157.602
-182.282
-204.948
-225.588
-244.193
-260.777
-275.384
-288.055
-298.852
-307.842
-315.086
-320.66
-324.63
-327.061
-328.012
-327.561
-325.755
-322.631
-318.212
-312.516
-305.551
-297.313
-287.787
-276.944
-264.744
-251.14
-236.071
-219.473
-201.279
-181.418
-159.841
-136.512
-111.419
-84.5873
-56.0794
-26.004
5.47876
38.1514
71.7357
105.903
140.276
174.429
207.888
240.175
270.787
299.226
325.043
347.788
367.078
382.596
394.075
401.34
404.284
402.87
397.19
387.364
373.581
356.109
335.273
311.445
285.016
256.413
226.074
194.424
161.878
128.838
95.6682
62.6951
30.2172
-1.50715
-32.2629
-61.8763
-90.2149
-117.174
-142.684
-166.691
-189.142
-210.024
-229.348
-247.094
-263.264
-277.882
-290.952
-302.486
-312.49
-320.964
-327.905
-333.314
-337.18
-339.482
-340.215
-339.373
-336.929
-332.856
-327.109
-319.66
-310.475
-299.512
-286.748
-272.174
-255.764
-237.521
-217.479
-195.674
-172.166
-147.052
-120.455
-92.5036
-63.3257
-33.0743
-1.47709
32.376
65.9825
99.5026
132.764
165.498
197.463
228.344
257.796
285.521
311.174
334.398
354.904
372.365
386.511
397.085
403.861
406.713
405.578
400.312
390.937
377.508
360.209
339.246
314.894
287.547
257.572
225.402
191.55
156.454
120.63
84.5486
48.7308
14.4993
-18.6463
-51.1926
-82.6001
-112.449
-140.466
-166.493
-190.419
-212.192
-231.808
-249.283
-264.66
-278.006
-289.39
-298.892
-306.596
-312.583
-316.932
-319.713
-321.002
-320.691
-318.93
-315.785
-311.291
-305.49
-298.388
-290.016
-280.397
-269.519
-257.387
-244.01
-229.37
-213.473
-196.324
-177.947
-158.39
-137.727
-116.078
387.161
404.392
417.705
426.97
432.119
433.035
429.393
421.481
409.437
393.428
373.659
350.437
324.151
295.151
263.881
230.757
196.228
160.791
124.879
88.9501
53.5692
21.5436
-11.7046
-44.1298
-75.2587
-104.843
-132.738
-158.842
-183.101
-205.497
-226.029
-244.726
-261.629
-276.789
-290.264
-302.112
-312.387
-321.139
-328.411
-334.234
-338.63
-341.607
-343.167
-343.266
-341.913
-339.065
-334.691
-328.756
-321.188
-311.932
-300.942
-288.136
-273.478
-256.922
-238.417
-217.98
-195.636
-171.394
-145.323
-117.537
-88.1468
-57.3248
-25.2706
7.68298
41.3538
75.5768
110.024
144.326
178.133
211.08
242.795
272.923
301.105
326.977
350.201
370.447
387.415
400.827
410.423
416.01
417.456
414.715
407.789
396.712
381.648
362.795
340.426
314.872
286.479
255.64
222.78
188.328
152.726
116.427
79.8807
43.5365
7.82463
-26.8696
-60.1951
-91.86
-121.646
-149.411
-175.052
-198.514
-219.829
-239.052
-256.239
-271.489
-284.898
-296.569
-306.593
-315.051
-322.019
-327.555
-331.712
-334.518
-335.999
-336.171
-335.029
-332.554
-328.72
-323.486
-316.802
-308.613
-298.856
-287.473
-274.406
-259.605
-243.038
-224.683
-204.535
-182.611
-158.945
-133.583
-106.597
-78.0761
-48.1327
-16.9115
15.4128
48.6164
82.4456
116.599
150.736
184.483
217.435
249.165
279.229
307.203
332.664
355.212
374.471
390.121
401.906
409.616
413.111
412.325
407.277
398.049
384.773
367.646
346.936
322.954
296.054
266.628
235.097
201.894
167.466
132.253
96.6943
61.202
26.156
-8.09192
-41.2379
-73.036
-103.27
-131.763
-158.401
-183.084
-205.743
-226.371
-244.957
-261.517
-276.097
-288.741
-299.509
-308.469
-315.685
-321.23
-325.173
-327.573
-328.513
-328.047
-326.229
-323.098
-318.675
-312.98
-306.02
-297.793
-288.28
-277.455
-265.278
-251.701
-236.661
-220.095
-201.931
-182.097
-160.545
-137.231
-112.144
-85.3043
-56.7735
-26.6576
4.88511
37.6397
71.3277
105.621
140.138
174.454
208.09
240.562
271.364
299.989
325.984
348.891
368.32
383.952
395.513
402.825
405.781
404.348
398.612
388.699
374.804
357.196
336.209