/*--------------------------------*- C++ -*----------------------------------*\
| =========                 |                                                 |
| \\      /  F ield         | OpenFOAM: The Open Source CFD Toolbox           |
|  \\    /   O peration     | Version:  3.0.1                                 |
|   \\  /    A nd           | Web:      www.OpenFOAM.org                      |
|    \\/     M anipulation  |                                                 |
\*---------------------------------------------------------------------------*/
FoamFile
{
    version     2.0;
    format      ascii;
    class       volScalarField;
    location    "32.4";
    object      p;
}
// * * * * * * * * * * * * * * * * * * * * * * * * * * * * * * * * * * * * * //

dimensions      [1 -1 -2 0 0 0 0];

internalField   nonuniform List<scalar> 
21420
(
4070.57
4038.42
4005.1
3970.94
3936.31
3901.55
3867.11
3833.37
3800.77
3770.22
3740.5
3711.8
3684.54
3658.97
3635.19
3613.27
3593.22
3575.04
3558.68
3544.12
3531.28
3520.13
3510.59
3502.62
3496.16
3491.17
3487.59
3485.42
3484.65
3485.48
3487.66
3491.24
3496.24
3502.67
3510.59
3520.04
3531.06
3543.71
3558.06
3574.13
3592
3611.69
3633.24
3656.67
3681.94
3708.99
3737.73
3767.84
3797.51
3829.85
3863.53
3897.99
3932.89
3967.79
4002.27
4035.96
4068.39
4099.15
4127.82
4154.02
4177.39
4197.61
4214.4
4227.51
4236.76
4242.02
4243.2
4240.28
4233.3
4222.29
4207.45
4188.99
4167.18
4142.34
4114.83
4085.05
4053.45
4020.44
3986.47
3951.97
3917.35
3882.98
3849.25
3816.67
3785
3754.65
3725.82
3698.65
3673.24
3649.68
3628
3608.22
3590.37
3574.44
3560.4
3548.23
3537.88
3529.31
3522.43
3517.19
3513.53
3511.36
3510.64
3511.36
3513.42
3516.82
3521.57
3527.67
3535.14
3544.01
3554.29
3566.03
3579.25
3593.99
3610.27
3628.11
3647.51
3668.46
3690.94
3714.94
3740.38
3767.22
3795.35
3824.67
3855.04
3886.28
3918.19
3950.53
3983.03
4015.39
4047.29
4078.33
4108.15
4136.33
4162.45
4186.12
4206.93
4224.52
4238.58
4248.83
4255.06
4257.05
4254.9
4248.5
4237.91
4223.31
4204.92
4183
4157.9
4130
4099.73
4067.56
4033.96
3999.42
3964.45
3929.5
3895.01
3861.39
3828.98
3798.07
3768.88
3741.58
3716.27
3693.01
3671.81
3652.64
3635.45
3620.17
3606.7
3594.96
3584.84
3576.25
3569.09
3563.29
3558.77
3555.46
3553.29
3552.25
3552.33
3553.45
3555.66
3558.94
3563.31
3568.81
3575.47
3583.35
3592.52
3603.04
3615
3628.47
3643.52
3660.23
3678.65
3698.82
3720.77
3744.48
3769.93
3797.05
3825.71
3855.78
3887.07
3919.36
3952.28
3985.54
4018.79
4051.61
4083.59
4114.28
4143.23
4169.98
4194.11
4215.2
4232.89
4246.87
4256.89
4262.76
4264.33
4261.72
4254.89
4243.98
4229.24
4210.93
4189.39
4165
4138.18
4109.37
4078.99
4047.5
4015.31
3982.82
3950.41
3918.39
3887.08
3856.7
3827.47
3799.54
3773.04
3748.05
3724.61
3702.76
3682.51
3663.84
3646.73
3631.18
3617.14
3604.59
3593.51
3583.85
3575.6
3568.75
3563.27
3559.14
3556.37
3554.98
3554.98
3556.33
3559.06
3563.2
3568.75
3575.74
3584.18
3594.11
3605.56
3618.55
3633.12
3649.3
3667.1
3686.54
3707.6
3730.26
3754.47
3780.14
3807.15
3835.35
3864.57
3894.85
3931.46
3964.15
3996.59
4028.74
4060.26
4090.75
4119.78
4146.94
4171.82
4194.03
4213.24
4229.14
4241.47
4250.01
4254.58
4254.96
4251.94
4244.95
4233.97
4219.11
4200.57
4178.63
4153.67
4126.11
4096.39
4064.97
4032.31
3998.88
3965.09
3931.33
3897.77
3864.15
3832.03
3801.33
3772.13
3744.51
3718.52
3694.22
3671.66
3650.85
3631.81
3614.54
3599.03
3585.28
3573.24
3562.9
3554.24
3547.21
3541.78
3537.91
3535.55
3534.73
3535.46
3537.68
3541.39
3546.62
3553.4
3561.73
3571.66
3583.22
3596.47
3611.45
3628.18
3646.69
3666.99
3689.09
3712.91
3738.43
3765.51
3794.05
3823.92
3854.84
3885.64
3917.59
3950.16
3982.9
4015.33
4047.1
4077.92
4107.3
4134.78
3972.51
3940.35
3907.01
3872.83
3838.19
3803.41
3768.96
3735.21
3702.59
3672.05
3642.33
3613.62
3586.36
3560.78
3537.01
3515.09
3495.04
3476.86
3460.51
3445.94
3433.11
3421.96
3412.43
3404.46
3398
3393.01
3389.43
3387.26
3386.5
3387.32
3389.51
3393.09
3398.09
3404.52
3412.43
3421.88
3432.9
3445.54
3459.88
3475.96
3493.82
3513.51
3535.06
3558.48
3583.75
3610.81
3639.56
3669.67
3699.33
3731.69
3765.37
3799.85
3834.76
3869.68
3904.18
3937.88
3970.33
4001.11
4029.8
4056.02
4079.4
4099.64
4116.44
4129.56
4138.82
4144.09
4145.25
4142.33
4135.35
4124.34
4109.48
4091.01
4069.19
4044.32
4016.79
3987
3955.37
3922.35
3888.36
3853.85
3819.21
3784.83
3751.08
3718.51
3686.83
3656.47
3627.63
3600.46
3575.06
3551.49
3529.81
3510.04
3492.19
3476.26
3462.22
3450.05
3439.71
3431.14
3424.26
3419.03
3415.37
3413.2
3412.49
3413.21
3415.26
3418.67
3423.42
3429.52
3436.99
3445.85
3456.13
3467.86
3481.09
3495.82
3512.11
3529.94
3549.34
3570.29
3592.77
3616.77
3642.21
3669.05
3697.18
3726.51
3756.89
3788.13
3820.05
3852.4
3884.91
3917.29
3949.2
3980.26
4010.09
4038.29
4064.43
4088.12
4108.95
4126.56
4140.63
4150.88
4157.12
4159.12
4156.96
4150.56
4139.96
4125.35
4106.95
4085.01
4059.89
4031.97
4001.68
3969.48
3935.86
3901.31
3866.32
3831.35
3796.85
3763.22
3730.8
3699.88
3670.69
3643.38
3618.08
3594.82
3573.62
3554.46
3537.27
3521.99
3508.53
3496.79
3486.68
3478.09
3470.94
3465.14
3460.62
3457.31
3455.15
3454.11
3454.19
3455.31
3457.51
3460.79
3465.17
3470.66
3477.32
3485.2
3494.37
3504.89
3516.84
3530.3
3545.35
3562.05
3580.47
3600.64
3622.59
3646.3
3671.75
3698.87
3727.54
3757.61
3788.91
3821.21
3854.14
3887.42
3920.68
3953.52
3985.52
4016.23
4045.19
4071.97
4096.11
4117.22
4134.93
4148.92
4158.95
4164.83
4166.4
4163.78
4156.94
4146.03
4131.27
4112.94
4091.39
4066.98
4040.14
4011.3
3980.91
3949.4
3917.2
3884.69
3852.27
3820.24
3788.92
3758.54
3729.3
3701.37
3674.87
3649.87
3626.44
3604.59
3584.34
3565.67
3548.57
3533.01
3518.97
3506.43
3495.35
3485.69
3477.45
3470.59
3465.11
3460.99
3458.22
3456.83
3456.83
3458.17
3460.91
3465.04
3470.6
3477.58
3486.02
3495.95
3507.4
3520.39
3534.96
3551.13
3568.93
3588.37
3609.43
3632.09
3656.29
3681.97
3708.98
3737.19
3766.41
3796.67
3833.35
3866.03
3898.48
3930.64
3962.17
3992.68
4021.73
4048.9
4073.8
4096.04
4115.26
4131.17
4143.51
4152.06
4156.64
4157.03
4153.99
4147.01
4136.02
4121.15
4102.59
4080.63
4055.66
4028.07
3998.33
3966.9
3934.21
3900.76
3866.96
3833.19
3799.61
3765.99
3733.86
3703.16
3673.96
3646.33
3620.34
3596.04
3573.48
3552.68
3533.64
3516.37
3500.86
3487.1
3475.07
3464.74
3456.07
3449.04
3443.62
3439.74
3437.39
3436.57
3437.3
3439.52
3443.23
3448.46
3455.23
3463.56
3473.49
3485.05
3498.3
3513.27
3530
3548.51
3568.81
3590.91
3614.73
3640.25
3667.34
3695.88
3725.75
3756.68
3787.49
3819.45
3852.03
3884.78
3917.23
3949.01
3979.84
4009.24
4036.74
3874.51
3842.31
3808.94
3774.72
3740.04
3705.23
3670.75
3636.98
3604.34
3573.81
3544.08
3515.36
3488.09
3462.51
3438.74
3416.82
3396.78
3378.6
3362.26
3347.7
3334.88
3323.73
3314.2
3306.24
3299.79
3294.8
3291.22
3289.05
3288.29
3289.11
3291.3
3294.88
3299.87
3306.3
3314.21
3323.65
3334.67
3347.31
3361.64
3377.71
3395.56
3415.25
3436.8
3460.22
3485.49
3512.54
3541.3
3571.44
3601.08
3633.46
3667.17
3701.67
3736.61
3771.55
3806.09
3839.83
3872.32
3903.13
3931.86
3958.11
3981.52
4001.79
4018.62
4031.76
4041.04
4046.32
4047.47
4044.54
4037.55
4026.53
4011.65
3993.15
3971.29
3946.39
3918.82
3888.99
3857.33
3824.27
3790.25
3755.7
3721.03
3686.62
3652.85
3620.28
3588.58
3558.21
3529.37
3502.19
3476.79
3453.22
3431.54
3411.77
3393.92
3378
3363.97
3351.8
3341.47
3332.9
3326.03
3320.8
3317.15
3314.98
3314.28
3315
3317.05
3320.46
3325.21
3331.31
3338.77
3347.63
3357.91
3369.64
3382.86
3397.59
3413.87
3431.7
3451.1
3472.05
3494.53
3518.53
3543.98
3570.82
3598.96
3628.29
3658.68
3689.94
3721.87
3754.24
3786.78
3819.18
3851.12
3882.21
3912.08
3940.32
3966.5
3990.22
4011.08
4028.72
4042.82
4053.1
4059.35
4061.37
4059.18
4052.77
4042.17
4027.54
4009.1
3987.13
3961.97
3934
3903.67
3871.44
3837.78
3803.18
3768.15
3733.15
3698.63
3664.97
3632.53
3601.6
3572.4
3545.1
3519.79
3496.54
3475.34
3456.19
3439.01
3423.74
3410.29
3398.56
3388.45
3379.87
3372.73
3366.94
3362.42
3359.12
3356.96
3355.92
3356
3357.13
3359.33
3362.6
3366.98
3372.47
3379.12
3387
3396.16
3406.67
3418.61
3432.07
3447.11
3463.8
3482.22
3502.38
3524.32
3548.04
3573.49
3600.61
3629.29
3659.38
3690.69
3723.01
3755.96
3789.27
3822.56
3855.44
3887.47
3918.22
3947.23
3974.04
3998.22
4019.37
4037.11
4051.12
4061.17
4067.06
4068.65
4066
4059.15
4048.22
4033.43
4015.07
3993.48
3969.03
3942.16
3913.28
3882.85
3851.31
3819.07
3786.54
3754.09
3722.04
3690.7
3660.31
3631.06
3603.13
3576.62
3551.63
3528.19
3506.35
3486.09
3467.43
3450.33
3434.78
3420.75
3408.21
3397.13
3387.48
3379.24
3372.38
3366.9
3362.78
3360.01
3358.62
3358.62
3359.96
3362.69
3366.83
3372.38
3379.36
3387.8
3397.73
3409.17
3422.15
3436.72
3452.89
3470.69
3490.12
3511.18
3533.84
3558.05
3583.73
3610.76
3638.97
3668.19
3698.42
3735.22
3767.88
3800.34
3832.53
3864.09
3894.64
3923.72
3950.94
3975.87
3998.14
4017.39
4033.34
4045.71
4054.27
4058.87
4059.27
4056.22
4049.23
4038.22
4023.32
4004.73
3982.74
3957.72
3930.1
3900.32
3868.84
3836.12
3802.63
3768.8
3735.01
3701.4
3667.76
3635.62
3604.91
3575.71
3548.07
3522.08
3497.78
3475.22
3454.42
3435.39
3418.12
3402.62
3388.86
3376.83
3366.5
3357.84
3350.82
3345.39
3341.52
3339.17
3338.36
3339.08
3341.31
3345.01
3350.24
3357.01
3365.33
3375.26
3386.82
3400.06
3415.03
3431.75
3450.26
3470.56
3492.65
3516.47
3541.99
3569.09
3597.63
3627.52
3658.45
3689.3
3721.27
3753.86
3786.65
3819.12
3850.93
3881.8
3911.23
3938.76
3776.55
3744.29
3710.87
3676.6
3641.87
3607.02
3572.49
3538.68
3506.02
3475.51
3445.76
3417.01
3389.74
3364.15
3340.38
3318.47
3298.44
3280.27
3263.93
3249.38
3236.57
3225.43
3215.91
3207.96
3201.51
3196.53
3192.96
3190.79
3190.03
3190.85
3193.04
3196.61
3201.6
3208.02
3215.93
3225.37
3236.37
3249
3263.32
3279.38
3297.23
3316.91
3338.45
3361.86
3387.13
3414.2
3442.97
3473.14
3502.75
3535.16
3568.91
3603.45
3638.43
3673.42
3708.01
3741.8
3774.34
3805.21
3833.99
3860.3
3883.76
3904.07
3920.93
3934.11
3943.41
3948.71
3949.86
3946.92
3939.91
3928.86
3913.95
3895.4
3873.5
3848.54
3820.92
3791.03
3759.31
3726.19
3692.12
3657.52
3622.81
3588.37
3554.56
3521.98
3490.25
3459.87
3431.02
3403.84
3378.43
3354.87
3333.19
3313.42
3295.58
3279.66
3265.63
3253.48
3243.15
3234.59
3227.73
3222.52
3218.87
3216.71
3216.02
3216.73
3218.79
3222.2
3226.95
3233.04
3240.51
3249.36
3259.63
3271.36
3284.57
3299.3
3315.57
3333.4
3352.79
3373.74
3396.22
3420.22
3445.67
3472.52
3500.67
3530.01
3560.42
3591.7
3623.65
3656.05
3688.62
3721.07
3753.05
3784.2
3814.12
3842.41
3868.64
3892.42
3913.33
3931.02
3945.16
3955.46
3961.73
3963.78
3961.57
3955.15
3944.52
3929.86
3911.37
3889.35
3864.14
3836.11
3805.72
3773.42
3739.7
3705.04
3669.96
3634.91
3600.34
3566.65
3534.19
3503.24
3474.03
3446.71
3421.41
3398.16
3376.98
3357.83
3340.67
3325.41
3311.97
3300.26
3290.16
3281.6
3274.47
3268.69
3264.18
3260.88
3258.72
3257.7
3257.77
3258.9
3261.1
3264.37
3268.74
3274.23
3280.87
3288.74
3297.89
3308.39
3320.32
3333.77
3348.8
3365.48
3383.88
3404.04
3425.98
3449.7
3475.15
3502.28
3530.97
3561.07
3592.4
3624.76
3657.75
3691.09
3724.43
3757.36
3789.45
3820.26
3849.33
3876.2
3900.44
3921.64
3939.42
3953.48
3963.55
3969.46
3971.06
3968.38
3961.52
3950.56
3935.73
3917.32
3895.67
3871.17
3844.23
3815.3
3784.81
3753.21
3720.93
3688.36
3655.87
3623.79
3592.43
3562.01
3532.75
3504.81
3478.3
3453.3
3429.87
3408.03
3387.78
3369.12
3352.03
3336.49
3322.46
3309.93
3298.85
3289.21
3280.97
3274.12
3268.64
3264.51
3261.74
3260.36
3260.35
3261.7
3264.43
3268.56
3274.11
3281.09
3289.52
3299.44
3310.88
3323.86
3338.42
3354.58
3372.37
3391.8
3412.87
3435.53
3459.74
3485.43
3512.46
3540.69
3569.92
3600.1
3637.07
3669.69
3702.18
3734.41
3766.03
3796.62
3825.76
3853.03
3878.02
3900.35
3919.65
3935.64
3948.05
3956.64
3961.25
3961.68
3958.61
3951.6
3940.57
3925.63
3906.99
3884.94
3859.87
3832.19
3802.34
3770.8
3738.03
3704.49
3670.62
3636.78
3603.14
3569.47
3537.31
3506.59
3477.38
3449.74
3423.74
3399.45
3376.89
3356.09
3337.06
3319.79
3304.3
3290.55
3278.52
3268.2
3259.55
3252.52
3247.1
3243.23
3240.9
3240.08
3240.81
3243.03
3246.74
3251.96
3258.72
3267.04
3276.96
3288.51
3301.74
3316.7
3333.42
3351.92
3372.22
3394.31
3418.13
3443.66
3470.76
3499.32
3529.22
3560.16
3591.05
3623.05
3655.67
3688.5
3721.01
3752.87
3783.78
3813.26
3840.84
3678.64
3646.31
3612.81
3578.47
3543.68
3508.76
3474.18
3440.32
3407.62
3377.13
3347.36
3318.59
3291.3
3265.71
3241.94
3220.03
3200.01
3181.86
3165.53
3150.99
3138.19
3127.07
3117.56
3109.61
3103.18
3098.2
3094.64
3092.48
3091.7
3092.53
3094.72
3098.29
3103.28
3109.69
3117.59
3127.01
3138
3150.62
3164.94
3180.98
3198.82
3218.49
3240.02
3263.43
3288.7
3315.77
3344.56
3374.78
3404.33
3436.8
3470.6
3505.19
3540.22
3575.27
3609.93
3643.79
3676.41
3707.35
3736.21
3762.58
3786.11
3806.48
3823.39
3836.6
3845.93
3851.25
3852.41
3849.45
3842.42
3831.34
3816.38
3797.78
3775.81
3750.78
3723.08
3693.11
3661.31
3628.12
3593.98
3559.32
3524.55
3490.06
3456.19
3423.62
3391.86
3361.45
3332.59
3305.4
3279.99
3256.42
3234.75
3214.99
3197.15
3181.24
3167.22
3155.08
3144.76
3136.21
3129.37
3124.17
3120.53
3118.38
3117.7
3118.42
3120.48
3123.89
3128.63
3134.72
3142.18
3151.03
3161.29
3173.01
3186.21
3200.94
3217.2
3235.03
3254.41
3275.36
3297.84
3321.84
3347.3
3374.15
3402.31
3431.67
3462.1
3493.41
3525.39
3557.83
3590.45
3622.95
3654.99
3686.2
3716.2
3744.56
3770.87
3794.72
3815.7
3833.45
3847.64
3857.99
3864.28
3866.35
3864.13
3857.69
3847.03
3832.32
3813.78
3791.69
3766.4
3738.29
3707.82
3675.43
3641.62
3606.89
3571.73
3536.62
3502
3468.26
3435.76
3404.79
3375.56
3348.24
3322.94
3299.69
3278.52
3259.39
3242.25
3227.01
3213.59
3201.89
3191.82
3183.27
3176.15
3170.38
3165.89
3162.59
3160.45
3159.42
3159.5
3160.63
3162.83
3166.1
3170.46
3175.94
3182.58
3190.43
3199.57
3210.05
3221.97
3235.4
3250.42
3267.09
3285.48
3305.63
3327.56
3351.27
3376.73
3403.87
3432.57
3462.7
3494.06
3526.45
3559.49
3592.89
3626.29
3659.29
3691.46
3722.35
3751.5
3778.45
3802.77
3824.04
3841.88
3855.99
3866.09
3872.02
3873.64
3870.94
3864.05
3853.04
3838.16
3819.68
3797.96
3773.38
3746.36
3717.35
3686.79
3655.12
3622.77
3590.14
3557.61
3525.49
3494.09
3463.65
3434.38
3406.42
3379.91
3354.91
3331.48
3309.64
3289.4
3270.75
3253.67
3238.13
3224.11
3211.59
3200.52
3190.88
3182.65
3175.8
3170.32
3166.2
3163.43
3162.05
3162.03
3163.38
3166.11
3170.23
3175.78
3182.75
3191.18
3201.09
3212.52
3225.49
3240.04
3256.2
3273.99
3293.41
3314.47
3337.14
3361.36
3387.06
3414.11
3442.36
3471.58
3501.72
3538.9
3571.48
3604
3636.29
3667.97
3698.64
3727.85
3755.2
3780.26
3802.66
3822.03
3838.08
3850.53
3859.17
3863.8
3864.25
3861.17
3854.14
3843.06
3828.08
3809.38
3787.25
3762.1
3734.34
3704.41
3672.79
3639.94
3606.34
3572.4
3538.51
3504.81
3471.12
3438.94
3408.2
3378.97
3351.33
3325.33
3301.03
3278.48
3257.68
3238.65
3221.4
3205.9
3192.16
3180.15
3169.83
3161.18
3154.17
3148.75
3144.89
3142.56
3141.75
3142.47
3144.69
3148.4
3153.62
3160.37
3168.68
3178.59
3190.13
3203.36
3218.31
3235.02
3253.51
3273.8
3295.88
3319.71
3345.24
3372.36
3400.93
3430.85
3461.81
3492.75
3524.78
3557.45
3590.33
3622.9
3654.81
3685.79
3715.33
3742.97
3580.77
3548.35
3514.76
3480.33
3445.46
3410.47
3375.81
3341.88
3309.14
3278.69
3248.89
3220.09
3192.78
3167.18
3143.41
3121.52
3101.51
3083.36
3067.05
3052.53
3039.75
3028.63
3019.14
3011.21
3004.79
2999.82
2996.27
2994.11
2993.33
2994.16
2996.35
2999.92
3004.89
3011.3
3019.18
3028.6
3039.57
3052.18
3066.47
3082.5
3100.33
3119.98
3141.5
3164.91
3190.18
3217.26
3246.08
3276.35
3305.84
3338.37
3372.23
3406.89
3441.99
3477.12
3511.85
3545.8
3578.52
3609.55
3638.5
3664.96
3688.57
3709.01
3725.99
3739.25
3748.62
3753.95
3755.12
3752.15
3745.08
3733.96
3718.95
3700.27
3678.22
3653.1
3625.3
3595.24
3563.34
3530.06
3495.83
3461.09
3426.25
3391.69
3357.77
3325.19
3293.38
3262.95
3234.07
3206.88
3181.46
3157.9
3136.23
3116.47
3098.64
3082.74
3068.74
3056.61
3046.3
3037.77
3030.94
3025.75
3022.13
3020
3019.33
3020.04
3022.11
3025.52
3030.26
3036.35
3043.8
3052.64
3062.89
3074.6
3087.8
3102.51
3118.77
3136.58
3155.97
3176.91
3199.39
3223.39
3248.86
3275.72
3303.89
3333.27
3363.73
3395.07
3427.1
3459.59
3492.26
3524.83
3556.94
3588.24
3618.32
3646.78
3673.18
3697.12
3718.19
3736.02
3750.27
3760.67
3767
3769.09
3766.86
3760.4
3749.7
3734.92
3716.31
3694.14
3668.75
3640.54
3609.96
3577.47
3543.56
3508.73
3473.48
3438.28
3403.59
3369.8
3337.25
3306.24
3277
3249.67
3224.37
3201.14
3179.98
3160.87
3143.75
3128.53
3115.13
3103.46
3093.41
3084.88
3077.78
3072.03
3067.55
3064.26
3062.12
3061.11
3061.19
3062.32
3064.51
3067.78
3072.14
3077.61
3084.23
3092.07
3101.19
3111.66
3123.56
3136.97
3151.97
3168.62
3186.99
3207.13
3229.06
3252.77
3278.23
3305.38
3334.1
3364.26
3395.65
3428.1
3461.2
3494.67
3528.15
3561.23
3593.5
3624.48
3653.73
3680.78
3705.2
3726.56
3744.48
3758.65
3768.8
3774.75
3776.38
3773.66
3766.73
3755.67
3740.72
3722.16
3700.35
3675.67
3648.55
3619.45
3588.79
3557.03
3524.6
3491.91
3459.3
3427.14
3395.7
3365.23
3335.93
3307.96
3281.44
3256.44
3233.01
3211.18
3190.95
3172.31
3155.24
3139.71
3125.7
3113.19
3102.13
3092.49
3084.27
3077.42
3071.95
3067.83
3065.06
3063.68
3063.66
3065
3067.73
3071.85
3077.39
3084.36
3092.78
3102.68
3114.1
3127.06
3141.61
3157.75
3175.53
3194.95
3216.01
3238.67
3262.9
3288.62
3315.69
3343.96
3373.2
3403.27
3440.71
3473.24
3505.8
3538.17
3569.92
3600.68
3629.99
3657.42
3682.58
3705.07
3724.52
3740.65
3753.17
3761.85
3766.52
3766.98
3763.9
3756.84
3745.71
3730.67
3711.88
3689.67
3664.41
3636.55
3606.52
3574.8
3541.86
3508.17
3474.16
3440.21
3406.43
3372.7
3340.49
3309.73
3280.49
3252.84
3226.83
3202.54
3179.98
3159.19
3140.17
3122.92
3107.44
3093.71
3081.7
3071.39
3062.76
3055.75
3050.34
3046.49
3044.17
3043.36
3044.08
3046.3
3050
3055.21
3061.96
3070.26
3080.16
3091.69
3104.9
3119.83
3136.53
3155.01
3175.3
3197.38
3221.22
3246.75
3273.88
3302.47
3332.41
3363.39
3394.41
3426.47
3459.2
3492.14
3524.79
3556.77
3587.83
3617.45
3645.17
3482.95
3450.42
3416.72
3382.19
3347.22
3312.14
3277.39
3243.38
3210.58
3180.19
3150.34
3121.51
3094.18
3068.57
3044.8
3022.91
3002.92
2984.79
2968.5
2954
2941.23
2930.14
2920.66
2912.75
2906.34
2901.38
2897.84
2895.69
2894.9
2895.73
2897.93
2901.48
2906.45
2912.84
2920.72
2930.12
2941.08
2953.66
2967.94
2983.95
3001.76
3021.4
3042.91
3066.31
3091.58
3118.67
3147.51
3177.86
3207.26
3239.87
3273.81
3308.54
3343.72
3378.95
3413.78
3447.84
3480.66
3511.81
3540.87
3567.44
3591.14
3611.68
3628.72
3642.04
3651.46
3656.81
3657.99
3655.01
3647.91
3636.73
3621.65
3602.89
3580.73
3555.51
3527.6
3497.42
3465.4
3432.01
3397.68
3362.84
3327.92
3293.28
3259.27
3226.7
3194.83
3164.37
3135.47
3108.27
3082.85
3059.28
3037.62
3017.87
3000.05
2984.16
2970.17
2958.06
2947.77
2939.26
2932.45
2927.28
2923.67
2921.56
2920.89
2921.62
2923.69
2927.1
2931.84
2937.92
2945.37
2954.19
2964.44
2976.13
2989.32
3004.02
3020.27
3038.08
3057.45
3078.39
3100.88
3124.88
3150.35
3177.22
3205.41
3234.82
3265.3
3296.68
3328.76
3361.31
3394.06
3426.7
3458.91
3490.3
3520.49
3549.06
3575.57
3599.62
3620.8
3638.72
3653.05
3663.51
3669.88
3671.99
3669.77
3663.26
3652.51
3637.67
3618.97
3596.69
3571.19
3542.86
3512.15
3479.53
3445.5
3410.55
3375.19
3339.9
3305.12
3271.26
3238.66
3207.61
3178.34
3151.01
3125.71
3102.49
3081.35
3062.26
3045.16
3029.98
3016.61
3004.96
2994.93
2986.43
2979.35
2973.62
2969.16
2965.89
2963.76
2962.76
2962.83
2963.97
2966.16
2969.42
2973.77
2979.23
2985.84
2993.66
3002.76
3013.21
3025.08
3038.47
3053.44
3070.08
3088.43
3108.56
3130.47
3154.18
3179.65
3206.81
3235.56
3265.75
3297.19
3329.7
3362.86
3396.42
3429.99
3463.18
3495.56
3526.66
3556.03
3583.21
3607.74
3629.2
3647.22
3661.47
3671.67
3677.65
3679.29
3676.56
3669.58
3658.45
3643.41
3624.76
3602.83
3578.04
3550.8
3521.58
3490.81
3458.95
3426.42
3393.64
3360.96
3328.74
3297.25
3266.74
3237.41
3209.43
3182.9
3157.89
3134.47
3112.65
3092.43
3073.8
3056.74
3041.22
3027.23
3014.72
3003.68
2994.05
2985.83
2978.99
2973.52
2969.4
2966.64
2965.25
2965.23
2966.57
2969.3
2973.42
2978.95
2985.91
2994.32
3004.21
3015.62
3028.57
3043.1
3059.24
3077
3096.41
3117.47
3140.14
3164.38
3190.11
3217.21
3245.51
3274.76
3304.77
3342.47
3374.95
3407.58
3440.03
3471.88
3502.75
3532.17
3559.72
3584.99
3607.58
3627.14
3643.35
3655.95
3664.69
3669.39
3669.87
3666.79
3659.7
3648.51
3633.39
3614.51
3592.18
3566.81
3538.82
3508.67
3476.83
3443.78
3409.98
3375.88
3341.85
3307.99
3274.21
3241.97
3211.19
3181.93
3154.27
3128.26
3103.96
3081.41
3060.63
3041.61
3024.37
3008.9
2995.18
2983.19
2972.89
2964.26
2957.27
2951.87
2948.02
2945.71
2944.91
2945.63
2947.85
2951.54
2956.75
2963.49
2971.77
2981.66
2993.17
3006.37
3021.29
3037.97
3056.44
3076.72
3098.8
3122.64
3148.18
3175.32
3203.94
3233.9
3264.91
3296.01
3328.12
3360.91
3393.94
3426.67
3458.74
3489.89
3519.6
3547.42
3385.18
3352.52
3318.69
3284.04
3248.95
3213.76
3178.92
3144.81
3111.94
3081.62
3051.72
3022.84
2995.48
2969.87
2946.11
2924.23
2904.25
2886.14
2869.87
2855.39
2842.65
2831.58
2822.12
2814.22
2807.83
2802.89
2799.36
2797.21
2796.42
2797.25
2799.45
2803
2807.96
2814.34
2822.19
2831.57
2842.51
2855.08
2869.34
2885.33
2903.11
2922.74
2944.23
2967.62
2992.89
3019.99
3048.87
3079.31
3108.59
3141.31
3175.34
3210.15
3245.43
3280.76
3315.72
3349.9
3382.85
3414.13
3443.32
3470.01
3493.83
3514.47
3531.6
3544.99
3554.46
3559.83
3561.03
3558.03
3550.88
3539.65
3524.48
3505.62
3483.35
3458
3429.95
3399.64
3367.49
3333.96
3299.51
3264.56
3229.54
3194.81
3160.71
3128.14
3096.2
3065.71
3036.79
3009.57
2984.15
2960.58
2938.92
2919.18
2901.38
2885.5
2871.53
2859.43
2849.17
2840.68
2833.89
2828.74
2825.16
2823.06
2822.41
2823.14
2825.22
2828.63
2833.37
2839.44
2846.87
2855.69
2865.92
2877.6
2890.77
2905.46
2921.7
2939.5
2958.87
2979.8
3002.29
3026.29
3051.77
3078.66
3106.87
3136.3
3166.82
3198.25
3230.39
3263
3295.83
3328.57
3360.88
3392.39
3422.7
3451.4
3478.05
3502.23
3523.52
3541.56
3555.98
3566.51
3572.92
3575.06
3572.83
3566.3
3555.49
3540.56
3521.76
3499.36
3473.72
3445.25
3414.39
3381.62
3347.44
3312.36
3276.87
3241.46
3206.58
3172.64
3139.98
3108.89
3079.6
3052.25
3026.95
3003.74
2982.63
2963.57
2946.5
2931.35
2918.01
2906.4
2896.4
2887.93
2880.88
2875.17
2870.72
2867.47
2865.35
2864.36
2864.44
2865.57
2867.76
2871.02
2875.36
2880.8
2887.4
2895.2
2904.27
2914.69
2926.54
2939.9
2954.85
2971.46
2989.8
3009.9
3031.81
3055.52
3080.99
3108.16
3136.94
3167.17
3198.66
3231.25
3264.49
3298.14
3331.82
3365.14
3397.64
3428.89
3458.4
3485.72
3510.38
3531.98
3550.1
3564.44
3574.71
3580.72
3582.36
3579.62
3572.58
3561.38
3546.24
3527.47
3505.41
3480.48
3453.11
3423.75
3392.85
3360.86
3328.22
3295.34
3262.58
3230.28
3198.74
3168.18
3138.83
3110.82
3084.28
3059.28
3035.86
3014.04
2993.83
2975.22
2958.17
2942.68
2928.69
2916.2
2905.17
2895.55
2887.34
2880.51
2875.04
2870.93
2868.17
2866.78
2866.75
2868.09
2870.81
2874.92
2880.45
2887.4
2895.8
2905.68
2917.07
2930.01
2944.52
2960.65
2978.4
2997.81
3018.86
3041.53
3065.78
3091.53
3118.66
3147
3176.29
3206.25
3244.16
3276.63
3309.33
3341.89
3373.86
3404.84
3434.39
3462.07
3487.47
3510.2
3529.87
3546.19
3558.88
3567.69
3572.44
3572.93
3569.85
3562.71
3551.47
3536.25
3517.26
3494.8
3469.29
3441.15
3410.86
3378.88
3345.7
3311.78
3277.58
3243.46
3209.49
3175.66
3143.38
3112.57
3083.29
3055.62
3029.61
3005.31
2982.76
2961.98
2942.98
2925.75
2910.29
2896.58
2884.6
2874.32
2865.7
2858.72
2853.33
2849.5
2847.2
2846.4
2847.12
2849.34
2853.03
2858.22
2864.95
2873.22
2883.09
2894.59
2907.76
2922.67
2939.33
2957.79
2978.06
3000.14
3023.97
3049.53
3076.69
3105.33
3135.33
3166.38
3197.56
3229.72
3262.59
3295.71
3328.54
3360.72
3391.98
3421.8
3449.73
3287.46
3254.65
3220.67
3185.88
3150.66
3115.35
3080.39
3046.17
3013.2
2982.99
2953.03
2924.09
2896.7
2871.08
2847.32
2825.46
2805.5
2787.41
2771.17
2756.71
2743.99
2732.95
2723.52
2715.64
2709.26
2704.34
2700.82
2698.68
2697.9
2698.72
2700.91
2704.46
2709.4
2715.77
2723.61
2732.97
2743.89
2756.43
2770.66
2786.62
2804.39
2823.99
2845.47
2868.85
2894.12
2921.23
2950.14
2980.69
3009.84
3042.69
3076.81
3111.73
3147.11
3182.57
3217.66
3251.98
3285.08
3316.51
3345.84
3372.68
3396.63
3417.38
3434.62
3448.09
3457.61
3463.02
3464.23
3461.21
3454.01
3442.71
3427.45
3408.48
3386.07
3360.57
3332.37
3301.9
3269.6
3235.92
3201.33
3166.25
3131.12
3096.29
3062.08
3029.51
2997.49
2966.96
2938.02
2910.79
2885.36
2861.8
2840.14
2820.41
2802.62
2786.76
2772.81
2760.74
2750.49
2742.03
2735.27
2730.14
2726.58
2724.5
2723.87
2724.61
2726.7
2730.1
2734.84
2740.9
2748.33
2757.13
2767.34
2779.01
2792.17
2806.84
2823.06
2840.85
2860.21
2881.14
2903.63
2927.63
2953.12
2980.02
3008.26
3037.72
3068.28
3099.77
3131.97
3164.66
3197.59
3230.43
3262.86
3294.51
3324.96
3353.8
3380.6
3404.93
3426.37
3444.53
3459.06
3469.67
3476.14
3478.3
3476.07
3469.49
3458.61
3443.59
3424.67
3402.13
3376.34
3347.71
3316.68
3283.74
3249.39
3214.15
3178.51
3142.97
3107.98
3073.95
3041.22
3010.08
2980.75
2953.4
2928.1
2904.91
2883.82
2864.79
2847.76
2832.64
2819.34
2807.77
2797.81
2789.37
2782.34
2776.66
2772.24
2769
2766.9
2765.92
2766
2767.13
2769.32
2772.57
2776.9
2782.33
2788.91
2796.69
2805.73
2816.12
2827.94
2841.27
2856.19
2872.77
2891.08
2911.17
2933.06
2956.77
2982.25
3009.44
3038.24
3068.51
3100.06
3132.74
3166.08
3199.83
3233.64
3267.1
3299.76
3331.16
3360.84
3388.31
3413.14
3434.87
3453.13
3467.56
3477.9
3483.96
3485.61
3482.84
3475.75
3464.46
3449.2
3430.3
3408.09
3383
3355.47
3325.95
3294.9
3262.78
3230.01
3197.01
3164.16
3131.77
3100.16
3069.56
3040.17
3012.14
2985.59
2960.58
2937.17
2915.37
2895.17
2876.57
2859.54
2844.06
2830.1
2817.62
2806.6
2797
2788.8
2781.97
2776.51
2772.4
2769.64
2768.24
2768.21
2769.55
2772.27
2776.37
2781.89
2788.83
2797.22
2807.09
2818.46
2831.38
2845.88
2861.99
2879.73
2899.12
2920.17
2942.85
2967.11
2992.89
3020.05
3048.43
3077.76
3107.74
3145.75
3178.26
3211.06
3243.74
3275.84
3306.97
3336.67
3364.49
3390.05
3412.91
3432.72
3449.17
3461.95
3470.85
3475.65
3476.16
3473.08
3465.89
3454.57
3439.25
3420.12
3397.52
3371.85
3343.55
3313.09
3280.95
3247.62
3213.56
3179.24
3145.03
3110.93
3077.04
3044.72
3013.88
2984.58
2956.89
2930.87
2906.58
2884.03
2863.26
2844.27
2827.05
2811.61
2797.91
2785.95
2775.68
2767.08
2760.11
2754.74
2750.92
2748.62
2747.84
2748.55
2750.77
2754.45
2759.64
2766.35
2774.61
2784.46
2795.93
2809.09
2823.97
2840.62
2859.06
2879.32
2901.39
2925.23
2950.8
2977.98
3006.66
3036.69
3067.78
3099.06
3131.27
3164.24
3197.47
3230.42
3262.71
3294.09
3324.05
3352.1
3189.78
3156.8
3122.66
3087.71
3052.35
3016.9
2981.81
2947.46
2914.38
2884.32
2854.26
2825.26
2797.84
2772.21
2748.45
2726.6
2706.66
2688.6
2672.39
2657.96
2645.27
2634.25
2624.85
2616.99
2610.64
2605.73
2602.23
2600.1
2599.31
2600.14
2602.33
2605.86
2610.79
2617.14
2624.96
2634.3
2645.19
2657.71
2671.91
2687.85
2705.58
2725.16
2746.62
2769.99
2795.25
2822.38
2851.33
2882.01
2911
2944
2978.23
3013.25
3048.77
3084.36
3119.6
3154.08
3187.35
3218.95
3248.45
3275.44
3299.54
3320.43
3337.77
3351.34
3360.93
3366.37
3367.59
3364.55
3357.3
3345.92
3330.56
3311.45
3288.89
3263.23
3234.86
3204.21
3171.73
3137.89
3103.13
3067.92
3032.66
2997.72
2963.42
2930.78
2898.71
2868.13
2839.17
2811.92
2786.49
2762.93
2741.28
2721.56
2703.78
2687.94
2674.01
2661.96
2651.75
2643.31
2636.58
2631.48
2627.94
2625.89
2625.27
2626.03
2628.12
2631.53
2636.25
2642.31
2649.72
2658.51
2668.71
2680.36
2693.5
2708.15
2724.36
2742.14
2761.49
2782.41
2804.9
2828.91
2854.4
2881.32
2909.58
2939.08
2969.69
3001.23
3033.51
3066.29
3099.32
3132.29
3164.85
3196.65
3227.26
3256.27
3283.24
3307.74
3329.33
3347.63
3362.29
3372.99
3379.52
3381.71
3379.48
3372.85
3361.9
3346.77
3327.71
3305.02
3279.05
3250.23
3219.02
3185.89
3151.35
3115.93
3080.12
3044.44
3009.32
2975.18
2942.37
2911.18
2881.82
2854.45
2829.16
2805.98
2784.92
2765.92
2748.93
2733.86
2720.61
2709.07
2699.15
2690.75
2683.76
2678.11
2673.71
2670.49
2668.41
2667.43
2667.52
2668.65
2670.84
2674.08
2678.4
2683.81
2690.37
2698.12
2707.14
2717.49
2729.28
2742.57
2757.46
2774.01
2792.29
2812.36
2834.24
2857.93
2883.42
2910.63
2939.47
2969.79
3001.4
3034.19
3067.62
3101.5
3135.45
3169.06
3201.89
3233.48
3263.34
3291
3316
3337.9
3356.29
3370.84
3381.27
3387.37
3389.03
3386.24
3379.07
3367.68
3352.3
3333.24
3310.87
3285.61
3257.89
3228.2
3196.98
3164.69
3131.78
3098.66
3065.69
3033.21
3001.53
2970.87
2941.44
2913.38
2886.82
2861.81
2838.41
2816.62
2796.44
2777.86
2760.84
2745.38
2731.44
2718.98
2707.97
2698.39
2690.2
2683.38
2677.92
2673.81
2671.06
2669.66
2669.63
2670.96
2673.67
2677.77
2683.27
2690.2
2698.58
2708.43
2719.79
2732.69
2747.17
2763.26
2780.99
2800.37
2821.41
2844.09
2868.37
2894.17
2921.38
2949.81
2979.2
3009.21
3047.26
3079.84
3112.76
3145.58
3177.82
3209.12
3238.98
3266.98
3292.7
3315.73
3335.7
3352.28
3365.18
3374.17
3379.02
3379.56
3376.47
3369.24
3357.83
3342.38
3323.12
3300.35
3274.49
3246.01
3215.36
3183.04
3149.53
3115.33
3080.87
3046.55
3012.31
2978.36
2945.99
2915.11
2885.78
2858.09
2832.06
2807.76
2785.23
2764.46
2745.48
2728.28
2712.85
2699.17
2687.22
2676.97
2668.39
2661.44
2656.08
2652.27
2649.99
2649.21
2649.93
2652.14
2655.82
2660.99
2667.69
2675.93
2685.76
2697.21
2710.34
2725.2
2741.83
2760.25
2780.5
2802.57
2826.41
2851.99
2879.19
2907.91
2937.98
2969.12
3000.5
3032.78
3065.85
3099.21
3132.28
3164.71
3196.23
3226.33
3254.53
3092.15
3058.98
3024.66
2989.53
2954.01
2918.41
2883.17
2848.67
2815.44
2785.6
2755.42
2726.34
2698.89
2673.24
2649.49
2627.66
2607.75
2589.72
2573.53
2559.14
2546.48
2535.49
2526.12
2518.29
2511.96
2507.07
2503.58
2501.46
2500.68
2501.51
2503.69
2507.21
2512.13
2518.46
2526.26
2535.57
2546.43
2558.92
2573.09
2588.99
2606.7
2626.26
2647.69
2671.04
2696.31
2723.44
2752.44
2783.26
2812.08
2845.24
2879.59
2914.74
2950.39
2986.13
3021.54
3056.21
3089.66
3121.45
3151.13
3178.3
3202.57
3223.6
3241.07
3254.74
3264.4
3269.88
3271.12
3268.06
3260.75
3249.28
3233.8
3214.54
3191.82
3165.97
3137.41
3106.56
3073.89
3039.86
3004.93
2969.55
2934.15
2899.1
2864.73
2831.94
2799.84
2769.22
2740.23
2712.97
2687.53
2663.97
2642.33
2622.62
2604.86
2589.04
2575.13
2563.11
2552.93
2544.52
2537.82
2532.76
2529.25
2527.23
2526.63
2527.39
2529.49
2532.9
2537.62
2543.67
2551.06
2559.83
2570.02
2581.64
2594.76
2609.4
2625.59
2643.36
2662.7
2683.61
2706.09
2730.11
2755.61
2782.55
2810.84
2840.38
2871.04
2902.65
2935.01