/*--------------------------------*- C++ -*----------------------------------*\
| =========                 |                                                 |
| \\      /  F ield         | OpenFOAM: The Open Source CFD Toolbox           |
|  \\    /   O peration     | Version:  3.0.1                                 |
|   \\  /    A nd           | Web:      www.OpenFOAM.org                      |
|    \\/     M anipulation  |                                                 |
\*---------------------------------------------------------------------------*/
FoamFile
{
    version     2.0;
    format      ascii;
    class       volVectorField;
    location    "32.4";
    object      U;
}
// * * * * * * * * * * * * * * * * * * * * * * * * * * * * * * * * * * * * * //

dimensions      [0 1 -1 0 0 0 0];

internalField   nonuniform List<vector> 
21420
(
(0.166953 0.00175773 0)
(0.151359 0.00181163 0)
(0.132695 0.00187543 0)
(0.113628 0.00191473 0)
(0.0944333 0.00189412 0)
(0.0753303 0.00188775 0)
(0.0565108 0.00182998 0)
(0.0381329 0.0017877 0)
(0.0200704 0.00172877 0)
(0.00306871 0.00163262 0)
(-0.0126819 0.00155408 0)
(-0.0278166 0.00146684 0)
(-0.0420277 0.00136001 0)
(-0.0552574 0.00126515 0)
(-0.0674828 0.00115836 0)
(-0.0787017 0.00106265 0)
(-0.0889257 0.000967021 0)
(-0.0981747 0.000868209 0)
(-0.106478 0.00077776 0)
(-0.113868 0.00068975 0)
(-0.120379 0.00060272 0)
(-0.126047 0.00052149 0)
(-0.130906 0.000443074 0)
(-0.134988 0.000366913 0)
(-0.138325 0.000294145 0)
(-0.140945 0.000223248 0)
(-0.142879 0.000154355 0)
(-0.144111 8.92592e-05 0)
(-0.144708 2.53586e-05 0)
(-0.144652 -4.18802e-05 0)
(-0.143908 -0.000108178 0)
(-0.142504 -0.000174851 0)
(-0.140424 -0.000242111 0)
(-0.137657 -0.00031228 0)
(-0.134191 -0.00038305 0)
(-0.129985 -0.000456251 0)
(-0.125013 -0.000535567 0)
(-0.119256 -0.000613473 0)
(-0.112667 -0.00069457 0)
(-0.105203 -0.000786778 0)
(-0.0968198 -0.000873096 0)
(-0.0874857 -0.000976034 0)
(-0.0771165 -0.0010657 0)
(-0.0657429 -0.001161 0)
(-0.053386 -0.00127068 0)
(-0.0397765 -0.00136596 0)
(-0.0252708 -0.00145866 0)
(-0.0101627 -0.00156333 0)
(0.00571968 -0.00163701 0)
(0.0224129 -0.00170027 0)
(0.0399685 -0.00178564 0)
(0.0581881 -0.00182417 0)
(0.0768568 -0.00187266 0)
(0.0957923 -0.00187883 0)
(0.11473 -0.00185441 0)
(0.133402 -0.00182627 0)
(0.151557 -0.00176087 0)
(0.168909 -0.0016589 0)
(0.185181 -0.00154725 0)
(0.2001 -0.00139743 0)
(0.213399 -0.00123298 0)
(0.224887 -0.00104441 0)
(0.234321 -0.000832241 0)
(0.241569 -0.000607898 0)
(0.246479 -0.000374421 0)
(0.248938 -0.000125434 0)
(0.248991 0.000113019 0)
(0.246496 0.000368244 0)
(0.241461 0.000598352 0)
(0.234152 0.00082683 0)
(0.224596 0.00104902 0)
(0.212922 0.00124036 0)
(0.19934 0.00142201 0)
(0.184117 0.00157413 0)
(0.16751 0.0017 0)
(0.149725 0.00180141 0)
(0.131133 0.00186716 0)
(0.111919 0.00192033 0)
(0.0923824 0.00193373 0)
(0.0727731 0.00193187 0)
(0.0533352 0.00191284 0)
(0.0343103 0.00186607 0)
(0.0157617 0.0018063 0)
(-0.00210225 0.00173654 0)
(-0.0192028 0.001656 0)
(-0.0354577 0.00156783 0)
(-0.0508258 0.0014766 0)
(-0.0652365 0.00137672 0)
(-0.0786973 0.00128582 0)
(-0.0911383 0.00118657 0)
(-0.102599 0.00108847 0)
(-0.113137 0.000996673 0)
(-0.122681 0.00089419 0)
(-0.131195 0.000796826 0)
(-0.138715 0.000702381 0)
(-0.145302 0.000597564 0)
(-0.150896 0.000518078 0)
(-0.155605 0.000422522 0)
(-0.159488 0.000337068 0)
(-0.162508 0.000265759 0)
(-0.164733 0.000179351 0)
(-0.166192 0.000113537 0)
(-0.166962 4.30529e-05 0)
(-0.16702 -2.50785e-05 0)
(-0.166417 -9.20833e-05 0)
(-0.165159 -0.000156053 0)
(-0.163225 -0.000219368 0)
(-0.160671 -0.000290264 0)
(-0.157399 -0.000351576 0)
(-0.153461 -0.000424638 0)
(-0.14881 -0.000496851 0)
(-0.143423 -0.000572271 0)
(-0.137296 -0.000648959 0)
(-0.130362 -0.000726889 0)
(-0.122618 -0.000803488 0)
(-0.114086 -0.000884584 0)
(-0.104748 -0.000963059 0)
(-0.0946044 -0.00104671 0)
(-0.0836692 -0.00112191 0)
(-0.0719095 -0.00120709 0)
(-0.0593722 -0.001282 0)
(-0.0460888 -0.00135054 0)
(-0.0320609 -0.00142398 0)
(-0.0173724 -0.00149136 0)
(-0.0020553 -0.00154795 0)
(0.0138311 -0.00159293 0)
(0.030141 -0.00163454 0)
(0.0467971 -0.00167102 0)
(0.0636999 -0.00168144 0)
(0.080652 -0.00167742 0)
(0.0974814 -0.00166311 0)
(0.114056 -0.00162011 0)
(0.130114 -0.00155754 0)
(0.145405 -0.00147691 0)
(0.159748 -0.00135706 0)
(0.172802 -0.00122724 0)
(0.18434 -0.0010637 0)
(0.194142 -0.000876407 0)
(0.201953 -0.000669791 0)
(0.207577 -0.00044141 0)
(0.210847 -0.000207212 0)
(0.211685 4.06989e-05 0)
(0.210037 0.0002856 0)
(0.205755 0.000536516 0)
(0.199132 0.000780585 0)
(0.190169 0.000997757 0)
(0.179026 0.00120388 0)
(0.165937 0.00139124 0)
(0.151078 0.00155574 0)
(0.134736 0.001691 0)
(0.117136 0.00179541 0)
(0.0986063 0.00186791 0)
(0.0794834 0.00192529 0)
(0.0600104 0.00193575 0)
(0.0404746 0.00193404 0)
(0.0211541 0.0019016 0)
(0.00225537 0.00185118 0)
(-0.0160219 0.0017768 0)
(-0.0334787 0.00168958 0)
(-0.0500016 0.00159099 0)
(-0.0654876 0.00147935 0)
(-0.0798551 0.00136992 0)
(-0.0930736 0.00125513 0)
(-0.105119 0.00113755 0)
(-0.116028 0.00102703 0)
(-0.125816 0.000918998 0)
(-0.134555 0.000819729 0)
(-0.142312 0.000717674 0)
(-0.149074 0.000620125 0)
(-0.154886 0.00053703 0)
(-0.159896 0.000457708 0)
(-0.164171 0.000389376 0)
(-0.167733 0.000317562 0)
(-0.17059 0.000251832 0)
(-0.172772 0.000184765 0)
(-0.174342 0.000126809 0)
(-0.175348 7.54927e-05 0)
(-0.175867 2.80317e-05 0)
(-0.175868 -2.74499e-05 0)
(-0.175397 -7.05013e-05 0)
(-0.174447 -0.00011514 0)
(-0.172952 -0.000166805 0)
(-0.170996 -0.000215399 0)
(-0.168514 -0.000274163 0)
(-0.165459 -0.000327077 0)
(-0.161839 -0.000392729 0)
(-0.157557 -0.00045653 0)
(-0.152595 -0.000523076 0)
(-0.1469 -0.000601891 0)
(-0.140419 -0.000680847 0)
(-0.133122 -0.000765421 0)
(-0.124962 -0.000851857 0)
(-0.1159 -0.000942258 0)
(-0.105933 -0.0010323 0)
(-0.0950402 -0.00113229 0)
(-0.0831701 -0.00121903 0)
(-0.0703497 -0.00131671 0)
(-0.0565948 -0.00141317 0)
(-0.0419186 -0.00149993 0)
(-0.0263933 -0.00157663 0)
(-0.010106 -0.00164865 0)
(0.00685262 -0.00170998 0)
(0.0243129 -0.00174905 0)
(0.0421077 -0.00177755 0)
(0.0600449 -0.00177809 0)
(0.0779064 -0.00176132 0)
(0.0954818 -0.0017221 0)
(0.112508 -0.00165315 0)
(0.128713 -0.00155831 0)
(0.143805 -0.00143608 0)
(0.157542 -0.00128535 0)
(0.169623 -0.0011083 0)
(0.179821 -0.000905844 0)
(0.187886 -0.000689878 0)
(0.193683 -0.000459268 0)
(0.197067 -0.000214618 0)
(0.197992 2.71397e-05 0)
(0.196453 0.00027796 0)
(0.19233 0.000525087 0)
(0.18589 0.000754042 0)
(0.177182 0.000971447 0)
(0.166427 0.00115691 0)
(0.153864 0.00132255 0)
(0.139792 0.00146311 0)
(0.124489 0.00157622 0)
(0.108155 0.00166381 0)
(0.0910754 0.00172021 0)
(0.0735536 0.0017554 0)
(0.0558172 0.00176583 0)
(0.0380637 0.00175688 0)
(0.020487 0.00172776 0)
(0.00329938 0.00167931 0)
(-0.0133957 0.0016323 0)
(-0.0294937 0.00156335 0)
(-0.0448835 0.00149334 0)
(-0.059532 0.00141435 0)
(-0.0733703 0.00133367 0)
(-0.08638 0.00124831 0)
(-0.0985101 0.00116069 0)
(-0.10976 0.00107517 0)
(-0.120186 0.000992422 0)
(-0.129758 0.000908547 0)
(-0.138492 0.000825251 0)
(-0.146381 0.000736533 0)
(-0.153435 0.000664107 0)
(-0.159715 0.000583905 0)
(-0.165207 0.000509907 0)
(-0.169959 0.000432437 0)
(-0.173982 0.000368296 0)
(-0.177281 0.00029441 0)
(-0.179937 0.000229786 0)
(-0.181959 0.000163039 0)
(-0.183254 0.000104137 0)
(-0.183883 3.24264e-05 0)
(-0.183874 -3.22603e-05 0)
(-0.18321 -0.000100617 0)
(-0.181874 -0.000166551 0)
(-0.179868 -0.000223125 0)
(-0.1772 -0.000301953 0)
(-0.173861 -0.000363203 0)
(-0.169839 -0.000439648 0)
(-0.165064 -0.000506353 0)
(-0.159525 -0.000580167 0)
(-0.153232 -0.000661891 0)
(-0.146112 -0.000745576 0)
(-0.138125 -0.00082602 0)
(-0.129306 -0.000913948 0)
(-0.119583 -0.00100508 0)
(-0.108936 -0.00109 0)
(-0.0975598 -0.0011837 0)
(-0.0851424 -0.00126391 0)
(-0.0719551 -0.00135389 0)
(-0.0579124 -0.00143717 0)
(-0.0429949 -0.00152373 0)
(-0.0274504 -0.00159878 0)
(-0.0107096 -0.00165222 0)
(0.00746535 -0.00174865 0)
(0.0264124 -0.00179082 0)
(0.0452881 -0.00181514 0)
(0.0643055 -0.00182678 0)
(0.0832823 -0.00181682 0)
(0.101935 -0.00178383 0)
(0.120089 -0.00172148 0)
(0.1373 -0.0016251 0)
(0.153241 -0.00150399 0)
(0.167706 -0.00135135 0)
(0.180331 -0.00116259 0)
(0.190877 -0.000962493 0)
(0.199142 -0.000727425 0)
(0.20497 -0.000496663 0)
(0.208278 -0.00024352 0)
(0.209006 1.88906e-05 0)
(0.2073 0.000271261 0)
(0.20309 0.000532124 0)
(0.196489 0.000783892 0)
(0.187509 0.000998126 0)
(0.176389 0.00120545 0)
(0.163307 0.0013935 0)
(0.148577 0.00153064 0)
(0.132405 0.0016618 0)
(0.115198 0.00174211 0)
(0.097276 0.00180973 0)
(0.0787268 0.00185714 0)
(0.0600927 0.00185342 0)
(0.0414207 0.00184722 0)
(0.0229962 0.00183032 0)
(0.00439682 0.00176505 0)
(-0.0140125 0.00170948 0)
(-0.0311748 0.00162946 0)
(-0.0474455 0.00155567 0)
(-0.0628266 0.00147441 0)
(-0.0772845 0.00138018 0)
(-0.0908122 0.00129322 0)
(-0.103403 0.00120288 0)
(-0.115044 0.00110583 0)
(-0.125737 0.00101469 0)
(-0.135487 0.000919079 0)
(-0.144301 0.000828707 0)
(-0.152191 0.000738328 0)
(-0.159166 0.000647234 0)
(-0.165244 0.000559818 0)
(-0.170442 0.000473846 0)
(-0.17478 0.000389415 0)
(-0.178279 0.000307627 0)
(-0.180966 0.000227278 0)
(-0.182858 0.000148215 0)
(-0.183944 7.19299e-05 0)
(-0.184332 -1.6829e-06 0)
(-0.183959 -7.44457e-05 0)
(-0.182838 -0.000147034 0)
(-0.180986 -0.000220608 0)
(-0.178401 -0.000293471 0)
(-0.175063 -0.000367843 0)
(-0.170957 -0.000445777 0)
(-0.166064 -0.000524278 0)
(-0.160357 -0.000608463 0)
(-0.153806 -0.000692334 0)
(-0.14638 -0.000778965 0)
(-0.138043 -0.000874409 0)
(-0.128769 -0.00096597 0)
(-0.118533 -0.00105878 0)
(-0.107315 -0.00116346 0)
(-0.095105 -0.00125661 0)
(-0.0819093 -0.00136339 0)
(-0.0677433 -0.00145161 0)
(-0.0526512 -0.00153333 0)
(-0.0366521 -0.00163086 0)
(-0.0195151 -0.00169585 0)
(-0.00202573 -0.0017542 0)
(0.0157326 -0.00182333 0)
(0.0341988 -0.00184596 0)
(0.0529585 -0.00188482 0)
(0.071806 -0.00186968 0)
(0.0905082 -0.00183169 0)
(0.108851 -0.00180569 0)
(0.126586 -0.00172146 0)
(0.14542 -0.00161484 0)
(0.166988 0.00527421 0)
(0.151385 0.00543586 0)
(0.132711 0.00562726 0)
(0.113634 0.00574514 0)
(0.094431 0.00568319 0)
(0.07532 0.005664 0)
(0.056494 0.00549057 0)
(0.0381098 0.00536364 0)
(0.0200414 0.00518691 0)
(0.00303671 0.00489814 0)
(-0.0127165 0.00466243 0)
(-0.0278537 0.00440071 0)
(-0.0420655 0.00408016 0)
(-0.0552962 0.0037955 0)
(-0.0675212 0.00347507 0)
(-0.0787399 0.00318788 0)
(-0.0889632 0.00290095 0)
(-0.0982109 0.00260449 0)
(-0.106513 0.00233313 0)
(-0.113902 0.0020691 0)
(-0.120412 0.00180798 0)
(-0.126078 0.0015643 0)
(-0.130936 0.00132907 0)
(-0.135017 0.00110062 0)
(-0.138353 0.000882413 0)
(-0.140972 0.000669595 0)
(-0.142905 0.000462951 0)
(-0.144139 0.000267883 0)
(-0.144734 7.63722e-05 0)
(-0.144678 -0.000125652 0)
(-0.143935 -0.000324446 0)
(-0.142531 -0.000524478 0)
(-0.140452 -0.000726213 0)
(-0.137687 -0.000936744 0)
(-0.134222 -0.00114902 0)
(-0.130017 -0.00136855 0)
(-0.125047 -0.00160651 0)
(-0.119291 -0.00184024 0)
(-0.112704 -0.00208348 0)
(-0.105243 -0.00236014 0)
(-0.0968613 -0.00261905 0)
(-0.0875296 -0.002928 0)
(-0.0771623 -0.00319677 0)
(-0.0657896 -0.00348286 0)
(-0.0534342 -0.00381228 0)
(-0.0398271 -0.0040972 0)
(-0.0253191 -0.00437614 0)
(-0.0102075 -0.0046903 0)
(0.00567539 -0.00491108 0)
(0.0223708 -0.00510125 0)
(0.0399314 -0.00535745 0)
(0.058157 -0.00547342 0)
(0.0768337 -0.00561892 0)
(0.0957781 -0.00563765 0)
(0.114726 -0.00556456 0)
(0.13341 -0.00548029 0)
(0.151577 -0.00528402 0)
(0.168942 -0.00497954 0)
(0.185231 -0.00463845 0)
(0.20015 -0.00420311 0)
(0.213478 -0.00369252 0)
(0.224962 -0.00314459 0)
(0.234426 -0.00248952 0)
(0.241675 -0.00182446 0)
(0.246595 -0.00112061 0)
(0.249058 -0.000379348 0)
(0.249112 0.000335687 0)
(0.246608 0.00110303 0)
(0.241582 0.00179589 0)
(0.23427 0.00248144 0)
(0.224705 0.00314627 0)
(0.213026 0.00372313 0)
(0.199433 0.00426231 0)
(0.1842 0.00472791 0)
(0.167578 0.00510052 0)
(0.149781 0.00540783 0)
(0.131174 0.00560374 0)
(0.111945 0.00576275 0)
(0.0923947 0.00580382 0)
(0.0727748 0.00579354 0)
(0.0533237 0.00573875 0)
(0.0342913 0.00559774 0)
(0.0157364 0.00542831 0)
(-0.00214398 0.00521073 0)
(-0.0192481 0.00496713 0)
(-0.0355122 0.00470338 0)
(-0.0508853 0.00443028 0)
(-0.0653072 0.00412721 0)
(-0.0787719 0.00384727 0)
(-0.0912081 0.00356907 0)
(-0.102682 0.0032668 0)
(-0.11323 0.0029844 0)
(-0.122779 0.00267705 0)
(-0.131292 0.00238371 0)
(-0.138806 0.00210221 0)
(-0.14538 0.00180001 0)
(-0.150988 0.00155823 0)
(-0.155704 0.00125911 0)
(-0.159575 0.00100924 0)
(-0.162595 0.000803465 0)
(-0.164814 0.000543821 0)
(-0.166277 0.000332052 0)
(-0.167043 0.000130575 0)
(-0.167101 -8.52151e-05 0)
(-0.166485 -0.000273792 0)
(-0.165223 -0.000470485 0)
(-0.163299 -0.000672685 0)
(-0.160722 -0.000858346 0)
(-0.157476 -0.00107527 0)
(-0.153517 -0.00126918 0)
(-0.148877 -0.00149408 0)
(-0.143482 -0.00171195 0)
(-0.137351 -0.00194237 0)
(-0.130427 -0.00218712 0)
(-0.122668 -0.00240737 0)
(-0.114144 -0.00265711 0)
(-0.104812 -0.00289794 0)
(-0.0946665 -0.00314062 0)
(-0.0837295 -0.00337068 0)
(-0.0719598 -0.00361439 0)
(-0.0594137 -0.0038403 0)
(-0.0461389 -0.00406646 0)
(-0.0321087 -0.00427122 0)
(-0.0174111 -0.00446825 0)
(-0.00209395 -0.00463654 0)
(0.0137882 -0.00479557 0)
(0.0301111 -0.00491361 0)
(0.0467778 -0.00500664 0)
(0.0636822 -0.00503431 0)
(0.0806373 -0.00504209 0)
(0.0974822 -0.00498853 0)
(0.114062 -0.00485684 0)
(0.130121 -0.00468808 0)
(0.145434 -0.00442628 0)
(0.159772 -0.00408553 0)
(0.17286 -0.00367262 0)
(0.184402 -0.00319265 0)
(0.194213 -0.00262755 0)
(0.202021 -0.00201246 0)
(0.20765 -0.00133188 0)
(0.210926 -0.000619827 0)
(0.211763 0.000110676 0)
(0.210115 0.000865276 0)
(0.205833 0.00161363 0)
(0.199204 0.00233752 0)
(0.190227 0.00299594 0)
(0.179077 0.0036138 0)
(0.165969 0.00417663 0)
(0.151096 0.00465313 0)
(0.134738 0.00507165 0)
(0.117132 0.00538509 0)
(0.0985934 0.00561574 0)
(0.0794515 0.00577856 0)
(0.0599699 0.00581654 0)
(0.0404165 0.0058044 0)
(0.0210844 0.0057057 0)
(0.00216721 0.00554606 0)
(-0.0161187 0.00533193 0)
(-0.0335886 0.00506702 0)
(-0.0501064 0.00477059 0)
(-0.0655842 0.00445602 0)
(-0.0799567 0.00410014 0)
(-0.0931732 0.00376915 0)
(-0.105229 0.00340831 0)
(-0.116134 0.00308141 0)
(-0.125927 0.00275811 0)
(-0.134664 0.00244595 0)
(-0.142403 0.0021461 0)
(-0.149163 0.00187843 0)
(-0.154981 0.00160296 0)
(-0.159984 0.00137479 0)
(-0.164259 0.00117034 0)
(-0.167818 0.000948166 0)
(-0.170675 0.000753297 0)
(-0.172851 0.000550248 0)
(-0.174415 0.000388565 0)
(-0.175428 0.000221506 0)
(-0.175939 7.36542e-05 0)
(-0.175937 -7.98284e-05 0)
(-0.175465 -0.000218686 0)
(-0.174506 -0.000346262 0)
(-0.173014 -0.00050217 0)
(-0.171066 -0.000659496 0)
(-0.168566 -0.000819159 0)
(-0.165525 -0.000989685 0)
(-0.161893 -0.00116586 0)
(-0.157618 -0.00136623 0)
(-0.152659 -0.00158352 0)
(-0.146954 -0.00180515 0)
(-0.140479 -0.00204332 0)
(-0.133189 -0.00229616 0)
(-0.125026 -0.00255459 0)
(-0.11597 -0.00282737 0)
(-0.105999 -0.0030999 0)
(-0.0951007 -0.00338566 0)
(-0.0832415 -0.00367817 0)
(-0.070408 -0.00394614 0)
(-0.0566545 -0.00423208 0)
(-0.0419726 -0.00449801 0)
(-0.0264483 -0.00473761 0)
(-0.0101541 -0.00494814 0)
(0.00681335 -0.0051264 0)
(0.0242768 -0.00525364 0)
(0.0420744 -0.00533091 0)
(0.0600174 -0.00534715 0)
(0.0778969 -0.00528708 0)
(0.0954859 -0.00516472 0)
(0.112525 -0.00496072 0)
(0.128746 -0.00467279 0)
(0.143853 -0.00430068 0)
(0.157592 -0.0038561 0)
(0.169684 -0.00333159 0)
(0.179881 -0.0027283 0)
(0.187959 -0.00207413 0)
(0.193757 -0.00137473 0)
(0.197149 -0.000643307 0)
(0.198078 8.46898e-05 0)
(0.196527 0.000836968 0)
(0.192403 0.00156637 0)
(0.185958 0.00226985 0)
(0.177231 0.00290373 0)
(0.166477 0.00347882 0)
(0.153894 0.00398096 0)
(0.139808 0.0043837 0)
(0.124494 0.00473596 0)
(0.108138 0.00498291 0)
(0.0910556 0.00516619 0)
(0.0735145 0.00526688 0)
(0.0557679 0.00529311 0)
(0.0379987 0.0052699 0)
(0.0204181 0.00518192 0)
(0.00322595 0.00505385 0)
(-0.0134857 0.00489183 0)
(-0.0295794 0.00469425 0)
(-0.0449741 0.00447196 0)
(-0.0596215 0.00424559 0)
(-0.0734649 0.00399671 0)
(-0.0864745 0.00374311 0)
(-0.0986033 0.0034859 0)
(-0.10985 0.00322114 0)
(-0.120277 0.00297845 0)
(-0.12986 0.00271492 0)
(-0.138587 0.00247018 0)
(-0.146469 0.00221349 0)
(-0.153527 0.00199082 0)
(-0.159804 0.0017458 0)
(-0.165288 0.0015318 0)
(-0.17005 0.0013045 0)
(-0.174072 0.00108715 0)
(-0.177351 0.000889878 0)
(-0.180009 0.000694297 0)
(-0.182035 0.000493697 0)
(-0.183341 0.000299649 0)
(-0.183961 9.41321e-05 0)
(-0.18395 -0.000101362 0)
(-0.183276 -0.000297871 0)
(-0.181948 -0.00050351 0)
(-0.179946 -0.000678425 0)
(-0.177258 -0.000896641 0)
(-0.173926 -0.00108724 0)
(-0.169901 -0.00131901 0)
(-0.165133 -0.00152357 0)
(-0.159594 -0.00175181 0)
(-0.15329 -0.00197982 0)
(-0.146176 -0.0022305 0)
(-0.138194 -0.00248212 0)
(-0.129375 -0.00274864 0)
(-0.119647 -0.0030131 0)
(-0.109004 -0.00327692 0)
(-0.097623 -0.00354909 0)
(-0.0852063 -0.00379324 0)
(-0.0720189 -0.00406208 0)
(-0.0579754 -0.00431268 0)
(-0.0430523 -0.00456572 0)
(-0.0274999 -0.00479863 0)
(-0.0107623 -0.00495641 0)
(0.00741735 -0.00525021 0)
(0.0263823 -0.00536792 0)
(0.0452628 -0.00544264 0)
(0.0642892 -0.00548516 0)
(0.0832818 -0.00544905 0)
(0.101945 -0.00535696 0)
(0.120116 -0.00516614 0)
(0.137342 -0.00487764 0)
(0.153301 -0.00451474 0)
(0.167782 -0.00405519 0)
(0.180418 -0.00348552 0)
(0.190977 -0.00288298 0)
(0.199246 -0.00219591 0)
(0.205093 -0.00148685 0)
(0.208406 -0.000726602 0)
(0.209134 5.51402e-05 0)
(0.207414 0.000814038 0)
(0.203211 0.0015961 0)
(0.196607 0.00235163 0)
(0.187619 0.00299327 0)
(0.176489 0.00361742 0)
(0.163396 0.00417583 0)
(0.148654 0.0045922 0)
(0.13247 0.00498603 0)
(0.115249 0.00522785 0)
(0.0973149 0.00543052 0)
(0.0787537 0.00557257 0)
(0.060108 0.00556158 0)
(0.0414283 0.00554261 0)
(0.0229939 0.00549234 0)
(0.00438592 0.00529547 0)
(-0.0140282 0.00512867 0)
(-0.0311949 0.00488867 0)
(-0.0474694 0.00466726 0)
(-0.0628535 0.00442344 0)
(-0.0773133 0.00414077 0)
(-0.0908429 0.00387984 0)
(-0.103435 0.00360876 0)
(-0.115076 0.00331758 0)
(-0.12577 0.00304419 0)
(-0.13552 0.00275739 0)
(-0.144335 0.00248625 0)
(-0.152225 0.00221501 0)
(-0.1592 0.00194174 0)
(-0.165277 0.00167943 0)
(-0.170474 0.00142158 0)
(-0.174811 0.00116819 0)
(-0.17831 0.000922667 0)
(-0.180997 0.000682184 0)
(-0.18289 0.000443967 0)
(-0.183976 0.000216166 0)
(-0.184361 -4.48047e-06 0)
(-0.183988 -0.00022331 0)
(-0.182867 -0.000441101 0)
(-0.181015 -0.000661735 0)
(-0.178431 -0.00088038 0)
(-0.175093 -0.00110345 0)
(-0.170989 -0.00133723 0)
(-0.166097 -0.00157272 0)
(-0.160391 -0.00182528 0)
(-0.153842 -0.00207687 0)
(-0.146416 -0.00233676 0)
(-0.138081 -0.00262312 0)
(-0.128808 -0.00289781 0)
(-0.118573 -0.00317626 0)
(-0.107355 -0.00349033 0)
(-0.0951449 -0.00376987 0)
(-0.081949 -0.00409026 0)
(-0.0677812 -0.00435499 0)
(-0.0526865 -0.00460026 0)
(-0.0366849 -0.00489293 0)
(-0.0195449 -0.0050883 0)
(-0.00205047 -0.00526302 0)
(0.0157143 -0.00547049 0)
(0.0341872 -0.0055385 0)
(0.0529543 -0.00565524 0)
(0.0718103 -0.00560988 0)
(0.0905213 -0.00549596 0)
(0.108874 -0.00541803 0)
(0.126618 -0.00516533 0)
(0.145463 -0.00484548 0)
(0.167058 0.00879387 0)
(0.151434 0.00906311 0)
(0.132741 0.00938204 0)
(0.113645 0.00957836 0)
(0.0944241 0.00947472 0)
(0.075297 0.00944248 0)
(0.0564579 0.00915303 0)
(0.0380611 0.00894111 0)
(0.0199811 0.00864666 0)
(0.0029703 0.00816444 0)
(-0.0127883 0.0077714 0)
(-0.0279302 0.00733507 0)
(-0.0421436 0.00680057 0)
(-0.0553761 0.00632591 0)
(-0.0676001 0.00579167 0)
(-0.0788184 0.00531289 0)
(-0.0890404 0.00483453 0)
(-0.0982852 0.00434037 0)
(-0.106585 0.00388809 0)
(-0.113972 0.00344799 0)
(-0.120478 0.0030128 0)
(-0.126142 0.00260668 0)
(-0.130997 0.00221465 0)
(-0.135076 0.00183398 0)
(-0.138409 0.00147039 0)
(-0.141026 0.00111592 0)
(-0.142956 0.000772024 0)
(-0.144194 0.000445156 0)
(-0.144786 0.000127626 0)
(-0.144731 -0.000209461 0)
(-0.143988 -0.00054086 0)
(-0.142584 -0.00087404 0)
(-0.140506 -0.00121017 0)
(-0.137743 -0.00156106 0)
(-0.134279 -0.00191477 0)
(-0.130076 -0.00228051 0)
(-0.12511 -0.0026771 0)
(-0.119356 -0.00306667 0)
(-0.112772 -0.00347202 0)
(-0.105314 -0.00393318 0)
(-0.0969343 -0.00436462 0)
(-0.0876055 -0.00487991 0)
(-0.0772406 -0.00532729 0)
(-0.0658679 -0.00580447 0)
(-0.0535132 -0.00635492 0)
(-0.0399091 -0.00682727 0)
(-0.0253948 -0.00729424 0)
(-0.0102743 -0.00781905 0)
(0.00561239 -0.00818529 0)
(0.0223134 -0.00850374 0)
(0.0398856 -0.00893119 0)
(0.0581243 -0.00912501 0)
(0.0768172 -0.00936755 0)
(0.0957789 -0.00939942 0)
(0.114746 -0.00927747 0)
(0.133451 -0.00913749 0)
(0.151639 -0.00881155 0)
(0.169026 -0.00830178 0)
(0.185332 -0.00773853 0)
(0.200277 -0.00700047 0)
(0.213618 -0.00616346 0)
(0.225123 -0.00523819 0)
(0.234595 -0.00416128 0)
(0.241861 -0.00303523 0)
(0.24678 -0.00188028 0)
(0.249262 -0.000625565 0)
(0.249302 0.000557822 0)
(0.24678 0.00183586 0)
(0.241765 0.00299503 0)
(0.234447 0.00413853 0)
(0.224867 0.00524622 0)
(0.213176 0.00620631 0)
(0.199568 0.0071052 0)
(0.184311 0.00788765 0)
(0.167667 0.00850518 0)
(0.149846 0.00901632 0)
(0.13122 0.00934325 0)
(0.111964 0.0096086 0)
(0.0923954 0.00967499 0)
(0.0727617 0.00966064 0)
(0.0532896 0.00956671 0)
(0.034244 0.00933552 0)
(0.0156643 0.00904299 0)
(-0.0022213 0.00868606 0)
(-0.0193311 0.0082849 0)
(-0.0356054 0.00783826 0)
(-0.0509871 0.0073911 0)
(-0.0654117 0.00688052 0)
(-0.0788709 0.0064188 0)
(-0.0913186 0.00594543 0)
(-0.102801 0.00544614 0)
(-0.113359 0.00497064 0)
(-0.122908 0.00445946 0)
(-0.131414 0.00398513 0)
(-0.138937 0.00350619 0)
(-0.14551 0.00300391 0)
(-0.151122 0.00258723 0)
(-0.155838 0.00210389 0)
(-0.159703 0.00168215 0)
(-0.162735 0.00133216 0)
(-0.164947 0.000907118 0)
(-0.166414 0.000559474 0)
(-0.167178 0.000214112 0)
(-0.167228 -0.000145066 0)
(-0.166598 -0.00045059 0)
(-0.165341 -0.000790105 0)
(-0.16341 -0.00111383 0)
(-0.160845 -0.00144429 0)
(-0.157585 -0.00176876 0)
(-0.153647 -0.00212215 0)
(-0.149008 -0.00249069 0)
(-0.143611 -0.00285637 0)
(-0.137488 -0.00324402 0)
(-0.130555 -0.00363935 0)
(-0.122798 -0.00401084 0)
(-0.114276 -0.00442603 0)
(-0.104941 -0.00482231 0)
(-0.094799 -0.00523714 0)
(-0.083861 -0.00562183 0)
(-0.0720893 -0.00603139 0)
(-0.0595372 -0.00640091 0)
(-0.0462571 -0.00676702 0)
(-0.0322308 -0.00712779 0)
(-0.0175295 -0.00745228 0)
(-0.00219693 -0.00773517 0)
(0.0137072 -0.00797966 0)
(0.0300291 -0.00818403 0)
(0.0466949 -0.00835706 0)
(0.0636161 -0.00839987 0)
(0.0805868 -0.00839665 0)
(0.097447 -0.0083224 0)
(0.114051 -0.0081019 0)
(0.130132 -0.00780625 0)
(0.145458 -0.0073864 0)
(0.159816 -0.00680609 0)
(0.172914 -0.00613362 0)
(0.184489 -0.00532005 0)
(0.194314 -0.00439027 0)
(0.202144 -0.00334711 0)
(0.207775 -0.00222358 0)
(0.211069 -0.00103182 0)
(0.21191 0.000188793 0)
(0.210229 0.00143848 0)
(0.205969 0.00269498 0)
(0.199329 0.00389849 0)
(0.190333 0.00499144 0)
(0.179168 0.00602685 0)
(0.166051 0.00696815 0)
(0.151164 0.00776977 0)
(0.134779 0.00845414 0)
(0.117142 0.00898507 0)
(0.0985773 0.00936259 0)
(0.0794055 0.00962927 0)
(0.0599007 0.00969127 0)
(0.0403427 0.00967423 0)
(0.0209914 0.00952316 0)
(0.00205131 0.00924898 0)
(-0.016252 0.00889481 0)
(-0.0337325 0.0084459 0)
(-0.0502577 0.00795278 0)
(-0.0657369 0.00741254 0)
(-0.0800945 0.0068414 0)
(-0.0933152 0.00628241 0)
(-0.105374 0.00568309 0)
(-0.116286 0.00514015 0)
(-0.126074 0.00458793 0)
(-0.134795 0.00408139 0)
(-0.14254 0.00358737 0)
(-0.149304 0.00311484 0)
(-0.155109 0.00267863 0)
(-0.160106 0.0022906 0)
(-0.16438 0.00194218 0)
(-0.167935 0.00158215 0)
(-0.170797 0.00125575 0)
(-0.172973 0.000921303 0)
(-0.174535 0.000639802 0)
(-0.175543 0.000372708 0)
(-0.17605 0.000130115 0)
(-0.176048 -0.000136412 0)
(-0.175579 -0.000368796 0)
(-0.174617 -0.000574517 0)
(-0.173133 -0.00084038 0)
(-0.171173 -0.00109018 0)
(-0.168683 -0.00136406 0)
(-0.165648 -0.00165224 0)
(-0.16202 -0.00194834 0)
(-0.157748 -0.00228476 0)
(-0.152782 -0.0026295 0)
(-0.14708 -0.00300835 0)
(-0.140616 -0.00340592 0)
(-0.133333 -0.00383308 0)
(-0.125169 -0.00425131 0)
(-0.116113 -0.00471539 0)
(-0.106141 -0.0051657 0)
(-0.0952417 -0.00564772 0)
(-0.0833721 -0.0061183 0)
(-0.0705535 -0.00658494 0)
(-0.0567992 -0.00706589 0)
(-0.0420973 -0.00749319 0)
(-0.0265667 -0.00789264 0)
(-0.010271 -0.00825505 0)
(0.00671124 -0.00854894 0)
(0.0241913 -0.00875371 0)
(0.0420037 -0.00888953 0)
(0.0599673 -0.00890798 0)
(0.0778616 -0.0088137 0)
(0.0954663 -0.00861284 0)
(0.112531 -0.00827207 0)
(0.128774 -0.00779543 0)
(0.143905 -0.00717358 0)
(0.157664 -0.00643676 0)
(0.169792 -0.0055461 0)
(0.180001 -0.00454991 0)
(0.188088 -0.00345141 0)
(0.193885 -0.00229976 0)
(0.197286 -0.0010769 0)
(0.198219 0.000142348 0)
(0.196643 0.00139356 0)
(0.192535 0.00262502 0)
(0.18608 0.00377806 0)
(0.177341 0.00484995 0)
(0.166558 0.00579945 0)
(0.153948 0.00662822 0)
(0.139849 0.00731628 0)
(0.12451 0.00789928 0)
(0.108135 0.00831395 0)
(0.0910348 0.0086076 0)
(0.0734753 0.00878495 0)
(0.0557131 0.00883024 0)
(0.0379252 0.00878702 0)
(0.0203203 0.00864195 0)
(0.00311092 0.00841441 0)
(-0.013604 0.00815474 0)
(-0.0296973 0.00782084 0)
(-0.0450837 0.00745962 0)
(-0.0597329 0.00707657 0)
(-0.0735806 0.00666199 0)
(-0.0865999 0.0062403 0)
(-0.0987319 0.00580543 0)
(-0.109965 0.00537463 0)
(-0.120391 0.00496275 0)
(-0.129977 0.00452973 0)
(-0.138713 0.00411787 0)
(-0.146597 0.00369039 0)
(-0.153654 0.00331374 0)
(-0.159919 0.00290841 0)
(-0.165412 0.00256195 0)
(-0.170183 0.00216326 0)
(-0.174196 0.00181721 0)
(-0.177476 0.00148393 0)
(-0.180134 0.00115167 0)
(-0.18216 0.000822765 0)
(-0.183466 0.000500753 0)
(-0.184081 0.000158591 0)
(-0.184057 -0.000163217 0)
(-0.183396 -0.000499082 0)
(-0.182069 -0.000845588 0)
(-0.180072 -0.00112024 0)
(-0.177392 -0.00150372 0)
(-0.174059 -0.00181824 0)
(-0.170029 -0.00219002 0)
(-0.165259 -0.0025397 0)
(-0.15972 -0.00291553 0)
(-0.15342 -0.00330388 0)
(-0.146303 -0.00372241 0)
(-0.138319 -0.00413382 0)
(-0.129503 -0.00457743 0)
(-0.119771 -0.00502605 0)
(-0.10912 -0.00545775 0)
(-0.0977426 -0.00591643 0)
(-0.0853117 -0.00632191 0)
(-0.0721231 -0.00677039 0)
(-0.0580792 -0.00718599 0)
(-0.0431504 -0.00761918 0)
(-0.0275754 -0.0080013 0)
(-0.0108455 -0.00826107 0)
(0.00734167 -0.00875065 0)
(0.0263338 -0.00894867 0)
(0.0452224 -0.00907467 0)
(0.0642655 -0.00914359 0)
(0.0832744 -0.00908686 0)
(0.101964 -0.00893041 0)
(0.120155 -0.00861574 0)
(0.13741 -0.00813288 0)
(0.153394 -0.00752829 0)
(0.167899 -0.00676381 0)
(0.180556 -0.00581748 0)
(0.191134 -0.00481453 0)
(0.199426 -0.00365679 0)
(0.205283 -0.00248125 0)
(0.208607 -0.00121445 0)
(0.209334 9.41489e-05 0)
(0.207587 0.00136172 0)
(0.203403 0.00266103 0)
(0.19679 0.00392144 0)
(0.187788 0.00499377 0)
(0.176639 0.0060249 0)
(0.163525 0.00698572 0)
(0.148763 0.00766412 0)
(0.132557 0.008315 0)
(0.115311 0.00871706 0)
(0.0973547 0.00905524 0)
(0.0787726 0.00929006 0)
(0.0601068 0.00927317 0)
(0.0414145 0.00923999 0)
(0.0229628 0.00915731 0)
(0.00434029 0.00882665 0)
(-0.0140806 0.00854871 0)
(-0.0312538 0.0081485 0)
(-0.0475338 0.00777924 0)
(-0.0629219 0.00737271 0)
(-0.0773834 0.00690147 0)
(-0.090915 0.0064665 0)
(-0.103509 0.00601456 0)
(-0.11515 0.00552929 0)
(-0.125844 0.00507359 0)
(-0.135593 0.00459565 0)
(-0.144407 0.00414365 0)
(-0.152296 0.0036915 0)
(-0.15927 0.00323597 0)
(-0.165346 0.00279892 0)
(-0.170541 0.00236893 0)
(-0.174876 0.00194649 0)
(-0.178373 0.00153724 0)
(-0.181057 0.00113625 0)
(-0.18295 0.000741271 0)
(-0.184041 0.000360858 0)
(-0.184421 -7.65309e-06 0)
(-0.184046 -0.00037218 0)
(-0.182925 -0.000735205 0)
(-0.181073 -0.00110267 0)
(-0.178489 -0.00146719 0)
(-0.175153 -0.00183886 0)
(-0.171051 -0.00222838 0)
(-0.166161 -0.00262083 0)
(-0.160458 -0.0030417 0)
(-0.153911 -0.00346105 0)
(-0.146487 -0.00389421 0)
(-0.138156 -0.00437153 0)
(-0.128884 -0.0048294 0)
(-0.11865 -0.00529358 0)
(-0.107433 -0.00581717 0)
(-0.0952223 -0.00628328 0)
(-0.0820258 -0.00681754 0)
(-0.0678545 -0.00725888 0)
(-0.0527547 -0.00766803 0)
(-0.0367481 -0.00815606 0)
(-0.0196022 -0.00848254 0)
(-0.00209761 -0.00877336 0)
(0.0156801 -0.00911934 0)
(0.0341663 -0.00923303 0)
(0.0529482 -0.00942805 0)
(0.0718209 -0.00935266 0)
(0.0905494 -0.0091629 0)
(0.108922 -0.00903322 0)
(0.126685 -0.00861202 0)
(0.14555 -0.0080789 0)
(0.167162 0.0123188 0)
(0.151509 0.0126954 0)
(0.132786 0.0131418 0)
(0.113661 0.0134163 0)
(0.0944137 0.0132704 0)
(0.0752624 0.0132246 0)
(0.0564037 0.0128186 0)
(0.037988 0.0125212 0)
(0.0198904 0.012109 0)
(0.00287053 0.0114321 0)
(-0.0128961 0.0108815 0)
(-0.0280451 0.0102703 0)
(-0.0422608 0.00952145 0)
(-0.055496 0.00885644 0)
(-0.0677186 0.00810814 0)
(-0.0789362 0.00743754 0)
(-0.0891561 0.00676759 0)
(-0.0983966 0.00607562 0)
(-0.106693 0.00544238 0)
(-0.114076 0.00482615 0)
(-0.120578 0.00421692 0)
(-0.126238 0.00364837 0)
(-0.131089 0.00309961 0)
(-0.135164 0.00256682 0)
(-0.138494 0.0020581 0)
(-0.141107 0.00156253 0)
(-0.143032 0.0010822 0)
(-0.144272 0.000624092 0)
(-0.14487 0.000173503 0)
(-0.14481 -0.000293664 0)
(-0.144066 -0.000757643 0)
(-0.142664 -0.00122335 0)
(-0.140587 -0.00169381 0)
(-0.137827 -0.00218501 0)
(-0.134366 -0.00268005 0)
(-0.130166 -0.00319187 0)
(-0.125204 -0.003747 0)
(-0.119453 -0.00429239 0)
(-0.112873 -0.00485985 0)
(-0.10542 -0.00550553 0)
(-0.0970439 -0.0061095 0)
(-0.0877195 -0.0068316 0)
(-0.077358 -0.00745682 0)
(-0.0659857 -0.00812524 0)
(-0.0536318 -0.00889929 0)
(-0.0400323 -0.00955575 0)
(-0.025509 -0.0102133 0)
(-0.0103746 -0.0109507 0)
(0.00551737 -0.011461 0)
(0.022227 -0.0119084 0)
(0.0398166 -0.0125079 0)
(0.0580749 -0.0127803 0)
(0.0767926 -0.0131201 0)
(0.0957798 -0.0131664 0)
(0.114775 -0.0129953 0)
(0.133513 -0.0128004 0)
(0.151731 -0.0123474 0)
(0.169153 -0.01163 0)
(0.185487 -0.0108463 0)
(0.200464 -0.00980718 0)
(0.21383 -0.00863315 0)
(0.225358 -0.00734634 0)
(0.234855 -0.00582506 0)
(0.242135 -0.00426092 0)
(0.247063 -0.00263215 0)
(0.249557 -0.000885867 0)
(0.249574 0.000802213 0)
(0.247046 0.00256584 0)
(0.24204 0.00419632 0)
(0.23471 0.00579916 0)
(0.22511 0.00734885 0)
(0.213396 0.00869388 0)
(0.199764 0.00994901 0)