/*--------------------------------*- C++ -*----------------------------------*\
| =========                 |                                                 |
| \\      /  F ield         | OpenFOAM: The Open Source CFD Toolbox           |
|  \\    /   O peration     | Version:  3.0.1                                 |
|   \\  /    A nd           | Web:      www.OpenFOAM.org                      |
|    \\/     M anipulation  |                                                 |
\*---------------------------------------------------------------------------*/
FoamFile
{
    version     2.0;
    format      ascii;
    class       surfaceScalarField;
    location    "30.6";
    object      alphaPhi;
}
// * * * * * * * * * * * * * * * * * * * * * * * * * * * * * * * * * * * * * //

dimensions      [0 3 -1 0 0 0 0];

internalField   nonuniform List<scalar> 
42423
(
0.00022827
6.00831e-06
0.000220424
7.84591e-06
0.000210426
9.99783e-06
0.000198345
1.20814e-05
0.000184694
1.36502e-05
0.000169447
1.52474e-05
0.000153059
1.63884e-05
0.000135638
1.74206e-05
0.00011745
1.81878e-05
9.88184e-05
1.86319e-05
7.99518e-05
1.88666e-05
6.11184e-05
1.88334e-05
4.26044e-05
1.8514e-05
2.4421e-05
1.81834e-05
6.80615e-06
1.76148e-05
-9.96069e-06
1.67669e-05
-2.59723e-05
1.60116e-05
-4.10946e-05
1.51223e-05
-5.52831e-05
1.41885e-05
-6.8469e-05
1.31859e-05
-8.06449e-05
1.21759e-05
-9.1816e-05
1.11711e-05
-0.000101985
1.01688e-05
-0.000111187
9.20252e-06
-0.000119427
8.24007e-06
-0.000126751
7.32387e-06
-0.000133179
6.42766e-06
-0.000138771
5.59174e-06
-0.000143519
4.74828e-06
-0.000147475
3.95649e-06
-0.000150692
3.21703e-06
-0.000153149
2.45635e-06
-0.000154884
1.73541e-06
-0.00015596
1.07577e-06
-0.000156365
4.04965e-07
-0.000156027
-3.37608e-07
-0.000154963
-1.06391e-06
-0.000153248
-1.71545e-06
-0.000150837
-2.41102e-06
-0.000147635
-3.20156e-06
-0.000143728
-3.90693e-06
-0.000138999
-4.72908e-06
-0.000133555
-5.44408e-06
-0.000127267
-6.28846e-06
-0.0001201
-7.16642e-06
-0.000112032
-8.06869e-06
-0.000103131
-8.90062e-06
-9.33165e-05
-9.81469e-06
-8.24066e-05
-1.09099e-05
-7.08109e-05
-1.15957e-05
-5.80346e-05
-1.27763e-05
-4.451e-05
-1.35247e-05
-2.99159e-05
-1.45941e-05
-1.45284e-05
-1.53876e-05
1.62966e-06
-1.61581e-05
1.85027e-05
-1.68731e-05
3.59986e-05
-1.7496e-05
5.38135e-05
-1.78149e-05
7.19916e-05
-1.81782e-05
9.02366e-05
-1.82451e-05
0.000108474
-1.82372e-05
0.000126507
-1.80334e-05
0.000144028
-1.75209e-05
0.000160809
-1.67815e-05
0.00017682
-1.60106e-05
0.000191529
-1.47092e-05
0.000205009
-1.34796e-05
0.000216785
-1.17765e-05
0.000226986
-1.02014e-05
0.000235173
-8.18663e-06
0.000241296
-6.12362e-06
0.00024523
-3.93317e-06
0.000246887
-1.65703e-06
0.000246096
7.90933e-07
0.000243014
3.08146e-06
0.000237618
5.39607e-06
0.000229929
7.68941e-06
0.000220208
9.7209e-06
0.000208559
1.16487e-05
0.000195094
1.34652e-05
0.000180116
1.49784e-05
0.000163761
1.6355e-05
0.000146421
1.73396e-05
0.000128161
1.82603e-05
0.00010935
1.88112e-05
9.02474e-05
1.91024e-05
7.10068e-05
1.92407e-05
5.1918e-05
1.90889e-05
3.31049e-05
1.88131e-05
1.48005e-05
1.83044e-05
-2.9145e-06
1.7715e-05
-1.98289e-05
1.69143e-05
-3.58459e-05
1.6017e-05
-5.08028e-05
1.49569e-05
-6.47915e-05
1.39887e-05
-7.75927e-05
1.28011e-05
-8.9302e-05
1.17094e-05
-9.98488e-05
1.05467e-05
-0.000109308
9.45887e-06
-0.000117633
8.32507e-06
-0.000124868
7.23481e-06
-0.000131101
6.23331e-06
-0.000136356
5.25505e-06
-0.000140741
4.38526e-06
-0.000144305
3.56369e-06
-0.000147084
2.77937e-06
-0.000149139
2.05466e-06
-0.000150539
1.40026e-06
-0.000151297
7.5786e-07
-0.000151447
1.49891e-07
-0.000150949
-4.97574e-07
-0.000149929
-1.02e-06
-0.000148263
-1.66668e-06
-0.000146012
-2.25024e-06
-0.000143146
-2.86682e-06
-0.000139664
-3.48186e-06
-0.000135567
-4.09706e-06
-0.000130803
-4.76356e-06
-0.000125398
-5.40498e-06
-0.000119305
-6.09363e-06
-0.000112526
-6.7785e-06
-0.00010504
-7.4867e-06
-9.68353e-05
-8.20439e-06
-8.7884e-05
-8.95127e-06
-7.81662e-05
-9.71789e-06
-6.77274e-05
-1.04389e-05
-5.6479e-05
-1.12485e-05
-4.44285e-05
-1.20506e-05
-3.16172e-05
-1.28114e-05
-1.79636e-05
-1.36536e-05
-3.733e-06
-1.42307e-05
1.12648e-05
-1.49979e-05
2.68689e-05
-1.56042e-05
4.30111e-05
-1.61423e-05
5.9541e-05
-1.653e-05
7.63356e-05
-1.67948e-05
9.31827e-05
-1.68472e-05
0.000109912
-1.67292e-05
0.000126292
-1.63805e-05
0.00014206
-1.5768e-05
0.000156984
-1.49239e-05
0.000170807
-1.38237e-05
0.000183181
-1.23739e-05
0.00019398
-1.07985e-05
0.000202909
-8.92929e-06
0.000209746
-6.83753e-06
0.000214359
-4.61244e-06
0.000216499
-2.14032e-06
0.000216212
2.8717e-07
0.00021335
2.86182e-06
0.000207891
5.45866e-06
0.000200018
7.87274e-06
0.000189886
1.01322e-05
0.000177684
1.22022e-05
0.000163648
1.40358e-05
0.000148124
1.55237e-05
0.000131354
1.67698e-05
0.000113665
1.76894e-05
9.53422e-05
1.83225e-05
7.66346e-05
1.87076e-05
5.78524e-05
1.87821e-05
3.92595e-05
1.85929e-05
2.10395e-05
1.822e-05
3.41663e-06
1.76229e-05
-1.35624e-05
1.6979e-05
-2.96787e-05
1.61163e-05
-4.49004e-05
1.52217e-05
-5.9107e-05
1.42066e-05
-7.23035e-05
1.31965e-05
-8.4579e-05
1.22755e-05
-9.5775e-05
1.1196e-05
-0.000106051
1.02757e-05
-0.000115347
9.29662e-06
-0.000123616
8.26833e-06
-0.00013099
7.3742e-06
-0.000137474
6.48407e-06
-0.000143211
5.73664e-06
-0.000148243
5.03265e-06
-0.000152545
4.30158e-06
-0.000156262
3.71727e-06
-0.000159351
3.0889e-06
-0.000161862
2.51078e-06
-0.000163794
1.93214e-06
-0.000165178
1.3841e-06
-0.000166017
8.38942e-07
-0.000166344
3.27017e-07
-0.00016612
-2.23741e-07
-0.000165336
-7.84254e-07
-0.000163977
-1.35893e-06
-0.000162037
-1.94035e-06
-0.000159461
-2.57534e-06
-0.000156182
-3.27956e-06
-0.000152338
-3.84382e-06
-0.0001477
-4.63788e-06
-0.000142311
-5.38873e-06
-0.00013614
-6.17111e-06
-0.000129136
-7.00433e-06
-0.00012126
-7.87633e-06
-0.000112492
-8.76789e-06
-0.00010283
-9.66188e-06
-9.22108e-05
-1.06193e-05
-8.05905e-05
-1.16203e-05
-6.81899e-05
-1.24006e-05
-5.48071e-05
-1.33829e-05
-4.05778e-05
-1.42294e-05
-2.55703e-05
-1.50076e-05
-9.81233e-06
-1.5758e-05
6.46099e-06
-1.62734e-05
2.32429e-05
-1.67819e-05
4.03662e-05
-1.71235e-05
5.76822e-05
-1.73161e-05
7.49485e-05
-1.72664e-05
9.2003e-05
-1.70545e-05
0.000108576
-1.65734e-05
0.000124456
-1.58798e-05
0.000139421
-1.49648e-05
0.000153225
-1.38046e-05
0.000165629
-1.24041e-05
0.000176388
-1.0759e-05
0.000185314
-8.92541e-06
0.00019212
-6.80681e-06
0.000196755
-4.63424e-06
0.000199023
-2.26893e-06
0.00019902
3.35547e-09
0.000196612
2.40846e-06
0.000191864
4.74769e-06
0.000184889
6.97474e-06
0.000175821
9.06771e-06
0.000164813
1.10079e-05
0.000152078
1.27351e-05
0.000137837
1.42416e-05
0.000122375
1.54616e-05
0.000105931
1.64442e-05
8.87945e-05
1.71363e-05
7.1181e-05
1.76135e-05
5.33192e-05
1.78619e-05
3.54679e-05
1.78512e-05
1.78257e-05
1.76422e-05
5.10115e-07
1.73156e-05
-1.63025e-05
1.68127e-05
-3.24976e-05
1.6195e-05
-4.79823e-05
1.54847e-05
-6.26449e-05
1.46626e-05
-7.64255e-05
1.37805e-05
-8.92584e-05
1.28329e-05
-0.000101184
1.19254e-05
-0.000112131
1.09468e-05
-0.000122146
1.0015e-05
-0.000131186
9.04022e-06
-0.000139371
8.18488e-06
-0.000146807
7.43591e-06
-0.000153437
6.63018e-06
-0.000159257
5.82007e-06
-0.000164317
5.06e-06
-0.00016865
4.33348e-06
-0.000172201
3.55034e-06
-0.000175043
2.84258e-06
-0.000177134
2.09053e-06
-0.000178484
1.35079e-06
-0.000179146
6.61243e-07
-0.000179113
-3.29267e-08
-0.000178401
-7.12041e-07
-0.000177018
-1.38277e-06
-0.000174995
-2.0224e-06
-0.000172312
-2.68322e-06
-0.000168923
-3.38938e-06
-0.000165023
-3.89954e-06
-0.000160348
-4.67521e-06
-0.000155016
-5.33234e-06
-0.000149022
-5.99391e-06
-0.000142276
-6.7453e-06
-0.000134725
-7.55135e-06
-0.000126338
-8.38696e-06
-0.000117013
-9.32462e-06
-0.000106946
-1.0067e-05
-9.59158e-05
-1.10305e-05
-8.40338e-05
-1.18821e-05
-7.12584e-05
-1.27754e-05
-5.74554e-05
-1.3803e-05
-4.28676e-05
-1.45879e-05
-2.73436e-05
-1.55241e-05
-1.10809e-05
-1.62627e-05
5.95686e-06
-1.70378e-05
2.35167e-05
-1.75599e-05
4.14069e-05
-1.78903e-05
5.96807e-05
-1.82739e-05
7.77482e-05
-1.80676e-05
9.57038e-05
-1.79557e-05
0.000113119
-1.74148e-05
0.000129861
-1.67428e-05
0.000145722
-1.58603e-05
0.000160248
-1.45263e-05
0.000173283
-1.30356e-05
0.000184612
-1.13289e-05
0.000193927
-9.31521e-06
0.000201053
-7.12571e-06
0.000205948
-4.89483e-06
0.000208319
-2.3709e-06
0.000208207
1.11264e-07
0.000205595
2.61228e-06
0.000200577
5.018e-06
0.000193292
7.28507e-06
0.000183836
9.45567e-06
0.000172505
1.13312e-05
0.000159494
1.30113e-05
0.000145083
1.44107e-05
0.000129477
1.56056e-05
0.000113104
1.63734e-05
9.60564e-05
1.70475e-05
7.87587e-05
1.72977e-05
6.12713e-05
1.74874e-05
4.39478e-05
1.73236e-05
2.68515e-05
1.70962e-05
1.02042e-05
1.66473e-05
-5.91043e-06
1.61146e-05
-2.13984e-05
1.5488e-05
-3.61547e-05
1.47563e-05
-5.0159e-05
1.40043e-05
-6.33462e-05
1.31872e-05
-7.56942e-05
1.2348e-05
-8.72201e-05
1.15259e-05
-9.79116e-05
1.06914e-05
-0.000107765
9.85324e-06
-0.000116808
9.04356e-06
-0.000125058
8.24934e-06
-0.00013254
7.4818e-06
-0.00013926
6.72072e-06
-0.00014522
5.95988e-06
-0.00015045
5.22966e-06
-0.000154955
4.50488e-06
-0.000158734
3.77977e-06
-0.000161791
3.05683e-06
-0.000164116
2.32431e-06
-0.000165698
1.58199e-06
-0.000166579
8.81857e-07
-0.000166683
1.03408e-07
-0.000165949
-7.33596e-07
-0.000164419
-1.53048e-06
-0.000162053
-2.36551e-06
-0.000158884
-3.16915e-06
-0.000154913
-3.97084e-06
-0.000150063
-4.84993e-06
-0.000144475
-5.58859e-06
-0.000137958
-6.51715e-06
-0.000130646
-7.31137e-06
-0.000122583
-8.06276e-06
-0.000113544
-9.03954e-06
-0.000103692
-9.85194e-06
-9.30821e-05
-1.06099e-05
-8.14971e-05
-1.1585e-05
-6.91717e-05
-1.23255e-05
-5.59447e-05
-1.3227e-05
-4.19906e-05
-1.39541e-05
-2.74033e-05
-1.45872e-05
-1.20106e-05
-1.53928e-05
4.12927e-06
-1.61398e-05
-1.63478e-05
0.000228362
1.20175e-05
0.000220514
1.56938e-05
0.000210512
2.00001e-05
0.000198423
2.417e-05
0.000184765
2.73078e-05
0.000169509
3.05034e-05
0.000153109
3.27884e-05
0.000135676
3.48535e-05
0.000117484
3.63802e-05
9.88359e-05
3.72801e-05
7.99569e-05
3.77455e-05
6.11197e-05
3.76706e-05
4.25933e-05
3.70404e-05
2.44e-05
3.63767e-05
6.78261e-06
3.52322e-05
-9.98668e-06
3.35361e-05
-2.60046e-05
3.20295e-05
-4.1133e-05
3.02507e-05
-5.53269e-05
2.83824e-05
-6.85146e-05
2.63737e-05
-8.069e-05
2.43512e-05
-9.18622e-05
2.23433e-05
-0.000102032
2.03388e-05
-0.000111234
1.84045e-05
-0.000119475
1.64811e-05
-0.0001268
1.46489e-05
-0.00013323
1.28573e-05
-0.000138818
1.11797e-05
-0.000143568
9.49856e-06
-0.000147524
7.91268e-06
-0.000150742
6.43469e-06
-0.000153203
4.917e-06
-0.000154945
3.47761e-06
-0.000156015
2.14557e-06
-0.000156411
8.00916e-07
-0.000156077
-6.71076e-07
-0.000155016
-2.12544e-06
-0.0001533
-3.43098e-06
-0.000150887
-4.82383e-06
-0.000147688
-6.40095e-06
-0.000143784
-7.81079e-06
-0.000139057
-9.45653e-06
-0.000133616
-1.08851e-05
-0.000127325
-1.25794e-05
-0.000120161
-1.43306e-05
-0.000112089
-1.614e-05
-0.000103193
-1.77969e-05
-9.33706e-05
-1.96372e-05
-8.24663e-05
-2.18142e-05
-7.08636e-05
-2.31985e-05
-5.80925e-05
-2.55475e-05
-4.45591e-05
-2.70582e-05
-2.99678e-05
-2.91855e-05
-1.45604e-05
-3.0795e-05
1.58785e-06
-3.23064e-05
1.84622e-05
-3.37476e-05
3.59609e-05
-3.49948e-05
5.3795e-05
-3.56491e-05
7.19765e-05
-3.63599e-05
9.02252e-05
-3.64939e-05
0.000108477
-3.64892e-05
0.000126522
-3.60788e-05
0.000144056
-3.50547e-05
0.000160847
-3.35726e-05
0.000176876
-3.204e-05
0.000191595
-2.94282e-05
0.000205082
-2.69666e-05
0.00021687
-2.35647e-05
0.000227074
-2.0405e-05
0.000235269
-1.63817e-05
0.000241418
-1.22728e-05
0.00024535
-7.8653e-06
0.000247014
-3.32155e-06
0.000246218
1.58736e-06
0.000243134
6.16493e-06
0.000237745
1.07855e-05
0.000230046
1.53881e-05
0.000220313
1.94543e-05
0.000208661
2.33001e-05
0.000195181
2.6946e-05
0.000180195
2.99635e-05
0.000163817
3.27332e-05
0.000146469
3.46883e-05
0.000128182
3.65467e-05
0.000109384
3.76098e-05
9.02365e-05
3.82499e-05
7.09828e-05
3.84945e-05
5.18788e-05
3.8193e-05
3.30603e-05
3.76316e-05
1.47391e-05
3.66257e-05
-2.98982e-06
3.54439e-05
-1.98903e-05
3.38148e-05
-3.59328e-05
3.20596e-05
-5.09155e-05
2.99397e-05
-6.48837e-05
2.79569e-05
-7.76932e-05
2.56106e-05
-8.94034e-05
2.34195e-05
-9.99323e-05
2.10757e-05
-0.000109405
1.89312e-05
-0.000117729
1.66497e-05
-0.000124964
1.44695e-05
-0.000131188
1.24573e-05
-0.000136458
1.05247e-05
-0.000140813
8.74027e-06
-0.000144371
7.12247e-06
-0.000147154
5.56231e-06
-0.000149209
4.10928e-06
-0.000150612
2.80328e-06
-0.000151367
1.51336e-06
-0.000151513
2.95345e-07
-0.000151029
-9.81869e-07
-0.000149992
-2.05662e-06
-0.000148322
-3.33702e-06
-0.000146071
-4.50137e-06
-0.000143205
-5.73222e-06
-0.000139723
-6.96448e-06
-0.000135612
-8.2075e-06
-0.000130861
-9.5153e-06
-0.000125452
-1.08137e-05
-0.00011935
-1.21957e-05
-0.000112577
-1.35513e-05
-0.000105088
-1.49759e-05
-9.68974e-05
-1.6395e-05
-8.7946e-05
-1.79028e-05
-7.82253e-05
-1.94386e-05
-6.77771e-05
-2.08872e-05
-5.65307e-05
-2.2495e-05
-4.44779e-05
-2.41035e-05
-3.1666e-05
-2.56234e-05
-1.80084e-05
-2.73114e-05
-3.77608e-06
-2.84632e-05
1.12353e-05
-3.00095e-05
2.68434e-05
-3.12124e-05
4.29877e-05
-3.22867e-05
5.9525e-05
-3.30675e-05
7.63244e-05
-3.35944e-05
9.31796e-05
-3.37026e-05
0.000109924
-3.34736e-05
0.000126309
-3.27662e-05
0.000142091
-3.15498e-05
0.000157025
-2.98577e-05
0.000170858
-2.76569e-05
0.000183259
-2.47752e-05
0.000194053
-2.15929e-05
0.000202981
-1.7857e-05
0.000209819
-1.36764e-05
0.000214454
-9.24694e-06
0.000216604
-4.29081e-06
0.000216308
5.83497e-07
0.000213427
5.74223e-06
0.000207972
1.09132e-05
0.000200091
1.57538e-05
0.000189941
2.02827e-05
0.000177712
2.44312e-05
0.000163681
2.80663e-05
0.000148147
3.10573e-05
0.000131364
3.35527e-05
0.000113645
3.54093e-05
9.53018e-05
3.66653e-05
7.65968e-05
3.74126e-05
5.78057e-05
3.75732e-05
3.92026e-05
3.7196e-05
2.097e-05
3.64526e-05
3.32915e-06
3.52638e-05
-1.36448e-05
3.39529e-05
-2.97651e-05
3.22367e-05
-4.49861e-05
3.04427e-05
-5.92049e-05
2.84254e-05
-7.24154e-05
2.6407e-05
-8.46738e-05
2.45339e-05
-9.587e-05
2.23922e-05
-0.00010614
2.0546e-05
-0.000115436
1.85928e-05
-0.000123707
1.65387e-05
-0.000131083
1.47505e-05
-0.000137559
1.29605e-05
-0.000143289
1.14659e-05
-0.000148325
1.00691e-05
-0.00015262
8.59641e-06
-0.000156336
7.43348e-06
-0.000159414
6.16728e-06
-0.000161923
5.01962e-06
-0.000163856
3.86538e-06
-0.000165245
2.77269e-06
-0.000166089
1.68258e-06
-0.000166402
6.40466e-07
-0.000166171
-4.54636e-07
-0.0001654
-1.55507e-06
-0.000164039
-2.72e-06
-0.0001621
-3.87979e-06
-0.000159529
-5.14681e-06
-0.000156251
-6.55741e-06
-0.000152391
-7.704e-06
-0.000147762
-9.2662e-06
-0.000142372
-1.07792e-05
-0.000136197
-1.23457e-05
-0.000129198
-1.40039e-05
-0.000121324
-1.57502e-05
-0.000112562
-1.75294e-05
-0.000102899
-1.9325e-05
-9.22747e-05
-2.1244e-05
-8.06789e-05
-2.32161e-05
-6.82478e-05
-2.48318e-05
-5.48576e-05
-2.67732e-05
-4.06256e-05
-2.84615e-05
-2.56164e-05
-3.00169e-05
-9.86376e-06
-3.15107e-05
6.42697e-06
-3.25642e-05
2.32212e-05
-3.35763e-05
4.03512e-05
-3.42536e-05
5.76693e-05
-3.46342e-05
7.49455e-05
-3.45426e-05
9.20128e-05
-3.41219e-05
0.000108602
-3.31626e-05
0.000124487
-3.17648e-05
0.000139464
-2.99417e-05
0.000153278
-2.76195e-05
0.000165693
-2.48185e-05
0.000176462
-2.15285e-05
0.000185384
-1.78473e-05
0.0001922
-1.36229e-05
0.000196841
-9.27517e-06
0.000199116
-4.54459e-06
0.000199106
1.4112e-08
0.000196688
4.82602e-06
0.000191948
9.48739e-06
0.000184945
1.39783e-05
0.000175861
1.81513e-05
0.00016485
2.20186e-05
0.000152118
2.54676e-05
0.000137854
2.85053e-05
0.000122381
3.09345e-05
0.000105924
3.29017e-05
8.87757e-05
3.42845e-05
7.11483e-05
3.52408e-05
5.32756e-05
3.57346e-05
3.54101e-05
3.57168e-05
1.77596e-05
3.52927e-05
4.4196e-07
3.46333e-05
-1.63683e-05
3.3623e-05
-3.25779e-05
3.24046e-05
-4.80699e-05
3.09768e-05
-6.27345e-05
2.93272e-05
-7.65124e-05
2.75585e-05
-8.93445e-05
2.56651e-05
-0.000101258
2.38385e-05
-0.000112225
2.19137e-05
-0.000122241
2.00311e-05
-0.000131278
1.80772e-05
-0.00013947
1.6377e-05
-0.00014689
1.48561e-05
-0.000153524
1.32648e-05
-0.000159341
1.16371e-05
-0.000164381
1.00998e-05
-0.000168735
8.68706e-06
-0.000172293
7.10904e-06
-0.000175119
5.66786e-06
-0.000177214
4.18608e-06
-0.000178559
2.69555e-06
-0.00017922
1.32196e-06
-0.000179178
-7.47483e-08
-0.000178474
-1.41588e-06
-0.000177092
-2.76467e-06
-0.000175068
-4.04617e-06
-0.000172381
-5.37087e-06
-0.000168997
-6.77337e-06
-0.000165089
-7.80733e-06
-0.000160418
-9.34558e-06
-0.000155094
-1.06569e-05
-0.000149093
-1.19949e-05
-0.000142346
-1.34925e-05
-0.000134799
-1.50983e-05
-0.000126413
-1.67728e-05
-0.000117097
-1.86404e-05
-0.000107019
-2.01449e-05
-9.59825e-05
-2.2067e-05
-8.40972e-05
-2.37674e-05
-7.13145e-05
-2.55582e-05
-5.75182e-05
-2.75993e-05
-4.2922e-05
-2.91841e-05
-2.7389e-05
-3.10572e-05
-1.11241e-05
-3.25276e-05
5.92675e-06
-3.40888e-05
2.34956e-05
-3.51288e-05
4.13921e-05
-3.57869e-05
5.96761e-05
-3.65579e-05
7.77627e-05
-3.61543e-05
9.57358e-05
-3.59289e-05
0.00011316
-3.48392e-05
0.000129917
-3.35e-05
0.000145792
-3.17354e-05
0.000160324
-2.90577e-05
0.00017337
-2.60823e-05
0.000184719
-2.2678e-05
0.000194048
-1.86441e-05
0.000201173
-1.42509e-05
0.000206067
-9.78915e-06
0.000208448
-4.75185e-06
0.000208339
2.20667e-07
0.000205714
5.23677e-06
0.0002007
1.00322e-05
0.000193408
1.45766e-05
0.000183942
1.89223e-05
0.000172601
2.26713e-05
0.000159576
2.60368e-05
0.000145155
2.88317e-05
0.000129534
3.12265e-05
0.00011315
3.2757e-05
9.60881e-05
3.41096e-05
7.87811e-05
3.46046e-05
6.12807e-05
3.49878e-05
4.395e-05
3.46543e-05
2.68428e-05
3.42034e-05
1.01908e-05
3.32993e-05
-5.92869e-06
3.22341e-05
-2.14225e-05
3.09817e-05
-3.61847e-05
2.95185e-05
-5.01919e-05
2.80115e-05
-6.33809e-05
2.63762e-05
-7.57325e-05
2.46996e-05
-8.72621e-05
2.30555e-05
-9.79538e-05
2.13831e-05
-0.000107807
1.97064e-05
-0.000116854
1.80903e-05
-0.000125107
1.65024e-05
-0.000132588
1.49628e-05
-0.000139306
1.34393e-05
-0.000145271
1.19242e-05
-0.000150505
1.04643e-05
-0.000155008
9.00725e-06
-0.000158785
7.55699e-06
-0.000161844
6.11621e-06
-0.000164172
4.6518e-06
-0.00016576
3.1706e-06
-0.000166637
1.75865e-06
-0.000166736
2.02003e-07
-0.000166002
-1.46752e-06
-0.000164473
-3.05989e-06
-0.000162106
-4.7321e-06
-0.000158938
-6.33757e-06
-0.000154965
-7.94292e-06
-0.000150112
-9.70333e-06
-0.000144526
-1.11748e-05
-0.000138009
-1.30335e-05
-0.000130695
-1.46257e-05
-0.000122624
-1.61335e-05
-0.000113588
-1.8076e-05
-0.000103735
-1.97048e-05
-9.31223e-05
-2.12224e-05
-8.15336e-05
-2.31737e-05
-6.92054e-05
-2.46537e-05
-5.5976e-05
-2.64563e-05
-4.20172e-05
-2.7913e-05
-2.7427e-05
-2.91774e-05
-1.20277e-05
-3.07921e-05
4.11427e-06
-3.22818e-05
-3.27006e-05
0.000228538
1.80357e-05
0.000220679
2.3553e-05
0.000210663
3.00166e-05
0.000198557
3.62759e-05
0.000184882
4.09831e-05
0.000169608
4.57773e-05
0.000153184
4.92124e-05
0.000135728
5.23095e-05
0.000117523
5.45853e-05
9.88506e-05
5.59521e-05
7.99509e-05
5.66453e-05
6.11123e-05
5.65092e-05
4.25611e-05
5.55917e-05
2.43519e-05
5.4586e-05
6.73752e-06
5.28466e-05
-1.00497e-05
5.03233e-05
-2.60798e-05
4.80597e-05
-4.12155e-05
4.53864e-05
-5.54123e-05
4.25792e-05
-6.86055e-05
3.9567e-05
-8.07849e-05
3.65306e-05
-9.1957e-05
3.35155e-05
-0.000102128
3.05094e-05
-0.000111328
2.76046e-05
-0.000119567
2.472e-05
-0.000126891
2.19736e-05
-0.000133324
1.92896e-05
-0.000138906
1.67623e-05
-0.000143658
1.425e-05
-0.000147609
1.18644e-05
-0.000150831
9.65651e-06
-0.000153291
7.37691e-06
-0.000155027
5.21311e-06
-0.000156089
3.20791e-06
-0.000156471
1.18341e-06
-0.000156134
-1.00877e-06
-0.000155076
-3.18316e-06
-0.00015336
-5.14744e-06
-0.000150943
-7.24054e-06
-0.000147746
-9.59808e-06
-0.000143845
-1.17113e-05
-0.000139121
-1.41806e-05
-0.000133689
-1.63178e-05
-0.000127391
-1.88773e-05
-0.000120233
-2.14886e-05
-0.00011216
-2.42125e-05
-0.00010327
-2.66873e-05
-9.34401e-05
-2.9467e-05
-8.25423e-05
-3.27121e-05
-7.09335e-05
-3.48073e-05
-5.81661e-05
-3.8315e-05
-4.46251e-05
-4.05993e-05
-3.00335e-05
-4.37772e-05
-1.46076e-05
-4.6221e-05
1.52735e-06
-4.84415e-05
1.84046e-05
-5.0625e-05
3.59152e-05
-5.25054e-05
5.37476e-05
-5.34816e-05
7.19519e-05
-5.45643e-05
9.02108e-05
-5.47529e-05
0.000108478
-5.47565e-05
0.000126538
-5.41393e-05
0.000144092
-5.26088e-05
0.000160896
-5.0376e-05
0.000176948
-4.80925e-05
0.000191675
-4.41551e-05
0.000205178
-4.04697e-05
0.000216979
-3.53665e-05
0.000227198
-3.06238e-05
0.000235408
-2.45911e-05
0.00024157
-1.84352e-05
0.000245498
-1.17934e-05
0.000247177
-5.00026e-06
0.000246387
2.37686e-06
0.000243301
9.25051e-06
0.000237924
1.61627e-05
0.00023021
2.31025e-05
0.000220458
2.92059e-05
0.000208802
3.49564e-05
0.00019529
4.0458e-05
0.000180296
4.49577e-05
0.000163881
4.91481e-05
0.000146524
5.20454e-05
0.000128202
5.48689e-05
0.000109433
5.63792e-05
9.02153e-05
5.74674e-05
7.09447e-05
5.77652e-05
5.18224e-05
5.73153e-05
3.29876e-05
5.64664e-05
1.46346e-05
5.49788e-05
-3.09586e-06
5.31744e-05
-2.00084e-05
5.07274e-05
-3.60666e-05
4.81177e-05
-5.10701e-05
4.49432e-05
-6.50173e-05
4.19041e-05
-7.78332e-05
3.84265e-05
-8.95416e-05
3.51279e-05
-0.000100059
3.1593e-05
-0.000109555
2.84268e-05
-0.000117889
2.49837e-05
-0.00012512
2.17008e-05
-0.000131327
1.86648e-05
-0.000136614
1.58118e-05
-0.000140932
1.30574e-05
-0.000144461
1.06522e-05
-0.000147264
8.36536e-06
-0.000149322
6.16693e-06
-0.000150724
4.20508e-06
-0.000151468
2.25765e-06
-0.000151624
4.50885e-07
-0.000151163
-1.44258e-06
-0.000150098
-3.12197e-06
-0.000148423
-5.01198e-06
-0.000146175
-6.74898e-06
-0.000143309
-8.59857e-06
-0.000139831
-1.04424e-05
-0.000135717
-1.2322e-05
-0.000130971
-1.42612e-05
-0.000125553
-1.62318e-05
-0.000119462
-1.82866e-05
-0.000112692
-2.03208e-05
-0.00010518
-2.24878e-05
-9.70084e-05
-2.45671e-05
-8.80585e-05
-2.68528e-05
-7.83481e-05
-2.9149e-05
-6.78864e-05
-3.1349e-05
-5.66414e-05
-3.37401e-05
-4.45824e-05
-3.61625e-05
-3.17817e-05
-3.84242e-05
-1.81718e-05
-4.09214e-05
-3.87186e-06
-4.27632e-05
1.11407e-05
-4.50222e-05
2.67784e-05
-4.68502e-05
4.29225e-05
-4.8431e-05
5.9464e-05
-4.96091e-05
7.62832e-05
-5.04138e-05
9.31535e-05
-5.0573e-05
0.000109918
-5.02378e-05
0.000126326
-4.91744e-05
0.000142126
-4.73498e-05
0.000157082
-4.48146e-05
0.000170917
-4.14914e-05
0.000183357
-3.72161e-05
0.000194168
-3.24036e-05
0.00020311
-2.67994e-05
0.000209966
-2.05324e-05
0.000214587
-1.3868e-05
0.000216773
-6.47703e-06
0.000216472
8.84328e-07
0.000213561
8.65344e-06
0.000208113
1.63614e-05
0.000200218
2.3648e-05
0.000190055
3.04457e-05
0.000177794
3.6692e-05
0.000163746
4.21151e-05
0.000148193
4.66101e-05
0.00013141
5.03354e-05
0.000113645
5.31745e-05
9.527e-05
5.504e-05
7.65504e-05
5.61321e-05
5.77518e-05
5.63718e-05
3.91371e-05
5.58107e-05
2.08816e-05
5.47081e-05
3.21312e-06
5.29322e-05
-1.3757e-05
5.0923e-05
-2.98814e-05
4.83612e-05
-4.51079e-05
4.56692e-05
-5.93428e-05
4.26603e-05
-7.25589e-05
3.96231e-05
-8.48039e-05
3.67789e-05
-9.59936e-05
3.3582e-05
-0.000106266
3.08181e-05
-0.000115569
2.78964e-05
-0.000123839
2.48086e-05
-0.000131217
2.21278e-05
-0.000137689
1.94333e-05
-0.000143409
1.71853e-05
-0.000148443
1.51028e-05
-0.000152721
1.28752e-05
-0.000156442
1.11537e-05
-0.000159522
9.24806e-06
-0.000162036
7.53323e-06
-0.000163966
5.79498e-06
-0.000165359
4.16653e-06
-0.0001662
2.52335e-06
-0.000166511
9.51664e-07
-0.000166268
-6.97636e-07
-0.000165496
-2.32778e-06
-0.000164138
-4.07722e-06
-0.00016221
-5.80863e-06
-0.000159645
-7.71184e-06
-0.000156406
-9.7962e-06
-0.000152502
-1.1608e-05
-0.000147882
-1.38856e-05
-0.000142492
-1.61693e-05
-0.000136321
-1.85175e-05
-0.000129319
-2.1006e-05
-0.000121443
-2.36261e-05
-0.00011268
-2.62924e-05
-0.00010302
-2.89853e-05
-9.24e-05
-3.18635e-05
-8.08247e-05
-3.47914e-05
-6.83687e-05
-3.72879e-05
-5.49774e-05
-4.01646e-05
-4.07459e-05
-4.26931e-05
-2.57167e-05
-4.50461e-05
-9.98219e-06
-4.72453e-05
6.33816e-06
-4.88846e-05
2.31555e-05
-5.03937e-05
4.03003e-05
-5.13985e-05
5.76376e-05
-5.19716e-05
7.49355e-05
-5.18407e-05
9.20136e-05
-5.12001e-05
0.000108621
-4.97701e-05
0.000124525
-4.76688e-05
0.000139517
-4.49332e-05
0.00015335
-4.14532e-05
0.000165779
-3.72475e-05
0.000176572
-3.23219e-05
0.000185511
-2.67863e-05
0.000192342
-2.04541e-05
0.000196994
-1.39272e-05
0.00019927
-6.82003e-06
0.00019925
3.36939e-08
0.000196821
7.25509e-06
0.000192075
1.42336e-05
0.000185065
2.09875e-05
0.000175963
2.72534e-05
0.00016493
3.30521e-05
0.000152177
3.82207e-05
0.000137893
4.27885e-05
0.000122404
4.64237e-05
0.000105926
4.93801e-05
8.87665e-05
5.14438e-05
7.11264e-05
5.2881e-05
5.324e-05
5.3621e-05
3.53547e-05
5.36021e-05
1.76916e-05
5.29557e-05
3.61804e-07
5.19631e-05
-1.64611e-05
5.04459e-05
-3.2681e-05
4.86245e-05
-4.81811e-05
4.64769e-05
-6.28611e-05
4.40072e-05
-7.66411e-05
4.13385e-05
-8.94689e-05
3.84929e-05
-0.000101363
3.57324e-05
-0.000112363
3.29143e-05
-0.000122377
3.00445e-05
-0.000131409
2.71097e-05
-0.000139613
2.45811e-05
-0.000147018
2.22607e-05
-0.000153642
1.98893e-05
-0.00015946
1.7455e-05
-0.000164493
1.51321e-05
-0.000168848
1.30425e-05
-0.000172426
1.0687e-05
-0.000175238
8.47989e-06
-0.000177346
6.2939e-06
-0.00017869
4.04031e-06
-0.000179348
1.97992e-06
-0.000179287
-1.3584e-07
-0.000178584
-2.11917e-06
-0.0001772
-4.1491e-06
-0.000175181
-6.0644e-06
-0.000172492
-8.06021e-06
-0.000169138
-1.01268e-05
-0.000165192
-1.17536e-05
-0.000160524
-1.40139e-05
-0.000155218
-1.59626e-05
-0.000149202
-1.80105e-05
-0.000142443
-2.02513e-05
-0.000134911
-2.2631e-05
-0.000126516
-2.5167e-05
-0.000117211
-2.79463e-05
-0.000107116
-3.02394e-05
-9.6075e-05
-3.31081e-05
-8.41956e-05
-3.56468e-05
-7.13919e-05
-3.83619e-05
-5.76078e-05
-4.13835e-05
-4.30028e-05
-4.37891e-05
-2.74562e-05
-4.66039e-05
-1.11913e-05
-4.87925e-05
5.87498e-06
-5.11552e-05
2.34422e-05
-5.26961e-05
4.13647e-05
-5.37095e-05
5.96603e-05
-5.48536e-05
7.7763e-05
-5.42571e-05
9.57568e-05
-5.39228e-05
0.000113199
-5.22814e-05
0.000129983
-5.02838e-05
0.000145872
-4.76249e-05
0.000160427
-4.36132e-05
0.000173493
-3.91481e-05
0.00018486
-3.40451e-05
0.000194208
-2.7992e-05
0.000201348
-2.13915e-05
0.00020624
-1.46808e-05
0.000208645
-7.15676e-06
0.000208527
3.38591e-07
0.000205884
7.87959e-06
0.000200877
1.50393e-05
0.000193574
2.18793e-05
0.000184088
2.84081e-05
0.000172734
3.40258e-05
0.000159684
3.9086e-05
0.000145246
4.32697e-05
0.000129601
4.68721e-05
0.000113199
4.91583e-05
9.61138e-05
5.11951e-05
7.8792e-05
5.19263e-05
6.12709e-05
5.25089e-05
4.393e-05
5.19951e-05
2.68052e-05
5.13281e-05
1.01489e-05
4.99557e-05
-5.98125e-06
4.83643e-05
-2.14825e-05
4.6483e-05
-3.62508e-05
4.42868e-05
-5.02629e-05
4.20236e-05
-6.3455e-05
3.95683e-05
-7.58073e-05
3.70519e-05
-8.73374e-05
3.45857e-05
-9.80332e-05
3.20789e-05
-0.000107888
2.95612e-05
-0.000116932
2.71341e-05
-0.000125183
2.47533e-05
-0.000132666
2.24458e-05
-0.000139386
2.01602e-05
-0.00014535
1.78873e-05
-0.00015058
1.56949e-05
-0.000155085
1.35121e-05
-0.000158864
1.13357e-05
-0.000161923
9.1754e-06
-0.000164253
6.98166e-06
-0.000165839
4.75657e-06
-0.000166711
2.63074e-06
-0.000166802
2.92939e-07
-0.000166059
-2.21074e-06
-0.000164526
-4.59261e-06
-0.00016216
-7.09837e-06
-0.000158992
-9.505e-06
-0.000155024
-1.19108e-05
-0.000150174
-1.45533e-05
-0.000144589
-1.676e-05
-0.000138066
-1.95566e-05
-0.000130755
-2.19373e-05
-0.000122687
-2.4201e-05
-0.00011365
-2.71126e-05
-0.000103801
-2.95542e-05
-9.31852e-05
-3.18383e-05
-8.15933e-05
-3.47657e-05
-6.92626e-05
-3.69844e-05
-5.60318e-05
-3.96871e-05
-4.20663e-05
-4.18785e-05
-2.74721e-05
-4.37716e-05
-1.20615e-05
-4.62027e-05
4.08491e-06
-4.84282e-05
-4.90627e-05
0.000228804
2.40673e-05
0.000220927
3.14292e-05
0.00021089
4.00543e-05
0.000198758
4.84078e-05
0.000185056
5.46853e-05
0.000169755
6.10776e-05
0.000153295
6.56726e-05
0.000135805
6.97994e-05
0.000117573
7.2818e-05
9.88727e-05
7.4652e-05
7.99424e-05
7.55756e-05
6.11043e-05
7.53473e-05
4.25128e-05
7.41831e-05
2.42809e-05
7.28179e-05
6.6751e-06
7.04524e-05
-1.01441e-05
6.71425e-05
-2.61944e-05
6.411e-05
-4.13415e-05
6.05335e-05
-5.55452e-05
5.67829e-05
-6.87434e-05
5.27651e-05
-8.09245e-05
4.87118e-05
-9.20979e-05
4.46888e-05
-0.000102277
4.06883e-05
-0.000111469
3.67964e-05
-0.000119704
3.29558e-05
-0.000127028
2.92971e-05
-0.00013346
2.57214e-05
-0.000139042
2.23443e-05
-0.000143791
1.8999e-05
-0.000147744
1.58175e-05
-0.000150969
1.28823e-05
-0.000153422
9.82972e-06
-0.000155159
6.95002e-06
-0.000156215
4.26321e-06
-0.00015657
1.5386e-06
-0.000156219
-1.35975e-06
-0.000155172
-4.23033e-06
-0.00015345
-6.86943e-06
-0.000151027
-9.66329e-06
-0.000147833
-1.27922e-05
-0.000143938
-1.56063e-05
-0.000139221
-1.88975e-05
-0.000133799
-2.17392e-05
-0.00012749
-2.51868e-05
-0.000120341
-2.86372e-05
-0.000112267
-3.22866e-05
-0.000103388
-3.55668e-05
-9.35468e-05
-3.93081e-05
-8.26581e-05
-4.36009e-05
-7.1041e-05
-4.64245e-05
-5.82793e-05
-5.10768e-05
-4.47271e-05
-5.41516e-05
-3.01344e-05
-5.837e-05
-1.46834e-05
-6.16721e-05
1.43463e-06
-6.45596e-05
1.83164e-05
-6.75068e-05
3.58353e-05
-7.00244e-05
5.36739e-05
-7.13203e-05
7.19187e-05
-7.28092e-05
9.01784e-05
-7.30127e-05
0.000108469
-7.30473e-05
0.000126554
-7.22243e-05
0.000144138
-7.01925e-05
0.000160958
-6.7197e-05
0.000177051
-6.41848e-05
0.000191788
-5.88928e-05
0.000205313
-5.39946e-05
0.000217144
-4.71975e-05
0.000227375
-4.08544e-05
0.000235606
-3.28224e-05
0.000241789
-2.46188e-05
0.000245722
-1.57261e-05
0.000247417
-6.69544e-06
0.000246645
3.14854e-06
0.000243552
1.23444e-05
0.000238179
2.15352e-05
0.000230458
3.08239e-05
0.000220674
3.89898e-05
0.000209007
4.66229e-05
0.000195446
5.4019e-05
0.000180445
5.99595e-05
0.00016397
6.56232e-05
0.000146589
6.94259e-05
0.000128227
7.32314e-05
0.000109435
7.51706e-05
9.01784e-05
7.67246e-05
7.08831e-05
7.70606e-05
5.17346e-05
7.64638e-05
3.28755e-05
7.53255e-05
1.44809e-05
7.33735e-05
-3.26996e-06
7.09252e-05
-2.01961e-05
6.76535e-05
-3.62575e-05
6.41791e-05
-5.12884e-05
5.99742e-05
-6.52362e-05
5.58518e-05
-7.8052e-05
5.12423e-05
-8.97475e-05
4.68234e-05
-0.000100271
4.21167e-05
-0.000109777
3.79323e-05
-0.000118113
3.33197e-05
-0.000125332
2.89201e-05
-0.000131543
2.48756e-05
-0.000136818
2.10874e-05
-0.000141099
1.73382e-05
-0.000144636
1.41889e-05