/*--------------------------------*- C++ -*----------------------------------*\
| =========                 |                                                 |
| \\      /  F ield         | OpenFOAM: The Open Source CFD Toolbox           |
|  \\    /   O peration     | Version:  3.0.1                                 |
|   \\  /    A nd           | Web:      www.OpenFOAM.org                      |
|    \\/     M anipulation  |                                                 |
\*---------------------------------------------------------------------------*/
FoamFile
{
    version     2.0;
    format      ascii;
    class       volVectorField;
    location    "22.6";
    object      U;
}
// * * * * * * * * * * * * * * * * * * * * * * * * * * * * * * * * * * * * * //

dimensions      [0 1 -1 0 0 0 0];

internalField   nonuniform List<vector> 
21420
(
(0.191583 0.000630808 0)
(0.185307 0.000785443 0)
(0.1766 0.000938038 0)
(0.166422 0.00108283 0)
(0.154902 0.00120201 0)
(0.142164 0.00132208 0)
(0.128355 0.00140842 0)
(0.113632 0.00149804 0)
(0.098163 0.00157316 0)
(0.0821245 0.00160357 0)
(0.0657017 0.00164185 0)
(0.0490678 0.00166225 0)
(0.0323546 0.00163877 0)
(0.0155427 0.00162502 0)
(-0.000523373 0.00155559 0)
(-0.0157609 0.0015113 0)
(-0.0306569 0.00144961 0)
(-0.0448227 0.0013603 0)
(-0.0581465 0.0012776 0)
(-0.070551 0.00118653 0)
(-0.081983 0.00108278 0)
(-0.0924144 0.000985313 0)
(-0.101831 0.00088574 0)
(-0.110236 0.000783381 0)
(-0.117645 0.000686766 0)
(-0.124085 0.000590907 0)
(-0.129589 0.000500474 0)
(-0.134196 0.000413508 0)
(-0.137948 0.000329977 0)
(-0.140886 0.000250527 0)
(-0.143047 0.000174804 0)
(-0.144412 0.000105243 0)
(-0.145031 3.73861e-05 0)
(-0.144964 -3.3656e-05 0)
(-0.144254 -0.000103644 0)
(-0.142876 -0.000172153 0)
(-0.140811 -0.000241959 0)
(-0.138053 -0.000311052 0)
(-0.134588 -0.000382023 0)
(-0.130389 -0.000457887 0)
(-0.125442 -0.000531737 0)
(-0.119722 -0.00061312 0)
(-0.113227 -0.000687185 0)
(-0.105959 -0.000762311 0)
(-0.097897 -0.000844384 0)
(-0.0890821 -0.000910931 0)
(-0.0795907 -0.000973278 0)
(-0.0694331 -0.00104201 0)
(-0.0585966 -0.00108992 0)
(-0.0472862 -0.00112954 0)
(-0.0355693 -0.00117623 0)
(-0.0234425 -0.00120089 0)
(-0.0110136 -0.00123082 0)
(0.00128388 -0.00124038 0)
(0.0135349 -0.00124131 0)
(0.0260586 -0.00124454 0)
(0.0385617 -0.00123289 0)
(0.05093 -0.00121031 0)
(0.063089 -0.00118943 0)
(0.0749643 -0.00115244 0)
(0.0864698 -0.00111352 0)
(0.097538 -0.00106152 0)
(0.108046 -0.000995891 0)
(0.11786 -0.000924462 0)
(0.126926 -0.000837988 0)
(0.135024 -0.000734129 0)
(0.142052 -0.000628646 0)
(0.147933 -0.000502733 0)
(0.152426 -0.000368269 0)
(0.155585 -0.000222168 0)
(0.157231 -6.68681e-05 0)
(0.157224 8.32385e-05 0)
(0.155612 0.000253018 0)
(0.152524 0.00042084 0)
(0.147858 0.000578458 0)
(0.141491 0.000734233 0)
(0.133631 0.000874005 0)
(0.124641 0.00100741 0)
(0.114348 0.00112337 0)
(0.102887 0.00121958 0)
(0.0904929 0.00129697 0)
(0.0775994 0.00135241 0)
(0.0643033 0.00138957 0)
(0.0505793 0.00140486 0)
(0.0367206 0.00139786 0)
(0.022842 0.00138779 0)
(0.0092167 0.00135506 0)
(-0.00438203 0.00130124 0)
(-0.0175254 0.00125094 0)
(-0.0296686 0.00118607 0)
(-0.0410867 0.00111974 0)
(-0.0517491 0.00104513 0)
(-0.0616338 0.000971352 0)
(-0.0708215 0.00088795 0)
(-0.0792002 0.000814699 0)
(-0.086794 0.000730024 0)
(-0.0936613 0.000652759 0)
(-0.0998376 0.00057896 0)
(-0.105292 0.000502542 0)
(-0.110038 0.000435035 0)
(-0.114086 0.000372947 0)
(-0.117485 0.000304796 0)
(-0.120274 0.00023986 0)
(-0.122394 0.000186357 0)
(-0.123948 0.000126935 0)
(-0.124969 7.30416e-05 0)
(-0.125456 1.71113e-05 0)
(-0.125412 -2.19635e-05 0)
(-0.124889 -7.00737e-05 0)
(-0.123961 -0.000121194 0)
(-0.122473 -0.000172332 0)
(-0.120459 -0.000222879 0)
(-0.117979 -0.000269998 0)
(-0.114972 -0.000322703 0)
(-0.111415 -0.00037902 0)
(-0.107301 -0.000438317 0)
(-0.1026 -0.000496866 0)
(-0.0972708 -0.000558313 0)
(-0.0912896 -0.000623731 0)
(-0.0846888 -0.000696524 0)
(-0.0773446 -0.000755797 0)
(-0.0693186 -0.000828283 0)
(-0.0606202 -0.000898121 0)
(-0.0512095 -0.000968737 0)
(-0.0410793 -0.00103834 0)
(-0.0302762 -0.00109799 0)
(-0.0189008 -0.00115974 0)
(-0.00694525 -0.00120913 0)
(0.00549328 -0.00125054 0)
(0.0182846 -0.00128725 0)
(0.0313633 -0.00130659 0)
(0.0446116 -0.00131678 0)
(0.0578683 -0.00131379 0)
(0.0710252 -0.00129694 0)
(0.0839462 -0.00125861 0)
(0.0964015 -0.0012058 0)
(0.108225 -0.00114108 0)
(0.119274 -0.00105236 0)
(0.129362 -0.000950638 0)
(0.138334 -0.000827955 0)
(0.146024 -0.000690406 0)
(0.152294 -0.0005467 0)
(0.157041 -0.000392125 0)
(0.160209 -0.000233253 0)
(0.161726 -6.97544e-05 0)
(0.161626 8.86518e-05 0)
(0.159877 0.000250653 0)
(0.156521 0.000411074 0)
(0.151671 0.000553026 0)
(0.145416 0.00068754 0)
(0.137842 0.000812368 0)
(0.129102 0.000921079 0)
(0.119345 0.00101297 0)
(0.108698 0.00109365 0)
(0.0973599 0.00115791 0)
(0.0854733 0.00120377 0)
(0.073146 0.00123716 0)
(0.0606018 0.00125029 0)
(0.0479636 0.00125699 0)
(0.0353415 0.00125212 0)
(0.0228434 0.00122937 0)
(0.010572 0.0011998 0)
(-0.0013653 0.00116769 0)
(-0.0129249 0.00112671 0)
(-0.0240484 0.00108253 0)
(-0.0347117 0.00103244 0)
(-0.0448512 0.000978607 0)
(-0.0544328 0.000925422 0)
(-0.0634649 0.000866171 0)
(-0.0719164 0.000811048 0)
(-0.079793 0.000752971 0)
(-0.0870779 0.000693209 0)
(-0.0937391 0.000631642 0)
(-0.0997884 0.000569152 0)
(-0.105192 0.000501671 0)
(-0.109914 0.000434917 0)
(-0.113964 0.00037006 0)
(-0.117337 0.000301033 0)
(-0.120033 0.000235811 0)
(-0.122081 0.00017166 0)
(-0.123468 0.000104056 0)
(-0.124193 4.25261e-05 0)
(-0.124291 -1.94314e-05 0)
(-0.123752 -8.99613e-05 0)
(-0.122514 -0.000151748 0)
(-0.120628 -0.000217526 0)
(-0.11811 -0.000282487 0)
(-0.114918 -0.000350172 0)
(-0.111061 -0.000413124 0)
(-0.106555 -0.000479433 0)
(-0.10139 -0.000546448 0)
(-0.0955517 -0.000608799 0)
(-0.0890704 -0.000675606 0)
(-0.0819213 -0.00074175 0)
(-0.0741308 -0.00080014 0)
(-0.0657366 -0.000864691 0)
(-0.0567338 -0.000922947 0)
(-0.0471515 -0.00097577 0)
(-0.0370208 -0.00102508 0)
(-0.026439 -0.00107554 0)
(-0.0153574 -0.00111908 0)
(-0.00386995 -0.00115846 0)
(0.00798269 -0.00119645 0)
(0.0201671 -0.00121884 0)
(0.0325805 -0.00123835 0)
(0.0451342 -0.00124913 0)
(0.0577257 -0.00124646 0)
(0.0702251 -0.00123385 0)
(0.0825543 -0.0012078 0)
(0.0945428 -0.00117003 0)
(0.106094 -0.00111889 0)
(0.117054 -0.00105071 0)
(0.127263 -0.000974345 0)
(0.136636 -0.000882433 0)
(0.145009 -0.000772103 0)
(0.152223 -0.000658679 0)
(0.158219 -0.00052855 0)
(0.162855 -0.000389916 0)
(0.166065 -0.00024592 0)
(0.167786 -9.33988e-05 0)
(0.16797 5.71005e-05 0)
(0.166593 0.000214665 0)
(0.163603 0.000370838 0)
(0.15909 0.000522291 0)
(0.153103 0.000666561 0)
(0.1457 0.000802444 0)
(0.136973 0.000922897 0)
(0.127081 0.00103524 0)
(0.116155 0.00113164 0)
(0.104353 0.00121283 0)
(0.0918286 0.00127229 0)
(0.0787774 0.00131414 0)
(0.0653545 0.00134623 0)
(0.0517139 0.00135773 0)
(0.0380601 0.00135254 0)
(0.0245002 0.00133748 0)
(0.0111505 0.00130765 0)
(-0.0018108 0.00126511 0)
(-0.014332 0.00121881 0)
(-0.0263225 0.00115906 0)
(-0.0376793 0.00109599 0)
(-0.0483635 0.00102564 0)
(-0.05831 0.00094957 0)
(-0.0674902 0.000875141 0)
(-0.0758926 0.000792725 0)
(-0.0835079 0.000713553 0)
(-0.0903122 0.000635588 0)
(-0.0963202 0.000560788 0)
(-0.10159 0.000484173 0)
(-0.106149 0.000413865 0)
(-0.109975 0.000351453 0)
(-0.113147 0.000283811 0)
(-0.115687 0.000219142 0)
(-0.11759 0.000157855 0)
(-0.1189 0.000101479 0)
(-0.119618 4.5779e-05 0)
(-0.119807 -8.27685e-06 0)
(-0.119449 -6.04377e-05 0)
(-0.118585 -0.000109237 0)
(-0.117228 -0.000157921 0)
(-0.11535 -0.000209897 0)
(-0.112952 -0.00026305 0)
(-0.110022 -0.000314726 0)
(-0.106587 -0.000374989 0)
(-0.102505 -0.000424733 0)
(-0.0978655 -0.000485022 0)
(-0.0926191 -0.000549013 0)
(-0.0867011 -0.000609608 0)
(-0.0802877 -0.000688827 0)
(-0.0730109 -0.000745868 0)
(-0.0651724 -0.000821054 0)
(-0.0566909 -0.000891832 0)
(-0.047312 -0.000958034 0)
(-0.0373714 -0.00103348 0)
(-0.0267949 -0.00110282 0)
(-0.0155572 -0.00116873 0)
(-0.00299709 -0.00122687 0)
(0.0107477 -0.00128436 0)
(0.0247566 -0.00132013 0)
(0.0390419 -0.00134884 0)
(0.0535172 -0.00135784 0)
(0.0680271 -0.0013549 0)
(0.0824349 -0.00133406 0)
(0.0964692 -0.00128512 0)
(0.109894 -0.00122387 0)
(0.12255 -0.00114189 0)
(0.134151 -0.00103343 0)
(0.144505 -0.000917406 0)
(0.153462 -0.000780191 0)
(0.160854 -0.000637108 0)
(0.166642 -0.000485271 0)
(0.170687 -0.000322499 0)
(0.17294 -0.000159309 0)
(0.173598 1.38502e-05 0)
(0.172777 0.000174971 0)
(0.170369 0.000319889 0)
(0.166537 0.000461738 0)
(0.161257 0.000601298 0)
(0.15466 0.000723251 0)
(0.146865 0.00084121 0)
(0.138008 0.000934136 0)
(0.128206 0.00102441 0)
(0.117538 0.00110182 0)
(0.106274 0.00115358 0)
(0.0944469 0.00120175 0)
(0.0821403 0.00124 0)
(0.069657 0.00125537 0)
(0.0569429 0.00126673 0)
(0.0441158 0.00126435 0)
(0.031327 0.00126088 0)
(0.0185699 0.0012493 0)
(0.00645016 0.00122001 0)
(-0.00518381 0.00119248 0)
(-0.0167923 0.00115633 0)
(-0.0280855 0.00110622 0)
(-0.0389332 0.00105682 0)
(-0.0492544 0.000995445 0)
(-0.0589833 0.000934675 0)
(-0.0680629 0.000868467 0)
(-0.0764436 0.000794792 0)
(-0.0840945 0.000722633 0)
(-0.0909979 0.000648403 0)
(-0.0971454 0.000572364 0)
(-0.102539 0.000498367 0)
(-0.10719 0.000424627 0)
(-0.111108 0.000352805 0)
(-0.114309 0.000281876 0)
(-0.11681 0.000211836 0)
(-0.118621 0.000143595 0)
(-0.119713 7.85327e-05 0)
(-0.120145 1.21723e-05 0)
(-0.119895 -5.65665e-05 0)
(-0.118973 -0.000124233 0)
(-0.117383 -0.000190851 0)
(-0.115128 -0.000256022 0)
(-0.112218 -0.000321202 0)
(-0.108663 -0.00038397 0)
(-0.104471 -0.00044588 0)
(-0.0996497 -0.000509526 0)
(-0.0942055 -0.000570021 0)
(-0.088142 -0.000629794 0)
(-0.0814628 -0.000693171 0)
(-0.0741757 -0.00075116 0)
(-0.0662912 -0.000813543 0)
(-0.0578277 -0.000867626 0)
(-0.0488109 -0.000918207 0)
(-0.0392733 -0.000973439 0)
(-0.029259 -0.00101494 0)
(-0.0188037 -0.00104966 0)
(-0.00785875 -0.0010886 0)
(0.0032363 -0.001107 0)
(0.0143784 -0.00112856 0)
(0.0257118 -0.00112708 0)
(0.037017 -0.00111333 0)
(0.0481739 -0.00109962 0)
(0.0590425 -0.00106006 0)
(0.0710269 -0.00100799 0)
(0.191648 0.00189268 0)
(0.185368 0.00235661 0)
(0.176658 0.00281447 0)
(0.166477 0.00324893 0)
(0.15495 0.00360652 0)
(0.142208 0.00396679 0)
(0.128391 0.00422587 0)
(0.113663 0.00449479 0)
(0.0981871 0.00472021 0)
(0.0821411 0.00481144 0)
(0.0657112 0.00492628 0)
(0.0490702 0.00498744 0)
(0.0323506 0.00491692 0)
(0.0155289 0.00487601 0)
(-0.000542646 0.00466702 0)
(-0.0157829 0.00453453 0)
(-0.0306845 0.00434927 0)
(-0.0448539 0.00408123 0)
(-0.058181 0.00383311 0)
(-0.0705877 0.00355984 0)
(-0.0820205 0.00324841 0)
(-0.0924528 0.00295594 0)
(-0.10187 0.00265729 0)
(-0.110273 0.00235016 0)
(-0.117682 0.00206021 0)
(-0.124121 0.00177261 0)
(-0.129624 0.00150132 0)
(-0.134229 0.00124045 0)
(-0.137979 0.000989925 0)
(-0.140916 0.00075147 0)
(-0.143076 0.000524277 0)
(-0.144442 0.000315545 0)
(-0.145058 0.0001131 0)
(-0.144993 -0.000100833 0)
(-0.144283 -0.000310888 0)
(-0.142905 -0.00051634 0)
(-0.140841 -0.000725725 0)
(-0.138084 -0.000932974 0)
(-0.13462 -0.00114588 0)
(-0.130423 -0.00137351 0)
(-0.125478 -0.00159508 0)
(-0.119759 -0.00183901 0)
(-0.113265 -0.00206142 0)
(-0.105997 -0.00228688 0)
(-0.097935 -0.00253315 0)
(-0.0891193 -0.00273296 0)
(-0.0796267 -0.00291991 0)
(-0.0694677 -0.00312626 0)
(-0.0586287 -0.00326986 0)
(-0.0473161 -0.00338906 0)
(-0.0355969 -0.0035289 0)
(-0.0234674 -0.00360328 0)
(-0.0110346 -0.00369227 0)
(0.00126412 -0.00372279 0)
(0.0135206 -0.00372522 0)
(0.0260483 -0.00373259 0)
(0.0385562 -0.0036997 0)
(0.0509292 -0.0036324 0)
(0.0630929 -0.00356841 0)
(0.0749752 -0.00345958 0)
(0.0864879 -0.00334209 0)
(0.0975602 -0.00318606 0)
(0.10808 -0.00299013 0)
(0.117903 -0.00277432 0)
(0.126979 -0.00251207 0)
(0.135076 -0.00221189 0)
(0.142125 -0.00188486 0)
(0.148012 -0.00150616 0)
(0.152512 -0.00110271 0)
(0.155677 -0.000664801 0)
(0.157329 -0.00020261 0)
(0.157325 0.000249556 0)
(0.155713 0.000759625 0)
(0.152629 0.00126198 0)
(0.147963 0.00173445 0)
(0.141598 0.00220519 0)
(0.133729 0.00262121 0)
(0.124736 0.00302291 0)
(0.114441 0.00337332 0)
(0.102971 0.0036601 0)
(0.0905706 0.00389085 0)
(0.0776637 0.00406116 0)
(0.0643522 0.00416914 0)
(0.0506208 0.00421689 0)
(0.0367446 0.00419563 0)
(0.0228546 0.00416807 0)
(0.0092149 0.00406252 0)
(-0.00440204 0.0039102 0)
(-0.0175628 0.00375131 0)
(-0.0297143 0.00355628 0)
(-0.0411414 0.00336033 0)
(-0.0518115 0.0031293 0)
(-0.0617046 0.00291563 0)
(-0.070897 0.00266763 0)
(-0.0792782 0.00244125 0)
(-0.0868775 0.00218878 0)
(-0.0937438 0.00195458 0)
(-0.0999097 0.00173971 0)
(-0.105369 0.00151338 0)
(-0.110119 0.00130857 0)
(-0.114173 0.0011128 0)
(-0.117572 0.000906287 0)
(-0.120347 0.000723088 0)
(-0.122475 0.000557614 0)
(-0.124025 0.00037797 0)
(-0.125037 0.000221371 0)
(-0.125525 5.33839e-05 0)
(-0.125488 -6.12506e-05 0)
(-0.12498 -0.000224716 0)
(-0.124031 -0.000365464 0)
(-0.122543 -0.000508068 0)
(-0.12053 -0.000664186 0)
(-0.118058 -0.000816342 0)
(-0.115048 -0.000977041 0)
(-0.111487 -0.00113607 0)
(-0.107369 -0.00131118 0)
(-0.102673 -0.00149204 0)
(-0.0973388 -0.00167205 0)
(-0.0913722 -0.00187917 0)
(-0.0847564 -0.00208729 0)
(-0.0774148 -0.00226611 0)
(-0.0693831 -0.00248223 0)
(-0.0606903 -0.00269797 0)
(-0.0512773 -0.00291797 0)
(-0.0411407 -0.00310673 0)
(-0.0303453 -0.0033037 0)
(-0.0189433 -0.00347764 0)
(-0.00698323 -0.00362456 0)
(0.00544448 -0.00376156 0)
(0.0182518 -0.00385764 0)
(0.0313386 -0.0039227 0)
(0.0445953 -0.00395155 0)
(0.0578627 -0.00394469 0)
(0.0710296 -0.00389685 0)
(0.0839459 -0.0037811 0)
(0.0964199 -0.00362989 0)
(0.108271 -0.0034128 0)
(0.11932 -0.00315676 0)
(0.129419 -0.00285236 0)
(0.138396 -0.00248635 0)
(0.146091 -0.00207446 0)
(0.152366 -0.00164146 0)
(0.157118 -0.00118188 0)
(0.160288 -0.000699141 0)
(0.161809 -0.000216431 0)
(0.161708 0.00026559 0)
(0.159953 0.000756568 0)
(0.1566 0.00122823 0)
(0.15175 0.0016612 0)
(0.14548 0.0020665 0)
(0.1379 0.00243312 0)
(0.129156 0.00276081 0)
(0.119386 0.00304375 0)
(0.108737 0.00327692 0)
(0.0973917 0.00347496 0)
(0.0854894 0.0036134 0)
(0.0731588 0.00371029 0)
(0.0606067 0.00376044 0)
(0.0479514 0.00376719 0)
(0.0353175 0.00374588 0)
(0.0228258 0.00368444 0)
(0.0105597 0.0036152 0)
(-0.001395 0.00350251 0)
(-0.0129588 0.00337739 0)
(-0.0240921 0.00324878 0)
(-0.0347534 0.00309783 0)
(-0.0448962 0.00293238 0)
(-0.0544845 0.00277521 0)
(-0.0635109 0.00260296 0)
(-0.0719681 0.00243303 0)
(-0.0798509 0.00225615 0)
(-0.0871364 0.00207539 0)
(-0.0938006 0.00189531 0)
(-0.0998491 0.00170482 0)
(-0.105253 0.00150824 0)
(-0.109977 0.00130731 0)
(-0.11403 0.00110748 0)
(-0.117405 0.000900862 0)
(-0.120103 0.000705525 0)
(-0.122152 0.000509781 0)
(-0.123534 0.000316474 0)
(-0.124261 0.000129857 0)
(-0.124369 -6.8796e-05 0)
(-0.123817 -0.000267224 0)
(-0.122587 -0.00045686 0)
(-0.120705 -0.000656111 0)
(-0.118179 -0.000851778 0)
(-0.114982 -0.00104713 0)
(-0.111133 -0.00124124 0)
(-0.106624 -0.0014372 0)
(-0.101452 -0.00163647 0)
(-0.0956273 -0.00183456 0)
(-0.0891282 -0.00202672 0)
(-0.0819815 -0.00222295 0)
(-0.0742035 -0.00240982 0)
(-0.0657927 -0.00259227 0)
(-0.0567954 -0.00277156 0)
(-0.0471977 -0.00292561 0)
(-0.0370876 -0.00308509 0)
(-0.0264836 -0.00322782 0)
(-0.0154052 -0.00335751 0)
(-0.0039072 -0.00347425 0)
(0.0079572 -0.00358336 0)
(0.0201372 -0.0036593 0)
(0.0325566 -0.00372368 0)
(0.0451214 -0.0037472 0)
(0.0577102 -0.00374372 0)
(0.0702275 -0.0037024 0)
(0.0825581 -0.00362499 0)
(0.0945604 -0.00351354 0)
(0.106118 -0.00335663 0)
(0.117072 -0.00316377 0)
(0.127309 -0.00292484 0)
(0.136689 -0.0026401 0)
(0.145061 -0.0023273 0)
(0.152295 -0.0019741 0)
(0.158285 -0.00158486 0)
(0.162928 -0.0011724 0)
(0.166138 -0.000738472 0)
(0.167859 -0.000290121 0)
(0.168056 0.000173771 0)
(0.166673 0.000643206 0)
(0.163686 0.00111417 0)
(0.159172 0.00156837 0)
(0.153177 0.00199922 0)
(0.145768 0.00240815 0)
(0.137034 0.00276832 0)
(0.127133 0.00310189 0)
(0.116197 0.00339627 0)
(0.104384 0.0036319 0)
(0.0918648 0.0038212 0)
(0.0788022 0.00395287 0)
(0.0653632 0.00403656 0)
(0.0517175 0.00407311 0)
(0.0380569 0.00406101 0)
(0.0244836 0.0040124 0)
(0.0111294 0.0039236 0)
(-0.00183669 0.00380388 0)
(-0.014365 0.00365632 0)
(-0.0263654 0.00347848 0)
(-0.03773 0.00328159 0)
(-0.0484146 0.00307602 0)
(-0.0583614 0.00284801 0)
(-0.0675479 0.00262216 0)
(-0.0759471 0.00237673 0)
(-0.0835601 0.00214991 0)
(-0.0903714 0.00190438 0)
(-0.0963781 0.00168145 0)
(-0.101648 0.00145153 0)
(-0.106208 0.00123675 0)
(-0.110042 0.00105493 0)
(-0.113211 0.000845416 0)
(-0.115739 0.000662484 0)
(-0.117647 0.000475482 0)
(-0.118958 0.00030457 0)
(-0.119677 0.000132423 0)
(-0.119858 -2.39159e-05 0)
(-0.119505 -0.000179923 0)
(-0.118639 -0.000326415 0)
(-0.11729 -0.000487196 0)
(-0.115409 -0.000630663 0)
(-0.113008 -0.000785424 0)
(-0.11008 -0.000949138 0)
(-0.106638 -0.00112259 0)
(-0.102556 -0.00127011 0)
(-0.0979255 -0.00145455 0)
(-0.0926823 -0.00165807 0)
(-0.086752 -0.00182701 0)
(-0.080341 -0.00206065 0)
(-0.0730618 -0.00223181 0)
(-0.0652333 -0.00247131 0)
(-0.0567432 -0.00268099 0)
(-0.0473573 -0.00287507 0)
(-0.0374245 -0.00309934 0)
(-0.0268378 -0.00331578 0)
(-0.0155956 -0.00350308 0)
(-0.00303368 -0.00368108 0)
(0.0107208 -0.00385192 0)
(0.0247228 -0.00396324 0)
(0.039024 -0.0040449 0)
(0.0535078 -0.00407402 0)
(0.0680211 -0.00406209 0)
(0.0824365 -0.00400147 0)
(0.0964784 -0.0038591 0)
(0.109916 -0.00367332 0)
(0.122584 -0.00342871 0)
(0.134195 -0.00310339 0)
(0.144558 -0.00275591 0)
(0.153522 -0.00234519 0)
(0.16092 -0.00191908 0)
(0.16672 -0.0014595 0)
(0.170765 -0.000970645 0)
(0.173022 -0.000474206 0)
(0.173681 4.13799e-05 0)
(0.172852 0.000524036 0)
(0.170443 0.00095749 0)
(0.166612 0.00138794 0)
(0.161329 0.00179237 0)
(0.154728 0.00216696 0)
(0.146927 0.00252347 0)
(0.138064 0.00280305 0)
(0.128257 0.00307378 0)
(0.117581 0.00330628 0)
(0.106311 0.00346132 0)
(0.0944779 0.00360575 0)
(0.0821657 0.00372065 0)
(0.0696762 0.00376687 0)
(0.0569574 0.00380065 0)
(0.0441265 0.00379354 0)
(0.0313328 0.00378309 0)
(0.0185713 0.00374829 0)
(0.00644767 0.00366054 0)
(-0.00519008 0.00357807 0)
(-0.0168023 0.00346943 0)
(-0.0280987 0.00331905 0)
(-0.0389497 0.00317083 0)
(-0.0492737 0.00298655 0)
(-0.0590055 0.00280427 0)
(-0.0680873 0.00260562 0)
(-0.0764693 0.00238455 0)
(-0.0841215 0.00216809 0)
(-0.0910257 0.00194539 0)
(-0.0971733 0.00171727 0)
(-0.102567 0.00149521 0)
(-0.107217 0.00127369 0)
(-0.111135 0.00105842 0)
(-0.114336 0.000845774 0)
(-0.116837 0.00063558 0)
(-0.118648 0.000430768 0)
(-0.119741 0.00023538 0)
(-0.120171 3.66433e-05 0)
(-0.119922 -0.000169613 0)
(-0.119 -0.000372654 0)
(-0.117409 -0.000572589 0)
(-0.115154 -0.000768025 0)
(-0.112244 -0.000963612 0)
(-0.108689 -0.00115189 0)
(-0.104496 -0.00133762 0)
(-0.0996753 -0.00152859 0)
(-0.0942309 -0.00171004 0)
(-0.0881671 -0.00188937 0)
(-0.081488 -0.00207953 0)
(-0.0742003 -0.00225351 0)
(-0.0663154 -0.00244069 0)
(-0.0578507 -0.00260299 0)
(-0.0488325 -0.00275473 0)
(-0.0392934 -0.00292048 0)
(-0.0292768 -0.00304508 0)
(-0.0188188 -0.00314942 0)
(-0.00787075 -0.00326654 0)
(0.00322799 -0.00332099 0)
(0.014374 -0.00338607 0)
(0.025712 -0.00338169 0)
(0.0370222 -0.00334047 0)
(0.0481844 -0.0032994 0)
(0.0590583 -0.0031807 0)
(0.0710489 -0.00302448 0)
(0.191777 0.00315543 0)
(0.185491 0.0039288 0)
(0.176773 0.00469213 0)
(0.166584 0.00541648 0)
(0.155046 0.00601262 0)
(0.142293 0.00661327 0)
(0.128463 0.00704519 0)
(0.113722 0.00749359 0)
(0.0982321 0.00786946 0)
(0.0821708 0.00802151 0)
(0.0657263 0.00821294 0)
(0.0490712 0.00831471 0)
(0.0323388 0.00819676 0)
(0.0154972 0.00812902 0)
(-0.000585344 0.00777993 0)
(-0.0158311 0.00755961 0)
(-0.0307441 0.00725029 0)
(-0.0449204 0.00680312 0)
(-0.0582539 0.00638931 0)
(-0.0706651 0.00593365 0)
(-0.0820994 0.0054143 0)
(-0.092533 0.00492655 0)
(-0.10195 0.00442868 0)
(-0.110352 0.00391673 0)
(-0.117759 0.00343329 0)
(-0.124194 0.00295387 0)
(-0.129694 0.00250173 0)
(-0.134296 0.00206687 0)
(-0.138043 0.00164946 0)
(-0.140976 0.00125249 0)
(-0.143132 0.000874222 0)
(-0.144501 0.000525011 0)
(-0.145116 0.000187769 0)
(-0.145048 -0.000168834 0)
(-0.144338 -0.000518313 0)
(-0.14296 -0.000860511 0)
(-0.140897 -0.00120935 0)
(-0.138141 -0.00155473 0)
(-0.134678 -0.00190957 0)
(-0.130483 -0.00228897 0)
(-0.125538 -0.00265828 0)
(-0.119821 -0.00306457 0)
(-0.113326 -0.0034359 0)
(-0.106058 -0.00381167 0)
(-0.0979936 -0.00422223 0)
(-0.089174 -0.00455546 0)
(-0.0796769 -0.00486741 0)
(-0.0695127 -0.00521104 0)
(-0.0586677 -0.00545053 0)
(-0.0473491 -0.00564938 0)
(-0.035624 -0.00588262 0)
(-0.0234879 -0.00600618 0)
(-0.0110487 -0.00615488 0)
(0.00125707 -0.00620628 0)
(0.0135202 -0.00620959 0)
(0.0260519 -0.0062237 0)
(0.0385681 -0.0061669 0)
(0.0509475 -0.00605457 0)
(0.063114 -0.00595105 0)
(0.0750068 -0.00576589 0)
(0.0865265 -0.00557142 0)
(0.0976036 -0.00531474 0)
(0.108136 -0.00498362 0)
(0.117967 -0.00462701 0)
(0.127051 -0.00419339 0)
(0.135163 -0.00368751 0)
(0.14222 -0.00314294 0)
(0.14812 -0.00250963 0)
(0.152627 -0.00184383 0)
(0.1558 -0.0011115 0)
(0.157461 -0.000334464 0)
(0.157456 0.000414032 0)
(0.155848 0.00126729 0)
(0.152769 0.0021037 0)
(0.148106 0.00289105 0)
(0.141736 0.00367538 0)
(0.133865 0.00437207 0)
(0.124866 0.00503902 0)
(0.114556 0.00562331 0)
(0.10308 0.00609997 0)
(0.0906692 0.00648919 0)
(0.0777478 0.00677289 0)
(0.0644189 0.00695262 0)
(0.0506642 0.00703259 0)
(0.0367716 0.00699686 0)
(0.0228583 0.00694711 0)
(0.00920539 0.00677938 0)
(-0.0044374 0.00651812 0)
(-0.0176116 0.0062582 0)
(-0.0297713 0.00593241 0)
(-0.0412161 0.0056017 0)
(-0.0518897 0.00522609 0)
(-0.061808 0.00485812 0)
(-0.0709963 0.00444514 0)
(-0.079384 0.00407049 0)
(-0.0869844 0.00365063 0)
(-0.0938431 0.00326094 0)
(-0.100013 0.00290011 0)
(-0.10547 0.00251987 0)
(-0.110219 0.00217626 0)
(-0.114273 0.00185636 0)
(-0.117667 0.00151232 0)
(-0.120436 0.00120848 0)
(-0.122566 0.000928183 0)
(-0.124113 0.000628894 0)
(-0.125128 0.000367822 0)
(-0.125608 9.03811e-05 0)
(-0.125574 -0.000108326 0)
(-0.125062 -0.00036642 0)
(-0.124113 -0.000609849 0)
(-0.122628 -0.00084901 0)
(-0.120618 -0.00111248 0)
(-0.118141 -0.00136162 0)
(-0.115132 -0.00161852 0)
(-0.111576 -0.0018942 0)
(-0.107464 -0.0021851 0)
(-0.102761 -0.00248544 0)
(-0.0974361 -0.00279278 0)
(-0.0914654 -0.00312573 0)
(-0.0848506 -0.00347906 0)
(-0.0775139 -0.0037838 0)
(-0.0694815 -0.0041371 0)
(-0.060782 -0.0044953 0)
(-0.0513642 -0.00485137 0)
(-0.0412418 -0.00519259 0)
(-0.0304342 -0.00550415 0)
(-0.0190195 -0.00579577 0)
(-0.00705665 -0.00604556 0)
(0.00537997 -0.00626362 0)
(0.0181888 -0.00643811 0)
(0.0312868 -0.00653966 0)
(0.0445507 -0.00659034 0)
(0.0578407 -0.0065754 0)
(0.0710219 -0.00649043 0)
(0.0839469 -0.00630675 0)
(0.0964397 -0.00604456 0)
(0.108297 -0.00570166 0)
(0.119357 -0.00526862 0)
(0.129481 -0.00475026 0)
(0.13847 -0.0041462 0)
(0.146166 -0.00346235 0)
(0.152453 -0.00274039 0)
(0.157213 -0.0019663 0)
(0.160385 -0.00116993 0)
(0.161919 -0.00035186 0)
(0.161807 0.000446497 0)
(0.160036 0.00125501 0)
(0.156693 0.0020499 0)
(0.151836 0.00277516 0)
(0.145548 0.00344133 0)
(0.137966 0.0040573 0)
(0.12921 0.00460836 0)
(0.119422 0.0050704 0)
(0.108768 0.00546463 0)
(0.0974087 0.00579977 0)
(0.0854886 0.00601974 0)
(0.0731491 0.0061871 0)
(0.0605798 0.00626479 0)
(0.047923 0.00628346 0)
(0.0352821 0.00624997 0)
(0.0227784 0.00614727 0)
(0.0104947 0.00601471 0)
(-0.00145611 0.00583725 0)
(-0.0130181 0.0056408 0)
(-0.0241654 0.00540964 0)
(-0.034825 0.00516046 0)
(-0.0449639 0.00489652 0)
(-0.054563 0.00462323 0)
(-0.0635928 0.00433544 0)
(-0.0720487 0.00405479 0)
(-0.0799257 0.0037613 0)
(-0.0872109 0.00346845 0)
(-0.0938844 0.00315527 0)
(-0.0999345 0.00284339 0)
(-0.105337 0.00251178 0)
(-0.110066 0.00217628 0)
(-0.114114 0.00184728 0)
(-0.117484 0.001507 0)
(-0.120187 0.0011746 0)
(-0.122237 0.000852092 0)
(-0.123622 0.000526389 0)
(-0.124351 0.000213142 0)
(-0.12445 -0.000109581 0)
(-0.123897 -0.000444751 0)
(-0.122674 -0.00076459 0)
(-0.120786 -0.00109239 0)
(-0.118259 -0.00141349 0)
(-0.115063 -0.00174335 0)
(-0.111216 -0.00207014 0)
(-0.106709 -0.00239922 0)
(-0.10154 -0.00273006 0)
(-0.0957095 -0.00305977 0)
(-0.0892085 -0.00337236 0)
(-0.0820612 -0.00370697 0)
(-0.0742806 -0.00401355 0)
(-0.065875 -0.0043261 0)
(-0.0568646 -0.00461424 0)
(-0.0472721 -0.00488114 0)
(-0.0371525 -0.00513744 0)
(-0.0265459 -0.00537529 0)
(-0.0154701 -0.00560198 0)
(-0.00396816 -0.00579158 0)
(0.00790095 -0.00598083 0)
(0.0200906 -0.00609845 0)
(0.0325249 -0.00619874 0)
(0.045089 -0.00625023 0)
(0.0576861 -0.00624081 0)
(0.0702151 -0.00617287 0)
(0.0825514 -0.00604808 0)
(0.0945774 -0.00585093 0)
(0.106138 -0.0055985 0)
(0.117105 -0.00527324 0)
(0.127354 -0.00487437 0)
(0.136745 -0.00440666 0)
(0.145124 -0.00387798 0)
(0.15237 -0.0032883 0)
(0.158366 -0.00264628 0)
(0.163017 -0.00195242 0)
(0.166235 -0.00123181 0)
(0.167964 -0.000481262 0)
(0.168157 0.000287595 0)
(0.166762 0.00107376 0)
(0.16378 0.00185342 0)
(0.159269 0.00261535 0)
(0.153265 0.00333567 0)
(0.145845 0.00401082 0)
(0.137112 0.00462213 0)
(0.127193 0.00517777 0)
(0.116241 0.00565635 0)
(0.104421 0.00606085 0)
(0.0918824 0.00637304 0)
(0.0788039 0.00658438 0)
(0.0653566 0.0067302 0)
(0.0517011 0.00679289 0)
(0.0380237 0.00677127 0)
(0.0244382 0.00668755 0)
(0.0110769 0.00654542 0)
(-0.00190564 0.00633213 0)
(-0.0144352 0.00609517 0)
(-0.0264345 0.00580057 0)
(-0.0378087 0.00547547 0)
(-0.0484941 0.00512588 0)
(-0.0584471 0.00475003 0)
(-0.0676351 0.00436838 0)
(-0.0760375 0.00396448 0)
(-0.0836503 0.00357449 0)
(-0.0904589 0.00317674 0)
(-0.096462 0.00280148 0)
(-0.10173 0.00242321 0)
(-0.106285 0.00206469 0)
(-0.110122 0.00175529 0)
(-0.113291 0.00140842 0)
(-0.115814 0.00110279 0)
(-0.117721 0.00079152 0)
(-0.119035 0.00050199 0)
(-0.119742 0.000228128 0)
(-0.119926 -4.19256e-05 0)
(-0.119576 -0.000304605 0)
(-0.118706 -0.000545635 0)
(-0.117346 -0.00080089 0)
(-0.115475 -0.00105435 0)
(-0.113075 -0.00131065 0)
(-0.110146 -0.00157799 0)
(-0.106704 -0.00187211 0)
(-0.102625 -0.00212271 0)
(-0.0980017 -0.00242838 0)
(-0.0927481 -0.00275457 0)
(-0.0868272 -0.00304562 0)
(-0.0804188 -0.00344404 0)
(-0.0731329 -0.00372063 0)
(-0.0653009 -0.00411362 0)
(-0.0568064 -0.00447008 0)
(-0.0474172 -0.00479027 0)
(-0.0374961 -0.00517216 0)
(-0.026892 -0.00551999 0)
(-0.0156549 -0.00584471 0)
(-0.00308448 -0.00613693 0)
(0.0106752 -0.0064183 0)
(0.0246864 -0.00660374 0)
(0.0389936 -0.00674447 0)
(0.0534863 -0.006792 0)
(0.0680104 -0.00677474 0)
(0.0824401 -0.00667092 0)
(0.0965004 -0.0064283 0)
(0.109947 -0.00612109 0)
(0.12263 -0.00571562 0)
(0.134256 -0.00517208 0)
(0.144631 -0.00459118 0)
(0.153607 -0.00390567 0)
(0.161014 -0.00319626 0)
(0.16682 -0.00244221 0)
(0.17088 -0.00161789 0)
(0.173146 -0.000792934 0)
(0.173803 6.48973e-05 0)
(0.172949 0.000867036 0)
(0.170546 0.0015933 0)
(0.166712 0.00230676 0)
(0.161426 0.00301315 0)
(0.154822 0.00361944 0)
(0.147009 0.00420864 0)
(0.138135 0.00467368 0)
(0.128318 0.00512468 0)
(0.117631 0.00551226 0)
(0.10635 0.0057709 0)
(0.0945078 0.00601103 0)
(0.0821864 0.00620276 0)
(0.0696866 0.00627978 0)
(0.0569608 0.00633586 0)
(0.0441244 0.00632334 0)
(0.0313233 0.00630622 0)
(0.0185553 0.00624806 0)
(0.00642582 0.00610205 0)
(-0.00521828 0.00596466 0)
(-0.0168365 0.00578342 0)
(-0.0281376 0.00553265 0)
(-0.0389937 0.00528556 0)
(-0.0493215 0.00497814 0)
(-0.0590576 0.00467438 0)
(-0.0681429 0.00434322 0)
(-0.0765269 0.00397458 0)
(-0.0841807 0.00361362 0)
(-0.0910854 0.00324232 0)
(-0.0972325 0.00286217 0)
(-0.102626 0.00249219 0)
(-0.107275 0.00212277 0)
(-0.111192 0.00176369 0)
(-0.114391 0.00140954 0)
(-0.11689 0.00105944 0)
(-0.1187 0.000718101 0)
(-0.119796 0.000391638 0)
(-0.120226 6.0483e-05 0)
(-0.119976 -0.000283039 0)
(-0.119053 -0.000621164 0)
(-0.117462 -0.000954546 0)
(-0.115206 -0.00128015 0)
(-0.112295 -0.00160616 0)
(-0.108739 -0.00191991 0)
(-0.104546 -0.00222946 0)
(-0.0997246 -0.00254774 0)
(-0.0942797 -0.00285011 0)
(-0.0882154 -0.003149 0)
(-0.0815361 -0.003466 0)
(-0.0742473 -0.00375602 0)
(-0.0663615 -0.00406808 0)
(-0.0578947 -0.00433869 0)
(-0.0488735 -0.00459169 0)
(-0.0393315 -0.00486809 0)
(-0.0293103 -0.00507596 0)
(-0.018847 -0.00525023 0)
(-0.00789268 -0.00544593 0)
(0.00321335 -0.0055357 0)
(0.014367 -0.00564482 0)
(0.0257141 -0.0056377 0)
(0.037034 -0.0055691 0)
(0.048207 -0.00550074 0)
(0.0590913 -0.00530291 0)
(0.0710935 -0.0050425 0)
(0.191971 0.00441967 0)
(0.185675 0.00550274 0)
(0.176947 0.00657187 0)
(0.166745 0.00758644 0)
(0.155189 0.00842137 0)
(0.14242 0.00926272 0)
(0.12857 0.00986766 0)
(0.11381 0.0104958 0)
(0.0982996 0.0110224 0)
(0.0822154 0.0112352 0)
(0.0657491 0.0115033 0)
(0.0490725 0.0116454 0)
(0.0323209 0.0114793 0)
(0.0154496 0.0113844 0)
(-0.000649388 0.0108964 0)
(-0.0159035 0.0105878 0)
(-0.0308336 0.0101537 0)
(-0.0450204 0.00952672 0)
(-0.0583634 0.00894668 0)
(-0.0707812 0.00830824 0)
(-0.0822178 0.00758063 0)
(-0.0926534 0.00689723 0)
(-0.10207 0.00619984 0)
(-0.11047 0.00548288 0)
(-0.117874 0.00480581 0)
(-0.124305 0.00413444 0)
(-0.1298 0.00350141 0)
(-0.134397 0.00289274 0)
(-0.138139 0.00230885 0)
(-0.141066 0.00175414 0)
(-0.143215 0.00122562 0)
(-0.144587 0.000733574 0)
(-0.145205 0.000254278 0)
(-0.145132 -0.000239603 0)
(-0.144421 -0.000726049 0)
(-0.143042 -0.00120462 0)
(-0.140981 -0.00169273 0)
(-0.138226 -0.00217619 0)
(-0.134765 -0.00267292 0)
(-0.130573 -0.00320413 0)
(-0.12563 -0.00372118 0)
(-0.119914 -0.00428965 0)
(-0.113419 -0.00481092 0)
(-0.106149 -0.00533681 0)
(-0.0980818 -0.00591176 0)
(-0.0892563 -0.00637843 0)
(-0.0797526 -0.00681664 0)
(-0.0695806 -0.00729701 0)
(-0.0587261 -0.00763179 0)
(-0.047399 -0.00791114 0)
(-0.0356648 -0.00823769 0)
(-0.0235193 -0.00841061 0)
(-0.0110703 -0.00861882 0)
(0.00124584 -0.00869285 0)
(0.0135178 -0.00869705 0)
(0.0260599 -0.00871487 0)
(0.0385844 -0.00863705 0)
(0.0509729 -0.00847982 0)
(0.0631497 -0.00833298 0)
(0.0750517 -0.0080766 0)
(0.0865818 -0.00780493 0)
(0.0976715 -0.00744319 0)
(0.108217 -0.00698253 0)
(0.118061 -0.00648308 0)
(0.127161 -0.00587387 0)