/*--------------------------------*- C++ -*----------------------------------*\
| =========                 |                                                 |
| \\      /  F ield         | OpenFOAM: The Open Source CFD Toolbox           |
|  \\    /   O peration     | Version:  3.0.1                                 |
|   \\  /    A nd           | Web:      www.OpenFOAM.org                      |
|    \\/     M anipulation  |                                                 |
\*---------------------------------------------------------------------------*/
FoamFile
{
    version     2.0;
    format      ascii;
    class       volScalarField;
    location    "100";
    object      p;
}
// * * * * * * * * * * * * * * * * * * * * * * * * * * * * * * * * * * * * * //

dimensions      [1 -1 -2 0 0 0 0];

internalField   nonuniform List<scalar> 
21420
(
3642.67
3624.75
3608.45
3593.81
3580.83
3569.49
3559.74
3551.55
3544.89
3539.71
3535.98
3533.7
3532.88
3533.53
3535.57
3539.06
3544.01
3550.43
3558.37
3567.86
3578.97
3591.74
3606.25
3622.53
3640.62
3660.54
3682.31
3705.92
3731.33
3758.46
3787.24
3817.53
3849.12
3881.78
3915.17
3949.19
3983.48
4017.61
4051.16
4083.76
4114.95
4144.34
4171.51
4196.06
4217.67
4236.04
4250.91
4262.06
4269.36
4272.64
4271.29
4265.9
4256.59
4243.42
4226.62
4206.43
4183.11
4156.98
4128.42
4097.8
4065.53
4032.03
3997.71
3962.98
3928.22
3893.96
3860.89
3828.39
3796.95
3766.83
3738.22
3711.27
3686.07
3662.71
3641.23
3621.64
3603.97
3588.19
3574.28
3562.22
3551.99
3543.57
3536.89
3531.92
3528.65
3527.05
3527
3528.5
3531.52
3536.01
3541.95
3549.31
3558.1
3568.31
3579.97
3593.08
3607.7
3623.84
3641.55
3660.83
3681.71
3704.17
3728.2
3753.73
3780.7
3809.01
3838.51
3869.07
3900.44
3932.41
3964.7
3997.01
4029.03
4060.4
4090.75
4119.7
4146.87
4171.86
4194.29
4213.81
4230.08
4242.8
4251.73
4256.68
4257.44
4254.12
4246.67
4235.13
4219.7
4200.6
4178.11
4152.58
4124.39
4093.96
4061.75
4028.21
3993.8
3958.98
3924.19
3889.84
3856.3
3823.9
3792.9
3763.54
3735.97
3710.32
3686.63
3664.95
3645.25
3627.51
3611.66
3597.63
3585.35
3574.74
3565.71
3558.2
3552.14
3547.45
3544.09
3542.02
3541.21
3541.63
3543.26
3546.11
3550.2
3555.54
3562.17
3570.12
3579.43
3590.16
3602.33
3616
3631.21
3647.99
3666.35
3686.32
3707.88
3731.01
3755.67
3781.79
3809.3
3838.07
3867.96
3898.8
3930.31
3962.24
3994.27
4026.07
4057.27
4087.46
4116.24
4143.18
4167.88
4189.94
4208.98
4224.66
4236.69
4244.81
4248.84
4248.68
4244.32
4235.83
4223.28
4206.92
4187.01
4163.89
4137.95
4109.61
4079.32
4047.54
4014.75
3981.39
3947.89
3914.66
3882.05
3850.38
3819.91
3790.86
3763.38
3737.59
3713.57
3691.37
3670.99
3652.41
3635.62
3620.56
3607.19
3595.44
3585.24
3576.54
3569.27
3563.37
3558.79
3555.47
3553.39
3552.52
3552.85
3554.32
3556.94
3560.71
3565.64
3571.73
3579.02
3587.55
3597.36
3608.52
3621.08
3635.08
3650.58
3667.59
3686.13
3706.2
3727.77
3750.82
3775.3
3801.14
3828.26
3856.51
3885.76
3915.8
3946.46
3977.37
4008.28
4038.85
4068.72
4097.48
4124.75
4150.1
4173.14
4193.47
4210.71
4224.55
4234.7
4240.92
4243.04
4241.11
4234.97
4224.75
4210.58
4192.73
4171.51
4147.3
4120.51
4091.61
4061.06
4029.33
3996.87
3964.16
3931.6
3899.69
3868.74
3838.82
3810.15
3782.97
3757.45
3733.68
3711.73
3691.62
3673.32
3656.8
3642
3628.81
3617.15
3606.9
3597.95
3590.17
3583.47
3577.75
3572.94
3569
3565.92
3563.72
3562.47
3562.26
3563.18
3565.33
3568.86
3573.91
3580.6
3589.02
3599.28
3611.47
3625.64
3641.82
3660.01
3680.19
3702.32
3726.28
3751.95
3779.17
3807.74
3837.42
3867.9
3898.74
3930.08
3961.4
3992.3
4022.44
4051.5
4079.11
4104.97
4128.77
4150.25
4169.16
4185.29
4198.48
4208.6
4215.57
4219.29
4219.64
4216.65
4210.43
4201.13
4188.92
4173.96
4156.52
4136.86
3544.5
3526.58
3510.28
3495.64
3482.66
3471.32
3461.58
3453.39
3446.73
3441.55
3437.82
3435.55
3434.72
3435.37
3437.41
3440.9
3445.85
3452.27
3460.2
3469.7
3480.8
3493.57
3508.08
3524.35
3542.44
3562.36
3584.12
3607.73
3633.14
3660.28
3689.06
3719.35
3750.95
3783.62
3817.02
3851.05
3885.35
3919.5
3953.07
3985.68
4016.9
4046.31
4073.49
4098.06
4119.69
4138.07
4152.95
4164.11
4171.41
4174.71
4173.34
4167.95
4158.63
4145.45
4128.64
4108.43
4085.1
4058.96
4030.37
3999.74
3967.45
3933.93
3899.59
3864.85
3830.08
3795.81
3762.73
3730.22
3698.78
3668.65
3640.04
3613.08
3587.89
3564.53
3543.04
3523.46
3505.79
3490.01
3476.1
3464.05
3453.82
3445.39
3438.72
3433.75
3430.49
3428.89
3428.84
3430.34
3433.36
3437.85
3443.79
3451.15
3459.93
3470.15
3481.8
3494.92
3509.53
3525.67
3543.37
3562.66
3583.53
3606
3630.02
3655.56
3682.53
3710.84
3740.35
3770.91
3802.29
3834.27
3866.57
3898.89
3930.92
3962.31
3992.67
4021.64
4048.83
4073.84
4096.29
4115.83
4132.11
4144.84
4153.78
4158.74
4159.5
4156.17
4148.72
4137.18
4121.73
4102.61
4080.11
4054.56
4026.35
3995.9
3963.67
3930.1
3895.68
3860.84
3826.04
3791.67
3758.13
3725.71
3694.71
3665.35
3637.78
3612.12
3588.44
3566.76
3547.06
3529.32
3513.48
3499.45
3487.18
3476.57
3467.55
3460.04
3453.98
3449.3
3445.93
3443.86
3443.06
3443.48
3445.11
3447.96
3452.04
3457.38
3464.01
3471.96
3481.27
3491.99
3504.16
3517.83
3533.04
3549.81
3568.18
3588.15
3609.71
3632.84
3657.49
3683.62
3711.13
3739.9
3769.8
3800.64
3832.17
3864.11
3896.15
3927.97
3959.18
3989.39
4018.18
4045.15
4069.87
4091.94
4111
4126.69
4138.73
4146.87
4150.9
4150.74
4146.37
4137.88
4125.32
4108.95
4089.02
4065.88
4039.92
4011.56
3981.25
3949.45
3916.64
3883.26
3849.75
3816.5
3783.88
3752.21
3721.73
3692.67
3665.19
3639.4
3615.39
3593.18
3572.8
3554.23
3537.44
3522.39
3509.02
3497.27
3487.08
3478.38
3471.11
3465.22
3460.64
3457.32
3455.24
3454.37
3454.7
3456.17
3458.79
3462.56
3467.49
3473.58
3480.87
3489.39
3499.2
3510.36
3522.92
3536.92
3552.41
3569.43
3587.96
3608.03
3629.6
3652.65
3677.13
3702.98
3730.09
3758.36
3787.61
3817.66
3848.33
3879.25
3910.18
3940.76
3970.64
3999.42
4026.71
4052.08
4075.13
4095.48
4112.74
4126.59
4136.75
4142.98
4145.11
4143.17
4137.03
4126.8
4112.62
4094.76
4073.52
4049.29
4022.49
3993.56
3962.99
3931.24
3898.76
3866.04
3833.46
3801.54
3770.57
3740.65
3711.98
3684.79
3659.27
3635.5
3613.55
3593.44
3575.15
3558.63
3543.83
3530.65
3518.99
3508.75
3499.8
3492.03
3485.33
3479.61
3474.8
3470.86
3467.78
3465.58
3464.33
3464.11
3465.03
3467.17
3470.7
3475.75
3482.43
3490.85
3501.11
3513.29
3527.45
3543.63
3561.82
3582.01
3604.13
3628.1
3653.77
3681
3709.58
3739.26
3769.76
3800.61
3831.96
3863.29
3894.21
3924.37
3953.43
3981.06
4006.93
4030.75
4052.24
4071.16
4087.3
4100.49
4110.63
4117.59
4121.33
4121.67
4118.67
4112.45
4103.14
4090.92
4075.96
4058.5
4038.83
3446.24
3428.33
3412.04
3397.4
3384.43
3373.09
3363.35
3355.17
3348.51
3343.34
3339.61
3337.34
3336.51
3337.16
3339.2
3342.69
3347.64
3354.05
3361.98
3371.47
3382.56
3395.33
3409.83
3426.09
3444.18
3464.09
3485.86
3509.47
3534.88
3562.02
3590.8
3621.1
3652.72
3685.4
3718.83
3752.88
3787.21
3821.39
3854.99
3887.64
3918.89
3948.34
3975.56
4000.16
4021.82
4040.23
4055.13
4066.31
4073.62
4076.95
4075.54
4070.15
4060.82
4047.63
4030.79
4010.55
3987.19
3961.01
3932.39
3901.71
3869.39
3835.84
3801.47
3766.69
3731.9
3697.6
3664.5
3631.98
3600.53
3570.38
3541.77
3514.81
3489.61
3466.26
3444.78
3425.2
3407.53
3391.75
3377.85
3365.8
3355.58
3347.15
3340.48
3335.52
3332.26
3330.66
3330.61
3332.12
3335.14
3339.63
3345.57
3352.93
3361.72
3371.92
3383.58
3396.69
3411.3
3427.43
3445.13
3464.41
3485.28
3507.75
3531.77
3557.31
3584.28
3612.6
3642.12
3672.7
3704.09
3736.09
3768.41
3800.76
3832.82
3864.23
3894.63
3923.64
3950.86
3975.9
3998.39
4017.96
4034.27
4047.03
4055.98
4060.95
4061.73
4058.39
4050.93
4039.36
4023.89
4004.75
3982.21
3956.62
3928.37
3897.88
3865.61
3832.01
3797.54
3762.67
3727.84
3693.45
3659.88
3627.45
3596.44
3567.06
3539.49
3513.83
3490.15
3468.48
3448.79
3431.06
3415.22
3401.2
3388.94
3378.33
3369.32
3361.82
3355.76
3351.08
3347.73
3345.66
3344.86
3345.28
3346.9
3349.75
3353.83
3359.17
3365.8
3373.74
3383.05
3393.77
3405.93
3419.6
3434.8
3451.57
3469.93
3489.9
3511.46
3534.59
3559.25
3585.37
3612.89
3641.67
3671.58
3702.44
3733.98
3765.94
3798.02
3829.87
3861.11
3891.35
3920.19
3947.19
3971.94
3994.06
4013.14
4028.87
4040.93
4049.08
4053.14
4052.96
4048.59
4040.08
4027.5
4011.1
3991.14
3967.97
3941.96
3913.56
3883.21
3851.38
3818.53
3785.11
3751.57
3718.3
3685.66
3653.96
3623.48
3594.41
3566.92
3541.13
3517.12
3494.92
3474.54
3455.97
3439.19
3424.14
3410.78
3399.04
3388.85
3380.16
3372.9
3367.01
3362.43
3359.12
3357.04
3356.18
3356.5
3357.97
3360.6
3364.37
3369.29
3375.38
3382.66
3391.18
3400.99
3412.14
3424.69
3438.69
3454.18
3471.19
3489.73
3509.79
3531.36
3554.42
3578.9
3604.75
3631.87
3660.14
3689.41
3719.47
3750.16
3781.11
3812.06
3842.68
3872.59
3901.41
3928.73
3954.14
3977.22
3997.61
4014.9
4028.77
4038.96
4045.2
4047.35
4045.39
4039.25
4029.01
4014.8
3996.91
3975.64
3951.37
3924.53
3895.57
3864.95
3833.16
3800.65
3767.89
3735.28
3703.34
3672.35
3642.41
3613.73
3586.54
3561.01
3537.24
3515.29
3495.18
3476.89
3460.39
3445.59
3432.43
3420.78
3410.54
3401.6
3393.84
3387.15
3381.44
3376.63
3372.7
3369.62
3367.41
3366.15
3365.93
3366.83
3368.97
3372.48
3377.52
3384.19
3392.6
3402.85
3415.03
3429.19
3445.36
3463.55
3483.74
3505.87
3529.84
3555.52
3582.76
3611.35
3641.05
3671.57
3702.44
3733.82
3765.17
3796.12
3826.31
3855.41
3883.07
3908.96
3932.81
3954.32
3973.26
3989.42
4002.63
4012.77
4019.75
4023.49
4023.81
4020.81
4014.58
4005.26
3993.02
3978.04
3960.56
3940.87
3347.91
3330.01
3313.72
3299.09
3286.13
3274.8
3265.06
3256.89
3250.23
3245.07
3241.34
3239.07
3238.24
3238.88
3240.93
3244.42
3249.36
3255.77
3263.69
3273.17
3284.26
3297.01
3311.5
3327.76
3345.84
3365.75
3387.51
3411.12
3436.53
3463.67
3492.47
3522.78
3554.41
3587.12
3620.58
3654.67
3689.04
3723.27
3756.92
3789.63
3820.94
3850.43
3877.71
3902.36
3924.07
3942.52
3957.45
3968.66
3975.99
3979.35
3977.91
3972.5
3963.15
3949.93
3933.06
3912.78
3889.37
3863.13
3834.46
3803.73
3771.35
3737.75
3703.33
3668.51
3633.68
3599.35
3566.21
3533.67
3502.2
3472.04
3443.42
3416.46
3391.26
3367.9
3346.42
3326.85
3309.19
3293.41
3279.52
3267.47
3257.26
3248.84
3242.17
3237.22
3233.97
3232.37
3232.33
3233.84
3236.86
3241.35
3247.29
3254.66
3263.44
3273.64
3285.29
3298.4
3313
3329.13
3346.82
3366.09
3386.96
3409.42
3433.45
3458.99
3485.97
3514.3
3543.83
3574.43
3605.85
3637.87
3670.23
3702.62
3734.72
3766.18
3796.63
3825.68
3852.96
3878.06
3900.6
3920.21
3936.57
3949.36
3958.34
3963.32
3964.13
3960.76
3953.29
3941.7
3926.19
3907
3884.41
3858.76
3830.46
3799.91
3767.57
3733.91
3699.39
3664.47
3629.59
3595.16
3561.56
3529.11
3498.08
3468.69
3441.11
3415.45
3391.78
3370.11
3350.43
3332.71
3316.88
3302.88
3290.63
3280.03
3271.03
3263.54
3257.49
3252.82
3249.47
3247.41
3246.61
3247.03
3248.65
3251.5
3255.58
3260.91
3267.53
3275.47
3284.77
3295.48
3307.64
3321.3
3336.49
3353.26
3371.62
3391.58
3413.13
3436.26
3460.93
3487.06
3514.58
3543.38
3573.3
3604.18
3635.76
3667.75
3699.87
3731.76
3763.05
3793.35
3822.24
3849.3
3874.11
3896.28
3915.41
3931.18
3943.28
3951.45
3955.53
3955.35
3950.97
3942.44
3929.83
3913.38
3893.38
3870.14
3844.08
3815.62
3785.2
3753.31
3720.41
3686.94
3653.35
3620.04
3587.37
3555.65
3525.14
3496.06
3468.57
3442.78
3418.77
3396.57
3376.2
3357.64
3340.86
3325.83
3312.47
3300.74
3290.57
3281.88
3274.63
3268.75
3264.18
3260.87
3258.79
3257.94
3258.26
3259.73
3262.35
3266.13
3271.05
3277.13
3284.41
3292.92
3302.72
3313.87
3326.41
3340.4
3355.89
3372.89
3391.42
3411.49
3433.06
3456.11
3480.6
3506.46
3533.59
3561.88
3591.16
3621.25
3651.96
3682.95
3713.94
3744.6
3774.56
3803.43
3830.81
3856.27
3879.41
3899.84
3917.18
3931.1
3941.32
3947.59
3949.75
3947.78
3941.63
3931.36
3917.13
3899.19
3877.87
3853.55
3826.64
3797.62
3766.94
3735.09
3702.52
3669.71
3637.06
3605.08
3574.07
3544.1
3515.4
3488.2
3462.66
3438.89
3416.94
3396.84
3378.57
3362.07
3347.29
3334.14
3322.51
3312.29
3303.36
3295.61
3288.93
3283.23
3278.43
3274.49
3271.41
3269.2
3267.93
3267.7
3268.58
3270.7
3274.2
3279.23
3285.88
3294.28
3304.52
3316.69
3330.83
3347
3365.19
3385.38
3407.52
3431.5
3457.19
3484.45
3513.06
3542.79
3573.34
3604.24
3635.65
3667.05
3698.05
3728.28
3757.42
3785.12
3811.06
3834.95
3856.49
3875.47
3891.65
3904.88
3915.04
3922.03
3925.78
3926.09
3923.07
3916.82
3907.48
3895.23
3880.22
3862.71
3842.99
3249.5
3231.61
3215.33
3200.71
3187.76
3176.44
3166.71
3158.55
3151.9
3146.74
3143.02
3140.75
3139.92
3140.56
3142.6
3146.09
3151.03
3157.43
3165.34
3174.81
3185.88
3198.63
3213.1
3229.35
3247.42
3267.32
3289.07
3312.68
3338.09
3365.24
3394.05
3424.38
3456.04
3488.79
3522.28
3556.42
3590.85
3625.14
3658.87
3691.64
3723.02
3752.6
3779.94
3804.67
3826.44
3844.94
3859.92
3871.15
3878.51
3881.9
3880.45
3875.01
3865.63
3852.38
3835.45
3815.12
3791.64
3765.34
3736.59
3705.79
3673.34
3639.66
3605.17
3570.3
3535.41
3501.04
3467.86
3435.29
3403.79
3373.62
3344.99
3318.02
3292.82
3269.46
3247.99
3228.42
3210.76
3195
3181.11
3169.08
3158.87
3150.46
3143.8
3138.85
3135.62
3134.01
3133.98
3135.5
3138.52
3143.02
3148.96
3156.32
3165.1
3175.3
3186.94
3200.04
3214.63
3230.75
3248.44
3267.7
3288.57
3311.02
3335.05
3360.6
3387.59
3415.93
3445.48
3476.1
3507.56
3539.62
3572.02
3604.46
3636.62
3668.14
3698.65
3727.78
3755.12
3780.3
3802.91
3822.59
3839
3851.84
3860.86
3865.86
3866.69
3863.31
3855.81
3844.19
3828.63
3809.38
3786.72
3761
3732.61
3701.98
3669.56
3635.82
3601.23
3566.24
3531.3
3496.82
3463.17
3430.68
3399.63
3370.23
3342.64
3316.98
3293.31
3271.65
3251.99
3234.28
3218.47
3204.49
3192.25
3181.67
3172.68
3165.2
3159.16
3154.5
3151.16
3149.11
3148.31
3148.73
3150.35
3153.2
3157.27
3162.6
3169.21
3177.14
3186.44
3197.14
3209.29
3222.94
3238.12
3254.88
3273.23
3293.19
3314.74
3337.87
3362.54
3388.67
3416.21
3445.02
3474.97
3505.88
3537.49
3569.54
3601.71
3633.66
3665.02
3695.39
3724.35
3751.48
3776.37
3798.61
3817.81
3833.63
3845.78
3853.99
3858.08
3857.91
3853.52
3844.95
3832.3
3815.8
3795.72
3772.42
3746.27
3717.73
3687.23
3655.26
3622.28
3588.75
3555.1
3521.74
3489.02
3457.27
3426.74
3397.64
3370.14
3344.34
3320.33
3298.14
3277.77
3259.23
3242.46
3227.44
3214.1
3202.38
3192.22
3183.55
3176.31
3170.43
3165.87
3162.57
3160.5
3159.65
3159.97
3161.44
3164.07
3167.84
3172.76
3178.84
3186.11
3194.61
3204.4
3215.53
3228.07
3242.05
3257.53
3274.53
3293.06
3313.11
3334.69
3357.74
3382.24
3408.1
3435.25
3463.55
3492.86
3522.98
3553.73
3584.77
3615.81
3646.53
3676.55
3705.5
3732.95
3758.48
3781.7
3802.2
3819.6
3833.57
3843.83
3850.13
3852.31
3850.33
3844.17
3833.87
3819.59
3801.6
3780.21
3755.81
3728.83
3699.72
3668.96
3637.03
3604.39
3571.51
3538.8
3506.78
3475.73
3445.72
3417
3389.78
3364.23
3340.46
3318.52
3298.43
3280.16
3263.68
3248.92
3235.79
3224.18
3213.98
3205.07
3197.34
3190.68
3184.99
3180.19
3176.26
3173.17
3170.95
3169.67
3169.42
3170.28
3172.39
3175.87
3180.87
3187.5
3195.88
3206.11
3218.26
3232.4
3248.56
3266.75
3286.94
3309.08
3333.07
3358.78
3386.06
3414.71
3444.47
3475.07
3506
3537.47
3568.92
3599.97
3630.26
3659.46
3687.23
3713.23
3737.16
3758.76
3777.77
3793.99
3807.25
3817.43
3824.43
3828.2
3828.5
3825.45
3819.18
3809.82
3797.53
3782.48
3764.94
3745.17
3151.02
3133.14
3116.87
3102.26
3089.32
3078.01
3068.3
3060.14
3053.5
3048.35
3044.64
3042.38
3041.54
3042.18
3044.22
3047.71
3052.64
3059.03
3066.92
3076.38
3087.44
3100.17
3114.63
3130.86
3148.92
3168.81
3190.56
3214.16
3239.57
3266.73
3295.56
3325.91
3357.6
3390.39
3423.93
3458.13
3492.63
3527.01
3560.82
3593.68
3625.16
3654.83
3682.26
3707.07
3728.92
3747.49
3762.52
3773.8
3781.18
3784.58
3783.14
3777.68
3768.26
3754.96
3737.97
3717.57
3694.01
3667.61
3638.78
3607.88
3575.34
3541.57
3507.01
3472.06
3437.11
3402.67
3369.45
3336.83
3305.31
3275.12
3246.47
3219.49
3194.29
3170.93
3149.47
3129.91
3112.26
3096.51
3082.63
3070.6
3060.41
3052.01
3045.36
3040.42
3037.19
3035.6
3035.57
3037.1
3040.13
3044.63
3050.57
3057.93
3066.71
3076.9
3088.53
3101.62
3116.2
3132.31
3149.98
3169.24
3190.1
3212.55
3236.58
3262.13
3289.14
3317.49
3347.07
3377.72
3409.22
3441.33
3473.78
3506.29
3538.52
3570.11
3600.71
3629.93
3657.36
3682.62
3705.32
3725.08
3741.56
3754.46
3763.53
3768.56
3769.4
3766.02
3758.48
3746.82
3731.2
3711.87
3689.13
3663.31
3634.82
3604.09
3571.57
3537.74
3503.05
3467.98
3432.96
3398.41
3364.71
3332.18
3301.09
3271.67
3244.08
3218.42
3194.75
3173.11
3153.46
3135.77
3119.98
3106.02
3093.8
3083.24
3074.27
3066.81
3060.78
3056.13
3052.8
3050.76
3049.96
3050.38
3052.01
3054.85
3058.92
3064.24
3070.84
3078.76
3088.04
3098.73
3110.87
3124.51
3139.68
3156.43
3174.77
3194.72
3216.28
3239.41
3264.07
3290.22
3317.76
3346.6
3376.57
3407.52
3439.18
3471.29
3503.53
3535.55
3567
3597.46
3626.51
3653.74
3678.72
3701.05
3720.33
3736.23
3748.43
3756.68
3760.8
3760.64
3756.23
3747.62
3734.92
3718.35
3698.19
3674.78
3648.54
3619.89
3589.3
3557.23
3524.15
3490.54
3456.81
3423.39
3390.62
3358.82
3328.26
3299.14
3271.62
3245.82
3221.81
3199.62
3179.27
3160.74
3143.99
3128.98
3115.66
3103.96
3093.81
3085.16
3077.93
3072.06
3067.51
3064.22
3062.16
3061.31
3061.64
3063.11
3065.74
3069.51
3074.42
3080.49
3087.76
3096.25
3106.02
3117.14
3129.66
3143.64
3159.1
3176.09
3194.62
3214.68
3236.25
3259.31
3283.81
3309.68
3336.85
3365.17
3394.51
3424.68
3455.47
3486.56
3517.67
3548.47
3578.57
3607.6
3635.14
3660.77
3684.08
3704.66
3722.14
3736.18
3746.49
3752.83
3755.03
3753.06
3746.87
3736.53
3722.2
3704.13
3682.66
3658.16
3631.08
3601.87
3571.01
3538.98
3506.24
3473.28
3440.5
3408.43
3377.32
3347.28
3318.52
3291.28
3265.73
3241.95
3220.01
3199.93
3181.68
3165.22
3150.48
3137.37
3125.79
3115.61
3106.73
3099.03
3092.38
3086.7
3081.92
3077.99
3074.9
3072.67
3071.37
3071.1
3071.93
3074.01
3077.47
3082.45
3089.06
3097.41
3107.62
3119.75
3133.88
3150.04
3168.22
3188.41
3210.56
3234.57
3260.3
3287.61
3316.29
3346.1
3376.75
3407.72
3439.26
3470.79
3501.91
3532.27
3561.55
3589.39
3615.46
3639.46
3661.12
3680.18
3696.44
3709.74
3719.94
3726.97
3730.74
3731.03
3727.96
3721.65
3712.26
3699.93
3684.84
3667.25
3647.43
3052.46
3034.59
3018.34
3003.74
2990.82
2979.52
2969.82
2961.68
2955.05
2949.91
2946.21
2943.95
2943.11
2943.74
2945.79
2949.27
2954.19
2960.56
2968.45
2977.89
2988.93
3001.64
3016.08
3032.3
3050.34
3070.22
3091.96
3115.56
3140.97
3168.14
3196.98
3227.36
3259.09
3291.93
3325.53
3359.8
3394.39
3428.86
3462.78
3495.75
3527.34
3557.12
3584.67
3609.58
3631.52
3650.18
3665.27
3676.6
3684.01
3687.42
3685.98
3680.49
3671.04
3657.68
3640.62
3620.12
3596.47
3569.97
3541.02
3510.01
3477.36
3443.49
3408.83
3373.79
3338.77
3304.26
3270.97
3238.31
3206.75
3176.53
3147.87
3120.88
3095.67
3072.32
3050.86
3031.31
3013.67
2997.93
2984.07
2972.06
2961.87
2953.48
2946.85
2941.93
2938.7
2937.12
2937.11
2938.64
2941.67
2946.18
2952.12
2959.48
2968.26
2978.45
2990.07
3003.14
3017.71
3033.8
3051.46
3070.71
3091.56
3114.01
3138.04
3163.59
3190.61
3218.99
3248.6
3279.28
3310.83
3343
3375.52
3408.1
3440.42
3472.11
3502.8
3532.12
3559.66
3585.03
3607.83
3627.69
3644.26
3657.24
3666.36
3671.42
3672.28
3668.89
3661.32
3649.6
3633.91
3614.49
3591.64
3565.71
3537.1
3506.25
3473.61
3439.65
3404.86
3369.68
3334.57
3299.95
3266.18
3233.6
3202.47
3173.03
3145.42
3119.76
3096.11
3074.47
3054.85
3037.18
3021.42
3007.48
2995.29
2984.75
2975.8
2968.35
2962.35
2957.71
2954.39
2952.36
2951.57
2951.99
2953.61
2956.45
2960.51
2965.83
2972.42
2980.33
2989.6
3000.27
3012.39
3026.02
3041.18
3057.91
3076.25
3096.19
3117.74
3140.87
3165.54
3191.69
3219.25
3248.11
3278.12
3309.11
3340.84
3373.01
3405.33
3437.45
3468.99
3499.56
3528.73
3556.07
3581.16
3603.59
3622.98
3638.96
3651.23
3659.54
3663.68
3663.53
3659.1
3650.45
3637.68
3621.02
3600.76
3577.25
3550.88
3522.11
3491.39
3459.2
3426.02
3392.3
3358.48
3324.98
3292.14
3260.3
3229.7
3200.55
3173.02
3147.22
3123.21
3101.03
3080.69
3062.17
3045.44
3030.45
3017.15
3005.47
2995.34
2986.71
2979.49
2973.65
2969.11
2965.83
2963.78
2962.93
2963.26
2964.74
2967.36
2971.13
2976.04
2982.1
2989.35
2997.83
3007.59
3018.7
3031.2
3045.16
3060.61
3077.6
3096.11
3116.17
3137.74
3160.8
3185.31
3211.2
3238.38
3266.74
3296.11
3326.33
3357.17
3388.34
3419.53
3450.41
3480.62
3509.75
3537.4
3563.14
3586.55
3607.24
3624.82
3638.94
3649.31
3655.7
3657.92
3655.95
3649.74
3639.35
3624.95
3606.79
3585.22
3560.61
3533.41
3504.08
3473.09
3440.94
3408.09
3375.02
3342.15
3310.02
3278.85
3248.76
3219.97
3192.7
3167.13
3143.36
3121.43
3101.36
3083.13
3066.69
3051.98
3038.9
3027.34
3017.2
3008.35
3000.67
2994.05
2988.39
2983.62
2979.69
2976.59
2974.35
2973.03
2972.73
2973.53
2975.59
2979.02
2983.96
2990.54
2998.87
3009.05
3021.17
3035.28
3051.42
3069.6
3089.8
3111.96
3135.98
3161.74
3189.08
3217.81
3247.68
3278.39
3309.41
3341.03
3372.64
3403.85
3434.3
3463.67
3491.6
3517.75
3541.84
3563.57
3582.69
3599.01
3612.34
3622.58
3629.62
3633.41
3633.68
3630.58
3624.24
3614.81
3602.44
3587.3
3569.64
3549.76
2953.82
2935.96
2919.73
2905.15
2892.25
2880.97
2871.28
2863.15
2856.54
2851.4
2847.72
2845.46
2844.62
2845.25
2847.3
2850.77
2855.68
2862.04
2869.91
2879.33
2890.35
2903.04
2917.46
2933.65
2951.67
2971.54
2993.27
3016.87
3042.29
3069.47
3098.33
3128.74
3160.51
3193.41
3227.07
3261.44
3296.13
3330.71
3364.75
3397.85
3429.57
3459.48
3487.15
3512.19
3534.24
3552.99
3568.16
3579.55
3587
3590.41
3588.98
3583.47
3573.96
3560.53
3543.39
3522.79
3499.02
3472.4
3443.32
3412.18
3379.4
3345.41
3310.63
3275.49
3240.38
3205.79
3172.42
3139.72
3108.12
3077.87
3049.18
3022.18
2996.97
2973.63
2952.17
2932.63
2915.01
2899.28
2885.43
2873.43
2863.26
2854.89
2848.27
2843.36
2840.15
2838.57
2838.58
2840.12
2843.16
2847.67
2853.62
2860.98
2869.75
2879.93
2891.54
2904.6
2919.15
2935.23
2952.87
2972.11
2992.95
3015.39
3039.42
3064.99
3092.02
3120.42
3150.06
3180.79
3212.4
3244.63
3277.23
3309.9
3342.32
3374.12
3404.93
3434.37
3462.03
3487.53
3510.45
3530.43
3547.1
3560.16
3569.35
3574.45
3575.33
3571.93
3564.32
3552.53
3536.76
3517.23
3494.26
3468.2
3439.45
3408.45
3375.67
3341.57
3306.65
3271.35
3236.13
3201.42
3167.58
3134.93
3103.77
3074.29
3046.67
3021.01
2997.37
2975.75
2956.15
2938.51
2922.78
2908.87
2896.7
2886.2
2877.27
2869.85
2863.86
2859.24
2855.93
2853.91
2853.12
2853.55
2855.17
2858
2862.06
2867.36
2873.94
2881.84
2891.09
2901.74
2913.85
2927.46
2942.6
2959.33
2977.65
2997.58
3019.13
3042.26
3066.93
3093.1
3120.68
3149.56
3179.61
3210.66
3242.45
3274.7
3307.12
3339.34
3371
3401.69
3431
3458.47
3483.7
3506.25
3525.75
3541.84
3554.19
3562.55
3566.73
3566.59
3562.14
3553.44
3540.59
3523.83
3503.45
3479.81
3453.3
3424.38
3393.52
3361.19
3327.88
3294.04
3260.12
3226.52
3193.61
3161.7
3131.06
3101.89
3074.34
3048.53
3024.52
3002.35
2982.03
2963.53
2946.82
2931.86
2918.58
2906.92
2896.82
2888.2
2881.01
2875.17
2870.65
2867.38
2865.34
2864.5
2864.83
2866.31
2868.94
2872.71
2877.61
2883.67
2890.9
2899.36
2909.11
2920.19
2932.67
2946.62
2962.06
2979.03
2997.54
3017.59
3039.17
3062.23
3086.75
3112.65
3139.86
3168.24
3197.66
3227.93
3258.84
3290.09
3321.37
3352.36
3382.68
3411.94
3439.72
3465.59
3489.13
3509.94
3527.62
3541.83
3552.28
3558.72
3560.98
3559.01
3552.76
3542.32
3527.84
3509.58
3487.89
3463.15
3435.81
3406.33
3375.2
3342.91
3309.93
3276.74
3243.77
3211.56
3180.32
3150.17
3121.33
3094.04
3068.46
3044.68
3022.76
3002.7
2984.5
2968.09
2953.4
2940.36
2928.84
2918.73
2909.92
2902.27
2895.68
2890.04
2885.28
2881.35
2878.25
2876
2874.66
2874.32
2875.09
2877.11
2880.5
2885.41
2891.95
2900.25
2910.4
2922.5
2936.59
2952.72
2970.9
2991.1
3013.27
3037.31
3063.1
3090.49
3119.27
3149.19
3179.98
3211.07
3242.77
3274.49
3305.8
3336.35
3365.82
3393.86
3420.11
3444.29
3466.11
3485.31
3501.68
3515.07
3525.34
3532.41
3536.2
3536.46
3533.33
3526.95
3517.47
3505.04
3489.84
3472.12
3452.17
2855.1
2837.27
2821.05
2806.49
2793.61
2782.35
2772.68
2764.57
2757.97
2752.85
2749.17
2746.92
2746.08
2746.71
2748.75
2752.22
2757.11
2763.46
2771.31
2780.7
2791.7
2804.36
2818.76
2834.93
2852.93
2872.78
2894.5
2918.09
2943.52
2970.71
2999.59
3030.04
3061.86
3094.82
3128.57
3163.03
3197.84
3232.55
3266.73
3299.98
3331.84
3361.9
3389.73
3414.9
3437.07
3455.93
3471.19
3482.65
3490.14
3493.56
3492.14
3486.59
3477.03
3463.53
3446.28
3425.57
3401.67
3374.9
3345.68
3314.39
3281.46
3247.33
3212.42
3177.16
3141.95
3107.26
3073.81
3041.05
3009.4
2979.12
2950.41
2923.4
2898.19
2874.84
2853.4
2833.87
2816.26
2800.55
2786.72
2774.74
2764.59
2756.23
2749.62
2744.73
2741.54
2739.97
2739.99
2741.54
2744.59
2749.11
2755.05
2762.42
2771.18
2781.35
2792.94
2805.99
2820.52
2836.58
2854.21
2873.43
2894.26
2916.7
2940.73
2966.3
2993.35
3021.78
3051.47
3082.24
3113.91
3146.22
3178.92
3211.69
3244.22
3276.14
3307.08
3336.66
3364.47
3390.11
3413.18
3433.28
3450.07
3463.23
3472.49
3477.64
3478.54
3475.14
3467.47
3455.62
3439.74
3420.1
3396.98
3370.77
3341.86
3310.69
3277.75
3243.5
3208.42
3172.99
3137.65
3102.83
3068.9
3036.19
3004.97
2975.47
2947.83
2922.17
2898.54
2876.94
2857.37
2839.76
2824.06
2810.18
2798.05
2787.57
2778.68
2771.28
2765.31
2760.71
2757.43
2755.41
2754.63
2755.06
2756.68
2759.51
2763.56
2768.85
2775.41
2783.29
2792.52
2803.16
2815.25
2828.84
2843.96
2860.67
2878.98
2898.9
2920.44
2943.57
2968.25
2994.43
3022.03
3050.95
3081.04
3112.15
3144.02
3176.37
3208.89
3241.23
3273.03
3303.87
3333.32
3360.95
3386.32
3409.02
3428.65
3444.86
3457.3
3465.74
3469.95
3469.83
3465.35
3456.58
3443.65
3426.77
3406.26
3382.46
3355.79
3326.71
3295.68
3263.19
3229.73
3195.75
3161.71
3128.01
3095.01
3063.04
3032.35
3003.14
2975.58
2949.76
2925.75
2903.6
2883.29
2864.81
2848.12
2833.19
2819.94
2808.3
2798.23
2789.63
2782.46
2776.65
2772.14
2768.89
2766.86
2766.03
2766.36
2767.85
2770.47
2774.24
2779.14
2785.18
2792.4
2800.85
2810.57
2821.63
2834.09
2848.01
2863.44
2880.4
2898.9
2918.95
2940.52
2963.59
2988.12
3014.04
3041.27
3069.69
3099.16
3129.49
3160.48
3191.82
3223.21
3254.32
3284.77
3314.17
3342.09
3368.11
3391.8
3412.74
3430.56
3444.88
3455.41
3461.92
3464.21
3462.23
3455.96
3445.45
3430.88
3412.5
3390.67
3365.78
3338.28
3308.64
3277.34
3244.89
3211.75
3178.42
3145.34
3113.04
3081.73
3051.51
3022.62
2995.3
2969.7
2945.92
2924
2903.97
2885.79
2869.41
2854.76
2841.75
2830.28
2820.21
2811.44
2803.83
2797.26
2791.65
2786.9
2782.98
2779.87
2777.61
2776.24
2775.87
2776.6
2778.58
2781.93
2786.79
2793.3
2801.56
2811.67
2823.74
2837.82
2853.94
2872.11
2892.31
2914.49
2938.56
2964.39
2991.82
3020.66
3050.66
3081.52
3112.69
3144.5
3176.32
3207.76
3238.43
3268.02
3296.17
3322.54
3346.83
3368.74
3388.02
3404.47
3417.91
3428.22
3435.32
3439.13
3439.37
3436.2
3429.77
3420.24
3407.75
3392.48
3374.68
3354.64
2756.31
2738.49
2722.3
2707.77
2694.9
2683.66
2674.02
2665.92
2659.34
2654.23
2650.57
2648.32
2647.48
2648.11
2650.15
2653.61
2658.49
2664.82
2672.64
2682.01
2692.98
2705.62
2719.99
2736.13
2754.11
2773.94
2795.65
2819.23
2844.66
2871.87
2900.77
2931.26
2963.14
2996.18
3030.01
3064.59
3099.53
3134.39
3168.72
3202.13
3234.16
3264.39
3292.38
3317.71
3340.02
3359.01
3374.37
3385.9
3393.43
3396.88
3395.45
3389.87
3380.25
3366.66
3349.3
3328.46
3304.41
3277.48
3248.09
3216.63
3183.54
3149.25
3114.19
3078.79
3043.47
3008.68
2975.14
2942.32
2910.61
2880.29
2851.55
2824.53
2799.31
2775.97
2754.54
2735.03
2717.43
2701.74
2687.93
2675.97
2665.83
2657.49
2650.9
2646.03
2642.86
2641.31
2641.33
2642.9
2645.96
2650.48
2656.43
2663.8
2672.56
2682.72
2694.29
2707.32
2721.83
2737.87
2755.48
2774.68
2795.5
2817.93
2841.96
2867.55
2894.62
2923.08
2952.8
2983.63
3015.38
3047.78
3080.57
3113.46
3146.11
3178.18
3209.27
3239.01
3266.98
3292.78
3316
3336.26
3353.18
3366.46
3375.8
3381
3381.92
3378.51
3370.79
3358.85
3342.87
3323.08
3299.81
3273.42
3244.33
3212.98
3179.85
3145.42
3110.17
3074.59
3039.11
3004.17
2970.14
2937.36
2906.09
2876.55
2848.9
2823.24
2799.62
2778.04
2758.5
2740.93
2725.26
2711.43
2699.33
2688.89
2680.02
2672.65
2666.71
2662.14
2658.87
2656.86
2656.09
2656.52
2658.14
2660.97
2665
2670.28
2676.83
2684.69
2693.9
2704.52
2716.58
2730.15
2745.26
2761.94
2780.24
2800.15
2821.69
2844.81
2869.5
2895.69
2923.31
2952.26
2982.41
3013.58
3045.54
3078
3110.64
3143.12
3175.07
3206.07
3235.69
3263.49
3289.04
3311.9
3331.68
3348.02
3360.57
3369.08
3373.34
3373.23
3368.72
3359.88
3346.85
3329.85
3309.18
3285.21
3258.36
3229.09
3197.87
3165.21
3131.57
3097.44
3063.26
3029.44
2996.35
2964.3
2933.55
2904.31
2876.72
2850.9
2826.9
2804.75
2784.46
2766.01
2749.35
2734.45
2721.23
2709.62
2699.58
2691.01
2683.87
2678.08
2673.59
2670.35
2668.33
2667.5
2667.84
2669.33
2671.96
2675.72
2680.61
2686.65
2693.85
2702.27
2711.97
2723
2735.44
2749.35
2764.76
2781.7
2800.2
2820.24
2841.81
2864.88
2889.42
2915.36
2942.62
2971.08
3000.61
3031.01
3062.08
3093.52
3125.03
3156.28
3186.88
3216.43
3244.52
3270.71
3294.56
3315.66
3333.62
3348.07
3358.7
3365.27
3367.61
3365.63
3359.31
3348.73
3334.06
3315.55
3293.57
3268.5
3240.82
3210.99
3179.51
3146.87
3113.57
3080.08
3046.86
3014.48
2983.07
2952.77
2923.83
2896.48
2870.86
2847.08
2825.17
2805.15
2787
2770.66
2756.05
2743.09
2731.66
2721.64
2712.91
2705.34
2698.82
2693.23
2688.5
2684.58
2681.47
2679.18
2677.78
2677.37
2678.05
2679.99
2683.3
2688.11
2694.57
2702.79
2712.87
2724.91
2738.96
2755.07
2773.23
2793.43
2815.63
2839.73
2865.59
2893.07
2921.98
2952.06
2983.02
3014.27
3046.2
3078.15
3109.72
3140.52
3170.25
3198.53
3225.04
3249.45
3271.47
3290.85
3307.37
3320.87
3331.23
3338.36
3342.19
3342.4
3339.19
3332.71
3323.12
3310.56
3295.21
3277.32
3257.19
2657.44
2639.64
2623.48
2608.97
2596.13
2584.91
2575.29
2567.21
2560.65
2555.56
2551.9
2549.67
2548.83
2549.46
2551.5
2554.94
2559.81
2566.12
2573.92
2583.26
2594.2
2606.8
2621.14
2637.26
2655.21
2675.02
2696.71
2720.29
2745.72
2772.94
2801.88
2832.41
2864.35
2897.47
2931.4
2966.1
3001.19
3036.21
3070.71
3104.31
3136.53
3166.94
3195.12
3220.62
3243.09
3262.21
3277.69
3289.3
3296.89
3300.34
3298.93
3293.31
3283.61
3269.93
3252.45
3231.46
3207.24
3180.14
3150.56
3118.92
3085.64
3051.17
3015.94
2980.4
2944.94
2910.04
2876.41
2843.5
2811.74
2781.37
2752.61
2725.57
2700.35
2677.02
2655.59
2636.1
2618.53
2602.85
2589.06
2577.12
2567.01
2558.69
2552.12
2547.27
2544.11
2542.58
2542.62
2544.2
2547.27
2551.8
2557.76
2565.12
2573.87
2584.02
2595.58
2608.59
2623.07
2639.09
2656.67
2675.86
2696.66
2719.09
2743.12
2768.72
2795.81
2824.3
2854.08
2884.97
2916.8
2949.29
2982.2
3015.22
3048.01
3080.23
3111.49
3141.4
3169.55
3195.54
3218.94
3239.36
3256.43
3269.83
3279.27
3284.53
3285.47