/*--------------------------------*- C++ -*----------------------------------*\
| =========                 |                                                 |
| \\      /  F ield         | OpenFOAM: The Open Source CFD Toolbox           |
|  \\    /   O peration     | Version:  3.0.1                                 |
|   \\  /    A nd           | Web:      www.OpenFOAM.org                      |
|    \\/     M anipulation  |                                                 |
\*---------------------------------------------------------------------------*/
FoamFile
{
    version     2.0;
    format      ascii;
    class       volScalarField;
    location    "42.8";
    object      p_rgh;
}
// * * * * * * * * * * * * * * * * * * * * * * * * * * * * * * * * * * * * * //

dimensions      [1 -1 -2 0 0 0 0];

internalField   nonuniform List<scalar> 
21420
(
377.25
393.591
406.212
415.001
419.896
420.648
417.257
409.867
398.616
383.579
364.975
343.076
318.229
290.766
261.084
229.562
196.627
162.734
128.284
93.7083
59.391
25.7971
-6.6119
-38.3318
-68.9073
-98.0924
-125.728
-151.684
-175.888
-198.292
-218.87
-237.627
-254.586
-269.779
-283.25
-295.047
-305.218
-313.815
-320.879
-326.45
-330.561
-333.224
-334.424
-334.136
-332.42
-329.197
-324.455
-318.179
-310.318
-300.84
-289.723
-276.919
-262.402
-246.148
-228.133
-208.363
-186.845
-163.579
-138.614
-112.028
-83.884
-54.3207
-23.5049
8.37881
41.1116
74.4126
107.989
141.498
174.596
206.911
238.066
267.702
295.468
321.015
344.035
364.232
381.344
395.144
405.435
412.063
414.905
413.941
409.118
400.544
388.283
372.524
353.467
331.368
306.533
279.289
249.986
218.999
186.707
153.493
119.734
85.7958
52.0303
18.7644
-13.7
-45.0941
-75.1796
-103.754
-130.649
-155.735
-178.917
-200.135
-219.361
-236.593
-251.859
-265.203
-276.686
-286.379
-294.357
-300.695
-305.464
-308.739
-310.574
-311.005
-310.072
-307.846
-304.328
-299.546
-293.517
-286.255
-277.762
-268.045
-257.112
-244.961
-231.596
-217.015
-201.219
-184.211
-165.989
-146.552
-125.903
-104.046
-80.9936
-56.7673
-31.4063
-4.96801
22.4725
50.9669
80.0423
109.685
139.688
169.8
199.738
229.188
257.817
285.27
311.193
335.226
357.016
376.234
392.573
405.756
415.542
421.743
424.186
422.822
417.603
408.601
395.858
379.562
359.939
337.271
311.894
284.185
254.555
223.436
191.271
158.502
125.555
92.8346
60.7056
29.498
-0.539033
-29.1765
-56.248
-81.6344
-105.26
-127.085
-147.1
-165.324
-181.791
-196.552
-209.671
-221.213
-231.25
-239.86
-247.116
-253.093
-257.866
-261.505
-264.074
-265.637
-266.251
-265.954
-264.768
-262.734
-259.857
-256.133
-251.544
-246.062
-239.644
-232.239
-223.783
-214.21
-203.448
-191.427
-178.068
-163.299
-147.056
-129.276
-109.915
-88.9405
-66.3426
-42.1324
-16.3515
10.9277
39.6018
69.553
100.521
132.29
164.583
197.075
229.401
261.16
291.926
321.253
348.689
373.787
396.116
415.275
430.908
442.718
450.478
454.025
453.221
448.175
438.962
425.686
408.621
388.07
364.389
337.985
309.291
278.754
246.83
213.965
180.583
147.087
113.839
81.163
49.3419
18.6029
-10.8689
-38.9218
-65.4483
-90.3722
-113.647
-135.25
-155.173
-173.424
-190.025
-205.012
-218.414
-230.267
-240.601
-249.447
-256.822
-262.747
-267.238
-270.309
-271.915
-272.025
-270.931
-268.414
-264.385
-258.786
-251.549
-242.578
-231.807
-219.166
-204.589
-188.039
-169.491
-148.892
-126.316
-101.802
-75.4864
-47.5056
-18.0105
13.3897
52.7125
89.5355
126.243
162.852
199.142
234.582
268.796
301.256
331.487
359.113
383.698
404.865
422.338
435.824
445.121
450.029
450.579
447.563
440.304
428.824
413.424
394.241
371.55
345.613
316.803
285.581
252.334
217.507
181.595
144.985
108.082
71.2331
34.8225
6.22811
-27.9656
-60.723
-91.7776
-120.996
-148.263
-173.505
-196.686
-217.78
-236.793
-253.735
-268.635
-281.531
-292.457
-301.452
-308.554
-313.792
-317.232
-318.87
-318.666
-316.591
-312.669
-306.926
-299.344
-289.929
-278.657
-265.525
-250.526
-233.592
-214.682
377.371
393.725
406.356
415.152
420.051
420.816
417.412
410.02
398.76
383.711
365.093
343.178
318.314
290.832
261.132
229.591
196.638
162.728
128.263
93.6729
59.3445
25.7426
-6.67532
-38.402
-68.9827
-98.1715
-125.809
-151.767
-175.97
-198.373
-218.949
-237.704
-254.66
-269.85
-283.319
-295.113
-305.282
-313.876
-320.938
-326.508
-330.617
-333.281
-334.48
-334.195
-332.479
-329.256
-324.516
-318.241
-310.382
-300.906
-289.791
-276.99
-262.475
-246.222
-228.21
-208.441
-186.924
-163.658
-138.692
-112.105
-83.958
-54.3903
-23.5689
8.32231
41.0644
74.3762
107.965
141.488
174.6
206.932
238.102
267.754
295.535
321.098
344.132
364.343
381.466
395.276
405.574
412.207
415.057
414.083
409.259
400.679
388.41
372.639
353.568
331.454
306.603
279.341
250.022
219.017
186.709
153.479
119.704
85.7528
51.9749
18.6983
-13.7754
-45.1771
-75.2688
-103.848
-130.746
-155.834
-179.016
-200.233
-219.458
-236.688
-251.951
-265.292
-276.771
-286.46
-294.435
-300.769
-305.536
-308.808
-310.641
-311.068
-310.136
-307.908
-304.39
-299.607
-293.579
-286.316
-277.823
-268.107
-257.174
-245.024
-231.659
-217.079
-201.284
-184.276
-166.055
-146.619
-125.971
-104.115
-81.0621
-56.8355
-31.4733
-5.03319
22.4097
50.9099
79.9904
109.641
139.652
169.776
199.726
229.19
257.833
285.302
311.241
335.29
357.095
376.328
392.68
405.874
415.669
421.877
424.329
422.958
417.738
408.732
395.98
379.672
360.035
337.351
311.956
284.228
254.579
223.441
191.258
158.471
125.509
92.7751
60.6349
29.4182
-0.625613
-29.2678
-56.3421
-81.7297
-105.355
-127.179
-147.192
-165.413
-181.877
-196.635
-209.75
-221.288
-231.323
-239.929
-247.181
-253.155
-257.926
-261.561
-264.128
-265.689
-266.301
-266.001
-264.815
-262.781
-259.904
-256.18
-251.593
-246.112
-239.697
-232.294
-223.841
-214.271
-203.513
-191.495
-178.139
-163.374
-147.134
-129.357
-109.998
-89.0253
-66.4284
-42.2181
-16.4359
10.8462
39.5251
69.4804
100.457
132.236
164.54
197.047
229.389
261.165
291.95
321.297
348.753
373.871
396.218
415.394
431.043
442.864
450.632
454.19
453.376
448.326
439.107
425.819
408.74
388.171
364.471
338.046
309.332
278.775
246.833
213.95
180.552
147.042
113.782
81.0966
49.2681
18.5233
-10.9525
-39.008
-65.5356
-90.4597
-113.734
-135.335
-155.257
-173.506
-190.105
-205.088
-218.488
-230.339
-240.671
-249.515
-256.888
-262.811
-267.301
-270.37
-271.978
-272.088
-270.997
-268.479
-264.451
-258.855
-251.622
-242.654
-231.886
-219.248
-204.675
-188.128
-169.582
-148.985
-126.408
-101.892
-75.5742
-47.591
-18.0959
13.2981
52.6687
89.4931
126.209
162.831
199.138
234.597
268.83
301.311
331.562
359.208
383.812
404.996
422.483
435.981
445.287
450.205
450.761
447.721
440.46
428.977
413.568
394.37
371.662
345.707
316.877
285.635
252.368
217.522
181.592
144.967
108.051
71.1911
34.7707
6.1463
-28.0552
-60.8148
-91.8707
-121.09
-148.357
-173.599
-196.778
-217.869
-236.88
-253.82
-268.718
-281.611
-292.534
-301.527
-308.628
-313.865
-317.304
-318.937
-318.736
-316.661
-312.739
-306.997
-299.415
-290.002
-278.732
-265.602
-250.605
-233.673
-214.765
377.614
393.994
406.645
415.455
420.36
421.15
417.722
410.327
399.046
383.975
365.329
343.383
318.483
290.965
261.227
229.65
196.66
162.716
128.22
93.602
59.2514
25.6333
-6.8021
-38.5425
-69.1336
-98.3297
-125.972
-151.931
-176.134
-198.535
-219.108
-237.859
-254.81
-269.994
-283.457
-295.246
-305.41
-313.999
-321.058
-326.624
-330.731
-333.395
-334.592
-334.312
-332.595
-329.374
-324.637
-318.366
-310.511
-301.039
-289.928
-277.131
-262.619
-246.371
-228.361
-208.595
-187.08
-163.814
-138.847
-112.257
-84.1043
-54.5278
-23.6951
8.21139
40.972
74.3055
107.919
141.469
174.612
206.974
238.177
267.861
295.674
321.267
344.33
364.567
381.714
395.544
405.857
412.502
415.369
414.373
409.55
400.959
388.674
372.881
353.784
331.641
306.758
279.463
250.11
219.072
186.731
153.47
119.666
85.6872
51.8851
18.5873
-13.9044
-45.3213
-75.4249
-104.013
-130.917
-156.008
-179.192
-200.407
-219.629
-236.854
-252.111
-265.445
-276.918
-286.6
-294.567
-300.895
-305.656
-308.924
-310.752
-311.173
-310.241
-308.011
-304.491
-299.707
-293.679
-286.416
-277.923
-268.208
-257.276
-245.126
-231.763
-217.183
-201.39
-184.384
-166.165
-146.731
-126.084
-104.229
-81.1766
-56.9494
-31.5849
-5.14105
22.3063
50.8185
79.9089
109.574
139.604
169.749
199.724
229.215
257.888
285.387
311.358
335.438
357.275
376.536
392.915
406.131
415.945
422.167
424.638
423.25
418.031
409.014
396.246
379.915
360.25
337.533
312.103
284.338
254.65
223.475
191.255
158.435
125.443
92.682
60.5197
29.2851
-0.771834
-29.4233
-56.5029
-81.8926
-105.517
-127.338
-147.347
-165.563
-182.021
-196.772
-209.881
-221.412
-231.439
-240.038
-247.284
-253.252
-258.016
-261.647
-264.208
-265.765
-266.374
-266.069
-264.883
-262.848
-259.972
-256.25
-251.665
-246.187
-239.777
-232.379
-223.932
-214.369
-203.618
-191.606
-178.258
-163.5
-147.266
-129.495
-110.141
-89.1719
-66.5771
-42.3669
-16.5825
10.7054
39.3932
69.3573
100.35
132.15
164.477
197.011
229.384
261.196
292.017
321.404
348.9
374.058
396.442
415.653
431.33
443.175
450.958
454.527
453.715
448.649
439.414
426.104
408.995
388.392
364.653
338.189
309.434
278.838
246.858
213.939
180.511
146.973
113.69
80.9851
49.1418
18.3856
-11.0983
-39.1586
-65.6886
-90.6132
-113.886
-135.485
-155.404
-173.648
-190.244
-205.222
-218.617
-230.464
-240.792
-249.633
-257.004
-262.924
-267.413
-270.48
-272.089
-272.205
-271.117
-268.598
-264.574
-258.984
-251.758
-242.797
-232.038
-219.407
-204.841
-188.301
-169.759
-149.165
-126.588
-102.068
-75.7457
-47.7579
-18.2632
13.1185
52.584
89.4109
126.142
162.792
199.132
234.628
268.901
301.423
331.715
359.4
384.041
405.258
422.774
436.296
445.62
450.558
451.121
448.04
440.772
429.284
413.855
394.63
371.888
345.895
317.025
285.743
252.437
217.552
181.586
144.93
107.989
71.1074
34.6668
5.98263
-28.2344
-60.9984
-92.0569
-121.278
-148.545
-173.785
-196.961
-218.049
-237.055
-253.99
-268.882
-281.771
-292.689
-301.678
-308.775
-314.011
-317.447
-319.072
-318.876
-316.8
-312.879
-307.138
-299.558
-290.148
-278.881
-265.755
-250.762
-233.834
-214.929
377.979
394.396
407.078
415.91
420.824
421.643
418.192
410.789
399.477
384.371
365.684
343.69
318.738
291.164
261.37
229.738
196.694
162.698
128.156
93.4953
59.1112
25.4695
-6.99236
-38.7533
-69.3602
-98.5672
-126.216
-152.178
-176.381
-198.779
-219.347
-238.091
-255.034
-270.21
-283.664
-295.444
-305.601
-314.184
-321.237
-326.799
-330.901
-333.564
-334.761
-334.487
-332.77
-329.551
-324.818
-318.553
-310.703
-301.238
-290.134
-277.342
-262.836
-246.593
-228.589
-208.827
-187.314
-164.049
-139.08
-112.485
-84.3239
-54.7346
-23.8847
8.04471
40.8331
74.1992
107.85
141.441
174.629
207.038
238.288
268.021
295.882
321.521
344.628
364.904
382.087
395.947
406.284
412.945
415.83
414.816
409.99
401.381
389.071
373.245
354.11
331.924
306.994
279.649
250.245
219.156
186.766
153.458
119.61
85.5916
51.753
18.4236
-14.0954
-45.5349
-75.6565
-104.258
-131.171
-156.267
-179.452
-200.666
-219.883
-237.102
-252.349
-265.673
-277.135
-286.806
-294.763
-301.081
-305.835
-309.094
-310.916
-311.329
-310.398
-308.162
-304.641
-299.856
-293.826
-286.563
-278.071
-268.357
-257.426
-245.278
-231.916
-217.338
-201.548
-184.544
-166.327
-146.895
-126.251
-104.397
-81.3456
-57.1173
-31.7494
-5.29999
22.1534
50.6851
79.7895
109.477
139.535
169.712
199.724
229.256
257.973
285.519
311.537
335.665
357.547
376.853
393.271
406.521
416.363
422.605
425.096
423.7
418.477
409.441
396.648
380.283
360.575
337.81
312.326
284.505
254.76
223.528
191.254
158.383
125.345
92.5451
60.3497
29.0881
-0.988597
-29.6538
-56.7417
-82.1346
-105.758
-127.576
-147.579
-165.786
-182.234
-196.976
-210.074
-221.595
-231.611
-240.201
-247.437
-253.395
-258.151
-261.773
-264.327
-265.878
-266.481
-266.169
-264.983
-262.947
-260.071
-256.352
-251.77
-246.298
-239.895
-232.505
-224.067
-214.514
-203.773
-191.771
-178.433
-163.686
-147.461
-129.699
-110.353
-89.3896
-66.798
-42.5879
-16.8002
10.4961
39.1971
69.1751
100.192
132.021
164.385
196.96
229.38
261.244
292.122
321.567
349.124
374.34
396.781
416.043
431.765
443.645
451.452
455.028
454.231
449.139
439.878
426.535
409.381
388.725
364.93
338.405
309.59
278.935
246.898
213.927
180.451
146.872
113.554
80.8199
48.9543
18.181
-11.3149
-39.3828
-65.9162
-90.8416
-114.113
-135.708
-155.622
-173.861
-190.45
-205.422
-218.81
-230.65
-240.973
-249.81
-257.177
-263.094
-267.58
-270.643
-272.254
-272.382
-271.297
-268.777
-264.759
-259.177
-251.962
-243.013
-232.265
-219.645
-205.091
-188.56
-170.024
-149.436
-126.859
-102.334
-76.0031
-48.0083
-18.5139
12.8484
52.4574
89.2867
126.042
162.729
199.122
234.674
269.008
301.592
331.944
359.689
384.386
405.653
423.212
436.768
446.119
451.084
451.655
448.527
441.245
429.747
414.288
395.019
372.227
346.177
317.248
285.905
252.539
217.596
181.577
144.875
107.896
70.982
34.5121
5.73511
-28.5037
-61.2737
-92.3363
-121.56
-148.827
-174.065
-197.237
-218.319
-237.318
-254.245
-269.129
-282.01
-292.921
-301.904
-308.996
-314.229
-317.66
-319.277
-319.087
-317.009
-313.089
-307.349
-299.773
-290.367
-279.105
-265.985
-250.998
-234.075
-215.175
378.466
394.933
407.657
416.517
421.444
422.288
418.828
411.404
400.051
384.899
366.157
344.1
319.079
291.43
261.561
229.855
196.738
162.674
128.069
93.3527
58.9235
25.2511
-7.24626
-39.0348
-69.6626
-98.8842
-126.542
-152.508
-176.71
-199.104
-219.665
-238.4
-255.332
-270.497
-283.941
-295.71
-305.856
-314.43
-321.475
-327.031
-331.129
-333.788
-334.988
-334.719
-333.003
-329.788
-325.06
-318.802
-310.96
-301.503
-290.408
-277.623
-263.125
-246.89
-228.893
-209.136
-187.625
-164.361
-139.392
-112.79
-84.617
-55.0108
-24.138
7.82207
40.6475
74.057
107.758
141.404
174.651
207.123
238.437
268.235
296.159
321.86
345.024
365.354
382.584
396.484
406.852
413.535
416.432
415.418
410.581
401.945
389.602
373.732
354.545
332.301
307.307
279.896
250.425
219.269
186.814
153.443
119.537
85.4641
51.577
18.2052
-14.3501
-45.8198
-75.9653
-104.585
-131.51
-156.613
-179.8
-201.011
-220.222
-237.431
-252.667
-265.978
-277.425
-287.082
-295.024
-301.33
-306.072
-309.321
-311.132
-311.54
-310.605
-308.364
-304.84
-300.053
-294.023
-286.759
-278.268
-268.556
-257.626
-245.48
-232.119
-217.544
-201.757
-184.756
-166.542
-147.114
-126.473
-104.622
-81.5705
-57.3409
-31.9685
-5.51139
21.9486
50.5086
79.6306
109.349
139.443
169.664
199.724
229.311
258.087
285.695
311.776
335.968
357.912
377.276
393.747
407.042
416.922
423.189
425.697
424.308
419.076
410.014
397.187
380.775
361.011
338.18
312.625
284.728
254.907
223.6
191.254
158.315
125.216
92.3625
60.1228
28.8252
-1.27791
-29.9614
-57.0604
-82.4574
-106.08
-127.892
-147.887
-166.083
-182.52
-197.248
-210.332
-221.839
-231.842
-240.417
-247.64
-253.586
-258.33
-261.941
-264.485
-266.027
-266.623
-266.304
-265.116
-263.079
-260.204
-256.487
-251.91
-246.446
-240.052
-232.672
-224.246
-214.706
-203.979
-191.992
-178.667
-163.934
-147.722
-129.972
-110.636
-89.68
-67.0924
-42.8825
-17.0905
10.2166
38.9345
68.9327
99.982
131.851
164.261
196.891
229.374
261.308
292.261
321.785
349.422
374.718
397.234
416.564
432.346
444.272
452.11
455.698
454.913
449.798
440.5
427.11
409.897
389.171
365.299
338.694
309.798
279.063
246.95
213.91
180.371
146.737
113.372
80.5992
48.7041
17.908
-11.6039
-39.6817
-66.2199
-91.1462
-114.416
-136.006
-155.913
-174.145
-190.726
-205.688
-219.067
-230.898
-241.215
-250.045
-257.408
-263.321
-267.803
-270.862
-272.477
-272.619
-271.533
-269.016
-265.006
-259.436
-252.234
-243.301
-232.569
-219.964
-205.424
-188.906
-170.378
-149.797
-127.22
-102.688
-76.3463
-48.3418
-18.8476
12.4864
52.2896
89.1196
125.907
162.646
199.109
234.736
269.15
301.816
332.25
360.073
384.845
406.179
423.796
437.398
446.786
451.781
452.356
449.194
441.885
430.366
414.864
395.538
372.679
346.554
317.545
286.121
252.674
217.655
181.564
144.801
107.771
70.815
34.3082
5.40107
-28.8636
-61.6408
-92.7089
-121.936
-149.204
-174.439
-197.605
-218.679
-237.669
-254.585
-269.459
-282.329
-293.231
-302.205
-309.291
-314.519
-317.942
-319.553
-319.366
-317.288
-313.368
-307.63
-300.058
-290.659
-279.404
-266.291
-251.312
-234.398
-215.504
379.075
395.605
408.38
417.276
422.224
423.084
419.626
412.17
400.77
385.56
366.748
344.612
319.504
291.762
261.799
230.001
196.793
162.643
127.961
93.1736
58.6874
24.9782
-7.56406
-39.3872
-70.0412
-99.281
-126.95
-152.921
-177.122
-199.511
-220.063
-238.787
-255.706
-270.857
-284.286
-296.041
-306.175
-314.738
-321.774
-327.322
-331.413
-334.067
-335.272
-335.007
-333.294
-330.083
-325.363
-319.113
-311.281
-301.835
-290.75
-277.975
-263.487
-247.262
-229.272
-209.522
-188.015
-164.753
-139.781
-113.171
-84.9838
-55.3567
-24.4551
7.54319
40.4148
73.8787
107.641
141.357
174.678
207.229
238.623
268.501
296.506
322.283
345.52
365.916
383.205
397.156
407.563
414.273
417.179
416.174
411.32
402.652
390.267
374.341
355.089
332.773
307.7
280.205
250.65
219.41
186.873
153.423
119.444
85.3041
51.3561
17.9314
-14.6692
-46.1767
-76.3521
-104.994
-131.935
-157.046
-180.235
-201.443
-220.645
-237.843
-253.064
-266.358
-277.788
-287.426
-295.351
-301.64
-306.369
-309.604
-311.403
-311.804
-310.863
-308.617
-305.088
-300.3
-294.269
-287.005
-278.514
-268.804
-257.876
-245.732
-232.374
-217.802
-202.019
-185.021
-166.812
-147.388
-126.75
-104.902
-81.852
-57.6207
-32.2427
-5.77562
21.6913
50.2881
79.4311
109.187
139.328
169.602
199.724
229.38
258.229
285.915
312.075
336.346
358.368
377.805
394.342
407.694
417.621
423.921
426.446
425.071
419.825
410.731
397.861
381.391
361.555
338.643
312.998
285.007
255.091
223.689
191.252
158.229
125.053
92.1332
59.8382
28.4955
-1.64055
-30.3467
-57.4595
-82.8616
-106.483
-128.289
-148.272
-166.455
-182.876
-197.588
-210.655
-222.144
-232.13
-240.688
-247.895
-253.825
-258.553
-262.151
-264.683
-266.213
-266.8
-266.475
-265.282
-263.244
-260.37
-256.657
-252.086
-246.63
-240.248
-232.882
-224.471
-214.947
-204.237
-192.267
-178.96
-164.244
-148.049
-130.314
-110.989
-90.0434
-67.4608
-43.2514
-17.4539
9.86622
38.6041
68.6303
99.7189
131.636
164.106
196.805
229.367
261.387
292.435
322.057
349.794
375.19
397.8
417.216
433.072
445.058
452.935
456.539
455.76
450.626
441.28
427.831
410.542
389.728
365.761
339.056
310.057
279.223
247.016
213.888
180.271
146.568
113.144
80.3224
48.3908
17.5658
-11.9659
-40.0559
-66.6001
-91.5275
-114.794
-136.378
-156.277
-174.499
-191.07
-206.021
-219.388
-231.209
-241.517
-250.34
-257.696
-263.604
-268.082
-271.138
-272.756
-272.914
-271.828
-269.314
-265.314
-259.759
-252.575
-243.661
-232.948
-220.362
-205.841
-189.339
-170.822
-150.248
-127.672
-103.132
-76.7753
-48.7583
-19.2637
12.0314
52.0819
88.9083
125.736
162.541
199.091
234.813
269.327
302.097
332.632
360.555
385.42
406.838
424.527
438.188
447.619
452.648
453.222
450.038
442.694
431.143
415.586
396.188
373.244
347.024
317.916
286.39
252.843
217.728
181.548
144.707
107.615
70.6067
34.0588
4.97581
-29.3147
-62.0999
-93.1749
-122.406
-149.674
-174.906
-198.065
-219.129
-238.107
-255.01
-269.871
-282.728
-293.618
-302.582
-309.658
-314.88
-318.294
-319.901
-319.715
-317.636
-313.717
-307.982
-300.416
-291.023
-279.777
-266.674
-251.706
-234.801
-215.915
379.806
396.412
409.249
418.19
423.162
424.038
420.581
413.089
401.633
386.354
367.458
345.227
320.014
292.16
262.084
230.175
196.858
162.605
127.83
92.9576
58.4019
24.6511
-7.94607
-39.811
-70.4963
-99.7579
-127.44
-153.416
-177.617
-199.999
-220.541
-239.251
-256.154
-271.288
-284.7
-296.439
-306.557
-315.107
-322.131
-327.67
-331.754
-334.403
-335.612
-335.352
-333.642
-330.437
-325.726
-319.486
-311.666
-302.233
-291.161
-278.397
-263.921
-247.708
-229.728
-209.985
-188.484
-165.223
-140.249
-113.629
-85.4246
-55.7729
-24.8366
7.20769
40.1347
73.6639
107.501
141.3
174.711
207.355
238.845
268.821
296.922
322.791
346.115
366.591
383.952
397.962
408.417
415.159
418.079
417.081
412.207
403.501
391.064
375.072
355.743
333.339
308.17
280.576
250.919
219.578
186.943
153.399
119.332
85.1111
51.0901
17.6018
-15.0532
-46.606
-76.8174
-105.486
-132.445
-157.566
-180.758
-201.962
-221.155
-238.338
-253.542
-266.815
-278.223
-287.839
-295.743
-302.013
-306.724
-309.943
-311.729
-312.122
-311.173
-308.92
-305.387
-300.596
-294.564
-287.299
-278.81
-269.102
-258.177
-246.035
-232.681
-218.112
-202.333
-185.34
-167.136
-147.717
-127.084
-105.239
-82.1902
-57.9568
-32.5724
-6.09263
21.3873
50.0169
79.1904
108.993
139.188
169.528
199.724
229.461
258.399
286.178
312.434
336.8
358.915
378.44
395.056
408.478
418.46
424.801
427.347
425.985
420.724
411.593
398.671
382.131
362.209
339.199
313.446
285.342
255.311
223.796
191.249
158.124
124.856
91.8564
59.4953
28.0986
-2.0771
-30.8103
-57.9394
-83.3478
-106.967
-128.765
-148.736
-166.903
-183.305
-197.997
-211.042
-222.51
-232.476
-241.014
-248.2
-254.112
-258.822
-262.403
-264.92
-266.437
-267.012
-266.68
-265.482
-263.442
-260.569
-256.86
-252.296
-246.852
-240.483
-233.133
-224.741
-215.236
-204.547
-192.597
-179.312
-164.617
-148.441
-130.724
-111.415
-90.4801
-67.9034
-43.695
-17.8908
9.44445
38.2058
68.2669
99.4021
131.378
163.918
196.7
229.356
261.481
292.642
322.384
350.241
375.756
398.48
417.999
433.945
446.001
453.926
457.551
456.775
451.62
442.217
428.696
411.316
390.397
366.314
339.489
310.368
279.415
247.094
213.86
180.149
146.363
112.868
79.989
48.0136
17.154
-12.4011
-40.5057
-67.0571
-91.9856
-115.248
-136.826
-156.714
-174.925
-191.484
-206.42
-219.774
-231.582
-241.879
-250.694
-258.043
-263.944
-268.417
-271.469
-273.093
-273.267
-272.18
-269.671
-265.683
-260.146
-252.983
-244.093
-233.404
-220.84
-206.341
-189.859
-171.355
-150.791
-128.215
-103.666
-77.2902
-49.2571
-19.7612
11.4819
51.8352
88.651
125.529
162.414
199.069
234.904
269.538
302.433
333.09
361.133
386.111
407.629
425.405
439.136
448.621
453.685
454.26
451.056
443.672
432.077
416.454
396.968
373.922
347.589
318.36
286.713
253.046
217.814
181.527
144.592
107.425
70.3573
33.7699
4.45218
-29.8577
-62.6511
-93.7342
-122.97
-150.24
-175.467
-198.617
-219.669
-238.632
-255.521
-270.365
-283.207
-294.083
-303.034
-310.099
-315.313
-318.717
-320.319
-320.134
-318.054
-314.135
-308.404
-300.844
-291.461
-280.225
-267.134
-252.177
-235.285
-216.409
380.659
397.354
410.263
419.257
424.261
425.151
421.692
414.16
402.641
387.281
368.287
345.945
320.61
292.625
262.416
230.377
196.933
162.559
127.675
92.7043
58.0655
24.2702
-8.39273
-40.3065
-71.0284
-100.315
-128.012
-153.996
-178.195
-200.569
-221.099
-239.793
-256.678
-271.791
-285.183
-296.903
-307.004
-315.537
-322.548
-328.077
-332.153
-334.797
-336.007
-335.753
-334.048
-330.85
-326.149
-319.922
-312.116
-302.697
-291.64
-278.889
-264.427
-248.228
-230.26
-210.526
-189.031
-165.772
-140.796
-114.164
-85.9397
-56.2597
-25.2828
6.8151
39.8066
73.4119
107.337
141.232
174.747
207.501
239.104
269.194
297.407
323.384
346.809
367.379
384.823
398.904
409.414
416.194
419.133
418.137
413.241
404.493
391.996
375.926
356.505
333.999
308.719
281.008
251.232
219.774
187.023
153.369
119.199
84.8845
50.7785
17.2159
-15.5028
-47.1082
-77.3615
-106.061
-133.041
-158.174
-181.369
-202.569
-221.75
-238.917
-254.099
-267.349
-278.731
-288.322
-296.201
-302.448
-307.138
-310.34
-312.11
-312.492
-311.534
-309.273
-305.736
-300.941
-294.908
-287.643
-279.155
-269.45
-258.527
-246.389
-233.038
-218.474
-202.699
-185.712
-167.513
-148.1
-127.473
-105.632
-82.5855
-58.3497
-32.9579
-6.46255
21.0519
49.6787
78.9078
108.764
139.024
169.439
199.722
229.554
258.596
286.484
312.852
337.33
359.553
379.181
395.89
409.393
419.44
425.829
428.402
427.051
421.774
412.601
399.617
382.995
362.973
339.848
313.968
285.732
255.567
223.918
191.244
158
124.625
91.5318
59.0934
27.6338
-2.58821
-31.3528
-58.5005
-83.9161
-107.533
-129.321
-149.277
-167.425
-183.806
-198.474
-211.495
-222.938
-232.879
-241.394
-248.557
-254.446
-259.136
-262.697
-265.197
-266.698
-267.26
-266.919
-265.715
-263.672
-260.801
-257.097
-252.542
-247.111
-240.757
-233.426
-225.055
-215.573
-204.908
-192.983
-179.723
-165.052
-148.899
-131.203
-111.911
-90.9901
-68.4208
-44.2136
-18.4016
8.9509
37.74
67.841
99.0309
131.075
163.697
196.576
229.343
261.59
292.882
322.763
350.762
376.417
399.274
418.914
434.965
447.103
455.084
458.736
457.961
452.78
443.313
429.706
412.22
391.178
366.961
339.993
310.73
279.637
247.183
213.827
180.005
146.122
112.546
79.5984
47.5721
16.6722
-12.9102
-41.0315
-67.5912
-92.5208
-115.779
-137.348
-157.225
-175.422
-191.966
-206.887
-220.224
-232.018
-242.302
-251.106
-258.447
-264.342
-268.808
-271.856
-273.486
-273.679
-272.588
-270.086
-266.114
-260.598
-253.46
-244.596
-233.935
-221.399
-206.924
-190.466
-171.978
-151.425
-128.849
-104.29
-77.8918
-49.8378
-20.3388
10.8372
51.55
88.3452
125.282
162.268
199.042
235.009
269.785
302.825
333.625
361.807
386.917
408.553
426.431
440.245
449.79
454.893
455.472
452.247
444.819
433.169
417.468
397.879
374.713
348.248
318.879
287.089
253.281
217.914
181.501
144.456
107.201
70.0669
33.4502
3.82011
-30.4931
-63.2945
-94.3872
-123.629
-150.9
-176.122
-199.262
-220.299
-239.246
-256.116
-270.941
-283.766
-294.625
-303.561
-310.614
-315.817
-319.21
-320.808
-320.621
-318.541
-314.623
-308.896
-301.344
-291.971
-280.748
-267.67
-252.728
-235.849
-216.985
381.635
398.432
411.424
420.479
425.52
426.427
422.96
415.383
403.794
388.342
369.236
346.765
321.29
293.156
262.794
230.607
197.017
162.506
127.497
92.4134
57.6768
23.8356
-8.90471
-40.8744
-71.6379
-100.954
-128.668
-154.658
-178.856
-201.222
-221.737
-240.412
-257.276
-272.367
-285.735
-297.433
-307.513
-316.029
-323.025
-328.541
-332.608
-335.247
-336.459
-336.211
-334.51
-331.322
-326.633
-320.42
-312.631
-303.227
-292.187
-279.453
-265.006
-248.823
-230.868
-211.145
-189.656
-166.4
-141.421
-114.777
-86.5296
-56.8179
-25.7943
6.36491
39.43
73.1222
107.148
141.153
174.788
207.668
239.4
269.62
297.961
324.062
347.603
368.28
385.819
399.98
410.554
417.379
420.34
419.346
414.425
405.629
393.062
376.903
357.377
334.753
309.346
281.501
251.589
219.996
187.113
153.334
119.047
84.6236
50.4207
16.7732
-16.0184
-47.6839
-77.9849
-106.72
-133.723
-158.87
-182.069
-203.263
-222.431
-239.579
-254.736
-267.959
-279.312
-288.873
-296.724
-302.945
-307.612
-310.793
-312.546
-312.915
-311.946
-309.678
-306.134
-301.336
-295.301
-288.037
-279.551
-269.847
-258.928
-246.794
-233.446
-218.887
-203.118
-186.138
-167.945
-148.539
-127.919
-106.082
-83.0379
-58.7995
-33.3994
-6.88636
20.6639
49.2943
78.583
108.501
138.835
169.336
199.718
229.66
258.82
286.834
313.329
337.935
360.283
380.029
396.845
410.439
420.562
427.006
429.61
428.271
422.975
413.755
400.7
383.984
363.847
340.589
314.565
286.177
255.858
224.057
191.236
157.856
124.359
91.1585
58.6316
27.1004
-3.17448
-31.9748
-59.1433
-84.5669
-108.182
-129.958
-149.896
-168.023
-184.378
-199.019
-212.012
-223.428
-233.34
-241.828
-248.965
-254.829
-259.495
-263.034
-265.513
-266.997
-267.543
-267.191
-265.981
-263.936
-261.066
-257.367
-252.822
-247.406
-241.071
-233.762
-225.415
-215.959
-205.321
-193.424
-180.193
-165.549
-149.423
-131.751
-112.48
-91.5739
-69.0135
-44.8076
-18.9866
8.38512
37.2062
67.3522
98.6047
130.726
163.443
196.432
229.325
261.712
293.156
323.196
351.357
377.172
400.181
419.961
436.132
448.365
456.41
460.094
459.32
454.106
444.567
430.863
413.254
392.071
367.699
340.57
311.143
279.889
247.283
213.787
179.838
145.845
112.174
79.1499
47.0656
16.12
-13.4935
-41.6336
-68.2026
-93.1331
-116.386
-137.945
-157.809
-175.991
-192.517
-207.42
-220.739
-232.515
-242.785
-251.578
-258.909
-264.795
-269.254
-272.299
-273.935
-274.15
-273.054
-270.561
-266.606
-261.114
-254.004
-245.172
-234.543
-222.037
-207.592
-191.161
-172.692
-152.15
-129.576
-105.004
-78.5809
-50.4998
-20.9948
10.0975
51.2258
87.9879
124.995
162.094
199.009
235.128
270.065
303.272
334.236
362.578
387.839
409.611
427.605
441.513
451.129
456.274
456.86
453.612
446.136
434.421
418.628
398.921
375.618
349.001
319.471
287.518
253.548
218.026
181.469
144.298
106.941
69.7345
33.1106
3.06687
-31.2207
-64.0301
-95.134
-124.383
-151.655
-176.871
-199.999
-221.02
-239.947
-256.796
-271.6
-284.404
-295.244
-304.163
-311.202
-316.393
-319.775
-321.366
-321.178
-319.097
-315.18
-309.458
-301.915
-292.554
-281.345
-268.283
-253.357
-236.495
-217.644
382.734
399.646
412.732
421.856
426.939
427.863
424.386
416.76
405.092
389.537
370.304
347.689
322.056
293.753
263.219
230.863
197.11
162.444
127.295
92.0844
57.2373
23.3443
-9.4829
-41.5152
-72.3255
-101.674
-129.407
-155.405
-179.601
-201.956
-222.456
-241.11
-257.949
-273.014
-286.357
-298.029
-308.086
-316.581
-323.56
-329.063
-333.121
-335.754
-336.968
-336.724
-335.03
-331.852
-327.177
-320.981
-313.209
-303.824
-292.803
-280.086
-265.659
-249.493
-231.553
-211.842
-190.361
-167.109
-142.126
-115.467
-87.195
-57.4479
-26.3717
5.85652
39.0042
72.7944
106.933
141.063
174.833
207.854
239.732
270.098
298.584
324.824
348.497
369.294
386.941
401.193
411.839
418.715
421.702
420.707
415.759
406.908
394.263
378.004
358.359
335.603
310.052
282.055
251.99
220.245
187.213
153.292
118.873
84.3281
50.016
16.273
-16.6007
-48.3338
-78.6883
-107.464
-134.494
-159.655
-182.857
-204.045
-223.198
-240.324
-255.454
-268.646
-279.966
-289.494
-297.312
-303.503
-308.144
-311.303
-313.036
-313.39
-312.41
-310.132
-306.582
-301.781
-295.743
-288.479
-279.995
-270.295
-259.379
-247.249
-233.906
-219.353
-203.59
-186.616
-168.431
-149.033
-128.42
-106.59
-83.5476
-59.3068
-33.8974
-7.36495
20.22
48.8657
78.2158
108.204
138.62
169.219
199.711
229.778
259.072
287.226
313.865
338.616
361.105
380.983
397.919
411.618
421.827
428.332
430.972
429.645
424.328
415.056
401.921
385.098
364.831
341.424
315.237
286.678
256.185
224.212
191.226
157.693
124.057
90.7356
58.109
26.4978
-3.83673
-32.6771
-59.8686
-85.3005
-108.912
-130.676
-150.594
-168.696
-185.023
-199.633
-212.595
-223.979
-233.86
-242.316
-249.424
-255.26
-259.898
-263.412
-265.869
-267.332
-267.861
-267.498
-266.28
-264.232
-261.364
-257.671
-253.138
-247.738
-241.423
-234.139
-225.819
-216.393
-205.786
-193.921
-180.722
-166.11
-150.014
-132.368
-113.121
-92.2315
-69.6818
-45.4772
-19.6467
7.74629
36.6036
66.7995
98.1226
130.332
163.154
196.268
229.303
261.848
293.462
323.681
352.025
378.021
401.203
421.141
437.447
449.788
457.906
461.626
460.852
455.599
445.981
432.167
414.42