/*--------------------------------*- C++ -*----------------------------------*\
| =========                 |                                                 |
| \\      /  F ield         | OpenFOAM: The Open Source CFD Toolbox           |
|  \\    /   O peration     | Version:  3.0.1                                 |
|   \\  /    A nd           | Web:      www.OpenFOAM.org                      |
|    \\/     M anipulation  |                                                 |
\*---------------------------------------------------------------------------*/
FoamFile
{
    version     2.0;
    format      ascii;
    class       volScalarField;
    location    "16.2";
    object      p;
}
// * * * * * * * * * * * * * * * * * * * * * * * * * * * * * * * * * * * * * //

dimensions      [1 -1 -2 0 0 0 0];

internalField   nonuniform List<scalar> 
22680
(
3853.27
3827.85
3802.82
3778.61
3755.36
3733.23
3712.27
3692.55
3674.08
3656.89
3640.97
3626.32
3612.91
3600.73
3589.76
3579.96
3571.33
3563.83
3557.44
3552.14
3547.92
3544.74
3542.6
3541.47
3541.37
3542.31
3544.26
3547.24
3551.27
3556.37
3562.55
3569.86
3578.3
3587.92
3598.74
3610.76
3624.03
3638.56
3654.35
3671.41
3689.75
3709.32
3730.12
3752.11
3775.24
3799.47
3824.7
3850.89
3877.89
3906.11
3934.65
3963.21
3991.83
4020.25
4048.31
4075.74
4102.36
4127.89
4152.12
4174.82
4195.78
4214.78
4231.64
4246.18
4258.27
4267.77
4274.59
4278.66
4279.94
4278.43
4274.17
4267.18
4257.49
4245.23
4230.53
4213.54
4194.42
4173.36
4150.58
4126.28
4100.71
4074.1
4046.68
4018.7
3990.38
3961.94
3933.61
3905.59
3878.16
3851.23
3825.02
3799.7
3775.37
3752.12
3730.01
3709.11
3689.45
3671.05
3653.92
3638.05
3623.44
3610.07
3597.92
3586.96
3577.18
3568.55
3561.05
3554.67
3549.4
3545.22
3542.14
3540.11
3539.16
3539.26
3540.45
3542.69
3546.01
3550.41
3555.91
3562.54
3570.3
3579.24
3589.34
3600.64
3613.18
3626.97
3642.01
3658.32
3675.9
3694.75
3714.86
3736.21
3758.74
3782.41
3807.13
3832.81
3859.34
3886.56
3914.48
3942.65
3971.02
3999.38
4027.52
4055.23
4082.27
4108.42
4133.44
4157.13
4179.25
4199.6
4217.99
4234.25
4248.2
4259.71
4268.66
4274.95
4278.52
4279.29
4277.27
4272.49
4264.99
4254.8
4242.04
4226.84
4209.33
4189.69
4168.12
4144.84
4120.07
4094.07
4067.08
4039.35
4011.16
3982.74
3954.32
3926.14
3898.33
3870.29
3843.88
3818.45
3794.05
3770.78
3748.73
3727.95
3708.49
3690.38
3673.63
3658.22
3644.15
3631.39
3619.9
3609.65
3600.59
3592.69
3585.9
3580.2
3575.55
3571.92
3569.29
3567.63
3566.91
3567.13
3568.23
3570.24
3573.14
3576.88
3581.48
3586.92
3593.21
3600.34
3608.33
3617.12
3626.77
3637.3
3648.69
3660.94
3674.06
3688.01
3702.77
3718.26
3734.39
3751.01
3767.81
3784.34
3801.5
3755.11
3729.68
3704.65
3680.43
3657.19
3635.05
3614.09
3594.37
3575.9
3558.71
3542.8
3528.14
3514.74
3502.56
3491.59
3481.8
3473.17
3465.67
3459.28
3453.98
3449.76
3446.58
3444.44
3443.31
3443.22
3444.15
3446.1
3449.08
3453.11
3458.21
3464.39
3471.69
3480.13
3489.75
3500.56
3512.59
3525.86
3540.38
3556.17
3573.23
3591.57
3611.14
3631.94
3653.93
3677.07
3701.29
3726.53
3752.72
3779.73
3807.95
3836.5
3865.08
3893.71
3922.14
3950.21
3977.66
4004.29
4029.84
4054.09
4076.8
4097.77
4116.79
4133.66
4148.21
4160.31
4169.81
4176.64
4180.72
4182
4180.48
4176.22
4169.23
4159.52
4147.26
4132.55
4115.55
4096.41
4075.34
4052.54
4028.23
4002.64
3976.02
3948.58
3920.59
3892.25
3863.81
3835.46
3807.44
3780
3753.06
3726.85
3701.52
3677.19
3653.94
3631.83
3610.93
3591.27
3572.87
3555.74
3539.87
3525.26
3511.9
3499.75
3488.79
3479.01
3470.38
3462.89
3456.51
3451.24
3447.06
3443.98
3441.95
3441
3441.1
3442.29
3444.53
3447.84
3452.25
3457.75
3464.37
3472.13
3481.07
3491.17
3502.47
3515
3528.8
3543.83
3560.14
3577.72
3596.57
3616.68
3638.02
3660.56
3684.23
3708.96
3734.64
3761.18
3788.41
3816.33
3844.51
3872.89
3901.26
3929.42
3957.14
3984.19
4010.35
4035.4
4059.09
4081.23
4101.6
4120
4136.27
4150.23
4161.75
4170.7
4177
4180.57
4181.35
4179.32
4174.54
4167.04
4156.84
4144.07
4128.86
4111.33
4091.68
4070.1
4046.8
4022.02
3996
3968.99
3941.25
3913.04
3884.61
3856.18
3827.99
3800.19
3772.11
3745.71
3720.27
3695.87
3672.6
3650.54
3629.76
3610.3
3592.19
3575.44
3560.04
3545.97
3533.21
3521.72
3511.47
3502.42
3494.52
3487.74
3482.04
3477.39
3473.76
3471.13
3469.48
3468.76
3468.98
3470.08
3472.09
3474.99
3478.74
3483.33
3488.77
3495.06
3502.19
3510.18
3518.97
3528.61
3539.14
3550.54
3562.78
3575.89
3589.84
3604.61
3620.11
3636.25
3652.88
3669.71
3686.29
3703.36
3656.89
3631.45
3606.41
3582.18
3558.93
3536.79
3515.83
3496.11
3477.64
3460.46
3444.54
3429.9
3416.49
3404.32
3393.35
3383.56
3374.94
3367.44
3361.06
3355.76
3351.54
3348.37
3346.22
3345.1
3345.01
3345.94
3347.88
3350.86
3354.89
3359.98
3366.16
3373.46
3381.9
3391.51
3402.32
3414.34
3427.61
3442.13
3457.92
3474.97
3493.3
3512.88
3533.68
3555.67
3578.81
3603.04
3628.28
3654.49
3681.51
3709.74
3738.32
3766.92
3795.57
3824.03
3852.12
3879.6
3906.26
3931.83
3956.11
3978.86
3999.86
4018.9
4035.79
4050.37
4062.48
4072.01
4078.85
4082.93
4084.22
4082.69
4078.42
4071.42
4061.7
4049.42
4034.69
4017.66
3998.5
3977.4
3954.57
3930.23
3904.61
3877.95
3850.49
3822.47
3794.11
3765.64
3737.27
3709.23
3681.79
3654.83
3628.61
3603.27
3578.93
3555.67
3533.57
3512.67
3493.01
3474.61
3457.48
3441.62
3427.01
3413.65
3401.51
3390.55
3380.78
3372.15
3364.66
3358.28
3353.02
3348.84
3345.75
3343.73
3342.78
3342.89
3344.07
3346.31
3349.62
3354.02
3359.52
3366.14
3373.9
3382.83
3392.93
3404.22
3416.76
3430.54
3445.58
3461.88
3479.46
3498.31
3518.42
3539.76
3562.3
3585.98
3610.71
3636.41
3662.95
3690.21
3718.13
3746.33
3774.74
3803.13
3831.31
3859.05
3886.14
3912.33
3937.4
3961.12
3983.29
4003.68
4022.11
4038.4
4052.39
4063.92
4072.89
4079.2
4082.78
4083.57
4081.53
4076.74
4069.23
4059.02
4046.23
4030.99
4013.44
3993.77
3972.15
3948.82
3924.01
3897.96
3870.92
3843.15
3814.91
3786.45
3758
3729.79
3702
3673.85
3647.45
3622.01
3597.6
3574.32
3552.26
3531.48
3512.03
3493.92
3477.17
3461.77
3447.71
3434.95
3423.47
3413.23
3404.18
3396.29
3389.51
3383.81
3379.17
3375.55
3372.92
3371.27
3370.56
3370.78
3371.88
3373.89
3376.8
3380.54
3385.14
3390.57
3396.86
3403.99
3411.97
3420.76
3430.4
3440.93
3452.32
3464.56
3477.67
3491.62
3506.39
3521.9
3538.06
3554.72
3571.59
3588.3
3605.39
3558.61
3533.15
3508.09
3483.86
3460.6
3438.46
3417.49
3397.77
3379.31
3362.12
3346.21
3331.57
3318.17
3306.01
3295.04
3285.26
3276.64
3269.15
3262.77
3257.48
3253.26
3250.09
3247.95
3246.83
3246.74
3247.66
3249.61
3252.59
3256.61
3261.7
3267.87
3275.16
3283.59
3293.2
3304
3316.02
3329.28
3343.79
3359.58
3376.63
3394.96
3414.53
3435.34
3457.33
3480.47
3504.71
3529.96
3556.19
3583.22
3611.47
3640.08
3668.72
3697.41
3725.9
3754.04
3781.56
3808.26
3833.88
3858.2
3880.99
3902.03
3921.12
3938.05
3952.66
3964.8
3974.35
3981.2
3985.3
3986.6
3985.06
3980.78
3973.75
3964.02
3951.71
3936.95
3919.88
3900.68
3879.53
3856.66
3832.27
3806.61
3779.91
3752.41
3724.34
3695.94
3667.44
3639.04
3610.96
3583.52
3556.54
3530.3
3504.95
3480.6
3457.33
3435.22
3414.32
3394.66
3376.27
3359.14
3343.29
3328.69
3315.33
3303.19
3292.25
3282.47
3273.85
3266.37
3259.99
3254.73
3250.56
3247.47
3245.45
3244.5
3244.61
3245.79
3248.03
3251.34
3255.73
3261.23
3267.85
3275.6
3284.53
3294.62
3305.91
3318.43
3332.22
3347.24
3363.54
3381.11
3399.96
3420.07
3441.42
3463.97
3487.65
3512.39
3538.1
3564.66
3591.95
3619.88
3648.12
3676.55
3704.98
3733.2
3760.98
3788.11
3814.34
3839.45
3863.22
3885.43
3905.86
3924.33
3940.66
3954.67
3966.24
3975.23
3981.56
3985.14
3985.94
3983.9
3979.1
3971.57
3961.34
3948.52
3933.25
3915.66
3895.94
3874.29
3850.91
3826.05
3799.95
3772.86
3745.05
3716.76
3688.26
3659.78
3631.55
3603.76
3575.5
3549.12
3523.67
3499.25
3475.96
3453.9
3433.12
3413.66
3395.56
3378.81
3363.42
3349.36
3336.62
3325.15
3314.91
3305.87
3297.99
3291.22
3285.53
3280.89
3277.27
3274.65
3273
3272.3
3272.52
3273.64
3275.65
3278.55
3282.3
3286.89
3292.33
3298.62
3305.74
3313.72
3322.5
3332.14
3342.66
3354.04
3366.28
3379.39
3393.34
3408.12
3423.64
3439.82
3456.52
3473.46
3490.33
3507.49
3460.27
3434.79
3409.71
3385.46
3362.19
3340.04
3319.07
3299.35
3280.89
3263.71
3247.81
3233.17
3219.78
3207.62
3196.67
3186.89
3178.28
3170.8
3164.42
3159.14
3154.92
3151.75
3149.61
3148.5
3148.41
3149.34
3151.27
3154.25
3158.26
3163.35
3169.52
3176.8
3185.22
3194.82
3205.62
3217.63
3230.88
3245.38
3261.16
3278.21
3296.54
3316.11
3336.92
3358.91
3382.06
3406.31
3431.58
3457.82
3484.88
3513.15
3541.81
3570.49
3599.22
3627.77
3655.96
3683.53
3710.29
3735.97
3760.36
3783.21
3804.3
3823.44
3840.42
3855.08
3867.26
3876.83
3883.71
3887.82
3889.13
3887.59
3883.29
3876.24
3866.48
3854.14
3839.33
3822.21
3802.95
3781.75
3758.81
3734.37
3708.64
3681.88
3654.32
3626.2
3597.76
3569.2
3540.76
3512.64
3485.19
3458.18
3431.91
3406.55
3382.18
3358.91
3336.8
3315.89
3296.24
3277.84
3260.73
3244.88
3230.29
3216.94
3204.81
3193.87
3184.11
3175.49
3168.01
3161.64
3156.38
3152.21
3149.13
3147.11
3146.17
3146.27
3147.45
3149.69
3152.99
3157.39
3162.87
3169.49
3177.23
3186.15
3196.24
3207.52
3220.04
3233.81
3248.83
3265.12
3282.69
3301.54
3321.65
3343
3365.55
3389.24
3414
3439.73
3466.31
3493.63
3521.59
3549.87
3578.34
3606.82
3635.09
3662.92
3690.1
3716.39
3741.56
3765.39
3787.65
3808.14
3826.66
3843.03
3857.09
3868.69
3877.71
3884.06
3887.66
3888.46
3886.43
3881.61
3874.06
3863.8
3850.95
3835.63
3817.99
3798.21
3776.5
3753.06
3728.13
3701.96
3674.82
3646.94
3618.6
3590.05
3561.52
3533.25
3505.48
3477.06
3450.71
3425.25
3400.82
3377.52
3355.44
3334.66
3315.21
3297.1
3280.37
3264.98
3250.94
3238.2
3226.75
3216.53
3207.5
3199.62
3192.86
3187.18
3182.56
3178.94
3176.33
3174.69
3173.99
3174.22
3175.34
3177.36
3180.26
3184
3188.6
3194.04
3200.32
3207.45
3215.42
3224.19
3233.82
3244.33
3255.71
3267.94
3281.04
3295
3309.78
3325.32
3341.53
3358.3
3375.32
3392.38
3409.66
3361.87
3336.35
3311.25
3286.98
3263.7
3241.54
3220.57
3200.85
3182.39
3165.22
3149.32
3134.7
3121.32
3109.17
3098.22
3088.46
3079.85
3072.38
3066.01
3060.73
3056.52
3053.36
3051.23
3050.12
3050.02
3050.95
3052.88
3055.85
3059.86
3064.94
3071.1
3078.37
3086.78
3096.37
3107.16
3119.16
3132.4
3146.9
3162.67
3179.71
3198.03
3217.6
3238.41
3260.41
3283.57
3307.83
3333.11
3359.38
3386.47
3414.76
3443.49
3472.23
3501.02
3529.63
3557.88
3585.52
3612.35
3638.11
3662.57
3685.5
3706.67
3725.87
3742.91
3757.63
3769.85
3779.47
3786.38
3790.5
3791.81
3790.28
3785.95
3778.87
3769.08
3756.69
3741.82
3724.64
3705.32
3684.04
3661.03
3636.51
3610.71
3583.87
3556.24
3528.06
3499.55
3470.94
3442.44
3414.26
3386.81
3359.75
3333.46
3308.07
3283.69
3260.41
3238.29
3217.38
3197.73
3179.34
3162.23
3146.39
3131.81
3118.47
3106.35
3095.43
3085.67
3077.06
3069.59
3063.23
3057.97
3053.8
3050.72
3048.71
3047.77
3047.87
3049.05
3051.29
3054.59
3058.97
3064.46
3071.06
3078.8
3087.71
3097.78
3109.05
3121.56
3135.33
3150.34
3166.62
3184.19
3203.03
3223.14
3244.49
3267.05
3290.75
3315.53
3341.28
3367.9
3395.25
3423.25
3451.57
3480.1
3508.64
3536.97
3564.87
3592.12
3618.48
3643.72
3667.62
3689.95
3710.51
3729.09
3745.52
3759.64
3771.28
3780.34
3786.72
3790.33
3791.14
3789.11
3784.28
3776.69
3766.4
3753.5
3738.13
3720.42
3700.58
3678.78
3655.26
3630.26
3604.01
3576.78
3548.83
3520.42
3491.8
3463.21
3434.89
3407.15
3378.55
3352.23
3326.75
3302.3
3278.99
3256.9
3236.11
3216.66
3198.57
3181.84
3166.46
3152.43
3139.71
3128.27
3118.07
3109.05
3101.19
3094.44
3088.78
3084.16
3080.56
3077.95
3076.32
3075.63
3075.86
3076.99
3079.01
3081.91
3085.66
3090.26
3095.7
3101.98
3109.1
3117.06
3125.83
3135.45
3145.94
3157.31
3169.54
3182.64
3196.59
3211.39
3226.95
3243.2
3260.03
3277.16
3294.43
3311.87
3263.41
3237.86
3212.72
3188.43
3165.13
3142.97
3121.99
3102.27
3083.82
3066.65
3050.76
3036.15
3022.78
3010.64
2999.71
2989.95
2981.36
2973.9
2967.54
2962.27
2958.07
2954.91
2952.78
2951.67
2951.58
2952.5
2954.43
2957.4
2961.4
2966.47
2972.61
2979.88
2988.28
2997.85
3008.63
3020.61
3033.84
3048.33
3064.1
3081.13
3099.45
3119.02
3139.82
3161.83
3184.99
3209.27
3234.58
3260.88
3288
3316.32
3345.12
3373.93
3402.79
3431.47
3459.81
3487.53
3514.45
3540.3
3564.85
3587.86
3609.12
3628.41
3645.53
3660.3
3672.59
3682.25
3689.19
3693.34
3694.65
3693.11
3688.77
3681.66
3671.82
3659.37
3644.44
3627.19
3607.78
3586.42
3563.31
3538.7
3512.81
3485.88
3458.17
3429.9
3401.31
3372.63
3344.07
3315.83
3288.38
3261.26
3234.93
3209.51
3185.12
3161.82
3139.7
3118.79
3099.14
3080.76
3063.65
3047.83
3033.26
3019.94
3007.83
2996.91
2987.17
2978.57
2971.1
2964.75
2959.5
2955.34
2952.26
2950.25
2949.31
2949.41
2950.59
2952.82
2956.12
2960.5
2965.97
2972.57
2980.3
2989.2
2999.26
3010.52
3023.02
3036.77
3051.78
3068.05
3085.61
3104.44
3124.55
3145.91
3168.48
3192.19
3216.99
3242.77
3269.42
3296.81
3324.86
3353.25
3381.84
3410.44
3438.85
3466.83
3494.16
3520.6
3545.93
3569.92
3592.33
3612.97
3631.63
3648.14
3662.31
3674.01
3683.12
3689.53
3693.17
3693.98
3691.95
3687.1
3679.48
3669.14
3656.18
3640.74
3622.96
3603.03
3581.15
3557.54
3532.43
3506.09
3478.77
3450.72
3422.22
3393.52
3364.86
3336.48
3308.73
3279.98
3253.68
3228.17
3203.7
3180.37
3158.27
3137.48
3118.03
3099.94
3083.22
3067.86
3053.84
3041.14
3029.72
3019.53
3010.54
3002.69
2995.96
2990.31
2985.7
2982.11
2979.52
2977.89
2977.21
2977.45
2978.59
2980.62
2983.52
2987.27
2991.87
2997.31
3003.59
3010.7
3018.66
3027.41
3037.02
3047.5
3058.86
3071.07
3084.17
3098.12
3112.93
3128.52
3144.82
3161.72
3178.97
3196.47
3214.13
3164.89
3139.29
3114.12
3089.81
3066.49
3044.31
3023.33
3003.61
2985.16
2968
2952.13
2937.52
2924.17
2912.04
2901.12
2891.38
2882.8
2875.35
2869.01
2863.75
2859.55
2856.4
2854.27
2853.17
2853.08
2854
2855.92
2858.88
2862.87
2867.93
2874.07
2881.32
2889.7
2899.26
2910.02
2922
2935.21
2949.69
2965.44
2982.47
3000.78
3020.35
3041.16
3063.17
3086.34
3110.63
3135.97
3162.3
3189.48
3217.82
3246.71
3275.6
3304.55
3333.31
3361.74
3389.56
3416.58
3442.54
3467.19
3490.31
3511.67
3531.05
3548.26
3563.11
3575.47
3585.18
3592.16
3596.34
3597.66
3596.11
3591.75
3584.59
3574.7
3562.19
3547.18
3529.84
3510.33
3488.87
3465.66
3440.94
3414.94
3387.91
3360.09
3331.73
3303.06
3274.3
3245.66
3217.33
3189.89
3162.7
3136.33
3110.88
3086.46
3063.15
3041.02
3020.11
3000.46
2982.09
2965
2949.18
2934.63
2921.32
2909.23
2898.33
2888.6
2880.01
2872.55
2866.21
2860.96
2856.81
2853.74
2851.73
2850.8
2850.9
2852.08
2854.3
2857.59
2861.96
2867.43
2874.01
2881.73
2890.62
2900.67
2911.91
2924.4
2938.14
2953.13
2969.39
2986.94
3005.77
3025.88
3047.24
3069.82
3093.55
3118.38
3144.19
3170.88
3198.31
3226.43
3254.88
3283.54
3312.23
3340.72
3368.79
3396.22
3422.76
3448.19
3472.28
3494.79
3515.53
3534.28
3550.87
3565.12
3576.88
3586.04
3592.49
3596.15
3596.98
3594.94
3590.07
3582.41
3572.02
3559
3543.48
3525.61
3505.58
3483.59
3459.87
3434.65
3408.2
3380.76
3352.61
3324.01
3295.21
3266.46
3238.01
3210.19
3181.42
3155.07
3129.52
3105.01
3081.66
3059.55
3038.76
3019.31
3001.22
2984.52
2969.17
2955.18
2942.5
2931.09
2920.93
2911.95
2904.13
2897.42
2891.78
2887.19
2883.61
2881.03
2879.42
2878.74
2879
2880.14
2882.18
2885.08
2888.84
2893.44
2898.87
2905.15
2912.25
2920.2
2928.94
2938.54
2949.01
2960.35
2972.55
2985.63
2999.59
3014.41
3030.03
3046.38
3063.37
3080.75
3098.5
3116.4
3066.31
3040.66
3015.45
2991.1
2967.76
2945.58
2924.59
2904.87
2886.42
2869.28
2853.41
2838.82
2825.48
2813.37
2802.47
2792.75
2784.18
2776.74
2770.41
2765.16
2760.97
2757.83
2755.71
2754.61
2754.52
2755.44
2757.36
2760.31
2764.29
2769.34
2775.46
2782.69
2791.06
2800.61
2811.35
2823.3
2836.51
2850.97
2866.71
2883.73
2902.03
2921.6
2942.41
2964.42
2987.61
3011.92
3037.28
3063.65
3090.88
3119.26
3148.26
3177.24
3206.28
3235.14
3263.67
3291.61
3318.75
3344.82
3369.6
3392.83
3414.31
3433.8
3451.11
3466.05
3478.48
3488.26
3495.29
3499.49
3500.82
3499.27
3494.88
3487.67
3477.72
3465.14
3450.04
3432.6
3412.98
3391.4
3368.07
3343.22
3317.1
3289.95
3262.02
3233.55
3204.78
3175.93
3147.2
3118.76
3091.34
3064.08
3037.66
3012.17
2987.73
2964.4
2942.26
2921.35
2901.71
2883.34
2866.26
2850.47
2835.93
2822.64
2810.57
2799.68
2789.97
2781.39
2773.94
2767.6
2762.37
2758.22
2755.15
2753.15
2752.22
2752.32
2753.5
2755.72
2759
2763.37
2768.82
2775.39
2783.1
2791.97
2802
2813.23
2825.71
2839.43
2854.41
2870.66
2888.19
2907.02
2927.13
2948.49
2971.08
2994.84
3019.69
3045.53
3072.27
3099.76
3127.95
3156.47
3185.22
3214
3242.59
3270.77
3298.3
3324.96
3350.51
3374.71
3397.34
3418.18
3437.04
3453.72
3468.05
3479.9
3489.11
3495.61
3499.3
3500.13
3498.09
3493.2
3485.49
3475.04
3461.95
3446.34
3428.37
3408.23
3386.11
3362.26
3336.92
3310.33
3282.77
3254.49
3225.77
3196.87
3168.02
3139.47
3111.5
3082.85
3056.38
3030.78
3006.24
2982.86
2960.74
2939.94
2920.49
2902.42
2885.73
2870.4
2856.42
2843.77
2832.39
2822.25
2813.3
2805.5
2798.81
2793.19
2788.61
2785.05
2782.48
2780.88
2780.22
2780.49
2781.65
2783.69
2786.6
2790.36
2794.96
2800.39
2806.66
2813.75
2821.69
2830.42
2840
2850.45
2861.78
2873.96
2887.04
2901
2915.83
2931.48
2947.89
2964.97
2982.49
3000.49
3018.68
2967.67
2941.96
2916.7
2892.32
2868.96
2846.76
2825.77
2806.04
2787.61
2770.47
2754.62
2740.05
2726.72
2714.63
2703.75
2694.04
2685.49
2678.07
2671.75
2666.52
2662.34
2659.2
2657.09
2656
2655.9
2656.82
2658.73
2661.67
2665.64
2670.68
2676.78
2684
2692.35
2701.88
2712.6
2724.54
2737.72
2752.17
2767.9
2784.91
2803.21
2822.76
2843.57
2865.59
2888.8
2913.13
2938.52
2964.93
2992.22
3020.65
3049.76
3078.84
3107.98
3136.95
3165.6
3193.67
3220.94
3247.15
3272.07
3295.44
3317.04
3336.65
3354.08
3369.13
3381.64
3391.49
3398.57
3402.8
3404.14
3402.58
3398.16
3390.91
3380.89
3368.22
3353.02
3335.46
3315.72
3294.01
3270.54
3245.55
3219.29
3192.01
3163.95
3135.36
3106.47
3077.52
3048.7
3020.14
2992.74
2965.38
2938.91
2913.39
2888.92
2865.57
2843.42
2822.51
2802.87
2784.51
2767.45
2751.67
2737.15
2723.88
2711.83
2700.96
2691.26
2682.7
2675.27
2668.94
2663.71
2659.57
2656.51
2654.51
2653.58
2653.69
2654.87
2657.08
2660.35
2664.71
2670.15
2676.7
2684.39
2693.25
2703.27
2714.48
2726.94
2740.65
2755.6
2771.84
2789.37
2808.18
2828.29
2849.66
2872.26
2896.04
2920.92
2946.81
2973.6
3001.15
3029.41
3058.02
3086.86
3115.75
3144.45
3172.75
3200.41
3227.2
3252.87
3277.2
3299.96
3320.92
3339.9
3356.69
3371.12
3383.05
3392.33
3398.88
3402.6
3403.45
3401.4
3396.48
3388.73
3378.21
3365.03
3349.31
3331.23
3310.96
3288.71
3264.72
3239.23
3212.49
3184.79
3156.38
3127.52
3098.5
3069.53
3040.87
3012.75
2984.23
2957.63
2931.96
2907.38
2883.98
2861.84
2841.03
2821.59
2803.53
2786.85
2771.54
2757.59
2744.96
2733.61
2723.5
2714.58
2706.8
2700.13
2694.53
2689.98
2686.43
2683.88
2682.3
2681.65
2681.93
2683.1
2685.15
2688.06
2691.82
2696.43
2701.86
2708.12
2715.21
2723.13
2731.85
2741.41
2751.84
2763.14
2775.31
2788.38
2802.34
2817.18
2832.87
2849.34
2866.52
2884.19
2902.44
2920.94
2868.97
2843.19
2817.88
2793.47
2770.08
2747.86
2726.86
2707.14
2688.71
2671.59
2655.75
2641.19
2627.89
2615.82
2604.96
2595.27
2586.74
2579.34
2573.03
2567.81
2563.65
2560.52
2558.42
2557.33
2557.23
2558.15
2560.05
2562.98
2566.94
2571.96
2578.05
2585.25
2593.57
2603.08
2613.78
2625.7
2638.86
2653.29
2669.01
2686.01
2704.3
2723.85
2744.66
2766.69
2789.91
2814.26
2839.68
2866.14
2893.48
2921.98
2951.21
2980.41
3009.67
3038.76
3067.54
3095.74
3123.16
3149.52
3174.59
3198.12
3219.87
3239.62
3257.17
3272.33
3284.94
3294.87
3302.01
3306.27
3307.63
3306.05
3301.6
3294.29
3284.2
3271.43
3256.12
3238.44
3218.56
3196.7
3173.08
3147.93
3121.52
3094.09
3065.88
3037.15
3008.14
2979.08
2950.15
2921.5
2894.04
2866.61
2840.08
2814.52
2790.02
2766.66
2744.49
2723.58
2703.95
2685.6
2668.56
2652.79
2638.3
2625.05
2613.02
2602.17
2592.49
2583.95
2576.53
2570.21
2564.99
2560.86
2557.8
2555.81
2554.89
2555
2556.17
2558.38
2561.65
2565.99
2571.41
2577.95
2585.63
2594.47
2604.46
2615.66
2628.1
2641.78
2656.72
2672.94
2690.46
2709.27
2729.37
2750.74
2773.36
2797.16
2822.08
2848.01
2874.86
2902.49
2930.82
2959.52
2988.48
3017.48
3046.3
3074.74
3102.54
3129.47
3155.29
3179.76
3202.66
3223.76
3242.87
3259.78
3274.32
3286.34
3295.7
3302.3
3306.06
3306.92
3304.87
3299.92
3292.11
3281.52
3268.24
3252.42
3234.2
3213.79
3191.39
3167.24
3141.58
3114.68
3086.82
3058.25
3029.25
3000.09
2971
2942.22
2913.95
2885.51
2858.79
2833.06
2808.43
2785
2762.85
2742.04
2722.6
2704.54
2687.88
2672.6
2658.68
2646.08
2634.76
2624.68
2615.79
2608.04
2601.4
2595.82
2591.28
2587.76
2585.22
2583.66
2583.03
2583.32
2584.5
2586.56
2589.48
2593.25
2597.85
2603.28
2609.53
2616.61
2624.52
2633.22
2642.76
2653.17
2664.45
2676.6
2689.65
2703.61
2718.47
2734.2
2750.73
2768.02
2785.85
2804.35
2823.17
2770.2
2744.35
2718.99
2694.53
2671.12
2648.88
2627.87
2608.15
2589.73
2572.62
2556.8
2542.27
2528.99
2516.94
2506.1
2496.43
2487.92
2480.54
2474.25
2469.05
2464.89
2461.78
2459.68
2458.6
2458.5
2459.41
2461.31
2464.23
2468.17
2473.18
2479.25
2486.42
2494.73
2504.21
2514.89
2526.78
2539.93
2554.34
2570.04
2587.03
2605.3
2624.85
2645.66
2667.69
2690.93
2715.31
2740.77
2767.27
2794.67
2823.25
2852.63
2881.94
2911.33
2940.55
2969.48
2997.84
3025.42
3051.95
3077.19
3100.87
3122.78
3142.69
3160.38
3175.67
3188.39
3198.4
3205.6
3209.91
3211.27
3209.69
3205.19
3197.83
3187.65
3174.78
3159.34
3141.52
3121.49
3099.46
3075.67
3050.36
3023.78
2996.17
2967.81
2938.94
2909.79
2880.6
2851.56
2822.85
2795.23
2767.76
2741.18
2715.58
2691.04
2667.66
2645.48
2624.57
2604.94
2586.61
2569.58
2553.84
2539.37
2526.15
2514.14
2503.32
2493.66
2485.13
2477.72
2471.42
2466.21
2462.08
2459.04
2457.05
2456.14
2456.24
2457.42
2459.61
2462.87
2467.2
2472.61
2479.14
2486.79
2495.61
2505.59
2516.76
2529.18
2542.85
2557.76
2573.97
2591.46
2610.26
2630.36
2651.75
2674.38
2698.2
2723.16
2749.14
2776.06
2803.76
2832.17
2860.99
2890.06
2919.19
2948.15
2976.73
3004.68
3031.77
3057.75
3082.38
3105.44
3126.7
3145.94
3162.99
3177.65
3189.77
3199.22
3205.88
3209.68
3210.56
3208.5
3203.51
3195.64
3184.97
3171.59
3155.64
3137.28
3116.71
3094.14
3069.81
3043.98
3016.9
2988.86
2960.12
2930.96
2901.65
2872.42
2843.51
2815.09
2786.71
2759.88
2734.08
2709.4
2685.94
2663.77
2642.95
2623.51
2605.47
2588.83
2573.57
2559.68
2547.12
2535.83
2525.79
2516.93
2509.21
2502.6
2497.04
2492.53
2489.02
2486.51
2484.96
2484.35
2484.66
2485.85
2487.92
2490.85
2494.62
2499.22
2504.65
2510.9
2517.97
2525.86
2534.54
2544.06
2554.44
2565.7
2577.82
2590.86
2604.82
2619.69
2635.46
2652.07
2669.46
2687.45
2706.22
2725.37
2671.37
2645.44
2620.02
2595.52
2572.07
2549.82
2528.8
2509.09
2490.68
2473.58
2457.78
2443.26
2430.01
2417.98
2407.17
2397.53
2389.04
2381.68
2375.41
2370.22
2366.08
2362.98
2360.89
2359.81
2359.72
2360.63
2362.51
2365.42
2369.35
2374.33
2380.38
2387.54
2395.82
2405.27
2415.93
2427.79
2440.91
2455.31
2470.99
2487.96
2506.23
2525.77
2546.58
2568.62
2591.87
2616.28
2641.77
2668.32
2695.79
2724.46
2753.99
2783.44
2812.96
2842.33
2871.41
2899.94
2927.7
2954.41
2979.84
3003.71
3025.79
3045.86
3063.71
3079.14
3091.97
3102.08
3109.35
3113.7
3115.08
3113.48
3108.95
3101.51
3091.24
3078.26
3062.69
3044.71
3024.51
3002.31
2978.33
2952.83
2926.06
2898.28
2869.74
2840.7
2811.41
2782.08
2752.92
2724.14
2696.35
2668.84
2642.2
2616.55
2591.98
2568.57
2546.39
2525.47
2505.85
2487.53
2470.52
2454.81
2440.37
2427.17
2415.19
2404.39
2394.76
2386.25
2378.85
2372.56
2367.36
2363.25
2360.21
2358.23
2357.32
2357.43
2358.61
2360.79
2364.04
2368.36
2373.75
2380.26
2387.89
2396.69
2406.64
2417.79
2430.19
2443.83
2458.73
2474.91
2492.39
2511.18
2531.28
2552.66
2575.31
2599.16
2624.16
2650.2
2677.18
2704.98
2733.48
2762.41
2791.61
2820.88
2849.99
2878.73
2906.85
2934.11
2960.26
2985.07
3008.3
3029.72
3049.13
3066.32
3081.11
3093.34
3102.89
3109.62
3113.46
3114.36
3112.29
3107.27
3099.33
3088.56
3075.07
3058.98
3040.47
3019.73
2996.97
2972.45
2946.42
2919.14
2890.91
2861.98
2832.65
2803.17
2773.79
2744.74
2716.19
2687.82
2660.88
2635.01
2610.28
2586.78
2564.59
2543.77
2524.34
2506.31
2489.69
2474.46
2460.6
2448.07
2436.83
2426.83
2418.01
2410.32
2403.73
2398.21
2393.72
2390.23
2387.74
2386.21
2385.62
2385.95
2387.16
2389.24
2392.17
2395.95
2400.55
2405.98
2412.22
2419.27
2427.15
2435.81
2445.3
2455.66
2466.88
2478.98
2492
2505.95
2520.85
2536.65
2553.33
2570.85
2589
2608.02
2627.51
2572.48
2546.47
2520.98
2496.42
2472.95
2450.68
2429.65
2409.94
2391.54
2374.46
2358.68
2344.19
2330.95
2318.96
2308.17
2298.55
2290.09
2282.75
2276.51
2271.34
2267.21
2264.12
2262.04
2260.97
2260.88
2261.78
2263.66
2266.55
2270.46
2275.43
2281.45
2288.58
2296.84
2306.27
2316.89
2328.73
2341.83
2356.19
2371.86
2388.81
2407.07
2426.6
2447.41
2469.46
2492.73
2517.17
2542.7
2569.31
2596.84
2625.61
2655.32
2684.9
2714.57
2744.09
2773.35
2802.06
2830.02
2856.93
2882.55
2906.62
2928.9
2949.15
2967.16
2982.74
2995.71
3005.92
3013.26
3017.66
3019.06
3017.44
3012.86
3005.35
2994.98
2981.87
2966.16
2948.01
2927.63
2905.23
2881.05
2855.35
2828.38
2800.4
2771.67
2742.46
2713
2683.52
2654.24
2625.37
2597.41
2569.84
2543.15
2517.44
2492.84
2469.4
2447.21
2426.29
2406.67
2388.38
2371.39
2355.7
2341.28
2328.12
2316.17
2305.4
2295.79
2287.3
2279.92
2273.64
2268.46
2264.35
2261.33
2259.36
2258.45
2258.56
2259.75
2261.92
2265.15
2269.45
2274.83
2281.31
2288.92
2297.7
2307.62
2318.75
2331.12
2344.74
2359.61
2375.77
2393.23
2412.01
2432.1
2453.49
2476.16
2500.04
2525.08
2551.18
2578.24
2606.12
2634.73
2663.79
2693.13
2722.54
2751.83
2780.74
2809.04
2836.48
2862.83
2887.83
2911.24
2932.84
2952.42
2969.77
2984.7
2997.06
3006.7
3013.52
3017.41
3018.32
3016.24
3011.18
3003.17
2992.3
2978.68
2962.45
2943.77
2922.84
2899.88
2875.15
2848.9
2821.41
2792.97
2763.84
2734.32
2704.66
2675.12
2645.91
2617.22
2588.85
2561.81
2535.85
2511.07
2487.53
2465.32
2444.49
2425.07
2407.06
2390.46
2375.26
2361.44
2348.95
2337.75
2327.79
2319.01
2311.36
2304.81
2299.31
2294.85
2291.39
2288.92
2287.41
2286.84
2287.18
2288.41
2290.51
2293.45
2297.23
2301.83
2307.25
2313.49
2320.53
2328.39
2337.03
2346.49
2356.81
2368.01
2380.08
2393.08
2407.02
2421.93
2437.77
2454.53
2472.16
2490.49
2509.76
2529.58
2473.52
2447.42
2421.86
2397.25
2373.74
2351.45
2330.42
2310.7
2292.31
2275.25
2259.5
2245.03
2231.83
2219.86
2209.1
2199.51
2191.08
2183.76
2177.54
2172.39
2168.29
2165.21
2163.14
2162.07
2161.98
2162.88
2164.74
2167.63
2171.52
2176.46
2182.46
2189.57
2197.79
2207.19
2217.78
2229.59
2242.66
2257
2272.64
2289.58
2307.83
2327.35
2348.16
2370.22
2393.51
2417.97
2443.55
2470.21
2497.82
2526.67
2556.59
2586.33
2616.15
2645.84
2675.28
2704.19
2732.36
2759.49
2785.33
2809.61
2832.09
2852.54
2870.74
2886.48
2899.58
2909.91
2917.33
2921.78
2923.19
2921.56
2916.94
2909.35
2898.87
2885.63
2869.75
2851.42
2830.84
2808.23
2783.84
2757.91
2730.72
2702.52
2673.6
2644.19
2614.56
2584.92
2555.51
2526.53
2498.42
2470.78
2444.01
2418.25
2393.61
2370.15
2347.94
2327.02
2307.41
2289.13
2272.17
2256.51
2242.13
2228.99
2217.08
2206.34
2196.75
2188.29
2180.93
2174.66
2169.49
2165.4
2162.38
2160.42
2159.52
2159.64
2160.82
2162.98
2166.2
2170.48
2175.84
2182.3
2189.89
2198.64
2208.54
2219.64
2231.98
2245.57
2260.41
2276.55
2293.99
2312.76
2332.84
2354.24
2376.92
2400.84
2425.92
2452.09
2479.23
2507.21
2535.93
2565.12
2594.61
2624.19
2653.65
2682.75
2711.24
2738.89
2765.44
2790.65
2814.26
2836.06
2855.82
2873.34
2888.43
2900.92
2910.67
2917.57
2921.51
2922.45
2920.36
2915.25
2907.17
2896.19
2882.44
2866.04
2847.18
2826.04
2802.87
2777.91
2751.43
2723.71
2695.03
2665.69
2635.96
2606.11
2576.4
2547.03
2518.2
2489.78
2462.64
2436.6
2411.76
2388.19
2365.96
2345.12
2325.71
2307.71
2291.14
2275.98
2262.2
2249.75
2238.6
2228.69
2219.95
2212.34
2205.82
2200.35
2195.92
2192.48
2190.04
2188.56
2188.01
2188.37
2189.62
2191.72
2194.68
2198.46
2203.07
2208.49
2214.71
2221.74
2229.58
2238.19
2247.63
2257.91
2269.07
2281.11
2294.08
2308.02
2322.94
2338.83
2355.66
2373.41
2391.91
2411.44
2431.59
2374.5
2348.3
2322.66
2298
2274.45
2252.14
2231.1
2211.39
2193.01
2175.97
2160.24
2145.8
2132.62
2120.69
2109.96
2100.41
2092
2084.71
2078.52
2073.39
2069.3
2066.23
2064.18
2063.12
2063.02
2063.92
2065.77
2068.64
2072.51
2077.43
2083.41
2090.48
2098.67
2108.04
2118.6
2130.38
2143.42
2157.73
2173.35
2190.27
2208.5
2228.02
2248.82
2270.89
2294.2
2318.69
2344.32
2371.04
2398.74
2427.67
2457.82
2487.71
2517.7
2547.57
2577.21
2606.33
2634.73
2662.09
2688.16
2712.68
2735.38
2756.04
2774.43
2790.35
2803.6
2814.05
2821.56
2826.06
2827.5
2825.85
2821.17
2813.5
2802.91
2789.51
2773.46
2754.94
2734.15
2711.32
2686.68
2660.52
2633.09
2604.67
2575.52
2545.91
2516.08
2486.28
2456.72
2427.62
2399.36
2371.63
2344.8
2318.98
2294.29
2270.81
2248.58
2227.66
2208.07
2189.81
2172.87
2157.24
2142.89
2129.8
2117.92
2107.21
2097.66
2089.21
2081.87
2075.62
2070.46
2066.38
2063.37
2061.42
2060.53
2060.65
2061.83
2063.99
2067.19
2071.45
2076.79
2083.22
2090.78
2099.51
2109.38
2120.45
2132.77
2146.32
2161.14
2177.25
2194.67
2213.42
2233.5
2254.9
2277.6
2301.55
2326.68
2352.92
2380.14
2408.23
2437.07
2466.41
2496.06
2525.81
2555.46
2584.76
2613.47
2641.33
2668.1
2693.53
2717.36
2739.37
2759.33
2777.03
2792.29
2804.93
2814.8
2821.78
2825.78
2826.74
2824.64
2819.48
2811.31
2800.23
2786.33
2769.76
2750.69
2729.34
2705.94
2680.73
2654
2626.03
2597.11
2567.53
2537.58
2507.53
2477.62
2448.09
2419.11
2390.64
2363.39
2337.27
2312.37
2288.75
2266.5
2245.66
2226.25
2208.28
2191.74
2176.61
2162.87
2150.47
2139.37
2129.51
2120.82
2113.25
2106.77
2101.33
2096.93
2093.52
2091.1
2089.65
2089.12
2089.51
2090.77
2092.89
2095.86
2099.65
2104.26
2109.67
2115.89
2122.9
2130.72
2139.3
2148.7
2158.95
2170.07
2182.07
2195.02
2208.94
2223.88
2239.81
2256.72
2274.59
2293.26
2313.04
2333.51
2275.41
2249.1
2223.38
2198.66
2175.08
2152.74
2131.69
2111.99
2093.62
2076.6
2060.9
2046.49
2033.35
2021.45
2010.75
2001.23
1992.86
1985.6
1979.43
1974.32
1970.25
1967.21
1965.16
1964.1
1964.01
1964.9
1966.75
1969.6
1973.45
1978.34
1984.29
1991.33
1999.49
2008.82
2019.35
2031.09
2044.09
2058.38
2073.98
2090.88
2109.09
2128.6
2149.4
2171.47
2194.8
2219.33
2245
2271.79
2299.57
2328.59
2359
2389.06
2419.22
2449.28
2479.13
2508.48
2537.12
2564.73
2591.06
2615.82
2638.77
2659.65
2678.25
2694.36
2707.77
2718.35
2725.96
2730.51
2731.97
2730.31
2725.57
2717.81
2707.09
2693.54
2677.31
2658.58
2637.55
2614.47
2589.59
2563.17
2535.49
2506.82
2477.44
2447.61
2417.58
2387.6
2357.88
2328.64
2300.24
2272.42
2245.5
2219.63
2194.89
2171.37
2149.14
2128.22