/*--------------------------------*- C++ -*----------------------------------*\
| =========                 |                                                 |
| \\      /  F ield         | OpenFOAM: The Open Source CFD Toolbox           |
|  \\    /   O peration     | Version:  3.0.1                                 |
|   \\  /    A nd           | Web:      www.OpenFOAM.org                      |
|    \\/     M anipulation  |                                                 |
\*---------------------------------------------------------------------------*/
FoamFile
{
    version     2.0;
    format      ascii;
    class       surfaceScalarField;
    location    "16.2";
    object      phi;
}
// * * * * * * * * * * * * * * * * * * * * * * * * * * * * * * * * * * * * * //

dimensions      [0 3 -1 0 0 0 0];

internalField   nonuniform List<scalar> 
44922
(
-3.08784e-05
1.39274e-05
-4.42043e-05
1.33259e-05
-5.70082e-05
1.2804e-05
-6.91462e-05
1.2138e-05
-8.06869e-05
1.15407e-05
-9.15317e-05
1.08448e-05
-0.000101741
1.02089e-05
-0.000111251
9.51058e-06
-0.000120116
8.86444e-06
-0.000128299
8.18289e-06
-0.000135845
7.54623e-06
-0.000142739
6.89377e-06
-0.000149019
6.27995e-06
-0.000154684
5.66594e-06
-0.00015977
5.08551e-06
-0.000164284
4.51449e-06
-0.000168241
3.95678e-06
-0.00017166
3.41876e-06
-0.00017455
2.88998e-06
-0.000176927
2.37677e-06
-0.000178798
1.87145e-06
-0.000180162
1.36359e-06
-0.000181022
8.60546e-07
-0.000181397
3.75165e-07
-0.000181276
-1.21885e-07
-0.000180695
-5.80372e-07
-0.000179598
-1.09713e-06
-0.000178046
-1.55248e-06
-0.000175951
-2.0945e-06
-0.000173392
-2.55924e-06
-0.00017025
-3.14169e-06
-0.000166619
-3.63095e-06
-0.000162344
-4.27527e-06
-0.000157547
-4.79729e-06
-0.00015224
-5.30707e-06
-0.000146216
-6.02398e-06
-0.00013965
-6.56584e-06
-0.000132307
-7.34318e-06
-0.000124408
-7.89877e-06
-0.000115722
-8.68544e-06
-0.000106445
-9.27742e-06
-9.63203e-05
-1.01247e-05
-8.56018e-05
-1.07186e-05
-7.40501e-05
-1.15517e-05
-6.19479e-05
-1.21022e-05
-4.90547e-05
-1.28932e-05
-3.56937e-05
-1.3361e-05
-2.15923e-05
-1.41013e-05
-7.0798e-06
-1.45126e-05
8.04763e-06
-1.51274e-05
2.35346e-05
-1.5487e-05
3.91804e-05
-1.56458e-05
5.50695e-05
-1.58892e-05
7.09682e-05
-1.58987e-05
8.68397e-05
-1.58715e-05
0.000102469
-1.56288e-05
0.000117763
-1.52947e-05
0.000132527
-1.47638e-05
0.000146632
-1.41055e-05
0.000159895
-1.32624e-05
0.000172207
-1.23119e-05
0.00018339
-1.11835e-05
0.000193343
-9.95315e-06
0.000201904
-8.56111e-06
0.000209021
-7.11674e-06
0.000214537
-5.51622e-06
0.000218459
-3.9213e-06
0.000220651
-2.19267e-06
0.000221164
-5.12338e-07
0.00022002
1.14356e-06
0.000217013
3.00759e-06
0.000212389
4.62326e-06
0.000206146
6.24326e-06
0.000198406
7.7404e-06
0.000189218
9.188e-06
0.000178779
1.04385e-05
0.000167106
1.16727e-05
0.000154439
1.26672e-05
0.000140838
1.36009e-05
0.000126501
1.43374e-05
0.000111542
1.49586e-05
9.61831e-05
1.53591e-05
8.0514e-05
1.56691e-05
6.47251e-05
1.57889e-05
4.89233e-05
1.58018e-05
3.32e-05
1.57232e-05
1.76826e-05
1.55175e-05
2.47988e-06
1.52027e-05
-1.2368e-05
1.48479e-05
-2.67188e-05
1.43507e-05
-4.05547e-05
1.3836e-05
-5.3818e-05
1.32633e-05
-6.64349e-05
1.26169e-05
-7.84316e-05
1.19967e-05
-8.97032e-05
1.12716e-05
-0.000100346
1.06431e-05
-0.000110207
9.86116e-06
-0.000119452
9.24503e-06
-0.000127923
8.47086e-06
-0.00013579
7.86718e-06
-0.000142888
7.09801e-06
-0.00014941
6.52109e-06
-0.000155239
5.82949e-06
-0.000160475
5.23589e-06
-0.000165082
4.60689e-06
-0.000169119
4.03665e-06
-0.000172584
3.46527e-06
-0.000175567
2.98293e-06
-0.00017801
2.443e-06
-0.000179859
1.84963e-06
-0.000181327
1.4679e-06
-0.000182119
7.91879e-07
-0.0001826
4.81368e-07
-0.000182323
-2.77762e-07
-0.000181817
-5.06031e-07
-0.000180508
-1.30904e-06
-0.000178953
-1.55509e-06
-0.000176619
-2.3337e-06
-0.000174018
-2.60105e-06
-0.000170628
-3.38969e-06
-0.00016687
-3.75847e-06
-0.000162409
-4.46024e-06
-0.00015736
-5.04903e-06
-0.000151602
-5.7581e-06
-0.000145419
-6.18295e-06
-0.000138461
-6.95786e-06
-0.000130771
-7.69056e-06
-0.000122453
-8.318e-06
-0.000113454
-8.99901e-06
-0.000103824
-9.62948e-06
-9.34597e-05
-1.03647e-05
-8.23952e-05
-1.10645e-05
-7.06408e-05
-1.17544e-05
-5.81924e-05
-1.24484e-05
-4.51398e-05
-1.30526e-05
-3.1457e-05
-1.36828e-05
-1.7217e-05
-1.42399e-05
-2.50388e-06
-1.47132e-05
1.26378e-05
-1.51417e-05
2.80965e-05
-1.54588e-05
4.37848e-05
-1.56883e-05
5.95899e-05
-1.58051e-05
7.53905e-05
-1.58006e-05
9.1063e-05
-1.56725e-05
0.000106479
-1.54157e-05
0.000121508
-1.50292e-05
0.000136002
-1.44938e-05
0.000149827
-1.38256e-05
0.000162849
-1.30223e-05
0.000174914
-1.20641e-05
0.000185883
-1.09697e-05
0.000195637
-9.75332e-06
0.000204053
-8.41678e-06
0.000211017
-6.96356e-06
0.000216429
-5.41248e-06
0.000220232
-3.80246e-06
0.000222375
-2.14321e-06
0.000222817
-4.42243e-07
0.000221575
1.2425e-06
0.000218561
3.01427e-06
0.000213869
4.69192e-06
0.000207556
6.31301e-06
0.000199697
7.85876e-06
0.000190407
9.2897e-06
0.000179743
1.0664e-05
0.000167931
1.18124e-05
0.000155051
1.28798e-05
0.000141284
1.3767e-05
0.000126802
1.44814e-05
0.00011168
1.51224e-05
9.62041e-05
1.5476e-05
8.03454e-05
1.58587e-05
6.4468e-05
1.58773e-05
4.85151e-05
1.59529e-05
3.26978e-05
1.58173e-05
1.71053e-05
1.55925e-05
1.92537e-06
1.51799e-05
-1.29902e-05
1.49156e-05
-2.72751e-05
1.42849e-05
-4.12762e-05
1.40011e-05
-5.46178e-05
1.33416e-05
-6.75332e-05
1.29154e-05
-7.95239e-05
1.19907e-05
-9.10182e-05
1.14943e-05
-0.000101877
1.08586e-05
-0.000111985
1.01079e-05
-0.000121601
9.61629e-06
-0.00013046
8.85885e-06
-0.00013886
8.40064e-06
-0.000146607
7.74648e-06
-0.00015386
7.25304e-06
-0.000160596
6.73585e-06
-0.000166841
6.24532e-06
-0.000172606
5.7645e-06
-0.000177892
5.28671e-06
-0.000182731
4.83834e-06
-0.00018711
4.37907e-06
-0.000190988
3.87835e-06
-0.000194416
3.42806e-06
-0.000197245
2.82884e-06
-0.000199543
2.29801e-06
-0.000201399
1.85588e-06
-0.000202458
1.05929e-06
-0.000203077
6.18626e-07
-0.000202712
-3.64453e-07
-0.000201799
-9.13449e-07
-0.000199816
-1.98258e-06
-0.000197158
-2.65869e-06
-0.000193374
-3.78354e-06
-0.000188858
-4.51619e-06
-0.000183156
-5.7016e-06
-0.000176523
-6.63364e-06
-0.000168894
-7.62892e-06
-0.00016047
-8.42375e-06
-0.000150984
-9.48578e-06
-0.00014071
-1.0274e-05
-0.000129603
-1.11068e-05
-0.000117883
-1.17208e-05
-0.000105576
-1.2307e-05
-9.27026e-05
-1.2873e-05
-7.96177e-05
-1.30848e-05
-6.63325e-05
-1.32852e-05
-5.27839e-05
-1.35486e-05
-4.281e-05
-9.97388e-06
-1.12309e-05
-3.15791e-05
-3.0909e-05
2.78575e-05
-4.42368e-05
2.66536e-05
-5.70422e-05
2.56093e-05
-6.9181e-05
2.42768e-05
-8.07221e-05
2.30818e-05
-9.15667e-05
2.16894e-05
-0.000101775
2.04174e-05
-0.000111285
1.90203e-05
-0.000120148
1.77278e-05
-0.00012833
1.63643e-05
-0.000135874
1.50909e-05
-0.000142767
1.3786e-05
-0.000149045
1.25587e-05
-0.00015471
1.13306e-05
-0.000159794
1.01694e-05
-0.000164308
9.02816e-06
-0.000168263
7.91245e-06
-0.000171682
6.837e-06
-0.000174572
5.78041e-06
-0.000176948
4.75293e-06
-0.000178818
3.74101e-06
-0.000180182
2.72793e-06
-0.000181044
1.72246e-06
-0.00018142
7.51497e-07
-0.000181302
-2.40522e-07
-0.000180723
-1.15922e-06
-0.000179628
-2.19237e-06
-0.000178076
-3.10409e-06
-0.000175983
-4.18767e-06
-0.000173426
-5.11609e-06
-0.000170285
-6.28292e-06
-0.000166656
-7.25942e-06
-0.00016238
-8.55111e-06
-0.000157583
-9.59447e-06
-0.000152281
-1.06096e-05
-0.000146258
-1.20465e-05
-0.000139693
-1.31316e-05
-0.000132348
-1.46873e-05
-0.00012445
-1.57968e-05
-0.000115765
-1.73705e-05
-0.00010649
-1.85526e-05
-9.63666e-05
-2.02482e-05
-8.56553e-05
-2.14298e-05
-7.40951e-05
-2.31119e-05
-6.19951e-05
-2.42023e-05
-4.90991e-05
-2.57892e-05
-3.57204e-05
-2.67397e-05
-2.16243e-05
-2.81974e-05
-7.10861e-06
-2.90283e-05
8.01883e-06
-3.02549e-05
2.35079e-05
-3.09761e-05
3.91585e-05
-3.12963e-05
5.50544e-05
-3.17851e-05
7.09599e-05
-3.18042e-05
8.68382e-05
-3.17498e-05
0.000102475
-3.12656e-05
0.00011778
-3.05992e-05
0.000132552
-2.95367e-05
0.000146668
-2.82205e-05
0.000159939
-2.65338e-05
0.000172262
-2.46348e-05
0.000183452
-2.23738e-05
0.000193413
-1.99143e-05
0.000201979
-1.7127e-05
0.000209107
-1.42442e-05
0.000214629
-1.10383e-05
0.000218554
-7.84661e-06
0.000220749
-4.38824e-06
0.000221267
-1.02981e-06
0.000220116
2.2945e-06
0.00021711
6.01385e-06
0.000212488
9.24451e-06
0.000206242
1.24893e-05
0.000198496
1.54866e-05
0.000189302
1.83818e-05
0.000178858
2.0883e-05
0.000167175
2.33557e-05
0.000154497
2.5345e-05
0.000140893
2.72054e-05
0.000126547
2.86829e-05
0.000111578
2.99273e-05
9.62114e-05
3.07261e-05
8.05337e-05
3.13469e-05
6.47366e-05
3.1586e-05
4.89254e-05
3.1613e-05
3.31974e-05
3.14511e-05
1.76743e-05
3.10406e-05
2.46576e-06
3.04112e-05
-1.23853e-05
2.9699e-05
-2.67413e-05
2.87067e-05
-4.05808e-05
2.76754e-05
-5.38474e-05
2.65299e-05
-6.64667e-05
2.52362e-05
-7.84708e-05
2.40009e-05
-8.97405e-05
2.25412e-05
-0.000100387
2.12895e-05
-0.000110248
1.97222e-05
-0.000119495
1.84923e-05
-0.000127964
1.69399e-05
-0.000135836
1.57389e-05
-0.000142932
1.41939e-05
-0.000149459
1.30482e-05
-0.000155281
1.16519e-05
-0.000160516
1.04702e-05
-0.000165114
9.20461e-06
-0.000169151
8.07429e-06
-0.000172621
6.93548e-06
-0.000175605
5.96651e-06
-0.000178052
4.88958e-06
-0.000179902
3.70013e-06
-0.000181369
2.93512e-06
-0.00018216
1.58247e-06
-0.000182639
9.60125e-07
-0.000182359
-5.57745e-07
-0.000181854
-1.01108e-06
-0.000180544
-2.6187e-06
-0.000178996
-3.10337e-06
-0.000176655
-4.67463e-06
-0.000174056
-5.19954e-06
-0.000170667
-6.77926e-06
-0.000166907
-7.51782e-06
-0.00016245
-8.9172e-06
-0.000157411
-1.00881e-05
-0.000151653
-1.15167e-05
-0.000145466
-1.23699e-05
-0.000138503
-1.39206e-05
-0.000130812
-1.5382e-05
-0.000122497
-1.66326e-05
-0.0001135
-1.79963e-05
-0.00010387
-1.92587e-05
-9.3505e-05
-2.07301e-05
-8.24407e-05
-2.21289e-05
-7.06822e-05
-2.35129e-05
-5.82389e-05
-2.48917e-05
-4.51763e-05
-2.61152e-05
-3.14901e-05
-2.7369e-05
-1.7245e-05
-2.84851e-05
-2.52372e-06
-2.94344e-05
1.26244e-05
-3.02898e-05
2.80895e-05
-3.09239e-05
4.37859e-05
-3.13847e-05
5.95983e-05
-3.16175e-05
7.54071e-05
-3.16094e-05
9.10884e-05
-3.13538e-05
0.000106512
-3.08398e-05
0.000121552
-3.00685e-05
0.000136057
-2.89986e-05
0.000149889
-2.76582e-05
0.000162922
-2.6055e-05
0.000174996
-2.4138e-05
0.000185972
-2.19457e-05
0.000195735
-1.95165e-05
0.000204155
-1.68369e-05
0.000211124
-1.39328e-05
0.000216542
-1.08301e-05
0.000220349
-7.61005e-06
0.000222493
-4.28712e-06
0.000222939
-8.88391e-07
0.000221683
2.49856e-06
0.000218669
6.02904e-06
0.000213977
9.38397e-06
0.000207652
1.26379e-05
0.000199795
1.57155e-05
0.000190498
1.8587e-05
0.000179824
2.13378e-05
0.000168005
2.36307e-05
0.000155113
2.57727e-05
0.000141336
2.75437e-05
0.000126846
2.89715e-05
0.000111713
3.02548e-05
9.6226e-05
3.09633e-05
8.03647e-05
3.172e-05
6.44738e-05
3.17682e-05
4.85122e-05
3.19145e-05
3.26885e-05
3.1641e-05
1.70842e-05
3.11967e-05
1.90169e-06
3.03625e-05
-1.30175e-05
2.98348e-05
-2.73073e-05
2.85747e-05
-4.13142e-05
2.80079e-05
-5.46666e-05
2.6694e-05
-6.75766e-05
2.58254e-05
-7.95627e-05
2.39767e-05
-9.1058e-05
2.29896e-05
-0.00010192
2.17203e-05
-0.000112023
2.02108e-05
-0.000121646
1.92395e-05
-0.000130503
1.77159e-05
-0.000138901
1.6799e-05
-0.00014664
1.54848e-05
-0.000153901
1.4514e-05
-0.000160633
1.34688e-05
-0.000166875
1.24873e-05
-0.000172633
1.15217e-05
-0.000177919
1.05728e-05
-0.000182764
9.68405e-06
-0.000187146
8.76041e-06
-0.000191026
7.7587e-06
-0.000194456
6.85798e-06
-0.000197285
5.65737e-06
-0.000199586
4.59987e-06
-0.000201452
3.72152e-06
-0.000202515
2.12266e-06
-0.000203128
1.23147e-06
-0.000202768
-7.24363e-07
-0.000201855
-1.82723e-06
-0.000199875
-3.96185e-06
-0.000197218
-5.31568e-06
-0.000193438
-7.56404e-06
-0.000188925
-9.02908e-06
-0.000183216
-1.14109e-05
-0.000176582
-1.32668e-05
-0.00016896
-1.52517e-05
-0.000160532
-1.68516e-05
-0.000151033
-1.89848e-05
-0.000140752
-2.05547e-05
-0.000129641
-2.22178e-05
-0.000117919
-2.34433e-05
-0.000105598
-2.46275e-05
-9.27213e-05
-2.57498e-05
-7.96168e-05
-2.61894e-05
-6.63521e-05
-2.65499e-05
-5.24585e-05
-2.74423e-05
-4.07572e-05
-2.16752e-05
-2.55572e-05
-2.64309e-05
-3.09707e-05
4.17933e-05
-4.43029e-05
3.99859e-05
-5.71118e-05
3.84182e-05
-6.9253e-05
3.64179e-05
-8.07953e-05
3.46242e-05
-9.164e-05
3.25341e-05
-0.000101848
3.06252e-05
-0.000111356
2.85283e-05
-0.000120217
2.65886e-05
-0.000128395
2.45427e-05
-0.000135936
2.2632e-05
-0.000142825
2.06749e-05
-0.0001491
1.88343e-05
-0.000154762
1.69919e-05
-0.000159842
1.525e-05
-0.000164352
1.35384e-05
-0.000168305
1.18654e-05
-0.000171721
1.0253e-05
-0.00017461
8.66862e-06
-0.000176984
7.12785e-06
-0.000178853
5.60969e-06
-0.000180219
4.09377e-06
-0.000181087
2.59071e-06
-0.000181468
1.13278e-06
-0.000181354
-3.55295e-07
-0.000180776
-1.73729e-06
-0.000179683
-3.28543e-06
-0.000178131
-4.65558e-06
-0.00017604
-6.27875e-06
-0.000173486
-7.67028e-06
-0.000170346
-9.42299e-06
-0.000166719
-1.08867e-05
-0.000162446
-1.28235e-05
-0.00015765
-1.4391e-05
-0.00015235
-1.59087e-05
-0.000146331
-1.80664e-05
-0.000139768
-1.96944e-05
-0.000132424
-2.20313e-05
-0.000124534
-2.36868e-05
-0.000115842
-2.60619e-05
-0.00010657
-2.7825e-05
-9.64467e-05
-3.03715e-05
-8.57379e-05
-3.21387e-05
-7.41728e-05
-3.46769e-05
-6.20726e-05
-3.63025e-05
-4.91708e-05
-3.8691e-05
-3.57644e-05
-4.01462e-05
-2.16825e-05
-4.22793e-05
-7.16227e-06
-4.35485e-05
7.97258e-06
-4.53897e-05
2.34685e-05
-4.64721e-05
3.91289e-05
-4.69568e-05
5.50363e-05
-4.76925e-05
7.09538e-05
-4.77217e-05
8.68459e-05
-4.7642e-05
0.000102496
-4.69156e-05
0.000117816
-4.59195e-05
0.000132605
-4.43256e-05
0.000146738
-4.23532e-05
0.000160024
-3.98205e-05
0.000172364
-3.6974e-05
0.000183568
-3.35781e-05
0.000193545
-2.98917e-05
0.00020212
-2.57019e-05
0.000209261
-2.13851e-05
0.000214788
-1.65648e-05
0.000218722
-1.17812e-05
0.000220921
-6.58736e-06
0.000221442
-1.55048e-06
0.000220285
3.45192e-06
0.000217287
9.01103e-06
0.000212667
1.38647e-05
0.000206414
1.87421e-05
0.000198656
2.32454e-05
0.000189451
2.75868e-05
0.000178991
3.13426e-05
0.000167289
3.50576e-05
0.000154585
3.80492e-05
0.000140976
4.08139e-05
0.000126617
4.30421e-05
0.00011163
4.49148e-05
9.62468e-05
4.61089e-05
8.05537e-05
4.70399e-05
6.47403e-05
4.73994e-05
4.89103e-05
4.74431e-05
3.31751e-05
4.71863e-05
1.76428e-05
4.6573e-05
2.42424e-06
4.56298e-05
-1.24293e-05
4.45525e-05
-2.67915e-05
4.30689e-05
-4.06362e-05
4.15201e-05
-5.39057e-05
3.97994e-05
-6.65309e-05
3.78613e-05
-7.85415e-05
3.60115e-05
-8.98087e-05
3.38085e-05
-0.000100457
3.19374e-05
-0.000110318
2.95833e-05
-0.000119576
2.77501e-05
-0.00012803
2.53948e-05
-0.000135909
2.3617e-05
-0.000142998
2.12834e-05
-0.000149533
1.95835e-05
-0.00015534
1.74582e-05
-0.000160575
1.57056e-05
-0.00016516
1.37894e-05
-0.000169201
1.21159e-05
-0.000172674
1.04078e-05
-0.000175661
8.95355e-06
-0.000178111
7.33946e-06
-0.000179963
5.5527e-06
-0.000181429
4.4005e-06
-0.00018222
2.37339e-06
-0.000182696
1.43683e-06
-0.000182412
-8.42391e-07
-0.000181907
-1.5152e-06
-0.000180598
-3.92827e-06
-0.000179059
-4.64219e-06
-0.00017671
-7.02372e-06
-0.000174113
-7.79691e-06
-0.000170729
-1.01631e-05
-0.000166967
-1.128e-05
-0.000162508
-1.33756e-05
-0.0001575
-1.50959e-05
-0.000151749
-1.72679e-05
-0.000145532
-1.85871e-05
-0.000138565
-2.08876e-05
-0.000130878
-2.3069e-05
-0.000122574
-2.49365e-05
-0.00011358
-2.69902e-05
-0.000103951
-2.88878e-05
-9.35848e-05
-3.10967e-05
-8.25214e-05
-3.31922e-05
-7.07569e-05
-3.52774e-05
-5.83209e-05
-3.73277e-05
-4.52434e-05
-3.91928e-05
-3.15519e-05
-4.10604e-05
-1.72973e-05
-4.27398e-05
-2.56064e-06
-4.41711e-05
1.25989e-05
-4.54493e-05
2.80753e-05
-4.64003e-05
4.37836e-05
-4.7093e-05
5.961e-05
-4.7444e-05
7.54332e-05
-4.74326e-05
9.11304e-05
-4.7051e-05
0.00010657
-4.62798e-05
0.000121626
-4.51243e-05
0.000136151
-4.35234e-05
0.000149997
-4.15045e-05
0.000163049
-3.91064e-05
0.000175139
-3.62281e-05
0.000186125
-3.29322e-05
0.000195905
-2.92966e-05
0.00020433
-2.52612e-05
0.000211311
-2.09147e-05
0.000216744
-1.62629e-05
0.00022056
-1.14254e-05
0.000222701
-6.42818e-06
0.000223147
-1.33475e-06
0.000221865
3.78083e-06
0.000218851
9.04234e-06
0.000214158
1.4077e-05
0.000207824
1.89725e-05
0.00019996
2.35791e-05
0.000190648
2.78991e-05
0.000179957
3.20288e-05
0.000168129
3.54589e-05
0.000155212
3.86896e-05
0.000141418
4.13377e-05
0.000126911
4.34781e-05
0.000111762
4.54046e-05
9.62535e-05
4.64714e-05
8.03886e-05
4.7585e-05
6.44753e-05
4.76815e-05
4.84999e-05
4.78899e-05
3.26647e-05
4.74762e-05
1.7043e-05
4.68183e-05
1.8556e-06
4.55499e-05
-1.30677e-05
4.47581e-05
-2.73673e-05
4.28743e-05
-4.13791e-05
4.20197e-05
-5.47465e-05
4.00615e-05
-6.76503e-05
3.87291e-05
-7.96254e-05
3.59519e-05
-9.11203e-05
3.44845e-05
-0.000101987
3.25875e-05
-0.000112079
3.03025e-05
-0.000121715
2.88757e-05
-0.000130566
2.65669e-05
-0.000138966
2.51985e-05
-0.000146695
2.32139e-05
-0.000153959
2.1778e-05
-0.00016068
2.019e-05
-0.000166919
1.87264e-05
-0.000172673
1.72755e-05
-0.000177954
1.58533e-05
-0.000182807
1.45373e-05
-0.000187193
1.31466e-05
-0.000191079
1.16448e-05
-0.000194529
1.0308e-05
-0.000197336
8.4642e-06
-0.000199648
6.91149e-06
-0.000201532
5.60557e-06
-0.000202605
3.19636e-06
-0.00020321
1.83642e-06
-0.000202857
-1.07802e-06
-0.000201943
-2.74082e-06
-0.000199971
-5.93438e-06
-0.000197319
-7.96767e-06
-0.000193546
-1.13365e-05
-0.000189032
-1.35433e-05
-0.000183319
-1.71243e-05
-0.000176711
-1.98739e-05
-0.000169081
-2.28825e-05
-0.000160621
-2.53114e-05
-0.000151105
-2.85005e-05
-0.000140823
-3.08364e-05
-0.00012971
-3.33308e-05
-0.000117981
-3.51725e-05
-0.000105647
-3.69616e-05
-9.27588e-05
-3.86382e-05
-7.95713e-05
-3.93769e-05
-6.6354e-05
-3.97672e-05
-5.2552e-05
-4.12443e-05
-4.07539e-05
-3.34733e-05
-3.94228e-05
-2.68883e-05
-3.10632e-05
5.57378e-05
-4.44021e-05
5.33248e-05
-5.72161e-05
5.12322e-05
-6.93607e-05
4.85625e-05
-8.0905e-05
4.61685e-05
-9.17503e-05
4.33794e-05
-0.000101957
4.08322e-05
-0.000111463
3.80343e-05
-0.000120321
3.54465e-05
-0.000128496
3.27175e-05
-0.000136033
3.01692e-05
-0.000142918
2.75598e-05
-0.00014919
2.5106e-05
-0.000154847
2.26493e-05
-0.000159924
2.03264e-05
-0.00016443
1.80449e-05
-0.00016838
1.58147e-05
-0.000171793
1.3666e-05
-0.000174678
1.15542e-05
-0.000177051
9.50046e-06
-0.000178918
7.47665e-06
-0.000180285
5.46074e-06
-0.00018116
3.46625e-06
-0.000181547
1.5191e-06
-0.000181433
-4.68679e-07
-0.000180856
-2.31443e-06
-0.000179765
-4.37662e-06
-0.000178215
-6.20599e-06
-0.000176125
-8.36785e-06
-0.000173575
-1.02211e-05
-0.000170436
-1.25612e-05
-0.000166813
-1.45097e-05
-0.000162546
-1.70912e-05
-0.000157749
-1.91874e-05
-0.000152455
-2.12032e-05
-0.000146436
-2.40849e-05
-0.00013988
-2.62504e-05
-0.000132548
-2.93634e-05
-0.000124659
-3.15762e-05
-0.000115958
-3.47631e-05
-0.000106689
-3.70938e-05
-9.6566e-05
-4.04945e-05
-8.5854e-05
-4.28507e-05
-7.42888e-05
-4.62422e-05
-6.21869e-05
-4.84043e-05
-4.92769e-05
-5.16011e-05
-3.58552e-05
-5.35679e-05
-2.17682e-05
-5.63662e-05
-7.24194e-06
-5.80748e-05
7.90615e-06
-6.05378e-05
2.34145e-05
-6.19804e-05
3.90907e-05
-6.2633e-05
5.50163e-05
-6.36181e-05
7.09537e-05
-6.36591e-05
8.6868e-05
-6.35564e-05
0.000102541
-6.25886e-05
0.000117885
-6.12632e-05
0.000132696
-5.91371e-05
0.000146857
-5.65144e-05
0.00016017
-5.31327e-05
0.000172533
-4.9337e-05
0.000183758
-4.48032e-05
0.000193759
-3.98929e-05
0.000202347
-3.42903e-05
0.000209508
-2.85455e-05
0.000215043
-2.21e-05
0.000218988
-1.57263e-05
0.00022119
-8.78917e-06
0.00022171
-2.07056e-06
0.000220549
4.61229e-06
0.000217559
1.20011e-05
0.000212936
1.84882e-05
0.000206672
2.50058e-05
0.000198895
3.10229e-05
0.000189674
3.68075e-05
0.000179173
4.18434e-05
0.00016746
4.67703e-05
0.000154725
5.07849e-05
0.000141083
5.44556e-05
0.000126712
5.74133e-05
0.000111706
5.99206e-05
9.62985e-05
6.15163e-05
8.0584e-05
6.27544e-05
6.47448e-05
6.32386e-05
4.88898e-05
6.32981e-05
3.31408e-05
6.29352e-05
1.75938e-05
6.212e-05
2.36151e-06
6.0862e-05
-1.25005e-05
5.94145e-05
-2.68709e-05
5.74393e-05
-4.0724e-05
5.53732e-05
-5.40011e-05
5.30766e-05
-6.66315e-05
5.04917e-05
-7.86504e-05
4.80304e-05
-8.99159e-05
4.5074e-05
-0.000100567
4.25881e-05
-0.000110426
3.94429e-05
-0.000119697
3.70212e-05
-0.000128134
3.38317e-05
-0.000136017
3.14993e-05
-0.000143101
2.83681e-05
-0.000149641
2.61233e-05
-0.000155423
2.324e-05
-0.000160671
2.09536e-05
-0.000165252
1.8371e-05
-0.000169295
1.61582e-05
-0.00017276
1.38726e-05
-0.000175734
1.19278e-05
-0.000178196
9.80215e-06
-0.000180053
7.40916e-06
-0.000181515
5.86265e-06
-0.000182308
3.16595e-06
-0.000182786
1.91549e-06
-0.000182492
-1.13669e-06
-0.00018199
-2.01721e-06
-0.000180679
-5.239e-06
-0.000179152
-6.16994e-06
-0.000176805
-9.36995e-06
-0.000174194
-1.04079e-05
-0.000170828
-1.35299e-05
-0.000167063
-1.50443e-05
-0.000162584
-1.78547e-05
-0.000157629
-2.00515e-05
-0.000151873
-2.30235e-05
-0.00014562
-2.48397e-05
-0.000138674
-2.7834e-05
-0.000130996
-3.07469e-05
-0.000122705
-3.32274e-05
-0.000113704
-3.59907e-05
-0.000104072
-3.85203e-05
-9.37023e-05
-4.14663e-05
-8.26402e-05
-4.42544e-05
-7.08665e-05
-4.70512e-05
-5.84369e-05
-4.97573e-05
-4.53436e-05
-5.22861e-05
-3.16459e-05
-5.47581e-05
-1.73774e-05
-5.70083e-05
-2.5986e-06
-5.89499e-05
1.25531e-05
-6.06011e-05
2.80454e-05
-6.18926e-05
4.37714e-05
-6.2819e-05
5.9618e-05
-6.32905e-05
7.54631e-05
-6.32777e-05
9.11832e-05
-6.27711e-05
0.000106648
-6.17441e-05
0.000121727
-6.02036e-05
0.00013628
-5.80771e-05
0.000150157
-5.5381e-05
0.000163227
-5.21764e-05
0.00017534
-4.8341e-05
0.000186345
-4.39374e-05
0.00019615
-3.91018e-05
0.000204588
-3.36985e-05
0.000211581
-2.79083e-05
0.000217034
-2.17162e-05
0.000220861
-1.5252e-05
0.000223007
-8.5745e-06
0.00022345
-1.77708e-06
0.000222142
5.08872e-06
0.000219129
1.20552e-05
0.00021443
1.87755e-05
0.00020808
2.53224e-05
0.000200207
3.14529e-05
0.000190873
3.72326e-05
0.000180156
4.27463e-05
0.000168313
4.73014e-05
0.000155362
5.1641e-05
0.000141541
5.51588e-05
0.000127009
5.80097e-05
0.000111835
6.05785e-05
9.62883e-05
6.20182e-05
8.0414e-05
6.34593e-05
6.44708e-05
6.36247e-05
4.84795e-05
6.38812e-05
3.26312e-05
6.33245e-05
1.69837e-05
6.24659e-05
1.78298e-06
6.07506e-05
-1.31435e-05
5.96845e-05
-2.74565e-05
5.71873e-05
-4.14735e-05
5.60368e-05
-5.48599e-05
5.34479e-05
-6.77557e-05
5.16249e-05
-7.97221e-05
4.79182e-05
-9.12263e-05
4.59888e-05
-0.000102091
4.34519e-05
-0.000112181
4.03929e-05
-0.000121821
3.85152e-05
-0.000130659
3.54055e-05
-0.000139063
3.36018e-05
-0.000146778
3.09297e-05
-0.000154045
2.90448e-05
-0.000160755
2.68997e-05
-0.000166994
2.4965e-05
-0.000172755
2.30372e-05
-0.000178032
2.11295e-05
-0.000182878
1.93836e-05
-0.00018727
1.75385e-05
-0.000191165
1.55401e-05
-0.000194632
1.37753e-05
-0.00019741
1.12423e-05
-0.000199756
9.2571e-06
-0.000201649
7.49835e-06
-0.000202734
4.28204e-06
-0.000203337
2.43864e-06
-0.000202989
-1.4259e-06
-0.000202077
-3.6522e-06
-0.000200111
-7.90093e-06
-0.000197473
-1.06056e-05
-0.000193708
-1.51013e-05
-0.000189172
-1.80789e-05
-0.000183477
-2.28198e-05
-0.000176915
-2.64353e-05
-0.000169247
-3.05511e-05
-0.000160739
-3.38191e-05
-0.000151219
-3.80209e-05
-0.00014096
-4.10947e-05
-0.000129839
-4.44519e-05
-0.000118075
-4.6937e-05
-0.000105711
-4.93253e-05
-9.2826e-05
-5.15233e-05
-7.95428e-05
-5.26601e-05
-6.62318e-05
-5.30781e-05
-5.25778e-05
-5.48983e-05
-4.05034e-05
-4.55477e-05
-5.20851e-05
-2.7841e-05
-3.11866e-05
6.96936e-05
-4.45342e-05
6.66723e-05
-5.73547e-05
6.40528e-05
-6.95038e-05
6.07116e-05
-8.10509e-05
5.77157e-05
-9.18973e-05
5.42258e-05
-0.000102104
5.1039e-05
-0.000111609
4.7539e-05
-0.000120464
4.4302e-05
-0.000128636
4.08892e-05
-0.00013617
3.7703e-05
-0.000143051
3.44409e-05
-0.000149319
3.1374e-05
-0.000154973
2.8303e-05
-0.000160046
2.53996e-05
-0.000164548
2.25474e-05
-0.000168494
1.97604e-05
-0.000171903
1.70755e-05
-0.000174787
1.44375e-05
-0.000177157
1.18703e-05
-0.000179022
9.342e-06
-0.000180388
6.82683e-06
-0.000181265
4.34287e-06
-0.000181653
1.907e-06
-0.000181539
-5.8252e-07
-0.000180963
-2.88999e-06
-0.000179874
-5.46544e-06
-0.000178328
-7.75278e-06
-0.000176239
-1.04565e-05
-0.000173691
-1.27688e-05
-0.000170554
-1.5698e-05
-0.00016694
-1.81241e-05
-0.000162684
-2.13467e-05
-0.000157882
-2.39894e-05
-0.000152594
-2.64917e-05
-0.000146583
-3.00961e-05
-0.00014003
-3.2803e-05
-0.000132709
-3.66848e-05
-0.000124822
-3.94633e-05
-0.000116116
-4.34687e-05
-0.000106845
-4.63648e-05
-9.67246e-05
-5.0615e-05
-8.60035e-05
-5.35718e-05
-7.44442e-05
-5.78015e-05
-6.23374e-05
-6.05111e-05
-4.94164e-05
-6.45221e-05
-3.59808e-05
-6.70036e-05
-2.1879e-05
-7.04679e-05
-7.3467e-06
-7.26072e-05
7.82074e-06
-7.57053e-05
2.3348e-05
-7.75076e-05
3.90462e-05
-7.83313e-05
5.49967e-05
-7.95686e-05
7.09646e-05
-7.96269e-05
8.69102e-05
-7.95021e-05
0.000102617
-7.82952e-05
0.000117993
-7.66392e-05
0.00013284
-7.39842e-05
0.000147036
-7.07102e-05
0.000160383
-6.64796e-05
0.000172778
-6.17324e-05
0.000184034
-5.6059e-05
0.000194064
-4.99229e-05
0.000202682
-4.29081e-05
0.000209856
-3.57202e-05
0.000215405
-2.76487e-05
0.000219361
-1.96827e-05
0.000221568
-1.09956e-05
0.000222087
-2.59e-06
0.000220926
5.77398e-06
0.00021793
1.49963e-05
0.000213296
2.31225e-05
0.000207016
3.12854e-05
0.000199213
3.88258e-05
0.000189979
4.60417e-05
0.000179429
5.23937e-05
0.00016769
5.85087e-05
0.000154918
6.35571e-05
0.00014124
6.81342e-05
0.000126828
7.18253e-05
0.000111809
7.49391e-05
9.63657e-05
7.69597e-05
8.06279e-05
7.84922e-05
6.47492e-05
7.91173e-05
4.88638e-05
7.91835e-05
3.3093e-05
7.87059e-05
1.75252e-05
7.76879e-05
2.2746e-06
7.61126e-05
-1.26039e-05
7.4293e-05
-2.6986e-05
7.18214e-05
-4.08488e-05
6.9236e-05
-5.41379e-05
6.63656e-05
-6.67727e-05
6.31265e-05
-7.87994e-05
6.0057e-05
-9.00686e-05
5.63432e-05
-0.000100733
5.32521e-05
-0.000110588
4.92978e-05
-0.000119857
4.62912e-05
-0.000128281
4.22554e-05
-0.000136161
3.93795e-05
-0.000143243
3.54502e-05
-0.000149784
3.26641e-05
-0.000155558
2.90142e-05
-0.000160793
2.61885e-05
-0.000165384
2.29621e-05
-0.000169434
2.02077e-05
-0.000172882
1.73208e-05
-0.000175851
1.48969e-05
-0.000178311
1.22619e-05
-0.000180172
9.27034e-06
-0.00018163
7.32007e-06
-0.000182423
3.95927e-06
-0.000182899
2.39132e-06
-0.000182611
-1.42442e-06
-0.000182101
-2.52686e-06
-0.000180789
-6.55174e-06
-0.000179271
-7.68736e-06
-0.000176948
-1.16932e-05
-0.000174309
-1.30473e-05
-0.000170945
-1.68935e-05
-0.000167183
-1.88068e-05
-0.0001627
-2.23377e-05
-0.000157786
-2.49655e-05
-0.000152009
-2.87996e-05
-0.000145744
-3.11047e-05
-0.000138845
-3.4733e-05
-0.000131159
-3.84335e-05
-0.000122875
-4.15112e-05
-0.000113866
-4.49995e-05
-0.000104233
-4.81538e-05
-9.3856e-05
-5.18431e-05
-8.27989e-05
-5.53115e-05
-7.09976e-05
-5.88525e-05
-5.85866e-05
-6.21684e-05
-4.5478e-05
-6.53946e-05
-3.17725e-05
-6.84637e-05
-1.74877e-05
-7.12931e-05
-2.69032e-06
-7.37473e-05
1.248e-05
-7.57714e-05
2.79925e-05
-7.74051e-05
4.37415e-05
-7.8568e-05
5.96138e-05
-7.91628e-05
7.54891e-05
-7.91531e-05
9.12395e-05
-7.85215e-05
0.000106736
-7.72406e-05
0.000121846
-7.5314e-05
0.000136435
-7.26657e-05
0.000150348
-6.92938e-05
0.000163447
-6.52762e-05
0.00017559
-6.0484e-05
0.000186624
-5.49705e-05
0.000196458
-4.89358e-05
0.000204917
-4.2158e-05
0.000211934
-3.4925e-05
0.000217403
-2.71851e-05
0.000221253
-1.91022e-05
0.000223396
-1.07173e-05
0.00022384
-2.22123e-06
0.000222517
6.41113e-06
0.000219503
1.50692e-05
0.000214791
2.34878e-05
0.000208422
3.16916e-05
0.000200533
3.93418e-05
0.000191171
4.65943e-05
0.000180419
5.34984e-05
0.000168556
5.91641e-05
0.000155591
6.46064e-05
0.000141703
6.90468e-05
0.000127138
7.25743e-05
0.000111934
7.57823e-05
9.63145e-05
7.7638e-05
8.04427e-05
7.93311e-05
6.44458e-05
7.96216e-05
4.84515e-05
7.98755e-05
3.25867e-05
7.91893e-05
1.6908e-05
7.81446e-05
1.68138e-06
7.59772e-05
-1.32464e-05
7.46123e-05
-2.75742e-05
7.15151e-05
-4.15915e-05
7.0054e-05
-5.50012e-05
6.68576e-05
-6.78949e-05
6.45186e-05
-7.98729e-05
5.98962e-05
-9.13712e-05
5.74871e-05
-0.000102233
5.43133e-05
-0.000112318
5.0478e-05
-0.000121955
4.81526e-05
-0.000130783
4.42329e-05
-0.000139189
4.20081e-05
-0.000146893
3.86341e-05
-0.000154161
3.63123e-05
-0.000160857
3.35963e-05
-0.000167092
3.12e-05
-0.000172866
2.88107e-05
-0.000178144
2.6408e-05
-0.000182977
2.42164e-05
-0.00018739
2.19514e-05
-0.000191286
1.9436e-05
-0.000194758
1.72473e-05
-0.000197529
1.40135e-05
-0.000199905
1.16333e-05
-0.000201805
9.39845e-06
-0.000202894
5.37122e-06
-0.000203502
3.04604e-06
-0.000203166
-1.76171e-06
-0.000202256
-4.56267e-06
-0.000200299
-9.85753e-06
-0.00019768
-1.3225e-05
-0.000193919
-1.88616e-05
-0.000189371
-2.26272e-05
-0.000183682
-2.85088e-05
-0.000177155
-3.29625e-05
-0.000169459
-3.82469e-05
-0.00016092
-4.23585e-05
-0.000151402
-4.75381e-05
-0.000141156
-5.13413e-05
-0.000130005
-5.56028e-05
-0.000118201
-5.87409e-05
-0.000105806
-6.17199e-05
-9.28948e-05
-6.44349e-05
-7.95433e-05
-6.60116e-05
-6.62446e-05
-6.63768e-05
-5.25432e-05
-6.85997e-05
-4.00762e-05
-5.80148e-05
-6.45548e-05
-2.76065e-05
-3.13412e-05
8.36636e-05
-4.46995e-05
8.00305e-05
-5.75281e-05
7.68814e-05
-6.96827e-05
7.28661e-05
-8.12332e-05
6.92662e-05
-9.2081e-05
6.50736e-05
-0.000102288
6.12457e-05
-0.000111791
5.70422e-05
-0.000120644
5.31552e-05
-0.000128813
4.90578e-05
-0.000136343
4.5233e-05
-0.00014322
4.1318e-05
-0.000149484
3.76379e-05
-0.000155133
3.39526e-05
-0.000160202
3.04683e-05
-0.0001647
2.70458e-05
-0.000168642
2.3702e-05
-0.000172049
2.0482e-05
-0.000174928
1.73175e-05
-0.000177296
1.4238e-05
-0.000179159
1.12047e-05
-0.000180524
8.19182e-06
-0.000181397
5.21627e-06
-0.000181785
2.29488e-06
-0.00018167
-6.97645e-07
-0.000181096
-3.46351e-06
-0.000180008
-6.55412e-06
-0.000178467
-9.29378e-06
-0.00017638
-1.25433e-05
-0.000173834
-1.53145e-05
-0.000170695
-1.88376e-05
-0.000167097
-2.17215e-05
-0.000162854
-2.55898e-05
-0.000158049
-2.87944e-05
-0.000152768
-3.17732e-05
-0.000146762
-3.61018e-05
-0.000140217
-3.93483e-05
-0.000132904
-4.39979e-05
-0.000125022
-4.73456e-05
-0.000116327
-5.21636e-05
-0.000107032
-5.56597e-05
-9.69232e-05
-6.07235e-05
-8.62016e-05
-6.42934e-05
-7.46433e-05
-6.93598e-05
-6.2525e-05
-7.26293e-05