/*--------------------------------*- C++ -*----------------------------------*\
| =========                 |                                                 |
| \\      /  F ield         | OpenFOAM: The Open Source CFD Toolbox           |
|  \\    /   O peration     | Version:  3.0.1                                 |
|   \\  /    A nd           | Web:      www.OpenFOAM.org                      |
|    \\/     M anipulation  |                                                 |
\*---------------------------------------------------------------------------*/
FoamFile
{
    version     2.0;
    format      ascii;
    class       volScalarField;
    location    "18.2";
    object      p;
}
// * * * * * * * * * * * * * * * * * * * * * * * * * * * * * * * * * * * * * //

dimensions      [1 -1 -2 0 0 0 0];

internalField   nonuniform List<scalar> 
21420
(
3836.82
3808.96
3780.92
3753.66
3727.67
3703.16
3680.31
3659.17
3639.81
3622.23
3606.42
3592.35
3579.97
3569.25
3560.15
3552.61
3546.6
3542.08
3539.03
3537.48
3537.4
3538.74
3541.51
3545.76
3551.51
3558.75
3567.56
3577.96
3590
3603.74
3619.22
3636.47
3655.56
3676.47
3699.22
3723.81
3750.17
3778.2
3807.82
3838.88
3871.16
3903.89
3937.6
3971.74
4005.99
4039.92
4073.11
4105.2
4135.76
4164.37
4190.67
4214.3
4234.96
4252.35
4266.23
4276.42
4282.78
4285.19
4283.61
4278
4268.49
4255.18
4238.24
4217.93
4194.51
4168.27
4139.61
4108.9
4076.54
4042.96
4008.57
3973.76
3938.93
3904.39
3870.43
3837.45
3805.66
3775.26
3746.43
3719.32
3694.02
3670.61
3649.14
3629.66
3612.15
3596.63
3583.07
3571.44
3561.7
3553.79
3547.67
3543.25
3540.46
3539.26
3539.6
3541.35
3544.51
3549.03
3554.9
3562.09
3570.64
3580.55
3591.87
3604.61
3618.83
3634.56
3651.83
3670.65
3691.04
3712.99
3736.48
3761.47
3787.88
3815.64
3844.62
3874.69
3905.68
3937.37
3969.52
4001.86
4034.08
4065.86
4096.82
4126.57
4154.73
4180.87
4204.6
4225.52
4243.29
4257.57
4268.11
4274.69
4277.13
4275.43
4269.51
4259.51
4245.51
4227.74
4206.47
4182.02
4154.75
4125.1
4093.49
4060.4
4026.29
3991.64
3956.89
3922.48
3888.78
3856.13
3824.79
3795
3766.92
3740.64
3716.25
3693.77
3673.18
3654.45
3637.53
3622.36
3608.88
3597
3586.65
3577.77
3570.31
3564.22
3559.43
3555.93
3553.68
3552.7
3552.98
3554.5
3557.31
3561.44
3566.94
3573.88
3582.3
3592.3
3603.93
3617.27
3632.37
3649.28
3668.04
3688.65
3711.11
3735.38
3761.38
3789
3818.11
3848.52
3880.02
3912.37
3945.24
3978.34
4011.32
4043.83
4075.48
4105.89
4134.69
4161.49
4185.96
4207.74
4226.55
4242.11
4254.21
4262.68
4267.4
4268.26
4265.37
4258.67
4248.28
4234.35
4217.04
4196.59
4173.24
4147.3
4119.08
4088.93
4057.21
4024.3
3990.61
3956.52
3922.41
3888.68
3855.67
3823.69
3793.04
3763.96
3736.64
3711.22
3687.83
3666.5
3647.26
3630.11
3614.99
3601.85
3590.6
3581.14
3573.39
3567.24
3562.6
3559.36
3557.45
3556.84
3557.43
3559.18
3562.1
3566.18
3571.44
3577.91
3585.64
3594.7
3605.15
3617.08
3630.56
3645.68
3662.51
3681.1
3701.5
3723.72
3747.75
3773.55
3801.01
3830.01
3860.38
3891.91
3924.34
3957.27
3990.39
4023.34
4055.7
4087.06
4117.02
4145.15
4171.08
4194.44
4214.9
4232.15
4245.95
4256.14
4262.54
4265.07
4263.93
4258.96
4250.22
4237.83
4222.04
4203.05
4181.15
4156.68
4129.95
4101.32
4071.21
4039.95
4007.9
3975.42
3942.77
3910.23
3882.77
3852.14
3822.44
3793.87
3766.63
3740.84
3716.59
3693.98
3673.05
3653.84
3636.37
3620.63
3606.61
3594.3
3583.65
3574.64
3567.22
3561.37
3557.06
3554.27
3553.03
3553.53
3555.55
3559.11
3564.2
3570.85
3579.08
3588.89
3600.31
3613.35
3628.01
3644.31
3662.24
3681.78
3702.91
3725.59
3749.72
3775.23
3801.98
3829.82
3858.6
3888.09
3918.1
3948.4
3978.71
4008.76
4038.23
4066.79
4094.13
4119.88
4143.69
4165.26
4184.28
4200.49
4213.63
4223.51
4229.99
4232.99
4232.47
3738.66
3710.79
3682.74
3655.48
3629.49
3604.98
3582.13
3560.99
3541.63
3524.06
3508.25
3494.17
3481.8
3471.09
3461.98
3454.45
3448.44
3443.93
3440.88
3439.32
3439.24
3440.58
3443.36
3447.61
3453.35
3460.59
3469.4
3479.8
3491.83
3505.57
3521.04
3538.3
3557.38
3578.29
3601.04
3625.63
3651.99
3680.02
3709.65
3740.71
3773
3805.74
3839.46
3873.61
3907.88
3941.82
3975.03
4007.14
4037.71
4066.34
4092.66
4116.31
4136.97
4154.38
4168.27
4178.47
4184.84
4187.25
4185.66
4180.05
4170.53
4157.21
4140.26
4119.94
4096.5
4070.25
4041.57
4010.84
3978.46
3944.87
3910.45
3875.64
3840.79
3806.24
3772.27
3739.28
3707.48
3677.08
3648.25
3621.13
3595.83
3572.42
3550.96
3531.47
3513.97
3498.45
3484.89
3473.26
3463.52
3455.62
3449.5
3445.08
3442.29
3441.1
3441.44
3443.2
3446.35
3450.87
3456.74
3463.94
3472.48
3482.4
3493.71
3506.45
3520.67
3536.39
3553.66
3572.48
3592.87
3614.82
3638.31
3663.3
3689.71
3717.47
3746.46
3776.53
3807.53
3839.23
3871.39
3903.74
3935.98
3967.76
3998.74
4028.52
4056.69
4082.85
4106.59
4127.54
4145.32
4159.62
4170.17
4176.75
4179.2
4177.49
4171.57
4161.56
4147.55
4129.77
4108.48
4084.01
4056.73
4027.05
3995.42
3962.31
3928.18
3893.51
3858.75
3824.32
3790.62
3757.95
3726.61
3696.82
3668.73
3642.46
3618.07
3595.58
3575
3556.27
3539.36
3524.19
3510.71
3498.83
3488.49
3479.62
3472.16
3466.06
3461.28
3457.78
3455.53
3454.55
3454.83
3456.35
3459.16
3463.28
3468.78
3475.71
3484.14
3494.13
3505.76
3519.09
3534.19
3551.1
3569.86
3590.47
3612.93
3637.2
3663.2
3690.83
3719.94
3750.36
3781.86
3814.22
3847.11
3880.22
3913.21
3945.73
3977.4
4007.83
4036.64
4063.47
4087.95
4109.75
4128.56
4144.14
4156.25
4164.73
4169.45
4170.31
4167.41
4160.71
4150.32
4136.37
4119.06
4098.59
4075.23
4049.27
4021.04
3990.87
3959.13
3926.21
3892.5
3858.39
3824.27
3790.53
3757.5
3725.52
3694.86
3665.77
3638.45
3613.03
3589.63
3568.31
3549.07
3531.92
3516.81
3503.67
3492.43
3482.98
3475.22
3469.08
3464.44
3461.2
3459.3
3458.69
3459.28
3461.04
3463.96
3468.03
3473.29
3479.76
3487.49
3496.54
3506.99
3518.91
3532.39
3547.51
3564.33
3582.92
3603.32
3625.54
3649.57
3675.36
3702.83
3731.84
3762.22
3793.75
3826.19
3859.14
3892.28
3925.23
3957.61
3989
4018.97
4047.12
4073.07
4096.44
4116.92
4134.18
4147.99
4158.18
4164.59
4167.13
4165.97
4161.01
4152.26
4139.86
4124.05
4105.05
4083.14
4058.65
4031.9
4003.26
3973.13
3941.86
3909.79
3877.3
3844.64
3812.11
3784.6
3753.98
3724.27
3695.7
3668.46
3642.66
3618.41
3595.8
3574.87
3555.66
3538.19
3522.45
3508.44
3496.13
3485.48
3476.47
3469.06
3463.21
3458.9
3456.11
3454.87
3455.37
3457.39
3460.95
3466.04
3472.69
3480.91
3490.72
3502.15
3515.18
3529.84
3546.14
3564.07
3583.61
3604.74
3627.42
3651.56
3677.07
3703.82
3731.67
3760.45
3789.95
3819.97
3850.28
3880.6
3910.66
3940.14
3968.72
3996.07
4021.84
4045.66
4067.25
4086.29
4102.5
4115.65
4125.54
4132.03
4135.03
4134.5
3640.44
3612.55
3584.49
3557.22
3531.22
3506.72
3483.86
3462.73
3443.38
3425.81
3410
3395.93
3383.57
3372.86
3363.76
3356.22
3350.22
3345.71
3342.66
3341.11
3341.02
3342.36
3345.14
3349.39
3355.13
3362.37
3371.17
3381.56
3393.59
3407.32
3422.79
3440.04
3459.12
3480.03
3502.78
3527.36
3553.72
3581.77
3611.4
3642.47
3674.77
3707.54
3741.28
3775.46
3809.75
3843.72
3876.97
3909.11
3939.72
3968.38
3994.73
4018.42
4039.11
4056.54
4070.45
4080.67
4087.04
4089.48
4087.86
4082.25
4072.72
4059.38
4042.41
4022.06
3998.59
3972.3
3943.59
3912.82
3880.41
3846.77
3812.33
3777.48
3742.61
3708.03
3674.05
3641.04
3609.23
3578.82
3549.98
3522.86
3497.56
3474.15
3452.68
3433.2
3415.7
3400.19
3386.63
3375.01
3365.27
3357.37
3351.26
3346.85
3344.07
3342.88
3343.22
3344.98
3348.14
3352.67
3358.53
3365.73
3374.27
3384.18
3395.49
3408.23
3422.44
3438.16
3455.42
3474.24
3494.62
3516.58
3540.07
3565.05
3591.48
3619.24
3648.24
3678.32
3709.33
3741.05
3773.23
3805.6
3837.86
3869.68
3900.69
3930.5
3958.71
3984.9
4008.69
4029.66
4047.47
4061.8
4072.37
4078.97
4081.44
4079.71
4073.79
4063.77
4049.74
4031.92
4010.6
3986.09
3958.77
3929.05
3897.39
3864.23
3830.07
3795.36
3760.57
3726.11
3692.39
3659.7
3628.35
3598.55
3570.46
3544.18
3519.79
3497.31
3476.73
3458.01
3441.11
3425.95
3412.48
3400.61
3390.27
3381.4
3373.95
3367.86
3363.08
3359.58
3357.33
3356.35
3356.63
3358.15
3360.95
3365.07
3370.57
3377.49
3385.91
3395.9
3407.52
3420.85
3435.94
3452.84
3471.59
3492.21
3514.67
3538.93
3564.94
3592.58
3621.7
3652.13
3683.65
3716.03
3748.94
3782.07
3815.1
3847.65
3879.35
3909.81
3938.66
3965.52
3990.03
4011.86
4030.7
4046.3
4058.43
4066.92
4071.65
4072.52
4069.6
4062.9
4052.49
4038.52
4021.18
4000.69
3977.3
3951.32
3923.05
3892.84
3861.07
3828.12
3794.38
3760.24
3726.09
3692.32
3659.27
3627.27
3596.6
3567.5
3540.17
3514.75
3491.35
3470.03
3450.8
3433.65
3418.55
3405.42
3394.18
3384.74
3377
3370.86
3366.23
3363
3361.1
3360.5
3361.08
3362.84
3365.76
3369.84
3375.09
3381.55
3389.28
3398.32
3408.77
3420.68
3434.15
3449.26
3466.08
3484.66
3505.06
3527.28
3551.31
3577.1
3604.58
3633.6
3663.99
3695.54
3728
3760.97
3794.14
3827.13
3859.54
3890.96
3920.97
3949.16
3975.14
3998.55
4019.05
4036.34
4050.17
4060.38
4066.79
4069.35
4068.17
4063.19
4054.44
4042.02
4026.19
4007.16
3985.22
3960.69
3933.91
3905.24
3875.08
3843.77
3811.68
3779.17
3746.49
3713.95
3686.37
3655.75
3626.04
3597.46
3570.21
3544.41
3520.16
3497.55
3476.62
3457.41
3439.94
3424.21
3410.2
3397.89
3387.25
3378.24
3370.83
3364.99
3360.68
3357.89
3356.65
3357.15
3359.17
3362.73
3367.82
3374.47
3382.68
3392.49
3403.91
3416.95
3431.6
3447.9
3465.83
3485.36
3506.5
3529.18
3553.32
3578.84
3605.6
3633.46
3662.26
3691.77
3721.81
3752.13
3782.48
3812.56
3842.07
3870.68
3898.06
3923.86
3947.71
3969.33
3988.39
4004.63
4017.8
4027.71
4034.2
4037.22
4036.67
3542.15
3514.24
3486.17
3458.89
3432.88
3408.37
3385.52
3364.39
3345.04
3327.48
3311.68
3297.62
3285.26
3274.56
3265.47
3257.94
3251.94
3247.44
3244.4
3242.85
3242.75
3244.09
3246.87
3251.11
3256.85
3264.08
3272.88
3283.26
3295.29
3309
3324.47
3341.71
3360.78
3381.68
3404.43
3429.02
3455.38
3483.43
3513.07
3544.16
3576.48
3609.28
3643.05
3677.27
3711.6
3745.63
3778.92
3811.12
3841.78
3870.5
3896.9
3920.63
3941.37
3958.83
3972.78
3983.02
3989.41
3991.86
3990.22
3984.6
3975.05
3961.69
3944.68
3924.29
3900.77
3874.43
3845.66
3814.84
3782.37
3748.69
3714.19
3679.3
3644.39
3609.78
3575.76
3542.73
3510.9
3480.47
3451.63
3424.5
3399.2
3375.79
3354.33
3334.84
3317.35
3301.84
3288.3
3276.68
3266.95
3259.06
3252.95
3248.55
3245.78
3244.61
3244.95
3246.72
3249.88
3254.4
3260.27
3267.47
3276
3285.91
3297.21
3309.94
3324.15
3339.86
3357.12
3375.93
3396.31
3418.26
3441.76
3466.74
3493.17
3520.95
3549.95
3580.06
3611.08
3642.83
3675.03
3707.44
3739.74
3771.61
3802.66
3832.53
3860.79
3887.04
3910.88
3931.91
3949.76
3964.13
3974.73
3981.35
3983.85
3982.09
3976.17
3966.12
3952.06
3934.21
3912.83
3888.27
3860.89
3831.11
3799.39
3766.17
3731.95
3697.19
3662.35
3627.85
3594.09
3561.38
3530.01
3500.2
3472.1
3445.82
3421.44
3398.96
3378.39
3359.68
3342.79
3327.64
3314.18
3302.32
3291.99
3283.13
3275.69
3269.6
3264.82
3261.33
3259.08
3258.11
3258.38
3259.89
3262.69
3266.81
3272.3
3279.21
3287.62
3297.6
3309.21
3322.53
3337.61
3354.5
3373.25
3393.86
3416.32
3440.59
3466.6
3494.25
3523.39
3553.84
3585.39
3617.79
3650.73
3683.91
3716.98
3749.58
3781.33
3811.84
3840.74
3867.64
3892.2
3914.08
3932.96
3948.59
3960.75
3969.25
3974
3974.89
3971.93
3965.23
3954.8
3940.8
3923.43
3902.89
3879.46
3853.43
3825.11
3794.86
3763.04
3730.03
3696.24
3662.06
3627.87
3594.06
3560.98
3528.95
3498.26
3469.14
3441.8
3416.38
3392.98
3371.65
3352.43
3335.3
3320.2
3307.09
3295.86
3286.43
3278.71
3272.58
3267.96
3264.74
3262.86
3262.25
3262.84
3264.61
3267.53
3271.6
3276.85
3283.3
3291.02
3300.05
3310.49
3322.39
3335.85
3350.95
3367.75
3386.33
3406.71
3428.93
3452.96
3478.76
3506.24
3535.28
3565.69
3597.27
3629.76
3662.77
3695.98
3729.02
3761.48
3792.95
3823.02
3851.26
3877.3
3900.75
3921.3
3938.62
3952.49
3962.72
3969.15
3971.72
3970.53
3965.53
3956.75
3944.31
3928.45
3909.38
3887.38
3862.81
3835.98
3807.26
3777.05
3745.7
3713.56
3681.01
3648.31
3615.77
3588.07
3557.45
3527.73
3499.15
3471.89
3446.09
3421.83
3399.22
3378.29
3359.09
3341.62
3325.89
3311.89
3299.58
3288.95
3279.95
3272.55
3266.71
3262.4
3259.61
3258.36
3258.87
3260.89
3264.45
3269.54
3276.18
3284.39
3294.2
3305.61
3318.64
3333.29
3349.59
3367.51
3387.05
3408.19
3430.87
3455.02
3480.55
3507.32
3535.2
3564.01
3593.55
3623.61
3653.97
3684.34
3714.47
3744.01
3772.66
3800.09
3825.94
3849.84
3871.5
3890.6
3906.87
3920.07
3930
3936.51
3939.53
3938.99
3443.8
3415.86
3387.77
3360.47
3334.46
3309.94
3287.09
3265.97
3246.63
3229.07
3213.29
3199.24
3186.89
3176.2
3167.11
3159.6
3153.6
3149.11
3146.07
3144.52
3144.41
3145.75
3148.54
3152.78
3158.51
3165.74
3174.52
3184.9
3196.91
3210.61
3226.07
3243.3
3262.36
3283.26
3306
3330.58
3356.95
3385.01
3414.67
3445.78
3478.12
3510.98
3544.79
3579.06
3613.45
3647.53
3680.9
3713.16
3743.9
3772.68
3799.15
3822.95
3843.74
3861.25
3875.24
3885.51
3891.92
3894.39
3892.74
3887.1
3877.53
3864.13
3847.08
3826.62
3803.04
3776.63
3747.79
3716.89
3684.36
3650.6
3616.04
3581.09
3546.13
3511.47
3477.41
3444.36
3412.5
3382.05
3353.19
3326.06
3300.75
3277.34
3255.88
3236.4
3218.92
3203.42
3189.88
3178.27
3168.55
3160.67
3154.58
3150.19
3147.43
3146.27
3146.62
3148.39
3151.56
3156.09
3161.95
3169.15
3177.68
3187.58
3198.87
3211.59
3225.79
3241.5
3258.74
3277.55
3297.93
3319.88
3343.37
3368.37
3394.8
3422.59
3451.61
3481.73
3512.79
3544.56
3576.81
3609.26
3641.62
3673.54
3704.66
3734.6
3762.93
3789.26
3813.16
3834.26
3852.18
3866.6
3877.25
3883.9
3886.4
3884.65
3878.71
3868.63
3854.53
3836.62
3815.18
3790.54
3763.09
3733.23
3701.42
3668.12
3633.82
3598.99
3564.09
3529.54
3495.73
3462.99
3431.59
3401.76
3373.65
3347.37
3322.99
3300.53
3279.97
3261.27
3244.39
3229.26
3215.81
3203.97
3193.65
3184.8
3177.37
3171.29
3166.52
3163.03
3160.79
3159.81
3160.08
3161.59
3164.38
3168.49
3173.97
3180.87
3189.27
3199.23
3210.83
3224.13
3239.2
3256.09
3274.83
3295.43
3317.89
3342.16
3368.19
3395.85
3425.01
3455.48
3487.07
3519.51
3552.5
3585.73
3618.85
3651.51
3683.33
3713.91
3742.87
3769.85
3794.47
3816.4
3835.34
3851.02
3863.21
3871.74
3876.49
3877.39
3874.42
3867.7
3857.24
3843.21
3825.78
3805.2
3781.71
3755.61
3727.23
3696.91
3665.02
3631.95
3598.1
3563.85
3529.61
3495.75
3462.62
3430.56
3399.84
3370.7
3343.34
3317.91
3294.51
3273.19
3253.98
3236.86
3221.78
3208.68
3197.47
3188.06
3180.35
3174.24
3169.64
3166.43
3164.56
3163.96
3164.56
3166.32
3169.24
3173.31
3178.55
3185
3192.7
3201.73
3212.14
3224.03
3237.48
3252.56
3269.35
3287.91
3308.29
3330.5
3354.53
3380.34
3407.83
3436.89
3467.32
3498.94
3531.48
3564.54
3597.81
3630.9
3663.44
3694.98
3725.12
3753.43
3779.54
3803.06
3823.66
3841.04
3854.95
3865.21
3871.66
3874.24
3873.04
3868.01
3859.21
3846.73
3830.82
3811.69
3789.64
3765
3738.1
3709.31
3679.04
3647.63
3615.44
3582.84
3550.11
3517.56
3489.71
3459.09
3429.36
3400.77
3373.5
3347.68
3323.43
3300.81
3279.88
3260.68
3243.22
3227.5
3213.51
3201.21
3190.58
3181.59
3174.2
3168.36
3164.06
3161.28
3160.02
3160.53
3162.55
3166.11
3171.19
3177.83
3186.04
3195.84
3207.25
3220.27
3234.92
3251.21
3269.13
3288.67
3309.81
3332.49
3356.65
3382.19
3408.98
3436.88
3465.72
3495.28
3525.38
3555.78
3586.2
3616.37
3645.97
3674.68
3702.17
3728.08
3752.04
3773.75
3792.91
3809.23
3822.47
3832.43
3838.96
3841.99
3841.44
3345.39
3317.41
3289.29
3261.97
3235.95
3211.43
3188.58
3167.47
3148.13
3130.59
3114.82
3100.78
3088.45
3077.77
3068.7
3061.19
3055.21
3050.72
3047.69
3046.14
3046.02
3047.37
3050.15
3054.38
3060.11
3067.33
3076.1
3086.46
3098.46
3112.15
3127.59
3144.81
3163.86
3184.75
3207.49
3232.07
3258.44
3286.51
3316.19
3347.32
3379.7
3412.62
3446.48
3480.81
3515.27
3549.44
3582.89
3615.24
3646.07
3674.94
3701.5
3725.37
3746.23
3763.81
3777.85
3788.15
3794.59
3797.08
3795.42
3789.76
3780.15
3766.71
3749.59
3729.07
3705.41
3678.92
3649.98
3618.99
3586.36
3552.52
3517.88
3482.85
3447.82
3413.11
3379.01
3345.91
3314.02
3283.55
3254.68
3227.53
3202.22
3178.81
3157.35
3137.88
3120.4
3104.91
3091.38
3079.79
3070.08
3062.22
3056.13
3051.76
3049.02
3047.87
3048.23
3050.01
3053.19
3057.72
3063.59
3070.78
3079.3
3089.19
3100.47
3113.19
3127.37
3143.07
3160.31
3179.11
3199.48
3221.43
3244.92
3269.92
3296.36
3324.16
3353.2
3383.35
3414.44
3446.26
3478.55
3511.06
3543.49
3575.48
3606.69
3636.71
3665.13
3691.55
3715.55
3736.73
3754.73
3769.22
3779.91
3786.6
3789.12
3787.37
3781.41
3771.29
3757.13
3739.15
3717.64
3692.91
3665.35
3635.39
3603.48
3570.09
3535.69
3500.77
3465.78
3431.17
3397.3
3364.52
3333.09
3303.23
3275.12
3248.84
3224.46
3202.01
3181.46
3162.79
3145.92
3130.81
3117.38
3105.55
3095.25
3086.42
3079
3072.93
3068.16
3064.68
3062.44
3061.47
3061.73
3063.24
3066.02
3070.12
3075.58
3082.47
3090.85
3100.8
3112.38
3125.66
3140.72
3157.59
3176.32
3196.92
3219.38
3243.66
3269.69
3297.37
3326.55
3357.06
3388.69
3421.18
3454.23
3487.52
3520.72
3553.45
3585.35
3616.01
3645.06
3672.12
3696.82
3718.83
3737.84
3753.57
3765.81
3774.37
3779.14
3780.04
3777.07
3770.31
3759.82
3745.74
3728.26
3707.6
3684.04
3657.87
3629.4
3599
3567.03
3533.88
3499.94
3465.62
3431.31
3397.38
3364.2
3332.09
3301.33
3272.17
3244.79
3219.35
3195.95
3174.64
3155.44
3138.33
3123.27
3110.19
3099.01
3089.62
3081.93
3075.84
3071.26
3068.07
3066.21
3065.62
3066.23
3067.99
3070.91
3074.98
3080.21
3086.65
3094.34
3103.34
3113.74
3125.61
3139.04
3154.1
3170.87
3189.42
3209.79
3231.99
3256.02
3281.83
3309.35
3338.42
3368.89
3400.55
3433.15
3466.27
3499.61
3532.79
3565.4
3597.04
3627.26
3655.67
3681.86
3705.47
3726.14
3743.58
3757.54
3767.84
3774.32
3776.9
3775.7
3770.65
3761.8
3749.29
3733.31
3714.12
3691.99
3667.26
3640.28
3611.41
3581.05
3549.56
3517.31
3484.66
3451.88
3419.32
3391.29
3360.67
3330.92
3302.32
3275.03
3249.21
3224.95
3202.33
3181.4
3162.21
3144.75
3129.04
3115.05
3102.77
3092.15
3083.17
3075.78
3069.96
3065.66
3062.88
3061.62
3062.13
3064.15
3067.71
3072.79
3079.42
3087.62
3097.42
3108.82
3121.83
3136.48
3152.76
3170.68
3190.21
3211.35
3234.04
3258.21
3283.77
3310.58
3338.51
3367.38
3396.98
3427.12
3457.57
3488.04
3518.27
3547.94
3576.73
3604.3
3630.28
3654.31
3676.1
3695.32
3711.7
3724.99
3734.99
3741.55
3744.59
3744.04
3246.92
3218.89
3190.73
3163.4
3137.36
3112.84
3089.99
3068.89
3049.56
3032.04
3016.28
3002.26
2989.94
2979.28
2970.22
2962.72
2956.75
2952.27
2949.25
2947.7
2947.58
2948.92
2951.71
2955.93
2961.65
2968.86
2977.61
2987.96
2999.94
3013.62
3029.04
3046.25
3065.28
3086.16
3108.89
3133.47
3159.85
3187.93
3217.63
3248.8
3281.21
3314.21
3348.14
3382.53
3417.08
3451.34
3484.9
3517.36
3548.29
3577.27
3603.93
3627.9
3648.85
3666.49
3680.6
3690.95
3697.42
3699.91
3698.26
3692.57
3682.92
3669.42
3652.24
3631.63
3607.87
3581.27
3552.23
3521.13
3488.39
3454.44
3419.7
3384.58
3349.48
3314.69
3280.54
3247.39
3215.47
3184.97
3156.07
3128.91
3103.6
3080.19
3058.73
3039.27
3021.8
3006.32
2992.81
2981.23
2971.54
2963.69
2957.62
2953.27
2950.55
2949.41
2949.78
2951.58
2954.77
2959.3
2965.16
2972.35
2980.87
2990.75
3002.02
3014.72
3028.89
3044.57
3061.8
3080.59
3100.96
3122.9
3146.39
3171.4
3197.85
3225.67
3254.74
3284.92
3316.04
3347.91
3380.26
3412.84
3445.35
3477.43
3508.73
3538.86
3567.39
3593.92
3618.03
3639.32
3657.41
3671.98
3682.74
3689.46
3692.01
3690.26
3684.28
3674.11
3659.88
3641.82
3620.21
3595.37
3567.7
3537.61
3505.58
3472.06
3437.55
3402.52
3367.44
3332.74
3298.81
3265.97
3234.5
3204.63
3176.5
3150.22
3125.85
3103.41
3082.88
3064.22
3047.38
3032.29
3018.88
3007.08
2996.8
2987.98
2980.57
2974.51
2969.76
2966.28
2964.05
2963.07
2963.33
2964.83
2967.61
2971.69
2977.14
2984.01
2992.37
3002.3
3013.86
3027.12
3042.16
3059.02
3077.74
3098.33
3120.78
3145.07
3171.11
3198.81
3228.03
3258.58
3290.25
3322.8
3355.92
3389.29
3422.58
3455.41
3487.4
3518.16
3547.32
3574.47
3599.27
3621.37
3640.46
3656.26
3668.55
3677.15
3681.94
3682.85
3679.86
3673.07
3662.53
3648.39
3630.84
3610.11
3586.46
3560.2
3531.63
3501.13
3469.06
3435.8
3401.77
3367.36
3332.96
3298.96
3265.72
3233.55
3202.75
3173.55
3146.15
3120.71
3097.3
3076
3056.81
3039.72
3024.68
3011.63
3000.47
2991.11
2983.45
2977.38
2972.82
2969.65
2967.82
2967.23
2967.85
2969.62
2972.54
2976.6
2981.82
2988.24
2995.92
3004.9
3015.28
3027.13
3040.53
3055.57
3072.32
3090.85
3111.2
3133.4
3157.43
3183.25
3210.78
3239.88
3270.39
3302.1
3334.77
3367.97
3401.4
3434.67
3467.39
3499.13
3529.46
3557.98
3584.28
3607.98
3628.74
3646.26
3660.28
3670.63
3677.13
3679.72
3678.51
3673.43
3664.54
3651.97
3635.92
3616.64
3594.42
3569.6
3542.51
3513.54
3483.09
3451.51
3419.17
3386.45
3353.62
3321.04
3292.81
3262.18
3232.42
3203.79
3176.49
3150.66
3126.39
3103.77
3082.84
3063.65
3046.21
3030.51
3016.53
3004.26
2993.66
2984.69
2977.31
2971.49
2967.21
2964.43
2963.16
2963.67
2965.7
2969.25
2974.32
2980.95
2989.14
2998.93
3010.32
3023.33
3037.96
3054.24
3072.15
3091.68
3112.83
3135.53
3159.71
3185.29
3212.13
3240.08
3269
3298.64
3328.83
3359.33
3389.87
3420.18
3449.93
3478.8
3506.46
3532.54
3556.66
3578.54
3597.84
3614.29
3627.64
3637.68
3644.28
3647.33
3646.77
3148.39
3120.3
3092.1
3064.74
3038.69
3014.16
2991.32
2970.22
2950.91
2933.4
2917.66
2903.66
2891.37
2880.72
2871.68
2864.2
2858.24
2853.76
2850.76
2849.2
2849.08
2850.42
2853.2
2857.42
2863.13
2870.33
2879.06
2889.39
2901.36
2915.01
2930.41
2947.6
2966.62
2987.49
3010.21
3034.79
3061.18
3089.28
3119
3150.2
3182.66
3215.75
3249.74
3284.23
3318.88
3353.25
3386.92
3419.51
3450.57
3479.67
3506.45
3530.53
3551.58
3569.31
3583.49
3593.89
3600.4
3602.91
3601.25
3595.53
3585.84
3572.27
3555
3534.3
3510.42
3483.7
3454.53
3423.3
3390.44
3356.37
3321.51
3286.29
3251.09
3216.23
3182
3148.8
3116.84
3086.31
3057.39
3030.21
3004.89
2981.48
2960.03
2940.57
2923.12
2907.65
2894.15
2882.59
2872.92
2865.09
2859.04
2854.71
2852.01
2850.9
2851.28
2853.09
2856.29
2860.83
2866.69
2873.87
2882.38
2892.25
2903.5
2916.19
2930.34
2946.01
2963.22
2982
3002.36
3024.3
3047.8
3072.81
3099.27
3127.11
3156.21
3186.42
3217.6
3249.52
3281.95
3314.61
3347.2
3379.39
3410.81
3441.05
3469.72
3496.38
3520.61
3542.02
3560.22
3574.88
3585.71
3592.49
3595.06
3593.32
3587.31
3577.08
3562.78
3544.62
3522.89
3497.92
3470.11
3439.89
3407.71
3374.05
3339.4
3304.24
3269.05
3234.26
3200.25
3167.35
3135.84
3105.93
3077.79
3051.51
3027.15
3004.72
2984.21
2965.58
2948.77
2933.7
2920.32
2908.54
2898.28
2889.48
2882.09
2876.04
2871.3
2867.83
2865.61
2864.63
2864.88
2866.38
2869.14
2873.21
2878.64
2885.49
2893.83
2903.73
2915.27
2928.51
2943.52
2960.37
2979.07
2999.65
3022.11
3046.4
3072.46
3100.18
3129.43
3160.03
3191.76
3224.38
3257.58
3291.04
3324.43
3357.36
3389.47
3420.36
3449.63
3476.9
3501.81
3524.02
3543.2
3559.08
3571.43
3580.07
3584.89
3585.8
3582.8
3575.97
3565.38
3551.18
3533.55
3512.72
3488.97
3462.59
3433.92
3403.3
3371.11
3337.74
3303.59
3269.07
3234.57
3200.49
3167.16
3134.93
3104.08
3074.85
3047.43
3021.96
2998.56
2977.26
2958.09
2941.02
2926.01
2912.99
2901.86
2892.53
2884.9
2878.87
2874.33
2871.19
2869.37
2868.8
2869.42
2871.2
2874.12
2878.17
2883.38
2889.79
2897.44
2906.41
2916.76
2928.58
2941.95
2956.96
2973.69
2992.2
3012.53
3034.72
3058.75
3084.58
3112.13
3141.27
3171.83
3203.59
3236.35
3269.64
3303.16
3336.54
3369.38
3401.25
3431.71
3460.36
3486.77
3510.59
3531.45
3549.06
3563.16
3573.56
3580.09
3582.7
3581.48
3576.37
3567.42
3554.78
3538.66
3519.28
3496.94
3472.01
3444.8
3415.71
3385.14
3353.46
3321.03
3288.22
3255.32
3222.72
3194.27
3163.63
3133.85
3105.2
3077.88
3052.03
3027.75
3005.13
2984.21
2965.02
2947.59
2931.9
2917.94
2905.68
2895.09
2886.14
2878.77
2872.97
2868.69
2865.92
2864.65
2865.15
2867.18
2870.73
2875.79
2882.41
2890.6
2900.37
2911.76
2924.76
2939.38
2955.65
2973.56
2993.09
3014.23
3036.94
3061.14
3086.74
3113.61
3141.6
3170.56
3200.25
3230.5
3261.08
3291.69
3322.08
3351.93
3380.9
3408.67
3434.86
3459.09
3481.06
3500.46
3516.99
3530.41
3540.51
3547.14
3550.21
3549.65
3049.79
3021.64
2993.4
2966
2939.93
2915.4
2892.57
2871.48
2852.18
2834.69
2818.97
2805
2792.72
2782.09
2773.07
2765.61
2759.66
2755.2
2752.2
2750.65
2750.53
2751.87
2754.64
2758.86
2764.55
2771.73
2780.45
2790.76
2802.7
2816.33
2831.71
2848.88
2867.88
2888.73
2911.45
2936.03
2962.42
2990.54
3020.29
3051.53
3084.04
3117.24
3151.31
3185.89
3220.65
3255.16
3288.96
3321.69
3352.9
3382.14
3409.06
3433.26
3454.43
3472.26
3486.52
3496.99
3503.54
3506.07
3504.4
3498.65
3488.9
3475.26
3457.9
3437.07
3413.07
3386.21
3356.9
3325.51
3292.5
3258.29
3223.3
3187.96
3152.66
3117.7
3083.41
3050.15
3018.13
2987.56
2958.62
2931.43
2906.09
2882.68
2861.24
2841.79
2824.35
2808.9
2795.42
2783.87
2774.22
2766.42
2760.4
2756.09
2753.42
2752.32
2752.72
2754.55
2757.76
2762.3
2768.16
2775.34
2783.84
2793.69
2804.93
2817.59
2831.73
2847.38
2864.58
2883.35
2903.7
2925.63
2949.13
2974.15
3000.63
3028.49
3057.61
3087.87
3119.1
3151.09
3183.59
3216.35
3249.04
3281.35
3312.9
3343.29
3372.1
3398.91
3423.29
3444.84
3463.16
3477.93
3488.85
3495.69
3498.28
3496.54
3490.5
3480.21
3465.82
3447.54
3425.68
3400.57
3372.6
3342.21
3309.87
3276.05
3241.24
3205.94
3170.62
3135.72
3101.62
3068.65
3037.09
3007.15
2978.99
2952.71
2928.36
2905.95
2885.46
2866.86
2850.08
2835.05
2821.69
2809.93
2799.7
2790.93
2783.56
2777.52
2772.8
2769.33
2767.11
2766.13
2766.39
2767.87
2770.62
2774.68
2780.09
2786.91
2795.23
2805.1
2816.61
2829.82
2844.81
2861.63
2880.32
2900.89
2923.34
2947.64
2973.72
3001.47
3030.76
3061.42
3093.21
3125.91
3159.2
3192.77
3226.27
3259.33
3291.57
3322.59
3351.99
3379.4
3404.44
3426.77
3446.06
3462.03
3474.46
3483.15
3487.99
3488.91
3485.9
3479.02
3468.37
3454.09
3436.36
3415.43
3391.57
3365.06
3336.26
3305.5
3273.17
3239.67
3205.4
3170.75
3136.15
3101.96
3068.55
3036.24
3005.33
2976.05
2948.6
2923.13
2899.72
2878.43
2859.28
2842.24
2827.26
2814.27
2803.18
2793.89
2786.29
2780.29
2775.78
2772.67
2770.87
2770.32
2770.95
2772.74
2775.65
2779.7
2784.9
2791.29
2798.92
2807.86
2818.18
2829.96
2843.3
2858.28
2874.98
2893.47
2913.78
2935.96
2959.99
2985.83
3013.41
3042.58
3073.19
3105.03
3137.88
3171.27
3204.91
3238.42
3271.39
3303.4
3334.01
3362.8
3389.36
3413.31
3434.29
3451.99
3466.18
3476.64
3483.21
3485.83
3484.6
3479.45
3470.45
3457.73
3441.51
3422.01
3399.56
3374.49
3347.14
3317.91
3287.22
3255.41
3222.87
3189.97
3157
3124.36
3095.68
3065.02
3035.2
3006.53
2979.19
2953.33
2929.04
2906.41
2885.5
2866.32
2848.9
2833.22
2819.27
2807.03
2796.46
2787.52
2780.17
2774.38
2770.11
2767.35
2766.08
2766.58
2768.61
2772.15
2777.21
2783.81
2791.99
2801.75
2813.13
2826.11
2840.73
2856.99
2874.89
2894.42
2915.56
2938.28
2962.5
2988.12
3015.02
3043.06
3072.07
3101.83
3132.15
3162.8
3193.5
3223.98
3253.94
3283.03
3310.93
3337.24
3361.59
3383.68
3403.18
3419.81
3433.31
3443.47
3450.14
3453.23
3452.67
2951.12
2922.9
2894.61
2867.18
2841.1
2816.56
2793.73
2772.65
2753.38
2735.91
2720.21
2706.26
2694.01
2683.4
2674.4
2666.96
2661.03
2656.58
2653.59
2652.05
2651.92
2653.26
2656.03
2660.23
2665.91
2673.08
2681.77
2692.06
2703.98
2717.58
2732.94
2750.08
2769.06
2789.9
2812.6
2837.18
2863.58
2891.71
2921.5
2952.79
2985.35
3018.67
3052.83
3087.52
3122.41
3157.06
3191.02
3223.91
3255.28
3284.69
3311.75
3336.1
3357.4
3375.35
3389.69
3400.23
3406.83
3409.39
3407.71
3401.92
3392.11
3378.38
3360.91
3339.96
3315.81
3288.8
3259.32
3227.77
3194.59
3160.22
3125.08
3089.6
3054.18
3019.13
2984.74
2951.41
2919.34
2888.73
2859.76
2832.55
2807.21
2783.8
2762.36
2742.93
2725.5
2710.06
2696.6
2685.08
2675.46
2667.68
2661.68
2657.4
2654.76
2653.69
2654.11
2655.95
2659.17
2663.72
2669.58
2676.75
2685.24
2695.08
2706.29
2718.94
2733.06
2748.69
2765.87
2784.63
2804.97
2826.89
2850.39
2875.42
2901.91
2929.8
2958.96
2989.26
3020.55
3052.62
3085.21
3118.06
3150.88
3183.32
3215.02
3245.56
3274.54
3301.52
3326.07
3347.77
3366.24
3381.13
3392.14
3399.04
3401.67
3399.93
3393.85
3383.49
3369
3350.6
3328.59
3303.31
3275.16
3244.59
3212.06
3178.05
3143.07
3107.62
3072.15
3037.12
3002.92
2969.87
2938.25
2908.28
2880.1
2853.82
2829.48
2807.09
2786.63
2768.06
2751.31
2736.32
2723
2711.27
2701.07
2692.32
2684.97
2678.95
2674.24
2670.79
2668.57
2667.59
2667.84
2669.32
2672.05
2676.09
2681.47
2688.27
2696.56
2706.4
2717.87
2731.06
2746.02
2762.82
2781.49
2802.05
2824.5
2848.81
2874.9
2902.69
2932.02
2962.73
2994.61
3027.39
3060.79
3094.47
3128.1
3161.3
3193.69
3224.86
3254.42
3281.98
3307.17
3329.63
3349.04
3365.12
3377.62
3386.37
3391.24
3392.17
3389.14
3382.22
3371.5
3357.12
3339.3
3318.25
3294.25
3267.6
3238.65
3207.74
3175.26
3141.61
3107.19
3072.41
3037.67
3003.37
2969.86
2937.47
2906.5
2877.17
2849.69
2824.2
2800.79
2779.52
2760.38
2743.37
2728.43
2715.47
2704.42
2695.17
2687.62
2681.66
2677.18
2674.1
2672.33
2671.79
2672.44
2674.23
2677.14
2681.18
2686.37
2692.73
2700.34
2709.25
2719.53
2731.28
2744.59
2759.54
2776.2
2794.66
2814.95
2837.12
2861.15
2887
2914.6
2943.82
2974.49
3006.4
3039.36
3072.86
3106.63
3140.28
3173.41
3205.58
3236.35
3265.31
3292.03
3316.12
3337.24
3355.06
3369.34
3379.86
3386.48
3389.11
3387.88
3382.68
3373.61
3360.81
3344.48
3324.86
3302.26
3277.04
3249.54
3220.16
3189.32
3157.37
3124.71
3091.7
3058.64
3025.96
2997.04
2966.34
2936.5
2907.79
2880.43
2854.55
2830.25
2807.62
2786.71
2767.54
2750.13
2734.47
2720.54
2708.32
2697.76
2688.84
2681.51
2675.73
2671.48
2668.72
2667.45
2667.95
2669.97
2673.51
2678.56
2685.16
2693.31
2703.07
2714.43
2727.4
2742.01
2758.26
2776.15
2795.67
2816.82
2839.55
2863.79
2889.44
2916.38
2944.47
2973.54
3003.36
3033.75
3064.49
3095.29
3125.89
3155.96
3185.19
3213.23
3239.67
3264.17
3286.38
3306.01
3322.74
3336.33
3346.57
3353.28
3356.39
3355.83
2852.39
2824.09
2795.75
2768.28
2742.18
2717.63
2694.81
2673.74
2654.49
2637.04
2621.38
2607.45
2595.23
2584.65
2575.67
2568.25
2562.33
2557.9
2554.92
2553.38
2553.25
2554.59
2557.36
2561.55
2567.21
2574.36
2583.03
2593.29
2605.18
2618.76
2634.08
2651.2
2670.15
2690.98
2713.67
2738.25
2764.65
2792.81
2822.64
2853.97
2886.6
2920.05
2954.3
2989.12
3024.16
3058.96
3093.1
3126.17
3157.72
3187.3
3214.54
3239.05
3260.49
3278.56
3293.01
3303.63
3310.28
3312.87
3311.17
3305.34
3295.47
3281.65
3264.06
3242.96
3218.65
3191.46
3161.79
3130.05
3096.69
3062.15
3026.84
2991.22
2955.66
2920.49
2886.02
2852.61
2820.48
2789.82
2760.82
2733.59
2708.24
2684.83
2663.4
2643.97
2626.56
2611.15
2597.71
2586.21
2576.62
2568.86
2562.9
2558.65
2556.04
2554.99
2555.44
2557.3
2560.53
2565.09
2570.95
2578.11
2586.59
2596.41
2607.6
2620.23
2634.32
2649.93
2667.09
2685.83
2706.16
2728.08
2751.58
2776.61
2803.13
2831.04
2860.24
2890.6
2921.95
2954.1
2986.79
3019.76
3052.71
3085.3
3117.16
3147.88
3177.04
3204.21
3228.94
3250.82