/*--------------------------------*- C++ -*----------------------------------*\
| =========                 |                                                 |
| \\      /  F ield         | OpenFOAM: The Open Source CFD Toolbox           |
|  \\    /   O peration     | Version:  3.0.1                                 |
|   \\  /    A nd           | Web:      www.OpenFOAM.org                      |
|    \\/     M anipulation  |                                                 |
\*---------------------------------------------------------------------------*/
FoamFile
{
    version     2.0;
    format      ascii;
    class       surfaceScalarField;
    location    "18.2";
    object      phi;
}
// * * * * * * * * * * * * * * * * * * * * * * * * * * * * * * * * * * * * * //

dimensions      [0 3 -1 0 0 0 0];

internalField   nonuniform List<scalar> 
42423
(
-3.46215e-05
1.66052e-05
-5.03722e-05
1.57507e-05
-6.53574e-05
1.49852e-05
-7.94847e-05
1.41273e-05
-9.26439e-05
1.31592e-05
-0.000104881
1.22368e-05
-0.000116131
1.12499e-05
-0.000126445
1.03148e-05
-0.000135821
9.37555e-06
-0.000144249
8.42807e-06
-0.000151775
7.52622e-06
-0.000158416
6.64025e-06
-0.000164217
5.80126e-06
-0.000169203
4.98619e-06
-0.000173386
4.18248e-06
-0.000176814
3.4282e-06
-0.000179504
2.69055e-06
-0.000181487
1.983e-06
-0.000182785
1.29812e-06
-0.000183413
6.2732e-07
-0.000183307
-1.06209e-07
-0.000182476
-8.30697e-07
-0.000180904
-1.57152e-06
-0.000178611
-2.2929e-06
-0.000175633
-2.97874e-06
-0.000171769
-3.86359e-06
-0.000167216
-4.55331e-06
-0.000161906
-5.31011e-06
-0.000155607
-6.29909e-06
-0.000148544
-7.06261e-06
-0.00014068
-7.86362e-06
-0.000131629
-9.05175e-06
-0.000121798
-9.83089e-06
-0.000110871
-1.0927e-05
-9.89477e-05
-1.19232e-05
-8.62687e-05
-1.2679e-05
-7.24356e-05
-1.38331e-05
-5.76056e-05
-1.483e-05
-4.20389e-05
-1.55667e-05
-2.54703e-05
-1.65686e-05
-8.22253e-06
-1.72478e-05
9.73878e-06
-1.79613e-05
2.82336e-05
-1.84949e-05
4.68993e-05
-1.86657e-05
6.57665e-05
-1.88672e-05
8.45648e-05
-1.87984e-05
0.000102925
-1.836e-05
0.0001208
-1.78753e-05
0.00013788
-1.70799e-05
0.000153826
-1.59459e-05
0.000168522
-1.46964e-05
0.000181611
-1.30889e-05
0.000193022
-1.14109e-05
0.00020256
-9.53826e-06
0.0002099
-7.33996e-06
0.000215075
-5.17464e-06
0.000217969
-2.89381e-06
0.000218388
-4.19976e-07
0.000216434
1.95399e-06
0.000212029
4.40545e-06
0.000205441
6.58811e-06
0.000196721
8.71977e-06
0.000185922
1.07987e-05
0.000173328
1.25942e-05
0.00015907
1.42585e-05
0.000143401
1.56687e-05
0.000126664
1.67372e-05
0.000108878
1.77853e-05
9.04957e-05
1.83828e-05
7.16831e-05
1.88126e-05
5.26775e-05
1.90055e-05
3.3727e-05
1.89506e-05
1.48985e-05
1.88285e-05
-3.46647e-06
1.8365e-05
-2.12391e-05
1.77727e-05
-3.83612e-05
1.71221e-05
-5.46905e-05
1.63293e-05
-7.02042e-05
1.55137e-05
-8.47454e-05
1.45412e-05
-9.8301e-05
1.35556e-05
-0.000110817
1.25162e-05
-0.000122356
1.15386e-05
-0.00013283
1.04747e-05
-0.000142273
9.44302e-06
-0.000150714
8.44026e-06
-0.00015812
7.40581e-06
-0.000164488
6.3681e-06
-0.000169939
5.45144e-06
-0.000174448
4.50938e-06
-0.000178054
3.60586e-06
-0.000180793
2.73829e-06
-0.000182655
1.86269e-06
-0.000183766
1.11018e-06
-0.000184174
4.08053e-07
-0.000183822
-3.51112e-07
-0.000182796
-1.02696e-06
-0.000181129
-1.66615e-06
-0.000178824
-2.3057e-06
-0.000175886
-2.93772e-06
-0.000172293
-3.59273e-06
-0.000168085
-4.20809e-06
-0.000163209
-4.87617e-06
-0.000157614
-5.5948e-06
-0.000151302
-6.3122e-06
-0.000144268
-7.03403e-06
-0.000136436
-7.83243e-06
-0.000127802
-8.63396e-06
-0.000118315
-9.48658e-06
-0.000108087
-1.02284e-05
-9.69792e-05
-1.11075e-05
-8.50246e-05
-1.19546e-05
-7.22677e-05
-1.27569e-05
-5.87019e-05
-1.35658e-05
-4.43655e-05
-1.43364e-05
-2.9302e-05
-1.50635e-05
-1.36557e-05
-1.56463e-05
2.5975e-06
-1.62533e-05
1.93285e-05
-1.6731e-05
3.63862e-05
-1.70578e-05
5.3656e-05
-1.72698e-05
7.09976e-05
-1.73417e-05
8.81674e-05
-1.71698e-05
0.00010502
-1.68522e-05
0.000121293
-1.62732e-05
0.000136725
-1.54327e-05
0.000151082
-1.43563e-05
0.00016413
-1.3048e-05
0.000175573
-1.14435e-05
0.000185187
-9.61354e-06
0.000192779
-7.59249e-06
0.000198123
-5.34436e-06
0.000201128
-3.00445e-06
0.000201751
-6.232e-07
0.000199894
1.85724e-06
0.000195581
4.31254e-06
0.000188873
6.70858e-06
0.000179913
8.95975e-06
0.000168902
1.10104e-05
0.000156023
1.28795e-05
0.000141477
1.45459e-05
0.000125499
1.59784e-05
0.00010843
1.70688e-05
9.04936e-05
1.79362e-05
7.20413e-05
1.84523e-05
5.32701e-05
1.87712e-05
3.4457e-05
1.88131e-05
1.59147e-05
1.85423e-05
-2.21041e-06
1.81251e-05
-1.96612e-05
1.74508e-05
-3.63616e-05
1.67004e-05
-5.21899e-05
1.58283e-05
-6.70214e-05
1.48315e-05
-8.08434e-05
1.3822e-05
-9.35916e-05
1.27482e-05
-0.000105344
1.17528e-05
-0.000116042
1.06975e-05
-0.000125722
9.67972e-06
-0.000134444
8.72224e-06
-0.000142236
7.79248e-06
-0.00014916
6.92396e-06
-0.000155264
6.10379e-06
-0.000160573
5.30921e-06
-0.000165134
4.56093e-06
-0.000169023
3.8885e-06
-0.000172354
3.33086e-06
-0.000175002
2.64794e-06
-0.000177052
2.05048e-06
-0.000178507
1.45509e-06
-0.000179424
9.17023e-07
-0.000179735
3.10897e-07
-0.00017945
-2.8544e-07
-0.000178591
-8.58756e-07
-0.000177094
-1.4972e-06
-0.000174945
-2.1489e-06
-0.000172218
-2.72716e-06
-0.000168691
-3.52648e-06
-0.000164455
-4.23647e-06
-0.000159411
-5.04401e-06
-0.00015352
-5.89061e-06
-0.000146751
-6.76917e-06
-0.000139032
-7.7192e-06
-0.000130327
-8.70433e-06
-0.000120679
-9.64789e-06
-0.00011001
-1.06697e-05
-9.83458e-05
-1.1664e-05
-8.56738e-05
-1.2672e-05
-7.20249e-05
-1.36489e-05
-5.74934e-05
-1.45315e-05
-4.20889e-05
-1.54046e-05
-2.59214e-05
-1.61674e-05
-9.10932e-06
-1.68121e-05
8.2495e-06
-1.73588e-05
2.5988e-05
-1.77385e-05
4.39345e-05
-1.79465e-05
6.18985e-05
-1.7964e-05
7.9698e-05
-1.77996e-05
9.70917e-05
-1.73937e-05
0.000113866
-1.67747e-05
0.000129777
-1.59107e-05
0.000144586
-1.48093e-05
0.000158091
-1.35052e-05
0.00017008
-1.19889e-05
0.000180329
-1.02487e-05
0.00018868
-8.35143e-06
0.000195007
-6.32655e-06
0.000199189
-4.18189e-06
0.000201135
-1.94625e-06
0.0002009
2.3555e-07
0.000198419
2.48059e-06
0.000193676
4.74313e-06
0.00018688
6.79535e-06
0.000178103
8.77728e-06
0.000167444
1.06593e-05
0.000155104
1.234e-05
0.000141277
1.38273e-05
0.000126126
1.51508e-05
0.000109873
1.62524e-05
9.27376e-05
1.71359e-05
7.49215e-05
1.78161e-05
5.67067e-05
1.82148e-05
3.82837e-05
1.8423e-05
1.98511e-05
1.84326e-05
1.61636e-06
1.82348e-05
-1.61586e-05
1.7775e-05
-3.33551e-05
1.71965e-05
-4.97719e-05
1.64169e-05
-6.53051e-05
1.55331e-05
-7.98689e-05
1.45638e-05
-9.33636e-05
1.34947e-05
-0.00010576
1.23962e-05
-0.000117018
1.12586e-05
-0.000127102
1.00841e-05
-0.00013607
8.9673e-06
-0.000143971
7.90138e-06
-0.000150789
6.81781e-06
-0.000156604
5.81546e-06
-0.000161469
4.86414e-06
-0.000165432
3.9639e-06
-0.000168602
3.16987e-06
-0.000171044
2.44197e-06
-0.00017276
1.71524e-06
-0.000173848
1.08834e-06
-0.000174324
4.75629e-07
-0.000174269
-5.42229e-08
-0.000173658
-6.10982e-07
-0.000172529
-1.12922e-06
-0.000170898
-1.63083e-06
-0.000168721
-2.17706e-06
-0.000166009
-2.7121e-06
-0.000162784
-3.22549e-06
-0.0001589
-3.88386e-06
-0.000154383
-4.51686e-06
-0.000149211
-5.17162e-06
-0.000143241
-5.97037e-06
-0.000136471
-6.7704e-06
-0.000128907
-7.56345e-06
-0.000120384
-8.52325e-06
-0.000110933
-9.45089e-06
-0.000100484
-1.04489e-05
-8.90132e-05
-1.14709e-05
-7.65427e-05
-1.24706e-05
-6.30587e-05
-1.3484e-05
-4.85722e-05
-1.44866e-05
-3.32323e-05
-1.534e-05
-1.70307e-05
-1.62016e-05
-1.03967e-07
-1.69268e-05
1.73801e-05
-1.74841e-05
3.52673e-05
-1.78873e-05
5.33598e-05
-1.80925e-05
7.14979e-05
-1.81381e-05
8.9372e-05
-1.78742e-05
0.000106836
-1.74643e-05
0.00012355
-1.67135e-05
0.000139248
-1.56983e-05
0.000153751
-1.4503e-05
0.000166791
-1.30402e-05
0.000178211
-1.142e-05
0.000187761
-9.55e-06
0.00019521
-7.44828e-06
0.000200591
-5.38119e-06
0.000203781
-3.19042e-06
0.000204634
-8.53155e-07
0.000203296
1.3383e-06
0.000199731
3.56508e-06
0.000194027
5.7036e-06
0.000186226
7.80087e-06
0.000176559
9.66688e-06
0.000165205
1.13542e-05
0.000152199
1.30065e-05
0.000138001
1.41973e-05
0.000122678
1.53236e-05
0.000106432
1.62456e-05
8.96207e-05
1.68114e-05
7.24692e-05
1.71515e-05
5.50749e-05
1.73943e-05
3.77154e-05
1.73595e-05
2.06209e-05
1.70945e-05
3.85393e-06
1.6767e-05
-1.25873e-05
1.64412e-05
-2.8443e-05
1.58557e-05
-4.35833e-05
1.51403e-05
-5.80379e-05
1.44546e-05
-7.169e-05
1.36521e-05
-8.44973e-05
1.28073e-05
-9.6452e-05
1.19547e-05
-0.000107502
1.10503e-05
-0.000117645
1.01425e-05
-0.000126892
9.24692e-06
-0.000135215
8.32319e-06
-0.000142639
7.42376e-06
-0.000149176
6.53768e-06
-0.000154855
5.67884e-06
-0.000159701
4.84609e-06
-0.000163727
4.02595e-06
-0.000166932
3.20496e-06
-0.000169406
2.47396e-06
-0.00017113
1.72415e-06
-0.000172141
1.01083e-06
-0.000172466
3.25241e-07
-0.000171975
-4.9099e-07
-0.000170707
-1.26795e-06
-0.000168732
-1.97571e-06
-0.000165914
-2.81755e-06
-0.000162334
-3.58053e-06
-0.000157924
-4.4093e-06
-0.000152685
-5.23906e-06
-0.000146669
-6.01653e-06
-0.00013973
-6.93918e-06
-0.00013191
-7.81969e-06
-0.000123356
-8.55389e-06
-0.00011381
-9.5462e-06
-0.00010339
-1.04197e-05
-9.22193e-05
-1.11708e-05
-8.01222e-05
-1.20971e-05
-6.74094e-05
-1.27128e-05
-5.38012e-05
-1.36082e-05
-3.94689e-05
-1.43324e-05
-2.46459e-05
-1.4823e-05
-9.14636e-06
-1.54996e-05
6.69941e-06
-1.58458e-05
2.2815e-05
-1.61156e-05
3.92377e-05
-1.64227e-05
5.56515e-05
-1.64138e-05
7.20345e-05
-1.63831e-05
8.81601e-05
-1.61256e-05
0.000103755
-1.55947e-05
0.00011879
-1.50356e-05
0.000133032
-1.42413e-05
0.000146217
-1.31856e-05
0.000158255
-1.20377e-05
0.000168906
-1.06508e-05
0.000177953
-9.04697e-06
0.00018531
-7.35693e-06
0.000190777
-5.46746e-06
0.000194199
-3.42259e-06
0.000195587
-1.38774e-06
6.77707e-07
-3.46526e-05
3.32135e-05
-5.04059e-05
3.1504e-05
-6.53947e-05
2.9974e-05
-7.95254e-05
2.82579e-05
-9.26877e-05
2.63215e-05
-0.000104926
2.44751e-05
-0.000116178
2.25019e-05
-0.000126497
2.06334e-05
-0.000135872
1.87507e-05
-0.000144299
1.6855e-05
-0.000151827
1.50549e-05
-0.000158476
1.3289e-05
-0.000164274
1.15994e-05
-0.000169259
9.97103e-06
-0.000173445
8.36807e-06
-0.000176872
6.85546e-06
-0.000179561
5.37933e-06
-0.000181541
3.96385e-06
-0.000182838
2.59484e-06
-0.000183468
1.25731e-06
-0.000183361
-2.13864e-07
-0.000182524
-1.66699e-06
-0.000180959
-3.13654e-06
-0.000178664
-4.58862e-06
-0.000175681
-5.96105e-06
-0.000171827
-7.71796e-06
-0.000167271
-9.10916e-06
-0.000161961
-1.062e-05
-0.000155671
-1.25895e-05
-0.000148601
-1.4132e-05
-0.000140727
-1.57381e-05
-0.000131688
-1.80909e-05
-0.000121856
-1.96627e-05
-0.000110931
-2.18521e-05
-9.90039e-05
-2.38503e-05
-8.63226e-05
-2.53603e-05
-7.24901e-05
-2.76656e-05
-5.76547e-05
-2.96655e-05
-4.20817e-05
-3.11398e-05
-2.55122e-05
-3.31382e-05
-8.25746e-06
-3.45026e-05
9.70982e-06
-3.59287e-05
2.82156e-05
-3.70007e-05
4.68881e-05
-3.73383e-05
6.57704e-05
-3.77495e-05
8.45832e-05
-3.76112e-05
0.00010295
-3.67269e-05
0.000120843
-3.57681e-05
0.000137936
-3.4173e-05
0.000153891
-3.19009e-05
0.000168601
-2.94071e-05
0.000181687
-2.61745e-05
0.000193114
-2.28374e-05
0.000202672
-1.90969e-05
0.000210005
-1.46723e-05
0.000215188
-1.0358e-05
0.000218097
-5.80316e-06
0.000218516
-8.38724e-07
0.000216556
3.9135e-06
0.000212153
8.80911e-06
0.000205567
1.31741e-05
0.000196839
1.74472e-05
0.000186032
2.1606e-05
0.000173431
2.5195e-05
0.000159157
2.85327e-05
0.000143475
3.13506e-05
0.000126726
3.34868e-05
0.000108927
3.55842e-05
9.05322e-05
3.67771e-05
7.17049e-05
3.764e-05
5.26895e-05
3.80209e-05
3.37279e-05
3.79121e-05
1.48908e-05
3.76656e-05
-3.48299e-06
3.67388e-05
-2.12671e-05
3.55568e-05
-3.83935e-05
3.42485e-05
-5.47257e-05
3.26615e-05
-7.02453e-05
3.10334e-05
-8.47836e-05
2.90794e-05
-9.83452e-05
2.71173e-05
-0.000110868
2.50389e-05
-0.000122416
2.30867e-05
-0.000132899
2.09578e-05
-0.000142335
1.88785e-05
-0.000150774
1.68799e-05
-0.000158189
1.48205e-05
-0.000164562
1.27417e-05
-0.000170023
1.09124e-05
-0.000174531
9.01645e-06
-0.000178136
7.21133e-06
-0.000180878
5.48035e-06
-0.000182741
3.72555e-06
-0.000183837
2.20603e-06
-0.000184253
8.24117e-07
-0.000183907
-6.97288e-07
-0.000182879
-2.0551e-06
-0.000181212
-3.33248e-06
-0.00017891
-4.60766e-06
-0.00017597
-5.87832e-06
-0.00017238
-7.18228e-06
-0.000168161
-8.427e-06
-0.000163289
-9.74808e-06
-0.000157697
-1.11876e-05
-0.000151388
-1.2621e-05
-0.000144346
-1.40762e-05
-0.000136517
-1.5661e-05
-0.000127882
-1.72693e-05
-0.0001184
-1.89681e-05
-0.00010817
-2.04582e-05
-9.70495e-05
-2.22285e-05
-8.50918e-05
-2.39123e-05
-7.23317e-05
-2.5517e-05
-5.87646e-05
-2.7133e-05
-4.44229e-05
-2.86781e-05
-2.93673e-05
-3.01192e-05
-1.37047e-05
-3.13091e-05
2.55438e-06
-3.25124e-05
1.92899e-05
-3.34666e-05
3.63594e-05
-3.41273e-05
5.36534e-05
-3.45639e-05
7.09876e-05
-3.46759e-05
8.81798e-05
-3.43621e-05
0.000105051
-3.37231e-05
0.00012132
-3.2543e-05
0.000136776
-3.08882e-05
0.000151151
-2.87317e-05
0.000164197
-2.60938e-05
0.000175661
-2.29078e-05
0.000185284
-1.92364e-05
0.00019287
-1.51787e-05
0.00019824
-1.07141e-05
0.000201257
-6.02188e-06
0.00020187
-1.23623e-06
0.000200001
3.72631e-06
0.000195672
8.64149e-06
0.000188971
1.34096e-05
0.000180008
1.79229e-05
0.000168983
2.20354e-05
0.000156087
2.57754e-05
0.00014153
2.91028e-05
0.000125544
3.1965e-05
0.000108465
3.41472e-05
9.05099e-05
3.58914e-05
7.20419e-05
3.69203e-05
5.32623e-05
3.75508e-05
3.44327e-05
3.76427e-05
1.58747e-05
3.71004e-05
-2.26523e-06
3.6265e-05
-1.97237e-05
3.49092e-05
-3.64227e-05
3.33995e-05
-5.22614e-05
3.1667e-05
-6.70962e-05
2.96663e-05
-8.09164e-05
2.76422e-05
-9.36659e-05
2.54977e-05
-0.000105413
2.35004e-05
-0.000116108
2.13918e-05
-0.000125791
1.93628e-05
-0.000134523
1.74544e-05
-0.000142315
1.55839e-05
-0.00014923
1.38394e-05
-0.000155331
1.2205e-05
-0.000160639
1.06174e-05
-0.000165204
9.12514e-06
-0.000169089
7.77442e-06
-0.000172417
6.6583e-06
-0.000175063
5.29439e-06
-0.000177116
4.10351e-06
-0.000178579
2.91764e-06
-0.000179491
1.82867e-06
-0.000179796
6.16044e-07
-0.000179515
-5.66475e-07
-0.000178655
-1.71873e-06
-0.000177161
-2.99103e-06
-0.000175009
-4.30048e-06
-0.000172282
-5.45439e-06
-0.000168761
-7.04729e-06
-0.000164523
-8.47497e-06
-0.000159485
-1.00821e-05
-0.000153588
-1.17876e-05
-0.000146819
-1.35378e-05
-0.000139103
-1.54357e-05
-0.000130411
-1.73965e-05
-0.000120754
-1.93048e-05
-0.000110074
-2.13491e-05
-9.84049e-05
-2.33334e-05
-8.57403e-05
-2.53366e-05
-7.20847e-05
-2.73045e-05
-5.75465e-05
-2.90697e-05
-4.21428e-05
-3.08083e-05
-2.59743e-05
-3.2336e-05
-9.1432e-06
-3.36433e-05
8.21826e-06
-3.47203e-05
2.59674e-05
-3.54876e-05
4.39364e-05
-3.59156e-05
6.19022e-05
-3.59298e-05
7.97131e-05
-3.56105e-05
9.71263e-05
-3.48069e-05
0.000113893
-3.35415e-05
0.000129822
-3.18394e-05
0.000144656
-2.96435e-05
0.000158164
-2.70129e-05
0.000170163
-2.39886e-05
0.000180424
-2.05093e-05
0.000188775
-1.6703e-05
0.000195115
-1.2666e-05
0.000199299
-8.36606e-06
0.000201241
-3.88844e-06
0.000200995
4.81323e-07
0.000198507
4.96949e-06
0.000193772
9.47762e-06
0.000186964
1.36036e-05
0.000178177
1.75637e-05
0.000167522
2.13151e-05
0.000155168
2.4694e-05
0.000141327
2.7668e-05
0.000126171
3.03066e-05
0.000109909
3.25147e-05
9.27612e-05
3.42835e-05
7.49353e-05
3.5642e-05
5.67026e-05
3.64475e-05
3.82673e-05
3.68583e-05
1.98265e-05
3.68734e-05
1.58338e-06
3.64779e-05
-1.61999e-05
3.55583e-05
-3.34083e-05
3.44049e-05
-4.98275e-05
3.28361e-05
-6.53631e-05
3.10687e-05
-7.99406e-05
2.91414e-05
-9.34406e-05
2.69946e-05
-0.000105832
2.47872e-05
-0.000117095
2.25224e-05
-0.000127184
2.01723e-05
-0.000136149
1.79326e-05
-0.000144043
1.57957e-05
-0.000150866
1.36402e-05
-0.000156676
1.16257e-05
-0.000161533
9.72091e-06
-0.000165498
7.92926e-06
-0.000168664
6.33567e-06
-0.000171116
4.89408e-06
-0.00017282
3.41899e-06
-0.0001739
2.16832e-06
-0.000174379
9.54982e-07
-0.000174328
-1.04898e-07
-0.000173705
-1.23433e-06
-0.000172577
-2.25681e-06
-0.000170954
-3.25457e-06
-0.000168782
-4.34834e-06
-0.000166066
-5.42856e-06
-0.00016283
-6.46156e-06
-0.000158959
-7.75451e-06
-0.000154444
-9.03166e-06
-0.000149268
-1.03483e-05
-0.000143299
-1.19392e-05
-0.000136531
-1.3538e-05
-0.000128969
-1.51258e-05
-0.000120447
-1.70449e-05
-0.000110996
-1.89026e-05
-0.000100546
-2.08987e-05
-8.90767e-05
-2.29399e-05
-7.66011e-05
-2.49462e-05
-6.31116e-05
-2.69735e-05
-4.8626e-05
-2.89722e-05
-3.32751e-05
-3.06908e-05
-1.70742e-05
-3.24025e-05
-1.35906e-07
-3.38651e-05
1.73596e-05
-3.49797e-05
3.52552e-05
-3.57829e-05
5.336e-05
-3.61972e-05
7.15106e-05
-3.62888e-05
8.93912e-05
-3.57548e-05
0.000106871
-3.49445e-05
0.000123597
-3.34387e-05
0.000139298
-3.14002e-05
0.00015381
-2.90151e-05
0.000166873
-2.61031e-05
0.000178306
-2.28527e-05
0.000187856
-1.90997e-05
0.000195314
-1.49065e-05
0.0002007
-1.07679e-05
0.00020389
-6.37978e-06
0.00020475
-1.71322e-06
0.000203406
2.68178e-06
0.000199843
7.12849e-06
0.000194138
1.14081e-05
0.000186332
1.56067e-05
0.00017666
1.93393e-05
0.000165296
2.27183e-05
0.00015228
2.60224e-05
0.000138074
2.84035e-05
0.000122741
3.0656e-05
0.000106482
3.2505e-05
8.96617e-05
3.36317e-05
7.24996e-05
3.43136e-05
5.50943e-05
3.47996e-05
3.77241e-05
3.47296e-05
2.06226e-05
3.4196e-05
3.85181e-06
3.35378e-05
-1.26022e-05
3.28952e-05
-2.84638e-05
3.17173e-05
-4.36137e-05
3.02902e-05
-5.80723e-05
2.89133e-05
-7.17275e-05
2.73072e-05
-8.454e-05
2.56198e-05
-9.65014e-05
2.3916e-05
-0.000107555
2.21042e-05
-0.000117701
2.02886e-05
-0.000126948
1.84935e-05
-0.000135269
1.66439e-05
-0.000142695
1.48499e-05
-0.000149237
1.30801e-05
-0.000154916
1.13579e-05
-0.00015976
9.6896e-06
-0.000163785
8.05133e-06
-0.000167
6.4203e-06
-0.00016947
4.94321e-06
-0.000171193
3.44717e-06
-0.000172209
2.02697e-06
-0.000172529
6.45045e-07
-0.000172029
-9.90898e-07
-0.000170766
-2.53106e-06
-0.000168787
-3.95456e-06
-0.00016597
-5.63402e-06
-0.000162389
-7.16187e-06
-0.000157978
-8.82033e-06
-0.000152741
-1.04763e-05
-0.000146724
-1.20334e-05
-0.000139786
-1.38768e-05
-0.000131963
-1.56428e-05
-0.000123408
-1.71094e-05
-0.000113862
-1.90925e-05
-0.000103438
-2.08431e-05
-9.22618e-05
-2.23471e-05
-8.01664e-05
-2.41925e-05
-6.74509e-05
-2.54284e-05
-5.38392e-05
-2.72199e-05
-3.9502e-05
-2.86696e-05
-2.46715e-05
-2.96535e-05
-9.17031e-06
-3.10008e-05
6.67964e-06
-3.16958e-05
2.28145e-05
-3.22504e-05
3.92427e-05
-3.28511e-05
5.56575e-05
-3.28286e-05
7.20565e-05
-3.27821e-05
8.81882e-05
-3.22574e-05
0.000103784
-3.11908e-05
0.000118832
-3.00831e-05
0.000133081
-2.84904e-05
0.00014627
-2.63746e-05
0.000158314
-2.40826e-05
0.000168956
-2.12926e-05
0.000178008
-1.80989e-05
0.000185378
-1.47273e-05
0.000190839
-1.09278e-05
0.000194268
-6.85198e-06
0.000195668
-2.788e-06
1.35671e-06
-3.47156e-05
4.9829e-05
-5.04747e-05
4.72632e-05
-6.54685e-05
4.49678e-05
-7.96039e-05
4.23933e-05
-9.2771e-05
3.94887e-05
-0.000105011
3.67155e-05
-0.000116266
3.37566e-05
-0.000126585
3.09524e-05
-0.000135959
2.81246e-05
-0.00014439
2.52862e-05
-0.000151922
2.25865e-05
-0.000158564
1.99312e-05
-0.000164364
1.73992e-05
-0.000169352
1.49595e-05
-0.000173535
1.25509e-05
-0.000176964
1.02845e-05
-0.000179654
8.0688e-06
-0.000181631
5.9414e-06
-0.00018293
3.89329e-06
-0.000183549
1.87656e-06
-0.000183424
-3.3865e-07
-0.00018258
-2.51093e-06
-0.000181023
-4.69339e-06
-0.00017872
-6.89199e-06
-0.000175741
-8.94017e-06
-0.000171895
-1.15644e-05
-0.000167334
-1.367e-05
-0.000162026
-1.59275e-05
-0.000155753
-1.88627e-05
-0.00014867
-2.12154e-05
-0.000140792
-2.36156e-05
-0.000131763
-2.71196e-05
-0.000121932
-2.94942e-05
-0.000111014
-3.27704e-05
-9.90818e-05
-3.57822e-05
-8.6399e-05
-3.80432e-05
-7.25692e-05
-4.14955e-05
-5.77248e-05
-4.45099e-05
-4.21464e-05
-4.67181e-05
-2.55751e-05
-4.97095e-05
-8.30603e-06
-5.17717e-05
9.67217e-06
-5.39069e-05
2.8196e-05
-5.55245e-05
4.68825e-05
-5.60249e-05
6.57771e-05
-5.66442e-05
8.46108e-05
-5.64449e-05
0.000102993
-5.51095e-05
0.000120904
-5.36789e-05
0.000138024
-5.1293e-05
0.000153986
-4.7863e-05
0.000168711
-4.41317e-05
0.000181818
-3.92816e-05
0.000193251
-3.42709e-05
0.000202822
-2.86674e-05
0.000210172
-2.20229e-05
0.000215353
-1.55384e-05
0.000218271
-8.72153e-06
0.000218697
-1.26456e-06
0.000216721
5.88944e-06
0.000212323
1.32064e-05
0.000205737
1.97602e-05
0.000196996
2.61888e-05
0.000186176
3.24255e-05
0.000173563
3.78078e-05
0.000159268
4.28281e-05
0.000143565
4.70539e-05
0.000126782
5.02692e-05
0.000108979
5.33875e-05
9.05678e-05
5.51881e-05
7.17237e-05
5.64841e-05
5.26929e-05
5.70517e-05
3.37099e-05
5.68951e-05
1.48621e-05
5.65134e-05
-3.52078e-06
5.51217e-05
-2.13141e-05
5.33501e-05
-3.84439e-05
5.13783e-05
-5.47805e-05
4.89981e-05
-7.03053e-05
4.65581e-05
-8.48497e-05
4.36238e-05
-9.84309e-05
4.06985e-05
-0.000110947
3.75551e-05
-0.000122485
3.46249e-05
-0.000132982
3.14549e-05
-0.000142424
2.83202e-05
-0.000150863
2.53192e-05
-0.000158274
2.22307e-05
-0.000164647
1.91147e-05
-0.00017012
1.63856e-05
-0.000174628
1.35245e-05
-0.000178225
1.08087e-05
-0.000180971
8.22646e-06
-0.000182851
5.60494e-06
-0.000183932
3.28681e-06
-0.000184345
1.23777e-06
-0.000183999
-1.04348e-06
-0.00018297
-3.08443e-06
-0.00018129
-5.01227e-06
-0.000179005
-6.89303e-06
-0.000176066
-8.81721e-06
-0.000172477
-1.07706e-05
-0.000168259
-1.2645e-05
-0.000163385
-1.46226e-05
-0.000157791
-1.67814e-05
-0.000151498
-1.89142e-05
-0.000144455
-2.11197e-05
-0.000136619
-2.34966e-05
-0.000127984
-2.59047e-05
-0.000118501
-2.84505e-05
-0.00010828
-3.06798e-05
-9.71672e-05
-3.3341e-05
-8.52007e-05
-3.58789e-05
-7.2429e-05
-3.82887e-05
-5.88645e-05
-4.06976e-05
-4.45189e-05
-4.30237e-05
-2.94754e-05
-4.51627e-05
-1.37937e-05
-4.69909e-05
2.48545e-06
-4.87916e-05
1.92519e-05
-5.02331e-05
3.63111e-05
-5.11865e-05
5.36174e-05
-5.18703e-05
7.09653e-05
-5.20238e-05
8.81729e-05
-5.15698e-05
0.000105064
-5.06146e-05
0.000121358
-4.88372e-05
0.000136831
-4.63606e-05
0.000151234
-4.31348e-05
0.000164303
-3.91632e-05
0.000175776
-3.43805e-05
0.000185421
-2.8882e-05
0.000193029
-2.27861e-05
0.000198398
-1.60836e-05
0.000201424
-9.0478e-06
0.00020204
-1.85206e-06
0.000200159
5.60691e-06
0.000195817
1.29836e-05
0.000189119
2.0107e-05
0.000180149
2.6893e-05
0.000169097
3.30879e-05
0.000156178
3.86937e-05
0.00014161
4.36714e-05
0.000125595
4.798e-05
0.000108492
5.12503e-05
9.05157e-05
5.38675e-05
7.20263e-05
5.54097e-05
5.3234e-05
5.63431e-05
3.4374e-05
5.65027e-05
1.57967e-05
5.56776e-05
-2.34186e-06
5.44036e-05
-1.98177e-05
5.23851e-05
-3.65225e-05
5.01042e-05
-5.23768e-05
4.75213e-05
-6.72127e-05
4.45023e-05
-8.10277e-05
4.14572e-05
-9.37753e-05
3.82453e-05
-0.000105528
3.52532e-05
-0.000116233
3.20969e-05
-0.000125897
2.90263e-05
-0.000134623
2.61811e-05
-0.000142422
2.33829e-05
-0.000149331
2.07483e-05
-0.000155427
1.83011e-05
-0.000160729
1.59193e-05
-0.000165294
1.36902e-05
-0.000169171
1.16514e-05
-0.000172497
9.98444e-06
-0.000175142
7.93868e-06
-0.00017719
6.15147e-06
-0.000178662
4.39012e-06
-0.000179579
2.74592e-06
-0.000179876
9.12972e-07
-0.000179593
-8.50188e-07
-0.000178735
-2.57594e-06
-0.000177248
-4.47816e-06
-0.000175093
-6.45542e-06
-0.000172357
-8.19082e-06
-0.000168842
-1.05626e-05
-0.000164603
-1.27138e-05
-0.000159585
-1.50999e-05
-0.000153693
-1.76797e-05
-0.00014692
-2.03106e-05
-0.000139195
-2.31608e-05
-0.00013052
-2.60716e-05
-0.000120865
-2.896e-05
-0.000110184
-3.20299e-05
-9.84926e-05
-3.50249e-05
-8.58356e-05
-3.79936e-05
-7.21816e-05
-4.09585e-05
-5.76427e-05
-4.36086e-05
-4.22249e-05
-4.62261e-05
-2.60516e-05
-4.85093e-05
-9.20778e-06
-5.04872e-05
8.17652e-06
-5.21047e-05
2.59288e-05
-5.32399e-05
4.39082e-05
-5.3895e-05
6.1902e-05
-5.39236e-05
7.97269e-05
-5.34355e-05
9.71563e-05
-5.22363e-05
0.000113949
-5.03342e-05
0.000129888
-4.7779e-05
0.000144735
-4.44899e-05
0.000158274
-4.05524e-05
0.00017029
-3.60043e-05
0.000180562
-3.07816e-05
0.000188927
-2.50682e-05
0.000195265
-1.90036e-05
0.000199458
-1.25594e-05
0.000201421
-5.85138e-06
0.000201155
7.4753e-07
0.000198639
7.48553e-06
0.00019391
1.42062e-05
0.000187101
2.04127e-05
0.000178297
2.63674e-05
0.000167627
3.1985e-05
0.000155262
3.70591e-05
0.000141409
4.15212e-05
0.000126233
4.54829e-05
0.000109949
4.87983e-05
9.2781e-05
5.14515e-05
7.49474e-05
5.34756e-05
5.66918e-05
5.47031e-05
3.82371e-05
5.5313e-05
1.97879e-05
5.53226e-05
1.52997e-06
5.47358e-05
-1.62681e-05
5.33563e-05
-3.34891e-05
5.16259e-05
-4.99276e-05
4.92746e-05
-6.54669e-05
4.6608e-05
-8.0035e-05
4.37094e-05
-9.35588e-05
4.05184e-05
-0.000105945
3.71736e-05
-0.000117208
3.3785e-05
-0.000127301
3.02655e-05
-0.000136269
2.69006e-05
-0.000144147
2.36737e-05
-0.000150965
2.04588e-05
-0.000156777
1.74378e-05
-0.000161631
1.45747e-05
-0.000165583
1.18808e-05
-0.000168734
9.48664e-06
-0.000171196
7.35669e-06
-0.000172905
5.12741e-06
-0.000173977
3.24023e-06
-0.000174448
1.42661e-06
-0.000174391
-1.62349e-07
-0.000173761
-1.86431e-06
-0.000172637
-3.38082e-06
-0.000171006
-4.8855e-06
-0.000168841
-6.51385e-06
-0.000166143
-8.12661e-06
-0.000162897
-9.70673e-06
-0.000159024
-1.16277e-05
-0.000154523
-1.35327e-05
-0.000149347
-1.5524e-05
-0.000143382
-1.79043e-05
-0.000136617
-2.03036e-05
-0.000129056
-2.26868e-05
-0.00012054
-2.55605e-05
-0.00011109
-2.83526e-05
-0.000100641
-3.1348e-05
-8.91704e-05
-3.44106e-05
-7.66976e-05
-3.7419e-05
-6.31993e-05
-4.04718e-05
-4.87177e-05
-4.34539e-05
-3.33607e-05
-4.60478e-05
-1.71435e-05
-4.86198e-05
-1.8867e-07
-5.08199e-05
1.7314e-05
-5.24824e-05
3.52315e-05
-5.37004e-05
5.33492e-05
-5.4315e-05
7.1509e-05
-5.44486e-05
8.94181e-05
-5.36639e-05
0.000106928
-5.24542e-05
0.000123649
-5.01599e-05
0.000139378
-4.71294e-05
0.000153902
-4.35386e-05
0.000166973
-3.91746e-05
0.000178436
-3.43161e-05
0.000187977
-2.86401e-05
0.000195439
-2.23692e-05
0.000200841
-1.617e-05
0.000204028
-9.56658e-06
0.000204901
-2.58655e-06
0.000203555
4.0283e-06
0.000200001
1.06823e-05
0.000194293
1.71164e-05
0.000186479
2.34206e-05
0.000176794
2.90239e-05
0.000165411
3.41013e-05
0.000152381
3.90526e-05
0.000138157
4.26277e-05
0.000122811
4.60016e-05
0.000106528
4.87879e-05
8.96992e-05
5.04607e-05
7.25136e-05
5.14992e-05
5.50902e-05
5.2223e-05
3.77094e-05
5.21105e-05
2.05933e-05
5.13121e-05
3.8032e-06
5.03279e-05
-1.26534e-05
4.93518e-05
-2.85195e-05
4.75834e-05
-4.36765e-05
4.54471e-05
-5.81393e-05
4.33762e-05
-7.17992e-05
4.09671e-05
-8.46172e-05
3.84378e-05
-9.6584e-05
3.58828e-05
-0.000107639
3.31591e-05
-0.000117784
3.04341e-05
-0.000127036
2.77455e-05
-0.00013536
2.49676e-05
-0.000142785
2.22752e-05
-0.000149329
1.96242e-05
-0.000155003
1.70318e-05
-0.000159849
1.45356e-05
-0.000163875
1.20771e-05
-0.000167084
9.6288e-06
-0.000169553
7.41309e-06
-0.00017128
5.1739e-06
-0.000172281
3.02805e-06
-0.000172588
9.51903e-07
-0.000172089
-1.49002e-06
-0.000170833
-3.78725e-06
-0.000168848
-5.93982e-06
-0.000166034
-8.44741e-06
-0.000162451
-1.07447e-05
-0.000158042
-1.32295e-05
-0.000152807
-1.5711e-05
-0.000146791
-1.80499e-05
-0.000139859
-2.08087e-05
-0.000132032
-2.34695e-05
-0.000123476
-2.56657e-05
-0.000113932
-2.86366e-05
-0.000103505
-3.12705e-05
-9.23273e-05
-3.35244e-05
-8.02294e-05
-3.62905e-05
-6.75061e-05
-3.81518e-05
-5.38976e-05
-4.08284e-05
-3.95441e-05
-4.30232e-05
-2.4708e-05
-4.44896e-05
-9.21568e-06
-4.64932e-05
6.67618e-06
-4.75877e-05
2.28217e-05
-4.8396e-05
3.92716e-05
-4.9301e-05
5.56958e-05
-4.92528e-05
7.21006e-05
-4.9187e-05
8.82473e-05
-4.84042e-05
0.000103852
-4.67951e-05
0.000118906
-4.51379e-05
0.000133167
-4.27517e-05
0.000146359
-3.95663e-05
0.000158408
-3.61319e-05
0.000169062
-3.19468e-05
0.000178115
-2.71513e-05
0.000185489
-2.21012e-05
0.000190966
-1.64048e-05
0.000194404
-1.02909e-05
0.000195815
-4.19848e-06
2.02308e-06
-3.48101e-05
6.64549e-05
-5.05781e-05
6.30312e-05
-6.55803e-05
5.997e-05
-7.97232e-05
5.65362e-05
-9.2898e-05
5.26635e-05
-0.000105142
4.89599e-05
-0.0001164
4.50146e-05
-0.000126721
4.12733e-05
-0.000136097
3.75001e-05
-0.00014453
3.37195e-05
-0.000152063
3.01191e-05
-0.000158704
2.65729e-05
-0.000164505
2.31996e-05
-0.000169492
1.99472e-05
-0.00017368
1.67384e-05
-0.000177111
1.37153e-05
-0.000179797
1.0755e-05
-0.000181777
7.92183e-06
-0.000183067
5.18315e-06
-0.000183651
2.46048e-06
-0.000183506
-4.84152e-07
-0.000182665
-3.35148e-06
-0.000181123
-6.23517e-06
-0.000178805
-9.21041e-06
-0.000175829
-1.19158e-05
-0.000172001
-1.53932e-05
-0.000167427
-1.82431e-05
-0.000162124
-2.1231e-05
-0.000155874
-2.51124e-05
-0.000148772
-2.83172e-05
-0.000140894
-3.14938e-05
-0.000131878
-3.61356e-05
-0.000122046
-3.93265e-05
-0.000111139
-4.36777e-05
-9.91993e-05
-4.77216e-05
-8.6514e-05
-5.07285e-05
-7.26885e-05
-5.5321e-05
-5.78302e-05
-5.93683e-05
-4.22441e-05
-6.23042e-05
-2.56702e-05
-6.62835e-05
-8.37896e-06
-6.9063e-05
9.61788e-06
-7.19038e-05
2.81645e-05
-7.40711e-05
4.68728e-05
-7.47333e-05
6.57914e-05
-7.55628e-05
8.46502e-05
-7.53037e-05
0.00010306
-7.3519e-05
0.000120998
-7.16176e-05
0.000138148
-6.8443e-05
0.000154129
-6.38442e-05
0.000168875
-5.8877e-05
0.000182
-5.24071e-05
0.000193457
-4.57281e-05
0.000203045
-3.82551e-05
0.000210409
-2.93867e-05
0.000215597
-2.07271e-05
0.000218527
-1.16508e-05
0.000218956
-1.69382e-06
0.000216966
7.87883e-06
0.000212581
1.75917e-05
0.000205992
2.63494e-05
0.000197228
3.49524e-05
0.000186392
4.32621e-05
0.000173761
5.04389e-05
0.000159432
5.71563e-05
0.000143699
6.27872e-05
0.000126874
6.70944e-05
0.000109061
7.12008e-05
9.06266e-05
7.36223e-05
7.17593e-05
7.53514e-05
5.27019e-05
7.6109e-05
3.36809e-05
7.59161e-05
1.48233e-05
7.53711e-05
-3.57163e-06
7.35166e-05
-2.1385e-05
7.11635e-05
-3.85211e-05
6.85144e-05
-5.48651e-05
6.53421e-05
-7.04016e-05
6.20946e-05
-8.49453e-05
5.81674e-05
-9.85544e-05
5.43077e-05
-0.000111076
5.0077e-05
-0.000122593
4.61421e-05
-0.000133101
4.19629e-05
-0.000142546
3.77647e-05
-0.00015099
3.37633e-05
-0.000158412
2.96526e-05
-0.000164796
2.54988e-05
-0.000170265
2.18551e-05
-0.000174765
1.80243e-05
-0.00017836
1.44032e-05
-0.000181102
1.09688e-05
-0.000182995
7.49754e-06
-0.000184093
4.38566e-06
-0.000184496
1.64041e-06
-0.000184145
-1.39494e-06
-0.00018311
-4.11942e-06
-0.000181402
-6.7204e-06
-0.00017914
-9.15463e-06
-0.000176196
-1.17608e-05
-0.00017261
-1.43566e-05
-0.000168403
-1.68521e-05
-0.00016353