/*--------------------------------*- C++ -*----------------------------------*\
| =========                 |                                                 |
| \\      /  F ield         | OpenFOAM: The Open Source CFD Toolbox           |
|  \\    /   O peration     | Version:  3.0.1                                 |
|   \\  /    A nd           | Web:      www.OpenFOAM.org                      |
|    \\/     M anipulation  |                                                 |
\*---------------------------------------------------------------------------*/
FoamFile
{
    version     2.0;
    format      ascii;
    class       volScalarField;
    location    "44.2";
    object      p;
}
// * * * * * * * * * * * * * * * * * * * * * * * * * * * * * * * * * * * * * //

dimensions      [1 -1 -2 0 0 0 0];

internalField   nonuniform List<scalar> 
21420
(
3853.4
3823.1
3794.26
3769.67
3743.11
3716.15
3690.38
3666.18
3643.77
3623.23
3604.56
3587.77
3572.8
3559.62
3548.17
3538.39
3530.24
3523.65
3518.59
3515.01
3512.87
3512.16
3512.87
3514.98
3518.46
3523.34
3529.62
3537.33
3546.48
3557.1
3569.25
3582.96
3598.28
3615.25
3633.91
3654.31
3676.45
3700.34
3725.96
3753.27
3782.26
3810.9
3842.32
3874.62
3907.67
3941.14
3974.71
4008.05
4040.76
4072.42
4102.67
4131.1
4157.33
4181
4201.78
4219.4
4233.6
4244.2
4251.03
4254.01
4253.02
4248.17
4239.42
4226.92
4210.8
4191.27
4168.6
4143.1
4115.11
4084.99
4053.12
4019.94
3985.85
3951.26
3916.56
3882.14
3848.34
3815.49
3783.55
3747.65
3716.79
3688.06
3661.26
3636.42
3613.57
3592.77
3574.03
3557.36
3542.74
3530.14
3519.5
3510.77
3503.84
3498.59
3494.98
3492.96
3492.39
3493.21
3495.36
3498.79
3503.46
3509.36
3516.45
3524.72
3534.19
3544.85
3556.72
3569.83
3584.18
3599.81
3616.73
3634.97
3654.54
3675.46
3697.72
3721.31
3746.21
3772.36
3799.69
3828
3857.19
3887.06
3917.4
3947.95
3978.44
4008.54
4037.92
4066.23
4093.1
4118.16
4141.03
4161.37
4178.83
4193.11
4203.93
4211.09
4214.42
4213.79
4209.21
4200.71
4188.45
4172.51
4153.17
4130.71
4105.46
4077.79
4048.11
4016.83
3984.38
3951.2
3917.7
3884.29
3851.34
3819.19
3788.16
3758.51
3730.43
3704.11
3679.63
3657.09
3636.5
3617.88
3601.21
3586.44
3573.51
3562.35
3552.87
3544.97
3538.54
3533.5
3529.75
3527.18
3525.73
3525.31
3525.86
3527.32
3529.67
3532.87
3536.88
3541.68
3547.27
3553.65
3560.82
3568.79
3577.57
3587.21
3597.74
3609.22
3621.69
3635.23
3649.88
3665.7
3682.74
3701.06
3720.66
3741.58
3763.82
3787.33
3812.01
3837.79
3864.54
3892.08
3920.21
3948.67
3977.19
4005.44
4033.06
4059.7
4084.96
4108.46
4129.83
4148.7
4164.76
4177.7
4187.3
4193.38
4195.8
4194.46
4189.48
4180.94
4168.9
4153.61
4135.34
4114.39
4091.13
4065.91
4039.13
4011.17
3982.41
3953.2
3923.9
3894.82
3866.26
3838.49
3811.73
3786.15
3761.9
3739.08
3717.72
3697.86
3679.49
3662.57
3647.08
3632.95
3620.13
3608.54
3598.13
3588.83
3580.58
3573.33
3567.04
3561.65
3557.15
3553.48
3550.61
3548.52
3547.17
3546.54
3546.64
3547.47
3549.08
3551.52
3554.85
3559.17
3564.54
3571.07
3578.85
3587.95
3598.48
3610.52
3624.15
3639.43
3656.37
3674.97
3695.06
3716.31
3740.43
3769.11
3800.48
3833.48
3868.09
3904.25
3941.76
3980.31
4019.53
4059.02
4098.17
4136.53
4173.43
4208.3
4240.53
4269.47
4294.61
4315.4
4331.17
4341.97
4348.45
4350.31
4347.17
4339.46
4327.6
4311.73
4292.24
4269.61
4244.21
4216.53
4187.11
4156.31
4124.62
4092.34
4059.86
4027.56
3995.64
3964.38
3934.02
3904.67
3876.53
3849.96
3826.91
3803.65
3781.13
3759.74
3739.66
3720.95
3703.62
3687.68
3673.16
3660.06
3648.44
3638.35
3629.85
3623
3617.85
3614.49
3612.97
3613.54
3616.06
3620.59
3627.1
3635.62
3646.13
3658.6
3673.01
3689.3
3707.43
3727.37
3749.04
3772.37
3797.27
3821.78
3848.59
3876.71
3905.78
3935.67
3966.26
3997.18
4028.18
3755.24
3724.93
3696.09
3671.53
3644.95
3617.98
3592.19
3568
3545.59
3525.05
3506.38
3489.59
3474.63
3461.45
3450
3440.23
3432.07
3425.49
3420.43
3416.85
3414.71
3414.01
3414.72
3416.83
3420.31
3425.18
3431.47
3439.17
3448.32
3458.94
3471.09
3484.8
3500.11
3517.08
3535.74
3556.13
3578.28
3602.16
3627.78
3655.09
3684.07
3712.76
3744.17
3776.47
3809.53
3843.01
3876.6
3909.95
3942.67
3974.35
4004.62
4033.06
4059.31
4083
4103.8
4121.42
4135.64
4146.24
4153.08
4156.07
4155.08
4150.22
4141.47
4128.96
4112.83
4093.29
4070.6
4045.08
4017.08
3986.93
3955.04
3921.85
3887.75
3853.13
3818.42
3783.99
3750.18
3717.33
3685.39
3649.45
3618.6
3589.88
3563.08
3538.24
3515.39
3494.59
3475.85
3459.18
3444.56
3431.97
3421.33
3412.6
3405.67
3400.43
3396.82
3394.8
3394.23
3395.06
3397.21
3400.64
3405.31
3411.21
3418.3
3426.57
3436.04
3446.7
3458.57
3471.67
3486.03
3501.65
3518.57
3536.81
3556.38
3577.3
3599.56
3623.15
3648.04
3674.2
3701.53
3729.85
3759.04
3788.92
3819.27
3849.83
3880.33
3910.44
3939.84
3968.16
3995.05
4020.12
4043.02
4063.37
4080.85
4095.14
4105.97
4113.14
4116.47
4115.85
4111.26
4102.75
4090.48
4074.54
4055.18
4032.71
4007.44
3979.75
3950.05
3918.75
3886.28
3853.08
3819.57
3786.14
3753.18
3721.03
3689.99
3660.32
3632.24
3605.92
3581.44
3558.9
3538.31
3519.69
3503.02
3488.26
3475.34
3464.18
3454.7
3446.8
3440.39
3435.35
3431.6
3429.04
3427.59
3427.17
3427.72
3429.19
3431.54
3434.74
3438.74
3443.55
3449.14
3455.52
3462.69
3470.65
3479.43
3489.07
3499.6
3511.07
3523.55
3537.08
3551.72
3567.54
3584.59
3602.89
3622.5
3643.41
3665.66
3689.16
3713.85
3739.63
3766.38
3793.93
3822.07
3850.55
3879.08
3907.34
3934.98
3961.63
3986.91
4010.43
4031.81
4050.7
4066.77
4079.73
4089.34
4095.42
4097.85
4096.5
4091.52
4082.97
4070.92
4055.62
4037.33
4016.37
3993.08
3967.85
3941.05
3913.08
3884.3
3855.08
3825.76
3796.67
3768.11
3740.33
3713.56
3687.98
3663.73
3640.91
3619.55
3599.69
3581.32
3564.41
3548.92
3534.79
3521.97
3510.39
3499.98
3490.68
3482.44
3475.19
3468.9
3463.52
3459.01
3455.34
3452.48
3450.39
3449.04
3448.41
3448.5
3449.34
3450.95
3453.38
3456.71
3461.02
3466.39
3472.92
3480.69
3489.79
3500.32
3512.36
3525.98
3541.26
3558.2
3576.79
3596.89
3618.14
3642.25
3670.94
3702.31
3735.31
3769.93
3806.1
3843.62
3882.19
3921.42
3960.93
4000.1
4038.49
4075.41
4110.3
4142.56
4171.52
4196.67
4217.49
4233.3
4244.17
4250.56
4252.38
4249.25
4241.54
4229.66
4213.78
4194.26
4171.6
4146.18
4118.48
4089.05
4058.23
4026.52
3994.22
3961.74
3929.42
3897.49
3866.22
3835.86
3806.5
3778.35
3751.76
3728.78
3705.5
3682.97
3661.57
3641.5
3622.79
3605.46
3589.52
3574.99
3561.9
3550.28
3540.19
3531.68
3524.83
3519.68
3516.31
3514.8
3515.36
3517.88
3522.41
3528.92
3537.44
3547.95
3560.42
3574.83
3591.12
3609.25
3629.19
3650.86
3674.19
3699.08
3723.63
3750.43
3778.55
3807.63
3837.52
3868.12
3899.05
3930.06
3657.04
3626.7
3597.83
3573.34
3546.72
3519.73
3493.93
3469.73
3447.32
3426.78
3408.12
3391.34
3376.38
3363.21
3351.77
3342
3333.85
3327.27
3322.21
3318.64
3316.5
3315.79
3316.51
3318.61
3322.1
3326.97
3333.25
3340.96
3350.1
3360.72
3372.86
3386.56
3401.87
3418.84
3437.49
3457.88
3480.02
3503.9
3529.52
3556.83
3585.79
3614.56
3645.96
3678.27
3711.34
3744.86
3778.46
3811.85
3844.6
3876.32
3906.62
3935.09
3961.37
3985.1
4005.92
4023.57
4037.81
4048.43
4055.28
4058.28
4057.3
4052.41
4043.66
4031.13
4014.98
3995.41
3972.7
3947.15
3919.1
3888.92
3857
3823.77
3789.63
3754.99
3720.25
3685.79
3651.96
3619.1
3587.18
3551.16
3520.33
3491.61
3464.82
3439.97
3417.13
3396.33
3377.59
3360.92
3346.31
3333.72
3323.09
3314.36
3307.43
3302.2
3298.6
3296.58
3296.02
3296.85
3299
3302.44
3307.11
3313.01
3320.1
3328.38
3337.84
3348.5
3360.37
3373.47
3387.82
3403.44
3420.35
3438.59
3458.16
3479.07
3501.33
3524.92
3549.82
3575.97
3603.31
3631.64
3660.85
3690.74
3721.11
3751.69
3782.21
3812.35
3841.77
3870.13
3897.05
3922.16
3945.08
3965.47
3982.98
3997.29
4008.15
4015.33
4018.68
4018.07
4013.45
4004.95
3992.66
3976.69
3957.31
3934.8
3909.49
3881.77
3852.03
3820.69
3788.19
3754.96
3721.41
3687.95
3654.96
3622.79
3591.74
3562.06
3533.97
3507.64
3483.16
3460.62
3440.03
3421.42
3404.76
3390
3377.09
3365.94
3356.47
3348.58
3342.17
3337.14
3333.4
3330.85
3329.4
3328.99
3329.55
3331.02
3333.37
3336.57
3340.58
3345.38
3350.98
3357.36
3364.52
3372.48
3381.26
3390.9
3401.42
3412.89
3425.35
3438.88
3453.52
3469.33
3486.37
3504.67
3524.27
3545.19
3567.43
3590.94
3615.63
3641.42
3668.18
3695.74
3723.9
3752.4
3780.95
3809.24
3836.91
3863.6
3888.91
3912.46
3933.88
3952.8
3968.9
3981.88
3991.51
3997.6
4000.05
3998.69
3993.69
3985.13
3973.06
3957.73
3939.41
3918.42
3895.1
3869.83
3843
3814.99
3786.18
3756.94
3727.59
3698.48
3669.9
3642.11
3615.33
3589.74
3565.49
3542.66
3521.31
3501.45
3483.09
3466.18
3450.7
3436.58
3423.77
3412.19
3401.79
3392.49
3384.25
3377.01
3370.72
3365.35
3360.85
3357.18
3354.32
3352.23
3350.88
3350.25
3350.34
3351.17
3352.78
3355.21
3358.53
3362.83
3368.2
3374.72
3382.48
3391.58
3402.09
3414.12
3427.74
3443.02
3459.96
3478.55
3498.64
3519.9
3543.99
3572.71
3604.08
3637.09
3671.72
3707.9
3745.44
3784.04
3823.3
3862.85
3902.07
3940.5
3977.47
4012.41
4044.71
4073.72
4098.91
4119.76
4135.66
4146.66
4152.85
4154.64
4151.51
4143.8
4131.89
4115.97
4096.4
4073.7
4048.23
4020.49
3991.02
3960.16
3928.42
3896.09
3863.58
3831.24
3799.3
3768.02
3737.64
3708.26
3680.1
3653.45
3630.63
3607.29
3584.74
3563.35
3543.27
3524.57
3507.24
3491.3
3476.77
3463.68
3452.06
3441.96
3433.45
3426.59
3421.44
3418.07
3416.55
3417.1
3419.63
3424.15
3430.66
3439.18
3449.69
3462.16
3476.57
3492.86
3511
3530.93
3552.61
3575.94
3600.81
3625.43
3652.21
3680.34
3709.43
3739.33
3769.94
3800.89
3831.92
3558.78
3528.41
3499.5
3475.1
3448.42
3421.4
3395.59
3371.38
3348.97
3328.44
3309.78
3293
3278.06
3264.89
3253.46
3243.7
3235.56
3228.98
3223.93
3220.36
3218.24
3217.53
3218.24
3220.35
3223.83
3228.71
3234.99
3242.69
3251.82
3262.44
3274.57
3288.26
3303.57
3320.52
3339.17
3359.56
3381.69
3405.57
3431.18
3458.49
3487.43
3516.31
3547.7
3580.02
3613.12
3646.67
3680.32
3713.74
3746.55
3778.31
3808.66
3837.19
3863.52
3887.29
3908.16
3925.85
3940.12
3950.76
3957.63
3960.64
3959.68
3954.76
3945.99
3933.44
3917.26
3897.66
3874.9
3849.3
3821.2
3790.96
3758.99
3725.7
3691.51
3656.82
3622.04
3587.54
3553.68
3520.82
3488.92
3452.77
3421.98
3393.27
3366.48
3341.63
3318.79
3297.99
3279.26
3262.59
3247.99
3235.4
3224.78
3216.05
3209.13
3203.91
3200.33
3198.31
3197.75
3198.59
3200.75
3204.19
3208.87
3214.76
3221.85
3230.13
3239.59
3250.25
3262.11
3275.21
3289.55
3305.17
3322.08
3340.31
3359.88
3380.78
3403.04
3426.63
3451.53
3477.69
3505.04
3533.39
3562.6
3592.52
3622.91
3653.53
3684.08
3714.26
3743.73
3772.13
3799.1
3824.26
3847.24
3867.67
3885.22
3899.58
3910.47
3917.67
3921.04
3920.44
3915.81
3907.29
3894.97
3878.97
3859.55
3836.99
3811.63
3783.85
3754.05
3722.66
3690.1
3656.81
3623.22
3589.72
3556.69
3524.49
3493.41
3463.71
3435.61
3409.28
3384.8
3362.25
3341.67
3323.07
3306.42
3291.67
3278.77
3267.63
3258.18
3250.3
3243.9
3238.89
3235.15
3232.61
3231.18
3230.78
3231.34
3232.81
3235.17
3238.37
3242.38
3247.19
3252.78
3259.16
3266.32
3274.28
3283.06
3292.68
3303.2
3314.66
3327.12
3340.63
3355.26
3371.07
3388.09
3406.39
3425.99
3446.89
3469.14
3492.65
3517.35
3543.15
3569.93
3597.51
3625.69
3654.22
3682.81
3711.14
3738.86
3765.6
3790.96
3814.57
3836.03
3855
3871.14
3884.16
3893.81
3899.93
3902.38
3901.03
3896.01
3887.43
3875.33
3859.96
3841.59
3820.55
3797.18
3771.85
3744.97
3716.91
3688.06
3658.77
3629.39
3600.25
3571.64
3543.82
3517.03
3491.43
3467.17
3444.35
3423
3403.15
3384.79
3367.89
3352.42
3338.31
3325.51
3313.94
3303.55
3294.26
3286.03
3278.79
3272.51
3267.14
3262.64
3258.98
3256.12
3254.04
3252.7
3252.07
3252.16
3252.98
3254.58
3257
3260.31
3264.6
3269.96
3276.46
3284.22
3293.3
3303.8
3315.82
3329.44
3344.7
3361.64
3380.23
3400.33
3421.6
3445.65
3474.4
3505.78
3538.8
3573.44
3609.65
3647.22
3685.86
3725.17
3764.78
3804.06
3842.56
3879.61
3914.62
3947
3976.07
4001.32
4022.23
4038.23
4049.32
4055.38
4057.08
4053.97
4046.24
4034.28
4018.3
3998.67
3975.9
3950.36
3922.56
3893.02
3862.11
3830.31
3797.95
3765.4
3733.03
3701.06
3669.75
3639.36
3609.96
3581.76
3555.03
3532.45
3509.03
3486.45
3465.05
3444.98
3426.28
3408.96
3393.02
3378.49
3365.4
3353.77
3343.67
3335.15
3328.29
3323.13
3319.75
3318.23
3318.77
3321.3
3325.81
3332.32
3340.84
3351.35
3363.82
3378.23
3394.52
3412.66
3432.6
3454.27
3477.6
3502.46
3527.17
3553.93
3582.07
3611.17
3641.09
3671.72
3702.69
3733.75
3460.47
3430.05
3401.09
3376.82
3350.06
3323
3297.16
3272.95
3250.54
3230.01
3211.36
3194.6
3179.66
3166.51
3155.09
3145.34
3137.2
3130.64
3125.6
3122.03
3119.91
3119.21
3119.93
3122.03
3125.52
3130.39
3136.66
3144.36
3153.49
3164.09
3176.22
3189.9
3205.19
3222.14
3240.77
3261.15
3283.28
3307.15
3332.77
3360.08
3388.98
3418
3449.37
3481.72
3514.86
3548.45
3582.15
3615.64
3648.51
3680.34
3710.76
3739.36
3765.75
3789.58
3810.51
3828.25
3842.56
3853.24
3860.14
3863.15
3862.21
3857.26
3848.48
3835.9
3819.67
3800.01
3777.19
3751.53
3723.36
3693.05
3661
3627.64
3593.39
3558.63
3523.79
3489.24
3455.35
3422.47
3390.61
3354.28
3323.54
3294.84
3268.05
3243.21
3220.37
3199.57
3180.84
3164.19
3149.59
3137.01
3126.39
3117.67
3110.76
3105.55
3101.99
3099.98
3099.43
3100.27
3102.44
3105.89
3110.57
3116.47
3123.56
3131.83
3141.29
3151.95
3163.81
3176.9
3191.24
3206.84
3223.75
3241.97
3261.53
3282.44
3304.69
3328.28
3353.18
3379.35
3406.71
3435.07
3464.32
3494.26
3524.69
3555.34
3585.95
3616.18
3645.71
3674.17
3701.21
3726.43
3749.47
3769.97
3787.58
3801.99
3812.93
3820.17
3823.55
3822.96
3818.32
3809.78
3797.43
3781.38
3761.9
3739.28
3713.85
3685.99
3656.12
3624.65
3592.02
3558.66
3525
3491.44
3458.37
3426.12
3395.01
3365.28
3337.17
3310.82
3286.34
3263.8
3243.23
3224.63
3207.99
3193.26
3180.37
3169.26
3159.82
3151.96
3145.58
3140.58
3136.86
3134.33
3132.91
3132.52
3133.09
3134.58
3136.94
3140.14
3144.15
3148.96
3154.56
3160.93
3168.09
3176.05
3184.82
3194.43
3204.94
3216.39
3228.84
3242.34
3256.95
3272.75
3289.76
3308.05
3327.64
3348.54
3370.78
3394.29
3419
3444.82
3471.62
3499.23
3527.45
3556.02
3584.67
3613.05
3640.83
3667.63
3693.06
3716.74
3738.27
3757.3
3773.5
3786.57
3796.26
3802.39
3804.85
3803.52
3798.48
3789.86
3777.72
3762.29
3743.87
3722.75
3699.31
3673.92
3646.97
3618.84
3589.93
3560.59
3531.16
3501.97
3473.33
3445.48
3418.66
3393.05
3368.79
3345.96
3324.61
3304.77
3286.42
3269.54
3254.08
3239.99
3227.2
3215.64
3205.26
3195.99
3187.76
3180.54
3174.26
3168.9
3164.41
3160.75
3157.9
3155.82
3154.48
3153.85
3153.94
3154.76
3156.34
3158.75
3162.06
3166.33
3171.67
3178.16
3185.89
3194.96
3205.45
3217.46
3231.06
3246.32
3263.25
3281.84
3301.94
3323.22
3347.23
3376.02
3407.42
3440.45
3475.11
3511.35
3548.97
3587.66
3627.04
3666.72
3706.09
3744.69
3781.84
3816.95
3849.42
3878.58
3903.91
3924.89
3940.99
3952.13
3958.12
3959.76
3956.62
3948.86
3936.83
3920.77
3901.05
3878.19
3852.57
3824.67
3795.05
3764.07
3732.21
3699.79
3667.18
3634.77
3602.77
3571.44
3541.02
3511.6
3483.35
3456.5
3434.24
3410.72
3388.1
3366.7
3346.63
3327.93
3310.61
3294.68
3280.15
3267.05
3255.42
3245.31
3236.79
3229.91
3224.75
3221.36
3219.83
3220.37
3222.88
3227.4
3233.9
3242.42
3252.93
3265.4
3279.81
3296.11
3314.25
3334.19
3355.87
3379.19
3404.04
3428.84
3455.59
3483.74
3512.86
3542.81
3573.46
3604.47
3635.56
3362.11
3331.63
3302.61
3278.5
3251.63
3224.52
3198.65
3174.43
3152.02
3131.5
3112.86
3096.11
3081.19
3068.05
3056.65
3046.91
3038.79
3032.24
3027.2
3023.65
3021.53
3020.84
3021.55
3023.65
3027.14
3032.01
3038.28
3045.97
3055.09
3065.68
3077.8
3091.47
3106.75
3123.68
3142.3
3162.67
3184.79
3208.66
3234.27
3261.58
3290.47
3319.62
3350.99
3383.37
3416.56
3450.21
3483.98
3517.53
3550.48
3582.4
3612.9
3641.59
3668.07
3691.98
3712.97
3730.78
3745.15
3755.86
3762.79
3765.82
3764.89
3759.93
3751.11
3738.49
3722.21
3702.48
3679.59
3653.84
3625.58
3595.18
3563.04
3529.59
3495.25
3460.41
3425.5
3390.89
3356.95
3324.05
3292.24
3255.7
3225.02
3196.34
3169.55
3144.7
3121.87
3101.07
3082.35
3065.7
3051.11
3038.54
3027.94
3019.23
3012.33
3007.14
3003.59
3001.59
3001.05
3001.91
3004.08
3007.54
3012.23
3018.13
3025.22
3033.49
3042.95
3053.6
3065.45
3078.54
3092.87
3108.47
3125.36
3143.58
3163.13
3184.03
3206.28
3229.87
3254.77
3280.94
3308.33
3336.71
3365.98
3395.96
3426.43
3457.14
3487.8
3518.1
3547.7
3576.25
3603.36
3628.67
3651.8
3672.37
3690.06
3704.54
3715.53
3722.81
3726.21
3725.63
3721
3712.43
3700.02
3683.92
3664.37
3641.66
3616.14
3588.19
3558.22
3526.66
3493.93
3460.49
3426.75
3393.12
3359.98
3327.68
3296.53
3266.77
3238.64
3212.28
3187.8
3165.25
3144.69
3126.11
3109.48
3094.77
3081.9
3070.81
3061.39
3053.56
3047.2
3042.22
3038.52
3036.01
3034.61
3034.23
3034.81
3036.3
3038.67
3041.88
3045.89
3050.7
3056.3
3062.67
3069.83
3077.78
3086.54
3096.15
3106.64
3118.08
3130.51
3143.99
3158.6
3174.37
3191.37
3209.65
3229.22
3250.12
3272.36
3295.88
3320.6
3346.43
3373.26
3400.91
3429.17
3457.8
3486.5
3514.96
3542.82
3569.7
3595.22
3618.98
3640.6
3659.71
3675.97
3689.1
3698.84
3705
3707.47
3706.15
3701.08
3692.42
3680.23
3664.74
3646.23
3625.04
3601.5
3576.02
3548.98
3520.78
3491.79
3462.38
3432.89
3403.65
3374.96
3347.08
3320.23
3294.61
3270.34
3247.51
3226.16
3206.33
3187.99
3171.13
3155.68
3141.61
3128.83
3117.29
3106.93
3097.67
3089.46
3082.24
3075.98
3070.62
3066.14
3062.49
3059.65
3057.58
3056.24
3055.61
3055.69
3056.5
3058.08
3060.47
3063.76
3068.01
3073.33
3079.8
3087.52
3096.56
3107.04
3119.03
3132.62
3147.87
3164.79
3183.37
3203.47
3224.76
3248.74
3277.58
3308.99
3342.03
3376.72
3412.99
3450.67
3489.43
3528.89
3568.67
3608.15
3646.87
3684.14
3719.37
3751.97
3781.25
3806.68
3827.75
3843.95
3855.14
3861.08
3862.65
3859.48
3851.66
3839.55
3823.39
3803.56
3780.59
3754.85
3726.84
3697.12
3666.05
3634.1
3601.61
3568.94
3536.48
3504.43
3473.07
3442.61
3413.17
3384.86
3357.88
3336
3312.34
3289.68
3268.27
3248.21
3229.52
3212.21
3196.28
3181.75
3168.64
3157.01
3146.89
3138.36
3131.47
3126.3
3122.9
3121.34
3121.88
3124.4
3128.9
3135.4
3143.92
3154.43
3166.9
3181.31
3197.61
3215.76
3235.7
3257.38
3280.71
3305.55
3330.45
3357.2
3385.36
3414.5
3444.47
3475.16
3506.21
3537.34
3263.7
3233.15
3204.04
3180.12
3153.13
3125.96
3100.06
3075.82
3053.41
3032.9
3014.28
2997.55
2982.64
2969.53
2958.14
2948.41
2940.31
2933.77
2928.75
2925.21
2923.1
2922.41
2923.12
2925.23
2928.72
2933.58
2939.85
2947.52
2956.64
2967.22
2979.31
2992.97
3008.23
3025.15
3043.76
3064.12
3086.23
3110.09
3135.7
3163
3191.87
3221.18
3252.56
3284.97
3318.21
3351.93
3385.78
3419.43
3452.47
3484.49
3515.09
3543.88
3570.46
3594.47
3615.55
3633.43
3647.86
3658.63
3665.59
3668.64
3667.71
3662.75
3653.89
3641.22
3624.88
3605.07
3582.08
3556.24
3527.87
3497.36
3465.11
3431.55
3397.11
3362.18
3327.18
3292.49
3258.49
3225.57
3193.82
3157.01
3126.42
3097.75
3070.96
3046.12
3023.28
3002.5
2983.79
2967.14
2952.56
2940
2929.41
2920.72
2913.84
2908.66
2905.13
2903.14
2902.62
2903.49
2905.68
2909.14
2913.83
2919.74
2926.83
2935.1
2944.55
2955.2
2967.05
2980.12
2994.44
3010.03
3026.92
3045.12
3064.66
3085.55
3107.8
3131.39
3156.29
3182.47
3209.88
3238.29
3267.6
3297.62
3328.15
3358.92
3389.65
3420.03
3449.72
3478.36
3505.57
3530.98
3554.2
3574.88
3592.66
3607.21
3618.27
3625.6
3629.03
3628.46
3623.83
3615.23
3602.76
3586.59
3566.95
3544.14
3518.52
3490.46
3460.37
3428.69
3395.86
3362.31
3328.47
3294.76
3261.54
3229.18
3197.97
3168.18
3140.02
3113.65
3089.16
3066.62
3046.07
3027.5
3010.89
2996.2
2983.36
2972.29
2962.9
2955.09
2948.76
2943.81
2940.13
2937.65
2936.26
2935.9
2936.49
2938
2940.37
2943.58
2947.6
2952.41
2958.01
2964.38
2971.53
2979.48
2988.23
2997.83
3008.31
3019.72
3032.14
3045.6
3060.18
3075.94
3092.93
3111.18
3130.75
3151.64
3173.87
3197.4
3222.13
3247.99
3274.85
3302.54
3330.86
3359.55
3388.33
3416.87
3444.82
3471.8
3497.42
3521.29
3543.01
3562.21
3578.56
3591.76
3601.56
3607.76
3610.24
3608.92
3603.84
3595.12
3582.86
3567.29
3548.69
3527.39
3503.76
3478.17
3451.03
3422.72
3393.64
3364.15
3334.59
3305.28
3276.54
3248.61
3221.74
3196.09
3171.81
3148.98
3127.64
3107.82
3089.5
3072.65
3057.23
3043.17
3030.42
3018.9
3008.55
2999.31
2991.11
2983.91
2977.66
2972.31
2967.84
2964.2
2961.37
2959.3
2957.96
2957.34
2957.42
2958.22
2959.78
2962.16
2965.42
2969.66
2974.95
2981.39
2989.08
2998.11
3008.56
3020.53
3034.11
3049.34
3066.26
3084.84
3104.93
3126.24
3150.17
3179.07
3210.49
3243.55
3278.27
3314.59
3352.33
3391.17
3430.73
3470.63
3510.24
3549.1
3586.52
3621.91
3654.65
3684.07
3709.63
3730.8
3747.11
3758.34
3764.25
3765.75
3762.53
3754.64
3742.43
3726.15
3706.19
3683.08
3657.2
3629.07
3599.23
3568.04
3535.99
3503.41
3470.67
3438.14
3406.05
3374.64
3344.15
3314.68
3286.31
3259.16
3237.72
3213.9
3191.2
3169.79
3149.73
3131.05
3113.74
3097.82
3083.28
3070.18
3058.53
3048.41
3039.86
3032.96
3027.78
3024.37
3022.79
3023.33
3025.83
3030.33
3036.83
3045.33
3055.85
3068.32
3082.74
3099.04
3117.19
3137.13
3158.82
3182.15
3206.98
3232
3258.73
3286.92
3316.09
3346.09
3376.83
3407.92
3439.1
3165.24
3134.61
3105.4
3081.71
3054.57
3027.32
3001.39
2977.14
2954.73
2934.22
2915.62
2898.9
2884.02
2870.93
2859.56
2849.86
2841.77
2835.25
2830.24
2826.7
2824.61
2823.93
2824.64
2826.74
2830.23
2835.1
2841.35
2849.02
2858.12
2868.69
2880.77
2894.41
2909.65
2926.55
2945.14
2965.49
2987.58
3011.44
3037.05
3064.35
3093.21
3122.66
3154.06
3186.51
3219.82
3253.63
3287.57
3321.32
3354.48
3386.61
3417.34
3446.24
3472.94
3497.06
3518.24
3536.21
3550.72
3561.55
3568.55
3571.61
3570.69
3565.71
3556.82
3544.09
3527.67
3507.77
3484.68
3458.72
3430.22
3399.58
3367.2
3333.52
3298.96
3263.91
3228.82
3194.04
3159.97
3127.02
3095.35
3058.23
3027.74
2999.09
2972.3
2947.45
2924.62
2903.84
2885.14
2868.51
2853.94
2841.39
2830.82
2822.14
2815.28
2810.12
2806.61
2804.64
2804.13
2805.02
2807.22
2810.69
2815.39
2821.3
2828.39
2836.66
2846.11
2856.75
2868.59
2881.65
2895.96
2911.54
2928.42
2946.61
2966.14
2987.02
3009.26
3032.85
3057.75
3083.94
3111.38
3139.82
3169.16
3199.24
3229.83
3260.67
3291.49
3321.96
3351.75
3380.5
3407.83
3433.35
3456.7
3477.48
3495.37
3510.02
3521.15
3528.54
3532.01
3531.45
3526.81
3518.17
3505.64
3489.39
3469.65
3446.73
3420.97
3392.78
3362.56
3330.74
3297.78
3264.11
3230.16
3196.35
3163.04
3130.61
3099.34
3069.5
3041.32
3014.93
2990.43
2967.9
2947.36
2928.81
2912.22
2897.56
2884.75
2873.71
2864.35
2856.57
2850.27
2845.35
2841.7
2839.24
2837.87
2837.53
2838.14
2839.66
2842.04
2845.26
2849.28
2854.09
2859.69
2866.06
2873.21
2881.14
2889.88
2899.47
2909.93
2921.33
2933.72
2947.16
2961.72
2977.46
2994.42
3012.66
3032.21
3053.09
3075.32
3098.86
3123.61
3149.49
3176.39
3204.13
3232.51
3261.27
3290.14
3318.79
3346.84
3373.94
3399.68
3423.66
3445.5
3464.82
3481.27
3494.55
3504.41
3510.66
3513.16
3511.84
3506.73
3497.95
3485.62
3469.96
3451.25
3429.83
3406.07
3380.35
3353.09
3324.67
3295.49
3265.9
3236.25
3206.87
3178.06
3150.09
3123.17
3097.5
3073.21
3050.38
3029.05
3009.24
2990.94
2974.11
2958.71
2944.68
2931.95
2920.45
2910.12
2900.9
2892.73
2885.54
2879.3
2873.97
2869.5
2865.88
2863.05
2861
2859.66
2859.04
2859.11
2859.9
2861.45
2863.8
2867.05
2871.25
2876.52
2882.94
2890.6
2899.59
2910.02
2921.97
2935.52
2950.75
2967.65
2986.22
3006.32
3027.63
3051.53
3080.5
3111.93
3145.01
3179.77
3216.14
3253.95
3292.88
3332.56
3372.6
3412.36
3451.39
3488.99
3524.55
3557.47
3587.05
3612.75
3634.05
3650.47
3661.76
3667.62
3669.07
3665.79
3657.81
3645.48
3629.06
3608.94
3585.67
3559.63
3531.34
3501.36
3470.04
3437.88
3405.2
3372.37
3339.77
3307.61
3276.16
3245.63
3216.12
3187.7
3160.37
3139.39
3115.39
3092.65
3071.23
3051.19
3032.52
3015.22
2999.29
2984.76
2971.65
2959.99
2949.86
2941.3
2934.39
2929.19
2925.77
2924.16
2924.69
2927.18
2931.68
2938.17
2946.67
2957.19
2969.67
2984.08
3000.38
3018.54
3038.49
3060.18
3083.52
3108.35
3133.47
3160.21
3188.42
3217.62
3247.67
3278.45
3309.59
3340.84
3066.73
3036
3006.67
2983.25
2955.93
2928.6
2902.63
2878.36
2855.95
2835.46
2816.88
2800.19
2785.33
2772.26
2760.91
2751.23
2743.17
2736.66
2731.67
2728.15
2726.06
2725.39
2726.1
2728.21
2731.7
2736.56
2742.81
2750.46
2759.55
2770.1
2782.16
2795.78
2811
2827.87
2846.45
2866.78
2888.86
2912.71
2938.32
2965.62
2994.48
3024.08
3055.49
3088
3121.39
3155.29
3189.33
3223.21
3256.49
3288.76
3319.63
3348.67
3375.5
3399.75
3421.05
3439.12
3453.71
3464.61
3471.65
3474.75
3473.83
3468.84
3459.9
3447.1
3430.59
3410.59
3387.38
3361.28
3332.64
3301.85
3269.32
3235.5
3200.8
3165.63
3130.42
3095.54
3061.39
3028.39
2996.81
2959.36
2928.99
2900.35
2873.55
2848.7
2825.88
2805.11
2786.41
2769.8
2755.24
2742.71
2732.15
2723.49
2716.65
2711.52
2708.03
2706.07
2705.59
2706.49
2708.71
2712.19
2716.9
2722.81
2729.91
2738.17
2747.62
2758.25
2770.08
2783.13
2797.43
2813
2829.86
2848.04
2867.55
2888.42
2910.65
2934.24
2959.15
2985.35
3012.83
3041.29
3070.68
3100.82
3131.48
3162.41
3193.32
3223.9
3253.81
3282.68
3310.14
3335.8
3359.27
3380.19
3398.19
3412.95
3424.18
3431.64
3435.15
3434.6
3429.95
3421.27
3408.66
3392.31
3372.46
3349.41
3323.51
3295.16
3264.78
3232.82
3199.71
3165.9
3131.82
3097.89
3064.49
3031.96
3000.63
2970.74
2942.53
2916.12
2891.62
2869.09
2848.56
2830.03
2813.47
2798.84
2786.06
2775.05
2765.73
2757.99
2751.72
2746.83
2743.22
2740.78
2739.44
2739.12
2739.75
2741.28
2743.67
2746.9
2750.93
2755.74
2761.34
2767.71
2774.85
2782.77
2791.5
2801.07
2811.51
2822.89
2835.25
2848.67
2863.21
2878.92
2895.86
2914.07
2933.61
2954.48
2976.7
3000.25
3025.02
3050.93
3077.87
3105.66
3134.12
3162.97
3191.94
3220.7
3248.88
3276.11
3301.99
3326.11
3348.08
3367.53
3384.09
3397.47
3407.41
3413.71
3416.23
3414.9
3409.76
3400.92
3388.5
3372.73
3353.9
3332.34
3308.44
3282.58
3255.18
3226.63
3197.33
3167.62
3137.87
3108.41
3079.53
3051.5
3024.54
2998.84
2974.54
2951.7
2930.38
2910.59
2892.31
2875.51
2860.14
2846.13
2833.43
2821.96
2811.65
2802.46
2794.3
2787.13
2780.91
2775.58
2771.14
2767.52
2764.71
2762.66
2761.34
2760.71
2760.78
2761.56
2763.09
2765.42
2768.63
2772.81
2778.04
2784.43
2792.05
2801.02
2811.42
2823.34
2836.87
2852.08
2868.97
2887.54
2907.63
2928.95
2952.82
2981.86
3013.3
3046.4
3081.2
3117.63
3155.53
3194.57
3234.38
3274.58
3314.51
3353.73
3391.53
3427.3
3460.42
3490.19
3516.05
3537.5
3554.03
3565.37
3571.21
3572.61
3569.25
3561.17
3548.7
3532.11
3511.81
3488.36
3462.14
3433.67
3403.52
3372.06
3339.77
3306.97
3274.04
3241.36
3209.13
3177.62
3147.05
3117.5
3089.03
3061.54
3040.95
3016.8
2994.03
2972.61
2952.58
2933.92
2916.63
2900.71
2886.18
2873.06
2861.4
2851.24
2842.67
2835.74
2830.53
2827.09
2825.46
2825.99
2828.46
2832.95
2839.43
2847.93
2858.45
2870.93
2885.35
2901.65
2919.81
2939.76
2961.46
2984.81
3009.64
3034.88
3061.62
3089.86
3119.1
3149.19
3180.03
3211.23
3242.55
2968.17
2937.33
2907.86
2884.74
2857.23
2829.8
2803.78
2779.5
2757.1
2736.62
2718.06
2701.39
2686.56
2673.52
2662.2
2652.54
2644.5
2638.01
2633.04
2629.53
2627.46
2626.79
2627.51
2629.62
2633.11
2637.96
2644.2
2651.85
2660.92
2671.45
2683.49
2697.08
2712.28
2729.13
2747.69
2767.99
2790.06
2813.9
2839.51
2866.81
2895.68
2925.42
2956.87
2989.44
3022.91
3056.92
3091.08
3125.09
3158.52
3190.94
3221.96
3251.16
3278.15
3302.53
3323.96
3342.15
3356.84
3367.81
3374.91
3378.03
3377.12
3372.11
3363.12
3350.25
3333.65
3313.52
3290.17
3263.92
3235.12
3204.17
3171.47
3137.48
3102.63
3067.31
3031.97
2996.98
2962.74
2929.68
2898.19
2860.41
2830.16
2801.53
2774.73
2749.88
2727.06
2706.29
2687.61
2671.01
2656.47
2643.95
2633.41
2624.78
2617.96
2612.86
2609.39
2607.46
2607
2607.91
2610.15
2613.64
2618.36
2624.28
2631.37
2639.64
2649.08
2659.7
2671.52
2684.56
2698.85
2714.4
2731.24
2749.41
2768.91
2789.77
2811.99
2835.57
2860.49
2886.69
2914.21
2942.71
2972.15
3002.35
3033.09
3064.12
3095.14
3125.84
3155.88
3184.89
3212.49
3238.31
3261.93
3283
3301.14
3316.02
3327.35
3334.88
3338.44
3337.91
3333.24
3324.51
3311.83
3295.37
3275.39
3252.18
3226.12
3197.6
3167.05
3134.91
3101.63
3067.67
3033.45
2999.39
2965.87
2933.25
2901.84
2871.9
2843.65
2817.22
2792.71
2770.19
2749.68
2731.17
2714.64
2700.04
2687.29
2676.33
2667.05
2659.35
2653.12
2648.27
2644.69
2642.29
2640.97
2640.67
2641.32
2642.87
2645.28
2648.51
2652.54
2657.36
2662.96
2669.32
2676.46
2684.37
2693.09
2702.64
2713.06
2724.41
2736.75
2750.14
2764.64
2780.32
2797.23
2815.43
2834.94
2855.8
2878.02
2901.58
2926.37
2952.31
2979.3
3007.16
3035.69
3064.64
3093.73
3122.61
3150.93
3178.31
3204.34
3228.62
3250.75
3270.34
3287.03
3300.52
3310.54
3316.9
3319.45
3318.12
3312.94
3304.03
3291.51
3275.62
3256.65
3234.93
3210.86
3184.84
3157.29
3128.59
3099.15
3069.33
3039.47
3009.9
2980.94
2952.84
2925.84
2900.11
2875.8
2852.96
2831.65
2811.87
2793.62
2776.85
2761.5
2747.52
2734.85
2723.41
2713.14
2703.97
2695.83
2688.68
2682.48
2677.17
2672.73
2669.14
2666.34
2664.3
2662.98
2662.36
2662.42
2663.18
2664.69
2667
2670.18
2674.32
2679.52
2685.87
2693.46
2702.39
2712.75
2724.65
2738.15
2753.34
2770.22
2788.78
2808.87
2830.18
2854.05
2883.15
2914.61
2947.73
2982.57
3019.07
3057.06
3096.23
3136.19
3176.56
3216.69
3256.13
3294.15
3330.15
3363.5
3393.48
3419.53
3441.14
3457.79
3469.2
3475.02
3476.35
3472.91
3464.71
3452.08
3435.3
3414.81
3391.14
3364.71
3336.05
3305.72
3274.09
3241.64
3208.72
3175.68
3142.9
3110.6
3079.02
3048.41
3018.82
2990.3
2962.71
2942.39
2918.13
2895.33
2873.93
2853.91
2835.26
2817.98
2802.07
2787.53
2774.41
2762.73
2752.57
2743.97
2737.03
2731.8
2728.34
2726.69
2727.21
2729.66
2734.14
2740.61
2749.11
2759.62
2772.11
2786.53
2802.84
2821
2840.96
2862.67
2886.02
2910.87
2936.22
2962.96
2991.24
3020.52
3050.67
3081.57
3112.84
3144.24
2869.57
2838.6
2808.97
2786.19
2758.46
2730.92
2704.85
2680.55
2658.15
2637.69
2619.16
2602.52
2587.72
2574.7
2563.41
2553.79
2545.77
2539.31
2534.35
2530.86
2528.8
2528.15
2528.87
2530.98
2534.47
2539.31
2545.55
2553.18
2562.23
2572.74
2584.75
2598.32
2613.49
2630.31
2648.84
2669.13
2691.18
2715.02
2740.62
2767.93
2796.81
2826.69
2858.18
2890.82
2924.39
2958.51
2992.82
3026.97
3060.57
3093.15
3124.35
3153.72
3180.87
3205.42
3227
3245.31
3260.11
3271.17
3278.33
3281.48
3280.57
3275.54
3266.5
3253.54
3236.83
3216.57
3193.07
3166.65
3137.66
3106.52
3073.65
3039.48
3004.45
2968.98
2933.49
2898.37
2864.02
2830.88
2799.47
2761.41
2731.28
2702.63
2675.82
2650.97
2628.15
2607.4
2588.73
2572.14
2557.62
2545.13
2534.61
2525.99
2519.2
2514.13
2510.69
2508.78
2508.35
2509.28
2511.54
2515.05
2519.78
2525.7
2532.8
2541.06
2550.49
2561.1
2572.91
2585.94
2600.21
2615.74
2632.57
2650.72
2670.2
2691.05
2713.26
2736.84
2761.76
2787.97
2815.54
2844.07
2873.57
2903.84
2934.67
2965.8
2996.94
3027.78
3057.97
3087.13