/*--------------------------------*- C++ -*----------------------------------*\
| =========                 |                                                 |
| \\      /  F ield         | OpenFOAM: The Open Source CFD Toolbox           |
|  \\    /   O peration     | Version:  3.0.1                                 |
|   \\  /    A nd           | Web:      www.OpenFOAM.org                      |
|    \\/     M anipulation  |                                                 |
\*---------------------------------------------------------------------------*/
FoamFile
{
    version     2.0;
    format      ascii;
    class       volScalarField;
    location    "19";
    object      p;
}
// * * * * * * * * * * * * * * * * * * * * * * * * * * * * * * * * * * * * * //

dimensions      [1 -1 -2 0 0 0 0];

internalField   nonuniform List<scalar> 
22680
(
4031.95
4059.61
4086.71
4113.02
4138.22
4162.09
4184.35
4204.82
4223.28
4239.58
4253.53
4264.97
4273.78
4279.85
4283.1
4283.42
4280.95
4275.64
4267.51
4256.66
4243.2
4227.25
4209
4188.61
4166.3
4142.28
4116.81
4090.1
4062.44
4034.05
4005.18
3976.07
3946.95
3918.02
3889.5
3861.57
3834.35
3807.99
3782.61
3758.31
3735.18
3713.28
3692.65
3673.33
3655.33
3638.65
3623.28
3609.22
3596.44
3584.93
3574.66
3565.61
3557.76
3551.1
3545.59
3541.22
3537.99
3535.88
3534.87
3534.99
3536.23
3538.58
3542.02
3546.59
3552.27
3559.07
3567.01
3576.09
3586.31
3597.71
3610.3
3624.07
3639.05
3655.25
3672.67
3691.3
3711.14
3732.16
3754.32
3777.57
3801.83
3827.03
3853.05
3879.77
3907.06
3934.81
3962.78
3990.8
4018.65
4046.14
4073.06
4099.18
4124.29
4148.17
4170.59
4191.34
4210.23
4227.04
4241.61
4253.78
4263.4
4270.36
4274.56
4275.94
4274.45
4270.04
4262.85
4252.87
4240.16
4224.85
4207.09
4187.04
4164.89
4140.86
4115.17
4088.08
4059.83
4030.71
4000.96
3970.88
3940.71
3910.71
3881.14
3852.2
3824.1
3797.04
3771.16
3746.59
3723.44
3701.8
3681.74
3663.29
3646.48
3631.31
3617.76
3605.82
3595.42
3586.54
3579.09
3573.01
3568.23
3564.68
3562.27
3560.93
3560.59
3561.18
3562.65
3564.95
3568.01
3571.81
3576.31
3581.54
3587.41
3593.97
3601.21
3609.17
3617.86
3627.33
3637.61
3648.77
3660.84
3673.88
3687.94
3703.08
3719.32
3736.71
3755.26
3774.98
3795.86
3817.85
3840.9
3864.92
3889.8
3915.38
3941.52
3968.3
3994.96
4021.56
4047.86
4073.62
4098.59
4122.54
4145.22
4166.41
4185.9
4203.49
4218.99
4232.24
4243.11
4251.47
4257.25
4260.37
4260.8
4258.55
4253.57
4246.01
4235.92
4223.4
4208.54
4191.52
4172.5
4151.67
4129.23
4105.38
4080.34
4054.36
4027.65
4000.45
3972.98
3945.44
3918.05
3890.98
3864.4
3838.45
3813.29
3788.98
3765.65
3743.38
3722.25
3702.36
3683.83
3666.68
3650.96
3637.19
3628.86
3933.85
3961.51
3988.63
4014.96
4040.17
4064.05
4086.33
4106.81
4125.29
4141.6
4155.56
4167.01
4175.83
4181.91
4185.16
4185.49
4183.01
4177.7
4169.56
4158.7
4145.23
4129.27
4111
4090.6
4068.27
4044.24
4018.75
3992.03
3964.35
3935.94
3907.07
3877.95
3848.82
3819.87
3791.34
3763.41
3736.18
3709.81
3684.43
3660.13
3637
3615.1
3594.47
3575.15
3557.14
3540.46
3525.1
3511.04
3498.27
3486.76
3476.49
3467.44
3459.6
3452.93
3447.42
3443.06
3439.83
3437.71
3436.71
3436.83
3438.07
3440.42
3443.86
3448.43
3454.1
3460.91
3468.84
3477.92
3488.15
3499.54
3512.13
3525.9
3540.88
3557.08
3574.49
3593.13
3612.97
3633.99
3656.15
3679.4
3703.66
3728.86
3754.89
3781.62
3808.91
3836.67
3864.65
3892.68
3920.55
3948.05
3974.98
4001.11
4026.24
4050.13
4072.56
4093.33
4112.22
4129.05
4143.64
4155.82
4165.45
4172.41
4176.62
4178
4176.51
4172.11
4164.9
4154.92
4142.2
4126.88
4109.11
4089.05
4066.89
4042.84
4017.14
3990.02
3961.76
3932.62
3902.86
3872.76
3842.57
3812.57
3782.98
3754.03
3725.92
3698.86
3672.97
3648.39
3625.24
3603.6
3583.53
3565.09
3548.28
3533.11
3519.56
3507.62
3497.23
3488.35
3480.9
3474.83
3470.06
3466.51
3464.1
3462.77
3462.43
3463.03
3464.51
3466.8
3469.87
3473.66
3478.18
3483.4
3489.27
3495.83
3503.07
3511.03
3519.72
3529.18
3539.46
3550.61
3562.68
3575.72
3589.78
3604.9
3621.15
3638.53
3657.08
3676.8
3697.68
3719.67
3742.73
3766.75
3791.63
3817.23
3843.38
3870.16
3896.84
3923.45
3949.76
3975.53
4000.52
4024.48
4047.17
4068.38
4087.88
4105.48
4121
4134.26
4145.14
4153.51
4159.29
4162.41
4162.85
4160.59
4155.63
4148.05
4137.95
4125.42
4110.55
4093.52
4074.49
4053.65
4031.19
4007.32
3982.27
3956.27
3929.55
3902.33
3874.85
3847.3
3819.9
3792.82
3766.23
3740.29
3715.12
3690.81
3667.47
3645.2
3624.06
3604.17
3585.63
3568.45
3552.6
3538.92
3528.65
3835.73
3863.43
3890.57
3916.94
3942.18
3966.09
3988.39
4008.91
4027.41
4043.74
4057.72
4069.2
4078.04
4084.12
4087.38
4087.73
4085.22
4079.91
4071.76
4060.88
4047.39
4031.41
4013.11
3992.68
3970.32
3946.26
3920.74
3893.99
3866.28
3837.84
3808.94
3779.79
3750.64
3721.68
3693.13
3665.18
3637.94
3611.56
3586.17
3561.87
3538.73
3516.83
3496.2
3476.88
3458.88
3442.2
3426.84
3412.79
3400.02
3388.51
3378.25
3369.2
3361.36
3354.7
3349.19
3344.83
3341.6
3339.49
3338.48
3338.6
3339.84
3342.19
3345.63
3350.2
3355.88
3362.68
3370.61
3379.69
3389.91
3401.31
3413.89
3427.66
3442.63
3458.83
3476.24
3494.88
3514.71
3535.74
3557.9
3581.15
3605.43
3630.64
3656.67
3683.41
3710.72
3738.49
3766.5
3794.54
3822.43
3849.96
3876.91
3903.07
3928.23
3952.14
3974.61
3995.4
4014.32
4031.18
4045.78
4057.98
4067.63
4074.61
4078.83
4080.21
4078.73
4074.34
4067.11
4057.11
4044.38
4029.05
4011.25
3991.16
3968.97
3944.9
3919.16
3892.01
3863.72
3834.54
3804.75
3774.62
3744.4
3714.37
3684.75
3655.78
3627.66
3600.58
3574.67
3550.09
3526.93
3505.29
3485.22
3466.77
3449.97
3434.8
3421.26
3409.33
3398.95
3390.07
3382.64
3376.58
3371.81
3368.27
3365.88
3364.55
3364.22
3364.83
3366.31
3368.61
3371.69
3375.48
3380
3385.22
3391.1
3397.65
3404.89
3412.84
3421.52
3430.98
3441.26
3452.4
3464.46
3477.49
3491.54
3506.66
3522.9
3540.28
3558.83
3578.55
3599.42
3621.42
3644.48
3668.51
3693.41
3719.02
3745.19
3771.99
3798.69
3825.32
3851.66
3877.46
3902.48
3926.46
3949.18
3970.42
3989.95
4007.58
4023.11
4036.4
4047.29
4055.68
4061.48
4064.61
4065.05
4062.79
4057.83
4050.23
4040.12
4027.57
4012.69
3995.63
3976.57
3955.7
3933.21
3909.31
3884.23
3858.2
3831.45
3804.2
3776.69
3749.12
3721.7
3694.61
3668.01
3642.05
3616.87
3592.56
3569.22
3546.94
3525.8
3505.9
3487.35
3470.16
3454.38
3440.79
3431.01
3737.62
3765.35
3792.54
3818.95
3844.24
3868.19
3890.54
3911.09
3929.64
3946.01
3960.02
3971.53
3980.39
3986.49
3989.76
3990.13
3987.6
3982.27
3974.11
3963.21
3949.68
3933.67
3915.33
3894.85
3872.45
3848.34
3822.77
3795.97
3768.22
3739.74
3710.79
3681.61
3652.42
3623.43
3594.86
3566.89
3539.63
3513.24
3487.83
3463.52
3440.38
3418.48
3397.85
3378.53
3360.53
3343.86
3328.5
3314.45
3301.69
3290.19
3279.93
3270.9
3263.06
3256.4
3250.9
3246.54
3243.31
3241.2
3240.2
3240.32
3241.55
3243.9
3247.35
3251.91
3257.59
3264.39
3272.32
3281.39
3291.61
3303
3315.57
3329.34
3344.32
3360.5
3377.92
3396.55
3416.39
3437.41
3459.58
3482.84
3507.12
3532.34
3558.39
3585.15
3612.48
3640.28
3668.31
3696.39
3724.31
3751.87
3778.87
3805.07
3830.26
3854.22
3876.73
3897.56
3916.52
3933.41
3948.06
3960.29
3969.96
3976.97
3981.2
3982.59
3981.11
3976.73
3969.48
3959.46
3946.71
3931.35
3913.52
3893.39
3871.15
3847.03
3821.24
3794.05
3765.7
3736.47
3706.63
3676.45
3646.2
3616.12
3586.47
3557.47
3529.32
3502.21
3476.29
3451.69
3428.52
3406.87
3386.8
3368.35
3351.55
3336.39
3322.86
3310.94
3300.57
3291.71
3284.29
3278.24
3273.49
3269.97
3267.59
3266.27
3265.96
3266.58
3268.07
3270.38
3273.46
3277.27
3281.79
3287
3292.88
3299.43
3306.67
3314.61
3323.29
3332.74
3343
3354.13
3366.18
3379.2
3393.24
3408.35
3424.58
3441.95
3460.49
3480.21
3501.09
3523.09
3546.16
3570.21
3595.12
3620.76
3646.95
3673.78
3700.51
3727.18
3753.56
3779.41
3804.46
3828.49
3851.25
3872.53
3892.1
3909.77
3925.34
3938.66
3949.58
3957.99
3963.8
3966.95
3967.4
3965.14
3960.18
3952.56
3942.43
3929.85
3914.93
3897.84
3878.74
3857.82
3835.28
3811.34
3786.21
3760.14
3733.34
3706.06
3678.51
3650.91
3623.45
3596.34
3569.71
3543.74
3518.55
3494.23
3470.88
3448.6
3427.45
3407.54
3388.97
3371.72
3355.91
3341.89
3331.31
3639.49
3667.29
3694.53
3721
3746.35
3770.36
3792.76
3813.38
3831.97
3848.4
3862.46
3874
3882.89
3889.02
3892.3
3892.69
3890.15
3884.79
3876.61
3865.67
3852.11
3836.04
3817.65
3797.12
3774.65
3750.48
3724.84
3697.98
3670.17
3641.63
3612.63
3583.4
3554.17
3525.14
3496.54
3468.54
3441.25
3414.84
3389.42
3365.09
3341.95
3320.04
3299.41
3280.09
3262.1
3245.44
3230.09
3216.05
3203.29
3191.8
3181.55
3172.52
3164.69
3158.03
3152.54
3148.18
3144.96
3142.85
3141.85
3141.98
3143.2
3145.55
3149
3153.56
3159.23
3166.03
3173.96
3183.03
3193.24
3204.63
3217.19
3230.95
3245.92
3262.11
3279.51
3298.14
3317.98
3339.01
3361.18
3384.45
3408.75
3433.98
3460.05
3486.84
3514.2
3542.02
3570.09
3598.22
3626.18
3653.79
3680.84
3707.09
3732.34
3756.35
3778.92
3799.81
3818.82
3835.76
3850.45
3862.72
3872.44
3879.47
3883.72
3885.13
3883.65
3879.27
3872
3861.96
3849.18
3833.78
3815.9
3795.72
3773.43
3749.24
3723.39
3696.13
3667.71
3638.42
3608.51
3578.27
3547.96
3517.83
3488.13
3459.08
3430.89
3403.76
3377.81
3353.19
3330.01
3308.35
3288.28
3269.83
3253.03
3237.88
3224.36
3212.45
3202.1
3193.25
3185.85
3179.83
3175.1
3171.6
3169.23
3167.94
3167.64
3168.28
3169.78
3172.1
3175.19
3179.01
3183.54
3188.75
3194.63
3201.18
3208.41
3216.34
3225.01
3234.44
3244.7
3255.81
3267.84
3280.85
3294.87
3309.97
3326.18
3343.55
3362.08
3381.79
3402.67
3424.68
3447.77
3471.83
3496.77
3522.44
3548.66
3575.55
3602.31
3629.03
3655.47
3681.36
3706.47
3730.56
3753.38
3774.71
3794.34
3812.05
3827.67
3841.04
3852
3860.44
3866.28
3869.44
3869.89
3867.63
3862.67
3855.03
3844.87
3832.26
3817.29
3800.15
3781
3760.02
3737.42
3713.41
3688.23
3662.09
3635.23
3607.89
3580.29
3552.65
3525.15
3498
3471.36
3445.36
3420.16
3395.82
3372.47
3350.18
3329.03
3309.1
3290.51
3273.23
3257.44
3243.67
3232.7
3541.36
3569.22
3596.54
3623.09
3648.51
3672.6
3695.07
3715.75
3734.42
3750.91
3765.02
3776.62
3785.55
3791.71
3795
3795.39
3792.86
3787.47
3779.25
3768.28
3754.66
3738.54
3720.08
3699.47
3676.93
3652.68
3626.96
3600.02
3572.13
3543.52
3514.46
3485.16
3455.87
3426.79
3398.15
3370.12
3342.8
3316.36
3290.92
3266.59
3243.43
3221.52
3200.89
3181.58
3163.59
3146.93
3131.59
3117.56
3104.81
3093.33
3083.09
3074.07
3066.25
3059.6
3054.11
3049.76
3046.54
3044.44
3043.44
3043.57
3044.79
3047.14
3050.59
3055.15
3060.82
3067.61
3075.53
3084.6
3094.81
3106.18
3118.74
3132.5
3147.46
3163.63
3181.04
3199.66
3219.5
3240.53
3262.71
3285.99
3310.3
3335.56
3361.65
3388.47
3415.87
3443.73
3471.85
3500.02
3528.05
3555.72
3582.82
3609.14
3634.46
3658.55
3681.18
3702.14
3721.22
3738.22
3752.97
3765.3
3775.06
3782.13
3786.41
3787.83
3786.35
3781.97
3774.69
3764.62
3751.79
3736.34
3718.41
3698.16
3675.8
3651.53
3625.6
3598.25
3569.76
3540.38
3510.39
3480.07
3449.68
3419.48
3389.72
3360.62
3332.38
3305.21
3279.23
3254.59
3231.39
3209.72
3189.64
3171.2
3154.4
3139.26
3125.76
3113.87
3103.54
3094.71
3087.34
3081.34
3076.63
3073.15
3070.82
3069.55
3069.27
3069.93
3071.45
3073.78
3076.89
3080.71
3085.25
3090.46
3096.34
3102.88
3110.11
3118.03
3126.68
3136.1
3146.34
3157.43
3169.45
3182.43
3196.43
3211.51
3227.71
3245.06
3263.59
3283.3
3304.18
3326.2
3349.3
3373.39
3398.36
3424.07
3450.33
3477.27
3504.09
3530.87
3557.37
3583.33
3608.51
3632.67
3655.56
3676.96
3696.65
3714.44
3730.12
3743.53
3754.54
3763.03
3768.89
3772.08
3772.54
3770.28
3765.3
3757.65
3747.45
3734.79
3719.77
3702.57
3683.35
3662.3
3639.62
3615.53
3590.27
3564.05
3537.12
3509.71
3482.05
3454.35
3426.81
3399.62
3372.94
3346.91
3321.69
3297.34
3273.98
3251.68
3230.52
3210.58
3191.96
3174.64
3158.79
3144.72
3133.38
3443.22
3471.17
3498.58
3525.21
3550.73
3574.9
3597.46
3618.23
3636.97
3653.54
3667.73
3679.38
3688.36
3694.55
3697.87
3698.26
3695.72
3690.31
3682.05
3671.02
3657.35
3641.15
3622.61
3601.92
3579.28
3554.94
3529.12
3502.09
3474.11
3445.41
3416.26
3386.89
3357.54
3328.4
3299.71
3271.63
3244.28
3217.81
3192.35
3167.99
3144.83
3122.91
3102.28
3082.97
3064.99
3048.34
3033.02
3019
3006.26
2994.79
2984.57
2975.56
2967.74
2961.1
2955.62
2951.28
2948.06
2945.96
2944.97
2945.09
2946.32
2948.67
2952.11
2956.67
2962.34
2969.13
2977.04
2986.1
2996.3
3007.67
3020.22
3033.97
3048.92
3065.09
3082.48
3101.11
3120.94
3141.97
3164.16
3187.46
3211.79
3237.07
3263.19
3290.05
3317.49
3345.4
3373.58
3401.81
3429.91
3457.64
3484.83
3511.23
3536.63
3560.8
3583.51
3604.55
3623.71
3640.79
3655.61
3668
3677.82
3684.93
3689.25
3690.69
3689.22
3684.83
3677.53
3667.42
3654.55
3639.04
3621.03
3600.71
3578.26
3553.9
3527.87
3500.42
3471.82
3442.34
3412.26
3381.84
3351.37
3321.09
3291.25
3262.08
3233.79
3206.57
3180.56
3155.89
3132.66
3110.98
3090.9
3072.46
3055.67
3040.54
3027.06
3015.19
3004.88
2996.08
2988.74
2982.77
2978.1
2974.65
2972.34
2971.1
2970.85
2971.52
2973.07
2975.42
2978.54
2982.38
2986.92
2992.13
2998.01
3004.55
3011.76
3019.68
3028.31
3037.71
3047.93
3059
3070.99
3083.95
3097.93
3112.99
3129.17
3146.5
3165.02
3184.72
3205.61
3227.64
3250.75
3274.87
3299.88
3325.64
3351.97
3378.92
3405.83
3432.69
3459.27
3485.32
3510.58
3534.82
3557.8
3579.28
3599.06
3616.92
3632.67
3646.15
3657.22
3665.75
3671.65
3674.86
3675.34
3673.07
3668.08
3660.41
3650.17
3637.45
3622.37
3605.09
3585.79
3564.65
3541.88
3517.7
3492.34
3466.03
3439.01
3411.52
3383.78
3356.01
3328.41
3301.17
3274.45
3248.4
3223.15
3198.78
3175.41
3153.1
3131.93
3111.98
3093.33
3075.98
3060.1
3045.99
3034.15
3345.08
3373.12
3400.64
3427.38
3453
3477.28
3499.94
3520.8
3539.64
3556.29
3570.56
3582.29
3591.33
3597.55
3600.89
3601.3
3598.75
3593.31
3585
3573.91
3560.16
3543.88
3525.25
3504.45
3481.71
3457.25
3431.33
3404.19
3376.09
3347.29
3318.05
3288.6
3259.17
3229.96
3201.21
3173.08
3145.69
3119.18
3093.69
3069.32
3046.14
3024.22
3003.59
2984.29
2966.31
2949.68
2934.36
2920.36
2907.64
2896.18
2885.97
2876.97
2869.17
2862.54
2857.07
2852.73
2849.52
2847.43
2846.44
2846.56
2847.79
2850.13
2853.58
2858.13
2863.79
2870.58
2878.49
2887.54
2897.73
2909.09
2921.63
2935.36
2950.31
2966.47
2983.86
3002.47
3022.31
3043.34
3065.54
3088.85
3113.2
3138.51
3164.67
3191.57
3219.06
3247.03
3275.27
3303.58
3331.75
3359.58
3386.85
3413.34
3438.84
3463.1
3485.92
3507.05
3526.31
3543.48
3558.38
3570.85
3580.72
3587.89
3592.24
3593.71
3592.25
3587.85
3580.53
3570.38
3557.45
3541.87
3523.78
3503.37
3480.81
3456.35
3430.2
3402.64
3373.92
3344.32
3314.12
3283.6
3253.02
3222.64
3192.72
3163.48
3135.12
3107.85
3081.79
3057.08
3033.84
3012.14
2992.05
2973.61
2956.83
2941.72
2928.26
2916.41
2906.13
2897.37
2890.06
2884.12
2879.48
2876.07
2873.8
2872.59
2872.37
2873.07
2874.64
2877.01
2880.15
2884
2888.55
2893.77
2899.64
2906.18
2913.38
2921.28
2929.9
2939.28
2949.47
2960.51
2972.47
2985.4
2999.36
3014.39
3030.55
3047.87
3066.37
3086.07
3106.96
3129
3152.14
3176.29
3201.34
3227.16
3253.57
3280.55
3307.55
3334.5
3361.17
3387.31
3412.68
3437.01
3460.09
3481.67
3501.54
3519.49
3535.33
3548.89
3560.02
3568.61
3574.56
3577.8
3578.29
3576.02
3571.01
3563.31
3553.02
3540.23
3525.08
3507.71
3488.32
3467.07
3444.2
3419.9
3394.43
3368.02
3340.89
3313.3
3285.47
3257.62
3229.96
3202.66
3175.89
3149.81
3124.53
3100.15
3076.76
3054.44
3033.26
3013.29
2994.61
2977.22
2961.28
2947.04
2934.8
3246.92
3275.08
3302.71
3329.58
3355.32
3379.72
3402.49
3423.46
3442.41
3459.17
3473.53
3485.34
3494.44
3500.72
3504.08
3504.49
3501.93
3496.46
3488.1
3476.95
3463.11
3446.73
3427.99
3407.08
3384.22
3359.63
3333.58
3306.31
3278.09
3249.17
3219.83
3190.27
3160.75
3131.47
3102.66
3074.47
3047.02
3020.48
2994.96
2970.56
2947.37
2925.44
2904.81
2885.51
2867.55
2850.93
2835.63
2821.64
2808.94
2797.5
2787.3
2778.32
2770.53
2763.91
2758.44
2754.12
2750.91
2748.82
2747.84
2747.97
2749.19
2751.54
2754.98
2759.53
2765.19
2771.97
2779.87
2788.91
2799.09
2810.44
2822.97
2836.69
2851.62
2867.77
2885.15
2903.76
2923.6
2944.64
2966.84
2990.17
3014.55
3039.89
3066.09
3093.04
3120.59
3148.62
3176.94
3205.33
3233.59
3261.51
3288.89
3315.49
3341.09
3365.47
3388.39
3409.64
3429
3446.28
3461.27
3473.82
3483.78
3491
3495.4
3496.89
3495.44
3491.03
3483.69
3473.49
3460.49
3444.84
3426.66
3406.13
3383.46
3358.87
3332.6
3304.9
3276.04
3246.31
3215.98
3185.33
3154.63
3124.14
3094.12
3064.79
3036.36
3009.03
2982.92
2958.17
2934.9
2913.19
2893.09
2874.66
2857.89
2842.79
2829.35
2817.53
2807.29
2798.56
2791.29
2785.39
2780.8
2777.43
2775.19
2774.02
2773.83
2774.57
2776.16
2778.56
2781.71
2785.58
2790.14
2795.36
2801.24
2807.77
2814.96
2822.84
2831.44
2840.79
2850.95
2861.97
2873.9
2886.8
2900.72
2915.72
2931.85
2949.15
2967.64
2987.33
3008.22
3030.28
3053.44
3077.63
3102.74
3128.61
3155.11
3182.14
3209.24
3236.29
3263.07
3289.32
3314.8
3339.25
3362.44
3384.13
3404.11
3422.16
3438.1
3451.75
3462.96
3471.61
3477.61
3480.88
3481.39
3479.12
3474.09
3466.35
3456.01
3443.15
3427.91
3410.44
3390.94
3369.57
3346.57
3322.15
3296.56
3270.01
3242.77
3215.07
3187.14
3159.2
3131.45
3104.09
3077.27
3051.15
3025.84
3001.43
2978.03
2955.7
2934.51
2914.52
2895.81
2878.39
2862.38
2848.02
2835.4
3148.76
3177.05
3204.81
3231.81
3257.69
3282.22
3305.13
3326.23
3345.29
3362.16
3376.63
3388.53
3397.71
3404.04
3407.44
3407.86
3405.28
3399.77
3391.36
3380.12
3366.19
3349.71
3330.84
3309.8
3286.8
3262.06
3235.87
3208.45
3180.1
3151.05
3121.58
3091.91
3062.29
3032.92
3004.04
2975.79
2948.28
2921.69
2896.14
2871.72
2848.51
2826.58
2805.95
2786.66
2768.71
2752.1
2736.81
2722.84
2710.16
2698.74
2688.56
2679.59
2671.82
2665.21
2659.76
2655.44
2652.25
2650.16
2649.18
2649.31
2650.53
2652.88
2656.32
2660.87
2666.52
2673.3
2681.19
2690.22
2700.39
2711.73
2724.24
2737.95
2752.86
2769
2786.37
2804.97
2824.81
2845.85
2868.07
2891.42
2915.82
2941.2
2967.45
2994.45
3022.07
3050.17
3078.57
3107.06
3135.42
3163.45
3190.94
3217.66
3243.39
3267.89
3290.94
3312.32
3331.8
3349.19
3364.29
3376.94
3386.97
3394.27
3398.71
3400.24
3398.8
3394.38
3387.01
3376.75
3363.69
3347.94
3329.65
3309.01
3286.21
3261.47
3235.05
3207.2
3178.19
3148.3
3117.82
3087.03
3056.2
3025.6
2995.47
2966.04
2937.52
2910.12
2883.95
2859.16
2835.86
2814.13
2794.03
2775.59
2758.84
2743.76
2730.35
2718.56
2708.35
2699.67
2692.44
2686.59
2682.04
2678.71
2676.52
2675.39
2675.25
2676.02
2677.64
2680.07
2683.24
2687.13
2691.7
2696.93
2702.8
2709.32
2716.5
2724.36
2732.93
2742.26
2752.39
2763.37
2775.26
2788.12
2802.01
2816.98
2833.09
2850.36
2868.83
2888.52
2909.41
2931.48
2954.67
2978.9
3004.07
3030.02
3056.6
3083.7
3110.91
3138.07
3164.97
3191.34
3216.95
3241.53
3264.84
3286.67
3306.76
3324.93
3340.98
3354.72
3366.02
3374.75
3380.8
3384.12
3384.64
3382.37
3377.32
3369.54
3359.13
3346.19
3330.85
3313.28
3293.64
3272.15
3249.01
3224.45
3198.71
3172.02
3144.65
3116.82
3088.77
3060.73
3032.9
3005.46
2978.58
2952.41
2927.08
2902.64
2879.22
2856.88
2835.67
2815.67
2796.93
2779.46
2763.39
2748.88
2735.94
3050.58
3079.02
3106.93
3134.09
3160.12
3184.8
3207.84
3229.08
3248.29
3265.28
3279.87
3291.88
3301.14
3307.53
3310.96
3311.38
3308.79
3303.24
3294.76
3283.44
3269.41
3252.8
3233.8
3212.61
3189.45
3164.56
3138.2
3110.63
3082.12
3052.92
3023.32
2993.52
2963.79
2934.32
2905.36
2877.04
2849.47
2822.83
2797.24
2772.79
2749.57
2727.63
2707
2687.72
2669.78
2653.18
2637.92
2623.97
2611.31
2599.91
2589.75
2580.8
2573.04
2566.45
2561.01
2556.7
2553.51
2551.44
2550.46
2550.59
2551.81
2554.16
2557.59
2562.14
2567.79
2574.56
2582.44
2591.46
2601.62
2612.94
2625.44
2639.13
2654.03
2670.15
2687.51
2706.11
2725.94
2746.99
2769.22
2792.59
2817.03
2842.45
2868.74
2895.81
2923.49
2951.68
2980.18
3008.76
3037.24
3065.39
3093.01
3119.86
3145.73
3170.37
3193.57
3215.08
3234.69
3252.21
3267.43
3280.19
3290.32
3297.69
3302.19
3303.75
3302.32
3297.89
3290.48
3280.17
3267.02
3251.17
3232.77
3211.99
3189.05
3164.16
3137.57
3109.55
3080.37
3050.31
3019.67
2988.72
2957.74
2926.99
2896.74
2867.2
2838.59
2811.12
2784.89
2760.05
2736.71
2714.96
2694.85
2676.42
2659.68
2644.62
2631.24
2619.49
2609.32
2600.68
2593.5
2587.71
2583.21
2579.93
2577.79
2576.71
2576.61
2577.42
2579.08
2581.53
2584.73
2588.64
2593.22
2598.45
2604.32
2610.84
2618
2625.84
2634.39
2643.68
2653.77
2664.71
2676.57
2689.39
2703.24
2718.17
2734.24
2751.49
2769.94
2789.62
2810.52
2832.6
2855.83
2880.1
2905.33
2931.36
2958.03
2985.22
3012.55
3039.84
3066.87
3093.38
3119.12
3143.84
3167.3
3189.27
3209.5
3227.8
3243.96
3257.82
3269.22
3278.03
3284.15
3287.5
3288.05
3285.78
3280.7
3272.88
3262.4
3249.37
3233.92
3216.21
3196.44
3174.8
3151.5
3126.78
3100.88
3074.04
3046.51
3018.55
2990.37
2962.22
2934.29
2906.77
2879.83
2853.6
2828.23
2803.77
2780.33
2757.97
2736.76
2716.74
2697.97
2680.45
2664.32
2649.81
2636.42
2952.4
2980.99
3009.07
3036.4
3062.59
3087.44
3110.64
3132.03
3151.39
3168.53
3183.25
3195.37
3204.72
3211.18
3214.64
3215.08
3212.47
3206.87
3198.32
3186.9
3172.76
3156.01
3136.86
3115.51
3092.18
3067.11
3040.57
3012.82
2984.14
2954.79
2925.03
2895.1
2865.24
2835.67
2806.63
2778.22
2750.59
2723.89
2698.26
2673.78
2650.54
2628.59
2607.96
2588.69
2570.76
2554.19
2538.95
2525.02
2512.38
2501.01
2490.87
2481.94
2474.2
2467.62
2462.2
2457.9
2454.72
2452.65
2451.68
2451.81
2453.03
2455.38
2458.81
2463.35
2468.99
2475.75
2483.63
2492.64
2502.78
2514.09
2526.57
2540.24
2555.12
2571.23
2588.57
2607.16
2626.99
2648.05
2670.3
2693.69
2718.16
2743.62
2769.98
2797.11
2824.86
2853.15
2881.75
2910.45
2939.05
2967.33
2995.09
3022.1
3048.12
3072.91
3096.26
3117.92
3137.69
3155.35
3170.7
3183.58
3193.81
3201.26
3205.82
3207.42
3206
3201.56
3194.12
3183.74
3170.51
3154.55
3136.01
3115.09
3091.98
3066.92
3040.15
3011.94
2982.57
2952.33
2921.5
2890.38
2859.23
2828.34
2797.95
2768.29
2739.58
2712.02
2685.72
2660.83
2637.46
2615.69
2595.57
2577.14
2560.41
2545.38
2532.03
2520.32
2510.2
2501.61
2494.48
2488.74
2484.3
2481.08
2479
2477.97
2477.91
2478.76
2480.46
2482.95
2486.18
2490.1
2494.7
2499.94
2505.81
2512.31
2519.46
2527.28
2535.79
2545.05
2555.11
2566
2577.81
2590.59
2604.39
2619.29
2635.32
2652.54
2670.97
2690.64
2711.54
2733.64
2756.9
2781.23
2806.52
2832.64
2859.42
2886.7
2914.16
2941.59
2968.76
2995.43
3021.32
3046.2
3069.82
3091.93
3112.32
3130.76
3147.06
3161.04
3172.55
3181.44
3187.63
3191.04
3191.61
3189.34
3184.23
3176.36
3165.8
3152.67
3137.1
3119.26
3099.33
3077.52
3054.06
3029.16
3003.08
2976.07
2948.38
2920.25
2891.94
2863.66
2835.62
2808.01
2781
2754.72
2729.31
2704.82
2681.36
2658.99
2637.76
2617.73
2598.93
2581.37
2565.16
2550.5
2536.84
2854.2
2882.97
2911.23
2938.74
2965.12
2990.14
3013.52
3035.08
3054.6
3071.89
3086.76
3099.01
3108.46
3114.99
3118.5
3118.94
3116.31
3110.66
3102.03
3090.51
3076.24
3059.34
3040.03
3018.5
2994.98
2969.72
2942.99
2915.04
2886.18
2856.65
2826.73
2796.65
2766.65
2736.97
2707.83
2679.33
2651.63
2624.87
2599.19
2574.69
2551.42
2529.47
2508.84
2489.57
2471.67
2455.11
2439.9
2425.99
2413.38
2402.03
2391.91
2383.01
2375.29
2368.73
2363.32
2359.03
2355.86
2353.8
2352.83
2352.97
2354.19
2356.53
2359.96
2364.5
2370.14
2376.89
2384.75
2393.75
2403.88
2415.16
2427.63
2441.28
2456.14
2472.23
2489.56
2508.14
2527.97
2549.03
2571.29
2594.71
2619.22
2644.73
2671.14
2698.35
2726.19
2754.57
2783.29
2812.11
2840.85
2869.28
2897.19
2924.35
2950.54
2975.51
2999.02
3020.85
3040.78
3058.6
3074.1
3087.1
3097.45
3104.99
3109.62
3111.26
3109.86
3105.4
3097.92
3087.46
3074.14
3058.06
3039.38
3018.3
2995.01
2969.76
2942.79
2914.37
2884.8
2854.35
2823.32
2792.01
2760.69
2729.63
2699.09
2669.3
2640.47
2612.84
2586.46
2561.51
2538.09
2516.3
2496.17
2477.75
2461.03
2446.03
2432.72
2421.05
2410.98
2402.45
2395.38
2389.7
2385.33
2382.17
2380.14
2379.17
2379.16
2380.06
2381.8
2384.33
2387.58
2391.54
2396.15
2401.39
2407.26
2413.75
2420.88
2428.67
2437.16
2446.38
2456.39
2467.24
2479
2491.72
2505.48
2520.33
2536.32
2553.51
2571.92
2591.57
2612.48
2634.6
2657.89
2682.28
2707.65
2733.86
2760.75
2788.14
2815.74
2843.32
2870.65
2897.48
2923.55
2948.6
2972.39
2994.67
3015.22
3033.83
3050.27
3064.38
3076
3085
3091.27
3094.73
3095.33
3093.05
3087.92
3079.99
3069.35
3056.1
3040.4
3022.41
3002.31
2980.32
2956.67
2931.58
2905.3
2878.1
2850.23
2821.94
2793.47
2765.05
2736.89
2709.19
2682.1
2655.76
2630.3
2605.79
2582.31
2559.92
2538.68
2518.63
2499.8
2482.19
2465.92
2451.1
2437.21
2756
2784.95
2813.4
2841.12
2867.7
2892.92
2916.48
2938.22
2957.92
2975.38
2990.41
3002.79
3012.36
3018.97
3022.52
3022.97
3020.32
3014.62
3005.9
2994.27
2979.85
2962.8
2943.31
2921.58
2897.86
2872.39
2845.44
2817.29
2788.22
2758.5
2728.4
2698.15
2668.02
2638.2
2608.97
2580.38
2552.59
2525.77
2500.04
2475.5
2452.22
2430.25
2409.63
2390.37
2372.48
2355.95
2340.76
2326.89
2314.3
2302.98
2292.89
2284.01
2276.31
2269.77
2264.37
2260.1
2256.94
2254.89
2253.93
2254.06
2255.28
2257.63
2261.05
2265.59
2271.22
2277.96
2285.81
2294.79
2304.91
2316.17
2328.62
2342.25
2357.09
2373.16
2390.47
2409.04
2428.86
2449.93
2472.21
2495.66
2520.2
2545.77
2572.24
2599.53
2627.46
2655.95
2684.79
2713.75
2742.64
2771.22
2799.3
2826.64
2853.01
2878.16
2901.86
2923.87
2943.98
2961.96
2977.62
2990.76
3001.23
3008.88
3013.58
3015.27
3013.88
3009.41
3001.88
2991.35
2977.92
2961.71
2942.88
2921.61
2898.13
2872.67
2845.49
2816.85
2787.05
2756.38
2725.14
2693.61
2662.1
2630.86
2600.16
2570.23
2541.28
2513.55
2487.09
2462.08
2438.62
2416.8
2396.66
2378.24
2361.55
2346.58
2333.3
2321.68
2311.67
2303.2
2296.19
2290.58
2286.28
2283.19
2281.23
2280.31
2280.36
2281.31
2283.1
2285.66
2288.95
2292.93
2297.56
2302.81
2308.68
2315.16
2322.27
2330.03
2338.48
2347.66
2357.62
2368.42
2380.12
2392.8
2406.5
2421.3
2437.25
2454.4
2472.78
2492.43
2513.33
2535.47
2558.81
2583.25
2608.7
2635.01
2662.02
2689.54
2717.29
2745.04
2772.54
2799.55
2825.8
2851.04
2875.01
2897.48
2918.21
2936.98
2953.59
2967.85
2979.6
2988.7
2995.05
2998.57
2999.2
2996.92
2991.76
2983.77
2973.03
2959.67
2943.82
2925.66
2905.38
2883.2
2859.33
2834.03
2807.55
2780.15
2752.08
2723.6
2694.96
2666.4
2638.11
2610.3
2583.12
2556.73
2531.22
2506.67
2483.17
2460.77
2439.52
2419.46
2400.6
2382.94
2366.59
2351.63
2337.53
2657.77
2686.93
2715.6
2743.53
2770.33
2795.76
2819.52
2841.46
2861.34
2879
2894.19
2906.73
2916.42
2923.11
2926.71
2927.17
2924.5
2918.74
2909.93
2898.17
2883.61
2866.38
2846.69
2824.76
2800.82
2775.11
2747.94
2719.56
2690.27
2660.34
2630.04
2599.63
2569.33
2539.38
2510.05
2481.36
2453.48
2426.59
2400.81
2376.23
2352.93
2330.95
2310.33
2291.09
2273.22
2256.71
2241.55
2227.71
2215.15
2203.86
2193.8
2184.94
2177.26
2170.75
2165.37
2161.11
2157.96
2155.91
2154.96
2155.1
2156.32
2158.66
2162.08
2166.61
2172.23
2178.97
2186.81
2195.77
2205.87
2217.12
2229.54
2243.14
2257.96
2274.01
2291.3
2309.86
2329.68
2350.75
2373.05
2396.52
2421.11
2446.73
2473.28
2500.65
2528.68
2557.28
2586.26
2615.37
2644.41
2673.16
2701.42
2728.95
2755.51
2780.86
2804.76
2826.97
2847.27
2865.44
2881.26
2894.56
2905.17
2912.92
2917.71
2919.44
2918.07
2913.58
2906
2895.39
2881.84
2865.49
2846.49
2825.04
2801.36
2775.67
2748.25
2719.37
2689.33
2658.42
2626.94
2595.19
2563.47
2532.04
2501.17
2471.08
2441.99
2414.17
2387.61
2362.54
2339.04
2317.19
2297.04
2278.63
2261.95
2247.01
2233.78
2222.21
2212.26
2203.85
2196.92
2191.38
2187.15
2184.14
2182.25
2181.4
2181.51
2182.52
2184.35
2186.96
2190.28
2194.28
2198.93
2204.19
2210.06
2216.53
2223.61
2231.35
2239.76
2248.89
2258.8
2269.54
2281.19
2293.8
2307.45
2322.2
2338.1
2355.21
2373.56
2393.19
2414.1
2436.26
2459.64
2484.15
2509.69
2536.11
2563.25
2590.9
2618.82
2646.74
2674.43
2701.63
2728.08
2753.52
2777.69
2800.36
2821.28
2840.24
2857.02
2871.43
2883.32
2892.54
2898.99
2902.57
2903.23
2900.95
2895.75
2887.69
2876.86
2863.36
2847.36
2829.02
2808.54
2786.15
2762.06
2736.53
2709.82
2682.19
2653.91
2625.23
2596.42
2567.69
2539.27
2511.34
2484.08
2457.62
2432.06
2407.47
2383.95
2361.54
2340.28
2320.2
2301.32
2283.61
2267.18
2252.07
2237.79
2559.54
2588.91
2617.81
2645.98
2673.01
2698.66
2722.64
2744.79
2764.88
2782.73
2798.12
2810.82
2820.64
2827.43
2831.08
2831.55
2828.85
2823.02
2814.12
2802.23
2787.5
2770.08
2750.19
2728.02
2703.84
2677.9
2650.47
2621.84
2592.32
2562.16
2531.67
2501.06
2470.6
2440.5
2411.07
2382.26
2354.29
2327.32
2301.48
2276.87
2253.54
2231.56
2210.95
2191.71
2173.86
2157.39
2142.26
2128.45
2115.93
2104.66
2094.63
2085.8
2078.15
2071.66
2066.3
2062.05
2058.92
2056.88
2055.93
2056.07
2057.3
2059.63
2063.05
2067.57
2073.19
2079.91
2087.74
2096.69
2106.76
2117.99
2130.39
2143.97
2158.76
2174.78
2192.06
2210.6
2230.42
2251.49
2273.81
2297.31
2321.95
2347.63
2374.25
2401.71
2429.85
2458.57
2487.69
2516.96
2546.17
2575.1
2603.56
2631.29
2658.06
2683.62
2707.74
2730.16
2750.66
2769.03
2785.04
2798.5
2809.25
2817.12
2822
2823.79
2822.43
2817.93
2810.29
2799.59
2785.92
2769.42
2750.24
2728.59
2704.67
2678.75
2651.07
2621.94
2591.63
2560.46
2528.73
2496.74
2464.79
2433.16
2402.1
2371.85
2342.61
2314.69
2288.03
2262.89
2239.34
2217.46
2197.31
2178.9
2162.25
2147.34
2134.16
2122.64
2112.76
2104.42
2097.57
2092.11
2087.95
2085.02
2083.2
2082.43
2082.61
2083.67
2085.56
2088.21
2091.57
2095.6
2100.27
2105.54
2111.4
2117.86
2124.92
2132.62
2140.99
2150.07
2159.93
2170.61
2182.2
2194.75
2208.33
2223.02
2238.87
2255.93
2274.26
2293.87
2314.78
2336.97
2360.39
2384.97
2410.6
2437.14
2464.41
2492.22
2520.31
2548.42
2576.31
2603.72
2630.38
2656.03
2680.42
2703.31
2724.44
2743.59
2760.55
2775.14
2787.18
2796.53
2803.07
2806.72
2807.42
2805.14
2799.9
2791.77
2780.83
2767.19
2751.02
2732.48
2711.8
2689.17
2664.84
2639.07
2612.12
2584.25
2555.73
2526.84
2497.83
2468.93
2440.36
2412.32
2384.95
2358.42
2332.81
2308.19
2284.65
2262.22
2240.96
2220.86
2201.95
2184.2
2167.69
2152.44
2138
2461.28
2490.88
2520.04
2548.47
2575.74
2601.63
2625.84
2648.21
2668.52
2686.59
2702.18
2715.06
2725.02
2731.91
2735.62
2736.1
2733.37
2727.48
2718.46
2706.43
2691.52
2673.9
2653.79
2631.38
2606.95
2580.74
2553.05
2524.15
2494.38
2463.98
2433.27
2402.46
2371.81
2341.55
2312.02
2283.09
2255.01
2227.97
2202.07
2177.42
2154.07
2132.08
2111.47
2092.25
2074.43
2057.98
2042.88
2029.11
2016.62
2005.4
1995.4
1986.6
1978.97
1972.5
1967.16
1962.93
1959.81
1957.78
1956.84
1956.98
1958.21
1960.55
1963.96
1968.47
1974.08
1980.79
1988.6
1997.54
2007.59
2018.8
2031.17
2044.72
2059.48
2075.48
2092.73
2111.26
2131.07
2152.15
2174.48
2198.03
2222.7
2248.45
2275.15
2302.7
2330.96
2359.8
2389.09
2418.52
2447.91
2477.04
2505.7
2533.65
2560.65
2586.44
2610.78
2633.43
2654.16
2672.73
2688.94