/*--------------------------------*- C++ -*----------------------------------*\
| =========                 |                                                 |
| \\      /  F ield         | OpenFOAM: The Open Source CFD Toolbox           |
|  \\    /   O peration     | Version:  3.0.1                                 |
|   \\  /    A nd           | Web:      www.OpenFOAM.org                      |
|    \\/     M anipulation  |                                                 |
\*---------------------------------------------------------------------------*/
FoamFile
{
    version     2.0;
    format      ascii;
    class       surfaceScalarField;
    location    "26.4";
    object      phi;
}
// * * * * * * * * * * * * * * * * * * * * * * * * * * * * * * * * * * * * * //

dimensions      [0 3 -1 0 0 0 0];

internalField   nonuniform List<scalar> 
42423
(
0.000105579
1.71177e-05
8.81309e-05
1.74483e-05
7.01831e-05
1.79477e-05
5.19049e-05
1.82783e-05
3.36372e-05
1.82677e-05
1.54498e-05
1.81874e-05
-2.35949e-06
1.78093e-05
-1.9714e-05
1.73545e-05
-3.63925e-05
1.66784e-05
-5.22566e-05
1.58641e-05
-6.72816e-05
1.50251e-05
-8.13762e-05
1.40946e-05
-9.44994e-05
1.31232e-05
-0.000106646
1.21468e-05
-0.000117798
1.11517e-05
-0.000127991
1.01927e-05
-0.000137213
9.22201e-06
-0.000145486
8.27289e-06
-0.000152838
7.35241e-06
-0.000159299
6.46088e-06
-0.000164892
5.59313e-06
-0.000169656
4.76388e-06
-0.000173616
3.96013e-06
-0.000176779
3.16311e-06
-0.000179166
2.38653e-06
-0.000180811
1.64509e-06
-0.000181735
9.24087e-07
-0.000181943
2.08335e-07
-0.000181344
-5.99272e-07
-0.000179973
-1.3713e-06
-0.000177907
-2.06601e-06
-0.000174975
-2.93153e-06
-0.000171355
-3.61972e-06
-0.000166851
-4.50418e-06
-0.00016157
-5.28179e-06
-0.000155528
-6.04134e-06
-0.000148505
-7.02338e-06
-0.000140686
-7.81885e-06
-0.000132005
-8.6809e-06
-0.000122331
-9.67373e-06
-0.000111779
-1.05526e-05
-0.000100144
-1.16346e-05
-8.76681e-05
-1.24764e-05
-7.42713e-05
-1.33969e-05
-5.99869e-05
-1.42844e-05
-4.47345e-05
-1.52525e-05
-2.88077e-05
-1.59269e-05
-1.21287e-05
-1.66791e-05
5.25603e-06
-1.73848e-05
2.29885e-05
-1.77325e-05
4.11229e-05
-1.81346e-05
5.93969e-05
-1.8274e-05
7.76554e-05
-1.82586e-05
9.58229e-05
-1.81676e-05
0.000113385
-1.75625e-05
0.000130318
-1.6933e-05
0.000146381
-1.60627e-05
0.000161212
-1.48315e-05
0.000174772
-1.35601e-05
0.000186733
-1.19607e-05
0.000197053
-1.03205e-05
0.000205459
-8.40548e-06
0.000211808
-6.34908e-06
0.000216045
-4.23757e-06
0.000218071
-2.02622e-06
0.00021764
4.31096e-07
0.000215011
2.62931e-06
0.000209989
5.02186e-06
0.000202954
7.035e-06
0.000193779
9.17405e-06
0.00018267
1.11091e-05
0.000169779
1.28913e-05
0.000155345
1.44343e-05
0.000139528
1.58167e-05
0.000122764
1.67639e-05
0.00010502
1.77434e-05
8.67831e-05
1.82372e-05
6.81651e-05
1.86179e-05
4.93362e-05
1.88289e-05
3.06068e-05
1.87293e-05
1.20661e-05
1.85407e-05
-5.95172e-06
1.80178e-05
-2.33726e-05
1.74208e-05
-4.01892e-05
1.68167e-05
-5.62203e-05
1.6031e-05
-7.12654e-05
1.50451e-05
-8.54348e-05
1.41694e-05
-9.85274e-05
1.30925e-05
-0.000110649
1.21213e-05
-0.000121663
1.10138e-05
-0.000131625
9.96284e-06
-0.000140491
8.86542e-06
-0.000148268
7.77755e-06
-0.000154983
6.71492e-06
-0.000160662
5.67855e-06
-0.000165384
4.7219e-06
-0.000169217
3.83291e-06
-0.000172152
2.93504e-06
-0.000174302
2.15063e-06
-0.000175689
1.38647e-06
-0.000176293
6.03852e-07
-0.000176237
-5.6157e-08
-0.000175531
-7.05255e-07
-0.000174069
-1.46235e-06
-0.000172056
-2.01344e-06
-0.000169401
-2.6543e-06
-0.00016608
-3.32077e-06
-0.00016216
-3.92072e-06
-0.000157575
-4.58521e-06
-0.000152285
-5.2897e-06
-0.000146353
-5.93182e-06
-0.000139631
-6.7225e-06
-0.00013221
-7.42108e-06
-0.000124013
-8.19652e-06
-0.000115019
-8.99371e-06
-0.000105368
-9.65117e-06
-9.48679e-05
-1.05004e-05
-8.36272e-05
-1.12408e-05
-7.15687e-05
-1.20585e-05
-5.87293e-05
-1.28395e-05
-4.51636e-05
-1.35658e-05
-3.08112e-05
-1.43526e-05
-1.57435e-05
-1.50678e-05
-5.26173e-08
-1.5691e-05
1.624e-05
-1.62927e-05
3.30409e-05
-1.6801e-05
5.02099e-05
-1.71692e-05
6.75851e-05
-1.73753e-05
8.50077e-05
-1.74228e-05
0.000102286
-1.72786e-05
0.000119146
-1.68604e-05
0.000135403
-1.62569e-05
0.000150748
-1.53451e-05
0.000164954
-1.42061e-05
0.000177744
-1.27899e-05
0.000188808
-1.10641e-05
0.000197971
-9.16301e-06
0.000205
-7.02944e-06
0.000209723
-4.72285e-06
0.000212018
-2.29566e-06
0.000211897
1.21678e-07
0.000209301
2.59538e-06
0.00020424
5.06108e-06
0.00019685
7.3904e-06
0.000187371
9.4788e-06
0.000175872
1.14987e-05
0.000162665
1.32064e-05
0.000147933
1.47323e-05
0.000131884
1.60491e-05
0.000114829
1.70548e-05
9.70122e-05
1.78167e-05
7.87836e-05
1.82285e-05
6.03127e-05
1.84709e-05
4.19831e-05
1.83295e-05
2.39513e-05
1.80317e-05
6.4452e-06
1.75061e-05
-1.03738e-05
1.6819e-05
-2.63686e-05
1.59948e-05
-4.13981e-05
1.50294e-05
-5.5429e-05
1.40309e-05
-6.83975e-05
1.29684e-05
-8.02845e-05
1.18871e-05
-9.12151e-05
1.09305e-05
-0.00010109
9.87446e-06
-0.000110077
8.98731e-06
-0.000118145
8.06766e-06
-0.000125405
7.2601e-06
-0.000131903
6.49832e-06
-0.000137632
5.72907e-06
-0.000142689
5.05647e-06
-0.000147042
4.35388e-06
-0.000150775
3.73245e-06
-0.000153876
3.10138e-06
-0.000156285
2.40904e-06
-0.000158015
1.72932e-06
-0.000159081
1.06664e-06
-0.000159528
4.46225e-07
-0.000159452
-7.55393e-08
-0.000158654
-7.97532e-07
-0.000157269
-1.38518e-06
-0.000155265
-2.00466e-06
-0.000152567
-2.69737e-06
-0.000149196
-3.37101e-06
-0.000145144
-4.05248e-06
-0.000140343
-4.80074e-06
-0.000134757
-5.58577e-06
-0.000128345
-6.41224e-06
-0.000121101
-7.24391e-06
-0.000112975
-8.12633e-06
-0.000103901
-9.07397e-06
-9.40121e-05
-9.88896e-06
-8.30813e-05
-1.09308e-05
-7.13602e-05
-1.17211e-05
-5.86671e-05
-1.26932e-05
-4.50723e-05
-1.35948e-05
-3.07131e-05
-1.43592e-05
-1.55118e-05
-1.52014e-05
4.16536e-07
-1.59283e-05
1.6956e-05
-1.65395e-05
3.40369e-05
-1.7081e-05
5.1484e-05
-1.74471e-05
6.91073e-05
-1.76234e-05
8.67886e-05
-1.76814e-05
0.000104298
-1.75099e-05
0.000121421
-1.71229e-05
0.000137967
-1.65458e-05
0.00015369
-1.57227e-05
0.000168361
-1.46716e-05
0.000181746
-1.33847e-05
0.000193666
-1.192e-05
0.000203893
-1.02272e-05
0.000212185
-8.29223e-06
0.000218474
-6.28877e-06
0.000222622
-4.14823e-06
0.000224584
-1.96264e-06
0.000224294
2.90822e-07
0.000221764
2.52908e-06
0.000216938
4.82635e-06
0.000209998
6.93951e-06
0.000200986
9.01198e-06
0.000190052
1.09343e-05
0.000177443
1.26093e-05
0.00016327
1.41729e-05
0.000147915
1.53545e-05
0.000131507
1.64076e-05
0.000114335
1.71724e-05
9.66312e-05
1.77038e-05
7.85807e-05
1.80504e-05
6.04937e-05
1.8087e-05
4.25494e-05
1.79443e-05
2.48821e-05
1.76672e-05
7.79413e-06
1.70879e-05
-8.64797e-06
1.64421e-05
-2.43425e-05
1.56946e-05
-3.90942e-05
1.47517e-05
-5.29299e-05
1.38356e-05
-6.58048e-05
1.28749e-05
-7.75548e-05
1.175e-05
-8.83668e-05
1.0812e-05
-9.80906e-05
9.72379e-06
-0.00010682
8.72912e-06
-0.000114619
7.79877e-06
-0.000121483
6.86437e-06
-0.000127392
5.9089e-06
-0.0001325
5.10852e-06
-0.000136727
4.22705e-06
-0.000140168
3.4403e-06
-0.000142938
2.77011e-06
-0.000144959
2.02115e-06
-0.000146229
1.26981e-06
-0.000146883
6.54304e-07
-0.000147098
2.14564e-07
-0.000146588
-5.09508e-07
-0.000145567
-1.02086e-06
-0.000143856
-1.7112e-06
-0.000141673
-2.18342e-06
-0.000138851
-2.82162e-06
-0.000135514
-3.33696e-06
-0.000131563
-3.95143e-06
-0.000127039
-4.52388e-06
-0.000121871
-5.16771e-06
-0.000116061
-5.81022e-06
-0.000109549
-6.5122e-06
-0.000102351
-7.19739e-06
-9.44377e-05
-7.9137e-06
-8.56833e-05
-8.7544e-06
-7.61338e-05
-9.5496e-06
-6.56851e-05
-1.04487e-05
-5.45639e-05
-1.11212e-05
-4.25428e-05
-1.20212e-05
-2.96942e-05
-1.28487e-05
-1.5991e-05
-1.37032e-05
-1.57774e-06
-1.44133e-05
1.36205e-05
-1.51983e-05
2.95213e-05
-1.59008e-05
4.58489e-05
-1.63277e-05
6.2589e-05
-1.67402e-05
7.96383e-05
-1.70493e-05
9.6871e-05
-1.72328e-05
0.000114019
-1.71483e-05
0.000130741
-1.67213e-05
0.000147131
-1.63908e-05
0.000162749
-1.56175e-05
0.000177264
-1.45155e-05
0.000190616
-1.33523e-05
0.00020241
-1.17932e-05
0.00021238
-9.97095e-06
0.000220416
-8.03597e-06
0.000226212
-5.79614e-06
0.000229785
-3.57303e-06
0.000230838
-1.05302e-06
0.000229481
1.35705e-06
0.000225476
4.00567e-06
0.000219214
6.26159e-06
0.000210512
8.7016e-06
0.000199838
1.06745e-05
0.000187133
1.27052e-05
0.000172896
1.42369e-05
0.000157154
1.5742e-05
0.000140444
1.67093e-05
0.000122843
1.76011e-05
0.000104843
1.8e-05
8.64277e-05
1.84156e-05
6.81501e-05
1.82776e-05
4.99923e-05
1.81578e-05
3.21537e-05
1.78386e-05
1.50105e-05
1.71432e-05
-1.57408e-06
1.65846e-05
-1.73984e-05
1.58243e-05
-3.239e-05
1.49916e-05
-4.64922e-05
1.41022e-05
-5.96541e-05
1.31619e-05
-7.18778e-05
1.22237e-05
-8.31326e-05
1.12548e-05
-9.34276e-05
1.0295e-05
-0.000102786
9.35798e-06
-0.000111223
8.43769e-06
-0.000118759
7.53624e-06
-0.000125417
6.65771e-06
-0.000131225
5.80785e-06
-0.000136216
4.99059e-06
-0.000140403
4.18727e-06
-0.000143819
3.41599e-06
-0.000146486
2.66753e-06
-0.000148417
1.93104e-06
-0.000149662
1.24432e-06
-0.000150216
5.54638e-07
-0.000150042
-1.74628e-07
-0.000149146
-8.95695e-07
-0.000147554
-1.59162e-06
-0.000145274
-2.28048e-06
-0.00014233
-2.94416e-06
-0.000138706
-3.62399e-06
-0.000134429
-4.27705e-06
-0.000129487
-4.9415e-06
-0.000123781
-5.70637e-06
-0.000117397
-6.38374e-06
-0.00011037
-7.02691e-06
-0.000102555
-7.81574e-06
-9.39692e-05
-8.58546e-06
-8.47356e-05
-9.23368e-06
-7.46187e-05
-1.01169e-05
-6.38004e-05
-1.08184e-05
-5.20484e-05
-1.1752e-05
-3.9611e-05
-1.24375e-05
-2.6527e-05
-1.30841e-05
-1.25069e-05
-1.40201e-05
2.24766e-06
-1.47546e-05
1.7517e-05
-1.52694e-05
3.34666e-05
-1.59497e-05
4.97809e-05
-1.63144e-05
6.65269e-05
-1.67461e-05
8.33735e-05
-1.68467e-05
0.000100068
-1.66947e-05
0.00011655
-1.6482e-05
0.000132537
-1.59873e-05
-1.54741e-05
0.000105603
3.42422e-05
8.81476e-05
3.49032e-05
7.01923e-05
3.5903e-05
5.19049e-05
3.65657e-05
3.36296e-05
3.6543e-05
1.54347e-05
3.63823e-05
-2.38008e-06
3.5624e-05
-1.9739e-05
3.47134e-05
-3.64222e-05
3.33616e-05
-5.22922e-05
3.17341e-05
-6.73235e-05
3.00564e-05
-8.142e-05
2.81911e-05
-9.45441e-05
2.62473e-05
-0.000106695
2.42982e-05
-0.000117853
2.23093e-05
-0.000128044
2.03841e-05
-0.000137264
1.84414e-05
-0.000145538
1.65471e-05
-0.00015289
1.47048e-05
-0.000159356
1.29267e-05
-0.000164956
1.11929e-05
-0.000169722
9.52941e-06
-0.000173685
7.92389e-06
-0.000176842
6.31966e-06
-0.000179222
4.7667e-06
-0.000180866
3.28919e-06
-0.000181787
1.84472e-06
-0.000181996
4.17048e-07
-0.0001814
-1.19495e-06
-0.000180026
-2.74565e-06
-0.000177961
-4.13075e-06
-0.000175034
-5.85828e-06
-0.000171412
-7.242e-06
-0.000166909
-9.0071e-06
-0.000161627
-1.05638e-05
-0.000155589
-1.20797e-05
-0.000148564
-1.40485e-05
-0.000140747
-1.56359e-05
-0.000132065
-1.73629e-05
-0.000122392
-1.93468e-05
-0.000111837
-2.11073e-05
-0.000100202
-2.32694e-05
-8.77194e-05
-2.49596e-05
-7.43305e-05
-2.67859e-05
-6.00376e-05
-2.85775e-05
-4.47849e-05
-3.05052e-05
-2.88518e-05
-3.18602e-05
-1.21642e-05
-3.33668e-05
5.22274e-06
-3.47719e-05
2.29659e-05
-3.54759e-05
4.11096e-05
-3.62783e-05
5.93934e-05
-3.65581e-05
7.76617e-05
-3.65271e-05
9.58453e-05
-3.63513e-05
0.000113414
-3.51318e-05
0.000130359
-3.38775e-05
0.000146434
-3.21381e-05
0.000161273
-2.9671e-05
0.000174845
-2.71321e-05
0.000186822
-2.39372e-05
0.000197145
-2.06437e-05
0.000205554
-1.68146e-05
0.000211924
-1.27195e-05
0.000216161
-8.47505e-06
0.000218194
-4.05937e-06
0.000217759
8.6582e-07
0.000215128
5.26017e-06
0.000210113
1.0037e-05
0.000203071
1.40765e-05
0.000193896
1.83487e-05
0.000182771
2.22342e-05
0.000169884
2.57781e-05
0.000155425
2.88939e-05
0.000139598
3.16435e-05
0.000122812
3.35492e-05
0.000105056
3.55001e-05
8.68052e-05
3.64875e-05
6.81807e-05
3.72424e-05
4.93272e-05
3.76823e-05
3.05873e-05
3.74692e-05
1.20409e-05
3.70871e-05
-6.00108e-06
3.60597e-05
-2.34405e-05
3.48602e-05
-4.02736e-05
3.36497e-05
-5.63051e-05
3.20626e-05
-7.13511e-05
3.0091e-05
-8.55202e-05
2.83385e-05
-9.86237e-05
2.6196e-05
-0.00011074
2.42376e-05
-0.000121768
2.20421e-05
-0.000131734
1.9928e-05
-0.000140594
1.77259e-05
-0.000148362
1.55455e-05
-0.000155077
1.34299e-05
-0.000160755
1.13567e-05
-0.00016548
9.44675e-06
-0.000169313
7.6658e-06
-0.000172236
5.85822e-06
-0.000174383
4.29767e-06
-0.000175781
2.78453e-06
-0.000176374
1.19607e-06
-0.000176304
-1.25434e-07
-0.000175594
-1.4153e-06
-0.000174129
-2.92749e-06
-0.000172117
-4.02609e-06
-0.000169462
-5.30871e-06
-0.000166141
-6.6423e-06
-0.000162208
-7.8539e-06
-0.000157639
-9.15362e-06
-0.000152349
-1.05798e-05
-0.00014641
-1.18706e-05
-0.000139685
-1.3448e-05
-0.000132262
-1.48438e-05
-0.000124064
-1.63952e-05
-0.000115069
-1.79885e-05
-0.000105418
-1.93019e-05
-9.49168e-05
-2.10022e-05
-8.36673e-05
-2.24905e-05
-7.16042e-05
-2.41217e-05
-5.876e-05
-2.56838e-05
-4.5198e-05
-2.7128e-05
-3.08425e-05
-2.87082e-05
-1.57814e-05
-3.01291e-05
-7.86847e-08
-3.13939e-05
1.62312e-05
-3.26028e-05
3.30436e-05
-3.36137e-05
5.02222e-05
-3.43481e-05
6.75956e-05
-3.47489e-05
8.5035e-05
-3.48625e-05
0.000102319
-3.45628e-05
0.000119187
-3.37286e-05
0.000135456
-3.25264e-05
0.000150822
-3.07113e-05
0.000165029
-2.84136e-05
0.000177835
-2.55961e-05
0.000188913
-2.21422e-05
0.000198076
-1.83261e-05
0.000205109
-1.40626e-05
0.000209841
-9.45474e-06
0.000212144
-4.59881e-06
0.00021201
2.55528e-07
0.000209403
5.20169e-06
0.000204336
1.01281e-05
0.000196929
1.4797e-05
0.000187439
1.89691e-05
0.000175931
2.30062e-05
0.00016271
2.64273e-05
0.000147945
2.94976e-05
0.000131898
3.20958e-05
0.000114837
3.41152e-05
9.70067e-05
3.56473e-05
7.87536e-05
3.64815e-05
6.02664e-05
3.69581e-05
4.19215e-05
3.66743e-05
2.38834e-05
3.60698e-05
6.36824e-06
3.50212e-05
-1.04461e-05
3.36333e-05
-2.64689e-05
3.20175e-05
-4.14922e-05
3.00527e-05
-5.5518e-05
2.80567e-05
-6.8496e-05
2.59464e-05
-8.03885e-05
2.37795e-05
-9.13116e-05
2.18537e-05
-0.000101183
1.97456e-05
-0.000110168
1.79725e-05
-0.000118229
1.61285e-05
-0.000125489
1.45203e-05
-0.000131992
1.30013e-05
-0.000137724
1.14614e-05
-0.000142766
1.00977e-05
-0.000147114
8.70196e-06
-0.000150851
7.46978e-06
-0.000153939
6.18885e-06
-0.000156367
4.83792e-06
-0.000158098
3.4603e-06
-0.00015916
2.12785e-06
-0.000159594
8.80353e-07
-0.000159519
-1.50521e-07
-0.000158722
-1.59477e-06
-0.00015733
-2.77684e-06
-0.000155319
-4.01599e-06
-0.000152628
-5.38814e-06
-0.000149267
-6.73194e-06
-0.000145201
-8.11855e-06
-0.000140401
-9.60046e-06
-0.000134818
-1.11695e-05
-0.0001284
-1.28295e-05
-0.000121159
-1.44857e-05
-0.000113031
-1.62542e-05
-0.000103964
-1.81404e-05
-9.4065e-05
-1.97884e-05
-8.31323e-05
-2.18636e-05
-7.14055e-05
-2.3448e-05
-5.87101e-05
-2.53887e-05
-4.51037e-05
-2.72013e-05
-3.07451e-05
-2.8718e-05
-1.5541e-05
-3.04056e-05
3.99124e-07
-3.18686e-05
1.69368e-05
-3.30773e-05
3.40282e-05
-3.41725e-05
5.14856e-05
-3.49047e-05
6.91191e-05
-3.5257e-05
8.68067e-05
-3.5369e-05
0.000104335
-3.50382e-05
0.000121463
-3.42515e-05
0.000138021
-3.31039e-05
0.000153756
-3.14575e-05
0.000168442
-2.93583e-05
0.000181845
-2.67872e-05
0.000193751
-2.3826e-05
0.000203979
-2.04554e-05
0.000212293
-1.66067e-05
0.000218586
-1.25824e-05
0.000222732
-8.29429e-06
0.000224702
-3.93242e-06
0.000224398
5.94881e-07
0.000221865
5.06167e-06
0.000217034
9.65688e-06
0.000210082
1.38922e-05
0.000201059
1.80346e-05
0.000190116
2.18768e-05
0.000177489
2.52363e-05
0.000163303
2.83592e-05
0.000147941
3.07164e-05
0.000131515
3.2833e-05
0.000114321
3.43669e-05
9.66101e-05
3.54145e-05
7.85426e-05
3.61179e-05
6.04407e-05
3.61889e-05
4.24917e-05
3.58933e-05
2.48178e-05
3.53411e-05
7.70908e-06
3.41966e-05
-8.73818e-06
3.28893e-05
-2.44261e-05
3.13825e-05
-3.91848e-05
2.95103e-05
-5.30194e-05
2.76702e-05
-6.58972e-05
2.57527e-05
-7.76592e-05
2.35119e-05
-8.84529e-05
2.16057e-05
-9.81808e-05
1.94517e-05
-0.000106907
1.74551e-05
-0.000114712
1.56034e-05
-0.000121574
1.37264e-05
-0.000127473
1.18085e-05
-0.000132584
1.02192e-05
-0.000136808
8.45096e-06
-0.000140247
6.87986e-06
-0.000143015
5.53808e-06
-0.000145037
4.04265e-06
-0.000146307
2.54037e-06
-0.000146981
1.32834e-06
-0.000147169
4.02023e-07
-0.000146686
-9.92227e-07
-0.000145631
-2.07576e-06
-0.00014392
-3.42245e-06
-0.000141734
-4.36949e-06
-0.000138913
-5.64301e-06
-0.000135564
-6.68545e-06
-0.000131618
-7.8977e-06
-0.000127092
-9.04935e-06
-0.000121924
-1.03364e-05
-0.00011611
-1.16236e-05
-0.000109604
-1.30184e-05
-0.000102405
-1.43963e-05
-9.44901e-05
-1.58291e-05
-8.57399e-05
-1.75047e-05
-7.61885e-05
-1.91011e-05
-6.57473e-05
-2.08899e-05
-5.45929e-05
-2.22757e-05
-4.25909e-05
-2.40232e-05
-2.97421e-05
-2.56975e-05
-1.60352e-05
-2.74102e-05
-1.62049e-06
-2.88282e-05
1.35991e-05
-3.0418e-05
2.9484e-05
-3.17858e-05
4.58148e-05
-3.26587e-05
6.25718e-05
-3.34972e-05
7.96345e-05
-3.41121e-05
9.68712e-05
-3.44697e-05
0.000114021
-3.42977e-05
0.000130768
-3.34692e-05
0.000147165
-3.27876e-05
0.000162791
-3.12439e-05
0.000177331
-2.90558e-05
0.00019069
-2.6711e-05
0.000202491
-2.35941e-05
0.000212484
-1.99641e-05
0.000220525
-1.60769e-05
0.000226337
-1.16084e-05
0.000229909
-7.14533e-06
0.00023097
-2.11387e-06
0.000229607
2.71951e-06
0.0002256
8.01344e-06
0.000219342
1.25194e-05
0.000210632
1.74116e-05
0.00019995
2.13558e-05
0.000187231
2.54243e-05
0.000172984
2.84837e-05
0.000157228
3.14977e-05
0.000140501
3.34371e-05
0.000122894
3.52072e-05
0.000104872
3.6022e-05
8.64485e-05
3.68395e-05
6.81612e-05
3.65648e-05
4.99909e-05
3.63281e-05
3.21454e-05
3.5684e-05
1.49959e-05
3.42927e-05
-1.59572e-06
3.31762e-05
-1.74254e-05
3.1654e-05
-3.2423e-05
2.99892e-05
-4.65297e-05
2.82089e-05
-5.96959e-05
2.63281e-05
-7.1923e-05
2.44508e-05
-8.31824e-05
2.25142e-05
-9.34781e-05
2.05906e-05
-0.000102837
1.87173e-05
-0.000111276
1.68766e-05
-0.000118814
1.50736e-05
-0.000125472
1.33162e-05
-0.000131278
1.1614e-05
-0.000136268
9.98039e-06
-0.000140458
8.37675e-06
-0.000143873
6.83164e-06
-0.000146541
5.33488e-06
-0.000148476
3.86671e-06
-0.000149717
2.48473e-06
-0.000150266
1.10434e-06
-0.00015009
-3.50911e-07
-0.000149192
-1.79421e-06
-0.000147602
-3.18143e-06
-0.00014532
-4.56221e-06
-0.000142372
-5.89237e-06
-0.000138752
-7.2443e-06
-0.000134474
-8.55506e-06
-0.000129534
-9.881e-06
-0.000123827
-1.14137e-05
-0.00011744
-1.2771e-05
-0.000110412
-1.40542e-05
-0.000102597
-1.56311e-05
-9.40069e-05
-1.71757e-05
-8.47767e-05
-1.84639e-05
-7.46623e-05
-2.02314e-05
-6.38402e-05
-2.16406e-05
-5.20862e-05
-2.3506e-05
-3.96436e-05
-2.48802e-05
-2.65608e-05
-2.61671e-05
-1.2535e-05
-2.8046e-05
2.21647e-06
-2.95062e-05
1.74848e-05
-3.05379e-05
3.34354e-05
-3.19004e-05
4.97528e-05
-3.26319e-05
6.65042e-05
-3.34977e-05
8.33587e-05
-3.37014e-05
0.000100063
-3.33989e-05
0.000116558
-3.29771e-05
0.000132564
-3.1994e-05
-3.096e-05
0.000105646
5.13835e-05
8.8176e-05
5.23734e-05
7.02048e-05
5.38741e-05
5.18993e-05
5.48712e-05
3.36099e-05
5.48324e-05
1.54016e-05
5.45905e-05
-2.42694e-06
5.34526e-05
-1.97978e-05
5.20842e-05
-3.64906e-05
5.00544e-05
-5.23684e-05
4.76119e-05
-6.74046e-05
4.50926e-05
-8.15055e-05
4.22919e-05
-9.46351e-05
3.93769e-05
-0.000106789
3.64516e-05
-0.000117943
3.34635e-05
-0.000128135
3.05757e-05
-0.00013736
2.76666e-05
-0.000145634
2.48211e-05
-0.000152984
2.20545e-05
-0.000159447
1.939e-05
-0.000165045
1.67909e-05
-0.000169812
1.42963e-05
-0.000173773
1.1885e-05
-0.000176934
9.48034e-06
-0.000179316
7.14901e-06
-0.000180966
4.93924e-06
-0.000181874
2.75301e-06
-0.000182061
6.03953e-07
-0.000181466
-1.79022e-06
-0.000180084
-4.12801e-06
-0.000178022
-6.19258e-06
-0.000175104
-8.77643e-06
-0.000171474
-1.08718e-05
-0.000166975
-1.35065e-05
-0.000161692
-1.58465e-05
-0.00015566
-1.81118e-05
-0.000148632
-2.10765e-05
-0.00014082
-2.34475e-05
-0.000132137
-2.60467e-05
-0.000122467
-2.90163e-05
-0.000111911
-3.16638e-05
-0.000100278
-3.49024e-05
-8.77905e-05
-3.7447e-05
-7.44103e-05
-4.01662e-05
-6.01053e-05
-4.28826e-05
-4.48541e-05
-4.57566e-05
-2.89088e-05
-4.78057e-05
-1.22117e-05
-5.00641e-05
5.18393e-06
-5.21677e-05
2.29434e-05
-5.32355e-05
4.10965e-05
-5.44316e-05
5.93899e-05
-5.48517e-05
7.76711e-05
-5.48085e-05
9.58782e-05
-5.45586e-05
0.000113456
-5.27102e-05
0.000130422
-5.08434e-05
0.000146511
-4.82271e-05
0.00016136
-4.45207e-05
0.000174943
-4.07153e-05
0.000186932
-3.59262e-05
0.000197277
-3.09882e-05
0.00020569
-2.52278e-05
0.000212066
-1.90959e-05
0.000216311
-1.272e-05
0.00021836
-6.10835e-06
0.00021792
1.30516e-06
0.000215288
7.8921e-06
0.000210289
1.50359e-05
0.000203232
2.11339e-05
0.000194048
2.75324e-05
0.000182908
3.33735e-05
0.000170033
3.86531e-05
0.000155528
4.33992e-05
0.000139686
4.74851e-05
0.000122876
5.03591e-05
0.0001051
5.32768e-05
8.6823e-05
5.47639e-05
6.81953e-05
5.587e-05
4.93099e-05
5.65677e-05
3.05534e-05
5.62256e-05
1.19915e-05
5.5649e-05
-6.07227e-06
5.41234e-05
-2.35268e-05
5.23147e-05
-4.03719e-05
5.04948e-05
-5.64023e-05
4.80929e-05
-7.14599e-05
4.51486e-05
-8.56301e-05
4.25086e-05
-9.87347e-05
3.93007e-05
-0.000110851
3.6354e-05
-0.000121891
3.30819e-05
-0.000131856
2.98931e-05
-0.000140716
2.65863e-05
-0.000148476
2.33051e-05
-0.000155197
2.01504e-05
-0.000160863
1.70235e-05
-0.000165579
1.41619e-05
-0.000169421
1.15085e-05
-0.000172348
8.78539e-06
-0.000174486
6.4354e-06
-0.000175902
4.20022e-06
-0.000176487
1.78131e-06
-0.000176413
-1.9957e-07
-0.000175689
-2.13888e-06
-0.000174207
-4.41046e-06
-0.0001722
-6.03303e-06
-0.000169555
-7.95376e-06
-0.000166233
-9.96408e-06
-0.000162306
-1.17804e-05
-0.000157734
-1.37264e-05
-0.000152444
-1.58692e-05
-0.000146513
-1.78017e-05
-0.000139789
-2.01723e-05
-0.000132362
-2.22714e-05
-0.000124167
-2.45897e-05
-0.0001152
-2.69556e-05
-0.00010552
-2.89823e-05
-9.50292e-05
-3.14931e-05
-8.37747e-05
-3.37451e-05
-7.17067e-05
-3.61899e-05
-5.88589e-05
-3.85317e-05
-4.52918e-05
-4.06953e-05
-3.09344e-05
-4.30658e-05
-1.5863e-05
-4.52007e-05
-1.53704e-07
-4.71034e-05
1.61609e-05
-4.89176e-05
3.29812e-05
-5.04342e-05
5.01893e-05
-5.15564e-05
6.75732e-05
-5.21329e-05
8.50247e-05
-5.23142e-05
0.00010233
-5.1868e-05
0.000119216
-5.06155e-05
0.000135503
-4.88129e-05
0.000150892
-4.61008e-05
0.000165127
-4.26484e-05
0.000177946
-3.84157e-05
0.000189045
-3.32413e-05
0.000198236
-2.75173e-05
0.000205271
-2.10983e-05
0.00021001
-1.41939e-05
0.000212358
-6.9469e-06
0.000212181
4.32239e-07
0.000209548
7.83457e-06
0.000204487
1.51892e-05
0.000197062
2.22218e-05
0.000187524
2.85071e-05
0.000176031
3.44983e-05
0.000162791
3.96679e-05
0.000148
4.42878e-05
0.000131939
4.81573e-05
0.000114854
5.11997e-05
9.7002e-05
5.34994e-05
7.87248e-05
5.47586e-05
6.02267e-05
5.54561e-05
4.18651e-05
5.50357e-05
2.38041e-05
5.41307e-05
6.27527e-06
5.255e-05
-1.0551e-05
5.04595e-05
-2.65856e-05
4.8052e-05
-4.16166e-05
4.50836e-05
-5.56368e-05
4.20768e-05
-6.86127e-05
3.89224e-05
-8.04921e-05
3.56589e-05
-9.14115e-05
3.2773e-05
-0.000101286
2.96202e-05
-0.000110264
2.69499e-05
-0.00011833
2.41948e-05
-0.000125588
2.17781e-05
-0.000132089
1.95024e-05
-0.000137827
1.71999e-05
-0.000142862
1.51317e-05
-0.000147189
1.30297e-05
-0.000150926
1.12068e-05
-0.000154033
9.29572e-06
-0.000156474
7.27874e-06
-0.000158205
5.19142e-06
-0.00015926
3.18307e-06
-0.000159694
1.31386e-06
-0.000159621
-2.23577e-07
-0.000158801
-2.41443e-06
-0.000157419
-4.15939e-06
-0.000155418
-6.01663e-06
-0.000152723
-8.08359e-06
-0.000149389
-1.00658e-05
-0.00014531
-1.2197e-05
-0.000140504
-1.44066e-05
-0.000134929
-1.67446e-05
-0.000128511
-1.9248e-05
-0.000121273
-2.17233e-05
-0.000113141
-2.43863e-05
-0.000104104
-2.7178e-05
-9.41852e-05
-2.97068e-05
-8.32901e-05
-3.27588e-05
-7.15162e-05
-3.52219e-05
-5.88229e-05
-3.80821e-05
-4.52127e-05
-4.08115e-05
-3.0844e-05
-4.30868e-05
-1.56313e-05
-4.56185e-05
3.17422e-07
-4.78174e-05
1.68713e-05
-4.96313e-05
3.39692e-05
-5.12706e-05
5.14419e-05
-5.23775e-05
6.90903e-05
-5.29056e-05
8.67928e-05
-5.30717e-05
0.00010434
-5.2585e-05
0.000121495
-5.14071e-05
0.000138065
-4.96744e-05
0.000153815
-4.72077e-05
0.000168516
-4.40585e-05
0.000181942
-4.02137e-05
0.000193869
-3.57536e-05
0.000204106
-3.06921e-05
0.000212432
-2.49332e-05
0.000218735
-1.88856e-05
0.00022289
-1.2449e-05
0.000224851
-5.89399e-06
0.00022454
9.06025e-07
0.000221998
7.60342e-06
0.000217164
1.44912e-05
0.000210213
2.08433e-05
0.000201187
2.70597e-05
0.000190212
3.28522e-05
0.000177566
3.78819e-05
0.000163361
4.25648e-05
0.00014798
4.60973e-05
0.000131551
4.92621e-05
0.000114321
5.15961e-05
9.65872e-05
5.31486e-05
7.85128e-05
5.41923e-05
6.03892e-05
5.43124e-05
4.24142e-05
5.38683e-05
2.47335e-05
5.30218e-05
7.6125e-06
5.13176e-05
-8.84924e-06
4.9351e-05
-2.45305e-05
4.70637e-05
-3.92841e-05
4.42639e-05
-5.3118e-05
4.15041e-05
-6.60068e-05
3.86415e-05
-7.77644e-05
3.52695e-05
-8.85451e-05
3.23863e-05
-9.82971e-05
2.92036e-05
-0.000107015
2.61729e-05
-0.000114814
2.34029e-05
-0.000121694
2.06058e-05
-0.000127599
1.77135e-05
-0.000132682
1.53025e-05
-0.000136895
1.26637e-05
-0.000140339
1.03239e-05
-0.000143117
8.31643e-06
-0.000145141
6.06653e-06
-0.000146416
3.81554e-06
-0.000147105
2.01655e-06
-0.000147264
5.61205e-07
-0.000146807
-1.44939e-06
-0.000145714
-3.16794e-06
-0.000144013
-5.12375e-06
-0.000141824
-6.55902e-06
-0.000139008
-8.45833e-06
-0.000135654
-1.00398e-05
-0.00013171
-1.18421e-05
-0.000127193
-1.35663e-05
-0.000122021
-1.55079e-05
-0.000116196
-1.74487e-05
-0.000109706
-1.95082e-05
-0.000102511
-2.15912e-05
-9.45948e-05
-2.37458e-05
-8.58456e-05
-2.6254e-05
-7.63007e-05
-2.8646e-05
-6.59003e-05
-3.12903e-05
-5.46951e-05
-3.34811e-05
-4.26885e-05
-3.60298e-05
-2.98418e-05
-3.85443e-05
-1.61281e-05
-4.1124e-05
-1.70896e-06
-4.32473e-05
1.35492e-05
-4.56763e-05
2.94116e-05
-4.76483e-05
4.57534e-05
-4.90005e-05
6.25212e-05
-5.02651e-05
7.96039e-05
-5.11949e-05
9.68616e-05
-5.17275e-05
0.000114012
-5.1448e-05
0.000130784
-5.0241e-05
0.000147215
-4.92188e-05
0.000162851
-4.68804e-05
0.000177404
-4.36087e-05
0.00019079
-4.00974e-05
0.000202599
-3.5403e-05
0.000212612
-2.99768e-05
0.000220661
-2.41261e-05
0.000226498
-1.74463e-05
0.000230066
-1.0713e-05
0.000231151
-3.19901e-06
0.00022978
4.09055e-06
0.000225776
1.20171e-05
0.000219523
1.87729e-05
0.000210798
2.61359e-05
0.000200103
3.20506e-05
0.000187359
3.81684e-05
0.000173085
4.27575e-05
0.000157321
4.72617e-05
0.000140553
5.02055e-05
0.000122952
5.28077e-05
0.000104879
5.40949e-05
8.645e-05
5.52688e-05
6.81457e-05
5.4869e-05
4.99528e-05
5.45211e-05
3.2106e-05
5.35308e-05
1.49446e-05
5.14541e-05
-1.65739e-06
4.97782e-05
-1.74942e-05
4.74909e-05
-3.24985e-05
4.49935e-05
-4.66084e-05
4.23189e-05
-5.97765e-05
3.94962e-05
-7.20066e-05
3.6681e-05
-8.32696e-05
3.37772e-05
-9.35621e-05
3.08831e-05
-0.000102919
2.80739e-05
-0.000111357
2.53148e-05
-0.000118894
2.26108e-05
-0.000125554
1.99766e-05
-0.000131358
1.74172e-05
-0.000136348
1.49704e-05
-0.000140534
1.25634e-05
-0.000143956
1.02534e-05
-0.000146615
7.99412e-06
-0.000148548
5.79901e-06
-0.00014979
3.72734e-06
-0.000150335
1.64959e-06
-0.000150148
-5.3853e-07
-0.000149244
-2.69793e-06
-0.000147655
-4.77097e-06
-0.00014537
-6.84693e-06
-0.000142424
-8.83854e-06
-0.000138802
-1.08657e-05
-0.000134525
-1.28329e-05
-0.000129592
-1.48137e-05
-0.000123875
-1.71311e-05
-0.000117491
-1.91546e-05
-0.000110456
-2.10895e-05
-0.000102638
-2.34491e-05
-9.40526e-05
-2.5761e-05
-8.48235e-05
-2.76932e-05
-7.47071e-05
-3.03479e-05
-6.39031e-05
-3.24447e-05
-5.21392e-05
-3.527e-05
-3.9698e-05
-3.73216e-05
-2.66216e-05
-3.92436e-05
-1.25875e-05
-4.20803e-05
2.16905e-06
-4.42629e-05
1.74395e-05
-4.58084e-05
3.33944e-05
-4.78555e-05
4.97187e-05
-4.89564e-05
6.64802e-05
-5.02593e-05
8.3347e-05
-5.05684e-05
0.000100067
-5.01194e-05
0.000116584
-4.9494e-05
0.000132616
-4.80258e-05
-4.64718e-05
0.000105712
6.855e-05
8.82183e-05
6.98667e-05
7.02234e-05
7.18691e-05
5.18911e-05
7.32035e-05
3.35802e-05
7.31433e-05
1.53519e-05
7.28188e-05
-2.49752e-06
7.1302e-05
-1.98861e-05
6.94728e-05
-3.65935e-05
6.67618e-05
-5.2483e-05
6.35014e-05
-6.75291e-05
6.01387e-05
-8.16377e-05
5.64006e-05
-9.47706e-05
5.25098e-05
-0.000106927
4.86077e-05
-0.000118084
4.46211e-05
-0.000128279
4.07703e-05
-0.000137507
3.68949e-05
-0.000145776
3.30904e-05
-0.000153129
2.94076e-05
-0.000159592
2.58524e-05
-0.000165189
2.23885e-05
-0.000169957
1.9064e-05
-0.000173916
1.58442e-05
-0.000177082
1.26465e-05
-0.000179466
9.53271e-06
-0.000181117
6.59026e-06
-0.000182009
3.64458e-06
-0.000182164
7.59524e-07
-0.00018156
-2.39469e-06
-0.00018017
-5.51759e-06
-0.000178112
-8.25052e-06
-0.000175213
-1.16756e-05
-0.000171567
-1.45182e-05
-0.000167073
-1.80001e-05
-0.000161789
-2.11307e-05
-0.000155767
-2.4134e-05
-0.000148734
-2.81091e-05
-0.000140932
-3.12503e-05
-0.000132245
-3.47336e-05
-0.000122581
-3.86799e-05
-0.000112022
-4.22233e-05
-0.000100392
-4.65323e-05
-8.78978e-05
-4.99415e-05
-7.45336e-05
-5.35305e-05
-6.0207e-05
-5.72093e-05
-4.49588e-05
-6.10049e-05
-2.89949e-05
-6.37697e-05
-1.22836e-05
-6.67755e-05
5.12427e-06
-6.95757e-05
2.28999e-05
-7.10113e-05
4.10748e-05
-7.26068e-05
5.93804e-05
-7.31573e-05
7.76845e-05
-7.31128e-05
9.5924e-05
-7.27982e-05
0.000113513
-7.02995e-05
0.00013051
-6.78405e-05
0.000146619
-6.43364e-05
0.000161484
-5.93857e-05
0.000175092
-5.43237e-05
0.000187097
-4.79313e-05
0.000197453
-4.13445e-05
0.00020589
-3.36649e-05
0.00021229
-2.54959e-05
0.00021653
-1.696e-05
0.00021859
-8.16852e-06
0.000218158
1.73727e-06
0.00021553
1.05196e-05
0.000210558
2.00082e-05
0.000203471
2.82206e-05
0.000194273
3.67305e-05
0.000183111
4.45356e-05
0.000170223
5.15404e-05
0.000155681
5.79409e-05
0.000139821
6.3345e-05
0.000122963
6.72177e-05
0.000105164
7.1075e-05
8.68523e-05
7.3076e-05
6.81863e-05
7.45359e-05
4.92784e-05
7.54756e-05
3.04962e-05
7.50078e-05
1.19169e-05
7.42282e-05
-6.17398e-06
7.22143e-05
-2.36579e-05
6.97986e-05
-4.05243e-05
6.73612e-05
-5.65547e-05
6.41233e-05
-7.16253e-05
6.02192e-05
-8.58039e-05
5.66871e-05
-9.89125e-05
5.24093e-05
-0.000111016
4.84577e-05
-0.000122074
4.41395e-05
-0.000132048
3.98674e-05
-0.000140918
3.54556e-05
-0.00014865
3.10371e-05
-0.000155371
2.68723e-05
-0.000161044
2.26957e-05
-0.000165756
1.88737e-05
-0.000169573
1.53255e-05
-0.000172487
1.16997e-05
-0.000174639
8.58733e-06
-0.000176079
5.64035e-06
-0.000176638
2.33996e-06
-0.000176549
-2.88575e-07
-0.000175818