/*--------------------------------*- C++ -*----------------------------------*\
| =========                 |                                                 |
| \\      /  F ield         | OpenFOAM: The Open Source CFD Toolbox           |
|  \\    /   O peration     | Version:  3.0.1                                 |
|   \\  /    A nd           | Web:      www.OpenFOAM.org                      |
|    \\/     M anipulation  |                                                 |
\*---------------------------------------------------------------------------*/
FoamFile
{
    version     2.0;
    format      ascii;
    class       volVectorField;
    location    "26";
    object      U;
}
// * * * * * * * * * * * * * * * * * * * * * * * * * * * * * * * * * * * * * //

dimensions      [0 1 -1 0 0 0 0];

internalField   nonuniform List<vector> 
22680
(
(-0.0628367 0.000908258 0)
(-0.069621 0.000818011 0)
(-0.0761602 0.000730569 0)
(-0.0819318 0.000636868 0)
(-0.0869281 0.000546274 0)
(-0.091157 0.000455699 0)
(-0.0946408 0.000369809 0)
(-0.097416 0.000288252 0)
(-0.0995273 0.000212742 0)
(-0.101027 0.000143205 0)
(-0.101965 7.97983e-05 0)
(-0.10239 2.25834e-05 0)
(-0.102356 -2.98999e-05 0)
(-0.101896 -7.81496e-05 0)
(-0.101045 -0.00012303 0)
(-0.0998248 -0.000165598 0)
(-0.0982496 -0.000207279 0)
(-0.0963244 -0.000248611 0)
(-0.0940449 -0.000291472 0)
(-0.0913976 -0.000335777 0)
(-0.0883609 -0.000383937 0)
(-0.0849066 -0.000434723 0)
(-0.0810009 -0.000491003 0)
(-0.0766083 -0.000550008 0)
(-0.0716942 -0.000614582 0)
(-0.0662305 -0.000679836 0)
(-0.0601977 -0.000750088 0)
(-0.053592 -0.000815043 0)
(-0.0464239 -0.000885278 0)
(-0.0387231 -0.000941723 0)
(-0.0305335 -0.00100361 0)
(-0.0219204 -0.00104598 0)
(-0.0130077 -0.00109348 0)
(-0.00375441 -0.00111805 0)
(0.00588049 -0.0011357 0)
(0.0156686 -0.00115788 0)
(0.0254813 -0.00115482 0)
(0.0352807 -0.00115796 0)
(0.0449958 -0.00113701 0)
(0.0545503 -0.00112088 0)
(0.0638706 -0.00108302 0)
(0.0728829 -0.00104832 0)
(0.0815173 -0.000994701 0)
(0.0897057 -0.000942757 0)
(0.0973849 -0.000875302 0)
(0.104497 -0.000808448 0)
(0.110993 -0.000730679 0)
(0.116832 -0.000653006 0)
(0.121988 -0.000570087 0)
(0.126444 -0.000487785 0)
(0.130197 -0.000405033 0)
(0.133252 -0.000323965 0)
(0.135622 -0.000245122 0)
(0.137319 -0.000168893 0)
(0.138358 -9.53187e-05 0)
(0.138743 -2.49552e-05 0)
(0.138532 4.21609e-05 0)
(0.137748 0.000109918 0)
(0.136432 0.000174675 0)
(0.134593 0.000240646 0)
(0.13224 0.000304007 0)
(0.129372 0.000370992 0)
(0.125985 0.000434255 0)
(0.122057 0.000502833 0)
(0.117574 0.000565137 0)
(0.112536 0.000633025 0)
(0.106959 0.000691669 0)
(0.100866 0.000755157 0)
(0.0942854 0.000806008 0)
(0.087266 0.00085978 0)
(0.0798276 0.000908074 0)
(0.0720485 0.000940022 0)
(0.0639971 0.000972571 0)
(0.0557334 0.000989716 0)
(0.0473203 0.00100618 0)
(0.0388214 0.00100959 0)
(0.0302965 0.0010122 0)
(0.0217948 0.00100146 0)
(0.0133745 0.000991339 0)
(0.00505509 0.000968087 0)
(-0.00303224 0.000947076 0)
(-0.010849 0.000913933 0)
(-0.0184304 0.000879086 0)
(-0.0256881 0.000836217 0)
(-0.032577 0.000791015 0)
(-0.0390588 0.00073865 0)
(-0.0451018 0.000685236 0)
(-0.0506658 0.000625037 0)
(-0.0557067 0.000563964 0)
(-0.0602679 0.000500062 0)
(-0.064266 0.000432856 0)
(-0.0676673 0.000366586 0)
(-0.0705225 0.000298431 0)
(-0.0728234 0.000233617 0)
(-0.0745456 0.000166924 0)
(-0.0757377 0.000107812 0)
(-0.0764062 4.89243e-05 0)
(-0.0765866 -1.98395e-06 0)
(-0.0763418 -5.3018e-05 0)
(-0.0756845 -9.44799e-05 0)
(-0.0746389 -0.000135349 0)
(-0.0732928 -0.000171581 0)
(-0.0716589 -0.000203492 0)
(-0.0697459 -0.000233227 0)
(-0.0675795 -0.000261902 0)
(-0.0651952 -0.000288723 0)
(-0.0625905 -0.000316739 0)
(-0.0597332 -0.000343239 0)
(-0.0567269 -0.000364402 0)
(-0.053452 -0.00039379 0)
(-0.0500193 -0.000412868 0)
(-0.0463685 -0.000447052 0)
(-0.0424894 -0.000464388 0)
(-0.0384143 -0.000500303 0)
(-0.0341018 -0.000520298 0)
(-0.0295442 -0.000554586 0)
(-0.0247642 -0.000576884 0)
(-0.0197341 -0.000614488 0)
(-0.0144721 -0.000633078 0)
(-0.00895903 -0.000672069 0)
(-0.00320138 -0.000689093 0)
(0.00277983 -0.000728287 0)
(0.00907911 -0.000752683 0)
(0.0155554 -0.000777647 0)
(0.0221964 -0.000798945 0)
(0.0290551 -0.000826016 0)
(0.0361464 -0.000845056 0)
(0.0433086 -0.000853508 0)
(0.0505319 -0.000857386 0)
(0.0577572 -0.00085427 0)
(0.0649536 -0.000850103 0)
(0.0720702 -0.000834733 0)
(0.079042 -0.000815966 0)
(0.0858072 -0.000787069 0)
(0.0922925 -0.000752308 0)
(0.0984497 -0.000704654 0)
(0.104189 -0.000654299 0)
(0.10945 -0.000591971 0)
(0.114167 -0.00052555 0)
(0.118281 -0.000450771 0)
(0.121738 -0.000367657 0)
(0.124491 -0.00028187 0)
(0.126492 -0.000191558 0)
(0.127715 -9.75761e-05 0)
(0.128138 -3.52745e-06 0)
(0.127765 9.20481e-05 0)
(0.126547 0.000189775 0)
(0.124546 0.00028431 0)
(0.121785 0.000371564 0)
(0.118288 0.00045703 0)
(0.114095 0.000535582 0)
(0.109253 0.000608281 0)
(0.103813 0.000675948 0)
(0.0978705 0.000732069 0)
(0.0914815 0.000781153 0)
(0.0847098 0.000821311 0)
(0.0776337 0.000853181 0)
(0.0703301 0.000875962 0)
(0.0628696 0.000892398 0)
(0.05531 0.000899294 0)
(0.0477179 0.00089831 0)
(0.0401544 0.000891717 0)
(0.0326758 0.000883184 0)
(0.0253156 0.000862883 0)
(0.0180991 0.000844531 0)
(0.0110954 0.00081761 0)
(0.00430633 0.000790408 0)
(-0.00225641 0.000762483 0)
(-0.00855001 0.000732945 0)
(-0.0146223 0.000704972 0)
(-0.0204425 0.000673512 0)
(-0.0260271 0.000647274 0)
(-0.0313608 0.000614115 0)
(-0.0364234 0.000587416 0)
(-0.0412481 0.000557515 0)
(-0.0458625 0.000531594 0)
(-0.0501763 0.000492725 0)
(-0.0542698 0.000469057 0)
(-0.0580549 0.000430305 0)
(-0.0615623 0.000409732 0)
(-0.0649146 0.000384451 0)
(-0.0681213 0.000365703 0)
(-0.0710778 0.000332517 0)
(-0.0737047 0.000299763 0)
(-0.0761219 0.000266555 0)
(-0.0781632 0.000220435 0)
(-0.0799234 0.000188793 0)
(-0.0812992 0.000140305 0)
(-0.0823024 0.000102873 0)
(-0.0829459 5.01644e-05 0)
(-0.0831771 7.21299e-06 0)
(-0.0830222 -4.49827e-05 0)
(-0.0824193 -9.59871e-05 0)
(-0.0813883 -0.000148918 0)
(-0.0798939 -0.000205858 0)
(-0.077914 -0.000263865 0)
(-0.0754516 -0.000320554 0)
(-0.0724839 -0.000382002 0)
(-0.0690268 -0.000438903 0)
(-0.0650637 -0.000499692 0)
(-0.0605841 -0.000555043 0)
(-0.0556967 -0.000603897 0)
(-0.0503586 -0.000657233 0)
(-0.0446469 -0.000696865 0)
(-0.0385434 -0.000748721 0)
(-0.0320748 -0.00078163 0)
(-0.025271 -0.000827716 0)
(-0.0181827 -0.000850775 0)
(-0.010848 -0.000884244 0)
(-0.0033266 -0.000895747 0)
(0.00435839 -0.000926522 0)
(0.0122247 -0.000932842 0)
(0.0201571 -0.00094377 0)
(0.0280579 -0.000933129 0)
(0.0359607 -0.000941675 0)
(0.043861 -0.000936884 0)
(0.0516656 -0.000913128 0)
(0.059361 -0.000884269 0)
(0.0666015 -0.000881816 0)
(0.0736687 -0.000929796 0)
(0.081212 -0.000681376 0)
(0.0871917 -0.000430306 0)
(0.0891233 0.000348144 0)
(0.0841809 0.00278495 0)
(0.0504368 0.00154236 0)
(-0.0628769 0.00272503 0)
(-0.0696626 0.00245422 0)
(-0.0762035 0.00219182 0)
(-0.0819752 0.00191062 0)
(-0.0869713 0.00163873 0)
(-0.0911988 0.00136691 0)
(-0.0946806 0.00110916 0)
(-0.0974532 0.000864439 0)
(-0.0995616 0.000637876 0)
(-0.101058 0.000429283 0)
(-0.101994 0.00023896 0)
(-0.102416 6.7554e-05 0)
(-0.10238 -8.99202e-05 0)
(-0.101918 -0.000234634 0)
(-0.101066 -0.000369211 0)
(-0.0998446 -0.000496854 0)
(-0.0982692 -0.000621835 0)
(-0.0963443 -0.000745768 0)
(-0.0940655 -0.000874292 0)
(-0.0914194 -0.00100716 0)
(-0.0883845 -0.0011516 0)
(-0.084932 -0.00130393 0)
(-0.0810284 -0.00147277 0)
(-0.0766377 -0.00164982 0)
(-0.0717252 -0.00184359 0)
(-0.0662625 -0.00203943 0)
(-0.0602303 -0.00225028 0)
(-0.0536237 -0.00244525 0)
(-0.0464544 -0.00265606 0)
(-0.0387509 -0.00282548 0)
(-0.0305586 -0.00301122 0)
(-0.0219417 -0.00313838 0)
(-0.0130251 -0.00328095 0)
(-0.00376805 -0.00335472 0)
(0.00587098 -0.00340757 0)
(0.0156639 -0.00347413 0)
(0.0254811 -0.00346495 0)
(0.0352849 -0.00347438 0)
(0.0450041 -0.00341153 0)
(0.0545631 -0.00336315 0)
(0.0638873 -0.00324956 0)
(0.0729038 -0.00314545 0)
(0.0815417 -0.00298454 0)
(0.089734 -0.00282868 0)
(0.0974162 -0.00262626 0)
(0.104532 -0.00242565 0)
(0.111029 -0.00219227 0)
(0.11687 -0.00195919 0)
(0.122026 -0.00171037 0)
(0.126483 -0.0014634 0)
(0.130235 -0.00121507 0)
(0.13329 -0.000971856 0)
(0.135659 -0.00073533 0)
(0.137355 -0.000506225 0)
(0.138393 -0.000285932 0)
(0.138777 -7.4753e-05 0)
(0.138563 0.000126383 0)
(0.137779 0.000329793 0)
(0.136464 0.000524009 0)
(0.134625 0.000721901 0)
(0.132272 0.000911978 0)
(0.129405 0.00111293 0)
(0.126018 0.00130274 0)
(0.122089 0.00150849 0)
(0.117606 0.00169546 0)
(0.112568 0.00189917 0)
(0.10699 0.00207516 0)
(0.100895 0.00226569 0)
(0.0943124 0.00241831 0)
(0.0872904 0.00257968 0)
(0.0798489 0.00272462 0)
(0.0720663 0.00282049 0)
(0.0640114 0.00291815 0)
(0.0557441 0.00296974 0)
(0.0473275 0.003019 0)
(0.0388254 0.00302934 0)
(0.0302967 0.0030369 0)
(0.0217919 0.00300499 0)
(0.0133682 0.0029746 0)
(0.00504561 0.00290437 0)
(-0.0030449 0.00284194 0)
(-0.0108651 0.00274241 0)
(-0.01845 0.00263769 0)
(-0.0257107 0.00250908 0)
(-0.0326027 0.00237352 0)
(-0.0390868 0.00221684 0)
(-0.0451329 0.00205558 0)
(-0.0506989 0.00187536 0)
(-0.0557421 0.00169185 0)
(-0.0603042 0.0015005 0)
(-0.0643035 0.00129843 0)
(-0.0677054 0.00109966 0)
(-0.0705607 0.000894591 0)
(-0.0728609 0.000700742 0)
(-0.0745818 0.000501084 0)
(-0.0757731 0.000323317 0)
(-0.076439 0.000146326 0)
(-0.0766166 -6.19894e-06 0)
(-0.0763709 -0.0001596 0)
(-0.0757096 -0.000284477 0)
(-0.074663 -0.000406375 0)
(-0.0733137 -0.000514136 0)
(-0.071679 -0.000610302 0)
(-0.069765 -0.000699084 0)
(-0.0675953 -0.000785883 0)
(-0.0652083 -0.000867825 0)
(-0.062602 -0.000949837 0)
(-0.0597451 -0.00103173 0)
(-0.0567437 -0.00109665 0)
(-0.0534645 -0.00117922 0)
(-0.0500358 -0.00123995 0)
(-0.0463815 -0.00134098 0)
(-0.0425007 -0.00139336 0)
(-0.0384236 -0.00150052 0)
(-0.0341087 -0.00156097 0)
(-0.0295508 -0.00166569 0)
(-0.0247664 -0.00172811 0)
(-0.0197348 -0.00184317 0)
(-0.0144718 -0.00189774 0)
(-0.00895892 -0.0020201 0)
(-0.00319978 -0.00206638 0)
(0.00277784 -0.00218578 0)
(0.00907839 -0.00226267 0)
(0.0155576 -0.00233772 0)
(0.0221971 -0.00239708 0)
(0.0290597 -0.00247867 0)
(0.0361592 -0.00253317 0)
(0.0433245 -0.00256202 0)
(0.0505503 -0.00257171 0)
(0.0577766 -0.00256199 0)
(0.0649753 -0.00255096 0)
(0.0720948 -0.00250606 0)
(0.0790703 -0.00244795 0)
(0.0858401 -0.00236106 0)
(0.0923297 -0.00225456 0)
(0.0984893 -0.00211495 0)
(0.10423 -0.00196331 0)
(0.109496 -0.00177511 0)
(0.114215 -0.00157487 0)
(0.118331 -0.00135113 0)
(0.121789 -0.0011049 0)
(0.124542 -0.000845928 0)
(0.126544 -0.000574183 0)
(0.127768 -0.000293895 0)
(0.128191 -1.0594e-05 0)
(0.127813 0.000274579 0)
(0.126597 0.00057023 0)
(0.124595 0.000853179 0)
(0.121829 0.0011144 0)
(0.118328 0.00137062 0)
(0.114131 0.00160901 0)
(0.109286 0.00182646 0)
(0.103842 0.00202897 0)
(0.097895 0.00219786 0)
(0.0915029 0.0023462 0)
(0.0847269 0.00246552 0)
(0.0776458 0.00256032 0)
(0.0703376 0.00262875 0)
(0.0628719 0.00267672 0)
(0.0553061 0.00269813 0)
(0.0477083 0.00269576 0)
(0.0401406 0.00267334 0)
(0.0326576 0.00264904 0)
(0.025293 0.0025884 0)
(0.0180729 0.00253162 0)
(0.0110683 0.00245245 0)
(0.00427789 0.00237289 0)
(-0.0022855 0.00228669 0)
(-0.00857915 0.00219939 0)
(-0.0146523 0.00211645 0)
(-0.0204733 0.00202032 0)
(-0.0260592 0.00194014 0)
(-0.0313907 0.00184514 0)
(-0.0364541 0.00176154 0)
(-0.0412805 0.00167099 0)
(-0.0458989 0.00159551 0)
(-0.0502148 0.00147734 0)
(-0.0543085 0.00140781 0)
(-0.0580932 0.00129188 0)
(-0.0615974 0.00123034 0)
(-0.0649504 0.0011505 0)
(-0.0681613 0.00110086 0)
(-0.0711228 0.0009954 0)
(-0.0737468 0.000895651 0)
(-0.0761642 0.000800492 0)
(-0.0782034 0.000662754 0)
(-0.0799648 0.000565752 0)
(-0.0813422 0.000418157 0)
(-0.0823474 0.000307668 0)
(-0.0829924 0.000149392 0)
(-0.0832222 2.31789e-05 0)
(-0.0830696 -0.000135718 0)
(-0.0824632 -0.000286645 0)
(-0.0814289 -0.000447231 0)
(-0.0799285 -0.000614905 0)
(-0.0779434 -0.000788961 0)
(-0.0754804 -0.00095935 0)
(-0.0725133 -0.00114598 0)
(-0.0690581 -0.0013135 0)
(-0.0650937 -0.00149859 0)
(-0.0606098 -0.00166746 0)
(-0.0557206 -0.00181126 0)
(-0.0503803 -0.0019749 0)
(-0.0446675 -0.00209117 0)
(-0.0385632 -0.00224841 0)
(-0.0320925 -0.00234769 0)
(-0.0252855 -0.00248521 0)
(-0.0181911 -0.00255402 0)
(-0.0108506 -0.00265363 0)
(-0.003328 -0.00268719 0)
(0.00436165 -0.0027805 0)
(0.0122354 -0.00279846 0)
(0.0201713 -0.00283545 0)
(0.0280713 -0.00280195 0)
(0.0359858 -0.0028273 0)
(0.0439022 -0.00279435 0)
(0.0516137 -0.00277445 0)
(0.0594592 -0.00269026 0)
(0.0669122 -0.00252242 0)
(0.0736758 -0.00256579 0)
(0.0804984 -0.00255972 0)
(0.0871979 -0.00140472 0)
(0.090879 0.000711491 0)
(0.0892127 0.00569108 0)
(0.0633899 0.00664516 0)
(-0.0629572 0.00454258 0)
(-0.0697461 0.00409103 0)
(-0.0762901 0.0036534 0)
(-0.0820623 0.00318438 0)
(-0.0870578 0.00273089 0)
(-0.0912823 0.00227753 0)
(-0.0947602 0.0018477 0)
(-0.0975276 0.00143965 0)
(-0.0996304 0.00106195 0)
(-0.10112 0.000714357 0)
(-0.102051 0.000397374 0)
(-0.102469 0.000111356 0)
(-0.102427 -0.000150706 0)
(-0.101962 -0.000391682 0)
(-0.101107 -0.000615767 0)
(-0.0998843 -0.000828297 0)
(-0.0983084 -0.00103639 0)
(-0.0963839 -0.00124275 0)
(-0.0941067 -0.00145676 0)
(-0.0914629 -0.00167803 0)
(-0.0884313 -0.00191862 0)
(-0.0849825 -0.00217244 0)
(-0.0810831 -0.00245382 0)
(-0.0766962 -0.00274898 0)
(-0.0717872 -0.00307211 0)
(-0.0663264 -0.00339879 0)
(-0.0602952 -0.00375053 0)
(-0.053687 -0.00407584 0)
(-0.0465152 -0.00442755 0)
(-0.0388062 -0.00471022 0)
(-0.0306083 -0.00502007 0)
(-0.0219838 -0.00523211 0)
(-0.0130594 -0.00546987 0)
(-0.00379467 -0.00559284 0)
(0.00585264 -0.00568101 0)
(0.0156552 -0.00579196 0)
(0.0254813 -0.00577661 0)
(0.035294 -0.00579236 0)
(0.0450217 -0.00568755 0)
(0.0545895 -0.00560693 0)
(0.0639215 -0.00541754 0)
(0.0729465 -0.00524399 0)
(0.0815915 -0.00497571 0)
(0.0897916 -0.00471583 0)
(0.0974796 -0.00437828 0)
(0.104601 -0.00404371 0)
(0.111103 -0.00365452 0)
(0.116947 -0.00326579 0)
(0.122105 -0.00285085 0)
(0.126562 -0.00243903 0)
(0.130313 -0.00202499 0)
(0.133366 -0.00161954 0)
(0.135733 -0.00122546 0)
(0.137427 -0.000843793 0)
(0.138462 -0.000476666 0)
(0.138845 -0.000123998 0)
(0.138625 0.000211642 0)
(0.137841 0.00054993 0)
(0.136526 0.000873326 0)
(0.134687 0.0012031 0)
(0.132334 0.00151988 0)
(0.129468 0.00185483 0)
(0.126081 0.00217122 0)
(0.122153 0.00251419 0)
(0.117668 0.00282601 0)
(0.112629 0.00316569 0)
(0.107047 0.0034592 0)
(0.10095 0.00377697 0)
(0.0943619 0.00403155 0)
(0.0873344 0.00430069 0)
(0.0798864 0.00454239 0)
(0.0720967 0.00470222 0)
(0.0640345 0.00486505 0)
(0.0557598 0.00495071 0)
(0.0473363 0.00503338 0)
(0.038828 0.0050501 0)
(0.0302923 0.00506279 0)
(0.0217819 0.00500997 0)
(0.0133516 0.00495859 0)
(0.00502457 0.00484084 0)
(-0.0030711 0.00473895 0)
(-0.0108977 0.00457184 0)
(-0.0184875 0.00439724 0)
(-0.0257526 0.00418273 0)
(-0.032649 0.00395713 0)
(-0.0391368 0.0036958 0)
(-0.0451866 0.00342664 0)
(-0.0507551 0.00312669 0)
(-0.0558007 0.00282038 0)
(-0.0603656 0.00250048 0)
(-0.0643641 0.00216464 0)
(-0.067767 0.00183295 0)
(-0.0706215 0.00149012 0)
(-0.0729202 0.00116782 0)
(-0.0746384 0.000834288 0)
(-0.0758271 0.000538522 0)
(-0.0764879 0.000243471 0)
(-0.0766606 -1.11955e-05 0)
(-0.0764102 -0.000267098 0)
(-0.0757425 -0.000474438 0)
(-0.074694 -0.000678074 0)
(-0.0733401 -0.000858166 0)
(-0.0717048 -0.00101822 0)
(-0.0697898 -0.00116625 0)
(-0.0676143 -0.00131131 0)
(-0.0652225 -0.00144726 0)
(-0.0626139 -0.00158409 0)
(-0.0597575 -0.00171734 0)
(-0.0567654 -0.00182607 0)
(-0.0534874 -0.00196698 0)
(-0.0500675 -0.00206531 0)
(-0.0464097 -0.00223524 0)
(-0.0425301 -0.00232349 0)
(-0.0384497 -0.00250245 0)
(-0.0341326 -0.0025997 0)
(-0.0295745 -0.00277864 0)
(-0.024792 -0.00288123 0)
(-0.0197591 -0.00307423 0)
(-0.0144969 -0.00316345 0)
(-0.00898544 -0.00336512 0)
(-0.00322949 -0.00344769 0)
(0.00273252 -0.00364318 0)
(0.0090357 -0.00376691 0)
(0.0155186 -0.00389361 0)
(0.022163 -0.00399983 0)
(0.029032 -0.00413097 0)
(0.0361441 -0.00422412 0)
(0.0433155 -0.00427145 0)
(0.0505435 -0.00428938 0)
(0.0577709 -0.00427092 0)
(0.0649751 -0.00425219 0)
(0.0721035 -0.00417698 0)
(0.0790869 -0.00408291 0)
(0.0858647 -0.00393576 0)
(0.0923631 -0.00376241 0)
(0.0985312 -0.00352521 0)
(0.10428 -0.00327273 0)
(0.109552 -0.00296159 0)
(0.114277 -0.00262698 0)
(0.1184 -0.00225364 0)
(0.121862 -0.00184215 0)
(0.124619 -0.0014109 0)
(0.126624 -0.000958838 0)
(0.12785 -0.000490749 0)
(0.128273 -1.51821e-05 0)
(0.127892 0.00046146 0)
(0.126682 0.000949381 0)
(0.124681 0.00141989 0)
(0.12191 0.00185905 0)
(0.118401 0.0022865 0)
(0.114194 0.00268387 0)
(0.109343 0.00304465 0)
(0.103894 0.0033818 0)
(0.0979419 0.00366618 0)
(0.0915432 0.00391115 0)
(0.0847595 0.00410982 0)
(0.0776703 0.00426856 0)
(0.0703531 0.00438384 0)
(0.062878 0.00446252 0)
(0.0553002 0.00449895 0)
(0.0476922 0.00449312 0)
(0.0401207 0.00445955 0)
(0.0326277 0.00441538 0)
(0.0252564 0.00431501 0)
(0.0180329 0.0042218 0)
(0.0110251 0.00408724 0)
(0.0042342 0.00395287 0)
(-0.0023277 0.00381071 0)
(-0.00861888 0.00366839 0)
(-0.0146937 0.00352654 0)
(-0.0205128 0.00336683 0)
(-0.0260997 0.00323321 0)
(-0.0314295 0.00307501 0)
(-0.036487 0.00293676 0)
(-0.0413139 0.00278615 0)
(-0.0459398 0.00265897 0)
(-0.0502553 0.00246318 0)
(-0.0543513 0.00234673 0)
(-0.0581367 0.00214994 0)
(-0.0616334 0.00205021 0)
(-0.0649812 0.00192012 0)
(-0.0682078 0.00183679 0)
(-0.071175 0.00165659 0)
(-0.0737842 0.00149455 0)
(-0.0762107 0.00133239 0)
(-0.0782426 0.00110264 0)
(-0.0800082 0.000943216 0)
(-0.0813857 0.000698303 0)
(-0.0824003 0.000515783 0)
(-0.0830495 0.000248059 0)
(-0.0832788 3.7396e-05 0)
(-0.0831306 -0.00022616 0)
(-0.0825196 -0.000479662 0)
(-0.0814822 -0.000747665 0)
(-0.0799764 -0.00102842 0)
(-0.0779867 -0.00131724 0)
(-0.075523 -0.00159969 0)
(-0.0725596 -0.00190993 0)
(-0.0691158 -0.00219067 0)
(-0.0651563 -0.00249843 0)
(-0.0606627 -0.00278019 0)
(-0.0557753 -0.0030199 0)
(-0.0504301 -0.00329086 0)
(-0.0447213 -0.00348698 0)
(-0.0386164 -0.00374786 0)
(-0.0321472 -0.00391188 0)
(-0.025338 -0.00414369 0)
(-0.0182387 -0.00425563 0)
(-0.0108894 -0.00442623 0)
(-0.0033636 -0.00447982 0)
(0.0043277 -0.00463655 0)
(0.0122069 -0.0046646 0)
(0.0201516 -0.00472468 0)
(0.0280573 -0.00467107 0)
(0.0359837 -0.00471839 0)
(0.0439238 -0.00465074 0)
(0.0516739 -0.00460781 0)
(0.0594087 -0.00454212 0)
(0.0668474 -0.0042867 0)
(0.0741336 -0.00414072 0)
(0.0807975 -0.00393572 0)
(0.0865255 -0.00294285 0)
(0.0924645 0.000214324 0)
(0.093426 0.00844717 0)
(0.0790215 0.00862462 0)
(-0.0630778 0.00636147 0)
(-0.0698714 0.00572883 0)
(-0.0764201 0.00511553 0)
(-0.0821929 0.00445816 0)
(-0.0871876 0.00382252 0)
(-0.0914078 0.00318715 0)
(-0.0948798 0.00258485 0)
(-0.0976393 0.00201323 0)
(-0.0997335 0.00148426 0)
(-0.101214 0.000997759 0)
(-0.102136 0.000554507 0)
(-0.102548 0.00015331 0)
(-0.102498 -0.000212832 0)
(-0.102028 -0.000549668 0)
(-0.101169 -0.000862945 0)
(-0.0999437 -0.00116005 0)
(-0.0983671 -0.00145096 0)
(-0.0964432 -0.00173942 0)
(-0.0941684 -0.00203864 0)
(-0.0915282 -0.00234806 0)
(-0.0885016 -0.00268459 0)
(-0.0850583 -0.00303976 0)
(-0.0811653 -0.00343366 0)
(-0.0767839 -0.00384705 0)
(-0.0718802 -0.0042998 0)
(-0.0664224 -0.00475772 0)
(-0.0603927 -0.00525087 0)
(-0.053782 -0.00570707 0)
(-0.0466064 -0.00620025 0)
(-0.0388893 -0.00659659 0)
(-0.030683 -0.00703095 0)
(-0.0220469 -0.00732804 0)
(-0.0131108 -0.00766115 0)
(-0.00383464 -0.00783324 0)
(0.0058251 -0.00795717 0)
(0.0156422 -0.0081125 0)
(0.0254817 -0.00809086 0)
(0.0353078 -0.00811295 0)
(0.045048 -0.00796609 0)
(0.054629 -0.00785323 0)
(0.0639728 -0.00758795 0)
(0.0730105 -0.00734491 0)
(0.0816662 -0.00696909 0)
(0.0898779 -0.00660506 0)
(0.0975748 -0.00613207 0)
(0.104705 -0.00566325 0)
(0.111213 -0.00511783 0)
(0.117062 -0.00457307 0)
(0.122222 -0.00399162 0)
(0.12668 -0.00341465 0)
(0.13043 -0.00283468 0)
(0.133481 -0.00226688 0)
(0.135844 -0.00171526 0)
(0.137534 -0.0011812 0)
(0.138566 -0.000667695 0)
(0.138946 -0.000173352 0)
(0.138718 0.000299436 0)
(0.137936 0.000770363 0)
(0.13662 0.00122259 0)
(0.134781 0.00168419 0)
(0.132428 0.00212763 0)
(0.129562 0.00259661 0)
(0.126176 0.00303968 0)
(0.122247 0.00351994 0)
(0.117761 0.00395691 0)
(0.11272 0.00443285 0)
(0.107134 0.00484416 0)
(0.101032 0.00528952 0)
(0.0944363 0.00564636 0)
(0.0874004 0.00602355 0)
(0.0799426 0.00636223 0)
(0.0721423 0.0065861 0)
(0.064069 0.00681397 0)
(0.0557834 0.0069336 0)
(0.0473496 0.00705018 0)
(0.0388317 0.00707269 0)
(0.0302858 0.00708948 0)
(0.0217668 0.00701825 0)
(0.0133265 0.00694419 0)
(0.00499322 0.00677762 0)
(-0.0031103 0.00663874 0)
(-0.0109468 0.00640275 0)
(-0.0185438 0.00615807 0)
(-0.0258155 0.00585771 0)
(-0.0327185 0.00554172 0)
(-0.0392114 0.0051762 0)
(-0.0452669 0.00479864 0)
(-0.0508411 0.00437846 0)
(-0.0558875 0.00394983 0)
(-0.0604567 0.00350142 0)
(-0.0644576 0.00303015 0)
(-0.0678592 0.00256585 0)
(-0.0707115 0.00208545 0)
(-0.0730101 0.00163356 0)
(-0.0747222 0.00116699 0)
(-0.0759083 0.000753023 0)
(-0.0765612 0.000338009 0)
(-0.0767275 -1.70177e-05 0)
(-0.0764708 -0.000376134 0)
(-0.0757912 -0.0006663 0)
(-0.0747433 -0.000950064 0)
(-0.0733794 -0.00120287 0)
(-0.0717452 -0.00142671 0)
(-0.0698229 -0.00163346 0)
(-0.0676476 -0.00183742 0)
(-0.065251 -0.00202825 0)
(-0.0626374 -0.00221779 0)
(-0.0597759 -0.00240315 0)
(-0.0568058 -0.00255495 0)
(-0.0535148 -0.00275061 0)
(-0.0501168 -0.00289222 0)
(-0.0464453 -0.00312856 0)
(-0.0425756 -0.00325585 0)
(-0.0384842 -0.00350514 0)
(-0.0341747 -0.00364063 0)
(-0.0296103 -0.00389323 0)
(-0.0248355 -0.00403423 0)
(-0.0197958 -0.00430337 0)
(-0.0145444 -0.00443025 0)
(-0.00902363 -0.00470936 0)
(-0.00327047 -0.00482061 0)
(0.00266577 -0.00510195 0)
(0.00898098 -0.00527592 0)
(0.0154679 -0.00545071 0)
(0.0221296 -0.00559699 0)
(0.0289798 -0.00578958 0)
(0.0361237 -0.00591666 0)
(0.0432843 -0.00598058 0)
(0.0505291 -0.00600384 0)
(0.0577604 -0.00598342 0)
(0.0649796 -0.0059535 0)
(0.0721171 -0.00585317 0)
(0.0791112 -0.00571843 0)
(0.085904 -0.0055129 0)
(0.092412 -0.00527124 0)
(0.0985935 -0.0049396 0)
(0.104351 -0.00458464 0)
(0.109637 -0.00414954 0)
(0.11437 -0.0036806 0)
(0.118504 -0.00315611 0)
(0.121973 -0.00258293 0)
(0.124736 -0.00197732 0)
(0.126744 -0.0013439 0)
(0.127975 -0.000689781 0)
(0.1284 -1.82716e-05 0)
(0.128015 0.000651329 0)
(0.126812 0.0013302 0)
(0.124811 0.00198607 0)
(0.122034 0.00260667 0)
(0.118514 0.00320389 0)
(0.114291 0.00376069 0)
(0.109431 0.00426633 0)
(0.103975 0.00473451 0)
(0.0980107 0.00513647 0)
(0.0916031 0.00547757 0)
(0.0848074 0.00575678 0)
(0.0777047 0.00597672 0)
(0.0703746 0.00614379 0)
(0.0628868 0.00625205 0)
(0.0552946 0.00630215 0)
(0.0476721 0.00629376 0)
(0.0400902 0.00625051 0)
(0.0325898 0.00618251 0)
(0.0252113 0.00604467 0)
(0.0179749 0.00591164 0)
(0.0109679 0.00572337 0)
(0.0041773 0.00553248 0)
(-0.00238954 0.00533505 0)
(-0.00867091 0.00513917 0)
(-0.0147562 0.00493708 0)
(-0.0205618 0.00471417 0)
(-0.0261608 0.0045213 0)
(-0.0314852 0.00430961 0)
(-0.0365375 0.00410904 0)
(-0.0413666 0.00389964 0)
(-0.0459949 0.00372696 0)
(-0.0503083 0.0034486 0)
(-0.0544147 0.0032902 0)
(-0.0581945 0.00300528 0)
(-0.0616872 0.00286735 0)
(-0.0650151 0.00269026 0)
(-0.0682849 0.00257923 0)
(-0.0712548 0.00231641 0)
(-0.0738217 0.00209101 0)
(-0.0762888 0.00186788 0)
(-0.0782867 0.00154331 0)
(-0.0800801 0.00132533 0)
(-0.081445 0.000976533 0)
(-0.0824741 0.000724492 0)
(-0.0831313 0.0003478 0)
(-0.0833527 5.33147e-05 0)
(-0.0832241 -0.000317858 0)
(-0.0825924 -0.000671963 0)
(-0.0815672 -0.00104842 0)
(-0.080055 -0.00144069 0)
(-0.0780669 -0.00184659 0)
(-0.0756052 -0.00223891 0)
(-0.0726291 -0.00266909 0)
(-0.0692153 -0.00306456 0)
(-0.0652601 -0.00350075 0)
(-0.0607323 -0.0038929 0)
(-0.0558645 -0.00423063 0)
(-0.0505006 -0.00460531 0)
(-0.0448012 -0.00487841 0)
(-0.0386845 -0.00524602 0)
(-0.0322224 -0.00547621 0)
(-0.0254083 -0.0058028 0)
(-0.0183147 -0.00596305 0)
(-0.0109363 -0.00619724 0)
(-0.00340504 -0.00627 0)
(0.00429027 -0.00649283 0)
(0.0121686 -0.00653394 0)
(0.0201151 -0.00662008 0)
(0.0280416 -0.00654001 0)
(0.0359988 -0.00660999 0)
(0.0439336 -0.00652802 0)
(0.0516936 -0.00644878 0)
(0.0595035 -0.00633164 0)
(0.066802 -0.00602161 0)
(0.0740935 -0.00590373 0)
(0.0813744 -0.00547376 0)
(0.0866112 -0.00406683 0)
(0.0925909 -0.000844898 0)
(0.0970829 0.00862848 0)
(0.0907747 0.0103981 0)
(-0.0632388 0.00818224 0)
(-0.0700386 0.00736804 0)
(-0.0765937 0.00657843 0)
(-0.0823674 0.00573196 0)
(-0.0873609 0.00491341 0)
(-0.0915754 0.00409535 0)
(-0.0950394 0.00332004 0)
(-0.0977883 0.00258451 0)
(-0.099871 0.0019041 0)
(-0.10134 0.00127867 0)
(-0.10225 0.000709463 0)
(-0.102652 0.000193367 0)
(-0.102593 -0.000276746 0)
(-0.102115 -0.000708958 0)
(-0.101251 -0.00111099 0)
(-0.100023 -0.00149224 0)
(-0.0984452 -0.00186553 0)
(-0.0965221 -0.00223568 0)
(-0.0942506 -0.00261969 0)
(-0.0916151 -0.0030169 0)
(-0.0885953 -0.00344908 0)
(-0.0851594 -0.00390543 0)
(-0.0812748 -0.00441181 0)
(-0.0769011 -0.00494357 0)
(-0.0720044 -0.00552632 0)
(-0.0665506 -0.00611605 0)
(-0.060523 -0.00675133 0)
(-0.0539089 -0.00733921 0)
(-0.0467283 -0.00797463 0)
(-0.0390002 -0.00848526 0)
(-0.0307827 -0.0090447 0)
(-0.0221312 -0.00942707 0)
(-0.0131793 -0.00985576 0)
(-0.00388802 -0.010077 0)
(0.0057883 -0.0102371 0)
(0.0156249 -0.0104368 0)
(0.0254822 -0.0104087 0)
(0.0353261 -0.0104372 0)
(0.0450831 -0.0102482 0)
(0.0546818 -0.010103 0)
(0.0640412 -0.00976173 0)
(0.0730959 -0.00944913 0)
(0.0817659 -0.00896555 0)
(0.0899931 -0.00849717 0)
(0.0977018 -0.00788835 0)
(0.104845 -0.00728486 0)
(0.11136 -0.00658267 0)
(0.117217 -0.00588133 0)
(0.122379 -0.00513275 0)
(0.126837 -0.0043902 0)
(0.130586 -0.00364391 0)
(0.133633 -0.00291352 0)
(0.135992 -0.0022043 0)
(0.137677 -0.00151776 0)
(0.138703 -0.000857673 0)
(0.139079 -0.000221737 0)
(0.138845 0.000387406 0)
(0.138063 0.000990906 0)
(0.136745 0.00157181 0)
(0.134906 0.00216514 0)
(0.132553 0.00273519 0)
(0.129688 0.00333825 0)
(0.126302 0.00390811 0)
(0.122374 0.0045258 0)
(0.117885 0.00508831 0)
(0.112841 0.00570088 0)
(0.10725 0.0062304 0)
(0.101141 0.00680384 0)
(0.0945356 0.00726336 0)
(0.0874886 0.00774902 0)
(0.0800178 0.00818496 0)
(0.072203 0.00847296 0)
(0.0641152 0.00876573 0)
(0.055815 0.00891967 0)
(0.0473674 0.00906987 0)
(0.0388365 0.00909799 0)
(0.0302776 0.00911768 0)
(0.0217469 0.00903034 0)
(0.0132926 0.00893232 0)
(0.00495174 0.00871759 0)
(-0.00316197 0.0085398 0)
(-0.0110127 0.00823531 0)
(-0.0186184 0.00792084 0)
(-0.0258994 0.00753412 0)
(-0.032811 0.0071281 0)
(-0.0393114 0.00665786 0)
(-0.0453735 0.00617229 0)
(-0.0509563 0.00563073 0)
(-0.0560042 0.00508006 0)
(-0.0605775 0.00450306 0)
(-0.0645829 0.00389486 0)
(-0.0679814 0.00329835 0)
(-0.0708314 0.00267903 0)
(-0.0731291 0.00209792 0)
(-0.0748341 0.0014978 0)
(-0.0760154 0.000966002 0)
(-0.0766574 0.000429973 0)
(-0.0768183 -2.38454e-05 0)
(-0.0765512 -0.000488126 0)
(-0.0758592 -0.000858872 0)
(-0.074811 -0.00122494 0)
(-0.0734326 -0.00154625 0)
(-0.0718037 -0.00183755 0)
(-0.0698609 -0.0021014 0)
(-0.0676991 -0.00236494 0)
(-0.0652947 -0.00260793 0)
(-0.0626786 -0.00285422 0)
(-0.0597978 -0.00308589 0)
(-0.0568776 -0.00328109 0)
(-0.0535357 -0.00353936 0)
(-0.0501891 -0.00371259 0)
(-0.046473 -0.00402312 0)
(-0.0426493 -0.00418298 0)
(-0.0385207 -0.00451056 0)
(-0.0342497 -0.00467337 0)
(-0.0296511 -0.00501207 0)
(-0.0249091 -0.00517841 0)
(-0.0198372 -0.00553784 0)
(-0.014622 -0.00568874 0)
(-0.00907074 -0.00606119 0)
(-0.00333964 -0.00618536 0)
(0.00262041 -0.00656136 0)
(0.00892455 -0.00678274 0)
(0.0153979 -0.00701084 0)
(0.0221052 -0.00720195 0)
(0.0289128 -0.00744588 0)
(0.0361052 -0.0076124 0)
(0.0432266 -0.00768414 0)
(0.0505204 -0.00772707 0)
(0.0577467 -0.00769784 0)
(0.0649928 -0.00766102 0)
(0.072139 -0.00752496 0)
(0.0791436 -0.00736019 0)
(0.0859619 -0.00709186 0)
(0.092476 -0.00678219 0)
(0.0986812 -0.00635648 0)
(0.104447 -0.00589992 0)
(0.109755 -0.00533937 0)
(0.114492 -0.0047359 0)
(0.118648 -0.00405972 0)
(0.122118 -0.00332414 0)
(0.1249 -0.00254557 0)
(0.126905 -0.00173044 0)
(0.128147 -0.000888867 0)
(0.128571 -2.04274e-05 0)
(0.128189 0.000841002 0)
(0.126981 0.00170874 0)
(0.124984 0.00255243 0)
(0.122199 0.00335781 0)
(0.118659 0.00412362 0)
(0.11443 0.00484492 0)
(0.109547 0.00549098 0)
(0.104081 0.0060899 0)
(0.0981068 0.00660973 0)
(0.0916741 0.00704788 0)
(0.0848692 0.0074075 0)
(0.0777482 0.00769042 0)
(0.0704068 0.00790842 0)
(0.062893 0.00804397 0)
(0.0552966 0.00811092 0)
(0.0476552 0.00809832 0)
(0.0400531 0.00804235 0)
(0.0325468 0.00794573 0)
(0.0251701 0.00778191 0)
(0.0179066 0.00760391 0)
(0.0109004 0.00735351 0)
(0.00411588 0.00711462 0)
(-0.00246975 0.00686034 0)
(-0.00872376 0.00660557 0)
(-0.0148387 0.00635148 0)
(-0.0206082 0.00605776 0)
(-0.026246 0.00581711 0)
(-0.031546 0.00554052 0)
(-0.0366 0.00528144 0)
(-0.0414479 0.00501717 0)
(-0.04605 0.00479055 0)
(-0.0503755 0.00443506 0)
(-0.0544969 0.00424009 0)
(-0.0582526 0.00385447 0)
(-0.0617698 0.00368347 0)
(-0.0650618 0.00346172 0)
(-0.0683811 0.00333325 0)
(-0.0713346 0.00296591 0)
(-0.0738727 0.00268662 0)
(-0.0763992 0.00240622 0)
(-0.0783415 0.00198068 0)
(-0.0801953 0.00171476 0)
(-0.081519 0.00124598 0)
(-0.0825705 0.000944214 0)
(-0.0832366 0.000441317 0)
(-0.0834421 7.5389e-05 0)
(-0.0833589 -0.000407763 0)
(-0.082679 -0.000868386 0)
(-0.081699 -0.00134473 0)
(-0.0801625 -0.00185559 0)
(-0.0781803 -0.00237124 0)
(-0.0757432 -0.00287683 0)
(-0.0727195 -0.00343107 0)
(-0.0693641 -0.00392353 0)
(-0.0653945 -0.00450909 0)
(-0.0608092 -0.00501032 0)
(-0.0560117 -0.00542999 0)
(-0.0505884 -0.00593115 0)
(-0.0449266 -0.00626558 0)
(-0.0387559 -0.00675275 0)
(-0.0323219 -0.00703509 0)
(-0.0254722 -0.00746539 0)
(-0.0184019 -0.00766502 0)
(-0.0109961 -0.00798248 0)
(-0.0034514 -0.00805901 0)
(0.00427563 -0.00835428 0)
(0.0121286 -0.00839379 0)
(0.0200752 -0.00851913 0)
(0.0280461 -0.0084193 0)
(0.0360204 -0.00850972 0)
(0.0439598 -0.00838354 0)
(0.0516522 -0.00829899 0)
(0.0595687 -0.00814974 0)
(0.0668142 -0.00778128 0)