/*--------------------------------*- C++ -*----------------------------------*\
| =========                 |                                                 |
| \\      /  F ield         | OpenFOAM: The Open Source CFD Toolbox           |
|  \\    /   O peration     | Version:  3.0.1                                 |
|   \\  /    A nd           | Web:      www.OpenFOAM.org                      |
|    \\/     M anipulation  |                                                 |
\*---------------------------------------------------------------------------*/
FoamFile
{
    version     2.0;
    format      ascii;
    class       volVectorField;
    location    "86";
    object      U;
}
// * * * * * * * * * * * * * * * * * * * * * * * * * * * * * * * * * * * * * //

dimensions      [0 1 -1 0 0 0 0];

internalField   nonuniform List<vector> 
21420
(
(-0.128107 0.00100845 0)
(-0.136494 0.000906941 0)
(-0.145183 0.000814406 0)
(-0.152928 0.000723845 0)
(-0.159768 0.000633527 0)
(-0.165734 0.000549282 0)
(-0.170858 0.000466453 0)
(-0.175172 0.000388171 0)
(-0.178704 0.00031219 0)
(-0.181478 0.000237884 0)
(-0.183526 0.000165135 0)
(-0.184841 9.43084e-05 0)
(-0.185444 2.6366e-05 0)
(-0.185357 -4.45319e-05 0)
(-0.184548 -0.000115998 0)
(-0.183028 -0.000187358 0)
(-0.180779 -0.00025983 0)
(-0.177788 -0.000334648 0)
(-0.174038 -0.000410757 0)
(-0.169505 -0.000488789 0)
(-0.164163 -0.000572023 0)
(-0.157985 -0.000655369 0)
(-0.150936 -0.000741203 0)
(-0.142986 -0.000835446 0)
(-0.134105 -0.000926531 0)
(-0.124264 -0.00102828 0)
(-0.113446 -0.0011226 0)
(-0.101635 -0.00121673 0)
(-0.0888195 -0.00132531 0)
(-0.0750104 -0.00141588 0)
(-0.060229 -0.00150233 0)
(-0.0445064 -0.00160671 0)
(-0.0279075 -0.00167714 0)
(-0.0105374 -0.00176737 0)
(0.00743632 -0.00181326 0)
(0.0258875 -0.00184329 0)
(0.0447175 -0.00189166 0)
(0.0637388 -0.00188686 0)
(0.082709 -0.0018574 0)
(0.101396 -0.00183802 0)
(0.119568 -0.0017635 0)
(0.136973 -0.00168889 0)
(0.153361 -0.00156688 0)
(0.168472 -0.0014209 0)
(0.182055 -0.00126465 0)
(0.193904 -0.00107799 0)
(0.203816 -0.000873395 0)
(0.211621 -0.000656316 0)
(0.217185 -0.000431892 0)
(0.220427 -0.000190313 0)
(0.22128 4.12654e-05 0)
(0.21976 0.000282263 0)
(0.215712 0.000508209 0)
(0.20945 0.000727566 0)
(0.200963 0.000946596 0)
(0.190418 0.00112578 0)
(0.178039 0.00130195 0)
(0.163998 0.00146366 0)
(0.148525 0.00157808 0)
(0.131874 0.00169064 0)
(0.114333 0.00175505 0)
(0.0961188 0.00181493 0)
(0.0774017 0.0018518 0)
(0.0584859 0.00184958 0)
(0.039601 0.00184762 0)
(0.0210453 0.00182347 0)
(0.00322341 0.00177344 0)
(-0.0140794 0.0017177 0)
(-0.030975 0.00164505 0)
(-0.0472204 0.00157274 0)
(-0.0626861 0.00148603 0)
(-0.0772643 0.0013953 0)
(-0.090981 0.00130671 0)
(-0.103739 0.00120795 0)
(-0.115496 0.00111116 0)
(-0.126294 0.00101865 0)
(-0.136096 0.000919291 0)
(-0.144972 0.000828485 0)
(-0.152931 0.000729236 0)
(-0.159916 0.000635723 0)
(-0.165937 0.000546878 0)
(-0.17099 0.000453327 0)
(-0.175172 0.000355095 0)
(-0.17841 0.00026364 0)
(-0.180611 0.000173272 0)
(-0.181851 7.29055e-05 0)
(-0.182274 -2.01885e-05 0)
(-0.181557 -0.000107721 0)
(-0.180008 -0.000193822 0)
(-0.177784 -0.000274888 0)
(-0.17467 -0.00032988 0)
(-0.170965 -0.000396657 0)
(-0.166717 -0.000451699 0)
(-0.161875 -0.000512596 0)
(-0.156466 -0.000566991 0)
(-0.150452 -0.000629537 0)
(-0.143828 -0.000696688 0)
(-0.136483 -0.000760212 0)
(-0.128399 -0.000829135 0)
(-0.119612 -0.000909538 0)
(-0.110028 -0.000989538 0)
(-0.0996245 -0.00107417 0)
(-0.0883731 -0.00115185 0)
(-0.0763205 -0.00123622 0)
(-0.0634391 -0.00131658 0)
(-0.0497876 -0.00138988 0)
(-0.0353836 -0.00146105 0)
(-0.0202983 -0.00153038 0)
(-0.00457589 -0.00158358 0)
(0.0116806 -0.00163022 0)
(0.0283393 -0.00167078 0)
(0.0453263 -0.00169621 0)
(0.0624834 -0.00170562 0)
(0.0796495 -0.0017007 0)
(0.0966785 -0.00167534 0)
(0.113372 -0.00163282 0)
(0.129527 -0.00156727 0)
(0.144932 -0.0014819 0)
(0.159366 -0.00137148 0)
(0.172608 -0.00124607 0)
(0.184427 -0.00109364 0)
(0.194598 -0.000921122 0)
(0.202911 -0.000727962 0)
(0.209198 -0.000519034 0)
(0.21332 -0.00029801 0)
(0.215152 -6.76899e-05 0)
(0.214714 0.000160873 0)
(0.211802 0.000399028 0)
(0.206552 0.000629057 0)
(0.1991 0.000852089 0)
(0.189496 0.00105126 0)
(0.177907 0.00124403 0)
(0.164523 0.00140997 0)
(0.149555 0.00155586 0)
(0.13324 0.00167731 0)
(0.115845 0.00176422 0)
(0.0976563 0.00184171 0)
(0.0789011 0.00188121 0)
(0.0598345 0.00190045 0)
(0.0407405 0.00188702 0)
(0.0218471 0.00185867 0)
(0.00334136 0.00181869 0)
(-0.0146125 0.00174874 0)
(-0.0318188 0.00166578 0)
(-0.0481504 0.00157445 0)
(-0.0635355 0.00148016 0)
(-0.0779212 0.00137748 0)
(-0.09123 0.00126686 0)
(-0.10345 0.00116051 0)
(-0.114581 0.00104952 0)
(-0.12465 0.000947363 0)
(-0.133681 0.000843691 0)
(-0.141681 0.00074366 0)
(-0.148734 0.000659942 0)
(-0.154927 0.000573105 0)
(-0.160275 0.000493194 0)
(-0.164798 0.00040903 0)
(-0.168558 0.000334104 0)
(-0.171587 0.000268717 0)
(-0.173916 0.000199707 0)
(-0.175594 0.000133932 0)
(-0.176625 7.34865e-05 0)
(-0.177073 1.41999e-05 0)
(-0.176933 -4.14526e-05 0)
(-0.176201 -0.000100632 0)
(-0.174913 -0.000147906 0)
(-0.173048 -0.000212365 0)
(-0.170635 -0.000274587 0)
(-0.167622 -0.000322173 0)
(-0.163988 -0.00038815 0)
(-0.159778 -0.000449394 0)
(-0.154909 -0.000511437 0)
(-0.149369 -0.000585652 0)
(-0.143109 -0.000653297 0)
(-0.136167 -0.000718079 0)
(-0.128493 -0.000800533 0)
(-0.120025 -0.000879332 0)
(-0.110769 -0.000959482 0)
(-0.100682 -0.00104888 0)
(-0.0897315 -0.00111631 0)
(-0.0779916 -0.00120015 0)
(-0.065482 -0.00127505 0)
(-0.0522117 -0.00135563 0)
(-0.0381652 -0.00142989 0)
(-0.0234213 -0.00149689 0)
(-0.00800814 -0.00155486 0)
(0.00798258 -0.00160158 0)
(0.0243488 -0.00164299 0)
(0.0410121 -0.00166664 0)
(0.0578235 -0.00166446 0)
(0.0745878 -0.00165693 0)
(0.0911116 -0.00161769 0)
(0.107149 -0.00155936 0)
(0.122475 -0.00147981 0)
(0.13689 -0.00137421 0)
(0.150146 -0.0012486 0)
(0.162009 -0.00110128 0)
(0.172251 -0.000928795 0)
(0.180635 -0.000733271 0)
(0.186943 -0.000517782 0)
(0.191018 -0.000284561 0)
(0.192721 -5.60466e-05 0)
(0.192103 0.000182167 0)
(0.188982 0.000421994 0)
(0.183514 0.000655333 0)
(0.175835 0.000869076 0)
(0.166053 0.00106855 0)
(0.154351 0.00125027 0)
(0.140965 0.00140738 0)
(0.126107 0.00153897 0)
(0.110035 0.00164451 0)
(0.0930088 0.00172468 0)
(0.0753414 0.00177562 0)
(0.0573131 0.00180338 0)
(0.0391904 0.00179164 0)
(0.0212306 0.00177338 0)
(0.00361881 0.00172652 0)
(-0.0135063 0.00167166 0)
(-0.0300041 0.00160142 0)
(-0.0457637 0.00153037 0)
(-0.0607455 0.00144556 0)
(-0.0748723 0.00136189 0)
(-0.0881025 0.00126724 0)
(-0.100422 0.00117762 0)
(-0.111808 0.00107953 0)
(-0.122239 0.000985689 0)
(-0.131694 0.000896645 0)
(-0.140237 0.000804387 0)
(-0.147912 0.000717978 0)
(-0.154729 0.000632549 0)
(-0.160725 0.000561662 0)
(-0.165997 0.000487177 0)
(-0.170578 0.000421184 0)
(-0.174451 0.000353494 0)
(-0.177659 0.000283347 0)
(-0.180179 0.000213511 0)
(-0.182014 0.000152072 0)
(-0.183207 9.00379e-05 0)
(-0.183809 3.43427e-05 0)
(-0.18384 -2.29868e-05 0)
(-0.183344 -6.84592e-05 0)
(-0.182358 -0.000126371 0)
(-0.180901 -0.000175945 0)
(-0.178905 -0.000214562 0)
(-0.176386 -0.000274051 0)
(-0.173362 -0.000325076 0)
(-0.169748 -0.000393946 0)
(-0.165495 -0.000450731 0)
(-0.160576 -0.000517352 0)
(-0.154994 -0.000585346 0)
(-0.148762 -0.000652521 0)
(-0.141826 -0.000723593 0)
(-0.134159 -0.000794183 0)
(-0.125736 -0.00087212 0)
(-0.116528 -0.000953876 0)
(-0.106492 -0.00103627 0)
(-0.0955796 -0.00112886 0)
(-0.0837591 -0.00121375 0)
(-0.0710459 -0.0013004 0)
(-0.0575164 -0.00138236 0)
(-0.0432046 -0.00145243 0)
(-0.0282321 -0.00151169 0)
(-0.0127157 -0.00156026 0)
(0.00324329 -0.00159176 0)
(0.0194441 -0.00160354 0)
(0.0356781 -0.00159693 0)
(0.0518115 -0.00158764 0)
(0.0677345 -0.00154989 0)
(0.0830772 -0.00149596 0)
(0.0978336 -0.00141615 0)
(0.111749 -0.00132354 0)
(0.124573 -0.001208 0)
(0.136161 -0.0010715 0)
(0.146314 -0.000930836 0)
(0.154974 -0.000758065 0)
(0.161845 -0.000592351 0)
(0.166968 -0.000413989 0)
(0.170231 -0.000219657 0)
(0.171504 -3.79454e-05 0)
(0.170959 0.000157788 0)
(0.168545 0.000361917 0)
(0.163998 0.000545733 0)
(0.157523 0.00074315 0)
(0.149319 0.000933417 0)
(0.139089 0.00110131 0)
(0.127187 0.00126524 0)
(0.113906 0.00140636 0)
(0.0991633 0.00150908 0)
(0.0834519 0.0016103 0)
(0.0671385 0.00165152 0)
(0.0502956 0.00168714 0)
(0.0332171 0.00168834 0)
(0.01621 0.00166221 0)
(-8.76705e-05 0.00163582 0)
(-0.0157197 0.00157242 0)
(-0.0310002 0.00149342 0)
(-0.0455097 0.00140984 0)
(-0.0591241 0.00131571 0)
(-0.0717774 0.0012141 0)
(-0.0834302 0.00111382 0)
(-0.0940692 0.00101007 0)
(-0.103708 0.000912395 0)
(-0.11237 0.000817391 0)
(-0.120111 0.000727094 0)
(-0.12699 0.000645193 0)
(-0.133075 0.000570113 0)
(-0.138451 0.000502164 0)
(-0.143194 0.000442893 0)
(-0.14738 0.000389448 0)
(-0.151065 0.000342792 0)
(-0.154296 0.000299886 0)
(-0.15711 0.000258329 0)
(-0.159513 0.000216467 0)
(-0.161483 0.0001718 0)
(-0.162994 0.000123255 0)
(-0.163967 7.15091e-05 0)
(-0.164399 1.10242e-05 0)
(-0.16417 -5.85039e-05 0)
(-0.163187 -0.000134787 0)
(-0.161411 -0.000218543 0)
(-0.158773 -0.000307266 0)
(-0.155197 -0.000401229 0)
(-0.150638 -0.000503029 0)
(-0.145052 -0.000605204 0)
(-0.138399 -0.000715871 0)
(-0.130657 -0.00082304 0)
(-0.121803 -0.000930373 0)
(-0.111834 -0.0010469 0)
(-0.10077 -0.00114996 0)
(-0.0886394 -0.00124823 0)
(-0.0754841 -0.00135757 0)
(-0.0613717 -0.00144109 0)
(-0.046394 -0.00151363 0)
(-0.0306531 -0.00159837 0)
(-0.0142801 -0.00164388 0)
(0.00257269 -0.00170094 0)
(0.0197434 -0.00171342 0)
(0.0370488 -0.00170619 0)
(0.0542996 -0.0017097 0)
(0.071298 -0.00166385 0)
(0.0878362 -0.00159863 0)
(0.103718 -0.00153983 0)
(0.118749 -0.00143769 0)
(0.132745 -0.00133818 0)
(0.145534 -0.00120349 0)
(0.156955 -0.00105645 0)
(0.16687 -0.000906884 0)
(0.175163 -0.000737884 0)
(0.181733 -0.000562169 0)
(0.186506 -0.000382297 0)
(0.18943 -0.000196837 0)
(0.190464 -8.96449e-06 0)
(0.189654 0.000177317 0)
(0.186943 0.000363867 0)
(0.182375 0.00054168 0)
(0.176029 0.000715773 0)
(0.166843 0.000882857 0)
(-0.128145 0.00302527 0)
(-0.136531 0.00272073 0)
(-0.14522 0.0024431 0)
(-0.152964 0.00217141 0)
(-0.159803 0.00190045 0)
(-0.165767 0.0016477 0)
(-0.17089 0.00139921 0)
(-0.175202 0.00116437 0)
(-0.178733 0.000936444 0)
(-0.181507 0.000713554 0)
(-0.183553 0.000495324 0)
(-0.18487 0.000282581 0)
(-0.185472 7.92791e-05 0)
(-0.185385 -0.000133528 0)
(-0.184576 -0.000348066 0)
(-0.183057 -0.00056207 0)
(-0.180808 -0.000779464 0)
(-0.177818 -0.00100387 0)
(-0.174069 -0.00123218 0)
(-0.169537 -0.00146628 0)
(-0.164197 -0.00171594 0)
(-0.158019 -0.00196599 0)
(-0.150972 -0.00222347 0)
(-0.143024 -0.00250619 0)
(-0.134143 -0.00277947 0)
(-0.124304 -0.00308472 0)
(-0.113487 -0.00336772 0)
(-0.101676 -0.00365018 0)
(-0.0888609 -0.00397597 0)
(-0.0750511 -0.00424784 0)
(-0.060268 -0.00450704 0)
(-0.0445434 -0.00482047 0)
(-0.027941 -0.0050318 0)
(-0.0105667 -0.00530251 0)
(0.00741232 -0.00544034 0)
(0.0258692 -0.00553053 0)
(0.0447064 -0.00567579 0)
(0.0637358 -0.00566146 0)
(0.0827144 -0.00557315 0)
(0.101411 -0.00551518 0)
(0.119593 -0.00529171 0)
(0.137009 -0.00506797 0)
(0.153407 -0.00470227 0)
(0.168528 -0.00426328 0)
(0.182122 -0.00379453 0)
(0.193978 -0.00323388 0)
(0.203898 -0.00262144 0)
(0.211707 -0.00197361 0)
(0.217281 -0.00129229 0)
(0.220531 -0.000566648 0)
(0.221383 0.000120524 0)
(0.219854 0.000845704 0)
(0.215807 0.00152439 0)
(0.209546 0.0021827 0)
(0.201056 0.00284013 0)
(0.190504 0.0033779 0)
(0.178119 0.00390651 0)
(0.164071 0.00439178 0)
(0.148589 0.00473498 0)
(0.131928 0.00507253 0)
(0.114377 0.00526683 0)
(0.0961533 0.00544563 0)
(0.0774253 0.00555622 0)
(0.0585002 0.00554963 0)
(0.039607 0.00554379 0)
(0.0210411 0.00547147 0)
(0.00321046 0.00532217 0)
(-0.0141015 0.00515327 0)
(-0.0310021 0.00493713 0)
(-0.0472546 0.00471951 0)
(-0.0627259 0.00445878 0)
(-0.0773068 0.00418833 0)
(-0.0910305 0.00392066 0)
(-0.10379 0.0036248 0)
(-0.11555 0.00333396 0)
(-0.126355 0.00305605 0)
(-0.136156 0.00275451 0)
(-0.145031 0.00248934 0)
(-0.152995 0.00219228 0)
(-0.159984 0.00190404 0)
(-0.165997 0.00163591 0)
(-0.171051 0.00136877 0)
(-0.175241 0.00106275 0)
(-0.178471 0.000791039 0)
(-0.180671 0.000524958 0)
(-0.181914 0.000219333 0)
(-0.182326 -6.30034e-05 0)
(-0.18161 -0.000330241 0)
(-0.180055 -0.000594419 0)
(-0.177805 -0.000822029 0)
(-0.1747 -0.00100257 0)
(-0.170982 -0.00120033 0)
(-0.166717 -0.00135121 0)
(-0.161866 -0.00152836 0)
(-0.156452 -0.00169676 0)
(-0.15044 -0.00188481 0)
(-0.143822 -0.00209124 0)
(-0.136486 -0.00227611 0)
(-0.128422 -0.00250279 0)
(-0.119634 -0.00273113 0)
(-0.110055 -0.00297255 0)
(-0.0996538 -0.00321871 0)
(-0.0884188 -0.00346727 0)
(-0.076357 -0.00370981 0)
(-0.0634881 -0.00394532 0)
(-0.049836 -0.00418075 0)
(-0.0354328 -0.00438907 0)
(-0.0203473 -0.00459215 0)
(-0.00462127 -0.00475532 0)
(0.0116369 -0.00490419 0)
(0.028313 -0.00501202 0)
(0.0453012 -0.00508901 0)
(0.0624698 -0.00512017 0)
(0.079646 -0.00510516 0)
(0.0966826 -0.00502075 0)
(0.113385 -0.004899 0)
(0.129545 -0.00470819 0)
(0.144957 -0.00446108 0)
(0.159401 -0.00412462 0)
(0.17265 -0.00373906 0)
(0.184471 -0.00328529 0)
(0.194649 -0.00275791 0)
(0.202966 -0.00217963 0)
(0.209252 -0.00155634 0)
(0.21337 -0.000898356 0)
(0.215197 -0.000205851 0)
(0.214742 0.000489592 0)
(0.211809 0.00120467 0)
(0.206545 0.00188602 0)
(0.19908 0.00255487 0)
(0.189458 0.00316307 0)
(0.177843 0.00372927 0)
(0.164438 0.00423516 0)
(0.149446 0.00466689 0)
(0.133114 0.00502543 0)
(0.115708 0.00530512 0)
(0.0974982 0.00553364 0)
(0.0787189 0.00564146 0)
(0.0596428 0.00569458 0)
(0.0405431 0.00566432 0)
(0.0216334 0.00558404 0)
(0.00310444 0.00543959 0)
(-0.0148556 0.00524032 0)
(-0.0320574 0.0049982 0)
(-0.0483883 0.00473227 0)
(-0.0637831 0.00443263 0)
(-0.0781607 0.00412584 0)
(-0.0914626 0.00379554 0)
(-0.103676 0.00348342 0)
(-0.114806 0.00315382 0)
(-0.124875 0.00283749 0)
(-0.133892 0.00252696 0)
(-0.141885 0.00224011 0)
(-0.148944 0.00197285 0)
(-0.155131 0.00170594 0)
(-0.16047 0.00145885 0)
(-0.164975 0.00123276 0)
(-0.168729 0.00101412 0)
(-0.17176 0.00079391 0)
(-0.174082 0.000593927 0)
(-0.175754 0.000399307 0)
(-0.176778 0.000226994 0)
(-0.177226 4.47861e-05 0)
(-0.177083 -0.000118345 0)
(-0.176352 -0.000311987 0)
(-0.175066 -0.000464506 0)
(-0.173191 -0.00064982 0)
(-0.170762 -0.000818163 0)
(-0.167746 -0.000960369 0)
(-0.164117 -0.00116078 0)
(-0.159909 -0.00134788 0)
(-0.155046 -0.00155381 0)
(-0.149485 -0.00174695 0)
(-0.143232 -0.00195568 0)
(-0.136297 -0.00217749 0)
(-0.128603 -0.00239943 0)
(-0.120144 -0.00263388 0)
(-0.110885 -0.00288975 0)
(-0.100779 -0.0031419 0)
(-0.0898395 -0.00335212 0)
(-0.0780957 -0.00360318 0)
(-0.065587 -0.00383643 0)
(-0.0523076 -0.00406835 0)
(-0.038258 -0.00428645 0)
(-0.0235111 -0.00449407 0)
(-0.00809148 -0.00466722 0)
(0.00789054 -0.00482336 0)
(0.0242775 -0.00492812 0)
(0.0409482 -0.00499672 0)
(0.057759 -0.00499985 0)
(0.0745383 -0.00496569 0)
(0.0910665 -0.00485262 0)
(0.107105 -0.00467726 0)
(0.122434 -0.00444208 0)
(0.136854 -0.00412434 0)
(0.150113 -0.00375162 0)
(0.161981 -0.00330147 0)
(0.172228 -0.00278347 0)
(0.180609 -0.00220366 0)
(0.186916 -0.00156099 0)
(0.190985 -0.000862078 0)
(0.192687 -0.000165674 0)
(0.192052 0.000551212 0)
(0.188926 0.00127198 0)
(0.183451 0.00196699 0)
(0.175759 0.00260383 0)
(0.165971 0.00320753 0)
(0.154254 0.00375021 0)
(0.14085 0.00421386 0)
(0.125984 0.00461587 0)
(0.109898 0.00494265 0)
(0.0928562 0.00517695 0)
(0.0751681 0.00532835 0)
(0.0571274 0.00539788 0)
(0.0390075 0.00538068 0)
(0.0210478 0.00531454 0)
(0.00343444 0.00518395 0)
(-0.013693 0.00501385 0)
(-0.0301897 0.00480302 0)
(-0.0459566 0.00458393 0)
(-0.0609417 0.00433459 0)
(-0.075069 0.00407326 0)
(-0.0882866 0.0038028 0)
(-0.100603 0.00353416 0)
(-0.111994 0.00323856 0)
(-0.122421 0.00295285 0)
(-0.131874 0.00269417 0)
(-0.140412 0.00240711 0)
(-0.148078 0.00214793 0)
(-0.154883 0.00189785 0)
(-0.160877 0.00169024 0)
(-0.166156 0.00145814 0)
(-0.170738 0.00125942 0)
(-0.17461 0.00104817 0)
(-0.177805 0.000846658 0)
(-0.180324 0.000651042 0)
(-0.18217 0.000453509 0)
(-0.183359 0.00026103 0)
(-0.183952 0.00010298 0)
(-0.183994 -8.10871e-05 0)
(-0.183493 -0.000207092 0)
(-0.182507 -0.000373513 0)
(-0.181051 -0.000522828 0)
(-0.179066 -0.0006456 0)
(-0.176551 -0.000825606 0)
(-0.173531 -0.000984909 0)
(-0.169908 -0.00118005 0)
(-0.165657 -0.00135859 0)
(-0.160739 -0.0015578 0)
(-0.155131 -0.00175039 0)
(-0.148904 -0.00196162 0)
(-0.141956 -0.00217381 0)
(-0.134283 -0.00238315 0)
(-0.125854 -0.00261608 0)
(-0.116645 -0.00286148 0)
(-0.106604 -0.00311398 0)
(-0.0956817 -0.00339161 0)
(-0.0838454 -0.00363604 0)
(-0.0711428 -0.00390969 0)
(-0.0575918 -0.00414892 0)
(-0.0432735 -0.00436114 0)
(-0.0282839 -0.00454284 0)
(-0.0127541 -0.004681 0)
(0.00321313 -0.00477065 0)
(0.0194204 -0.00481982 0)
(0.0356644 -0.0048047 0)
(0.0518215 -0.0047579 0)
(0.0677522 -0.00464645 0)
(0.0831051 -0.00449012 0)
(0.0978763 -0.00424422 0)
(0.111794 -0.00397446 0)
(0.124633 -0.00362851 0)
(0.136232 -0.00321797 0)
(0.146393 -0.00278536 0)
(0.15506 -0.00227425 0)
(0.161932 -0.00177718 0)
(0.16706 -0.0012451 0)
(0.170329 -0.000657963 0)
(0.171602 -0.000115491 0)
(0.171058 0.000471639 0)
(0.168641 0.00108627 0)
(0.164094 0.00163605 0)
(0.157621 0.00222821 0)
(0.149413 0.00280259 0)
(0.139174 0.00330417 0)
(0.127268 0.00379591 0)
(0.113976 0.00422065 0)
(0.0992233 0.00452915 0)
(0.0834981 0.00483247 0)
(0.0671702 0.00495653 0)
(0.0503162 0.00506293 0)
(0.0332263 0.00506622 0)
(0.016212 0.0049878 0)
(-9.59756e-05 0.00490881 0)
(-0.015738 0.00471733 0)
(-0.0310238 0.00448009 0)
(-0.0455384 0.00422957 0)
(-0.0591563 0.00394765 0)
(-0.0718118 0.00364348 0)
(-0.083466 0.00334121 0)
(-0.0941051 0.00303062 0)
(-0.103743 0.00273738 0)
(-0.112404 0.002452 0)
(-0.120143 0.00218114 0)
(-0.12702 0.00193539 0)
(-0.133102 0.00171021 0)
(-0.138475 0.00150632 0)
(-0.143215 0.00132849 0)
(-0.147398 0.00116818 0)
(-0.151082 0.00102857 0)
(-0.154312 0.000899951 0)
(-0.157126 0.000774655 0)
(-0.15953 0.000649381 0)
(-0.161501 0.000515746 0)
(-0.163014 0.000370179 0)
(-0.163992 0.000214832 0)
(-0.164425 3.43707e-05 0)
(-0.164199 -0.000174938 0)
(-0.16322 -0.000404116 0)
(-0.161447 -0.000655195 0)
(-0.15881 -0.000921416 0)
(-0.155237 -0.00120341 0)
(-0.15068 -0.00150887 0)
(-0.145096 -0.00181545 0)
(-0.138444 -0.00214749 0)
(-0.130702 -0.00246905 0)
(-0.121848 -0.00279108 0)
(-0.111879 -0.00314073 0)
(-0.100814 -0.00345001 0)
(-0.0886813 -0.00374486 0)
(-0.075524 -0.00407296 0)
(-0.0614078 -0.00432366 0)
(-0.0464256 -0.00454135 0)
(-0.03068 -0.00479562 0)
(-0.0143007 -0.00493223 0)
(0.0025584 -0.00510352 0)
(0.0197363 -0.00514103 0)
(0.0370492 -0.00511933 0)
(0.0543083 -0.00512988 0)
(0.0713146 -0.00499234 0)
(0.0878604 -0.00479664 0)
(0.10375 -0.00462028 0)
(0.118788 -0.00431379 0)
(0.132792 -0.00401526 0)
(0.145587 -0.00361108 0)
(0.157013 -0.00316987 0)
(0.166934 -0.00272111 0)
(0.17523 -0.00221402 0)
(0.181803 -0.00168679 0)
(0.186578 -0.00114707 0)
(0.189504 -0.000590385 0)
(0.190539 -2.66554e-05 0)
(0.189729 0.000531877 0)
(0.187014 0.00109175 0)
(0.182444 0.00162519 0)
(0.176097 0.00214764 0)
(0.166906 0.002649 0)
(-0.128223 0.00504187 0)
(-0.136607 0.00453421 0)
(-0.145294 0.00407147 0)
(-0.153035 0.00361861 0)
(-0.159871 0.00316699 0)
(-0.165833 0.00274575 0)
(-0.170953 0.00233162 0)
(-0.175264 0.00194026 0)
(-0.178793 0.00156044 0)
(-0.181565 0.00118902 0)
(-0.183608 0.000825616 0)
(-0.184927 0.000470069 0)
(-0.185528 0.000132246 0)
(-0.18544 -0.000222603 0)
(-0.184633 -0.000580154 0)
(-0.183114 -0.000936665 0)
(-0.180866 -0.00129892 0)
(-0.177878 -0.00167285 0)
(-0.174131 -0.00205325 0)
(-0.169601 -0.00244347 0)
(-0.164263 -0.0028595 0)
(-0.158088 -0.00327626 0)
(-0.151043 -0.00370538 0)
(-0.143097 -0.00417654 0)
(-0.134218 -0.0046321 0)
(-0.124382 -0.00514093 0)
(-0.113565 -0.00561272 0)
(-0.101754 -0.00608369 0)
(-0.0889396 -0.00662683 0)
(-0.0751275 -0.00708026 0)
(-0.0603407 -0.0075121 0)
(-0.0446116 -0.00803521 0)
(-0.0280014 -0.00838766 0)
(-0.0106183 -0.00883909 0)
(0.00737206 -0.00906918 0)
(0.0258409 -0.00921984 0)
(0.0446931 -0.00946234 0)
(0.063739 -0.0094386 0)
(0.0827348 -0.00929162 0)
(0.101452 -0.00919531 0)
(0.119653 -0.00882284 0)
(0.137092 -0.00845005 0)
(0.153509 -0.00784037 0)
(0.168647 -0.00710856 0)
(0.182261 -0.00632712 0)
(0.194132 -0.00539289 0)
(0.204066 -0.00437027 0)
(0.211886 -0.00328882 0)
(0.217465 -0.00215993 0)
(0.220725 -0.000950409 0)
(0.221583 0.000203208 0)
(0.22002 0.00141256 0)
(0.21598 0.00254089 0)
(0.209713 0.00363902 0)
(0.201215 0.00473553 0)
(0.190648 0.00563239 0)
(0.178246 0.00651358 0)
(0.164181 0.00732248 0)
(0.148681 0.00789442 0)
(0.132 0.00845624 0)
(0.114428 0.00878211 0)
(0.0961867 0.00907917 0)
(0.0774393 0.00926202 0)
(0.0584994 0.00925316 0)
(0.0395935 0.00924181 0)
(0.0210121 0.00912337 0)
(0.00316841 0.00887161 0)
(-0.0141533 0.0085921 0)
(-0.031061 0.00822981 0)
(-0.0473217 0.00786785 0)
(-0.062798 0.00743219 0)
(-0.0773795 0.00698226 0)
(-0.0911087 0.00653545 0)
(-0.103868 0.00604256 0)
(-0.115628 0.00555985 0)
(-0.126436 0.00509396 0)
(-0.136234 0.00459475 0)
(-0.145117 0.00414676 0)
(-0.153081 0.0036512 0)
(-0.160062 0.00317527 0)
(-0.166073 0.00273242 0)
(-0.171138 0.00227886 0)
(-0.175325 0.00177278 0)
(-0.178549 0.00131871 0)
(-0.180764 0.00087436 0)
(-0.182018 0.000362966 0)
(-0.182412 -0.000106183 0)
(-0.181694 -0.000552076 0)
(-0.180128 -0.000984849 0)
(-0.177873 -0.00137309 0)
(-0.174765 -0.00166827 0)
(-0.171047 -0.0019976 0)
(-0.166789 -0.00225952 0)
(-0.161945 -0.00256267 0)
(-0.156533 -0.00283544 0)
(-0.150538 -0.0031398 0)
(-0.143937 -0.00348773 0)
(-0.136615 -0.00379499 0)
(-0.128563 -0.00415834 0)
(-0.119793 -0.00454722 0)
(-0.11023 -0.00495273 0)
(-0.0998384 -0.00536981 0)
(-0.0886019 -0.00576867 0)
(-0.0765512 -0.00618124 0)
(-0.0636902 -0.0065838 0)
(-0.0500336 -0.00695447 0)
(-0.0356427 -0.00731875 0)
(-0.0205527 -0.00765035 0)
(-0.00482874 -0.0079303 0)
(0.0114392 -0.00816286 0)
(0.0281267 -0.00836231 0)
(0.0451358 -0.00848484 0)
(0.062319 -0.00852963 0)
(0.0795068 -0.00851076 0)
(0.0965522 -0.00837821 0)
(0.113267 -0.00817066 0)
(0.129449 -0.007847 0)
(0.144885 -0.00742526 0)
(0.159344 -0.0068748 0)
(0.172602 -0.00623569 0)
(0.184439 -0.00547474 0)
(0.194634 -0.0046051 0)
(0.202969 -0.00363462 0)
(0.209268 -0.00259395 0)
(0.21339 -0.00149024 0)
(0.21521 -0.00034014 0)
(0.214735 0.000811732 0)
(0.211805 0.0020067 0)
(0.206551 0.0031508 0)
(0.199058 0.00426623 0)
(0.189419 0.0052735 0)
(0.177782 0.00622614 0)
(0.164339 0.0070612 0)
(0.149326 0.00778501 0)
(0.132971 0.00838853 0)
(0.115539 0.00884693 0)
(0.0973053 0.00922055 0)
(0.0785079 0.0094035 0)
(0.0594116 0.00949844 0)
(0.0402897 0.00944716 0)
(0.0213644 0.00931137 0)
(0.00283272 0.0090715 0)
(-0.0151419 0.0087388 0)
(-0.0323555 0.00832668 0)
(-0.0486974 0.00790129 0)
(-0.0641042 0.00738249 0)
(-0.078485 0.0068725 0)
(-0.0917833 0.0063333 0)
(-0.104 0.00580087 0)
(-0.115135 0.00525446 0)
(-0.125198 0.00472208 0)
(-0.134206 0.0042115 0)
(-0.142201 0.003737 0)
(-0.149254 0.0032812 0)
(-0.155427 0.00284418 0)
(-0.160752 0.0024354 0)
(-0.165265 0.00206396 0)
(-0.169025 0.00167793 0)
(-0.172048 0.00132808 0)
(-0.174372 0.000993932 0)
(-0.176045 0.000668002 0)
(-0.177075 0.00036948 0)
(-0.177518 7.38758e-05 0)
(-0.17738 -0.000211788 0)
(-0.176635 -0.000515023 0)
(-0.175339 -0.000766913 0)
(-0.173463 -0.00106623 0)
(-0.171028 -0.00136623 0)
(-0.168024 -0.00160875 0)
(-0.164408 -0.00194234 0)
(-0.160195 -0.00225124 0)
(-0.155322 -0.00257852 0)
(-0.149776 -0.00291525 0)
(-0.143527 -0.00327059 0)
(-0.136574 -0.00361001 0)
(-0.128888 -0.00400202 0)
(-0.120432 -0.00440435 0)
(-0.111162 -0.00481288 0)
(-0.101057 -0.00522142 0)
(-0.0901172 -0.005599 0)
(-0.0783677 -0.00600566 0)
(-0.0658551 -0.00639416 0)
(-0.0525677 -0.00677498 0)
(-0.0385199 -0.00715381 0)
(-0.0237603 -0.00748647 0)
(-0.00833218 -0.00778071 0)
(0.00765957 -0.0080309 0)
(0.0240575 -0.0082154 0)
(0.0407436 -0.0083373 0)
(0.0575667 -0.00833119 0)
(0.0743551 -0.00827967 0)
(0.0909007 -0.00808883 0)
(0.106955 -0.00780027 0)
(0.122307 -0.00740491 0)
(0.136748 -0.00687528 0)
(0.150023 -0.0062522 0)
(0.161905 -0.00550975 0)
(0.172173 -0.00464142 0)
(0.180567 -0.00366573 0)
(0.186881 -0.00259457 0)
(0.190946 -0.00144017 0)
(0.192655 -0.00027346 0)
(0.192015 0.000921239 0)
(0.188883 0.00211678 0)
(0.183416 0.00327544 0)
(0.175714 0.00435385 0)
(0.165904 0.00534843 0)
(0.154174 0.00625527 0)
(0.14075 0.00702847 0)
(0.125866 0.00769777 0)
(0.109753 0.00824562 0)
(0.0926796 0.00863008 0)
(0.0749694 0.00888494 0)
(0.0569091 0.00899828 0)
(0.0387724 0.00897425 0)
(0.0208023 0.00885541 0)
(0.00317059 0.00863934 0)
(-0.0139613 0.00835258 0)
(-0.0304572 0.00801306 0)
(-0.0462357 0.00764281 0)
(-0.0612248 0.00722703 0)
(-0.0753542 0.0067944 0)
(-0.0885799 0.00633429 0)
(-0.100896 0.00588788 0)
(-0.112284 0.00539733 0)
(-0.122717 0.0049302 0)
(-0.132183 0.00448328 0)
(-0.140715 0.00401135 0)
(-0.148376 0.00358213 0)
(-0.15517 0.00316091 0)
(-0.161168 0.00281802 0)
(-0.166449 0.00242944 0)
(-0.171024 0.00209471 0)
(-0.174889 0.00175225 0)
(-0.178084 0.00141716 0)
(-0.18061 0.00108003 0)
(-0.182458 0.000754553 0)
(-0.183645 0.000439996 0)
(-0.184237 0.000171181 0)
(-0.18427 -0.000121056 0)
(-0.183779 -0.000356142 0)
(-0.182797 -0.000623437 0)
(-0.181333 -0.000868782 0)
(-0.179357 -0.0010773 0)
(-0.176844 -0.00137514 0)
(-0.173816 -0.00163889 0)
(-0.170189 -0.00196057 0)
(-0.165931 -0.0022816 0)
(-0.161 -0.00258377 0)
(-0.155398 -0.00292633 0)
(-0.149153 -0.00327313 0)
(-0.142197 -0.00361519 0)
(-0.13451 -0.00397378 0)
(-0.126084 -0.00436565 0)
(-0.116863 -0.00476616 0)
(-0.106816 -0.00519658 0)
(-0.0958747 -0.00564327 0)
(-0.08404 -0.00607315 0)
(-0.0713215 -0.00651769 0)
(-0.0577549 -0.00691819 0)
(-0.0434204 -0.00727286 0)
(-0.0284081 -0.00757155 0)
(-0.0128556 -0.00780001 0)
(0.00312419 -0.00796144 0)
(0.0193522 -0.00802944 0)
(0.035618 -0.00800562 0)
(0.051793 -0.00793425 0)
(0.0677439 -0.00774783 0)
(0.0831222 -0.00749122 0)
(0.0979091 -0.00707931 0)
(0.111845 -0.0066258 0)
(0.124712 -0.00604624 0)
(0.136322 -0.00537198 0)
(0.146499 -0.00464413 0)
(0.155175 -0.0037946 0)
(0.162056 -0.00296033 0)
(0.167193 -0.00207845 0)
(0.170468 -0.00109733 0)
(0.171746 -0.000193651 0)
(0.171198 0.000788068 0)
(0.168779 0.00180974 0)
(0.164238 0.00272692 0)
(0.157765 0.00371575 0)
(0.149548 0.00467129 0)
(0.139301 0.00550881 0)
(0.127384 0.00633007 0)
(0.11407 0.00703781 0)
(0.0993015 0.0075508 0)
(0.0835533 0.00805877 0)
(0.0671998 0.00826479 0)
(0.0503273 0.00844182 0)
(0.0332165 0.00844816 0)
(0.0161909 0.00831651 0)
(-0.000135191 0.00818257 0)
(-0.0157946 0.00786485 0)
(-0.0310881 0.00747034 0)
(-0.0456104 0.00705289 0)
(-0.0592338 0.00658207 0)
(-0.0718921 0.00607116 0)
(-0.0835474 0.00556971 0)
(-0.094185 0.00505055 0)
(-0.10382 0.00456185 0)
(-0.112478 0.00408612 0)
(-0.120211 0.00363443 0)
(-0.127082 0.00322502 0)
(-0.133158 0.00284942 0)
(-0.138525 0.00250967 0)
(-0.14326 0.00221316 0)
(-0.147438 0.00194656 0)
(-0.151118 0.00171396 0)
(-0.154344 0.00149997 0)
(-0.157158 0.0012918 0)
(-0.159563 0.00108232 0)
(-0.161536 0.000860746 0)
(-0.163053 0.000618539 0)
(-0.16404 0.000358901 0)
(-0.164478 5.76769e-05 0)
(-0.164257 -0.000290698 0)
(-0.163284 -0.000672699 0)
(-0.161515 -0.00109093 0)
(-0.158883 -0.00153468 0)
(-0.155314 -0.00200493 0)
(-0.150761 -0.00251421 0)
(-0.145179 -0.00302536 0)
(-0.138531 -0.00357889 0)
(-0.13079 -0.00411499 0)
(-0.121936 -0.00465187 0)
(-0.111967 -0.00523481 0)
(-0.100898 -0.0057505 0)
(-0.0887613 -0.00624213 0)
(-0.0756 -0.00678925 0)
(-0.0614765 -0.00720732 0)
(-0.0464851 -0.00757044 0)
(-0.0307302 -0.00799449 0)
(-0.0143385 -0.00822237 0)
(0.00253321 -0.00850831 0)
(0.0197253 -0.00857088 0)
(0.0370533 -0.00853472 0)
(0.0543285 -0.00855248 0)
(0.0713503 -0.00832318 0)
(0.087911 -0.00799691 0)
(0.103818 -0.00770297 0)
(0.118869 -0.00719196 0)
(0.132888 -0.00669429 0)
(0.145694 -0.00602039 0)
(0.157131 -0.00528478 0)
(0.167063 -0.00453662 0)
(0.175365 -0.00369118 0)
(0.181944 -0.00281215 0)
(0.186724 -0.00191223 0)
(0.189651 -0.000984182 0)
(0.190691 -4.35599e-05 0)
(0.189878 0.000886166 0)
(0.187157 0.0018199 0)
(0.182584 0.00270924 0)
(0.176231 0.00358053 0)
(0.167032 0.00441643 0)
(-0.12834 0.00705809 0)
(-0.136721 0.00634722 0)
(-0.145405 0.00569927 0)
(-0.153143 0.00506521 0)
(-0.159974 0.00443291 0)
(-0.165933 0.00384319 0)
(-0.171049 0.00326348 0)
(-0.175356 0.00271568 0)
(-0.178882 0.00218402 0)
(-0.181652 0.00166417 0)
(-0.18369 0.00115653 0)
(-0.185008 0.000659952 0)
(-0.185616 0.000180694 0)
(-0.185524 -0.000312752 0)
(-0.184718 -0.000812187 0)
(-0.183199 -0.00131106 0)
(-0.180953 -0.00181807 0)
(-0.177968 -0.0023415 0)
(-0.174223 -0.00287376 0)
(-0.169696 -0.00342013 0)
(-0.164362 -0.00400247 0)
(-0.15819 -0.0045859 0)
(-0.151149 -0.00518668 0)
(-0.143207 -0.00584624 0)
(-0.134331 -0.00648417 0)
(-0.124499 -0.00719674 0)
(-0.113683 -0.0078575 0)
(-0.101872 -0.00851729 0)
(-0.0890577 -0.00927798 0)
(-0.0752422 -0.00991329 0)
(-0.0604497 -0.0105178 0)
(-0.044714 -0.0112514 0)
(-0.0280921 -0.0117454 0)
(-0.0106959 -0.0123782 0)
(0.00731148 -0.0127011 0)
(0.0257982 -0.0129127 0)
(0.044673 -0.013253 0)
(0.0637438 -0.01322 0)
(0.0827654 -0.0130147 0)
(0.101514 -0.0128805 0)
(0.119743 -0.0123591 0)
(0.137216 -0.0118375 0)
(0.153661 -0.0109839 0)
(0.168827 -0.00995876 0)
(0.18247 -0.008865 0)
(0.194363 -0.0075565 0)
(0.204318 -0.00612475 0)
(0.212154 -0.00461158 0)
(0.217746 -0.00302724 0)
(0.221017 -0.00133246 0)
(0.221862 0.000289851 0)
(0.220275 0.00198404 0)
(0.216243 0.00355705 0)
(0.209965 0.00509753 0)
(0.201452 0.00663404 0)
(0.190862 0.00789078 0)
(0.178436 0.00912485 0)
(0.164345 0.0102577 0)
(0.148818 0.0110583 0)
(0.132107 0.011843 0)
(0.114504 0.0123038 0)
(0.0962347 0.0127172 0)
(0.0774596 0.01297 0)
(0.0584979 0.0129631 0)
(0.039572 0.0129427 0)
(0.0209674 0.0127805 0)
(0.00310483 0.0124232 0)
(-0.0142332 0.0120318 0)
(-0.0311487 0.0115258 0)
(-0.0474212 0.0110182 0)
(-0.0629075 0.0104067 0)
(-0.0774891 0.00977706 0)