/*--------------------------------*- C++ -*----------------------------------*\
| =========                 |                                                 |
| \\      /  F ield         | OpenFOAM: The Open Source CFD Toolbox           |
|  \\    /   O peration     | Version:  3.0.1                                 |
|   \\  /    A nd           | Web:      www.OpenFOAM.org                      |
|    \\/     M anipulation  |                                                 |
\*---------------------------------------------------------------------------*/
FoamFile
{
    version     2.0;
    format      ascii;
    class       volScalarField;
    location    "32.8";
    object      p_rgh;
}
// * * * * * * * * * * * * * * * * * * * * * * * * * * * * * * * * * * * * * //

dimensions      [1 -1 -2 0 0 0 0];

internalField   nonuniform List<scalar> 
21420
(
290.504
310.542
327.273
340.532
350.194
356.055
357.781
355.28
348.754
338.314
323.966
305.957
284.558
260.047
232.807
203.189
171.609
138.521
104.347
69.5138
34.4701
-0.399017
-34.7154
-68.1241
-100.136
-127.519
-156.28
-183.76
-209.562
-233.545
-255.649
-275.868
-294.221
-310.742
-325.482
-338.494
-349.841
-359.586
-367.788
-374.502
-379.78
-383.668
-386.198
-387.368
-387.213
-385.728
-382.881
-378.683
-373.082
-366.041
-357.535
-347.478
-335.835
-322.544
-307.534
-290.777
-272.242
-251.882
-229.693
-205.706
-179.955
-152.589
-123.898
-96.8091
-66.4812
-34.8217
-2.26121
30.7732
63.9598
96.9408
129.341
160.803
190.966
219.444
245.87
269.884
291.15
309.33
324.121
335.285
342.501
345.517
344.683
339.992
331.278
318.597
302.131
282.108
258.822
232.633
203.92
173.113
140.63
106.928
72.4681
37.6866
3.00693
-31.1764
-64.5119
-96.697
-127.47
-156.613
-183.962
-209.404
-232.874
-254.345
-273.829
-291.364
-307.009
-320.835
-332.922
-343.343
-352.18
-359.515
-365.413
-369.94
-373.153
-375.08
-375.745
-375.216
-373.471
-370.514
-366.34
-360.918
-354.224
-346.223
-336.869
-326.113
-313.899
-300.174
-284.888
-267.988
-249.436
-229.206
-207.287
-183.689
-158.442
-131.606
-103.271
-73.551
-42.6145
-10.6765
22.0337
55.2303
88.5922
121.754
154.322
185.872
215.961
244.143
269.975
293.039
312.942
329.326
341.898
350.429
354.684
354.693
350.347
341.739
328.975
312.274
291.905
268.21
241.585
212.465
181.321
148.646
114.934
80.6648
46.2965
12.2489
-21.099
-53.4696
-84.5984
-114.274
-142.34
-168.685
-193.243
-215.975
-236.869
-255.949
-273.247
-288.807
-302.692
-314.967
-325.693
-334.936
-342.751
-349.198
-354.336
-358.216
-360.866
-362.308
-362.609
-361.753
-359.73
-356.518
-352.08
-346.362
-339.301
-330.817
-320.83
-309.258
-296.023
-281.052
-264.293
-245.708
-225.282
-203.025
-178.979
-153.21
-125.817
-96.9404
-66.7787
-35.019
-2.80773
30.0918
63.3213
96.5214
129.305
161.268
191.99
221.049
248.028
272.528
294.174
312.621
327.574
338.793
346.093
349.287
348.462
343.533
334.598
321.804
305.371
285.571
262.724
237.191
209.356
179.619
148.385
116.061
83.0554
49.7719
16.5966
-16.1154
-48.0455
-78.9203
-108.516
-136.66
-163.227
-188.135
-211.331
-232.792
-252.519
-270.527
-286.848
-301.524
-314.604
-326.144
-336.192
-344.787
-351.969
-357.766
-362.199
-365.257
-366.925
-367.259
-366.31
-363.963
-360.149
-354.807
-347.864
-339.242
-328.849
-316.6
-302.465
-286.378
-268.353
-248.41
-226.588
-202.974
-177.742
-151.155
-123.656
-95.5427
-64.0389
-28.1932
8.53741
45.0642
81.4312
117.415
152.738
187.125
220.183
251.544
280.869
307.76
331.899
352.959
370.658
384.781
395.144
401.59
404.147
403.141
398.172
389.337
376.88
361.041
342.044
320.171
295.783
269.202
240.813
210.968
180.041
148.431
116.481
84.5325
52.9348
21.8996
-7.8981
-36.6272
-64.5881
-91.5274
-117.226
-141.531
-164.351
-185.635
-205.338
-223.436
-239.92
-254.778
-268.008
-279.602
-289.561
-297.888
-304.586
-309.669
-313.143
-315.003
-314.865
-313.11
-309.733
-304.741
-298.151
-289.994
-280.275
-269.024
-256.257
-242.017
-226.347
-209.264
-190.795
290.599
310.653
327.398
340.669
350.34
356.207
357.951
355.437
348.91
338.461
324.102
306.079
284.664
260.136
232.876
203.24
171.64
138.534
104.341
69.4921
34.4338
-0.448255
-34.7773
-68.2007
-100.241
-127.572
-156.358
-183.846
-209.65
-233.633
-255.735
-275.951
-294.301
-310.818
-325.554
-338.563
-349.907
-359.649
-367.848
-374.56
-379.836
-383.722
-386.25
-387.419
-387.266
-385.781
-382.935
-378.738
-373.139
-366.1
-357.596
-347.543
-335.902
-322.614
-307.608
-290.853
-272.321
-251.962
-229.774
-205.787
-180.034
-152.661
-123.959
-96.8889
-66.5467
-34.8747
-2.30216
30.7443
63.944
96.9395
129.355
160.833
191.012
219.508
245.951
269.981
291.263
309.456
324.26
335.43
342.658
345.675
344.847
340.151
331.429
318.739
302.259
282.22
258.917
232.708
203.975
173.147
140.644
106.923
72.4439
37.6457
2.95095
-31.2452
-64.591
-96.7845
-127.563
-156.71
-184.061
-209.504
-232.973
-254.442
-273.922
-291.454
-307.096
-320.918
-333
-343.418
-352.252
-359.584
-365.48
-370.005
-373.216
-375.139
-375.806
-375.276
-373.531
-370.575
-366.402
-360.982
-354.289
-346.291
-336.939
-326.186
-313.975
-300.253
-284.969
-268.072
-249.522
-229.294
-207.376
-183.778
-158.531
-131.693
-103.354
-73.6299
-42.6872
-10.7407
21.9797
55.1886
88.5647
121.743
154.328
185.898
216.006
244.208
270.06
293.143
313.063
329.461
342.045
350.584
354.85
354.849
350.502
341.888
329.114
312.398
292.012
268.299
241.654
212.512
181.348
148.652
114.921
80.634
46.2502
12.1892
-21.168
-53.5472
-84.682
-114.362
-142.429
-168.776
-193.334
-216.064
-236.956
-256.033
-273.329
-288.885
-302.767
-315.039
-325.762
-335.002
-342.815
-349.26
-354.396
-358.274
-360.92
-362.364
-362.665
-361.809
-359.787
-356.577
-352.141
-346.426
-339.368
-330.888
-320.905
-309.337
-296.105
-281.138
-264.381
-245.798
-225.373
-203.116
-179.069
-153.298
-125.902
-97.0183
-66.8369
-35.1015
-2.86683
30.0462
63.2896
96.505
129.306
161.286
192.027
221.104
248.101
272.619
294.282
312.744
327.709
338.937
346.243
349.447
348.609
343.68
334.737
321.933
305.486
285.671
262.808
237.257
209.404
179.649
148.398
116.057
83.0358
49.7377
16.5494
-16.1736
-48.1128
-78.9946
-108.595
-136.742
-163.311
-188.22
-211.415
-232.875
-252.6
-270.606
-286.925
-301.598
-314.676
-326.213
-336.258
-344.852
-352.032
-357.828
-362.26
-365.317
-366.985
-367.321
-366.372
-364.026
-360.214
-354.874
-347.933
-339.313
-328.922
-316.674
-302.541
-286.455
-268.43
-248.486
-226.662
-203.046
-177.81
-151.218
-123.711
-95.585
-64.1159
-28.2284
8.51193
45.0438
81.4188
117.413
152.749
187.15
220.224
251.602
280.942
307.85
332.005
353.079
370.79
384.923
395.293
401.746
404.309
403.286
398.312
389.473
377.008
361.156
342.146
320.257
295.852
269.255
240.849
210.989
180.046
148.421
116.457
84.4969
52.8881
21.8491
-7.95415
-36.686
-64.6514
-91.5945
-117.295
-141.601
-164.423
-185.707
-205.409
-223.506
-239.989
-254.846
-268.075
-279.669
-289.627
-297.953
-304.65
-309.733
-313.206
-315.064
-314.928
-313.172
-309.795
-304.803
-298.212
-290.055
-280.336
-269.084
-256.318
-242.078
-226.407
-209.324
-190.855
290.788
310.874
327.648
340.944
350.633
356.512
358.292
355.749
349.224
338.755
324.374
306.322
284.875
260.313
233.016
203.34
171.703
138.559
104.33
69.4486
34.361
-0.546759
-34.901
-68.3535
-100.451
-127.676
-156.514
-184.019
-209.826
-233.807
-255.905
-276.116
-294.46
-310.971
-325.7
-338.702
-350.039
-359.775
-367.968
-374.675
-379.947
-383.829
-386.355
-387.521
-387.372
-385.886
-383.042
-378.847
-373.252
-366.218
-357.718
-347.671
-336.036
-322.754
-307.753
-291.004
-272.476
-252.121
-229.935
-205.947
-180.189
-152.804
-124.078
-97.0453
-66.6744
-34.9771
-2.38046
30.69
63.9162
96.9405
129.386
160.897
191.11
219.64
246.117
270.181
291.494
309.716
324.544
335.726
342.975
346.002
345.186
340.48
331.742
319.032
302.527
282.456
259.118
232.871
204.099
173.229
140.686
106.926
72.4102
37.5788
2.85438
-31.3669
-64.7331
-96.9429
-127.734
-156.888
-184.243
-209.687
-233.152
-254.617
-274.091
-291.615
-307.248
-321.062
-333.136
-343.547
-352.374
-359.699
-365.59
-370.11
-373.318
-375.235
-375.904
-375.372
-373.627
-370.673
-366.502
-361.084
-354.396
-346.402
-337.055
-326.307
-314.102
-300.386
-285.107
-268.215
-249.67
-229.445
-207.53
-183.933
-158.684
-131.842
-103.497
-73.7635
-42.8086
-10.8456
21.8951
55.1283
88.5323
121.742
154.362
185.97
216.117
244.359
270.251
293.37
313.324
329.751
342.357
350.912
355.201
355.178
350.831
342.201
329.406
312.662
292.242
268.491
241.805
212.622
181.414
148.678
114.908
80.5866
46.1718
12.0843
-21.2913
-53.6874
-84.8342
-114.522
-142.594
-168.942
-193.498
-216.225
-237.114
-256.186
-273.474
-289.025
-302.9
-315.165
-325.882
-335.116
-342.924
-349.365
-354.497
-358.372
-361.011
-362.457
-362.757
-361.902
-359.882
-356.675
-352.244
-346.535
-339.483
-331.01
-321.035
-309.474
-296.249
-281.288
-264.537
-245.958
-225.534
-203.278
-179.23
-153.455
-126.051
-97.1549
-66.9413
-35.2395
-2.9653
29.9741
63.245
96.4908
129.325
161.34
192.118
221.233
248.266
272.819
294.515
313.005
327.994
339.24
346.557
349.779
348.919
343.988
335.029
322.204
305.731
285.884
262.987
237.401
209.513
179.723
148.437
116.062
83.0091
49.6819
16.4678
-16.2772
-48.2343
-79.1297
-108.74
-136.893
-163.465
-188.374
-211.568
-233.026
-252.747
-270.748
-287.062
-301.73
-314.803
-326.335
-336.375
-344.965
-352.142
-357.936
-362.364
-365.42
-367.087
-367.429
-366.482
-364.138
-360.33
-354.994
-348.057
-339.442
-329.056
-316.813
-302.682
-286.599
-268.574
-248.628
-226.802
-203.181
-177.939
-151.338
-123.815
-95.6661
-64.2631
-28.2933
8.46531
45.0069
81.3975
117.412
152.773
187.203
220.308
251.72
281.093
308.034
332.219
353.321
371.056
385.208
395.593
402.06
404.635
403.577
398.595
389.746
377.264
361.388
342.349
320.429
295.991
269.36
240.921
211.029
180.055
148.402
116.41
84.4257
52.7945
21.7472
-8.06531
-36.8034
-64.778
-91.7289
-117.435
-141.743
-164.565
-185.849
-205.55
-223.646
-240.127
-254.982
-268.209
-279.801
-289.758
-298.083
-304.779
-309.86
-313.332
-315.186
-315.053
-313.296
-309.918
-304.925
-298.334
-290.177
-280.458
-269.206
-256.44
-242.199
-226.529
-209.445
-190.976
291.071
311.206
328.024
341.356
351.074
356.968
358.794
356.225
349.698
339.197
324.781
306.688
285.193
260.578
233.226
203.492
171.796
138.596
104.314
69.383
34.2517
-0.6946
-35.0862
-68.5815
-100.765
-127.834
-156.749
-184.278
-210.09
-234.069
-256.161
-276.364
-294.699
-311.199
-325.918
-338.91
-350.236
-359.963
-368.148
-374.848
-380.113
-383.99
-386.512
-387.676
-387.53
-386.044
-383.202
-379.01
-373.422
-366.394
-357.901
-347.863
-336.236
-322.963
-307.971
-291.23
-272.71
-252.36
-230.177
-206.187
-180.423
-153.019
-124.256
-97.2806
-66.866
-35.1308
-2.49834
30.6083
63.8742
96.9415
129.433
160.993
191.256
219.838
246.366
270.48
291.841
310.105
324.97
336.172
343.441
346.502
345.695
340.973
332.213
319.473
302.93
282.813
259.422
233.118
204.285
173.355
140.751
106.932
72.3616
37.4805
2.71145
-31.5476
-64.9442
-97.1787
-127.987
-157.154
-184.514
-209.958
-233.42
-254.877
-274.341
-291.854
-307.476
-321.277
-333.338
-343.738
-352.555
-359.87
-365.753
-370.267
-373.468
-375.378
-376.049
-375.514
-373.77
-370.819
-366.649
-361.236
-354.554
-346.566
-337.227
-326.487
-314.29
-300.583
-285.313
-268.428
-249.89
-229.67
-207.759
-184.162
-158.911
-132.064
-103.709
-73.9619
-42.9886
-11.0008
21.7703
55.0399
88.486
121.743
154.417
186.08
216.287
244.588
270.539
293.714
313.718
330.189
342.829
351.406
355.723
355.678
351.328
342.675
329.847
313.061
292.589
268.781
242.034
212.787
181.516
148.718
114.892
80.5174
46.056
11.9287
-21.4747
-53.8962
-85.0609
-114.76
-142.838
-169.189
-193.744
-216.467
-237.349
-256.413
-273.691
-289.232
-303.098
-315.353
-326.061
-335.286
-343.087
-349.521
-354.646
-358.515
-361.148
-362.595
-362.893
-362.039
-360.022
-356.821
-352.397
-346.696
-339.654
-331.192
-321.228
-309.679
-296.465
-281.513
-264.769
-246.195
-225.775
-203.52
-179.469
-153.688
-126.274
-97.3593
-67.1069
-35.4343
-3.11033
29.8679
63.18
96.4714
129.355
161.424
192.257
221.427
248.516
273.122
294.867
313.4
328.425
339.698
347.031
350.274
349.393
344.453
335.471
322.613
306.099
286.206
263.259
237.62
209.678
179.834
148.496
116.071
82.9708
49.5997
16.3469
-16.431
-48.4151
-79.3308
-108.956
-137.118
-163.694
-188.604
-211.797
-233.251
-252.967
-270.961
-287.267
-301.927
-314.991
-326.515
-336.549
-345.134
-352.306
-358.096
-362.519
-365.572
-367.243
-367.591
-366.645
-364.305
-360.504
-355.173
-348.244
-339.635
-329.257
-317.02
-302.895
-286.815
-268.79
-248.842
-227.011
-203.385
-178.134
-151.518
-123.973
-95.7919
-64.4816
-28.3886
8.39519
44.951
81.3651
117.411
152.81
187.283
220.435
251.894
281.319
308.308
332.54
353.684
371.454
385.636
396.043
402.53
405.115
404.02
399.023
390.158
377.649
361.735
342.653
320.687
296.2
269.519
241.03
211.089
180.069
148.373
116.34
84.3185
52.6538
21.5903
-8.22851
-36.9791
-64.9681
-91.9305
-117.644
-141.956
-164.779
-186.062
-205.761
-223.855
-240.333
-255.186
-268.411
-280.001
-289.955
-298.278
-304.972
-310.05
-313.52
-315.37
-315.241
-313.481
-310.102
-305.109
-298.517
-290.36
-280.64
-269.389
-256.623
-242.382
-226.71
-209.626
-191.156
291.45
311.649
328.525
341.907
351.663
357.578
359.442
356.871
350.329
339.785
325.324
307.176
285.617
260.933
233.505
203.694
171.919
138.645
104.292
69.2953
34.1055
-0.891883
-35.3325
-68.8831
-101.182
-128.048
-157.066
-184.625
-210.443
-234.418
-256.502
-276.695
-295.017
-311.504
-326.209
-339.186
-350.5
-360.214
-368.388
-375.078
-380.335
-384.205
-386.72
-387.883
-387.74
-386.254
-383.416
-379.228
-373.648
-366.629
-358.144
-348.119
-336.503
-323.243
-308.262
-291.531
-273.021
-252.678
-230.499
-206.508
-180.736
-153.306
-124.495
-97.5958
-67.1215
-35.3357
-2.65587
30.499
63.8176
96.9424
129.496
161.12
191.451
220.101
246.698
270.879
292.303
310.625
325.538
336.772
344.063
347.167
346.373
341.631
332.842
320.062
303.467
283.289
259.828
233.447
204.534
173.522
140.838
106.94
72.2969
37.3491
2.52066
-31.7887
-65.2259
-97.4933
-128.325
-157.508
-184.876
-210.32
-233.777
-255.224
-274.675
-292.172
-307.778
-321.563
-333.608
-343.992
-352.796
-360.098
-365.97
-370.474
-373.667
-375.572
-376.241
-375.704
-373.96
-371.012
-366.846
-361.438
-354.764
-346.785
-337.456
-326.726
-314.542
-300.846
-285.587
-268.712
-250.184
-229.971
-208.063
-184.468
-159.214
-132.36
-103.992
-74.2266
-43.2285
-11.2077
21.6039
54.9219
88.4241
121.745
154.489
186.228
216.513
244.894
270.924
294.174
314.244
330.773
343.459
352.066
356.408
356.357
351.993
343.309
330.437
313.593
293.053
269.169
242.341
213.009
181.652
148.773
114.869
80.4248
45.9014
11.7209
-21.7195
-54.1749
-85.3635
-115.078
-143.165
-169.519
-194.072
-216.788
-237.662
-256.715
-273.981
-289.509
-303.361
-315.603
-326.299
-335.512
-343.303
-349.729
-354.846
-358.706
-361.332
-362.778
-363.075
-362.222
-360.21
-357.016
-352.601
-346.911
-339.881
-331.434
-321.486
-309.952
-296.752
-281.813
-265.079
-246.512
-226.096
-203.842
-179.788
-153.999
-126.571
-97.6336
-67.34
-35.6822
-3.3026
29.7262
63.0932
96.4455
129.395
161.536
192.442
221.687
248.85
273.526
295.336
313.928
329.001
340.309
347.665
350.927
350.032
345.074
336.061
323.159
306.592
286.637
263.622
237.912
209.898
179.983
148.576
116.084
82.9197
49.49
16.1857
-16.6363
-48.6564
-79.5993
-109.243
-137.417
-164
-188.912
-212.102
-233.55
-253.259
-271.244
-287.54
-302.189
-315.242
-326.756
-336.781
-345.359
-352.525
-358.309
-362.726
-365.774
-367.452
-367.805
-366.863
-364.527
-360.736
-355.412
-348.493
-339.894
-329.525
-317.297
-303.179
-287.103
-269.079
-249.128
-227.291
-203.656
-178.392
-151.758
-124.186
-95.9664
-64.7692
-28.5118
8.30143
44.8758
81.3213
117.409
152.858
187.389
220.604
252.128
281.62
308.675
332.968
354.168
371.986
386.207
396.643
403.154
405.746
404.621
399.6
390.71
378.162
362.199
343.059
321.031
296.478
269.73
241.175
211.17
180.087
148.334
116.246
84.1752
52.4655
21.3778
-8.44371
-37.2129
-65.2217
-92.1996
-117.923
-142.24
-165.065
-186.347
-206.044
-224.134
-240.609
-255.458
-268.68
-280.266
-290.218
-298.537
-305.229
-310.304
-313.769
-315.618
-315.492
-313.728
-310.348
-305.355
-298.761
-290.604
-280.884
-269.633
-256.866
-242.624
-226.952
-209.868
-191.397
291.923
312.203
329.153
342.596
352.401
358.346
360.239
357.683
351.115
340.522
326.004
307.786
286.147
261.376
233.853
203.945
172.074
138.706
104.263
69.1849
33.9222
-1.13878
-35.6395
-69.2561
-101.695
-128.323
-157.469
-185.061
-210.884
-234.855
-256.929
-277.108
-295.415
-311.885
-326.572
-339.533
-350.83
-360.528
-368.688
-375.366
-380.613
-384.473
-386.98
-388.143
-388.001
-386.517
-383.683
-379.501
-373.931
-366.923
-358.448
-348.439
-336.837
-323.592
-308.625
-291.909
-273.41
-253.076
-230.903
-206.91
-181.128
-153.666
-124.792
-97.9922
-67.4405
-35.5918
-2.85318
30.3618
63.7463
96.9427
129.573
161.279
191.693
220.43
247.113
271.378
292.881
311.274
326.248
337.528
344.849
347.993
347.216
342.452
333.628
320.799
304.14
283.883
260.336
233.859
204.845
173.731
140.946
106.95
72.2152
37.184
2.28128
-32.0909
-65.5791
-97.8874
-128.749
-157.951
-185.328
-210.773
-234.223
-255.658
-275.093
-292.571
-308.157
-321.921
-333.945
-344.311
-353.097
-360.383
-366.241
-370.734
-373.915
-375.815
-376.481
-375.941
-374.198
-371.253
-367.092
-361.692
-355.027
-347.059
-337.742
-327.026
-314.856
-301.175
-285.93
-269.068
-250.55
-230.346
-208.445
-184.851
-159.594
-132.73
-104.347
-74.5585
-43.5291
-11.4672
21.3949
54.7734
88.3458
121.747
154.578
186.411
216.796
245.277
271.405
294.748
314.903
331.505
344.248
352.893
357.256
357.213
352.826
344.102
331.175
314.258
293.634
269.654
242.723
213.285
181.822
148.84
114.841
80.3083
45.7075
11.46
-22.0261
-54.5242
-85.7425
-115.476
-143.574
-169.931
-194.482
-217.191
-238.055
-257.093
-274.343
-289.855
-303.691
-315.916
-326.597
-335.796
-343.574
-349.989
-355.095
-358.943
-361.564
-363.007
-363.302
-362.451
-360.444
-357.259
-352.855
-347.18
-340.166
-331.737
-321.809
-310.294
-297.111
-282.187
-265.466
-246.909
-226.498
-204.246
-180.187
-154.389
-126.944
-97.979
-67.6425
-35.9826
-3.54223
29.5487
62.9841
96.4124
129.446
161.675
192.673
222.012
249.267
274.032
295.923
314.588
329.721
341.074
348.457
351.735
350.838
345.852
336.799
323.843
307.208
287.175
264.075
238.276
210.173
180.17
148.675
116.099
82.8551
49.3523
15.9834
-16.8937
-48.9588
-79.9358
-109.604
-137.793
-164.383
-189.296
-212.483
-233.925
-253.625
-271.599
-287.881
-302.517
-315.557
-327.058
-337.071
-345.64
-352.798
-358.575
-362.985
-366.028
-367.713
-368.07
-367.134
-364.806
-361.025
-355.712
-348.804
-340.217
-329.861
-317.643
-303.533
-287.463
-269.44
-249.485
-227.641
-203.995
-178.715
-152.058
-124.454
-96.1949
-65.1223
-28.6599
8.18374
44.7805
81.2655
117.406
152.918
187.521
220.814
252.418
281.996
309.133
333.503
354.773
372.651
386.92
397.393
403.931
406.526
405.381
400.326
391.401
378.803
362.778
343.567
321.46
296.826
269.994
241.356
211.27
180.11
148.284
116.128
83.9953
52.2293
21.1091
-8.71096
-37.5047
-65.539
-92.5366
-118.272
-142.596
-165.422
-186.703
-206.397
-224.483
-240.954
-255.798
-269.016
-280.598
-290.546
-298.862
-305.55
-310.62
-314.079
-315.928
-315.803
-314.037
-310.655
-305.661
-299.067
-290.909
-281.189
-269.937
-257.171
-242.928
-227.255
-210.17
-191.697
292.491
312.868
329.906
343.424
353.287
359.271
361.194
358.652
352.054
341.405
326.82
308.519
286.783
261.907
234.271
204.247
172.258
138.778
104.227
69.0516
33.7014
-1.43559
-36.0067
-69.6977
-102.292
-128.673
-157.96
-185.586
-211.415
-235.379
-257.442
-277.605
-295.893
-312.342
-327.008
-339.948
-351.225
-360.905
-369.048
-375.711
-380.946
-384.795
-387.294
-388.456
-388.313
-386.831
-384.003
-379.828
-374.27
-367.276
-358.815
-348.823
-337.238
-324.01
-309.062
-292.361
-273.877
-253.555
-231.387
-207.394
-181.601
-154.101
-125.147
-98.4711
-67.8225
-35.8988
-3.09049
30.1967
63.66
96.9422
129.665
161.468
191.984
220.824
247.61
271.975
293.575
312.054
327.102
338.438
345.8
348.982
348.223
343.437
334.572
321.683
304.947
284.597
260.945
234.353
205.218
173.98
141.074
106.96
72.1159
36.9843
1.99279
-32.4552
-66.0041
-98.3616
-129.259
-158.483
-185.872
-211.318
-234.76
-256.179
-275.595
-293.05
-308.611
-322.35
-334.35
-344.693
-353.459
-360.726
-366.566
-371.044
-374.213
-376.107
-376.769
-376.225
-374.484
-371.543
-367.387
-361.996
-355.342
-347.387
-338.086
-327.386
-315.233
-301.57
-286.341
-269.495
-250.991
-230.798
-208.903
-185.311
-160.05
-133.176
-104.773
-74.9578
-43.8906
-11.7797
21.1429
54.594
88.2507
121.748
154.685
186.631
217.134
245.735
271.982
295.438
315.694
332.383
345.195
353.887
358.274
358.241
353.827
345.056
332.061
315.057
294.331
270.237
243.182
213.615
182.025
148.92
114.805
80.1671
45.4735
11.145
-22.395
-54.9447
-86.1985
-115.955
-144.065
-170.427
-194.975
-217.675
-238.525
-257.548
-274.778
-290.271
-304.086
-316.291
-326.954
-336.136
-343.899
-350.3
-355.393
-359.229
-361.843
-363.281
-363.574
-362.726
-360.725
-357.551
-353.161
-347.502
-340.508
-332.101
-322.196
-310.704
-297.543
-282.638
-265.932
-247.386
-226.982
-204.731
-180.668
-154.857
-127.392
-98.3961
-68.0146
-36.3363
-3.82939
29.3348
62.8523
96.3717
129.505
161.841
192.949
222.4
249.767
274.638
296.628
315.38
330.586
341.993
349.411
352.703
351.807
346.788
337.687
324.665
307.947
287.82
264.619
238.714
210.503
180.392
148.793
116.116
82.7767
49.1861
15.7394
-17.2039
-49.3228
-80.3407
-110.037
-138.244
-164.843
-189.757
-212.941
-234.375
-254.064
-272.025
-288.291
-302.91
-315.934
-327.419
-337.419
-345.977
-353.126
-358.895
-363.297
-366.335
-368.023
-368.388
-367.46
-365.14
-361.372
-356.071
-349.177
-340.605
-330.264
-318.059
-303.959
-287.896
-269.874
-249.914
-228.062
-204.401
-179.103
-152.419
-124.78
-96.4834
-65.537
-28.8296
8.04163
44.6645
81.197
117.401
152.988
187.678
221.067
252.768
282.447
309.683
334.146
355.5
373.45
387.777
398.293
404.861
407.459
406.297
401.202
392.233
379.575
363.475
344.177
321.976
297.243
270.31
241.572
211.389
180.137
148.224
115.986
83.7785
51.9445
20.7829
-9.03024
-37.8542
-65.9203
-92.9416
-118.691
-143.023
-165.851
-187.13
-206.821
-224.902
-241.367
-256.207
-269.419
-280.997
-290.94
-299.252
-305.935
-311
-314.453
-316.298
-316.177
-314.407
-311.025
-306.028
-299.433
-291.275
-281.554
-270.303
-257.536
-243.292
-227.619
-210.532
-192.058
293.154
313.644
330.786
344.392
354.324
360.355
362.311
359.777
353.147
342.437
327.774
309.375
287.526
262.528
234.759
204.599
172.473
138.861
104.185
68.8948
33.4426
-1.78275
-36.4337
-70.205
-102.945
-129.127
-158.545
-186.203
-212.036
-235.992
-258.04
-278.185
-296.451
-312.875
-327.517
-340.432
-351.686
-361.345
-369.468
-376.114
-381.334
-385.172
-387.661
-388.82
-388.677
-387.197
-384.376
-380.21
-374.665
-367.687
-359.242
-349.271
-337.707
-324.499
-309.571
-292.89
-274.422
-254.113
-231.953
-207.959
-182.155
-154.611
-125.56
-99.034
-68.2668
-36.2568
-3.36815
30.0031
63.5581
96.9404
129.77
161.689
192.322
221.282
248.189
272.672
294.383
312.964
328.099
339.505
346.915
350.137
349.395
344.587
335.675
322.716
305.889
285.431
261.656
234.928
205.653
174.27
141.221
106.971
71.9983
36.7495
1.65438
-32.8822
-66.502
-98.9166
-129.856
-159.106
-186.508
-211.954
-235.387
-256.788
-276.181
-293.609
-309.141
-322.852
-334.822
-345.139
-353.88
-361.125
-366.946
-371.407
-374.562
-376.448
-377.104
-376.558
-374.817
-371.881
-367.732
-362.351
-355.71
-347.77
-338.487
-327.806
-315.673
-302.031
-286.822
-269.995
-251.506
-231.326
-209.439
-185.849
-160.583
-133.696
-105.273
-75.4251
-44.3134
-12.1458
20.8474
54.3829
88.1381
121.747
154.807
186.885
217.527
246.27
272.655
296.243
316.617
333.409
346.302
355.049
359.465
359.44
354.997
346.17
333.096
315.991
295.145
270.916
243.717
214
182.261
149.011
114.762
80.0008
45.1989
10.7749
-22.8267
-55.4372
-86.7321
-116.515
-144.64
-171.007
-195.551
-218.24
-239.075
-258.078
-275.286
-290.756
-304.548
-316.729
-327.371
-336.534
-344.279
-350.664
-355.742
-359.563
-362.168
-363.6
-363.891
-363.046
-361.053
-357.891
-353.517
-347.878
-340.907
-332.525
-322.647
-311.182
-298.047
-283.164
-266.476
-247.943
-227.547
-205.298
-181.229
-155.405
-127.916
-98.8856
-68.4565
-36.7442
-4.16456
29.084
62.6971
96.3229
129.573
162.034
193.271
222.854
250.351
275.346
297.451
316.305
331.596
343.067
350.525
353.835
352.937
347.881
338.723
325.624
308.811
288.574
265.254
239.224
210.887
180.652
148.93
116.135
82.6841
48.9908
15.4532
-17.5674
-49.7492
-80.8145
-110.544
-138.772
-165.38
-190.296
-213.476
-234.901
-254.577
-272.522
-288.77
-303.37
-316.374
-327.841
-337.824
-346.369
-353.509
-359.268
-363.662
-366.695
-368.383
-368.757
-367.84
-365.53
-361.777
-356.49
-349.613
-341.057
-330.734
-318.544
-304.457
-288.401
-270.381
-250.415
-228.552
-204.876
-179.555
-152.84
-125.164
-96.8384
-66.0085
-29.0173
7.8742
44.5268
81.1152
117.393
153.069
187.86
221.36
253.178
282.974
310.325
334.897
356.349
374.382
388.777
399.344
405.945
408.549
407.367
402.229
393.206
380.475
364.287
344.889
322.578
297.729
270.679
241.824
211.527
180.167
148.153
115.82
83.5243
51.6103
20.3977
-9.40113
-38.2612
-66.3659
-93.4152
-119.182
-143.521
-166.352
-187.629
-207.315
-225.391
-241.85
-256.683
-269.889
-281.462
-291.399
-299.706
-306.385
-311.443
-314.889
-316.729
-316.612
-314.839
-311.457
-306.456
-299.86
-291.703
-281.981
-270.73
-257.962
-243.717
-228.042
-210.955
-192.479
293.911
314.532
331.792
345.499
355.51
361.598
363.589
361.06
354.394
343.618
328.864
310.354
288.377
263.236
235.315
205.001
172.717
138.954
104.134
68.7138
33.1449
-2.18098
-36.92
-70.7754
-103.63
-129.711
-159.226
-186.912
-212.747
-236.694
-258.724
-278.848
-297.088
-313.485
-328.099
-340.986
-352.213
-361.847
-369.948
-376.574
-381.777
-385.602
-388.08
-389.236
-389.092
-387.614
-384.802
-380.646
-375.116
-368.157
-359.731
-349.782
-338.242
-325.057
-310.153
-293.494
-275.046
-254.752
-232.6
-208.608
-182.791
-155.2
-126.032
-99.6817
-68.772
-36.6657
-3.68646
29.7807
63.4403
96.9369
129.89
161.939
192.708
221.805
248.851
273.469
295.308
314.004
329.24
340.726
348.195
351.458
350.732
345.902
336.936
323.898
306.968
286.384
262.468
235.586
206.148
174.6
141.389
106.982
71.8615
36.4788
1.26522
-33.3728
-67.0733
-99.5532
-130.54
-159.821
-187.237
-212.683
-236.104
-257.486
-276.851
-294.248
-309.747
-323.425
-335.363
-345.648
-354.362
-361.581
-367.38
-371.821
-374.961
-376.837
-377.486
-376.937
-375.198
-372.266
-368.126
-362.757
-356.131
-348.208
-338.945
-328.287
-316.177
-302.558
-287.372
-270.565
-252.095
-231.93
-210.052
-186.464
-161.194
-134.293
-105.846
-75.9612
-44.7983
-12.5662
20.5077
54.1396
88.0076
121.745
154.946
187.176
217.976
246.88
273.425
297.163
317.675
334.584
347.569
356.38
360.829
360.81
356.335
347.446
334.281
317.059
296.076
271.693
244.327
214.44
182.529
149.114
114.71
79.8085
44.8831
10.3494
-23.3222
-56.0026
-87.3439
-117.157
-145.298
-171.67
-196.21
-218.887
-239.704
-258.685
-275.868
-291.31
-305.075
-317.23
-327.847
-336.988
-344.713
-351.079
-356.139
-359.945
-362.539
-363.964
-364.253
-363.411
-361.428
-358.28
-353.924
-348.308
-341.363
-333.011
-323.164
-311.73
-298.623
-283.765
-267.099
-248.581
-228.194
-205.947
-181.871
-156.032
-128.517
-99.448
-68.9671
-37.2085
-4.54823
28.796
62.5181
96.2656
129.65
162.253
193.639
223.372
251.017
276.156
298.392
317.364
332.752
344.297
351.802
355.132
354.228
349.133
339.91
326.722
309.799
289.437
265.979
239.807
211.325
180.947
149.086
116.156
82.5768
48.7659
15.1239
-17.985
-50.2386
-81.358
-111.125
-139.376
-165.996
-190.914
-214.088
-235.502
-255.164
-273.09
-289.317
-303.895
-316.877
-328.323
-338.288
-346.818
-353.946
-359.695
-364.079
-367.105
-368.793
-369.178
-368.273
-365.976
-362.239
-356.969
-350.111
-341.574
-331.271
-319.099
-305.025
-288.979
-270.961
-250.988
-229.113
-205.418
-180.071
-153.322
-125.606
-97.2657
-66.5321
-29.2205
7.68019
44.3661
81.0191
117.382
153.16
188.067
221.693
253.646
283.576
311.059
335.755
357.319
375.449
389.922
400.546
407.183
409.796
408.591
403.407
394.32
381.506
365.217
345.703
323.265
298.285
271.1
242.111
211.685
180.2
148.07
115.629
83.2322
51.2258
19.951
-9.82271
-38.7255
-66.8761
-93.9579
-119.743
-144.092
-166.925
-188.199
-207.881
-225.95
-242.402
-257.228
-270.427
-281.993
-291.925
-300.226
-306.899
-311.95
-315.39
-317.22
-317.109
-315.332
-311.95
-306.945
-300.349
-292.191
-282.469
-271.218
-258.449
-244.202
-228.527
-211.439
-192.961
294.763
315.531
332.925
346.746
356.848
362.999
365.03
362.502
355.797
344.947
330.093
311.456
289.335
264.034
235.94
205.452
172.991
139.057
104.076
68.508
32.8077
-2.6311
-37.4656
-71.4078
-104.349
-130.422
-160.007
-187.714
-213.549
-237.484
-259.496
-279.594
-297.806
-314.172
-328.753
-341.609
-352.806
-362.411
-370.487
-377.091
-382.276
-386.085
-388.553
-389.703
-389.561
-388.082
-385.281
-381.138
-375.622
-368.685
-360.281
-350.357
-338.846
-325.685
-310.808
-294.175
-275.749
-255.472
-233.33
-209.339
-183.509
-155.869
-126.566
-100.413
-69.3363
-37.1252
-4.0458
29.5287
63.3059
96.9312
130.023
162.22
193.14
222.393
249.594
274.364
296.347
315.175
330.524
342.104
349.639
352.946
352.236
347.382
338.357
325.229
308.182
287.457
263.381
236.325
206.705
174.97
141.575
106.992
71.7043
36.1716
0.824429
-33.928
-67.7188
-100.272
-131.312
-160.627
-188.059
-213.504
-236.913
-258.271
-277.606
-294.968
-310.429
-324.069
-335.971
-346.221
-354.903
-362.095
-367.868
-372.287
-375.409
-377.275
-377.916
-377.364
-375.625
-372.7
-368.569
-363.213
-356.604
-348.701
-339.46
-328.827
-316.743
-303.151
-287.99
-271.208
-252.759
-232.61
-210.743
-187.158
-161.883
-134.966
-106.491
-76.5668
-45.3459
-13.0415
20.1229
53.8631
87.8582
121.739
155.1
187.501
218.48
247.566
274.291
298.199
318.865
335.907
348.997
357.88
362.367
362.355
357.843
348.884
335.616
318.263
297.125
272.567
245.014
214.933
182.829
149.228
114.649
79.5893
44.525
9.86874
-23.8837
-56.6419
-88.0346
-117.881
-146.04
-172.418
-196.953
-219.616
-240.413
-259.369
-276.522
-291.934
-305.669
-317.794
-328.384
-337.499
-345.2
-351.546
-356.587
-360.375
-362.956
-364.373
-364.66
-363.822
-361.85
-358.716
-354.381
-348.791
-341.875
-333.557
-323.745
-312.346
-299.272
-284.443
-267.8
-249.3
-228.923
-206.679
-182.596
-156.74
-129.196
-100.084
-69.5466
-37.7305
-4.98103
28.4699
62.3144
96.1991
129.734