/*--------------------------------*- C++ -*----------------------------------*\
| =========                 |                                                 |
| \\      /  F ield         | OpenFOAM: The Open Source CFD Toolbox           |
|  \\    /   O peration     | Version:  3.0.1                                 |
|   \\  /    A nd           | Web:      www.OpenFOAM.org                      |
|    \\/     M anipulation  |                                                 |
\*---------------------------------------------------------------------------*/
FoamFile
{
    version     2.0;
    format      ascii;
    class       surfaceScalarField;
    location    "95.6";
    object      phi;
}
// * * * * * * * * * * * * * * * * * * * * * * * * * * * * * * * * * * * * * //

dimensions      [0 3 -1 0 0 0 0];

internalField   nonuniform List<scalar> 
42423
(
-0.000147891
-9.70634e-07
-0.000146268
-1.62287e-06
-0.000144027
-2.24188e-06
-0.000141147
-2.87941e-06
-0.000137485
-3.66259e-06
-0.000133152
-4.33275e-06
-0.00012793
-5.22211e-06
-0.00012199
-5.9399e-06
-0.000115394
-6.59612e-06
-0.000107839
-7.55432e-06
-9.9367e-05
-8.47247e-06
-9.01096e-05
-9.25735e-06
-7.975e-05
-1.03597e-05
-6.85447e-05
-1.12053e-05
-5.63081e-05
-1.22366e-05
-4.30222e-05
-1.32859e-05
-2.89833e-05
-1.4039e-05
-1.41111e-05
-1.48722e-05
1.72688e-06
-1.5838e-05
1.81704e-05
-1.64435e-05
3.53429e-05
-1.71726e-05
5.31109e-05
-1.77681e-05
7.1128e-05
-1.80171e-05
8.93718e-05
-1.82438e-05
0.000107608
-1.82366e-05
0.000125657
-1.80489e-05
0.00014333
-1.76733e-05
0.000160241
-1.69108e-05
0.000176194
-1.59524e-05
0.000190998
-1.48046e-05
0.000204331
-1.33331e-05
0.000216076
-1.17453e-05
0.000225941
-9.86444e-06
0.000233779
-7.83812e-06
0.000239484
-5.70482e-06
0.00024288
-3.39638e-06
0.000243922
-1.04165e-06
0.000242636
1.28532e-06
0.000238847
3.78905e-06
0.000232873
5.97414e-06
0.000224704
8.16905e-06
0.000214618
1.00857e-05
0.000202758
1.18605e-05
0.000189202
1.35557e-05
0.000174297
1.49046e-05
0.000158234
1.60633e-05
0.000141252
1.6982e-05
0.000123658
1.75934e-05
0.000105658
1.8e-05
8.73602e-05
1.82982e-05
6.90704e-05
1.82898e-05
5.11038e-05
1.79666e-05
3.3357e-05
1.77468e-05
1.61486e-05
1.72083e-05
-4.47336e-07
1.6596e-05
-1.63183e-05
1.58709e-05
-3.14159e-05
1.50976e-05
-4.56168e-05
1.42009e-05
-5.89201e-05
1.33033e-05
-7.12933e-05
1.23732e-05
-8.27075e-05
1.14142e-05
-9.32267e-05
1.05192e-05
-0.000102781
9.5546e-06
-0.000111447
8.6659e-06
-0.000119238
7.79038e-06
-0.00012619
6.95221e-06
-0.000132252
6.06251e-06
-0.000137533
5.28118e-06
-0.000141959
4.42584e-06
-0.000145798
3.83848e-06
-0.000148845
3.04706e-06
-0.000151133
2.28765e-06
-0.000152827
1.69432e-06
-0.000153861
1.034e-06
-0.000154156
2.9566e-07
-0.000153802
-3.54563e-07
-0.000152631
-1.17066e-06
-0.000150693
-1.9386e-06
-0.000148123
-2.56963e-06
-0.000144641
-3.48187e-06
-0.000140464
-4.17752e-06
-0.000135487
-4.9766e-06
-0.000129654
-5.83334e-06
-0.000122977
-6.67648e-06
-0.000115446
-7.53168e-06
-0.000107058
-8.38737e-06
-9.78106e-05
-9.24769e-06
-8.76497e-05
-1.01609e-05
-7.65837e-05
-1.1066e-05
-6.46016e-05
-1.19822e-05
-5.16615e-05
-1.29401e-05
-3.77145e-05
-1.3947e-05
-2.28598e-05
-1.48548e-05
-7.14927e-06
-1.57106e-05
9.26431e-06
-1.64136e-05
2.6254e-05
-1.69897e-05
4.36606e-05
-1.74066e-05
6.13146e-05
-1.76541e-05
7.90655e-05
-1.77509e-05
9.67623e-05
-1.76969e-05
0.000114224
-1.74622e-05
0.000131286
-1.70619e-05
0.000147766
-1.64795e-05
0.000163442
-1.56759e-05
0.000178139
-1.46972e-05
0.000191633
-1.3494e-05
0.000203692
-1.20596e-05
0.00021419
-1.04979e-05
0.000222861
-8.67151e-06
0.000229581
-6.71971e-06
0.000234217
-4.63557e-06
0.000236623
-2.40635e-06
0.00023679
-1.66646e-07
0.00023464
2.14927e-06
0.000230108
4.53237e-06
0.000223301
6.8064e-06
0.000214315
8.986e-06
0.000203275
1.10407e-05
0.000190357
1.29176e-05
0.000175794
1.45627e-05
0.00015978
1.6014e-05
0.000142577
1.72029e-05
0.000124471
1.8106e-05
0.000105712
1.87588e-05
8.65915e-05
1.91209e-05
6.72838e-05
1.93077e-05
4.81267e-05
1.91571e-05
2.92508e-05
1.88759e-05
1.08969e-05
1.83538e-05
-6.77424e-06
1.76711e-05
-2.37654e-05
1.69911e-05
-3.97533e-05
1.59879e-05
-5.4758e-05
1.50046e-05
-6.88021e-05
1.40441e-05
-8.16599e-05
1.28578e-05
-9.34276e-05
1.17677e-05
-0.000104132
1.07045e-05
-0.000113647
9.51493e-06
-0.00012214
8.49324e-06
-0.000129534
7.39408e-06
-0.000135956
6.42189e-06
-0.000141409
5.45243e-06
-0.000145965
4.5558e-06
-0.000149667
3.70259e-06
-0.000152616
2.94875e-06
-0.000154825
2.20954e-06
-0.000156338
1.51238e-06
-0.000157183
8.45245e-07
-0.000157424
2.40851e-07
-0.000157066
-3.57963e-07
-0.000156037
-1.02892e-06
-0.000154596
-1.44134e-06
-0.000152506
-2.08993e-06
-0.000149848
-2.65756e-06
-0.000146554
-3.29435e-06
-0.000142766
-3.78789e-06
-0.000138223
-4.54334e-06
-0.000133151
-5.0712e-06
-0.00012735
-5.80139e-06
-0.000120823
-6.52683e-06
-0.000113555
-7.26801e-06
-0.000105491
-8.06473e-06
-9.66409e-05
-8.84976e-06
-8.69932e-05
-9.64765e-06
-7.6512e-05
-1.04813e-05
-6.5235e-05
-1.1277e-05
-5.31185e-05
-1.21165e-05
-4.02414e-05
-1.28771e-05
-2.66039e-05
-1.36375e-05
-1.22644e-05
-1.43396e-05
2.73477e-06
-1.49992e-05
1.83274e-05
-1.55927e-05
3.43912e-05
-1.60639e-05
5.08436e-05
-1.64524e-05
6.75259e-05
-1.66824e-05
8.42712e-05
-1.67453e-05
0.000100893
-1.66213e-05
0.000117172
-1.62798e-05
0.000132861
-1.56884e-05
0.000147725
-1.48646e-05
0.000161435
-1.37103e-05
0.000173781
-1.23454e-05
0.000184499
-1.07182e-05
0.000193365
-8.86599e-06
0.000200177
-6.81217e-06
0.000204749
-4.57179e-06
0.000206973
-2.22416e-06
0.000206831
1.42312e-07
0.000204252
2.57822e-06
0.000199184
5.0684e-06
0.00019177
7.41345e-06
0.000182145
9.62536e-06
0.000170504
1.16405e-05
0.000157045
1.34598e-05
0.000142001
1.5044e-05
0.000125637
1.63632e-05
0.000108235
1.74021e-05
9.00297e-05
1.82055e-05
7.13366e-05
1.86931e-05
5.23665e-05
1.89701e-05
3.34978e-05
1.88687e-05
1.50238e-05
1.8474e-05
-2.83791e-06
1.78617e-05
-2.00092e-05
1.71712e-05
-3.61765e-05
1.61674e-05
-5.14345e-05
1.5258e-05
-6.56034e-05
1.41688e-05
-7.87445e-05
1.31412e-05
-9.09712e-05
1.22266e-05
-0.000102155
1.11835e-05
-0.000112373
1.02179e-05
-0.000121662
9.28968e-06
-0.000129945
8.28227e-06
-0.000137332
7.38766e-06
-0.000143759
6.42696e-06
-0.000149305
5.54553e-06
-0.000153983
4.67798e-06
-0.000157912
3.92934e-06
-0.000161062
3.15028e-06
-0.000163553
2.49094e-06
-0.000165424
1.87092e-06
-0.000166746
1.32171e-06
-0.000167529
7.82685e-07
-0.000167813
2.84659e-07
-0.000167638
-1.75719e-07
-0.000166935
-7.03039e-07
-0.00016577
-1.16487e-06
-0.000164092
-1.67757e-06
-0.000161888
-2.20436e-06
-0.000159112
-2.77561e-06
-0.00015593
-3.18179e-06
-0.000152092
-3.83878e-06
-0.000147685
-4.40686e-06
-0.00014261
-5.07469e-06
-0.000136771
-5.839e-06
-0.000130301
-6.47031e-06
-0.000122994
-7.30638e-06
-0.000114866
-8.12867e-06
-0.000105898
-8.96747e-06
-9.61208e-05
-9.77757e-06
-8.55039e-05
-1.06169e-05
-7.41495e-05
-1.13545e-05
-6.19802e-05
-1.21693e-05
-4.90789e-05
-1.29013e-05
-3.54177e-05
-1.36613e-05
-2.10976e-05
-1.43202e-05
-6.15644e-06
-1.49412e-05
9.29275e-06
-1.54492e-05
2.51203e-05
-1.58276e-05
4.11219e-05
-1.60016e-05
5.71643e-05
-1.60425e-05
7.30283e-05
-1.5864e-05
8.85146e-05
-1.54864e-05
0.000103402
-1.48876e-05
0.000117473
-1.40708e-05
0.00013045
-1.29773e-05
0.000142084
-1.16335e-05
0.000152091
-1.00072e-05
0.000160245
-8.15424e-06
0.000166334
-6.08869e-06
0.000170226
-3.89244e-06
0.000171827
-1.60072e-06
0.000171183
6.43923e-07
0.000168174
3.00905e-06
0.000162892
5.2819e-06
0.000155542
7.34964e-06
0.000146235
9.30746e-06
0.00013507
1.11647e-05
0.000122385
1.26845e-05
0.000108446
1.39388e-05
9.34877e-05
1.49588e-05
7.76844e-05
1.58032e-05
6.15474e-05
1.6137e-05
4.50611e-05
1.64862e-05
2.87372e-05
1.63239e-05
1.25994e-05
1.61378e-05
-3.1003e-06
1.56997e-05
-1.81741e-05
1.50738e-05
-3.2407e-05
1.42329e-05
-4.56995e-05
1.32924e-05
-5.79913e-05
1.22919e-05
-6.92795e-05
1.12881e-05
-7.97461e-05
1.04666e-05
-8.94816e-05
9.73552e-06
-9.86439e-05
9.16229e-06
-0.000107333
8.68929e-06
-0.000115486
8.1525e-06
-0.000123113
7.62753e-06
-0.000130328
7.21521e-06
-0.000136963
6.63425e-06
-0.000143103
6.14058e-06
-0.0001486
5.49683e-06
-0.000153443
4.84275e-06
-0.000157693
4.24963e-06
-0.000161239
3.5461e-06
-0.000164069
2.82998e-06
-0.000166205
2.13621e-06
-0.000167524
1.31924e-06
-0.000168043
5.19028e-07
-0.000167895
-1.47864e-07
-0.000167064
-8.31439e-07
-0.000165579
-1.48456e-06
-0.00016335
-2.22971e-06
-0.000160264
-3.08522e-06
-0.000156376
-3.88864e-06
-0.000151647
-4.72868e-06
-0.000145826
-5.8209e-06
-0.000139151
-6.67509e-06
-0.000131309
-7.84257e-06
-0.000122491
-8.81727e-06
-0.000112749
-9.74265e-06
-0.000101824
-1.09244e-05
-8.98544e-05
-1.19699e-05
-7.69155e-05
-1.29389e-05
-6.29264e-05
-1.39892e-05
-4.80644e-05
-1.48621e-05
-3.22278e-05
-1.58366e-05
-1.53776e-05
-1.68503e-05
2.02283e-06
-1.74005e-05
2.00439e-05
-1.80211e-05
3.85162e-05
-1.84723e-05
5.71491e-05
-1.8633e-05
7.59366e-05
-1.87875e-05
9.45919e-05
-1.86553e-05
0.000112956
-1.83639e-05
0.000130732
-1.77765e-05
0.000147537
-1.68053e-05
0.000163212
-1.56742e-05
0.000177504
-1.4292e-05
0.000190125
-1.26211e-05
0.000200869
-1.07445e-05
0.000209559
-8.68973e-06
0.000215986
-6.42745e-06
0.000220063
-4.0769e-06
0.000221672
-1.60871e-06
0.000220892
7.79815e-07
0.000217684
3.20733e-06
0.000211941
5.74391e-06
0.000203973
7.96763e-06
0.000193924
1.00491e-05
0.000181812
1.21113e-05
0.000167971
1.38411e-05
0.000152635
1.53359e-05
0.000136137
1.64979e-05
0.000118697
1.74407e-05
0.000100413
1.82834e-05
8.1677e-05
1.87362e-05
6.27399e-05
1.8937e-05
4.38206e-05
1.89192e-05
2.50488e-05
1.87718e-05
6.5623e-06
1.84865e-05
-1.13276e-05
1.78899e-05
-2.86164e-05
1.72887e-05
-4.51562e-05
1.65398e-05
-6.07871e-05
1.56309e-05
-7.55422e-05
1.47552e-05
1.36532e-05
-0.00014792
-1.93631e-06
-0.000146301
-3.2424e-06
-0.000144062
-4.48054e-06
-0.000141186
-5.75545e-06
-0.000137526
-7.32215e-06
-0.000133192
-8.66711e-06
-0.000127971
-1.0443e-05
-0.000122033
-1.18778e-05
-0.00011544
-1.31895e-05
-0.000107888
-1.51064e-05
-9.9423e-05
-1.69375e-05
-9.01548e-05
-1.85255e-05
-7.97975e-05
-2.0717e-05
-6.85932e-05
-2.24097e-05
-5.63475e-05
-2.44823e-05
-4.30638e-05
-2.65697e-05
-2.90313e-05
-2.80715e-05
-1.41506e-05
-2.97529e-05
1.69553e-06
-3.16843e-05
1.81452e-05
-3.28933e-05
3.53244e-05
-3.43519e-05
5.30982e-05
-3.55419e-05
7.11222e-05
-3.60412e-05
8.93811e-05
-3.65028e-05
0.000107636
-3.64914e-05
0.000125701
-3.61138e-05
0.000143377
-3.53499e-05
0.000160294
-3.38277e-05
0.000176257
-3.19151e-05
0.000191076
-2.96238e-05
0.00020442
-2.66771e-05
0.00021617
-2.34954e-05
0.000226044
-1.97385e-05
0.000233889
-1.56839e-05
0.000239599
-1.14147e-05
0.000242996
-6.79334e-06
0.000244041
-2.08696e-06
0.000242745
2.58159e-06
0.000238954
7.58007e-06
0.000232981
1.1947e-05
0.000224806
1.63443e-05
0.000214712
2.0179e-05
0.000202843
2.37293e-05
0.000189278
2.71207e-05
0.000174364
2.98187e-05
0.000158294
3.2134e-05
0.000141298
3.3978e-05
0.000123693
3.51985e-05
0.000105686
3.60063e-05
8.73776e-05
3.66067e-05
6.90761e-05
3.65913e-05
5.10984e-05
3.59443e-05
3.33507e-05
3.54945e-05
1.61353e-05
3.44237e-05
-4.66985e-07
3.31982e-05
-1.63443e-05
3.17482e-05
-3.14491e-05
3.02024e-05
-4.56571e-05
2.84089e-05
-5.8966e-05
2.66122e-05
-7.1345e-05
2.47522e-05
-8.27612e-05
2.28304e-05
-9.32868e-05
2.10448e-05
-0.000102843
1.91106e-05
-0.00011151
1.73328e-05
-0.000119303
1.55842e-05
-0.000126259
1.39075e-05
-0.00013232
1.21235e-05
-0.000137605
1.05665e-05
-0.000142045
8.86543e-06
-0.000145864
7.65828e-06
-0.000148912
6.09449e-06
-0.000151193
4.5684e-06
-0.000152889
3.39056e-06
-0.000153929
2.07433e-06
-0.000154217
5.8385e-07
-0.000153868
-7.0407e-07
-0.00015269
-2.34847e-06
-0.000150754
-3.87474e-06
-0.000148189
-5.13486e-06
-0.000144713
-6.95764e-06
-0.000140531
-8.35957e-06
-0.000135557
-9.9502e-06
-0.000129722
-1.16686e-05
-0.000123037
-1.33619e-05
-0.000115502
-1.50668e-05
-0.000107109
-1.67803e-05
-9.7854e-05
-1.85025e-05
-8.76919e-05
-2.03231e-05
-7.66204e-05
-2.21376e-05
-6.46282e-05
-2.39745e-05
-5.16821e-05
-2.58863e-05
-3.77282e-05
-2.7901e-05
-2.28648e-05
-2.97182e-05
-7.14676e-06
-3.14287e-05
9.29285e-06
-3.28533e-05
2.63042e-05
-3.40012e-05
4.37267e-05
-3.48292e-05
6.1402e-05
-3.53295e-05
7.91652e-05
-3.55142e-05
9.68795e-05
-3.54112e-05
0.000114352
-3.49349e-05
0.000131431
-3.41407e-05
0.000147943
-3.29916e-05
0.000163619
-3.13524e-05
0.000178326
-2.94037e-05
0.000191833
-2.70014e-05
0.000203904
-2.41307e-05
0.00021442
-2.10139e-05
0.000223086
-1.7338e-05
0.000229809
-1.34422e-05
0.000234439
-9.26585e-06
0.000236847
-4.8146e-06
0.000237006
-3.25658e-07
0.000234839
4.31612e-06
0.0002303
9.07092e-06
0.000223485
1.36214e-05
0.00021448
1.79915e-05
0.000203411
2.21088e-05
0.000190469
2.58601e-05
0.00017588
2.91515e-05
0.000159838
3.20562e-05
0.000142605
3.44357e-05
0.000124469
3.62415e-05
0.000105675
3.75534e-05
8.65157e-05
3.82798e-05
6.71956e-05
3.86278e-05
4.80071e-05
3.83456e-05
2.9101e-05
3.7782e-05
1.07135e-05
3.67413e-05
-7.00109e-06
3.53857e-05
-2.39713e-05
3.39613e-05
-3.99853e-05
3.20019e-05
-5.50337e-05
3.0053e-05
-6.90685e-05
2.80789e-05
-8.19519e-05
2.57411e-05
-9.37314e-05
2.35473e-05
-0.000104441
2.14141e-05
-0.000113975
1.90487e-05
-0.000122439
1.69578e-05
-0.000129872
1.48272e-05
-0.000136222
1.27714e-05
-0.000141748
1.09784e-05
-0.000146299
9.10644e-06
-0.000150026
7.4299e-06
-0.000152958
5.88076e-06
-0.000155151
4.40213e-06
-0.00015665
3.01139e-06
-0.000157498
1.69372e-06
-0.000157723
4.6607e-07
-0.000157354
-7.27117e-07
-0.000156376
-2.00736e-06
-0.000154889
-2.92786e-06
-0.000152789
-4.18976e-06
-0.000150117
-5.33004e-06
-0.000146801
-6.61043e-06
-0.000142948
-7.64106e-06
-0.000138507
-8.98398e-06
-0.000133373
-1.02051e-05
-0.000127562
-1.16127e-05
-0.000121018
-1.30705e-05
-0.000113725
-1.45613e-05
-0.000105677
-1.6113e-05
-9.68083e-05
-1.77184e-05
-8.70952e-05
-1.93608e-05
-7.66438e-05
-2.09327e-05
-6.53528e-05
-2.25682e-05
-5.32357e-05
-2.42337e-05
-4.03476e-05
-2.57653e-05
-2.66923e-05
-2.72929e-05
-1.23376e-05
-2.86943e-05
2.69196e-06
-3.00288e-05
1.82842e-05
-3.1185e-05
3.43633e-05
-3.21431e-05
5.08265e-05
-3.29156e-05
6.75299e-05
-3.3386e-05
8.43e-05
-3.35155e-05
0.000100938
-3.32594e-05
0.000117234
-3.25762e-05
0.000132939
-3.13934e-05
0.000147819
-2.97449e-05
0.000161547
-2.74383e-05
0.000173902
-2.46999e-05
0.000184635
-2.14516e-05
0.000193508
-1.77388e-05
0.000200313
-1.36173e-05
0.000204887
-9.14627e-06
0.000207111
-4.4482e-06
0.000206949
3.04591e-07
0.000204352
5.17508e-06
0.00019927
1.01502e-05
0.000191822
1.48612e-05
0.000182168
1.9279e-05
0.0001705
2.33094e-05
0.000157012
2.69476e-05
0.000141955
3.01007e-05
0.000125567
3.27506e-05
0.000108125
3.48442e-05
8.99001e-05
3.64305e-05
7.11473e-05
3.74459e-05
5.21635e-05
3.79538e-05
3.32687e-05
3.77634e-05
1.4765e-05
3.69777e-05
-3.1371e-06
3.57637e-05
-2.03072e-05
3.43413e-05
-3.64908e-05
3.23509e-05
-5.17449e-05
3.05121e-05
-6.5933e-05
2.83569e-05
-7.90721e-05
2.62802e-05
-9.13055e-05
2.446e-05
-0.0001025
2.23777e-05
-0.000112722
2.04403e-05
-0.000122006
1.85734e-05
-0.000130296
1.65722e-05
-0.000137663
1.47552e-05
-0.000144095
1.28586e-05
-0.000149616
1.10669e-05
-0.000154301
9.36274e-06
-0.000158217
7.84484e-06
-0.000161356
6.28976e-06
-0.000163783
4.91768e-06
-0.000165704
3.79152e-06
-0.000167013
2.63117e-06
-0.000167789
1.55895e-06
-0.000168014
5.09062e-07
-0.00016783
-3.59636e-07
-0.000167162
-1.37081e-06
-0.000165978
-2.349e-06
-0.000164292
-3.36324e-06
-0.000162072
-4.42487e-06
-0.000159316
-5.53113e-06
-0.000156101
-6.39664e-06
-0.000152263
-7.67734e-06
-0.000147841
-8.82863e-06
-0.000142755
-1.01613e-05
-0.00013691
-1.16835e-05
-0.00013044
-1.29408e-05
-0.000123121
-1.46255e-05
-0.000114977
-1.62723e-05
-0.000106007
-1.79371e-05
-9.62162e-05
-1.95688e-05
-8.56072e-05
-2.1226e-05
-7.4233e-05
-2.27288e-05
-6.20542e-05
-2.43481e-05
-4.91518e-05
-2.58038e-05
-3.54898e-05
-2.73233e-05
-2.11631e-05
-2.8647e-05
-6.21907e-06
-2.98852e-05
9.23609e-06
-3.09045e-05
2.50714e-05
-3.1663e-05
4.1079e-05
-3.20094e-05
5.71295e-05
-3.20931e-05
7.30059e-05
-3.17405e-05
8.85116e-05
-3.09922e-05
0.000103411
-2.97873e-05
0.000117495
-2.81545e-05
0.000130486
-2.59688e-05
0.000142136
-2.32827e-05
0.000152158
-2.003e-05
0.000160313
-1.63091e-05
0.000166417
-1.21927e-05
0.000170319
-7.79474e-06
0.000171925
-3.20645e-06
0.000171261
1.30778e-06
0.00016825
6.01964e-06
0.000162969
1.05633e-05
0.000155612
1.47066e-05
0.000146311
1.86085e-05
0.000135166
2.23089e-05
0.000122435
2.54155e-05
0.000108483
2.78909e-05
9.35152e-05
2.99267e-05
7.76903e-05
3.1628e-05
6.15524e-05
3.22749e-05
4.5046e-05
3.29925e-05
2.87167e-05
3.26531e-05
1.25697e-05
3.22848e-05
-3.14705e-06
3.14165e-05
-1.82327e-05
3.01594e-05
-3.24772e-05
2.84773e-05
-4.57813e-05
2.65966e-05
-5.80739e-05
2.45844e-05
-6.93543e-05
2.25685e-05
-7.98137e-05
2.0926e-05
-8.95409e-05
1.94627e-05
-9.86963e-05
1.83177e-05
-0.000107376
1.73694e-05
-0.000115522
1.62978e-05
-0.000123146
1.52518e-05
-0.000130359
1.44285e-05
-0.000136992
1.32673e-05
-0.000143133
1.22816e-05
-0.000148626
1.0989e-05
-0.000153467
9.68393e-06
-0.00015772
8.50335e-06
-0.000161268
7.09328e-06
-0.000164098
5.66036e-06
-0.000166234
4.27242e-06
-0.000167556
2.64134e-06
-0.000168084
1.04705e-06
-0.000167948
-2.84362e-07
-0.00016712
-1.65942e-06
-0.000165638
-2.96637e-06
-0.000163409
-4.45838e-06
-0.000160327
-6.16772e-06
-0.000156444
-7.77155e-06
-0.000151718
-9.45493e-06
-0.0001459
-1.16384e-05
-0.000139224
-1.33515e-05
-0.00013138
-1.56869e-05
-0.00012256
-1.7637e-05
-0.000112814
-1.94886e-05
-0.000101887
-2.18521e-05
-8.99098e-05
-2.39467e-05
-7.69809e-05
-2.58678e-05
-6.30028e-05
-2.79674e-05
-4.81386e-05
-2.97263e-05
-3.22753e-05
-3.16999e-05
-1.54262e-05
-3.36994e-05
1.96143e-06
-3.47882e-05
1.99712e-05
-3.60309e-05
3.84454e-05
-3.69467e-05
5.7098e-05
-3.72856e-05
7.59136e-05
-3.76032e-05
9.4586e-05
-3.73279e-05
0.000112965
-3.67434e-05
0.000130759
-3.55701e-05
0.000147575
-3.36217e-05
0.000163265
-3.13643e-05
0.000177576
-2.86024e-05
0.000190208
-2.52531e-05
0.000200961
-2.14977e-05
0.000209667
-1.73961e-05
0.000216103
-1.28638e-05
0.000220178
-8.15195e-06
0.000221797
-3.22733e-06
0.000221012
1.56457e-06
0.000217796
6.42296e-06
0.000212051
1.14886e-05
0.000204078
1.59412e-05
0.000194021
2.0106e-05
0.0001819
2.4232e-05
0.00016805
2.76913e-05
0.0001527
3.06857e-05
0.000136189
3.30091e-05
0.000118733
3.48968e-05
0.000100442
3.65736e-05
8.16961e-05
3.74825e-05
6.27438e-05
3.78893e-05
4.38169e-05
3.78461e-05
2.50366e-05
3.7552e-05
6.53852e-06
3.69846e-05
-1.13493e-05
3.57777e-05
-2.8642e-05
3.45814e-05
-4.51864e-05
3.30841e-05
-6.08212e-05
3.12657e-05
-7.55797e-05
2.95136e-05
2.73079e-05
-0.000147968
-2.90148e-06
-0.000146351
-4.85966e-06
-0.000144114
-6.71743e-06
-0.00014124
-8.62982e-06
-0.000137585
-1.0977e-05
-0.000133248
-1.30045e-05
-0.000128031
-1.566e-05
-0.000122097
-1.78115e-05
-0.000115506
-1.97808e-05
-0.000107958
-2.26537e-05
-9.95154e-05
-2.53804e-05
-9.02244e-05
-2.78166e-05
-7.98681e-05
-3.10733e-05
-6.86667e-05
-3.36112e-05
-5.64192e-05
-3.67299e-05
-4.31337e-05
-3.98552e-05
-2.91221e-05
-4.20832e-05
-1.4204e-05
-4.46711e-05
1.65398e-06
-4.75423e-05
1.8113e-05
-4.93523e-05
3.53057e-05
-5.15446e-05
5.30998e-05
-5.33361e-05
7.11385e-05
-5.408e-05
8.94111e-05
-5.47755e-05
0.000107671
-5.47513e-05
0.000125752
-5.41949e-05
0.00014345
-5.30481e-05
0.000160392
-5.077e-05
0.000176378
-4.7901e-05
0.000191212
-4.44574e-05
0.000204568
-4.00334e-05
0.000216329
-3.52561e-05
0.000226217
-2.96265e-05
0.00023407
-2.35371e-05
0.000239792
-1.71367e-05
0.000243192
-1.01939e-05
0.000244237
-3.13166e-06
0.000242913
3.90484e-06
0.000239121
1.13728e-05
0.000233147
1.79201e-05
0.000224961
2.45304e-05
0.000214854
3.02866e-05
0.000202969
3.5614e-05
0.000189387
4.07025e-05
0.000174456
4.47501e-05
0.000158377
4.82125e-05
0.000141352
5.10026e-05
0.000123723
5.28274e-05
0.000105706
5.40243e-05
8.7379e-05
5.49332e-05
6.90583e-05
5.4912e-05
5.10534e-05
5.39491e-05
3.33126e-05
5.32353e-05
1.60867e-05
5.16496e-05
-5.25623e-07
4.98105e-05
-1.64095e-05
4.76321e-05
-3.15222e-05
4.53151e-05
-4.57352e-05
4.26218e-05
-5.90458e-05
3.99228e-05
-7.14303e-05
3.71368e-05
-8.28457e-05
3.42457e-05
-9.33782e-05
3.15774e-05
-0.000102927
2.86595e-05
-0.000111591
2.59962e-05
-0.000119382
2.33752e-05
-0.000126338
2.08636e-05
-0.000132383
1.81683e-05
-0.000137679
1.58625e-05
-0.000142126
1.33125e-05
-0.000145933
1.14659e-05
-0.000148981
9.14215e-06
-0.000151244
6.83156e-06
-0.000152942
5.08859e-06
-0.000153997
3.12902e-06
-0.00015428
8.66601e-07
-0.000153927
-1.05659e-06
-0.000152749
-3.52681e-06
-0.000150815
-5.80848e-06
-0.000148257
-7.69264e-06
-0.000144795
-1.04203e-05
-0.00014061
-1.2544e-05
-0.000135637
-1.49236e-05
-0.000129799
-1.75065e-05
-0.000123118
-2.00434e-05
-0.000115578
-2.26065e-05
-0.000107183
-2.51751e-05
-9.7929e-05
-2.77568e-05
-8.77603e-05
-3.04919e-05
-7.66944e-05
-3.32035e-05
-6.47032e-05
-3.59657e-05
-5.17615e-05
-3.88281e-05
-3.78162e-05
-4.18463e-05
-2.2939e-05
-4.45955e-05
-7.20605e-06
-4.71617e-05
9.24897e-06
-4.93084e-05
2.62784e-05
-5.10307e-05
4.37163e-05
-5.22673e-05
6.14004e-05
-5.30136e-05
7.9179e-05
-5.3293e-05
9.69035e-05
-5.31358e-05
0.000114385
-5.24161e-05
0.000131475
-5.12308e-05
0.000147974
-4.94908e-05
0.000163679
-4.70578e-05
0.000178408
-4.41325e-05
0.000191923
-4.05169e-05
0.000204002
-3.62097e-05
0.000214502
-3.15133e-05
0.000223193
-2.60296e-05
0.000229922
-2.0171e-05
0.000234551
-1.38952e-05
0.000236965
-7.22878e-06
0.000237105
-4.65603e-07
0.000234954
6.46732e-06
0.000230373
1.36515e-05
0.000223548
2.0446e-05
0.000214531
2.70086e-05
0.000203457
3.31831e-05
0.000190479
3.88381e-05
0.000175863
4.37677e-05
0.000159787
4.81319e-05
0.000142519
5.17032e-05
0.000124347
5.44137e-05
0.00010553
5.637e-05
8.63336e-05
5.74766e-05
6.69962e-05
5.79651e-05
4.77815e-05
5.75603e-05
2.88918e-05
5.66716e-05
1.04546e-05
5.51785e-05
-7.29635e-06
5.31366e-05
-2.42754e-05
5.09404e-05
-4.03105e-05
4.8037e-05
-5.53703e-05
4.51127e-05
-6.93612e-05
4.20699e-05
-8.23054e-05
3.86853e-05
-9.41026e-05
3.53445e-05
-0.000104807
3.21183e-05
-0.000114356
2.85978e-05
-0.000122785
2.53871e-05
-0.000130256
2.22983e-05
-0.000136602
1.91175e-05
-0.000142112
1.64878e-05
-0.000146661
1.36552e-05
-0.000150401
1.11703e-05
-0.000153322
8.80155e-06
-0.000155474
6.55384e-06
-0.000156985
4.52287e-06
-0.00015784
2.54886e-06
-0.000158059
6.84589e-07
-0.000157671
-1.11528e-06
-0.000156749
-2.92854e-06
-0.000155238
-4.43876e-06
-0.000153138
-6.29059e-06
-0.000150464
-8.00384e-06
-0.000147209
-9.86558e-06
-0.000143312
-1.15374e-05
-0.000138847
-1.34496e-05
-0.000133705
-1.5347e-05
-0.000127886
-1.7432e-05
-0.000121338
-1.9618e-05
-0.000113972
-2.19273e-05
-0.000105984
-2.41016e-05
-9.71156e-05
-2.65866e-05
-8.73862e-05
-2.90902e-05
-7.69358e-05
-3.13832e-05
-6.56234e-05
-3.38806e-05
-5.35028e-05
-3.63542e-05
-4.0617e-05
-3.86512e-05
-2.69714e-05
-4.09386e-05
-1.26136e-05
-4.30521e-05
2.42455e-06
-4.50671e-05
1.80463e-05
-4.68069e-05
3.41455e-05
-4.82424e-05
5.06262e-05
-4.93963e-05
6.73451e-05
-5.0105e-05
8.41325e-05
-5.0303e-05
0.000100802
-4.99293e-05
0.00011711
-4.8884e-05
0.000132851
-4.71342e-05
0.000147729
-4.46229e-05
0.000161491
-4.12008e-05
0.000173881
-3.70896e-05
0.000184626
-3.21967e-05
0.000193542
-2.6655e-05
0.000200338
-2.04138e-05
0.000204927
-1.37351e-05
0.000207155
-6.67604e-06
0.000206979
4.80577e-07
0.000204358
7.79526e-06
0.000199234
1.52744e-05
0.000191783
2.23127e-05
0.000182116
2.89453e-05
0.000170428
3.49978e-05
0.000156914
4.04611e-05
0.000141868
4.5147e-05
0.00012546
4.9158e-05
0.000107952
5.23524e-05
8.97399e-05
5.46426e-05
7.09059e-05
5.62798e-05
5.18978e-05
5.69619e-05
3.29748e-05
5.66864e-05
1.44268e-05
5.55257e-05
-3.51611e-06
5.37066e-05
-2.06645e-05
5.14896e-05
-3.68601e-05
4.85464e-05
-5.21186e-05
4.57706e-05
-6.63251e-05
4.25634e-05
-7.95161e-05
3.94712e-05
-9.1692e-05
3.66359e-05
-0.000102881
3.35671e-05
-0.000113112
3.06706e-05
-0.000122389
2.78505e-05
-0.000130692
2.48751e-05
-0.000138004
2.20671e-05
-0.00014447
1.93255e-05
-0.00014998
1.65765e-05
-0.000154686
1.40683e-05
-0.000158572
1.17309e-05
-0.000161698
9.41606e-06
-0.000164128
7.34723e-06
-0.000166033
5.69735e-06
-0.000167328
3.92542e-06
-0.000168101
2.33255e-06
-0.000168359
7.66971e-07
-0.000168108
-6.10962e-07
-0.000167468
-2.01119e-06
-0.000166262
-3.5543e-06
-0.000164582
-5.04356e-06
-0.000162365
-6.64152e-06
-0.000159653
-8.243e-06
-0.00015638
-9.67016e-06
-0.000152553
-1.15039e-05
-0.000148123
-1.32587e-05
-0.000143035
-1.52502e-05
-0.000137264
-1.74537e-05
-0.000130728
-1.94771e-05
-0.000123409
-2.19441e-05
-0.000115259
-2.44225e-05
-0.000106305
-2.68917e-05
-9.64967e-05
-2.93769e-05
-8.58984e-05
-3.18243e-05
-7.45009e-05
-3.41264e-05
-6.23334e-05
-3.65156e-05
-4.94239e-05
-3.87133e-05
-3.57591e-05
-4.09882e-05
-2.14105e-05
-4.29957e-05
-6.46152e-06
-4.48343e-05
9.01022e-06
-4.63763e-05
2.48744e-05
-4.75272e-05
4.08922e-05
-4.80273e-05
5.69626e-05
-4.81635e-05
7.28562e-05
-4.76342e-05
8.83856e-05
-4.65216e-05
0.000103313
-4.4715e-05
0.000117427
-4.22689e-05
0.000130469
-3.9011e-05
0.000142134
-3.49476e-05
0.000152185
-3.00813e-05
0.000160375
-2.44985e-05
0.0001665
-1.83185e-05
0.000170413
-1.17073e-05
0.000172039
-4.83287e-06
0.000171356
1.99157e-06
0.000168346
9.02914e-06
0.000163069
1.58404e-05
0.000155703
2.20719e-05
0.000146401
2.79112e-05
0.000135252
3.34574e-05
0.0001225
3.81676e-05
0.000108528
4.18632e-05
9.35503e-05
4.4904e-05
7.76932e-05
4.74851e-05
6.15517e-05
4.84164e-05
4.50118e-05
4.95323e-05
2.86747e-05
4.89902e-05
1.25105e-05
4.84489e-05
-3.23268e-06
4.71597e-05
-1.83407e-05
4.52674e-05
-3.26031e-05
4.27397e-05
-4.59186e-05
3.99121e-05
-5.82157e-05
3.68815e-05
-6.94951e-05
3.38479e-05
-7.99332e-05
3.13641e-05
-8.96283e-05
2.91578e-05
-9.87684e-05
2.74578e-05
-0.000107434
2.60354e-05
-0.00011557
2.44335e-05
-0.00012319
2.28719e-05
-0.000130399
2.16376e-05
-0.000137028
1.98961e-05
-0.000143167
1.84205e-05
-0.000148659
1.6481e-05
-0.000153497
1.45222e-05
-0.000157748
1.27541e-05
-0.00016129
1.06349e-05
-0.000164107
8.47729e-06
-0.000166249
6.41503e-06
-0.000167585
3.97681e-06
-0.000168138
1.59989e-06
-0.000168007
-4.15356e-07
-0.000167183
-2.48296e-06
-0.000165705
-4.44472e-06
-0.000163477
-6.68621e-06
-0.000160399
-9.24596e-06
-0.000156524
-1.16466e-05
-0.000151802
-1.41771e-05
-0.000145989
-1.7451e-05
-0.000139313
-2.00273e-05
-0.000131468
-2.35317e-05
-0.000122647
-2.64582e-05
-0.000112899
-2.92367e-05
-0.000101968
-3.27829e-05
-8.99838e-05
-3.59313e-05
-7.70698e-05
-3.87818e-05
-6.30934e-05
-4.19439e-05
-4.82287e-05
-4.45911e-05
-3.23502e-05
-4.75785e-05
-1.55081e-05
-5.05416e-05
1.87023e-06
-5.21666e-05
1.98972e-05
-5.40579e-05
3.8387e-05
-5.54366e-05
5.70533e-05
-5.5952e-05
7.58845e-05
-5.64345e-05
9.4575e-05
-5.60185e-05
0.000112976
-5.51448e-05
0.000130794
-5.33882e-05
0.000147641
-5.04679e-05
0.000163364
-4.70878e-05
0.000177695
-4.29336e-05
0.000190344
-3.79022e-05
0.000201127
-3.22804e-05
0.00020985
-2.61197e-05
0.000216295
-1.93085e-05
0.000220377
-1.22338e-05
0.000222005
-4.85564e-06
0.000221203
2.3666e-06
0.000217976
9.6498e-06
0.000212229
1.72354e-05
0.000204245
2.39253e-05
0.000194174
3.01764e-05
0.000182038
3.63681e-05
0.000168176
4.15535e-05
0.0001528
4.60613e-05
0.000136265
4.95446e-05
0.000118781
5.23802e-05
0.000100481
5.48736e-05
8.17212e-05
5.62423e-05
6.27404e-05
5.68702e-05
4.38012e-05
5.67852e-05
2.5008e-05
5.63451e-05
6.48999e-06
5.55026e-05
-1.14012e-05
5.36688e-05
-2.87025e-05
5.18826e-05
-4.52539e-05
4.96355e-05
-6.08938e-05
4.69055e-05
-7.56567e-05
4.42764e-05
4.09635e-05
-0.000148041
-3.86571e-06
-0.000146427
-6.47364e-06
-0.000144193
-8.95158e-06
-0.000141321
-1.15017e-05
-0.000137673
-1.46245e-05
-0.000133331
-1.73464e-05
-0.00012812
-2.08714e-05
-0.000122192
-2.37391e-05
-0.000115605
-2.63688e-05
-0.000108065
-3.01934e-05
-9.96252e-05
-3.38202e-05
-9.03293e-05
-3.71125e-05
-7.99734e-05
-4.14293e-05
-6.87846e-05
-4.48e-05
-5.6525e-05
-4.89896e-05
-4.32379e-05
-5.31423e-05
-2.92757e-05
-5.60455e-05
-1.42851e-05
-5.96618e-05
1.59328e-06
-6.34207e-05
1.8078e-05
-6.58371e-05
3.52847e-05
-6.87514e-05
5.31003e-05
-7.11518e-05
7.11533e-05
-7.2133e-05
8.94567e-05
-7.30791e-05
0.000107735
-7.30291e-05
0.000125844
-7.23045e-05
0.000143569
-7.07733e-05
0.000160544
-6.77448e-05
0.000176561
-6.39185e-05
0.000191411
-5.93067e-05
0.000204794
-5.3417e-05
0.00021657
-4.70324e-05
0.000226475
-3.95309e-05
0.000234342
-3.14047e-05
0.000240083
-2.28772e-05
0.000243484
-1.3595e-05
0.000244522
-4.17014e-06
0.000243169
5.25773e-06
0.000239374
1.51677e-05
0.000233397
2.38967e-05
0.000225194
3.27333e-05
0.000215065
4.04157e-05
0.000203157
4.75225e-05
0.00018955
5.43096e-05
0.000174592
5.97077e-05
0.000158507
6.42973e-05
0.000141436
6.80741e-05
0.00012377
7.04933e-05
0.000105734
7.20602e-05
8.73808e-05
7.32862e-05
6.90322e-05
7.32606e-05
5.09902e-05
7.19911e-05
3.32552e-05
7.09703e-05
1.60138e-05
6.8891e-05
-6.13882e-07
6.64382e-05
-1.65079e-05
6.35261e-05
-3.16321e-05
6.04393e-05
-4.58543e-05
5.6844e-05
-5.91668e-05
5.32352e-05
-7.15592e-05
4.95292e-05
-8.2972e-05
4.56586e-05
-9.35138e-05
4.21191e-05
-0.000103054
3.81997e-05
-0.000111714
3.46558e-05
-0.000119504
3.11658e-05
-0.000126463
2.78227e-05
-0.000132486
2.41912e-05
-0.000137793
2.11693e-05
-0.000142242
1.77614e-05
-0.000146034
1.52577e-05
-0.000149085
1.21934e-05
-0.000151324
9.07076e-06
-0.000153026
6.79012e-06
-0.000154103
4.20621e-06
-0.000154374
1.13801e-06
-0.000154021
-1.40981e-06
-0.000152834
-4.71366e-06
-0.000150908
-7.73486e-06
-0.000148364
-1.0237e-05
-0.000144915
-1.38692e-05
-0.000140726
-1.67329e-05
-0.000135758
-1.98912e-05
-0.00012992
-2.33447e-05
-0.000123238
-2.67254e-05
-0.000115696
-3.01483e-05
-0.000107299
-3.35719e-05
-9.80426e-05
-3.70137e-05
-8.78751e-05
-4.06594e-05
-7.68165e-05
-4.42622e-05
-6.48278e-05
-4.79544e-05
-5.18976e-05
-5.17584e-05
-3.79635e-05
-5.57805e-05
-2.3074e-05
-5.94851e-05
-7.30523e-06
-6.29306e-05
9.15123e-06
-6.5765e-05
2.61956e-05
-6.80752e-05
4.3652e-05
-6.97238e-05
6.13453e-05
-7.07069e-05
7.91343e-05
-7.10821e-05
9.68691e-05
-7.08707e-05
0.000114358
-6.99052e-05
0.000131465
-6.83375e-05
0.000147963