/*--------------------------------*- C++ -*----------------------------------*\
| =========                 |                                                 |
| \\      /  F ield         | OpenFOAM: The Open Source CFD Toolbox           |
|  \\    /   O peration     | Version:  3.0.1                                 |
|   \\  /    A nd           | Web:      www.OpenFOAM.org                      |
|    \\/     M anipulation  |                                                 |
\*---------------------------------------------------------------------------*/
FoamFile
{
    version     2.0;
    format      ascii;
    class       surfaceScalarField;
    location    "94";
    object      alphaPhi;
}
// * * * * * * * * * * * * * * * * * * * * * * * * * * * * * * * * * * * * * //

dimensions      [0 3 -1 0 0 0 0];

internalField   nonuniform List<scalar> 
42423
(
-8.86438e-05
1.03231e-05
-9.80233e-05
9.37951e-06
-0.000106563
8.53992e-06
-0.000114285
7.72225e-06
-0.000121206
6.9205e-06
-0.000127377
6.17144e-06
-0.000132809
5.43182e-06
-0.000137542
4.73319e-06
-0.000141609
4.06616e-06
-0.000145002
3.39344e-06
-0.000147747
2.74505e-06
-0.000149863
2.11569e-06
-0.000151324
1.46098e-06
-0.000152166
8.41915e-07
-0.000152372
2.05969e-07
-0.000151878
-4.9358e-07
-0.00015075
-1.12833e-06
-0.000148889
-1.86025e-06
-0.000146305
-2.58401e-06
-0.000143062
-3.24345e-06
-0.000139008
-4.05395e-06
-0.000134115
-4.89259e-06
-0.000128396
-5.71982e-06
-0.000121725
-6.67115e-06
-0.000114224
-7.50028e-06
-0.000105683
-8.54098e-06
-9.61414e-05
-9.54192e-06
-8.57496e-05
-1.03918e-05
-7.4282e-05
-1.14676e-05
-6.17106e-05
-1.25714e-05
-4.82054e-05
-1.35052e-05
-3.35313e-05
-1.46741e-05
-1.8112e-05
-1.54194e-05
-1.67038e-06
-1.64416e-05
1.5624e-05
-1.72944e-05
3.34358e-05
-1.78119e-05
5.18413e-05
-1.84055e-05
7.0702e-05
-1.88607e-05
8.96334e-05
-1.89314e-05
0.000108578
-1.89448e-05
0.000127248
-1.86695e-05
0.000145461
-1.82136e-05
0.00016294
-1.74788e-05
0.000179334
-1.63941e-05
0.000194469
-1.51346e-05
0.000208109
-1.36403e-05
0.000219942
-1.18334e-05
0.000229854
-9.91125e-06
0.000237691
-7.83702e-06
0.000243133
-5.44275e-06
0.000246259
-3.126e-06
0.000246957
-6.97723e-07
0.000245275
1.68157e-06
0.000241275
4.00038e-06
0.00023492
6.35528e-06
0.000226428
8.4918e-06
0.00021594
1.04881e-05
0.000203553
1.23863e-05
0.00018958
1.39734e-05
0.0001742
1.53796e-05
0.0001577
1.65e-05
0.000140288
1.74118e-05
0.000122159
1.81293e-05
0.000103588
1.8571e-05
8.48801e-05
1.87081e-05
6.61955e-05
1.86846e-05
4.77484e-05
1.84471e-05
2.96454e-05
1.8103e-05
1.20699e-05
1.75755e-05
-4.91596e-06
1.69859e-05
-2.11678e-05
1.62518e-05
-3.66166e-05
1.54488e-05
-5.12747e-05
1.46581e-05
-6.50213e-05
1.37466e-05
-7.78144e-05
1.27931e-05
-8.97299e-05
1.19156e-05
-0.00010067
1.09399e-05
-0.000110779
1.01088e-05
-0.000120004
9.2253e-06
-0.00012834
8.33614e-06
-0.000135863
7.52253e-06
-0.000142524
6.6607e-06
-0.000148296
5.77192e-06
-0.000153302
5.00665e-06
-0.000157477
4.17478e-06
-0.000160739
3.26162e-06
-0.000163084
2.34439e-06
-0.000164475
1.39135e-06
-0.000165026
5.50796e-07
-0.000164537
-4.89325e-07
-0.000163075
-1.4628e-06
-0.000160651
-2.42455e-06
-0.000157368
-3.28323e-06
-0.000153306
-4.06174e-06
-0.000148514
-4.79218e-06
-0.000143068
-5.44645e-06
-0.000136963
-6.10574e-06
-0.000130205
-6.75758e-06
-0.000122734
-7.4711e-06
-0.000114512
-8.22296e-06
-0.000105508
-9.00356e-06
-9.564e-05
-9.86842e-06
-8.48969e-05
-1.07433e-05
-7.323e-05
-1.1667e-05
-6.06077e-05
-1.26224e-05
-4.71233e-05
-1.34845e-05
-3.28198e-05
-1.43036e-05
-1.76394e-05
-1.51804e-05
-1.71629e-06
-1.59232e-05
1.48785e-05
-1.65949e-05
3.20435e-05
-1.7165e-05
4.95808e-05
-1.75373e-05
6.74029e-05
-1.78221e-05
8.53511e-05
-1.79482e-05
0.000103225
-1.78735e-05
0.000120843
-1.76187e-05
0.000137975
-1.71315e-05
0.000154431
-1.64558e-05
0.000169986
-1.55554e-05
0.000184426
-1.44396e-05
0.000197477
-1.30508e-05
0.000208898
-1.14215e-05
0.000218518
-9.62003e-06
0.000226075
-7.55666e-06
0.000231466
-5.39078e-06
0.000234521
-3.05484e-06
0.00023521
-6.89248e-07
0.000233471
1.73875e-06
0.000229249
4.22268e-06
0.000222664
6.58495e-06
0.000213731
8.93287e-06
0.000202761
1.097e-05
0.000189875
1.28861e-05
0.000175191
1.46837e-05
0.00015912
1.60711e-05
0.0001418
1.73199e-05
0.000123467
1.83332e-05
0.00010452
1.89472e-05
8.50996e-05
1.94204e-05
6.55173e-05
1.95823e-05
4.59847e-05
1.95326e-05
2.67758e-05
1.92088e-05
7.99397e-06
1.87819e-05
-1.00853e-05
1.80793e-05
-2.7367e-05
1.72817e-05
-4.37111e-05
1.63441e-05
-5.90149e-05
1.53038e-05
-7.32002e-05
1.41852e-05
-8.62996e-05
1.30994e-05
-9.82668e-05
1.19673e-05
-0.000109119
1.08518e-05
-0.000118889
9.77088e-06
-0.000127611
8.72168e-06
-0.000135338
7.7266e-06
-0.000142102
6.7646e-06
-0.000147945
5.84318e-06
-0.000152951
5.00531e-06
-0.000157153
4.20191e-06
-0.00016062
3.46749e-06
-0.000163364
2.74345e-06
-0.000165447
2.0838e-06
-0.000166855
1.40731e-06
-0.000167629
7.74235e-07
-0.000167879
2.50048e-07
-0.000167437
-4.4216e-07
-0.00016642
-1.01705e-06
-0.000164763
-1.65709e-06
-0.000162453
-2.30953e-06
-0.000159544
-2.9093e-06
-0.000155961
-3.58253e-06
-0.000151693
-4.26838e-06
-0.000146686
-5.00657e-06
-0.000141031
-5.65525e-06
-0.000134613
-6.41793e-06
-0.000127452
-7.16125e-06
-0.000119508
-7.94318e-06
-0.000110762
-8.74682e-06
-0.00010117
-9.59129e-06
-9.07524e-05
-1.0418e-05
-7.94072e-05
-1.13453e-05
-6.73032e-05
-1.2104e-05
-5.42719e-05
-1.30313e-05
-4.03694e-05
-1.39025e-05
-2.56345e-05
-1.47349e-05
-1.0092e-05
-1.55425e-05
6.08418e-06
-1.61762e-05
2.28728e-05
-1.67887e-05
4.01106e-05
-1.72379e-05
5.75947e-05
-1.74841e-05
7.51773e-05
-1.75827e-05
9.26416e-05
-1.74643e-05
0.000109748
-1.71065e-05
0.000126251
-1.6503e-05
0.000141873
-1.5622e-05
0.000156315
-1.44422e-05
0.000169335
-1.30194e-05
0.000180712
-1.13776e-05
0.000190171
-9.45941e-06
0.000197639
-7.46801e-06
0.000202855
-5.2154e-06
0.000205764
-2.90908e-06
0.000206291
-5.2731e-07
0.000204397
1.89464e-06
0.000199876
4.52058e-06
0.000193021
6.85447e-06
0.000183856
9.16514e-06
0.000172579
1.12776e-05
0.000159515
1.30636e-05
0.000144879
1.46362e-05
0.000128921
1.59581e-05
0.000112041
1.68792e-05
9.44176e-05
1.76238e-05
7.63673e-05
1.80503e-05
5.80441e-05
1.83231e-05
3.97247e-05
1.83194e-05
2.15769e-05
1.81478e-05
3.79774e-06
1.77792e-05
-1.34786e-05
1.72763e-05
-3.0034e-05
1.65554e-05
-4.57962e-05
1.57623e-05
-6.06381e-05
1.48419e-05
-7.46104e-05
1.39723e-05
-8.75717e-05
1.29613e-05
-9.95508e-05
1.19791e-05
-0.00011053
1.09792e-05
-0.000120542
1.00124e-05
-0.000129595
9.05238e-06
-0.000137736
8.14107e-06
-0.000145012
7.27594e-06
-0.000151476
6.46396e-06
-0.000157178
5.70192e-06
-0.000162143
4.96555e-06
-0.000166476
4.33329e-06
-0.000170139
3.66233e-06
-0.00017315
3.01122e-06
-0.000175646
2.49687e-06
-0.000177491
1.84465e-06
-0.00017873
1.2394e-06
-0.000179385
6.54466e-07
-0.000179383
-2.08111e-09
-0.000178803
-5.7922e-07
-0.000177602
-1.20139e-06
-0.000175884
-1.7177e-06
-0.000173642
-2.24205e-06
-0.000170872
-2.76971e-06
-0.000167566
-3.3055e-06
-0.000163629
-3.93692e-06
-0.000159065
-4.56332e-06
-0.000153752
-5.31336e-06
-0.000147708
-6.04328e-06
-0.000140847
-6.86175e-06
-0.000133185
-7.66102e-06
-0.000124703
-8.4822e-06
-0.000115423
-9.28021e-06
-0.000105313
-1.01099e-05
-9.43851e-05
-1.09274e-05
-8.25964e-05
-1.17885e-05
-6.99944e-05
-1.26019e-05
-5.65627e-05
-1.34317e-05
-4.23361e-05
-1.42265e-05
-2.7383e-05
-1.4953e-05
-1.17963e-05
-1.55867e-05
4.3554e-06
-1.61518e-05
2.08939e-05
-1.65385e-05
3.76526e-05
-1.67588e-05
5.44515e-05
-1.6799e-05
7.10578e-05
-1.66064e-05
8.72507e-05
-1.61931e-05
0.000102844
-1.55931e-05
0.000117536
-1.46927e-05
0.000131143
-1.36069e-05
0.000143264
-1.21206e-05
0.000153891
-1.06279e-05
0.000162711
-8.82019e-06
0.000169679
-6.96786e-06
0.000174628
-4.94904e-06
0.000177513
-2.88495e-06
0.000178234
-7.21105e-07
0.000177044
1.18969e-06
0.000174016
3.0283e-06
0.000169022
4.99414e-06
0.000162214
6.80755e-06
0.000153509
8.7053e-06
0.000142873
1.06362e-05
0.000130522
1.23507e-05
0.000116466
1.40558e-05
0.000100928
1.55383e-05
8.42875e-05
1.66404e-05
6.67271e-05
1.75604e-05
4.86443e-05
1.80828e-05
3.03447e-05
1.82996e-05
1.21616e-05
1.81831e-05
-5.65279e-06
1.78144e-05
-2.28559e-05
1.72031e-05
-3.92928e-05
1.64368e-05
-5.48721e-05
1.55794e-05
-6.95573e-05
1.46852e-05
-8.32709e-05
1.37136e-05
-9.59983e-05
1.27274e-05
-0.00010774
1.17419e-05
-0.000118479
1.07391e-05
-0.000128256
9.77672e-06
-0.000137067
8.81125e-06
-0.000144942
7.87482e-06
-0.000151918
6.97608e-06
-0.000158011
6.09248e-06
-0.000163252
5.24098e-06
-0.000167674
4.42258e-06
-0.000171292
3.61754e-06
-0.000174113
2.8213e-06
-0.000176102
1.98841e-06
-0.000177269
1.16737e-06
-0.000177654
3.85489e-07
-0.000177345
-3.09242e-07
-0.000176364
-9.81599e-07
-0.000174662
-1.70105e-06
-0.000172179
-2.48336e-06
-0.000168918
-3.26111e-06
-0.000164852
-4.066e-06
-0.000159877
-4.97549e-06
-0.00015403
-5.84627e-06
-0.000147255
-6.7755e-06
-0.000139485
-7.76965e-06
-0.000130811
-8.67394e-06
-0.000121047
-9.76425e-06
-0.000110309
-1.07375e-05
-9.86857e-05
-1.16238e-05
-8.59615e-05
-1.27242e-05
-7.21989e-05
-1.37626e-05
-5.76169e-05
-1.4582e-05
-4.19604e-05
-1.56565e-05
-2.54471e-05
-1.65133e-05
-8.3418e-06
-1.71054e-05
9.48812e-06
-1.78299e-05
2.77639e-05
-1.82758e-05
4.65297e-05
-1.87657e-05
6.5519e-05
-1.89894e-05
8.43228e-05
-1.88038e-05
0.000102952
-1.86292e-05
0.000121111
-1.81589e-05
0.000138448
-1.73368e-05
0.000154863
-1.64156e-05
0.000170024
-1.51607e-05
0.000183728
-1.37046e-05
0.000195719
-1.19902e-05
0.000205802
-1.00832e-05
0.000213735
-7.93355e-06
0.000219427
-5.69207e-06
0.000222656
-3.22886e-06
0.000223405
-7.4866e-07
0.000221562
1.84266e-06
0.000217237
4.32511e-06
0.000210516
6.72067e-06
0.000201431
9.08491e-06
0.000190396
1.10357e-05
0.000177409
1.29867e-05
1.47318e-05
-8.86811e-05
2.06476e-05
-9.80603e-05
1.87587e-05
-0.000106601
1.70805e-05
-0.000114324
1.54453e-05
-0.000121245
1.38415e-05
-0.000127416
1.23426e-05
-0.00013285
1.08655e-05
-0.000137586
9.46984e-06
-0.000141652
8.13223e-06
-0.000145044
6.7846e-06
-0.000147788
5.48939e-06
-0.000149899
4.22715e-06
-0.000151367
2.92893e-06
-0.000152207
1.68139e-06
-0.00015241
4.09134e-07
-0.00015192
-9.84059e-07
-0.000150795
-2.25326e-06
-0.000148938
-3.71735e-06
-0.000146353
-5.16878e-06
-0.000143111
-6.48543e-06
-0.000139056
-8.10892e-06
-0.000134151
-9.79767e-06
-0.000128448
-1.14226e-05
-0.000121777
-1.33418e-05
-0.00011428
-1.49974e-05
-0.000105735
-1.70865e-05
-9.61929e-05
-1.90838e-05
-8.58023e-05
-2.07825e-05
-7.43395e-05
-2.29304e-05
-6.17614e-05
-2.51496e-05
-4.82562e-05
-2.70104e-05
-3.35765e-05
-2.93538e-05
-1.81545e-05
-3.08413e-05
-1.70646e-06
-3.28897e-05
1.55909e-05
-3.45917e-05
3.34083e-05
-3.56294e-05
5.18216e-05
-3.68188e-05
7.06918e-05
-3.7731e-05
8.9632e-05
-3.78718e-05
0.000108589
-3.79023e-05
0.000127272
-3.7352e-05
0.000145499
-3.64406e-05
0.000162986
-3.49659e-05
0.000179388
-3.27965e-05
0.000194535
-3.02812e-05
0.000208201
-2.73062e-05
0.000220041
-2.36736e-05
0.000229955
-1.98253e-05
0.000237796
-1.56782e-05
0.000243247
-1.08934e-05
0.000246378
-6.25783e-06
0.000247078
-1.3971e-06
0.000245388
3.37121e-06
0.000241391
7.99766e-06
0.000235037
1.27093e-05
0.000226544
1.6984e-05
0.000216048
2.09844e-05
0.000203653
2.47818e-05
0.00018967
2.79565e-05
0.000174278
3.07709e-05
0.000157766
3.30118e-05
0.000140344
3.48339e-05
0.000122202
3.62717e-05
0.000103613
3.71601e-05
8.48902e-05
3.74305e-05
6.61927e-05
3.73821e-05
4.77274e-05
3.69123e-05
2.96127e-05
3.62177e-05
1.20356e-05
3.51526e-05
-4.96799e-06
3.39895e-05
-2.12257e-05
3.25095e-05
-3.66743e-05
3.08974e-05
-5.1332e-05
2.93157e-05
-6.50785e-05
2.74931e-05
-7.78726e-05
2.55872e-05
-8.97912e-05
2.38342e-05
-0.000100731
2.18798e-05
-0.000110841
2.02187e-05
-0.000120066
1.84501e-05
-0.000128399
1.66694e-05
-0.000135929
1.5052e-05
-0.000142589
1.33211e-05
-0.000148354
1.15362e-05
-0.000153362
1.00145e-05
-0.000157532
8.34428e-06
-0.000160792
6.52234e-06
-0.000163135
4.68689e-06
-0.000164526
2.78169e-06
-0.000165065
1.08943e-06
-0.000164567
-9.8779e-07
-0.000163105
-2.92422e-06
-0.000160679
-4.85166e-06
-0.000157379
-6.58292e-06
-0.000153305
-8.13614e-06
-0.000148502
-9.59571e-06
-0.000143053
-1.08951e-05
-0.000136944
-1.22156e-05
-0.000130179
-1.35225e-05
-0.000122702
-1.49484e-05
-0.00011448
-1.64448e-05
-0.000105478
-1.80057e-05
-9.56044e-05
-1.97426e-05
-8.48561e-05
-2.14918e-05
-7.31905e-05
-2.33327e-05
-6.05726e-05
-2.52404e-05
-4.70778e-05
-2.69794e-05
-3.27764e-05
-2.86052e-05
-1.75842e-05
-3.03727e-05
-1.65922e-06
-3.18482e-05
1.49364e-05
-3.31906e-05
3.2104e-05
-3.43327e-05
4.96514e-05
-3.50847e-05
6.74836e-05
-3.56543e-05
8.54394e-05
-3.5904e-05
0.000103322
-3.57566e-05
0.000120946
-3.52425e-05
0.000138081
-3.42667e-05
0.000154535
-3.29097e-05
0.00017009
-3.11098e-05
0.00018453
-2.88798e-05
0.00019758
-2.61007e-05
0.000208999
-2.28405e-05
0.000218616
-1.92374e-05
0.000226165
-1.51048e-05
0.000231538
-1.07646e-05
0.000234588
-6.1042e-06
0.000235263
-1.36471e-06
0.000233485
3.51676e-06
0.000229234
8.47413e-06
0.000222624
1.31949e-05
0.000213728
1.78294e-05
0.000202711
2.19864e-05
0.00018975
2.5847e-05
0.000175056
2.93784e-05
0.000158955
3.21718e-05
0.000141622
3.46525e-05
0.00012326
3.66954e-05
0.00010428
3.79271e-05
8.48392e-05
3.88615e-05
6.52447e-05
3.9177e-05
4.57072e-05
3.90701e-05
2.64604e-05
3.84556e-05
7.68824e-06
3.75541e-05
-1.04076e-05
3.61752e-05
-2.76853e-05
3.45594e-05
-4.40202e-05
3.2679e-05
-5.92855e-05
3.05691e-05
-7.35218e-05
2.84216e-05
-8.66077e-05
2.61854e-05
-9.8573e-05
2.39325e-05
-0.000109414
2.16927e-05
-0.000119172
1.95293e-05
-0.000127877
1.74261e-05
-0.000135584
1.54338e-05
-0.000142337
1.35182e-05
-0.00014818
1.16855e-05
-0.000153138
9.96321e-06
-0.000157368
8.43184e-06
-0.000160812
6.91214e-06
-0.000163552
5.48329e-06
-0.000165626
4.15824e-06
-0.00016703
2.8109e-06
-0.00016778
1.52404e-06
-0.000168017
4.87593e-07
-0.000167565
-8.94694e-07
-0.000166548
-2.03332e-06
-0.000164884
-3.32114e-06
-0.000162574
-4.61951e-06
-0.000159651
-5.83257e-06
-0.000156055
-7.17881e-06
-0.000151778
-8.54468e-06
-0.00014678
-1.0005e-05
-0.000141113
-1.13218e-05
-0.000134692
-1.28389e-05
-0.000127521
-1.43332e-05
-0.000119562
-1.59017e-05
-0.000110813
-1.74958e-05
-0.000101221
-1.91828e-05
-9.0799e-05
-2.08405e-05
-7.94556e-05
-2.26887e-05
-6.73506e-05
-2.4209e-05
-5.43155e-05
-2.60664e-05
-4.04001e-05
-2.7818e-05
-2.56592e-05
-2.94759e-05
-1.01233e-05
-3.10785e-05
6.06196e-06
-3.23615e-05
2.28528e-05
-3.35796e-05
4.00948e-05
-3.44799e-05
5.76066e-05
-3.4996e-05
7.51741e-05
-3.51502e-05
9.2637e-05
-3.49273e-05
0.000109737
-3.42071e-05
0.00012624
-3.30051e-05
0.000141855
-3.12371e-05
0.0001563
-2.88874e-05
0.000169342
-2.60614e-05
0.000180683
-2.27188e-05
0.000190139
-1.89159e-05
0.000197577
-1.49054e-05
0.000202802
-1.04411e-05
0.000205711
-5.81749e-06
0.000206222
-1.03899e-06
0.000204273
3.84425e-06
0.000199761
9.03213e-06
0.000192889
1.37269e-05
0.000183726
1.83272e-05
0.000172412
2.25922e-05
0.000159323
2.61529e-05
0.000144674
2.92848e-05
0.000128697
3.19349e-05
0.000111794
3.37818e-05
9.41624e-05
3.52558e-05
7.60947e-05
3.61181e-05
5.7772e-05
3.66458e-05
3.94564e-05
3.66351e-05
2.13201e-05
3.62841e-05
3.55384e-06
3.55454e-05
-1.37531e-05
3.45833e-05
-3.03013e-05
3.31036e-05
-4.60656e-05
3.15266e-05
-6.09031e-05
2.96794e-05
-7.4872e-05
2.79412e-05
-8.782e-05
2.59094e-05
-9.97895e-05
2.39487e-05
-0.000110756
2.19459e-05
-0.000120758
2.00145e-05
-0.000129804
1.80979e-05
-0.000137933
1.62708e-05
-0.000145196
1.45382e-05
-0.000151649
1.29176e-05
-0.000157346
1.13985e-05
-0.000162317
9.93719e-06
-0.000166621
8.63754e-06
-0.000170282
7.32326e-06
-0.000173305
6.03366e-06
-0.000175774
4.96577e-06
-0.000177611
3.6822e-06
-0.000178843
2.47166e-06
-0.000179489
1.30005e-06
-0.000179483
-7.74255e-09
-0.000178902
-1.16019e-06
-0.000177693
-2.41006e-06
-0.000175971
-3.43941e-06
-0.000173732
-4.48133e-06
-0.000170964
-5.53749e-06
-0.000167661
-6.6081e-06
-0.000163732
-7.86563e-06
-0.000159173
-9.12265e-06
-0.000153852
-1.06339e-05
-0.000147817
-1.20776e-05
-0.000140959
-1.37194e-05
-0.000133301
-1.53192e-05
-0.000124815
-1.69683e-05
-0.000115533
-1.85616e-05
-0.000105416
-2.02272e-05
-9.44778e-05
-2.18654e-05
-8.26927e-05
-2.35735e-05
-7.00834e-05
-2.52111e-05
-5.66507e-05
-2.68644e-05
-4.24168e-05
-2.84604e-05
-2.74515e-05
-2.99184e-05
-1.18521e-05
-3.11862e-05
4.30741e-06
-3.23113e-05
2.08622e-05
-3.30933e-05
3.76288e-05
-3.35255e-05
5.4439e-05
-3.36093e-05
7.10619e-05
-3.32294e-05
8.72668e-05
-3.23981e-05
0.00010287
-3.11966e-05
0.00011757
-2.93925e-05
0.000131195
-2.72318e-05
0.000143323
-2.42496e-05
0.000153949
-2.12535e-05
0.000162782
-1.76533e-05
0.000169747
-1.3933e-05
0.00017469
-9.89209e-06
0.000177587
-5.78229e-06
0.000178311
-1.44477e-06
0.000177137
2.36342e-06
0.000174092
6.0736e-06
0.000169097
9.9887e-06
0.000162303
1.36018e-05
0.000153596
1.7412e-05
0.000142958
2.12739e-05
0.000130604
2.47046e-05
0.000116541
2.81187e-05
0.000100991
3.10884e-05
8.43379e-05
3.32937e-05
6.6763e-05
3.51352e-05
4.86657e-05
3.61801e-05
3.03541e-05
3.66112e-05
1.21619e-05
3.63753e-05
-5.66303e-06
3.56393e-05
-2.28703e-05
3.44104e-05
-3.93106e-05
3.28771e-05
-5.48928e-05
3.11616e-05
-6.95804e-05
2.93727e-05
-8.32948e-05
2.7428e-05
-9.60228e-05
2.54554e-05
-0.000107765
2.34843e-05
-0.000118504
2.14779e-05
-0.00012828
1.95523e-05
-0.000137089
1.76211e-05
-0.000144963
1.57486e-05
-0.000151939
1.3952e-05
-0.000158033
1.21861e-05
-0.000163274
1.04821e-05
-0.000167696
8.84513e-06
-0.000171305
7.22623e-06
-0.000174122
5.63858e-06
-0.000176126
3.992e-06
-0.000177304
2.34584e-06
-0.000177683
7.64296e-07
-0.000177389
-6.03816e-07
-0.000176414
-1.95588e-06
-0.00017472
-3.39542e-06
-0.000172237
-4.96621e-06
-0.000168973
-6.52576e-06
-0.000164908
-8.13044e-06
-0.000159932
-9.95163e-06
-0.000154083
-1.16948e-05
-0.000147312
-1.35468e-05
-0.000139542
-1.55402e-05
-0.000130866
-1.73496e-05
-0.000121097
-1.95336e-05
-0.000110361
-2.14732e-05
-9.87365e-05
-2.32484e-05
-8.60113e-05
-2.54494e-05
-7.22463e-05
-2.75276e-05
-5.76624e-05
-2.9166e-05
-4.2001e-05
-3.1318e-05
-2.5481e-05
-3.30333e-05
-8.37641e-06
-3.421e-05
9.45948e-06
-3.56659e-05
2.77436e-05
-3.656e-05
4.65186e-05
-3.75408e-05
6.55189e-05
-3.79897e-05
8.43355e-05
-3.76205e-05
0.000102975
-3.72691e-05
0.000121155
-3.63388e-05
0.000138506
-3.46879e-05
0.000154927
-3.28369e-05
0.000170096
-3.03289e-05
0.000183811
-2.74204e-05
0.000195809
-2.39882e-05
0.000205901
-2.0175e-05
0.000213831
-1.58636e-05
0.000219525
-1.13855e-05
0.000222759
-6.4636e-06
0.000223509
-1.49845e-06
0.000221655
3.69687e-06
0.000217331
8.64841e-06
0.000210609
1.34431e-05
0.000201516
1.81776e-05
0.000190472
2.20799e-05
0.000177475
2.59832e-05
2.94751e-05
-8.8753e-05
3.09721e-05
-9.81317e-05
2.81374e-05
-0.000106671
2.56201e-05
-0.000114393
2.3167e-05
-0.000121312
2.0761e-05
-0.000127481
1.85114e-05
-0.000132913
1.62977e-05
-0.00013765
1.42059e-05
-0.000141717
1.22001e-05
-0.000145114
1.01813e-05
-0.000147854
8.22921e-06
-0.000149969
6.34256e-06
-0.000151435
4.39444e-06
-0.000152265
2.51196e-06
-0.000152464
6.08008e-07
-0.00015197
-1.47869e-06
-0.00015084
-3.38302e-06
-0.000148985
-5.57268e-06
-0.000146404
-7.74926e-06
-0.000143169
-9.72075e-06
-0.000139119
-1.21584e-05
-0.000134207
-1.47101e-05
-0.000128531
-1.70988e-05
-0.000121845
-2.00273e-05
-0.000114346
-2.24962e-05
-0.000105807
-2.56262e-05
-9.62706e-05
-2.862e-05
-8.58843e-05
-3.11688e-05
-7.44217e-05
-3.4393e-05
-6.18449e-05
-3.77264e-05
-4.83429e-05
-4.05125e-05
-3.36492e-05
-4.40475e-05
-1.82196e-05
-4.6271e-05
-1.76584e-06
-4.93436e-05
1.55423e-05
-5.18999e-05
3.33681e-05
-5.34552e-05
5.17931e-05
-5.52438e-05
7.06781e-05
-5.6616e-05
8.96322e-05
-5.68259e-05
0.000108609
-5.68794e-05
0.000127312
-5.60549e-05
0.000145559
-5.46873e-05
0.000163068
-5.24747e-05
0.000179485
-4.92136e-05
0.000194649
-4.54458e-05
0.000208337
-4.09944e-05
0.000220188
-3.55244e-05
0.000230112
-2.97489e-05
0.000237964
-2.3531e-05
0.000243425
-1.6354e-05
0.000246564
-9.39657e-06
0.000247262
-2.09552e-06
0.000245553
5.08042e-06
0.000241558
1.19922e-05
0.000235201
1.90669e-05
0.000226706
2.54789e-05
0.000216193
3.1497e-05
0.000203781
3.71943e-05
0.00018978
4.19571e-05
0.000174369
4.61818e-05
0.000157838
4.95425e-05
0.000140401
5.22713e-05
0.000122239
5.44336e-05
0.000103627
5.57724e-05
8.48867e-05
5.61707e-05
6.61736e-05
5.60952e-05
4.76937e-05
5.53922e-05
2.95616e-05
5.43498e-05
1.19789e-05
5.27352e-05
-5.03218e-06
5.10006e-05
-2.1295e-05
4.87723e-05
-3.67466e-05
4.63489e-05
-5.14048e-05
4.39739e-05
-6.51492e-05
4.12375e-05
-7.79453e-05
3.83833e-05
-8.9865e-05
3.57539e-05
-0.000100803
3.28175e-05
-0.000110914
3.03302e-05
-0.000120139
2.76744e-05
-0.000128472
2.50023e-05
-0.000136002
2.25825e-05
-0.000142664
1.99829e-05
-0.000148428
1.72997e-05
-0.000153444
1.50311e-05
-0.000157604
1.25035e-05
-0.00016087
9.78875e-06
-0.000163221
7.03688e-06
-0.000164608
4.16881e-06
-0.000165143
1.62437e-06
-0.000164653
-1.47883e-06
-0.000163189
-4.38794e-06
-0.000160754
-7.28687e-06
-0.000157458
-9.87926e-06
-0.000153378
-1.22163e-05
-0.000148574
-1.44004e-05
-0.000143121
-1.63485e-05
-0.000137014
-1.83228e-05
-0.000130257
-2.02793e-05
-0.000122788
-2.24178e-05
-0.000114569
-2.46637e-05
-0.000105578
-2.69973e-05
-9.57171e-05
-2.96035e-05
-8.49807e-05
-3.22283e-05
-7.33219e-05
-3.49916e-05
-6.07004e-05
-3.7862e-05
-4.72174e-05
-4.04625e-05
-3.2921e-05
-4.29015e-05
-1.77292e-05
-4.55646e-05
-1.80779e-06
-4.77696e-05
1.47986e-05
-4.9797e-05
3.19659e-05
-5.14999e-05
4.95285e-05
-5.26474e-05
6.73714e-05
-5.34972e-05
8.53561e-05
-5.38886e-05
0.000103226
-5.36261e-05
0.000120872
-5.28885e-05
0.000138028
-5.1423e-05
0.000154504
-4.93852e-05
0.000170075
-4.66809e-05
0.000184532
-4.33376e-05
0.000197582
-3.91507e-05
0.000209023
-3.42807e-05
0.000218623
-2.88378e-05
0.000226203
-2.26842e-05
0.000231584
-1.61454e-05
0.000234633
-9.15354e-06
0.000235293
-2.02476e-06
0.000233494
5.31599e-06
0.000229233
1.27354e-05
0.000222586
1.98412e-05
0.000213654
2.67614e-05
0.000202623
3.30184e-05
0.000189655
3.88147e-05
0.000174943
4.40904e-05
0.000158805
4.83102e-05
0.000141417
5.204e-05
0.000123052
5.50605e-05
0.000104038
5.69409e-05
8.4569e-05
5.83308e-05
6.4959e-05
5.8787e-05
4.54021e-05
5.8627e-05
2.61869e-05
5.76709e-05
7.40433e-06
5.63367e-05
-1.07646e-05
5.43441e-05
-2.8046e-05
5.18408e-05
-4.43643e-05
4.89973e-05
-5.96288e-05
4.58336e-05
-7.38887e-05
4.26815e-05
-8.69904e-05
3.9287e-05
-9.89625e-05
3.59047e-05
-0.000109804
3.25342e-05
-0.000119558
2.92833e-05
-0.000128252
2.61206e-05
-0.00013595
2.31309e-05
-0.000142682
2.02508e-05
-0.000148516
1.75195e-05
-0.000153452
1.48996e-05
-0.000157695
1.26747e-05
-0.000161132
1.03488e-05
-0.000163863
8.21463e-06
-0.000165919
6.21417e-06
-0.000167325
4.21664e-06
-0.000168128
2.32718e-06
-0.000168309
6.69078e-07
-0.000167818
-1.38605e-06
-0.000166829
-3.02235e-06
-0.000165156
-4.99388e-06
-0.00016288
-6.89617e-06
-0.000159949
-8.76347e-06
-0.000156348
-1.07792e-05
-0.000152057
-1.28357e-05
-0.000147079
-1.49829e-05
-0.000141387
-1.70141e-05
-0.000134964
-1.92622e-05
-0.000127801
-2.14961e-05
-0.000119852
-2.38508e-05
-0.000111099
-2.6249e-05
-0.000101513
-2.87686e-05
-9.10615e-05
-3.12918e-05
-7.97995e-05
-3.39506e-05
-6.76391e-05
-3.63694e-05
-5.45919e-05
-3.91136e-05
-4.06763e-05
-4.17336e-05
-2.58469e-05
-4.43053e-05
-1.03962e-05
-4.65293e-05
5.83757e-06
-4.85953e-05
2.26377e-05
-5.03797e-05
3.99017e-05
-5.17439e-05
5.73997e-05
-5.24941e-05
7.50027e-05
-5.27531e-05
9.24778e-05
-5.24025e-05
0.000109596
-5.13255e-05
0.000126112
-4.95213e-05
0.00014176
-4.68846e-05
0.000156212
-4.33394e-05
0.000169249
-3.90986e-05
0.000180607
-3.40769e-05
0.000190089
-2.83979e-05
0.000197522
-2.2338e-05
0.000202767
-1.56863e-05
0.000205701
-8.75137e-06
0.000206164
-1.5028e-06
0.00020418
5.82857e-06
0.000199682
1.35298e-05
0.000192805
2.06045e-05
0.000183602
2.75298e-05
0.000172282
3.39129e-05
0.000159159
3.92753e-05
0.00014449
4.39542e-05
0.000128546
4.78789e-05
0.000111556
5.07718e-05
9.39065e-05
5.2905e-05
7.58119e-05
5.42127e-05
5.74844e-05
5.49732e-05
3.91574e-05
5.49621e-05
2.10325e-05
5.44089e-05
3.18753e-06
5.33904e-05
-1.40865e-05
5.18574e-05
-3.06341e-05
4.96512e-05
-4.63839e-05
4.72764e-05
-6.12862e-05
4.45816e-05
-7.51949e-05
4.18499e-05
-8.81593e-05
3.88738e-05
-0.00010013
3.59193e-05
-0.000111092
3.29081e-05
-0.00012107
2.99925e-05
-0.000130109
2.7137e-05
-0.000138239
2.44007e-05
-0.000145501
2.18002e-05
-0.000151941
1.93579e-05
-0.000157592
1.70492e-05
-0.000162614
1.49596e-05
-0.000166913
1.29367e-05
-0.000170565
1.0975e-05
-0.00017362
9.08835e-06
-0.000176049
7.39499e-06
-0.000177893
5.52677e-06
-0.000179121
3.69904e-06
-0.000179769
1.94848e-06
-0.000179752
-2.48373e-08
-0.000179169
-1.74284e-06
-0.00017795
-3.62862e-06
-0.00017624
-5.14919e-06
-0.000174005
-6.71687e-06
-0.000171232
-8.30945e-06
-0.000167904
-9.93625e-06
-0.000164018
-1.17513e-05
-0.000159454
-1.3687e-05
-0.000154093
-1.59945e-05
-0.000148098
-1.80724e-05
-0.000141233
-2.05842e-05
-0.000133571
-2.29811e-05
-0.000125079
-2.54602e-05
-0.000115786
-2.78541e-05
-0.00010566
-3.03533e-05
-9.46773e-05
-3.28479e-05
-8.29269e-05
-3.53237e-05
-7.03007e-05
-3.78373e-05
-5.68512e-05
-4.03139e-05
-4.25993e-05
-4.27122e-05
-2.76162e-05
-4.49014e-05
-1.19958e-05
-4.68065e-05
4.1872e-06
-4.84943e-05
2.07756e-05
-4.96818e-05
3.75595e-05
-5.03094e-05
5.43956e-05
-5.04455e-05
7.1042e-05
-4.98759e-05
8.72709e-05
-4.8627e-05
0.000102895
-4.68209e-05
0.000117619
-4.4116e-05
0.00013127
-4.08839e-05
0.0001434
-3.63795e-05
0.000154037
-3.18906e-05
0.000162893
-2.65094e-05
0.000169857
-2.08974e-05
0.000174799
-1.48342e-05
0.000177699
-8.6816e-06
0.00017842
-2.16653e-06
0.000177288
3.49546e-06
0.0001742
9.16143e-06
0.000169204
1.49847e-05
0.000162423
2.0383e-05
0.000153714
2.61204e-05
0.000143079
3.19094e-05
0.000130719
3.70644e-05
0.000116643
4.21945e-05
0.000101073
4.66586e-05
8.43957e-05
4.99711e-05
6.67952e-05
5.27357e-05
4.8673e-05
5.43023e-05
3.03384e-05
5.49458e-05
1.21317e-05
5.4582e-05
-5.70678e-06
5.34778e-05
-2.29239e-05
5.16276e-05
-3.93708e-05
4.9324e-05
-5.49569e-05
4.67476e-05
-6.96472e-05
4.40631e-05
-8.33626e-05
4.11433e-05
-9.60919e-05
3.81847e-05
-0.000107833
3.52256e-05
-0.000118569
3.22139e-05
-0.000128342
2.93252e-05
-0.000137148
2.64274e-05
-0.000145017
2.36169e-05
-0.000151987
2.09222e-05
-0.000158074
1.82732e-05
-0.000163306
1.57142e-05
-0.000167717
1.32565e-05
-0.000171321
1.08296e-05
-0.000174137
8.4545e-06
-0.000176144
5.99952e-06
-0.000177338
3.53987e-06
-0.000177727
1.15351e-06
-0.000177451
-8.80317e-07
-0.000176485
-2.92224e-06
-0.000174798
-5.08252e-06
-0.000172321
-7.44318e-06
-0.000169052
-9.79388e-06
-0.000164989
-1.21935e-05
-0.000160012
-1.49285e-05
-0.000154161
-1.75468e-05
-0.000147395
-2.03119e-05
-0.000139622
-2.33133e-05
-0.000130948
-2.60244e-05
-0.000121173
-2.9308e-05
-0.000110442
-3.22042e-05
-9.88166e-05
-3.48741e-05
-8.60912e-05
-3.81747e-05
-7.23242e-05
-4.12947e-05
-5.77382e-05
-4.37519e-05
-4.20684e-05
-4.69879e-05
-2.55395e-05
-4.95622e-05
-8.4243e-06
-5.13253e-05
9.4251e-06
-5.35153e-05
2.7722e-05
-5.4857e-05
4.65135e-05
-5.63323e-05
6.55368e-05
-5.7013e-05
8.43753e-05
-5.64591e-05
0.00010303
-5.59243e-05
0.000121228
-5.45361e-05
0.000138597
-5.20567e-05
0.000155042
-4.92824e-05
0.000170229
-4.55165e-05
0.000183959
-4.11495e-05
0.000195965
-3.59946e-05
0.000206065
-3.0275e-05
0.000214003
-2.3802e-05
0.000219695
-1.70773e-05
0.000222931
-9.69992e-06
0.000223689
-2.25607e-06
0.000221821
5.56412e-06
0.000217507
1.29631e-05
0.000210783
2.01668e-05
0.000201678
2.72825e-05
0.000190618
3.31395e-05
0.000177604
3.89977e-05
4.42378e-05
-8.886e-05
4.12957e-05
-9.82387e-05
3.75161e-05
-0.000106778
3.41595e-05
-0.000114499
3.08877e-05
-0.000121417
2.76792e-05
-0.000127583
2.46774e-05
-0.000133014
2.17288e-05
-0.000137751
1.89425e-05
-0.000141815
1.62648e-05
-0.000145218
1.35838e-05
-0.000147953
1.09647e-05
-0.000150074
8.46333e-06
-0.000151536
5.85667e-06
-0.000152359
3.33479e-06
-0.000152552
8.00761e-07
-0.000152044
-1.98648e-06
-0.000150909
-4.518e-06
-0.000149058
-7.42402e-06
-0.000146486
-1.03213e-05
-0.000143263
-1.2944e-05
-0.000139216
-1.6205e-05
-0.000134296
-1.96304e-05
-0.000128637
-2.27575e-05
-0.000121953
-2.67113e-05
-0.000114451
-2.99989e-05
-0.000105915
-3.41617e-05
-9.63864e-05
-3.81487e-05
-8.60084e-05
-4.15468e-05
-7.45454e-05
-4.58561e-05
-6.19707e-05
-5.03011e-05
-4.8432e-05
-5.40512e-05
-3.37644e-05
-5.87151e-05
-1.83167e-05
-6.17187e-05
-1.85277e-06
-6.58075e-05
1.54696e-05
-6.92224e-05
3.33079e-05
-7.12936e-05
5.17517e-05
-7.36877e-05
7.06584e-05
-7.55227e-05
8.96307e-05
-7.57982e-05
0.000108635
-7.58832e-05
0.000127368
-7.47888e-05
0.000145645
-7.29644e-05
0.000163191
-7.00204e-05
0.000179626
-6.56485e-05
0.000194816
-6.06361e-05
0.000208535
-5.4713e-05
0.000220404
-4.73934e-05
0.000230342
-3.96868e-05
0.000238214
-3.14036e-05
0.00024369
-2.18295e-05
0.000246834
-1.25415e-05
0.000247525
-2.78642e-06
0.000245799
6.80618e-06
0.000241813
1.59791e-05
0.000235447
2.54328e-05
0.000226947
3.39788e-05
0.000216409
4.20344e-05
0.000203971
4.96325e-05
0.000189944
5.59837e-05
0.000174504
6.16217e-05
0.000157945
6.61022e-05
0.000140443
6.97733e-05
0.000122294
7.25825e-05
0.00010365
7.44159e-05
8.48779e-05
7.49431e-05
6.61417e-05
7.48313e-05
4.7641e-05
7.38929e-05
2.94831e-05
7.25077e-05
1.18929e-05
7.03254e-05
-5.13435e-06
6.80279e-05
-2.14058e-05
6.50438e-05
-3.68567e-05
6.17997e-05
-5.1516e-05
5.86332e-05
-6.52549e-05
5.49764e-05
-7.80545e-05
5.11828e-05
-8.99784e-05
4.76778e-05
-0.000100911
4.375e-05
-0.000111026
4.04457e-05
-0.000120251
3.68985e-05
-0.00012858
3.33314e-05
-0.000136113
3.01155e-05
-0.000142779
2.66495e-05
-0.000148542
2.30623e-05
-0.000153568
2.0057e-05
-0.000157718
1.66529e-05
-0.000160995
1.30659e-05
-0.000163357
9.39822e-06
-0.000164762
5.57387e-06
-0.000165286
2.14761e-06
-0.000164796
-1.96923e-06
-0.000163331
-5.85289e-06
-0.000160888
-9.7304e-06
-0.0001576
-1.31674e-05
-0.000153512
-1.63045e-05
-0.000148719
-1.91934e-05
-0.000143266
-2.18021e-05
-0.000137166
-2.44231e-05
-0.000130424
-2.70212e-05
-0.000122978
-2.98641e-05
-0.000114773
-3.2869e-05
-0.000105799
-3.59715e-05