/*--------------------------------*- C++ -*----------------------------------*\
| =========                 |                                                 |
| \\      /  F ield         | OpenFOAM: The Open Source CFD Toolbox           |
|  \\    /   O peration     | Version:  3.0.1                                 |
|   \\  /    A nd           | Web:      www.OpenFOAM.org                      |
|    \\/     M anipulation  |                                                 |
\*---------------------------------------------------------------------------*/
FoamFile
{
    version     2.0;
    format      ascii;
    class       surfaceScalarField;
    location    "94";
    object      phi;
}
// * * * * * * * * * * * * * * * * * * * * * * * * * * * * * * * * * * * * * //

dimensions      [0 3 -1 0 0 0 0];

internalField   nonuniform List<scalar> 
42423
(
-8.66299e-05
1.05143e-05
-9.61962e-05
9.56627e-06
-0.000104918
8.72212e-06
-0.000112817
7.89868e-06
-0.000119907
7.08998e-06
-0.000126242
6.33453e-06
-0.00013183
5.58838e-06
-0.000136714
4.88415e-06
-0.000140926
4.21173e-06
-0.000144461
3.5348e-06
-0.000147344
2.88313e-06
-0.000149595
2.25107e-06
-0.000151189
1.59411e-06
-0.00015216
9.71223e-07
-0.000152503
3.42579e-07
-0.00015215
-3.52445e-07
-0.000151161
-9.89634e-07
-0.000149443
-1.71805e-06
-0.000147005
-2.43735e-06
-0.000143912
-3.09297e-06
-0.000140015
-3.89712e-06
-0.000135286
-4.72867e-06
-0.000129737
-5.54953e-06
-0.000123244
-6.49339e-06
-0.000115926
-7.31707e-06
-0.000107575
-8.35135e-06
-9.82289e-05
-9.34626e-06
-8.80347e-05
-1.01942e-05
-7.6766e-05
-1.12687e-05
-6.43944e-05
-1.23717e-05
-5.10849e-05
-1.33095e-05
-3.66001e-05
-1.44848e-05
-2.13586e-05
-1.52415e-05
-5.07924e-06
-1.62794e-05
1.20699e-05
-1.71492e-05
2.97614e-05
-1.76915e-05
4.80782e-05
-1.83168e-05
6.68855e-05
-1.88074e-05
8.58018e-05
-1.89163e-05
0.000104778
-1.8976e-05
0.000123526
-1.87479e-05
0.00014187
-1.83442e-05
0.000159532
-1.76626e-05
0.00017616
-1.6628e-05
0.000191581
-1.54205e-05
0.000205557
-1.39758e-05
0.000217769
-1.22128e-05
0.000228099
-1.03295e-05
0.000236387
-8.28858e-06
0.000242307
-5.91938e-06
0.000245927
-3.62026e-06
0.000247117
-1.18955e-06
0.000245935
1.18138e-06
0.000242429
3.50595e-06
0.000236531
5.89841e-06
0.000228472
8.05836e-06
0.000218385
1.00874e-05
0.000206355
1.20302e-05
0.000192692
1.36628e-05
0.000177572
1.51198e-05
0.00016128
1.62919e-05
0.000144025
1.72549e-05
0.000126
1.80259e-05
0.000107482
1.85172e-05
8.87813e-05
1.8701e-05
7.006e-05
1.87213e-05
5.15378e-05
1.85222e-05
3.33264e-05
1.82114e-05
1.5614e-05
1.77124e-05
-1.53209e-06
1.71461e-05
-1.79583e-05
1.64262e-05
-3.35959e-05
1.56375e-05
-4.84514e-05
1.48556e-05
-6.24004e-05
1.3949e-05
-7.53979e-05
1.29975e-05
-8.75166e-05
1.21187e-05
-9.86573e-05
1.11406e-05
-0.000108963
1.03054e-05
-0.000118379
9.41649e-06
-0.000126902
8.52269e-06
-0.000134606
7.70415e-06
-0.000141443
6.83716e-06
-0.000147388
5.94491e-06
-0.000152564
5.17628e-06
-0.000156905
4.34099e-06
-0.000160331
3.42553e-06
-0.000162838
2.50678e-06
-0.000164383
1.54533e-06
-0.000165089
7.05766e-07
-0.000164754
-3.35047e-07
-0.000163442
-1.31197e-06
-0.000161167
-2.2752e-06
-0.000158033
-3.13357e-06
-0.000154122
-3.91096e-06
-0.000149483
-4.63916e-06
-0.000144192
-5.29056e-06
-0.000138246
-5.9463e-06
-0.000131652
-6.59411e-06
-0.000124349
-7.3034e-06
-0.000116298
-8.05079e-06
-0.00010747
-8.82751e-06
-9.7781e-05
-9.68926e-06
-8.72189e-05
-1.05621e-05
-7.57332e-05
-1.14857e-05
-6.32902e-05
-1.2443e-05
-4.998e-05
-1.33103e-05
-3.5842e-05
-1.4138e-05
-2.0815e-05
-1.5027e-05
-5.02671e-06
-1.57883e-05
1.14418e-05
-1.64685e-05
2.85073e-05
-1.70655e-05
4.59735e-05
-1.74663e-05
6.37554e-05
-1.77819e-05
8.16979e-05
-1.79425e-05
9.96035e-05
-1.79057e-05
0.000117296
-1.76921e-05
0.000134545
-1.72489e-05
0.000151164
-1.66195e-05
0.000166931
-1.57668e-05
0.00018163
-1.46994e-05
0.000194989
-1.33589e-05
0.000206765
-1.17755e-05
0.000216781
-1.00165e-05
0.000224771
-7.99033e-06
0.000230626
-5.85446e-06
0.000234166
-3.54031e-06
0.000235341
-1.17536e-06
0.000234109
1.23262e-06
0.000230391
3.71733e-06
0.000224278
6.11342e-06
0.000215792
8.48604e-06
0.000205233
1.05591e-05
0.000192715
1.25174e-05
0.000178352
1.43632e-05
0.000162549
1.5803e-05
0.000145444
1.71057e-05
0.000127269
1.81746e-05
0.000108425
1.88438e-05
8.9055e-05
1.937e-05
6.9472e-05
1.9583e-05
4.98915e-05
1.95805e-05
3.05918e-05
1.92997e-05
1.16814e-05
1.89104e-05
-6.55757e-06
1.8239e-05
-2.40251e-05
1.74675e-05
-4.05753e-05
1.65502e-05
-5.60994e-05
1.55241e-05
-7.05136e-05
1.44142e-05
-8.38453e-05
1.33318e-05
-9.60445e-05
1.21991e-05
-0.000107124
1.10798e-05
-0.000117117
9.99241e-06
-0.000126052
8.93494e-06
-0.000133982
7.93031e-06
-0.00014094
6.95799e-06
-0.000146966
6.02625e-06
-0.000152145
5.17835e-06
-0.00015651
4.36533e-06
-0.000160132
3.62169e-06
-0.000163021
2.88974e-06
-0.000165245
2.22363e-06
-0.000166787
1.54157e-06
-0.000167687
9.00599e-07
-0.000168063
3.75983e-07
-0.000167746
-3.17437e-07
-0.000166852
-8.94146e-07
-0.000165317
-1.53502e-06
-0.00016313
-2.18665e-06
-0.000160344
-2.78537e-06
-0.000156888
-3.45669e-06
-0.000152748
-4.13992e-06
-0.000147873
-4.87458e-06
-0.000142354
-5.5193e-06
-0.000136076
-6.27755e-06
-0.00012906
-7.0162e-06
-0.000121267
-7.79342e-06
-0.000112675
-8.5923e-06
-0.000103243
-9.432e-06
-9.29879e-05
-1.02547e-05
-8.18092e-05
-1.11787e-05
-6.9873e-05
-1.19362e-05
-5.70088e-05
-1.28642e-05
-4.32699e-05
-1.37389e-05
-2.8691e-05
-1.45789e-05
-1.32935e-05
-1.53975e-05
2.75448e-06
-1.6048e-05
1.94384e-05
-1.6684e-05
3.65988e-05
-1.71604e-05
5.40387e-05
-1.74399e-05
7.16162e-05
-1.75776e-05
8.91203e-05
-1.75041e-05
0.000106316
-1.71959e-05
0.000122962
-1.66454e-05
0.000138782
-1.582e-05
0.000153477
-1.46958e-05
0.000166804
-1.33265e-05
0.000178539
-1.1735e-05
0.000188401
-9.86227e-06
0.000196311
-7.91001e-06
0.000202001
-5.6897e-06
0.000205407
-3.40666e-06
0.000206435
-1.02734e-06
0.00020506
1.37496e-06
0.000201052
4.00738e-06
0.000194675
6.37677e-06
0.000185957
8.71853e-06
0.000175082
1.08745e-05
0.00016237
1.27121e-05
0.00014803
1.43407e-05
0.000132308
1.57216e-05
0.000115605
1.67026e-05
9.81001e-05
1.75051e-05
8.01128e-05
1.79873e-05
6.18012e-05
1.83117e-05
4.34458e-05
1.83554e-05
2.52198e-05
1.8226e-05
7.32546e-06
1.78943e-05
-1.00937e-05
1.74192e-05
-2.68167e-05
1.6723e-05
-4.27644e-05
1.59477e-05
-5.78037e-05
1.50393e-05
-7.198e-05
1.41763e-05
-8.5148e-05
1.3168e-05
-9.73327e-05
1.21847e-05
-0.000108513
1.11808e-05
-0.000118721
1.02077e-05
-0.000127961
9.2402e-06
-0.000136282
8.32075e-06
-0.000143729
7.44733e-06
-0.000150357
6.62733e-06
-0.000156214
5.85758e-06
-0.000161329
5.11427e-06
-0.000165804
4.47537e-06
-0.000169602
3.79803e-06
-0.000172743
3.14119e-06
-0.000175364
2.62118e-06
-0.000177329
1.96418e-06
-0.000178682
1.35358e-06
-0.000179443
7.61219e-07
-0.000179555
1.11268e-07
-0.000179084
-4.70222e-07
-0.000177994
-1.09053e-06
-0.000176391
-1.60277e-06
-0.000174269
-2.12251e-06
-0.000171624
-2.64483e-06
-0.000168449
-3.17524e-06
-0.000164647
-3.80154e-06
-0.000160224
-4.42337e-06
-0.000155055
-5.16877e-06
-0.00014916
-5.89474e-06
-0.000142451
-6.70969e-06
-0.000134945
-7.50534e-06
-0.000126622
-8.3236e-06
-0.000117502
-9.11924e-06
-0.000107555
-9.94767e-06
-9.67896e-05
-1.07651e-05
-8.51619e-05
-1.16278e-05
-7.27169e-05
-1.2445e-05
-5.94357e-05
-1.32812e-05
-4.53499e-05
-1.40858e-05
-3.05241e-05
-1.48259e-05
-1.50465e-05
-1.54776e-05
1.01899e-06
-1.60655e-05
1.75049e-05
-1.6486e-05
3.42449e-05
-1.674e-05
5.10636e-05
-1.68186e-05
6.77329e-05
-1.66694e-05
8.40364e-05
-1.63035e-05
9.97905e-05
-1.57541e-05
0.000114696
-1.49051e-05
0.000128568
-1.38723e-05
0.000141005
-1.24368e-05
0.000151995
-1.099e-05
0.000161219
-9.22437e-06
0.000168625
-7.40588e-06
0.000174039
-5.41444e-06
0.000177415
-3.37582e-06
0.000178631
-1.21561e-06
0.000177894
7.36926e-07
0.000175319
2.57498e-06
0.000170755
4.56371e-06
0.000164355
6.40034e-06
0.000156022
8.33257e-06
0.000145715
1.03069e-05
0.000133645
1.207e-05
0.000119816
1.38297e-05
0.000104443
1.53725e-05
8.79085e-05
1.65346e-05
7.03944e-05
1.75141e-05
5.22995e-05
1.80949e-05
3.39347e-05
1.83648e-05
1.56415e-05
1.82932e-05
-2.32327e-06
1.79647e-05
-1.96753e-05
1.7352e-05
-3.62864e-05
1.66111e-05
-5.20543e-05
1.57679e-05
-6.6937e-05
1.48826e-05
-8.08522e-05
1.39152e-05
-9.37812e-05
1.2929e-05
-0.000105723
1.19414e-05
-0.000116656
1.09338e-05
-0.000126622
9.96575e-06
-0.000135616
8.99415e-06
-0.000143667
8.05051e-06
-0.000150812
7.14498e-06
-0.000157067
6.25527e-06
-0.000162465
5.39788e-06
-0.000167039
4.57451e-06
-0.000170805
3.76595e-06
-0.000173775
2.96919e-06
-0.000175917
2.14217e-06
-0.000177231
1.31463e-06
-0.000177761
5.30065e-07
-0.000177571
-1.90731e-07
-0.00017672
-8.5095e-07
-0.000175156
-1.56422e-06
-0.000172818
-2.33743e-06
-0.000169709
-3.10901e-06
-0.0001658
-3.9095e-06
-0.00016099
-4.80918e-06
-0.000155317
-5.67313e-06
-0.00014872
-6.59701e-06
-0.000141135
-7.58511e-06
-0.00013265
-8.48544e-06
-0.000123078
-9.57135e-06
-0.000112537
-1.05412e-05
-0.00010111
-1.14275e-05
-8.85811e-05
-1.25286e-05
-7.50122e-05
-1.35689e-05
-6.0617e-05
-1.43952e-05
-4.51375e-05
-1.54795e-05
-2.87891e-05
-1.63484e-05
-1.18316e-05
-1.69576e-05
5.87414e-06
-1.77057e-05
2.4051e-05
-1.81769e-05
4.27529e-05
-1.87019e-05
6.17153e-05
-1.89624e-05
8.05351e-05
-1.88199e-05
9.92335e-05
-1.86984e-05
0.000117512
-1.82783e-05
0.000135017
-1.75048e-05
0.000151654
-1.66375e-05
0.000167084
-1.54303e-05
0.000181109
-1.40246e-05
0.000193464
-1.23556e-05
0.000203953
-1.04884e-05
0.000212328
-8.37541e-06
0.000218493
-6.16454e-06
0.000222221
-3.72839e-06
0.000223475
-1.25371e-06
0.000222152
1.32279e-06
0.000218329
3.82315e-06
0.00021208
6.24876e-06
0.000203449
8.63142e-06
0.000192828
1.06207e-05
0.000180215
1.26127e-05
1.44029e-05
-8.66673e-05
2.10299e-05
-9.62333e-05
1.91322e-05
-0.000104956
1.74449e-05
-0.000112856
1.57982e-05
-0.000119946
1.41804e-05
-0.00012628
1.26688e-05
-0.00013187
1.11786e-05
-0.000136758
9.77169e-06
-0.00014097
8.42336e-06
-0.000144502
7.06734e-06
-0.000147385
5.76552e-06
-0.000149631
4.49789e-06
-0.000151232
3.19516e-06
-0.000152201
1.94018e-06
-0.000152541
6.81874e-07
-0.000152192
-7.01452e-07
-0.000151205
-1.976e-06
-0.00014949
-3.43301e-06
-0.000147052
-4.87546e-06
-0.000143961
-6.1845e-06
-0.000140063
-7.79524e-06
-0.000135322
-9.46966e-06
-0.000129789
-1.10822e-05
-0.000123296
-1.29862e-05
-0.000115982
-1.4631e-05
-0.000107627
-1.67071e-05
-9.82805e-05
-1.86924e-05
-8.80876e-05
-2.03871e-05
-7.68237e-05
-2.25326e-05
-6.44455e-05
-2.47498e-05
-5.11362e-05
-2.66189e-05
-3.6646e-05
-2.8975e-05
-2.1402e-05
-3.04855e-05
-5.11631e-06
-3.25652e-05
1.20355e-05
-3.4301e-05
2.97323e-05
-3.53884e-05
4.80567e-05
-3.66412e-05
6.68733e-05
-3.7624e-05
8.57982e-05
-3.78412e-05
0.000104787
-3.79645e-05
0.000123547
-3.75087e-05
0.000141905
-3.67018e-05
0.000159576
-3.53336e-05
0.000176212
-3.32643e-05
0.000191645
-3.0853e-05
0.000205646
-2.79773e-05
0.000217866
-2.44328e-05
0.000228199
-2.06622e-05
0.000236492
-1.65816e-05
0.000242419
-1.18469e-05
0.000246045
-7.24586e-06
0.00024724
-2.38438e-06
0.000246048
2.37283e-06
0.000242544
7.00986e-06
0.000236649
1.17937e-05
0.000228591
1.61165e-05
0.000218495
2.01826e-05
0.000206456
2.40693e-05
0.000192784
2.73352e-05
0.000177653
3.0251e-05
0.000161349
3.25954e-05
0.000144084
3.45202e-05
0.000126044
3.6065e-05
0.000107509
3.70526e-05
8.87936e-05
3.74164e-05
7.00593e-05
3.74557e-05
5.15187e-05
3.70627e-05
3.32954e-05
3.64348e-05
1.55814e-05
3.54263e-05
-1.5815e-06
3.4309e-05
-1.8015e-05
3.28597e-05
-3.36527e-05
3.12753e-05
-4.85082e-05
2.9711e-05
-6.24572e-05
2.78981e-05
-7.54559e-05
2.59961e-05
-8.75778e-05
2.42406e-05
-9.87185e-05
2.22813e-05
-0.000109025
2.0612e-05
-0.000118441
1.88326e-05
-0.000126961
1.70425e-05
-0.000134672
1.54152e-05
-0.000141509
1.3674e-05
-0.000147446
1.18821e-05
-0.000152624
1.03538e-05
-0.000156959
8.67669e-06
-0.000160384
6.84995e-06
-0.000162888
5.01145e-06
-0.000164434
3.09063e-06
-0.000165127
1.39907e-06
-0.000164783
-6.79327e-07
-0.000163472
-2.62265e-06
-0.000161194
-4.55306e-06
-0.000158044
-6.28371e-06
-0.000154121
-7.83462e-06
-0.00014947
-9.28962e-06
-0.000144177
-1.05833e-05
-0.000138227
-1.18967e-05
-0.000131625
-1.31956e-05
-0.000124316
-1.46129e-05
-0.000116266
-1.61004e-05
-0.00010744
-1.76535e-05
-9.77455e-05
-1.93842e-05
-8.71783e-05
-2.11293e-05
-7.56941e-05
-2.297e-05
-6.32556e-05
-2.48815e-05
-4.99353e-05
-2.66306e-05
-3.57997e-05
-2.82736e-05
-2.07612e-05
-3.00655e-05
-4.97028e-06
-3.15793e-05
1.14977e-05
-3.29366e-05
2.85657e-05
-3.41336e-05
4.60419e-05
-3.49425e-05
6.38339e-05
-3.55739e-05
8.17838e-05
-3.58925e-05
9.96988e-05
-3.58207e-05
0.000117396
-3.53892e-05
0.000134648
-3.45015e-05
0.000151266
-3.32371e-05
0.000167032
-3.15327e-05
0.000181732
-2.93996e-05
0.00019509
-2.6717e-05
0.000206863
-2.35488e-05
0.000216877
-2.00306e-05
0.00022486
-1.59726e-05
0.000230697
-1.16923e-05
0.000234231
-7.0745e-06
0.000235397
-2.34098e-06
0.000234124
2.5054e-06
0.000230377
7.46491e-06
0.000224239
1.22506e-05
0.00021579
1.69355e-05
0.000205185
2.11641e-05
0.000192593
2.51092e-05
0.000178219
2.87373e-05
0.000162386
3.16356e-05
0.000145268
3.4224e-05
0.000127064
3.63781e-05
0.000108188
3.77203e-05
8.87971e-05
3.87609e-05
6.92016e-05
3.91785e-05
4.96161e-05
3.9166e-05
3.02783e-05
3.86375e-05
1.13773e-05
3.78114e-05
-6.87823e-06
3.64945e-05
-2.43422e-05
3.49315e-05
-4.08834e-05
3.30914e-05
-5.63693e-05
3.101e-05
-7.08345e-05
2.88793e-05
-8.41531e-05
2.66503e-05
-9.63503e-05
2.43964e-05
-0.000107419
2.21488e-05
-0.000117399
1.99723e-05
-0.000126317
1.78526e-05
-0.000134228
1.58413e-05
-0.000141175
1.39051e-05
-0.0001472
1.20516e-05
-0.000152331
1.03093e-05
-0.000156724
8.75851e-06
-0.000160323
7.22055e-06
-0.00016321
5.77592e-06
-0.000165424
4.43784e-06
-0.000166961
3.0792e-06
-0.000167838
1.77702e-06
-0.000168201
7.3917e-07
-0.000167873
-6.4497e-07
-0.00016698
-1.78757e-06
-0.000165438
-3.07704e-06
-0.000163251
-4.37381e-06
-0.000160452
-5.58477e-06
-0.000156981
-6.92711e-06
-0.000152833
-8.28768e-06
-0.000147967
-9.74099e-06
-0.000142436
-1.10499e-05
-0.000136156
-1.25581e-05
-0.000129129
-1.40431e-05
-0.00012132
-1.56021e-05
-0.000112726
-1.71865e-05
-0.000103294
-1.88642e-05
-9.30347e-05
-2.05139e-05
-8.1858e-05
-2.23554e-05
-6.99209e-05
-2.38733e-05
-5.70531e-05
-2.5732e-05
-4.33015e-05
-2.74906e-05
-2.87169e-05
-2.91636e-05
-1.33261e-05
-3.07883e-05
2.73047e-06
-3.21047e-05
1.94166e-05
-3.33702e-05
3.65809e-05
-3.43247e-05
5.40482e-05
-3.49072e-05
7.16103e-05
-3.51398e-05
8.91129e-05
-3.50067e-05
0.000106303
-3.43857e-05
0.000122947
-3.32901e-05
0.00013876
-3.16331e-05
0.000153459
-2.93944e-05
0.000166808
-2.66756e-05
0.000178507
-2.34342e-05
0.000188367
-1.9722e-05
0.000196247
-1.57899e-05
0.000201947
-1.139e-05
0.000205353
-6.81226e-06
0.000206367
-2.0423e-06
0.000204937
2.80522e-06
0.000200937
8.00709e-06
0.000194544
1.27703e-05
0.000185829
1.74336e-05
0.000174918
2.17854e-05
0.00016218
2.54495e-05
0.000147827
2.86938e-05
0.000132087
3.14619e-05
0.000115361
3.34286e-05
9.78474e-05
3.50186e-05
7.98427e-05
3.5992e-05
6.15313e-05
3.66231e-05
4.31795e-05
3.67072e-05
2.49648e-05
3.64406e-05
7.08295e-06
3.57762e-05
-1.03668e-05
3.48689e-05
-2.70829e-05
3.34392e-05
-4.30328e-05
3.18975e-05
-5.80679e-05
3.00744e-05
-7.2241e-05
2.83493e-05
-8.53958e-05
2.63228e-05
-9.75709e-05
2.43598e-05
-0.000108739
2.23491e-05
-0.000118937
2.04053e-05
-0.00012817
1.84735e-05
-0.000136479
1.66301e-05
-0.000143913
1.4881e-05
-0.00015053
1.32444e-05
-0.000156382
1.17098e-05
-0.000161503
1.02345e-05
-0.000165949
8.92167e-06
-0.000169746
7.59473e-06
-0.000172898
6.29359e-06
-0.000175491
5.21433e-06
-0.000177448
3.92115e-06
-0.000178795
2.70011e-06
-0.000179548
1.51405e-06
-0.000179654
2.18229e-07
-0.000179183
-9.42024e-07
-0.000178085
-2.18839e-06
-0.000176478
-3.20951e-06
-0.000174358
-4.24217e-06
-0.000171716
-5.28771e-06
-0.000168543
-6.34757e-06
-0.00016475
-7.59479e-06
-0.000160331
-8.8427e-06
-0.000155155
-1.03447e-05
-0.000149269
-1.17805e-05
-0.000142563
-1.34152e-05
-0.000135061
-1.50079e-05
-0.000126734
-1.6651e-05
-0.000117613
-1.82395e-05
-0.000107658
-1.99028e-05
-9.68827e-05
-2.15407e-05
-8.52586e-05
-2.32518e-05
-7.28065e-05
-2.48972e-05
-5.95246e-05
-2.65632e-05
-4.54316e-05
-2.81788e-05
-3.05936e-05
-2.96639e-05
-1.51036e-05
-3.09676e-05
9.69061e-07
-3.21382e-05
1.74712e-05
-3.29881e-05
3.42191e-05
-3.3488e-05
5.10487e-05
-3.36483e-05
6.77345e-05
-3.33552e-05
8.40499e-05
-3.26189e-05
9.98143e-05
-3.15185e-05
0.000114727
-2.98175e-05
0.000128617
-2.77625e-05
0.000141062
-2.48823e-05
0.00015205
-2.19781e-05
0.000161288
-1.84619e-05
0.000168691
-1.48095e-05
0.0001741
-1.08232e-05
0.000177488
-6.76405e-06
0.000178709
-2.43608e-06
0.000177985
1.46028e-06
0.000175394
5.16663e-06
0.000170831
9.12621e-06
0.000164445
1.27868e-05
0.000156111
1.66661e-05
0.000145803
2.06148e-05
0.00013373
2.4143e-05
0.000119894
2.76662e-05
0.000104509
3.07567e-05
8.79618e-05
3.30822e-05
7.04331e-05
3.50428e-05
5.23235e-05
3.62045e-05
3.39463e-05
3.6742e-05
1.56435e-05
3.6596e-05
-2.33275e-06
3.5941e-05
-1.96888e-05
3.47081e-05
-3.63037e-05
3.3226e-05
-5.20748e-05
3.1539e-05
-6.69598e-05
2.97677e-05
-8.0876e-05
2.78314e-05
-9.38057e-05
2.58587e-05
-0.000105748
2.38833e-05
-0.000116681
2.18672e-05
-0.000126646
1.99305e-05
-0.000135639
1.7987e-05
-0.000143688
1.61e-05
-0.000150833
1.42897e-05
-0.000157089
1.25115e-05
-0.000162487
1.07959e-05
-0.000167062
9.14893e-06
-0.000170819
7.52332e-06
-0.000173784
5.93401e-06
-0.000175941
4.29926e-06
-0.000177267
2.64096e-06
-0.00017779
1.05285e-06
-0.000177613
-3.67302e-07
-0.00017677
-1.69452e-06
-0.000175212
-3.12176e-06
-0.000172876
-4.67427e-06
-0.000169763
-6.2214e-06
-0.000165855
-7.81739e-06
-0.000161046
-9.61895e-06
-0.00015537
-1.13484e-05
-0.000148777
-1.31898e-05
-0.000141192
-1.5171e-05
-0.000132705
-1.69725e-05
-0.000123128
-1.91477e-05
-0.000112589
-2.10805e-05
-0.000101161
-2.28557e-05
-8.86313e-05
-2.50581e-05
-7.50601e-05
-2.71401e-05
-6.06632e-05
-2.87922e-05
-4.51789e-05
-3.09639e-05
-2.8824e-05
-3.27033e-05
-1.18673e-05
-3.39143e-05
5.84424e-06
-3.54173e-05
2.40291e-05
-3.63618e-05
4.274e-05
-3.74128e-05
6.17129e-05
-3.79355e-05
8.05454e-05
-3.76523e-05
9.92543e-05
-3.74074e-05
0.000117553
-3.65772e-05
0.000135072
-3.50239e-05
0.000151716
-3.32809e-05
0.000167154
-3.08683e-05
0.000181189
-2.80604e-05
0.000193553
-2.47193e-05
0.00020405
-2.09856e-05
0.000212422
-1.67478e-05
0.000218588
-1.23307e-05
0.000222322
-7.4624e-06
0.00022358
-2.51179e-06
0.000222244
2.65951e-06
0.000218421
7.64547e-06
0.000212173
1.24969e-05
0.000203534
1.727e-05
0.000192905
2.12496e-05
0.000180283
2.5235e-05
2.88172e-05
-8.67395e-05
3.15456e-05
-9.6305e-05
2.86977e-05
-0.000105027
2.61667e-05
-0.000112925
2.36963e-05
-0.000120014
2.12695e-05
-0.000126346
1.90007e-05
-0.000131934
1.67672e-05
-0.000136821
1.46586e-05
-0.000141035
1.26367e-05
-0.000144573
1.06052e-05
-0.00014745
8.6434e-06
-0.000149701
6.74851e-06
-0.0001513
4.79412e-06
-0.000152262
2.90194e-06
-0.000152596
1.0157e-06
-0.000152242
-1.05526e-06
-0.00015125
-2.96739e-06
-0.000149537
-5.14632e-06
-0.000147103
-7.30936e-06
-0.000144018
-9.26949e-06
-0.000140126
-1.16879e-05
-0.000135377
-1.42179e-05
-0.000129871
-1.65885e-05
-0.000123364
-1.94938e-05
-0.000116048
-2.19465e-05
-0.000107698
-2.50569e-05
-9.83579e-05
-2.80328e-05
-8.81694e-05
-3.05756e-05
-7.69059e-05
-3.37962e-05
-6.45293e-05
-3.71264e-05
-5.12233e-05
-3.99249e-05
-3.67197e-05
-4.34787e-05
-2.14684e-05
-4.57368e-05
-5.17761e-06
-4.8856e-05
1.19849e-05
-5.14635e-05
2.96897e-05
-5.30933e-05
4.80254e-05
-5.49769e-05
6.68564e-05
-5.64551e-05
8.57949e-05
-5.67797e-05
0.000104803
-5.69724e-05
0.000123584
-5.62896e-05
0.000141961
-5.5079e-05
0.000159653
-5.30262e-05
0.000176305
-4.99155e-05
0.000191755
-4.63037e-05
0.000205779
-4.20015e-05
0.00021801
-3.66637e-05
0.000228353
-3.10049e-05
0.000236658
-2.4887e-05
0.000242596
-1.77849e-05
0.000246227
-1.08765e-05
0.000247425
-3.58304e-06
0.000246215
3.58334e-06
0.000242711
1.05141e-05
0.000236815
1.76898e-05
0.000228755
2.41764e-05
0.000218644
3.02936e-05
0.000206588
3.6125e-05
0.000192898
4.10248e-05
0.000177748
4.54017e-05
0.000161425
4.89178e-05
0.000144145
5.18008e-05
0.000126086
5.41238e-05
0.000107527
5.56114e-05
8.87936e-05
5.61499e-05
7.00432e-05
5.6206e-05
5.14876e-05
5.56183e-05
3.32467e-05
5.46757e-05
1.55267e-05
5.31463e-05
-1.64406e-06
5.14798e-05
-1.80832e-05
4.92988e-05
-3.37243e-05
4.69164e-05
-4.85806e-05
4.45673e-05
-6.25278e-05
4.18453e-05
-7.55287e-05
3.8997e-05
-8.76518e-05
3.63638e-05
-9.87905e-05
3.342e-05
-0.000109099
3.09202e-05
-0.000118514
2.82481e-05
-0.000127034
2.55621e-05
-0.000134746
2.31273e-05
-0.000141584
2.0512e-05
-0.00014752
1.78186e-05
-0.000152706
1.55399e-05
-0.000157032
1.30021e-05
-0.000160462
1.02801e-05
-0.000162973
7.52258e-06
-0.000164517
4.63462e-06
-0.000165207
2.08885e-06
-0.000164869
-1.01701e-06
-0.000163556
-3.93583e-06
-0.00016127
-6.83914e-06
-0.000158123
-9.43054e-06
-0.000154194
-1.17641e-05
-0.000149542
-1.39414e-05
-0.000144244
-1.58808e-05
-0.000138297
-1.78445e-05
-0.000131703
-1.97888e-05
-0.000124402
-2.19145e-05
-0.000116355
-2.4147e-05
-0.00010754
-2.6469e-05
-9.78584e-05
-2.90657e-05
-8.73033e-05
-3.16844e-05
-7.5826e-05
-3.44472e-05
-6.33843e-05
-3.73233e-05
-5.0076e-05
-3.9939e-05
-3.59458e-05
-4.24038e-05
-2.09084e-05
-4.51029e-05
-5.1239e-06
-4.73639e-05
1.13567e-05
-4.94172e-05
2.84247e-05
-5.12015e-05
4.59159e-05
-5.24338e-05
6.37182e-05
-5.33763e-05
8.16969e-05
-5.38712e-05
9.95982e-05
-5.37221e-05
0.000117317
-5.31083e-05
0.000134591
-5.17751e-05
0.00015123
-4.98762e-05
0.000167012
-4.73152e-05
0.00018173
-4.41175e-05
0.000195089
-4.00755e-05
0.000206883
-3.53437e-05
0.000216881
-3.00283e-05
0.000224895
-2.39866e-05
0.000230741
-1.75379e-05
0.000234275
-1.06093e-05
0.000235433
-3.49892e-06
0.000234137
3.80188e-06
0.000230375
1.12265e-05
0.000224204
1.84218e-05
0.00021572
2.54194e-05
0.0002051
3.1784e-05
0.000192502
3.77073e-05
0.000178111
4.31284e-05
0.000162241
4.75055e-05
0.000145068
5.13971e-05
0.000126861
5.45847e-05
0.000107951
5.66308e-05
8.85312e-05
5.81804e-05
6.89201e-05
5.87897e-05
4.93148e-05
5.87712e-05
3.0008e-05
5.79443e-05
1.10958e-05
5.67237e-05
-7.23294e-06
5.48232e-05
-2.4701e-05
5.23996e-05
-4.12263e-05
4.96167e-05
-5.67118e-05
4.64955e-05
-7.1201e-05
4.33685e-05
-8.45355e-05
3.99849e-05
-9.674e-05
3.66008e-05
-0.00010781
3.32186e-05
-0.000117785
2.9948e-05
-0.000126693
2.67604e-05
-0.000134594
2.37422e-05
-0.00014152
2.08313e-05
-0.000147537
1.80687e-05
-0.000152647
1.54187e-05
-0.000157053
1.31646e-05
-0.000160644
1.08114e-05
-0.000163521
8.65342e-06
-0.000165716
6.63311e-06
-0.000167256
4.61913e-06
-0.000168187
2.7075e-06
-0.000168494
1.04596e-06
-0.000168127
-1.01152e-06
-0.000167261
-2.6539e-06
-0.00016571
-4.62764e-06
-0.000163556
-6.52772e-06
-0.000160749
-8.39193e-06
-0.000157274
-1.04018e-05
-0.000153112
-1.24502e-05
-0.000148266
-1.45869e-05
-0.00014271
-1.66061e-05
-0.000136427
-1.8841e-05
-0.000129409
-2.10611e-05
-0.00012161
-2.34013e-05
-0.000113011
-2.5785e-05
-0.000103585
-2.82906e-05
-9.32974e-05
-3.08017e-05
-8.22019e-05
-3.34509e-05
-7.02099e-05
-3.58654e-05
-5.73303e-05
-3.86117e-05
-4.35788e-05
-4.12421e-05
-2.89067e-05
-4.38358e-05
-1.36005e-05
-4.60945e-05
2.50267e-06
-4.82079e-05
1.91985e-05
-5.0066e-05
3.63845e-05
-5.15107e-05
5.38377e-05
-5.23605e-05
7.14349e-05
-5.2737e-05
8.89494e-05
-5.25213e-05
0.000106157
-5.15932e-05
0.000122815
-4.99487e-05
0.000138661
-4.74786e-05
0.000153367
-4.41003e-05
0.000166711
-4.00205e-05
0.000178428
-3.51506e-05
0.000188314
-2.96077e-05
0.000196189
-2.36657e-05
0.00020191
-1.71105e-05
0.000205341
-1.02432e-05
0.000206315
-3.01653e-06
0.000204847
4.27269e-06
0.000200859
1.19953e-05
0.000194463
1.91664e-05
0.000185708
2.61879e-05
0.000174792
3.2702e-05
0.000162022
3.82197e-05
0.000147648
4.30675e-05
0.00013194
4.71695e-05
0.000115127
5.02418e-05
9.75961e-05
5.25496e-05
7.95642e-05
5.40239e-05
6.12476e-05
5.49397e-05
4.28841e-05
5.50706e-05
2.46805e-05
5.46442e-05
6.71981e-06
5.37369e-05
-1.0698e-05
5.22867e-05
-2.7414e-05
5.01552e-05
-4.335e-05
4.78335e-05
-5.845e-05
4.51744e-05
-7.25634e-05
4.24628e-05
-8.5735e-05
3.94944e-05
-9.79115e-05
3.65363e-05
-0.000109075
3.3513e-05
-0.000119249
3.05788e-05
-0.000128476
2.77005e-05
-0.000136786
2.49397e-05
-0.000144219
2.23143e-05
-0.000150823
1.9848e-05
-0.000156629
1.75162e-05
-0.0001618
1.54054e-05
-0.000166241
1.33629e-05
-0.000170029
1.13822e-05
-0.000173213
9.47815e-06
-0.000175767
7.76785e-06
-0.00017773
5.88492e-06
-0.000179072
4.04204e-06
-0.000179829
2.27059e-06
-0.000179923
3.11941e-07
-0.00017945
-1.41507e-06
-0.000178342
-3.29619e-06
-0.000176747
-4.80434e-06
-0.000174631
-6.3581e-06
-0.000171984
-7.93485e-06
-0.000168786
-9.54538e-06
-0.000165036
-1.13451e-05
-0.000160612
-1.3267e-05
-0.000155396
-1.55605e-05
-0.000149549
-1.76269e-05
-0.000142837
-2.01278e-05
-0.000135331
-2.2514e-05
-0.000126997
-2.49844e-05
-0.000117866
-2.7371e-05
-0.000107902
-2.98665e-05
-9.70826e-05
-3.23604e-05
-8.54932e-05
-3.48412e-05
-7.30244e-05
-3.7366e-05
-5.97259e-05
-3.98617e-05
-4.56153e-05
-4.22894e-05
-3.07599e-05
-4.45193e-05
-1.52495e-05
-4.64781e-05
8.45661e-07
-4.82334e-05
1.73815e-05
-4.9524e-05
3.41465e-05
-5.0253e-05
5.10018e-05
-5.05036e-05
6.77107e-05
-5.00642e-05
8.40498e-05
-4.8958e-05
9.9835e-05
-4.73038e-05
0.000114771
-4.47537e-05
0.000128689
-4.168e-05
0.000141136
-3.73295e-05
0.000152135
-3.29779e-05
0.000161396
-2.77228e-05
0.0001688
-2.22131e-05
0.000174208
-1.62314e-05
0.000177591
-1.01468e-05
0.000178807
-3.65251e-06
0.000178131
2.13602e-06
0.000175502
7.79633e-06
0.00017094
1.36875e-05
0.000164568
1.91592e-05
0.000156233
2.50008e-05
0.000145928
3.092e-05
0.00013385
3.62213e-05
0.00012
4.15155e-05
0.000104596
4.61608e-05
8.80244e-05
4.96539e-05
7.04698e-05
5.25974e-05
5.2335e-05
5.43394e-05
3.39345e-05
5.51425e-05
1.56165e-05
5.49139e-05
-2.37331e-06
5.39308e-05
-1.97405e-05
5.20752e-05
-3.63628e-05
4.98482e-05
-5.21382e-05
4.73144e-05
-6.70265e-05
4.4656e-05
-8.09439e-05
4.17489e-05
-9.38752e-05
3.87899e-05
-0.000105816
3.58243e-05
-0.000116747
3.27982e-05
-0.000126709
2.98927e-05
-0.000135699
2.69763e-05
-0.000143743
2.41442e-05
-0.000150882
2.14289e-05
-0.000157132
1.87614e-05
-0.000162521
1.61849e-05
-0.000167084
1.37124e-05
-0.000170836
1.12752e-05
-0.000173799
8.89644e-06
-0.000175956
6.4568e-06
-0.000177298
3.98265e-06
-0.000177833
1.58765e-06
-0.000177675
-5.25061e-07
-0.000176839
-2.53002e-06
-0.000175289
-4.67209e-06
-0.000172958
-7.00532e-06
-0.000169842
-9.33711e-06
-0.000165936
-1.17239e-05
-0.000161125
-1.44294e-05
-0.000155447
-1.70269e-05
-0.00014886
-1.97765e-05
-0.000141272
-2.27594e-05
-0.000132786
-2.54586e-05
-0.000123204
-2.8729e-05
-0.00011267
-3.16149e-05
-0.000101241
-3.42848e-05
-8.87115e-05
-3.75876e-05
-7.51384e-05
-4.07132e-05
-6.07398e-05
-4.31909e-05
-4.52473e-05
-4.64564e-05
-2.88839e-05
-4.90667e-05
-1.1917e-05
-5.08813e-05
5.80755e-06
-5.31419e-05
2.40048e-05
-5.45591e-05
4.27316e-05
-5.61396e-05
6.17271e-05
-5.6931e-05
8.05809e-05
-5.65062e-05
9.9305e-05
-5.61315e-05
0.000117622
-5.48938e-05
0.000135158
-5.25607e-05
0.000151826
-4.99485e-05
0.000167283
-4.63257e-05
0.000181333
-4.21099e-05
0.000193705
-3.70917e-05
0.000204211
-3.14915e-05
0.000212592
-2.5129e-05
0.000218757
-1.84956e-05
0.000222486
-1.11918e-05
0.000223752
-3.77717e-06
0.000222405
4.0059e-06
0.000218594
1.14563e-05
0.000212349
1.87423e-05
0.000203699
2.59196e-05
0.000193055
3.18932e-05
0.000180415
3.78747e-05
4.32505e-05
-8.6847e-05
4.20605e-05
-9.64125e-05
3.82631e-05
-0.000105134
3.48883e-05
-0.000113031
3.15934e-05
-0.000120119
2.83571e-05
-0.000126448
2.53299e-05
-0.000132036
2.23548e-05
-0.000136923
1.95459e-05
-0.000141133
1.68468e-05
-0.000144677
1.41488e-05
-0.00014755
1.15169e-05
-0.000149806
9.00431e-06
-0.000151402
6.39017e-06
-0.000152358
3.85854e-06
-0.000152685
1.34226e-06
-0.000152317
-1.42374e-06
-0.00015132
-3.96428e-06
-0.00014961
-6.8558e-06
-0.000147185
-9.73496e-06
-0.000144111
-1.23426e-05
-0.000140222
-1.55778e-05
-0.000135466
-1.89738e-05
-0.000129977
-2.20775e-05
-0.000123471
-2.59997e-05
-0.000116152
-2.92656e-05
-0.000107806
-3.34025e-05
-9.84733e-05
-3.73656e-05
-8.82934e-05
-4.07555e-05
-7.70296e-05
-4.506e-05
-6.46554e-05
-4.95006e-05
-5.13136e-05
-5.32668e-05
-3.68362e-05
-5.79561e-05
-2.15675e-05
-6.10055e-05
-5.26752e-06
-6.5156e-05
1.19091e-05
-6.86402e-05
2.96259e-05
-7.08102e-05
4.79798e-05
-7.33309e-05
6.6832e-05
-7.53073e-05
8.57881e-05
-7.57359e-05
0.000104822
-7.60067e-05
0.000123634
-7.51012e-05
0.000142041
-7.34865e-05
0.000159771
-7.07556e-05
0.00017644
-6.65846e-05
0.000191916
-6.17805e-05
0.000205971
-5.60564e-05
0.000218221
-4.89135e-05
0.000228579
-4.13628e-05
0.000236905
-3.3213e-05
0.000242859
-2.37386e-05
0.000246496
-1.45141e-05
0.00024769
-4.7771e-06
0.000246464
4.80936e-06
0.000242964
1.40142e-05
0.000237063
2.35905e-05
0.000229
3.22401e-05
0.000218864
4.04287e-05
0.000206784
4.82058e-05
0.000193069
5.474e-05
0.000177889
6.05812e-05
0.000161538
6.52691e-05
0.000144193
6.91458e-05
0.000126146
7.217e-05
0.000107556
7.42017e-05
8.87898e-05
7.4916e-05
7.00159e-05
7.498e-05
5.1439e-05
7.41952e-05
3.31716e-05
7.2943e-05
1.54436e-05
7.08743e-05
-1.74353e-06
6.86669e-05
-1.81922e-05
6.57475e-05
-3.38333e-05
6.25574e-05
-4.86912e-05
5.94252e-05
-6.26334e-05
5.57876e-05
-7.5638e-05
5.20016e-05
-8.77655e-05
4.84912e-05
-9.88991e-05
4.45536e-05
-0.000109211
4.12326e-05
-0.000118627
3.76633e-05
-0.000127142
3.40778e-05
-0.000134857
3.08419e-05
-0.0001417
2.73548e-05
-0.000147635
2.3754e-05
-0.000152831
2.07352e-05
-0.000157146
1.73177e-05
-0.000160587
1.37208e-05
-0.000163109
1.00442e-05
-0.000164672
6.19837e-06
-0.000165351
2.76709e-06
-0.000165013
-1.35486e-06
-0.000163698
-5.25047e-06
-0.000161404
-9.13362e-06
-0.000158265
-1.25693e-05
-0.000154327
-1.57017e-05
-0.000149687
-1.85815e-05
-0.000144389
-2.11786e-05
-0.000138449
-2.37853e-05
-0.00013187
-2.63671e-05
-0.000124592
-2.9193e-05
-0.000116559
-3.21798e-05
-0.000107761
-3.52668e-05
-9.80883e-05
-3.87385e-05
-8.7557e-05
-4.22157e-05
-7.60883e-05