/*--------------------------------*- C++ -*----------------------------------*\
| =========                 |                                                 |
| \\      /  F ield         | OpenFOAM: The Open Source CFD Toolbox           |
|  \\    /   O peration     | Version:  3.0.1                                 |
|   \\  /    A nd           | Web:      www.OpenFOAM.org                      |
|    \\/     M anipulation  |                                                 |
\*---------------------------------------------------------------------------*/
FoamFile
{
    version     2.0;
    format      ascii;
    class       volScalarField;
    location    "54.4";
    object      p;
}
// * * * * * * * * * * * * * * * * * * * * * * * * * * * * * * * * * * * * * //

dimensions      [1 -1 -2 0 0 0 0];

internalField   nonuniform List<scalar> 
21420
(
4093.1
4061.23
4028.34
3994.83
3961.16
3927.69
3895.65
3863.85
3832.37
3801.99
3772.97
3745.5
3719.71
3695.66
3673.41
3652.96
3634.33
3617.47
3602.37
3588.97
3577.23
3567.1
3558.53
3551.49
3545.92
3541.81
3539.15
3537.97
3538.28
3540.01
3543.2
3547.86
3554.01
3561.7
3570.97
3581.86
3594.43
3608.72
3624.79
3642.66
3662.36
3683.9
3707.28
3732.47
3759.4
3787.96
3818.02
3849.43
3881.82
3914.55
3948.22
3982.3
4016.39
4050.04
4082.82
4114.34
4144.16
4171.86
4197.09
4219.5
4238.76
4254.62
4266.85
4275.28
4279.8
4280.27
4276.8
4269.41
4258.12
4243.12
4224.6
4202.84
4178.14
4150.82
4121.29
4089.94
4057.18
4023.44
3989.11
3954.62
3920.35
3886.97
3854.04
3822.13
3791.49
3762.29
3734.67
3708.75
3684.59
3662.26
3641.79
3623.2
3606.48
3591.64
3578.64
3567.45
3558.02
3550.3
3544.24
3539.75
3536.8
3535.35
3535.34
3536.73
3539.53
3543.72
3549.32
3556.36
3564.85
3574.82
3586.3
3599.32
3613.91
3630.08
3647.85
3667.21
3688.15
3710.64
3734.64
3760.08
3786.89
3814.96
3844.17
3874.39
3905.4
3937
3968.94
4000.94
4032.7
4063.87
4094.09
4122.98
4150.13
4175.16
4197.68
4217.32
4233.75
4246.67
4255.84
4261.08
4262.18
4259.25
4252.21
4241.1
4226.1
4207.41
4185.28
4160.03
4132.03
4101.68
4069.43
4035.74
4001.09
3965.97
3930.82
3896.09
3862.17
3829.38
3798.01
3768.28
3740.36
3714.34
3690.29
3668.23
3648.15
3630.01
3613.74
3599.28
3586.56
3575.51
3566.03
3558.06
3551.54
3546.39
3542.56
3540.01
3538.72
3538.62
3539.68
3541.91
3545.28
3549.79
3555.44
3562.25
3570.23
3579.42
3589.87
3601.62
3614.73
3629.27
3645.31
3662.89
3682.05
3702.82
3725.18
3749.12
3774.6
3801.52
3829.78
3859.23
3889.67
3920.87
3952.54
3984.4
4016.07
4047.18
4077.29
4105.96
4132.74
4157.21
4178.94
4197.56
4212.71
4224.09
4231.47
4234.63
4233.57
4228.22
4218.68
4205.05
4187.6
4166.63
4142.5
4115.62
4086.44
4055.43
4023.07
3989.83
3956.15
3922.47
3889.18
3856.64
3825.11
3794.86
3766.07
3738.89
3713.42
3689.72
3667.81
3647.69
3629.34
3612.71
3597.74
3584.37
3572.52
3562.12
3553.08
3545.35
3538.87
3533.59
3529.51
3526.58
3524.83
3524.28
3524.89
3526.69
3529.69
3533.91
3539.35
3546.03
3553.97
3563.19
3573.72
3585.61
3598.88
3613.56
3629.68
3647.28
3666.37
3686.95
3709.03
3732.56
3757.48
3783.69
3811.1
3839.93
3871.47
3903.54
3935.74
3967.97
3999.84
4031
4060.94
4089.13
4115.03
4138.11
4157.9
4174.1
4186.42
4194.71
4198.85
4198.51
4194.9
4187.31
4175.58
4159.76
4140.03
4116.74
4090.4
4061.5
4030.6
3998.21
3964.88
3931.16
3897.5
3864.34
3831.74
3793.33
3761.91
3732.53
3705.03
3679.36
3655.5
3633.45
3613.23
3594.78
3578.09
3563.1
3549.77
3538.06
3527.91
3519.28
3512.13
3506.43
3502.16
3499.26
3497.74
3497.65
3498.95
3501.67
3505.83
3511.48
3518.67
3527.43
3537.81
3549.87
3563.66
3579.21
3596.57
3615.76
3636.79
3659.69
3684.39
3710.87
3738.99
3768.55
3799.15
3828.16
3860.71
3894.35
3928.36
3962.34
3995.83
4028.47
4059.97
4089.85
4117.66
3995.04
3963.15
3930.24
3896.71
3863.03
3829.55
3797.5
3765.68
3734.2
3703.81
3674.79
3647.32
3621.52
3597.48
3575.23
3554.78
3536.15
3519.3
3504.2
3490.8
3479.06
3468.93
3460.37
3453.33
3447.77
3443.65
3441
3439.81
3440.12
3441.85
3445.04
3449.7
3455.85
3463.53
3472.8
3483.7
3496.26
3510.55
3526.61
3544.48
3564.18
3585.72
3609.1
3634.29
3661.22
3689.78
3719.85
3751.26
3783.66
3816.4
3850.08
3884.18
3918.28
3951.95
3984.75
4016.28
4046.12
4073.84
4099.09
4121.51
4140.79
4156.66
4168.9
4177.34
4181.87
4182.33
4178.86
4171.46
4160.16
4145.15
4126.62
4104.84
4080.12
4052.79
4023.24
3991.87
3959.09
3925.33
3890.99
3856.48
3822.19
3788.81
3755.88
3723.96
3693.31
3664.11
3636.49
3610.56
3586.41
3564.08
3543.61
3525.02
3508.3
3493.46
3480.46
3469.27
3459.85
3452.13
3446.07
3441.59
3438.64
3437.19
3437.19
3438.58
3441.37
3445.56
3451.16
3458.2
3466.68
3476.65
3488.13
3501.15
3515.74
3531.91
3549.68
3569.04
3589.98
3612.47
3636.47
3661.91
3688.72
3716.79
3746.01
3776.23
3807.25
3838.86
3870.81
3902.83
3934.6
3965.78
3996.02
4024.92
4052.1
4077.15
4099.68
4119.34
4135.78
4148.71
4157.89
4163.14
4164.25
4161.3
4154.26
4143.15
4128.14
4109.43
4087.29
4062.02
4034
4003.63
3971.36
3937.65
3902.98
3867.84
3832.68
3797.93
3764
3731.2
3699.83
3670.09
3642.16
3616.15
3592.1
3570.05
3549.97
3531.82
3515.56
3501.11
3488.39
3477.34
3467.87
3459.9
3453.38
3448.24
3444.41
3441.86
3440.57
3440.47
3441.53
3443.76
3447.13
3451.64
3457.29
3464.1
3472.08
3481.27
3491.71
3503.46
3516.57
3531.11
3547.14
3564.72
3583.88
3604.64
3627.01
3650.95
3676.42
3703.35
3731.61
3761.07
3791.52
3822.72
3854.41
3886.28
3917.97
3949.09
3979.22
4007.91
4034.71
4059.2
4080.95
4099.58
4114.75
4126.15
4133.54
4136.7
4135.63
4130.28
4120.73
4107.09
4089.63
4068.64
4044.49
4017.59
3988.39
3957.36
3924.98
3891.71
3858.02
3824.33
3791.03
3758.48
3726.94
3696.68
3667.88
3640.7
3615.23
3591.53
3569.63
3549.51
3531.16
3514.54
3499.58
3486.21
3474.36
3463.96
3454.93
3447.2
3440.72
3435.44
3431.36
3428.43
3426.68
3426.13
3426.74
3428.54
3431.54
3435.76
3441.2
3447.88
3455.81
3465.03
3475.57
3487.45
3500.71
3515.39
3531.51
3549.11
3568.2
3588.79
3610.86
3634.4
3659.31
3685.53
3712.94
3741.77
3773.33
3805.41
3837.62
3869.86
3901.74
3932.92
3962.88
3991.09
4017.02
4040.12
4059.93
4076.14
4088.48
4096.78
4100.93
4100.59
4096.98
4089.38
4077.64
4061.81
4042.05
4018.74
3992.37
3963.45
3932.53
3900.12
3866.77
3833.03
3799.36
3766.19
3733.62
3695.11
3663.72
3634.34
3606.85
3581.18
3557.32
3535.28
3515.05
3496.61
3479.92
3464.93
3451.61
3439.9
3429.75
3421.12
3413.97
3408.27
3404
3401.1
3399.59
3399.49
3400.79
3403.51
3407.67
3413.32
3420.5
3429.26
3439.65
3451.7
3465.48
3481.03
3498.39
3517.58
3538.61
3561.51
3586.21
3612.69
3640.82
3670.38
3700.99
3729.98
3762.56
3796.21
3830.23
3864.23
3897.74
3930.39
3961.9
3991.81
4019.63
3897.01
3865.08
3832.14
3798.58
3764.87
3731.36
3699.3
3667.46
3635.96
3605.56
3576.53
3549.05
3523.26
3499.21
3476.96
3456.52
3437.9
3421.05
3405.96
3392.56
3380.83
3370.71
3362.15
3355.11
3349.55
3345.44
3342.78
3341.6
3341.9
3343.64
3346.83
3351.48
3357.63
3365.31
3374.57
3385.46
3398.02
3412.3
3428.36
3446.22
3465.91
3487.46
3510.83
3536.02
3562.96
3591.52
3621.6
3653.03
3685.45
3718.2
3751.9
3786.03
3820.16
3853.87
3886.7
3918.27
3948.14
3975.9
4001.18
4023.63
4042.94
4058.84
4071.09
4079.54
4084.08
4084.54
4081.06
4073.65
4062.34
4047.31
4028.75
4006.94
3982.18
3954.82
3925.23
3893.82
3861.01
3827.22
3792.85
3758.31
3723.99
3690.61
3657.65
3625.72
3595.06
3565.85
3538.22
3512.3
3488.14
3465.81
3445.34
3426.76
3410.05
3395.21
3382.21
3371.03
3361.61
3353.9
3347.84
3343.36
3340.42
3338.98
3338.97
3340.36
3343.16
3347.35
3352.95
3359.98
3368.46
3378.42
3389.9
3402.92
3417.5
3433.67
3451.43
3470.79
3491.73
3514.22
3538.22
3563.67
3590.48
3618.56
3647.79
3678.03
3709.06
3740.68
3772.66
3804.7
3836.5
3867.71
3897.98
3926.92
3954.13
3979.21
4001.78
4021.47
4037.94
4050.9
4060.1
4065.35
4066.48
4063.51
4056.47
4045.34
4030.31
4011.57
3989.4
3964.09
3936.03
3905.62
3873.31
3839.56
3804.86
3769.67
3734.48
3699.71
3665.75
3632.94
3601.55
3571.81
3543.88
3517.86
3493.82
3471.77
3451.7
3433.56
3417.31
3402.86
3390.16
3379.11
3369.64
3361.68
3355.17
3350.03
3346.2
3343.66
3342.38
3342.27
3343.34
3345.57
3348.94
3353.44
3359.09
3365.9
3373.88
3383.07
3393.5
3405.24
3418.35
3432.88
3448.9
3466.48
3485.63
3506.39
3528.75
3552.7
3578.18
3605.11
3633.38
3662.85
3693.32
3724.54
3756.25
3788.14
3819.87
3851.02
3881.19
3909.92
3936.76
3961.28
3983.07
4001.74
4016.93
4028.35
4035.76
4038.95
4037.86
4032.5
4022.94
4009.28
3991.78
3970.76
3946.57
3919.63
3890.39
3859.32
3826.89
3793.59
3759.87
3726.15
3692.82
3660.25
3628.7
3598.42
3569.62
3542.44
3516.97
3493.27
3471.37
3451.26
3432.91
3416.29
3401.34
3387.98
3376.14
3365.74
3356.72
3348.99
3342.52
3337.25
3333.17
3330.24
3328.49
3327.93
3328.54
3330.34
3333.34
3337.56
3343
3349.67
3357.61
3366.82
3377.35
3389.23
3402.49
3417.17
3433.29
3450.88
3469.96
3490.55
3512.63
3536.16
3561.08
3587.3
3614.72
3643.56
3675.15
3707.25
3739.48
3771.74
3803.65
3834.87
3864.86
3893.12
3919.09
3942.23
3962.07
3978.32
3990.69
3999.02
4003.17
4002.86
3999.23
3991.63
3979.86
3963.99
3944.2
3920.84
3894.43
3865.46
3834.49
3802.04
3768.64
3734.87
3701.17
3667.99
3635.47
3596.78
3565.45
3536.08
3508.59
3482.92
3459.06
3437.02
3416.8
3398.36
3381.67
3366.69
3353.38
3341.67
3331.53
3322.9
3315.76
3310.06
3305.79
3302.89
3301.38
3301.28
3302.58
3305.3
3309.45
3315.1
3322.28
3331.03
3341.41
3353.46
3367.23
3382.78
3400.13
3419.32
3440.35
3463.24
3487.94
3514.43
3542.56
3572.14
3602.77
3631.74
3664.35
3698.03
3732.08
3766.12
3799.65
3832.33
3863.88
3893.81
3921.67
3799.01
3767.03
3734.04
3700.43
3666.67
3633.12
3601.04
3569.17
3537.65
3507.23
3478.19
3450.71
3424.91
3400.87
3378.62
3358.19
3339.57
3322.73
3307.64
3294.26
3282.53
3272.42
3263.87
3256.83
3251.28
3247.17
3244.51
3243.32
3243.63
3245.37
3248.55
3253.2
3259.35
3267.02
3276.27
3287.15
3299.71
3313.98
3330.03
3347.88
3367.57
3389.11
3412.48
3437.67
3464.61
3493.19
3523.29
3554.73
3587.17
3619.94
3653.69
3687.85
3722.03
3755.79
3788.67
3820.3
3850.23
3878.04
3903.37
3925.87
3945.22
3961.15
3973.43
3981.9
3986.45
3986.93
3983.42
3976
3964.66
3949.59
3931
3909.14
3884.33
3856.91
3827.27
3795.81
3762.94
3729.1
3694.68
3660.1
3625.73
3592.35
3559.36
3527.41
3496.73
3467.51
3439.88
3413.95
3389.79
3367.47
3347
3328.41
3311.71
3296.87
3283.89
3272.71
3263.3
3255.6
3249.55
3245.08
3242.14
3240.71
3240.7
3242.09
3244.89
3249.08
3254.67
3261.7
3270.18
3280.13
3291.6
3304.62
3319.19
3335.36
3353.12
3372.48
3393.42
3415.91
3439.91
3465.36
3492.18
3520.27
3549.51
3579.77
3610.82
3642.47
3674.48
3706.55
3738.39
3769.66
3799.97
3828.96
3856.23
3881.36
3903.99
3923.72
3940.24
3953.23
3962.45
3967.73
3968.87
3965.89
3958.83
3947.68
3932.62
3913.84
3891.62
3866.26
3838.14
3807.67
3775.29
3741.48
3706.72
3671.49
3636.25
3601.43
3567.44
3534.6
3503.2
3473.44
3445.51
3419.49
3395.45
3373.41
3353.35
3335.22
3318.98
3304.55
3291.85
3280.82
3271.36
3263.41
3256.9
3251.77
3247.95
3245.42
3244.13
3244.03
3245.1
3247.33
3250.7
3255.2
3260.85
3267.65
3275.63
3284.81
3295.24
3306.97
3320.06
3334.58
3350.6
3368.16
3387.31
3408.07
3430.43
3454.37
3479.86
3506.8
3535.08
3564.57
3595.06
3626.31
3658.06
3689.99
3721.76
3752.97
3783.19
3811.98
3838.88
3863.46
3885.3
3904.02
3919.26
3930.72
3938.15
3941.36
3940.26
3934.89
3925.3
3911.61
3894.07
3872.99
3848.74
3821.74
3792.44
3761.3
3728.82
3695.46
3661.69
3627.92
3594.56
3561.96
3530.38
3500.09
3471.28
3444.09
3418.62
3394.92
3373.03
3352.93
3334.59
3317.98
3303.04
3289.69
3277.86
3267.48
3258.46
3250.74
3244.27
3239.01
3234.92
3231.99
3230.25
3229.69
3230.3
3232.1
3235.1
3239.31
3244.75
3251.42
3259.35
3268.56
3279.09
3290.96
3304.21
3318.88
3334.99
3352.58
3371.66
3392.24
3414.32
3437.85
3462.77
3489.01
3516.44
3545.28
3576.93
3609.05
3641.32
3673.61
3705.57
3736.84
3766.89
3795.21
3821.24
3844.44
3864.35
3880.64
3893.06
3901.42
3905.6
3905.32
3901.67
3894.05
3882.24
3866.32
3846.47
3823.04
3796.56
3767.51
3736.48
3703.96
3670.51
3636.68
3602.94
3569.74
3537.29
3498.34
3467.09
3437.75
3410.25
3384.58
3360.72
3338.68
3318.47
3300.03
3283.36
3268.39
3255.08
3243.38
3233.24
3224.63
3217.49
3211.79
3207.52
3204.62
3203.12
3203.02
3204.31
3207.03
3211.18
3216.82
3223.99
3232.74
3243.11
3255.15
3268.91
3284.45
3301.8
3320.97
3342
3364.89
3389.59
3416.08
3444.22
3473.83
3504.5
3533.43
3566.08
3599.81
3633.91
3667.99
3701.56
3734.29
3765.89
3795.87
3823.78
3701.05
3669
3635.93
3602.26
3568.44
3534.84
3502.73
3470.81
3439.27
3408.83
3379.77
3352.28
3326.48
3302.44
3280.2
3259.77
3241.16
3224.33
3209.26
3195.89
3184.17
3174.07
3165.52
3158.49
3152.95
3148.85
3146.19
3144.99
3145.3
3147.04
3150.22
3154.86
3161
3168.66
3177.91
3188.78
3201.32
3215.58
3231.62
3249.47
3269.15
3290.68
3314.05
3339.24
3366.19
3394.77
3424.89
3456.37
3488.84
3521.63
3555.43
3589.65
3623.89
3657.72
3690.67
3722.37
3752.37
3780.25
3805.66
3828.22
3847.62
3863.6
3875.92
3884.41
3888.97
3889.46
3885.94
3878.49
3867.12
3852.01
3833.36
3811.44
3786.57
3759.07
3729.36
3697.82
3664.89
3630.97
3596.5
3561.85
3527.42
3494.05
3461.01
3429.02
3398.33
3369.09
3341.46
3315.52
3291.36
3269.04
3248.57
3229.99
3213.29
3198.47
3185.49
3174.32
3164.92
3157.23
3151.19
3146.74
3143.81
3142.38
3142.37
3143.77
3146.56
3150.75
3156.34
3163.36
3171.83
3181.78
3193.25
3206.25
3220.82
3236.98
3254.74
3274.09
3295.03
3317.52
3341.53
3366.98
3393.82
3421.92
3451.18
3481.45
3512.54
3544.23
3576.27
3608.4
3640.29
3671.61
3702
3731.06
3758.39
3783.6
3806.29
3826.1
3842.67
3855.7
3864.96
3870.26
3871.43
3868.43
3861.35
3850.17
3835.06
3816.23
3793.94
3768.51
3740.32
3709.76
3677.31
3643.41
3608.57
3573.27
3537.96
3503.1
3469.06
3436.19
3404.76
3374.99
3347.04
3321.03
3296.99
3274.96
3254.91
3236.8
3220.57
3206.16
3193.48
3182.46
3173.01
3165.08
3158.58
3153.46
3149.65
3147.12
3145.84
3145.74
3146.81
3149.04
3152.41
3156.92
3162.56
3169.36
3177.33
3186.5
3196.92
3208.64
3221.72
3236.23
3252.23
3269.78
3288.92
3309.67
3332.03
3355.98
3381.46
3408.42
3436.72
3466.23
3496.75
3528.04
3559.83
3591.82
3623.65
3654.93
3685.23
3714.09
3741.08
3765.73
3787.65
3806.44
3821.73
3833.24
3840.7
3843.93
3842.83
3837.45
3827.82
3814.08
3796.48
3775.33
3751.01
3723.92
3694.53
3663.31
3630.75
3597.32
3563.48
3529.66
3496.24
3463.61
3432
3401.68
3372.86
3345.66
3320.19
3296.5
3274.61
3254.52
3236.2
3219.6
3204.67
3191.34
3179.52
3169.15
3160.15
3152.44
3145.98
3140.72
3136.63
3133.71
3131.97
3131.4
3132.01
3133.8
3136.8
3141.01
3146.44
3153.11
3161.04
3170.24
3180.76
3192.63
3205.88
3220.53
3236.64
3254.22
3273.29
3293.87
3315.95
3339.48
3364.41
3390.65
3418.1
3446.95
3478.67
3510.83
3543.13
3575.48
3607.49
3638.83
3668.96
3697.36
3723.48
3746.77
3766.74
3783.11
3795.58
3803.99
3808.2
3807.95
3804.29
3796.64
3784.78
3768.8
3748.86
3725.34
3698.76
3669.62
3638.5
3605.89
3572.36
3538.46
3504.66
3471.44
3439.06
3399.81
3368.66
3339.33
3311.83
3286.16
3262.3
3240.27
3220.06
3201.64
3184.97
3170.01
3156.71
3145.02
3134.9
3126.29
3119.16
3113.47
3109.19
3106.3
3104.8
3104.7
3105.99
3108.7
3112.84
3118.47
3125.64
3134.37
3144.73
3156.76
3170.52
3186.04
3203.38
3222.55
3243.57
3266.46
3291.16
3317.65
3345.81
3375.45
3406.17
3435.04
3467.76
3501.56
3535.71
3569.85
3603.48
3636.27
3667.93
3697.99
3725.96
3603.13
3570.99
3537.83
3504.07
3470.18
3436.51
3404.37
3372.39
3340.81
3310.35
3281.27
3253.77
3227.96
3203.92
3181.69
3161.27
3142.67
3125.86
3110.8
3097.44
3085.74
3075.65
3067.12
3060.1
3054.56
3050.47
3047.81
3046.6
3046.91
3048.65
3051.83
3056.47
3062.6
3070.25
3079.48
3090.34
3102.86
3117.11
3133.14
3150.97
3170.64
3192.17
3215.53
3240.73
3267.68
3296.28
3326.43
3357.94
3390.44
3423.27
3457.13
3491.42
3525.75
3559.65
3592.69
3624.48
3654.58
3682.55
3708.04
3730.68
3750.15
3766.19
3778.55
3787.08
3791.65
3792.15
3788.62
3781.13
3769.72
3754.56
3735.84
3713.84
3688.88
3661.3
3631.49
3599.86
3566.84
3532.84
3498.29
3463.57
3429.05
3395.7
3362.58
3330.56
3299.85
3270.6
3242.95
3217.01
3192.85
3170.53
3150.07
3131.49
3114.8
3099.98
3087.02
3075.86
3066.48
3058.8
3052.78
3048.33
3045.42
3043.99
3043.99
3045.39
3048.18
3052.36
3057.95
3064.96
3073.43
3083.37
3094.82
3107.82
3122.38
3138.53
3156.28
3175.63
3196.57
3219.06
3243.07
3268.54
3295.38
3323.5
3352.78
3383.09
3414.21
3445.94
3478.04
3510.23
3542.19
3573.59
3604.05
3633.2
3660.62
3685.92
3708.7
3728.58
3745.23
3758.33
3767.63
3772.95
3774.14
3771.14
3764.03
3752.81
3737.64
3718.74
3696.37
3670.85
3642.56
3611.91
3579.35
3545.35
3510.41
3475.02
3439.63
3404.7
3370.61
3337.69
3306.23
3276.44
3248.49
3222.47
3198.45
3176.43
3156.39
3138.3
3122.1
3107.7
3095.04
3084.04
3074.61
3066.69
3060.2
3055.09
3051.29
3048.78
3047.5
3047.41
3048.48
3050.71
3054.08
3058.59
3064.23
3071.02
3078.98
3088.14
3098.55
3110.25
3123.31
3137.8
3153.79
3171.33
3190.46
3211.2
3233.55
3257.5
3283
3309.96
3338.29
3367.83
3398.39
3429.73
3461.58
3493.64
3525.55
3556.91
3587.3
3616.26
3643.34
3668.1
3690.11
3708.98
3724.35
3735.91
3743.42
3746.67
3745.58
3740.17
3730.5
3716.7
3699.02
3677.79
3653.36
3626.17
3596.68
3565.36
3532.7
3499.17
3465.25
3431.35
3397.87
3365.19
3333.54
3303.2
3274.35
3247.15
3221.68
3197.99
3176.11
3156.03
3137.73
3121.15
3106.24
3092.92
3081.13
3070.77
3061.78
3054.09
3047.63
3042.38
3038.3
3035.38
3033.64
3033.07
3033.67
3035.46
3038.46
3042.67
3048.09
3054.76
3062.68
3071.87
3082.38
3094.24
3107.48
3122.12
3138.22
3155.79
3174.86
3195.43
3217.5
3241.04
3265.97
3292.23
3319.7
3348.57
3380.37
3412.58
3444.93
3477.34
3509.42
3540.84
3571.07
3599.58
3625.81
3649.19
3669.26
3685.71
3698.26
3706.73
3710.98
3710.75
3707.09
3699.4
3687.49
3671.41
3651.37
3627.74
3601.04
3571.79
3540.54
3507.83
3474.19
3440.2
3406.33
3373.08
3340.75
3301.22
3270.15
3240.83
3213.33
3187.66
3163.8
3141.77
3121.57
3103.16
3086.51
3071.56
3058.28
3046.6
3036.49
3027.89
3020.77
3015.08
3010.81
3007.93
3006.43
3006.32
3007.61
3010.31
3014.45
3020.07
3027.22
3035.95
3046.29
3058.31
3072.05
3087.56
3104.89
3124.05
3145.06
3167.94
3192.64
3219.14
3247.31
3277
3307.79
3336.57
3369.38
3403.26
3437.49
3471.7
3505.41
3538.27
3570.02
3600.15
3628.21
3505.24
3472.99
3439.73
3405.86
3371.88
3338.14
3305.95
3273.91
3242.28
3211.79
3182.69
3155.18
3129.37
3105.33
3083.1
3062.7
3044.11
3027.32
3012.27
2998.93
2987.25
2977.17
2968.65
2961.64
2956.12
2952.03
2949.38
2948.15
2948.47
2950.21
2953.39
2958.01
2964.13
2971.77
2980.99
2991.83
3004.34
3018.57
3034.58
3052.4
3072.05
3093.57
3116.93
3142.13
3169.09
3197.71
3227.88
3259.45
3291.98
3324.86
3358.79
3393.17
3427.59
3461.59
3494.74
3526.64
3556.84
3584.93
3610.52
3633.25
3652.8
3668.91
3681.33
3689.9
3694.48
3695
3691.46
3683.93
3672.47
3657.24
3638.43
3616.34
3591.28
3563.59
3533.67
3501.93
3468.8
3434.7
3400.05
3365.25
3330.62
3297.29
3264.1
3232.04
3201.29
3172.02
3144.36
3118.42
3094.26
3071.93
3051.48
3032.91
3016.23
3001.42
2988.47
2977.33
2967.96
2960.3
2954.3
2949.87
2946.97
2945.55
2945.55
2946.95
2949.75
2953.92
2959.51
2966.51
2974.96
2984.89
2996.33
3009.32
3023.87
3040.01
3057.75
3077.1
3098.04
3120.53
3144.55
3170.02
3196.88
3225.02
3254.33
3284.67
3315.84
3347.62
3379.78
3412.04
3444.08
3475.57
3506.14
3535.39
3562.92
3588.33
3611.21
3631.19
3647.92
3661.09
3670.45
3675.8
3677.01
3674.01
3666.86
3655.6
3640.37
3621.38
3598.91
3573.29
3544.88
3514.1
3481.41
3447.3
3412.24
3376.74
3341.26
3306.24
3272.08
3239.11
3207.62
3177.81
3149.84
3123.83
3099.81
3077.81
3057.79
3039.72
3023.54
3009.17
2996.53
2985.55
2976.14
2968.24
2961.77
2956.67
2952.89
2950.38
2949.11
2949.03
2950.11
2952.34
2955.71
2960.21
2965.85
2972.63
2980.58
2989.73
3000.12
3011.8
3024.85
3039.32
3055.29
3072.81
3091.92
3112.65
3135
3158.95
3184.46
3211.44
3239.79
3269.37
3299.98
3331.38
3363.3
3395.43
3427.44
3458.91
3489.41
3518.49
3545.69
3570.56
3592.68
3611.65
3627.11
3638.75
3646.3
3649.58
3648.49
3643.06
3633.33
3619.46
3601.7
3580.35
3555.81
3528.5
3498.87
3467.43
3434.65
3401.01
3366.99
3333
3299.45
3266.71
3235.01
3204.64
3175.77
3148.55
3123.08
3099.4
3077.53
3057.47
3039.18
3022.62
3007.73
2994.44
2982.67
2972.34
2963.36
2955.69
2949.24
2944
2939.92
2937
2935.26
2934.68
2935.28
2937.08
2940.07
2944.27
2949.69
2956.35
2964.26
2973.45
2983.95
2995.8
3009.02
3023.65
3039.74
3057.3
3076.36
3096.92
3118.99
3142.52
3167.47
3193.75
3221.23
3250.12
3282.03
3314.29
3346.71
3379.18
3411.35
3442.87
3473.23
3501.86
3528.21
3551.72
3571.91
3588.46
3601.1
3609.64
3613.94
3613.73
3610.08
3602.34
3590.35
3574.17
3554.01
3530.24
3503.4
3474
3442.62
3409.77
3376.01
3341.91
3307.95
3274.65
3242.35
3202.57
3171.56
3142.26
3114.75
3089.07
3065.22
3043.2
3023.01
3004.62
2987.98
2973.05
2959.78
2948.12
2938.02
2929.43
2922.32
2916.65
2912.38
2909.5
2908
2907.89
2909.17
2911.87
2915.99
2921.6
2928.74
2937.45
2947.78
2959.78
2973.51
2989
3006.31
3025.46
3046.46
3069.34
3094.04
3120.54
3148.73
3178.47
3209.35
3238.03
3270.95
3304.92
3339.24
3373.54
3407.34
3440.3
3472.14
3502.37
3530.53
3407.38
3375.01
3341.62
3307.64
3273.55
3239.72
3207.48
3175.36
3143.69
3113.15
3084.02
3056.5
3030.69
3006.65
2984.43
2964.04
2945.48
2928.7
2913.67
2900.35
2888.69
2878.63
2870.12
2863.13
2857.61
2853.54
2850.88
2849.64
2849.97
2851.72
2854.89
2859.5
2865.6
2873.23
2882.43
2893.25
2905.74
2919.95
2935.94
2953.74
2973.39
2994.89
3018.25
3043.45
3070.42
3099.06
3129.27
3160.88
3193.47
3226.4
3260.41
3294.89
3329.41
3363.54
3396.81
3428.84
3459.17
3487.38
3513.09
3535.93
3555.59
3571.78
3584.26
3592.87
3597.48
3598
3594.45
3586.87
3575.35
3560.04
3541.15
3518.94
3493.76
3465.94
3435.89
3404.03
3370.77
3336.56
3301.8
3266.89
3232.14
3198.83
3165.54
3133.43
3102.65
3073.36
3045.69
3019.74
2995.58
2973.26
2952.81
2934.25
2917.58
2902.79
2889.85
2878.73
2869.38
2861.74
2855.75
2851.34
2848.46
2847.05
2847.06
2848.47
2851.25
2855.43
2861
2868
2876.44
2886.35
2897.78
2910.75
2925.29
2941.42
2959.16
2978.5
2999.43
3021.93
3045.95
3071.44
3098.31
3126.48
3155.82
3186.2
3217.42
3249.26
3281.5
3313.84
3345.98
3377.58
3408.26
3437.63
3465.29
3490.82
3513.83
3533.92
3550.75
3564.01
3573.43
3578.82
3580.04
3577.04
3569.86
3558.53
3543.23
3524.15
3501.56
3475.81
3447.26
3416.34
3383.51
3349.25
3314.06
3278.43
3242.84
3207.72
3173.48
3140.46
3108.92
3079.08
3051.11
3025.09
3001.08
2979.1
2959.11
2941.06
2924.91
2910.56
2897.96
2887
2877.62
2869.73
2863.28
2858.2
2854.44
2851.94
2850.68
2850.6
2851.69
2853.92
2857.29
2861.79
2867.42
2874.2
2882.14
2891.27
2901.64
2913.3
2926.32
2940.77
2956.71
2974.21
2993.31
3014.03
3036.38
3060.33
3085.84
3112.85
3141.23
3170.85
3201.52
3232.98
3264.98
3297.21
3329.33
3360.92
3391.55
3420.77
3448.11
3473.12
3495.37
3514.46
3530.02
3541.74
3549.35
3552.66
3551.58
3546.11
3536.33
3522.37
3504.5
3483.03
3458.35
3430.89
3401.12
3369.53
3336.61
3302.84
3268.7
3234.61
3200.96
3168.17
3136.41
3106
3077.11
3049.88
3024.4
3000.73
2978.88
2958.83
2940.56
2924.03
2909.17
2895.9
2884.16
2873.85
2864.9
2857.23
2850.8
2845.57
2841.49
2838.58
2836.83
2836.25
2836.85
2838.64
2841.63
2845.83
2851.25
2857.89
2865.8
2874.98
2885.46
2897.29
2910.5
2925.12
2941.19
2958.74
2977.78
2998.34
3020.41
3043.94
3068.9
3095.19
3122.7
3151.62
3183.65
3215.98
3248.46
3281.02
3313.29
3344.93
3375.42
3404.2
3430.71
3454.36
3474.68
3491.35
3504.09
3512.73
3517.08
3516.9
3513.24
3505.46
3493.38
3477.08
3456.77
3432.84
3405.83
3376.27
3344.72
3311.72
3277.82
3243.59
3209.52
3176.16
3143.86
3103.87
3072.9
3043.6
3016.09
2990.41
2966.56
2944.55
2924.38
2906
2889.38
2874.47
2861.22
2849.58
2839.49
2830.92
2823.82
2818.15
2813.89
2811.01
2809.52
2809.41
2810.68
2813.37
2817.48
2823.08
2830.2
2838.9
2849.21
2861.19
2874.89
2890.37
2907.66
2926.79
2947.79
2970.65
2995.35
3021.86
3050.07
3079.87
3110.87
3139.4
3172.47
3206.55
3240.97
3275.37
3309.27
3342.34
3374.29
3404.64
3432.91
3309.56
3277.04
3243.52
3209.4
3175.18
3141.24
3108.96
3076.75
3045.01
3014.44
2985.28
2957.74
2931.92
2907.89
2885.68
2865.31
2846.76
2830.01
2815
2801.7
2790.06
2780.02
2771.53
2764.56
2759.05
2754.99
2752.34
2751.08
2751.42
2753.16
2756.33
2760.93
2767.02
2774.62
2783.8
2794.6
2807.07
2821.26
2837.23
2855.01
2874.63
2896.13
2919.48
2944.68
2971.66
3000.33
3030.58
3062.25
3094.89
3127.88
3161.99
3196.58
3231.23
3265.49
3298.91
3331.08
3361.56
3389.92
3415.76
3438.73
3458.49
3474.78
3487.34
3496
3500.64
3501.16
3497.59
3489.97
3478.38
3462.98
3443.97
3421.65
3396.33
3368.36
3338.16
3306.15
3272.75
3238.4
3203.52
3168.5
3133.65
3100.28
3066.92
3034.76
3003.94
2974.63
2946.94
2920.98
2896.82
2874.5
2854.06
2835.51
2818.85
2804.08
2791.16
2780.06
2770.73
2763.11
2757.15
2752.76
2749.89
2748.49
2748.51
2749.92
2752.71
2756.88
2762.44
2769.42
2777.85
2787.75
2799.17
2812.12
2826.65
2842.76
2860.49
2879.82
2900.76
2923.26
2947.29
2972.79
2999.68
3027.87
3057.25
3087.67
3118.95
3150.87
3183.18
3215.62
3247.87
3279.59
3310.4
3339.92
3367.72
3393.4
3416.54
3436.77
3453.72
3467.07
3476.56
3482
3483.24
3480.24
3473.01
3461.62
3446.23
3427.03
3404.32
3378.42
3349.71
3318.63
3285.63
3251.21
3215.86
3180.09
3144.37
3109.14
3074.81
3041.72
3010.13
2980.26
2952.28
2926.26
2902.27
2880.3
2860.34
2842.33
2826.2
2811.89
2799.31
2788.39
2779.03
2771.17
2764.74
2759.68
2755.93
2753.45
2752.2
2752.13
2753.22
2755.45
2758.83
2763.32
2768.95
2775.72
2783.64
2792.76
2803.11
2814.74
2827.74
2842.16
2858.07
2875.55
2894.63
2915.34
2937.68
2961.63
2987.16
3014.18
3042.6
3072.27
3103
3134.54
3166.63
3198.97
3231.21
3262.94
3293.73
3323.1
3350.6
3375.76
3398.16
3417.39
3433.08
3444.89
3452.56
3455.91
3454.84
3449.33
3439.48
3425.43
3407.43
3385.82
3360.98
3333.35
3303.41
3271.65
3238.57
3204.66
3170.38
3136.18
3102.43
3069.56
3037.74
3007.28
2978.36
2951.12
2925.64
2901.98
2880.14
2860.11
2841.87
2825.37
2810.53
2797.3
2785.58
2775.3
2766.38
2758.73
2752.32
2747.09
2743.02
2740.11
2738.36
2737.78
2738.37
2740.16
2743.14
2747.34
2752.75
2759.39
2767.28
2776.44
2786.92
2798.73
2811.92
2826.53
2842.58
2860.11
2879.15
2899.7
2921.76
2945.29
2970.26
2996.57
3024.11
3053.06
3085.23
3117.63
3150.19
3182.84
3215.23
3247
3277.65
3306.6
3333.28
3357.1
3377.57
3394.38
3407.25
3415.98
3420.4
3420.25
3416.59
3408.75
3396.57
3380.13
3359.65
3335.54
3308.34
3278.58
3246.85
3213.67
3179.61
3145.24
3111.05
3077.6
3045.28
3005.11
2974.18
2944.87
2917.35
2891.66
2867.82
2845.82
2825.66
2807.3
2790.7
2775.81
2762.58
2750.97
2740.9
2732.35
2725.26
2719.6
2715.35
2712.48
2710.98
2710.87
2712.13
2714.81
2718.91
2724.49
2731.6
2740.27
2750.56
2762.52
2776.2
2791.66
2808.93
2828.05
2849.03
2871.88
2896.58
2923.1
2951.33
2981.19
3012.33
3040.7
3073.93
3108.13
3142.67
3177.19
3211.21
3244.4
3276.48
3306.97
3335.37
3211.77
3179.1
3145.41
3111.13
3076.78
3042.72
3010.38
2978.07
2946.27
2915.64
2886.45
2858.89
2833.07
2809.04
2786.85
2766.5
2747.97
2731.24
2716.26
2702.99
2691.37
2681.35
2672.89
2665.93
2660.44
2656.38
2653.73
2652.47
2652.81
2654.56
2657.71
2662.3
2668.37
2675.95
2685.11
2695.89
2708.33
2722.49
2738.44
2756.19
2775.8
2797.28
2820.62
2845.83
2872.83
2901.52
2931.81
2963.55
2996.26
3029.3
3063.53
3098.24
3133.04
3167.45
3201.03
3233.36
3264.01
3292.53
3318.53
3341.64
3361.53
3377.92
3390.56
3399.28
3403.95
3404.49
3400.89
3393.22
3381.55
3366.05
3346.92
3324.45
3298.97
3270.85
3240.48
3208.3
3174.74
3140.24
3105.22
3070.08
3035.13
3001.64
2968.22
2936.01
2905.15
2875.81
2848.11
2822.14
2797.97
2775.66
2755.22
2736.68
2720.04
2705.29
2692.39
2681.31
2672.01
2664.42
2658.48
2654.11
2651.27
2649.88
2649.91
2651.32
2654.11
2658.27
2663.82
2670.79
2679.2
2689.09
2700.48
2713.42
2727.93
2744.04
2761.75
2781.08
2802.01
2824.51
2848.55
2874.06
2900.98
2929.2
2958.61
2989.09
3020.44
3052.43
3084.84
3117.39
3149.76
3181.62
3212.58
3242.25
3270.22
3296.06
3319.37
3339.74
3356.82
3370.28
3379.85
3385.35
3386.61
3383.59
3376.32
3364.86
3349.37
3330.05
3307.19
3281.12
3252.24
3220.97
3187.79
3153.18
3117.65
3081.71
3045.85
3010.5
2976.07
2942.89
2911.25
2881.35
2853.35
2827.34
2803.36
2781.42
2761.49
2743.51
2727.42
2713.14
2700.6
2689.71
2680.38
2672.55
2666.15
2661.11
2657.38
2654.91
2653.67
2653.61
2654.7
2656.94
2660.32
2664.81
2670.43
2677.19
2685.1
2694.19
2704.52
2716.13
2729.09
2743.48
2759.37
2776.82
2795.88
2816.57
2838.9
2862.86
2888.39
2915.45
2943.9
2973.63
3004.43
3036.05
3068.25
3100.71
3133.09
3164.98
3195.94
3225.49
3253.16
3278.51
3301.08
3320.46
3336.28
3348.2
3355.95
3359.33
3358.26
3352.73
3342.79
3328.63
3310.5
3288.72
3263.7
3235.89
3205.75
3173.8
3140.54
3106.46
3072.04
3037.7
3003.85
2970.87
2938.99
2908.48
2879.53
2852.27
2826.79
2803.14
2781.32
2761.32
2743.11
2726.63
2711.83
2698.63
2686.95
2676.7
2667.8
2660.18
2653.78
2648.57
2644.51
2641.59
2639.84
2639.26
2639.85
2641.63
2644.61
2648.8
2654.2
2660.83
2668.71
2677.86
2688.32
2700.11
2713.29
2727.87
2743.91
2761.42
2780.44
2800.98
2823.03
2846.57
2871.55
2897.88
2925.45
2954.44
2986.78
3019.25
3051.9
3084.65
3117.17
3149.1
3179.92
3209.07
3235.94
3259.95
3280.59
3297.56
3310.56
3319.4
3323.91
3323.78
3320.12
3312.22
3299.92
3283.33
3262.66
3238.34
3210.92
3180.95
3149.01
3115.63
3081.38
3046.84
3012.51
2978.96
2946.6
2906.31
2875.39
2846.07
2818.53
2792.84
2769
2747.01
2726.87
2708.53
2691.95
2677.09
2663.89
2652.29
2642.25
2633.71
2626.64
2621
2616.75
2613.88
2612.39
2612.27
2613.53
2616.2
2620.28
2625.85
2632.93
2641.58
2651.85
2663.78
2677.44
2692.87
2710.12
2729.22
2750.18
2773.03
2797.72
2824.25
2852.51
2882.42
2913.73
2941.92
2975.34
3009.68
3044.35
3078.99
3113.16
3146.48
3178.7
3209.34
3237.9
3114.02
3081.16
3047.29
3012.85
2978.34
2944.16
2911.74
2879.32
2847.45
2816.77
2787.54
2759.96
2734.14
2710.12
2687.94
2667.6
2649.1
2632.4
2617.45
2604.2
2592.61
2582.62
2574.18
2567.24
2561.76
2557.72
2555.08
2553.81
2554.15
2555.89
2559.04
2563.61
2569.66
2577.22
2586.35
2597.1
2609.51
2623.65
2639.57
2657.3
2676.89
2698.35
2721.69
2746.89
2773.9
2802.63
2832.96
2864.77
2897.56
2930.68
2965.03
2999.87
3034.83
3069.41
3103.17
3135.69
3166.52
3195.22
3221.4
3244.66
3264.69
3281.2
3293.94
3302.72
3307.43
3307.97
3304.35
3296.62
3284.87
3269.25
3249.98
3227.36
3201.7
3173.39
3142.84
3110.47
3076.73
3042.07
3006.89
2971.62
2936.58
2902.92
2869.45
2837.18
2806.28
2776.91
2749.19
2723.21
2699.05
2676.73
2656.31
2637.78
2621.15
2606.42
2593.54
2582.49
2573.22
2565.66
2559.74
2555.41
2552.58
2551.21
2551.25
2552.67
2555.45
2559.61
2565.15
2572.1
2580.5
2590.36
2601.74
2614.66
2629.15
2645.24
2662.94
2682.26
2703.19
2725.69
2749.74
2775.27
2802.21
2830.46
2859.92
2890.45
2921.87
2953.96
2986.47