/*--------------------------------*- C++ -*----------------------------------*\
| =========                 |                                                 |
| \\      /  F ield         | OpenFOAM: The Open Source CFD Toolbox           |
|  \\    /   O peration     | Version:  3.0.1                                 |
|   \\  /    A nd           | Web:      www.OpenFOAM.org                      |
|    \\/     M anipulation  |                                                 |
\*---------------------------------------------------------------------------*/
FoamFile
{
    version     2.0;
    format      ascii;
    class       surfaceScalarField;
    location    "32.4";
    object      phi;
}
// * * * * * * * * * * * * * * * * * * * * * * * * * * * * * * * * * * * * * //

dimensions      [0 3 -1 0 0 0 0];

internalField   nonuniform List<scalar> 
42423
(
0.000167166
1.67857e-05
0.000149881
1.72852e-05
0.000131955
1.79261e-05
0.000113557
1.83976e-05
9.51591e-05
1.8398e-05
7.67382e-05
1.84209e-05
5.86068e-05
1.81314e-05
4.09136e-05
1.76932e-05
2.36984e-05
1.72152e-05
7.15778e-06
1.65406e-05
-8.49039e-06
1.56482e-05
-2.32913e-05
1.48009e-05
-3.71503e-05
1.38589e-05
-5.00328e-05
1.28825e-05
-6.19117e-05
1.18789e-05
-7.28171e-05
1.09054e-05
-8.27446e-05
9.92753e-06
-9.17152e-05
8.9706e-06
-9.97614e-05
8.04625e-06
-0.000106912
7.15083e-06
-0.000113207
6.29469e-06
-0.00011868
5.47349e-06
-0.000123384
4.70371e-06
-0.000127298
3.91374e-06
-0.000130469
3.1708e-06
-0.000132956
2.48726e-06
-0.000134758
1.8022e-06
-0.000135908
1.15015e-06
-0.000136406
4.97775e-07
-0.000136206
-1.99804e-07
-0.000135378
-8.28043e-07
-0.000133814
-1.56431e-06
-0.000131597
-2.21667e-06
-0.000128674
-2.9232e-06
-0.000125005
-3.66961e-06
-0.000120699
-4.30513e-06
-0.000115487
-5.21247e-06
-0.000109573
-5.91371e-06
-0.000102783
-6.79032e-06
-9.5135e-05
-7.64801e-06
-8.66704e-05
-8.46464e-06
-7.70039e-05
-9.6665e-06
-6.64077e-05
-1.05963e-05
-5.50594e-05
-1.13483e-05
-4.25069e-05
-1.25525e-05
-2.89244e-05
-1.35826e-05
-1.4649e-05
-1.42754e-05
7.92568e-07
-1.54417e-05
1.71047e-05
-1.63122e-05
3.39837e-05
-1.6879e-05
5.15374e-05
-1.75538e-05
6.95669e-05
-1.80295e-05
8.79408e-05
-1.8374e-05
0.000106575
-1.86344e-05
0.000124991
-1.8416e-05
0.000143075
-1.80841e-05
0.000160747
-1.76716e-05
0.0001775
-1.67531e-05
0.000193241
-1.57414e-05
0.000207644
-1.44035e-05
0.00022055
-1.29054e-05
0.000231846
-1.12959e-05
0.000241046
-9.20014e-06
0.000248178
-7.13236e-06
0.000253069
-4.8913e-06
0.000255506
-2.43723e-06
0.000255611
-1.04913e-07
0.000253293
2.31835e-06
0.000248505
4.78801e-06
0.00024126
7.24485e-06
0.00023159
9.67015e-06
0.000219763
1.18268e-05
0.000205937
1.38255e-05
0.000190179
1.57584e-05
0.000172934
1.72451e-05
0.000154384
1.85493e-05
0.000134834
1.95506e-05
0.000114628
2.02054e-05
9.40067e-05
2.06215e-05
7.33714e-05
2.06353e-05
5.2959e-05
2.04124e-05
3.30748e-05
1.98841e-05
1.399e-05
1.90849e-05
-4.10561e-06
1.80955e-05
-2.11086e-05
1.7003e-05
-3.68508e-05
1.57421e-05
-5.13055e-05
1.44547e-05
-6.45027e-05
1.31972e-05
-7.64369e-05
1.19342e-05
-8.72537e-05
1.08168e-05
-9.7035e-05
9.78126e-06
-0.000105838
8.80271e-06
-0.000113772
7.93467e-06
-0.000120827
7.0543e-06
-0.000127131
6.3044e-06
-0.00013267
5.53904e-06
-0.000137433
4.76284e-06
-0.00014152
4.08711e-06
-0.000144923
3.40334e-06
-0.000147694
2.77097e-06
-0.000149819
2.12433e-06
-0.000151293
1.47468e-06
-0.000152182
8.88124e-07
-0.000152472
2.9007e-07
-0.000152121
-3.51073e-07
-0.000151205
-9.15618e-07
-0.000149691
-1.51434e-06
-0.000147545
-2.14574e-06
-0.000144837
-2.70781e-06
-0.000141438
-3.39908e-06
-0.000137351
-4.08757e-06
-0.000132689
-4.66159e-06
-0.000127235
-5.45436e-06
-0.000121023
-6.21175e-06
-0.000113974
-7.04915e-06
-0.000106178
-7.7958e-06
-9.74842e-05
-8.6939e-06
-8.78989e-05
-9.58533e-06
-7.74345e-05
-1.04644e-05
-6.59919e-05
-1.14427e-05
-5.37974e-05
-1.21946e-05
-4.06007e-05
-1.31968e-05
-2.6499e-05
-1.41017e-05
-1.16657e-05
-1.48334e-05
4.0086e-06
-1.56744e-05
2.03831e-05
-1.63746e-05
3.73977e-05
-1.70147e-05
5.48299e-05
-1.74323e-05
7.2573e-05
-1.77431e-05
9.04303e-05
-1.78574e-05
0.000108189
-1.7759e-05
0.000125631
-1.74424e-05
0.000142481
-1.68499e-05
0.000158497
-1.60162e-05
0.000173417
-1.49195e-05
0.000186916
-1.34996e-05
0.000198758
-1.18418e-05
0.000208708
-9.94966e-06
0.000216562
-7.85438e-06
0.000222125
-5.56354e-06
0.000225281
-3.15637e-06
0.000225968
-6.87085e-07
0.000224174
1.79447e-06
0.000219776
4.39823e-06
0.000212999
6.77644e-06
0.00020388
9.11946e-06
0.000192708
1.1171e-05
0.000179594
1.31141e-05
0.000164806
1.47878e-05
0.000148602
1.6204e-05
0.000131203
1.73989e-05
0.000112968
1.82353e-05
9.40877e-05
1.88803e-05
7.49285e-05
1.91591e-05
5.57523e-05
1.91762e-05
3.67632e-05
1.89891e-05
1.81952e-05
1.8568e-05
2.65541e-07
1.79297e-05
-1.69275e-05
1.7193e-05
-3.32144e-05
1.62868e-05
-4.85648e-05
1.53505e-05
-6.28516e-05
1.42868e-05
-7.61235e-05
1.32718e-05
-8.8312e-05
1.21886e-05
-9.94601e-05
1.1148e-05
-0.000109562
1.0102e-05
-0.000118684
9.12203e-06
-0.000126957
8.27327e-06
-0.000134321
7.36332e-06
-0.000140836
6.51499e-06
-0.000146555
5.7189e-06
-0.000151512
4.95683e-06
-0.000155861
4.34921e-06
-0.000159533
3.67235e-06
-0.000162542
3.0091e-06
-0.000164891
2.34897e-06
-0.000166671
1.77946e-06
-0.000167796
1.12502e-06
-0.000168272
4.76039e-07
-0.0001681
-1.72163e-07
-0.000167378
-7.21798e-07
-0.000165908
-1.46957e-06
-0.000163765
-2.14351e-06
-0.000161037
-2.72803e-06
-0.000157548
-3.4883e-06
-0.00015339
-4.15792e-06
-0.000148498
-4.89198e-06
-0.000142852
-5.64653e-06
-0.000136559
-6.29313e-06
-0.000129382
-7.17688e-06
-0.00012137
-8.01167e-06
-0.000112393
-8.97692e-06
-0.000102462
-9.93161e-06
-9.15554e-05
-1.09065e-05
-7.96636e-05
-1.18919e-05
-6.67963e-05
-1.28673e-05
-5.30786e-05
-1.37177e-05
-3.84527e-05
-1.46259e-05
-2.30698e-05
-1.53829e-05
-6.98792e-06
-1.6082e-05
9.65168e-06
-1.66397e-05
2.68167e-05
-1.7165e-05
4.4354e-05
-1.75374e-05
6.21447e-05
-1.77907e-05
8.00364e-05
-1.78918e-05
9.78327e-05
-1.77963e-05
0.000115287
-1.74546e-05
0.000132202
-1.69146e-05
0.000148296
-1.6094e-05
0.00016327
-1.49741e-05
0.000176847
-1.35776e-05
0.000188737
-1.18895e-05
0.000198664
-9.92725e-06
0.000206397
-7.73345e-06
0.000211753
-5.35617e-06
0.000214654
-2.90079e-06
0.000215073
-4.19129e-07
0.000212979
2.09394e-06
0.000208374
4.60497e-06
0.000201419
6.95455e-06
0.000192215
9.20474e-06
0.000181003
1.1212e-05
0.000167978
1.30244e-05
0.000153398
1.45803e-05
0.000137571
1.58268e-05
0.000120737
1.68341e-05
0.000103149
1.7588e-05
8.50905e-05
1.80581e-05
6.68571e-05
1.82333e-05
4.86073e-05
1.82498e-05
3.06386e-05
1.79687e-05
1.31285e-05
1.751e-05
-3.77835e-06
1.69069e-05
-1.99388e-05
1.61604e-05
-3.52765e-05
1.53377e-05
-4.98022e-05
1.45257e-05
-6.34479e-05
1.36457e-05
-7.62092e-05
1.27613e-05
-8.81171e-05
1.19078e-05
-9.91568e-05
1.10397e-05
-0.000109419
1.02626e-05
-0.000118929
9.51008e-06
-0.000127734
8.80406e-06
-0.000135817
8.08383e-06
-0.000143136
7.31851e-06
-0.000149692
6.55583e-06
-0.000155395
5.70293e-06
-0.000160339
4.94437e-06
-0.000164407
4.06768e-06
-0.000167583
3.17619e-06
-0.000169888
2.30458e-06
-0.000171465
1.57738e-06
-0.000172282
8.17571e-07
-0.00017238
9.78075e-08
-0.000171715
-6.65587e-07
-0.000170384
-1.33101e-06
-0.000168373
-2.01113e-06
-0.00016572
-2.65245e-06
-0.000162356
-3.36365e-06
-0.000158454
-3.90205e-06
-0.000153822
-4.63201e-06
-0.000148574
-5.24801e-06
-0.000142578
-5.99634e-06
-0.000136024
-6.55425e-06
-0.000128598
-7.42577e-06
-0.000120648
-7.95007e-06
-0.000111826
-8.82183e-06
-0.000102423
-9.40336e-06
-9.19904e-05
-1.04326e-05
-8.08322e-05
-1.11582e-05
-6.86018e-05
-1.22305e-05
-5.54499e-05
-1.31519e-05
-4.10658e-05
-1.43842e-05
-2.56267e-05
-1.54391e-05
-9.12376e-06
-1.6503e-05
8.32694e-06
-1.74508e-05
2.67416e-05
-1.84148e-05
4.59485e-05
-1.9207e-05
6.55936e-05
-1.96452e-05
8.5564e-05
-1.99705e-05
0.000105479
-1.99146e-05
0.000125106
-1.96278e-05
0.000144152
-1.90459e-05
0.000162131
-1.79786e-05
0.00017878
-1.66496e-05
0.000193827
-1.50466e-05
0.000206803
-1.29759e-05
0.000217583
-1.07808e-05
0.000225833
-8.25019e-06
0.000231496
-5.66308e-06
0.000234182
-2.6856e-06
0.000233825
3.56821e-07
0.0002311
2.72516e-06
0.000226209
4.89046e-06
0.000219143
7.06624e-06
0.000210138
9.00528e-06
0.000199233
1.09047e-05
0.000186597
1.26364e-05
0.000172624
1.39724e-05
0.000157392
1.52324e-05
0.000141359
1.60329e-05
0.000124593
1.6766e-05
0.000107303
1.72896e-05
8.98768e-05
1.74262e-05
7.23477e-05
1.75291e-05
5.489e-05
1.74576e-05
3.78304e-05
1.70597e-05
2.11065e-05
1.67238e-05
5.04141e-06
1.60651e-05
-1.05663e-05
1.56077e-05
-2.54988e-05
1.49325e-05
-3.9614e-05
1.41153e-05
-5.29088e-05
1.32948e-05
-6.53404e-05
1.24316e-05
-7.68768e-05
1.15364e-05
-8.7555e-05
1.06781e-05
-9.7372e-05
9.81701e-06
-0.000106369
8.99718e-06
-0.000114568
8.19904e-06
-0.000121974
7.40573e-06
-0.000128643
6.6693e-06
-0.000134579
5.93543e-06
-0.000139791
5.21192e-06
-0.000144301
4.51027e-06
-0.000148083
3.78244e-06
-0.000151158
3.0746e-06
-0.000153497
2.33891e-06
-0.000155081
1.58436e-06
-0.000155918
8.37295e-07
-0.000155938
1.98538e-08
-0.000155074
-8.64409e-07
-0.000153359
-1.71453e-06
-0.000150796
-2.56377e-06
-0.00014731
-3.48519e-06
-0.00014299
-4.32009e-06
-0.000137757
-5.23315e-06
-0.000131651
-6.10626e-06
-0.000124726
-6.92482e-06
-0.000116869
-7.85769e-06
-0.000108166
-8.70255e-06
-9.87374e-05
-9.42861e-06
-8.83433e-05
-1.03941e-05
-7.73178e-05
-1.10255e-05
-6.53769e-05
-1.1941e-05
-5.27788e-05
-1.25981e-05
-3.94868e-05
-1.3292e-05
-2.54625e-05
-1.40243e-05
-1.06966e-05
-1.4766e-05
4.56951e-06
-1.52661e-05
2.0431e-05
-1.58615e-05
3.66213e-05
-1.61904e-05
5.32284e-05
-1.66072e-05
6.99657e-05
-1.67373e-05
8.66381e-05
-1.66725e-05
0.000103277
-1.66387e-05
0.000119637
-1.63601e-05
-1.60751e-05
0.000167198
3.35784e-05
0.000149906
3.45776e-05
0.000131972
3.58602e-05
0.000113566
3.68034e-05
9.51604e-05
3.68037e-05
7.67316e-05
3.68496e-05
5.85948e-05
3.62683e-05
4.08926e-05
3.53954e-05
2.36729e-05
3.44349e-05
7.12347e-06
3.309e-05
-8.52258e-06
3.12942e-05
-2.33265e-05
2.96049e-05
-3.71882e-05
2.77206e-05
-5.00746e-05
2.57689e-05
-6.19571e-05
2.37614e-05
-7.28617e-05
2.18099e-05
-8.27898e-05
1.98556e-05
-9.17618e-05
1.79426e-05
-9.98111e-05
1.60956e-05
-0.00010696
1.42999e-05
-0.000113252
1.25864e-05
-0.000118724
1.0946e-05
-0.000123429
9.40854e-06
-0.000127344
7.8283e-06
-0.000130519
6.34594e-06
-0.000133002
4.97011e-06
-0.000134805
3.60531e-06
-0.000135962
2.30664e-06
-0.000136455
9.91252e-07
-0.00013625
-4.04329e-07
-0.000135424
-1.65413e-06
-0.00013386
-3.129e-06
-0.000131645
-4.43189e-06
-0.000128725
-5.84304e-06
-0.000125052
-7.3426e-06
-0.000120753
-8.60401e-06
-0.000115537
-1.04287e-05
-0.000109614
-1.18366e-05
-0.000102838
-1.35664e-05
-9.51852e-05
-1.53007e-05
-8.67086e-05
-1.69413e-05
-7.70603e-05
-1.93148e-05
-6.64599e-05
-2.11967e-05
-5.5104e-05
-2.27043e-05
-4.2562e-05
-2.50946e-05
-2.89719e-05
-2.71727e-05
-1.46748e-05
-2.85726e-05
7.46382e-07
-3.08629e-05
1.70607e-05
-3.26266e-05
3.39469e-05
-3.37653e-05
5.15105e-05
-3.51175e-05
6.95456e-05
-3.60648e-05
8.79302e-05
-3.67588e-05
0.000106578
-3.72824e-05
0.000125011
-3.68488e-05
0.000143101
-3.61746e-05
0.000160792
-3.53624e-05
0.000177558
-3.35189e-05
0.000193319
-3.1503e-05
0.000207733
-2.88179e-05
0.000220652
-2.58238e-05
0.000231964
-2.26089e-05
0.000241173
-1.84085e-05
0.000248325
-1.42852e-05
0.000253229
-9.79498e-06
0.000255678
-4.88618e-06
0.000255778
-2.05648e-07
0.000253438
4.65887e-06
0.000248647
9.57871e-06
0.000241404
1.44883e-05
0.000231728
1.93458e-05
0.000219891
2.36636e-05
0.000206058
2.76588e-05
0.00019029
3.15264e-05
0.00017303
3.45043e-05
0.000154473
3.71063e-05
0.000134912
3.91114e-05
0.000114694
4.04235e-05
9.40643e-05
4.12512e-05
7.34208e-05
4.12788e-05
5.30038e-05
4.08293e-05
3.31135e-05
3.97745e-05
1.40134e-05
3.81849e-05
-4.0918e-06
3.62007e-05
-2.11018e-05
3.4013e-05
-3.68509e-05
3.14912e-05
-5.13145e-05
2.89184e-05
-6.45181e-05
2.64007e-05
-7.64548e-05
2.38708e-05
-8.72783e-05
2.16403e-05
-9.70687e-05
1.95716e-05
-0.000105885
1.7619e-05
-0.000113827
1.58769e-05
-0.000120886
1.41127e-05
-0.00012719
1.26085e-05
-0.000132732
1.10815e-05
-0.000137511
9.54211e-06
-0.000141596
8.17151e-06
-0.000144998
6.80581e-06
-0.000147774
5.54614e-06
-0.000149887
4.23747e-06
-0.00015138
2.96791e-06
-0.000152264
1.77213e-06
-0.00015254
5.65748e-07
-0.000152187
-7.03777e-07
-0.000151265
-1.83716e-06
-0.000149753
-3.02646e-06
-0.000147607
-4.2924e-06
-0.00014489
-5.42494e-06
-0.000141503
-6.78596e-06
-0.000137416
-8.17463e-06
-0.000132758
-9.31951e-06
-0.000127298
-1.09141e-05
-0.000121073
-1.24369e-05
-0.00011403
-1.40924e-05
-0.000106236
-1.55898e-05
-9.75393e-05
-1.73908e-05
-8.79573e-05
-1.91674e-05
-7.74928e-05
-2.09291e-05
-6.60715e-05
-2.28641e-05
-5.3856e-05
-2.44103e-05
-4.06607e-05
-2.63923e-05
-2.65449e-05
-2.82176e-05
-1.17146e-05
-2.96639e-05
3.96619e-06
-3.13553e-05
2.0349e-05
-3.27575e-05
3.7365e-05
-3.4031e-05
5.48142e-05
-3.48817e-05
7.25668e-05
-3.54959e-05
9.04263e-05
-3.57172e-05
0.000108196
-3.55285e-05
0.00012566
-3.49069e-05
0.000142517
-3.37072e-05
0.000158535
-3.20348e-05
0.000173454
-2.98385e-05
0.000186982
-2.70276e-05
0.000198844
-2.37039e-05
0.000208801
-1.99069e-05
0.000216653
-1.57069e-05
0.000222217
-1.11273e-05
0.000225381
-6.32107e-06
0.000226064
-1.36951e-06
0.000224277
3.58059e-06
0.000219858
8.8176e-06
0.000213079
1.35554e-05
0.000203942
1.82557e-05
0.000192756
2.2357e-05
0.000179635
2.6235e-05
0.000164832
2.95911e-05
0.000148622
3.24136e-05
0.000131206
3.48147e-05
0.000112958
3.64834e-05
9.40781e-05
3.77598e-05
7.48822e-05
3.83549e-05
5.5689e-05
3.83693e-05
3.66907e-05
3.79872e-05
1.81143e-05
3.71443e-05
1.7183e-07
3.58721e-05
-1.70297e-05
3.43946e-05
-3.33188e-05
3.25759e-05
-4.86685e-05
3.07001e-05
-6.29489e-05
2.85672e-05
-7.62253e-05
2.65482e-05
-8.84048e-05
2.4368e-05
-9.95589e-05
2.23021e-05
-0.000109661
2.0204e-05
-0.000118781
1.82425e-05
-0.000127055
1.65473e-05
-0.000134424
1.47315e-05
-0.000140934
1.30252e-05
-0.000146645
1.14302e-05
-0.00015161
9.92209e-06
-0.000155945
8.6837e-06
-0.000159608
7.33514e-06
-0.000162618
6.01978e-06
-0.000164972
4.70261e-06
-0.000166754
3.56142e-06
-0.000167883
2.25401e-06
-0.000168353
9.45524e-07
-0.000168167
-3.58182e-07
-0.000167447
-1.44183e-06
-0.000165983
-2.93341e-06
-0.000163834
-4.29256e-06
-0.000161099
-5.46295e-06
-0.000157607
-6.98032e-06
-0.000153448
-8.31643e-06
-0.000148564
-9.77664e-06
-0.000142916
-1.12938e-05
-0.00013662
-1.25894e-05
-0.000129444
-1.43532e-05
-0.000121434
-1.60214e-05
-0.000112459
-1.79519e-05
-0.000102528
-1.9863e-05
-9.16244e-05
-2.18103e-05
-7.97245e-05
-2.37919e-05
-6.68597e-05
-2.57321e-05
-5.3126e-05
-2.74516e-05
-3.84947e-05
-2.92573e-05
-2.31148e-05
-3.0763e-05
-7.03345e-06
-3.21635e-05
9.61337e-06
-3.32866e-05
2.679e-05
-3.43419e-05
4.43321e-05
-3.50797e-05
6.21278e-05
-3.55865e-05
8.00344e-05
-3.57986e-05
9.78447e-05
-3.56068e-05
0.000115305
-3.49151e-05
0.000132226
-3.38357e-05
0.000148326
-3.21946e-05
0.000163324
-2.99715e-05
0.000176921
-2.71752e-05
0.00018882
-2.37882e-05
0.000198745
-1.98531e-05
0.000206489
-1.54771e-05
0.000211856
-1.07231e-05
0.000214753
-5.79797e-06
0.000215167
-8.33199e-07
0.000213065
4.19543e-06
0.000208454
9.21651e-06
0.00020149
1.39179e-05
0.000192275
1.84201e-05
0.000181054
2.24326e-05
0.000168015
2.60632e-05
0.000153423
2.91723e-05
0.000137577
3.1673e-05
0.000120728
3.3683e-05
0.000103133
3.51826e-05
8.50552e-05
3.61358e-05
6.68064e-05
3.64821e-05
4.85537e-05
3.65024e-05
3.05694e-05
3.5953e-05
1.304e-05
3.50394e-05
-3.8709e-06
3.38177e-05
-2.00257e-05
3.23152e-05
-3.53693e-05
3.06813e-05
-4.98935e-05
2.90499e-05
-6.35428e-05
2.7295e-05
-7.63076e-05
2.55261e-05
-8.82254e-05
2.38255e-05
-9.92496e-05
2.2064e-05
-0.000109508
2.05207e-05
-0.000119023
1.90251e-05
-0.000127826
1.76077e-05
-0.000135918
1.61756e-05
-0.000143239
1.46391e-05
-0.000149773
1.30899e-05
-0.000155486
1.14158e-05
-0.000160433
9.8919e-06
-0.000164502
8.13681e-06
-0.000167676
6.34963e-06
-0.000169974
4.60257e-06
-0.000171557
3.16075e-06
-0.00017237
1.62998e-06
-0.000172459
1.86706e-07
-0.000171791
-1.33349e-06
-0.000170463
-2.65881e-06
-0.000168442
-4.03197e-06
-0.000165788
-5.3071e-06
-0.000162436
-6.7156e-06
-0.000158516
-7.8213e-06
-0.000153883
-9.26566e-06
-0.000148633
-1.04979e-05
-0.000142632
-1.19968e-05
-0.000136074
-1.31126e-05
-0.00012865
-1.48501e-05
-0.000120692
-1.59077e-05
-0.000111874
-1.76403e-05
-0.000102466
-1.88116e-05
-9.20311e-05
-2.08673e-05
-8.08774e-05
-2.23119e-05
-6.86449e-05
-2.4463e-05
-5.54899e-05
-2.63069e-05
-4.11095e-05
-2.87647e-05
-2.56699e-05
-3.08788e-05
-9.16754e-06
-3.30055e-05
8.28099e-06
-3.48994e-05
2.66945e-05
-3.68284e-05
4.59025e-05
-3.84151e-05
6.55505e-05
-3.92933e-05
8.55257e-05
-3.99457e-05
0.000105444
-3.9833e-05
0.000125079
-3.92633e-05
0.00014414
-3.81065e-05
0.00016213
-3.59694e-05
0.000178793
-3.33124e-05
0.000193839
-3.00925e-05
0.00020679
-2.59277e-05
0.000217557
-2.15476e-05
0.000225781
-1.64741e-05
0.000231402
-1.12839e-05
0.000234114
-5.39834e-06
0.000233815
6.55824e-07
0.000231146
5.39465e-06
0.00022629
9.74614e-06
0.000219232
1.41243e-05
0.000210222
1.80147e-05
0.000199312
2.18152e-05
0.000186666
2.52816e-05
0.000172685
2.79539e-05
0.000157443
3.04739e-05
0.000141401
3.20752e-05
0.000124625
3.35413e-05
0.000107326
3.4589e-05
8.9892e-05
3.48599e-05
7.2355e-05
3.50661e-05
5.48915e-05
3.4921e-05
3.78235e-05
3.41276e-05
2.10917e-05
3.34557e-05
5.02409e-06
3.21327e-05
-1.05892e-05
3.12209e-05
-2.55274e-05
2.98707e-05
-3.9647e-05
2.82348e-05
-5.29453e-05
2.6593e-05
-6.53803e-05
2.48667e-05
-7.69196e-05
2.30757e-05
-8.75993e-05
2.13578e-05
-9.74172e-05
1.96349e-05
-0.000106417
1.79967e-05
-0.000114615
1.63975e-05
-0.000122024
1.48144e-05
-0.000128691
1.33361e-05
-0.000134626
1.18705e-05
-0.000139842
1.04278e-05
-0.000144352
9.0206e-06
-0.000148133
7.56391e-06
-0.000151209
6.14983e-06
-0.000153549
4.67876e-06
-0.000155138
3.17361e-06
-0.00015598
1.67987e-06
-0.000155999
3.82925e-08
-0.000155129
-1.73434e-06
-0.000153415
-3.42849e-06
-0.000150853
-5.12576e-06
-0.000147368
-6.97004e-06
-0.000143046
-8.64237e-06
-0.000137811
-1.0468e-05
-0.000131704
-1.22129e-05
-0.000124775
-1.38543e-05
-0.000116924
-1.57093e-05
-0.000108214
-1.74125e-05
-9.87811e-05
-1.88611e-05
-8.83845e-05
-2.07908e-05
-7.73589e-05
-2.20512e-05
-6.54139e-05
-2.38861e-05
-5.28095e-05
-2.52026e-05
-3.95176e-05
-2.6584e-05
-2.54908e-05
-2.80512e-05
-1.07178e-05
-2.95391e-05
4.54378e-06
-3.05278e-05
2.04064e-05
-3.17242e-05
3.65992e-05
-3.23834e-05
5.32081e-05
-3.32162e-05
6.99505e-05
-3.34798e-05
8.66318e-05
-3.33539e-05
0.00010328
-3.3287e-05
0.000119652
-3.27318e-05
-3.21599e-05
0.000167259
5.03893e-05
0.000149949
5.18877e-05
0.000131997
5.38121e-05
0.000113574
5.52265e-05
9.51526e-05
5.52252e-05
7.67086e-05
5.52937e-05
5.85628e-05
5.44141e-05
4.08436e-05
5.31146e-05
2.36172e-05
5.16612e-05
7.05415e-06
4.96531e-05
-8.59396e-06
4.69423e-05
-2.34041e-05
4.44151e-05
-3.72702e-05
4.15867e-05
-5.0158e-05
3.86567e-05
-6.20401e-05
3.56435e-05
-7.29463e-05
3.27161e-05
-8.28818e-05
2.97912e-05
-9.18491e-05
2.69099e-05
-9.98916e-05
2.41381e-05
-0.000107037
2.14449e-05
-0.000113329
1.88787e-05
-0.000118801
1.64183e-05
-0.000123501
1.4108e-05
-0.00012742
1.17475e-05
-0.000130592
9.51764e-06
-0.000133073
7.45123e-06
-0.000134877
5.40983e-06
-0.000136035
3.46425e-06
-0.000136513
1.46891e-06
-0.000136301
-6.15526e-07
-0.00013548
-2.47561e-06
-0.000133912
-4.69735e-06
-0.000131697
-6.64666e-06
-0.000128787
-8.75259e-06
-0.000125107
-1.10232e-05
-0.000120821
-1.28898e-05
-0.000115596
-1.56542e-05
-0.00010967
-1.77623e-05
-0.00010291
-2.0326e-05
-9.52508e-05
-2.29603e-05
-8.67662e-05
-2.54259e-05
-7.71394e-05
-2.89417e-05
-6.65341e-05
-3.18021e-05
-5.51725e-05
-3.4066e-05
-4.26437e-05
-3.76234e-05
-2.90421e-05
-4.07745e-05
-1.47249e-05
-4.28899e-05
6.81726e-07
-4.62697e-05
1.7e-05
-4.8945e-05
3.38981e-05
-5.06635e-05
5.14806e-05
-5.27001e-05
6.95154e-05
-5.40997e-05
8.79173e-05
-5.51608e-05
0.000106584
-5.59488e-05
0.00012504
-5.53056e-05
0.000143144
-5.42787e-05
0.000160862
-5.30804e-05
0.00017765
-5.03066e-05
0.000193432
-4.72856e-05
0.000207874
-4.32605e-05
0.00022081
-3.87598e-05
0.000232141
-3.39394e-05
0.000241373
-2.76406e-05
0.000248535
-2.14476e-05
0.000253463
-1.47226e-05
0.000255924
-7.34738e-06
0.000256011
-2.92989e-07
0.000253633
7.03643e-06
0.000248831
1.43805e-05
0.000241595
2.17247e-05
0.000231914
2.90264e-05
0.000220063
3.55149e-05
0.000206214
4.15071e-05
0.000190435
4.73052e-05
0.000173159
5.17808e-05
0.000154585
5.56798e-05
0.000135012
5.86846e-05
0.000114778
6.06574e-05
9.41344e-05
6.1895e-05
7.3479e-05
6.19342e-05
5.30496e-05
6.12587e-05
3.31514e-05
5.96727e-05
1.40382e-05
5.7298e-05
-4.0793e-06
5.43182e-05
-2.10993e-05
5.10329e-05
-3.68552e-05
4.72471e-05
-5.13264e-05
4.33896e-05
-6.45401e-05
3.96144e-05
-7.64797e-05
3.58104e-05
-8.73124e-05
3.24729e-05
-9.71181e-05
2.93773e-05
-0.000105947
2.64483e-05
-0.000113904
2.3834e-05
-0.000120969
2.1177e-05
-0.00012727
1.89101e-05
-0.000132825
1.66359e-05
-0.00013763
1.4347e-05
-0.000141698
1.22396e-05
-0.000145101
1.02084e-05
-0.000147882
8.32774e-06
-0.000149978
6.3328e-06
-0.000151508
4.4984e-06
-0.0001524
2.66443e-06
-0.000152654
8.19558e-07
-0.000152305
-1.05291e-06
-0.000151365
-2.77706e-06
-0.000149859
-4.533e-06
-0.000147719
-6.43188e-06
-0.000144997
-8.14687e-06
-0.000141619
-1.01644e-05
-0.000137558
-1.2236e-05
-0.000132874
-1.40029e-05
-0.000127422
-1.63666e-05
-0.000121199
-1.86593e-05
-0.000114159
-2.11333e-05
-0.000106359
-2.339e-05
-9.76713e-05
-2.60781e-05
-8.80957e-05
-2.87432e-05
-7.76303e-05
-3.13945e-05
-6.62431e-05
-3.42514e-05
-5.39738e-05
-3.66797e-05
-4.0788e-05
-3.95781e-05
-2.6671e-05
-4.23348e-05
-1.18379e-05
-4.44972e-05
3.86266e-06
-4.70561e-05
2.02593e-05
-4.91543e-05
3.72777e-05
-5.10496e-05
5.47394e-05
-5.23436e-05
7.25071e-05
-5.32638e-05
9.03911e-05
-5.36014e-05
0.000108181
-5.33181e-05
0.000125665
-5.2392e-05
0.000142547
-5.05886e-05
0.000158584
-4.80726e-05
0.000173524
-4.4778e-05
0.000187067
-4.05714e-05
0.000198954
-3.5591e-05
0.000208959
-2.99117e-05
0.000216799
-2.35478e-05
0.000222372
-1.66999e-05
0.000225545
-9.49426e-06
0.00022622
-2.04536e-06
0.000224388
5.41313e-06
0.000219987
1.32186e-05
0.000213202
2.03398e-05
0.000204043
2.74142e-05
0.000192842
3.35578e-05
0.000179731
3.93462e-05
0.000164892
4.44298e-05
0.000148655
4.86507e-05
0.000131209
5.22603e-05
0.000112941
5.47518e-05
9.40476e-05
5.6653e-05
7.48209e-05
5.75815e-05
5.56094e-05
5.75808e-05
3.65956e-05
5.7001e-05
1.80048e-05
5.57351e-05
3.10469e-08
5.38458e-05
-1.71728e-05
5.15983e-05
-3.34598e-05
4.88628e-05
-4.88095e-05
4.60497e-05
-6.30692e-05
4.28269e-05
-7.63626e-05
3.98415e-05
-8.85362e-05
3.65416e-05
-9.96903e-05
3.34562e-05
-0.000109776
3.02896e-05
-0.000118934
2.74008e-05
-0.000127186
2.47989e-05
-0.000134555
2.21008e-05
-0.000141052
1.95219e-05
-0.000146759
1.71379e-05
-0.000151728
1.48904e-05
-0.00015605
1.30059e-05
-0.000159722
1.10071e-05
-0.000162734
9.032e-06
-0.000165128
7.09614e-06
-0.000166874
5.3075e-06
-0.000168012
3.392e-06
-0.000168474
1.40727e-06
-0.000168332
-4.99449e-07
-0.000167563
-2.21173e-06
-0.000166097
-4.399e-06
-0.000163943
-6.44677e-06
-0.000161217
-8.18914e-06
-0.000157733
-1.04635e-05
-0.000153552
-1.24977e-05
-0.000148694
-1.46347e-05
-0.00014304
-1.69477e-05
-0.000136742
-1.88882e-05
-0.000129582
-2.15123e-05
-0.000121573
-2.40314e-05
-0.000112606
-2.69187e-05
-0.000102662
-2.98071e-05
-9.1755e-05
-3.27172e-05
-7.98697e-05
-3.56772e-05
-6.70052e-05
-3.85967e-05
-5.32532e-05
-4.12037e-05
-3.86188e-05
-4.38918e-05
-2.32227e-05
-4.61593e-05
-7.1273e-06
-4.8259e-05
9.52967e-06
-4.99437e-05
2.6714e-05
-5.15263e-05
4.42661e-05
-5.26319e-05
6.20795e-05
-5.34e-05
8.00015e-05
-5.37208e-05
9.78233e-05
-5.34287e-05
0.000115308
-5.23998e-05
0.00013225
-5.07778e-05
0.000148379
-4.83236e-05
0.000163391
-4.49836e-05
0.000177011
-4.07956e-05
0.000188961
-3.57387e-05
0.000198896
-2.97879e-05
0.000206647
-2.32285e-05
0.00021201
-1.60865e-05
0.000214921
-8.70845e-06
0.000215321
-1.23378e-06
0.000213189
6.32706e-06
0.000208574
1.38318e-05
0.000201607
2.08848e-05
0.000192383
2.76436e-05
0.00018115
3.36657e-05
0.000168083
3.91303e-05
0.000153463
4.37925e-05
0.00013759
4.75459e-05
0.000120731
5.05419e-05
0.000103126
5.27878e-05
8.50123e-05
5.4249e-05
6.67428e-05
5.47516e-05
4.84896e-05
5.47556e-05
3.04718e-05
5.39708e-05
1.29219e-05
5.25891e-05
-4.00514e-06
5.07447e-05
-2.01588e-05
4.84688e-05
-3.55148e-05
4.60373e-05
-5.00337e-05
4.35687e-05
-6.36661e-05
4.09274e-05
-7.64283e-05
3.82883e-05
-8.83533e-05
3.57506e-05
-9.93716e-05
3.30822e-05
-0.000109612
3.07609e-05
-0.00011912
2.85332e-05
-0.000127933
2.6421e-05
-0.000136027
2.42691e-05
-0.000143358
2.19701e-05
-0.000149901
1.96329e-05
-0.000155616
1.71306e-05
-0.000160556
1.48325e-05
-0.000164636
1.22171e-05
-0.000167811
9.52445e-06
-0.000170102
6.89333e-06
-0.0001717
4.75839e-06
-0.000172509
2.43945e-06
-0.000172583
2.60316e-07
-0.000171912
-2.00432e-06
-0.000170581
-3.98979e-06
-0.000168549
-6.06452e-06
-0.000165897
-7.95895e-06
-0.000162569
-1.00436e-05
-0.000158626
-1.17644e-05
-0.000153996
-1.38956e-05
-0.000148742
-1.57517e-05
-0.000142747
-1.79921e-05
-0.000136181
-1.96785e-05
-0.000128762
-2.22687e-05
-0.00012077
-2.38997e-05
-0.000111979
-2.64315e-05
-0.000102541
-2.82494e-05
-9.21018e-05
-3.13069e-05
-8.09462e-05
-3.34677e-05
-6.87158e-05
-3.66935e-05
-5.55477e-05
-3.94751e-05
-4.11752e-05
-4.31373e-05
-2.57231e-05
-4.63311e-05
-9.21477e-06
-4.95139e-05
8.22674e-06
-5.2341e-05
2.66404e-05
-5.52421e-05
4.58497e-05
-5.76245e-05
6.55018e-05
-5.89456e-05
8.54822e-05
-5.99263e-05
0.000105408
-5.97591e-05
0.000125055
-5.89103e-05
0.000144133
-5.71845e-05
0.000162139
-5.39757e-05
0.000178813
-4.9986e-05
0.000193867
-4.51471e-05
0.000206813
-3.88734e-05
0.000217543
-3.22777e-05
0.000225695
-2.46271e-05
0.000231204
-1.67924e-05
0.00023388
-8.0751e-06
0.00023368
8.56021e-07
0.000231185
7.88972e-06
0.000226423
1.4508e-05
0.000219374
2.11727e-05
0.000210355
2.70336e-05
0.000199421
3.2749e-05
0.000186774
3.7929e-05
0.000172772
4.19553e-05
0.00015751
4.57361e-05
0.000141448
4.81367e-05
0.000124656
5.03339e-05
0.000107338
5.19064e-05
8.98909e-05
5.23074e-05
7.23408e-05
5.26162e-05
5.48721e-05
5.23897e-05
3.77866e-05
5.12131e-05
2.10451e-05
5.01972e-05
4.97289e-06
4.82048e-05
-1.06499e-05
4.68437e-05
-2.55948e-05
4.48156e-05
-3.97193e-05
4.23593e-05
-5.30214e-05
3.98951e-05
-6.54599e-05
3.73051e-05
-7.69997e-05
3.46155e-05
-8.76795e-05
3.20376e-05
-9.74953e-05
2.94507e-05
-0.000106491
2.69924e-05
-0.000114687
2.45939e-05
-0.000122096
2.22225e-05
-0.000128765
2.00057e-05
-0.000134703
1.78084e-05
-0.000139915
1.564e-05
-0.000144426
1.3531e-05
-0.000148211
1.1349e-05
-0.000151288
9.22763e-06
-0.000153631
7.02156e-06
-0.000155219
4.76163e-06
-0.000156055
2.51532e-06
-0.000156065
4.8416e-08
-0.000155193
-2.60612e-06
-0.000153485
-5.13616e-06
-0.000150917
-7.69408e-06
-0.000147431
-1.04558e-05
-0.000143104
-1.29693e-05
-0.00013787
-1.57024e-05
-0.000131764
-1.83191e-05
-0.000124839
-2.07796e-05
-0.000116976
-2.35723e-05
-0.000108264
-2.6124e-05
-9.88348e-05
-2.82905e-05
-8.84411e-05
-3.11845e-05
-7.7414e-05
-3.30784e-05
-6.54681e-05
-3.5832e-05
-5.28622e-05
-3.78086e-05
-3.9568e-05
-3.98783e-05
-2.55417e-05
-4.20776e-05
-1.07584e-05
-4.43225e-05
4.50205e-06
-4.57884e-05
2.03683e-05
-4.75905e-05
3.6566e-05
-4.85811e-05
5.31837e-05
-4.9834e-05
6.99367e-05
-5.02329e-05
8.66278e-05
-5.00451e-05
0.000103291
-4.99503e-05
0.000119682
-4.9123e-05
-4.82638e-05
0.00016735
6.72277e-05
0.000150014
6.92244e-05
0.000132035
7.17907e-05
0.000113586
7.36755e-05
9.51408e-05
7.36705e-05
7.66737e-05
7.37608e-05
5.85158e-05
7.25719e-05
4.077e-05
7.08604e-05
2.35337e-05
6.88974e-05
6.95344e-06
6.62334e-05
-8.70192e-06
6.25977e-05
-2.35212e-05
5.92343e-05
-3.73926e-05
5.54581e-05
-5.02839e-05
5.1548e-05
-6.21688e-05
4.75283e-05
-7.30777e-05
4.3625e-05
-8.30174e-05
3.97308e-05
-9.19785e-05
3.58709e-05
-0.000100017
3.21771e-05
-0.00010716
2.85875e-05
-0.000113453
2.51715e-05
-0.000118926
2.18915e-05
-0.000123615
1.87968e-05
-0.000127535
1.56673e-05
-0.000130708
1.26915e-05
-0.00013319
9.93249e-06
-0.000134991
7.21146e-06
-0.00013615
4.62333e-06
-0.000136602
1.92054e-06
-0.000136377
-8.40198e-07
-0.000135564
-3.2894e-06
-0.000133989
-6.27171e-06
-0.000131776
-8.85983e-06
-0.000128883
-1.1646e-05
-0.000125189
-1.47175e-05
-0.000120924
-1.71539e-05
-0.000115685
-2.0894e-05
-0.000109757
-2.36897e-05
-0.000103024
-2.70592e-05
-9.53506e-05
-3.06339e-05
-8.68589e-05
-3.39176e-05
-7.7259e-05
-3.85417e-05
-6.66467e-05
-4.24145e-05
-5.52783e-05
-4.54345e-05
-4.27674e-05
-5.01344e-05
-2.91493e-05
-5.43927e-05
-1.48077e-05
-5.72316e-05
5.82805e-07
-6.16602e-05
1.69084e-05
-6.52707e-05
3.38231e-05
-6.75783e-05
5.14216e-05
-7.02987e-05
6.94711e-05
-7.21493e-05
8.7895e-05
-7.35848e-05
0.00010659
-7.46436e-05
0.000125082
-7.37984e-05
0.000143207
-7.24037e-05
0.000160964
-7.0837e-05
0.00017779
-6.71333e-05
0.000193594
-6.30889e-05
0.000208079
-5.77459e-05
0.000221051
-5.17318e-05
0.000232391
-4.52797e-05
0.000241675
-3.69248e-05
0.000248861
-2.86335e-05
0.000253827
-1.96885e-05
0.000256296
-9.81733e-06
0.000256354
-3.5088e-07
0.000253926
9.46482e-06
0.000249103
1.92038e-05
0.000241879
2.89479e-05
0.000232189
3.87161e-05
0.000220317
4.73877e-05
0.000206448
5.53758e-05
0.000190655
6.30983e-05
0.000173349
6.90867e-05
0.00015475
7.42788e-05
0.00013516
7.82737e-05
0.000114903
8.09143e-05
9.424e-05
8.25584e-05
7.35662e-05
8.2608e-05
5.31164e-05
8.17085e-05
3.32037e-05
7.95854e-05
1.40766e-05
7.64251e-05
-4.0512e-06
7.2446e-05
-2.10839e-05
6.80656e-05
-3.68613e-05
6.30244e-05
-5.13481e-05
5.78764e-05
-6.4569e-05
5.28353e-05
-7.65175e-05
4.77588e-05
-8.73621e-05
4.33176e-05
-9.71914e-05
3.92066e-05
-0.000106048
3.53049e-05
-0.000114032
3.18185e-05
-0.000121112
2.82563e-05
-0.000127414
2.52124e-05
-0.000132966
2.21876e-05
-0.000137786
1.91676e-05
-0.000141833
1.62862e-05
-0.000145238
1.36138e-05
-0.000148056
1.11453e-05
-0.000150158
8.43474e-06
-0.000151686
6.02641e-06
-0.000152589
3.56725e-06
-0.00015282
1.05084e-06