/*--------------------------------*- C++ -*----------------------------------*\
| =========                 |                                                 |
| \\      /  F ield         | OpenFOAM: The Open Source CFD Toolbox           |
|  \\    /   O peration     | Version:  3.0.1                                 |
|   \\  /    A nd           | Web:      www.OpenFOAM.org                      |
|    \\/     M anipulation  |                                                 |
\*---------------------------------------------------------------------------*/
FoamFile
{
    version     2.0;
    format      ascii;
    class       volVectorField;
    location    "58.4";
    object      U;
}
// * * * * * * * * * * * * * * * * * * * * * * * * * * * * * * * * * * * * * //

dimensions      [0 1 -1 0 0 0 0];

internalField   nonuniform List<vector> 
21420
(
(0.128829 0.00175958 0)
(0.112974 0.00179552 0)
(0.0945658 0.00184126 0)
(0.0759247 0.001864 0)
(0.057292 0.00183237 0)
(0.0388562 0.00181405 0)
(0.0205855 0.00175004 0)
(0.00307365 0.00169429 0)
(-0.0134302 0.00163271 0)
(-0.0293588 0.0015386 0)
(-0.044479 0.0014579 0)
(-0.0586992 0.00137014 0)
(-0.0719715 0.00126613 0)
(-0.0842745 0.00117351 0)
(-0.0956019 0.00107118 0)
(-0.10596 0.000979067 0)
(-0.115365 0.000887473 0)
(-0.123839 0.000793449 0)
(-0.131409 0.000706978 0)
(-0.138106 0.000622806 0)
(-0.143964 0.000539748 0)
(-0.149015 0.000461986 0)
(-0.153292 0.000386942 0)
(-0.156826 0.000314077 0)
(-0.159647 0.000244325 0)
(-0.161787 0.000176301 0)
(-0.163255 0.000111227 0)
(-0.164044 5.0454e-05 0)
(-0.164226 -1.50685e-05 0)
(-0.163754 -7.94754e-05 0)
(-0.162639 -0.00014361 0)
(-0.16087 -0.000209495 0)
(-0.158438 -0.000275933 0)
(-0.155324 -0.000345429 0)
(-0.151507 -0.000416139 0)
(-0.146949 -0.000489607 0)
(-0.141624 -0.000569755 0)
(-0.135512 -0.000647354 0)
(-0.12857 -0.000728897 0)
(-0.120763 -0.000820793 0)
(-0.112069 -0.000906275 0)
(-0.102454 -0.00100593 0)
(-0.0918932 -0.00109452 0)
(-0.0803813 -0.00118166 0)
(-0.0678845 -0.00128916 0)
(-0.0543771 -0.00137413 0)
(-0.0399667 -0.00145308 0)
(-0.024632 -0.00155499 0)
(-0.00864846 -0.00161787 0)
(0.00783983 -0.00167001 0)
(0.0250433 -0.00174195 0)
(0.0427754 -0.00176888 0)
(0.0608217 -0.00180652 0)
(0.0790197 -0.00180238 0)
(0.097143 -0.00177342 0)
(0.114961 -0.00174295 0)
(0.132276 -0.00167889 0)
(0.14885 -0.00158414 0)
(0.164424 -0.00148394 0)
(0.178796 -0.00134673 0)
(0.191733 -0.00120016 0)
(0.203063 -0.00103248 0)
(0.212609 -0.000841061 0)
(0.220186 -0.00064369 0)
(0.225663 -0.000433602 0)
(0.228912 -0.000203834 0)
(0.229873 7.69114e-06 0)
(0.228607 0.000238657 0)
(0.224947 0.00045398 0)
(0.219171 0.000670876 0)
(0.211246 0.000878511 0)
(0.201247 0.00105498 0)
(0.189541 0.00123349 0)
(0.176135 0.00138522 0)
(0.161321 0.00151334 0)
(0.145454 0.00161606 0)
(0.128478 0.00169482 0)
(0.110924 0.00176012 0)
(0.0929369 0.00179575 0)
(0.0746215 0.0018052 0)
(0.0563499 0.00179966 0)
(0.0382764 0.00177301 0)
(0.0205798 0.00172889 0)
(0.00341817 0.00167231 0)
(-0.013119 0.00161223 0)
(-0.0289258 0.00152578 0)
(-0.043978 0.00143868 0)
(-0.0581123 0.00135101 0)
(-0.0712337 0.001257 0)
(-0.0834274 0.00115718 0)
(-0.0946862 0.00106621 0)
(-0.104972 0.000968123 0)
(-0.114312 0.000878304 0)
(-0.122755 0.000787802 0)
(-0.130284 0.000698889 0)
(-0.136878 0.000617671 0)
(-0.142623 0.000528409 0)
(-0.147555 0.00044255 0)
(-0.151655 0.00037024 0)
(-0.154963 0.000291993 0)
(-0.157514 0.00021667 0)
(-0.159354 0.000147962 0)
(-0.160477 8.148e-05 0)
(-0.160976 1.72186e-05 0)
(-0.160819 -5.76739e-05 0)
(-0.159986 -0.000109901 0)
(-0.158537 -0.000166948 0)
(-0.156464 -0.000235976 0)
(-0.153744 -0.000298126 0)
(-0.150375 -0.000368317 0)
(-0.146314 -0.000434989 0)
(-0.141571 -0.000500956 0)
(-0.136122 -0.000575024 0)
(-0.129951 -0.000650701 0)
(-0.123031 -0.000721112 0)
(-0.115337 -0.000801744 0)
(-0.106898 -0.0008755 0)
(-0.097677 -0.000949866 0)
(-0.087646 -0.00102595 0)
(-0.0768889 -0.00110921 0)
(-0.0653401 -0.00118226 0)
(-0.0530278 -0.00125652 0)
(-0.0399824 -0.00132972 0)
(-0.026236 -0.00139845 0)
(-0.0118083 -0.00146688 0)
(0.00326425 -0.00151843 0)
(0.0188946 -0.00157256 0)
(0.0349548 -0.00161166 0)
(0.0513823 -0.00163917 0)
(0.0680317 -0.00165748 0)
(0.0847559 -0.00166254 0)
(0.101401 -0.00163499 0)
(0.117731 -0.00160139 0)
(0.133546 -0.00153254 0)
(0.148598 -0.00144851 0)
(0.162668 -0.00133524 0)
(0.175484 -0.00120131 0)
(0.186794 -0.0010453 0)
(0.196417 -0.000864977 0)
(0.204161 -0.000665805 0)
(0.209824 -0.000453621 0)
(0.213274 -0.000232129 0)
(0.214432 8.43057e-07 0)
(0.213283 0.000234279 0)
(0.209602 0.000475765 0)
(0.203675 0.000703836 0)
(0.195488 0.000911039 0)
(0.185222 0.00112001 0)
(0.17306 0.001294 0)
(0.159168 0.00145585 0)
(0.143801 0.00159057 0)
(0.127227 0.00169813 0)
(0.109696 0.00178016 0)
(0.0914727 0.00183709 0)
(0.072803 0.00186396 0)
(0.0539883 0.0018653 0)
(0.0352852 0.00184699 0)
(0.0168684 0.00180639 0)
(-0.00103054 0.00174814 0)
(-0.0182659 0.00167627 0)
(-0.0347094 0.00159072 0)
(-0.0502536 0.0014944 0)
(-0.0648359 0.0013939 0)
(-0.0783867 0.00129758 0)
(-0.0909215 0.00119405 0)
(-0.102398 0.00108816 0)
(-0.112838 0.00098485 0)
(-0.122301 0.000888239 0)
(-0.130783 0.000797947 0)
(-0.138339 0.000706786 0)
(-0.145034 0.000625406 0)
(-0.150906 0.000543161 0)
(-0.156007 0.00046576 0)
(-0.16036 0.000391967 0)
(-0.163973 0.000333345 0)
(-0.166929 0.000257233 0)
(-0.16923 0.000197056 0)
(-0.1709 0.000135762 0)
(-0.171953 7.56497e-05 0)
(-0.172419 1.7858e-05 0)
(-0.172256 -4.18811e-05 0)
(-0.171538 -9.48096e-05 0)
(-0.170249 -0.000156864 0)
(-0.168364 -0.000215023 0)
(-0.165913 -0.000270852 0)
(-0.162878 -0.000331044 0)
(-0.159238 -0.00039026 0)
(-0.154986 -0.000450461 0)
(-0.150105 -0.000520195 0)
(-0.144537 -0.000591499 0)
(-0.138258 -0.000656463 0)
(-0.131195 -0.000735005 0)
(-0.12335 -0.000816462 0)
(-0.114703 -0.000898586 0)
(-0.105198 -0.000977949 0)
(-0.0948842 -0.00106474 0)
(-0.0837638 -0.0011469 0)
(-0.0718309 -0.00122035 0)
(-0.0591043 -0.00129825 0)
(-0.0456044 -0.00137619 0)
(-0.0313585 -0.001451 0)
(-0.0163734 -0.00153207 0)
(-0.000636731 -0.00157856 0)
(0.015682 -0.00163998 0)
(0.032416 -0.00168041 0)
(0.0494603 -0.00170277 0)
(0.0666269 -0.0016962 0)
(0.0836204 -0.00166943 0)
(0.10018 -0.00160902 0)
(0.116019 -0.00153086 0)
(0.130912 -0.00141665 0)
(0.144578 -0.00129125 0)
(0.156819 -0.00114038 0)
(0.167483 -0.000972011 0)
(0.176343 -0.000781348 0)
(0.183174 -0.000570649 0)
(0.187799 -0.000344406 0)
(0.190068 -0.000108523 0)
(0.189961 0.000133406 0)
(0.187324 0.000381771 0)
(0.182214 0.000620503 0)
(0.174814 0.000847063 0)
(0.165212 0.00105625 0)
(0.153591 0.00124551 0)
(0.140216 0.00140396 0)
(0.125326 0.00154692 0)
(0.109195 0.00165107 0)
(0.0921424 0.00172881 0)
(0.0744402 0.00178201 0)
(0.0563501 0.00180916 0)
(0.0381507 0.00180144 0)
(0.0201195 0.00177329 0)
(0.00249712 0.00172548 0)
(-0.014566 0.00166568 0)
(-0.0309516 0.00159014 0)
(-0.0465594 0.00150951 0)
(-0.0613535 0.0014277 0)
(-0.0752884 0.00134385 0)
(-0.0883742 0.00125255 0)
(-0.100593 0.00116462 0)
(-0.11194 0.00108596 0)
(-0.122439 0.000998713 0)
(-0.132063 0.000915603 0)
(-0.140837 0.000825748 0)
(-0.148786 0.000744291 0)
(-0.155854 0.000654273 0)
(-0.162057 0.000575618 0)
(-0.167436 0.000497985 0)
(-0.172011 0.000417092 0)
(-0.175805 0.000339504 0)
(-0.178833 0.00026424 0)
(-0.181118 0.000194107 0)
(-0.182723 0.000126733 0)
(-0.183668 5.84865e-05 0)
(-0.184 4.52199e-06 0)
(-0.183745 -4.61715e-05 0)
(-0.182989 -9.73785e-05 0)
(-0.181717 -0.000146615 0)
(-0.179961 -0.000201455 0)
(-0.177686 -0.000249403 0)
(-0.174882 -0.000303464 0)
(-0.171522 -0.000360412 0)
(-0.167569 -0.000423622 0)
(-0.162976 -0.000487874 0)
(-0.157718 -0.000552196 0)
(-0.151746 -0.000622018 0)
(-0.145031 -0.000693867 0)
(-0.137578 -0.000775686 0)
(-0.129251 -0.000863714 0)
(-0.120205 -0.000937541 0)
(-0.11025 -0.00101982 0)
(-0.0993375 -0.00111595 0)
(-0.0877577 -0.00120086 0)
(-0.0752588 -0.00128017 0)
(-0.0618517 -0.0013633 0)
(-0.0476098 -0.00145541 0)
(-0.0325292 -0.00153116 0)
(-0.0166768 -0.00160698 0)
(0.000291989 -0.00167016 0)
(0.017967 -0.00174672 0)
(0.0359305 -0.00179168 0)
(0.0543348 -0.00182625 0)
(0.0728375 -0.00184319 0)
(0.0912854 -0.00182156 0)
(0.109474 -0.00177019 0)
(0.126861 -0.0016927 0)
(0.143244 -0.00156576 0)
(0.158286 -0.00141526 0)
(0.171566 -0.00122723 0)
(0.182879 -0.00101403 0)
(0.191866 -0.00077674 0)
(0.198321 -0.00050291 0)
(0.202096 -0.000239921 0)
(0.203121 3.19131e-05 0)
(0.201383 0.000317914 0)
(0.196756 0.000578118 0)
(0.189659 0.000828046 0)
(0.18016 0.00105972 0)
(0.168528 0.00123858 0)
(0.155095 0.00141708 0)
(0.14018 0.00153138 0)
(0.124086 0.00164213 0)
(0.107075 0.0017179 0)
(0.0895136 0.00174636 0)
(0.071695 0.0017658 0)
(0.0537973 0.0017634 0)
(0.0361193 0.00172145 0)
(0.0189458 0.00166827 0)
(0.00279529 0.00158604 0)
(-0.0124659 0.00151709 0)
(-0.0271721 0.00143618 0)
(-0.0410574 0.00134121 0)
(-0.0540662 0.00125395 0)
(-0.0661915 0.00116702 0)
(-0.0774514 0.00107863 0)
(-0.0878909 0.0010007 0)
(-0.0975633 0.000923912 0)
(-0.106524 0.000856994 0)
(-0.114824 0.000794104 0)
(-0.122501 0.000731933 0)
(-0.129588 0.000675376 0)
(-0.136103 0.000619466 0)
(-0.14205 0.000561418 0)
(-0.147423 0.000504447 0)
(-0.152208 0.000444008 0)
(-0.156384 0.000382637 0)
(-0.159922 0.000317951 0)
(-0.162795 0.000249352 0)
(-0.164973 0.000177105 0)
(-0.166393 0.000102863 0)
(-0.167085 2.62603e-05 0)
(-0.166982 -5.6239e-05 0)
(-0.165991 -0.000142084 0)
(-0.164122 -0.00023095 0)
(-0.161342 -0.000321991 0)
(-0.157626 -0.000416819 0)
(-0.152953 -0.000512068 0)
(-0.147301 -0.000608088 0)
(-0.140663 -0.000708755 0)
(-0.133036 -0.000804782 0)
(-0.124423 -0.000898773 0)
(-0.114839 -0.00099917 0)
(-0.104313 -0.00108705 0)
(-0.0928808 -0.00118251 0)
(-0.0805923 -0.00125981 0)
(-0.0675092 -0.00132936 0)
(-0.0536962 -0.00140873 0)
(-0.0392277 -0.00146131 0)
(-0.0241429 -0.00150321 0)
(-0.00849807 -0.00155751 0)
(0.00729291 -0.00157588 0)
(0.0231618 -0.00160684 0)
(0.039252 -0.00159997 0)
(0.0552945 -0.00157855 0)
(0.0711462 -0.00156649 0)
(0.0866435 -0.00151471 0)
(0.103255 -0.00144777 0)
(0.128856 0.00527973 0)
(0.112993 0.00538749 0)
(0.0945751 0.00552469 0)
(0.0759252 0.00559285 0)
(0.0572847 0.00549784 0)
(0.0388417 0.00544281 0)
(0.0205643 0.00525059 0)
(0.00304731 0.00508347 0)
(-0.0134596 0.00489846 0)
(-0.0293913 0.00461605 0)
(-0.0445142 0.00437391 0)
(-0.0587362 0.00411055 0)
(-0.0720088 0.00379845 0)
(-0.0843123 0.00352052 0)
(-0.095639 0.00321351 0)
(-0.105997 0.00293715 0)
(-0.115402 0.00266234 0)
(-0.123873 0.00238025 0)
(-0.131442 0.00212083 0)
(-0.138139 0.0018683 0)
(-0.143995 0.00161913 0)
(-0.149045 0.00138584 0)
(-0.153321 0.00116072 0)
(-0.156853 0.000942164 0)
(-0.159673 0.00073288 0)
(-0.161812 0.000528736 0)
(-0.163281 0.000333585 0)
(-0.164071 0.000150792 0)
(-0.164252 -4.48872e-05 0)
(-0.16378 -0.000238423 0)
(-0.162665 -0.000430772 0)
(-0.160897 -0.000628285 0)
(-0.158465 -0.000827688 0)
(-0.155353 -0.00103616 0)
(-0.151537 -0.00124825 0)
(-0.14698 -0.00146864 0)
(-0.141658 -0.00170898 0)
(-0.135547 -0.00194191 0)
(-0.128606 -0.00218656 0)
(-0.120801 -0.00246207 0)
(-0.112109 -0.00271867 0)
(-0.102496 -0.0030177 0)
(-0.0919355 -0.00328353 0)
(-0.0804241 -0.00354493 0)
(-0.0679284 -0.00386749 0)
(-0.0544205 -0.00412243 0)
(-0.0400091 -0.00435925 0)
(-0.0246718 -0.00466456 0)
(-0.0086851 -0.00485446 0)
(0.00780613 -0.00501056 0)
(0.0250148 -0.00522642 0)
(0.0427525 -0.00530747 0)
(0.0608067 -0.00542 0)
(0.0790117 -0.00540936 0)
(0.0971442 -0.00532089 0)
(0.114972 -0.00522987 0)
(0.132299 -0.00503592 0)
(0.14888 -0.0047574 0)
(0.16447 -0.0044505 0)
(0.178848 -0.00404521 0)
(0.1918 -0.00359944 0)
(0.203139 -0.00309517 0)
(0.212693 -0.00252364 0)
(0.220278 -0.00193084 0)
(0.225764 -0.00130035 0)
(0.229017 -0.000617969 0)
(0.229985 2.28966e-05 0)
(0.22871 0.000715142 0)
(0.225053 0.00136193 0)
(0.219276 0.00201249 0)
(0.211345 0.00263572 0)
(0.201339 0.00316494 0)
(0.189626 0.00370106 0)
(0.176211 0.0041577 0)
(0.161383 0.00454245 0)
(0.145501 0.00484906 0)
(0.128514 0.0050844 0)
(0.11095 0.00528035 0)
(0.0929505 0.00538918 0)
(0.0746208 0.00541867 0)
(0.0563354 0.00540078 0)
(0.038261 0.00531568 0)
(0.0205584 0.00519446 0)
(0.00338371 0.00501677 0)
(-0.0131512 0.00482894 0)
(-0.028967 0.0045912 0)
(-0.0440251 0.00431531 0)
(-0.0581542 0.00404384 0)
(-0.071278 0.00376808 0)
(-0.0834717 0.00346571 0)
(-0.0947236 0.00319902 0)
(-0.105013 0.00291766 0)
(-0.114365 0.00263514 0)
(-0.12281 0.00236404 0)
(-0.130343 0.00209204 0)
(-0.136947 0.00184597 0)
(-0.142698 0.00158558 0)
(-0.147633 0.00133736 0)
(-0.151752 0.00110145 0)
(-0.155054 0.000864065 0)
(-0.157596 0.00065685 0)
(-0.159445 0.00044446 0)
(-0.160574 0.000238503 0)
(-0.161068 4.35144e-05 0)
(-0.1609 -0.000164322 0)
(-0.160075 -0.000334352 0)
(-0.158636 -0.000511036 0)
(-0.156549 -0.000704106 0)
(-0.153837 -0.000898771 0)
(-0.150461 -0.00110301 0)
(-0.146399 -0.0013039 0)
(-0.141658 -0.00151712 0)
(-0.136205 -0.00173022 0)
(-0.130025 -0.00195264 0)
(-0.123106 -0.00216276 0)
(-0.11541 -0.00239874 0)
(-0.106969 -0.00262525 0)
(-0.0977581 -0.00286084 0)
(-0.0877349 -0.00309674 0)
(-0.0769595 -0.00332602 0)
(-0.065411 -0.00354755 0)
(-0.0530992 -0.00376623 0)
(-0.0400531 -0.00398536 0)
(-0.0263038 -0.00419011 0)
(-0.0118758 -0.00439729 0)
(0.00319752 -0.00455022 0)
(0.0188261 -0.00471649 0)
(0.0348867 -0.00484008 0)
(0.0513069 -0.00493672 0)
(0.0679694 -0.00496882 0)
(0.0846986 -0.00498351 0)
(0.101345 -0.00491378 0)
(0.117689 -0.00479437 0)
(0.133498 -0.00460671 0)
(0.148565 -0.00434643 0)
(0.162628 -0.00401494 0)
(0.175461 -0.0036013 0)
(0.186783 -0.00312633 0)
(0.196406 -0.0025959 0)
(0.204153 -0.00199922 0)
(0.209818 -0.00137001 0)
(0.213277 -0.000697593 0)
(0.214436 -2.62321e-06 0)
(0.213263 0.000699327 0)
(0.209586 0.00142207 0)
(0.203665 0.0021071 0)
(0.195484 0.00274734 0)
(0.185203 0.00335278 0)
(0.173039 0.00388447 0)
(0.15913 0.00437224 0)
(0.143747 0.00476358 0)
(0.127163 0.00509234 0)
(0.109618 0.00533729 0)
(0.0913906 0.00550745 0)
(0.0727223 0.00559322 0)
(0.0539004 0.00560523 0)
(0.0351783 0.00553639 0)
(0.016757 0.00541953 0)
(-0.0011475 0.00523949 0)
(-0.0183894 0.00502368 0)
(-0.0348352 0.00476945 0)
(-0.050377 0.00448323 0)
(-0.0649575 0.00418722 0)
(-0.0785163 0.00389344 0)
(-0.0910524 0.00357308 0)
(-0.102529 0.00326294 0)
(-0.112969 0.00295407 0)
(-0.122425 0.00266404 0)
(-0.130904 0.00239386 0)
(-0.138458 0.00211695 0)
(-0.145151 0.00186886 0)
(-0.151019 0.00162864 0)
(-0.156115 0.00139282 0)
(-0.160466 0.00117692 0)
(-0.16408 0.000990393 0)
(-0.167021 0.000778338 0)
(-0.169331 0.000595016 0)
(-0.171003 0.00039564 0)
(-0.172049 0.000220436 0)
(-0.172501 6.09311e-05 0)
(-0.172355 -0.000127142 0)
(-0.171639 -0.000301991 0)
(-0.170329 -0.000470953 0)
(-0.168443 -0.000643224 0)
(-0.165993 -0.000811658 0)
(-0.162963 -0.00099242 0)
(-0.159325 -0.00117288 0)
(-0.155077 -0.00135415 0)
(-0.150182 -0.00155403 0)
(-0.144618 -0.00176755 0)
(-0.13835 -0.00197702 0)
(-0.131291 -0.00220519 0)
(-0.123444 -0.00244995 0)
(-0.1148 -0.00270216 0)
(-0.105303 -0.00294804 0)
(-0.0949814 -0.00319076 0)
(-0.0838634 -0.00343784 0)
(-0.0719352 -0.00366095 0)
(-0.0592103 -0.0038908 0)
(-0.0457072 -0.00412826 0)
(-0.0314603 -0.00435125 0)
(-0.0164738 -0.00459179 0)
(-0.000737464 -0.00474442 0)
(0.0155813 -0.00492395 0)
(0.0323236 -0.00504345 0)
(0.0493766 -0.00510444 0)
(0.0665343 -0.00510496 0)
(0.0835441 -0.00500823 0)
(0.100106 -0.00483853 0)
(0.115966 -0.00458279 0)
(0.130866 -0.00425506 0)
(0.144541 -0.00386575 0)
(0.156784 -0.00342501 0)
(0.167458 -0.00291534 0)
(0.176325 -0.0023445 0)
(0.18316 -0.00171536 0)
(0.187789 -0.0010372 0)
(0.190069 -0.000332607 0)
(0.189965 0.000399934 0)
(0.18732 0.00114262 0)
(0.182216 0.00186468 0)
(0.174807 0.00253397 0)
(0.165199 0.00317076 0)
(0.153571 0.00373143 0)
(0.140186 0.00422112 0)
(0.125279 0.0046314 0)
(0.109143 0.00495421 0)
(0.092085 0.00518869 0)
(0.074372 0.00534796 0)
(0.0562728 0.00542324 0)
(0.0380711 0.00540352 0)
(0.020027 0.00532458 0)
(0.00239262 0.00517585 0)
(-0.0146753 0.00499101 0)
(-0.0310631 0.00476709 0)
(-0.0466702 0.00452954 0)
(-0.0614697 0.0042838 0)
(-0.0754069 0.00401894 0)
(-0.0884848 0.00375862 0)
(-0.100702 0.00349841 0)
(-0.112054 0.00326158 0)
(-0.122557 0.00298299 0)
(-0.132175 0.00274723 0)
(-0.140953 0.00248095 0)
(-0.148902 0.00222689 0)
(-0.155958 0.00196886 0)
(-0.162159 0.00172855 0)
(-0.167541 0.00148703 0)
(-0.17212 0.00124936 0)
(-0.175913 0.00101138 0)
(-0.178938 0.000793298 0)
(-0.181229 0.000574211 0)
(-0.182827 0.000373017 0)
(-0.183767 0.000192103 0)
(-0.18411 1.85759e-05 0)
(-0.183853 -0.000149377 0)
(-0.183098 -0.000301164 0)
(-0.181831 -0.000456915 0)
(-0.180066 -0.000595082 0)
(-0.177805 -0.000751846 0)
(-0.174996 -0.000913878 0)
(-0.17163 -0.00108267 0)
(-0.167664 -0.00126524 0)
(-0.163072 -0.00145472 0)
(-0.157814 -0.00166029 0)
(-0.151835 -0.00186565 0)
(-0.145116 -0.00209275 0)
(-0.137644 -0.00232185 0)
(-0.129316 -0.00258471 0)
(-0.120276 -0.00282042 0)
(-0.110309 -0.00305689 0)
(-0.0993943 -0.00334817 0)
(-0.0878104 -0.00360215 0)
(-0.0753092 -0.0038408 0)
(-0.0619031 -0.00409528 0)
(-0.0476502 -0.00436185 0)
(-0.0325744 -0.00459988 0)
(-0.0167088 -0.00482015 0)
(0.000260342 -0.00501087 0)
(0.017939 -0.0052418 0)
(0.035912 -0.00537326 0)
(0.0543249 -0.00548186 0)
(0.0728406 -0.00553175 0)
(0.0913045 -0.00546371 0)
(0.109507 -0.00531191 0)
(0.126909 -0.00508086 0)
(0.143308 -0.00470243 0)
(0.158364 -0.00425359 0)
(0.171667 -0.00367646 0)
(0.182987 -0.00304273 0)
(0.191986 -0.00232967 0)
(0.198441 -0.00151899 0)
(0.202231 -0.000712985 0)
(0.203255 9.62123e-05 0)
(0.201501 0.000953506 0)
(0.196874 0.00173367 0)
(0.189771 0.00248647 0)
(0.18026 0.00317687 0)
(0.168618 0.00371541 0)
(0.155171 0.00425215 0)
(0.140242 0.00459562 0)
(0.124134 0.00492761 0)
(0.107109 0.00515501 0)
(0.0895365 0.00524024 0)
(0.0717065 0.00529837 0)
(0.053799 0.0052911 0)
(0.0361105 0.005165 0)
(0.0189272 0.00500605 0)
(0.00277317 0.0047584 0)
(-0.0124913 0.00455177 0)
(-0.0272013 0.00430888 0)
(-0.0410882 0.00402378 0)
(-0.0540976 0.00376187 0)
(-0.0662225 0.00350103 0)
(-0.0774808 0.0032358 0)
(-0.0879187 0.00300199 0)
(-0.0975891 0.00277164 0)
(-0.106548 0.00257088 0)
(-0.114846 0.00238224 0)
(-0.122523 0.00219577 0)
(-0.12961 0.00202614 0)
(-0.136125 0.00185846 0)
(-0.142072 0.00168437 0)
(-0.147446 0.00151344 0)
(-0.152232 0.0013322 0)
(-0.156408 0.00114814 0)
(-0.159948 0.00095386 0)
(-0.162822 0.000748039 0)
(-0.165001 0.000531425 0)
(-0.166426 0.00030864 0)
(-0.167117 7.98247e-05 0)
(-0.167016 -0.000168462 0)
(-0.166026 -0.0004261 0)
(-0.164158 -0.000692714 0)
(-0.161379 -0.000965873 0)
(-0.157664 -0.00125042 0)
(-0.152992 -0.00153615 0)
(-0.147341 -0.00182422 0)
(-0.140703 -0.00212631 0)
(-0.133076 -0.00241435 0)
(-0.124462 -0.00269638 0)
(-0.114877 -0.00299762 0)
(-0.104349 -0.00326129 0)
(-0.0929157 -0.00354773 0)
(-0.0806246 -0.00377969 0)
(-0.0675384 -0.00398837 0)
(-0.0537226 -0.00422651 0)
(-0.0392504 -0.00438432 0)
(-0.0241615 -0.00451008 0)
(-0.00851233 -0.00467317 0)
(0.00728366 -0.00472799 0)
(0.0231575 -0.00482102 0)
(0.0392533 -0.00480048 0)
(0.0553016 -0.00473623 0)
(0.0711597 -0.00470009 0)
(0.0866632 -0.00454477 0)
(0.103282 -0.00434395 0)
(0.12891 0.00880289 0)
(0.113028 0.00898228 0)
(0.0945921 0.00921082 0)
(0.0759246 0.00932425 0)
(0.0572684 0.00916554 0)
(0.0388109 0.00907358 0)
(0.0205202 0.00875244 0)
(0.00299292 0.00847442 0)
(-0.0135203 0.00816526 0)
(-0.0294581 0.00769428 0)
(-0.0445863 0.00729046 0)
(-0.0588119 0.00685129 0)
(-0.0720851 0.00633089 0)
(-0.0843895 0.00586748 0)
(-0.0957149 0.00535568 0)
(-0.106072 0.00489501 0)
(-0.115475 0.00443692 0)
(-0.123944 0.0039667 0)
(-0.131511 0.0035343 0)
(-0.138205 0.0031134 0)
(-0.144059 0.00269812 0)
(-0.149106 0.00230932 0)
(-0.153379 0.00193414 0)
(-0.156909 0.00156997 0)
(-0.159727 0.00122132 0)
(-0.161862 0.000881464 0)
(-0.163331 0.00055591 0)
(-0.164125 0.000248978 0)
(-0.164302 -7.49034e-05 0)
(-0.163831 -0.000397418 0)
(-0.162716 -0.000717811 0)
(-0.160949 -0.00104666 0)
(-0.158519 -0.00137925 0)
(-0.155409 -0.00172663 0)
(-0.151595 -0.00208006 0)
(-0.14704 -0.00244729 0)
(-0.14172 -0.00284754 0)
(-0.135612 -0.00323634 0)
(-0.128674 -0.00364398 0)
(-0.120872 -0.00410296 0)
(-0.11218 -0.00453075 0)
(-0.10257 -0.00502931 0)
(-0.0920102 -0.0054725 0)
(-0.0804984 -0.00590837 0)
(-0.0680034 -0.00644605 0)
(-0.0544931 -0.00687104 0)
(-0.0400778 -0.00726593 0)
(-0.0247342 -0.00777394 0)
(-0.00873965 -0.00809328 0)
(0.00775895 -0.00835286 0)
(0.0249788 -0.0087128 0)
(0.0427289 -0.00884805 0)
(0.0607983 -0.00903605 0)
(0.079019 -0.00901757 0)
(0.0971669 -0.00887193 0)
(0.115014 -0.00871932 0)
(0.132357 -0.00839804 0)
(0.148958 -0.00792991 0)
(0.164565 -0.00742363 0)
(0.178962 -0.00674122 0)
(0.191925 -0.00600474 0)
(0.203279 -0.00516465 0)
(0.212847 -0.0042075 0)
(0.220439 -0.00322248 0)
(0.225935 -0.00217151 0)
(0.229197 -0.00102889 0)
(0.230169 3.59471e-05 0)
(0.228868 0.00119262 0)
(0.225218 0.00227085 0)
(0.219439 0.00335388 0)
(0.211495 0.0043946 0)
(0.201479 0.00527682 0)
(0.189754 0.00617247 0)
(0.17632 0.00693133 0)
(0.161472 0.0075745 0)
(0.145569 0.00808606 0)
(0.128566 0.00847705 0)
(0.110984 0.0088064 0)
(0.0929668 0.00898578 0)
(0.0746146 0.00903404 0)
(0.0563099 0.00900448 0)
(0.0382292 0.00886547 0)
(0.0205026 0.00865784 0)
(0.00332758 0.0083627 0)
(-0.0132124 0.0080577 0)
(-0.0290605 0.00764594 0)
(-0.0441155 0.00719069 0)
(-0.058238 0.00674948 0)
(-0.0713837 0.0062832 0)
(-0.0835781 0.00577514 0)
(-0.094832 0.00533179 0)
(-0.105137 0.00485766 0)
(-0.114498 0.00439125 0)
(-0.122951 0.00393732 0)
(-0.130484 0.00349351 0)
(-0.137098 0.00308862 0)
(-0.14287 0.00264161 0)
(-0.147811 0.00222308 0)
(-0.151928 0.00183897 0)
(-0.155229 0.00145453 0)
(-0.157779 0.001089 0)
(-0.159627 0.000740742 0)
(-0.160763 0.000398498 0)
(-0.161256 7.54728e-05 0)
(-0.161088 -0.000268592 0)
(-0.160261 -0.000561372 0)
(-0.158825 -0.000852255 0)
(-0.156746 -0.00117457 0)
(-0.154032 -0.00149887 0)
(-0.15066 -0.00184337 0)
(-0.146591 -0.0021768 0)
(-0.141842 -0.00251755 0)
(-0.136391 -0.00288023 0)
(-0.130214 -0.00325511 0)
(-0.123306 -0.00361208 0)
(-0.11561 -0.00400337 0)
(-0.107159 -0.00437988 0)
(-0.0979404 -0.00475219 0)
(-0.0879198 -0.00515028 0)
(-0.0771478 -0.00553959 0)
(-0.0656048 -0.00591303 0)
(-0.0532933 -0.00628325 0)
(-0.0402377 -0.00665349 0)
(-0.0264789 -0.00698634 0)
(-0.0120496 -0.00732615 0)
(0.0030223 -0.00759333 0)
(0.0186618 -0.00785935 0)
(0.0347298 -0.00806265 0)
(0.0511605 -0.00822299 0)
(0.0678319 -0.00828571 0)
(0.0845838 -0.00831109 0)
(0.101249 -0.00818577 0)
(0.117599 -0.00800727 0)
(0.133436 -0.00766555 0)
(0.148511 -0.00724891 0)
(0.162598 -0.00668876 0)
(0.175441 -0.00601124 0)
(0.186783 -0.00522094 0)
(0.196425 -0.00432576 0)
(0.204175 -0.00333535 0)
(0.209853 -0.00227724 0)
(0.213329 -0.00115721 0)
(0.214493 -3.40779e-06 0)
(0.213294 0.00116905 0)
(0.209632 0.00236979 0)
(0.203707 0.00352212 0)
(0.19551 0.00457318 0)
(0.185221 0.00558952 0)
(0.173032 0.00648255 0)
(0.1591 0.00728298 0)
(0.143703 0.00794893 0)
(0.127093 0.00849116 0)
(0.109525 0.00890536 0)
(0.0912793 0.00918355 0)
(0.0725911 0.00932443 0)
(0.0537513 0.0093371 0)
(0.0350141 0.00923463 0)
(0.0165766 0.00903796 0)
(-0.00133906 0.00873411 0)
(-0.0185934 0.00837857 0)
(-0.0350533 0.00795087 0)
(-0.050602 0.00746618 0)
(-0.0651803 0.0069793 0)
(-0.0787485 0.00649615 0)
(-0.0912858 0.00595234 0)
(-0.102762 0.00544461 0)
(-0.113205 0.00492247 0)
(-0.122659 0.00444048 0)
(-0.131134 0.00398303 0)
(-0.138681 0.0035303 0)
(-0.14537 0.00311532 0)
(-0.151234 0.00271267 0)
(-0.156324 0.00232772 0)
(-0.160671 0.00196726 0)
(-0.164287 0.00165021 0)
(-0.167233 0.00129335 0)
(-0.169541 0.000985809 0)
(-0.171206 0.000663501 0)
(-0.172247 0.000379049 0)
(-0.172701 9.14541e-05 0)
(-0.172554 -0.000215275 0)
(-0.17183 -0.000491723 0)
(-0.170528 -0.000791164 0)
(-0.168636 -0.00107739 0)
(-0.166185 -0.00135023 0)
(-0.163157 -0.00165564 0)
(-0.159523 -0.0019528 0)
(-0.155276 -0.00225409 0)
(-0.150381 -0.00258999 0)
(-0.144812 -0.00294513 0)
(-0.138542 -0.00330155 0)
(-0.13149 -0.00367244 0)
(-0.123649 -0.00408305 0)
(-0.115004 -0.0044962 0)
(-0.105506 -0.00490569 0)
(-0.095188 -0.00531595 0)
(-0.0840688 -0.00572532 0)
(-0.072144 -0.00610624 0)
(-0.0594194 -0.0064942 0)
(-0.0459052 -0.00688435 0)
(-0.0316576 -0.00725121 0)
(-0.0166616 -0.00764536 0)
(-0.000915514 -0.0079138 0)
(0.0154034 -0.00820713 0)
(0.0321615 -0.00840975 0)
(0.0492366 -0.00851055 0)
(0.066418 -0.00849896 0)
(0.0834378 -0.00835234 0)
(0.100022 -0.00806175 0)
(0.115904 -0.00764532 0)
(0.13082 -0.00709356 0)
(0.14451 -0.00645353 0)
(0.156779 -0.00570618 0)
(0.167468 -0.00485813 0)
(0.176348 -0.00391334 0)
(0.183199 -0.0028603 0)
(0.187837 -0.00173142 0)
(0.190135 -0.000550059 0)
(0.190024 0.000663107 0)
(0.187367 0.00191305 0)
(0.182267 0.00310557 0)
(0.174848 0.0042357 0)
(0.165222 0.00528061 0)
(0.153577 0.00623139 0)
(0.140169 0.00703203 0)
(0.125241 0.0077234 0)
(0.109079 0.00826317 0)
(0.091996 0.00864947 0)
(0.0742651 0.00891696 0)
(0.0561489 0.00904059 0)
(0.0379287 0.0090111 0)
(0.0198646 0.00887956 0)
(0.00221313 0.00862512 0)
(-0.0148648 0.00831961 0)
(-0.0312589 0.00795309 0)
(-0.046877 0.00755107 0)
(-0.0616781 0.00713729 0)
(-0.0756127 0.00670148 0)
(-0.0886922 0.00626439 0)
(-0.100913 0.0058327 0)
(-0.112275 0.00542627 0)
(-0.12277 0.00497843 0)
(-0.132395 0.00459261 0)
(-0.141179 0.0041229 0)
(-0.149118 0.00371066 0)
(-0.15617 0.00328811 0)
(-0.162363 0.00288021 0)
(-0.167745 0.0024797 0)
(-0.172326 0.00208395 0)
(-0.176121 0.00169124 0)
(-0.179152 0.00131926 0)
(-0.181438 0.000962712 0)
(-0.183047 0.000627693 0)
(-0.183991 0.000308288 0)
(-0.184319 2.81008e-05 0)
(-0.184051 -0.000251957 0)
(-0.18329 -0.000489151 0)
(-0.182018 -0.000750376 0)
(-0.180259 -0.000994412 0)
(-0.177997 -0.00125273 0)
(-0.175182 -0.0015268 0)
(-0.171803 -0.00180448 0)
(-0.167831 -0.00210922 0)
(-0.163236 -0.00243585 0)
(-0.157968 -0.0027728 0)
(-0.151979 -0.00310697 0)
(-0.145246 -0.00348134 0)
(-0.137774 -0.00387486 0)
(-0.129432 -0.00431087 0)
(-0.120382 -0.00469991 0)
(-0.110416 -0.00509592 0)
(-0.0994972 -0.00558284 0)
(-0.0878962 -0.00600353 0)
(-0.0753974 -0.00640525 0)
(-0.0619914 -0.00682265 0)
(-0.0477357 -0.00727402 0)
(-0.0326446 -0.00766542 0)
(-0.0167807 -0.00803808 0)
(0.000196419 -0.00834729 0)
(0.0178764 -0.00874014 0)
(0.0358679 -0.00895995 0)
(0.0542972 -0.00913725 0)
(0.0728337 -0.00922464 0)
(0.0913248 -0.00911373 0)
(0.109552 -0.00885738 0)
(0.126984 -0.00847534 0)
(0.143417 -0.00784056 0)
(0.1585 -0.00709115 0)
(0.171826 -0.00613787 0)
(0.183165 -0.00507804 0)
(0.19219 -0.00388603 0)
(0.198658 -0.00253067 0)
(0.202448 -0.00119883 0)
(0.203484 0.000161972 0)
(0.201694 0.00159355 0)
(0.197073 0.00289325 0)
(0.189956 0.00413705 0)
(0.180424 0.00531492 0)
(0.168763 0.00620456 0)
(0.15529 0.00709208 0)
(0.140334 0.00766435 0)
(0.124201 0.00821665 0)
(0.107152 0.00859571 0)
(0.0895579 0.00873725 0)
(0.0717073 0.00883356 0)
(0.0537822 0.00882102 0)
(0.0360749 0.00860939 0)
(0.0188741 0.0083474 0)
(0.00271453 0.00793152 0)
(-0.0125546 0.00758758 0)
(-0.0272709 0.0071822 0)
(-0.0411597 0.00670649 0)
(-0.0541691 0.00626956 0)
(-0.0662919 0.00583461 0)
(-0.0775461 0.00539241 0)
(-0.0879799 0.00500265 0)
(-0.0976455 0.00461878 0)
(-0.106601 0.00428424 0)
(-0.114896 0.00396997 0)
(-0.122569 0.00365933 0)
(-0.129655 0.00337678 0)
(-0.13617 0.00309747 0)
(-0.142117 0.00280749 0)
(-0.147492 0.00252272 0)
(-0.15228 0.00222072 0)
(-0.156458 0.00191399 0)
(-0.160001 0.00159024 0)
(-0.162876 0.00124732 0)
(-0.165057 0.000887047 0)
(-0.16649 0.00051478 0)
(-0.167182 0.00013299 0)
(-0.167082 -0.000280565 0)
(-0.166095 -0.000709823 0)
(-0.16423 -0.00115419 0)
(-0.161453 -0.00160951 0)
(-0.15774 -0.00208382 0)
(-0.153069 -0.00256006 0)
(-0.147418 -0.00304027 0)
(-0.140781 -0.00354392 0)
(-0.133153 -0.00402404 0)
(-0.124538 -0.00449422 0)
(-0.114952 -0.00499645 0)
(-0.10442 -0.00543604 0)
(-0.0929839 -0.0059136 0)
(-0.0806875 -0.00630033 0)
(-0.0675952 -0.00664824 0)
(-0.0537739 -0.00704535 0)
(-0.039294 -0.00730847 0)
(-0.0241971 -0.00751825 0)
(-0.00853929 -0.00779049 0)
(0.00726664 -0.00788138 0)
(0.0231502 -0.00803677 0)
(0.0392571 -0.00800267 0)
(0.0553169 -0.00789565 0)
(0.0711878 -0.00783554 0)
(0.0867037 -0.00757672 0)
(0.103337 -0.00724204 0)
(0.12899 0.0123311 0)
(0.113081 0.0125818 0)
(0.0946176 0.0129015 0)
(0.0759236 0.0130599 0)
(0.0572438 0.0128369 0)
(0.0387646 0.0127077 0)
(0.020454 0.0122565 0)
(0.00291129 0.0118682 0)
(-0.0136116 0.0114338 0)
(-0.0295584 0.0107738 0)
(-0.0446946 0.010208 0)
(-0.0589255 0.0095926 0)
(-0.0721995 0.00886354 0)
(-0.0845054 0.00821442 0)
(-0.0958287 0.00749758 0)
(-0.106185 0.00685249 0)
(-0.115586 0.00621103 0)
(-0.124051 0.00555258 0)
(-0.131614 0.00494715 0)
(-0.138305 0.00435785 0)
(-0.144154 0.00377648 0)
(-0.149197 0.00323217 0)
(-0.153467 0.00270699 0)
(-0.156994 0.00219737 0)
(-0.159808 0.00170974 0)
(-0.161938 0.00123497 0)
(-0.163405 0.000779737 0)
(-0.164207 0.000343689 0)
(-0.164378 -0.000106503 0)
(-0.163908 -0.000556475 0)
(-0.162793 -0.00100463 0)
(-0.161028 -0.00146443 0)
(-0.158599 -0.00193045 0)
(-0.155492 -0.00241671 0)
(-0.151681 -0.00291134 0)
(-0.147131 -0.00342529 0)
(-0.141814 -0.00398473 0)
(-0.135709 -0.00453099 0)
(-0.128775 -0.00510087 0)
(-0.120977 -0.00574335 0)
(-0.112288 -0.00634228 0)
(-0.102681 -0.00704044 0)
(-0.0921223 -0.00766111 0)
(-0.08061 -0.00827209 0)
(-0.0681161 -0.00902492 0)
(-0.0546021 -0.00962009 0)
(-0.0401811 -0.0101737 0)
(-0.0248282 -0.0108833 0)
(-0.00882196 -0.011336 0)
(0.00768811 -0.0116978 0)
(0.0249247 -0.0122022 0)
(0.0426933 -0.0123921 0)
(0.0607856 -0.0126559 0)
(0.0790294 -0.0126314 0)
(0.097202 -0.0124263 0)
(0.115076 -0.0122137 0)
(0.132445 -0.011764 0)
(0.149074 -0.0111104 0)
(0.164709 -0.0104012 0)
(0.179132 -0.00944645 0)
(0.192117 -0.00841272 0)
(0.20349 -0.00723655 0)
(0.213077 -0.00589544 0)
(0.220683 -0.00451512 0)
(0.226192 -0.00304658 0)
(0.229463 -0.00145086 0)
(0.230426 5.58696e-05 0)
(0.229105 0.00167338 0)
(0.225469 0.00318008 0)
(0.219684 0.00469581 0)
(0.211718 0.00615513 0)