/*--------------------------------*- C++ -*----------------------------------*\
| =========                 |                                                 |
| \\      /  F ield         | OpenFOAM: The Open Source CFD Toolbox           |
|  \\    /   O peration     | Version:  3.0.1                                 |
|   \\  /    A nd           | Web:      www.OpenFOAM.org                      |
|    \\/     M anipulation  |                                                 |
\*---------------------------------------------------------------------------*/
FoamFile
{
    version     2.0;
    format      ascii;
    class       volScalarField;
    location    "47.4";
    object      p;
}
// * * * * * * * * * * * * * * * * * * * * * * * * * * * * * * * * * * * * * //

dimensions      [1 -1 -2 0 0 0 0];

internalField   nonuniform List<scalar> 
21420
(
3616.88
3633.42
3651.81
3672.02
3694.04
3717.84
3743.39
3770.61
3799.39
3829.61
3861.08
3893.52
3926.89
3960.83
3995.01
4029.04
4062.53
4095.11
4126.36
4155.87
4183.24
4208.07
4229.98
4248.63
4263.75
4275.09
4282.47
4285.72
4284.35
4278.84
4269.37
4256.01
4238.97
4218.54
4194.99
4168.67
4139.98
4109.3
4077.04
4043.65
4009.53
3975.07
3940.64
3906.7
3874.75
3842.77
3811.84
3782.24
3754.15
3727.7
3702.98
3680.04
3658.91
3639.59
3622.07
3606.32
3592.3
3579.99
3569.32
3560.26
3552.75
3546.78
3542.29
3539.26
3537.68
3537.59
3538.94
3541.78
3546.12
3551.99
3559.46
3568.56
3579.32
3591.81
3606.07
3622.11
3639.94
3659.54
3680.89
3703.96
3728.68
3754.95
3782.68
3811.76
3842.04
3873.38
3905.66
3938.42
3971.49
4004.59
4037.39
4069.55
4100.68
4130.39
4158.31
4184.05
4207.26
4227.6
4244.79
4258.57
4268.73
4275.12
4277.58
4276.18
4270.82
4261.58
4248.55
4231.89
4211.81
4188.56
4162.45
4133.83
4103.09
4070.67
4036.98
4002.49
3967.63
3932.84
3898.51
3864.96
3832.52
3801.44
3771.94
3744.16
3718.23
3694.21
3672.15
3652.06
3633.93
3617.73
3603.42
3590.96
3580.28
3571.33
3564.04
3558.35
3554.17
3551.46
3550.18
3550.25
3551.62
3554.27
3558.18
3563.35
3569.76
3577.42
3586.37
3596.62
3608.2
3621.16
3635.54
3651.38
3668.73
3687.6
3708.02
3729.99
3753.5
3778.51
3804.93
3832.69
3861.66
3891.67
3922.61
3954.07
3985.87
4017.72
4049.27
4080.18
4110.06
4138.52
4165.17
4189.61
4211.45
4230.32
4245.88
4257.86
4265.99
4270.09
4270.07
4265.89
4257.63
4245.35
4229.28
4209.68
4186.88
4161.25
4133.21
4103.2
4071.69
4039.14
4006.01
3972.71
3939.66
3907.2
3875.66
3845.31
3816.37
3789
3763.33
3739.45
3717.38
3697.15
3678.72
3662.07
3647.15
3633.88
3622.18
3611.99
3603.2
3595.73
3589.49
3584.42
3580.46
3577.54
3575.65
3574.8
3574.95
3576.13
3578.36
3581.68
3586.12
3591.73
3598.55
3606.62
3615.98
3626.69
3638.77
3652.27
3667.23
3683.68
3701.65
3721.15
3742.18
3764.71
3788.71
3814.11
3840.8
3868.66
3897.55
3927.27
3957.56
3988.18
4018.83
4049.18
4078.87
4107.54
4134.81
4160.3
4183.65
4204.48
4222.47
4237.33
4248.8
4256.66
4260.76
4261.04
4257.49
4250.22
4239.33
4225.05
4207.64
4187.43
4164.73
4139.93
4113.38
4085.47
4056.55
4027.02
3997.2
3967.45
3938.71
3910.09
3882.37
3855.72
3830.29
3806.17
3783.42
3762.07
3742.14
3723.62
3706.48
3690.72
3676.29
3663.15
3651.28
3640.65
3631.23
3623.03
3616.02
3610.22
3605.61
3602.2
3600.02
3599.12
3599.23
3600.42
3602.77
3606.33
3611.14
3617.28
3624.81
3633.81
3644.32
3656.37
3669.97
3685.15
3701.91
3720.26
3740.18
3761.65
3784.64
3809.09
3834.92
3862.06
3890.5
3919.91
3950.1
3980.8
4011.8
4042.85
4073.64
4103.83
4133.11
4161.12
4187.5
4211.91
4233.99
4253.46
4270.02
4283.43
4293.48
4300.03
4302.95
4302.16
4297.69
4289.63
4278.03
4263.08
4244.99
4224
4200.39
4174.49
4146.66
4117.24
4086.61
4055.12
4023.16
3991.06
3959.19
3927.95
3898.12
3870
3841.97
3815.09
3789.65
3765.72
3743.38
3518.71
3535.25
3553.63
3573.84
3595.86
3619.66
3645.21
3672.43
3701.21
3731.44
3762.92
3795.37
3828.74
3862.7
3896.89
3930.93
3964.44
3997.03
4028.31
4057.83
4085.22
4110.07
4131.99
4150.66
4165.79
4177.14
4184.53
4187.79
4186.41
4180.9
4171.42
4158.04
4140.99
4120.55
4096.98
4070.64
4041.93
4011.24
3978.96
3945.56
3911.42
3876.94
3842.49
3808.55
3776.59
3744.59
3713.66
3684.06
3655.97
3629.52
3604.8
3581.86
3560.73
3541.41
3523.89
3508.14
3494.13
3481.82
3471.15
3462.09
3454.59
3448.62
3444.14
3441.1
3439.53
3439.43
3440.78
3443.62
3447.96
3453.83
3461.29
3470.39
3481.15
3493.64
3507.9
3523.93
3541.76
3561.36
3582.72
3605.78
3630.5
3656.77
3684.51
3713.59
3743.88
3775.22
3807.51
3840.29
3873.37
3906.48
3939.29
3971.46
4002.61
4032.34
4060.27
4086.03
4109.26
4129.62
4146.82
4160.61
4170.77
4177.17
4179.64
4178.22
4172.86
4163.62
4150.58
4133.91
4113.82
4090.55
4064.42
4035.79
4005.03
3972.58
3938.88
3904.37
3869.5
3834.69
3800.35
3766.79
3734.34
3703.26
3673.75
3645.97
3620.04
3596.02
3573.96
3553.87
3535.74
3519.55
3505.24
3492.78
3482.11
3473.16
3465.87
3460.18
3456.01
3453.3
3452.03
3452.1
3453.47
3456.12
3460.03
3465.19
3471.6
3479.27
3488.21
3498.46
3510.04
3523
3537.38
3553.22
3570.56
3589.43
3609.85
3631.82
3655.33
3680.33
3706.76
3734.53
3763.5
3793.51
3824.46
3855.93
3887.75
3919.6
3951.17
3982.09
4011.99
4040.48
4067.14
4091.6
4113.45
4132.34
4147.92
4159.9
4168.05
4172.15
4172.13
4167.95
4159.68
4147.39
4131.31
4111.69
4088.87
4063.22
4035.16
4005.14
3973.61
3941.04
3907.88
3874.57
3841.51
3809.04
3777.49
3747.14
3718.19
3690.82
3665.15
3641.26
3619.2
3598.97
3580.55
3563.9
3548.98
3535.71
3524.02
3513.83
3505.04
3497.57
3491.34
3486.28
3482.31
3479.39
3477.51
3476.66
3476.81
3477.98
3480.21
3483.53
3487.97
3493.58
3500.4
3508.46
3517.83
3528.53
3540.61
3554.11
3569.06
3585.52
3603.48
3622.98
3644.01
3666.54
3690.54
3715.94
3742.64
3770.51
3799.39
3829.12
3859.43
3890.06
3920.72
3951.08
3980.79
4009.48
4036.76
4062.27
4085.63
4106.48
4124.49
4139.36
4150.83
4158.71
4162.81
4163.08
4159.53
4152.26
4141.36
4127.06
4109.64
4089.41
4066.7
4041.88
4015.32
3987.38
3958.46
3928.91
3899.08
3869.31
3840.56
3811.94
3784.21
3757.56
3732.13
3708
3685.25
3663.91
3643.98
3625.46
3608.33
3592.56
3578.13
3565
3553.13
3542.5
3533.09
3524.88
3517.87
3512.07
3507.46
3504.05
3501.87
3500.97
3501.07
3502.27
3504.62
3508.17
3512.98
3519.12
3526.65
3535.65
3546.16
3558.21
3571.81
3586.98
3603.75
3622.09
3642.01
3663.48
3686.47
3710.93
3736.76
3763.9
3792.34
3821.76
3851.96
3882.67
3913.68
3944.74
3975.54
4005.75
4035.04
4063.07
4089.47
4113.89
4135.99
4155.46
4172.04
4185.45
4195.52
4202.07
4205
4204.2
4199.73
4191.66
4180.06
4165.1
4146.99
4125.99
4102.36
4076.45
4048.6
4019.17
3988.52
3957.02
3925.04
3892.93
3861.05
3829.8
3799.97
3771.84
3743.8
3716.92
3691.47
3667.54
3645.2
3420.46
3436.99
3455.37
3475.58
3497.59
3521.4
3546.95
3574.17
3602.96
3633.19
3664.69
3697.15
3730.55
3764.52
3798.74
3832.82
3866.35
3898.99
3930.3
3959.85
3987.28
4012.17
4034.13
4052.83
4067.98
4079.35
4086.75
4090.05
4088.62
4083.1
4073.61
4060.22
4043.14
4022.66
3999.07
3972.69
3943.94
3913.21
3880.9
3847.46
3813.29
3778.78
3744.31
3710.34
3678.36
3646.35
3615.41
3585.8
3557.7
3531.25
3506.54
3483.6
3462.47
3443.15
3425.64
3409.9
3395.89
3383.58
3372.92
3363.87
3356.37
3350.4
3345.92
3342.88
3341.32
3341.22
3342.57
3345.4
3349.74
3355.6
3363.06
3372.15
3382.91
3395.4
3409.65
3425.68
3443.5
3463.1
3484.46
3507.53
3532.25
3558.53
3586.27
3615.36
3645.65
3677.01
3709.31
3742.11
3775.21
3808.34
3841.19
3873.39
3904.57
3934.34
3962.31
3988.1
4011.36
4031.75
4048.97
4062.78
4072.97
4079.37
4081.86
4080.42
4075.06
4065.81
4052.75
4036.06
4015.94
3992.64
3966.48
3937.8
3907.01
3874.52
3840.78
3806.24
3771.33
3736.49
3702.13
3668.55
3636.09
3604.99
3575.48
3547.69
3521.76
3497.74
3475.69
3455.6
3437.48
3421.29
3406.99
3394.53
3383.87
3374.92
3367.64
3361.96
3357.79
3355.09
3353.82
3353.89
3355.26
3357.92
3361.83
3366.99
3373.4
3381.06
3390.01
3400.25
3411.82
3424.78
3439.15
3454.99
3472.32
3491.19
3511.6
3533.58
3557.09
3582.09
3608.53
3636.3
3665.27
3695.3
3726.27
3757.76
3789.59
3821.48
3853.08
3884.03
3913.96
3942.48
3969.18
3993.67
4015.56
4034.48
4050.09
4062.1
4070.26
4074.38
4074.35
4070.16
4061.88
4049.58
4033.47
4013.82
3990.96
3965.27
3937.17
3907.1
3875.54
3842.93
3809.74
3776.4
3743.31
3710.82
3679.26
3648.89
3619.93
3592.55
3566.88
3543
3520.94
3500.71
3482.29
3465.65
3450.74
3437.48
3425.8
3415.61
3406.83
3399.37
3393.15
3388.08
3384.13
3381.21
3379.33
3378.48
3378.63
3379.8
3382.03
3385.34
3389.78
3395.38
3402.19
3410.25
3419.61
3430.31
3442.38
3455.88
3470.83
3487.28
3505.25
3524.74
3545.77
3568.3
3592.31
3617.71
3644.41
3672.29
3701.19
3730.93
3761.26
3791.91
3822.6
3852.99
3882.73
3911.45
3938.77
3964.31
3987.7
4008.58
4026.62
4041.52
4053.01
4060.9
4065.02
4065.27
4061.72
4054.43
4043.51
4029.19
4011.74
3991.48
3968.73
3943.88
3917.28
3889.32
3860.36
3830.79
3800.93
3771.15
3742.37
3713.73
3686
3659.34
3633.9
3609.78
3587.03
3565.68
3545.75
3527.24
3510.11
3494.35
3479.93
3466.8
3454.93
3444.3
3434.89
3426.68
3419.68
3413.87
3409.26
3405.85
3403.68
3402.78
3402.87
3404.06
3406.41
3409.96
3414.77
3420.91
3428.43
3437.43
3447.93
3459.98
3473.57
3488.74
3505.51
3523.85
3543.77
3565.24
3588.23
3612.69
3638.53
3665.67
3694.13
3723.56
3753.77
3784.5
3815.53
3846.62
3877.44
3907.68
3937
3965.06
3991.49
4015.94
4038.07
4057.57
4074.17
4087.61
4097.69
4104.25
4107.2
4106.38
4101.9
4093.83
4082.21
4067.23
4049.1
4028.07
4004.41
3978.47
3950.58
3921.12
3890.44
3858.91
3826.9
3794.77
3762.87
3731.6
3701.76
3673.61
3645.56
3618.67
3593.22
3569.29
3546.94
3322.14
3338.66
3357.04
3377.24
3399.25
3423.05
3448.61
3475.83
3504.63
3534.88
3566.39
3598.88
3632.3
3666.31
3700.57
3734.69
3768.28
3800.96
3832.33
3861.94
3889.43
3914.37
3936.38
3955.12
3970.31
3981.71
3989.13
3992.46
3991
3985.47
3975.95
3962.53
3945.41
3924.89
3901.24
3874.81
3846.01
3815.22
3782.85
3749.36
3715.14
3680.59
3646.08
3612.09
3580.07
3548.04
3517.08
3487.46
3459.36
3432.91
3408.19
3385.25
3364.13
3344.82
3327.31
3311.58
3297.58
3285.28
3274.63
3265.58
3258.09
3252.12
3247.64
3244.61
3243.05
3242.95
3244.29
3247.12
3251.46
3257.31
3264.77
3273.85
3284.6
3297.08
3311.32
3327.35
3345.17
3364.77
3386.13
3409.2
3433.92
3460.2
3487.96
3517.06
3547.37
3578.74
3611.07
3643.89
3677.03
3710.2
3743.09
3775.33
3806.56
3836.38
3864.4
3890.25
3913.56
3933.99
3951.25
3965.09
3975.3
3981.73
3984.23
3982.77
3977.41
3968.14
3955.06
3938.33
3918.17
3894.82
3868.61
3839.88
3809.03
3776.48
3742.69
3708.09
3673.14
3638.25
3603.86
3570.25
3537.76
3506.64
3477.12
3449.33
3423.39
3399.38
3377.33
3357.25
3339.13
3322.95
3308.66
3296.21
3285.55
3276.62
3269.35
3263.67
3259.51
3256.82
3255.56
3255.63
3257.01
3259.66
3263.58
3268.74
3275.15
3282.81
3291.74
3301.98
3313.55
3326.5
3340.86
3356.69
3374.02
3392.88
3413.29
3435.26
3458.77
3483.78
3510.22
3538
3566.99
3597.04
3628.03
3659.55
3691.42
3723.34
3754.98
3785.98
3815.97
3844.54
3871.29
3895.84
3917.78
3936.75
3952.4
3964.44
3972.63
3976.78
3976.73
3972.54
3964.24
3951.9
3935.75
3916.05
3893.14
3867.39
3839.23
3809.11
3777.48
3744.82
3711.58
3678.19
3645.06
3612.54
3580.95
3550.56
3521.59
3494.21
3468.53
3444.65
3422.59
3402.37
3383.96
3367.33
3352.43
3339.18
3327.51
3317.34
3308.57
3301.12
3294.91
3289.85
3285.9
3282.99
3281.11
3280.26
3280.4
3281.57
3283.79
3287.1
3291.53
3297.13
3303.94
3311.99
3321.35
3332.04
3344.1
3357.59
3372.54
3388.98
3406.94
3426.43
3447.46
3470
3494
3519.41
3546.12
3574.02
3602.94
3632.7
3663.06
3693.75
3724.47
3754.9
3784.69
3813.46
3840.83
3866.42
3889.86
3910.79
3928.87
3943.8
3955.33
3963.23
3967.37
3967.62
3964.06
3956.75
3945.79
3931.43
3913.94
3893.63
3870.84
3845.93
3819.29
3791.28
3762.28
3732.66
3702.77
3672.96
3644.13
3615.47
3587.72
3561.06
3535.61
3511.48
3488.74
3467.39
3447.47
3428.96
3411.84
3396.09
3381.67
3368.54
3356.68
3346.06
3336.65
3328.44
3321.44
3315.63
3311.02
3307.61
3305.43
3304.53
3304.62
3305.81
3308.15
3311.7
3316.49
3322.63
3330.15
3339.14
3349.64
3361.68
3375.28
3390.44
3407.2
3425.54
3445.46
3466.93
3489.93
3514.39
3540.23
3567.39
3595.85
3625.31
3655.54
3686.3
3717.36
3748.48
3779.35
3809.63
3838.99
3867.09
3893.57
3918.07
3940.25
3959.79
3976.42
3989.89
4000
4006.58
4009.54
4008.71
4004.22
3996.14
3984.49
3969.48
3951.31
3930.23
3906.53
3880.54
3852.61
3823.1
3792.37
3760.8
3728.75
3696.59
3664.65
3633.35
3603.51
3575.32
3547.25
3520.35
3494.89
3470.96
3448.61
3223.74
3240.26
3258.62
3278.82
3300.82
3324.62
3350.18
3377.42
3406.23
3436.49
3468.03
3500.55
3534.01
3568.07
3602.38
3636.56
3670.21
3702.97
3734.41
3764.09
3791.65
3816.67
3838.74
3857.55
3872.79
3884.22
3891.67
3895.02
3893.56
3888
3878.44
3864.97
3847.81
3827.22
3803.51
3777.01
3748.13
3717.26
3684.83
3651.26
3616.98
3582.37
3547.81
3513.79
3481.71
3449.66
3418.68
3389.04
3360.93
3334.47
3309.75
3286.82
3265.71
3246.4
3228.91
3213.18
3199.2
3186.91
3176.26
3167.23
3159.74
3153.78
3149.31
3146.29
3144.73
3144.62
3145.96
3148.79
3153.11
3158.96
3166.4
3175.48
3186.22
3198.68
3212.92
3228.94
3246.76
3266.36
3287.71
3310.79
3335.52
3361.81
3389.58
3418.69
3449.01
3480.41
3512.79
3545.64
3578.82
3612.04
3644.98
3677.29
3708.59
3738.48
3766.57
3792.48
3815.86
3836.35
3853.66
3867.55
3877.79
3884.23
3886.75
3885.28
3879.91
3870.61
3857.5
3840.73
3820.51
3797.1
3770.82
3742.01
3711.09
3678.46
3644.59
3609.93
3574.91
3539.96
3505.53
3471.87
3439.35
3408.21
3378.67
3350.87
3324.93
3300.92
3278.88
3258.81
3240.7
3224.53
3210.25
3197.82
3187.17
3178.25
3170.99
3165.33
3161.18
3158.5
3157.24
3157.32
3158.7
3161.36
3165.28
3170.44
3176.84
3184.5
3193.43
3203.66
3215.22
3228.16
3242.51
3258.33
3275.65
3294.5
3314.91
3336.88
3360.39
3385.4
3411.85
3439.64
3468.65
3498.72
3529.75
3561.31
3593.22
3625.19
3656.89
3687.96
3718.01
3746.65
3773.48
3798.09
3820.1
3839.14
3854.84
3866.93
3875.15
3879.32
3879.28
3875.08
3866.75
3854.37
3838.17
3818.4
3795.42
3769.59
3741.35
3711.14
3679.44
3646.7
3613.4
3579.95
3546.77
3514.2
3482.58
3452.16
3423.17
3395.78
3370.1
3346.22
3324.17
3303.95
3285.56
3268.94
3254.05
3240.82
3229.16
3219.01
3210.26
3202.82
3196.62
3191.57
3187.63
3184.72
3182.85
3181.99
3182.14
3183.3
3185.52
3188.82
3193.25
3198.84
3205.63
3213.68
3223.02
3233.7
3245.76
3259.24
3274.18
3290.62
3308.57
3328.06
3349.08
3371.62
3395.63
3421.05
3447.78
3475.69
3504.64
3534.43
3564.82
3595.56
3626.33
3656.82
3686.67
3715.5
3742.94
3768.6
3792.11
3813.1
3831.24
3846.22
3857.78
3865.72
3869.87
3870.12
3866.54
3859.2
3848.2
3833.79
3816.24
3795.86
3773
3748.03
3721.32
3693.25
3664.19
3634.52
3604.58
3574.73
3545.84
3517.17
3489.39
3462.71
3437.26
3413.13
3390.38
3369.04
3349.13
3330.62
3313.51
3297.77
3283.36
3270.24
3258.38
3247.76
3238.35
3230.15
3223.15
3217.34
3212.72
3209.31
3207.14
3206.23
3206.32
3207.5
3209.83
3213.37
3218.17
3224.3
3231.81
3240.8
3251.29
3263.33
3276.91
3292.07
3308.83
3327.16
3347.08
3368.55
3391.55
3416.02
3441.87
3469.04
3497.52
3527.01
3557.27
3588.06
3619.16
3650.33
3681.25
3711.59
3741.01
3769.18
3795.72
3820.28
3842.51
3862.11
3878.8
3892.31
3902.44
3909.04
3912.01
3911.19
3906.69
3898.58
3886.9
3871.84
3853.62
3832.49
3808.73
3782.67
3754.67
3725.1
3694.32
3662.68
3630.58
3598.37
3566.39
3535.05
3505.19
3476.96
3448.87
3421.96
3396.49
3372.55
3350.2
3125.27
3141.78
3160.13
3180.32
3202.32
3226.11
3251.68
3278.92
3307.75
3338.04
3369.6
3402.15
3435.66
3469.78
3504.16
3538.42
3572.15
3604.99
3636.53
3666.31
3693.96
3719.07
3741.23
3760.11
3775.41
3786.88
3794.36
3797.73
3796.27
3790.68
3781.08
3767.56
3750.33
3729.67
3705.87
3679.28
3650.31
3619.35
3586.82
3553.17
3518.81
3484.13
3449.5
3415.43
3383.29
3351.2
3320.2
3290.54
3262.42
3235.96
3211.24
3188.31
3167.2
3147.91
3130.43
3114.72
3100.74
3088.47
3077.84
3068.81
3061.34
3055.39
3050.92
3047.9
3046.35
3046.23
3047.57
3050.39
3054.71
3060.54
3067.98
3077.04
3087.76
3100.22
3114.45
3130.46
3148.27
3167.87
3189.22
3212.31
3237.04
3263.34
3291.12
3320.25
3350.6
3382.02
3414.46
3447.35
3480.58
3513.86
3546.88
3579.26
3610.64
3640.62
3668.8
3694.8
3718.26
3738.82
3756.2
3770.14
3780.42
3786.89
3789.42
3787.96
3782.56
3773.23
3760.07
3743.25
3722.96
3699.47
3673.1
3644.2
3613.18
3580.46
3546.5
3511.74
3476.64
3441.62
3407.13
3373.42
3340.86
3309.7
3280.13
3252.33
3226.39
3202.38
3180.34
3160.28
3142.19
3126.03
3111.77
3099.35
3088.72
3079.82
3072.57
3066.92
3062.79
3060.13
3058.87
3058.96
3060.35
3063.01
3066.93
3072.08
3078.48
3086.14
3095.06
3105.28
3116.83
3129.76
3144.1
3159.9
3177.21
3196.05
3216.46
3238.42
3261.93
3286.95
3313.41
3341.22
3370.25
3400.35
3431.42
3463.02
3495
3527.03
3558.81
3589.95
3620.08
3648.81
3675.73
3700.44
3722.54
3741.65
3757.43
3769.57
3777.84
3782.03
3782
3777.79
3769.41
3756.98
3740.71
3720.87
3697.79
3671.87
3643.52
3613.21
3581.41
3548.59
3515.19
3481.67
3448.42
3415.81
3384.14
3353.69
3324.67
3297.27
3271.58
3247.7
3225.66
3205.46
3187.08
3170.48
3155.6
3142.39
3130.76
3120.62
3111.89
3104.47
3098.29
3093.25
3089.32
3086.42
3084.55
3083.69
3083.83
3084.99
3087.2
3090.49
3094.91
3100.49
3107.28
3115.31
3124.65
3135.31
3147.36
3160.83
3175.76
3192.19
3210.13
3229.62
3250.64
3273.18
3297.19
3322.62
3349.37
3377.3
3406.28
3436.11
3466.56
3497.34
3528.18
3558.74
3588.67
3617.59
3645.11
3670.85
3694.44
3715.51
3733.72
3748.77
3760.38
3768.35
3772.52
3772.78
3769.18
3761.79
3750.74
3736.27
3718.64
3698.18
3675.24
3650.19
3623.4
3595.25
3566.11
3536.37
3506.37
3476.47
3447.51
3418.8
3391.01
3364.31
3338.84
3314.71
3291.97
3270.63
3250.72
3232.23
3215.13
3199.39
3184.99
3171.88
3160.03
3149.42
3140.01
3131.81
3124.81
3119
3114.38
3110.97
3108.8
3107.88
3107.96
3109.13
3111.46
3115
3119.78
3125.9
3133.41
3142.39
3152.88
3164.9
3178.48
3193.64
3210.38
3228.72
3248.63
3270.1
3293.1
3317.58
3343.45
3370.63
3399.13
3428.66
3458.95
3489.79
3520.94
3552.17
3583.16
3613.56
3643.06
3671.3
3697.93
3722.57
3744.87
3764.54
3781.29
3794.85
3805.02
3811.65
3814.63
3813.82
3809.3
3801.15
3789.44
3774.33
3756.04
3734.84
3711
3684.86
3656.78
3627.13
3596.27
3564.56
3532.39
3500.12
3468.09
3436.7
3406.83
3378.54
3350.42
3323.49
3298
3274.06
3251.71
3026.73
3043.22
3061.56
3081.74
3103.73
3127.52
3153.09
3180.35
3209.19
3239.51
3271.1
3303.7
3337.27
3371.46
3405.92
3440.27
3474.1
3507.05
3538.69
3568.58
3596.35
3621.57
3643.83
3662.8
3678.17
3689.7
3697.22
3700.6
3699.14
3693.52
3683.86
3670.28
3652.97
3632.22
3608.32
3581.62
3552.54
3521.47
3488.83
3455.07
3420.62
3385.85
3351.15
3317.02
3284.8
3252.68
3221.64
3191.96
3163.83
3137.36
3112.64
3089.72
3068.62
3049.34
3031.87
3016.18
3002.22
2989.96
2979.35
2970.33
2962.87
2956.93
2952.47
2949.46
2947.91
2947.79
2949.12
2951.94
2956.24
2962.07
2969.49
2978.53
2989.24
3001.68
3015.9
3031.9
3049.7
3069.3
3090.66
3113.74
3138.49
3164.8
3192.6
3221.75
3252.12
3283.58
3316.08
3349.02
3382.31
3415.67
3448.77
3481.25
3512.73
3542.81
3571.1
3597.21
3620.76
3641.41
3658.87
3672.87
3683.2
3689.7
3692.25
3690.79
3685.37
3676
3662.79
3645.89
3625.52
3601.94
3575.46
3546.46
3515.32
3482.48
3448.41
3413.55
3378.35
3343.24
3308.67
3274.9
3242.3
3211.1
3181.51
3153.7
3127.75
3103.75
3081.72
3061.67
3043.59
3027.45
3013.21
3000.81
2990.2
2981.32
2974.09
2968.46
2964.34
2961.69
2960.45
2960.55
2961.94
2964.61
2968.53
2973.68
2980.08
2987.72
2996.64
3006.85
3018.38
3031.3
3045.62
3061.41
3078.71
3097.54
3117.93
3139.89
3163.4
3188.42
3214.9
3242.73
3271.79
3301.92
3333.05
3364.71
3396.75
3428.86
3460.72
3491.96
3522.19
3551.03
3578.06
3602.87
3625.07
3644.28
3660.15
3672.37
3680.68
3684.9
3684.89
3680.65
3672.23
3659.74
3643.39
3623.44
3600.26
3574.21
3545.75
3515.32
3483.4
3450.46
3416.97
3383.36
3350.03
3317.35
3285.63
3255.14
3226.1
3198.67
3172.98
3149.11
3127.07
3106.88
3088.52
3071.94
3057.09
3043.9
3032.29
3022.18
3013.47
3006.07
2999.91
2994.89
2990.96
2988.08
2986.21
2985.35
2985.49
2986.64
2988.84
2992.12
2996.53
3002.1
3008.87
3016.9
3026.21
3036.87
3048.9
3062.36
3077.28
3093.69
3111.63
3131.1
3152.12
3174.66
3198.69
3224.13
3250.9
3278.86
3307.88
3337.76
3368.25
3399.11
3430.03
3460.67
3490.69
3519.7
3547.33
3573.17
3596.86
3618.03
3636.32
3651.44
3663.12
3671.13
3675.32
3675.58
3671.96
3664.52
3653.41
3638.86
3621.14
3600.59
3577.55
3552.39
3525.5
3497.26
3468.03
3438.21
3408.14
3378.18
3349.13
3320.39
3292.56
3265.84
3240.37
3216.23
3193.48
3172.15
3152.25
3133.77
3116.68
3100.96
3086.57
3073.48
3061.64
3051.03
3041.63
3033.43
3026.42
3020.61
3015.99
3012.58
3010.4
3009.48
3009.55
3010.72
3013.04
3016.56
3021.34
3027.45
3034.96
3043.92
3054.4
3066.42
3079.99
3095.13
3111.87
3130.2
3150.11
3171.58
3194.59
3219.07
3244.95
3272.15
3300.68
3330.25
3360.59
3391.49
3422.7
3454
3485.06
3515.55
3545.14
3573.48
3600.19
3624.93
3647.32
3667.07
3683.89
3697.52
3707.74
3714.4
3717.39
3716.59
3712.05
3703.86
3692.1
3676.92
3658.57
3637.28
3613.34
3587.11
3558.93
3529.18
3498.23
3466.43
3434.18
3401.84
3369.74
3338.3
3308.41
3280.05
3251.91
3224.95
3199.45
3175.49
3153.15
2928.11
2944.58
2962.91
2983.07
3005.05
3028.85
3054.43
3081.69
3110.56
3140.9
3172.54
3205.2
3238.83
3273.1
3307.66
3342.11
3376.06
3409.12
3440.89
3470.92
3498.82
3524.17
3546.55
3565.62
3581.08
3592.68
3600.24
3603.63
3602.17
3596.52
3586.8
3573.14
3555.74
3534.88
3510.86
3484.04
3454.82
3423.62
3390.85
3356.98
3322.41
3287.54
3252.75
3218.56
3186.25
3154.08
3123
3093.3
3065.15
3038.68
3013.96
2991.04
2969.96
2950.69
2933.24
2917.56
2903.63
2891.38
2880.79
2871.79
2864.35
2858.42
2853.97
2850.97
2849.41
2849.29
2850.62
2853.43
2857.72
2863.53
2870.93
2879.95
2890.64
2903.07
2917.27
2933.26
2951.06
2970.65
2992.01
3015.1
3039.86
3066.19
3094.01
3123.18
3153.58
3185.07
3217.66
3250.65
3284.01
3317.46
3350.66
3383.25
3414.85
3445.06
3473.47
3499.69
3523.36
3544.12
3561.67
3575.74
3586.13
3592.66
3595.23
3593.77
3588.33
3578.91
3565.64
3548.66
3528.2
3504.5
3477.91
3448.77
3417.5
3384.53
3350.32
3315.33
3280.02
3244.81
3210.15
3176.32
3143.65
3112.42
3082.81
3054.97
3029.02
3005.02
2983.01
2962.98
2944.92
2928.8
2914.58
2902.2
2891.61
2882.75
2875.54
2869.93
2865.84
2863.21
2861.98
2862.08
2863.49
2866.16
2870.08
2875.23
2881.62
2889.26
2898.16
2908.36
2919.88
2932.78
2947.09
2962.86
2980.14
2998.96
3019.34
3041.29
3064.8
3089.83
3116.32
3144.18
3173.27
3203.44
3234.64
3266.35
3298.47
3330.68
3362.64
3393.99
3424.34
3453.3
3480.45
3505.4
3527.72
3547.04
3563.01
3575.31
3583.68
3587.93
3587.93
3583.68
3575.21
3562.64
3546.19
3526.13
3502.82
3476.64
3448.03
3417.46
3385.4
3352.34
3318.72
3285.01
3251.59
3218.83
3187.05
3156.51
3127.44
3100
3074.3
3050.43
3028.4
3008.23
2989.89
2973.33
2958.5
2945.34
2933.76
2923.68
2915
2907.63
2901.48
2896.48
2892.57
2889.69
2887.83
2886.97
2887.1
2888.25
2890.44
2893.71
2898.1
2903.66
2910.41
2918.42
2927.73
2938.36
2950.38
2963.83
2978.73
2995.13
3013.05
3032.52
3053.54
3076.08
3100.12
3125.57
3152.36
3180.36
3209.42
3239.35
3269.92
3300.85
3331.86
3362.6
3392.73
3421.86
3449.6
3475.57
3499.37
3520.64
3539.04
3554.25
3566
3574.06
3578.27
3578.54
3574.89
3567.4
3556.21
3541.56
3523.74
3503.07
3479.92
3454.65
3427.64
3399.29
3369.96
3340.03
3309.88
3279.85
3250.71
3221.92
3194.06
3167.32
3141.82
3117.68
3094.94
3073.62
3053.72
3035.25
3018.18
3002.48
2988.1
2975.02
2963.19
2952.59
2943.19
2935
2927.99
2922.18
2917.55
2914.14
2911.96
2911.04
2911.1
2912.25
2914.56
2918.08
2922.84
2928.94
2936.44
2945.39
2955.86
2967.87
2981.42
2996.56
3013.29
3031.61
3051.52
3072.99
3096
3120.49
3146.39
3173.61
3202.18
3231.8
3262.19
3293.14
3324.43
3355.81
3386.96
3417.55
3447.25
3475.7
3502.52
3527.37
3549.87
3569.72
3586.62
3600.32
3610.6
3617.3
3620.3
3619.5
3614.95
3606.71
3594.89
3579.64
3561.2
3539.81
3515.76
3489.42
3461.13
3431.26
3400.2
3368.3
3335.96
3303.52
3271.36
3239.85
3209.93
3181.5
3153.32
3126.33
3100.81
3076.85
3054.5
2829.42
2845.87
2864.18
2884.33
2906.3
2930.09
2955.68
2982.96
3011.85
3042.23
3073.91
3106.63
3140.33
3174.7
3209.37
3243.94
3278.02
3311.23
3343.14
3373.32
3401.38
3426.87
3449.39
3468.58
3484.13
3495.81
3503.42
3506.82
3505.36
3499.67
3489.88
3476.14
3458.64
3437.65
3413.5
3386.53
3357.16
3325.81
3292.9
3258.88
3224.18
3189.2
3154.3
3120.04
3087.63
3055.41
3024.29
2994.56
2966.39
2939.91
2915.19
2892.29
2871.21
2851.97
2834.53
2818.88
2804.96
2792.74
2782.17
2773.19
2765.76
2759.84
2755.41
2752.41
2750.86
2750.74
2752.06
2754.86
2759.13
2764.92
2772.31
2781.31
2791.98
2804.39
2818.57
2834.55
2852.33
2871.92
2893.28
2916.39
2941.15
2967.5
2995.34
3024.55
3054.98
3086.51
3119.19
3152.25
3185.69
3219.23
3252.55
3285.26
3317
3347.35
3375.9
3402.26
3426.06
3446.94
3464.6
3478.76
3489.21
3495.78
3498.37
3496.91
3491.44
3481.97
3468.63
3451.56
3430.98
3407.16
3380.43
3351.14
3319.71
3286.59
3252.23
3217.1
3181.66
3146.34
3111.57
3077.66
3044.93
3013.65
2984.01
2956.16
2930.21
2906.21
2884.21
2864.19
2846.16
2830.06
2815.86
2803.51
2792.95
2784.11
2776.93
2771.34
2767.27
2764.66
2763.45
2763.57
2764.98
2767.66
2771.58
2776.73
2783.12
2790.75
2799.64
2809.82
2821.32
2834.2
2848.49
2864.24
2881.5
2900.3
2920.67
2942.62
2966.13
2991.17
3017.68
3045.56
3074.69
3104.91
3136.16
3167.96
3200.17
3232.48
3264.55
3296.03
3326.52
3355.62
3382.92
3408.01
3430.47
3449.93
3466.01
3478.4
3486.84
3491.14
3491.15
3486.87
3478.34
3465.69
3449.13
3428.94
3405.48
3379.14
3350.37
3319.63
3287.42
3254.2
3220.45
3186.62
3153.1
3120.25
3088.4
3057.81
3028.7
3001.24
2975.53
2951.66
2929.65
2909.5
2891.18
2874.64
2859.85
2846.72
2835.17
2825.12
2816.47
2809.13
2803.01
2798.03
2794.13
2791.27
2789.41
2788.55
2788.68
2789.81
2791.99
2795.25
2799.63
2805.17
2811.91
2819.9
2829.18
2839.8
2851.81
2865.23
2880.12
2896.5
2914.41
2933.87
2954.88
2977.43
3001.47
3026.95
3053.76
3081.8
3110.91
3140.9
3171.55
3202.57
3233.68
3264.54
3294.79
3324.05
3351.93
3378.03
3401.97
3423.37
3441.88
3457.19
3469.02
3477.14
3481.38
3481.65
3477.97
3470.41
3459.14
3444.39
3426.44
3405.65
3382.36
3356.95
3329.82
3301.34
3271.89
3241.85
3211.6
3181.49
3152.24
3123.4
3095.5
3068.72
3043.22
3019.07
2996.33
2975.01
2955.13
2936.68
2919.62
2903.93
2889.57
2876.51
2864.69
2854.1
2844.71
2836.52
2829.51
2823.7
2819.07
2815.65
2813.47
2812.54
2812.59
2813.73
2816.03
2819.53
2824.28
2830.38
2837.86
2846.8
2857.26
2869.25
2882.79
2897.92
2914.64
2932.95
2952.86
2974.33
2997.34
3021.85
3047.77
3075
3103.62
3133.29
3163.74
3194.76
3226.13
3257.61
3288.87
3319.57
3349.39
3377.96
3404.91
3429.88
3452.51
3472.46
3489.47
3503.25
3513.59
3520.33
3523.36
3522.56
3517.98
3509.7
3497.81
3482.48
3463.93
3442.43
3418.26
3391.78
3363.36
3333.37
3302.18
3270.17
3237.71
3205.18
3172.93
3141.34
3111.41
3082.88
3054.66
3027.64
3002.1
2978.13
2955.78
2730.66
2747.08
2765.37
2785.5
2807.46
2831.25
2856.84
2884.14
2913.06
2943.48
2975.2
3007.99
3041.78
3076.25
3111.05
3145.77
3179.99
3213.35
3245.43
3275.79
3304.01
3329.68
3352.34
3371.67
3387.34
3399.1
3406.76
3410.18
3408.72
3402.99
3393.12
3379.28
3361.66
3340.53
3316.23
3289.09
3259.56
3228.03
3194.96
3160.78
3125.94
3090.83
3055.82
3021.47
2988.95
2956.66
2925.5
2895.74
2867.55
2841.06
2816.34
2793.44
2772.39
2753.16
2735.75
2720.12
2706.23
2694.03
2683.48
2674.52
2667.11
2661.21
2656.79
2653.8
2652.25
2652.13
2653.44
2656.23
2660.49
2666.26
2673.62
2682.6
2693.24
2705.63
2719.79
2735.75
2753.53
2773.12
2794.48
2817.59
2842.36
2868.74
2896.6
2925.84
2956.31
2987.88
3020.67
3053.8
3087.33
3120.99
3154.43
3187.29
3219.18
3249.68
3278.4
3304.92
3328.87
3349.88
3367.66
3381.91
3392.44
3399.06
3401.67
3400.21
3394.7
3385.18
3371.76
3354.58
3333.88
3309.92
3283.02
3253.57
3221.96
3188.66
3154.14
3118.85
3083.26
3047.81
3012.93
2978.92
2946.13
2914.8
2885.12
2857.26
2831.3
2807.31
2785.32
2765.33
2747.31
2731.24
2717.08
2704.75
2694.22
2685.41
2678.26
2672.7
2668.65
2666.06
2664.87
2665
2666.43
2669.11
2673.03
2678.18
2684.56
2692.18
2701.06
2711.22
2722.71
2735.56
2749.83
2765.56
2782.79
2801.58
2821.93
2843.88
2867.39
2892.43
2918.96
2946.87
2976.05
3006.33
3037.64
3069.53
3101.84
3134.27
3166.47
3198.09
3228.73
3258
3285.46
3310.71
3333.33
3352.94
3369.15
3381.65
3390.17
3394.51
3394.53
3390.23
3381.64
3368.89
3352.2
3331.86
3308.23
3281.71
3252.76
3221.84
3189.45
3156.06
3122.16
3088.19
3054.55
3021.61
2989.68
2959.03
2929.88
2902.39
2876.68
2852.82
2830.82
2810.69
2792.39
2775.89
2761.12
2748.03
2736.52
2726.5
2717.89
2710.58
2704.49
2699.54
2695.66
2692.81
2690.96
2690.09
2690.21
2691.34
2693.5
2696.74
2701.11
2706.63
2713.35
2721.32
2730.58
2741.18
2753.17
2766.57
2781.44
2797.81
2815.7
2835.15
2856.16
2878.71
2902.76
2928.26
2955.1
2983.18
3012.35
3042.41
3073.14
3104.26
3135.49
3166.48
3196.87
3226.28
3254.31
3280.56
3304.65
3326.19
3344.84
3360.26
3372.18
3380.37
3384.64
3384.91
3381.2
3373.57
3362.2
3347.33
3329.25
3308.3
3284.86
3259.31
3232.03
3203.4
3173.82
3143.66
3113.29
3083.09
3053.73
3024.83
2996.88
2970.07
2944.55
2920.39
2897.65
2876.35
2856.48
2838.04
2821
2805.34
2791
2777.95
2766.14
2755.56
2746.18
2737.99
2730.99
2725.17
2720.54
2717.11
2714.92
2713.99
2714.03
2715.16
2717.44
2720.93
2725.67
2731.75
2739.22
2748.15
2758.59
2770.57
2784.1
2799.21
2815.92
2834.22
2854.13
2875.6
2898.62
2923.13
2949.07
2976.33
3005
3034.73
3065.25
3096.35
3127.81
3159.39
3190.77
3221.6
3251.55
3280.27
3307.36
3332.48
3355.23
3375.32
3392.43
3406.31
3416.72
3423.52
3426.57
3425.76
3421.16
3412.83
3400.86
3385.43
3366.77
3345.13
3320.82
3294.2
3265.63
3235.49
3204.17
3172.02
3139.45
3106.8
3074.46
3042.78
3012.82
2984.19
2955.92
2928.87
2903.31
2879.32
2856.97
2631.82
2648.22
2666.48
2686.59
2708.54
2732.33
2757.93
2785.24
2814.19
2844.65
2876.43
2909.3
2943.18
2977.77
3012.71
3047.58
3081.96
3115.5
3147.76
3178.31
3206.73
3232.58
3255.42
3274.89
3290.69
3302.54
3310.26
3313.71
3312.24
3306.46
3296.51
3282.56
3264.8
3243.52
3219.05
3191.72
3162
3130.29
3097.03
3062.68
3027.68
2992.42
2957.29
2922.84
2890.19
2857.84
2826.63
2796.83
2768.62
2742.12
2717.41
2694.52
2673.48
2654.27
2636.89
2621.28
2607.42
2595.25
2584.72
2575.79
2568.4
2562.52
2558.11
2555.13
2553.59
2553.46
2554.77
2557.54
2561.78
2567.53
2574.86
2583.81
2594.43
2606.8
2620.94
2636.88
2654.65
2674.23
2695.6
2718.71
2743.5
2769.9
2797.8
2827.07
2857.58
2889.19
2922.1
2955.3
2988.94
3022.72
3056.31
3089.33
3121.39
3152.07
3180.96
3207.66
3231.77
3252.94
3270.84
3285.21
3295.81
3302.49
3305.12
3303.66
3298.12
3288.54
3275.02
3257.73
3236.89
3212.77
3185.7
3156.05
3124.26
3090.76
3056.04
3020.57
2984.82
2949.23
2914.22
2880.12
2847.25
2815.86
2786.15
2758.26
2732.3
2708.32
2686.35