/*--------------------------------*- C++ -*----------------------------------*\
| =========                 |                                                 |
| \\      /  F ield         | OpenFOAM: The Open Source CFD Toolbox           |
|  \\    /   O peration     | Version:  3.0.1                                 |
|   \\  /    A nd           | Web:      www.OpenFOAM.org                      |
|    \\/     M anipulation  |                                                 |
\*---------------------------------------------------------------------------*/
FoamFile
{
    version     2.0;
    format      ascii;
    class       volScalarField;
    location    "10.8";
    object      p_rgh;
}
// * * * * * * * * * * * * * * * * * * * * * * * * * * * * * * * * * * * * * //

dimensions      [1 -1 -2 0 0 0 0];

internalField   nonuniform List<scalar> 
21420
(
376.843
392.798
404.992
413.315
417.724
417.969
414.156
406.381
394.76
379.362
360.403
338.153
312.965
285.166
255.169
223.353
190.142
155.99
121.282
86.4116
51.766
17.8255
-15.1218
-47.0911
-77.788
-107.004
-134.603
-160.463
-184.52
-206.74
-227.104
-245.625
-262.331
-277.257
-290.449
-301.954
-311.825
-320.108
-326.85
-332.092
-335.876
-338.189
-339.028
-338.263
-336.116
-332.489
-327.369
-320.726
-312.503
-302.641
-291.09
-277.784
-262.678
-245.733
-226.9
-206.2
-183.672
-159.352
-133.338
-105.752
-76.7389
-46.4853
-15.1889
16.9481
49.6632
82.6316
115.597
148.248
180.29
211.405
241.268
269.577
296.022
320.281
342.05
361.038
376.956
389.54
398.569
403.869
405.247
402.74
396.199
385.686
371.302
353.211
331.626
306.823
279.128
248.908
216.573
182.564
147.348
111.403
75.2138
39.2572
3.99594
-30.1525
-62.8102
-93.662
-122.462
-149.036
-173.293
-195.209
-214.823
-232.227
-247.548
-260.932
-272.546
-282.553
-291.101
-298.322
-304.323
-309.19
-312.983
-315.736
-317.468
-318.149
-317.722
-316.184
-313.445
-309.427
-304.04
-297.186
-288.757
-278.647
-266.759
-252.998
-237.285
-219.562
-199.798
-177.989
-154.17
-128.415
-100.838
-71.5987
-40.9016
-8.99095
23.8563
57.3038
91.0074
124.6
157.696
189.902
220.829
250.095
277.337
302.215
324.423
343.693
359.793
372.539
381.8
387.5
389.562
388.077
383.07
374.686
363.045
348.362
330.868
310.827
288.531
264.295
238.449
211.332
183.286
154.651
125.755
96.9094
68.4026
40.4985
13.4517
-12.5907
-37.4467
-60.9773
-83.0758
-103.663
-122.686
-140.108
-155.914
-170.099
-182.67
-193.642
-203.035
-210.869
-217.17
-221.961
-225.279
-227.13
-227.516
-226.504
-224.093
-220.298
-215.136
-208.62
-200.769
-191.603
-181.144
-169.421
-156.472
-142.342
-127.089
-110.778
-93.4871
-75.3065
-56.3399
-36.7046
-16.5302
4.0397
24.8477
45.7276
66.5053
86.9982
107.022
126.391
144.922
162.435
178.757
193.73
207.206
219.052
229.155
237.427
243.803
248.237
250.718
251.231
249.858
246.628
241.619
234.938
226.704
217.053
206.138
194.124
181.187
167.507
153.266
138.641
123.809
108.938
94.1848
79.6933
65.5949
52.006
39.0273
26.7447
15.2294
4.5856
-5.23992
-14.1753
-22.2026
-29.3157
-35.5179
-40.8209
-45.2441
-48.813
-51.5584
-53.5176
-54.7272
-55.226
-55.0626
-54.278
-52.9156
-51.0194
-48.6334
-45.8013
-42.5666
-38.9726
-35.0621
-30.8771
-26.4591
-21.8486
-17.0853
-12.2078
-7.25376
-2.25928
2.73787
7.70964
12.6215
17.4434
22.1471
26.7066
31.0976
35.2983
39.2889
43.052
46.5724
49.8373
52.8362
55.5607
58.0051
60.1656
62.0408
63.6313
64.9399
65.9714
66.7328
67.2329
67.4837
67.4684
67.2245
66.763
66.096
65.2371
64.2004
63.0005
61.6525
60.1715
58.5727
56.8715
55.0826
53.2206
51.2995
49.3329
47.3337
45.3139
43.285
41.2576
39.2414
37.2455
35.2781
33.3465
31.4571
29.6158
27.8275
26.0964
24.426
22.8191
21.2781
19.8044
18.3993
17.0632
15.7962
14.5982
13.4683
12.4055
11.4085
10.4757
9.60538
8.79546
8.04381
7.34819
6.70623
6.11551
5.57357
5.07792
4.6261
4.21563
3.8441
3.50914
3.20846
2.93986
2.70123
2.49056
2.30587
376.966
392.933
405.138
413.467
417.879
418.135
414.31
406.535
394.904
379.495
360.521
338.255
313.049
285.232
255.216
223.381
190.152
155.983
121.259
86.3746
51.7171
17.7678
-15.1883
-47.1642
-77.8662
-107.085
-134.686
-160.547
-184.603
-206.822
-227.184
-245.703
-262.406
-277.329
-290.518
-302.021
-311.889
-320.171
-326.91
-332.151
-335.932
-338.245
-339.084
-338.322
-336.174
-332.548
-327.43
-320.789
-312.569
-302.71
-291.162
-277.86
-262.756
-245.814
-226.983
-206.284
-183.755
-159.434
-133.417
-105.828
-76.8095
-46.5497
-15.2459
16.8998
49.6255
82.6044
115.581
148.244
180.299
211.428
241.305
269.628
296.088
320.362
342.145
361.145
377.076
389.671
398.708
404.014
405.402
402.884
396.343
385.824
371.431
353.327
331.727
306.907
279.194
248.954
216.599
182.57
147.333
111.369
75.1611
39.1877
3.91158
-30.2493
-62.9167
-93.7753
-122.579
-149.154
-173.409
-195.322
-214.931
-232.328
-247.641
-261.018
-272.625
-282.626
-291.168
-298.384
-304.381
-309.245
-313.037
-315.789
-317.522
-318.202
-317.778
-316.242
-313.506
-309.492
-304.109
-297.259
-288.835
-278.73
-266.845
-253.088
-237.378
-219.658
-199.895
-178.087
-154.267
-128.509
-100.928
-71.6831
-40.9781
-9.05777
23.8004
57.2607
90.9786
124.587
157.699
189.922
220.866
250.149
277.407
302.3
324.522
343.804
359.915
372.668
381.934
387.637
389.704
388.208
383.197
374.806
363.156
348.462
330.956
310.901
288.591
264.34
238.479
211.347
183.287
154.639
125.731
96.8743
68.3579
40.4459
13.3931
-12.6546
-37.5144
-61.0477
-83.1478
-103.736
-122.758
-140.18
-155.985
-170.169
-182.739
-193.71
-203.1
-210.934
-217.233
-222.023
-225.34
-227.188
-227.575
-226.563
-224.151
-220.355
-215.192
-208.677
-200.825
-191.658
-181.198
-169.475
-156.524
-142.394
-127.139
-110.825
-93.5313
-75.3473
-56.3767
-36.7368
-16.5572
4.01849
24.8328
45.7196
66.5047
87.0052
107.036
126.413
144.953
162.473
178.803
193.782
207.265
219.116
229.224
237.5
243.877
248.313
250.793
251.307
249.929
246.697
241.683
234.997
226.757
217.1
206.177
194.156
181.211
167.524
153.275
138.644
123.805
108.928
94.1694
79.673
65.5704
51.9778
38.9963
26.7115
15.1946
4.54898
-5.27706
-14.2126
-22.2399
-29.3526
-35.554
-40.8561
-45.2782
-48.8457
-51.5896
-53.5472
-54.755
-55.2522
-55.0872
-54.3009
-52.9368
-51.0389
-48.6512
-45.8174
-42.5811
-38.9855
-35.0734
-30.8868
-26.4672
-21.8551
-17.0904
-12.2115
-7.25596
-2.26007
2.73833
7.7114
12.6245
17.4475
22.1523
26.7127
31.1047
35.3062
39.2975
43.0612
46.5822
49.8475
52.8467
55.5716
58.0162
60.1768
62.0519
63.6423
64.9508
65.982
66.743
67.2427
67.4929
67.4772
67.233
66.7711
66.1035
65.2441
64.2068
63.0063
61.6576
60.176
58.5767
56.8749
55.0854
53.2228
51.3012
49.3341
47.3344
45.3142
43.2848
41.257
39.2405
37.2443
35.2766
33.3447
31.4552
29.6137
27.8252
26.0939
24.4234
22.8165
21.2754
19.8017
18.3965
17.0604
15.7935
14.5955
13.4656
12.4029
11.406
10.4733
9.60299
8.79315
8.0416
7.34607
6.70421
6.11358
5.57174
5.0762
4.62447
4.2141
3.84266
3.50779
3.2072
2.93869
2.70015
2.48955
2.30494
377.211
393.204
405.428
413.772
418.187
418.465
414.621
406.844
395.192
379.759
360.757
338.459
313.218
285.364
255.31
223.437
190.172
155.969
121.213
86.3006
51.6193
17.6524
-15.3214
-47.3105
-78.0225
-107.249
-134.853
-160.715
-184.771
-206.987
-227.345
-245.859
-262.557
-277.474
-290.657
-302.155
-312.018
-320.295
-327.03
-332.267
-336.044
-338.357
-339.198
-338.438
-336.29
-332.666
-327.551
-320.915
-312.699
-302.846
-291.305
-278.008
-262.91
-245.972
-227.144
-206.446
-183.917
-159.593
-133.571
-105.974
-76.9454
-46.6729
-15.3544
16.8089
49.5558
82.5559
115.555
148.243
180.324
211.48
241.386
269.739
296.228
320.531
342.342
361.37
377.326
389.943
398.998
404.317
405.726
403.187
396.647
386.117
371.707
353.579
331.95
307.097
279.347
249.069
216.674
182.604
147.328
111.326
75.0816
39.0751
3.76975
-30.4154
-63.1019
-93.9737
-122.784
-149.362
-173.613
-195.518
-215.117
-232.501
-247.799
-261.161
-272.754
-282.742
-291.273
-298.48
-304.47
-309.329
-313.119
-315.87
-317.604
-318.283
-317.867
-316.336
-313.606
-309.599
-304.224
-297.383
-288.969
-278.873
-266.998
-253.249
-237.546
-219.832
-200.073
-178.266
-154.444
-128.682
-101.093
-71.8363
-41.1162
-9.17704
23.7025
57.188
90.934
124.573
157.717
189.973
220.95
250.267
277.558
302.481
324.73
344.037
360.167
372.935
382.211
387.918
389.995
388.476
383.46
375.054
363.385
348.669
331.137
311.055
288.715
264.435
238.544
211.383
183.295
154.621
125.689
96.8105
68.2752
40.3472
13.2827
-12.7754
-37.6431
-61.1817
-83.2851
-103.875
-122.897
-140.318
-156.121
-170.303
-182.87
-193.838
-203.225
-211.056
-217.353
-222.141
-225.456
-227.298
-227.687
-226.673
-224.26
-220.463
-215.3
-208.784
-200.932
-191.764
-181.303
-169.578
-156.625
-142.491
-127.232
-110.914
-93.6149
-75.4242
-56.4457
-36.7967
-16.6068
3.98033
24.8073
45.7077
66.5072
87.0228
107.07
126.462
145.017
162.553
178.897
193.89
207.385
219.247
229.364
237.646
244.028
248.466
250.945
251.461
250.072
246.835
241.813
235.116
226.864
217.194
206.257
194.221
181.261
167.559
153.295
138.65
123.798
108.909
94.139
79.6329
65.5217
51.922
38.9346
26.6454
15.1254
4.47611
-5.35101
-14.2871
-22.3142
-29.426
-35.626
-40.9262
-45.346
-48.9108
-51.6519
-53.6063
-54.8103
-55.3046
-55.1362
-54.3464
-52.979
-51.0777
-48.6867
-45.8496
-42.61
-39.0111
-35.0957
-30.906
-26.4833
-21.8682
-17.1004
-12.2186
-7.26028
-2.26162
2.73938
7.71501
12.6305
17.4558
22.1627
26.7251
31.1188
35.3219
39.3147
43.0797
46.6018
49.868
52.868
55.5933
58.0383
60.199
62.0741
63.6644
64.9725
66.0033
66.7635
67.2622
67.5113
67.4949
67.25
66.7871
66.1186
65.258
64.2195
63.0178
61.668
60.1852
58.5846
56.8816
55.091
53.2273
51.3047
49.3365
47.3359
45.3147
43.2845
41.256
39.2388
37.2419
35.2737
33.3413
31.4513
29.6094
27.8206
26.089
24.4183
22.8112
21.27
19.7962
18.391
17.0549
15.788
14.5901
13.4603
12.3977
11.4009
10.4683
9.59821
8.78855
8.03717
7.34183
6.70016
6.10974
5.56809
5.07275
4.62121
4.21103
3.83978
3.5051
3.20469
2.93635
2.69797
2.48754
2.30309
377.579
393.61
405.865
414.229
418.65
418.951
415.093
407.308
395.624
380.156
361.111
338.765
313.471
285.561
255.451
223.522
190.202
155.947
121.144
86.1894
51.4724
17.479
-15.5212
-47.5301
-78.2572
-107.494
-135.104
-160.968
-185.022
-207.234
-227.586
-246.093
-262.782
-277.691
-290.866
-302.356
-312.211
-320.481
-327.211
-332.441
-336.212
-338.524
-339.369
-338.613
-336.463
-332.842
-327.732
-321.102
-312.895
-303.05
-291.519
-278.231
-263.141
-246.21
-227.387
-206.691
-184.16
-159.832
-133.802
-106.194
-77.1497
-46.8582
-15.5175
16.6721
49.4507
82.4826
115.517
148.241
180.362
211.559
241.508
269.904
296.438
320.784
342.639
361.707
377.702
390.353
399.435
404.773
406.208
403.648
397.106
386.559
372.122
353.958
332.286
307.383
279.579
249.243
216.788
182.658
147.322
111.262
74.9632
38.907
3.55761
-30.6643
-63.3794
-94.2712
-123.093
-149.673
-173.92
-195.814
-215.395
-232.76
-248.036
-261.377
-272.949
-282.917
-291.431
-298.625
-304.604
-309.456
-313.241
-315.992
-317.727
-318.406
-318
-316.476
-313.757
-309.761
-304.399
-297.571
-289.17
-279.089
-267.227
-253.49
-237.799
-220.093
-200.339
-178.534
-154.71
-128.941
-101.34
-72.0665
-41.3238
-9.35645
23.5554
57.0786
90.8668
124.551
157.744
190.05
221.078
250.445
277.784
302.752
325.043
344.385
360.546
373.337
382.628
388.34
390.428
388.884
383.857
375.427
363.73
348.979
331.41
311.286
288.903
264.578
238.642
211.437
183.308
154.594
125.626
96.7149
68.151
40.1991
13.117
-12.9568
-37.8362
-61.3829
-83.4912
-104.083
-123.106
-140.525
-156.325
-170.503
-183.067
-194.03
-203.413
-211.239
-217.533
-222.318
-225.628
-227.465
-227.855
-226.839
-224.424
-220.626
-215.461
-208.944
-201.092
-191.922
-181.459
-169.732
-156.776
-142.638
-127.373
-111.048
-93.7405
-75.5398
-56.5495
-36.8867
-16.6814
3.92285
24.7687
45.6896
66.5107
87.0491
107.119
126.535
145.113
162.672
179.038
194.052
207.566
219.444
229.574
237.866
244.255
248.696
251.174
251.69
250.289
247.042
242.007
235.295
227.025
217.335
206.376
194.318
181.336
167.611
153.325
138.658
123.787
108.88
94.0933
79.5725
65.4487
51.8382
38.842
26.5461
15.0214
4.36682
-5.46198
-14.3989
-22.4257
-29.5362
-35.7341
-41.0314
-45.4477
-49.0086
-51.7453
-53.6949
-54.8935
-55.3832
-55.2096
-54.4147
-53.0422
-51.136
-48.7399
-45.8978
-42.6533
-39.0495
-35.1293
-30.9348
-26.5074
-21.8878
-17.1155
-12.2294
-7.26676
-2.26398
2.74099
7.72041
12.6395
17.4682
22.1783
26.7436
31.14
35.3456
39.3406
43.1075
46.6312
49.8988
52.8998
55.626
58.0714
60.2324
62.1075
63.6975
65.0051
66.0351
66.7943
67.2916
67.5387
67.5216
67.2755
66.8112
66.1411
65.2788
64.2387
63.0352
61.6835
60.1989
58.5966
56.8918
55.0994
53.234
51.3098
49.3401
47.338
45.3155
43.2841
41.2544
39.2361
37.2383
35.2692
33.336
31.4454
29.6029
27.8136
26.0817
24.4106
22.8033
21.2619
19.788
18.3827
17.0466
15.7798
14.5819
13.4523
12.3898
11.3932
10.4609
9.59104
8.78163
8.03053
7.33548
6.6941
6.10396
5.56262
5.06757
4.61633
4.20644
3.83547
3.50107
3.20093
2.93285
2.69472
2.48453
2.3003
378.069
394.151
406.447
414.839
419.27
419.589
415.73
407.926
396.201
380.685
361.584
339.173
313.809
285.825
255.638
223.634
190.241
155.917
121.051
86.0405
51.2761
17.2475
-15.788
-47.8232
-78.5705
-107.82
-135.439
-161.305
-185.357
-207.564
-227.908
-246.405
-263.083
-277.981
-291.145
-302.623
-312.469
-320.73
-327.451
-332.674
-336.436
-338.745
-339.598
-338.845
-336.694
-333.077
-327.973
-321.352
-313.156
-303.323
-291.804
-278.528
-263.45
-246.527
-227.71
-207.017
-184.486
-160.151
-134.111
-106.487
-77.4225
-47.1056
-15.7352
16.4895
49.3101
82.3846
115.465
148.239
180.411
211.664
241.67
270.124
296.717
321.122
343.034
362.157
378.203
390.9
400.017
405.381
406.84
404.273
397.72
387.15
372.677
354.465
332.735
307.766
279.888
249.475
216.94
182.729
147.313
111.176
74.8046
38.6819
3.27368
-30.9972
-63.7507
-94.6691
-123.506
-150.089
-174.329
-196.208
-215.768
-233.106
-248.353
-261.664
-273.209
-283.151
-291.643
-298.818
-304.783
-309.625
-313.405
-316.154
-317.89
-318.573
-318.179
-316.665
-313.958
-309.977
-304.632
-297.822
-289.439
-279.377
-267.533
-253.813
-238.136
-220.441
-200.695
-178.892
-155.066
-129.287
-101.671
-72.3743
-41.6014
-9.59655
23.3587
56.9323
90.7767
124.522
157.779
190.152
221.248
250.682
278.085
303.114
325.46
344.851
361.051
373.872
383.183
388.903
390.992
389.437
384.388
375.925
364.19
349.394
331.773
311.594
289.153
264.768
238.773
211.51
183.324
154.557
125.541
96.5869
67.985
40.0009
12.8956
-13.1992
-38.0942
-61.6516
-83.7664
-104.362
-123.384
-140.802
-156.598
-170.771
-183.329
-194.286
-203.664
-211.484
-217.773
-222.553
-225.858
-227.689
-228.079
-227.06
-224.642
-220.843
-215.677
-209.159
-201.305
-192.134
-181.668
-169.938
-156.977
-142.833
-127.561
-111.227
-93.9082
-75.6941
-56.6882
-37.007
-16.7812
3.84599
24.717
45.6652
66.5152
87.0839
107.185
126.632
145.242
162.831
179.227
194.268
207.806
219.706
229.854
238.16
244.558
249.003
251.479
251.993
250.58
247.319
242.267
235.533
227.239
217.522
206.536
194.448
181.435
167.68
153.365
138.67
123.772
108.841
94.0322
79.492
65.3512
51.7263
38.7184
26.4135
14.8826
4.22116
-5.61001
-14.548
-22.5744
-29.6832
-35.8783
-41.1718
-45.5834
-49.1389
-51.8698
-53.8128
-55.0046
-55.488
-55.3076
-54.5059
-53.1266
-51.2136
-48.8108
-45.9621
-42.711
-39.1007
-35.1741
-30.9733
-26.5397
-21.9139
-17.1357
-12.2437
-7.2754
-2.26715
2.74318
7.72764
12.6515
17.4847
22.1991
26.7683
31.1684
35.3772
39.3751
43.1445
46.6704
49.9398
52.9422
55.6695
58.1156
60.277
62.1521
63.7417
65.0485
66.0775
66.8353
67.3308
67.5751
67.5573
67.3096
66.8434
66.1712
65.3067
64.2642
63.0583
61.7042
60.2172
58.6124
56.9053
55.1106
53.243
51.3166
49.3449
47.3409
45.3166
43.2835
41.2522
39.2326
37.2335
35.2632
33.3291
31.4375
29.5943
27.8043
26.0719
24.4004
22.7927
21.2511
19.7771
18.3717
17.0356
15.7688
14.5711
13.4416
12.3794
11.3831
10.451
9.58148
8.77241
8.02168
7.327
6.68601
6.09627
5.55532
5.06066
4.60981
4.20031
3.82973
3.49569
3.19591
2.92817
2.69038
2.48051
2.29659
378.683
394.828
407.174
415.602
420.049
420.38
416.531
408.695
396.921
381.347
362.175
339.683
314.232
286.154
255.873
223.774
190.29
155.881
120.934
85.8536
51.0302
16.9576
-16.1221
-48.1902
-78.9628
-108.23
-135.857
-161.727
-185.777
-207.977
-228.311
-246.796
-263.46
-278.343
-291.493
-302.958
-312.79
-321.04
-327.751
-332.965
-336.718
-339.022
-339.883
-339.132
-336.982
-333.371
-328.274
-321.665
-313.482
-303.664
-292.16
-278.9
-263.835
-246.924
-228.115
-207.425
-184.892
-160.551
-134.497
-106.854
-77.7639
-47.4153
-16.0075
16.2608
49.1336
82.2615
115.4
148.235
180.473
211.794
241.872
270.399
297.065
321.544
343.528
362.719
378.829
391.583
400.745
406.141
407.622
405.061
398.489
387.889
373.371
355.099
333.295
308.243
280.274
249.764
217.129
182.816
147.301
111.067
74.6052
38.3992
2.91739
-31.4149
-64.2163
-95.168
-124.023
-150.611
-174.843
-196.702
-216.235
-233.54
-248.75
-262.025
-273.535
-283.444
-291.908
-299.059
-305.006
-309.836
-313.609
-316.357
-318.094
-318.784
-318.401
-316.9
-314.21
-310.248
-304.923
-298.135
-289.776
-279.738
-267.916
-254.217
-238.558
-220.878
-201.14
-179.341
-155.511
-129.721
-102.085
-72.76
-41.9495
-9.89776
23.112
56.7487
90.6633
124.485
157.823
190.279
221.459
250.977
278.462
303.567
325.982
345.433
361.683
374.542
383.878
389.608
391.694
390.131
385.053
376.549
364.766
349.912
332.228
311.98
289.465
265.006
238.936
211.599
183.344
154.511
125.434
96.4263
67.777
39.7524
12.6185
-13.5027
-38.4173
-61.988
-84.1108
-104.71
-123.733
-141.147
-156.939
-171.106
-183.657
-194.607
-203.977
-211.791
-218.072
-222.847
-226.145
-227.971
-228.359
-227.336
-224.915
-221.114
-215.947
-209.427
-201.572
-192.398
-181.93
-170.195
-157.229
-143.078
-127.797
-111.451
-94.1182
-75.8874
-56.8618
-37.1578
-16.9062
3.74967
24.6522
45.6346
66.5205
87.1273
107.267
126.754
145.402
163.03
179.463
194.538
208.107
220.034
230.204
238.527
244.936
249.386
251.862
252.369
250.946
247.666
242.592
235.832
227.508
217.757
206.735
194.61
181.559
167.766
153.414
138.684
123.754
108.791
93.9556
79.391
65.2291
51.5862
38.5636
26.2474
14.7088
4.03912
-5.79518
-14.7345
-22.7604
-29.8671
-36.0586
-41.3473
-45.753
-49.3019
-52.0254
-53.9602
-55.1437
-55.619
-55.43
-54.6198
-53.232
-51.3106
-48.8995
-46.0425
-42.7831
-39.1648
-35.2301
-31.0213
-26.5799
-21.9465
-17.1608
-12.2615
-7.28619
-2.27111
2.74593
7.73668
12.6666
17.5054
22.2251
26.7992
31.2038
35.4167
39.4182
43.1908
46.7194
49.9911
52.9953
55.7239
58.1709
60.3327
62.2078
63.7969
65.1029
66.1306
66.8867
67.3798
67.6206
67.602
67.3523
66.8836
66.2088
65.3415
64.2961
63.0872
61.7301
60.24
58.6323
56.9222
55.1246
53.2542
51.3252
49.3509
47.3445
45.318
43.2828
41.2496
39.2282
37.2275
35.2558
33.3203
31.4277
29.5835
27.7927
26.0596
24.3876
22.7795
21.2376
19.7634
18.3579
17.0218
15.7551
14.5575
13.4283
12.3663
11.3703
10.4387
9.56952
8.76089
8.01061
7.3164
6.67589
6.08665
5.54619
5.05203
4.60167
4.19265
3.82254
3.48897
3.18963
2.92233
2.68495
2.47549
2.29196
379.419
395.64
408.048
416.52
420.99
421.333
417.489
409.617
397.787
382.142
362.884
340.296
314.738
286.548
256.153
223.941
190.347
155.835
120.794
85.628
50.7341
16.6085
-16.5239
-48.6314
-79.4342
-108.721
-136.36
-162.234
-186.28
-208.472
-228.794
-247.264
-263.911
-278.777
-291.91
-303.359
-313.176
-321.412
-328.111
-333.314
-337.057
-339.356
-340.22
-339.474
-337.327
-333.722
-328.635
-322.04
-313.873
-304.073
-292.588
-279.346
-264.298
-247.401
-228.601
-207.916
-185.381
-161.031
-134.961
-107.295
-78.1742
-47.7876
-16.3349
15.9859
48.9212
82.1132
115.321
148.23
180.546
211.95
242.114
270.728
297.483
322.05
344.121
363.393
379.581
392.404
401.62
407.055
408.558
406.008
399.413
388.778
374.205
355.859
333.969
308.816
280.737
250.111
217.355
182.921
147.286
110.936
74.3645
38.0585
2.48823
-31.9178
-64.7767
-95.7684
-124.645
-151.238
-175.46
-197.296
-216.796
-234.061
-249.227
-262.457
-273.925
-283.796
-292.226
-299.349
-305.274
-310.09
-313.854
-316.6
-318.338
-319.038
-318.668
-317.183
-314.512
-310.572
-305.272
-298.512
-290.181
-280.17
-268.377
-254.703
-239.065
-221.402
-201.676
-179.881
-156.046
-130.243
-102.583
-73.2239
-42.3682
-10.2606
22.8152
56.5274
90.5265
124.439
157.874
190.431
221.713
251.331
278.913
304.11
326.609
346.131
362.441
375.347
384.713
390.455
392.538
390.964
385.851
377.298
365.457
350.534
332.773
312.442
289.84
265.291
239.131
211.707
183.366
154.455
125.306
96.2328
67.5266
39.4529
12.2855
-13.8676
-38.8056
-62.3921
-84.5246
-105.128
-124.151
-141.563
-157.349
-171.508
-184.05
-194.992
-204.353
-212.158
-218.432
-223.2
-226.489
-228.311
-228.695
-227.667
-225.243
-221.44
-216.27
-209.749
-201.892
-192.716
-182.244
-170.504
-157.532
-143.372
-128.08
-111.72
-94.3704
-76.1196
-57.0704
-37.3392
-17.0565
3.63379
24.5742
45.5975
66.5268
87.1791
107.366
126.9
145.595
163.269
179.746
194.862
208.468
220.428
230.625
238.969
245.391
249.847
252.321
252.821
251.385
248.082
242.982
236.19
227.83
218.039
206.974
194.804
181.708
167.87
153.473
138.701
123.731
108.732
93.8634
79.2696
65.0822
51.4177
38.3777
26.0477
14.4999
3.82065
-6.01755
-14.9584
-22.9837
-30.0878
-36.275
-41.558
-45.9567
-49.4975
-52.2121
-54.1372
-55.3108
-55.7761
-55.5768
-54.7564
-53.3585
-51.4271
-49.0059
-46.1389
-42.8697
-39.2416
-35.2973
-31.079
-26.6282
-21.9857
-17.191
-12.2829
-7.29912
-2.27585
2.74926
7.74756
12.6846
17.5303
22.2563
26.8364
31.2463
35.4641
39.47
43.2464
46.7783
50.0527
53.0591
55.7892
58.2373
60.3996
62.2747
63.8632
65.1682
66.1943
66.9483
67.4387
67.6757
67.6557
67.4035
66.9319
66.2539
65.3833
64.3344
63.1219
61.7612
60.2675
58.6561
56.9424
55.1414
53.2677
51.3354
49.3581
47.3488
45.3196
43.2819
41.2463
39.2228
37.2202
35.2468
33.3099
31.4159
29.5705
27.7788
26.0449
24.3723
22.7637
21.2214
19.7469
18.3414
17.0053
15.7387
14.5413
13.4123
12.3507
11.355
10.4238
9.55517
8.74706
7.99733
7.30369
6.66376
6.0751
5.53524
5.04167
4.59191
4.18347
3.81392
3.4809
3.1821
2.91532
2.67844
2.46946
2.28639
380.279
396.589
409.069
417.592
422.091
422.448
418.605
410.691
398.797
383.071
363.713
341.011
315.33
287.008
256.479
224.134
190.414
155.782
120.629
85.3631
50.3875
16.1997
-16.9938
-49.1473
-79.9855
-109.296
-136.948
-162.826
-186.869
-209.051
-229.359
-247.811
-264.439
-279.284
-292.397
-303.827
-313.627
-321.846
-328.531
-333.722
-337.454
-339.746
-340.612
-339.872
-337.728
-334.132
-329.057
-322.477
-314.329
-304.55
-293.088
-279.867
-264.839
-247.958
-229.169
-208.489
-185.952
-161.592
-135.504
-107.811
-78.6539
-48.2228
-16.7176
15.6642
48.6725
81.9394
115.228
148.223
180.63
212.131
242.396
271.112
297.97
322.64
344.813
364.181
380.457
393.361
402.642
408.123
409.653
407.112
400.494
389.816
375.178
356.748
334.754
309.484
281.278
250.515
217.618
183.043
147.267
110.781
74.0822
37.6591
1.98552
-32.5068
-65.4327
-96.471
-125.373
-151.972
-176.181
-197.991
-217.451
-234.67
-249.784
-262.962
-274.38
-284.205
-292.596
-299.686
-305.587
-310.385
-314.14
-316.883
-318.624
-319.333
-318.978
-317.512
-314.864
-310.951
-305.68
-298.951
-290.653
-280.676
-268.914
-255.27
-239.658
-222.014
-202.301
-180.511
-156.672
-130.852
-103.165
-73.7664
-42.8581
-10.6856
22.4677
56.2681
90.3656
124.385
157.933
190.608
222.008
251.744
279.44
304.745
327.34
346.947
363.327
376.287
385.688
391.445
393.524
391.934
386.782
378.173
366.263
351.261
333.409
312.981
290.277
265.623
239.358
211.831
183.392
154.389
125.155
96.0061
67.2334
39.1022
11.8964
-14.2943
-39.2595
-62.8644
-85.008
-105.616
-124.639
-142.047
-157.827
-171.978
-184.51
-195.441
-204.792
-212.587
-218.852
-223.611
-226.891
-228.707
-229.086
-228.053
-225.626
-221.819
-216.648
-210.125
-202.265
-193.087
-182.611
-170.865
-157.885
-143.715
-128.41
-112.034
-94.6651
-76.391
-57.3143
-37.5513
-17.2324
3.49817
24.4828
45.5538
66.5338
87.2392
107.481
127.07
145.82
163.547
180.076
195.24
208.89
220.888
231.117
239.484
245.922
250.386
252.858
253.349
251.897
248.569
243.437
236.608
228.206
218.368
207.253
195.031
181.882
167.99
153.542
138.72
123.704
108.663
93.7554
79.1275
64.9104
51.2208
38.1602
25.8142
14.2557
3.56566
-6.27722
-15.22
-23.2445
-30.3456
-36.5278
-41.804
-46.1945
-49.7259
-52.4301
-54.3438
-55.5058
-55.9593
-55.7482
-54.9159
-53.5062
-51.5629
-49.1301
-46.2515
-42.9708
-39.3312
-35.3756
-31.1463
-26.6846
-22.0313
-17.2262
-12.3079
-7.31418
-2.28133
2.75315
7.76028
12.7058
17.5594
22.2928
26.8797
31.296
35.5195
39.5304
43.3114
46.847
50.1246
53.1335
55.8655
58.3148
60.4777
62.3527
63.9407
65.2444
66.2687
67.0203
67.5076
67.7403
67.7184
67.4633
66.9883
66.3066
65.432
64.379
63.1624
61.7975
60.2995
58.6839
56.966
55.161
53.2833
51.3473
49.3665
47.3538
45.3214
43.2808
41.2426
39.2166
37.2118
35.2363
33.2976
31.4021
29.5554
27.7626
26.0277
24.3543
22.7452
21.2024
19.7277
18.3221
16.986
15.7195
14.5223
13.3936
12.3324
11.3372
10.4065
9.53843
8.73092
7.98183
7.28885
6.6496
6.06163
5.52247
5.02959
4.58051
4.17275
3.80387
3.47149
3.17332
2.90714
2.67085
2.46243
2.2799
381.262
397.674
410.237
418.82
423.353
423.726
419.877
411.919
399.952
384.133
364.661
341.828
316.005
287.533
256.851
224.355
190.488
155.719
120.438
85.0582
49.9896
15.7303
-17.532
-49.7383
-80.617
-109.955
-137.621
-163.503
-187.542
-209.712
-230.004
-248.436
-265.041
-279.864
-292.954
-304.362
-314.141
-322.342
-329.011
-334.188
-337.909
-340.194
-341.058
-340.325
-338.187
-334.599
-329.538
-322.977
-314.851
-305.096
-293.659
-280.463
-265.457
-248.595
-229.818
-209.144
-186.605
-162.234
-136.125
-108.402
-79.2033
-48.7214
-17.1561
15.2953
48.3872
81.7399
115.12
148.215
180.725
212.336
242.717
271.55
298.526
323.315
345.603
365.081
381.46
394.456
403.812
409.345
410.907
408.374
401.73
391.004
376.292
357.764
335.653
310.249
281.895
250.977
217.918
183.181
147.244
110.603
73.7575
37.2004
1.4085
-33.1826
-66.1853
-97.2768
-126.208
-152.813
-177.008
-198.786
-218.202
-235.365
-250.421
-263.539
-274.9
-284.673
-293.018
-300.071
-305.943
-310.722
-314.466
-317.206
-318.95
-319.67
-319.332
-317.888
-315.266
-311.383
-306.146
-299.453
-291.193
-281.254
-269.529
-255.919
-240.335
-222.715
-203.017
-181.233
-157.388
-131.551
-103.832
-74.3882
-43.42
-11.1732
22.0688
55.9702
90.1804
124.322
158
190.809
222.346
252.216
280.043
305.47
328.176
347.881
364.341
377.363
386.804
392.579
394.654
393.044
387.846
379.175
367.186
352.092
334.137
313.597
290.776
266.002
239.617
211.972
183.421
154.312
124.981
95.7456
66.897
38.6994
11.451
-14.7833
-39.7795
-63.4052
-85.5613
-106.175
-125.198
-142.602
-158.373
-172.514
-185.035
-195.954
-205.294
-213.077
-219.331
-224.081
-227.351
-229.159
-229.532
-228.494
-226.063
-222.253
-217.079
-210.554
-202.693
-193.511
-183.031
-171.278
-158.289
-144.107
-128.787
-112.394
-95.0024
-76.7016
-57.5936
-37.7944
-17.4342
3.34262
24.3778
45.5035
66.5415
87.3075
107.612
127.264
146.076
163.866
180.453
195.673
209.372
221.414
231.679
240.074
246.529
251.001
253.473
253.953
252.482
249.125
243.959
237.087
228.636
218.744
207.572
195.29
182.08
168.128
153.62
138.742
123.673
108.583
93.6314
78.9644
64.7135
50.9952
37.9111
25.5468
13.976
3.27401
-6.57431
-15.5192
-23.5429
-30.6404
-36.8168
-42.0853
-46.4664
-49.987
-52.6792
-54.58
-55.7288
-56.1688
-55.944
-55.0981
-53.6749
-51.7182
-49.272
-46.3801
-43.0862
-39.4336
-35.4652
-31.2231
-26.749
-22.0835
-17.2664
-12.3364
-7.33136
-2.28754
2.75763
7.77486
12.73
17.5926
22.3346
26.9294
31.3528
35.5828
39.5996
43.3856
46.9257
50.2068
53.2186
55.9528
58.4034
60.567
62.442
64.0292
65.3315
66.3538
67.1027
67.5865
67.8147
67.7903
67.5317
67.0528
66.3668
65.4877
64.4301
63.2087
61.8389
60.336
58.7156
56.993
55.1833
53.3012
51.3609
49.376
47.3595
45.3235
43.2795
41.2382
39.2094
37.2021
35.2243
33.2836
31.3863
29.5381
27.744
26.008
24.3338
22.724
21.1808
19.7058
18.3
16.9639
15.6975
14.5006
13.3723
12.3115
11.3168
10.3867
9.51928
8.71247
7.96411
7.27189
6.63342
6.04624
5.50787
5.01578
4.56749
4.1605
3.79238
3.46074
3.16329
2.8978
2.66218
2.4544
2.27249
382.369
398.895
411.553
420.204
424.778
425.167
421.309
413.3
401.254
385.329
365.729
342.748
316.765
288.123
257.269
224.601
190.569
155.645
120.222
84.7125
49.5394
15.1994
-18.1391
-50.4051
-81.3294
-110.697
-138.38
-164.267
-188.301
-210.458
-230.731
-249.139
-265.719
-280.516
-293.58
-304.963
-314.72
-322.9
-329.55
-334.713
-338.421
-340.698
-341.558
-340.833
-338.702
-335.124
-330.079
-323.538
-315.437
-305.709
-294.301
-281.134
-266.153
-249.312
-230.55
-209.883
-187.342
-162.958
-136.826
-109.067
-79.8229
-49.2839
-17.6507
14.8784
48.0648
81.5144
114.999
148.204
180.832
212.566
243.077
272.043
299.151
324.073
346.492
366.095
382.588
395.688
405.129
410.722
412.319
409.795
403.125
392.343
377.547
358.909
336.665
311.109
282.59
251.495
218.255
183.334
147.217
110.401
73.3898
36.6815
0.756242
-33.9462
-67.0357
-98.187
-127.151
-153.762
-177.941
-199.682
-219.047
-236.148
-251.137
-264.188
-275.484
-285.198
-293.492
-300.503
-306.342
-311.1
-314.831
-317.568
-319.316
-320.048
-319.73
-318.311
-315.718
-311.869
-306.671
-300.018
-291.8
-281.904
-270.221
-256.649
-241.099
-223.504
-203.824
-182.046
-158.196
-132.339
-104.585
-75.09
-44.0544
-11.724
21.6175
55.633
89.9701
124.249
158.074
191.034
222.725
252.747
280.721
306.286
329.118
348.932
365.484
378.575
388.061
393.856
395.928
394.293
389.045
380.302
368.226
353.028
334.956
314.29
291.337
266.428
239.908
212.13
183.452
154.223
124.784
95.4509
66.5168
38.2431
10.9496
-15.3351
-40.3658
-64.0148
-86.1847
-106.805
-125.828
-143.226
-158.989
-173.118
-185.626
-196.532
-205.858
-213.629
-219.871
-224.609
-227.869
-229.669
-230.035
-228.991
-226.554
-222.741
-217.565
-211.038
-203.174
-193.988
-183.503
-171.743
-158.744
-144.549
-129.213
-112.799
-95.3825
-77.0518
-57.9086
-38.0685
-17.6619
3.16682
24.2591
45.4463
66.5496
87.3839
107.759
127.482
146.365
164.224
180.878
196.16
209.916
222.007
232.313
240.738
247.214
251.695
254.165
254.634
253.141
249.752
244.546
237.626
229.12
219.168
207.931
195.582
182.303
168.282
153.708
138.766
123.637
108.492
93.4912
78.7803
64.4912
50.7406
37.6301
25.2453
13.6605
2.94552
-6.90896
-15.8562
-23.8789
-30.9725
-37.1423
-42.402
-46.7725
-50.2809
-52.9596
-54.8458
-55.9796
-56.4044
-56.1643
-55.3032
-53.8647
-51.8929
-49.4316
-46.5248
-43.2161
-39.5488
-35.5659
-31.3096
-26.8214
-22.1421
-17.3116
-12.3685
-7.35065
-2.29449
2.7627
7.79131
12.7572
17.6301
22.3816
26.9853
31.4168
35.6542
39.6775
43.4693
47.0142
50.2994
53.3144
56.051
58.5032
60.6676
62.5426