/*--------------------------------*- C++ -*----------------------------------*\
| =========                 |                                                 |
| \\      /  F ield         | OpenFOAM: The Open Source CFD Toolbox           |
|  \\    /   O peration     | Version:  3.0.1                                 |
|   \\  /    A nd           | Web:      www.OpenFOAM.org                      |
|    \\/     M anipulation  |                                                 |
\*---------------------------------------------------------------------------*/
FoamFile
{
    version     2.0;
    format      ascii;
    class       volScalarField;
    location    "78.6";
    object      p_rgh;
}
// * * * * * * * * * * * * * * * * * * * * * * * * * * * * * * * * * * * * * //

dimensions      [1 -1 -2 0 0 0 0];

internalField   nonuniform List<scalar> 
21420
(
405.959
392.769
375.966
355.74
332.333
306.057
277.267
246.336
213.641
179.62
144.68
109.213
73.6242
38.2959
3.72939
-24.0519
-56.2924
-87.3562
-116.873
-144.66
-170.628
-194.721
-216.903
-237.172
-255.547
-272.055
-286.742
-299.654
-310.848
-320.378
-328.297
-334.655
-339.498
-342.863
-344.778
-345.228
-344.24
-341.82
-337.922
-332.556
-325.68
-317.275
-307.286
-295.668
-282.389
-267.397
-250.631
-232.076
-211.706
-189.49
-165.445
-139.618
-112.048
-82.8386
-52.0857
-19.968
9.6026
43.4138
77.674
112.01
146.101
179.575
212.051
243.158
272.522
299.771
324.568
346.587
365.527
381.129
393.17
401.449
405.863
406.244
402.644
395.012
383.416
368.051
349.105
326.838
301.567
273.621
243.363
211.208
177.578
142.892
107.568
72.016
36.6283
1.76285
-32.2038
-65.1014
-96.6185
-126.532
-154.66
-180.862
-205.037
-227.122
-247.093
-264.959
-280.758
-294.547
-306.402
-316.4
-324.621
-331.144
-336.039
-339.372
-341.203
-341.553
-340.442
-337.945
-334.043
-328.733
-322.011
-313.87
-304.295
-293.267
-280.77
-266.784
-251.296
-234.286
-215.742
-195.659
-174.036
-150.881
-126.22
-100.09
-72.555
-43.7037
-13.66
17.426
49.3324
81.8108
114.574
147.304
179.641
211.204
241.589
270.381
297.164
321.532
343.096
361.493
376.396
387.531
394.679
397.648
396.396
390.878
381.2
367.428
349.79
328.553
304.045
276.647
246.784
214.916
181.519
147.077
112.069
76.9547
42.1571
8.07028
-24.9856
-56.7215
-86.9085
-115.372
-141.987
-166.676
-189.402
-210.161
-228.976
-245.897
-260.981
-274.296
-285.918
-295.915
-304.349
-311.276
-316.745
-320.802
-323.509
-324.897
-324.989
-323.846
-321.501
-317.944
-313.176
-307.184
-299.943
-291.409
-281.537
-270.287
-257.607
-243.454
-227.79
-210.577
-191.779
-171.37
-149.337
-125.687
-100.454
-73.7071
-45.5483
-16.1196
14.4056
45.8139
77.8543
110.196
142.523
174.475
205.659
235.665
264.067
290.442
314.375
335.469
353.358
367.714
378.264
384.796
387.132
385.276
379.186
368.993
354.823
336.939
315.644
291.298
264.304
235.096
204.127
171.851
138.72
105.168
71.6055
38.4183
5.93396
-25.5464
-55.7741
-84.546
-111.704
-137.137
-160.772
-182.568
-202.517
-220.628
-236.93
-251.47
-264.299
-275.476
-285.065
-293.129
-299.734
-304.94
-308.797
-311.356
-312.667
-312.758
-311.638
-309.33
-305.881
-301.27
-295.494
-288.541
-280.392
-271.026
-260.404
-248.487
-235.248
-220.654
-204.653
-187.207
-168.311
-147.93
-126.051
-102.684
-77.8629
-51.6386
-24.1117
4.58729
34.2934
64.8316
95.9069
127.131
158.232
188.843
218.554
246.955
273.601
298.032
319.839
338.613
353.975
365.629
373.338
376.936
376.258
371.397
362.401
349.443
332.798
312.822
289.858
264.314
236.653
207.321
176.789
145.502
113.911
82.4174
51.3898
21.4831
-6.97014
-34.7056
-61.3012
-86.602
-110.526
-133.053
-154.198
-173.989
-192.466
-209.671
-225.633
-240.378
-253.907
-266.214
-277.285
-287.085
-295.579
-302.724
-308.47
-312.767
-315.581
-316.834
-316.455
-314.348
-310.523
-304.919
-297.53
-288.356
-277.378
-264.606
-250.051
-233.741
-215.721
-196.05
-174.793
-152.049
-127.945
-102.629
-76.3397
-49.3903
-22.3458
1.39149
16.9831
406.111
392.91
376.095
355.855
332.432
306.138
277.331
246.381
213.668
179.629
144.673
109.191
73.5895
38.2462
3.6508
-24.1007
-56.3684
-87.4394
-116.959
-144.747
-170.715
-194.807
-216.988
-237.255
-255.627
-272.132
-286.816
-299.725
-310.915
-320.443
-328.36
-334.716
-339.557
-342.921
-344.834
-345.283
-344.297
-341.878
-337.98
-332.615
-325.741
-317.338
-307.351
-295.736
-282.459
-267.47
-250.707
-232.155
-211.787
-189.571
-165.528
-139.7
-112.129
-82.918
-52.1618
-20.0374
9.55412
43.375
77.6453
111.993
146.098
179.588
212.08
243.203
272.584
299.849
324.663
346.697
365.649
381.263
393.314
401.602
406.021
406.404
402.793
395.16
383.557
368.182
349.222
326.94
301.652
273.688
243.411
211.238
177.59
142.886
107.546
71.9784
36.577
1.69987
-32.2774
-65.1836
-96.7078
-126.627
-154.758
-180.962
-205.137
-227.221
-247.19
-265.053
-280.849
-294.635
-306.485
-316.479
-324.697
-331.217
-336.109
-339.44
-341.269
-341.615
-340.506
-338.009
-334.106
-328.796
-322.075
-313.936
-304.361
-293.335
-280.839
-266.855
-251.368
-234.36
-215.817
-195.736
-174.114
-150.96
-126.299
-100.167
-72.6306
-43.7764
-13.7276
17.3643
49.2796
81.7681
114.544
147.288
179.64
211.22
241.622
270.433
297.235
321.621
343.203
361.615
376.532
387.678
394.834
397.813
396.553
391.033
381.348
367.566
349.914
328.661
304.134
276.716
246.833
214.943
181.525
147.064
112.038
76.9078
42.0964
7.99799
-25.0669
-56.8096
-87.0013
-115.467
-142.084
-166.772
-189.496
-210.252
-229.065
-245.982
-261.062
-274.373
-285.992
-295.986
-304.417
-311.341
-316.808
-320.864
-323.568
-324.954
-325.043
-323.901
-321.555
-317.999
-313.231
-307.241
-300.001
-291.469
-281.6
-270.352
-257.675
-243.524
-227.863
-210.653
-191.857
-171.449
-149.418
-125.767
-100.533
-73.7843
-45.6219
-16.1879
14.344
45.7613
77.8124
110.166
142.508
174.475
205.677
235.701
264.122
290.517
314.467
335.579
353.484
367.853
378.414
384.953
387.296
385.433
379.339
369.139
354.957
337.057
315.745
291.38
264.365
235.138
204.148
171.854
138.705
105.137
71.5603
38.3608
5.86634
-25.6221
-55.8558
-84.6319
-111.793
-137.227
-160.861
-182.656
-202.603
-220.712
-237.012
-251.548
-264.374
-275.547
-285.133
-293.195
-299.797
-305
-308.855
-311.412
-312.721
-312.811
-311.689
-309.382
-305.933
-301.322
-295.546
-288.593
-280.446
-271.081
-260.461
-248.546
-235.309
-220.717
-204.718
-187.274
-168.38
-148.001
-126.122
-102.756
-77.9347
-51.7084
-24.1792
4.52397
34.2357
64.782
95.8684
127.105
158.22
188.847
218.577
246.998
273.664
298.116
319.943
338.736
354.113
365.779
373.497
377.099
376.429
371.549
362.549
349.58
332.92
312.926
289.944
264.38
236.698
207.346
176.795
145.491
113.884
82.3768
51.3381
21.4278
-7.03354
-34.7726
-61.3699
-86.6707
-110.594
-133.118
-154.261
-174.049
-192.523
-209.726
-225.687
-240.43
-253.958
-266.266
-277.337
-287.139
-295.634
-302.78
-308.528
-312.826
-315.643
-316.897
-316.519
-314.416
-310.591
-304.988
-297.601
-288.429
-277.451
-264.68
-250.125
-233.815
-215.793
-196.121
-174.862
-152.115
-128.008
-102.686
-76.391
-49.4344
-22.3815
1.3737
16.9574
406.413
393.193
376.353
356.084
332.629
306.301
277.457
246.471
213.722
179.648
144.66
109.148
73.5203
38.1475
3.49658
-24.2013
-56.5211
-87.6061
-117.131
-144.921
-170.889
-194.979
-217.157
-237.419
-255.786
-272.286
-286.963
-299.867
-311.051
-320.573
-328.485
-334.837
-339.674
-343.035
-344.947
-345.393
-344.413
-341.992
-338.095
-332.733
-325.862
-317.464
-307.481
-295.871
-282.6
-267.616
-250.858
-232.311
-211.947
-189.735
-165.692
-139.864
-112.291
-83.0758
-52.313
-20.1763
9.45897
43.2985
77.5887
111.961
146.094
179.614
212.139
243.295
272.71
300.008
324.853
346.916
365.896
381.534
393.604
401.907
406.333
406.729
403.097
395.458
383.843
368.446
349.46
327.148
301.827
273.827
243.514
211.305
177.621
142.882
107.509
71.9126
36.4848
1.58482
-32.4132
-65.3363
-96.8739
-126.803
-154.941
-181.149
-205.325
-227.407
-247.371
-265.229
-281.017
-294.795
-306.637
-316.623
-324.834
-331.347
-336.234
-339.561
-341.386
-341.725
-340.619
-338.121
-334.217
-328.909
-322.19
-314.052
-304.48
-293.456
-280.963
-266.982
-251.497
-234.492
-215.952
-195.874
-174.253
-151.1
-126.439
-100.306
-72.7656
-43.9057
-13.8476
17.2576
49.1896
81.6983
114.498
147.269
179.653
211.266
241.704
270.552
297.392
321.814
343.43
361.873
376.818
387.986
395.157
398.157
396.877
391.355
381.657
367.854
350.175
328.889
304.325
276.867
246.942
215.01
181.551
147.05
111.989
76.827
41.9881
7.86646
-25.2164
-56.9726
-87.1734
-115.645
-142.263
-166.95
-189.67
-210.421
-229.227
-246.137
-261.209
-274.514
-286.126
-296.113
-304.538
-311.458
-316.92
-320.973
-323.673
-325.054
-325.139
-323.998
-321.651
-318.095
-313.329
-307.342
-300.105
-291.577
-281.713
-270.469
-257.797
-243.651
-227.995
-210.789
-191.998
-171.594
-149.564
-125.914
-100.679
-73.9253
-45.7558
-16.3112
14.2342
45.6689
77.7414
110.12
142.49
174.489
205.725
235.785
264.244
290.676
314.664
335.81
353.747
368.143
378.724
385.278
387.636
385.756
379.658
369.44
355.235
337.305
315.958
291.554
264.5
235.232
204.203
171.87
138.686
105.086
71.4812
38.2571
5.74259
-25.7618
-56.0075
-84.7919
-111.958
-137.394
-161.028
-182.821
-202.764
-220.868
-237.161
-251.691
-264.511
-275.678
-285.258
-293.313
-299.91
-305.108
-308.959
-311.512
-312.819
-312.907
-311.779
-309.474
-306.025
-301.414
-295.64
-288.689
-280.544
-271.182
-260.566
-248.656
-235.422
-220.835
-204.841
-187.402
-168.511
-148.136
-126.26
-102.896
-78.0735
-51.8439
-24.3101
4.40098
34.1237
64.6858
95.7941
127.054
158.198
188.859
218.625
247.085
273.792
298.286
320.153
338.982
354.391
366.082
373.816
377.426
376.771
371.857
362.847
349.854
333.165
313.136
290.115
264.511
236.789
207.398
176.808
145.469
113.829
82.2956
51.2348
21.317
-7.1604
-34.9067
-61.5075
-86.8083
-110.729
-133.248
-154.386
-174.168
-192.637
-209.835
-225.793
-240.534
-254.062
-266.37
-277.442
-287.245
-295.743
-302.892
-308.643
-312.946
-315.765
-317.021
-316.649
-314.551
-310.727
-305.128
-297.743
-288.573
-277.598
-264.827
-250.273
-233.962
-215.938
-196.263
-175
-152.247
-128.132
-102.801
-76.4936
-49.5226
-22.4529
1.3382
16.9058
406.868
393.617
376.74
356.428
332.925
306.546
277.648
246.607
213.802
179.677
144.64
109.084
73.4164
38.0011
3.27708
-24.3646
-56.752
-87.8566
-117.389
-145.182
-171.15
-195.238
-217.41
-237.667
-256.025
-272.516
-287.185
-300.079
-311.255
-320.768
-328.673
-335.019
-339.85
-343.207
-345.115
-345.559
-344.585
-342.163
-338.269
-332.91
-326.044
-317.652
-307.676
-296.074
-282.811
-267.835
-251.085
-232.545
-212.187
-189.979
-165.939
-140.11
-112.534
-83.3126
-52.5404
-20.3859
9.31682
43.1837
77.5036
111.912
146.087
179.653
212.227
243.433
272.898
300.246
325.139
347.246
366.265
381.939
394.038
402.363
406.801
407.213
403.558
395.907
384.272
368.844
349.819
327.461
302.09
274.036
243.669
211.406
177.668
142.878
107.456
71.815
36.3475
1.41366
-32.6156
-65.5638
-97.1216
-127.066
-155.214
-181.428
-205.604
-227.683
-247.641
-265.489
-281.266
-295.033
-306.862
-316.837
-325.037
-331.541
-336.42
-339.74
-341.559
-341.89
-340.787
-338.286
-334.382
-329.076
-322.359
-314.224
-304.655
-293.635
-281.146
-267.169
-251.689
-234.687
-216.153
-196.077
-174.46
-151.309
-126.647
-100.513
-72.966
-44.0972
-14.0259
17.1001
49.0571
81.596
114.432
147.245
179.675
211.339
241.83
270.733
297.628
322.106
343.773
362.264
377.249
388.45
395.644
398.667
397.373
391.845
382.124
368.29
350.57
329.234
304.614
277.095
247.108
215.113
181.592
147.033
111.918
76.7078
41.8277
7.67124
-25.4386
-57.215
-87.4296
-115.909
-142.529
-167.215
-189.93
-210.673
-229.469
-246.368
-261.429
-274.722
-286.324
-296.302
-304.719
-311.631
-317.087
-321.134
-323.829
-325.201
-325.284
-324.141
-321.792
-318.237
-313.474
-307.49
-300.258
-291.736
-281.88
-270.644
-257.979
-243.84
-228.191
-210.992
-192.207
-171.809
-149.783
-126.133
-100.895
-74.135
-45.9549
-16.4945
14.0713
45.532
77.6368
110.053
142.466
174.512
205.8
235.914
264.429
290.918
314.961
336.159
354.143
368.58
379.193
385.767
388.144
386.247
380.14
369.895
355.655
337.68
316.28
291.818
264.704
235.375
204.286
171.897
138.66
105.011
71.3643
38.1034
5.55875
-25.9697
-56.2334
-85.0302
-112.204
-137.644
-161.276
-183.065
-203.003
-221.099
-237.384
-251.906
-264.715
-275.873
-285.443
-293.49
-300.078
-305.269
-309.113
-311.662
-312.964
-313.046
-311.914
-309.613
-306.162
-301.552
-295.78
-288.832
-280.691
-271.333
-260.723
-248.82
-235.592
-221.012
-205.025
-187.593
-168.708
-148.338
-126.467
-103.105
-78.2817
-52.0474
-24.5066
4.21624
33.9555
64.541
95.6823
126.979
158.166
188.875
218.696
247.215
273.984
298.54
320.467
339.351
354.808
366.535
374.295
377.914
377.275
372.326
363.294
350.266
333.532
313.45
290.372
264.708
236.925
207.474
176.827
145.436
113.746
82.1734
51.0798
21.1504
-7.35099
-35.108
-61.714
-87.0148
-110.931
-133.444
-154.573
-174.347
-192.808
-210
-225.952
-240.69
-254.217
-266.525
-277.599
-287.405
-295.906
-303.06
-308.816
-313.124
-315.948
-317.205
-316.847
-314.752
-310.932
-305.337
-297.956
-288.79
-277.817
-265.048
-250.494
-234.182
-216.156
-196.477
-175.208
-152.446
-128.319
-102.973
-76.6477
-49.6551
-22.56
1.28502
16.8282
407.474
394.183
377.257
356.886
333.32
306.872
277.902
246.787
213.91
179.714
144.613
108.998
73.278
37.8088
3.01169
-24.6107
-57.0633
-88.1914
-117.734
-145.531
-171.498
-195.583
-217.749
-237.996
-256.344
-272.824
-287.48
-300.362
-311.526
-321.029
-328.924
-335.261
-340.085
-343.436
-345.339
-345.784
-344.813
-342.391
-338.5
-333.146
-326.286
-317.903
-307.936
-296.345
-283.092
-268.127
-251.388
-232.858
-212.508
-190.306
-166.269
-140.439
-112.858
-83.6287
-52.8441
-20.6666
9.12795
43.0303
77.3896
111.847
146.078
179.706
212.344
243.617
273.15
300.564
325.52
347.686
366.758
382.481
394.618
402.971
407.425
407.851
404.182
396.508
384.845
369.374
350.296
327.878
302.441
274.314
243.875
211.54
177.73
142.871
107.384
71.6849
36.1642
1.18549
-32.8859
-65.8673
-97.452
-127.416
-155.578
-181.799
-205.977
-228.052
-248.001
-265.837
-281.599
-295.349
-307.163
-317.122
-325.307
-331.798
-336.666
-339.977
-341.787
-342.113
-341.01
-338.506
-334.603
-329.298
-322.584
-314.453
-304.888
-293.873
-281.39
-267.419
-251.944
-234.948
-216.419
-196.349
-174.735
-151.587
-126.925
-100.787
-73.2333
-44.352
-14.2628
16.8895
48.8804
81.4599
114.345
147.212
179.704
211.435
241.998
270.975
297.945
322.495
344.232
362.786
377.826
389.07
396.294
399.334
398.046
392.504
382.749
368.873
351.097
329.695
305
277.401
247.33
215.25
181.647
147.01
111.824
76.5488
41.6138
7.41096
-25.7349
-57.5383
-87.7711
-116.261
-142.885
-167.568
-190.277
-211.009
-229.792
-246.676
-261.722
-275
-286.588
-296.554
-304.959
-311.862
-317.309
-321.349
-324.034
-325.397
-325.478
-324.332
-321.98
-318.425
-313.666
-307.688
-300.462
-291.949
-282.102
-270.876
-258.22
-244.092
-228.452
-211.262
-192.486
-172.095
-150.074
-126.425
-101.183
-74.4146
-46.2203
-16.7388
13.854
45.3492
77.4975
109.963
142.433
174.543
205.899
236.086
264.676
291.241
315.358
336.626
354.673
369.163
379.819
386.42
388.817
386.914
380.787
370.504
356.216
338.18
316.71
292.171
264.976
235.566
204.397
171.933
138.625
104.912
71.2084
37.8985
5.31364
-26.2469
-56.5346
-85.348
-112.532
-137.976
-161.607
-183.392
-203.321
-221.407
-237.682
-252.19
-264.987
-276.132
-285.689
-293.724
-300.302
-305.483
-309.319
-311.86
-313.156
-313.23
-312.097
-309.796
-306.344
-301.735
-295.966
-289.023
-280.887
-271.535
-260.932
-249.039
-235.819
-221.247
-205.271
-187.849
-168.971
-148.608
-126.743
-103.385
-78.5596
-52.3191
-24.769
3.96949
33.7306
64.3474
95.5324
126.877
158.121
188.896
218.789
247.388
274.24
298.878
320.886
339.844
355.363
367.141
374.933
378.569
377.942
372.959
363.892
350.816
334.021
313.87
290.714
264.971
237.107
207.576
176.852
145.391
113.636
82.0098
50.8732
20.9274
-7.60567
-35.3768
-61.9896
-87.2904
-111.201
-133.705
-154.823
-174.586
-193.036
-210.219
-226.165
-240.899
-254.423
-266.732
-277.808
-287.618
-296.124
-303.284
-309.046
-313.362
-316.191
-317.454
-317.11
-315.021
-311.205
-305.616
-298.241
-289.08
-278.11
-265.343
-250.789
-234.476
-216.446
-196.762
-175.484
-152.711
-128.568
-103.202
-76.8533
-49.8318
-22.7029
1.21424
16.7243
408.232
394.891
377.902
357.46
333.813
307.279
278.219
247.012
214.044
179.761
144.578
108.89
73.105
37.5717
2.69836
-24.9381
-57.4565
-88.6111
-118.166
-145.967
-171.934
-196.014
-218.172
-238.408
-256.743
-273.208
-287.849
-300.716
-311.865
-321.354
-329.237
-335.563
-340.379
-343.722
-345.619
-346.065
-345.098
-342.675
-338.788
-333.441
-326.59
-318.217
-308.261
-296.683
-283.444
-268.491
-251.767
-233.249
-212.91
-190.715
-166.681
-140.85
-113.264
-84.0242
-53.2249
-21.02
8.89333
42.8383
77.2463
111.764
146.065
179.77
212.489
243.846
273.464
300.96
325.996
348.236
367.375
383.158
395.343
403.73
408.206
408.643
404.967
397.262
385.562
370.038
350.894
328.401
302.88
274.662
244.132
211.707
177.807
142.863
107.295
71.5217
35.934
0.899752
-33.2245
-66.2475
-97.8658
-127.855
-156.034
-182.263
-206.443
-228.513
-248.451
-266.272
-282.016
-295.746
-307.539
-317.478
-325.645
-332.12
-336.975
-340.273
-342.071
-342.393
-341.287
-338.781
-334.878
-329.575
-322.865
-314.739
-305.18
-294.171
-281.694
-267.731
-252.263
-235.275
-216.752
-196.688
-175.079
-151.934
-127.272
-101.131
-73.5679
-44.6709
-14.559
16.6251
48.6589
81.2892
114.234
147.171
179.741
211.556
242.208
271.277
298.341
322.983
344.806
363.439
378.547
389.847
397.108
400.165
398.889
393.329
383.533
369.603
351.757
330.272
305.484
277.784
247.607
215.422
181.716
146.981
111.704
76.3493
41.3457
7.08476
-26.1061
-57.9431
-88.1987
-116.701
-143.33
-168.01
-190.71
-211.429
-230.196
-247.061
-262.088
-275.348
-286.918
-296.868
-305.26
-312.151
-317.588
-321.617
-324.291
-325.643
-325.721
-324.57
-322.215
-318.662
-313.906
-307.935
-300.717
-292.215
-282.38
-271.166
-258.522
-244.407
-228.778
-211.599
-192.835
-172.453
-150.438
-126.79
-101.545
-74.765
-46.5526
-17.0451
13.5816
45.1198
77.3227
109.851
142.391
174.581
206.023
236.301
264.985
291.645
315.854
337.21
355.335
369.894
380.602
387.239
389.652
387.751
381.597
371.267
356.918
338.806
317.248
292.613
265.317
235.805
204.536
171.976
138.58
104.787
71.0126
37.6418
5.00647
-26.5942
-56.9118
-85.7461
-112.942
-138.391
-162.022
-183.8
-203.72
-221.793
-238.053
-252.547
-265.327
-276.455
-285.997
-294.018
-300.582
-305.75
-309.575
-312.108
-313.395
-313.461
-312.327
-310.025
-306.571
-301.964
-296.198
-289.261
-281.132
-271.787
-261.194
-249.312
-236.103
-221.542
-205.578
-188.168
-169.3
-148.946
-127.089
-103.735
-78.9072
-52.6595
-25.0976
3.66044
33.4489
64.1044
95.3439
126.749
158.064
188.921
218.906
247.604
274.56
299.302
321.409
340.46
356.059
367.899
375.733
379.387
378.767
373.758
364.642
351.504
334.634
314.394
291.142
265.299
237.333
207.704
176.883
145.334
113.497
81.8042
50.6148
20.6472
-7.92482
-35.7134
-62.3347
-87.6354
-111.539
-134.032
-155.136
-174.884
-193.321
-210.493
-226.43
-241.159
-254.682
-266.991
-278.07
-287.884
-296.397
-303.563
-309.334
-313.659
-316.494
-317.767
-317.437
-315.355
-311.546
-305.965
-298.597
-289.442
-278.476
-265.712
-251.159
-234.843
-216.809
-197.118
-175.83
-153.042
-128.88
-103.489
-77.1106
-50.053
-22.8816
1.1259
16.5937
409.143
395.741
378.678
358.148
334.406
307.768
278.599
247.282
214.204
179.816
144.535
108.759
72.8972
37.2908
2.33621
-25.3473
-57.9333
-89.1163
-118.684
-146.492
-172.458
-196.532
-218.68
-238.903
-257.222
-273.669
-288.292
-301.141
-312.272
-321.745
-329.612
-335.926
-340.731
-344.065
-345.955
-346.402
-345.439
-343.015
-339.135
-333.795
-326.954
-318.593
-308.651
-297.088
-283.866
-268.929
-252.221
-233.719
-213.392
-191.205
-167.176
-141.344
-113.751
-84.4992
-53.6833
-21.4491
8.61502
42.607
77.0731
111.664
146.05
179.847
212.664
244.121
273.84
301.437
326.567
348.896
368.116
383.97
396.212
404.642
409.144
409.593
405.909
398.169
386.424
370.835
351.611
329.028
303.406
275.079
244.44
211.907
177.899
142.852
107.186
71.3247
35.6566
0.555804
-33.632
-66.705
-98.3635
-128.383
-156.582
-182.822
-207.003
-229.067
-248.992
-266.794
-282.516
-296.221
-307.99
-317.906
-326.051
-332.507
-337.344
-340.628
-342.413
-342.729
-341.619
-339.111
-335.208
-329.908
-323.203
-315.082
-305.53
-294.529
-282.06
-268.106
-252.646
-235.667
-217.153
-197.096
-175.493
-152.352
-127.69
-101.544
-73.9702
-45.0545
-14.9153
16.3063
48.3917
81.0833
114.101
147.121
179.783
211.699
242.459
271.64
298.816
323.568
345.496
364.223
379.414
390.78
398.087
401.167
399.9
394.319
384.475
370.48
352.55
330.965
306.064
278.243
247.94
215.628
181.797
146.945
111.56
76.1085
41.0223
6.69213
-26.5529
-58.4304
-88.7131
-117.231
-143.865
-168.542
-191.231
-211.933
-230.681
-247.524
-262.527
-275.765
-287.314
-297.246
-305.622
-312.498
-317.922
-321.938
-324.599
-325.94
-326.012
-324.854
-322.497
-318.945
-314.194
-308.231
-301.024
-292.534
-282.714
-271.515
-258.885
-244.784
-229.17
-212.005
-193.254
-172.884
-150.875
-127.23
-101.979
-75.1865
-46.9523
-17.4141
13.2538
44.843
77.112
109.715
142.34
174.625
206.17
236.558
265.356
292.129
316.45
337.911
356.131
370.771
381.544
388.223
390.651
388.755
382.57
372.185
357.761
339.557
317.893
293.142
265.725
236.09
204.702
172.028
138.525
104.637
70.7764
37.3324
4.63656
-27.0121
-57.3657
-86.2249
-113.436
-138.89
-162.519
-184.29
-204.198
-222.256
-238.499
-252.974
-265.735
-276.844
-286.367
-294.37
-300.917
-306.071
-309.883
-312.405
-313.682
-313.74
-312.603
-310.299
-306.844
-302.239
-296.477
-289.546
-281.426
-272.089
-261.508
-249.64
-236.443
-221.895
-205.946
-188.551
-169.695
-149.352
-127.504
-104.155
-79.3247
-53.0688
-25.4926
3.28876
33.1099
63.8114
95.1162
126.594
157.995
188.951
219.045
247.862
274.942
299.81
322.038
341.2
356.894
368.809
376.694
380.371
379.749
374.719
365.545
352.331
335.369
315.023
291.656
265.693
237.604
207.855
176.919
145.264
113.329
81.5558
50.3046
20.3088
-8.30886
-36.118
-62.7497
-88.05
-111.945
-134.424
-155.511
-175.242
-193.663
-210.821
-226.749
-241.471
-254.991
-267.301
-278.383
-288.204
-296.723
-303.899
-309.679
-314.014
-316.858
-318.144
-317.827
-315.756
-311.956
-306.384
-299.024
-289.876
-278.916
-266.155
-251.602
-235.284
-217.246
-197.546
-176.246
-153.44
-129.255
-103.835
-77.4199
-50.3187
-23.0962
1.02009
16.436
410.207
396.734
379.583
358.952
335.097
308.338
279.042
247.596
214.389
179.878
144.484
108.605
72.6544
36.967
1.92555
-25.8399
-58.4951
-89.7077
-119.29
-147.104
-173.069
-197.136
-219.274
-239.481
-257.781
-274.207
-288.809
-301.636
-312.747
-322.2
-330.051
-336.349
-341.142
-344.466
-346.349
-346.796
-345.834
-343.411
-339.539
-334.207
-327.379
-319.032
-309.106
-297.561
-284.359
-269.44
-252.751
-234.267
-213.954
-191.778
-167.754
-141.921
-114.321
-85.0538
-54.2201
-21.9577
8.29607
42.3361
76.8695
111.546
146.03
179.936
212.867
244.442
274.279
301.992
327.234
349.666
368.981
384.919
397.228
405.708
410.24
410.701
407.009
399.23
387.431
371.766
352.449
329.76
304.019
275.565
244.8
212.14
178.006
142.838
107.059
71.0934
35.3315
0.152892
-34.1089
-67.2404
-98.9459
-129
-157.223
-183.475
-207.658
-229.714
-249.624
-267.404
-283.099
-296.777
-308.517
-318.405
-326.525
-332.958
-337.776
-341.043
-342.813
-343.12
-342.007
-339.496
-335.594
-330.297
-323.597
-315.483
-305.939
-294.946
-282.487
-268.543
-253.094
-236.124
-217.62
-197.572
-175.977
-152.84
-128.178
-102.027
-74.4408
-45.5034
-15.3325
15.9327
48.0782
80.8417
113.943
147.061
179.832
211.866
242.751
272.062
299.369
324.25
346.3
365.139
380.427
391.87
399.231
402.338
401.081
395.474
385.576
371.504
353.477
331.774
306.741
278.778
248.327
215.867
181.891
146.901
111.39
75.8258
40.6429
6.23214
-27.0762
-59.0007
-89.3151
-117.851
-144.491
-169.163
-191.839
-212.523
-231.247
-248.064
-263.041
-276.251
-287.777
-297.687
-306.043
-312.903
-318.312
-322.314
-324.959
-326.288
-326.349
-325.187
-322.826
-319.276
-314.531
-308.576
-301.382
-292.907
-283.104
-271.922
-259.31
-245.226
-229.628
-212.48
-193.744
-173.387
-151.387
-127.744
-102.487
-75.6797
-47.4202
-17.8461
12.8698
44.518
76.8649
109.554
142.279
174.675
206.341
236.857
265.787
292.694
317.145
338.729
357.061
371.796
382.644
389.374
391.826
389.927
383.706
373.257
358.747
340.435
318.647
293.76
266.201
236.423
204.894
172.087
138.46
104.459
70.4989
36.9696
4.20318
-27.5013
-57.8968
-86.7851
-114.013
-139.474
-163.101
-184.864
-204.757
-222.797
-239.02
-253.473
-266.211
-277.297
-286.798
-294.78
-301.309
-306.445
-310.242
-312.751
-314.017
-314.065
-312.924
-310.618
-307.163
-302.56
-296.802
-289.879
-281.768
-272.443
-261.875
-250.022
-236.841
-222.308
-206.375
-188.999
-170.156
-149.826
-127.988
-104.645
-79.8122
-53.5475
-25.9543
2.85395
32.713
63.4677
94.8486
126.411
157.912
188.983
219.206
248.162
275.388
300.402
322.772
342.064
357.87
369.873
377.818
381.523
380.9
375.84
366.599
353.296
336.228
315.757
292.256
266.151
237.92
208.031
176.96
145.181
113.132
81.2637
49.9423
19.9107
-8.75803
-36.591
-63.2348
-88.5347
-112.42
-134.881
-155.949
-175.659
-194.062
-211.204
-227.12
-241.835
-255.352
-267.663
-278.749
-288.577
-297.105
-304.29
-310.082
-314.429
-317.284
-318.584
-318.283
-316.223
-312.435
-306.873
-299.523
-290.383
-279.429
-266.672
-252.12
-235.799
-217.755
-198.045
-176.731
-153.906
-129.694
-104.238
-77.7814
-50.6291
-23.3467
0.896831
16.2507
411.425
397.87
380.618
359.871
335.887
308.989
279.548
247.954
214.6
179.948
144.423
108.428
72.3759
36.6008
1.46792
-26.4189
-59.1436
-90.3859
-119.983
-147.805
-173.769
-197.828
-219.952
-240.142
-258.421
-274.823
-289.399
-302.202
-313.289
-322.72
-330.551
-336.832
-341.611
-344.924
-346.799
-347.245
-346.286
-343.864
-340
-334.679
-327.865
-319.533
-309.626
-298.102
-284.922
-270.024
-253.358
-234.893
-214.598
-192.434
-168.416
-142.58
-114.972
-85.6882
-54.8358
-22.5516
7.94084
42.0247
76.6347
111.409
146.007
180.036
213.098
244.808
274.781
302.627
327.997
350.547
369.97
386.003
398.389
406.927
411.495
411.969
408.267
400.445
388.583
372.831
353.407
330.598
304.719
276.121
245.211
212.404
178.126
142.82
106.911
70.8267
34.9581
-0.309705
-34.6557
-67.8543
-99.614
-129.708
-157.957
-184.224
-208.408
-230.456
-250.348
-268.102
-283.768
-297.412
-309.119
-318.975
-327.066
-333.473
-338.269
-341.516
-343.271
-343.568
-342.449
-339.936
-336.035
-330.742
-324.048
-315.941
-306.406
-295.424
-282.976
-269.043
-253.606
-236.648
-218.155
-198.117
-176.53
-153.398
-128.737
-102.58
-74.9801
-46.0185
-15.8107
15.5035
47.7181
80.5634
113.761
146.99
179.885
212.055
243.084
272.544
300.002
325.031
347.221
366.188
381.586
393.117
400.542
403.682
402.431
396.797
386.837
372.678
354.537
332.7
307.516
279.389
248.77
216.138
181.996
146.849
111.192
75.5
40.2065
5.70395
-27.6769
-59.6549
-90.0053
-118.562
-145.207
-169.874
-192.536
-213.198
-231.895
-248.682
-263.628
-276.808
-288.305
-298.19
-306.525
-313.366
-318.758
-322.744
-325.371
-326.685
-326.736
-325.566
-323.202
-319.654
-314.915
-308.971
-301.791
-293.333
-283.55
-272.388
-259.795
-245.73
-230.152
-213.022
-194.305
-173.963
-151.973
-128.332
-103.069
-76.245
-47.957
-18.3417
12.4287
44.144
76.5809
109.369
142.208
174.731
206.535
237.198
266.28
293.339
317.94
339.665
358.125
372.97
383.903
390.691
393.173
391.267
385.007
374.485
359.875
341.44
319.509
294.467
266.744
236.801
205.113
172.152
138.383
104.253
70.1796
36.5526
3.7055
-28.0626
-58.5059
-87.4271
-114.674
-140.143
-163.767
-185.519
-205.396
-223.416
-239.616
-254.044
-266.756
-277.816
-287.291
-295.25
-301.756
-306.873
-310.652
-313.147
-314.399
-314.438
-313.291
-310.982
-307.527
-302.926
-297.174
-290.259
-282.16
-272.847
-262.293
-250.458
-237.296
-222.78
-206.866
-189.51
-170.684
-150.369
-128.543
-105.206
-80.3702
-54.096
-26.4833
2.35547
32.2576
63.0722
94.5401
126.2
157.815
189.018
219.387
248.504
275.896
301.079
323.612
343.053
358.987
371.091
379.103
382.844
382.22
377.123
367.807
354.402
337.211
316.597
292.941
266.675
238.28
208.231
177.005
145.083
112.904
80.9265
49.5274
19.4518
-9.27252
-37.133
-63.7908
-89.0896
-112.963
-135.405
-156.449
-176.136
-194.517
-211.641
-227.544
-242.25
-255.764
-268.076
-279.167
-289.002
-297.54
-304.737
-310.542
-314.903
-317.771
-319.088
-318.802
-316.757
-312.981
-307.432
-300.093
-290.963
-280.015
-267.264
-252.712
-236.388
-218.337
-198.617
-177.287
-154.439
-130.196
-104.701
-78.1955
-50.9844
-23.6333
0.756164
16.0372
412.796
399.149
381.785
360.906
336.777
309.722
280.117
248.355
214.836
180.025
144.353
108.227
72.0612
36.1928
0.966296
-27.0891
-59.8802
-91.1516
-120.765
-148.594
-174.557
-198.607
-220.716
-240.886
-259.14
-275.515
-290.064
-302.839
-313.899
-323.306
-331.114
-337.376
-342.138
-345.44
-347.305
-347.749
-346.792
-344.373
-340.518
-335.208
-328.411
-320.096
-310.211
-298.709
-285.555
-270.682
-254.04
-235.599
-215.323
-193.173
-169.161
-143.324
-115.707
-86.4025
-55.5307
-23.2385
7.55578
41.6719
76.3677
111.253
145.978
180.147
213.356
245.218
275.345
303.341
328.854
351.539
371.085
387.224
399.696
408.301
412.909
413.398
409.683
401.814
389.881
374.032
354.487
331.54
305.506
276.746
245.672
212.699
178.261
142.797
106.743
70.524
34.5355
-0.832977
-35.273
-68.5478
-100.368
-130.507
-158.786
-185.068
-209.255
-231.292
-251.163
-268.889
-284.52
-298.127
-309.796
-319.617
-327.675
-334.053
-338.823
-342.049
-343.786
-344.072
-342.946
-340.431
-336.531
-331.243
-324.556
-316.457
-306.932
-295.962
-283.526
-269.606
-254.182
-237.238
-218.758
-198.731
-177.153
-154.028
-129.368
-103.205
-75.5883
-46.5999
-16.3512
15.0175
47.3106
80.2475
113.554
146.908
179.943
212.266
243.457
273.085
300.713
325.908
348.257
367.369
382.892
394.524
402.019
405.197
403.954
398.287
388.259
374
355.731
333.743
308.388
280.077
249.267
216.443
182.113
146.788
110.968
75.1303
39.7121
5.10643
-28.356
-60.3939
-90.7846
-119.364
-146.016
-170.676
-193.321
-213.958
-232.625
-249.379
-264.289
-277.435
-288.9
-298.757
-307.068
-313.888
-319.26
-323.227
-325.835
-327.132
-327.171
-325.992
-323.625
-320.079
-315.347
-309.415
-302.252
-293.813
-284.052
-272.912
-260.342
-246.299
-230.741
-213.633
-194.936
-174.612
-152.634
-128.996
-103.726
-76.8831
-48.5634
-18.9018
11.9298
43.72
76.2594
109.157
142.125
174.791
206.752
237.58
266.833
294.065
318.834
340.719
359.323
374.293
385.323
392.177
394.689
392.778
386.473
375.869
361.146
342.572
320.48