/*--------------------------------*- C++ -*----------------------------------*\
| =========                 |                                                 |
| \\      /  F ield         | OpenFOAM: The Open Source CFD Toolbox           |
|  \\    /   O peration     | Version:  3.0.1                                 |
|   \\  /    A nd           | Web:      www.OpenFOAM.org                      |
|    \\/     M anipulation  |                                                 |
\*---------------------------------------------------------------------------*/
FoamFile
{
    version     2.0;
    format      ascii;
    class       surfaceScalarField;
    location    "22.8";
    object      phi;
}
// * * * * * * * * * * * * * * * * * * * * * * * * * * * * * * * * * * * * * //

dimensions      [0 3 -1 0 0 0 0];

internalField   nonuniform List<scalar> 
44922
(
0.000168842
-1.52637e-06
0.000169391
-5.4893e-07
0.000169009
3.81656e-07
0.000167724
1.2846e-06
0.000165565
2.15903e-06
0.000162618
2.94719e-06
0.000158892
3.72586e-06
0.000154467
4.42498e-06
0.000149331
5.13627e-06
0.000143561
5.76978e-06
0.000137126
6.43538e-06
0.000130114
7.01231e-06
0.000122512
7.60124e-06
0.000114449
8.06361e-06
0.000105888
8.56052e-06
9.68302e-05
9.05797e-06
8.74472e-05
9.38302e-06
7.77126e-05
9.73461e-06
6.77262e-05
9.98636e-06
5.75571e-05
1.01692e-05
4.73198e-05
1.02372e-05
3.70131e-05
1.03067e-05
2.68195e-05
1.01936e-05
1.6724e-05
1.00955e-05
6.87403e-06
9.84994e-06
-2.69459e-06
9.56862e-06
-1.19244e-05
9.22979e-06
-2.08026e-05
8.87818e-06
-2.92864e-05
8.48384e-06
-3.73507e-05
8.06432e-06
-4.49518e-05
7.60106e-06
-5.20647e-05
7.1129e-06
-5.86317e-05
6.56702e-06
-6.46166e-05
5.98485e-06
-6.99806e-05
5.36409e-06
-7.46917e-05
4.71103e-06
-7.87324e-05
4.04072e-06
-8.20958e-05
3.36342e-06
-8.47959e-05
2.70007e-06
-8.68555e-05
2.05959e-06
-8.83121e-05
1.45664e-06
-8.921e-05
8.97859e-07
-8.96033e-05
3.93321e-07
-8.95661e-05
-3.71812e-08
-8.91605e-05
-4.05606e-07
-8.84144e-05
-7.46117e-07
-8.73614e-05
-1.05301e-06
-8.60234e-05
-1.33799e-06
-8.44251e-05
-1.59827e-06
-8.25671e-05
-1.85803e-06
-8.04612e-05
-2.10588e-06
-7.80977e-05
-2.36346e-06
-7.54161e-05
-2.68164e-06
-7.24276e-05
-2.9885e-06
-6.9053e-05
-3.37463e-06
-6.53262e-05
-3.72677e-06
-6.11675e-05
-4.15866e-06
-5.66283e-05
-4.53926e-06
-5.16411e-05
-4.98717e-06
-4.62924e-05
-5.34871e-06
-4.05445e-05
-5.74787e-06
-3.45174e-05
-6.02712e-06
-2.82029e-05
-6.31453e-06
-2.1709e-05
-6.49381e-06
-1.504e-05
-6.66909e-06
-8.30944e-06
-6.73052e-06
-1.49625e-06
-6.81318e-06
5.28663e-06
-6.78289e-06
1.20527e-05
-6.76602e-06
1.87333e-05
-6.68066e-06
2.52862e-05
-6.55289e-06
3.17192e-05
-6.43298e-06
3.79763e-05
-6.25708e-06
4.40582e-05
-6.08195e-06
4.99185e-05
-5.86024e-06
5.55567e-05
-5.63827e-06
6.09338e-05
-5.37706e-06
6.60518e-05
-5.11804e-06
7.08757e-05
-4.82384e-06
7.54043e-05
-4.52861e-06
7.96048e-05
-4.20048e-06
8.34811e-05
-3.87637e-06
8.69989e-05
-3.51776e-06
9.01572e-05
-3.15826e-06
9.29155e-05
-2.75838e-06
9.52922e-05
-2.37671e-06
9.72383e-05
-1.94607e-06
9.87645e-05
-1.52623e-06
9.98525e-05
-1.08799e-06
0.00010048
-6.27878e-07
0.000100664
-1.83773e-07
0.000100374
2.90601e-07
9.96071e-05
7.66438e-07
9.83157e-05
1.29139e-06
9.64997e-05
1.81596e-06
9.41253e-05
2.37439e-06
9.11852e-05
2.94007e-06
8.76442e-05
3.54103e-06
8.35223e-05
4.12194e-06
7.87701e-05
4.75214e-06
7.3458e-05
5.31213e-06
6.75418e-05
5.91616e-06
6.11552e-05
6.38662e-06
5.42571e-05
6.89806e-06
4.69712e-05
7.28593e-06
3.93313e-05
7.63987e-06
3.14408e-05
7.89046e-06
2.33305e-05
8.11033e-06
1.51247e-05
8.2058e-06
6.93391e-06
8.19075e-06
-1.17809e-06
8.11199e-06
-9.07358e-06
7.89548e-06
-1.67714e-05
7.69783e-06
-2.4091e-05
7.31955e-06
-3.10859e-05
6.99491e-06
-3.7582e-05
6.49608e-06
-4.36728e-05
6.0908e-06
-4.92024e-05
5.52957e-06
-5.42695e-05
5.06711e-06
-5.8715e-05
4.44553e-06
-6.26886e-05
3.97355e-06
-6.60254e-05
3.33688e-06
-6.89635e-05
2.93808e-06
-7.13087e-05
2.3452e-06
-7.31267e-05
1.81799e-06
-7.44393e-05
1.31252e-06
-7.5388e-05
9.48789e-07
-7.5911e-05
5.22931e-07
-7.60202e-05
1.09265e-07
-7.57526e-05
-2.67681e-07
-7.50966e-05
-6.55934e-07
-7.41368e-05
-9.59856e-07
-7.28582e-05
-1.27858e-06
-7.13295e-05
-1.52866e-06
-6.95532e-05
-1.77636e-06
-6.76054e-05
-1.94776e-06
-6.54717e-05
-2.13369e-06
-6.32177e-05
-2.25405e-06
-6.08429e-05
-2.37477e-06
-5.83798e-05
-2.46308e-06
-5.58557e-05
-2.5241e-06
-5.32497e-05
-2.60603e-06
-5.05888e-05
-2.66091e-06
-4.78598e-05
-2.72899e-06
-4.50417e-05
-2.81804e-06
-4.21161e-05
-2.9256e-06
-3.90643e-05
-3.05189e-06
-3.58597e-05
-3.20459e-06
-3.24609e-05
-3.39878e-06
-2.88624e-05
-3.59848e-06
-2.50305e-05
-3.83193e-06
-2.09499e-05
-4.08052e-06
-1.6602e-05
-4.34798e-06
-1.1982e-05
-4.61998e-06
-7.0793e-06
-4.90267e-06
-1.9024e-06
-5.1769e-06
3.54052e-06
-5.44292e-06
9.23948e-06
-5.69896e-06
1.51848e-05
-5.94535e-06
2.13153e-05
-6.13049e-06
2.76397e-05
-6.32443e-06
3.41206e-05
-6.48082e-06
4.0676e-05
-6.55541e-06
4.72792e-05
-6.6032e-06
5.38766e-05
-6.59741e-06
6.0408e-05
-6.5314e-06
6.68121e-05
-6.40408e-06
7.30256e-05
-6.2135e-06
7.89897e-05
-5.9642e-06
8.46228e-05
-5.63308e-06
8.9899e-05
-5.27622e-06
9.47258e-05
-4.82672e-06
9.907e-05
-4.34423e-06
0.000102869
-3.79857e-06
0.000106089
-3.22074e-06
0.00010869
-2.60032e-06
0.000110696
-2.00609e-06
0.000112009
-1.31351e-06
0.00011273
-7.20669e-07
0.000112683
4.71336e-08
0.000111971
7.11896e-07
0.000110549
1.42137e-06
0.000108649
1.9e-06
0.000106151
2.49806e-06
0.000103168
2.98351e-06
9.97892e-05
3.37859e-06
9.59531e-05
3.83609e-06
9.18469e-05
4.10626e-06
8.73652e-05
4.48163e-06
8.27008e-05
4.66445e-06
7.77585e-05
4.94229e-06
7.26948e-05
5.06371e-06
6.74652e-05
5.22956e-06
6.21538e-05
5.31141e-06
5.67606e-05
5.39316e-06
5.13021e-05
5.45853e-06
4.57894e-05
5.5126e-06
4.0234e-05
5.55548e-06
3.46118e-05
5.62214e-06
2.89445e-05
5.66731e-06
2.31724e-05
5.77206e-06
1.73944e-05
5.77804e-06
1.15939e-05
5.80045e-06
5.79117e-06
5.80272e-06
7.52019e-08
5.71596e-06
-5.64862e-06
5.72382e-06
-1.12139e-05
5.56524e-06
-1.67024e-05
5.48856e-06
-2.19025e-05
5.20011e-06
-2.69066e-05
5.00405e-06
-3.15422e-05
4.63559e-06
-3.59598e-05
4.41762e-06
-3.98456e-05
3.8858e-06
-4.3268e-05
3.42242e-06
-4.60284e-05
2.76032e-06
-4.82528e-05
2.22441e-06
-4.95768e-05
1.32403e-06
-4.9986e-05
4.09185e-07
-4.92591e-05
-7.26927e-07
-4.87118e-05
-5.47302e-07
-5.06519e-05
1.94012e-06
-5.59899e-05
5.33798e-06
-6.20473e-05
6.05736e-06
-6.56459e-05
3.5986e-06
-9.83866e-06
-5.58072e-05
0.000168905
-3.05657e-06
0.000169456
-1.09999e-06
0.000169068
7.70144e-07
0.000167779
2.57314e-06
0.000165619
4.31964e-06
0.000162669
5.8968e-06
0.000158941
7.45404e-06
0.000154514
8.85233e-06
0.000149375
1.02749e-05
0.000143602
1.15425e-05
0.000137164
1.28732e-05
0.00013015
1.40267e-05
0.000122547
1.52047e-05
0.00011448
1.61298e-05
0.000105917
1.71242e-05
9.68565e-05
1.81183e-05
8.74697e-05
1.87698e-05
7.77306e-05
1.94737e-05
6.77404e-05
1.99765e-05
5.75658e-05
2.03438e-05
4.7322e-05
2.0481e-05
3.70115e-05
2.06172e-05
2.68133e-05
2.03918e-05
1.67134e-05
2.01955e-05
6.85985e-06
1.97035e-05
-2.71114e-06
1.91396e-05
-1.19425e-05
1.84612e-05
-2.08221e-05
1.77578e-05
-2.93071e-05
1.69688e-05
-3.7373e-05
1.61301e-05
-4.49759e-05
1.5204e-05
-5.20909e-05
1.42279e-05
-5.86603e-05
1.31364e-05
-6.46472e-05
1.19717e-05
-7.00129e-05
1.07298e-05
-7.47252e-05
9.42329e-06
-7.8766e-05
8.08159e-06
-8.21287e-05
6.72611e-06
-8.48277e-05
5.39906e-06
-8.68865e-05
4.11837e-06
-8.83424e-05
2.91251e-06
-8.92386e-05
1.79408e-06
-8.96295e-05
7.84234e-07
-8.95912e-05
-7.55086e-08
-8.91838e-05
-8.12954e-07
-8.8436e-05
-1.49392e-06
-8.73816e-05
-2.1074e-06
-8.60427e-05
-2.67695e-06
-8.44439e-05
-3.19708e-06
-8.25858e-05
-3.71608e-06
-8.04804e-05
-4.2113e-06
-7.81178e-05
-4.72601e-06
-7.54375e-05
-5.36195e-06
-7.24505e-05
-5.9755e-06
-6.90775e-05
-6.74759e-06
-6.5352e-05
-7.45228e-06
-6.11944e-05
-8.31626e-06
-5.6655e-05
-9.07871e-06
-5.16669e-05
-9.97523e-06
-4.63164e-05
-1.06992e-05
-4.05664e-05
-1.14979e-05
-3.45361e-05
-1.20574e-05
-2.82174e-05
-1.26332e-05
-2.172e-05
-1.29912e-05
-1.50474e-05
-1.33417e-05
-8.31201e-06
-1.34659e-05
-1.49717e-06
-1.3628e-05
5.28778e-06
-1.35678e-05
1.20567e-05
-1.3535e-05
1.87397e-05
-1.33636e-05
2.52944e-05
-1.31076e-05
3.17293e-05
-1.28679e-05
3.79882e-05
-1.25159e-05
4.40716e-05
-1.21654e-05
4.99336e-05
-1.17223e-05
5.5574e-05
-1.12787e-05
6.09531e-05
-1.07561e-05
6.60736e-05
-1.02386e-05
7.08996e-05
-9.64985e-06
7.54299e-05
-9.05889e-06
7.9632e-05
-8.40261e-06
8.35099e-05
-7.75425e-06
8.70293e-05
-7.03712e-06
9.01903e-05
-6.31931e-06
9.29492e-05
-5.51731e-06
9.53252e-05
-4.75266e-06
9.72708e-05
-3.89169e-06
9.87984e-05
-3.05386e-06
9.98879e-05
-2.17748e-06
0.000100517
-1.25699e-06
0.000100699
-3.66279e-07
0.000100408
5.8227e-07
9.9642e-05
1.53223e-06
9.83513e-05
2.58209e-06
9.65354e-05
3.63181e-06
9.41623e-05
4.74746e-06
9.12228e-05
5.87954e-06
8.76803e-05
7.08349e-06
8.35554e-05
8.24683e-06
7.88037e-05
9.50389e-06
7.3487e-05
1.06288e-05
6.75742e-05
1.1829e-05
6.11834e-05
1.27774e-05
5.42833e-05
1.37981e-05
4.69928e-05
1.45765e-05
3.93442e-05
1.52885e-05
3.14467e-05
1.5788e-05
2.33299e-05
1.62271e-05
1.51199e-05
1.64158e-05
6.92505e-06
1.63856e-05
-1.19025e-06
1.62273e-05
-9.0866e-06
1.57918e-05
-1.67903e-05
1.54015e-05
-2.41107e-05
1.46399e-05
-3.11113e-05
1.39955e-05
-3.76069e-05
1.29917e-05
-4.37039e-05
1.21877e-05
-4.92321e-05
1.10578e-05
-5.43041e-05
1.01391e-05
-5.875e-05
8.89145e-06
-6.27257e-05
7.94928e-06
-6.60573e-05
6.66837e-06
-6.89999e-05
5.88075e-06
-7.13417e-05
4.68694e-06
-7.31548e-05
3.63112e-06
-7.44653e-05
2.62303e-06
-7.54168e-05
1.90026e-06
-7.59384e-05
1.04455e-06
-7.60451e-05
2.15948e-07
-7.57769e-05
-5.35889e-07
-7.51183e-05
-1.31452e-06
-7.41562e-05
-1.92203e-06
-7.28749e-05
-2.55987e-06
-7.13435e-05
-3.06e-06
-6.95658e-05
-3.55408e-06
-6.76175e-05
-3.89613e-06
-6.54803e-05
-4.27089e-06
-6.32265e-05
-4.50785e-06
-6.08519e-05
-4.74937e-06
-5.83923e-05
-4.92269e-06
-5.58646e-05
-5.05176e-06
-5.32577e-05
-5.21295e-06
-5.06002e-05
-5.31837e-06
-4.78675e-05
-5.46165e-06
-4.50495e-05
-5.63609e-06
-4.2124e-05
-5.85111e-06
-3.90717e-05
-6.10419e-06
-3.5868e-05
-6.40822e-06
-3.24724e-05
-6.79439e-06
-2.88762e-05
-7.19471e-06
-2.50456e-05
-7.66253e-06
-2.09631e-05
-8.16302e-06
-1.66167e-05
-8.69439e-06
-1.19942e-05
-9.24241e-06
-7.08982e-06
-9.80708e-06
-1.91069e-06
-1.0356e-05
3.53492e-06
-1.08885e-05
9.23538e-06
-1.13994e-05
1.51805e-05
-1.18905e-05
2.1313e-05
-1.2263e-05
2.76433e-05
-1.26548e-05
3.41182e-05
-1.29556e-05
4.0677e-05
-1.31142e-05
4.72827e-05
-1.32089e-05
5.38826e-05
-1.31973e-05
6.04175e-05
-1.30663e-05
6.68246e-05
-1.28112e-05
7.30426e-05
-1.24316e-05
7.90115e-05
-1.19331e-05
8.46472e-05
-1.12687e-05
8.99272e-05
-1.05563e-05
9.4757e-05
-9.65644e-06
9.91029e-05
-8.69017e-06
0.000102903
-7.59824e-06
0.000106125
-6.4431e-06
0.000108724
-5.19969e-06
0.000110731
-4.01305e-06
0.000112041
-2.62327e-06
0.000112765
-1.44471e-06
0.000112713
9.88587e-08
0.000111996
1.42904e-06
0.000110572
2.84579e-06
0.00010867
3.80176e-06
0.000106172
4.99604e-06
0.00010319
5.96572e-06
9.97999e-05
6.76826e-06
9.59616e-05
7.67437e-06
9.18538e-05
8.21405e-06
8.73677e-05
8.96769e-06
8.27019e-05
9.33026e-06
7.77587e-05
9.88542e-06
7.26993e-05
1.01231e-05
6.74726e-05
1.04562e-05
6.21617e-05
1.06223e-05
5.67657e-05
1.07891e-05
5.13041e-05
1.09201e-05
4.57908e-05
1.10259e-05
4.02388e-05
1.11075e-05
3.46146e-05
1.12463e-05
2.89461e-05
1.13358e-05
2.31702e-05
1.15479e-05
1.739e-05
1.15582e-05
1.15884e-05
1.16021e-05
5.78295e-06
1.16081e-05
6.76111e-08
1.14313e-05
-5.65907e-06
1.14505e-05
-1.12232e-05
1.11293e-05
-1.67167e-05
1.0982e-05
-2.19154e-05
1.03989e-05
-2.69234e-05
1.0012e-05
-3.15596e-05
9.27174e-06
-3.59838e-05
8.84183e-06
-3.98665e-05
7.76845e-06
-4.32925e-05
6.84845e-06
-4.605e-05
5.51776e-06
-4.8271e-05
4.44538e-06
-4.96135e-05
2.66656e-06
-5.02575e-05
1.05316e-06
-4.97573e-05
-1.22706e-06
-4.79951e-05
-2.30961e-06
-4.66857e-05
6.30792e-07
-4.68413e-05
5.49358e-06
-4.7034e-05
6.25002e-06
-4.47322e-05
1.29681e-06
-2.013e-05
-3.44409e-05
0.000169034
-4.59536e-06
0.000169582
-1.64778e-06
0.000169174
1.17751e-06
0.000167875
3.87215e-06
0.00016571
6.48473e-06
0.000162756
8.85116e-06
0.000159023
1.11871e-05
0.000154591
1.32836e-05
0.000149451
1.54149e-05
0.000143672
1.73217e-05
0.00013723
1.93157e-05
0.000130212
2.10447e-05
0.000122604
2.28123e-05
0.000114534
2.42003e-05
0.000105964
2.56936e-05
9.68999e-05
2.71826e-05
8.75061e-05
2.81636e-05
7.77587e-05
2.92211e-05
6.7762e-05
2.99732e-05
5.75774e-05
3.05284e-05
4.7321e-05
3.07375e-05
3.70044e-05
3.09337e-05
2.67979e-05
3.05984e-05
1.66901e-05
3.03033e-05
6.83021e-06
2.95633e-05
-2.74812e-06
2.87179e-05
-1.19846e-05
2.76976e-05
-2.08674e-05
2.66406e-05
-2.93541e-05
2.54556e-05
-3.74219e-05
2.41979e-05
-4.50274e-05
2.28095e-05
-5.21454e-05
2.13459e-05
-5.8718e-05
1.97089e-05
-6.47078e-05
1.79615e-05
-7.00763e-05
1.60983e-05
-7.47903e-05
1.41373e-05
-7.88313e-05
1.21226e-05
-8.2193e-05
1.00879e-05
-8.48895e-05
8.09552e-06
-8.69445e-05
6.17335e-06
-8.83969e-05
4.3649e-06
-8.92906e-05
2.68787e-06
-8.9677e-05
1.17055e-06
-8.96347e-05
-1.17731e-07
-8.92235e-05
-1.22419e-06
-8.84724e-05
-2.24506e-06
-8.74153e-05
-3.16446e-06
-8.60744e-05
-4.01784e-06
-8.44746e-05
-4.79693e-06
-8.26164e-05
-5.57421e-06
-8.05119e-05
-6.31581e-06
-7.81512e-05
-7.08671e-06
-7.54735e-05
-8.03969e-06
-7.24894e-05
-8.9595e-06
-6.91197e-05
-1.01174e-05
-6.53967e-05
-1.11752e-05
-6.1241e-05
-1.2472e-05
-5.67012e-05
-1.36185e-05
-5.17113e-05
-1.49651e-05
-4.63572e-05
-1.60533e-05
-4.06026e-05
-1.72525e-05
-3.45661e-05
-1.80939e-05
-2.82392e-05
-1.89601e-05
-2.17349e-05
-1.94955e-05
-1.50539e-05
-2.00226e-05
-8.30624e-06
-2.02136e-05
-1.49099e-06
-2.04433e-05
5.29962e-06
-2.03584e-05
1.20716e-05
-2.03069e-05
1.87578e-05
-2.00498e-05
2.53159e-05
-1.96658e-05
3.17541e-05
-1.93061e-05
3.80163e-05
-1.87781e-05
4.41032e-05
-1.82523e-05
4.99685e-05
-1.75875e-05
5.56122e-05
-1.69223e-05
6.09944e-05
-1.61384e-05
6.61178e-05
-1.53619e-05
7.0946e-05
-1.44781e-05
7.54787e-05
-1.35916e-05
7.96828e-05
-1.26066e-05
8.35627e-05
-1.16341e-05
8.70814e-05
-1.05559e-05
9.02432e-05
-9.4811e-06
9.30021e-05
-8.27626e-06
9.53789e-05
-7.12944e-06
9.73246e-05
-5.83736e-06
9.88538e-05
-4.58308e-06
9.99435e-05
-3.26716e-06
0.000100574
-1.8873e-06
0.000100757
-5.49029e-07
0.000100464
8.74893e-07
9.97001e-05
2.29598e-06
9.84122e-05
3.86998e-06
9.65983e-05
5.44573e-06
9.42291e-05
7.11661e-06
9.1292e-05
8.81667e-06
8.77502e-05
1.06252e-05
8.36222e-05
1.23748e-05
7.8872e-05
1.42541e-05
7.35502e-05
1.59506e-05
6.76385e-05
1.77406e-05
6.12446e-05
1.91712e-05
5.43458e-05
2.06969e-05
4.70449e-05
2.18774e-05
3.93808e-05
2.29525e-05
3.14655e-05
2.37033e-05
2.33348e-05
2.43577e-05
1.51158e-05
2.46348e-05
6.91209e-06
2.45893e-05
-1.20801e-06
2.43474e-05
-9.10764e-06
2.36914e-05
-1.68231e-05
2.3117e-05
-2.41454e-05
2.19622e-05
-3.11593e-05
2.10094e-05
-3.76549e-05
1.94873e-05
-4.37643e-05
1.8297e-05
-4.92904e-05
1.65839e-05
-5.43751e-05
1.52238e-05
-5.88235e-05
1.33398e-05
-6.28047e-05
1.19304e-05
-6.61233e-05
9.98698e-06
-6.9068e-05
8.82549e-06
-7.13985e-05
7.01742e-06
-7.32101e-05
5.4427e-06
-7.45189e-05
3.93181e-06
-7.54738e-05
2.85512e-06
-7.59938e-05
1.56461e-06
-7.60942e-05
3.1633e-07
-7.58237e-05
-8.06435e-07
-7.51588e-05
-1.97938e-06
-7.41894e-05
-2.89142e-06
-7.2907e-05
-3.84231e-06
-7.13722e-05
-4.59477e-06
-6.95873e-05
-5.339e-06
-6.7639e-05
-5.84444e-06
-6.54977e-05
-6.41221e-06
-6.32446e-05
-6.76096e-06
-6.08679e-05
-7.12608e-06
-5.84114e-05
-7.37916e-06
-5.58795e-05
-7.58366e-06
-5.32718e-05
-7.82065e-06
-5.06189e-05
-7.97122e-06
-4.7883e-05
-8.19761e-06
-4.50649e-05
-8.45414e-06
-4.21398e-05
-8.77626e-06
-3.90878e-05
-9.15615e-06
-3.58869e-05
-9.6091e-06
-3.2496e-05
-1.01853e-05
-2.89057e-05
-1.0785e-05
-2.50813e-05
-1.14869e-05
-2.09958e-05
-1.22486e-05
-1.6651e-05
-1.30391e-05
-1.20243e-05
-1.38692e-05
-7.1168e-06
-1.47145e-05
-1.93525e-06
-1.55376e-05
3.51377e-06
-1.63375e-05
9.21721e-06
-1.71029e-05
1.51609e-05
-1.78341e-05
2.12949e-05
-1.8397e-05
2.7627e-05
-1.89869e-05
3.41006e-05
-1.94292e-05
4.06639e-05
-1.96775e-05
4.72744e-05
-1.98194e-05
5.38791e-05
-1.9802e-05
6.04215e-05
-1.96088e-05
6.6836e-05
-1.92256e-05
7.30624e-05
-1.8658e-05
7.90445e-05
-1.79152e-05
8.46834e-05
-1.69077e-05
8.99709e-05
-1.58437e-05
9.48079e-05
-1.44935e-05
9.91617e-05
-1.3044e-05
0.000102968
-1.14042e-05
0.000106192
-9.6672e-06
0.000108789
-7.7968e-06
0.0001108
-6.02421e-06
0.000112105
-3.92874e-06
0.000112836
-2.17554e-06
0.00011278
1.55438e-07
0.00011205
2.15895e-06
0.000110626
4.2698e-06
0.000108723
5.7045e-06
0.000106218
7.5008e-06
0.000103237
8.94649e-06
9.98333e-05
1.01724e-05
9.59915e-05
1.15161e-05
9.18792e-05
1.23263e-05
8.73874e-05
1.34594e-05
8.27196e-05
1.39981e-05
7.77737e-05
1.48312e-05
7.272e-05
1.51768e-05
6.74954e-05
1.56808e-05
6.21847e-05
1.59331e-05
5.67836e-05
1.61901e-05
5.1314e-05
1.63897e-05
4.5793e-05
1.65469e-05
4.02421e-05
1.66584e-05
3.4618e-05
1.68703e-05
2.89476e-05
1.70062e-05
2.31643e-05
1.73313e-05
1.73782e-05
1.73443e-05
1.15707e-05
1.74095e-05
5.75961e-06
1.74192e-05
4.28791e-08
1.7148e-05
-5.6913e-06
1.71847e-05
-1.12535e-05
1.66916e-05
-1.67578e-05
1.64863e-05
-2.19599e-05
1.5601e-05
-2.69779e-05
1.503e-05
-3.16093e-05
1.39031e-05
-3.60419e-05
1.32744e-05
-3.9912e-05
1.16386e-05
-4.33513e-05
1.02878e-05
-4.61214e-05
8.28777e-06
-4.83689e-05
6.69297e-06
-4.96874e-05
3.985e-06
-5.02214e-05
1.58719e-06
-4.9797e-05
-1.65149e-06
-4.84317e-05
-3.67494e-06
-4.60835e-05
-1.71737e-06
-4.26744e-05
2.0844e-06
-3.91267e-05
2.70232e-06
-3.53323e-05
-2.49751e-06
-2.75032e-05
-2.79591e-05
0.000169212
-6.13269e-06
0.000169756
-2.19214e-06
0.00016933
1.60344e-06
0.000168019
5.18363e-06
0.000165847
8.65672e-06
0.000162886
1.18125e-05
0.000159145
1.49273e-05
0.000154708
1.77208e-05
0.000149566
2.05577e-05
0.000143779
2.3108e-05
0.000137328
2.57672e-05
0.000130305
2.80678e-05
0.00012269
3.04264e-05
0.000114615
3.22762e-05
0.000106035
3.42728e-05
9.69651e-05
3.62528e-05
8.75603e-05
3.75684e-05
7.78001e-05
3.89814e-05
6.77944e-05
3.99789e-05
5.75949e-05
4.07278e-05
4.73182e-05
4.10142e-05
3.69937e-05
4.12582e-05
2.67737e-05
4.08184e-05
1.6655e-05
4.0422e-05
6.78559e-06
3.94327e-05
-2.80268e-06
3.83062e-05
-1.20464e-05
3.69413e-05
-2.09346e-05
3.55288e-05
-2.94249e-05
3.39459e-05
-3.74969e-05
3.22699e-05
-4.51071e-05
3.04197e-05
-5.22303e-05
2.84692e-05
-5.88083e-05
2.62869e-05
-6.48035e-05
2.39567e-05
-7.01764e-05
2.14712e-05
-7.48929e-05
1.88538e-05
-7.89334e-05
1.61631e-05
-8.22933e-05
1.34478e-05
-8.49853e-05
1.07875e-05
-8.70344e-05
8.22246e-06
-8.84808e-05
5.8113e-06
-8.93697e-05
3.57675e-06
-8.9749e-05
1.54989e-06
-8.97001e-05
-1.66603e-07
-8.9283e-05
-1.64134e-06
-8.85268e-05
-3.00121e-06
-8.74658e-05
-4.22554e-06
-8.6122e-05
-5.36161e-06
-8.45205e-05
-6.39837e-06
-8.26623e-05
-7.43246e-06
-8.05591e-05
-8.41896e-06
-7.82012e-05
-9.44465e-06
-7.55273e-05
-1.07136e-05
-7.25478e-05
-1.1939e-05
-6.91829e-05
-1.34823e-05
-6.54638e-05
-1.48943e-05
-6.13108e-05
-1.6625e-05
-5.67706e-05
-1.81586e-05
-5.17779e-05
-1.99579e-05
-4.64184e-05
-2.14128e-05
-4.06568e-05
-2.30141e-05
-3.46109e-05
-2.41398e-05
-2.82724e-05
-2.52985e-05
-2.17578e-05
-2.60102e-05
-1.50642e-05
-2.67162e-05
-8.30488e-06
-2.69729e-05
-1.48677e-06
-2.72614e-05
5.31183e-06
-2.7157e-05
1.20891e-05
-2.70842e-05
1.87806e-05
-2.67413e-05
2.53438e-05
-2.6229e-05
3.1787e-05
-2.57493e-05
3.80539e-05
-2.5045e-05
4.41455e-05
-2.43439e-05
5.00151e-05
-2.34571e-05
5.56632e-05
-2.25705e-05
6.10495e-05
-2.15246e-05
6.61767e-05
-2.04892e-05
7.1008e-05
-1.93095e-05
7.55439e-05
-1.81275e-05
7.97506e-05
-1.68133e-05
8.36336e-05
-1.55171e-05
8.71527e-05
-1.4075e-05
9.03167e-05
-1.26451e-05
9.30762e-05
-1.10357e-05
9.54544e-05
-9.50768e-06
9.74008e-05
-7.78377e-06
9.89317e-05
-6.11399e-06
0.000100023
-4.35838e-06
0.000100655
-2.51954e-06
0.00010084
-7.33635e-07
0.000100548
1.16694e-06
9.97871e-05
3.05653e-06
9.85037e-05
5.15332e-06
9.66927e-05
7.25678e-06
9.43299e-05
9.47941e-06
9.13952e-05
1.17514e-05
8.78545e-05
1.41658e-05
8.3722e-05
1.65073e-05
7.89745e-05
1.90015e-05
7.36442e-05
2.12809e-05
6.77342e-05
2.36506e-05
6.13329e-05
2.55725e-05
5.44269e-05
2.76029e-05
4.71159e-05
2.91884e-05
3.94376e-05
3.06309e-05
3.1493e-05
3.16478e-05
2.33421e-05
3.25085e-05
1.51131e-05
3.28638e-05
6.89194e-06
3.28104e-05
-1.23578e-06
3.24751e-05
-9.14288e-06
3.15985e-05
-1.68747e-05
3.08488e-05
-2.42017e-05
2.92891e-05
-3.12332e-05
2.80409e-05
-3.77305e-05
2.59846e-05
-4.38547e-05
2.44213e-05
-4.93768e-05
2.2106e-05
-5.4477e-05
2.03239e-05
-5.89208e-05
1.77836e-05
-6.29266e-05
1.59362e-05
-6.62176e-05
1.3278e-05
-6.91615e-05
1.17694e-05
-7.14808e-05
9.33668e-06
-7.33065e-05
7.26834e-06
-7.46066e-05
5.23198e-06
-7.55608e-05
3.8093e-06
-7.60751e-05
2.0789e-06
-7.61607e-05
4.01885e-07
-7.58931e-05
-1.07401e-06
-7.52196e-05
-2.65282e-06
-7.42446e-05
-3.86643e-06
-7.29538e-05
-5.13311e-06
-7.14197e-05
-6.12894e-06
-6.96238e-05
-7.13489e-06
-6.76694e-05
-7.79878e-06
-6.55239e-05
-8.55772e-06
-6.32684e-05
-9.01646e-06
-6.08897e-05
-9.5048e-06
-5.84337e-05
-9.83517e-06
-5.58996e-05
-1.01178e-05
-5.33038e-05
-1.04164e-05
-5.06403e-05
-1.06348e-05
-4.79039e-05
-1.0934e-05
-4.50859e-05
-1.12721e-05
-4.21632e-05
-1.1699e-05
-3.91163e-05
-1.22031e-05
-3.59152e-05
-1.28102e-05
-3.25316e-05
-1.35688e-05
-2.8948e-05
-1.43686e-05
-2.51317e-05
-1.53032e-05
-2.10432e-05
-1.63371e-05
-1.67017e-05
-1.73806e-05
-1.20717e-05
-1.84991e-05
-7.16161e-06
-1.96246e-05
-1.97737e-06
-2.07218e-05
3.47596e-06
-2.17909e-05
9.18305e-06
-2.281e-05
1.51255e-05
-2.37765e-05
2.12642e-05
-2.45358e-05
2.76007e-05
-2.53235e-05
3.40732e-05
-2.59017e-05
4.06482e-05
-2.62525e-05
4.72671e-05
-2.64383e-05
5.38747e-05
-2.64096e-05
6.04297e-05
-2.61638e-05
6.68543e-05
-2.56503e-05
7.30936e-05
-2.48973e-05
7.90895e-05
-2.39111e-05
8.47379e-05
-2.25561e-05
9.00381e-05
-2.1144e-05
9.48778e-05
-1.93333e-05
9.92432e-05
-1.74094e-05
0.000103061
-1.52221e-05
0.000106291
-1.28972e-05
0.000108889
-1.0395e-05
0.000110902
-8.03711e-06
0.000112204
-5.23076e-06
0.000112944
-2.91491e-06
0.000112884
2.14803e-07
0.000112124
2.91949e-06
0.000110708
5.68515e-06
0.000108814
7.59886e-06
0.000106295
1.002e-05
0.000103312
1.19292e-05
9.98972e-05
1.35871e-05
9.60418e-05
1.53715e-05
9.19232e-05
1.64449e-05
8.74254e-05
1.79571e-05
8.27506e-05
1.86729e-05
7.77974e-05
1.97844e-05
7.27482e-05
2.0226e-05
6.75171e-05
2.09119e-05
6.22035e-05
2.12466e-05
5.68004e-05
2.15932e-05
5.13246e-05
2.18654e-05
4.57946e-05
2.20769e-05
4.02392e-05
2.22138e-05
3.46276e-05
2.24819e-05
2.89567e-05
2.26772e-05
2.31568e-05
2.31311e-05
1.73696e-05
2.31315e-05
1.1554e-05
2.32251e-05
5.73118e-06
2.3242e-05
6.78035e-09
2.28724e-05
-5.7327e-06
2.29241e-05
-1.1286e-05
2.22448e-05
-1.68019e-05
2.20022e-05
-2.20195e-05
2.08185e-05
-2.70605e-05
2.00711e-05
-3.16851e-05
1.85277e-05
-3.61187e-05
1.7708e-05
-3.99763e-05
1.54962e-05
-4.34516e-05
1.3763e-05
-4.62432e-05
1.10794e-05
-4.85054e-05
8.95519e-06
-4.98518e-05
5.33138e-06
-5.04051e-05
2.14047e-06
-4.98229e-05
-2.23366e-06
-4.83628e-05
-5.13503e-06
-4.57626e-05
-4.31762e-06
-4.15689e-05
-2.10929e-06
-3.66823e-05
-2.1843e-06
-3.248e-05
-6.69979e-06
-3.19204e-05
-2.80628e-05
0.00016944
-7.65808e-06
0.000169973
-2.72586e-06
0.000169535
2.04168e-06
0.000168212
6.50716e-06
0.000166029
1.08389e-05
0.000163059
1.47828e-05
0.000159309
1.86769e-05
0.000154864
2.21662e-05
0.000149713
2.57084e-05
0.00014392
2.89016e-05
0.000137458
3.2229e-05
0.00013043
3.50957e-05
0.000122805
3.80513e-05
0.000114723
4.03588e-05
0.00010613
4.28652e-05
9.70523e-05
4.53308e-05
8.76317e-05
4.69889e-05
7.78535e-05
4.87596e-05
6.78382e-05
4.99942e-05
5.76248e-05
5.09411e-05
4.73113e-05
5.13278e-05
3.69794e-05
5.15901e-05
2.67399e-05
5.10578e-05
1.66079e-05
5.0554e-05
6.7258e-06
4.93148e-05
-2.87397e-06
4.7906e-05
-1.2127e-05
4.61944e-05
-2.10233e-05
4.4425e-05
-2.95198e-05
4.24424e-05
-3.75989e-05
4.0349e-05
-4.52164e-05
3.80372e-05
-5.23482e-05
3.5601e-05
-5.89347e-05
3.28734e-05
-6.49378e-05
2.99598e-05
-7.03169e-05
2.68502e-05
-7.50369e-05
2.35738e-05
-7.90769e-05
2.02031e-05
-8.24338e-05
1.68047e-05
-8.5119e-05
1.34727e-05
-8.71597e-05
1.02632e-05
-8.85966e-05
7.24822e-06
-8.94759e-05
4.45608e-06
-8.98451e-05
1.91909e-06
-8.97873e-05
-2.24397e-07
-8.93623e-05
-2.06642e-06
-8.85994e-05
-3.76407e-06
-8.75329e-05
-5.29201e-06
-8.61853e-05
-6.70924e-06
-8.45817e-05
-8.00193e-06
-8.27233e-05
-9.29089e-06
-8.0622e-05
-1.05203e-05
-7.82677e-05
-1.17989e-05
-7.5599e-05
-1.33822e-05
-7.26258e-05
-1.49123e-05
-6.92672e-05
-1.68408e-05
-6.55533e-05
-1.86082e-05
-6.1404e-05
-2.07743e-05
-5.68634e-05
-2.26993e-05
-5.18668e-05
-2.49544e-05
-4.65e-05
-2.67796e-05
-4.07289e-05
-2.87852e-05
-3.46705e-05
-3.01982e-05
-2.83182e-05
-3.16509e-05
-2.17903e-05
-3.2538e-05
-1.50833e-05
-3.34232e-05
-8.31372e-06
-3.37425e-05
-1.48564e-06
-3.40895e-05
5.32181e-06
-3.39645e-05
1.21071e-05
-3.38695e-05
1.88059e-05
-3.34401e-05
2.53758e-05
-3.27989e-05
3.18256e-05
-3.2199e-05
3.80986e-05
-3.13181e-05
4.41958e-05
-3.0441e-05
5.00706e-05
-2.93319e-05
5.57235e-05
-2.82234e-05
6.11142e-05
-2.69154e-05
6.62454e-05
-2.56203e-05
7.10801e-05
-2.41442e-05
7.56196e-05
-2.2667e-05
7.98296e-05
-2.10234e-05
8.37166e-05
-1.94041e-05
8.72373e-05
-1.75957e-05
9.04052e-05
-1.5813e-05
9.31667e-05
-1.37972e-05
9.55478e-05
-1.18888e-05
9.74966e-05
-9.73259e-06
9.90301e-05
-7.64746e-06
0.000100123
-5.4516e-06
0.000100758
-3.15459e-06
0.000100947
-9.22023e-07
0.000100658
1.45516e-06
9.99032e-05
3.81176e-06
9.8626e-05
6.43047e-06
9.68183e-05
9.06451e-06
9.44637e-05
1.1834e-05
9.1532e-05
1.4683e-05
8.79923e-05
1.77056e-05
8.38496e-05
2.065e-05
7.91096e-05
2.37416e-05
7.37703e-05
2.66201e-05
6.7858e-05
2.95629e-05
6.14456e-05
3.19849e-05
5.45223e-05
3.45262e-05
4.72002e-05
3.65104e-05
3.951e-05
3.8321e-05
3.15299e-05
3.96279e-05
2.33537e-05
4.06848e-05
1.51156e-05
4.11019e-05
6.86523e-06
4.10607e-05
-1.27734e-06
4.06176e-05
-9.20314e-06
3.95243e-05
-1.69572e-05
3.86028e-05
-2.42868e-05
3.66188e-05
-3.13336e-05
3.50876e-05
-3.78376e-05
3.24886e-05
-4.39725e-05
3.05562e-05
-4.94942e-05
2.76276e-05
-5.46021e-05
2.54318e-05
-5.90291e-05
2.22106e-05
-6.30547e-05
1.99619e-05
-6.63526e-05
1.65758e-05
-6.92722e-05
1.4689e-05
-7.15861e-05
1.16506e-05
-7.34384e-05
9.12068e-06
-7.47226e-05
6.51618e-06
-7.5672e-05
4.75867e-06
-7.61784e-05
2.58527e-06
-7.62473e-05
4.70759e-07
-7.5985e-05
-1.3363e-06
-7.52997e-05
-3.33813e-06
-7.43293e-05
-4.83675e-06
-7.3017e-05
-6.44542e-06
-7.14781e-05
-7.66788e-06
-6.96811e-05
-8.93191e-06
-6.77056e-05
-9.77421e-06
-6.55577e-05
-1.07056e-05
-6.32992e-05
-1.1275e-05
-6.09177e-05
-1.18863e-05
-5.8458e-05
-1.22949e-05
-5.5923e-05
-1.26528e-05
-5.3331e-05
-1.30083e-05
-5.06665e-05
-1.32993e-05
-4.79205e-05
-1.368e-05
-4.51143e-05
-1.40783e-05
-4.21982e-05
-1.46151e-05
-3.91539e-05
-1.52473e-05
-3.59564e-05
-1.60078e-05
-3.25871e-05
-1.6938e-05
-2.90059e-05
-1.79498e-05
-2.51964e-05
-1.91128e-05
-2.11087e-05
-2.04247e-05
-1.67698e-05
-2.17196e-05
-1.21349e-05
-2.3134e-05
-7.23076e-06
-2.45288e-05
-2.04213e-06
-2.59105e-05
3.42069e-06
-2.72537e-05
9.12887e-06
-2.85181e-05
1.507e-05
-2.97177e-05
2.12212e-05
-3.0687e-05
2.7562e-05
-3.16642e-05
3.40356e-05
-3.23753e-05
4.06366e-05
-3.28535e-05
4.72628e-05
-3.30646e-05
5.38659e-05
-3.30128e-05
6.04471e-05
-3.27449e-05
6.68832e-05
-3.20864e-05
7.314e-05
-3.11541e-05
7.91519e-05
-2.99229e-05
8.48171e-05
-2.82213e-05
9.01288e-05
-2.64557e-05
9.49691e-05
-2.41735e-05
9.93612e-05
-2.18016e-05
0.000103179
-1.90398e-05
0.000106422
-1.61399e-05
0.000109021
-1.29943e-05
0.000111034
-1.00497e-05
0.000112341
-6.53787e-06
0.000113085
-3.65883e-06
0.000113023
2.76729e-07
0.000112246
3.69646e-06
0.000110815
7.11581e-06
0.000108937
9.47644e-06
0.000106392
1.25657e-05
0.000103409
1.4912e-05
9.99751e-05
1.70209e-05
9.6114e-05
1.92326e-05
9.19879e-05
2.0571e-05
8.74672e-05
2.24779e-05
8.27922e-05
2.33478e-05
7.78255e-05
2.47511e-05
7.27795e-05
2.5272e-05
6.75336e-05
2.61578e-05
6.22163e-05
2.65639e-05
5.68113e-05
2.69983e-05
5.13254e-05
2.73513e-05
4.57987e-05
2.76036e-05
4.02274e-05
2.77851e-05
3.46389e-05
2.80705e-05
2.89608e-05
2.83552e-05
2.31366e-05
2.89554e-05
1.73704e-05
2.88976e-05
1.15439e-05
2.90516e-05
5.71412e-06
2.90718e-05
-2.5178e-08
2.86117e-05
-5.77203e-06
2.8671e-05
-1.13234e-05
2.77961e-05
-1.68453e-05
2.75242e-05
-2.20714e-05
2.60446e-05
-2.71498e-05
2.51494e-05
-3.17838e-05
2.31618e-05
-3.6209e-05
2.21332e-05
-4.00777e-05
1.9365e-05
-4.36094e-05
1.72947e-05
-4.64254e-05
1.38954e-05
-4.86862e-05
1.12159e-05
-5.00212e-05
6.66646e-06
-5.06122e-05
2.73141e-06
-5.00213e-05
-2.82451e-06
-4.84686e-05
-6.68774e-06
-4.55813e-05
-7.20499e-06
-4.14533e-05
-6.23724e-06
-3.69696e-05
-6.66805e-06
-3.27631e-05
-1.09063e-05
-3.57465e-05
-2.89371e-05
0.000169723
-9.16665e-06
0.00017024
-3.24374e-06
0.00016979
2.4925e-06
0.000168452
7.84431e-06
0.000166257
1.30339e-05
0.000163276
1.77638e-05
0.000159515
2.24389e-05
0.000155059
2.66222e-05
0.000149898
3.08689e-05
0.000144095
3.47048e-05
0.00013762
3.87035e-05
0.000130587
4.21296e-05
0.000122948
4.56897e-05
0.000114857
4.84504e-05
0.000106249
5.14729e-05
9.71633e-05
5.44162e-05
8.77194e-05
5.64329e-05
7.79246e-05
5.85544e-05
6.78991e-05
6.00198e-05
5.76609e-05
6.11793e-05
4.73134e-05
6.16752e-05
3.69686e-05
6.1935e-05
2.66953e-05
6.13311e-05
1.65489e-05
6.07004e-05
6.65061e-06
5.92131e-05
-2.96275e-06
5.75193e-05
-1.22272e-05
5.54589e-05
-2.11337e-05
5.33315e-05
-2.96387e-05
5.09475e-05
-3.77271e-05
4.84373e-05
-4.53545e-05
4.56646e-05
-5.24977e-05
4.27442e-05
-5.90958e-05
3.94715e-05
-6.51095e-05
3.59734e-05
-7.04967e-05
3.22375e-05
-7.52213e-05
2.82984e-05
-7.92608e-05
2.42426e-05
-8.26138e-05
2.01576e-05
-8.529e-05
1.6149e-05
-8.73201e-05
1.22932e-05
-8.87437e-05
8.67181e-06
-8.9609e-05
5.3214e-06
-8.9965e-05
2.27505e-06
-8.98963e-05
-2.93109e-07
-8.94612e-05
-2.50143e-06
-8.869e-05
-4.53533e-06
-8.76168e-05
-6.36522e-06
-8.62643e-05
-8.06173e-06
-8.4658e-05
-9.60817e-06
-8.27994e-05
-1.11495e-05
-8.07003e-05
-1.26194e-05
-7.83507e-05
-1.41485e-05
-7.56886e-05
-1.60444e-05
-7.27231e-05
-1.78777e-05
-6.93727e-05