/*--------------------------------*- C++ -*----------------------------------*\
| =========                 |                                                 |
| \\      /  F ield         | OpenFOAM: The Open Source CFD Toolbox           |
|  \\    /   O peration     | Version:  3.0.1                                 |
|   \\  /    A nd           | Web:      www.OpenFOAM.org                      |
|    \\/     M anipulation  |                                                 |
\*---------------------------------------------------------------------------*/
FoamFile
{
    version     2.0;
    format      ascii;
    class       volVectorField;
    location    "22.8";
    object      U;
}
// * * * * * * * * * * * * * * * * * * * * * * * * * * * * * * * * * * * * * //

dimensions      [0 1 -1 0 0 0 0];

internalField   nonuniform List<vector> 
22680
(
(0.167971 -0.000185883 0)
(0.168775 -6.49994e-05 0)
(0.168839 4.79522e-05 0)
(0.167976 0.000156099 0)
(0.166209 0.000259476 0)
(0.163605 0.000356226 0)
(0.160203 0.000448464 0)
(0.156048 0.000534399 0)
(0.15118 0.000617409 0)
(0.145641 0.00069308 0)
(0.139466 0.000767881 0)
(0.132694 0.000833796 0)
(0.125359 0.000900977 0)
(0.117498 0.000957131 0)
(0.10915 0.00101614 0)
(0.100354 0.0010718 0)
(0.0911568 0.00111014 0)
(0.0816135 0.00115594 0)
(0.0717856 0.00117588 0)
(0.0617438 0.00120725 0)
(0.0515678 0.00120678 0)
(0.0413384 0.00121818 0)
(0.0311418 0.00119978 0)
(0.0210639 0.00119117 0)
(0.011274 0.0011582 0)
(0.00160656 0.00113479 0)
(-0.00793303 0.00108933 0)
(-0.0170376 0.00105315 0)
(-0.0257413 0.00100072 0)
(-0.0340258 0.000955018 0)
(-0.0418614 0.00089553 0)
(-0.0492122 0.000840017 0)
(-0.0560382 0.00077186 0)
(-0.0622977 0.000705763 0)
(-0.0679506 0.00063357 0)
(-0.0729599 0.000553744 0)
(-0.0773014 0.000474611 0)
(-0.0809643 0.000393625 0)
(-0.0839536 0.000315249 0)
(-0.0862913 0.000239932 0)
(-0.0880108 0.000169366 0)
(-0.0891504 0.000104109 0)
(-0.0897496 4.55353e-05 0)
(-0.0898657 -6.93845e-06 0)
(-0.0895468 -5.40274e-05 0)
(-0.0888544 -9.62071e-05 0)
(-0.0878268 -0.000133958 0)
(-0.0864997 -0.00016854 0)
(-0.0849005 -0.000200142 0)
(-0.0830496 -0.000230849 0)
(-0.0809575 -0.000260313 0)
(-0.078623 -0.000290404 0)
(-0.0760345 -0.000323731 0)
(-0.0731685 -0.000358258 0)
(-0.0699876 -0.000398072 0)
(-0.0664628 -0.000439123 0)
(-0.0625664 -0.000486106 0)
(-0.0582781 -0.000531415 0)
(-0.0535857 -0.000581965 0)
(-0.0484983 -0.000624989 0)
(-0.0430312 -0.000671549 0)
(-0.0372223 -0.000705098 0)
(-0.0311165 -0.000740143 0)
(-0.024768 -0.00076083 0)
(-0.0182487 -0.000782424 0)
(-0.0116049 -0.000789328 0)
(-0.00489433 -0.0007997 0)
(0.0018342 -0.000795872 0)
(0.00854228 -0.00079526 0)
(0.0152033 -0.000783974 0)
(0.0217658 -0.000768443 0)
(0.0282072 -0.000755463 0)
(0.0345017 -0.00073392 0)
(0.0406221 -0.000714308 0)
(0.0465461 -0.000687701 0)
(0.0522532 -0.000662459 0)
(0.0577252 -0.000631777 0)
(0.0629451 -0.000602125 0)
(0.0678984 -0.000567811 0)
(0.0725671 -0.000534245 0)
(0.076937 -0.000496202 0)
(0.0809889 -0.000458605 0)
(0.0847087 -0.000415974 0)
(0.0880756 -0.000373412 0)
(0.091073 -0.000327078 0)
(0.0936844 -0.000281045 0)
(0.0958861 -0.000230815 0)
(0.0976583 -0.000180867 0)
(0.0989956 -0.000128877 0)
(0.0998777 -7.36879e-05 0)
(0.100307 -2.1141e-05 0)
(0.10028 3.6351e-05 0)
(0.0997612 9.31162e-05 0)
(0.0987254 0.000155836 0)
(0.0972055 0.000217863 0)
(0.0951193 0.000284609 0)
(0.0924676 0.000351368 0)
(0.089231 0.000422865 0)
(0.0854219 0.000491405 0)
(0.0809943 0.00056609 0)
(0.0759848 0.000632199 0)
(0.0704175 0.000703723 0)
(0.064247 0.000758869 0)
(0.0576153 0.000819342 0)
(0.0505544 0.000865278 0)
(0.0430914 0.000906595 0)
(0.0353011 0.000935382 0)
(0.0273032 0.000961463 0)
(0.019164 0.000972335 0)
(0.0109831 0.000970452 0)
(0.00279819 0.000961226 0)
(-0.00522042 0.000935552 0)
(-0.013005 0.000911754 0)
(-0.0204795 0.000866829 0)
(-0.027626 0.000828681 0)
(-0.0343667 0.000769465 0)
(-0.0406714 0.000721122 0)
(-0.0464689 0.000655406 0)
(-0.0517609 0.000600297 0)
(-0.056541 0.000526894 0)
(-0.060773 0.000470828 0)
(-0.0643877 0.000395712 0)
(-0.0675121 0.000347694 0)
(-0.0701858 0.000277848 0)
(-0.0722432 0.00021442 0)
(-0.0737849 0.000155446 0)
(-0.074904 0.000111779 0)
(-0.0756728 6.25758e-05 0)
(-0.0759637 1.28115e-05 0)
(-0.07591 -3.15824e-05 0)
(-0.0754309 -7.74731e-05 0)
(-0.0746432 -0.000113332 0)
(-0.0735236 -0.000151504 0)
(-0.072113 -0.00018099 0)
(-0.0704797 -0.000209946 0)
(-0.0686115 -0.000230664 0)
(-0.0665713 -0.00025261 0)
(-0.0643774 -0.000267537 0)
(-0.0620648 -0.00028125 0)
(-0.0596517 -0.000291556 0)
(-0.0571532 -0.000298315 0)
(-0.0545912 -0.00030835 0)
(-0.0519607 -0.00031525 0)
(-0.0492441 -0.000322731 0)
(-0.046465 -0.000333843 0)
(-0.0435899 -0.000345902 0)
(-0.0406069 -0.000361219 0)
(-0.0374823 -0.000379799 0)
(-0.0341931 -0.000402371 0)
(-0.0306963 -0.000425666 0)
(-0.0269711 -0.000453883 0)
(-0.0230182 -0.000483423 0)
(-0.0188094 -0.000515109 0)
(-0.0143258 -0.000546675 0)
(-0.00955875 -0.000580438 0)
(-0.0045135 -0.000612481 0)
(0.000807106 -0.000644291 0)
(0.00639549 -0.000674536 0)
(0.0122194 -0.000703357 0)
(0.0182677 -0.000725327 0)
(0.0244997 -0.000748302 0)
(0.0308941 -0.000767401 0)
(0.0374238 -0.00077567 0)
(0.0440158 -0.000782235 0)
(0.0506028 -0.000780848 0)
(0.0571605 -0.000773186 0)
(0.0636413 -0.000758904 0)
(0.069946 -0.000735324 0)
(0.0760401 -0.000706577 0)
(0.0818321 -0.000666941 0)
(0.087285 -0.000624625 0)
(0.0923297 -0.000571545 0)
(0.0968991 -0.000514557 0)
(0.100984 -0.000449324 0)
(0.104509 -0.000380709 0)
(0.107381 -0.000308129 0)
(0.109693 -0.000238051 0)
(0.111349 -0.000155261 0)
(0.112377 -8.54222e-05 0)
(0.112728 6.14363e-06 0)
(0.112348 8.46854e-05 0)
(0.111224 0.000167486 0)
(0.109573 0.000225601 0)
(0.107381 0.000296453 0)
(0.104609 0.000352951 0)
(0.101471 0.000400628 0)
(0.0978288 0.000454694 0)
(0.0938755 0.000486431 0)
(0.0895704 0.000530745 0)
(0.0850053 0.000552556 0)
(0.0802066 0.0005854 0)
(0.0752 0.000599113 0)
(0.0700567 0.000617869 0)
(0.0647709 0.000628296 0)
(0.0594287 0.000637842 0)
(0.0540005 0.000645746 0)
(0.0485143 0.00065322 0)
(0.0429786 0.000657275 0)
(0.0374015 0.00066541 0)
(0.0317625 0.000671696 0)
(0.0260219 0.000683858 0)
(0.0202455 0.000684689 0)
(0.0144588 0.000687 0)
(0.00864345 0.000687399 0)
(0.00289371 0.000677275 0)
(-0.00282825 0.000678036 0)
(-0.00847077 0.000658462 0)
(-0.0140017 0.000649797 0)
(-0.0193692 0.00061603 0)
(-0.0244583 0.000592631 0)
(-0.029255 0.000548993 0)
(-0.0338183 0.000523865 0)
(-0.037989 0.00046045 0)
(-0.0416236 0.000404307 0)
(-0.0447188 0.000326964 0)
(-0.0472277 0.000262153 0)
(-0.0490134 0.000150816 0)
(-0.0499554 2.78545e-05 0)
(-0.0497035 -4.27487e-05 0)
(-0.0484292 0.000143326 0)
(-0.0487491 0.000455981 0)
(-0.0519453 0.000872091 0)
(-0.059714 0.000738169 0)
(-0.0657335 -0.000352489 0)
(-0.0616189 -0.00516925 0)
(0.16803 -0.000557473 0)
(0.16883 -0.000196197 0)
(0.168893 0.000145605 0)
(0.168025 0.000469041 0)
(0.166256 0.000778732 0)
(0.16365 0.00106897 0)
(0.160246 0.00134567 0)
(0.156088 0.00160345 0)
(0.151218 0.00185248 0)
(0.145676 0.00207948 0)
(0.1395 0.00230388 0)
(0.132725 0.00250162 0)
(0.125389 0.00270317 0)
(0.117526 0.00287165 0)
(0.109176 0.00304871 0)
(0.100377 0.00321576 0)
(0.0911764 0.00333081 0)
(0.0816299 0.00346827 0)
(0.0717978 0.00352813 0)
(0.0617519 0.00362227 0)
(0.0515711 0.00362085 0)
(0.041337 0.00365506 0)
(0.0311362 0.00359984 0)
(0.0210542 0.00357394 0)
(0.0112613 0.003475 0)
(0.00159043 0.00340473 0)
(-0.00795165 0.00326825 0)
(-0.0170584 0.0031597 0)
(-0.0257638 0.00300241 0)
(-0.0340505 0.00286531 0)
(-0.0418879 0.00268686 0)
(-0.0492413 0.00252033 0)
(-0.0560693 0.00231585 0)
(-0.0623315 0.00211754 0)
(-0.0679866 0.00190091 0)
(-0.0729971 0.00166135 0)
(-0.0773394 0.00142386 0)
(-0.0810018 0.0011808 0)
(-0.0839899 0.000945574 0)
(-0.0863256 0.000719551 0)
(-0.0880425 0.000507808 0)
(-0.0891801 0.000312041 0)
(-0.0897763 0.000136667 0)
(-0.0898894 -2.11031e-05 0)
(-0.0895679 -0.000162308 0)
(-0.0888734 -0.000288837 0)
(-0.087844 -0.000402048 0)
(-0.0865156 -0.000505744 0)
(-0.0849154 -0.000600493 0)
(-0.0830641 -0.000692553 0)
(-0.0809722 -0.000780881 0)
(-0.0786383 -0.000871096 0)
(-0.0760511 -0.000971027 0)
(-0.0731867 -0.00107458 0)
(-0.0700076 -0.00119401 0)
(-0.0664843 -0.00131719 0)
(-0.0625894 -0.00145819 0)
(-0.0583017 -0.00159421 0)
(-0.0536092 -0.00174595 0)
(-0.0485206 -0.00187513 0)
(-0.0430516 -0.00201488 0)
(-0.0372399 -0.00211559 0)
(-0.0311312 -0.00222077 0)
(-0.0247797 -0.00228281 0)
(-0.0182573 -0.00234754 0)
(-0.011611 -0.00236846 0)
(-0.00489793 -0.00239942 0)
(0.00183296 -0.00238786 0)
(0.00854292 -0.00238606 0)
(0.0152057 -0.00235218 0)
(0.0217699 -0.00230555 0)
(0.028213 -0.00226658 0)
(0.0345088 -0.00220202 0)
(0.0406308 -0.00214298 0)
(0.046556 -0.00206324 0)
(0.0522644 -0.00198767 0)
(0.0577376 -0.00189561 0)
(0.0629588 -0.00180676 0)
(0.0679133 -0.00170407 0)
(0.0725835 -0.0016028 0)
(0.0769548 -0.00148938 0)
(0.0810084 -0.00137604 0)
(0.0847298 -0.0012488 0)
(0.088098 -0.00112137 0)
(0.0910971 -0.000981733 0)
(0.0937104 -0.000842808 0)
(0.0959133 -0.000692725 0)
(0.0976867 -0.000543021 0)
(0.0990246 -0.000387355 0)
(0.099908 -0.000221367 0)
(0.100339 -6.25622e-05 0)
(0.100312 0.000108683 0)
(0.099794 0.00027955 0)
(0.0987591 0.00046733 0)
(0.0972405 0.000653949 0)
(0.0951541 0.000853506 0)
(0.0925035 0.0010545 0)
(0.0892664 0.00126866 0)
(0.0854569 0.00147463 0)
(0.0810283 0.001698 0)
(0.0760175 0.00189768 0)
(0.070447 0.00211084 0)
(0.0642748 0.00227829 0)
(0.057643 0.0024589 0)
(0.0505797 0.00259539 0)
(0.043109 0.00272041 0)
(0.0353107 0.00280826 0)
(0.0273057 0.00288521 0)
(0.0191611 0.0029191 0)
(0.0109768 0.00291321 0)
(0.00278698 0.00288442 0)
(-0.00523373 0.0028064 0)
(-0.0130217 0.00273702 0)
(-0.0204988 0.00260246 0)
(-0.0276498 0.00248648 0)
(-0.0343919 0.0023088 0)
(-0.0406988 0.0021649 0)
(-0.0464991 0.00196502 0)
(-0.0517935 0.00180038 0)
(-0.0565753 0.00157933 0)
(-0.0608107 0.00141073 0)
(-0.0644222 0.00118397 0)
(-0.0675461 0.00104419 0)
(-0.0702199 0.000832144 0)
(-0.0722722 0.000646841 0)
(-0.0738084 0.00046641 0)
(-0.0749297 0.000338825 0)
(-0.0757021 0.000185254 0)
(-0.075988 3.95698e-05 0)
(-0.0759351 -9.42307e-05 0)
(-0.0754537 -0.000232735 0)
(-0.0746647 -0.000340341 0)
(-0.0735419 -0.000453503 0)
(-0.0721303 -0.000543077 0)
(-0.0704953 -0.000629914 0)
(-0.0686244 -0.00069221 0)
(-0.0665844 -0.000757279 0)
(-0.0643861 -0.000799942 0)
(-0.0620744 -0.000843248 0)
(-0.0596598 -0.000874497 0)
(-0.0571623 -0.000897242 0)
(-0.0545999 -0.000925826 0)
(-0.0519687 -0.000944641 0)
(-0.0492524 -0.000970106 0)
(-0.0464739 -0.00100107 0)
(-0.0435996 -0.00103956 0)
(-0.0406164 -0.00108437 0)
(-0.0374913 -0.00113825 0)
(-0.034204 -0.00120663 0)
(-0.0307116 -0.00127832 0)
(-0.0269875 -0.00136051 0)
(-0.0230341 -0.00144835 0)
(-0.0188245 -0.00154357 0)
(-0.01434 -0.00164047 0)
(-0.0095717 -0.00174045 0)
(-0.00452441 -0.0018384 0)
(0.000797784 -0.00193306 0)
(0.00638678 -0.00202385 0)
(0.012212 -0.00211164 0)
(0.0182613 -0.00217875 0)
(0.0244931 -0.00224724 0)
(0.0308892 -0.00230201 0)
(0.0374209 -0.00233037 0)
(0.0440158 -0.00234608 0)
(0.0506043 -0.00234463 0)
(0.0571662 -0.0023212 0)
(0.0636512 -0.00227515 0)
(0.0699588 -0.00220871 0)
(0.0760585 -0.00211857 0)
(0.0818533 -0.00200124 0)
(0.087309 -0.00187432 0)
(0.0923575 -0.00171467 0)
(0.0969294 -0.00154278 0)
(0.101017 -0.00135011 0)
(0.104542 -0.0011441 0)
(0.107412 -0.000922999 0)
(0.109726 -0.000712369 0)
(0.11138 -0.000465853 0)
(0.112409 -0.000255641 0)
(0.112761 1.58081e-05 0)
(0.112375 0.000251936 0)
(0.111246 0.000506262 0)
(0.109594 0.000675322 0)
(0.107403 0.000887426 0)
(0.104626 0.00106044 0)
(0.101487 0.00120164 0)
(0.0978395 0.00136207 0)
(0.0938836 0.00145959 0)
(0.0895746 0.00159278 0)
(0.0850065 0.00165802 0)
(0.080206 0.00175608 0)
(0.0752022 0.0017998 0)
(0.0700639 0.00185932 0)
(0.0647794 0.00188811 0)
(0.0594362 0.00191741 0)
(0.0540043 0.00194099 0)
(0.0485152 0.00195888 0)
(0.0429796 0.00197431 0)
(0.0374036 0.00199754 0)
(0.031766 0.00201385 0)
(0.0260215 0.00205145 0)
(0.0202421 0.00205181 0)
(0.0144554 0.00206089 0)
(0.00863624 0.00206137 0)
(0.00288724 0.00203036 0)
(-0.00283687 0.00203297 0)
(-0.00847746 0.00197741 0)
(-0.0140128 0.00195089 0)
(-0.0193811 0.00184798 0)
(-0.0244725 0.00177826 0)
(-0.0292699 0.00164704 0)
(-0.0338394 0.00156923 0)
(-0.0380115 0.00138029 0)
(-0.0416452 0.00121735 0)
(-0.0447421 0.000980934 0)
(-0.0472491 0.000792565 0)
(-0.0490228 0.000478155 0)
(-0.0500183 0.000167929 0)
(-0.0501819 -0.00029272 0)
(-0.0489369 -0.000391269 0)
(-0.0467399 0.00048304 0)
(-0.0460576 0.00161848 0)
(-0.047302 0.00204254 0)
(-0.0474603 0.0018963 0)
(-0.0394205 -0.000396548 0)
(0.168147 -0.000928322 0)
(0.168941 -0.000326468 0)
(0.168999 0.000244334 0)
(0.168123 0.000783701 0)
(0.166351 0.0012989 0)
(0.163739 0.00178259 0)
(0.16033 0.00224371 0)
(0.156168 0.00267331 0)
(0.151294 0.00308831 0)
(0.145747 0.00346662 0)
(0.139567 0.00384059 0)
(0.132788 0.00417015 0)
(0.125448 0.00450611 0)
(0.11758 0.00478694 0)
(0.109226 0.00508215 0)
(0.100422 0.00536074 0)
(0.0912154 0.00555265 0)
(0.0816622 0.00578196 0)
(0.0718218 0.00588186 0)
(0.0617674 0.0060389 0)
(0.0515772 0.00603654 0)
(0.0413336 0.00609359 0)
(0.0311243 0.00600145 0)
(0.0210341 0.00595797 0)
(0.0112352 0.00579286 0)
(0.00155745 0.00567562 0)
(-0.00798959 0.00544805 0)
(-0.0171008 0.00526702 0)
(-0.0258094 0.00500481 0)
(-0.0341005 0.00477634 0)
(-0.0419416 0.00447895 0)
(-0.0493 0.00420148 0)
(-0.0561322 0.00386066 0)
(-0.0623996 0.00353008 0)
(-0.0680593 0.00316886 0)
(-0.0730721 0.00276932 0)
(-0.0774158 0.00237315 0)
(-0.0810773 0.00196769 0)
(-0.0840629 0.00157531 0)
(-0.0863944 0.00119833 0)
(-0.0881061 0.000845457 0)
(-0.0892389 0.000519358 0)
(-0.0898308 0.000226858 0)
(-0.0899365 -3.61001e-05 0)
(-0.0896103 -0.000271335 0)
(-0.0889114 -0.000482133 0)
(-0.0878783 -0.000670682 0)
(-0.086547 -0.00084335 0)
(-0.0849449 -0.00100108 0)
(-0.0830927 -0.00115431 0)
(-0.0810009 -0.00130132 0)
(-0.0786683 -0.00145148 0)
(-0.0760834 -0.00161786 0)
(-0.0732219 -0.00179034 0)
(-0.0700463 -0.00198937 0)
(-0.066526 -0.00219475 0)
(-0.0626337 -0.00242996 0)
(-0.0583469 -0.00265695 0)
(-0.0536541 -0.00291021 0)
(-0.0485626 -0.00312584 0)
(-0.0430896 -0.003359 0)
(-0.037272 -0.00352703 0)
(-0.0311574 -0.00370246 0)
(-0.0247995 -0.00380577 0)
(-0.0182706 -0.00391364 0)
(-0.0116192 -0.00394931 0)
(-0.00490074 -0.00399972 0)
(0.00183508 -0.00398089 0)
(0.00854906 -0.00397758 0)
(0.0152158 -0.00392102 0)
(0.0217832 -0.00384324 0)
(0.0282299 -0.00377827 0)
(0.0345285 -0.00367059 0)
(0.0406533 -0.00357223 0)
(0.0465808 -0.00343927 0)
(0.0522917 -0.00331336 0)
(0.0577667 -0.00315995 0)
(0.0629899 -0.00301195 0)
(0.067946 -0.00284065 0)
(0.0726178 -0.00267212 0)
(0.0769907 -0.0024829 0)
(0.0810461 -0.00229427 0)
(0.0847694 -0.00208189 0)
(0.0881391 -0.00186972 0)
(0.0911401 -0.00163665 0)
(0.093755 -0.00140519 0)
(0.0959599 -0.00115462 0)
(0.0977347 -0.000905742 0)
(0.099074 -0.000646037 0)
(0.0999591 -0.000369203 0)
(0.100391 -0.000104284 0)
(0.100365 0.000181936 0)
(0.0998501 0.000465602 0)
(0.098819 0.000778611 0)
(0.0973023 0.0010895 0)
(0.0952185 0.00142222 0)
(0.09257 0.00175672 0)
(0.089335 0.00211502 0)
(0.085527 0.00245847 0)
(0.0810969 0.00282999 0)
(0.0760853 0.00316402 0)
(0.0705098 0.00351742 0)
(0.0643358 0.00379753 0)
(0.0577037 0.00409817 0)
(0.0506388 0.00432898 0)
(0.0431535 0.00453773 0)
(0.0353381 0.00468401 0)
(0.0273164 0.0048128 0)
(0.0191609 0.00486678 0)
(0.0109693 0.00485745 0)
(0.00276898 0.00480906 0)
(-0.00525209 0.00467848 0)
(-0.0130513 0.004563 0)
(-0.0205338 0.00433625 0)
(-0.0276953 0.0041458 0)
(-0.0344414 0.00384666 0)
(-0.0407542 0.00361053 0)
(-0.0465591 0.00327358 0)
(-0.0518619 0.00300272 0)
(-0.0566482 0.00263126 0)
(-0.0608914 0.00235432 0)
(-0.0644962 0.00197597 0)
(-0.0676161 0.00173884 0)
(-0.070278 0.00138708 0)
(-0.0723233 0.00107558 0)
(-0.0738613 0.000777758 0)
(-0.0749805 0.000561335 0)
(-0.0757612 0.000308845 0)
(-0.0760382 6.41283e-05 0)
(-0.0759854 -0.000158472 0)
(-0.0754974 -0.000388759 0)
(-0.0747051 -0.000569508 0)
(-0.0735788 -0.000757907 0)
(-0.0721625 -0.00090568 0)
(-0.0705239 -0.00105288 0)
(-0.0686491 -0.001152 0)
(-0.0666068 -0.001264 0)
(-0.0644057 -0.00133512 0)
(-0.0620932 -0.00140577 0)
(-0.0596749 -0.00145612 0)
(-0.057178 -0.00149606 0)
(-0.0546149 -0.00154293 0)
(-0.0519837 -0.00157418 0)
(-0.0492693 -0.00161729 0)
(-0.046492 -0.00166838 0)
(-0.0436179 -0.00173184 0)
(-0.0406341 -0.00180686 0)
(-0.0375105 -0.00189717 0)
(-0.0342266 -0.00201091 0)
(-0.0307401 -0.00212884 0)
(-0.027024 -0.00226713 0)
(-0.0230731 -0.00241584 0)
(-0.0188611 -0.00257278 0)
(-0.014374 -0.00273594 0)
(-0.00960319 -0.00290271 0)
(-0.00455345 -0.00306552 0)
(0.000769482 -0.00322386 0)
(0.00635802 -0.00337486 0)
(0.012185 -0.00352094 0)
(0.0182345 -0.00363034 0)
(0.0244636 -0.00374783 0)
(0.0308638 -0.00383625 0)
(0.0374001 -0.00388298 0)
(0.0439979 -0.00391143 0)
(0.0505918 -0.00390767 0)
(0.0571623 -0.00386942 0)
(0.0636556 -0.00379379 0)
(0.0699713 -0.0036816 0)
(0.0760799 -0.00353448 0)
(0.0818825 -0.00333599 0)
(0.0873447 -0.00312647 0)
(0.0924007 -0.00285924 0)
(0.0969799 -0.00257357 0)
(0.101077 -0.00224916 0)
(0.104604 -0.0019075 0)
(0.107472 -0.00154053 0)
(0.109788 -0.00118738 0)
(0.111443 -0.000776665 0)
(0.112471 -0.000428437 0)
(0.11283 3.07582e-05 0)
(0.112433 0.000424034 0)
(0.111295 0.000840119 0)
(0.109647 0.001128 0)
(0.10746 0.00148105 0)
(0.104672 0.00176484 0)
(0.101533 0.00200575 0)
(0.0978742 0.0022712 0)
(0.093913 0.00243428 0)
(0.0895951 0.00265572 0)
(0.0850255 0.00276243 0)
(0.0802212 0.00292834 0)
(0.0752201 0.00299711 0)
(0.0700866 0.00309471 0)
(0.0648047 0.0031455 0)
(0.0594583 0.00319635 0)
(0.0540193 0.00323396 0)
(0.0485193 0.00326466 0)
(0.0429788 0.00328888 0)
(0.0374041 0.00332998 0)
(0.0317716 0.00335613 0)
(0.0260189 0.00341879 0)
(0.020233 0.00342188 0)
(0.0144433 0.00343553 0)
(0.00861284 0.00343631 0)
(0.0028666 0.00338586 0)
(-0.00286545 0.00339076 0)
(-0.00850336 0.00329657 0)
(-0.0140482 0.00325173 0)
(-0.0194197 0.00307907 0)
(-0.0245241 0.0029673 0)
(-0.0293195 0.00274543 0)
(-0.0338906 0.0026181 0)
(-0.0380551 0.00230079 0)
(-0.0416962 0.00202904 0)
(-0.0448011 0.00163499 0)
(-0.0473356 0.00131284 0)
(-0.0491265 0.000784219 0)
(-0.0500678 0.000329618 0)
(-0.0500604 -0.000291903 0)
(-0.0491277 -0.000711855 0)
(-0.0474788 -0.000190636 0)
(-0.0441011 0.000974627 0)
(-0.0410961 0.00101284 0)
(-0.0377191 -0.00116605 0)
(-0.0306247 -0.00796791 0)
(0.168322 -0.0012976 0)
(0.169108 -0.000454954 0)
(0.169159 0.000344383 0)
(0.168272 0.00110068 0)
(0.166493 0.00182059 0)
(0.163873 0.00249767 0)
(0.160457 0.00314315 0)
(0.156287 0.00374448 0)
(0.151407 0.0043254 0)
(0.145854 0.00485499 0)
(0.139668 0.0053785 0)
(0.132882 0.00583986 0)
(0.125537 0.00631026 0)
(0.117662 0.00670352 0)
(0.109301 0.00711704 0)
(0.100491 0.0075074 0)
(0.0912738 0.0077764 0)
(0.0817109 0.0080979 0)
(0.071858 0.00823806 0)
(0.0617908 0.00845826 0)
(0.0515862 0.00845497 0)
(0.0413286 0.0085349 0)
(0.0311063 0.00840562 0)
(0.0210039 0.00834411 0)
(0.011196 0.00811243 0)
(0.00150794 0.00794804 0)
(-0.00804653 0.00762937 0)
(-0.0171643 0.00737565 0)
(-0.0258779 0.00700842 0)
(-0.0341756 0.00668862 0)
(-0.042022 0.00627235 0)
(-0.0493881 0.00588403 0)
(-0.0562265 0.00540688 0)
(-0.0625018 0.00494394 0)
(-0.0681683 0.00443786 0)
(-0.0731847 0.00387789 0)
(-0.0775307 0.00332251 0)
(-0.0811908 0.00275409 0)
(-0.0841727 0.00220403 0)
(-0.0864979 0.00167568 0)
(-0.0882018 0.00118157 0)
(-0.0893269 0.000725608 0)
(-0.089912 0.000314997 0)
(-0.0900071 -5.23504e-05 0)
(-0.0896737 -0.000381639 0)
(-0.0889683 -0.000676523 0)
(-0.0879296 -0.000940202 0)
(-0.0865942 -0.00118161 0)
(-0.084989 -0.00140205 0)
(-0.0831356 -0.00161616 0)
(-0.0810439 -0.00182153 0)
(-0.0787131 -0.00203134 0)
(-0.0761318 -0.00226392 0)
(-0.0732746 -0.00250515 0)
(-0.0701043 -0.00278374 0)
(-0.0665887 -0.00307146 0)
(-0.0627003 -0.00340117 0)
(-0.0584149 -0.0037196 0)
(-0.0537215 -0.00407492 0)
(-0.0486258 -0.00437754 0)
(-0.0431467 -0.00470449 0)
(-0.0373203 -0.0049401 0)
(-0.0311966 -0.00518596 0)
(-0.0248292 -0.00533042 0)
(-0.0182906 -0.00548166 0)
(-0.0116312 -0.0055327 0)
(-0.00490465 -0.00560074 0)
(0.00183836 -0.00557571 0)
(0.00855849 -0.0055703 0)
(0.015231 -0.00549093 0)
(0.0218034 -0.00538193 0)
(0.0282554 -0.00529087 0)
(0.034558 -0.00514005 0)
(0.0406873 -0.00500223 0)
(0.046618 -0.00481606 0)
(0.0523326 -0.00463967 0)
(0.0578102 -0.00442491 0)
(0.0630364 -0.00421773 0)
(0.0679949 -0.00397791 0)
(0.0726692 -0.00374207 0)
(0.0770445 -0.00347657 0)
(0.0811026 -0.00321184 0)
(0.0848288 -0.00291505 0)
(0.0882011 -0.00261827 0)
(0.0912046 -0.00229182 0)
(0.0938222 -0.00196736 0)
(0.0960297 -0.00161689 0)
(0.0978064 -0.0012689 0)
(0.0991483 -0.000904948 0)
(0.100035 -0.000517469 0)
(0.10047 -0.000145937 0)
(0.100446 0.000255623 0)
(0.0999346 0.000651291 0)
(0.0989086 0.00108882 0)
(0.0973955 0.00152466 0)
(0.0953149 0.00198937 0)
(0.0926715 0.00245899 0)
(0.0894361 0.00296043 0)
(0.0856329 0.00344338 0)
(0.0812 0.00396111 0)
(0.0761871 0.00443224 0)
(0.0706048 0.00492361 0)
(0.0644245 0.00531912 0)
(0.0577907 0.00573846 0)
(0.0507118 0.00606444 0)
(0.0432222 0.00635986 0)
(0.0353804 0.00656593 0)
(0.0273302 0.0067429 0)
(0.0191632 0.00681879 0)
(0.0109622 0.00680152 0)
(0.00273699 0.00673256 0)
(-0.0052756 0.00655227 0)
(-0.0131032 0.00639131 0)
(-0.0205845 0.00607293 0)
(-0.0277708 0.00580686 0)
(-0.0345124 0.00538765 0)
(-0.0408438 0.00505709 0)
(-0.0466473 0.00458475 0)
(-0.0519632 0.00420696 0)
(-0.0567431 0.00368726 0)
(-0.061003 0.0032977 0)
(-0.064598 0.00275744 0)
(-0.0677145 0.00243798 0)
(-0.0703608 0.00194108 0)
(-0.0724045 0.00150321 0)
(-0.0739676 0.00108449 0)
(-0.0750503 0.000790535 0)
(-0.0758633 0.000432445 0)
(-0.0760984 8.68069e-05 0)
(-0.0760626 -0.000224228 0)
(-0.0755589 -0.000546017 0)
(-0.074768 -0.000801198 0)
(-0.0736309 -0.00106038 0)
(-0.0722087 -0.00127035 0)
(-0.0705683 -0.00147663 0)
(-0.0686829 -0.00161418 0)
(-0.066641 -0.00177188 0)
(-0.0644307 -0.00186854 0)
(-0.0621197 -0.00196827 0)
(-0.0596942 -0.00203752 0)
(-0.0572018 -0.00209662 0)
(-0.0546318 -0.00215825 0)
(-0.0520042 -0.00220279 0)
(-0.0492913 -0.00226484 0)
(-0.0465166 -0.00233547 0)
(-0.0436416 -0.00242377 0)
(-0.0406621 -0.00252802 0)
(-0.0375387 -0.00265392 0)
(-0.0342586 -0.00281311 0)
(-0.0307815 -0.00297738 0)
(-0.0270726 -0.00317346 0)
(-0.0231286 -0.00338453 0)
(-0.0189147 -0.00360188 0)
(-0.0144238 -0.00383242 0)
(-0.00965326 -0.00406651 0)
(-0.00459951 -0.00429309 0)
(0.000723184 -0.00451514 0)
(0.00631368 -0.00472647 0)
(0.0121425 -0.00492791 0)
(0.0181934 -0.00508371 0)
(0.0244247 -0.00524666 0)
(0.030829 -0.00536806 0)
(0.0373714 -0.00543717 0)
(0.0439801 -0.00547663 0)
(0.0505772 -0.00547327 0)
(0.0571606 -0.00541799 0)
(0.0636676 -0.00531384 0)
(0.0699906 -0.00515778 0)
(0.0761181 -0.00495168 0)
(0.0819231 -0.00467473 0)
(0.0874061 -0.00437762 0)
(0.0924646 -0.00400843 0)
(0.0970543 -0.00360453 0)
(0.101167 -0.00315248 0)
(0.104693 -0.00267376 0)
(0.10757 -0.00215199 0)
(0.109885 -0.00166466 0)
(0.111538 -0.00108557 0)
(0.112571 -0.000600393 0)
(0.112936 4.36139e-05 0)
(0.112531 0.000601413 0)
(0.111361 0.00117848 0)
(0.109733 0.00157915 0)
(0.107557 0.00207446 0)
(0.104734 0.00247347 0)
(0.101614 0.00281442 0)
(0.0979211 0.00318437 0)
(0.0939694 0.00340893 0)
(0.089626 0.00371859 0)
(0.085062 0.00387151 0)
(0.0802455 0.00409719 0)
(0.0752465 0.00419563 0)
(0.0701155 0.00433206 0)
(0.0648215 0.00440298 0)
(0.059481 0.00447509 0)
(0.0540312 0.00452827 0)
(0.0485279 0.00457503 0)
(0.0429724 0.0046024 0)
(0.0373994 0.00466084 0)
(0.0317928 0.00470192 0)
(0.026015 0.004789 0)
(0.0202223 0.00479738 0)
(0.0144392 0.00481362 0)
(0.00858297 0.00481293 0)
(0.00283949 0.00474104 0)
(-0.00290955 0.0047479 0)
(-0.00853312 0.00461501 0)
(-0.0140875 0.00455689 0)
(-0.0194613 0.00431524 0)
(-0.0246045 0.00415316 0)
(-0.0293973 0.00384267 0)
(-0.0339681 0.00366857 0)
(-0.0381127 0.00321736 0)
(-0.0417738 0.00284533 0)
(-0.0449175 0.00229293 0)
(-0.0474655 0.00185539 0)
(-0.0492613 0.00110828 0)
(-0.0502656 0.000426625 0)
(-0.0502283 -0.000477583 0)
(-0.0490134 -0.00102193 0)
(-0.0474362 -0.000599395 0)
(-0.0434852 2.82106e-05 0)
(-0.039556 0.000233255 0)
(-0.0341458 -0.000188416 0)
(-0.0288869 -0.00596293 0)
(0.168556 -0.00166447 0)
(0.16933 -0.000581184 0)
(0.16937 0.00044689 0)
(0.16847 0.00142012 0)
(0.166682 0.00234445 0)
(0.164051 0.00321481 0)
(0.160627 0.00404456 0)
(0.156447 0.00481753 0)
(0.151558 0.00556428 0)
(0.145996 0.00624508 0)
(0.139802 0.00691809 0)
(0.133008 0.0075112 0)
(0.125655 0.00811611 0)
(0.117771 0.00862189 0)
(0.109402 0.00915394 0)
(0.100582 0.0096564 0)
(0.091352 0.0100028 0)
(0.0817758 0.010417 0)
(0.0719062 0.0105978 0)
(0.0618221 0.0108815 0)
(0.0515984 0.0108772 0)
(0.0413219 0.0109802 0)
(0.0310821 0.0108134 0)
(0.0209634 0.0107332 0)
(0.0111437 0.0104345 0)
(0.00144189 0.0102227 0)
(-0.00812249 0.00981267 0)
(-0.0172491 0.00948602 0)
(-0.0259693 0.00901365 0)
(-0.0342757 0.00860259 0)
(-0.0421293 0.00806754 0)
(-0.0495055 0.00756855 0)
(-0.0563523 0.00695507 0)
(-0.0626383 0.00635967 0)
(-0.0683139 0.00570835 0)
(-0.0733351 0.00498734 0)
(-0.0776841 0.00427197 0)
(-0.0813423 0.0035398 0)
(-0.0843194 0.00283133 0)
(-0.0866364 0.00215104 0)
(-0.0883301 0.00151547 0)
(-0.0894442 0.000929711 0)
(-0.0900188 0.000401155 0)
(-0.0901015 -7.07679e-05 0)
(-0.0897583 -0.000493747 0)
(-0.0890441 -0.000872454 0)
(-0.087998 -0.00121097 0)
(-0.0866569 -0.00152079 0)
(-0.0850477 -0.00180356 0)
(-0.0831926 -0.00207812 0)
(-0.0811012 -0.00234142 0)
(-0.0787728 -0.00261047 0)
(-0.0761964 -0.00290887 0)
(-0.073345 -0.00321863 0)
(-0.0701817 -0.00357671 0)
(-0.0666722 -0.00394694 0)
(-0.0627893 -0.00437159 0)
(-0.0585057 -0.00478212 0)
(-0.0538116 -0.0052403 0)
(-0.0487102 -0.00563065 0)
(-0.043223 -0.006052 0)
(-0.0373847 -0.0063556 0)
(-0.0312489 -0.00667213 0)
(-0.0248686 -0.00685761 0)
(-0.0183172 -0.00705238 0)
(-0.0116467 -0.0071186 0)
(-0.0049095 -0.00720345 0)
(0.00184281 -0.00717259 0)
(0.00857136 -0.00716473 0)
(0.0152514 -0.00706237 0)
(0.0218305 -0.006922 0)
(0.0282895 -0.00680477 0)
(0.0345975 -0.00661067 0)
(0.0407328 -0.00643334 0)
(0.0466677 -0.00619375 0)
(0.0523872 -0.00596698 0)
(0.057868 -0.00569062 0)
(0.0630984 -0.00542443 0)
(0.0680597 -0.00511579 0)
(0.072738 -0.00481297 0)
(0.0771162 -0.00447015 0)
(0.0811785 -0.00412985 0)
(0.0849082 -0.00374825 0)
(0.0882844 -0.0033674 0)
(0.0912914 -0.00294704 0)
(0.0939123 -0.00253022 0)
(0.0961231 -0.00207924 0)
(0.0979026 -0.00163249 0)
(0.0992474 -0.0011642 0)
(0.100136 -0.000665882 0)
(0.100575 -0.00018854 0)
(0.100555 0.000328362 0)
(0.100048 0.000835814 0)
(0.0990284 0.00139794 0)
(0.0975198 0.00195864 0)
(0.0954431 0.00255515 0)
(0.0928071 0.00316017 0)
(0.0895704 0.00380622 0)
(0.0857727 0.00442942 0)
(0.081336 0.00509184 0)
(0.076321 0.00570184 0)
(0.0707304 0.00633012 0)
(0.0645358 0.00684187 0)
(0.0579042 0.00738075 0)
(0.050791 0.00780278 0)
(0.0433112 0.00818503 0)
(0.0354338 0.00845422 0)
(0.0273525 0.00867928 0)
(0.0191659 0.00876893 0)
(0.0109651 0.00875256 0)
(0.00268288 0.00866361 0)
(-0.00530361 0.00842644 0)
(-0.0131922 0.00822967 0)
(-0.0206448 0.00780833 0)
(-0.0278855 0.0074773 0)
(-0.0345979 0.00692539 0)
(-0.0409727 0.00651098 0)
(-0.0467539 0.00588957 0)
(-0.0521004 0.00541984 0)
(-0.056851 0.00473726 0)
(-0.0611297 0.00425392 0)
(-0.0647139 0.00353486 0)
(-0.0678627 0.00313698 0)
(-0.0704539 0.00248337 0)
(-0.0725237 0.00193804 0)
(-0.074109 0.00139493 0)
(-0.075142 0.00101633 0)
(-0.0759932 0.000554176 0)
(-0.0761751 0.000104299 0)
(-0.0761677 -0.000282794 0)
(-0.0756377 -0.000708333 0)
(-0.0748485 -0.00102737 0)
(-0.0736998 -0.00137001 0)
(-0.0722681 -0.00163226 0)
(-0.0706251 -0.00190156 0)
(-0.0687254 -0.00207866 0)
(-0.0666857 -0.00228095 0)
(-0.0644614 -0.00240051 0)
(-0.0621548 -0.00253078 0)
(-0.059716 -0.00261863 0)
(-0.0572314 -0.0026959 0)
(-0.0546486 -0.00277259 0)
(-0.0520306 -0.00283259 0)
(-0.0493178 -0.00291402 0)
(-0.0465469 -0.00300099 0)
(-0.0436714 -0.00311516 0)
(-0.0407036 -0.00324965 0)
(-0.0375802 -0.00341117 0)
(-0.0343006 -0.00361036 0)
(-0.030841 -0.00382629 0)
(-0.0271322 -0.00407444 0)
(-0.023199 -0.00435188 0)
(-0.0189895 -0.00462943 0)
(-0.0144879 -0.00492962 0)
(-0.0097252 -0.00522688 0)
(-0.00466827 -0.00552164 0)
(0.000656941 -0.00580544 0)
(0.00625804 -0.00607612 0)
(0.0120816 -0.00633471 0)
(0.0181428 -0.00653788 0)
(0.024383 -0.006747 0)
(0.0307902 -0.0069001 0)
(0.0373357 -0.00699887 0)
(0.0439708 -0.0070446 0)
(0.050571 -0.00703539 0)
(0.0571636 -0.00697617 0)
(0.0636987 -0.00683588 0)
(0.0700146 -0.00663695 0)
(0.0761845 -0.00637504 0)
(0.0819781 -0.00601087 0)
(0.0875059 -0.0056374 0)
(0.092541 -0.00515101 0)
(0.0971659 -0.00464186 0)
(0.101292 -0.00405923 0)
(0.104801 -0.00343482 0)
(0.107716 -0.00276977 0)
(0.110018 -0.00214107 0)
(0.111662 -0.00139005 0)
(0.112719 -0.000777491 0)
(0.113067 5.99552e-05 0)
(0.112674 0.000783323 0)
(0.11146 0.00151638 0)
(0.109863 0.00202358 0)
(0.107676 0.00267511 0)
(0.104815 0.00318066 0)
(0.101721 0.00362393 0)
(0.0979708 0.00409931 0)
(0.0940618 0.00438444 0)
(0.0896636 0.0047898 0)
(0.0851111 0.00497645 0)
(0.080279 0.00527514 0)
(0.0752696 0.00538866 0)
(0.0701546 0.00557427 0)
(0.0648165 0.00566446 0)
(0.0595129 0.00575632 0)
(0.0540231 0.00583124 0)
(0.0485392 0.00588431 0)
(0.0429695 0.00592207 0)
(0.0373822 0.00599164 0)
(0.0318291 0.00604292 0)
(0.0259868 0.00617011 0)
(0.0202093 0.00616308 0)
(0.0144555 0.00618953 0)
(0.00854396 0.00620069 0)
(0.00283729 0.00609257 0)
(-0.00296716 0.00611512 0)
(-0.00855239 0.00592539 0)
(-0.0141463 0.0058687 0)
(-0.0194904 0.00555 0)
(-0.0246825 0.00535549 0)
(-0.0294947 0.00493752 0)
(-0.034068 0.00472389 0)
(-0.0381861 0.00412634 0)
(-0.0419066 0.00367516 0)
(-0.0450975 0.0029601 0)
(-0.0476495 0.00239188 0)
(-0.0494388 0.00142082 0)
(-0.0504332 0.000579839 0)
(-0.0504665 -0.000584595 0)
(-0.0491643 -0.0013915 0)
(-0.047525 -0.001416 0)
(-0.0430592 -0.00103318 0)
(-0.0398641 -0.00118837 0)