/*--------------------------------*- C++ -*----------------------------------*\
| =========                 |                                                 |
| \\      /  F ield         | OpenFOAM: The Open Source CFD Toolbox           |
|  \\    /   O peration     | Version:  3.0.1                                 |
|   \\  /    A nd           | Web:      www.OpenFOAM.org                      |
|    \\/     M anipulation  |                                                 |
\*---------------------------------------------------------------------------*/
FoamFile
{
    version     2.0;
    format      ascii;
    class       volScalarField;
    location    "18.8";
    object      p;
}
// * * * * * * * * * * * * * * * * * * * * * * * * * * * * * * * * * * * * * //

dimensions      [1 -1 -2 0 0 0 0];

internalField   nonuniform List<scalar> 
21420
(
4255.79
4272.42
4285.25
4294.16
4299.11
4299.82
4296.25
4288.58
4276.97
4261.48
4242.36
4219.88
4194.39
4166.24
4135.85
4103.61
4069.94
4035.34
4000.26
3965.18
3930.57
3897.31
3864.7
3832.81
3802.02
3772.63
3744.83
3718.76
3694.46
3671.99
3651.34
3632.52
3615.47
3600.16
3586.54
3574.56
3564.16
3555.31
3547.96
3542.07
3537.63
3534.66
3533.17
3533.11
3534.51
3537.43
3541.89
3547.95
3555.64
3565.02
3576.16
3589.09
3603.86
3620.51
3639.08
3659.56
3681.91
3706.11
3732.09
3759.73
3788.91
3819.46
3851.18
3883.87
3917.26
3951.06
3984.98
4018.7
4051.87
4084.14
4115.17
4144.59
4172.07
4197.26
4219.84
4239.5
4255.96
4268.95
4278.26
4283.72
4285.15
4282.61
4276.02
4265.44
4251.01
4232.93
4211.42
4186.78
4159.35
4129.48
4097.58
4064.06
4029.34
3993.86
3958.07
3922.4
3887.25
3853.01
3820.01
3788.54
3758.83
3731.04
3705.28
3681.62
3660.06
3640.56
3623.08
3607.53
3593.84
3581.91
3571.66
3563
3555.87
3550.21
3545.94
3543.06
3541.57
3541.41
3542.58
3545.12
3549.04
3554.38
3561.18
3569.51
3579.4
3590.92
3604.12
3619.03
3635.69
3654.1
3674.29
3696.22
3719.87
3745.18
3772.07
3800.45
3830.2
3861.17
3893.17
3925.96
3959.29
3992.87
4026.35
4059.36
4091.53
4122.43
4151.65
4178.78
4203.43
4225.22
4243.8
4258.88
4270.22
4277.63
4280.96
4280.19
4275.28
4266.37
4253.53
4236.96
4216.91
4193.66
4167.56
4138.97
4108.29
4075.93
4042.32
4007.89
3973.05
3938.21
3903.74
3869.99
3837.24
3805.76
3775.77
3747.45
3720.93
3696.31
3673.67
3653.02
3634.39
3617.76
3603.11
3590.38
3579.53
3570.49
3563.2
3557.58
3553.57
3551.12
3550.19
3550.66
3552.5
3555.69
3560.19
3565.99
3573.09
3581.47
3591.16
3602.2
3614.61
3628.44
3643.76
3660.61
3679.06
3699.16
3720.97
3744.5
3769.75
3796.68
3825.23
3855.27
3886.63
3919.1
3952.38
3986.14
4020.03
4053.6
4086.41
4118
4147.87
4175.57
4200.66
4222.72
4241.39
4256.37
4267.42
4274.38
4277.12
4275.67
4270.03
4260.39
4246.89
4229.78
4209.38
4186.03
4160.12
4132.03
4102.21
4071.05
4038.96
4006.33
3973.53
3940.87
3908.66
3877.16
3846.59
3817.11
3788.89
3762.02
3736.58
3712.65
3690.26
3669.44
3650.19
3632.52
3616.43
3601.91
3588.95
3577.54
3567.67
3559.35
3552.59
3547.37
3543.69
3541.58
3541.11
3542.2
3544.9
3549.25
3555.27
3562.98
3572.4
3583.59
3596.54
3611.26
3627.76
3646.05
3666.08
3687.82
3711.21
3736.16
3762.59
3790.37
3819.37
3849.42
3880.35
3911.98
3943.97
3976.1
4008.11
4039.68
4070.54
4100.35
4128.78
4155.52
4180.23
4202.59
4222.29
4239.06
4252.61
4262.74
4269.23
4271.95
4270.48
4265.03
4255.65
4242.37
4225.39
4204.9
4181.17
4154.55
4125.42
4094.16
4061.25
4027.15
3992.33
3957.3
3922.51
3888.93
3856.31
3824.42
3793.63
3764.31
3736.71
3710.99
3687.27
3665.61
3646.01
3628.49
3613
3599.49
3587.91
3578.18
3570.22
3563.98
3559.35
3556.3
3554.79
3554.95
3556.56
3559.58
3563.98
3569.72
3576.78
3585.15
3594.81
3605.76
3618
3631.53
3646.35
3662.45
3679.81
3698.41
3718.17
3739.02
3760.8
4157.81
4174.46
4187.29
4196.21
4201.16
4201.9
4198.3
4190.64
4179.02
4163.52
4144.38
4121.88
4096.38
4068.21
4037.8
4005.53
3971.85
3937.23
3902.13
3867.03
3832.41
3799.16
3766.54
3734.64
3703.84
3674.45
3646.65
3620.57
3596.28
3573.81
3553.17
3534.34
3517.29
3501.99
3488.37
3476.39
3466
3457.15
3449.8
3443.92
3439.47
3436.51
3435.01
3434.95
3436.35
3439.27
3443.73
3449.78
3457.47
3466.85
3477.98
3490.91
3505.68
3522.33
3540.9
3561.38
3583.73
3607.93
3633.91
3661.55
3690.74
3721.29
3753.03
3785.72
3819.12
3852.93
3886.87
3920.59
3953.78
3986.07
4017.11
4046.55
4074.05
4099.25
4121.85
4141.52
4157.99
4170.99
4180.31
4185.78
4187.21
4184.66
4178.07
4167.49
4153.05
4134.95
4113.43
4088.77
4061.32
4031.44
3999.52
3965.98
3931.24
3895.75
3859.94
3824.25
3789.09
3754.83
3721.83
3690.35
3660.64
3632.85
3607.09
3583.43
3561.87
3542.38
3524.9
3509.35
3495.66
3483.74
3473.49
3464.84
3457.71
3452.05
3447.79
3444.91
3443.42
3443.25
3444.42
3446.96
3450.88
3456.22
3463.02
3471.34
3481.23
3492.75
3505.95
3520.85
3537.51
3555.93
3576.11
3598.05
3621.69
3647
3673.9
3702.28
3732.04
3763.01
3795.01
3827.82
3861.16
3894.75
3928.24
3961.27
3993.46
4024.38
4053.62
4080.77
4105.43
4127.24
4145.83
4160.92
4172.27
4179.69
4183.03
4182.25
4177.34
4168.42
4155.57
4138.99
4118.92
4095.66
4069.54
4040.93
4010.23
3977.85
3944.23
3909.78
3874.92
3840.07
3805.59
3771.82
3739.07
3707.58
3677.59
3649.26
3622.74
3598.12
3575.48
3554.84
3536.21
3519.58
3504.93
3492.21
3481.36
3472.32
3465.03
3459.42
3455.41
3452.96
3452.04
3452.5
3454.35
3457.54
3462.04
3467.84
3474.93
3483.31
3493.01
3504.05
3516.45
3530.28
3545.59
3562.44
3580.89
3600.99
3622.79
3646.32
3671.57
3698.5
3727.05
3757.1
3788.47
3820.95
3854.24
3888.02
3921.91
3955.51
3988.34
4019.94
4049.84
4077.56
4102.66
4124.74
4143.42
4158.42
4169.48
4176.45
4179.19
4177.72
4172.09
4162.44
4148.92
4131.8
4111.38
4088.02
4062.08
4033.98
4004.14
3972.96
3940.86
3908.21
3875.4
3842.73
3810.51
3779.01
3748.42
3718.95
3690.72
3663.85
3638.41
3614.48
3592.09
3571.27
3552.02
3534.35
3518.26
3503.74
3490.78
3479.37
3469.51
3461.19
3454.42
3449.21
3445.53
3443.42
3442.94
3444.04
3446.74
3451.08
3457.1
3464.81
3474.23
3485.41
3498.36
3513.09
3529.59
3547.87
3567.91
3589.65
3613.03
3637.99
3664.42
3692.21
3721.21
3751.26
3782.2
3813.84
3845.84
3877.98
3910
3941.59
3972.46
4002.28
4030.73
4057.48
4082.2
4104.58
4124.3
4141.08
4154.64
4164.78
4171.28
4174
4172.53
4167.07
4157.7
4144.41
4127.42
4106.91
4083.17
4056.53
4027.38
3996.1
3963.17
3929.05
3894.21
3859.16
3824.35
3790.78
3758.15
3726.25
3695.45
3666.12
3638.52
3612.8
3589.08
3567.42
3547.83
3530.3
3514.82
3501.31
3489.73
3480.01
3472.06
3465.81
3461.19
3458.14
3456.63
3456.8
3458.41
3461.43
3465.83
3471.56
3478.63
3487
3496.65
3507.61
3519.85
3533.38
3548.19
3564.29
3581.66
3600.25
3620.02
3640.86
3662.65
4059.96
4076.63
4089.49
4098.42
4103.38
4104.14
4100.52
4092.85
4081.21
4065.68
4046.52
4023.99
3998.45
3970.24
3939.79
3907.49
3873.77
3839.11
3803.98
3768.84
3734.19
3700.97
3668.32
3636.4
3605.59
3576.19
3548.38
3522.3
3498.01
3475.54
3454.91
3436.09
3419.05
3403.75
3390.14
3378.16
3367.78
3358.93
3351.59
3345.7
3341.26
3338.3
3336.79
3336.73
3338.13
3341.05
3345.51
3351.55
3359.23
3368.61
3379.74
3392.66
3407.42
3424.07
3442.64
3463.11
3485.46
3509.66
3535.65
3563.3
3592.49
3623.06
3654.81
3687.52
3720.94
3754.77
3788.73
3822.49
3855.7
3888.02
3919.09
3948.57
3976.1
4001.33
4023.96
4043.66
4060.15
4073.18
4082.51
4087.99
4089.44
4086.87
4080.28
4069.68
4055.22
4037.1
4015.55
3990.86
3963.37
3933.45
3901.5
3867.92
3833.14
3797.61
3761.77
3726.05
3690.86
3656.59
3623.56
3592.08
3562.36
3534.56
3508.8
3485.15
3463.59
3444.11
3426.64
3411.1
3397.42
3385.5
3375.26
3366.62
3359.49
3353.84
3349.58
3346.7
3345.22
3345.05
3346.22
3348.75
3352.67
3358
3364.8
3373.12
3383
3394.51
3407.7
3422.61
3439.26
3457.67
3477.86
3499.79
3523.44
3548.75
3575.65
3604.04
3633.81
3664.79
3696.81
3729.63
3762.99
3796.61
3830.13
3863.19
3895.41
3926.37
3955.64
3982.83
4007.53
4029.37
4047.99
4063.11
4074.48
4081.91
4085.26
4084.46
4079.55
4070.62
4057.75
4041.14
4021.05
3997.75
3971.6
3942.95
3912.21
3879.8
3846.14
3811.65
3776.77
3741.89
3707.38
3673.59
3640.82
3609.33
3579.32
3550.99
3524.47
3499.84
3477.2
3456.56
3437.94
3421.32
3406.67
3393.95
3383.11
3374.08
3366.8
3361.19
3357.19
3354.75
3353.82
3354.29
3356.14
3359.33
3363.84
3369.64
3376.73
3385.11
3394.8
3405.83
3418.23
3432.06
3447.36
3464.21
3482.64
3502.74
3524.54
3548.06
3573.31
3600.24
3628.8
3658.85
3690.24
3722.74
3756.05
3789.86
3823.78
3857.42
3890.28
3921.93
3951.87
3979.63
4004.77
4026.88
4045.6
4060.62
4071.7
4078.68
4081.43
4079.94
4074.3
4064.63
4051.09
4033.94
4013.49
3990.09
3964.12
3935.98
3906.1
3874.89
3842.75
3810.08
3777.24
3744.55
3712.32
3680.79
3650.2
3620.71
3592.48
3565.6
3540.17
3516.23
3493.85
3473.03
3453.78
3436.11
3420.03
3405.51
3392.55
3381.15
3371.28
3362.97
3356.2
3350.98
3347.3
3345.2
3344.72
3345.81
3348.51
3352.85
3358.86
3366.57
3375.99
3387.17
3400.11
3414.83
3431.33
3449.61
3469.65
3491.4
3514.78
3539.75
3566.19
3593.98
3622.99
3653.05
3684
3715.66
3747.68
3779.85
3811.88
3843.5
3874.39
3904.25
3932.72
3959.5
3984.26
4006.66
4026.41
4043.21
4056.81
4066.96
4073.47
4076.22
4074.73
4069.27
4059.89
4046.58
4029.57
4009.04
3985.26
3958.59
3929.4
3898.08
3865.11
3830.95
3796.07
3760.98
3726.15
3692.57
3659.93
3628
3597.19
3567.85
3540.24
3514.51
3490.79
3469.13
3449.55
3432.03
3416.55
3403.06
3391.48
3381.76
3373.82
3367.58
3362.97
3359.93
3358.42
3358.58
3360.2
3363.22
3367.63
3373.36
3380.42
3388.79
3398.45
3409.4
3421.64
3435.17
3449.98
3466.08
3483.44
3502.04
3521.8
3542.65
3564.44
3962.23
3978.94
3991.83
4000.78
4005.75
4006.54
4002.9
3995.22
3983.55
3967.99
3948.78
3926.2
3900.61
3872.35
3841.84
3809.48
3775.7
3740.99
3705.8
3670.61
3635.91
3602.73
3570.04
3538.08
3507.25
3477.84
3450.03
3423.95
3399.66
3377.2
3356.57
3337.76
3320.73
3305.44
3291.83
3279.87
3269.49
3260.65
3253.31
3247.43
3243
3240.03
3238.52
3238.45
3239.85
3242.77
3247.22
3253.25
3260.93
3270.3
3281.41
3294.33
3309.09
3325.73
3344.29
3364.76
3387.11
3411.32
3437.31
3464.97
3494.17
3524.76
3556.53
3589.27
3622.72
3656.59
3690.59
3724.38
3757.64
3790
3821.12
3850.64
3878.22
3903.5
3926.17
3945.91
3962.44
3975.5
3984.86
3990.35
3991.83
3989.24
3982.64
3972.02
3957.53
3939.37
3917.77
3893.04
3865.49
3835.52
3803.51
3769.88
3735.05
3699.46
3663.57
3627.81
3592.58
3558.27
3525.21
3493.71
3463.98
3436.17
3410.41
3386.77
3365.22
3345.75
3328.29
3312.77
3299.1
3287.2
3276.97
3268.33
3261.22
3255.57
3251.31
3248.45
3246.96
3246.79
3247.95
3250.49
3254.4
3259.72
3266.52
3274.82
3284.7
3296.21
3309.39
3324.28
3340.93
3359.34
3379.52
3401.46
3425.11
3450.42
3477.33
3505.73
3535.51
3566.51
3598.55
3631.4
3664.79
3698.45
3732.01
3765.13
3797.39
3828.4
3857.73
3884.98
3909.73
3931.62
3950.28
3965.44
3976.84
3984.28
3987.66
3986.84
3981.92
3972.97
3960.07
3943.43
3923.29
3899.94
3873.73
3845.03
3814.24
3781.77
3748.05
3713.52
3678.59
3643.67
3609.12
3575.3
3542.51
3510.99
3480.97
3452.63
3426.1
3401.48
3378.84
3358.2
3339.58
3322.97
3308.33
3295.62
3284.79
3275.77
3268.5
3262.9
3258.9
3256.48
3255.55
3256.03
3257.88
3261.08
3265.58
3271.38
3278.47
3286.85
3296.53
3307.56
3319.95
3333.77
3349.06
3365.9
3384.33
3404.41
3426.2
3449.72
3474.97
3501.91
3530.47
3560.54
3591.95
3624.47
3657.82
3691.67
3725.64
3759.33
3792.26
3823.96
3853.96
3881.79
3906.99
3929.15
3947.91
3962.97
3974.08
3981.07
3983.84
3982.32
3976.67
3966.98
3953.4
3936.2
3915.7
3892.25
3866.22
3838.02
3808.09
3776.83
3744.64
3711.93
3679.05
3646.33
3614.07
3582.52
3551.91
3522.41
3494.17
3467.29
3441.85
3417.91
3395.53
3374.72
3355.47
3337.81
3321.73
3307.21
3294.26
3282.86
3273
3264.68
3257.91
3252.69
3249.01
3246.92
3246.43
3247.52
3250.21
3254.55
3260.56
3268.26
3277.68
3288.85
3301.79
3316.51
3333.01
3351.28
3371.32
3393.07
3416.46
3441.43
3467.88
3495.68
3524.7
3554.79
3585.76
3617.44
3649.49
3681.69
3713.76
3745.41
3776.35
3806.24
3834.77
3861.59
3886.39
3908.84
3928.63
3945.47
3959.1
3969.28
3975.81
3978.58
3977.08
3971.62
3962.23
3948.9
3931.86
3911.29
3887.45
3860.73
3831.48
3800.1
3767.07
3732.85
3697.91
3662.76
3627.88
3594.32
3561.64
3529.68
3498.84
3469.48
3441.86
3416.14
3392.42
3370.76
3351.18
3333.68
3318.21
3304.72
3293.16
3283.45
3275.52
3269.29
3264.68
3261.65
3260.15
3260.31
3261.93
3264.96
3269.37
3275.1
3282.17
3290.54
3300.19
3311.15
3323.38
3336.91
3351.72
3367.81
3385.18
3403.77
3423.53
3444.38
3466.17
3864.63
3881.39
3894.32
3903.3
3908.28
3909.1
3905.45
3897.75
3886.03
3870.43
3851.16
3828.51
3802.85
3774.52
3743.93
3711.49
3677.64
3642.85
3607.59
3572.33
3537.57
3504.43
3471.7
3439.7
3408.84
3379.42
3351.6
3325.51
3301.23
3278.77
3258.15
3239.35
3222.33
3207.05
3193.46
3181.51
3171.14
3162.31
3154.98
3149.11
3144.68
3141.71
3140.18
3140.12
3141.52
3144.42
3148.87
3154.89
3162.56
3171.92
3183.02
3195.93
3210.67
3227.31
3245.86
3266.33
3288.68
3312.89
3338.89
3366.56
3395.78
3426.39
3458.19
3490.97
3524.46
3558.37
3592.42
3626.27
3659.58
3692.01
3723.19
3752.77
3780.42
3805.76
3828.49
3848.29
3864.87
3877.97
3887.36
3892.87
3894.37
3891.77
3885.15
3874.5
3859.98
3841.76
3820.11
3795.31
3767.69
3737.64
3705.56
3671.85
3636.95
3601.3
3565.34
3529.51
3494.23
3459.88
3426.79
3395.26
3365.51
3337.7
3311.94
3288.3
3266.77
3247.31
3229.87
3214.36
3200.71
3188.83
3178.61
3169.99
3162.88
3157.24
3153
3150.14
3148.64
3148.47
3149.64
3152.17
3156.07
3161.39
3168.17
3176.47
3186.34
3197.83
3211
3225.89
3242.53
3260.93
3281.11
3303.05
3326.7
3352.02
3378.93
3407.35
3437.14
3468.16
3500.24
3533.12
3566.56
3600.26
3633.89
3667.07
3699.4
3730.49
3759.89
3787.2
3812.03
3833.98
3852.71
3867.91
3879.35
3886.82
3890.2
3889.39
3884.45
3875.47
3862.54
3845.84
3825.64
3802.23
3775.95
3747.17
3716.3
3683.76
3649.97
3615.37
3580.38
3545.4
3510.81
3476.95
3444.12
3412.58
3382.54
3354.19
3327.65
3303.02
3280.38
3259.75
3241.14
3224.54
3209.91
3197.22
3186.4
3177.39
3170.13
3164.54
3160.56
3158.15
3157.23
3157.71
3159.57
3162.77
3167.27
3173.07
3180.16
3188.53
3198.21
3209.23
3221.61
3235.42
3250.7
3267.52
3285.94
3306.01
3327.79
3351.3
3376.55
3403.49
3432.07
3462.16
3493.59
3526.15
3559.54
3593.45
3627.49
3661.25
3694.25
3726.04
3756.13
3784.03
3809.31
3831.54
3850.36
3865.47
3876.61
3883.62
3886.4
3884.87
3879.2
3869.46
3855.84
3838.58
3818.01
3794.49
3768.39
3740.12
3710.11
3678.78
3646.53
3613.76
3580.83
3548.07
3515.77
3484.19
3453.56
3424.05
3395.79
3368.91
3343.46
3319.53
3297.14
3276.34
3257.09
3239.44
3223.36
3208.85
3195.9
3184.5
3174.65
3166.33
3159.57
3154.35
3150.67
3148.57
3148.08
3149.16
3151.85
3156.19
3162.19
3169.88
3179.29
3190.46
3203.39
3218.11
3234.6
3252.88
3272.92
3294.67
3318.06
3343.04
3369.5
3397.32
3426.36
3456.47
3487.46
3519.19
3551.27
3583.51
3615.63
3647.33
3678.32
3708.27
3736.85
3763.74
3788.6
3811.11
3830.96
3847.85
3861.52
3871.74
3878.3
3881.09
3879.6
3874.13
3864.71
3851.36
3834.27
3813.64
3789.74
3762.95
3733.62
3702.17
3669.05
3634.74
3599.73
3564.5
3529.57
3496.01
3463.29
3431.29
3400.41
3371.03
3343.39
3317.66
3293.95
3272.3
3252.73
3235.23
3219.78
3206.31
3194.76
3185.06
3177.15
3170.93
3166.34
3163.32
3161.82
3161.99
3163.62
3166.65
3171.06
3176.8
3183.86
3192.23
3201.89
3212.83
3225.07
3238.59
3253.4
3269.49
3286.85
3305.44
3325.21
3346.06
3367.85
3767.15
3783.97
3796.96
3805.98
3810.98
3811.81
3808.17
3800.43
3788.67
3773
3753.66
3730.93
3705.18
3676.75
3646.07
3613.53
3579.58
3544.71
3509.36
3474.01
3439.17
3406.1
3373.3
3341.25
3310.36
3280.91
3253.08
3226.99
3202.71
3180.26
3159.65
3140.86
3123.86
3108.6
3095.02
3083.08
3072.73
3063.91
3056.58
3050.72
3046.3
3043.33
3041.79
3041.73
3043.12
3046.02
3050.45
3056.47
3064.12
3073.46
3084.55
3097.45
3112.18
3128.8
3147.35
3167.81
3190.16
3214.38
3240.39
3268.07
3297.32
3327.96
3359.8
3392.61
3426.16
3460.13
3494.24
3528.16
3561.54
3594.05
3625.3
3654.97
3682.69
3708.11
3730.91
3750.78
3767.43
3780.58
3790.01
3795.55
3797.06
3794.47
3787.82
3777.14
3762.56
3744.28
3722.55
3697.67
3669.97
3639.83
3607.65
3573.85
3538.85
3503.12
3467.07
3431.17
3395.82
3361.41
3328.27
3296.71
3266.94
3239.12
3213.36
3189.73
3168.22
3148.78
3131.36
3115.88
3102.25
3090.38
3080.19
3071.58
3064.49
3058.86
3054.63
3051.77
3050.28
3050.11
3051.27
3053.79
3057.69
3063
3069.77
3078.05
3087.9
3099.38
3112.54
3127.42
3144.05
3162.45
3182.62
3204.56
3228.21
3253.54
3280.46
3308.89
3338.71
3369.76
3401.87
3434.8
3468.3
3502.06
3535.76
3569.02
3601.44
3632.61
3662.11
3689.51
3714.43
3736.46
3755.26
3770.53
3782.01
3789.51
3792.91
3792.1
3787.15
3778.13
3765.14
3748.38
3728.11
3704.61
3678.25
3649.38
3618.41
3585.78
3551.9
3517.21
3482.14
3447.09
3412.44
3378.53
3345.66
3314.08
3284.02
3255.65
3229.11
3204.48
3181.84
3161.22
3142.62
3126.03
3111.42
3098.74
3087.93
3078.94
3071.69
3066.12
3062.16
3059.76
3058.84
3059.34
3061.21
3064.41
3068.91
3074.71
3081.8
3090.17
3099.84
3110.84
3123.22
3137.01
3152.27
3169.08
3187.47
3207.54
3229.3
3252.81
3278.05
3305
3333.59
3363.7
3395.17
3427.77
3461.22
3495.2
3529.32
3563.17
3596.27
3628.16
3658.35
3686.36
3711.73
3734.06
3752.95
3768.12
3779.31
3786.34
3789.12
3787.6
3781.89
3772.1
3758.41
3741.08
3720.43
3696.82
3670.62
3642.26
3612.16
3580.74
3548.42
3515.57
3482.58
3449.76
3417.42
3385.81
3355.15
3325.61
3297.34
3270.45
3245
3221.06
3198.69
3177.88
3158.65
3140.99
3124.93
3110.42
3097.48
3086.09
3076.23
3067.92
3061.16
3055.94
3052.26
3050.17
3049.66
3050.74
3053.43
3057.75
3063.75
3071.44
3080.84
3092
3104.92
3119.63
3136.12
3154.39
3174.43
3196.19
3219.59
3244.58
3271.05
3298.89
3327.95
3358.09
3389.12
3420.89
3453.02
3485.31
3517.49
3549.25
3580.31
3610.33
3638.99
3665.95
3690.89
3713.47
3733.39
3750.35
3764.07
3774.34
3780.94
3783.73
3782.27
3776.8
3767.35
3753.96
3736.81
3716.11
3692.13
3665.24
3635.82
3604.27
3571.05
3536.64
3501.53
3466.2
3431.19
3397.65
3364.89
3332.82
3301.89
3272.49
3244.84
3219.1
3195.38
3173.74
3154.18
3136.7
3121.27
3107.81
3096.28
3086.61
3078.71
3072.51
3067.93
3064.93
3063.43
3063.61
3065.25
3068.29
3072.7
3078.44
3085.51
3093.87
3103.52
3114.47
3126.7
3140.22
3155.03
3171.11
3188.47
3207.06
3226.83
3247.68
3269.48
3669.79
3686.7
3699.74
3708.81
3713.83
3714.68
3711.05
3703.27
3691.44
3675.71
3656.28
3633.45
3607.59
3579.05
3548.26
3515.6
3481.54
3446.56
3411.1
3375.64
3340.71
3307.71
3274.84
3242.72
3211.79
3182.32
3154.47
3128.38
3104.11
3081.67
3061.07
3042.3
3025.32
3010.07
2996.52
2984.59
2974.25
2965.45
2958.13
2952.28
2947.86
2944.89
2943.35
2943.28
2944.66
2947.55
2951.98
2957.97
2965.61
2974.94
2986.01
2998.89
3013.61
3030.22
3048.76
3069.22
3091.56
3115.79
3141.8
3169.51
3198.79
3229.46
3261.34
3294.21
3327.81
3361.85
3396.04
3430.04
3463.51
3496.11
3527.46
3557.22
3585.03
3610.55
3633.44
3653.4
3670.12
3683.34
3692.82
3698.39
3699.91
3697.32
3690.65
3679.92
3665.28
3646.93
3625.11
3600.12
3572.32
3542.07
3509.77
3475.86
3440.76
3404.91
3368.77
3332.78
3297.35
3262.87
3229.68
3198.08
3168.29
3140.45
3114.7
3091.08
3069.58
3050.16
3032.77
3017.32
3003.72
2991.88
2981.7
2973.12
2966.04
2960.42
2956.2
2953.36
2951.86
2951.69
2952.85
2955.36
2959.25
2964.54
2971.3
2979.57
2989.4
3000.87
3014.01
3028.87
3045.49
3063.89
3084.06
3105.99
3129.65
3154.98
3181.92
3210.37
3240.21
3271.3
3303.45
3336.43
3370
3403.84
3437.62
3470.98
3503.5
3534.78
3564.39
3591.91
3616.92
3639.06
3657.95
3673.29
3684.82
3692.37
3695.78
3694.97
3690
3680.93
3667.88
3651.05
3630.69
3607.1
3580.62
3551.64
3520.56
3487.82
3453.83
3419.04
3383.88
3348.74
3314.01
3280.04
3247.12
3215.51
3185.42
3157.03
3130.47
3105.84
3083.21
3062.6
3044.01
3027.44
3012.84
3000.18
2989.39
2980.42
2973.19
2967.64
2963.7
2961.31
2960.4
2960.91
2962.79
2965.99
2970.5
2976.3
2983.38
2991.74
3001.41
3012.4
3024.76
3038.53
3053.78
3070.56
3088.94
3108.98
3130.74
3154.23
3179.47
3206.43
3235.03
3265.17
3296.68
3329.34
3362.86
3396.92
3431.14
3465.09
3498.31
3530.33
3560.64
3588.77
3614.27
3636.69
3655.68
3670.93
3682.16
3689.23
3692.02
3690.48
3684.74
3674.89
3661.12
3643.71
3622.95
3599.23
3572.92
3544.45
3514.24
3482.72
3450.3
3417.37
3384.3
3351.42
3319.02
3287.36
3256.67
3227.11
3198.83
3171.92
3146.47
3122.53
3100.16
3079.36
3060.13
3042.48
3026.42
3011.93
2998.99
2987.61
2977.76
2969.45
2962.69
2957.46
2953.79
2951.69
2951.18
2952.25
2954.94
2959.26
2965.24
2972.92
2982.31
2993.46
3006.38
3021.08
3037.56
3055.83
3075.87
3097.63
3121.05
3146.05
3172.54
3200.39
3229.48
3259.65
3290.73
3322.56
3354.74
3387.09
3419.34
3451.18
3482.32
3512.43
3541.17
3568.22
3593.25
3615.92
3635.93
3652.96
3666.76
3677.08
3683.72
3686.53
3685.1
3679.61
3670.13
3656.69
3639.48
3618.7
3594.62
3567.62
3538.08
3506.41
3473.07
3438.54
3403.3
3367.86
3332.74
3299.25
3266.41
3234.27
3203.3
3173.85
3146.18
3120.44
3096.72
3075.09
3055.55
3038.09
3022.67
3009.24
2997.73
2988.08
2980.2
2974.02
2969.47
2966.48
2964.99
2965.18
2966.83
2969.87
2974.29
2980.03
2987.1
2995.46
3005.11
3016.06
3028.29
3041.79
3056.6
3072.68
3090.03
3108.62
3128.39
3149.25
3171.05
3572.56
3589.56
3602.67
3611.8
3616.85
3617.72
3614.08
3606.26
3594.37
3578.55
3559.02
3536.08
3510.1
3481.42
3450.49
3417.7
3383.51
3348.4
3312.81
3277.23
3242.18
3209.28
3176.32
3144.13
3113.14
3083.64
3055.78
3029.69
3005.42
2982.99
2962.41
2943.66
2926.7
2911.48
2897.94
2886.04
2875.72
2866.92
2859.62
2853.78
2849.37
2846.4
2844.85
2844.77
2846.15
2849.03
2853.44
2859.42
2867.04
2876.35
2887.4
2900.26
2914.96
2931.55
2950.08
2970.53
2992.88
3017.11
3043.14
3070.87
3100.18
3130.89
3162.82
3195.75
3229.43
3263.55
3297.82
3331.92
3365.49
3398.19
3429.65
3459.52
3487.45
3513.08
3536.08
3556.13
3572.94
3586.23
3595.77
3601.38
3602.93
3600.33
3593.63
3582.85
3568.14
3549.69
3527.77
3502.67
3474.74
3444.36
3411.94
3377.89
3342.66
3306.7
3270.44
3234.34
3198.81
3164.25
3131
3099.35
3069.53
3041.69
3015.93
2992.33
2970.85
2951.46
2934.1
2918.68
2905.11
2893.3
2883.15
2874.59
2867.54
2861.93
2857.72
2854.89
2853.39
2853.22
2854.37
2856.88
2860.75
2866.03
2872.77
2881.02
2890.84
2902.28
2915.4
2930.25
2946.86
2965.25
2985.41
3007.34
3031.01
3056.35
3083.3
3111.77
3141.65
3172.77
3204.97
3238.02
3271.66
3305.6
3339.48
3372.95
3405.59
3437
3466.74
3494.38
3519.52
3541.77
3560.77
3576.19
3587.8
3595.38
3598.81
3598.01
3593.01
3583.89
3570.77
3553.85
3533.38
3509.67
3483.07
3453.96
3422.76
3389.88
3355.77
3320.86
3285.58
3250.35
3215.53
3181.49
3148.51
3116.85
3086.73
3058.33
3031.75
3007.12
2984.49
2963.89
2945.31
2928.76
2914.18
2901.54
2890.78
2881.83
2874.62
2869.1
2865.17
2862.8
2861.91
2862.43
2864.32
2867.53
2872.04
2877.84
2884.91
2893.27
2902.92
2913.9
2926.24
2940
2955.22
2971.98
2990.33
3010.36
3032.09
3055.57
3080.81
3107.77
3136.39
3166.57
3198.12
3230.85
3264.45
3298.61
3332.94
3367.02
3400.38
3432.54
3463
3491.27
3516.9
3539.45
3558.55
3573.88
3585.18
3592.28
3595.08
3593.53
3587.74
3577.83
3563.97
3546.45
3525.58
3501.73
3475.29
3446.69
3416.35
3384.71
3352.18
3319.15
3285.99
3253.03
3220.57
3188.86
3158.13
3128.54
3100.24
3073.32
3047.87
3023.93
3001.55
2980.76
2961.54
2943.91
2927.86
2913.37
2900.44
2889.06
2879.22
2870.92
2864.15
2858.93
2855.26
2853.16
2852.64
2853.71
2856.38
2860.69
2866.67
2874.34
2883.72
2894.85
2907.76
2922.45
2938.92
2957.19
2977.23
2999
3022.42
3047.44
3073.95
3101.83
3130.95
3161.16
3192.29
3224.18
3256.43
3288.85
3321.18
3353.11
3384.34
3414.55
3443.4
3470.56
3495.69
3518.47
3538.57
3555.7
3569.58
3579.97
3586.65
3589.49
3588.08
3582.58
3573.07
3559.57
3542.29
3521.4
3497.2
3470.08
3440.4
3408.59
3375.11
3340.44
3305.06
3269.47
3234.23
3200.82
3167.88
3135.65
3104.61
3075.13
3047.44
3021.69
2997.97
2976.35
2956.83
2939.39
2923.99
2910.59
2899.11
2889.48
2881.63
2875.47
2870.94
2867.97
2866.49
2866.69
2868.35
2871.4
2875.83
2881.57
2888.64
2897
2906.65
2917.59
2929.81
2943.31
2958.11
2974.19
2991.54
3010.13
3029.89
3050.75
3072.57
3475.45
3492.55
3505.76
3514.94
3520.04
3520.92
3517.28
3509.41
3497.44
3481.53
3461.89
3438.81
3412.68
3383.86
3352.77
3319.83
3285.48
3250.22
3214.5
3178.77
3143.59
3110.79
3077.73
3045.45
3014.41
2984.88
2957.01
2930.91
2906.65
2884.23
2863.68
2844.95
2828.01
2812.81
2799.3
2787.42
2777.12
2768.34
2761.05
2755.22
2750.82
2747.85
2746.29
2746.21
2747.58
2750.44
2754.84
2760.79
2768.39
2777.68
2788.71
2801.55
2816.23
2832.81
2851.32
2871.77
2894.11
2918.35
2944.4
2972.15
3001.5
3032.26
3064.25
3097.25
3131
3165.22
3199.59
3233.79
3267.48
3300.3
3331.89
3361.89
3389.94
3415.7
3438.82
3458.98
3475.89
3489.27
3498.88
3504.53
3506.1
3503.5
3496.77
3485.93
3471.14
3452.59
3430.55
3405.31
3377.24
3346.71
3314.14
3279.94
3244.57
3208.46
3172.07
3135.84
3100.21
3065.56
3032.24
3000.54
2970.69
2942.83
2917.07
2893.49
2872.04
2852.67
2835.35
2819.97
2806.44
2794.66
2784.54
2776
2768.97
2763.38
2759.19
2756.36
2754.87
2754.7
2755.85
2758.34
2762.2
2767.46
2774.18
2782.41
2792.21
2803.63
2816.73
2831.56
2848.15
2866.53
2886.69
2908.62
2932.29
2957.64
2984.61
3013.11
3043.01
3074.18
3106.44
3139.57
3173.29
3207.33
3241.33
3274.92
3307.71
3339.26
3369.15
3396.94
3422.22
3444.6
3463.72
3479.24
3490.92
3498.56
3502.01
3501.21
3496.18
3487
3473.8
3456.78
3436.19
3412.35
3385.61
3356.35
3324.99
3291.96
3257.7
3222.66
3187.26
3151.91
3117
3082.87
3049.83
3018.12
2987.96
2959.53
2932.95
2908.31
2885.68
2865.09
2846.53
2830
2815.45
2802.83
2792.1
2783.17
2775.99
2770.49
2766.59
2764.23
2763.36
2763.9
2765.79
2769.01
2773.53
2779.32
2786.39
2794.74
2804.38
2815.34
2827.67
2841.4
2856.59
2873.32
2891.65
2911.65
2933.37
2956.83
2982.07
3009.04
3037.68
3067.89
3099.5
3132.3
3165.99
3200.26
3234.72
3268.95
3302.46
3334.79
3365.42
3393.85
3419.64
3442.34
3461.56
3476.99
3488.36
3495.5
3498.31
3496.75
3490.91
3480.91
3466.96
3449.31
3428.31
3404.32
3377.73
3348.97
3318.49
3286.71
3254.05
3220.91
3187.65
3154.6
3122.06
3090.3
3059.52
3029.91
3001.58
2974.65
2949.19
2925.25
2902.88
2882.1
2862.88
2845.26
2829.22
2814.75
2801.83
2790.45
2780.62
2772.32
2765.56
2760.34
2756.67
2754.56
2754.04
2755.1
2757.76
2762.06
2768.03
2775.68
2785.05
2796.17
2809.06
2823.74
2840.21
2858.48
2878.52
2900.29
2923.73
2948.76
2975.29
3003.2
3032.36
3062.62
3093.8
3125.76
3158.09
3190.6
3223.01
3255.04
3286.38
3316.71
3345.67
3372.95
3398.21
3421.11
3441.32
3458.55
3472.52
3482.99
3489.74
3492.61
3491.21
3485.71
3476.15
3462.6
3445.22
3424.22
3399.89
3372.61
3342.78
3310.8
3277.16
3242.33
3206.79
3171.04
3135.65
3102.34
3069.28
3036.95
3005.84
2976.32
2948.6
2922.84
2899.13
2877.52
2858.01
2840.6
2825.23
2811.86
2800.41
2790.81
2782.98
2776.85
2772.35
2769.4
2767.94
2768.15
2769.82
2772.88
2777.31
2783.06
2790.12
2798.49
2808.13
2819.07
2831.29
2844.78
2859.57
2875.65
2892.99
2911.57
2931.34
2952.2
2974.03
3378.47
3395.69
3408.99
3418.24
3423.38
3424.29
3420.64
3412.71
3400.66
3384.65
3364.87
3341.65
3315.36
3286.36
3255.1
3221.98
3187.46
3152.04
3116.15
3080.27
3044.93
3012.26
2979.08
2946.7
2915.6
2886.04
2858.15
2832.05
2807.79
2785.39
2764.86
2746.15
2729.24
2714.08
2700.59
2688.74
2678.46
2669.7
2662.43
2656.6
2652.21
2649.24
2647.68
2647.59
2648.95
2651.8
2656.17
2662.11
2669.68
2678.95
2689.95
2702.76
2717.42
2733.98
2752.48
2772.92
2795.26
2819.51
2845.57
2873.36
2902.74
2933.55
2965.61
2998.69
3032.54
3066.85
3101.34
3135.66
3169.48
3202.44
3234.17
3264.31
3292.51
3318.4
3341.66
3361.95
3378.98
3392.46
3402.14
3407.85
3409.44
3406.84
3400.06
3389.16
3374.28
3355.61
3333.43
3308.05
3279.81
3249.12
3216.38
3182.01
3146.47
3110.2
3073.66
3037.3
3001.55
2966.79
2933.38
2901.63
2871.74
2843.87
2818.12
2794.55
2773.13
2753.8
2736.52
2721.18
2707.69
2695.95
2685.86
2677.36
2670.35
2664.78
2660.6
2657.78
2656.3
2656.12
2657.27
2659.75
2663.59
2668.84
2675.53
2683.74
2693.51
2704.9
2717.98
2732.79
2749.37
2767.73
2787.89
2809.82
2833.49
2858.85
2885.84
2914.37
2944.31
2975.53
3007.86
3041.06
3074.89
3109.04
3143.17
3176.91
3209.85
3241.57
3271.62
3299.58
3325.02
3347.55
3366.8
3382.43
3394.2
3401.9
3405.38
3404.57
3399.51
3390.27
3376.97
3359.83
3339.11
3315.12
3288.22
3258.79
3227.26
3194.07
3159.65
3124.45
3088.9
3053.43
3018.41
2984.19
2951.07
2919.3
2889.1
2860.64
2834.05
2809.4
2786.79
2766.2
2747.67
2731.16
2716.63
2704.05
2693.34
2684.44
2677.29
2671.81
2667.94
2665.6
2664.76
2665.31
2667.22
2670.44
2674.96
2680.76
2687.82
2696.16
2705.79
2716.73
2729.03
2742.74
2757.9
2774.6
2792.9
2812.87
2834.56
2858.02
2883.24
2910.22
2938.89
2969.14
3000.81
3033.69
3067.49
3101.88
3136.49
3170.88
3204.57
3237.08
3267.9
3296.53
3322.49
3345.35
3364.71
3380.25
3391.71
3398.89
3401.71
3400.13
3394.23
3384.15
3370.08
3352.3
3331.14
3306.99
3280.23
3251.31
3220.66
3188.73
3155.92
3122.64
3089.27
3056.12
3023.51
2991.68
2960.85
2931.2
2902.85
2875.91
2850.44
2826.5
2804.13
2783.36
2764.16
2746.54
2730.52
2716.06
2703.15
2691.78
2681.95
2673.66
2666.9
2661.68
2658.01
2655.9
2655.37
2656.42
2659.08
2663.37
2669.32
2676.96
2686.31
2697.41
2710.29
2724.96
2741.42
2759.68
2779.72
2801.5
2824.95
2850.01
2876.56
2904.51
2933.71
2964.01
2995.25
3027.31
3059.71
3092.31
3124.84
3156.98
3188.44
3218.89
3248
3275.41
3300.81
3323.83
3344.18
3361.53
3375.61
3386.16
3392.97
3395.88
3394.51
3388.99
3379.39
3365.76
3348.28
3327.15
3302.67
3275.23
3245.22
3213.06
3179.24
3144.22
3108.5
3072.56
3036.99
3003.82
2970.62
2938.17
2906.98
2877.41
2849.67
2823.89
2800.19
2778.59
2759.11
2741.72
2726.39
2713.05
2701.63
2692.07
2684.27
2678.17
2673.7
2670.77
2669.34
2669.56
2671.24
2674.31
2678.74
2684.49
2691.56
2699.92
2709.56
2720.49
2732.71
2746.19
2760.98
2777.04
2794.38
2812.96
2832.73
2853.6
2875.44
3281.62
3298.97
3312.38
3321.71
3326.89
3327.82
3324.15
3316.18
3304.03
3287.9
3267.98
3244.59
3218.12
3188.93
3157.47
3124.16
3089.45
3053.85
3017.79
2981.72
2946.21
2913.69
2880.35
2847.88
2816.71
2787.11
2759.2
2733.1
2708.85
2686.47
2665.96
2647.28
2630.4
2615.27
2601.82
2589.99
2579.73
2571
2563.74
2557.93
2553.55
2550.58
2549.02
2548.92
2550.26
2553.09
2557.45
2563.36
2570.9
2580.14
2591.11
2603.89
2618.53
2635.07
2653.55
2673.98
2696.32
2720.58
2746.66
2774.48
2803.91
2834.78
2866.91
2900.07
2934.03
2968.45
3003.07
3037.53
3071.49
3104.6
3136.49
3166.79
3195.15
3221.2
3244.61
3265.04
3282.2
3295.78
3305.55
3311.32
3312.94
3310.33
3303.51
3292.54
3277.55
3258.75
3236.42
3210.87
3182.46
3151.58
3118.65
3084.1
3048.37
3011.93
2975.22
2938.7
2902.81
2867.94
2834.45
2802.63
2772.7
2744.81
2719.07
2695.52
2674.13
2654.84
2637.6
2622.31
2608.86
2597.17
2587.12
2578.65
2571.67
2566.12
2561.96
2559.15
2557.67
2557.49
2558.63
2561.1
2564.93
2570.15
2576.82
2585