/*--------------------------------*- C++ -*----------------------------------*\
| =========                 |                                                 |
| \\      /  F ield         | OpenFOAM: The Open Source CFD Toolbox           |
|  \\    /   O peration     | Version:  3.0.1                                 |
|   \\  /    A nd           | Web:      www.OpenFOAM.org                      |
|    \\/     M anipulation  |                                                 |
\*---------------------------------------------------------------------------*/
FoamFile
{
    version     2.0;
    format      ascii;
    class       volVectorField;
    location    "58.8";
    object      U;
}
// * * * * * * * * * * * * * * * * * * * * * * * * * * * * * * * * * * * * * //

dimensions      [0 1 -1 0 0 0 0];

internalField   nonuniform List<vector> 
21420
(
(0.200253 -0.00116718 0)
(0.209596 -0.000978462 0)
(0.218355 -0.000758594 0)
(0.224871 -0.000527341 0)
(0.229019 -0.000287451 0)
(0.230714 -4.23343e-05 0)
(0.22996 0.000199708 0)
(0.226686 0.000444188 0)
(0.220985 0.000682857 0)
(0.213013 0.000896728 0)
(0.202898 0.00110456 0)
(0.190828 0.00129735 0)
(0.177028 0.00144048 0)
(0.161746 0.0015861 0)
(0.14524 0.00167299 0)
(0.127783 0.00176682 0)
(0.109625 0.00183644 0)
(0.0910249 0.001845 0)
(0.0722236 0.00186535 0)
(0.0534149 0.00186391 0)
(0.0347224 0.00181293 0)
(0.0162348 0.00177994 0)
(-0.00122737 0.00170983 0)
(-0.0177094 0.00162704 0)
(-0.033697 0.00155315 0)
(-0.0488505 0.00145385 0)
(-0.0630903 0.00136609 0)
(-0.0763743 0.00127333 0)
(-0.088681 0.00116985 0)
(-0.100011 0.00107625 0)
(-0.110371 0.00098238 0)
(-0.11978 0.000885875 0)
(-0.128262 0.000796685 0)
(-0.135846 0.000707076 0)
(-0.142563 0.000623431 0)
(-0.148442 0.000541897 0)
(-0.153513 0.000461947 0)
(-0.157801 0.000385332 0)
(-0.161332 0.000310315 0)
(-0.164131 0.000236789 0)
(-0.166216 0.000164909 0)
(-0.167583 9.70358e-05 0)
(-0.168271 3.11518e-05 0)
(-0.168246 -4.23948e-05 0)
(-0.16749 -0.000114405 0)
(-0.166027 -0.000186036 0)
(-0.163822 -0.000258897 0)
(-0.160868 -0.000336596 0)
(-0.157152 -0.000409535 0)
(-0.152638 -0.000488655 0)
(-0.14728 -0.000577579 0)
(-0.141051 -0.000656699 0)
(-0.133939 -0.000758692 0)
(-0.12585 -0.000840767 0)
(-0.116878 -0.000930785 0)
(-0.106939 -0.00104027 0)
(-0.0958714 -0.00112762 0)
(-0.0839845 -0.00122032 0)
(-0.0710775 -0.00133095 0)
(-0.0572057 -0.00140907 0)
(-0.0425306 -0.00151448 0)
(-0.0267377 -0.00158971 0)
(-0.0103297 -0.00165804 0)
(0.00663921 -0.00172698 0)
(0.0243549 -0.0017761 0)
(0.042498 -0.00179773 0)
(0.0608662 -0.00182551 0)
(0.0793274 -0.0018182 0)
(0.0976542 -0.00180479 0)
(0.115716 -0.00176889 0)
(0.133233 -0.00170311 0)
(0.149991 -0.00162443 0)
(0.165856 -0.00151879 0)
(0.180476 -0.00138866 0)
(0.19376 -0.00124581 0)
(0.205397 -0.001073 0)
(0.215233 -0.000897859 0)
(0.223188 -0.000691433 0)
(0.228977 -0.000478449 0)
(0.232531 -0.000254892 0)
(0.233842 -1.87835e-05 0)
(0.232873 0.000211058 0)
(0.229424 0.000449775 0)
(0.223753 0.000664312 0)
(0.215952 0.00087301 0)
(0.206122 0.00106105 0)
(0.194461 0.00123896 0)
(0.181158 0.00139713 0)
(0.166373 0.00153961 0)
(0.150263 0.00165736 0)
(0.133047 0.00175507 0)
(0.114972 0.00182391 0)
(0.0962667 0.00188139 0)
(0.0771898 0.00190425 0)
(0.0579707 0.00190934 0)
(0.0388409 0.00188829 0)
(0.0200178 0.00184784 0)
(0.00170707 0.00178368 0)
(-0.0158756 0.00170042 0)
(-0.0325551 0.00161159 0)
(-0.0482534 0.00150794 0)
(-0.0628945 0.00140046 0)
(-0.0764124 0.00128474 0)
(-0.0887776 0.00116694 0)
(-0.0999667 0.00105591 0)
(-0.110035 0.00094478 0)
(-0.118984 0.000836111 0)
(-0.126886 0.000730717 0)
(-0.133794 0.000632624 0)
(-0.139748 0.000540434 0)
(-0.144772 0.000463469 0)
(-0.148964 0.000378714 0)
(-0.15239 0.000302427 0)
(-0.155065 0.000230381 0)
(-0.157026 0.000158945 0)
(-0.158278 9.45681e-05 0)
(-0.15891 3.2689e-05 0)
(-0.158879 -3.72902e-05 0)
(-0.158197 -9.84228e-05 0)
(-0.156916 -0.000157435 0)
(-0.154986 -0.000220827 0)
(-0.152431 -0.000283772 0)
(-0.149237 -0.000350548 0)
(-0.145369 -0.000412392 0)
(-0.140916 -0.000479735 0)
(-0.135786 -0.000535744 0)
(-0.129975 -0.000610412 0)
(-0.123537 -0.000675079 0)
(-0.11635 -0.000742252 0)
(-0.108475 -0.00081706 0)
(-0.0998237 -0.000895993 0)
(-0.0904203 -0.000979311 0)
(-0.0802026 -0.00104444 0)
(-0.0691466 -0.00113833 0)
(-0.0572951 -0.00121074 0)
(-0.0446137 -0.00129996 0)
(-0.0311341 -0.00137138 0)
(-0.0168817 -0.00145485 0)
(-0.00184338 -0.00151909 0)
(0.0138684 -0.00158673 0)
(0.0301591 -0.00164338 0)
(0.0469269 -0.00168388 0)
(0.064057 -0.00170907 0)
(0.0813179 -0.00171934 0)
(0.0985758 -0.00170279 0)
(0.115592 -0.00166715 0)
(0.132124 -0.00160542 0)
(0.147904 -0.00152465 0)
(0.162721 -0.00141009 0)
(0.176294 -0.00127327 0)
(0.188331 -0.00111414 0)
(0.198655 -0.000931014 0)
(0.20701 -0.000721055 0)
(0.213205 -0.000499795 0)
(0.217045 -0.000264791 0)
(0.21846 -1.99733e-05 0)
(0.217462 0.000221502 0)
(0.213842 0.000476801 0)
(0.207844 0.000714666 0)
(0.199491 0.000939325 0)
(0.188959 0.00114675 0)
(0.176432 0.00133783 0)
(0.162102 0.00150322 0)
(0.146289 0.00163101 0)
(0.129317 0.00173176 0)
(0.111442 0.0018123 0)
(0.09292 0.00186221 0)
(0.0740863 0.00187539 0)
(0.0551665 0.00187955 0)
(0.0363685 0.00185584 0)
(0.017919 0.0018033 0)
(4.2719e-05 0.00173492 0)
(-0.0171129 0.00167167 0)
(-0.0334662 0.00157845 0)
(-0.0488802 0.00147865 0)
(-0.0632807 0.0013799 0)
(-0.0766743 0.00128749 0)
(-0.0890724 0.00117839 0)
(-0.10047 0.00107457 0)
(-0.110869 0.000979846 0)
(-0.120317 0.000892563 0)
(-0.128867 0.000802589 0)
(-0.136535 0.00071555 0)
(-0.143316 0.0006329 0)
(-0.149262 0.000553314 0)
(-0.154372 0.000470975 0)
(-0.158701 0.000395588 0)
(-0.162278 0.000315662 0)
(-0.165146 0.000249528 0)
(-0.167384 0.000191667 0)
(-0.16902 0.000136967 0)
(-0.170112 8.5354e-05 0)
(-0.170696 3.88623e-05 0)
(-0.170788 -1.90423e-05 0)
(-0.170377 -7.05451e-05 0)
(-0.16946 -0.00011688 0)
(-0.167975 -0.00017391 0)
(-0.165929 -0.000238026 0)
(-0.163258 -0.000287809 0)
(-0.159953 -0.000355131 0)
(-0.15606 -0.000415312 0)
(-0.151484 -0.000483821 0)
(-0.146274 -0.000556263 0)
(-0.140315 -0.000624946 0)
(-0.133577 -0.000706005 0)
(-0.126097 -0.000777721 0)
(-0.117761 -0.000869655 0)
(-0.108587 -0.00096433 0)
(-0.0984975 -0.00103189 0)
(-0.0874988 -0.0011358 0)
(-0.0756426 -0.00121529 0)
(-0.062909 -0.00130976 0)
(-0.0493189 -0.00138674 0)
(-0.0349102 -0.00147152 0)
(-0.0197341 -0.00153483 0)
(-0.00390995 -0.00159856 0)
(0.0124582 -0.00164052 0)
(0.0291959 -0.00167922 0)
(0.0461886 -0.00168934 0)
(0.0632353 -0.00169104 0)
(0.0801692 -0.00166704 0)
(0.0967788 -0.00162452 0)
(0.112833 -0.00156094 0)
(0.128113 -0.0014628 0)
(0.14233 -0.00135249 0)
(0.155245 -0.00120731 0)
(0.166587 -0.0010375 0)
(0.176118 -0.0008481 0)
(0.183629 -0.00063247 0)
(0.188909 -0.000411813 0)
(0.19185 -0.000170335 0)
(0.192365 6.35071e-05 0)
(0.190479 0.00031041 0)
(0.186065 0.000548588 0)
(0.179373 0.000773547 0)
(0.170499 0.000986248 0)
(0.159597 0.00117869 0)
(0.146908 0.00133885 0)
(0.132678 0.00147847 0)
(0.117162 0.00159436 0)
(0.100629 0.00168621 0)
(0.0833626 0.00173861 0)
(0.0656677 0.00177081 0)
(0.0477742 0.00177916 0)
(0.0298778 0.00177013 0)
(0.0122472 0.00172821 0)
(-0.00494503 0.00168584 0)
(-0.0216118 0.00162599 0)
(-0.0376061 0.0015465 0)
(-0.0528008 0.00146594 0)
(-0.067163 0.00138764 0)
(-0.0806449 0.00129178 0)
(-0.0932299 0.0012046 0)
(-0.10491 0.00111165 0)
(-0.11564 0.0010225 0)
(-0.125462 0.000927157 0)
(-0.134432 0.000849673 0)
(-0.142538 0.000762533 0)
(-0.149829 0.000684055 0)
(-0.156332 0.000608543 0)
(-0.162075 0.000536458 0)
(-0.167126 0.000467483 0)
(-0.171471 0.000396574 0)
(-0.17514 0.000336102 0)
(-0.178193 0.000269929 0)
(-0.180622 0.000211631 0)
(-0.1824 0.000157454 0)
(-0.183593 9.14865e-05 0)
(-0.184256 4.57792e-05 0)
(-0.184284 -1.7587e-05 0)
(-0.183712 -8.23654e-05 0)
(-0.182589 -0.000136254 0)
(-0.180847 -0.000198634 0)
(-0.178488 -0.000269071 0)
(-0.175437 -0.000319225 0)
(-0.17171 -0.000400744 0)
(-0.167225 -0.000475084 0)
(-0.162039 -0.000554573 0)
(-0.155917 -0.00064607 0)
(-0.148807 -0.000734585 0)
(-0.140885 -0.000833076 0)
(-0.131903 -0.000941394 0)
(-0.121815 -0.00103594 0)
(-0.110769 -0.00112699 0)
(-0.098739 -0.00123012 0)
(-0.0857377 -0.00131565 0)
(-0.0719792 -0.00138852 0)
(-0.0574519 -0.0014789 0)
(-0.0420725 -0.00155068 0)
(-0.0259175 -0.00163044 0)
(-0.00925397 -0.00169502 0)
(0.0078523 -0.00173632 0)
(0.0255327 -0.00178693 0)
(0.043647 -0.00182105 0)
(0.062005 -0.00182339 0)
(0.0803844 -0.00182401 0)
(0.098606 -0.0017915 0)
(0.116368 -0.00172422 0)
(0.133388 -0.00164191 0)
(0.149374 -0.00151926 0)
(0.164044 -0.00138227 0)
(0.17713 -0.00120716 0)
(0.188345 -0.00100252 0)
(0.197452 -0.000788162 0)
(0.204312 -0.000553608 0)
(0.208767 -0.000298244 0)
(0.2107 -5.71513e-05 0)
(0.210141 0.000196651 0)
(0.206895 0.000435068 0)
(0.20126 0.000667757 0)
(0.193388 0.000890531 0)
(0.18346 0.00106827 0)
(0.171748 0.00123963 0)
(0.158505 0.00139018 0)
(0.143993 0.00148334 0)
(0.128531 0.00157434 0)
(0.112378 0.00161145 0)
(0.0958217 0.00164911 0)
(0.0790752 0.00166427 0)
(0.0623373 0.00163645 0)
(0.0458102 0.00161644 0)
(0.0295224 0.00157705 0)
(0.0137059 0.00152263 0)
(-0.00102972 0.00145416 0)
(-0.0149896 0.00138738 0)
(-0.0286182 0.00132754 0)
(-0.0416252 0.00126385 0)
(-0.0539679 0.00119044 0)
(-0.0656452 0.0011274 0)
(-0.0766669 0.00106472 0)
(-0.0870435 0.000997038 0)
(-0.0967911 0.000937401 0)
(-0.105922 0.000877894 0)
(-0.114439 0.000814174 0)
(-0.122345 0.000754649 0)
(-0.129632 0.000690463 0)
(-0.136288 0.000628181 0)
(-0.142293 0.000563241 0)
(-0.147624 0.000493854 0)
(-0.152256 0.000423579 0)
(-0.156158 0.000350098 0)
(-0.159304 0.000273406 0)
(-0.161675 0.00019394 0)
(-0.163223 0.000112434 0)
(-0.163973 3.1523e-05 0)
(-0.163908 -5.38767e-05 0)
(-0.162951 -0.000139385 0)
(-0.16113 -0.000225337 0)
(-0.158433 -0.000311273 0)
(-0.154864 -0.000398515 0)
(-0.150424 -0.000483965 0)
(-0.145114 -0.000571543 0)
(-0.138941 -0.000655698 0)
(-0.131907 -0.000738386 0)
(-0.124027 -0.000825663 0)
(-0.115298 -0.000905789 0)
(-0.104156 -0.000983845 0)
(0.200328 -0.0035024 0)
(0.209679 -0.00293614 0)
(0.218443 -0.00227638 0)
(0.224964 -0.00158247 0)
(0.229115 -0.000862173 0)
(0.230812 -0.000127394 0)
(0.23006 0.00059893 0)
(0.226778 0.00133295 0)
(0.221076 0.00204903 0)
(0.213097 0.0026908 0)
(0.202976 0.00331446 0)
(0.190898 0.00389294 0)
(0.177087 0.0043224 0)
(0.161796 0.00475929 0)
(0.145279 0.00502 0)
(0.127811 0.00530145 0)
(0.109644 0.00551032 0)
(0.0910344 0.00553589 0)
(0.0722244 0.0055969 0)
(0.0534078 0.00559243 0)
(0.0347097 0.0054394 0)
(0.0162127 0.00534074 0)
(-0.00125482 0.00512948 0)
(-0.0177367 0.00488162 0)
(-0.0337288 0.00465978 0)
(-0.0488843 0.00436178 0)
(-0.0631259 0.00409844 0)
(-0.076411 0.00382009 0)
(-0.0887174 0.00350959 0)
(-0.100047 0.00322877 0)
(-0.110407 0.00294715 0)
(-0.119815 0.00265764 0)
(-0.128296 0.00239007 0)
(-0.135879 0.00212126 0)
(-0.142594 0.00187036 0)
(-0.148473 0.00162578 0)
(-0.153542 0.00138602 0)
(-0.15783 0.00115618 0)
(-0.16136 0.00093133 0)
(-0.164158 0.000710864 0)
(-0.166244 0.000496053 0)
(-0.167614 0.000289225 0)
(-0.168299 9.36303e-05 0)
(-0.168275 -0.000126816 0)
(-0.16752 -0.000342965 0)
(-0.166059 -0.000557689 0)
(-0.163855 -0.000776346 0)
(-0.160903 -0.00100947 0)
(-0.157188 -0.00122826 0)
(-0.152677 -0.00146565 0)
(-0.147321 -0.00173235 0)
(-0.141095 -0.00197002 0)
(-0.133986 -0.00227532 0)
(-0.1259 -0.00252211 0)
(-0.11693 -0.00279208 0)
(-0.106993 -0.00312067 0)
(-0.0959276 -0.00338245 0)
(-0.0840419 -0.00366077 0)
(-0.0711336 -0.00399228 0)
(-0.0572618 -0.00422821 0)
(-0.042585 -0.00454259 0)
(-0.0267913 -0.00477089 0)
(-0.0103783 -0.00497551 0)
(0.00659785 -0.00518133 0)
(0.0243208 -0.00532767 0)
(0.0424705 -0.00539374 0)
(0.0608492 -0.00548043 0)
(0.0793223 -0.0054534 0)
(0.097657 -0.00541728 0)
(0.115737 -0.00530407 0)
(0.133252 -0.00511963 0)
(0.150036 -0.00487038 0)
(0.16591 -0.0045598 0)
(0.180544 -0.00416462 0)
(0.193838 -0.00373673 0)
(0.205488 -0.00322093 0)
(0.215328 -0.00269738 0)
(0.223296 -0.00207377 0)
(0.229089 -0.00143848 0)
(0.232651 -0.00076378 0)
(0.233968 -5.99516e-05 0)
(0.23299 0.00063712 0)
(0.229537 0.00134353 0)
(0.223873 0.00198521 0)
(0.216077 0.00262502 0)
(0.206238 0.00319025 0)
(0.194569 0.00371332 0)
(0.181256 0.00418838 0)
(0.16646 0.00461043 0)
(0.15034 0.00496172 0)
(0.13312 0.00526731 0)
(0.11503 0.00548512 0)
(0.0962984 0.0056467 0)
(0.0771999 0.00571501 0)
(0.0579609 0.00572336 0)
(0.0388155 0.00566318 0)
(0.0199757 0.00553806 0)
(0.00165139 0.00534278 0)
(-0.0159315 0.00510634 0)
(-0.0326196 0.00484512 0)
(-0.0483386 0.00452391 0)
(-0.0629869 0.00419352 0)
(-0.0764994 0.0038563 0)
(-0.0888665 0.00351173 0)
(-0.100066 0.00315957 0)
(-0.110129 0.00282482 0)
(-0.119077 0.00250583 0)
(-0.12697 0.0021989 0)
(-0.133879 0.00190345 0)
(-0.139833 0.00162043 0)
(-0.144862 0.00138968 0)
(-0.149058 0.00112454 0)
(-0.152481 0.000901895 0)
(-0.155152 0.000688294 0)
(-0.15711 0.000480344 0)
(-0.158373 0.000276509 0)
(-0.159 9.75879e-05 0)
(-0.158966 -0.000106655 0)
(-0.158282 -0.000293051 0)
(-0.157009 -0.000474854 0)
(-0.155089 -0.000671151 0)
(-0.152537 -0.000857631 0)
(-0.149347 -0.00104995 0)
(-0.145483 -0.00122883 0)
(-0.141031 -0.00144208 0)
(-0.135901 -0.00160002 0)
(-0.130095 -0.00182185 0)
(-0.12366 -0.0020146 0)
(-0.11649 -0.0022468 0)
(-0.108605 -0.00244739 0)
(-0.0999648 -0.00268988 0)
(-0.0905609 -0.00294089 0)
(-0.0803477 -0.00313195 0)
(-0.0692982 -0.00341551 0)
(-0.0574493 -0.00363607 0)
(-0.0447707 -0.00389891 0)
(-0.0312932 -0.00412052 0)
(-0.0170356 -0.00436544 0)
(-0.00199894 -0.00456286 0)
(0.0137177 -0.00476247 0)
(0.0300031 -0.00494139 0)
(0.0468009 -0.00504242 0)
(0.0639262 -0.00512751 0)
(0.0811995 -0.00515197 0)
(0.0984571 -0.00511546 0)
(0.115491 -0.00500592 0)
(0.132039 -0.00482654 0)
(0.147835 -0.00457824 0)
(0.162675 -0.00422772 0)
(0.176248 -0.00383123 0)
(0.18832 -0.0033393 0)
(0.198641 -0.00279765 0)
(0.207012 -0.00216825 0)
(0.213214 -0.00150302 0)
(0.217071 -0.000794153 0)
(0.218501 -7.60434e-05 0)
(0.217507 0.000677306 0)
(0.213884 0.001423 0)
(0.207892 0.00214584 0)
(0.199539 0.00281701 0)
(0.188999 0.00344665 0)
(0.176458 0.00401349 0)
(0.162113 0.00449202 0)
(0.146302 0.00488451 0)
(0.129321 0.00521998 0)
(0.111416 0.00543374 0)
(0.0928852 0.00557169 0)
(0.0740446 0.0056324 0)
(0.0551073 0.00564165 0)
(0.0362991 0.00555039 0)
(0.0178587 0.00541123 0)
(-2.27118e-05 0.00522161 0)
(-0.0171978 0.00501113 0)
(-0.0335523 0.00473153 0)
(-0.0489708 0.00444323 0)
(-0.0633815 0.00413247 0)
(-0.0767715 0.00384599 0)
(-0.089155 0.00353689 0)
(-0.100553 0.00324175 0)
(-0.110968 0.00293322 0)
(-0.120412 0.00267239 0)
(-0.12896 0.00240637 0)
(-0.136624 0.00215445 0)
(-0.143412 0.00189204 0)
(-0.149358 0.00166428 0)
(-0.154472 0.00140224 0)
(-0.158793 0.00117408 0)
(-0.16236 0.000953378 0)
(-0.165234 0.000759517 0)
(-0.167481 0.000574583 0)
(-0.169125 0.000406897 0)
(-0.17022 0.000245332 0)
(-0.170803 0.000104964 0)
(-0.170884 -5.20211e-05 0)
(-0.170474 -0.000207102 0)
(-0.169562 -0.000347216 0)
(-0.168088 -0.000516736 0)
(-0.166047 -0.00071334 0)
(-0.163381 -0.000862073 0)
(-0.160077 -0.00106364 0)
(-0.15619 -0.00124999 0)
(-0.151628 -0.00146568 0)
(-0.146413 -0.0016729 0)
(-0.140453 -0.00185762 0)
(-0.133725 -0.00211417 0)
(-0.126257 -0.00234361 0)
(-0.11792 -0.00260457 0)
(-0.10874 -0.00288073 0)
(-0.0986629 -0.00311078 0)
(-0.0876561 -0.00340153 0)
(-0.0758136 -0.00365567 0)
(-0.0630752 -0.00392279 0)
(-0.0494906 -0.00416188 0)
(-0.0350753 -0.00441501 0)
(-0.0198982 -0.00460664 0)
(-0.00406206 -0.00480061 0)
(0.0123083 -0.00492894 0)
(0.0290715 -0.00503334 0)
(0.0460524 -0.00507796 0)
(0.0631239 -0.00507434 0)
(0.0800704 -0.00500066 0)
(0.0966924 -0.00487377 0)
(0.112755 -0.00468699 0)
(0.128052 -0.00439542 0)
(0.14229 -0.00405967 0)
(0.155219 -0.00362531 0)
(0.166572 -0.0031193 0)
(0.176119 -0.00254219 0)
(0.183631 -0.00191936 0)
(0.188944 -0.00122894 0)
(0.191881 -0.000525841 0)
(0.192417 0.000195599 0)
(0.190511 0.000927577 0)
(0.186118 0.00164554 0)
(0.179427 0.00233648 0)
(0.170533 0.00295013 0)
(0.159624 0.00352179 0)
(0.146937 0.00401776 0)
(0.1327 0.00444895 0)
(0.117162 0.00478431 0)
(0.100615 0.00504563 0)
(0.0833462 0.00521264 0)
(0.0656409 0.00532847 0)
(0.0477234 0.00533656 0)
(0.0298172 0.0052944 0)
(0.0121892 0.00518846 0)
(-0.00501529 0.00506767 0)
(-0.0216934 0.00486172 0)
(-0.0376853 0.00464223 0)
(-0.0528871 0.00439898 0)
(-0.0672494 0.00416439 0)
(-0.0807399 0.00388262 0)
(-0.0933357 0.00360279 0)
(-0.105012 0.00332525 0)
(-0.115742 0.00307791 0)
(-0.125572 0.00279332 0)
(-0.13455 0.00254575 0)
(-0.142652 0.00228453 0)
(-0.149943 0.0020533 0)
(-0.156452 0.0018188 0)
(-0.162191 0.0015982 0)
(-0.16723 0.00140118 0)
(-0.171567 0.00120153 0)
(-0.175237 0.00100522 0)
(-0.178286 0.000814715 0)
(-0.180709 0.000627833 0)
(-0.182485 0.000474172 0)
(-0.183677 0.000273201 0)
(-0.184332 0.00013144 0)
(-0.184356 -5.65563e-05 0)
(-0.183769 -0.00024186 0)
(-0.182656 -0.000410036 0)
(-0.180905 -0.000598254 0)
(-0.178537 -0.000799138 0)
(-0.175499 -0.000964013 0)
(-0.171764 -0.00119859 0)
(-0.167286 -0.00142568 0)
(-0.162098 -0.00166269 0)
(-0.155982 -0.00193866 0)
(-0.148866 -0.00220408 0)
(-0.140953 -0.00250105 0)
(-0.13197 -0.00282478 0)
(-0.121876 -0.00310807 0)
(-0.110828 -0.00337868 0)
(-0.0987968 -0.00368811 0)
(-0.0857962 -0.00395119 0)
(-0.0720309 -0.00416616 0)
(-0.0575028 -0.00443581 0)
(-0.042122 -0.00465093 0)
(-0.0259625 -0.00489129 0)
(-0.00929417 -0.005087 0)
(0.00782078 -0.00520658 0)
(0.0254991 -0.00536661 0)
(0.0436268 -0.00546448 0)
(0.0619954 -0.00546852 0)
(0.0803842 -0.00547578 0)
(0.098617 -0.00536763 0)
(0.116392 -0.00517509 0)
(0.133422 -0.00494076 0)
(0.149428 -0.00456417 0)
(0.16411 -0.00414676 0)
(0.177206 -0.00362283 0)
(0.188427 -0.00301592 0)
(0.197552 -0.00236099 0)
(0.204416 -0.001656 0)
(0.208867 -0.000907187 0)
(0.210819 -0.000164897 0)
(0.210246 0.00059124 0)
(0.206991 0.00130506 0)
(0.201356 0.0020034 0)
(0.193478 0.00267224 0)
(0.18354 0.00320565 0)
(0.171817 0.00371986 0)
(0.158563 0.0041716 0)
(0.144039 0.00445111 0)
(0.128565 0.00472409 0)
(0.112402 0.00483532 0)
(0.0958349 0.00494824 0)
(0.0790792 0.00499358 0)
(0.0623345 0.0049101 0)
(0.0458003 0.00484985 0)
(0.0295086 0.00473154 0)
(0.0136864 0.00456852 0)
(-0.00105261 0.00436231 0)
(-0.0150107 0.00416238 0)
(-0.0286416 0.00398276 0)
(-0.0416496 0.0037916 0)
(-0.0539921 0.00357134 0)
(-0.0656693 0.00338219 0)
(-0.0766907 0.00319416 0)
(-0.0870667 0.00299111 0)
(-0.0968142 0.00281221 0)
(-0.105945 0.00263372 0)
(-0.114462 0.00244258 0)
(-0.122368 0.00226403 0)
(-0.129656 0.0020715 0)
(-0.136313 0.00188471 0)
(-0.142319 0.00168984 0)
(-0.147652 0.00148172 0)
(-0.152284 0.00127091 0)
(-0.156188 0.00105048 0)
(-0.159334 0.000820345 0)
(-0.161705 0.000581992 0)
(-0.163257 0.000337173 0)
(-0.164007 9.47211e-05 0)
(-0.163942 -0.000161484 0)
(-0.162986 -0.000418111 0)
(-0.161164 -0.000675962 0)
(-0.158467 -0.000933778 0)
(-0.154898 -0.00119553 0)
(-0.150458 -0.00145189 0)
(-0.145149 -0.00171464 0)
(-0.138975 -0.00196711 0)
(-0.131941 -0.00221518 0)
(-0.124061 -0.00247702 0)
(-0.115331 -0.00271742 0)
(-0.104188 -0.00295161 0)
(0.200479 -0.0058401 0)
(0.209845 -0.00489598 0)
(0.218621 -0.00379587 0)
(0.225151 -0.00263888 0)
(0.229306 -0.0014376 0)
(0.23101 -0.000209331 0)
(0.230258 0.000996479 0)
(0.226962 0.00222324 0)
(0.221258 0.00341679 0)
(0.213264 0.00448686 0)
(0.203129 0.00552681 0)
(0.191036 0.00649125 0)
(0.177203 0.00720734 0)
(0.161892 0.0079355 0)
(0.145353 0.0083702 0)
(0.127866 0.00883908 0)
(0.109679 0.00918717 0)
(0.0910492 0.00922943 0)
(0.0722215 0.00933096 0)
(0.053389 0.00932296 0)
(0.0346797 0.00906753 0)
(0.0161636 0.00890338 0)
(-0.00131453 0.00854991 0)
(-0.0177962 0.00813765 0)
(-0.0337971 0.00776735 0)
(-0.0489567 0.00727026 0)
(-0.0632018 0.0068311 0)
(-0.0764886 0.00636694 0)
(-0.0887944 0.00584925 0)
(-0.100124 0.0053811 0)
(-0.110483 0.00491167 0)
(-0.119888 0.00442911 0)
(-0.128367 0.00398314 0)
(-0.135947 0.00353514 0)
(-0.14266 0.003117 0)
(-0.148537 0.00270945 0)
(-0.153604 0.00230994 0)
(-0.15789 0.00192705 0)
(-0.161418 0.00155254 0)
(-0.164215 0.00118543 0)
(-0.166298 0.000827235 0)
(-0.167672 0.000481902 0)
(-0.168357 0.000154811 0)
(-0.168332 -0.000211739 0)
(-0.167578 -0.000571495 0)
(-0.166117 -0.000928913 0)
(-0.163913 -0.00129353 0)
(-0.160963 -0.00168214 0)
(-0.15725 -0.00204661 0)
(-0.152742 -0.00244239 0)
(-0.147388 -0.00288678 0)
(-0.141165 -0.00328355 0)
(-0.134059 -0.00379084 0)
(-0.125973 -0.00420305 0)
(-0.117006 -0.00465369 0)
(-0.107069 -0.00520055 0)
(-0.0960053 -0.00563656 0)
(-0.0841199 -0.00610253 0)
(-0.0712054 -0.00665262 0)
(-0.0573327 -0.0070502 0)
(-0.0426518 -0.0075723 0)
(-0.0268527 -0.00795025 0)
(-0.0104333 -0.00829533 0)
(0.00655441 -0.0086384 0)
(0.0242887 -0.00888316 0)
(0.0424483 -0.00899349 0)
(0.0608449 -0.00913327 0)
(0.0793273 -0.00909575 0)
(0.0976793 -0.00902903 0)
(0.115772 -0.00884519 0)
(0.13331 -0.00853115 0)
(0.150108 -0.00812409 0)
(0.165997 -0.0076072 0)
(0.180652 -0.00694423 0)
(0.193955 -0.00623552 0)
(0.205626 -0.00536754 0)
(0.215476 -0.00450269 0)
(0.223462 -0.00345552 0)
(0.229257 -0.00240652 0)
(0.232837 -0.0012707 0)
(0.234151 -0.000103766 0)
(0.233149 0.00105868 0)
(0.229708 0.00224213 0)
(0.224043 0.00331386 0)
(0.216232 0.0043726 0)
(0.206378 0.00531501 0)
(0.194697 0.00619671 0)
(0.181364 0.00698483 0)
(0.166548 0.00769361 0)
(0.150409 0.00828197 0)
(0.133158 0.00878481 0)
(0.115035 0.0091426 0)
(0.0962707 0.00941517 0)
(0.0771397 0.00952753 0)
(0.0578719 0.00954704 0)
(0.038695 0.00944513 0)
(0.019832 0.00923768 0)
(0.0014895 0.00891305 0)
(-0.0161102 0.00851372 0)
(-0.0328189 0.00807231 0)
(-0.0485504 0.00754215 0)
(-0.0632049 0.00699629 0)
(-0.0767306 0.00642543 0)
(-0.0890988 0.00584499 0)
(-0.100291 0.00526736 0)
(-0.110347 0.00471653 0)
(-0.119303 0.0041807 0)
(-0.127199 0.00366049 0)
(-0.1341 0.0031674 0)
(-0.140037 0.00270745 0)
(-0.145069 0.00231046 0)
(-0.149264 0.00188112 0)
(-0.152683 0.00150558 0)
(-0.155354 0.00114871 0)
(-0.157311 0.000804819 0)
(-0.158575 0.000465626 0)
(-0.159198 0.000154701 0)
(-0.159164 -0.000186498 0)
(-0.158479 -0.000484709 0)
(-0.157207 -0.000792047 0)
(-0.155283 -0.00111097 0)
(-0.152734 -0.0014299 0)
(-0.149545 -0.0017461 0)
(-0.145685 -0.00204352 0)
(-0.141234 -0.00240059 0)
(-0.136112 -0.00267261 0)
(-0.130309 -0.00304472 0)
(-0.123862 -0.00335855 0)
(-0.116687 -0.00373021 0)
(-0.108813 -0.00408919 0)
(-0.100171 -0.00447457 0)
(-0.0907586 -0.00489183 0)
(-0.0805571 -0.00522953 0)
(-0.0695079 -0.00568225 0)
(-0.0576691 -0.00606384 0)
(-0.0449896 -0.00649341 0)
(-0.0315073 -0.00686835 0)
(-0.0172416 -0.00727383 0)
(-0.00220009 -0.00760821 0)
(0.0135113 -0.00794083 0)
(0.0298167 -0.00822365 0)
(0.046621 -0.00841594 0)
(0.0637536 -0.00854845 0)
(0.081044 -0.00859563 0)
(0.0983271 -0.00852606 0)
(0.115389 -0.00833759 0)
(0.131953 -0.00805614 0)
(0.147782 -0.00762467 0)
(0.162629 -0.00705777 0)
(0.176223 -0.00638194 0)
(0.188308 -0.00557528 0)
(0.198655 -0.00466017 0)
(0.207039 -0.00361429 0)
(0.213242 -0.00251298 0)
(0.217128 -0.00132735 0)
(0.218573 -0.000118889 0)
(0.217553 0.00111844 0)
(0.213944 0.00237458 0)
(0.207959 0.0035819 0)
(0.199592 0.00469807 0)
(0.18903 0.00574444 0)
(0.176469 0.00668707 0)
(0.162113 0.00750318 0)
(0.146274 0.0081509 0)
(0.129249 0.00869124 0)
(0.11132 0.00906145 0)
(0.0927783 0.0092977 0)
(0.0739118 0.0093976 0)
(0.0549499 0.00939555 0)
(0.036134 0.00926389 0)
(0.0176765 0.00902321 0)
(-0.000221901 0.0086989 0)
(-0.0174155 0.00835431 0)
(-0.0337774 0.00788759 0)
(-0.0492016 0.00740643 0)
(-0.0636108 0.00688937 0)
(-0.0769937 0.00641438 0)
(-0.0893809 0.0058998 0)
(-0.100791 0.00538874 0)
(-0.111196 0.00488905 0)
(-0.120636 0.00446202 0)
(-0.129184 0.00401344 0)
(-0.136849 0.00358285 0)
(-0.143631 0.00315528 0)
(-0.149582 0.00276935 0)
(-0.154679 0.00234355 0)
(-0.158993 0.00196605 0)
(-0.162564 0.00158964 0)
(-0.165443 0.00125776 0)
(-0.167687 0.000950666 0)
(-0.169326 0.000685759 0)
(-0.170416 0.000417035 0)
(-0.170996 0.000184191 0)
(-0.171076 -9.2239e-05 0)
(-0.170658 -0.000345261 0)
(-0.169751 -0.000588978 0)
(-0.168285 -0.000856781 0)
(-0.166247 -0.00118272 0)
(-0.163586 -0.00143963 0)
(-0.160281 -0.00177613 0)
(-0.15639 -0.00207644 0)
(-0.151832 -0.00243596 0)
(-0.146614 -0.0027893 0)
(-0.140658 -0.00310671 0)
(-0.13393 -0.00352143 0)
(-0.126468 -0.00390295 0)
(-0.118144 -0.0043389 0)
(-0.108962 -0.00479781 0)
(-0.0988826 -0.00519041 0)
(-0.0878821 -0.00567024 0)
(-0.0760303 -0.00608669 0)
(-0.0633013 -0.00654535 0)
(-0.049707 -0.00693777 0)
(-0.0352832 -0.00735682 0)
(-0.0200996 -0.00767963 0)
(-0.00425607 -0.00800679 0)
(0.0121342 -0.00820601 0)
(0.0288971 -0.0083956 0)
(0.0459029 -0.00846343 0)
(0.0629867 -0.00846389 0)
(0.0799568 -0.00833411 0)
(0.0965883 -0.00813305 0)
(0.112682 -0.00780995 0)
(0.127992 -0.00733371 0)
(0.142254 -0.00676283 0)
(0.155204 -0.00605173 0)
(0.166579 -0.00519461 0)
(0.17614 -0.00424923 0)
(0.183684 -0.00318839 0)
(0.189003 -0.00205761 0)
(0.191955 -0.000874036 0)
(0.192492 0.000327503 0)
(0.190567 0.00155091 0)
(0.186177 0.00274669 0)
(0.179472 0.00388194 0)
(0.170572 0.0049236 0)
(0.15965 0.0058833 0)
(0.146931 0.00670237 0)
(0.132662 0.00740853 0)
(0.117103 0.00797728 0)
(0.100536 0.00841599 0)
(0.0832484 0.00869644 0)
(0.0655152 0.00888337 0)
(0.0475851 0.00888867 0)
(0.0296652 0.00883843 0)
(0.0120112 0.00865352 0)
(-0.00520864 0.00844027 0)
(-0.0218916 0.00811221 0)
(-0.0378914 0.00774122 0)
(-0.0530982 0.00733541 0)
(-0.0674708 0.00693674 0)
(-0.0809704 0.00646284 0)
(-0.0935623 0.00600899 0)
(-0.105234 0.0055558 0)
(-0.115977 0.00513048 0)
(-0.125806 0.00464602 0)
(-0.134776 0.00424293 0)
(-0.142869 0.00380672 0)
(-0.150156 0.00342096 0)
(-0.156655 0.00303297 0)
(-0.162379 0.00266857 0)
(-0.167412 0.00233846 0)
(-0.17174 0.00199479 0)
(-0.175396 0.00167698 0)
(-0.178434 0.00135294 0)
(-0.180837 0.00104857 0)
(-0.18261 0.000790984 0)
(-0.183793 0.000456473 0)
(-0.184434 0.000219962 0)
(-0.18445 -9.31037e-05 0)
(-0.183857 -0.000407539 0)
(-0.182734 -0.000682008 0)
(-0.180981 -0.000995768 0)
(-0.178605 -0.00133545 0)
(-0.175568 -0.00160536 0)
(-0.171842 -0.00199922 0)
(-0.167355 -0.00237763 0)
(-0.162178 -0.00277405 0)
(-0.15606 -0.00322547 0)
(-0.148946 -0.00367424 0)
(-0.141043 -0.00417044 0)
(-0.132056 -0.00470421 0)
(-0.121961 -0.00518156 0)
(-0.110909 -0.00562804 0)
(-0.0988763 -0.0061505 0)
(-0.0858663 -0.00658396 0)
(-0.0720977 -0.00694534 0)
(-0.0575708 -0.00739895 0)
(-0.0421859 -0.0077495 0)
(-0.0260182 -0.00815268 0)
(-0.00934365 -0.00848298 0)
(0.00778186 -0.00868069 0)
(0.0254686 -0.00894383 0)
(0.0436085 -0.00910938 0)
(0.0619928 -0.00911967 0)
(0.0804012 -0.00912419 0)
(0.098652 -0.00896551 0)
(0.116448 -0.00862376 0)
(0.133506 -0.00822081 0)
(0.149536 -0.0076029 0)
(0.164238 -0.00691578 0)
(0.177354 -0.00604176 0)
(0.188597 -0.00502557 0)
(0.197736 -0.00393932 0)
(0.204606 -0.00276821 0)
(0.209073 -0.00150518 0)
(0.211027 -0.000277483 0)
(0.210436 0.00098364 0)
(0.207167 0.00217568 0)
(0.201531 0.00334029 0)
(0.193639 0.00445656 0)
(0.183681 0.00534605 0)
(0.171938 0.00620342 0)
(0.158662 0.00695648 0)
(0.144114 0.0074223 0)
(0.128618 0.00787706 0)
(0.112434 0.00806212 0)
(0.0958482 0.00825 0)
(0.0790752 0.00832505 0)
(0.062318 0.00818576 0)
(0.0457706 0.00808439 0)
(0.0294723 0.00788681 0)
(0.0136394 0.00761538 0)
(-0.00110566 0.00727069 0)
(-0.0150593 0.0069381 0)
(-0.0286942 0.00663827 0)
(-0.0417034 0.00631939 0)
(-0.054045 0.00595216 0)
(-0.0657216 0.00563683 0)
(-0.076742 0.00532342 0)
(-0.0871163 0.00498502 0)
(-0.0968631 0.00468692 0)
(-0.105993 0.0043895 0)
(-0.11451 0.00407104 0)
(-0.122417 0.00377354 0)
(-0.129706 0.00345272 0)
(-0.136364 0.00314152 0)
(-0.142373 0.00281672 0)
(-0.147707 0.00246994 0)
(-0.152341 0.00211855 0)
(-0.156248 0.00175116 0)
(-0.159396 0.00136746 0)
(-0.161766 0.000970688 0)
(-0.163325 0.000561878 0)
(-0.164075 0.000157749 0)
(-0.164009 -0.000269015 0)
(-0.163054 -0.000696826 0)
(-0.161233 -0.00112658 0)
(-0.158536 -0.0015563 0)
(-0.154967 -0.0019926 0)
(-0.150526 -0.00241988 0)
(-0.145217 -0.00285783 0)
(-0.139042 -0.00327861 0)
(-0.132008 -0.00369208 0)
(-0.124127 -0.00412853 0)
(-0.115396 -0.00452923 0)
(-0.104251 -0.00491961 0)
(0.200704 -0.00818193 0)
(0.210094 -0.00685945 0)
(0.218887 -0.0053182 0)
(0.225431 -0.00369754 0)
(0.229594 -0.00201482 0)
(0.231313 -0.000298625 0)
(0.230546 0.00140511 0)
(0.227241 0.00311732 0)
(0.221532 0.00478729 0)
(0.213515 0.00628622 0)
(0.20336 0.00774329 0)
(0.191242 0.0090942 0)
(0.177377 0.0100973 0)
(0.162037 0.0111168 0)
(0.145464 0.0117256 0)
(0.127947 0.0123816 0)
(0.10973 0.012869 0)
(0.0910712 0.0129273 0)
(0.072217 0.0130691 0)
(0.0533607 0.0130568 0)
(0.0346347 0.0126983 0)
(0.0160899 0.0124681 0)
(-0.00140416 0.0119726 0)
(-0.0178855 0.0113963 0)
(-0.0338997 0.0108766 0)
(-0.0490653 0.0101797 0)
(-0.0633158 0.00956429 0)
(-0.0766053 0.00891398 0)
(-0.0889101 0.00818884 0)
(-0.100239 0.00753316 0)
(-0.110596 0.00687577 0)
(-0.119997 0.00620007 0)
(-0.128473 0.00557565 0)
(-0.136049 0.00494855 0)
(-0.14276 0.00436319 0)
(-0.148633 0.00379273 0)
(-0.153696 0.0032337 0)
(-0.157979 0.00269797 0)
(-0.161505 0.00217413 0)
(-0.164298 0.00166086 0)
(-0.166378 0.00116053 0)
(-0.167756 0.000673007 0)
(-0.168448 0.000211029 0)
(-0.168417 -0.000298643 0)
(-0.167664 -0.00079993 0)
(-0.166203 -0.00129947 0)
(-0.164001 -0.0018103 0)
(-0.161054 -0.00235442 0)
(-0.157343 -0.0028643 0)
(-0.152839 -0.00341872 0)
(-0.147487 -0.00404053 0)
(-0.141269 -0.00459712 0)
(-0.134168 -0.00530484 0)
(-0.126083 -0.00588364 0)
(-0.11712 -0.00651519 0)
(-0.107183 -0.00728036 0)
(-0.0961228 -0.00789018 0)
(-0.0842369 -0.00854502 0)
(-0.0713151 -0.00931254 0)
(-0.057439 -0.00987605 0)
(-0.0427518 -0.010603 0)
(-0.0269474 -0.0111327 0)
(-0.0105159 -0.011618 0)
(0.0064903 -0.0120965 0)
(0.0242382 -0.0124407 0)
(0.0424171 -0.0125948 0)
(0.060832 -0.0127964 0)
(0.0793381 -0.0127378 0)
(0.0977089 -0.0126515 0)
(0.115827 -0.012392 0)
(0.133391 -0.0119554 0)
(0.150211 -0.0113798 0)
(0.166135 -0.0106613 0)
(0.180805 -0.00972931 0)
(0.194138 -0.00873654 0)