/*--------------------------------*- C++ -*----------------------------------*\
| =========                 |                                                 |
| \\      /  F ield         | OpenFOAM: The Open Source CFD Toolbox           |
|  \\    /   O peration     | Version:  3.0.1                                 |
|   \\  /    A nd           | Web:      www.OpenFOAM.org                      |
|    \\/     M anipulation  |                                                 |
\*---------------------------------------------------------------------------*/
FoamFile
{
    version     2.0;
    format      ascii;
    class       volVectorField;
    location    "38.2";
    object      U;
}
// * * * * * * * * * * * * * * * * * * * * * * * * * * * * * * * * * * * * * //

dimensions      [0 1 -1 0 0 0 0];

internalField   nonuniform List<vector> 
21420
(
(0.0519006 0.00164401 0)
(0.0375994 0.00157109 0)
(0.0218232 0.00151188 0)
(0.00675835 0.00143487 0)
(-0.00703759 0.00135314 0)
(-0.0199538 0.00127366 0)
(-0.032276 0.00117979 0)
(-0.0437571 0.00109721 0)
(-0.0543786 0.00101384 0)
(-0.0641443 0.000925232 0)
(-0.0730741 0.000845684 0)
(-0.0811965 0.000768257 0)
(-0.088543 0.00069077 0)
(-0.0951489 0.000620058 0)
(-0.10105 0.000550514 0)
(-0.106279 0.000486204 0)
(-0.110867 0.000424296 0)
(-0.114839 0.000363853 0)
(-0.118217 0.000305911 0)
(-0.121015 0.000248925 0)
(-0.123243 0.000192232 0)
(-0.12491 0.000135318 0)
(-0.125995 7.90471e-05 0)
(-0.126511 2.29367e-05 0)
(-0.126445 -3.68262e-05 0)
(-0.125769 -9.81141e-05 0)
(-0.124478 -0.000160738 0)
(-0.122542 -0.000225176 0)
(-0.11994 -0.000292919 0)
(-0.116653 -0.000362172 0)
(-0.112648 -0.00043369 0)
(-0.107894 -0.000510944 0)
(-0.102364 -0.000588217 0)
(-0.0960253 -0.000672997 0)
(-0.0888522 -0.000755894 0)
(-0.0808049 -0.000840719 0)
(-0.0718412 -0.000936994 0)
(-0.0619368 -0.00102472 0)
(-0.0510996 -0.00111309 0)
(-0.0392896 -0.00121881 0)
(-0.0264982 -0.00130421 0)
(-0.0127475 -0.00140816 0)
(0.00175159 -0.00148586 0)
(0.0169698 -0.0015533 0)
(0.0330403 -0.00164187 0)
(0.0498237 -0.0016944 0)
(0.0671519 -0.00172834 0)
(0.0848658 -0.00177824 0)
(0.102852 -0.00178722 0)
(0.120903 -0.00177199 0)
(0.138805 -0.0017621 0)
(0.156366 -0.00170967 0)
(0.173363 -0.00165098 0)
(0.189579 -0.00155754 0)
(0.204782 -0.00143945 0)
(0.218738 -0.00130961 0)
(0.231244 -0.00115615 0)
(0.242104 -0.000979301 0)
(0.251135 -0.000796932 0)
(0.258201 -0.000592262 0)
(0.26318 -0.000384753 0)
(0.265995 -0.000171058 0)
(0.266609 5.13393e-05 0)
(0.265039 0.000266848 0)
(0.261171 0.000480571 0)
(0.255241 0.000691579 0)
(0.247314 0.000877626 0)
(0.237548 0.00106591 0)
(0.226023 0.00121828 0)
(0.212913 0.00136308 0)
(0.198515 0.00150286 0)
(0.182879 0.00160772 0)
(0.166092 0.00170074 0)
(0.148568 0.0017887 0)
(0.130351 0.00184261 0)
(0.11152 0.00188855 0)
(0.092453 0.0019125 0)
(0.0733162 0.00192923 0)
(0.0543339 0.00192224 0)
(0.0355166 0.00189089 0)
(0.0172008 0.00185541 0)
(-0.00119832 0.00177825 0)
(-0.0192173 0.00169432 0)
(-0.0357197 0.00159167 0)
(-0.0510844 0.0014789 0)
(-0.0650999 0.00134235 0)
(-0.0776671 0.00120265 0)
(-0.0887203 0.00105662 0)
(-0.0982086 0.000903417 0)
(-0.106193 0.000759846 0)
(-0.112728 0.000628078 0)
(-0.118061 0.0005104 0)
(-0.12232 0.000411078 0)
(-0.125592 0.000325178 0)
(-0.128225 0.000252863 0)
(-0.130234 0.000196936 0)
(-0.131687 0.000141821 0)
(-0.132748 8.89884e-05 0)
(-0.133384 3.73171e-05 0)
(-0.133591 -7.42224e-06 0)
(-0.133259 -5.05399e-05 0)
(-0.132393 -0.000110539 0)
(-0.131008 -0.000168847 0)
(-0.129082 -0.00022431 0)
(-0.126501 -0.00028156 0)
(-0.123251 -0.00035057 0)
(-0.119362 -0.000421302 0)
(-0.114806 -0.00049298 0)
(-0.109475 -0.000558329 0)
(-0.103363 -0.000639799 0)
(-0.0965094 -0.000717818 0)
(-0.0888347 -0.000801721 0)
(-0.080337 -0.000879488 0)
(-0.0710178 -0.000964927 0)
(-0.0608526 -0.00105213 0)
(-0.0498386 -0.00114282 0)
(-0.0379324 -0.00121924 0)
(-0.0251575 -0.00130206 0)
(-0.0115558 -0.00138557 0)
(0.00286606 -0.00146037 0)
(0.0180103 -0.00153542 0)
(0.0338061 -0.00159332 0)
(0.0501959 -0.00165334 0)
(0.0670926 -0.00170019 0)
(0.0843617 -0.00172382 0)
(0.101839 -0.00174174 0)
(0.119383 -0.00173793 0)
(0.136788 -0.00170515 0)
(0.153783 -0.00166373 0)
(0.170178 -0.00159489 0)
(0.185734 -0.00148786 0)
(0.200146 -0.0013637 0)
(0.213161 -0.00121294 0)
(0.224545 -0.00104151 0)
(0.234056 -0.000844516 0)
(0.241501 -0.000627147 0)
(0.246693 -0.000398182 0)
(0.249462 -0.000157416 0)
(0.249803 9.02181e-05 0)
(0.247631 0.000338647 0)
(0.242858 0.000585335 0)
(0.235803 0.000820848 0)
(0.226402 0.00104242 0)
(0.214861 0.00123703 0)
(0.201471 0.00141898 0)
(0.186398 0.00156934 0)
(0.169905 0.00169764 0)
(0.15227 0.00180004 0)
(0.133771 0.00187064 0)
(0.114682 0.00192076 0)
(0.095211 0.00193775 0)
(0.0756373 0.00193289 0)
(0.0562728 0.00191315 0)
(0.0372717 0.0018602 0)
(0.0188252 0.00179761 0)
(0.0011605 0.00171435 0)
(-0.0156562 0.00162514 0)
(-0.0315281 0.00152257 0)
(-0.0463543 0.00142075 0)
(-0.0601281 0.00131432 0)
(-0.072837 0.00120844 0)
(-0.0844606 0.00109817 0)
(-0.0950095 0.000994213 0)
(-0.104527 0.000893569 0)
(-0.113017 0.000791639 0)
(-0.120508 0.000698716 0)
(-0.127119 0.000613199 0)
(-0.132861 0.000527649 0)
(-0.137757 0.000447737 0)
(-0.141871 0.00036625 0)
(-0.145234 0.000294967 0)
(-0.147847 0.000229786 0)
(-0.149759 0.000156162 0)
(-0.150981 8.95639e-05 0)
(-0.151522 1.08297e-05 0)
(-0.151262 -5.65864e-05 0)
(-0.150261 -0.000132821 0)
(-0.148578 -0.000197314 0)
(-0.146247 -0.000273306 0)
(-0.143264 -0.000325962 0)
(-0.139623 -0.000390008 0)
(-0.135344 -0.000450367 0)
(-0.130361 -0.000528801 0)
(-0.124656 -0.000601653 0)
(-0.118196 -0.000676998 0)
(-0.110943 -0.000756315 0)
(-0.10289 -0.000839292 0)
(-0.0939543 -0.000925948 0)
(-0.0841709 -0.00101047 0)
(-0.073557 -0.0010954 0)
(-0.0620993 -0.00117711 0)
(-0.049796 -0.00126049 0)
(-0.0366614 -0.00134327 0)
(-0.0227005 -0.00142619 0)
(-0.00792411 -0.00149959 0)
(0.0076036 -0.00157907 0)
(0.0238402 -0.00163399 0)
(0.0406635 -0.00169484 0)
(0.0579313 -0.001734 0)
(0.0755449 -0.00175787 0)
(0.0933169 -0.00175994 0)
(0.111017 -0.00174592 0)
(0.128423 -0.00170164 0)
(0.145251 -0.00163358 0)
(0.161238 -0.0015394 0)
(0.176152 -0.00141545 0)
(0.189685 -0.00126676 0)
(0.201581 -0.00109263 0)
(0.211602 -0.00088808 0)
(0.219491 -0.000670822 0)
(0.225078 -0.000436109 0)
(0.228206 -0.000181657 0)
(0.228761 6.60017e-05 0)
(0.226755 0.000331454 0)
(0.222029 0.000582458 0)
(0.214896 0.000831324 0)
(0.205412 0.00104405 0)
(0.193805 0.00125644 0)
(0.180272 0.00143298 0)
(0.16505 0.00157984 0)
(0.148492 0.00170096 0)
(0.130882 0.00178938 0)
(0.112525 0.00184824 0)
(0.093761 0.00187257 0)
(0.0748619 0.00187819 0)
(0.0560585 0.00185078 0)
(0.0376142 0.00180476 0)
(0.0197147 0.00175026 0)
(0.0024622 0.0016793 0)
(-0.0140254 0.00159038 0)
(-0.0296116 0.0015032 0)
(-0.0442283 0.00140008 0)
(-0.0578567 0.00130092 0)
(-0.0704514 0.00119713 0)
(-0.0820074 0.00109897 0)
(-0.0925725 0.00100019 0)
(-0.102161 0.000905027 0)
(-0.11082 0.000810451 0)
(-0.118585 0.000728415 0)
(-0.125452 0.000638256 0)
(-0.131482 0.000564269 0)
(-0.136789 0.000485937 0)
(-0.141349 0.000413381 0)
(-0.145197 0.000351656 0)
(-0.148355 0.000275329 0)
(-0.150802 0.000214722 0)
(-0.152614 0.000147408 0)
(-0.153773 8.74466e-05 0)
(-0.154319 2.28913e-05 0)
(-0.154254 -4.58408e-05 0)
(-0.153504 -9.58162e-05 0)
(-0.152181 -0.000157694 0)
(-0.150288 -0.000215675 0)
(-0.147762 -0.000281583 0)
(-0.14458 -0.00034831 0)
(-0.14072 -0.000420366 0)
(-0.136153 -0.000486191 0)
(-0.130819 -0.000563851 0)
(-0.124699 -0.000642973 0)
(-0.117836 -0.000721939 0)
(-0.110222 -0.000792916 0)
(-0.101775 -0.0008707 0)
(-0.092549 -0.000950657 0)
(-0.0825666 -0.00103023 0)
(-0.071823 -0.0011028 0)
(-0.0603222 -0.00119165 0)
(-0.0480913 -0.00127556 0)
(-0.0350618 -0.00135518 0)
(-0.0211841 -0.00144664 0)
(-0.00580855 -0.00154093 0)
(0.011008 -0.00163628 0)
(0.0286352 -0.00172778 0)
(0.0471287 -0.00180591 0)
(0.0663966 -0.00187027 0)
(0.0863724 -0.00191654 0)
(0.106765 -0.00192899 0)
(0.127369 -0.00192426 0)
(0.147956 -0.00188293 0)
(0.167992 -0.00180409 0)
(0.187183 -0.00170267 0)
(0.205141 -0.0015544 0)
(0.221352 -0.00137925 0)
(0.235552 -0.00117242 0)
(0.247095 -0.00091714 0)
(0.255433 -0.000640654 0)
(0.260348 -0.000319786 0)
(0.261724 5.32154e-05 0)
(0.260166 0.000389255 0)
(0.255337 0.000698882 0)
(0.247413 0.000944761 0)
(0.236955 0.0011898 0)
(0.22399 0.00141798 0)
(0.209069 0.00157686 0)
(0.192714 0.00171397 0)
(0.175068 0.00182169 0)
(0.156661 0.00186726 0)
(0.137857 0.0019037 0)
(0.118798 0.00191517 0)
(0.0997952 0.00188836 0)
(0.0809836 0.00186156 0)
(0.0625103 0.00180534 0)
(0.0444812 0.00175162 0)
(0.0268847 0.00168556 0)
(0.0102997 0.00159148 0)
(-0.00442125 0.00155087 0)
(-0.0182678 0.00146407 0)
(-0.0319946 0.00136813 0)
(-0.0449776 0.00127779 0)
(-0.0571289 0.0011794 0)
(-0.0684001 0.0010871 0)
(-0.0787835 0.000994824 0)
(-0.0882722 0.000901649 0)
(-0.0968885 0.000815878 0)
(-0.104669 0.000733899 0)
(-0.111648 0.0006547 0)
(-0.117869 0.000581398 0)
(-0.123368 0.000510352 0)
(-0.128176 0.000443215 0)
(-0.132312 0.000377238 0)
(-0.135786 0.000310979 0)
(-0.138598 0.00024449 0)
(-0.140739 0.000175709 0)
(-0.142175 0.000105742 0)
(-0.142909 3.49419e-05 0)
(-0.142911 -4.22784e-05 0)
(-0.142103 -0.000122289 0)
(-0.140466 -0.000205032 0)
(-0.137976 -0.000291323 0)
(-0.134613 -0.000378685 0)
(-0.130343 -0.000467883 0)
(-0.125153 -0.000561108 0)
(-0.11904 -0.000651903 0)
(-0.111996 -0.000742001 0)
(-0.10402 -0.000837349 0)
(-0.0951266 -0.000924713 0)
(-0.0853327 -0.00101862 0)
(-0.0746631 -0.00110051 0)
(-0.0631503 -0.00117798 0)
(-0.0508282 -0.00126474 0)
(-0.0377386 -0.00133257 0)
(-0.023939 -0.00139377 0)
(-0.00948499 -0.00146628 0)
(0.00551875 -0.00150898 0)
(0.0209985 -0.00156815 0)
(0.0368984 -0.00159551 0)
(0.0530974 -0.00161056 0)
(0.0694802 -0.0016383 0)
(0.0859213 -0.00162831 0)
(0.10228 -0.00160361 0)
(0.118411 -0.00158925 0)
(0.134159 -0.00153426 0)
(0.149361 -0.00148581 0)
(0.163844 -0.00139732 0)
(0.177425 -0.00129197 0)
(0.189926 -0.0011857 0)
(0.201159 -0.00104551 0)
(0.211727 -0.000891098 0)
(0.0518794 0.00493253 0)
(0.037575 0.00471365 0)
(0.0217938 0.00453592 0)
(0.00672776 0.00430504 0)
(-0.00706786 0.00405948 0)
(-0.0199874 0.00382102 0)
(-0.0323096 0.0035394 0)
(-0.043791 0.00329162 0)
(-0.0544121 0.00304146 0)
(-0.0641767 0.0027756 0)
(-0.0731056 0.00253694 0)
(-0.0812267 0.00230465 0)
(-0.0885717 0.00207218 0)
(-0.0951763 0.00186005 0)
(-0.101076 0.00165143 0)
(-0.106304 0.00145851 0)
(-0.110891 0.00127281 0)
(-0.114862 0.0010915 0)
(-0.11824 0.000917693 0)
(-0.121037 0.00074676 0)
(-0.123265 0.00057673 0)
(-0.124932 0.000406066 0)
(-0.126019 0.000236805 0)
(-0.126534 6.91302e-05 0)
(-0.126469 -0.000110327 0)
(-0.125794 -0.00029426 0)
(-0.124504 -0.000482106 0)
(-0.122569 -0.000675403 0)
(-0.119968 -0.000878634 0)
(-0.116682 -0.00108638 0)
(-0.112678 -0.00130093 0)
(-0.107925 -0.00153268 0)
(-0.102397 -0.00176448 0)
(-0.0960604 -0.00201882 0)
(-0.0888886 -0.0022676 0)
(-0.0808425 -0.00252199 0)
(-0.0718803 -0.00281075 0)
(-0.0619769 -0.00307429 0)
(-0.0511407 -0.00333957 0)
(-0.0393314 -0.00365633 0)
(-0.0265392 -0.00391271 0)
(-0.0127879 -0.00422485 0)
(0.00171318 -0.00445717 0)
(0.0169335 -0.00466005 0)
(0.0330069 -0.004926 0)
(0.0497947 -0.00508367 0)
(0.0671277 -0.00518553 0)
(0.0848476 -0.00533574 0)
(0.102841 -0.00536246 0)
(0.1209 -0.00531662 0)
(0.138811 -0.00528777 0)
(0.15638 -0.00512992 0)
(0.173388 -0.0049533 0)
(0.189613 -0.00467569 0)
(0.204827 -0.00431795 0)
(0.218792 -0.00392952 0)
(0.231305 -0.00347297 0)
(0.242174 -0.00294309 0)
(0.251222 -0.00238661 0)
(0.258292 -0.00177424 0)
(0.263276 -0.00115279 0)
(0.266097 -0.000512292 0)
(0.266715 0.000151216 0)
(0.265132 0.000800281 0)
(0.261273 0.0014412 0)
(0.255343 0.00207486 0)
(0.247414 0.00263391 0)
(0.237641 0.00319802 0)
(0.226108 0.00365525 0)
(0.212994 0.00409115 0)
(0.198587 0.00450979 0)
(0.18294 0.00482241 0)
(0.166147 0.00510267 0)
(0.148615 0.00536683 0)
(0.130393 0.00553183 0)
(0.111555 0.00566817 0)
(0.0924839 0.00573917 0)
(0.0733446 0.00578667 0)
(0.0543599 0.00576739 0)
(0.0355436 0.00567554 0)
(0.0172274 0.00556569 0)
(-0.00116888 0.00532872 0)
(-0.0191814 0.00508579 0)
(-0.0356845 0.00477439 0)
(-0.0510465 0.00443507 0)
(-0.0650644 0.0040328 0)
(-0.0776401 0.00360506 0)
(-0.0887032 0.00316422 0)
(-0.0981939 0.00270522 0)
(-0.106175 0.00228466 0)
(-0.11273 0.00188594 0)
(-0.118075 0.00152537 0)
(-0.122337 0.0012362 0)
(-0.125621 0.000979448 0)
(-0.128264 0.000757811 0)
(-0.130287 0.00058617 0)
(-0.131748 0.000423474 0)
(-0.132813 0.000267039 0)
(-0.13345 0.000116445 0)
(-0.133664 -3.11015e-05 0)
(-0.13334 -0.000160564 0)
(-0.132464 -0.000328893 0)
(-0.131084 -0.000498759 0)
(-0.129166 -0.000682194 0)
(-0.126588 -0.000843996 0)
(-0.123333 -0.00105449 0)
(-0.11944 -0.00126361 0)
(-0.11488 -0.00148415 0)
(-0.109541 -0.00167693 0)
(-0.103423 -0.00192204 0)
(-0.0965684 -0.00215884 0)
(-0.088899 -0.00240448 0)
(-0.0804049 -0.00264087 0)
(-0.0710827 -0.00289991 0)
(-0.0609102 -0.00316275 0)
(-0.0498845 -0.00342806 0)
(-0.0379784 -0.0036646 0)
(-0.0252009 -0.00391072 0)
(-0.0115969 -0.00415316 0)
(0.002819 -0.00438625 0)
(0.0179728 -0.00460395 0)
(0.0337674 -0.00479486 0)
(0.0501671 -0.00496143 0)
(0.0670786 -0.00508962 0)
(0.0843417 -0.00517599 0)
(0.101836 -0.0052214 0)
(0.119388 -0.00520924 0)
(0.136786 -0.00513995 0)
(0.153806 -0.00498944 0)
(0.170215 -0.00476935 0)
(0.185771 -0.00446644 0)
(0.200189 -0.00410082 0)
(0.213218 -0.00364181 0)
(0.224609 -0.0031197 0)
(0.234119 -0.00253828 0)
(0.241573 -0.00188426 0)
(0.246768 -0.00119199 0)
(0.249536 -0.000474566 0)
(0.249879 0.000259915 0)
(0.24769 0.00101608 0)
(0.242934 0.00176527 0)
(0.235861 0.00246451 0)
(0.226448 0.0031168 0)
(0.214909 0.00371782 0)
(0.201497 0.00426022 0)
(0.186407 0.00470762 0)
(0.169895 0.00509271 0)
(0.152244 0.00539781 0)
(0.133737 0.0056071 0)
(0.114639 0.00575985 0)
(0.095159 0.00582206 0)
(0.0755756 0.00580476 0)
(0.0561877 0.0057414 0)
(0.037177 0.00557786 0)
(0.0187264 0.00539195 0)
(0.00104806 0.00513762 0)
(-0.0157708 0.00487413 0)
(-0.0316424 0.00456892 0)
(-0.0464791 0.00426645 0)
(-0.0602554 0.00393908 0)
(-0.0729621 0.00362752 0)
(-0.0845781 0.00330116 0)
(-0.0951389 0.00297326 0)
(-0.10465 0.00267115 0)
(-0.113123 0.00239079 0)
(-0.120623 0.00209316 0)
(-0.127227 0.00184072 0)
(-0.132965 0.00157768 0)
(-0.13786 0.00134006 0)
(-0.14197 0.00109483 0)
(-0.145332 0.000885298 0)
(-0.147942 0.000685761 0)
(-0.149858 0.000465718 0)
(-0.151085 0.000256282 0)
(-0.151604 3.7063e-05 0)
(-0.151353 -0.000167467 0)
(-0.150352 -0.00039689 0)
(-0.148669 -0.000603469 0)
(-0.14632 -0.00081201 0)
(-0.143338 -0.000986278 0)
(-0.139695 -0.00117929 0)
(-0.135412 -0.00134664 0)
(-0.130431 -0.00158284 0)
(-0.124724 -0.00180146 0)
(-0.118273 -0.00204458 0)
(-0.111018 -0.00229248 0)
(-0.102939 -0.00250968 0)
(-0.0940133 -0.00278501 0)
(-0.0842263 -0.00302209 0)
(-0.0736188 -0.00328628 0)
(-0.0621619 -0.00353906 0)
(-0.0498501 -0.00378144 0)
(-0.0367104 -0.00403162 0)
(-0.0227436 -0.00427254 0)
(-0.0079658 -0.00449406 0)
(0.00757062 -0.00472992 0)
(0.0237939 -0.00491923 0)
(0.0406295 -0.00508854 0)
(0.0579111 -0.0051981 0)
(0.0755185 -0.00528621 0)
(0.0933063 -0.0052813 0)
(0.111013 -0.00523917 0)
(0.128427 -0.00510953 0)
(0.145269 -0.00490297 0)
(0.161273 -0.00461374 0)
(0.176197 -0.00424675 0)
(0.189737 -0.00379808 0)
(0.201636 -0.00327618 0)
(0.211658 -0.00267968 0)
(0.21956 -0.00201485 0)
(0.22516 -0.00130448 0)
(0.228284 -0.000554842 0)
(0.228851 0.000202174 0)
(0.226818 0.000994147 0)
(0.2221 0.00175465 0)
(0.21496 0.00249228 0)
(0.205466 0.00313741 0)
(0.193836 0.00376957 0)
(0.180298 0.00429036 0)
(0.165074 0.00475272 0)
(0.148483 0.00510226 0)
(0.130862 0.00535862 0)
(0.112493 0.00555635 0)
(0.0937064 0.00562286 0)
(0.0747979 0.005624 0)
(0.0559951 0.00555307 0)
(0.0375347 0.00542939 0)
(0.0196116 0.0052394 0)
(0.00235924 0.00503282 0)
(-0.0141288 0.00477931 0)
(-0.0297273 0.00450772 0)
(-0.0443456 0.00420445 0)
(-0.0579776 0.00390669 0)
(-0.0705742 0.00359359 0)
(-0.0821322 0.00329162 0)
(-0.0926943 0.00299556 0)
(-0.102275 0.00271584 0)
(-0.110937 0.00243282 0)
(-0.118708 0.00217193 0)
(-0.12556 0.00192201 0)
(-0.131596 0.00168445 0)
(-0.136891 0.00145697 0)
(-0.141455 0.00124088 0)
(-0.145303 0.0010424 0)
(-0.148447 0.00083515 0)
(-0.150899 0.000646892 0)
(-0.152703 0.0004399 0)
(-0.153868 0.00025647 0)
(-0.154409 6.50589e-05 0)
(-0.154335 -0.000131732 0)
(-0.153584 -0.000290677 0)
(-0.152263 -0.000467 0)
(-0.150381 -0.000657315 0)
(-0.147847 -0.000855588 0)
(-0.144656 -0.00104221 0)
(-0.140793 -0.00125576 0)
(-0.136228 -0.00146835 0)
(-0.130889 -0.00169219 0)
(-0.124757 -0.00192521 0)
(-0.117892 -0.00216018 0)
(-0.110281 -0.00237929 0)
(-0.101836 -0.00262168 0)
(-0.0926008 -0.00284966 0)
(-0.0826186 -0.00309823 0)
(-0.0718702 -0.00331685 0)
(-0.0603522 -0.0035719 0)
(-0.0481175 -0.00382938 0)
(-0.0350802 -0.00405907 0)
(-0.0212183 -0.00434382 0)
(-0.0058327 -0.00462166 0)
(0.0109896 -0.0049082 0)
(0.0286144 -0.00518529 0)
(0.0471128 -0.00541786 0)
(0.0663846 -0.00561023 0)
(0.0863596 -0.00574519 0)
(0.106748 -0.00578563 0)
(0.127357 -0.00576928 0)
(0.147944 -0.00565508 0)
(0.167987 -0.00541146 0)
(0.187186 -0.00510452 0)
(0.205148 -0.00466576 0)
(0.22137 -0.00413552 0)
(0.235584 -0.00351246 0)
(0.247138 -0.00274667 0)
(0.255496 -0.00191966 0)
(0.260445 -0.000962611 0)
(0.261832 0.000155754 0)
(0.260235 0.00116182 0)
(0.255407 0.00209164 0)
(0.247492 0.00283271 0)
(0.237033 0.00357007 0)
(0.224059 0.00425447 0)
(0.209127 0.00473151 0)
(0.192761 0.00514322 0)
(0.175104 0.0054659 0)
(0.156687 0.00560185 0)
(0.137872 0.00571229 0)
(0.118804 0.00573049 0)
(0.0997954 0.0056656 0)
(0.080977 0.00558499 0)
(0.0624985 0.00541686 0)
(0.0444637 0.0052555 0)
(0.0268607 0.00505756 0)
(0.0102803 0.00477503 0)
(-0.00444204 0.00465268 0)
(-0.0182984 0.00439244 0)
(-0.0320263 0.00410474 0)
(-0.0450108 0.00383373 0)
(-0.0571628 0.00353849 0)
(-0.0684345 0.0032614 0)
(-0.0788176 0.0029846 0)
(-0.0883053 0.00270514 0)
(-0.0969204 0.00244768 0)
(-0.104699 0.00220171 0)
(-0.111677 0.00196395 0)
(-0.117896 0.00174419 0)
(-0.123395 0.00153124 0)
(-0.128202 0.00132973 0)
(-0.132337 0.00113179 0)
(-0.135812 0.000932925 0)
(-0.138625 0.000733188 0)
(-0.140766 0.000527278 0)
(-0.142205 0.000318062 0)
(-0.142939 0.000104864 0)
(-0.142942 -0.000126735 0)
(-0.142136 -0.000366688 0)
(-0.1405 -0.000615016 0)
(-0.138011 -0.000873775 0)
(-0.134649 -0.00113595 0)
(-0.130379 -0.00140354 0)
(-0.12519 -0.00168326 0)
(-0.119078 -0.00195574 0)
(-0.112033 -0.00222601 0)
(-0.104057 -0.00251208 0)
(-0.0951629 -0.0027742 0)
(-0.0853685 -0.00305596 0)
(-0.0746975 -0.00330163 0)
(-0.0631831 -0.00353408 0)
(-0.0508596 -0.00379437 0)
(-0.0377678 -0.00399791 0)
(-0.0239655 -0.00418155 0)
(-0.00950832 -0.0043993 0)
(0.00549872 -0.00452711 0)
(0.0209812 -0.00470484 0)
(0.0368854 -0.00478695 0)
(0.0530891 -0.00483213 0)
(0.069477 -0.00491543 0)
(0.0859236 -0.00488549 0)
(0.102288 -0.00481139 0)
(0.118425 -0.00476839 0)
(0.13418 -0.00460344 0)
(0.149389 -0.00445815 0)
(0.163879 -0.00419271 0)
(0.177467 -0.00387663 0)
(0.189976 -0.00355785 0)
(0.201215 -0.00313725 0)
(0.211791 -0.00267395 0)
(0.0518363 0.00822251 0)
(0.0375253 0.00785734 0)
(0.0217339 0.00756078 0)
(0.00666558 0.00717642 0)
(-0.00712952 0.00676601 0)
(-0.0200557 0.00636853 0)
(-0.032378 0.00589902 0)
(-0.0438597 0.00548593 0)
(-0.0544802 0.00506887 0)
(-0.0642424 0.00462567 0)
(-0.0731694 0.00422783 0)
(-0.0812881 0.00384064 0)
(-0.0886299 0.00345318 0)
(-0.095232 0.00309964 0)
(-0.101128 0.00275197 0)
(-0.106354 0.00243049 0)
(-0.110939 0.00212104 0)
(-0.114909 0.00181893 0)
(-0.118285 0.00152933 0)
(-0.121082 0.00124453 0)
(-0.123309 0.000961277 0)
(-0.124975 0.000677141 0)
(-0.126065 0.00039478 0)
(-0.126581 0.000114908 0)
(-0.126517 -0.000183797 0)
(-0.125843 -0.000490266 0)
(-0.124554 -0.000803236 0)
(-0.122621 -0.00112534 0)
(-0.120023 -0.00146395 0)
(-0.116738 -0.00181044 0)
(-0.112736 -0.00216781 0)
(-0.107987 -0.00255405 0)
(-0.10246 -0.00294037 0)
(-0.096127 -0.00336429 0)
(-0.0889574 -0.00377897 0)
(-0.0809129 -0.00420296 0)
(-0.0719531 -0.00468405 0)
(-0.0620508 -0.00512439 0)
(-0.0512154 -0.00556661 0)
(-0.0394066 -0.0060938 0)
(-0.0266118 -0.00652155 0)
(-0.012858 -0.0070424 0)
(0.00164792 -0.00742846 0)
(0.0168737 -0.00776775 0)
(0.0329541 -0.00821141 0)
(0.0497516 -0.00847453 0)
(0.0670953 -0.00864441 0)
(0.0848284 -0.00889508 0)
(0.102835 -0.00894022 0)
(0.12091 -0.00886382 0)
(0.138838 -0.00881579 0)
(0.156424 -0.00855356 0)
(0.173452 -0.00825863 0)
(0.189694 -0.00779532 0)
(0.204923 -0.00720145 0)
(0.218906 -0.00655208 0)
(0.231436 -0.00578891 0)
(0.242318 -0.00490557 0)
(0.251377 -0.00398069 0)
(0.258457 -0.00295773 0)
(0.263445 -0.00192491 0)
(0.266273 -0.000858634 0)
(0.266893 0.000250876 0)
(0.265279 0.00133685 0)
(0.261434 0.00240026 0)
(0.255501 0.00345981 0)
(0.247564 0.00439218 0)
(0.237778 0.00533237 0)
(0.226229 0.00609366 0)
(0.213105 0.00682092 0)
(0.198685 0.00751936 0)
(0.183021 0.0080392 0)
(0.166221 0.00850779 0)
(0.148677 0.0089471 0)
(0.130441 0.00921816 0)
(0.111598 0.00944765 0)
(0.0925268 0.00956552 0)
(0.0733844 0.009646 0)
(0.0543952 0.00961232 0)
(0.0355829 0.00945608 0)
(0.0172686 0.00927697 0)
(-0.00111869 0.00888108 0)
(-0.0191229 0.00847398 0)
(-0.0356173 0.00795735 0)
(-0.050977 0.00739187 0)
(-0.0649952 0.00671952 0)
(-0.0775699 0.0060139 0)
(-0.0886479 0.00527908 0)
(-0.098154 0.00451106 0)
(-0.106147 0.00380755 0)
(-0.112712 0.00315155 0)
(-0.118067 0.00254971 0)
(-0.122347 0.00206395 0)
(-0.125651 0.00163477 0)
(-0.128304 0.0012716 0)
(-0.130352 0.000987597 0)
(-0.131836 0.000712427 0)
(-0.132914 0.00044238 0)
(-0.133555 0.00019031 0)
(-0.133768 -4.19134e-05 0)
(-0.133451 -0.000268462 0)
(-0.13259 -0.00054908 0)
(-0.131221 -0.000833052 0)
(-0.129305 -0.00113117 0)
(-0.126738 -0.00141166 0)
(-0.123492 -0.00176213 0)
(-0.119595 -0.00210525 0)
(-0.115027 -0.00247371 0)
(-0.109688 -0.00279723 0)
(-0.103573 -0.00319843 0)
(-0.096718 -0.00359661 0)
(-0.0890507 -0.00401407 0)
(-0.0805562 -0.00440679 0)
(-0.0712335 -0.00482833 0)
(-0.0610641 -0.00526707 0)
(-0.0500347 -0.00571492 0)
(-0.0381253 -0.00610127 0)
(-0.0253506 -0.00652838 0)
(-0.0117415 -0.00692572 0)
(0.00267477 -0.00731241 0)
(0.0178362 -0.00767544 0)
(0.0336424 -0.0079863 0)
(0.0500445 -0.0082758 0)
(0.0669707 -0.00849144 0)
(0.0842495 -0.00862972 0)
(0.101747 -0.00871245 0)
(0.119325 -0.00868363 0)
(0.13675 -0.00855336 0)
(0.153777 -0.0083278 0)
(0.170214 -0.0079563 0)
(0.185791 -0.00744446 0)
(0.200227 -0.00682883 0)
(0.213278 -0.00607116 0)
(0.224683 -0.00521123 0)
(0.234215 -0.00423617 0)
(0.241683 -0.00313307 0)
(0.246875 -0.00199412 0)
(0.249665 -0.000794913 0)
(0.250013 0.000452605 0)
(0.247788 0.00168572 0)
(0.243044 0.00294291 0)
(0.235965 0.00410849 0)
(0.226541 0.00520518 0)
(0.214983 0.00619782 0)
(0.201551 0.00710497 0)
(0.186436 0.0078535 0)
(0.169906 0.008489 0)
(0.152231 0.00900278 0)
(0.133703 0.00935352 0)
(0.114586 0.00960841 0)
(0.0950764 0.00970184 0)
(0.0754773 0.00967943 0)
(0.0560652 0.00957281 0)
(0.0370401 0.0092996 0)
(0.0185779 0.0089894 0)
(0.000892179 0.00856646 0)
(-0.0159417 0.00812747 0)
(-0.0318174 0.00760882 0)
(-0.0466525 0.00712275 0)
(-0.0604403 0.00656339 0)
(-0.0731513 0.00604017 0)
(-0.0847563 0.00549536 0)
(-0.0952986 0.00496447 0)
(-0.104812 0.00444538 0)
(-0.113289 0.00398503 0)
(-0.120774 0.00348669 0)
(-0.12737 0.00306487 0)
(-0.133112 0.00263759 0)
(-0.138012 0.00222804 0)
(-0.142115 0.00183216 0)
(-0.145474 0.00146913 0)
(-0.148078 0.00115188 0)
(-0.149999 0.000776736 0)
(-0.151228 0.00042831 0)
(-0.151747 6.12367e-05 0)
(-0.1515 -0.00028537 0)
(-0.1505 -0.000666186 0)
(-0.148814 -0.000998329 0)
(-0.146463 -0.0013564 0)
(-0.143471 -0.00163764 0)
(-0.13983 -0.00196265 0)
(-0.135561 -0.00225952 0)
(-0.130589 -0.00264321 0)
(-0.124878 -0.00300777 0)
(-0.118418 -0.00339556 0)
(-0.111161 -0.00380343 0)
(-0.103093 -0.00419205 0)
(-0.0941689 -0.0046379 0)
(-0.0843886 -0.00504809 0)
(-0.0737808 -0.00547637 0)
(-0.0623194 -0.00589588 0)
(-0.0500039 -0.00630232 0)
(-0.0368642 -0.00671942 0)
(-0.0229005 -0.00712969 0)
(-0.00811989 -0.00749925 0)
(0.00743006 -0.00788763 0)
(0.0236745 -0.00819001 0)
(0.0405101 -0.00848448 0)
(0.0578081 -0.00866991 0)
(0.0754375 -0.00880445 0)
(0.0932371 -0.0088079 0)
(0.110965 -0.00872716 0)
(0.128392 -0.00852057 0)
(0.145256 -0.00818225 0)
(0.161291 -0.00769071 0)
(0.176236 -0.00707893 0)
(0.189791 -0.00633932 0)
(0.201715 -0.00546471 0)
(0.211756 -0.00445774 0)
(0.219668 -0.00336186 0)
(0.225285 -0.00217551 0)
(0.228424 -0.000924156 0)
(0.228998 0.000336394 0)
(0.226936 0.00166507 0)
(0.222223 0.00292253 0)
(0.21507 0.00415472 0)
(0.205552 0.00524122 0)
(0.193905 0.0062752 0)
(0.180349 0.0071616 0)
(0.165096 0.00791859 0)
(0.148491 0.00850936 0)
(0.13085 0.00894815 0)
(0.112439 0.00925873 0)
(0.0936282 0.00936834 0)
(0.0747131 0.00938334 0)
(0.0558913 0.00926359 0)
(0.0374108 0.00904201 0)
(0.0194759 0.00874607 0)
(0.00221045 0.00838997 0)
(-0.0142834 0.00796012 0)
(-0.0298881 0.00751769 0)
(-0.0445223 0.0070082 0)
(-0.058159 0.0065038 0)
(-0.0707484 0.0059925 0)
(-0.0823024 0.0054856 0)
(-0.0928576 0.00499677 0)
(-0.102435 0.00452198 0)
(-0.111087 0.00405793 0)
(-0.118856 0.00361912 0)
(-0.125703 0.00319948 0)
(-0.131727 0.00281379 0)
(-0.137025 0.00242985 0)
(-0.141583 0.00206579 0)
(-0.145435 0.00174873 0)
(-0.148585 0.00137595 0)
(-0.15103 0.00108034 0)
(-0.15283 0.000738742 0)
(-0.154 0.00042845 0)
(-0.154548 0.000109336 0)
(-0.154468 -0.000224064 0)
(-0.153714 -0.000484121 0)
(-0.152406 -0.000787932 0)
(-0.150525 -0.00108909 0)
(-0.147988 -0.00141273 0)
(-0.144805 -0.00174098 0)
(-0.140939 -0.00210244 0)
(-0.136371 -0.00245409 0)
(-0.131033 -0.00281248 0)
(-0.124902 -0.00320984 0)
(-0.118038 -0.00360492 0)
(-0.110428 -0.00397477 0)
(-0.101976 -0.00436004 0)
(-0.0927403 -0.00475534 0)
(-0.0827443 -0.00516433 0)
(-0.0719847 -0.00552967 0)
(-0.0604588 -0.00595473 0)
(-0.0482056 -0.00638462 0)
(-0.0351541 -0.00677219 0)
(-0.021277 -0.00723505 0)
(-0.00588569 -0.00770891 0)
(0.0109497 -0.00818205 0)
(0.0285866 -0.00864245 0)
(0.0470894 -0.00903406 0)
(0.066372 -0.00935171 0)
(0.0863498 -0.00957611 0)
(0.106734 -0.00964558 0)
(0.127351 -0.00961868 0)
(0.147942 -0.00941908 0)
(0.167987 -0.00902354 0)
(0.187194 -0.00851257 0)
(0.20517 -0.00777523 0)
(0.221405 -0.00689836 0)
(0.235643 -0.00585184 0)
(0.247223 -0.00455887 0)
(0.255606 -0.00318212 0)
(0.260602 -0.00160928 0)
(0.262005 0.000246686 0)
(0.26033 0.00191613 0)
(0.255514 0.00346635 0)
(0.247613 0.00471642 0)
(0.237148 0.00595148 0)
(0.224158 0.00709379 0)
(0.209205 0.00788931 0)
(0.192817 0.00857554 0)
(0.175137 0.00911327 0)
(0.156702 0.00934048 0)
(0.137866 0.00952083 0)
(0.118786 0.00959508 0)
(0.0997709 0.00944682 0)
(0.0809389 0.00931042 0)
(0.0624522 0.00902931 0)
(0.0444087 0.00876051 0)
(0.0267949 0.00843116 0)
(0.0102258 0.00796091 0)
(-0.0044977 0.00775323 0)
(-0.0183723 0.0073208 0)
(-0.0321007 0.00684156 0)
(-0.0450869 0.00638984 0)
(-0.0572389 0.00589763 0)
(-0.0685103 0.00543565 0)
(-0.078892 0.00497418 0)
(-0.0883765 0.00450834 0)
(-0.0969883 0.00407921 0)
(-0.104763 0.00366907 0)
(-0.111737 0.00327276 0)
(-0.117953 0.00290661 0)
(-0.123449 0.00255178 0)
(-0.128255 0.00221611 0)
(-0.132389 0.00188635 0)
(-0.135864 0.00155507 0)
(-0.138677 0.00122246 0)
(-0.140818 0.000880031 0)
(-0.142264 0.000530023 0)
(-0.143 0.00017522 0)
(-0.143004 -0.000211183 0)
(-0.142201 -0.000610902 0)
(-0.140567 -0.00102475 0)
(-0.138081 -0.00145595 0)
(-0.13472 -0.00189298 0)
(-0.130451 -0.00233904 0)
(-0.125264 -0.00280535 0)
(-0.119151 -0.00325962 0)
(-0.112105 -0.00371011 0)
(-0.104129 -0.00418699 0)
(-0.0952337 -0.00462393 0)
(-0.0854381 -0.00509361 0)
(-0.0747643 -0.00550315 0)
(-0.0632465 -0.00589065 0)
(-0.0509203 -0.00632456 0)
(-0.0378241 -0.0066638 0)
(-0.0240165 -0.00697002 0)
(-0.00955287 -0.0073334 0)
(0.00546068 -0.00754615 0)
(0.0209485 -0.00784275 0)
(0.0368615 -0.00797972 0)
(0.0530745 -0.00805512 0)
(0.0694723 -0.00819413 0)
(0.0859297 -0.00814433 0)
(0.102305 -0.0080209 0)
(0.118456 -0.00794944 0)
(0.134223 -0.00767459 0)
(0.149446 -0.00743262 0)
(0.16395 -0.00699027 0)
(0.177551 -0.00646345 0)
(0.190076 -0.00593218 0)
(0.201329 -0.00523107 0)
(0.211918 -0.00445874 0)
(0.0517715 0.0115149 0)
(0.0374506 0.011003 0)
(0.021644 0.010587 0)
(0.0065722 0.0100497 0)
(-0.00722218 0.00947293 0)
(-0.0201582 0.0089163 0)
(-0.0324806 0.0082587 0)
(-0.0439629 0.00768008 0)
(-0.0545824 0.00709593 0)
(-0.0643411 0.00647525 0)
(-0.0732651 0.0059181 0)
(-0.0813802 0.00537593 0)
(-0.0887172 0.00483348 0)
(-0.0953154 0.00433854 0)
(-0.101207 0.00385188 0)
(-0.10643 0.00340191 0)
(-0.111012 0.00296882 0)
(-0.114979 0.00254602 0)
(-0.118354 0.00214075 0)
(-0.121149 0.00174222 0)
(-0.123376 0.00134601 0)
(-0.12504 0.000949336 0)
(-0.126132 0.000553902 0)
(-0.126654 0.000158249 0)
(-0.126588 -0.000257752 0)
(-0.125917 -0.000686081 0)
(-0.12463 -0.00112396 0)
(-0.122699 -0.0015748 0)
(-0.120104 -0.00204872 0)
(-0.116823 -0.00253397 0)
(-0.112824 -0.00303407 0)
(-0.108079 -0.00357475 0)
(-0.102555 -0.00411554 0)
(-0.0962268 -0.00470925 0)
(-0.0890605 -0.00528959 0)
(-0.0810184 -0.00588339 0)
(-0.0720625 -0.00655678 0)
(-0.0621619 -0.0071745 0)
(-0.0513274 -0.00779417 0)
(-0.0395194 -0.0085311 0)
(-0.0267208 -0.00913083 0)
(-0.0129633 -0.00986113 0)
(0.00155 -0.0104005 0)
(0.0167838 -0.0108772 0)
(0.0328747 -0.0114991 0)
(0.0496869 -0.0118679 0)
(0.0670465 -0.0121062 0)
(0.0847991 -0.0124582 0)
(0.102828 -0.0125216 0)
(0.120924 -0.0124153 0)
(0.13888 -0.0123487 0)
(0.156491 -0.011981 0)
(0.173547 -0.0115694 0)
(0.189815 -0.0109216 0)
(0.205071 -0.0100886 0)
(0.219078 -0.00917812 0)
(0.231629 -0.00811302 0)
(0.242535 -0.00687471 0)
(0.251609 -0.00558102 0)
(0.258705 -0.00414721 0)
(0.263699 -0.0027018 0)
(0.266536 -0.00121054 0)
(0.267147 0.000367668 0)
(0.265506 0.00187812 0)
(0.261677 0.00335851 0)
(0.255737 0.00484678 0)
(0.247788 0.00615439 0)
(0.237982 0.00746895 0)
(0.226409 0.00853393 0)
(0.213271 0.00955544 0)
(0.198831 0.0105329 0)
(0.183142 0.0112564 0)