/*--------------------------------*- C++ -*----------------------------------*\
| =========                 |                                                 |
| \\      /  F ield         | OpenFOAM: The Open Source CFD Toolbox           |
|  \\    /   O peration     | Version:  3.0.1                                 |
|   \\  /    A nd           | Web:      www.OpenFOAM.org                      |
|    \\/     M anipulation  |                                                 |
\*---------------------------------------------------------------------------*/
FoamFile
{
    version     2.0;
    format      ascii;
    class       surfaceScalarField;
    location    "85";
    object      alphaPhi;
}
// * * * * * * * * * * * * * * * * * * * * * * * * * * * * * * * * * * * * * //

dimensions      [0 3 -1 0 0 0 0];

internalField   nonuniform List<scalar> 
42423
(
8.56681e-05
-1.86786e-05
0.000104216
-1.85481e-05
0.000122171
-1.79549e-05
0.000139222
-1.70509e-05
0.000155311
-1.60894e-05
0.000170052
-1.47412e-05
0.000183279
-1.32263e-05
0.000194677
-1.13988e-05
0.000204069
-9.39211e-06
0.000211215
-7.1461e-06
0.000215957
-4.74207e-06
0.00021825
-2.29283e-06
0.000218015
2.34844e-07
0.000215114
2.90091e-06
0.000209744
5.37024e-06
0.000201932
7.81183e-06
0.000191776
1.01566e-05
0.000179699
1.20769e-05
0.000165775
1.39234e-05
0.000150224
1.55516e-05
0.000133419
1.6805e-05
0.00011565
1.77686e-05
9.69679e-05
1.8682e-05
7.78926e-05
1.90753e-05
5.85764e-05
1.93162e-05
3.92681e-05
1.93083e-05
2.02761e-05
1.89919e-05
1.59429e-06
1.86818e-05
-1.64999e-05
1.80942e-05
-3.39316e-05
1.74317e-05
-5.05387e-05
1.66072e-05
-6.62583e-05
1.57195e-05
-8.10338e-05
1.47755e-05
-9.4816e-05
1.37822e-05
-0.000107624
1.28083e-05
-0.000119419
1.17942e-05
-0.000130229
1.08104e-05
-0.000140069
9.84003e-06
-0.000148976
8.90697e-06
-0.000156955
7.97953e-06
-0.000164048
7.0926e-06
-0.000170293
6.24454e-06
-0.000175706
5.41292e-06
-0.000180324
4.61863e-06
-0.000184157
3.83235e-06
-0.00018724
3.08316e-06
-0.000189563
2.32319e-06
-0.00019113
1.5667e-06
-0.000192
8.70177e-07
-0.0001921
1.00143e-07
-0.000191355
-7.45165e-07
-0.000189852
-1.50287e-06
-0.000187452
-2.39962e-06
-0.000184314
-3.13795e-06
-0.000180353
-3.9615e-06
-0.000175456
-4.89696e-06
-0.000169718
-5.73794e-06
-0.000163111
-6.60656e-06
-0.000155533
-7.57796e-06
-0.000147054
-8.47904e-06
-0.000137546
-9.5081e-06
-0.000126966
-1.05803e-05
-0.000115535
-1.14307e-05
-0.000103093
-1.24427e-05
-8.96631e-05
-1.34296e-05
-7.54709e-05
-1.41922e-05
-6.02766e-05
-1.51943e-05
-4.44577e-05
-1.5819e-05
-2.78533e-05
-1.66044e-05
-1.04793e-05
-1.7374e-05
7.20484e-06
-1.76842e-05
2.52802e-05
-1.80754e-05
4.36036e-05
-1.83235e-05
6.18882e-05
-1.82846e-05
8.00873e-05
-1.81991e-05
9.79147e-05
-1.78274e-05
0.000115265
-1.73499e-05
0.000131983
-1.67185e-05
0.000147702
-1.57193e-05
0.000162346
-1.46438e-05
0.000175688
-1.33412e-05
0.000187359
-1.16713e-05
0.000197468
-1.01084e-05
0.000205648
-8.18045e-06
0.000211897
-6.24801e-06
0.000215958
-4.0605e-06
0.000217697
-1.73885e-06
0.000217153
5.44736e-07
0.00021407
3.08317e-06
0.000208483
5.58826e-06
0.000200448
8.03493e-06
0.000190134
1.03154e-05
0.00017773
1.24039e-05
0.000163463
1.4268e-05
0.000147565
1.58983e-05
0.000130348
1.7217e-05
0.000112076
1.82717e-05
9.3036e-05
1.90405e-05
7.34613e-05
1.95749e-05
5.36882e-05
1.97731e-05
3.38911e-05
1.97972e-05
1.43792e-05
1.95119e-05
-4.66764e-06
1.90469e-05
-2.30385e-05
1.83708e-05
-4.05947e-05
1.75562e-05
-5.71826e-05
1.65879e-05
-7.2701e-05
1.55183e-05
-8.71074e-05
1.44063e-05
-0.00010036
1.32527e-05
-0.000112434
1.20736e-05
-0.000123395
1.0961e-05
-0.000133217
9.82208e-06
-0.00014194
8.72297e-06
-0.000149653
7.71284e-06
-0.000156332
6.6794e-06
-0.000162073
5.74094e-06
-0.000166897
4.82444e-06
-0.00017087
3.97298e-06
-0.000174
3.12939e-06
-0.000176345
2.3451e-06
-0.000177915
1.56977e-06
-0.000178772
8.56952e-07
-0.000178931
1.59379e-07
-0.000178384
-5.47346e-07
-0.000177139
-1.24449e-06
-0.000175355
-1.78466e-06
-0.000172801
-2.55413e-06
-0.000169785
-3.01576e-06
-0.00016602
-3.76525e-06
-0.000161713
-4.30681e-06
-0.000156704
-5.00894e-06
-0.000151109
-5.59511e-06
-0.000144775
-6.3336e-06
-0.00013776
-7.01495e-06
-0.000129934
-7.82639e-06
-0.000121485
-8.44903e-06
-0.000112142
-9.34344e-06
-0.000101966
-1.01759e-05
-9.09239e-05
-1.10418e-05
-7.89845e-05
-1.19395e-05
-6.61764e-05
-1.28081e-05
-5.24146e-05
-1.37619e-05
-3.79699e-05
-1.44447e-05
-2.26475e-05
-1.53225e-05
-6.54243e-06
-1.61051e-05
1.00531e-05
-1.65955e-05
2.72342e-05
-1.71812e-05
4.47788e-05
-1.75447e-05
6.25387e-05
-1.77599e-05
8.03088e-05
-1.77702e-05
9.78703e-05
-1.75616e-05
0.000114997
-1.71271e-05
0.000131401
-1.64033e-05
0.000146852
-1.54516e-05
0.000161069
-1.42167e-05
0.000173812
-1.27435e-05
0.00018476
-1.09475e-05
0.000193759
-8.99935e-06
0.000200587
-6.82782e-06
0.000205083
-4.49647e-06
0.00020714
-2.05645e-06
0.000206733
4.06073e-07
0.000203789
2.94409e-06
0.000198316
5.47332e-06
0.000190501
7.81491e-06
0.000180461
1.00395e-05
0.000168423
1.20382e-05
0.000154598
1.38254e-05
0.000139271
1.53261e-05
0.00012264
1.66311e-05
0.000105081
1.75591e-05
8.6849e-05
1.8232e-05
6.82547e-05
1.85943e-05
4.95346e-05
1.87201e-05
3.08715e-05
1.86632e-05
1.25546e-05
1.83168e-05
-5.26436e-06
1.78189e-05
-2.24289e-05
1.71646e-05
-3.87969e-05
1.63679e-05
-5.43083e-05
1.55115e-05
-6.8887e-05
1.45787e-05
-8.24555e-05
1.35685e-05
-9.50125e-05
1.2557e-05
-0.00010654
1.15272e-05
-0.000117075
1.05358e-05
-0.000126646
9.57016e-06
-0.000135342
8.69654e-06
-0.000143064
7.72244e-06
-0.000149892
6.82725e-06
-0.000155904
6.01216e-06
-0.00016114
5.23649e-06
-0.000165708
4.5675e-06
-0.000169574
3.86613e-06
-0.000172815
3.24157e-06
-0.000175341
2.52534e-06
-0.000177166
1.82522e-06
-0.00017824
1.07389e-06
-0.000178636
3.95798e-07
-0.000178289
-3.4621e-07
-0.000177327
-9.62617e-07
-0.000175775
-1.55139e-06
-0.000173678
-2.09751e-06
-0.000171087
-2.59096e-06
-0.000168027
-3.06047e-06
-0.000164362
-3.6644e-06
-0.000160102
-4.26045e-06
-0.000155117
-4.98494e-06
-0.000149388
-5.72853e-06
-0.000142838
-6.55007e-06
-0.00013546
-7.37794e-06
-0.000127218
-8.24266e-06
-0.000118155
-9.06305e-06
-0.000108202
-9.95223e-06
-9.7565e-05
-1.06373e-05
-8.60563e-05
-1.15088e-05
-7.37552e-05
-1.23011e-05
-6.07244e-05
-1.30308e-05
-4.6948e-05
-1.37764e-05
-3.24666e-05
-1.44815e-05
-1.73563e-05
-1.51104e-05
-1.64751e-06
-1.57088e-05
1.45608e-05
-1.62084e-05
3.11421e-05
-1.65813e-05
4.79281e-05
-1.6786e-05
6.48042e-05
-1.68762e-05
8.15812e-05
-1.6777e-05
9.80672e-05
-1.64861e-05
0.000113964
-1.5897e-05
0.000129086
-1.51219e-05
0.000143146
-1.406e-05
0.000155916
-1.27698e-05
0.000167072
-1.11564e-05
0.000176457
-9.38474e-06
0.000183813
-7.35675e-06
0.000188987
-5.17432e-06
0.000191823
-2.83613e-06
0.000192277
-4.5395e-07
0.000190228
2.04969e-06
0.000185683
4.54411e-06
0.000178713
6.96979e-06
0.000169489
9.22454e-06
0.000158135
1.13537e-05
0.00014487
1.32643e-05
0.000129936
1.49336e-05
0.000113649
1.62869e-05
9.6242e-05
1.74073e-05
7.80674e-05
1.81744e-05
5.94288e-05
1.86385e-05
4.06523e-05
1.87764e-05
2.19561e-05
1.86961e-05
3.63533e-06
1.83207e-05
-1.42278e-05
1.78631e-05
-3.13802e-05
1.71524e-05
-4.77682e-05
1.63881e-05
-6.32582e-05
1.549e-05
-7.78302e-05
1.45721e-05
-9.14561e-05
1.36261e-05
-0.000104027
1.25714e-05
-0.000115683
1.1656e-05
-0.000126322
1.06386e-05
-0.000135967
9.64566e-06
-0.000144666
8.69873e-06
-0.000152435
7.76979e-06
-0.000159343
6.90802e-06
-0.000165373
6.03016e-06
-0.000170629
5.25563e-06
-0.000175191
4.56202e-06
-0.000178959
3.76837e-06
-0.000181988
3.02899e-06
-0.000184391
2.403e-06
-0.000186192
1.80119e-06
-0.000187249
1.05672e-06
-0.00018775
5.01213e-07
-0.000187573
-1.76305e-07
-0.000186793
-7.79976e-07
-0.000185267
-1.5262e-06
-0.000183192
-2.07486e-06
-0.000180346
-2.84579e-06
-0.000176762
-3.58433e-06
-0.000172401
-4.36104e-06
-0.000167179
-5.22168e-06
-0.000161003
-6.17628e-06
-0.000154028
-6.97499e-06
-0.000146314
-7.71378e-06
-0.000137809
-8.50555e-06
-0.000128657
-9.1517e-06
-0.000119028
-9.62914e-06
-0.00010871
-1.03182e-05
-9.791e-05
-1.07998e-05
-8.64199e-05
-1.14901e-05
-7.42273e-05
-1.21927e-05
-6.14937e-05
-1.27336e-05
-4.79584e-05
-1.35353e-05
-3.3627e-05
-1.43315e-05
-1.85876e-05
-1.50394e-05
-2.58485e-06
-1.60028e-05
1.41333e-05
-1.67181e-05
3.14011e-05
-1.72678e-05
4.92449e-05
-1.78438e-05
6.72883e-05
-1.80435e-05
8.54982e-05
-1.82099e-05
0.000103598
-1.80993e-05
0.000121127
-1.75293e-05
0.000137878
-1.67511e-05
0.000153637
-1.57592e-05
0.000167937
-1.43e-05
0.000180631
-1.26941e-05
0.000191394
-1.07632e-05
0.000200113
-8.71889e-06
0.000206531
-6.41765e-06
0.000210462
-3.93078e-06
0.000211999
-1.53726e-06
0.000210933
1.06614e-06
0.000207196
3.73721e-06
0.000201166
6.0292e-06
0.000192808
8.35829e-06
0.000182628
1.01798e-05
0.000170642
1.19861e-05
0.000157232
1.34096e-05
0.000142546
1.46867e-05
0.000127088
1.54581e-05
0.000110815
1.62726e-05
9.43105e-05
1.65045e-05
7.75384e-05
1.67721e-05
6.08924e-05
1.6646e-05
4.44568e-05
1.64356e-05
2.83409e-05
1.61159e-05
1.28438e-05
1.54971e-05
-2.29471e-06
1.51385e-05
-1.67837e-05
1.4489e-05
-3.06102e-05
1.38265e-05
-4.37961e-05
1.3186e-05
-5.63065e-05
1.25103e-05
-6.81302e-05
1.18237e-05
-7.92958e-05
1.11657e-05
-8.97869e-05
1.04911e-05
-9.96368e-05
9.84989e-06
-0.000108828
9.19153e-06
-0.000117346
8.51759e-06
-0.000125208
7.8623e-06
-0.000132403
7.19455e-06
-0.000138911
6.5083e-06
-0.000144724
5.81293e-06
-0.000149817
5.09352e-06
-0.000154181
4.36338e-06
-0.000157795
3.6144e-06
-0.000160651
2.85612e-06
-0.000162727
2.07586e-06
-0.000164021
1.29348e-06
-0.000164503
4.82572e-07
-0.000164093
-4.10485e-07
-0.000162805
-1.28752e-06
-0.000160656
-2.14913e-06
-0.00015765
-3.00664e-06
-0.000153755
-3.89411e-06
-0.000149013
-4.74233e-06
-5.60502e-06
8.56817e-05
-3.73657e-05
0.000104242
-3.71084e-05
0.000122215
-3.59281e-05
0.000139278
-3.41143e-05
0.000155377
-3.21877e-05
0.000170131
-2.94959e-05
0.000183382
-2.6477e-05
0.000194808
-2.28252e-05
0.000204201
-1.87854e-05
0.000211353
-1.42976e-05
0.00021613
-9.51942e-06
0.000218438
-4.60086e-06
0.000218166
5.06697e-07
0.000215238
5.82927e-06
0.000209862
1.07464e-05
0.000202044
1.5629e-05
0.000191879
2.0322e-05
0.000179793
2.41628e-05
0.000165857
2.78589e-05
0.000150295
3.11138e-05
0.000133475
3.36256e-05
0.00011569
3.55528e-05
9.70066e-05
3.73658e-05
7.79111e-05
3.81708e-05
5.85861e-05
3.86411e-05
3.92648e-05
3.86296e-05
2.02609e-05
3.79958e-05
1.57545e-06
3.73673e-05
-1.6523e-05
3.61926e-05
-3.39615e-05
3.48702e-05
-5.05759e-05
3.32216e-05
-6.62985e-05
3.1442e-05
-8.10752e-05
2.95523e-05
-9.486e-05
2.75669e-05
-0.000107673
2.56211e-05
-0.000119473
2.35941e-05
-0.000130282
2.16198e-05
-0.00014012
1.96776e-05
-0.000149028
1.78148e-05
-0.000157009
1.59614e-05
-0.000164106
1.41887e-05
-0.000170353
1.24922e-05
-0.00017577
1.08292e-05
-0.000180389
9.23832e-06
-0.000184223
7.66571e-06
-0.000187302
6.16209e-06
-0.000189625
4.6464e-06
-0.000191196
3.13745e-06
-0.000192063
1.73784e-06
-0.000192158
1.95268e-07
-0.000191417
-1.48691e-06
-0.000189919
-3.00077e-06
-0.000187518
-4.80038e-06
-0.000184382
-6.27346e-06
-0.000180422
-7.92223e-06
-0.000175528
-9.79065e-06
-0.000169789
-1.14767e-05
-0.000163189
-1.32068e-05
-0.000155604
-1.5163e-05
-0.000147127
-1.6956e-05
-0.000137623
-1.90119e-05
-0.000127036
-2.11673e-05
-0.000115605
-2.2862e-05
-0.000103158
-2.48903e-05
-8.97235e-05
-2.68637e-05
-7.55342e-05
-2.83816e-05
-6.0342e-05
-3.03866e-05
-4.45099e-05
-3.16511e-05
-2.7895e-05
-3.32193e-05
-1.05158e-05
-3.47532e-05
7.17131e-06
-3.53714e-05
2.52586e-05
-3.61628e-05
4.35932e-05
-3.66581e-05
6.18852e-05
-3.65766e-05
8.00953e-05
-3.64093e-05
9.79354e-05
-3.56675e-05
0.000115286
-3.4701e-05
0.000132021
-3.34529e-05
0.000147753
-3.14517e-05
0.000162413
-2.93039e-05
0.000175763
-2.66903e-05
0.000187448
-2.33569e-05
0.000197574
-2.02341e-05
0.000205759
-1.63648e-05
0.000212036
-1.25243e-05
0.000216101
-8.12575e-06
0.000217857
-3.49371e-06
0.000217326
1.07651e-06
0.000214239
6.17022e-06
0.00020865
1.11784e-05
0.000200633
1.60521e-05
0.000190303
2.06455e-05
0.00017788
2.4828e-05
0.000163602
2.85466e-05
0.00014769
3.18108e-05
0.000130454
3.44526e-05
0.000112162
3.65645e-05
9.31009e-05
3.81016e-05
7.34985e-05
3.91775e-05
5.37017e-05
3.957e-05
3.38888e-05
3.96102e-05
1.43626e-05
3.90381e-05
-4.69951e-06
3.81091e-05
-2.30882e-05
3.67595e-05
-4.06545e-05
3.51225e-05
-5.72562e-05
3.31896e-05
-7.27901e-05
3.10522e-05
-8.72059e-05
2.88222e-05
-0.000100457
2.65035e-05
-0.000112526
2.41425e-05
-0.000123481
2.19168e-05
-0.000133324
1.96649e-05
-0.00014205
1.74488e-05
-0.000149766
1.5429e-05
-0.000156453
1.33658e-05
-0.000162194
1.14821e-05
-0.000167025
9.65563e-06
-0.000170996
7.94409e-06
-0.000174136
6.26912e-06
-0.000176492
4.70137e-06
-0.000178072
3.14944e-06
-0.00017893
1.71485e-06
-0.000179082
3.12172e-07
-0.000178538
-1.09208e-06
-0.000177299
-2.48367e-06
-0.000175525
-3.55875e-06
-0.000173004
-5.07445e-06
-0.000169966
-6.05414e-06
-0.000166217
-7.51407e-06
-0.000161906
-8.61753e-06
-0.000156914
-1.00013e-05
-0.000151317
-1.11917e-05
-0.000145002
-1.26496e-05
-0.000137991
-1.40251e-05
-0.000130237
-1.55806e-05
-0.000121726
-1.69601e-05
-0.000112318
-1.87519e-05
-0.000102224
-2.02696e-05
-9.11706e-05
-2.20953e-05
-7.92438e-05
-2.38663e-05
-6.64328e-05
-2.56192e-05
-5.27291e-05
-2.74656e-05
-3.82074e-05
-2.89665e-05
-2.28683e-05
-3.06617e-05
-6.76011e-06
-3.22133e-05
9.84139e-06
-3.31971e-05
2.70499e-05
-3.43897e-05
4.45985e-05
-3.50935e-05
6.23777e-05
-3.55391e-05
8.01611e-05
-3.55537e-05
9.77335e-05
-3.5134e-05
0.000114897
-3.42909e-05
0.000131319
-3.28248e-05
0.000146802
-3.09349e-05
0.000161039
-2.8454e-05
0.000173785
-2.54892e-05
0.000184759
-2.19223e-05
0.000193775
-1.80153e-05
0.000200618
-1.36703e-05
0.000205123
-9.00194e-06
0.000207193
-4.12617e-06
0.000206788
8.11063e-07
0.00020386
5.87208e-06
0.000198372
1.09613e-05
0.000190564
1.56223e-05
0.000180513
2.00905e-05
0.000168462
2.40895e-05
0.000154635
2.76521e-05
0.000139264
3.06975e-05
0.000122644
3.32505e-05
0.000105072
3.51312e-05
8.68235e-05
3.64805e-05
6.82123e-05
3.72054e-05
4.94832e-05
3.74491e-05
3.08081e-05
3.73383e-05
1.24778e-05
3.66472e-05
-5.34509e-06
3.56418e-05
-2.25151e-05
3.43346e-05
-3.88973e-05
3.27503e-05
-5.44175e-05
3.10316e-05
-6.90039e-05
2.91652e-05
-8.25772e-05
2.71418e-05
-9.5135e-05
2.5115e-05
-0.000106664
2.30561e-05
-0.000117206
2.10781e-05
-0.0001268
1.91639e-05
-0.000135478
1.73748e-05
-0.000143209
1.54537e-05
-0.00015004
1.36582e-05
-0.000156057
1.20286e-05
-0.000161297
1.04773e-05
-0.000165871
9.14094e-06
-0.000169753
7.74881e-06
-0.000172992
6.48006e-06
-0.000175524
5.05745e-06
-0.000177352
3.65294e-06
-0.000178434
2.15656e-06
-0.00017883
7.91676e-07
-0.000178498
-6.78877e-07
-0.000177534
-1.92662e-06
-0.000175979
-3.10598e-06
-0.000173899
-4.17698e-06
-0.000171268
-5.22282e-06
-0.000168247
-6.08155e-06
-0.000164591
-7.32026e-06
-0.000160339
-8.51212e-06
-0.00015536
-9.96405e-06
-0.000149615
-1.14735e-05
-0.000143086
-1.30794e-05
-0.0001357
-1.47635e-05
-0.000127462
-1.64811e-05
-0.000118398
-1.81268e-05
-0.000108439
-1.99113e-05
-9.78019e-05
-2.12743e-05
-8.62919e-05
-2.30188e-05
-7.39983e-05
-2.45948e-05
-6.09494e-05
-2.60797e-05
-4.71219e-05
-2.7604e-05
-3.26727e-05
-2.89307e-05
-1.75427e-05
-3.02404e-05
-1.82573e-06
-3.14258e-05
1.43914e-05
-3.24255e-05
3.10055e-05
-3.31955e-05
4.7807e-05
-3.35875e-05
6.46947e-05
-3.3764e-05
8.14863e-05
-3.35686e-05
9.7987e-05
-3.29869e-05
0.000113904
-3.18138e-05
0.000129044
-3.02624e-05
0.000143116
-2.81314e-05
0.000155902
-2.55565e-05
0.000167073
-2.23275e-05
0.00017649
-1.8801e-05
0.000183871
-1.47384e-05
0.000189041
-1.03443e-05
0.000191892
-5.68722e-06
0.000192335
-8.96918e-07
0.00019027
4.11483e-06
0.000185722
9.0911e-06
0.000178753
1.39387e-05
0.000169512
1.84653e-05
0.000158147
2.27186e-05
0.000144871
2.65409e-05
0.000129923
2.98806e-05
0.000113607
3.26029e-05
9.61839e-05
3.48305e-05
7.79933e-05
3.6365e-05
5.93523e-05
3.72794e-05
4.05946e-05
3.7534e-05
2.1866e-05
3.74247e-05
3.5199e-06
3.66668e-05
-1.43213e-05
3.57044e-05
-3.1483e-05
3.43142e-05
-4.78683e-05
3.27736e-05
-6.3358e-05
3.09798e-05
-7.79191e-05
2.91333e-05
-9.15533e-05
2.72604e-05
-0.000104143
2.51609e-05
-0.000115764
2.32775e-05
-0.000126417
2.12913e-05
-0.000136055
1.92846e-05
-0.000144754
1.73979e-05
-0.000152524
1.55393e-05
-0.000159432
1.38159e-05
-0.000165459
1.20582e-05
-0.000170708
1.0504e-05
-0.000175251
9.10595e-06
-0.00017903
7.54679e-06
-0.000182059
6.0579e-06
-0.000184461
4.80509e-06
-0.000186251
3.59174e-06
-0.00018731
2.11594e-06
-0.000187807
9.98008e-07
-0.000187628
-3.54986e-07
-0.000186848
-1.56009e-06
-0.000185317
-3.05727e-06
-0.00018325
-4.14131e-06
-0.000180405
-5.69118e-06
-0.000176825
-7.16451e-06
-0.000172464
-8.72179e-06
-0.000167244
-1.0442e-05
-0.000161065
-1.23548e-05
-0.000154088
-1.39518e-05
-0.000146373
-1.54296e-05
-0.000137863
-1.70147e-05
-0.00012871
-1.83051e-05
-0.000119081
-1.92585e-05
-0.000108759
-2.06401e-05
-9.79571e-05
-2.16015e-05
-8.64708e-05
-2.29764e-05
-7.42796e-05
-2.43839e-05
-6.15462e-05
-2.5467e-05
-4.8015e-05
-2.70666e-05
-3.36812e-05
-2.86652e-05
-1.86429e-05
-3.00778e-05
-2.66028e-06
-3.19854e-05
1.4096e-05
-3.34744e-05
3.13717e-05
-3.45436e-05
4.9228e-05
-3.57001e-05
6.72842e-05
-3.60997e-05
8.55073e-05
-3.64331e-05
0.000103619
-3.62109e-05
0.000121166
-3.50766e-05
0.000137931
-3.35165e-05
0.000153708
-3.15358e-05
0.000168017
-2.86093e-05
0.00018073
-2.54066e-05
0.000191509
-2.15422e-05
0.000200229
-1.74394e-05
0.000206661
-1.28493e-05
0.000210596
-7.86634e-06
0.000212145
-3.08613e-06
0.000211062
2.14866e-06
0.000207313
7.48684e-06
0.000201275
1.20674e-05
0.000192911
1.67216e-05
0.000182722
2.03688e-05
0.000170723
2.39857e-05
0.000157301
2.68307e-05
0.0001426
2.93879e-05
0.000127131
3.09273e-05
0.000110846
3.25574e-05
9.43255e-05
3.30252e-05
7.7554e-05
3.35436e-05
6.08911e-05
3.33089e-05
4.44507e-05
3.2876e-05
2.83251e-05
3.22415e-05
1.28308e-05
3.09913e-05
-2.31621e-06
3.02855e-05
-1.68066e-05
2.89794e-05
-3.06354e-05
2.76553e-05
-4.38228e-05
2.63733e-05
-5.63345e-05
2.50221e-05
-6.81615e-05
2.36506e-05
-7.93293e-05
2.23335e-05
-8.98168e-05
2.09785e-05
-9.96737e-05
1.97068e-05
-0.000108863
1.83809e-05
-0.000117383
1.70371e-05
-0.000125249
1.57286e-05
-0.000132447
1.43922e-05
-0.000138954
1.30158e-05
-0.000144764
1.1623e-05
-0.00014986
1.01893e-05
-0.000154225
8.7285e-06
-0.000157838
7.22739e-06
-0.000160692
5.71001e-06
-0.000162768
4.15218e-06
-0.000164064
2.5897e-06
-0.000164544
9.62542e-07
-0.000164133
-8.21564e-07
-0.000162844
-2.5768e-06
-0.000160694
-4.29965e-06
-0.000157686
-6.01412e-06
-0.000153791
-7.78924e-06
-0.000149048
-9.48566e-06
-1.12114e-05
8.57112e-05
-5.60721e-05
0.000104296
-5.56933e-05
0.000122294
-5.39259e-05
0.000139387
-5.12075e-05
0.000155517
-4.83179e-05
0.000170298
-4.42773e-05
0.000183578
-3.9757e-05
0.00019502
-3.42676e-05
0.000204443
-2.82078e-05
0.000211627
-2.14818e-05
0.000216398
-1.42906e-05
0.000218705
-6.90751e-06
0.000218399
8.11981e-07
0.000215439
8.78898e-06
0.000210046
1.61402e-05
0.000202218
2.34565e-05
0.000192036
3.05037e-05
0.000179935
3.62639e-05
0.000165979
4.18152e-05
0.0001504
4.66927e-05
0.000133554
5.0471e-05
0.000115742
5.33654e-05
9.70489e-05
5.60587e-05
7.79279e-05
5.72918e-05
5.85896e-05
5.79794e-05
3.9248e-05
5.79713e-05
2.02209e-05
5.70228e-05
1.52769e-06
5.60604e-05
-1.65828e-05
5.43031e-05
-3.40315e-05
5.23189e-05
-5.06534e-05
4.98434e-05
-6.63825e-05
4.71711e-05
-8.11647e-05
4.43345e-05
-9.49515e-05
4.13537e-05
-0.000107764
3.84339e-05
-0.000119564
3.53939e-05
-0.000130374
3.24296e-05
-0.000140211
2.95146e-05
-0.00014912
2.67238e-05
-0.000157101
2.39426e-05
-0.000164196
2.12834e-05
-0.000170439
1.87353e-05
-0.000175853
1.62435e-05
-0.000180474
1.38595e-05
-0.000184306
1.14979e-05
-0.000187388
9.24405e-06
-0.000189716
6.9739e-06
-0.000191282
4.70357e-06
-0.000192147
2.60264e-06
-0.000192226
2.74387e-07
-0.000191478
-2.2347e-06
-0.000189986
-4.49321e-06
-0.000187581
-7.20478e-06
-0.000184449
-9.40572e-06
-0.000180489
-1.18824e-05
-0.000175599
-1.46799e-05
-0.000169861
-1.72147e-05
-0.000163267
-1.98014e-05
-0.000155677
-2.2753e-05
-0.000147203
-2.54301e-05
-0.000137707
-2.8508e-05
-0.000127116
-3.17584e-05
-0.000115688
-3.42897e-05
-0.000103239
-3.7339e-05
-8.97987e-05
-4.03044e-05
-7.56085e-05
-4.25719e-05
-6.04117e-05
-4.55834e-05
-4.45701e-05
-4.74928e-05
-2.79451e-05
-4.98443e-05
-1.05544e-05
-5.2144e-05
7.1389e-06
-5.30647e-05
2.52298e-05
-5.42537e-05
4.35754e-05
-5.50037e-05
6.18776e-05
-5.48788e-05
8.00965e-05
-5.46283e-05
9.79579e-05
-5.3529e-05
0.000115326
-5.20695e-05
0.000132077
-5.0204e-05
0.000147823
-4.71968e-05
0.000162513
-4.39946e-05
0.000175864
-4.00409e-05
0.00018757
-3.50631e-05
0.000197717
-3.03803e-05
0.000205909
-2.45563e-05
0.000212216
-1.88313e-05
0.000216287
-1.21966e-05
0.000218055
-5.26123e-06
0.000217515
1.61705e-06
0.000214417
9.26949e-06
0.000208855
1.67409e-05
0.000200794
2.41136e-05
0.000190453
3.09873e-05
0.000178007
3.7274e-05
0.0001637
4.28546e-05
0.000147756
4.77548e-05
0.00013048
5.17292e-05
0.000112148
5.48964e-05
9.30557e-05
5.71941e-05
7.34121e-05
5.88213e-05
5.35759e-05
5.94064e-05
3.37391e-05
5.9447e-05
1.4178e-05
5.85992e-05
-4.90787e-06
5.7195e-05
-2.3307e-05
5.51586e-05
-4.08722e-05
5.26878e-05
-5.7512e-05
4.98294e-05
-7.30558e-05
4.6596e-05
-8.74746e-05
4.32409e-05
-0.00010073
3.97592e-05
-0.000112807
3.62195e-05
-0.00012374
3.28495e-05
-0.000133604
2.95286e-05
-0.000142336
2.61809e-05
-0.00015004
2.31327e-05
-0.000156735
2.00608e-05
-0.000162421
1.71689e-05
-0.000167305
1.45388e-05
-0.000171274
1.19135e-05
-0.00017442
9.41488e-06
-0.000176758
7.03984e-06
-0.000178341
4.73188e-06
-0.000179191
2.56505e-06
-0.000179343
4.63766e-07
-0.000178806
-1.62847e-06
-0.000177565
-3.72463e-06
-0.000175786
-5.33768e-06
-0.000173289
-7.57153e-06
-0.000170237
-9.10694e-06
-0.000166497
-1.12538e-05
-0.000162183
-1.29309e-05
-0.000157193
-1.49917e-05
-0.000151593
-1.67913e-05
-0.000145292
-1.89511e-05
-0.000138295
-2.1022e-05
-0.000130569
-2.3307e-05
-0.000122041
-2.54876e-05
-0.000112639
-2.8154e-05
-0.000102544
-3.03645e-05
-9.14866e-05
-3.3153e-05
-7.95719e-05
-3.5781e-05
-6.67436e-05
-3.84475e-05
-5.30585e-05
-4.11507e-05
-3.85113e-05
-4.35137e-05
-2.3128e-05
-4.6045e-05
-7.09723e-06
-4.82441e-05
9.57835e-06
-4.98727e-05
2.68164e-05
-5.16278e-05
4.4371e-05
-5.26481e-05
6.21699e-05
-5.3338e-05
7.99705e-05
-5.33544e-05
9.75621e-05
-5.27256e-05
0.00011474
-5.14685e-05
0.000131199
-4.92846e-05
0.000146709
-4.64442e-05
0.000160985
-4.27305e-05
0.000173741
-3.82445e-05
0.000184746
-3.29279e-05
0.000193775
-2.70447e-05
0.000200621
-2.05158e-05
0.000205141
-1.35222e-05
0.000207225
-6.20994e-06
0.000206799
1.23699e-06
0.000203863
8.80722e-06
0.000198374
1.64504e-05
0.000190547
2.34499e-05
0.000180481
3.0156e-05
0.000168414
3.61563e-05
0.000154568
4.14986e-05
0.000139155
4.61105e-05
0.000122521
4.98843e-05
0.000104926
5.27263e-05
8.66639e-05
5.47422e-05
6.80384e-05
5.58309e-05
4.92594e-05
5.62281e-05
3.0573e-05
5.60248e-05
1.22271e-05
5.4993e-05
-5.59966e-06
5.34685e-05
-2.27823e-05
5.15173e-05
-3.91848e-05
4.91527e-05
-5.46584e-05
4.65052e-05
-6.92691e-05
4.37759e-05
-8.28706e-05
4.07434e-05
-9.54267e-05
3.76711e-05
-0.000106954
3.45836e-05
-0.000117506
3.16299e-05
-0.000127108
2.87657e-05
-0.000135735
2.60021e-05
-0.000143497
2.32159e-05
-0.000150333
2.04939e-05
-0.000156342
1.80373e-05
-0.000161583
1.5719e-05
-0.000166141
1.36989e-05
-0.000170032
1.16396e-05
-0.000173268
9.71592e-06
-0.000175815
7.6049e-06
-0.00017764
5.4772e-06
-0.000178724
3.24108e-06
-0.000179119
1.18687e-06
-0.000178804
-9.94389e-07
-0.000177826
-2.90469e-06
-0.000176203
-4.72836e-06
-0.000174173
-6.20764e-06
-0.000171569
-7.82686e-06
-0.000168531
-9.11931e-06
-0.000164878
-1.09726e-05
-0.000160633
-1.27573e-05
-0.000155665
-1.49326e-05
-0.00014985
-1.72886e-05
-0.000143395
-1.95343e-05
-0.000136002
-2.21556e-05
-0.00012777
-2.47138e-05
-0.000118702
-2.71951e-05
-0.0001088
-2.98127e-05
-9.80929e-05
-3.19815e-05
-8.65854e-05
-3.45264e-05
-7.42936e-05
-3.68866e-05
-6.12339e-05
-3.91394e-05
-4.73546e-05
-4.14833e-05
-3.29329e-05
-4.33524e-05
-1.77844e-05
-4.53889e-05
-2.06104e-06
-4.71492e-05
1.4166e-05
-4.86525e-05
3.07868e-05
-4.98164e-05
4.76012e-05
-5.04019e-05
6.45083e-05
-5.06712e-05
8.13211e-05
-5.03813e-05
9.783e-05
-4.94958e-05
0.000113781
-4.77651e-05
0.000128943
-4.54242e-05
0.00014304
-4.22282e-05
0.000155834
-3.83504e-05
0.000167035
-3.35289e-05
0.000176454
-2.82205e-05
0.000183862
-2.21462e-05
0.000189069
-1.55516e-05
0.000191923
-8.54083e-06
0.00019232
-1.294e-06
0.000190251
6.18312e-06
0.000185707
1.36353e-05
0.000178741
2.09043e-05
0.000169468
2.77383e-05
0.000158086
3.41006e-05
0.000144791
3.98356e-05
0.000129835
4.48363e-05
0.000113469
4.89691e-05
9.60274e-05
5.22718e-05
7.78189e-05
5.45733e-05
5.91728e-05
5.59254e-05
4.0351e-05
5.63559e-05
2.1662e-05
5.61136e-05
3.29585e-06
5.50329e-05
-1.45162e-05
5.35165e-05
-3.16861e-05
5.14841e-05
-4.8061e-05
4.91485e-05
-6.35546e-05
4.64735e-05
-7.8111e-05
4.36898e-05
-9.17514e-05
4.0901e-05
-0.000104346
3.7756e-05
-0.000115936
3.48674e-05
-0.000126586
3.19411e-05
-0.000136214
2.8913e-05
-0.000144915
2.60993e-05
-0.000152669
2.32933e-05
-0.000159568
2.07144e-05
-0.000165592
1.80832e-05
-0.000170829
1.57408e-05
-0.000175343
1.36197e-05
-0.000179141
1.13451e-05
-0.000182158
9.0757e-06
-0.000184555
7.20164e-06
-0.000186328
5.36538e-06
-0.00018739
3.17723e-06
-0.000187875
1.48301e-06
-0.000187684
-5.45496e-07
-0.000186909
-2.3355e-06
-0.000185373
-4.59318e-06
-0.000183307
-6.2069e-06
-0.000180468
-8.53046e-06
-0.000176898
-1.07342e-05
-0.000172535
-1.3085e-05
-0.000167315
-1.56616e-05
-0.000161129
-1.85414e-05
-0.000154151
-2.09297e-05
-0.000146438
-2.31427e-05
-0.000137922
-2.55303e-05
-0.00012876
-2.74666e-05
-0.000119131
-2.8888e-05
-0.000108807
-3.09641e-05
-9.80083e-05
-3.24002e-05
-8.65249e-05
-3.44597e-05
-7.43371e-05
-3.65717e-05
-6.16106e-05
-3.81936e-05
-4.80842e-05
-4.0593e-05
-3.3746e-05
-4.30035e-05
-1.87146e-05
-4.51092e-05
-2.75549e-06
-4.79446e-05
1.40412e-05
-5.02712e-05
3.13296e-05
-5.1832e-05
4.92062e-05
-5.35768e-05
6.72781e-05
-5.41717e-05
8.55212e-05
-5.46762e-05
0.000103656
-5.43453e-05
0.00012123
-5.26513e-05
0.000138018
-5.03041e-05
0.000153824
-4.73423e-05
0.000168153
-4.29378e-05
0.000180889
-3.81425e-05
0.000191691
-3.23451e-05
0.000200426
-2.61735e-05
0.000206877
-1.93009e-05
0.000210813
-1.18019e-05
0.000212365
-4.63861e-06
0.000211252
3.26124e-06
0.000207497
1.12421e-05
0.000201435
1.81295e-05
0.000193069
2.50878e-05
0.000182861
3.05761e-05
0.000170841
3.60063e-05
0.000157398
4.02734e-05
0.000142674
4.41116e-05
0.000127184
4.64174e-05
0.000110883
4.88591e-05
9.43299e-05
4.95778e-05
7.75716e-05
5.03019e-05
6.0871e-05
5.00094e-05
4.44246e-05
4.93223e-05
2.82836e-05
4.83825e-05
1.27792e-05
4.64958e-05
-2.36967e-06
4.54343e-05
-1.68622e-05
4.34719e-05
-3.0692e-05
4.1485e-05
-4.38803e-05
3.95617e-05
-5.63923e-05
3.7534e-05
-6.82172e-05
3.54755e-05
-7.93862e-05
3.35025e-05
-8.98748e-05
3.14671e-05
-9.97283e-05
2.95604e-05
-0.000108921
2.75739e-05
-0.000117442
2.55579e-05
-0.000125309
2.35956e-05
-0.000132507
2.15904e-05
-0.000139016
1.95248e-05
-0.000144829
1.74356e-05
-0.000149923
1.52833e-05
-0.000154287
1.30923e-05
-0.0001579
1.08403e-05
-0.000160754
8.56416e-06
-0.000162833
6.2313e-06
-0.000164132
3.88889e-06
-0.000164609
1.43932e-06
-0.000164199
-1.23157e-06
-0.00016291
-3.86571e-06
-0.000160759
-6.45024e-06
-0.000157752
-9.02146e-06
-0.000153857
-1.16843e-05
-0.000149114
-1.42288e-05
-1.68175e-05
8.57541e-05
-7.4806e-05
0.000104375
-7.43148e-05
0.000122415
-7.19655e-05
0.000139552
-6.8345e-05
0.000155727
-6.44922e-05
0.000170555
-5.91056e-05
0.000183882
-5.30839e-05
0.000195363
-4.57487e-05
0.00020482
-3.76649e-05
0.000212036
-2.8698e-05
0.000216821
-1.90755e-05
0.00021913
-9.21689e-06
0.000218751
1.19131e-06
0.000215745
1.17943e-05
0.000210323
2.15629e-05
0.000202479
3.13001e-05
0.000192273
4.071e-05
0.000180149
4.83879e-05
0.000166161
5.58025e-05
0.000150557
6.22968e-05
0.000133675
6.73533e-05
0.00011582
7.12202e-05
9.71072e-05
7.47715e-05
7.7953e-05
7.64459e-05
5.8595e-05
7.73374e-05
3.92239e-05
7.73424e-05
2.01619e-05
7.60847e-05
1.45627e-06
7.47661e-05
-1.66736e-05
7.24329e-05
-3.41387e-05
6.9784e-05
-5.07741e-05
6.64788e-05
-6.65109e-05
6.29079e-05
-8.12987e-05
5.91222e-05
-9.50919e-05
5.51469e-05
-0.000107905
5.12475e-05
-0.000119706
4.71947e-05
-0.000130518
4.3241e-05
-0.000140354
3.93508e-05
-0.00014926
3.56298e-05
-0.00015724
3.1923e-05
-0.000164336
2.83794e-05
-0.000170575
2.49736e-05
-0.000175988
2.16571e-05
-0.00018061
1.84812e-05
-0.000184442
1.533e-05
-0.000187522
1.23244e-05
-0.000189858
9.3094e-06
-0.000191421
6.26715e-06
-0.000192276
3.45757e-06
-0.000192328
3.25807e-07
-0.00019157
-2.99233e-06
-0.000190087
-5.97611e-06
-0.000187678
-9.61453e-06
-0.00018455
-1.25335e-05
-0.000180591
-1.58416e-05
-0.000175708
-1.95627e-05
-0.000169971
-2.29512e-05
-0.000163387
-2.63857e-05
-0.000155789
-3.03514e-05
-0.00014732
-3.38991e-05
-0.000137797
-3.80305e-05
-0.00012724
-4.23162e-05
-0.000115817
-4.57118e-05
-0.000103366
-4.97904e-05
-8.99174e-05
-5.37531e-05
-7.57176e-05
-5.67717e-05
-6.05168e-05
-6.07842e-05
-4.4662e-05
-6.33476e-05
-2.80195e-05
-6.64868e-05
-1.06142e-05
-6.95494e-05
7.08274e-06
-7.07617e-05
2.5187e-05
-7.23581e-05
4.35489e-05
-7.33656e-05
6.18675e-05
-7.31975e-05
8.00989e-05
-7.28597e-05
9.79924e-05
-7.14225e-05
0.000115382
-6.94593e-05
0.000132161
-6.69824e-05
0.000147919
-6.29548e-05
0.000162657
-5.87331e-05
0.000176006
-5.33897e-05
0.000187754
-4.68107e-05
0.000197918
-4.05436e-05
0.000206121
-3.27589e-05
0.000212462
-2.51726e-05
0.000216526
-1.62594e-05
0.00021831
-7.04452e-06
0.000217749
2.17791e-06
0.000214636
1.23837e-05
0.000209087
2.22905e-05
0.000200966
3.22345e-05
0.000190592
4.1362e-05
0.000178107
4.97599e-05
0.000163758
5.72035e-05
0.000147806
6.37078e-05
0.000130436
6.90993e-05
0.000112046
7.3287e-05
9.28721e-05
7.63677e-05
7.32164e-05
7.84771e-05
5.33285e-05
7.92944e-05
3.3463e-05
7.93126e-05
1.38545e-05
7.82078e-05
-5.25809e-06
7.63075e-05
-2.36447e-05
7.35452e-05
-4.12584e-05
7.03014e-05