/*--------------------------------*- C++ -*----------------------------------*\
| =========                 |                                                 |
| \\      /  F ield         | OpenFOAM: The Open Source CFD Toolbox           |
|  \\    /   O peration     | Version:  3.0.1                                 |
|   \\  /    A nd           | Web:      www.OpenFOAM.org                      |
|    \\/     M anipulation  |                                                 |
\*---------------------------------------------------------------------------*/
FoamFile
{
    version     2.0;
    format      ascii;
    class       surfaceScalarField;
    location    "59.4";
    object      phi;
}
// * * * * * * * * * * * * * * * * * * * * * * * * * * * * * * * * * * * * * //

dimensions      [0 3 -1 0 0 0 0];

internalField   nonuniform List<scalar> 
42423
(
-0.000127488
-7.36545e-06
-0.000119074
-8.41367e-06
-0.000109756
-9.31773e-06
-9.95019e-05
-1.02544e-05
-8.80616e-05
-1.14403e-05
-7.57793e-05
-1.22824e-05
-6.22837e-05
-1.34956e-05
-4.78793e-05
-1.44044e-05
-3.27051e-05
-1.51742e-05
-1.65294e-05
-1.61757e-05
4.61022e-07
-1.69904e-05
1.80322e-05
-1.75712e-05
3.62691e-05
-1.82369e-05
5.49045e-05
-1.86354e-05
7.38941e-05
-1.89896e-05
9.30116e-05
-1.91176e-05
0.000111861
-1.88493e-05
0.000130322
-1.84613e-05
0.000148189
-1.78672e-05
0.000165052
-1.68624e-05
0.000180736
-1.56839e-05
0.000194999
-1.4263e-05
0.000207545
-1.25462e-05
0.000218232
-1.06871e-05
0.000226803
-8.57109e-06
0.000233052
-6.24873e-06
0.000236901
-3.84962e-06
0.000238301
-1.39959e-06
0.00023719
1.11101e-06
0.000233542
3.64761e-06
0.00022729
6.25178e-06
0.000218806
8.48444e-06
0.000208097
1.07088e-05
0.000195584
1.2513e-05
0.000181381
1.42034e-05
0.000165648
1.57331e-05
0.000148736
1.69111e-05
0.000130848
1.78884e-05
0.000112242
1.86064e-05
9.33311e-05
1.89104e-05
7.4257e-05
1.90741e-05
5.52063e-05
1.90507e-05
3.64049e-05
1.88014e-05
1.81977e-05
1.82072e-05
4.41256e-07
1.77564e-05
-1.65776e-05
1.70188e-05
-3.27503e-05
1.61727e-05
-4.8014e-05
1.52638e-05
-6.23515e-05
1.43375e-05
-7.56767e-05
1.33252e-05
-8.79853e-05
1.23086e-05
-9.92976e-05
1.13123e-05
-0.000109585
1.02874e-05
-0.000118913
9.32793e-06
-0.000127272
8.35875e-06
-0.000134706
7.43439e-06
-0.000141269
6.56276e-06
-0.000146942
5.67308e-06
-0.000151763
4.82146e-06
-0.000155814
4.0509e-06
-0.00015905
3.23538e-06
-0.000161561
2.51162e-06
-0.000163297
1.73529e-06
-0.000164296
9.99771e-07
-0.000164611
3.1467e-07
-0.00016419
-4.21161e-07
-0.00016294
-1.24955e-06
-0.000161045
-1.89484e-06
-0.00015829
-2.75588e-06
-0.000154763
-3.52613e-06
-0.000150485
-4.27873e-06
-0.000145353
-5.13189e-06
-0.000139389
-5.96358e-06
-0.000132686
-6.70319e-06
-0.000125095
-7.59128e-06
-0.000116717
-8.37768e-06
-0.000107413
-9.3038e-06
-9.73503e-05
-1.00631e-05
-8.64345e-05
-1.09158e-05
-7.4668e-05
-1.17665e-05
-6.2015e-05
-1.2653e-05
-4.86272e-05
-1.33878e-05
-3.45183e-05
-1.41089e-05
-1.95835e-05
-1.49348e-05
-3.91838e-06
-1.56651e-05
1.2374e-05
-1.62924e-05
2.93043e-05
-1.69304e-05
4.67854e-05
-1.74811e-05
6.46857e-05
-1.79003e-05
8.28697e-05
-1.81841e-05
0.00010108
-1.82101e-05
0.000119122
-1.80426e-05
0.000136704
-1.75816e-05
0.000153608
-1.6904e-05
0.000169578
-1.59705e-05
0.000184353
-1.47744e-05
0.000197683
-1.333e-05
0.000209366
-1.16828e-05
0.000219199
-9.83391e-06
0.000226978
-7.77893e-06
0.000232619
-5.64043e-06
0.000235976
-3.35729e-06
0.000236966
-9.90368e-07
0.000235573
1.39322e-06
0.00023172
3.85288e-06
0.000225407
6.31337e-06
0.000216816
8.59045e-06
0.000206064
1.07529e-05
0.00019332
1.27438e-05
0.000178796
1.45239e-05
0.000162693
1.61028e-05
0.00014526
1.74327e-05
0.0001268
1.84604e-05
0.000107633
1.91669e-05
8.80309e-05
1.96022e-05
6.82799e-05
1.9751e-05
4.86111e-05
1.96688e-05
2.93068e-05
1.93042e-05
1.05007e-05
1.88061e-05
-7.59002e-06
1.80907e-05
-2.48146e-05
1.72246e-05
-4.10834e-05
1.62688e-05
-5.63328e-05
1.52494e-05
-7.04931e-05
1.41602e-05
-8.35392e-05
1.30461e-05
-9.55447e-05
1.20056e-05
-0.00010636
1.08153e-05
-0.00011614
9.78001e-06
-0.000124804
8.66432e-06
-0.000132474
7.6692e-06
-0.00013907
6.59668e-06
-0.000144709
5.63915e-06
-0.00014953
4.82072e-06
-0.00015339
3.86014e-06
-0.000156527
3.13715e-06
-0.000158834
2.30691e-06
-0.000160472
1.63802e-06
-0.000161386
9.13555e-07
-0.000161723
3.37222e-07
-0.000161402
-3.20736e-07
-0.000160529
-8.73353e-07
-0.000159124
-1.40527e-06
-0.000157169
-1.95528e-06
-0.000154706
-2.46252e-06
-0.000151726
-2.98029e-06
-0.000148203
-3.52289e-06
-0.00014414
-4.06242e-06
-0.000139495
-4.64537e-06
-0.000134259
-5.23561e-06
-0.000128374
-5.88586e-06
-0.000121853
-6.52047e-06
-0.000114598
-7.25543e-06
-0.000106619
-7.97826e-06
-9.77791e-05
-8.84032e-06
-8.82941e-05
-9.48499e-06
-7.79259e-05
-1.03682e-05
-6.66894e-05
-1.12366e-05
-5.46182e-05
-1.20712e-05
-4.16759e-05
-1.29423e-05
-2.79449e-05
-1.3731e-05
-1.34143e-05
-1.45306e-05
1.75374e-06
-1.51681e-05
1.75413e-05
-1.57876e-05
3.38177e-05
-1.62765e-05
5.04247e-05
-1.6607e-05
6.72434e-05
-1.68187e-05
8.41018e-05
-1.68584e-05
0.000100794
-1.66922e-05
0.000117063
-1.62688e-05
0.000132695
-1.5632e-05
0.000147395
-1.47005e-05
0.000160932
-1.35366e-05
0.000172991
-1.20588e-05
0.00018336
-1.03691e-05
0.000191796
-8.43656e-06
0.000198116
-6.31962e-06
0.000202093
-3.97772e-06
0.000203637
-1.54337e-06
0.00020275
8.86701e-07
0.000199362
3.38801e-06
0.000193468
5.89435e-06
0.000185227
8.24078e-06
0.000174792
1.04354e-05
0.000162375
1.24169e-05
0.000148183
1.4192e-05
0.000132586
1.5597e-05
0.000115796
1.67893e-05
9.82077e-05
1.75887e-05
8.00511e-05
1.81565e-05
6.1599e-05
1.84521e-05
4.30959e-05
1.85031e-05
2.47602e-05
1.83358e-05
6.79288e-06
1.79673e-05
-1.05806e-05
1.73735e-05
-2.72545e-05
1.66739e-05
-4.31358e-05
1.58813e-05
-5.80411e-05
1.49053e-05
-7.19348e-05
1.38937e-05
-8.48751e-05
1.29403e-05
-9.67404e-05
1.18654e-05
-0.000107604
1.08635e-05
-0.000117398
9.79414e-06
-0.000126248
8.85016e-06
-0.000134205
7.95705e-06
-0.000141237
7.03169e-06
-0.0001475
6.2631e-06
-0.000152915
5.41485e-06
-0.000157593
4.67832e-06
-0.000161711
4.11811e-06
-0.000165092
3.3811e-06
-0.000167897
2.80471e-06
-0.000170025
2.12795e-06
-0.000171594
1.56861e-06
-0.000172538
9.44027e-07
-0.000172985
4.47277e-07
-0.000172843
-1.4232e-07
-0.000172247
-5.957e-07
-0.000171039
-1.20796e-06
-0.000169312
-1.72739e-06
-0.000167123
-2.18835e-06
-0.000164337
-2.7859e-06
-0.00016097
-3.36753e-06
-0.000156948
-4.0222e-06
-0.000152385
-4.5622e-06
-0.00014711
-5.27529e-06
-0.000141157
-5.9531e-06
-0.000134503
-6.65457e-06
-0.000127047
-7.45552e-06
-0.000118949
-8.09792e-06
-0.000110039
-8.91038e-06
-0.000100324
-9.7147e-06
-8.98298e-05
-1.04942e-05
-7.84916e-05
-1.13382e-05
-6.63583e-05
-1.21333e-05
-5.34187e-05
-1.29397e-05
-3.97891e-05
-1.36296e-05
-2.54341e-05
-1.4355e-05
-1.04171e-05
-1.50171e-05
5.13373e-06
-1.55508e-05
2.11522e-05
-1.60185e-05
3.74409e-05
-1.62887e-05
5.38936e-05
-1.64527e-05
7.02574e-05
-1.63638e-05
8.63928e-05
-1.61355e-05
0.000102039
-1.56461e-05
0.000116981
-1.49422e-05
0.000130901
-1.392e-05
0.000143603
-1.27016e-05
0.000154819
-1.12163e-05
0.00016431
-9.49098e-06
0.000171788
-7.47794e-06
0.000177141
-5.35358e-06
0.000180183
-3.04195e-06
0.00018083
-6.46236e-07
0.000178982
1.84735e-06
0.000174659
4.3231e-06
0.000167902
6.75665e-06
0.000158902
9.00025e-06
0.000147803
1.10991e-05
0.000134849
1.29543e-05
0.000120278
1.45703e-05
0.000104367
1.59113e-05
8.74438e-05
1.69233e-05
6.97978e-05
1.7646e-05
5.17522e-05
1.80456e-05
3.34917e-05
1.82605e-05
1.53614e-05
1.81303e-05
-2.35242e-06
1.77139e-05
-1.95979e-05
1.72454e-05
-3.60671e-05
1.64692e-05
-5.16735e-05
1.56064e-05
-6.63487e-05
1.46752e-05
-7.99376e-05
1.35889e-05
-9.24751e-05
1.25375e-05
-0.000103921
1.14456e-05
-0.000114139
1.02181e-05
-0.000123231
9.09232e-06
-0.000131137
7.90571e-06
-0.000137846
6.70902e-06
-0.000143457
5.61152e-06
-0.000148032
4.57507e-06
-0.000151637
3.60423e-06
-0.000154463
2.82635e-06
-0.000156534
2.07089e-06
-0.000157996
1.46173e-06
-0.000159031
1.03497e-06
-0.000159615
5.84308e-07
-0.000159786
1.7079e-07
-0.000159559
-2.26356e-07
-0.000158905
-6.53954e-07
-0.000158025
-8.80901e-07
-0.000156846
-1.1782e-06
-0.000155311
-1.53516e-06
-0.000153494
-1.81679e-06
-0.000151452
-2.04218e-06
-0.00014895
-2.50257e-06
-0.000146035
-2.91445e-06
-0.000142712
-3.3229e-06
-0.000138837
-3.87519e-06
-0.000134475
-4.36175e-06
-0.000129352
-5.12345e-06
-0.000123553
-5.79934e-06
-0.00011704
-6.51298e-06
-0.000109553
-7.48629e-06
-0.000101139
-8.41431e-06
-9.18247e-05
-9.31434e-06
-8.13353e-05
-1.04894e-05
-6.99107e-05
-1.14247e-05
-5.72016e-05
-1.2709e-05
-4.34129e-05
-1.37887e-05
-2.88013e-05
-1.46116e-05
-1.32967e-05
-1.55046e-05
3.14626e-06
-1.6443e-05
2.00557e-05
-1.69095e-05
3.75032e-05
-1.74475e-05
5.51497e-05
-1.76464e-05
7.28613e-05
-1.77117e-05
9.03998e-05
-1.75385e-05
0.000107357
-1.69574e-05
0.000123605
-1.62474e-05
0.000138871
-1.52666e-05
0.00015286
-1.3989e-05
0.000165376
-1.25157e-05
0.000176176
-1.08004e-05
0.000185129
-8.95269e-06
0.000192121
-6.99232e-06
0.000196968
-4.84687e-06
0.000199605
-2.63696e-06
0.000200086
-4.80953e-07
0.00019827
1.81545e-06
0.000194294
3.9762e-06
0.000188283
6.01153e-06
0.000180342
7.94032e-06
0.000170776
9.56642e-06
0.000159712
1.10643e-05
0.000147422
1.229e-05
0.000134031
1.33902e-05
0.000119748
1.4283e-05
0.000104831
1.49176e-05
8.9408e-05
1.54229e-05
7.37263e-05
1.56817e-05
5.79134e-05
1.58129e-05
4.19975e-05
1.59159e-05
2.62026e-05
1.57949e-05
1.06692e-05
1.55334e-05
-4.58197e-06
1.52512e-05
-1.94319e-05
1.48499e-05
-3.38544e-05
1.44225e-05
-4.77377e-05
1.38833e-05
-6.10246e-05
1.32869e-05
-7.36861e-05
1.26616e-05
-8.5654e-05
1.19679e-05
-9.69195e-05
1.12655e-05
-0.000107419
1.0499e-05
-0.000117116
9.69696e-06
-0.00012602
8.90438e-06
7.94273e-06
-0.000127526
-1.47267e-05
-0.000119115
-1.68245e-05
-0.0001098
-1.86328e-05
-9.95459e-05
-2.05089e-05
-8.81089e-05
-2.28773e-05
-7.58256e-05
-2.45657e-05
-6.23285e-05
-2.69927e-05
-4.7917e-05
-2.88161e-05
-3.2743e-05
-3.03482e-05
-1.65632e-05
-3.23556e-05
4.272e-07
-3.39809e-05
1.80065e-05
-3.51506e-05
3.62576e-05
-3.64881e-05
5.49169e-05
-3.72947e-05
7.39234e-05
-3.79961e-05
9.30493e-05
-3.82436e-05
0.000111896
-3.76965e-05
0.000130361
-3.69254e-05
0.000148241
-3.57481e-05
0.000165116
-3.37372e-05
0.000180813
-3.13808e-05
0.00019509
-2.854e-05
0.00020766
-2.51159e-05
0.000218351
-2.13784e-05
0.000226922
-1.71424e-05
0.000233181
-1.25081e-05
0.000237033
-7.70115e-06
0.000238434
-2.80087e-06
0.00023731
2.23534e-06
0.000233663
7.2948e-06
0.000227408
1.2506e-05
0.000218917
1.69759e-05
0.000208198
2.14278e-05
0.000195673
2.50374e-05
0.000181458
2.84187e-05
0.000165712
3.14795e-05
0.000148793
3.38302e-05
0.000130892
3.57889e-05
0.000112274
3.72249e-05
9.33496e-05
3.78344e-05
7.42689e-05
3.81548e-05
5.52075e-05
3.81121e-05
3.63939e-05
3.7615e-05
1.81745e-05
3.64265e-05
4.19283e-07
3.55117e-05
-1.66046e-05
3.40427e-05
-3.27826e-05
3.23507e-05
-4.80512e-05
3.05324e-05
-6.23925e-05
2.86787e-05
-7.57212e-05
2.66539e-05
-8.80334e-05
2.46209e-05
-9.9346e-05
2.26248e-05
-0.000109638
2.05795e-05
-0.000118968
1.86581e-05
-0.000127329
1.67191e-05
-0.000134766
1.48714e-05
-0.000141331
1.3128e-05
-0.000147005
1.13469e-05
-0.000151832
9.6485e-06
-0.000155879
8.0981e-06
-0.000159117
6.47346e-06
-0.000161632
5.02663e-06
-0.000163363
3.4659e-06
-0.000164361
1.99773e-06
-0.000164695
6.4904e-07
-0.000164257
-8.58909e-07
-0.000163007
-2.49979e-06
-0.000161114
-3.78792e-06
-0.000158357
-5.5127e-06
-0.000154831
-7.05193e-06
-0.00015054
-8.57019e-06
-0.000145401
-1.02711e-05
-0.000139445
-1.19195e-05
-0.000132749
-1.33986e-05
-0.000125157
-1.51834e-05
-0.000116778
-1.67574e-05
-0.000107493
-1.8588e-05
-9.74115e-05
-2.0145e-05
-8.6492e-05
-2.18354e-05
-7.47212e-05
-2.35373e-05
-6.20654e-05
-2.53089e-05
-4.8683e-05
-2.67702e-05
-3.45599e-05
-2.8232e-05
-1.96214e-05
-2.98733e-05
-3.94112e-06
-3.13455e-05
1.23583e-05
-3.25918e-05
2.9297e-05
-3.38691e-05
4.67926e-05
-3.49767e-05
6.46989e-05
-3.58067e-05
8.28923e-05
-3.63775e-05
0.000101116
-3.64341e-05
0.000119176
-3.61025e-05
0.000136772
-3.51771e-05
0.000153684
-3.38163e-05
0.000169658
-3.19448e-05
0.000184438
-2.95539e-05
0.000197773
-2.66656e-05
0.00020946
-2.33695e-05
0.000219309
-1.96833e-05
0.000227101
-1.5571e-05
0.000232736
-1.1275e-05
0.00023609
-6.71144e-06
0.000237086
-1.98691e-06
0.000235684
2.79584e-06
0.00023183
7.70638e-06
0.000225514
1.26297e-05
0.000216925
1.7179e-05
0.00020617
2.15083e-05
0.000193417
2.54962e-05
0.000178878
2.90638e-05
0.000162712
3.22685e-05
0.000145283
3.48612e-05
0.000126824
3.69201e-05
0.00010764
3.83501e-05
8.8017e-05
3.92256e-05
6.82513e-05
3.95167e-05
4.85729e-05
3.93473e-05
2.92433e-05
3.86338e-05
1.04229e-05
3.76266e-05
-7.67722e-06
3.61908e-05
-2.49135e-05
3.44609e-05
-4.11919e-05
3.25472e-05
-5.64363e-05
3.04938e-05
-7.0618e-05
2.8342e-05
-8.36684e-05
2.60965e-05
-9.5685e-05
2.40223e-05
-0.000106516
2.16464e-05
-0.000116295
1.9559e-05
-0.000124956
1.73252e-05
-0.000132625
1.53387e-05
-0.000139237
1.32085e-05
-0.000144871
1.12725e-05
-0.000149701
9.6512e-06
-0.000153574
7.73293e-06
-0.000156704
6.267e-06
-0.000159018
4.62084e-06
-0.000160647
3.26728e-06
-0.000161569
1.83538e-06
-0.000161898
6.66684e-07
-0.000161586
-6.33509e-07
-0.000160696
-1.76311e-06
-0.000159273
-2.82834e-06
-0.000157351
-3.8774e-06
-0.000154884
-4.92922e-06
-0.000151894
-5.9707e-06
-0.000148383
-7.03373e-06
-0.00014431
-8.13491e-06
-0.000139666
-9.28969e-06
-0.000134406
-1.04959e-05
-0.000128554
-1.1738e-05
-0.000122015
-1.30592e-05
-0.000114768
-1.45024e-05
-0.000106785
-1.59612e-05
-9.79624e-05
-1.76629e-05
-8.84498e-05
-1.89975e-05
-7.8068e-05
-2.07501e-05
-6.68314e-05
-2.24732e-05
-5.47424e-05
-2.41602e-05
-4.18055e-05
-2.58793e-05
-2.80621e-05
-2.74743e-05
-1.35313e-05
-2.90615e-05
1.66419e-06
-3.03636e-05
1.74537e-05
-3.15771e-05
3.37587e-05
-3.25815e-05
5.03655e-05
-3.32139e-05
6.71953e-05
-3.36485e-05
8.40681e-05
-3.37312e-05
0.000100773
-3.33975e-05
0.00011706
-3.25559e-05
0.000132698
-3.12701e-05
0.000147417
-2.94192e-05
0.00016098
-2.70997e-05
0.000173052
-2.4131e-05
0.000183435
-2.07517e-05
0.000191878
-1.68798e-05
0.000198204
-1.26459e-05
0.000202198
-7.97081e-06
0.000203758
-3.10413e-06
0.000202859
1.78576e-06
0.000199461
6.78614e-06
0.000193566
1.17894e-05
0.000185321
1.64853e-05
0.000174874
2.08825e-05
0.000162452
2.48388e-05
0.000148242
2.84019e-05
0.000132628
3.12119e-05
0.000115822
3.35949e-05
9.82119e-05
3.51987e-05
8.00287e-05
3.63397e-05
6.1557e-05
3.69239e-05
4.30372e-05
3.70228e-05
2.46996e-05
3.66734e-05
6.72488e-06
3.5942e-05
-1.06659e-05
3.47642e-05
-2.73639e-05
3.3372e-05
-4.323e-05
3.17474e-05
-5.81638e-05
2.98391e-05
-7.20631e-05
2.7793e-05
-8.50189e-05
2.58962e-05
-9.68925e-05
2.3739e-05
-0.000107755
2.17255e-05
-0.000117545
1.9585e-05
-0.0001264
1.77051e-05
-0.000134368
1.59248e-05
-0.000141397
1.40604e-05
-0.000147656
1.25219e-05
-0.000153082
1.08416e-05
-0.000157798
9.39422e-06
-0.000161883
8.20282e-06
-0.000165271
6.76946e-06
-0.000168074
5.60757e-06
-0.000170204
4.2581e-06
-0.000171774
3.13874e-06
-0.000172721
1.89069e-06
-0.000173162
8.88641e-07
-0.000173024
-2.80498e-07
-0.000172417
-1.20262e-06
-0.000171213
-2.41278e-06
-0.000169496
-3.44418e-06
-0.000167286
-4.39814e-06
-0.000164509
-5.56294e-06
-0.00016114
-6.73687e-06
-0.000157137
-8.02531e-06
-0.00015255
-9.14876e-06
-0.000147274
-1.05514e-05
-0.000141325
-1.19022e-05
-0.000134662
-1.33173e-05
-0.000127208
-1.49096e-05
-0.000119107
-1.61989e-05
-0.000110185
-1.78325e-05
-0.00010046
-1.94395e-05
-8.99582e-05
-2.09962e-05
-7.86273e-05
-2.26692e-05
-6.64791e-05
-2.42814e-05
-5.35231e-05
-2.58958e-05
-3.98951e-05
-2.72576e-05
-2.55342e-05
-2.8716e-05
-1.05066e-05
-3.00446e-05
5.06662e-06
-3.11241e-05
2.10873e-05
-3.20391e-05
3.73833e-05
-3.25848e-05
5.38609e-05
-3.29303e-05
7.02319e-05
-3.27348e-05
8.63782e-05
-3.22819e-05
0.000102033
-3.13011e-05
0.000116994
-2.99028e-05
0.000130935
-2.78616e-05
0.000143654
-2.54198e-05
0.000154874
-2.24366e-05
0.000164376
-1.89928e-05
0.000171877
-1.49795e-05
0.000177227
-1.07037e-05
0.000180275
-6.08955e-06
0.000180926
-1.29703e-06
0.000179064
3.7091e-06
0.000174731
8.65629e-06
0.000167965
1.35223e-05
0.000158956
1.80091e-05
0.000147841
2.22148e-05
0.000134873
2.5922e-05
0.000120299
2.91439e-05
0.00010438
3.18302e-05
8.74435e-05
3.386e-05
6.97812e-05
3.53083e-05
5.17227e-05
3.6104e-05
3.34658e-05
3.65174e-05
1.53202e-05
3.62759e-05
-2.40227e-06
3.54363e-05
-1.96483e-05
3.44915e-05
-3.61299e-05
3.29508e-05
-5.17373e-05
3.12138e-05
-6.64153e-05
2.93532e-05
-8.00078e-05
2.71814e-05
-9.25484e-05
2.50782e-05
-0.000103995
2.28918e-05
-0.000114215
2.04386e-05
-0.000123306
1.81831e-05
-0.000131214
1.5814e-05
-0.000137932
1.3427e-05
-0.00014354
1.12194e-05
-0.000148109
9.14416e-06
-0.000151707
7.20212e-06
-0.000154526
5.64587e-06
-0.000156597
4.14152e-06
-0.000158053
2.91775e-06
-0.000159084
2.06619e-06
-0.000159662
1.162e-06
-0.000159824
3.33267e-07
-0.000159606
-4.44668e-07
-0.00015895
-1.31044e-06
-0.000158067
-1.76347e-06
-0.000156893
-2.35244e-06
-0.000155343
-3.08515e-06
-0.000153538
-3.62144e-06
-0.0001515
-4.08085e-06
-0.000148977
-5.02479e-06
-0.000146073
-5.81892e-06
-0.000142757
-6.63886e-06
-0.000138885
-7.74701e-06
-0.000134526
-8.72105e-06
-0.000129404
-1.02449e-05
-0.000123607
-1.15972e-05
-0.000117098
-1.30219e-05
-0.000109613
-1.49714e-05
-0.000101199
-1.68274e-05
-9.18883e-05
-1.86255e-05
-8.14005e-05
-2.09772e-05
-6.99733e-05
-2.28518e-05
-5.72523e-05
-2.54301e-05
-4.34649e-05
-2.75762e-05
-2.88508e-05
-2.92257e-05
-1.33395e-05
-3.10159e-05
3.11193e-06
-3.28945e-05
2.00287e-05
-3.38263e-05
3.74871e-05
-3.49059e-05
5.51443e-05
-3.53037e-05
7.28689e-05
-3.54363e-05
9.04205e-05
-3.50901e-05
0.000107391
-3.39276e-05
0.000123652
-3.25088e-05
0.00013893
-3.05449e-05
0.000152933
-2.7992e-05
0.000165469
-2.50511e-05
0.00017629
-2.16213e-05
0.000185241
-1.79041e-05
0.000192228
-1.39788e-05
0.000197086
-9.70584e-06
0.000199742
-5.29227e-06
0.000200217
-9.55952e-07
0.000198375
3.65755e-06
0.000194393
7.95749e-06
0.000188376
1.20288e-05
0.000180428
1.58887e-05
0.000170852
1.91421e-05
0.000159777
2.21389e-05
0.000147479
2.45879e-05
0.000134081
2.67884e-05
0.000119789
2.85755e-05
0.000104862
2.98443e-05
8.94298e-05
3.0855e-05
7.37394e-05
3.1372e-05
5.79218e-05
3.16305e-05
4.19991e-05
3.18386e-05
2.61972e-05
3.15968e-05
1.06576e-05
3.1073e-05
-4.59381e-06
3.05025e-05
-1.9446e-05
2.97021e-05
-3.38712e-05
2.88477e-05
-4.77571e-05
2.77692e-05
-6.10461e-05
2.65758e-05
-7.37088e-05
2.53243e-05
-8.56773e-05
2.39365e-05
-9.69463e-05
2.25345e-05
-0.000107448
2.10011e-05
-0.000117146
1.93947e-05
-0.000126054
1.78124e-05
1.58852e-05
-0.000127597
-2.20859e-05
-0.000119188
-2.52329e-05
-0.000109876
-2.79451e-05
-9.96192e-05
-3.07655e-05
-8.81888e-05
-3.43078e-05
-7.59031e-05
-3.68514e-05
-6.24057e-05
-4.04901e-05
-4.7986e-05
-4.32358e-05
-3.28082e-05
-4.5526e-05
-1.6622e-05
-4.85418e-05
3.86069e-07
-5.09889e-05
1.79957e-05
-5.27602e-05
3.62568e-05
-5.47492e-05
5.49277e-05
-5.59656e-05
7.3943e-05
-5.70116e-05
9.30895e-05
-5.739e-05
0.000111956
-5.65634e-05
0.000130444
-5.54128e-05
0.000148349
-5.36537e-05
0.000165246
-5.06342e-05
0.000180968
-4.7103e-05
0.000195264
-4.28355e-05
0.000207844
-3.7696e-05
0.000218542
-3.20768e-05
0.000227136
-2.57363e-05
0.000233407
-1.87797e-05
0.000237256
-1.15501e-05
0.000238659
-4.20379e-06
0.000237503
3.39128e-06
0.000233848
1.09505e-05
0.000227589
1.87643e-05
0.000219087
2.54782e-05
0.000208354
3.21605e-05
0.000195809
3.75828e-05
0.000181571
4.26561e-05
0.000165801
4.72501e-05
0.000148868
5.07628e-05
0.000130947
5.37101e-05
0.00011231
5.5862e-05
9.33588e-05
5.67852e-05
7.4267e-05
5.72467e-05
5.51876e-05
5.71914e-05
3.63537e-05
5.64489e-05
1.8108e-05
5.46722e-05
3.58605e-07
5.3261e-05
-1.66739e-05
5.10751e-05
-3.28587e-05
4.85355e-05
-4.81336e-05
4.58073e-05
-6.24803e-05
4.30254e-05
-7.5811e-05
3.99847e-05
-8.81234e-05
3.69333e-05
-9.9433e-05
3.39344e-05
-0.000109725
3.08715e-05
-0.000119055
2.79883e-05
-0.000127414
2.5078e-05
-0.000134849
2.23059e-05
-0.000141417
1.96969e-05
-0.000147088
1.70178e-05
-0.000151915
1.44749e-05
-0.000155954
1.2137e-05
-0.000159189
9.70876e-06
-0.00016171
7.54726e-06
-0.000163441
5.19692e-06
-0.000164433
2.99002e-06
-0.000164755
9.71489e-07
-0.000164319
-1.29574e-06
-0.000163071
-3.74771e-06
-0.000161178
-5.68077e-06
-0.00015842
-8.27044e-06
-0.000154891
-1.0581e-05
-0.000150585
-1.28763e-05
-0.000145453
-1.54026e-05
-0.000139511
-1.78622e-05
-0.000132817
-2.00921e-05
-0.000125227
-2.27733e-05
-0.000116845
-2.51398e-05
-0.000107582
-2.78508e-05
-9.74842e-05
-3.0243e-05
-8.65608e-05
-3.27588e-05
-7.47923e-05
-3.53059e-05
-6.21331e-05
-3.79681e-05
-4.87574e-05
-4.01459e-05
-3.46257e-05
-4.23638e-05
-1.96833e-05
-4.48157e-05
-3.99317e-06
-4.70357e-05
1.2311e-05
-4.8896e-05
2.92565e-05
-5.08146e-05
4.67617e-05
-5.24819e-05
6.46774e-05
-5.37225e-05
8.2887e-05
-5.45871e-05
0.00010113
-5.46771e-05
0.000119202
-5.41742e-05
0.000136811
-5.2787e-05
0.000153736
-5.07407e-05
0.00016972
-4.79294e-05
0.000184507
-4.43408e-05
0.000197851
-4.00089e-05
0.000209554
-3.5073e-05
0.000219396
-2.95248e-05
0.000227199
-2.33748e-05
0.000232835
-1.69111e-05
0.000236197
-1.00733e-05
0.000237191
-2.98025e-06
0.000235754
4.2323e-06
0.000231877
1.15834e-05
0.000225634
1.8873e-05
0.000217036
2.57763e-05
0.000206255
3.22892e-05
0.000193454
3.82979e-05
0.000178845
4.3672e-05
0.000162677
4.8437e-05
0.000145234
5.23037e-05
0.000126811
5.5344e-05
0.000107551
5.76095e-05
8.7906e-05
5.88707e-05
6.81152e-05
5.93075e-05
4.8424e-05
5.90385e-05
2.906e-05
5.79978e-05
1.02333e-05
5.64533e-05
-7.8425e-06
5.42666e-05
-2.51067e-05
5.17251e-05
-4.13749e-05
4.88154e-05
-5.66526e-05
4.57715e-05
-7.08627e-05
4.25521e-05
-8.39054e-05
3.91392e-05
-9.59175e-05
3.60344e-05
-0.000106748
3.24767e-05
-0.000116527
2.93382e-05
-0.000125181
2.59795e-05
-0.000132829
2.29867e-05
-0.000139463
1.98426e-05
-0.000145143
1.69524e-05
-0.000149928
1.44366e-05
-0.000153806
1.16109e-05
-0.000156921
9.38136e-06
-0.000159237
6.93747e-06
-0.000160861
4.89131e-06
-0.000161792
2.76631e-06
-0.000162107
9.80852e-07
-0.000161788
-9.52058e-07
-0.000160916
-2.63548e-06
-0.000159437
-4.30676e-06
-0.000157557
-5.75775e-06
-0.000155084
-7.40216e-06
-0.000152043
-9.01169e-06
-0.000148585
-1.0492e-05
-0.000144503
-1.22166e-05
-0.000139872
-1.39202e-05
-0.00013457
-1.57985e-05
-0.000128775
-1.75332e-05
-0.000122229
-1.96052e-05
-0.000114985
-2.17458e-05
-0.000107005
-2.39412e-05
-9.82474e-05
-2.64208e-05
-8.86655e-05
-2.85795e-05
-7.82855e-05
-3.11301e-05
-6.70446e-05
-3.3714e-05
-5.49527e-05
-3.62521e-05
-4.20147e-05
-3.88174e-05
-2.8253e-05
-4.12361e-05
-1.37296e-05
-4.35848e-05
1.48521e-06
-4.55784e-05
1.72971e-05
-4.7389e-05
3.35965e-05
-4.8881e-05
5.02275e-05
-4.98449e-05
6.70677e-05
-5.04887e-05
8.39783e-05
-5.06419e-05
0.000100675
-5.00937e-05
0.000116987
-4.88688e-05
0.00013265
-4.69324e-05
0.000147394
-4.41641e-05
0.000160964
-4.06691e-05
0.000173068
-3.62352e-05
0.000183468
-3.11517e-05
0.000191936
-2.53479e-05
0.000198268
-1.89778e-05
0.000202279
-1.19817e-05
0.000203885
-4.71061e-06
0.000202934
2.73673e-06
0.000199521
1.01995e-05
0.000193606
1.77045e-05
0.000185344
2.47468e-05
0.000174894
3.13325e-05
0.000162461
3.7272e-05
0.000148251
4.26114e-05
0.000132576
4.68873e-05
0.000115764
5.04067e-05
9.81158e-05
5.28472e-05
7.99116e-05
5.4544e-05
6.14579e-05
5.53775e-05
4.28927e-05
5.5588e-05
2.45411e-05
5.5025e-05
6.54671e-06
5.39364e-05
-1.08609e-05
5.21719e-05
-2.75805e-05
5.00916e-05
-4.34269e-05
4.75938e-05
-5.8384e-05
4.47962e-05
-7.23173e-05
4.17263e-05
-8.52472e-05
3.88261e-05
-9.71206e-05
3.56124e-05
-0.000107981
3.25854e-05
-0.00011777
2.93742e-05
-0.000126613
2.65488e-05
-0.000134585
2.38962e-05
-0.000141628
2.11033e-05
-0.000147867
1.87612e-05
-0.000153302
1.62771e-05
-0.000158029
1.41203e-05
-0.000162091
1.22654e-05
-0.000165477
1.01554e-05
-0.000168282
8.41212e-06
-0.000170409
6.38583e-06
-0.000171974
4.70339e-06
-0.000172932
2.84908e-06
-0.000173361
1.31698e-06
-0.000173225
-4.16265e-07
-0.000172615
-1.81287e-06
-0.000171412
-3.61586e-06
-0.000169732
-5.12394e-06
-0.000167491
-6.6391e-06
-0.000164706
-8.3477e-06
-0.000161336
-1.01074e-05
-0.000157352
-1.20089e-05
-0.000152754
-1.37469e-05
-0.000147481
-1.5824e-05
-0.000141535
-1.78488e-05
-0.000134866
-1.99857e-05
-0.000127468
-2.23079e-05
-0.000119313
-2.43537e-05
-0.000110389
-2.67569e-05
-0.000100647
-2.91812e-05
-9.0148e-05
-3.14955e-05
-7.88244e-05
-3.39927e-05
-6.66865e-05
-3.64193e-05
-5.37234e-05
-3.8859e-05
-4.00856e-05
-4.08953e-05
-2.56969e-05
-4.31047e-05
-1.06779e-05
-4.50637e-05
4.89955e-06
-4.67016e-05
2.09274e-05
-4.8067e-05
3.72401e-05
-4.88975e-05
5.37372e-05
-4.94275e-05
7.01228e-05
-4.91204e-05
8.62951e-05
-4.84542e-05
0.000101975
-4.69807e-05
0.00011694
-4.48686e-05
0.000130914
-4.18351e-05
0.000143652
-3.81581e-05
0.000154897
-3.36817e-05
0.000164403
-2.84986e-05
0.000171929
-2.25058e-05
0.000177291
-1.60654e-05
0.000180352
-9.15118e-06
0.000180995
-1.93919e-06
0.000179112
5.59147e-06
0.000174775
1.29936e-05
0.000168007
2.02897e-05
0.000158991
2.70257e-05
0.000147863
3.3343e-05
0.000134882
3.89021e-05
0.000120293
4.37329e-05
0.000104351
4.77723e-05
8.74033e-05
5.08079e-05
6.97258e-05
5.29859e-05
5.16506e-05
5.41792e-05
3.34154e-05
5.47526e-05
1.52383e-05
5.44531e-05
-2.49686e-06
5.31714e-05
-1.97373e-05
5.1732e-05
-3.62387e-05
4.94522e-05
-5.18441e-05
4.68192e-05
-6.65264e-05
4.40354e-05
-8.01232e-05
4.07782e-05
-9.26671e-05
3.76221e-05
-0.000104113
3.43372e-05
-0.000114337
3.06628e-05
-0.000123425
2.72717e-05
-0.000131334
2.37223e-05
-0.000138068
2.0161e-05
-0.000143663
1.68148e-05
-0.000148217
1.3698e-05
-0.000151813
1.07986e-05
-0.00015462
8.4519e-06
-0.000156679
6.20103e-06
-0.000158121
4.35999e-06
-0.000159145
3.09006e-06
-0.000159707
1.72357e-06
-0.00015984
4.66115e-07
-0.000159635
-6.48818e-07
-0.000158974
-1.97201e-06
-0.000158089
-2.6485e-06
-0.000156912
-3.52881e-06
-0.000155353
-4.64433e-06
-0.000153563
-5.41161e-06
-0.000151525
-6.11868e-06
-0.000148988
-7.56248e-06
-0.000146094
-8.71299e-06
-0.000142788
-9.94449e-06
-0.000138924
-1.16106e-05
-0.000134571
-1.30743e-05
-0.000129456
-1.53599e-05
-0.000123664
-1.73894e-05
-0.000117163
-1.95229e-05
-0.000109685
-2.24494e-05
-0.000101277
-2.5235e-05
-9.19722e-05
-2.79306e-05
-8.14905e-05
-3.14589e-05
-7.00626e-05
-3.42798e-05
-5.73291e-05
-3.81636e-05
-4.35424e-05
-4.13629e-05
-2.89253e-05
-4.38428e-05
-1.34067e-05
-4.65346e-05
3.06532e-06
-4.93665e-05
1.99977e-05
-5.07587e-05
3.74769e-05
-5.23851e-05
5.51536e-05
-5.29804e-05
7.29017e-05
-5.31845e-05
9.04767e-05
-5.26651e-05
0.000107472
-5.09225e-05
0.000123758
-4.87955e-05
0.00013906
-4.58465e-05
0.000153085
-4.20177e-05
0.000165638
-3.7604e-05
0.000176469
-3.2452e-05
0.000185433
-2.68679e-05
0.000192438
-2.0984e-05
0.000197312
-1.45797e-05
0.000199957
-7.93759e-06
0.000200414
-1.41242e-06
0.00019854
5.53114e-06
0.000194547
1.19504e-05
0.000188519
1.80571e-05
0.000180556
2.38515e-05
0.000170964
2.87341e-05
0.000159871
3.32317e-05
0.000147554
3.69046e-05
0.00013415
4.01928e-05
0.000119842
4.28831e-05
0.000104901
4.47853e-05
8.94552e-05
4.63009e-05
7.375e-05
4.70772e-05
5.79259e-05
4.74546e-05
4.19932e-05
4.77713e-05
2.61818e-05
4.74081e-05
1.06309e-05
4.66239e-05
-4.62502e-06
4.57585e-05
-1.94819e-05
4.4559e-05
-3.39114e-05
4.32772e-05
-4.78007e-05
4.16586e-05
-6.10928e-05
3.98679e-05
-7.37592e-05
3.79906e-05
-8.57316e-05
3.59089e-05
-9.70034e-05
3.38064e-05
-0.000107509
3.15062e-05
-0.00011721
2.90962e-05
-0.000126123
2.67257e-05
2.38265e-05
-0.000127702
-2.94422e-05
-0.000119298
-3.36378e-05
-0.000109989
-3.72534e-05
-9.97296e-05
-4.10253e-05
-8.83097e-05
-4.57278e-05
-7.60193e-05
-4.91417e-05
-6.25215e-05
-5.3988e-05
-4.80895e-05
-5.76678e-05
-3.2906e-05
-6.07095e-05
-1.67099e-05
-6.47379e-05
3.2481e-07
-6.80237e-05
1.79668e-05
-7.04022e-05
3.62528e-05
-7.30353e-05
5.49542e-05
-7.46671e-05
7.3997e-05
-7.60543e-05
9.3175e-05
-7.65681e-05
0.000112066
-7.54542e-05
0.000130585
-7.39321e-05
0.000148521
-7.15897e-05
0.000165444
-6.75575e-05
0.000181199
-6.28574e-05
0.000195517
-5.71541e-05
0.000208129
-5.03075e-05
0.000218841
-4.27885e-05
0.000227455
-3.43512e-05
0.000233743
-2.50676e-05
0.000237599
-1.54052e-05
0.000238991
-5.5967e-06
0.000237792
4.5908e-06
0.000234127
1.4615e-05
0.000227861
2.5031e-05
0.000219342
3.39972e-05
0.00020859
4.29116e-05
0.000196012
5.01614e-05
0.000181741
5.69266e-05
0.000165934
6.30569e-05
0.000148981
6.77167e-05
0.000131029
7.16621e-05
0.000112365
7.45254e-05
9.33727e-05
7.57777e-05
7.42637e-05
7.63557e-05
5.51576e-05
7.62975e-05
3.62945e-05
7.5312e-05
1.80125e-05
7.29542e-05
2.67457e-07
7.10061e-05
-1.67786e-05
6.81212e-05
-3.29746e-05
6.47314e-05
-4.82582e-05
6.10908e-05
-6.26109e-05
5.73781e-05
-7.59458e-05
5.33197e-05
-8.82609e-05
4.92483e-05
-9.95684e-05
4.52418e-05
-0.000109863
4.11659e-05
-0.000119192
3.7318e-05
-0.000127549
3.34343e-05
-0.00013498
2.97373e-05
-0.000141553
2.62697e-05
-0.000147219
2.26834e-05
-0.000152052
1.93081e-05
-0.000156078
1.61629e-05
-0.000159309
1.29401e-05
-0.000161831
1.00695e-05
-0.000163557
6.9229e-06
-0.000164545
3.97757e-06
-0.000164843
1.26996e-06
-0.000164416
-1.72317e-06
-0.000163171
-4.99221e-06
-0.000161276
-7.57609e-06
-0.000158517
-1.10294e-05
-0.000154983
-1.41149e-05
-0.00015066
-1.71999e-05
-0.000145554
-2.0508e-05
-0.000139612
-2.3804e-05
-0.000132922
-2.67829e-05
-0.000125332
-3.03629e-05
-0.000116949
-3.35231e-05
-0.000107714
-3.70856e-05
-9.75949e-05
-4.0362e-05
-8.66683e-05
-4.36854e-05
-7.49015e-05
-4.70727e-05
-6.22354e-05
-5.06342e-05
-4.88735e-05
-5.35079e-05
-3.4726e-05
-5.65112e-05
-1.9783e-05
-5.97588e-05
-4.0803e-06
-6.27384e-05
1.22329e-05
-6.52092e-05
2.91825e-05
-6.77643e-05
4.67022e-05
-7.00016e-05
6.4624e-05
-7.16443e-05
8.28468e-05
-7.28099e-05
0.000101108
-7.29385e-05
0.000119203
-7.22692e-05
0.000136834
-7.0418e-05
0.00015378
-6.76863e-05
0.000169775
-6.39245e-05
0.000184576
-5.91416e-05
0.000197935
-5.33685e-05
0.000209651
-4.67891e-05
0.00021948
-3.93541e-05
0.000227328
-3.12224e-05
0.000232961
-2.25443e-05
0.000236326
-1.34377e-05
0.000237312
-3.96656e-06
0.000235841