/*--------------------------------*- C++ -*----------------------------------*\
| =========                 |                                                 |
| \\      /  F ield         | OpenFOAM: The Open Source CFD Toolbox           |
|  \\    /   O peration     | Version:  3.0.1                                 |
|   \\  /    A nd           | Web:      www.OpenFOAM.org                      |
|    \\/     M anipulation  |                                                 |
\*---------------------------------------------------------------------------*/
FoamFile
{
    version     2.0;
    format      ascii;
    class       surfaceScalarField;
    location    "38.8";
    object      alphaPhi;
}
// * * * * * * * * * * * * * * * * * * * * * * * * * * * * * * * * * * * * * //

dimensions      [0 3 -1 0 0 0 0];

internalField   nonuniform List<scalar> 
42423
(
0.000223466
-1.26967e-05
0.000234693
-1.12273e-05
0.000244115
-9.42188e-06
0.000251548
-7.43344e-06
0.000256887
-5.33879e-06
0.000260033
-3.14558e-06
0.000260966
-9.33694e-07
0.000259651
1.31547e-06
0.000255861
3.78993e-06
0.000249819
6.04168e-06
0.000241703
8.11572e-06
0.000231531
1.01725e-05
0.000219611
1.19201e-05
0.000206066
1.35452e-05
0.000191258
1.48075e-05
0.000175389
1.58693e-05
0.000158569
1.682e-05
0.000141224
1.73442e-05
0.00012352
1.77041e-05
0.000105597
1.79236e-05
8.77324e-05
1.78642e-05
7.01592e-05
1.75732e-05
5.30212e-05
1.7138e-05
3.64504e-05
1.65707e-05
2.04425e-05
1.60079e-05
5.13158e-06
1.53109e-05
-9.24542e-06
1.4377e-05
-2.28439e-05
1.35985e-05
-3.5571e-05
1.27271e-05
-4.74116e-05
1.18406e-05
-5.83517e-05
1.09402e-05
-6.83913e-05
1.00395e-05
-7.75475e-05
9.15627e-06
-8.58443e-05
8.29672e-06
-9.33051e-05
7.46083e-06
-9.99481e-05
6.64299e-06
-0.000105793
5.84503e-06
-0.000110892
5.09874e-06
-0.000115261
4.36942e-06
-0.000118911
3.64979e-06
-0.00012188
2.96906e-06
-0.000124189
2.30912e-06
-0.000125865
1.67529e-06
-0.000126938
1.07301e-06
-0.000127418
4.80254e-07
-0.000127257
-1.60751e-07
-0.000126533
-7.23837e-07
-0.000125136
-1.39758e-06
-0.000123125
-2.01017e-06
-0.000120539
-2.58609e-06
-0.000117281
-3.25861e-06
-0.000113379
-3.90194e-06
-0.000108728
-4.65115e-06
-0.000103314
-5.41379e-06
-9.72682e-05
-6.04574e-06
-9.03231e-05
-6.94508e-06
-8.25547e-05
-7.76838e-06
-7.4117e-05
-8.43776e-06
-6.47267e-05
-9.39036e-06
-5.45731e-05
-1.01535e-05
-4.34962e-05
-1.10769e-05
-3.14488e-05
-1.20475e-05
-1.86747e-05
-1.27741e-05
-5.02952e-06
-1.36452e-05
9.44893e-06
-1.44785e-05
2.44882e-05
-1.50394e-05
4.01879e-05
-1.56997e-05
5.63673e-05
-1.61795e-05
7.29345e-05
-1.65672e-05
8.99495e-05
-1.70151e-05
0.000107069
-1.712e-05
0.000124099
-1.70298e-05
0.000141048
-1.69486e-05
0.000157528
-1.64802e-05
0.000173297
-1.57686e-05
0.000188131
-1.48345e-05
0.000201798
-1.36671e-05
0.000214042
-1.22444e-05
0.000224565
-1.05225e-05
0.000233241
-8.67624e-06
0.000239906
-6.6648e-06
0.00024449
-4.58359e-06
0.000246995
-2.50552e-06
0.000247573
-5.77202e-07
0.000246528
1.04432e-06
0.000243794
2.73413e-06
0.000239555
4.23923e-06
0.000233932
5.62394e-06
0.000227172
6.76004e-06
0.000219112
8.05999e-06
0.000209964
9.14831e-06
0.000199528
1.04359e-05
0.000187812
1.17162e-05
0.000174808
1.30048e-05
0.00016053
1.42777e-05
0.000145166
1.53643e-05
0.000128795
1.63711e-05
0.00011169
1.71053e-05
9.4094e-05
1.75957e-05
7.62321e-05
1.7862e-05
5.83335e-05
1.78985e-05
4.07287e-05
1.76048e-05
2.35473e-05
1.71814e-05
7.0234e-06
1.6524e-05
-8.76852e-06
1.57919e-05
-2.36195e-05
1.4851e-05
-3.74697e-05
1.38503e-05
-5.02768e-05
1.28071e-05
-6.20868e-05
1.181e-05
-7.27752e-05
1.06884e-05
-8.24101e-05
9.63487e-06
-9.10145e-05
8.60444e-06
-9.86454e-05
7.63093e-06
-0.000105285
6.63918e-06
-0.000110988
5.70308e-06
-0.000115795
4.80764e-06
-0.000119808
4.01303e-06
-0.00012302
3.21144e-06
-0.000125495
2.47527e-06
-0.000127221
1.72554e-06
-0.000128238
1.01763e-06
-0.000128673
4.34777e-07
-0.000128396
-2.77361e-07
-0.000127515
-8.8064e-07
-0.000125982
-1.53303e-06
-0.000123847
-2.13464e-06
-0.00012109
-2.75763e-06
-0.000117716
-3.37423e-06
-0.000113711
-4.00509e-06
-0.000109092
-4.61871e-06
-0.000103879
-5.21269e-06
-9.79831e-05
-5.89611e-06
-9.14547e-05
-6.52843e-06
-8.42269e-05
-7.22785e-06
-7.62856e-05
-7.94131e-06
-6.76121e-05
-8.67359e-06
-5.81795e-05
-9.43264e-06
-4.79053e-05
-1.02742e-05
-3.69139e-05
-1.09915e-05
-2.50817e-05
-1.18323e-05
-1.24649e-05
-1.26168e-05
9.20582e-07
-1.33855e-05
1.50583e-05
-1.41378e-05
2.99176e-05
-1.48594e-05
4.5395e-05
-1.54775e-05
6.14088e-05
-1.60139e-05
7.78963e-05
-1.64876e-05
9.46916e-05
-1.67954e-05
0.000111651
-1.69599e-05
0.000128558
-1.69064e-05
0.000145155
-1.65977e-05
0.000161249
-1.60939e-05
0.000176502
-1.52536e-05
0.000190735
-1.42325e-05
0.000203648
-1.29135e-05
0.000215036
-1.13874e-05
0.000224621
-9.58523e-06
0.000232254
-7.63381e-06
0.000237699
-5.44484e-06
0.000240856
-3.15714e-06
0.000241614
-7.5796e-07
0.000239944
1.66981e-06
0.000235748
4.19572e-06
0.000229132
6.61618e-06
0.000220218
8.91441e-06
0.000209136
1.1082e-05
0.000196106
1.30293e-05
0.000181391
1.4715e-05
0.000165235
1.61561e-05
0.000147927
1.73076e-05
0.000129722
1.82057e-05
0.000110897
1.88246e-05
9.17598e-05
1.91374e-05
7.26121e-05
1.91477e-05
5.37275e-05
1.88845e-05
3.52511e-05
1.84764e-05
1.74387e-05
1.78125e-05
3.61293e-07
1.70774e-05
-1.5829e-05
1.61903e-05
-3.11626e-05
1.53336e-05
-4.55304e-05
1.43678e-05
-5.89459e-05
1.34155e-05
-7.12379e-05
1.2292e-05
-8.24769e-05
1.1239e-05
-9.25973e-05
1.01204e-05
-0.000101629
9.03124e-06
-0.000109638
8.0099e-06
-0.000116558
6.91973e-06
-0.000122512
5.95404e-06
-0.000127507
4.99441e-06
-0.000131636
4.12933e-06
-0.000134953
3.31684e-06
-0.000137499
2.54594e-06
-0.000139328
1.82958e-06
-0.000140476
1.14724e-06
-0.000140997
5.21666e-07
-0.00014089
-1.07491e-07
-0.000140145
-7.45195e-07
-0.000138799
-1.34571e-06
-0.00013691
-1.88861e-06
-0.000134494
-2.41605e-06
-0.000131514
-2.98005e-06
-0.000127988
-3.52656e-06
-0.00012391
-4.07766e-06
-0.000119267
-4.64278e-06
-0.000114008
-5.25919e-06
-0.000108089
-5.91883e-06
-0.000101548
-6.54112e-06
-9.4272e-05
-7.27625e-06
-8.62475e-05
-8.02448e-06
-7.74131e-05
-8.83448e-06
-6.77053e-05
-9.70781e-06
-5.70476e-05
-1.06578e-05
-4.56662e-05
-1.13814e-05
-3.33139e-05
-1.23524e-05
-2.0108e-05
-1.32059e-05
-6.09953e-06
-1.40085e-05
8.69602e-06
-1.47956e-05
2.42049e-05
-1.5509e-05
4.03179e-05
-1.61131e-05
5.68705e-05
-1.65526e-05
7.37482e-05
-1.68778e-05
9.07309e-05
-1.69827e-05
0.000107675
-1.69438e-05
0.000124348
-1.66735e-05
0.000140522
-1.6174e-05
0.000155938
-1.54161e-05
0.00017037
-1.44319e-05
0.000183475
-1.31049e-05
0.000195049
-1.15741e-05
0.000204713
-9.66383e-06
0.000212348
-7.63528e-06
0.000217759
-5.41103e-06
0.000220797
-3.03811e-06
0.000221407
-6.1056e-07
0.000219516
1.89176e-06
0.000215094
4.42164e-06
0.000208324
6.77015e-06
0.000199304
9.01971e-06
0.00018825
1.10536e-05
0.000175288
1.29624e-05
0.000160785
1.45025e-05
0.000144989
1.57961e-05
0.000128172
1.68167e-05
0.000110673
1.74998e-05
9.276e-05
1.79126e-05
7.46766e-05
1.80834e-05
5.67105e-05
1.79661e-05
3.90821e-05
1.76284e-05
2.19705e-05
1.71116e-05
5.41682e-06
1.65536e-05
-1.03666e-05
1.57835e-05
-2.53112e-05
1.49446e-05
-3.93365e-05
1.40252e-05
-5.24178e-05
1.30813e-05
-6.45146e-05
1.20968e-05
-7.57067e-05
1.11921e-05
-8.59542e-05
1.02475e-05
-9.52877e-05
9.33355e-06
-0.000103785
8.49679e-06
-0.000111545
7.76046e-06
-0.000118539
6.99401e-06
-0.000124823
6.28426e-06
-0.000130446
5.62265e-06
-0.000135427
4.98108e-06
-0.000139637
4.21038e-06
-0.000143123
3.48587e-06
-0.000145846
2.72351e-06
-0.000147771
1.9251e-06
-0.000148874
1.10255e-06
-0.000149005
1.31617e-07
-0.000148198
-8.07634e-07
-0.000146483
-1.71464e-06
-0.00014382
-2.66308e-06
-0.000140324
-3.49534e-06
-0.000136019
-4.30523e-06
-0.000130678
-5.34065e-06
-0.000124482
-6.1967e-06
-0.000117555
-6.92701e-06
-0.000109758
-7.79648e-06
-0.000101195
-8.56313e-06
-9.17947e-05
-9.40024e-06
-8.14689e-05
-1.03258e-05
-7.0502e-05
-1.09669e-05
-5.88505e-05
-1.16516e-05
-4.64686e-05
-1.23819e-05
-3.36704e-05
-1.27983e-05
-2.03908e-05
-1.32797e-05
-6.88487e-06
-1.35059e-05
7.06123e-06
-1.39461e-05
2.19327e-05
-1.48715e-05
3.74315e-05
-1.54989e-05
5.35578e-05
-1.61263e-05
7.03058e-05
-1.67481e-05
8.74263e-05
-1.71206e-05
0.000104929
-1.75032e-05
0.000122625
-1.76955e-05
0.000140169
-1.75446e-05
0.000157429
-1.72596e-05
0.00017398
-1.65515e-05
0.000189584
-1.56039e-05
0.000203924
-1.434e-05
0.000216617
-1.26934e-05
0.000227447
-1.08295e-05
0.00023623
-8.7832e-06
0.000242789
-6.55894e-06
0.000247066
-4.27727e-06
0.000248827
-1.76091e-06
0.00024825
5.77014e-07
0.000245317
2.93267e-06
0.000240013
5.3036e-06
0.00023273
7.28309e-06
0.000223474
9.25576e-06
0.000212261
1.12132e-05
0.000199558
1.27028e-05
0.000185426
1.41319e-05
0.000170226
1.52008e-05
0.000154092
1.61341e-05
0.00013717
1.69218e-05
0.000119833
1.73368e-05
0.000102292
1.75404e-05
8.46473e-05
1.76452e-05
6.71664e-05
1.74809e-05
4.99579e-05
1.72085e-05
3.33013e-05
1.66566e-05
1.70929e-05
1.62084e-05
1.52135e-06
1.55715e-05
-1.33971e-05
1.49184e-05
-2.75757e-05
1.41786e-05
-4.09639e-05
1.33882e-05
-5.35251e-05
1.25612e-05
-6.52716e-05
1.17466e-05
-7.61756e-05
1.09039e-05
-8.62236e-05
1.0048e-05
-9.54287e-05
9.20507e-06
-0.000103775
8.34612e-06
-0.000111269
7.49413e-06
-0.000117901
6.63209e-06
-0.000123666
5.76516e-06
-0.000128576
4.9096e-06
-0.000132629
4.05369e-06
-0.000135824
3.19467e-06
-0.000138173
2.34889e-06
-0.000139691
1.51786e-06
-0.000140402
7.10856e-07
-0.000140236
-1.6621e-07
-0.000139194
-1.04144e-06
-0.00013734
-1.85421e-06
-0.000134698
-2.64209e-06
-0.000131248
-3.44954e-06
-0.000127049
-4.19955e-06
-0.000122057
-4.99173e-06
-0.000116348
-5.70875e-06
-0.000109926
-6.42232e-06
-0.000102711
-7.21523e-06
-9.47835e-05
-7.92712e-06
-8.65212e-06
0.000223546
-2.54143e-05
0.000234798
-2.24795e-05
0.000244223
-1.88472e-05
0.000251655
-1.48657e-05
0.000256999
-1.06828e-05
0.000260153
-6.29935e-06
0.000261093
-1.87358e-06
0.000259768
2.64039e-06
0.000255974
7.58376e-06
0.000249931
1.2085e-05
0.000241805
1.62409e-05
0.000231627
2.03511e-05
0.000219698
2.38488e-05
0.000206143
2.70998e-05
0.000191324
2.96267e-05
0.000175442
3.17511e-05
0.000158612
3.36504e-05
0.000141261
3.46953e-05
0.00012354
3.54249e-05
0.000105607
3.58566e-05
8.7735e-05
3.57361e-05
7.01507e-05
3.51575e-05
5.3003e-05
3.42857e-05
3.64309e-05
3.31428e-05
2.04201e-05
3.20188e-05
5.10761e-06
3.06233e-05
-9.27321e-06
2.87578e-05
-2.28765e-05
2.72017e-05
-3.56066e-05
2.54572e-05
-4.74506e-05
2.36846e-05
-5.83943e-05
2.18839e-05
-6.84353e-05
2.00805e-05
-7.75923e-05
1.83133e-05
-8.58895e-05
1.65939e-05
-9.33494e-05
1.49207e-05
-9.99904e-05
1.3284e-05
-0.00010584
1.16942e-05
-0.00011094
1.01992e-05
-0.000115308
8.73744e-06
-0.000118955
7.29651e-06
-0.000121922
5.93601e-06
-0.000124231
4.61878e-06
-0.00012591
3.35406e-06
-0.00012699
2.15251e-06
-0.000127464
9.54358e-07
-0.0001273
-3.24389e-07
-0.000126578
-1.44596e-06
-0.000125177
-2.79843e-06
-0.00012317
-4.01691e-06
-0.000120588
-5.16853e-06
-0.000117332
-6.51506e-06
-0.000113431
-7.80235e-06
-0.000108761
-9.32143e-06
-0.00010336
-1.08143e-05
-9.73271e-05
-1.20792e-05
-9.03813e-05
-1.38909e-05
-8.26148e-05
-1.55349e-05
-7.41783e-05
-1.68743e-05
-6.47909e-05
-1.87778e-05
-5.46512e-05
-2.02932e-05
-4.35547e-05
-2.21735e-05
-3.15045e-05
-2.40977e-05
-1.87337e-05
-2.55451e-05
-5.07371e-06
-2.73052e-05
9.40715e-06
-2.89594e-05
2.44538e-05
-3.00861e-05
4.0159e-05
-3.1405e-05
5.63481e-05
-3.23687e-05
7.29202e-05
-3.31394e-05
8.99439e-05
-3.4039e-05
0.000107077
-3.42534e-05
0.000124118
-3.40705e-05
0.000141079
-3.39097e-05
0.000157563
-3.29646e-05
0.00017335
-3.15552e-05
0.000188207
-2.96921e-05
0.000201892
-2.73517e-05
0.000214153
-2.45058e-05
0.0002247
-2.10694e-05
0.000233393
-1.73698e-05
0.00024007
-1.33413e-05
0.00024467
-9.18386e-06
0.000247189
-5.02402e-06
0.00024777
-1.15881e-06
0.000246727
2.08808e-06
0.000243992
5.46896e-06
0.000239743
8.48852e-06
0.000234114
1.12537e-05
0.000227343
1.35304e-05
0.000219274
1.61294e-05
0.000210104
1.83186e-05
0.000199654
2.08865e-05
0.000187922
2.34486e-05
0.000174897
2.60293e-05
0.000160591
2.85838e-05
0.000145216
3.07399e-05
0.000128822
3.27654e-05
0.000111697
3.42303e-05
9.40785e-05
3.5214e-05
7.62084e-05
3.57321e-05
5.83038e-05
3.58032e-05
4.06998e-05
3.52089e-05
2.34799e-05
3.44014e-05
6.95647e-06
3.30474e-05
-8.83738e-06
3.15858e-05
-2.3693e-05
2.97067e-05
-3.75423e-05
2.76996e-05
-5.03401e-05
2.56048e-05
-6.21503e-05
2.36203e-05
-7.2849e-05
2.13871e-05
-8.24894e-05
1.92752e-05
-9.10943e-05
1.72094e-05
-9.87169e-05
1.52536e-05
-0.000105347
1.32693e-05
-0.000111049
1.14055e-05
-0.000115857
9.61525e-06
-0.000119877
8.03274e-06
-0.000123084
6.41821e-06
-0.000125566
4.95787e-06
-0.000127291
3.45076e-06
-0.000128305
2.0313e-06
-0.000128736
8.65886e-07
-0.000128457
-5.5668e-07
-0.000127579
-1.75829e-06
-0.000126055
-3.05762e-06
-0.000123914
-4.27586e-06
-0.000121167
-5.50388e-06
-0.000117792
-6.75001e-06
-0.00011377
-8.02705e-06
-0.000109174
-9.21411e-06
-0.000103964
-1.04231e-05
-9.80711e-05
-1.17888e-05
-9.15436e-05
-1.30559e-05
-8.43207e-05
-1.44508e-05
-7.63789e-05
-1.58831e-05
-6.77094e-05
-1.73432e-05
-5.82704e-05
-1.88717e-05
-4.8012e-05
-2.05327e-05
-3.70199e-05
-2.19837e-05
-2.51684e-05
-2.36839e-05
-1.25596e-05
-2.52257e-05
8.31358e-07
-2.67766e-05
1.49744e-05
-2.8281e-05
2.98394e-05
-2.97245e-05
4.53176e-05
-3.09558e-05
6.13378e-05
-3.20342e-05
7.78435e-05
-3.29934e-05
9.46357e-05
-3.35878e-05
0.000111599
-3.39229e-05
0.000128517
-3.38253e-05
0.000145135
-3.32155e-05
0.000161252
-3.22115e-05
0.00017652
-3.05214e-05
0.000190759
-2.84716e-05
0.000203677
-2.58319e-05
0.000215069
-2.27797e-05
0.00022467
-1.91863e-05
0.000232322
-1.52852e-05
0.000237763
-1.08865e-05
0.000240931
-6.32547e-06
0.000241696
-1.52297e-06
0.000240009
3.35726e-06
0.000235804
8.40032e-06
0.000229213
1.3207e-05
0.00022027
1.78569e-05
0.000209188
2.21645e-05
0.00019615
2.60673e-05
0.000181425
2.94402e-05
0.000165259
3.23221e-05
0.000147935
3.46314e-05
0.000129718
3.6422e-05
0.000110871
3.76722e-05
9.17293e-05
3.82789e-05
7.25783e-05
3.82986e-05
5.36741e-05
3.77887e-05
3.51871e-05
3.69634e-05
1.73752e-05
3.56244e-05
2.99069e-07
3.41535e-05
-1.58931e-05
3.23826e-05
-3.12291e-05
3.06696e-05
-4.55949e-05
2.87335e-05
-5.90141e-05
2.68347e-05
-7.13168e-05
2.45947e-05
-8.25552e-05
2.24775e-05
-9.26707e-05
2.0236e-05
-0.0001017
1.80604e-05
-0.000109709
1.60189e-05
-0.000116636
1.38465e-05
-0.000122588
1.19065e-05
-0.000127579
9.98575e-06
-0.000131701
8.25125e-06
-0.000135017
6.63197e-06
-0.000137561
5.09077e-06
-0.000139395
3.66291e-06
-0.000140548
2.30044e-06
-0.000141071
1.04508e-06
-0.00014096
-2.18371e-07
-0.000140211
-1.49424e-06
-0.000138858
-2.69927e-06
-0.000136993
-3.75369e-06
-0.00013457
-4.83867e-06
-0.000131597
-5.95313e-06
-0.000128071
-7.05321e-06
-0.000123986
-8.16216e-06
-0.000119347
-9.28186e-06
-0.000114071
-1.05357e-05
-0.000108178
-1.18115e-05
-0.000101638
-1.30812e-05
-9.43769e-05
-1.45371e-05
-8.63657e-05
-1.60357e-05
-7.75156e-05
-1.76846e-05
-6.78078e-05
-1.94157e-05
-5.71424e-05
-2.13232e-05
-4.57641e-05
-2.27597e-05
-3.34151e-05
-2.47015e-05
-2.02131e-05
-2.6408e-05
-6.19082e-06
-2.80308e-05
8.60879e-06
-2.95953e-05
2.41205e-05
-3.10208e-05
4.02469e-05
-3.22395e-05
5.68078e-05
-3.31137e-05
7.36963e-05
-3.37664e-05
9.06876e-05
-3.39741e-05
0.000107638
-3.38938e-05
0.000124325
-3.33612e-05
0.000140514
-3.23633e-05
0.000155956
-3.08581e-05
0.000170388
-2.88637e-05
0.000183501
-2.62177e-05
0.000195061
-2.31347e-05
0.000204761
-1.9364e-05
0.000212406
-1.52797e-05
0.00021782
-1.08253e-05
0.000220861
-6.07929e-06
0.000221489
-1.23888e-06
0.000219575
3.80565e-06
0.000215155
8.84186e-06
0.000208376
1.35495e-05
0.000199356
1.80388e-05
0.000188298
2.21119e-05
0.000175324
2.59364e-05
0.000160808
2.90182e-05
0.000144994
3.16105e-05
0.000128168
3.36425e-05
0.000110676
3.49922e-05
9.2739e-05
3.58491e-05
7.46392e-05
3.61832e-05
5.66679e-05
3.59374e-05
3.90343e-05
3.5262e-05
2.19128e-05
3.42332e-05
5.3492e-06
3.31172e-05
-1.04445e-05
3.15771e-05
-2.53837e-05
2.98838e-05
-3.94064e-05
2.8048e-05
-5.24909e-05
2.61659e-05
-6.45829e-05
2.41888e-05
-7.57586e-05
2.23678e-05
-8.60135e-05
2.05024e-05
-9.5349e-05
1.86691e-05
-0.000103848
1.69954e-05
-0.0001116
1.55129e-05
-0.000118596
1.39905e-05
-0.000124873
1.25611e-05
-0.00013049
1.1239e-05
-0.000135464
9.95525e-06
-0.000139677
8.42409e-06
-0.000143171
6.97938e-06
-0.000145901
5.4542e-06
-0.000147822
3.84552e-06
-0.000148916
2.19697e-06
-0.000149059
2.74604e-07
-0.000148254
-1.61248e-06
-0.000146543
-3.4252e-06
-0.00014389
-5.31578e-06
-0.000140407
-6.97837e-06
-0.000136112
-8.60043e-06
-0.000130782
-1.06706e-05
-0.000124596
-1.23825e-05
-0.000117678
-1.38452e-05
-0.000109891
-1.55835e-05
-0.000101338
-1.71164e-05
-9.19408e-05
-1.87973e-05
-8.16144e-05
-2.06523e-05
-7.06474e-05
-2.19339e-05
-5.89913e-05
-2.33077e-05
-4.6599e-05
-2.47742e-05
-3.37935e-05
-2.56039e-05
-2.05063e-05
-2.65669e-05
-6.98697e-06
-2.70254e-05
6.96239e-06
-2.78956e-05
2.18439e-05
-2.97532e-05
3.73522e-05
-3.10073e-05
5.34854e-05
-3.22596e-05
7.02401e-05
-3.35029e-05
8.73704e-05
-3.42511e-05
0.000104886
-3.50185e-05
0.000122588
-3.53976e-05
0.000140141
-3.50982e-05
0.000157421
-3.45395e-05
0.000173977
-3.3108e-05
0.000189582
-3.12088e-05
0.000203948
-2.87064e-05
0.000216636
-2.53808e-05
0.000227453
-2.1647e-05
0.000236274
-1.76039e-05
0.000242824
-1.31094e-05
0.000247086
-8.53966e-06
0.000248883
-3.55753e-06
0.00024832
1.14016e-06
0.000245394
5.85827e-06
0.000240103
1.05947e-05
0.000232819
1.45664e-05
0.000223557
1.85181e-05
0.000212337
2.24332e-05
0.000199626
2.54137e-05
0.000185485
2.82729e-05
0.000170275
3.04107e-05
0.000154131
3.22777e-05
0.000137199
3.38533e-05
0.000119854
3.46818e-05
0.000102302
3.50926e-05
8.4651e-05
3.52962e-05
6.71694e-05
3.49624e-05
4.99457e-05
3.44322e-05
3.32851e-05
3.33172e-05
1.7071e-05
3.24224e-05
1.4947e-06
3.11478e-05
-1.34254e-05
2.98386e-05
-2.76065e-05
2.83597e-05
-4.0998e-05
2.67796e-05
-5.35618e-05
2.51249e-05
-6.53095e-05
2.34942e-05
-7.62151e-05
2.18096e-05
-8.62656e-05
2.00986e-05
-9.54724e-05
1.84119e-05
-0.000103818
1.6692e-05
-0.000111312
1.49874e-05
-0.000117947
1.3267e-05
-0.000123709
1.15276e-05
-0.00012862
9.82062e-06
-0.000132675
8.10852e-06
-0.00013587
6.39025e-06
-0.00013822
4.69836e-06
-0.000139739
3.03644e-06
-0.000140448
1.42083e-06
-0.000140281
-3.33874e-07
-0.000139238
-2.08454e-06
-0.000137382
-3.71018e-06
-0.000134738
-5.28574e-06
-0.000131287
-6.90111e-06
-0.000127083
-8.40276e-06
-0.00012209
-9.98512e-06
-0.00011638
-1.14189e-05
-0.000109957
-1.28455e-05
-0.00010274
-1.44315e-05
-9.48123e-05
-1.58551e-05
-1.73052e-05
0.000223689
-3.81568e-05
0.000234965
-3.37563e-05
0.000244416
-2.82983e-05
0.000251879
-2.23286e-05
0.000257257
-1.60605e-05
0.000260434
-9.47634e-06
0.000261349
-2.78922e-06
0.000259961
4.02849e-06
0.000256149
1.13957e-05
0.000250102
1.81322e-05
0.000241957
2.43864e-05
0.000231765
3.05425e-05
0.000219821
3.5793e-05
0.00020625
4.06706e-05
0.000191412
4.44644e-05
0.000175509
4.76551e-05
0.000158663
5.0496e-05
0.000141306
5.20517e-05
0.000123552
5.31793e-05
0.000105605
5.38038e-05
8.77238e-05
5.3617e-05
7.01197e-05
5.27615e-05
5.2955e-05
5.14504e-05
3.6382e-05
4.97157e-05
2.03685e-05
4.80323e-05
5.06135e-06
4.59304e-05
-9.33622e-06
4.31554e-05
-2.29472e-05
4.08127e-05
-3.56812e-05
3.81911e-05
-4.75245e-05
3.55279e-05
-5.84677e-05
3.28271e-05
-6.85087e-05
3.01215e-05
-7.76653e-05
2.74698e-05
-8.59621e-05
2.48907e-05
-9.3422e-05
2.23807e-05
-0.000100064
1.99259e-05
-0.000105922
1.75519e-05
-0.000111013
1.52907e-05
-0.000115374
1.30988e-05
-0.000119021
1.09434e-05
-0.000121988
8.90306e-06
-0.000124297
6.92777e-06
-0.000125975
5.03146e-06
-0.000127058
3.23591e-06
-0.000127524
1.42068e-06
-0.000127355
-4.94178e-07
-0.000126628
-2.17248e-06
-0.000125222
-4.20429e-06
-0.000123218
-6.02085e-06
-0.000120639
-7.74792e-06
-0.000117385
-9.76876e-06
-0.000113487
-1.17006e-05
-0.0001088
-1.40089e-05
-0.00010341
-1.62036e-05
-9.73942e-05
-1.80953e-05
-9.04485e-05
-2.08367e-05
-8.26854e-05
-2.3298e-05
-7.42504e-05
-2.53093e-05
-6.48691e-05
-2.81592e-05
-5.47335e-05
-3.04288e-05
-4.36245e-05
-3.32826e-05
-3.15719e-05
-3.61504e-05
-1.87785e-05
-3.83385e-05
-5.12653e-06
-4.09573e-05
9.35483e-06
-4.34409e-05
2.4407e-05
-4.51383e-05
4.01206e-05
-4.71186e-05
5.63122e-05
-4.85604e-05
7.28999e-05
-4.97271e-05
8.99383e-05
-5.10775e-05
0.000107074
-5.13895e-05
0.00012413
-5.11259e-05
0.00014111
-5.08905e-05
0.000157607
-4.94615e-05
0.000173426
-4.7374e-05
0.000188312
-4.45776e-05
0.000202038
-4.10779e-05
0.000214341
-3.68086e-05
0.000224918
-3.16472e-05
0.000233649
-2.61004e-05
0.000240357
-2.00493e-05
0.000244998
-1.38245e-05
0.000247547
-7.57378e-06
0.00024811
-1.72095e-06
0.000247016
3.18178e-06
0.000244271
8.21382e-06
0.000240016
1.27441e-05
0.000234383
1.68876e-05
0.000227583
2.033e-05
0.000219495
2.42179e-05
0.000210305
2.7509e-05
0.000199834
3.13578e-05
0.000188072
3.52103e-05
0.000175021
3.90808e-05
0.000160677
4.29279e-05
0.000145274
4.6143e-05
0.000128836
4.92031e-05
0.00011168
5.13871e-05
9.40345e-05
5.28592e-05
7.61465e-05
5.36201e-05
5.82093e-05
5.37405e-05
4.05597e-05
5.28586e-05
2.33323e-05
5.16288e-05
6.80538e-06
4.95744e-05
-9.00006e-06
4.73913e-05
-2.38619e-05
4.45686e-05
-3.77104e-05
4.15482e-05
-5.05178e-05
3.84122e-05
-6.23131e-05
3.54157e-05
-7.30201e-05
3.20941e-05
-8.26546e-05
2.89098e-05
-9.12575e-05
2.58122e-05
-9.88768e-05
2.28729e-05
-0.000105505
1.98971e-05
-0.000111206
1.71068e-05
-0.00011601
1.44195e-05
-0.000120044
1.20662e-05
-0.000123234
9.60824e-06
-0.000125717
7.4415e-06
-0.00012744
5.17362e-06
-0.000128447
3.03822e-06
-0.000128869
1.28834e-06
-0.000128597
-8.29633e-07
-0.00012769
-2.66467e-06
-0.000126202
-4.54581e-06
-0.000124051
-6.42701e-06
-0.000121295
-8.26002e-06
-0.000117921
-1.01234e-05
-0.000113867
-1.2081e-05
-0.000109317
-1.37644e-05
-0.0001041
-1.56406e-05
-9.82096e-05
-1.7679e-05
-9.16871e-05
-1.95784e-05
-8.44635e-05
-2.16745e-05
-7.65149e-05
-2.38317e-05
-6.78482e-05
-2.60099e-05
-5.84088e-05
-2.83112e-05
-4.81583e-05
-3.07832e-05
-3.71556e-05
-3.29864e-05
-2.52846e-05
-3.5555e-05
-1.27054e-05
-3.7805e-05
6.96576e-07
-4.01787e-05
1.48477e-05
-4.24322e-05
2.97229e-05
-4.45998e-05
4.52086e-05
-4.64416e-05
6.12327e-05
-4.80584e-05
7.77585e-05
-4.95193e-05
9.45759e-05
-5.04053e-05
0.000111538
-5.08849e-05
0.000128476
-5.07632e-05
0.000145108
-4.98485e-05
0.000161247
-4.83504e-05
0.000176531
-4.58055e-05
0.000190787
-4.27277e-05
0.000203729
-3.87739e-05
0.000215155
-3.42061e-05
0.000224761
-2.87926e-05
0.000232437
-2.29615e-05
0.000237905
-1.63541e-05
0.000241057
-9.47788e-06
0.000241812
-2.27754e-06
0.000240114
5.05492e-06
0.000235913
1.2601e-05
0.000229321
1.97989e-05
0.00022036
2.68183e-05
0.000209279
3.32454e-05
0.000196219
3.91273e-05
0.000181469
4.41903e-05
0.000165282
4.85085e-05
0.000147925
5.19882e-05
0.000129693
5.46546e-05
0.000110817
5.65482e-05
9.16562e-05
5.74394e-05
7.24819e-05
5.74729e-05
5.35482e-05
5.67224e-05
3.50516e-05
5.546e-05
1.72292e-05
5.34469e-05
1.45079e-07
5.12376e-05
-1.60844e-05
4.8612e-05
-3.14277e-05
4.60129e-05
-4.57939e-05
4.30997e-05
-5.91673e-05
4.02081e-05
-7.14835e-05
3.69109e-05
-8.27205e-05
3.37144e-05
-9.2846e-05
3.03616e-05
-0.000101885
2.70997e-05
-0.00010988
2.40133e-05
-0.000116819
2.0786e-05
-0.000122757
1.78442e-05
-0.000127748
1.49772e-05
-0.00013186
1.23625e-05
-0.000135177
9.94937e-06
-0.000137721
7.63457e-06
-0.000139551
5.49283e-06
-0.000140706
3.45547e-06
-0.000141209
1.54832e-06
-0.000141094
-3.33029e-07
-0.000140347
-2.24148e-06
-0.000138982
-4.06471e-06
-0.000137133
-5.6022e-06
-0.000134699
-7.27288e-06
-0.000131729
-8.92343e-06
-0.000128204
-1.05783e-05
-0.000124107
-1.22585e-05
-0.000119475
-1.39144e-05
-0.000114181
-1.58299e-05
-0.000108338
-1.76538e-05
-0.000101778
-1.9642e-05
-9.45215e-05
-2.17932e-05
-8.65267e-05
-2.40306e-05
-7.76661e-05
-2.65452e-05
-6.79564e-05
-2.91255e-05
-5.73186e-05
-3.1961e-05
-4.5901e-05
-3.41774e-05
-3.35579e-05
-3.70446e-05
-2.03557e-05
-3.96102e-05
-6.33828e-06
-4.20483e-05
8.47688e-06
-4.44105e-05
2.39951e-05
-4.6539e-05
4.01442e-05
-4.83887e-05
5.67111e-05
-4.96806e-05
7.3615e-05
-5.06703e-05
9.06267e-05
-5.09859e-05
0.000107588
-5.08551e-05
0.000124295
-5.00682e-05
0.000140504
-4.85727e-05
0.000155973
-4.63272e-05
0.00017042
-4.33102e-05
0.000183559
-3.93574e-05
0.00019514
-3.47157e-05
0.000204867
-2.90911e-05
0.000212514
-2.29269e-05
0.000217934
-1.62452e-05
0.000220987
-9.13274e-06
0.000221604
-1.85528e-06
0.00021968
5.72903e-06
0.000215262
1.32596e-05
0.000208482
2.03296e-05
0.000199473
2.70479e-05
0.000188369
3.32164e-05
0.000175412
3.88925e-05
0.000160855
4.35756e-05
0.000145007
4.7459e-05
0.000128148
5.0501e-05
0.000110634
5.25061e-05
9.26654e-05
5.38178e-05
7.45544e-05
5.42942e-05
5.65622e-05
5.39296e-05
3.89133e-05
5.29109e-05
2.1767e-05
5.13795e-05
5.20296e-06
4.96813e-05
-1.05984e-05
4.73784e-05
-2.55425e-05
4.4828e-05
-3.95727e-05
4.20781e-05
-5.26569e-05
3.92501e-05
-6.47445e-05
3.62763e-05
-7.58828e-05
3.35061e-05
-8.61671e-05
3.07868e-05
-9.55006e-05
2.80026e-05
-0.000103994
2.54889e-05
-0.000111711
2.32302e-05
-0.000118723
2.10022e-05
-0.000124983
1.88209e-05
-0.000130592
1.68483e-05
-0.000135556
1.49189e-05
-0.00013976
1.26281e-05
-0.000143249
1.04689e-05
-0.00014597
8.17497e-06
-0.000147901
5.77697e-06
-0.000148966
3.26201e-06
-0.000149091
4.00016e-07
-0.00014829
-2.41359e-06
-0.000146585
-5.13015e-06
-0.000143943
-7.95778e-06
-0.000140479
-1.04422e-05
-0.000136203
-1.28759e-05
-0.000130891
-1.59831e-05
-0.000124727
-1.85463e-05
-0.000117834
-2.0738e-05
-0.000110064
-2.33541e-05
-0.000101529
-2.56508e-05
-9.21463e-05
-2.81803e-05
-8.18191e-05
-3.09795e-05
-7.08497e-05
-3.29034e-05
-5.91926e-05
-3.49649e-05
-4.6788e-05
-3.71788e-05
-3.39714e-05
-3.84206e-05
-2.06703e-05
-3.98681e-05
-7.13075e-06
-4.0565e-05
6.81081e-06
-4.18373e-05
2.17146e-05
-4.46571e-05
3.72361e-05
-4.65289e-05
5.33819e-05
-4.84055e-05
7.01526e-05
-5.02736e-05
8.73001e-05
-5.13987e-05
0.000104832
-5.25509e-05
0.000122547
-5.31123e-05
0.000140119
-5.267e-05
0.00015741
-5.18307e-05
0.000173976
-4.96743e-05
0.000189592
-4.68254e-05
0.000203958
-4.30718e-05
0.000216648
-3.80711e-05
0.000227481
-3.24802e-05
0.000236295
-2.64179e-05
0.000242845
-1.96594e-05
0.000247138
-1.2833e-05
0.000248964
-5.38361e-06
0.000248425
1.67868e-06
0.000245537
8.74694e-06
0.000240266
1.58656e-05
0.000232976
2.18559e-05
0.000223697
2.77967e-05
0.000212463
3.36677e-05
0.000199735
3.81412e-05
0.000185575
4.24332e-05
0.000170346
4.56388e-05
0.000154184
4.84398e-05
0.000137235
5.08023e-05
0.000119876
5.20406e-05
0.000102301
5.26675e-05
8.46402e-05
5.29575e-05
6.7148e-05
5.24545e-05
4.99088e-05
5.16714e-05
3.32419e-05
4.99841e-05
1.70198e-05
4.86445e-05
1.43448e-06
4.67332e-05
-1.34889e-05
4.47619e-05
-2.76733e-05
4.25441e-05
-4.10665e-05
4.01728e-05
-5.36312e-05
3.76896e-05
-6.53797e-05
3.52427e-05
-7.62831e-05
3.27129e-05
-8.6333e-05
3.01485e-05
-9.55398e-05
2.76187e-05
-0.000103889
2.50407e-05
-0.000111384
2.24834e-05
-0.000118021
1.99033e-05
-0.000123789
1.72954e-05
-0.000128696
1.47285e-05
-0.000132752
1.2164e-05
-0.000135948
9.58672e-06
-0.000138298
7.04746e-06
-0.000139817
4.556e-06
-0.000140523
2.12684e-06
-0.000140347
-5.09722e-07
-0.000139299
-3.13272e-06
-0.000137442
-5.56707e-06
-0.000134797
-7.93043e-06
-0.000131346
-1.03525e-05
-0.00012714
-1.26094e-05
-0.000122146
-1.49787e-05
-0.000116436
-1.71292e-05
-0.000110012
-1.92688e-05
-0.000102796
-2.1648e-05
-9.48678e-05
-2.37832e-05
-2.59581e-05
0.000223904
-5.09379e-05
0.000235239
-4.50909e-05
0.000244737
-3.7796e-05
0.000252238
-2.98306e-05
0.000257646
-2.1468e-05
0.000260852
-1.26828e-05
0.000261754
-3.69069e-06
0.000260272
5.50983e-06
0.000256414
1.52542e-05
0.00025036
2.41854e-05
0.000242184
3.25624e-05
0.000231971
4.07556e-05
0.000220005
4.77587e-05
0.000206411
5.42652e-05
0.000191547
5.93285e-05
0.000175609
6.3593e-05
0.00015874
6.7365e-05
0.000141361
6.94305e-05
0.00012357
7.09706e-05
0.000105601
7.17723e-05
8.77096e-05
7.15086e-05
7.00744e-05
7.03967e-05
5.28839e-05
6.86409e-05
3.62994e-05
6.63002e-05
2.02908e-05
6.40409e-05
5.00141e-06
6.12198e-05
-9.43105e-06
5.75878e-05
-2.30543e-05
5.4436e-05
-3.57919e-05
5.09287e-05
-4.76387e-05
4.73747e-05
-5.85823e-05
4.37707e-05
-6.86244e-05
4.01636e-05
-7.77827e-05
3.66281e-05
-8.6076e-05
3.3184e-05
-9.35359e-05
2.98406e-05
-0.000100177
2.65667e-05
-0.000106034
2.34087e-05
-0.000111128
2.03848e-05
-0.000115483
1.7454e-05
-0.000119129
1.45898e-05
-0.000122096
1.18697e-05
-0.000124405
9.23717e-06
-0.000126081
6.70732e-06
-0.000127165
4.3201e-06
-0.000127608
1.86307e-06
-0.000127431
-6.71444e-07
-0.000126704
-2.89893e-06
-0.000125291
-5.61707e-06
-0.000123291
-8.02114e-06
-0.000120718
-1.03215e-05
-0.000117466
-1.30199e-05
-0.000113573
-1.55942e-05
-0.000108865
-1.87172e-05
-0.000103487
-2.15817e-05
-9.74968e-05
-2.4085e-05
-9.05506e-05
-2.7783e-05
-8.27959e-05
-3.10527e-05
-7.4363e-05
-3.37423e-05
-6.49941e-05
-3.75282e-05
-5.48375e-05
-4.05855e-05
-4.37311e-05
-4.4389e-05
-3.16742e-05
-4.82074e-05
-1.88428e-05
-5.11699e-05
-5.2091e-06
-5.45911e-05
9.27521e-06
-5.79253e-05
2.4337e-05
-6.02002e-05
4.00561e-05
-6.28378e-05
5.62599e-05
-6.47643e-05
7.28714e-05
-6.63386e-05
8.99252e-05
-6.81314e-05
0.000107063
-6.85273e-05
0.000124147
-6.82106e-05
0.000141159
-6.79023e-05
0.000157667
-6.5969e-05
0.000173538
-6.32455e-05
0.000188477
-5.95163e-05
0.00020225
-5.48511e-05
0.000214607
-4.91657e-05
0.000225246
-4.22867e-05
0.000234036
-3.48899e-05
0.000240787
-2.68002e-05
0.000245482
-1.85202e-05
0.000248049
-1.014e-05
0.000248596
-2.26845e-06
0.000247451
4.32775e-06
0.000244685
1.098e-05
0.000240417
1.70118e-05
0.000234776
2.25291e-05
0.00022794
2.71665e-05
0.000219835
3.23231e-05
0.000210596
3.67482e-05
0.000200094
4.18598e-05
0.000188289
4.70149e-05
0.000175188
5.21823e-05
0.000160813
5.73028e-05
0.000145332
6.16242e-05
0.000128857
6.56785e-05
0.000111655
6.85886e-05
9.39719e-05
7.05428e-05
7.60521e-05
7.15399e-05
5.80906e-05
7.1702e-05
4.0351e-05
7.05983e-05
2.31136e-05
6.88661e-05
6.53299e-06
6.61551e-05
-9.22899e-06
6.31533e-05
-2.41051e-05
5.94447e-05