/*--------------------------------*- C++ -*----------------------------------*\
| =========                 |                                                 |
| \\      /  F ield         | OpenFOAM: The Open Source CFD Toolbox           |
|  \\    /   O peration     | Version:  3.0.1                                 |
|   \\  /    A nd           | Web:      www.OpenFOAM.org                      |
|    \\/     M anipulation  |                                                 |
\*---------------------------------------------------------------------------*/
FoamFile
{
    version     2.0;
    format      ascii;
    class       volScalarField;
    location    "85.8";
    object      p;
}
// * * * * * * * * * * * * * * * * * * * * * * * * * * * * * * * * * * * * * //

dimensions      [1 -1 -2 0 0 0 0];

internalField   nonuniform List<scalar> 
21420
(
3556.15
3550.9
3547.07
3544.64
3543.63
3544.04
3545.87
3549.1
3553.76
3559.85
3567.4
3576.45
3587.05
3599.25
3613.09
3628.63
3645.93
3664.98
3685.81
3708.43
3732.81
3758.91
3786.69
3816.02
3846.77
3878.76
3911.73
3945.35
3979.52
4013.81
4047.81
4081.19
4113.5
4144.34
4173.29
4199.94
4223.94
4244.94
4262.63
4276.78
4287.18
4293.68
4296.19
4294.64
4289.08
4279.63
4266.36
4249.54
4229.38
4206.16
4180.25
4151.97
4121.73
4089.9
4056.87
4023.03
3988.74
3954.33
3920.2
3892.37
3860.3
3829.26
3799.58
3771.39
3744.84
3719.99
3696.92
3675.64
3656.19
3638.54
3622.69
3608.62
3596.3
3585.71
3576.82
3569.6
3564.03
3560.09
3557.74
3557
3557.85
3560.19
3564.06
3569.44
3576.35
3584.76
3594.64
3606.02
3618.88
3633.21
3649.02
3666.31
3685.09
3705.37
3727.16
3750.43
3775.17
3801.31
3828.78
3857.47
3887.23
3917.96
3949.29
3981.07
4013.01
4044.81
4076.16
4106.72
4136.16
4164.1
4190.21
4214.15
4235.57
4254.16
4269.64
4281.76
4290.3
4295.09
4295.96
4292.99
4286.09
4275.33
4260.86
4242.85
4221.56
4197.28
4170.36
4141.17
4110.12
4077.63
4044.12
4010.03
3975.76
3941.72
3908.27
3875.74
3844.42
3814.56
3786.35
3759.96
3735.49
3713
3692.52
3674.05
3657.54
3642.93
3630.15
3619.13
3609.77
3601.99
3595.71
3590.85
3587.35
3585.14
3584.17
3584.43
3585.87
3588.47
3592.22
3597.14
3603.24
3610.53
3619.06
3628.87
3639.98
3652.45
3666.31
3681.6
3698.37
3716.63
3736.4
3757.7
3780.5
3804.79
3830.5
3857.55
3885.84
3915.21
3945.5
3976.44
4007.79
4039.26
4070.52
4101.22
4130.97
4159.38
4186.04
4210.55
4232.53
4251.61
4267.47
4279.83
4288.45
4293.18
4293.84
4290.53
4283.18
4271.88
4256.82
4238.22
4216.38
4191.64
4164.38
4135.03
4104.02
4071.81
4038.83
4005.52
3972.28
3939.52
3907.5
3876.53
3846.84
3818.62
3792
3767.08
3743.94
3722.59
3703.05
3685.29
3669.28
3654.98
3642.33
3631.29
3621.79
3613.78
3607.2
3602
3598.1
3595.48
3594.07
3593.85
3594.81
3596.89
3600.12
3604.48
3610.01
3616.71
3624.62
3633.75
3644.15
3655.85
3668.89
3683.32
3699.19
3716.54
3735.4
3755.78
3777.69
3801.1
3825.97
3852.23
3879.78
3908.49
3938.18
3968.67
3999.67
4030.88
4061.96
4092.55
4122.25
4150.67
4177.37
4201.95
4224.01
4243.18
4259.09
4271.47
4280.06
4284.66
4285.13
4281.49
4273.74
4261.94
4246.31
4227.1
4204.64
4179.31
4151.51
4121.7
4090.3
4057.8
4024.6
3991.12
3957.85
3930.26
3898.74
3868.22
3839.01
3811.31
3785.27
3760.98
3738.5
3717.88
3699.1
3682.16
3666.99
3653.53
3641.69
3631.38
3622.47
3614.88
3608.5
3603.24
3599.02
3595.79
3593.51
3592.17
3591.79
3592.62
3594.54
3597.69
3602.22
3608.29
3616.01
3625.52
3636.94
3650.34
3665.79
3683.31
3702.89
3724.51
3748.09
3773.5
3800.6
3829.19
3859.02
3889.77
3920.67
3952.47
3984.43
4016.1
4047.07
4076.97
4105.43
4132.09
4156.63
4178.76
4198.21
4214.78
4228.26
4238.54
4245.52
4249.13
4249.3
4246.13
4239.72
4230.14
4217.59
4202.21
4184.23
4163.86
4141.35
4116.97
4091.05
4063.93
4036.15
3457.99
3452.74
3448.91
3446.48
3445.47
3445.89
3447.71
3450.95
3455.61
3461.69
3469.24
3478.29
3488.89
3501.08
3514.92
3530.46
3547.75
3566.8
3587.63
3610.25
3634.63
3660.73
3688.51
3717.85
3748.6
3780.59
3813.58
3847.21
3881.39
3915.69
3949.71
3983.1
4015.43
4046.29
4075.26
4101.93
4125.94
4146.96
4164.67
4178.82
4189.23
4195.74
4198.25
4196.69
4191.13
4181.68
4168.4
4151.56
4131.38
4108.15
4082.22
4053.93
4023.67
3991.82
3958.78
3924.92
3890.61
3856.2
3822.05
3794.21
3762.13
3731.09
3701.4
3673.21
3646.65
3621.81
3598.74
3577.46
3558.01
3540.36
3524.52
3510.44
3498.13
3487.54
3478.65
3471.43
3465.87
3461.92
3459.58
3458.84
3459.69
3462.03
3465.9
3471.28
3478.19
3486.59
3496.48
3507.86
3520.72
3535.05
3550.85
3568.14
3586.92
3607.2
3628.99
3652.26
3676.99
3703.14
3730.62
3759.31
3789.07
3819.8
3851.15
3882.93
3914.88
3946.7
3978.06
4008.64
4038.09
4066.05
4092.18
4116.13
4137.56
4156.17
4171.67
4183.79
4192.34
4197.14
4198.01
4195.03
4188.13
4177.37
4162.88
4144.86
4123.56
4099.26
4072.32
4043.12
4012.05
3979.54
3946.01
3911.9
3877.62
3843.57
3810.11
3777.57
3746.24
3716.37
3688.16
3661.77
3637.29
3614.81
3594.33
3575.86
3559.35
3544.75
3531.98
3520.96
3511.6
3503.83
3497.55
3492.69
3489.19
3486.98
3486.02
3486.27
3487.72
3490.32
3494.07
3498.99
3505.08
3512.38
3520.91
3530.71
3541.82
3554.28
3568.14
3583.44
3600.2
3618.46
3638.23
3659.52
3682.33
3706.61
3732.33
3759.39
3787.68
3817.05
3847.34
3878.3
3909.66
3941.14
3972.42
4003.13
4032.9
4061.33
4088
4112.54
4134.53
4153.63
4169.5
4181.86
4190.5
4195.24
4195.9
4192.57
4185.22
4173.92
4158.85
4140.24
4118.38
4093.62
4066.34
4036.97
4005.94
3973.71
3940.71
3907.39
3874.14
3841.36
3809.33
3778.35
3748.66
3720.43
3693.81
3668.9
3645.75
3624.41
3604.87
3587.11
3571.11
3556.8
3544.16
3533.12
3523.63
3515.62
3509.04
3503.84
3499.95
3497.32
3495.91
3495.7
3496.66
3498.74
3501.97
3506.33
3511.86
3518.56
3526.46
3535.6
3545.99
3557.69
3570.72
3585.15
3601.02
3618.37
3637.22
3657.61
3679.52
3702.93
3727.8
3754.06
3781.62
3810.33
3840.03
3870.53
3901.54
3932.76
3963.85
3994.46
4024.18
4052.62
4079.34
4103.94
4126.02
4145.19
4161.13
4173.51
4182.11
4186.73
4187.19
4183.55
4175.79
4163.99
4148.34
4129.12
4106.65
4081.29
4053.48
4023.64
3992.23
3959.71
3926.49
3893
3859.71
3832.11
3800.58
3770.05
3740.84
3713.13
3687.09
3662.8
3640.32
3619.7
3600.93
3583.98
3568.82
3555.37
3543.53
3533.22
3524.32
3516.73
3510.35
3505.1
3500.88
3497.66
3495.37
3494.03
3493.65
3494.48
3496.39
3499.53
3504.06
3510.12
3517.84
3527.35
3538.75
3552.15
3567.6
3585.12
3604.7
3626.32
3649.9
3675.32
3702.43
3731.02
3760.86
3791.62
3822.52
3854.35
3886.32
3918.01
3948.99
3978.91
4007.38
4034.06
4058.61
4080.75
4100.22
4116.79
4130.29
4140.57
4147.56
4151.16
4151.33
4148.16
4141.74
4132.16
4119.59
4104.21
4086.21
4065.83
4043.31
4018.92
3992.98
3965.86
3938.07
3359.77
3354.53
3350.7
3348.27
3347.26
3347.68
3349.5
3352.74
3357.39
3363.48
3371.02
3380.07
3390.66
3402.84
3416.68
3432.22
3449.5
3468.55
3489.37
3511.99
3536.37
3562.47
3590.25
3619.6
3650.36
3682.37
3715.37
3749.02
3783.22
3817.55
3851.61
3885.03
3917.39
3948.29
3977.3
4004
4028.05
4049.09
4066.83
4081.01
4091.43
4097.95
4100.48
4098.9
4093.33
4083.86
4070.57
4053.7
4033.5
4010.24
3984.27
3955.94
3925.65
3893.77
3860.69
3826.8
3792.47
3758.02
3723.85
3695.99
3663.89
3632.83
3603.14
3574.95
3548.39
3523.54
3500.47
3479.2
3459.75
3442.11
3426.26
3412.2
3399.89
3389.3
3380.41
3373.2
3367.64
3363.7
3361.35
3360.62
3361.46
3363.81
3367.68
3373.06
3379.97
3388.37
3398.26
3409.63
3422.49
3436.82
3452.62
3469.91
3488.69
3508.96
3530.74
3554.02
3578.75
3604.9
3632.38
3661.09
3690.86
3721.6
3752.96
3784.77
3816.74
3848.58
3879.97
3910.58
3940.06
3968.05
3994.21
4018.19
4039.66
4058.29
4073.81
4085.96
4094.52
4099.34
4100.23
4097.22
4090.32
4079.55
4065.04
4046.99
4025.66
4001.33
3974.36
3945.11
3914
3881.46
3847.9
3813.75
3779.44
3745.36
3711.88
3679.32
3647.98
3618.1
3589.88
3563.48
3539.01
3516.53
3496.05
3477.59
3461.08
3446.49
3433.73
3422.72
3413.37
3405.6
3399.33
3394.48
3390.98
3388.78
3387.82
3388.08
3389.52
3392.12
3395.87
3400.79
3406.88
3414.18
3422.7
3432.5
3443.6
3456.06
3469.92
3485.21
3501.96
3520.22
3539.99
3561.28
3584.09
3608.37
3634.09
3661.15
3689.45
3718.84
3749.14
3780.12
3811.5
3843.01
3874.31
3905.06
3934.86
3963.32
3990.04
4014.6
4036.63
4055.76
4071.66
4084.05
4092.7
4097.45
4098.13
4094.78
4087.42
4076.1
4061
4042.37
4020.47
3995.67
3968.36
3938.94
3907.88
3875.61
3842.58
3809.22
3775.95
3743.15
3711.1
3680.11
3650.4
3622.17
3595.55
3570.63
3547.49
3526.15
3506.61
3488.86
3472.86
3458.56
3445.93
3434.89
3425.4
3417.4
3410.83
3405.63
3401.74
3399.12
3397.72
3397.51
3398.47
3400.55
3403.77
3408.14
3413.66
3420.36
3428.26
3437.39
3447.78
3459.47
3472.51
3486.93
3502.79
3520.13
3538.99
3559.37
3581.28
3604.69
3629.57
3655.83
3683.39
3712.12
3741.83
3772.35
3803.38
3834.62
3865.75
3896.39
3926.15
3954.61
3981.37
4006.01
4028.12
4047.33
4063.29
4075.71
4084.32
4088.95
4089.42
4085.76
4078
4066.18
4050.51
4031.26
4008.75
3983.36
3955.51
3925.63
3894.19
3861.63
3828.38
3794.86
3761.54
3733.91
3702.36
3671.81
3642.59
3614.88
3588.82
3564.53
3542.06
3521.44
3502.67
3485.73
3470.58
3457.13
3445.31
3435
3426.11
3418.53
3412.16
3406.91
3402.71
3399.48
3397.2
3395.86
3395.48
3396.29
3398.19
3401.32
3405.84
3411.89
3419.6
3429.09
3440.49
3453.89
3469.33
3486.84
3506.42
3528.05
3551.63
3577.05
3604.17
3632.78
3662.64
3693.43
3724.34
3756.19
3788.2
3819.91
3850.93
3880.88
3909.38
3936.09
3960.68
3982.84
4002.33
4018.92
4032.43
4042.73
4049.72
4053.34
4053.49
4050.31
4043.87
4034.28
4021.7
4006.29
3988.27
3967.87
3945.33
3920.91
3894.96
3867.81
3839.99
3261.5
3256.25
3252.43
3250.01
3249
3249.41
3251.23
3254.47
3259.12
3265.2
3272.74
3281.78
3292.36
3304.54
3318.37
3333.9
3351.17
3370.21
3391.03
3413.64
3438.03
3464.13
3491.92
3521.27
3552.05
3584.08
3617.11
3650.79
3685.03
3719.4
3753.5
3786.97
3819.39
3850.34
3879.4
3906.16
3930.26
3951.35
3969.13
3983.34
3993.78
4000.31
4002.85
4001.27
3995.68
3986.19
3972.87
3955.97
3935.72
3912.41
3886.39
3858.01
3827.66
3795.73
3762.6
3728.67
3694.3
3659.82
3625.6
3597.71
3565.57
3534.5
3504.8
3476.6
3450.04
3425.2
3402.13
3380.86
3361.41
3343.77
3327.94
3313.88
3301.57
3290.99
3282.11
3274.9
3269.34
3265.4
3263.06
3262.33
3263.17
3265.53
3269.4
3274.78
3281.68
3290.09
3299.97
3311.35
3324.21
3338.53
3354.33
3371.61
3390.38
3410.66
3432.43
3455.71
3480.44
3506.6
3534.09
3562.8
3592.6
3623.35
3654.74
3686.58
3718.58
3750.46
3781.89
3812.54
3842.07
3870.11
3896.32
3920.34
3941.85
3960.53
3976.09
3988.27
3996.86
4001.68
4002.6
3999.57
3992.67
3981.87
3967.33
3949.24
3927.86
3903.49
3876.46
3847.16
3815.99
3783.39
3749.78
3715.59
3681.23
3647.11
3613.59
3581
3549.64
3519.74
3491.51
3465.11
3440.63
3418.15
3397.69
3379.23
3362.74
3348.16
3335.41
3324.41
3315.07
3307.32
3301.05
3296.21
3292.73
3290.52
3289.57
3289.84
3291.28
3293.88
3297.63
3302.54
3308.63
3315.92
3324.44
3334.23
3345.33
3357.78
3371.63
3386.91
3403.67
3421.92
3441.68
3462.97
3485.77
3510.06
3535.78
3562.85
3591.17
3620.57
3650.9
3681.9
3713.32
3744.86
3776.21
3807
3836.85
3865.37
3892.13
3916.76
3938.84
3958.01
3973.95
3986.37
3995.05
3999.81
4000.51
3997.14
3989.77
3978.43
3963.29
3944.61
3922.67
3897.81
3870.44
3840.97
3809.84
3777.52
3744.44
3711.03
3677.71
3644.88
3612.81
3581.79
3552.07
3523.83
3497.2
3472.28
3449.14
3427.8
3408.28
3390.53
3374.54
3360.25
3347.62
3336.6
3327.12
3319.12
3312.56
3307.37
3303.49
3300.87
3299.47
3299.27
3300.23
3302.31
3305.53
3309.9
3315.42
3322.11
3330.01
3339.13
3349.52
3361.2
3374.23
3388.64
3404.5
3421.83
3440.68
3461.06
3482.97
3506.38
3531.26
3557.54
3585.11
3613.85
3643.58
3674.12
3705.19
3736.47
3767.64
3798.33
3828.14
3856.66
3883.47
3908.17
3930.33
3949.59
3965.6
3978.05
3986.69
3991.33
3991.82
3988.15
3980.36
3968.52
3952.81
3933.51
3910.95
3885.51
3857.6
3827.67
3796.17
3763.56
3730.26
3696.69
3663.33
3635.66
3604.07
3573.5
3544.26
3516.54
3490.48
3466.19
3443.72
3423.1
3404.34
3387.41
3372.26
3358.83
3347.02
3336.73
3327.85
3320.29
3313.93
3308.69
3304.49
3301.27
3298.99
3297.65
3297.27
3298.06
3299.95
3303.06
3307.56
3313.59
3321.28
3330.76
3342.15
3355.53
3370.97
3388.48
3408.06
3429.68
3453.27
3478.71
3505.84
3534.47
3564.36
3595.18
3626.11
3658
3690.06
3721.82
3752.89
3782.89
3811.44
3838.19
3862.82
3885.02
3904.55
3921.17
3934.7
3945.01
3952.01
3955.64
3955.78
3952.58
3946.13
3936.51
3923.9
3908.47
3890.42
3869.99
3847.41
3822.95
3796.97
3769.78
3741.93
3163.16
3157.92
3154.11
3151.69
3150.68
3151.09
3152.91
3156.15
3160.8
3166.87
3174.4
3183.43
3194
3206.17
3219.99
3235.5
3252.77
3271.8
3292.62
3315.22
3339.6
3365.71
3393.51
3422.87
3453.67
3485.73
3518.79
3552.51
3586.8
3621.23
3655.39
3688.93
3721.42
3752.44
3781.58
3808.4
3832.57
3853.72
3871.55
3885.81
3896.28
3902.84
3905.38
3903.81
3898.19
3888.67
3875.31
3858.35
3838.05
3814.68
3788.59
3760.14
3729.72
3697.72
3664.52
3630.53
3596.11
3561.58
3527.3
3499.36
3467.19
3436.1
3406.38
3378.17
3351.61
3326.76
3303.7
3282.44
3263
3245.37
3229.54
3215.49
3203.19
3192.62
3183.74
3176.54
3170.98
3167.05
3164.71
3163.99
3164.83
3167.18
3171.05
3176.44
3183.34
3191.75
3201.63
3213
3225.86
3240.17
3255.97
3273.24
3292.01
3312.28
3334.05
3357.33
3382.06
3408.22
3435.72
3464.46
3494.27
3525.05
3556.48
3588.35
3620.4
3652.33
3683.82
3714.53
3744.11
3772.22
3798.49
3822.58
3844.15
3862.89
3878.49
3890.72
3899.34
3904.18
3905.12
3902.08
3895.16
3884.33
3869.75
3851.61
3830.17
3805.73
3778.62
3749.25
3718.01
3685.33
3651.65
3617.39
3582.98
3548.8
3515.24
3482.61
3451.22
3421.3
3393.05
3366.64
3342.17
3319.69
3299.23
3280.79
3264.31
3249.75
3237.01
3226.03
3216.71
3208.97
3202.72
3197.89
3194.41
3192.22
3191.27
3191.55
3192.99
3195.59
3199.34
3204.25
3210.34
3217.62
3226.13
3235.91
3247
3259.44
3273.28
3288.56
3305.3
3323.54
3343.3
3364.59
3387.39
3411.68
3437.41
3464.49
3492.82
3522.25
3552.61
3583.64
3615.1
3646.7
3678.1
3708.95
3738.87
3767.46
3794.3
3818.99
3841.14
3860.38
3876.38
3888.84
3897.55
3902.33
3903.05
3899.67
3892.27
3880.89
3865.71
3846.97
3824.96
3800.03
3772.58
3743.03
3711.83
3679.43
3646.28
3612.81
3579.44
3546.56
3514.45
3483.4
3453.66
3425.41
3398.77
3373.85
3350.71
3329.38
3309.86
3292.13
3276.15
3261.87
3249.26
3238.24
3228.77
3220.79
3214.24
3209.05
3205.18
3202.58
3201.18
3200.99
3201.94
3204.03
3207.25
3211.61
3217.12
3223.82
3231.71
3240.82
3251.2
3262.88
3275.89
3290.3
3306.14
3323.47
3342.31
3362.68
3384.59
3408
3432.89
3459.17
3486.76
3515.52
3545.29
3575.86
3606.97
3638.3
3669.53
3700.28
3730.16
3758.75
3785.64
3810.41
3832.65
3851.97
3868.04
3880.53
3889.21
3893.87
3894.37
3890.69
3882.89
3871
3855.25
3835.89
3813.26
3787.74
3759.76
3729.75
3698.18
3665.5
3632.14
3598.51
3565.08
3537.35
3505.72
3475.12
3445.86
3418.12
3392.06
3367.76
3345.29
3324.68
3305.93
3289.01
3273.88
3260.47
3248.67
3238.4
3229.54
3221.99
3215.65
3210.42
3206.23
3203.02
3200.75
3199.4
3199.01
3199.78
3201.65
3204.74
3209.22
3215.23
3222.89
3232.36
3243.73
3257.09
3272.52
3290.02
3309.6
3331.23
3354.83
3380.28
3407.44
3436.09
3466.02
3496.89
3527.84
3559.79
3591.9
3623.74
3654.86
3684.93
3713.54
3740.36
3765.05
3787.3
3806.87
3823.53
3837.09
3847.42
3854.43
3858.06
3858.21
3854.99
3848.51
3838.86
3826.21
3810.74
3792.64
3772.17
3749.54
3725.05
3699.01
3671.78
3643.89
3064.76
3059.53
3055.73
3053.32
3052.31
3052.71
3054.53
3057.77
3062.41
3068.48
3076
3085.02
3095.58
3107.73
3121.54
3137.04
3154.3
3173.32
3194.12
3216.72
3241.1
3267.21
3295.02
3324.4
3355.22
3387.31
3420.41
3454.18
3488.54
3523.03
3557.28
3590.9
3623.48
3654.59
3683.82
3710.74
3734.99
3756.22
3774.11
3788.42
3798.94
3805.51
3808.06
3806.49
3800.86
3791.29
3777.88
3760.86
3740.49
3717.03
3690.86
3662.32
3631.81
3599.72
3566.45
3532.38
3497.89
3463.3
3428.96
3400.96
3368.73
3337.61
3307.88
3279.66
3253.09
3228.25
3205.19
3183.93
3164.5
3146.88
3131.06
3117.02
3104.73
3094.17
3085.3
3078.11
3072.56
3068.63
3066.3
3065.58
3066.42
3068.78
3072.65
3078.04
3084.94
3093.34
3103.22
3114.59
3127.44
3141.75
3157.54
3174.81
3193.57
3213.83
3235.6
3258.87
3283.62
3309.78
3337.3
3366.05
3395.9
3426.7
3458.17
3490.1
3522.2
3554.19
3585.75
3616.53
3646.19
3674.38
3700.73
3724.9
3746.55
3765.35
3781.03
3793.3
3801.96
3806.83
3807.78
3804.75
3797.8
3786.93
3772.3
3754.1
3732.58
3708.05
3680.86
3651.39
3620.06
3587.29
3553.52
3519.18
3484.69
3450.45
3416.83
3384.15
3352.72
3322.77
3294.51
3268.09
3243.61
3221.14
3200.69
3182.26
3165.81
3151.26
3138.55
3127.59
3118.29
3110.56
3104.33
3099.52
3096.05
3093.87
3092.93
3093.21
3094.65
3097.25
3101.01
3105.91
3111.99
3119.27
3127.77
3137.54
3148.62
3161.05
3174.88
3190.14
3206.87
3225.11
3244.86
3266.14
3288.94
3313.23
3338.97
3366.06
3394.42
3423.87
3454.27
3485.35
3516.86
3548.52
3579.99
3610.93
3640.93
3669.6
3696.54
3721.32
3743.55
3762.87
3778.94
3791.46
3800.21
3805.02
3805.75
3802.36
3794.93
3783.51
3768.27
3749.45
3727.35
3702.33
3674.78
3645.13
3613.83
3581.34
3548.11
3514.56
3481.12
3448.18
3416.02
3384.94
3355.18
3326.91
3300.26
3275.34
3252.21
3230.88
3211.37
3193.66
3177.69
3163.43
3150.82
3139.82
3130.37
3122.4
3115.86
3110.69
3106.83
3104.23
3102.85
3102.65
3103.61
3105.7
3108.92
3113.28
3118.79
3125.47
3133.35
3142.46
3152.83
3164.49
3177.5
3191.89
3207.72
3225.04
3243.87
3264.23
3286.14
3309.56
3334.45
3360.74
3388.35
3417.14
3446.94
3477.55
3508.72
3540.12
3571.42
3602.25
3632.21
3660.9
3687.88
3712.74
3735.06
3754.48
3770.61
3783.17
3791.89
3796.58
3797.09
3793.4
3785.56
3773.63
3757.82
3738.39
3715.67
3690.06
3661.98
3631.87
3600.21
3567.45
3534
3500.3
3466.79
3438.99
3407.3
3376.66
3347.38
3319.63
3293.55
3269.25
3246.78
3226.18
3207.44
3190.54
3175.43
3162.03
3150.26
3140.02
3131.18
3123.65
3117.33
3112.12
3107.94
3104.73
3102.46
3101.12
3100.72
3101.47
3103.31
3106.37
3110.82
3116.8
3124.44
3133.87
3145.22
3158.57
3173.98
3191.48
3211.06
3232.69
3256.3
3281.76
3308.95
3337.65
3367.61
3398.54
3429.52
3461.55
3493.74
3525.65
3556.86
3587.01
3615.7
3642.59
3667.35
3689.67
3709.3
3726.01
3739.61
3749.97
3756.99
3760.62
3760.76
3757.52
3751
3741.32
3728.62
3713.1
3694.95
3674.42
3651.74
3627.18
3601.09
3573.81
3545.86
2966.3
2961.09
2957.29
2954.89
2953.89
2954.28
2956.1
2959.34
2963.97
2970.03
2977.54
2986.55
2997.09
3009.23
3023.01
3038.5
3055.74
3074.75
3095.55
3118.14
3142.52
3168.63
3196.44
3225.85
3256.7
3288.83
3321.98
3355.81
3390.24
3424.83
3459.16
3492.89
3525.57
3556.8
3586.13
3613.16
3637.51
3658.83
3676.81
3691.18
3701.75
3708.35
3710.91
3709.33
3703.68
3694.06
3680.59
3663.5
3643.03
3619.48
3593.2
3564.56
3533.94
3501.75
3468.38
3434.22
3399.65
3364.99
3330.56
3302.48
3270.19
3239.05
3209.29
3181.07
3154.49
3129.65
3106.59
3085.34
3065.92
3048.31
3032.51
3018.48
3006.21
2995.66
2986.8
2979.61
2974.07
2970.15
2967.83
2967.11
2967.95
2970.31
2974.19
2979.57
2986.48
2994.88
3004.76
3016.13
3028.97
3043.27
3059.05
3076.31
3095.06
3115.32
3137.09
3160.35
3185.1
3211.28
3238.81
3267.58
3297.46
3328.3
3359.83
3391.81
3423.98
3456.05
3487.69
3518.56
3548.31
3576.59
3603.04
3627.3
3649.04
3667.94
3683.68
3696.03
3704.74
3709.64
3710.6
3707.57
3700.59
3689.68
3674.99
3656.71
3635.1
3610.47
3583.17
3553.58
3522.14
3489.26
3455.38
3420.95
3386.36
3352.04
3318.36
3285.62
3254.14
3224.16
3195.88
3169.44
3144.96
3122.5
3102.07
3083.65
3067.22
3052.7
3040.01
3029.07
3019.8
3012.1
3005.89
3001.09
2997.64
2995.47
2994.54
2994.82
2996.27
2998.87
3002.62
3007.53
3013.6
3020.86
3029.35
3039.11
3050.18
3062.6
3076.41
3091.66
3108.38
3126.6
3146.34
3167.62
3190.42
3214.71
3240.46
3267.57
3295.95
3325.44
3355.88
3387.01
3418.59
3450.33
3481.89
3512.91
3543.02
3571.8
3598.84
3623.73
3646.07
3665.48
3681.63
3694.22
3703.02
3707.86
3708.6
3705.21
3697.74
3686.27
3670.95
3652.05
3629.85
3604.71
3577.05
3547.28
3515.86
3483.26
3449.92
3416.28
3382.76
3349.75
3317.53
3286.41
3256.62
3228.32
3201.67
3176.75
3153.62
3132.3
3112.81
3095.1
3079.15
3064.91
3052.33
3041.34
3031.9
3023.95
3017.43
3012.27
3008.42
3005.84
3004.47
3004.28
3005.24
3007.33
3010.54
3014.9
3020.4
3027.08
3034.95
3044.05
3054.41
3066.06
3079.04
3093.42
3109.24
3126.54
3145.36
3165.72
3187.62
3211.04
3235.94
3262.25
3289.88
3318.7
3348.54
3379.21
3410.44
3441.92
3473.3
3504.23
3534.3
3563.09
3590.19
3615.15
3637.59
3657.1
3673.32
3685.95
3694.73
3699.45
3699.98
3696.28
3688.4
3676.41
3660.52
3641
3618.18
3592.46
3564.27
3534.05
3502.27
3469.4
3435.86
3402.07
3368.47
3340.58
3308.82
3278.14
3248.82
3221.05
3194.97
3170.66
3148.2
3127.6
3108.87
3091.99
3076.9
3063.53
3051.79
3041.57
3032.76
3025.26
3018.96
3013.77
3009.61
3006.41
3004.14
3002.8
3002.39
3003.11
3004.92
3007.95
3012.36
3018.3
3025.91
3035.31
3046.63
3059.96
3075.36
3092.85
3112.42
3134.06
3157.68
3183.17
3210.39
3239.13
3269.15
3300.15
3331.17
3363.27
3395.56
3427.57
3458.88
3489.12
3517.91
3544.89
3569.74
3592.14
3611.84
3628.6
3642.25
3652.64
3659.68
3663.31
3663.44
3660.17
3653.62
3643.89
3631.14
3615.56
3597.34
3576.74
3553.99
3529.37
3503.21
3475.86
3447.84
2867.78
2862.58
2858.79
2856.4
2855.41
2855.8
2857.62
2860.85
2865.48
2871.53
2879.02
2888.01
2898.54
2910.65
2924.42
2939.89
2957.12
2976.11
2996.89
3019.48
3043.85
3069.97
3097.79
3127.22
3158.1
3190.28
3223.49
3257.39
3291.92
3326.6
3361.04
3394.88
3427.69
3459.05
3488.51
3515.66
3540.13
3561.56
3579.63
3594.08
3604.7
3611.34
3613.91
3612.33
3606.65
3596.97
3583.43
3566.25
3545.69
3522.02
3495.62
3466.85
3436.11
3403.8
3370.31
3336.05
3301.38
3266.64
3232.13
3203.94
3171.58
3140.41
3110.63
3082.4
3055.81
3030.97
3007.92
2986.68
2967.27
2949.67
2933.88
2919.87
2907.61
2897.07
2888.23
2881.05
2875.52
2871.61
2869.29
2868.57
2869.42
2871.79
2875.66
2881.05
2887.96
2896.35
2906.23
2917.6
2930.43
2944.73
2960.5
2977.75
2996.49
3016.74
3038.5
3061.76
3086.51
3112.7
3140.25
3169.05
3198.97
3229.85
3261.44
3293.49
3325.75
3357.9
3389.63
3420.61
3450.47
3478.86
3505.42
3529.79
3551.64
3570.63
3586.47
3598.89
3607.66
3612.6
3613.58
3610.55
3603.53
3592.57
3577.81
3559.44
3537.72
3512.97
3485.54
3455.83
3424.25
3391.24
3357.24
3322.69
3288
3253.58
3219.82
3187.01
3155.48
3125.46
3097.15
3070.71
3046.22
3023.77
3003.35
2984.96
2968.55
2954.06
2941.4
2930.49
2921.25
2913.57
2907.38
2902.61
2899.18
2897.02
2896.11
2896.39
2897.85
2900.45
2904.2
2909.09
2915.16
2922.41
2930.89
2940.63
2951.68
2964.08
2977.88
2993.12
3009.82
3028.03
3047.76
3069.03
3091.82
3116.12
3141.88
3169.01
3197.42
3226.95
3257.44
3288.64
3320.3
3352.12
3383.78
3414.91
3445.13
3474.04
3501.21
3526.22
3548.68
3568.21
3584.45
3597.13
3605.99
3610.86
3611.62
3608.22
3600.71
3589.17
3573.77
3554.76
3532.44
3507.18
3479.37
3449.47
3417.91
3385.18
3351.72
3317.97
3284.35
3251.26
3218.98
3187.81
3157.98
3129.66
3102.99
3078.07
3054.94
3033.64
3014.17
2996.48
2980.55
2966.33
2953.76
2942.8
2933.38
2925.45
2918.94
2913.8
2909.97
2907.4
2906.04
2905.85
2906.82
2908.91
2912.12
2916.47
2921.97
2928.64
2936.5
2945.59
2955.93
2967.56
2980.53
2994.89
3010.69
3027.98
3046.78
3067.13
3089.03
3112.45
3137.36
3163.69
3191.34
3220.2
3250.09
3280.82
3312.13
3343.69
3375.18
3406.22
3436.41
3465.33
3492.56
3517.66
3540.21
3559.84
3576.17
3588.88
3597.72
3602.48
3603.02
3599.32
3591.39
3579.34
3563.36
3543.74
3520.79
3494.94
3466.62
3436.26
3404.36
3371.37
3337.72
3303.82
3270.12
3242.1
3210.27
3179.54
3150.19
3122.4
3096.3
3071.99
3049.52
3028.94
3010.22
2993.36
2978.3
2964.97
2953.26
2943.07
2934.29
2926.82
2920.55
2915.38
2911.23
2908.05
2905.79
2904.44
2904.03
2904.71
2906.48
2909.47
2913.84
2919.74
2927.3
2936.67
2947.96
2961.27
2976.65
2994.13
3013.7
3035.34
3058.98
3084.49
3111.75
3140.53
3170.63
3201.7
3232.76
3264.97
3297.37
3329.49
3360.91
3391.27
3420.17
3447.26
3472.21
3494.7
3514.48
3531.31
3545.01
3555.44
3562.5
3566.14
3566.26
3562.95
3556.35
3546.57
3533.76
3518.1
3499.82
3479.14
3456.3
3431.6
3405.36
3377.93
3349.84
2769.21
2764.02
2760.25
2757.86
2756.87
2757.27
2759.08
2762.3
2766.93
2772.96
2780.44
2789.41
2799.92
2812.01
2825.76
2841.21
2858.41
2877.39
2898.16
2920.73
2945.1
2971.23
2999.06
3028.51
3059.44
3091.67
3124.94
3158.93
3193.55
3228.35
3262.91
3296.89
3329.84
3361.34
3390.96
3418.25
3442.86
3464.41
3482.59
3497.13
3507.81
3514.5
3517.08
3515.49
3509.78
3500.03
3486.41
3469.13
3448.45
3424.65
3398.11
3369.2
3338.32
3305.86
3272.24
3237.86
3203.09
3168.26
3133.66
3105.32
3072.9
3041.69
3011.89
2983.64
2957.05
2932.2
2909.16
2887.93
2868.53
2850.95
2835.18
2821.18
2808.94
2798.42
2789.59
2782.43
2776.9
2773
2770.69
2769.97
2770.83
2773.2
2777.08
2782.47
2789.37
2797.76
2807.64
2819
2831.83
2846.12
2861.88
2879.12
2897.85
2918.09
2939.84
2963.1
2987.86
3014.05
3041.62
3070.46
3100.42
3131.36
3163.01
3195.15
3227.49
3259.74
3291.58
3322.68
3352.66
3381.18
3407.87
3432.37
3454.34
3473.45
3489.39
3501.89
3510.73
3515.71
3516.72
3513.68
3506.63
3495.61
3480.76
3462.28
3440.44
3415.56
3387.98
3358.12
3326.39
3293.23
3259.09
3224.4
3189.6
3155.07
3121.21
3088.33
3056.74
3026.67
2998.34
2971.88
2947.39
2924.94
2904.54
2886.18
2869.8
2855.34
2842.72
2831.84
2822.63
2814.99
2808.83
2804.07
2800.66
2798.53
2797.62
2797.92
2799.38
2801.98
2805.73
2810.62
2816.67
2823.91
2832.37
2842.1
2853.13
2865.51
2879.29
2894.51
2911.2
2929.39
2949.11
2970.37
2993.16
3017.46
3043.23
3070.39
3098.83
3128.41
3158.95
3190.23
3221.97
3253.89
3285.66
3316.92
3347.28
3376.33
3403.64
3428.81
3451.41
3471.06
3487.42
3500.18
3509.11
3514.02
3514.8
3511.38
3503.83
3492.22
3476.72
3457.59
3435.14
3409.72
3381.76
3351.69
3319.98
3287.1
3253.5
3219.63
3185.9
3152.71
3120.35
3089.13
3059.26
3030.92
3004.24
2979.31
2956.19
2934.9
2915.44
2897.78
2881.87
2867.67
2855.13
2844.19
2834.79
2826.88
2820.4
2815.28
2811.46
2808.91
2807.56
2807.39
2808.36
2810.45
2813.66
2818
2823.49
2830.15
2838
2847.08
2857.4
2869.01
2881.96
2896.3
2912.08
2929.35
2948.14
2968.48
2990.37
3013.8
3038.72
3065.06
3092.75
3121.64
3151.59
3182.39
3213.79
3245.45
3277.05
3308.22
3338.55
3367.62
3395
3420.24
3442.94
3462.7
3479.15
3491.96
3500.87
3505.68
3506.24
3502.52
3494.55
3482.42
3466.34
3446.59
3423.51
3397.51
3369.03
3338.52
3306.47
3273.34
3239.56
3205.55
3171.73
3143.57
3111.66
3080.87
3051.48
3023.66
2997.55
2973.23
2950.77
2930.19
2911.5
2894.67
2879.64
2866.33
2854.66
2844.51
2835.77
2828.34
2822.09
2816.95
2812.83
2809.65
2807.4
2806.05
2805.63
2806.27
2807.99
2810.93
2815.26
2821.11
2828.63
2837.96
2849.21
2862.49
2877.85
2895.31
2914.88
2936.53
2960.18
2985.73
3013.02
3041.87
3072.04
3103.21
3134.32
3166.64
3199.16
3231.41
3262.97
3293.46
3322.48
3349.7
3374.76
3397.36
3417.23
3434.14
3447.9
3458.37
3465.45
3469.1
3469.2
3465.86
3459.21
3449.36
3436.48
3420.74
3402.37
3381.6
3358.68
3333.88
3307.55
3280.03
3251.85
2670.57
2665.4
2661.64
2659.27
2658.28
2658.69
2660.49
2663.7
2668.32
2674.34
2681.81
2690.76
2701.24
2713.31
2727.02
2742.45
2759.63
2778.59
2799.34
2821.91
2846.27
2872.4
2900.25
2929.73
2960.69
2992.98
3026.34
3060.42
3095.16
3130.08
3164.78
3198.91
3232.02
3263.69
3293.48
3320.93
3345.69
3367.39
3385.68
3400.32
3411.08
3417.81
3420.4
3418.81
3413.05
3403.24
3389.53
3372.13
3351.32
3327.37
3300.68
3271.6
3240.56
3207.95
3174.18
3139.67
3104.78
3069.84
3035.15
3006.62
2974.13
2942.89
2913.06
2884.79
2858.2
2833.35
2810.31
2789.1
2769.72
2752.16
2736.4
2722.43
2710.2
2699.7
2690.88
2683.73
2678.22
2674.32
2672.03
2671.32
2672.18
2674.55
2678.43
2683.83
2690.73
2699.12
2708.99
2720.35
2733.17
2747.45
2763.2
2780.42
2799.14
2819.36
2841.11
2864.37
2889.13
2915.34
2942.93
2971.81
3001.82
3032.81
3064.54
3096.77
3129.21
3161.58
3193.54
3224.76
3254.89
3283.55
3310.38
3335.03
3357.14
3376.38
3392.43
3405.04
3413.95
3418.98
3420.01
3416.97
3409.88
3398.79
3383.85
3365.25
3343.27
3318.23
3290.49
3260.46
3228.56
3195.23
3160.93
3126.1
3091.15
3056.51
3022.54
2989.58
2957.92
2927.8
2899.43
2872.95
2848.47
2826.03
2805.65
2787.31
2770.97
2756.55
2743.96
2733.13
2723.95
2716.34
2710.21
2705.49
2702.1
2699.98
2699.09
2699.4
2700.86
2703.46
2707.21
2712.09
2718.13
2725.36
2733.8
2743.51
2754.52
2766.89
2780.64
2795.84
2812.51
2830.68
2850.39
2871.64
2894.43
2918.73
2944.51
2971.7
3000.17
3029.8
3060.41
3091.77
3123.61
3155.65
3187.55
3218.95
3249.46
3278.67
3306.15
3331.47
3354.23
3374.03
3390.51
3403.38
3412.39
3417.35
3418.14
3414.71
3407.11
3395.42
3379.81
3360.54
3337.93
3312.35
3284.21
3253.96
3222.08
3189.02
3155.27
3121.25
3087.4
3054.1
3021.66
2990.37
2960.46
2932.09
2905.4
2880.47
2857.35
2836.08
2816.65
2799.01
2783.12
2768.95
2756.43
2745.52
2736.15
2728.26
2721.8
2716.7
2712.91
2710.37
2709.04
2708.87
2709.85
2711.94
2715.15
2719.48
2724.96
2731.61
2739.45
2748.51
2758.82
2770.41
2783.34
2797.65
2813.4
2830.65
2849.42
2869.75
2891.64
2915.07
2940
2966.37
2994.09
3023.03
3053.03
3083.91
3115.42
3147.19
3178.92
3210.23
3240.72
3269.95
3297.5
3322.92
3345.78
3365.69
3382.27
3395.19
3404.18
3409.04
3409.62
3405.88
3397.86
3385.65
3369.45
3349.57
3326.33
3300.16
3271.51
3240.83
3208.61
3175.32
3141.4
3107.26
3073.31
3044.98
3012.97
2982.12
2952.69
2924.84
2898.71
2874.39
2851.94
2831.37
2812.7
2795.89
2780.9
2767.63
2756
2745.9
2737.2
2729.8
2723.6
2718.48
2714.38
2711.22
2708.97
2707.62
2707.2
2707.78
2709.46
2712.35
2716.62
2722.42
2729.88
2739.16
2750.38
2763.62
2778.96
2796.41
2815.98
2837.63
2861.3
2886.88
2914.22
2943.13
2973.39
3004.66
3035.82
3068.28
3100.94
3133.34
3165.04
3195.68
3224.85
3252.2
3277.39
3300.11
3320.09
3337.09
3350.91
3361.43
3368.54
3372.19
3372.27
3368.9
3362.18
3352.27
3339.3
3323.48
3305.01
3284.13
3261.1
3236.2
3209.78
3182.16
3153.87
2571.88
2566.73
2562.98
2560.62
2559.64
2560.05
2561.85
2565.05
2569.66
2575.66
2583.11
2592.03
2602.49
2614.53
2628.22
2643.62
2660.78
2679.71
2700.45
2723
2747.36
2773.5
2801.36
2830.87
2861.88
2894.24
2927.67
2961.86
2996.72
3031.79
3066.65
3100.95
3134.23
3166.09
3196.06
3223.7
3248.63
3270.48
3288.91
3303.65
3314.5
3321.28
3323.89
3322.28
3316.49
3306.6
3292.78
3275.26
3254.3
3230.19
3203.32
3174.06
3142.84
3110.05
3076.12
3041.45
3006.43
2971.39
2936.61
2907.83
2875.29
2844
2814.15
2785.87
2759.26
2734.42
2711.39
2690.19
2670.82
2653.28
2637.55
2623.6
2611.39
2600.91
2592.11
2584.97
2579.47
2575.59
2573.3
2572.6
2573.47
2575.84
2579.72
2585.12
2592.03
2600.41
2610.28
2621.63
2634.44
2648.72
2664.45
2681.66
2700.36
2720.58
2742.31
2765.57
2790.33
2816.56
2844.18
2873.09
2903.15
2934.21
2966.03
2998.35
3030.91
3063.4
3095.5
3126.87
3157.15
3185.97
3212.97
3237.78
3260.04
3279.42
3295.61
3308.32
3317.32
3322.41
3323.46
3320.42
3313.28
3302.12
3287.07
3268.34
3246.21
3220.99
3193.07
3162.85