/*--------------------------------*- C++ -*----------------------------------*\
| =========                 |                                                 |
| \\      /  F ield         | OpenFOAM: The Open Source CFD Toolbox           |
|  \\    /   O peration     | Version:  3.0.1                                 |
|   \\  /    A nd           | Web:      www.OpenFOAM.org                      |
|    \\/     M anipulation  |                                                 |
\*---------------------------------------------------------------------------*/
FoamFile
{
    version     2.0;
    format      ascii;
    class       volScalarField;
    location    "9.6";
    object      p;
}
// * * * * * * * * * * * * * * * * * * * * * * * * * * * * * * * * * * * * * //

dimensions      [1 -1 -2 0 0 0 0];

internalField   nonuniform List<scalar> 
21420
(
3572.19
3578.78
3586.62
3595.69
3605.98
3617.53
3630.38
3644.59
3660.17
3677.16
3695.59
3715.46
3736.77
3759.47
3783.52
3808.8
3835.24
3862.78
3891.19
3921.23
3953.3
3983.44
4012.56
4040.63
4067.37
4092.44
4115.47
4136.11
4154.04
4168.96
4180.61
4188.84
4193.51
4194.9
4193.36
4188.74
4181
4170.23
4156.63
4140.51
4122.14
4101.96
4080.35
4057.87
4035.13
4012.64
3990.84
3970.13
3950.77
3932.94
3916.7
3901.95
3887.15
3876.04
3866.48
3858.44
3851.82
3846.51
3842.37
3839.26
3837.06
3835.63
3834.84
3834.58
3834.77
3835.22
3835.78
3836.47
3837.29
3838.25
3839.33
3840.49
3841.74
3843.08
3844.51
3846.06
3847.76
3849.65
3851.76
3854.15
3856.85
3859.89
3863.33
3867.16
3871.41
3876.1
3881.64
3887.1
3892.85
3898.84
3905.02
3911.29
3917.58
3923.81
3929.88
3935.73
3941.27
3946.44
3951.18
3955.41
3959.11
3962.22
3964.72
3966.6
3967.86
3968.5
3968.54
3968.02
3966.97
3965.44
3963.46
3961.1
3958.4
3955.41
3952.18
3948.74
3945.12
3941.35
3937.44
3933.41
3929.25
3924.96
3920.55
3916.03
3911.4
3906.67
3901.89
3897.07
3892.25
3887.48
3882.8
3878.26
3873.88
3869.71
3865.77
3862.09
3858.68
3855.55
3852.71
3850.16
3847.9
3845.92
3844.23
3842.82
3841.69
3840.86
3840.31
3840.07
3840.15
3840.57
3841.33
3842.46
3843.98
3845.92
3848.28
3851.1
3854.39
3858.15
3862.39
3867.12
3872.31
3877.96
3884.05
3890.5
3897.28
3904.31
3911.54
3918.89
3926.25
3933.55
3940.67
3947.52
3953.99
3959.99
3965.42
3970.18
3974.19
3977.39
3979.72
3981.13
3981.58
3981.06
3979.57
3977.12
3973.73
3969.43
3964.28
3958.34
3951.68
3944.38
3936.52
3928.21
3919.54
3910.61
3901.52
3892.37
3883.26
3874.28
3865.51
3857.03
3848.92
3841.23
3834.04
3827.37
3821.29
3815.81
3810.97
3806.78
3803.26
3800.42
3798.24
3796.73
3795.88
3795.66
3796.06
3797.06
3798.63
3800.74
3803.36
3806.47
3810.02
3813.99
3818.34
3823.02
3828.01
3833.26
3838.74
3844.41
3850.22
3856.14
3862.13
3868.15
3874.16
3880.13
3886.02
3891.79
3897.43
3902.89
3908.14
3913.16
3917.93
3922.43
3926.63
3930.52
3934.09
3937.32
3940.21
3942.75
3944.94
3946.78
3948.27
3949.42
3950.24
3950.73
3950.91
3950.79
3950.39
3949.72
3948.79
3947.64
3946.27
3944.7
3942.96
3941.07
3939.03
3936.89
3934.64
3932.32
3929.93
3927.51
3925.05
3922.58
3920.11
3917.66
3915.23
3912.83
3910.48
3908.19
3905.95
3903.79
3901.7
3899.69
3897.77
3895.93
3894.18
3892.53
3890.97
3889.5
3888.13
3886.85
3885.66
3884.57
3883.55
3882.63
3881.78
3881.01
3880.31
3879.68
3879.11
3878.6
3878.15
3877.74
3877.38
3877.07
3876.79
3876.55
3876.33
3876.14
3875.98
3875.84
3875.71
3875.61
3875.51
3875.43
3875.36
3875.3
3875.25
3875.21
3875.17
3875.14
3875.11
3875.09
3875.07
3875.05
3875.03
3875.02
3875.01
3875
3874.99
3874.99
3874.98
3874.98
3874.97
3874.97
3874.97
3874.96
3874.96
3874.96
3874.96
3874.96
3874.96
3874.95
3874.95
3874.95
3874.95
3874.95
3874.95
3874.95
3874.95
3874.95
3874.95
3874.95
3874.95
3874.95
3874.95
3874.95
3874.95
3474.04
3480.63
3488.47
3497.54
3507.83
3519.38
3532.22
3546.43
3562.01
3579
3597.42
3617.29
3638.6
3661.3
3685.35
3710.64
3737.08
3764.62
3793.04
3823.09
3855.17
3885.33
3914.46
3942.55
3969.3
3994.39
4017.44
4038.1
4056.05
4070.98
4082.65
4090.88
4095.55
4096.94
4095.4
4090.78
4083.02
4072.24
4058.63
4042.49
4024.1
4003.9
3982.27
3959.77
3937.01
3914.51
3892.7
3871.98
3852.61
3834.78
3818.53
3803.77
3788.99
3777.88
3768.32
3760.28
3753.67
3748.36
3744.22
3741.12
3738.92
3737.49
3736.71
3736.46
3736.65
3737.1
3737.66
3738.35
3739.17
3740.14
3741.21
3742.38
3743.64
3744.97
3746.4
3747.95
3749.65
3751.54
3753.65
3756.03
3758.73
3761.77
3765.21
3769.05
3773.29
3777.98
3783.53
3788.99
3794.74
3800.74
3806.91
3813.19
3819.49
3825.71
3831.79
3837.64
3843.19
3848.36
3853.1
3857.33
3861.03
3864.14
3866.65
3868.53
3869.78
3870.42
3870.47
3869.94
3868.89
3867.35
3865.38
3863.01
3860.31
3857.32
3854.09
3850.64
3847.02
3843.25
3839.35
3835.31
3831.15
3826.87
3822.46
3817.93
3813.3
3808.58
3803.79
3798.97
3794.15
3789.38
3784.7
3780.15
3775.77
3771.6
3767.66
3763.98
3760.57
3757.44
3754.6
3752.05
3749.79
3747.81
3746.12
3744.71
3743.58
3742.74
3742.2
3741.96
3742.04
3742.45
3743.21
3744.34
3745.87
3747.8
3750.17
3752.98
3756.27
3760.03
3764.27
3769
3774.19
3779.85
3785.94
3792.39
3799.16
3806.2
3813.44
3820.78
3828.15
3835.45
3842.58
3849.43
3855.91
3861.91
3867.34
3872.11
3876.13
3879.33
3881.66
3883.07
3883.52
3883
3881.51
3879.06
3875.66
3871.37
3866.21
3860.27
3853.6
3846.3
3838.44
3830.12
3821.45
3812.51
3803.42
3794.27
3785.15
3776.17
3767.4
3758.92
3750.8
3743.11
3735.91
3729.25
3723.16
3717.68
3712.84
3708.66
3705.14
3702.29
3700.12
3698.61
3697.75
3697.54
3697.94
3698.94
3700.51
3702.62
3705.24
3708.35
3711.91
3715.88
3720.22
3724.91
3729.9
3735.16
3740.64
3746.3
3752.11
3758.03
3764.02
3770.04
3776.06
3782.03
3787.92
3793.7
3799.33
3804.79
3810.05
3815.07
3819.84
3824.34
3828.54
3832.43
3836
3839.23
3842.12
3844.66
3846.85
3848.69
3850.18
3851.33
3852.15
3852.64
3852.82
3852.7
3852.3
3851.63
3850.7
3849.55
3848.18
3846.61
3844.87
3842.97
3840.94
3838.79
3836.54
3834.22
3831.83
3829.41
3826.95
3824.48
3822.01
3819.55
3817.12
3814.73
3812.38
3810.08
3807.85
3805.69
3803.6
3801.59
3799.66
3797.83
3796.08
3794.43
3792.87
3791.4
3790.03
3788.75
3787.56
3786.46
3785.45
3784.52
3783.67
3782.9
3782.2
3781.57
3781
3780.5
3780.04
3779.64
3779.28
3778.97
3778.69
3778.44
3778.23
3778.04
3777.88
3777.74
3777.61
3777.51
3777.41
3777.33
3777.26
3777.2
3777.15
3777.11
3777.07
3777.04
3777.01
3776.99
3776.97
3776.95
3776.93
3776.92
3776.91
3776.9
3776.89
3776.89
3776.88
3776.88
3776.87
3776.87
3776.87
3776.86
3776.86
3776.86
3776.86
3776.86
3776.86
3776.85
3776.85
3776.85
3776.85
3776.85
3776.85
3776.85
3776.85
3776.85
3776.85
3776.85
3776.85
3776.85
3776.85
3776.85
3776.85
3375.84
3382.43
3390.27
3399.34
3409.62
3421.17
3434.01
3448.21
3463.79
3480.77
3499.19
3519.05
3540.36
3563.06
3587.12
3612.41
3638.86
3666.41
3694.84
3724.91
3757.02
3787.2
3816.36
3844.49
3871.27
3896.4
3919.49
3940.18
3958.17
3973.13
3984.82
3993.07
3997.74
3999.13
3997.59
3992.96
3985.18
3974.37
3960.72
3944.54
3926.11
3905.87
3884.21
3861.67
3838.88
3816.35
3794.52
3773.78
3754.4
3736.56
3720.3
3705.52
3690.77
3679.66
3670.1
3662.07
3655.46
3650.16
3646.03
3642.94
3640.75
3639.33
3638.55
3638.31
3638.51
3638.96
3639.53
3640.22
3641.05
3642.01
3643.09
3644.26
3645.52
3646.85
3648.28
3649.83
3651.53
3653.41
3655.52
3657.9
3660.6
3663.64
3667.08
3670.91
3675.16
3679.84
3685.41
3690.86
3696.62
3702.62
3708.8
3715.09
3721.39
3727.62
3733.71
3739.56
3745.12
3750.29
3755.03
3759.28
3762.97
3766.09
3768.6
3770.48
3771.73
3772.37
3772.41
3771.88
3770.83
3769.29
3767.31
3764.94
3762.24
3759.24
3756
3752.56
3748.94
3745.16
3741.26
3737.22
3733.06
3728.78
3724.37
3719.84
3715.21
3710.48
3705.69
3700.86
3696.04
3691.27
3686.59
3682.03
3677.65
3673.48
3669.54
3665.86
3662.45
3659.32
3656.48
3653.93
3651.67
3649.69
3648
3646.59
3645.46
3644.62
3644.08
3643.84
3643.91
3644.32
3645.08
3646.21
3647.73
3649.67
3652.03
3654.85
3658.13
3661.89
3666.13
3670.86
3676.06
3681.71
3687.8
3694.26
3701.04
3708.09
3715.33
3722.68
3730.06
3737.36
3744.5
3751.36
3757.85
3763.86
3769.29
3774.06
3778.09
3781.3
3783.63
3785.04
3785.49
3784.98
3783.49
3781.03
3777.63
3773.33
3768.18
3762.22
3755.55
3748.24
3740.37
3732.05
3723.36
3714.42
3705.32
3696.16
3687.04
3678.05
3669.27
3660.78
3652.66
3644.97
3637.77
3631.1
3625.01
3619.53
3614.69
3610.5
3606.98
3604.14
3601.96
3600.45
3599.6
3599.39
3599.79
3600.79
3602.37
3604.48
3607.11
3610.22
3613.77
3617.75
3622.1
3626.79
3631.78
3637.04
3642.52
3648.19
3654
3659.93
3665.92
3671.94
3677.96
3683.93
3689.83
3695.61
3701.25
3706.71
3711.97
3716.99
3721.77
3726.26
3730.47
3734.36
3737.93
3741.16
3744.05
3746.59
3748.78
3750.62
3752.11
3753.26
3754.08
3754.57
3754.74
3754.62
3754.22
3753.54
3752.62
3751.46
3750.09
3748.52
3746.78
3744.88
3742.85
3740.7
3738.45
3736.12
3733.74
3731.31
3728.85
3726.38
3723.91
3721.45
3719.02
3716.62
3714.27
3711.98
3709.74
3707.58
3705.49
3703.48
3701.55
3699.72
3697.97
3696.32
3694.76
3693.29
3691.92
3690.64
3689.45
3688.35
3687.34
3686.41
3685.57
3684.8
3684.1
3683.47
3682.9
3682.39
3681.94
3681.54
3681.18
3680.86
3680.58
3680.34
3680.13
3679.94
3679.78
3679.64
3679.51
3679.41
3679.31
3679.23
3679.16
3679.1
3679.05
3679.01
3678.97
3678.94
3678.91
3678.89
3678.87
3678.85
3678.83
3678.82
3678.81
3678.8
3678.79
3678.79
3678.78
3678.78
3678.77
3678.77
3678.77
3678.76
3678.76
3678.76
3678.76
3678.76
3678.76
3678.75
3678.75
3678.75
3678.75
3678.75
3678.75
3678.75
3678.75
3678.75
3678.75
3678.75
3678.75
3678.75
3678.75
3678.75
3678.75
3277.6
3284.19
3292.02
3301.08
3311.36
3322.9
3335.73
3349.92
3365.5
3382.47
3400.88
3420.75
3442.05
3464.76
3488.82
3514.12
3540.58
3568.15
3596.6
3626.69
3658.84
3689.07
3718.27
3746.44
3773.28
3798.47
3821.61
3842.36
3860.4
3875.4
3887.13
3895.39
3900.06
3901.46
3899.93
3895.27
3887.46
3876.6
3862.9
3846.67
3828.18
3807.88
3786.16
3763.57
3740.73
3718.16
3696.3
3675.53
3656.14
3638.27
3622
3607.18
3592.48
3581.37
3571.82
3563.8
3557.2
3551.91
3547.79
3544.71
3542.54
3541.13
3540.37
3540.14
3540.35
3540.8
3541.38
3542.08
3542.91
3543.88
3544.96
3546.13
3547.39
3548.72
3550.15
3551.7
3553.4
3555.28
3557.38
3559.76
3562.45
3565.49
3568.92
3572.76
3577.01
3581.69
3587.27
3592.72
3598.48
3604.5
3610.69
3616.98
3623.29
3629.54
3635.63
3641.5
3647.06
3652.24
3656.99
3661.24
3664.94
3668.06
3670.57
3672.45
3673.71
3674.34
3674.38
3673.85
3672.79
3671.24
3669.25
3666.88
3664.17
3661.17
3657.92
3654.47
3650.85
3647.08
3643.17
3639.13
3634.97
3630.69
3626.28
3621.75
3617.11
3612.39
3607.59
3602.76
3597.94
3593.16
3588.47
3583.91
3579.53
3575.35
3571.41
3567.72
3564.31
3561.19
3558.35
3555.8
3553.53
3551.56
3549.86
3548.45
3547.32
3546.49
3545.94
3545.7
3545.77
3546.18
3546.94
3548.07
3549.58
3551.51
3553.88
3556.69
3559.97
3563.73
3567.98
3572.7
3577.9
3583.56
3589.66
3596.12
3602.91
3609.96
3617.21
3624.57
3631.96
3639.28
3646.43
3653.3
3659.8
3665.82
3671.27
3676.05
3680.08
3683.3
3685.64
3687.05
3687.51
3686.99
3685.5
3683.04
3679.64
3675.33
3670.17
3664.21
3657.52
3650.2
3642.32
3633.98
3625.29
3616.33
3607.22
3598.05
3588.92
3579.92
3571.13
3562.64
3554.51
3546.81
3539.6
3532.93
3526.84
3521.36
3516.51
3512.32
3508.8
3505.96
3503.79
3502.28
3501.43
3501.22
3501.62
3502.63
3504.2
3506.32
3508.95
3512.06
3515.62
3519.6
3523.95
3528.65
3533.65
3538.91
3544.39
3550.07
3555.89
3561.82
3567.81
3573.84
3579.86
3585.84
3591.74
3597.52
3603.17
3608.63
3613.89
3618.92
3623.7
3628.2
3632.4
3636.3
3639.86
3643.1
3645.99
3648.53
3650.72
3652.56
3654.05
3655.2
3656.01
3656.5
3656.68
3656.56
3656.15
3655.47
3654.55
3653.39
3652.01
3650.44
3648.7
3646.8
3644.76
3642.61
3640.36
3638.03
3635.64
3633.21
3630.75
3628.28
3625.81
3623.35
3620.91
3618.52
3616.16
3613.87
3611.63
3609.47
3607.38
3605.37
3603.44
3601.6
3599.86
3598.2
3596.64
3595.18
3593.8
3592.53
3591.34
3590.24
3589.23
3588.3
3587.45
3586.68
3585.99
3585.36
3584.79
3584.28
3583.83
3583.43
3583.07
3582.76
3582.48
3582.24
3582.02
3581.84
3581.67
3581.53
3581.41
3581.3
3581.21
3581.13
3581.06
3581
3580.95
3580.91
3580.87
3580.84
3580.81
3580.79
3580.77
3580.75
3580.73
3580.72
3580.71
3580.7
3580.69
3580.69
3580.68
3580.68
3580.67
3580.67
3580.67
3580.66
3580.66
3580.66
3580.66
3580.66
3580.66
3580.65
3580.65
3580.65
3580.65
3580.65
3580.65
3580.65
3580.65
3580.65
3580.65
3580.65
3580.65
3580.65
3580.65
3580.65
3580.65
3179.3
3185.89
3193.72
3202.78
3213.05
3224.58
3237.4
3251.58
3267.15
3284.11
3302.51
3322.37
3343.67
3366.38
3390.45
3415.76
3442.24
3469.83
3498.31
3528.42
3560.64
3590.92
3620.18
3648.42
3675.33
3700.59
3723.81
3744.63
3762.74
3777.8
3789.57
3797.86
3802.52
3803.95
3802.41
3797.72
3789.86
3778.95
3765.18
3748.88
3730.31
3709.93
3688.13
3665.46
3642.56
3619.94
3598.04
3577.24
3557.81
3539.93
3523.63
3508.76
3494.14
3483.03
3473.48
3465.47
3458.89
3453.61
3449.51
3446.45
3444.29
3442.91
3442.16
3441.94
3442.16
3442.62
3443.21
3443.91
3444.75
3445.73
3446.82
3447.99
3449.25
3450.58
3452.01
3453.56
3455.25
3457.12
3459.23
3461.6
3464.28
3467.32
3470.76
3474.59
3478.84
3483.51
3489.12
3494.57
3500.34
3506.36
3512.57
3518.88
3525.2
3531.46
3537.56
3543.44
3549.01
3554.21
3558.97
3563.22
3566.93
3570.06
3572.57
3574.45
3575.7
3576.33
3576.37
3575.83
3574.76
3573.21
3571.21
3568.83
3566.11
3563.11
3559.86
3556.4
3552.77
3549
3545.09
3541.05
3536.89
3532.61
3528.2
3523.67
3519.03
3514.29
3509.49
3504.66
3499.83
3495.04
3490.35
3485.78
3481.39
3477.21
3473.27
3469.58
3466.17
3463.04
3460.2
3457.65
3455.39
3453.41
3451.72
3450.31
3449.18
3448.34
3447.79
3447.55
3447.62
3448.03
3448.78
3449.91
3451.42
3453.35
3455.71
3458.52
3461.8
3465.55
3469.8
3474.53
3479.73
3485.39
3491.49
3497.96
3504.76
3511.82
3519.09
3526.46
3533.87
3541.2
3548.37
3555.26
3561.77
3567.81
3573.27
3578.06
3582.11
3585.34
3587.68
3589.1
3589.56
3589.04
3587.55
3585.09
3581.68
3577.36
3572.19
3566.22
3559.52
3552.18
3544.28
3535.93
3527.22
3518.25
3509.12
3499.94
3490.79
3481.78
3472.98
3464.47
3456.34
3448.63
3441.41
3434.74
3428.64
3423.15
3418.31
3414.12
3410.6
3407.75
3405.58
3404.07
3403.23
3403.02
3403.43
3404.44
3406.01
3408.14
3410.77
3413.89
3417.46
3421.44
3425.8
3430.5
3435.5
3440.77
3446.26
3451.94
3457.77
3463.7
3469.71
3475.74
3481.77
3487.75
3493.65
3499.44
3505.09
3510.56
3515.82
3520.86
3525.64
3530.14
3534.35
3538.24
3541.82
3545.05
3547.94
3550.49
3552.68
3554.52
3556.01
3557.15
3557.97
3558.45
3558.63
3558.5
3558.09
3557.41
3556.48
3555.32
3553.94
3552.37
3550.62
3548.72
3546.68
3544.52
3542.27
3539.94
3537.55
3535.11
3532.65
3530.18
3527.7
3525.24
3522.8
3520.41
3518.05
3515.75
3513.52
3511.35
3509.26
3507.25
3505.32
3503.48
3501.74
3500.08
3498.52
3497.06
3495.69
3494.41
3493.22
3492.12
3491.11
3490.19
3489.34
3488.57
3487.87
3487.24
3486.68
3486.17
3485.72
3485.32
3484.96
3484.65
3484.37
3484.13
3483.92
3483.73
3483.57
3483.43
3483.31
3483.2
3483.11
3483.03
3482.96
3482.9
3482.85
3482.81
3482.77
3482.74
3482.71
3482.68
3482.66
3482.65
3482.63
3482.62
3482.61
3482.6
3482.59
3482.59
3482.58
3482.58
3482.57
3482.57
3482.57
3482.56
3482.56
3482.56
3482.56
3482.56
3482.56
3482.55
3482.55
3482.55
3482.55
3482.55
3482.55
3482.55
3482.55
3482.55
3482.55
3482.55
3482.55
3482.55
3482.55
3482.55
3482.55
3080.96
3087.55
3095.38
3104.42
3114.69
3126.2
3139.01
3153.18
3168.73
3185.69
3204.08
3223.93
3245.23
3267.94
3292.01
3317.34
3343.84
3371.46
3399.96
3430.11
3462.41
3492.76
3522.09
3550.41
3577.4
3602.76
3626.08
3647
3665.19
3680.33
3692.16
3700.47
3705.12
3706.59
3705.03
3700.31
3692.39
3681.41
3667.56
3651.16
3632.49
3612.01
3590.12
3567.36
3544.38
3521.69
3499.73
3478.89
3459.44
3441.53
3425.2
3410.25
3395.74
3384.63
3375.08
3367.08
3360.52
3355.26
3351.18
3348.15
3346.01
3344.65
3343.92
3343.72
3343.96
3344.43
3345.02
3345.74
3346.59
3347.57
3348.66
3349.85
3351.1
3352.44
3353.86
3355.41
3357.09
3358.96
3361.06
3363.42
3366.1
3369.14
3372.57
3376.4
3380.66
3385.32
3390.95
3396.4
3402.18
3408.22
3414.44
3420.77
3427.11
3433.38
3439.5
3445.4
3450.98
3456.19
3460.96
3465.23
3468.95
3472.08
3474.59
3476.47
3477.72
3478.35
3478.38
3477.83
3476.76
3475.19
3473.19
3470.8
3468.07
3465.05
3461.79
3458.33
3454.7
3450.92
3447.01
3442.98
3438.81
3434.53
3430.12
3425.59
3420.94
3416.2
3411.4
3406.56
3401.72
3396.92
3392.22
3387.65
3383.25
3379.06
3375.11
3371.42
3368.01
3364.88
3362.04
3359.49
3357.23
3355.25
3353.56
3352.15
3351.02
3350.18
3349.63
3349.39
3349.46
3349.86
3350.61
3351.73
3353.24
3355.16
3357.52
3360.32
3363.6
3367.36
3371.6
3376.33
3381.54
3387.2
3393.31
3399.79
3406.6
3413.68
3420.96
3428.35
3435.77
3443.13
3450.31
3457.22
3463.76
3469.82
3475.3
3480.11
3484.17
3487.41
3489.76
3491.19
3491.65
3491.14
3489.64
3487.17
3483.76
3479.43
3474.24
3468.25
3461.54
3454.18
3446.27
3437.89
3429.16
3420.17
3411.02
3401.82
3392.66
3383.63
3374.81
3366.29
3358.14
3350.43
3343.2
3336.52
3330.41
3324.92
3320.07
3315.88
3312.36
3309.52
3307.35
3305.85
3305
3304.8
3305.21
3306.22
3307.81
3309.93
3312.58
3315.7
3319.27
3323.26
3327.63
3332.34
3337.35
3342.62
3348.12
3353.81
3359.64
3365.59
3371.6
3377.64
3383.67
3389.66
3395.57
3401.37
3407.02
3412.5
3417.77
3422.81
3427.59
3432.1
3436.31
3440.21
3443.78
3447.02
3449.91
3452.45
3454.64
3456.48
3457.97
3459.12
3459.93
3460.41
3460.59
3460.46
3460.04
3459.36
3458.43
3457.26
3455.88
3454.31
3452.55
3450.65
3448.6
3446.44
3444.18
3441.85
3439.45
3437.02
3434.55
3432.07
3429.6
3427.13
3424.69
3422.29
3419.94
3417.64
3415.4
3413.23
3411.14
3409.13
3407.2
3405.36
3403.61
3401.96
3400.4
3398.93
3397.56
3396.28
3395.1
3394
3392.99
3392.07
3391.22
3390.45
3389.76
3389.13
3388.56
3388.06
3387.61
3387.21
3386.85
3386.54
3386.27
3386.02
3385.81
3385.63
3385.46
3385.32
3385.2
3385.1
3385.01
3384.93
3384.86
3384.8
3384.75
3384.7
3384.67
3384.63
3384.61
3384.58
3384.56
3384.55
3384.53
3384.52
3384.51
3384.5
3384.49
3384.49
3384.48
3384.48
3384.47
3384.47
3384.47
3384.46
3384.46
3384.46
3384.46
3384.46
3384.46
3384.45
3384.45
3384.45
3384.45
3384.45
3384.45
3384.45
3384.45
3384.45
3384.45
3384.45
3384.45
3384.45
3384.45
3384.45
3384.45
2982.58
2989.16
2996.98
3006.02
3016.27
3027.77
3040.57
3054.72
3070.26
3087.19
3105.57
3125.42
3146.71
3169.42
3193.51
3218.85
3245.38
3273.03
3301.57
3331.76
3364.16
3394.58
3424
3452.41
3479.52
3504.99
3528.42
3549.45
3567.75
3582.98
3594.88
3603.23
3607.88
3609.37
3607.81
3603.03
3595.05
3583.98
3570.03
3553.51
3534.73
3514.13
3492.12
3469.26
3446.18
3423.41
3401.38
3380.49
3361
3343.07
3326.7
3311.65
3297.29
3286.16
3276.62
3268.64
3262.1
3256.86
3252.81
3249.8
3247.69
3246.36
3245.66
3245.48
3245.74
3246.22
3246.82
3247.55
3248.41
3249.4
3250.5
3251.69
3252.95
3254.28
3255.71
3257.24
3258.92
3260.79
3262.87
3265.24
3267.91
3270.94
3274.37
3278.2
3282.46
3287.13
3292.76
3298.22
3304.02
3310.07
3316.31
3322.66
3329.02
3335.31
3341.45
3347.36
3352.97
3358.19
3362.97
3367.25
3370.98
3374.12
3376.64
3378.52
3379.77
3380.39
3380.41
3379.86
3378.77
3377.2
3375.18
3372.78
3370.04
3367.01
3363.74
3360.27
3356.64
3352.85
3348.94
3344.9
3340.74
3336.45
3332.04
3327.51
3322.86
3318.12
3313.3
3308.45
3303.6
3298.8
3294.08
3289.5
3285.1
3280.9
3276.95
3273.26
3269.84
3266.71
3263.87
3261.32
3259.06
3257.09
3255.39
3253.98
3252.85
3252.01
3251.46
3251.21
3251.28
3251.68
3252.42
3253.54
3255.04
3256.96
3259.31
3262.11
3265.39
3269.14
3273.38
3278.11
3283.32
3289
3295.12
3301.61
3308.43
3315.53
3322.82
3330.24
3337.68
3345.06
3352.27
3359.21
3365.77
3371.85
3377.35
3382.18
3386.26
3389.51
3391.88
3393.31
3393.78
3393.27
3391.77
3389.29
3385.87
3381.53
3376.32
3370.32
3363.58
3356.2
3348.27
3339.87
3331.11
3322.1
3312.93
3303.7
3294.51
3285.46
3276.63
3268.1
3259.93
3252.21
3244.97
3238.28
3232.17
3226.67
3221.82
3217.62
3214.1
3211.26
3209.09
3207.59
3206.75
3206.55
3206.97
3207.99
3209.58
3211.71
3214.36
3217.49
3221.07
3225.07
3229.45
3234.16
3239.18
3244.46
3249.97
3255.67
3261.51
3267.46
3273.48
3279.53
3285.58
3291.57
3297.49
3303.3
3308.96
3314.44
3319.72
3324.76
3329.55
3334.06
3338.28
3342.18
3345.76
3349
3351.89
3354.44
3356.63
3358.47
3359.95
3361.1
3361.91
3362.39
3362.56
3362.42
3362.01
3361.32
3360.39
3359.21
3357.83
3356.25
3354.49
3352.58
3350.53
3348.36
3346.1
3343.76
3341.36
3338.92
3336.45
3333.97
3331.49
3329.02
3326.58
3324.18
3321.82
3319.52
3317.28
3315.11
3313.01
3311
3309.07
3307.23
3305.49
3303.83
3302.27
3300.81
3299.43
3298.16
3296.97
3295.88
3294.87
3293.94
3293.1
3292.33
3291.64
3291.01
3290.45
3289.94
3289.49
3289.1
3288.74
3288.43
3288.16
3287.91
3287.7
3287.52
3287.36
3287.22
3287.1
3286.99
3286.9
3286.82
3286.75
3286.7
3286.65
3286.6
3286.57
3286.53
3286.51
3286.48
3286.46
3286.45
3286.43
3286.42
3286.41
3286.4
3286.39
3286.39
3286.38
3286.38
3286.37
3286.37
3286.37
3286.36
3286.36
3286.36
3286.36
3286.36
3286.36
3286.35
3286.35
3286.35
3286.35
3286.35
3286.35
3286.35
3286.35
3286.35
3286.35
3286.35
3286.35
3286.35
3286.35
3286.35
3286.35
2884.14
2890.72
2898.53
2907.56
2917.8
2929.29
2942.06
2956.2
2971.72
2988.64
3007
3026.83
3048.12
3070.84
3094.93
3120.29
3146.85
3174.54
3203.13
3233.37
3265.87
3296.39
3325.91
3354.44
3381.67
3407.27
3430.84
3452
3470.43
3485.76
3497.74
3506.14
3510.79
3512.31
3510.73
3505.9
3497.84
3486.67
3472.59
3455.95
3437.02
3416.28
3394.14
3371.15
3347.96
3325.1
3302.99
3282.04
3262.51
3244.56
3228.14
3212.95
3198.79
3187.63
3178.11
3170.14
3163.62
3158.42
3154.39
3151.41
3149.34
3148.03
3147.37
3147.22
3147.5
3147.98
3148.6
3149.34
3150.21
3151.22
3152.33
3153.52
3154.78
3156.12
3157.54
3159.07
3160.75
3162.6
3164.68
3167.03
3169.69
3172.72
3176.14
3179.98
3184.25
3188.92
3194.54
3200.02
3205.84
3211.92
3218.18
3224.55
3230.93
3237.24
3243.41
3249.34
3254.97
3260.21
3265.01
3269.3
3273.04
3276.18
3278.71
3280.59
3281.84
3282.46
3282.47
3281.9
3280.8
3279.22
3277.19
3274.77
3272.01
3268.97
3265.7
3262.22
3258.57
3254.79
3250.87
3246.83
3242.67
3238.39
3233.97
3229.44
3224.78
3220.03
3215.21
3210.35
3205.49
3200.67
3195.94
3191.35
3186.94
3182.74
3178.78
3175.08
3171.66
3168.53
3165.69
3163.14
3160.88
3158.91
3157.22
3155.8
3154.67
3153.83
3153.28
3153.02
3153.09
3153.48
3154.22
3155.33
3156.83
3158.74
3161.08
3163.88
3167.15
3170.91
3175.15
3179.88
3185.09
3190.77
3196.91
3203.41
3210.25
3217.36
3224.68
3232.12
3239.59
3247
3254.24
3261.2
3267.79
3273.9
3279.43
3284.28
3288.38
3291.65
3294.03
3295.48
3295.95
3295.44
3293.93
3291.45
3288.01
3283.66
3278.44
3272.41
3265.65
3258.24
3250.28
3241.85
3233.07
3224.03
3214.83
3205.57
3196.36
3187.29
3178.44
3169.88
3161.7
3153.96
3146.71
3140.01
3133.89
3128.39
3123.53
3119.34
3115.82
3112.97
3110.81
3109.31
3108.47
3108.28
3108.71
3109.73
3111.33
3113.47
3116.13
3119.27
3122.86
3126.86
3131.25
3135.97
3141
3146.3
3151.82
3157.52
3163.38
3169.34
3175.37
3181.43
3187.48
3193.49
3199.42
3205.23
3210.9
3216.39
3221.68
3226.73
3231.52
3236.04
3240.26
3244.17
3247.75
3250.99
3253.89
3256.43
3258.62
3260.46
3261.95
3263.09
3263.89
3264.37
3264.54
3264.4
3263.98
3263.29
3262.35
3261.17
3259.78
3258.2
3256.43
3254.51
3252.46
3250.29
3248.02
3245.68
3243.27
3240.83
3238.35
3235.87
3233.38
3230.91
3228.47
3226.06
3223.7
3221.39
3219.15
3216.98
3214.88
3212.87
3210.94
3209.1
3207.35
3205.7
3204.14
3202.67
3201.3
3200.03
3198.84
3197.75
3196.74
3195.82
3194.97
3194.21
3193.51
3192.89
3192.33
3191.83
3191.38
3190.98
3190.63
3190.32
3190.04
3189.8
3189.59
3189.41
3189.25
3189.11
3188.99
3188.89
3188.8
3188.72
3188.65
3188.59
3188.54
3188.5
3188.46
3188.43
3188.4
3188.38
3188.36
3188.34
3188.33
3188.32
3188.31
3188.3
3188.29
3188.28
3188.28
3188.27
3188.27
3188.27
3188.26
3188.26
3188.26
3188.26
3188.26
3188.26
3188.26
3188.25
3188.25
3188.25
3188.25
3188.25
3188.25
3188.25
3188.25
3188.25
3188.25
3188.25
3188.25
3188.25
3188.25
3188.25
3188.25
2785.66
2792.23
2800.03
2809.05
2819.27
2830.74
2843.5
2857.61
2873.11
2890.02
2908.36
2928.18
2949.46
2972.18
2996.29
3021.67
3048.27
3075.99
3104.64
3134.93
3167.56
3198.18
3227.82
3256.48
3283.85
3309.6
3333.33
3354.65
3373.21
3388.67
3400.74
3409.19
3413.85
3415.4
3413.79
3408.91
3400.76
3389.47
3375.25
3358.46
3339.37
3318.47
3296.17
3273.04
3249.72
3226.75
3204.56
3183.54
3163.97
3145.98
3129.52
3114.17
3100.22
3089.04
3079.53
3071.59
3065.09
3059.92
3055.93
3052.98
3050.95
3049.68
3049.05
3048.94
3049.23
3049.73
3050.36
3051.12
3052.01
3053.02
3054.14
3055.34
3056.6
3057.94
3059.36
3060.89
3062.55
3064.4
3066.47
3068.81
3071.47
3074.49
3077.9
3081.74
3086.02
3090.7
3096.3
3101.81
3107.65
3113.75
3120.04
3126.43
3132.84
3139.18
3145.37
3151.33
3156.98
3162.24
3167.06
3171.37
3175.12
3178.28
3180.8
3182.69
3183.93
3184.55
3184.55
3183.97
3182.86
3181.25
3179.21
3176.77
3174
3170.95
3167.66
3164.17
3160.52
3156.73
3152.81
3148.77
3144.61
3140.32
3135.91
3131.37
3126.71
3121.95
3117.12
3112.24
3107.37
3102.54
3097.8
3093.19
3088.77
3084.56
3080.59
3076.89
3073.47
3070.34
3067.5
3064.95
3062.69
3060.72
3059.03
3057.62
3056.48
3055.64
3055.08
3054.83
3054.88
3055.27
3056
3057.1
3058.6
3060.5
3062.84
3065.63
3068.9
3072.65
3076.89
3081.63
3086.84
3092.53
3098.68
3105.2
3112.06
3119.19
3126.53
3134
3141.5
3148.94
3156.21
3163.21
3169.83
3175.97
3181.53
3186.41
3190.54
3193.83
3196.22
3197.68
3198.16
3197.64
3196.14
3193.65
3190.2
3185.83
3180.58
3174.53
3167.74
3160.31
3152.31
3143.85
3135.04
3125.96
3116.73
3107.45
3098.21
3089.11
3080.23
3071.66
3063.46
3055.7
3048.44
3041.72
3035.59
3030.09
3025.22
3021.02
3017.5
3014.66
3012.5
3011
3010.17
3009.99
3010.42
3011.45
3013.06
3015.21
3017.87
3021.02
3024.62
3028.64
3033.04
3037.77
3042.82
3048.12
3053.65
3059.37
3065.24
3071.21
3077.25
3083.33
3089.39
3095.41
3101.35
3107.17
3112.85
3118.35
3123.64
3128.7
3133.51
3138.03
3142.26
3146.17
3149.75
3153
3155.9
3158.44
3160.63
3162.47
3163.96
3165.1
3165.9
3166.37
3166.53
3166.39
3165.97
3165.27
3164.32
3163.14
3161.74
3160.15
3158.38
3156.46
3154.39
3152.22
3149.95
3147.59
3145.18
3142.73
3140.25
3137.76
3135.27
3132.8
3130.35
3127.94
3125.57
3123.27
3121.02
3118.85
3116.75
3114.74
3112.81
3110.96
3109.22
3107.56
3106
3104.54
3103.17
3101.89
3100.71
3099.61
3098.61
3097.68
3096.84
3096.08
3095.39
3094.76
3094.2
3093.7
3093.26
3092.86
3092.51
3092.2
3091.93
3091.69
3091.48
3091.3
3091.14
3091.01
3090.89
3090.78
3090.69
3090.61
3090.55
3090.49
3090.44
3090.4
3090.36
3090.33
3090.3
3090.28
3090.26
3090.24
3090.23
3090.22
3090.21
3090.2
3090.19
3090.18
3090.18
3090.17
3090.17
3090.17
3090.16
3090.16
3090.16
3090.16
3090.16
3090.16
3090.16
3090.15
3090.15
3090.15
3090.15
3090.15
3090.15
3090.15
3090.15
3090.15
3090.15
3090.15
3090.15
3090.15
3090.15
3090.15
3090.15
2687.12
2693.69
2701.49
2710.49
2720.7
2732.15
2744.88
2758.97
2774.45
2791.33
2809.66
2829.46
2850.74
2873.46
2897.58
2922.99
2949.62
2977.39
3006.09
3036.45
3069.22
3099.96
3129.73
3158.53
3186.06
3211.99
3235.89
3257.38
3276.11
3291.71
3303.89
3312.4
3317.07
3318.65
3317.01
3312.06
3303.81
3292.38
3278.01
3261.04
3241.77
3220.7
3198.22
3174.93
3151.47
3128.37
3106.08
3084.99
3065.36
3047.34
3030.83
3015.32
3001.56
2990.38
2980.88
2972.97
2966.51
2961.37
2957.42
2954.51
2952.52
2951.29
2950.7
2950.63
2950.95
2951.46
2952.11
2952.88
2953.79
2954.82
2955.95
2957.15
2958.42
2959.76
2961.17
2962.69
2964.35
2966.19
2968.25
2970.57
2973.22
2976.23
2979.65
2983.49
2987.77
2992.48
2998.04
3003.58
3009.45
3015.58
3021.9
3028.32
3034.76
3041.13
3047.35
3053.33
3059
3064.29
3069.13
3073.46
3077.23
3080.39
3082.93
3084.81
3086.05
3086.66
3086.65
3086.06
3084.93
3083.31
3081.24
3078.79
3076
3072.93
3069.63
3066.13
3062.47
3058.67
3054.75
3050.71
3046.55
3042.26
3037.85
3033.3
3028.64
3023.87
3019.02
3014.14
3009.24
3004.4
2999.64
2995.03
2990.59
2986.37
2982.4
2978.69
2975.27
2972.13
2969.3
2966.75
2964.49
2962.52
2960.83
2959.41
2958.28
2957.43
2956.87
2956.61
2956.67
2957.05
2957.77
2958.87
2960.35
2962.25
2964.58
2967.37
2970.63
2974.38
2978.62
2983.35
2988.58
2994.27
3000.44
3006.97
3013.85
3021.01
3028.38
3035.88
3043.41
3050.89
3058.2
3065.23
3071.89
3078.07
3083.66
3088.57
3092.73
3096.04
3098.45
3099.92
3100.4
3099.89
3098.38
3095.88
3092.42
3088.02
3082.76
3076.68
3069.86
3062.39
3054.36
3045.86
3037.01
3027.9
3018.63
3009.31
3000.04
2990.91
2982.01
2973.41
2965.19
2957.41
2950.14
2943.41
2937.27
2931.75
2926.89
2922.68
2919.16
2916.32
2914.16
2912.67
2911.85
2911.67
2912.11
2913.15
2914.76
2916.92
2919.6
2922.76
2926.38
2930.4
2934.81
2939.56
2944.62
2949.94
2955.48
2961.21
2967.09
2973.08
2979.13
2985.22
2991.3
2997.33
3003.28
3009.12
3014.81
3020.32
3025.62
3030.69
3035.5
3040.03
3044.26
3048.18
3051.77
3055.02
3057.92
3060.47
3062.66
3064.49
3065.98
3067.11
3067.91
3068.38
3068.54
3068.39
3067.96
3067.26
3066.31
3065.12
3063.71
3062.11
3060.33
3058.4
3056.33
3054.15
3051.87
3049.51
3047.1
3044.64
3042.15
3039.66
3037.16
3034.68
3032.23
3029.82
3027.45
3025.14
3022.89
3020.71
3018.61
3016.6
3014.66
3012.82
3011.07
3009.42
3007.86
3006.39
3005.02
3003.75
3002.57
3001.47
3000.47
2999.55
2998.71
2997.95
2997.26
2996.64
2996.08
2995.58
2995.14
2994.74
2994.39
2994.09
2993.82
2993.58
2993.37
2993.19
2993.03
2992.9
2992.78
2992.68
2992.59
2992.51
2992.44
2992.39
2992.34
2992.3
2992.26
2992.23
2992.2
2992.18
2992.16
2992.14
2992.13
2992.12
2992.11
2992.1
2992.09
2992.08
2992.08
2992.07
2992.07
2992.07
2992.06
2992.06
2992.06
2992.06
2992.06
2992.06
2992.06
2992.05
2992.05
2992.05
2992.05
2992.05
2992.05
2992.05
2992.05
2992.05
2992.05
2992.05
2992.05
2992.05
2992.05
2992.05
2992.05
2588.55
2595.11
2602.89
2611.88
2622.07
2633.49
2646.2
2660.26
2675.72
2692.57
2710.88
2730.67
2751.93
2774.66
2798.8
2824.23
2850.91
2878.74
2907.5
2937.92
2970.85
3001.73
3031.63
3060.6
3088.31
3114.42
3138.53
3160.21
3179.11
3194.87
3207.17
3215.76
3220.45
3222.05
3220.38
3215.35
3206.99
3195.42
3180.87
3163.71
3144.23
3122.95
3100.29
3076.81
3053.19
3029.96
3007.56
2986.39
2966.7
2948.65
2932.1
2916.4
2902.82
2891.65
2882.18
2874.3
2867.87
2862.77
2858.86
2856
2854.06
2852.88
2852.33
2852.31
2852.65
2853.18
2853.84
2854.63
2855.55
2856.6
2857.74
2858.95
2860.23
2861.56
2862.98
2864.49
2866.14
2867.96
2870.01
2872.32
2874.96
2877.96
2881.37
2885.21
2889.5
2894.24
2899.75
2905.34
2911.24
2917.4
2923.75
2930.2
2936.67
2943.08
2949.33
2955.34
2961.05
2966.36
2971.22
2975.57
2979.36
2982.53
2985.07
2986.96
2988.2
2988.79
2988.77
2988.17
2987.02
2985.38
2983.29
2980.82
2978.01
2974.92
2971.6
2968.09
2964.42
2960.62
2956.7
2952.66
2948.49
2944.21
2939.79
2935.24