/*--------------------------------*- C++ -*----------------------------------*\
| =========                 |                                                 |
| \\      /  F ield         | OpenFOAM: The Open Source CFD Toolbox           |
|  \\    /   O peration     | Version:  3.0.1                                 |
|   \\  /    A nd           | Web:      www.OpenFOAM.org                      |
|    \\/     M anipulation  |                                                 |
\*---------------------------------------------------------------------------*/
FoamFile
{
    version     2.0;
    format      ascii;
    class       surfaceScalarField;
    location    "88.4";
    object      phi;
}
// * * * * * * * * * * * * * * * * * * * * * * * * * * * * * * * * * * * * * //

dimensions      [0 3 -1 0 0 0 0];

internalField   nonuniform List<scalar> 
42423
(
0.000421538
5.66541e-06
0.000414456
7.08173e-06
0.000405685
8.77074e-06
0.000395142
1.05432e-05
0.000383332
1.18107e-05
0.000370254
1.30778e-05
0.000356276
1.39773e-05
0.000341568
1.47088e-05
0.000326086
1.5482e-05
0.000310253
1.58322e-05
0.000294242
1.60109e-05
0.000278041
1.6201e-05
0.000261969
1.60725e-05
0.000246112
1.58566e-05
0.000230637
1.54755e-05
0.000215677
1.49598e-05
0.000201262
1.44152e-05
0.000187542
1.37196e-05
0.000174601
1.29406e-05
0.000162462
1.21396e-05
0.000151201
1.12611e-05
0.000140839
1.03615e-05
0.000131367
9.47235e-06
0.000122795
8.57182e-06
0.00011508
7.71547e-06
0.000108195
6.88502e-06
0.000102074
6.12048e-06
9.66546e-05
5.41949e-06
9.18714e-05
4.78319e-06
8.76501e-05
4.22134e-06
8.39231e-05
3.727e-06
8.06273e-05
3.29577e-06
7.76997e-05
2.92761e-06
7.51002e-05
2.59954e-06
7.279e-05
2.3102e-06
7.07568e-05
2.03317e-06
6.89966e-05
1.76025e-06
6.75162e-05
1.48039e-06
6.63419e-05
1.17425e-06
6.55e-05
8.41873e-07
6.50299e-05
4.7016e-07
6.49613e-05
6.85912e-08
6.54098e-05
-4.48526e-07
6.64061e-05
-9.96228e-07
6.8004e-05
-1.59794e-06
7.02288e-05
-2.22482e-06
7.30813e-05
-2.8525e-06
7.66525e-05
-3.57123e-06
8.09465e-05
-4.29398e-06
8.58961e-05
-4.94964e-06
9.16491e-05
-5.75293e-06
9.81121e-05
-6.46307e-06
0.0001054
-7.28786e-06
0.000113528
-8.12802e-06
0.000122373
-8.84487e-06
0.000132088
-9.71485e-06
0.000142702
-1.06147e-05
0.000154051
-1.1349e-05
0.000166342
-1.22909e-05
0.000179455
-1.31125e-05
0.000193473
-1.40183e-05
0.000208375
-1.49022e-05
0.000224072
-1.56971e-05
0.00024057
-1.64981e-05
0.00025788
-1.73104e-05
0.000275799
-1.79183e-05
0.000294278
-1.84792e-05
0.000313081
-1.88038e-05
0.000331882
-1.88012e-05
0.000350318
-1.84354e-05
0.000367639
-1.73213e-05
0.000383417
-1.57786e-05
0.000397054
-1.36368e-05
0.00040843
-1.13759e-05
0.000416878
-8.44851e-06
0.000422367
-5.48917e-06
0.000425239
-2.87201e-06
0.000425779
-5.39993e-07
0.000424222
1.55648e-06
0.000420518
3.70451e-06
0.000415809
4.70857e-06
0.000410339
5.46966e-06
0.000404437
5.90255e-06
0.000398255
6.1819e-06
0.000391537
6.71717e-06
0.000383996
7.54152e-06
0.000375381
8.61448e-06
0.000365393
9.98816e-06
0.000353906
1.14872e-05
0.00034108
1.28256e-05
0.000327037
1.4043e-05
0.000311997
1.50402e-05
0.000296221
1.57757e-05
0.000279954
1.62672e-05
0.000263452
1.65019e-05
0.000246919
1.65328e-05
0.000230475
1.64437e-05
0.000214351
1.61244e-05
0.000198636
1.57149e-05
0.000183398
1.52375e-05
0.000168726
1.46725e-05
0.000154697
1.40289e-05
0.000141344
1.33527e-05
0.000128689
1.26552e-05
0.000116754
1.19352e-05
0.000105535
1.12185e-05
9.50466e-05
1.04886e-05
8.52782e-05
9.76836e-06
7.62512e-05
9.02698e-06
6.79827e-05
8.26849e-06
6.04563e-05
7.52634e-06
5.36606e-05
6.79574e-06
4.76112e-05
6.04937e-06
4.22947e-05
5.31645e-06
3.77397e-05
4.55503e-06
3.39063e-05
3.83338e-06
3.07885e-05
3.11779e-06
2.84295e-05
2.359e-06
2.67911e-05
1.63838e-06
2.58278e-05
9.63305e-07
2.55505e-05
2.7736e-07
2.59224e-05
-3.71973e-07
2.68846e-05
-9.62179e-07
2.84253e-05
-1.54067e-06
3.05376e-05
-2.11233e-06
3.31741e-05
-2.63646e-06
3.63422e-05
-3.16813e-06
4.0029e-05
-3.68676e-06
4.4217e-05
-4.18803e-06
4.88815e-05
-4.66449e-06
5.40437e-05
-5.16223e-06
5.96657e-05
-5.62197e-06
6.5678e-05
-6.01226e-06
7.21491e-05
-6.47112e-06
7.90751e-05
-6.92593e-06
8.64602e-05
-7.38515e-06
9.43633e-05
-7.90306e-06
0.000102763
-8.39936e-06
0.000111639
-8.8766e-06
0.00012108
-9.44118e-06
0.000131081
-1.00008e-05
0.000141601
-1.05202e-05
0.000152656
-1.10545e-05
0.000164199
-1.15429e-05
0.00017623
-1.20308e-05
0.000188755
-1.25253e-05
0.000201751
-1.29958e-05
0.000215134
-1.33838e-05
0.000228853
-1.37187e-05
0.000242846
-1.39933e-05
0.00025703
-1.4184e-05
0.000271327
-1.42967e-05
0.000285633
-1.43057e-05
0.000299859
-1.42262e-05
0.000313871
-1.4012e-05
0.000327565
-1.36948e-05
0.000340753
-1.31874e-05
0.000353308
-1.25552e-05
0.000365042
-1.1734e-05
0.00037575
-1.07076e-05
0.000385233
-9.48331e-06
0.000393291
-8.05864e-06
0.000399746
-6.45422e-06
0.00040441
-4.66459e-06
0.000407149
-2.73915e-06
0.00040789
-7.4089e-07
0.000406583
1.30695e-06
0.000403049
3.53426e-06
0.000397401
5.6474e-06
0.00038968
7.72105e-06
0.000380033
9.64747e-06
0.000368568
1.14643e-05
0.00035549
1.30787e-05
0.000341009
1.44802e-05
0.000325403
1.5606e-05
0.00030895
1.64531e-05
0.000291922
1.70283e-05
0.000274579
1.73427e-05
0.000257127
1.74524e-05
0.000239882
1.72447e-05
0.00022302
1.6862e-05
0.000206818
1.62023e-05
0.000191359
1.54585e-05
0.000176763
1.45956e-05
0.000163138
1.36257e-05
0.000150504
1.26336e-05
0.000138898
1.16056e-05
0.000128319
1.0579e-05
0.000118736
9.58325e-06
0.000110217
8.51965e-06
0.000102707
7.50909e-06
9.62342e-05
6.4732e-06
9.07424e-05
5.49178e-06
8.61848e-05
4.55757e-06
8.25373e-05
3.64756e-06
7.96942e-05
2.84305e-06
7.7629e-05
2.06525e-06
7.62943e-05
1.33465e-06
7.55909e-05
7.03414e-07
7.55203e-05
7.06076e-08
7.59686e-05
-4.48323e-07
7.69416e-05
-9.7304e-07
7.83514e-05
-1.40977e-06
8.00858e-05
-1.73437e-06
8.21379e-05
-2.05215e-06
8.44452e-05
-2.3073e-06
8.69503e-05
-2.50506e-06
8.9625e-05
-2.67476e-06
9.24089e-05
-2.7839e-06
9.52011e-05
-2.79215e-06
9.80287e-05
-2.82756e-06
0.000100913
-2.88423e-06
0.000103697
-2.78365e-06
0.000106533
-2.83687e-06
0.000109395
-2.86207e-06
0.000112162
-2.76605e-06
0.000115019
-2.85735e-06
0.00011789
-2.87105e-06
0.000120855
-2.96515e-06
0.000123999
-3.14389e-06
0.000127305
-3.30606e-06
0.000130893
-3.58761e-06
0.000134828
-3.93537e-06
0.000139261
-4.43271e-06
0.000144226
-4.96579e-06
0.000149792
-5.56521e-06
0.000156043
-6.25115e-06
0.00016312
-7.07726e-06
0.000171157
-8.03689e-06
0.000180143
-8.98675e-06
0.000190164
-1.00204e-05
0.0002012
-1.10363e-05
0.000213206
-1.20064e-05
0.000226224
-1.30183e-05
0.000240107
-1.3883e-05
0.000254761
-1.46535e-05
0.00027009
-1.53296e-05
0.000285949
-1.58588e-05
0.00030225
-1.63009e-05
0.000318758
-1.65084e-05
0.000335364
-1.66059e-05
0.000351839
-1.64759e-05
0.000367987
-1.61481e-05
0.000383588
-1.56006e-05
0.00039828
-1.46929e-05
0.000411856
-1.35755e-05
0.000423907
-1.20513e-05
0.000434117
-1.02103e-05
0.000442254
-8.13755e-06
0.000448006
-5.75217e-06
0.000451177
-3.17045e-06
0.00045172
-5.4358e-07
0.000449577
2.14287e-06
0.00044461
4.96712e-06
0.000437054
7.55624e-06
0.000427215
9.83881e-06
0.000415257
1.1957e-05
0.000401551
1.3706e-05
0.000386442
1.51092e-05
0.000370153
1.62885e-05
0.000353067
1.70868e-05
0.000335521
1.75456e-05
0.000317672
1.78485e-05
0.000299774
1.78979e-05
0.000281931
1.78429e-05
0.000264285
1.7646e-05
0.000247084
1.72013e-05
0.000230406
1.66783e-05
0.000214356
1.60492e-05
0.000199052
1.53047e-05
0.000184631
1.44205e-05
0.00017121
1.34213e-05
0.000158766
1.24443e-05
0.000147318
1.14476e-05
0.000136926
1.03917e-05
0.000127613
9.31294e-06
0.000119248
8.36463e-06
0.000111885
7.36357e-06
0.000105452
6.43279e-06
9.99282e-05
5.5239e-06
9.5492e-05
4.43612e-06
9.19205e-05
3.57147e-06
8.91269e-05
2.79355e-06
8.71056e-05
2.02131e-06
8.56846e-05
1.42104e-06
8.47851e-05
8.99458e-07
8.4313e-05
4.72091e-07
8.40527e-05
2.60213e-07
8.40205e-05
3.21909e-08
8.41071e-05
-8.65228e-08
8.43236e-05
-2.16577e-07
8.47356e-05
-4.12032e-07
8.52914e-05
-5.55728e-07
8.59942e-05
-7.02827e-07
8.69345e-05
-9.4033e-07
8.81498e-05
-1.21535e-06
8.97057e-05
-1.55592e-06
9.16194e-05
-1.91367e-06
9.39847e-05
-2.3653e-06
9.67871e-05
-2.80243e-06
0.000100111
-3.3236e-06
0.000103992
-3.88134e-06
0.000108405
-4.41326e-06
0.000113496
-5.09126e-06
0.000119329
-5.83252e-06
0.000125837
-6.50811e-06
0.000133307
-7.46985e-06
0.000141631
-8.32464e-06
0.000151054
-9.4229e-06
0.00016161
-1.05562e-05
0.000173024
-1.14136e-05
0.000185499
-1.24758e-05
0.000199186
-1.3687e-05
0.000213686
-1.45005e-05
0.000229162
-1.54762e-05
0.000245391
-1.62282e-05
0.00026232
-1.69292e-05
0.00027986
-1.7541e-05
0.000297501
-1.76411e-05
0.000315227
-1.77259e-05
0.000332868
-1.76414e-05
0.000349983
-1.71146e-05
0.000366483
-1.65006e-05
0.000382085
-1.56023e-05
0.000396598
-1.45128e-05
0.000409784
-1.31865e-05
0.000421378
-1.15943e-05
0.000431244
-9.86586e-06
0.000439174
-7.93049e-06
0.000445077
-5.90351e-06
0.000448781
-3.70335e-06
0.00045027
-1.48989e-06
0.000449194
1.07642e-06
0.000445717
3.47615e-06
0.00044
5.71758e-06
0.00043239
7.60952e-06
0.000423105
9.28468e-06
0.000411936
1.1169e-05
0.00039936
1.25756e-05
0.000385676
1.36843e-05
0.000370794
1.48817e-05
0.000355197
1.55966e-05
0.000339032
1.61645e-05
0.000322593
1.64394e-05
0.000306099
1.64941e-05
0.000289558
1.65402e-05
0.000273281
1.62768e-05
0.000257395
1.58863e-05
0.000241904
1.54909e-05
0.000226982
1.4922e-05
0.000212652
1.43302e-05
0.000198957
1.36946e-05
0.000185933
1.30244e-05
0.000173533
1.23992e-05
0.000161794
1.1739e-05
0.000150724
1.10698e-05
1.05322e-05
0.000421613
1.13323e-05
0.00041453
1.41646e-05
0.000405756
1.75454e-05
0.000395207
2.10923e-05
0.00038339
2.36274e-05
0.000370305
2.61626e-05
0.000356321
2.79615e-05
0.000341605
2.94245e-05
0.000326116
3.09715e-05
0.000310276
3.16716e-05
0.000294259
3.20284e-05
0.000278051
3.24091e-05
0.000261971
3.2152e-05
0.000246108
3.17191e-05
0.000230628
3.0956e-05
0.000215663
2.99246e-05
0.000201243
2.88356e-05
0.000187518
2.74441e-05
0.000174574
2.58851e-05
0.000162431
2.42824e-05
0.000151167
2.25252e-05
0.000140804
2.07246e-05
0.000131331
1.89454e-05
0.000122758
1.71442e-05
0.000115044
1.54302e-05
0.00010816
1.37689e-05
0.00010204
1.22401e-05
9.66219e-05
1.08378e-05
9.18401e-05
9.56498e-06
8.76191e-05
8.4423e-06
8.38904e-05
7.45573e-06
8.05943e-05
6.59186e-06
7.76692e-05
5.85278e-06
7.50676e-05
5.20111e-06
7.27572e-05
4.62065e-06
7.07255e-05
4.06482e-06
6.89619e-05
3.52386e-06
6.74765e-05
2.96579e-06
6.62937e-05
2.35708e-06
6.54457e-05
1.68986e-06
6.49661e-05
9.49737e-07
6.48999e-05
1.34826e-07
6.5356e-05
-9.04666e-07
6.63536e-05
-1.99382e-06
6.79548e-05
-3.19907e-06
7.01824e-05
-4.45245e-06
7.30392e-05
-5.70933e-06
7.66113e-05
-7.14337e-06
8.09044e-05
-8.58702e-06
8.58508e-05
-9.89611e-06
9.16037e-05
-1.15059e-05
9.80659e-05
-1.29253e-05
0.000105353
-1.45753e-05
0.000113485
-1.62598e-05
0.00012233
-1.76898e-05
0.000132044
-1.94289e-05
0.000142659
-2.12304e-05
0.000154008
-2.26976e-05
0.000166301
-2.45842e-05
0.000179418
-2.62292e-05
0.000193437
-2.80375e-05
0.000208343
-2.98083e-05
0.000224045
-3.13995e-05
0.000240541
-3.29944e-05
0.00025785
-3.46203e-05
0.000275772
-3.58396e-05
0.000294261
-3.69685e-05
0.000313074
-3.76171e-05
0.000331886
-3.76137e-05
0.000350354
-3.69039e-05
0.000367711
-3.46783e-05
0.000383535
-3.1603e-05
0.000397254
-2.73563e-05
0.000408725
-2.28465e-05
0.000417285
-1.7009e-05
0.000422893
-1.10969e-05
0.000425685
-5.66477e-06
0.000426104
-9.59162e-07
0.000424532
3.12874e-06
0.000420816
7.41961e-06
0.000416125
9.39932e-06
0.000410676
1.09188e-05
0.000404779
1.17998e-05
0.000398604
1.23562e-05
0.0003919
1.34214e-05
0.000384371
1.50702e-05
0.000375763
1.72216e-05
0.000365767
1.9984e-05
0.000354279
2.29751e-05
0.000341445
2.56603e-05
0.000327385
2.81025e-05
0.000312331
3.00944e-05
0.000296537
3.15688e-05
0.000280262
3.25422e-05
0.000263754
3.30105e-05
0.000247204
3.30827e-05
0.000230749
3.28984e-05
0.000214621
3.22527e-05
0.000198897
3.14379e-05
0.000183649
3.04858e-05
0.000168969
2.93531e-05
0.000154936
2.80612e-05
0.000141591
2.66974e-05
0.000128939
2.5308e-05
0.000116999
2.3875e-05
0.000105767
2.24502e-05
9.52681e-05
2.09875e-05
8.55171e-05
1.95193e-05
7.64937e-05
1.80504e-05
6.82142e-05
1.6548e-05
6.06751e-05
1.50654e-05
5.38843e-05
1.35865e-05
4.78391e-05
1.20946e-05
4.25199e-05
1.06356e-05
3.79553e-05
9.11956e-06
3.41231e-05
7.66562e-06
3.10097e-05
6.23113e-06
2.86507e-05
4.718e-06
2.7012e-05
3.27704e-06
2.60483e-05
1.92706e-06
2.57751e-05
5.50516e-07
2.61379e-05
-7.34788e-07
2.7103e-05
-1.92725e-06
2.86536e-05
-3.09121e-06
3.07608e-05
-4.21953e-06
3.34084e-05
-5.28411e-06
3.65683e-05
-6.32795e-06
4.02515e-05
-7.37003e-06
4.44457e-05
-8.38219e-06
4.91116e-05
-9.33037e-06
5.42743e-05
-1.03249e-05
5.98911e-05
-1.12388e-05
6.59038e-05
-1.20249e-05
7.23799e-05
-1.29473e-05
7.93096e-05
-1.38556e-05
8.66933e-05
-1.47688e-05
9.45924e-05
-1.58021e-05
0.000102991
-1.67976e-05
0.000111874
-1.77601e-05
0.000121309
-1.88759e-05
0.000131317
-2.00091e-05
0.000141835
-2.10378e-05
0.000152891
-2.21111e-05
0.000164432
-2.30836e-05
0.000176459
-2.40575e-05
0.000188993
-2.50594e-05
0.000201991
-2.59937e-05
0.000215379
-2.6772e-05
0.000229097
-2.74374e-05
0.000243084
-2.79805e-05
0.000257275
-2.83743e-05
0.000271582
-2.86036e-05
0.0002859
-2.86241e-05
0.000300139
-2.84651e-05
0.000314159
-2.80321e-05
0.000327861
-2.7397e-05
0.000341054
-2.63813e-05
0.000353615
-2.51159e-05
0.000365356
-2.34751e-05
0.000376069
-2.14206e-05
0.000385567
-1.89819e-05
0.000393639
-1.613e-05
0.000400096
-1.29113e-05
0.00040477
-9.33907e-06
0.000407513
-5.48227e-06
0.000408251
-1.47915e-06
0.000406928
2.6296e-06
0.000403397
7.06544e-06
0.000397748
1.12968e-05
0.000390023
1.54454e-05
0.000380362
1.93087e-05
0.000368884
2.29418e-05
0.000355798
2.61647e-05
0.000341289
2.89891e-05
0.000325652
3.12429e-05
0.000309171
3.29347e-05
0.000292114
3.40853e-05
0.00027474
3.47167e-05
0.000257262
3.49296e-05
0.000239991
3.45157e-05
0.000223101
3.37524e-05
0.000206867
3.24364e-05
0.00019138
3.09451e-05
0.000176767
2.92088e-05
0.000163125
2.72679e-05
0.000150463
2.52949e-05
0.000138831
2.32384e-05
0.000128226
2.11837e-05
0.000118631
1.91776e-05
0.000110095
1.70557e-05
0.000102571
1.50339e-05
9.60833e-05
1.29605e-05
9.05733e-05
1.10017e-05
8.59944e-05
9.13649e-06
8.23322e-05
7.30966e-06
7.94741e-05
5.70119e-06
7.73954e-05
4.14388e-06
7.60431e-05
2.68699e-06
7.53339e-05
1.4126e-06
7.52617e-05
1.42818e-07
7.57078e-05
-8.94455e-07
7.66729e-05
-1.9382e-06
7.80589e-05
-2.79568e-06
7.981e-05
-3.48556e-06
8.18683e-05
-4.1104e-06
8.41638e-05
-4.60277e-06
8.66711e-05
-5.01237e-06
8.93516e-05
-5.35534e-06
9.21326e-05
-5.56488e-06
9.49243e-05
-5.58387e-06
9.77715e-05
-5.67473e-06
0.00010066
-5.77308e-06
0.000103447
-5.57049e-06
0.000106276
-5.66599e-06
0.000109137
-5.72258e-06
0.000111933
-5.56187e-06
0.000114809
-5.7339e-06
0.000117679
-5.74106e-06
0.000120635
-5.92097e-06
0.000123781
-6.28951e-06
0.000127105
-6.63064e-06
0.000130703
-7.18567e-06
0.000134638
-7.86981e-06
0.00013908
-8.87511e-06
0.000144051
-9.9369e-06
0.000149615
-1.11292e-05
0.000155874
-1.25105e-05
0.000162959
-1.41618e-05
0.000170991
-1.60698e-05
0.000179976
-1.79714e-05
0.000190001
-2.00453e-05
0.000201043
-2.20785e-05
0.000213059
-2.40225e-05
0.000226084
-2.60437e-05
0.000239965
-2.77647e-05
0.000254626
-2.93147e-05
0.000269967
-3.06713e-05
0.000285837
-3.17286e-05
0.000302144
-3.26078e-05
0.000318667
-3.30317e-05
0.000335269
-3.3209e-05
0.000351756
-3.29632e-05
0.000367931
-3.2323e-05
0.000383537
-3.12074e-05
0.000398238
-2.93939e-05
0.000411827
-2.71644e-05
0.000423893
-2.41182e-05
0.000434118
-2.04353e-05
0.000442263
-1.62826e-05
0.000448019
-1.15087e-05
0.000451201
-6.35233e-06
0.000451736
-1.07883e-06
0.000449571
4.30682e-06
0.000444606
9.93253e-06
0.000437057
1.51042e-05
0.000427206
1.96902e-05
0.00041523
2.39326e-05
0.000401501
2.74346e-05
0.000386371
3.02393e-05
0.00037007
3.25893e-05
0.000352988
3.41688e-05
0.000335445
3.50884e-05
0.000317577
3.57164e-05
0.000299657
3.58175e-05
0.000281805
3.56945e-05
0.000264154
3.52969e-05
0.000246944
3.44108e-05
0.000230273
3.33492e-05
0.000214216
3.21064e-05
0.000198908
3.06131e-05
0.000184492
2.88364e-05
0.000171077
2.68363e-05
0.00015865
2.48708e-05
0.000147218
2.2879e-05
0.000136835
2.07754e-05
0.000127528
1.86192e-05
0.000119169
1.67237e-05
0.000111806
1.47267e-05
0.000105375
1.28642e-05
9.98506e-05
1.10478e-05
9.54098e-05
8.87682e-06
9.1834e-05
7.14723e-06
8.90345e-05
5.59302e-06
8.70075e-05
4.04832e-06
8.55808e-05
2.84764e-06
8.46772e-05
1.8031e-06
8.42067e-05
9.42586e-07
8.39501e-05
5.16722e-07
8.39165e-05
6.58095e-08
8.40027e-05
-1.72779e-07
8.42291e-05
-4.43e-07
8.46517e-05
-8.34672e-07
8.52138e-05
-1.11787e-06
8.59224e-05
-1.41138e-06
8.6868e-05
-1.88599e-06
8.80887e-05
-2.43604e-06
8.96503e-05
-3.11755e-06
9.15668e-05
-3.83027e-06
9.39347e-05
-4.73328e-06
9.6739e-05
-5.60678e-06
0.000100063
-6.64802e-06
0.000103944
-7.76201e-06
0.000108354
-8.82343e-06
0.00011344
-1.01769e-05
0.000119262
-1.16555e-05
0.000125761
-1.30069e-05
0.000133221
-1.49294e-05
0.000141535
-1.66389e-05
0.000150938
-1.88268e-05
0.000161442
-2.10602e-05
0.000172836
-2.28074e-05
0.000185359
-2.49991e-05
0.000199079
-2.74079e-05
0.000213585
-2.90071e-05
0.000229072
-3.09632e-05
0.000245307
-3.24634e-05
0.000262229
-3.38512e-05
0.000279776
-3.50892e-05
0.000297443
-3.53082e-05
0.000315186
-3.5469e-05
0.000332839
-3.52948e-05
0.000349966
-3.42427e-05
0.000366479
-3.30133e-05
0.000382093
-3.1217e-05
0.0003966
-2.90203e-05
0.000409795
-2.63815e-05
0.000421389
-2.3189e-05
0.000431264
-1.97417e-05
0.000439203
-1.58694e-05
0.000445114
-1.18151e-05
0.000448822
-7.41183e-06
0.000450323
-2.99136e-06
0.000449248
2.15114e-06
0.000445782
6.94181e-06
0.000440079
1.14207e-05
0.000432466
1.52219e-05
0.000423175
1.85756e-05
0.000411998
2.23457e-05
0.000399414
2.5159e-05
0.000385722
2.7376e-05
0.000370832
2.9772e-05
0.000355226
3.12016e-05
0.000339053
3.23374e-05
0.000322606
3.28866e-05
0.000306105
3.29952e-05
0.000289558
3.30867e-05
0.000273276
3.25584e-05
0.000257385
3.17769e-05
0.000241891
3.09854e-05
0.000226966
2.98463e-05
0.000212634
2.86621e-05
0.000198937
2.73911e-05
0.000185911
2.60503e-05
0.000173511
2.47991e-05
0.000161771
2.34788e-05
0.0001507
2.21405e-05
2.10658e-05
0.000421759
1.70078e-05
0.000414666
2.12572e-05
0.000405879
2.63322e-05
0.000395316
3.16554e-05
0.000383485
3.5459e-05
0.000370384
3.9263e-05
0.000356384
4.19613e-05
0.000341654
4.41552e-05
0.000326149
4.64756e-05
0.000310296
4.75249e-05
0.000294266
4.80588e-05
0.000278045
4.86292e-05
0.000261955
4.82428e-05
0.000246081
4.75926e-05
0.000230591
4.64465e-05
0.000215617
4.48979e-05
0.00020119
4.32631e-05
0.000187459
4.11746e-05
0.00017451
3.8834e-05
0.000162364
3.64288e-05
0.000151098
3.37914e-05
0.000140734
3.10882e-05
0.000131259
2.842e-05
0.000122689
2.57144e-05
0.000114977
2.31423e-05
0.000108096
2.065e-05
0.000101981
1.83548e-05
9.65667e-05
1.62524e-05
9.17896e-05
1.43421e-05
8.7574e-05
1.26579e-05
8.38502e-05
1.11795e-05
8.05576e-05
9.8845e-06
7.76332e-05
8.77715e-06
7.5035e-05
7.79936e-06
7.27257e-05
6.9299e-06
7.06898e-05
6.10071e-06
6.89214e-05
5.29224e-06
6.74305e-05
4.45677e-06
6.62408e-05
3.54672e-06
6.53857e-05
2.54502e-06
6.49057e-05
1.42973e-06
6.48329e-05
2.07628e-07
6.52915e-05
-1.36335e-06
6.62862e-05
-2.98852e-06
6.78852e-05
-4.79805e-06
7.01165e-05
-6.68378e-06
7.29714e-05
-8.56423e-06
7.65381e-05
-1.071e-05
8.08359e-05
-1.28848e-05
8.57836e-05
-1.48439e-05
9.15361e-05
-1.72584e-05
9.79988e-05
-1.93879e-05
0.000105284
-2.18606e-05
0.000113415
-2.43913e-05
0.000122261
-2.65358e-05
0.000131976
-2.91433e-05
0.000142594
-3.18491e-05
0.000153945
-3.40488e-05
0.000166241
-3.68796e-05
0.00017936
-3.93486e-05
0.000193382
-4.20595e-05
0.000208291
-4.47176e-05
0.000223997
-4.71061e-05
0.000240493
-4.949e-05
0.000257795
-5.19222e-05
0.000275709
-5.3754e-05
0.000294207
-5.5467e-05
0.000313041
-5.6451e-05
0.000331889
-5.64618e-05
0.000350414
-5.54294e-05
0.000367852
-5.21164e-05
0.00038377
-4.75213e-05
0.000397583
-4.11692e-05
0.000409118
-3.43821e-05
0.000417713
-2.56045e-05
0.000423331
-1.67149e-05
0.000426163
-8.49683e-06
0.000426584
-1.38015e-06
0.000425002
4.71041e-06
0.00042127
1.11514e-05
0.000416607
1.40621e-05
0.000411186
1.63392e-05
0.000405306
1.76798e-05
0.000399141
1.85208e-05
0.000392456
2.01058e-05
0.000384954
2.25723e-05
0.000376366
2.581e-05
0.000366369
2.99807e-05
0.000354867
3.44769e-05
0.00034202
3.85069e-05
0.000327945
4.21774e-05
0.000312874
4.51658e-05
0.000297063
4.73798e-05
0.000280766
4.88391e-05
0.000264242
4.9534e-05
0.000247681
4.96436e-05
0.000231227
4.9352e-05
0.000215074
4.84065e-05
0.000199331
4.71806e-05
0.000184078
4.57383e-05
0.000169399
4.40325e-05
0.00015537
4.20903e-05
0.000142027
4.00398e-05
0.000129374
3.7961e-05
0.000117426
3.58235e-05
0.000106207
3.36694e-05
9.57018e-05
3.14922e-05
8.5949e-05
2.92721e-05
7.69131e-05
2.70863e-05
6.86404e-05
2.48207e-05
6.11075e-05
2.25982e-05
5.43159e-05
2.0378e-05
4.82575e-05
1.81531e-05
4.29386e-05
1.59545e-05
3.8378e-05
1.36802e-05
3.4543e-05
1.15006e-05
3.14272e-05
9.34692e-06
2.9074e-05
7.07116e-06
2.74347e-05
4.91633e-06
2.64709e-05
2.89085e-06
2.61976e-05
8.23869e-07
2.65665e-05
-1.10375e-06
2.75306e-05
-2.89131e-06
2.90843e-05
-4.64495e-06
3.11938e-05
-6.32899e-06
3.38368e-05
-7.92706e-06
3.70015e-05
-9.49268e-06
4.06816e-05
-1.10501e-05
4.48728e-05
-1.25733e-05
4.95416e-05
-1.39992e-05
5.47059e-05
-1.54892e-05
6.03188e-05
-1.68517e-05
6.63298e-05
-1.80359e-05
7.2807e-05
-1.94244e-05
7.97417e-05
-2.07903e-05
8.71164e-05
-2.21435e-05
9.50041e-05
-2.36898e-05
0.000103404
-2.51978e-05
0.000112296
-2.66518e-05
0.000121735
-2.83144e-05
0.000131727
-3.00013e-05
0.000142242
-3.15533e-05
0.000153289
-3.31576e-05
0.000164838
-3.46328e-05
0.000176872
-3.60917e-05
0.000189405
-3.75923e-05
0.000202399
-3.89874e-05
0.000215782
-4.01554e-05
0.000229506
-4.11612e-05
0.0002435
-4.19747e-05
0.000257699
-4.25738e-05
0.000272015
-4.29195e-05
0.000286337
-4.29462e-05
0.000300578
-4.27064e-05
0.000314606
-4.20602e-05
0.000328319
-4.11102e-05
0.000341526
-3.95879e-05
0.000354104
-3.76942e-05
0.000365856
-3.5227e-05
0.000376586
-3.21504e-05
0.000386094
-2.84904e-05
0.000394175
-2.42107e-05
0.000400637
-1.93742e-05
0.000405323
-1.40245e-05
0.000408075
-8.23411e-06
0.000408811
-2.21552e-06
0.000407463
3.9772e-06
0.000403942
1.05864e-05
0.000398298
1.69413e-05
0.000390557
2.31858e-05
0.000380869
2.89965e-05
0.000369358
3.44527e-05
0.000356243
3.92798e-05
0.000341703
4.35294e-05
0.000326034
4.6911e-05
0.000309511
4.94579e-05
0.000292408
5.11883e-05
0.000274976
5.2149e-05
0.000257453
5.24518e-05
0.000240145
5.1824e-05
0.000223203
5.06941e-05
0.000206932
4.87075e-05
0.000191406
4.64717e-05
0.000176747
4.38674e-05
0.000163062
4.09527e-05
0.000150375
3.79818e-05
0.000138712
3.49018e-05
0.000128073
3.18226e-05
0.000118446
2.88048e-05
0.00010988
2.5621e-05
0.000102319
2.25951e-05
9.57975e-05
1.94821e-05
9.02576e-05
1.65416e-05
8.56503e-05
1.37437e-05
8.19556e-05
1.10044e-05
7.90756e-05
8.58115e-06
7.69762e-05
6.24333e-06
7.56008e-05
4.06231e-06
7.48705e-05
2.14294e-06
7.47811e-05
2.32155e-07
7.52118e-05
-1.32515e-06
7.61727e-05
-2.89907e-06
7.75544e-05
-4.17736e-06
7.92968e-05
-5.22796e-06
8.13576e-05
-6.17123e-06
8.36603e-05
-6.90553e-06
8.61717e-05
-7.5237e-06
8.88589e-05
-8.04255e-06
9.16538e-05
-8.35977e-06
9.44663e-05
-8.39638e-06
9.73287e-05
-8.53713e-06
0.000100218
-8.66258e-06
0.000103019
-8.37164e-06
0.000105865
-8.51137e-06
0.00010872
-8.57809e-06
0.000111519
-8.36078e-06
0.000114415
-8.62985e-06
0.000117306
-8.63241e-06
0.000120275
-8.88973e-06
0.000123422
-9.43655e-06
0.000126744
-9.95287e-06
0.000130349
-1.07906e-05
0.0001343
-1.18208e-05
0.000138743
-1.33184e-05
0.000143707
-1.49004e-05
0.00014928
-1.67025e-05
0.000155537
-1.8768e-05
0.000162614
-2.12382e-05
0.000170645
-2.41014e-05
0.000179635
-2.69611e-05
0.000189654
-3.00645e-05
0.000200697
-3.31224e-05
0.000212727
-3.60524e-05
0.000225761
-3.90782e-05
0.000239654
-4.16572e-05
0.000254322
-4.3983e-05
0.000269674
-4.6024e-05
0.000285566
-4.76203e-05
0.000301889
-4.89317e-05
0.000318427
-4.95698e-05
0.00033505
-4.98324e-05
0.000351553
-4.94664e-05
0.000367754
-4.85239e-05
0.000383396
-4.68499e-05
0.000398125
-4.41234e-05
0.000411745
-4.07844e-05
0.00042383
-3.62037e-05
0.000434083
-3.06886e-05
0.000442251
-2.44508e-05
0.000448011
-1.72682e-05
0.000451216
-9.55834e-06
0.000451747
-1.60951e-06
0.000449526
6.52699e-06
0.000444556
1.49026e-05
0.000436995
2.26648e-05
0.000427117
2.95682e-05
0.000415115
3.59347e-05
0.000401364
4.11845e-05
0.000386207
4.53961e-05
0.000369879
4.89174e-05
0.000352791
5.12563e-05
0.000335222
5.26576e-05
0.000317318
5.36201e-05
0.000299373
5.37627e-05
0.00028151
5.35573e-05
0.000263861
5.29455e-05
0.000246643
5.16286e-05
0.000229971
5.00216e-05
0.000213908
4.81693e-05
0.000198617
4.59043e-05
0.000184222
4.3231e-05
0.000170825
4.02329e-05
0.000158424
3.7272e-05
0.00014702
3.42825e-05
0.000136663
3.11323e-05
0.000127383
2.78998e-05
0.000119039
2.50672e-05
0.000111688
2.20784e-05
0.000105267
1.92851e-05
9.97478e-05
1.65668e-05
9.5308e-05
1.33165e-05
9.17302e-05
1.0725e-05
8.89206e-05
8.40263e-06
8.68843e-05
6.08451e-06
8.54515e-05
4.28041e-06
8.45388e-05
2.71584e-06
8.40582e-05
1.42314e-06
8.37977e-05
7.77184e-07
8.3769e-05
9.44931e-08
8.38632e-05
-2.67014e-07
8.41019e-05
-6.81669e-07
8.45396e-05
-1.27242e-06
8.51118e-05
-1.69013e-06
8.58284e-05
-2.128e-06
8.6782e-05
-2.83962e-06
8.8011e-05
-3.66509e-06
8.95781e-05
-4.68463e-06
9.15022e-05
-5.75444e-06
9.38768e-05
-7.10793e-06
9.6685e-05
-8.41505e-06
0.000100011
-9.97439e-06
0.000103892
-1.16424e-05
0.000108298
-1.323e-05
0.000113375
-1.52536e-05
0.000119182
-1.7463e-05
0.000125656
-1.94808e-05
0.000133078
-2.23518e-05
0.000141351
-2.4912e-05
0.00015071
-2.81856e-05
0.000161194
-3.15445e-05
0.000172582
-3.41965e-05
0.000185091
-3.75075e-05
0.000198809
-4.11268e-05
0.000213312
-4.35105e-05
0.00022881
-4.64618e-05
0.000245066
-4.87191e-05
0.000262026
-5.08115e-05
0.000279625
-5.26885e-05
0.00029732
-5.30039e-05
0.000315069
-5.32181e-05
0.000332743
-5.29695e-05
0.000349901
-5.14005e-05
0.000366425
-4.95376e-05
0.000382055
-4.68482e-05
0.0003966
-4.35658e-05
0.000409817
-3.95987e-05
0.000421434
-3.48057e-05
0.000431324
-2.96325e-05
0.000439277
-2.3823e-05
0.00044519
-1.77278e-05
0.00044891
-1.11328e-05
0.000450439
-4.52039e-06
0.000449354
3.23588e-06
0.000445905
1.039e-05
0.000440227
1.70992e-05
0.000432607
2.28409e-05
0.000423304
2.78788e-05
0.000412111
3.35378e-05
0.000399511
3.77594e-05
0.000385801
4.10858e-05
0.000370891
4.4681e-05
0.000355268
4.68249e-05
0.000339078
4.85273e-05
0.000322615
4.93494e-05
0.000306099
4.95102e-05
0.00028954
4.96455e-05
0.000273248
4.88506e-05
0.000257349
4.76758e-05
0.000241848
4.64861e-05
0.000226919
4.47749e-05
0.000212584
4.29972e-05
0.000198886
4.10894e-05
0.000185859
3.90766e-05
0.000173459
3.71988e-05
0.00016172
3.52182e-05
0.000150649
3.32111e-05
3.15988e-05
0.000421977
2.26962e-05
0.00041487
2.83643e-05
0.000406065
3.5137e-05
0.00039548
4.22395e-05
0.000383627
4.73127e-05
0.000370503
5.23866e-05
0.00035648
5.59844e-05
0.000341726
5.89085e-05
0.0003262
6.20018e-05
0.000310326
6.33992e-05
0.000294276
6.41087e-05
0.000278038
6.48674e-05
0.00026193
6.43508e-05
0.000246041
6.34814e-05
0.000230536
6.19515e-05
0.00021555
5.9884e-05
0.000201111
5.77018e-05
0.000187372
5.49141e-05
0.000174416
5.179e-05
0.000162263
4.85809e-05
0.000150993
4.50615e-05
0.000140629
4.14526e-05
0.000131154
3.78949e-05
0.000122585
3.4283e-05
0.000114876
3.08518e-05
0.000108001
2.75254e-05
0.000101892
2.4464e-05
9.64832e-05
2.16607e-05
9.17134e-05
1.91119e-05
8.7505e-05
1.68662e-05
8.37874e-05
1.48971e-05
8.05005e-05
1.31714e-05
7.75794e-05
1.16983e-05
7.4983e-05
1.03958e-05
7.26731e-05
9.23979e-06
7.06347e-05
8.13912e-06
6.88618e-05
7.06513e-06
6.73645e-05
5.95408e-06
6.61642e-05
4.74705e-06
6.52939e-05
3.41529e-06
6.47976e-05
1.92606e-06
6.47189e-05
2.86297e-07
6.51833e-05
-1.82772e-06
6.61766e-05
-3.98185e-06
6.77742e-05
-6.39562e-06
7.00115e-05
-8.92112e-06
7.28664e-05
-1.14191e-05
7.64324e-05
-1.4276e-05
8.07338e-05
-1.71863e-05
8.56797e-05
-1.97898e-05
9.14313e-05
-2.301e-05
9.78926e-05
-2.58493e-05
0.000105176
-2.91445e-05
0.000113311
-3.25257e-05
0.000122158
-3.53833e-05
0.000131873
-3.88582e-05
0.000142495
-4.24716e-05
0.000153849
-4.54026e-05
0.000166148
-4.9179e-05
0.000179273
-5.24728e-05
0.000193302
-5.60886e-05
0.000208216
-5.96324e-05
0.000223926
-6.28162e-05
0.000240418
-6.59819e-05
0.000257714
-6.92189e-05
0.00027562
-7.16596e-05
0.000294118
-7.3966e-05
0.000312967
-7.52998e-05
0.00033187
-7.53648e-05
0.000350499
-7.40593e-05
0.000368082
-6.9699e-05
0.000384179
-6.36186e-05
0.000398199
-5.51897e-05
0.00040997
-4.61528e-05
0.000418837
-3.44722e-05
0.000424651
-2.25295e-05
0.000427444
-1.12891e-05
0.000427507
-1.44343e-06
0.000425701
6.51628e-06
0.000421953
1.48992e-05
0.000417326
1.86882e-05
0.000411938
2.17278e-05
0.000406077
2.354e-05
0.000399932
2.46663e-05
0.000393281
2.67558e-05
0.000385822
3.00315e-05
0.000377258
3.43736e-05
0.000367258
3.99812e-05
0.000355739
4.59954e-05
0.00034287
5.13753e-05
0.000328775
5.62728e-05
0.000313679
6.02612e-05
0.000297842
6.32174e-05
0.000281516
6.5165e-05
0.000264961
6.60883e-05
0.000248373
6.62315e-05
0.000231928
6.57974e-05
0.00021575
6.45847e-05
0.000199981
6.29494e-05
0.000184721
6.09977e-05
0.000170044
5.871e-05
0.000156016
5.61183e-05
0.00014267
5.33852e-05
0.000130017
5.06147e-05
0.000118072
4.77677e-05
0.000106844
4.4898e-05
9.63524e-05
4.19836e-05
8.6593e-05
3.90315e-05
7.75622e-05
3.6117e-05
6.929e-05
3.30929e-05
6.17525e-05
3.01357e-05
5.49472e-05
2.71833e-05
4.8904e-05
2.41962e-05
4.35772e-05
2.12812e-05
3.90092e-05
1.82482e-05
3.5171e-05
1.53388e-05
3.20482e-05
1.24697e-05
2.96932e-05
9.42619e-06
2.80547e-05
6.55476e-06
2.70904e-05
3.8552e-06
2.6827e-05
1.08725e-06
2.72001e-05
-1.47684e-06
2.81667e-05
-3.85797e-06
2.97238e-05
-6.20201e-06
3.18309e-05
-8.4361e-06
3.4472e-05
-1.05682e-05
3.76355e-05
-1.26561e-05
4.13145e-05
-1.47291e-05
4.55099e-05
-1.67687e-05
5.01813e-05
-1.86706e-05
5.53417e-05
-2.06496e-05
6.09582e-05
-2.24681e-05