/*--------------------------------*- C++ -*----------------------------------*\
| =========                 |                                                 |
| \\      /  F ield         | OpenFOAM: The Open Source CFD Toolbox           |
|  \\    /   O peration     | Version:  3.0.1                                 |
|   \\  /    A nd           | Web:      www.OpenFOAM.org                      |
|    \\/     M anipulation  |                                                 |
\*---------------------------------------------------------------------------*/
FoamFile
{
    version     2.0;
    format      ascii;
    class       volScalarField;
    location    "83";
    object      p;
}
// * * * * * * * * * * * * * * * * * * * * * * * * * * * * * * * * * * * * * //

dimensions      [1 -1 -2 0 0 0 0];

internalField   nonuniform List<scalar> 
21420
(
4041.15
4073.24
4104.65
4134.96
4163.79
4190.62
4215.07
4236.73
4255.28
4270.45
4282
4289.75
4293.56
4293.21
4288.83
4280.57
4268.44
4252.65
4233.41
4211.03
4185.84
4158.19
4128.46
4097.07
4064.44
4030.99
3997.11
3963.2
3929.63
3896.89
3865.78
3835.13
3805.7
3777.71
3751.31
3726.61
3703.66
3682.49
3663.11
3645.51
3629.65
3615.5
3603.01
3592.13
3582.83
3575.05
3568.75
3563.9
3560.46
3558.43
3557.81
3558.64
3560.81
3564.43
3569.48
3576.01
3584.04
3593.65
3604.86
3617.72
3632.26
3648.53
3666.54
3686.31
3707.81
3731.01
3755.86
3782.28
3810.15
3839.33
3869.68
3901.09
3933.37
3966.03
3998.83
4031.49
4063.68
4095.1
4125.39
4154.21
4181.22
4206.07
4228.43
4248
4264.5
4277.66
4287.29
4293.23
4295.35
4293.61
4288.07
4278.78
4265.8
4249.33
4229.58
4206.79
4181.25
4153.28
4123.25
4091.53
4058.53
4024.65
3990.31
3955.92
3921.88
3888.56
3856.24
3825.22
3795.74
3767.96
3742.02
3717.99
3695.91
3675.8
3657.63
3641.38
3627
3614.43
3603.61
3594.49
3587
3581.09
3576.71
3573.78
3572.28
3572.21
3573.46
3576.03
3579.9
3585.05
3591.48
3599.18
3608.17
3618.47
3630.1
3643.11
3657.54
3673.43
3690.83
3709.77
3730.27
3752.34
3775.96
3801.1
3827.68
3855.62
3884.78
3915
3946.07
3977.76
4009.78
4041.82
4073.56
4104.62
4134.61
4163.13
4189.78
4214.15
4235.87
4254.58
4269.97
4281.74
4289.68
4293.59
4293.4
4289.08
4280.69
4268.29
4252.09
4232.33
4209.32
4183.41
4155.02
4124.57
4092.51
4059.32
4025.44
3991.32
3957.37
3923.97
3891.43
3860.05
3830.04
3801.59
3774.83
3749.85
3726.71
3705.44
3686.01
3668.42
3652.61
3638.56
3626.21
3615.51
3606.38
3598.77
3592.62
3587.85
3584.4
3582.23
3581.3
3581.57
3583
3585.61
3589.4
3594.41
3600.65
3608.16
3616.99
3627.18
3638.77
3651.82
3666.39
3682.51
3700.23
3719.58
3740.57
3763.2
3787.42
3813.18
3840.39
3868.91
3898.6
3929.27
3960.69
3992.54
4024.53
4056.32
4087.52
4117.73
4146.54
4173.53
4198.29
4220.44
4239.6
4255.44
4267.67
4276.02
4280.31
4280.45
4276.39
4268.23
4256.04
4240.05
4220.54
4197.83
4172.3
4144.35
4114.39
4082.86
4050.2
4016.87
3983.29
3949.87
3916.99
3884.99
3854.13
3824.65
3796.71
3770.45
3745.94
3723.25
3702.4
3683.38
3666.19
3650.78
3637.11
3625.13
3614.78
3606
3598.71
3592.85
3588.38
3585.23
3583.33
3582.75
3583.32
3585.05
3587.93
3591.96
3597.14
3603.48
3610.99
3619.71
3629.64
3640.85
3653.42
3667.4
3682.86
3699.88
3718.53
3738.86
3760.95
3784.81
3810.44
3837.78
3866.67
3896.81
3926.67
3958.44
3990.99
4023.69
4056
4087.47
4117.56
4145.77
4171.67
4194.83
4214.87
4231.49
4244.43
4253.52
4258.64
4259.65
4256.65
4249.7
4238.98
4224.71
4207.17
4186.7
4163.66
4138.43
4111.44
4083.08
4053.74
4023.77
3993.5
3963.29
3933.52
3906.48
3878.03
3850.08
3822.95
3796.81
3771.78
3747.94
3725.34
3704.06
3684.15
3665.64
3648.58
3633.02
3619
3606.55
3595.71
3586.51
3578.99
3573.15
3569
3566.57
3565.9
3567.09
3570.1
3574.92
3581.52
3589.9
3600.07
3943.04
3975.14
4006.57
4036.9
4065.75
4092.59
4117.06
4138.74
4157.3
4172.49
4184.05
4191.8
4195.62
4195.27
4190.89
4182.62
4170.48
4154.67
4135.42
4113.02
4087.82
4060.15
4030.4
3998.99
3966.34
3932.87
3898.98
3865.06
3831.48
3798.73
3767.61
3736.96
3707.52
3679.53
3653.13
3628.43
3605.48
3584.31
3564.94
3547.33
3531.48
3517.33
3504.84
3493.97
3484.67
3476.89
3470.59
3465.74
3462.31
3460.27
3459.65
3460.48
3462.66
3466.27
3471.32
3477.85
3485.88
3495.48
3506.69
3519.55
3534.09
3550.35
3568.37
3588.13
3609.63
3632.83
3657.69
3684.1
3711.98
3741.16
3771.52
3802.94
3835.22
3867.9
3900.71
3933.38
3965.59
3997.02
4027.33
4056.16
4083.19
4108.06
4130.43
4150.01
4166.52
4179.7
4189.34
4195.28
4197.41
4195.66
4190.11
4180.82
4167.83
4151.35
4131.58
4108.78
4083.22
4055.24
4025.19
3993.45
3960.43
3926.54
3892.18
3857.78
3823.72
3790.39
3758.06
3727.04
3697.55
3669.77
3643.83
3619.79
3597.72
3577.61
3559.44
3543.2
3528.82
3516.25
3505.44
3496.32
3488.83
3482.93
3478.54
3475.61
3474.12
3474.05
3475.3
3477.87
3481.74
3486.89
3493.32
3501.02
3510.01
3520.31
3531.94
3544.95
3559.37
3575.26
3592.66
3611.59
3632.09
3654.16
3677.78
3702.92
3729.51
3757.45
3786.61
3816.84
3847.92
3879.62
3911.65
3943.71
3975.46
4006.54
4036.54
4065.08
4091.75
4116.14
4137.88
4156.6
4172
4183.78
4191.73
4195.65
4195.46
4191.13
4182.74
4170.33
4154.11
4134.34
4111.31
4085.39
4056.97
4026.5
3994.43
3961.21
3927.31
3893.18
3859.21
3825.8
3793.26
3761.87
3731.85
3703.4
3676.64
3651.66
3628.53
3607.25
3587.83
3570.24
3554.44
3540.39
3528.04
3517.34
3508.21
3500.61
3494.46
3489.69
3486.25
3484.07
3483.15
3483.42
3484.85
3487.46
3491.25
3496.25
3502.49
3510
3518.83
3529.02
3540.61
3553.66
3568.22
3584.33
3602.05
3621.4
3642.39
3665.02
3689.25
3715.01
3742.21
3770.74
3800.44
3831.12
3862.54
3894.41
3926.41
3958.22
3989.43
4019.66
4048.49
4075.49
4100.28
4122.44
4141.62
4157.48
4169.71
4178.08
4182.38
4182.5
4178.45
4170.28
4158.08
4142.07
4122.55
4099.82
4074.28
4046.3
4016.32
3984.77
3952.1
3918.75
3885.15
3851.72
3818.83
3786.82
3755.96
3726.47
3698.53
3672.27
3647.76
3625.07
3604.21
3585.2
3568.01
3552.61
3538.94
3526.96
3516.62
3507.84
3500.55
3494.7
3490.23
3487.08
3485.18
3484.6
3485.17
3486.9
3489.79
3493.81
3498.99
3505.33
3512.84
3521.56
3531.49
3542.7
3555.26
3569.24
3584.69
3601.71
3620.35
3640.68
3662.77
3686.63
3712.26
3739.6
3768.49
3798.65
3828.51
3860.29
3892.86
3925.58
3957.91
3989.4
4019.52
4047.74
4073.66
4096.84
4116.9
4133.53
4146.48
4155.57
4160.69
4161.71
4158.7
4151.75
4141.02
4126.73
4109.17
4088.69
4065.63
4040.38
4013.37
3985
3955.64
3925.66
3895.38
3865.15
3835.36
3808.35
3779.89
3751.92
3724.79
3698.66
3673.62
3649.78
3627.18
3605.9
3585.98
3567.47
3550.42
3534.86
3520.83
3508.39
3497.55
3488.35
3480.82
3474.98
3470.83
3468.4
3467.74
3468.92
3471.94
3476.76
3483.35
3491.74
3501.9
3844.93
3877.06
3908.52
3938.88
3967.77
3994.65
4019.15
4040.86
4059.45
4074.66
4086.24
4094.01
4097.83
4097.5
4093.1
4084.81
4072.66
4056.82
4037.55
4015.11
3989.87
3962.17
3932.38
3900.94
3868.25
3834.75
3800.83
3766.88
3733.28
3700.51
3669.37
3638.71
3609.26
3581.27
3554.87
3530.17
3507.22
3486.05
3466.68
3449.08
3433.23
3419.09
3406.6
3395.74
3386.44
3378.67
3372.38
3367.53
3364.1
3362.07
3361.45
3362.27
3364.45
3368.06
3373.11
3379.62
3387.65
3397.25
3408.45
3421.31
3435.85
3452.1
3470.12
3489.88
3511.37
3534.58
3559.44
3585.86
3613.73
3642.93
3673.3
3704.74
3737.04
3769.73
3802.57
3835.26
3867.5
3898.96
3929.29
3958.16
3985.22
4010.12
4032.52
4052.14
4068.67
4081.87
4091.52
4097.48
4099.62
4097.86
4092.3
4082.99
4069.99
4053.48
4033.69
4010.86
3985.27
3957.25
3927.17
3895.4
3862.34
3828.41
3794.02
3759.59
3725.5
3692.15
3659.81
3628.77
3599.27
3571.49
3545.54
3521.51
3499.44
3479.33
3461.17
3444.93
3430.56
3418
3407.2
3398.09
3390.6
3384.7
3380.32
3377.39
3375.91
3375.84
3377.09
3379.66
3383.53
3388.69
3395.11
3402.81
3411.8
3422.09
3433.72
3446.72
3461.15
3477.03
3494.42
3513.35
3533.84
3555.91
3579.53
3604.68
3631.27
3659.22
3688.39
3718.63
3749.73
3781.44
3813.49
3845.58
3877.36
3908.47
3938.51
3967.09
3993.79
4018.22
4039.99
4058.75
4074.17
4085.97
4093.94
4097.88
4097.67
4093.34
4084.94
4072.51
4056.27
4036.46
4013.4
3987.44
3958.98
3928.47
3896.36
3863.1
3829.17
3795
3761.01
3727.58
3695.02
3663.61
3633.59
3605.13
3578.37
3553.39
3530.26
3508.98
3489.57
3471.98
3456.19
3442.14
3429.8
3419.11
3409.99
3402.39
3396.24
3391.48
3388.04
3385.87
3384.95
3385.22
3386.65
3389.26
3393.05
3398.05
3404.28
3411.79
3420.62
3430.8
3442.38
3455.43
3469.98
3486.09
3503.81
3523.15
3544.14
3566.77
3590.99
3616.76
3643.97
3672.51
3702.22
3732.91
3764.36
3796.25
3828.28
3860.11
3891.36
3921.63
3950.49
3977.53
4002.35
4024.55
4043.77
4059.65
4071.91
4080.29
4084.61
4084.72
4080.66
4072.48
4060.26
4044.23
4024.67
4001.91
3976.32
3948.31
3918.29
3886.71
3854
3820.61
3786.98
3753.52
3720.61
3688.58
3657.71
3628.21
3600.27
3574
3549.5
3526.8
3505.95
3486.95
3469.76
3454.36
3440.7
3428.73
3418.39
3409.62
3402.34
3396.49
3392.03
3388.88
3386.99
3386.41
3386.98
3388.71
3391.6
3395.62
3400.8
3407.14
3414.64
3423.35
3433.28
3444.48
3457.04
3471.01
3486.46
3503.47
3522.1
3542.42
3564.51
3588.36
3613.99
3641.34
3670.25
3700.43
3730.28
3762.09
3794.7
3827.46
3859.83
3891.36
3921.52
3949.79
3975.75
3998.96
4019.05
4035.71
4048.68
4057.78
4062.91
4063.94
4060.89
4053.93
4043.18
4028.87
4011.28
3990.76
3967.67
3942.39
3915.34
3886.93
3857.55
3827.54
3797.24
3766.98
3737.16
3710.19
3681.7
3653.72
3626.58
3600.44
3575.4
3551.56
3528.96
3507.68
3487.76
3469.24
3452.19
3436.63
3422.6
3410.16
3399.31
3390.11
3382.58
3376.75
3372.59
3370.17
3369.5
3370.68
3373.7
3378.52
3385.11
3393.5
3403.67
3746.8
3778.98
3810.5
3840.91
3869.85
3896.78
3921.33
3943.09
3961.73
3976.97
3988.58
3996.36
4000.19
3999.89
3995.47
3987.16
3974.97
3959.1
3939.78
3917.3
3892
3864.25
3834.4
3802.9
3770.17
3736.62
3702.65
3668.66
3635.03
3602.24
3571.06
3540.38
3510.93
3482.93
3456.52
3431.82
3408.87
3387.71
3368.35
3350.76
3334.91
3320.78
3308.3
3297.45
3288.16
3280.39
3274.1
3269.26
3265.83
3263.8
3263.18
3264
3266.18
3269.79
3274.83
3281.34
3289.36
3298.96
3310.15
3323
3337.53
3353.78
3371.79
3391.55
3413.04
3436.24
3461.11
3487.53
3515.42
3544.63
3575.02
3606.48
3638.81
3671.54
3704.4
3737.13
3769.41
3800.92
3831.3
3860.22
3887.32
3912.27
3934.72
3954.37
3970.94
3984.17
3993.85
3999.82
4001.97
4000.21
3994.63
3985.31
3972.28
3955.74
3935.91
3913.03
3887.39
3859.32
3829.19
3797.36
3764.25
3730.27
3695.83
3661.36
3627.23
3593.85
3561.48
3530.42
3500.91
3473.12
3447.17
3423.14
3401.07
3380.97
3362.82
3346.59
3332.23
3319.68
3308.89
3299.78
3292.31
3286.41
3282.04
3279.12
3277.65
3277.57
3278.83
3281.4
3285.28
3290.43
3296.86
3304.55
3313.54
3323.82
3335.44
3348.44
3362.85
3378.73
3396.11
3415.04
3435.53
3457.59
3481.21
3506.36
3532.96
3560.91
3590.1
3620.36
3651.49
3683.23
3715.31
3747.44
3779.27
3810.43
3840.52
3869.15
3895.9
3920.38
3942.21
3961.01
3976.47
3988.31
3996.3
4000.27
4000.05
3995.72
3987.29
3974.84
3958.55
3938.7
3915.58
3889.56
3861.05
3830.48
3798.3
3764.99
3731.01
3696.8
3662.77
3629.3
3596.71
3565.28
3535.24
3506.78
3480.01
3455.03
3431.9
3410.64
3391.22
3373.65
3357.86
3343.83
3331.5
3320.81
3311.7
3304.11
3297.97
3293.22
3289.79
3287.63
3286.71
3286.98
3288.41
3291.02
3294.8
3299.8
3306.03
3313.53
3322.35
3332.52
3344.1
3357.13
3371.68
3387.78
3405.49
3424.83
3445.82
3468.44
3492.67
3518.44
3545.66
3574.22
3603.95
3634.66
3666.13
3698.06
3730.13
3762.01
3793.31
3823.63
3852.55
3879.65
3904.52
3926.77
3946.03
3961.96
3974.25
3982.66
3987
3987.11
3983.04
3974.84
3962.59
3946.51
3926.9
3904.09
3878.45
3850.37
3820.3
3788.65
3755.89
3722.45
3688.78
3655.28
3622.34
3590.28
3559.38
3529.88
3501.92
3475.65
3451.15
3428.46
3407.61
3388.61
3371.43
3356.04
3342.39
3330.43
3320.1
3311.34
3304.07
3298.23
3293.77
3290.63
3288.76
3288.17
3288.74
3290.48
3293.36
3297.38
3302.56
3308.89
3316.4
3325.1
3335.02
3346.21
3358.76
3372.72
3388.15
3405.15
3423.77
3444.08
3466.16
3490.01
3515.64
3543
3571.93
3602.14
3631.98
3663.85
3696.51
3729.32
3761.76
3793.36
3823.57
3851.91
3877.92
3901.19
3921.33
3938.03
3951.02
3960.14
3965.28
3966.32
3963.25
3956.27
3945.48
3931.13
3913.49
3892.93
3869.78
3844.44
3817.35
3788.89
3759.46
3729.41
3699.07
3668.78
3638.9
3612
3583.47
3555.47
3528.31
3502.17
3477.12
3453.27
3430.67
3409.39
3389.47
3370.95
3353.9
3338.34
3324.31
3311.86
3301.02
3291.82
3284.28
3278.44
3274.29
3271.87
3271.19
3272.38
3275.39
3280.22
3286.81
3295.2
3305.37
3648.66
3680.9
3712.49
3742.98
3771.99
3798.99
3823.61
3845.43
3864.13
3879.42
3891.06
3898.87
3902.71
3902.44
3897.99
3889.65
3877.43
3861.5
3842.13
3819.57
3794.21
3766.38
3736.46
3704.89
3672.09
3638.47
3604.45
3570.41
3536.73
3503.91
3472.69
3441.99
3412.51
3384.5
3358.09
3333.39
3310.45
3289.29
3269.94
3252.36
3236.52
3222.4
3209.94
3199.09
3189.81
3182.05
3175.77
3170.94
3167.51
3165.49
3164.86
3165.68
3167.86
3171.46
3176.5
3183
3191.01
3200.6
3211.78
3224.61
3239.14
3255.38
3273.38
3293.14
3314.63
3337.83
3362.7
3389.14
3417.04
3446.27
3476.67
3508.18
3540.54
3573.31
3606.22
3639
3671.33
3702.9
3733.34
3762.32
3789.49
3814.49
3837
3856.72
3873.34
3886.61
3896.32
3902.31
3904.47
3902.72
3897.12
3887.77
3874.7
3858.12
3838.23
3815.29
3789.59
3761.45
3731.24
3699.35
3666.17
3632.12
3597.62
3563.08
3528.9
3495.49
3463.07
3431.99
3402.46
3374.66
3348.71
3324.68
3302.62
3282.53
3264.39
3248.17
3233.82
3221.29
3210.51
3201.41
3193.95
3188.07
3183.7
3180.79
3179.33
3179.25
3180.51
3183.09
3186.97
3192.12
3198.55
3206.24
3215.22
3225.5
3237.11
3250.1
3264.5
3280.36
3297.74
3316.65
3337.14
3359.2
3382.82
3407.97
3434.58
3462.55
3491.75
3522.04
3553.2
3584.98
3617.11
3649.29
3681.18
3712.4
3742.57
3771.26
3798.09
3822.64
3844.54
3863.4
3878.92
3890.8
3898.82
3902.81
3902.6
3898.25
3889.8
3877.3
3860.97
3841.05
3817.87
3791.77
3763.18
3732.52
3700.27
3666.88
3632.83
3598.55
3564.47
3530.96
3498.33
3466.88
3436.82
3408.34
3381.57
3356.59
3333.47
3312.21
3292.8
3275.24
3259.46
3245.44
3233.12
3222.45
3213.35
3205.77
3199.65
3194.91
3191.48
3189.33
3188.42
3188.69
3190.12
3192.72
3196.51
3201.5
3207.72
3215.21
3224.02
3234.18
3245.75
3258.78
3273.31
3289.4
3307.1
3326.43
3347.42
3370.04
3394.27
3420.05
3447.29
3475.86
3505.61
3536.36
3567.87
3599.84
3631.97
3663.91
3695.28
3725.66
3754.66
3781.83
3806.78
3829.1
3848.43
3864.41
3876.75
3885.19
3889.55
3889.67
3885.59
3877.35
3865.05
3848.93
3829.25
3806.37
3780.64
3752.49
3722.34
3690.62
3657.78
3624.28
3590.54
3556.99
3524
3491.91
3460.99
3431.46
3403.5
3377.22
3352.72
3330.03
3309.19
3290.2
3273.03
3257.65
3244.01
3232.07
3221.75
3213
3205.74
3199.91
3195.47
3192.33
3190.47
3189.88
3190.46
3192.2
3195.08
3199.1
3204.27
3210.6
3218.1
3226.8
3236.71
3247.89
3260.42
3274.36
3289.78
3306.76
3325.36
3345.66
3367.73
3391.58
3417.21
3444.58
3473.55
3503.8
3533.62
3565.55
3598.28
3631.18
3663.7
3695.38
3725.68
3754.1
3780.19
3803.53
3823.73
3840.48
3853.52
3862.66
3867.8
3868.85
3865.76
3858.75
3847.92
3833.51
3815.81
3795.17
3771.96
3746.55
3719.38
3690.86
3661.37
3631.27
3600.89
3570.54
3540.59
3513.79
3485.2
3457.16
3429.99
3403.83
3378.79
3354.93
3332.33
3311.04
3291.12
3272.6
3255.54
3239.98
3225.95
3213.5
3202.65
3193.45
3185.92
3180.07
3175.92
3173.5
3172.82
3174
3177.02
3181.84
3188.44
3196.83
3207
3550.52
3582.84
3614.51
3645.08
3674.18
3701.28
3725.98
3747.89
3766.65
3782
3793.7
3801.54
3805.39
3805.13
3800.68
3792.3
3780.02
3764.03
3744.58
3721.95
3696.5
3668.58
3638.56
3606.9
3574.01
3540.31
3506.21
3472.11
3438.38
3405.51
3374.24
3343.51
3314.02
3286
3259.58
3234.88
3211.94
3190.79
3171.45
3153.88
3138.06
3123.95
3111.5
3100.67
3091.4
3083.65
3077.38
3072.55
3069.14
3067.12
3066.49
3067.31
3069.48
3073.08
3078.11
3084.6
3092.6
3102.17
3113.34
3126.16
3140.68
3156.91
3174.9
3194.65
3216.14
3239.35
3264.22
3290.67
3318.59
3347.84
3378.27
3409.82
3442.23
3475.04
3508.01
3540.86
3573.26
3604.9
3635.41
3664.47
3691.72
3716.8
3739.39
3759.18
3775.86
3789.18
3798.94
3804.95
3807.12
3805.37
3799.76
3790.36
3777.26
3760.62
3740.66
3717.65
3691.86
3663.64
3633.34
3601.36
3568.09
3533.95
3499.38
3464.77
3430.51
3397.05
3364.59
3333.48
3303.92
3276.11
3250.15
3226.13
3204.08
3184
3165.88
3149.68
3135.34
3122.82
3112.06
3102.98
3095.53
3089.66
3085.3
3082.41
3080.95
3080.88
3082.15
3084.73
3088.61
3093.76
3100.18
3107.88
3116.85
3127.12
3138.72
3151.69
3166.08
3181.94
3199.3
3218.2
3238.68
3260.73
3284.36
3309.51
3336.13
3364.11
3393.34
3423.66
3454.86
3486.69
3518.88
3551.13
3583.09
3614.4
3644.65
3673.44
3700.35
3725
3746.97
3765.92
3781.5
3793.44
3801.5
3805.5
3805.31
3800.95
3792.46
3779.92
3763.52
3743.52
3720.24
3694.05
3665.36
3634.61
3602.25
3568.77
3534.63
3500.27
3466.12
3432.55
3399.88
3368.39
3338.32
3309.82
3283.04
3258.07
3234.94
3213.69
3194.3
3176.75
3160.99
3146.99
3134.68
3124.02
3114.94
3107.38
3101.27
3096.54
3093.13
3090.99
3090.08
3090.35
3091.79
3094.39
3098.16
3103.14
3109.36
3116.84
3125.64
3135.79
3147.35
3160.35
3174.87
3190.95
3208.64
3227.96
3248.94
3271.56
3295.8
3321.59
3348.84
3377.43
3407.22
3438
3469.57
3501.6
3533.79
3565.81
3597.26
3627.74
3656.82
3684.09
3709.12
3731.53
3750.94
3767
3779.4
3787.88
3792.26
3792.39
3788.3
3780.02
3767.67
3751.47
3731.71
3708.74
3682.92
3654.67
3624.42
3592.6
3559.67
3526.08
3492.27
3458.65
3425.6
3393.47
3362.51
3332.97
3304.99
3278.71
3254.2
3231.52
3210.69
3191.71
3174.55
3159.19
3145.57
3133.63
3123.33
3114.6
3107.35
3101.54
3097.11
3093.99
3092.14
3091.55
3092.13
3093.87
3096.75
3100.77
3105.94
3112.26
3119.75
3128.44
3138.34
3149.5
3162.02
3175.94
3191.34
3208.3
3226.88
3247.17
3269.22
3293.06
3318.7
3346.09
3375.08
3405.39
3435.19
3467.21
3500.03
3533.02
3565.64
3597.43
3627.84
3656.36
3682.55
3705.98
3726.26
3743.08
3756.16
3765.34
3770.49
3771.54
3768.43
3761.37
3750.49
3736.01
3718.23
3697.51
3674.2
3648.71
3621.46
3592.85
3563.29
3533.12
3502.68
3472.26
3442.23
3415.54
3386.88
3358.81
3331.61
3305.44
3280.39
3256.53
3233.92
3212.63
3192.7
3174.18
3157.12
3141.55
3127.52
3115.07
3104.22
3095.02
3087.48
3081.63
3077.48
3075.06
3074.38
3075.56
3078.58
3083.4
3090
3098.39
3108.56
3452.36
3484.78
3516.55
3547.23
3576.44
3603.64
3628.45
3650.45
3669.3
3684.73
3696.48
3704.36
3708.23
3707.98
3703.52
3695.09
3682.75
3666.69
3647.15
3624.42
3598.86
3570.83
3540.71
3508.94
3475.93
3442.14
3407.95
3373.77
3339.97
3307.06
3275.72
3244.96
3215.45
3187.41
3160.99
3136.28
3113.35
3092.21
3072.88
3055.33
3039.53
3025.43
3013
3002.18
2992.93
2985.19
2978.93
2974.12
2970.71
2968.69
2968.06
2968.88
2971.05
2974.64
2979.66
2986.14
2994.13
3003.68
3014.84
3027.64
3042.14
3058.36
3076.34
3096.08
3117.57
3140.78
3165.66
3192.12
3220.06
3249.34
3279.8
3311.41
3343.88
3376.75
3409.79
3442.7
3475.19
3506.91
3537.52
3566.68
3594.02
3619.2
3641.88
3661.75
3678.51
3691.89
3701.69
3707.74
3709.93
3708.18
3702.54
3693.11
3679.94
3663.24
3643.2
3620.1
3594.21
3565.89
3535.48
3503.39
3470.02
3435.78
3401.1
3366.41
3332.08
3298.54
3266.03
3234.88
3205.3
3177.47
3151.51
3127.49
3105.45
3085.39
3067.28
3051.1
3036.79
3024.29
3013.54
3004.48
2997.05
2991.19
2986.85
2983.97
2982.52
2982.46
2983.73
2986.32
2990.2
2995.35
3001.77
3009.46
3018.42
3028.68
3040.27
3053.23
3067.6
3083.44
3100.79
3119.68
3140.15
3162.2
3185.82
3210.98
3237.61
3265.62
3294.87
3325.23
3356.48
3388.37
3420.63
3452.96
3485.01
3516.41
3546.76
3575.66
3602.69
3627.44
3649.52
3668.56
3684.23
3696.23
3704.34
3708.37
3708.19
3703.81
3695.28
3682.67
3666.2
3646.11
3622.72
3596.41
3567.6
3536.72
3504.25
3470.66
3436.41
3401.96
3367.73
3334.09
3301.37
3269.84
3239.73
3211.22
3184.43
3159.45
3136.34
3115.1
3095.73
3078.19
3062.45
3048.46
3036.17
3025.53
3016.47
3008.93
3002.83
2998.12
2994.73
2992.6
2991.69
2991.97
2993.4
2996
2999.77
3004.74
3010.95
3018.42
3027.2
3037.34
3048.88
3061.87
3076.37
3092.44
3110.11
3129.42
3150.39
3173.01
3197.25
3223.05
3250.32
3278.95
3308.76
3339.59
3371.22
3403.32
3435.6
3467.71
3499.26
3529.84
3559.04
3586.41
3611.56
3634.08
3653.58
3669.73
3682.19
3690.73
3695.14
3695.28
3691.17
3682.84
3670.43
3654.15
3634.29
3611.2
3585.27
3556.9
3526.53
3494.6
3461.56
3427.87
3393.96
3360.26
3327.15
3294.96
3263.97
3234.39
3206.4
3180.11
3155.61
3132.93
3112.11
3093.14
3076
3060.65
3047.05
3035.14
3024.85
3016.14
3008.91
3003.12
2998.7
2995.59
2993.76
2993.17
2993.76
2995.5
2998.38
3002.4
3007.56
3013.87
3021.36
3030.03
3039.92
3051.06
3063.56
3077.46
3092.84
3109.77
3128.32
3148.59
3170.62
3194.46
3220.1
3247.51
3276.55
3306.92
3336.69
3368.82
3401.75
3434.86
3467.6
3499.51
3530.05
3558.69
3585.01
3608.54
3628.92
3645.82
3658.96
3668.17
3673.34
3674.38
3671.25
3664.14
3653.19
3638.63
3620.76
3599.93
3576.52
3550.91
3523.56
3494.86
3465.21
3434.96
3404.45
3373.95
3343.81
3317.27
3288.51
3260.4
3233.18
3206.99
3181.93
3158.06
3135.45
3114.15
3094.23
3075.7
3058.64
3043.07
3029.03
3016.58
3005.72
2996.52
2988.98
2983.13
2978.98
2976.56
2975.87
2977.05
2980.07
2984.9
2991.49
2999.88
3010.06
3354.19
3386.72
3418.62
3449.42
3478.76
3506.08
3531.01
3553.13
3572.08
3587.59
3599.41
3607.34
3611.23
3610.98
3606.51
3598.03
3585.62
3569.47
3549.83
3526.98
3501.3
3473.14
3442.89
3410.99
3377.86
3343.96
3309.67
3275.4
3241.52
3208.55
3177.13
3146.34
3116.8
3088.74
3062.31
3037.6
3014.68
2993.55
2974.23
2956.7
2940.92
2926.85
2914.43
2903.63
2894.39
2886.67
2880.43
2875.62
2872.22
2870.22
2869.59
2870.39
2872.56
2876.14
2881.15
2887.62
2895.59
2905.13
2916.26
2929.05
2943.53
2959.73
2977.71
2997.44
3018.92
3042.14
3067.03
3093.5
3121.47
3150.78
3181.28
3212.95
3245.48
3278.42
3311.54
3344.54
3377.12
3408.95
3439.66
3468.93
3496.38
3521.67
3544.46
3564.43
3581.28
3594.74
3604.6
3610.68
3612.88
3611.14
3605.48
3595.99
3582.76
3565.98
3545.85
3522.64
3496.64
3468.19
3437.66
3405.44
3371.95
3337.59
3302.8
3268
3233.59
3199.97
3167.4
3136.2
3106.59
3078.74
3052.78
3028.76
3006.73
2986.69
2968.6
2952.44
2938.15
2925.68
2914.95
2905.92
2898.51
2892.66
2888.34
2885.47
2884.03
2883.98
2885.26
2887.85
2891.74
2896.89
2903.31
2910.99
2919.94
2930.19
2941.77
2954.71
2969.06
2984.88
3002.21
3021.09
3041.54
3063.59
3087.21
3112.37
3139.02
3167.05
3196.34
3226.74
3258.05
3290.01
3322.35
3354.77
3386.93
3418.44
3448.92
3477.94
3505.1
3529.97
3552.17
3571.32
3587.09
3599.17
3607.33
3611.4
3611.23
3606.84
3598.25
3585.58
3569.01
3548.8
3525.3
3498.85
3469.9
3438.88
3406.27
3372.54
3338.17
3303.61
3269.28
3235.56
3202.78
3171.2
3141.06
3112.53
3085.73
3060.76
3037.65
3016.43
2997.07
2979.55
2963.83
2949.86
2937.6
2926.98
2917.94
2910.42
2904.34
2899.65
2896.27
2894.16
2893.26
2893.54
2894.98
2897.57
2901.33
2906.29
2912.48
2919.94
2928.71
2938.83
2950.35
2963.32
2977.8
2993.85
3011.5
3030.8
3051.77
3074.39
3098.63
3124.45
3151.74
3180.39
3210.25
3241.14
3272.84
3305.02
3337.39
3369.61
3401.27
3431.98
3461.31
3488.81
3514.09
3536.73
3556.35
3572.59
3585.14
3593.74
3598.19
3598.34
3594.2
3585.83
3573.33
3556.95
3536.98
3513.76
3487.69
3459.19
3428.68
3396.62
3363.45
3329.63
3295.62
3261.82
3228.63
3196.38
3165.34
3135.74
3107.73
3081.43
3056.93
3034.26
3013.45
2994.5
2977.37
2962.05
2948.47
2936.57
2926.31
2917.61
2910.41
2904.64
2900.24
2897.15
2895.33
2894.75
2895.34
2897.09
2899.97
2903.98
2909.13
2915.44
2922.91
2931.58
2941.45
2952.57
2965.04
2978.92
2994.26
3011.17
3029.69
3049.93
3071.95
3095.77
3121.42
3148.84
3177.94
3208.4
3238.12
3270.37
3303.44
3336.68
3369.56
3401.62
3432.31
3461.1
3487.56
3511.22
3531.71
3548.69
3561.9
3571.16
3576.34
3577.39
3574.23
3567.06
3556.03
3541.38
3523.39
3502.44
3478.9
3453.17
3425.7
3396.88
3367.13
3336.79
3306.19
3275.61
3245.34
3218.97
3190.1
3161.93
3134.69
3108.48
3083.41
3059.53
3036.91
3015.62
2995.68
2977.16
2960.09
2944.52
2930.48
2918.02
2907.16
2897.95
2890.41
2884.56
2880.41
2877.98
2877.29
2878.47
2881.5
2886.32
2892.92
2901.31
2911.48
3256.01
3288.67
3320.71
3351.65
3381.13
3408.6
3433.67
3455.91
3474.98
3490.59
3502.49
3510.47
3514.39
3514.15
3509.66
3501.12
3488.64
3472.39
3452.62
3429.64
3403.82
3375.51
3345.1
3313.06
3279.8
3245.76
3211.35
3176.98
3143.02
3109.97
3078.47
3047.64
3018.07
2989.99
2963.55
2938.84
2915.92
2894.81
2875.51
2858
2842.24
2828.19
2815.8
2805.02
2795.8
2788.1
2781.87
2777.07
2773.68
2771.68
2771.06
2771.86
2774.02
2777.59
2782.59
2789.04
2796.99
2806.51
2817.62
2830.39
2844.85
2861.04
2878.99
2898.72
2920.2
2943.41
2968.32
2994.81
3022.8
3052.15
3082.69
3114.43
3147.04
3180.05
3213.26
3246.37
3279.06
3311
3341.84
3371.23
3398.81
3424.23
3447.14
3467.23
3484.17
3497.72
3507.64
3513.77
3515.99
3514.25
3508.56
3499.02
3485.72
3468.84
3448.6
3425.27
3399.14
3370.55
3339.88
3307.52
3273.88
3239.39
3204.47
3169.55
3135.03
3101.32
3068.69
3037.43
3007.79
2979.93
2953.95
2929.94
2907.93
2887.9
2869.84
2853.71
2839.45
2827
2816.3
2807.29
2799.9
2794.08
2789.77
2786.92
2785.49
2785.45
2786.74
2789.34
2793.23
2798.38
2804.8
2812.47
2821.41
2831.65
2843.2
2856.13
2870.46
2886.26
2903.57
2922.43
2942.87
2964.9
2988.52
3013.7
3040.36
3068.42
3097.75
3128.2
3159.57
3191.61
3224.04
3256.57
3288.85
3320.49
3351.11
3380.28
3407.58
3432.6
3454.94
3474.21
3490.09
3502.26
3510.49
3514.59
3514.44
3510.02
3501.38
3488.63
3471.95
3451.62
3427.97
3401.37
3372.25
3341.07
3308.3
3274.42
3239.91
3205.22
3170.78
3136.98
3104.12
3072.49
3042.31
3013.75
2986.95
2961.98
2938.88
2917.67
2898.33
2880.83
2865.14
2851.19
2838.95
2828.36
2819.35
2811.85
2805.8
2801.12
2797.77
2795.67
2794.78
2795.07
2796.51
2799.09
2802.85
2807.8
2813.97
2821.41
2830.16
2840.26
2851.76
2864.71
2879.17
2895.19
2912.83
2932.11
2953.07
2975.69
2999.94
3025.76
3053.08
3081.77
3111.68
3142.62
3174.41
3206.68
3239.16
3271.5
3303.3
3334.16
3363.63
3391.29
3416.71
3439.49
3459.24
3475.6
3488.25
3496.92
3501.4
3501.57
3497.41
3488.97
3476.38
3459.89
3439.78
3416.42
3390.19
3361.53
3330.87
3298.65
3265.33
3231.38
3197.24
3163.33
3130.05
3097.73
3066.64
3037
3008.98
2982.67
2958.17
2935.51
2914.71
2895.77
2878.67
2863.37
2849.81
2837.94
2827.71
2819.03
2811.85
2806.1
2801.72
2798.66
2796.85
2796.28
2796.88
2798.63
2801.5
2805.51
2810.66
2816.96
2824.42
2833.07
2842.92
2854.02
2866.46
2880.31
2895.62
2912.49
2930.98
2951.19
2973.19
2997
3022.65
3050.1
3079.25
3109.81
3139.47
3171.88
3205.09
3238.48
3271.53
3303.76
3334.62
3363.58
3390.2
3414
3434.62
3451.71
3465
3474.31
3479.51
3480.55
3477.36
3470.13
3459.01
3444.24
3426.12
3405.04
3381.36
3355.48
3327.87
3298.93
3269.06
3238.61
3207.92
3177.24
3146.82
3120.63
3091.63
3063.41
3036.14
3009.92
2984.83
2960.94
2938.32
2917.02
2897.08
2878.55
2861.48
2845.9
2831.86
2819.39
2808.53
2799.32
2791.77
2785.92
2781.77
2779.34
2778.64
2779.83
2782.85
2787.68
2794.28
2802.67
2812.84
3157.82
3190.63
3222.82
3253.93
3283.57
3311.2
3336.42
3358.81
3378.01
3393.73
3405.72
3413.76
3417.71
3417.48
3412.97
3404.36
3391.79
3375.42
3355.53
3332.39
3306.41
3277.93
3247.36
3215.16
3181.73
3147.55
3113.01
3078.52
3044.46
3011.33
2979.75
2948.86
2919.25
2891.15
2864.7
2839.99
2817.08
2795.99
2776.71
2759.22
2743.49
2729.46
2717.1
2706.34
2697.14
2689.46
2683.24
2678.46
2675.09
2673.1
2672.47
2673.27
2675.43
2678.98
2683.97
2690.39
2698.33
2707.82
2718.91
2731.65
2746.09
2762.26
2780.2
2799.92
2821.39
2844.61
2869.52
2896.03
2924.06
2953.45
2984.04
3015.85
3048.55
3081.65
3114.97
3148.18
3181
3213.07
3244.05
3273.58
3301.31
3326.87
3349.92
3370.13
3387.2
3400.84
3410.84
3417.02
3419.26
3417.51
3411.79
3402.19
3388.81
3371.82
3351.46
3327.99
3301.71
3272.97
3242.14
3209.62
3175.82
3141.17
3106.11
3071.06
3036.42
3002.61
2969.89
2938.58
2908.9
2881.01
2855.04
2831.03
2809.03
2789.03
2771
2754.89
2740.66
2728.24
2717.57
2708.59
2701.23
2695.43
2691.14
2688.31
2686.9
2686.86
2688.17
2690.77
2694.66
2699.82
2706.23
2713.9
2722.83
2733.05
2744.59
2757.49
2771.8
2787.57
2804.85
2823.69
2844.12
2866.15
2889.77
2914.95
2941.63
2969.72
2999.09
3029.59
3061.05
3093.17
3125.71
3158.36
3190.77
3222.56
3253.33
3282.67
3310.13
3335.32
3357.81
3377.23
3393.23
3405.51
3413.81
3417.95
3417.81
3413.37
3404.67
3391.82
3375.03
3354.55
3330.74
3303.96
3274.67
3243.3
3210.34
3176.29
3141.62
3106.79
3072.23
3038.32
3005.39
2973.7
2943.48
2914.9
2888.08
2863.11
2840.02
2818.83
2799.51
2782.04
2766.37
2752.45
2740.24
2729.68
2720.69
2713.22
2707.2
2702.55
2699.21
2697.13
2696.26
2696.55
2697.99
2700.57
2704.31
2709.25
2715.41
2722.83
2731.56
2741.64
2753.11
2766.04
2780.47
2796.47
2814.08
2833.35
2854.29
2876.91
2901.16
2927.01
2954.35
2983.08
3013.05
3044.06
3075.94
3108.31
3140.92
3173.4
3205.35
3236.36
3266
3293.83
3319.42
3342.36
3362.26
3378.75
3391.51
3400.25
3404.78
3404.96
3400.77
3392.27
3379.58
3362.95
3342.69
3319.17
3292.77
3263.93
3233.09
3200.69
3167.21
3133.1
3098.82
3064.79
3031.41
2999.01
2967.87
2938.19
2910.14
2883.82
2859.32
2836.67
2815.88
2796.97
2779.89
2764.61
2751.09
2739.25
2729.04
2720.39
2713.24
2707.52
2703.16
2700.11
2698.32
2697.76
2698.37
2700.12
2703
2707
2712.14
2718.43
2725.88
2734.51
2744.34
2755.41
2767.82
2781.63
2796.91
2813.74
2832.19
2852.37
2874.34
2898.14
2923.79
2951.27
2980.48
3011.16
3040.75
3073.34
3106.72
3140.28
3173.51
3205.92
3236.98
3266.13
3292.93
3316.9
3337.66
3354.87
3368.25
3377.61
3382.85
3383.88
3380.65
3373.34
3362.12
3347.23
3328.96
3307.72
3283.88
3257.84
3230.07
3200.98
3170.98
3140.42
3109.62
3078.84
3048.26
3022.24
2993.11
2964.83
2937.53
2911.29
2886.19
2862.3
2839.66
2818.35
2798.41
2779.88
2762.8
2747.22
2733.17
2720.7
2709.84
2700.62
2693.07
2687.21
2683.06
2680.63
2679.93
2681.11
2684.14
2688.96
2695.56
2703.96
2714.14
3059.62
3092.59
3124.95
3156.24
3186.06
3213.87
3239.26
3261.82
3281.16
3297.01
3309.1
3317.21
3321.2
3320.97
3316.43
3307.75
3295.08
3278.59
3258.55
3235.24
3209.08
3180.42
3149.66
3117.27
3083.67
3049.32
3014.63
2980.01
2945.85
2912.63
2880.95
2850.01
2820.36
2792.23
2765.77
2741.06
2718.16
2697.09
2677.83
2660.37
2644.66
2630.66
2618.33
2607.6
2598.43
2590.76
2584.57
2579.8
2576.44
2574.45
2573.84
2574.62
2576.78
2580.32
2585.29
2591.69
2599.6
2609.07
2620.13
2632.85
2647.26
2663.41
2681.34
2701.04
2722.51
2745.73
2770.65
2797.19
2825.25
2854.68
2885.33
2917.22
2950.01
2983.22
3016.65
3049.99
3082.94
3115.16
3146.29
3175.99
3203.87
3229.6
3252.8
3273.15
3290.34
3304.1
3314.18
3320.41
3322.68
3320.93
3315.17
3305.5
3292.03
3274.93
3254.43
3230.81
3204.37
3175.45
3144.44
3111.74
3077.76
3042.94
3007.71
2972.51
2937.75
2903.82
2871.02
2839.65
2809.92
2782.01
2756.03
2732.03
2710.05
2690.07
2672.07
2656
2641.8
2629.42
2618.78
2609.83
2602.49
2596.72
2592.45
2589.64
2588.25
2588.23
2589.54
2592.16
2596.05
2601.21
2607.62
2615.28