/*--------------------------------*- C++ -*----------------------------------*\
| =========                 |                                                 |
| \\      /  F ield         | OpenFOAM: The Open Source CFD Toolbox           |
|  \\    /   O peration     | Version:  3.0.1                                 |
|   \\  /    A nd           | Web:      www.OpenFOAM.org                      |
|    \\/     M anipulation  |                                                 |
\*---------------------------------------------------------------------------*/
FoamFile
{
    version     2.0;
    format      ascii;
    class       surfaceScalarField;
    location    "83";
    object      phi;
}
// * * * * * * * * * * * * * * * * * * * * * * * * * * * * * * * * * * * * * //

dimensions      [0 3 -1 0 0 0 0];

internalField   nonuniform List<scalar> 
42423
(
8.95818e-05
-1.84426e-05
0.000108048
-1.84664e-05
0.000126109
-1.8061e-05
0.000143427
-1.73185e-05
0.00016001
-1.6583e-05
0.000175467
-1.54566e-05
0.000189633
-1.41661e-05
0.000202184
-1.2551e-05
0.00021294
-1.07562e-05
0.00022162
-8.68049e-06
0.000228065
-6.44527e-06
0.000232144
-4.07832e-06
0.000233819
-1.67532e-06
0.000233027
7.92053e-07
0.000229771
3.25591e-06
0.000223977
5.79359e-06
0.000215806
8.17112e-06
0.000205523
1.02827e-05
0.000193341
1.21819e-05
0.000179234
1.41067e-05
0.000163708
1.55266e-05
0.000146923
1.67848e-05
0.000129105
1.7818e-05
0.000110701
1.84036e-05
9.17362e-05
1.8965e-05
7.2585e-05
1.91512e-05
5.34715e-05
1.91135e-05
3.45786e-05
1.88929e-05
1.6126e-05
1.84526e-05
-1.77083e-06
1.78968e-05
-1.90044e-05
1.72336e-05
-3.54509e-05
1.64465e-05
-5.10263e-05
1.55753e-05
-6.56647e-05
1.46384e-05
-7.93548e-05
1.36902e-05
-9.20391e-05
1.26843e-05
-0.000103733
1.16934e-05
-0.000114454
1.07211e-05
-0.000124212
9.75798e-06
-0.000133031
8.81899e-06
-0.000140954
7.92333e-06
-0.000147997
7.04275e-06
-0.000154207
6.21047e-06
-0.0001596
5.39319e-06
-0.000164222
4.62173e-06
-0.000168093
3.87046e-06
-0.000171199
3.10661e-06
-0.000173582
2.38277e-06
-0.00017527
1.68798e-06
-0.000176266
9.96378e-07
-0.000176556
2.89327e-07
-0.000176117
-4.39153e-07
-0.000174859
-1.25747e-06
-0.000172927
-1.9323e-06
-0.000170224
-2.70289e-06
-0.000166742
-3.48201e-06
-0.000162431
-4.31122e-06
-0.000157444
-4.98646e-06
-0.000151399
-6.04518e-06
-0.00014465
-6.74924e-06
-0.000136807
-7.84262e-06
-0.00012808
-8.72728e-06
-0.000118505
-9.57537e-06
-0.00010791
-1.05942e-05
-9.63234e-05
-1.1587e-05
-8.39375e-05
-1.2386e-05
-7.0562e-05
-1.33755e-05
-5.63477e-05
-1.42144e-05
-4.12084e-05
-1.51393e-05
-2.52963e-05
-1.59122e-05
-8.81101e-06
-1.64853e-05
8.20506e-06
-1.70161e-05
2.57357e-05
-1.75307e-05
4.353e-05
-1.77943e-05
6.14844e-05
-1.79544e-05
7.94554e-05
-1.79711e-05
9.72409e-05
-1.77856e-05
0.00011474
-1.74989e-05
0.000131649
-1.69091e-05
0.000147766
-1.61176e-05
0.000163068
-1.53013e-05
0.000177131
-1.40639e-05
0.000189792
-1.26608e-05
0.000200883
-1.10905e-05
0.000210308
-9.42541e-06
0.000217826
-7.51794e-06
0.000223302
-5.47575e-06
0.000226716
-3.41429e-06
0.000227815
-1.09944e-06
0.00022667
1.1451e-06
0.000223043
3.62719e-06
0.000217062
5.98125e-06
0.000208725
8.33653e-06
0.000198253
1.04723e-05
0.00018581
1.24424e-05
0.000171633
1.4177e-05
0.000155932
1.57007e-05
0.000138917
1.7015e-05
0.000120923
1.79948e-05
0.000102188
1.87348e-05
8.29693e-05
1.92185e-05
6.35176e-05
1.94517e-05
4.40683e-05
1.94493e-05
2.48597e-05
1.92087e-05
6.07789e-06
1.87818e-05
-1.20853e-05
1.81632e-05
-2.94834e-05
1.73981e-05
-4.60034e-05
1.652e-05
-6.15737e-05
1.55703e-05
-7.61022e-05
1.45285e-05
-8.95142e-05
1.34121e-05
-0.000101849
1.23348e-05
-0.00011317
1.13206e-05
-0.000123348
1.01782e-05
-0.000132479
9.13106e-06
-0.000140649
8.16982e-06
-0.000147764
7.1158e-06
-0.000153982
6.21757e-06
-0.000159264
5.28172e-06
-0.000163629
4.36492e-06
-0.000167123
3.49477e-06
-0.0001699
2.77702e-06
-0.00017187
1.96986e-06
-0.000173051
1.18028e-06
-0.000173475
4.24751e-07
-0.000173323
-1.52401e-07
-0.000172392
-9.30579e-07
-0.000170835
-1.5576e-06
-0.00016859
-2.24452e-06
-0.000165656
-2.93433e-06
-0.000162195
-3.46071e-06
-0.00015798
-4.21577e-06
-0.000153186
-4.79313e-06
-0.000147681
-5.50499e-06
-0.000141544
-6.13732e-06
-0.00013469
-6.85375e-06
-0.000127158
-7.5321e-06
-0.000118852
-8.30602e-06
-0.000109795
-9.05752e-06
-9.99119e-05
-9.88296e-06
-8.92858e-05
-1.06261e-05
-7.78008e-05
-1.1485e-05
-6.54628e-05
-1.2338e-05
-5.23279e-05
-1.3135e-05
-3.83781e-05
-1.39499e-05
-2.36562e-05
-1.47219e-05
-8.17814e-06
-1.54781e-05
7.76296e-06
-1.59412e-05
2.42712e-05
-1.65083e-05
4.11556e-05
-1.68845e-05
5.82992e-05
-1.71437e-05
7.5515e-05
-1.72158e-05
9.26567e-05
-1.71418e-05
0.000109436
-1.6779e-05
0.000125706
-1.62707e-05
0.000141176
-1.54695e-05
0.000155594
-1.44179e-05
0.000168721
-1.31277e-05
0.000180312
-1.15912e-05
0.000190107
-9.79454e-06
0.000197916
-7.80959e-06
0.000203509
-5.59215e-06
0.000206794
-3.28542e-06
0.000207632
-8.38092e-07
0.00020607
1.56228e-06
0.000201915
4.15503e-06
0.000195375
6.53976e-06
0.000186555
8.81993e-06
0.000175593
1.09616e-05
0.000162707
1.2886e-05
0.000148122
1.45855e-05
0.000132094
1.60276e-05
0.00011493
1.71641e-05
9.68714e-05
1.80586e-05
7.82209e-05
1.86505e-05
5.92758e-05
1.89451e-05
4.02523e-05
1.90235e-05
2.14107e-05
1.88416e-05
2.93867e-06
1.8472e-05
-1.50083e-05
1.7947e-05
-3.22604e-05
1.72521e-05
-4.86878e-05
1.64274e-05
-6.4155e-05
1.54672e-05
-7.86024e-05
1.44474e-05
-9.19973e-05
1.33949e-05
-0.000104313
1.23154e-05
-0.000115645
1.13327e-05
-0.000126078
1.04331e-05
-0.000135565
9.48637e-06
-0.000144189
8.62398e-06
-0.000151874
7.68485e-06
-0.000158755
6.881e-06
-0.000164711
5.95659e-06
-0.000169814
5.10249e-06
-0.000174074
4.25988e-06
-0.000177543
3.4694e-06
-0.000180202
2.65888e-06
-0.000182108
1.9061e-06
-0.000183322
1.21394e-06
-0.000184012
6.89961e-07
-0.00018406
4.76011e-08
-0.000183511
-5.4816e-07
-0.000182578
-9.33403e-07
-0.00018096
-1.61835e-06
-0.000178803
-2.15623e-06
-0.000175941
-2.86242e-06
-0.000172416
-3.5254e-06
-0.000168144
-4.27155e-06
-0.000163212
-4.93243e-06
-0.000157551
-5.66043e-06
-0.000151214
-6.33764e-06
-0.000144127
-7.08676e-06
-0.00013644
-7.68722e-06
-0.000127929
-8.51071e-06
-0.000118646
-9.28305e-06
-0.000108507
-1.01392e-05
-9.74787e-05
-1.10282e-05
-8.56583e-05
-1.18205e-05
-7.29704e-05
-1.26879e-05
-5.94352e-05
-1.35352e-05
-4.51017e-05
-1.43335e-05
-3.01309e-05
-1.49709e-05
-1.45056e-05
-1.56254e-05
1.6491e-06
-1.61547e-05
1.82195e-05
-1.65705e-05
3.507e-05
-1.68506e-05
5.20335e-05
-1.69635e-05
6.89101e-05
-1.68767e-05
8.54943e-05
-1.65843e-05
0.000101538
-1.60442e-05
0.000116783
-1.52448e-05
0.000130974
-1.41907e-05
0.000143854
-1.28806e-05
0.000155191
-1.13365e-05
0.000164745
-9.55433e-06
0.000172349
-7.60347e-06
0.000177828
-5.47959e-06
0.000181073
-3.24528e-06
0.000181975
-9.01586e-07
0.000180493
1.48236e-06
0.000176526
3.96629e-06
0.000170162
6.36407e-06
0.000161545
8.61749e-06
0.000150801
1.07436e-05
0.000138139
1.26618e-05
0.000123748
1.43908e-05
0.000107896
1.5852e-05
9.08399e-05
1.70564e-05
7.28842e-05
1.79557e-05
5.43107e-05
1.85735e-05
3.5432e-05
1.88786e-05
1.65277e-05
1.89043e-05
-2.21569e-06
1.87433e-05
-2.04701e-05
1.82544e-05
-3.81211e-05
1.7651e-05
-5.49818e-05
1.68607e-05
-7.09604e-05
1.59786e-05
-8.59774e-05
1.5017e-05
-9.99679e-05
1.39905e-05
-0.000112934
1.29663e-05
-0.000124916
1.19814e-05
-0.000135847
1.09315e-05
-0.000145802
9.95475e-06
-0.000154731
8.92954e-06
-0.000162726
7.995e-06
-0.000169823
7.09708e-06
-0.000176025
6.20107e-06
-0.000181446
5.42153e-06
-0.000186012
4.56578e-06
-0.000189783
3.77111e-06
-0.000192747
2.96435e-06
-0.000195017
2.26946e-06
-0.00019655
1.53292e-06
-0.000197274
7.24121e-07
-0.0001974
1.26032e-07
-0.000196794
-6.06206e-07
-0.000195343
-1.45044e-06
-0.000193192
-2.15097e-06
-0.00019028
-2.91178e-06
-0.000186497
-3.7832e-06
-0.000181974
-4.5233e-06
-0.000176557
-5.41668e-06
-0.000170417
-6.14007e-06
-0.000163602
-6.81543e-06
-0.000156045
-7.55647e-06
-0.000147976
-8.06956e-06
-0.00013932
-8.65557e-06
-0.000130021
-9.29959e-06
-0.00012036
-9.66067e-06
-0.000110021
-1.03395e-05
-9.89662e-05
-1.10544e-05
-8.74639e-05
-1.15023e-05
-7.51933e-05
-1.22707e-05
-6.20255e-05
-1.31678e-05
-4.81672e-05
-1.38584e-05
-3.3303e-05
-1.48642e-05
-1.74919e-05
-1.58111e-05
-9.47881e-07
-1.65441e-05
1.6337e-05
-1.72849e-05
3.40864e-05
-1.77495e-05
5.22776e-05
-1.81913e-05
7.06913e-05
-1.84138e-05
8.88083e-05
-1.8117e-05
0.000106522
-1.77138e-05
0.000123521
-1.69992e-05
0.000139311
-1.57902e-05
0.000153787
-1.44754e-05
0.000166576
-1.27895e-05
0.000177514
-1.09379e-05
0.00018636
-8.84632e-06
0.000192902
-6.54182e-06
0.000197133
-4.23084e-06
0.000198973
-1.83987e-06
0.000198253
7.20249e-07
0.000195124
3.12817e-06
0.000189615
5.50888e-06
0.000181983
7.63256e-06
0.000172459
9.52342e-06
0.000161002
1.14576e-05
0.000148139
1.28625e-05
0.000134064
1.40757e-05
0.000118999
1.5064e-05
0.000103284
1.57151e-05
8.70092e-05
1.62752e-05
7.06244e-05
1.63847e-05
5.41377e-05
1.64867e-05
3.76836e-05
1.64541e-05
2.14515e-05
1.62321e-05
5.5795e-06
1.5872e-05
-9.82441e-06
1.54039e-05
-2.4754e-05
1.49296e-05
-3.91869e-05
1.44329e-05
-5.30356e-05
1.38487e-05
-6.62424e-05
1.32068e-05
-7.88082e-05
1.25658e-05
-9.06802e-05
1.1872e-05
-0.000101867
1.11865e-05
-0.000112325
1.04581e-05
-0.000122028
9.70352e-06
-0.00013099
8.96143e-06
-0.000139178
8.1882e-06
-0.00014657
7.39245e-06
-0.000153164
6.59402e-06
-0.000158946
5.7812e-06
-0.00016391
4.96422e-06
-0.000168039
4.1287e-06
-0.000171318
3.27946e-06
-0.000173738
2.41988e-06
-0.000175288
1.54996e-06
-0.000175989
7.01283e-07
-0.00017573
-2.59523e-07
-0.000174522
-1.20754e-06
-0.000172395
-2.12716e-06
-0.000169361
-3.03355e-06
-0.000165401
-3.96054e-06
-0.000160567
-4.83405e-06
-5.71816e-06
8.95885e-05
-3.68928e-05
0.000108066
-3.6944e-05
0.000126146
-3.6141e-05
0.000143486
-3.46591e-05
0.000160086
-3.31836e-05
0.000175545
-3.09156e-05
0.000189726
-2.83472e-05
0.000202306
-2.51307e-05
0.000213064
-2.15149e-05
0.000221737
-1.73535e-05
0.00022819
-1.28984e-05
0.000232287
-8.17521e-06
0.000233985
-3.37325e-06
0.000233171
1.6054e-06
0.000229893
6.53424e-06
0.000224094
1.15922e-05
0.00021592
1.6345e-05
0.000205625
2.05774e-05
0.000193431
2.43762e-05
0.000179318
2.82199e-05
0.000163785
3.10593e-05
0.000146985
3.35849e-05
0.000129148
3.56544e-05
0.000110729
3.68223e-05
9.17576e-05
3.79367e-05
7.25954e-05
3.83133e-05
5.34709e-05
3.82381e-05
3.4568e-05
3.77956e-05
1.61066e-05
3.6914e-05
-1.79343e-06
3.57968e-05
-1.90319e-05
3.44721e-05
-3.5484e-05
3.28985e-05
-5.10635e-05
3.11548e-05
-6.57076e-05
2.92825e-05
-7.93998e-05
2.73824e-05
-9.20853e-05
2.53697e-05
-0.00010378
2.33886e-05
-0.000114502
2.14423e-05
-0.000124261
1.95169e-05
-0.00013308
1.76385e-05
-0.000141005
1.58484e-05
-0.000148048
1.40852e-05
-0.000154258
1.24209e-05
-0.000159653
1.07884e-05
-0.000164278
9.24691e-06
-0.000168151
7.74318e-06
-0.000171254
6.20983e-06
-0.000173637
4.76582e-06
-0.000175327
3.37777e-06
-0.000176325
1.99395e-06
-0.000176611
5.75843e-07
-0.000176179
-8.71946e-07
-0.000174919
-2.5168e-06
-0.000172991
-3.86017e-06
-0.000170288
-5.40619e-06
-0.000166812
-6.95824e-06
-0.000162497
-8.62622e-06
-0.000157517
-9.96687e-06
-0.000151468
-1.20938e-05
-0.000144724
-1.34931e-05
-0.000136879
-1.56882e-05
-0.00012815
-1.74556e-05
-0.000118572
-1.91542e-05
-0.000107983
-2.11833e-05
-9.63703e-05
-2.31994e-05
-8.40039e-05
-2.47525e-05
-7.06217e-05
-2.67578e-05
-5.64008e-05
-2.84354e-05
-4.12603e-05
-3.02799e-05
-2.53407e-05
-3.18319e-05
-8.84851e-06
-3.29775e-05
8.17108e-06
-3.40358e-05
2.57078e-05
-3.50675e-05
4.3513e-05
-3.55997e-05
6.14742e-05
-3.59158e-05
7.94543e-05
-3.59513e-05
9.72461e-05
-3.55774e-05
0.000114762
-3.50146e-05
0.000131677
-3.38246e-05
0.000147805
-3.22461e-05
0.000163124
-3.06197e-05
0.000177197
-2.81372e-05
0.000189869
-2.53329e-05
0.000200972
-2.21938e-05
0.000210413
-1.88662e-05
0.000217947
-1.50525e-05
0.000223437
-1.0965e-05
0.000226861
-6.83879e-06
0.000227976
-2.2144e-06
0.000226833
2.28817e-06
0.000223206
7.25372e-06
0.000217227
1.19602e-05
0.000208912
1.66517e-05
0.000198431
2.0953e-05
0.000185967
2.49064e-05
0.000171765
2.83793e-05
0.000156039
3.14265e-05
0.000139001
3.40528e-05
0.000120992
3.60038e-05
0.000102237
3.74901e-05
8.29912e-05
3.84641e-05
6.35225e-05
3.89204e-05
4.40568e-05
3.8915e-05
2.48296e-05
3.84359e-05
6.03771e-06
3.75737e-05
-1.21376e-05
3.63385e-05
-2.95482e-05
3.48087e-05
-4.60718e-05
3.30437e-05
-6.16326e-05
3.11311e-05
-7.61857e-05
2.90815e-05
-8.96109e-05
2.68373e-05
-0.000101948
2.46717e-05
-0.000113264
2.26372e-05
-0.000123449
2.03632e-05
-0.000132583
1.82644e-05
-0.000140759
1.63458e-05
-0.000147884
1.42411e-05
-0.000154095
1.24285e-05
-0.000159384
1.05711e-05
-0.000163753
8.73422e-06
-0.00016728
7.0213e-06
-0.000170002
5.49882e-06
-0.000172004
3.97215e-06
-0.000173193
2.36922e-06
-0.000173628
8.60044e-07
-0.000173473
-3.07957e-07
-0.000172558
-1.84496e-06
-0.000171002
-3.11402e-06
-0.000168772
-4.47438e-06
-0.000165859
-5.84707e-06
-0.000162389
-6.93155e-06
-0.000158189
-8.41522e-06
-0.000153395
-9.58701e-06
-0.000147909
-1.09916e-05
-0.000141764
-1.22824e-05
-0.000134927
-1.36904e-05
-0.000127389
-1.50704e-05
-0.000119084
-1.6611e-05
-0.000110008
-1.81333e-05
-0.000100108
-1.97829e-05
-8.95265e-05
-2.12079e-05
-7.80381e-05
-2.29736e-05
-6.57095e-05
-2.46666e-05
-5.25666e-05
-2.6278e-05
-3.86119e-05
-2.79047e-05
-2.38773e-05
-2.94566e-05
-8.39243e-06
-3.09631e-05
7.57214e-06
-3.19058e-05
2.40821e-05
-3.30183e-05
4.09895e-05
-3.3792e-05
5.81468e-05
-3.43011e-05
7.53891e-05
-3.44582e-05
9.25267e-05
-3.42795e-05
0.000109335
-3.35879e-05
0.000125631
-3.25662e-05
0.000141111
-3.09497e-05
0.000155557
-2.88642e-05
0.00016871
-2.62805e-05
0.00018031
-2.31916e-05
0.000190129
-1.96133e-05
0.000197943
-1.56236e-05
0.000203554
-1.12031e-05
0.00020686
-6.59203e-06
0.000207692
-1.67016e-06
0.000206108
3.14645e-06
0.000201957
8.30639e-06
0.000195427
1.30687e-05
0.000186612
1.76355e-05
0.000175645
2.19287e-05
0.000162742
2.5789e-05
0.000148138
2.91895e-05
0.000132103
3.20626e-05
0.000114923
3.43434e-05
9.68534e-05
3.61283e-05
7.8198e-05
3.73058e-05
5.92359e-05
3.79072e-05
4.01998e-05
3.80595e-05
2.13473e-05
3.7694e-05
2.86528e-06
3.69541e-05
-1.50976e-05
3.59098e-05
-3.23565e-05
3.4511e-05
-4.8786e-05
3.28569e-05
-6.42643e-05
3.09455e-05
-7.87218e-05
2.89049e-05
-9.21209e-05
2.67939e-05
-0.000104445
2.46392e-05
-0.000115765
2.26533e-05
-0.000126211
2.08786e-05
-0.000135698
1.89737e-05
-0.000144329
1.72547e-05
-0.000152034
1.53898e-05
-0.000158911
1.37582e-05
-0.000164882
1.19272e-05
-0.000169986
1.02071e-05
-0.000174222
8.49596e-06
-0.000177725
6.97229e-06
-0.000180394
5.32734e-06
-0.000182315
3.82702e-06
-0.000183518
2.41686e-06
-0.000184211
1.38298e-06
-0.000184271
1.08154e-07
-0.000183781
-1.03837e-06
-0.000182797
-1.91727e-06
-0.000181203
-3.2124e-06
-0.00017903
-4.32928e-06
-0.000176177
-5.71539e-06
-0.000172652
-7.05069e-06
-0.000168385
-8.53861e-06
-0.000163447
-9.87069e-06
-0.000157796
-1.13114e-05
-0.000151454
-1.26789e-05
-0.000144376
-1.41656e-05
-0.000136674
-1.53892e-05
-0.000128176
-1.70081e-05
-0.000118888
-1.85719e-05
-0.000108745
-2.02822e-05
-9.7696e-05
-2.20767e-05
-8.58806e-05
-2.3636e-05
-7.31712e-05
-2.53974e-05
-5.96086e-05
-2.70979e-05
-4.53098e-05
-2.86324e-05
-3.03181e-05
-2.99627e-05
-1.46784e-05
-3.12652e-05
1.49451e-06
-3.23277e-05
1.80895e-05
-3.31656e-05
3.49507e-05
-3.37119e-05
5.19252e-05
-3.39381e-05
6.88239e-05
-3.37755e-05
8.54227e-05
-3.31832e-05
0.000101487
-3.21081e-05
0.000116752
-3.05106e-05
0.000130964
-2.84021e-05
0.000143858
-2.57751e-05
0.000155202
-2.26805e-05
0.000164771
-1.91236e-05
0.000172403
-1.52356e-05
0.000177877
-1.09531e-05
0.000181125
-6.49403e-06
0.000182028
-1.80413e-06
0.000180537
2.97323e-06
0.000176566
7.93707e-06
0.0001702
1.27304e-05
0.000161569
1.72485e-05
0.000150811
2.1501e-05
0.000138133
2.53397e-05
0.000123728
2.87961e-05
0.000107863
3.17171e-05
9.07955e-05
3.41235e-05
7.28314e-05
3.59198e-05
5.42563e-05
3.71486e-05
3.53655e-05
3.77694e-05
1.64557e-05
3.78141e-05
-2.29609e-06
3.74951e-05
-2.05597e-05
3.6518e-05
-3.82159e-05
3.53072e-05
-5.50792e-05
3.37241e-05
-7.10492e-05
3.19485e-05
-8.60628e-05
3.00306e-05
-0.00010006
2.7988e-05
-0.000113026
2.59321e-05
-0.000125007
2.39622e-05
-0.000135933
2.18576e-05
-0.00014588
1.99014e-05
-0.00015481
1.78594e-05
-0.000162804
1.59893e-05
-0.0001699
1.4193e-05
-0.000176098
1.23996e-05
-0.000181506
1.08289e-05
-0.000186084
9.14413e-06
-0.000189857
7.54438e-06
-0.000192821
5.92754e-06
-0.000195089
4.5376e-06
-0.000196626
3.06965e-06
-0.000197342
1.44106e-06
-0.000197459
2.42427e-07
-0.000196853
-1.21161e-06
-0.000195411
-2.8932e-06
-0.000193258
-4.30321e-06
-0.000190348
-5.82229e-06
-0.000186565
-7.56583e-06
-0.00018204
-9.04829e-06
-0.000176621
-1.08356e-05
-0.00017048
-1.22819e-05
-0.000163661
-1.36341e-05
-0.000156096
-1.51214e-05
-0.000148023
-1.61424e-05
-0.000139373
-1.73062e-05
-0.000130069
-1.8603e-05
-0.000120407
-1.93228e-05
-0.000110074
-2.06732e-05
-9.90209e-05
-2.21072e-05
-8.7527e-05
-2.29962e-05
-7.52506e-05
-2.45472e-05
-6.20822e-05
-2.63362e-05
-4.82215e-05
-2.77192e-05
-3.33568e-05
-2.9729e-05
-1.75436e-05
-3.16244e-05
-9.89296e-07
-3.30985e-05
1.63055e-05
-3.45798e-05
3.40672e-05
-3.55113e-05
5.22745e-05
-3.63986e-05
7.07001e-05
-3.68395e-05
8.883e-05
-3.6247e-05
0.000106562
-3.54454e-05
0.000123577
-3.40143e-05
0.000139379
-3.15929e-05
0.000153869
-2.89655e-05
0.000166674
-2.55944e-05
0.000177632
-2.18957e-05
0.0001865
-1.77148e-05
0.000193049
-1.30903e-05
0.000197271
-8.45341e-06
0.000199105
-3.67368e-06
0.000198375
1.44981e-06
0.000195238
6.26559e-06
0.000189728
1.10187e-05
0.000182085
1.52756e-05
0.000172549
1.90587e-05
0.000161089
2.29184e-05
0.000148209
2.57424e-05
0.000134119
2.81648e-05
0.000119042
3.0141e-05
0.000103318
3.14391e-05
8.70318e-05
3.25616e-05
7.06348e-05
3.27817e-05
5.4144e-05
3.29775e-05
3.76829e-05
3.29151e-05
2.14478e-05
3.24672e-05
5.56503e-06
3.17547e-05
-9.83856e-06
3.08075e-05
-2.47731e-05
2.98641e-05
-3.92094e-05
2.88692e-05
-5.30611e-05
2.77004e-05
-6.62706e-05
2.64163e-05
-7.88394e-05
2.51346e-05
-9.07172e-05
2.37498e-05
-0.000101908
2.23774e-05
-0.000112364
2.09139e-05
-0.000122069
1.94082e-05
-0.000131031
1.79241e-05
-0.000139222
1.63792e-05
-0.000146616
1.47857e-05
-0.000153209
1.31879e-05
-0.000158991
1.15631e-05
-0.000163956
9.92929e-06
-0.000168086
8.25831e-06
-0.000171364
6.55706e-06
-0.000173783
4.8397e-06
-0.000175333
3.0999e-06
-0.000176033
1.4006e-06
-0.000175773
-5.19101e-07
-0.000174563
-2.41785e-06
-0.000172434
-4.25586e-06
-0.000169399
-6.06824e-06
-0.000165437
-7.92241e-06
-0.000160602
-9.66951e-06
-1.14381e-05
8.96042e-05
-5.53602e-05
0.000108104
-5.54445e-05
0.000126207
-5.42438e-05
0.000143567
-5.20195e-05
0.000160196
-4.98121e-05
0.00017569
-4.64101e-05
0.000189909
-4.25662e-05
0.000202507
-3.77288e-05
0.000213293
-3.23015e-05
0.000222003
-2.60634e-05
0.000228475
-1.93713e-05
0.000232575
-1.22754e-05
0.000234258
-5.05555e-06
0.000233391
2.47177e-06
0.000230085
9.84019e-06
0.000224276
1.74016e-05
0.000216093
2.45275e-05
0.00020578
3.08906e-05
0.000193561
3.65953e-05
0.000179438
4.23424e-05
0.000163905
4.65919e-05
0.000147077
5.04129e-05
0.000129205
5.35263e-05
0.000110759
5.52684e-05
9.17785e-05
5.69172e-05
7.26004e-05
5.74913e-05
5.34566e-05
5.73819e-05
3.45368e-05
5.67155e-05
1.60603e-05
5.53904e-05
-1.84885e-06
5.3706e-05
-1.90977e-05
5.17209e-05
-3.55586e-05
4.93594e-05
-5.11439e-05
4.67401e-05
-6.57914e-05
4.39299e-05
-7.94872e-05
4.10782e-05
-9.21727e-05
3.80553e-05
-0.000103869
3.50851e-05
-0.000114591
3.21639e-05
-0.00012435
2.92757e-05
-0.000133167
2.64557e-05
-0.000141092
2.37731e-05
-0.00014813
2.11235e-05
-0.000154341
1.86319e-05
-0.000159733
1.61805e-05
-0.000164358
1.38722e-05
-0.000168241
1.16258e-05
-0.000171336
9.30461e-06
-0.000173713
7.14324e-06
-0.000175406
5.07024e-06
-0.000176401
2.98956e-06
-0.000176671
8.45307e-07
-0.000176241
-1.30208e-06
-0.000174976
-3.7816e-06
-0.000173053
-5.78263e-06
-0.000170347
-8.11214e-06
-0.00016688
-1.04256e-05
-0.000162559
-1.29471e-05
-0.000157587
-1.49392e-05
-0.000151536
-1.8145e-05
-0.000144799
-2.02304e-05
-0.000136955
-2.35314e-05
-0.000128229
-2.61816e-05
-0.000118658
-2.87257e-05
-0.000108062
-3.1779e-05
-9.64434e-05
-3.48183e-05
-8.40806e-05
-3.71153e-05
-7.0691e-05
-4.01475e-05
-5.64616e-05
-4.26649e-05
-4.13207e-05
-4.54209e-05
-2.53908e-05
-4.7762e-05
-8.88984e-06
-4.94786e-05
8.12921e-06
-5.1055e-05
2.56713e-05
-5.26097e-05
4.34872e-05
-5.34157e-05
6.14595e-05
-5.38882e-05
7.94551e-05
-5.39471e-05
9.72572e-05
-5.33797e-05
0.000114797
-5.25542e-05
0.000131713
-5.07404e-05
0.000147869
-4.84027e-05
0.000163209
-4.59598e-05
0.000177281
-4.22087e-05
0.000189972
-3.80249e-05
0.000201099
-3.33208e-05
0.000210554
-2.83211e-05
0.000218096
-2.25949e-05
0.00022363
-1.64992e-05
0.000227041
-1.02498e-05
0.000228169
-3.34158e-06
0.000227002
3.45434e-06
0.000223381
1.08752e-05
0.000217429
1.79119e-05
0.000209064
2.50164e-05
0.000198564
3.14528e-05
0.000186071
3.73994e-05
0.000171832
4.26191e-05
0.000156076
4.71815e-05
0.000139007
5.11225e-05
0.00012096
5.40502e-05
0.000102169
5.62812e-05
8.2901e-05
5.77323e-05
6.34169e-05
5.84045e-05
4.39356e-05
5.83963e-05
2.46805e-05
5.7691e-05
5.85472e-06
5.63994e-05
-1.23387e-05
5.45319e-05
-2.97641e-05
5.22341e-05
-4.63005e-05
4.95801e-05
-6.18815e-05
4.67122e-05
-7.64402e-05
4.36401e-05
-8.98654e-05
4.02625e-05
-0.000102247
3.70536e-05
-0.00011352
3.39094e-05
-0.000123717
3.05608e-05
-0.000132841
2.73878e-05
-0.000141021
2.45262e-05
-0.000148153
2.13736e-05
-0.000154314
1.8589e-05
-0.000159652
1.59095e-05
-0.000164024
1.3106e-05
-0.000167578
1.05748e-05
-0.00017026
8.1809e-06
-0.000172247
5.95972e-06
-0.000173455
3.57704e-06
-0.000173939
1.3435e-06
-0.000173733
-5.13459e-07
-0.000172828
-2.74992e-06
-0.00017125
-4.69259e-06
-0.00016903
-6.69393e-06
-0.000166177
-8.70009e-06
-0.00016265
-1.04583e-05
-0.00015846
-1.26054e-05
-0.000153669
-1.43778e-05
-0.000148202
-1.64587e-05
-0.000142054
-1.84306e-05
-0.000135227
-2.05173e-05
-0.000127675
-2.26234e-05
-0.000119366
-2.49198e-05
-0.000110251
-2.72479e-05
-0.000100442
-2.95918e-05
-8.98327e-05
-3.18177e-05
-7.83304e-05
-3.44759e-05
-6.6004e-05
-3.69931e-05
-5.28474e-05
-3.94347e-05
-3.88824e-05
-4.18698e-05
-2.41419e-05
-4.41971e-05
-8.73647e-06
-4.63687e-05
7.32015e-06
-4.79626e-05
2.38394e-05
-4.95377e-05
4.07703e-05
-5.0723e-05
5.79366e-05
-5.14676e-05
7.52145e-05
-5.17362e-05
9.2345e-05
-5.14101e-05
0.000109187
-5.04299e-05
0.000125499
-4.88789e-05
0.000141024
-4.64742e-05
0.000155487
-4.33272e-05
0.000168655
-3.94489e-05
0.000180281
-3.48178e-05
0.000190114
-2.9446e-05
0.000197934
-2.34437e-05
0.000203567
-1.68366e-05
0.000206878
-9.90267e-06
0.000207705
-2.49711e-06
0.000206095
4.75572e-06
0.00020197
1.24317e-05
0.000195442
1.95967e-05
0.000186598
2.64796e-05
0.000175607
3.29193e-05
0.000162681
3.87155e-05
0.000148059
4.38111e-05
0.000132008
4.8113e-05
0.000114798
5.1554e-05
9.6718e-05
5.42081e-05
7.80704e-05
5.59534e-05
5.90406e-05
5.69369e-05
3.99944e-05
5.71057e-05
2.11291e-05
5.65592e-05
2.63166e-06
5.54515e-05
-1.53376e-05
5.38791e-05
-3.26059e-05
5.17793e-05
-4.90561e-05
4.9307e-05
-6.45444e-05
4.64339e-05
-7.90035e-05
4.33639e-05
-9.24023e-05
4.01927e-05
-0.000104731
3.69683e-05
-0.000116057
3.39788e-05
-0.000126484
3.13059e-05
-0.000135977
2.84669e-05
-0.00014462
2.58971e-05
-0.00015234
2.31099e-05
-0.000159191
2.06096e-05
-0.000165182
1.79177e-05
-0.00017028
1.53051e-05
-0.00017449
1.27065e-05
-0.00017802
1.05018e-05
-0.000180688
7.99535e-06
-0.000182609
5.7485e-06
-0.000183841
3.64822e-06
-0.000184469
2.01147e-06
-0.000184547
1.85889e-07
-0.000184082
-1.50365e-06
-0.000183078
-2.92105e-06
-0.000181494
-4.7967e-06
-0.00017931
-6.51292e-06
-0.00017646
-8.56574e-06
-0.000172932
-1.05779e-05
-0.000168673
-1.27978e-05
-0.000163716
-1.48281e-05
-0.00015808
-1.69477e-05
-0.000151735
-1.90234e-05
-0.000144718
-2.11825e-05
-0.000136962
-2.31454e-05
-0.000128466
-2.55045e-05
-0.00011917
-2.78681e-05
-0.000109035
-3.04174e-05
-9.80347e-05
-3.30765e-05
-8.61738e-05
-3.5497e-05
-7.34496e-05
-3.81217e-05
-5.98331e-05
-4.07144e-05
-4.55842e-05
-4.28814e-05
-3.05732e-05
-4.49738e-05
-1.49174e-05
-4.69211e-05
1.27345e-06
-4.85186e-05
1.7875e-05
-4.97672e-05
3.47568e-05
-5.05938e-05
5.17501e-05
-5.09314e-05
6.86663e-05
-5.06918e-05
8.5281e-05
-4.97979e-05
0.000101371
-4.8198e-05
0.000116661
-4.58006e-05
0.000130889
-4.26303e-05
0.000143804
-3.869e-05
0.000155163
-3.40398e-05
0.000164758
-2.8719e-05
0.000172407
-2.28847e-05
0.000177881
-1.64274e-05
0.000181148
-9.76109e-06
0.000182048
-2.70425e-06
0.000180539
4.48303e-06
0.000176558
1.19177e-05
0.000170176
1.91124e-05
0.000161531
2.58936e-05
0.00015076
3.22714e-05
0.000138097
3.80029e-05
0.000123657
4.32354e-05
0.000107759
4.76157e-05
9.06908e-05
5.11914e-05
7.26952e-05
5.39154e-05
5.41059e-05
5.57378e-05
3.52036e-05
5.66716e-05
1.62561e-05
5.67616e-05
-2.47356e-06
5.62248e-05
-2.07506e-05
5.4795e-05
-3.8405e-05
5.29616e-05
-5.52618e-05
5.05809e-05
-7.123e-05
4.79166e-05
-8.62414e-05
4.5042e-05
-0.000100214
4.1961e-05
-0.000113215
3.89331e-05
-0.000125171
3.59174e-05
-0.00013609
3.27767e-05
-0.000146029
2.98411e-05
-0.000154952
2.67822e-05
-0.000162938
2.39749e-05
-0.000170029
2.1284e-05
-0.000176221
1.85924e-05
-0.000181614
1.62212e-05
-0.000186195
1.37254e-05
-0.000189963
1.13128e-05
-0.000192923
8.88704e-06
-0.000195182
6.79716e-06
-0.000196733
4.61971e-06
-0.000197446
2.15409e-06
-0.000197531
3.2807e-07
-0.000196908
-1.83453e-06
-0.000195488
-4.31301e-06
-0.000193335
-6.45641e-06
-0.000190422
-8.73537e-06
-0.000186641
-1.13471e-05
-0.000182112
-1.35771e-05
-0.000176692
-1.62561e-05
-0.000170547
-1.84271e-05
-0.000163723
-2.04576e-05
-0.000156149
-2.26958e-05
-0.00014806
-2.42306e-05
-0.000139423
-2.5944e-05
-0.000130117
-2.79083e-05
-0.000120454
-2.89861e-05
-0.000110131
-3.0997e-05
-9.90782e-05
-3.31596e-05
-8.75977e-05
-3.44768e-05
-7.53171e-05
-3.68278e-05
-6.21529e-05
-3.95005e-05
-4.82936e-05
-4.15784e-05
-3.34296e-05
-4.45931e-05
-1.76146e-05
-4.74395e-05
-1.04472e-06
-4.96684e-05
1.6265e-05
-5.18896e-05
3.40419e-05
-5.32882e-05
5.22697e-05
-5.46266e-05
7.07179e-05
-5.52877e-05
8.88736e-05
-5.44028e-05
0.000106641
-5.32126e-05
0.000123676
-5.10501e-05
0.000139496
-4.74123e-05
0.000154014
-4.34839e-05
0.00016685
-3.84309e-05
0.000177816
-3.28616e-05
0.000186697
-2.65958e-05
0.000193255
-1.96487e-05
0.000197488
-1.26861e-05
0.000199328
-5.51368e-06
0.000198572
2.20526e-06
0.000195413
9.42536e-06
0.0001899
1.65315e-05
0.00018224
2.29353e-05
0.000172679
2.86192e-05
0.000161226
3.4372e-05
0.00014831
3.86581e-05
0.000134197
4.22775e-05
0.000119098
4.52406e-05
0.000103359
4.7178e-05
8.7057e-05
4.88633e-05
7.06355e-05
4.92032e-05
5.41402e-05
4.94727e-05
3.76693e-05
4.93861e-05
2.14396e-05
4.86968e-05
5.53207e-06
4.76622e-05
-9.87761e-06
4.62171e-05
-2.48205e-05
4.48069e-05
-3.92629e-05
4.33116e-05
-5.31173e-05
4.15547e-05
-6.6329e-05
3.9628e-05
-7.88985e-05
3.77042e-05
-9.07774e-05
3.56286e-05
-0.000101972
3.3572e-05
-0.000112434
3.13757e-05
-0.000122141
2.91155e-05
-0.000131105
2.68879e-05
-0.000139296
2.45702e-05
-0.000146687
2.21771e-05
-0.000153282
1.97823e-05
-0.000159064
1.7345e-05
-0.000164027
1.48932e-05
-0.000168156
1.2387e-05
-0.000171433
9.83367e-06
-0.000173855
7.26189e-06
-0.000175408
4.65323e-06
-0.000176104
2.09589e-06
-0.000175844
-7.78987e-07
-0.000174633
-3.62899e-06
-0.000172503
-6.38511e-06
-0.000169468
-9.10343e-06
-0.000165506
-1.18849e-05
-0.00016067
-1.45056e-05
-1.71587e-05
8.96268e-05
-7.38524e-05
0.000108162
-7.39798e-05
0.000126305
-7.23868e-05
0.000143706
-6.94213e-05
0.000160383
-6.64887e-05
0.000175921
-6.19487e-05
0.000190185
-5.683e-05
0.000202825
-5.0369e-05
0.000213648
-4.31246e-05
0.000222389
-3.48045e-05
0.000228879
-2.58623e-05
0.000232998
-1.63938e-05
0.000234668
-6.72618e-06
0.000233725
3.415e-06
0.000230375
1.31899e-05
0.000224548
2.32282e-05
0.000216335
3.27405e-05
0.000206013
4.12123e-05
0.000193757
4.88521e-05
0.000179617
5.64823e-05
0.000164054
6.21549e-05
0.000147219
6.72473e-05
0.000129292
7.14534e-05
0.000110805
7.37555e-05
9.18097e-05
7.59122e-05
7.26095e-05
7.66915e-05
5.3436e-05
7.65554e-05
3.44905e-05
7.5661e-05
1.59913e-05
7.38895e-05
-1.93223e-06
7.16295e-05
-1.91978e-05
6.89864e-05
-3.56712e-05
6.58328e-05
-5.1265e-05
6.23339e-05
-6.59193e-05
5.85842e-05
-7.9621e-05
5.47798e-05
-9.23052e-05
5.07395e-05
-0.000104005
4.67852e-05
-0.000114728
4.28865e-05
-0.000124484
3.90317e-05
-0.000133299
3.52704e-05
-0.000141224
3.16983e-05
-0.000148259
2.81587e-05
-0.00015447
2.48431e-05
-0.00015986
2.15701e-05
-0.000164483
1.84951e-05
-0.000168362
1.55045e-05
-0.000171465
1.24077e-05
-0.000173842
9.52099e-06
-0.000175537
6.76493e-06
-0.00017653
3.9823e-06
-0.000176769
1.08447e-06
-0.000176335
-1.73618e-06
-0.000175061
-5.05575e-06
-0.000173148
-7.69539e-06
-0.000170437
-1.08229e-05
-0.000166985
-1.38784e-05
-0.000162654
-1.72772e-05
-0.000157694
-1.98993e-05
-0.000151639
-2.41999e-05
-0.000144912
-2.69582e-05
-0.000137076
-3.13676e-05
-0.000128351
-3.4906e-05
-0.000118789
-3.82879e-05
-0.000108188
-4.23798e-05
-9.65532e-05
-4.64534e-05
-8.41976e-05
-4.9471e-05
-7.0796e-05
-5.35492e-05
-5.65499e-05
-5.69111e-05
-4.14117e-05
-6.05591e-05
-2.54666e-05
-6.37072e-05
-8.95333e-06
-6.59919e-05
8.06364e-06
-6.8072e-05
2.56157e-05
-7.01619e-05
4.34463e-05
-7.12464e-05
6.14351e-05
-7.1877e-05
7.945e-05
-7.19621e-05
9.7268e-05
-7.11978e-05
0.000114845
-7.01309e-05
0.000131765
-6.76606e-05
0.000147962
-6.46005e-05
0.000163333
-6.13307e-05
0.000177405
-5.62803e-05
0.000190125
-5.07451e-05
0.000201279
-4.44751e-05
0.000210749
-3.77916e-05
0.00021831
-3.01558e-05
0.00022391
-2.20989e-05
0.000227281
-1.36212e-05
0.000228415
-4.47572e-06
0.000227216
4.65376e-06
0.000223587
1.45039e-05
0.000217605
2.38936e-05
0.000209223
3.33989e-05
0.000198694
4.19819e-05
0.000186157
4.99356e-05
0.000171865
5.69111e-05
0.00015606
6.2987e-05
0.000138936
6.82462e-05
0.000120839
7.21471e-05
0.000102004
7.51168e-05
8.26979e-05
7.7038e-05
6.32031e-05
7.78992e-05
4.3662e-05
7.79374e-05
2.43424e-05
7.70106e-05
5.4843e-06
7.52575e-05