/*--------------------------------*- C++ -*----------------------------------*\
| =========                 |                                                 |
| \\      /  F ield         | OpenFOAM: The Open Source CFD Toolbox           |
|  \\    /   O peration     | Version:  3.0.1                                 |
|   \\  /    A nd           | Web:      www.OpenFOAM.org                      |
|    \\/     M anipulation  |                                                 |
\*---------------------------------------------------------------------------*/
FoamFile
{
    version     2.0;
    format      ascii;
    class       volVectorField;
    location    "22.4";
    object      U;
}
// * * * * * * * * * * * * * * * * * * * * * * * * * * * * * * * * * * * * * //

dimensions      [0 1 -1 0 0 0 0];

internalField   nonuniform List<vector> 
21420
(
(0.108643 0.00157502 0)
(0.095222 0.00161162 0)
(0.0786778 0.00165696 0)
(0.0618428 0.00168469 0)
(0.0449118 0.00166655 0)
(0.0278966 0.00165787 0)
(0.01099 0.00160607 0)
(-0.00490238 0.00157434 0)
(-0.0200671 0.00151909 0)
(-0.034892 0.00143413 0)
(-0.0489687 0.00135802 0)
(-0.0621899 0.00127235 0)
(-0.0744816 0.00116999 0)
(-0.0857968 0.00107464 0)
(-0.0961069 0.000969547 0)
(-0.105401 0.00087126 0)
(-0.113682 0.000772557 0)
(-0.120965 0.000672698 0)
(-0.127274 0.000578635 0)
(-0.132644 0.000487377 0)
(-0.137112 0.000399214 0)
(-0.140721 0.000315611 0)
(-0.143515 0.000235478 0)
(-0.14553 0.00015934 0)
(-0.146741 8.97627e-05 0)
(-0.147224 2.04336e-05 0)
(-0.147002 -5.18513e-05 0)
(-0.146117 -0.000121861 0)
(-0.144545 -0.000191532 0)
(-0.14228 -0.000260687 0)
(-0.139311 -0.000330821 0)
(-0.135623 -0.000404394 0)
(-0.131199 -0.000477439 0)
(-0.126019 -0.00055612 0)
(-0.120065 -0.000632098 0)
(-0.113322 -0.0007094 0)
(-0.10577 -0.000794036 0)
(-0.0974208 -0.000868352 0)
(-0.0883016 -0.000939723 0)
(-0.0784336 -0.00101867 0)
(-0.0678741 -0.00107825 0)
(-0.0566698 -0.00114627 0)
(-0.0449361 -0.00118812 0)
(-0.0327724 -0.00122367 0)
(-0.0201824 -0.0012647 0)
(-0.00737695 -0.00127675 0)
(0.00550372 -0.00128215 0)
(0.0184657 -0.00129053 0)
(0.0314008 -0.00127758 0)
(0.0441771 -0.00125337 0)
(0.056704 -0.00122936 0)
(0.0688916 -0.00118734 0)
(0.0806491 -0.00114398 0)
(0.091916 -0.00108646 0)
(0.10258 -0.00101998 0)
(0.112564 -0.000950349 0)
(0.121794 -0.000868483 0)
(0.130175 -0.000773528 0)
(0.1376 -0.000675412 0)
(0.14396 -0.000562448 0)
(0.149167 -0.000443622 0)
(0.153131 -0.000311725 0)
(0.155734 -0.000171755 0)
(0.156859 -2.90436e-05 0)
(0.156545 0.000124937 0)
(0.154581 0.000287936 0)
(0.151096 0.000443068 0)
(0.146064 0.000600438 0)
(0.139414 0.000747249 0)
(0.131519 0.000889092 0)
(0.122248 0.00102163 0)
(0.111554 0.00113434 0)
(0.0998425 0.00124075 0)
(0.0873975 0.00132489 0)
(0.0741423 0.00138936 0)
(0.0601198 0.00143935 0)
(0.0457746 0.00146335 0)
(0.0315528 0.00147452 0)
(0.017226 0.00146182 0)
(0.0022873 0.00142973 0)
(-0.0124103 0.00138456 0)
(-0.02609 0.00131685 0)
(-0.0389232 0.00124329 0)
(-0.0508222 0.00115555 0)
(-0.061804 0.00105716 0)
(-0.0717914 0.000964811 0)
(-0.0807421 0.000867416 0)
(-0.0886995 0.000770931 0)
(-0.095786 0.00068382 0)
(-0.101945 0.000594533 0)
(-0.107276 0.000518375 0)
(-0.111849 0.000443286 0)
(-0.115715 0.000379478 0)
(-0.119019 0.000309429 0)
(-0.121697 0.000255228 0)
(-0.123783 0.000192397 0)
(-0.125343 0.000135459 0)
(-0.126407 8.41976e-05 0)
(-0.126969 2.79635e-05 0)
(-0.12702 -2.30945e-05 0)
(-0.126537 -6.81925e-05 0)
(-0.125556 -0.000119943 0)
(-0.124142 -0.000171744 0)
(-0.122181 -0.000211576 0)
(-0.119747 -0.000262137 0)
(-0.116879 -0.000311361 0)
(-0.113482 -0.000369368 0)
(-0.109513 -0.000415032 0)
(-0.104991 -0.000469605 0)
(-0.0999916 -0.000528119 0)
(-0.0943535 -0.000589195 0)
(-0.0880684 -0.00065225 0)
(-0.0811942 -0.000712896 0)
(-0.0736686 -0.000777049 0)
(-0.0654727 -0.00084395 0)
(-0.056616 -0.000913283 0)
(-0.0470985 -0.000977769 0)
(-0.0369161 -0.00104062 0)
(-0.0260941 -0.0011012 0)
(-0.0147381 -0.00116284 0)
(-0.00278678 -0.00120201 0)
(0.00960877 -0.00124511 0)
(0.022324 -0.00127624 0)
(0.0352926 -0.00129644 0)
(0.048422 -0.00130493 0)
(0.0615652 -0.00129376 0)
(0.0745066 -0.00127485 0)
(0.0871531 -0.00123256 0)
(0.0993095 -0.00117261 0)
(0.11076 -0.00109954 0)
(0.121368 -0.00100308 0)
(0.130961 -0.000894598 0)
(0.139362 -0.000772458 0)
(0.146473 -0.000637569 0)
(0.152181 -0.000486944 0)
(0.156331 -0.000332873 0)
(0.158869 -0.000175296 0)
(0.159763 -1.03203e-05 0)
(0.159042 0.000153102 0)
(0.156606 0.000320655 0)
(0.152605 0.000477616 0)
(0.147096 0.000619682 0)
(0.140175 0.000752133 0)
(0.132003 0.00086939 0)
(0.122698 0.000975255 0)
(0.112429 0.0010583 0)
(0.101376 0.00113052 0)
(0.089668 0.00119098 0)
(0.0774976 0.00122547 0)
(0.065016 0.00125054 0)
(0.052342 0.00126235 0)
(0.0396412 0.00125824 0)
(0.0270346 0.00124168 0)
(0.014613 0.00121852 0)
(0.00251388 0.00118621 0)
(-0.00921198 0.00114498 0)
(-0.0205392 0.00110008 0)
(-0.0313582 0.00104659 0)
(-0.0416516 0.000995149 0)
(-0.0513861 0.00094236 0)
(-0.0605543 0.000880252 0)
(-0.0691382 0.000818145 0)
(-0.0771094 0.000761671 0)
(-0.0844819 0.000701151 0)
(-0.0912387 0.000642165 0)
(-0.0974012 0.00058039 0)
(-0.102938 0.000516911 0)
(-0.107829 0.00045685 0)
(-0.1121 0.000390832 0)
(-0.11573 0.00032957 0)
(-0.118731 0.000267073 0)
(-0.121104 0.000204387 0)
(-0.122833 0.000141489 0)
(-0.123933 8.14311e-05 0)
(-0.12444 1.81475e-05 0)
(-0.124297 -4.63996e-05 0)
(-0.123503 -0.000107364 0)
(-0.12207 -0.000175753 0)
(-0.119959 -0.000241821 0)
(-0.11718 -0.00030639 0)
(-0.113743 -0.000376263 0)
(-0.109615 -0.000441461 0)
(-0.104823 -0.000503613 0)
(-0.0994095 -0.000573878 0)
(-0.0932896 -0.000637201 0)
(-0.0865039 -0.000703188 0)
(-0.0790932 -0.000767222 0)
(-0.0710241 -0.00083289 0)
(-0.0623189 -0.000891744 0)
(-0.0530255 -0.00094998 0)
(-0.0431722 -0.00100623 0)
(-0.0327751 -0.00105371 0)
(-0.0219021 -0.0011013 0)
(-0.0105707 -0.00114523 0)
(0.00115846 -0.00117653 0)
(0.013194 -0.00120941 0)
(0.025501 -0.0012292 0)
(0.0379772 -0.0012427 0)
(0.0505269 -0.00124111 0)
(0.0630019 -0.00123477 0)
(0.075359 -0.00121271 0)
(0.0874179 -0.00117948 0)
(0.0990722 -0.00113688 0)
(0.110227 -0.00107298 0)
(0.120726 -0.00100332 0)
(0.130444 -0.000921113 0)
(0.139251 -0.000823631 0)
(0.147012 -0.000716365 0)
(0.153648 -0.000595937 0)
(0.159005 -0.000466842 0)
(0.163023 -0.000327305 0)
(0.165585 -0.000178284 0)
(0.166621 -3.26892e-05 0)
(0.166192 0.00012049 0)
(0.164155 0.000279383 0)
(0.160588 0.000425211 0)
(0.155567 0.000571717 0)
(0.149116 0.000706684 0)
(0.141366 0.000830621 0)
(0.132413 0.00094592 0)
(0.122367 0.00104454 0)
(0.111391 0.00113183 0)
(0.0995975 0.00120393 0)
(0.0871544 0.00126127 0)
(0.0742434 0.00130168 0)
(0.0609928 0.00132729 0)
(0.0475587 0.00133288 0)
(0.0341225 0.00132956 0)
(0.0208134 0.00131164 0)
(0.00776842 0.00128135 0)
(-0.0049071 0.00123586 0)
(-0.0170925 0.00118106 0)
(-0.0287195 0.00112513 0)
(-0.0397327 0.00105935 0)
(-0.0500295 0.000986207 0)
(-0.0596047 0.000914462 0)
(-0.068446 0.000837231 0)
(-0.0764807 0.000758118 0)
(-0.0837507 0.000683835 0)
(-0.0902594 0.000606034 0)
(-0.0959982 0.000533949 0)
(-0.10101 0.000462657 0)
(-0.105304 0.000390965 0)
(-0.108906 0.000327086 0)
(-0.111852 0.000258905 0)
(-0.114163 0.000195485 0)
(-0.115833 0.000133326 0)
(-0.116864 7.65177e-05 0)
(-0.117334 1.76878e-05 0)
(-0.117272 -3.84559e-05 0)
(-0.116608 -8.56769e-05 0)
(-0.11543 -0.000139192 0)
(-0.113771 -0.000191164 0)
(-0.111587 -0.000241324 0)
(-0.108917 -0.000289626 0)
(-0.105722 -0.000341641 0)
(-0.102002 -0.000394506 0)
(-0.0977319 -0.00045081 0)
(-0.0928908 -0.000507842 0)
(-0.0874707 -0.000566153 0)
(-0.081417 -0.000629566 0)
(-0.0747185 -0.000696166 0)
(-0.067363 -0.000759103 0)
(-0.0594058 -0.000829351 0)
(-0.0507137 -0.000886746 0)
(-0.041402 -0.000950708 0)
(-0.0314874 -0.00101464 0)
(-0.0209414 -0.00106574 0)
(-0.0100398 -0.0011314 0)
(0.00188195 -0.00116763 0)
(0.014537 -0.00120756 0)
(0.027248 -0.00124352 0)
(0.0402073 -0.00126743 0)
(0.0534675 -0.00128261 0)
(0.0668654 -0.00128797 0)
(0.0802162 -0.00127601 0)
(0.0934389 -0.00124871 0)
(0.106337 -0.00120701 0)
(0.118666 -0.00113956 0)
(0.130259 -0.00105637 0)
(0.14089 -0.000953762 0)
(0.150344 -0.000834526 0)
(0.158436 -0.000697749 0)
(0.164935 -0.000539148 0)
(0.169686 -0.000376014 0)
(0.172572 -0.000192267 0)
(0.173596 6.30105e-06 0)
(0.172991 0.000180496 0)
(0.170604 0.000351055 0)
(0.166508 0.000501011 0)
(0.160918 0.000650306 0)
(0.15384 0.000788424 0)
(0.14543 0.000904256 0)
(0.135994 0.00101032 0)
(0.125533 0.00109628 0)
(0.114252 0.00116196 0)
(0.10244 0.00121788 0)
(0.0901089 0.0012529 0)
(0.0774261 0.0012746 0)
(0.0646004 0.00128907 0)
(0.0517268 0.00127888 0)
(0.0387753 0.00127779 0)
(0.0258639 0.00126471 0)
(0.0133886 0.0012325 0)
(0.00178136 0.00120603 0)
(-0.00941653 0.00117122 0)
(-0.0206459 0.00112635 0)
(-0.0315599 0.0010814 0)
(-0.0420454 0.00102638 0)
(-0.0520287 0.000971843 0)
(-0.0614551 0.000912366 0)
(-0.0702733 0.000846542 0)
(-0.0784515 0.000780755 0)
(-0.0859565 0.000711914 0)
(-0.0927567 0.000639067 0)
(-0.0988302 0.000565855 0)
(-0.104158 0.00048994 0)
(-0.108725 0.000414834 0)
(-0.112529 0.000339925 0)
(-0.115583 0.000265995 0)
(-0.117907 0.000195007 0)
(-0.119511 0.000127822 0)
(-0.120403 6.3615e-05 0)
(-0.120654 -4.15548e-06 0)
(-0.120225 -7.35606e-05 0)
(-0.119131 -0.00014173 0)
(-0.117341 -0.00021002 0)
(-0.114858 -0.000279738 0)
(-0.111684 -0.000347833 0)
(-0.107819 -0.000415237 0)
(-0.103273 -0.000483929 0)
(-0.0980579 -0.000548741 0)
(-0.0921843 -0.000611898 0)
(-0.0856655 -0.000677555 0)
(-0.078522 -0.00073677 0)
(-0.0707723 -0.000799637 0)
(-0.0624412 -0.000853412 0)
(-0.0535587 -0.000903817 0)
(-0.044156 -0.000959026 0)
(-0.0342742 -0.00100094 0)
(-0.0239625 -0.00103731 0)
(-0.0132843 -0.00107893 0)
(-0.00229175 -0.00109981 0)
(0.00894027 -0.00112697 0)
(0.0203118 -0.00113254 0)
(0.0317304 -0.00112744 0)
(0.0430908 -0.00112428 0)
(0.0542784 -0.00109651 0)
(0.0651681 -0.00105666 0)
(0.0756339 -0.00101566 0)
(0.0855487 -0.000951155 0)
(0.0947897 -0.000883805 0)
(0.10324 -0.000796693 0)
(0.110792 -0.000700816 0)
(0.117354 -0.00060095 0)
(0.122847 -0.000490487 0)
(0.127784 -0.000376877 0)
(0.108668 0.00472577 0)
(0.0952408 0.00483555 0)
(0.0786896 0.0049716 0)
(0.0618475 0.0050548 0)
(0.0449095 0.00500033 0)
(0.0278872 0.00497435 0)
(0.0109764 0.00481895 0)
(-0.00492136 0.00472331 0)
(-0.0200927 0.00455767 0)
(-0.0349212 0.00430276 0)
(-0.0490014 0.00407439 0)
(-0.0622254 0.00381732 0)
(-0.0745184 0.00351011 0)
(-0.0858351 0.00322402 0)
(-0.0961454 0.00290873 0)
(-0.105439 0.00261382 0)
(-0.11372 0.00231761 0)
(-0.121002 0.00201799 0)
(-0.12731 0.00173585 0)
(-0.132678 0.00146208 0)
(-0.137145 0.00119756 0)
(-0.140752 0.000946792 0)
(-0.143545 0.000705985 0)
(-0.145558 0.00047781 0)
(-0.146771 0.000269806 0)
(-0.147252 6.17452e-05 0)
(-0.147031 -0.00015556 0)
(-0.146146 -0.000365536 0)
(-0.144574 -0.000574516 0)
(-0.142309 -0.00078194 0)
(-0.139342 -0.000992318 0)
(-0.135655 -0.00121301 0)
(-0.131232 -0.00143213 0)
(-0.126053 -0.00166819 0)
(-0.1201 -0.00189612 0)
(-0.113358 -0.00212805 0)
(-0.105807 -0.00238203 0)
(-0.0974574 -0.00260505 0)
(-0.0883375 -0.00281928 0)
(-0.0784686 -0.00305617 0)
(-0.0679075 -0.00323498 0)
(-0.0567006 -0.00343889 0)
(-0.044964 -0.00356484 0)
(-0.032798 -0.00367136 0)
(-0.0202036 -0.00379434 0)
(-0.00739488 -0.00383077 0)
(0.00548885 -0.003847 0)
(0.0184543 -0.00387275 0)
(0.0313941 -0.00383271 0)
(0.0441749 -0.00376067 0)
(0.0567067 -0.00368845 0)
(0.0688986 -0.00356344 0)
(0.0806626 -0.00343202 0)
(0.0919298 -0.0032632 0)
(0.102604 -0.00306083 0)
(0.112594 -0.00284808 0)
(0.121831 -0.00260741 0)
(0.130219 -0.00232216 0)
(0.13765 -0.00202665 0)
(0.144019 -0.00169043 0)
(0.149234 -0.00133208 0)
(0.153201 -0.000937656 0)
(0.155816 -0.000516665 0)
(0.156947 -8.75105e-05 0)
(0.156634 0.000375105 0)
(0.154671 0.000863769 0)
(0.15119 0.00132883 0)
(0.146159 0.00180162 0)
(0.139506 0.00224258 0)
(0.131607 0.00266878 0)
(0.122332 0.00306541 0)
(0.11163 0.00340516 0)
(0.0999114 0.00372356 0)
(0.0874584 0.00397474 0)
(0.0741973 0.00416857 0)
(0.0601683 0.00432142 0)
(0.0458088 0.00438937 0)
(0.0315819 0.00442517 0)
(0.0172504 0.00438921 0)
(0.00230252 0.00429 0)
(-0.0124007 0.00415246 0)
(-0.0260924 0.00395419 0)
(-0.0389367 0.00372934 0)
(-0.0508386 0.00346848 0)
(-0.0618334 0.00317295 0)
(-0.0718265 0.00289825 0)
(-0.0807812 0.0025982 0)
(-0.0887494 0.00231864 0)
(-0.0958489 0.00205061 0)
(-0.10201 0.00178082 0)
(-0.107344 0.00155629 0)
(-0.111919 0.00132351 0)
(-0.11579 0.00113724 0)
(-0.119096 0.000932185 0)
(-0.121773 0.000763493 0)
(-0.123864 0.000576137 0)
(-0.125425 0.000402085 0)
(-0.12648 0.000252614 0)
(-0.127038 8.92558e-05 0)
(-0.127095 -6.53041e-05 0)
(-0.126617 -0.000208683 0)
(-0.125643 -0.000369619 0)
(-0.124208 -0.00051238 0)
(-0.122258 -0.000636617 0)
(-0.119823 -0.000789324 0)
(-0.116945 -0.000933076 0)
(-0.113548 -0.001107 0)
(-0.109583 -0.00123721 0)
(-0.105082 -0.00142072 0)
(-0.100065 -0.00159096 0)
(-0.0944223 -0.00176115 0)
(-0.0881364 -0.00195027 0)
(-0.0812699 -0.00214188 0)
(-0.0737439 -0.00234108 0)
(-0.0655425 -0.0025337 0)
(-0.056678 -0.0027363 0)
(-0.0471625 -0.00293541 0)
(-0.0369712 -0.00311851 0)
(-0.0261613 -0.00331186 0)
(-0.0147873 -0.00348794 0)
(-0.00283286 -0.00360521 0)
(0.00957292 -0.003733 0)
(0.0222877 -0.00383262 0)
(0.0352634 -0.00390254 0)
(0.0484047 -0.00390669 0)
(0.0615454 -0.00389194 0)
(0.0745184 -0.00382275 0)
(0.0871715 -0.00369593 0)
(0.0993218 -0.00352798 0)
(0.110793 -0.00329348 0)
(0.12141 -0.00301291 0)
(0.131012 -0.00268485 0)
(0.139421 -0.0023215 0)
(0.146537 -0.00191861 0)
(0.152239 -0.00146661 0)
(0.15641 -0.00100557 0)
(0.158963 -0.000510998 0)
(0.159848 -3.15541e-05 0)
(0.159118 0.000458231 0)
(0.156682 0.000958784 0)
(0.152678 0.00142839 0)
(0.147162 0.00186004 0)
(0.140239 0.00225535 0)
(0.132056 0.0026119 0)
(0.122743 0.00291768 0)
(0.112471 0.00317957 0)
(0.101406 0.00339545 0)
(0.0896948 0.00356806 0)
(0.0775159 0.00368166 0)
(0.0650162 0.00375433 0)
(0.0523375 0.0037819 0)
(0.039632 0.0037742 0)
(0.0270147 0.00372937 0)
(0.0145934 0.00365059 0)
(0.00248949 0.00356055 0)
(-0.00924825 0.0034363 0)
(-0.0205737 0.00329908 0)
(-0.0313965 0.00314839 0)
(-0.0417018 0.0029812 0)
(-0.051444 0.00281631 0)
(-0.060603 0.00263544 0)
(-0.0691771 0.00246916 0)
(-0.0771612 0.0022855 0)
(-0.0845349 0.00210053 0)
(-0.0913 0.00192637 0)
(-0.0974592 0.00174212 0)
(-0.102996 0.0015476 0)
(-0.107894 0.00136763 0)
(-0.112158 0.00117623 0)
(-0.11579 0.000989352 0)
(-0.118796 0.000799525 0)
(-0.121169 0.000608224 0)
(-0.1229 0.000423845 0)
(-0.123999 0.000240805 0)
(-0.124504 5.63663e-05 0)
(-0.12436 -0.000136207 0)
(-0.123572 -0.000326227 0)
(-0.122135 -0.000527475 0)
(-0.120027 -0.000726382 0)
(-0.117255 -0.000926778 0)
(-0.113805 -0.00112646 0)
(-0.109678 -0.00132148 0)
(-0.104898 -0.00152127 0)
(-0.0994715 -0.00172158 0)
(-0.0933548 -0.00191281 0)
(-0.0865751 -0.00211211 0)
(-0.0791562 -0.00230735 0)
(-0.0710786 -0.00249673 0)
(-0.0623789 -0.00267728 0)
(-0.0530826 -0.00284989 0)
(-0.0432176 -0.00301514 0)
(-0.0328323 -0.00316883 0)
(-0.0219407 -0.00330543 0)
(-0.0106062 -0.00343323 0)
(0.00111154 -0.00353949 0)
(0.0131667 -0.00362733 0)
(0.0254707 -0.00369129 0)
(0.0379652 -0.00372614 0)
(0.0504988 -0.00373394 0)
(0.0629995 -0.00370574 0)
(0.0753573 -0.00363827 0)
(0.087431 -0.0035368 0)
(0.0990983 -0.00340496 0)
(0.11025 -0.00322417 0)
(0.120758 -0.00301808 0)
(0.130486 -0.00276203 0)
(0.139291 -0.00247538 0)
(0.14707 -0.0021489 0)
(0.153705 -0.00178981 0)
(0.159073 -0.00140319 0)
(0.163089 -0.000982944 0)
(0.165648 -0.000546043 0)
(0.166709 -9.42781e-05 0)
(0.166268 0.000365994 0)
(0.164229 0.000829669 0)
(0.160669 0.00128218 0)
(0.155632 0.00171455 0)
(0.149183 0.00211725 0)
(0.141421 0.00249087 0)
(0.132462 0.00282961 0)
(0.122424 0.00314296 0)
(0.111432 0.00339493 0)
(0.0996317 0.0036149 0)
(0.0871815 0.00378534 0)
(0.074257 0.00390538 0)
(0.0609984 0.00398263 0)
(0.0475554 0.00399789 0)
(0.034109 0.0039859 0)
(0.0207905 0.00393548 0)
(0.00773915 0.00383747 0)
(-0.0049297 0.00371324 0)
(-0.0171244 0.00355285 0)
(-0.0287623 0.00337223 0)
(-0.0397755 0.00317742 0)
(-0.0500744 0.00296147 0)
(-0.0596582 0.00274272 0)
(-0.068499 0.00251123 0)
(-0.0765336 0.00228178 0)
(-0.0838052 0.00205139 0)
(-0.0903181 0.0018197 0)
(-0.0960612 0.00159527 0)
(-0.101071 0.00138563 0)
(-0.10536 0.00117194 0)
(-0.108967 0.000977846 0)
(-0.111908 0.000772529 0)
(-0.114214 0.000594993 0)
(-0.11589 0.000399583 0)
(-0.11692 0.000228386 0)
(-0.117387 5.30859e-05 0)
(-0.117326 -0.000121571 0)
(-0.116667 -0.000256197 0)
(-0.115494 -0.000425304 0)
(-0.113818 -0.000569527 0)
(-0.111638 -0.000722622 0)
(-0.108969 -0.000867131 0)
(-0.105778 -0.00102937 0)
(-0.10205 -0.00118449 0)
(-0.0977862 -0.00135187 0)
(-0.092943 -0.00151897 0)
(-0.0875304 -0.00171116 0)
(-0.0814759 -0.00189335 0)
(-0.0747724 -0.00208438 0)
(-0.0674181 -0.00228218 0)
(-0.0594524 -0.00248773 0)
(-0.0507572 -0.00265672 0)
(-0.0414508 -0.0028498 0)
(-0.0315389 -0.0030552 0)
(-0.0209772 -0.00319784 0)
(-0.0100727 -0.00338949 0)
(0.00185631 -0.00349615 0)
(0.0145043 -0.00363047 0)
(0.0272258 -0.00373671 0)
(0.0401979 -0.00380459 0)
(0.053456 -0.00384709 0)
(0.0668679 -0.00387156 0)
(0.0802286 -0.00382477 0)
(0.0934576 -0.00374677 0)
(0.106368 -0.00362002 0)
(0.118693 -0.00342114 0)
(0.130306 -0.00316738 0)
(0.140944 -0.00286177 0)
(0.1504 -0.00249982 0)
(0.158499 -0.00209145 0)
(0.165003 -0.00161747 0)
(0.169765 -0.00112621 0)
(0.172659 -0.000585261 0)
(0.173694 1.389e-05 0)
(0.173068 0.000536393 0)
(0.170678 0.00105109 0)
(0.166585 0.00150286 0)
(0.160992 0.001951 0)
(0.15391 0.00236611 0)
(0.145495 0.00271298 0)
(0.136052 0.00303181 0)
(0.125584 0.00328988 0)
(0.114297 0.00348585 0)
(0.102477 0.00365287 0)
(0.0901391 0.00375353 0)
(0.0774516 0.00382528 0)
(0.0646183 0.00386779 0)
(0.0517407 0.00383766 0)
(0.0387857 0.00383371 0)
(0.0258684 0.00379505 0)
(0.013389 0.00369796 0)
(0.00177894 0.00361825 0)
(-0.00942239 0.00351432 0)
(-0.0206545 0.00337984 0)
(-0.0315717 0.00324482 0)
(-0.0420599 0.00307972 0)
(-0.0520457 0.00291602 0)
(-0.0614747 0.00273755 0)
(-0.0702951 0.00253974 0)
(-0.0784747 0.00234278 0)
(-0.0859813 0.00213608 0)
(-0.0927827 0.00191746 0)
(-0.0988575 0.00169791 0)
(-0.104186 0.00147043 0)
(-0.108754 0.00124448 0)
(-0.112558 0.00101889 0)
(-0.115611 0.000797493 0)
(-0.117933 0.000585217 0)
(-0.119538 0.000383999 0)
(-0.120431 0.000191145 0)
(-0.120681 -1.2428e-05 0)
(-0.120254 -0.000220606 0)
(-0.119159 -0.00042506 0)
(-0.11737 -0.000629935 0)
(-0.114887 -0.000839165 0)
(-0.111713 -0.00104344 0)
(-0.107848 -0.00124562 0)
(-0.103301 -0.00145186 0)
(-0.0980858 -0.0016462 0)
(-0.0922114 -0.00183567 0)
(-0.0856923 -0.00203274 0)
(-0.0785479 -0.00221033 0)
(-0.0707975 -0.00239899 0)
(-0.0624651 -0.00256032 0)
(-0.0535812 -0.00271156 0)
(-0.0441771 -0.00287722 0)
(-0.0342934 -0.003003 0)
(-0.0239794 -0.00311216 0)
(-0.0132982 -0.00323741 0)
(-0.00230257 -0.0032994 0)
(0.00893249 -0.00338126 0)
(0.020308 -0.00339802 0)
(0.0317309 -0.00338277 0)
(0.0430961 -0.00337332 0)
(0.0542885 -0.00329003 0)
(0.0651832 -0.00317046 0)
(0.0756544 -0.00304748 0)
(0.0855741 -0.00285397 0)
(0.0948203 -0.00265188 0)
(0.103275 -0.0023905 0)
(0.11083 -0.0021028 0)
(0.117396 -0.00180316 0)
(0.122891 -0.00147172 0)
(0.12783 -0.00113081 0)
(0.108715 0.00787866 0)
(0.0952759 0.00806159 0)
(0.0787105 0.0082884 0)
(0.061854 0.00842706 0)
(0.044902 0.00833611 0)
(0.0278652 0.00829294 0)
(0.0109461 0.00803376 0)
(-0.00496265 0.00787342 0)
(-0.0201475 0.00759744 0)
(-0.0349829 0.00717242 0)
(-0.0490704 0.00679162 0)
(-0.0622999 0.00636294 0)
(-0.0745955 0.00585064 0)
(-0.0859148 0.00537358 0)
(-0.0962252 0.00484794 0)
(-0.105519 0.00435629 0)
(-0.113799 0.00386242 0)
(-0.121078 0.00336289 0)
(-0.127384 0.00289262 0)
(-0.13275 0.00243635 0)
(-0.137212 0.00199546 0)
(-0.140817 0.00157774 0)
(-0.143605 0.001177 0)
(-0.145615 0.000795796 0)
(-0.146832 0.000447421 0)
(-0.147309 0.000102241 0)
(-0.147087 -0.000259777 0)
(-0.146201 -0.000609331 0)
(-0.144629 -0.00095748 0)
(-0.142365 -0.00130309 0)
(-0.139398 -0.00165367 0)
(-0.135713 -0.00202144 0)
(-0.131291 -0.00238662 0)
(-0.126114 -0.00278011 0)
(-0.120163 -0.00316004 0)
(-0.113421 -0.00354675 0)
(-0.10587 -0.00397031 0)
(-0.097519 -0.00434223 0)
(-0.0883958 -0.00469944 0)
(-0.0785232 -0.00509442 0)
(-0.0679568 -0.00539244 0)
(-0.0567432 -0.00573168 0)
(-0.0449998 -0.00594314 0)
(-0.0328275 -0.00611993 0)
(-0.0202234 -0.00632447 0)
(-0.0074068 -0.00638653 0)
(0.00548332 -0.00641343 0)
(0.0184579 -0.0064558 0)
(0.0314048 -0.00638993 0)
(0.0441941 -0.00626851 0)
(0.0567332 -0.00614909 0)
(0.0689333 -0.00593993 0)
(0.0807034 -0.00572251 0)
(0.0919785 -0.00543998 0)
(0.10266 -0.00510177 0)
(0.112652 -0.00475133 0)
(0.121902 -0.00434503 0)
(0.130296 -0.00387174 0)
(0.13773 -0.00338401 0)
(0.144116 -0.00281467 0)
(0.149335 -0.00222365 0)
(0.153305 -0.00156911 0)
(0.155933 -0.000857829 0)
(0.157069 -0.000146945 0)
(0.156754 0.000626098 0)
(0.154793 0.00144096 0)
(0.151317 0.00221526 0)
(0.146283 0.00300284 0)
(0.139625 0.00373874 0)
(0.13172 0.00444884 0)
(0.122438 0.00511128 0)
(0.111727 0.0056768 0)
(0.0999988 0.00620877 0)
(0.0875327 0.00662665 0)
(0.0742635 0.00694944 0)
(0.0602212 0.00720396 0)
(0.0458538 0.00732008 0)
(0.0316141 0.00737604 0)
(0.0172654 0.00731631 0)
(0.00231397 0.00715011 0)
(-0.0123984 0.00692337 0)
(-0.0261011 0.00659256 0)
(-0.0389538 0.00621768 0)
(-0.050872 0.0057834 0)
(-0.0618756 0.00529128 0)
(-0.0718825 0.00482852 0)
(-0.0808333 0.00433603 0)
(-0.088815 0.00386414 0)
(-0.0959228 0.00342212 0)
(-0.10208 0.00297306 0)
(-0.107423 0.00259307 0)
(-0.111991 0.00221581 0)
(-0.115881 0.00189493 0)
(-0.119182 0.00155168 0)
(-0.121863 0.00127324 0)
(-0.123955 0.000962658 0)
(-0.125507 0.000674234 0)
(-0.12657 0.000422212 0)
(-0.127128 0.000145643 0)
(-0.127178 -0.000113379 0)
(-0.126705 -0.000348329 0)
(-0.125727 -0.000613421 0)
(-0.124285 -0.000848941 0)
(-0.122341 -0.00106321 0)
(-0.119908 -0.00131713 0)
(-0.117028 -0.00155442 0)
(-0.113631 -0.0018434 0)
(-0.109675 -0.00206976 0)
(-0.105171 -0.00236103 0)
(-0.100153 -0.00264991 0)
(-0.0945143 -0.00293601 0)
(-0.0882344 -0.00325633 0)
(-0.0813634 -0.00357358 0)
(-0.0738353 -0.00389228 0)
(-0.0656367 -0.00422229 0)
(-0.0567783 -0.00456106 0)
(-0.0472527 -0.00489098 0)
(-0.037066 -0.00520502 0)
(-0.0262475 -0.00551522 0)
(-0.0148664 -0.0058132 0)
(-0.00291065 -0.00601741 0)
(0.00950309 -0.00622369 0)
(0.0222331 -0.00638795 0)
(0.0352229 -0.00649311 0)
(0.0483578 -0.00652836 0)
(0.0615192 -0.00648612 0)
(0.0745139 -0.00637138 0)
(0.0871776 -0.00616495 0)
(0.0993432 -0.00587607 0)
(0.110822 -0.00549938 0)
(0.121454 -0.00502332 0)
(0.131067 -0.00447866 0)
(0.139499 -0.00386753 0)
(0.146622 -0.00319369 0)
(0.152328 -0.00244874 0)
(0.156508 -0.00167058 0)
(0.159058 -0.000866269 0)
(0.15995 -5.1989e-05 0)
(0.159215 0.000769278 0)
(0.156776 0.00160038 0)
(0.152764 0.00238413 0)
(0.147243 0.00309888 0)
(0.140306 0.00376333 0)
(0.132113 0.00434961 0)
(0.122796 0.00487247 0)
(0.112504 0.00530308 0)
(0.10142 0.00565494 0)
(0.0897071 0.00595339 0)
(0.0775117 0.00614166 0)
(0.0649942 0.006254 0)
(0.0523143 0.00630713 0)
(0.0395951 0.0062957 0)
(0.0269646 0.00621195 0)
(0.0145447 0.00608761 0)
(0.00243146 0.00594085 0)
(-0.00931614 0.00572308 0)
(-0.0206424 0.0055015 0)
(-0.0314743 0.00524213 0)
(-0.0417735 0.00497203 0)
(-0.0515154 0.00469952 0)
(-0.0606795 0.0043985 0)
(-0.0692654 0.00410419 0)
(-0.0772417 0.00380641 0)
(-0.0846084 0.00351216 0)
(-0.0913837 0.00320678 0)
(-0.0975413 0.00289892 0)
(-0.103071 0.00258786 0)
(-0.107976 0.00227878 0)
(-0.112245 0.00195731 0)
(-0.115876 0.001648 0)
(-0.118876 0.00133156 0)
(-0.121245 0.00102345 0)
(-0.122983 0.000704134 0)
(-0.124087 0.000402887 0)
(-0.124587 9.13457e-05 0)
(-0.124444 -0.000228898 0)
(-0.123658 -0.00054378 0)
(-0.122216 -0.000875752 0)
(-0.120111 -0.00121199 0)
(-0.117339 -0.00154171 0)
(-0.113891 -0.00187793 0)
(-0.109766 -0.00220657 0)
(-0.104982 -0.00253097 0)
(-0.0995507 -0.0028673 0)
(-0.0934405 -0.00319134 0)
(-0.0866568 -0.00352047 0)
(-0.0792347 -0.00383978 0)
(-0.071156 -0.00415865 0)
(-0.0624554 -0.00446323 0)
(-0.0531587 -0.00475407 0)
(-0.043295 -0.00502864 0)
(-0.0329013 -0.00528517 0)
(-0.0220033 -0.00550384 0)
(-0.0106649 -0.00572459 0)
(0.00105876 -0.00589732 0)
(0.0131133 -0.00605231 0)
(0.0254336 -0.00614918 0)
(0.0379283 -0.00621491 0)
(0.0504781 -0.00622004 0)
(0.0629879 -0.00617266 0)
(0.0753487 -0.00607141 0)
(0.0874325 -0.00589676 0)
(0.0991102 -0.00568372 0)
(0.110277 -0.00537181 0)
(0.1208 -0.00502378 0)
(0.130529 -0.00460968 0)
(0.139345 -0.00412653 0)
(0.147135 -0.00358447 0)
(0.153777 -0.00298766 0)
(0.159164 -0.00233214 0)
(0.163177 -0.00164258 0)
(0.165745 -0.000908723 0)
(0.16681 -0.000157513 0)
(0.166364 0.000610197 0)
(0.164321 0.00138766 0)
(0.160759 0.00213557 0)
(0.155718 0.00285552 0)
(0.149266 0.00353528 0)
(0.141496 0.00415437 0)
(0.132528 0.00472221 0)
(0.122472 0.00523556 0)
(0.111467 0.00566171 0)
(0.0996566 0.006023 0)
(0.0871989 0.00631284 0)
(0.0742589 0.00651275 0)
(0.0609868 0.00663621 0)
(0.04754 0.00667321 0)
(0.0340744 0.00664911 0)
(0.0207441 0.00655444 0)
(0.00768875 0.00640343 0)
(-0.00499422 0.00619116 0)
(-0.0171972 0.00591633 0)
(-0.0288354 0.00562179 0)
(-0.0398509 0.00529868 0)
(-0.0501582 0.00493734 0)
(-0.059746 0.00456974 0)
(-0.0685852 0.00419092 0)
(-0.0766283 0.00379399 0)
(-0.0838958 0.00341791 0)
(-0.090399 0.003034 0)
(-0.0961443 0.00266416 0)
(-0.10115 0.00230799 0)
(-0.10544 0.00195604 0)
(-0.109044 0.0016272 0)
(-0.111987 0.00129152 0)
(-0.114292 0.000982892 0)
(-0.115966 0.000667549 0)
(-0.116995 0.000379176 0)
(-0.117456 9.15752e-05 0)
(-0.117389 -0.000197979 0)
(-0.116737 -0.000431669 0)
(-0.115562 -0.000707909 0)
(-0.113886 -0.000951313 0)
(-0.111699 -0.00120293 0)
(-0.109042 -0.00145361 0)
(-0.105839 -0.00170868 0)
(-0.102118 -0.00197359 0)
(-0.0978598 -0.0022568 0)
(-0.0930189 -0.00253573 0)
(-0.087596 -0.00284098 0)
(-0.0815494 -0.00315626 0)
(-0.074849 -0.00347648 0)
(-0.0674932 -0.00380039 0)
(-0.0595249 -0.00414663 0)
(-0.0508293 -0.00443392 0)
(-0.0415288 -0.0047563 0)
(-0.0316013 -0.005084 0)
(-0.0210425 -0.0053295 0)
(-0.0101363 -0.00566082 0)
(0.00180681 -0.00582941 0)
(0.014463 -0.00604515 0)
(0.0271925 -0.00622923 0)
(0.040178 -0.00634216 0)
(0.0534329 -0.00641907 0)
(0.0668691 -0.00644639 0)
(0.0802329 -0.00638313 0)
(0.09348 -0.00624562 0)
(0.106401 -0.00603155 0)
(0.11874 -0.00570006 0)
(0.130363 -0.00528346 0)
(0.141013 -0.00477109 0)
(0.150482 -0.00416861 0)
(0.158594 -0.00348116 0)
(0.16511 -0.00268486 0)
(0.169874 -0.00187153 0)
(0.172783 -0.000980577 0)
(0.173819 6.50885e-06 0)
(0.173169 0.000883569 0)
(0.170778 0.00174688 0)
(0.166685 0.00250329 0)
(0.161088 0.0032534 0)
(0.153996 0.0039448 0)
(0.145572 0.00452374 0)
(0.136115 0.005055 0)
(0.125635 0.00548507 0)
(0.114339 0.00581254 0)
(0.102504 0.00609114 0)
(0.0901578 0.00627347 0)
(0.0774647 0.00637675 0)
(0.064617 0.00644835 0)
(0.0517343 0.00639745 0)
(0.0387759 0.00638985 0)
(0.0258492 0.00632538 0)
(0.0133652 0.00616588 0)
(0.00175181 0.00603051 0)
(-0.00945462 0.00585838 0)
(-0.0206905 0.00563418 0)
(-0.0316121 0.00540891 0)
(-0.0421036 0.00513359 0)
(-0.0520927 0.00486077 0)
(-0.0615246 0.00456333 0)
(-0.070347 0.00423361 0)
(-0.0785293 0.00390501 0)
(-0.0860376 0.00356046 0)
(-0.0928404 0.00319609 0)
(-0.0989166 0.00283019 0)
(-0.104245 0.00245108 0)
(-0.108813 0.00207458 0)
(-0.112616 0.00169856 0)
(-0.115666 0.00132943 0)
(-0.117986 0.000975169 0)
(-0.119592 0.000638913 0)
(-0.120487 0.000317531 0)
(-0.120734 -2.13643e-05 0)
(-0.120308 -0.000367838 0)
(-0.119213 -0.000708398 0)
(-0.117425 -0.00104984 0)
(-0.114942 -0.00139866 0)
(-0.111767 -0.00173911 0)
(-0.107902 -0.00207604 0)
(-0.103355 -0.00242006 0)
(-0.0981379 -0.00274382 0)
(-0.092262 -0.00305955 0)
(-0.0857418 -0.00338825 0)
(-0.0785957 -0.00368416 0)
(-0.0708437 -0.00399866 0)
(-0.0625089 -0.00426759 0)
(-0.0536222 -0.00451973 0)
(-0.0442153 -0.00479593 0)
(-0.0343277 -0.00500565 0)
(-0.0240094 -0.00518761 0)
(-0.0133224 -0.00539639 0)
(-0.00232056 -0.00550019 0)
(0.00892032 -0.00563677 0)
(0.0203038 -0.00566475 0)
(0.0317352 -0.00563941 0)
(0.0431097 -0.00562379 0)
(0.0543116 -0.005485 0)
(0.065216 -0.00528572 0)
(0.0756978 -0.00508078 0)
(0.0856269 -0.0047582 0)
(0.0948832 -0.00442129 0)
(0.103346 -0.00398548 0)
(0.110907 -0.0035058 0)
(0.11748 -0.00300621 0)
(0.12298 -0.00245359 0)
(0.127923 -0.00188521 0)
(0.108787 0.0110352 0)
(0.0953285 0.0112912 0)
(0.0787419 0.0116088 0)
(0.0618637 0.0118029 0)
(0.0448906 0.0116752 0)
(0.0278322 0.011615 0)
(0.0109003 0.0112515 0)
(-0.00502473 0.0110257 0)
(-0.0202296 0.0106393 0)
(-0.0350756 0.0100438 0)
(-0.0491738 0.00951027 0)
(-0.0624117 0.00890964 0)
(-0.0747112 0.00819191 0)
(-0.0860344 0.00752352 0)
(-0.0963449 0.00678721 0)
(-0.105639 0.00609857 0)
(-0.113918 0.00540684 0)
(-0.121193 0.00470723 0)
(-0.127496 0.00404865 0)
(-0.132856 0.00340984 0)
(-0.137314 0.00279273 0)
(-0.140913 0.00220839 0)
(-0.143695 0.00164838 0)
(-0.145698 0.00111564 0)
(-0.146919 0.000623132 0)
(-0.147398 0.000134789 0)
(-0.147171 -0.000365525 0)
(-0.146284 -0.00085353 0)
(-0.144712 -0.00134036 0)
(-0.142449 -0.00182407 0)
(-0.139483 -0.00231474 0)
(-0.135801 -0.00282951 0)
(-0.131381 -0.00334077 0)
(-0.126207 -0.00389176 0)
(-0.120257 -0.0044238 0)
(-0.113516 -0.00496557 0)
(-0.105965 -0.0055591 0)
(-0.0976111 -0.00608005 0)
(-0.0884829 -0.00658048 0)
(-0.0786049 -0.00713393 0)
(-0.0680308 -0.00755105 0)
(-0.0568075 -0.00802458 0)
(-0.0450536 -0.008324 0)
(-0.0328716 -0.0085699 0)
(-0.0202535 -0.00885532 0)
(-0.00742485 -0.00894551 0)
(0.00547481 -0.00898271 0)
(0.0184626 -0.00904144 0)
(0.0314217 -0.00894884 0)
(0.044222 -0.00877894 0)
(0.0567734 -0.00861145 0)
(0.0689842 -0.00831903 0)
(0.0807649 -0.00801405 0)
(0.0920509 -0.00761916 0)
(0.102742 -0.00714707 0)
(0.112746 -0.0066533 0)
(0.122005 -0.00608832 0)
(0.130411 -0.00542514 0)
(0.137856 -0.00473969 0)
(0.144254 -0.00394718 0)
(0.149484 -0.00311948 0)
(0.153466 -0.00219892 0)
(0.156103 -0.00120503 0)