/*--------------------------------*- C++ -*----------------------------------*\
| =========                 |                                                 |
| \\      /  F ield         | OpenFOAM: The Open Source CFD Toolbox           |
|  \\    /   O peration     | Version:  3.0.1                                 |
|   \\  /    A nd           | Web:      www.OpenFOAM.org                      |
|    \\/     M anipulation  |                                                 |
\*---------------------------------------------------------------------------*/
FoamFile
{
    version     2.0;
    format      ascii;
    class       volVectorField;
    location    "57.8";
    object      U;
}
// * * * * * * * * * * * * * * * * * * * * * * * * * * * * * * * * * * * * * //

dimensions      [0 1 -1 0 0 0 0];

internalField   nonuniform List<vector> 
21420
(
(-0.170095 0.00034803 0)
(-0.172746 0.000273917 0)
(-0.175154 0.000202613 0)
(-0.176855 0.000131775 0)
(-0.177833 6.30817e-05 0)
(-0.178131 -4.78604e-06 0)
(-0.177734 -7.43692e-05 0)
(-0.176636 -0.00014439 0)
(-0.174828 -0.000215013 0)
(-0.172298 -0.000287578 0)
(-0.169033 -0.000361341 0)
(-0.165009 -0.000437013 0)
(-0.160201 -0.000517147 0)
(-0.154583 -0.000598086 0)
(-0.148125 -0.000685469 0)
(-0.140796 -0.000772361 0)
(-0.132558 -0.000861504 0)
(-0.123382 -0.000960606 0)
(-0.113241 -0.00105454 0)
(-0.102112 -0.0011489 0)
(-0.0899806 -0.00125673 0)
(-0.0768485 -0.00135002 0)
(-0.0627267 -0.00143949 0)
(-0.0476373 -0.00154597 0)
(-0.0316324 -0.00162403 0)
(-0.0147713 -0.0017208 0)
(0.00282088 -0.00177876 0)
(0.0210158 -0.00182128 0)
(0.0397067 -0.001883 0)
(0.0587166 -0.00189176 0)
(0.0778269 -0.00187693 0)
(0.0968147 -0.00187624 0)
(0.115447 -0.00181574 0)
(0.133468 -0.00176068 0)
(0.150621 -0.00165102 0)
(0.166632 -0.00151627 0)
(0.181238 -0.00137454 0)
(0.194198 -0.00119524 0)
(0.205299 -0.000996521 0)
(0.214342 -0.000785564 0)
(0.221177 -0.000555944 0)
(0.225682 -0.000318474 0)
(0.227746 -7.79529e-05 0)
(0.227421 0.000167458 0)
(0.224543 0.000405729 0)
(0.219252 0.000638618 0)
(0.211691 0.000867772 0)
(0.201968 0.0010561 0)
(0.190285 0.0012447 0)
(0.176849 0.00141997 0)
(0.161884 0.0015386 0)
(0.145588 0.00166159 0)
(0.128329 0.00173237 0)
(0.110294 0.00179826 0)
(0.0916489 0.00185165 0)
(0.0728811 0.00185089 0)
(0.0540225 0.00184945 0)
(0.0352513 0.00182898 0)
(0.0169083 0.00177669 0)
(-0.000491999 0.00172824 0)
(-0.0171143 0.00165366 0)
(-0.0333571 0.00158 0)
(-0.0488255 0.00149467 0)
(-0.0634252 0.00140149 0)
(-0.0771305 0.0013095 0)
(-0.0898627 0.0012113 0)
(-0.101618 0.00111178 0)
(-0.112413 0.00101646 0)
(-0.122232 0.000916555 0)
(-0.131115 0.000829625 0)
(-0.139056 0.000732691 0)
(-0.146046 0.000643071 0)
(-0.152173 0.000561149 0)
(-0.157423 0.000471633 0)
(-0.161769 0.000383343 0)
(-0.165274 0.000302498 0)
(-0.167912 0.000211903 0)
(-0.169712 0.000138867 0)
(-0.170707 5.98775e-05 0)
(-0.170904 -2.76749e-05 0)
(-0.17033 -0.000100946 0)
(-0.168967 -0.000181142 0)
(-0.166767 -0.000267312 0)
(-0.163766 -0.000342203 0)
(-0.159989 -0.000422257 0)
(-0.155353 -0.000509358 0)
(-0.149914 -0.00058296 0)
(-0.143681 -0.000663686 0)
(-0.13666 -0.000734858 0)
(-0.1289 -0.000806716 0)
(-0.120434 -0.000877847 0)
(-0.111277 -0.000942522 0)
(-0.101483 -0.0010135 0)
(-0.0909267 -0.00107938 0)
(-0.0796221 -0.00114957 0)
(-0.0676481 -0.00122729 0)
(-0.0549051 -0.00130777 0)
(-0.0413845 -0.00137952 0)
(-0.027114 -0.00145035 0)
(-0.0121126 -0.00152067 0)
(0.00359967 -0.00158359 0)
(0.0199228 -0.00164562 0)
(0.0367513 -0.00168694 0)
(0.0539466 -0.00171844 0)
(0.0713618 -0.00173362 0)
(0.0888321 -0.00173198 0)
(0.106179 -0.00170616 0)
(0.123183 -0.00166423 0)
(0.139661 -0.00160176 0)
(0.155394 -0.00150968 0)
(0.170114 -0.00140414 0)
(0.183614 -0.00126868 0)
(0.195653 -0.0011176 0)
(0.206017 -0.000930993 0)
(0.214467 -0.000740068 0)
(0.220846 -0.000524713 0)
(0.225001 -0.000296026 0)
(0.226785 -6.03539e-05 0)
(0.226212 0.000179987 0)
(0.223085 0.000427998 0)
(0.217569 0.000662797 0)
(0.209727 0.000888579 0)
(0.199666 0.00109944 0)
(0.18759 0.00129416 0)
(0.173691 0.00146104 0)
(0.158207 0.0016061 0)
(0.141415 0.00172559 0)
(0.123595 0.00181051 0)
(0.105038 0.00186761 0)
(0.0859928 0.00190575 0)
(0.0667449 0.00191219 0)
(0.0475426 0.00189485 0)
(0.0285922 0.00186423 0)
(0.0100999 0.00180604 0)
(-0.00774547 0.00173385 0)
(-0.0247876 0.00165412 0)
(-0.0409404 0.00155036 0)
(-0.0560748 0.00144752 0)
(-0.0701038 0.00134349 0)
(-0.0830602 0.00123005 0)
(-0.0949289 0.00111879 0)
(-0.105651 0.0010158 0)
(-0.115318 0.000909138 0)
(-0.123968 0.000805948 0)
(-0.131573 0.000702888 0)
(-0.138216 0.000619082 0)
(-0.143958 0.000523093 0)
(-0.148849 0.000448547 0)
(-0.152976 0.000367518 0)
(-0.156336 0.000293137 0)
(-0.158953 0.000222075 0)
(-0.160894 0.000168892 0)
(-0.162208 9.91106e-05 0)
(-0.16293 5.01252e-05 0)
(-0.163131 -5.71738e-06 0)
(-0.162766 -6.83366e-05 0)
(-0.161819 -0.000116609 0)
(-0.160351 -0.000167794 0)
(-0.158336 -0.000229804 0)
(-0.155768 -0.000281324 0)
(-0.152625 -0.000343172 0)
(-0.148868 -0.000395525 0)
(-0.144524 -0.000457861 0)
(-0.139554 -0.000526622 0)
(-0.133901 -0.000595771 0)
(-0.127536 -0.000671421 0)
(-0.120385 -0.000744215 0)
(-0.112455 -0.000823541 0)
(-0.103716 -0.000905067 0)
(-0.094132 -0.000990541 0)
(-0.0837328 -0.00107271 0)
(-0.0724696 -0.00116043 0)
(-0.0603637 -0.00123526 0)
(-0.0474685 -0.00131861 0)
(-0.0337574 -0.00140496 0)
(-0.0192498 -0.00148283 0)
(-0.0039481 -0.00154022 0)
(0.0120128 -0.00160495 0)
(0.0284747 -0.00165946 0)
(0.0453766 -0.00168798 0)
(0.062544 -0.00171107 0)
(0.0798171 -0.00171163 0)
(0.0969561 -0.00168588 0)
(0.113755 -0.0016447 0)
(0.129977 -0.00157344 0)
(0.14535 -0.00147386 0)
(0.15962 -0.00135162 0)
(0.172495 -0.00119962 0)
(0.18372 -0.00101585 0)
(0.193001 -0.000823127 0)
(0.200172 -0.000602746 0)
(0.205093 -0.000370741 0)
(0.207616 -0.000126955 0)
(0.20774 0.000108719 0)
(0.205352 0.000357762 0)
(0.200456 0.000605194 0)
(0.193245 0.000831266 0)
(0.18376 0.00104594 0)
(0.172208 0.00123585 0)
(0.158809 0.0014154 0)
(0.143823 0.00155813 0)
(0.127503 0.00167555 0)
(0.110144 0.00176191 0)
(0.092051 0.00182523 0)
(0.0735215 0.00185014 0)
(0.0548384 0.00185623 0)
(0.0362564 0.00183097 0)
(0.017982 0.00178768 0)
(0.00025686 0.00173014 0)
(-0.0168093 0.00165976 0)
(-0.0330911 0.00157171 0)
(-0.0484236 0.00147537 0)
(-0.0627957 0.00137824 0)
(-0.0761892 0.00128035 0)
(-0.0885944 0.00117737 0)
(-0.0999965 0.00108739 0)
(-0.110485 0.00099253 0)
(-0.120061 0.000904162 0)
(-0.128722 0.00082212 0)
(-0.136578 0.000736039 0)
(-0.143619 0.000660363 0)
(-0.14985 0.000580693 0)
(-0.155343 0.000508346 0)
(-0.160131 0.000440723 0)
(-0.164192 0.000368652 0)
(-0.1676 0.000309697 0)
(-0.170383 0.000243853 0)
(-0.172517 0.000179748 0)
(-0.174028 0.000118399 0)
(-0.174914 6.79914e-05 0)
(-0.175259 2.9377e-06 0)
(-0.175024 -5.28432e-05 0)
(-0.174179 -0.000108459 0)
(-0.172765 -0.000168346 0)
(-0.170786 -0.000226123 0)
(-0.168178 -0.000284933 0)
(-0.164981 -0.000345733 0)
(-0.161209 -0.000404784 0)
(-0.156785 -0.00047748 0)
(-0.151666 -0.000534066 0)
(-0.145841 -0.000608207 0)
(-0.139315 -0.000685112 0)
(-0.131982 -0.000765613 0)
(-0.123845 -0.000839214 0)
(-0.114963 -0.000922662 0)
(-0.105295 -0.000995818 0)
(-0.0948737 -0.00106855 0)
(-0.0837121 -0.00114489 0)
(-0.0718031 -0.00121369 0)
(-0.0592106 -0.00128981 0)
(-0.0459034 -0.00134858 0)
(-0.0319184 -0.0014169 0)
(-0.0173195 -0.00147377 0)
(-0.00216006 -0.00152757 0)
(0.0134586 -0.00157014 0)
(0.0294264 -0.00159473 0)
(0.0455751 -0.00160076 0)
(0.0617058 -0.00159802 0)
(0.0776595 -0.00156506 0)
(0.0931794 -0.00151103 0)
(0.108041 -0.00142915 0)
(0.121991 -0.00133484 0)
(0.13484 -0.00120914 0)
(0.146341 -0.00106566 0)
(0.156286 -0.000897955 0)
(0.164473 -0.000713027 0)
(0.170691 -0.000513121 0)
(0.174792 -0.000294235 0)
(0.176648 -6.76847e-05 0)
(0.176246 0.000159799 0)
(0.173483 0.000388921 0)
(0.168541 0.000604655 0)
(0.161364 0.000804212 0)
(0.15237 0.000990196 0)
(0.141625 0.00113981 0)
(0.129478 0.00127368 0)
(0.116256 0.00137116 0)
(0.1019 0.00143619 0)
(0.0871994 0.00148888 0)
(0.0722153 0.00151263 0)
(0.0569132 0.00151477 0)
(0.0417055 0.00149041 0)
(0.0268484 0.00148302 0)
(0.0121528 0.00144035 0)
(-0.00179069 0.00140712 0)
(-0.0151435 0.00136836 0)
(-0.0284679 0.00131322 0)
(-0.0412926 0.00125286 0)
(-0.053533 0.00118914 0)
(-0.0650746 0.00111338 0)
(-0.0759031 0.00103965 0)
(-0.0859291 0.000959475 0)
(-0.095125 0.000877134 0)
(-0.103532 0.00079964 0)
(-0.111119 0.000720165 0)
(-0.117915 0.000640748 0)
(-0.123976 0.000569822 0)
(-0.129311 0.000499254 0)
(-0.133972 0.000434424 0)
(-0.13802 0.00037521 0)
(-0.141508 0.000320122 0)
(-0.144486 0.00027179 0)
(-0.146973 0.000225331 0)
(-0.149021 0.000182329 0)
(-0.150663 0.000144416 0)
(-0.151899 0.000106587 0)
(-0.152751 6.43597e-05 0)
(-0.153209 2.67438e-05 0)
(-0.153249 -1.81154e-05 0)
(-0.152833 -6.53075e-05 0)
(-0.151897 -0.000118632 0)
(-0.150385 -0.000180115 0)
(-0.148233 -0.000245908 0)
(-0.145353 -0.000321582 0)
(-0.141664 -0.000407529 0)
(-0.13709 -0.000498406 0)
(-0.131553 -0.000600561 0)
(-0.124991 -0.000702423 0)
(-0.117349 -0.000808395 0)
(-0.108587 -0.000927171 0)
(-0.0986948 -0.00103494 0)
(-0.0876677 -0.0011407 0)
(-0.0755288 -0.0012598 0)
(-0.0623286 -0.00135546 0)
(-0.0481296 -0.00146402 0)
(-0.0330127 -0.00153982 0)
(-0.0171058 -0.00160125 0)
(-0.000592957 -0.00167692 0)
(0.016402 -0.00170663 0)
(0.0337343 -0.0017165 0)
(0.0511872 -0.00173788 0)
(0.0685629 -0.00170823 0)
(0.0856317 -0.00165643 0)
(0.102174 -0.0016107 0)
(0.117972 -0.00151687 0)
(0.132808 -0.0014242 0)
(0.146477 -0.0012911 0)
(0.158781 -0.00114201 0)
(0.169545 -0.000988321 0)
(0.178622 -0.000811512 0)
(0.185887 -0.00062591 0)
(0.191249 -0.000434545 0)
(0.194656 -0.000236921 0)
(0.196065 -4.1635e-05 0)
(0.195529 0.000153173 0)
(0.193004 0.00034713 0)
(0.188578 0.000528244 0)
(0.182374 0.000701879 0)
(0.174496 0.0008655 0)
(0.165083 0.00100314 0)
(0.154285 0.00113773 0)
(0.142262 0.00123985 0)
(0.12918 0.00134241 0)
(0.115201 0.00143018 0)
(0.100489 0.00147937 0)
(0.0852104 0.00153465 0)
(0.0676739 0.00157482 0)
(-0.170124 0.00104396 0)
(-0.172775 0.000821635 0)
(-0.175182 0.000607753 0)
(-0.176882 0.000395336 0)
(-0.177861 0.00018859 0)
(-0.178158 -1.37305e-05 0)
(-0.177762 -0.000223103 0)
(-0.176664 -0.000433178 0)
(-0.174856 -0.000645011 0)
(-0.172328 -0.000862674 0)
(-0.169063 -0.00108394 0)
(-0.16504 -0.00131094 0)
(-0.160234 -0.00155134 0)
(-0.154617 -0.00179412 0)
(-0.14816 -0.00205623 0)
(-0.140832 -0.00231693 0)
(-0.132596 -0.00258437 0)
(-0.123421 -0.00288169 0)
(-0.113281 -0.00316352 0)
(-0.102153 -0.00344666 0)
(-0.0900216 -0.00377019 0)
(-0.0768889 -0.00405014 0)
(-0.0627659 -0.00431858 0)
(-0.0476753 -0.00463815 0)
(-0.0316675 -0.00487242 0)
(-0.0148034 -0.00516293 0)
(0.00279359 -0.00533662 0)
(0.0209941 -0.00546443 0)
(0.0396915 -0.00564976 0)
(0.0587092 -0.00567612 0)
(0.0778278 -0.00563168 0)
(0.0968255 -0.00562975 0)
(0.115467 -0.00544827 0)
(0.133499 -0.00528329 0)
(0.150662 -0.00495423 0)
(0.166684 -0.00454973 0)
(0.1813 -0.00412497 0)
(0.19427 -0.00358671 0)
(0.205378 -0.00298987 0)
(0.214429 -0.00235651 0)
(0.22127 -0.00166788 0)
(0.22578 -0.000954895 0)
(0.227849 -0.000237562 0)
(0.227522 0.000501084 0)
(0.224633 0.0012171 0)
(0.219346 0.00191574 0)
(0.211783 0.00260371 0)
(0.202053 0.00316882 0)
(0.190364 0.00373476 0)
(0.176919 0.00426072 0)
(0.161945 0.00461665 0)
(0.145641 0.00498564 0)
(0.128372 0.00519808 0)
(0.110328 0.00539562 0)
(0.0916747 0.00555562 0)
(0.0728964 0.0055541 0)
(0.0540297 0.00554921 0)
(0.0352507 0.00548786 0)
(0.0169015 0.00533078 0)
(-0.000505187 0.00518558 0)
(-0.0171336 0.00496179 0)
(-0.0333819 0.00474065 0)
(-0.0488553 0.00448492 0)
(-0.0634584 0.00420552 0)
(-0.0771674 0.0039296 0)
(-0.0899032 0.00363454 0)
(-0.101661 0.00333619 0)
(-0.112459 0.00305078 0)
(-0.12228 0.00274989 0)
(-0.131166 0.00248769 0)
(-0.139106 0.00219865 0)
(-0.146095 0.0019319 0)
(-0.152226 0.00168474 0)
(-0.157479 0.00141578 0)
(-0.161826 0.00114964 0)
(-0.165333 0.000903282 0)
(-0.167966 0.000641954 0)
(-0.169774 0.000414784 0)
(-0.170768 0.000180568 0)
(-0.170963 -8.35506e-05 0)
(-0.170387 -0.00030248 0)
(-0.169032 -0.000552796 0)
(-0.166818 -0.00079848 0)
(-0.163821 -0.00102798 0)
(-0.16004 -0.00126967 0)
(-0.155401 -0.00152516 0)
(-0.149963 -0.0017488 0)
(-0.143732 -0.00200203 0)
(-0.136695 -0.00219999 0)
(-0.128937 -0.00241912 0)
(-0.120472 -0.00263254 0)
(-0.111316 -0.00283065 0)
(-0.101519 -0.00303964 0)
(-0.0909762 -0.00324427 0)
(-0.0796771 -0.0034625 0)
(-0.0676932 -0.0036793 0)
(-0.0549499 -0.00391654 0)
(-0.0414367 -0.00413193 0)
(-0.0271761 -0.00435502 0)
(-0.0121738 -0.00457018 0)
(0.00354479 -0.00475731 0)
(0.0198758 -0.00493597 0)
(0.0367051 -0.0050659 0)
(0.0539105 -0.00515904 0)
(0.0713379 -0.00520515 0)
(0.0888274 -0.00519244 0)
(0.106173 -0.00513643 0)
(0.123204 -0.00499885 0)
(0.139693 -0.00480099 0)
(0.155426 -0.00453972 0)
(0.170167 -0.0042131 0)
(0.183681 -0.00381259 0)
(0.195729 -0.00334747 0)
(0.206093 -0.00280743 0)
(0.214568 -0.00221981 0)
(0.220948 -0.00157369 0)
(0.2251 -0.000892884 0)
(0.226883 -0.000187487 0)
(0.226297 0.000533857 0)
(0.223165 0.00128406 0)
(0.217644 0.00199188 0)
(0.209793 0.00266517 0)
(0.199722 0.00330197 0)
(0.187635 0.00389064 0)
(0.173717 0.0043865 0)
(0.15821 0.00481587 0)
(0.141394 0.00516812 0)
(0.123561 0.00543129 0)
(0.104989 0.00561573 0)
(0.0859151 0.00571414 0)
(0.0666551 0.0057388 0)
(0.0474352 0.00569731 0)
(0.0284656 0.00558769 0)
(0.00996207 0.00541783 0)
(-0.00789434 0.00520109 0)
(-0.0249477 0.00495639 0)
(-0.0411101 0.00465438 0)
(-0.056247 0.00434176 0)
(-0.0702832 0.00404087 0)
(-0.0832506 0.00368154 0)
(-0.0951125 0.00335463 0)
(-0.105837 0.00305468 0)
(-0.115509 0.00271747 0)
(-0.12415 0.00241532 0)
(-0.131751 0.00211028 0)
(-0.138395 0.0018462 0)
(-0.144126 0.00157833 0)
(-0.149026 0.0013397 0)
(-0.153147 0.00110297 0)
(-0.156502 0.000875355 0)
(-0.159111 0.00067565 0)
(-0.161049 0.000492782 0)
(-0.162368 0.000306078 0)
(-0.163096 0.000139085 0)
(-0.163286 -3.26332e-05 0)
(-0.162893 -0.000186906 0)
(-0.161954 -0.000356855 0)
(-0.160491 -0.000517894 0)
(-0.15846 -0.000686169 0)
(-0.155898 -0.000847827 0)
(-0.152753 -0.00102829 0)
(-0.148987 -0.00119484 0)
(-0.144645 -0.00137844 0)
(-0.13967 -0.00157757 0)
(-0.134021 -0.00178914 0)
(-0.127653 -0.00201111 0)
(-0.120499 -0.00222372 0)
(-0.112579 -0.00248122 0)
(-0.103839 -0.00273489 0)
(-0.094231 -0.00297423 0)
(-0.0838275 -0.00321276 0)
(-0.0725678 -0.0034718 0)
(-0.0604655 -0.00372169 0)
(-0.0475646 -0.00396994 0)
(-0.0338351 -0.00421158 0)
(-0.0193216 -0.00444659 0)
(-0.00401742 -0.00462397 0)
(0.0119501 -0.00481889 0)
(0.0284197 -0.00497593 0)
(0.0453277 -0.00507773 0)
(0.0625185 -0.00513559 0)
(0.0797993 -0.00513222 0)
(0.0969494 -0.00506993 0)
(0.113769 -0.00493303 0)
(0.129997 -0.00472007 0)
(0.145386 -0.00442827 0)
(0.159678 -0.0040497 0)
(0.17256 -0.00359971 0)
(0.183785 -0.00306117 0)
(0.193086 -0.00246501 0)
(0.200255 -0.00181129 0)
(0.205176 -0.00111927 0)
(0.2077 -0.000387115 0)
(0.207817 0.000323377 0)
(0.205414 0.00107099 0)
(0.200522 0.001814 0)
(0.193301 0.00249028 0)
(0.183803 0.00314002 0)
(0.172238 0.00371778 0)
(0.15882 0.00424848 0)
(0.143816 0.0046729 0)
(0.127482 0.00503295 0)
(0.110095 0.00528915 0)
(0.0919758 0.00547557 0)
(0.0734318 0.00555077 0)
(0.054732 0.00556833 0)
(0.0361345 0.00549116 0)
(0.0178553 0.00537519 0)
(0.000114514 0.00519682 0)
(-0.0169667 0.00497037 0)
(-0.0332502 0.00471384 0)
(-0.0485881 0.00442911 0)
(-0.0629652 0.00413566 0)
(-0.0763633 0.00383015 0)
(-0.0887636 0.00353628 0)
(-0.10017 0.0032727 0)
(-0.110665 0.0029731 0)
(-0.120239 0.00270672 0)
(-0.1289 0.00246543 0)
(-0.136754 0.00220762 0)
(-0.143797 0.00197419 0)
(-0.15002 0.00174106 0)
(-0.155509 0.00152789 0)
(-0.160289 0.00131802 0)
(-0.164349 0.00110995 0)
(-0.167756 0.000918617 0)
(-0.170532 0.000730916 0)
(-0.172668 0.000538943 0)
(-0.174177 0.000355024 0)
(-0.175057 0.000188838 0)
(-0.175385 1.79081e-05 0)
(-0.175153 -0.000161429 0)
(-0.174319 -0.000333945 0)
(-0.172889 -0.000501638 0)
(-0.170913 -0.000683025 0)
(-0.168303 -0.000859227 0)
(-0.165091 -0.00103098 0)
(-0.161327 -0.00122113 0)
(-0.1569 -0.00143313 0)
(-0.151778 -0.00160085 0)
(-0.145962 -0.00183877 0)
(-0.13943 -0.00206274 0)
(-0.132094 -0.00230037 0)
(-0.123955 -0.00252621 0)
(-0.115066 -0.00276521 0)
(-0.105389 -0.00298081 0)
(-0.0949689 -0.00320985 0)
(-0.0837998 -0.0034318 0)
(-0.071895 -0.00364733 0)
(-0.0592899 -0.00386905 0)
(-0.0459788 -0.00405149 0)
(-0.0319978 -0.00424837 0)
(-0.0173948 -0.00442692 0)
(-0.00222495 -0.00458291 0)
(0.0133982 -0.00471155 0)
(0.0293743 -0.0047839 0)
(0.0455272 -0.00481738 0)
(0.06168 -0.00478802 0)
(0.0776394 -0.00469422 0)
(0.0931623 -0.00453197 0)
(0.108029 -0.00430389 0)
(0.122005 -0.00399754 0)
(0.134859 -0.00362803 0)
(0.146371 -0.00320013 0)
(0.156331 -0.00269629 0)
(0.164526 -0.00215117 0)
(0.17077 -0.00153556 0)
(0.17488 -0.000884541 0)
(0.176743 -0.000209141 0)
(0.176341 0.000479949 0)
(0.173579 0.00117012 0)
(0.168639 0.00181305 0)
(0.161458 0.00241734 0)
(0.152451 0.00296905 0)
(0.141697 0.00342045 0)
(0.129542 0.00382279 0)
(0.116304 0.00411861 0)
(0.101935 0.00430677 0)
(0.0872272 0.00446895 0)
(0.0722276 0.00453739 0)
(0.0569183 0.00454715 0)
(0.0417048 0.00447154 0)
(0.0268409 0.00444838 0)
(0.0121429 0.00432372 0)
(-0.00180326 0.0042228 0)
(-0.01516 0.00410458 0)
(-0.0284882 0.00394097 0)
(-0.0413156 0.00375849 0)
(-0.053559 0.00356899 0)
(-0.0651038 0.00334009 0)
(-0.075933 0.00311971 0)
(-0.0859616 0.00287877 0)
(-0.095157 0.00263154 0)
(-0.103564 0.00239928 0)
(-0.111151 0.0021595 0)
(-0.117947 0.00192158 0)
(-0.124006 0.00170848 0)
(-0.129338 0.00149766 0)
(-0.133999 0.00130436 0)
(-0.138044 0.00112527 0)
(-0.14153 0.000960672 0)
(-0.144507 0.000815211 0)
(-0.146992 0.000676202 0)
(-0.149039 0.000547642 0)
(-0.150681 0.000432622 0)
(-0.151916 0.000320024 0)
(-0.15277 0.000193826 0)
(-0.153228 7.96562e-05 0)
(-0.15327 -5.43353e-05 0)
(-0.152855 -0.000195613 0)
(-0.151921 -0.000355516 0)
(-0.150413 -0.00053984 0)
(-0.148265 -0.00073731 0)
(-0.145387 -0.000964352 0)
(-0.141702 -0.00122223 0)
(-0.137131 -0.00149487 0)
(-0.131596 -0.00180132 0)
(-0.125037 -0.00210702 0)
(-0.117395 -0.002425 0)
(-0.108635 -0.00278146 0)
(-0.0987425 -0.0031048 0)
(-0.0877142 -0.00342216 0)
(-0.0755742 -0.00377963 0)
(-0.0623709 -0.00406663 0)
(-0.0481686 -0.00439248 0)
(-0.0330467 -0.00462008 0)
(-0.0171343 -0.00480458 0)
(-0.000615391 -0.00503096 0)
(0.016387 -0.00512058 0)
(0.0337269 -0.00515026 0)
(0.0511883 -0.00521448 0)
(0.0685725 -0.00512557 0)
(0.0856498 -0.00497017 0)
(0.102202 -0.00483298 0)
(0.118008 -0.00455147 0)
(0.132854 -0.00427344 0)
(0.146529 -0.00387405 0)
(0.158839 -0.00342669 0)
(0.16961 -0.00296556 0)
(0.178692 -0.00243499 0)
(0.185962 -0.00187811 0)
(0.191326 -0.00130406 0)
(0.194732 -0.000712436 0)
(0.196145 -0.000122608 0)
(0.195608 0.000460197 0)
(0.193077 0.00104173 0)
(0.188649 0.00158504 0)
(0.18244 0.0021061 0)
(0.174557 0.00259707 0)
(0.165138 0.00301003 0)
(0.154334 0.00341383 0)
(0.142304 0.00372021 0)
(0.129216 0.00402788 0)
(0.11523 0.00429122 0)
(0.100511 0.00443875 0)
(0.0852264 0.00460456 0)
(0.0676829 0.00472507 0)
(-0.170183 0.00173962 0)
(-0.172832 0.00136915 0)
(-0.175238 0.00101274 0)
(-0.176935 0.000659338 0)
(-0.177916 0.000315617 0)
(-0.178215 -2.45209e-05 0)
(-0.177817 -0.000372163 0)
(-0.17672 -0.000721903 0)
(-0.174913 -0.00107486 0)
(-0.172386 -0.00143756 0)
(-0.169122 -0.00180629 0)
(-0.165101 -0.00218458 0)
(-0.160298 -0.00258519 0)
(-0.154683 -0.00298979 0)
(-0.14823 -0.00342656 0)
(-0.140903 -0.0038611 0)
(-0.132669 -0.00430689 0)
(-0.123497 -0.00480249 0)
(-0.113358 -0.00527229 0)
(-0.102231 -0.00574431 0)
(-0.0901011 -0.00628371 0)
(-0.0769668 -0.00675056 0)
(-0.0628408 -0.00719812 0)
(-0.0477477 -0.00773103 0)
(-0.0317337 -0.00812172 0)
(-0.014863 -0.00860619 0)
(0.00274391 -0.00889611 0)
(0.0209559 -0.00910948 0)
(0.0396668 -0.0094188 0)
(0.0587004 -0.00946296 0)
(0.077836 -0.0093891 0)
(0.0968538 -0.00938623 0)
(0.115514 -0.00908383 0)
(0.133569 -0.00880908 0)
(0.150753 -0.00826052 0)
(0.166793 -0.00758633 0)
(0.181431 -0.00687812 0)
(0.194418 -0.0059804 0)
(0.20554 -0.00498598 0)
(0.214604 -0.00393077 0)
(0.221456 -0.0027826 0)
(0.225973 -0.00159488 0)
(0.228056 -0.00038903 0)
(0.227711 0.000833132 0)
(0.224806 0.0020292 0)
(0.219522 0.00319349 0)
(0.21195 0.00434156 0)
(0.202205 0.00528388 0)
(0.1905 0.00622735 0)
(0.177037 0.00710431 0)
(0.162043 0.00769766 0)
(0.14572 0.00831247 0)
(0.128428 0.00866684 0)
(0.110368 0.00899557 0)
(0.0916965 0.00926137 0)
(0.0728975 0.00926074 0)
(0.0540153 0.00925132 0)
(0.035222 0.00914876 0)
(0.0168627 0.00888678 0)
(-0.000554283 0.00864411 0)
(-0.0171916 0.00827098 0)
(-0.0334472 0.00790275 0)
(-0.0489262 0.00747644 0)
(-0.0635321 0.00701025 0)
(-0.0772437 0.00655031 0)
(-0.0899807 0.0060585 0)
(-0.101739 0.00556091 0)
(-0.112539 0.00508481 0)
(-0.122354 0.00458337 0)
(-0.131239 0.00414793 0)
(-0.139181 0.00366571 0)
(-0.146166 0.00321913 0)
(-0.152299 0.00280755 0)
(-0.15755 0.00235893 0)
(-0.161894 0.00191798 0)
(-0.165404 0.00150925 0)
(-0.168036 0.00106623 0)
(-0.169847 0.000693422 0)
(-0.170847 0.000298926 0)
(-0.171032 -0.000139027 0)
(-0.170459 -0.00050624 0)
(-0.1691 -0.00091452 0)
(-0.166888 -0.00133501 0)
(-0.163894 -0.00171582 0)
(-0.160113 -0.00211214 0)
(-0.155478 -0.00254693 0)
(-0.150043 -0.00291576 0)
(-0.14381 -0.00333273 0)
(-0.136775 -0.00367091 0)
(-0.129028 -0.00403228 0)
(-0.120566 -0.00439024 0)
(-0.111414 -0.00471775 0)
(-0.101629 -0.00506933 0)
(-0.0910947 -0.0053997 0)
(-0.079806 -0.00576319 0)
(-0.0678371 -0.00613278 0)
(-0.0551042 -0.00652984 0)
(-0.0415944 -0.00689265 0)
(-0.0273352 -0.0072543 0)
(-0.0123337 -0.007612 0)
(0.00338427 -0.00793407 0)
(0.0197189 -0.00823152 0)
(0.0365565 -0.00844765 0)
(0.0537667 -0.00859934 0)
(0.0712093 -0.00867854 0)
(0.0887127 -0.00866338 0)
(0.106091 -0.00855041 0)
(0.123135 -0.00833349 0)
(0.139637 -0.00801286 0)
(0.155389 -0.00757021 0)
(0.170158 -0.00702039 0)
(0.183688 -0.00635156 0)
(0.195749 -0.00559029 0)
(0.206137 -0.00467742 0)
(0.214621 -0.00369968 0)
(0.221013 -0.00262311 0)
(0.225176 -0.00148543 0)
(0.226965 -0.00030864 0)
(0.226363 0.00088721 0)
(0.22323 0.00214491 0)
(0.21771 0.00331928 0)
(0.209851 0.00444457 0)
(0.199773 0.00550345 0)
(0.187666 0.0064894 0)
(0.173726 0.00731526 0)
(0.158197 0.00803733 0)
(0.141349 0.00862511 0)
(0.123485 0.00905833 0)
(0.104894 0.0093584 0)
(0.0858003 0.00952641 0)
(0.0665118 0.00957598 0)
(0.0472746 0.00949771 0)
(0.0282864 0.00931846 0)
(0.00977168 0.00903267 0)
(-0.00809138 0.00867996 0)
(-0.0251669 0.00826265 0)
(-0.0413461 0.00775793 0)
(-0.0564873 0.0072367 0)
(-0.0705319 0.00672951 0)
(-0.083502 0.00613958 0)
(-0.0953582 0.00559707 0)
(-0.106085 0.00508726 0)
(-0.115749 0.00452614 0)
(-0.124383 0.00402928 0)
(-0.131979 0.00351644 0)
(-0.138614 0.00308054 0)
(-0.144351 0.00263023 0)
(-0.149245 0.00223074 0)
(-0.153364 0.00183277 0)
(-0.156712 0.00145386 0)
(-0.159311 0.00114103 0)
(-0.161257 0.000823076 0)
(-0.162587 0.000506597 0)
(-0.163307 0.00022826 0)
(-0.163481 -4.7186e-05 0)
(-0.163087 -0.000322015 0)
(-0.162143 -0.000597077 0)
(-0.16067 -0.000851455 0)
(-0.158647 -0.00114554 0)
(-0.156101 -0.00141682 0)
(-0.152962 -0.00171199 0)
(-0.149183 -0.00198905 0)
(-0.144836 -0.00229283 0)
(-0.139867 -0.00263151 0)
(-0.134223 -0.00298276 0)
(-0.127862 -0.0033519 0)
(-0.120723 -0.00372273 0)
(-0.112804 -0.00412674 0)
(-0.104051 -0.00454328 0)
(-0.0944409 -0.00495688 0)
(-0.0840471 -0.00536642 0)
(-0.0727913 -0.00579729 0)
(-0.0606758 -0.00619051 0)
(-0.0477734 -0.00661081 0)
(-0.0340458 -0.00702808 0)
(-0.0195194 -0.00740902 0)
(-0.00420312 -0.00770551 0)
(0.0117591 -0.00803678 0)
(0.0282392 -0.0083055 0)
(0.0451678 -0.00845759 0)
(0.0623722 -0.00856443 0)
(0.0796719 -0.00856496 0)
(0.0968502 -0.00844082 0)
(0.11369 -0.00822489 0)
(0.129931 -0.00788062 0)
(0.145346 -0.00737954 0)
(0.159658 -0.00675988 0)
(0.172567 -0.00600654 0)
(0.183818 -0.00509426 0)
(0.193129 -0.00411529 0)
(0.20032 -0.00302069 0)
(0.205256 -0.00185272 0)
(0.207783 -0.0006479 0)
(0.207892 0.00053981 0)
(0.205483 0.0017916 0)
(0.200589 0.0030239 0)
(0.193351 0.00415837 0)
(0.183835 0.00523706 0)
(0.172256 0.00619965 0)
(0.158818 0.0070817 0)
(0.143796 0.00779268 0)
(0.12744 0.00839399 0)
(0.110028 0.008825 0)
(0.0918791 0.00912949 0)
(0.0733052 0.00925443 0)
(0.0545828 0.0092804 0)
(0.035958 0.00916175 0)
(0.0176635 0.00895335 0)
(-8.64127e-05 0.00867417 0)
(-0.0171791 0.00828556 0)
(-0.0334645 0.00785251 0)
(-0.0488125 0.00738808 0)
(-0.0631907 0.00688995 0)
(-0.0765836 0.00638999 0)
(-0.0889895 0.00589922 0)
(-0.100404 0.00544593 0)
(-0.110888 0.00495262 0)
(-0.120447 0.0045134 0)
(-0.129111 0.00411513 0)
(-0.136971 0.00367556 0)
(-0.144012 0.00328625 0)
(-0.150237 0.00291812 0)
(-0.155725 0.00253872 0)
(-0.160499 0.00219764 0)
(-0.164551 0.00184461 0)
(-0.167949 0.00153316 0)
(-0.170731 0.00122151 0)
(-0.172875 0.000895036 0)
(-0.174371 0.000590335 0)
(-0.175242 0.000322561 0)
(-0.175569 2.29371e-05 0)
(-0.175337 -0.000267576 0)
(-0.174501 -0.00055488 0)
(-0.173083 -0.000840223 0)
(-0.17111 -0.00114913 0)
(-0.168491 -0.00141811 0)
(-0.165286 -0.00172714 0)
(-0.161525 -0.00203192 0)
(-0.157097 -0.00237631 0)
(-0.15198 -0.00268376 0)
(-0.146167 -0.00305583 0)
(-0.139644 -0.00344057 0)
(-0.132309 -0.0038253 0)
(-0.124168 -0.00420856 0)
(-0.115281 -0.00460955 0)
(-0.105597 -0.00497476 0)
(-0.0951696 -0.0053524 0)
(-0.0839992 -0.00572105 0)
(-0.0720907 -0.00607718 0)
(-0.0594836 -0.00644335 0)
(-0.0461729 -0.0067571 0)
(-0.0321923 -0.00708561 0)
(-0.0175839 -0.00737863 0)
(-0.00241448 -0.00764101 0)
(0.0132205 -0.00785671 0)
(0.0292161 -0.00797607 0)
(0.0453885 -0.00802568 0)
(0.0615596 -0.00798316 0)
(0.0775348 -0.00782781 0)
(0.0930766 -0.00756185 0)
(0.107969 -0.00716785 0)
(0.121967 -0.00666924 0)
(0.134843 -0.0060551 0)
(0.146393 -0.00533146 0)
(0.156376 -0.00450469 0)
(0.164603 -0.00358148 0)
(0.17087 -0.00256664 0)
(0.175002 -0.00147707 0)
(0.176883 -0.000344968 0)
(0.176476 0.000797679 0)
(0.173715 0.00194989 0)
(0.168778 0.00302453 0)
(0.161595 0.00402778 0)
(0.152571 0.00495486 0)
(0.141803 0.00570265 0)
(0.129627 0.00637699 0)
(0.11636 0.00686363 0)
(0.101975 0.00718225 0)
(0.0872552 0.0074548 0)
(0.072228 0.00756741 0)
(0.0568996 0.00757845 0)
(0.0416844 0.00745579 0)
(0.0268128 0.00741748 0)
(0.0121052 0.0072061 0)
(-0.00183906 0.00703916 0)
(-0.0152016 0.00684305 0)
(-0.0285379 0.00656916 0)
(-0.0413668 0.00626519 0)
(-0.0536167 0.00594853 0)
(-0.0651645 0.00556867 0)
(-0.0759967 0.00519877 0)
(-0.0860258 0.00479831 0)
(-0.095221 0.00438664 0)
(-0.103629 0.00399816 0)
(-0.111214 0.00359887 0)
(-0.118006 0.00320574 0)
(-0.124063 0.00285096 0)
(-0.129392 0.00249758 0)
(-0.134048 0.0021716 0)
(-0.138089 0.00187652 0)
(-0.141572 0.0015998 0)
(-0.144544 0.00135829 0)
(-0.147027 0.00112711 0)
(-0.149071 0.000913094 0)
(-0.150709 0.000722095 0)
(-0.151947 0.000532643 0)
(-0.152805 0.000321168 0)
(-0.153262 0.000132959 0)
(-0.153306 -9.03764e-05 0)
(-0.152895 -0.000325318 0)
(-0.151966 -0.000591602 0)
(-0.150463 -0.000898394 0)
(-0.148321 -0.00122779 0)
(-0.14545 -0.00160626 0)
(-0.141772 -0.0020364 0)
(-0.137207 -0.00249037 0)
(-0.131678 -0.00300133 0)
(-0.125122 -0.00351106 0)
(-0.117483 -0.00404127 0)
(-0.108725 -0.00463582 0)
(-0.0988317 -0.00517481 0)
(-0.0878011 -0.00570399 0)
(-0.0756589 -0.0063002 0)
(-0.0624495 -0.00677869 0)
(-0.0482408 -0.00732221 0)
(-0.0331091 -0.00770187 0)
(-0.0171856 -0.00800972 0)
(-0.00065483 -0.0083868 0)
(0.016362 -0.00853671 0)
(0.0337169 -0.00858635 0)
(0.0511949 -0.00869361 0)
(0.0685959 -0.00854547 0)
(0.0856898 -0.00828648 0)
(0.10226 -0.00805786 0)
(0.118083 -0.00758853 0)
(0.132947 -0.00712504 0)
(0.146637 -0.00645914 0)
(0.158959 -0.00571324 0)
(0.169744 -0.00494439 0)
(0.178835 -0.00405973 0)
(0.186111 -0.00313124 0)
(0.19148 -0.00217407 0)
(0.194887 -0.00118666 0)
(0.196305 -0.000201311 0)
(0.195765 0.00076635 0)
(0.193222 0.00173748 0)
(0.188789 0.00264293 0)
(0.182572 0.00351182 0)
(0.174679 0.00433039 0)
(0.165246 0.00501876 0)
(0.15443 0.0056919 0)
(0.142386 0.00620254 0)
(0.129285 0.00671534 0)
(0.115287 0.00715425 0)
(0.100554 0.00740003 0)
(0.0852574 0.00767635 0)
(0.0677003 0.00787716 0)
(-0.170271 0.00243482 0)
(-0.172918 0.00191638 0)
(-0.175322 0.00141751 0)
(-0.177015 0.000923938 0)
(-0.177999 0.000442415 0)
(-0.178298 -3.60872e-05 0)
(-0.1779 -0.000521776 0)
(-0.176804 -0.0010105 0)
(-0.174998 -0.00150445 0)
(-0.172473 -0.00201209 0)
(-0.169212 -0.0025282 0)
(-0.165193 -0.00305772 0)
(-0.160393 -0.00361846 0)
(-0.154782 -0.00418483 0)
(-0.148333 -0.00479614 0)
(-0.14101 -0.00540455 0)
(-0.132779 -0.00602881 0)
(-0.123612 -0.00672279 0)
(-0.113475 -0.00738068 0)
(-0.102348 -0.0080418 0)
(-0.0902204 -0.00879732 0)
(-0.0770837 -0.00945143 0)
(-0.0629534 -0.0100784 0)
(-0.0478563 -0.010825 0)
(-0.031833 -0.0113724 0)
(-0.0149526 -0.012051 0)
(0.00266919 -0.0124588 0)
(0.0208985 -0.0127578 0)
(0.0396296 -0.0131917 0)
(0.0586871 -0.013254 0)
(0.0778481 -0.013151 0)
(0.096896 -0.0131477 0)
(0.115585 -0.0127244 0)
(0.133675 -0.0123402 0)
(0.150888 -0.0115722 0)
(0.166956 -0.0106277 0)
(0.181628 -0.0096362 0)
(0.194639 -0.00837945 0)
(0.205785 -0.00698528 0)
(0.21487 -0.00550759 0)
(0.221738 -0.00389831 0)
(0.226265 -0.00223673 0)
(0.228359 -0.000549494 0)
(0.227986 0.00118374 0)
(0.225072 0.00284241 0)
(0.219788 0.00447252 0)
(0.212201 0.00608251 0)
(0.202432 0.00740278 0)
(0.190704 0.00872409 0)
(0.177214 0.00995259 0)
(0.162189 0.0107837 0)
(0.145838 0.0116441 0)
(0.128513 0.0121408 0)
(0.110426 0.0126008 0)
(0.0917283 0.0129702 0)
(0.0728985 0.0129723 0)
(0.0539929 0.0129574 0)
(0.0351784 0.0128133 0)
(0.016804 0.0124467 0)
(-0.000628635 0.0121043 0)
(-0.0172792 0.0115818 0)
(-0.0335461 0.0110663 0)
(-0.049033 0.0104692 0)
(-0.0636427 0.00981584 0)
(-0.0773586 0.00917177 0)
(-0.0900985 0.00848276 0)
(-0.101854 0.00778689 0)
(-0.112658 0.00711838 0)
(-0.122465 0.00641612 0)
(-0.131352 0.00580674 0)
(-0.139295 0.00513284 0)
(-0.146272 0.00450733 0)
(-0.152407 0.00393038 0)