/*--------------------------------*- C++ -*----------------------------------*\
| =========                 |                                                 |
| \\      /  F ield         | OpenFOAM: The Open Source CFD Toolbox           |
|  \\    /   O peration     | Version:  3.0.1                                 |
|   \\  /    A nd           | Web:      www.OpenFOAM.org                      |
|    \\/     M anipulation  |                                                 |
\*---------------------------------------------------------------------------*/
FoamFile
{
    version     2.0;
    format      ascii;
    class       surfaceScalarField;
    location    "59";
    object      phi;
}
// * * * * * * * * * * * * * * * * * * * * * * * * * * * * * * * * * * * * * //

dimensions      [0 3 -1 0 0 0 0];

internalField   nonuniform List<scalar> 
42423
(
9.06896e-05
-1.84075e-05
0.000109118
-1.84285e-05
0.00012713
-1.80128e-05
0.00014443
-1.72996e-05
0.000160993
-1.65635e-05
0.000176426
-1.54329e-05
0.000190574
-1.41486e-05
0.00020316
-1.25861e-05
0.000213965
-1.08046e-05
0.000222765
-8.80056e-06
0.000229348
-6.58268e-06
0.000233616
-4.2679e-06
0.000235464
-1.84881e-06
0.000234876
5.8768e-07
0.000231851
3.02576e-06
0.000226345
5.50591e-06
0.000218453
7.89109e-06
0.000208504
9.94948e-06
0.000196623
1.18804e-05
0.000182814
1.38092e-05
0.000167603
1.5211e-05
0.000151144
1.64589e-05
0.000133643
1.75014e-05
0.000115491
1.81515e-05
9.68225e-05
1.86685e-05
7.79412e-05
1.88813e-05
5.89893e-05
1.89519e-05
4.03244e-05
1.86648e-05
2.20818e-05
1.82426e-05
4.28393e-06
1.77978e-05
-1.28795e-05
1.71635e-05
-2.92745e-05
1.63949e-05
-4.48043e-05
1.55298e-05
-5.94119e-05
1.46076e-05
-7.30818e-05
1.36698e-05
-8.57613e-05
1.26795e-05
-9.7456e-05
1.16947e-05
-0.000108199
1.07433e-05
-0.000117993
9.79329e-06
-0.00012684
8.84691e-06
-0.000134787
7.94698e-06
-0.000141862
7.07557e-06
-0.000148111
6.24905e-06
-0.000153559
5.44744e-06
-0.000158225
4.66649e-06
-0.000162135
3.90938e-06
-0.000165306
3.17126e-06
-0.000167756
2.45057e-06
-0.000169546
1.79012e-06
-0.000170652
1.10595e-06
-0.000171065
4.12674e-07
-0.00017076
-3.04835e-07
-0.000169694
-1.0663e-06
-0.000167946
-1.74802e-06
-0.00016548
-2.46585e-06
-0.000162214
-3.26651e-06
-0.000158256
-3.95802e-06
-0.000153517
-4.73895e-06
-0.000147849
-5.66763e-06
-0.000141467
-6.38215e-06
-0.000134086
-7.38112e-06
-0.000125819
-8.26647e-06
-0.000116714
-9.10573e-06
-0.000106605
-1.01085e-05
-9.55775e-05
-1.10278e-05
-8.3743e-05
-1.18345e-05
-7.0886e-05
-1.28571e-05
-5.71622e-05
-1.37238e-05
-4.26153e-05
-1.45469e-05
-2.72154e-05
-1.54e-05
-1.11834e-05
-1.60321e-05
5.44233e-06
-1.66258e-05
2.26184e-05
-1.71761e-05
4.00832e-05
-1.74649e-05
5.7809e-05
-1.77259e-05
7.55852e-05
-1.77763e-05
9.32937e-05
-1.77086e-05
0.000110772
-1.74786e-05
0.000127705
-1.69334e-05
0.000144032
-1.6327e-05
0.000159565
-1.55325e-05
0.000174034
-1.44698e-05
0.000187178
-1.31439e-05
0.000198969
-1.17904e-05
0.000208995
-1.00265e-05
0.000217226
-8.23106e-06
0.000223509
-6.28345e-06
0.00022769
-4.18042e-06
0.000229742
-2.0526e-06
0.000229621
1.20732e-07
0.000227228
2.39382e-06
0.00022247
4.75724e-06
0.00021554
6.93029e-06
0.000206493
9.04658e-06
0.000195466
1.10275e-05
0.000182589
1.28769e-05
0.000168122
1.44668e-05
0.00015228
1.58421e-05
0.000135282
1.69972e-05
0.000117392
1.78907e-05
9.88656e-05
1.85259e-05
7.99473e-05
1.89183e-05
6.08789e-05
1.90684e-05
4.18863e-05
1.89926e-05
2.32206e-05
1.86657e-05
4.94909e-06
1.82715e-05
-1.27116e-05
1.76607e-05
-2.95733e-05
1.68616e-05
-4.55505e-05
1.59773e-05
-6.05546e-05
1.5004e-05
-7.45598e-05
1.40052e-05
-8.75098e-05
1.295e-05
-9.93872e-05
1.18774e-05
-0.000110218
1.08307e-05
-0.000120049
9.83122e-06
-0.000128835
8.78535e-06
-0.000136669
7.83447e-06
-0.000143552
6.88276e-06
-0.000149505
5.95309e-06
-0.000154575
5.07055e-06
-0.000158816
4.24097e-06
-0.000162251
3.43451e-06
-0.000164889
2.63772e-06
-0.000166766
1.87769e-06
-0.000167892
1.12565e-06
-0.00016838
4.87714e-07
-0.000168125
-2.54306e-07
-0.000167234
-8.91522e-07
-0.000165644
-1.5901e-06
-0.000163462
-2.18132e-06
-0.000160577
-2.88595e-06
-0.000157134
-3.44206e-06
-0.000153042
-4.0927e-06
-0.000148335
-4.70731e-06
-0.00014301
-5.32433e-06
-0.000137029
-5.98149e-06
-0.00013042
-6.60851e-06
-0.00012308
-7.3401e-06
-0.000115103
-7.97705e-06
-0.000106348
-8.75516e-06
-9.68096e-05
-9.53844e-06
-8.64726e-05
-1.0337e-05
-7.53339e-05
-1.11388e-05
-6.33807e-05
-1.19532e-05
-5.06318e-05
-1.2749e-05
-3.71155e-05
-1.35163e-05
-2.28534e-05
-1.42622e-05
-7.9041e-06
-1.49494e-05
7.68154e-06
-1.55857e-05
2.37982e-05
-1.61168e-05
4.03544e-05
-1.65563e-05
5.71988e-05
-1.68445e-05
7.4196e-05
-1.69973e-05
9.11334e-05
-1.69374e-05
0.000107821
-1.6688e-05
0.000124024
-1.62032e-05
0.000139528
-1.55033e-05
0.000154076
-1.45484e-05
0.000167436
-1.33603e-05
0.00017936
-1.19242e-05
0.00018961
-1.02499e-05
0.000197958
-8.34823e-06
0.000204257
-6.29887e-06
0.000208319
-4.06173e-06
0.000210042
-1.72313e-06
0.000209416
6.25434e-07
0.00020636
3.05619e-06
0.00020088
5.47921e-06
0.000193106
7.7743e-06
0.00018318
9.92551e-06
0.000171261
1.19195e-05
0.000157584
1.36766e-05
0.000142335
1.52496e-05
0.000125842
1.64925e-05
0.000108325
1.75172e-05
9.01303e-05
1.81942e-05
7.14713e-05
1.8659e-05
5.26499e-05
1.88214e-05
3.38945e-05
1.87554e-05
1.54277e-05
1.84667e-05
-2.57292e-06
1.80006e-05
-1.99334e-05
1.73604e-05
-3.65045e-05
1.65711e-05
-5.22174e-05
1.57128e-05
-6.70003e-05
1.4783e-05
-8.08061e-05
1.38057e-05
-9.36412e-05
1.28352e-05
-0.000105461
1.18202e-05
-0.000116251
1.07898e-05
-0.000126041
9.78967e-06
-0.000134905
8.86369e-06
-0.000142784
7.87929e-06
-0.000149722
6.93838e-06
-0.000155809
6.08618e-06
-0.000161084
5.27584e-06
-0.000165582
4.49752e-06
-0.000169398
3.81613e-06
-0.000172646
3.24794e-06
-0.000175281
2.63484e-06
-0.000177324
2.04296e-06
-0.000178762
1.43777e-06
-0.000179519
7.57106e-07
-0.000179717
1.98068e-07
-0.000179075
-6.4183e-07
-0.000177784
-1.29074e-06
-0.000175674
-2.10972e-06
-0.000172848
-2.82637e-06
-0.000169369
-3.47894e-06
-0.000165281
-4.08789e-06
-0.00016065
-4.63117e-06
-0.000155467
-5.18271e-06
-0.000149739
-5.72849e-06
-0.000143324
-6.41491e-06
-0.000136206
-7.11832e-06
-0.000128254
-7.9521e-06
-0.000119446
-8.80752e-06
-0.000109757
-9.68966e-06
-9.91948e-05
-1.05618e-05
-8.78111e-05
-1.13837e-05
-7.56165e-05
-1.21946e-05
-6.26323e-05
-1.29843e-05
-4.88906e-05
-1.37417e-05
-3.44262e-05
-1.44646e-05
-1.93403e-05
-1.50859e-05
-3.60739e-06
-1.5733e-05
1.24711e-05
-1.60785e-05
2.8985e-05
-1.6514e-05
4.57228e-05
-1.67379e-05
6.25183e-05
-1.67956e-05
7.91391e-05
-1.66208e-05
9.53799e-05
-1.6241e-05
0.000110988
-1.56086e-05
0.000125767
-1.47789e-05
0.000139486
-1.37188e-05
0.000151911
-1.24252e-05
0.000162817
-1.0906e-05
0.000171996
-9.17863e-06
0.000179245
-7.24928e-06
0.000184351
-5.10587e-06
0.000187213
-2.86219e-06
0.000187658
-4.45508e-07
0.000185674
1.98388e-06
0.000181121
4.55259e-06
0.000174182
6.93965e-06
0.000164928
9.25358e-06
0.000153574
1.13536e-05
0.000140346
1.32286e-05
0.000125499
1.48467e-05
0.000109339
1.61594e-05
9.22046e-05
1.71347e-05
7.43707e-05
1.78338e-05
5.61244e-05
1.82463e-05
3.77191e-05
1.84053e-05
1.93906e-05
1.83285e-05
1.31931e-06
1.80712e-05
-1.6331e-05
1.76503e-05
-3.34052e-05
1.70741e-05
-4.97809e-05
1.63756e-05
-6.53761e-05
1.55952e-05
-8.00891e-05
1.4713e-05
-9.38821e-05
1.3793e-05
-0.000106689
1.28073e-05
-0.000118489
1.17994e-05
-0.000129283
1.0794e-05
-0.00013907
9.787e-06
-0.00014788
8.81056e-06
-0.000155713
7.83279e-06
-0.000162585
6.8721e-06
-0.000168534
5.94833e-06
-0.000173715
5.18171e-06
-0.000178044
4.3285e-06
-0.000181501
3.4571e-06
-0.000184255
2.75349e-06
-0.000186261
2.00624e-06
-0.000187536
1.27523e-06
-0.000188039
5.0273e-07
-0.000187801
-2.37915e-07
-0.000186764
-1.03684e-06
-0.000184924
-1.84011e-06
-0.000182225
-2.69891e-06
-0.000178757
-3.46778e-06
-0.000174371
-4.38614e-06
-0.000169252
-5.11903e-06
-0.000163477
-5.77464e-06
-0.000156922
-6.55579e-06
-0.000149855
-7.0668e-06
-0.000142242
-7.61305e-06
-0.000134067
-8.17448e-06
-0.000125541
-8.5268e-06
-0.000116442
-9.09819e-06
-0.000106771
-9.67102e-06
-9.65904e-05
-1.01811e-05
-8.57494e-05
-1.08411e-05
-7.41084e-05
-1.1641e-05
-6.1815e-05
-1.22934e-05
-4.85371e-05
-1.3278e-05
-3.42986e-05
-1.42386e-05
-1.92216e-05
-1.50771e-05
-3.18432e-06
-1.60373e-05
1.35482e-05
-1.67326e-05
3.10376e-05
-1.74894e-05
4.90523e-05
-1.80148e-05
6.71993e-05
-1.8147e-05
8.54184e-05
-1.82192e-05
0.0001034
-1.79813e-05
0.000120664
-1.72644e-05
0.000137086
-1.64221e-05
0.000152294
-1.52084e-05
0.00016608
-1.37852e-05
0.000178103
-1.20236e-05
0.000188129
-1.00258e-05
0.000196022
-7.89319e-06
0.000201676
-5.65411e-06
0.000204904
-3.228e-06
0.000205689
-7.84721e-07
0.000204
1.68817e-06
0.000199947
4.0538e-06
0.000193669
6.27763e-06
0.000185186
8.48244e-06
0.000174964
1.02227e-05
0.000163051
1.19129e-05
0.000149671
1.338e-05
0.000135262
1.44089e-05
0.000119989
1.52722e-05
0.000104162
1.58272e-05
8.78543e-05
1.63078e-05
7.13383e-05
1.6516e-05
5.4906e-05
1.64322e-05
3.85326e-05
1.63734e-05
2.23816e-05
1.6151e-05
6.70805e-06
1.56736e-05
-8.67453e-06
1.53826e-05
-2.35296e-05
1.48551e-05
-3.78007e-05
1.42711e-05
-5.14705e-05
1.36698e-05
-6.44722e-05
1.30017e-05
-7.68128e-05
1.23406e-05
-8.84412e-05
1.16284e-05
-9.9324e-05
1.08829e-05
-0.000109477
1.01534e-05
-0.000118867
9.3898e-06
-0.000127469
8.60143e-06
-0.000135284
7.81507e-06
-0.000142294
7.0106e-06
-0.000148504
6.20985e-06
-0.000153896
5.39134e-06
-0.000158452
4.55678e-06
-0.000162177
3.72484e-06
-0.000165055
2.87777e-06
-0.000167069
2.01438e-06
-0.000168214
1.14494e-06
-0.000168484
2.69407e-07
-0.000167802
-6.81378e-07
-0.000166216
-1.58665e-06
-0.000163721
-2.495e-06
-0.00016035
-3.37035e-06
-4.25407e-06
9.06965e-05
-3.68231e-05
0.000109137
-3.68694e-05
0.000127161
-3.60375e-05
0.000144471
-3.46097e-05
0.000161047
-3.31399e-05
0.000176494
-3.088e-05
0.000190665
-2.83203e-05
0.00020328
-2.52009e-05
0.000214086
-2.16113e-05
0.000222882
-1.7597e-05
0.000229483
-1.3183e-05
0.000233768
-8.55343e-06
0.000235614
-3.69533e-06
0.000235006
1.19604e-06
0.00023197
6.06153e-06
0.000226459
1.10159e-05
0.000218564
1.57863e-05
0.000208605
1.99078e-05
0.000196719
2.3767e-05
0.000182904
2.76232e-05
0.000167674
3.04413e-05
0.000151201
3.29314e-05
0.000133686
3.50165e-05
0.000115521
3.63165e-05
9.68445e-05
3.73449e-05
7.79524e-05
3.77733e-05
5.899e-05
3.79142e-05
4.03132e-05
3.73415e-05
2.20606e-05
3.64951e-05
4.262e-06
3.55964e-05
-1.29058e-05
3.43312e-05
-2.9306e-05
3.27951e-05
-4.48398e-05
3.10636e-05
-5.94506e-05
2.92184e-05
-7.31232e-05
2.73423e-05
-8.58049e-05
2.53613e-05
-9.75022e-05
2.33919e-05
-0.000108246
2.14872e-05
-0.000118039
1.95857e-05
-0.00012689
1.76987e-05
-0.000134842
1.58988e-05
-0.000141917
1.41503e-05
-0.000148162
1.24943e-05
-0.000153609
1.08942e-05
-0.000158275
9.33272e-06
-0.000162186
7.8203e-06
-0.000165361
6.34582e-06
-0.000167815
4.90459e-06
-0.000169605
3.57996e-06
-0.00017071
2.21156e-06
-0.000171122
8.2462e-07
-0.000170818
-6.09038e-07
-0.000169755
-2.12924e-06
-0.000168004
-3.49871e-06
-0.000165542
-4.92865e-06
-0.000162278
-6.53063e-06
-0.000158324
-7.91161e-06
-0.000153585
-9.47844e-06
-0.000147923
-1.13295e-05
-0.000141536
-1.27688e-05
-0.000134154
-1.47631e-05
-0.000125886
-1.65346e-05
-0.000116781
-1.82105e-05
-0.000106681
-2.02086e-05
-9.56453e-05
-2.2064e-05
-8.38084e-05
-2.36715e-05
-7.09466e-05
-2.5719e-05
-5.72183e-05
-2.74522e-05
-4.26736e-05
-2.90918e-05
-2.72669e-05
-3.08069e-05
-1.12215e-05
-3.20777e-05
5.40558e-06
-3.3253e-05
2.25903e-05
-3.43611e-05
4.00597e-05
-3.49345e-05
5.77953e-05
-3.54617e-05
7.55763e-05
-3.55574e-05
9.32931e-05
-3.54256e-05
0.000110792
-3.49776e-05
0.00012773
-3.3872e-05
0.00014407
-3.26674e-05
0.000159616
-3.10783e-05
0.000174096
-2.89499e-05
0.000187247
-2.62953e-05
0.000199046
-2.35891e-05
0.000209092
-2.00726e-05
0.000217334
-1.6473e-05
0.000223625
-1.25747e-05
0.000227816
-8.37237e-06
0.000229877
-4.11362e-06
0.00022976
2.37679e-07
0.000227365
4.78897e-06
0.000222606
9.51616e-06
0.000215668
1.38679e-05
0.00020661
1.81049e-05
0.000195568
2.20693e-05
0.000182671
2.57732e-05
0.000168186
2.89525e-05
0.000152318
3.17095e-05
0.000135303
3.40119e-05
0.000117408
3.57855e-05
9.88647e-05
3.70694e-05
7.9927e-05
3.78559e-05
6.08521e-05
3.81433e-05
4.18465e-05
3.79981e-05
2.31483e-05
3.73638e-05
4.88673e-06
3.6533e-05
-1.27738e-05
3.53212e-05
-2.96478e-05
3.37355e-05
-4.56301e-05
3.19596e-05
-6.06381e-05
3.0012e-05
-7.46475e-05
2.80146e-05
-8.75929e-05
2.58954e-05
-9.9467e-05
2.37515e-05
-0.000110299
2.16626e-05
-0.000120136
1.96681e-05
-0.000128931
1.75808e-05
-0.000136769
1.56721e-05
-0.000143645
1.37591e-05
-0.000149595
1.1903e-05
-0.000154676
1.01516e-05
-0.00015892
8.48434e-06
-0.000162351
6.86554e-06
-0.000164989
5.27596e-06
-0.000166873
3.76189e-06
-0.000168009
2.26184e-06
-0.000168493
9.70977e-07
-0.000168248
-4.98761e-07
-0.00016736
-1.77994e-06
-0.000165767
-3.18326e-06
-0.000163582
-4.36649e-06
-0.000160714
-5.75362e-06
-0.00015727
-6.886e-06
-0.00015318
-8.18314e-06
-0.000148485
-9.40205e-06
-0.000143161
-1.06481e-05
-0.000137191
-1.1952e-05
-0.000130575
-1.32247e-05
-0.000123256
-1.46587e-05
-0.000115271
-1.59616e-05
-0.000106519
-1.75076e-05
-9.69787e-05
-1.9079e-05
-8.65846e-05
-2.07312e-05
-7.55036e-05
-2.22199e-05
-6.35563e-05
-2.39007e-05
-5.07847e-05
-2.55208e-05
-3.72851e-05
-2.70161e-05
-2.30171e-05
-2.85303e-05
-8.05372e-06
-2.9913e-05
7.53903e-06
-3.11787e-05
2.36697e-05
-3.22476e-05
4.02336e-05
-3.31204e-05
5.70872e-05
-3.36983e-05
7.40883e-05
-3.39986e-05
9.10393e-05
-3.38887e-05
0.000107748
-3.33969e-05
0.00012398
-3.24356e-05
0.000139502
-3.10255e-05
0.000154062
-2.91081e-05
0.000167438
-2.67369e-05
0.000179368
-2.38548e-05
0.000189625
-2.05068e-05
0.000198006
-1.67292e-05
0.000204326
-1.26185e-05
0.000208372
-8.10883e-06
0.000210109
-3.46016e-06
0.000209476
1.25897e-06
0.000206416
6.11601e-06
0.000200937
1.09573e-05
0.000193165
1.55467e-05
0.000183231
1.98589e-05
0.000171302
2.38491e-05
0.000157595
2.73834e-05
0.000142378
3.04661e-05
0.00012585
3.30206e-05
0.000108333
3.50344e-05
9.01196e-05
3.64071e-05
7.14448e-05
3.73336e-05
5.26182e-05
3.76479e-05
3.38762e-05
3.74973e-05
1.53649e-05
3.69779e-05
-2.63841e-06
3.60039e-05
-1.99933e-05
3.47153e-05
-3.65757e-05
3.31534e-05
-5.22996e-05
3.14367e-05
-6.70886e-05
2.95719e-05
-8.08948e-05
2.76119e-05
-9.37248e-05
2.56651e-05
-0.000105551
2.36469e-05
-0.000116354
2.15919e-05
-0.000126151
1.95872e-05
-0.000134998
1.77104e-05
-0.000142898
1.57791e-05
-0.000149838
1.38785e-05
-0.000155921
1.21696e-05
-0.000161195
1.05495e-05
-0.000165701
9.00357e-06
-0.000169529
7.64404e-06
-0.000172768
6.48681e-06
-0.000175402
5.26929e-06
-0.00017745
4.09028e-06
-0.000178898
2.88582e-06
-0.000179682
1.54168e-06
-0.000179861
3.77154e-07
-0.000179223
-1.28027e-06
-0.000177937
-2.57668e-06
-0.000175816
-4.23091e-06
-0.000173012
-5.63002e-06
-0.000169528
-6.96295e-06
-0.00016544
-8.17641e-06
-0.000160805
-9.26554e-06
-0.000155631
-1.03574e-05
-0.000149906
-1.14537e-05
-0.000143499
-1.28218e-05
-0.000136382
-1.42349e-05
-0.000128427
-1.59077e-05
-0.000119611
-1.76227e-05
-0.000109901
-1.94006e-05
-9.9331e-05
-2.11315e-05
-8.79822e-05
-2.27326e-05
-7.57803e-05
-2.43966e-05
-6.2786e-05
-2.59787e-05
-4.90382e-05
-2.74896e-05
-3.45816e-05
-2.89214e-05
-1.94833e-05
-3.01843e-05
-3.74775e-06
-3.14687e-05
1.23527e-05
-3.21791e-05
2.88733e-05
-3.30348e-05
4.56424e-05
-3.35071e-05
6.24428e-05
-3.35962e-05
7.90771e-05
-3.32552e-05
9.53356e-05
-3.24997e-05
0.000110962
-3.12354e-05
0.000125758
-2.95745e-05
0.000139483
-2.74442e-05
0.000151922
-2.48644e-05
0.000162848
-2.1832e-05
0.000172031
-1.83618e-05
0.000179289
-1.45074e-05
0.00018442
-1.02369e-05
0.000187288
-5.73104e-06
0.000187734
-8.91047e-07
0.00018576
3.95708e-06
0.000181194
9.11874e-06
0.000174251
1.38825e-05
0.000165006
1.84988e-05
0.000153644
2.27148e-05
0.000140382
2.64911e-05
0.000125513
2.97159e-05
0.000109347
3.23252e-05
9.21977e-05
3.42835e-05
7.43486e-05
3.56828e-05
5.60929e-05
3.65019e-05
3.76734e-05
3.68247e-05
1.93314e-05
3.66704e-05
1.23723e-06
3.61653e-05
-1.64211e-05
3.53085e-05
-3.35067e-05
3.41598e-05
-4.98861e-05
3.27549e-05
-6.54876e-05
3.11966e-05
-8.01951e-05
2.94205e-05
-9.39813e-05
2.75791e-05
-0.000106789
2.56148e-05
-0.00011859
2.36006e-05
-0.000129376
2.15802e-05
-0.00013915
1.95609e-05
-0.000147958
1.76183e-05
-0.000155791
1.56655e-05
-0.000162665
1.37467e-05
-0.00016861
1.18931e-05
-0.000173787
1.03587e-05
-0.000178127
8.66805e-06
-0.000181582
6.91234e-06
-0.000184326
5.49703e-06
-0.000186334
4.01471e-06
-0.000187611
2.55162e-06
-0.000188105
9.96949e-07
-0.000187862
-4.80895e-07
-0.000186827
-2.07184e-06
-0.000184996
-3.67123e-06
-0.000182293
-5.40204e-06
-0.000178825
-6.9357e-06
-0.000174436
-8.7744e-06
-0.000169316
-1.02392e-05
-0.000163536
-1.15547e-05
-0.000156976
-1.31162e-05
-0.00014991
-1.41325e-05
-0.000142302
-1.52208e-05
-0.000134115
-1.63623e-05
-0.000125586
-1.70552e-05
-0.000116486
-1.81981e-05
-0.000106823
-1.93349e-05
-9.665e-05
-2.03538e-05
-8.58078e-05
-2.16834e-05
-7.41737e-05
-2.32753e-05
-6.18726e-05
-2.45946e-05
-4.85952e-05
-2.65554e-05
-3.43401e-05
-2.84939e-05
-1.92668e-05
-3.01506e-05
-3.23102e-06
-3.20732e-05
1.35134e-05
-3.34772e-05
3.10125e-05
-3.49886e-05
4.90422e-05
-3.60447e-05
6.72038e-05
-3.63088e-05
8.54338e-05
-3.64493e-05
0.000103431
-3.59783e-05
0.00012071
-3.45436e-05
0.000137147
-3.28595e-05
0.000152367
-3.04289e-05
0.000166167
-2.75851e-05
0.000178206
-2.40632e-05
0.000188249
-2.00688e-05
0.000196148
-1.57925e-05
0.000201799
-1.13049e-05
0.000205031
-6.46038e-06
0.000205817
-1.57054e-06
0.000204117
3.38847e-06
0.000200057
8.11293e-06
0.000193776
1.25584e-05
0.000185283
1.69755e-05
0.000175052
2.04534e-05
0.000163127
2.3838e-05
0.000149734
2.67727e-05
0.000135312
2.88311e-05
0.000120028
3.05568e-05
0.000104193
3.16622e-05
8.7874e-05
3.26263e-05
7.13478e-05
3.30422e-05
5.49072e-05
3.28728e-05
3.85301e-05
3.27504e-05
2.23707e-05
3.23104e-05
6.69656e-06
3.13476e-05
-8.69158e-06
3.07707e-05
-2.35506e-05
2.9714e-05
-3.78267e-05
2.85473e-05
-5.15008e-05
2.73438e-05
-6.45058e-05
2.60067e-05
-7.68476e-05
2.46823e-05
-8.8476e-05
2.32568e-05
-9.9358e-05
2.17648e-05
-0.000109516
2.03114e-05
-0.000118907
1.87812e-05
-0.00012751
1.72042e-05
-0.000135326
1.56312e-05
-0.00014234
1.40241e-05
-0.000148553
1.24232e-05
-0.000153943
1.0781e-05
-0.000158497
9.11056e-06
-0.00016222
7.4479e-06
-0.000165097
5.75548e-06
-0.000167114
4.03108e-06
-0.000168257
2.28762e-06
-0.000168523
5.35476e-07
-0.000167841
-1.36349e-06
-0.000166253
-3.17439e-06
-0.000163757
-4.99116e-06
-0.000160385
-6.74197e-06
-8.50976e-06
9.07124e-05
-5.52563e-05
0.000109174
-5.53318e-05
0.000127221
-5.40841e-05
0.000144557
-5.19463e-05
0.000161163
-4.97465e-05
0.000176648
-4.63652e-05
0.000190849
-4.25215e-05
0.000203474
-3.78262e-05
0.000214304
-3.24412e-05
0.000223137
-2.64299e-05
0.000229751
-1.97975e-05
0.00023403
-1.28326e-05
0.000235874
-5.5396e-06
0.000235227
1.84239e-06
0.000232157
9.13167e-06
0.000226638
1.65351e-05
0.000218733
2.36911e-05
0.000208758
2.98824e-05
0.00019686
3.56649e-05
0.000183042
4.1441e-05
0.000167777
4.57058e-05
0.000151282
4.9427e-05
0.000133743
5.25551e-05
0.000115554
5.45054e-05
9.68656e-05
5.60332e-05
7.79562e-05
5.66826e-05
5.89786e-05
5.68918e-05
4.02796e-05
5.60405e-05
2.20096e-05
5.4765e-05
4.21322e-06
5.33927e-05
-1.29691e-05
5.15135e-05
-2.9379e-05
4.92049e-05
-4.49182e-05
4.66027e-05
-5.95332e-05
4.38335e-05
-7.32094e-05
4.10185e-05
-8.58933e-05
3.80451e-05
-9.75931e-05
3.50917e-05
-0.000108334
3.22279e-05
-0.000118125
2.93768e-05
-0.000126974
2.65476e-05
-0.000134924
2.38487e-05
-0.000142
2.12267e-05
-0.000148246
1.87405e-05
-0.000153694
1.63419e-05
-0.000158357
1.39957e-05
-0.000162264
1.17278e-05
-0.000165439
9.52052e-06
-0.000167897
7.36281e-06
-0.000169693
5.37568e-06
-0.000170794
3.31239e-06
-0.000171188
1.21865e-06
-0.000170874
-9.23169e-07
-0.000169814
-3.18954e-06
-0.000168059
-5.25276e-06
-0.000165599
-7.38874e-06
-0.000162337
-9.79273e-06
-0.000158388
-1.18612e-05
-0.000153652
-1.42145e-05
-0.000147996
-1.69855e-05
-0.000141607
-1.9158e-05
-0.00013423
-2.21394e-05
-0.00012596
-2.48048e-05
-0.000116863
-2.73082e-05
-0.000106764
-3.03071e-05
-9.57248e-05
-3.31034e-05
-8.38811e-05
-3.55153e-05
-7.10177e-05
-3.85825e-05
-5.72821e-05
-4.1188e-05
-4.2742e-05
-4.36321e-05
-2.73303e-05
-4.62187e-05
-1.12627e-05
-4.81454e-05
5.35838e-06
-4.98743e-05
2.25499e-05
-5.15528e-05
4.00329e-05
-5.24176e-05
5.77776e-05
-5.32066e-05
7.55706e-05
-5.33506e-05
9.33016e-05
-5.31567e-05
0.000110806
-5.24818e-05
0.000127767
-5.08332e-05
0.000144135
-4.90359e-05
0.00015969
-4.66333e-05
0.000174179
-4.34396e-05
0.000187344
-3.94608e-05
0.000199159
-3.54035e-05
0.000209223
-3.01369e-05
0.000217489
-2.47397e-05
0.000223779
-1.88648e-05
0.000227986
-1.25793e-05
0.000230051
-6.17829e-06
0.000229921
3.6689e-07
0.0002275
7.20963e-06
0.000222744
1.42724e-05
0.000215796
2.0816e-05
0.000206721
2.71792e-05
0.00019566
3.31306e-05
0.000182728
3.87055e-05
0.000168206
4.34745e-05
0.000152318
4.75974e-05
0.000135291
5.10383e-05
0.000117359
5.37179e-05
9.87896e-05
5.56385e-05
7.9827e-05
5.68184e-05
6.07314e-05
5.72388e-05
4.17132e-05
5.70163e-05
2.29572e-05
5.61198e-05
4.67889e-06
5.48112e-05
-1.29369e-05
5.2937e-05
-2.98442e-05
5.06428e-05
-4.58321e-05
4.79475e-05
-6.08316e-05
4.50115e-05
-7.48484e-05
4.20314e-05
-8.78045e-05
3.88515e-05
-9.96944e-05
3.56414e-05
-0.000110523
3.24908e-05
-0.000120336
2.94818e-05
-0.00012913
2.63748e-05
-0.00013695
2.34916e-05
-0.000143851
2.06604e-05
-0.000149808
1.78595e-05
-0.000154891
1.52354e-05
-0.000159124
1.27171e-05
-0.000162544
1.0285e-05
-0.000165185
7.91772e-06
-0.000167077
5.65291e-06
-0.000168224
3.40977e-06
-0.000168686
1.43297e-06
-0.000168442
-7.43679e-07
-0.000167549
-2.67274e-06
-0.000165953
-4.77874e-06
-0.000163741
-6.57903e-06
-0.000160904
-8.59078e-06
-0.00015746
-1.033e-05
-0.00015337
-1.22729e-05
-0.000148682
-1.40897e-05
-0.000143356
-1.59745e-05
-0.000137396
-1.79123e-05
-0.00013078
-1.98405e-05
-0.00012347
-2.1968e-05
-0.000115484
-2.39484e-05
-0.000106734
-2.62577e-05
-9.71949e-05
-2.86179e-05
-8.68022e-05
-3.1124e-05
-7.5721e-05
-3.33012e-05
-6.37691e-05
-3.58526e-05
-5.09386e-05
-3.83515e-05
-3.74892e-05
-4.04656e-05
-2.32151e-05
-4.28045e-05
-8.24172e-06
-4.48866e-05
7.35667e-06
-4.67772e-05
2.35005e-05
-4.83916e-05
4.00884e-05
-4.97085e-05
5.69662e-05
-5.05762e-05
7.39573e-05
-5.09899e-05
9.09233e-05
-5.08549e-05
0.000107655
-5.01291e-05
0.000123912
-4.86923e-05
0.00013945
-4.65635e-05
0.000154033
-4.36915e-05
0.000167457
-4.01616e-05
0.000179393
-3.57906e-05
0.000189656
-3.07696e-05
0.000198051
-2.51248e-05
0.000204389
-1.89569e-05
0.000208444
-1.21642e-05
0.000210196
-5.21234e-06
0.000209537
1.91848e-06
0.000206463
9.18909e-06
0.000201018
1.6403e-05
0.000193206
2.33582e-05
0.00018326
2.98047e-05
0.000171308
3.58007e-05
0.000157578
4.11136e-05
0.000142321
4.5723e-05
0.000125796
4.95455e-05
0.000108251
5.25786e-05
9.00112e-05
5.46471e-05
7.13312e-05
5.60136e-05
5.2492e-05
5.6487e-05
3.36834e-05
5.63057e-05
1.51922e-05
5.54691e-05
-2.82355e-06
5.40195e-05
-2.01909e-05
5.20826e-05
-3.67784e-05
4.97409e-05
-5.25039e-05
4.71621e-05
-6.73043e-05
4.43723e-05
-8.11151e-05
4.14227e-05
-9.39401e-05
3.849e-05
-0.000105763
3.54698e-05
-0.000116572
3.24007e-05
-0.00012638
2.93949e-05
-0.000135188
2.65194e-05
-0.000143113
2.37033e-05
-0.00015005
2.08153e-05
-0.000156131
1.82512e-05
-0.000161405
1.58231e-05
-0.000165912
1.35106e-05
-0.000169743
1.14753e-05
-0.000172966
9.70947e-06
-0.000175597
7.90075e-06
-0.00017764
6.13341e-06
-0.000179096
4.34117e-06
-0.000179906
2.35168e-06
-0.00018007
5.41597e-07
-0.00017943
-1.92005e-06
-0.000178133
-3.87397e-06
-0.000175988
-6.37598e-06
-0.000173216
-8.40254e-06
-0.000169741
-1.04372e-05
-0.000165635
-1.22827e-05
-0.000161001
-1.38994e-05
-0.00015583
-1.55292e-05
-0.000150105
-1.71785e-05
-0.000143702
-1.92247e-05
-0.000136595
-2.13421e-05
-0.000128633
-2.38695e-05
-0.000119777
-2.6479e-05
-0.000110098
-2.90799e-05
-9.95429e-05
-3.16862e-05
-8.81935e-05
-3.40822e-05
-7.59847e-05
-3.66055e-05
-6.29868e-05
-3.89767e-05
-4.92198e-05
-4.12567e-05
-3.47757e-05
-4.33656e-05
-1.96731e-05
-4.5287e-05
-3.99246e-06
-4.71495e-05
1.2184e-05
-4.83558e-05
2.87296e-05
-4.95805e-05
4.54884e-05
-5.0266e-05
6.23213e-05
-5.04293e-05
7.89848e-05
-4.99188e-05
9.52689e-05
-4.8784e-05
0.000110913
-4.68799e-05
0.000125721
-4.43825e-05
0.000139472
-4.11954e-05
0.000151927
-3.73193e-05
0.000162869
-3.27743e-05
0.000172074
-2.75667e-05
0.000179344
-2.17777e-05
0.00018449
-1.53834e-05
0.000187347
-8.58792e-06
0.000187807
-1.35126e-06
0.00018582
5.94368e-06
0.000181253
1.36864e-05
0.000174301
2.0834e-05
0.000165054
2.77454e-05
0.000153652
3.41171e-05
0.000140376
3.97665e-05
0.000125484
4.46085e-05
0.000109296
4.85131e-05
9.21168e-05
5.14622e-05
7.42405e-05
5.3559e-05
5.59583e-05
5.4784e-05
3.75158e-05
5.52671e-05
1.91783e-05
5.50078e-05
1.06233e-06
5.42812e-05
-1.66038e-05
5.29746e-05
-3.37016e-05
5.12574e-05
-5.00894e-05
4.91427e-05
-6.56882e-05
4.67954e-05
-8.0389e-05
4.41212e-05
-9.41709e-05
4.1361e-05
-0.000106973
3.84165e-05
-0.000118761
3.53891e-05
-0.000129523
3.2342e-05
-0.000139271
2.93088e-05
-0.000148092
2.64392e-05
-0.000155923
2.34965e-05
-0.000162789
2.06125e-05
-0.000168728
1.78322e-05
-0.000173887
1.55179e-05
-0.000178227
1.30076e-05
-0.000181683
1.03683e-05
-0.000184428
8.2426e-06
-0.000186426
6.01286e-06
-0.000187706
3.83182e-06
-0.000188184
1.47433e-06
-0.000187934
-7.31079e-07
-0.000186901
-3.10482e-06
-0.000185079
-5.49326e-06
-0.000182372
-8.10879e-06
-0.000178899
-1.04083e-05
-0.000174508
-1.31655e-05
-0.000169387
-1.53606e-05
-0.000163597
-1.73449e-05
-0.000157029
-1.96843e-05
-0.000149962
-2.11993e-05
-0.000142361
-2.28217e-05
-0.000134157
-2.45668e-05
-0.000125631
-2.55812e-05
-0.00011653
-2.72991e-05
-0.000106875
-2.89897e-05
-9.67153e-05
-3.05135e-05
-8.58784e-05
-3.25204e-05
-7.42588e-05
-3.4895e-05
-6.19437e-05
-3.69097e-05
-4.86702e-05
-3.98291e-05
-3.43989e-05
-4.27652e-05
-1.93302e-05
-4.52195e-05
-3.29693e-06
-4.81066e-05
1.3464e-05
-5.02382e-05
3.09788e-05
-5.25035e-05
4.90286e-05
-5.40946e-05
6.72105e-05
-5.44908e-05
8.54656e-05
-5.47045e-05
0.000103495
-5.40074e-05
0.000120797
-5.18463e-05
0.000137261
-4.93239e-05
0.000152502
-4.56694e-05
0.000166329
-4.14124e-05
0.000178398
-3.61325e-05
0.000188444
-3.01149e-05
0.000196353
-2.37016e-05
0.000202015
-1.69673e-05
0.00020525
-9.6947e-06
0.000206031
-2.35184e-06
0.000204298
5.12113e-06
0.000200228
1.21831e-05
0.00019394
1.88458e-05
0.000185429
2.54862e-05
0.000175183
3.06993e-05
0.000163238
3.57833e-05
0.000149827
4.01838e-05
0.000135381
4.32774e-05
0.000120074
4.58629e-05
0.000104227
4.75097e-05
8.78915e-05
4.89616e-05
7.13497e-05
4.95839e-05
5.48942e-05
4.93283e-05
3.85135e-05
4.9131e-05
2.23423e-05
4.84816e-05
6.66931e-06
4.70206e-05
-8.73604e-06
4.6176e-05
-2.35984e-05
4.45764e-05
-3.78779e-05
4.28267e-05
-5.15554e-05
4.10213e-05
-6.45634e-05
3.90147e-05
-7.69083e-05
3.70271e-05
-8.85406e-05
3.48892e-05
-9.9426e-05
3.26503e-05
-0.000109583
3.04688e-05
-0.000118976
2.81742e-05
-0.000127581
2.58083e-05
-0.000135399
2.34493e-05
-0.000142411
2.10363e-05
-0.000148621
1.86331e-05
-0.000154009
1.61693e-05
-0.000158563
1.36649e-05
-0.000162286
1.11706e-05
-0.000165163
8.63227e-06
-0.000167184
6.05236e-06
-0.000168328
3.43151e-06
-0.000168592
7.99147e-07
-0.000167909
-2.04583e-06
-0.000166321
-4.76279e-06
-0.000163824
-7.48781e-06
-0.000160452
-1.0114e-05
-1.27659e-05
9.07348e-05
-7.37146e-05
0.000109232
-7.38296e-05
0.000127318
-7.21697e-05
0.000144697
-6.93257e-05
0.000161345
-6.63955e-05
0.000176877
-6.1897e-05
0.000191121
-5.6766e-05
0.000203788
-5.04929e-05
0.000214652
-4.33057e-05
0.000223514
-3.52919e-05
0.000230148
-2.64323e-05
0.000234448
-1.71327e-05
0.000236275
-7.3668e-06
0.000235559
2.55826e-06
0.000232439
1.2251e-05
0.000226905
2.20689e-05
0.000218986
3.16106e-05
0.000208987
3.98814e-05
0.00019707
4.75812e-05
0.000183223
5.52878e-05
0.000167933
6.09958e-05
0.000151403
6.59573e-05
0.000133829
7.01289e-05
0.000115604
7.27299e-05
9.6897e-05
7.47403e-05
7.79619e-05
7.56177e-05
5.89631e-05
7.58905e-05
4.02298e-05
7.47737e-05
2.19349e-05
7.30599e-05
4.14036e-06
7.11872e-05
-1.30649e-05
6.87187e-05
-2.94893e-05
6.56292e-05
-4.50375e-05
6.21509e-05
-5.96577e-05
5.84536e-05
-7.33379e-05
5.46987e-05
-8.6025e-05
5.07322e-05
-9.77323e-05
4.6799e-05
-0.000108466
4.29616e-05
-0.000118255
3.91654e-05
-0.000127103
3.53959e-05
-0.000135052
3.1798e-05
-0.000142128
2.83024e-05
-0.000148372
2.4984e-05
-0.000153819
2.17889e-05
-0.000158482
1.86588e-05
-0.00016239
1.56359e-05
-0.000165567
1.26973e-05
-0.00016803
9.8259e-06
-0.000169824
7.16964e-06
-0.000170917
4.40539e-06
-0.000171289
1.59145e-06
-0.000170958
-1.2548e-06
-0.000169903
-4.24483e-06
-0.000168143
-7.01217e-06
-0.000165687
-9.84452e-06
-0.000162428
-1.30517e-05
-0.000158485
-1.58048e-05
-0.000153754
-1.89456e-05
-0.000148111
-2.26286e-05
-0.000141715
-2.55534e-05
-0.000134346
-2.95093e-05
-0.000126074
-3.30769e-05
-0.000116957
-3.64252e-05
-0.000106888
-4.03762e-05
-9.58438e-05
-4.41474e-05
-8.39945e-05
-4.73647e-05
-7.11255e-05
-5.14516e-05
-5.73789e-05
-5.49347e-05
-4.28466e-05
-5.81645e-05
-2.74251e-05
-6.16403e-05
-1.13468e-05
-6.42239e-05
5.28196e-06
-6.65032e-05
2.24876e-05
-6.87586e-05
3.99886e-05
-6.99188e-05
5.77454e-05
-7.09635e-05
7.55545e-05
-7.11599e-05
9.33119e-05
-7.09142e-05
0.000110834
-7.00042e-05
0.000127818
-6.78175e-05
0.000144228
-6.54459e-05
0.000159793
-6.2198e-05
0.000174302
-5.79493e-05
0.00018749
-5.26493e-05
0.000199318
-4.72314e-05
0.000209413
-4.02317e-05
0.00021772
-3.30466e-05
0.000223997
-2.51426e-05
0.000228233
-1.68147e-05
0.000230285
-8.23066e-06
0.000230131
5.20935e-07
0.000227684
9.65658e-06
0.000222929
1.90263e-05
0.000215961
2.77847e-05
0.000206848
3.62915e-05
0.000195726
4.42532e-05
0.000182781
5.16502e-05
0.000168216
5.8039e-05
0.000152284
6.35291e-05
0.000135238
6.8085e-05
0.000117294
7.1662e-05
9.86503e-05
7.42817e-05
7.96511e-05
7.58175e-05
6.05271e-05
7.63627e-05
4.15065e-05
7.60369e-05
2.26902e-05
7.49361e-05