/*--------------------------------*- C++ -*----------------------------------*\
| =========                 |                                                 |
| \\      /  F ield         | OpenFOAM: The Open Source CFD Toolbox           |
|  \\    /   O peration     | Version:  3.0.1                                 |
|   \\  /    A nd           | Web:      www.OpenFOAM.org                      |
|    \\/     M anipulation  |                                                 |
\*---------------------------------------------------------------------------*/
FoamFile
{
    version     2.0;
    format      ascii;
    class       volScalarField;
    location    "28";
    object      p;
}
// * * * * * * * * * * * * * * * * * * * * * * * * * * * * * * * * * * * * * //

dimensions      [1 -1 -2 0 0 0 0];

internalField   nonuniform List<scalar> 
21420
(
3643.13
3624.79
3608.06
3592.98
3579.55
3567.75
3557.53
3548.86
3541.69
3535.99
3531.71
3528.86
3527.45
3527.6
3529.14
3532.12
3536.55
3542.45
3549.85
3558.81
3569.38
3581.6
3595.54
3611.24
3628.74
3648.06
3669.21
3692.2
3716.98
3743.49
3771.66
3801.35
3832.4
3864.57
3897.59
3931.22
3965.2
3999.12
4032.58
4065.23
4096.63
4126.39
4154.09
4179.33
4201.76
4221.08
4236.97
4249.23
4257.68
4262.17
4262.56
4258.95
4251.3
4239.71
4224.34
4205.43
4183.24
4158.04
4130.22
4100.14
4068.22
4034.87
4000.5
3965.55
3930.42
3895.48
3860.96
3826.44
3793.49
3761.93
3731.9
3703.51
3676.86
3652.03
3629.07
3608.01
3588.85
3571.6
3556.22
3542.71
3531.02
3521.11
3512.95
3506.45
3501.46
3497.93
3496.36
3496.35
3497.8
3500.68
3504.95
3510.57
3517.52
3525.78
3535.36
3546.3
3558.62
3572.37
3587.59
3604.34
3622.66
3642.55
3664.03
3687.1
3711.72
3737.84
3765.37
3794.19
3824.17
3855.06
3886.64
3918.66
3950.82
3982.78
4014.17
4044.63
4073.74
4101.12
4126.35
4149.04
4168.83
4185.36
4198.33
4207.5
4212.66
4213.6
4210.43
4203.04
4191.55
4176.09
4156.91
4134.29
4108.59
4080.18
4049.49
4016.97
3983.08
3948.27
3913.01
3877.73
3842.84
3808.7
3775.74
3744.05
3713.96
3685.62
3659.17
3634.66
3612.12
3591.54
3572.89
3556.1
3541.1
3527.82
3516.17
3506.08
3497.45
3490.22
3484.32
3479.69
3476.29
3474.09
3473.1
3473.27
3474.63
3477.2
3481.01
3486.1
3492.5
3500.26
3509.43
3520.05
3532.18
3545.86
3561.14
3578.06
3596.65
3616.94
3638.94
3662.64
3688
3714.98
3743.48
3773.34
3804.38
3836.36
3869.01
3902.04
3935.08
3967.76
3999.66
4030.37
4059.46
4086.5
4111.08
4132.82
4151.37
4166.42
4177.72
4185.07
4188.29
4187.42
4182.39
4173.33
4160.33
4143.64
4123.52
4100.29
4074.31
4045.97
4015.69
3983.91
3951.04
3917.52
3883.74
3850.1
3816.94
3784.6
3753.37
3723.42
3694.95
3668.14
3643.07
3619.83
3598.44
3578.92
3561.26
3545.44
3531.41
3519.13
3508.54
3499.58
3492.21
3486.36
3481.98
3479.03
3477.47
3477.28
3478.43
3480.88
3484.63
3489.68
3496.03
3503.69
3512.68
3523.04
3534.78
3547.94
3562.56
3578.68
3596.31
3615.48
3636.19
3658.46
3682.27
3707.57
3734.33
3762.46
3791.88
3822.4
3853.83
3885.94
3918.46
3951.08
3983.44
4015.15
4045.81
4075
4102.32
4127.36
4149.74
4169.09
4185.1
4197.53
4206.12
4210.66
4211.23
4208.31
4201.48
4190.72
4176.35
4158.72
4138.09
4114.78
4089.17
4061.61
4032.51
4002.27
3971.25
3939.84
3908.41
3877.28
3846.95
3820.15
3794.41
3769.26
3744.86
3721.66
3699.9
3679.67
3661.06
3644.06
3628.66
3614.86
3602.6
3591.84
3582.56
3574.71
3568.24
3563.11
3559.29
3556.74
3555.48
3555.48
3556.92
3559.65
3563.73
3569.18
3576.04
3584.36
3594.2
3605.61
3618.62
3633.28
3649.6
3667.6
3687.27
3708.59
3731.5
3755.94
3781.82
3809.01
3837.39
3866.8
3897.03
3927.88
3959.09
3990.39
4021.5
4052.07
4081.79
4110.34
4137.39
4162.62
4185.68
4206.29
4224.16
4239.03
4250.68
4258.89
4263.53
4264.44
4261.63
4254.93
4244.41
4230.38
4213.11
3544.96
3526.62
3509.89
3494.81
3481.39
3469.59
3459.37
3450.7
3443.53
3437.83
3433.55
3430.7
3429.29
3429.45
3430.99
3433.96
3438.39
3444.28
3451.69
3460.65
3471.21
3483.43
3497.37
3513.07
3530.56
3549.88
3571.03
3594.01
3618.8
3645.31
3673.48
3703.18
3734.23
3766.41
3799.44
3833.08
3867.07
3901.01
3934.49
3967.15
3998.58
4028.35
4056.07
4081.32
4103.78
4123.1
4139.01
4151.28
4159.73
4164.23
4164.63
4161
4153.35
4141.75
4126.37
4107.45
4085.24
4060.03
4032.18
4002.09
3970.15
3936.78
3902.4
3867.43
3832.28
3797.34
3762.8
3728.27
3695.32
3663.75
3633.72
3605.33
3578.67
3553.85
3530.89
3509.82
3490.68
3473.42
3458.05
3444.54
3432.85
3422.94
3414.79
3408.29
3403.3
3399.78
3398.21
3398.2
3399.65
3402.53
3406.8
3412.42
3419.36
3427.62
3437.2
3448.14
3460.46
3474.2
3489.43
3506.17
3524.48
3544.38
3565.86
3588.93
3613.55
3639.67
3667.2
3696.03
3726.01
3756.91
3788.5
3820.53
3852.7
3884.67
3916.09
3946.56
3975.69
4003.09
4028.34
4051.05
4070.85
4087.39
4100.38
4109.55
4114.72
4115.67
4112.48
4105.1
4093.59
4078.13
4058.94
4036.3
4010.58
3982.15
3951.44
3918.9
3884.98
3850.16
3814.89
3779.59
3744.68
3710.53
3677.56
3645.87
3615.77
3587.44
3560.98
3536.47
3513.93
3493.36
3474.71
3457.92
3442.93
3429.65
3418.01
3407.92
3399.3
3392.07
3386.17
3381.54
3378.14
3375.94
3374.95
3375.12
3376.48
3379.05
3382.86
3387.95
3394.35
3402.1
3411.27
3421.89
3434.02
3447.69
3462.97
3479.89
3498.48
3518.76
3540.76
3564.46
3589.82
3616.8
3645.31
3675.18
3706.22
3738.21
3770.87
3803.91
3836.97
3869.66
3901.59
3932.31
3961.42
3988.48
4013.07
4034.83
4053.4
4068.46
4079.77
4087.13
4090.36
4089.47
4084.44
4075.38
4062.37
4045.67
4025.53
4002.28
3976.28
3947.92
3917.63
3885.82
3852.94
3819.4
3785.61
3751.96
3718.79
3686.43
3655.2
3625.24
3596.77
3569.96
3544.89
3521.65
3500.26
3480.74
3463.09
3447.26
3433.24
3420.96
3410.37
3401.42
3394.05
3388.2
3383.83
3380.88
3379.31
3379.12
3380.27
3382.72
3386.48
3391.52
3397.87
3405.53
3414.53
3424.88
3436.62
3449.78
3464.4
3480.51
3498.14
3517.31
3538.03
3560.29
3584.1
3609.4
3636.17
3664.3
3693.72
3724.25
3755.68
3787.8
3820.34
3852.97
3885.34
3917.07
3947.75
3976.96
4004.3
4029.35
4051.75
4071.11
4087.14
4099.58
4108.18
4112.74
4113.31
4110.38
4103.53
4092.77
4078.39
4060.75
4040.1
4016.77
3991.15
3963.57
3934.44
3904.18
3873.15
3841.73
3810.27
3779.12
3748.78
3722.02
3696.26
3671.1
3646.69
3623.49
3601.72
3581.5
3562.89
3545.89
3530.5
3516.69
3504.43
3493.68
3484.41
3476.55
3470.08
3464.96
3461.14
3458.59
3457.33
3457.34
3458.77
3461.5
3465.57
3471.02
3477.89
3486.2
3496.04
3507.44
3520.45
3535.11
3551.43
3569.43
3589.1
3610.42
3633.32
3657.77
3683.65
3710.85
3739.23
3768.64
3798.88
3829.75
3860.97
3892.28
3923.39
3953.98
3983.71
4012.28
4039.35
4064.59
4087.67
4108.28
4126.17
4141.06
4152.71
4160.93
4165.58
4166.5
4163.66
4156.96
4146.44
4132.41
4115.12
3446.7
3428.37
3411.65
3396.57
3383.15
3371.36
3361.15
3352.48
3345.32
3339.62
3335.34
3332.49
3331.07
3331.23
3332.78
3335.75
3340.18
3346.06
3353.46
3362.42
3372.97
3385.19
3399.12
3414.81
3432.3
3451.62
3472.76
3495.75
3520.53
3547.05
3575.22
3604.93
3635.99
3668.19
3701.24
3734.91
3768.92
3802.89
3836.4
3869.1
3900.56
3930.37
3958.13
3983.41
4005.9
4025.25
4041.19
4053.47
4061.94
4066.45
4066.86
4063.2
4055.55
4043.93
4028.54
4009.59
3987.34
3962.1
3934.22
3904.09
3872.11
3838.71
3804.29
3769.29
3734.12
3699.14
3664.58
3630.04
3597.08
3565.5
3535.46
3507.06
3480.41
3455.58
3432.63
3411.56
3392.42
3375.17
3359.8
3346.3
3334.61
3324.71
3316.55
3310.06
3305.08
3301.59
3300
3299.99
3301.44
3304.33
3308.6
3314.22
3321.16
3329.41
3338.99
3349.92
3362.23
3375.98
3391.19
3407.94
3426.24
3446.13
3467.61
3490.68
3515.3
3541.43
3568.96
3597.8
3627.8
3658.71
3690.32
3722.37
3754.57
3786.57
3818.01
3848.52
3877.69
3905.12
3930.4
3953.15
3972.98
3989.56
4002.57
4011.76
4016.94
4017.92
4014.7
4007.31
3995.79
3980.31
3961.08
3938.42
3912.65
3884.18
3853.43
3820.85
3786.9
3752.05
3716.74
3681.41
3646.47
3612.3
3579.31
3547.61
3517.5
3489.16
3462.7
3438.2
3415.66
3395.09
3376.45
3359.67
3344.69
3331.42
3319.79
3309.7
3301.08
3293.86
3287.97
3283.35
3279.94
3277.75
3276.76
3276.93
3278.29
3280.85
3284.66
3289.74
3296.14
3303.89
3313.05
3323.67
3335.79
3349.46
3364.73
3381.64
3400.23
3420.51
3442.5
3466.2
3491.57
3518.55
3547.06
3576.95
3608
3640.01
3672.7
3705.76
3738.85
3771.58
3803.54
3834.3
3863.44
3890.54
3915.17
3936.96
3955.56
3970.65
3981.98
3989.35
3992.6
3991.69
3986.65
3977.57
3964.55
3947.82
3927.65
3904.36
3878.33
3849.93
3819.6
3787.76
3754.84
3721.27
3687.45
3653.77
3620.58
3588.2
3556.96
3526.99
3498.51
3471.69
3446.62
3423.38
3401.99
3382.48
3364.83
3349.01
3334.99
3322.72
3312.14
3303.19
3295.83
3289.98
3285.61
3282.66
3281.11
3280.92
3282.07
3284.52
3288.27
3293.32
3299.67
3307.33
3316.32
3326.66
3338.4
3351.56
3366.18
3382.29
3399.91
3419.07
3439.79
3462.05
3485.86
3511.17
3537.93
3566.07
3595.5
3626.04
3657.49
3689.63
3722.19
3754.85
3787.25
3819.01
3849.72
3878.98
3906.35
3931.44
3953.87
3973.27
3989.33
4001.79
4010.4
4014.99
4015.58
4012.6
4005.73
3994.96
3980.57
3962.9
3942.22
3918.86
3893.19
3865.58
3836.41
3806.12
3775.05
3743.59
3712.1
3680.9
3650.53
3623.85
3598.07
3572.88
3548.45
3525.24
3503.47
3483.25
3464.64
3447.64
3432.26
3418.46
3406.21
3395.46
3386.19
3378.34
3371.87
3366.75
3362.94
3360.4
3359.13
3359.14
3360.56
3363.3
3367.37
3372.81
3379.67
3387.98
3397.81
3409.21
3422.22
3436.87
3453.19
3471.18
3490.86
3512.17
3535.08
3559.53
3585.42
3612.62
3641.02
3670.44
3700.69
3731.58
3762.82
3794.15
3825.29
3855.9
3885.66
3914.27
3941.36
3966.63
3989.74
4010.38
4028.29
4043.2
4054.87
4063.11
4067.77
4068.71
4065.84
4059.14
4048.61
4034.56
4017.25
3348.38
3330.05
3313.33
3298.26
3284.85
3273.06
3262.86
3254.2
3247.04
3241.35
3237.08
3234.23
3232.79
3232.96
3234.51
3237.48
3241.9
3247.78
3255.17
3264.12
3274.67
3286.88
3300.8
3316.48
3333.96
3353.27
3374.42
3397.4
3422.18
3448.7
3476.89
3506.61
3537.69
3569.91
3602.98
3636.69
3670.74
3704.75
3738.32
3771.07
3802.58
3832.45
3860.26
3885.6
3908.13
3927.53
3943.5
3955.82
3964.3
3968.82
3969.25
3965.57
3957.9
3946.26
3930.83
3911.84
3889.55
3864.25
3836.32
3806.14
3774.11
3740.64
3706.17
3671.13
3635.91
3600.9
3566.31
3531.75
3498.76
3467.17
3437.12
3408.72
3382.06
3357.23
3334.28
3313.22
3294.08
3276.84
3261.48
3247.98
3236.31
3226.41
3218.26
3211.76
3206.8
3203.35
3201.75
3201.73
3203.18
3206.07
3210.34
3215.96
3222.9
3231.15
3240.72
3251.64
3263.95
3277.69
3292.9
3309.63
3327.93
3347.82
3369.29
3392.36
3416.99
3443.11
3470.66
3499.51
3529.52
3560.46
3592.1
3624.19
3656.42
3688.46
3719.95
3750.51
3779.73
3807.22
3832.56
3855.36
3875.24
3891.86
3904.91
3914.13
3919.33
3920.33
3917.09
3909.69
3898.14
3882.62
3863.35
3840.64
3814.82
3786.29
3755.48
3722.84
3688.83
3653.92
3618.56
3583.18
3548.21
3514
3480.98
3449.26
3419.14
3390.8
3364.34
3339.83
3317.31
3296.75
3278.11
3261.35
3246.38
3233.12
3221.5
3211.42
3202.82
3195.6
3189.72
3185.1
3181.7
3179.51
3178.51
3178.68
3180.04
3182.61
3186.41
3191.48
3197.87
3205.62
3214.77
3225.38
3237.49
3251.16
3266.42
3283.33
3301.9
3322.18
3344.17
3367.87
3393.24
3420.22
3448.75
3478.65
3509.72
3541.76
3574.48
3607.59
3640.72
3673.5
3705.51
3736.33
3765.53
3792.68
3817.37
3839.21
3857.85
3872.98
3884.34
3891.73
3895
3894.07
3889.02
3879.92
3866.87
3850.09
3829.88
3806.54
3780.45
3752
3721.61
3689.71
3656.74
3623.12
3589.26
3555.54
3522.31
3489.91
3458.65
3428.66
3400.17
3373.35
3348.27
3325.03
3303.65
3284.14
3266.5
3250.69
3236.68
3224.41
3213.84
3204.9
3197.54
3191.71
3187.34
3184.4
3182.84
3182.67
3183.81
3186.27
3190.02
3195.07
3201.41
3209.06
3218.05
3228.39
3240.13
3253.28
3267.89
3283.99
3301.61
3320.77
3341.48
3363.74
3387.55
3412.86
3439.63
3467.78
3497.22
3527.78
3559.25
3591.42
3624.02
3656.71
3689.16
3720.98
3751.74
3781.05
3808.48
3833.62
3856.11
3875.55
3891.65
3904.14
3912.79
3917.41
3918.02
3915
3908.09
3897.31
3882.89
3865.18
3844.45
3821.03
3795.31
3767.64
3738.42
3708.07
3676.94
3645.44
3613.89
3582.62
3552.2
3525.67
3499.83
3474.59
3450.13
3426.91
3405.14
3384.92
3366.32
3349.33
3333.95
3320.16
3307.92
3297.18
3287.92
3280.07
3273.61
3268.5
3264.69
3262.15
3260.88
3260.89
3262.31
3265.04
3269.11
3274.55
3281.4
3289.7
3299.52
3310.91
3323.91
3338.56
3354.87
3372.87
3392.54
3413.86
3436.77
3461.22
3487.12
3514.34
3542.74
3572.18
3602.46
3633.37
3664.64
3696
3727.19
3757.84
3787.64
3816.29
3843.42
3868.74
3891.89
3912.58
3930.52
3945.47
3957.17
3965.43
3970.1
3971.07
3968.17
3961.46
3950.91
3936.84
3919.49
3249.97
3231.65
3214.94
3199.88
3186.48
3174.7
3164.51
3155.86
3148.71
3143.02
3138.76
3135.91
3134.46
3134.64
3136.18
3139.15
3143.57
3149.44
3156.82
3165.76
3176.3
3188.49
3202.4
3218.07
3235.55
3254.85
3275.98
3298.96
3323.75
3350.28
3378.47
3408.21
3439.32
3471.57
3504.68
3538.43
3572.54
3606.61
3640.24
3673.06
3704.65
3734.59
3762.47
3787.88
3810.48
3829.93
3845.95
3858.31
3866.82
3871.35
3871.8
3868.09
3860.4
3848.73
3833.26
3814.21
3791.86
3766.5
3738.5
3708.24
3676.13
3642.6
3608.06
3572.95
3537.67
3502.61
3467.97
3433.39
3400.38
3368.77
3338.7
3310.29
3283.63
3258.8
3235.86
3214.8
3195.67
3178.44
3163.09
3149.6
3137.93
3128.04
3119.9
3113.41
3108.47
3105.05
3103.44
3103.42
3104.87
3107.76
3112.03
3117.65
3124.58
3132.83
3142.39
3153.31
3165.61
3179.33
3194.53
3211.26
3229.55
3249.43
3270.9
3293.97
3318.59
3344.73
3372.28
3401.15
3431.19
3462.16
3493.84
3525.97
3558.25
3590.35
3621.91
3652.53
3681.83
3709.38
3734.8
3757.67
3777.61
3794.29
3807.39
3816.65
3821.87
3822.89
3819.64
3812.23
3800.65
3785.08
3765.75
3742.96
3717.07
3688.46
3657.57
3624.85
3590.76
3555.78
3520.35
3484.92
3449.89
3415.64
3382.58
3350.84
3320.7
3292.35
3265.89
3241.39
3218.87
3198.32
3179.7
3162.95
3147.99
3134.75
3123.15
3113.09
3104.49
3097.29
3091.41
3086.8
3083.41
3081.23
3080.23
3080.4
3081.75
3084.31
3088.11
3093.17
3099.55
3107.29
3116.43
3127.03
3139.13
3152.79
3168.04
3184.94
3203.51
3223.77
3245.76
3269.45
3294.83
3321.82
3350.36
3380.28
3411.39
3443.46
3476.23
3509.39
3542.58
3575.42
3607.5
3638.4
3667.67
3694.9
3719.66
3741.57
3760.27
3775.45
3786.85
3794.26
3797.56
3796.62
3791.56
3782.42
3769.32
3752.49
3732.22
3708.81
3682.64
3654.11
3623.65
3591.68
3558.64
3524.95
3491.03
3457.26
3423.99
3391.55
3360.27
3330.25
3301.75
3274.92
3249.84
3226.6
3205.22
3185.72
3168.09
3152.29
3138.29
3126.03
3115.47
3106.55
3099.2
3093.37
3089.01
3086.08
3084.53
3084.36
3085.5
3087.96
3091.71
3096.76
3103.1
3110.75
3119.73
3130.07
3141.79
3154.94
3169.54
3185.63
3203.25
3222.4
3243.11
3265.37
3289.17
3314.48
3341.26
3369.42
3398.88
3429.46
3460.97
3493.17
3525.82
3558.57
3591.08
3622.96
3653.8
3683.18
3710.68
3735.9
3758.45
3777.96
3794.12
3806.66
3815.34
3820
3820.62
3817.57
3810.62
3799.81
3785.35
3767.58
3746.79
3723.3
3697.51
3669.76
3640.46
3610.04
3578.84
3547.26
3515.64
3484.28
3453.79
3427.45
3401.54
3376.23
3351.75
3328.51
3306.74
3286.52
3267.93
3250.95
3235.58
3221.8
3209.57
3198.84
3189.58
3181.75
3175.3
3170.19
3166.39
3163.85
3162.59
3162.59
3164.01
3166.74
3170.8
3176.22
3183.07
3191.36
3201.17
3212.55
3225.54
3240.18
3256.49
3274.48
3294.15
3315.47
3338.38
3362.84
3388.75
3415.98
3444.41
3473.88
3504.18
3535.12
3566.43
3597.85
3629.08
3659.79
3689.65
3718.35
3745.54
3770.92
3794.13
3814.87
3832.87
3847.86
3859.6
3867.89
3872.58
3873.56
3870.65
3863.92
3853.36
3839.24
3821.85
3151.49
3133.18
3116.48
3101.43
3088.04
3076.28
3066.1
3057.46
3050.32
3044.64
3040.38
3037.54
3036.08
3036.26
3037.8
3040.77
3045.18
3051.04
3058.41
3067.33
3077.85
3090.04
3103.93
3119.59
3137.05
3156.34
3177.47
3200.45
3225.24
3251.77
3279.98
3309.74
3340.88
3373.16
3406.33
3440.14
3474.32
3508.46
3542.17
3575.08
3606.76
3636.79
3664.76
3690.26
3712.94
3732.46
3748.54
3760.94
3769.49
3774.04
3774.49
3770.78
3763.06
3751.35
3735.82
3716.71
3694.28
3668.83
3640.73
3610.38
3578.18
3544.56
3509.93
3474.75
3439.4
3404.27
3369.58
3334.97
3301.92
3270.28
3240.2
3211.78
3185.12
3160.29
3137.35
3116.3
3097.18
3079.96
3064.62
3051.14
3039.49
3029.61
3021.47
3015
3010.08
3006.69
3005.08
3005.05
3006.5
3009.39
3013.67
3019.28
3026.22
3034.46
3044.01
3054.92
3067.2
3080.92
3096.1
3112.82
3131.1
3150.97
3172.43
3195.5
3220.13
3246.27
3273.84
3302.73
3332.81
3363.81
3395.53
3427.72
3460.07
3492.24
3523.88
3554.59
3583.97
3611.62
3637.12
3660.08
3680.11
3696.86
3710.03
3719.33
3724.58
3725.62
3722.37
3714.92
3703.3
3687.67
3668.27
3645.4
3619.41
3590.71
3559.71
3526.89
3492.71
3457.63
3422.12
3386.61
3351.52
3317.21
3284.11
3252.33
3222.18
3193.81
3167.35
3142.85
3120.34
3099.81
3081.21
3064.48
3049.54
3036.32
3024.73
3014.69
3006.11
2998.93
2993.06
2988.46
2985.07
2982.89
2981.89
2982.06
2983.41
2985.96
2989.75
2994.81
3001.18
3008.9
3018.03
3028.62
3040.71
3054.35
3069.59
3086.47
3105.03
3125.29
3147.27
3170.96
3196.34
3223.35
3251.9
3281.85
3312.99
3345.11
3377.94
3411.16
3444.43
3477.36
3509.53
3540.51
3569.88
3597.2
3622.06
3644.05
3662.83
3678.07
3689.52
3696.96
3700.27
3699.33
3694.25
3685.07
3671.92
3655.02
3634.66
3611.17
3584.91
3556.29
3525.73
3493.66
3460.54
3426.77
3392.78
3358.94
3325.62
3293.12
3261.82
3231.77
3203.25
3176.4
3151.33
3128.08
3106.71
3087.22
3069.6
3053.81
3039.83
3027.59
3017.04
3008.13
3000.79
2994.98
2990.63
2987.7
2986.16
2985.99
2987.14
2989.6
2993.36
2998.4
3004.74
3012.38
3021.36
3031.68
3043.4
3056.53
3071.13
3087.21
3104.82
3123.96
3144.66
3166.92
3190.72
3216.04
3242.82
3271
3300.48
3331.09
3362.63
3394.89
3427.59
3460.41
3493
3524.97
3555.89
3585.37
3612.96
3638.27
3660.91
3680.51
3696.73
3709.33
3718.06
3722.75
3723.39
3720.32
3713.32
3702.46
3687.95
3670.12
3649.24
3625.67
3599.78
3571.93
3542.54
3512.02
3480.73
3449.07
3417.35
3385.89
3355.28
3329.23
3303.21
3277.81
3253.28
3230.03
3208.26
3188.05
3169.46
3152.49
3137.14
3123.37
3111.15
3100.44
3091.19
3083.37
3076.93
3071.83
3068.03
3065.51
3064.25
3064.25
3065.66
3068.38
3072.43
3077.85
3084.68
3092.96
3102.76
3114.12
3127.1
3141.73
3158.03
3176.02
3195.68
3217
3239.93
3264.4
3290.32
3317.57
3346.02
3375.52
3405.86
3436.84
3468.2
3499.68
3530.97
3561.75
3591.67
3620.45
3647.72
3673.17
3696.45
3717.26
3735.32
3750.37
3762.16
3770.49
3775.21
3776.21
3773.28
3766.53
3755.93
3741.77
3724.32
3052.93
3034.63
3017.95
3002.91
2989.54
2977.79
2967.62
2958.99
2951.87
2946.2
2941.95
2939.11
2937.65
2937.83
2939.37
2942.33
2946.73
2952.58
2959.93
2968.84
2979.35
2991.51
3005.39
3021.03
3038.47
3057.75
3078.87
3101.85
3126.64
3153.18
3181.41
3211.2
3242.37
3274.7
3307.92
3341.8
3376.06
3410.3
3444.11
3477.12
3508.9
3539.05
3567.13
3592.73
3615.5
3635.12
3651.27
3663.73
3672.31
3676.88
3677.35
3673.63
3665.87
3654.1
3638.51
3619.32
3596.8
3571.24
3543.04
3512.58
3480.27
3446.53
3411.8
3376.52
3341.09
3305.88
3271.12
3236.48
3203.39
3171.72
3141.62
3113.19
3086.52
3061.69
3038.75
3017.72
2998.61
2981.4
2966.08
2952.62
2940.98
2931.11
2922.99
2916.52
2911.64
2908.28
2906.67
2906.63
2908.09
2910.98
2915.25
2920.87
2927.8
2936.03
2945.57
2956.47
2968.74
2982.44
2997.61
3014.31
3032.57
3052.43
3073.89
3096.96
3121.59
3147.74
3175.33
3204.25
3234.36
3265.41
3297.19
3329.45
3361.87
3394.13
3425.86
3456.67
3486.16
3513.92
3539.53
3562.59
3582.72
3599.57
3612.81
3622.17
3627.46
3628.51
3625.26
3617.78
3606.11
3590.41
3570.92
3547.94
3521.84
3493.02
3461.9
3428.96
3394.66
3359.47
3323.86
3288.26
3253.09
3218.72
3185.56
3153.74
3123.56
3095.18
3068.72
3044.23
3021.73
3001.22
2982.64
2965.93
2951.02
2937.82
2926.26
2916.24
2907.68
2900.51
2894.66
2890.07
2886.69
2884.51
2883.51
2883.68
2885.02
2887.57
2891.35
2896.39
2902.75
2910.46
2919.58
2930.15
2942.22
2955.85
2971.07
2987.94
3006.48
3026.73
3048.7
3072.39
3097.77
3124.79
3153.37
3183.35
3214.54
3246.71
3279.61
3312.91
3346.27
3379.29
3411.57
3442.67
3472.15
3499.59
3524.55
3546.65
3565.51
3580.83
3592.34
3599.82
3603.14
3602.21
3597.1
3587.87
3574.65
3557.67
3537.22
3513.62
3487.25
3458.51
3427.84
3395.67
3362.43
3328.57
3294.49
3260.58
3227.19
3194.63
3163.3
3133.21
3104.67
3077.81
3052.73
3029.49
3008.12
2988.64
2971.03
2955.26
2941.3
2929.07
2918.54
2909.65
2902.33
2896.52
2892.19
2889.27
2887.74
2887.58
2888.73
2891.19
2894.95
2899.99
2906.32
2913.96
2922.93
2933.24
2944.95
2958.07
2972.65
2988.73
3006.32
3025.46
3046.15
3068.4
3092.2
3117.52
3144.32
3172.51
3202.02
3232.66
3264.25
3296.57
3329.34
3362.24
3394.92
3426.99
3458.02
3487.61
3515.32
3540.74
3563.49
3583.18
3599.48
3612.15
3620.94
3625.67
3626.33
3623.23
3616.18
3605.27
3590.7
3572.78
3551.8
3528.12
3502.12
3474.16
3444.65
3414.02
3382.62
3350.86
3319.03
3287.43
3256.66
3231
3204.83
3179.33
3154.75
3131.48
3109.7
3089.5
3070.92
3053.97
3038.63
3024.88
3012.68
3001.98
2992.75
2984.94
2978.51
2973.42
2969.63
2967.12
2965.86
2965.85
2967.26
2969.98
2974.01
2979.42
2986.23
2994.5
3004.28
3015.63
3028.6
3043.21
3059.5
3077.48
3097.15
3118.47
3141.4
3165.88
3191.82
3219.09
3247.57
3277.1
3307.49
3338.53
3369.95
3401.49
3432.86
3463.72
3493.73
3522.59
3549.95
3575.48
3598.86
3619.75
3637.89
3653.01
3664.85
3673.23
3677.98
3678.99
3676.07
3669.28
3658.65
3644.43
3626.9
2954.29
2936.01
2919.34
2904.32
2890.97
2879.24
2869.09
2860.47
2853.36
2847.7
2843.47
2840.63
2839.17
2839.34
2840.88
2843.84
2848.22
2854.05
2861.39
2870.28
2880.77
2892.91
2906.77
2922.39
2939.82
2959.08
2980.19
3003.16
3027.96
3054.51
3082.76
3112.58
3143.79
3176.17
3209.46
3243.43
3277.78
3312.13
3346.05
3379.18
3411.09
3441.37
3469.58
3495.3
3518.19
3537.9
3554.14
3566.66
3575.3
3579.89
3580.36
3576.63
3568.83
3557.01
3541.34
3522.05
3499.42
3473.75
3445.42
3414.82
3382.38
3348.52
3313.67
3278.27
3242.74
3207.44
3172.61
3137.92
3104.79
3073.09
3042.96
3014.51
2987.84
2963.01
2940.08
2919.05
2899.96
2882.77
2867.46
2854.02
2842.4
2832.55
2824.44
2817.99
2813.13
2809.82
2808.19
2808.16
2809.61
2812.51
2816.79
2822.4
2829.32
2837.55
2847.08
2857.96
2870.21
2883.89
2899.05
2915.73
2933.98
2953.83
2975.28
2998.34
3022.98
3049.14
3076.75
3105.7
3135.86
3166.96
3198.81
3231.14
3263.65
3296.01
3327.85
3358.78
3388.4
3416.28
3442.02
3465.21
3485.46
3502.41
3515.73
3525.17
3530.5
3531.57
3528.32
3520.8
3509.07
3493.28
3473.69
3450.6
3424.36
3395.4
3364.14
3331.06
3296.62
3261.3
3225.57
3189.86
3154.6
3120.16
3086.93
3055.07
3024.86
2996.47
2970
2945.52
2923.04
2902.54
2883.99
2867.31
2852.42
2839.26
2827.72
2817.72
2809.19
2802.04
2796.21
2791.63
2788.26
2786.09
2785.09
2785.25
2786.59
2789.13
2792.89
2797.92
2804.26
2811.96
2821.06
2831.61
2843.67
2857.27
2872.48
2889.33
2907.86
2928.09
2950.06
2973.74
2999.13
3026.16
3054.76
3084.79
3116.03
3148.26
3181.24
3214.63
3248.1
3281.24
3313.64
3344.87
3374.49
3402.05
3427.14
3449.36
3468.33
3483.74
3495.31
3502.85
3506.19
3505.26
3500.11
3490.82
3477.53
3460.46
3439.89
3416.17
3389.66
3360.79
3329.99
3297.69
3264.33
3230.35
3196.17
3162.17
3128.7
3096.08
3064.7
3034.57
3006
2979.13
2954.04
2930.8
2909.45
2889.98
2872.39
2856.64
2842.69
2830.49
2819.98
2811.1
2803.8
2798.01
2793.69
2790.79
2789.27
2789.11
2790.27
2792.73
2796.49
2801.53
2807.86
2815.49
2824.44
2834.75
2846.44
2859.55
2874.12
2890.18
2907.76
2926.88
2947.57
2969.81
2993.62
3018.94
3045.75
3073.96
3103.49
3134.18
3165.83
3198.21
3231.06
3264.06
3296.85
3329.04
3360.19
3389.91
3417.76
3443.3
3466.17
3485.97
3502.38
3515.13
3523.98
3528.76
3529.43
3526.31
3519.21
3508.24
3493.58
3475.56
3454.47
3430.67
3404.53
3376.44
3346.79
3316.04
3284.51
3252.64
3220.67
3188.92
3157.93
3132.78
3106.39
3080.77
3056.14
3032.85
3011.07
2990.87
2972.31
2955.37
2940.05
2926.32
2914.14
2903.46
2894.24
2886.45
2880.03
2874.95
2871.18
2868.67
2867.42
2867.41
2868.81
2871.52
2875.54
2880.93
2887.73
2895.97
2905.73
2917.07
2930.02
2944.62
2960.9
2978.88
2998.54
3019.86
3042.8
3067.29
3093.25
3120.55
3149.07
3178.64
3209.07
3240.17
3271.66
3303.29
3334.75
3365.7
3395.81
3424.77
3452.23
3477.87
3501.35
3522.34
3540.57
3555.77
3567.68
3576.11
3580.9
3581.93
3579
3572.18
3561.5
3547.21
3529.6
2855.58
2837.31
2820.67
2805.67
2792.33
2780.62
2770.49
2761.89
2754.79
2749.15
2744.93
2742.1
2740.64
2740.81
2742.34
2745.28
2749.65
2755.47
2762.79
2771.66
2782.12
2794.24
2808.07
2823.67
2841.08
2860.33
2881.43
2904.39
2929.19
2955.75
2984.02
3013.88
3045.14
3077.58
3110.95
3145.01
3179.47
3213.94
3247.99
3281.27
3313.32
3343.75
3372.1
3397.97
3420.98
3440.81
3457.14
3469.75
3478.44
3483.06
3483.54
3479.79
3471.94
3460.06
3444.29
3424.9
3402.15
3376.33
3347.86
3317.11
3284.52
3250.52
3215.53
3180.01
3144.35
3108.96
3074.03
3039.3
3006.11
2974.37
2944.22
2915.76
2889.08
2864.25
2841.32
2820.31
2801.23
2784.06
2768.77
2755.35
2743.75
2733.92
2725.83
2719.4
2714.58
2711.31
2709.67
2709.63
2711.09
2713.99
2718.27
2723.88
2730.8
2739.01
2748.53
2759.39
2771.63
2785.29
2800.42
2817.08
2835.32
2855.15
2876.59
2899.65
2924.29
2950.47
2978.1
3007.08
3037.3
3068.46
3100.38
3132.8
3165.42
3197.89
3229.86
3260.92
3290.68
3318.71
3344.6
3367.93
3388.31
3405.38
3418.81
3428.32
3433.7
3434.8
3431.55
3423.99
3412.18
3396.3
3376.59
3353.36
3326.97
3297.85
3266.43
3233.18
3198.59
3163.12
3127.25
3091.42
3056.06
3021.53
2988.22
2956.32
2926.07
2897.66
2871.19
2846.72
2824.26
2803.79
2785.26
2768.61
2753.76
2740.63
2729.12
2719.15
2710.65
2703.52
2697.7
2693.14
2689.78
2687.62
2686.62
2686.78
2688.11
2690.63
2694.39
2699.4
2705.72
2713.4
2722.48
2733.01
2745.05
2758.64
2773.82
2790.65
2809.16
2829.38
2851.33
2875.02
2900.41
2927.46
2956.08
2986.15
3017.45
3049.76
3082.83
3116.33
3149.91
3183.18
3215.73
3247.11
3276.88
3304.6
3329.83
3352.19
3371.28
3386.79
3398.45
3406.03
3409.4
3408.47
3403.29
3393.93
3380.55
3363.36
3342.67
3318.8
3292.15
3263.13
3232.17
3199.72
3166.22
3132.12
3097.82
3063.71
3030.16
2997.46
2966.02
2935.85
2907.26
2880.36
2855.27
2832.04
2810.69
2791.24
2773.67
2757.94
2744.01
2731.84
2721.35
2712.5
2705.21
2699.45
2695.14
2692.25
2690.74
2690.59
2691.76
2694.22
2697.98
2703.02
2709.34
2716.96
2725.9
2736.19
2747.87
2760.96
2775.52
2791.56
2809.13
2828.24
2848.92
2871.16
2894.96
2920.29
2947.1
2975.34
3004.91
3035.64
3067.35
3099.82
3132.76
3165.87
3198.78
3231.1
3262.4
3292.27
3320.27
3345.96
3368.97
3388.9
3405.43
3418.27
3427.19
3432.03
3432.71
3429.56
3422.41
3411.36
3396.62
3378.48
3357.26
3333.31
3307.02
3278.77
3248.97
3218.07
3186.4
3154.39
3122.29
3090.35
3059.04
3034.6
3007.9
2982.14
2957.45
2934.14
2912.35
2892.17
2873.62
2856.71
2841.41
2827.7
2815.53
2804.87
2795.68
2787.9
2781.5
2776.44
2772.67
2770.18
2768.93
2768.92
2770.31
2773.01
2777.02
2782.39
2789.16
2797.39
2807.13
2818.45
2831.38
2845.97
2862.23
2880.2
2899.86
2921.18
2944.13
2968.64
2994.62
3021.95
3050.5
3080.12
3110.61
3141.78
3173.35
3205.07
3236.63
3267.69
3297.91
3326.99
3354.57
3380.33
3403.92
3425.02
3443.36
3458.65
3470.64
3479.13
3483.96
3485.01
3482.08
3475.23
3464.49
3450.13
3432.42
2756.79
2738.54
2721.91
2706.94
2693.63
2681.93
2671.82
2663.25
2656.16
2650.54
2646.33
2643.51
2642.05
2642.21
2643.75
2646.68
2651.03
2656.83
2664.13
2672.97
2683.41
2695.5
2709.31
2724.88
2742.26
2761.49
2782.58
2805.54
2830.34
2856.91
2885.21
2915.1
2946.42
2978.92
3012.38
3046.55
3081.14
3115.74
3149.94
3183.37
3215.59
3246.18
3274.71
3300.73
3323.89
3343.85
3360.29
3372.98
3381.73
3386.39
3386.87
3383.11
3375.21
3363.25
3347.39
3327.87
3304.97
3279.01
3250.37
3219.45
3186.69
3152.53
3117.38
3081.71
3045.93
3010.42
2975.39
2940.61
2907.36
2875.58
2845.4
2816.92
2790.23
2765.4
2742.49
2721.48
2702.42
2685.27
2670.01
2656.61
2645.03
2635.23
2627.15
2620.75
2615.96
2612.75
2611.09
2611.05
2612.51
2615.42
2619.7
2625.31
2632.22
2640.42
2649.93
2660.77
2672.98
2686.62
2701.73
2718.37
2736.58
2756.4
2777.83
2800.89
2825.53
2851.72
2879.38
2908.39
2938.68
2969.9
3001.91
3034.43
3067.16
3099.77
3131.88
3163.1
3193.01
3221.21
3247.26
3270.75
3291.29
3308.49
3322.04
3331.64
3337.07
3338.2
3334.94
3327.33
3315.45
3299.46
3279.61
3256.22
3229.67
3200.37
3168.76
3135.33
3100.56
3064.93
3028.91
2992.94
2957.45
2922.83
2889.44
2857.48
2827.2
2798.77
2772.29
2747.83
2725.39
2704.95
2686.45
2669.84
2655.03
2641.93
2630.46
2620.52
2612.05
2604.94
2599.15
2594.6
2591.26
2589.1
2588.1
2588.25
2589.58
2592.09
2595.83
2600.83
2607.13
2614.79
2623.85
2634.35
2646.37
2659.93
2675.09
2691.9
2710.39
2730.59
2752.53
2776.21
2801.61
2828.67
2857.33
2887.45
2918.81
2951.21
2984.37
3017.99
3051.71
3085.14
3117.84
3149.39
3179.33
3207.22
3232.63
3255.13
3274.37
3289.99
3301.74
3309.38
3312.77
3311.84
3306.62
3297.19
3283.71
3266.4
3245.56
3221.53
3194.71
3165.52
3134.39
3101.77
3068.12
3033.87
2999.43
2965.21
2931.56
2898.79
2867.27
2837.06
2808.43
2781.52
2756.42
2733.19
2711.86
2692.42
2674.87
2659.17
2645.26
2633.11
2622.65
2613.83
2606.57
2600.82
2596.53
2593.66
2592.16
2592.02
2593.19
2595.66
2599.42
2604.45
2610.77
2618.38
2627.31
2637.59
2649.24
2662.32
2676.85
2692.88
2710.43
2729.53
2750.2
2772.43
2796.23
2821.56
2848.39
2876.66
2906.26
2937.05
2968.83
3001.38
3034.43
3067.66
3100.71
3133.18
3164.65
3194.68
3222.86
3248.72
3271.88
3291.96
3308.61
3321.56
3330.57
3335.46
3336.16
3332.98
3325.77
3314.64
3299.79
3281.52
3260.15
3236.04
3209.58
3181.16
3151.18
3120.12
3088.29
3056.12
3023.87
2991.74
2960.03
2936.43
2909.35
2883.43
2858.69
2835.35
2813.57
2793.39
2774.86
2757.97
2742.7
2729.01
2716.87
2706.23
2697.06
2689.3
2682.92
2677.87
2674.12
2671.63
2670.39
2670.37
2671.76
2674.45
2678.45
2683.79
2690.55
2698.74
2708.46
2719.75
2732.66
2747.24
2763.49
2781.44
2801.1
2822.43
2845.38
2869.91
2895.91
2923.28
2951.87
2981.54
3012.1
3043.34
3075.01
3106.83
3138.51
3169.69
3200.04
3229.25
3256.97
3282.86
3306.58
3327.81
3346.26
3361.65
3373.74
3382.3
3387.18
3388.25
3385.31
3378.42
3367.62
3353.17
3335.35
2657.92
2639.69
2623.09
2608.14
2594.85
2583.19
2573.1
2564.54
2557.48
2551.87
2547.68
2544.87
2543.42
2543.57
2545.09
2548.01
2552.35
2558.13
2565.4
2574.22
2584.62
2596.69
2610.46
2626.01
2643.37
2662.58
2683.65
2706.6
2731.4
2757.99
2786.32
2816.25
2847.63
2880.21
2913.76
2948.05
2982.77
3017.53
3051.89
3085.5
3117.9
3148.68
3177.39
3203.58
3226.91
3247.01
3263.58
3276.37
3285.19
3289.89
3290.37
3286.59
3278.64
3266.59
3250.61
3230.96
3207.91
3181.77
3152.95
3121.84
3088.9
3054.54
3019.23
2983.4
2947.47
2911.82
2876.7
2841.85
2808.53
2776.7
2746.49
2717.99
2691.3
2666.47
2643.56
2622.58
2603.53
2586.41
2571.17
2557.8
2546.25
2536.46
2528.42
2522.04
2517.28
2514.14
2512.45
2512.41
2513.88
2516.79
2521.08
2526.69
2533.59
2541.78
2551.27
2562.09
2574.28
2587.89
2602.97
2619.58
2637.77
2657.57
2679
2702.04
2726.69
2752.9
2780.59
2809.64
2840
2871.3
2903.39
2936.03
2968.89
3001.64
3033.91
3065.3
3095.39
3123.77
3150.01
3173.68
3194.38