/*--------------------------------*- C++ -*----------------------------------*\
| =========                 |                                                 |
| \\      /  F ield         | OpenFOAM: The Open Source CFD Toolbox           |
|  \\    /   O peration     | Version:  3.0.1                                 |
|   \\  /    A nd           | Web:      www.OpenFOAM.org                      |
|    \\/     M anipulation  |                                                 |
\*---------------------------------------------------------------------------*/
FoamFile
{
    version     2.0;
    format      ascii;
    class       surfaceScalarField;
    location    "39.2";
    object      alphaPhi;
}
// * * * * * * * * * * * * * * * * * * * * * * * * * * * * * * * * * * * * * //

dimensions      [0 3 -1 0 0 0 0];

internalField   nonuniform List<scalar> 
42423
(
-3.43063e-05
-1.17851e-05
-2.12103e-05
-1.30961e-05
-7.03762e-06
-1.41727e-05
8.06182e-06
-1.50995e-05
2.41213e-05
-1.60595e-05
4.07635e-05
-1.66423e-05
5.81692e-05
-1.74058e-05
7.60102e-05
-1.78411e-05
9.39882e-05
-1.79781e-05
0.000112141
-1.81533e-05
0.000130269
-1.81272e-05
0.000147947
-1.76788e-05
0.000165111
-1.71636e-05
0.000181448
-1.63368e-05
0.000196722
-1.52747e-05
0.000210802
-1.40796e-05
0.000223319
-1.25168e-05
0.000234111
-1.07923e-05
0.000243052
-8.94158e-06
0.000249892
-6.83952e-06
0.00025453
-4.63845e-06
0.000256955
-2.42526e-06
0.000257073
-1.18132e-07
0.000254915
2.15838e-06
0.000250375
4.5396e-06
0.000243784
6.59158e-06
0.000235282
8.50164e-06
0.000224849
1.04334e-05
0.000212837
1.20121e-05
0.000199495
1.33417e-05
0.000184853
1.4642e-05
0.000169345
1.55075e-05
0.000153082
1.62633e-05
0.000136404
1.66777e-05
0.000119407
1.69969e-05
0.000102355
1.70522e-05
8.53783e-05
1.69768e-05
6.87082e-05
1.66701e-05
5.23614e-05
1.63468e-05
3.66138e-05
1.57476e-05
2.138e-05
1.52338e-05
7.02537e-06
1.43546e-05
-6.80216e-06
1.38275e-05
-1.97901e-05
1.29879e-05
-3.19517e-05
1.21616e-05
-4.32923e-05
1.13406e-05
-5.37972e-05
1.05049e-05
-6.34705e-05
9.67331e-06
-7.23259e-05
8.85544e-06
-8.03871e-05
8.06118e-06
-8.76862e-05
7.29907e-06
-9.42396e-05
6.5534e-06
-0.000100085
5.84534e-06
-0.000105234
5.14927e-06
-0.000109709
4.47478e-06
-0.000113521
3.81212e-06
-0.000116731
3.20949e-06
-0.000119345
2.61413e-06
-0.000121347
2.00181e-06
-0.000122776
1.42932e-06
-0.000123583
8.07186e-07
-0.000123828
2.44644e-07
-0.000123427
-4.00741e-07
-0.00012229
-1.13716e-06
-0.000120552
-1.73734e-06
-0.000118223
-2.3295e-06
-0.000115079
-3.14436e-06
-0.000111295
-3.78396e-06
-0.000106755
-4.53953e-06
-0.000101377
-5.37851e-06
-9.54034e-05
-5.97334e-06
-8.85886e-05
-6.81478e-06
-8.0943e-05
-7.64568e-06
-7.2566e-05
-8.377e-06
-6.34732e-05
-9.09283e-06
-5.3611e-05
-9.86226e-06
-4.31648e-05
-1.04462e-05
-3.19163e-05
-1.12485e-05
-2.02683e-05
-1.16481e-05
-8.07286e-06
-1.21955e-05
4.54663e-06
-1.26195e-05
1.75229e-05
-1.29763e-05
3.07734e-05
-1.32506e-05
4.43729e-05
-1.35995e-05
5.83401e-05
-1.39673e-05
7.27233e-05
-1.43832e-05
8.76111e-05
-1.48878e-05
0.000102975
-1.53634e-05
0.000118923
-1.5948e-05
0.000135289
-1.63666e-05
0.000151972
-1.66825e-05
0.000168739
-1.67669e-05
0.000185231
-1.64922e-05
0.000201066
-1.58351e-05
0.0002158
-1.47333e-05
0.000229089
-1.3289e-05
0.000240528
-1.14394e-05
0.000249838
-9.30947e-06
0.000256832
-6.99417e-06
0.000261423
-4.59079e-06
0.000263517
-2.09408e-06
0.000263235
2.82044e-07
0.000260507
2.72751e-06
0.000255401
5.10685e-06
0.000248075
7.32514e-06
0.000238641
9.43485e-06
0.000227322
1.13186e-05
0.000214271
1.30512e-05
0.000199664
1.46066e-05
0.000183753
1.59115e-05
0.000166809
1.69435e-05
0.000148976
1.78328e-05
0.000130609
1.83672e-05
0.000111884
1.87252e-05
9.31006e-05
1.87834e-05
7.44555e-05
1.86451e-05
5.61208e-05
1.83347e-05
3.8294e-05
1.78268e-05
2.10992e-05
1.71948e-05
4.65645e-06
1.64428e-05
-1.08917e-05
1.55481e-05
-2.55814e-05
1.46897e-05
-3.92482e-05
1.36669e-05
-5.19483e-05
1.27001e-05
-6.35994e-05
1.1651e-05
-7.42549e-05
1.06555e-05
-8.39135e-05
9.65861e-06
-9.25884e-05
8.67488e-06
-0.000100309
7.72085e-06
-0.000107127
6.81755e-06
-0.000113089
5.96259e-06
-0.000118193
5.10399e-06
-0.000122509
4.3159e-06
-0.000126029
3.52024e-06
-0.000128817
2.78705e-06
-0.000130891
2.0745e-06
-0.000132271
1.38003e-06
-0.000132956
6.85214e-07
-0.000133061
1.05195e-07
-0.000132492
-5.69256e-07
-0.00013132
-1.17257e-06
-0.000129526
-1.79365e-06
-0.000127116
-2.41052e-06
-0.000124048
-3.06769e-06
-0.000120447
-3.6012e-06
-0.000116122
-4.3243e-06
-0.000111084
-5.03854e-06
-0.000105293
-5.79049e-06
-9.86783e-05
-6.61514e-06
-9.12602e-05
-7.41812e-06
-8.30257e-05
-8.23446e-06
-7.39318e-05
-9.09403e-06
-6.3966e-05
-9.9658e-06
-5.30898e-05
-1.08762e-05
-4.13355e-05
-1.17544e-05
-2.86061e-05
-1.27295e-05
-1.49511e-05
-1.3655e-05
-5.39977e-07
-1.44112e-05
1.47467e-05
-1.52868e-05
3.08136e-05
-1.6067e-05
4.75537e-05
-1.67401e-05
6.48491e-05
-1.72955e-05
8.25323e-05
-1.76833e-05
0.000100451
-1.79189e-05
0.000118371
-1.79199e-05
0.000136092
-1.77213e-05
0.000153383
-1.72914e-05
0.000170005
-1.66222e-05
0.000185718
-1.57126e-05
0.000200281
-1.45633e-05
0.000213406
-1.31254e-05
0.000224808
-1.14022e-05
0.000234259
-9.45077e-06
0.000241559
-7.29988e-06
0.000246535
-4.97617e-06
0.000249012
-2.47715e-06
0.000249024
-1.15752e-08
0.000246434
2.5895e-06
0.000241253
5.18061e-06
0.000233553
7.70039e-06
0.000223534
1.00189e-05
0.000211348
1.21863e-05
0.000197226
1.41214e-05
0.000181497
1.57288e-05
0.000164371
1.71261e-05
0.000146205
1.81658e-05
0.000127279
1.89262e-05
0.000107946
1.93336e-05
8.84567e-05
1.94889e-05
6.89739e-05
1.94828e-05
4.98413e-05
1.91325e-05
3.12148e-05
1.86266e-05
1.32643e-05
1.79505e-05
-3.93531e-06
1.71996e-05
-2.02151e-05
1.62798e-05
-3.5528e-05
1.53128e-05
-4.97948e-05
1.42669e-05
-6.29351e-05
1.31403e-05
-7.49592e-05
1.20241e-05
-8.58974e-05
1.09382e-05
-9.57621e-05
9.86468e-06
-0.000104565
8.80316e-06
-0.000112359
7.79324e-06
-0.000119191
6.83277e-06
-0.000125094
5.90248e-06
-0.00013011
5.01578e-06
-0.000134287
4.17704e-06
-0.000137724
3.43778e-06
-0.000140427
2.7023e-06
-0.000142453
2.02676e-06
-0.000143826
1.37248e-06
-0.000144557
7.3138e-07
-0.000144644
8.65503e-08
-0.000144277
-3.6687e-07
-0.000143219
-1.05821e-06
-0.000141603
-1.61537e-06
-0.00013936
-2.24334e-06
-0.000136475
-2.8853e-06
-0.000132942
-3.53313e-06
-0.000128687
-4.25434e-06
-0.000123789
-4.89813e-06
-0.000118125
-5.66478e-06
-0.000111717
-6.40749e-06
-0.000104491
-7.22637e-06
-9.63717e-05
-8.11902e-06
-8.74585e-05
-8.91326e-06
-7.75426e-05
-9.91598e-06
-6.67693e-05
-1.07733e-05
-5.50216e-05
-1.17478e-05
-4.22997e-05
-1.2722e-05
-2.86764e-05
-1.36234e-05
-1.41742e-05
-1.45022e-05
1.20558e-06
-1.53798e-05
1.73628e-05
-1.61572e-05
3.42298e-05
-1.68671e-05
5.16528e-05
-1.7423e-05
6.94761e-05
-1.78234e-05
8.75454e-05
-1.80693e-05
0.000105644
-1.80991e-05
0.000123582
-1.79376e-05
0.000141031
-1.74489e-05
0.000157785
-1.67546e-05
0.000173568
-1.57827e-05
0.000188044
-1.44766e-05
0.000200976
-1.29317e-05
0.000212095
-1.1119e-05
0.000221114
-9.01864e-06
0.000227858
-6.74399e-06
0.000232171
-4.31375e-06
0.000233955
-1.78392e-06
0.000233122
8.33489e-07
0.000229617
3.50415e-06
0.000223475
6.14239e-06
0.000214918
8.55691e-06
0.000204084
1.08341e-05
0.000191227
1.28573e-05
0.000176524
1.47021e-05
0.000160304
1.62201e-05
0.000142849
1.74557e-05
0.000124425
1.84235e-05
0.000105297
1.91283e-05
8.57804e-05
1.95162e-05
6.61513e-05
1.96291e-05
4.6644e-05
1.95073e-05
2.75338e-05
1.91102e-05
9.18356e-06
1.83502e-05
-8.39668e-06
1.75802e-05
-2.49365e-05
1.65398e-05
-4.02855e-05
1.5349e-05
-5.4294e-05
1.40086e-05
-6.69053e-05
1.26114e-05
-7.80659e-05
1.11607e-05
-8.78509e-05
9.78504e-06
-9.62791e-05
8.42821e-06
-0.000103469
7.18956e-06
-0.000109443
5.9748e-06
-0.000114326
4.88252e-06
-0.000118292
3.96567e-06
-0.000121414
3.12262e-06
-0.000123718
2.30396e-06
-0.000125408
1.68984e-06
-0.000126497
1.08956e-06
-0.000127121
6.23841e-07
-0.000127502
3.80488e-07
-0.000127469
-3.27364e-08
-0.000127053
-4.16124e-07
-0.000126511
-5.41594e-07
-0.000125682
-8.29214e-07
-0.00012464
-1.04243e-06
-0.000123221
-1.41897e-06
-0.000121322
-1.89863e-06
-0.00011891
-2.41213e-06
-0.000115833
-3.07725e-06
-0.000112024
-3.80886e-06
-0.000107471
-4.5527e-06
-0.000101981
-5.4901e-06
-9.55951e-05
-6.38593e-06
-8.83014e-05
-7.29378e-06
-7.98627e-05
-8.43873e-06
-7.0516e-05
-9.34665e-06
-5.99021e-05
-1.0614e-05
-4.81743e-05
-1.17278e-05
-3.5529e-05
-1.26453e-05
-2.16981e-05
-1.3831e-05
-6.72287e-06
-1.49753e-05
9.1532e-06
-1.58761e-05
2.59837e-05
-1.68305e-05
4.3462e-05
-1.74784e-05
6.16256e-05
-1.81636e-05
8.02181e-05
-1.85926e-05
9.88151e-05
-1.85971e-05
0.000117371
-1.85555e-05
0.000135623
-1.82525e-05
0.000153211
-1.75883e-05
0.000169963
-1.6752e-05
0.00018558
-1.56165e-05
0.000199896
-1.43163e-05
0.000212665
-1.27695e-05
0.000223659
-1.09941e-05
0.000232711
-9.05117e-06
0.000239717
-7.00661e-06
0.000244561
-4.84373e-06
0.000247165
-2.60434e-06
0.000247411
-2.46145e-07
0.000245383
2.02803e-06
0.000241135
4.24802e-06
0.000234656
6.47875e-06
0.000226298
8.35846e-06
0.000216152
1.01456e-05
0.000204221
1.19311e-05
0.000190938
1.32833e-05
0.000176396
1.45418e-05
0.000160749
1.56467e-05
0.000144365
1.63843e-05
0.000127294
1.70712e-05
0.000109894
1.73997e-05
9.23563e-05
1.75376e-05
7.47451e-05
1.76112e-05
5.72607e-05
1.74843e-05
4.00054e-05
1.72553e-05
2.32123e-05
1.67931e-05
7.02226e-06
1.61901e-05
-8.63494e-06
1.56572e-05
-2.35549e-05
1.49199e-05
-3.77248e-05
1.41699e-05
-5.10638e-05
1.33389e-05
-6.35024e-05
1.24386e-05
-7.50413e-05
1.15389e-05
-8.56341e-05
1.05928e-05
-9.52502e-05
9.61611e-06
-0.000103898
8.64759e-06
-0.000111573
7.67496e-06
-0.000118271
6.69783e-06
-0.000124024
5.75306e-06
-0.000128838
4.81457e-06
-0.000132744
3.90543e-06
2.97953e-06
-3.43433e-05
-2.35707e-05
-2.12461e-05
-2.61933e-05
-7.06689e-06
-2.83521e-05
8.02878e-06
-3.01953e-05
2.409e-05
-3.21208e-05
4.07379e-05
-3.32903e-05
5.81533e-05
-3.48213e-05
7.60022e-05
-3.56901e-05
9.39958e-05
-3.59718e-05
0.000112171
-3.63282e-05
0.000130308
-3.62645e-05
0.000147996
-3.53674e-05
0.000165166
-3.43339e-05
0.000181513
-3.26839e-05
0.000196812
-3.05733e-05
0.000210897
-2.81649e-05
0.000223419
-2.50388e-05
0.000234235
-2.16083e-05
0.000243178
-1.78844e-05
0.000250014
-1.36763e-05
0.000254667
-9.2911e-06
0.000257094
-4.85222e-06
0.000257195
-2.1935e-07
0.000255029
4.3244e-06
0.000250487
9.08122e-06
0.000243891
1.31876e-05
0.000235379
1.70132e-05
0.000224939
2.08738e-05
0.000212915
2.40363e-05
0.000199564
2.66923e-05
0.000184909
2.92971e-05
0.000169392
3.10242e-05
0.000153115
3.25402e-05
0.000136426
3.33668e-05
0.000119423
3.40002e-05
0.000102364
3.41108e-05
8.53779e-05
3.3963e-05
6.87036e-05
3.33444e-05
5.23489e-05
3.27015e-05
3.65991e-05
3.14974e-05
2.13571e-05
3.04758e-05
6.98806e-06
2.87237e-05
-6.83056e-06
2.76461e-05
-1.98209e-05
2.59783e-05
-3.19839e-05
2.43246e-05
-4.33268e-05
2.26834e-05
-5.38357e-05
2.10139e-05
-6.35085e-05
1.93461e-05
-7.23645e-05
1.77115e-05
-8.04273e-05
1.6124e-05
-8.77281e-05
1.45999e-05
-9.42831e-05
1.31084e-05
-0.000100123
1.16857e-05
-0.000105278
1.03038e-05
-0.00010976
8.95638e-06
-0.000113573
7.62502e-06
-0.000116782
6.41939e-06
-0.000119398
5.22956e-06
-0.0001214
4.00443e-06
-0.00012284
2.86901e-06
-0.000123635
1.60232e-06
-0.000123878
4.87617e-07
-0.000123481
-7.97704e-07
-0.000122341
-2.2779e-06
-0.000120605
-3.47345e-06
-0.000118278
-4.65649e-06
-0.000115131
-6.29055e-06
-0.000111357
-7.5581e-06
-0.000106808
-9.08841e-06
-0.00010144
-1.07474e-05
-9.5447e-05
-1.1966e-05
-8.86466e-05
-1.36152e-05
-8.09973e-05
-1.5295e-05
-7.26177e-05
-1.67567e-05
-6.35251e-05
-1.81855e-05
-5.36524e-05
-1.97351e-05
-4.32018e-05
-2.08969e-05
-3.19459e-05
-2.25045e-05
-2.0286e-05
-2.3308e-05
-8.08032e-06
-2.44013e-05
4.55475e-06
-2.52547e-05
1.75457e-05
-2.59673e-05
3.08106e-05
-2.65156e-05
4.44258e-05
-2.72148e-05
5.84069e-05
-2.79484e-05
7.28076e-05
-2.8784e-05
8.77105e-05
-2.97908e-05
0.000103078
-3.07312e-05
0.000119026
-3.1896e-05
0.000135404
-3.27443e-05
0.000152093
-3.33718e-05
0.000168867
-3.35403e-05
0.000185364
-3.29893e-05
0.0002012
-3.16709e-05
0.000215926
-2.94597e-05
0.000229215
-2.65782e-05
0.000240648
-2.28722e-05
0.000249957
-1.86177e-05
0.000256952
-1.39897e-05
0.000261542
-9.18099e-06
0.000263635
-4.18644e-06
0.000263357
5.60248e-07
0.0002606
5.48372e-06
0.000255493
1.02138e-05
0.000248152
1.46661e-05
0.000238725
1.88624e-05
0.000227402
2.26412e-05
0.000214352
2.61018e-05
0.000199734
2.92238e-05
0.00018381
3.18363e-05
0.000166853
3.38998e-05
0.000149
3.56868e-05
0.000130619
3.67477e-05
0.000111897
3.74468e-05
9.31029e-05
3.75781e-05
7.44459e-05
3.73022e-05
5.60944e-05
3.66863e-05
3.82582e-05
3.56631e-05
2.10464e-05
3.44066e-05
4.60251e-06
3.28867e-05
-1.09484e-05
3.1099e-05
-2.56435e-05
2.93849e-05
-3.93168e-05
2.73401e-05
-5.20209e-05
2.54043e-05
-6.368e-05
2.33101e-05
-7.43381e-05
2.13136e-05
-8.40038e-05
1.93244e-05
-9.26705e-05
1.73416e-05
-0.000100384
1.54343e-05
-0.000107226
1.366e-05
-0.000113187
1.19231e-05
-0.000118292
1.02094e-05
-0.000122612
8.63521e-06
-0.000126137
7.04561e-06
-0.000128922
5.57202e-06
-0.000130997
4.14936e-06
-0.000132377
2.76033e-06
-0.000133076
1.38414e-06
-0.000133174
2.02629e-07
-0.000132588
-1.15507e-06
-0.000131428
-2.33201e-06
-0.000129634
-3.58777e-06
-0.000127224
-4.82027e-06
-0.000124153
-6.13939e-06
-0.000120561
-7.19324e-06
-0.000116243
-8.64239e-06
-0.000111186
-1.00952e-05
-0.000105416
-1.1561e-05
-9.88168e-05
-1.3214e-05
-9.14003e-05
-1.48346e-05
-8.31636e-05
-1.64712e-05
-7.40481e-05
-1.82096e-05
-6.40501e-05
-1.99638e-05
-5.3204e-05
-2.17225e-05
-4.14461e-05
-2.35123e-05
-2.87196e-05
-2.54561e-05
-1.5067e-05
-2.73077e-05
-6.39022e-07
-2.88393e-05
1.46526e-05
-3.05785e-05
3.07266e-05
-3.21411e-05
4.74717e-05
-3.34854e-05
6.4783e-05
-3.4607e-05
8.24724e-05
-3.5373e-05
0.000100415
-3.58616e-05
0.000118335
-3.58397e-05
0.000136078
-3.54647e-05
0.000153388
-3.46017e-05
0.000170019
-3.32537e-05
0.00018575
-3.14438e-05
0.000200324
-2.91372e-05
0.000213464
-2.62656e-05
0.000224882
-2.28201e-05
0.000234349
-1.89177e-05
0.000241654
-1.4605e-05
0.000246634
-9.95669e-06
0.000249128
-4.97116e-06
0.000249142
-2.56401e-08
0.000246544
5.18705e-06
0.000241366
1.0359e-05
0.000233668
1.5398e-05
0.000223641
2.00457e-05
0.000211446
2.43809e-05
0.000197302
2.82663e-05
0.000181563
3.14677e-05
0.000164425
3.42635e-05
0.00014625
3.63406e-05
0.000127308
3.78688e-05
0.000107951
3.86902e-05
8.84542e-05
3.89858e-05
6.89555e-05
3.89816e-05
4.98185e-05
3.82695e-05
3.1182e-05
3.72631e-05
1.32166e-05
3.59159e-05
-3.99144e-06
3.44077e-05
-2.02866e-05
3.2575e-05
-3.56052e-05
3.06314e-05
-4.98714e-05
2.85331e-05
-6.3018e-05
2.62869e-05
-7.50382e-05
2.40443e-05
-8.59943e-05
2.18943e-05
-9.58586e-05
1.9729e-05
-0.000104667
1.76112e-05
-0.000112455
1.55812e-05
-0.000119282
1.36607e-05
-0.00012519
1.18097e-05
-0.000130192
1.00178e-05
-0.00013439
8.37522e-06
-0.000137824
6.87228e-06
-0.000140534
5.41207e-06
-0.000142572
4.06478e-06
-0.000143934
2.73389e-06
-0.00014466
1.4577e-06
-0.00014474
1.66835e-07
-0.00014438
-7.26941e-07
-0.000143328
-2.11035e-06
-0.000141718
-3.22597e-06
-0.000139469
-4.49181e-06
-0.00013655
-5.8046e-06
-0.000133059
-7.02359e-06
-0.000128768
-8.54542e-06
-0.000123903
-9.763e-06
-0.000118211
-1.13574e-05
-0.000111831
-1.27873e-05
-0.000104596
-1.44617e-05
-9.64949e-05
-1.62199e-05
-8.75775e-05
-1.78307e-05
-7.76523e-05
-1.98412e-05
-6.68831e-05
-2.15425e-05
-5.51348e-05
-2.34962e-05
-4.24227e-05
-2.54341e-05
-2.87866e-05
-2.72595e-05
-1.4278e-05
-2.90109e-05
1.10511e-06
-3.0763e-05
1.72668e-05
-3.2319e-05
3.4154e-05
-3.37544e-05
5.15752e-05
-3.48443e-05
6.94117e-05
-3.566e-05
8.74932e-05
-3.6151e-05
0.000105606
-3.62123e-05
0.000123561
-3.58929e-05
0.000141023
-3.49106e-05
0.000157798
-3.35292e-05
0.000173591
-3.15762e-05
0.000188088
-2.89738e-05
0.000201053
-2.58964e-05
0.000212174
-2.22407e-05
0.000221198
-1.80425e-05
0.000227952
-1.34986e-05
0.000232277
-8.63858e-06
0.000234079
-3.5855e-06
0.000233235
1.67692e-06
0.000229712
7.02746e-06
0.000223573
1.22815e-05
0.000215017
1.71123e-05
0.000204175
2.16764e-05
0.00019131
2.57218e-05
0.000176608
2.94042e-05
0.000160373
3.24549e-05
0.000142901
3.4928e-05
0.00012446
3.68645e-05
0.000105322
3.82664e-05
8.5792e-05
3.9046e-05
6.61562e-05
3.92648e-05
4.66457e-05
3.90178e-05
2.75301e-05
3.82258e-05
9.16709e-06
3.67131e-05
-8.43066e-06
3.5178e-05
-2.49796e-05
3.30888e-05
-4.03329e-05
3.07023e-05
-5.43498e-05
2.80255e-05
-6.69715e-05
2.52332e-05
-7.81385e-05
2.23278e-05
-8.79347e-05
1.95813e-05
-9.63767e-05
1.68702e-05
-0.000103582
1.43945e-05
-0.000109572
1.19649e-05
-0.000114471
9.78196e-06
-0.000118446
7.94029e-06
-0.000121576
6.253e-06
-0.000123891
4.61954e-06
-0.000125581
3.37953e-06
-0.000126693
2.20114e-06
-0.000127333
1.26405e-06
-0.000127669
7.16767e-07
-0.000127594
-1.08227e-07
-0.000127167
-8.42446e-07
-0.000126619
-1.09046e-06
-0.000125783
-1.6645e-06
-0.000124735
-2.0905e-06
-0.000123313
-2.84092e-06
-0.00012141
-3.80215e-06
-0.000118993
-4.82919e-06
-0.000115912
-6.15795e-06
-0.000112101
-7.61955e-06
-0.000107545
-9.1094e-06
-0.000102053
-1.09818e-05
-9.56643e-05
-1.27747e-05
-8.8371e-05
-1.45871e-05
-7.99287e-05
-1.68811e-05
-7.05857e-05
-1.86897e-05
-5.99564e-05
-2.12433e-05
-4.82372e-05
-2.34471e-05
-3.55984e-05
-2.52842e-05
-2.17671e-05
-2.76623e-05
-6.79534e-06
-2.99472e-05
9.06764e-06
-3.17392e-05
2.58883e-05
-3.36513e-05
4.33906e-05
-3.49807e-05
6.15575e-05
-3.63307e-05
8.01524e-05
-3.71875e-05
9.87723e-05
-3.72171e-05
0.000117347
-3.71304e-05
0.000135618
-3.65238e-05
0.000153211
-3.51809e-05
0.00016997
-3.35113e-05
0.000185612
-3.12583e-05
0.000199946
-2.86505e-05
0.000212721
-2.55445e-05
0.000223709
-2.19824e-05
0.000232774
-1.81164e-05
0.000239802
-1.40347e-05
0.000244652
-9.69323e-06
0.000247263
-5.21541e-06
0.000247507
-4.90801e-07
0.000245474
4.06077e-06
0.00024123
8.49213e-06
0.00023475
1.29586e-05
0.000226384
1.67246e-05
0.000216234
2.02957e-05
0.000204294
2.38712e-05
0.000191002
2.65747e-05
0.000176455
2.90888e-05
0.000160793
3.13086e-05
0.000144401
3.27762e-05
0.00012732
3.41521e-05
0.000109912
3.48084e-05
9.23637e-05
3.50856e-05
7.47472e-05
3.52277e-05
5.72564e-05
3.49751e-05
3.99962e-05
3.45155e-05
2.3193e-05
3.35963e-05
6.99348e-06
3.23895e-05
-8.66042e-06
3.13111e-05
-2.35837e-05
2.98432e-05
-3.77574e-05
2.83437e-05
-5.10999e-05
2.66814e-05
-6.35404e-05
2.4879e-05
-7.50814e-05
2.30799e-05
-8.56752e-05
2.11865e-05
-9.52909e-05
1.92318e-05
-0.000103938
1.72946e-05
-0.000111611
1.53478e-05
-0.000118307
1.33942e-05
-0.00012406
1.15062e-05
-0.000128875
9.62957e-06
-0.000132782
7.81272e-06
5.95451e-06
-3.44158e-05
-3.53587e-05
-2.13167e-05
-3.92925e-05
-7.1257e-06
-4.25432e-05
7.97004e-06
-4.52912e-05
2.40425e-05
-4.81934e-05
4.07092e-05
-4.99572e-05
5.8141e-05
-5.22531e-05
7.60079e-05
-5.35571e-05
9.40279e-05
-5.39919e-05
0.000112218
-5.45179e-05
0.000130374
-5.4421e-05
0.000148083
-5.3077e-05
0.000165276
-5.15261e-05
0.000181648
-4.90569e-05
0.000196959
-4.58843e-05
0.000211064
-4.22698e-05
0.000223613
-3.75876e-05
0.000234438
-3.24338e-05
0.000243386
-2.68327e-05
0.000250242
-2.05321e-05
0.000254887
-1.39362e-05
0.00025731
-7.27518e-06
0.00025739
-2.98938e-07
0.000255199
6.51463e-06
0.000250653
1.36275e-05
0.000244049
1.97914e-05
0.000235518
2.55445e-05
0.000225066
3.13253e-05
0.000213022
3.60802e-05
0.000199657
4.00577e-05
0.000184981
4.39731e-05
0.000169449
4.65563e-05
0.000153149
4.88402e-05
0.00013644
5.00751e-05
0.000119427
5.10136e-05
0.000102358
5.11799e-05
8.53556e-05
5.09652e-05
6.86747e-05
5.00253e-05
5.23074e-05
4.90687e-05
3.65549e-05
4.72498e-05
2.13015e-05
4.57292e-05
6.90149e-06
4.31236e-05
-6.8976e-06
4.14452e-05
-1.98894e-05
3.89701e-05
-3.20543e-05
3.64895e-05
-4.33986e-05
3.40277e-05
-5.39066e-05
3.15219e-05
-6.35776e-05
2.90171e-05
-7.2434e-05
2.65678e-05
-8.04948e-05
2.41848e-05
-8.77955e-05
2.19006e-05
-9.4349e-05
1.96619e-05
-0.000100179
1.75154e-05
-0.000105333
1.54584e-05
-0.000109825
1.34482e-05
-0.000113632
1.14324e-05
-0.000116838
9.62452e-06
-0.000119451
7.84291e-06
-0.000121454
6.00792e-06
-0.000122898
4.31298e-06
-0.000123686
2.39e-06
-0.000123926
7.27899e-07
-0.000123522
-1.20215e-06
-0.000122389
-3.4114e-06
-0.000120655
-5.20697e-06
-0.000118332
-6.97975e-06
-0.000115183
-9.43922e-06
-0.000111425
-1.13161e-05
-0.000106862
-1.3652e-05
-0.000101501
-1.61078e-05
-9.54918e-05
-1.79755e-05
-8.87102e-05
-2.03969e-05
-8.10578e-05
-2.29475e-05
-7.26716e-05
-2.51429e-05
-6.35769e-05
-2.72802e-05
-5.36956e-05
-2.96165e-05
-4.32462e-05
-3.13464e-05
-3.19734e-05
-3.37774e-05
-2.02993e-05
-3.49821e-05
-8.08089e-06
-3.66198e-05
4.57369e-06
-3.79094e-05
1.75831e-05
-3.89768e-05
3.08672e-05
-3.97998e-05
4.45053e-05
-4.08529e-05
5.85069e-05
-4.19501e-05
7.29264e-05
-4.32035e-05
8.78461e-05
-4.47105e-05
0.000103236
-4.61209e-05
0.000119189
-4.78493e-05
0.000135571
-4.91267e-05
0.000152264
-5.0064e-05
0.000169047
-5.03232e-05
0.000185552
-4.94942e-05
0.00020139
-4.75095e-05
0.000216119
-4.41881e-05
0.000229416
-3.98752e-05
0.000240834
-3.42905e-05
0.000250126
-2.79092e-05
0.000257112
-2.09755e-05
0.000261713
-1.3782e-05
0.000263807
-6.28035e-06
0.000263475
8.91523e-07
0.000260691
8.26807e-06
0.00025559
1.53148e-05
0.000248224
2.20322e-05
0.000238793
2.82938e-05
0.000227459
3.39752e-05
0.00021439
3.91704e-05
0.000199758
4.38559e-05
0.000183816
4.77778e-05
0.000166845
5.08709e-05
0.000148971
5.35611e-05
0.000130558
5.51609e-05
0.000111829
5.61754e-05
9.30157e-05
5.63917e-05
7.43487e-05
5.59692e-05
5.59649e-05
5.50701e-05
3.81234e-05
5.35046e-05
2.08927e-05
5.16373e-05
4.45689e-06
4.93226e-05
-1.1103e-05
4.66589e-05
-2.58017e-05
4.40837e-05
-3.94822e-05
4.10206e-05
-5.21677e-05
3.80899e-05
-6.38548e-05
3.49973e-05
-7.44984e-05
3.19572e-05
-8.4164e-05
2.899e-05
-9.28331e-05
2.60107e-05
-0.000100508
2.31091e-05
-0.000107389
2.05413e-05
-0.000113343
1.78772e-05
-0.000118446
1.53124e-05
-0.000122766
1.29546e-05
-0.000126283
1.05632e-05
-0.000129063
8.35213e-06
-0.000131142
6.22795e-06
-0.000132515
4.13329e-06
-0.000133212
2.08124e-06
-0.000133302
2.92997e-07
-0.000132706
-1.75154e-06
-0.00013157
-3.46834e-06
-0.000129766
-5.39123e-06
-0.000127362
-7.22415e-06
-0.000124291
-9.21053e-06
-0.0001207
-1.07843e-05
-0.000116392
-1.29506e-05
-0.000111306
-1.51811e-05
-0.000105563
-1.73037e-05
-9.89816e-05
-1.97956e-05
-9.15632e-05
-2.22531e-05
-8.33277e-05
-2.47067e-05
-7.42065e-05
-2.73309e-05
-6.4183e-05
-2.99874e-05
-5.33734e-05
-3.25322e-05
-4.1617e-05
-3.52688e-05
-2.88802e-05
-3.8193e-05
-1.52199e-05
-4.09681e-05
-7.88581e-07
-4.32708e-05
1.45273e-05
-4.58945e-05
3.05962e-05
-4.82101e-05
4.73469e-05
-5.02362e-05
6.46672e-05
-5.19274e-05
8.23752e-05
-5.30812e-05
0.000100344
-5.38306e-05
0.000118276
-5.37719e-05
0.00013605
-5.32388e-05
0.000153384
-5.19355e-05
0.000170036
-4.99064e-05
0.000185791
-4.71988e-05
0.000200383
-4.37292e-05
0.00021355
-3.94322e-05
0.00022498
-3.42508e-05
0.000234464
-2.84015e-05
0.000241787
-2.19287e-05
0.000246778
-1.49473e-05
0.000249276
-7.46984e-06
0.000249275
-2.38504e-08
0.00024669
7.77125e-06
0.000241463
1.55859e-05
0.0002338
2.30607e-05
0.00022371
3.01357e-05
0.000211489
3.66026e-05
0.000197353
4.24015e-05
0.000181606
4.72147e-05
0.000164434
5.1436e-05
0.000146226
5.45481e-05
0.000127264
5.68313e-05
0.000107869
5.80848e-05
8.83129e-05
5.85419e-05
6.88406e-05
5.84538e-05
4.96917e-05
5.74184e-05
3.10348e-05
5.592e-05
1.30482e-05
5.39025e-05
-4.15188e-06
5.16077e-05
-2.04556e-05
4.88788e-05
-3.57734e-05
4.59492e-05
-5.00438e-05
4.28035e-05
-6.319e-05
3.94331e-05
-7.52047e-05
3.6059e-05
-8.61772e-05
3.28669e-05
-9.60304e-05
2.95822e-05
-0.000104838
2.64192e-05
-0.000112619
2.33622e-05
-0.000119433
2.0474e-05
-0.000125344
1.77214e-05
-0.000130324
1.49975e-05
-0.000134556
1.26075e-05
-0.000137968
1.02836e-05
-0.000140677
8.12137e-06
-0.00014272
6.10817e-06
-0.00014407
4.08332e-06
-0.00014479
2.17783e-06
-0.000144891
2.6809e-07
-0.0001445
-1.11812e-06
-0.000143458
-3.15234e-06
-0.00014185
-4.83376e-06
-0.000139615
-6.72708e-06
-0.000136697
-8.72267e-06
-0.000133214
-1.05067e-05
-0.000128907
-1.28519e-05
-0.00012405
-1.46207e-05
-0.000118322
-1.70852e-05
-0.000111982
-1.91272e-05
-0.000104704
-2.17403e-05
-9.66542e-05
-2.42693e-05
-8.77371e-05
-2.67479e-05
-7.7808e-05
-2.97703e-05
-6.7049e-05
-3.23016e-05
-5.52975e-05
-3.52477e-05
-4.25861e-05
-3.81456e-05
-2.89362e-05
-4.09094e-05
-1.44261e-05
-4.35211e-05
9.56865e-07
-4.6146e-05
1.71275e-05
-4.84897e-05
3.40158e-05
-5.06427e-05
5.14639e-05
-5.22925e-05
6.93183e-05
-5.35145e-05
8.74203e-05
-5.4253e-05
0.000105573
-5.43647e-05
0.000123531
-5.38512e-05
0.000141046
-5.24257e-05
0.000157833
-5.03163e-05
0.000173645
-4.73886e-05
0.000188157
-4.34859e-05
0.00020114
-3.88794e-05
0.000212275
-3.33753e-05
0.000221327
-2.7095e-05
0.000228097
-2.02689e-05
0.000232434
-1.29754e-05
0.000234233
-5.38485e-06
0.000233365
2.54498e-06
0.000229828
1.05649e-05
0.000223688
1.84212e-05
0.000215116
2.56841e-05
0.000204258
3.25348e-05
0.000191378
3.86012e-05
0.000176678
4.4104e-05
0.000160401
4.87322e-05
0.000142904
5.24249e-05
0.000124445
5.5323e-05
0.000105304
5.74077e-05
8.57476e-05
5.86025e-05
6.61064e-05
5.8906e-05
4.65904e-05
5.85337e-05
2.74798e-05
5.73364e-05
9.10998e-06
5.5083e-05
-8.49198e-06
5.27799e-05
-2.50417e-05
4.96386e-05
-4.04027e-05
4.60633e-05
-5.44241e-05
4.20469e-05
-6.70528e-05
3.7862e-05
-7.82301e-05
3.35051e-05
-8.80368e-05
2.9388e-05
-9.6498e-05
2.53315e-05
-0.000103721
2.1618e-05
-0.000109723
1.79663e-05
-0.000114642
1.47008e-05
-0.000118649
1.19477e-05
-0.000121821
9.42538e-06
-0.00012416
6.95817e-06
-0.000125849
5.06823e-06
-0.000126952
3.30412e-06
-0.000127578
1.89049e-06
-0.000127892
1.03088e-06
-0.000127776
-2.24314e-07
-0.000127318
-1.3004e-06
-0.000126757
-1.65185e-06
-0.000125912
-2.50914e-06
-0.000124856
-3.14603e-06
-0.000123429
-4.2688e-06
-0.000121518
-5.7131e-06
-0.000119096
-7.25063e-06
-0.00011601
-9.24381e-06
-0.000112197
-1.14331e-05
-0.000107635
-1.36712e-05
-0.000102144
-1.64729e-05
-9.57551e-05
-1.91637e-05
-8.84558e-05
-2.18864e-05
-8.00126e-05
-2.53243e-05
-7.06777e-05
-2.80247e-05
-6.00253e-05
-3.18958e-05
-4.83236e-05
-3.51488e-05
-3.56966e-05
-3.79112e-05
-2.18629e-05
-4.14961e-05
-6.90114e-06
-4.4909e-05
8.94485e-06
-4.75852e-05
2.5774e-05
-5.04805e-05
4.32777e-05
-5.24845e-05
6.14546e-05
-5.45077e-05
8.00765e-05
-5.58095e-05
9.87086e-05
-5.58493e-05
0.000117304
-5.57257e-05
0.000135597
-5.48169e-05
0.000153206
-5.27902e-05
0.000169992
-5.02977e-05
0.000185654
-4.69204e-05
0.000200008
-4.30043e-05
0.000212806
-3.83425e-05
0.000223819
-3.2996e-05
0.000232905
-2.72017e-05
0.000239939
-2.10687e-05
0.000244792
-1.45464e-05
0.000247421
-7.8446e-06
0.00024767
-7.39664e-07
0.000245626
6.10461e-06
0.000241388
1.27295e-05
0.000234906
1.94405e-05
0.000226523
2.51077e-05
0.000216364
3.0455e-05
0.000204407
3.58275e-05
0.0001911
3.98823e-05
0.000176542
4.36469e-05
0.000160855
4.69953e-05
0.00014445
4.91812e-05
0.000127353
5.12487e-05
0.000109929
5.22326e-05
9.23622e-05
5.26524e-05
7.47376e-05
5.28522e-05
5.72368e-05
5.24759e-05
3.99718e-05
5.17805e-05
2.31496e-05
5.04185e-05
6.93347e-06
4.86057e-05
-8.71997e-06
4.69645e-05
-2.36495e-05
4.47727e-05
-3.78286e-05
4.25228e-05
-5.11741e-05
4.00269e-05
-6.36148e-05
3.73198e-05
-7.51564e-05
3.46215e-05
-8.57516e-05
3.17818e-05
-9.53685e-05
2.88487e-05
-0.000104014
2.59402e-05
-0.000111686
2.302e-05
-0.000118382
2.00901e-05
-0.000124134
1.72583e-05
-0.000128947
1.44426e-05
-0.000132857
1.17219e-05
8.92389e-06
-3.45247e-05
-4.71502e-05
-2.14233e-05
-5.23941e-05
-7.2156e-06
-5.6751e-05
7.88213e-06
-6.0389e-05
2.39709e-05
-6.42823e-05
4.06624e-05
-6.66487e-05
5.81222e-05
-6.97131e-05
7.60204e-05
-7.14554e-05
9.40755e-05
-7.20471e-05
0.000112299
-7.27411e-05
0.000130483
-7.26053e-05
0.000148224
-7.08186e-05
0.000165447
-6.87484e-05
0.000181854
-6.54647e-05
0.000197194
-6.12242e-05
0.000211325
-5.64008e-05
0.000223901
-5.01631e-05
0.000234749
-4.32823e-05
0.000243712
-3.57963e-05
0.000250581
-2.74004e-05
0.000255231
-1.85866e-05
0.000257647
-9.69128e-06
0.000257686
-3.37779e-07
0.000255454
8.74654e-06
0.000250902
1.8179e-05
0.000244289
2.64051e-05
0.000235726
3.41068e-05
0.000225257
4.17942e-05
0.000213184
4.81533e-05
0.000199796
5.34462e-05
0.000185089
5.86798e-05
0.000169533
6.2112e-05
0.0001532
6.51735e-05
0.000136464
6.68108e-05
0.000119433
6.80443e-05
0.000102348
6.82652e-05
8.53226e-05
6.79907e-05
6.86312e-05
6.67167e-05
5.22458e-05
6.54541e-05
3.64886e-05
6.3007e-05
2.12209e-05
6.09969e-05
6.78033e-06
5.75642e-05
-6.99845e-06
5.5224e-05
-1.9993e-05
5.19646e-05
-3.21601e-05
4.86567e-05
-4.35073e-05
4.53748e-05
-5.4016e-05
4.20306e-05
-6.36848e-05
3.86859e-05
-7.25398e-05
3.54228e-05
-8.05992e-05
3.22443e-05
-8.78988e-05
2.92001e-05
-9.44478e-05
2.62109e-05
-0.000100265
2.33329e-05
-0.000105419
2.06122e-05
-0.000109922
1.79512e-05
-0.000113721
1.52308e-05
-0.000116925
1.28291e-05
-0.000119535
1.04527e-05
-0.000121542
8.01521e-06
-0.000122973
5.74334e-06
-0.000123762
3.17896e-06
-0.000124001
9.6689e-07
-0.000123583
-1.61946e-06
-0.000122463
-4.53134e-06
-0.000120732
-6.93815e-06
-0.000118414
-9.29843e-06
-0.000115264
-1.25887e-05
-0.000111516
-1.50646e-05
-0.000106943
-1.82248e-05
-0.000101599
-2.14515e-05
-9.55659e-05
-2.40088e-05
-8.87791e-05
-2.71837e-05
-8.11497e-05
-3.05769e-05
-7.27559e-05
-3.35368e-05
-6.36586e-05
-3.63775e-05
-5.37584e-05
-3.95168e-05
-4.33123e-05
-4.17926e-05
-3.20233e-05
-4.50664e-05
-2.03228e-05
-4.66827e-05
-8.08535e-06
-4.88574e-05
4.59705e-06
-5.05919e-05
1.76383e-05
-5.20182e-05
3.09472e-05
-5.31088e-05
4.46138e-05
-5.45197e-05
5.86475e-05
-5.59839e-05
7.30974e-05
-5.76534e-05
8.80441e-05
-5.96573e-05
0.000103462
-6.15386e-05
0.000119422
-6.38093e-05
0.000135822
-6.55264e-05
0.000152519
-6.67611e-05
0.00016931
-6.71142e-05
0.000185825
-6.60094e-05
0.000201673
-6.33569e-05
0.000216422
-5.89374e-05
0.000229693
-5.31459e-05
0.000241097
-4.56943e-05
0.000250378
-3.719e-05
0.000257357
-2.79542e-05
0.000261959
-1.83839e-05
0.000264052
-8.37414e-06
0.000263636
1.3081e-06
0.00026083
1.10744e-05
0.00025569
2.04548e-05
0.000248338
2.93837e-05
0.00023889
3.77418e-05
0.000227543