/*--------------------------------*- C++ -*----------------------------------*\
| =========                 |                                                 |
| \\      /  F ield         | OpenFOAM: The Open Source CFD Toolbox           |
|  \\    /   O peration     | Version:  3.0.1                                 |
|   \\  /    A nd           | Web:      www.OpenFOAM.org                      |
|    \\/     M anipulation  |                                                 |
\*---------------------------------------------------------------------------*/
FoamFile
{
    version     2.0;
    format      ascii;
    class       volScalarField;
    location    "86.6";
    object      p;
}
// * * * * * * * * * * * * * * * * * * * * * * * * * * * * * * * * * * * * * //

dimensions      [1 -1 -2 0 0 0 0];

internalField   nonuniform List<scalar> 
21420
(
4282.18
4268.12
4250.57
4229.74
4205.86
4179.25
4150.24
4119.21
4086.54
4052.69
4018.08
3983.12
3948.2
3913.69
3879.94
3847.18
3815.69
3785.67
3757.26
3730.58
3705.73
3682.73
3661.62
3642.39
3625.01
3609.46
3595.69
3583.64
3573.27
3564.52
3557.34
3551.69
3547.54
3544.85
3543.65
3543.92
3545.63
3548.78
3553.44
3559.61
3567.33
3576.63
3587.57
3600.19
3614.52
3630.61
3648.5
3668.2
3689.7
3713.02
3738.11
3764.9
3793.29
3823.15
3854.32
3886.59
3919.68
3953.27
3987.23
4021.18
4054.74
4087.53
4119.16
4149.27
4177.5
4203.49
4226.92
4247.5
4264.95
4279.01
4289.51
4296.26
4299.16
4298.2
4293.29
4284.49
4271.86
4255.61
4235.98
4213.21
4187.61
4159.52
4129.31
4097.37
4064.11
4029.92
3995.23
3960.42
3925.89
3892.08
3859.02
3827.09
3796.53
3767.57
3740.37
3715.06
3691.74
3670.45
3651.23
3634.05
3618.9
3605.7
3594.4
3584.92
3577.17
3571.09
3566.6
3563.63
3562.12
3562.03
3563.37
3566.05
3570.08
3575.46
3582.19
3590.28
3599.75
3610.62
3622.9
3636.62
3651.78
3668.41
3686.51
3706.1
3727.15
3749.68
3773.64
3799.01
3825.72
3853.69
3882.8
3912.93
3944.03
3975.57
4007.45
4039.38
4071.05
4102.1
4132.16
4160.87
4187.82
4212.63
4234.94
4254.39
4270.67
4283.48
4292.6
4297.86
4299.06
4296.29
4289.47
4278.69
4264.08
4245.85
4224.28
4199.68
4172.41
4142.88
4111.53
4078.79
4045.13
4010.97
3976.75
3942.85
3909.65
3877.43
3846.49
3817.03
3789.25
3763.25
3739.13
3716.94
3696.67
3678.31
3661.83
3647.18
3634.29
3623.09
3613.51
3605.49
3598.93
3593.78
3589.98
3587.45
3586.15
3586.06
3587.15
3589.36
3592.71
3597.18
3602.79
3609.56
3617.51
3626.68
3637.14
3648.92
3662.08
3676.67
3692.74
3710.31
3729.41
3750.06
3772.25
3795.96
3821.14
3847.72
3875.6
3904.63
3934.63
3965.47
3996.74
4028.24
4059.63
4090.57
4120.7
4149.63
4176.97
4202.32
4225.29
4245.5
4262.59
4276.25
4286.21
4292.25
4294.22
4292.05
4285.78
4275.53
4261.4
4243.65
4222.57
4198.5
4171.82
4142.96
4112.34
4080.42
4047.63
4014.4
3981.14
3948.2
3915.92
3884.56
3854.39
3825.62
3798.41
3772.88
3749.13
3727.22
3707.14
3688.9
3672.45
3657.74
3644.71
3633.31
3623.47
3615.16
3608.32
3602.9
3598.85
3596.1
3594.6
3594.31
3595.22
3597.21
3600.31
3604.5
3609.79
3616.21
3623.75
3632.47
3642.4
3653.6
3666.11
3679.98
3695.26
3712.01
3730.27
3750.05
3771.36
3794.2
3818.53
3844.28
3871.36
3899.64
3928.98
3959.18
3989.97
4021.12
4052.25
4083.06
4113.13
4142.03
4169.35
4194.61
4217.37
4237.24
4253.84
4266.83
4275.98
4281.09
4282.02
4278.59
4271
4259.47
4244.16
4225.39
4203.51
4178.89
4151.97
4123.19
4092.99
4061.84
4030.19
3998.43
3966.95
3936.1
3906.32
3877.77
3850.2
3823.79
3798.65
3774.85
3752.4
3731.29
3711.51
3693.05
3675.89
3660.03
3645.47
3632.22
3620.31
3609.77
3600.65
3592.98
3586.82
3582.21
3579.18
3577.83
3578.2
3580.32
3584.23
3589.96
3597.52
3606.9
3618.12
3631.14
3645.94
3662.48
3680.71
3700.55
3721.92
3744.73
3768.84
3794.08
3820.24
3846.81
3871.93
4184.23
4170.15
4152.6
4131.75
4107.86
4081.22
4052.2
4021.15
3988.46
3954.6
3919.97
3884.99
3850.06
3815.53
3781.78
3749.01
3717.52
3687.49
3659.07
3632.4
3607.54
3584.54
3563.43
3544.21
3526.84
3511.29
3497.52
3485.47
3475.1
3466.35
3459.18
3453.53
3449.38
3446.7
3445.49
3445.77
3447.47
3450.62
3455.28
3461.45
3469.16
3478.46
3489.4
3502.02
3516.35
3532.43
3550.32
3570.02
3591.52
3614.84
3639.93
3666.72
3695.11
3724.98
3756.15
3788.44
3821.53
3855.13
3889.11
3923.07
3956.65
3989.45
4021.1
4051.23
4079.47
4105.48
4128.92
4149.51
4166.97
4181.05
4191.55
4198.31
4201.22
4200.25
4195.34
4186.53
4173.89
4157.64
4137.99
4115.2
4089.59
4061.49
4031.26
3999.3
3966.02
3931.82
3897.11
3862.29
3827.74
3793.92
3760.85
3728.91
3698.35
3669.38
3642.18
3616.87
3593.54
3572.26
3553.04
3535.86
3520.71
3507.52
3496.22
3486.74
3479
3472.93
3468.44
3465.47
3463.96
3463.87
3465.21
3467.9
3471.93
3477.3
3484.03
3492.12
3501.59
3512.46
3524.74
3538.45
3553.61
3570.24
3588.34
3607.92
3628.98
3651.51
3675.47
3700.84
3727.55
3755.52
3784.64
3814.77
3845.88
3877.43
3909.32
3941.26
3972.94
4004.01
4034.09
4062.81
4089.78
4114.61
4136.94
4156.41
4172.69
4185.52
4194.65
4199.91
4201.12
4198.34
4191.51
4180.73
4166.11
4147.87
4126.28
4101.66
4074.38
4044.83
4013.45
3980.7
3947.02
3912.84
3878.6
3844.69
3811.48
3779.26
3748.3
3718.85
3691.06
3665.06
3640.94
3618.75
3598.48
3580.13
3563.65
3549
3536.11
3524.92
3515.35
3507.32
3500.77
3495.63
3491.82
3489.3
3488
3487.91
3489
3491.21
3494.56
3499.03
3504.64
3511.41
3519.35
3528.53
3538.98
3550.76
3563.92
3578.51
3594.57
3612.14
3631.24
3651.88
3674.07
3697.78
3722.97
3749.55
3777.43
3806.47
3836.48
3867.32
3898.61
3930.11
3961.52
3992.48
4022.62
4051.57
4078.93
4104.29
4127.28
4147.51
4164.62
4178.29
4188.26
4194.31
4196.28
4194.1
4187.83
4177.58
4163.43
4145.67
4124.57
4100.48
4073.79
4044.9
4014.26
3982.32
3949.52
3916.28
3883
3850.05
3817.75
3786.39
3756.22
3727.44
3700.22
3674.7
3650.95
3629.03
3608.96
3590.72
3574.27
3559.56
3546.54
3535.14
3525.31
3517
3510.16
3504.75
3500.69
3497.95
3496.45
3496.17
3497.07
3499.07
3502.17
3506.36
3511.65
3518.06
3525.61
3534.32
3544.25
3555.45
3567.95
3581.82
3597.1
3613.85
3632.1
3651.88
3673.19
3696.03
3720.36
3746.11
3773.19
3801.48
3830.83
3861.03
3891.83
3922.98
3954.13
3984.96
4015.05
4043.97
4071.3
4096.59
4119.37
4139.26
4155.87
4168.88
4178.03
4183.16
4184.09
4180.65
4173.05
4161.51
4146.19
4127.4
4105.5
4080.86
4053.93
4025.13
3994.91
3963.74
3932.07
3900.29
3868.8
3837.95
3808.17
3779.6
3752.04
3725.63
3700.49
3676.68
3654.23
3633.13
3613.35
3594.89
3577.73
3561.87
3547.31
3534.06
3522.15
3511.62
3502.49
3494.82
3488.65
3484.04
3481.02
3479.66
3480.03
3482.15
3486.06
3491.79
3499.35
3508.73
3519.94
3532.97
3547.77
3564.31
3582.54
3602.38
3623.76
3646.57
3670.68
3695.92
3722.09
3748.66
3773.8
4086.43
4072.33
4054.75
4033.87
4009.94
3983.28
3954.22
3923.12
3890.4
3856.5
3821.84
3786.83
3751.88
3717.33
3683.55
3650.77
3619.26
3589.23
3560.81
3534.13
3509.27
3486.28
3465.17
3445.95
3428.58
3413.04
3399.28
3387.24
3376.87
3368.13
3360.95
3355.31
3351.17
3348.48
3347.28
3347.55
3349.25
3352.41
3357.06
3363.22
3370.94
3380.23
3391.16
3403.78
3418.1
3434.18
3452.07
3471.76
3493.26
3516.58
3541.67
3568.46
3596.86
3626.74
3657.92
3690.22
3723.34
3756.96
3790.96
3824.95
3858.56
3891.39
3923.07
3953.23
3981.51
4007.55
4031.02
4051.64
4069.12
4083.22
4093.74
4100.51
4103.45
4102.45
4097.53
4088.72
4076.07
4059.79
4040.11
4017.3
3991.65
3963.51
3933.25
3901.26
3867.94
3833.71
3798.97
3764.11
3729.54
3695.71
3662.62
3630.66
3600.08
3571.11
3543.9
3518.58
3495.26
3473.98
3454.76
3437.59
3422.44
3409.26
3397.97
3388.5
3380.77
3374.7
3370.21
3367.25
3365.74
3365.66
3367
3369.68
3373.71
3379.09
3385.82
3393.91
3403.37
3414.24
3426.51
3440.22
3455.39
3472.01
3490.11
3509.69
3530.75
3553.27
3577.24
3602.61
3629.32
3657.3
3686.42
3716.56
3747.69
3779.26
3811.17
3843.14
3874.84
3905.94
3936.05
3964.8
3991.81
4016.67
4039.03
4058.53
4074.85
4087.69
4096.84
4102.11
4103.35
4100.54
4093.71
4082.91
4068.27
4050.01
4028.39
4003.73
3976.41
3946.82
3915.41
3882.62
3848.9
3814.69
3780.42
3746.48
3713.25
3681.01
3650.04
3620.58
3592.78
3566.78
3542.67
3520.47
3500.21
3481.86
3465.39
3450.75
3437.87
3426.68
3417.12
3409.1
3402.56
3397.42
3393.62
3391.1
3389.8
3389.71
3390.8
3393.02
3396.37
3400.84
3406.45
3413.21
3421.15
3430.32
3440.77
3452.54
3465.69
3480.28
3496.34
3513.9
3533
3553.64
3575.83
3599.54
3624.73
3651.32
3679.21
3708.25
3738.28
3769.13
3800.44
3831.97
3863.41
3894.4
3924.58
3953.56
3980.95
4006.35
4029.37
4049.63
4066.77
4080.47
4090.46
4096.52
4098.51
4096.32
4090.04
4079.77
4065.6
4047.81
4026.67
4002.55
3975.82
3946.89
3916.22
3884.24
3851.4
3818.13
3784.82
3751.85
3719.53
3688.15
3657.97
3629.18
3601.96
3576.43
3552.68
3530.77
3510.7
3492.46
3476.02
3461.32
3448.3
3436.91
3427.08
3418.78
3411.95
3406.54
3402.49
3399.75
3398.25
3397.98
3398.88
3400.88
3403.98
3408.17
3413.46
3419.87
3427.41
3436.12
3446.05
3457.24
3469.74
3483.6
3498.87
3515.62
3533.87
3553.64
3574.95
3597.79
3622.11
3647.87
3674.95
3703.25
3732.61
3762.83
3793.65
3824.82
3856
3886.86
3916.98
3945.95
3973.32
3998.65
4021.47
4041.39
4058.04
4071.07
4080.24
4085.38
4086.33
4082.85
4075.25
4063.69
4048.35
4029.52
4007.58
3982.91
3955.93
3927.09
3896.84
3865.63
3833.93
3802.12
3770.61
3739.73
3709.96
3681.38
3653.81
3627.39
3602.25
3578.45
3556.01
3534.9
3515.13
3496.68
3479.52
3463.66
3449.1
3435.85
3423.94
3413.4
3404.27
3396.6
3390.43
3385.81
3382.78
3381.43
3381.79
3383.91
3387.82
3393.54
3401.1
3410.48
3421.69
3434.72
3449.52
3466.06
3484.29
3504.14
3525.52
3548.34
3572.45
3597.71
3623.89
3650.47
3675.63
3988.78
3974.65
3957.03
3936.11
3912.13
3885.41
3856.29
3825.14
3792.36
3758.41
3723.7
3688.64
3653.65
3619.06
3585.26
3552.46
3520.93
3490.88
3462.46
3435.77
3410.92
3387.92
3366.82
3347.61
3330.25
3314.72
3300.96
3288.93
3278.57
3269.84
3262.67
3257.04
3252.89
3250.21
3249.01
3249.28
3250.97
3254.13
3258.78
3264.94
3272.65
3281.93
3292.86
3305.46
3319.78
3335.86
3353.74
3373.43
3394.92
3418.24
3443.33
3470.13
3498.54
3528.43
3559.63
3591.95
3625.1
3658.75
3692.79
3726.82
3760.47
3793.35
3825.08
3855.29
3883.62
3909.7
3933.22
3953.88
3971.4
3985.53
3996.07
4002.87
4005.81
4004.81
3999.88
3991.05
3978.37
3962.07
3942.35
3919.49
3893.79
3865.6
3835.29
3803.24
3769.87
3735.59
3700.8
3665.91
3631.29
3597.44
3564.32
3532.33
3501.74
3472.75
3445.53
3420.21
3396.88
3375.6
3356.39
3339.23
3324.09
3310.92
3299.64
3290.18
3282.46
3276.4
3271.93
3268.97
3267.46
3267.4
3268.73
3271.42
3275.45
3280.82
3287.55
3295.64
3305.1
3315.96
3328.23
3341.94
3357.09
3373.72
3391.81
3411.39
3432.44
3454.96
3478.93
3504.31
3531.03
3559.01
3588.15
3618.29
3649.46
3681.05
3712.99
3744.99
3776.74
3807.88
3838.04
3866.85
3893.9
3918.82
3941.23
3960.78
3977.13
3990.01
3999.19
4004.48
4005.73
4002.9
3996.07
3985.25
3970.57
3952.27
3930.6
3905.89
3878.51
3848.87
3817.39
3784.54
3750.77
3716.51
3682.2
3648.23
3614.96
3582.69
3551.71
3522.22
3494.42
3468.42
3444.3
3422.11
3401.85
3383.52
3367.06
3352.42
3339.55
3328.38
3318.82
3310.82
3304.28
3299.15
3295.36
3292.85
3291.56
3291.48
3292.56
3294.78
3298.13
3302.6
3308.2
3314.96
3322.9
3332.06
3342.5
3354.26
3367.41
3381.99
3398.04
3415.6
3434.69
3455.33
3477.52
3501.23
3526.42
3553.02
3580.92
3609.98
3640.03
3670.9
3702.25
3733.82
3765.29
3796.33
3826.55
3855.58
3883.03
3908.48
3931.55
3951.86
3969.05
3982.79
3992.81
3998.89
4000.9
3998.7
3992.41
3982.11
3967.91
3950.07
3928.89
3904.71
3877.91
3848.93
3818.2
3786.16
3753.27
3719.95
3686.6
3653.6
3621.25
3589.85
3559.64
3530.84
3503.61
3478.07
3454.33
3432.42
3412.36
3394.13
3377.7
3363.01
3350
3338.61
3328.8
3320.5
3313.68
3308.27
3304.23
3301.5
3300.01
3299.75
3300.64
3302.65
3305.75
3309.94
3315.23
3321.63
3329.17
3337.88
3347.8
3358.98
3371.47
3385.32
3400.58
3417.32
3435.56
3455.33
3476.63
3499.47
3523.8
3549.56
3576.65
3604.95
3634.33
3664.57
3695.42
3726.63
3757.85
3788.75
3818.94
3847.96
3875.39
3900.78
3923.67
3943.64
3960.34
3973.41
3982.61
3987.76
3988.74
3985.22
3977.6
3966.01
3950.63
3931.75
3909.76
3885.03
3858
3829.09
3798.78
3767.52
3735.77
3703.92
3672.37
3641.46
3611.69
3583.1
3555.51
3529.09
3503.96
3480.16
3457.72
3436.62
3416.86
3398.4
3381.25
3365.39
3350.83
3337.58
3325.67
3315.13
3306
3298.32
3292.15
3287.52
3284.49
3283.13
3283.49
3285.6
3289.5
3295.23
3302.78
3312.16
3323.37
3336.39
3351.2
3367.74
3385.98
3405.83
3427.22
3450.05
3474.17
3499.44
3525.63
3552.23
3577.43
3891.28
3877.11
3859.43
3838.45
3814.4
3787.61
3758.42
3727.2
3694.35
3660.32
3625.54
3590.43
3555.38
3520.75
3486.9
3454.07
3422.52
3392.46
3364.02
3337.34
3312.48
3289.49
3268.39
3249.19
3231.84
3216.32
3202.58
3190.56
3180.21
3171.48
3164.33
3158.7
3154.56
3151.89
3150.69
3150.94
3152.64
3155.8
3160.44
3166.59
3174.29
3183.57
3194.49
3207.08
3221.39
3237.46
3255.33
3275.01
3296.5
3319.82
3344.91
3371.72
3400.14
3430.04
3461.27
3493.62
3526.81
3560.5
3594.59
3628.68
3662.39
3695.33
3727.13
3757.4
3785.79
3811.94
3835.52
3856.24
3873.8
3887.98
3898.55
3905.37
3908.33
3907.33
3902.38
3893.52
3880.82
3864.47
3844.7
3821.77
3796.01
3767.76
3737.37
3705.26
3671.82
3637.47
3602.62
3567.67
3533
3499.12
3465.96
3433.93
3403.31
3374.3
3347.07
3321.75
3298.42
3277.14
3257.94
3240.79
3225.66
3212.51
3201.24
3191.8
3184.09
3178.04
3173.58
3170.63
3169.14
3169.08
3170.41
3173.1
3177.13
3182.5
3189.23
3197.31
3206.77
3217.62
3229.89
3243.59
3258.74
3275.36
3293.45
3313.02
3334.07
3356.59
3380.56
3405.94
3432.67
3460.66
3489.81
3519.97
3551.19
3582.8
3614.78
3646.84
3678.64
3709.84
3740.07
3768.94
3796.07
3821.05
3843.53
3863.14
3879.55
3892.48
3901.69
3907
3908.27
3905.43
3898.58
3887.73
3873.01
3854.65
3832.92
3808.14
3780.68
3750.96
3719.41
3686.48
3652.63
3618.31
3583.94
3549.91
3516.6
3484.3
3453.29
3423.79
3395.97
3369.97
3345.85
3323.66
3303.42
3285.09
3268.64
3254.03
3241.17
3230.01
3220.47
3212.47
3205.95
3200.83
3197.05
3194.55
3193.26
3193.19
3194.28
3196.5
3199.84
3204.31
3209.92
3216.67
3224.6
3233.75
3244.18
3255.93
3269.07
3283.63
3299.68
3317.23
3336.31
3356.95
3379.13
3402.84
3428.04
3454.65
3482.57
3511.65
3541.73
3572.63
3604.02
3635.64
3667.17
3698.27
3728.56
3757.66
3785.17
3810.69
3833.84
3854.21
3871.46
3885.25
3895.31
3901.42
3903.44
3901.25
3894.93
3884.6
3870.35
3852.45
3831.2
3806.95
3780.08
3751.02
3720.21
3688.1
3655.13
3621.75
3588.35
3555.3
3522.91
3491.47
3461.24
3432.42
3405.18
3379.64
3355.89
3333.99
3313.93
3295.72
3279.3
3264.62
3251.62
3240.25
3230.45
3222.16
3215.35
3209.95
3205.92
3203.2
3201.72
3201.46
3202.37
3204.38
3207.48
3211.67
3216.95
3223.35
3230.88
3239.58
3249.49
3260.66
3273.14
3286.98
3302.23
3318.96
3337.19
3356.95
3378.25
3401.09
3425.42
3451.18
3478.28
3506.6
3536
3566.27
3597.15
3628.41
3659.69
3690.65
3720.91
3750.01
3777.53
3803
3825.96
3846.01
3862.77
3875.9
3885.14
3890.3
3891.3
3887.76
3880.11
3868.48
3853.04
3834.1
3812.03
3787.22
3760.11
3731.13
3700.74
3669.41
3637.59
3605.68
3574.08
3543.14
3513.36
3484.75
3457.15
3430.73
3405.59
3381.8
3359.36
3338.27
3318.52
3300.07
3282.92
3267.07
3252.51
3239.26
3227.34
3216.8
3207.66
3199.98
3193.8
3189.17
3186.13
3184.77
3185.11
3187.22
3191.12
3196.84
3204.39
3213.76
3224.98
3238
3252.8
3269.35
3287.59
3307.45
3328.85
3351.69
3375.83
3401.12
3427.33
3453.95
3479.19
3793.93
3779.7
3761.96
3740.9
3716.77
3689.89
3660.61
3629.29
3596.35
3562.23
3527.37
3492.18
3457.06
3422.37
3388.48
3355.61
3324.04
3293.95
3265.5
3238.81
3213.95
3190.97
3169.88
3150.69
3133.36
3117.85
3104.12
3092.12
3081.78
3073.07
3065.92
3060.3
3056.17
3053.51
3052.31
3052.55
3054.25
3057.4
3062.04
3068.19
3075.88
3085.14
3096.05
3108.63
3122.93
3138.98
3156.85
3176.52
3198
3221.32
3246.41
3273.22
3301.66
3331.59
3362.85
3395.23
3428.47
3462.21
3496.37
3530.52
3564.31
3597.33
3629.21
3659.57
3688.04
3714.26
3737.92
3758.71
3776.33
3790.56
3801.18
3808.02
3811
3810.01
3805.04
3796.15
3783.4
3766.99
3747.16
3724.16
3698.32
3669.97
3639.5
3607.3
3573.78
3539.34
3504.42
3469.39
3434.65
3400.75
3367.53
3335.46
3304.8
3275.77
3248.52
3223.19
3199.86
3178.59
3159.39
3142.26
3127.15
3114.01
3102.77
3093.34
3085.65
3079.62
3075.17
3072.24
3070.75
3070.7
3072.04
3074.73
3078.76
3084.13
3090.85
3098.93
3108.38
3119.23
3131.49
3145.18
3160.33
3176.94
3195.02
3214.59
3235.64
3258.15
3282.12
3307.5
3334.24
3362.25
3391.42
3421.6
3452.88
3484.52
3516.56
3548.67
3580.54
3611.82
3642.13
3671.09
3698.3
3723.37
3745.93
3765.61
3782.09
3795.08
3804.33
3809.67
3810.96
3808.12
3801.25
3790.35
3775.58
3757.16
3735.34
3710.47
3682.92
3653.1
3621.45
3588.43
3554.49
3520.09
3485.64
3451.55
3418.18
3385.84
3354.79
3325.27
3297.44
3271.43
3247.31
3225.13
3204.9
3186.58
3170.16
3155.55
3142.72
3131.57
3122.05
3114.07
3107.57
3102.46
3098.69
3096.2
3094.93
3094.86
3095.95
3098.17
3101.52
3105.98
3111.58
3118.32
3126.25
3135.39
3145.8
3157.54
3170.67
3185.22
3201.25
3218.79
3237.87
3258.5
3280.68
3304.39
3329.6
3356.22
3384.16
3413.27
3443.38
3474.32
3505.77
3537.45
3569.05
3600.22
3630.59
3659.77
3687.37
3712.99
3736.22
3756.68
3774
3787.86
3797.97
3804.11
3806.14
3803.96
3797.62
3787.23
3772.93
3754.96
3733.63
3709.28
3682.31
3653.15
3622.24
3590.04
3556.99
3523.53
3490.05
3456.95
3424.51
3393.03
3362.77
3333.92
3306.66
3281.12
3257.37
3235.47
3215.43
3197.23
3180.83
3166.17
3153.18
3141.82
3132.03
3123.76
3116.96
3111.58
3107.56
3104.85
3103.38
3103.14
3104.04
3106.06
3109.16
3113.35
3118.63
3125.02
3132.55
3141.24
3151.14
3162.29
3174.76
3188.58
3203.82
3220.53
3238.75
3258.51
3279.8
3302.63
3326.96
3352.73
3379.84
3408.18
3437.61
3467.91
3498.84
3530.15
3561.5
3592.55
3622.9
3652.09
3679.71
3705.29
3728.35
3748.5
3765.34
3778.54
3787.82
3793.01
3794.01
3790.46
3782.78
3771.09
3755.58
3736.55
3714.4
3689.49
3662.28
3633.19
3602.71
3571.29
3539.38
3507.41
3475.75
3444.75
3414.97
3386.34
3358.73
3332.3
3307.16
3283.37
3260.95
3239.87
3220.12
3201.68
3184.54
3168.69
3154.13
3140.88
3128.96
3118.41
3109.27
3101.58
3095.39
3090.75
3087.71
3086.33
3086.66
3088.76
3092.66
3098.37
3105.92
3115.29
3126.5
3139.53
3154.33
3170.89
3189.14
3209.01
3230.42
3253.27
3277.43
3302.73
3328.97
3355.62
3380.92
3696.74
3682.44
3664.62
3643.47
3619.24
3592.25
3562.86
3531.43
3498.37
3464.15
3429.19
3393.91
3358.71
3323.95
3290
3257.08
3225.47
3195.37
3166.9
3140.2
3115.35
3092.37
3071.29
3052.11
3034.79
3019.3
3005.59
2993.61
2983.29
2974.59
2967.45
2961.84
2957.72
2955.07
2953.87
2954.11
2955.8
2958.95
2963.58
2969.72
2977.4
2986.65
2997.54
3010.11
3024.39
3040.44
3058.28
3077.94
3099.42
3122.73
3147.83
3174.65
3203.11
3233.06
3264.36
3296.79
3330.09
3363.89
3398.12
3432.36
3466.23
3499.35
3531.33
3561.78
3590.35
3616.67
3640.42
3661.29
3678.99
3693.28
3703.95
3710.83
3713.82
3712.83
3707.85
3698.92
3686.12
3669.65
3649.73
3626.64
3600.7
3572.25
3541.67
3509.37
3475.74
3441.21
3406.2
3371.08
3336.25
3302.32
3269.03
3236.91
3206.21
3177.15
3149.89
3124.54
3101.21
3079.95
3060.76
3043.65
3028.56
3015.44
3004.22
2994.82
2987.15
2981.14
2976.71
2973.79
2972.32
2972.27
2973.61
2976.3
2980.34
2985.7
2992.42
3000.49
3009.94
3020.77
3033.03
3046.71
3061.85
3078.45
3096.53
3116.09
3137.13
3159.65
3183.62
3209
3235.75
3263.78
3292.98
3323.17
3354.52
3386.2
3418.3
3450.49
3482.45
3513.81
3544.22
3573.28
3600.59
3625.77
3648.43
3668.21
3684.77
3697.83
3707.14
3712.51
3713.81
3710.98
3704.07
3693.13
3678.29
3659.78
3637.87
3612.9
3585.23
3555.29
3523.52
3490.38
3456.34
3421.84
3387.3
3353.13
3319.7
3287.3
3256.22
3226.67
3198.82
3172.8
3148.68
3126.51
3106.29
3088
3071.59
3057.01
3044.19
3033.07
3023.57
3015.61
3009.12
3004.04
3000.28
2997.8
2996.54
2996.48
2997.57
2999.8
3003.15
3007.61
3013.2
3019.94
3027.85
3036.97
3047.37
3059.1
3072.2
3086.74
3102.76
3120.29
3139.35
3159.98
3182.16
3205.87
3231.08
3257.72
3285.68
3314.83
3344.98
3375.97
3407.48
3439.24
3470.92
3502.18
3532.65
3561.93
3589.64
3615.36
3638.69
3659.25
3676.67
3690.6
3700.78
3706.96
3709.01
3706.83
3700.46
3690.02
3675.65
3657.59
3636.16
3611.7
3584.61
3555.33
3524.3
3491.99
3458.84
3425.28
3391.72
3358.55
3326.04
3294.52
3264.22
3235.34
3208.07
3182.51
3158.77
3136.88
3116.85
3098.67
3082.28
3067.64
3054.68
3043.33
3033.56
3025.3
3018.52
3013.15
3009.14
3006.45
3005
3004.76
3005.68
3007.7
3010.8
3014.99
3020.26
3026.65
3034.16
3042.84
3052.73
3063.87
3076.32
3090.12
3105.35
3122.04
3140.25
3159.99
3181.28
3204.11
3228.44
3254.21
3281.33
3309.69
3339.15
3369.5
3400.48
3431.87
3463.3
3494.45
3524.9
3554.22
3581.96
3607.66
3630.85
3651.11
3668.05
3681.32
3690.66
3695.88
3696.89
3693.33
3685.59
3673.84
3658.24
3639.12
3616.86
3591.83
3564.5
3535.29
3504.69
3473.17
3441.16
3409.1
3377.36
3346.32
3316.53
3287.87
3260.24
3233.8
3208.66
3184.88
3162.47
3141.4
3121.66
3103.23
3086.1
3070.25
3055.69
3042.44
3030.52
3019.96
3010.81
3003.11
2996.92
2992.27
2989.22
2987.83
2988.15
2990.24
2994.13
2999.84
3007.38
3016.75
3027.96
3040.98
3055.79
3072.35
3090.61
3110.49
3131.91
3154.78
3178.97
3204.3
3230.56
3257.25
3282.61
3599.69
3585.32
3567.4
3546.14
3521.8
3494.69
3465.16
3433.6
3400.41
3366.07
3330.99
3295.6
3260.3
3225.46
3191.45
3158.48
3126.83
3096.69
3068.21
3041.51
3016.65
2993.68
2972.61
2953.45
2936.15
2920.68
2906.99
2895.03
2884.73
2876.04
2868.92
2863.33
2859.22
2856.57
2855.37
2855.61
2857.3
2860.44
2865.07
2871.19
2878.85
2888.09
2898.97
2911.52
2925.78
2941.81
2959.64
2979.29
3000.76
3024.07
3049.17
3076.01
3104.48
3134.47
3165.8
3198.29
3231.65
3265.53
3299.85
3334.18
3368.16
3401.39
3433.48
3464.05
3492.74
3519.17
3543.02
3563.99
3581.77
3596.13
3606.86
3613.79
3616.8
3615.81
3610.81
3601.84
3588.98
3572.43
3552.41
3529.22
3503.16
3474.59
3443.89
3411.46
3377.72
3343.08
3307.95
3272.73
3237.8
3203.84
3170.46
3138.28
3107.54
3078.45
3051.16
3025.8
3002.47
2981.21
2962.04
2944.95
2929.88
2916.79
2905.6
2896.22
2888.58
2882.59
2878.18
2875.28
2873.82
2873.78
2875.13
2877.83
2881.86
2887.22
2893.93
2902
2911.43
2922.26
2934.51
2948.19
2963.31
2979.9
2997.97
3017.53
3038.56
3061.08
3085.05
3110.44
3137.2
3165.25
3194.47
3224.72
3256.08
3287.84
3320.02
3352.3
3384.35
3415.82
3446.34
3475.52
3502.96
3528.26
3551.03
3570.92
3587.58
3600.72
3610.09
3615.5
3616.82
3613.99
3607.05
3596.05
3581.14
3562.53
3540.51
3515.41
3487.61
3457.53
3425.62
3392.35
3358.18
3323.56
3288.92
3254.66
3221.15
3188.69
3157.56
3127.98
3100.11
3074.08
3049.97
3027.81
3007.61
2989.33
2972.94
2958.39
2945.6
2934.5
2925.03
2917.09
2910.63
2905.56
2901.82
2899.35
2898.11
2898.05
2899.15
2901.38
2904.73
2909.19
2914.77
2921.5
2929.4
2938.51
2948.89
2960.59
2973.68
2988.2
3004.2
3021.72
3040.77
3061.39
3083.56
3107.28
3132.5
3159.15
3187.14
3216.33
3246.53
3277.58
3309.17
3341.01
3372.78
3404.15
3434.73
3464.14
3491.97
3517.81
3541.27
3561.94
3579.47
3593.5
3603.74
3609.98
3612.04
3609.86
3603.47
3592.96
3578.51
3560.35
3538.79
3514.2
3486.98
3457.56
3426.39
3393.95
3360.67
3327
3293.35
3260.1
3227.52
3195.94
3165.59
3136.69
3109.39
3083.83
3060.08
3038.2
3018.19
3000.02
2983.66
2969.04
2956.1
2944.78
2935.02
2926.78
2920.01
2914.66
2910.68
2908
2906.57
2906.34
2907.27
2909.29
2912.4
2916.59
2921.86
2928.23
2935.73
2944.4
2954.27
2965.39
2977.82
2991.6
3006.81
3023.48
3041.67
3061.4
3082.68
3105.51
3129.84
3155.62
3182.75
3211.14
3240.64
3271.03
3302.08
3333.55
3365.08
3396.34
3426.92
3456.38
3484.26
3510.11
3533.44
3553.83
3570.89
3584.25
3593.66
3598.92
3599.93
3596.35
3588.57
3576.73
3561.04
3541.8
3519.41
3494.24
3466.77
3437.43
3406.69
3375.04
3342.92
3310.75
3278.93
3247.82
3218.02
3189.33
3161.68
3135.23
3110.1
3086.32
3063.92
3042.87
3023.14
3004.72
2987.6
2971.76
2957.2
2943.95
2932.02
2921.46
2912.3
2904.59
2898.38
2893.72
2890.66
2889.26
2889.57
2891.65
2895.53
2901.23
2908.77
2918.13
2929.34
2942.36
2957.17
2973.74
2992.01
3011.9
3033.34
3056.24
3080.44
3105.8
3132.1
3158.83
3184.27
3502.8
3488.34
3470.31
3448.93
3424.45
3397.2
3367.52
3335.81
3302.48
3267.98
3232.77
3197.26
3161.86
3126.92
3092.83
3059.8
3028.11
2997.94
2969.44
2942.73
2917.87
2894.91
2873.86
2854.71
2837.43
2821.99
2808.32
2796.38
2786.1
2777.44
2770.33
2764.75
2760.65
2758.01
2756.82
2757.06
2758.73
2761.88
2766.49
2772.6
2780.25
2789.47
2800.33
2812.86
2827.1
2843.11
2860.93
2880.56
2902.02
2925.32
2950.43
2977.28
3005.78
3035.8
3067.18
3099.73
3133.17
3167.13
3201.55
3235.99
3270.09
3303.45
3335.67
3366.37
3395.19
3421.75
3445.72
3466.8
3484.68
3499.13
3509.92
3516.9
3519.93
3518.95
3513.92
3504.9
3491.97
3475.33
3455.21
3431.9
3405.71
3377
3346.16
3313.59
3279.71
3244.93
3209.69
3174.35
3139.3
3105.3
3071.83
3039.58
3008.79
2979.65
2952.34
2926.97
2903.64
2882.39
2863.23
2846.16
2831.13
2818.06
2806.9
2797.56
2789.95
2783.98
2779.59
2776.71
2775.27
2775.25
2776.6
2779.3
2783.33
2788.69
2795.39
2803.45
2812.88
2823.7
2835.93
2849.6
2864.71
2881.29
2899.35
2918.9
2939.93
2962.44
2986.41
3011.81
3038.58
3066.65
3095.91
3126.22
3157.59
3189.45
3221.71
3254.09
3286.25
3317.85
3348.5
3377.81
3405.39
3430.83
3453.74
3473.75
3490.52
3503.76
3513.2
3518.66
3520
3517.16
3510.18
3499.12
3484.12
3465.41
3443.26
3418.01
3390.05
3359.81
3327.75
3294.32
3260.01
3225.26
3190.5
3156.14
3122.54
3090.01
3058.83
3029.21
3001.32
2975.28
2951.17
2929.02
2908.83
2890.58
2874.22
2859.69
2846.93
2835.87
2826.42
2818.51
2812.07
2807.03
2803.31
2800.86
2799.63
2799.58
2800.69
2802.92
2806.27
2810.73
2816.3
2823.02
2830.9
2839.99
2850.35
2862.03
2875.1
2889.6
2905.58
2923.08
2942.12
2962.73
2984.9
3008.62
3033.85
3060.52
3088.54
3117.77
3148.03
3179.14
3210.82
3242.76
3274.64
3306.13
3336.84
3366.38
3394.35
3420.34
3443.94
3464.75
3482.4
3496.53
3506.86
3513.15
3515.25
3513.06
3506.63
3496.06
3481.5
3463.22
3441.53
3416.79
3389.41
3359.83
3328.51
3295.91
3262.5
3228.7
3194.93
3161.59
3128.94
3097.29
3066.89
3037.95
3010.63
2985.05
2961.31
2939.43
2919.44
2901.3
2884.97
2870.38
2857.46
2846.16
2836.43
2828.21
2821.46
2816.12
2812.16
2809.5
2808.09
2807.87
2808.81
2810.85
2813.96
2818.14
2823.4
2829.77
2837.26
2845.91
2855.76
2866.86
2879.26
2893.02
2908.21
2924.86
2943.03
2962.75
2984.02
3006.84
3031.17
3056.96
3084.11
3112.52
3142.06
3172.51
3203.64
3235.19
3266.84
3298.23
3328.96
3358.57
3386.63
3412.64
3436.13
3456.67
3473.86
3487.33
3496.82
3502.12
3503.14
3499.54
3491.69
3479.77
3463.96
3444.59
3422.05
3396.73
3369.09
3339.59
3308.7
3276.9
3244.65
3212.37
3180.45
3149.27
3119.45
3090.73
3063.06
3036.6
3011.46
2987.7
2965.31
2944.28
2924.57
2906.16
2889.04
2873.21
2858.65
2845.4
2833.47
2822.9
2813.73
2806.01
2799.79
2795.12
2792.04
2790.63
2790.91
2792.99
2796.86
2802.55
2810.08
2819.44
2830.64
2843.66
2858.48
2875.05
2893.33
2913.24
2934.71
2957.62
2981.86
3007.25
3033.58
3060.36
3085.89
3406.07
3391.5
3373.35
3351.83
3327.2
3299.78
3269.94
3238.06
3204.55
3169.9
3134.54
3098.89
3063.36
3028.33
2994.15
2961.05
2929.3
2899.1
2870.58
2843.86
2819
2796.05
2775.01
2755.89
2738.64
2723.22
2709.58
2697.66
2687.41
2678.77
2671.68
2666.12
2662.03
2659.4
2658.21
2658.45
2660.12
2663.25
2667.85
2673.95
2681.58
2690.78
2701.62
2714.13
2728.35
2744.33
2762.13
2781.75
2803.2
2826.5
2851.61
2878.47
2907
2937.05
2968.49
3001.11
3034.63
3068.69
3103.22
3137.79
3172.03
3205.53
3237.89
3268.75
3297.71
3324.41
3348.52
3369.72
3387.72
3402.26
3413.13
3420.16
3423.22
3422.24
3417.19
3408.12
3395.11
3378.37
3358.12
3334.67
3308.33
3279.47
3248.47
3215.74
3181.7
3146.79
3111.4
3075.93
3040.74
3006.71
2973.12
2940.8
2909.95
2880.77
2853.43
2828.05
2804.71
2783.47
2764.34
2747.29
2732.28
2719.26
2708.13
2698.82
2691.24
2685.31
2680.95
2678.09
2676.67
2676.65
2678.01
2680.71
2684.74
2690.1
2696.8
2704.84
2714.26
2725.07
2737.29
2750.94
2766.05
2782.62
2800.67
2820.2
2841.22
2863.73
2887.7
2913.11
2939.89
2967.99
2997.29
3027.66
3059.07
3091.02
3123.38
3155.87
3188.15
3219.89
3250.68
3280.15
3307.89
3333.48
3356.54
3376.7
3393.6
3406.94
3416.46
3421.97
3423.34
3420.5
3413.48
3402.34
3387.25
3368.41
3346.11
3320.7
3292.57
3262.15
3229.9
3196.31
3161.83
3126.92
3092.03
3057.56
3023.86
2991.25
2960.01
2930.35
2902.43
2876.39
2852.28
2830.14
2809.98
2791.75
2775.42
2760.93
2748.2
2737.17
2727.75
2719.88
2713.46
2708.44
2704.75
2702.32
2701.1
2701.07
2702.18
2704.42
2707.76
2712.22
2717.79
2724.49
2732.35
2741.42
2751.76
2763.42
2776.46
2790.93
2806.89
2824.37
2843.4
2863.99
2886.16
2909.88
2935.13
2961.82
2989.88
3019.15
3049.48
3080.66
3112.44
3144.49
3176.5
3208.12
3238.98
3268.67
3296.8
3322.95
3346.71
3367.67
3385.45
3399.71
3410.14
3416.49
3418.62
3416.43
3409.95
3399.3
3384.64
3366.23
3344.38
3319.47
3291.91
3262.15
3230.65
3197.88
3164.31
3130.38
3096.48
3063.04
3030.29
2998.56
2968.11
2939.13
2911.78
2886.19
2862.45
2840.59
2820.62
2802.5
2786.2
2771.64
2758.75
2747.48
2737.77
2729.57
2722.84
2717.53
2713.59
2710.96
2709.57
2709.36
2710.32
2712.36
2715.47
2719.65
2724.91
2731.26
2738.74
2747.37
2757.2
2768.28
2780.65
2794.39
2809.54
2826.17
2844.32
2864.02
2885.28
2908.1
2932.43
2958.22
2985.39
3013.83
3043.42
3073.93
3105.14
3136.8
3168.58
3200.12
3231.01
3260.8
3289.04
3315.25
3338.92
3359.63
3376.98
3390.56
3400.13
3405.48
3406.51
3402.89
3394.98
3382.95
3367.02
3347.49
3324.78
3299.29
3271.47
3241.79
3210.72
3178.76
3146.36
3113.95
3081.92
3050.66
3020.83
2992.07
2964.36
2937.89
2912.76
2889.01
2866.64
2845.62
2825.93
2807.54
2790.43
2774.6
2760.05
2746.8
2734.86
2724.28
2715.1
2707.37
2701.13
2696.45
2693.36
2691.93
2692.19
2694.25
2698.12
2703.8
2711.32
2720.68
2731.87
2744.89
2759.71
2776.29
2794.59
2814.52
2836
2858.94
2883.21
2908.64
2935.02
2961.84
2987.47
3309.48
3294.8
3276.51
3254.84
3230.04
3202.45
3172.42
3140.35
3106.65
3071.82
3036.29
3000.48
2964.82
2929.67
2895.39
2862.22
2830.42
2800.18
2771.64
2744.9
2720.05
2697.11
2676.09
2656.99
2639.76
2624.38
2610.77
2598.88
2588.65
2580.03
2572.97
2567.42
2563.35
2560.73
2559.54
2559.78
2561.44
2564.57
2569.16
2575.23
2582.85
2592.03
2602.84
2615.32
2629.52
2645.48
2663.26
2682.86
2704.29
2727.59
2752.71
2779.58
2808.14
2838.24
2869.73
2902.44
2936.04
2970.21
3004.86
3039.57
3073.96
3107.62
3140.15
3171.17
3200.3
3227.16
3251.43
3272.76
3290.88
3305.53
3316.49
3323.57
3326.67
3325.7
3320.62
3311.48
3298.38
3281.53
3261.15
3237.54
3211.03
3182
3150.82
3117.92
3083.71
3048.63
3013.08
2977.48
2942.13
2908.06
2874.34
2841.94
2811.02
2781.8
2754.43
2729.03
2705.69
2684.46
2665.35
2648.33
2633.36
2620.37
2609.29
2600.02
2592.47
2586.58
2582.24
2579.4
2578
2578
2579.37
2582.08
2586.11
2591.46
2598.15
2606.19
2615.59
2626.39
2638.59
2652.23
2667.32
2683.88
2701.91
2721.44
2742.45
2764.96
2788.93
2814.34
2841.14