/*--------------------------------*- C++ -*----------------------------------*\
| =========                 |                                                 |
| \\      /  F ield         | OpenFOAM: The Open Source CFD Toolbox           |
|  \\    /   O peration     | Version:  3.0.1                                 |
|   \\  /    A nd           | Web:      www.OpenFOAM.org                      |
|    \\/     M anipulation  |                                                 |
\*---------------------------------------------------------------------------*/
FoamFile
{
    version     2.0;
    format      ascii;
    class       volVectorField;
    location    "35.4";
    object      U;
}
// * * * * * * * * * * * * * * * * * * * * * * * * * * * * * * * * * * * * * //

dimensions      [0 1 -1 0 0 0 0];

internalField   nonuniform List<vector> 
21420
(
(-0.112226 -0.000523459 0)
(-0.107362 -0.000603885 0)
(-0.100865 -0.000685355 0)
(-0.0935189 -0.000770022 0)
(-0.0852809 -0.000863658 0)
(-0.0761158 -0.000954857 0)
(-0.0659902 -0.00105675 0)
(-0.0548795 -0.00115194 0)
(-0.0427714 -0.00124628 0)
(-0.0296546 -0.00135462 0)
(-0.0154603 -0.00144673 0)
(-0.000422588 -0.00152647 0)
(0.0154038 -0.00162724 0)
(0.0321378 -0.001693 0)
(0.0495777 -0.00177462 0)
(0.0675885 -0.00181264 0)
(0.0859969 -0.00183022 0)
(0.104614 -0.00186304 0)
(0.123236 -0.00183937 0)
(0.141615 -0.00178957 0)
(0.159498 -0.00174892 0)
(0.176632 -0.00165023 0)
(0.192739 -0.00152569 0)
(0.207546 -0.00139837 0)
(0.220799 -0.00122594 0)
(0.232256 -0.00104346 0)
(0.241702 -0.000830089 0)
(0.248953 -0.000603006 0)
(0.253878 -0.000364686 0)
(0.256338 -0.000117319 0)
(0.256354 0.000128776 0)
(0.253855 0.000376228 0)
(0.2488 0.000623132 0)
(0.24141 0.000842258 0)
(0.231785 0.00105819 0)
(0.220088 0.00126441 0)
(0.206524 0.00141879 0)
(0.191353 0.00157439 0)
(0.174808 0.00171061 0)
(0.157146 0.00178513 0)
(0.138645 0.00186516 0)
(0.119552 0.00188851 0)
(0.100162 0.00191713 0)
(0.0806376 0.00192225 0)
(0.0612066 0.00188681 0)
(0.0421719 0.00184642 0)
(0.0234626 0.00179633 0)
(0.00589623 0.00171975 0)
(-0.0105898 0.00164761 0)
(-0.0266355 0.00156454 0)
(-0.041834 0.00146723 0)
(-0.0561242 0.00137546 0)
(-0.0694685 0.00127529 0)
(-0.081856 0.00118131 0)
(-0.0932855 0.00108611 0)
(-0.103772 0.00099032 0)
(-0.113341 0.000901018 0)
(-0.122007 0.000811118 0)
(-0.129802 0.000724927 0)
(-0.136757 0.000641768 0)
(-0.142903 0.000559772 0)
(-0.14829 0.000487457 0)
(-0.152897 0.000410729 0)
(-0.156745 0.000337171 0)
(-0.159906 0.000267651 0)
(-0.162338 0.000199528 0)
(-0.164011 0.000121002 0)
(-0.164981 5.69608e-05 0)
(-0.165196 -1.94857e-05 0)
(-0.164609 -9.02009e-05 0)
(-0.163313 -0.000167669 0)
(-0.161147 -0.000251975 0)
(-0.158174 -0.000338196 0)
(-0.154362 -0.000408617 0)
(-0.149604 -0.000522086 0)
(-0.14397 -0.000597134 0)
(-0.137384 -0.000715152 0)
(-0.129638 -0.000804007 0)
(-0.121058 -0.000899841 0)
(-0.111458 -0.00100933 0)
(-0.100757 -0.00110169 0)
(-0.08923 -0.00120047 0)
(-0.0766726 -0.00128984 0)
(-0.0630903 -0.00138538 0)
(-0.0487401 -0.0014736 0)
(-0.0334611 -0.00155467 0)
(-0.0174812 -0.00162979 0)
(-0.000752439 -0.00168877 0)
(0.0167228 -0.0017487 0)
(0.0345743 -0.00178966 0)
(0.0527632 -0.00181717 0)
(0.071106 -0.00182591 0)
(0.0894387 -0.00181271 0)
(0.107554 -0.00177404 0)
(0.125158 -0.00171398 0)
(0.142032 -0.00163048 0)
(0.157954 -0.00152564 0)
(0.172664 -0.0013883 0)
(0.185918 -0.00123706 0)
(0.197488 -0.00105536 0)
(0.207177 -0.000863126 0)
(0.214849 -0.00065311 0)
(0.220343 -0.000429197 0)
(0.223525 -0.000204624 0)
(0.224399 2.84467e-05 0)
(0.222961 0.000263704 0)
(0.219005 0.000501968 0)
(0.212816 0.000730623 0)
(0.204373 0.000944428 0)
(0.193804 0.0011473 0)
(0.181307 0.00133087 0)
(0.167048 0.00149039 0)
(0.151267 0.00163577 0)
(0.134196 0.0017499 0)
(0.116097 0.00183845 0)
(0.0972197 0.00190198 0)
(0.0778377 0.00193867 0)
(0.0582365 0.00195131 0)
(0.0386168 0.00194066 0)
(0.0192172 0.00190619 0)
(0.000271582 0.00185915 0)
(-0.018095 0.00178607 0)
(-0.0357419 0.00171245 0)
(-0.0525287 0.00162034 0)
(-0.0683583 0.00152431 0)
(-0.083186 0.00142054 0)
(-0.0969892 0.00131707 0)
(-0.109749 0.0012133 0)
(-0.12144 0.00110662 0)
(-0.132035 0.000999379 0)
(-0.141584 0.000894946 0)
(-0.150083 0.000794216 0)
(-0.157542 0.00068699 0)
(-0.164021 0.000592684 0)
(-0.169523 0.0005035 0)
(-0.174092 0.000406398 0)
(-0.177766 0.000324524 0)
(-0.180594 0.000237312 0)
(-0.182626 0.000153744 0)
(-0.183819 9.37997e-05 0)
(-0.184324 1.67085e-05 0)
(-0.184153 -5.32355e-05 0)
(-0.183301 -0.000120027 0)
(-0.181788 -0.000182042 0)
(-0.179625 -0.000250034 0)
(-0.176824 -0.000302019 0)
(-0.173396 -0.000375039 0)
(-0.169349 -0.000425585 0)
(-0.16467 -0.000492506 0)
(-0.159372 -0.000553644 0)
(-0.153437 -0.000623072 0)
(-0.146821 -0.000687323 0)
(-0.139499 -0.000763324 0)
(-0.131402 -0.000840974 0)
(-0.122499 -0.00092207 0)
(-0.112851 -0.00100529 0)
(-0.10233 -0.00107868 0)
(-0.0909405 -0.0011656 0)
(-0.0787534 -0.00125356 0)
(-0.0656939 -0.00133385 0)
(-0.0518176 -0.00141445 0)
(-0.0371823 -0.0014896 0)
(-0.0218251 -0.00156359 0)
(-0.00578037 -0.00161623 0)
(0.0108614 -0.00166785 0)
(0.0278964 -0.00170722 0)
(0.0452026 -0.00172046 0)
(0.0625936 -0.00172914 0)
(0.0799489 -0.00170958 0)
(0.0970266 -0.00167091 0)
(0.113544 -0.00160045 0)
(0.129226 -0.001512 0)
(0.143872 -0.00139229 0)
(0.157205 -0.00125262 0)
(0.168998 -0.00108134 0)
(0.178956 -0.000880824 0)
(0.186828 -0.000673661 0)
(0.192469 -0.000441845 0)
(0.195698 -0.000201133 0)
(0.196451 5.17408e-05 0)
(0.194672 0.000304287 0)
(0.190252 0.000556656 0)
(0.183472 0.000787406 0)
(0.17438 0.00100844 0)
(0.163213 0.00120776 0)
(0.150154 0.00137752 0)
(0.135465 0.00153415 0)
(0.119437 0.00164562 0)
(0.102365 0.00173555 0)
(0.0845578 0.00179628 0)
(0.0662817 0.00182681 0)
(0.0478277 0.00183209 0)
(0.029422 0.00181479 0)
(0.011313 0.00177637 0)
(-0.0063121 0.0017272 0)
(-0.0233391 0.00165372 0)
(-0.0396104 0.00157479 0)
(-0.0550555 0.00148724 0)
(-0.0695727 0.00138731 0)
(-0.0830542 0.00129544 0)
(-0.0955705 0.00118689 0)
(-0.107094 0.00109617 0)
(-0.117629 0.00100479 0)
(-0.127258 0.000907206 0)
(-0.13598 0.000820713 0)
(-0.143832 0.000736442 0)
(-0.150887 0.000661506 0)
(-0.157164 0.000582467 0)
(-0.162703 0.000512702 0)
(-0.167538 0.000449461 0)
(-0.171725 0.000380147 0)
(-0.175252 0.00032502 0)
(-0.178159 0.000256386 0)
(-0.180451 0.000195071 0)
(-0.182097 0.000132975 0)
(-0.183129 7.92668e-05 0)
(-0.183606 1.4742e-05 0)
(-0.183461 -4.23645e-05 0)
(-0.182727 -0.000101238 0)
(-0.181397 -0.000160085 0)
(-0.179479 -0.000218039 0)
(-0.176954 -0.00029558 0)
(-0.173695 -0.000348822 0)
(-0.169716 -0.00042899 0)
(-0.165022 -0.000501557 0)
(-0.159562 -0.000576606 0)
(-0.153311 -0.000661151 0)
(-0.146225 -0.000745637 0)
(-0.13826 -0.000831159 0)
(-0.129412 -0.000925185 0)
(-0.11962 -0.00101433 0)
(-0.10887 -0.00111145 0)
(-0.0972343 -0.0012123 0)
(-0.0846214 -0.00128427 0)
(-0.0711399 -0.00137706 0)
(-0.0568632 -0.00145855 0)
(-0.0418058 -0.00152529 0)
(-0.0260793 -0.00159204 0)
(-0.00972786 -0.00164425 0)
(0.00710896 -0.0016884 0)
(0.0242647 -0.0017095 0)
(0.0415699 -0.00172216 0)
(0.0588806 -0.00171036 0)
(0.076 -0.00168089 0)
(0.0927097 -0.00162868 0)
(0.108761 -0.00155097 0)
(0.123939 -0.00145697 0)
(0.138032 -0.00133346 0)
(0.150755 -0.00118668 0)
(0.161897 -0.00102099 0)
(0.171236 -0.000826926 0)
(0.178583 -0.000627272 0)
(0.183825 -0.000409565 0)
(0.186799 -0.000182902 0)
(0.187485 4.66597e-05 0)
(0.185863 0.000280296 0)
(0.181787 0.000515616 0)
(0.175515 0.000727604 0)
(0.167138 0.000929295 0)
(0.156784 0.00112292 0)
(0.144667 0.00128001 0)
(0.130977 0.0014261 0)
(0.115972 0.00154964 0)
(0.0999059 0.00164448 0)
(0.083014 0.00171184 0)
(0.0655601 0.00175565 0)
(0.0477195 0.00177698 0)
(0.0298174 0.00176867 0)
(0.0121401 0.00174741 0)
(-0.00522372 0.00170217 0)
(-0.0220766 0.00164284 0)
(-0.0382295 0.00157818 0)
(-0.0536906 0.00149617 0)
(-0.0682952 0.00140811 0)
(-0.0819518 0.0013138 0)
(-0.0946102 0.00121349 0)
(-0.106299 0.00111388 0)
(-0.116999 0.00100988 0)
(-0.126558 0.000897806 0)
(-0.135043 0.000788129 0)
(-0.142502 0.000691616 0)
(-0.148956 0.000592571 0)
(-0.154606 0.000513503 0)
(-0.159493 0.000436019 0)
(-0.163639 0.000367316 0)
(-0.167259 0.000312512 0)
(-0.170295 0.000252426 0)
(-0.172662 0.000189847 0)
(-0.174448 0.000136405 0)
(-0.175555 6.87917e-05 0)
(-0.176004 1.457e-05 0)
(-0.175865 -5.05577e-05 0)
(-0.17497 -0.000123968 0)
(-0.173396 -0.000185182 0)
(-0.171178 -0.000259452 0)
(-0.168135 -0.000344177 0)
(-0.16431 -0.000419064 0)
(-0.159718 -0.000503149 0)
(-0.154194 -0.000596761 0)
(-0.147812 -0.000682358 0)
(-0.140485 -0.000787043 0)
(-0.132155 -0.000873787 0)
(-0.122927 -0.000963072 0)
(-0.112691 -0.00107229 0)
(-0.10145 -0.00115984 0)
(-0.0893453 -0.00124731 0)
(-0.076242 -0.0013562 0)
(-0.0621339 -0.00143207 0)
(-0.0471957 -0.001538 0)
(-0.0313832 -0.00161586 0)
(-0.014638 -0.00167193 0)
(0.00298222 -0.00176076 0)
(0.0211505 -0.00180536 0)
(0.039587 -0.00182839 0)
(0.0582715 -0.00186964 0)
(0.0770526 -0.00185699 0)
(0.0957127 -0.00185378 0)
(0.114031 -0.0017968 0)
(0.131731 -0.0017116 0)
(0.148547 -0.00162602 0)
(0.164235 -0.00149407 0)
(0.178531 -0.00133759 0)
(0.191184 -0.0011709 0)
(0.201979 -0.000973804 0)
(0.210723 -0.000763062 0)
(0.217236 -0.000535444 0)
(0.22141 -0.000295647 0)
(0.223126 -5.19931e-05 0)
(0.222473 0.000190701 0)
(0.219261 0.000442539 0)
(0.213603 0.000674439 0)
(0.20563 0.000902963 0)
(0.195453 0.00112277 0)
(0.183249 0.00129886 0)
(0.169241 0.00147655 0)
(0.153675 0.00159828 0)
(0.136823 0.00172395 0)
(0.118952 0.00182508 0)
(0.100339 0.00186142 0)
(0.0812612 0.00190795 0)
(0.0619649 0.00192936 0)
(0.0426562 0.00189483 0)
(0.0234538 0.00187305 0)
(0.00487873 0.00180128 0)
(-0.0129243 0.0017489 0)
(-0.0301444 0.0016826 0)
(-0.046601 0.00158545 0)
(-0.0621875 0.00150221 0)
(-0.0768372 0.0014117 0)
(-0.0905043 0.0013037 0)
(-0.103163 0.00120715 0)
(-0.114798 0.0010992 0)
(-0.125408 0.00100136 0)
(-0.134999 0.000903055 0)
(-0.143582 0.000801101 0)
(-0.151187 0.000706658 0)
(-0.158697 0.000613692 0)
(-0.112257 -0.0015702 0)
(-0.107395 -0.00181149 0)
(-0.100899 -0.00205589 0)
(-0.0935542 -0.00230991 0)
(-0.085318 -0.00259083 0)
(-0.0761541 -0.00286444 0)
(-0.0660299 -0.00317017 0)
(-0.0549196 -0.00345578 0)
(-0.0428114 -0.00373881 0)
(-0.029695 -0.00406388 0)
(-0.0154985 -0.00434063 0)
(-0.000458133 -0.00457943 0)
(0.0153699 -0.00488209 0)
(0.0321087 -0.00507943 0)
(0.0495534 -0.00532447 0)
(0.0675707 -0.00543861 0)
(0.0859865 -0.00549144 0)
(0.104612 -0.00559004 0)
(0.123243 -0.00551908 0)
(0.141632 -0.0053697 0)
(0.159525 -0.00524785 0)
(0.17667 -0.00495181 0)
(0.192787 -0.00457817 0)
(0.207605 -0.00419618 0)
(0.220867 -0.00367892 0)
(0.232334 -0.00313118 0)
(0.241787 -0.00249118 0)
(0.249044 -0.0018093 0)
(0.253975 -0.00109142 0)
(0.256441 -0.000353534 0)
(0.256459 0.000383769 0)
(0.253946 0.00112878 0)
(0.248895 0.00186933 0)
(0.2415 0.00252717 0)
(0.231869 0.00317515 0)
(0.220166 0.00379404 0)
(0.206592 0.00425722 0)
(0.191413 0.00472413 0)
(0.174858 0.00513286 0)
(0.157185 0.00535638 0)
(0.138674 0.00559652 0)
(0.119573 0.00566643 0)
(0.100173 0.00575229 0)
(0.0806408 0.00576755 0)
(0.0612018 0.00566111 0)
(0.0421595 0.00554027 0)
(0.0234465 0.00538912 0)
(0.00587609 0.00516001 0)
(-0.0106143 0.00494313 0)
(-0.0266633 0.00469396 0)
(-0.0418638 0.00440205 0)
(-0.0561557 0.00412677 0)
(-0.069501 0.00382615 0)
(-0.0818892 0.00354422 0)
(-0.0933195 0.00325879 0)
(-0.103805 0.00297153 0)
(-0.113376 0.00270355 0)
(-0.122043 0.00243296 0)
(-0.129838 0.00217459 0)
(-0.136793 0.00192622 0)
(-0.14294 0.00168015 0)
(-0.148329 0.00146097 0)
(-0.152936 0.00123326 0)
(-0.156787 0.00101203 0)
(-0.15995 0.000802426 0)
(-0.162384 0.000597604 0)
(-0.164061 0.000364417 0)
(-0.16503 0.000172935 0)
(-0.165254 -6.18075e-05 0)
(-0.164663 -0.000270275 0)
(-0.163371 -0.000500325 0)
(-0.161207 -0.000757235 0)
(-0.158234 -0.00101285 0)
(-0.15443 -0.00122897 0)
(-0.149666 -0.00156438 0)
(-0.144041 -0.00179568 0)
(-0.13745 -0.00214511 0)
(-0.129699 -0.00241024 0)
(-0.121126 -0.00269925 0)
(-0.111531 -0.00303354 0)
(-0.100818 -0.00330906 0)
(-0.0892886 -0.00359632 0)
(-0.0767267 -0.00387073 0)
(-0.0631448 -0.00415525 0)
(-0.0487885 -0.00442336 0)
(-0.0334987 -0.00465621 0)
(-0.0175347 -0.00490039 0)
(-0.000782491 -0.005069 0)
(0.0166906 -0.00524676 0)
(0.0345479 -0.00538169 0)
(0.0527502 -0.00545089 0)
(0.0710976 -0.00548268 0)
(0.0894434 -0.00543503 0)
(0.107555 -0.00532729 0)
(0.12517 -0.00514611 0)
(0.142062 -0.00490565 0)
(0.158003 -0.00457285 0)
(0.172724 -0.0041724 0)
(0.185989 -0.00371208 0)
(0.197561 -0.00317185 0)
(0.207271 -0.00258662 0)
(0.214952 -0.00195845 0)
(0.220436 -0.00130094 0)
(0.223648 -0.000615156 0)
(0.224524 8.64068e-05 0)
(0.223078 0.000786939 0)
(0.219128 0.00150097 0)
(0.212928 0.00218812 0)
(0.204483 0.00282161 0)
(0.193911 0.00344527 0)
(0.18141 0.00399377 0)
(0.167142 0.00448692 0)
(0.151338 0.00490019 0)
(0.134255 0.00524872 0)
(0.116135 0.00551237 0)
(0.097242 0.00570475 0)
(0.0778521 0.00582703 0)
(0.058237 0.00585931 0)
(0.0386031 0.00582239 0)
(0.0191859 0.00571518 0)
(0.000229207 0.00557885 0)
(-0.0181507 0.00536766 0)
(-0.0358131 0.00513057 0)
(-0.0526005 0.00485425 0)
(-0.0684362 0.00457981 0)
(-0.0832753 0.00426209 0)
(-0.0970815 0.00396018 0)
(-0.109846 0.00364287 0)
(-0.121543 0.0033165 0)
(-0.132142 0.00299886 0)
(-0.141695 0.00268334 0)
(-0.150197 0.00237552 0)
(-0.157657 0.00206411 0)
(-0.164137 0.00177473 0)
(-0.169638 0.00151039 0)
(-0.174204 0.00122223 0)
(-0.177884 0.000973273 0)
(-0.180719 0.000706702 0)
(-0.182741 0.000466655 0)
(-0.183945 0.00027962 0)
(-0.184452 3.92901e-05 0)
(-0.184259 -0.000151427 0)
(-0.183414 -0.000354788 0)
(-0.181892 -0.000545546 0)
(-0.17974 -0.000749383 0)
(-0.176942 -0.000911275 0)
(-0.173515 -0.0011254 0)
(-0.16947 -0.0012787 0)
(-0.164783 -0.00148369 0)
(-0.159497 -0.00166824 0)
(-0.153554 -0.00187158 0)
(-0.146936 -0.00206307 0)
(-0.139621 -0.00229381 0)
(-0.131515 -0.00251926 0)
(-0.122608 -0.0027584 0)
(-0.112963 -0.00301651 0)
(-0.102439 -0.00323912 0)
(-0.0910555 -0.00350309 0)
(-0.0788668 -0.00376165 0)
(-0.0657994 -0.00400186 0)
(-0.0519291 -0.00424652 0)
(-0.0372685 -0.00447142 0)
(-0.0219019 -0.00468704 0)
(-0.00585167 -0.00485575 0)
(0.0107963 -0.00500777 0)
(0.0278356 -0.00511832 0)
(0.0451503 -0.00517293 0)
(0.0625632 -0.00519269 0)
(0.0799357 -0.00513267 0)
(0.0970303 -0.00501004 0)
(0.113549 -0.00481464 0)
(0.12926 -0.00452871 0)
(0.143912 -0.00418413 0)
(0.157268 -0.00375791 0)
(0.169071 -0.00324618 0)
(0.179027 -0.00266331 0)
(0.186936 -0.00202089 0)
(0.19258 -0.00132491 0)
(0.195822 -0.000600496 0)
(0.196574 0.000146702 0)
(0.194785 0.000908867 0)
(0.190375 0.00166644 0)
(0.183587 0.00236209 0)
(0.174488 0.00302539 0)
(0.163312 0.00362349 0)
(0.150245 0.00413518 0)
(0.135541 0.00460203 0)
(0.119492 0.00494195 0)
(0.1024 0.0052106 0)
(0.0845766 0.00538456 0)
(0.0662917 0.00548771 0)
(0.0478224 0.00550188 0)
(0.0293989 0.00544262 0)
(0.0112785 0.00532766 0)
(-0.00635882 0.00518499 0)
(-0.0233951 0.00496625 0)
(-0.039677 0.00472627 0)
(-0.0551309 0.00445375 0)
(-0.0696517 0.0041725 0)
(-0.0831404 0.00388521 0)
(-0.0956638 0.00356766 0)
(-0.107199 0.00327533 0)
(-0.117734 0.00300999 0)
(-0.127357 0.00272424 0)
(-0.136074 0.0024715 0)
(-0.143931 0.00221381 0)
(-0.150984 0.00198202 0)
(-0.15726 0.00175611 0)
(-0.162806 0.00154048 0)
(-0.167651 0.00133801 0)
(-0.171832 0.00113197 0)
(-0.175362 0.000976581 0)
(-0.178274 0.000764662 0)
(-0.180563 0.000593128 0)
(-0.182216 0.000398515 0)
(-0.183247 0.00022943 0)
(-0.183708 5.68374e-05 0)
(-0.183573 -0.000126683 0)
(-0.182835 -0.000311891 0)
(-0.181505 -0.000473432 0)
(-0.179601 -0.000665798 0)
(-0.177058 -0.000871727 0)
(-0.173811 -0.00104433 0)
(-0.16984 -0.0012935 0)
(-0.165142 -0.0015066 0)
(-0.159689 -0.00173944 0)
(-0.153423 -0.00197814 0)
(-0.146342 -0.00223218 0)
(-0.138386 -0.00250367 0)
(-0.12953 -0.00277992 0)
(-0.119734 -0.00304464 0)
(-0.108997 -0.00333378 0)
(-0.0973422 -0.00362581 0)
(-0.0847415 -0.00386521 0)
(-0.0712416 -0.00413514 0)
(-0.0569573 -0.0043732 0)
(-0.0418956 -0.00458133 0)
(-0.0261588 -0.00477715 0)
(-0.00980888 -0.00494063 0)
(0.00705869 -0.00506256 0)
(0.0242069 -0.00514064 0)
(0.0415361 -0.00516627 0)
(0.0588467 -0.00514428 0)
(0.07599 -0.00504184 0)
(0.092716 -0.00488562 0)
(0.108771 -0.00466567 0)
(0.123976 -0.00436775 0)
(0.138075 -0.00400083 0)
(0.150822 -0.00356892 0)
(0.161981 -0.00305731 0)
(0.171314 -0.0024947 0)
(0.178684 -0.00187963 0)
(0.183924 -0.00123109 0)
(0.186909 -0.000551679 0)
(0.187598 0.000137048 0)
(0.185964 0.000839962 0)
(0.181893 0.00153806 0)
(0.175632 0.00219136 0)
(0.167244 0.00279449 0)
(0.15687 0.00335981 0)
(0.144746 0.00384259 0)
(0.131048 0.0042826 0)
(0.116024 0.00465384 0)
(0.0999373 0.00492619 0)
(0.0830362 0.00513107 0)
(0.0655678 0.00526753 0)
(0.0477146 0.00533315 0)
(0.0297985 0.00530734 0)
(0.0121084 0.00524323 0)
(-0.00526368 0.00511753 0)
(-0.022124 0.00493198 0)
(-0.0382865 0.00473456 0)
(-0.0537506 0.00448922 0)
(-0.0683601 0.00422078 0)
(-0.0820196 0.00394217 0)
(-0.0946786 0.00364189 0)
(-0.10637 0.00334384 0)
(-0.117074 0.00302474 0)
(-0.126628 0.002693 0)
(-0.135113 0.00236871 0)
(-0.142572 0.00207468 0)
(-0.149019 0.0017774 0)
(-0.154663 0.00154562 0)
(-0.159549 0.00130698 0)
(-0.163689 0.00110003 0)
(-0.167305 0.000938636 0)
(-0.17034 0.000755795 0)
(-0.172706 0.000571228 0)
(-0.174493 0.00040841 0)
(-0.1756 0.000205342 0)
(-0.176047 4.49474e-05 0)
(-0.175908 -0.000150973 0)
(-0.175014 -0.000371641 0)
(-0.173441 -0.000555638 0)
(-0.171223 -0.000778464 0)
(-0.168181 -0.00103316 0)
(-0.164358 -0.00125493 0)
(-0.159766 -0.00150978 0)
(-0.154244 -0.00179156 0)
(-0.147863 -0.00204762 0)
(-0.140536 -0.00236142 0)
(-0.132206 -0.00262138 0)
(-0.122978 -0.00288913 0)
(-0.112742 -0.00321688 0)
(-0.101501 -0.00347965 0)
(-0.0893949 -0.00374174 0)
(-0.0762897 -0.00406914 0)
(-0.0621799 -0.00429624 0)
(-0.0472415 -0.00461488 0)
(-0.0314247 -0.00484806 0)
(-0.0146753 -0.00501575 0)
(0.00294858 -0.00528209 0)
(0.0211238 -0.00541638 0)
(0.0395674 -0.00548576 0)
(0.0582604 -0.00560965 0)
(0.0770503 -0.0055718 0)
(0.0957211 -0.00556248 0)
(0.11405 -0.00539136 0)
(0.13176 -0.00513612 0)
(0.148588 -0.00487949 0)
(0.164287 -0.00448293 0)
(0.178591 -0.00401427 0)
(0.191255 -0.0035138 0)
(0.202058 -0.00292116 0)
(0.210808 -0.00229201 0)
(0.21733 -0.00160553 0)
(0.221507 -0.000884579 0)
(0.223229 -0.000159092 0)
(0.222572 0.000571421 0)
(0.219354 0.00132764 0)
(0.213696 0.00202339 0)
(0.205718 0.00270937 0)
(0.195535 0.00336903 0)
(0.183322 0.00389739 0)
(0.169305 0.00443062 0)
(0.153728 0.00479585 0)
(0.136865 0.0051729 0)
(0.118984 0.00547631 0)
(0.10036 0.00558526 0)
(0.0812715 0.00572482 0)
(0.0619656 0.00578901 0)
(0.0426486 0.00568526 0)
(0.0234379 0.00562011 0)
(0.00485723 0.00540428 0)
(-0.0129503 0.00524709 0)
(-0.030175 0.00504814 0)
(-0.0466343 0.00475663 0)
(-0.0622237 0.00450683 0)
(-0.0768754 0.00423526 0)
(-0.0905431 0.00391119 0)
(-0.103202 0.0036215 0)
(-0.114837 0.0032976 0)
(-0.125448 0.00300404 0)
(-0.135038 0.00270909 0)
(-0.14362 0.00240319 0)
(-0.151224 0.00211982 0)
(-0.158733 0.00184089 0)
(-0.112318 -0.00261647 0)
(-0.107459 -0.0030186 0)
(-0.100966 -0.00342592 0)
(-0.093624 -0.00384935 0)
(-0.0853913 -0.0043176 0)
(-0.0762294 -0.00477369 0)
(-0.066108 -0.00528339 0)
(-0.0549983 -0.00575957 0)
(-0.0428898 -0.00623133 0)
(-0.029774 -0.00677325 0)
(-0.0155727 -0.00723462 0)
(-0.000526854 -0.00763359 0)
(0.0153047 -0.00813828 0)
(0.0320534 -0.00846735 0)
(0.049508 -0.00887614 0)
(0.0675386 -0.00906666 0)
(0.0859694 -0.00915498 0)
(0.104612 -0.00931976 0)
(0.123261 -0.00920165 0)
(0.141669 -0.00895281 0)
(0.159585 -0.00875 0)
(0.17675 -0.00825657 0)
(0.192887 -0.00763369 0)
(0.207728 -0.00699699 0)
(0.221007 -0.00613454 0)
(0.232495 -0.0052214 0)
(0.24196 -0.00415426 0)
(0.249229 -0.00301655 0)
(0.254165 -0.00182453 0)
(0.256652 -0.000584406 0)
(0.256664 0.00063775 0)
(0.254124 0.00188284 0)
(0.249081 0.00311601 0)
(0.241673 0.00421365 0)
(0.23203 0.00529432 0)
(0.220312 0.00632647 0)
(0.206718 0.00709857 0)
(0.191519 0.00787704 0)
(0.174944 0.0085585 0)
(0.15725 0.00893074 0)
(0.138718 0.00933104 0)
(0.119597 0.00944685 0)
(0.100178 0.00958997 0)
(0.0806297 0.00961499 0)
(0.0611748 0.00943701 0)
(0.0421171 0.00923691 0)
(0.0233968 0.00898185 0)
(0.00581885 0.00860222 0)
(-0.0106799 0.00823928 0)
(-0.0267346 0.0078239 0)
(-0.0419377 0.0073374 0)
(-0.0562319 0.00687829 0)
(-0.0695774 0.00637725 0)
(-0.0819654 0.00590723 0)
(-0.0933952 0.00543121 0)
(-0.103878 0.00495284 0)
(-0.113448 0.00450561 0)
(-0.122111 0.00405546 0)
(-0.129904 0.00362396 0)
(-0.136858 0.00321056 0)
(-0.143001 0.00280152 0)
(-0.148387 0.00243441 0)
(-0.152995 0.0020551 0)
(-0.156845 0.00168565 0)
(-0.160003 0.00133836 0)
(-0.16244 0.000994758 0)
(-0.164122 0.000608701 0)
(-0.165088 0.000289168 0)
(-0.16531 -0.000100659 0)
(-0.164725 -0.000452347 0)
(-0.163434 -0.000835123 0)
(-0.161272 -0.00126038 0)
(-0.158302 -0.00168773 0)
(-0.154502 -0.00204909 0)
(-0.149742 -0.00260645 0)
(-0.144118 -0.00299341 0)
(-0.137532 -0.00356951 0)
(-0.129779 -0.004023 0)
(-0.121213 -0.00450167 0)
(-0.111616 -0.00504946 0)
(-0.100899 -0.00551626 0)
(-0.089376 -0.00600658 0)
(-0.0768065 -0.00644591 0)
(-0.0632327 -0.006934 0)
(-0.0488647 -0.00736715 0)
(-0.0335829 -0.0077687 0)
(-0.0176061 -0.0081633 0)
(-0.000849259 -0.00845106 0)
(0.0166209 -0.00874975 0)
(0.0345034 -0.00895677 0)
(0.0527052 -0.00909588 0)
(0.0710658 -0.00913672 0)
(0.0894222 -0.00906693 0)
(0.107549 -0.00888446 0)
(0.125185 -0.00857269 0)
(0.142093 -0.00816927 0)
(0.158048 -0.00763601 0)
(0.172788 -0.00694588 0)
(0.186058 -0.00619294 0)
(0.197642 -0.00529315 0)
(0.207369 -0.00431171 0)
(0.215055 -0.00327043 0)
(0.220551 -0.00216646 0)
(0.223775 -0.00102932 0)
(0.224657 0.000148976 0)
(0.223183 0.00130888 0)
(0.219258 0.00251066 0)
(0.213055 0.00364673 0)
(0.204592 0.0047146 0)
(0.194007 0.00574152 0)
(0.181485 0.0066603 0)
(0.167199 0.00747323 0)
(0.151385 0.00817716 0)
(0.13428 0.00875682 0)
(0.11613 0.00919616 0)
(0.0972129 0.0095098 0)
(0.0778043 0.00970851 0)
(0.0581744 0.00976988 0)
(0.038518 0.00970558 0)
(0.0190906 0.00953304 0)
(0.000108557 0.00930359 0)
(-0.0182799 0.00893975 0)
(-0.0359394 0.00855772 0)
(-0.0527347 0.00809695 0)
(-0.0685829 0.00763835 0)
(-0.0834347 0.00710478 0)
(-0.0972399 0.00659036 0)
(-0.110004 0.00607048 0)
(-0.121698 0.00553269 0)
(-0.132295 0.00499722 0)
(-0.141843 0.00447512 0)
(-0.15035 0.003964 0)
(-0.157814 0.00344006 0)
(-0.16429 0.00295691 0)
(-0.169793 0.00251877 0)
(-0.174348 0.0020332 0)
(-0.178023 0.00162464 0)
(-0.180861 0.0011818 0)
(-0.182878 0.000780153 0)
(-0.184088 0.000465066 0)
(-0.184587 7.21768e-05 0)
(-0.184394 -0.000262434 0)
(-0.183547 -0.000588815 0)
(-0.182023 -0.000910274 0)
(-0.179871 -0.00124245 0)
(-0.177072 -0.00152675 0)
(-0.17365 -0.00187963 0)
(-0.169596 -0.00212188 0)
(-0.164913 -0.00247163 0)
(-0.159623 -0.00277609 0)
(-0.153681 -0.00311706 0)
(-0.147072 -0.00344341 0)
(-0.139768 -0.00382851 0)
(-0.131668 -0.0041902 0)
(-0.122765 -0.00460599 0)
(-0.113111 -0.00503116 0)
(-0.102576 -0.00538769 0)
(-0.0912126 -0.00584321 0)
(-0.0790125 -0.00626618 0)
(-0.0659502 -0.00667087 0)
(-0.0520736 -0.00707981 0)
(-0.0373999 -0.00745638 0)
(-0.0220187 -0.00781354 0)
(-0.00595042 -0.00808772 0)
(0.010688 -0.00835401 0)
(0.0277479 -0.00853236 0)
(0.0450709 -0.0086281 0)
(0.0625029 -0.00864832 0)
(0.079897 -0.00855988 0)
(0.0970075 -0.00835774 0)
(0.113549 -0.00802391 0)
(0.129274 -0.00756095 0)
(0.143949 -0.00697743 0)
(0.157328 -0.00625848 0)
(0.169145 -0.00542476 0)
(0.179129 -0.00442625 0)
(0.187047 -0.00337291 0)
(0.192699 -0.00221088 0)
(0.195949 -0.00100241 0)
(0.196709 0.000243173 0)
(0.194904 0.00152136 0)
(0.190505 0.00277959 0)
(0.183699 0.00393869 0)
(0.174592 0.00504265 0)
(0.163397 0.00604406 0)
(0.150314 0.00690191 0)
(0.135582 0.0076737 0)
(0.119503 0.00824058 0)
(0.102387 0.00868493 0)
(0.0845436 0.00898156 0)
(0.0662418 0.00914764 0)
(0.0477545 0.00917303 0)
(0.0293143 0.00907881 0)
(0.0111745 0.00888908 0)
(-0.00648392 0.00863726 0)
(-0.023525 0.00827713 0)
(-0.0398093 0.00788013 0)
(-0.0552781 0.00742805 0)
(-0.0697996 0.00695016 0)
(-0.0832931 0.00648098 0)
(-0.0958131 0.00594491 0)
(-0.107342 0.0054734 0)
(-0.117884 0.00500935 0)
(-0.127505 0.00453853 0)
(-0.136221 0.00411281 0)
(-0.14407 0.00368662 0)
(-0.151116 0.00330789 0)
(-0.157396 0.0029232 0)
(-0.162935 0.00256774 0)
(-0.167772 0.0022305 0)
(-0.171942 0.0018963 0)
(-0.175484 0.00162923 0)
(-0.178403 0.00127486 0)
(-0.180699 0.000989 0)
(-0.182347 0.000660473 0)
(-0.183379 0.000387138 0)
(-0.183847 8.64764e-05 0)
(-0.183707 -0.000217118 0)
(-0.182952 -0.000505792 0)
(-0.181629 -0.000796736 0)
(-0.179726 -0.0011027 0)
(-0.177191 -0.001451 0)
(-0.173954 -0.00175961 0)
(-0.169977 -0.00214477 0)
(-0.165285 -0.00251004 0)
(-0.159831 -0.00289579 0)
(-0.153572 -0.00330092 0)
(-0.146493 -0.00372797 0)
(-0.138528 -0.00416149 0)
(-0.129671 -0.00462574 0)
(-0.119885 -0.00507891 0)
(-0.109161 -0.00556047 0)
(-0.0975056 -0.00604555 0)
(-0.0848863 -0.00644031 0)
(-0.0713851 -0.00689545 0)
(-0.0570839 -0.00729374 0)
(-0.042008 -0.00763216 0)
(-0.0262741 -0.00797014 0)
(-0.00991192 -0.00823164 0)
(0.00696826 -0.00844398 0)
(0.0241412 -0.00855969 0)
(0.0414739 -0.008622 0)
(0.0588067 -0.00856683 0)
(0.0759584 -0.00840869 0)
(0.0926965 -0.0081526 0)
(0.108779 -0.00777123 0)
(0.123995 -0.00728468 0)
(0.138109 -0.00667882 0)
(0.150882 -0.00594201 0)
(0.162054 -0.00511081 0)
(0.171408 -0.00415184 0)
(0.178786 -0.00313647 0)
(0.184037 -0.00205452 0)
(0.18704 -0.000917687 0)
(0.187728 0.000231544 0)
(0.186063 0.00140128 0)
(0.182003 0.00256087 0)
(0.175732 0.00365475 0)
(0.167337 0.00465647 0)
(0.15695 0.0056086 0)
(0.144808 0.00640485 0)
(0.131096 0.00714079 0)
(0.116056 0.00775845 0)
(0.0999499 0.00821599 0)
(0.0830302 0.00856265 0)
(0.0655436 0.00878427 0)
(0.0476741 0.00888545 0)
(0.0297496 0.00885741 0)
(0.0120475 0.00874522 0)
(-0.00534691 0.00852414 0)
(-0.0221983 0.00822118 0)
(-0.0383669 0.00789725 0)
(-0.0538456 0.00748012 0)
(-0.0684512 0.00704169 0)
(-0.0821201 0.00657202 0)
(-0.0947773 0.00607426 0)
(-0.106476 0.00556963 0)
(-0.117177 0.00504436 0)
(-0.126734 0.00449056 0)
(-0.135217 0.00394609 0)
(-0.14267 0.00345921 0)
(-0.149106 0.00296374 0)
(-0.154746 0.00257187 0)
(-0.159621 0.00217647 0)
(-0.16375 0.00183344 0)
(-0.167362 0.00156203 0)
(-0.170391 0.00126137 0)
(-0.172756 0.000949791 0)
(-0.174547 0.000681667 0)
(-0.175653 0.000343857 0)
(-0.1761 7.49622e-05 0)
(-0.175959 -0.000251231 0)
(-0.175068 -0.000618007 0)
(-0.173497 -0.000926049 0)
(-0.171282 -0.00129679 0)
(-0.168244 -0.0017195 0)
(-0.164423 -0.00208692 0)
(-0.159832 -0.00250463 0)
(-0.154313 -0.00298942 0)
(-0.147935 -0.00341086 0)
(-0.14061 -0.00393534 0)
(-0.132281 -0.00436874 0)
(-0.123053 -0.00481486 0)
(-0.112818 -0.00536172 0)
(-0.101577 -0.00579995 0)
(-0.0894698 -0.00623645 0)
(-0.0763611 -0.00678314 0)
(-0.0622493 -0.00716069 0)
(-0.0473114 -0.00769427 0)
(-0.0314863 -0.00808129 0)
(-0.0147299 -0.00836006 0)
(0.00290002 -0.00880466 0)
(0.0210879 -0.00902888 0)
(0.0395448 -0.00914488 0)
(0.0582538 -0.00935188 0)
(0.0770602 -0.00928902 0)
(0.0957516 -0.00927394 0)
(0.1141 -0.0089891 0)
(0.131829 -0.00856338 0)
(0.14868 -0.00813595 0)
(0.164397 -0.00747505 0)
(0.17872 -0.00669302 0)
(0.191403 -0.00585907 0)
(0.20222 -0.00487176 0)
(0.210985 -0.00382031 0)
(0.217515 -0.00267785 0)
(0.221698 -0.00148123 0)
(0.223438 -0.000259536 0)
(0.222766 0.000951264 0)
(0.219538 0.00221352 0)
(0.213878 0.00337304 0)
(0.205892 0.0045176 0)
(0.195697 0.00561771 0)
(0.183464 0.00649865 0)
(0.169429 0.00738778 0)
(0.153828 0.0079966 0)
(0.136944 0.0086251 0)
(0.119042 0.00913088 0)
(0.100396 0.00931216 0)
(0.0812877 0.00954455 0)
(0.0619631 0.00965138 0)
(0.0426299 0.00947796 0)
(0.0234027 0.00936966 0)
(0.00481111 0.00900859 0)
(-0.0130051 0.00874652 0)
(-0.0302387 0.00841471 0)
(-0.0467032 0.00792859 0)
(-0.0622979 0.00751204 0)
(-0.0769535 0.0070592 0)
(-0.0906223 0.00651889 0)
(-0.103283 0.00603593 0)
(-0.114918 0.00549597 0)
(-0.125528 0.00500658 0)
(-0.135118 0.00451488 0)
(-0.143697 0.00400497 0)
(-0.151299 0.00353261 0)
(-0.158806 0.00306767 0)
(-0.112409 -0.00366198 0)
(-0.107555 -0.00422492 0)
(-0.101066 -0.0047951 0)
(-0.0937288 -0.00538807 0)
(-0.0855012 -0.00604369 0)
(-0.0763425 -0.00668236 0)
(-0.0662251 -0.00739625 0)
(-0.0551164 -0.00806326 0)
(-0.0430074 -0.00872381 0)
(-0.0298925 -0.00948277 0)
(-0.0156842 -0.0101277 0)
(-0.000630187 -0.0106906 0)
(0.0152069 -0.0113969 0)
(0.0319703 -0.0118579 0)
(0.0494397 -0.0124308 0)
(0.0674903 -0.0126982 0)
(0.0859436 -0.0128224 0)
(0.104612 -0.013054 0)
(0.123288 -0.012889 0)
(0.141725 -0.0125409 0)
(0.159675 -0.0122575 0)
(0.17687 -0.0115666 0)
(0.193036 -0.0106943 0)
(0.207912 -0.00980281 0)
(0.221218 -0.00859477 0)
(0.232735 -0.00731574 0)
(0.24222 -0.00582073 0)
(0.249506 -0.00422824 0)
(0.254458 -0.00255696 0)
(0.256961 -0.000834631 0)
(0.256959 0.000913974 0)
(0.254399 0.00263989 0)
(0.249361 0.00436381 0)
(0.241934 0.00590255 0)
(0.232272 0.00741715 0)
(0.220531 0.00886342 0)
(0.206906 0.00994476 0)
(0.191678 0.0110352 0)
(0.175074 0.0119899 0)
(0.157346 0.0125103 0)
(0.138783 0.0130709 0)
(0.119633 0.0132316 0)
(0.100184 0.013432 0)
(0.0806126 0.013466 0)
(0.0611342 0.0132153 0)
(0.0420531 0.0129385 0)
(0.0233219 0.0125747 0)
(0.00573299 0.0120479 0)
(-0.0107787 0.0115368 0)
(-0.0268417 0.0109549 0)
(-0.0420487 0.0102736 0)
(-0.0563465 0.00963026 0)
(-0.069692 0.00892873 0)
(-0.0820802 0.00827019 0)
(-0.0935085 0.00760365 0)
(-0.103988 0.00693407 0)
(-0.113555 0.0063075 0)
(-0.122214 0.00567708 0)
(-0.130003 0.00507302 0)
(-0.136955 0.00449531 0)
(-0.143093 0.00392364 0)
(-0.148476 0.00340572 0)
(-0.153083 0.00287667 0)
(-0.15693 0.00235459 0)
(-0.160087 0.00187854 0)
(-0.162525 0.00139096 0)
(-0.164206 0.00085812 0)
(-0.165186 0.000401297 0)
(-0.165396 -0.000140975 0)
(-0.164821 -0.000636538 0)
(-0.163529 -0.00116357 0)
(-0.161375 -0.00176744 0)
(-0.158406 -0.00236042 0)
(-0.154611 -0.00287147 0)
(-0.149861 -0.00364795 0)