/*--------------------------------*- C++ -*----------------------------------*\
| =========                 |                                                 |
| \\      /  F ield         | OpenFOAM: The Open Source CFD Toolbox           |
|  \\    /   O peration     | Version:  3.0.1                                 |
|   \\  /    A nd           | Web:      www.OpenFOAM.org                      |
|    \\/     M anipulation  |                                                 |
\*---------------------------------------------------------------------------*/
FoamFile
{
    version     2.0;
    format      ascii;
    class       surfaceScalarField;
    location    "7.4";
    object      phi;
}
// * * * * * * * * * * * * * * * * * * * * * * * * * * * * * * * * * * * * * //

dimensions      [0 3 -1 0 0 0 0];

internalField   nonuniform List<scalar> 
42423
(
-0.000118732
-7.89183e-06
-0.000109623
-9.10942e-06
-9.95273e-05
-1.00956e-05
-8.84154e-05
-1.1112e-05
-7.60892e-05
-1.23264e-05
-6.28994e-05
-1.319e-05
-4.86942e-05
-1.42053e-05
-3.37842e-05
-1.49102e-05
-1.84446e-05
-1.53398e-05
-2.6405e-06
-1.58043e-05
1.34214e-05
-1.60621e-05
2.95286e-05
-1.61073e-05
4.55892e-05
-1.60608e-05
6.14028e-05
-1.58138e-05
7.67512e-05
-1.53487e-05
9.1536e-05
-1.4785e-05
0.000105504
-1.39681e-05
0.000118548
-1.30441e-05
0.00013053
-1.19822e-05
0.000141257
-1.0727e-05
0.000150675
-9.41897e-06
0.00015865
-7.97435e-06
0.000165139
-6.48926e-06
0.000170114
-4.976e-06
0.000173487
-3.37301e-06
0.00017525
-1.76289e-06
0.000175428
-1.77968e-07
0.000173912
1.51557e-06
0.000170768
3.14426e-06
0.000166038
4.72969e-06
0.000159637
6.40087e-06
0.000151762
7.87461e-06
0.000142435
9.32704e-06
0.00013188
1.05553e-05
0.000120193
1.16861e-05
0.000107417
1.27758e-05
9.38072e-05
1.36102e-05
7.94484e-05
1.43588e-05
6.45863e-05
1.48621e-05
4.9441e-05
1.51452e-05
3.42314e-05
1.52096e-05
1.9026e-05
1.52053e-05
3.96247e-06
1.50635e-05
-1.07501e-05
1.47125e-05
-2.4966e-05
1.42159e-05
-3.86073e-05
1.36412e-05
-5.15598e-05
1.29525e-05
-6.37343e-05
1.21745e-05
-7.51029e-05
1.13686e-05
-8.56106e-05
1.05077e-05
-9.52294e-05
9.61878e-06
-0.000103959
8.73e-06
-0.000111784
7.82478e-06
-0.000118743
6.95835e-06
-0.000124799
6.0565e-06
-0.000129952
5.15313e-06
-0.00013426
4.30765e-06
-0.000137687
3.42676e-06
-0.0001402
2.51349e-06
-0.000141877
1.67677e-06
-0.000142714
8.37291e-07
-0.000142656
-5.79028e-08
-0.000141721
-9.35032e-07
-0.000139938
-1.7835e-06
-0.000137442
-2.49542e-06
-0.000134233
-3.20881e-06
-0.000130333
-3.90061e-06
-0.000125848
-4.48481e-06
-0.000120767
-5.08146e-06
-0.000115199
-5.56728e-06
-0.000109168
-6.03176e-06
-0.000102656
-6.51125e-06
-9.57887e-05
-6.86779e-06
-8.8558e-05
-7.23073e-06
-8.09845e-05
-7.57356e-06
-7.30937e-05
-7.89084e-06
-6.48391e-05
-8.25467e-06
-5.62816e-05
-8.55756e-06
-4.73889e-05
-8.89275e-06
-3.82069e-05
-9.18214e-06
-2.86682e-05
-9.53878e-06
-1.8818e-05
-9.85029e-06
-8.69726e-06
-1.01208e-05
1.6943e-06
-1.03917e-05
1.23904e-05
-1.06962e-05
2.32789e-05
-1.08887e-05
3.42918e-05
-1.1013e-05
4.54026e-05
-1.1111e-05
5.65287e-05
-1.11262e-05
6.75134e-05
-1.09849e-05
7.83115e-05
-1.07982e-05
8.87443e-05
-1.04329e-05
9.86477e-05
-9.9035e-06
0.000107946
-9.29873e-06
0.00011643
-8.48431e-06
0.000123998
-7.56756e-06
0.000130557
-6.55914e-06
0.000136017
-5.46019e-06
0.000140238
-4.22138e-06
0.000143182
-2.9442e-06
0.0001448
-1.61815e-06
0.000145079
-2.79233e-07
0.000144034
1.04542e-06
0.000141588
2.44578e-06
0.000137862
3.72596e-06
0.000132887
4.97456e-06
0.000126758
6.12947e-06
0.000119561
7.19694e-06
0.000111409
8.15144e-06
0.000102436
8.9726e-06
9.27803e-05
9.65598e-06
8.25565e-05
1.02237e-05
7.19531e-05
1.06033e-05
6.11145e-05
1.08386e-05
5.0178e-05
1.09364e-05
3.92897e-05
1.08882e-05
2.85625e-05
1.07272e-05
1.81577e-05
1.04047e-05
8.10533e-06
1.00524e-05
-1.4671e-06
9.57239e-06
-1.04927e-05
9.02557e-06
-1.89018e-05
8.4091e-06
-2.66547e-05
7.75289e-06
-3.37205e-05
7.06572e-06
-4.0065e-05
6.34448e-06
-4.56775e-05
5.61253e-06
-5.05439e-05
4.86637e-06
-5.46805e-05
4.13663e-06
-5.80947e-05
3.41419e-06
-6.07774e-05
2.68264e-06
-6.27844e-05
2.00698e-06
-6.41287e-05
1.34433e-06
-6.48439e-05
7.15104e-07
-6.49616e-05
1.17689e-07
-6.45155e-05
-4.46023e-07
-6.35341e-05
-9.81445e-07
-6.20636e-05
-1.47052e-06
-6.0134e-05
-1.92961e-06
-5.77914e-05
-2.34256e-06
-5.50646e-05
-2.72685e-06
-5.19841e-05
-3.08045e-06
-4.85972e-05
-3.38697e-06
-4.49348e-05
-3.66243e-06
-4.10277e-05
-3.90703e-06
-3.6929e-05
-4.09877e-06
-3.26525e-05
-4.27645e-06
-2.82528e-05
-4.39977e-06
-2.37509e-05
-4.50184e-06
-1.91864e-05
-4.56449e-06
-1.45928e-05
-4.59361e-06
-9.99256e-06
-4.60027e-06
-5.42327e-06
-4.5693e-06
-9.14223e-07
-4.50905e-06
3.49875e-06
-4.41298e-06
7.79924e-06
-4.3005e-06
1.19477e-05
-4.14843e-06
1.5932e-05
-3.98429e-06
1.97211e-05
-3.78912e-06
2.32989e-05
-3.57786e-06
2.66434e-05
-3.34445e-06
2.97414e-05
-3.09808e-06
3.25774e-05
-2.83599e-06
3.51327e-05
-2.55533e-06
3.74094e-05
-2.27669e-06
3.93935e-05
-1.98405e-06
4.10878e-05
-1.69429e-06
4.24912e-05
-1.40341e-06
4.36024e-05
-1.11121e-06
4.4429e-05
-8.26592e-07
4.497e-05
-5.41091e-07
4.52492e-05
-2.79135e-07
4.52743e-05
-2.50732e-08
4.50571e-05
2.17152e-07
4.46126e-05
4.4452e-07
4.39569e-05
6.55704e-07
4.31119e-05
8.44949e-07
4.2085e-05
1.02693e-06
4.09034e-05
1.18162e-06
3.95842e-05
1.31917e-06
3.81464e-05
1.43782e-06
3.66085e-05
1.53788e-06
3.49889e-05
1.61959e-06
3.33053e-05
1.68359e-06
3.15747e-05
1.73062e-06
2.98129e-05
1.76182e-06
2.80364e-05
1.77647e-06
2.62589e-05
1.7775e-06
2.44877e-05
1.77118e-06
2.27373e-05
1.75044e-06
2.10224e-05
1.71489e-06
1.93493e-05
1.67311e-06
1.77262e-05
1.62308e-06
1.61606e-05
1.56559e-06
1.46581e-05
1.50247e-06
1.322e-05
1.43816e-06
1.18516e-05
1.36832e-06
1.05584e-05
1.29321e-06
9.34074e-06
1.21768e-06
8.19993e-06
1.14081e-06
7.1364e-06
1.06353e-06
6.15013e-06
9.86276e-07
5.23662e-06
9.13509e-07
4.398e-06
8.38615e-07
3.63269e-06
7.6531e-07
2.93807e-06
6.94621e-07
2.31156e-06
6.26504e-07
1.75031e-06
5.61259e-07
1.25084e-06
4.99462e-07
8.0625e-07
4.44592e-07
4.20048e-07
3.86201e-07
8.6216e-08
3.33832e-07
-2.00006e-07
2.86221e-07
-4.41238e-07
2.41232e-07
-6.41252e-07
2.00014e-07
-8.02714e-07
1.61461e-07
-9.29462e-07
1.26747e-07
-1.02466e-06
9.52025e-08
-1.09155e-06
6.68877e-08
-1.1336e-06
4.20508e-08
-1.15225e-06
1.86498e-08
-1.15142e-06
-8.37204e-10
-1.13339e-06
-1.80265e-08
-1.10053e-06
-3.28578e-08
-1.05502e-06
-4.55105e-08
-9.9889e-07
-5.61343e-08
-9.34298e-07
-6.45922e-08
-8.62402e-07
-7.18961e-08
-7.85116e-07
-7.72862e-08
-7.03847e-07
-8.12695e-08
-6.19888e-07
-8.39593e-08
-5.34412e-07
-8.5476e-08
-4.48648e-07
-8.57644e-08
-3.62829e-07
-8.5819e-08
-2.78243e-07
-8.45855e-08
-1.95533e-07
-8.27101e-08
-1.15249e-07
-8.02842e-08
-3.78426e-08
-7.74067e-08
3.60889e-08
-7.39316e-08
1.06493e-07
-7.04042e-08
1.73034e-07
-6.65409e-08
2.35502e-07
-6.2468e-08
2.93761e-07
-5.82591e-08
3.47729e-07
-5.39684e-08
3.97371e-07
-4.9642e-08
4.42691e-07
-4.53201e-08
4.83729e-07
-4.10376e-08
5.20554e-07
-3.68248e-08
5.53261e-07
-3.27077e-08
5.8197e-07
-2.87082e-08
6.06814e-07
-2.48448e-08
6.27947e-07
-2.11327e-08
6.45531e-07
-1.75843e-08
6.59741e-07
-1.42095e-08
6.70757e-07
-1.10161e-08
6.78766e-07
-8.00954e-09
6.8396e-07
-5.19327e-09
6.86528e-07
-2.56804e-09
6.8666e-07
-1.31945e-10
6.84541e-07
2.11923e-09
6.8035e-07
4.19101e-09
6.74261e-07
6.08878e-09
6.66443e-07
7.81782e-09
6.5706e-07
9.38286e-09
6.46272e-07
1.07884e-08
6.34232e-07
1.20394e-08
6.21091e-07
1.31409e-08
6.06992e-07
1.4099e-08
5.92072e-07
1.49201e-08
5.76461e-07
1.56115e-08
5.6028e-07
1.61804e-08
5.43646e-07
1.66347e-08
5.26664e-07
1.69821e-08
5.09433e-07
1.72307e-08
4.92045e-07
1.73883e-08
4.74582e-07
1.74629e-08
4.5712e-07
1.74621e-08
4.39727e-07
1.73928e-08
4.22465e-07
1.72617e-08
4.0539e-07
1.70753e-08
3.8855e-07
1.68398e-08
3.71989e-07
1.65608e-08
3.55746e-07
1.62438e-08
3.39851e-07
1.58945e-08
3.24333e-07
1.55176e-08
3.09214e-07
1.51191e-08
2.94511e-07
1.47037e-08
2.80236e-07
1.42744e-08
2.66402e-07
1.38342e-08
2.53016e-07
1.33855e-08
2.40085e-07
1.29311e-08
2.27612e-07
1.24736e-08
2.15596e-07
1.20155e-08
2.04037e-07
1.15592e-08
1.9293e-07
1.11068e-08
1.82271e-07
1.06589e-08
1.72055e-07
1.02161e-08
1.62276e-07
9.77922e-09
1.52926e-07
9.3494e-09
1.43998e-07
8.92804e-09
1.35482e-07
8.5163e-09
1.27367e-07
8.11489e-09
1.19643e-07
7.72448e-09
1.12298e-07
7.34501e-09
1.05321e-07
6.97638e-09
9.87025e-08
6.61869e-09
9.24303e-08
6.27226e-09
8.64925e-08
5.93771e-09
8.08771e-08
5.61542e-09
7.55717e-08
5.3054e-09
7.0564e-08
5.00767e-09
6.58421e-08
4.72195e-09
6.13941e-08
4.44793e-09
5.72087e-08
4.18544e-09
5.32744e-08
3.93432e-09
4.95797e-08
3.69465e-09
4.61134e-08
3.46634e-09
4.28642e-08
3.24916e-09
3.98213e-08
3.04292e-09
3.69739e-08
2.84736e-09
3.43117e-08
2.66222e-09
3.18245e-08
2.48717e-09
2.95027e-08
2.32178e-09
2.7337e-08
2.16571e-09
2.53184e-08
2.01861e-09
2.34383e-08
1.88014e-09
2.16883e-08
1.74998e-09
2.00605e-08
1.62782e-09
1.85472e-08
1.51328e-09
1.71412e-08
1.40598e-09
1.58356e-08
1.30554e-09
1.4624e-08
1.21161e-09
1.35002e-08
1.12384e-09
1.24583e-08
1.04191e-09
1.14928e-08
9.65524e-10
1.05984e-08
8.94371e-10
9.77024e-09
8.28141e-10
9.00371e-09
7.66531e-10
8.29446e-09
7.09248e-10
7.63845e-09
6.56013e-10
7.03188e-09
6.06567e-10
6.4712e-09
5.60674e-10
5.95309e-09
5.18112e-10
5.47442e-09
4.78669e-10
5.03227e-09
4.42146e-10
4.62392e-09
4.0835e-10
4.24682e-09
3.77101e-10
3.89859e-09
3.48227e-10
3.57703e-09
3.21565e-10
3.28006e-09
2.96961e-10
3.00579e-09
2.74272e-10
2.75242e-09
2.5337e-10
2.51828e-09
2.34142e-10
2.30179e-09
2.16491e-10
2.10144e-09
2.00342e-10
1.91581e-09
1.85636e-10
1.74394e-09
1.71868e-10
1.58883e-10
-0.000118777
-1.57788e-05
-0.00010967
-1.82167e-05
-9.95762e-05
-2.01896e-05
-8.84619e-05
-2.22266e-05
-7.6136e-05
-2.46526e-05
-6.29419e-05
-2.63844e-05
-4.87304e-05
-2.84172e-05
-3.38136e-05
-2.98273e-05
-1.84659e-05
-3.06879e-05
-2.64992e-06
-3.16207e-05
1.34196e-05
-3.2132e-05
2.95264e-05
-3.22146e-05
4.55962e-05
-3.21309e-05
6.14303e-05
-3.16483e-05
7.6812e-05
-3.07308e-05
9.16027e-05
-2.9576e-05
0.000105559
-2.79244e-05
0.000118608
-2.60939e-05
0.000130599
-2.39733e-05
0.000141333
-2.14619e-05
0.000150768
-1.88542e-05
0.000158776
-1.59827e-05
0.000165264
-1.29772e-05
0.000170219
-9.93166e-06
0.000173593
-6.74684e-06
0.000175357
-3.52745e-06
0.000175536
-3.57466e-07
0.000174018
3.03383e-06
0.000170872
6.28979e-06
0.000166142
9.45925e-06
0.000159739
1.28039e-05
0.000151858
1.57552e-05
0.000142524
1.86605e-05
0.000131961
2.1118e-05
0.00012027
2.33771e-05
0.000107486
2.55604e-05
9.38658e-05
2.72298e-05
7.94957e-05
2.87288e-05
6.46229e-05
2.97348e-05
4.94696e-05
3.02985e-05
3.425e-05
3.04291e-05
1.90362e-05
3.0419e-05
3.96347e-06
3.01362e-05
-1.07591e-05
2.94351e-05
-2.49894e-05
2.84462e-05
-3.86452e-05
2.7297e-05
-5.16001e-05
2.59074e-05
-6.37747e-05
2.43491e-05
-7.51507e-05
2.27447e-05
-8.56655e-05
2.10225e-05
-9.52882e-05
1.92414e-05
-0.000104021
1.74632e-05
-0.00011185
1.56537e-05
-0.000118815
1.39228e-05
-0.000124873
1.21143e-05
-0.000130027
1.03072e-05
-0.000134339
8.61987e-06
-0.000137768
6.85633e-06
-0.000140279
5.02402e-06
-0.000141953
3.35035e-06
-0.000142791
1.67611e-06
-0.00014273
-1.18909e-07
-0.000141795
-1.87015e-06
-0.000140007
-3.57174e-06
-0.000137504
-4.9985e-06
-0.000134293
-6.41989e-06
-0.000130389
-7.80442e-06
-0.000125901
-8.97293e-06
-0.000120819
-1.0164e-05
-0.00011525
-1.11357e-05
-0.000109215
-1.20669e-05
-0.000102704
-1.30228e-05
-9.58289e-05
-1.37426e-05
-8.85996e-05
-1.44601e-05
-8.10234e-05
-1.51499e-05
-7.31304e-05
-1.5784e-05
-6.48772e-05
-1.6508e-05
-5.63175e-05
-1.71174e-05
-4.74231e-05
-1.77873e-05
-3.82402e-05
-1.83652e-05
-2.87043e-05
-1.90749e-05
-1.88489e-05
-1.97058e-05
-8.72604e-06
-2.02439e-05
1.66725e-06
-2.07852e-05
1.23698e-05
-2.1399e-05
2.32582e-05
-2.17773e-05
3.42747e-05
-2.20298e-05
4.5396e-05
-2.22325e-05
5.6527e-05
-2.22575e-05
6.75199e-05
-2.19781e-05
7.83251e-05
-2.16037e-05
8.87627e-05
-2.08708e-05
9.86787e-05
-1.98197e-05
0.000107998
-1.86183e-05
0.000116483
-1.69699e-05
0.000124054
-1.51388e-05
0.000130615
-1.31201e-05
0.000136091
-1.09362e-05
0.000140327
-8.45786e-06
0.000143268
-5.88597e-06
0.000144883
-3.23327e-06
0.00014516
-5.55861e-07
0.000144116
2.08898e-06
0.000141672
4.88922e-06
0.00013794
7.45801e-06
0.000132961
9.95325e-06
0.000126826
1.2264e-05
0.000119627
1.43964e-05
0.000111467
1.63109e-05
0.000102485
1.79543e-05
9.28163e-05
1.93248e-05
8.25908e-05
2.04491e-05
7.19796e-05
2.12143e-05
6.11326e-05
2.16855e-05
5.01892e-05
2.18798e-05
3.92936e-05
2.17836e-05
2.85594e-05
2.14614e-05
1.81481e-05
2.08158e-05
8.08928e-06
2.01112e-05
-1.48832e-06
1.91499e-05
-1.05165e-05
1.80537e-05
-1.89291e-05
1.68217e-05
-2.66846e-05
1.55083e-05
-3.37549e-05
1.4136e-05
-4.01019e-05
1.26914e-05
-4.57134e-05
1.1224e-05
-5.05805e-05
9.73351e-06
-5.47184e-05
8.27454e-06
-5.81349e-05
6.83064e-06
-6.08149e-05
5.36262e-06
-6.28208e-05
4.01283e-06
-6.41657e-05
2.68924e-06
-6.48788e-05
1.42822e-06
-6.4995e-05
2.3387e-07
-6.45482e-05
-8.92854e-07
-6.35646e-05
-1.96506e-06
-6.20922e-05
-2.94292e-06
-6.01614e-05
-3.86042e-06
-5.78173e-05
-4.68668e-06
-5.50886e-05
-5.45563e-06
-5.20066e-05
-6.16246e-06
-4.86161e-05
-6.77744e-06
-4.49522e-05
-7.32633e-06
-4.10489e-05
-7.81033e-06
-3.69427e-05
-8.20497e-06
-3.26641e-05
-8.55513e-06
-2.82617e-05
-8.80212e-06
-2.37577e-05
-9.00589e-06
-1.91912e-05
-9.13104e-06
-1.45941e-05
-9.19066e-06
-9.99189e-06
-9.20252e-06
-5.42114e-06
-9.14006e-06
-9.09825e-07
-9.02038e-06
3.5049e-06
-8.82772e-06
7.80661e-06
-8.60222e-06
1.19577e-05
-8.29954e-06
1.59436e-05
-7.97015e-06
1.9735e-05
-7.58055e-06
2.33148e-05
-7.15768e-06
2.66604e-05
-6.69005e-06
2.97593e-05
-6.19701e-06
3.25967e-05
-5.67335e-06
3.51525e-05
-5.11118e-06
3.74297e-05
-4.55391e-06
3.94144e-05
-3.96878e-06
4.11095e-05
-3.3894e-06
4.25137e-05
-2.80761e-06
4.36234e-05
-2.22083e-06
4.44493e-05
-1.65255e-06
4.49925e-05
-1.08425e-06
4.52705e-05
-5.57163e-07
4.52948e-05
-4.9429e-08
4.50769e-05
4.35059e-07
4.46316e-05
8.89806e-07
4.39752e-05
1.31218e-06
4.31295e-05
1.69056e-06
4.21012e-05
2.05527e-06
4.09186e-05
2.36426e-06
3.95983e-05
2.63939e-06
3.81594e-05
2.87674e-06
3.66204e-05
3.07685e-06
3.49997e-05
3.24029e-06
3.33151e-05
3.36823e-06
3.15834e-05
3.46231e-06
2.98205e-05
3.52471e-06
2.8043e-05
3.55399e-06
2.6265e-05
3.55547e-06
2.44929e-05
3.54329e-06
2.27414e-05
3.5019e-06
2.10258e-05
3.43056e-06
1.93519e-05
3.34696e-06
1.77281e-05
3.24687e-06
1.61619e-05
3.13182e-06
1.46585e-05
3.00589e-06
1.32208e-05
2.87577e-06
1.18516e-05
2.73757e-06
1.0558e-05
2.5868e-06
9.33996e-06
2.43571e-06
8.19884e-06
2.28193e-06
7.13502e-06
2.12735e-06
6.14832e-06
1.97297e-06
5.23616e-06
1.82566e-06
4.39621e-06
1.67857e-06
3.6308e-06
1.53072e-06
2.9361e-06
1.38932e-06
2.3095e-06
1.2531e-06
1.7481e-06
1.12266e-06
1.24902e-06
9.98547e-07
8.04291e-07
8.89316e-07
4.18131e-07
7.72359e-07
8.43441e-08
6.67618e-07
-2.0182e-07
5.72383e-07
-4.43032e-07
4.82443e-07
-6.42888e-07
3.99868e-07
-8.04257e-07
3.2283e-07
-9.30906e-07
2.53395e-07
-1.02602e-06
1.90312e-07
-1.09285e-06
1.33718e-07
-1.13473e-06
8.39337e-08
-1.15327e-06
3.71926e-08
-1.15234e-06
-1.77442e-09
-1.13422e-06
-3.61487e-08
-1.10127e-06
-6.58086e-08
-1.05567e-06
-9.11083e-08
-9.99456e-07
-1.12348e-07
-9.34763e-07
-1.29285e-07
-8.6279e-07
-1.4387e-07
-7.8543e-07
-1.54647e-07
-7.04091e-07
-1.62608e-07
-6.20068e-07
-1.67983e-07
-5.34533e-07
-1.71012e-07
-4.4874e-07
-1.71558e-07
-3.62839e-07
-1.7172e-07
-2.78209e-07
-1.69216e-07
-1.95459e-07
-1.65461e-07
-1.1514e-07
-1.60603e-07
-3.77061e-08
-1.54841e-07
3.62642e-08
-1.47902e-07
1.06698e-07
-1.40838e-07
1.73262e-07
-1.33105e-07
2.35749e-07
-1.24955e-07
2.94025e-07
-1.16534e-07
3.48006e-07
-1.0795e-07
3.97659e-07
-9.92947e-08
4.42987e-07
-9.06485e-08
4.84031e-07
-8.20813e-08
5.2086e-07
-7.36537e-08
5.53569e-07
-6.54176e-08
5.82278e-07
-5.74169e-08
6.07122e-07
-4.96886e-08
6.28252e-07
-4.22631e-08
6.45833e-07
-3.51651e-08
6.60038e-07
-2.84145e-08
6.71049e-07
-2.20266e-08
6.79052e-07
-1.60127e-08
6.84238e-07
-1.03795e-08
6.86799e-07
-5.12855e-09
6.86923e-07
-2.55959e-10
6.84795e-07
4.2467e-09
6.80596e-07
8.39051e-09
6.74498e-07
1.21863e-08
6.66671e-07
1.56447e-08
6.57279e-07
1.87751e-08
6.46481e-07
2.15866e-08
6.34432e-07
2.40887e-08
6.2128e-07
2.6292e-08
6.07171e-07
2.82083e-08
5.92241e-07
2.98507e-08
5.76619e-07
3.12334e-08
5.60428e-07
3.23712e-08
5.43783e-07
3.32796e-08
5.26791e-07
3.39743e-08
5.0955e-07
3.44712e-08
4.92152e-07
3.47861e-08
4.7468e-07
3.4935e-08
4.57209e-07
3.49329e-08
4.39808e-07
3.47939e-08
4.22539e-07
3.45313e-08
4.05456e-07
3.41581e-08
3.88609e-07
3.36866e-08
3.72042e-07
3.31281e-08
3.55792e-07
3.24938e-08
3.39891e-07
3.17946e-08
3.24368e-07
3.10405e-08
3.09244e-07
3.02431e-08
2.94536e-07
2.94119e-08
2.80258e-07
2.8553e-08
2.6642e-07
2.76723e-08
2.5303e-07
2.67745e-08
2.40096e-07
2.58654e-08
2.2762e-07
2.49501e-08
2.15602e-07
2.40336e-08
2.0404e-07
2.31207e-08
1.92931e-07
2.22155e-08
1.82271e-07
2.13195e-08
1.72053e-07
2.04338e-08
1.62273e-07
1.95597e-08
1.52922e-07
1.86999e-08
1.43993e-07
1.7857e-08
1.35476e-07
1.70333e-08
1.27361e-07
1.62304e-08
1.19636e-07
1.54494e-08
1.1229e-07
1.46904e-08
1.05314e-07
1.3953e-08
9.86947e-08
1.32375e-08
9.24224e-08
1.25446e-08
8.64846e-08
1.18754e-08
8.08693e-08
1.12308e-08
7.55639e-08
1.06107e-08
7.05564e-08
1.00152e-08
6.58346e-08
9.44373e-09
6.13869e-08
8.89567e-09
5.72016e-08
8.37064e-09
5.32676e-08
7.86839e-09
4.95732e-08
7.38903e-09
4.61071e-08
6.93241e-09
4.28582e-08
6.49804e-09
3.98156e-08
6.08555e-09
3.69685e-08
5.69443e-09
3.43066e-08
5.32415e-09
3.18197e-08
4.97406e-09
2.94981e-08
4.64329e-09
2.73327e-08
4.33115e-09
2.53143e-08
4.03696e-09
2.34344e-08
3.76002e-09
2.16847e-08
3.49972e-09
2.00571e-08
3.25541e-09
1.8544e-08
3.02634e-09
1.71383e-08
2.81175e-09
1.58329e-08
2.61089e-09
1.46215e-08
2.42303e-09
1.34978e-08
2.2475e-09
1.24561e-08
2.08366e-09
1.14907e-08
1.93089e-09
1.05965e-08
1.78859e-09
9.76847e-09
1.65614e-09
9.00206e-09
1.53294e-09
8.29293e-09
1.41838e-09
7.63702e-09
1.31192e-09
7.03056e-09
1.21303e-09
6.46997e-09
1.12125e-09
5.95195e-09
1.03613e-09
5.47336e-09
9.57256e-10
5.03129e-09
8.84215e-10
4.62301e-09
8.16629e-10
4.24597e-09
7.54137e-10
3.8978e-09
6.96395e-10
3.57629e-09
6.43076e-10
3.27938e-09
5.93872e-10
3.00515e-09
5.48499e-10
2.75181e-09
5.06701e-10
2.51771e-09
4.6825e-10
2.30124e-09
4.32953e-10
2.10092e-09
4.00659e-10
1.91531e-09
3.71252e-10
1.74345e-09
3.43722e-10
3.17761e-10
-0.000118857
-2.36649e-05
-0.00010975
-2.73247e-05
-9.96551e-05
-3.02844e-05
-8.85343e-05
-3.33477e-05
-7.62075e-05
-3.69797e-05
-6.30058e-05
-3.95863e-05
-4.8785e-05
-4.26384e-05
-3.38576e-05
-4.4755e-05
-1.84966e-05
-4.60492e-05
-2.66199e-06
-4.74557e-05
1.34409e-05
-4.82352e-05
2.95708e-05
-4.83448e-05
4.56449e-05
-4.82054e-05
6.14907e-05
-4.74944e-05
7.6892e-05
-4.61325e-05
9.17216e-05
-4.44059e-05
0.000105703
-4.19057e-05
0.000118751
-3.91424e-05
0.000130739
-3.59615e-05
0.000141473
-3.21963e-05
0.00015091
-2.82916e-05
0.000158929
-2.40017e-05
0.000165451
-1.95002e-05
0.000170421
-1.49015e-05
0.000173777
-1.0103e-05
0.000175528
-5.27941e-06
0.000175693
-5.22367e-07
0.000174155
4.57173e-06
0.000171004
9.43993e-06
0.000166267
1.4196e-05
0.00015986
1.92112e-05
0.000151967
2.36482e-05
0.000142625
2.80024e-05
0.000132053
3.16896e-05
0.000120351
3.50786e-05
0.000107553
3.83583e-05
9.39153e-05
4.08676e-05
7.95327e-05
4.31114e-05
6.46484e-05
4.4619e-05
4.94969e-05
4.54498e-05
3.42478e-05
4.56782e-05
1.90146e-05
4.56522e-05
3.92768e-06
4.52231e-05
-1.08156e-05
4.41783e-05
-2.50581e-05
4.26887e-05
-3.87162e-05
4.09551e-05
-5.16757e-05
3.88669e-05
-6.38596e-05
3.6533e-05
-7.52471e-05
3.41321e-05
-8.57688e-05
3.15443e-05
-9.53849e-05
2.88575e-05
-0.000104114
2.6192e-05
-0.000111947
2.34876e-05
-0.000118923
2.08981e-05
-0.000124983
1.81745e-05
-0.000130125
1.54497e-05
-0.000134434
1.29289e-05
-0.000137868
1.02898e-05
-0.00014038
7.53623e-06
-0.000142045
5.0153e-06
-0.000142868
2.49908e-06
-0.000142798
-1.88897e-07
-0.000141856
-2.81195e-06
-0.000140065
-5.36285e-06
-0.000137559
-7.5046e-06
-0.000134344
-9.635e-06
-0.000130436
-1.17122e-05
-0.000125946
-1.34637e-05
-0.00012086
-1.525e-05
-0.000115288
-1.67072e-05
-0.000109254
-1.81008e-05
-0.000102746
-1.95315e-05
-9.58572e-05
-2.06313e-05
-8.86301e-05
-2.16872e-05
-8.10557e-05
-2.27244e-05
-7.31546e-05
-2.36852e-05
-6.49062e-05
-2.47565e-05
-5.63473e-05
-2.56765e-05
-4.74483e-05
-2.66864e-05
-3.82626e-05
-2.75511e-05
-2.87327e-05
-2.8605e-05
-1.88763e-05
-2.95624e-05
-8.74629e-06
-3.03741e-05
1.6503e-06
-3.1182e-05
1.23567e-05
-3.21056e-05
2.3248e-05
-3.26688e-05
3.42649e-05
-3.30469e-05
4.53913e-05
-3.3359e-05
5.65418e-05
-3.34083e-05
6.75449e-05
-3.29814e-05
7.83575e-05
-3.24165e-05
8.88003e-05
-3.13139e-05
9.87274e-05
-2.9747e-05
0.000108065
-2.79563e-05
0.000116557
-2.54617e-05
0.000124143
-2.27251e-05
0.000130707
-1.96845e-05
0.000136186
-1.64154e-05
0.000140429
-1.27014e-05
0.000143386
-8.84275e-06
0.000145009
-4.85638e-06
0.000145272
-8.19174e-07
0.000144217
3.14385e-06
0.000141775
7.33072e-06
0.000138037
1.11955e-05
0.000133051
1.4939e-05
0.000126907
1.84079e-05
0.000119699
2.16043e-05
0.000111533
2.44775e-05
0.000102539
2.69481e-05
9.28503e-05
2.9013e-05
8.26181e-05
3.06812e-05
7.19949e-05
3.18374e-05
6.11369e-05
3.25433e-05
5.01862e-05
3.28305e-05
3.92803e-05
3.26894e-05
2.85347e-05
3.2207e-05
1.81128e-05
3.12377e-05
8.05023e-06
3.01737e-05
-1.53184e-06
2.87319e-05
-1.05656e-05
2.70874e-05
-1.89815e-05
2.52376e-05
-2.67409e-05
2.32676e-05
-3.38134e-05
2.12085e-05
-4.01597e-05
1.90377e-05
-4.5772e-05
1.68363e-05
-5.0638e-05
1.45995e-05
-5.47754e-05
1.24119e-05
-5.8195e-05
1.02502e-05
-6.08723e-05
8.03982e-06
-6.28755e-05
6.01609e-06
-6.42175e-05
4.0312e-06
-6.49272e-05
2.13789e-06
-6.50394e-05
3.46094e-07
-6.45902e-05
-1.34216e-06
-6.36034e-05
-2.9518e-06
-6.21276e-05
-4.41878e-06
-6.01938e-05
-5.79423e-06
-5.78469e-05
-7.03357e-06
-5.51153e-05
-8.18726e-06
-5.20309e-05
-9.24681e-06
-4.86355e-05
-1.01728e-05
-4.49709e-05
-1.09909e-05
-4.1066e-05
-1.17153e-05
-3.6956e-05
-1.2315e-05
-3.26765e-05
-1.28346e-05
-2.8269e-05
-1.32096e-05
-2.37623e-05
-1.35126e-05
-1.91931e-05
-1.37003e-05
-1.45927e-05
-1.3791e-05
-9.98883e-06
-1.38064e-05
-5.41556e-06
-1.37133e-05
-9.01902e-07
-1.3534e-05
3.51455e-06
-1.32442e-05
7.81713e-06
-1.29048e-05
1.19711e-05
-1.24535e-05
1.59589e-05
-1.19579e-05
1.97518e-05
-1.13735e-05
2.33336e-05
-1.07395e-05
2.66817e-05
-1.00382e-05
2.97807e-05
-9.29599e-06
3.26192e-05
-8.51187e-06
3.5175e-05
-7.66703e-06
3.74523e-05
-6.83118e-06
3.94375e-05
-5.95399e-06
4.11325e-05
-5.08437e-06
4.25375e-05
-4.21262e-06
4.36456e-05
-3.32897e-06
4.44703e-05
-2.47729e-06
4.50166e-05
-1.63055e-06
4.52916e-05
-8.32132e-07
4.53142e-05
-7.2062e-08
4.50949e-05
6.54374e-07
4.46483e-05
1.33641e-06
4.39905e-05
1.96995e-06
4.31438e-05
2.53723e-06
4.21134e-05
3.08571e-06
4.09293e-05
3.54831e-06
3.96077e-05
3.96103e-06
3.81672e-05
4.31719e-06
3.66268e-05
4.61727e-06
3.50046e-05
4.86248e-06
3.33187e-05
5.05411e-06
3.15858e-05
5.1953e-06
2.98216e-05
5.28886e-06
2.80428e-05
5.33281e-06
2.62621e-05
5.33613e-06
2.44915e-05
5.31392e-06
2.2739e-05
5.25443e-06
2.10225e-05
5.14698e-06
1.9348e-05
5.02148e-06
1.77236e-05
4.8713e-06
1.61568e-05
4.69861e-06
1.46525e-05
4.51023e-06
1.32155e-05
4.31269e-06
1.18458e-05
4.10726e-06
1.05521e-05
3.88055e-06
9.33397e-06
3.65383e-06
8.19276e-06
3.42313e-06
7.12885e-06
3.19126e-06
6.1419e-06
2.95993e-06
5.23143e-06
2.73613e-06
4.39053e-06
2.51947e-06
3.62529e-06
2.29596e-06
2.93076e-06
2.08385e-06
2.30427e-06
1.87959e-06
1.74291e-06
1.68401e-06
1.24472e-06
1.49673e-06
8.00033e-07
1.33401e-06
4.14071e-07
1.15832e-06
8.05326e-08
1.00115e-06
-2.05367e-07
8.58282e-07
-4.46404e-07
7.2348e-07
-6.45879e-07
5.99342e-07
-8.06999e-07
4.83948e-07
-9.33391e-07
3.79786e-07
-1.02826e-06
2.85179e-07
-1.09492e-06
2.00381e-07
-1.13631e-06
1.25321e-07
-1.15481e-06
5.56911e-08
-1.15368e-06
-2.90318e-09
-1.13538e-06
-5.445e-08
-1.10226e-06
-9.89287e-08
-1.05651e-06
-1.36862e-07
-1.00015e-06
-1.68705e-07
-9.35301e-07
-1.94137e-07
-8.63212e-07
-2.15959e-07
-7.85741e-07
-2.32119e-07
-7.04302e-07
-2.44048e-07
-6.20188e-07
-2.52096e-07
-5.34566e-07
-2.56634e-07
-4.48739e-07
-2.57384e-07
-3.62737e-07
-2.57722e-07
-2.78059e-07
-2.53895e-07
-1.95266e-07
-2.48253e-07
-1.14914e-07
-2.40955e-07
-3.74531e-08
-2.32302e-07
3.65442e-08
-2.21899e-07
1.07004e-07
-2.11298e-07
1.73585e-07
-1.99686e-07
2.36083e-07
-1.87453e-07
2.94364e-07
-1.74816e-07
3.48349e-07
-1.61934e-07
3.98001e-07
-1.48947e-07
4.43326e-07
-1.35974e-07
4.84364e-07
-1.23119e-07
5.21185e-07
-1.10475e-07
5.53886e-07
-9.81181e-08
5.82584e-07
-8.61149e-08
6.07416e-07
-7.45205e-08
6.28533e-07
-6.33805e-08
6.461e-07
-5.27322e-08
6.60291e-07
-4.26051e-08
6.71287e-07
-3.30223e-08
6.79275e-07
-2.40009e-08
6.84446e-07
-1.55507e-08
6.86992e-07
-7.67414e-09
6.87101e-07
-3.65335e-10
6.8496e-07
6.38836e-09
6.80746e-07
1.26037e-08
6.74635e-07
1.82972e-08
6.66796e-07
2.34846e-08
6.57391e-07
2.818e-08
6.4658e-07
3.2397e-08
6.34519e-07
3.61499e-08
6.21357e-07
3.94545e-08
6.07237e-07
4.23286e-08
5.92296e-07
4.47916e-08
5.76664e-07
4.68651e-08
5.60464e-07
4.85712e-08
5.4381e-07
4.99332e-08
5.2681e-07
5.09745e-08
5.09562e-07
5.17191e-08
4.92158e-07
5.21907e-08
4.74679e-07
5.24133e-08
4.57203e-07
5.24095e-08
4.39796e-07
5.22003e-08
4.22522e-07
5.18055e-08
4.05435e-07
5.12451e-08
3.88585e-07
5.05371e-08
3.72014e-07
4.96988e-08
3.55761e-07
4.87466e-08
3.39858e-07
4.76972e-08
3.24333e-07
4.65655e-08
3.09208e-07
4.53688e-08
2.94498e-07
4.41215e-08
2.80218e-07
4.28328e-08
2.66379e-07
4.15113e-08
2.5299e-07
4.01641e-08
2.40055e-07
3.87999e-08
2.27579e-07
3.74267e-08
2.15561e-07
3.60515e-08
2.04e-07
3.46818e-08
1.92891e-07
3.33237e-08
1.82231e-07
3.19796e-08
1.72014e-07
3.06509e-08
1.62234e-07
2.93394e-08
1.52885e-07
2.80494e-08
1.43957e-07
2.67849e-08
1.35441e-07
2.55493e-08
1.27327e-07
2.43447e-08
1.19603e-07
2.31732e-08
1.12258e-07
2.20347e-08
1.05283e-07
2.09286e-08
9.86653e-08
1.98552e-08
9.23941e-08
1.88157e-08
8.64575e-08
1.7812e-08
8.08433e-08
1.6845e-08
7.55392e-08
1.59148e-08
7.05328e-08
1.50216e-08
6.58121e-08
1.41644e-08
6.13654e-08
1.33424e-08
5.71812e-08
1.25548e-08
5.32481e-08
1.18014e-08
4.95547e-08
1.10824e-08
4.60896e-08
1.03975e-08
4.28417e-08
9.74598e-09
3.97999e-08
9.12728e-09
3.69537e-08
8.54063e-09
3.42926e-08
7.98525e-09
3.18065e-08
7.46015e-09
2.94858e-08
6.96404e-09
2.7321e-08
6.49587e-09
2.53034e-08
6.05461e-09
2.34242e-08
5.63923e-09
2.16751e-08
5.24882e-09
2.00481e-08
4.88239e-09
1.85356e-08
4.53882e-09
1.71304e-08
4.21698e-09
1.58255e-08
3.91572e-09
1.46146e-08
3.63397e-09
1.34914e-08
3.3707e-09
1.24501e-08
3.12497e-09
1.14851e-08
2.89585e-09
1.05913e-08
2.68243e-09
9.76362e-09
2.48379e-09
8.99755e-09
2.299e-09
8.28874e-09
2.12719e-09
7.63313e-09
1.96752e-09
7.02694e-09
1.81922e-09
6.46662e-09
1.68157e-09
5.94884e-09
1.55391e-09
5.47048e-09
1.43561e-09
5.02863e-09
1.32607e-09
4.62055e-09
1.22471e-09
4.2437e-09
1.13099e-09
3.8957e-09
1.04439e-09
3.57435e-09
9.64426e-10
3.27758e-09
8.90635e-10
3.00349e-09
8.22589e-10
2.75029e-09
7.59904e-10
2.5163e-09
7.02241e-10
2.29994e-09
6.49307e-10
2.09972e-09
6.00879e-10
1.91419e-09
5.5678e-10
1.74242e-09
5.15494e-10
4.76563e-10
-0.000118978
-3.15498e-05
-0.000109869
-3.64338e-05
-9.97736e-05
-4.03804e-05
-8.8643e-05
-4.44786e-05
-7.63148e-05
-4.93082e-05
-6.31019e-05
-5.27995e-05
-4.8867e-05
-5.68736e-05
-3.39235e-05
-5.96988e-05
-1.85411e-05
-6.14319e-05
-2.67789e-06
-6.33192e-05
1.34586e-05
-6.43721e-05
2.96269e-05
-6.45135e-05
4.57376e-05
-6.43164e-05
6.16125e-05
-6.33697e-05
7.70286e-05
-6.1549e-05
9.18717e-05
-5.92494e-05
0.000105877
-5.59116e-05
0.000118958
-5.22234e-05
0.000130976
-4.79798e-05
0.000141725
-4.29456e-05
0.000151164
-3.7731e-05
0.000159183
-3.20213e-05
0.000165709
-2.60266e-05
0.000170701
-1.98937e-05
0.000174081
-1.34835e-05
0.00017582
-7.01803e-06
0.000175936
-6.39016e-07
0.000174358
6.14989e-06
0.000171205
1.25929e-05
0.000166455
1.89454e-05
0.000160042
2.56244e-05
0.00015213
3.15594e-05
0.000142775
3.7357e-05
0.00013219
4.22744e-05
0.000120472
4.67966e-05
0.000107655
5.11758e-05
9.39895e-05
5.45326e-05
7.95881e-05
5.75127e-05
6.46866e-05
5.95204e-05
4.95421e-05
6.05942e-05
3.42439e-05
6.09764e-05
1.89815e-05
6.09145e-05
3.87557e-06
6.0329e-05
-1.08889e-05
5.89427e-05
-2.51485e-05
5.69482e-05
-3.88232e-05
5.46298e-05
-5.17979e-05
5.18415e-05
-6.39945e-05
4.87296e-05
-7.53873e-05
4.55249e-05
-8.59103e-05
4.20673e-05
-9.55317e-05
3.84788e-05
-0.000104269
3.49292e-05
-0.000112108
3.13266e-05
-0.000119083
2.78732e-05
-0.000125132
2.42239e-05
-0.000130279
2.05966e-05
-0.000134599
1.72489e-05
-0.000138028
1.3719e-05
-0.000140526
1.00335e-05
-0.00014219
6.67936e-06
-0.000143001
3.31057e-06
-0.000142907
-2.8284e-07
-0.000141953
-3.76643e-06
-0.000140156
-7.16002e-06
-0.000137643
-1.00175e-05
-0.000134423
-1.28544e-05
-0.00013051
-1.56259e-05
-0.000126013
-1.79606e-05
-0.000120922
-2.03409e-05
-0.000115347
-2.22823e-05
-0.000109312
-2.41361e-05
-0.000102806
-2.60371e-05
-9.59065e-05
-2.75311e-05
-8.86766e-05
-2.89172e-05
-8.10993e-05
-3.03018e-05
-7.31974e-05
-3.15872e-05
-6.49486e-05
-3.30055e-05
-5.6387e-05
-3.42382e-05
-4.74885e-05
-3.55851e-05
-3.83013e-05
-3.67384e-05
-2.8773e-05
-3.81334e-05
-1.89111e-05
-3.94245e-05
-8.7791e-06
-4.05063e-05
1.62248e-06
-4.15837e-05
1.2342e-05
-4.28253e-05
2.32268e-05
-4.35539e-05
3.42576e-05
-4.4078e-05
4.53944e-05
-4.44961e-05
5.65546e-05
-4.45687e-05
6.75713e-05
-4.39984e-05
7.84042e-05
-4.32496e-05
8.88631e-05
-4.17731e-05
9.88054e-05
-3.96895e-05
0.000108144
-3.72956e-05
0.00011666
-3.39772e-05
0.000124267
-3.03324e-05
0.000130852
-2.62698e-05
0.000136338
-2.19017e-05
0.00014059
-1.69535e-05
0.00014355
-1.18035e-05
0.000145176
-6.48248e-06
0.000145436
-1.07887e-06
0.000144371
4.20787e-06
0.000141927
9.77531e-06
0.000138181
1.49405e-05
0.000133185
1.99347e-05
0.000127029
2.45639e-05
0.000119809
2.88246e-05
0.000111627
3.26588e-05
0.000102617
3.59584e-05
9.29052e-05
3.87245e-05
8.26586e-05
4.09277e-05
7.20204e-05
4.24755e-05
6.11456e-05
4.34181e-05
5.01774e-05
4.37986e-05
3.92581e-05
4.36087e-05
2.85008e-05
4.29642e-05
1.80623e-05
4.16761e-05