/*--------------------------------*- C++ -*----------------------------------*\
| =========                 |                                                 |
| \\      /  F ield         | OpenFOAM: The Open Source CFD Toolbox           |
|  \\    /   O peration     | Version:  3.0.1                                 |
|   \\  /    A nd           | Web:      www.OpenFOAM.org                      |
|    \\/     M anipulation  |                                                 |
\*---------------------------------------------------------------------------*/
FoamFile
{
    version     2.0;
    format      ascii;
    class       surfaceScalarField;
    location    "22";
    object      alphaPhi;
}
// * * * * * * * * * * * * * * * * * * * * * * * * * * * * * * * * * * * * * //

dimensions      [0 3 -1 0 0 0 0];

internalField   nonuniform List<scalar> 
44922
(
-0.000624312
4.85059e-06
-0.000627491
3.17892e-06
-0.000629137
1.64602e-06
-0.000629367
2.29586e-07
-0.000627626
-1.74012e-06
-0.000624109
-3.51705e-06
-0.000618874
-5.23497e-06
-0.000611899
-6.97557e-06
-0.000603329
-8.57032e-06
-0.000593108
-1.0221e-05
-0.000581509
-1.15988e-05
-0.000568419
-1.30901e-05
-0.000554239
-1.41796e-05
-0.000538783
-1.54559e-05
-0.000522707
-1.60761e-05
-0.000505872
-1.6835e-05
-0.000488147
-1.77256e-05
-0.000470134
-1.80123e-05
-0.000451519
-1.8615e-05
-0.000432915
-1.86041e-05
-0.000414021
-1.8894e-05
-0.000395411
-1.86102e-05
-0.000376832
-1.85796e-05
-0.000358794
-1.80376e-05
-0.00034112
-1.76741e-05
-0.000324251
-1.68688e-05
-0.0003081
-1.61514e-05
-0.000293037
-1.50626e-05
-0.000279072
-1.39653e-05
-0.000266509
-1.25627e-05
-0.000255448
-1.10614e-05
-0.000246158
-9.29032e-06
-0.000238851
-7.30719e-06
-0.000233656
-5.19491e-06
-0.000230351
-3.30539e-06
-0.000229106
-1.24408e-06
-0.000230039
9.32171e-07
-0.000233105
3.06586e-06
-0.000238381
5.27673e-06
-0.000245659
7.27724e-06
-0.000255171
9.51216e-06
-0.000266445
1.12742e-05
-0.000279857
1.34117e-05
-0.00029466
1.48032e-05
-0.000311345
1.66855e-05
-0.00032895
1.76043e-05
-0.000348033
1.90835e-05
-0.000367495
1.94617e-05
-0.000387926
2.04312e-05
-0.0004082
2.02741e-05
-0.000429046
2.08464e-05
-0.000449597
2.05505e-05
-0.000469183
1.95861e-05
-0.000488167
1.89845e-05
-0.000505675
1.75075e-05
-0.000522081
1.64065e-05
-0.00053669
1.46088e-05
-0.000549815
1.31247e-05
-0.000561016
1.12016e-05
-0.000570593
9.57739e-06
-0.000578554
7.96117e-06
-0.00058536
6.80544e-06
-0.00058927
3.91054e-06
-0.000589228
-4.19402e-08
-0.000586011
-3.21619e-06
-0.000582062
-3.94854e-06
-0.000577061
-5.00136e-06
-0.000570458
-6.60251e-06
-0.000562318
-8.13945e-06
-0.000552688
-9.62992e-06
-0.00054171
-1.09778e-05
-0.000529516
-1.21935e-05
-0.000516256
-1.32599e-05
-0.000502034
-1.42213e-05
-0.000487145
-1.48883e-05
-0.000471525
-1.56202e-05
-0.000455692
-1.58318e-05
-0.00043942
-1.62716e-05
-0.00042334
-1.60803e-05
-0.000407164
-1.61752e-05
-0.000391521
-1.56427e-05
-0.000376056
-1.54648e-05
-0.000361362
-1.46929e-05
-0.000346956
-1.44057e-05
-0.000333463
-1.34932e-05
-0.000320028
-1.34343e-05
-0.00030742
-1.26077e-05
-0.00029443
-1.29897e-05
-0.00028193
-1.24995e-05
-0.000268324
-1.36051e-05
-0.000253811
-1.45131e-05
-0.000238347
-1.54639e-05
-0.000221116
-1.72306e-05
-0.000202669
-1.84463e-05
-0.000182372
-2.02967e-05
-0.000160857
-2.15146e-05
-0.000137954
-2.29018e-05
-0.000114356
-2.35984e-05
-9.03087e-05
-2.40466e-05
-6.64989e-05
-2.38094e-05
-4.34317e-05
-2.30668e-05
-2.17296e-05
-2.17018e-05
-1.98132e-06
-1.97479e-05
1.45767e-05
-1.65577e-05
2.77652e-05
-1.31882e-05
3.71578e-05
-9.39233e-06
4.2366e-05
-5.20778e-06
4.32393e-05
-8.73001e-07
3.97171e-05
3.52245e-06
3.17475e-05
7.96994e-06
1.95122e-05
1.22355e-05
3.33978e-06
1.61726e-05
-1.6074e-05
1.9414e-05
-3.83783e-05
2.23045e-05
-6.27785e-05
2.44003e-05
-8.86971e-05
2.59187e-05
-0.000115339
2.66422e-05
-0.000142092
2.67526e-05
-0.000168194
2.61024e-05
-0.000193226
2.50322e-05
-0.00021667
2.3444e-05
-0.000238298
2.16282e-05
-0.000257748
1.94499e-05
-0.000274993
1.72449e-05
-0.000289944
1.49509e-05
-0.000302837
1.28934e-05
-0.000313521
1.06832e-05
-0.000322463
8.94265e-06
-0.00032952
7.05729e-06
-0.00033528
5.75978e-06
-0.000339593
4.31308e-06
-0.000342928
3.33437e-06
-0.000345251
2.32329e-06
-0.000346937
1.68579e-06
-0.000347967
1.03071e-06
-0.000348582
6.14319e-07
-0.000348849
2.67542e-07
-0.000348898
4.87781e-08
-0.000348787
-1.10994e-07
-0.000348525
-2.62486e-07
-0.000348296
-2.2886e-07
-0.000348024
-2.71955e-07
-0.000347924
-1.00123e-07
-0.000347775
-1.4829e-07
-0.000347723
-5.273e-08
-0.000347641
-8.19303e-08
-0.000347806
1.6548e-07
-0.000348016
2.09943e-07
-0.000348342
3.25608e-07
-0.000348821
4.79858e-07
-0.000349371
5.49209e-07
-0.000350062
6.91549e-07
-0.000350804
7.41828e-07
-0.00035165
8.45631e-07
-0.000352468
8.1819e-07
-0.00035331
8.42386e-07
-0.00035407
7.59425e-07
-0.000354762
6.92588e-07
-0.000355267
5.04546e-07
-0.000355499
2.32528e-07
-0.00035548
-1.88246e-08
-0.000355288
-1.92261e-07
-0.000354562
-7.2601e-07
-0.000353298
-1.26407e-06
-0.000351446
-1.85213e-06
-0.00034893
-2.51525e-06
-0.000345714
-3.21651e-06
-0.000341758
-3.95599e-06
-0.000337031
-4.72637e-06
-0.000331526
-5.5051e-06
-0.000325257
-6.26909e-06
-0.000318181
-7.07587e-06
-0.000310226
-7.95477e-06
-0.000301345
-8.88047e-06
-0.000291504
-9.84043e-06
-0.000280715
-1.07896e-05
-0.000269073
-1.16415e-05
-0.000256607
-1.2466e-05
-0.0002433
-1.33069e-05
-0.000229169
-1.41303e-05
-0.000214228
-1.49411e-05
-0.00019864
-1.55881e-05
-0.000182409
-1.62304e-05
-0.000165557
-1.68514e-05
-0.000148178
-1.73792e-05
-0.000130489
-1.7689e-05
-0.000112389
-1.80999e-05
-9.4134e-05
-1.82544e-05
-7.5699e-05
-1.84348e-05
-5.73506e-05
-1.83483e-05
-3.90781e-05
-1.82722e-05
-2.106e-05
-1.8018e-05
-3.38017e-06
-1.76796e-05
1.38861e-05
-1.72661e-05
3.05325e-05
-1.66462e-05
4.65309e-05
-1.59982e-05
6.17622e-05
-1.52312e-05
7.6232e-05
-1.44697e-05
8.98012e-05
-1.35691e-05
0.000102484
-1.26827e-05
0.000114088
-1.16033e-05
0.000124557
-1.04695e-05
0.000133808
-9.25049e-06
0.000141744
-7.93577e-06
0.000148302
-6.55799e-06
0.000153452
-5.14968e-06
0.000157047
-3.59528e-06
0.000159071
-2.02412e-06
0.000159586
-5.14599e-07
0.000158588
9.97872e-07
0.000156249
2.33945e-06
0.000152569
3.68021e-06
0.00014778
4.78878e-06
0.000141991
5.78898e-06
0.000135569
6.42209e-06
0.000128239
7.3303e-06
0.000119667
8.57183e-06
0.0001086
1.10673e-05
9.40695e-05
1.45301e-05
7.59661e-05
1.81034e-05
5.70308e-05
1.89353e-05
4.0543e-05
1.64878e-05
2.55195e-05
1.50235e-05
1.16481e-05
1.38714e-05
6.1778e-06
5.47036e-06
-0.000624409
9.70732e-06
-0.000627586
6.35618e-06
-0.000629233
3.29283e-06
-0.000629448
4.44966e-07
-0.000627719
-3.46903e-06
-0.0006242
-7.03587e-06
-0.000618963
-1.04728e-05
-0.000611983
-1.39555e-05
-0.000603407
-1.71455e-05
-0.00059318
-2.04481e-05
-0.000581575
-2.32038e-05
-0.000568478
-2.61875e-05
-0.000554291
-2.83666e-05
-0.000538827
-3.09202e-05
-0.000522743
-3.21598e-05
-0.0005059
-3.3678e-05
-0.000488166
-3.546e-05
-0.000470145
-3.60328e-05
-0.000451522
-3.72385e-05
-0.00043291
-3.72161e-05
-0.000414008
-3.77962e-05
-0.00039539
-3.72282e-05
-0.000376802
-3.71673e-05
-0.000358757
-3.6083e-05
-0.000341075
-3.53566e-05
-0.000324197
-3.37462e-05
-0.000308037
-3.23119e-05
-0.000292966
-3.0134e-05
-0.00027899
-2.7941e-05
-0.000266417
-2.51362e-05
-0.000255343
-2.21351e-05
-0.000246029
-1.86042e-05
-0.000238676
-1.46608e-05
-0.000233451
-1.04202e-05
-0.00023017
-6.58591e-06
-0.000228962
-2.45244e-06
-0.000229893
1.86332e-06
-0.000232967
6.1396e-06
-0.000238247
1.05567e-05
-0.000245527
1.45572e-05
-0.000255043
1.90286e-05
-0.000266323
2.25541e-05
-0.000279743
2.68313e-05
-0.000294555
2.96154e-05
-0.000311252
3.33824e-05
-0.000328869
3.52206e-05
-0.000347966
3.81807e-05
-0.000367441
3.89373e-05
-0.000387888
4.08777e-05
-0.000408177
4.05631e-05
-0.000429039
4.17086e-05
-0.000449604
4.1116e-05
-0.000469203
3.9185e-05
-0.000488199
3.79802e-05
-0.000505715
3.50236e-05
-0.000522126
3.28186e-05
-0.000536733
2.92159e-05
-0.000549844
2.62353e-05
-0.000560995
2.23527e-05
-0.000570448
1.90312e-05
-0.00057818
1.56934e-05
-0.000584604
1.32289e-05
-0.000588195
7.50302e-06
-0.000588236
-2.44023e-10
-0.000585662
-5.78949e-06
-0.000582103
-7.50783e-06
-0.000577137
-9.96683e-06
-0.000570537
-1.32019e-05
-0.000562395
-1.62803e-05
-0.000552763
-1.92622e-05
-0.000541782
-2.19586e-05
-0.000529584
-2.43904e-05
-0.000516319
-2.65235e-05
-0.000502093
-2.84469e-05
-0.000487199
-2.97808e-05
-0.000471573
-3.12455e-05
-0.000455736
-3.16686e-05
-0.000439458
-3.25483e-05
-0.000423371
-3.21663e-05
-0.000407191
-3.2355e-05
-0.000391544
-3.12894e-05
-0.000376083
-3.09256e-05
-0.000361398
-2.9376e-05
-0.000346999
-2.88042e-05
-0.000333512
-2.69791e-05
-0.000320087
-2.68585e-05
-0.000307493
-2.52014e-05
-0.000294519
-2.59629e-05
-0.000282035
-2.49824e-05
-0.000268443
-2.71969e-05
-0.000253941
-2.90142e-05
-0.000238488
-3.09156e-05
-0.000221256
-3.4462e-05
-0.000202802
-3.68996e-05
-0.000182492
-4.06057e-05
-0.000160955
-4.30513e-05
-0.000138024
-4.58314e-05
-0.000114391
-4.72304e-05
-9.03011e-05
-4.81359e-05
-6.64548e-05
-4.76547e-05
-4.33424e-05
-4.61782e-05
-2.16026e-05
-4.34406e-05
-1.80416e-06
-3.95455e-05
1.47671e-05
-3.3128e-05
2.7974e-05
-2.63943e-05
3.74068e-05
-1.88245e-05
4.26317e-05
-1.0432e-05
4.35112e-05
-1.75191e-06
3.99705e-05
7.06372e-06
3.19818e-05
1.5959e-05
1.96962e-05
2.45215e-05
3.57594e-06
3.22932e-05
-1.59162e-05
3.89065e-05
-3.82678e-05
4.46564e-05
-6.27049e-05
4.88377e-05
-8.86643e-05
5.18782e-05
-0.000115341
5.33183e-05
-0.000142141
5.35535e-05
-0.000168275
5.22362e-05
-0.000193339
5.00964e-05
-0.000216794
4.68991e-05
-0.000238437
4.32709e-05
-0.000257892
3.89047e-05
-0.000275151
3.45043e-05
-0.000290091
2.9891e-05
-0.000302985
2.57869e-05
-0.000313655
2.13534e-05
-0.00032259
1.78783e-05
-0.000329634
1.41012e-05
-0.000335381
1.15072e-05
-0.000339683
8.61414e-06
-0.00034301
6.66135e-06
-0.000345313
4.62676e-06
-0.000346993
3.36562e-06
-0.000348015
2.05332e-06
-0.000348626
1.22467e-06
-0.000348886
5.27677e-07
-0.000348926
8.91844e-08
-0.000348822
-2.158e-07
-0.000348554
-5.30334e-07
-0.000348329
-4.54271e-07
-0.00034805
-5.49633e-07
-0.000347942
-2.08367e-07
-0.000347789
-3.00743e-07
-0.000347743
-1.00143e-07
-0.000347675
-1.49932e-07
-0.000347837
3.2775e-07
-0.000348045
4.18953e-07
-0.000348368
6.48288e-07
-0.000348847
9.58424e-07
-0.000349397
1.09899e-06
-0.000350092
1.38589e-06
-0.000350836
1.48622e-06
-0.000351685
1.69567e-06
-0.000352505
1.6376e-06
-0.000353352
1.68919e-06
-0.000354113
1.52063e-06
-0.00035481
1.3898e-06
-0.000355324
1.01837e-06
-0.00035557
4.78847e-07
-0.000355565
-2.39782e-08
-0.000355352
-4.04879e-07
-0.000354637
-1.4408e-06
-0.000353375
-2.52534e-06
-0.000351525
-3.70199e-06
-0.000349013
-5.0272e-06
-0.000345812
-6.4181e-06
-0.000341846
-7.92116e-06
-0.00033712
-9.45266e-06
-0.000331617
-1.10072e-05
-0.000325351
-1.25348e-05
-0.00031828
-1.41465e-05
-0.000310328
-1.59063e-05
-0.000301446
-1.77621e-05
-0.000291602
-1.96843e-05
-0.000280807
-2.15852e-05
-0.000269161
-2.3287e-05
-0.000256697
-2.49292e-05
-0.000243388
-2.66146e-05
-0.00022925
-2.8268e-05
-0.000214299
-2.98914e-05
-0.000198707
-3.11801e-05
-0.000182469
-3.24675e-05
-0.000165613
-3.37074e-05
-0.000148224
-3.47671e-05
-0.000130525
-3.53881e-05
-0.000112412
-3.62117e-05
-9.41489e-05
-3.65171e-05
-7.57087e-05
-3.68745e-05
-5.73557e-05
-3.67007e-05
-3.90791e-05
-3.65483e-05
-2.10518e-05
-3.60447e-05
-3.35618e-06
-3.53747e-05
1.39145e-05
-3.45363e-05
3.05678e-05
-3.3299e-05
4.65767e-05
-3.20067e-05
6.18135e-05
-3.04674e-05
7.62899e-05
-2.89457e-05
8.98712e-05
-2.71499e-05
0.00010256
-2.53711e-05
0.000114171
-2.32134e-05
0.000124649
-2.0948e-05
0.000133908
-1.85087e-05
0.000141849
-1.58773e-05
0.000148415
-1.31235e-05
0.000153568
-1.03022e-05
0.000157169
-7.19625e-06
0.000159194
-4.0484e-06
0.000159711
-1.03173e-06
0.000158703
2.00638e-06
0.000156364
4.6785e-06
0.000152673
7.37138e-06
0.00014787
9.59171e-06
0.000142033
1.16258e-05
0.000135562
1.28927e-05
0.000128369
1.45239e-05
0.000120654
1.62864e-05
0.000111813
1.99082e-05
0.000101419
2.4925e-05
8.92621e-05
3.026e-05
7.71902e-05
3.10073e-05
6.65524e-05
2.71256e-05
5.55783e-05
2.59974e-05
3.69206e-05
3.25291e-05
2.79712e-05
1.51272e-05
-0.00062454
1.45138e-05
-0.000627748
9.56459e-06
-0.000629416
4.96131e-06
-0.000629626
6.55093e-07
-0.000627904
-5.19191e-06
-0.000624384
-1.05553e-05
-0.000619143
-1.57141e-05
-0.000612157
-2.09409e-05
-0.000603574
-2.57284e-05
-0.000593338
-3.06849e-05
-0.000581722
-3.48199e-05
-0.000568611
-3.92978e-05
-0.000554411
-4.25672e-05
-0.000538931
-4.63998e-05
-0.000522833
-4.82582e-05
-0.000505974
-5.05366e-05
-0.000488223
-5.32113e-05
-0.000470186
-5.40695e-05
-0.000451546
-5.5879e-05
-0.000432918
-5.58441e-05
-0.000414
-5.67148e-05
-0.000395366
-5.58617e-05
-0.000376762
-5.57712e-05
-0.000358701
-5.41446e-05
-0.000341001
-5.30562e-05
-0.000324107
-5.06409e-05
-0.000307928
-4.8491e-05
-0.000292837
-4.52248e-05
-0.000278841
-4.19374e-05
-0.000266244
-3.77327e-05
-0.00025514
-3.32391e-05
-0.000245778
-2.79668e-05
-0.000238322
-2.21168e-05
-0.000232925
-1.58169e-05
-0.000229599
-9.91229e-06
-0.00022857
-3.48154e-06
-0.000229619
2.91217e-06
-0.000232712
9.23329e-06
-0.000238
1.58441e-05
-0.000245287
2.1844e-05
-0.000254814
2.85555e-05
-0.000266107
3.38472e-05
-0.000279544
4.02689e-05
-0.000294377
4.44481e-05
-0.000311099
5.0104e-05
-0.000328741
5.2863e-05
-0.000347868
5.73078e-05
-0.000367374
5.84429e-05
-0.000387853
6.13569e-05
-0.000408174
6.08841e-05
-0.00042907
6.2605e-05
-0.000449668
6.17141e-05
-0.000469296
5.88129e-05
-0.000488318
5.70023e-05
-0.000505855
5.25611e-05
-0.000522285
4.92483e-05
-0.0005369
4.38314e-05
-0.000550001
3.9336e-05
-0.000561106
3.34583e-05
-0.000570453
2.8379e-05
-0.000577849
2.30895e-05
-0.000583356
1.87361e-05
-0.000586301
1.04477e-05
-0.000586771
4.70703e-07
-0.000585333
-7.22677e-06
-0.000582249
-1.05914e-05
-0.000577333
-1.48822e-05
-0.000570734
-1.98002e-05
-0.000562586
-2.4427e-05
-0.000552945
-2.89028e-05
-0.000541955
-3.29488e-05
-0.000529748
-3.65974e-05
-0.000516471
-3.97983e-05
-0.000502231
-4.26849e-05
-0.000487325
-4.4686e-05
-0.000471685
-4.68844e-05
-0.000455834
-4.75192e-05
-0.000439542
-4.88386e-05
-0.00042344
-4.82676e-05
-0.000407248
-4.85466e-05
-0.000391589
-4.69484e-05
-0.000376122
-4.63922e-05
-0.000361432
-4.40627e-05
-0.000347035
-4.32e-05
-0.00033356
-4.04529e-05
-0.000320156
-4.02623e-05
-0.000307587
-3.77689e-05
-0.000294645
-3.89034e-05
-0.000282199
-3.74271e-05
-0.000268638
-4.07568e-05
-0.000254162
-4.34894e-05
-0.000238734
-4.63425e-05
-0.000221506
-5.16887e-05
-0.000203046
-5.53591e-05
-0.000182716
-6.09349e-05
-0.000161144
-6.46215e-05
-0.00013817
-6.88054e-05
-0.00011448
-7.0919e-05
-9.03097e-05
-7.23055e-05
-6.64065e-05
-7.15572e-05
-4.32136e-05
-6.93703e-05
-2.14057e-05
-6.52478e-05
-1.50811e-06
-5.94424e-05
1.50855e-05
-4.9721e-05
2.83466e-05
-3.96547e-05
3.78358e-05
-2.8313e-05
4.31117e-05
-1.57072e-05
4.401e-05
-2.64957e-06
4.04195e-05
1.06547e-05
3.23871e-05
2.3992e-05
2.0044e-05
3.68653e-05
3.94104e-06
4.83968e-05
-1.56573e-05
5.85055e-05
-3.80968e-05
6.70965e-05
-6.26127e-05
7.33543e-05
-8.86604e-05
7.79266e-05
-0.000115398
8.0056e-05
-0.000142279
8.04351e-05
-0.000168458
7.8415e-05
-0.000193583
7.52234e-05
-0.000217062
7.03779e-05
-0.000238738
6.49472e-05
-0.00025819
5.83568e-05
-0.000275468
5.17823e-05
-0.000290385
4.4809e-05
-0.000303271
3.8673e-05
-0.000313917
3.19989e-05
-0.000322844
2.68057e-05
-0.000329859
2.11162e-05
-0.000335577
1.72249e-05
-0.000339849
1.28865e-05
-0.000343154
9.96623e-06
-0.000345421
6.89431e-06
-0.000347085
5.02986e-06
-0.000348084
3.05209e-06
-0.000348691
1.83135e-06
-0.000348928
7.64989e-07
-0.000348956
1.1657e-07
-0.000348851
-3.20351e-07
-0.000348572
-8.0897e-07
-0.000348358
-6.68228e-07
-0.00034808
-8.28462e-07
-0.000347955
-3.3262e-07
-0.000347769
-4.86752e-07
-0.000347733
-1.3621e-07
-0.000347696
-1.86852e-07
-0.000347855
4.86483e-07
-0.000348055
6.1898e-07
-0.00034837
9.63558e-07
-0.000348846
1.43379e-06
-0.000349397
1.65035e-06
-0.000350099
2.08799e-06
-0.000350845
2.23196e-06
-0.000351702
2.55334e-06
-0.000352523
2.45691e-06
-0.000353375
2.54162e-06
-0.000354141
2.28794e-06
-0.000354842
2.09016e-06
-0.00035537
1.54644e-06
-0.000355664
7.73535e-07
-0.000355705
1.69909e-08
-0.000355431
-6.79682e-07
-0.000354705
-2.16567e-06
-0.000353453
-3.77667e-06
-0.000351604
-5.55136e-06
-0.0003491
-7.5304e-06
-0.000345911
-9.60793e-06
-0.000341943
-1.18884e-05
-0.000337215
-1.41796e-05
-0.000331717
-1.65051e-05
-0.000325456
-1.87954e-05
-0.000318393
-2.12088e-05
-0.000310449
-2.38499e-05
-0.000301572
-2.66385e-05
-0.000291726
-2.95306e-05
-0.000280926
-3.2384e-05
-0.000269269
-3.49439e-05
-0.000256792
-3.74064e-05
-0.0002435
-3.99058e-05
-0.000229352
-4.24154e-05
-0.000214383
-4.48601e-05
-0.000198782
-4.67805e-05
-0.000182534
-4.87152e-05
-0.000165674
-5.05677e-05
-0.000148271
-5.21689e-05
-0.00013056
-5.30989e-05
-0.000112435
-5.4336e-05
-9.4159e-05
-5.47932e-05
-7.57119e-05
-5.53213e-05
-5.73492e-05
-5.50629e-05
-3.90684e-05
-5.48287e-05
-2.10277e-05
-5.4085e-05
-3.31295e-06
-5.30891e-05
1.39665e-05
-5.18153e-05
3.06327e-05
-4.99648e-05
4.66657e-05
-4.80393e-05
6.18975e-05
-4.56988e-05
7.63772e-05
-4.34247e-05
8.99751e-05
-4.07471e-05
0.000102682
-3.80769e-05
0.000114298
-3.48287e-05
0.000124786
-3.14361e-05
0.000134059
-2.77814e-05
0.000142004
-2.38214e-05
0.000148566
-1.96855e-05
0.00015372
-1.54555e-05
0.000157328
-1.08046e-05
0.000159374
-6.09398e-06
0.00015989
-1.54784e-06
0.000158852
3.0448e-06
0.000156512
7.01824e-06
0.000152792
1.10911e-05
0.000147977
1.44075e-05
0.000142119
1.74838e-05
0.000135647
1.93653e-05
0.000128412
2.17583e-05
0.000120683
2.40163e-05
0.000112139
2.84518e-05
0.000102701
3.43636e-05
9.20099e-05
4.09508e-05
8.01921e-05
4.28252e-05
6.86001e-05
3.87177e-05
5.96563e-05
3.49413e-05
5.11333e-05
4.10521e-05
4.29156e-05
3.61891e-05
-0.000624763
1.92719e-05
-0.000628015
1.28168e-05
-0.000629706
6.65288e-06
-0.000629912
8.60579e-07
-0.000628182
-6.92132e-06
-0.000624661
-1.4077e-05
-0.000619414
-2.09606e-05
-0.00061242
-2.79349e-05
-0.000603826
-3.4323e-05
-0.000593574
-4.09365e-05
-0.000581941
-4.64526e-05
-0.000568812
-5.24274e-05
-0.000554591
-5.67881e-05
-0.000539088
-6.19026e-05
-0.000522968
-6.43787e-05
-0.000506086
-6.74188e-05
-0.000488309
-7.09879e-05
-0.000470248
-7.21307e-05
-0.000451582
-7.45449e-05
-0.00043293
-7.4496e-05
-0.000413987
-7.56579e-05
-0.000395331
-7.45187e-05
-0.000376702
-7.43995e-05
-0.000358617
-7.22301e-05
-0.000340892
-7.07812e-05
-0.000323972
-6.75614e-05
-0.000307765
-6.46975e-05
-0.000292646
-6.03436e-05
-0.00027862
-5.59638e-05
-0.000265992
-5.03613e-05
-0.000254848
-4.43826e-05
-0.000245425
-3.73907e-05
-0.000237841
-2.97008e-05
-0.000232234
-2.14233e-05
-0.000228856
-1.3291e-05
-0.000228027
-4.31078e-06
-0.000229218
4.10382e-06
-0.000232333
1.23479e-05
-0.000237629
2.11406e-05
-0.000244926
2.91407e-05
-0.000254469
3.80977e-05
-0.000265782
4.51602e-05
-0.000279246
5.37335e-05
-0.000294109
5.93112e-05
-0.000310868
6.6863e-05
-0.00032855
7.05447e-05
-0.000347722
7.64797e-05
-0.000367273
7.79937e-05
-0.000387801
8.18855e-05
-0.00040817
8.12534e-05
-0.000429118
8.3553e-05
-0.000449766
8.23617e-05
-0.000469438
7.84849e-05
-0.0004885
7.60649e-05
-0.000506071
7.01319e-05
-0.000522528
6.57059e-05
-0.000537161
5.84638e-05
-0.000550263
5.24385e-05
-0.000561337
4.45326e-05
-0.000570577
3.762e-05
-0.000577635
3.01476e-05
-0.00058231
2.34104e-05
-0.000585008
1.31465e-05
-0.000586311
1.77359e-06
-0.000585534
-8.00247e-06
-0.000582507
-1.3617e-05
-0.000577631
-1.97587e-05
-0.000571031
-2.63995e-05
-0.000562875
-3.25832e-05
-0.000553221
-3.85561e-05
-0.000542216
-4.39535e-05
-0.000529992
-4.88199e-05
-0.000516699
-5.3089e-05
-0.000502441
-5.69421e-05
-0.000487518
-5.96098e-05
-0.000471857
-6.25446e-05
-0.000455985
-6.33913e-05
-0.000439672
-6.51504e-05
-0.000423545
-6.43924e-05
-0.000407333
-6.47574e-05
-0.000391654
-6.26272e-05
-0.000376177
-6.18687e-05
-0.000361484
-5.87545e-05
-0.000347093
-5.75911e-05
-0.000333638
-5.39074e-05
-0.000320259
-5.36407e-05
-0.000307726
-5.03009e-05
-0.000294826
-5.1802e-05
-0.000282437
-4.98171e-05
-0.000268927
-5.4266e-05
-0.000254485
-5.79305e-05
-0.000239088
-6.1739e-05
-0.000221861
-6.89147e-05
-0.000203395
-7.38239e-05
-0.000183028
-8.13012e-05
-0.000161409
-8.62395e-05
-0.000138365
-9.18491e-05
-0.000114591
-9.46925e-05
-9.03276e-05
-9.6568e-05
-6.63102e-05
-9.55739e-05
-4.29964e-05
-9.26834e-05
-2.10789e-05
-8.71642e-05
-1.04329e-06
-7.94769e-05
1.5566e-05
-6.63293e-05
2.8945e-05
-5.30329e-05
3.85035e-05
-3.78708e-05
4.38807e-05
-2.10838e-05
4.48139e-05
-3.58207e-06
4.11195e-05
1.43497e-05
3.30268e-05
3.20854e-05
2.07159e-05
4.91767e-05
4.46415e-06
6.46492e-05
-1.52519e-05
7.82223e-05
-3.78213e-05
8.96665e-05
-6.24587e-05
9.79927e-05
-8.8628e-05
0.000104097
-0.000115454
0.000106883
-0.000142458
0.000107439
-0.000168722
0.00010468
-0.000193929
0.000100431
-0.000217443
9.38922e-05
-0.000239173
8.66775e-05
-0.000258611
7.7795e-05
-0.000275918
6.90888e-05
-0.000290817
5.97091e-05
-0.000303674
5.15303e-05
-0.000314292
4.26166e-05
-0.000323195
3.57086e-05
-0.000330172
2.80937e-05
-0.000335848
2.29009e-05
-0.00034008
1.71181e-05
-0.000343353
1.32388e-05
-0.000345584
9.12544e-06
-0.000347217
6.66328e-06
-0.000348186
4.02177e-06
-0.000348783
2.42863e-06
-0.000348981
9.63079e-07
-0.000349002
1.3754e-07
-0.00034889
-4.33088e-07
-0.000348592
-1.10759e-06
-0.000348388
-8.72118e-07
-0.000348108
-1.10734e-06
-0.000347964
-4.75984e-07
-0.000347753
-6.98287e-07
-0.000347726
-1.63582e-07
-0.00034771
-2.03096e-07
-0.000347874
6.50517e-07
-0.000348058
8.02477e-07
-0.000348375
1.28085e-06
-0.000348841
1.90135e-06
-0.000349395
2.20393e-06
-0.000350104
2.79714e-06
-0.000350852
2.97939e-06
-0.000351721
3.42242e-06
-0.00035254
3.27561e-06
-0.000353401
3.40216e-06
-0.000354174
3.06129e-06
-0.000354881
2.79861e-06
-0.000355425
2.09071e-06
-0.000355791
1.13885e-06
-0.000355876
1.02164e-07
-0.00035555
-1.00602e-06
-0.000354809
-2.90724e-06
-0.000353573
-5.01273e-06
-0.000351724
-7.39847e-06
-0.000349231
-1.00228e-05
-0.000346032
-1.28076e-05
-0.000342089
-1.58322e-05
-0.000337361
-1.8908e-05
-0.000331868
-2.19969e-05
-0.000325615
-2.50485e-05
-0.000318556
-2.82675e-05
-0.000310624
-3.17816e-05
-0.000301769
-3.54938e-05
-0.000291915
-3.93829e-05
-0.000281107
-4.31922e-05
-0.000269437
-4.66127e-05
-0.000256935
-4.99082e-05
-0.000243664
-5.31776e-05
-0.000229524
-5.65541e-05
-0.000214514
-5.98703e-05
-0.000198898
-6.23963e-05
-0.000182638
-6.49745e-05
-0.000165772
-6.74333e-05
-0.000148375
-6.95658e-05
-0.000130625
-7.08478e-05
-0.000112491
-7.24703e-05
-9.41867e-05
-7.30968e-05
-7.57352e-05
-7.37724e-05
-5.73418e-05
-7.3456e-05
-3.90139e-05
-7.31561e-05
-2.0989e-05
-7.21096e-05
-3.24339e-06
-7.08344e-05
1.40377e-05
-6.90962e-05
3.07271e-05
-6.6654e-05
4.6805e-05
-6.4117e-05
6.20223e-05
-6.09158e-05
7.65117e-05
-5.79141e-05
9.01302e-05
-5.43657e-05
0.00010287
-5.08166e-05
0.000114489
-4.64475e-05
0.000124976
-4.19229e-05
0.000134284
-3.7089e-05
0.000142241
-3.17781e-05
0.000148812
-2.62565e-05
0.000153949
-2.05919e-05
0.000157547
-1.44031e-05
0.000159633
-8.1795e-06
0.000160145
-2.05948e-06
0.000159083
4.10643e-06
0.000156715
9.38685e-06
0.000152957
1.48489e-05
0.000148115
1.92495e-05
0.000142234
2.33649e-05
0.000135744
2.58558e-05
0.000128556
2.89463e-05
0.000121085
3.1487e-05
0.000112922
3.66152e-05
0.000103904
4.33822e-05
9.35423e-05
5.13124e-05
8.19223e-05
5.44453e-05
6.97843e-05
5.08558e-05
6.00315e-05
4.46942e-05
5.01909e-05
5.08928e-05
5.91427e-05
3.3964e-05
-0.000625126
2.40312e-05
-0.000628385
1.60766e-05
-0.000630086
8.35303e-06
-0.00063029
1.06509e-06
-0.000628557
-8.65473e-06
-0.000625031
-1.76025e-05
-0.000619778
-2.62142e-05
-0.000612772
-3.49406e-05
-0.000604162
-4.29333e-05
-0.00059389
-5.12081e-05
-0.000582235
-5.81074e-05
-0.00056908
-6.55828e-05
-0.000554832
-7.10361e-05
-0.000539298
-7.74362e-05
-0.000523148
-8.05288e-05
-0.000506234
-8.43325e-05
-0.000488424
-8.87986e-05
-0.00047033
-9.02243e-05
-0.000451631
-9.32445e-05
-0.000432947
-9.31795e-05
-0.000413972
-9.46335e-05
-0.000395284
-9.32066e-05
-0.000376624
-9.306e-05
-0.000358506
-9.03474e-05
-0.000340748
-8.85396e-05
-0.000323794
-8.45154e-05
-0.000307552
-8.09395e-05
-0.000292397
-7.54984e-05
-0.000278333
-7.0028e-05
-0.000265666
-6.30288e-05
-0.000254479
-5.55694e-05
-0.000245001
-4.68689e-05
-0.000237329
-3.73725e-05
-0.000231643
-2.71102e-05
-0.000228282
-1.66514e-05
-0.000227497
-5.0965e-06
-0.000228702
5.30893e-06
-0.000231829
1.54754e-05
-0.000237136
2.64467e-05
-0.000244445
3.64502e-05
-0.000254008
4.76606e-05
-0.000265348
5.64997e-05
-0.000278848
6.7234e-05
-0.000293752
7.4215e-05
-0.000310561
8.36716e-05
-0.000328295
8.82787e-05
-0.000347526
9.57115e-05
-0.000367137
9.76047e-05
-0.000387732
0.00010248
-0.000408166
0.000101687
-0.000429182
0.00010457
-0.000449896
0.000103076
-0.000469628
9.82163e-05
-0.000488745
9.51827e-05
-0.000506362
8.77492e-05
-0.000522861
8.22046e-05
-0.000537523
7.3126e-05
-0.000550646
6.55613e-05
-0.000561723
5.56106e-05
-0.000570932
4.68287e-05
-0.000577867
3.70834e-05
-0.000582339
2.78823e-05
-0.00058502
1.58277e-05
-0.000586516
3.27005e-06
-0.000585879
-8.63847e-06
-0.000582884
-1.66118e-05
-0.000578031
-2.46113e-05
-0.000571428
-3.30024e-05
-0.000563258
-4.07525e-05
-0.000553587
-4.82263e-05
-0.000542561
-5.49773e-05
-0.000530318
-6.10631e-05
-0.000517005
-6.64021e-05
-0.000502723
-7.12244e-05
-0.000487773
-7.45589e-05
-0.000472085
-7.82324e-05
-0.000456185
-7.92912e-05
-0.000439846
-8.14894e-05
-0.000423688
-8.05481e-05
-0.000407451
-8.09934e-05
-0.000391745
-7.83325e-05
-0.000376254
-7.73595e-05
-0.000361557
-7.34512e-05
-0.000347173
-7.19749e-05
-0.000333742
-6.7338e-05
-0.000320397
-6.69855e-05
-0.00030791
-6.27875e-05
-0.000295073
-6.4639e-05
-0.000282755
-6.21348e-05
-0.000269309
-6.77115e-05
-0.000254906
-7.23338e-05
-0.000239551
-7.70937e-05
-0.000222333
-8.61325e-05
-0.000203845
-9.23107e-05
-0.000183426
-0.000101719
-0.00016174
-0.000107924
-0.000138601
-0.000114987
-0.000114704
-0.00011859
-9.03285e-05
-0.000120942
-6.61577e-05
-0.000119744
-4.27236e-05
-0.000116117
-2.06943e-05
-0.000109194
-7.09127e-07
-9.94622e-05
1.62416e-05
-8.32801e-05
2.97445e-05
-6.65358e-05
3.93496e-05
-4.74754e-05
4.48293e-05
-2.65628e-05
4.57548e-05
-4.50696e-06
4.2167e-05
1.79383e-05
3.39258e-05
4.03272e-05
2.15708e-05
6.15325e-05
5.10744e-06
8.11132e-05
-1.46713e-05
9.80015e-05
-3.73983e-05
0.000112394
-6.21971e-05
0.000122792
-8.85345e-05
0.000130435
-0.0001155
0.000133849
-0.000142636
0.000134576
-0.000169021
0.000131065
-0.000194336
0.000125746
-0.000217889
0.000117445
-0.000239717
0.000108505
-0.000259156
9.72344e-05
-0.000276472
8.64049e-05
-0.000291369
7.46059e-05
-0.000304191
6.43524e-05
-0.000314754
5.31794e-05
-0.000323625
4.45795e-05
-0.000330544
3.50128e-05
-0.00033618
2.85367e-05
-0.000340362
2.1301e-05
-0.000343596
1.64724e-05
-0.000345771
1.13009e-05
-0.00034738
8.27176e-06
-0.000348295
4.93669e-06
-0.000348883
3.01675e-06
-0.000349054
1.13408e-06
-0.000349044
1.2833e-07
-0.00034893
-5.48084e-07
-0.000348615
-1.42185e-06
-0.000348413
-1.07437e-06
-0.000348123
-1.39787e-06
-0.000347965
-6.33293e-07
-0.000347752
-9.1054e-07
-0.000347718
-1.97899e-07
-0.000347716
-2.05762e-07
-0.000347886
8.21378e-07
-0.000348045
9.61217e-07
-0.000348375
1.61101e-06
-0.00034883
2.35596e-06
-0.00034938
2.75447e-06
-0.000350103
3.5204e-06
-0.000350853
3.72843e-06
-0.000351735
4.30499e-06
-0.000352563
4.10307e-06
-0.000353436
4.27601e-06
-0.000354216
3.84099e-06
-0.000354937
3.51953e-06
-0.000355492
2.64725e-06
-0.000355889
1.53477e-06
-0.000355993
2.06003e-07
-0.000355693
-1.3065e-06
-0.000354953
-3.64673e-06
-0.000353723
-6.24334e-06
-0.000351889
-9.23201e-06
-0.000349405
-1.25064e-05
-0.000346214
-1.59986e-05
-0.000342288
-1.9758e-05
-0.000337561
-2.36351e-05
-0.000332078
-2.74793e-05
-0.000325832
-3.12945e-05
-0.000318769
-3.533e-05
-0.000310845
-3.97056e-05
-0.000302013
-4.43262e-05
-0.000292162
-4.92331e-05
-0.000281321
-5.40323e-05
-0.000269638
-5.82963e-05
-0.000257127
-6.24205e-05
-0.000243863
-6.64408e-05
-0.000229707
-7.07095e-05
-0.000214714
-7.48629e-05
-0.000199058
-7.80519e-05
-0.00018278
-8.12529e-05
-0.000165915
-8.42986e-05
-0.000148475
-8.70058e-05
-0.000130717
-8.86049e-05
-0.000112566
-9.06214e-05
-9.42253e-05
-9.14377e-05
-7.57932e-05
-9.22044e-05
-5.73322e-05
-9.1917e-05
-3.89622e-05
-9.15263e-05
-2.09361e-05
-9.01357e-05
-3.14668e-06
-8.86238e-05
1.41224e-05
-8.63653e-05
3.08384e-05
-8.33701e-05
4.69728e-05
-8.02513e-05
6.21804e-05
-7.61234e-05
7.66948e-05
-7.24286e-05
9.03275e-05
-6.79984e-05
0.000103111
-6.36001e-05
0.000114732
-5.80684e-05
0.000125219
-5.24094e-05
0.000134584
-4.6454e-05
0.000142543
-3.9737e-05
0.000149138
-3.28514e-05
0.000154295
-2.57487e-05
0.000157858
-1.79659e-05
0.000159966
-1.0288e-05
0.000160464
-2.5575e-06
0.000159407
5.16396e-06
0.00015698
1.1814e-05
0.000153178
1.86512e-05
0.000148345
2.40827e-05
0.000142428
2.92815e-05
0.000135909
3.23751e-05
0.000128673
3.61825e-05
0.000121265
3.88945e-05
0.000113326
4.45549e-05
0.000104528
5.21799e-05
9.41412e-05
6.16996e-05
8.19097e-05
6.66768e-05
6.87534e-05
6.40121e-05
5.7731e-05
5.57166e-05
4.8234e-05
6.03899e-05
7.31802e-05
3.41964e-05
-0.000625594
2.88063e-05
-0.00062884
1.93228e-05
-0.000630544
1.00573e-05
-0.000630759
1.27986e-06
-0.000629025
-1.03889e-05
-0.000625495
-2.11325e-05
-0.000620232
-3.14769e-05
-0.000613212
-4.19609e-05
-0.000604582
-5.15632e-05
-0.000594286
-6.15045e-05
-0.000582603
-6.97898e-05
-0.000569415
-7.87705e-05
-0.000555133
-8.53182e-05
-0.000539561
-9.30086e-05
-0.000523374
-9.67159e-05
-0.000506421
-0.000101286
-0.000488568
-0.000106652
-0.000470434
-0.000108358
-0.000451692
-0.000111986
-0.000432969
-0.000111903
-0.000413953
-0.00011365
-0.000395226
-0.000111933
-0.000376526
-0.000111761
-0.000358369
-0.000108504
-0.000340569
-0.00010634
-0.000323574
-0.000101511
-0.000307288
-9.72252e-05
-0.00029209
-9.06971e-05
-0.00027798
-8.41378e-05
-0.000265267
-7.57418e-05
-0.000254034
-6.68023e-05
-0.000244512