/*--------------------------------*- C++ -*----------------------------------*\
| =========                 |                                                 |
| \\      /  F ield         | OpenFOAM: The Open Source CFD Toolbox           |
|  \\    /   O peration     | Version:  3.0.1                                 |
|   \\  /    A nd           | Web:      www.OpenFOAM.org                      |
|    \\/     M anipulation  |                                                 |
\*---------------------------------------------------------------------------*/
FoamFile
{
    version     2.0;
    format      ascii;
    class       volScalarField;
    location    "20";
    object      p_rgh;
}
// * * * * * * * * * * * * * * * * * * * * * * * * * * * * * * * * * * * * * //

dimensions      [1 -1 -2 0 0 0 0];

internalField   nonuniform List<scalar> 
22680
(
-186.78
-199.195
-210.267
-219.99
-228.386
-235.497
-241.382
-246.103
-249.725
-252.292
-253.851
-254.473
-254.17
-252.959
-250.844
-247.829
-243.907
-239.06
-233.263
-226.484
-218.688
-209.84
-199.907
-188.874
-176.735
-163.514
-149.255
-134.036
-117.944
-101.105
-83.6273
-65.6619
-47.3202
-28.7788
-10.0972
9.93337
28.3604
46.3187
63.731
80.509
96.5423
111.738
126.004
139.266
151.455
162.519
172.418
181.127
188.631
194.929
200.025
203.931
206.661
208.227
208.644
207.913
206.038
203.157
199.254
194.321
188.35
181.344
173.295
164.214
154.139
143.124
131.253
118.601
105.267
91.346
76.9525
62.212
47.2361
32.1507
17.0674
2.10282
-12.6423
-27.0648
-41.0749
-54.5814
-67.4911
-79.5933
-91.1251
-101.931
-111.94
-121.09
-129.334
-136.625
-142.928
-148.212
-152.454
-155.637
-157.759
-158.823
-158.845
-157.847
-155.863
-152.935
-149.108
-144.439
-138.983
-132.802
-125.958
-118.512
-110.521
-102.025
-93.0902
-83.7676
-74.1025
-64.1395
-53.9167
-43.4697
-32.8329
-22.0355
-11.1102
-0.0785606
11.0273
22.1881
33.3733
44.5637
55.725
66.8395
77.8708
88.8112
99.6011
110.208
120.583
130.683
140.449
149.812
158.693
166.999
174.632
181.48
187.431
192.364
196.164
198.717
199.92
199.682
197.929
194.607
189.68
183.158
175.062
165.428
154.34
141.899
128.232
113.481
97.8091
81.3865
64.3909
47.0007
29.3899
11.7261
-5.83597
-23.1559
-40.1106
-56.5956
-72.5239
-87.829
-102.461
-116.383
-129.575
-142.023
-153.723
-164.677
-174.895
-184.386
-193.167
-201.253
-208.665
-215.428
-221.567
-227.111
-232.09
-236.533
-240.475
-243.942
-246.959
-249.547
-251.713
-253.462
-254.784
-255.672
-256.098
-256.036
-255.458
-254.316
-252.557
-250.157
-247.066
-243.231
-238.608
-233.155
-226.834
-219.61
-211.45
-202.327
-192.224
-181.121
-169.015
-155.907
-141.808
-126.746
-110.751
-93.8807
-76.1924
-57.7731
-38.7081
-19.1223
0.874039
21.1383
41.525
61.8484
81.9625
101.693
120.87
139.317
156.856
173.346
188.625
202.461
214.57
-186.862
-199.275
-210.345
-220.066
-228.459
-235.566
-241.448
-246.165
-249.784
-252.348
-253.904
-254.525
-254.221
-253.01
-250.895
-247.881
-243.96
-239.114
-233.319
-226.543
-218.749
-209.903
-199.972
-188.94
-176.8
-163.577
-149.314
-134.091
-117.994
-101.148
-83.6631
-65.6901
-47.3406
-28.7913
-10.1021
9.93567
28.3702
46.3361
63.7557
80.5406
96.5803
111.782
126.053
139.32
151.512
162.58
172.481
181.192
188.697
194.995
200.092
203.997
206.726
208.293
208.709
207.979
206.102
203.22
199.317
194.383
188.411
181.403
173.352
164.269
154.19
143.17
131.295
118.637
105.297
91.369
76.9686
62.221
47.238
32.1457
17.0561
2.08544
-12.6652
-27.0929
-41.108
-54.6195
-67.534
-79.6344
-91.1703
-101.98
-111.992
-121.145
-129.39
-136.683
-142.988
-148.273
-152.515
-155.699
-157.82
-158.883
-158.903
-157.903
-155.917
-152.986
-149.156
-144.483
-139.025
-132.84
-125.992
-118.544
-110.548
-102.05
-93.1126
-83.7876
-74.1203
-64.1554
-53.9308
-43.4822
-32.8441
-22.0455
-11.1192
-0.086607
11.0202
22.1818
33.3679
44.559
55.7212
66.8367
77.8693
88.8107
99.6025
110.211
120.59
130.693
140.463
149.831
158.717
167.029
174.668
181.524
187.482
192.423
196.23
198.789
199.998
199.764
198.015
194.697
189.768
183.244
175.145
165.506
154.412
141.964
128.288
113.528
97.846
81.413
64.4071
47.0068
29.3865
11.7138
-5.85623
-23.1832
-40.1438
-56.6336
-72.5657
-87.8737
-102.508
-116.431
-129.623
-142.071
-153.771
-164.725
-174.942
-184.432
-193.212
-201.297
-208.708
-215.469
-221.606
-227.148
-232.124
-236.566
-240.506
-243.971
-246.987
-249.574
-251.739
-253.488
-254.812
-255.7
-256.128
-256.067
-255.492
-254.351
-252.595
-250.198
-247.109
-243.277
-238.657
-233.207
-226.888
-219.666
-211.507
-202.386
-192.284
-181.182
-169.076
-155.968
-141.868
-126.805
-110.808
-93.9342
-76.242
-57.8181
-38.7475
-19.1555
0.848062
21.1198
41.5148
61.8472
81.9708
101.711
120.899
139.357
156.904
173.405
188.688
202.496
214.433
-187.024
-199.436
-210.503
-220.219
-228.604
-235.705
-241.579
-246.288
-249.9
-252.458
-254.012
-254.63
-254.323
-253.111
-250.996
-247.983
-244.065
-239.223
-233.432
-226.66
-218.871
-210.029
-200.102
-189.071
-176.93
-163.704
-149.434
-134.202
-118.093
-101.234
-83.7348
-65.7467
-47.3815
-28.8164
-10.1115
9.93998
28.3899
46.371
63.8051
80.6038
96.6564
111.87
126.152
139.428
151.628
162.702
172.608
181.322
188.829
195.128
200.224
204.13
206.858
208.423
208.839
208.11
206.229
203.348
199.443
194.508
188.533
181.522
173.467
164.377
154.291
143.263
131.378
118.709
105.356
91.4151
77.0007
62.2389
47.2418
32.1359
17.0334
2.05067
-12.7111
-27.1492
-41.1742
-54.6957
-67.62
-79.7165
-91.2607
-102.078
-112.096
-121.254
-129.504
-136.8
-143.108
-148.395
-152.638
-155.821
-157.941
-159.002
-159.019
-158.015
-156.024
-153.087
-149.251
-144.572
-139.106
-132.915
-126.06
-118.605
-110.602
-102.099
-93.1561
-83.8261
-74.1543
-64.1854
-53.9572
-43.5054
-32.8646
-22.0635
-11.1352
-0.100725
11.0079
22.1714
33.359
44.5517
55.7157
66.8334
77.8684
88.8121
99.6076
110.221
120.605
130.714
140.492
149.87
158.767
167.092
174.744
181.615
187.588
192.543
196.365
198.937
200.158
199.933
198.191
194.877
189.949
183.421
175.315
165.668
154.561
142.098
128.405
113.626
97.9235
81.47
64.4434
47.023
29.3836
11.6933
-5.89273
-23.2336
-40.2062
-56.7057
-72.6454
-87.9589
-102.597
-116.523
-129.716
-142.165
-153.864
-164.817
-175.032
-184.521
-193.298
-201.38
-208.788
-215.546
-221.679
-227.217
-232.19
-236.627
-240.564
-244.026
-247.039
-249.624
-251.788
-253.537
-254.862
-255.753
-256.183
-256.127
-255.555
-254.417
-252.669
-250.277
-247.193
-243.366
-238.751
-233.306
-226.991
-219.773
-211.618
-202.5
-192.4
-181.3
-169.195
-156.087
-141.985
-126.918
-110.917
-94.0374
-76.3375
-57.9044
-38.8228
-19.2183
0.79977
21.0863
41.4981
61.8485
81.9912
101.751
120.96
139.44
157.006
173.533
188.822
202.686
214.672
-187.268
-199.677
-210.739
-220.447
-228.823
-235.913
-241.775
-246.474
-250.075
-252.623
-254.175
-254.787
-254.476
-253.262
-251.148
-248.137
-244.222
-239.385
-233.6
-226.835
-219.053
-210.219
-200.296
-189.268
-177.125
-163.894
-149.614
-134.367
-118.241
-101.363
-83.8423
-65.8316
-47.4429
-28.8539
-10.1254
9.94633
28.4194
46.4233
63.8792
80.6987
96.7706
112.002
126.3
139.589
151.802
162.885
172.798
181.517
189.026
195.327
200.423
204.328
207.055
208.62
209.033
208.304
206.421
203.539
199.632
194.694
188.716
181.7
173.638
164.54
154.443
143.402
131.502
118.817
105.446
91.4842
77.0488
62.2657
47.2475
32.1211
16.9992
1.99841
-12.78
-27.2336
-41.2735
-54.8101
-67.7491
-79.8395
-91.3963
-102.225
-112.252
-121.417
-129.674
-136.975
-143.287
-148.577
-152.821
-156.005
-158.123
-159.182
-159.194
-158.184
-156.185
-153.239
-149.394
-144.705
-139.229
-133.027
-126.162
-118.696
-110.684
-102.172
-93.2212
-83.8838
-74.2053
-64.2304
-53.9968
-43.5402
-32.8953
-22.0906
-11.1591
-0.121889
10.9895
22.1557
33.3458
44.5408
55.7075
66.8284
77.8671
88.8142
99.6153
110.236
120.627
130.747
140.537
149.928
158.842
167.185
174.859
181.75
187.746
192.724
196.567
199.159
200.397
200.186
198.454
195.145
190.221
183.687
175.571
165.91
154.785
142.299
128.58
113.773
98.04
81.5555
64.4979
47.0473
29.3793
11.6624
-5.94756
-23.3095
-40.2999
-56.8138
-72.7649
-88.0869
-102.73
-116.66
-129.856
-142.305
-154.003
-164.955
-175.168
-184.653
-193.427
-201.505
-208.908
-215.661
-221.789
-227.321
-232.288
-236.719
-240.65
-244.107
-247.116
-249.699
-251.862
-253.611
-254.937
-255.831
-256.266
-256.215
-255.65
-254.517
-252.778
-250.394
-247.318
-243.499
-238.892
-233.454
-227.146
-219.934
-211.785
-202.671
-192.575
-181.477
-169.373
-156.264
-142.16
-127.089
-111.081
-94.1924
-76.4808
-58.0339
-38.9357
-19.3124
0.727172
21.0361
41.4733
61.8505
82.0216
101.811
121.051
139.564
157.161
173.721
189.012
202.896
214.921
-187.594
-200
-211.054
-220.752
-229.115
-236.19
-242.037
-246.721
-250.308
-252.845
-254.39
-254.995
-254.679
-253.464
-251.351
-248.343
-244.433
-239.602
-233.825
-227.069
-219.297
-210.472
-200.556
-189.531
-177.386
-164.147
-149.854
-134.589
-118.439
-101.535
-83.9859
-65.9449
-47.5248
-28.9041
-10.1438
9.95471
28.4588
46.4931
63.9781
80.8253
96.9229
112.178
126.497
139.805
152.033
163.129
173.052
181.777
189.29
195.592
200.688
204.592
207.318
208.881
209.293
208.562
206.678
203.795
199.885
194.943
188.96
181.937
173.867
164.757
154.646
143.588
131.669
118.96
105.565
91.5764
77.113
62.3014
47.255
32.1012
16.9535
1.9286
-12.8719
-27.3462
-41.4059
-54.9625
-67.9218
-80.0031
-91.5774
-102.421
-112.46
-121.636
-129.9
-137.209
-143.527
-148.82
-153.067
-156.25
-158.367
-159.421
-159.426
-158.408
-156.4
-153.443
-149.584
-144.882
-139.392
-133.176
-126.297
-118.818
-110.793
-102.27
-93.3081
-83.9608
-74.2734
-64.2905
-54.0496
-43.5867
-32.9363
-22.1267
-11.191
-0.150121
10.9649
22.1348
33.328
44.5262
55.6964
66.8216
77.8653
88.8167
99.6255
110.255
120.657
130.789
140.595
150.006
158.941
167.31
175.01
181.931
187.957
192.965
196.837
199.456
200.717
200.525
198.805
195.503
190.582
184.042
175.913
166.233
155.083
142.568
128.814
113.968
98.1953
81.6694
64.5704
47.0794
29.3732
11.6208
-6.02105
-23.4109
-40.4252
-56.9584
-72.9245
-88.2577
-102.909
-116.844
-130.042
-142.491
-154.189
-165.138
-175.348
-184.83
-193.599
-201.672
-209.069
-215.815
-221.936
-227.46
-232.418
-236.842
-240.765
-244.216
-247.22
-249.799
-251.96
-253.71
-255.038
-255.936
-256.376
-256.334
-255.775
-254.651
-252.924
-250.55
-247.485
-243.676
-239.079
-233.652
-227.353
-220.15
-212.007
-202.9
-192.808
-181.714
-169.611
-156.501
-142.394
-127.317
-111.3
-94.3992
-76.6723
-58.2068
-39.0867
-19.4381
0.629834
20.9688
41.44
61.853
82.0619
101.891
121.172
139.728
157.367
173.972
189.284
203.269
215.394
-188.002
-200.403
-211.448
-221.133
-229.48
-236.536
-242.364
-247.03
-250.599
-253.123
-254.659
-255.255
-254.934
-253.716
-251.604
-248.599
-244.695
-239.872
-234.106
-227.362
-219.602
-210.788
-200.881
-189.86
-177.713
-164.465
-150.154
-134.866
-118.688
-101.75
-84.1656
-66.0867
-47.6273
-28.9668
-10.1666
9.96517
28.5081
46.5805
64.1019
80.9837
97.1135
112.398
126.744
140.076
152.323
163.435
173.369
182.102
189.62
195.924
201.02
204.923
207.648
209.209
209.619
208.885
207
204.114
200.2
195.254
189.266
182.235
174.153
165.029
154.9
143.821
131.877
119.14
105.713
91.6918
77.1933
62.346
47.2642
32.0762
16.8962
1.84109
-12.9871
-27.4872
-41.5713
-55.1531
-68.1386
-80.207
-91.804
-102.666
-112.721
-121.909
-130.184
-137.502
-143.826
-149.125
-153.374
-156.557
-158.671
-159.72
-159.717
-158.689
-156.668
-153.697
-149.822
-145.103
-139.596
-133.363
-126.467
-118.971
-110.93
-102.392
-93.4166
-84.057
-74.3584
-64.3654
-54.1156
-43.6448
-32.9875
-22.1719
-11.231
-0.185348
10.9342
22.1085
33.3056
44.5081
55.6825
66.813
77.8626
88.8196
99.638
110.278
120.693
130.842
140.668
150.103
159.066
167.465
175.2
182.157
188.221
193.266
197.174
199.826
201.116
200.948
199.245
195.952
191.033
184.487
176.341
166.638
155.457
142.903
129.106
114.213
98.3895
81.8116
64.6607
47.1193
29.3652
11.5684
-6.11343
-23.5383
-40.5824
-57.1397
-73.1246
-88.4718
-103.133
-117.074
-130.275
-142.725
-154.421
-165.368
-175.574
-185.051
-193.814
-201.881
-209.271
-216.008
-222.12
-227.633
-232.582
-236.996
-240.91
-244.352
-247.349
-249.924
-252.083
-253.832
-255.164
-256.067
-256.514
-256.481
-255.932
-254.82
-253.106
-250.746
-247.694
-243.898
-239.314
-233.899
-227.612
-220.418
-212.285
-203.185
-193.1
-182.01
-169.908
-156.797
-142.686
-127.601
-111.574
-94.6583
-76.9121
-58.4233
-39.2759
-19.5958
0.507465
20.8844
41.3983
61.8558
82.1118
101.99
121.323
139.933
157.625
174.283
189.626
203.661
215.918
-188.492
-200.888
-211.923
-221.591
-229.918
-236.952
-242.757
-247.4
-250.948
-253.456
-254.979
-255.566
-255.238
-254.019
-251.907
-248.906
-245.009
-240.197
-234.443
-227.713
-219.968
-211.168
-201.272
-190.256
-178.107
-164.847
-150.516
-135.199
-118.986
-102.009
-84.3816
-66.2572
-47.7504
-29.0422
-10.1941
9.97774
28.5673
46.6855
64.2506
81.174
97.3425
112.663
127.041
140.4
152.671
163.802
173.75
182.492
190.016
196.322
201.418
205.32
208.042
209.601
210.009
209.273
207.386
204.496
200.579
195.628
189.633
182.592
174.497
165.356
155.205
144.101
132.127
119.356
105.892
91.8304
77.2897
62.3995
47.275
32.0459
16.8271
1.73573
-13.1256
-27.6564
-41.7698
-55.3817
-68.4003
-80.4504
-92.0764
-102.961
-113.034
-122.237
-130.525
-137.853
-144.186
-149.49
-153.742
-156.926
-159.036
-160.079
-160.067
-159.026
-156.99
-154.002
-150.109
-145.369
-139.841
-133.586
-126.67
-119.153
-111.094
-102.538
-93.5466
-84.1723
-74.4603
-64.4553
-54.1947
-43.7144
-33.0489
-22.2261
-11.2789
-0.227526
10.8972
22.0767
33.2787
44.4863
55.6658
66.8023
77.8585
88.8233
99.6529
110.306
120.737
130.906
140.755
150.218
159.214
167.651
175.427
182.428
188.537
193.628
197.579
200.272
201.596
201.456
199.774
196.492
191.575
185.022
176.856
167.124
155.906
143.307
129.457
114.507
98.6225
81.9822
64.7689
47.1668
29.3551
11.5049
-6.22493
-23.6919
-40.7717
-57.3579
-73.3653
-88.7293
-103.402
-117.35
-130.555
-143.006
-154.701
-165.644
-175.845
-185.316
-194.072
-202.131
-209.512
-216.24
-222.34
-227.842
-232.778
-237.18
-241.083
-244.515
-247.504
-250.073
-252.23
-253.98
-255.314
-256.224
-256.68
-256.657
-256.121
-255.023
-253.325
-250.98
-247.945
-244.165
-239.597
-234.196
-227.923
-220.741
-212.619
-203.529
-193.451
-182.365
-170.266
-157.154
-143.038
-127.944
-111.903
-94.9697
-77.2004
-58.6836
-39.5035
-19.7855
0.359552
20.783
41.3478
61.8586
82.1711
102.108
121.504
140.177
157.934
174.653
190.045
204.149
216.516
-189.065
-201.455
-212.477
-222.127
-230.43
-237.438
-243.215
-247.832
-251.356
-253.845
-255.353
-255.927
-255.593
-254.371
-252.26
-249.265
-245.376
-240.575
-234.836
-228.123
-220.395
-211.612
-201.728
-190.719
-178.567
-165.294
-150.939
-135.589
-119.336
-102.312
-84.6341
-66.4564
-47.8944
-29.1303
-10.2262
9.99246
28.6364
46.8081
64.4243
81.3963
97.61
112.972
127.387
140.779
153.078
164.23
174.195
182.948
190.478
196.787
201.883
205.783
208.503
210.06
210.465
209.726
207.836
204.943
201.022
196.064
190.061
183.009
174.899
165.738
155.562
144.428
132.419
119.609
106.101
91.9923
77.4021
62.4617
47.2873
32.0101
16.746
1.61238
-13.2876
-27.8542
-42.0014
-55.6482
-68.7077
-80.7327
-92.395
-103.306
-113.399
-122.62
-130.923
-138.263
-144.606
-149.917
-154.172
-157.356
-159.463
-160.498
-160.475
-159.42
-157.367
-154.358
-150.443
-145.68
-140.127
-133.847
-126.906
-119.367
-111.286
-102.709
-93.6981
-84.3066
-74.579
-64.5599
-54.2868
-43.7955
-33.1203
-22.2894
-11.3347
-0.27666
10.8541
22.0395
33.2473
44.4609
55.6462
66.7895
77.8529
88.8276
99.6699
110.337
120.787
130.978
140.856
150.352
159.387
167.867
175.692
182.744
188.905
194.05
198.052
200.792
202.157
202.051
200.392
197.123
192.209
185.646
177.458
167.693
156.431
143.779
129.867
114.85
98.8945
82.181
64.8948
47.2217
29.3426
11.4301
-6.35594
-23.8721
-40.9936
-57.6134
-73.6471
-89.0305
-103.716
-117.673
-130.882
-143.333
-155.027
-165.966
-176.162
-185.626
-194.374
-202.424
-209.794
-216.51
-222.598
-228.085
-233.007
-237.395
-241.284
-244.705
-247.685
-250.247
-252.401
-254.151
-255.49
-256.406
-256.872
-256.863
-256.341
-255.259
-253.58
-251.254
-248.237
-244.476
-239.926
-234.543
-228.286
-221.118
-213.008
-203.929
-193.86
-182.78
-170.683
-157.57
-143.448
-128.344
-112.288
-95.3337
-77.5377
-58.9881
-39.7698
-20.0077
0.186071
20.6642
41.2883
61.8614
82.2394
102.246
121.713
140.461
158.292
175.082
190.537
204.698
217.177
-189.72
-202.104
-213.111
-222.739
-231.015
-237.993
-243.739
-248.325
-251.822
-254.288
-255.778
-256.34
-255.998
-254.772
-252.663
-249.673
-245.795
-241.007
-235.284
-228.591
-220.884
-212.119
-202.251
-191.249
-179.095
-165.806
-151.424
-136.036
-119.736
-102.659
-84.9233
-66.6846
-48.0594
-29.2313
-10.263
10.0094
28.7156
46.9484
64.6231
81.6508
97.9162
113.326
127.784
141.213
153.543
164.721
174.704
183.47
191.007
197.319
202.415
206.313
209.03
210.584
210.986
210.243
208.351
205.454
201.528
196.564
190.551
183.486
175.359
166.174
155.97
144.802
132.753
119.899
106.341
92.1776
77.5307
62.5326
47.301
31.9688
16.6528
1.47081
-13.4732
-28.0806
-42.266
-55.9521
-69.062
-81.0531
-92.7605
-103.701
-113.818
-123.058
-131.378
-138.733
-145.086
-150.405
-154.665
-157.849
-159.952
-160.978
-160.943
-159.871
-157.797
-154.765
-150.825
-146.034
-140.453
-134.146
-127.177
-119.61
-111.504
-102.903
-93.8711
-84.4599
-74.7144
-64.6793
-54.3919
-43.888
-33.2019
-22.3616
-11.3985
-0.332817
10.8049
21.9968
33.2113
44.4317
55.6238
66.7744
77.846
88.8321
99.6889
110.373
120.843
131.061
140.97
150.504
159.583
168.114
175.993
183.104
189.327
194.532
198.593
201.387
202.8
202.731
201.1
197.846
192.935
186.361
178.148
168.345
157.032
144.319
130.337
115.243
99.2056
82.4082
65.0383
47.2837
29.3275
11.3435
-6.50683
-24.0794
-41.2484
-57.9067
-73.9703
-89.3756
-104.076
-118.042
-131.256
-143.708
-155.399
-166.334
-176.524
-185.98
-194.719
-202.758
-210.117
-216.82
-222.892
-228.363
-233.269
-237.641
-241.514
-244.922
-247.891
-250.446
-252.596
-254.347
-255.69
-256.614
-257.092
-257.098
-256.592
-255.529
-253.871
-251.566
-248.571
-244.832
-240.303
-234.939
-228.7
-221.55
-213.454
-204.388
-194.328
-183.255
-171.161
-158.046
-143.918
-128.802
-112.729
-95.7507
-77.9242
-59.337
-40.075
-20.2624
-0.0131314
20.5275
41.2195
61.8637
82.3166
102.402
121.951
140.784
158.7
175.57
191.101
205.328
217.903
-190.459
-202.835
-213.825
-223.429
-231.675
-238.618
-244.328
-248.88
-252.345
-254.786
-256.256
-256.803
-256.452
-255.224
-253.116
-250.133
-246.265
-241.492
-235.789
-229.117
-221.433
-212.691
-202.841
-191.848
-179.691
-166.385
-151.972
-136.541
-120.187
-103.051
-85.2494
-66.942
-48.2453
-29.3452
-10.3045
10.0285
28.8049
47.1066
64.8472
81.9375
98.2612
113.725
128.231
141.703
154.068
165.274
175.278
184.058
191.603
197.917
203.013
206.909
209.623
211.173
211.572
210.826
208.93
206.029
202.097
197.126
191.103
184.024
175.877
166.667
156.43
145.224
133.131
120.225
106.611
92.3864
77.6754
62.6121
47.316
31.9218
16.547
1.31078
-13.6828
-28.3357
-42.5636
-56.293
-69.4636
-81.4114
-93.1737
-104.147
-114.289
-123.551
-131.89
-139.261
-145.627
-150.955
-155.22
-158.404
-160.502
-161.519
-161.469
-160.379
-158.282
-155.224
-151.255
-146.434
-140.821
-134.481
-127.481
-119.884
-111.75
-103.122
-94.0652
-84.632
-74.8665
-64.8134
-54.51
-43.9919
-33.2935
-22.4426
-11.4701
-0.396009
10.7495
21.9487
33.1708
44.3985
55.5985
66.757
77.838
88.8359
99.7096
110.412
120.906
131.152
141.097
150.673
159.802
168.389
176.331
183.509
189.8
195.074
199.202
202.057
203.523
203.498
201.898
198.662
193.754
187.167
178.926
169.08
157.71
144.927
130.867
115.685
99.5558
82.6636
65.1992
47.3526
29.3094
11.2449
-6.6781
-24.3142
-41.5366
-58.2381
-74.3353
-89.7651
-104.482
-118.459
-131.678
-144.131
-155.819
-166.749
-176.931
-186.379
-195.108
-203.135
-210.48
-217.168
-223.223
-228.676
-233.563
-237.917
-241.773
-245.165
-248.122
-250.669
-252.815
-254.566
-255.914
-256.848
-257.339
-257.361
-256.874
-255.833
-254.198
-251.918
-248.948
-245.232
-240.727
-235.386
-229.167
-222.035
-213.956
-204.904
-194.856
-183.791
-171.7
-158.583
-144.447
-129.319
-113.227
-96.221
-78.3604
-59.7309
-40.4196
-20.55
-0.2383
20.3724
41.1411
61.8653
82.4024
102.575
122.217
141.145
159.157
176.117
191.735
206.031
218.689
-191.282
-203.649
-214.621
-224.198
-232.408
-239.312
-244.982
-249.496
-252.926
-255.339
-256.786
-257.316
-256.956
-255.724
-253.619
-250.642
-246.786
-242.031
-236.349
-229.701
-222.044
-213.328
-203.498
-192.516
-180.356
-167.032
-152.584
-137.103
-120.691
-103.487
-85.6129
-67.2287
-48.4525
-29.4722
-10.3508
10.0497
28.9043
47.2827
65.0967
82.2568
98.6453
114.169
128.729
142.247
154.652
165.889
175.917
184.712
192.266
198.583
203.678
207.571
210.282
211.828
212.224
211.475
209.574
206.669
202.731
197.752
191.718
184.622
176.454
167.215
156.943
145.694
133.551
120.589
106.912
92.6188
77.8362
62.7001
47.3321
31.8687
16.4285
1.13203
-13.9166
-28.6198
-42.894
-56.6699
-69.9108
-81.8095
-93.6358
-104.643
-114.813
-124.1
-132.46
-139.849
-146.23
-151.567
-155.837
-159.021
-161.114
-162.121
-162.055
-160.944
-158.822
-155.734
-151.733
-146.878
-141.229
-134.854
-127.818
-120.188
-112.023
-103.365
-94.2806
-84.8228
-75.0351
-64.9621
-54.6408
-44.107
-33.395
-22.5325
-11.5496
-0.46624
10.6878
21.8952
33.1256
44.3613
55.57
66.7373
77.8288
88.8388
99.7319
110.455
120.974
131.252
141.236
150.86
160.044
168.694
176.705
183.958
190.326
195.677
199.879
202.803
204.329
204.353
202.787
199.571
194.666
188.066
179.793
169.899
158.466
145.606
131.457
116.178
99.9451
82.9472
65.3772
47.4282
29.2878
11.1336
-6.87031
-24.577
-41.8588
-58.6084
-74.7427
-90.1994
-104.935
-118.923
-132.148
-144.601
-156.286
-167.21
-177.384
-186.822
-195.54
-203.554
-210.884
-217.555
-223.592
-229.024
-233.89
-238.223
-242.06
-245.435
-248.379
-250.916
-253.057
-254.809
-256.163
-257.107
-257.613
-257.653
-257.188
-256.17
-254.562
-252.309
-249.366
-245.678
-241.199
-235.882
-229.686
-222.575
-214.515
-205.479
-195.443
-184.386
-172.299
-159.18
-145.037
-129.895
-113.78
-96.7453
-78.8466
-60.1703
-40.8038
-20.871
-0.489749
20.1982
41.0531
61.8658
82.4962
102.767
122.51
141.544
159.662
176.723
192.439
206.808
219.54
-192.19
-204.548
-215.499
-225.045
-233.216
-240.077
-245.702
-250.172
-253.565
-255.945
-257.368
-257.88
-257.51
-256.273
-254.17
-251.202
-247.359
-242.622
-236.964
-230.344
-222.717
-214.029
-204.223
-193.253
-181.091
-167.746
-153.26
-137.725
-121.246
-103.968
-86.0139
-67.5451
-48.6812
-29.6124
-10.4019
10.0732
29.0139
47.4769
65.3718
82.6087
99.0687
114.658
129.278
142.848
155.296
166.568
176.621
185.433
192.995
199.316
204.41
208.299
211.006
212.549
212.942
212.189
210.283
207.373
203.43
198.442
192.394
185.282
177.09
167.82
157.508
146.212
134.015
120.99
107.243
92.8749
78.0131
62.7967
47.3491
31.8092
16.297
0.934219
-14.175
-28.933
-43.2574
-57.0816
-70.3918
-82.2595
-94.1487
-105.191
-115.391
-124.705
-133.088
-140.497
-146.893
-152.242
-156.517
-159.702
-161.789
-162.784
-162.701
-161.566
-159.416
-156.296
-152.259
-147.366
-141.678
-135.263
-128.189
-120.521
-112.322
-103.631
-94.5169
-85.0322
-75.2202
-65.1253
-54.7844
-44.2333
-33.5064
-22.6312
-11.6368
-0.543551
10.6199
21.8364
33.0757
44.3203
55.5382
66.7153
77.8182
88.8408
99.7552
110.5
121.047
131.36
141.387
151.063
160.309
169.028
177.116
184.45
190.904
196.34
200.625
203.625
205.217
205.295
203.769
200.574
195.673
189.058
180.75
170.802
159.299
146.354
132.107
116.72
100.374
83.2589
65.5723
47.5101
29.2624
11.0091
-7.08398
-24.8685
-42.2157
-59.018
-75.1929
-90.6789
-105.435
-119.435
-132.665
-145.119
-156.801
-167.718
-177.883
-187.31
-196.015
-204.015
-211.33
-217.981
-223.998
-229.408
-234.25
-238.56
-242.375
-245.732
-248.66
-251.186
-253.323
-255.075
-256.435
-257.391
-257.914
-257.974
-257.533
-256.541
-254.962
-252.738
-249.826
-246.168
-241.718
-236.429
-230.258
-223.169
-215.13
-206.111
-196.09
-185.042
-172.96
-159.839
-145.688
-130.53
-114.391
-97.3238
-79.3835
-60.6556
-41.2281
-21.2261
-0.767693
20.005
40.9547
61.8649
82.5976
102.976
122.831
141.98
160.216
177.388
193.21
207.659
220.452
-193.183
-205.53
-216.459
-225.97
-234.099
-240.911
-246.487
-250.91
-254.26
-256.605
-258.001
-258.493
-258.112
-256.871
-254.77
-251.811
-247.983
-243.267
-237.634
-231.045
-223.451
-214.795
-205.016
-194.061
-181.897
-168.53
-154.001
-138.407
-121.855
-104.495
-86.4528
-67.8914
-48.9314
-29.7659
-10.4579
10.0989
29.1338
47.6893
65.6727
82.9935
99.5317
115.193
129.878
143.504
156.001
167.31
177.391
186.221
193.793
200.116
205.209
209.094
211.797
213.336
213.726
212.969
211.057
208.142
204.192
199.195
193.134
186.003
177.785
168.481
158.127
146.779
134.522
121.429
107.606
93.1549
78.2063
62.9015
47.3668
31.7431
16.152
0.716942
-14.4583
-29.2756
-43.6538
-57.5269
-70.8837
-82.7847
-94.7138
-105.791
-116.023
-125.365
-133.774
-141.205
-147.618
-152.979
-157.261
-160.446
-162.527
-163.509
-163.407
-162.247
-160.066
-156.911
-152.835
-147.9
-142.169
-135.71
-128.593
-120.885
-112.649
-103.921
-94.7741
-85.2601
-75.4216
-65.3029
-54.9405
-44.3707
-33.6276
-22.7384
-11.7319
-0.62792
10.5456
21.7721
33.021
44.2755
55.5031
66.6906
77.8052
88.8422
99.7794
110.547
121.125
131.476
141.55
151.283
160.594
169.39
177.562
184.987
191.534
197.064
201.439
204.523
206.189
206.326
204.843
201.672
196.775
190.143
181.798
171.792
160.212
147.173
132.818
117.313
100.842
83.5986
65.7842
47.5979
29.2327
10.8709
-7.31974
-25.1895
-42.6079
-59.4679
-75.6868
-91.2043
-105.981
-119.995
-133.231
-145.686
-157.363
-168.273
-178.428
-187.843
-196.534
-204.519
-211.816
-218.447
-224.441
-229.826
-234.643
-238.928
-242.719
-246.054
-248.966
-251.481
-253.611
-255.364
-256.731
-257.7
-258.24
-258.324
-257.908
-256.946
-255.398
-253.207
-250.328
-246.703
-242.285
-237.026
-230.882
-223.819
-215.801
-206.802
-196.796
-185.76
-173.682
-160.559
-146.399
-131.224
-115.06
-97.9572
-79.9714
-61.1872
-41.6932
-21.6159
-1.07267
19.7924
40.8454
61.862
82.7062
103.201
123.178
142.453
160.816
178.112
194.048
208.583
221.448
-194.262
-206.598
-217.501
-226.976
-235.057
-241.815
-247.337
-251.708
-255.012
-257.318
-258.684
-259.155
-258.762
-257.517
-255.419
-252.469
-248.658
-243.964
-238.359
-231.803
-224.246
-215.627
-205.878
-194.941
-182.776
-169.384
-154.809
-139.149
-122.518
-105.069
-86.9301
-68.2678
-49.2034
-29.9329
-10.5188
10.1269
29.264
47.92
65.9995
83.4114
100.035
115.775
130.529
144.218
156.766
168.116
178.227
187.076
194.658
200.984
206.075
209.956
212.653
214.188
214.575
213.815
211.896
208.976
205.02
200.013
193.938
186.786
178.54
169.2
158.799
147.396
135.074
121.906
108
93.459
78.4156
63.0145
47.3849
31.67
15.9934
0.479846
-14.7669
-29.648
-44.0835
-58.0059
-71.3843
-83.3877
-95.3315
-106.443
-116.708
-126.082
-134.519
-141.973
-148.405
-153.779
-158.068
-161.254
-163.328
-164.296
-164.173
-162.985
-160.771
-157.577
-153.458
-148.478
-142.7
-136.194
-129.03
-121.278
-113.002
-104.234
-95.0519
-85.5062
-75.6393
-65.4947
-55.1092
-44.5191
-33.7585
-22.8543
-11.8348
-0.71931
10.465
21.7021
32.9615
44.2266
55.4647
66.6631
77.7896
88.8424
99.8041
110.597
121.207
131.598
141.723
151.517
160.901
169.78
178.043
185.566
192.215
197.848
202.323
205.498
207.244
207.446
206.01
202.866
197.974
191.324
182.937
172.868
161.204
148.063
133.591
117.957
101.349
83.9663
66.0126
47.6912
29.1981
10.7184
-7.57841
-25.5405
-43.0363
-59.9587
-76.2247
-91.776
-106.576
-120.603
-133.846
-146.3
-157.973
-168.875
-179.019
-188.421
-197.097
-205.065
-212.343
-218.952
-224.921
-230.28
-235.069
-239.326
-243.09
-246.403
-249.296
-251.798
-253.922
-255.675
-257.051
-258.033
-258.594
-258.701
-258.314
-257.384
-255.87
-253.715
-250.872
-247.283
-242.9
-237.673
-231.559
-224.523
-216.53
-207.552
-197.563
-186.538
-174.466
-161.341
-147.172
-131.979
-115.787
-98.6461
-80.611
-61.7658
-42.1998
-22.0404
-1.4056
19.5596
40.7249
61.8567
82.8214
103.442
123.551
142.962
161.464
178.893
194.953
209.582
222.519
-195.428
-207.752
-218.628
-228.061
-236.09
-242.79
-248.251
-252.566
-255.819
-258.085
-259.418
-259.867
-259.461
-258.211
-256.116
-253.177
-249.383
-244.713
-239.139
-232.62
-225.103
-216.525
-206.81
-195.894
-183.728
-170.31
-155.684
-139.952
-123.234
-105.688
-87.446
-68.6748
-49.4976
-30.1136
-10.5846
10.157
29.4047
48.1691
66.3524
83.8626
100.578
116.402
131.233
144.988
157.592
168.986
179.129
187.999
195.591
201.92
207.008
210.884
213.576
215.106
215.49
214.728
212.801
209.875
205.912
200.895
194.805
187.631
179.356
169.976
159.525
148.063
135.671
122.422
108.427
93.7874
78.6411
63.1357
47.4031
31.5893
15.8206
0.222372
-15.1011
-30.0507
-44.5468
-58.5201
-71.9166
-84.0462
-96.0006
-107.147
-117.448
-126.855
-135.321
-142.802
-149.254
-154.642
-158.939
-162.125
-164.193
-165.145
-164.999
-163.782
-161.531
-158.295
-154.131
-149.101
-143.272
-136.715
-129.5
-121.701
-113.382
-104.57
-95.3501
-85.7706
-75.8732
-65.7007
-55.2902
-44.6784
-33.8989
-22.9787
-11.9455
-0.817664
10.3782
21.6265
32.8972
44.1735
55.4229
66.6326
77.772
88.8405
99.829
110.649
121.292
131.727
141.906
151.766
161.229
170.196
178.559
186.188
192.948
198.693
203.275
206.551
208.384
208.657
207.272
204.157
199.271
192.601
184.17
174.033
162.277
149.025
134.426
118.653
101.896
84.3617
66.2573
47.7895
29.1581
10.5506
-7.86077
-25.9225
-43.5019
-60.4911
-76.8075
-92.395
-107.219
-121.261
-134.509
-146.964
-158.631
-169.524
-179.656
-189.044
-197.705
-205.654
-212.911
-219.497
-225.439
-230.769
-235.527
-239.754
-243.49
-246.777
-249.65
-252.138
-254.256
-256.009
-257.393
-258.391
-258.973
-259.107
-258.75
-257.855
-256.378
-254.262
-251.458
-247.909
-243.563
-238.371
-232.289
-225.283
-217.316
-208.361
-198.391
-187.379
-175.312
-162.186
-148.007
-132.794
-116.573
-99.3912
-81.3028
-62.3919
-42.7484
-22.5003
-1.7677
19.3065
40.5931
61.8487
82.9429
103.698
123.95
143.506
162.158
179.731
195.924
210.655
223.666
-196.681
-208.992
-219.839
-229.227
-237.199
-243.835
-249.231
-253.484
-256.683
-258.903
-260.202
-260.627
-260.207
-258.953
-256.861
-253.933
-250.157
-245.514
-239.973
-233.494
-226.022
-217.488
-207.813
-196.92
-184.755
-171.31
-156.628
-140.818
-124.006
-106.355
-88.0011
-69.1127
-49.8141
-30.3081
-10.6553
10.1895
29.556
48.437
66.7317
84.3475
101.161
117.077
131.99
145.816
158.48
169.922
180.099
188.99
196.593
202.924
208.009
211.879
214.564
216.09
216.471
215.707
213.771
210.84
206.87
201.843
195.736
188.539
180.232
170.81