/*--------------------------------*- C++ -*----------------------------------*\
| =========                 |                                                 |
| \\      /  F ield         | OpenFOAM: The Open Source CFD Toolbox           |
|  \\    /   O peration     | Version:  3.0.1                                 |
|   \\  /    A nd           | Web:      www.OpenFOAM.org                      |
|    \\/     M anipulation  |                                                 |
\*---------------------------------------------------------------------------*/
FoamFile
{
    version     2.0;
    format      ascii;
    class       surfaceScalarField;
    location    "20";
    object      phi;
}
// * * * * * * * * * * * * * * * * * * * * * * * * * * * * * * * * * * * * * //

dimensions      [0 3 -1 0 0 0 0];

internalField   nonuniform List<scalar> 
44922
(
-0.000105903
6.24893e-06
-0.000111348
5.44486e-06
-0.000116026
4.67845e-06
-0.000119952
3.92538e-06
-0.000123166
3.21419e-06
-0.000125711
2.54537e-06
-0.000127637
1.9256e-06
-0.000128992
1.35537e-06
-0.000129829
8.36913e-07
-0.000130192
3.62975e-07
-0.000130113
-7.96884e-08
-0.000129584
-5.2889e-07
-0.000128682
-9.01915e-07
-0.000127356
-1.32539e-06
-0.000125663
-1.69292e-06
-0.000123635
-2.02856e-06
-0.00012119
-2.44439e-06
-0.000118392
-2.79887e-06
-0.00011514
-3.25114e-06
-0.000111483
-3.65702e-06
-0.000107317
-4.16626e-06
-0.000102687
-4.62989e-06
-9.74956e-05
-5.19167e-06
-9.18004e-05
-5.69519e-06
-8.55206e-05
-6.27984e-06
-7.87443e-05
-6.77631e-06
-7.14012e-05
-7.34306e-06
-6.36168e-05
-7.78439e-06
-5.5332e-05
-8.28486e-06
-4.67014e-05
-8.63052e-06
-3.76796e-05
-9.02184e-06
-2.84273e-05
-9.25233e-06
-1.89225e-05
-9.50475e-06
-9.30432e-06
-9.61823e-06
3.34699e-07
-9.63902e-06
9.95814e-06
-9.62345e-06
1.94723e-05
-9.51411e-06
2.88334e-05
-9.36111e-06
3.79545e-05
-9.12109e-06
4.67887e-05
-8.83421e-06
5.52614e-05
-8.47279e-06
6.33238e-05
-8.0624e-06
7.09128e-05
-7.58894e-06
7.79934e-05
-7.08059e-06
8.45181e-05
-6.52474e-06
9.04673e-05
-5.94919e-06
9.58146e-05
-5.34736e-06
0.000100556
-4.74087e-06
0.000104685
-4.12935e-06
0.00010821
-3.52503e-06
0.000111143
-2.93354e-06
0.0001135
-2.35647e-06
0.000115297
-1.79701e-06
0.000116548
-1.25147e-06
0.000117271
-7.22194e-07
0.000117475
-2.04612e-07
0.000117239
2.36047e-07
0.00011655
6.89316e-07
0.000115421
1.12899e-06
0.000113838
1.58259e-06
0.00011182
2.01774e-06
0.00010933
2.49082e-06
0.000106387
2.94309e-06
0.000102936
3.45019e-06
9.90409e-05
3.89548e-06
9.46593e-05
4.38153e-06
8.98808e-05
4.77852e-06
8.46817e-05
5.19908e-06
7.91418e-05
5.53993e-06
7.3266e-05
5.87576e-06
6.70994e-05
6.16665e-06
6.07377e-05
6.36169e-06
5.41994e-05
6.53828e-06
4.75819e-05
6.61749e-06
4.08649e-05
6.71706e-06
3.41608e-05
6.70402e-06
2.74464e-05
6.71439e-06
2.08139e-05
6.63258e-06
1.42525e-05
6.56137e-06
7.79601e-06
6.45647e-06
1.47425e-06
6.32176e-06
-4.69903e-06
6.17329e-06
-1.07123e-05
6.01326e-06
-1.65434e-05
5.83112e-06
-2.21952e-05
5.65177e-06
-2.76242e-05
5.42901e-06
-3.28458e-05
5.22166e-06
-3.78142e-05
4.96833e-06
-4.25531e-05
4.73894e-06
-4.70369e-05
4.48376e-06
-5.12293e-05
4.19238e-06
-5.51513e-05
3.92206e-06
-5.87645e-05
3.6132e-06
-6.20893e-05
3.32483e-06
-6.50943e-05
3.00497e-06
-6.78119e-05
2.71759e-06
-7.02075e-05
2.39561e-06
-7.2339e-05
2.13149e-06
-7.4138e-05
1.79895e-06
-7.56822e-05
1.54423e-06
-7.68923e-05
1.21015e-06
-7.78329e-05
9.40605e-07
-7.84364e-05
6.03498e-07
-7.87407e-05
3.04254e-07
-7.86747e-05
-6.59717e-08
-7.82636e-05
-4.1113e-07
-7.74584e-05
-8.05158e-07
-7.62943e-05
-1.16419e-06
-7.47015e-05
-1.59272e-06
-7.26499e-05
-2.05161e-06
-7.01801e-05
-2.46985e-06
-6.71944e-05
-2.98573e-06
-6.37947e-05
-3.3997e-06
-5.98375e-05
-3.9572e-06
-5.5482e-05
-4.3555e-06
-5.05462e-05
-4.93579e-06
-4.52328e-05
-5.31335e-06
-3.93952e-05
-5.8376e-06
-3.32122e-05
-6.18309e-06
-2.65016e-05
-6.71058e-06
-1.95036e-05
-6.99803e-06
-1.20189e-05
-7.48462e-06
-4.35545e-06
-7.66351e-06
3.62442e-06
-7.97987e-06
1.18527e-05
-8.2283e-06
2.02818e-05
-8.42905e-06
2.86951e-05
-8.4134e-06
3.71229e-05
-8.42778e-06
4.54841e-05
-8.36121e-06
5.36936e-05
-8.20948e-06
6.16988e-05
-8.0052e-06
6.93591e-05
-7.66031e-06
7.6632e-05
-7.27296e-06
8.33887e-05
-6.75667e-06
8.95706e-05
-6.18191e-06
9.50675e-05
-5.49694e-06
9.98402e-05
-4.77273e-06
0.000103786
-3.94535e-06
0.000106889
-3.1033e-06
0.000109087
-2.19862e-06
0.000110384
-1.29632e-06
0.000110786
-4.01919e-07
0.000110315
4.70916e-07
0.000108981
1.33352e-06
0.000106854
2.12712e-06
0.000103998
2.85565e-06
0.000100479
3.51952e-06
9.63752e-05
4.10375e-06
9.17519e-05
4.62322e-06
8.66781e-05
5.0738e-06
8.12258e-05
5.45235e-06
7.54758e-05
5.75e-06
6.94926e-05
5.98321e-06
6.33286e-05
6.16397e-06
5.70084e-05
6.32014e-06
5.05971e-05
6.41138e-06
4.41082e-05
6.48881e-06
3.75736e-05
6.53459e-06
3.10141e-05
6.55958e-06
2.44213e-05
6.5928e-06
1.78292e-05
6.59201e-06
1.12183e-05
6.61093e-06
4.59513e-06
6.62318e-06
-1.99641e-06
6.59155e-06
-8.56057e-06
6.56416e-06
-1.5077e-05
6.51638e-06
-2.15432e-05
6.46624e-06
-2.79199e-05
6.37671e-06
-3.4215e-05
6.29508e-06
-4.04068e-05
6.19183e-06
-4.64603e-05
6.05351e-06
-5.24175e-05
5.95714e-06
-5.82e-05
5.78259e-06
-6.38511e-05
5.65105e-06
-6.93074e-05
5.45626e-06
-7.4534e-05
5.22668e-06
-7.95161e-05
4.98202e-06
-8.43122e-05
4.79617e-06
-8.87623e-05
4.45006e-06
-9.31466e-05
4.38433e-06
-9.71352e-05
3.98861e-06
-0.000100818
3.68307e-06
-0.000103987
3.16894e-06
-0.000106898
2.91107e-06
-0.000109346
2.44723e-06
-0.000111358
2.01224e-06
-0.000113009
1.65156e-06
-0.000114134
1.12421e-06
-0.000114911
7.77777e-07
-0.000115163
2.52138e-07
-0.000115035
-1.284e-07
-0.000114394
-6.4099e-07
-0.00011332
-1.07391e-06
-0.000111787
-1.53345e-06
-0.000109808
-1.97856e-06
-0.00010738
-2.42853e-06
-0.000104503
-2.87672e-06
-0.000101169
-3.33422e-06
-9.74183e-05
-3.75042e-06
-9.32159e-05
-4.20239e-06
-8.87131e-05
-4.50275e-06
-8.38037e-05
-4.90941e-06
-7.84953e-05
-5.30839e-06
-7.28675e-05
-5.62779e-06
-6.67309e-05
-6.13667e-06
-6.0315e-05
-6.41584e-06
-5.34203e-05
-6.8947e-06
-4.62253e-05
-7.19506e-06
-3.85747e-05
-7.65056e-06
-3.05828e-05
-7.99191e-06
-2.20467e-05
-8.53611e-06
-1.3265e-05
-8.78177e-06
-4.08787e-06
-9.17709e-06
5.38005e-06
-9.46793e-06
1.52251e-05
-9.84504e-06
2.51737e-05
-9.94868e-06
3.52313e-05
-1.00576e-05
4.5163e-05
-9.93163e-06
5.49491e-05
-9.7862e-06
6.37434e-05
-8.79426e-06
6.94571e-05
-5.71374e-06
6.93869e-05
7.02375e-08
6.44882e-05
4.89869e-06
5.0098e-05
1.43902e-05
1.09846e-05
3.91134e-05
-0.000105951
1.25018e-05
-0.000111396
1.08901e-05
-0.000116075
9.35761e-06
-0.000120001
7.8512e-06
-0.000123213
6.42682e-06
-0.000125755
5.08715e-06
-0.000127677
3.84781e-06
-0.00012903
2.70814e-06
-0.000129864
1.67058e-06
-0.000130224
7.22745e-07
-0.000130142
-1.61808e-07
-0.000129611
-1.05929e-06
-0.000128708
-1.80464e-06
-0.000127383
-2.65106e-06
-0.00012569
-3.38575e-06
-0.000123662
-4.05675e-06
-0.000121218
-4.88797e-06
-0.00011842
-5.59674e-06
-0.000115171
-6.50086e-06
-0.000111515
-7.31261e-06
-0.00010735
-8.33094e-06
-0.000102722
-9.25866e-06
-9.75307e-05
-1.03825e-05
-9.18357e-05
-1.13902e-05
-8.55554e-05
-1.25602e-05
-7.87777e-05
-1.3554e-05
-7.14324e-05
-1.46883e-05
-6.36452e-05
-1.55716e-05
-5.53569e-05
-1.65731e-05
-4.67226e-05
-1.72649e-05
-3.76968e-05
-1.80476e-05
-2.84402e-05
-1.8509e-05
-1.89309e-05
-1.9014e-05
-9.30802e-06
-1.92411e-05
3.35002e-07
-1.92821e-05
9.96076e-06
-1.92492e-05
1.94781e-05
-1.90314e-05
2.88425e-05
-1.87256e-05
3.79666e-05
-1.82451e-05
4.68041e-05
-1.76718e-05
5.52802e-05
-1.69489e-05
6.33453e-05
-1.61275e-05
7.09366e-05
-1.51803e-05
7.80189e-05
-1.41629e-05
8.45457e-05
-1.30515e-05
9.04972e-05
-1.19007e-05
9.5846e-05
-1.06962e-05
0.000100587
-9.48207e-06
0.000104717
-8.2595e-06
0.000108243
-7.05101e-06
0.000111178
-5.8678e-06
0.000113534
-4.71304e-06
0.000115331
-3.59394e-06
0.000116582
-2.50286e-06
0.000117305
-1.44437e-06
0.000117509
-4.08748e-07
0.000117272
4.73082e-07
0.000116582
1.37862e-06
0.000115453
2.25793e-06
0.000113871
3.16524e-06
0.000111853
4.03511e-06
0.000109362
4.98205e-06
0.000106419
5.88643e-06
0.000102968
6.90081e-06
9.90722e-05
7.79148e-06
9.46892e-05
8.76456e-06
8.9909e-05
9.5587e-06
8.47082e-05
1.03999e-05
7.91653e-05
1.10828e-05
7.32867e-05
1.17543e-05
6.7117e-05
1.23363e-05
6.07522e-05
1.27265e-05
5.42106e-05
1.30799e-05
4.75881e-05
1.324e-05
4.087e-05
1.34351e-05
3.4165e-05
1.3409e-05
2.74467e-05
1.34328e-05
2.08121e-05
1.32672e-05
1.42503e-05
1.31231e-05
7.7906e-06
1.29162e-05
1.46743e-06
1.26449e-05
-4.70801e-06
1.23487e-05
-1.07231e-05
1.20284e-05
-1.65559e-05
1.16639e-05
-2.22093e-05
1.13051e-05
-2.76405e-05
1.08602e-05
-3.28638e-05
1.0445e-05
-3.78343e-05
9.9388e-06
-4.25739e-05
9.47853e-06
-4.70588e-05
8.96873e-06
-5.12504e-05
8.38391e-06
-5.51733e-05
7.84496e-06
-5.87863e-05
7.22623e-06
-6.21109e-05
6.64946e-06
-6.51166e-05
6.01065e-06
-6.78338e-05
5.43477e-06
-7.0229e-05
4.79088e-06
-7.23609e-05
4.26334e-06
-7.41599e-05
3.59798e-06
-7.57044e-05
3.08873e-06
-7.69146e-05
2.4203e-06
-7.78569e-05
1.88295e-06
-7.84597e-05
1.20624e-06
-7.87609e-05
6.05453e-07
-7.86927e-05
-1.34139e-07
-7.82837e-05
-8.20177e-07
-7.74816e-05
-1.60723e-06
-7.63192e-05
-2.3266e-06
-7.47262e-05
-3.18567e-06
-7.26747e-05
-4.10314e-06
-7.02074e-05
-4.93719e-06
-6.72184e-05
-5.97475e-06
-6.38211e-05
-6.79693e-06
-5.98611e-05
-7.91724e-06
-5.55071e-05
-8.7095e-06
-5.05695e-05
-9.87341e-06
-4.52557e-05
-1.06271e-05
-3.94164e-05
-1.16769e-05
-3.32328e-05
-1.23667e-05
-2.65209e-05
-1.34225e-05
-1.95211e-05
-1.39979e-05
-1.20291e-05
-1.49766e-05
-4.36876e-06
-1.53239e-05
3.61651e-06
-1.59652e-05
1.18527e-05
-1.64645e-05
2.02871e-05
-1.68635e-05
2.87013e-05
-1.68276e-05
3.71325e-05
-1.6859e-05
4.55014e-05
-1.67301e-05
5.37137e-05
-1.64218e-05
6.17253e-05
-1.60168e-05
6.93908e-05
-1.53259e-05
7.66694e-05
-1.45515e-05
8.3431e-05
-1.35183e-05
8.96174e-05
-1.23684e-05
9.51185e-05
-1.09981e-05
9.98939e-05
-9.54817e-06
0.000103842
-7.89366e-06
0.000106947
-6.20837e-06
0.000109146
-4.39753e-06
0.000110442
-2.59213e-06
0.000110843
-8.03173e-07
0.000110367
9.46659e-07
0.000109031
2.66973e-06
0.000106901
4.25691e-06
0.000104042
5.71478e-06
0.000100517
7.0443e-06
9.64058e-05
8.21538e-06
9.17773e-05
9.25169e-06
8.67011e-05
1.015e-05
8.12451e-05
1.09083e-05
7.54916e-05
1.15035e-05
6.9506e-05
1.19688e-05
6.33425e-05
1.23274e-05
5.70179e-05
1.26447e-05
5.06106e-05
1.28187e-05
4.41114e-05
1.2988e-05
3.75745e-05
1.30715e-05
3.10135e-05
1.31206e-05
2.44187e-05
1.31875e-05
1.78238e-05
1.31869e-05
1.12129e-05
1.32219e-05
4.58679e-06
1.32493e-05
-2.00647e-06
1.31848e-05
-8.56996e-06
1.31276e-05
-1.50854e-05
1.30319e-05
-2.15559e-05
1.29367e-05
-2.79326e-05
1.27534e-05
-3.42297e-05
1.25922e-05
-4.04229e-05
1.23851e-05
-4.6477e-05
1.21076e-05
-5.24367e-05
1.19168e-05
-5.82214e-05
1.15674e-05
-6.38752e-05
1.13048e-05
-6.93351e-05
1.09161e-05
-7.45629e-05
1.04545e-05
-7.95456e-05
9.96472e-06
-8.43448e-05
9.59543e-06
-8.87951e-05
8.90033e-06
-9.31844e-05
8.77361e-06
-9.71759e-05
7.9801e-06
-0.000100859
7.36588e-06
-0.000104025
6.33525e-06
-0.000106939
5.8251e-06
-0.000109387
4.89508e-06
-0.000111398
4.0236e-06
-0.000113055
3.30833e-06
-0.000114177
2.24581e-06
-0.000114959
1.55988e-06
-0.000115205
4.9862e-07
-0.000115078
-2.55285e-07
-0.000114431
-1.2884e-06
-0.000113355
-2.14955e-06
-0.000111812
-3.0765e-06
-0.000109837
-3.95399e-06
-0.000107409
-4.85619e-06
-0.000104533
-5.75234e-06
-0.000101195
-6.67283e-06
-9.74481e-05
-7.49716e-06
-9.32455e-05
-8.40504e-06
-8.87415e-05
-9.00674e-06
-8.38377e-05
-9.8132e-06
-7.85233e-05
-1.06228e-05
-7.28951e-05
-1.1256e-05
-6.67562e-05
-1.22756e-05
-6.03413e-05
-1.28308e-05
-5.34425e-05
-1.37935e-05
-4.62478e-05
-1.43898e-05
-3.85937e-05
-1.53046e-05
-3.06013e-05
-1.59843e-05
-2.20594e-05
-1.7078e-05
-1.32805e-05
-1.75608e-05
-4.09966e-06
-1.83579e-05
5.37628e-06
-1.89439e-05
1.52348e-05
-1.97036e-05
2.51883e-05
-1.99021e-05
3.52756e-05
-2.01449e-05
4.51667e-05
-1.98227e-05
5.47999e-05
-1.94194e-05
6.40701e-05
-1.80645e-05
7.22006e-05
-1.38442e-05
7.7656e-05
-5.38519e-06
7.98983e-05
2.65647e-06
7.2796e-05
2.14924e-05
1.90854e-05
6.46953e-05
-0.000106043
1.876e-05
-0.000111491
1.63384e-05
-0.000116171
1.4037e-05
-0.000120094
1.17748e-05
-0.000123304
9.63607e-06
-0.000125841
7.62414e-06
-0.000127758
5.76468e-06
-0.000129106
4.05628e-06
-0.000129933
2.4974e-06
-0.000130282
1.07194e-06
-0.00013019
-2.53304e-07
-0.000129656
-1.59385e-06
-0.000128751
-2.70898e-06
-0.000127425
-3.9776e-06
-0.000125732
-5.07862e-06
-0.000123705
-6.08405e-06
-0.000121263
-7.32994e-06
-0.000118467
-8.39225e-06
-0.00011522
-9.74759e-06
-0.000111568
-1.09649e-05
-0.000107407
-1.24923e-05
-0.000102781
-1.38845e-05
-9.75922e-05
-1.55712e-05
-9.1898e-05
-1.70844e-05
-8.56171e-05
-1.88412e-05
-7.88372e-05
-2.03339e-05
-7.1488e-05
-2.20375e-05
-6.36959e-05
-2.33637e-05
-5.54015e-05
-2.48675e-05
-4.67602e-05
-2.59062e-05
-3.77273e-05
-2.70806e-05
-2.84628e-05
-2.77735e-05
-1.89452e-05
-2.85316e-05
-9.31393e-06
-2.88724e-05
3.37143e-07
-2.89331e-05
9.97059e-06
-2.88827e-05
1.94952e-05
-2.8556e-05
2.88668e-05
-2.80973e-05
3.79974e-05
-2.73757e-05
4.68409e-05
-2.65153e-05
5.53223e-05
-2.54303e-05
6.33921e-05
-2.41973e-05
7.09874e-05
-2.27756e-05
7.80726e-05
-2.12482e-05
8.46018e-05
-1.95807e-05
9.05547e-05
-1.78536e-05
9.59046e-05
-1.60461e-05
0.000100646
-1.42237e-05
0.000104776
-1.23894e-05
0.000108302
-1.05765e-05
0.000111235
-8.80161e-06
0.000113592
-7.06923e-06
0.000115389
-5.39106e-06
0.000116641
-3.75495e-06
0.000117364
-2.1676e-06
0.000117567
-6.11668e-07
0.000117327
7.13107e-07
0.000116637
2.06832e-06
0.000115508
3.38688e-06
0.000113925
4.74816e-06
0.000111908
6.05208e-06
0.000109416
7.47411e-06
0.000106472
8.83055e-06
0.00010302
1.03526e-05
9.91232e-05
1.16886e-05
9.47369e-05
1.31508e-05
8.99532e-05
1.43424e-05
8.47489e-05
1.56042e-05
7.91999e-05
1.66318e-05
7.33157e-05
1.76386e-05
6.71401e-05
1.85119e-05
6.07694e-05
1.90972e-05
5.42223e-05
1.9627e-05
4.759e-05
1.98723e-05
4.08705e-05
2.01546e-05
3.41645e-05
2.0115e-05
2.7439e-05
2.01583e-05
2.08011e-05
1.99051e-05
1.42399e-05
1.96844e-05
7.77509e-06
1.93809e-05
1.44976e-06
1.89702e-05
-4.72738e-06
1.85259e-05
-1.07442e-05
1.80452e-05
-1.65788e-05
1.74984e-05
-2.22335e-05
1.69599e-05
-2.76665e-05
1.62932e-05
-3.28917e-05
1.56703e-05
-3.78641e-05
1.49112e-05
-4.26038e-05
1.42182e-05
-4.70906e-05
1.34555e-05
-5.1282e-05
1.25753e-05
-5.52062e-05
1.17692e-05
-5.88197e-05
1.08398e-05
-6.21433e-05
9.97301e-06
-6.51498e-05
9.01714e-06
-6.78665e-05
8.15152e-06
-7.02612e-05
7.18561e-06
-7.23927e-05
6.39479e-06
-7.41918e-05
5.39707e-06
-7.57358e-05
4.63277e-06
-7.69461e-05
3.63056e-06
-7.78907e-05
2.82752e-06
-7.84927e-05
1.80825e-06
-7.87917e-05
9.04471e-07
-7.87219e-05
-2.03925e-07
-7.83142e-05
-1.22793e-06
-7.75179e-05
-2.40345e-06
-7.63613e-05
-3.48329e-06
-7.47683e-05
-4.77868e-06
-7.27175e-05
-6.15386e-06
-7.02558e-05
-7.39897e-06
-6.72615e-05
-8.96907e-06
-6.38711e-05
-1.01873e-05
-5.99079e-05
-1.18805e-05
-5.55587e-05
-1.30586e-05
-5.06203e-05
-1.48119e-05
-4.53073e-05
-1.59401e-05
-3.94661e-05
-1.75181e-05
-3.32822e-05
-1.85506e-05
-2.65734e-05
-2.01313e-05
-1.95732e-05
-2.09982e-05
-1.20671e-05
-2.24827e-05
-4.40709e-06
-2.29839e-05
3.59799e-06
-2.39703e-05
1.18417e-05
-2.47082e-05
2.0281e-05
-2.53028e-05
2.86992e-05
-2.52458e-05
3.71334e-05
-2.52932e-05
4.55129e-05
-2.51097e-05
5.37361e-05
-2.46449e-05
6.17595e-05
-2.40403e-05
6.94364e-05
-2.30028e-05
7.67245e-05
-2.18396e-05
8.34968e-05
-2.02906e-05
8.96933e-05
-1.85648e-05
9.52028e-05
-1.65077e-05
9.99845e-05
-1.43299e-05
0.000103939
-1.18482e-05
0.000107049
-9.31831e-06
0.000109249
-6.59747e-06
0.000110543
-3.88582e-06
0.000110942
-1.20237e-06
0.000110457
1.43165e-06
0.000109117
4.00952e-06
0.000106984
6.39007e-06
0.000104117
8.58135e-06
0.000100582
1.05794e-05
9.64546e-05
1.23428e-05
9.18118e-05
1.38945e-05
8.67303e-05
1.52315e-05
8.12729e-05
1.63658e-05
7.55169e-05
1.72594e-05
6.95254e-05
1.79603e-05
6.33608e-05
1.8492e-05
5.70286e-05
1.89769e-05
5.06177e-05
1.92297e-05
4.41116e-05
1.94941e-05
3.75694e-05
1.96137e-05
3.10054e-05
1.96846e-05
2.44098e-05
1.97831e-05
1.781e-05
1.97868e-05
1.11994e-05
1.98324e-05
4.5689e-06
1.98798e-05
-2.02408e-06
1.97778e-05
-8.58494e-06
1.96885e-05
-1.50949e-05
1.95418e-05
-2.15737e-05
1.94156e-05
-2.795e-05
1.91296e-05
-3.4249e-05
1.88912e-05
-4.04431e-05
1.85792e-05
-4.64961e-05
1.81606e-05
-5.24567e-05
1.78774e-05
-5.82424e-05
1.73531e-05
-6.39027e-05
1.69651e-05
-6.93681e-05
1.63816e-05
-7.45964e-05
1.56828e-05
-7.95807e-05
1.49491e-05
-8.43817e-05
1.43964e-05
-8.88321e-05
1.33507e-05
-9.32281e-05
1.31695e-05
-9.72289e-05
1.19809e-05
-0.000100908
1.10454e-05
-0.000104064
9.49086e-06
-0.000106987
8.7481e-06
-0.000109436
7.34443e-06
-0.000111446
6.03295e-06
-0.000113114
4.97665e-06
-0.000114231
3.36262e-06
-0.000115023
2.35254e-06
-0.000115257
7.31923e-07
-0.000115131
-3.81213e-07
-0.000114474
-1.94501e-06
-0.000113398
-3.22537e-06
-0.000111856
-4.61844e-06
-0.000109873
-5.93796e-06
-0.000107447
-7.28179e-06
-0.000104578
-8.62087e-06
-0.000101235
-1.00164e-05
-9.75008e-05
-1.12311e-05
-9.32952e-05
-1.26107e-05
-8.87919e-05
-1.35101e-05
-8.38974e-05
-1.47077e-05
-7.85751e-05
-1.59451e-05
-7.29495e-05
-1.68816e-05
-6.68109e-05
-1.84142e-05
-6.03994e-05
-1.92423e-05
-5.34958e-05
-2.06972e-05
-4.63045e-05
-2.15811e-05
-3.8642e-05
-2.29671e-05
-3.06589e-05
-2.39675e-05
-2.21112e-05
-2.56256e-05
-1.33323e-05
-2.63397e-05
-4.13017e-06
-2.756e-05
5.36188e-06
-2.84359e-05
1.5237e-05
-2.95787e-05
2.51939e-05
-2.98591e-05
3.52885e-05
-3.02395e-05
4.52814e-05
-2.98156e-05
5.50413e-05
-2.91794e-05
6.408e-05
-2.71032e-05
7.19604e-05
-2.17247e-05
7.85972e-05
-1.2022e-05
8.38012e-05
-2.54755e-06
8.53035e-05
1.99901e-05
2.17876e-05
8.26012e-05
-0.000106179
2.50231e-05
-0.000111629
2.1789e-05
-0.000116308
1.8715e-05
-0.000120227
1.56944e-05
-0.00012343
1.28394e-05
-0.000125959
1.01531e-05
-0.000127868
7.67321e-06
-0.000129209
5.39695e-06
-0.000130025
3.31359e-06
-0.000130363
1.40971e-06
-0.000130261
-3.54822e-07
-0.000129722
-2.13242e-06
-0.000128816
-3.61566e-06
-0.000127488
-5.30544e-06
-0.000125795
-6.77157e-06
-0.000123769
-8.11001e-06
-0.000121329
-9.7695e-06
-0.000118537
-1.11842e-05
-0.000115295
-1.29898e-05
-0.000111648
-1.46121e-05
-0.000107492
-1.66487e-05
-0.00010287
-1.8506e-05
-9.76845e-05
-2.07569e-05
-9.19917e-05
-2.27773e-05
-8.57097e-05
-2.51231e-05
-7.89266e-05
-2.71171e-05
-7.15716e-05
-2.93925e-05
-6.3772e-05
-3.11633e-05
-5.54685e-05
-3.3171e-05
-4.68166e-05
-3.45581e-05
-3.7773e-05
-3.61242e-05
-2.84967e-05
-3.70497e-05
-1.89667e-05
-3.80616e-05
-9.32283e-06
-3.85163e-05
3.40437e-07
-3.85964e-05
9.98571e-06
-3.8528e-05
1.95216e-05
-3.80919e-05
2.89043e-05
-3.748e-05
3.8045e-05
-3.65163e-05
4.68981e-05
-3.53684e-05
5.53878e-05
-3.392e-05
6.34652e-05
-3.22747e-05
7.10669e-05
-3.03773e-05
7.81573e-05
-2.83386e-05
8.46901e-05
-2.61135e-05
9.06455e-05
-2.3809e-05
9.59968e-05
-2.13974e-05
0.000100739
-1.89655e-05
0.000104868
-1.65184e-05
0.000108392
-1.41008e-05
0.000111325
-1.17342e-05
0.00011368
-9.42419e-06
0.000115476
-7.18743e-06
0.000116728
-5.00666e-06
0.000117451
-2.89087e-06
0.000117652
-8.13273e-07
0.00011741
9.55836e-07
0.000116719
2.75873e-06
0.00011559
4.51595e-06
0.000114007
6.33156e-06
0.00011199
8.0687e-06
0.000109497
9.9669e-06
0.000106552
1.17757e-05
0.000103099
1.38064e-05
9.91966e-05
1.55905e-05
9.4809e-05
1.75383e-05
9.002e-05
1.91315e-05
8.48101e-05
2.08141e-05
7.92521e-05
2.21898e-05
7.33595e-05
2.35311e-05
6.71753e-05
2.46962e-05
6.07959e-05
2.54766e-05
5.42414e-05
2.61815e-05
4.7596e-05
2.65177e-05
4.08718e-05
2.68788e-05
3.41641e-05
2.68226e-05
2.74281e-05
2.68943e-05
2.0785e-05
2.65482e-05
1.42246e-05
2.62448e-05
7.75209e-06
2.58534e-05
1.42374e-06
2.52986e-05
-4.75542e-06
2.4705e-05
-1.0775e-05
2.40648e-05
-1.66118e-05
2.33352e-05
-2.22688e-05
2.26169e-05
-2.77047e-05
2.17291e-05
-3.29327e-05
2.08983e-05
-3.79093e-05
1.98878e-05
-4.26488e-05
1.89577e-05
-4.71382e-05
1.79449e-05
-5.13297e-05
1.67668e-05
-5.5256e-05
1.56955e-05
-5.88701e-05
1.44538e-05
-6.21924e-05
1.32953e-05
-6.51995e-05
1.20243e-05
-6.79161e-05
1.08681e-05
-7.03101e-05
9.57964e-06
-7.24415e-05
8.52616e-06
-7.42398e-05
7.19538e-06
-7.57844e-05
6.17744e-06
-7.69935e-05
4.83965e-06
-7.79434e-05
3.77741e-06
-7.85437e-05
2.40855e-06
-7.8845e-05
1.20575e-06
-7.87796e-05
-2.6935e-07
-7.83684e-05
-1.6391e-06
-7.75769e-05
-3.19495e-06
-7.64302e-05
-4.62996e-06
-7.48329e-05
-6.37598e-06
-7.27868e-05
-8.2e-06
-7.03305e-05
-9.85533e-06
-6.73297e-05
-1.19698e-05
-6.3949e-05
-1.3568e-05
-5.9981e-05
-1.58485e-05
-5.56354e-05
-1.74042e-05
-5.06973e-05
-1.97501e-05
-4.53848e-05
-2.12527e-05
-3.95412e-05
-2.33616e-05
-3.33482e-05
-2.47437e-05
-2.66437e-05
-2.68358e-05
-1.964e-05
-2.80018e-05
-1.21331e-05
-2.99896e-05
-4.4603e-06
-3.06567e-05
3.57493e-06
-3.20055e-05
1.18129e-05
-3.29461e-05
2.02577e-05
-3.37477e-05
2.86898e-05
-3.3678e-05
3.71344e-05
-3.37377e-05
4.55344e-05
-3.35098e-05
5.37693e-05
-3.28799e-05
6.18094e-05
-3.20804e-05
6.95058e-05
-3.06992e-05
7.68073e-05
-2.91412e-05
8.35934e-05
-2.70767e-05
8.98056e-05
-2.4777e-05
9.53277e-05
-2.20298e-05
0.000100119
-1.91213e-05
0.000104082
-1.58114e-05
0.000107195
-1.24312e-05
0.000109398
-8.80053e-06
0.000110699
-5.18657e-06
0.000111088
-1.59123e-06
0.000110593
1.92642e-06
0.000109248
5.35447e-06
0.000107108
8.53063e-06
0.000104229
1.14596e-05
0.00010068
1.41286e-05
9.65336e-05
1.64892e-05
9.18735e-05
1.85546e-05
8.67791e-05
2.03259e-05
8.13155e-05
2.18293e-05
7.55636e-05
2.30114e-05
6.9554e-05
2.39699e-05
6.33683e-05
2.46776e-05
5.70435e-05
2.53017e-05
5.06152e-05
2.5658e-05
4.41127e-05
2.59966e-05
3.75654e-05
2.61609e-05
3.09978e-05
2.62522e-05
2.44006e-05
2.63803e-05
1.77939e-05
2.63934e-05
1.11851e-05
2.64412e-05
4.54972e-06
2.65152e-05
-2.04639e-06
2.63739e-05
-8.60287e-06
2.6245e-05
-1.5114e-05
2.6053e-05
-2.15983e-05
2.58999e-05
-2.79716e-05
2.55028e-05
-3.42763e-05
2.51959e-05
-4.04704e-05
2.47733e-05
-4.65289e-05
2.42192e-05
-5.24885e-05
2.3837e-05
-5.82726e-05
2.31371e-05
-6.39444e-05
2.26369e-05
-6.94051e-05
2.18422e-05
-7.46441e-05
2.09218e-05
-7.96358e-05
1.99408e-05
-8.44309e-05
1.91916e-05
-8.88892e-05
1.7809e-05
-9.32905e-05
1.75708e-05
-9.7307e-05
1.59975e-05
-0.000100978
1.47165e-05
-0.000104117
1.263e-05
-0.000107062
1.16927e-05
-0.000109507
9.78915e-06
-0.000111519
8.0449e-06
-0.000113197
6.65538e-06
-0.000114306
4.47165e-06
-0.000115117
3.16366e-06
-0.000115331
9.45624e-07
-0.000115213
-4.99362e-07
-0.000114544
-2.61362e-06
-0.000113474
-4.29571e-06
-0.00011194
-6.15288e-06
-0.000109942
-7.9354e-06
-0.000107519
-9.70442e-06
-0.000104648
-1.14924e-05
-0.000101316
-1.33479e-05
-9.75818e-05
-1.49658e-05
-9.33591e-05
-1.68333e-05
-8.88665e-05
-1.80028e-05
-8.39766e-05
-1.95976e-05
-7.8648e-05
-2.12736e-05
-7.30167e-05
-2.25129e-05
-6.68894e-05
-2.45415e-05
-6.04864e-05
-2.56452e-05
-5.35725e-05
-2.76111e-05
-4.6382e-05
-2.87717e-05
-3.87026e-05
-3.06465e-05
-3.07389e-05
-3.19312e-05
-2.21958e-05
-3.41687e-05
-1.34139e-05
-3.51217e-05
-4.16756e-06
-3.68064e-05
5.3429e-06
-3.79464e-05
1.52189e-05
-3.94547e-05
2.51765e-05
-3.98168e-05
3.53162e-05
-4.03793e-05
4.53167e-05
-3.98161e-05
5.52099e-05
-3.90725e-05
6.44977e-05
-3.63911e-05
7.25724e-05
-2.97994e-05
7.96648e-05
-1.91144e-05
8.58544e-05
-8.73718e-06
9.04262e-05
1.54183e-05
2.37283e-05
8.84855e-05
-0.000106356
3.12886e-05
-0.000111806
2.7239e-05
-0.00011648
2.33886e-05
-0.000120393
1.96072e-05
-0.000123586
1.60332e-05
-0.000126104
1.2671e-05
-0.000128001
9.57025e-06
-0.000129331
6.72665e-06
-0.000130136
4.11805e-06
-0.000130465
1.73917e-06
-0.000130355
-4.65168e-07
-0.000129811
-2.67592e-06
-0.000128901
-4.52539e-06
-0.000127572
-6.63499e-06
-0.000125879
-8.46462e-06
-0.000123855
-1.01342e-05
-0.000121418
-1.22058e-05
-0.000118631
-1.39715e-05
-0.000115395
-1.6226e-05
-0.000111754
-1.82526e-05
-0.000107605
-2.07982e-05
-0.000102989
-2.31217e-05
-9.78078e-05
-2.59383e-05
-9.21167e-05
-2.84684e-05
-8.58335e-05
-3.14063e-05
-7.9046e-05
-3.39046e-05
-7.16831e-05
-3.67553e-05
-6.38737e-05
-3.89727e-05
-5.55579e-05
-4.14868e-05
-4.6892e-05
-4.32241e-05
-3.7834e-05
-4.51822e-05
-2.85421e-05
-4.63417e-05
-1.89955e-05
-4.76082e-05
-9.33472e-06
-4.8177e-05
3.44914e-07
-4.82761e-05
1.00064e-05
-4.81894e-05
1.95579e-05
-4.76435e-05
2.89557e-05
-4.68778e-05
3.81106e-05
-4.56712e-05
4.69771e-05
-4.42349e-05
5.54789e-05
-4.24219e-05
6.35671e-05
-4.03629e-05
7.11781e-05
-3.79883e-05
7.82759e-05
-3.54364e-05
8.48143e-05
-3.2652e-05
9.07731e-05
-2.97678e-05
9.61263e-05
-2.67506e-05
0.000100868
-2.37074e-05
0.000104996
-2.06459e-05
0.000108518
-1.76228e-05
0.000111447
-1.46641e-05
0.000113799
-1.1776e-05
0.000115593
-8.98106e-06
0.000116842
-6.25615e-06
0.000117564
-3.61244e-06
0.000117764
-1.01318e-06
0.00011752
1.1997e-06
0.000116829
3.44978e-06
0.0001157
5.64512e-06
0.000114117
7.91399e-06
0.0001121
1.00865e-05
0.000109606
1.24604e-05
0.00010666
1.47221e-05
0.000103203
1.72629e-05
9.92963e-05
1.94974e-05
9.49065e-05
2.19281e-05
9.01097e-05
2.39283e-05
8.48857e-05
2.60381e-05
7.9322e-05
2.77535e-05
7.34185e-05
2.94346e-05
6.72228e-05
3.08918e-05
6.08319e-05
3.18675e-05
5.42707e-05
3.27426e-05
4.76068e-05
3.31817e-05
4.08742e-05
3.36113e-05
3.41465e-05
3.35503e-05
2.74146e-05
3.36263e-05
2.07638e-05
3.3199e-05
1.42021e-05
3.28065e-05
7.72203e-06
3.23335e-05
1.38973e-06
3.16309e-05
-4.79146e-06
3.08862e-05
-1.08146e-05
3.00879e-05
-1.66546e-05
2.91752e-05
-2.23145e-05
2.82768e-05
-2.77543e-05
2.71689e-05
-3.2986e-05
2.613e-05
-3.79706e-05
2.48724e-05
-4.27087e-05
2.36958e-05
-4.72013e-05
2.24375e-05
-5.13935e-05
2.0959e-05
-5.53237e-05
1.96256e-05
-5.89378e-05
1.80679e-05
-6.22583e-05
1.66158e-05
-6.52666e-05
1.50326e-05
-6.79829e-05
1.35843e-05
-7.0376e-05
1.19727e-05
-7.25078e-05
1.0658e-05
-7.43051e-05
8.99268e-06
-7.58502e-05
7.72252e-06
-7.7059e-05
6.0484e-06
-7.8017e-05
4.73543e-06
-7.86143e-05
3.00584e-06
-7.892e-05
1.51147e-06
-7.88612e-05
-3.28171e-07
-7.84498e-05
-2.05047e-06
-7.76635e-05
-3.98132e-06
-7.6528e-05
-5.76537e-06
-7.49232e-05
-7.98087e-06
-7.2888e-05
-1.02352e-05
-7.04404e-05
-1.23029e-05
-6.74383e-05
-1.49719e-05
-6.40626e-05
-1.69437e-05
-6.00856e-05
-1.98255e-05
-5.57273e-05
-2.17626e-05
-5.08032e-05
-2.46741e-05
-4.55102e-05
-2.65457e-05
-3.96397e-05
-2.92322e-05
-3.34326e-05
-3.09509e-05
-2.67283e-05
-3.35401e-05
-1.97222e-05
-3.50079e-05
-1.22374e-05
-3.74745e-05
-4.52206e-06
-3.8372e-05
3.54269e-06
-4.00703e-05
1.17609e-05
-4.11644e-05
2.02226e-05
-4.22093e-05
2.86767e-05
-4.21321e-05
3.714e-05
-4.2201e-05
4.55645e-05
-4.19343e-05
5.38151e-05
-4.11305e-05
6.18766e-05
-4.01419e-05
6.9594e-05
-3.84167e-05
7.69174e-05
-3.64645e-05
8.37206e-05
-3.388e-05
8.99532e-05
-3.10096e-05
9.54917e-05
-2.75683e-05
0.000100296
-2.39253e-05
0.00010427
-1.97858e-05
0.000107388
-1.55495e-05
0.000109591
-1.10028e-05
0.000110899
-6.49496e-06
0.000111281
-1.97311e-06
0.000110777
2.42977e-06
0.000109424
6.70747e-06
0.00010727
1.06851e-05
0.000104377
1.4353e-05
0.000100813
1.76921e-05
9.66455e-05
2.06568e-05
9.19677e-05
2.32324e-05
8.68525e-05
2.54411e-05
8.13799e-05
2.73018e-05
7.56221e-05
2.87692e-05
6.95924e-05
2.99996e-05
6.33932e-05
3.08768e-05
5.70628e-05
3.16321e-05
5.06271e-05
3.20937e-05
4.41172e-05
3.25065e-05
3.75636e-05
3.27144e-05
3.09844e-05
3.28314e-05
2.43857e-05
3.2979e-05
1.77793e-05
3.29999e-05
1.1177e-05
3.30435e-05
4.53796e-06
3.31542e-05
-2.06763e-06
3.29795e-05
-8.6237e-06
3.2801e-05
-1.51334e-05
3.25627e-05
-2.16248e-05
3.23912e-05
-2.79934e-05
3.18714e-05
-3.43064e-05
3.15089e-05
-4.05042e-05
3.09711e-05
-4.65704e-05
3.02853e-05
-5.25276e-05
2.97942e-05
-5.83128e-05
2.89223e-05
-6.39969e-05
2.8321e-05
-6.94452e-05
2.72905e-05
-7.47146e-05
2.61913e-05
-7.9706e-05
2.49321e-05
-8.44928e-05
2.39784e-05
-8.89699e-05
2.22861e-05
-9.33699e-05
2.19709e-05
-9.74012e-05
2.00287e-05
-0.000101062
1.8377e-05
-0.000104199
1.57678e-05
-0.000107169
1.46622e-05
-0.0001096
1.22199e-05
-0.000111625
1.00705e-05
-0.000113301
8.33064e-06
-0.000114402
5.57309e-06
-0.000115235
3.99696e-06
-0.000115433
1.14375e-06
-0.000115329
-6.04264e-07
-0.000114648
-3.29448e-06
-0.000113583
-5.36039e-06
-0.000112055
-7.68067e-06
-0.000110046
-9.94459e-06
-0.000107631
-1.2119e-05
-0.000104748
-1.43757e-05
-0.000101424
-1.66725e-05
-9.7688e-05
-1.87014e-05
-9.34459e-05
-2.10754e-05
-8.89821e-05
-2.24666e-05
-8.40753e-05
-2.45044e-05
-7.87414e-05
-2.66075e-05
-7.3094e-05
-2.81603e-05
-6.69824e-05
-3.06532e-05
-6.0589e-05
-3.20386e-05
-5.36681e-05
-3.45321e-05
-4.64833e-05
-3.59565e-05
-3.87775e-05
-3.83523e-05
-3.08237e-05
-3.9885e-05
-2.23018e-05
-4.26907e-05
-1.35097e-05
-4.39138e-05
-4.21616e-06
-4.60999e-05
5.28919e-06
-4.74518e-05
1.51556e-05
-4.93211e-05
2.51306e-05
-4.97919e-05
3.53454e-05
-5.0594e-05
4.53957e-05
-4.98665e-05
5.53578e-05
-4.90346e-05
6.4806e-05
-4.58393e-05
7.32705e-05
-3.82638e-05
8.06965e-05
-2.65404e-05
8.68522e-05
-1.48929e-05
9.25303e-05
9.74015e-06
2.35687e-05
9.26898e-05
-0.000106577
3.7556e-05
-0.000112024
3.2686e-05
-0.00011669
2.80552e-05
-0.000120594
2.35106e-05
-0.000123775
1.92141e-05
-0.000126279
1.51751e-05
-0.000128161
1.14527e-05
-0.000129477
8.04215e-06
-0.000130269
4.91043e-06
-0.000130589
2.0591e-06
-0.000130471
-5.8306e-07
-0.000129922
-3.22517e-06
-0.000129008
-5.43883e-06
-0.000127677
-7.96667e-06
-0.000125984
-1.01578e-05
-0.000123962
-1.21562e-05
-0.000121529
-1.46381e-05
-0.000118748
-1.67528e-05
-0.000115519
-1.94545e-05
-0.000111887
-2.18846e-05
-0.000107746
-2.49393e-05
-0.000103138
-2.77299e-05
-9.79622e-05
-3.11143e-05
-9.22733e-05
-3.41573e-05
-8.59886e-05
-3.7691e-05
-7.91956e-05
-4.06976e-05
-7.18229e-05
-4.41279e-05
-6.4001e-05
-4.67947e-05
-5.56699e-05
-4.98179e-05
-4.69863e-05
-5.19077e-05
-3.79104e-05
-5.4258e-05
-2.85988e-05
-5.56533e-05
-1.90314e-05
-5.71756e-05
-9.34961e-06
-5.78589e-05
3.50565e-07
-5.79762e-05
1.00324e-05
-5.78712e-05
1.96036e-05
-5.72147e-05
2.90207e-05
-5.62948e-05
3.81933e-05
-5.48439e-05
4.70769e-05
-5.31185e-05
5.55939e-05
-5.09389e-05
6.36959e-05
-4.84648e-05
7.13188e-05
-4.56112e-05
7.84262e-05
-4.25438e-05
8.49719e-05
-3.91977e-05
9.09353e-05
-3.57312e-05