/*--------------------------------*- C++ -*----------------------------------*\
| =========                 |                                                 |
| \\      /  F ield         | OpenFOAM: The Open Source CFD Toolbox           |
|  \\    /   O peration     | Version:  3.0.1                                 |
|   \\  /    A nd           | Web:      www.OpenFOAM.org                      |
|    \\/     M anipulation  |                                                 |
\*---------------------------------------------------------------------------*/
FoamFile
{
    version     2.0;
    format      ascii;
    class       volVectorField;
    location    "20";
    object      U;
}
// * * * * * * * * * * * * * * * * * * * * * * * * * * * * * * * * * * * * * //

dimensions      [0 1 -1 0 0 0 0];

internalField   nonuniform List<vector> 
22680
(
(-0.102486 0.00075192 0)
(-0.10793 0.000656187 0)
(-0.113084 0.000564747 0)
(-0.117466 0.000473791 0)
(-0.121104 0.000388222 0)
(-0.124037 0.000307222 0)
(-0.126312 0.00023243 0)
(-0.12798 0.000163549 0)
(-0.129094 0.000100281 0)
(-0.129692 4.27646e-05 0)
(-0.129826 -1.03081e-05 0)
(-0.129524 -6.03783e-05 0)
(-0.128812 -0.000107759 0)
(-0.127709 -0.000153413 0)
(-0.126225 -0.000198058 0)
(-0.124365 -0.000242519 0)
(-0.122124 -0.000288183 0)
(-0.119494 -0.000334823 0)
(-0.116458 -0.000384614 0)
(-0.112993 -0.000436296 0)
(-0.109073 -0.000492564 0)
(-0.10467 -0.000550727 0)
(-0.0997567 -0.000613519 0)
(-0.0943109 -0.000676375 0)
(-0.0883187 -0.000743456 0)
(-0.0817783 -0.000805421 0)
(-0.0747009 -0.000872225 0)
(-0.0671116 -0.000926446 0)
(-0.0590488 -0.000985916 0)
(-0.0505623 -0.00102751 0)
(-0.0417104 -0.00107393 0)
(-0.0325603 -0.00110004 0)
(-0.023186 -0.00113113 0)
(-0.0137217 -0.00113974 0)
(-0.00416495 -0.00113915 0)
(0.00558877 -0.00114424 0)
(0.0153031 -0.00112665 0)
(0.0248069 -0.00111382 0)
(0.0340987 -0.00108018 0)
(0.0431156 -0.00105014 0)
(0.0517955 -0.00100205 0)
(0.060078 -0.000956441 0)
(0.067908 -0.000896339 0)
(0.0752369 -0.000837829 0)
(0.0820233 -0.000769105 0)
(0.0882346 -0.000701569 0)
(0.0938474 -0.000628401 0)
(0.0988478 -0.000556541 0)
(0.103231 -0.000483209 0)
(0.107001 -0.000411676 0)
(0.110168 -0.000341373 0)
(0.112744 -0.000273282 0)
(0.114743 -0.000207501 0)
(0.116178 -0.000143871 0)
(0.117059 -8.24991e-05 0)
(0.11739 -2.3211e-05 0)
(0.117219 3.35112e-05 0)
(0.11657 9.04505e-05 0)
(0.115475 0.000145016 0)
(0.113945 0.000200079 0)
(0.11199 0.0002526 0)
(0.109614 0.000307145 0)
(0.106814 0.000358288 0)
(0.103579 0.000412688 0)
(0.0999061 0.00046174 0)
(0.0958013 0.000514423 0)
(0.0912825 0.000559398 0)
(0.0863695 0.000607481 0)
(0.0810909 0.00064569 0)
(0.0754868 0.000685453 0)
(0.0695751 0.000720629 0)
(0.0634191 0.00074307 0)
(0.0570691 0.000765701 0)
(0.0505708 0.000775692 0)
(0.0439849 0.000787989 0)
(0.0373334 0.000787309 0)
(0.0306809 0.000789469 0)
(0.0240676 0.000780376 0)
(0.0174708 0.000773299 0)
(0.0109936 0.0007609 0)
(0.00464719 0.000746379 0)
(-0.00156195 0.000728813 0)
(-0.00760696 0.000711331 0)
(-0.0135169 0.000690049 0)
(-0.0192517 0.000668922 0)
(-0.0248048 0.000643519 0)
(-0.0301528 0.000619191 0)
(-0.0352803 0.000589939 0)
(-0.0401825 0.000562685 0)
(-0.0448381 0.000532513 0)
(-0.0492272 0.000498435 0)
(-0.0533344 0.000466238 0)
(-0.0571195 0.000429704 0)
(-0.0606266 0.000395498 0)
(-0.0637959 0.00035788 0)
(-0.0666669 0.000323586 0)
(-0.0692416 0.000285376 0)
(-0.0714936 0.000253487 0)
(-0.0734418 0.000214317 0)
(-0.0751309 0.000183795 0)
(-0.0764969 0.00014401 0)
(-0.0775467 0.000111981 0)
(-0.0783162 7.1615e-05 0)
(-0.0787462 3.59382e-05 0)
(-0.0788872 -7.49413e-06 0)
(-0.0786109 -4.73735e-05 0)
(-0.0779934 -9.43e-05 0)
(-0.0769908 -0.000137203 0)
(-0.0755834 -0.00018813 0)
(-0.0737353 -0.000242691 0)
(-0.0714818 -0.000291588 0)
(-0.0687236 -0.000353372 0)
(-0.0655201 -0.000402481 0)
(-0.0618328 -0.000468202 0)
(-0.0576867 -0.000515963 0)
(-0.0530345 -0.000584205 0)
(-0.047936 -0.000629433 0)
(-0.0423596 -0.000691299 0)
(-0.0363302 -0.000732085 0)
(-0.0298904 -0.000794461 0)
(-0.0230822 -0.000828291 0)
(-0.0158169 -0.00088566 0)
(-0.00817727 -0.000907152 0)
(-0.000394744 -0.000944357 0)
(0.00774941 -0.000975804 0)
(0.0161067 -0.000998001 0)
(0.0245477 -0.000997012 0)
(0.0329028 -0.000997302 0)
(0.0413276 -0.000990163 0)
(0.0495872 -0.000971938 0)
(0.057707 -0.000947725 0)
(0.0655261 -0.000907277 0)
(0.0729991 -0.000860918 0)
(0.080021 -0.000800284 0)
(0.0864886 -0.000731919 0)
(0.0923405 -0.000650813 0)
(0.0974721 -0.000565471 0)
(0.101842 -0.000466761 0)
(0.105363 -0.000367321 0)
(0.108022 -0.000259922 0)
(0.10978 -0.000153469 0)
(0.110624 -4.77748e-05 0)
(0.110575 5.6081e-05 0)
(0.109657 0.000157721 0)
(0.107915 0.00025229 0)
(0.105415 0.00033885 0)
(0.102215 0.000416177 0)
(0.0983956 0.000485887 0)
(0.0940193 0.000546826 0)
(0.0891675 0.000599585 0)
(0.0838985 0.000644838 0)
(0.0782962 0.000681484 0)
(0.0724308 0.000709593 0)
(0.0663438 0.00072955 0)
(0.0601132 0.000748559 0)
(0.053754 0.000759357 0)
(0.0473073 0.000768874 0)
(0.0408009 0.000774784 0)
(0.0342342 0.000777114 0)
(0.0276749 0.000780153 0)
(0.0210902 0.000781041 0)
(0.0144847 0.000782637 0)
(0.00789185 0.000783762 0)
(0.00129531 0.000780766 0)
(-0.00528952 0.000777937 0)
(-0.0118229 0.000771303 0)
(-0.0183051 0.000766003 0)
(-0.0247179 0.000755252 0)
(-0.0310618 0.000745495 0)
(-0.037302 0.000733746 0)
(-0.0434226 0.000716871 0)
(-0.0494515 0.000706354 0)
(-0.0553016 0.000684764 0)
(-0.0610217 0.00066965 0)
(-0.0666127 0.000646112 0)
(-0.0719559 0.000618741 0)
(-0.0770519 0.000589941 0)
(-0.0819297 0.000568857 0)
(-0.0865293 0.000527039 0)
(-0.0909571 0.000520128 0)
(-0.095151 0.000471887 0)
(-0.0990336 0.000435732 0)
(-0.102405 0.000376253 0)
(-0.105467 0.000345025 0)
(-0.108169 0.000289327 0)
(-0.110372 0.000238813 0)
(-0.112235 0.000195909 0)
(-0.113605 0.000133096 0)
(-0.114567 9.22258e-05 0)
(-0.115071 3.00569e-05 0)
(-0.115131 -1.41477e-05 0)
(-0.11474 -7.51388e-05 0)
(-0.113898 -0.00012795 0)
(-0.112626 -0.000182114 0)
(-0.110836 -0.000234974 0)
(-0.10862 -0.000288131 0)
(-0.105957 -0.00033993 0)
(-0.102865 -0.000395292 0)
(-0.0993268 -0.000445481 0)
(-0.0953275 -0.00049743 0)
(-0.0909779 -0.000532492 0)
(-0.0862791 -0.000581035 0)
(-0.0811646 -0.000628037 0)
(-0.0756861 -0.000665997 0)
(-0.0698069 -0.000726758 0)
(-0.0635161 -0.000759221 0)
(-0.0568627 -0.000816089 0)
(-0.0498119 -0.000852445 0)
(-0.042407 -0.000905366 0)
(-0.0346082 -0.00094527 0)
(-0.0263109 -0.00101115 0)
(-0.0176425 -0.00103857 0)
(-0.00870237 -0.00108517 0)
(0.000641624 -0.00112103 0)
(0.0103198 -0.00116587 0)
(0.0202121 -0.00117932 0)
(0.0301867 -0.00118751 0)
(0.0401601 -0.00119151 0)
(0.0500358 -0.00115203 0)
(0.0596053 -0.00096772 0)
(0.0674217 -0.000476422 0)
(0.0710987 0.00026878 0)
(0.0671431 0.000581736 0)
(0.0619634 -0.000495414 0)
(0.0366039 -0.00201303 0)
(-0.10253 0.00225582 0)
(-0.107974 0.00196852 0)
(-0.113128 0.00169411 0)
(-0.117508 0.00142116 0)
(-0.121143 0.00116439 0)
(-0.124074 0.000921341 0)
(-0.126346 0.000696951 0)
(-0.128011 0.000490323 0)
(-0.129122 0.000300613 0)
(-0.129719 0.0001278 0)
(-0.129851 -3.09383e-05 0)
(-0.129547 -0.00018129 0)
(-0.128834 -0.000323377 0)
(-0.12773 -0.000460282 0)
(-0.126246 -0.000594171 0)
(-0.124386 -0.000727507 0)
(-0.122146 -0.000864453 0)
(-0.119517 -0.00100433 0)
(-0.116482 -0.00115367 0)
(-0.113019 -0.0013087 0)
(-0.109101 -0.0014775 0)
(-0.104699 -0.00165202 0)
(-0.0997868 -0.00184044 0)
(-0.0943416 -0.00202907 0)
(-0.0883498 -0.00223039 0)
(-0.0818086 -0.00241637 0)
(-0.0747301 -0.00261688 0)
(-0.0671384 -0.00277962 0)
(-0.0590731 -0.00295811 0)
(-0.0505832 -0.00308295 0)
(-0.0417279 -0.00322226 0)
(-0.0325739 -0.00330061 0)
(-0.0231957 -0.0033939 0)
(-0.0137272 -0.00341976 0)
(-0.00416624 -0.00341806 0)
(0.00559165 -0.00343313 0)
(0.0153099 -0.00338039 0)
(0.0248179 -0.00334192 0)
(0.0341133 -0.00324099 0)
(0.0431341 -0.00315084 0)
(0.0518172 -0.00300653 0)
(0.060103 -0.00286967 0)
(0.0679356 -0.00268931 0)
(0.075267 -0.00251374 0)
(0.0820551 -0.0023075 0)
(0.0882679 -0.00210484 0)
(0.0938813 -0.00188529 0)
(0.0988821 -0.00166965 0)
(0.103265 -0.00144962 0)
(0.107035 -0.00123501 0)
(0.1102 -0.00102406 0)
(0.112775 -0.000819741 0)
(0.114774 -0.000622332 0)
(0.116208 -0.000431427 0)
(0.117088 -0.000247262 0)
(0.117419 -6.9865e-05 0)
(0.117246 0.000100363 0)
(0.116596 0.000271373 0)
(0.115501 0.000435041 0)
(0.113971 0.000600237 0)
(0.112017 0.000757771 0)
(0.10964 0.000921445 0)
(0.106841 0.00107487 0)
(0.103606 0.00123809 0)
(0.0999319 0.0013853 0)
(0.0958265 0.00154335 0)
(0.0913066 0.00167833 0)
(0.0863922 0.00182262 0)
(0.0811118 0.00193732 0)
(0.0755054 0.00205664 0)
(0.0695913 0.00216221 0)
(0.0634327 0.00222956 0)
(0.0570796 0.00229747 0)
(0.0505792 0.00232756 0)
(0.0439906 0.0023642 0)
(0.0373368 0.00236212 0)
(0.0306821 0.00236888 0)
(0.0240667 0.00234145 0)
(0.0174688 0.00232002 0)
(0.0109897 0.00228313 0)
(0.00464156 0.00223931 0)
(-0.00156836 0.00218696 0)
(-0.00761505 0.00213421 0)
(-0.0135261 0.00207053 0)
(-0.0192624 0.00200723 0)
(-0.0248169 0.00193092 0)
(-0.0301664 0.00185784 0)
(-0.0352951 0.00177033 0)
(-0.0401986 0.00168818 0)
(-0.044856 0.0015976 0)
(-0.0492462 0.00149523 0)
(-0.0533542 0.00139883 0)
(-0.0571401 0.00128932 0)
(-0.0606477 0.00118685 0)
(-0.0638178 0.00107322 0)
(-0.0666888 0.000970909 0)
(-0.0692633 0.000856343 0)
(-0.0715156 0.000760445 0)
(-0.0734637 0.000643504 0)
(-0.0751537 0.000550604 0)
(-0.0765198 0.00043164 0)
(-0.07757 0.000336591 0)
(-0.0783408 0.000215152 0)
(-0.0787696 0.000108772 0)
(-0.0789059 -1.97381e-05 0)
(-0.0786303 -0.000142668 0)
(-0.0780168 -0.000282068 0)
(-0.0770169 -0.000410888 0)
(-0.0756115 -0.000563024 0)
(-0.0737621 -0.000726071 0)
(-0.0715106 -0.00087585 0)
(-0.06875 -0.00105928 0)
(-0.065547 -0.00120669 0)
(-0.0618581 -0.00140488 0)
(-0.0577125 -0.00154656 0)
(-0.0530596 -0.00175299 0)
(-0.0479599 -0.00188751 0)
(-0.042382 -0.00207411 0)
(-0.0363527 -0.00219678 0)
(-0.0299104 -0.00238393 0)
(-0.0231017 -0.00248651 0)
(-0.0158331 -0.00266031 0)
(-0.00819159 -0.00272174 0)
(-0.000407299 -0.00283552 0)
(0.00774453 -0.00292241 0)
(0.0161102 -0.00299398 0)
(0.0245531 -0.00298758 0)
(0.0329089 -0.0029947 0)
(0.0413397 -0.00297101 0)
(0.0496033 -0.00291547 0)
(0.0577286 -0.00284414 0)
(0.0655539 -0.00272088 0)
(0.0730313 -0.00258381 0)
(0.0800593 -0.00239967 0)
(0.0865311 -0.00219575 0)
(0.0923869 -0.00195285 0)
(0.0975228 -0.00169453 0)
(0.101895 -0.00140104 0)
(0.105418 -0.00110232 0)
(0.108078 -0.000781066 0)
(0.109836 -0.000459816 0)
(0.11068 -0.00014211 0)
(0.110629 0.000166003 0)
(0.109708 0.000474534 0)
(0.107963 0.000756502 0)
(0.10546 0.00101499 0)
(0.102258 0.00125075 0)
(0.0984304 0.00145767 0)
(0.0940482 0.00164238 0)
(0.0891934 0.00180318 0)
(0.0839215 0.00193873 0)
(0.0783142 0.00204401 0)
(0.0724451 0.00212616 0)
(0.0663582 0.002191 0)
(0.0601252 0.00224664 0)
(0.0537625 0.00227767 0)
(0.0473132 0.00230688 0)
(0.0408035 0.00232156 0)
(0.0342353 0.00232976 0)
(0.0276737 0.00234201 0)
(0.0210863 0.00234146 0)
(0.0144808 0.00234765 0)
(0.00788663 0.00235395 0)
(0.00128787 0.00234259 0)
(-0.00529767 0.00233211 0)
(-0.0118307 0.00231625 0)
(-0.0183156 0.00229792 0)
(-0.024729 0.00226615 0)
(-0.0310743 0.00223782 0)
(-0.0373172 0.00220049 0)
(-0.0434379 0.00215195 0)
(-0.0494691 0.00211683 0)
(-0.0553203 0.0020547 0)
(-0.0610438 0.00200762 0)
(-0.0666395 0.00194011 0)
(-0.0719842 0.00185695 0)
(-0.0770801 0.0017711 0)
(-0.0819627 0.00170444 0)
(-0.086561 0.00158088 0)
(-0.0909915 0.00155714 0)
(-0.0951905 0.00141679 0)
(-0.0990754 0.00131048 0)
(-0.102443 0.00112498 0)
(-0.105505 0.00103432 0)
(-0.108211 0.000869933 0)
(-0.110411 0.000714391 0)
(-0.112279 0.000585362 0)
(-0.113647 0.000399926 0)
(-0.114613 0.000276835 0)
(-0.115115 9.08304e-05 0)
(-0.115175 -4.43653e-05 0)
(-0.114781 -0.000226722 0)
(-0.11393 -0.000378559 0)
(-0.112653 -0.00054268 0)
(-0.110861 -0.000700263 0)
(-0.108648 -0.000859533 0)
(-0.105988 -0.00102225 0)
(-0.102896 -0.00118356 0)
(-0.0993583 -0.00133065 0)
(-0.0953535 -0.00149336 0)
(-0.091003 -0.00159923 0)
(-0.0863098 -0.00174497 0)
(-0.081193 -0.00188674 0)
(-0.0757168 -0.00200046 0)
(-0.0698331 -0.00217886 0)
(-0.0635442 -0.00227997 0)
(-0.0568867 -0.00244888 0)
(-0.0498349 -0.00255469 0)
(-0.042428 -0.0027175 0)
(-0.0346294 -0.00283795 0)
(-0.0263266 -0.00303093 0)
(-0.0176575 -0.00311897 0)
(-0.00871908 -0.00326097 0)
(0.000630761 -0.00336291 0)
(0.0103204 -0.00349696 0)
(0.0202229 -0.00353292 0)
(0.0301988 -0.00357625 0)
(0.0402358 -0.0035096 0)
(0.0499632 -0.00349026 0)
(0.0592982 -0.00321338 0)
(0.0683038 -0.00225987 0)
(0.0757129 -0.000252724 0)
(0.0789668 0.00170458 0)
(0.0814277 0.00694695 0)
(0.0615111 0.0065598 0)
(-0.102619 0.0037599 0)
(-0.108062 0.00328074 0)
(-0.113215 0.00282307 0)
(-0.117591 0.00236787 0)
(-0.121222 0.00193968 0)
(-0.124147 0.00153447 0)
(-0.126414 0.00116044 0)
(-0.128073 0.000816113 0)
(-0.129179 0.000500363 0)
(-0.129771 0.000212888 0)
(-0.1299 -5.32311e-05 0)
(-0.129592 -0.000302804 0)
(-0.128878 -0.0005393 0)
(-0.127773 -0.000767298 0)
(-0.126289 -0.000990288 0)
(-0.124428 -0.00121236 0)
(-0.12219 -0.00144045 0)
(-0.119562 -0.00167345 0)
(-0.11653 -0.00192224 0)
(-0.11307 -0.00218055 0)
(-0.109155 -0.00246188 0)
(-0.104756 -0.00275281 0)
(-0.0998468 -0.00306698 0)
(-0.094403 -0.0033816 0)
(-0.0884117 -0.00371741 0)
(-0.0818689 -0.00402768 0)
(-0.0747881 -0.00436217 0)
(-0.0671916 -0.00463366 0)
(-0.0591213 -0.00493139 0)
(-0.0506244 -0.0051396 0)
(-0.0417624 -0.00537193 0)
(-0.0326004 -0.00550257 0)
(-0.0232143 -0.00565815 0)
(-0.0137374 -0.0057013 0)
(-0.00416799 -0.00569856 0)
(0.00559827 -0.00572342 0)
(0.0153244 -0.00563554 0)
(0.0248406 -0.00557141 0)
(0.0341434 -0.00540312 0)
(0.0431719 -0.00525279 0)
(0.0518615 -0.00501215 0)
(0.060154 -0.00478394 0)
(0.0679916 -0.00448317 0)
(0.0753282 -0.00419037 0)
(0.0821195 -0.00384644 0)
(0.0883353 -0.00350846 0)
(0.0939499 -0.00314234 0)
(0.0989513 -0.00278275 0)
(0.103334 -0.00241592 0)
(0.107102 -0.00205815 0)
(0.110266 -0.00170656 0)
(0.112839 -0.00136601 0)
(0.114835 -0.0010371 0)
(0.116268 -0.000719069 0)
(0.117146 -0.000412424 0)
(0.117476 -0.000115974 0)
(0.117298 0.000167867 0)
(0.116649 0.000452482 0)
(0.115554 0.000725119 0)
(0.114023 0.00100048 0)
(0.112068 0.00126296 0)
(0.109691 0.00153587 0)
(0.106891 0.00179159 0)
(0.103656 0.0020637 0)
(0.0999804 0.00230915 0)
(0.0958733 0.0025727 0)
(0.0913506 0.00279779 0)
(0.0864333 0.00303842 0)
(0.0811487 0.00322978 0)
(0.0755375 0.00342874 0)
(0.0696181 0.00360477 0)
(0.0634538 0.00371704 0)
(0.0570946 0.00383023 0)
(0.0505894 0.00388074 0)
(0.0439955 0.00394093 0)
(0.0373374 0.00393737 0)
(0.0306784 0.00394933 0)
(0.0240588 0.00390305 0)
(0.0174591 0.00386674 0)
(0.0109768 0.00380623 0)
(0.00462608 0.00373271 0)
(-0.00158502 0.00364523 0)
(-0.00763355 0.00355761 0)
(-0.013546 0.00345147 0)
(-0.0192844 0.00334572 0)
(-0.0248402 0.00321879 0)
(-0.0301914 0.00309687 0)
(-0.0353217 0.00295101 0)
(-0.0402262 0.00281374 0)
(-0.0448857 0.00266318 0)
(-0.0492771 0.00249187 0)
(-0.0533857 0.00233177 0)
(-0.0571728 0.00214885 0)
(-0.060681 0.00197795 0)
(-0.0638506 0.00178923 0)
(-0.0667223 0.00161793 0)
(-0.0692955 0.00142684 0)
(-0.0715485 0.00126775 0)
(-0.0734952 0.00107201 0)
(-0.0751871 0.000918298 0)
(-0.0765515 0.000719802 0)
(-0.0776044 0.000561384 0)
(-0.0783754 0.000358308 0)
(-0.0788041 0.000179453 0)
(-0.0789362 -3.56894e-05 0)
(-0.0786606 -0.000235765 0)
(-0.0780508 -0.000469794 0)
(-0.0770588 -0.000684971 0)
(-0.0756596 -0.000938583 0)
(-0.0738082 -0.00121166 0)
(-0.0715615 -0.00145823 0)
(-0.0687979 -0.00176712 0)
(-0.0655972 -0.00201074 0)
(-0.0619077 -0.0023435 0)
(-0.0577664 -0.00257687 0)
(-0.0531132 -0.00292294 0)
(-0.0480137 -0.00314602 0)
(-0.0424331 -0.00345665 0)
(-0.0364067 -0.00366026 0)
(-0.0299624 -0.00397336 0)
(-0.023156 -0.00414416 0)
(-0.0158845 -0.00443283 0)
(-0.0082375 -0.00453678 0)
(-0.000439447 -0.00472758 0)
(0.00773793 -0.00487423 0)
(0.0160968 -0.00499167 0)
(0.0245506 -0.00498322 0)
(0.0329041 -0.00499274 0)
(0.0413473 -0.00495292 0)
(0.0496172 -0.0048624 0)
(0.0577555 -0.00474249 0)
(0.065591 -0.00453833 0)
(0.0730785 -0.00430946 0)
(0.0801165 -0.00400217 0)
(0.0865979 -0.0036626 0)
(0.0924616 -0.00325577 0)
(0.0976057 -0.00282701 0)
(0.101984 -0.00233662 0)
(0.105511 -0.00183813 0)
(0.108174 -0.00130118 0)
(0.109931 -0.000767191 0)
(0.110775 -0.000236938 0)
(0.110717 0.00028056 0)
(0.109793 0.00079152 0)
(0.108047 0.00126095 0)
(0.10554 0.00169253 0)
(0.102328 0.00208638 0)
(0.0984896 0.00243411 0)
(0.0940937 0.00274088 0)
(0.0892285 0.00300639 0)
(0.0839536 0.00323137 0)
(0.0783425 0.00340636 0)
(0.072466 0.00354508 0)
(0.0663775 0.00364992 0)
(0.0601395 0.00374476 0)
(0.0537712 0.00379571 0)
(0.0473172 0.00384646 0)
(0.0408009 0.00386934 0)
(0.0342294 0.00388454 0)
(0.0276652 0.00390413 0)
(0.021076 0.00390295 0)
(0.0144706 0.00391638 0)
(0.00787296 0.00392361 0)
(0.00127328 0.00390352 0)
(-0.00531194 0.00388748 0)
(-0.0118446 0.00385769 0)
(-0.0183322 0.0038321 0)
(-0.0247463 0.00377601 0)
(-0.0310928 0.00372943 0)
(-0.0373386 0.00366728 0)
(-0.0434583 0.0035854 0)
(-0.0494906 0.00352934 0)
(-0.055339 0.00342488 0)
(-0.0610689 0.0033477 0)
(-0.0666734 0.00323092 0)
(-0.0720164 0.00309697 0)
(-0.0771173 0.00295014 0)
(-0.0820018 0.00284103 0)
(-0.0865989 0.00263499 0)
(-0.0910305 0.00259819 0)
(-0.0952401 0.0023637 0)
(-0.0991343 0.00217796 0)
(-0.102484 0.00187714 0)
(-0.105545 0.00172543 0)
(-0.108265 0.00144746 0)
(-0.110454 0.00119033 0)
(-0.112335 0.000979617 0)
(-0.1137 0.000665956 0)
(-0.114676 0.000462998 0)
(-0.115174 0.00014765 0)
(-0.115232 -7.4901e-05 0)
(-0.114833 -0.000381044 0)
(-0.113971 -0.000636875 0)
(-0.112689 -0.000910326 0)
(-0.110894 -0.00116865 0)
(-0.108687 -0.00143813 0)
(-0.106031 -0.00170179 0)
(-0.102947 -0.00197644 0)
(-0.0994175 -0.00221906 0)
(-0.095398 -0.00248607 0)
(-0.0910473 -0.00266814 0)
(-0.0863658 -0.0029061 0)
(-0.0812439 -0.00314435 0)
(-0.0757769 -0.00333359 0)
(-0.0698907 -0.00363294 0)
(-0.0636047 -0.003797 0)
(-0.0569429 -0.00408183 0)
(-0.0498931 -0.00425793 0)
(-0.0424804 -0.00453163 0)
(-0.0346854 -0.00473046 0)
(-0.0263856 -0.00505458 0)
(-0.0177157 -0.00519972 0)
(-0.00876577 -0.00543406 0)
(0.000606032 -0.00560904 0)
(0.0103057 -0.00583321 0)
(0.0202193 -0.00589454 0)
(0.0302095 -0.00597064 0)
(0.0402263 -0.00588671 0)
(0.0502023 -0.00570735 0)
(0.0595452 -0.00533431 0)
(0.0679931 -0.00431783 0)
(0.0756333 -0.00225935 0)
(0.0806948 -0.000341436 0)
(0.0873365 0.00368901 0)
(0.0803951 0.00321851 0)
(-0.102752 0.00526427 0)
(-0.108194 0.00459275 0)
(-0.113346 0.00395131 0)
(-0.117717 0.00331344 0)
(-0.121341 0.00271351 0)
(-0.124258 0.00214594 0)
(-0.126516 0.00162222 0)
(-0.128167 0.00114026 0)
(-0.129264 0.000698964 0)
(-0.129851 0.000296043 0)
(-0.129973 -7.61596e-05 0)
(-0.129661 -0.000425216 0)
(-0.128943 -0.000755718 0)
(-0.127837 -0.00107456 0)
(-0.126352 -0.00138642 0)
(-0.124492 -0.001697 0)
(-0.122255 -0.00201601 0)
(-0.119631 -0.00234191 0)
(-0.116602 -0.00268997 0)
(-0.113146 -0.00305146 0)
(-0.109236 -0.0034453 0)
(-0.104842 -0.00385274 0)
(-0.0999368 -0.0042929 0)
(-0.0944951 -0.00473384 0)
(-0.0885048 -0.00520457 0)
(-0.0819595 -0.00563959 0)
(-0.0748753 -0.00610853 0)
(-0.0672714 -0.00648917 0)
(-0.0591937 -0.00690649 0)
(-0.0506863 -0.00719828 0)
(-0.0418141 -0.00752385 0)
(-0.0326401 -0.00770685 0)
(-0.0232423 -0.00792486 0)
(-0.0137527 -0.00798532 0)
(-0.00417061 -0.00798151 0)
(0.00560821 -0.0080162 0)
(0.0153462 -0.00789309 0)
(0.0248748 -0.00780324 0)
(0.0341886 -0.00756748 0)
(0.0432287 -0.00735687 0)
(0.0519278 -0.00701971 0)
(0.0602305 -0.00669997 0)
(0.0680756 -0.00627853 0)
(0.0754199 -0.00586825 0)
(0.0822161 -0.00538628 0)
(0.0884365 -0.00491267 0)
(0.0940528 -0.00439966 0)
(0.0990553 -0.00389584 0)
(0.103437 -0.00338197 0)
(0.107204 -0.0028809 0)
(0.110365 -0.00238859 0)
(0.112935 -0.00191185 0)
(0.114928 -0.00145156 0)
(0.116357 -0.00100661 0)
(0.117233 -0.00057772 0)
(0.117561 -0.000162526 0)
(0.117378 0.000237021 0)
(0.116729 0.000633804 0)
(0.115633 0.00101527 0)
(0.114101 0.00140089 0)
(0.112145 0.00176815 0)
(0.109768 0.00215044 0)
(0.106967 0.00250851 0)
(0.103731 0.00288961 0)
(0.100053 0.00323344 0)
(0.0959436 0.00360269 0)
(0.0914168 0.00391813 0)
(0.0864949 0.00425523 0)
(0.081204 0.00452377 0)
(0.0755857 0.00480239 0)
(0.0696582 0.00504899 0)
(0.0634855 0.00520622 0)
(0.0571171 0.00536457 0)
(0.0506048 0.00543607 0)
(0.0440027 0.00551868 0)
(0.0373383 0.00551314 0)
(0.0306728 0.00553162 0)
(0.0240467 0.00546565 0)
(0.0174447 0.00541346 0)
(0.0109577 0.00533073 0)
(0.00460263 0.00522659 0)
(-0.00160981 0.00510381 0)
(-0.00766125 0.00498143 0)
(-0.0135761 0.00483295 0)
(-0.0193171 0.00468472 0)
(-0.024875 0.00450714 0)
(-0.0302289 0.00433603 0)
(-0.0353612 0.00413227 0)
(-0.0402677 0.0039396 0)
(-0.0449305 0.00372909 0)
(-0.0493232 0.00348877 0)
(-0.0534334 0.00326491 0)
(-0.0572213 0.00300891 0)
(-0.0607318 0.0027689 0)
(-0.0638992 0.00250496 0)
(-0.0667731 0.00226498 0)
(-0.0693436 0.00199763 0)
(-0.0715991 0.00177432 0)
(-0.0735426 0.00150143 0)
(-0.0752376 0.00128509 0)
(-0.0766003 0.00100778 0)
(-0.0776536 0.00078683 0)
(-0.0784309 0.000502063 0)
(-0.0788538 0.00025043 0)
(-0.0789953 -5.00585e-05 0)
(-0.0787178 -0.00033118 0)
(-0.0781053 -0.000654747 0)
(-0.0771255 -0.000957855 0)
(-0.0757357 -0.00131409 0)
(-0.0738699 -0.00169479 0)
(-0.071648 -0.0020429 0)
(-0.0688633 -0.0024752 0)
(-0.0656808 -0.00281428 0)
(-0.0619789 -0.0032805 0)
(-0.0578539 -0.00360941 0)
(-0.05319 -0.00408927 0)
(-0.0480972 -0.00440644 0)
(-0.042508 -0.00483693 0)
(-0.0364894 -0.00512817 0)
(-0.030034 -0.00555851 0)
(-0.0232287 -0.00580423 0)
(-0.0159472 -0.00621302 0)
(-0.00831188 -0.00635301 0)
(-0.000475272 -0.00662434 0)
(0.00772593 -0.00682645 0)
(0.0160526 -0.006994 0)
(0.024545 -0.00697656 0)
(0.0328878 -0.00698955 0)
(0.0413681 -0.00693916 0)
(0.0496379 -0.00681382 0)
(0.0577972 -0.00664298 0)
(0.0656445 -0.00636028 0)
(0.0731522 -0.00603554 0)
(0.0802028 -0.00560887 0)
(0.0866982 -0.00513129 0)
(0.0925765 -0.00456328 0)
(0.0977302 -0.00396072 0)
(0.102119 -0.00327551 0)
(0.105651 -0.00257431 0)
(0.108319 -0.00182253 0)
(0.110076 -0.00107414 0)
(0.110919 -0.000329742 0)
(0.110851 0.000398631 0)
(0.109926 0.00111055 0)
(0.108174 0.00176678 0)
(0.105659 0.00237341 0)
(0.102434 0.00292593 0)
(0.0985808 0.00341474 0)
(0.0941661 0.00384301 0)
(0.0892869 0.00421177 0)
(0.0839996 0.00452139 0)
(0.078385 0.00476979 0)
(0.0724988 0.00496603 0)
(0.0664031 0.00511189 0)
(0.0601583 0.00524377 0)
(0.053785 0.0053164 0)
(0.0473213 0.00538601 0)
(0.0407985 0.00542143 0)
(0.0342262 0.00544058 0)
(0.0276562 0.00546804 0)
(0.0210652 0.00546969 0)
(0.0144587 0.00548175 0)
(0.00785871 0.00549338 0)
(0.00125381 0.00546588 0)
(-0.00533138 0.00544148 0)
(-0.0118594 0.00540072 0)
(-0.0183573 0.0053658 0)
(-0.0247683 0.00528778 0)
(-0.031116 0.00522158 0)
(-0.0373701 0.00513474 0)
(-0.0434838 0.00501983 0)
(-0.049534 0.00494001 0)
(-0.0553577 0.00479672 0)
(-0.0611143 0.00468837 0)
(-0.0667162 0.00452828 0)
(-0.0720482 0.00433585 0)
(-0.0771844 0.00413093 0)
(-0.0820504 0.0039797 0)
(-0.0866528 0.00368982 0)
(-0.091093 0.00363967 0)
(-0.0953052 0.0033136 0)
(-0.0992288 0.00305077 0)
(-0.102532 0.00262259 0)
(-0.105606 0.00241938 0)
(-0.108353 0.0020308 0)
(-0.110508 0.00166725 0)
(-0.112432 0.00137748 0)
(-0.113762 0.000929793 0)
(-0.114774 0.000650188 0)
(-0.115256 0.000201507 0)
(-0.115312 -0.00010586 0)
(-0.114917 -0.00053834 0)
(-0.114033 -0.000890002 0)
(-0.11277 -0.00127547 0)
(-0.110956 -0.00163997 0)
(-0.108764 -0.00201506 0)
(-0.106106 -0.0023801 0)
(-0.103015 -0.00276735 0)
(-0.0995176 -0.0031038 0)
(-0.0954575 -0.00348007 0)
(-0.0911109 -0.00373387 0)
(-0.0864493 -0.00406006 0)
(-0.0813102 -0.00440462 0)
(-0.075864 -0.00466576 0)
(-0.0699592 -0.00508325 0)
(-0.0637037 -0.00531758 0)
(-0.0570183 -0.00571521 0)
(-0.049981 -0.00596517 0)
(-0.0425448 -0.00634344 0)
(-0.0347559 -0.00662217 0)
(-0.0264738 -0.00707893 0)
(-0.0178139 -0.00728094 0)
(-0.00883191 -0.00761668 0)
(0.000587335 -0.00785766 0)
(0.0102755 -0.00817577 0)
(0.0201879 -0.00825674 0)
(0.0302068 -0.00835664 0)
(0.0402693 -0.0082429 0)
(0.0502365 -0.00810564 0)
(0.059825 -0.0075183 0)
(0.0685962 -0.00599158 0)
(0.0764358 -0.00351619 0)
(0.0819125 -0.000911243 0)
(0.0905367 0.00529476 0)
(0.0874537 0.00651348 0)
(-0.10293 0.00676905 0)
(-0.108371 0.00590445 0)
(-0.11352 0.00507855 0)
(-0.117884 0.00425739 0)
(-0.1215 0.00348527 0)
(-0.124406 0.00275507 0)
(-0.126652 0.00208159 0)
(-0.128291 0.0014621 0)
(-0.129377 0.000895738 0)
(-0.129956 0.000377414 0)
(-0.13007 -0.000100761 0)
(-0.129753 -0.000548654 0)
(-0.129031 -0.000972817 0)
(-0.127922 -0.00138216 0)
(-0.126436 -0.00178256 0)
(-0.124577 -0.00218133 0)
(-0.122342 -0.00259093 0)
(-0.119721 -0.00300945 0)
(-0.116698 -0.00345653 0)
(-0.113248 -0.00392105 0)
(-0.109345 -0.00442737 0)
(-0.104957 -0.00495147 0)
(-0.100057 -0.00551792 0)
(-0.094618 -0.00608566 0)
(-0.0886291 -0.00669191 0)
(-0.0820805 -0.00725234 0)
(-0.0749917 -0.00785641 0)
(-0.067378 -0.00834674 0)
(-0.0592903 -0.00888415 0)
(-0.050769 -0.0092598 0)
(-0.0418831 -0.00967891 0)
(-0.0326932 -0.00991439 0)
(-0.0232797 -0.010195 0)
(-0.0137731 -0.0102728 0)
(-0.00417409 -0.0102679 0)
(0.0056215 -0.0103125 0)
(0.0153752 -0.010154 0)
(0.0249204 -0.0100384 0)
(0.0342489 -0.00973493 0)
(0.0433045 -0.00946391 0)
(0.0520164 -0.00902998 0)
(0.0603326 -0.00861847 0)
(0.0681878 -0.008076 0)
(0.0755424 -0.00754786 0)
(0.082345 -0.00692741 0)
(0.0885714 -0.00631771 0)
(0.0941901 -0.00565737 0)
(0.099194 -0.00500891 0)
(0.103574 -0.00434765 0)
(0.107339 -0.00370303 0)
(0.110496 -0.0030699 0)
(0.113062 -0.00245692 0)
(0.115051 -0.0018653 0)
(0.116477 -0.00129345 0)
(0.117348 -0.000742343 0)
(0.117673 -0.000208293 0)
(0.117485 0.000306177 0)
(0.116836 0.000815265 0)
(0.115738 0.00130555 0)
(0.114206 0.00180137 0)
(0.112248 0.00227352 0)
(0.109871 0.00276523 0)
(0.107068 0.0032257 0)
(0.103831 0.00371595 0)
(0.10015 0.00415835 0)
(0.0960374 0.00463355 0)
(0.0915051 0.00503968 0)
(0.0865771 0.0054737 0)
(0.0812779 0.0058195 0)
(0.0756499 0.00617818 0)
(0.0697118 0.00649552 0)
(0.0635278 0.00669773 0)
(0.0571473 0.00690105 0)
(0.0506251 0.00699421 0)
(0.0440119 0.0070982 0)
(0.0373396 0.00709117 0)
(0.0306654 0.007115 0)
(0.0240302 0.00702974 0)
(0.0174258 0.00696039 0)
(0.0109323 0.00685695 0)
(0.00457133 0.00672138 0)
(-0.00164286 0.00656282 0)
(-0.00769781 0.00640609 0)
(-0.0136162 0.00621497 0)
(-0.0193603 0.00602447 0)
(-0.0249217 0.00579613 0)
(-0.0302785 0.0055756 0)
(-0.0354138 0.00531484 0)
(-0.040323 0.00506494 0)
(-0.0449898 0.00479588 0)
(-0.0493845 0.00448566 0)
(-0.0534969 0.00419847 0)
(-0.0572862 0.00386909 0)
(-0.0607992 0.00355987 0)
(-0.063964 0.00322075 0)
(-0.066841 0.00291212 0)
(-0.069408 0.00256749 0)
(-0.0716659 0.00228163 0)
(-0.0736079 0.00192967 0)
(-0.0753035 0.00165301 0)
(-0.0766671 0.00129489 0)
(-0.0777187 0.00101445 0)
(-0.0785087 0.000643582 0)
(-0.0789202 0.000322335 0)
(-0.0790788 -6.21929e-05 0)
(-0.0787979 -0.000425874 0)
(-0.0781888 -0.000839298 0)
(-0.0772166 -0.00122451 0)
(-0.075842 -0.00169198 0)
(-0.0739465 -0.00217853 0)
(-0.0717743 -0.0026176 0)
(-0.0689449 -0.00318641 0)
(-0.0658165 -0.00361028 0)
(-0.0620677 -0.0042212 0)
(-0.0579829 -0.0046371 0)
(-0.0532849 -0.00525925 0)
(-0.0482139 -0.00565771 0)
(-0.0426005 -0.00622724 0)
(-0.036599 -0.00659425 0)
(-0.0301217 -0.00714798 0)
(-0.0233118 -0.00745749 0)
(-0.0160082 -0.00798972 0)
(-0.00842015 -0.0081722 0)
(-0.000502099 -0.00853352 0)
(0.00768848 -0.00877901 0)
(0.0159885 -0.00899118 0)
(0.024538 -0.00897404 0)
(0.0328682 -0.00898985 0)
(0.0414021 -0.00893192 0)
(0.0496618 -0.00876162 0)
(0.0578577 -0.00855094 0)
(0.0657183 -0.00818117 0)
(0.0732518 -0.00776871 0)
(0.0803213 -0.00721546 0)
(0.0868316 -0.00660588 0)
(0.0927342 -0.00587116 0)
(0.0978954 -0.00509684 0)
(0.102304 -0.00421351 0)
(0.105838 -0.00331166 0)
(0.108519 -0.00234327 0)
(0.110267 -0.00138347 0)
(0.111117 -0.000420745 0)
(0.111033 0.000518422 0)
(0.11011 0.00143063 0)
(0.108341 0.00227538 0)
(0.105813 0.00305657 0)
(0.102574 0.00376939 0)
(0.0987059 0.00440123 0)
(0.0942671 0.00495072 0)
(0.089366 0.00541999 0)
(0.0840694 0.0058187 0)
(0.0784348 0.00613223 0)
(0.0725459 0.00639321 0)
(0.0664336 0.00657848 0)
(0.0601773 0.00674419 0)
(0.0538071 0.00683999 0)
(0.0473295 0.00692927 0)
(0.0407965 0.00697328 0)
(0.0342268 0.00699789 0)
(0.0276568 0.00703171 0)
(0.0210484 0.00703511 0)
(0.0144518 0.00704381 0)
(0.00785001 0.00706732 0)
(0.00123681 0.00702984 0)
(-0.00535359 0.00699264 0)
(-0.011877 0.00694193 0)
(-0.0183795 0.00690482 0)
(-0.0247972 0.00679604 0)
(-0.0311333 0.00671694 0)
(-0.0374122 0.00660335 0)
(-0.0435121 0.00645477 0)
(-0.0495887 0.00635638 0)
(-0.0553781 0.00616314 0)
(-0.0611768 0.00603721 0)
(-0.0667632 0.00582197 0)
(-0.0720884 0.00557594 0)
(-0.0772695 0.0053193 0)
(-0.0821107 0.0051145 0)
(-0.0867227 0.00474766 0)
(-0.0911822 0.00468711 0)
(-0.0953795 0.00426402 0)
(-0.0993416 0.0039219 0)
(-0.102597 0.00336257 0)
(-0.105705 0.00312209 0)
(-0.108466 0.00260824 0)
(-0.110585 0.00214295 0)
(-0.112567 0.00177698 0)
(-0.113834 0.00119004 0)
(-0.114899 0.000848379 0)
(-0.115363 0.000246898 0)
(-0.115417 -0.000128819 0)
(-0.11504 -0.000696791 0)
(-0.11412 -0.00114106 0)
(-0.112895 -0.00163443 0)
(-0.111049 -0.00211537 0)
(-0.108877 -0.00257931 0)
(-0.10622 -0.0030606 0)
(-0.103101 -0.00355409 0)
(-0.0996513 -0.00398038 0)
(-0.0955326 -0.00448881 0)
(-0.0912061 -0.00479188 0)
(-0.0865813 -0.0052133 0)
(-0.0813707 -0.00567339 0)
(-0.0759922 -0.00599682 0)
(-0.0700246 -0.0065362 0)
(-0.0638273 -0.0068258 0)
(-0.057101 -0.00735838 0)
(-0.0500932 -0.00765995 0)
(-0.0426323 -0.00816872 0)
(-0.034832 -0.00850088 0)
(-0.0265658 -0.00910241 0)
(-0.0179412 -0.00935345 0)
(-0.00889539 -0.00981268 0)
(0.00054596 -0.0101138 0)
(0.0102068 -0.0105123 0)
(0.020124 -0.0106061 0)
(0.0301873 -0.0107704 0)
(0.0403538 -0.0106214 0)
(0.0503115 -0.0104346 0)
(0.0600639 -0.00970306 0)
(0.0689613 -0.00810575 0)
(0.0774424 -0.00546632 0)
(0.0829721 -0.00310676 0)