/*--------------------------------*- C++ -*----------------------------------*\
| =========                 |                                                 |
| \\      /  F ield         | OpenFOAM: The Open Source CFD Toolbox           |
|  \\    /   O peration     | Version:  3.0.1                                 |
|   \\  /    A nd           | Web:      www.OpenFOAM.org                      |
|    \\/     M anipulation  |                                                 |
\*---------------------------------------------------------------------------*/
FoamFile
{
    version     2.0;
    format      ascii;
    class       surfaceScalarField;
    location    "23.4";
    object      phi;
}
// * * * * * * * * * * * * * * * * * * * * * * * * * * * * * * * * * * * * * //

dimensions      [0 3 -1 0 0 0 0];

internalField   nonuniform List<scalar> 
44922
(
-0.00032392
-2.44975e-05
-0.000297916
-2.60039e-05
-0.000271551
-2.63651e-05
-0.000244345
-2.7206e-05
-0.000217166
-2.71792e-05
-0.000189595
-2.75709e-05
-0.000162546
-2.70489e-05
-0.000135703
-2.68427e-05
-0.000109889
-2.58141e-05
-8.49151e-05
-2.49742e-05
-6.141e-05
-2.3505e-05
-3.94438e-05
-2.19662e-05
-1.96718e-05
-1.9772e-05
-2.29044e-06
-1.73814e-05
1.21527e-05
-1.44432e-05
2.35482e-05
-1.13955e-05
3.1553e-05
-8.00472e-06
3.60015e-05
-4.44857e-06
3.67321e-05
-7.30606e-07
3.40353e-05
2.69679e-06
2.79658e-05
6.06952e-06
1.84572e-05
9.50856e-06
6.19832e-06
1.22589e-05
-7.86226e-06
1.40606e-05
-2.52657e-05
1.74035e-05
-4.53226e-05
2.00568e-05
-6.67005e-05
2.1378e-05
-8.99301e-05
2.32295e-05
-0.000113561
2.36305e-05
-0.000138113
2.45527e-05
-0.000162255
2.41415e-05
-0.000186449
2.41945e-05
-0.000209589
2.314e-05
-0.000232106
2.25164e-05
-0.000253611
2.15054e-05
-0.000273511
1.98995e-05
-0.000292077
1.85667e-05
-0.000308925
1.68472e-05
-0.000324288
1.5363e-05
-0.000337963
1.36751e-05
-0.00035014
1.21778e-05
-0.000360738
1.05971e-05
-0.000369898
9.1606e-06
-0.00037761
7.71182e-06
-0.000383988
6.37765e-06
-0.000389077
5.08897e-06
-0.000393047
3.96999e-06
-0.000396068
3.02133e-06
-0.000397867
1.79901e-06
-0.000398152
2.85182e-07
-0.000396659
-1.49338e-06
-0.000394072
-2.58687e-06
-0.000390405
-3.66673e-06
-0.000385512
-4.89376e-06
-0.000379353
-6.15853e-06
-0.000371894
-7.4586e-06
-0.000363077
-8.81701e-06
-0.000352877
-1.02008e-05
-0.000341208
-1.16686e-05
-0.000328102
-1.3106e-05
-0.000313509
-1.45928e-05
-0.000297684
-1.5825e-05
-0.000280718
-1.69658e-05
-0.000262733
-1.79856e-05
-0.000243493
-1.92399e-05
-0.00022327
-2.02228e-05
-0.000201856
-2.14137e-05
-0.000179723
-2.21331e-05
-0.000156575
-2.31482e-05
-0.000133176
-2.33989e-05
-0.00010973
-2.34457e-05
-8.58314e-05
-2.38989e-05
-6.2684e-05
-2.31474e-05
-3.98085e-05
-2.28754e-05
-1.87315e-05
-2.1077e-05
1.16389e-06
-1.98953e-05
1.77327e-05
-1.65687e-05
3.13704e-05
-1.36377e-05
4.03663e-05
-8.99584e-06
4.47629e-05
-4.39658e-06
4.24224e-05
2.34056e-06
3.24001e-05
1.00224e-05
1.35614e-05
1.88387e-05
-1.51262e-05
2.86876e-05
-4.98352e-05
3.47091e-05
-9.00758e-05
4.02407e-05
-0.000135585
4.55092e-05
-0.000183871
4.82858e-05
-0.000234328
5.04575e-05
-0.000284421
5.00925e-05
-0.000332378
4.79571e-05
-0.000376949
4.4571e-05
-0.000416944
3.99953e-05
-0.000451826
3.48819e-05
-0.000481307
2.94813e-05
-0.000505265
2.39581e-05
-0.000524138
1.88731e-05
-0.000538009
1.38712e-05
-0.000547791
9.78209e-06
-0.000553949
6.15741e-06
-0.000557484
3.53521e-06
-0.000558492
1.00826e-06
-0.000557113
-1.37889e-06
-0.000553618
-3.49469e-06
-0.000548578
-5.04031e-06
-0.000542706
-5.8716e-06
-0.00053572
-6.98658e-06
-0.000528691
-7.02831e-06
-0.000520987
-7.70474e-06
-0.000513581
-7.40522e-06
-0.000505989
-7.59194e-06
-0.000498704
-7.28555e-06
-0.000491539
-7.16513e-06
-0.000484735
-6.80328e-06
-0.000478232
-6.50336e-06
-0.000472067
-6.16495e-06
-0.000466272
-5.79513e-06
-0.000460714
-5.55743e-06
-0.000455378
-5.33654e-06
-0.000450247
-5.13043e-06
-0.000445133
-5.11393e-06
-0.000440169
-4.96403e-06
-0.000434909
-5.25978e-06
-0.000429604
-5.3055e-06
-0.000423837
-5.76626e-06
-0.000417804
-6.03303e-06
-0.00041111
-6.69419e-06
-0.000403894
-7.21592e-06
-0.000395814
-8.07994e-06
-0.000387071
-8.74268e-06
-0.000377193
-9.87847e-06
-0.000366426
-1.07666e-05
-0.0003542
-1.22261e-05
-0.000340833
-1.33673e-05
-0.000325722
-1.51102e-05
-0.000309136
-1.65867e-05
-0.000290646
-1.84892e-05
-0.000270455
-2.01908e-05
-0.000248285
-2.217e-05
-0.000224376
-2.39092e-05
-0.000198785
-2.55906e-05
-0.00017193
-2.6855e-05
-0.000144048
-2.78818e-05
-0.000115576
-2.8472e-05
-8.68464e-05
-2.87297e-05
-5.85282e-05
-2.8318e-05
-3.10844e-05
-2.74437e-05
-5.14901e-06
-2.59353e-05
1.86595e-05
-2.38084e-05
3.99412e-05
-2.12816e-05
5.80304e-05
-1.80891e-05
7.25399e-05
-1.45094e-05
8.32088e-05
-1.06688e-05
8.97314e-05
-6.5225e-06
9.20459e-05
-2.31446e-06
9.01916e-05
1.8544e-06
8.43907e-05
5.80087e-06
7.49707e-05
9.42011e-06
6.23948e-05
1.2576e-05
4.70179e-05
1.5377e-05
2.95074e-05
1.75105e-05
1.03321e-05
1.91754e-05
-9.95554e-06
2.02876e-05
-3.09669e-05
2.10114e-05
-5.20978e-05
2.1131e-05
-7.2971e-05
2.08732e-05
-9.31857e-05
2.02148e-05
-0.000112513
1.93277e-05
-0.000130743
1.82295e-05
-0.000147781
1.70387e-05
-0.000163489
1.57074e-05
-0.000177794
1.43046e-05
-0.000190654
1.2861e-05
-0.000202053
1.13981e-05
-0.000212091
1.00381e-05
-0.000220855
8.76483e-06
-0.000228427
7.57126e-06
-0.000234846
6.41965e-06
-0.000240229
5.38309e-06
-0.000244747
4.51723e-06
-0.000248484
3.73771e-06
-0.00025152
3.03544e-06
-0.000253985
2.4652e-06
-0.000256019
2.03367e-06
-0.000257751
1.73229e-06
-0.000259229
1.47818e-06
-0.000260498
1.26934e-06
-0.000261613
1.11423e-06
-0.000262653
1.04028e-06
-0.000263616
9.63022e-07
-0.000264456
8.40144e-07
-0.00026528
8.23543e-07
-0.000265896
6.16637e-07
-0.000266393
4.96409e-07
-0.000266624
2.31263e-07
-0.00026672
9.61912e-08
-0.000266531
-1.89079e-07
-0.000266213
-3.17795e-07
-0.000265674
-5.39185e-07
-0.000265041
-6.32816e-07
-0.000264303
-7.38244e-07
-0.000263186
-1.11706e-06
-0.000262076
-1.11034e-06
-0.000260557
-1.51803e-06
-0.000258924
-1.63329e-06
-0.00025713
-1.79441e-06
-0.000255116
-2.01423e-06
-0.000252903
-2.2124e-06
-0.000250546
-2.35675e-06
-0.000247897
-2.64986e-06
-0.000245071
-2.82503e-06
-0.000242017
-3.05455e-06
-0.00023845
-3.5672e-06
-0.000234309
-4.1403e-06
-0.00022909
-5.21891e-06
-0.000222953
-6.13742e-06
-0.000215425
-7.52759e-06
-0.000207862
-7.56296e-06
-0.000202355
-5.50783e-06
-0.000200614
-1.74019e-06
-0.000200996
3.81529e-07
-0.00020074
-2.56378e-07
-0.000195291
-5.44827e-06
-0.000182522
-1.27691e-05
-2.81402e-05
-0.000154382
-0.00032397
-4.8999e-05
-0.000297953
-5.20211e-05
-0.000271576
-5.27424e-05
-0.000244356
-5.44259e-05
-0.000217164
-5.43711e-05
-0.00018958
-5.51552e-05
-0.000162518
-5.41102e-05
-0.00013566
-5.37007e-05
-0.000109831
-5.16431e-05
-8.48393e-05
-4.99661e-05
-6.13155e-05
-4.70287e-05
-3.9328e-05
-4.39538e-05
-1.95366e-05
-3.95634e-05
-2.147e-06
-3.47709e-05
1.2329e-05
-2.89192e-05
2.37391e-05
-2.28056e-05
3.17555e-05
-1.60211e-05
3.62103e-05
-8.90338e-06
3.69445e-05
-1.46479e-06
3.42447e-05
5.39658e-06
2.817e-05
1.21442e-05
1.86512e-05
1.90274e-05
6.3834e-06
2.45266e-05
-7.72586e-06
2.81698e-05
-2.51455e-05
3.48231e-05
-4.52224e-05
4.01337e-05
-6.66225e-05
4.27781e-05
-8.98765e-05
4.64834e-05
-0.00011353
4.72839e-05
-0.000138106
4.91283e-05
-0.000162268
4.83034e-05
-0.000186481
4.84078e-05
-0.000209636
4.62956e-05
-0.000232166
4.50458e-05
-0.000253681
4.30207e-05
-0.000273587
3.98056e-05
-0.000292158
3.71373e-05
-0.000309007
3.36959e-05
-0.000324369
3.07259e-05
-0.000338043
2.73487e-05
-0.000350219
2.43533e-05
-0.000360813
2.11911e-05
-0.000369969
1.83174e-05
-0.000377676
1.54185e-05
-0.000384045
1.27468e-05
-0.000389116
1.01599e-05
-0.000393035
7.88824e-06
-0.000395972
5.95833e-06
-0.000397702
3.52881e-06
-0.000397988
5.71951e-07
-0.000396613
-2.8688e-06
-0.000394107
-5.09334e-06
-0.000390452
-7.32173e-06
-0.000385562
-9.78339e-06
-0.000379407
-1.23137e-05
-0.000371952
-1.49135e-05
-0.000363139
-1.76299e-05
-0.000352942
-2.03975e-05
-0.000341278
-2.33331e-05
-0.000328175
-2.62087e-05
-0.000313585
-2.91829e-05
-0.00029776
-3.16499e-05
-0.000280794
-3.3932e-05
-0.000262807
-3.59725e-05
-0.000243566
-3.84808e-05
-0.000223341
-4.0448e-05
-0.000201925
-4.28298e-05
-0.000179788
-4.42705e-05
-0.000156634
-4.63022e-05
-0.000133227
-4.68057e-05
-0.00010977
-4.69024e-05
-8.58551e-05
-4.78137e-05
-6.26864e-05
-4.6316e-05
-3.97843e-05
-4.57773e-05
-1.86616e-05
-4.21996e-05
1.25511e-06
-3.9812e-05
1.78761e-05
-3.31896e-05
3.15665e-05
-2.7328e-05
4.06109e-05
-1.80401e-05
4.50542e-05
-8.83977e-06
4.277e-05
4.6248e-06
3.27867e-05
2.00058e-05
1.39732e-05
3.76524e-05
-1.46732e-05
5.73341e-05
-4.94599e-05
6.94959e-05
-8.97808e-05
8.05617e-05
-0.000135391
9.11193e-05
-0.00018379
9.6685e-05
-0.000234366
0.000101034
-0.000284569
0.000100295
-0.000332616
9.60048e-05
-0.000377256
8.9211e-05
-0.000417304
8.00437e-05
-0.000452226
6.98032e-05
-0.000481725
5.89805e-05
-0.000505692
4.79258e-05
-0.000524593
3.77736e-05
-0.000538472
2.77507e-05
-0.000548278
1.95885e-05
-0.000554416
1.22946e-05
-0.000557867
6.98629e-06
-0.000558705
1.84667e-06
-0.00055728
-2.80334e-06
-0.000553744
-7.03077e-06
-0.00054868
-1.01041e-05
-0.000542793
-1.1759e-05
-0.000535791
-1.39891e-05
-0.000528743
-1.40757e-05
-0.000521026
-1.54217e-05
-0.000513611
-1.48198e-05
-0.000506023
-1.51803e-05
-0.000498731
-1.4577e-05
-0.000491569
-1.43278e-05
-0.000484756
-1.36159e-05
-0.000478252
-1.30071e-05
-0.000472095
-1.23224e-05
-0.000466307
-1.15829e-05
-0.000460755
-1.11087e-05
-0.000455415
-1.06772e-05
-0.000450291
-1.02541e-05
-0.000445187
-1.0218e-05
-0.000440211
-9.93958e-06
-0.000434976
-1.04944e-05
-0.000429674
-1.0608e-05
-0.000423909
-1.15313e-05
-0.000417878
-1.20637e-05
-0.000411184
-1.33876e-05
-0.00040398
-1.44203e-05
-0.000395901
-1.61583e-05
-0.000387164
-1.748e-05
-0.000377292
-1.97506e-05
-0.000366532
-2.15259e-05
-0.000354315
-2.4443e-05
-0.000340956
-2.67268e-05
-0.00032585
-3.02154e-05
-0.000309269
-3.31681e-05
-0.000290777
-3.69809e-05
-0.000270587
-4.03802e-05
-0.000248391
-4.43661e-05
-0.000224498
-4.78017e-05
-0.000198894
-5.11942e-05
-0.000172008
-5.37411e-05
-0.000144103
-5.57868e-05
-0.00011559
-5.6985e-05
-8.68467e-05
-5.74726e-05
-5.84781e-05
-5.66865e-05
-3.10103e-05
-5.49113e-05
-5.03793e-06
-5.19076e-05
1.88027e-05
-4.76489e-05
4.01171e-05
-4.25958e-05
5.82275e-05
-3.61993e-05
7.27518e-05
-2.90335e-05
8.34334e-05
-2.13504e-05
8.99624e-05
-1.30513e-05
9.22772e-05
-4.62915e-06
9.04036e-05
3.7281e-06
8.45775e-05
1.16272e-05
7.51356e-05
1.88621e-05
6.25323e-05
2.51793e-05
4.71207e-05
3.07887e-05
2.95844e-05
3.50469e-05
1.03615e-05
3.83984e-05
-9.94896e-06
4.05982e-05
-3.09866e-05
4.20491e-05
-5.21487e-05
4.22932e-05
-7.30434e-05
4.1768e-05
-9.32799e-05
4.04513e-05
-0.000112615
3.86627e-05
-0.000130852
3.64671e-05
-0.000147899
3.4085e-05
-0.000163607
3.14156e-05
-0.000177915
2.86125e-05
-0.000190769
2.57153e-05
-0.000202161
2.27904e-05
-0.000212194
2.00707e-05
-0.000220954
1.75257e-05
-0.000228523
1.51401e-05
-0.000234937
1.28334e-05
-0.000240305
1.07513e-05
-0.000244807
9.01888e-06
-0.000248538
7.46943e-06
-0.000251575
6.07254e-06
-0.000254039
4.9287e-06
-0.000256068
4.06318e-06
-0.000257798
3.46204e-06
-0.00025927
2.9498e-06
-0.000260534
2.53354e-06
-0.000261645
2.22524e-06
-0.000262681
2.07646e-06
-0.000263645
1.92677e-06
-0.000264489
1.6845e-06
-0.000265311
1.64498e-06
-0.000265928
1.23427e-06
-0.000266425
9.9355e-07
-0.000266648
4.53549e-07
-0.000266746
1.94455e-07
-0.000266562
-3.73029e-07
-0.000266254
-6.25397e-07
-0.000265715
-1.07822e-06
-0.000265065
-1.28271e-06
-0.000264323
-1.48103e-06
-0.000263216
-2.22341e-06
-0.000262104
-2.22238e-06
-0.000260582
-3.04046e-06
-0.000258945
-3.2697e-06
-0.000257144
-3.59604e-06
-0.000255124
-4.03439e-06
-0.000252911
-4.42491e-06
-0.000250551
-4.71682e-06
-0.000247903
-5.2976e-06
-0.000245084
-5.64436e-06
-0.000242044
-6.09445e-06
-0.000238505
-7.10659e-06
-0.000234433
-8.21138e-06
-0.000229267
-1.03853e-05
-0.000223022
-1.23821e-05
-0.000214932
-1.56177e-05
-0.000206138
-1.63572e-05
-0.000197828
-1.38177e-05
-0.00019178
-7.78788e-06
-0.000187235
-4.16374e-06
-0.000181528
-5.9631e-06
-0.000170788
-1.61884e-05
-0.000155513
-2.80444e-05
-5.48442e-05
-0.000128809
-0.00032406
-7.35191e-05
-0.000298021
-7.80602e-05
-0.000271619
-7.91446e-05
-0.000244371
-8.16735e-05
-0.000217155
-8.15879e-05
-0.000189543
-8.27664e-05
-0.000162458
-8.11955e-05
-0.00013557
-8.05891e-05
-0.000109711
-7.75017e-05
-8.46842e-05
-7.49929e-05
-6.1124e-05
-7.05889e-05
-3.90946e-05
-6.59831e-05
-1.92651e-05
-5.9393e-05
-1.89145e-06
-5.21445e-05
1.2688e-05
-4.34986e-05
2.41194e-05
-3.4237e-05
3.21585e-05
-2.40603e-05
3.66282e-05
-1.33731e-05
3.73729e-05
-2.20951e-06
3.46605e-05
8.10901e-06
2.85762e-05
1.82285e-05
1.9038e-05
2.85655e-05
6.75529e-06
3.68093e-05
-7.45639e-06
4.23815e-05
-2.49065e-05
5.22731e-05
-4.50249e-05
6.02521e-05
-6.64707e-05
6.42239e-05
-8.97748e-05
6.97875e-05
-0.000113475
7.09844e-05
-0.000138098
7.37512e-05
-0.000162302
7.25072e-05
-0.000186554
7.26598e-05
-0.000209741
6.94832e-05
-0.000232298
6.76019e-05
-0.000253833
6.45564e-05
-0.000273753
5.97253e-05
-0.000292332
5.5716e-05
-0.000309184
5.05482e-05
-0.000324547
4.60887e-05
-0.000338218
4.10198e-05
-0.000350389
3.65242e-05
-0.000360977
3.17794e-05
-0.000370127
2.74669e-05
-0.000377823
2.31152e-05
-0.000384176
1.90999e-05
-0.000389215
1.51983e-05
-0.000393044
1.17176e-05
-0.00039574
8.65394e-06
-0.000397209
4.998e-06
-0.000397518
8.80989e-07
-0.000396502
-3.88485e-06
-0.000394193
-7.40277e-06
-0.000390558
-1.09563e-05
-0.000385675
-1.46661e-05
-0.000379527
-1.84625e-05
-0.000372079
-2.23613e-05
-0.000363274
-2.64353e-05
-0.000353084
-3.05866e-05
-0.000341427
-3.49903e-05
-0.000328331
-3.93053e-05
-0.000313745
-4.37685e-05
-0.00029792
-4.74753e-05
-0.000280952
-5.08999e-05
-0.000262961
-5.39631e-05
-0.000243717
-5.7725e-05
-0.000223485
-6.06796e-05
-0.000202063
-6.42521e-05
-0.000179915
-6.64178e-05
-0.000156749
-6.9469e-05
-0.000133325
-7.02293e-05
-0.000109845
-7.03818e-05
-8.58987e-05
-7.17603e-05
-6.26877e-05
-6.95269e-05
-3.97321e-05
-6.87328e-05
-1.84949e-05
-6.34367e-05
1.43751e-06
-5.97442e-05
1.81575e-05
-4.99095e-05
3.195e-05
-4.11203e-05
4.10903e-05
-2.71804e-05
4.56224e-05
-1.33717e-05
4.34515e-05
6.79584e-06
3.35517e-05
2.99056e-05
1.47823e-05
5.64219e-05
-1.37872e-05
8.59037e-05
-4.87322e-05
0.000104441
-8.92127e-05
0.000121042
-0.00013502
0.000136927
-0.000183637
0.000145302
-0.000234444
0.00015184
-0.000284861
0.000150713
-0.000333089
0.000144233
-0.000377862
0.000133984
-0.000417998
0.000120179
-0.000452976
0.000104782
-0.000482515
8.85201e-05
-0.000506548
7.19588e-05
-0.000525572
5.6797e-05
-0.000539563
4.17418e-05
-0.000549518
2.95441e-05
-0.000555686
1.84626e-05
-0.000558899
1.01994e-05
-0.000559222
2.16972e-06
-0.000557557
-4.46799e-06
-0.000553943
-1.06448e-05
-0.000548833
-1.52137e-05
-0.000542914
-1.76788e-05
-0.000535881
-2.10217e-05
-0.000528811
-2.11456e-05
-0.000521073
-2.31594e-05
-0.000513629
-2.22643e-05
-0.000506043
-2.27661e-05
-0.000498743
-2.18771e-05
-0.000491574
-2.14961e-05
-0.000484746
-2.04438e-05
-0.000478241
-1.9512e-05
-0.000472089
-1.84751e-05
-0.000466303
-1.73689e-05
-0.000460776
-1.66349e-05
-0.000455437
-1.60165e-05
-0.000450313
-1.53775e-05
-0.000445224
-1.53076e-05
-0.000440272
-1.48914e-05
-0.000435037
-1.5729e-05
-0.000429748
-1.58972e-05
-0.000424
-1.72795e-05
-0.00041797
-1.80931e-05
-0.000411278
-2.00796e-05
-0.000404099
-2.15988e-05
-0.000396026
-2.42321e-05
-0.000387295
-2.621e-05
-0.000377444
-2.96023e-05
-0.0003667
-3.22692e-05
-0.0003545
-3.66426e-05
-0.000341156
-4.00712e-05
-0.00032607
-4.53008e-05
-0.000309506
-4.97325e-05
-0.000291004
-5.54822e-05
-0.000270789
-6.05958e-05
-0.000248577
-6.65779e-05
-0.000224692
-7.16866e-05
-0.000199098
-7.67872e-05
-0.000172165
-8.06746e-05
-0.000144207
-8.37439e-05
-0.000115617
-8.55749e-05
-8.68371e-05
-8.62526e-05
-5.83853e-05
-8.51381e-05
-3.08665e-05
-8.24299e-05
-4.8235e-06
-7.79504e-05
1.91094e-05
-7.15817e-05
4.04614e-05
-6.39477e-05
5.86166e-05
-5.43544e-05
7.31928e-05
-4.36096e-05
8.38743e-05
-3.20317e-05
9.04107e-05
-1.95876e-05
9.27158e-05
-6.93415e-06
9.08203e-05
5.62367e-06
8.49659e-05
1.74817e-05
7.54757e-05
2.83524e-05
6.28135e-05
3.78416e-05
4.7362e-05
4.62404e-05
2.97663e-05
5.26426e-05
1.04658e-05
5.76989e-05
-9.90919e-06
6.09732e-05
-3.09947e-05
6.31347e-05
-5.22158e-05
6.35143e-05
-7.31547e-05
6.2707e-05
-9.34227e-05
6.07193e-05
-0.000112774
5.80143e-05
-0.000131024
5.47171e-05
-0.000148078
5.11389e-05
-0.00016379
4.71276e-05
-0.000178102
4.29239e-05
-0.000190947
3.8561e-05
-0.000202328
3.41707e-05
-0.00021234
3.00836e-05
-0.000221096
2.62812e-05
-0.00022866
2.2704e-05
-0.000235065
1.92384e-05
-0.00024042
1.61061e-05
-0.000244889
1.34881e-05
-0.000248609
1.11896e-05
-0.000251646
9.10961e-06
-0.000254103
7.38552e-06
-0.000256121
6.08138e-06
-0.000257845
5.1858e-06
-0.000259312
4.41652e-06
-0.000260565
3.78655e-06
-0.000261666
3.32651e-06
-0.000262703
3.11328e-06
-0.000263662
2.88621e-06
-0.000264513
2.53585e-06
-0.000265337
2.46847e-06
-0.000265964
1.86156e-06
-0.00026647
1.49959e-06
-0.000266675
6.58351e-07
-0.000266757
2.76679e-07
-0.000266588
-5.4265e-07
-0.000266316
-8.97006e-07
-0.000265798
-1.59651e-06
-0.000265115
-1.96509e-06
-0.000264349
-2.24729e-06
-0.000263257
-3.31569e-06
-0.000262164
-3.31477e-06
-0.000260636
-4.56848e-06
-0.000258993
-4.91303e-06
-0.000257175
-5.41398e-06
-0.000255133
-6.07679e-06
-0.00025292
-6.63718e-06
-0.000250575
-7.0626e-06
-0.000247935
-7.93698e-06
-0.000245125
-8.4543e-06
-0.000242089
-9.13045e-06
-0.000238554
-1.06416e-05
-0.00023452
-1.22452e-05
-0.000229397
-1.55089e-05
-0.000223229
-1.85497e-05
-0.00021516
-2.36867e-05
-0.000206128
-2.53887e-05
-0.000197074
-2.28718e-05
-0.000189561
-1.5301e-05
-0.000183447
-1.02777e-05
-0.000177305
-1.21052e-05
-0.000167358
-2.61351e-05
-0.000150022
-4.53801e-05
-8.29367e-05
-0.00012193
-0.0003242
-9.8063e-05
-0.000298128
-0.000104132
-0.000271692
-0.000105581
-0.000244405
-0.00010896
-0.000217151
-0.000108842
-0.000189497
-0.00011042
-0.000162372
-0.00010832
-0.000135436
-0.000107525
-0.000109532
-0.000103406
-8.44518e-05
-0.000100073
-6.08363e-05
-9.42043e-05
-3.87439e-05
-8.80755e-05
-1.8855e-05
-7.92818e-05
-1.45018e-06
-6.95494e-05
1.32207e-05
-5.81695e-05
2.46969e-05
-4.57132e-05
3.27619e-05
-3.21253e-05
3.72591e-05
-1.78703e-05
3.80099e-05
-2.96027e-06
3.52839e-05
1.08349e-05
2.91853e-05
2.43271e-05
1.9622e-05
3.81288e-05
7.30703e-06
4.91243e-05
-7.05819e-06
5.67467e-05
-2.45472e-05
6.97621e-05
-4.47283e-05
8.04332e-05
-6.62428e-05
8.57383e-05
-8.96222e-05
9.3167e-05
-0.000113394
9.47557e-05
-0.000138087
9.84449e-05
-0.000162354
9.67737e-05
-0.000186664
9.69699e-05
-0.000209899
9.27186e-05
-0.000232496
9.01979e-05
-0.000254062
8.61227e-05
-0.000274002
7.96654e-05
-0.000292593
7.43068e-05
-0.00030945
6.74057e-05
-0.000324813
6.14514e-05
-0.00033848
5.46869e-05
-0.000350644
4.86884e-05
-0.000361224
4.2359e-05
-0.000370363
3.66057e-05
-0.000378046
3.07981e-05
-0.000384378
2.54321e-05
-0.000389379
2.0199e-05
-0.000393118
1.54565e-05
-0.000395569
1.11048e-05
-0.000396922
6.3515e-06
-0.000397421
1.37974e-06
-0.000396616
-4.68979e-06
-0.000394336
-9.68315e-06
-0.000390719
-1.45728e-05
-0.000385846
-1.95396e-05
-0.000379706
-2.46019e-05
-0.000372269
-2.97986e-05
-0.000363475
-3.52292e-05
-0.000353297
-4.07643e-05
-0.000341651
-4.66366e-05
-0.000328564
-5.2393e-05
-0.000313985
-5.83474e-05
-0.000298158
-6.33017e-05
-0.000281188
-6.78704e-05
-0.000263192
-7.19594e-05
-0.000243942
-7.69741e-05
-0.000223701
-8.09207e-05
-0.00020227
-8.56837e-05
-0.000180108
-8.85798e-05
-0.000156921
-9.26553e-05
-0.000133473
-9.36774e-05
-0.000109959
-9.38959e-05
-8.59651e-05
-9.57542e-05
-6.26911e-05
-9.28008e-05
-3.96516e-05
-9.17722e-05
-1.82817e-05
-8.48065e-05
1.71555e-06
-7.97414e-05
1.85842e-05
-6.6778e-05
3.25301e-05
-5.50661e-05
4.18143e-05
-3.64644e-05
4.64792e-05
-1.80366e-05
4.44747e-05
8.8005e-06
3.47006e-05
3.96798e-05
1.60009e-05
7.51217e-05
-1.242e-05
0.000114325
-4.76286e-05
0.00013965
-8.83439e-05
0.000161758
-0.000134447
0.000183031
-0.000183397
0.000194252
-0.00023454
0.000202983
-0.000285269
0.000201442
-0.000333753
0.000192716
-0.000378724
0.000178956
-0.00041897
0.000160425
-0.000454019
0.00013983
-0.00048363
0.000118131
-0.000507676
9.60051e-05
-0.000526764
7.58844e-05
-0.000540888
5.58664e-05
-0.000550856
3.95123e-05
-0.000556974
2.458e-05
-0.000560002
1.32279e-05
-0.000559873
2.04034e-06
-0.000557947
-6.39409e-06
-0.000554227
-1.43647e-05
-0.000549049
-2.03913e-05
-0.000543088
-2.36402e-05
-0.000536009
-2.81e-05
-0.000528902
-2.82523e-05
-0.000521143
-3.09187e-05
-0.00051365
-2.97575e-05
-0.000506054
-3.03618e-05
-0.000498736
-2.91952e-05
-0.000491559
-2.86725e-05
-0.000484754
-2.72487e-05
-0.000478216
-2.60499e-05
-0.000472065
-2.4626e-05
-0.000466284
-2.31505e-05
-0.000460789
-2.21297e-05
-0.000455458
-2.13476e-05
-0.000450358
-2.04772e-05
-0.000445266
-2.03996e-05
-0.000440326
-1.98306e-05
-0.0004351
-2.09551e-05
-0.000429826
-2.11709e-05
-0.000424127
-2.29791e-05
-0.000418106
-2.41132e-05
-0.000411408
-2.67779e-05
-0.000404275
-2.87318e-05
-0.000396209
-3.22977e-05
-0.000387486
-3.49332e-05
-0.000377668
-3.94197e-05
-0.000366938
-4.29993e-05
-0.000354765
-4.88153e-05
-0.000341443
-5.3393e-05
-0.000326387
-6.03571e-05
-0.000309853
-6.62664e-05
-0.000291336
-7.39992e-05
-0.000271101
-8.08299e-05
-0.00024889
-8.8789e-05
-0.000224978
-9.5598e-05
-0.000199366
-0.000102399
-0.000172409
-0.000107632
-0.000144392
-0.000111761
-0.000115679
-0.000114288
-8.68363e-05
-0.000115095
-5.8262e-05
-0.000113712
-3.06511e-05
-0.000110041
-4.49612e-06
-0.000104105
1.95524e-05
-9.56301e-05
4.09712e-05
-8.53663e-05
5.91988e-05
-7.25819e-05
7.3855e-05
-5.82656e-05
8.45364e-05
-4.2713e-05
9.10754e-05
-2.61265e-05
9.33572e-05
-9.21585e-06
9.14438e-05
7.53717e-06
8.55502e-05
2.33755e-05
7.59859e-05
3.79168e-05
6.32327e-05
5.05949e-05
4.77266e-05
6.17465e-05
3.00363e-05
7.03331e-05
1.06259e-05
7.71094e-05
-9.83998e-06
8.14392e-05
-3.10003e-05
8.4295e-05
-5.23031e-05
8.48172e-05
-7.33148e-05
8.37188e-05
-9.36225e-05
8.10271e-05
-0.000113009
7.74006e-05
-0.000131269
7.29775e-05
-0.000148323
6.81926e-05
-0.000164047
6.28517e-05
-0.000178376
5.72532e-05
-0.000191223
5.14076e-05
-0.000202586
4.55342e-05
-0.000212564
4.00619e-05
-0.000221311
3.5028e-05
-0.000228867
3.02599e-05
-0.000235261
2.56328e-05
-0.000240599
2.14443e-05
-0.000245035
1.79241e-05
-0.000248731
1.4885e-05
-0.000251766
1.21453e-05
-0.000254198
9.81765e-06
-0.000256189
8.07173e-06
-0.000257923
6.92034e-06
-0.000259368
5.86091e-06
-0.000260605
5.02426e-06
-0.000261697
4.41836e-06
-0.000262739
4.1555e-06
-0.000263688
3.83512e-06
-0.000264524
3.37196e-06
-0.000265368
3.31229e-06
-0.000266007
2.49987e-06
-0.000266525
2.0176e-06
-0.000266718
8.52274e-07
-0.000266755
3.13396e-07
-0.000266599
-6.99024e-07
-0.000266394
-1.10226e-06
-0.000265912
-2.07838e-06
-0.000265187
-2.68953e-06
-0.000264369
-3.06518e-06
-0.000263284
-4.40061e-06
-0.000262234
-4.36556e-06
-0.000260692
-6.11021e-06
-0.000259054
-6.55081e-06
-0.000257239
-7.22929e-06
-0.000255148
-8.16712e-06
-0.000252945
-8.84045e-06
-0.000250627
-9.38077e-06
-0.000247985
-1.05787e-05
-0.000245211
-1.12283e-05
-0.000242159
-1.21828e-05
-0.000238649
-1.41514e-05
-0.000234687
-1.62073e-05
-0.000229621
-2.05746e-05
-0.000223445
-2.47253e-05
-0.000215185
-3.19471e-05
-0.000205776
-3.47977e-05
-0.00019633
-3.23174e-05
-0.000188306
-2.33257e-05
-0.000181856
-1.67277e-05
-0.00017606
-1.79013e-05
-0.00016665
-3.55445e-05
-0.000151577
-6.04539e-05
-0.000104498
-0.000130015
-0.000324397
-0.000122628
-0.00029828
-0.000130248
-0.000271803
-0.000132058
-0.000244466
-0.000136298
-0.000217161
-0.000136147
-0.000189446
-0.000138135
-0.000162264
-0.000135502
-0.000135262
-0.000134528
-0.000109294
-0.000129374
-8.41419e-05
-0.000125225
-6.0452e-05
-0.000117894
-3.82751e-05
-0.000110252
-1.83048e-05
-9.9252e-05
-7.73035e-07
-8.70812e-05
1.39364e-05
-7.2879e-05
2.54593e-05
-5.7236e-05
3.35697e-05
-4.02357e-05
3.80912e-05
-2.23918e-05
3.88487e-05
-3.71772e-06
3.61188e-05
1.35648e-05
2.99971e-05
3.04488e-05
2.03955e-05
4.77303e-05
8.02824e-06
6.14916e-05
-6.53749e-06
7.13124e-05
-2.40666e-05
8.72913e-05
-4.43323e-05
0.000100699
-6.59387e-05
0.000107345
-8.94189e-05
0.000116647
-0.000113285
0.000118621
-0.000138073
0.000123233
-0.000162424
0.000121124
-0.000186811
0.000121358
-0.000210111
0.000116018
-0.00023276
0.000112847
-0.000254368
0.00010773
-0.000274335
9.96327e-05
-0.000292942
9.29137e-05
-0.000309806
8.42702e-05
-0.000325169
7.68139e-05
-0.000338831
6.83488e-05
-0.000350986
6.08436e-05
-0.000361554
5.29276e-05
-0.00037068
4.57316e-05
-0.000378348
3.84658e-05
-0.000384661
3.17452e-05
-0.000389635
2.51729e-05
-0.000393328
1.91493e-05
-0.0003957
1.34766e-05
-0.000397026
7.67762e-06
-0.000397577
1.93088e-06
-0.000396816
-5.45121e-06
-0.000394538
-1.19609e-05
-0.000390935
-1.81753e-05
-0.000386073
-2.44022e-05
-0.000379946
-3.07291e-05
-0.000372522
-3.72219e-05
-0.000363744
-4.40078e-05
-0.000353581
-5.09267e-05
-0.00034195
-5.82681e-05
-0.000328874
-6.54685e-05
-0.000314305
-7.29173e-05
-0.000298477
-7.91291e-05
-0.000281503
-8.48445e-05
-0.000263499
-8.99633e-05
-0.000244243
-9.62297e-05
-0.00022399
-0.000101174
-0.000202546
-0.000107127
-0.000180365
-0.000110761
-0.000157153
-0.000115867
-0.000133673
-0.000117158
-0.000110113
-0.000117456
-8.60566e-05
-0.00011981
-6.27009e-05
-0.000116156
-3.95476e-05
-0.000114926
-1.80686e-05
-0.000106285
2.08312e-06
-9.98931e-05
1.91465e-05
-8.38413e-05
3.32995e-05
-6.92191e-05
4.27816e-05
-4.59464e-05
4.76322e-05
-2.28871e-05
4.58451e-05
1.05877e-05
3.6238e-05
4.9287e-05
1.76362e-05
9.37236e-05
-1.05259e-05
0.000142487
-4.61293e-05
0.000175253
-8.7148e-05
0.000202776
-0.000133654
0.000229537
-0.000183044
0.000243642
-0.000234646
0.000254585
-0.000285776
0.000252572
-0.00033459
0.00024153
-0.000379823
0.000224189
-0.000420234
0.000200837
-0.000455348
0.000174944
-0.000484988
0.000147772
-0.000509031
0.000120048
-0.000528035
9.48887e-05
-0.000542211
7.00428e-05
-0.000552105
4.94061e-05
-0.000558011
3.04855e-05
-0.000560866
1.60839e-05
-0.000560535
1.70902e-06
-0.000558442
-8.48715e-06
-0.000554604
-1.82022e-05
-0.000549335
-2.56601e-05
-0.000543312
-2.96639e-05
-0.000536182
-3.52299e-05
-0.000529003
-3.54314e-05
-0.000521225
-3.8696e-05
-0.000513677
-3.73057e-05
-0.000506045
-3.79935e-05
-0.000498719
-3.65215e-05
-0.000491516
-3.58755e-05
-0.00048473
-3.40342e-05
-0.000478207
-3.2573e-05
-0.000472038
-3.07949e-05
-0.000466264
-2.8925e-05
-0.000460786
-2.76075e-05
-0.000455461
-2.66719e-05
-0.000450397
-2.55415e-05
-0.000445293
-2.55032e-05
-0.000440391
-2.47334e-05
-0.000435206
-2.614e-05
-0.00042993
-2.64463e-05
-0.000424276
-2.86332e-05
-0.0004183
-3.00894e-05
-0.000411583
-3.34946e-05
-0.000404494
-3.58205e-05
-0.000396455
-4.0337e-05
-0.000387736
-4.36522e-05
-0.000377965
-4.91905e-05
-0.000367253
-5.37109e-05
-0.000355112
-6.0956e-05
-0.000341835
-6.667e-05
-0.000326812
-7.53801e-05
-0.000310304
-8.27739e-05
-0.00029179
-9.25129e-05
-0.000271557
-0.000101063
-0.000249302
-0.000111044
-0.00022536
-0.00011954
-0.000199704
-0.000128055
-0.000172731
-0.000134604
-0.000144574
-0.000139918
-0.000115779
-0.000143083
-8.67877e-05
-0.000144086
-5.81067e-05
-0.000142393
-3.0363e-05
-0.000137784
-4.06991e-06
-0.000130398
2.01171e-05
-0.000119817
4.16227e-05
-0.000106872
5.99454e-05
-9.09045e-05
7.47154e-05
-7.30354e-05
8.54309e-05
-5.34284e-05
9.19908e-05
-3.26863e-05
9.42096e-05
-1.14345e-05
9.2304e-05
9.44284e-06
8.633e-05
2.93496e-05
7.66393e-05
4.76076e-05
6.3808e-05
6.34263e-05
4.82035e-05
7.73511e-05
3.03941e-05
8.81425e-05
1.08371e-05
9.66665e-05
-9.73731e-06
0.000102014
-3.09986e-05
0.000105556
-5.23865e-05
0.000106205
-7.34982e-05
0.000104831
-9.38726e-05
0.000101402
-0.0001133
9.68281e-05
-0.000131588
9.12658e-05
-0.000148645
8.52497e-05
-0.000164375
7.85816e-05
-0.000178718
7.15963e-05
-0.000191577
6.42667e-05
-0.000202928
5.68852e-05
-0.000212875
5.00086e-05
-0.000221598
4.37506e-05
-0.000229133
3.77954e-05
-0.000235518
3.20176e-05
-0.000240834
2.67604e-05
-0.000245227
2.23172e-05
-0.000248896
1.8554e-05
-0.000251917
1.51664e-05
-0.00025432
1.22209e-05
-0.000256273
1.00243e-05
-0.000258
8.64696e-06
-0.000259426
7.28768e-06
-0.000260655
6.25257e-06
-0.000261745
5.50843e-06
-0.000262798
5.20923e-06
-0.000263734
4.77056e-06
-0.000264558
4.19583e-06
-0.000265414
4.16851e-06
-0.000266063
3.14916e-06
-0.000266588
2.54271e-06
-0.00026679
1.05433e-06
-0.00026679
3.13058e-07
-0.00026663
-8.58805e-07
-0.000266472
-1.26004e-06
-0.000266005
-2.54624e-06
-0.000265271
-3.42268e-06
-0.000264409
-3.92776e-06
-0.000263329
-5.48032e-06
-0.000262305
-5.38934e-06
-0.000260746
-7.66976e-06
-0.000259119
-8.17767e-06
-0.000257334
-9.01386e-06
-0.000255204
-1.02972e-05
-0.000252986
-1.10591e-05
-0.000250702
-1.16647e-05
-0.000248046
-1.32344e-05
-0.000245318
-1.39562e-05
-0.000242257
-1.52438e-05
-0.000238759
-1.76491e-05
-0.000234884
-2.00821e-05
-0.000229886
-2.55732e-05
-0.000223779
-3.08324e-05
-0.000215472
-4.02541e-05
-0.00020571
-4.45591e-05
-0.000195869
-4.21591e-05
-0.000187732
-3.14622e-05
-0.000181715
-2.27449e-05
-0.000176534
-2.30817e-05
-0.000168378
-4.37013e-05
-0.000155117
-7.37142e-05
-0.000122596
-0.00013702
-0.000324641
-0.000147222
-0.000298475
-0.000156414
-0.000271948
-0.000158584
-0.000244548
-0.000163698
-0.000217178
-0.000163518
-0.000189386
-0.000165926
-0.000162132
-0.000162756
-0.000135046
-0.000161614
-0.000108997
-0.000155422
-8.37537e-05
-0.000150468
-5.99698e-05
-0.000141678
-3.76871e-05
-0.000132535
-1.76151e-05
-0.000119324
5.29124e-08
-0.000104749
1.48295e-05
-8.76556e-05
2.64158e-05
-6.88223e-05
3.45739e-05
-4.83938e-05
3.91266e-05
-2.69445e-05
3.98988e-05
-4.48997e-06
3.71628e-05
1.63008e-05
3.10151e-05
3.65965e-05
2.13561e-05
5.73893e-05
8.91247e-06
7.39352e-05
-5.90124e-06
8.61261e-05
-2.3463e-05
0.000104853
-4.38363e-05
0.000121072
-6.55583e-05
0.000129067
-8.91649e-05
0.000140254
-0.000113149
0.000142606
-0.000138056
0.00014814