/*--------------------------------*- C++ -*----------------------------------*\
| =========                 |                                                 |
| \\      /  F ield         | OpenFOAM: The Open Source CFD Toolbox           |
|  \\    /   O peration     | Version:  3.0.1                                 |
|   \\  /    A nd           | Web:      www.OpenFOAM.org                      |
|    \\/     M anipulation  |                                                 |
\*---------------------------------------------------------------------------*/
FoamFile
{
    version     2.0;
    format      ascii;
    class       volVectorField;
    location    "49.4";
    object      U;
}
// * * * * * * * * * * * * * * * * * * * * * * * * * * * * * * * * * * * * * //

dimensions      [0 1 -1 0 0 0 0];

internalField   nonuniform List<vector> 
21420
(
(-0.0906882 -0.000504489 0)
(-0.0858536 -0.000585755 0)
(-0.0795404 -0.00066651 0)
(-0.0723918 -0.000749109 0)
(-0.06438 -0.000839095 0)
(-0.0554807 -0.000926145 0)
(-0.0456695 -0.00102232 0)
(-0.0349276 -0.00111248 0)
(-0.0232431 -0.00120203 0)
(-0.0106115 -0.00130422 0)
(0.00296214 -0.00139151 0)
(0.0174573 -0.00147454 0)
(0.032838 -0.00157228 0)
(0.0490478 -0.00164273 0)
(0.0660089 -0.00172856 0)
(0.0836233 -0.00177861 0)
(0.101764 -0.00181255 0)
(0.120284 -0.00186185 0)
(0.139017 -0.00186258 0)
(0.157763 -0.00184086 0)
(0.176306 -0.00182997 0)
(0.194426 -0.00176532 0)
(0.211871 -0.00167585 0)
(0.228387 -0.00158751 0)
(0.243727 -0.00145084 0)
(0.25764 -0.00130728 0)
(0.269891 -0.00112572 0)
(0.280261 -0.000926191 0)
(0.288553 -0.000714114 0)
(0.294615 -0.000483206 0)
(0.298325 -0.00024533 0)
(0.29958 -4.90301e-06 0)
(0.298517 0.000235572 0)
(0.294852 0.000477103 0)
(0.288853 0.000708487 0)
(0.280604 0.000933363 0)
(0.270241 0.00112059 0)
(0.257974 0.00130564 0)
(0.244003 0.0014764 0)
(0.22855 0.0015911 0)
(0.211882 0.00170918 0)
(0.194256 0.00177166 0)
(0.175946 0.00183692 0)
(0.157189 0.00188083 0)
(0.138205 0.00187388 0)
(0.119242 0.00187042 0)
(0.100485 0.00184792 0)
(0.0820994 0.00179007 0)
(0.0642618 0.00173733 0)
(0.0470918 0.00167164 0)
(0.0306556 0.00158746 0)
(0.0151257 0.00150204 0)
(0.000534362 0.00140908 0)
(-0.01325 0.00132444 0)
(-0.0261932 0.00123657 0)
(-0.0382425 0.00114637 0)
(-0.0494 0.00106034 0)
(-0.0596819 0.000975419 0)
(-0.0691085 0.000890924 0)
(-0.0777103 0.000811318 0)
(-0.0855099 0.000731425 0)
(-0.0925262 0.000657987 0)
(-0.0988069 0.000585063 0)
(-0.104329 0.000509906 0)
(-0.109118 0.000441315 0)
(-0.113227 0.000372373 0)
(-0.116575 0.000299053 0)
(-0.119214 0.000230611 0)
(-0.121164 0.000156334 0)
(-0.122403 8.75353e-05 0)
(-0.123037 2.57742e-05 0)
(-0.123018 -4.13523e-05 0)
(-0.122234 -9.94442e-05 0)
(-0.120901 -0.000150333 0)
(-0.118983 -0.000208306 0)
(-0.116399 -0.000260087 0)
(-0.11336 -0.000311592 0)
(-0.109645 -0.000374349 0)
(-0.105259 -0.000427883 0)
(-0.100277 -0.000485681 0)
(-0.0945385 -0.000556292 0)
(-0.0879556 -0.000626563 0)
(-0.0805788 -0.000698088 0)
(-0.0723216 -0.000789883 0)
(-0.0629777 -0.000878754 0)
(-0.052745 -0.000981749 0)
(-0.0414133 -0.0010776 0)
(-0.0290479 -0.00118828 0)
(-0.0157873 -0.00130704 0)
(-0.00217347 -0.00141213 0)
(0.0122824 -0.00153048 0)
(0.028433 -0.0016317 0)
(0.0457068 -0.0017098 0)
(0.0637424 -0.00178132 0)
(0.0823644 -0.00183207 0)
(0.101335 -0.00186337 0)
(0.120391 -0.00187858 0)
(0.139411 -0.00187901 0)
(0.158252 -0.00184669 0)
(0.176678 -0.00180339 0)
(0.194512 -0.00173664 0)
(0.211591 -0.00163918 0)
(0.227602 -0.00152116 0)
(0.242191 -0.00135948 0)
(0.254994 -0.00116444 0)
(0.265652 -0.000936118 0)
(0.273843 -0.000686252 0)
(0.279376 -0.000408926 0)
(0.282069 -0.000129906 0)
(0.282009 0.000146282 0)
(0.279031 0.000428581 0)
(0.273253 0.000693667 0)
(0.264997 0.000943852 0)
(0.254351 0.00116399 0)
(0.241553 0.0013638 0)
(0.226868 0.00153877 0)
(0.21057 0.00169761 0)
(0.192897 0.00181074 0)
(0.174134 0.00190212 0)
(0.154656 0.00196624 0)
(0.134705 0.00199175 0)
(0.114532 0.00199667 0)
(0.0944579 0.00198862 0)
(0.0746516 0.00193353 0)
(0.0553835 0.0018829 0)
(0.0368201 0.0017996 0)
(0.0190871 0.00171641 0)
(0.00238455 0.00161007 0)
(-0.0132863 0.00150539 0)
(-0.0278499 0.00138799 0)
(-0.0412786 0.00127118 0)
(-0.05357 0.00116066 0)
(-0.0646911 0.00105343 0)
(-0.0746951 0.000939646 0)
(-0.0836515 0.000835267 0)
(-0.091574 0.000735251 0)
(-0.0984951 0.000637442 0)
(-0.104464 0.000549715 0)
(-0.109575 0.000463658 0)
(-0.113851 0.000378863 0)
(-0.117296 0.000298141 0)
(-0.119915 0.00022583 0)
(-0.121776 0.000153531 0)
(-0.12292 7.9751e-05 0)
(-0.123416 1.57913e-05 0)
(-0.123284 -4.48388e-05 0)
(-0.122472 -0.000107254 0)
(-0.121109 -0.000162819 0)
(-0.119269 -0.000220276 0)
(-0.116817 -0.000257502 0)
(-0.113796 -0.000326394 0)
(-0.110259 -0.000389611 0)
(-0.10608 -0.000437639 0)
(-0.101243 -0.000505301 0)
(-0.0957867 -0.000576989 0)
(-0.089578 -0.000643844 0)
(-0.082675 -0.000726221 0)
(-0.0749609 -0.000799319 0)
(-0.0664922 -0.000882467 0)
(-0.057236 -0.000963893 0)
(-0.0471535 -0.0010316 0)
(-0.0362542 -0.00112205 0)
(-0.0245358 -0.0012003 0)
(-0.0120225 -0.00128579 0)
(0.00133275 -0.00136119 0)
(0.0155458 -0.00144402 0)
(0.030499 -0.00152039 0)
(0.0461559 -0.00158527 0)
(0.062455 -0.00164295 0)
(0.0792893 -0.00169473 0)
(0.0965743 -0.00172546 0)
(0.114109 -0.00175254 0)
(0.131776 -0.00174623 0)
(0.149332 -0.00173552 0)
(0.166644 -0.00169535 0)
(0.183453 -0.0016278 0)
(0.199469 -0.00154755 0)
(0.21448 -0.00142548 0)
(0.228216 -0.0012817 0)
(0.240338 -0.00111695 0)
(0.25062 -0.000924739 0)
(0.258887 -0.000711627 0)
(0.26493 -0.000484181 0)
(0.268592 -0.000245494 0)
(0.269785 1.80527e-06 0)
(0.268544 0.000254599 0)
(0.26461 0.000506487 0)
(0.258295 0.000745113 0)
(0.249646 0.000967198 0)
(0.238825 0.00117813 0)
(0.226 0.00135813 0)
(0.21144 0.00152499 0)
(0.195402 0.00166351 0)
(0.178085 0.00176801 0)
(0.159808 0.00184802 0)
(0.140867 0.00190732 0)
(0.121555 0.00192943 0)
(0.10211 0.00192275 0)
(0.0828062 0.00189549 0)
(0.0639197 0.00184938 0)
(0.0456435 0.00177645 0)
(0.0281272 0.00169754 0)
(0.0115269 0.00160272 0)
(-0.00410287 0.00150387 0)
(-0.0187184 0.00140278 0)
(-0.0323823 0.0013045 0)
(-0.0450222 0.00120517 0)
(-0.0566581 0.00110499 0)
(-0.0672799 0.00100701 0)
(-0.0768884 0.000901761 0)
(-0.0854977 0.000807981 0)
(-0.0931979 0.000711797 0)
(-0.0999979 0.000632707 0)
(-0.105957 0.000552912 0)
(-0.111145 0.000473903 0)
(-0.115572 0.000401038 0)
(-0.119265 0.000329778 0)
(-0.122222 0.000257143 0)
(-0.124431 0.000182535 0)
(-0.125919 0.000114033 0)
(-0.126728 5.17846e-05 0)
(-0.12691 -1.64202e-05 0)
(-0.126431 -7.46943e-05 0)
(-0.125298 -0.000146471 0)
(-0.123532 -0.000202677 0)
(-0.121138 -0.000268811 0)
(-0.118101 -0.000332879 0)
(-0.114425 -0.000396581 0)
(-0.110101 -0.00045593 0)
(-0.105148 -0.000535965 0)
(-0.0994805 -0.00058578 0)
(-0.0931388 -0.000663021 0)
(-0.0861332 -0.000732079 0)
(-0.0784541 -0.000793633 0)
(-0.0700619 -0.00085886 0)
(-0.0610334 -0.000931656 0)
(-0.0513104 -0.000994627 0)
(-0.0409311 -0.0010569 0)
(-0.0298831 -0.00113164 0)
(-0.0181351 -0.00119614 0)
(-0.00572434 -0.00126163 0)
(0.00736087 -0.00132743 0)
(0.02103 -0.00138059 0)
(0.0352324 -0.00143586 0)
(0.0499737 -0.00148342 0)
(0.0651635 -0.00153215 0)
(0.0807709 -0.00156234 0)
(0.0966926 -0.0015908 0)
(0.112819 -0.00160939 0)
(0.129053 -0.00160791 0)
(0.145173 -0.00157937 0)
(0.160888 -0.00152874 0)
(0.175938 -0.00145834 0)
(0.190094 -0.00134506 0)
(0.203099 -0.00122474 0)
(0.214706 -0.00107583 0)
(0.224714 -0.000907629 0)
(0.232949 -0.000723805 0)
(0.239267 -0.000524026 0)
(0.243532 -0.000314266 0)
(0.245574 -9.3835e-05 0)
(0.245364 0.000138662 0)
(0.242684 0.000392169 0)
(0.237476 0.00063781 0)
(0.229876 0.000885613 0)
(0.22008 0.00110648 0)
(0.208093 0.00130884 0)
(0.194199 0.00147752 0)
(0.178682 0.00160648 0)
(0.162191 0.00169772 0)
(0.14491 0.00173579 0)
(0.127421 0.00172713 0)
(0.11025 0.00167647 0)
(0.0936191 0.00160433 0)
(0.0779461 0.00150393 0)
(0.0631904 0.00141079 0)
(0.0495991 0.00130449 0)
(0.0369884 0.00120917 0)
(0.0250374 0.00111972 0)
(0.0138864 0.001028 0)
(0.00447279 0.000943705 0)
(-0.00324055 0.000928846 0)
(-0.0105867 0.000877918 0)
(-0.0178303 0.000835171 0)
(-0.0248274 0.000787454 0)
(-0.0314403 0.000743722 0)
(-0.0378331 0.000713541 0)
(-0.0440608 0.000681093 0)
(-0.0500397 0.000653029 0)
(-0.0558987 0.000620383 0)
(-0.0614537 0.000578272 0)
(-0.0667007 0.000533123 0)
(-0.0715605 0.000480001 0)
(-0.0759365 0.00042118 0)
(-0.0797959 0.000356831 0)
(-0.0830648 0.000289885 0)
(-0.0857259 0.000221725 0)
(-0.0877798 0.000158645 0)
(-0.0891745 9.16083e-05 0)
(-0.0899538 3.21195e-05 0)
(-0.0901019 -3.32501e-05 0)
(-0.0895579 -9.17108e-05 0)
(-0.0884448 -0.000146765 0)
(-0.0867282 -0.000200872 0)
(-0.084471 -0.000250681 0)
(-0.0816999 -0.000298525 0)
(-0.0783741 -0.000356539 0)
(-0.0745103 -0.000410907 0)
(-0.0700311 -0.000478265 0)
(-0.0648422 -0.000545111 0)
(-0.0589588 -0.000619722 0)
(-0.0522673 -0.000709406 0)
(-0.0446606 -0.000796444 0)
(-0.0361473 -0.000886019 0)
(-0.0266649 -0.000995278 0)
(-0.016253 -0.0010858 0)
(-0.00459712 -0.00120338 0)
(0.00818275 -0.00129619 0)
(0.021706 -0.00137643 0)
(0.0360866 -0.00147334 0)
(0.0512546 -0.001538 0)
(0.0670837 -0.00158675 0)
(0.0834436 -0.00164924 0)
(0.100182 -0.00166804 0)
(0.117128 -0.00169724 0)
(0.134108 -0.00168166 0)
(0.15092 -0.00164491 0)
(0.16737 -0.00161585 0)
(0.183282 -0.0015447 0)
(0.19846 -0.00145491 0)
(0.212718 -0.00136703 0)
(0.225897 -0.00124632 0)
(0.237831 -0.0011115 0)
(0.248371 -0.000972884 0)
(0.257392 -0.000814179 0)
(0.264783 -0.000650155 0)
(0.270455 -0.000474616 0)
(0.274351 -0.000294806 0)
(0.276425 -0.000112175 0)
(0.276647 6.69425e-05 0)
(0.275106 0.000247177 0)
(0.271692 0.000422973 0)
(0.266593 0.000590038 0)
(0.259871 0.000740496 0)
(0.251648 0.0008848 0)
(0.242062 0.00101734 0)
(0.231272 0.00111958 0)
(0.219444 0.00121961 0)
(0.206746 0.00130481 0)
(0.193348 0.00135377 0)
(0.179415 0.00140621 0)
(0.165106 0.00142341 0)
(0.150564 0.001447 0)
(0.135917 0.00145826 0)
(0.121285 0.00143831 0)
(0.106782 0.0014276 0)
(0.0908689 0.00140751 0)
(-0.0907194 -0.00151334 0)
(-0.0858859 -0.00175715 0)
(-0.0795736 -0.00199941 0)
(-0.0724259 -0.00224721 0)
(-0.0644153 -0.00251717 0)
(-0.0555168 -0.00277834 0)
(-0.0457067 -0.00306689 0)
(-0.0349652 -0.00333742 0)
(-0.0232808 -0.00360611 0)
(-0.0106495 -0.00391266 0)
(0.0029251 -0.00417466 0)
(0.0174219 -0.00442377 0)
(0.0328042 -0.00471709 0)
(0.0490172 -0.00492853 0)
(0.0659817 -0.00518612 0)
(0.0836011 -0.00533636 0)
(0.101747 -0.00543826 0)
(0.120274 -0.00558628 0)
(0.139015 -0.00558852 0)
(0.15777 -0.00552344 0)
(0.176322 -0.00549087 0)
(0.19445 -0.00529698 0)
(0.211905 -0.00502854 0)
(0.228432 -0.00476355 0)
(0.243781 -0.00435352 0)
(0.257705 -0.00392277 0)
(0.269965 -0.00337817 0)
(0.280341 -0.00277933 0)
(0.288641 -0.00214228 0)
(0.294704 -0.00145311 0)
(0.298425 -0.000730534 0)
(0.299684 -1.66873e-05 0)
(0.298614 0.000705623 0)
(0.294941 0.00143141 0)
(0.288943 0.00212561 0)
(0.28069 0.00280062 0)
(0.27032 0.00336245 0)
(0.258045 0.00391773 0)
(0.244065 0.00443013 0)
(0.228603 0.00477425 0)
(0.211925 0.00512853 0)
(0.194289 0.00531593 0)
(0.17597 0.00551173 0)
(0.157204 0.00564344 0)
(0.138212 0.00562251 0)
(0.119241 0.0056121 0)
(0.100477 0.00554455 0)
(0.0820859 0.00537091 0)
(0.0642432 0.00521251 0)
(0.0470692 0.00501532 0)
(0.0306294 0.00476211 0)
(0.0150967 0.00450712 0)
(0.000505347 0.0042278 0)
(-0.0132798 0.00397351 0)
(-0.0262239 0.00371004 0)
(-0.0382735 0.00343913 0)
(-0.0494315 0.00318121 0)
(-0.0597136 0.00292648 0)
(-0.0691403 0.0026728 0)
(-0.0777427 0.0024341 0)
(-0.0855429 0.0021947 0)
(-0.0925606 0.00197458 0)
(-0.0988428 0.00175509 0)
(-0.104365 0.00153032 0)
(-0.109156 0.00132446 0)
(-0.113268 0.00111679 0)
(-0.116617 0.000896792 0)
(-0.119257 0.000692113 0)
(-0.121208 0.000471336 0)
(-0.12245 0.000261394 0)
(-0.123082 7.20678e-05 0)
(-0.123057 -0.000121603 0)
(-0.12227 -0.000295852 0)
(-0.120936 -0.000454836 0)
(-0.119015 -0.0006308 0)
(-0.116415 -0.00077864 0)
(-0.113376 -0.000939884 0)
(-0.109649 -0.00111514 0)
(-0.105253 -0.00128246 0)
(-0.100257 -0.00145724 0)
(-0.094511 -0.00166538 0)
(-0.0879086 -0.00188457 0)
(-0.0805289 -0.00210202 0)
(-0.0722524 -0.00237457 0)
(-0.0628946 -0.00263381 0)
(-0.0526375 -0.00293775 0)
(-0.0412992 -0.00324874 0)
(-0.0289098 -0.00356839 0)
(-0.0156351 -0.0039225 0)
(-0.00201281 -0.00424947 0)
(0.0124478 -0.00460013 0)
(0.0285917 -0.00490998 0)
(0.0458737 -0.00514127 0)
(0.0639104 -0.00535698 0)
(0.0825316 -0.00550558 0)
(0.101491 -0.00559862 0)
(0.120547 -0.00563634 0)
(0.139571 -0.00562311 0)
(0.158386 -0.00553985 0)
(0.176803 -0.00540171 0)
(0.194628 -0.00521402 0)
(0.211705 -0.00493133 0)
(0.227721 -0.00455471 0)
(0.242308 -0.00408519 0)
(0.255118 -0.00349729 0)
(0.26578 -0.00281036 0)
(0.273983 -0.00205283 0)
(0.279515 -0.00122162 0)
(0.282203 -0.000395237 0)
(0.282128 0.000438823 0)
(0.279129 0.00129577 0)
(0.273353 0.00207588 0)
(0.26509 0.00282583 0)
(0.254436 0.00349365 0)
(0.241628 0.00409395 0)
(0.226929 0.00462035 0)
(0.210622 0.00509227 0)
(0.192937 0.00543089 0)
(0.17416 0.00570463 0)
(0.154666 0.00588634 0)
(0.134718 0.0059875 0)
(0.114526 0.00599975 0)
(0.0944231 0.00595666 0)
(0.074621 0.00580946 0)
(0.0553387 0.00565971 0)
(0.0367626 0.00539412 0)
(0.0190247 0.00515237 0)
(0.00230083 0.00482335 0)
(-0.0133668 0.00451707 0)
(-0.0279385 0.00416612 0)
(-0.0413708 0.00382441 0)
(-0.0536744 0.00347437 0)
(-0.0648034 0.00316009 0)
(-0.0748088 0.00282017 0)
(-0.0837659 0.00250726 0)
(-0.0916946 0.00220177 0)
(-0.0986149 0.00192367 0)
(-0.104594 0.00164831 0)
(-0.109709 0.00138433 0)
(-0.11398 0.00113915 0)
(-0.117421 0.000894108 0)
(-0.120044 0.000683175 0)
(-0.121918 0.000452053 0)
(-0.123061 0.000237829 0)
(-0.12356 4.06291e-05 0)
(-0.123427 -0.000140313 0)
(-0.12261 -0.000305081 0)
(-0.121248 -0.00048544 0)
(-0.11941 -0.000661547 0)
(-0.116959 -0.000776395 0)
(-0.113943 -0.000981164 0)
(-0.110399 -0.0011719 0)
(-0.106207 -0.00130914 0)
(-0.1014 -0.0015408 0)
(-0.0959199 -0.00171589 0)
(-0.0897477 -0.00195443 0)
(-0.0828165 -0.00217229 0)
(-0.075117 -0.00241222 0)
(-0.0666203 -0.00263848 0)
(-0.0573823 -0.00289195 0)
(-0.0472934 -0.00309891 0)
(-0.0363836 -0.00335755 0)
(-0.0246782 -0.00361525 0)
(-0.0121499 -0.00385627 0)
(0.00122125 -0.0040722 0)
(0.0154369 -0.00432805 0)
(0.0303874 -0.0045653 0)
(0.0460569 -0.00475529 0)
(0.0623333 -0.00494735 0)
(0.0791978 -0.00507643 0)
(0.0964734 -0.00519219 0)
(0.114049 -0.00524865 0)
(0.131709 -0.0052574 0)
(0.149301 -0.00520007 0)
(0.166617 -0.00508972 0)
(0.183438 -0.00488998 0)
(0.199474 -0.00464582 0)
(0.214498 -0.00428745 0)
(0.228248 -0.00385717 0)
(0.240394 -0.00335105 0)
(0.250696 -0.00276177 0)
(0.25897 -0.00213665 0)
(0.265033 -0.00144705 0)
(0.268694 -0.000738574 0)
(0.269889 -9.93946e-06 0)
(0.26864 0.000762397 0)
(0.264716 0.00151587 0)
(0.258401 0.00223941 0)
(0.249746 0.00290814 0)
(0.238916 0.00352693 0)
(0.226085 0.00407146 0)
(0.211521 0.00458018 0)
(0.195461 0.00498127 0)
(0.178146 0.00531188 0)
(0.159844 0.00553528 0)
(0.140895 0.00572404 0)
(0.121559 0.00579103 0)
(0.102099 0.00577633 0)
(0.0827755 0.00569806 0)
(0.0638713 0.00554818 0)
(0.0455846 0.00533277 0)
(0.0280623 0.00509101 0)
(0.0114519 0.00479861 0)
(-0.00418149 0.00451753 0)
(-0.0188091 0.004209 0)
(-0.0324816 0.00391554 0)
(-0.0451374 0.00361128 0)
(-0.0567775 0.00331306 0)
(-0.067404 0.00301178 0)
(-0.0770079 0.002715 0)
(-0.0856285 0.00242113 0)
(-0.0933123 0.00214644 0)
(-0.100128 0.00190084 0)
(-0.106096 0.00165595 0)
(-0.111278 0.00142984 0)
(-0.11571 0.00120959 0)
(-0.119408 0.000990417 0)
(-0.122368 0.00077113 0)
(-0.124567 0.000554172 0)
(-0.126061 0.000345422 0)
(-0.126878 0.000145657 0)
(-0.127057 -5.82055e-05 0)
(-0.126576 -0.000225266 0)
(-0.125444 -0.000437698 0)
(-0.123674 -0.000618084 0)
(-0.121275 -0.000802305 0)
(-0.118238 -0.000994925 0)
(-0.114565 -0.00119743 0)
(-0.110246 -0.00137849 0)
(-0.105286 -0.00160692 0)
(-0.0996184 -0.00175582 0)
(-0.0932713 -0.0019793 0)
(-0.0862722 -0.00219117 0)
(-0.0785822 -0.0023832 0)
(-0.070218 -0.00259801 0)
(-0.0611676 -0.00279393 0)
(-0.0514433 -0.00298716 0)
(-0.0410585 -0.00317931 0)
(-0.0300036 -0.00339153 0)
(-0.018253 -0.00358849 0)
(-0.00584974 -0.00379538 0)
(0.00725197 -0.00397097 0)
(0.020906 -0.00415165 0)
(0.0351219 -0.00430826 0)
(0.0498695 -0.0044575 0)
(0.0650829 -0.00457321 0)
(0.0806793 -0.00470342 0)
(0.096618 -0.00477683 0)
(0.112761 -0.00483329 0)
(0.129007 -0.0048149 0)
(0.145127 -0.00475351 0)
(0.160864 -0.00459361 0)
(0.17594 -0.00437502 0)
(0.190106 -0.00404989 0)
(0.20314 -0.00367062 0)
(0.214762 -0.00322145 0)
(0.224776 -0.00272454 0)
(0.233021 -0.00217635 0)
(0.239347 -0.00158354 0)
(0.243622 -0.000951168 0)
(0.245685 -0.00027379 0)
(0.245479 0.000424953 0)
(0.242796 0.00117425 0)
(0.237605 0.00190481 0)
(0.230016 0.0026596 0)
(0.220212 0.0033201 0)
(0.208222 0.00392278 0)
(0.194325 0.00443311 0)
(0.178793 0.00482649 0)
(0.162281 0.00509369 0)
(0.144983 0.00520833 0)
(0.127468 0.00518538 0)
(0.110272 0.00503178 0)
(0.0936199 0.00481474 0)
(0.0779288 0.00451555 0)
(0.063148 0.00423502 0)
(0.0495364 0.0039128 0)
(0.0369126 0.00362939 0)
(0.0249428 0.00336294 0)
(0.0137756 0.00308334 0)
(0.00436368 0.00283636 0)
(-0.0033498 0.00278579 0)
(-0.0107061 0.00263787 0)
(-0.0179556 0.00250423 0)
(-0.0249475 0.00236019 0)
(-0.0315525 0.00223182 0)
(-0.0379393 0.00213875 0)
(-0.0441546 0.00204324 0)
(-0.0501263 0.00195581 0)
(-0.0559774 0.00185928 0)
(-0.0615251 0.00173614 0)
(-0.0667656 0.00160067 0)
(-0.0716217 0.00143919 0)
(-0.0759924 0.00126185 0)
(-0.0798473 0.0010705 0)
(-0.0831119 0.000866346 0)
(-0.0857686 0.000666444 0)
(-0.0878192 0.000463256 0)
(-0.089212 0.000273982 0)
(-0.0899884 9.36777e-05 0)
(-0.0901352 -0.000102594 0)
(-0.089588 -0.000275856 0)
(-0.0884725 -0.00044051 0)
(-0.0867547 -0.000602524 0)
(-0.0844964 -0.00075204 0)
(-0.0817256 -0.00089553 0)
(-0.0784011 -0.00106935 0)
(-0.0745389 -0.00123241 0)
(-0.0700622 -0.0014346 0)
(-0.0648759 -0.001635 0)
(-0.0589954 -0.00185888 0)
(-0.0523068 -0.00212787 0)
(-0.0447017 -0.00238924 0)
(-0.0361902 -0.0026581 0)
(-0.0267083 -0.00298615 0)
(-0.0162972 -0.00325902 0)
(-0.0046419 -0.00360771 0)
(0.00814187 -0.00388786 0)
(0.0216685 -0.00412942 0)
(0.0360521 -0.00442037 0)
(0.0512248 -0.00461447 0)
(0.0670594 -0.0047608 0)
(0.0834254 -0.00494838 0)
(0.100171 -0.0050048 0)
(0.117125 -0.0050925 0)
(0.134112 -0.00504574 0)
(0.150932 -0.00493551 0)
(0.167389 -0.00484834 0)
(0.183308 -0.00463487 0)
(0.198493 -0.00436545 0)
(0.21276 -0.0041018 0)
(0.225944 -0.0037396 0)
(0.237884 -0.00333511 0)
(0.24843 -0.00291918 0)
(0.257455 -0.00244295 0)
(0.26485 -0.00195084 0)
(0.270525 -0.0014244 0)
(0.274422 -0.000884238 0)
(0.276499 -0.00033296 0)
(0.276724 0.000197074 0)
(0.275172 0.000741874 0)
(0.271759 0.00126902 0)
(0.266658 0.00177047 0)
(0.25993 0.00222198 0)
(0.251702 0.00265495 0)
(0.24211 0.00305262 0)
(0.231313 0.00335939 0)
(0.219479 0.00365947 0)
(0.206774 0.0039151 0)
(0.193369 0.00406192 0)
(0.179431 0.00421922 0)
(0.165115 0.00427077 0)
(0.150568 0.00434149 0)
(0.135917 0.00437525 0)
(0.12128 0.00431532 0)
(0.106774 0.00428316 0)
(0.0908564 0.00422284 0)
(-0.0907817 -0.00252191 0)
(-0.08595 -0.00292824 0)
(-0.0796395 -0.00333201 0)
(-0.0724935 -0.00374502 0)
(-0.0644854 -0.00419495 0)
(-0.0555884 -0.0046303 0)
(-0.0457805 -0.00511127 0)
(-0.0350395 -0.00556233 0)
(-0.0233551 -0.00601029 0)
(-0.0107243 -0.00652109 0)
(0.00285235 -0.00695832 0)
(0.0173525 -0.00737353 0)
(0.0327383 -0.00786271 0)
(0.048958 -0.00821536 0)
(0.0659294 -0.00864503 0)
(0.083559 -0.00889575 0)
(0.101717 -0.0090658 0)
(0.120257 -0.00931293 0)
(0.139014 -0.00931682 0)
(0.157784 -0.00920855 0)
(0.176356 -0.00915462 0)
(0.194503 -0.00883154 0)
(0.211976 -0.00838412 0)
(0.228525 -0.00794259 0)
(0.243893 -0.00725903 0)
(0.257838 -0.00654103 0)
(0.270113 -0.00563298 0)
(0.280504 -0.00463449 0)
(0.288818 -0.00357246 0)
(0.29489 -0.0024218 0)
(0.298618 -0.00122558 0)
(0.299897 -2.30906e-05 0)
(0.298797 0.0011786 0)
(0.295117 0.00238674 0)
(0.289119 0.00354368 0)
(0.280857 0.00466988 0)
(0.270469 0.00560665 0)
(0.258179 0.00653252 0)
(0.244181 0.00738687 0)
(0.228697 0.00796038 0)
(0.211999 0.00855095 0)
(0.194343 0.00886306 0)
(0.176005 0.00918942 0)
(0.15722 0.00940868 0)
(0.138211 0.00937346 0)
(0.119223 0.00935595 0)
(0.100445 0.00924319 0)
(0.082044 0.00895351 0)
(0.0641915 0.00868874 0)
(0.0470099 0.00835961 0)
(0.030564 0.00793518 0)
(0.0150267 0.00751489 0)
(0.00043605 0.00704675 0)
(-0.0133496 0.0066225 0)
(-0.0262939 0.00618382 0)
(-0.0383423 0.00573097 0)
(-0.0494989 0.0053018 0)
(-0.059779 0.00487726 0)
(-0.0692033 0.00445418 0)
(-0.0778039 0.0040564 0)
(-0.0856011 0.00365706 0)
(-0.0926159 0.00329119 0)
(-0.0988967 0.00292492 0)
(-0.104417 0.00255047 0)
(-0.109206 0.00220728 0)
(-0.113317 0.0018616 0)
(-0.116666 0.00149399 0)
(-0.119307 0.00115302 0)
(-0.121256 0.000783832 0)
(-0.122496 0.00043689 0)
(-0.12312 0.000123774 0)
(-0.123089 -0.000204872 0)
(-0.122296 -0.000495182 0)
(-0.12095 -0.000757074 0)
(-0.119019 -0.00105107 0)
(-0.116409 -0.00130122 0)
(-0.113356 -0.00156523 0)
(-0.109626 -0.00186707 0)
(-0.105207 -0.00214205 0)
(-0.100194 -0.00243236 0)
(-0.0944365 -0.0027822 0)
(-0.0878076 -0.00314174 0)
(-0.0804088 -0.00350423 0)
(-0.0721108 -0.00395959 0)
(-0.0627353 -0.00439607 0)
(-0.0524565 -0.00490889 0)
(-0.0410844 -0.0054086 0)
(-0.0286905 -0.00595253 0)
(-0.0153983 -0.00654672 0)
(-0.00176221 -0.00706931 0)
(0.0126962 -0.00766548 0)
(0.0288599 -0.0081741 0)
(0.0461447 -0.0085611 0)
(0.0641806 -0.00892262 0)
(0.0828025 -0.00916786 0)
(0.101752 -0.00932252 0)
(0.120783 -0.0093885 0)
(0.139784 -0.00937315 0)
(0.158586 -0.00922716 0)
(0.176978 -0.009008 0)
(0.194802 -0.00867679 0)
(0.211865 -0.00821266 0)
(0.227868 -0.0075967 0)
(0.242456 -0.00680517 0)
(0.255273 -0.00582521 0)
(0.265932 -0.00468279 0)
(0.274137 -0.00342456 0)
(0.279672 -0.00203332 0)
(0.282356 -0.000652434 0)
(0.282249 0.000724675 0)
(0.27921 0.00216036 0)
(0.273449 0.00346844 0)
(0.265162 0.00471234 0)
(0.25449 0.005819 0)
(0.241662 0.0068256 0)
(0.226945 0.00770837 0)
(0.210622 0.00849207 0)
(0.192911 0.00905714 0)
(0.174119 0.00951338 0)
(0.154607 0.00981984 0)
(0.134628 0.00997444 0)
(0.114415 0.0100009 0)
(0.0942865 0.00993874 0)
(0.0744586 0.00967851 0)
(0.0551732 0.00942497 0)
(0.0365804 0.00900239 0)
(0.0188352 0.00857984 0)
(0.00211525 0.00805484 0)
(-0.0135661 0.00752376 0)
(-0.0281447 0.00694754 0)
(-0.0415811 0.00636701 0)
(-0.0538715 0.00580564 0)
(-0.0650122 0.00526215 0)
(-0.0750222 0.00469053 0)
(-0.0839636 0.00417807 0)
(-0.0918903 0.00366655 0)
(-0.098811 0.00321486 0)
(-0.104787 0.00274448 0)
(-0.109891 0.00231153 0)
(-0.114164 0.0018997 0)
(-0.117603 0.00148846 0)
(-0.120231 0.00114122 0)
(-0.122109 0.000757881 0)
(-0.123254 0.000398778 0)
(-0.123741 7.0659e-05 0)
(-0.1236 -0.000247455 0)
(-0.122785 -0.000501415 0)
(-0.121434 -0.000811048 0)
(-0.11958 -0.00110221 0)
(-0.117127 -0.00129798 0)
(-0.114127 -0.00163564 0)
(-0.110574 -0.0019394 0)
(-0.106383 -0.0022004 0)
(-0.101576 -0.00254717 0)
(-0.0961261 -0.00287563 0)
(-0.0899489 -0.00323321 0)
(-0.0830264 -0.00363094 0)
(-0.0753113 -0.00400975 0)
(-0.0668308 -0.00440936 0)
(-0.0575752 -0.00481197 0)
(-0.0474888 -0.00517004 0)
(-0.0365951 -0.00560203 0)
(-0.0248824 -0.0060198 0)
(-0.0123596 -0.00644696 0)
(0.00102509 -0.00678375 0)
(0.0152334 -0.00722689 0)
(0.0302045 -0.00759732 0)
(0.0458679 -0.00793931 0)
(0.0621574 -0.00823769 0)
(0.0790237 -0.00846815 0)
(0.0963234 -0.00864255 0)
(0.113908 -0.00876769 0)
(0.131598 -0.00874983 0)
(0.149199 -0.00868773 0)
(0.166546 -0.00848465 0)
(0.183388 -0.00815234 0)
(0.199446 -0.00774601 0)
(0.214503 -0.00714226 0)
(0.228269 -0.0064293 0)
(0.24043 -0.00559525 0)
(0.250751 -0.00461363 0)
(0.259044 -0.00356539 0)
(0.265119 -0.00242417 0)
(0.268797 -0.00122556 0)
(0.269993 -1.17907e-05 0)
(0.26871 0.0012749 0)
(0.264797 0.0025346 0)
(0.258475 0.00372772 0)
(0.249811 0.00484319 0)
(0.238972 0.0058889 0)
(0.226125 0.00679251 0)
(0.211536 0.00763102 0)
(0.195454 0.00831029 0)
(0.178116 0.00885392 0)
(0.159805 0.00923924 0)
(0.140825 0.00954099 0)
(0.121459 0.00965135 0)
(0.101973 0.00963123 0)
(0.0826229 0.00949137 0)
(0.0637026 0.00926217 0)
(0.0454006 0.00888521 0)
(0.0278779 0.00848751 0)
(0.011261 0.00799238 0)
(-0.00437436 0.00753809 0)
(-0.0190024 0.00701738 0)
(-0.032674 0.00653156 0)
(-0.0453316 0.00601951 0)
(-0.0569611 0.00552552 0)
(-0.0675935 0.00502739 0)
(-0.077204 0.00451866 0)
(-0.0858143 0.00403922 0)
(-0.0935054 0.00357249 0)
(-0.100316 0.00315937 0)
(-0.106282 0.00277173 0)
(-0.111463 0.002376 0)
(-0.115895 0.00202182 0)
(-0.119597 0.00164802 0)
(-0.122557 0.00128619 0)
(-0.124755 0.00092215 0)
(-0.126241 0.000573367 0)
(-0.127049 0.000250819 0)
(-0.127223 -9.33331e-05 0)
(-0.126757 -0.000383064 0)
(-0.125631 -0.000727739 0)
(-0.123855 -0.0010292 0)
(-0.121462 -0.00134139 0)
(-0.118433 -0.00166468 0)
(-0.114748 -0.00198544 0)
(-0.110428 -0.00228973 0)
(-0.105472 -0.00266996 0)
(-0.0998145 -0.00294987 0)
(-0.0934715 -0.00330861 0)
(-0.0864582 -0.00364677 0)
(-0.0787766 -0.00396879 0)
(-0.0704135 -0.0043213 0)
(-0.0613691 -0.00467636 0)
(-0.0516277 -0.00496118 0)
(-0.041247 -0.00531095 0)
(-0.0301837 -0.00565205 0)
(-0.0184339 -0.00598215 0)
(-0.00602179 -0.00631768 0)
(0.00706213 -0.00663603 0)
(0.0207238 -0.00691099 0)
(0.0349419 -0.00718251 0)
(0.0496972 -0.00743046 0)
(0.0649103 -0.0076434 0)
(0.0805327 -0.00783395 0)
(0.0964876 -0.00796066 0)
(0.112643 -0.00805793 0)
(0.128904 -0.00803797 0)
(0.145056 -0.00791266 0)
(0.160818 -0.00766018 0)
(0.175919 -0.00730205 0)
(0.190109 -0.00674696 0)
(0.203148 -0.00612033 0)
(0.214782 -0.00537424 0)
(0.224813 -0.00454414 0)
(0.233074 -0.0036308 0)
(0.23941 -0.0026382 0)
(0.243691 -0.00158763 0)
(0.245766 -0.00046281 0)
(0.245561 0.000697458 0)
(0.242885 0.0019588 0)
(0.237717 0.0031765 0)
(0.230133 0.00442372 0)
(0.22033 0.00553915 0)
(0.208341 0.00654141 0)
(0.194441 0.00739156 0)
(0.178905 0.00804542 0)
(0.162382 0.00849608 0)
(0.145066 0.00868759 0)
(0.127532 0.00864898 0)
(0.110306 0.00839434 0)
(0.0936348 0.00802964 0)
(0.0779198 0.00753192 0)
(0.0631031 0.00706358 0)
(0.0494631 0.00652747 0)
(0.0368059 0.00605389 0)
(0.0248018 0.00560732 0)
(0.0136085 0.00514412 0)
(0.00419964 0.00473772 0)
(-0.00351943 0.0046423 0)
(-0.0109018 0.00439549 0)
(-0.0181503 0.00417424 0)
(-0.025143 0.00393162 0)
(-0.0317359 0.00371615 0)
(-0.0381065 0.0035619 0)
(-0.0443095 0.00340133 0)
(-0.0502635 0.00325827 0)
(-0.0561037 0.0030964 0)
(-0.0616417 0.00289012 0)
(-0.0668718 0.00266542 0)
(-0.0717199 0.00239727 0)
(-0.0760836 0.00210159 0)
(-0.0799318 0.00178209 0)
(-0.08319 0.00144618 0)
(-0.0858416 0.00111202 0)
(-0.0878835 0.000783018 0)
(-0.089272 0.00045513 0)
(-0.0900464 0.000155569 0)
(-0.090188 -0.000173507 0)
(-0.0896368 -0.000461194 0)
(-0.0885169 -0.000735058 0)
(-0.086797 -0.00100425 0)
(-0.0845372 -0.0012538 0)
(-0.0817671 -0.00149253 0)
(-0.0784453 -0.00178182 0)
(-0.0745864 -0.00205349 0)
(-0.070115 -0.00239041 0)
(-0.064934 -0.00272408 0)
(-0.0590594 -0.00309756 0)
(-0.0523766 -0.00354559 0)
(-0.0447751 -0.00398218 0)
(-0.0362673 -0.00443011 0)
(-0.0267869 -0.0049773 0)
(-0.0163768 -0.00543553 0)
(-0.0047232 -0.00600819 0)
(0.00806724 -0.00647846 0)
(0.0216009 -0.006883 0)
(0.0359904 -0.00736853 0)
(0.0511724 -0.00769252 0)
(0.0670178 -0.00793652 0)
(0.0833957 -0.00824947 0)
(0.100155 -0.00834361 0)
(0.117123 -0.00849002 0)
(0.134125 -0.00841207 0)
(0.150959 -0.00822833 0)
(0.167433 -0.00808307 0)
(0.183366 -0.00772719 0)
(0.198564 -0.00727803 0)
(0.212846 -0.00683853 0)
(0.226041 -0.00623468 0)
(0.237992 -0.00556031 0)
(0.24855 -0.00486689 0)
(0.257583 -0.00407292 0)
(0.264986 -0.00325248 0)
(0.270665 -0.00237457 0)
(0.274564 -0.00147449 0)
(0.276643 -0.000562461 0)
(0.27688 0.000335754 0)
(0.275306 0.00123911 0)
(0.271894 0.00211563 0)
(0.266785 0.00295211 0)
(0.260047 0.003705 0)
(0.251808 0.00442685 0)
(0.242205 0.0050898 0)
(0.231394 0.00560118 0)
(0.219548 0.00610135 0)
(0.20683 0.0065274 0)
(0.193411 0.00677194 0)
(0.179461 0.00703403 0)
(0.165133 0.00711975 0)
(0.150576 0.00723748 0)
(0.135915 0.0072936 0)
(0.12127 0.00719352 0)
(0.106756 0.00713979 0)
(0.0908309 0.00703915 0)
(-0.090875 -0.00353007 0)
(-0.0860462 -0.00409887 0)
(-0.0797382 -0.00466412 0)
(-0.0725948 -0.00524233 0)
(-0.0645906 -0.00587222 0)
(-0.0556957 -0.00648184 0)
(-0.0458911 -0.00715533 0)
(-0.0351511 -0.00778709 0)
(-0.0234666 -0.0084146 0)
(-0.0108365 -0.00912954 0)
(0.00274312 -0.00974273 0)
(0.0172484 -0.0103242 0)
(0.0326393 -0.0110097 0)
(0.048869 -0.0115039 0)
(0.0658507 -0.0121062 0)
(0.0834956 -0.0124578 0)
(0.101671 -0.0126964 0)
(0.120231 -0.0130432 0)
(0.139011 -0.0130491 0)
(0.157807 -0.0128979 0)
(0.176406 -0.0128231 0)
(0.194581 -0.0123709 0)
(0.212083 -0.0117446 0)
(0.228665 -0.0111266 0)
(0.24406 -0.0101693 0)
(0.258036 -0.00916384 0)
(0.270336 -0.00789197 0)
(0.280749 -0.00649334 0)
(0.289084 -0.00500585 0)
(0.29517 -0.00339631 0)
(0.298914 -0.00172054 0)
(0.300205 -3.2078e-05 0)
(0.299065 0.00166332 0)
(0.295387 0.00334363 0)
(0.289385 0.00496359 0)
(0.281107 0.00654249 0)
(0.270694 0.00785492 0)
(0.258379 0.00915182 0)
(0.244355 0.0103485 0)
(0.228839 0.0111514 0)
(0.212111 0.0119784 0)
(0.194424 0.0124149 0)
(0.176056 0.0128717 0)
(0.157242 0.0131785 0)
(0.138209 0.0131282 0)
(0.119197 0.0131035 0)
(0.100398 0.0129452 0)
(0.0819809 0.0125391 0)
(0.0641137 0.0121669 0)
(0.0469205 0.0117051 0)
(0.0304663 0.0111033 0)
(0.0149219 0.0105298 0)
(0.000331487 0.00986548 0)
(-0.0134543 0.00927145 0)
(-0.0263989 0.00865788 0)
(-0.0384455 0.00802223 0)
(-0.0496002 0.00742193 0)
(-0.0598774 0.00682769 0)
(-0.0692976 0.00623455 0)
(-0.0778954 0.0056785 0)
(-0.0856881 0.00511875 0)
(-0.0926993 0.0046069 0)
(-0.0989789 0.00409278 0)
(-0.104496 0.00357036 0)
(-0.109282 0.003089 0)
(-0.113392 0.00260522 0)
(-0.116738 0.00208986 0)
(-0.119378 0.00161395 0)
(-0.121331 0.0010992 0)
(-0.122566 0.000613363 0)
(-0.123182 0.000173306 0)
(-0.123136 -0.000283887 0)
(-0.122335 -0.000695416 0)
(-0.120976 -0.00106477 0)
(-0.11903 -0.00147683 0)