/*--------------------------------*- C++ -*----------------------------------*\
| =========                 |                                                 |
| \\      /  F ield         | OpenFOAM: The Open Source CFD Toolbox           |
|  \\    /   O peration     | Version:  3.0.1                                 |
|   \\  /    A nd           | Web:      www.OpenFOAM.org                      |
|    \\/     M anipulation  |                                                 |
\*---------------------------------------------------------------------------*/
FoamFile
{
    version     2.0;
    format      ascii;
    class       surfaceScalarField;
    location    "6.4";
    object      phi;
}
// * * * * * * * * * * * * * * * * * * * * * * * * * * * * * * * * * * * * * //

dimensions      [0 3 -1 0 0 0 0];

internalField   nonuniform List<scalar> 
42423
(
0.000110181
1.70181e-05
9.30548e-05
1.71261e-05
7.56934e-05
1.73614e-05
5.8154e-05
1.75394e-05
4.08542e-05
1.72998e-05
2.37574e-05
1.70968e-05
7.03655e-06
1.67209e-05
-9.06392e-06
1.61005e-05
-2.44422e-05
1.53783e-05
-3.89832e-05
1.4541e-05
-5.26622e-05
1.36791e-05
-6.5404e-05
1.27417e-05
-7.71904e-05
1.17865e-05
-8.80409e-05
1.08505e-05
-9.79159e-05
9.87501e-06
-0.000106867
8.95139e-06
-0.000114882
8.01446e-06
-0.000121967
7.08569e-06
-0.000128143
6.17567e-06
-0.000133386
5.24328e-06
-0.000137671
4.28445e-06
-0.000140992
3.32139e-06
-0.000143335
2.34276e-06
-0.000144718
1.38311e-06
-0.000144986
2.67877e-07
-0.0001444
-5.85756e-07
-0.000142897
-1.50296e-06
-0.000140472
-2.42527e-06
-0.000137106
-3.36623e-06
-0.000132849
-4.25634e-06
-0.000127725
-5.12425e-06
-0.000121721
-6.00406e-06
-0.000114961
-6.75985e-06
-0.000107422
-7.53878e-06
-9.92879e-05
-8.13428e-06
-9.0632e-05
-8.65592e-06
-8.14114e-05
-9.22064e-06
-7.18632e-05
-9.54819e-06
-6.2e-05
-9.86323e-06
-5.18892e-05
-1.01108e-05
-4.16714e-05
-1.02178e-05
-3.14096e-05
-1.02618e-05
-2.12906e-05
-1.0119e-05
-1.14285e-05
-9.86211e-06
-1.65982e-06
-9.76874e-06
7.4281e-06
-9.08795e-06
1.60164e-05
-8.58834e-06
2.40557e-05
-8.03934e-06
3.15085e-05
-7.45282e-06
3.83518e-05
-6.8433e-06
4.46089e-05
-6.2571e-06
5.02401e-05
-5.63125e-06
5.5254e-05
-5.0139e-06
5.9634e-05
-4.38e-06
6.33665e-05
-3.73254e-06
6.64388e-05
-3.07233e-06
6.88489e-05
-2.41012e-06
7.06125e-05
-1.76368e-06
7.17621e-05
-1.14962e-06
7.2318e-05
-5.55883e-07
7.23834e-05
-6.54693e-08
7.21435e-05
2.39935e-07
7.1346e-05
7.9746e-07
7.00022e-05
1.3438e-06
6.81403e-05
1.86189e-06
6.58569e-05
2.28338e-06
6.31524e-05
2.7044e-06
6.01299e-05
3.02251e-06
5.6774e-05
3.35589e-06
5.32056e-05
3.56838e-06
4.93907e-05
3.8149e-06
4.54646e-05
3.9261e-06
4.13638e-05
4.10081e-06
3.72145e-05
4.14925e-06
3.29399e-05
4.27462e-06
2.86572e-05
4.28264e-06
2.42818e-05
4.37537e-06
1.99161e-05
4.36572e-06
1.54801e-05
4.43598e-06
1.1028e-05
4.45209e-06
6.54442e-06
4.4836e-06
2.03547e-06
4.50894e-06
-2.46934e-06
4.50479e-06
-6.99834e-06
4.52899e-06
-1.15127e-05
4.51432e-06
-1.59748e-05
4.46214e-06
-2.03809e-05
4.40604e-06
-2.4693e-05
4.31212e-06
-2.88344e-05
4.1414e-06
-3.2794e-05
3.95965e-06
-3.64768e-05
3.68271e-06
-3.98633e-05
3.38657e-06
-4.29061e-05
3.0428e-06
-4.55589e-05
2.65279e-06
-4.77836e-05
2.2247e-06
-4.9551e-05
1.76734e-06
-5.08439e-05
1.29293e-06
-5.16519e-05
8.07959e-07
-5.19441e-05
2.92223e-07
-5.17307e-05
-2.1346e-07
-5.10235e-05
-7.07189e-07
-4.98436e-05
-1.17985e-06
-4.81817e-05
-1.66192e-06
-4.60854e-05
-2.09631e-06
-4.35507e-05
-2.53473e-06
-4.06149e-05
-2.93578e-06
-3.73001e-05
-3.3148e-06
-3.36591e-05
-3.64097e-06
-2.97242e-05
-3.93497e-06
-2.55266e-05
-4.19759e-06
-2.11538e-05
-4.3728e-06
-1.6618e-05
-4.53586e-06
-1.19531e-05
-4.66488e-06
-7.22808e-06
-4.72501e-06
-2.47325e-06
-4.75483e-06
2.26272e-06
-4.73598e-06
6.93715e-06
-4.67444e-06
1.15252e-05
-4.58807e-06
1.59653e-05
-4.44004e-06
2.0236e-05
-4.27071e-06
2.4309e-05
-4.073e-06
2.8163e-05
-3.85407e-06
3.17505e-05
-3.58748e-06
3.50562e-05
-3.3057e-06
3.80754e-05
-3.0192e-06
4.07879e-05
-2.71248e-06
4.31701e-05
-2.3822e-06
4.52183e-05
-2.04825e-06
4.69399e-05
-1.72163e-06
4.83116e-05
-1.37164e-06
4.93635e-05
-1.05195e-06
5.00845e-05
-7.20945e-07
5.04795e-05
-3.95046e-07
5.05651e-05
-8.56348e-08
5.03574e-05
2.07729e-07
4.98741e-05
4.83282e-07
4.91265e-05
7.47661e-07
4.8138e-05
9.88484e-07
4.69274e-05
1.21058e-06
4.55151e-05
1.4123e-06
4.39373e-05
1.57778e-06
4.22046e-05
1.73271e-06
4.03483e-05
1.85629e-06
3.83838e-05
1.96446e-06
3.63428e-05
2.04104e-06
3.42361e-05
2.10668e-06
3.20976e-05
2.13846e-06
2.99359e-05
2.16171e-06
2.77798e-05
2.15611e-06
2.56298e-05
2.14996e-06
2.35148e-05
2.11499e-06
2.14527e-05
2.06215e-06
1.94471e-05
2.00564e-06
1.75124e-05
1.93465e-06
1.56562e-05
1.85615e-06
1.38856e-05
1.77065e-06
1.22072e-05
1.67835e-06
1.06298e-05
1.57741e-06
9.14868e-06
1.48113e-06
7.7688e-06
1.37987e-06
6.49759e-06
1.27121e-06
5.31846e-06
1.17912e-06
4.23961e-06
1.07885e-06
3.26154e-06
9.78068e-07
2.37435e-06
8.87179e-07
1.58191e-06
7.9244e-07
8.76137e-07
7.05769e-07
2.50955e-07
6.25179e-07
-2.92326e-07
5.43277e-07
-7.64363e-07
4.72034e-07
-1.16635e-06
4.0198e-07
-1.50265e-06
3.36304e-07
-1.77954e-06
2.7688e-07
-1.99999e-06
2.20451e-07
-2.16915e-06
1.69156e-07
-2.29274e-06
1.23583e-07
-2.3733e-06
8.05642e-08
-2.41628e-06
4.29766e-08
-2.42659e-06
1.03025e-08
-2.40673e-06
-1.98594e-08
-2.36127e-06
-4.54633e-08
-2.29349e-06
-6.7778e-08
-2.20623e-06
-8.72583e-08
-2.10404e-06
-1.02198e-07
-1.98893e-06
-1.15106e-07
-1.86261e-06
-1.26321e-07
-1.72846e-06
-1.3415e-07
-1.58955e-06
-1.38911e-07
-1.44647e-06
-1.43082e-07
-1.30237e-06
-1.44107e-07
-1.15752e-06
-1.4485e-07
-1.01482e-06
-1.42698e-07
-8.72966e-07
-1.41853e-07
-7.34896e-07
-1.3807e-07
-6.0211e-07
-1.32786e-07
-4.7411e-07
-1.28e-07
-3.50908e-07
-1.23202e-07
-2.34444e-07
-1.16464e-07
-1.2468e-07
-1.09764e-07
-2.18914e-08
-1.02789e-07
7.43573e-08
-9.62486e-08
1.63686e-07
-8.93283e-08
2.45926e-07
-8.22397e-08
3.2124e-07
-7.53139e-08
3.89716e-07
-6.84757e-08
4.51489e-07
-6.17732e-08
5.06825e-07
-5.53359e-08
5.55857e-07
-4.90321e-08
5.98872e-07
-4.30145e-08
6.36226e-07
-3.73542e-08
6.68052e-07
-3.18256e-08
6.94729e-07
-2.66769e-08
7.16611e-07
-2.18813e-08
7.33889e-07
-1.72782e-08
7.46934e-07
-1.3045e-08
7.56088e-07
-9.15307e-09
7.61567e-07
-5.47938e-09
7.63724e-07
-2.15622e-09
7.6276e-07
9.63655e-10
7.59006e-07
3.75394e-09
7.52718e-07
6.28813e-09
7.44142e-07
8.5766e-09
7.33512e-07
1.06301e-08
7.21053e-07
1.24584e-08
7.06982e-07
1.40711e-08
6.91504e-07
1.54782e-08
6.74814e-07
1.66901e-08
6.57096e-07
1.77175e-08
6.38524e-07
1.85722e-08
6.19259e-07
1.92652e-08
5.99451e-07
1.98083e-08
5.79238e-07
2.02129e-08
5.58748e-07
2.04902e-08
5.38097e-07
2.06509e-08
5.17391e-07
2.07058e-08
4.96726e-07
2.06646e-08
4.76189e-07
2.05373e-08
4.55856e-07
2.03327e-08
4.35796e-07
2.00598e-08
4.1607e-07
1.97266e-08
3.96729e-07
1.93411e-08
3.77818e-07
1.89101e-08
3.59378e-07
1.84407e-08
3.41439e-07
1.79389e-08
3.24028e-07
1.74108e-08
3.07166e-07
1.68614e-08
2.9087e-07
1.62959e-08
2.75152e-07
1.57185e-08
2.60018e-07
1.51335e-08
2.45474e-07
1.45443e-08
2.31519e-07
1.39545e-08
2.18153e-07
1.33668e-08
2.05368e-07
1.2784e-08
1.9316e-07
1.22083e-08
1.81518e-07
1.16419e-08
1.70432e-07
1.10863e-08
1.59889e-07
1.05432e-08
1.49875e-07
1.00138e-08
1.40375e-07
9.49933e-09
1.31375e-07
9.00054e-09
1.22856e-07
8.51828e-09
1.14803e-07
8.05302e-09
1.07198e-07
7.60529e-09
1.00023e-07
7.17531e-09
9.32593e-08
6.76331e-09
8.689e-08
6.36927e-09
8.08968e-08
5.99317e-09
7.52619e-08
5.63478e-09
6.9968e-08
5.29387e-09
6.4998e-08
4.97002e-09
6.03351e-08
4.66282e-09
5.59634e-08
4.37172e-09
5.18671e-08
4.09622e-09
4.80314e-08
3.83567e-09
4.44419e-08
3.58952e-09
4.10847e-08
3.35711e-09
3.79469e-08
3.13785e-09
3.50158e-08
2.93109e-09
3.22795e-08
2.73626e-09
2.97267e-08
2.55273e-09
2.73468e-08
2.37995e-09
2.51294e-08
2.21734e-09
2.3065e-08
2.06436e-09
2.11445e-08
1.92049e-09
1.93593e-08
1.78522e-09
1.77012e-08
1.65808e-09
1.61626e-08
1.5386e-09
1.47362e-08
1.42636e-09
1.34152e-08
1.32094e-09
1.21933e-08
1.22197e-09
1.10642e-08
1.12907e-09
1.00223e-08
1.04192e-09
9.06205e-09
9.602e-10
8.17842e-09
8.83616e-10
7.36652e-09
8.11894e-10
6.62174e-09
7.44776e-10
5.9397e-09
6.82025e-10
5.31628e-09
6.23415e-10
4.74754e-09
5.68736e-10
4.22975e-09
5.17791e-10
3.75935e-09
4.70393e-10
3.33298e-09
4.26367e-10
2.94743e-09
3.85545e-10
2.59966e-09
3.47768e-10
2.28677e-09
3.12883e-10
2.00602e-09
2.80741e-10
1.75482e-09
2.512e-10
1.5307e-09
2.24121e-10
1.33133e-09
1.99367e-10
1.15452e-09
1.76805e-10
9.98213e-10
1.56305e-10
8.60472e-10
1.37739e-10
7.39489e-10
1.20982e-10
6.33579e-10
1.05909e-10
5.41177e-10
9.24006e-11
4.60836e-10
8.03396e-11
3.91223e-10
6.9612e-11
3.31114e-10
6.01072e-11
2.79394e-10
5.17194e-11
2.35046e-10
4.43468e-11
1.97153e-10
3.78928e-11
1.64886e-10
3.2266e-11
1.37505e-10
2.73803e-11
1.14349e-10
2.31555e-11
9.48317e-11
1.95169e-11
7.84354e-11
1.63958e-11
6.47056e-11
1.37294e-11
5.32449e-11
1.14603e-11
4.37077e-11
9.53684e-12
3.5795e-11
7.91249e-12
2.92489e-11
6.54584e-12
2.38486e-11
5.40014e-12
1.94054e-11
4.44303e-12
1.5759e-11
3.64618e-12
1.27739e-11
2.98493e-12
1.03359e-11
2.43793e-12
8.34901e-12
1.9868e-12
6.73311e-12
1.61581e-12
5.42146e-12
1.31158e-12
4.35866e-12
1.06274e-12
3.49888e-12
8.59719e-13
2.80436e-12
6.94477e-13
2.24404e-12
5.60288e-13
1.79245e-12
4.51552e-13
1.4288e-12
3.63627e-13
1.1361e-12
2.92676e-13
9.00543e-13
2.3554e-13
7.109e-13
1.89628e-13
5.58068e-13
1.52821e-13
4.34666e-13
1.23393e-13
3.34716e-13
9.99433e-14
2.53375e-13
8.13354e-14
1.86718e-13
6.66528e-14
1.31558e-13
5.51571e-14
8.53013e-14
4.62543e-14
4.58339e-14
3.94655e-14
3.4403e-14
0.000110198
3.40426e-05
9.30652e-05
3.42585e-05
7.56959e-05
3.47307e-05
5.81498e-05
3.50856e-05
4.08433e-05
3.46063e-05
2.37417e-05
3.41984e-05
7.01102e-06
3.34516e-05
-9.09415e-06
3.22057e-05
-2.44805e-05
3.07647e-05
-3.90248e-05
2.90854e-05
-5.27051e-05
2.73594e-05
-6.54529e-05
2.54896e-05
-7.72396e-05
2.35733e-05
-8.80913e-05
2.17022e-05
-9.79693e-05
1.9753e-05
-0.000106924
1.79063e-05
-0.000114942
1.60322e-05
-0.000122032
1.41758e-05
-0.000128213
1.2357e-05
-0.000133457
1.04875e-05
-0.000137741
8.56768e-06
-0.000141061
6.6423e-06
-0.000143402
4.68313e-06
-0.000144783
2.76416e-06
-0.000145053
5.37772e-07
-0.000144467
-1.17133e-06
-0.000142963
-3.00673e-06
-0.000140538
-4.85096e-06
-0.000137171
-6.73317e-06
-0.000132913
-8.51393e-06
-0.000127787
-1.02504e-05
-0.00012178
-1.20106e-05
-0.000115017
-1.35227e-05
-0.000107475
-1.50813e-05
-9.93362e-05
-1.6273e-05
-9.06756e-05
-1.73166e-05
-8.14499e-05
-1.84464e-05
-7.18953e-05
-1.91027e-05
-6.20274e-05
-1.97312e-05
-5.19092e-05
-2.02289e-05
-4.16864e-05
-2.04407e-05
-3.14191e-05
-2.05291e-05
-2.12948e-05
-2.02434e-05
-1.14278e-05
-1.97292e-05
-1.65184e-06
-1.95447e-05
7.44144e-06
-1.81813e-05
1.60325e-05
-1.71795e-05
2.40817e-05
-1.60886e-05
3.15556e-05
-1.49267e-05
3.84001e-05
-1.36879e-05
4.46521e-05
-1.25092e-05
5.029e-05
-1.12692e-05
5.53173e-05
-1.00413e-05
5.96998e-05
-8.76258e-06
6.34265e-05
-7.45932e-06
6.65011e-05
-6.14696e-06
6.89152e-05
-4.8243e-06
7.06804e-05
-3.52884e-06
7.18432e-05
-2.31256e-06
7.24106e-05
-1.12326e-06
7.24605e-05
-1.15483e-07
7.2203e-05
4.97394e-07
7.13971e-05
1.60339e-06
7.00463e-05
2.69453e-06
6.81794e-05
3.72872e-06
6.58924e-05
4.57032e-06
6.31822e-05
5.41462e-06
6.01552e-05
6.04947e-06
5.67939e-05
6.71712e-06
5.32207e-05
7.14154e-06
4.94006e-05
7.63502e-06
4.5471e-05
7.85569e-06
4.13679e-05
8.20383e-06
3.7215e-05
8.30221e-06
3.29432e-05
8.5464e-06
2.86533e-05
8.57251e-06
2.42808e-05
8.74783e-06
1.99069e-05
8.73963e-06
1.54717e-05
8.87114e-06
1.10178e-05
8.90591e-06
6.53297e-06
8.96845e-06
2.03749e-06
9.00441e-06
-2.48587e-06
9.02815e-06
-7.01868e-06
9.06179e-06
-1.15362e-05
9.03187e-06
-1.60015e-05
8.92739e-06
-2.04106e-05
8.81516e-06
-2.47259e-05
8.62735e-06
-2.88689e-05
8.28439e-06
-3.28315e-05
7.92231e-06
-3.65212e-05
7.37233e-06
-3.99114e-05
6.77679e-06
-4.29547e-05
6.08608e-06
-4.56023e-05
5.30043e-06
-4.78351e-05
4.45746e-06
-4.96e-05
3.53222e-06
-5.08932e-05
2.58611e-06
-5.16989e-05
1.61368e-06
-5.19895e-05
5.82814e-07
-5.17755e-05
-4.27425e-07
-5.10665e-05
-1.41627e-06
-4.9884e-05
-2.36236e-06
-4.82224e-05
-3.32351e-06
-4.61218e-05
-4.19688e-06
-4.35862e-05
-5.07039e-06
-4.06466e-05
-5.87541e-06
-3.73303e-05
-6.63113e-06
-3.36827e-05
-7.28848e-06
-2.97483e-05
-7.8694e-06
-2.55448e-05
-8.4011e-06
-2.11689e-05
-8.74876e-06
-1.66295e-05
-9.07526e-06
-1.19609e-05
-9.33348e-06
-7.23208e-06
-9.45385e-06
-2.47399e-06
-9.51293e-06
2.26577e-06
-9.47576e-06
6.94366e-06
-9.35233e-06
1.15356e-05
-9.18003e-06
1.59792e-05
-8.88365e-06
2.02526e-05
-8.54408e-06
2.43278e-05
-8.14821e-06
2.81839e-05
-7.7102e-06
3.17752e-05
-7.17876e-06
3.50827e-05
-6.61321e-06
3.81032e-05
-6.03976e-06
4.08187e-05
-5.42797e-06
4.32002e-05
-4.76374e-06
4.52489e-05
-4.09692e-06
4.69715e-05
-3.44429e-06
4.83426e-05
-2.74274e-06
4.93935e-05
-2.10287e-06
5.01162e-05
-1.44368e-06
5.05109e-05
-7.89704e-07
5.05959e-05
-1.7069e-07
5.03866e-05
4.1708e-07
4.99029e-05
9.66994e-07
4.9154e-05
1.49654e-06
4.8164e-05
1.97843e-06
4.69516e-05
2.423e-06
4.5538e-05
2.82593e-06
4.39584e-05
3.15733e-06
4.22263e-05
3.46477e-06
4.03661e-05
3.71648e-06
3.84016e-05
3.92898e-06
3.63573e-05
4.08532e-06
3.4249e-05
4.21497e-06
3.21089e-05
4.27855e-06
2.99457e-05
4.32498e-06
2.77887e-05
4.31305e-06
2.56368e-05
4.30184e-06
2.35212e-05
4.23058e-06
2.14571e-05
4.12623e-06
1.94504e-05
4.0124e-06
1.75174e-05
3.86758e-06
1.56576e-05
3.71602e-06
1.38861e-05
3.54212e-06
1.22075e-05
3.35695e-06
1.06289e-05
3.15595e-06
9.14728e-06
2.96277e-06
7.76702e-06
2.76012e-06
6.49453e-06
2.5437e-06
5.31579e-06
2.35785e-06
4.23685e-06
2.15779e-06
3.25849e-06
1.95641e-06
2.37128e-06
1.77439e-06
1.57858e-06
1.58513e-06
8.72791e-07
1.41155e-06
2.4798e-07
1.24998e-06
-2.95658e-07
1.08691e-06
-7.67741e-07
9.4411e-07
-1.16975e-06
8.03985e-07
-1.50593e-06
6.72474e-07
-1.78265e-06
5.53595e-07
-2.00307e-06
4.40861e-07
-2.17204e-06
3.38125e-07
-2.29546e-06
2.46999e-07
-2.37592e-06
1.61016e-07
-2.41869e-06
8.5751e-08
-2.42886e-06
2.0465e-08
-2.40882e-06
-3.99033e-08
-2.36318e-06
-9.11075e-08
-2.29521e-06
-1.35753e-07
-2.20778e-06
-1.74689e-07
-2.10539e-06
-2.0459e-07
-1.9902e-06
-2.30296e-07
-1.86366e-06
-2.52862e-07
-1.72946e-06
-2.68355e-07
-1.59034e-06
-2.78034e-07
-1.44712e-06
-2.86301e-07
-1.3029e-06
-2.88325e-07
-1.15791e-06
-2.89838e-07
-1.01512e-06
-2.85491e-07
-8.73187e-07
-2.83787e-07
-7.35084e-07
-2.76173e-07
-6.02174e-07
-2.65696e-07
-4.74166e-07
-2.56008e-07
-3.50828e-07
-2.46541e-07
-2.34318e-07
-2.32973e-07
-1.24499e-07
-2.19583e-07
-2.16703e-08
-2.05618e-07
7.46422e-08
-1.92561e-07
1.64008e-07
-1.78694e-07
2.46278e-07
-1.64509e-07
3.21617e-07
-1.50653e-07
3.90111e-07
-1.36969e-07
4.51898e-07
-1.2356e-07
5.07246e-07
-1.10684e-07
5.56285e-07
-9.80702e-08
5.99304e-07
-8.6033e-08
6.36658e-07
-7.47085e-08
6.68483e-07
-6.36502e-08
6.95158e-07
-5.33515e-08
7.17033e-07
-4.37556e-08
7.34305e-07
-3.45505e-08
7.47342e-07
-2.60809e-08
7.56487e-07
-1.82978e-08
7.61957e-07
-1.09493e-08
7.641e-07
-4.29926e-09
7.63126e-07
1.93835e-09
7.5936e-07
7.51975e-09
7.5306e-07
1.25886e-08
7.4447e-07
1.71659e-08
7.33827e-07
2.12732e-08
7.21356e-07
2.49299e-08
7.07272e-07
2.81555e-08
6.9178e-07
3.09696e-08
6.75077e-07
3.33934e-08
6.57346e-07
3.54482e-08
6.38761e-07
3.71572e-08
6.19484e-07
3.85429e-08
5.99663e-07
3.96289e-08
5.79438e-07
4.04377e-08
5.58936e-07
4.09919e-08
5.38274e-07
4.1313e-08
5.17558e-07
4.14223e-08
4.96883e-07
4.13395e-08
4.76335e-07
4.10844e-08
4.55993e-07
4.06748e-08
4.35924e-07
4.01287e-08
4.16189e-07
3.94619e-08
3.9684e-07
3.86903e-08
3.77922e-07
3.78279e-08
3.59474e-07
3.68887e-08
3.41528e-07
3.58848e-08
3.2411e-07
3.48281e-08
3.07242e-07
3.3729e-08
2.90941e-07
3.25975e-08
2.75217e-07
3.14424e-08
2.60078e-07
3.0272e-08
2.45529e-07
2.90933e-08
2.3157e-07
2.79134e-08
2.18199e-07
2.67377e-08
2.05411e-07
2.55718e-08
1.93199e-07
2.44202e-08
1.81554e-07
2.3287e-08
1.70464e-07
2.21756e-08
1.59918e-07
2.10892e-08
1.49902e-07
2.00302e-08
1.404e-07
1.9001e-08
1.31397e-07
1.80033e-08
1.22877e-07
1.70385e-08
1.14822e-07
1.61078e-08
1.07215e-07
1.52122e-08
1.00038e-07
1.4352e-08
9.32735e-08
1.35279e-08
8.6903e-08
1.27396e-08
8.09088e-08
1.19873e-08
7.52731e-08
1.12704e-08
6.99785e-08
1.05885e-08
6.50077e-08
9.94068e-09
6.03443e-08
9.32622e-09
5.59719e-08
8.74398e-09
5.18752e-08
8.19293e-09
4.8039e-08
7.67182e-09
4.44489e-08
7.1795e-09
4.10913e-08
6.71466e-09
3.7953e-08
6.27612e-09
3.50215e-08
5.8626e-09
3.22848e-08
5.47292e-09
2.97316e-08
5.10586e-09
2.73512e-08
4.76029e-09
2.51335e-08
4.43504e-09
2.30687e-08
4.12907e-09
2.11479e-08
3.84131e-09
1.93623e-08
3.57076e-09
1.77039e-08
3.31645e-09
1.6165e-08
3.07749e-09
1.47384e-08
2.85298e-09
1.34172e-08
2.64213e-09
1.21949e-08
2.44416e-09
1.10657e-08
2.25835e-09
1.00235e-08
2.08403e-09
9.06313e-09
1.92058e-09
8.17934e-09
1.76739e-09
7.36728e-09
1.62393e-09
6.62236e-09
1.48968e-09
5.94021e-09
1.36417e-09
5.31667e-09
1.24694e-09
4.74783e-09
1.13757e-09
4.22995e-09
1.03566e-09
3.75948e-09
9.40858e-10
3.33304e-09
8.52795e-10
2.94744e-09
7.71143e-10
2.59962e-09
6.9558e-10
2.28669e-09
6.25802e-10
2.00592e-09
5.61511e-10
1.75469e-09
5.02422e-10
1.53055e-09
4.48257e-10
1.33117e-09
3.98744e-10
1.15435e-09
3.53616e-10
9.98044e-10
3.12613e-10
8.60302e-10
2.75477e-10
7.39322e-10
2.41959e-10
6.33417e-10
2.11811e-10
5.41022e-10
1.84793e-10
4.60689e-10
1.6067e-10
3.91086e-10
1.39214e-10
3.30987e-10
1.20204e-10
2.79277e-10
1.03428e-10
2.3494e-10
8.86826e-11
1.97057e-10
7.57749e-11
1.648e-10
6.45216e-11
1.37428e-10
5.47508e-11
1.14281e-10
4.63017e-11
9.47717e-11
3.90252e-11
7.8383e-11
3.27838e-11
6.466e-11
2.74517e-11
5.32055e-11
2.29142e-11
4.36739e-11
1.90679e-11
3.57661e-11
1.58199e-11
2.92243e-11
1.30872e-11
2.38277e-11
1.07964e-11
1.93878e-11
8.88267e-12
1.57443e-11
7.28943e-12
1.27616e-11
5.96735e-12
1.03257e-11
4.87371e-12
8.34052e-12
3.97177e-12
6.7261e-12
3.23009e-12
5.41569e-12
2.62186e-12
4.35392e-12
2.1244e-12
3.49501e-12
1.71854e-12
2.80121e-12
1.38821e-12
2.24147e-12
1.11996e-12
1.79037e-12
9.02597e-13
1.42712e-12
7.26838e-13
1.13475e-12
5.85011e-13
8.99462e-13
4.70802e-13
7.10039e-13
3.79029e-13
5.57385e-13
3.05457e-13
4.34129e-13
2.46636e-13
3.34298e-13
1.99764e-13
2.53055e-13
1.6257e-13
1.8648e-13
1.33222e-13
1.31388e-13
1.10244e-13
8.51899e-14
9.2449e-14
4.57736e-14
7.88786e-14
6.87557e-14
0.000110226
5.10844e-05
9.3078e-05
5.14069e-05
7.56908e-05
5.21179e-05
5.81312e-05
5.26452e-05
4.08122e-05
5.19253e-05
2.37021e-05
5.13085e-05
6.95562e-06
5.01982e-05
-9.15803e-06
4.83194e-05
-2.45538e-05
4.61604e-05
-3.91064e-05
4.3638e-05
-5.27974e-05
4.10504e-05
-6.5561e-05
3.82532e-05
-7.73544e-05
3.53667e-05
-8.82035e-05
3.25513e-05
-9.8082e-05
2.96315e-05
-0.000107043
2.68676e-05
-0.000115068
2.40568e-05
-0.000122159
2.12673e-05
-0.000128338
1.85354e-05
-0.00013358
1.57295e-05
-0.000137862
1.28503e-05
-0.000141192
9.97169e-06
-0.000143548
7.03968e-06
-0.000144919
4.13468e-06
-0.000145155
7.74531e-07
-0.000144548
-1.77892e-06
-0.000143042
-4.51239e-06
-0.000140616
-7.27732e-06
-0.000137248
-1.01013e-05
-0.000132988
-1.27736e-05
-0.000127859
-1.53797e-05
-0.000121847
-1.80219e-05
-0.000115079
-2.02913e-05
-0.000107529
-2.26308e-05
-9.93819e-05
-2.44203e-05
-9.07124e-05
-2.59861e-05
-8.1477e-05
-2.76818e-05
-7.19101e-05
-2.86696e-05
-6.20336e-05
-2.96077e-05
-5.19015e-05
-3.03611e-05
-4.16705e-05
-3.06717e-05
-3.13937e-05
-3.08058e-05
-2.12608e-05
-3.03764e-05
-1.13855e-05
-2.96044e-05
-1.60677e-06
-2.93235e-05
7.49112e-06
-2.72792e-05
1.60873e-05
-2.57757e-05
2.41428e-05
-2.41441e-05
3.16175e-05
-2.24014e-05
3.84659e-05
-2.05363e-05
4.47186e-05
-1.87619e-05
5.03589e-05
-1.69096e-05
5.53921e-05
-1.50745e-05
5.97819e-05
-1.31524e-05
6.35086e-05
-1.11861e-05
6.65874e-05
-9.22581e-06
6.90143e-05
-7.2512e-06
7.07868e-05
-5.30139e-06
7.19518e-05
-3.47768e-06
7.25149e-05
-1.68634e-06
7.25503e-05
-1.50927e-07
7.22602e-05
7.87404e-07
7.14252e-05
2.4384e-06
7.00652e-05
4.05442e-06
6.8193e-05
5.60091e-06
6.59012e-05
6.86212e-06
6.31866e-05
8.12918e-06
6.01573e-05
9.07872e-06
5.67919e-05
1.00825e-05
5.32185e-05
1.0715e-05
4.93945e-05
1.1459e-05
4.54662e-05
1.1784e-05
4.13614e-05
1.23086e-05
3.72101e-05
1.24535e-05
3.29404e-05
1.2816e-05
2.86489e-05
1.28639e-05
2.42792e-05
1.31176e-05
1.99051e-05
1.31137e-05
1.54716e-05
1.33046e-05
1.102e-05
1.33575e-05
6.53488e-06
1.34536e-05
2.03916e-06
1.35001e-05
-2.48269e-06
1.355e-05
-7.01713e-06
1.35962e-05
-1.15386e-05
1.35533e-05
-1.60083e-05
1.33971e-05
-2.04205e-05
1.32273e-05
-2.47391e-05
1.29459e-05
-2.88856e-05
1.24309e-05
-3.28519e-05
1.18885e-05
-3.65453e-05
1.10658e-05
-3.99412e-05
1.01727e-05
-4.29878e-05
9.13261e-06
-4.56368e-05
7.94943e-06
-4.78733e-05
6.694e-06
-4.96421e-05
5.30094e-06
-5.09379e-05
3.88191e-06
-5.17401e-05
2.41595e-06
-5.20284e-05
8.71045e-07
-5.18145e-05
-6.41272e-07
-5.11061e-05
-2.12469e-06
-4.992e-05
-3.54844e-06
-4.82603e-05
-4.98329e-06
-4.61552e-05
-6.302e-06
-4.36181e-05
-7.60745e-06
-4.0675e-05
-8.81855e-06
-3.73563e-05
-9.94978e-06
-3.37058e-05
-1.0939e-05
-2.97681e-05
-1.18071e-05
-2.55608e-05
-1.26084e-05
-2.11815e-05
-1.31281e-05
-1.66371e-05
-1.36197e-05
-1.19652e-05
-1.40054e-05
-7.23327e-06
-1.41858e-05
-2.47188e-06
-1.42743e-05
2.27035e-06
-1.4218e-05
6.95209e-06
-1.40341e-05
1.15473e-05
-1.37753e-05
1.59947e-05
-1.3331e-05
2.02713e-05
-1.28207e-05
2.43467e-05
-1.22236e-05
2.82053e-05
-1.15688e-05
3.17983e-05
-1.07718e-05
3.51092e-05
-9.92413e-06
3.81279e-05
-9.05847e-06
4.08447e-05
-8.14471e-06
4.32272e-05
-7.14625e-06
4.52763e-05
-6.14606e-06
4.69996e-05
-5.16765e-06
4.83725e-05
-4.1156e-06
4.94205e-05
-3.15085e-06
5.01432e-05
-2.16647e-06
5.05371e-05
-1.18361e-06
5.0621e-05
-2.54516e-07
5.04082e-05
6.29886e-07
4.99237e-05
1.45143e-06
4.91733e-05
2.24699e-06
4.81815e-05
2.97019e-06
4.69671e-05
3.63734e-06
4.55525e-05
4.24061e-06
4.39703e-05
4.73943e-06
4.22403e-05
5.19485e-06
4.03744e-05
5.58233e-06
3.84122e-05
5.89116e-06
3.63621e-05
6.13541e-06
3.42522e-05
6.32489e-06
3.21103e-05
6.42045e-06
2.99454e-05
6.48986e-06
2.77845e-05
6.47394e-06
2.56342e-05
6.4522e-06
2.35195e-05
6.34527e-06
2.14525e-05
6.19319e-06
1.94448e-05
6.0201e-06
1.75114e-05
5.80091e-06
1.56506e-05
5.57686e-06
1.38787e-05
5.31398e-06
1.2201e-05
5.03468e-06
1.06211e-05
4.73589e-06
9.13949e-06
4.44433e-06
7.75938e-06
4.14022e-06
6.48545e-06
3.81761e-06
5.30787e-06
3.53542e-06
4.22947e-06
3.23619e-06
3.2512e-06
2.93468e-06
2.36446e-06
2.66111e-06
1.57172e-06
2.37787e-06
8.66282e-07
2.11698e-06
2.42803e-07
1.87345e-06
-3.01295e-07
1.631e-06
-7.72943e-07
1.41575e-06
-1.17493e-06
1.20597e-06
-1.51076e-06
1.0083e-06
-1.7867e-06
8.29526e-07
-2.00713e-06
6.61281e-07
-2.17574e-06
5.06735e-07
-2.29857e-06
3.69828e-07
-2.37891e-06
2.41353e-07
-2.42141e-06
1.28246e-07
-2.4312e-06
3.02491e-08
-2.41086e-06
-6.02474e-08
-2.36493e-06
-1.37043e-07
-2.29671e-06
-2.03975e-07
-2.20912e-06
-2.62281e-07
-2.10639e-06
-3.07322e-07
-1.99109e-06
-3.45593e-07
-1.86427e-06
-3.79682e-07
-1.73012e-06
-4.0251e-07
-1.59063e-06
-4.17524e-07
-1.44726e-06
-4.29678e-07
-1.30289e-06
-4.32691e-07
-1.15777e-06
-4.34956e-07
-1.01473e-06
-4.28538e-07
-8.72914e-07
-4.25601e-07
-7.34842e-07
-4.14245e-07
-6.01769e-07
-3.98769e-07
-4.73796e-07
-3.83981e-07
-3.50325e-07
-3.70012e-07
-2.33798e-07
-3.495e-07
-1.23951e-07
-3.2943e-07
-2.10978e-08
-3.0847e-07
7.51988e-08
-2.88857e-07
1.64561e-07
-2.68056e-07
2.46826e-07
-2.46774e-07
3.22159e-07
-2.25985e-07
3.90638e-07
-2.05448e-07
4.5241e-07
-1.85332e-07
5.07743e-07
-1.66016e-07
5.5676e-07
-1.47087e-07
5.99758e-07
-1.29031e-07
6.37088e-07
-1.12038e-07
6.6889e-07
-9.54517e-08
6.95544e-07
-8.00048e-08
7.17391e-07
-6.5602e-08
7.34641e-07
-5.18007e-08
7.47652e-07
-3.90914e-08
7.56775e-07
-2.74206e-08
7.62224e-07
-1.63983e-08
7.64341e-07
-6.41562e-09
7.63346e-07
2.93311e-09
7.5956e-07
1.13057e-08
7.53241e-07
1.89083e-08
7.44633e-07
2.57737e-08
7.33972e-07
3.19341e-08
7.21484e-07
3.74184e-08
7.07383e-07
4.22562e-08
6.91877e-07
4.64764e-08
6.75159e-07
5.01112e-08
6.57415e-07
5.31925e-08
6.38817e-07
5.57549e-08
6.19527e-07
5.78325e-08
5.99696e-07
5.94605e-08
5.79461e-07
6.06726e-08
5.5895e-07
6.15029e-08
5.38279e-07
6.19834e-08
5.17555e-07
6.21464e-08
4.96873e-07
6.20212e-08
4.7632e-07
6.16376e-08
4.55972e-07
6.10224e-08
4.35899e-07
6.02023e-08
4.16159e-07
5.92013e-08
3.96806e-07
5.80431e-08
3.77885e-07
5.67488e-08
3.59434e-07
5.53393e-08
3.41486e-07
5.38328e-08
3.24067e-07
5.22471e-08
3.07198e-07
5.05978e-08
2.90896e-07
4.89001e-08
2.75171e-07
4.71669e-08
2.60032e-07
4.54108e-08
2.45483e-07
4.36424e-08
2.31524e-07
4.18721e-08
2.18153e-07
4.01082e-08
2.05366e-07
3.83591e-08
1.93155e-07
3.66313e-08
1.8151e-07
3.49313e-08
1.70422e-07
3.32639e-08
1.59877e-07
3.16341e-08
1.49861e-07
3.00455e-08
1.40361e-07
2.85015e-08
1.31359e-07
2.70047e-08
1.2284e-07
2.55574e-08
1.14787e-07
2.41613e-08
1.07181e-07
2.28177e-08
1.00006e-07
2.15274e-08
9.32426e-08
2.0291e-08
8.68735e-08
1.91086e-08
8.08807e-08
1.798e-08
7.52464e-08
1.69046e-08
6.99531e-08
1.58817e-08
6.49838e-08
1.491e-08
6.03216e-08
1.39883e-08
5.59506e-08
1.3115e-08
5.18551e-08
1.22884e-08
4.80201e-08
1.15068e-08
4.44312e-08
1.07683e-08
4.10747e-08
1.00711e-08
3.79375e-08
9.41334e-09
3.50069e-08
8.7931e-09
3.22712e-08
8.20862e-09
2.97189e-08
7.65807e-09
2.73394e-08
7.13975e-09
2.51225e-08
6.65193e-09
2.30585e-08
6.19302e-09
2.11384e-08
5.76141e-09
1.93535e-08
5.35562e-09
1.76958e-08
4.9742e-09
1.61574e-08
4.61578e-09
1.47313e-08
4.27905e-09
1.34107e-08
3.96281e-09
1.21889e-08
3.66587e-09
1.10601e-08
3.38719e-09
1.00183e-08
3.12573e-09
9.05834e-09
2.88057e-09
8.1749e-09
2.65081e-09
7.36318e-09
2.43565e-09
6.61856e-09
2.23429e-09
5.93669e-09
2.04603e-09
5.31342e-09
1.87019e-09
4.74483e-09
1.70615e-09
4.22718e-09
1.55331e-09
3.75692e-09
1.41111e-09
3.33068e-09
1.27902e-09
2.94526e-09
1.15655e-09
2.59762e-09
1.04322e-09
2.28486e-09
9.38557e-10
2.00424e-09
8.42127e-10
1.75315e-09
7.53501e-10
1.52915e-09
6.72259e-10
1.32989e-09
5.97996e-10
1.15319e-09
5.3031e-10
9.96993e-10
4.6881e-10
8.59354e-10
4.13113e-10
7.38469e-10
3.62842e-10
6.32652e-10
3.17625e-10
5.40338e-10
2.77104e-10
4.60081e-10
2.40925e-10
3.90546e-10
2.08747e-10
3.3051e-10
1.80237e-10
2.78857e-10
1.55079e-10
2.34572e-10
1.32967e-10
1.96735e-10
1.1361e-10
1.6452e-10
9.67354e-11
1.37186e-10
8.20839e-11
1.14072e-10
6.94147e-11
9.45926e-11
5.85042e-11
7.82297e-11
4.91459e-11
6.45295e-11
4.11513e-11
5.30948e-11
3.43484e-11
4.35803e-11
2.85819e-11
3.56873e-11
2.37125e-11
2.91582e-11
1.96159e-11
2.37725e-11
1.61817e-11
1.93418e-11
1.33131e-11
1.57061e-11
1.09249e-11
1.27301e-11
8.94318e-12
1.02997e-11
7.30395e-12
8.31915e-12
5.95212e-12
6.70859e-12
4.8405e-12
5.40139e-12
3.92895e-12
4.34228e-12
3.18341e-12
3.48556e-12
2.57518e-12
2.79355e-12
2.08015e-12
2.23529e-12
1.67816e-12
1.7854e-12
1.35244e-12
1.42313e-12
1.08907e-12
1.13156e-12
8.7655e-13
8.96916e-13
7.05416e-13
7.08019e-13
5.67904e-13
5.55793e-13
4.57667e-13
4.32883e-13
3.69532e-13
3.33335e-13
2.99302e-13
2.52324e-13
2.43573e-13
1.8594e-13
1.99601e-13
1.31008e-13
1.65172e-13
8.49444e-14
1.38509e-13
4.56453e-14
1.18175e-13
1.03e-13
0.000110269
6.81523e-05
9.30971e-05
6.85791e-05
7.5683e-05
6.95319e-05
5.8103e-05
7.02253e-05
4.07653e-05
6.9263e-05
2.36431e-05
6.84308e-05
6.87297e-06
6.69683e-05
-9.25784e-06
6.44502e-05
-2.46707e-05
6.15733e-05
-3.92382e-05
5.82056e-05
-5.29421e-05
5.47544e-05
-6.57151e-05
5.10262e-05
-7.75259e-05
4.71775e-05
-8.83965e-05
4.34219e-05
-9.829e-05
3.95251e-05
-0.000107269
3.58465e-05
-0.000115308
3.20956e-05
-0.000122405
2.83644e-05
-0.000128582
2.47122e-05
-0.000133821
2.09694e-05
-0.000138111
1.714e-05
-0.000141449
1.33093e-05
-0.000143785
9.3765e-06
-0.000145094
5.44333e-06
-0.000145287
9.67701e-07
-0.000144668
-2.39783e-06
-0.000143161
-6.01997e-06
-0.000140733
-9.70461e-06
-0.000137363
-1.34713e-05
-0.000133101
-1.70365e-05
-0.000127966
-2.05139e-05
-0.000121948
-2.40401e-05
-0.000115171
-2.70682e-05
-0.000107611
-3.01909e-05
-9.9451e-05
-3.25805e-05
-9.0768e-05
-3.46691e-05
-8.15181e-05
-3.69317e-05
-7.19328e-05
-3.82549e-05
-6.20436e-05
-3.94969e-05
-5.18906e-05
-4.0514e-05
-4.1647e-05
-4.09154e-05
-3.13553e-05
-4.10975e-05
-2.12099e-05
-4.05218e-05
-1.13233e-05
-3.9491e-05
-1.53993e-06
-3.91069e-05
7.56621e-06
-3.63854e-05
1.61695e-05
-3.4379e-05
2.42388e-05
-3.22135e-05
3.17213e-05
-2.9884e-05
3.85773e-05
-2.73923e-05
4.48294e-05
-2.50141e-05
5.04651e-05
-2.25453e-05
5.54981e-05
-2.01075e-05
5.98918e-05
-1.75462e-05
6.36191e-05
-1.49134e-05
6.66908e-05
-1.22976e-05
6.91077e-05
-9.66812e-06
7.08765e-05
-7.07025e-06
7.20459e-05
-4.64711e-06
7.26213e-05
-2.26183e-06
7.26573e-05
-1.8697e-07
7.23338e-05
1.11083e-06
7.14641e-05
3.30813e-06
7.00923e-05
5.42616e-06
6.82126e-05
7.4806e-06
6.59137e-05
9.16093e-06
6.31929e-05
1.085e-05
6.01599e-05
1.21117e-05
5.67885e-05
1.34538e-05
5.32143e-05
1.42892e-05
4.93848e-05
1.52884e-05
4.54588e-05
1.57099e-05
4.13528e-05
1.64147e-05
3.72031e-05
1.66031e-05
3.29375e-05
1.70817e-05
2.86438e-05
1.71575e-05
2.42768e-05
1.74846e-05
1.99035e-05
1.7487e-05
1.54721e-05
1.7736e-05
1.10215e-05
1.78081e-05
6.53906e-06
1.7936e-05
2.04235e-06
1.79968e-05
-2.48008e-06
1.80724e-05
-7.01665e-06
1.81328e-05
-1.15408e-05
1.80774e-05
-1.6016e-05
1.78724e-05
-2.04361e-05
1.76474e-05
-2.47609e-05
1.72707e-05
-2.89142e-05
1.65842e-05
-3.28881e-05
1.58624e-05
-3.65858e-05
1.47635e-05
-3.9986e-05
1.35728e-05
-4.30369e-05
1.21835e-05
-4.56918e-05
1.06043e-05
-4.79327e-05
8.93492e-06
-4.97012e-05
7.06936e-06
-5.09985e-05
5.17928e-06
-5.18009e-05
3.21836e-06
-5.20886e-05
1.15873e-06
-5.18737e-05
-8.56222e-07
-5.11645e-05
-2.8339e-06
-4.99757e-05
-4.73727e-06
-4.83185e-05
-6.64048e-06
-4.62052e-05
-8.41528e-06
-4.36659e-05
-1.01468e-05
-4.07182e-05
-1.17663e-05
-3.73963e-05
-1.32717e-05
-3.374e-05
-1.45954e-05
-2.97982e-05
-1.57489e-05
-2.55853e-05
-1.68213e-05
-2.12003e-05
-1.75131e-05
-1.66511e-05
-1.81689e-05
-1.19728e-05
-1.86837e-05
-7.23554e-06
-1.8923e-05
-2.46946e-06
-1.90404e-05
2.27817e-06
-1.89656e-05
6.96354e-06
-1.87195e-05
1.15639e-05
-1.83757e-05
1.60157e-05
-1.77828e-05
2.02981e-05
-1.71031e-05
2.43742e-05
-1.62996e-05
2.8235e-05
-1.54296e-05
3.18325e-05
-1.43693e-05
3.51475e-05