/*--------------------------------*- C++ -*----------------------------------*\
| =========                 |                                                 |
| \\      /  F ield         | OpenFOAM: The Open Source CFD Toolbox           |
|  \\    /   O peration     | Version:  3.0.1                                 |
|   \\  /    A nd           | Web:      www.OpenFOAM.org                      |
|    \\/     M anipulation  |                                                 |
\*---------------------------------------------------------------------------*/
FoamFile
{
    version     2.0;
    format      ascii;
    class       surfaceScalarField;
    location    "32.2";
    object      alphaPhi;
}
// * * * * * * * * * * * * * * * * * * * * * * * * * * * * * * * * * * * * * //

dimensions      [0 3 -1 0 0 0 0];

internalField   nonuniform List<scalar> 
42423
(
-4.04017e-06
1.6003e-05
-1.94506e-05
1.54104e-05
-3.41084e-05
1.46578e-05
-4.79205e-05
1.38121e-05
-6.07785e-05
1.28579e-05
-7.2724e-05
1.19455e-05
-8.36989e-05
1.09749e-05
-9.37558e-05
1.00569e-05
-0.000102891
9.13513e-06
-0.000111114
8.2235e-06
-0.000118466
7.35177e-06
-0.000124977
6.51063e-06
-0.000130674
5.69725e-06
-0.000135595
4.92122e-06
-0.000139769
4.17386e-06
-0.000143237
3.46769e-06
-0.000146031
2.79446e-06
-0.000148157
2.12572e-06
-0.000149652
1.49541e-06
-0.000150558
9.05297e-07
-0.000150829
2.71282e-07
-0.000150458
-3.70675e-07
-0.000149483
-9.75517e-07
-0.00014784
-1.64328e-06
-0.00014558
-2.26012e-06
-0.000142674
-2.90534e-06
-0.000139071
-3.60352e-06
-0.000134824
-4.24707e-06
-0.000129801
-5.02228e-06
-0.000124053
-5.74877e-06
-0.000117553
-6.49971e-06
-0.00011023
-7.32274e-06
-0.000102046
-8.18433e-06
-9.2864e-05
-9.18191e-06
-8.27889e-05
-1.00751e-05
-7.1921e-05
-1.08679e-05
-6.0113e-05
-1.1808e-05
-4.72571e-05
-1.2856e-05
-3.35477e-05
-1.37095e-05
-1.88842e-05
-1.46635e-05
-3.41161e-06
-1.54726e-05
1.28335e-05
-1.62452e-05
2.98249e-05
-1.69914e-05
4.72141e-05
-1.73893e-05
6.50616e-05
-1.78475e-05
8.31826e-05
-1.81211e-05
0.000101207
-1.80246e-05
0.000119106
-1.78992e-05
0.000136651
-1.7545e-05
0.000153468
-1.68172e-05
0.000169486
-1.60182e-05
0.000184399
-1.49122e-05
0.000197971
-1.35726e-05
0.000210055
-1.20839e-05
0.000220327
-1.02715e-05
0.000228734
-8.40768e-06
0.000235176
-6.4419e-06
0.000239404
-4.22828e-06
0.00024139
-1.986e-06
0.000241031
3.59359e-07
0.000238454
2.57675e-06
0.000233677
4.77667e-06
0.000226762
6.91496e-06
0.000217789
8.97333e-06
0.000206933
1.08563e-05
0.000194451
1.24818e-05
0.000180469
1.39822e-05
0.000165128
1.53409e-05
0.000148837
1.62904e-05
0.000131729
1.71086e-05
0.000114061
1.76672e-05
9.60556e-05
1.80058e-05
7.78074e-05
1.82483e-05
5.95492e-05
1.82582e-05
4.15088e-05
1.80404e-05
2.38641e-05
1.76447e-05
6.7646e-06
1.70995e-05
-9.71324e-06
1.64778e-05
-2.55924e-05
1.58792e-05
-4.06266e-05
1.50341e-05
-5.48293e-05
1.42027e-05
-6.8224e-05
1.33947e-05
-8.06133e-05
1.23892e-05
-9.21278e-05
1.15145e-05
-0.000102687
1.05591e-05
-0.000112243
9.55566e-06
-0.000120935
8.69176e-06
-0.000128562
7.6273e-06
-0.000135399
6.83665e-06
-0.000141203
5.80416e-06
-0.000146166
4.96258e-06
-0.00015032
4.15478e-06
-0.000153612
3.2912e-06
-0.000156107
2.49508e-06
-0.000157808
1.7011e-06
-0.000158737
9.28701e-07
-0.000159036
2.99624e-07
-0.000158602
-4.34257e-07
-0.00015754
-1.06202e-06
-0.000155839
-1.70119e-06
-0.000153528
-2.31093e-06
-0.000150511
-3.01752e-06
-0.000146896
-3.61464e-06
-0.000142555
-4.34141e-06
-0.000137438
-5.11638e-06
-0.000131715
-5.72292e-06
-0.000125096
-6.61897e-06
-0.000117811
-7.28496e-06
-0.000109701
-8.1106e-06
-0.000100764
-8.93682e-06
-9.09937e-05
-9.7705e-06
-8.04413e-05
-1.05525e-05
-6.90358e-05
-1.14056e-05
-5.68118e-05
-1.2224e-05
-4.3786e-05
-1.30259e-05
-3.00289e-05
-1.37572e-05
-1.55365e-05
-1.44925e-05
-3.8978e-07
-1.51468e-05
1.53331e-05
-1.5723e-05
3.15352e-05
-1.62021e-05
4.81159e-05
-1.65808e-05
6.49538e-05
-1.68381e-05
8.18868e-05
-1.6933e-05
9.87292e-05
-1.68426e-05
0.000115287
-1.65577e-05
0.000131341
-1.60538e-05
0.000146696
-1.53554e-05
0.000161042
-1.43462e-05
0.000174189
-1.31469e-05
0.000185899
-1.17106e-05
0.000195888
-9.98892e-06
0.000203981
-8.09278e-06
0.000210016
-6.03541e-06
0.000213848
-3.83163e-06
0.00021533
-1.48197e-06
0.000214506
8.23613e-07
0.000211234
3.27193e-06
0.000205534
5.70039e-06
0.000197606
7.92699e-06
0.000187483
1.01231e-05
0.000175424
1.20596e-05
0.000161549
1.38744e-05
0.000146194
1.53556e-05
0.000129532
1.66618e-05
0.000111911
1.76205e-05
9.3568e-05
1.83433e-05
7.48058e-05
1.87621e-05
5.58236e-05
1.89823e-05
3.68992e-05
1.89243e-05
1.82273e-05
1.86719e-05
-2.31057e-08
1.82504e-05
-1.75431e-05
1.752e-05
-3.43227e-05
1.67796e-05
-5.01935e-05
1.58707e-05
-6.50144e-05
1.48209e-05
-7.88339e-05
1.38196e-05
-9.14658e-05
1.26319e-05
-0.000103027
1.15609e-05
-0.000113521
1.04942e-05
-0.000122934
9.41266e-06
-0.000131382
8.44855e-06
-0.000138829
7.44743e-06
-0.000145518
6.68857e-06
-0.000151323
5.80449e-06
-0.000156371
5.04863e-06
-0.000160695
4.32401e-06
-0.000164247
3.5515e-06
-0.00016706
2.8132e-06
-0.000169222
2.16222e-06
-0.000170579
1.35692e-06
-0.000171333
7.53626e-07
-0.000171548
2.15369e-07
-0.00017116
-3.87869e-07
-0.000170165
-9.9467e-07
-0.000168603
-1.56256e-06
-0.000166507
-2.09605e-06
-0.000163782
-2.72445e-06
-0.000160497
-3.28529e-06
-0.000156478
-4.0194e-06
-0.000151806
-4.67142e-06
-0.000146412
-5.39439e-06
-0.000140203
-6.20901e-06
-0.000133213
-6.98979e-06
-0.000125336
-7.87749e-06
-0.000116583
-8.75292e-06
-0.000106939
-9.64417e-06
-9.6299e-05
-1.06396e-05
-8.48148e-05
-1.14843e-05
-7.23667e-05
-1.24481e-05
-5.89979e-05
-1.33689e-05
-4.47393e-05
-1.42586e-05
-2.96067e-05
-1.51327e-05
-1.3825e-05
-1.57818e-05
2.62539e-06
-1.64505e-05
1.96076e-05
-1.69823e-05
3.69633e-05
-1.73558e-05
5.44691e-05
-1.75059e-05
7.19657e-05
-1.74966e-05
8.92274e-05
-1.72618e-05
0.000105999
-1.67714e-05
0.000122061
-1.6062e-05
0.00013714
-1.5079e-05
0.000151027
-1.38878e-05
0.000163447
-1.24202e-05
0.000174205
-1.07578e-05
0.00018308
-8.87493e-06
0.000189908
-6.82843e-06
0.000194545
-4.63704e-06
0.000196868
-2.32279e-06
0.00019687
-1.4148e-09
0.000194507
2.36218e-06
0.000189772
4.73579e-06
0.000182801
6.97048e-06
0.000173739
9.06216e-06
0.000162765
1.09736e-05
0.00015007
1.26955e-05
0.000135905
1.41652e-05
0.000120471
1.54338e-05
0.000104055
1.64161e-05
8.6886e-05
1.71686e-05
6.92176e-05
1.76684e-05
5.13143e-05
1.79033e-05
3.33847e-05
1.79296e-05
1.56563e-05
1.77285e-05
-1.70843e-06
1.73647e-05
-1.86194e-05
1.69109e-05
-3.48772e-05
1.62578e-05
-5.04359e-05
1.55587e-05
-6.51873e-05
1.47514e-05
-7.9047e-05
1.38597e-05
-9.20073e-05
1.29603e-05
-0.000104012
1.20047e-05
-0.000115073
1.10607e-05
-0.00012516
1.00872e-05
-0.000134286
9.12586e-06
-0.000142481
8.195e-06
-0.000149761
7.28068e-06
-0.000156167
6.40604e-06
-0.000161712
5.54428e-06
-0.000166445
4.73292e-06
-0.000170425
3.98028e-06
-0.000173652
3.22676e-06
-0.000176122
2.47022e-06
-0.000177849
1.7269e-06
-0.000178873
1.02371e-06
-0.000179209
3.3692e-07
-0.000178829
-3.80622e-07
-0.000177746
-1.08293e-06
-0.00017604
-1.70616e-06
-0.000173653
-2.38662e-06
-0.000170645
-3.0081e-06
-0.000166949
-3.69594e-06
-0.000162503
-4.44601e-06
-0.000157393
-5.10984e-06
-0.000151552
-5.8416e-06
-0.000144962
-6.5894e-06
-0.000137639
-7.32337e-06
-0.000129548
-8.0909e-06
-0.000120688
-8.85966e-06
-0.000111033
-9.65564e-06
-0.000100652
-1.03806e-05
-8.94598e-05
-1.11924e-05
-7.7513e-05
-1.19469e-05
-6.47817e-05
-1.27313e-05
-5.12811e-05
-1.35006e-05
-3.72303e-05
-1.40508e-05
-2.25078e-05
-1.47225e-05
-7.26525e-06
-1.52426e-05
8.52641e-06
-1.57917e-05
2.46256e-05
-1.60992e-05
4.09256e-05
-1.63001e-05
5.73863e-05
-1.64608e-05
7.36933e-05
-1.63071e-05
8.99141e-05
-1.6221e-05
0.000105639
-1.57248e-05
0.000120807
-1.51684e-05
0.000135171
-1.43636e-05
0.000148553
-1.33821e-05
0.000160631
-1.20788e-05
0.000171349
-1.07175e-05
0.000180317
-8.96831e-06
0.00018755
-7.23296e-06
0.000192671
-5.12123e-06
0.00019561
-2.93869e-06
0.000196201
-5.90979e-07
0.000194527
1.67396e-06
0.00019035
4.1764e-06
0.000183844
6.50664e-06
0.00017502
8.82393e-06
0.000164222
1.0798e-05
0.000151456
1.27659e-05
0.000137028
1.44276e-05
0.000121332
1.56961e-05
0.000104648
1.66843e-05
8.72175e-05
1.74303e-05
6.93516e-05
1.78658e-05
5.12923e-05
1.80593e-05
3.34358e-05
1.78564e-05
1.5955e-05
1.74808e-05
-1.02946e-06
1.69845e-05
-1.73512e-05
1.63217e-05
-3.29332e-05
1.5582e-05
-4.76203e-05
1.46871e-05
-6.13918e-05
1.37715e-05
-7.41999e-05
1.2808e-05
-8.6024e-05
1.18242e-05
-9.6854e-05
1.083e-05
-0.000106734
9.88011e-06
-0.000115667
8.93284e-06
-0.000123727
8.06e-06
-0.000130927
7.20007e-06
-0.000137328
6.40107e-06
-0.000142979
5.6507e-06
-0.000147924
4.94562e-06
-0.000152203
4.27853e-06
-0.000155856
3.65306e-06
-0.000158891
3.0346e-06
-0.000161336
2.44516e-06
-0.000163195
1.8594e-06
-0.000164449
1.25385e-06
-0.000165107
6.58059e-07
-0.000165102
-4.97475e-09
-0.000164372
-7.30122e-07
-0.000162923
-1.44947e-06
-0.000160685
-2.23709e-06
-0.000157674
-3.01119e-06
-0.000153889
-3.78518e-06
-0.00014923
-4.65952e-06
-0.000143739
-5.49056e-06
-0.000137452
-6.28665e-06
-0.000130137
-7.31586e-06
-0.000121912
-8.22449e-06
-0.000112907
-9.00549e-06
-0.000102887
-1.00191e-05
-9.21152e-05
-1.07723e-05
-8.03695e-05
-1.17458e-05
-6.78241e-05
-1.25454e-05
-5.45769e-05
-1.32472e-05
-4.0529e-05
-1.4048e-05
-2.58441e-05
-1.46849e-05
-1.0712e-05
-1.51322e-05
4.95884e-06
-1.56708e-05
2.09259e-05
-1.59671e-05
3.72097e-05
-1.62838e-05
5.35456e-05
-1.63359e-05
6.97302e-05
-1.61846e-05
8.57761e-05
-1.6046e-05
0.000101429
-1.56529e-05
0.000116489
-1.50602e-05
0.000130824
-1.43352e-05
0.000144217
-1.33931e-05
0.000156466
-1.22485e-05
0.000167364
-1.08984e-05
0.000176704
-9.34026e-06
0.000184354
-7.65009e-06
0.00019016
-5.8057e-06
-3.9674e-06
-4.07306e-06
3.20111e-05
-1.94848e-05
3.08221e-05
-3.41443e-05
2.93174e-05
-4.79586e-05
2.76264e-05
-6.0818e-05
2.57173e-05
-7.27644e-05
2.38919e-05
-8.37407e-05
2.19512e-05
-9.37996e-05
2.01158e-05
-0.000102937
1.82726e-05
-0.000111161
1.64473e-05
-0.000118511
1.47018e-05
-0.000125021
1.30205e-05
-0.000130718
1.13949e-05
-0.000135639
9.84183e-06
-0.000139813
8.3477e-06
-0.000143281
6.93553e-06
-0.000146075
5.58879e-06
-0.000148204
4.25498e-06
-0.000149702
2.99301e-06
-0.0001506
1.80315e-06
-0.00015087
5.41639e-07
-0.000150501
-7.40263e-07
-0.000149525
-1.95076e-06
-0.000147882
-3.28671e-06
-0.000145622
-4.51978e-06
-0.000142719
-5.80871e-06
-0.000139114
-7.20858e-06
-0.00013487
-8.49092e-06
-0.000129859
-1.0033e-05
-0.0001241
-1.15078e-05
-0.000117609
-1.29912e-05
-0.000110281
-1.46508e-05
-0.000102088
-1.63769e-05
-9.2914e-05
-1.83563e-05
-8.28391e-05
-2.015e-05
-7.19726e-05
-2.17344e-05
-6.01632e-05
-2.36175e-05
-4.7294e-05
-2.57252e-05
-3.35917e-05
-2.74118e-05
-1.89267e-05
-2.93286e-05
-3.45529e-06
-3.09441e-05
1.27951e-05
-3.24957e-05
2.97991e-05
-3.39954e-05
4.71948e-05
-3.47851e-05
6.505e-05
-3.57028e-05
8.31775e-05
-3.62486e-05
0.000101218
-3.60648e-05
0.000119126
-3.58078e-05
0.000136684
-3.51033e-05
0.000153516
-3.3649e-05
0.000169548
-3.20498e-05
0.000184463
-2.98274e-05
0.000198038
-2.71481e-05
0.000210142
-2.41875e-05
0.000220424
-2.05534e-05
0.000228837
-1.68209e-05
0.000235283
-1.28879e-05
0.000239515
-8.46099e-06
0.00024151
-3.98036e-06
0.000241148
7.21069e-07
0.000238565
5.15954e-06
0.000233792
9.55003e-06
0.000226873
1.38332e-05
0.000217898
1.79487e-05
0.000207034
2.17199e-05
0.000194539
2.49767e-05
0.00018055
2.79715e-05
0.000165197
3.06936e-05
0.000148893
3.25945e-05
0.00013177
3.42318e-05
0.000114087
3.53504e-05
9.60687e-05
3.60238e-05
7.78176e-05
3.64994e-05
5.95486e-05
3.65272e-05
4.1497e-05
3.60921e-05
2.38423e-05
3.52994e-05
6.73293e-06
3.42088e-05
-9.75481e-06
3.29656e-05
-2.56396e-05
3.1764e-05
-4.0683e-05
3.00775e-05
-5.48905e-05
2.84102e-05
-6.82898e-05
2.67939e-05
-8.06842e-05
2.47836e-05
-9.22001e-05
2.30303e-05
-0.000102767
2.11258e-05
-0.000112325
1.91137e-05
-0.000121026
1.73929e-05
-0.00012865
1.52507e-05
-0.000135488
1.36753e-05
-0.000141295
1.16113e-05
-0.000146264
9.93106e-06
-0.000150426
8.31712e-06
-0.000153724
6.58873e-06
-0.000156217
4.98767e-06
-0.000157913
3.39749e-06
-0.000158858
1.87306e-06
-0.000159134
5.76101e-07
-0.000158675
-8.93539e-07
-0.000157642
-2.09435e-06
-0.000155931
-3.41252e-06
-0.000153612
-4.62966e-06
-0.0001506
-6.02965e-06
-0.000146981
-7.2345e-06
-0.000142647
-8.67521e-06
-0.000137556
-1.02071e-05
-0.000131787
-1.14924e-05
-0.000125168
-1.32372e-05
-0.000117881
-1.45727e-05
-0.000109771
-1.62204e-05
-0.000100837
-1.78705e-05
-9.10688e-05
-1.95393e-05
-8.05051e-05
-2.11162e-05
-6.90883e-05
-2.28225e-05
-5.68504e-05
-2.4462e-05
-4.38279e-05
-2.60484e-05
-3.00666e-05
-2.75187e-05
-1.55617e-05
-2.89976e-05
-4.1548e-07
-3.02931e-05
1.53135e-05
-3.14522e-05
3.15272e-05
-3.24159e-05
4.81165e-05
-3.31703e-05
6.49575e-05
-3.36792e-05
8.1903e-05
-3.38787e-05
9.87515e-05
-3.36912e-05
0.000115328
-3.31346e-05
0.000131391
-3.21168e-05
0.000146763
-3.07273e-05
0.000161118
-2.87013e-05
0.000174269
-2.62984e-05
0.000185984
-2.34254e-05
0.000195987
-1.99926e-05
0.000204091
-1.61963e-05
0.000210132
-1.20772e-05
0.00021396
-7.65939e-06
0.000215454
-2.97629e-06
0.00021461
1.66733e-06
0.000211334
6.54858e-06
0.000205627
1.14067e-05
0.000197693
1.58614e-05
0.000187551
2.02647e-05
0.000175489
2.41217e-05
0.000161608
2.77551e-05
0.000146222
3.07422e-05
0.000129545
3.33388e-05
0.000111914
3.52516e-05
9.35529e-05
3.6704e-05
7.47759e-05
3.75391e-05
5.57773e-05
3.79809e-05
3.6836e-05
3.78656e-05
1.81545e-05
3.73535e-05
-1.02387e-07
3.65073e-05
-1.76398e-05
3.50575e-05
-3.44266e-05
3.35665e-05
-5.03065e-05
3.17506e-05
-6.51408e-05
2.96552e-05
-7.89561e-05
2.7635e-05
-9.1596e-05
2.52717e-05
-0.000103151
2.31159e-05
-0.000113639
2.09826e-05
-0.000123055
1.88284e-05
-0.000131509
1.69023e-05
-0.000138952
1.48903e-05
-0.00014564
1.33769e-05
-0.000151439
1.1604e-05
-0.000156487
1.0096e-05
-0.000160799
8.63618e-06
-0.000164356
7.10898e-06
-0.000167179
5.63608e-06
-0.000169328
4.31071e-06
-0.000170688
2.71723e-06
-0.00017146
1.52594e-06
-0.000171642
3.96918e-07
-0.00017125
-7.80215e-07
-0.000170255
-1.98909e-06
-0.000168704
-3.11393e-06
-0.00016659
-4.20951e-06
-0.000163864
-5.45059e-06
-0.000160587
-6.56266e-06
-0.000156558
-8.04837e-06
-0.00015189
-9.33945e-06
-0.000146493
-1.0791e-05
-0.000140276
-1.2426e-05
-0.00013329
-1.39765e-05
-0.000125406
-1.57615e-05
-0.000116647
-1.75111e-05
-0.000107012
-1.92792e-05
-9.6368e-05
-2.12841e-05
-8.48783e-05
-2.29741e-05
-7.24245e-05
-2.49019e-05
-5.90448e-05
-2.67487e-05
-4.47813e-05
-2.85221e-05
-2.96404e-05
-3.02737e-05
-1.3846e-05
-3.15763e-05
2.60854e-06
-3.29051e-05
1.95966e-05
-3.39705e-05
3.69581e-05
-3.47174e-05
5.44827e-05
-3.50305e-05
7.19915e-05
-3.50055e-05
8.92594e-05
-3.45298e-05
0.000106045
-3.3557e-05
0.000122116
-3.21336e-05
0.000137203
-3.01661e-05
0.0001511
-2.7784e-05
0.000163539
-2.48598e-05
0.000174305
-2.15236e-05
0.000183182
-1.77524e-05
0.000190018
-1.36641e-05
0.000194655
-9.27415e-06
0.000196987
-4.65472e-06
0.000196985
1.19782e-10
0.000194606
4.74159e-06
0.000189863
9.47805e-06
0.000182883
1.39512e-05
0.000173812
1.81328e-05
0.00016284
2.19451e-05
0.00015011
2.54261e-05
0.000135932
2.83435e-05
0.000120487
3.0878e-05
0.000104056
3.28478e-05
8.68711e-05
3.43531e-05
6.91921e-05
3.53475e-05
5.12746e-05
3.58207e-05
3.33285e-05
3.58757e-05
1.55903e-05
3.54668e-05
-1.78847e-06
3.47434e-05
-1.86973e-05
3.38198e-05
-3.49748e-05
3.25354e-05
-5.05431e-05
3.11269e-05
-6.52954e-05
2.95038e-05
-7.91518e-05
2.77161e-05
-9.21223e-05
2.59308e-05
-0.000104141
2.40237e-05
-0.000115202
2.21218e-05
-0.000125281
2.01653e-05
-0.000134407
1.82522e-05
-0.000142596
1.63837e-05
-0.000149876
1.45608e-05
-0.000156282
1.28124e-05
-0.000161822
1.10845e-05
-0.000166554
9.46475e-06
-0.000170537
7.96291e-06
-0.000173766
6.45577e-06
-0.000176237
4.94146e-06
-0.000177962
3.45153e-06
-0.000178974
2.03629e-06
-0.000179303
6.65856e-07
-0.000178924
-7.60078e-07
-0.000177847
-2.15934e-06
-0.000176132
-3.42114e-06
-0.000173738
-4.78047e-06
-0.00017073
-6.01662e-06
-0.000167039
-7.38726e-06
-0.000162586
-8.89916e-06
-0.000157479
-1.02159e-05
-0.000151629
-1.16923e-05
-0.000145034
-1.31843e-05
-0.000137711
-1.46465e-05
-0.000129615
-1.61863e-05
-0.000120756
-1.77192e-05
-0.000111104
-1.93079e-05
-0.00010072
-2.07642e-05
-8.95174e-05
-2.2395e-05
-7.75579e-05
-2.39064e-05
-6.48271e-05
-2.54621e-05
-5.13249e-05
-2.70029e-05
-3.72694e-05
-2.81063e-05
-2.25494e-05
-2.94427e-05
-7.3014e-06
-3.04906e-05
8.49816e-06
-3.15913e-05
2.46045e-05
-3.22056e-05
4.09215e-05
-3.26171e-05
5.73813e-05
-3.29207e-05
7.36972e-05
-3.2623e-05
8.99235e-05
-3.24474e-05
0.000105657
-3.14581e-05
0.000120838
-3.03499e-05
0.000135213
-2.87387e-05
0.000148612
-2.67813e-05
0.000160698
-2.41652e-05
0.00017143
-2.14488e-05
0.000180411
-1.79502e-05
0.000187649
-1.44712e-05
0.000192777
-1.02493e-05
0.00019573
-5.89113e-06
0.000196323
-1.18454e-06
0.000194646
3.35174e-06
0.000190472
8.34944e-06
0.000183964
1.3015e-05
0.000175133
1.76549e-05
0.000164326
2.16046e-05
0.000151552
2.55405e-05
0.000137113
2.88659e-05
0.000121397
3.14121e-05
0.000104699
3.33824e-05
8.72579e-05
3.48715e-05
6.93789e-05
3.57447e-05
5.13075e-05
3.61308e-05
3.34364e-05
3.57274e-05
1.59459e-05
3.49714e-05
-1.0462e-06
3.39766e-05
-1.73761e-05
3.26516e-05
-3.29666e-05
3.11725e-05
-4.7659e-05
2.93796e-05
-6.14343e-05
2.75467e-05
-7.42451e-05
2.56188e-05
-8.60709e-05
2.36499e-05
-9.69042e-05
2.16633e-05
-0.000106784
1.97603e-05
-0.000115717
1.78655e-05
-0.000123777
1.61199e-05
-0.000130977
1.44004e-05
-0.000137376
1.27999e-05
-0.000143025
1.12995e-05
-0.000147971
9.89148e-06
-0.00015225
8.5575e-06
-0.000155902
7.30538e-06
-0.000158939
6.0718e-06
-0.000161389
4.89482e-06
-0.000163246
3.71608e-06
-0.000164496
2.50418e-06
-0.000165154
1.31628e-06
-0.000165155
-3.66838e-09
-0.000164422
-1.46366e-06
-0.000162974
-2.89686e-06
-0.000160733
-4.47843e-06
-0.000157724
-6.02035e-06
-0.000153941
-7.56825e-06
-0.000149283
-9.31754e-06
-0.000143793
-1.09803e-05
-0.000137508
-1.25716e-05
-0.000130191
-1.46336e-05
-0.000121966
-1.64495e-05
-0.00011296
-1.80114e-05
-0.000102939
-2.00396e-05
-9.21527e-05
-2.15587e-05
-8.04159e-05
-2.34826e-05
-6.78658e-05
-2.50955e-05
-5.46156e-05
-2.64975e-05
-4.05643e-05
-2.80993e-05
-2.58738e-05
-2.93754e-05
-1.0731e-05
-3.0275e-05
4.94936e-06
-3.13513e-05
2.09183e-05
-3.19361e-05
3.72039e-05
-3.25694e-05
5.35478e-05
-3.268e-05
6.97391e-05
-3.2376e-05
8.57924e-05
-3.20993e-05
0.000101452
-3.13123e-05
0.000116518
-3.01263e-05
0.000130858
-2.86756e-05
0.000144257
-2.67917e-05
0.000156506
-2.44978e-05
0.000167401
-2.17935e-05
0.000176753
-1.86926e-05
0.00018442
-1.53171e-05
0.000190236
-1.16217e-05
-7.93803e-06
-4.13919e-06
4.80298e-05
-1.95544e-05
4.62374e-05
-3.42174e-05
4.39803e-05
-4.80343e-05
4.14432e-05
-6.08961e-05
3.85792e-05
-7.28443e-05
3.58401e-05
-8.38209e-05
3.29278e-05
-9.38795e-05
3.01745e-05
-0.000103017
2.74098e-05
-0.000111242
2.46727e-05
-0.000118593
2.20528e-05
-0.0001251
1.95271e-05
-0.000130797
1.70924e-05
-0.000135718
1.4762e-05
-0.000139889
1.25188e-05
-0.000143354
1.04011e-05
-0.000146145
8.37918e-06
-0.000148269
6.3798e-06
-0.000149769
4.49283e-06
-0.000150665
2.69922e-06
-0.000150922
7.98804e-07
-0.000150551
-1.11165e-06
-0.000149572
-2.92992e-06
-0.00014793
-4.92829e-06
-0.000145672
-6.77836e-06
-0.000142774
-8.70655e-06
-0.000139166
-1.08163e-05
-0.000134925
-1.27325e-05
-0.000129935
-1.5023e-05
-0.000124162
-1.72808e-05
-0.000117688
-1.9465e-05
-0.00011035
-2.19888e-05
-0.00010215
-2.45773e-05
-9.29832e-05
-2.75229e-05
-8.29123e-05
-3.0221e-05
-7.20498e-05
-3.2597e-05
-6.02408e-05
-3.54265e-05
-4.73576e-05
-3.86085e-05
-3.36609e-05
-4.11086e-05
-1.89952e-05
-4.39943e-05
-3.52742e-06
-4.6412e-05
1.27423e-05
-4.87654e-05
2.97613e-05
-5.10145e-05
4.71658e-05
-5.21897e-05
6.50332e-05
-5.35703e-05
8.31801e-05
-5.43956e-05
0.000101235
-5.41202e-05
0.000119156
-5.37285e-05
0.000136737
-5.2684e-05
0.000153578
-5.04901e-05
0.000169626
-4.80983e-05
0.00018455
-4.47516e-05
0.000198147
-4.07445e-05
0.000210276
-3.63169e-05
0.00022056
-3.08371e-05
0.000228981
-2.52424e-05
0.000235431
-1.93377e-05
0.000239665
-1.26951e-05
0.00024168
-5.99565e-06
0.00024132
1.08107e-06
0.00023872
7.75967e-06
0.000233951
1.43185e-05
0.000227022
2.07626e-05
0.000218047
2.69237e-05
0.000207175
3.25923e-05
0.000194654
3.74972e-05
0.000180654
4.19711e-05
0.000165285
4.60626e-05
0.000148959
4.8921e-05
0.000131816
5.13751e-05
0.000114109
5.30568e-05
9.60675e-05
5.40655e-05
7.7816e-05
5.47509e-05
5.95355e-05
5.48077e-05
4.1469e-05
5.41585e-05
2.37987e-05
5.29697e-05
6.67602e-06
5.13315e-05
-9.81763e-06
4.94592e-05
-2.57089e-05
4.76552e-05
-4.077e-05
4.51386e-05
-5.49826e-05
4.26227e-05
-6.83833e-05
4.01945e-05
-8.07857e-05
3.7186e-05
-9.22997e-05
3.45442e-05
-0.000102873
3.16994e-05
-0.000112431
2.86711e-05
-0.000121148
2.61096e-05
-0.00012876
2.28625e-05
-0.000135609
2.05248e-05
-0.000141419
1.74208e-05
-0.000146371
1.48831e-05
-0.000150542
1.24879e-05
-0.000153844
9.89115e-06
-0.000156331
7.47475e-06
-0.000158039
5.10478e-06
-0.000158992
2.82588e-06
-0.000159239
8.23858e-07
-0.00015876
-1.37295e-06
-0.000157739
-3.11516e-06
-0.000156038
-5.1137e-06
-0.000153735
-6.93266e-06
-0.000150727
-9.03779e-06
-0.0001471
-1.08615e-05
-0.000142762
-1.30133e-05
-0.000137695
-1.52746e-05
-0.000131906
-1.7281e-05
-0.000125308
-1.98348e-05
-0.000118002
-2.18787e-05
-0.000109888
-2.43349e-05
-0.000100959
-2.67994e-05
-9.12078e-05
-2.92907e-05
-8.06326e-05
-3.16915e-05
-6.92126e-05
-3.42426e-05
-5.69392e-05
-3.67355e-05
-4.39479e-05
-3.90398e-05
-3.01743e-05
-4.12923e-05
-1.56646e-05
-4.35074e-05
-5.11251e-07
-4.54466e-05
1.52314e-05
-4.7195e-05
3.14629e-05
-4.86475e-05
4.80619e-05
-4.97694e-05
6.49142e-05
-5.05317e-05
8.18616e-05
-5.08262e-05
9.87237e-05
-5.05534e-05
0.000115321
-4.97324e-05
0.00013141
-4.82057e-05
0.000146804
-4.61216e-05
0.000161175
-4.30717e-05
0.000174348
-3.94718e-05
0.000186074
-3.51513e-05
0.00019611
-3.00294e-05
0.000204224
-2.43103e-05
0.00021027
-1.81229e-05
0.000214106
-1.14956e-05
0.000215636
-4.50667e-06
0.00021475
2.55347e-06
0.000211454
9.84412e-06
0.000205753
1.71084e-05
0.000197812
2.38019e-05
0.000187656
3.04201e-05
0.00017557
3.62084e-05
0.000161665
4.16595e-05
0.000146256
4.61516e-05
0.000129563
5.00313e-05
0.000111912
5.29029e-05
9.35254e-05
5.50905e-05
7.47293e-05
5.63353e-05
5.57127e-05
5.69975e-05
3.67555e-05
5.68228e-05
1.80569e-05
5.60521e-05
-2.19215e-07
5.47834e-05
-1.77753e-05
5.26136e-05
-3.45848e-05
5.0376e-05
-5.0451e-05
4.76169e-05
-6.52954e-05
4.44996e-05
-7.9109e-05
4.14486e-05
-9.17551e-05
3.79178e-05
-0.000103296
3.46571e-05
-0.000113788
3.14743e-05
-0.000123196
2.82362e-05
-0.000131641
2.53474e-05
-0.000139069
2.23182e-05
-0.000145756
2.00643e-05
-0.000151557
1.74051e-05
-0.000156604
1.51429e-05
-0.000160902
1.29341e-05
-0.000164476
1.06827e-05
-0.000167305
8.46571e-06
-0.00016945
6.45542e-06
-0.00017082
4.08722e-06
-0.000171594
2.29956e-06
-0.000171742
5.45369e-07
-0.000171353
-1.16958e-06
-0.000170364
-2.9778e-06
-0.000168828
-4.65031e-06
-0.000166693
-6.34457e-06
-0.000163971
-8.17221e-06
-0.000160699
-9.83508e-06
-0.00015667
-1.20773e-05
-0.000152018
-1.39916e-05
-0.000146621
-1.61876e-05
-0.000140411
-1.8636e-05
-0.000133421
-2.09664e-05
-0.00012554
-2.36426e-05
-0.000116781
-2.62698e-05
-0.000107147
-2.89139e-05
-9.65033e-05
-3.19274e-05
-8.50113e-05
-3.44661e-05
-7.25524e-05
-3.73609e-05
-5.91676e-05
-4.01335e-05
-4.49014e-05
-4.27883e-05
-2.97505e-05
-4.54247e-05
-1.39534e-05
-4.73734e-05
2.51589e-06
-4.93744e-05
1.95215e-05
-5.09762e-05
3.69025e-05
-5.20985e-05
5.44431e-05
-5.25711e-05
7.19695e-05
-5.25321e-05
8.92601e-05
-5.18204e-05
0.000106065
-5.03624e-05
0.000122157
-4.8225e-05
0.000137262
-4.52713e-05
0.000151179
-4.17012e-05
0.000163635
-3.73163e-05
0.000174415
-3.2303e-05
0.000183306
-2.66442e-05
0.000190161
-2.05186e-05
0.000194806
-1.39197e-05
0.000197144
-6.9927e-06
0.000197125
1.91094e-08
0.000194731
7.13542e-06
0.000189986
1.4223e-05
0.000182997
2.09407e-05
0.000173914
2.72156e-05
0.000162907
3.29524e-05
0.000150173
3.81593e-05
0.00013597
4.25465e-05
0.000120512
4.63367e-05
0.00010407
4.92893e-05
8.68581e-05
5.1565e-05
6.91519e-05
5.30537e-05
5.12227e-05
5.37498e-05
3.32487e-05
5.38497e-05
1.55004e-05
5.32152e-05
-1.88765e-06
5.21315e-05
-1.87914e-05
5.07235e-05
-3.50963e-05
4.88403e-05
-5.06678e-05
4.66984e-05
-6.54233e-05
4.42594e-05
-7.92883e-05
4.15811e-05
-9.22612e-05
3.89037e-05
-0.000104282
3.60445e-05
-0.000115348
3.31876e-05
-0.000125418
3.02361e-05
-0.000134541
2.73744e-05
-0.000142722
2.4565e-05
-0.000150003
2.18422e-05
-0.000156408
1.92174e-05
-0.000161942
1.66185e-05
-0.000166661
1.41836e-05
-0.00017065
1.19512e-05
-0.000173881
9.68707e-06
-0.000176357
7.41806e-06
-0.000178084
5.17791e-06
-0.000179088
3.04044e-06
-0.000179414
9.91831e-07
-0.000179034
-1.13973e-06
-0.000177965
-3.22904e-06
-0.000176252
-5.13401e-06
-0.000173863
-7.1691e-06
-0.000170848
-9.03169e-06
-0.000167158
-1.10775e-05
-0.000162703
-1.33545e-05
-0.000157595
-1.5324e-05
-0.000151748
-1.75387e-05
-0.000145152
-1.97803e-05
-0.00013783
-2.19691e-05
-0.000129735
-2.4281e-05
-0.000120878
-2.65764e-05
-0.000111225
-2.89602e-05
-0.000100848
-3.1142e-05
-8.96384e-05
-3.36042e-05
-7.76809e-05
-3.58639e-05
-6.49498e-05
-3.81932e-05
-5.14327e-05
-4.052e-05
-3.73618e-05
-4.21773e-05
-2.26445e-05
-4.41599e-05
-7.3866e-06
-4.57486e-05
8.43486e-06
-4.74128e-05
2.45421e-05
-4.83129e-05
4.08788e-05
-4.8954e-05
5.734e-05
-4.93819e-05
7.36894e-05
-4.89725e-05
8.99265e-05
-4.86846e-05
0.000105674
-4.72053e-05
0.000120875
-4.55518e-05
0.000135269
-4.31324e-05
0.000148687
-4.01992e-05
0.000160788
-3.62662e-05
0.000171547
-3.22082e-05
0.000180535
-2.6938e-05
0.000187797
-2.17336e-05
0.000192935
-1.5387e-05
0.000195895
-8.85125e-06
0.000196502
-1.79177e-06
0.000194815
5.03839e-06
0.00019065
1.25149e-05
0.000184138
1.95267e-05
0.000175297
2.6496e-05
0.00016447
3.24314e-05
0.000151682
3.83282e-05
0.000137234
4.33142e-05
0.000121475
4.71707e-05
0.000104748
5.01095e-05
8.72934e-05
5.23264e-05
6.93937e-05
5.36444e-05
5.13096e-05
5.42149e-05
3.34094e-05
5.36276e-05
1.59013e-05
5.24794e-05
-1.10006e-06
5.09779e-05
-1.74386e-05
4.89902e-05
-3.30382e-05
4.67721e-05
-4.77373e-05
4.40787e-05
-6.15148e-05
4.13242e-05
-7.43306e-05
3.84346e-05
-8.61576e-05
3.5477e-05
-9.69901e-05
3.24957e-05
-0.00010687
2.96398e-05
-0.000115802
2.67981e-05
-0.000123859
2.41768e-05
-0.000131055
2.15965e-05
-0.000137452
1.91967e-05
-0.000143101
1.69482e-05
-0.000148042
1.48332e-05
-0.00015232
1.28357e-05
-0.000155973
1.09582e-05
-0.000159006
9.10492e-06
-0.000161453
7.34185e-06
-0.000163315
5.57778e-06
-0.000164566
3.75537e-06
-0.000165216
1.96548e-06
-0.000165213
-6.57414e-09
-0.000164479
-2.19695e-06
-0.000163037
-4.33914e-06
-0.000160793
-6.72301e-06
-0.000157786
-9.02722e-06
-0.000154006
-1.13481e-05
-0.00014935
-1.39731e-05
-0.000143864
-1.64667e-05
-0.000137583
-1.88525e-05
-0.000130262
-2.19544e-05
-0.000122039
-2.46728e-05
-0.000113033
-2.70176e-05
-0.000103014
-3.00581e-05
-9.22211e-05
-3.2352e-05
-8.04683e-05
-3.52354e-05
-6.79113e-05
-3.76525e-05
-5.46568e-05
-3.9752e-05
-4.05968e-05
-4.21594e-05
-2.58987e-05
-4.40736e-05
-1.07554e-05
-4.54184e-05
4.93652e-06
-4.70432e-05
2.09179e-05
-4.79175e-05
3.72177e-05
-4.88693e-05
5.35716e-05
-4.9034e-05
6.97675e-05
-4.85719e-05
8.58309e-05
-4.81629e-05
0.000101499
-4.69808e-05
0.000116571
-4.51978e-05
0.000130917
-4.3022e-05
0.000144321
-4.01961e-05
0.000156583
-3.67592e-05
0.000167496
-3.27073e-05
0.000176864
-2.806e-05
0.000184545
-2.29986e-05
0.000190379
-1.74555e-05
-1.19241e-05
-4.23832e-06
6.40643e-05
-1.9659e-05
6.1658e-05
-3.43273e-05
5.86486e-05
-4.81484e-05
5.52644e-05
-6.10134e-05
5.14442e-05
-7.29637e-05
4.77904e-05
-8.39429e-05
4.3907e-05
-9.40031e-05
4.02346e-05
-0.000103141
3.65476e-05
-0.000111365
3.28972e-05
-0.000118719
2.9406e-05
-0.000125221
2.60292e-05
-0.000130917
2.27886e-05
-0.000135837
1.96823e-05
-0.000140006
1.66879e-05
-0.00014347
1.38645e-05
-0.000146256
1.11656e-05
-0.000148377
8.50106e-06
-0.000149879
5.99423e-06
-0.000150765
3.5855e-06
-0.000151
1.03413e-06
-0.000150627
-1.48462e-06
-0.000149642
-3.91509e-06
-0.000148002
-6.56828e-06
-0.000145747
-9.03313e-06
-0.000142857
-1.15965e-05
-0.000139245
-1.44289e-05
-0.000135007
-1.69703e-05
-0.000130024
-2.00061e-05
-0.000124253
-2.30519e-05
-0.000117818
-2.58998e-05
-0.000110454
-2.93527e-05
-0.000102245
-3.27871e-05
-9.30878e-05
-3.66797e-05
-8.30225e-05
-4.02863e-05
-7.21674e-05
-4.34521e-05
-6.03579e-05
-4.72361e-05
-4.7455e-05
-5.15114e-05
-3.37657e-05
-5.47981e-05
-1.90981e-05
-5.86619e-05
-3.64267e-06
-6.18675e-05
1.26614e-05
-6.50696e-05
2.97023e-05
-6.80556e-05
4.71219e-05
-6.96094e-05
6.50113e-05
-7.14597e-05
8.31805e-05
-7.25649e-05
0.000101262
-7.22015e-05
0.000119198
-7.16647e-05
0.000136813
-7.02991e-05
0.000153668
-6.73455e-05
0.000169745
-6.4175e-05
0.000184684
-5.96908e-05
0.000198302
-5.43627e-05
0.000210453
-4.84678e-05
0.000220753
-4.11373e-05
0.000229195
-3.36842e-05
0.000235656
-2.57997e-05
0.000239894
-1.69329e-05
0.000241924
-8.02579e-06
0.000241579
1.42596e-06
0.000238957
1.0382e-05
0.000234193
1.90822e-05
0.000227246
2.771e-05
0.000218269
3.59009e-05
0.000207387
4.34742e-05
0.000194825
5.00589e-05
0.00018081
5.59862e-05
0.00016542
6.14521e-05
0.000149058
6.52837e-05
0.000131881
6.85513e-05
0.000114142
7.07963e-05
9.60686e-05
7.21388e-05
7.78125e-05
7.30069e-05
5.95152e-05
7.3105e-05
4.14289e-05
7.22448e-05
2.3732e-05
7.06667e-05
6.59523e-06
6.84683e-05
-9.91677e-06
6.59712e-05
-2.58178e-05
6.35563e-05
-4.08941e-05
6.02148e-05
-5.51197e-05
5.68482e-05
-6.85233e-05
5.35981e-05
-8.09437e-05
4.96064e-05
-9.24556e-05
4.60561e-05
-0.00010304
4.22841e-05
-0.000112596
3.82269e-05
-0.000121333
3.48464e-05
-0.000128938
3.04675e-05
-0.000135795
2.73813e-05
-0.000141604
2.32294e-05
-0.000146539
1.98187e-05
-0.00015072
1.6668e-05
-0.000154032
1.32034e-05
-0.000156512
9.95506e-06
-0.000158215
6.80761e-06
-0.000159179
3.78977e-06
-0.000159414
1.05843e-06
-0.000158927
-1.86008e-06
-0.000157886
-4.15607e-06
-0.000156181
-6.81811e-06
-0.000153901
-9.21314e-06