/*--------------------------------*- C++ -*----------------------------------*\
| =========                 |                                                 |
| \\      /  F ield         | OpenFOAM: The Open Source CFD Toolbox           |
|  \\    /   O peration     | Version:  3.0.1                                 |
|   \\  /    A nd           | Web:      www.OpenFOAM.org                      |
|    \\/     M anipulation  |                                                 |
\*---------------------------------------------------------------------------*/
FoamFile
{
    version     2.0;
    format      ascii;
    class       volScalarField;
    location    "54.6";
    object      p;
}
// * * * * * * * * * * * * * * * * * * * * * * * * * * * * * * * * * * * * * //

dimensions      [1 -1 -2 0 0 0 0];

internalField   nonuniform List<scalar> 
21420
(
4276.53
4263.06
4246.01
4225.6
4202.07
4175.76
4147.04
4116.27
4083.85
4050.23
4015.8
3980.98
3946.18
3911.84
3880.76
3848.14
3816.62
3786.46
3757.83
3730.86
3705.64
3682.2
3660.59
3640.81
3622.83
3606.62
3592.16
3579.4
3568.3
3558.8
3550.87
3544.47
3539.56
3536.11
3534.15
3533.64
3534.59
3537.03
3540.97
3546.43
3553.45
3562.06
3572.33
3584.29
3597.98
3613.45
3630.74
3649.89
3670.9
3693.79
3718.56
3745.12
3773.44
3803.36
3834.7
3867.11
3897.79
3931.56
3966.13
4000.85
4035.29
4069
4101.54
4132.54
4161.57
4188.27
4212.28
4233.3
4251.03
4265.23
4275.69
4282.26
4284.79
4283.31
4277.75
4268.2
4254.78
4237.68
4217.13
4193.44
4166.93
4137.98
4106.98
4074.36
4040.53
4005.91
3970.89
3935.87
3901.18
3867.14
3834
3802.02
3771.4
3742.31
3714.9
3689.28
3665.54
3643.72
3623.86
3605.97
3590.02
3575.98
3563.79
3553.41
3544.78
3537.83
3532.5
3528.75
3526.55
3525.89
3526.68
3528.94
3532.68
3537.88
3544.57
3552.75
3562.44
3573.66
3586.41
3600.71
3616.56
3633.96
3652.89
3673.33
3695.28
3718.7
3743.55
3769.78
3797.32
3826.08
3855.95
3886.89
3918.46
3950.55
3982.88
4015.17
4047.06
4078.19
4108.18
4136.61
4163.1
4187.24
4208.66
4227.01
4241.97
4253.26
4260.66
4263.98
4263.17
4258.15
4249
4235.77
4218.64
4197.85
4173.69
4146.53
4116.76
4084.83
4051.22
4016.43
3980.94
3945.25
3909.81
3875.05
3841.29
3808.86
3778
3748.91
3721.7
3696.45
3673.2
3651.95
3632.66
3615.29
3599.78
3586.06
3574.05
3563.66
3554.83
3547.47
3541.51
3536.88
3533.52
3531.4
3530.48
3530.7
3532.04
3534.52
3538.12
3542.86
3548.78
3555.9
3564.27
3573.93
3584.92
3597.31
3611.15
3626.49
3643.39
3661.88
3682
3703.76
3727.16
3752.17
3778.73
3806.71
3835.91
3867.12
3898.31
3930.22
3962.45
3994.64
4026.43
4057.41
4087.17
4115.27
4141.3
4164.84
4185.47
4202.84
4216.6
4226.49
4232.29
4233.79
4231.08
4224.07
4212.89
4197.72
4178.82
4156.52
4131.2
4103.27
4073.2
4041.44
4008.48
3974.78
3940.78
3906.91
3873.53
3840.99
3809.57
3779.49
3750.95
3724.06
3698.92
3675.56
3654.01
3634.24
3616.23
3599.93
3585.29
3572.24
3560.75
3550.77
3542.23
3535.08
3529.3
3524.81
3521.58
3519.55
3518.71
3519.02
3520.46
3523.02
3526.73
3531.59
3537.63
3544.9
3553.46
3563.39
3574.74
3587.57
3601.94
3617.9
3635.46
3654.65
3675.49
3697.98
3722.07
3747.69
3774.69
3802.89
3833.44
3866.93
3901.31
3935.6
3969.5
4002.71
4034.76
4065.24
4093.7
4119.67
4142.8
4162.72
4179.07
4191.61
4200.09
4204.35
4204.26
4200.43
4192.65
4180.8
4165
4145.5
4122.61
4096.73
4068.34
4037.94
4005.99
3972.98
3939.37
3905.58
3872.01
3839.01
3806.78
3775.72
3746.09
3718
3691.56
3666.83
3643.87
3622.7
3603.32
3585.72
3569.85
3555.7
3543.2
3532.33
3523.03
3515.26
3509
3504.2
3500.86
3498.92
3498.41
3499.37
3501.81
3505.76
3511.2
3518.2
3526.78
3536.98
3548.85
3562.44
3577.79
3594.95
3613.97
3634.86
3657.62
3682.23
3708.62
3736.65
3765.98
3795.94
3822.94
3845.81
3874.78
4178.58
4165.09
4148.04
4127.61
4104.07
4077.74
4048.99
4018.21
3985.78
3952.13
3917.69
3882.85
3848.04
3813.69
3782.59
3749.97
3718.44
3688.28
3659.65
3632.68
3607.46
3584.02
3562.41
3542.63
3524.65
3508.45
3493.99
3481.24
3470.13
3460.64
3452.71
3446.31
3441.4
3437.96
3435.99
3435.49
3436.43
3438.87
3442.81
3448.27
3455.29
3463.89
3474.16
3486.12
3499.8
3515.27
3532.57
3551.71
3572.71
3595.61
3620.37
3646.94
3675.26
3705.19
3736.53
3768.97
3799.62
3833.41
3868
3902.74
3937.19
3970.92
4003.48
4034.49
4063.55
4090.26
4114.29
4135.32
4153.06
4167.27
4177.74
4184.31
4186.86
4185.37
4179.81
4170.25
4156.82
4139.7
4119.14
4095.43
4068.91
4039.94
4008.92
3976.28
3942.43
3907.79
3872.77
3837.73
3803.03
3768.98
3735.84
3703.85
3673.22
3644.13
3616.72
3591.1
3567.35
3545.54
3525.68
3507.79
3491.84
3477.8
3465.62
3455.24
3446.61
3439.66
3434.34
3430.59
3428.39
3427.73
3428.52
3430.78
3434.52
3439.72
3446.4
3454.58
3464.28
3475.49
3488.24
3502.54
3518.39
3535.79
3554.72
3575.16
3597.11
3620.53
3645.38
3671.61
3699.15
3727.92
3757.79
3788.73
3820.32
3852.41
3884.76
3917.06
3948.97
3980.11
4010.11
4038.57
4065.07
4089.23
4110.67
4129.04
4144
4155.31
4162.72
4166.04
4165.22
4160.21
4151.06
4137.81
4120.67
4099.86
4075.69
4048.51
4018.71
3986.76
3953.14
3918.32
3882.82
3847.11
3811.65
3776.88
3743.11
3710.67
3679.81
3650.72
3623.51
3598.26
3575.01
3553.76
3534.48
3517.11
3501.6
3487.89
3475.88
3465.49
3456.66
3449.31
3443.35
3438.72
3435.37
3433.25
3432.33
3432.55
3433.9
3436.37
3439.97
3444.71
3450.63
3457.75
3466.11
3475.77
3486.76
3499.15
3512.98
3528.32
3545.22
3563.71
3583.82
3605.58
3628.98
3653.99
3680.55
3708.54
3737.76
3768.94
3800.16
3832.08
3864.32
3896.53
3928.34
3959.33
3989.11
4017.24
4043.29
4066.84
4087.49
4104.87
4118.65
4128.55
4134.35
4135.87
4133.14
4126.13
4114.94
4099.76
4080.84
4058.53
4033.18
4005.23
3975.14
3943.36
3910.38
3876.66
3842.65
3808.76
3775.37
3742.83
3711.39
3681.31
3652.77
3625.88
3600.73
3577.38
3555.82
3536.06
3518.05
3501.76
3487.12
3474.08
3462.59
3452.6
3444.07
3436.93
3431.14
3426.66
3423.43
3421.4
3420.56
3420.88
3422.31
3424.88
3428.58
3433.44
3439.48
3446.75
3455.31
3465.23
3476.58
3489.41
3503.78
3519.73
3537.29
3556.47
3577.32
3599.81
3623.89
3649.52
3676.52
3704.73
3735.27
3768.79
3803.18
3837.49
3871.39
3904.62
3936.69
3967.19
3995.67
4021.66
4044.81
4064.74
4081.11
4093.67
4102.17
4106.44
4106.32
4102.5
4094.71
4082.86
4067.04
4047.52
4024.61
3998.71
3970.3
3939.87
3907.91
3874.88
3841.25
3807.44
3773.86
3740.85
3708.61
3677.54
3647.91
3619.82
3593.37
3568.65
3545.69
3524.53
3505.15
3487.54
3471.68
3457.53
3445.04
3434.16
3424.87
3417.1
3410.84
3406.04
3402.7
3400.76
3400.25
3401.21
3403.65
3407.6
3413.04
3420.03
3428.61
3438.81
3450.68
3464.27
3479.61
3496.78
3515.79
3536.67
3559.44
3584.05
3610.44
3638.47
3667.81
3697.79
3724.8
3747.65
3776.63
4080.78
4067.27
4050.19
4029.73
4006.16
3979.79
3951.01
3920.19
3887.72
3854.04
3819.57
3784.7
3749.87
3715.51
3684.35
3651.72
3620.19
3590.02
3561.39
3534.42
3509.19
3485.76
3464.15
3444.37
3426.4
3410.21
3395.75
3383
3371.9
3362.41
3354.49
3348.09
3343.18
3339.74
3337.78
3337.27
3338.21
3340.65
3344.59
3350.05
3357.06
3365.66
3375.92
3387.87
3401.55
3417.02
3434.31
3453.45
3474.45
3497.34
3522.1
3548.67
3577
3606.93
3638.3
3670.77
3701.39
3735.21
3769.84
3804.61
3839.1
3872.86
3905.46
3936.5
3965.59
3992.34
4016.4
4037.46
4055.22
4069.46
4079.94
4086.53
4089.09
4087.57
4082.01
4072.44
4058.99
4041.85
4021.26
3997.52
3970.96
3941.95
3910.9
3878.22
3844.34
3809.67
3774.61
3739.55
3704.83
3670.76
3637.6
3605.6
3574.96
3545.86
3518.45
3492.82
3469.08
3447.26
3427.41
3409.52
3393.58
3379.54
3367.37
3357
3348.37
3341.43
3336.11
3332.36
3330.18
3329.51
3330.3
3332.56
3336.3
3341.5
3348.18
3356.36
3366.05
3377.26
3390.01
3404.31
3420.16
3437.55
3456.48
3476.93
3498.87
3522.29
3547.14
3573.37
3600.92
3629.69
3659.58
3690.53
3722.13
3754.24
3786.62
3818.94
3850.88
3882.06
3912.09
3940.58
3967.12
3991.32
4012.79
4031.19
4046.18
4057.5
4064.93
4068.28
4067.44
4062.43
4053.26
4040
4022.84
4002
3977.79
3950.57
3920.73
3888.74
3855.07
3820.22
3784.68
3748.94
3713.45
3678.64
3644.86
3612.41
3581.54
3552.44
3525.22
3499.98
3476.74
3455.49
3436.21
3418.85
3403.35
3389.64
3377.64
3367.27
3358.44
3351.09
3345.14
3340.52
3337.17
3335.06
3334.14
3334.36
3335.71
3338.18
3341.78
3346.52
3352.43
3359.54
3367.9
3377.55
3388.54
3400.92
3414.75
3430.09
3446.98
3465.46
3485.58
3507.33
3530.73
3555.74
3582.31
3610.31
3639.57
3670.69
3701.96
3733.91
3766.18
3798.42
3830.25
3861.29
3891.1
3919.26
3945.35
3968.94
3989.63
4007.04
4020.84
4030.76
4036.58
4038.11
4035.36
4028.35
4017.14
4001.93
3982.99
3960.63
3935.25
3907.26
3877.12
3845.31
3812.29
3778.53
3744.49
3710.57
3677.16
3644.59
3613.15
3583.06
3554.5
3527.61
3502.47
3479.11
3457.57
3437.81
3419.81
3403.51
3388.88
3375.85
3364.37
3354.39
3345.85
3338.72
3332.94
3328.46
3325.23
3323.2
3322.37
3322.68
3324.12
3326.69
3330.39
3335.24
3341.28
3348.54
3357.1
3367.01
3378.36
3391.18
3405.54
3421.49
3439.04
3458.23
3479.07
3501.56
3525.64
3551.27
3578.28
3606.51
3637.02
3670.6
3705.02
3739.35
3773.28
3806.55
3838.64
3869.19
3897.7
3923.74
3946.93
3966.89
3983.3
3995.88
4004.4
4008.7
4008.56
4004.74
3996.94
3985.07
3969.22
3949.66
3926.71
3900.76
3872.31
3841.84
3809.84
3776.77
3743.1
3709.27
3675.67
3642.63
3610.38
3579.3
3549.66
3521.56
3495.11
3470.39
3447.43
3426.27
3406.89
3389.29
3373.44
3359.29
3346.8
3335.94
3326.64
3318.88
3312.62
3307.83
3304.48
3302.55
3302.05
3303
3305.44
3309.38
3314.82
3321.81
3330.38
3340.58
3352.44
3366.02
3381.36
3398.52
3417.53
3438.41
3461.17
3485.79
3512.18
3540.22
3569.57
3599.58
3626.62
3649.42
3678.42
3983.13
3969.59
3952.46
3931.96
3908.34
3881.92
3853.09
3822.21
3789.68
3755.95
3721.43
3686.53
3651.66
3617.27
3586.05
3553.4
3521.86
3491.68
3463.04
3436.07
3410.84
3387.41
3365.81
3346.04
3328.07
3311.89
3297.44
3284.7
3273.61
3264.12
3256.2
3249.81
3244.91
3241.47
3239.51
3239
3239.94
3242.38
3246.32
3251.76
3258.77
3267.37
3277.62
3289.56
3303.23
3318.69
3335.97
3355.1
3376.1
3398.99
3423.75
3450.32
3478.65
3508.61
3540.01
3572.53
3603.07
3636.97
3671.65
3706.47
3741.01
3774.81
3807.47
3838.57
3867.71
3894.51
3918.62
3939.72
3957.52
3971.78
3982.29
3988.9
3991.48
3989.94
3984.37
3974.78
3961.3
3944.13
3923.5
3899.7
3873.09
3844.03
3812.92
3780.19
3746.25
3711.53
3676.43
3641.33
3606.58
3572.48
3539.3
3507.28
3476.63
3447.52
3420.09
3394.46
3370.72
3348.91
3329.06
3311.17
3295.24
3281.21
3269.05
3258.69
3250.07
3243.13
3237.82
3234.08
3231.9
3231.23
3232.02
3234.29
3238.02
3243.22
3249.9
3258.07
3267.76
3278.97
3291.72
3306.01
3321.86
3339.25
3358.18
3378.62
3400.57
3423.98
3448.84
3475.07
3502.63
3531.41
3561.3
3592.29
3623.9
3656.05
3688.45
3720.82
3752.8
3784.03
3814.11
3842.66
3869.25
3893.5
3915.02
3933.46
3948.5
3959.85
3967.3
3970.67
3969.83
3964.81
3955.63
3942.34
3925.14
3904.25
3879.99
3852.71
3822.81
3790.76
3757.03
3722.11
3686.51
3650.72
3615.19
3580.35
3546.53
3514.06
3483.18
3454.06
3426.85
3401.61
3378.37
3357.13
3337.86
3320.52
3305.03
3291.33
3279.34
3268.98
3260.16
3252.82
3246.88
3242.26
3238.92
3236.82
3235.9
3236.12
3237.47
3239.94
3243.54
3248.27
3254.18
3261.29
3269.64
3279.29
3290.26
3302.64
3316.46
3331.79
3348.67
3367.15
3387.25
3409
3432.4
3457.42
3483.99
3512.02
3541.34
3572.36
3603.71
3635.7
3668.01
3700.3
3732.18
3763.26
3793.13
3821.35
3847.5
3871.14
3891.88
3909.35
3923.19
3933.14
3938.97
3940.53
3937.76
3930.73
3919.5
3904.25
3885.25
3862.84
3837.4
3809.35
3779.15
3747.27
3714.2
3680.39
3646.29
3612.34
3578.89
3546.3
3514.83
3484.73
3456.16
3429.27
3404.12
3380.77
3359.23
3339.48
3321.49
3305.2
3290.58
3277.56
3266.08
3256.11
3247.58
3240.46
3234.68
3230.21
3226.98
3224.96
3224.14
3224.45
3225.88
3228.45
3232.15
3237
3243.03
3250.28
3258.83
3268.74
3280.07
3292.89
3307.24
3323.18
3340.73
3359.91
3380.75
3403.23
3427.32
3452.95
3479.97
3508.22
3538.71
3572.36
3606.83
3641.19
3675.17
3708.48
3740.63
3771.23
3799.81
3825.9
3849.15
3869.17
3885.63
3898.26
3906.81
3911.13
3910.98
3907.16
3899.34
3887.43
3871.54
3851.92
3828.91
3802.9
3774.38
3743.85
3711.78
3678.66
3644.94
3611.07
3577.42
3544.36
3512.07
3480.98
3451.32
3423.22
3396.77
3372.04
3349.09
3327.93
3308.56
3290.97
3275.12
3260.98
3248.5
3237.64
3228.36
3220.6
3214.35
3209.56
3206.21
3204.28
3203.78
3204.73
3207.17
3211.1
3216.53
3223.52
3232.09
3242.28
3254.13
3267.7
3283.04
3300.19
3319.19
3340.06
3362.82
3387.44
3413.83
3441.89
3471.26
3501.32
3528.4
3551.14
3580.17
3885.63
3872.05
3854.87
3834.3
3810.61
3784.13
3755.22
3724.27
3691.67
3657.87
3623.28
3588.32
3553.41
3518.99
3487.67
3455.01
3423.45
3393.26
3364.61
3337.63
3312.41
3288.98
3267.39
3247.62
3229.67
3213.49
3199.06
3186.33
3175.24
3165.77
3157.86
3151.47
3146.58
3143.15
3141.19
3140.66
3141.61
3144.04
3147.98
3153.42
3160.42
3169
3179.25
3191.18
3204.84
3220.29
3237.56
3256.68
3277.67
3300.55
3325.31
3351.88
3380.23
3410.2
3441.65
3474.24
3504.69
3538.68
3573.43
3608.31
3642.91
3676.79
3709.51
3740.68
3769.9
3796.76
3820.94
3842.1
3859.95
3874.26
3884.8
3891.42
3894.03
3892.47
3886.89
3877.27
3863.76
3846.53
3825.84
3801.98
3775.29
3746.16
3714.97
3682.17
3648.17
3613.38
3578.23
3543.08
3508.28
3474.14
3440.93
3408.88
3378.21
3349.09
3321.65
3296.02
3272.27
3250.46
3230.62
3212.74
3196.82
3182.81
3170.65
3160.3
3151.7
3144.77
3139.47
3135.73
3133.56
3132.89
3133.69
3135.95
3139.68
3144.88
3151.56
3159.73
3169.41
3180.61
3193.36
3207.65
3223.49
3240.88
3259.8
3280.25
3302.19
3325.61
3350.46
3376.71
3404.27
3433.06
3462.97
3493.99
3525.63
3557.81
3590.27
3622.69
3654.73
3686.02
3716.18
3744.79
3771.46
3795.78
3817.37
3835.87
3850.96
3862.35
3869.83
3873.22
3872.39
3867.36
3858.15
3844.82
3827.57
3806.63
3782.29
3754.93
3724.96
3692.82
3659
3624
3588.33
3552.47
3516.88
3481.98
3448.13
3415.63
3384.73
3355.6
3328.39
3303.15
3279.92
3258.69
3239.44
3222.11
3206.63
3192.95
3180.97
3170.62
3161.82
3154.5
3148.57
3143.96
3140.63
3138.53
3137.61
3137.84
3139.19
3141.66
3145.25
3149.98
3155.88
3162.99
3171.33
3180.96
3191.93
3204.29
3218.1
3233.42
3250.29
3268.76
3288.86
3310.6
3334
3359.02
3385.6
3413.65
3443.03
3473.99
3505.41
3537.45
3569.82
3602.16
3634.11
3665.27
3695.21
3723.51
3749.73
3773.45
3794.26
3811.79
3825.68
3835.67
3841.53
3843.11
3840.32
3833.27
3822
3806.7
3787.64
3765.16
3739.63
3711.5
3681.22
3649.26
3616.11
3582.23
3548.07
3514.06
3480.57
3447.94
3416.44
3386.32
3357.74
3330.84
3305.69
3282.35
3260.82
3241.08
3223.09
3206.82
3192.21
3179.2
3167.74
3157.77
3149.25
3142.14
3136.37
3131.91
3128.69
3126.68
3125.85
3126.17
3127.6
3130.17
3133.87
3138.71
3144.73
3151.98
3160.51
3170.4
3181.73
3194.53
3208.88
3224.81
3242.35
3261.52
3282.36
3304.83
3328.92
3354.56
3381.59
3409.87
3440.32
3474.09
3508.6
3543.02
3577.05
3610.42
3642.65
3673.32
3701.98
3728.15
3751.48
3771.58
3788.1
3800.78
3809.39
3813.73
3813.58
3809.75
3801.91
3789.95
3773.99
3754.3
3731.21
3705.11
3676.51
3645.89
3613.74
3580.54
3546.76
3512.82
3479.13
3446.02
3413.7
3382.58
3352.91
3324.8
3298.34
3273.62
3250.67
3229.52
3210.16
3192.57
3176.74
3162.61
3150.14
3139.29
3130.01
3122.26
3116.01
3111.23
3107.88
3105.95
3105.46
3106.4
3108.84
3112.76
3118.19
3125.17
3133.73
3143.91
3155.75
3169.31
3184.63
3201.77
3220.76
3241.63
3264.39
3289.01
3315.41
3343.48
3372.89
3403
3430.15
3452.79
3481.87
3788.28
3774.64
3757.4
3736.76
3712.98
3686.41
3657.41
3626.37
3593.68
3559.79
3525.13
3490.09
3455.12
3420.66
3389.23
3356.55
3324.97
3294.76
3266.1
3239.11
3213.89
3190.47
3168.88
3149.13
3131.19
3115.03
3100.61
3087.89
3076.82
3067.35
3059.45
3053.08
3048.19
3044.76
3042.8
3042.28
3043.22
3045.65
3049.58
3055.01
3062
3070.58
3080.8
3092.73
3106.37
3121.8
3139.06
3158.17
3179.15
3202.03
3226.79
3253.37
3281.72
3311.72
3343.22
3375.91
3406.24
3440.34
3475.17
3510.14
3544.82
3578.79
3611.6
3642.86
3672.16
3699.11
3723.37
3744.6
3762.52
3776.87
3787.45
3794.11
3796.72
3795.17
3789.56
3779.91
3766.35
3749.06
3728.29
3704.35
3677.57
3648.34
3617.07
3584.18
3550.09
3515.22
3479.99
3444.78
3409.93
3375.75
3342.49
3310.42
3279.72
3250.58
3223.13
3197.49
3173.74
3151.93
3132.1
3114.23
3098.32
3084.32
3072.19
3061.85
3053.26
3046.34
3041.05
3037.33
3035.16
3034.49
3035.29
3037.56
3041.29
3046.48
3053.15
3061.32
3070.99
3082.19
3094.93
3109.22
3125.06
3142.44
3161.36
3181.81
3203.75
3227.17
3252.02
3278.27
3305.85
3334.65
3364.58
3395.65
3427.32
3459.55
3492.06
3524.55
3556.66
3588.04
3618.28
3646.98
3673.74
3698.15
3719.82
3738.4
3753.55
3765.01
3772.53
3775.93
3775.11
3770.07
3760.83
3747.45
3730.14
3709.12
3684.7
3657.24
3627.16
3594.91
3560.99
3525.89
3490.13
3454.18
3418.51
3383.56
3349.65
3317.12
3286.19
3257.05
3229.84
3204.6
3181.38
3160.17
3140.93
3123.61
3108.16
3094.5
3082.54
3072.21
3063.43
3056.12
3050.2
3045.61
3042.29
3040.2
3039.28
3039.51
3040.87
3043.33
3046.92
3051.65
3057.54
3064.63
3072.96
3082.58
3093.54
3105.89
3119.68
3134.98
3151.84
3170.3
3190.39
3212.13
3235.52
3260.54
3287.14
3315.22
3344.65
3375.57
3407.06
3439.17
3471.61
3504.03
3536.06
3567.3
3597.34
3625.73
3652.05
3675.86
3696.76
3714.36
3728.33
3738.37
3744.26
3745.85
3743.06
3735.98
3724.66
3709.29
3690.16
3667.58
3641.95
3613.72
3583.33
3551.27
3518.02
3484.05
3449.82
3415.73
3382.18
3349.51
3317.98
3287.83
3259.24
3232.33
3207.19
3183.85
3162.32
3142.6
3124.63
3108.37
3093.78
3080.78
3069.33
3059.38
3050.87
3043.77
3038.01
3033.56
3030.35
3028.35
3027.53
3027.84
3029.28
3031.85
3035.54
3040.37
3046.38
3053.62
3062.14
3072.01
3083.32
3096.11
3110.45
3126.37
3143.9
3163.06
3183.89
3206.36
3230.45
3256.1
3283.14
3311.45
3341.86
3375.77
3410.35
3444.82
3478.92
3512.38
3544.69
3575.46
3604.22
3630.49
3653.92
3674.11
3690.72
3703.47
3712.13
3716.5
3716.37
3712.52
3704.64
3692.63
3676.59
3656.81
3633.6
3607.4
3578.69
3547.96
3515.72
3482.42
3448.55
3414.54
3380.79
3347.63
3315.26
3284.11
3254.42
3226.3
3199.84
3175.11
3152.17
3131.02
3111.67
3094.1
3078.28
3064.16
3051.71
3040.87
3031.6
3023.86
3017.62
3012.84
3009.5
3007.57
3007.08
3008.02
3010.45
3014.37
3019.79
3026.75
3035.3
3045.47
3057.3
3070.85
3086.16
3103.28
3122.26
3143.12
3165.87
3190.49
3216.91
3245
3274.44
3304.62
3331.86
3354.39
3383.52
3691.08
3677.38
3660.05
3639.32
3615.45
3588.77
3559.66
3528.5
3495.71
3461.72
3426.95
3391.83
3356.79
3322.29
3290.73
3258.02
3226.41
3196.18
3167.5
3140.51
3115.29
3091.88
3070.3
3050.56
3032.63
3016.49
3002.08
2989.38
2978.33
2968.88
2960.99
2954.62
2949.74
2946.32
2944.36
2943.83
2944.77
2947.2
2951.12
2956.55
2963.52
2972.09
2982.3
2994.2
3007.83
3023.25
3040.49
3059.58
3080.55
3103.42
3128.18
3154.76
3183.13
3213.16
3244.72
3277.52
3307.72
3341.96
3376.89
3411.95
3446.74
3480.8
3513.72
3545.09
3574.49
3601.55
3625.9
3647.22
3665.21
3679.63
3690.26
3696.95
3699.57
3698.02
3692.39
3682.7
3669.07
3651.71
3630.85
3606.81
3579.93
3550.59
3519.2
3486.2
3452.01
3417.05
3381.73
3346.44
3311.53
3277.29
3243.99
3211.88
3181.15
3151.99
3124.52
3098.88
3075.13
3053.32
3033.49
3015.64
2999.75
2985.77
2973.65
2963.33
2954.75
2947.85
2942.57
2938.87
2936.7
2936.04
2936.84
2939.11
2942.83
2948.02
2954.69
2962.85
2972.51
2983.71
2996.44
3010.72
3026.56
3043.94
3062.86
3083.3
3105.24
3128.66
3153.52
3179.77
3207.36
3236.19
3266.12
3297.26
3328.96
3361.25
3393.83
3426.4
3458.6
3490.08
3520.42
3549.23
3576.1
3600.61
3622.39
3641.06
3656.29
3667.81
3675.38
3678.81
3678
3672.95
3663.66
3650.23
3632.84
3611.73
3587.2
3559.63
3529.42
3497.05
3463
3427.78
3391.9
3355.85
3320.09
3285.06
3251.1
3218.52
3187.56
3158.41
3131.19
3105.96
3082.75
3061.55
3042.34
3025.05
3009.62
2995.97
2984.04
2973.73
2964.97
2957.68
2951.78
2947.2
2943.9
2941.82
2940.91
2941.14
2942.5
2944.96
2948.55
2953.26
2959.14
2966.22
2974.54
2984.15
2995.09
3007.42
3021.2
3036.48
3053.32
3071.77
3091.85
3113.58
3136.97
3162
3188.61
3216.72
3246.2
3277.1
3308.67
3340.85
3373.37
3405.88
3438.01
3469.36
3499.5
3528.01
3554.45
3578.37
3599.38
3617.07
3631.12
3641.22
3647.16
3648.77
3645.97
3638.85
3627.47
3612.03
3592.79
3570.1
3544.36
3516
3485.49
3453.3
3419.94
3385.86
3351.53
3317.36
3283.75
3251.01
3219.44
3189.26
3160.65
3133.74
3108.6
3085.27
3063.75
3044.04
3026.09
3009.85
2995.27
2982.29
2970.86
2960.92
2952.43
2945.34
2939.6
2935.16
2931.96
2929.97
2929.15
2929.47
2930.91
2933.48
2937.16
2941.99
2947.99
2955.21
2963.71
2973.57
2984.85
2997.63
3011.95
3027.86
3045.37
3064.53
3085.34
3107.81
3131.9
3157.56
3184.62
3212.96
3243.34
3277.42
3312.07
3346.6
3380.79
3414.34
3446.76
3477.65
3506.53
3532.92
3556.46
3576.77
3593.48
3606.32
3615.04
3619.45
3619.32
3615.47
3607.54
3595.46
3579.33
3559.43
3536.1
3509.77
3480.93
3450.07
3417.7
3384.3
3350.32
3316.23
3282.4
3249.17
3216.75
3185.57
3155.85
3127.71
3101.25
3076.52
3053.58
3032.45
3013.11
2995.56
2979.75
2965.65
2953.21
2942.38
2933.13
2925.4
2919.17
2914.4
2911.06
2909.14
2908.64
2909.58
2912
2915.91
2921.32
2928.28
2936.81
2946.97
2958.78
2972.31
2987.6
3004.71
3023.68
3044.53
3067.27
3091.9
3118.32
3146.43
3175.92
3206.18
3233.54
3255.92
3285.12
3594.03
3580.25
3562.84
3542
3518.01
3491.21
3461.96
3430.68
3397.75
3363.64
3328.77
3293.55
3258.42
3223.86
3192.16
3159.41
3127.77
3097.51
3068.82
3041.83
3016.61
2993.2
2971.63
2951.91
2934
2917.88
2903.49
2890.81
2879.77
2870.34
2862.46
2856.11
2851.24
2847.82
2845.86
2845.33
2846.27
2848.69
2852.61
2858.02
2864.98
2873.53
2883.72
2895.61
2909.22
2924.61
2941.84
2960.92
2981.87
3004.73
3029.49
3056.07
3084.46
3114.51
3146.15
3179.08
3209.12
3243.53
3278.58
3313.75
3348.65
3382.83
3415.88
3447.37
3476.9
3504.08
3528.54
3549.96
3568.04
3582.54
3593.22
3599.94
3602.59
3601.04
3595.38
3585.64
3571.94
3554.49
3533.53
3509.37
3482.36
3452.89
3421.38
3388.25
3353.93
3318.86
3283.44
3248.06
3213.07
3178.77
3145.42
3113.26
3082.5
3053.31
3025.83
3000.17
2976.42
2954.62
2934.8
2916.97
2901.09
2887.13
2875.03
2864.74
2856.18
2849.3
2844.04
2840.34
2838.18
2837.53
2838.33
2840.6
2844.32
2849.51
2856.17
2864.32
2873.98
2885.16
2897.89
2912.16
2927.99
2945.37
2964.28
2984.72
3006.66
3030.08
3054.94
3081.21
3108.81
3137.66
3167.61
3198.81
3230.56
3262.92
3295.58
3328.24
3360.55
3392.14
3422.6
3451.54
3478.53
3503.17
3525.06
3543.84
3559.17
3570.77
3578.39
3581.86
3581.06
3575.99
3566.66
3553.16
3535.68
3514.46
3489.81
3462.1
3431.75
3399.23
3365.03
3329.66
3293.65
3257.48
3221.62
3186.5
3152.47
3119.84
3088.85
3059.68
3032.46
3007.23
2984.04
2962.86
2943.66
2926.4
2911
2897.38
2885.47
2875.19
2866.46
2859.19
2853.31
2848.75
2845.46
2843.39
2842.49
2842.73
2844.08
2846.55
2850.13
2854.83
2860.7
2867.77
2876.07
2885.66
2896.58
2908.89
2922.65
2937.91
2954.74
2973.17
2993.23
3014.96
3038.34
3063.37
3090
3118.14
3147.68
3178.59
3210.23
3242.5
3275.11
3307.73
3339.97
3371.44
3401.72
3430.36
3456.93
3480.99
3502.11
3519.92
3534.07
3544.24
3550.22
3551.85
3549.05
3541.89
3530.44
3514.9
3495.55
3472.73
3446.85
3418.34
3387.68
3355.36
3321.86
3287.66
3253.21
3218.95
3185.25
3152.45
3120.83
3090.62
3061.99
3035.07
3009.92
2986.6
2965.1
2945.41
2927.48
2911.27
2896.71
2883.75
2872.33
2862.41
2853.93
2846.86
2841.14
2836.71
2833.53
2831.55
2830.74
2831.06
2832.5
2835.06
2838.74
2843.56
2849.54
2856.74
2865.22
2875.06
2886.32
2899.08
2913.39
2929.28
2946.78
2965.92
2986.73
3009.19
3033.28
3058.94
3086.02
3114.39
3144.75
3179.02
3213.75
3248.36
3282.64
3316.31
3348.86
3379.88
3408.9
3435.44
3459.12
3479.55
3496.38
3509.32
3518.13
3522.57
3522.46
3518.59
3510.61
3498.44
3482.2
3462.17
3438.7
3412.21
3383.22
3352.21
3319.7
3286.16
3252.07
3217.87
3183.96
3150.65
3118.18
3086.95
3057.21
3029.05
3002.58
2977.85
2954.92
2933.8
2914.48
2896.94
2881.15
2867.06
2854.64
2843.84
2834.6
2826.88
2820.66
2815.89
2812.56
2810.65
2810.15
2811.08
2813.5
2817.4
2822.8
2829.74
2838.26
2848.39
2860.19
2873.7
2888.97
2906.06
2925.01
2945.85
2968.59
2993.21
3019.65
3047.79
3077.32
3107.68
3135.18
3157.38
3186.67
3497.14
3483.27
3465.74
3444.78
3420.66
3393.72
3364.33
3332.89
3299.82
3265.57
3230.57
3195.24
3160.01
3125.39
3093.52
3060.73
3029.05
2998.77
2970.06
2943.06
2917.84
2894.44
2872.89
2853.18
2835.29
2819.19
2804.83
2792.16
2781.15
2771.73
2763.87
2757.53
2752.67
2749.27
2747.31
2746.77
2747.71
2750.13
2754.03
2759.43
2766.38
2774.9
2785.08
2796.94
2810.53
2825.9
2843.1
2862.16
2883.11
2905.96
2930.71
2957.3
2985.7
3015.79
3047.5
3080.58
3110.47
3145.06
3180.25
3215.54
3250.56
3284.89
3318.07
3349.71
3379.38
3406.69
3431.29
3452.82
3471.01
3485.59
3496.34
3503.1
3505.77
3504.22
3498.52
3488.72
3474.95
3457.4
3436.31
3412.02
3384.87
3355.25
3323.59
3290.31
3255.86
3220.66
3185.13
3149.64
3114.57
3080.19
3046.78
3014.57
2983.77
2954.55
2927.05
2901.39
2877.63
2855.84
2836.03
2818.21
2802.35
2788.42
2776.35
2766.07
2757.54
2750.68
2745.43
2741.76
2739.61
2738.96
2739.77
2742.03
2745.75
2750.93
2757.58
2765.73
2775.37
2786.55
2799.27
2813.54
2829.36
2846.73
2865.64
2886.08
2908.01
2931.43
2956.3
2982.57
3010.19
3039.07
3069.07
3100.29
3132.12
3164.55
3197.31
3230.07
3262.5
3294.22
3324.83
3353.91
3381.04
3405.83
3427.85
3446.76
3462.2
3473.88
3481.57
3485.07
3484.29
3479.19
3469.81
3456.24
3438.66
3417.31
3392.52
3364.65
3334.13
3301.44
3267.07
3231.55
3195.38
3159.07
3123.09
3087.87
3053.76
3021.07
2990.05
2960.86
2933.63
2908.41
2885.23
2864.08
2844.91
2827.67
2812.3
2798.72
2786.84
2776.59
2767.88
2760.64
2754.78
2750.24
2746.97
2744.91
2744.02
2744.27
2745.63
2748.09
2751.66
2756.36
2762.21
2769.26
2777.55
2787.12
2798.01
2810.3
2824.03
2839.28
2856.08
2874.49
2894.54
2916.26
2939.64
2964.67
2991.32
3019.5
3049.09
3080.02
3111.74
3144.11
3176.83
3209.56
3241.94
3273.55
3303.98
3332.77
3359.5
3383.7
3404.97
3422.91
3437.16
3447.42
3453.46
3455.11
3452.3
3445.09
3433.56
3417.92
3398.44
3375.47
3349.42
3320.75
3289.92
3257.43
3223.78
3189.43
3154.86
3120.49
3086.7
3053.82
3022.15
2991.89
2963.24
2936.31
2911.17
2887.86
2866.38
2846.7
2828.8
2812.61
2798.07
2785.13
2773.74
2763.84
2755.38
2748.33
2742.62
2738.21
2735.04
2733.08
2732.27
2732.6
2734.05
2736.6
2740.27
2745.08
2751.05
2758.23
2766.68
2776.49
2787.73
2800.47
2814.75
2830.63
2848.12
2867.24
2888.03
2910.49
2934.58
2960.26
2987.36
3015.74
3046.09
3080.59
3115.4
3150.1
3184.49
3218.29
3250.98
3282.16
3311.34
3338.04
3361.88
3382.46
3399.43
3412.48
3421.38
3425.87
3425.78
3421.89
3413.86
3401.59
3385.22
3365.03
3341.4
3314.74
3285.57
3254.39
3221.71
3188.02
3153.79
3119.48
3085.46
3052.07
3019.53
2988.25
2958.48
2930.31
2903.82
2879.1
2856.18
2835.07
2815.76
2798.24
2782.47
2768.41
2756.01
2745.22
2736
2728.31
2722.09
2717.34
2714.01
2712.1
2711.6
2712.52
2714.93
2718.83
2724.21
2731.14
2739.64
2749.76
2761.53
2775.02
2790.27
2807.34
2826.27
2847.09
2869.82
2894.45
2920.9
2949.07
2978.66
3009.11
3036.8
3058.79
3088.17
3400.4
3386.43
3368.78
3347.68
3323.41
3296.3
3266.75
3235.15
3201.91
3167.5
3132.36
3096.89
3061.56
3026.86
2994.82
2961.97
2930.25
2899.94
2871.21
2844.2
2818.98
2795.59
2774.06
2754.37
2736.51
2720.43
2706.09
2693.45
2682.46
2673.07
2665.23
2658.9
2654.05
2650.65
2648.7
2648.16
2649.09
2651.51
2655.4
2660.78
2667.71
2676.21
2686.36
2698.2
2711.77
2727.11
2744.29
2763.33
2784.26
2807.1
2831.84
2858.44
2886.86
2916.99
2948.76
2982.02
3011.76
3046.56
3081.88
3117.3
3152.48
3186.95
3220.3
3252.1
3281.93
3309.4
3334.14
3355.81
3374.11
3388.78
3399.61
3406.42
3409.11
3407.55
3401.82
3391.96
3378.1
3360.43
3339.21
3314.77
3287.45
3257.67
3225.83
3192.39
3157.79
3122.44
3086.78
3051.18
3016.01
2981.55
2948.07
2915.8
2884.96
2855.71
2828.19
2802.51
2778.75
2756.96
2737.17
2719.37
2703.54
2689.63
2677.59
2667.34
2658.83
2651.99
2646.77
2643.11
2640.97
2640.33
2641.14
2643.41
2647.13
2652.3
2658.94
2667.07
2676.71
2687.87
2700.58
2714.84
2730.66
2748.03
2766.93
2787.36
2809.3
2832.72
2857.59
2883.87
2911.51
2940.42
2970.47
3001.72
3033.63
3066.15
3099.01
3131.9
3164.46
3196.33
3227.09
3256.33
3283.63
3308.58
3330.76
3349.8
3365.36
3377.15
3384.9
3388.45
3387.68
3382.56
3373.12
3359.47
3341.77
3320.29
3295.33
3267.29
3236.58
3203.69
3169.13
3133.42
3097.08
3060.62
3024.5
2989.17
2954.97
2922.22
2891.15
2861.95
2834.71
2809.5
2786.34
2765.21
2746.07
2728.87
2713.53
2699.99
2688.15
2677.93
2669.25
2662.03
2656.2
2651.69
2648.44
2646.39
2645.51
2645.77
2647.13
2649.59
2653.15
2657.84
2663.67
2670.71
2678.97
2688.52
2699.39
2711.65
2725.36
2740.57
2757.35
2775.75
2795.78
2817.48
2840.86
2865.9
2892.56
2920.78
2950.42
2981.39
3013.21
3045.68
3078.52
3111.39
3143.92
3175.69
3206.28
3235.25
3262.15
3286.52
3307.96
3326.04
3340.41
3350.77
3356.86
3358.54
3355.73
3348.46
3336.84
3321.08
3301.45
3278.31
3252.08
3223.22
3192.2
3159.53
3125.7
3091.19
3056.48
3021.98
2988.08
2955.13
2923.39
2893.09
2864.41
2837.47
2812.33
2789.03
2767.57
2747.92
2730.04
2713.88
2699.37
2686.46
2675.09
2665.21
2656.77
2649.74
2644.05
2639.66
2636.52
2634.56
2633.77
2634.1
2635.55
2638.1
2641.76
2646.56
2652.51
2659.66
2668.09
2677.87
2689.08
2701.79
2716.06
2731.91
2749.38
2768.49
2789.26
2811.71
2835.81
2861.49
2888.62
2917.02
2947.36
2982.13
3017.02
3051.82
3086.33
3120.28
3153.13
3184.49
3213.85
3240.73
3264.75
3285.5
3302.62
3315.81
3324.8
3329.35
3329.28
3325.37
3317.27
3304.89
3288.37
3268.02
3244.19
3217.34
3187.97
3156.6
3123.74
3089.88
3055.49
3021.05
2986.92
2953.43
2920.81
2889.48
2859.67
2831.48
2804.99
2780.27
2757.35
2736.25
2716.97
2699.47
2683.73
2669.69
2657.31
2646.55
2637.35
2629.67
2623.47
2618.72
2615.4
2613.49
2613
2613.91
2616.31
2620.2
2625.56
2632.47
2640.96
2651.05
2662.8
2676.26
2691.49
2708.53
2727.44
2748.25
2770.97
2795.6
2822.06
2850.26
2879.91
2910.47
2938.38
2960.13
2989.63
3303.81
3289.72
3271.95
3250.69
3226.25
3198.97
3169.22
3137.44
3104.02
3069.43
3034.13
2998.52
2963.06
2928.28
2896.05
2863.15
2831.38
2801.03
2772.28
2745.26
2720.04
2696.67
2675.15
2655.49
2637.65
2621.6
2607.29
2594.68
2583.71
2574.34
2566.52
2560.21
2555.37
2551.98
2550.03
2549.49
2550.42
2552.82
2556.7
2562.07
2568.98
2577.46
2587.58
2599.4
2612.93
2628.25
2645.4
2664.42
2685.32
2708.15
2732.89
2759.49
2787.93
2818.1
2849.95
2883.36
2913.01
2948.01
2983.48
3019.06
3054.39
3089.04
3122.56
3154.54
3184.56
3212.2
3237.1
3258.91
3277.34
3292.12
3303.03
3309.9
3312.61
3311.05
3305.28
3295.35
3281.38
3263.59
3242.22
3217.61
3190.11
3160.14
3128.12
3094.5
3059.71
3024.21
2988.4
2952.68
2917.4
2882.85
2849.29
2816.96
2786.07
2756.78
2729.24
2703.55
2679.79
2658
2638.23
2620.45
2604.65
2590.77
2578.75
2568.54
2560.06
2553.25
2548.04
2544.4
2542.28
2541.64
2542.46
2544.73
2548.44
2553.61
2560.24
2568.36
2577.98
2589.14
2601.83
2616.08
2631.89
2649.25
2668.15
2688.58
2710.51
2733.93