/*--------------------------------*- C++ -*----------------------------------*\
| =========                 |                                                 |
| \\      /  F ield         | OpenFOAM: The Open Source CFD Toolbox           |
|  \\    /   O peration     | Version:  3.0.1                                 |
|   \\  /    A nd           | Web:      www.OpenFOAM.org                      |
|    \\/     M anipulation  |                                                 |
\*---------------------------------------------------------------------------*/
FoamFile
{
    version     2.0;
    format      ascii;
    class       volScalarField;
    location    "83.8";
    object      p;
}
// * * * * * * * * * * * * * * * * * * * * * * * * * * * * * * * * * * * * * //

dimensions      [1 -1 -2 0 0 0 0];

internalField   nonuniform List<scalar> 
21420
(
3545.33
3540.05
3536.2
3533.76
3532.77
3533.22
3535.07
3538.37
3543.15
3549.4
3557.16
3566.49
3577.43
3590.04
3604.36
3620.47
3638.4
3658.17
3679.8
3703.29
3728.62
3755.71
3784.51
3814.89
3846.67
3879.65
3913.47
3947.93
3982.8
4017.61
4051.93
4085.4
4117.56
4148
4176.28
4202.01
4224.83
4244.41
4260.45
4272.74
4281.09
4285.38
4285.49
4281.53
4273.47
4261.45
4245.64
4226.3
4203.71
4178.16
4150.05
4119.73
4087.61
4054.08
4019.54
3984.36
3948.89
3913.55
3884.53
3851
3818.44
3787.15
3757.37
3729.21
3702.79
3678.2
3655.49
3634.69
3615.81
3598.84
3583.77
3570.57
3559.23
3549.7
3541.95
3535.96
3531.68
3529.1
3528.22
3529.02
3531.38
3535.36
3540.93
3548.06
3556.75
3566.97
3578.7
3591.94
3606.67
3622.89
3640.6
3659.8
3680.5
3702.7
3726.39
3751.54
3778.11
3806.03
3835.18
3865.42
3896.61
3928.47
3960.77
3993.22
4025.52
4057.31
4088.25
4117.96
4146.06
4172.17
4195.92
4216.94
4234.91
4249.51
4260.47
4267.58
4270.65
4269.58
4264.36
4255.05
4241.68
4224.48
4203.66
4179.55
4152.48
4122.87
4091.14
4057.75
4023.16
3987.84
3952.25
3916.81
3881.93
3847.96
3815.21
3783.96
3754.42
3726.76
3701.1
3677.49
3655.98
3636.56
3619.17
3603.76
3590.25
3578.54
3568.54
3560.17
3553.32
3547.93
3543.92
3541.23
3539.8
3539.61
3540.66
3542.88
3546.3
3550.93
3556.78
3563.91
3572.32
3582.09
3593.26
3605.88
3620
3635.66
3652.9
3671.76
3692.23
3714.31
3737.97
3763.17
3789.83
3817.82
3847
3877.12
3908.85
3940.39
3972.34
4004.29
4035.89
4066.74
4096.46
4124.64
4150.85
4174.71
4195.81
4213.8
4228.36
4239.2
4246.12
4248.95
4247.64
4242.19
4232.72
4219.3
4202.17
4181.59
4157.89
4131.42
4102.58
4071.8
4039.52
4006.2
3972.27
3938.18
3904.32
3871.1
3838.78
3807.66
3777.96
3749.84
3723.45
3698.85
3676.1
3655.23
3636.23
3619.08
3603.74
3590.15
3578.26
3567.99
3559.3
3552.11
3546.36
3542.02
3539.01
3537.29
3536.84
3537.62
3539.57
3542.68
3546.95
3552.37
3558.94
3566.69
3575.64
3585.79
3597.18
3609.85
3623.84
3639.17
3655.9
3674.06
3693.69
3714.8
3737.38
3761.41
3786.83
3813.54
3841.43
3870.36
3900.18
3930.57
3961.32
3992.14
4022.68
4052.58
4081.45
4108.88
4134.44
4157.73
4178.33
4195.86
4209.99
4220.42
4226.92
4229.27
4227.5
4221.55
4211.48
4197.43
4179.66
4158.49
4134.28
4107.46
4078.49
4047.81
4015.91
3983.23
3950.2
3917.24
3884.82
3854.26
3824.08
3795.03
3767.37
3741.29
3716.9
3694.3
3673.51
3654.56
3637.44
3622.1
3608.49
3596.54
3586.17
3577.28
3569.77
3563.55
3558.52
3554.59
3551.68
3549.74
3548.72
3548.61
3549.4
3551.12
3553.81
3557.54
3562.39
3568.47
3575.88
3584.76
3595.2
3607.33
3621.24
3637.01
3654.69
3674.29
3695.8
3719.16
3744.3
3771.08
3799.35
3828.92
3857.49
3888.62
3920
3951.3
3982.25
4012.47
4041.59
4069.3
4095.22
4119.05
4140.49
4159.25
4175.14
4187.96
4197.57
4203.88
4206.7
4205.69
4201.25
4193.6
4182.83
4169.14
4152.74
4133.87
4112.8
4089.81
4065.19
4039.26
4012.4
3985
3957.61
3447.17
3441.89
3438.04
3435.6
3434.61
3435.07
3436.91
3440.22
3444.99
3451.24
3459
3468.33
3479.27
3491.87
3506.19
3522.29
3540.22
3559.99
3581.62
3605.11
3630.43
3657.53
3686.33
3716.72
3748.5
3781.49
3815.32
3849.79
3884.67
3919.5
3953.84
3987.32
4019.5
4049.96
4078.26
4104
4126.84
4146.44
4162.49
4174.79
4183.14
4187.44
4187.56
4183.58
4175.52
4163.49
4147.67
4128.32
4105.71
4080.15
4052.01
4021.68
3989.54
3956
3921.44
3886.24
3850.76
3815.4
3786.38
3752.83
3720.26
3688.97
3659.18
3631.02
3604.61
3580.02
3557.31
3536.5
3517.62
3500.66
3485.59
3472.39
3461.05
3451.53
3443.78
3437.79
3433.51
3430.93
3430.06
3430.85
3433.22
3437.2
3442.76
3449.9
3458.59
3468.8
3480.54
3493.77
3508.51
3524.73
3542.43
3561.63
3582.33
3604.52
3628.21
3653.37
3679.94
3707.86
3737.01
3767.26
3798.46
3830.33
3862.64
3895.1
3927.41
3959.22
3990.17
4019.9
4048.01
4074.14
4097.91
4118.95
4136.93
4151.54
4162.51
4169.63
4172.71
4171.63
4166.41
4157.1
4143.72
4126.5
4105.67
4081.54
4054.46
4024.82
3993.07
3959.66
3925.06
3889.72
3854.11
3818.65
3783.76
3749.78
3717.03
3685.77
3656.23
3628.56
3602.9
3579.3
3557.79
3538.36
3520.98
3505.58
3492.07
3480.36
3470.37
3462
3455.16
3449.77
3445.76
3443.07
3441.64
3441.46
3442.51
3444.73
3448.15
3452.77
3458.63
3465.75
3474.17
3483.93
3495.1
3507.71
3521.83
3537.49
3554.73
3573.58
3594.05
3616.13
3639.8
3665
3691.65
3719.65
3748.84
3778.99
3810.68
3842.25
3874.21
3906.17
3937.79
3968.66
3998.4
4026.59
4052.83
4076.7
4097.82
4115.83
4130.39
4141.24
4148.17
4151.01
4149.69
4144.25
4134.77
4121.34
4104.19
4083.6
4059.88
4033.39
4004.53
3973.73
3941.43
3908.09
3874.15
3840.04
3806.17
3772.93
3740.61
3709.48
3679.77
3651.66
3625.26
3600.66
3577.92
3557.05
3538.05
3520.9
3505.56
3491.98
3480.09
3469.83
3461.13
3453.94
3448.2
3443.86
3440.85
3439.14
3438.69
3439.47
3441.42
3444.53
3448.8
3454.22
3460.79
3468.54
3477.48
3487.63
3499.03
3511.69
3525.67
3541.01
3557.73
3575.89
3595.52
3616.63
3639.21
3663.24
3688.66
3715.38
3743.28
3772.21
3802.03
3832.43
3863.2
3894.02
3924.58
3954.5
3983.39
4010.83
4036.42
4059.72
4080.34
4097.89
4112.03
4122.47
4128.98
4131.34
4129.57
4123.61
4113.53
4099.46
4081.69
4060.5
4036.27
4009.43
3980.44
3949.74
3917.82
3885.13
3852.09
3819.11
3786.67
3756.11
3725.92
3696.86
3669.2
3643.11
3618.72
3596.12
3575.33
3556.39
3539.26
3523.93
3510.32
3498.37
3488.01
3479.12
3471.62
3465.41
3460.38
3456.45
3453.55
3451.6
3450.58
3450.48
3451.27
3452.98
3455.67
3459.39
3464.24
3470.31
3477.72
3486.59
3497.03
3509.16
3523.07
3538.83
3556.51
3576.11
3597.61
3620.98
3646.12
3672.91
3701.18
3730.76
3759.34
3790.49
3821.87
3853.19
3884.16
3914.39
3943.53
3971.25
3997.19
4021.03
4042.48
4061.25
4077.15
4089.98
4099.6
4105.91
4108.75
4107.72
4103.27
4095.62
4084.83
4071.14
4054.72
4035.85
4014.76
3991.76
3967.13
3941.18
3914.31
3886.9
3859.5
3348.95
3343.67
3339.83
3337.39
3336.4
3336.86
3338.7
3342
3346.77
3353.02
3360.77
3370.1
3381.03
3393.63
3407.94
3424.04
3441.96
3461.73
3483.35
3506.84
3532.17
3559.27
3588.07
3618.46
3650.26
3683.26
3717.12
3751.61
3786.52
3821.38
3855.75
3889.27
3921.49
3951.98
3980.32
4006.1
4028.97
4048.59
4064.68
4076.99
4085.36
4089.67
4089.8
4085.79
4077.73
4065.68
4049.83
4030.45
4007.81
3982.21
3954.04
3923.68
3891.5
3857.92
3823.33
3788.11
3752.6
3717.21
3688.16
3654.59
3622.01
3590.71
3560.92
3532.75
3506.33
3481.75
3459.04
3438.24
3419.36
3402.4
3387.33
3374.14
3362.81
3353.28
3345.54
3339.55
3335.28
3332.7
3331.83
3332.62
3334.99
3338.97
3344.54
3351.68
3360.36
3370.58
3382.31
3395.54
3410.28
3426.49
3444.2
3463.39
3484.09
3506.28
3529.97
3555.12
3581.7
3609.62
3638.78
3669.05
3700.25
3732.14
3764.47
3796.96
3829.29
3861.13
3892.12
3921.87
3950.03
3976.19
3999.99
4021.06
4039.07
4053.71
4064.7
4071.84
4074.94
4073.85
4068.63
4059.3
4045.91
4028.66
4007.8
3983.63
3956.51
3926.84
3895.05
3861.6
3826.95
3791.58
3755.93
3720.45
3685.53
3651.53
3618.76
3587.49
3557.94
3530.27
3504.6
3481.01
3459.5
3440.08
3422.71
3407.31
3393.81
3382.12
3372.14
3363.77
3356.94
3351.56
3347.55
3344.86
3343.44
3343.27
3344.31
3346.53
3349.95
3354.57
3360.42
3367.54
3375.95
3385.71
3396.87
3409.48
3423.59
3439.25
3456.49
3475.33
3495.8
3517.88
3541.55
3566.75
3593.41
3621.42
3650.62
3680.81
3712.44
3744.07
3776.05
3808.05
3839.69
3870.6
3900.37
3928.6
3954.87
3978.78
3999.94
4017.98
4032.57
4043.44
4050.38
4053.24
4051.91
4046.46
4036.96
4023.51
4006.34
3985.72
3961.96
3935.43
3906.53
3875.7
3843.36
3809.98
3776
3741.87
3707.97
3674.71
3642.37
3611.23
3581.51
3553.39
3526.99
3502.39
3479.65
3458.78
3439.79
3422.64
3407.31
3393.73
3381.85
3371.59
3362.91
3355.72
3349.99
3345.65
3342.64
3340.93
3340.49
3341.27
3343.22
3346.33
3350.6
3356.02
3362.59
3370.34
3379.28
3389.43
3400.82
3413.48
3427.45
3442.78
3459.5
3477.66
3497.28
3518.39
3540.97
3565
3590.43
3617.15
3645.06
3674.01
3703.84
3734.26
3765.05
3795.9
3826.49
3856.44
3885.36
3912.85
3938.47
3961.81
3982.46
4000.04
4014.21
4024.67
4031.2
4033.58
4031.79
4025.82
4015.73
4001.64
3983.83
3962.61
3938.35
3911.47
3882.43
3851.7
3819.75
3787.02
3753.95
3720.95
3688.48
3657.89
3627.69
3598.62
3570.95
3544.85
3520.46
3497.86
3477.07
3458.13
3441.01
3425.68
3412.08
3400.15
3389.79
3380.91
3373.42
3367.21
3362.19
3358.27
3355.37
3353.43
3352.41
3352.31
3353.09
3354.81
3357.49
3361.2
3366.05
3372.11
3379.51
3388.37
3398.79
3410.91
3424.81
3440.57
3458.24
3477.84
3499.34
3522.72
3547.87
3574.66
3602.94
3632.54
3661.15
3692.32
3723.73
3755.08
3786.07
3816.33
3845.5
3873.25
3899.22
3923.1
3944.57
3963.37
3979.28
3992.13
4001.76
4008.08
4010.95
4009.88
4005.42
3997.75
3986.95
3973.23
3956.8
3937.9
3916.79
3893.76
3869.1
3843.13
3816.24
3788.8
3761.38
3250.67
3245.4
3241.56
3239.13
3238.14
3238.59
3240.43
3243.73
3248.5
3254.74
3262.49
3271.8
3282.73
3295.32
3309.62
3325.71
3343.63
3363.38
3385
3408.49
3433.81
3460.92
3489.73
3520.13
3551.95
3584.97
3618.86
3653.39
3688.34
3723.24
3757.67
3791.24
3823.51
3854.06
3882.46
3908.29
3931.21
3950.88
3967
3979.34
3987.73
3992.05
3992.2
3988.16
3980.08
3968
3952.12
3932.7
3910.01
3884.37
3856.14
3825.72
3793.49
3759.86
3725.22
3689.96
3654.41
3618.97
3589.89
3556.29
3523.68
3492.37
3462.57
3434.4
3407.98
3383.39
3360.68
3339.88
3321.01
3304.05
3289
3275.81
3264.48
3254.97
3247.23
3241.24
3236.98
3234.4
3233.54
3234.33
3236.7
3240.68
3246.25
3253.39
3262.08
3272.29
3284.02
3297.25
3311.98
3328.2
3345.9
3365.09
3385.78
3407.97
3431.66
3456.81
3483.39
3511.32
3540.49
3570.77
3602
3633.92
3666.28
3698.8
3731.17
3763.05
3794.09
3823.9
3852.1
3878.31
3902.16
3923.29
3941.34
3956.02
3967.05
3974.2
3977.32
3976.23
3971
3961.66
3948.24
3930.95
3910.05
3885.82
3858.64
3828.91
3797.06
3763.55
3728.85
3693.42
3657.72
3622.2
3587.24
3553.21
3520.41
3489.13
3459.56
3431.89
3406.22
3382.62
3361.13
3341.72
3324.35
3308.97
3295.49
3283.8
3273.84
3265.48
3258.66
3253.29
3249.29
3246.61
3245.19
3245.02
3246.06
3248.28
3251.7
3256.32
3262.17
3269.28
3277.68
3287.44
3298.59
3311.19
3325.29
3340.94
3358.17
3377.01
3397.48
3419.56
3443.23
3468.43
3495.1
3523.12
3552.35
3582.6
3614.15
3645.85
3677.88
3709.92
3741.6
3772.56
3802.39
3830.67
3857
3880.96
3902.17
3920.26
3934.89
3945.79
3952.76
3955.63
3954.29
3948.83
3939.31
3925.83
3908.62
3887.95
3864.13
3837.55
3808.59
3777.7
3745.3
3711.87
3677.84
3643.66
3609.72
3576.43
3544.06
3512.9
3483.17
3455.04
3428.63
3404.03
3381.29
3360.43
3341.44
3324.31
3308.99
3295.42
3283.54
3273.3
3264.62
3257.45
3251.72
3247.38
3244.38
3242.68
3242.25
3243.03
3244.98
3248.09
3252.36
3257.78
3264.35
3272.09
3281.02
3291.17
3302.55
3315.21
3329.18
3344.5
3361.21
3379.36
3398.98
3420.08
3442.67
3466.7
3492.13
3518.86
3546.79
3575.75
3605.61
3636.06
3666.88
3697.77
3728.4
3758.4
3787.38
3814.92
3840.59
3863.99
3884.7
3902.33
3916.54
3927.03
3933.58
3935.98
3934.18
3928.2
3918.08
3903.96
3886.11
3864.83
3840.51
3813.57
3784.48
3753.69
3721.68
3688.9
3655.79
3622.76
3590.25
3559.62
3529.4
3500.3
3472.62
3446.52
3422.12
3399.52
3378.73
3359.8
3342.69
3327.37
3313.78
3301.85
3291.51
3282.64
3275.16
3268.97
3263.96
3260.05
3257.16
3255.22
3254.21
3254.11
3254.88
3256.59
3259.27
3262.97
3267.8
3273.85
3281.23
3290.08
3300.49
3312.6
3326.48
3342.23
3359.89
3379.49
3400.99
3424.37
3449.53
3476.33
3504.63
3534.25
3562.92
3594.13
3625.57
3656.95
3687.98
3718.29
3747.51
3775.31
3801.32
3825.24
3846.75
3865.58
3881.53
3894.4
3904.05
3910.37
3913.29
3912.17
3907.7
3900
3889.18
3875.42
3858.96
3840.02
3818.87
3795.81
3771.11
3745.1
3718.17
3690.7
3663.25
3152.33
3147.07
3143.23
3140.81
3139.82
3140.26
3142.1
3145.4
3150.16
3156.39
3164.14
3173.44
3184.36
3196.93
3211.23
3227.31
3245.21
3264.96
3286.57
3310.06
3335.38
3362.49
3391.31
3421.73
3453.56
3486.62
3520.55
3555.13
3590.14
3625.1
3659.6
3693.24
3725.58
3756.21
3784.68
3810.59
3833.57
3853.3
3869.47
3881.85
3890.26
3894.59
3894.75
3890.69
3882.59
3870.48
3854.55
3835.07
3812.32
3786.6
3758.31
3727.81
3695.51
3661.81
3627.11
3591.79
3556.19
3520.69
3491.56
3457.91
3425.27
3393.95
3364.13
3335.96
3309.53
3284.94
3262.24
3241.45
3222.58
3205.63
3190.58
3177.41
3166.09
3156.58
3148.85
3142.87
3138.61
3136.04
3135.19
3135.97
3138.35
3142.33
3147.9
3155.04
3163.73
3173.94
3185.67
3198.9
3213.62
3229.83
3247.53
3266.71
3287.4
3309.59
3333.27
3358.43
3385.01
3412.95
3442.14
3472.44
3503.7
3535.65
3568.05
3600.62
3633.05
3664.99
3696.08
3725.96
3754.23
3780.51
3804.43
3825.62
3843.74
3858.47
3869.54
3876.73
3879.86
3878.79
3873.54
3864.17
3850.71
3833.38
3812.41
3788.12
3760.86
3731.05
3699.11
3665.52
3630.74
3595.24
3559.48
3523.89
3488.89
3454.81
3421.98
3390.67
3361.09
3333.41
3307.74
3284.15
3262.66
3243.26
3225.92
3210.55
3197.08
3185.42
3175.47
3167.13
3160.32
3154.96
3150.98
3148.3
3146.89
3146.73
3147.76
3149.99
3153.4
3158.02
3163.86
3170.96
3179.36
3189.1
3200.24
3212.84
3226.93
3242.57
3259.79
3278.62
3299.08
3321.16
3344.83
3370.04
3396.72
3424.76
3454.01
3484.32
3515.83
3547.59
3579.68
3611.77
3643.52
3674.55
3704.44
3732.8
3759.2
3783.24
3804.52
3822.66
3837.35
3848.3
3855.29
3858.18
3856.84
3851.36
3841.81
3828.29
3811.02
3790.28
3766.4
3739.74
3710.71
3679.73
3647.26
3613.75
3579.66
3545.41
3511.43
3478.09
3445.68
3414.5
3384.75
3356.6
3330.19
3305.59
3282.85
3262
3243.02
3225.9
3210.59
3197.03
3185.17
3174.94
3166.27
3159.11
3153.39
3149.07
3146.08
3144.38
3143.95
3144.73
3146.69
3149.8
3154.07
3159.49
3166.06
3173.8
3182.72
3192.86
3204.24
3216.89
3230.84
3246.15
3262.86
3281
3300.61
3321.71
3344.3
3368.33
3393.77
3420.52
3448.46
3477.45
3507.33
3537.82
3568.69
3599.63
3630.32
3660.38
3689.43
3717.04
3742.79
3766.26
3787.04
3804.74
3819
3829.54
3836.12
3838.54
3836.74
3830.74
3820.59
3806.43
3788.51
3767.16
3742.76
3715.75
3686.58
3655.71
3623.63
3590.78
3557.61
3524.53
3491.97
3461.29
3431.04
3401.92
3374.22
3348.1
3323.7
3301.09
3280.32
3261.39
3244.29
3228.98
3215.41
3203.5
3193.17
3184.32
3176.86
3170.68
3165.68
3161.79
3158.91
3156.98
3155.97
3155.87
3156.64
3158.34
3161
3164.7
3169.51
3175.54
3182.9
3191.72
3202.12
3214.2
3228.07
3243.81
3261.46
3281.05
3302.56
3325.94
3351.11
3377.93
3406.25
3435.9
3464.66
3495.9
3527.38
3558.81
3589.9
3620.27
3649.55
3677.41
3703.49
3727.46
3749.03
3767.91
3783.89
3796.79
3806.46
3812.81
3815.76
3814.61
3810.1
3802.37
3791.51
3777.72
3761.2
3742.22
3721.02
3697.91
3673.15
3647.09
3620.12
3592.6
3565.11
3053.93
3048.68
3044.85
3042.43
3041.44
3041.88
3043.72
3047.02
3051.77
3057.99
3065.72
3075.02
3085.92
3098.48
3112.76
3128.82
3146.71
3166.45
3188.06
3211.54
3236.86
3263.98
3292.81
3323.25
3355.11
3388.21
3422.19
3456.83
3491.91
3526.95
3561.53
3595.26
3627.7
3658.42
3686.98
3712.98
3736.04
3755.85
3772.08
3784.51
3792.95
3797.3
3797.46
3793.39
3785.25
3773.09
3757.11
3737.56
3714.73
3688.92
3660.54
3629.95
3597.56
3563.78
3528.99
3493.6
3457.94
3422.37
3393.16
3359.45
3326.79
3295.45
3265.61
3237.43
3211
3186.41
3163.71
3142.93
3124.07
3107.13
3092.09
3078.93
3067.62
3058.12
3050.4
3044.42
3040.17
3037.61
3036.76
3037.55
3039.93
3043.91
3049.49
3056.63
3065.31
3075.53
3087.25
3100.48
3115.2
3131.4
3149.09
3168.27
3188.95
3211.14
3234.82
3259.97
3286.57
3314.52
3343.73
3374.06
3405.34
3437.34
3469.79
3502.42
3534.92
3566.93
3598.11
3628.06
3656.42
3682.79
3706.8
3728.07
3746.26
3761.05
3772.18
3779.41
3782.57
3781.51
3776.25
3766.84
3753.34
3735.94
3714.89
3690.51
3663.15
3633.24
3601.2
3567.51
3532.64
3497.05
3461.2
3425.54
3390.48
3356.35
3323.47
3292.13
3262.53
3234.84
3209.16
3185.58
3164.1
3144.72
3127.39
3112.05
3098.61
3086.97
3077.04
3068.72
3061.93
3056.58
3052.61
3049.95
3048.55
3048.38
3049.42
3051.65
3055.06
3059.67
3065.51
3072.6
3080.98
3090.71
3101.84
3114.42
3128.5
3144.12
3161.34
3180.16
3200.62
3222.69
3246.36
3271.58
3298.27
3326.33
3355.62
3385.98
3417.46
3449.3
3481.45
3513.62
3545.44
3576.55
3606.54
3634.98
3661.48
3685.61
3706.97
3725.2
3739.95
3750.95
3757.98
3760.88
3759.56
3754.05
3744.46
3730.88
3713.55
3692.73
3668.76
3642.01
3612.88
3581.8
3549.23
3515.63
3481.45
3447.13
3413.08
3379.69
3347.24
3316.02
3286.24
3258.09
3231.67
3207.06
3184.33
3163.49
3144.52
3127.41
3112.12
3098.58
3086.74
3076.52
3067.87
3060.72
3055.01
3050.7
3047.72
3046.03
3045.61
3046.39
3048.35
3051.47
3055.74
3061.15
3067.72
3075.45
3084.37
3094.5
3105.87
3118.51
3132.45
3147.75
3164.44
3182.57
3202.18
3223.27
3245.85
3269.9
3295.34
3322.11
3350.07
3379.09
3409.01
3439.55
3470.47
3501.48
3532.24
3562.39
3591.52
3619.22
3645.07
3668.63
3689.5
3707.28
3721.61
3732.21
3738.82
3741.27
3739.47
3733.45
3723.25
3709.03
3691.03
3669.6
3645.11
3617.99
3588.72
3557.76
3525.59
3492.66
3459.41
3426.27
3393.65
3362.91
3332.62
3303.47
3275.74
3249.61
3225.2
3202.59
3181.82
3162.9
3145.81
3130.52
3116.97
3105.08
3094.77
3085.94
3078.5
3072.34
3067.37
3063.48
3060.62
3058.7
3057.7
3057.59
3058.36
3060.06
3062.7
3066.38
3071.17
3077.17
3084.51
3093.31
3103.68
3115.74
3129.59
3145.31
3162.95
3182.54
3204.04
3227.43
3252.61
3279.45
3307.8
3337.46
3366.36
3397.64
3429.17
3460.67
3491.83
3522.28
3551.63
3579.57
3605.72
3629.77
3651.4
3670.33
3686.37
3699.31
3709.01
3715.37
3718.35
3717.17
3712.63
3704.86
3693.95
3680.11
3663.54
3644.49
3623.23
3600.05
3575.23
3549.11
3522.07
3494.5
3466.95
2955.47
2950.23
2946.41
2944
2943.01
2943.44
2945.28
2948.58
2953.32
2959.53
2967.25
2976.53
2987.41
2999.95
3014.22
3030.27
3048.14
3067.86
3089.46
3112.94
3138.26
3165.38
3194.23
3224.69
3256.59
3289.73
3323.77
3358.48
3393.65
3428.78
3463.46
3497.3
3529.85
3560.68
3589.36
3615.46
3638.63
3658.52
3674.83
3687.32
3695.8
3700.17
3700.33
3696.25
3688.07
3675.85
3659.79
3640.16
3617.23
3591.33
3562.83
3532.13
3499.64
3465.75
3430.87
3395.4
3359.66
3324
3294.7
3260.93
3228.23
3196.86
3167.01
3138.82
3112.38
3087.8
3065.1
3044.32
3025.48
3008.55
2993.53
2980.38
2969.08
2959.59
2951.88
2945.91
2941.67
2939.12
2938.27
2939.06
2941.45
2945.44
2951.02
2958.16
2966.84
2977.05
2988.78
3002
3016.72
3032.91
3050.59
3069.76
3090.43
3112.61
3136.29
3161.45
3188.05
3216.02
3245.25
3275.61
3306.94
3338.99
3371.5
3404.21
3436.78
3468.88
3500.15
3530.21
3558.67
3585.15
3609.25
3630.62
3648.9
3663.78
3674.97
3682.25
3685.43
3684.39
3679.12
3669.67
3656.1
3638.63
3617.49
3593
3565.53
3535.49
3503.33
3469.52
3434.53
3398.83
3362.88
3327.13
3292
3257.8
3224.88
3193.5
3163.88
3136.17
3110.5
3086.91
3065.45
3046.09
3028.79
3013.47
3000.05
2988.44
2978.54
2970.25
2963.48
2958.15
2954.19
2951.54
2950.15
2949.99
2951.04
2953.26
2956.67
2961.27
2967.1
2974.18
2982.55
2992.27
3003.38
3015.94
3030
3045.61
3062.82
3081.63
3102.08
3124.15
3147.82
3173.05
3199.76
3227.84
3257.16
3287.58
3319.06
3350.97
3383.2
3415.45
3447.37
3478.58
3508.67
3537.23
3563.83
3588.07
3609.54
3627.86
3642.7
3653.76
3660.83
3663.75
3662.43
3656.91
3647.26
3633.62
3616.21
3595.29
3571.22
3544.35
3515.1
3483.91
3451.22
3417.51
3383.23
3348.82
3314.69
3281.22
3248.72
3217.46
3187.66
3159.49
3133.06
3108.45
3085.73
3064.89
3045.94
3028.85
3013.57
3000.05
2988.23
2978.04
2969.4
2962.27
2956.57
2952.27
2949.31
2947.63
2947.22
2948.01
2949.97
2953.09
2957.36
2962.77
2969.33
2977.06
2985.97
2996.09
3007.45
3020.07
3034
3049.28
3065.96
3084.08
3103.67
3124.76
3147.35
3171.39
3196.85
3223.64
3251.63
3280.69
3310.64
3341.24
3372.23
3403.32
3434.17
3464.41
3493.65
3521.46
3547.42
3571.1
3592.07
3609.95
3624.37
3635.03
3641.69
3644.16
3642.36
3636.31
3626.06
3611.77
3593.68
3572.14
3547.54
3520.3
3490.91
3459.84
3427.56
3394.53
3361.2
3327.97
3295.29
3264.47
3234.13
3204.94
3177.19
3151.04
3126.62
3104.01
3083.24
3064.34
3047.26
3031.99
3018.46
3006.59
2996.31
2987.51
2980.09
2973.96
2969
2965.14
2962.29
2960.39
2959.39
2959.28
2960.04
2961.73
2964.36
2968.01
2972.78
2978.76
2986.06
2994.83
3005.17
3017.2
3031.03
3046.72
3064.36
3083.93
3105.44
3128.84
3154.04
3180.9
3209.27
3238.95
3268.04
3299.34
3330.94
3362.51
3393.76
3424.3
3453.75
3481.78
3508.02
3532.15
3553.86
3572.87
3588.96
3601.95
3611.68
3618.07
3621.08
3619.86
3615.29
3607.47
3596.5
3582.6
3565.96
3546.84
3525.5
3502.24
3477.35
3451.15
3424.04
3396.4
3368.79
2856.95
2851.72
2847.91
2845.51
2844.52
2844.95
2846.78
2850.08
2854.81
2861.01
2868.71
2877.97
2888.84
2901.36
2915.6
2931.63
2949.49
2969.2
2990.78
3014.25
3039.57
3066.7
3095.57
3126.05
3157.99
3191.19
3225.3
3260.1
3295.36
3330.61
3365.4
3399.37
3432.05
3463.01
3491.82
3518.05
3541.33
3561.33
3577.72
3590.28
3598.81
3603.2
3603.37
3599.27
3591.04
3578.75
3562.61
3542.88
3519.84
3493.81
3465.19
3434.37
3401.75
3367.74
3332.75
3297.17
3261.34
3225.6
3196.18
3162.33
3129.59
3098.2
3068.33
3040.12
3013.68
2989.09
2966.4
2945.63
2926.8
2909.89
2894.88
2881.75
2870.46
2860.99
2853.29
2847.33
2843.1
2840.56
2839.72
2840.51
2842.9
2846.9
2852.48
2859.62
2868.31
2878.52
2890.24
2903.46
2918.17
2934.35
2952.02
2971.19
2991.85
3014.02
3037.69
3062.86
3089.46
3117.45
3146.71
3177.11
3208.48
3240.6
3273.18
3305.97
3338.64
3370.84
3402.22
3432.4
3460.98
3487.58
3511.8
3533.29
3551.68
3566.65
3577.92
3585.25
3588.47
3587.44
3582.15
3572.65
3559.02
3541.45
3520.2
3495.59
3467.98
3437.8
3405.5
3371.55
3336.42
3300.59
3264.53
3228.67
3193.46
3159.19
3126.21
3094.79
3065.13
3037.41
3011.73
2988.16
2966.71
2947.37
2930.1
2914.82
2901.43
2889.85
2879.98
2871.71
2864.97
2859.66
2855.72
2853.09
2851.71
2851.56
2852.6
2854.82
2858.23
2862.83
2868.64
2875.71
2884.06
2893.76
2904.86
2917.4
2931.44
2947.04
2964.22
2983.03
3003.46
3025.53
3049.21
3074.44
3101.17
3129.28
3158.64
3189.11
3220.61
3252.61
3284.93
3317.27
3349.3
3380.62
3410.84
3439.53
3466.27
3490.63
3512.22
3530.66
3545.59
3556.73
3563.85
3566.79
3565.47
3559.92
3550.22
3536.5
3518.99
3497.97
3473.77
3446.76
3417.38
3386.04
3353.23
3319.39
3284.98
3250.47
3216.24
3182.7
3150.14
3118.83
3089
3060.8
3034.36
3009.76
2987.04
2966.21
2947.28
2930.21
2914.96
2901.46
2889.66
2879.49
2870.87
2863.76
2858.08
2853.8
2850.84
2849.19
2848.78
2849.58
2851.55
2854.67
2858.94
2864.34
2870.9
2878.62
2887.52
2897.63
2908.97
2921.58
2935.5
2950.76
2967.42
2985.52
3005.11
3026.19
3048.77
3072.82
3098.3
3125.1
3153.13
3182.23
3212.23
3242.9
3273.97
3305.14
3336.09
3366.45
3395.81
3423.75
3449.85
3473.65
3494.75
3512.74
3527.26
3538.01
3544.72
3547.21
3545.42
3539.34
3529.03
3514.65
3496.46
3474.8
3450.06
3422.68
3393.15
3361.95
3329.54
3296.4
3262.96
3229.63
3196.88
3165.97
3135.58
3106.34
3078.56
3052.39
3027.95
3005.35
2984.59
2965.69
2948.64
2933.38
2919.88
2908.04
2897.79
2889.02
2881.63
2875.53
2870.6
2866.76
2863.93
2862.04
2861.04
2860.93
2861.69
2863.37
2865.97
2869.6
2874.34
2880.29
2887.56
2896.28
2906.59
2918.59
2932.39
2948.06
2965.68
2985.25
3006.75
3030.16
3055.38
3082.27
3110.68
3140.36
3169.67
3201.01
3232.68
3264.35
3295.69
3326.34
3355.9
3384.04
3410.39
3434.62
3456.42
3475.51
3491.67
3504.71
3514.48
3520.89
3523.93
3522.67
3518.06
3510.19
3499.16
3485.18
3468.47
3449.26
3427.84
3404.49
3379.5
3353.22
3326.02
3298.29
3270.61
2758.37
2753.16
2749.36
2746.96
2745.98
2746.4
2748.24
2751.52
2756.25
2762.43
2770.11
2779.35
2790.19
2802.69
2816.91
2832.92
2850.75
2870.44
2892.01
2915.47
2940.8
2967.93
2996.82
3027.34
3059.32
3092.58
3126.78
3161.67
3197.05
3232.42
3267.35
3301.46
3334.29
3365.4
3394.36
3420.73
3444.15
3464.27
3480.76
3493.4
3501.98
3506.39
3506.56
3502.45
3494.16
3481.8
3465.57
3445.72
3422.55
3396.39
3367.62
3336.65
3303.88
3269.74
3234.62
3198.93
3163
3127.16
3097.58
3063.66
3030.88
2999.45
2969.56
2941.33
2914.89
2890.3
2867.62
2846.86
2828.04
2811.14
2796.15
2783.04
2771.77
2762.31
2754.62
2748.68
2744.46
2741.94
2741.1
2741.9
2744.3
2748.3
2753.88
2761.02
2769.71
2779.92
2791.64
2804.86
2819.55
2835.73
2853.39
2872.54
2893.19
2915.36
2939.03
2964.19
2990.81
3018.81
3048.1
3078.54
3109.97
3142.16
3174.83
3207.71
3240.49
3272.81
3304.32
3334.63
3363.35
3390.08
3414.45
3436.06
3454.58
3469.65
3481.01
3488.41
3491.67
3490.65
3485.35
3475.79
3462.08
3444.41
3423.03
3398.27
3370.52
3340.18
3307.71
3273.59
3238.31
3202.34
3166.14
3130.16
3094.85
3060.49
3027.45
2995.98
2966.29
2938.56
2912.87
2889.31
2867.88
2848.57
2831.33
2816.08
2802.73
2791.19
2781.35
2773.11
2766.4
2761.12
2757.2
2754.58
2753.22
2753.07
2754.12
2756.34
2759.74
2764.33
2770.13
2777.19
2785.52
2795.2
2806.27
2818.79
2832.82
2848.39
2865.56
2884.35
2904.78
2926.84
2950.52
2975.77
3002.51
3030.65
3060.06
3090.59
3122.12
3154.21
3186.63
3219.08
3251.23
3282.69
3313.05
3341.89
3368.77
3393.29
3415.02
3433.58
3448.62
3459.85
3467.03
3470
3468.68
3463.1
3453.33
3439.53
3421.91
3400.75
3376.41
3349.25
3319.71
3288.22
3255.24
3221.25
3186.72
3152.07
3117.75
3084.12
3051.48
3020.12
2990.25
2962.03
2935.58
2910.98
2888.26
2867.45
2848.54
2831.49
2816.26
2802.8
2791.02
2780.87
2772.28
2765.19
2759.54
2755.27
2752.33
2750.69
2750.29
2751.1
2753.08
2756.2
2760.47
2765.87
2772.42
2780.13
2789.02
2799.11
2810.44
2823.04
2836.93
2852.18
2868.82
2886.9
2906.47
2927.54
2950.12
2974.19
2999.67
3026.51
3054.57
3083.71
3113.78
3144.52
3175.68
3206.96
3238.02
3268.51
3298.01
3326.1
3352.35
3376.3
3397.55
3415.67
3430.31
3441.14
3447.91
3450.44
3448.65
3442.53
3432.16
3417.68
3399.36
3377.56
3352.66
3325.13
3295.44
3264.08
3231.53
3198.25
3164.7
3131.26
3098.42
3067.42
3036.96
3007.67
2979.85
2953.65
2929.21
2906.6
2885.85
2866.97
2849.94
2834.71
2821.23
2809.43
2799.21
2790.47
2783.12
2777.05
2772.15
2768.34
2765.52
2763.65
2762.67
2762.56
2763.31
2764.97
2767.55
2771.15
2775.86
2781.76
2788.99
2797.68
2807.94
2819.91
2833.67
2849.32
2866.92
2886.47
2907.98
2931.4
2956.64
2983.57
3012.01
3041.72
3071.26
3102.64
3134.4
3166.17
3197.63
3228.4
3258.09
3286.35
3312.82
3337.17
3359.07
3378.26
3394.49
3407.6
3417.41
3423.85
3426.9
3425.62
3420.96
3413.03
3401.93
3387.87
3371.06
3351.76
3330.23
3306.78
3281.69
3255.3
3228.01
3200.19
3172.42
2659.74
2654.54
2650.75
2648.36
2647.38
2647.8
2649.63
2652.91
2657.62
2663.79
2671.45
2680.67
2691.48
2703.95
2718.15
2734.13
2751.94
2771.61
2793.16
2816.62
2841.94
2869.09
2897.99
2928.55
2960.58
2993.9
3028.2
3063.2
3098.7
3134.21
3169.3
3203.57
3236.56
3267.85
3296.98
3323.52
3347.09
3367.34
3383.95
3396.67
3405.31
3409.75
3409.92
3405.79
3397.44
3385
3368.65
3348.68
3325.37
3299.04
3270.11
3238.97
3206.04
3171.74
3136.48
3100.67
3064.63
3028.68
2998.9
2964.9
2932.08
2900.62
2870.7
2842.46
2816.01
2791.42
2768.74
2748
2729.2
2712.32
2697.35
2684.26
2673.01
2663.57
2655.89
2649.96
2645.75
2643.24
2642.41
2643.22
2645.63
2649.63
2655.22
2662.36
2671.05
2681.26
2692.98
2706.19
2720.88
2737.04
2754.69
2773.83
2794.47
2816.62
2840.29
2865.45
2892.08
2920.11
2949.44
2979.92
3011.41
3043.68
3076.45
3109.43
3142.33
3174.78
3206.43
3236.89
3265.77
3292.67
3317.19
3338.95
3357.6
3372.8
3384.26
3391.73
3395.03
3394.03
3388.71
3379.09
3365.3
3347.51
3325.99
3301.07
3273.13
3242.61
3209.95
3175.66
3140.19
3104.06
3067.71
3031.59
2996.18
2961.73
2928.61
2897.08
2867.36
2839.6
2813.92
2790.36
2768.95
2749.67
2732.47
2717.26
2703.95
2692.45
2682.65
2674.46
2667.77
2662.52
2658.63
2656.03
2654.68
2654.54
2655.59
2657.81
2661.21
2665.79
2671.58
2678.61
2686.93
2696.58
2707.63
2720.13
2734.13
2749.68
2766.83
2785.6
2806.02
2828.08
2851.76
2877.02
2903.78
2931.95
2961.41
2992
3023.59
3055.77
3088.3
3120.88
3153.17
3184.78
3215.3
3244.3
3271.36
3296.04
3317.93
3336.63
3351.8
3363.12
3370.37
3373.37
3372.05
3366.44
3356.6
3342.7
3324.95
3303.65
3279.14
3251.82
3222.09
3190.42
3157.27
3123.12
3088.43
3053.65
3019.2
2985.47
2952.76
2921.34
2891.43
2863.18
2836.72
2812.11
2789.4
2768.61
2749.72
2732.69
2717.5
2704.06
2692.32
2682.2
2673.64
2666.57
2660.93
2656.68
2653.77
2652.14
2651.76
2652.58
2654.56
2657.69
2661.95
2667.35
2673.89
2681.59
2690.47
2700.55
2711.86
2724.44
2738.31
2753.53
2770.15
2788.21
2807.77
2828.83
2851.41
2875.48
2900.98
2927.85
2955.95
2985.15
3015.28
3046.1
3077.36
3108.76
3139.96
3170.59
3200.25
3228.51
3254.92
3279.05
3300.45
3318.73
3333.49
3344.43
3351.27
3353.83
3352.05
3345.89
3335.43
3320.85
3302.39
3280.43
3255.36
3227.64
3197.77
3166.24
3133.53
3100.1
3066.41
3032.86
2999.92
2968.8
2938.27
2908.93
2881.06
2854.84
2830.38
2807.78
2787.03
2768.17
2751.16
2735.96
2722.52
2710.75
2700.56
2691.87
2684.56
2678.53
2673.66
2669.87
2667.09
2665.23
2664.25
2664.14
2664.89
2666.53
2669.09
2672.66
2677.33
2683.19
2690.37
2699.01
2709.23
2721.15
2734.87
2750.49
2768.07
2787.62
2809.12
2832.56
2857.82
2884.78
2913.27
2943.02
2972.78
3004.24
3036.1
3067.98
3099.57
3130.48
3160.31
3188.72
3215.32
3239.8
3261.82
3281.11
3297.44
3310.61
3320.47
3326.94
3329.99
3328.69
3323.99
3315.99
3304.81
3290.65
3273.74
3254.33
3232.69
3209.12
3183.91
3157.41
3130
3102.08
3074.22
2561.04
2555.86
2552.09
2549.71
2548.73
2549.14
2550.97
2554.25
2558.94
2565.09
2572.73
2581.92
2592.7
2605.15
2619.31
2635.26
2653.04
2672.69
2694.23
2717.67
2743
2770.15
2799.08
2829.67
2861.76
2895.16
2929.56
2964.68
3000.33
3036
3071.25
3105.7
3138.88
3170.36
3199.68
3226.4
3250.14
3270.54
3287.27
3300.09
3308.8
3313.28
3313.45
3309.29
3300.88
3288.34
3271.87
3251.76
3228.28
3201.78
3172.67
3141.34
3108.23
3073.76
3038.34
3002.38
2966.23
2930.19
2900.14
2866.07
2833.2
2801.7
2771.76
2743.5
2717.04
2692.46
2669.79
2649.06
2630.27
2613.42
2598.47
2585.4
2574.17
2564.75
2557.09
2551.18
2546.98
2544.49
2543.67
2544.48
2546.89
2550.9
2556.5
2563.64
2572.33
2582.54
2594.25
2607.46
2622.13
2638.29
2655.92
2675.05
2695.68
2717.82
2741.48
2766.65
2793.29
2821.34
2850.7
2881.24
2912.8
2945.16
2978.03
3011.13
3044.16
3076.77
3108.58
3139.2
3168.25
3195.32
3220.02
3241.95
3260.75
3276.09
3287.66
3295.22
3298.57
3297.58
3292.23
3282.56
3268.66
3250.74
3229.06
3203.96
3175.82
3145.1
3112.24
3077.73
3042.08
3005.76
2969.24
2932.98
2897.44