/*--------------------------------*- C++ -*----------------------------------*\
| =========                 |                                                 |
| \\      /  F ield         | OpenFOAM: The Open Source CFD Toolbox           |
|  \\    /   O peration     | Version:  3.0.1                                 |
|   \\  /    A nd           | Web:      www.OpenFOAM.org                      |
|    \\/     M anipulation  |                                                 |
\*---------------------------------------------------------------------------*/
FoamFile
{
    version     2.0;
    format      ascii;
    class       volScalarField;
    location    "40";
    object      p_rgh;
}
// * * * * * * * * * * * * * * * * * * * * * * * * * * * * * * * * * * * * * //

dimensions      [1 -1 -2 0 0 0 0];

internalField   nonuniform List<scalar> 
21420
(
-223.05
-240.978
-257.309
-272.003
-285.038
-296.45
-306.277
-314.561
-321.339
-326.646
-330.517
-332.945
-333.935
-333.419
-331.525
-328.175
-323.377
-317.107
-309.329
-299.993
-289.055
-276.462
-262.16
-246.11
-228.268
-208.618
-187.15
-163.856
-138.78
-111.98
-83.5278
-53.5543
-22.2448
10.1737
43.2903
77.1587
111.397
145.579
179.297
212.175
243.777
273.703
301.537
326.889
349.426
368.833
384.827
397.192
405.757
410.396
410.953
407.572
400.196
388.916
373.937
355.497
333.833
309.244
282.085
252.719
221.551
188.972
155.392
121.247
86.969
53.0222
20.5877
-11.7257
-43.2876
-73.7622
-102.872
-130.453
-156.374
-180.547
-202.921
-223.458
-242.145
-258.975
-273.952
-287.101
-298.436
-307.979
-315.766
-321.823
-326.202
-328.926
-330.002
-329.564
-327.633
-324.212
-319.345
-313.059
-305.364
-296.269
-285.765
-273.838
-260.46
-245.611
-229.255
-211.368
-191.924
-170.91
-148.338
-124.229
-98.6357
-71.6362
-43.3366
-13.8741
16.5842
47.8359
79.6179
111.678
143.728
175.449
206.508
236.552
265.219
292.142
316.953
339.293
358.818
375.21
388.183
397.502
402.987
404.428
401.924
395.38
384.859
370.521
352.569
331.261
306.913
279.886
250.574
219.402
186.805
153.229
119.114
84.8842
50.9411
17.6533
-14.6534
-45.6928
-75.2261
-103.067
-129.08
-153.17
-175.293
-195.437
-213.622
-229.891
-244.304
-256.937
-267.874
-277.199
-284.999
-291.364
-296.373
-300.102
-302.614
-303.945
-304.111
-303.176
-301.122
-297.952
-293.646
-288.177
-281.521
-273.642
-264.504
-254.066
-242.294
-229.157
-214.624
-198.67
-181.28
-162.437
-142.139
-120.392
-97.2158
-72.651
-46.7524
-19.6041
8.6858
37.9781
68.124
98.821
129.839
160.88
191.608
221.658
250.645
278.172
303.836
327.245
348.018
365.796
380.255
391.124
398.189
401.268
400.36
395.43
386.598
373.97
357.786
338.328
315.928
290.957
263.823
234.95
204.777
173.739
142.261
110.742
79.5474
49.0186
19.3983
-9.07549
-36.2287
-61.9328
-86.1013
-108.688
-129.676
-149.077
-166.92
-183.253
-198.13
-211.609
-223.745
-234.592
-244.196
-252.595
-259.825
-265.914
-270.89
-274.779
-277.612
-279.396
-280.136
-279.839
-278.522
-276.158
-272.726
-268.198
-262.543
-255.723
-247.691
-238.403
-227.811
-215.866
-202.526
-187.748
-171.502
-153.765
-134.526
-113.797
-91.6046
-67.9965
-43.0461
-16.8476
10.4779
38.7899
67.9349
97.6182
127.625
157.699
187.558
216.877
245.326
272.551
298.193
321.901
343.328
362.146
378.068
390.841
400.235
406.087
408.3
406.822
401.806
393.171
381.062
365.654
347.178
325.926
302.212
276.363
248.739
219.723
189.692
159.017
128.06
97.1688
66.6771
37.0054
9.37362
-17.8885
-44.2207
-69.325
-93.0139
-115.189
-135.809
-154.854
-172.341
-188.308
-202.807
-215.904
-227.668
-238.173
-247.486
-255.663
-262.748
-268.769
-273.735
-277.642
-280.469
-282.158
-282.65
-281.823
-279.711
-276.222
-271.298
-264.862
-256.862
-247.244
-235.952
-222.943
-208.191
-191.672
-173.381
-153.34
-131.593
-108.206
-83.2783
-56.9319
-29.3216
-0.581213
28.9486
59.0866
89.5369
120.033
150.258
179.922
208.752
236.424
262.616
287.044
309.395
329.401
346.795
361.36
372.906
381.261
386.261
-223.126
-241.052
-257.38
-272.073
-285.104
-296.515
-306.339
-314.621
-321.397
-326.703
-330.573
-333
-333.989
-333.476
-331.581
-328.233
-323.436
-317.168
-309.391
-300.058
-289.123
-276.533
-262.234
-246.186
-228.347
-208.698
-187.231
-163.939
-138.862
-112.061
-83.606
-53.6283
-22.3127
10.1141
43.2386
77.1185
111.371
145.569
179.303
212.199
243.819
273.763
301.615
326.984
349.537
368.957
384.964
397.338
405.91
410.552
411.118
407.72
400.341
389.055
374.065
355.612
333.933
309.327
282.15
252.766
221.58
188.983
155.386
121.224
86.9287
52.9662
20.5398
-11.7853
-43.357
-73.8385
-102.953
-130.537
-156.459
-180.632
-203.007
-223.543
-242.229
-259.058
-274.034
-287.181
-298.515
-308.057
-315.842
-321.898
-326.276
-328.998
-330.072
-329.635
-327.703
-324.28
-319.413
-313.127
-305.433
-296.339
-285.837
-273.911
-260.536
-245.688
-229.334
-211.449
-192.007
-170.994
-148.423
-124.313
-98.7184
-71.7163
-43.4125
-13.9448
16.5202
47.7801
79.572
111.644
143.705
175.441
206.514
236.574
265.257
292.197
317.025
339.381
358.922
375.328
388.313
397.641
403.131
404.583
402.066
395.521
384.993
370.645
352.679
331.354
306.989
279.943
250.612
219.42
186.805
153.211
119.079
84.8337
50.8774
17.5782
-14.7377
-45.7842
-75.3226
-103.167
-129.181
-153.271
-175.393
-195.535
-213.716
-229.982
-244.391
-257.02
-267.953
-277.274
-285.07
-291.432
-296.438
-300.165
-302.675
-304.002
-304.169
-303.233
-301.18
-298.011
-293.706
-288.238
-281.584
-273.707
-264.57
-254.135
-242.365
-229.229
-214.698
-198.745
-181.356
-162.515
-142.218
-120.471
-97.2949
-72.7291
-46.8287
-19.6775
8.61635
37.9149
68.0688
98.7754
129.805
160.859
191.602
221.668
250.672
278.217
303.899
327.326
348.117
365.909
380.382
391.261
398.333
401.421
400.505
395.572
386.733
374.094
357.896
338.423
316.005
291.016
263.863
234.971
204.779
173.724
142.23
110.697
79.4912
48.9524
19.325
-9.15395
-36.3105
-62.0163
-86.1851
-108.771
-129.757
-149.155
-166.996
-183.326
-198.199
-211.676
-223.81
-234.655
-244.256
-252.654
-259.883
-265.97
-270.945
-274.833
-277.665
-279.449
-280.188
-279.892
-278.575
-276.212
-272.781
-268.255
-262.601
-255.784
-247.754
-238.468
-227.879
-215.936
-202.598
-187.822
-171.578
-153.842
-134.604
-113.876
-91.6823
-68.0728
-43.1197
-16.9177
10.4124
38.7304
67.884
97.5762
127.593
157.68
187.551
216.885
245.35
272.591
298.249
321.973
343.415
362.247
378.183
390.966
400.368
406.226
408.443
406.969
401.943
393.303
381.187
365.769
347.28
326.014
302.284
276.418
248.777
219.745
189.698
159.008
128.038
97.133
66.6277
36.9415
9.3271
-17.9458
-44.2858
-69.3941
-93.0846
-115.26
-135.878
-154.922
-172.406
-188.37
-202.866
-215.959
-227.72
-238.222
-247.532
-255.707
-262.791
-268.811
-273.778
-277.685
-280.513
-282.205
-282.699
-281.874
-279.764
-276.278
-271.357
-264.925
-256.927
-247.312
-236.022
-223.015
-208.265
-191.747
-173.457
-153.417
-131.668
-108.279
-83.3483
-56.9971
-29.38
-0.634265
28.9049
59.0529
89.5138
120.021
150.258
179.935
208.778
236.463
262.67
287.111
309.476
329.494
346.899
361.474
373.028
381.389
386.393
-223.278
-241.2
-257.524
-272.211
-285.238
-296.644
-306.464
-314.741
-321.514
-326.816
-330.683
-333.11
-334.098
-333.589
-331.693
-328.347
-323.552
-317.288
-309.516
-300.188
-289.258
-276.674
-262.38
-246.338
-228.503
-208.859
-187.395
-164.103
-139.026
-112.223
-83.7623
-53.7761
-22.4484
9.99509
43.1353
77.0385
111.319
145.548
179.316
212.246
243.903
273.883
301.771
327.174
349.759
369.208
385.238
397.631
406.215
410.864
411.444
408.019
400.633
389.333
374.322
355.842
334.132
309.493
282.28
252.86
221.638
189.006
155.374
121.179
86.8491
52.8551
20.446
-11.9026
-43.4936
-73.9884
-103.111
-130.7
-156.624
-180.798
-203.171
-223.705
-242.388
-259.214
-274.186
-287.33
-298.66
-308.198
-315.98
-322.033
-326.407
-329.122
-330.195
-329.758
-327.82
-324.396
-319.527
-313.241
-305.547
-296.454
-285.955
-274.032
-260.661
-245.818
-229.468
-211.587
-192.148
-171.138
-148.567
-124.457
-98.8594
-71.8522
-43.5405
-14.0626
16.4158
47.6917
79.503
111.597
143.683
175.446
206.548
236.639
265.355
292.328
317.19
339.578
359.15
375.583
388.591
397.937
403.438
404.909
402.371
395.822
385.28
370.911
352.917
331.561
307.161
280.077
250.707
219.477
186.823
153.194
119.029
84.7534
50.7708
17.4495
-14.8845
-45.9449
-75.493
-103.344
-129.36
-153.449
-175.568
-195.705
-213.88
-230.138
-244.539
-257.16
-268.084
-277.397
-285.187
-291.541
-296.541
-300.262
-302.77
-304.09
-304.259
-303.322
-301.27
-298.102
-293.799
-288.335
-281.684
-273.811
-264.677
-254.246
-242.48
-229.347
-214.819
-198.87
-181.485
-162.646
-142.351
-120.605
-97.4285
-72.861
-46.9572
-19.8006
8.50099
37.8117
67.9813
98.7068
129.759
160.839
191.611
221.71
250.748
278.328
304.046
327.509
348.332
366.156
380.654
391.554
398.64
401.744
400.81
395.874
387.02
374.36
358.135
338.629
316.176
291.151
263.959
235.03
204.801
173.712
142.187
110.626
79.3973
48.8386
19.1972
-9.29167
-36.4547
-62.1636
-86.3325
-108.916
-129.899
-149.292
-167.127
-183.45
-198.317
-211.787
-223.916
-234.757
-244.354
-252.748
-259.974
-266.059
-271.032
-274.919
-277.749
-279.531
-280.267
-279.975
-278.659
-276.297
-272.869
-268.345
-262.695
-255.882
-247.856
-238.576
-227.991
-216.053
-202.72
-187.948
-171.707
-153.974
-134.738
-114.01
-91.8158
-68.2034
-43.2456
-17.0368
10.3022
38.6315
67.8022
97.5118
127.548
157.658
187.555
216.917
245.412
272.685
298.375
322.129
343.6
362.46
378.42
391.224
400.641
406.51
408.734
407.267
402.219
393.571
381.44
366
347.485
326.19
302.429
276.529
248.854
219.789
189.711
158.991
127.993
97.0618
66.5292
36.8132
9.23501
-18.0604
-44.4161
-69.5323
-93.2262
-115.402
-136.018
-155.057
-172.537
-188.494
-202.983
-216.069
-227.824
-238.319
-247.624
-255.795
-262.876
-268.895
-273.862
-277.77
-280.6
-282.297
-282.797
-281.978
-279.871
-276.391
-271.475
-265.049
-257.057
-247.447
-236.162
-223.16
-208.414
-191.899
-173.61
-153.57
-131.819
-108.426
-83.4884
-57.1275
-29.4969
-0.740337
28.8176
58.9854
89.4676
119.998
150.259
179.96
208.829
236.542
262.776
287.246
309.637
329.681
347.108
361.702
373.272
381.646
386.657
-223.506
-241.422
-257.739
-272.419
-285.439
-296.837
-306.65
-314.922
-321.689
-326.986
-330.848
-333.274
-334.263
-333.76
-331.861
-328.518
-323.728
-317.469
-309.704
-300.383
-289.462
-276.886
-262.601
-246.566
-228.738
-209.1
-187.639
-164.351
-139.273
-112.466
-83.9968
-53.998
-22.6522
9.81624
42.9802
76.9182
111.241
145.516
179.334
212.317
244.028
274.063
302.006
327.46
350.093
369.584
385.65
398.07
406.674
411.332
411.928
408.474
401.073
389.751
374.707
356.186
334.431
309.741
282.476
253.001
221.725
189.04
155.356
121.11
86.7297
52.6879
20.3058
-12.0789
-43.699
-74.2134
-103.349
-130.944
-156.872
-181.046
-203.417
-223.948
-242.626
-259.447
-274.415
-287.553
-298.878
-308.41
-316.186
-322.234
-326.602
-329.305
-330.381
-329.939
-327.995
-324.567
-319.697
-313.409
-305.717
-296.626
-286.13
-274.212
-260.847
-246.01
-229.666
-211.791
-192.357
-171.351
-148.782
-124.67
-99.0683
-72.0534
-43.7299
-14.2366
16.2617
47.562
79.4024
111.529
143.652
175.456
206.603
236.74
265.505
292.528
317.44
339.878
359.495
375.97
389.013
398.386
403.902
405.396
402.838
396.279
385.715
371.313
353.278
331.874
307.421
280.281
250.853
219.564
186.855
153.172
118.956
84.636
50.6141
17.2593
-15.1019
-46.1831
-75.7458
-103.605
-129.625
-153.714
-175.829
-195.957
-214.123
-230.37
-244.759
-257.367
-268.279
-277.58
-285.358
-291.702
-296.692
-300.407
-302.908
-304.222
-304.391
-303.453
-301.403
-298.237
-293.937
-288.477
-281.831
-273.963
-264.836
-254.41
-242.65
-229.522
-214.999
-199.056
-181.674
-162.84
-142.548
-120.803
-97.6265
-73.0563
-47.1476
-19.9829
8.33047
37.659
67.8527
98.6063
129.692
160.811
191.628
221.775
250.865
278.498
304.27
327.785
348.659
366.529
381.067
391.997
399.103
402.227
401.278
396.333
387.454
374.761
358.495
338.942
316.437
291.355
264.106
235.12
204.836
173.696
142.123
110.522
79.2586
48.6703
19.0078
-9.49612
-36.6687
-62.3823
-86.5516
-109.132
-130.11
-149.495
-167.321
-183.634
-198.492
-211.953
-224.074
-234.908
-244.499
-252.888
-260.11
-266.191
-271.16
-275.045
-277.872
-279.652
-280.387
-280.097
-278.782
-276.423
-272.998
-268.479
-262.835
-256.027
-248.008
-238.735
-228.157
-216.226
-202.9
-188.135
-171.899
-154.171
-134.937
-114.21
-92.014
-68.3975
-43.4324
-17.2134
10.139
38.485
67.6818
97.417
127.483
157.628
187.562
216.967
245.507
272.827
298.564
322.365
343.88
362.78
378.778
391.612
401.052
406.938
409.171
407.711
402.637
393.975
381.819
366.348
347.795
326.455
302.646
276.696
248.97
219.855
189.729
158.966
127.925
96.9551
66.3815
36.6192
9.09773
-18.233
-44.6118
-69.74
-93.4386
-115.614
-136.227
-155.261
-172.732
-188.681
-203.159
-216.235
-227.979
-238.465
-247.762
-255.926
-263.003
-269.021
-273.988
-277.899
-280.731
-282.435
-282.946
-282.133
-280.032
-276.56
-271.653
-265.236
-257.252
-247.65
-236.373
-223.378
-208.637
-192.126
-173.84
-153.799
-132.045
-108.646
-83.6987
-57.3234
-29.6728
-0.899272
28.6865
58.8841
89.3983
119.962
150.259
179.997
208.906
236.66
262.937
287.448
309.88
329.961
347.422
362.045
373.639
382.031
387.054
-223.81
-241.718
-258.025
-272.696
-285.706
-297.095
-306.899
-315.163
-321.922
-327.213
-331.068
-333.491
-334.486
-333.986
-332.084
-328.746
-323.961
-317.711
-309.954
-300.643
-289.733
-277.168
-262.894
-246.87
-229.052
-209.421
-187.966
-164.68
-139.602
-112.789
-84.3099
-54.2942
-22.9245
9.57691
42.7731
76.7574
111.136
145.474
179.358
212.412
244.195
274.303
302.318
327.841
350.537
370.085
386.198
398.656
407.286
411.956
412.566
409.088
401.662
390.31
375.221
356.646
334.83
310.073
282.737
253.19
221.841
189.085
155.333
121.019
86.5703
52.4637
20.1193
-12.3146
-43.9736
-74.5139
-103.666
-131.271
-157.203
-181.377
-203.746
-224.272
-242.945
-259.759
-274.72
-287.851
-299.168
-308.693
-316.461
-322.502
-326.861
-329.553
-330.629
-330.18
-328.228
-324.796
-319.923
-313.634
-305.943
-296.854
-286.364
-274.452
-261.095
-246.265
-229.93
-212.063
-192.635
-171.635
-149.067
-124.954
-99.3467
-72.3213
-43.9825
-14.4685
16.0563
47.3896
79.2686
111.439
143.612
175.47
206.676
236.876
265.706
292.795
317.775
340.278
359.957
376.487
389.577
398.985
404.523
406.038
403.469
396.891
386.297
371.851
353.761
332.293
307.769
280.554
251.049
219.682
186.897
153.142
118.86
84.4796
50.4051
17.0058
-15.3917
-46.5007
-76.0829
-103.954
-129.979
-154.067
-176.175
-196.294
-214.446
-230.679
-245.052
-257.643
-268.539
-277.823
-285.587
-291.916
-296.894
-300.598
-303.089
-304.398
-304.567
-303.628
-301.579
-298.416
-294.121
-288.666
-282.027
-274.166
-265.046
-254.628
-242.876
-229.755
-215.239
-199.303
-181.927
-163.098
-142.81
-121.067
-97.8903
-73.3165
-47.4014
-20.2259
8.10346
37.4547
67.6814
98.4723
129.603
160.774
191.65
221.862
251.02
278.724
304.569
328.155
349.096
367.027
381.617
392.589
399.722
402.859
401.912
396.949
388.035
375.298
358.977
339.36
316.785
291.628
264.303
235.241
204.884
173.674
142.039
110.383
79.0733
48.4458
18.7552
-9.76887
-36.9541
-62.6738
-86.8437
-109.42
-130.39
-149.765
-167.579
-183.879
-198.724
-212.174
-224.284
-235.109
-244.692
-253.075
-260.291
-266.367
-271.331
-275.212
-278.036
-279.812
-280.548
-280.259
-278.946
-276.591
-273.171
-268.658
-263.021
-256.22
-248.21
-238.947
-228.378
-216.457
-203.141
-188.384
-172.156
-154.432
-135.203
-114.476
-92.2782
-68.6562
-43.6815
-17.449
9.92108
38.2894
67.5213
97.2904
127.396
157.588
187.573
217.034
245.633
273.016
298.816
322.679
344.252
363.207
379.254
392.129
401.599
407.508
409.752
408.295
403.202
394.516
382.327
366.812
348.207
326.809
302.935
276.918
249.125
219.943
189.753
158.931
127.835
96.8127
66.1847
36.3591
8.91577
-18.4639
-44.8734
-70.0175
-93.7222
-115.898
-136.507
-155.532
-172.994
-188.929
-203.394
-216.456
-228.186
-238.659
-247.945
-256.102
-263.174
-269.188
-274.156
-278.07
-280.906
-282.617
-283.146
-282.339
-280.247
-276.785
-271.889
-265.484
-257.512
-247.921
-236.654
-223.668
-208.934
-192.429
-174.146
-154.105
-132.347
-108.94
-83.9794
-57.5851
-29.9087
-1.11072
28.5116
58.7489
89.3058
119.915
150.259
180.047
209.008
236.817
263.15
287.718
310.204
330.334
347.84
362.502
374.128
382.545
387.583
-224.19
-242.088
-258.384
-273.043
-286.04
-297.417
-307.21
-315.464
-322.214
-327.497
-331.344
-333.763
-334.764
-334.265
-332.363
-329.031
-324.253
-318.012
-310.266
-300.969
-290.072
-277.521
-263.261
-247.25
-229.444
-209.823
-188.375
-165.093
-140.013
-113.194
-84.7018
-54.6651
-23.2654
9.27677
42.5134
76.5557
111.005
145.421
179.388
212.53
244.404
274.603
302.708
328.318
351.093
370.712
386.885
399.389
408.051
412.738
413.354
409.864
402.401
391.008
375.864
357.222
335.329
310.487
283.062
253.425
221.985
189.141
155.303
120.904
86.3707
52.1817
19.8868
-12.6103
-44.3181
-74.8904
-104.063
-131.68
-157.617
-181.792
-204.157
-224.677
-243.343
-260.149
-275.102
-288.223
-299.53
-309.047
-316.805
-322.837
-327.185
-329.867
-330.938
-330.48
-328.52
-325.082
-320.206
-313.915
-306.225
-297.14
-286.656
-274.752
-261.405
-246.585
-230.261
-212.403
-192.984
-171.99
-149.425
-125.309
-99.6952
-72.6566
-44.2989
-14.7591
15.7986
47.1739
79.1009
111.327
143.561
175.487
206.766
237.045
265.956
293.13
318.193
340.778
360.534
377.133
390.283
399.736
405.302
406.833
404.264
397.657
387.025
372.524
354.365
332.817
308.205
280.895
251.293
219.829
186.949
153.105
118.739
84.2833
50.1432
16.688
-15.7549
-46.8987
-76.5051
-104.391
-130.422
-154.509
-176.609
-196.716
-214.851
-231.065
-245.418
-257.989
-268.864
-278.128
-285.872
-292.185
-297.147
-300.837
-303.316
-304.622
-304.786
-303.846
-301.799
-298.64
-294.35
-288.903
-282.272
-274.42
-265.31
-254.902
-243.158
-230.046
-215.539
-199.612
-182.244
-163.421
-143.138
-121.398
-98.2206
-73.6424
-47.7193
-20.5303
7.81932
37.1978
67.4668
98.3038
129.49
160.728
191.678
221.97
251.214
279.007
304.942
328.616
349.642
367.65
382.307
393.33
400.497
403.647
402.707
397.72
388.762
375.97
359.58
339.883
317.219
291.97
264.549
235.392
204.943
173.647
141.934
110.208
78.8407
48.1647
18.4386
-10.1106
-37.3117
-63.039
-87.2094
-109.781
-130.741
-150.103
-167.902
-184.186
-199.015
-212.45
-224.547
-235.36
-244.934
-253.309
-260.516
-266.586
-271.545
-275.422
-278.24
-280.013
-280.749
-280.462
-279.152
-276.8
-273.387
-268.881
-263.253
-256.463
-248.463
-239.211
-228.655
-216.747
-203.442
-188.696
-172.476
-154.76
-135.535
-114.81
-92.609
-68.9801
-43.9934
-17.7441
9.64766
38.0437
67.3207
97.1315
127.287
157.536
187.585
217.117
245.791
273.252
299.131
323.072
344.718
363.741
379.85
392.775
402.285
408.221
410.48
409.02
403.913
395.195
382.962
367.393
348.722
327.251
303.297
277.195
249.318
220.053
189.783
158.888
127.723
96.6347
65.9389
36.0316
8.68978
-18.754
-45.2016
-70.3651
-94.077
-116.253
-136.856
-155.872
-173.32
-189.24
-203.688
-216.732
-228.445
-238.902
-248.175
-256.321
-263.386
-269.398
-274.366
-278.283
-281.125
-282.846
-283.394
-282.596
-280.514
-277.066
-272.184
-265.796
-257.838
-248.26
-237.006
-224.031
-209.306
-192.808
-174.529
-154.488
-132.725
-109.308
-84.3308
-57.913
-30.2053
-1.37469
28.2927
58.5797
89.1898
119.856
150.258
180.108
209.135
237.013
263.417
288.055
310.608
330.801
348.364
363.074
374.74
383.189
388.247
-224.647
-242.532
-258.814
-273.459
-286.442
-297.804
-307.584
-315.825
-322.565
-327.838
-331.676
-334.091
-335.096
-334.599
-332.697
-329.372
-324.603
-318.374
-310.641
-301.359
-290.478
-277.945
-263.702
-247.706
-229.914
-210.305
-188.866
-165.588
-140.508
-113.681
-85.1729
-55.1111
-23.6754
8.91561
42.2003
76.3125
110.846
145.356
179.423
212.671
244.653
274.963
303.177
328.89
351.761
371.465
387.71
400.27
408.971
413.678
414.298
410.796
403.29
391.847
376.636
357.912
335.928
310.984
283.453
253.707
222.158
189.208
155.266
120.767
86.1308
51.8405
19.6087
-12.9664
-44.7333
-75.3433
-104.541
-132.171
-158.114
-182.29
-204.651
-225.164
-243.821
-260.617
-275.56
-288.67
-299.966
-309.471
-317.218
-323.239
-327.573
-330.245
-331.308
-330.84
-328.87
-325.426
-320.545
-314.252
-306.564
-297.483
-287.006
-275.112
-261.777
-246.97
-230.658
-212.812
-193.403
-172.416
-149.854
-125.736
-100.114
-73.0598
-44.6796
-15.109
15.488
46.9146
78.8988
111.191
143.499
175.507
206.875
237.247
266.256
293.531
318.695
341.379
361.227
377.91
391.13
400.638
406.238
407.787
405.219
398.579
387.9
373.333
355.09
333.447
308.728
281.304
251.585
220.005
187.012
153.059
118.593
84.0466
49.8275
16.3053
-16.1919
-47.3775
-77.013
-104.916
-130.955
-155.04
-177.131
-197.222
-215.338
-231.53
-245.858
-258.404
-269.254
-278.493
-286.215
-292.507
-297.449
-301.124
-303.589
-304.89
-305.049
-304.108
-302.063
-298.909
-294.626
-289.187
-282.566
-274.726
-265.627
-255.23
-243.498
-230.397
-215.9
-199.983
-182.624
-163.809
-143.533
-121.795
-98.6175
-74.0343
-48.1015
-20.8965
7.47764
36.8879
67.2086
98.1003
129.354
160.671
191.709
222.099
251.447
279.347
305.389
329.171
350.297
368.398
383.135
394.22
401.429
404.602
403.66
398.646
389.636
376.777
360.305
340.511
317.741
292.379
264.843
235.572
205.013
173.613
141.805
109.997
78.56
47.8264
18.0575
-10.5218
-37.7418
-63.478
-87.6488
-110.214
-131.163
-150.509
-168.29
-184.555
-199.365
-212.782
-224.863
-235.662
-245.225
-253.589
-260.788
-266.85
-271.802
-275.673
-278.485
-280.255
-280.991
-280.705
-279.398
-277.052
-273.646
-269.15
-263.532
-256.753
-248.767
-239.529
-228.987
-217.094
-203.803
-189.07
-172.862
-155.154
-135.935
-115.21
-93.0067
-69.3694
-44.3685
-18.0991
9.31841
37.7466
67.0804
96.94
127.154
157.474
187.599
217.216
245.979
273.535
299.508
323.543
345.277
364.382
380.565
393.55
403.108
409.079
411.353
409.888
404.767
396.011
383.726
368.09
349.342
327.782
303.732
277.528
249.549
220.184
189.818
158.835
127.587
96.421
65.6441
35.635
8.42062
-19.1043
-45.597
-70.7834
-94.5035
-116.679
-137.276
-156.28
-173.712
-189.613
-204.04
-217.063
-228.755
-239.193
-248.45
-256.584
-263.641
-269.649
-274.618
-278.539
-281.388
-283.122
-283.69
-282.902
-280.836
-277.404
-272.538
-266.169
-258.228
-248.666
-237.428
-224.466
-209.753
-193.264
-174.989
-154.947
-133.18
-109.749
-84.7531
-58.3075
-30.5628
-1.69153
28.0297
58.3762
89.0502
119.784
150.257
180.182
209.288
237.248
263.737
288.459
311.094
331.362
348.992
363.76
375.475
383.961
389.044
-225.18
-243.05
-259.317
-273.945
-286.91
-298.256
-308.02
-316.246
-322.973
-328.235
-332.064
-334.474
-335.482
-334.986
-333.087
-329.77
-325.011
-318.796
-311.078
-301.814
-290.953
-278.44
-264.217
-248.239
-230.463
-210.868
-189.439
-166.166
-141.085
-114.25
-85.7236
-55.6325
-24.1548
8.49303
41.8327
76.0272
110.66
145.279
179.464
212.834
244.944
275.382
303.724
329.557
352.54
372.344
388.673
401.298
410.045
414.776
415.401
411.882
404.33
392.827
377.538
358.719
336.626
311.564
283.909
254.036
222.359
189.285
155.224
120.607
85.8506
51.4384
19.2856
-13.3839
-45.2199
-75.8735
-105.1
-132.746
-158.695
-182.872
-205.227
-225.732
-244.379
-261.164
-276.095
-289.192
-300.474
-309.967
-317.7
-323.707
-328.026
-330.687
-331.74
-331.26
-329.279
-325.826
-320.94
-314.645
-306.959
-297.883
-287.415
-275.532
-262.21
-247.418
-231.121
-213.289
-193.892
-172.914
-150.355
-126.236
-100.604
-73.5315
-45.1248
-15.5184
15.1241
46.611
78.662
111.031
143.426
175.529
207
237.482
266.606
293.998
319.28
342.079
362.037
378.817
392.12
401.692
407.333
408.902
406.332
399.657
388.922
374.277
355.938
334.181
309.337
281.781
251.926
220.209
187.083
153.004
118.421
83.7686
49.4576
15.857
-16.7036
-47.9378
-77.6071
-105.531
-131.578
-155.66
-177.74
-197.814
-215.906
-232.072
-246.371
-258.888
-269.71
-278.92
-286.616
-292.882
-297.803
-301.458
-303.908
-305.201
-305.355
-304.413
-302.371
-299.223
-294.948
-289.519
-282.909
-275.082
-265.996
-255.613
-243.894
-230.806
-216.321
-200.416
-183.067
-164.263
-143.993
-122.26
-99.0813
-74.4925
-48.5486
-21.3246
7.07788
36.5243
66.9061
97.8613
129.194
160.602
191.745
222.249
251.717
279.742
305.911
329.817
351.063
369.271
384.102
395.261
402.519
405.716
404.772
399.726
390.658
377.72
361.15
341.245
318.35
292.857
265.186
235.781
205.093
173.572
141.654
109.749
78.2303
47.4304
17.6113
-11.0032
-38.245
-63.9914
-88.1626
-110.721
-131.656
-150.984
-168.744
-184.986
-199.773
-213.169
-225.231
-236.014
-245.563
-253.916
-261.104
-267.158
-272.103
-275.966
-278.772
-280.537
-281.273
-280.989
-279.685
-277.346
-273.949
-269.463
-263.857
-257.093
-249.121
-239.9
-229.375
-217.5
-204.225
-189.507
-173.312
-155.614
-136.401
-115.679
-93.4715
-69.8244
-44.8071
-18.5143
8.93346
37.398
66.7997
96.7152
126.999
157.399
187.614
217.331
246.199
273.864
299.949
324.091
345.929
365.132
381.4
394.456
404.071
410.081
412.373
410.903
405.764
396.964
384.618
368.905
350.065
328.402
304.239
277.916
249.817
220.336
189.858
158.772
127.428
96.1716
65.3007
35.1692
8.10899
-19.5162
-46.061
-71.2728
-95.002
-117.178
-137.766
-156.756
-174.17
-190.049
-204.451
-217.449
-229.117
-239.533
-248.771
-256.89
-263.938
-269.942
-274.912
-278.838
-281.695
-283.443
-284.035
-283.258
-281.211
-277.797
-272.952
-266.605
-258.683
-249.14
-237.92
-224.974
-210.274
-193.796
-175.526
-155.484
-133.71
-110.266
-85.2469
-58.769
-30.9817
-2.06166
27.7223
58.1382
88.8868
119.699
150.256
180.267
209.465
237.522
264.11
288.931
311.66
332.016
349.725
364.562
376.333
384.864
389.976
-225.789
-243.643
-259.891
-274.5
-287.446
-298.772
-308.518
-316.728
-323.44
-328.689
-332.508
-334.912
-335.923
-335.427
-333.532
-330.225
-325.478
-319.278
-311.577
-302.333
-291.495
-279.006
-264.805
-248.848
-231.091
-211.512
-190.094
-166.828
-141.747
-114.901
-86.3544
-56.23
-24.7038
8.00834
41.4094
75.6989
110.445
145.19
179.508
213.02
245.275
275.861
304.348
330.32
353.431
373.349
389.774
402.475
411.274
416.033
416.663
413.123
405.522
393.949
378.57
359.641
337.426
312.227
284.429
254.411
222.588
189.372
155.174
120.423
85.53
50.9733
18.9181
-13.8642
-45.7788
-76.4817
-105.74
-133.404
-159.36
-183.537
-205.887
-226.382
-245.017
-261.789
-276.706
-289.789
-301.055
-310.533
-318.251
-324.242
-328.546
-331.193
-332.231
-331.739
-329.746
-326.284
-321.392
-315.095
-307.41
-298.34
-287.883
-276.012
-262.706
-247.93
-231.651
-213.835
-194.452
-173.484
-150.929
-126.808
-101.165
-74.0721
-45.6351
-15.988
14.7063
46.2627
78.3897
110.846
143.341
175.553
207.142
237.749
267.005
294.531
319.948
342.88
362.962
379.855
393.253
402.898
408.588
410.179
407.605
400.891
390.092
375.358
356.907
335.021
310.034
282.326
252.315
220.441
187.163
152.939
118.222
83.4487
49.0328
15.3424
-17.2906
-48.5803
-78.2881
-106.235
-132.291
-156.371
-178.438
-198.491
-216.557
-232.692
-246.959
-259.442
-270.23
-279.408
-287.073
-293.311
-298.206
-301.841
-304.273
-305.554
-305.705
-304.762
-302.723
-299.582
-295.315
-289.898
-283.302
-275.489
-266.419
-256.051
-244.348
-231.273
-216.803
-200.911
-183.575
-164.782
-144.521
-122.791
-99.6123
-75.0173
-49.0606
-21.8151
6.61952
36.1067
66.5586
97.586
129.009
160.523
191.784
222.418
252.024
280.193
306.507
330.556
351.938
370.271
385.209
396.452
403.766
406.991
406.045
400.962
391.828
378.799
362.118
342.083
319.046
293.402
265.577
236.019
205.184
173.523
141.479
109.463
77.8512
46.9756
17.0993
-11.5552
-38.8216
-64.5795
-88.751
-111.3
-132.22
-151.527
-169.262
-185.478
-200.239
-213.611
-225.652
-236.417
-245.95
-254.29
-261.466
-267.51
-272.446
-276.3
-279.1
-280.86
-281.594
-281.313
-280.013
-277.681
-274.295
-269.82
-264.229
-257.481
-249.527
-240.324
-229.819
-217.963
-204.708
-190.007
-173.827
-156.141
-136.935
-116.215
-94.0036
-70.3455
-45.3096
-18.9902
8.49275
36.9973
66.478
96.4565
126.82
157.312
187.63
217.461
246.448
274.239
300.452
324.718
346.675
365.99
382.356
395.493
405.172
411.228
413.541
412.066
406.905
398.056
385.64
369.838
350.892
329.111
304.818
278.359
250.124
220.508
189.903
158.698
127.245
95.8866
64.9097
34.6336
7.75531
-19.9919
-46.5946
-71.8339
-95.573
-117.748
-138.326
-157.301
-174.693
-190.547
-204.922
-217.89
-229.53
-239.921
-249.136
-257.239
-264.276
-270.276
-275.247
-279.179
-282.046
-283.81
-284.427
-283.664
-281.64
-278.246
-273.426
-267.104
-259.203
-249.682
-238.484
-225.556
-210.87
-194.405
-176.141
-156.099
-134.318
-110.857
-85.8124
-59.298
-31.4623
-2.48555
27.3699
57.8653
88.6992
119.602
150.253
180.364
209.666
237.834
264.536
289.47
312.308
332.765
350.564
365.479
377.315
385.896
391.043
-226.474
-244.31
-260.538
-275.125
-288.048
-299.353
-309.078
-317.269
-323.965
-329.201
-333.007
-335.405
-336.421
-335.921
-334.032
-330.735
-326.002
-319.82
-312.139
-302.918
-292.105
-279.642
-265.467
-249.534
-231.798
-212.236
-190.832
-167.573
-142.491
-115.635
-87.066
-56.9039
-25.3229
7.46088
40.929
75.327
110.202
145.088
179.557
213.227
245.647
276.399
305.051
331.18
354.435
374.482
391.015
403.801
412.659
417.449
418.086
414.52
406.865
395.212
379.732
360.68
338.325
312.973
285.014
254.832
222.844
189.468
155.117
120.216
85.1694
50.4433
18.507
-14.4088
-46.4112
-77.1689
-106.462
-134.145
-160.109
-184.286
-206.629
-227.114
-245.736
-262.492
-277.394
-290.46
-301.709
-311.171
-318.871
-324.844
-329.132
-331.761
-332.782
-332.278
-330.271
-326.799
-321.9
-315.6
-307.917
-298.854
-288.408
-276.553
-263.264
-248.507
-232.248
-214.45
-195.083
-174.126
-151.577
-127.452
-101.797
-74.6819
-46.2111
-16.5182
14.2339
45.8694
78.0814
110.637
143.243
175.579
207.3
238.048
267.452
295.13
320.7
343.781
364.004
381.024
394.529
404.258
410.002
411.618
409.039
402.282
391.411
376.576
358
335.967
310.818
282.939
252.751
220.701
187.251
152.864
117.996
83.086
48.5523
14.7606
-17.9539
-49.3059
-79.0568
-107.03
-133.096
-157.172
-179.224
-199.253
-217.289
-233.39
-247.62
-260.066
-270.816
-279.957
-287.587
-293.793
-298.66
-302.27
-304.684
-305.947
-306.098
-305.154
-303.119
-299.985
-295.729
-290.325
-283.744
-275.948
-266.895
-256.545
-244.858
-231.8
-217.345
-201.468
-184.147
-165.367
-145.114
-123.39
-100.211
-75.609
-49.6381
-22.3683
6.10203
35.6334
66.1663
97.2735
128.798
160.43
191.826
222.606
252.369
280.699
307.177
331.387
352.923
371.397
386.456
397.795
405.173
408.428
407.479
402.355
393.146
380.016
363.208
343.027
319.83
294.015
266.016
236.286
205.283
173.467
141.28
109.139
77.4217
46.4612
16.5208
-12.1785
-39.4724
-65.2429
-89.4143
-111.954
-132.856
-152.138
-169.846
-186.032
-200.763
-214.109
-226.125
-236.869
-246.385
-254.71
-261.874
-267.906
-272.831
-276.677
-279.468