/*--------------------------------*- C++ -*----------------------------------*\
| =========                 |                                                 |
| \\      /  F ield         | OpenFOAM: The Open Source CFD Toolbox           |
|  \\    /   O peration     | Version:  3.0.1                                 |
|   \\  /    A nd           | Web:      www.OpenFOAM.org                      |
|    \\/     M anipulation  |                                                 |
\*---------------------------------------------------------------------------*/
FoamFile
{
    version     2.0;
    format      ascii;
    class       surfaceScalarField;
    location    "60";
    object      alphaPhi;
}
// * * * * * * * * * * * * * * * * * * * * * * * * * * * * * * * * * * * * * //

dimensions      [0 3 -1 0 0 0 0];

internalField   nonuniform List<scalar> 
42423
(
-0.000109175
9.59571e-06
-0.000117783
8.60777e-06
-0.000125511
7.72833e-06
-0.000132383
6.87214e-06
-0.00013842
6.03694e-06
-0.000143664
5.24351e-06
-0.000148139
4.47479e-06
-0.000151864
3.7258e-06
-0.000154867
3.00278e-06
-0.00015717
2.30268e-06
-0.000158787
1.61748e-06
-0.000159752
9.64877e-07
-0.000160055
3.03201e-07
-0.000159654
-4.01853e-07
-0.000158518
-1.13606e-06
-0.000156694
-1.82371e-06
-0.000154266
-2.42813e-06
-0.000151035
-3.23033e-06
-0.000147067
-3.96805e-06
-0.000142382
-4.68554e-06
-0.000136835
-5.54698e-06
-0.00013045
-6.38443e-06
-0.000123316
-7.13406e-06
-0.000115223
-8.09332e-06
-0.000106265
-8.95761e-06
-9.62798e-05
-9.98567e-06
-8.53318e-05
-1.09481e-05
-7.35839e-05
-1.17478e-05
-6.0649e-05
-1.2935e-05
-4.66661e-05
-1.39829e-05
-3.18793e-05
-1.47869e-05
-1.6117e-05
-1.57622e-05
4.23498e-07
-1.65406e-05
1.77893e-05
-1.73659e-05
3.58473e-05
-1.8058e-05
5.4259e-05
-1.84117e-05
7.3078e-05
-1.88191e-05
9.21123e-05
-1.90343e-05
0.000110932
-1.88196e-05
0.000129504
-1.85718e-05
0.000147528
-1.80242e-05
0.000164802
-1.72746e-05
0.000181023
-1.62203e-05
0.000195847
-1.4824e-05
0.000209139
-1.32926e-05
0.000220647
-1.15074e-05
0.000230075
-9.4286e-06
0.000237344
-7.26903e-06
0.000242292
-4.94741e-06
0.00024474
-2.44873e-06
0.000244781
-4.03365e-08
0.000242362
2.41833e-06
0.00023744
4.9221e-06
0.000230344
7.09616e-06
0.000220947
9.3967e-06
0.000209613
1.13344e-05
0.000196545
1.30674e-05
0.000181801
1.47446e-05
0.000165701
1.60999e-05
0.000148531
1.71697e-05
0.000130608
1.79235e-05
0.00011216
1.84481e-05
9.33051e-05
1.88545e-05
7.44744e-05
1.88308e-05
5.57479e-05
1.87265e-05
3.73828e-05
1.8365e-05
1.9554e-05
1.78289e-05
2.3277e-06
1.72263e-05
-1.41057e-05
1.64334e-05
-2.97975e-05
1.56918e-05
-4.45298e-05
1.47324e-05
-5.82995e-05
1.37697e-05
-7.11581e-05
1.28585e-05
-8.30799e-05
1.19218e-05
-9.39895e-05
1.09096e-05
-0.000103984
9.99478e-06
-0.000112983
8.99829e-06
-0.000121153
8.16985e-06
-0.000128462
7.3097e-06
-0.000134907
6.44425e-06
-0.000140562
5.65515e-06
-0.000145403
4.84148e-06
-0.00014941
4.00665e-06
-0.000152679
3.26892e-06
-0.000155176
2.49678e-06
-0.00015677
1.59337e-06
-0.000157563
7.93295e-07
-0.000157475
-8.86656e-08
-0.000156542
-9.33489e-07
-0.000154753
-1.78902e-06
-0.000152225
-2.528e-06
-0.000148975
-3.25005e-06
-0.000145019
-3.9563e-06
-0.000140389
-4.62999e-06
-0.000135076
-5.31393e-06
-0.000129088
-5.98825e-06
-0.000122412
-6.67604e-06
-0.000115049
-7.36331e-06
-0.000106994
-8.05474e-06
-9.81442e-05
-8.84982e-06
-8.84394e-05
-9.70493e-06
-7.79673e-05
-1.04722e-05
-6.6598e-05
-1.13693e-05
-5.43715e-05
-1.22266e-05
-4.12632e-05
-1.31084e-05
-2.73581e-05
-1.39051e-05
-1.26506e-05
-1.47075e-05
2.75864e-06
-1.54093e-05
1.88067e-05
-1.60481e-05
3.54027e-05
-1.65961e-05
5.24487e-05
-1.7046e-05
6.97403e-05
-1.72917e-05
8.71473e-05
-1.74071e-05
0.00010447
-1.73231e-05
0.000121544
-1.70734e-05
0.000138183
-1.66392e-05
0.000154116
-1.59337e-05
0.000169182
-1.50656e-05
0.000183112
-1.39299e-05
0.000195691
-1.2579e-05
0.0002067
-1.10093e-05
0.000215904
-9.20389e-06
0.000223123
-7.21921e-06
0.000228186
-5.06295e-06
0.000230958
-2.77209e-06
0.000231353
-3.95181e-07
0.000229341
2.01264e-06
0.000224807
4.53388e-06
0.000217917
6.89007e-06
0.000208758
9.15918e-06
0.000197507
1.1251e-05
0.000184325
1.31817e-05
0.000169469
1.48558e-05
0.000153198
1.62711e-05
0.000135666
1.75321e-05
0.000117288
1.83783e-05
9.82246e-05
1.90632e-05
7.88202e-05
1.94044e-05
5.92712e-05
1.9549e-05
3.98663e-05
1.94049e-05
2.07812e-05
1.90851e-05
2.21133e-06
1.85698e-05
-1.56788e-05
1.78901e-05
-3.27318e-05
1.7053e-05
-4.88479e-05
1.61161e-05
-6.38895e-05
1.50416e-05
-7.77895e-05
1.39e-05
-9.06394e-05
1.28499e-05
-0.000102276
1.1637e-05
-0.000112799
1.05226e-05
-0.000122185
9.3858e-06
-0.000130505
8.32014e-06
-0.000137815
7.31039e-06
-0.000144157
6.34185e-06
-0.000149648
5.49085e-06
-0.00015428
4.6318e-06
-0.000158124
3.84466e-06
-0.000161221
3.09674e-06
-0.000163649
2.42776e-06
-0.000165435
1.78558e-06
-0.000166637
1.20267e-06
-0.000167275
6.38172e-07
-0.000167418
1.42781e-07
-0.00016701
-4.08592e-07
-0.000166051
-9.58137e-07
-0.000164654
-1.39748e-06
-0.000162639
-2.01444e-06
-0.000160022
-2.61726e-06
-0.000156817
-3.20554e-06
-0.000152919
-3.89722e-06
-0.000148496
-4.42365e-06
-0.000143319
-5.17668e-06
-0.000137435
-5.88396e-06
-0.000130815
-6.62047e-06
-0.000123532
-7.28268e-06
-0.00011542
-8.11162e-06
-0.000106506
-8.91409e-06
-9.67674e-05
-9.73888e-06
-8.61528e-05
-1.06147e-05
-7.46363e-05
-1.15165e-05
-6.23354e-05
-1.2301e-05
-4.91408e-05
-1.31947e-05
-3.51232e-05
-1.40176e-05
-2.0313e-05
-1.48103e-05
-4.78312e-06
-1.55299e-05
1.14117e-05
-1.61949e-05
2.81451e-05
-1.67334e-05
4.52538e-05
-1.71088e-05
6.26542e-05
-1.74005e-05
8.01821e-05
-1.75279e-05
9.76167e-05
-1.74347e-05
0.000114719
-1.71024e-05
0.000131173
-1.64543e-05
0.000146699
-1.55256e-05
0.000160974
-1.42751e-05
0.000173734
-1.27606e-05
0.000184741
-1.10066e-05
0.000193763
-9.02194e-06
0.000200587
-6.82406e-06
0.000205001
-4.41426e-06
0.000206898
-1.89693e-06
0.000206271
6.26834e-07
0.000203015
3.25647e-06
0.000197115
5.89942e-06
0.000188855
8.26e-06
0.00017833
1.05247e-05
0.000165745
1.25853e-05
0.000151379
1.43663e-05
0.000135558
1.58211e-05
0.000118545
1.7013e-05
0.000100754
1.77908e-05
8.25205e-05
1.82333e-05
6.40437e-05
1.84768e-05
4.5681e-05
1.83627e-05
2.76091e-05
1.80719e-05
9.83526e-06
1.77738e-05
-7.32646e-06
1.71617e-05
-2.3859e-05
1.65325e-05
-3.96403e-05
1.57813e-05
-5.45669e-05
1.49266e-05
-6.86416e-05
1.40747e-05
-8.17863e-05
1.31447e-05
-9.39583e-05
1.2172e-05
-0.000105187
1.12289e-05
-0.000115455
1.02678e-05
-0.000124795
9.34e-06
-0.000133252
8.45723e-06
-0.000140836
7.58401e-06
-0.000147612
6.77595e-06
-0.000153598
5.98605e-06
-0.000158877
5.27865e-06
-0.000163525
4.6482e-06
-0.000167499
3.97422e-06
-0.000170849
3.34949e-06
-0.00017361
2.76109e-06
-0.000175783
2.17321e-06
-0.000177398
1.61541e-06
-0.000178459
1.06083e-06
-0.000178974
5.14886e-07
-0.000178911
-6.32264e-08
-0.000178247
-6.64037e-07
-0.000176965
-1.28162e-06
-0.000175166
-1.79917e-06
-0.000172771
-2.39439e-06
-0.000169881
-2.88996e-06
-0.000166379
-3.50204e-06
-0.000162264
-4.11525e-06
-0.000157457
-4.80762e-06
-0.00015192
-5.53661e-06
-0.000145593
-6.32675e-06
-0.000138392
-7.2006e-06
-0.000130315
-8.07716e-06
-0.000121277
-9.03837e-06
-0.00011132
-9.95664e-06
-0.00010043
-1.08901e-05
-8.86884e-05
-1.17416e-05
-7.61113e-05
-1.25772e-05
-6.27627e-05
-1.33485e-05
-4.86305e-05
-1.41322e-05
-3.37803e-05
-1.48502e-05
-1.82477e-05
-1.55326e-05
-2.20924e-06
-1.60385e-05
1.4337e-05
-1.65463e-05
3.11963e-05
-1.68593e-05
4.81105e-05
-1.69143e-05
6.49434e-05
-1.6833e-05
8.14665e-05
-1.65233e-05
9.75596e-05
-1.60932e-05
0.000112822
-1.5263e-05
0.000127023
-1.42011e-05
0.00013999
-1.29664e-05
0.000151523
-1.15338e-05
0.000161457
-9.93434e-06
0.000169456
-7.99899e-06
0.000175663
-6.20658e-06
0.000179727
-4.06473e-06
0.000181822
-2.09515e-06
0.000181896
-7.40308e-08
0.000180064
1.83232e-06
0.000176545
3.51876e-06
0.000171063
5.48194e-06
0.000163887
7.17624e-06
0.000154795
9.0921e-06
0.000144078
1.07172e-05
0.000131542
1.25355e-05
0.000117428
1.41136e-05
0.000101909
1.55197e-05
8.53082e-05
1.66004e-05
6.78519e-05
1.74563e-05
4.98938e-05
1.79581e-05
3.17289e-05
1.81648e-05
1.37706e-05
1.79583e-05
-3.8399e-06
1.76105e-05
-2.08151e-05
1.69752e-05
-3.70263e-05
1.62112e-05
-5.23858e-05
1.53594e-05
-6.68696e-05
1.44839e-05
-8.04076e-05
1.3538e-05
-9.29923e-05
1.25847e-05
-0.000104634
1.16412e-05
-0.000115315
1.06819e-05
-0.000125082
9.76624e-06
-0.000133928
8.84597e-06
-0.000141873
7.94499e-06
-0.000148952
7.07887e-06
-0.000155167
6.21527e-06
-0.000160536
5.36876e-06
-0.000165096
4.5606e-06
-0.000168854
3.75786e-06
-0.00017181
2.9558e-06
-0.000173926
2.11596e-06
-0.000175196
1.2699e-06
-0.000175677
4.81744e-07
-0.000175457
-2.20866e-07
-0.00017454
-9.16815e-07
-0.000172886
-1.65361e-06
-0.000170433
-2.4533e-06
-0.000167186
-3.24686e-06
-0.000163111
-4.07541e-06
-0.000158117
-4.99407e-06
-0.000152189
-5.92802e-06
-0.000145312
-6.87613e-06
-0.000137408
-7.90407e-06
-0.000128586
-8.82283e-06
-0.000118644
-9.94198e-06
-0.000107743
-1.09009e-05
-9.58527e-05
-1.189e-05
-8.28384e-05
-1.30144e-05
-6.88554e-05
-1.3983e-05
-5.4067e-05
-1.47885e-05
-3.8201e-05
-1.5866e-05
-2.14058e-05
-1.67952e-05
-4.09303e-06
-1.73128e-05
1.39879e-05
-1.80809e-05
3.24579e-05
-1.847e-05
5.13694e-05
-1.89116e-05
7.04251e-05
-1.90557e-05
8.92703e-05
-1.88452e-05
0.000107886
-1.86156e-05
0.000125996
-1.81104e-05
0.000143225
-1.72284e-05
0.000159472
-1.62477e-05
0.000174445
-1.49732e-05
0.000187942
-1.34966e-05
0.000199673
-1.17306e-05
0.000209451
-9.77883e-06
0.000217098
-7.6471e-06
0.00022246
-5.3615e-06
0.000225431
-2.97106e-06
0.000226015
-5.84217e-07
0.00022395
2.06468e-06
0.00021944
4.51011e-06
0.000212584
6.85597e-06
0.000203416
9.16852e-06
0.000192345
1.10706e-05
0.000179374
1.2971e-05
1.46665e-05
-0.000109215
1.9194e-05
-0.000117824
1.72164e-05
-0.000125557
1.54607e-05
-0.000132432
1.3748e-05
-0.000138467
1.20715e-05
-0.000143712
1.04887e-05
-0.000148185
8.94798e-06
-0.000151909
7.44986e-06
-0.000154911
6.00486e-06
-0.000157215
4.60583e-06
-0.000158838
3.24054e-06
-0.000159806
1.93343e-06
-0.000160104
6.00933e-07
-0.000159698
-8.07675e-07
-0.000158563
-2.27127e-06
-0.000156744
-3.64217e-06
-0.000154311
-4.86154e-06
-0.000151082
-6.45945e-06
-0.000147117
-7.93275e-06
-0.000142428
-9.37498e-06
-0.000136886
-1.10893e-05
-0.000130501
-1.27691e-05
-0.000123369
-1.42657e-05
-0.000115275
-1.61873e-05
-0.000106325
-1.79081e-05
-9.63323e-05
-1.99782e-05
-8.53946e-05
-2.18858e-05
-7.36346e-05
-2.35079e-05
-6.06986e-05
-2.5871e-05
-4.67293e-05
-2.79522e-05
-3.19235e-05
-2.95927e-05
-1.61567e-05
-3.1529e-05
3.85398e-07
-3.30827e-05
1.77559e-05
-3.47364e-05
3.58253e-05
-3.61274e-05
5.42448e-05
-3.68312e-05
7.30699e-05
-3.76442e-05
9.21114e-05
-3.80759e-05
0.000110945
-3.76532e-05
0.000129532
-3.71587e-05
0.000147566
-3.60588e-05
0.000164848
-3.45564e-05
0.000181087
-3.24588e-05
0.000195925
-2.96624e-05
0.000209226
-2.65934e-05
0.000220744
-2.30255e-05
0.000230181
-1.88656e-05
0.00023745
-1.45388e-05
0.000242404
-9.90096e-06
0.000244863
-4.90763e-06
0.000244899
-7.63872e-08
0.000242477
4.83999e-06
0.000237561
9.83863e-06
0.000230464
1.41923e-05
0.000221063
1.87982e-05
0.000209724
2.26733e-05
0.000196642
2.6149e-05
0.000181889
2.9498e-05
0.00016577
3.22186e-05
0.000148588
3.43523e-05
0.000130651
3.58605e-05
0.000112191
3.69076e-05
9.33485e-05
3.7697e-05
7.44808e-05
3.76985e-05
5.57399e-05
3.74673e-05
3.73627e-05
3.67423e-05
1.95199e-05
3.56716e-05
2.28217e-06
3.4464e-05
-1.4157e-05
3.28725e-05
-2.98477e-05
3.13825e-05
-4.45883e-05
2.9473e-05
-5.83503e-05
2.75316e-05
-7.12134e-05
2.57217e-05
-8.3124e-05
2.38324e-05
-9.40482e-05
2.18338e-05
-0.000104043
1.99898e-05
-0.000113042
1.7997e-05
-0.000121212
1.63402e-05
-0.000128522
1.46189e-05
-0.000134964
1.28865e-05
-0.000140618
1.13091e-05
-0.000145462
9.6852e-06
-0.000149471
8.01616e-06
-0.000152733
6.53045e-06
-0.000155226
4.98942e-06
-0.000156817
3.18438e-06
-0.000157612
1.58736e-06
-0.000157516
-1.84173e-07
-0.000156578
-1.87173e-06
-0.000154784
-3.58373e-06
-0.000152249
-5.06266e-06
-0.000149
-6.4996e-06
-0.000145047
-7.91011e-06
-0.000140417
-9.25979e-06
-0.000135109
-1.0622e-05
-0.000129127
-1.19701e-05
-0.000122461
-1.33423e-05
-0.000115085
-1.47398e-05
-0.000107029
-1.61107e-05
-9.81827e-05
-1.76964e-05
-8.84863e-05
-1.94014e-05
-7.80111e-05
-2.09474e-05
-6.66378e-05
-2.27428e-05
-5.44073e-05
-2.44571e-05
-4.12966e-05
-2.62192e-05
-2.73885e-05
-2.78133e-05
-1.26772e-05
-2.94189e-05
2.74113e-06
-3.08277e-05
1.88089e-05
-3.2116e-05
3.54188e-05
-3.3206e-05
5.24675e-05
-3.40948e-05
6.9765e-05
-3.45892e-05
8.7181e-05
-3.48232e-05
0.000104512
-3.46546e-05
0.000121592
-3.41529e-05
0.00013824
-3.32872e-05
0.000154181
-3.18754e-05
0.00016925
-3.01343e-05
0.000183189
-2.78685e-05
0.000195768
-2.51588e-05
0.000206776
-2.2017e-05
0.000215977
-1.84054e-05
0.0002232
-1.44422e-05
0.000228258
-1.01207e-05
0.000231032
-5.54551e-06
0.000231414
-7.77785e-07
0.00022937
4.05662e-06
0.000224827
9.07713e-06
0.000217923
1.37943e-05
0.000208751
1.83311e-05
0.000197478
2.25235e-05
0.000184281
2.63792e-05
0.000169403
2.97332e-05
0.000153118
3.25566e-05
0.000135558
3.50927e-05
0.00011715
3.67855e-05
9.80711e-05
3.81424e-05
7.86682e-05
3.88074e-05
5.91477e-05
3.90696e-05
3.97081e-05
3.88446e-05
2.06149e-05
3.81783e-05
2.01366e-06
3.71712e-05
-1.58733e-05
3.57771e-05
-3.29365e-05
3.41163e-05
-4.90506e-05
3.22303e-05
-6.41002e-05
3.00912e-05
-7.80327e-05
2.78325e-05
-9.08481e-05
2.56654e-05
-0.000102492
2.32812e-05
-0.000112999
2.10294e-05
-0.000122374
1.87607e-05
-0.000130693
1.66395e-05
-0.000137982
1.45997e-05
-0.000144298
1.26574e-05
-0.000149814
1.10074e-05
-0.000154434
9.25173e-06
-0.000158264
7.67467e-06
-0.000161364
6.19591e-06
-0.000163779
4.84285e-06
-0.000165558
3.56479e-06
-0.000166762
2.4066e-06
-0.000167364
1.24003e-06
-0.000167526
3.05581e-07
-0.000167112
-8.22997e-07
-0.00016615
-1.92007e-06
-0.00016475
-2.79765e-06
-0.000162731
-4.03332e-06
-0.000160115
-5.23265e-06
-0.000156908
-6.41306e-06
-0.000153002
-7.80349e-06
-0.000148575
-8.85031e-06
-0.000143396
-1.03556e-05
-0.000137499
-1.17812e-05
-0.000130884
-1.32354e-05
-0.000123595
-1.45714e-05
-0.000115486
-1.62213e-05
-0.000106567
-1.78329e-05
-9.68218e-05
-1.94839e-05
-8.61999e-05
-2.12366e-05
-7.46748e-05
-2.30416e-05
-6.23746e-05
-2.46012e-05
-4.91791e-05
-2.63902e-05
-3.51663e-05
-2.80305e-05
-2.03471e-05
-2.96296e-05
-4.80509e-06
-3.10719e-05
1.13933e-05
-3.23934e-05
2.8133e-05
-3.34731e-05
4.52492e-05
-3.42251e-05
6.26579e-05
-3.48092e-05
8.019e-05
-3.50602e-05
9.76304e-05
-3.48751e-05
0.000114745
-3.42171e-05
0.000131209
-3.29189e-05
0.000146736
-3.10517e-05
0.000161018
-2.85571e-05
0.000173781
-2.55244e-05
0.000184787
-2.20123e-05
0.000193804
-1.80388e-05
0.000200637
-1.36577e-05
0.000205037
-8.8137e-06
0.000206931
-3.79117e-06
0.000206287
1.27055e-06
0.000203019
6.52401e-06
0.000197112
1.18071e-05
0.000188831
1.65411e-05
0.000178279
2.10762e-05
0.000165682
2.51828e-05
0.00015129
2.87579e-05
0.000135461
3.16502e-05
0.000118438
3.40359e-05
0.000100629
3.55996e-05
8.23599e-05
3.65026e-05
6.38857e-05
3.6951e-05
4.55023e-05
3.67462e-05
2.73656e-05
3.62086e-05
9.64141e-06
3.54981e-05
-7.51494e-06
3.43181e-05
-2.40126e-05
3.30302e-05
-3.98349e-05
3.16036e-05
-5.47588e-05
2.98506e-05
-6.87967e-05
2.81126e-05
-8.19732e-05
2.63212e-05
-9.41561e-05
2.4355e-05
-0.000105381
2.24537e-05
-0.000115646
2.05332e-05
-0.000124979
1.86726e-05
-0.000133421
1.68998e-05
-0.000141
1.5163e-05
-0.000147771
1.35468e-05
-0.000153757
1.19715e-05
-0.000159032
1.05541e-05
-0.000163674
9.28994e-06
-0.000167637
7.93795e-06
-0.000170976
6.68824e-06
-0.000173733
5.51854e-06
-0.000175895
4.33475e-06
-0.000177506
3.22659e-06
-0.000178568
2.12239e-06
-0.000179071
1.01809e-06
-0.000179006
-1.28157e-07
-0.000178343
-1.32721e-06
-0.000177067
-2.55733e-06
-0.000175254
-3.61261e-06
-0.00017284
-4.80773e-06
-0.000169951
-5.77932e-06
-0.000166443
-7.01002e-06
-0.000162327
-8.23077e-06
-0.000157526
-9.60912e-06
-0.000151989
-1.10734e-05
-0.000145659
-1.26567e-05
-0.000138458
-1.44018e-05
-0.000130379
-1.61561e-05
-0.000121338
-1.80787e-05
-0.000111381
-1.99144e-05
-0.000100492
-2.17787e-05
-8.8749e-05
-2.34846e-05
-7.61623e-05
-2.51638e-05
-6.28111e-05
-2.66997e-05
-4.86845e-05
-2.82587e-05
-3.38381e-05
-2.96967e-05
-1.83104e-05
-3.10603e-05
-2.25138e-06
-3.20976e-05
1.42971e-05
-3.30948e-05
3.11608e-05
-3.37232e-05
4.80869e-05
-3.38404e-05
6.49305e-05
-3.36768e-05
8.14802e-05
-3.30731e-05
9.75602e-05
-3.21734e-05
0.000112829
-3.05318e-05
0.00012706
-2.84327e-05
0.000140036
-2.59427e-05
0.000151583
-2.30806e-05
0.000161527
-1.98784e-05
0.000169519
-1.59911e-05
0.000175713
-1.24007e-05
0.000179777
-8.12941e-06
0.000181887
-4.20486e-06
0.000181966
-1.52756e-07
0.000180136
3.66171e-06
0.000176625
7.02973e-06
0.000171134
1.09729e-05
0.000163961
1.4349e-05
0.000154876
1.81767e-05
0.000144159
2.14344e-05
0.000131622
2.50732e-05
0.000117501
2.82341e-05
0.000101971
3.10494e-05
8.53566e-05
3.32151e-05
6.78864e-05
3.49265e-05
4.99148e-05
3.59297e-05
3.17345e-05
3.63452e-05
1.377e-05
3.59227e-05
-3.85e-06
3.52305e-05
-2.08291e-05
3.39543e-05
-3.70434e-05
3.24255e-05
-5.24057e-05
3.07217e-05
-6.68914e-05
2.89696e-05
-8.043e-05
2.70765e-05
-9.30151e-05
2.51698e-05
-0.000104657
2.32828e-05
-0.000115339
2.13638e-05
-0.000125104
1.95322e-05
-0.000133948
1.76898e-05
-0.000141891
1.58878e-05
-0.000148968
1.41553e-05
-0.000155181
1.24291e-05
-0.000160554
1.07418e-05
-0.000165117
9.12308e-06
-0.00016887
7.51122e-06
-0.000171824
5.90909e-06
-0.000173952
4.24417e-06
-0.000175234
2.55213e-06
-0.000175718
9.65771e-07
-0.000175504
-4.3522e-07
-0.000174595
-1.82598e-06
-0.000172943
-3.30562e-06
-0.000170487
-4.90914e-06
-0.000167238
-6.49514e-06
-0.000163165
-8.14924e-06
-0.00015817
-9.98821e-06
-0.000152244
-1.18543e-05
-0.000145372
-1.37488e-05
-0.000137465
-1.58105e-05
-0.000128643
-1.76454e-05
-0.000118696
-1.98882e-05
-0.000107796
-2.18013e-05
-9.58979e-05
-2.37882e-05
-8.28853e-05
-2.6027e-05
-6.88973e-05
-2.7971e-05
-5.41047e-05
-2.95812e-05
-3.82427e-05
-3.1728e-05
-2.14402e-05
-3.35978e-05
-4.12328e-06
-3.46298e-05
1.39599e-05
-3.61642e-05
3.24408e-05
-3.6951e-05
5.13655e-05
-3.78363e-05
7.04284e-05
-3.81188e-05
8.929e-05
-3.77068e-05
0.00010792
-3.72459e-05
0.000126038
-3.62282e-05
0.000143273
-3.44634e-05
0.000159533
-3.25083e-05
0.000174518
-2.99576e-05
0.000188024
-2.70031e-05
0.000199763
-2.34698e-05
0.00020955
-1.95657e-05
0.000217195
-1.52921e-05
0.000222558
-1.07248e-05
0.000225536
-5.9492e-06
0.000226118
-1.16625e-06
0.000224042
4.14063e-06
0.000219533
9.01897e-06
0.000212675
1.37142e-05
0.000203498
1.83451e-05
0.000192419
2.21497e-05
0.000179438
2.59517e-05
2.93444e-05
-0.000109293
2.87942e-05
-0.000117901
2.58243e-05
-0.000125631
2.31907e-05
-0.000132504
2.06219e-05
-0.000138539
1.81059e-05
-0.000143784
1.57336e-05
-0.000148262
1.34259e-05
-0.000151993
1.11816e-05
-0.000154995
9.00663e-06
-0.000157296
6.90625e-06
-0.000158917
4.86144e-06
-0.000159873
2.89024e-06
-0.00016016
8.87486e-07
-0.000159752
-1.21583e-06
-0.000158621
-3.40244e-06
-0.000156815
-5.44749e-06
-0.000154368
-7.30932e-06
-0.00015114
-9.68668e-06
-0.000147183
-1.18903e-05
-0.000142484
-1.40736e-05
-0.000136953
-1.66202e-05
-0.000130561
-1.91616e-05
-0.000123431
-2.13949e-05
-0.000115342
-2.42764e-05
-0.000106421
-2.68297e-05
-9.64066e-05
-2.99925e-05
-8.5496e-05
-3.27964e-05
-7.37149e-05
-3.5289e-05
-6.07792e-05
-3.88068e-05
-4.68062e-05
-4.19252e-05
-3.19901e-05
-4.44088e-05
-1.6218e-05
-4.73012e-05
3.32484e-07
-4.96333e-05
1.77126e-05
-5.21166e-05
3.57898e-05
-5.42047e-05
5.42175e-05
-5.52589e-05
7.30568e-05
-5.64836e-05
9.21159e-05
-5.71351e-05
0.000110965
-5.65027e-05
0.00012957
-5.57636e-05
0.000147627
-5.41156e-05
0.000164931
-5.18605e-05
0.000181189
-4.87164e-05
0.000196043
-4.45169e-05
0.000209361
-3.99112e-05
0.000220898
-3.45622e-05
0.000230345
-2.83131e-05
0.000237632
-2.18255e-05
0.000242584
-1.48537e-05
0.000245049
-7.37254e-06
0.000245078
-1.05505e-07
0.000242634
7.28481e-06
0.000237737
1.47352e-05
0.000230638
2.12913e-05
0.000221233
2.82032e-05
0.00020989
3.40165e-05
0.000196768
3.92701e-05
0.000182
4.42663e-05
0.000165847
4.83722e-05
0.000148646
5.15532e-05
0.000130689
5.38168e-05
0.000112206
5.53908e-05
9.33946e-05
5.65084e-05
7.44691e-05
5.6624e-05
5.57112e-05
5.62252e-05
3.73193e-05
5.51342e-05
1.94631e-05
5.35278e-05
2.21287e-06
5.17142e-05
-1.42268e-05
4.93122e-05
-2.99097e-05
4.70654e-05
-4.46672e-05
4.42305e-05
-5.84161e-05
4.12805e-05
-7.12866e-05
3.85921e-05
-8.31783e-05
3.57241e-05
-9.41174e-05
3.27729e-05
-0.000104114
2.99868e-05
-0.000113111
2.69936e-05
-0.000121283
2.45119e-05
-0.00012859
2.19257e-05
-0.000135032
1.93289e-05
-0.000140691
1.69678e-05
-0.000145536
1.45305e-05
-0.000149544
1.20242e-05
-0.000152793
9.7784e-06
-0.000155301
7.49787e-06
-0.000156898
4.7812e-06
-0.000157688
2.37648e-06
-0.000157591
-2.81499e-07
-0.000156648
-2.81472e-06
-0.000154863
-5.36832e-06
-0.000152334
-7.59197e-06
-0.000149095
-9.73949e-06
-0.000145141
-1.18638e-05
-0.000140517
-1.38844e-05
-0.000135217
-1.59221e-05
-0.000129246
-1.79411e-05
-0.000122616
-1.99729e-05
-0.00011522
-2.21356e-05
-0.000107139
-2.41918e-05
-9.83221e-05
-2.65134e-05
-8.86782e-05
-2.90454e-05
-7.81939e-05
-3.14318e-05
-6.68243e-05
-3.41124e-05
-5.46003e-05
-3.66812e-05
-4.14783e-05
-3.93413e-05
-2.7576e-05
-4.17155e-05
-1.28597e-05
-4.41353e-05
2.57737e-06
-4.62648e-05
1.86593e-05
-4.81979e-05
3.53109e-05
-4.98577e-05
5.23379e-05
-5.11218e-05
6.96583e-05
-5.19097e-05
8.70923e-05
-5.22573e-05
0.000104459
-5.2021e-05
0.000121545
-5.12393e-05
0.000138202
-4.99444e-05
0.000154161
-4.78343e-05
0.000169236
-4.52092e-05
0.000183196
-4.18287e-05
0.000195798
-3.77603e-05
0.000206829
-3.30488e-05
0.000216046
-2.76216e-05
0.000223283
-2.16801e-05
0.000228352
-1.51889e-05
0.000231123
-8.31748e-06
0.000231496
-1.15066e-06
0.000229429
6.12356e-06
0.000224891
1.36154e-05
0.00021798
2.0705e-05
0.000208793
2.75188e-05
0.000197499
3.38172e-05
0.000184288
3.95906e-05
0.000169376
4.46455e-05
0.000153029
4.89032e-05
0.000135475
5.26463e-05
0.000117044
5.52165e-05
9.79508e-05
5.72361e-05
7.8525e-05
5.82332e-05
5.89844e-05
5.86102e-05
3.95106e-05
5.83184e-05
2.04358e-05
5.72531e-05
1.80061e-06
5.58064e-05
-1.60953e-05
5.3673e-05
-3.31725e-05
5.11936e-05
-4.9291e-05
4.83488e-05
-6.43555e-05
4.51558e-05
-7.83107e-05
4.17877e-05
-9.10887e-05
3.84434e-05
-0.000102753
3.49452e-05
-0.000113257
3.15335e-05
-0.000122632
2.81364e-05
-0.000130939
2.49464e-05
-0.000138182
2.18427e-05
-0.000144536
1.9011e-05
-0.000150049
1.65205e-05
-0.000154655
1.38576e-05
-0.000158472
1.14916e-05
-0.000161573
9.29713e-06
-0.000163983
7.25236e-06
-0.000165749
5.33128e-06
-0.000166959
3.61614e-06
-0.000167531
1.8127e-06
-0.000167716
4.90763e-07
-0.000167302
-1.23749e-06
-0.00016637
-2.85174e-06
-0.000164937
-4.23043e-06
-0.000162922
-6.04919e-06
-0.000160322
-7.83174e-06
-0.00015712
-9.61555e-06
-0.000153263
-1.16607e-05
-0.000148785
-1.33283e-05
-0.000143604
-1.55362e-05
-0.000137668
-1.77176e-05
-0.000131144
-1.97593e-05
-0.000123806
-2.19094e-05
-0.000115698
-2.4329e-05
-0.000106777
-2.67542e-05
-9.70386e-05
-2.92221e-05
-8.6409e-05
-3.18663e-05
-7.48823e-05
-3.45682e-05
-6.25949e-05
-3.68887e-05
-4.9392e-05
-3.95932e-05
-3.53817e-05
-4.20408e-05
-2.05433e-05
-4.44681e-05
-4.99016e-06
-4.66251e-05
1.12274e-05
-4.8611e-05
2.79819e-05
-5.02277e-05
4.51087e-05
-5.13519e-05
6.25313e-05
-5.22319e-05
8.00804e-05
-5.26093e-05
9.75373e-05
-5.23321e-05
0.000114678
-5.13578e-05
0.00013117
-4.94107e-05
0.000146724
-4.66063e-05
0.000161053
-4.28858e-05
0.000173818
-3.82898e-05
0.000184837
-3.3031e-05
0.000193864
-2.70656e-05
0.000200706
-2.04996e-05
0.000205116
-1.32245e-05
0.000207024
-5.69855e-06
0.000206351
1.94282e-06
0.000203078
9.79775e-06
0.000197179
1.77052e-05
0.000188882
2.48389e-05
0.000178293
3.16648e-05
0.000165706
3.77694e-05
0.00015124
4.32248e-05
0.000135389
4.75012e-05
0.000118369
5.10556e-05
0.000100572
5.3396e-05
8.2206e-05
5.4869e-05
6.37196e-05
5.54374e-05
4.53164e-05
5.51493e-05
2.71582e-05
5.43668e-05
9.42995e-06
5.32263e-05
-7.72923e-06
5.14773e-05
-2.42304e-05
4.95314e-05
-4.0057e-05
4.74302e-05
-5.49904e-05
4.4784e-05
-6.90258e-05
4.2148e-05
-8.22102e-05
3.95057e-05
-9.43996e-05
3.65443e-05
-0.000105622
3.3676e-05
-0.000115886
3.07973e-05
-0.000125213
2.79994e-05
-0.000133644
2.53315e-05
-0.000141219
2.27376e-05
-0.000147987
2.03143e-05
-0.000153971
1.79555e-05
-0.000159267
1.58507e-05
-0.000163873
1.38958e-05
-0.000167838
1.19028e-05
-0.000171172
1.00223e-05
-0.000173924
8.27063e-06
-0.000176089
6.49935e-06
-0.000177707
4.84539e-06
-0.000178771
3.18629e-06
-0.000179255
1.5016e-06
-0.000179207
-1.75388e-07
-0.000178539
-1.9954e-06
-0.00017728
-3.81678e-06
-0.000175451
-5.44168e-06
-0.000173021
-7.23698e-06
-0.000170142
-8.65916e-06
-0.000166611
-1.05409e-05
-0.000162525
-1.23162e-05
-0.000157713
-1.44211e-05
-0.000152194
-1.65922e-05
-0.000145868
-1.89832e-05
-0.000138672
-2.15973e-05
-0.00013059
-2.42384e-05
-0.000121557
-2.71118e-05
-0.000111595
-2.9876e-05
-0.0001007
-3.26735e-05
-8.89419e-05
-3.52431e-05
-7.63567e-05
-3.7749e-05
-6.29983e-05
-4.00581e-05
-4.88714e-05
-4.23856e-05
-3.40051e-05
-4.4563e-05
-1.84881e-05
-4.65774e-05
-2.39879e-06
-4.81869e-05
1.41746e-05
-4.96682e-05
3.10638e-05
-5.06125e-05
4.80175e-05
-5.07942e-05
6.48855e-05
-5.0545e-05
8.15019e-05
-4.96896e-05
9.75581e-05
-4.82297e-05
0.000112838
-4.5812e-05
0.000127116
-4.27104e-05
0.000140105
-3.89327e-05
0.00015167
-3.4645e-05
0.000161628
-2.98374e-05
0.000169617
-2.39799e-05
0.000175811
-1.85944e-05
0.000179886
-1.22051e-05
0.000182003
-6.32153e-06
0.000182066
-2.15787e-07
0.000180242
5.48548e-06
0.000176741
1.05304e-05
0.00017123
1.64835e-05
0.000164063
2.1516e-05
0.000155005
2.72349e-05
0.000144274
3.21658e-05
0.000131731
3.76161e-05
0.000117597
4.23675e-05
0.000102051
4.65958e-05
8.54099e-05
4.98559e-05
6.79153e-05
5.24211e-05
4.99206e-05
5.39244e-05
3.17209e-05
5.45449e-05
1.3739e-05
5.39046e-05
-3.8931e-06
5.28626e-05
-2.08823e-05
5.09435e-05
-3.7103e-05
4.86462e-05
-5.24684e-05
4.6087e-05
-6.69564e-05
4.34576e-05
-8.04955e-05
4.06157e-05
-9.30817e-05
3.7756e-05
-0.000104722
3.49231e-05
-0.000115402
3.20433e-05
-0.000125164
2.92948e-05
-0.000134004
2.65298e-05
-0.000141942
2.3826e-05
-0.000149014
2.12271e-05
-0.000155225
1.86404e-05
-0.000160594
1.611e-05
-0.000165145
1.3674e-05
-0.000168889
1.12557e-05
-0.000171837
8.85704e-06
-0.000173974
6.38158e-06
-0.000175277
3.85485e-06
-0.000175774
1.46237e-06
-0.000175569
-6.3991e-07
-0.000174665
-2.73019e-06
-0.000173016
-4.95471e-06
-0.000170564
-7.36097e-06
-0.000167316
-9.74262e-06
-0.000163243
-1.22228e-05
-0.000158247
-1.49847e-05
-0.000152325
-1.7776e-05
-0.00014546
-2.06138e-05
-0.000137551
-2.37191e-05
-0.00012873
-2.6467e-05
-0.000118778
-2.98402e-05
-0.00010786
-3.27191e-05
-9.59714e-05
-3.56768e-05
-8.29612e-05
-3.90372e-05
-6.89678e-05
-4.19643e-05
-5.41704e-05
-4.43786e-05
-3.83149e-05
-4.75835e-05
-2.14961e-05
-5.04166e-05
-4.15683e-06
-5.19691e-05
1.39303e-05
-5.42514e-05
3.2424e-05
-5.54448e-05
5.13605e-05
-5.67728e-05
7.0443e-05
-5.72013e-05
8.93229e-05
-5.65868e-05
0.000107974
-5.58968e-05
0.00012612
-5.43744e-05
0.000143372
-5.1715e-05
0.000159648
-4.8785e-05
0.000174645
-4.49544e-05
0.000188166
-4.05241e-05
0.000199917
-3.52208e-05
0.000209711
-2.93602e-05
0.000217363
-2.29445e-05
0.000222725
-1.60864e-05
0.000225708
-8.93246e-06
0.000226293
-1.75092e-06
0.000224205
6.22783e-06
0.000219706
1.35181e-05
0.000212845
2.05751e-05
0.000203656
2.7534e-05
0.000192562
3.32441e-05
0.000179563
3.895e-05
4.40411e-05
-0.000109407
3.83957e-05
-0.000118017
3.44336e-05
-0.000125747
3.09211e-05
-0.00013262
2.74948e-05
-0.000138654
2.414e-05
-0.000143898
2.09776e-05
-0.000148377
1.79051e-05
-0.000152115
1.4919e-05
-0.000155115
1.20073e-05
-0.000157415
9.20614e-06
-0.000159037
6.48324e-06
-0.000159985
3.83869e-06
-0.000160253
1.15534e-06
-0.000159835
-1.63411e-06
-0.000158711
-4.52677e-06
-0.000156908
-7.24988e-06
-0.000154453
-9.76489e-06
-0.000151228
-1.29115e-05
-0.000147272
-1.58467e-05
-0.000142568
-1.87777e-05
-0.000137048
-2.21396e-05
-0.000130649
-2.55603e-05
-0.000123525
-2.85192e-05
-0.000115442
-3.23593e-05
-0.000106535
-3.57368e-05
-9.65179e-05
-4.00098e-05
-8.56125e-05
-4.37019e-05
-7.38365e-05
-4.7065e-05
-6.09003e-05
-5.17431e-05
-4.69225e-05
-5.5903e-05
-3.20902e-05
-5.92411e-05
-1.63116e-05
-6.30798e-05
2.50091e-07
-6.6195e-05
1.76435e-05
-6.951e-05
3.57363e-05
-7.22975e-05
5.41784e-05
-7.37011e-05
7.30386e-05
-7.53438e-05
9.21226e-05
-7.62192e-05
0.000111
-7.53801e-05
0.000129629
-7.43927e-05
0.000147713
-7.22e-05
0.000165049
-6.91961e-05
0.000181339
-6.5007e-05
0.000196218
-5.93957e-05
0.000209562
-5.32552e-05
0.000221126
-4.61264e-05
0.00023059
-3.77767e-05
0.000237905
-2.91407e-05
0.000242855
-1.98038e-05
0.000245319
-9.83627e-06
0.000245338
-1.24668e-07
0.000242875
9.74777e-06
0.000238004
1.96065e-05
0.000230897
2.8398e-05
0.000221493
3.76071e-05
0.000210127
4.53823e-05
0.000196955
5.24427e-05
0.000182135
5.90858e-05
0.00016596
6.45473e-05
0.000148732
6.87812e-05
0.000130747
7.18018e-05
0.000112227
7.39102e-05
9.34028e-05
7.53331e-05
7.44496e-05
7.55772e-05
5.56656e-05
7.50092e-05
3.72541e-05
7.35457e-05
1.938e-05
7.14019e-05
2.10815e-06
6.89861e-05
-1.43339e-05
6.57543e-05
-3.00029e-05
6.27343e-05
-4.47833e-05
5.90109e-05
-5.85021e-05
5.49993e-05
-7.13963e-05
5.14863e-05
-8.32856e-05
4.76135e-05
-9.42178e-05
4.37051e-05
-0.000104225
3.99939e-05
-0.000113216
3.59841e-05
-0.000121391
3.26869e-05
-0.000128699
2.92337e-05
-0.000135137
2.57672e-05
-0.000140799
2.26302e-05
-0.00014565
1.93811e-05
-0.000149662
1.6036e-05
-0.000152897
1.30134e-05
-0.000155418
1.00186e-05
-0.000157028
6.39048e-06
-0.000157817
3.16502e-06
-0.000157714
-3.8471e-07
-0.000156754
-3.77483e-06
-0.000155009
-7.11349e-06
-0.000152529
-1.00724e-05
-0.000149247
-1.30215e-05
-0.000145305
-1.58057e-05
-0.000140681
-1.85087e-05
-0.000135406
-2.11979e-05
-0.000129443
-2.39034e-05
-0.000122855
-2.65619e-05
-0.000115509
-2.94814e-05
-0.000107393
-3.23075e-05
-9.85516e-05
-3.53553e-05
-8.8983e-05
-3.86141e-05