/*--------------------------------*- C++ -*----------------------------------*\
| =========                 |                                                 |
| \\      /  F ield         | OpenFOAM: The Open Source CFD Toolbox           |
|  \\    /   O peration     | Version:  3.0.1                                 |
|   \\  /    A nd           | Web:      www.OpenFOAM.org                      |
|    \\/     M anipulation  |                                                 |
\*---------------------------------------------------------------------------*/
FoamFile
{
    version     2.0;
    format      ascii;
    class       volScalarField;
    location    "61";
    object      p_rgh;
}
// * * * * * * * * * * * * * * * * * * * * * * * * * * * * * * * * * * * * * //

dimensions      [1 -1 -2 0 0 0 0];

internalField   nonuniform List<scalar> 
21420
(
107.687
140.405
172.803
204.412
234.812
263.388
289.679
313.193
333.542
350.421
363.557
372.737
377.83
378.591
375.077
367.416
355.755
340.202
321.015
298.484
272.975
244.844
214.485
182.359
148.876
114.495
79.6255
44.6845
10.0753
-23.8814
-56.6987
-87.8441
-118.08
-146.873
-174.046
-199.475
-223.097
-244.873
-264.793
-282.869
-299.132
-313.618
-326.375
-337.45
-346.894
-354.755
-361.077
-365.898
-369.252
-371.158
-371.609
-370.624
-368.229
-364.356
-358.982
-352.103
-343.667
-333.634
-321.974
-308.653
-293.637
-276.907
-258.428
-238.212
-216.279
-192.653
-167.394
-140.589
-112.335
-82.7615
-52.003
-20.1152
12.3559
45.224
78.2329
111.091
143.476
175.051
205.463
234.356
261.367
286.145
308.343
327.629
343.709
356.322
365.247
370.326
371.384
368.514
361.644
350.884
336.34
318.217
296.755
272.241
245.006
215.412
183.853
150.756
116.558
81.702
46.6311
11.7739
-22.4646
-55.7092
-87.651
-118.018
-146.599
-173.243
-197.85
-220.371
-240.796
-259.149
-275.478
-289.85
-302.336
-313.019
-321.981
-329.296
-335.038
-339.276
-342.071
-343.486
-343.554
-342.296
-339.799
-336.063
-331.108
-324.942
-317.571
-308.986
-299.166
-288.088
-275.709
-261.984
-246.869
-230.311
-212.265
-192.693
-171.569
-148.886
-124.655
-98.9171
-71.7433
-43.2361
-13.5276
17.286
48.7736
80.7583
112.939
144.971
176.475
207.052
236.288
263.764
289.068
311.801
331.586
348.081
360.985
370.049
375.09
375.898
372.594
365.103
353.51
338.021
318.884
296.418
270.992
243.019
212.951
181.256
148.407
114.872
81.1039
47.5197
14.4978
-17.6308
-48.5839
-78.1269
-106.077
-132.301
-156.711
-179.26
-199.935
-218.743
-235.71
-250.879
-264.302
-276.04
-286.164
-294.748
-301.877
-307.63
-312.079
-315.292
-317.333
-318.246
-318.051
-316.751
-314.399
-310.969
-306.452
-300.81
-294.011
-286.016
-276.768
-266.216
-254.307
-240.98
-226.183
-209.867
-191.995
-172.543
-151.5
-128.878
-104.711
-79.0542
-51.9999
-23.6698
5.78175
36.1644
67.2403
98.7163
130.283
161.589
192.248
221.852
249.976
276.192
300.077
321.23
339.28
353.898
364.808
371.797
374.684
373.443
368.055
358.637
345.294
328.281
307.886
284.465
258.411
230.151
200.134
168.817
136.652
104.074
71.4954
39.3011
7.80155
-22.7131
-52.0079
-79.8965
-106.237
-130.929
-153.906
-175.132
-194.599
-212.321
-228.322
-242.64
-255.335
-266.464
-276.078
-284.255
-291.07
-296.57
-300.808
-303.855
-305.734
-306.466
-306.067
-304.595
-302.029
-298.376
-293.639
-287.795
-280.824
-272.691
-263.368
-252.817
-240.968
-227.763
-213.123
-196.97
-179.244
-159.872
-138.808
-116.029
-91.526
-65.3346
-37.5439
-8.28625
21.2806
52.5459
84.4518
116.588
148.526
179.866
210.133
238.849
265.601
289.955
311.53
329.984
345.018
356.415
364.015
367.701
367.39
363.106
355.018
343.218
328.013
309.704
288.62
265.124
239.628
212.522
184.205
155.052
125.417
95.652
66.0478
36.8664
8.4861
-19.0627
-45.9373
-71.894
-96.8058
-120.582
-143.159
-164.481
-184.507
-203.203
-220.531
-236.454
-250.946
-263.97
-275.498
-285.497
-293.943
-300.813
-306.089
-309.776
-311.859
-312.308
-310.916
-307.833
-303.074
-296.621
-288.483
107.661
140.396
172.812
204.442
234.863
263.46
289.771
313.304
333.669
350.562
363.708
372.896
377.993
378.766
375.236
367.573
355.901
340.337
321.135
298.587
273.059
244.908
214.53
182.384
148.883
114.485
79.5993
44.6446
10.0235
-23.9426
-56.7676
-87.9213
-118.16
-146.956
-174.131
-199.56
-223.181
-244.956
-264.873
-282.947
-299.207
-313.69
-326.445
-337.517
-346.958
-354.817
-361.137
-365.956
-369.309
-371.215
-371.664
-370.681
-368.287
-364.414
-359.042
-352.165
-343.731
-333.7
-322.043
-308.724
-293.711
-276.982
-258.505
-238.289
-216.357
-192.731
-167.47
-140.664
-112.406
-82.8288
-52.0638
-20.1666
12.313
45.191
78.2113
111.082
143.481
175.071
205.499
234.408
261.435
286.229
308.443
327.743
343.837
356.46
365.393
370.477
371.545
368.662
361.789
351.022
336.468
318.333
296.855
272.324
245.07
215.457
183.88
150.763
116.546
81.6725
46.5848
11.7127
-22.5388
-55.7939
-87.7441
-118.117
-146.702
-173.347
-197.953
-220.473
-240.896
-259.245
-275.57
-289.938
-302.42
-313.099
-322.057
-329.369
-335.108
-339.344
-342.137
-343.55
-343.614
-342.357
-339.858
-336.122
-331.167
-325.002
-317.63
-309.047
-299.229
-288.152
-275.776
-262.053
-246.941
-230.386
-212.343
-192.773
-171.651
-148.968
-124.737
-98.9984
-71.822
-43.311
-13.5975
17.225
48.7216
80.7175
112.912
144.958
176.479
207.074
236.328
263.823
289.147
311.897
331.699
348.209
361.125
370.199
375.245
376.064
372.747
365.253
353.651
338.149
318.997
296.512
271.066
243.073
212.984
181.269
148.399
114.847
81.0625
47.4644
14.431
-17.7069
-48.6671
-78.2151
-106.168
-132.394
-156.803
-179.352
-200.025
-218.83
-235.794
-250.96
-264.38
-276.115
-286.235
-294.816
-301.941
-307.691
-312.137
-315.348
-317.387
-318.299
-318.102
-316.802
-314.451
-311.022
-306.506
-300.866
-294.068
-286.076
-276.83
-266.281
-254.375
-241.051
-226.257
-209.944
-192.074
-172.623
-151.581
-128.959
-104.792
-79.1325
-52.0751
-23.7404
5.7176
36.1083
67.1942
98.6822
130.263
161.584
192.26
221.883
250.026
276.261
300.165
321.335
339.402
354.033
364.954
371.95
374.847
373.597
368.206
358.78
345.426
328.398
307.987
284.547
258.473
230.193
200.156
168.819
136.636
104.043
71.4496
39.2438
7.73438
-22.7878
-52.088
-79.9801
-106.323
-131.015
-153.992
-175.217
-194.682
-212.401
-228.399
-242.714
-255.405
-266.53
-276.142
-284.315
-291.127
-296.624
-300.86
-303.904
-305.782
-306.51
-306.113
-304.641
-302.075
-298.422
-293.686
-287.843
-280.873
-272.742
-263.421
-252.873
-241.028
-227.826
-213.19
-197.041
-179.319
-159.95
-138.889
-116.111
-91.608
-65.4153
-37.6222
-8.36334
21.2276
52.4991
84.4174
116.569
148.524
179.883
210.17
238.906
265.677
290.05
311.641
330.11
345.155
356.562
364.166
367.861
367.541
363.251
355.157
343.346
328.126
309.802
288.7
265.187
239.673
212.55
184.218
155.05
125.402
95.6253
66.0116
36.8225
8.44018
-19.1136
-45.9917
-71.9509
-96.8643
-120.641
-143.219
-164.542
-184.567
-203.264
-220.592
-236.516
-251.008
-264.032
-275.56
-285.56
-294.006
-300.877
-306.153
-309.84
-311.923
-312.37
-310.979
-307.897
-303.137
-296.684
-288.546
107.609
140.378
172.831
204.502
234.965
263.604
289.955
313.526
333.924
350.843
364.011
373.214
378.317
379.116
375.556
367.888
356.195
340.606
321.373
298.791
273.227
245.037
214.62
182.436
148.897
114.464
79.5469
44.5646
9.91989
-24.0648
-56.9057
-88.0757
-118.322
-147.122
-174.3
-199.73
-223.35
-245.122
-265.035
-283.104
-299.358
-313.835
-326.584
-337.65
-347.087
-354.941
-361.257
-366.073
-369.424
-371.328
-371.774
-370.796
-368.402
-364.531
-359.162
-352.287
-343.858
-333.831
-322.179
-308.865
-293.855
-277.13
-258.656
-238.442
-216.511
-192.884
-167.621
-140.811
-112.547
-82.9606
-52.1828
-20.2667
12.2301
45.1281
78.1713
111.067
143.495
175.114
205.573
234.515
261.576
286.403
308.648
327.978
344.097
356.742
365.692
370.785
371.872
368.963
362.088
351.307
336.733
318.572
297.064
272.5
245.21
215.559
183.943
150.788
116.534
81.625
46.5044
11.6029
-22.6742
-55.95
-87.9164
-118.3
-146.892
-173.539
-198.145
-220.661
-241.078
-259.42
-275.737
-290.096
-302.57
-313.241
-322.191
-329.496
-335.23
-339.46
-342.249
-343.658
-343.713
-342.458
-339.958
-336.22
-331.264
-325.1
-317.729
-309.148
-299.334
-288.26
-275.889
-262.172
-247.066
-230.516
-212.478
-192.913
-171.794
-149.114
-124.883
-99.1424
-71.9611
-43.4429
-13.7198
17.1205
48.6345
80.6526
112.873
144.949
176.503
207.133
236.423
263.956
289.316
312.103
331.938
348.477
361.418
370.511
375.567
376.405
373.064
365.563
353.944
338.416
319.232
296.711
271.225
243.19
213.06
181.304
148.396
114.808
80.991
47.3653
14.3091
-17.8472
-48.8214
-78.379
-106.338
-132.566
-156.975
-179.521
-200.19
-218.991
-235.949
-251.108
-264.522
-276.249
-286.362
-294.935
-302.053
-307.796
-312.236
-315.443
-317.477
-318.387
-318.186
-316.888
-314.536
-311.11
-306.596
-300.959
-294.166
-286.177
-276.938
-266.394
-254.494
-241.176
-226.387
-210.08
-192.214
-172.767
-151.727
-129.105
-104.936
-79.2737
-52.2103
-23.8665
5.60381
36.0106
67.1162
98.6278
130.236
161.588
192.298
221.957
250.138
276.411
300.352
321.558
339.656
354.314
365.256
372.267
375.182
373.914
368.518
359.077
345.7
328.643
308.198
284.72
258.606
230.286
200.209
168.835
136.616
103.99
71.3684
39.1396
7.61057
-22.9265
-52.2375
-80.1367
-106.483
-131.177
-154.153
-175.375
-194.836
-212.549
-228.542
-242.851
-255.535
-266.654
-276.26
-284.427
-291.232
-296.724
-300.955
-303.996
-305.872
-306.593
-306.2
-304.727
-302.16
-298.508
-293.775
-287.935
-280.967
-272.84
-263.524
-252.982
-241.143
-227.948
-213.32
-197.179
-179.465
-160.103
-139.047
-116.273
-91.7703
-65.5753
-37.7775
-8.51557
21.1215
52.4066
84.3497
116.531
148.522
179.918
210.244
239.02
265.83
290.239
311.864
330.362
345.431
356.855
364.468
368.169
367.852
363.545
355.433
343.6
328.353
309.997
288.861
265.312
239.763
212.606
184.242
155.045
125.371
95.5719
65.9392
36.7347
8.34817
-19.2154
-46.1006
-72.0647
-96.9814
-120.76
-143.34
-164.663
-184.689
-203.386
-220.714
-236.639
-251.131
-264.156
-275.685
-285.685
-294.132
-301.003
-306.281
-309.969
-312.051
-312.492
-311.107
-308.024
-303.264
-296.81
-288.672
107.531
140.349
172.86
204.591
235.118
263.82
290.232
313.859
334.305
351.265
364.466
373.691
378.803
379.633
376.042
368.363
356.636
341.009
321.731
299.098
273.478
245.231
214.755
182.512
148.918
114.433
79.4681
44.4442
9.76407
-24.2484
-57.1133
-88.3071
-118.564
-147.372
-174.554
-199.986
-223.603
-245.37
-265.277
-283.338
-299.584
-314.052
-326.793
-337.851
-347.28
-355.128
-361.437
-366.249
-369.595
-371.497
-371.941
-370.968
-368.575
-364.706
-359.342
-352.472
-344.049
-334.029
-322.383
-309.076
-294.072
-277.353
-258.883
-238.672
-216.742
-193.114
-167.847
-141.031
-112.758
-83.1585
-52.3616
-20.4173
12.1055
45.0335
78.1111
111.045
143.515
175.179
205.686
234.676
261.787
286.663
308.955
328.33
344.489
357.167
366.14
371.248
372.357
369.423
362.542
351.737
337.133
318.933
297.38
272.765
245.421
215.713
184.04
150.828
116.519
81.5562
46.3861
11.4406
-22.8747
-56.1819
-88.1725
-118.573
-147.175
-173.826
-198.431
-220.941
-241.349
-259.68
-275.985
-290.331
-302.792
-313.451
-322.39
-329.685
-335.409
-339.632
-342.413
-343.817
-343.862
-342.608
-340.104
-336.363
-331.408
-325.244
-317.875
-309.298
-299.488
-288.42
-276.056
-262.348
-247.25
-230.709
-212.678
-193.12
-172.007
-149.33
-125.099
-99.3556
-72.1674
-43.6382
-13.9011
16.9667
48.5062
80.5578
112.818
144.938
176.541
207.223
236.569
264.158
289.574
312.414
332.299
348.883
361.861
370.981
376.053
376.913
373.549
366.033
354.387
338.82
319.587
297.012
271.466
243.369
213.177
181.359
148.393
114.751
80.8859
47.2188
14.1284
-18.0556
-49.0506
-78.6228
-106.59
-132.822
-157.231
-179.773
-200.436
-219.229
-236.179
-251.328
-264.732
-276.449
-286.549
-295.112
-302.219
-307.951
-312.383
-315.582
-317.611
-318.516
-318.312
-317.014
-314.662
-311.239
-306.728
-301.096
-294.31
-286.328
-277.096
-266.561
-254.67
-241.361
-226.581
-210.281
-192.422
-172.98
-151.943
-129.323
-105.151
-79.4835
-52.4112
-24.0537
5.43499
35.8662
67.0012
98.5482
130.198
161.596
192.357
222.07
250.308
276.638
300.635
321.894
340.039
354.739
365.712
372.744
375.68
374.397
368.991
359.525
346.114
329.013
308.516
284.982
258.809
230.427
200.291
168.859
136.587
103.913
71.2483
38.985
7.42665
-23.1329
-52.4599
-80.3697
-106.722
-131.417
-154.392
-175.61
-195.065
-212.771
-228.755
-243.056
-255.73
-266.838
-276.435
-284.593
-291.388
-296.873
-301.099
-304.132
-306.004
-306.72
-306.33
-304.855
-302.288
-298.638
-293.908
-288.072
-281.109
-272.988
-263.679
-253.145
-241.316
-228.132
-213.516
-197.387
-179.684
-160.333
-139.285
-116.516
-92.0141
-65.8155
-38.0105
-8.74309
20.9605
52.2671
84.2478
116.475
148.517
179.97
210.355
239.19
266.058
290.523
312.198
330.74
345.845
357.295
364.923
368.626
368.323
363.988
355.85
343.983
328.693
310.289
289.103
265.5
239.899
212.691
184.279
155.038
125.326
95.4916
65.8305
36.603
8.20985
-19.3683
-46.2641
-72.2355
-97.1571
-120.939
-143.52
-164.844
-184.871
-203.569
-220.897
-236.823
-251.316
-264.342
-275.872
-285.874
-294.321
-301.193
-306.472
-310.161
-312.242
-312.68
-311.298
-308.214
-303.453
-297
-288.861
107.426
140.311
172.897
204.71
235.322
264.109
290.601
314.303
334.814
351.829
365.072
374.329
379.453
380.309
376.7
368.996
357.225
341.548
322.209
299.507
273.813
245.49
214.934
182.614
148.945
114.39
79.3625
44.2831
9.55568
-24.4934
-57.3906
-88.6158
-118.886
-147.706
-174.894
-200.326
-223.94
-245.702
-265.599
-283.651
-299.885
-314.342
-327.071
-338.118
-347.537
-355.376
-361.678
-366.483
-369.824
-371.721
-372.165
-371.195
-368.805
-364.939
-359.581
-352.718
-344.304
-334.292
-322.655
-309.357
-294.362
-277.65
-259.186
-238.979
-217.05
-193.421
-168.15
-141.325
-113.039
-83.4225
-52.6003
-20.619
11.9389
44.9068
78.0303
111.014
143.541
175.265
205.835
234.89
262.068
287.01
309.364
328.8
345.012
357.733
366.74
371.867
372.993
370.047
363.149
352.312
337.667
319.415
297.802
273.12
245.704
215.92
184.17
150.882
116.498
81.4647
46.2289
11.2244
-23.1418
-56.491
-88.5139
-118.937
-147.552
-174.208
-198.811
-221.313
-241.71
-260.027
-276.316
-290.644
-303.089
-313.732
-322.655
-329.936
-335.648
-339.86
-342.632
-344.026
-344.063
-342.807
-340.298
-336.555
-331.598
-325.435
-318.069
-309.496
-299.693
-288.633
-276.279
-262.582
-247.495
-230.965
-212.945
-193.396
-172.29
-149.617
-125.387
-99.6396
-72.442
-43.8982
-14.1437
16.763
48.3356
80.4318
112.744
144.924
176.593
207.345
236.764
264.428
289.918
312.83
332.782
349.425
362.453
371.611
376.704
377.582
374.203
366.662
354.979
339.359
320.063
297.414
271.788
243.609
213.333
181.433
148.389
114.675
80.7459
47.0234
13.8875
-18.3334
-49.3562
-78.9477
-106.927
-133.163
-157.572
-180.109
-200.764
-219.546
-236.485
-251.622
-265.012
-276.714
-286.799
-295.347
-302.439
-308.157
-312.577
-315.768
-317.788
-318.686
-318.483
-317.182
-314.83
-311.41
-306.904
-301.279
-294.502
-286.529
-277.307
-266.784
-254.905
-241.608
-226.839
-210.549
-192.699
-173.264
-152.232
-129.613
-105.438
-79.7632
-52.679
-24.3031
5.21014
35.6736
66.8481
98.4423
130.147
161.607
192.436
222.222
250.535
276.942
301.014
322.343
340.552
355.306
366.322
373.381
376.332
375.052
369.627
360.124
346.668
329.507
308.942
285.332
259.079
230.617
200.4
168.892
136.549
103.81
71.0884
38.7791
7.18148
-23.4079
-52.7564
-80.6804
-107.04
-131.738
-154.711
-175.924
-195.371
-213.067
-229.039
-243.329
-255.99
-267.084
-276.669
-284.815
-291.597
-297.072
-301.29
-304.314
-306.177
-306.894
-306.503
-305.026
-302.459
-298.812
-294.087
-288.255
-281.298
-273.184
-263.885
-253.362
-241.547
-228.378
-213.777
-197.665
-179.977
-160.639
-139.603
-116.84
-92.3394
-66.1359
-38.3211
-9.04445
20.7429
52.0802
84.1111
116.399
148.51
180.038
210.503
239.418
266.363
290.901
312.644
331.244
346.398
357.883
365.531
369.237
368.944
364.582
356.405
344.493
329.147
310.68
289.425
265.751
240.079
212.803
184.327
155.028
125.264
95.3841
65.6853
36.4275
8.02493
-19.5725
-46.4822
-72.4634
-97.3915
-121.177
-143.761
-165.086
-185.114
-203.812
-221.142
-237.068
-251.563
-264.59
-276.122
-286.125
-294.573
-301.446
-306.727
-310.415
-312.493
-312.935
-311.553
-308.467
-303.706
-297.252
-289.113
107.295
140.263
172.942
204.857
235.577
264.47
291.063
314.858
335.451
352.533
365.832
375.126
380.269
381.141
377.527
369.785
357.961
342.221
322.806
300.019
274.233
245.812
215.158
182.741
148.979
114.337
79.2296
44.0808
9.29414
-24.8004
-57.7382
-89.0016
-119.29
-148.123
-175.318
-200.752
-224.363
-246.116
-266.003
-284.042
-300.262
-314.704
-327.419
-338.452
-347.859
-355.686
-361.978
-366.776
-370.11
-372.001
-372.447
-371.48
-369.092
-365.23
-359.88
-353.025
-344.622
-334.62
-322.996
-309.708
-294.724
-278.021
-259.565
-239.363
-217.436
-193.805
-168.528
-141.693
-113.391
-83.7529
-52.8988
-20.8723
11.73
44.7477
77.9289
110.976
143.573
175.372
206.021
235.158
262.42
287.443
309.876
329.387
345.665
358.441
367.489
372.641
373.779
370.834
363.91
353.033
338.336
320.019
298.33
273.564
246.057
216.179
184.333
150.95
116.472
81.3498
46.0319
10.9536
-23.4762
-56.8782
-88.9413
-119.393
-148.024
-174.687
-199.287
-221.78
-242.161
-260.46
-276.729
-291.035
-303.459
-314.082
-322.986
-330.25
-335.947
-340.145
-342.905
-344.287
-344.316
-343.055
-340.541
-336.795
-331.836
-325.674
-318.312
-309.744
-299.95
-288.9
-276.557
-262.874
-247.801
-231.285
-213.278
-193.741
-172.644
-149.976
-125.747
-99.9948
-72.7858
-44.2236
-14.449
16.5091
48.1217
80.2736
112.652
144.906
176.656
207.497
237.008
264.765
290.349
313.351
333.387
350.104
363.194
372.398
377.519
378.413
375.028
367.451
355.72
340.034
320.658
297.917
272.191
243.908
213.527
181.525
148.384
114.58
80.5703
46.7785
13.5858
-18.6814
-49.7388
-79.3544
-107.348
-133.59
-157.998
-180.529
-201.174
-219.943
-236.868
-251.989
-265.361
-277.046
-287.112
-295.641
-302.715
-308.415
-312.82
-315.999
-318.009
-318.897
-318.692
-317.39
-315.04
-311.625
-307.124
-301.508
-294.741
-286.779
-277.571
-267.063
-255.198
-241.916
-227.161
-210.885
-193.046
-173.62
-152.593
-129.975
-105.796
-80.1134
-53.014
-24.6154
4.92853
35.4317
66.6562
98.3094
130.082
161.62
192.534
222.411
250.819
277.321
301.487
322.905
341.193
356.015
367.085
374.18
377.145
375.872
370.424
360.876
347.361
330.126
309.475
285.77
259.417
230.853
200.537
168.933
136.501
103.681
70.8876
38.521
6.87429
-23.7523
-53.1276
-81.0691
-107.439
-132.14
-155.11
-176.316
-195.754
-213.437
-229.394
-243.67
-256.316
-267.391
-276.962
-285.093
-291.858
-297.32
-301.528
-304.541
-306.396
-307.111
-306.718
-305.239
-302.673
-299.03
-294.309
-288.483
-281.534
-273.43
-264.142
-253.634
-241.835
-228.685
-214.104
-198.011
-180.343
-161.023
-140.001
-117.245
-92.7465
-66.537
-38.7094
-9.41838
20.4667
51.845
83.9391
116.303
148.501
180.123
210.688
239.702
266.744
291.374
313.201
331.875
347.089
358.618
366.293
370.005
369.714
365.33
357.102
345.132
329.715
311.168
289.827
266.065
240.304
212.943
184.387
155.015
125.186
95.2493
65.5033
36.208
7.79296
-19.8286
-46.7554
-72.7486
-97.6848
-121.476
-144.062
-165.389
-185.418
-204.117
-221.447
-237.375
-251.872
-264.901
-276.434
-286.438
-294.888
-301.763
-307.045
-310.732
-312.809
-313.254
-311.871
-308.784
-304.022
-297.567
-289.429
107.135
140.203
172.996
205.034
235.883
264.903
291.618
315.525
336.215
353.38
366.744
376.084
381.252
382.136
378.518
370.732
358.846
343.03
323.524
300.633
274.736
246.199
215.426
182.893
149.019
114.272
79.0691
43.8363
8.97865
-25.17
-58.1563
-89.4644
-119.776
-148.625
-175.829
-201.264
-224.87
-246.613
-266.488
-284.511
-300.714
-315.139
-327.836
-338.853
-348.245
-356.058
-362.339
-367.127
-370.453
-372.338
-372.785
-371.82
-369.436
-365.579
-360.239
-353.393
-345.004
-335.015
-323.405
-310.13
-295.159
-278.467
-260.02
-239.824
-217.899
-194.266
-168.982
-142.135
-113.813
-84.1497
-53.2577
-21.1777
11.4788
44.5557
77.8063
110.929
143.611
175.5
206.243
235.478
262.842
287.963
310.491
330.093
346.45
359.292
368.39
373.572
374.722
371.779
364.823
353.899
339.138
320.744
298.964
274.097
246.481
216.488
184.527
151.03
116.44
81.211
45.7945
10.6274
-23.8788
-57.3442
-89.4556
-119.941
-148.592
-175.261
-199.858
-222.34
-242.704
-260.98
-277.225
-291.505
-303.903
-314.502
-323.383
-330.626
-336.305
-340.486
-343.232
-344.6
-344.621
-343.352
-340.832
-337.082
-332.122
-325.962
-318.603
-310.041
-300.257
-289.219
-276.891
-263.224
-248.168
-231.669
-213.679
-194.155
-173.069
-150.408
-126.18
-100.422
-73.199
-44.6148
-14.8176
16.2045
47.8636
80.0827
112.54
144.884
176.732
207.678
237.3
265.17
290.866
313.975
334.112
350.92
364.084
373.345
378.5
379.409
376.019
368.4
356.611
340.845
321.373
298.521
272.675
244.267
213.761
181.635
148.377
114.465
80.3583
46.4831
13.2224
-19.1003
-50.1992
-79.8435
-107.854
-134.103
-158.509
-181.033
-201.666
-220.42
-237.328
-252.429
-265.781
-277.445
-287.488
-295.994
-303.045
-308.725
-313.112
-316.277
-318.275
-319.153
-318.938
-317.64
-315.292
-311.881
-307.388
-301.783
-295.029
-287.08
-277.889
-267.398
-255.55
-242.286
-227.549
-211.288
-193.463
-174.046
-153.026
-130.41
-106.228
-80.5344
-53.4167
-24.9911
4.58954
35.1399
66.4249
98.1488
130.004
161.634
192.651
222.637
251.16
277.777
302.056
323.579
341.964
356.868
368.002
375.14
378.124
376.855
371.381
361.779
348.194
330.869
310.115
286.296
259.823
231.137
200.7
168.982
136.442
103.525
70.6454
38.2102
6.50436
-24.1668
-53.574
-81.5365
-107.917
-132.622
-155.589
-176.787
-196.213
-213.881
-229.821
-244.079
-256.706
-267.761
-277.312
-285.426
-292.172
-297.618
-301.813
-304.814
-306.659
-307.371
-306.975
-305.495
-302.929
-299.291
-294.576
-288.757
-281.818
-273.725
-264.451
-253.96
-242.181
-229.054
-214.497
-198.427
-180.783
-161.484
-140.479
-117.733
-93.2358
-67.0188
-39.1755
-9.86268
20.1303
51.5609
83.7309
116.187
148.49
180.225
210.908
240.042
267.201
291.942
313.871
332.633
347.919
359.501
367.208
370.93
370.634
366.227
357.939
345.899
330.397
311.754
290.31
266.441
240.574
213.11
184.458
154.999
125.092
95.0866
65.2843
35.9445
7.51334
-20.1367
-47.0836
-73.0912
-98.037
-121.834
-144.424
-165.752
-185.782
-204.483
-221.814
-237.744
-252.242
-265.273
-276.808
-286.815
-295.266
-302.142
-307.426
-311.113
-313.188
-313.637
-312.252
-309.164
-304.401
-297.946
-289.807
106.948
140.132
173.058
205.24
236.239
265.409
292.266
316.304
337.108
354.368
367.809
377.204
382.402
383.298
379.671
371.836
359.878
343.974
324.361
301.35
275.322
246.65
215.738
183.068
149.064
114.194
78.8802
43.5491
8.60802
-25.6034
-58.6451
-90.0041
-120.342
-149.211
-176.425
-201.862
-225.462
-247.194
-267.054
-285.058
-301.242
-315.646
-328.322
-339.321
-348.695
-356.493
-362.759
-367.536
-370.853
-372.732
-373.179
-372.217
-369.836
-365.985
-360.657
-353.823
-345.45
-335.475
-323.881
-310.622
-295.666
-278.988
-260.551
-240.362
-218.44
-194.804
-169.513
-142.651
-114.307
-84.6133
-53.6776
-21.536
11.1847
44.3306
77.6622
110.873
143.653
175.649
206.502
235.852
263.333
288.57
311.208
330.916
347.367
360.285
369.442
374.661
375.826
372.881
365.89
354.91
340.076
321.59
299.704
274.719
246.975
216.85
184.754
151.122
116.402
81.048
45.5159
10.2451
-24.3504
-57.8898
-90.0575
-120.582
-149.255
-175.933
-200.527
-222.995
-243.337
-261.588
-277.803
-292.054
-304.422
-314.992
-323.847
-331.065
-336.723
-340.885
-343.614
-344.966
-344.976
-343.699
-341.172
-337.417
-332.455
-326.297
-318.943
-310.389
-300.615
-289.592
-277.281
-263.633
-248.597
-232.118
-214.147
-194.639
-173.566
-150.912
-126.686
-100.921
-73.6824
-45.0719
-15.2488
15.8472
47.5603
79.8583
112.408
144.856
176.819
207.889
237.64
265.642
291.469
314.705
334.96
351.872
365.124
374.452
379.648
380.573
377.175
369.51
357.652
341.793
322.208
299.226
273.239
244.685
214.032
181.762
148.367
114.329
80.1092
46.1364
12.7966
-19.5908
-50.7382
-80.4157
-108.446
-134.703
-159.107
-181.622
-202.241
-220.977
-237.864
-252.944
-266.272
-277.91
-287.927
-296.406
-303.431
-309.087
-313.453
-316.6
-318.585
-319.451
-319.231
-317.931
-315.585
-312.181
-307.697
-302.103
-295.364
-287.432
-278.259
-267.788
-255.961
-242.719
-228.001
-211.759
-193.95
-174.545
-153.533
-130.919
-106.732
-81.0268
-53.8875
-25.4308
4.19255
34.7976
66.1535
97.96
129.911
161.649
192.786
222.9
251.556
278.308
302.719
324.367
342.864
357.864
369.073
376.262
379.27
378.004
372.498
362.835
349.167
331.738
310.862
286.91
260.296
231.467
200.89
169.037
136.372
103.341
70.3621
37.8449
6.07087
-24.652
-54.0962
-82.0829
-108.477
-133.185
-156.149
-177.337
-196.749
-214.399
-230.32
-244.557
-257.161
-268.192
-277.721
-285.813
-292.539
-297.966
-302.146
-305.133
-306.967
-307.674
-307.274
-305.793
-303.228
-299.595
-294.888
-289.076
-282.148
-274.069
-264.812
-254.34
-242.584
-229.483
-214.954
-198.913
-181.296
-162.022
-141.036
-118.302
-93.8074
-67.5818
-39.7195
-10.378
19.732
51.2266
83.4858
116.051
148.475
180.342
211.165
240.438
267.734
292.605
314.653
333.518
348.889
360.533
368.279
372.013
371.709
367.273
358.917
346.795
331.192
312.438
290.873
266.879
240.887
213.304
184.539
154.978
124.981
94.8957
65.0278
35.6368
7.1854
-20.4972
-47.4672
-73.4915
-98.4484
-122.252
-144.846
-166.177
-186.207
-204.909
-222.242
-238.174
-252.674
-265.708
-277.245
-287.254
-295.708
-302.585
-307.87
-311.557
-313.632
-314.082
-312.696
-309.607
-304.843
-298.388
-290.248
106.731
140.049
173.126
205.473
236.647
265.987
293.007
317.195
338.13
355.499
369.028
378.486
383.718
384.626
380.986
373.097
361.06
345.054
325.319
302.17
275.993
247.164
216.094
183.267
149.114
114.103
78.6624
43.2183
8.18099
-26.1036
-59.2026
-90.6205
-120.991
-149.882
-177.107
-202.547
-226.14
-247.859
-267.701
-285.684
-301.845
-316.226
-328.879
-339.855
-349.209
-356.989
-363.24
-368.004
-371.311
-373.182
-373.63
-372.669
-370.293
-366.45
-361.135
-354.315
-345.959
-336.001
-324.427
-311.185
-296.246
-279.583
-261.158
-240.978
-219.059
-195.421
-170.12
-143.242
-114.872
-85.1442
-54.1589
-21.9476
10.8476
44.0718
77.496
110.809
143.7
175.818
206.797
236.278
263.894
289.264
312.029
331.857
348.415
361.422
370.646
375.908
377.09
374.139
367.11
356.067
341.149
322.558
300.551
275.43
247.539
217.262
185.012
151.227
116.356
80.8599
45.1955
9.80573
-24.8918
-58.5159
-90.748
-121.317
-150.016
-176.703
-201.292
-223.744
-244.063
-262.283
-278.465
-292.681
-305.015
-315.553
-324.377
-331.567
-337.2
-341.341
-344.051
-345.384
-345.383
-344.095
-341.56
-337.801
-332.836
-326.679
-319.331
-310.785
-301.025
-290.019
-277.727
-264.101
-249.088
-232.631
-214.681
-195.193
-174.135
-151.49
-127.266
-101.493
-74.2366
-45.5952
-15.7174
15.4108
47.2106
79.5997
112.255
144.823
176.918
208.128
238.027
266.18
292.158
315.539
335.929
352.962
366.315
375.719
380.963
381.907
378.497
370.782
358.843
342.879
323.163
300.032
273.884
245.163
214.34
181.906
148.354
114.171
79.8219
45.7376
12.3077
-20.1539
-51.3564
-81.0718
-109.124
-135.39
-159.792
-182.296
-202.898
-221.614
-238.478
-253.532
-266.833
-278.442
-288.429
-296.877
-303.872
-309.5
-313.842
-316.97
-318.938
-319.792
-319.566
-318.264
-315.92
-312.523
-308.05
-302.47
-295.747
-287.834
-278.682
-268.234
-256.432
-243.213
-228.519
-212.298
-194.508
-175.116
-154.114
-131.502
-107.31
-81.5909
-54.4271
-25.9349
3.73685
34.404
65.8414
97.7423
129.802
161.665
192.938
223.2
252.008
278.915
303.477
325.268
343.894
359.004
370.3
377.548
380.584
379.318
373.776
364.045
350.28
332.731
311.717
287.611
260.836
231.843
201.105
169.098
136.289
103.13
70.0384
37.4227
5.57302
-25.2085
-54.6948
-82.7089
-109.118
-133.83
-156.789
-177.966
-197.362
-214.993
-230.89
-245.103
-257.681
-268.686
-278.188
-286.256
-292.958
-298.363
-302.526
-305.498
-307.319
-308.02
-307.615
-306.132
-303.569
-299.943
-295.243
-289.44
-282.525
-274.462
-265.224
-254.774
-243.045
-229.975
-215.477
-199.468
-181.883
-162.638
-141.675
-118.954
-94.462
-68.2265
-40.3419
-10.9693
19.2702
50.8409
83.2027
115.892
148.455
180.475
211.458
240.891
268.344
293.364
315.547
334.531
349.999
361.715
369.505
373.254
372.938
368.468
360.036
347.821
332.102
313.22
291.516
267.378
241.244
213.524
184.631
154.953
124.853
94.676
64.7332
35.2845
6.80838
-20.9105
-47.9065
-73.9496
-98.9191
-122.731
-145.328
-166.662
-186.694
-205.397
-222.731
-238.665
-253.168
-266.204
-277.745
-287.756
-296.212
-303.091
-308.377
-312.064
-314.139
-314.59
-313.204
-310.114
-305.349
-298.893
-290.753
106.485
139.952
173.2
205.735
237.104
266.637
293.841
318.199
339.281
356.774
370.402
379.931
385.203
386.122
382.466
374.518
362.391
346.271
326.398
303.092
276.748
247.743
216.493
183.49
149.168
113.999
78.415
42.8429
7.69647
-26.6726
-59.8288
-91.3139
-121.722
-150.639
-177.876
-203.318
-226.903
-248.607
-268.429
-286.389
-302.524
-316.878
-329.504
-340.456
-349.787
-357.546
-363.78
-368.53
-371.825
-373.689
-374.136
-373.178
-370.807
-366.973
-361.672
-354.868
-346.532
-336.593
-325.04
-311.818
-296.899
-280.253
-261.842
-241.672
-219.756
-196.115
-170.804
-143.908
-115.509
-85.7429
-54.7027
-22.4128
10.4668
43.7789
77.3068
110.734
143.75
176.006
207.127
236.757
264.523
290.043
312.954
332.917
349.596
362.702
372.003
377.314
378.514
375.557
368.485
357.372
342.358
323.649
301.504
276.229
248.174
217.726
185.302
151.342
116.303
80.646
44.8322
9.30838
-25.5039
-59.2235
-91.5282
-122.147
-150.875
-177.572
-202.155
-224.589
-244.88
-263.066
-279.21
-293.387
-305.682
-316.183
-324.973
-332.133
-337.737
-341.854
-344.542
-345.856
-345.84
-344.54
-341.996
-338.232
-333.265
-327.11
-319.767
-311.232
-301.485
-290.498
-278.229
-264.627
-249.64
-233.209
-215.284
-195.817
-174.776
-152.142
-127.919
-102.139
-74.8622
-46.1856
-16.2478
14.918
46.8141
79.3063
112.081
144.783
177.026
208.396
238.462
266.786
292.933
316.477
337.021
354.19
367.657
377.147
382.445
383.41
379.986
372.215
360.187
344.102
324.239
300.94
274.61
245.699
214.686
182.066
148.337
113.991
79.4956
45.2858
11.7546
-20.7906
-52.0548
-81.8125
-109.889
-136.165
-160.564
-183.056
-203.639
-222.332
-239.169
-254.195
-267.466
-279.041
-288.995
-297.408
-304.368
-309.965
-314.28
-317.386
-319.336
-320.175
-319.935
-318.637
-316.297
-312.908
-308.447
-302.882
-296.178
-288.286
-279.158
-268.737
-256.961
-243.77
-229.102
-212.905
-195.135
-175.76
-154.768
-132.159
-107.962
-82.227
-55.0363
-26.5042
3.22169
33.9582
65.4882
97.4946
129.678
161.681
193.108
223.535
252.516
279.597
304.33
326.283
345.054
360.289
371.683
378.997
382.065
380.799