/*--------------------------------*- C++ -*----------------------------------*\
| =========                 |                                                 |
| \\      /  F ield         | OpenFOAM: The Open Source CFD Toolbox           |
|  \\    /   O peration     | Version:  3.0.1                                 |
|   \\  /    A nd           | Web:      www.OpenFOAM.org                      |
|    \\/     M anipulation  |                                                 |
\*---------------------------------------------------------------------------*/
FoamFile
{
    version     2.0;
    format      ascii;
    class       volScalarField;
    location    "23.6";
    object      p;
}
// * * * * * * * * * * * * * * * * * * * * * * * * * * * * * * * * * * * * * //

dimensions      [1 -1 -2 0 0 0 0];

internalField   nonuniform List<scalar> 
22680
(
3590.73
3594.86
3600.04
3606.29
3613.63
3622.08
3631.65
3642.36
3654.22
3667.23
3681.36
3696.63
3712.98
3730.45
3749.11
3769.65
3789.25
3808.92
3828.63
3848.23
3867.61
3886.61
3905.13
3923.04
3940.25
3956.65
3972.17
3986.74
4000.3
4012.79
4024.17
4034.4
4043.48
4051.37
4058.09
4063.62
4068.06
4071.35
4073.5
4074.5
4074.39
4073.15
4070.78
4067.28
4062.63
4056.79
4049.75
4041.48
4031.97
4021.26
4009.38
3996.43
3982.52
3967.77
3952.31
3936.28
3919.88
3903.11
3886.1
3869.31
3852.68
3836.28
3820.2
3804.52
3789.32
3774.65
3760.57
3747.13
3734.36
3722.32
3711.06
3700.61
3691.02
3682.35
3674.63
3667.9
3662.2
3657.55
3653.97
3651.46
3650
3649.59
3650.2
3651.8
3654.34
3657.77
3662.03
3667.07
3672.82
3679.21
3686.19
3693.71
3701.7
3710.14
3718.99
3728.22
3737.8
3747.73
3757.97
3768.53
3779.37
3790.46
3801.79
3813.37
3825.2
3837.25
3849.49
3861.9
3874.44
3887.07
3899.75
3912.44
3925.06
3937.57
3949.87
3961.9
3973.57
3984.76
3995.39
4005.34
4014.5
4022.75
4029.98
4036.09
4040.97
4044.54
4046.73
4047.46
4046.72
4044.47
4040.71
4035.48
4028.82
4020.79
4011.48
4001
3989.44
3976.95
3963.65
3949.68
3935.19
3920.32
3905.2
3889.99
3874.8
3859.76
3844.98
3830.57
3816.62
3803.19
3790.35
3778.13
3766.58
3755.7
3745.51
3736
3727.16
3718.98
3711.43
3704.49
3698.16
3692.4
3687.22
3682.6
3678.53
3675.02
3672.05
3669.65
3667.8
3666.5
3665.76
3665.58
3665.96
3666.91
3668.42
3670.51
3673.19
3676.46
3680.34
3684.84
3690
3695.82
3702.33
3709.55
3717.48
3726.15
3735.53
3745.63
3756.42
3767.87
3779.94
3792.56
3805.65
3819.15
3832.97
3847
3861.16
3875.32
3889.4
3903.28
3916.86
3930.04
3942.75
3954.9
3966.42
3977.24
3987.32
3996.61
4005.08
4012.69
4019.43
4025.28
4030.24
4034.3
4037.45
4039.71
4041.09
4041.59
4041.24
4040.06
4038.15
4035.57
4032.43
4028.91
4024.89
3492.57
3496.7
3501.88
3508.13
3515.46
3523.91
3533.48
3544.19
3556.05
3569.05
3583.19
3598.46
3614.82
3632.29
3650.95
3671.51
3691.12
3710.8
3730.52
3750.13
3769.51
3788.53
3807.05
3824.97
3842.18
3858.59
3874.12
3888.69
3902.25
3914.75
3926.13
3936.37
3945.44
3953.34
3960.05
3965.59
3970.02
3973.32
3975.46
3976.47
3976.35
3975.11
3972.75
3969.25
3964.6
3958.76
3951.71
3943.44
3933.93
3923.21
3911.33
3898.37
3884.46
3869.69
3854.23
3838.19
3821.79
3805.01
3788
3771.19
3754.56
3738.16
3722.07
3706.39
3691.19
3676.51
3662.43
3648.99
3636.22
3624.18
3612.91
3602.46
3592.87
3584.19
3576.47
3569.75
3564.04
3559.39
3555.81
3553.3
3551.84
3551.43
3552.05
3553.65
3556.19
3559.62
3563.89
3568.93
3574.68
3581.08
3588.06
3595.58
3603.58
3612.02
3620.87
3630.09
3639.68
3649.61
3659.85
3670.4
3681.25
3692.34
3703.67
3715.25
3727.08
3739.13
3751.38
3763.79
3776.33
3788.96
3801.65
3814.34
3826.97
3839.47
3851.79
3863.82
3875.49
3886.69
3897.33
3907.28
3916.45
3924.71
3931.95
3938.06
3942.94
3946.52
3948.71
3949.45
3948.7
3946.45
3942.69
3937.46
3930.79
3922.76
3913.44
3902.95
3891.39
3878.89
3865.58
3851.61
3837.11
3822.23
3807.1
3791.88
3776.68
3761.64
3746.86
3732.44
3718.48
3705.05
3692.21
3679.99
3668.44
3657.56
3647.37
3637.86
3629.02
3620.84
3613.29
3606.36
3600.03
3594.27
3589.09
3584.47
3580.4
3576.89
3573.92
3571.51
3569.67
3568.37
3567.63
3567.45
3567.83
3568.78
3570.29
3572.38
3575.05
3578.32
3582.2
3586.71
3591.86
3597.68
3604.19
3611.4
3619.34
3628
3637.39
3647.49
3658.28
3669.73
3681.81
3694.42
3707.52
3721.03
3734.85
3748.89
3763.05
3777.22
3791.3
3805.19
3818.77
3831.97
3844.68
3856.83
3868.35
3879.18
3889.26
3898.56
3907.02
3914.64
3921.38
3927.23
3932.19
3936.25
3939.4
3941.66
3943.04
3943.54
3943.18
3942.01
3940.08
3937.49
3934.32
3930.76
3926.56
3394.35
3398.47
3403.65
3409.89
3417.23
3425.67
3435.24
3445.95
3457.8
3470.81
3484.95
3500.22
3516.58
3534.07
3552.74
3573.33
3592.97
3612.66
3632.4
3652.03
3671.43
3690.46
3709
3726.93
3744.16
3760.58
3776.12
3790.7
3804.27
3816.76
3828.15
3838.4
3847.47
3855.37
3862.09
3867.63
3872.05
3875.34
3877.49
3878.5
3878.38
3877.14
3874.78
3871.28
3866.62
3860.78
3853.73
3845.46
3835.94
3825.22
3813.32
3800.35
3786.43
3771.65
3756.17
3740.12
3723.7
3706.9
3689.88
3673.06
3656.42
3640.01
3623.92
3608.23
3593.02
3578.34
3564.26
3550.81
3538.04
3525.99
3514.72
3504.26
3494.67
3485.99
3478.26
3471.53
3465.83
3461.17
3457.59
3455.08
3453.62
3453.22
3453.84
3455.44
3457.99
3461.43
3465.7
3470.75
3476.51
3482.91
3489.9
3497.42
3505.42
3513.87
3522.72
3531.95
3541.53
3551.46
3561.71
3572.26
3583.11
3594.2
3605.53
3617.11
3628.94
3641
3653.25
3665.66
3678.2
3690.85
3703.54
3716.23
3728.87
3741.39
3753.71
3765.76
3777.44
3788.65
3799.3
3809.27
3818.45
3826.72
3833.97
3840.1
3844.99
3848.57
3850.77
3851.51
3850.77
3848.51
3844.75
3839.51
3832.84
3824.79
3815.47
3804.96
3793.38
3780.86
3767.54
3753.55
3739.03
3724.14
3709
3693.76
3678.55
3663.5
3648.71
3634.28
3620.32
3606.88
3594.03
3581.81
3570.25
3559.38
3549.19
3539.68
3530.85
3522.67
3515.12
3508.19
3501.86
3496.11
3490.92
3486.3
3482.24
3478.72
3475.76
3473.35
3471.5
3470.21
3469.47
3469.29
3469.67
3470.61
3472.12
3474.21
3476.88
3480.15
3484.03
3488.53
3493.68
3499.49
3506
3513.21
3521.15
3529.81
3539.2
3549.3
3560.1
3571.55
3583.63
3596.26
3609.37
3622.88
3636.71
3650.77
3664.94
3679.12
3693.21
3707.11
3720.71
3733.91
3746.64
3758.8
3770.33
3781.16
3791.25
3800.55
3809.02
3816.63
3823.38
3829.23
3834.19
3838.25
3841.4
3843.66
3845.03
3845.53
3845.17
3843.98
3842.05
3839.43
3836.2
3832.56
3828.27
3296.07
3300.19
3305.36
3311.6
3318.93
3327.36
3336.93
3347.63
3359.49
3372.49
3386.63
3401.91
3418.29
3435.79
3454.48
3475.12
3494.78
3514.51
3534.27
3553.93
3573.35
3592.41
3610.97
3628.92
3646.17
3662.6
3678.16
3692.76
3706.33
3718.84
3730.24
3740.49
3749.57
3757.47
3764.19
3769.73
3774.15
3777.44
3779.59
3780.6
3780.48
3779.24
3776.88
3773.38
3768.72
3762.87
3755.82
3747.54
3738.01
3727.28
3715.37
3702.38
3688.44
3673.64
3658.14
3642.06
3625.62
3608.79
3591.76
3574.92
3558.26
3541.84
3525.73
3510.04
3494.82
3480.13
3466.04
3452.58
3439.81
3427.76
3416.48
3406.01
3396.41
3387.72
3379.99
3373.26
3367.55
3362.89
3359.31
3356.8
3355.35
3354.95
3355.57
3357.18
3359.74
3363.19
3367.47
3372.53
3378.3
3384.71
3391.71
3399.23
3407.24
3415.69
3424.54
3433.77
3443.36
3453.29
3463.54
3474.09
3484.94
3496.03
3507.36
3518.95
3530.79
3542.84
3555.1
3567.52
3580.07
3592.72
3605.42
3618.13
3630.78
3643.31
3655.64
3667.71
3679.41
3690.64
3701.31
3711.3
3720.5
3728.79
3736.06
3742.2
3747.11
3750.7
3752.91
3753.66
3752.91
3750.66
3746.89
3741.64
3734.95
3726.89
3717.55
3707.02
3695.42
3682.88
3669.53
3655.52
3640.98
3626.06
3610.9
3595.64
3580.41
3565.33
3550.53
3536.09
3522.11
3508.67
3495.81
3483.59
3472.03
3461.16
3450.97
3441.46
3432.63
3424.45
3416.91
3409.99
3403.66
3397.91
3392.73
3388.11
3384.04
3380.53
3377.57
3375.16
3373.31
3372.01
3371.27
3371.09
3371.47
3372.41
3373.93
3376.01
3378.68
3381.94
3385.82
3390.31
3395.46
3401.27
3407.77
3414.98
3422.92
3431.58
3440.96
3451.07
3461.87
3473.34
3485.42
3498.06
3511.18
3524.71
3538.56
3552.63
3566.82
3581.02
3595.13
3609.05
3622.66
3635.88
3648.62
3660.79
3672.34
3683.18
3693.28
3702.58
3711.06
3718.68
3725.43
3731.28
3736.24
3740.3
3743.45
3745.71
3747.08
3747.57
3747.21
3746.01
3744.05
3741.4
3738.12
3734.36
3729.93
3197.73
3201.84
3207
3213.23
3220.56
3228.98
3238.54
3249.24
3261.09
3274.1
3288.25
3303.53
3319.92
3337.44
3356.16
3376.86
3396.56
3416.33
3436.13
3455.82
3475.28
3494.37
3512.96
3530.94
3548.21
3564.67
3580.25
3594.86
3608.46
3620.98
3632.39
3642.64
3651.73
3659.63
3666.35
3671.89
3676.31
3679.6
3681.75
3682.76
3682.65
3681.4
3679.04
3675.54
3670.88
3665.03
3657.97
3649.68
3640.14
3629.39
3617.47
3604.46
3590.49
3575.66
3560.13
3544.02
3527.54
3510.69
3493.63
3476.76
3460.08
3443.64
3427.52
3411.81
3396.58
3381.89
3367.79
3354.32
3341.54
3329.48
3318.19
3307.72
3298.11
3289.41
3281.67
3274.93
3269.21
3264.55
3260.97
3258.46
3257.01
3256.62
3257.25
3258.87
3261.44
3264.9
3269.2
3274.27
3280.05
3286.48
3293.48
3301.02
3309.03
3317.49
3326.34
3335.58
3345.17
3355.1
3365.35
3375.9
3386.75
3397.85
3409.18
3420.77
3432.61
3444.67
3456.94
3469.36
3481.92
3494.58
3507.3
3520.02
3532.68
3545.24
3557.59
3569.68
3581.4
3592.66
3603.35
3613.37
3622.6
3630.92
3638.21
3644.38
3649.3
3652.92
3655.13
3655.89
3655.15
3652.89
3649.11
3643.85
3637.14
3629.06
3619.69
3609.13
3597.5
3584.93
3571.55
3557.5
3542.93
3527.98
3512.79
3497.5
3482.25
3467.15
3452.32
3437.87
3423.88
3410.42
3397.55
3385.33
3373.77
3362.89
3352.71
3343.21
3334.38
3326.21
3318.67
3311.75
3305.43
3299.68
3294.5
3289.88
3285.82
3282.3
3279.34
3276.94
3275.08
3273.79
3273.05
3272.86
3273.24
3274.18
3275.69
3277.78
3280.44
3283.7
3287.57
3292.06
3297.2
3303
3309.5
3316.71
3324.64
3333.3
3342.69
3352.8
3363.6
3375.08
3387.17
3399.82
3412.96
3426.51
3440.38
3454.47
3468.69
3482.92
3497.05
3510.99
3524.63
3537.87
3550.63
3562.82
3574.38
3585.24
3595.35
3604.66
3613.15
3620.77
3627.52
3633.38
3638.34
3642.4
3645.55
3647.81
3649.18
3649.66
3649.29
3648.08
3646.09
3643.4
3640.05
3636.16
3631.57
3099.33
3103.43
3108.59
3114.81
3122.12
3130.54
3140.09
3150.78
3162.63
3175.63
3189.79
3205.08
3221.49
3239.04
3257.79
3278.56
3298.32
3318.13
3337.98
3357.71
3377.22
3396.35
3414.98
3432.99
3450.3
3466.79
3482.39
3497.03
3510.64
3523.18
3534.6
3544.86
3553.96
3561.86
3568.58
3574.12
3578.54
3581.83
3583.98
3584.99
3584.87
3583.63
3581.27
3577.76
3573.1
3567.25
3560.18
3551.88
3542.33
3531.56
3519.61
3506.57
3492.57
3477.71
3462.14
3445.99
3429.46
3412.57
3395.48
3378.59
3361.88
3345.41
3329.28
3313.55
3298.31
3283.61
3269.5
3256.02
3243.23
3231.16
3219.86
3209.37
3199.75
3191.04
3183.29
3176.54
3170.82
3166.16
3162.57
3160.06
3158.62
3158.23
3158.87
3160.5
3163.09
3166.56
3170.88
3175.97
3181.77
3188.21
3195.23
3202.77
3210.8
3219.26
3228.12
3237.36
3246.95
3256.88
3267.13
3277.69
3288.54
3299.64
3310.98
3322.57
3334.42
3346.49
3358.76
3371.19
3383.77
3396.44
3409.17
3421.91
3434.6
3447.17
3459.55
3471.67
3483.42
3494.71
3505.44
3515.49
3524.75
3533.1
3540.43
3546.62
3551.57
3555.2
3557.43
3558.2
3557.46
3555.2
3551.41
3546.13
3539.4
3531.3
3521.89
3511.3
3499.63
3487.02
3473.6
3459.52
3444.9
3429.91
3414.69
3399.36
3384.07
3368.94
3354.09
3339.61
3325.6
3312.13
3299.26
3287.02
3275.46
3264.59
3254.4
3244.91
3236.09
3227.92
3220.39
3213.48
3207.16
3201.42
3196.24
3191.63
3187.56
3184.05
3181.09
3178.68
3176.83
3175.53
3174.79
3174.61
3174.98
3175.92
3177.43
3179.51
3182.17
3185.42
3189.29
3193.77
3198.9
3204.7
3211.19
3218.39
3226.32
3234.97
3244.36
3254.48
3265.29
3276.78
3288.89
3301.56
3314.72
3328.29
3342.19
3356.31
3370.55
3384.81
3398.98
3412.95
3426.62
3439.89
3452.67
3464.89
3476.46
3487.34
3497.46
3506.79
3515.28
3522.92
3529.67
3535.53
3540.49
3544.55
3547.71
3549.96
3551.32
3551.8
3551.42
3550.2
3548.17
3545.44
3542
3537.97
3533.19
3000.87
3004.96
3010.1
3016.31
3023.61
3032.02
3041.56
3052.25
3064.09
3077.1
3091.25
3106.56
3122.99
3140.57
3159.35
3180.23
3200.05
3219.91
3239.82
3259.61
3279.16
3298.34
3317.02
3335.08
3352.42
3368.94
3384.58
3399.24
3412.88
3425.44
3436.87
3447.15
3456.25
3464.16
3470.88
3476.42
3480.83
3484.12
3486.27
3487.28
3487.17
3485.93
3483.56
3480.06
3475.39
3469.53
3462.46
3454.14
3444.57
3433.78
3421.8
3408.73
3394.7
3379.79
3364.17
3347.97
3331.4
3314.46
3297.33
3280.4
3263.66
3247.17
3231.01
3215.26
3200.01
3185.29
3171.17
3157.68
3144.87
3132.79
3121.47
3110.97
3101.34
3092.61
3084.85
3078.09
3072.36
3067.7
3064.11
3061.6
3060.16
3059.78
3060.43
3062.08
3064.68
3068.18
3072.52
3077.63
3083.45
3089.9
3096.94
3104.5
3112.54
3121
3129.87
3139.11
3148.71
3158.64
3168.9
3179.46
3190.31
3201.42
3212.75
3224.35
3236.2
3248.28
3260.56
3273.01
3285.6
3298.29
3311.04
3323.8
3336.51
3349.11
3361.52
3373.67
3385.46
3396.79
3407.56
3417.65
3426.95
3435.34
3442.71
3448.93
3453.92
3457.57
3459.82
3460.6
3459.86
3457.59
3453.79
3448.49
3441.74
3433.6
3424.16
3413.52
3401.81
3389.15
3375.69
3361.55
3346.89
3331.85
3316.58
3301.21
3285.88
3270.72
3255.83
3241.33
3227.3
3213.81
3200.92
3188.68
3177.11
3166.24
3156.06
3146.57
3137.76
3129.6
3122.08
3115.17
3108.86
3103.12
3097.95
3093.34
3089.27
3085.76
3082.8
3080.39
3078.54
3077.24
3076.5
3076.32
3076.69
3077.63
3079.13
3081.21
3083.86
3087.11
3090.96
3095.44
3100.56
3106.35
3112.83
3120.03
3127.95
3136.61
3146
3156.12
3166.94
3178.44
3190.56
3203.26
3216.44
3230.05
3243.98
3258.13
3272.41
3286.71
3300.91
3314.92
3328.62
3341.92
3354.74
3366.98
3378.58
3389.48
3399.62
3408.96
3417.47
3425.11
3431.87
3437.73
3442.7
3446.75
3449.91
3452.16
3453.51
3453.99
3453.59
3452.36
3450.28
3447.51
3443.98
3439.8
3434.81
2902.35
2906.42
2911.55
2917.75
2925.04
2933.43
2942.96
2953.64
2965.48
2978.48
2992.65
3007.97
3024.42
3042.04
3060.87
3081.86
3101.74
3121.68
3141.65
3161.5
3181.12
3200.35
3219.08
3237.19
3254.58
3271.14
3286.81
3301.51
3315.17
3327.75
3339.21
3349.5
3358.61
3366.52
3373.24
3378.78
3383.19
3386.48
3388.63
3389.65
3389.53
3388.29
3385.92
3382.41
3377.74
3371.88
3364.79
3356.46
3346.88
3336.06
3324.05
3310.94
3296.85
3281.9
3266.23
3249.97
3233.34
3216.34
3199.17
3182.2
3165.42
3148.89
3132.71
3116.94
3101.67
3086.94
3072.8
3059.3
3046.48
3034.38
3023.05
3012.53
3002.88
2994.14
2986.36
2979.58
2973.85
2969.18
2965.59
2963.08
2961.65
2961.28
2961.94
2963.61
2966.23
2969.75
2974.11
2979.25
2985.09
2991.57
2998.63
3006.2
3014.25
3022.73
3031.6
3040.85
3050.45
3060.38
3070.64
3081.2
3092.06
3103.17
3114.51
3126.11
3137.97
3150.06
3162.35
3174.81
3187.41
3200.12
3212.9
3225.68
3238.42
3251.05
3263.5
3275.69
3287.52
3298.9
3309.71
3319.85
3329.2
3337.64
3345.05
3351.31
3356.33
3360.02
3362.29
3363.07
3362.34
3360.07
3356.26
3350.93
3344.15
3335.97
3326.48
3315.8
3304.04
3291.32
3277.8
3263.6
3248.89
3233.79
3218.47
3203.05
3187.67
3172.47
3157.55
3143.01
3128.95
3115.45
3102.55
3090.3
3078.73
3067.85
3057.68
3048.19
3039.39
3031.24
3023.73
3016.84
3010.53
3004.8
2999.63
2995.02
2990.96
2987.44
2984.48
2982.08
2980.22
2978.92
2978.18
2977.99
2978.37
2979.3
2980.8
2982.87
2985.52
2988.76
2992.61
2997.07
3002.18
3007.96
3014.44
3021.62
3029.54
3038.19
3047.58
3057.71
3068.54
3080.06
3092.21
3104.92
3118.14
3131.78
3145.74
3159.94
3174.26
3188.6
3202.85
3216.9
3230.64
3243.98
3256.83
3269.11
3280.74
3291.66
3301.82
3311.18
3319.7
3327.35
3334.11
3339.98
3344.95
3349.01
3352.16
3354.41
3355.76
3356.23
3355.81
3354.56
3352.44
3349.61
3345.99
3341.67
3336.45
2803.76
2807.83
2812.94
2819.12
2826.4
2834.78
2844.29
2854.96
2866.79
2879.8
2893.97
2909.3
2925.78
2943.44
2962.32
2983.45
3003.41
3023.42
3043.46
3063.39
3083.08
3102.38
3121.17
3139.33
3156.77
3173.38
3189.09
3203.83
3217.53
3230.13
3241.6
3251.91
3261.03
3268.95
3275.67
3281.2
3285.62
3288.91
3291.06
3292.07
3291.96
3290.71
3288.35
3284.84
3280.16
3274.29
3267.19
3258.85
3249.24
3238.39
3226.34
3213.18
3199.05
3184.04
3168.3
3151.98
3135.29
3118.22
3101
3083.97
3067.15
3050.59
3034.38
3018.59
3003.3
2988.55
2974.39
2960.88
2948.04
2935.92
2924.57
2914.04
2904.36
2895.6
2887.81
2881.02
2875.27
2870.59
2867
2864.5
2863.07
2862.71
2863.4
2865.08
2867.73
2871.28
2875.67
2880.83
2886.69
2893.2
2900.28
2907.87
2915.93
2924.42
2933.31
2942.56
2952.16
2962.1
2972.36
2982.92
2993.78
3004.9
3016.24
3027.85
3039.72
3051.82
3064.12
3076.6
3089.22
3101.95
3114.75
3127.56
3140.34
3153.01
3165.5
3177.73
3189.61
3201.04
3211.9
3222.1
3231.5
3239.99
3247.45
3253.77
3258.83
3262.54
3264.84
3265.64
3264.91
3262.63
3258.8
3253.45
3246.63
3238.41
3228.87
3218.13
3206.31
3193.53
3179.94
3165.68
3150.9
3135.74
3120.36
3104.88
3089.45
3074.2
3059.23
3044.66
3030.58
3017.04
3004.13
2991.87
2980.3
2969.42
2959.25
2949.78
2940.98
2932.85
2925.35
2918.46
2912.16
2906.44
2901.28
2896.67
2892.61
2889.1
2886.13
2883.73
2881.87
2880.57
2879.83
2879.64
2880.01
2880.94
2882.44
2884.5
2887.15
2890.38
2894.21
2898.67
2903.76
2909.53
2915.99
2923.17
2931.08
2939.73
2949.13
2959.26
2970.11
2981.64
2993.81
3006.55
3019.81
3033.48
3047.49
3061.73
3076.1
3090.49
3104.79
3118.89
3132.68
3146.07
3158.96
3171.27
3182.93
3193.88
3204.06
3213.44
3221.97
3229.64
3236.41
3242.29
3247.25
3251.31
3254.46
3256.71
3258.05
3258.51
3258.09
3256.81
3254.65
3251.75
3248.04
3243.56
3238.12
2705.12
2709.17
2714.27
2720.43
2727.69
2736.05
2745.55
2756.21
2768.03
2781.03
2795.21
2810.57
2827.07
2844.78
2863.71
2885
2905.06
2925.14
2945.27
2965.28
2985.04
3004.42
3023.28
3041.51
3059
3075.67
3091.43
3106.2
3119.93
3132.57
3144.07
3154.39
3163.52
3171.45
3178.17
3183.69
3188.11
3191.4
3193.55
3194.57
3194.45
3193.21
3190.84
3187.33
3182.65
3176.77
3169.66
3161.29
3151.66
3140.78
3128.68
3115.47
3101.28
3086.2
3070.4
3054.01
3037.24
3020.09
3002.82
2985.73
2968.87
2952.27
2936.02
2920.2
2904.89
2890.12
2875.95
2862.41
2849.56
2837.42
2826.05
2815.49
2805.8
2797.02
2789.2
2782.39
2776.64
2771.95
2768.36
2765.86
2764.44
2764.09
2764.79
2766.5
2769.18
2772.75
2777.17
2782.37
2788.26
2794.8
2801.9
2809.52
2817.59
2826.09
2834.98
2844.24
2853.85
2863.79
2874.05
2884.62
2895.49
2906.6
2917.95
2929.57
2941.45
2953.56
2965.88
2978.37
2991.01
3003.77
3016.6
3029.44
3042.25
3054.96
3067.5
3079.78
3091.71
3103.2
3114.13
3124.39
3133.85
3142.41
3149.92
3156.29
3161.39
3165.15
3167.47
3168.29
3167.56
3165.28
3161.43
3156.05
3149.19
3140.91
3131.32
3120.52
3108.62
3095.78
3082.11
3067.78
3052.92
3037.7
3022.24
3006.7
2991.21
2975.9
2960.89
2946.28
2932.16
2918.61
2905.67
2893.4
2881.82
2870.95
2860.79
2851.32
2842.54
2834.42
2826.93
2820.05
2813.77
2808.05
2802.89
2798.29
2794.23
2790.72
2787.75
2785.35
2783.49
2782.19
2781.45
2781.26
2781.62
2782.55
2784.04
2786.1
2788.74
2791.96
2795.78
2800.22
2805.31
2811.06
2817.51
2824.67
2832.58
2841.23
2850.62
2860.76
2871.62
2883.18
2895.37
2908.15
2921.44
2935.16
2949.22
2963.52
2977.94
2992.39
3006.74
3020.9
3034.74
3048.18
3061.11
3073.46
3085.16
3096.14
3106.35
3115.75
3124.3
3131.97
3138.76
3144.64
3149.61
3153.67
3156.81
3159.06
3160.4
3160.84
3160.41
3159.1
3156.9
3153.94
3150.12
3145.49
3139.81
2606.42
2610.45
2615.53
2621.67
2628.91
2637.25
2646.74
2657.38
2669.2
2682.2
2696.38
2711.76
2728.3
2746.05
2765.05
2786.52
2806.67
2826.85
2847.07
2867.17
2887.02
2906.48
2925.42
2943.72
2961.27
2978
2993.81
3008.63
3022.4
3035.07
3046.59
3056.94
3066.08
3074.01
3080.73
3086.25
3090.67
3093.96
3096.11
3097.13
3097.01
3095.77
3093.4
3089.88
3085.2
3079.31
3072.18
3063.8
3054.14
3043.22
3031.08
3017.81
3003.56
2988.4
2972.53
2956.05
2939.2
2921.96
2904.62
2887.48
2870.56
2853.91
2837.63
2821.79
2806.45
2791.66
2777.47
2763.91
2751.04
2738.88
2727.48
2716.9
2707.18
2698.37
2690.54
2683.71
2677.94
2673.25
2669.65
2667.15
2665.74
2665.41
2666.13
2667.87
2670.57
2674.18
2678.64
2683.87
2689.8
2696.36
2703.49
2711.13
2719.23
2727.74
2736.64
2745.9
2755.52
2765.46
2775.73
2786.3
2797.17
2808.29
2819.64
2831.27
2843.16
2855.28
2867.62
2880.13
2892.8
2905.58
2918.44
2931.32
2944.17
2956.93
2969.51
2981.85
2993.85
3005.4
3016.39
3026.72
3036.26
3044.88
3052.46
3058.88
3064.04
3067.83
3070.18
3071.02
3070.3
3068.01
3064.14
3058.73
3051.82
3043.49
3033.83
3022.96
3010.99
2998.06
2984.31
2969.9
2954.96
2939.66
2924.13
2908.51
2892.96
2877.59
2862.52
2847.87
2833.71
2820.13
2807.17
2794.89
2783.31
2772.44
2762.28
2752.83
2744.06
2735.95
2728.48
2721.61
2715.34
2709.63
2704.48
2699.87
2695.82
2692.31
2689.34
2686.94
2685.08
2683.78
2683.03
2682.84
2683.21
2684.13
2685.62
2687.67
2690.29
2693.5
2697.31
2701.74
2706.81
2712.55
2718.98
2726.14
2734.03
2742.68
2752.07
2762.22
2773.1
2784.67
2796.9
2809.71
2823.05
2836.82
2850.93
2865.28
2879.77
2894.28
2908.69
2922.91
2936.82
2950.31
2963.3
2975.69
2987.43
2998.44
3008.68
3018.1
3026.67
3034.36
3041.16
3047.04
3052.01
3056.07
3059.22
3061.46
3062.79
3063.23
3062.78
3061.44
3059.2
3056.16
3052.24
3047.45
3041.56
2507.66
2511.67
2516.72
2522.85
2530.06
2538.39
2547.85
2558.48
2570.29
2583.28
2597.48
2612.87
2629.44
2647.24
2666.31
2688
2708.25
2728.53
2748.86
2769.05
2789.01
2808.55
2827.58
2845.95
2863.58
2880.37
2896.24
2911.11
2924.93
2937.63
2949.18
2959.55
2968.7
2976.64
2983.36
2988.87
2993.3
2996.59
2998.74
2999.75
2999.64
2998.39
2996.02
2992.5
2987.81
2981.91
2974.78
2966.37
2956.68
2945.72
2933.52
2920.19
2905.87
2890.63
2874.67
2858.11
2841.17
2823.82
2806.41
2789.2
2772.22
2755.53
2739.21
2723.34
2707.97
2693.16
2678.94
2665.37
2652.47
2640.29
2628.87
2618.26
2608.51
2599.68
2591.81
2584.97
2579.18
2574.48
2570.89
2568.39
2566.99
2566.67
2567.42
2569.18
2571.91
2575.56
2580.06
2585.33
2591.3
2597.9
2605.06
2612.72
2620.84
2629.36
2638.27
2647.54
2657.16
2667.11
2677.38
2687.95
2698.83
2709.95
2721.31
2732.95
2744.85
2756.99
2769.34
2781.87
2794.56
2807.38
2820.27
2833.19
2846.09
2858.89
2871.54
2883.94
2896
2907.62
2918.69
2929.1
2938.71
2947.4
2955.05
2961.54
2966.76
2970.6
2972.98
2973.84
2973.13
2970.82
2966.93
2961.48
2954.52
2946.13
2936.4
2925.45
2913.4
2900.38
2886.55
2872.04
2857.02
2841.62
2826.01
2810.31
2794.69
2779.25
2764.13
2749.42
2735.22
2721.61
2708.63
2696.34
2684.75
2673.88
2663.73
2654.29
2645.54
2637.44
2629.99
2623.14
2616.87
2611.18
2606.03
2601.43
2597.37
2593.86
2590.9
2588.49
2586.64
2585.33
2584.59
2584.39
2584.76
2585.68
2587.16
2589.2
2591.82
2595.02
2598.81
2603.22
2608.27
2613.99
2620.41
2627.55
2635.44
2644.08
2653.48
2663.64
2674.53
2686.13
2698.38
2711.24
2724.62
2738.45
2752.62
2767.04
2781.59
2796.17
2810.65
2824.94
2838.91
2852.46
2865.51
2877.95
2889.74
2900.79
2911.06
2920.5
2929.09
2936.8
2943.6
2949.49
2954.47
2958.53
2961.67
2963.91
2965.24
2965.66
2965.2
2963.83
2961.55
2958.43
2954.41
2949.46
2943.36
2408.84
2412.82
2417.86
2423.95
2431.15
2439.45
2448.9
2459.51
2471.3
2484.29
2498.49
2513.91
2530.52
2548.37
2567.52
2589.44
2609.81
2630.2
2650.63
2670.94
2691
2710.65
2729.76
2748.22
2765.93
2782.79
2798.72
2813.65
2827.51
2840.25
2851.83
2862.22
2871.39
2879.34
2886.05
2891.55
2895.99
2899.28
2901.43
2902.44
2902.33
2901.08
2898.71
2895.19
2890.49
2884.58
2877.43
2869
2859.28
2848.27
2836.02
2822.62
2808.21
2792.9
2776.84
2760.18
2743.14
2725.68
2708.19
2690.91
2673.87
2657.12
2640.76
2624.85
2609.46
2594.62
2580.38
2566.79
2553.87
2541.66
2530.21
2519.57
2509.79
2500.92
2493.03
2486.17
2480.37
2475.66
2472.06
2469.56
2468.17
2467.88
2468.64
2470.44
2473.21
2476.89
2481.43
2486.75
2492.76
2499.4
2506.59
2514.28
2522.42
2530.96
2539.88
2549.16
2558.78
2568.73
2579
2589.58
2600.46
2611.59
2622.96
2634.61
2646.52
2658.67
2671.04
2683.6
2696.32
2709.16
2722.09
2735.06
2748
2760.87
2773.57
2786.04
2798.17
2809.87
2821.03
2831.51
2841.21
2849.99
2857.72
2864.28
2869.55
2873.44
2875.86
2876.74
2876.04
2873.73
2869.81
2864.32
2857.3
2848.85
2839.04
2828
2815.86
2802.74
2788.81
2774.2
2759.08
2743.59
2727.88
2712.1
2696.4
2680.89
2665.7
2650.94
2636.7
2623.05
2610.05
2597.74
2586.15
2575.28
2565.14
2555.71
2546.98
2538.9
2531.46
2524.63
2518.38
2512.69
2507.55
2502.96
2498.9
2495.39
2492.43
2490.02
2488.16
2486.86
2486.11
2485.91
2486.27
2487.19
2488.66
2490.7
2493.31
2496.49
2500.27
2504.66
2509.69
2515.39
2521.8
2528.92
2536.8
2545.43
2554.84
2565
2575.91
2587.54
2599.83
2612.73
2626.17
2640.05
2654.29
2668.78
2683.4
2698.06
2712.62
2726.98
2741.02
2754.64
2767.75
2780.25
2792.08
2803.17
2813.48
2822.95
2831.56
2839.29
2846.1
2852
2856.98
2861.04
2864.18
2866.41
2867.73
2868.14
2867.67
2866.26
2863.95
2860.74
2856.62
2851.52
2845.22
2309.96
2313.92
2318.92
2325
2332.16
2340.44
2349.86
2360.46
2372.24
2385.23
2399.43
2414.87
2431.52
2449.43
2468.65
2490.85
2511.34
2531.84
2552.4
2572.83
2593
2612.76
2631.97
2650.53
2668.32
2685.25
2701.25
2716.23
2730.15
2742.94
2754.55
2764.96
2774.15
2782.1
2788.81
2794.3
2798.74
2802.04
2804.19
2805.2
2805.09
2803.84
2801.47
2797.94
2793.24
2787.32
2780.15
2771.7
2761.93
2750.88
2738.56
2725.09
2710.6
2695.19
2679.03
2662.27
2645.11
2627.53
2609.96
2592.59
2575.49
2558.69
2542.28
2526.33
2510.91
2496.04
2481.79
2468.16
2455.22
2442.98
2431.5
2420.83
2411.01
2402.12
2394.2
2387.31
2381.49
2376.77
2373.16
2370.68
2369.3
2369.02
2369.81
2371.64
2374.45
2378.18
2382.76
2388.13
2394.18
2400.86
2408.1
2415.82
2423.97
2432.53
2441.46
2450.75
2460.37
2470.33
2480.61
2491.19
2502.08
2513.21
2524.59
2536.24
2548.17
2560.34
2572.73
2585.31
2598.06
2610.94
2623.91
2636.92
2649.92
2662.84
2675.62
2688.16
2700.37
2712.15
2723.4
2733.98
2743.76
2752.63
2760.44
2767.08
2772.42
2776.37
2778.83
2779.74
2779.04
2776.72
2772.77
2767.24
2760.16
2751.63
2741.74
2730.61
2718.36
2705.14
2691.1
2676.39
2661.16
2645.57
2629.76
2613.88
2598.09
2582.5
2567.24
2552.42
2538.14
2524.45
2511.43
2499.11
2487.51
2476.64
2466.51
2457.09
2448.38
2440.32
2432.9
2426.09
2419.85
2414.17
2409.04
2404.45
2400.4
2396.89
2393.93
2391.51
2389.66
2388.35
2387.6
2387.4
2387.76
2388.67
2390.14
2392.17
2394.76
2397.93
2401.69
2406.07
2411.08
2416.76
2423.14
2430.25
2438.11
2446.74
2456.15
2466.33
2477.25
2488.91
2501.24
2514.19
2527.68
2541.63
2555.94
2570.5
2585.21
2599.94
2614.59
2629.03
2643.15
2656.85
2670.02
2682.58
2694.46
2705.6
2715.94
2725.45
2734.08
2741.82
2748.65
2754.56
2759.54
2763.6
2766.74
2768.96
2770.28
2770.68
2770.18
2768.75
2766.4
2763.11
2758.88
2753.63
2747.13
2211.02
2214.95
2219.93
2225.97
2233.11
2241.36
2250.76
2261.33
2273.1
2286.08
2300.3
2315.76
2332.45
2350.42
2369.7
2392.23
2412.83
2433.46
2454.15
2474.71
2495.01
2514.88
2534.21
2552.86
2570.74
2587.75
2603.83
2618.88
2632.85
2645.68
2657.33
2667.77
2676.98
2684.93
2691.64
2697.12
2701.57
2704.86
2707.01
2708.02
2707.91
2706.67
2704.29
2700.76
2696.05
2690.12
2682.94
2674.45
2664.65
2653.55
2641.16
2627.61
2613.03
2597.51
2581.25
2564.37
2547.1
2529.37
2511.7
2494.26
2477.08
2460.22
2443.77
2427.78
2412.32
2397.43
2383.15
2369.5
2356.53
2344.26
2332.75
2322.04
2312.19
2303.25
2295.3
2288.38
2282.55
2277.82
2274.21
2271.72
2270.36
2270.1
2270.92
2272.78
2275.63
2279.42
2284.05
2289.47
2295.58
2302.3
2309.57
2317.32
2325.51
2334.08
2343.02
2352.32
2361.95
2371.91
2382.19
2392.78
2403.66
2414.81
2426.19
2437.86
2449.8
2461.99
2474.4
2487.01
2499.79
2512.71
2525.72
2538.78
2551.84
2564.82
2577.67
2590.29
2602.59
2614.46
2625.8
2636.48
2646.37
2655.33
2663.24
2669.96
2675.37
2679.38
2681.88
2682.82
2682.13
2679.79
2675.82
2670.23
2663.1
2654.48
2644.5
2633.27
2620.91
2607.58
2593.42
2578.6
2563.25
2547.54
2531.63
2515.65
2499.76
2484.09
2468.75
2453.87
2439.53
2425.81
2412.76
2400.42
2388.82
2377.96
2367.83
2358.44
2349.74
2341.71
2334.31
2327.51
2321.29
2315.63
2310.5
2305.92
2301.87
2298.36
2295.39
2292.98
2291.12
2289.81
2289.06
2288.86
2289.21
2290.12
2291.58
2293.6
2296.18
2299.34
2303.08
2307.43
2312.42
2318.08
2324.44
2331.53
2339.38
2348
2357.41
2367.6
2378.55
2390.23
2402.61
2415.61
2429.16
2443.18
2457.56
2472.21
2487
2501.83
2516.57
2531.1
2545.3
2559.08
2572.32
2584.95
2596.89
2608.07
2618.45
2627.99
2636.65
2644.41
2651.25
2657.16
2662.15
2666.21
2669.35
2671.57
2672.88
2673.26
2672.75
2671.29
2668.89
2665.52
2661.2
2655.79
2649.11
2112.01
2115.92
2120.87
2126.88
2133.99
2142.21
2151.58
2162.13
2173.88
2186.86
2201.08
2216.56
2233.3
2251.33
2270.68
2293.58
2314.3
2335.06
2355.9
2376.6
2397.03
2417.03
2436.47
2455.23
2473.2
2490.3
2506.46
2521.58
2535.61
2548.49
2560.18
2570.65
2579.87
2587.84
2594.54
2600
2604.46
2607.75
2609.9
2610.91
2610.8
2609.56
2607.18
2603.65
2598.94
2592.99
2585.78
2577.28
2567.43
2556.27
2543.82
2530.18
2515.5
2499.87
2483.49
2466.49
2449.09
2431.2
2413.43
2395.9
2378.65
2361.73
2345.22
2329.19
2313.7
2298.78
2284.47
2270.8
2257.8
2245.5
2233.95
2223.2
2213.31
2204.34
2196.35
2189.4
2183.54
2178.8
2175.19
2172.71
2171.36
2171.12
2171.97
2173.87
2176.77
2180.6
2185.3
2190.77
2196.93
2203.71
2211.02
2218.81
2227.02
2235.61
2244.56
2253.86
2263.5
2273.46
2283.74
2294.34
2305.23
2316.39
2327.78
2339.46
2351.41
2363.62
2376.05
2388.69
2401.5
2414.46
2427.52
2440.64
2453.75
2466.81
2479.73
2492.43
2504.82
2516.8
2528.24
2539.03
2549.02
2558.09
2566.1
2572.91
2578.4
2582.47
2585.03
2585.99
2585.31
2582.96
2578.95
2573.32
2566.11
2557.41
2547.33
2535.99
2523.51
2510.06
2495.78
2480.82
2465.35
2449.53
2433.49
2417.41
2401.42
2385.65
2370.24
2355.29
2340.89
2327.13
2314.05
2301.7
2290.08
2279.23
2269.12
2259.74
2251.06
2243.05
2235.68
2228.91
2222.7
2217.05
2211.93
2207.35
2203.3
2199.79
2196.83
2194.41
2192.55
2191.24
2190.49
2190.29
2190.64
2191.54
2192.99
2195
2197.57
2200.71
2204.43
2208.76
2213.72
2219.35
2225.69
2232.76
2240.6
2249.21
2258.62
2268.82
2279.8
2291.51
2303.93
2316.99
2330.61
2344.7
2359.17
2373.9
2388.79
2403.71
2418.55
2433.17
2447.47
2461.33
2474.65
2487.35
2499.35
2510.58
2521.01
2530.58
2539.27
2547.05
2553.9
2559.82
2564.81
2568.87
2572.01
2574.23
2575.52
2575.9
2575.37
2573.88
2571.44
2567.99
2563.56
2558
2551.15
2012.95
2016.82
2021.74
2027.73
2034.8
2042.99
2052.33
2062.85
2074.58
2087.55
2101.78
2117.29
2134.08
2152.17
2171.57
2194.9
2215.74
2236.64
2257.63
2278.48
2299.06
2319.19
2338.76
2357.63
2375.71
2392.9
2409.14
2424.33
2438.43
2451.36
2463.09
2473.59
2482.83
2490.81
2497.51
2502.95
2507.41
2510.71
2512.86
2513.87
2513.76
2512.51
2510.14
2506.61
2501.88
2495.93
2488.7
2480.16
2470.28
2459.05
2446.52
2432.79
2418
2402.26
2385.75
2368.62
2351.09
2333.02
2315.14
2297.52
2280.19
2263.2
2246.64
2230.57
2215.05
2200.1
2185.76
2172.06
2159.02
2146.69
2135.1
2124.31
2114.38
2105.36
2097.34
2090.36
2084.47
2079.72
2076.11
2073.63
2072.29
2072.07
2072.96
2074.9
2077.85
2081.74
2086.5
2092.03
2098.25
2105.08
2112.44
2120.26
2128.5
2137.11
2146.08
2155.38
2165.02
2174.99
2185.28
2195.87
2206.77