/*--------------------------------*- C++ -*----------------------------------*\
| =========                 |                                                 |
| \\      /  F ield         | OpenFOAM: The Open Source CFD Toolbox           |
|  \\    /   O peration     | Version:  3.0.1                                 |
|   \\  /    A nd           | Web:      www.OpenFOAM.org                      |
|    \\/     M anipulation  |                                                 |
\*---------------------------------------------------------------------------*/
FoamFile
{
    version     2.0;
    format      ascii;
    class       volVectorField;
    location    "73";
    object      U;
}
// * * * * * * * * * * * * * * * * * * * * * * * * * * * * * * * * * * * * * //

dimensions      [0 1 -1 0 0 0 0];

internalField   nonuniform List<vector> 
21420
(
(0.0742788 -0.00189383 0)
(0.0909139 -0.00189366 0)
(0.109633 -0.00183328 0)
(0.127762 -0.0017477 0)
(0.145029 -0.00166861 0)
(0.161171 -0.00153233 0)
(0.17592 -0.00139557 0)
(0.189025 -0.00121183 0)
(0.200248 -0.00100986 0)
(0.209382 -0.00079898 0)
(0.216258 -0.000565039 0)
(0.220764 -0.000321418 0)
(0.222808 -7.86046e-05 0)
(0.222378 0.000171876 0)
(0.21936 0.000421542 0)
(0.21383 0.000664851 0)
(0.205965 0.000897822 0)
(0.19588 0.00109862 0)
(0.183769 0.00129532 0)
(0.169842 0.00147484 0)
(0.154347 0.00159861 0)
(0.137551 0.0017256 0)
(0.119709 0.00182892 0)
(0.101088 0.00186872 0)
(0.0819503 0.0019184 0)
(0.0625189 0.00190883 0)
(0.042976 0.00191184 0)
(0.023473 0.00188846 0)
(0.00478263 0.00182219 0)
(-0.0130262 0.00176863 0)
(-0.0303795 0.0017007 0)
(-0.0469744 0.00160412 0)
(-0.0626943 0.00151761 0)
(-0.0774638 0.00141188 0)
(-0.091241 0.00131645 0)
(-0.104001 0.00121735 0)
(-0.115735 0.00111114 0)
(-0.126455 0.00101367 0)
(-0.136181 0.00091693 0)
(-0.144935 0.000819709 0)
(-0.152749 0.000728899 0)
(-0.159658 0.000639132 0)
(-0.165695 0.000554351 0)
(-0.170892 0.000471916 0)
(-0.175282 0.000391591 0)
(-0.178882 0.000314197 0)
(-0.181717 0.000237354 0)
(-0.183821 0.000163051 0)
(-0.185149 9.3057e-05 0)
(-0.185747 2.33782e-05 0)
(-0.18562 -5.50299e-05 0)
(-0.184749 -0.000127938 0)
(-0.18312 -0.000207097 0)
(-0.180737 -0.000277726 0)
(-0.177576 -0.000357552 0)
(-0.173577 -0.000443641 0)
(-0.168724 -0.000520325 0)
(-0.16306 -0.000606076 0)
(-0.156468 -0.000705228 0)
(-0.148895 -0.000789432 0)
(-0.140406 -0.000900624 0)
(-0.130922 -0.000989639 0)
(-0.120425 -0.00107972 0)
(-0.108996 -0.00118993 0)
(-0.0965646 -0.0012787 0)
(-0.0832514 -0.00136618 0)
(-0.0690466 -0.00146601 0)
(-0.053849 -0.00153622 0)
(-0.037944 -0.00162121 0)
(-0.0213809 -0.00168909 0)
(-0.0039216 -0.00174287 0)
(0.0141078 -0.0017899 0)
(0.0322995 -0.00181317 0)
(0.0506428 -0.00182481 0)
(0.0690152 -0.00181856 0)
(0.0872179 -0.00179078 0)
(0.105028 -0.00176153 0)
(0.122338 -0.00170145 0)
(0.139013 -0.00160895 0)
(0.154713 -0.0015086 0)
(0.169204 -0.00138471 0)
(0.182329 -0.00124756 0)
(0.193948 -0.00107805 0)
(0.203744 -0.000885679 0)
(0.211564 -0.000699174 0)
(0.217405 -0.000472617 0)
(0.221046 -0.000256659 0)
(0.222399 -2.68222e-05 0)
(0.221469 0.000207481 0)
(0.217996 0.000456629 0)
(0.212139 0.000691013 0)
(0.203974 0.000923066 0)
(0.193559 0.00113335 0)
(0.181086 0.00132933 0)
(0.166775 0.0014993 0)
(0.150867 0.00164849 0)
(0.133619 0.00177198 0)
(0.115291 0.00186193 0)
(0.0961888 0.00192054 0)
(0.0765761 0.00196559 0)
(0.0567122 0.00197532 0)
(0.0368708 0.00196426 0)
(0.0172751 0.00192798 0)
(-0.00185222 0.001869 0)
(-0.0203232 0.00179452 0)
(-0.0379824 0.0017064 0)
(-0.0546921 0.0016043 0)
(-0.0703167 0.00150247 0)
(-0.084839 0.00138804 0)
(-0.0982327 0.00127218 0)
(-0.110442 0.00115196 0)
(-0.121508 0.00104216 0)
(-0.131438 0.000930257 0)
(-0.140285 0.000825353 0)
(-0.148074 0.000716121 0)
(-0.154801 0.000622275 0)
(-0.160541 0.000522294 0)
(-0.165356 0.000434669 0)
(-0.169284 0.000346142 0)
(-0.17238 0.000259947 0)
(-0.174645 0.000186849 0)
(-0.176086 0.000108207 0)
(-0.176813 3.97921e-05 0)
(-0.176847 -3.51972e-05 0)
(-0.176169 -9.42687e-05 0)
(-0.174826 -0.000166748 0)
(-0.17285 -0.0002272 0)
(-0.170246 -0.000287247 0)
(-0.167062 -0.00035787 0)
(-0.163225 -0.000401541 0)
(-0.158774 -0.000468184 0)
(-0.153725 -0.000531648 0)
(-0.148039 -0.000590206 0)
(-0.14175 -0.000669311 0)
(-0.134748 -0.000717888 0)
(-0.127055 -0.000795901 0)
(-0.118665 -0.000870778 0)
(-0.109484 -0.000945481 0)
(-0.0995143 -0.00102918 0)
(-0.0887226 -0.00111344 0)
(-0.0770968 -0.00119558 0)
(-0.0646182 -0.00128166 0)
(-0.0512896 -0.00135779 0)
(-0.0371661 -0.00144161 0)
(-0.0222312 -0.00151564 0)
(-0.00654647 -0.00158388 0)
(0.00976919 -0.00164757 0)
(0.0266456 -0.00169284 0)
(0.0439083 -0.00172719 0)
(0.0614262 -0.00174315 0)
(0.0789755 -0.0017373 0)
(0.0963662 -0.00171012 0)
(0.113362 -0.00165627 0)
(0.129702 -0.00158092 0)
(0.145153 -0.00148333 0)
(0.159462 -0.0013484 0)
(0.172339 -0.0011976 0)
(0.183551 -0.0010179 0)
(0.19286 -0.000823843 0)
(0.200056 -0.000601045 0)
(0.204991 -0.000370208 0)
(0.207505 -0.000130054 0)
(0.207592 0.000111999 0)
(0.205144 0.000362432 0)
(0.200167 0.000615045 0)
(0.192809 0.000844975 0)
(0.183207 0.00105681 0)
(0.171523 0.00125732 0)
(0.157957 0.00143114 0)
(0.142799 0.00157363 0)
(0.126308 0.00169581 0)
(0.108769 0.00178197 0)
(0.090468 0.00184634 0)
(0.0716855 0.00187736 0)
(0.0527358 0.0018831 0)
(0.0338519 0.00186103 0)
(0.0153058 0.00181998 0)
(-0.00273773 0.00176646 0)
(-0.0201668 0.00169545 0)
(-0.0368135 0.00160905 0)
(-0.0525686 0.0015192 0)
(-0.0673968 0.00142047 0)
(-0.0812569 0.00132226 0)
(-0.0940858 0.00122925 0)
(-0.105913 0.00112338 0)
(-0.116708 0.00102239 0)
(-0.126472 0.000920994 0)
(-0.135275 0.00082868 0)
(-0.143164 0.000736002 0)
(-0.150178 0.000648201 0)
(-0.156313 0.000572401 0)
(-0.161652 0.000491503 0)
(-0.166267 0.000420893 0)
(-0.170171 0.000345181 0)
(-0.173393 0.000282148 0)
(-0.175932 0.000222637 0)
(-0.177793 0.00015191 0)
(-0.17893 8.22376e-05 0)
(-0.179411 1.90291e-05 0)
(-0.179208 -5.1987e-05 0)
(-0.178343 -0.00011391 0)
(-0.176924 -0.000171962 0)
(-0.174937 -0.000222081 0)
(-0.172411 -0.000276473 0)
(-0.16937 -0.000326613 0)
(-0.16578 -0.000391592 0)
(-0.161548 -0.0004482 0)
(-0.156624 -0.000518934 0)
(-0.151022 -0.000590051 0)
(-0.144686 -0.000662095 0)
(-0.13766 -0.000744758 0)
(-0.129828 -0.000811655 0)
(-0.121189 -0.00088625 0)
(-0.111816 -0.000968387 0)
(-0.101626 -0.00104968 0)
(-0.0906365 -0.00113314 0)
(-0.078808 -0.00120827 0)
(-0.066213 -0.00128716 0)
(-0.0528833 -0.00135761 0)
(-0.0388111 -0.00143002 0)
(-0.0240484 -0.00149183 0)
(-0.00869882 -0.00154738 0)
(0.00715772 -0.00159359 0)
(0.0234174 -0.0016269 0)
(0.0399255 -0.00164869 0)
(0.0565494 -0.00164864 0)
(0.073149 -0.00163326 0)
(0.0894973 -0.00160792 0)
(0.105411 -0.00154972 0)
(0.12066 -0.00146642 0)
(0.134971 -0.00136668 0)
(0.148115 -0.00123601 0)
(0.15982 -0.00108011 0)
(0.169836 -0.000900226 0)
(0.177933 -0.000706122 0)
(0.183946 -0.000484868 0)
(0.187686 -0.000255487 0)
(0.189047 -1.48168e-05 0)
(0.188023 0.000227194 0)
(0.184417 0.000471348 0)
(0.178436 0.000713156 0)
(0.170145 0.000927915 0)
(0.159739 0.00113543 0)
(0.14739 0.0013114 0)
(0.133341 0.0014736 0)
(0.117823 0.001603 0)
(0.101145 0.00170253 0)
(0.0835969 0.0017768 0)
(0.0654515 0.00182099 0)
(0.0470136 0.00183881 0)
(0.0284935 0.00183063 0)
(0.0101446 0.00180948 0)
(-0.00783121 0.00175731 0)
(-0.0252873 0.00170761 0)
(-0.0421119 0.0016319 0)
(-0.0581338 0.00154604 0)
(-0.0732488 0.00145448 0)
(-0.0874021 0.00135235 0)
(-0.100533 0.00125105 0)
(-0.112604 0.0011481 0)
(-0.123627 0.00104403 0)
(-0.13362 0.000942928 0)
(-0.142612 0.000844984 0)
(-0.150644 0.000755127 0)
(-0.157737 0.00066466 0)
(-0.163933 0.00057808 0)
(-0.16933 0.000495308 0)
(-0.17393 0.00041757 0)
(-0.177705 0.000347002 0)
(-0.180719 0.000265938 0)
(-0.18305 0.000201165 0)
(-0.184683 0.000134667 0)
(-0.185601 6.81772e-05 0)
(-0.185907 8.01535e-06 0)
(-0.185602 -5.76271e-05 0)
(-0.184714 -0.000121236 0)
(-0.183043 -0.000182667 0)
(-0.180707 -0.000248693 0)
(-0.177822 -0.000316623 0)
(-0.174096 -0.000400614 0)
(-0.169655 -0.000463771 0)
(-0.164485 -0.000547389 0)
(-0.158468 -0.000612054 0)
(-0.151806 -0.000682731 0)
(-0.144498 -0.000756783 0)
(-0.136698 -0.000807669 0)
(-0.128401 -0.0008495 0)
(-0.119399 -0.000917625 0)
(-0.109964 -0.000958016 0)
(-0.099911 -0.00102295 0)
(-0.0892062 -0.0010852 0)
(-0.0779851 -0.00113474 0)
(-0.0660065 -0.00122122 0)
(-0.0532284 -0.00130674 0)
(-0.0396314 -0.00137662 0)
(-0.0251386 -0.00146955 0)
(-0.0100557 -0.00156292 0)
(0.00545077 -0.00161484 0)
(0.0218437 -0.00169961 0)
(0.0390529 -0.00174196 0)
(0.0567337 -0.00179086 0)
(0.0747142 -0.0017976 0)
(0.0926637 -0.00176706 0)
(0.110249 -0.00172945 0)
(0.127217 -0.00164658 0)
(0.143241 -0.00152863 0)
(0.158002 -0.00139721 0)
(0.171243 -0.00122864 0)
(0.182712 -0.00104451 0)
(0.192214 -0.000837131 0)
(0.199568 -0.000608024 0)
(0.20463 -0.000381604 0)
(0.207356 -0.000144913 0)
(0.207676 9.37386e-05 0)
(0.205573 0.00032222 0)
(0.201072 0.000554829 0)
(0.19445 0.000753032 0)
(0.185818 0.000947024 0)
(0.175358 0.00112601 0)
(0.163305 0.00125639 0)
(0.149928 0.00138275 0)
(0.135474 0.00148664 0)
(0.120207 0.00153761 0)
(0.104385 0.00158921 0)
(0.088245 0.00159465 0)
(0.072 0.00160425 0)
(0.0557992 0.0015961 0)
(0.0398023 0.0015556 0)
(0.0240478 0.00151879 0)
(0.00890803 0.00148018 0)
(-0.00544979 0.00141817 0)
(-0.0193359 0.00136641 0)
(-0.0327522 0.001311 0)
(-0.0455784 0.00124236 0)
(-0.0577886 0.00118365 0)
(-0.0693682 0.00111422 0)
(-0.0803078 0.00105353 0)
(-0.0905994 0.000991041 0)
(-0.100233 0.000921038 0)
(-0.109202 0.000856979 0)
(-0.117498 0.000791226 0)
(-0.125112 0.000720261 0)
(-0.132035 0.000652441 0)
(-0.138256 0.000580374 0)
(-0.143764 0.000510069 0)
(-0.148546 0.000437983 0)
(-0.15259 0.00036338 0)
(-0.155882 0.000288728 0)
(-0.158409 0.000212492 0)
(-0.160166 0.000133707 0)
(-0.161111 5.59625e-05 0)
(-0.161306 -2.36761e-05 0)
(-0.160676 -0.000104493 0)
(-0.159225 -0.000185852 0)
(-0.156949 -0.000268236 0)
(-0.153836 -0.000350466 0)
(-0.149125 -0.000432971 0)
(0.0742839 -0.00568237 0)
(0.0909271 -0.00568195 0)
(0.109656 -0.00550085 0)
(0.127794 -0.00524415 0)
(0.145073 -0.00500692 0)
(0.161225 -0.00459802 0)
(0.175985 -0.00418777 0)
(0.189099 -0.00363646 0)
(0.200328 -0.00303041 0)
(0.209471 -0.00239762 0)
(0.216352 -0.00169561 0)
(0.220857 -0.000966781 0)
(0.222911 -0.000232008 0)
(0.222482 0.000516927 0)
(0.219454 0.00126512 0)
(0.213923 0.0019949 0)
(0.206054 0.00269402 0)
(0.195961 0.0032966 0)
(0.183842 0.00388681 0)
(0.169906 0.00442548 0)
(0.1544 0.00479683 0)
(0.137594 0.00517787 0)
(0.119742 0.00548783 0)
(0.10111 0.00560717 0)
(0.0819627 0.00575615 0)
(0.0625224 0.00572734 0)
(0.0429704 0.00573636 0)
(0.0234592 0.00566647 0)
(0.00476371 0.00546685 0)
(-0.0130505 0.00530628 0)
(-0.0304083 0.00510245 0)
(-0.0470064 0.0048127 0)
(-0.0627291 0.0045531 0)
(-0.0774998 0.00423581 0)
(-0.0912783 0.00394945 0)
(-0.104039 0.00365213 0)
(-0.115772 0.00333346 0)
(-0.126492 0.00304104 0)
(-0.136218 0.0027508 0)
(-0.14497 0.0024591 0)
(-0.152783 0.00218663 0)
(-0.159691 0.00191737 0)
(-0.165727 0.0016631 0)
(-0.170923 0.00141591 0)
(-0.175312 0.00117493 0)
(-0.178913 0.00094291 0)
(-0.181747 0.000713327 0)
(-0.18385 0.000490774 0)
(-0.185181 0.000281181 0)
(-0.185781 6.75667e-05 0)
(-0.185653 -0.00016533 0)
(-0.184784 -0.000383566 0)
(-0.183156 -0.000620806 0)
(-0.180775 -0.000832879 0)
(-0.177617 -0.00107243 0)
(-0.17362 -0.00133048 0)
(-0.168771 -0.00156043 0)
(-0.163109 -0.00181798 0)
(-0.15652 -0.00211591 0)
(-0.14895 -0.00236759 0)
(-0.140464 -0.00270187 0)
(-0.130981 -0.002968 0)
(-0.120487 -0.00324035 0)
(-0.109056 -0.00357133 0)
(-0.0966232 -0.00383299 0)
(-0.0833144 -0.0041027 0)
(-0.0690996 -0.00439664 0)
(-0.0538998 -0.00460964 0)
(-0.0379908 -0.00486267 0)
(-0.0214251 -0.005068 0)
(-0.00395712 -0.00523078 0)
(0.0140826 -0.00536737 0)
(0.0322775 -0.00544532 0)
(0.0506401 -0.00546845 0)
(0.0690108 -0.00546504 0)
(0.087233 -0.00537542 0)
(0.105054 -0.00528041 0)
(0.122379 -0.00510035 0)
(0.139057 -0.00483225 0)
(0.154765 -0.00453391 0)
(0.169274 -0.00415876 0)
(0.182419 -0.00373596 0)
(0.194049 -0.00322851 0)
(0.203851 -0.00265676 0)
(0.21168 -0.00210132 0)
(0.217528 -0.00143063 0)
(0.221193 -0.000775901 0)
(0.222557 -7.88183e-05 0)
(0.221618 0.000622906 0)
(0.218148 0.0013678 0)
(0.212301 0.00206995 0)
(0.204132 0.00276642 0)
(0.19371 0.00340257 0)
(0.181227 0.00398793 0)
(0.166897 0.00450779 0)
(0.150954 0.00494648 0)
(0.133678 0.00530498 0)
(0.115341 0.00558237 0)
(0.0962197 0.00578296 0)
(0.0765778 0.00588511 0)
(0.0566985 0.00592047 0)
(0.0368351 0.00589304 0)
(0.0172276 0.00577965 0)
(-0.00191023 0.00561159 0)
(-0.020397 0.00539157 0)
(-0.0380715 0.0051113 0)
(-0.0547799 0.00481924 0)
(-0.0704145 0.00450527 0)
(-0.0849455 0.00415539 0)
(-0.0983292 0.00381116 0)
(-0.11054 0.00346589 0)
(-0.121619 0.00312024 0)
(-0.13155 0.00278843 0)
(-0.140395 0.00247036 0)
(-0.148181 0.00215031 0)
(-0.154909 0.00187155 0)
(-0.160655 0.00156994 0)
(-0.165476 0.00129607 0)
(-0.169408 0.00103288 0)
(-0.172496 0.0007814 0)
(-0.174763 0.000569842 0)
(-0.176222 0.000330791 0)
(-0.176948 0.000113858 0)
(-0.176978 -0.000104766 0)
(-0.176306 -0.000286734 0)
(-0.174969 -0.000497164 0)
(-0.173002 -0.000682194 0)
(-0.170406 -0.000864211 0)
(-0.167217 -0.001059 0)
(-0.163391 -0.00120681 0)
(-0.15895 -0.00140716 0)
(-0.153914 -0.00160625 0)
(-0.148224 -0.00177236 0)
(-0.14194 -0.00200188 0)
(-0.134943 -0.00215109 0)
(-0.127253 -0.00239445 0)
(-0.118865 -0.00261084 0)
(-0.109695 -0.00284219 0)
(-0.0997256 -0.00308684 0)
(-0.0889319 -0.0033313 0)
(-0.0773097 -0.00359289 0)
(-0.0648205 -0.00384288 0)
(-0.0514933 -0.00407948 0)
(-0.0373636 -0.00432305 0)
(-0.0224384 -0.00455917 0)
(-0.00673356 -0.00475813 0)
(0.00959853 -0.00494185 0)
(0.026466 -0.00509253 0)
(0.0437538 -0.00518329 0)
(0.0612828 -0.00523115 0)
(0.0788574 -0.00521561 0)
(0.096265 -0.00512782 0)
(0.113272 -0.00498035 0)
(0.129637 -0.00474482 0)
(0.145106 -0.00444886 0)
(0.159429 -0.00404999 0)
(0.172327 -0.00360599 0)
(0.183553 -0.00306314 0)
(0.192879 -0.00247745 0)
(0.200091 -0.00180956 0)
(0.205029 -0.00112109 0)
(0.207568 -0.000385752 0)
(0.207653 0.000338959 0)
(0.205193 0.00109762 0)
(0.200211 0.00183492 0)
(0.192867 0.00252947 0)
(0.183261 0.00318616 0)
(0.171555 0.00376501 0)
(0.157987 0.00428576 0)
(0.14282 0.00472678 0)
(0.126312 0.0050823 0)
(0.108763 0.00535193 0)
(0.0904455 0.00553614 0)
(0.0716494 0.00563085 0)
(0.0526852 0.00564407 0)
(0.0337981 0.00558585 0)
(0.0152394 0.00546593 0)
(-0.00282262 0.00529167 0)
(-0.0202498 0.00508106 0)
(-0.0369038 0.00483062 0)
(-0.0526659 0.00456018 0)
(-0.0674932 0.00426123 0)
(-0.081356 0.00397108 0)
(-0.0942003 0.00368419 0)
(-0.106028 0.00336267 0)
(-0.116823 0.00306105 0)
(-0.126593 0.00276208 0)
(-0.135401 0.00248477 0)
(-0.143293 0.00220088 0)
(-0.150303 0.00194737 0)
(-0.156444 0.00172268 0)
(-0.161789 0.00147423 0)
(-0.166401 0.00126327 0)
(-0.170304 0.00105085 0)
(-0.173536 0.000851758 0)
(-0.176084 0.000667882 0)
(-0.17795 0.000455235 0)
(-0.179095 0.000245752 0)
(-0.179589 4.47569e-05 0)
(-0.179383 -0.000156354 0)
(-0.178523 -0.000343098 0)
(-0.177101 -0.000510286 0)
(-0.175119 -0.000664504 0)
(-0.1726 -0.00083126 0)
(-0.169564 -0.000981158 0)
(-0.165977 -0.00117233 0)
(-0.161751 -0.00134111 0)
(-0.156835 -0.00156229 0)
(-0.151235 -0.00177291 0)
(-0.144901 -0.00198567 0)
(-0.137875 -0.00222736 0)
(-0.130042 -0.00243003 0)
(-0.121408 -0.00266962 0)
(-0.112027 -0.00291469 0)
(-0.101827 -0.00315183 0)
(-0.0908258 -0.00339214 0)
(-0.0790089 -0.00363325 0)
(-0.0664082 -0.00385966 0)
(-0.053089 -0.00409315 0)
(-0.0389978 -0.00428754 0)
(-0.0242216 -0.00447374 0)
(-0.00887369 -0.00464994 0)
(0.00700684 -0.00478427 0)
(0.0232854 -0.00487871 0)
(0.0398069 -0.00494449 0)
(0.0564437 -0.00495384 0)
(0.0730486 -0.00491819 0)
(0.0894278 -0.00481529 0)
(0.10535 -0.00465567 0)
(0.120617 -0.00440952 0)
(0.134954 -0.00409886 0)
(0.148109 -0.00370765 0)
(0.159829 -0.00324505 0)
(0.169854 -0.00271318 0)
(0.17798 -0.00211405 0)
(0.183997 -0.00145548 0)
(0.187749 -0.00077304 0)
(0.189114 -5.3481e-05 0)
(0.188085 0.000680215 0)
(0.184481 0.00142258 0)
(0.17849 0.00213036 0)
(0.170199 0.00278056 0)
(0.159785 0.0034038 0)
(0.147421 0.00394062 0)
(0.133351 0.00441265 0)
(0.117825 0.00481162 0)
(0.101126 0.00511447 0)
(0.0835582 0.00532984 0)
(0.0653971 0.005463 0)
(0.0469378 0.00551329 0)
(0.0284022 0.0054985 0)
(0.0100311 0.00541647 0)
(-0.00794289 0.00528219 0)
(-0.0254071 0.005125 0)
(-0.0422247 0.00488841 0)
(-0.0582517 0.00463747 0)
(-0.0733639 0.00436405 0)
(-0.0875067 0.00406066 0)
(-0.100641 0.00375937 0)
(-0.112715 0.00343707 0)
(-0.123728 0.00313006 0)
(-0.133717 0.00283268 0)
(-0.142706 0.00253753 0)
(-0.15074 0.00226321 0)
(-0.15783 0.00199265 0)
(-0.16402 0.00173515 0)
(-0.169412 0.00147888 0)
(-0.174002 0.00124662 0)
(-0.177772 0.00104473 0)
(-0.180786 0.000805884 0)
(-0.183117 0.000600285 0)
(-0.184744 0.000404258 0)
(-0.185659 0.000209332 0)
(-0.185967 1.89746e-05 0)
(-0.185659 -0.000176042 0)
(-0.184765 -0.000358494 0)
(-0.183101 -0.000549018 0)
(-0.180762 -0.000745803 0)
(-0.17788 -0.000952001 0)
(-0.174153 -0.00119718 0)
(-0.169711 -0.00139541 0)
(-0.164542 -0.00163988 0)
(-0.158524 -0.00183446 0)
(-0.151863 -0.00205354 0)
(-0.144545 -0.00226872 0)
(-0.136745 -0.00242333 0)
(-0.128446 -0.00254636 0)
(-0.119446 -0.00275497 0)
(-0.110007 -0.00287383 0)
(-0.0999562 -0.00306787 0)
(-0.0892507 -0.00325375 0)
(-0.0780363 -0.0034073 0)
(-0.0660577 -0.00366393 0)
(-0.0532798 -0.00391892 0)
(-0.0396817 -0.00412676 0)
(-0.0251914 -0.00441101 0)
(-0.0101042 -0.00468684 0)
(0.00540881 -0.00484138 0)
(0.021805 -0.00510262 0)
(0.0390196 -0.00523266 0)
(0.0567136 -0.00537537 0)
(0.074706 -0.00539381 0)
(0.0926671 -0.00530172 0)
(0.110266 -0.00518952 0)
(0.127249 -0.00494114 0)
(0.143285 -0.00458763 0)
(0.158059 -0.00419339 0)
(0.171311 -0.00368708 0)
(0.18279 -0.00313434 0)
(0.1923 -0.00250916 0)
(0.199654 -0.0018317 0)
(0.204729 -0.00114089 0)
(0.207457 -0.000427905 0)
(0.207776 0.00027752 0)
(0.205659 0.000966823 0)
(0.201162 0.00166456 0)
(0.194533 0.00225963 0)
(0.185894 0.00284175 0)
(0.175426 0.00337894 0)
(0.163363 0.00377008 0)
(0.149975 0.00414925 0)
(0.135511 0.00446094 0)
(0.120233 0.0046138 0)
(0.104402 0.00476854 0)
(0.0882532 0.00478472 0)
(0.0720006 0.00481341 0)
(0.0557936 0.00478887 0)
(0.0397911 0.00466728 0)
(0.0240332 0.00455677 0)
(0.00889111 0.00444079 0)
(-0.00546907 0.00425458 0)
(-0.019357 0.00409935 0)
(-0.0327745 0.00393311 0)
(-0.0456012 0.00372714 0)
(-0.0578122 0.00355102 0)
(-0.069392 0.00334272 0)
(-0.0803322 0.00316064 0)
(-0.0906244 0.00297319 0)
(-0.100258 0.00276318 0)
(-0.109227 0.00257099 0)
(-0.117525 0.00237376 0)
(-0.125139 0.00216085 0)
(-0.132062 0.00195741 0)
(-0.138284 0.00174118 0)
(-0.143792 0.00153028 0)
(-0.148575 0.00131404 0)
(-0.152619 0.00109017 0)
(-0.155911 0.000866224 0)
(-0.158439 0.00063761 0)
(-0.160197 0.000401126 0)
(-0.161144 0.000167946 0)
(-0.161338 -7.09709e-05 0)
(-0.160708 -0.000313439 0)
(-0.159257 -0.000557507 0)
(-0.156982 -0.000804669 0)
(-0.153869 -0.00105137 0)
(-0.149158 -0.0012989 0)
(0.0742948 -0.00947352 0)
(0.090955 -0.00947317 0)
(0.109703 -0.00917146 0)
(0.127861 -0.00874367 0)
(0.145163 -0.00834846 0)
(0.161334 -0.0076668 0)
(0.176117 -0.00698298 0)
(0.189247 -0.00606375 0)
(0.200492 -0.00505322 0)
(0.20965 -0.00399812 0)
(0.21654 -0.00282782 0)
(0.221048 -0.00161103 0)
(0.223114 -0.000378907 0)
(0.222687 0.000859591 0)
(0.219641 0.00211007 0)
(0.214109 0.0033263 0)
(0.206229 0.00449215 0)
(0.196119 0.00549702 0)
(0.183984 0.00648104 0)
(0.170031 0.00737919 0)
(0.154502 0.00799819 0)
(0.137676 0.0086334 0)
(0.119802 0.00915001 0)
(0.101148 0.00934864 0)
(0.0819815 0.00959676 0)
(0.0625231 0.0095484 0)
(0.0429527 0.00956323 0)
(0.023425 0.00944732 0)
(0.00471907 0.00911244 0)
(-0.0131059 0.00884525 0)
(-0.0304729 0.00850536 0)
(-0.0470768 0.00802216 0)
(-0.0628053 0.00758922 0)
(-0.0775782 0.00706005 0)
(-0.091359 0.00658257 0)
(-0.10412 0.00608684 0)
(-0.115852 0.00555563 0)
(-0.126571 0.00506812 0)
(-0.136295 0.00458428 0)
(-0.145044 0.00409817 0)
(-0.152855 0.00364411 0)
(-0.15976 0.00319539 0)
(-0.165793 0.00277181 0)
(-0.170987 0.00235991 0)
(-0.175373 0.0019586 0)
(-0.178972 0.00157209 0)
(-0.181806 0.00118919 0)
(-0.183908 0.000817936 0)
(-0.185243 0.000468893 0)
(-0.18584 0.000112729 0)
(-0.185712 -0.000276444 0)
(-0.184843 -0.000639137 0)
(-0.183216 -0.00103416 0)
(-0.180836 -0.00138768 0)
(-0.17768 -0.00178722 0)
(-0.173685 -0.00221702 0)
(-0.168838 -0.0026001 0)
(-0.163179 -0.0030299 0)
(-0.156592 -0.00352579 0)
(-0.149025 -0.00394548 0)
(-0.140541 -0.004504 0)
(-0.131057 -0.0049469 0)
(-0.120563 -0.00539924 0)
(-0.109132 -0.00595328 0)
(-0.0967011 -0.0063925 0)
(-0.0833853 -0.00683457 0)
(-0.0691679 -0.00733204 0)
(-0.0539604 -0.00768062 0)
(-0.038051 -0.00810959 0)
(-0.0214771 -0.00844917 0)
(-0.00399734 -0.00871709 0)
(0.0140514 -0.0089504 0)
(0.0322619 -0.0090735 0)
(0.05063 -0.00912174 0)
(0.069022 -0.00910614 0)
(0.0872556 -0.00895893 0)
(0.10508 -0.00881339 0)
(0.122435 -0.00850397 0)
(0.139128 -0.00805237 0)
(0.154846 -0.00755692 0)
(0.169374 -0.00693345 0)
(0.182531 -0.00623767 0)
(0.194185 -0.00538838 0)
(0.203994 -0.00443567 0)
(0.211838 -0.00350151 0)
(0.217698 -0.00238453 0)
(0.221373 -0.00129382 0)
(0.222743 -0.000134436 0)
(0.221778 0.0010353 0)
(0.218315 0.00227718 0)
(0.212472 0.00345118 0)
(0.204288 0.00461665 0)
(0.193841 0.00567315 0)
(0.181336 0.00665401 0)
(0.166964 0.00751606 0)
(0.150984 0.00824876 0)
(0.133681 0.00885557 0)
(0.115306 0.00931726 0)
(0.0961514 0.00962742 0)
(0.0764896 0.00982311 0)
(0.0565764 0.00988001 0)
(0.0366832 0.00982416 0)
(0.0170526 0.00964371 0)
(-0.00211621 0.00935683 0)
(-0.0206263 0.00898204 0)
(-0.0383083 0.00852593 0)
(-0.055023 0.00803288 0)
(-0.0706635 0.00750987 0)
(-0.0851933 0.0069291 0)
(-0.0985755 0.0063626 0)
(-0.110793 0.00577193 0)
(-0.121868 0.00520592 0)
(-0.1318 0.00464791 0)
(-0.140645 0.00411516 0)
(-0.148426 0.00358461 0)
(-0.155157 0.00311825 0)
(-0.160903 0.00261241 0)
(-0.165715 0.00216621 0)
(-0.169648 0.0017298 0)
(-0.172734 0.00130338 0)
(-0.175004 0.000934462 0)
(-0.176469 0.000556435 0)
(-0.177186 0.000191348 0)
(-0.177205 -0.000168636 0)
(-0.176542 -0.000470177 0)
(-0.175219 -0.000828337 0)
(-0.173244 -0.00113517 0)
(-0.170647 -0.00144275 0)
(-0.16745 -0.00177276 0)
(-0.163615 -0.00200798 0)
(-0.159188 -0.00234695 0)
(-0.154144 -0.00266421 0)
(-0.148479 -0.00295663 0)
(-0.142194 -0.00333442 0)
(-0.135196 -0.00358684 0)
(-0.12752 -0.0039853 0)
(-0.119129 -0.00434885 0)
(-0.10996 -0.00473559 0)
(-0.0999975 -0.00514592 0)
(-0.089212 -0.00555934 0)
(-0.077578 -0.00598209 0)
(-0.065096 -0.00640541 0)
(-0.0517597 -0.00679525 0)
(-0.0376348 -0.00722578 0)
(-0.0226881 -0.00757941 0)
(-0.00697061 -0.00792836 0)
(0.0093683 -0.00824601 0)
(0.0262503 -0.0084838 0)
(0.0435388 -0.00864168 0)
(0.0610777 -0.00873094 0)
(0.0786765 -0.00868803 0)
(0.0961021 -0.0085583 0)
(0.113139 -0.0083011 0)
(0.129526 -0.00791849 0)
(0.14502 -0.00742384 0)
(0.159365 -0.00675443 0)
(0.172286 -0.00600495 0)
(0.183541 -0.00510617 0)
(0.19289 -0.00412397 0)
(0.200108 -0.00302457 0)
(0.205056 -0.00186599 0)
(0.207607 -0.000641646 0)
(0.207681 0.000558554 0)
(0.205206 0.00182844 0)
(0.200228 0.00305945 0)
(0.192875 0.00421889 0)
(0.183253 0.00530866 0)
(0.17154 0.00627802 0)
(0.157959 0.00715316 0)
(0.142761 0.00788161 0)
(0.126221 0.00847428 0)
(0.108653 0.00892097 0)
(0.0903171 0.00923266 0)
(0.0714972 0.0093947 0)
(0.0525133 0.00941047 0)
(0.0336067 0.00931596 0)
(0.0150264 0.00910888 0)
(-0.00304845 0.00882619 0)
(-0.0204872 0.00847186 0)
(-0.037152 0.00805311 0)
(-0.0529214 0.00759353 0)
(-0.0677467 0.0071048 0)
(-0.0816097 0.00662416 0)
(-0.0944594 0.00613642 0)
(-0.106282 0.0056106 0)
(-0.117075 0.00510731 0)
(-0.126845 0.00460522 0)
(-0.135652 0.00414477 0)
(-0.143542 0.00367255 0)
(-0.150551 0.00324889 0)
(-0.156697 0.00286881 0)
(-0.162037 0.0024559 0)
(-0.166645 0.00210775 0)
(-0.170551 0.00174458 0)
(-0.173777 0.00141458 0)
(-0.176329 0.0011077 0)
(-0.178202 0.000768745 0)
(-0.179353 0.000413035 0)
(-0.179841 8.3733e-05 0)
(-0.179636 -0.000262698 0)
(-0.178772 -0.000567822 0)
(-0.177347 -0.000851633 0)
(-0.175363 -0.0011095 0)
(-0.172844 -0.00137703 0)
(-0.169815 -0.00163981 0)
(-0.16623 -0.0019634 0)
(-0.162002 -0.00222187 0)
(-0.157103 -0.00260218 0)
(-0.151502 -0.00295296 0)
(-0.145167 -0.00331304 0)
(-0.138134 -0.00371359 0)
(-0.130293 -0.00405469 0)
(-0.121667 -0.0044431 0)
(-0.112292 -0.00485941 0)
(-0.102089 -0.00525784 0)
(-0.0910773 -0.00565033 0)
(-0.0792646 -0.00605629 0)
(-0.0666677 -0.00643569 0)
(-0.0533316 -0.00682178 0)
(-0.0392365 -0.00713515 0)
(-0.0244649 -0.00746778 0)
(-0.00910933 -0.00774923 0)
(0.00678265 -0.00797766 0)
(0.0230742 -0.008141 0)
(0.0396223 -0.00824378 0)
(0.0562788 -0.00826577 0)
(0.0729063 -0.00818205 0)
(0.0892949 -0.00803791 0)
(0.10524 -0.00776115 0)
(0.120521 -0.00734733 0)
(0.134873 -0.00684045 0)
(0.148057 -0.00618815 0)
(0.1598 -0.00541661 0)
(0.169847 -0.00451953 0)
(0.177982 -0.00352958 0)
(0.184008 -0.00243715 0)
(0.187783 -0.0012841 0)
(0.189161 -8.40075e-05 0)
(0.188102 0.0011392 0)
(0.184496 0.0023667 0)
(0.178505 0.00354952 0)
(0.17022 0.00463945 0)
(0.159787 0.00568687 0)
(0.147387 0.00656439 0)
(0.133297 0.00736615 0)
(0.117736 0.00802646 0)
(0.101015 0.00852362 0)
(0.0834293 0.00888831 0)
(0.0652483 0.0091112 0)
(0.0467596 0.00920289 0)
(0.0281944 0.00916713 0)
(0.00981495 0.00902986 0)
(-0.00816894 0.00881378 0)
(-0.0256377 0.00853445 0)
(-0.0424495 0.00814547 0)
(-0.0584631 0.00772589 0)
(-0.0735756 0.00727599 0)
(-0.0877126 0.00676464 0)
(-0.100841 0.00626039 0)
(-0.112901 0.00572993 0)
(-0.123908 0.00521813 0)
(-0.133891 0.00471629 0)
(-0.142864 0.00422648 0)
(-0.15089 0.0037744 0)
(-0.157973 0.00332096 0)
(-0.164155 0.00289098 0)
(-0.169532 0.00246577 0)
(-0.174104 0.00207847 0)
(-0.177872 0.00174251 0)
(-0.180881 0.00134063 0)
(-0.1832 0.00100253 0)
(-0.184826 0.000675058 0)
(-0.185736 0.00034587 0)
(-0.186032 3.18447e-05 0)
(-0.185725 -0.000291174 0)
(-0.184829 -0.00060303 0)
(-0.183166 -0.00091433 0)
(-0.180826 -0.00124358 0)
(-0.177949 -0.00158612 0)
(-0.174223 -0.00199209 0)
(-0.169775 -0.00232622 0)
(-0.164608 -0.0027345 0)
(-0.158592 -0.0030601 0)
(-0.151924 -0.00341833 0)
(-0.144601 -0.00378506 0)
(-0.136792 -0.0040399 0)
(-0.128494 -0.00424508 0)
(-0.119493 -0.00458909 0)
(-0.110052 -0.0047905 0)
(-0.100007 -0.00511288 0)
(-0.0893032 -0.00542483 0)
(-0.0780912 -0.00567698 0)
(-0.0661234 -0.00610657 0)
(-0.053348 -0.00652946 0)
(-0.0397488 -0.00687914 0)
(-0.0252639 -0.00734835 0)
(-0.0101685 -0.00782235 0)
(0.00535344 -0.00807269 0)
(0.021754 -0.00849869 0)
(0.0389849 -0.00871843 0)
(0.0566971 -0.00896067 0)
(0.0747098 -0.00899361 0)
(0.0926925 -0.00884138 0)
(0.110317 -0.0086543 0)
(0.127324 -0.00823997 0)
(0.143384 -0.00764972 0)
(0.15818 -0.00699198 0)
(0.171452 -0.00614784 0)
(0.182949 -0.00522678 0)
(0.192471 -0.00418777 0)
(0.199838 -0.00305081 0)
(0.204917 -0.00190358 0)
(0.207649 -0.000720969 0)
(0.207969 0.000470022 0)
(0.205826 0.00161453 0)
(0.201333 0.0027754 0)
(0.194691 0.00376844 0)
(0.186037 0.004739 0)
(0.175551 0.00563488 0)
(0.163467 0.00628675 0)
(0.150059 0.00691892 0)
(0.135574 0.0074384 0)
(0.120276 0.00769289 0)
(0.104427 0.00795052 0)
(0.0882615 0.00797703 0)
(0.0719943 0.00802444 0)
(0.0557754 0.00798326 0)
(0.0397624 0.00778018 0)
(0.023998 0.00759573 0)
(0.008852 0.00740198 0)
(-0.00551243 0.00709129 0)
(-0.0194035 0.0068326 0)
(-0.0328229 0.00655544 0)
(-0.0456502 0.00621205 0)
(-0.0578624 0.00591851 0)
(-0.0694424 0.00557132 0)
(-0.0803835 0.00526786 0)
(-0.0906765 0.00495543 0)
(-0.10031 0.00460542 0)
(-0.10928 0.0042851 0)
(-0.117579 0.00395644 0)
(-0.125193 0.00360157 0)
(-0.132118 0.00326251 0)
(-0.13834 0.00290212 0)
(-0.143849 0.00255061 0)
(-0.148633 0.00219026 0)
(-0.152678 0.00181706 0)
(-0.155971 0.00144374 0)
(-0.158499 0.00106274 0)
(-0.160257 0.000669203 0)
(-0.16121 0.00027981 0)
(-0.161401 -0.000118204 0)
(-0.160773 -0.000522333 0)
(-0.159322 -0.000929102 0)
(-0.157047 -0.00134106 0)
(-0.153934 -0.00175225 0)
(-0.149223 -0.00216484 0)
(0.0743112 -0.013269 0)
(0.0909968 -0.0132693 0)
(0.109774 -0.0128471 0)
(0.127962 -0.0122483 0)
(0.145298 -0.0116954 0)
(0.161498 -0.0107407 0)
(0.176314 -0.0097832 0)
(0.18947 -0.00849547 0)
(0.200737 -0.00707982 0)
(0.209919 -0.00560178 0)
(0.216823 -0.00396231 0)
(0.221338 -0.00225848 0)
(0.223423 -0.000531387 0)
(0.222985 0.00121857 0)
(0.219924 0.00295908 0)
(0.214389 0.00466006 0)
(0.206493 0.00629349 0)
(0.196356 0.0077015 0)
(0.184198 0.00907985 0)
(0.170218 0.010338 0)
(0.154654 0.0112047 0)
(0.137798 0.0120943 0)
(0.119893 0.0128176 0)
(0.101206 0.0130951 0)
(0.0820095 0.0134421 0)
(0.062524 0.0133737 0)
(0.0429262 0.0133938 0)
(0.0233734 0.0132326 0)
(0.00465184 0.0127599 0)
(-0.013189 0.0123867 0)
(-0.0305699 0.0119103 0)
(-0.0471827 0.0112331 0)
(-0.0629197 0.0106264 0)
(-0.077696 0.00988489 0)
(-0.0914801 0.00921594 0)
(-0.104242 0.00852148 0)
(-0.115972 0.00777762 0)
(-0.126689 0.00709468 0)
(-0.13641 0.00641715 0)
(-0.145155 0.0057368 0)
(-0.152962 0.00510107 0)
(-0.159862 0.00447304 0)
(-0.165892 0.00388021 0)
(-0.171083 0.00330383 0)
(-0.175466 0.00274248 0)
(-0.179062 0.00220134 0)
(-0.181893 0.00166598 0)
(-0.183992 0.00114633 0)
(-0.185335 0.000656003 0)
(-0.185935 0.000149564 0)
(-0.1858 -0.000388951 0)
(-0.184932 -0.000894582 0)
(-0.183306 -0.00144717 0)
(-0.180928 -0.00194187 0)
(-0.177775 -0.00250187 0)
(-0.173784 -0.00310308 0)
(-0.16894 -0.00363874 0)
(-0.163284 -0.0042417 0)
(-0.1567 -0.00493573 0)
(-0.149138 -0.00552209 0)
(-0.140658 -0.00630604 0)
(-0.131174 -0.00692562 0)
(-0.12068 -0.00756 0)
(-0.109246 -0.00833881 0)
(-0.0968172 -0.00895124 0)
(-0.0834974 -0.00956972 0)
(-0.0692686 -0.0102661 0)
(-0.0540555 -0.0107564 0)
(-0.0381385 -0.0113556 0)
(-0.0215584 -0.011838 0)
(-0.00406211 -0.0122073 0)
(0.0140093 -0.0125327 0)
(0.0322353 -0.0127127 0)
(0.0506146 -0.0127714 0)
(0.0690346 -0.0127582 0)
(0.0872855 -0.0125552 0)
(0.10513 -0.0123432 0)
(0.122513 -0.0119126 0)