/*--------------------------------*- C++ -*----------------------------------*\
| =========                 |                                                 |
| \\      /  F ield         | OpenFOAM: The Open Source CFD Toolbox           |
|  \\    /   O peration     | Version:  3.0.1                                 |
|   \\  /    A nd           | Web:      www.OpenFOAM.org                      |
|    \\/     M anipulation  |                                                 |
\*---------------------------------------------------------------------------*/
FoamFile
{
    version     2.0;
    format      ascii;
    class       volScalarField;
    location    "20.4";
    object      p_rgh;
}
// * * * * * * * * * * * * * * * * * * * * * * * * * * * * * * * * * * * * * //

dimensions      [1 -1 -2 0 0 0 0];

internalField   nonuniform List<scalar> 
21420
(
204.325
172.642
140.109
107.08
74.0102
41.2421
10.551
-19.9797
-50.5641
-80.105
-108.274
-134.861
-159.746
-182.862
-204.171
-223.67
-241.37
-257.313
-271.543
-284.113
-295.079
-304.496
-312.413
-318.878
-323.93
-327.607
-329.89
-330.757
-330.212
-328.323
-325.024
-320.305
-314.122
-306.442
-297.209
-286.373
-273.884
-259.689
-243.736
-225.988
-206.415
-185.011
-161.787
-136.764
-110.026
-81.6992
-51.9209
-20.853
11.2049
43.713
76.9954
110.553
144.011
176.963
209.006
239.766
268.853
295.882
320.511
342.418
361.312
376.939
389.068
397.532
402.204
402.93
399.853
392.802
381.868
367.25
349.1
327.647
303.195
276.086
246.681
215.364
182.55
148.674
114.148
79.386
44.8019
10.9703
-22.2693
-54.4637
-85.3244
-114.619
-142.167
-167.832
-191.515
-213.146
-232.697
-250.161
-265.555
-278.925
-290.33
-299.851
-307.574
-313.593
-318.031
-321.01
-322.571
-322.766
-321.748
-319.489
-316.029
-311.372
-305.49
-298.362
-289.944
-280.185
-269.038
-256.452
-242.381
-226.778
-209.608
-190.839
-170.453
-148.445
-124.822
-99.6038
-72.8507
-44.6425
-15.0953
15.6336
47.3493
79.7497
112.557
145.427
177.978
209.799
240.461
269.529
296.571
321.172
342.946
361.543
376.661
388.053
395.535
398.98
398.288
393.536
384.811
372.182
355.871
336.118
313.217
287.509
259.357
229.152
197.304
164.239
130.385
96.1613
61.9795
28.2257
-4.74769
-36.6379
-67.1809
-96.166
-123.431
-148.858
-172.384
-193.981
-213.654
-231.442
-247.396
-261.58
-274.072
-284.952
-294.278
-302.126
-308.557
-313.609
-317.344
-319.761
-320.871
-320.67
-319.181
-316.365
-312.198
-306.64
-299.644
-291.162
-281.15
-269.565
-256.352
-241.476
-224.904
-206.611
-186.588
-164.843
-141.409
-116.329
-89.6803
-61.5687
-32.1285
-1.528
30.0369
62.3014
94.997
127.814
160.41
192.422
223.464
253.134
281.032
306.763
329.935
350.188
367.189
380.649
390.326
396.039
397.604
395.078
388.388
377.641
362.97
344.612
322.841
298.005
270.502
240.756
209.245
176.453
142.854
108.915
75.0709
41.7211
9.22646
-22.1417
-52.1443
-80.6065
-107.414
-132.504
-155.852
-177.477
-197.418
-215.726
-232.464
-247.693
-261.47
-273.843
-284.852
-294.512
-302.844
-309.853
-315.507
-319.793
-322.711
-324.195
-324.146
-322.572
-319.434
-314.65
-308.155
-299.9
-289.835
-277.92
-264.121
-248.426
-230.835
-211.367
-190.061
-166.981
-142.217
-115.884
-88.1241
-59.113
-29.052
1.86562
34.7697
66.672
98.6418
130.408
161.647
192.043
221.284
249.056
275.044
298.941
320.461
339.346
355.357
368.274
377.899
384.077
386.71
385.694
381.026
372.651
360.616
345.079
326.191
304.18
279.293
251.824
222.141
190.622
157.658
123.631
88.9325
53.9665
19.2324
-11.4539
-44.1199
-75.7864
-106.082
-134.773
-161.67
-186.643
-209.606
-230.502
-249.317
-266.068
-280.791
-293.544
-304.396
-313.429
-320.728
-326.381
-330.475
-333.052
-334.182
-333.849
-332.147
-329.112
-324.758
-319.101
-312.154
-303.888
-294.284
-283.32
-270.951
-257.16
-241.917
-225.185
-206.948
-187.199
-165.932
-143.165
-118.956
-93.3645
-66.5135
-38.5576
-10.1508
19.4348
49.5978
80.0648
110.469
140.511
169.795
197.962
224.68
249.457
271.805
204.355
172.655
140.104
107.06
73.9764
41.1979
10.4924
-20.0496
-50.6391
-80.1846
-108.357
-134.945
-159.831
-182.946
-204.254
-223.749
-241.447
-257.386
-271.613
-284.18
-295.143
-304.557
-312.472
-318.934
-323.985
-327.66
-329.944
-330.812
-330.268
-328.379
-325.08
-320.363
-314.182
-306.505
-297.274
-286.441
-273.955
-259.762
-243.813
-226.068
-206.497
-185.093
-161.87
-136.847
-110.107
-81.7761
-51.9926
-20.9183
11.1481
43.665
76.9595
110.53
144.004
176.971
209.031
239.809
268.912
295.958
320.603
342.525
361.432
377.07
389.209
397.679
402.357
403.092
399.998
392.947
382.008
367.38
349.217
327.749
303.281
276.154
246.731
215.394
182.561
148.667
114.124
79.3461
44.747
10.9087
-22.3421
-54.546
-85.4138
-114.714
-142.265
-167.932
-191.615
-213.246
-232.795
-250.257
-265.648
-279.014
-290.415
-299.931
-307.649
-313.665
-318.099
-321.074
-322.629
-322.824
-321.804
-319.544
-316.085
-311.428
-305.548
-298.421
-290.005
-280.249
-269.105
-256.521
-242.452
-226.852
-209.684
-190.917
-170.532
-148.525
-124.902
-99.6844
-72.9297
-44.7186
-15.1667
15.5689
47.2928
79.7042
112.524
145.409
177.977
209.816
240.497
269.584
296.645
321.265
343.055
361.667
376.798
388.2
395.689
399.143
398.441
393.686
384.955
372.317
355.994
336.226
313.308
287.582
259.411
229.188
197.321
164.237
130.367
96.1263
61.9299
28.1635
-4.82058
-36.7192
-67.2686
-96.258
-123.525
-148.953
-172.478
-194.073
-213.743
-231.527
-247.478
-261.658
-274.146
-285.022
-294.345
-302.191
-308.619
-313.67
-317.403
-319.819
-320.927
-320.728
-319.24
-316.425
-312.26
-306.703
-299.71
-291.23
-281.221
-269.637
-256.428
-241.553
-224.983
-206.692
-186.67
-164.926
-141.491
-116.41
-89.7589
-61.6436
-32.1984
-1.59117
29.9817
62.2561
94.9633
127.794
160.405
192.432
223.492
253.179
281.096
306.843
330.033
350.302
367.317
380.79
390.475
396.194
397.769
395.23
388.539
377.785
363.102
344.73
322.942
298.086
270.563
240.797
209.265
176.452
142.834
108.879
75.0197
41.6575
9.15298
-22.2223
-52.2298
-80.6945
-107.503
-132.591
-155.938
-177.559
-197.497
-215.802
-232.535
-247.761
-261.536
-273.907
-284.915
-294.573
-302.905
-309.914
-315.568
-319.855
-322.775
-324.261
-324.21
-322.642
-319.505
-314.724
-308.231
-299.979
-289.916
-278.002
-264.206
-248.511
-230.92
-211.452
-190.145
-167.063
-142.297
-115.959
-88.1944
-59.1769
-29.1092
1.80985
34.7365
66.6419
98.6231
130.402
161.654
192.065
221.32
249.106
275.108
299.018
320.552
339.449
355.471
368.398
378.031
384.218
386.861
385.836
381.165
372.788
360.749
345.203
326.304
304.279
279.377
251.892
222.191
190.655
157.673
123.63
88.9158
53.9364
19.1937
-11.5203
-44.1931
-75.866
-106.167
-134.861
-161.761
-186.735
-209.697
-230.592
-249.405
-266.153
-280.872
-293.621
-304.47
-313.499
-320.794
-326.442
-330.533
-333.108
-334.235
-333.902
-332.199
-329.163
-324.809
-319.153
-312.207
-303.942
-294.34
-283.377
-271.01
-257.222
-241.981
-225.25
-207.016
-187.268
-166.001
-143.234
-119.024
-93.4303
-66.5766
-38.6154
-10.1987
19.3937
49.5657
80.0434
110.46
140.516
169.815
197.998
224.733
249.527
271.891
204.415
172.681
140.096
107.019
73.9088
41.1097
10.3748
-20.1891
-50.789
-80.3439
-108.523
-135.115
-160.001
-183.114
-204.418
-223.908
-241.6
-257.532
-271.753
-284.314
-295.27
-304.679
-312.589
-319.048
-324.095
-327.766
-330.051
-330.922
-330.381
-328.489
-325.192
-320.478
-314.302
-306.63
-297.405
-286.577
-274.097
-259.91
-243.966
-226.226
-206.659
-185.258
-162.036
-137.011
-110.267
-81.9293
-52.1354
-21.0483
11.035
43.5697
76.8883
110.486
143.989
176.989
209.082
239.894
269.032
296.111
320.788
342.739
361.673
377.334
389.491
397.975
402.662
403.413
400.293
393.239
382.29
367.642
349.454
327.956
303.455
276.293
246.833
215.458
182.589
148.66
114.084
79.2739
44.6457
10.7946
-22.4776
-54.6994
-85.5806
-114.89
-142.448
-168.117
-191.801
-213.431
-232.976
-250.433
-265.818
-279.177
-290.569
-300.076
-307.785
-313.792
-318.218
-321.186
-322.728
-322.923
-321.901
-319.639
-316.18
-311.525
-305.648
-298.525
-290.114
-280.363
-269.224
-256.646
-242.582
-226.987
-209.823
-191.061
-170.68
-148.675
-125.053
-99.835
-73.0776
-44.8608
-15.3
15.4487
47.1888
79.6221
112.468
145.382
177.983
209.858
240.576
269.702
296.801
321.457
343.282
361.924
377.08
388.502
396.004
399.47
398.76
393.996
385.252
372.594
356.246
336.449
313.498
287.737
259.529
229.269
197.365
164.244
130.339
96.0669
61.8417
28.0503
-4.9548
-36.8699
-67.4318
-96.4294
-123.701
-149.13
-172.653
-194.243
-213.908
-231.684
-247.627
-261.799
-274.279
-285.148
-294.465
-302.305
-308.728
-313.776
-317.507
-319.922
-321.025
-320.832
-319.344
-316.532
-312.371
-306.818
-299.829
-291.354
-281.35
-269.772
-256.567
-241.697
-225.132
-206.844
-186.824
-165.081
-141.645
-116.562
-89.9066
-61.7843
-32.329
-1.70868
29.88
62.1742
94.9046
127.761
160.402
192.461
223.554
253.277
281.23
307.014
330.238
350.539
367.583
381.079
390.783
396.514
398.106
395.544
388.853
378.082
363.377
344.976
323.154
298.26
270.697
240.889
209.316
176.463
142.808
108.819
74.9301
41.5434
9.01938
-22.37
-52.3868
-80.8563
-107.665
-132.752
-156.094
-177.709
-197.64
-215.937
-232.664
-247.884
-261.653
-274.02
-285.025
-294.681
-303.012
-310.021
-315.677
-319.966
-322.889
-324.376
-324.329
-322.768
-319.635
-314.86
-308.372
-300.124
-290.066
-278.157
-264.364
-248.672
-231.082
-211.614
-190.306
-167.22
-142.448
-116.102
-88.3278
-59.2976
-29.2166
1.70448
34.6758
66.5871
98.5907
130.394
161.673
192.111
221.394
249.209
275.239
299.176
320.736
339.658
355.703
368.649
378.298
384.499
387.153
386.127
381.445
373.065
361.016
345.453
326.531
304.479
279.545
252.028
222.292
190.72
157.704
123.627
88.8823
53.8759
19.1167
-11.6535
-44.3397
-76.0252
-106.336
-135.039
-161.944
-186.919
-209.88
-230.772
-249.581
-266.322
-281.034
-293.776
-304.616
-313.637
-320.925
-326.566
-330.649
-333.218
-334.343
-334.008
-332.301
-329.264
-324.911
-319.256
-312.312
-304.049
-294.45
-283.492
-271.129
-257.345
-242.107
-225.381
-207.15
-187.405
-166.139
-143.372
-119.159
-93.5619
-66.7028
-38.7306
-10.2947
19.3114
49.5014
80.0007
110.442
140.525
169.854
198.07
224.839
249.667
272.062
204.506
172.719
140.083
106.958
73.8067
40.9776
10.1976
-20.3981
-51.0138
-80.5829
-108.772
-135.369
-160.256
-183.367
-204.664
-224.147
-241.83
-257.752
-271.963
-284.514
-295.462
-304.862
-312.765
-319.217
-324.26
-327.925
-330.211
-331.09
-330.55
-328.655
-325.36
-320.651
-314.481
-306.817
-297.6
-286.781
-274.31
-260.131
-244.195
-226.463
-206.902
-185.505
-162.284
-137.258
-110.508
-82.1595
-52.3498
-21.2434
10.8653
43.4265
76.7813
110.419
143.967
177.015
209.159
240.022
269.212
296.341
321.065
343.061
362.034
377.73
389.914
398.42
403.12
403.889
400.742
393.679
382.712
368.036
349.809
328.266
303.717
276.502
246.986
215.556
182.632
148.65
114.023
79.1661
44.4944
10.624
-22.6804
-54.9289
-85.8302
-115.154
-142.721
-168.395
-192.079
-213.707
-233.248
-250.697
-266.072
-279.42
-290.799
-300.292
-307.988
-313.981
-318.396
-321.352
-322.877
-323.072
-322.046
-319.781
-316.322
-311.671
-305.798
-298.681
-290.277
-280.534
-269.403
-256.833
-242.777
-227.19
-210.033
-191.277
-170.901
-148.9
-125.279
-100.061
-73.2993
-45.074
-15.4998
15.2683
47.0332
79.4991
112.383
145.342
177.992
209.921
240.695
269.879
297.036
321.747
343.622
362.31
377.504
388.955
396.477
399.951
399.248
394.465
385.699
373.012
356.627
336.785
313.785
287.97
259.708
229.391
197.431
164.256
130.299
95.9786
61.7101
27.8813
-5.15542
-37.0953
-67.6758
-96.6859
-123.963
-149.394
-172.915
-194.498
-214.153
-231.919
-247.85
-262.01
-274.479
-285.336
-294.644
-302.476
-308.892
-313.936
-317.662
-320.074
-321.175
-320.987
-319.501
-316.692
-312.536
-306.989
-300.006
-291.539
-281.544
-269.973
-256.776
-241.913
-225.354
-207.071
-187.055
-165.314
-141.877
-116.79
-90.1279
-61.995
-32.5248
-1.88481
29.7279
62.0517
94.8169
127.713
160.398
192.505
223.649
253.426
281.433
307.27
330.546
350.896
367.983
381.515
391.246
396.994
398.608
396.024
389.325
378.53
363.791
345.347
323.474
298.523
270.899
241.028
209.393
176.481
142.769
108.729
74.7966
41.3731
8.81996
-22.5907
-52.6214
-81.098
-107.909
-132.992
-156.327
-177.933
-197.853
-216.14
-232.857
-248.067
-261.829
-274.188
-285.189
-294.843
-303.172
-310.182
-315.839
-320.132
-323.059
-324.547
-324.509
-322.957
-319.83
-315.062
-308.583
-300.343
-290.291
-278.388
-264.6
-248.912
-231.324
-211.856
-190.545
-167.455
-142.674
-116.317
-88.5277
-59.4784
-29.3769
1.54876
34.5827
66.5044
98.5424
130.383
161.701
192.181
221.506
249.363
275.435
299.414
321.013
339.972
356.049
369.025
378.698
384.92
387.582
386.571
381.87
373.481
361.416
345.827
326.872
304.779
279.799
252.231
222.443
190.819
157.75
123.622
88.8319
53.7849
19.0009
-11.8534
-44.5598
-76.2641
-106.591
-135.305
-162.217
-187.195
-210.155
-231.043
-249.844
-266.577
-281.278
-294.008
-304.837
-313.845
-321.121
-326.751
-330.823
-333.382
-334.506
-334.166
-332.455
-329.416
-325.063
-319.41
-312.469
-304.21
-294.616
-283.663
-271.307
-257.529
-242.298
-225.578
-207.352
-187.61
-166.347
-143.579
-119.362
-93.7592
-66.892
-38.9039
-10.4387
19.1879
49.4048
79.9364
110.415
140.539
169.914
198.178
224.998
249.877
272.32
204.627
172.77
140.066
106.877
73.6696
40.8013
9.96027
-20.6762
-51.3136
-80.9019
-109.104
-135.708
-160.597
-183.703
-204.993
-224.466
-242.137
-258.046
-272.244
-284.781
-295.717
-305.106
-313
-319.444
-324.479
-328.137
-330.421
-331.315
-330.773
-328.875
-325.585
-320.882
-314.721
-307.066
-297.86
-287.052
-274.593
-260.427
-244.5
-226.78
-207.227
-185.835
-162.616
-137.587
-110.83
-82.4667
-52.6361
-21.5038
10.6388
43.2351
76.638
110.33
143.938
177.05
209.261
240.192
269.451
296.647
321.435
343.49
362.517
378.258
390.479
399.012
403.73
404.516
401.349
394.268
383.276
368.561
350.283
328.68
304.065
276.78
247.191
215.685
182.689
148.637
113.943
79.0218
44.2922
10.396
-22.9514
-55.2356
-86.1636
-115.507
-143.085
-168.766
-192.451
-214.076
-233.61
-251.048
-266.411
-279.744
-291.106
-300.581
-308.259
-314.234
-318.633
-321.572
-323.079
-323.271
-322.238
-319.971
-316.513
-311.865
-305.998
-298.89
-290.494
-280.761
-269.642
-257.083
-243.038
-227.46
-210.312
-191.565
-171.196
-149.199
-125.581
-100.362
-73.5952
-45.3588
-15.7669
15.0269
46.8256
79.3347
112.27
145.287
178.004
210.004
240.854
270.115
297.349
322.133
344.077
362.825
378.07
389.56
397.108
400.589
399.898
395.094
386.296
373.57
357.134
337.233
314.167
288.282
259.945
229.554
197.518
164.271
130.245
95.8605
61.5343
27.6553
-5.42348
-37.3964
-68.0018
-97.0284
-124.314
-149.747
-173.263
-194.838
-214.481
-232.233
-248.147
-262.292
-274.745
-285.588
-294.883
-302.704
-309.111
-314.148
-317.869
-320.274
-321.377
-321.193
-319.709
-316.906
-312.758
-307.218
-300.244
-291.787
-281.802
-270.242
-257.054
-242.201
-225.65
-207.374
-187.363
-165.624
-142.186
-117.094
-90.4234
-62.2764
-32.7863
-2.12036
29.5248
61.8879
94.6996
127.649
160.392
192.564
223.776
253.623
281.703
307.612
330.958
351.371
368.516
382.097
391.864
397.635
399.267
396.673
389.957
379.128
364.343
345.841
323.9
298.873
271.169
241.214
209.496
176.504
142.717
108.61
74.6181
41.1455
8.55352
-22.8854
-52.9347
-81.4208
-108.233
-133.313
-156.638
-178.231
-198.138
-216.41
-233.113
-248.312
-262.062
-274.413
-285.408
-295.058
-303.386
-310.396
-316.056
-320.353
-323.286
-324.776
-324.749
-323.207
-320.09
-315.333
-308.863
-300.634
-290.592
-278.697
-264.916
-249.233
-231.647
-212.179
-190.865
-167.768
-142.976
-116.604
-88.7944
-59.7197
-29.5896
1.34777
34.451
66.3927
98.4777
130.367
161.739
192.275
221.655
249.569
275.697
299.73
321.382
340.39
356.512
369.526
379.231
385.479
388.155
387.157
382.442
374.037
361.95
346.326
327.326
305.179
280.138
252.502
222.645
190.95
157.811
123.616
88.7642
53.6632
18.8456
-12.1199
-44.8532
-76.583
-106.931
-135.661
-162.582
-187.564
-210.522
-231.404
-250.196
-266.916
-281.603
-294.318
-305.13
-314.123
-321.383
-326.998
-331.054
-333.603
-334.723
-334.376
-332.659
-329.619
-325.267
-319.616
-312.679
-304.425
-294.837
-283.892
-271.544
-257.775
-242.551
-225.84
-207.621
-187.884
-166.623
-143.855
-119.634
-94.0223
-67.1441
-39.1367
-10.6304
19.0231
49.2758
79.8504
110.378
140.558
169.993
198.321
225.21
250.157
272.663
204.778
172.834
140.043
106.773
73.4965
40.5802
9.66259
-21.0229
-51.6884
-81.3011
-109.52
-136.133
-161.022
-184.124
-205.405
-224.864
-242.52
-258.413
-272.594
-285.115
-296.035
-305.411
-313.292
-319.727
-324.753
-328.403
-330.684
-331.594
-331.049
-329.15
-325.865
-321.171
-315.02
-307.378
-298.185
-287.392
-274.948
-260.796
-244.883
-227.176
-207.632
-186.247
-163.032
-137.999
-111.232
-82.8514
-52.9945
-21.8296
10.3552
42.9949
76.4581
110.218
143.901
177.093
209.388
240.405
269.75
297.03
321.898
344.027
363.12
378.918
391.186
399.754
404.493
405.291
402.115
395.007
383.982
369.218
350.876
329.198
304.502
277.128
247.446
215.847
182.759
148.619
113.842
78.8406
44.0385
10.1105
-23.2912
-55.62
-86.5813
-115.948
-143.542
-169.23
-192.916
-214.538
-234.063
-251.488
-266.836
-280.15
-291.491
-300.942
-308.597
-314.55
-318.928
-321.847
-323.333
-323.519
-322.479
-320.208
-316.751
-312.108
-306.248
-299.15
-290.766
-281.046
-269.941
-257.395
-243.363
-227.798
-210.662
-191.926
-171.565
-149.574
-125.959
-100.739
-73.9658
-45.7156
-16.1018
14.7237
46.5656
79.1284
112.127
145.219
178.018
210.108
241.052
270.409
297.739
322.616
344.645
363.47
378.778
390.317
397.897
401.39
400.704
395.883
387.044
374.268
357.768
337.794
314.645
288.671
260.242
229.757
197.628
164.289
130.177
95.7121
61.3136
27.372
-5.75948
-37.7738
-68.4101
-97.4573
-124.753
-150.189
-173.7
-195.264
-214.892
-232.625
-248.52
-262.644
-275.079
-285.902
-295.182
-302.989
-309.384
-314.413
-318.127
-320.526
-321.632
-321.45
-319.97
-317.174
-313.034
-307.504
-300.541
-292.096
-282.125
-270.578
-257.403
-242.562
-226.021
-207.754
-187.749
-166.013
-142.572
-117.475
-90.7934
-62.6289
-33.1139
-2.41561
29.2702
61.6826
94.5522
127.567
160.384
192.636
223.933
253.87
282.04
308.04
331.472
351.966
369.183
382.824
392.638
398.438
400.084
397.49
390.747
379.877
365.034
346.46
324.433
299.311
271.505
241.446
209.624
176.532
142.652
108.46
74.3937
40.8599
8.21945
-23.2549
-53.3273
-81.8252
-108.64
-133.714
-157.027
-178.605
-198.494
-216.748
-233.434
-248.618
-262.355
-274.694
-285.681
-295.327
-303.653
-310.664
-316.327
-320.629
-323.569
-325.063
-325.051
-323.521
-320.416
-315.671
-309.215
-300.998
-290.968
-279.083
-265.311
-249.634
-232.051
-212.584
-191.266
-168.159
-143.354
-116.962
-89.1284
-60.0217
-29.8542
1.11515
34.2665
66.2509
98.3962
130.348
161.786
192.391
221.842
249.826
276.024
300.125
321.843
340.913
357.09
370.153
379.899
386.178
388.871
387.885
383.163
374.735
362.618
346.951
327.894
305.679
280.561
252.841
222.896
191.113
157.887
123.607
88.6789
53.5103
18.6494
-12.4526
-45.2203
-76.9821
-107.356
-136.105
-163.038
-188.024
-210.981
-231.856
-250.636
-267.341
-282.01
-294.705
-305.497
-314.469
-321.71
-327.307
-331.344
-333.88
-334.992
-334.637
-332.914
-329.872
-325.521
-319.873
-312.941
-304.694
-295.113
-284.179
-271.841
-258.082
-242.869
-226.168
-207.957
-188.227
-166.97
-144.2
-119.973
-94.3513
-67.459
-39.43
-10.8699
18.8167
49.114
79.7424
110.332
140.58
170.091
198.501
225.474
250.506
273.093
204.959
172.91
140.016
106.648
73.2863
40.3123
9.30516
-21.4374
-52.1382
-81.7809
-110.02
-136.643
-161.534
-184.63
-205.898
-225.342
-242.98
-258.853
-273.014
-285.516
-296.418
-305.777
-313.644
-320.066
-325.083
-328.724
-331.001
-331.923
-331.376
-329.479
-326.201
-321.517
-315.379
-307.752
-298.576
-287.8
-275.374
-261.24
-245.342
-227.65
-208.12
-186.743
-163.53
-138.494
-111.716
-83.314
-53.4255
-22.2212
10.0143
42.7054
76.2412
110.082
143.855
177.144
209.539
240.66
270.108
297.489
322.453
344.672
363.844
379.711
392.035
400.644
405.41
406.218
403.037
395.897
384.831
370.007
351.587
329.82
305.025
277.545
247.752
216.04
182.843
148.597
113.719
78.6222
43.7326
9.76728
-23.7003
-56.0826
-87.0836
-116.479
-144.09
-169.788
-193.476
-215.093
-234.607
-252.017
-267.346
-280.638
-291.952
-301.377
-309.004
-314.93
-319.283
-322.174
-323.642
-323.817
-322.767
-320.492
-317.036
-312.399
-306.548
-299.462
-291.092
-281.389
-270.3
-257.771
-243.754
-228.204
-211.082
-192.358
-172.008
-150.025
-126.413
-101.193
-74.4113
-46.1448
-16.5049
14.3584
46.2528
78.8796
111.955
145.135
178.034
210.231
241.289
270.763
298.208
323.195
345.328
364.243
379.628
391.226
398.846
402.354
401.671
396.831
387.943
375.105
358.53
338.467
315.218
289.138
260.599
230
197.758
164.31
130.094
95.533
61.0476
27.0307
-6.16388
-38.228
-68.9011
-97.973
-125.282
-150.72
-174.225
-195.775
-215.385
-233.097
-248.967
-263.067
-275.478
-286.279
-295.54
-303.331
-309.712
-314.731
-318.436
-320.829
-321.938
-321.759
-320.283
-317.495
-313.366
-307.847
-300.897
-292.469
-282.512
-270.981
-257.821
-242.994
-226.466
-208.209
-188.212
-166.479
-143.037
-117.933
-91.2382
-63.0527
-33.508
-2.77077
28.9635
61.4352
94.3744
127.469
160.374
192.722
224.121
254.165
282.445
308.552
332.089
352.68
369.984
383.697
393.567
399.403
401.064
398.473
391.696
380.777
365.864
347.203
325.073
299.836
271.908
241.725
209.777
176.564
142.572
108.278
74.1231
40.5156
7.81717
-23.6996
-53.7996
-82.3115
-109.129
-134.195
-157.495
-179.054
-198.922
-217.154
-233.819
-248.985
-262.705
-275.032
-286.01
-295.65
-303.974
-310.985
-316.652
-320.961
-323.909
-325.408
-325.412
-323.896
-320.806
-316.078
-309.637
-301.435
-291.42
-279.547
-265.785
-250.115
-232.537
-213.07
-191.747
-168.63
-143.808
-117.394
-89.5298
-60.3846
-30.1706
0.851178
34.0282
66.0784
98.2974
130.324
161.842
192.53
222.065
250.134
276.416
300.599
322.397
341.541
357.785
370.905
380.699
387.016
389.733
388.756
384.031
375.575
363.422
347.701
328.577
306.279
281.069
253.246
223.197
191.309
157.977
123.596
88.5755
53.3256
18.411
-12.8512
-45.661
-77.4616
-107.868
-136.64
-163.587
-188.578
-211.533
-232.399
-251.164
-267.851
-282.498
-295.17
-305.938
-314.886
-322.103
-327.677
-331.693
-334.215
-335.313
-334.949
-333.218
-330.176
-325.825
-320.181
-313.255
-305.016
-295.444
-284.522
-272.197
-258.451
-243.25
-226.561
-208.361
-188.639
-167.386
-144.615
-120.381
-94.7464
-67.837
-39.7839
-11.1576
18.5683
48.919
79.6121
110.275
140.607
170.208
198.715
225.79
250.925
273.609
205.17
172.999
139.983
106.5
73.0374
39.9934
8.89061
-21.9189
-52.6633
-82.3415
-110.604
-137.24
-162.132
-185.22
-206.475
-225.9
-243.517
-259.367
-273.504
-285.983
-296.863
-306.203
-314.054
-320.461
-325.466
-329.099
-331.372
-332.303
-331.756
-329.862
-326.592
-321.92
-315.798
-308.189
-299.031
-288.275
-275.87
-261.757
-245.878
-228.205
-208.689
-187.322
-164.113
-139.072
-112.281
-83.855
-53.9294
-22.6787
9.61559
42.366
75.9866
109.923
143.801
177.202
209.715
240.957
270.526
298.025
323.101
345.424
364.69
380.637
393.027
401.684
406.481
407.301
404.113
396.937
385.823
370.928
352.418
330.546
305.636
278.032
248.108
216.264
182.94
148.571
113.576
78.3661
43.3733
9.36655
-24.1794
-56.624
-87.6711
-117.099
-144.732
-170.44
-194.129
-215.74
-235.243
-252.635
-267.942
-281.207
-292.491
-301.883
-309.478
-315.373
-319.695
-322.555
-324.003
-324.163
-323.103
-320.824
-317.369
-312.739
-306.899
-299.826
-291.473
-281.788
-270.719
-258.208
-244.211
-228.678
-211.573
-192.863
-172.525
-150.551
-126.944
-101.722
-74.9321
-46.6469
-16.9766
13.9303
45.8867
78.5878
111.753
145.037
178.051
210.374
241.565
271.174
298.754
323.872
346.124
365.147
380.621
392.289
399.954
403.482
402.799
397.936
388.994
376.084
359.42
339.253
315.888
289.683
261.014
230.283
197.91
164.333
129.996
95.3227
60.7356
26.6309
-6.63732
-38.7596
-69.4755
-98.5761
-125.899
-151.34
-174.838
-196.373
-215.961
-233.647
-249.489
-263.56
-275.945
-286.72
-295.957
-303.729
-310.094
-315.101
-318.796
-321.184
-322.294
-322.118
-320.648
-317.87
-313.752
-308.247
-301.314
-292.903
-282.964
-271.451
-258.31
-243.499
-226.986
-208.742
-188.753
-167.024
-143.58
-118.468
-91.7581
-63.5483
-33.9693
-3.18624
28.6044
61.1453
94.1656
127.352
160.361
192.821
224.34
254.509
282.916
309.15
332.809
353.514
370.919
384.718
394.653
400.53
402.21
399.618
392.806
381.828
366.834
348.07
325.82
300.449
272.379
242.048
209.955
176.601
142.477
108.064
73.8054
40.1119
7.34593
-24.2201
-54.3522
-82.8802
-109.7
-134.758
-158.042
-179.578
-199.421
-217.628
-234.269
-249.412
-263.114
-275.426
-286.393
-296.027
-304.347
-311.359
-317.032
-321.349
-324.304
-325.811
-325.835
-324.335
-321.262
-316.552
-310.129
-301.946
-291.947
-280.089
-266.339
-250.678
-233.104
-213.638
-192.309
-169.18
-144.339
-117.898
-89.999
-60.8091
-30.5388
0.556055
33.7351
65.8749
98.1809
130.296
161.906
192.691
222.325
250.494
276.873
301.152
323.043
342.274
358.596
371.784
381.634
387.994
390.738
389.774
385.042
376.557
364.36
348.578
329.374
306.98
281.66
253.719
223.55
191.536
158.081
123.582
88.4533
53.1087
18.1284
-13.3153
-46.1755
-78.022
-108.465
-137.265
-164.228
-189.226
-212.177
-233.033
-251.781
-268.446
-283.068
-295.712
-306.452
-315.371
-322.561
-328.11
-332.102
-334.605
-335.687
-335.313
-333.573
-330.53
-326.18
-320.54
-313.622
-305.392
-295.831
-284.922
-272.613
-258.881
-243.695
-227.02
-208.833
-189.121
-167.872
-145.099
-120.858
-95.2077
-68.278
-40.1986
-11.4941
18.2772
48.6904
79.4589
110.208
140.636
170.343
198.964
226.159
251.413
274.21
205.411
173.099
139.944
106.329
72.7483
39.6155
8.42527
-22.4665
-53.2639
-82.9837
-111.274
-137.923
-162.816
-185.896
-207.135
-226.539
-244.131
-259.954
-274.064
-286.517
-297.373
-306.691
-314.522
-320.913
-325.905
-329.527
-331.796
-332.732
-332.188
-330.299
-327.039
-322.381
-316.276
-308.687
-299.552
-288.819
-276.438
-262.348
-246.491
-228.839
-209.34
-187.984
-164.78
-139.734
-112.928
-84.4749
-54.5068
-23.2027
9.15831
41.976
75.6939
109.739
143.738
177.268
209.916
241.295
271.003
298.638
323.843
346.285
365.657
381.696
394.161
402.874
407.707
408.541
405.343
398.129
386.958
371.983
353.368
331.377
306.335
278.589
248.515
216.52
183.05
148.54
113.41
78.0718
42.9592
8.90834
-24.7292
-57.2449
-88.3445
-117.81
-145.466
-171.186
-194.877
-216.481
-235.97
-253.342
-268.623
-281.857
-293.108
-302.463
-310.02
-315.879
-320.165
-322.992
-324.415
-324.557
-323.486
-321.202
-317.748
-313.126
-307.299
-300.243
-291.909
-282.244
-271.197
-258.709
-244.733
-229.22
-212.134
-193.44
-173.117
-151.153
-127.551
-102.329
-75.5287
-47.2224
-17.5176
13.4387
45.4664
78.2522
111.519
144.922
178.069
210.536
241.879
271.644
299.379
324.645
347.036
366.181
381.758
393.504
401.222
404.774
404.091
399.199
390.196
377.204
360.437
340.151
316.653
290.306
261.488
230.605
198.082
164.359
129.883
95.0804
60.3772
26.1718
-7.18053
-39.3692
-70.134
-99.267
-126.607
-152.051
-175.539
-197.056
-216.62
-234.276
-250.086
-264.124
-276.477
-287.223
-296.434
-304.185
-310.531
-315.524
-319.207
-321.59
-322.7
-322.528
-321.065
-318.297
-314.194
-308.705
-301.79
-293.399
-283.481
-271.989
-258.868
-244.077
-227.58
-209.35
-189.372
-167.648
-144.202
-119.081
-92.3536
-64.1161
-34.498
-3.66266
28.1922
60.8125
93.9253
127.218
160.345
192.933
224.588
254.901
283.454
309.833
333.632
354.468
371.989
385.885
395.896
401.822
403.523
400.927
394.076
383.031
367.945
349.063
326.675
301.15
272.916
242.418
210.156
176.641
142.366
107.817
73.4399
39.6481
6.80499
-24.8172
-54.9857
-83.532
-110.355
-135.403
-158.667
-180.178
-199.991
-218.169
-234.782
-249.901
-263.581
-275.876
-286.83
-296.456
-304.774
-311.787
-317.465
-321.791
-324.754
-326.274
-326.317
-324.836
-321.783
-317.093
-310.692
-302.529
-292.55
-280.708
-266.972
-251.322
-233.754
-214.287
-192.953
-169.81
-144.947
-118.476
-90.5362
-61.2954
-30.9596
0.228235
33.3879
65.6403
98.0463
130.263
161.98
192.875
222.621
250.904
277.395
301.784
323.782
343.112
359.523
372.789
382.704
389.113
391.889
390.938
386.199
377.682
365.435
349.581
330.286
307.782
282.336
254.264
223.953
191.795
158.198
123.564
88.3116
52.859
17.8
-13.8447
-46.7641
-78.6637
-109.15
-137.98
-164.962
-189.966
-212.915
-233.758
-252.487
-269.126
-283.719
-296.332
-307.039
-315.926
-323.084
-328.603
-332.568
-335.051
-336.114
-335.727
-333.978
-330.933
-326.585
-320.95
-314.04
-305.822
-296.273
-285.379
-273.088
-259.373
-244.204
-227.545
-209.372
-189.671
-168.428
-145.654
-121.403
-95.7357
-68.7822
-40.674
-11.8801
17.9424
48.4273
79.2823
110.13
140.669
170.497
199.248
226.579
251.971
274.898
205.681
173.211
139.899
106.133
72.4175
39.1709
7.91548
-23.0795
-53.9403
-83.7079
-112.028
-138.693
-163.587
-186.657
-207.878
-227.258
-244.822
-260.615
-274.695
-287.118
-297.946
-307.239
-315.048
-321.421
-326.398
-330.01
-332.273
-333.21
-332.671
-330.79
-327.542
-322.9
-316.814
-309.248
-300.137
-289.43
-277.077
-263.014
-247.182
-229.552
-210.073
-188.731
-165.531
-140.481
-113.658
-85.1745
-55.1583
-23.7934
8.64166
41.5344
75.3623
109.531
143.665
177.34
210.14
241.675
271.54
299.327
324.677
347.253
366.746
382.889
395.438
404.215
409.087
409.937
406.728
399.472
388.238
373.171
354.439
332.313
307.122
279.214
248.971
216.806
183.172
148.504
113.223
77.739
42.4891
8.39259
-25.3507
-57.9463
-89.1045
-118.611
-146.294
-172.027
-195.719
-217.316
-236.79
-254.138
-269.389
-282.59
-293.802
-303.116
-310.63
-316.448
-320.694
-323.483
-324.879
-325
-323.916
-321.626
-318.175
-313.562
-307.748
-300.71
-292.398
-282.758
-271.735
-259.272
-245.32
-229.831
-212.765
-194.09
-173.783
-151.831
-128.236
-103.013
-76.2015
-47.872
-18.1284
12.883
44.9912
77.8719
111.254
144.79
178.087
210.717
242.231
272.172
300.081
325.515
348.062
367.345
383.039
394.875
402.652
406.231
405.546
400.622
391.551
378.465
361.583
341.163
317.514
291.007
262.02
230.967
198.274
164.386
129.754
94.8054
59.9716
25.6527
-7.79429
-40.0577
-70.8774
-100.046
-127.405
-152.852
-176.33
-197.826
-217.362
-234.984
-250.757
-264.759
-277.077
-287.789
-296.971
-304.697
-311.022
-315.998
-319.67
-322.046
-323.157
-322.989
-321.533
-318.778
-314.691
-309.22
-302.325
-293.957
-284.063
-272.594
-259.497
-244.728
-228.25
-210.036
-190.069
-168.35
-144.902
-119.772
-93.0251
-64.7567
-35.0947
-4.20092
27.7264
60.4359
93.6528
127.064
160.324
193.057
224.867
255.34
284.059
310.601
334.558
355.541
373.194
387.201
397.296
403.277
405.003
402.402
395.507
384.387
369.196
350.181
327.637
301.939
273.521
242.832
210.381
176.684
142.239
107.537
73.0257
39.1232