/*--------------------------------*- C++ -*----------------------------------*\
| =========                 |                                                 |
| \\      /  F ield         | OpenFOAM: The Open Source CFD Toolbox           |
|  \\    /   O peration     | Version:  3.0.1                                 |
|   \\  /    A nd           | Web:      www.OpenFOAM.org                      |
|    \\/     M anipulation  |                                                 |
\*---------------------------------------------------------------------------*/
FoamFile
{
    version     2.0;
    format      ascii;
    class       volScalarField;
    location    "24.8";
    object      p;
}
// * * * * * * * * * * * * * * * * * * * * * * * * * * * * * * * * * * * * * //

dimensions      [1 -1 -2 0 0 0 0];

internalField   nonuniform List<scalar> 
22680
(
4283.95
4296.44
4306.17
4313.08
4317.11
4318.19
4316.2
4311.24
4303.32
4292.49
4278.82
4262.44
4243.48
4222.13
4198.56
4172.99
4145.7
4116.93
4086.98
4056.12
4024.61
3992.73
3960.74
3928.85
3897.31
3866.27
3835.76
3806.48
3778.3
3751.31
3725.63
3701.33
3678.49
3657.14
3637.34
3619.09
3602.39
3587.25
3573.64
3561.53
3550.89
3541.68
3533.88
3527.42
3522.27
3518.4
3515.75
3514.28
3513.95
3514.74
3516.6
3519.5
3523.41
3528.33
3534.26
3541.16
3549.05
3557.94
3567.84
3578.79
3590.8
3603.92
3618.17
3633.59
3650.22
3668.09
3687.22
3707.61
3729.29
3752.23
3776.42
3801.81
3828.32
3855.86
3884.3
3913.51
3943.32
3973.55
4003.94
4034.27
4064.28
4093.72
4122.29
4149.73
4175.77
4200.13
4222.56
4242.83
4260.73
4276.05
4288.64
4298.37
4305.13
4308.85
4309.5
4307.06
4301.54
4293.04
4281.63
4267.44
4250.62
4231.36
4209.85
4186.32
4161
4134.14
4106
4076.84
4046.9
4016.46
3985.75
3955
3924.43
3894.26
3864.65
3835.78
3807.78
3780.79
3754.9
3730.21
3706.78
3684.66
3663.91
3644.53
3626.56
3609.99
3594.82
3581.05
3568.65
3557.62
3547.93
3539.56
3532.49
3526.71
3522.2
3518.93
3516.92
3516.13
3516.57
3518.21
3521.06
3525.13
3530.39
3536.82
3544.41
3553.15
3563.02
3574.01
3586.09
3599.24
3613.46
3628.73
3645.03
3662.36
3680.7
3700.06
3720.41
3741.74
3764.02
3787.23
3811.32
3836.23
3861.89
3888.22
3915.11
3942.45
3970.05
3998.31
4026.09
4053.72
4080.96
4107.61
4133.45
4158.23
4181.73
4203.72
4223.96
4242.23
4258.31
4272.01
4283.14
4291.54
4297.09
4299.66
4299.21
4295.63
4289.05
4279.43
4266.86
4251.44
4233.35
4212.75
4189.86
4164.93
4138.22
4110.01
4080.6
4050.28
4019.36
3988.12
3956.85
3925.8
3895.21
3865.3
3836.26
3808.25
3781.41
3755.84
3731.64
3708.87
3687.57
3667.78
3649.51
3632.74
3617.48
3603.67
3591.29
3580.28
3570.61
3562.22
3555.07
3549.06
3544.31
3541.63
3543.63
4185.99
4198.48
4208.22
4215.14
4219.17
4220.25
4218.28
4213.3
4205.38
4194.54
4180.87
4164.48
4145.51
4124.14
4100.55
4074.97
4047.66
4018.88
3988.91
3958.03
3926.51
3894.62
3862.61
3830.71
3799.16
3768.11
3737.59
3708.31
3680.12
3653.13
3627.44
3603.14
3580.29
3558.95
3539.14
3520.89
3504.2
3489.06
3475.45
3463.34
3452.7
3443.5
3435.7
3429.24
3424.1
3420.23
3417.58
3416.11
3415.79
3416.58
3418.44
3421.34
3425.25
3430.18
3436.1
3443.01
3450.89
3459.78
3469.68
3480.63
3492.64
3505.75
3520
3535.42
3552.05
3569.91
3589.04
3609.43
3631.11
3654.05
3678.24
3703.63
3730.14
3757.69
3786.14
3815.36
3845.17
3875.42
3905.82
3936.17
3966.19
3995.64
4024.23
4051.69
4077.74
4102.12
4124.57
4144.85
4162.76
4178.09
4190.7
4200.43
4207.2
4210.92
4211.57
4209.13
4203.61
4195.1
4183.68
4169.48
4152.65
4133.38
4111.85
4088.31
4062.97
4036.1
4007.94
3978.76
3948.81
3918.35
3887.62
3856.86
3826.29
3796.1
3766.48
3737.6
3709.6
3682.61
3656.72
3632.02
3608.59
3586.48
3565.72
3546.34
3528.37
3511.8
3496.63
3482.86
3470.47
3459.44
3449.75
3441.38
3434.32
3428.54
3424.02
3420.76
3418.75
3417.96
3418.4
3420.04
3422.89
3426.96
3432.22
3438.65
3446.25
3454.99
3464.86
3475.85
3487.93
3501.08
3515.3
3530.57
3546.87
3564.2
3582.54
3601.9
3622.25
3643.58
3665.86
3689.07
3713.16
3738.07
3763.74
3790.07
3816.97
3844.31
3871.93
3900.18
3927.97
3955.61
3982.87
4009.53
4035.38
4060.18
4083.69
4105.69
4125.95
4144.23
4160.33
4174.05
4185.19
4193.6
4199.15
4201.73
4201.28
4197.71
4191.11
4181.5
4168.91
4153.49
4135.38
4114.77
4091.86
4066.92
4040.19
4011.96
3982.53
3952.19
3921.26
3890
3858.71
3827.65
3797.05
3767.13
3738.08
3710.06
3683.22
3657.65
3633.44
3610.67
3589.37
3569.58
3551.31
3534.55
3519.29
3505.49
3493.11
3482.1
3472.43
3464.04
3456.87
3450.83
3446.1
3443.13
3443.36
4088.15
4100.67
4110.43
4117.36
4121.4
4122.48
4120.53
4115.53
4107.6
4096.75
4083.06
4066.65
4047.66
4026.26
4002.65
3977.03
3949.69
3920.87
3890.87
3859.96
3828.41
3796.49
3764.45
3732.53
3700.96
3669.89
3639.35
3610.05
3581.86
3554.86
3529.16
3504.85
3482.01
3460.66
3440.85
3422.61
3405.92
3390.78
3377.17
3365.07
3354.44
3345.24
3337.44
3330.99
3325.86
3321.99
3319.34
3317.88
3317.57
3318.36
3320.22
3323.13
3327.04
3331.97
3337.89
3344.79
3352.68
3361.57
3371.46
3382.41
3394.41
3407.52
3421.76
3437.18
3453.8
3471.66
3490.78
3511.17
3532.85
3555.79
3579.98
3605.38
3631.9
3659.45
3687.91
3717.15
3746.99
3777.26
3807.68
3838.06
3868.11
3897.59
3926.21
3953.71
3979.79
4004.2
4026.67
4046.99
4064.92
4080.28
4092.9
4102.65
4109.43
4113.16
4113.81
4111.37
4105.86
4097.32
4085.89
4071.67
4054.82
4035.52
4013.96
3990.39
3965.02
3938.11
3909.92
3880.7
3850.72
3820.23
3789.48
3758.69
3728.09
3697.89
3668.25
3639.36
3611.35
3584.34
3558.44
3533.75
3510.31
3488.2
3467.44
3448.07
3430.09
3413.53
3398.37
3384.6
3372.21
3361.18
3351.5
3343.13
3336.07
3330.29
3325.78
3322.52
3320.51
3319.72
3320.16
3321.81
3324.66
3328.73
3333.99
3340.42
3348.02
3356.76
3366.63
3377.62
3389.7
3402.86
3417.08
3432.35
3448.65
3465.98
3484.32
3503.67
3524.02
3545.35
3567.64
3590.85
3614.94
3639.86
3665.53
3691.87
3718.78
3746.13
3773.78
3802.01
3829.84
3857.5
3884.78
3911.47
3937.34
3962.17
3985.72
4007.75
4028.03
4046.35
4062.48
4076.22
4087.38
4095.81
4101.38
4103.97
4103.52
4099.97
4093.35
4083.72
4071.12
4055.68
4037.55
4016.9
3993.97
3968.99
3942.23
3913.96
3884.49
3854.12
3823.15
3791.87
3760.55
3729.45
3698.83
3668.89
3639.83
3611.8
3584.94
3559.36
3535.15
3512.38
3491.08
3471.29
3453.02
3436.27
3421.01
3407.21
3394.84
3383.85
3374.18
3365.78
3358.62
3352.65
3347.97
3345.08
3345.21
3990.45
4003
4012.78
4019.74
4023.79
4024.88
4022.94
4017.93
4009.99
3999.12
3985.4
3968.96
3949.93
3928.49
3904.83
3879.17
3851.78
3822.91
3792.86
3761.9
3730.3
3698.34
3666.27
3634.31
3602.7
3571.61
3541.05
3511.73
3483.51
3456.5
3430.79
3406.48
3383.62
3362.28
3342.47
3324.22
3307.54
3292.41
3278.8
3266.71
3256.08
3246.9
3239.1
3232.67
3227.54
3223.68
3221.04
3219.59
3219.28
3220.07
3221.94
3224.85
3228.77
3233.71
3239.62
3246.53
3254.41
3263.29
3273.19
3284.12
3296.12
3309.22
3323.45
3338.86
3355.48
3373.33
3392.44
3412.83
3434.5
3457.44
3481.64
3507.05
3533.58
3561.14
3589.63
3618.89
3648.76
3679.06
3709.52
3739.94
3770.04
3799.57
3828.24
3855.78
3881.91
3906.36
3928.89
3949.24
3967.22
3982.61
3995.26
4005.04
4011.83
4015.57
4016.23
4013.78
4008.27
3999.7
3988.25
3974
3957.11
3937.77
3916.18
3892.55
3867.13
3840.17
3811.93
3782.67
3752.64
3722.1
3691.31
3660.48
3629.85
3599.61
3569.96
3541.04
3513.01
3485.99
3460.09
3435.38
3411.94
3389.83
3369.07
3349.7
3331.73
3315.17
3300.01
3286.25
3273.87
3262.85
3253.17
3244.81
3237.75
3231.98
3227.47
3224.21
3222.2
3221.41
3221.85
3223.5
3226.36
3230.43
3235.69
3242.12
3249.72
3258.47
3268.35
3279.34
3291.42
3304.58
3318.8
3334.07
3350.37
3367.7
3386.04
3405.39
3425.74
3447.07
3469.36
3492.57
3516.67
3541.59
3567.27
3593.62
3620.54
3647.91
3675.6
3703.81
3731.68
3759.38
3786.7
3813.43
3839.34
3864.21
3887.8
3909.88
3930.21
3948.57
3964.74
3978.52
3989.72
3998.18
4003.77
4006.38
4005.93
4002.39
3995.75
3986.11
3973.49
3958.02
3939.85
3919.16
3896.18
3871.15
3844.33
3816.01
3786.49
3756.07
3725.04
3693.71
3662.35
3631.21
3600.56
3570.59
3541.49
3513.45
3486.57
3460.98
3436.77
3413.99
3392.69
3372.9
3354.64
3337.89
3322.64
3308.86
3296.5
3285.52
3275.85
3267.46
3260.31
3254.3
3249.57
3246.48
3245.96
3892.89
3905.47
3915.29
3922.27
3926.35
3927.44
3925.52
3920.5
3912.54
3901.64
3887.89
3871.41
3852.33
3830.84
3807.12
3781.39
3753.93
3724.99
3694.88
3663.85
3632.2
3600.18
3568.05
3536.04
3504.39
3473.26
3442.68
3413.33
3385.09
3358.05
3332.33
3308.01
3285.15
3263.8
3243.99
3225.75
3209.07
3193.94
3180.35
3168.26
3157.65
3148.47
3140.69
3134.26
3129.14
3125.29
3122.67
3121.23
3120.93
3121.73
3123.61
3126.52
3130.45
3135.39
3141.3
3148.2
3156.08
3164.96
3174.85
3185.78
3197.77
3210.85
3225.08
3240.47
3257.08
3274.92
3294.02
3314.41
3336.08
3359.02
3383.22
3408.64
3435.18
3462.77
3491.28
3520.58
3550.48
3580.83
3611.34
3641.82
3671.98
3701.57
3730.3
3757.91
3784.1
3808.62
3831.2
3851.62
3869.64
3885.08
3897.77
3907.58
3914.4
3918.15
3918.81
3916.37
3910.84
3902.25
3890.77
3876.48
3859.54
3840.15
3818.49
3794.81
3769.32
3742.29
3713.98
3684.65
3654.56
3623.97
3593.11
3562.24
3531.56
3501.29
3471.59
3442.65
3414.6
3387.56
3361.65
3336.93
3313.49
3291.37
3270.62
3251.25
3233.28
3216.73
3201.58
3187.82
3175.45
3164.44
3154.76
3146.41
3139.36
3133.59
3129.08
3125.83
3123.82
3123.04
3123.48
3125.13
3127.99
3132.06
3137.32
3143.76
3151.36
3160.11
3170
3180.99
3193.08
3206.24
3220.46
3235.73
3252.03
3269.35
3287.7
3307.05
3327.4
3348.73
3371.01
3394.23
3418.33
3443.26
3468.95
3495.32
3522.26
3549.66
3577.38
3605.59
3633.51
3661.25
3688.62
3715.4
3741.37
3766.3
3789.95
3812.09
3832.48
3850.9
3867.13
3880.96
3892.21
3900.71
3906.33
3908.95
3908.52
3904.98
3898.33
3888.67
3876.01
3860.5
3842.28
3821.54
3798.5
3773.39
3746.51
3718.11
3688.52
3658.02
3626.93
3595.54
3564.11
3532.93
3502.22
3472.21
3443.09
3415.01
3388.12
3362.51
3338.29
3315.5
3294.2
3274.42
3256.16
3239.42
3224.18
3210.41
3198.07
3187.11
3177.46
3169.07
3161.93
3155.94
3151.23
3148.11
3147.09
3795.46
3808.09
3817.96
3824.97
3829.07
3830.18
3828.26
3823.23
3815.25
3804.32
3790.53
3773.99
3754.85
3733.29
3709.5
3683.69
3656.14
3627.13
3596.93
3565.82
3534.09
3502
3469.81
3437.74
3406.03
3374.85
3344.24
3314.85
3286.58
3259.52
3233.79
3209.45
3186.58
3165.22
3145.42
3127.18
3110.5
3095.39
3081.8
3069.73
3059.13
3049.97
3042.2
3035.78
3030.68
3026.84
3024.23
3022.8
3022.51
3023.33
3025.21
3028.14
3032.07
3037.01
3042.92
3049.82
3057.7
3066.58
3076.45
3087.37
3099.35
3112.42
3126.63
3142.01
3158.6
3176.43
3195.53
3215.9
3237.57
3260.51
3284.72
3310.15
3336.71
3364.33
3392.87
3422.21
3452.16
3482.57
3513.15
3543.69
3573.92
3603.59
3632.4
3660.09
3686.37
3710.97
3733.63
3754.11
3772.2
3787.69
3800.43
3810.28
3817.13
3820.91
3821.57
3819.12
3813.58
3804.96
3793.44
3779.1
3762.11
3742.64
3720.91
3697.15
3671.58
3644.47
3616.07
3586.66
3556.49
3525.82
3494.9
3463.96
3433.23
3402.9
3373.16
3344.19
3316.11
3289.05
3263.12
3238.39
3214.94
3192.82
3172.07
3152.71
3134.75
3118.2
3103.06
3089.31
3076.95
3065.94
3056.28
3047.93
3040.89
3035.13
3030.63
3027.38
3025.37
3024.59
3025.04
3026.69
3029.56
3033.63
3038.89
3045.33
3052.94
3061.7
3071.58
3082.58
3094.67
3107.83
3122.06
3137.33
3153.63
3170.95
3189.3
3208.65
3228.99
3250.32
3272.61
3295.83
3319.93
3344.87
3370.58
3396.96
3423.93
3451.36
3479.13
3507.34
3535.32
3563.11
3590.54
3617.39
3643.43
3668.43
3692.16
3714.37
3734.84
3753.34
3769.64
3783.53
3794.84
3803.39
3809.05
3811.7
3811.28
3807.74
3801.08
3791.39
3778.7
3763.13
3744.85
3724.04
3700.91
3675.73
3648.75
3620.27
3590.58
3560
3528.82
3497.34
3465.84
3434.59
3403.83
3373.77
3344.6
3316.49
3289.57
3263.95
3239.71
3216.92
3195.62
3175.83
3157.58
3140.85
3125.63
3111.88
3099.56
3088.61
3078.98
3070.62
3063.48
3057.47
3052.74
3049.53
3048.07
3698.16
3710.86
3720.78
3727.83
3731.96
3733.08
3731.16
3726.14
3718.12
3707.15
3693.31
3676.72
3657.5
3635.86
3611.98
3586.07
3558.42
3529.3
3499
3467.8
3435.98
3403.8
3371.53
3339.39
3307.62
3276.38
3245.73
3216.3
3187.99
3160.9
3135.15
3110.79
3087.91
3066.55
3046.75
3028.51
3011.85
2996.74
2983.17
2971.11
2960.53
2951.38
2943.63
2937.23
2932.14
2928.32
2925.72
2924.31
2924.04
2924.86
2926.76
2929.69
2933.64
2938.58
2944.49
2951.39
2959.26
2968.13
2978
2988.9
3000.86
3013.92
3028.11
3043.48
3060.05
3077.87
3096.95
3117.32
3138.98
3161.92
3186.14
3211.58
3238.17
3265.81
3294.4
3323.79
3353.8
3384.27
3414.93
3445.55
3475.88
3505.64
3534.55
3562.34
3588.71
3613.4
3636.15
3656.72
3674.89
3690.45
3703.25
3713.15
3720.03
3723.83
3724.51
3722.05
3716.49
3707.84
3696.27
3681.87
3664.8
3645.26
3623.44
3599.58
3573.91
3546.7
3518.2
3488.69
3458.42
3427.66
3396.66
3365.64
3334.84
3304.45
3274.67
3245.65
3217.54
3190.46
3164.5
3139.76
3116.31
3094.19
3073.43
3054.08
3036.13
3019.59
3004.46
2990.72
2978.37
2967.37
2957.72
2949.38
2942.35
2936.59
2932.1
2928.86
2926.86
2926.08
2926.53
2928.18
2931.05
2935.13
2940.39
2946.84
2954.45
2963.21
2973.11
2984.11
2996.2
3009.37
3023.6
3038.87
3055.17
3072.49
3090.83
3110.18
3130.52
3151.85
3174.14
3197.37
3221.48
3246.43
3272.15
3298.56
3325.55
3353.02
3380.84
3409.07
3437.11
3464.97
3492.47
3519.4
3545.52
3570.61
3594.43
3616.73
3637.29
3655.88
3672.27
3686.24
3697.62
3706.23
3711.93
3714.62
3714.21
3710.68
3704.01
3694.27
3681.53
3665.91
3647.55
3626.65
3603.43
3578.15
3551.06
3522.47
3492.67
3461.98
3430.7
3399.13
3367.54
3336.21
3305.37
3275.25
3246.04
3217.89
3190.94
3165.29
3141.04
3118.24
3096.93
3077.15
3058.91
3042.19
3026.99
3013.26
3000.97
2990.05
2980.44
2972.11
2964.96
2958.96
2954.2
2950.91
2949.05
3600.99
3613.77
3623.75
3630.85
3635.01
3636.15
3634.24
3629.21
3621.16
3610.15
3596.24
3579.58
3560.28
3538.54
3514.55
3488.53
3460.77
3431.52
3401.11
3369.79
3337.86
3305.59
3273.23
3241
3209.16
3177.85
3147.15
3117.67
3089.32
3062.2
3036.42
3012.04
2989.16
2967.79
2947.99
2929.76
2913.1
2898
2884.45
2872.4
2861.84
2852.71
2844.98
2838.6
2833.53
2829.73
2827.15
2825.75
2825.5
2826.34
2828.25
2831.19
2835.14
2840.09
2846
2852.9
2860.77
2869.63
2879.49
2890.37
2902.32
2915.36
2929.53
2944.87
2961.43
2979.22
2998.29
3018.65
3040.31
3063.25
3087.48
3112.94
3139.55
3167.23
3195.86
3225.31
3255.39
3285.95
3316.69
3347.41
3377.84
3407.71
3436.73
3464.64
3491.12
3515.93
3538.78
3559.45
3577.71
3593.36
3606.23
3616.18
3623.1
3626.93
3627.61
3625.15
3619.56
3610.88
3599.25
3584.78
3567.63
3547.99
3526.07
3502.1
3476.32
3448.98
3420.37
3390.74
3360.36
3329.5
3298.39
3267.29
3236.41
3205.95
3176.1
3147.04
3118.89
3091.77
3065.8
3041.05
3017.58
2995.46
2974.71
2955.36
2937.42
2920.89
2905.77
2892.05
2879.7
2868.73
2859.08
2850.76
2843.74
2837.99
2833.51
2830.27
2828.27
2827.5
2827.95
2829.61
2832.48
2836.56
2841.83
2848.28
2855.9
2864.67
2874.57
2885.58
2897.68
2910.85
2925.08
2940.35
2956.65
2973.97
2992.31
3011.65
3032
3053.32
3075.61
3098.84
3122.97
3147.93
3173.67
3200.1
3227.13
3254.64
3282.51
3310.77
3338.88
3366.82
3394.41
3421.43
3447.65
3472.83
3496.76
3519.17
3539.84
3558.53
3575.02
3589.09
3600.55
3609.23
3614.99
3617.71
3617.32
3613.78
3607.1
3597.33
3584.53
3568.83
3550.39
3529.39
3506.06
3480.65
3453.44
3424.72
3394.8
3363.98
3332.58
3300.89
3269.2
3237.78
3206.86
3176.67
3147.4
3119.2
3092.21
3066.54
3042.27
3019.46
2998.15
2978.38
2960.14
2943.44
2928.26
2914.56
2902.29
2891.4
2881.82
2873.52
2866.38
2860.36
2855.58
2852.21
2850.01
3503.97
3516.82
3526.87
3534.03
3538.23
3539.39
3537.49
3532.44
3524.36
3513.3
3499.32
3482.57
3463.18
3441.33
3417.22
3391.07
3363.17
3333.79
3303.24
3271.79
3239.74
3207.36
3174.89
3142.57
3110.64
3079.25
3048.5
3018.96
2990.56
2963.41
2937.6
2913.2
2890.3
2868.93
2849.13
2830.9
2814.25
2799.17
2785.64
2773.61
2763.07
2753.96
2746.25
2739.89
2734.85
2731.07
2728.51
2727.13
2726.89
2727.76
2729.68
2732.64
2736.6
2741.55
2747.46
2754.36
2762.22
2771.07
2780.91
2791.78
2803.71
2816.73
2830.87
2846.2
2862.73
2880.5
2899.56
2919.9
2941.55
2964.5
2988.74
3014.21
3040.85
3068.58
3097.26
3126.77
3156.93
3187.58
3218.43
3249.26
3279.81
3309.81
3338.96
3366.99
3393.61
3418.54
3441.52
3462.3
3480.67
3496.4
3509.35
3519.37
3526.34
3530.2
3530.9
3528.42
3522.81
3514.09
3502.39
3487.84
3470.6
3450.85
3428.81
3404.71
3378.79
3351.32
3322.57
3292.81
3262.3
3231.32
3200.1
3168.89
3137.92
3107.39
3077.47
3048.36
3020.16
2993.01
2967.01
2942.24
2918.77
2896.64
2875.9
2856.55
2838.62
2822.1
2807
2793.29
2780.96
2770
2760.37
2752.06
2745.05
2739.31
2734.84
2731.61
2729.62
2728.85
2729.3
2730.97
2733.84
2737.92
2743.2
2749.66
2757.29
2766.06
2775.97
2786.98
2799.09
2812.26
2826.5
2841.77
2858.07
2875.39
2893.73
2913.07
2933.41
2954.73
2977.03
3000.26
3024.39
3049.37
3075.13
3101.59
3128.66
3156.22
3184.15
3212.44
3240.63
3268.67
3296.35
3323.47
3349.8
3375.1
3399.15
3421.69
3442.48
3461.29
3477.89
3492.07
3503.63
3512.39
3518.21
3520.97
3520.61
3517.07
3510.36
3500.55
3487.69
3471.91
3453.36
3432.25
3408.79
3383.25
3355.89
3327.02
3296.95
3265.99
3234.45
3202.64
3170.83
3139.29
3108.28
3078.01
3048.67
3020.43
2993.4
2967.7
2943.4
2920.58
2899.27
2879.5
2861.28
2844.59
2829.43
2815.76
2803.53
2792.68
2783.14
2774.86
2767.72
2761.69
2756.9
2753.45
2750.97
3407.07
3420.03
3430.15
3437.37
3441.62
3442.81
3440.91
3435.85
3427.73
3416.6
3402.56
3385.71
3366.21
3344.24
3319.99
3293.69
3265.64
3236.1
3205.4
3173.81
3141.62
3109.11
3076.53
3044.1
3012.08
2980.58
2949.78
2920.17
2891.72
2864.53
2838.68
2814.27
2791.35
2769.97
2750.17
2731.95
2715.32
2700.25
2686.74
2674.73
2664.21
2655.13
2647.44
2641.11
2636.09
2632.34
2629.8
2628.45
2628.23
2629.11
2631.05
2634.02
2638
2642.95
2648.87
2655.76
2663.62
2672.45
2682.28
2693.13
2705.04
2718.03
2732.15
2747.44
2763.95
2781.7
2800.74
2821.07
2842.71
2865.66
2889.91
2915.41
2942.08
2969.85
2998.6
3028.18
3058.43
3089.19
3120.14
3151.1
3181.79
3211.93
3241.23
3269.4
3296.17
3321.24
3344.36
3365.27
3383.75
3399.6
3412.63
3422.72
3429.75
3433.64
3434.35
3431.87
3426.23
3417.46
3405.69
3391.05
3373.7
3353.83
3331.65
3307.41
3281.34
3253.72
3224.81
3194.9
3164.25
3133.12
3101.78
3070.46
3039.39
3008.76
2978.77
2949.59
2921.35
2894.16
2868.13
2843.34
2819.86
2797.74
2776.99
2757.65
2739.73
2723.23
2708.14
2694.45
2682.14
2671.2
2661.58
2653.29
2646.29
2640.56
2636.1
2632.88
2630.89
2630.13
2630.59
2632.26
2635.14
2639.22
2644.51
2650.97
2658.6
2667.39
2677.3
2688.32
2700.44
2713.62
2727.86
2743.13
2759.43
2776.75
2795.08
2814.42
2834.76
2856.08
2878.37
2901.61
2925.76
2950.75
2976.54
3003.03
3030.14
3057.75
3085.75
3114.08
3142.37
3170.5
3198.29
3225.53
3251.98
3277.42
3301.6
3324.28
3345.21
3364.16
3380.89
3395.19
3406.85
3415.7
3421.59
3424.41
3424.07
3420.53
3413.8
3403.94
3391
3375.13
3356.47
3335.23
3311.63
3285.93
3258.41
3229.38
3199.14
3168.02
3136.32
3104.36
3072.41
3040.76
3009.65
2979.29
2949.87
2921.57
2894.49
2868.76
2844.44
2821.61
2800.3
2780.53
2762.32
2745.65
2730.52
2716.88
2704.69
2693.88
2684.39
2676.13
2669
2662.95
2658.14
2654.62
2651.9
3310.31
3323.37
3333.59
3340.88
3345.17
3346.39
3344.5
3339.42
3331.26
3320.07
3305.94
3288.99
3269.36
3247.25
3222.85
3196.39
3168.17
3138.46
3107.59
3075.83
3043.49
3010.84
2978.13
2945.59
2913.45
2881.85
2850.98
2821.31
2792.8
2765.56
2739.68
2715.24
2692.31
2670.92
2651.12
2632.91
2616.29
2601.24
2587.74
2575.77
2565.27
2556.22
2548.56
2542.26
2537.26
2533.53
2531.03
2529.7
2529.5
2530.4
2532.37
2535.35
2539.34
2544.3
2550.22
2557.11
2564.96
2573.78
2583.59
2594.42
2606.3
2619.26
2633.36
2648.62
2665.1
2682.83
2701.84
2722.16
2743.79
2766.74
2791
2816.52
2843.23
2871.05
2899.86
2929.53
2959.88
2990.75
3021.84
3052.94
3083.77
3114.07
3143.53
3171.87
3198.8
3224.04
3247.31
3268.36
3286.97
3302.94
3316.07
3326.24
3333.33
3337.26
3337.98
3335.5
3329.82
3320.99
3309.14
3294.4
3276.93
3256.92
3234.6
3210.19
3183.96
3156.16
3127.09
3097.01
3066.19
3034.92
3003.44
2971.99
2940.8
2910.07
2880
2850.76
2822.45
2795.22
2769.16
2744.36
2720.87
2698.74
2678
2658.67
2640.76
2624.27
2609.2
2595.53
2583.24
2572.31
2562.72
2554.44
2547.46
2541.74
2537.29
2534.08
2532.1
2531.34
2531.81
2533.48
2536.36
2540.45
2545.74
2552.22
2559.86
2568.65
2578.57
2589.61
2601.73
2614.92
2629.16
2644.43
2660.74
2678.05
2696.38
2715.71
2736.04
2757.36
2779.66
2802.91
2827.06
2852.08
2877.89
2904.42
2931.57
2959.24
2987.31
3015.7
3044.08
3072.32
3100.23
3127.6
3154.19
3179.78
3204.11
3226.94
3248.03
3267.13
3284.01
3298.44
3310.23
3319.18
3325.15
3328.02
3327.7
3324.17
3317.41
3307.49
3294.48
3278.5
3259.72
3238.33
3214.57
3188.69
3161
3131.78
3101.36
3070.05
3038.19
3006.06
2973.97
2942.18
2910.95
2880.49
2850.99
2822.62
2795.49
2769.72
2745.38
2722.54
2701.22
2681.46
2663.26
2646.62
2631.51
2617.92
2605.77
2595.01
2585.57
2577.34
2570.23
2564.14
2559.32
2555.72
2552.83
3213.69
3226.87
3237.18
3244.55
3248.9
3250.14
3248.26
3243.16
3234.96
3223.7
3209.47
3192.4
3172.65
3150.39
3125.82
3099.17
3070.76
3040.86
3009.8
2977.86
2945.36
2912.55
2879.7
2847.03
2814.77
2783.05
2752.12
2722.36
2693.79
2666.5
2640.58
2616.11
2593.16
2571.77
2551.97
2533.77
2517.16
2502.14
2488.66
2476.71
2466.25
2457.22
2449.6
2443.32
2438.36
2434.66
2432.18
2430.88
2430.71
2431.64
2433.62
2436.63
2440.62
2445.59
2451.51
2458.4
2466.24
2475.05
2484.84
2495.65
2507.5
2520.43
2534.49
2549.72
2566.17
2583.87
2602.86
2623.16
2644.78
2667.73
2692
2717.55
2744.3
2772.18
2801.07
2830.82
2861.28
2892.28
2923.51
2954.76
2985.76
3016.23
3045.87
3074.4
3101.51
3126.92
3150.36
3171.57
3190.33
3206.42
3219.67
3229.93
3237.08
3241.05
3241.79
3239.3
3233.59
3224.7
3212.75
3197.9
3180.3
3160.14
3137.65
3113.07
3086.65
3058.66
3029.4
2999.13
2968.14
2936.7
2905.06
2873.48
2842.16
2811.33
2781.16
2751.84
2723.48
2696.2
2670.11
2645.28
2621.78
2599.64
2578.91
2559.59
2541.69
2525.23
2510.18
2496.53
2484.26
2473.35
2463.78
2455.52
2448.55
2442.85
2438.41
2435.21
2433.24
2432.49
2432.95
2434.63
2437.52
2441.62
2446.92
2453.4
2461.05
2469.85
2479.78
2490.83
2502.96
2516.15
2530.4
2545.68
2561.98
2579.29
2597.61
2616.94
2637.27
2658.59
2680.88
2704.14
2728.3
2753.34
2779.18
2805.75
2832.95
2860.68
2888.82
2917.29
2945.78
2974.14
3002.18
3029.69
3056.43
3082.18
3106.68
3129.68
3150.94
3170.21
3187.25
3201.84
3213.75
3222.82
3228.87
3231.8
3231.52
3227.99
3221.2
3211.22
3198.12
3182.02
3163.1
3141.55
3117.61
3091.55
3063.65
3034.23
3003.61
2972.1
2940.04
2907.74
2875.48
2843.54
2812.18
2781.61
2752.02
2723.58
2696.4
2670.59
2646.22
2623.36
2602.04
2582.29
2564.1
2547.49
2532.42
2518.86
2506.76
2496.05
2486.67
2478.48
2471.37
2465.28
2460.43
2456.75
2453.74
3117.2
3130.51
3140.93
3148.38
3152.79
3154.07
3152.19
3147.08
3138.82
3127.48
3113.15
3095.96
3076.06
3053.63
3028.88
3002.03
2973.42
2943.31
2912.04
2879.9
2847.22
2814.24
2781.24
2748.43
2716.04
2684.2
2653.17
2623.34
2594.7
2567.35
2541.39
2516.89
2493.92
2472.52
2452.72
2434.53
2417.94
2402.94
2389.49
2377.57
2367.14
2358.15
2350.55
2344.31
2339.38
2335.72
2333.27
2332
2331.86
2332.81
2334.82
2337.85
2341.86
2346.83
2352.76
2359.65
2367.47
2376.27
2386.04
2396.82
2408.64
2421.54
2435.56
2450.76
2467.17
2484.83
2503.8
2524.08
2545.69
2568.64
2592.93
2618.5
2645.29
2673.24
2702.2
2732.06
2762.63
2793.77
2825.15
2856.57
2887.75
2918.42
2948.26
2976.98
3004.29
3029.89
3053.52
3074.9
3093.82
3110.05
3123.42
3133.78
3141.01
3145.02
3145.78
3143.28
3137.53
3128.56
3116.53
3101.55
3083.81
3063.49
3040.81
3016.03
2989.41
2961.22
2931.74
2901.28
2870.09
2838.47
2806.66
2774.92
2743.47
2712.51
2682.25
2652.85
2624.42
2597.09
2570.96
2546.11
2522.6
2500.46
2479.73
2460.42
2442.54
2426.1
2411.07
2397.44
2385.2
2374.32
2364.76
2356.52
2349.57
2343.89
2339.46
2336.27
2334.31
2333.56
2334.03
2335.72
2338.61
2342.71
2348.02
2354.51
2362.17
2370.99
2380.93
2391.99
2404.13
2417.33
2431.58
2446.86
2463.16
2480.47
2498.79
2518.11
2538.43
2559.75
2582.05
2605.3
2629.48
2654.54
2680.41
2707.02
2734.28
2762.08
2790.29
2818.85
2847.45
2875.94
2904.12
2931.79
2958.7
2984.63
3009.31
3032.5
3053.95
3073.4
3090.62
3105.37
3117.43
3126.62
3132.77
3135.77
3135.52
3131.98
3125.17
3115.12
3101.92
3085.7
3066.62
3044.9
3020.76
2994.49
2966.38
2936.73
2905.88
2874.16
2841.89
2809.39
2776.95
2744.85
2713.35
2682.66
2652.97
2624.45
2597.22
2571.36
2546.97
2524.09
2502.76
2483.02
2464.85
2448.26
2433.22
2419.71
2407.67
2397.02
2387.7
2379.56
2372.43
2366.36
2361.49
2357.73
2354.63
3020.85
3034.29
3044.83
3052.38
3056.86
3058.18
3056.3
3051.16
3042.85
3031.43
3016.99
2999.66
2979.59
2956.99
2932.04
2904.98
2876.13
2845.79
2814.3
2781.95
2749.07
2715.91
2682.74
2649.77
2617.24
2585.27
2554.16
2524.23
2495.52
2468.11
2442.1
2417.57
2394.59
2373.18
2353.38
2335.2
2318.63
2303.65
2290.23
2278.35
2267.94
2258.99
2251.43
2245.23
2240.34
2236.71
2234.29
2233.05
2232.95
2233.93
2235.96
2239.01
2243.03
2248.02
2253.95
2260.83
2268.65
2277.43
2287.17
2297.93
2309.71
2322.57
2336.56
2351.71
2368.09
2385.72
2404.65
2424.91
2446.51
2469.46
2493.76
2519.36
2546.21
2574.21
2603.26
2633.23
2663.92
2695.22
2726.77
2758.38
2789.75
2820.62
2850.68
2879.62
2907.14
2932.96
2956.78
2978.36
2997.45
3013.83
3027.33
3037.79
3045.1
3049.17
3049.95
3047.43
3041.64
3032.6
3020.46
3005.35
2987.45
2966.95
2944.08
2919.08
2892.24
2863.82
2834.13
2803.44
2772.04
2740.22
2708.23
2676.32
2644.72
2613.64
2583.26
2553.77
2525.27
2497.89
2471.72
2446.85
2423.32
2401.19
2380.46
2361.17
2343.3
2326.88
2311.87
2298.27
2286.06
2275.2
2265.67
2257.45
2250.52
2244.86
2240.44
2237.26
2235.31
2234.57
2235.05
2236.73
2239.64
2243.75
2249.06
2255.56
2263.23
2272.06
2282.02
2293.08
2305.23
2318.45
2332.7
2347.99
2364.29
2381.59
2399.9
2419.21
2439.53
2460.84
2483.14
2506.41
2530.6
2555.68
2581.59
2608.24
2635.55
2663.42
2691.73
2720.38
2749.1
2777.72
2806.06
2833.9
2861
2887.11
2912
2935.39
2957.04
2976.7
2994.11
3009.03
3021.26
3030.58
3036.84
3039.91
3039.69
3036.16
3029.31
3019.19
3005.88
2989.53
2970.28
2948.37
2924.02
2897.52
2869.17
2839.28
2808.19
2776.23
2743.73
2711.02
2678.38
2646.11
2614.45
2583.63
2553.84
2525.24
2497.93
2472.03
2447.61
2424.71
2403.39
2383.64
2365.5
2348.93
2333.94
2320.47
2308.49
2297.91
2288.66
2280.59
2273.43
2267.36
2262.47
2258.65
2255.5
2924.64
2938.23
2948.9
2956.55
2961.1
2962.45
2960.59
2955.43
2947.06
2935.54
2920.98
2903.5
2883.26
2860.46
2835.29
2808
2778.91
2748.32
2716.59
2684.01
2650.91
2617.55
2584.2
2551.07
2518.39
2486.29
2455.06
2425.04
2396.25
2368.77
2342.72
2318.16
2295.15
2273.73
2253.94
2235.77
2219.22
2204.27
2190.88
2179.03
2168.67
2159.75
2152.23
2146.07
2141.22
2137.62
2135.25
2134.04
2133.97
2134.98
2137.04
2140.11
2144.16
2149.16
2155.09
2161.97
2169.77
2178.53
2188.25
2198.97
2210.72
2223.54
2237.48
2252.6
2268.93
2286.52
2305.42
2325.66
2347.25
2370.2
2394.51
2420.14
2447.04
2475.11
2504.26
2534.33
2565.17
2596.64
2628.36
2660.17
2691.76
2722.85
2753.14
2782.31
2810.07
2836.11
2860.15
2881.93
2901.21
2917.76
2931.4
2941.98
2949.38
2953.5
2954.3
2951.77
2945.93
2936.81
2924.56
2909.3
2891.23
2870.53
2847.45
2822.23
2795.14
2766.48
2736.54
2705.61
2673.99
2641.95
2609.77
2577.68
2545.92
2514.69
2484.19
2454.62
2426.04
2398.6
2372.39
2347.49
2323.95
2301.82
2281.1
2261.82
2243.98
2227.57
2212.59
2199.02
2186.83
2176
2166.5
2158.31
2151.4
2145.75
2141.35
2138.18
2136.24
2135.51
2135.99
2137.68
2140.59
2144.71
2150.03
2156.54
2164.23
2173.07
2183.04
2194.12
2206.28
2219.5
2233.77
2249.05
2265.35
2282.65
2300.96
2320.26
2340.57
2361.88
2384.18
2407.45
2431.66
2456.76
2482.7
2509.4
2536.78
2564.72
2593.12
2621.87
2650.72
2679.5
2708
2736.02
2763.32
2789.64
2814.74
2838.35
2860.23
2880.1
2897.72
2912.84
2925.24
2934.71
2941.08
2944.23
2944.05
2940.52
2933.63
2923.43
2910.01
2893.51
2874.09
2851.96
2827.39
2800.64
2772.03
2741.88
2710.52
2678.31
2645.56
2612.61
2579.77
2547.31
2515.49
2484.53
2454.62
2425.93
2398.56
2372.61
2348.15
2325.24
2303.91
2284.17
2266.04
2249.51
2234.55
2221.14
2209.22
2198.71
2189.55
2181.55
2174.37
2168.31
2163.39
2159.51
2156.33
2828.56
2842.32
2853.12
2860.88
2865.51
2866.91
2865.05
2859.86
2851.43
2839.82
2825.12
2807.48
2787.06
2764.05
2738.65
2711.11
2681.75
2650.89
2618.89
2586.07
2552.74
2519.17
2485.63
2452.33
2419.48
2387.22
2355.89
2325.76
2296.89
2269.35
2243.24
2218.64
2195.62
2174.19
2154.4
2136.25
2119.72
2104.79
2091.44
2079.63
2069.3
2060.43
2052.95
2046.84
2042.02
2038.47
2036.14
2034.97
2034.93
2035.98
2038.07
2041.16
2045.23
2050.24
2056.17
2063.05
2070.84
2079.58
2089.27
2099.96
2111.67
2124.45
2138.34
2153.41
2169.69
2187.25
2206.11
2226.32
2247.9
2270.84
2295.17
2320.84
2347.78
2375.94
2405.18
2435.38
2466.36
2498.01
2529.93
2561.94
2593.76
2625.1
2655.63
2685.06
2713.07
2739.35
2763.63
2785.63
2805.11
2821.84
2835.63
2846.34
2853.83
2858.01
2858.83
2856.29
2850.4
2841.19
2828.81
2813.41
2795.15
2774.25
2750.93
2725.46
2698.12
2669.19
2638.99
2607.81
2575.94
2543.67
2511.27
2478.99
2447.05
2415.68
2385.05
2355.39
2326.72
2299.22
2272.97
2248.04
2224.49
2202.35
2181.64
2162.38
2144.56
2128.18
2113.23
2099.69
2087.53
2076.73
2067.26
2059.09
2052.2
2046.57
2042.19
2039.04
2037.1
2036.38
2036.87
2038.56
2041.48
2045.6
2050.94
2057.46
2065.16
2074.01
2084
2095.09
2107.27
2120.5
2134.77
2150.06
2166.36
2183.65
2201.95
2221.24
2241.54
2262.84
2285.14
2308.42
2332.65
2357.78
2383.75
2410.51
2437.94
2465.97
2494.47
2523.33
2552.32
2581.25
2609.94
2638.16
2665.66
2692.21
2717.54
2741.39
2763.5
2783.61
2801.46
2816.79
2829.37
2839
2845.5
2848.73
2848.6
2845.07
2838.13
2827.85
2814.31
2797.64
2778.03
2755.68
2730.86
2703.85
2674.96
2644.52
2612.89
2580.39
2547.38
2514.19
2481.11
2448.45
2416.45
2385.34
2355.31
2326.52
2299.08
2273.08
2248.59
2225.66
2204.32
2184.6
2166.49
2149.99
2135.07
2121.72
2109.87
2099.44
2090.36
2082.45
2075.26
2069.2
2064.23
2060.32
2057.12
2732.62
2746.55
2757.5
2765.38
2770.09
2771.54
2769.69
2764.47
2755.97
2744.25
2729.42
2711.61
2690.99
2667.76
2642.11
2614.3
2584.65
2553.5
2521.22
2488.13
2454.56
2420.77
2387.02
2353.53
2320.52
2288.09
2256.64
2226.4
2197.44
2169.83
2143.67
2119.03
2095.98
2074.55
2054.76
2036.62
2020.12
2005.23
1991.91
1980.14
1969.86
1961.03
1953.6
1947.52
1942.76
1939.25
1936.96
1935.83
1935.83
1936.92
1939.04
1942.16
1946.24
1951.27
1957.2
1964.07
1971.86
1980.58
1990.24
2000.89
2012.55
2025.28
2039.13
2054.14
2070.38
2087.89
2106.72
2126.9
2148.46
2171.4
2195.75
2221.45
2248.45
2276.68
2306.03
2336.36
2367.49
2399.34
2431.46
2463.71
2495.77
2527.37
2558.17
2587.87
2616.14
2642.69
2667.22
2689.45
2709.14
2726.07
2740.03
2750.86
2758.45
2762.7
2763.55
2760.99