/*--------------------------------*- C++ -*----------------------------------*\
| =========                 |                                                 |
| \\      /  F ield         | OpenFOAM: The Open Source CFD Toolbox           |
|  \\    /   O peration     | Version:  3.0.1                                 |
|   \\  /    A nd           | Web:      www.OpenFOAM.org                      |
|    \\/     M anipulation  |                                                 |
\*---------------------------------------------------------------------------*/
FoamFile
{
    version     2.0;
    format      ascii;
    class       surfaceScalarField;
    location    "6.2";
    object      alphaPhi;
}
// * * * * * * * * * * * * * * * * * * * * * * * * * * * * * * * * * * * * * //

dimensions      [0 3 -1 0 0 0 0];

internalField   nonuniform List<scalar> 
42423
(
-3.39033e-05
1.50063e-05
-4.80083e-05
1.41049e-05
-6.13537e-05
1.33454e-05
-7.38927e-05
1.2539e-05
-8.55794e-05
1.16867e-05
-9.64694e-05
1.089e-05
-0.000106508
1.00384e-05
-0.000115762
9.2544e-06
-0.000124246
8.48336e-06
-0.000131939
7.69302e-06
-0.00013886
6.92148e-06
-0.000144999
6.13921e-06
-0.000150393
5.39328e-06
-0.000155026
4.63341e-06
-0.000158852
3.82574e-06
-0.000161887
3.0357e-06
-0.000164163
2.27541e-06
-0.000165681
1.51776e-06
-0.000166427
7.46367e-07
-0.000166241
-1.86006e-07
-0.000165101
-1.14023e-06
-0.000163053
-2.04809e-06
-0.000160073
-2.97955e-06
-0.000156073
-4.00023e-06
-0.000151095
-4.97838e-06
-0.000145059
-6.03551e-06
-0.000138069
-6.98997e-06
-0.000130127
-7.94201e-06
-0.000121159
-8.96776e-06
-0.000111328
-9.83165e-06
-0.000100697
-1.06304e-05
-8.9238e-05
-1.14595e-05
-7.7164e-05
-1.20741e-05
-6.44733e-05
-1.26908e-05
-5.1338e-05
-1.31354e-05
-3.79358e-05
-1.34023e-05
-2.42905e-05
-1.36454e-05
-1.05113e-05
-1.37793e-05
3.19095e-06
-1.37023e-05
1.67893e-05
-1.35985e-05
3.01737e-05
-1.33844e-05
4.32212e-05
-1.30476e-05
5.5906e-05
-1.26849e-05
6.81029e-05
-1.2197e-05
7.97208e-05
-1.1618e-05
9.07608e-05
-1.10401e-05
0.000101109
-1.03485e-05
0.000110684
-9.57483e-06
0.000119489
-8.80491e-06
0.000127422
-7.933e-06
0.000134403
-6.98178e-06
0.000140397
-5.99358e-06
0.000145375
-4.97852e-06
0.000149236
-3.86109e-06
0.000151892
-2.6564e-06
0.000153343
-1.45058e-06
0.000153564
-2.20978e-07
0.000152456
1.10779e-06
0.000150084
2.37159e-06
0.000146452
3.63187e-06
0.000141631
4.8208e-06
0.000135602
6.02981e-06
0.000128436
7.16588e-06
0.000120263
8.17284e-06
0.000111091
9.17212e-06
0.000101127
9.96375e-06
9.04968e-05
1.063e-05
7.93461e-05
1.11507e-05
6.77913e-05
1.15548e-05
5.60115e-05
1.17798e-05
4.41348e-05
1.18767e-05
3.23442e-05
1.17906e-05
2.07636e-05
1.15806e-05
9.5174e-06
1.12462e-05
-1.28447e-06
1.08019e-05
-1.15527e-05
1.02682e-05
-2.11814e-05
9.62871e-06
-3.01594e-05
8.97799e-06
-3.84093e-05
8.24992e-06
-4.5882e-05
7.47273e-06
-5.25894e-05
6.70739e-06
-5.85134e-05
5.92393e-06
-6.36437e-05
5.13031e-06
-6.79755e-05
4.33179e-06
-7.15051e-05
3.52966e-06
-7.42473e-05
2.74215e-06
-7.62192e-05
1.97197e-06
-7.74501e-05
1.23087e-06
-7.79954e-05
5.4523e-07
-7.78535e-05
-1.41846e-07
-7.70368e-05
-8.16754e-07
-7.56408e-05
-1.39601e-06
-7.37051e-05
-1.93567e-06
-7.12541e-05
-2.45102e-06
-6.83e-05
-2.95411e-06
-6.49103e-05
-3.38969e-06
-6.11174e-05
-3.79286e-06
-5.69605e-05
-4.15695e-06
-5.24768e-05
-4.4837e-06
-4.77046e-05
-4.77217e-06
-4.26865e-05
-5.0181e-06
-3.74486e-05
-5.23792e-06
-3.20325e-05
-5.41609e-06
-2.6525e-05
-5.50756e-06
-2.09278e-05
-5.59724e-06
-1.52946e-05
-5.63315e-06
-9.67258e-06
-5.62205e-06
-4.11563e-06
-5.55696e-06
1.34177e-06
-5.4574e-06
6.66892e-06
-5.32716e-06
1.17767e-05
-5.1078e-06
1.66677e-05
-4.89097e-06
2.13148e-05
-4.64714e-06
2.56778e-05
-4.36299e-06
2.97332e-05
-4.05539e-06
3.34731e-05
-3.7399e-06
3.68615e-05
-3.38848e-06
3.98998e-05
-3.03825e-06
4.25654e-05
-2.66564e-06
4.48578e-05
-2.29242e-06
4.67862e-05
-1.92839e-06
4.83541e-05
-1.56794e-06
4.95446e-05
-1.19045e-06
5.03734e-05
-8.28812e-07
5.08672e-05
-4.93834e-07
5.10348e-05
-1.67607e-07
5.08776e-05
1.57203e-07
5.04167e-05
4.60917e-07
4.9697e-05
7.19672e-07
4.87041e-05
9.92901e-07
4.74742e-05
1.22986e-06
4.60421e-05
1.43209e-06
4.44209e-05
1.62125e-06
4.26353e-05
1.78559e-06
4.07134e-05
1.92192e-06
3.86863e-05
2.02703e-06
3.65703e-05
2.11602e-06
3.43931e-05
2.17718e-06
3.21745e-05
2.21862e-06
2.99354e-05
2.23908e-06
2.77088e-05
2.22668e-06
2.5497e-05
2.21179e-06
2.33283e-05
2.16863e-06
2.12124e-05
2.1159e-06
1.91537e-05
2.05874e-06
1.71778e-05
1.97591e-06
1.52724e-05
1.90539e-06
1.34642e-05
1.80818e-06
1.17497e-05
1.71451e-06
1.01392e-05
1.61046e-06
8.62944e-06
1.5098e-06
7.2315e-06
1.39795e-06
5.93896e-06
1.29253e-06
4.74691e-06
1.19206e-06
3.66396e-06
1.08295e-06
2.67995e-06
9.84005e-07
1.79442e-06
8.85531e-07
1.00613e-06
7.88289e-07
3.09771e-07
6.96359e-07
-3.03674e-07
6.13445e-07
-8.34263e-07
5.30588e-07
-1.28774e-06
4.5348e-07
-1.66984e-06
3.82092e-07
-1.98603e-06
3.16196e-07
-2.24081e-06
2.54781e-07
-2.43771e-06
1.969e-07
-2.58271e-06
1.44999e-07
-2.68046e-06
9.77516e-08
-2.73659e-06
5.61225e-08
-2.75589e-06
1.93083e-08
-2.74082e-06
-1.50712e-08
-2.69612e-06
-4.4705e-08
-2.62723e-06
-6.8887e-08
-2.5358e-06
-9.14289e-08
-2.42598e-06
-1.09819e-07
-2.30211e-06
-1.23874e-07
-2.16505e-06
-1.37064e-07
-2.01886e-06
-1.46184e-07
-1.8666e-06
-1.52263e-07
-1.70906e-06
-1.57543e-07
-1.54919e-06
-1.59865e-07
-1.38839e-06
-1.60806e-07
-1.22871e-06
-1.59679e-07
-1.07153e-06
-1.57175e-07
-9.18165e-07
-1.53367e-07
-7.68005e-07
-1.5016e-07
-6.24553e-07
-1.43453e-07
-4.87193e-07
-1.3736e-07
-3.56893e-07
-1.303e-07
-2.33694e-07
-1.23199e-07
-1.16937e-07
-1.16758e-07
-8.03321e-09
-1.08903e-07
9.30857e-08
-1.01119e-07
1.86247e-07
-9.31617e-08
2.71695e-07
-8.54477e-08
3.49461e-07
-7.77657e-08
4.19714e-07
-7.02533e-08
4.82663e-07
-6.29489e-08
5.38671e-07
-5.60076e-08
5.87933e-07
-4.92623e-08
6.30817e-07
-4.28843e-08
6.6769e-07
-3.68731e-08
6.98784e-07
-3.10937e-08
7.24525e-07
-2.57405e-08
7.45213e-07
-2.06882e-08
7.61191e-07
-1.59781e-08
7.72799e-07
-1.16079e-08
7.80392e-07
-7.59271e-09
7.84334e-07
-3.94263e-09
7.84791e-07
-4.56482e-10
7.82158e-07
2.63312e-09
7.76727e-07
5.43071e-09
7.68771e-07
7.95629e-09
7.58548e-07
1.02229e-08
7.46305e-07
1.22423e-08
7.3228e-07
1.40258e-08
7.16695e-07
1.55847e-08
6.99764e-07
1.69305e-08
6.81689e-07
1.80756e-08
6.62657e-07
1.9032e-08
6.42844e-07
1.98126e-08
6.22414e-07
2.04299e-08
6.01518e-07
2.08964e-08
5.80294e-07
2.12242e-08
5.58869e-07
2.14252e-08
5.37358e-07
2.15107e-08
5.15866e-07
2.14918e-08
4.94487e-07
2.13788e-08
4.73305e-07
2.11819e-08
4.52395e-07
2.09102e-08
4.31822e-07
2.0573e-08
4.11644e-07
2.01783e-08
3.9191e-07
1.97344e-08
3.72661e-07
1.92482e-08
3.53935e-07
1.87267e-08
3.35759e-07
1.81762e-08
3.18156e-07
1.76025e-08
3.01145e-07
1.70108e-08
2.84739e-07
1.64061e-08
2.68947e-07
1.57927e-08
2.53772e-07
1.51747e-08
2.39216e-07
1.45556e-08
2.25278e-07
1.39387e-08
2.11951e-07
1.33266e-08
1.99229e-07
1.27221e-08
1.87102e-07
1.21271e-08
1.75558e-07
1.15437e-08
1.64585e-07
1.09733e-08
1.54167e-07
1.04176e-08
1.4429e-07
9.87732e-09
1.34936e-07
9.35365e-09
1.26089e-07
8.84719e-09
1.17731e-07
8.35855e-09
1.09842e-07
7.88804e-09
1.02406e-07
7.43598e-09
9.54041e-08
7.00241e-09
8.88167e-08
6.5874e-09
8.26259e-08
6.19077e-09
7.68135e-08
5.81241e-09
7.13615e-08
5.45199e-09
6.62523e-08
5.10922e-09
6.14686e-08
4.78367e-09
5.69936e-08
4.47497e-09
5.28111e-08
4.18257e-09
4.8905e-08
3.90603e-09
4.52603e-08
3.64477e-09
4.1862e-08
3.39828e-09
3.8696e-08
3.16597e-09
3.57487e-08
2.9473e-09
3.3007e-08
2.74166e-09
3.04585e-08
2.54851e-09
2.80913e-08
2.36725e-09
2.58939e-08
2.19735e-09
2.38557e-08
2.03822e-09
2.19663e-08
1.88935e-09
2.02162e-08
1.75018e-09
1.8596e-08
1.62021e-09
1.7097e-08
1.49893e-09
1.57111e-08
1.38587e-09
1.44306e-08
1.28055e-09
1.32481e-08
1.18252e-09
1.21567e-08
1.09134e-09
1.11501e-08
1.00661e-09
1.02222e-08
9.2793e-10
9.36728e-09
8.54922e-10
8.58006e-09
7.87224e-10
7.85556e-09
7.24497e-10
7.18915e-09
6.66414e-10
6.57648e-09
6.1267e-10
6.01351e-09
5.62969e-10
5.49647e-09
5.17041e-10
5.02184e-09
4.74624e-10
4.58636e-09
4.35476e-10
4.187e-09
3.99366e-10
3.82092e-09
3.66078e-10
3.48551e-09
3.35408e-10
3.17835e-09
3.07167e-10
2.89717e-09
2.81176e-10
2.6399e-09
2.57271e-10
2.4046e-09
2.35295e-10
2.1895e-09
2.15105e-10
1.99293e-09
1.96564e-10
1.81339e-09
1.79547e-10
1.64945e-09
1.63935e-10
1.49983e-09
1.4962e-10
1.36333e-09
1.36499e-10
1.23885e-09
1.24479e-10
1.12538e-09
1.13474e-10
1.02198e-09
1.03403e-10
9.27786e-10
9.4191e-11
8.42018e-10
8.57679e-11
7.63949e-10
7.80689e-11
6.92915e-10
7.10344e-11
6.28305e-10
6.46096e-11
5.69561e-10
5.87446e-11
5.16168e-10
5.3393e-11
4.67656e-10
4.85123e-11
4.23592e-10
4.40633e-11
3.83582e-10
4.00098e-11
3.47264e-10
3.63181e-11
3.14307e-10
3.29574e-11
2.84408e-10
2.98987e-11
2.57292e-10
2.71158e-11
2.32708e-10
2.45846e-11
2.10425e-10
2.22831e-11
1.90233e-10
2.01915e-11
1.71942e-10
1.82915e-11
1.55375e-10
1.65661e-11
1.40376e-10
1.49998e-11
1.26797e-10
1.35783e-11
1.14509e-10
1.22884e-11
1.03391e-10
1.11182e-11
9.33338e-11
1.0057e-11
8.42385e-11
9.09524e-12
7.60146e-11
8.22388e-12
6.85799e-11
7.43474e-12
6.18596e-11
6.72027e-12
5.57861e-11
6.07349e-12
5.0298e-11
5.48807e-12
4.53398e-11
4.95827e-12
4.08608e-11
4.47896e-12
3.68153e-11
4.0455e-12
3.31616e-11
3.65367e-12
2.9862e-11
3.29963e-12
2.68821e-11
2.97989e-12
2.41908e-11
2.69127e-12
2.176e-11
2.43084e-12
1.9564e-11
2.19597e-12
1.75798e-11
1.98423e-12
1.57863e-11
1.79345e-12
1.41646e-11
1.62171e-12
1.26973e-11
1.4673e-12
1.13685e-11
1.32878e-12
1.01636e-11
1.20497e-12
9.06844e-12
1.09511e-12
8.07083e-12
9.97606e-13
9.07572e-13
-3.39366e-05
3.00138e-05
-4.8042e-05
2.82103e-05
-6.13906e-05
2.6694e-05
-7.39364e-05
2.50847e-05
-8.56247e-05
2.3375e-05
-9.6511e-05
2.17763e-05
-0.000106565
2.00922e-05
-0.00011584
1.85299e-05
-0.000124322
1.69652e-05
-0.000132005
1.53754e-05
-0.000138943
1.38603e-05
-0.000145104
1.22995e-05
-0.000150481
1.07704e-05
-0.000155095
9.24782e-06
-0.000158927
7.65741e-06
-0.000161973
6.0818e-06
-0.00016424
4.54245e-06
-0.000165754
3.03153e-06
-0.000166498
1.49081e-06
-0.000166323
-3.61671e-07
-0.000165184
-2.27875e-06
-0.000163134
-4.09827e-06
-0.000160154
-5.95937e-06
-0.000156152
-8.00281e-06
-0.000151177
-9.95285e-06
-0.000145142
-1.20707e-05
-0.000138149
-1.39833e-05
-0.000130204
-1.58865e-05
-0.000121232
-1.794e-05
-0.000111398
-1.96661e-05
-0.000100765
-2.12634e-05
-8.92959e-05
-2.29286e-05
-7.72115e-05
-2.41587e-05
-6.45178e-05
-2.53846e-05
-5.13754e-05
-2.6278e-05
-3.7966e-05
-2.68118e-05
-2.43139e-05
-2.72976e-05
-1.05281e-05
-2.75652e-05
3.17939e-06
-2.741e-05
1.67861e-05
-2.72054e-05
3.01752e-05
-2.67738e-05
4.32318e-05
-2.61044e-05
5.59326e-05
-2.53859e-05
6.81262e-05
-2.43908e-05
7.97509e-05
-2.32429e-05
9.08116e-05
-2.21011e-05
0.000101162
-2.06995e-05
0.000110743
-1.91556e-05
0.000119555
-1.76171e-05
0.000127492
-1.58698e-05
0.000134479
-1.39695e-05
0.000140479
-1.19936e-05
0.000145468
-9.96778e-06
0.000149336
-7.72918e-06
0.000151997
-5.31737e-06
0.000153449
-2.90291e-06
0.000153676
-4.48811e-07
0.000152569
2.21486e-06
0.000150198
4.74226e-06
0.00014656
7.27048e-06
0.000141742
9.63795e-06
0.000135706
1.20656e-05
0.000128533
1.43392e-05
0.000120351
1.6355e-05
0.000111167
1.83556e-05
0.000101195
1.99363e-05
9.05531e-05
2.12715e-05
7.93916e-05
2.23122e-05
6.7823e-05
2.31234e-05
5.60308e-05
2.35719e-05
4.41403e-05
2.37672e-05
3.23375e-05
2.35934e-05
2.07452e-05
2.31729e-05
9.48918e-06
2.25022e-05
-1.31994e-06
2.1611e-05
-1.15942e-05
2.05425e-05
-2.12349e-05
1.92694e-05
-3.02191e-05
1.79622e-05
-3.84689e-05
1.64997e-05
-4.59457e-05
1.49496e-05
-5.26564e-05
1.34181e-05
-5.85832e-05
1.18507e-05
-6.3714e-05
1.02611e-05
-6.80465e-05
8.66434e-06
-7.15761e-05
7.05921e-06
-7.43176e-05
5.48371e-06
-7.62884e-05
3.94272e-06
-7.75152e-05
2.45764e-06
-7.80597e-05
1.08979e-06
-7.79193e-05
-2.82272e-07
-7.70989e-05
-1.63716e-06
-7.56969e-05
-2.79803e-06
-7.37586e-05
-3.87399e-06
-7.13076e-05
-4.902e-06
-6.83499e-05
-5.91186e-06
-6.49567e-05
-6.78292e-06
-6.11599e-05
-7.58967e-06
-5.69969e-05
-8.31988e-06
-5.25095e-05
-8.97115e-06
-4.77338e-05
-9.54784e-06
-4.27128e-05
-1.00391e-05
-3.74726e-05
-1.04782e-05
-3.20504e-05
-1.08383e-05
-2.65389e-05
-1.1019e-05
-2.09379e-05
-1.11983e-05
-1.53006e-05
-1.12704e-05
-9.67459e-06
-1.12481e-05
-4.11359e-06
-1.1118e-05
1.34873e-06
-1.09197e-05
6.67913e-06
-1.06576e-05
1.17885e-05
-1.02172e-05
1.66834e-05
-9.78584e-06
2.13345e-05
-9.29829e-06
2.56987e-05
-8.7272e-06
2.97566e-05
-8.11329e-06
3.34984e-05
-7.48171e-06
3.68883e-05
-6.77838e-06
3.99287e-05
-6.0787e-06
4.25956e-05
-5.33256e-06
4.48892e-05
-4.58599e-06
4.68172e-05
-3.85641e-06
4.83858e-05
-3.13659e-06
4.95764e-05
-2.38102e-06
5.04058e-05
-1.65821e-06
5.08999e-05
-9.88e-07
5.10668e-05
-3.34481e-07
5.09072e-05
3.1675e-07
5.04442e-05
9.23958e-07
4.97239e-05
1.43994e-06
4.87302e-05
1.98661e-06
4.74989e-05
2.46113e-06
4.6063e-05
2.86804e-06
4.44424e-05
3.24186e-06
4.26551e-05
3.57286e-06
4.07309e-05
3.8461e-06
3.87027e-05
4.05522e-06
3.65849e-05
4.23385e-06
3.44058e-05
4.3562e-06
3.21852e-05
4.43923e-06
2.99447e-05
4.47961e-06
2.77164e-05
4.45498e-06
2.55051e-05
4.42312e-06
2.33332e-05
4.3405e-06
2.12165e-05
4.23255e-06
1.91561e-05
4.11918e-06
1.71785e-05
3.95348e-06
1.52731e-05
3.81087e-06
1.34641e-05
3.61711e-06
1.1749e-05
3.42961e-06
1.0138e-05
3.22148e-06
8.62772e-06
3.02007e-06
7.22914e-06
2.79653e-06
5.93653e-06
2.58513e-06
4.74375e-06
2.38484e-06
3.66051e-06
2.16618e-06
2.67896e-06
1.96556e-06
1.79082e-06
1.77367e-06
1.00243e-06
1.57668e-06
3.05808e-07
1.39298e-06
-3.07457e-07
1.22671e-06
-8.3798e-07
1.06111e-06
-1.29137e-06
9.0687e-07
-1.67331e-06
7.64029e-07
-1.98941e-06
6.32296e-07
-2.24411e-06
5.09478e-07
-2.44088e-06
3.93674e-07
-2.58571e-06
2.89829e-07
-2.68327e-06
1.95308e-07
-2.73916e-06
1.12017e-07
-2.7583e-06
3.8443e-08
-2.74313e-06
-3.02349e-08
-2.6982e-06
-8.96399e-08
-2.62909e-06
-1.37995e-07
-2.53757e-06
-1.82945e-07
-2.42754e-06
-2.19856e-07
-2.30349e-06
-2.47921e-07
-2.16631e-06
-2.74241e-07
-2.01995e-06
-2.92551e-07
-1.86752e-06
-3.04686e-07
-1.70987e-06
-3.15192e-07
-1.54988e-06
-3.19856e-07
-1.38898e-06
-3.21707e-07
-1.2291e-06
-3.19564e-07
-1.07182e-06
-3.14455e-07
-9.18446e-07
-3.06738e-07
-7.68103e-07
-3.00503e-07
-6.24583e-07
-2.86974e-07
-4.8715e-07
-2.74793e-07
-3.56776e-07
-2.60673e-07
-2.3362e-07
-2.46356e-07
-1.16776e-07
-2.33601e-07
-7.77356e-09
-2.17906e-07
9.33945e-08
-2.02287e-07
1.86589e-07
-1.86356e-07
2.72064e-07
-1.70922e-07
3.49851e-07
-1.55553e-07
4.20121e-07
-1.40523e-07
4.83082e-07
-1.2591e-07
5.39096e-07
-1.12022e-07
5.88364e-07
-9.853e-08
6.31249e-07
-8.57696e-08
6.68123e-07
-7.3747e-08
6.99214e-07
-6.21841e-08
7.24947e-07
-5.14743e-08
7.4563e-07
-4.13708e-08
7.616e-07
-3.19484e-08
7.73199e-07
-2.32069e-08
7.8078e-07
-1.51734e-08
7.84712e-07
-7.87414e-09
7.85156e-07
-9.00725e-10
7.8251e-07
5.27845e-09
7.77067e-07
1.0874e-08
7.69098e-07
1.59255e-08
7.58862e-07
2.04589e-08
7.46606e-07
2.4498e-08
7.32567e-07
2.80651e-08
7.16969e-07
3.11829e-08
7.00025e-07
3.38745e-08
6.81936e-07
3.61644e-08
6.62891e-07
3.8077e-08
6.43066e-07
3.96381e-08
6.22623e-07
4.08723e-08
6.01715e-07
4.1805e-08
5.80479e-07
4.24601e-08
5.59042e-07
4.28617e-08
5.37521e-07
4.30323e-08
5.16018e-07
4.2994e-08
4.9463e-07
4.27676e-08
4.73438e-07
4.23733e-08
4.52519e-07
4.18295e-08
4.31937e-07
4.11546e-08
4.11751e-07
4.03649e-08
3.92009e-07
3.94765e-08
3.72753e-07
3.85036e-08
3.54019e-07
3.74603e-08
3.35837e-07
3.63588e-08
3.18228e-07
3.5211e-08
3.01212e-07
3.40273e-08
2.848e-07
3.28175e-08
2.69003e-07
3.15904e-08
2.53823e-07
3.03541e-08
2.39263e-07
2.91155e-08
2.25321e-07
2.78813e-08
2.1199e-07
2.66569e-08
1.99265e-07
2.54476e-08
1.87134e-07
2.42574e-08
1.75588e-07
2.30903e-08
1.64612e-07
2.19494e-08
1.54192e-07
2.08376e-08
1.44312e-07
1.9757e-08
1.34956e-07
1.87094e-08
1.26107e-07
1.76963e-08
1.17747e-07
1.67189e-08
1.09857e-07
1.57777e-08
1.0242e-07
1.48735e-08
9.54158e-08
1.40062e-08
8.88272e-08
1.3176e-08
8.26353e-08
1.23827e-08
7.68218e-08
1.16258e-08
7.13689e-08
1.09049e-08
6.62589e-08
1.02193e-08
6.14744e-08
9.56811e-09
5.69988e-08
8.95061e-09
5.28156e-08
8.36576e-09
4.8909e-08
7.81261e-09
4.52638e-08
7.29004e-09
4.1865e-08
6.79701e-09
3.86986e-08
6.33235e-09
3.5751e-08
5.89496e-09
3.3009e-08
5.48365e-09
3.04602e-08
5.09731e-09
2.80927e-08
4.73477e-09
2.58951e-08
4.39493e-09
2.38567e-08
4.07665e-09
2.19671e-08
3.77888e-09
2.02168e-08
3.50052e-09
1.85964e-08
3.24057e-09
1.70974e-08
2.998e-09
1.57114e-08
2.77186e-09
1.44308e-08
2.56119e-09
1.32482e-08
2.36511e-09
1.21568e-08
2.18275e-09
1.11501e-08
2.01329e-09
1.02221e-08
1.85591e-09
9.36713e-09
1.70989e-09
8.57987e-09
1.57449e-09
7.85534e-09
1.44903e-09
7.1889e-09
1.33285e-09
6.57621e-09
1.22536e-09
6.01323e-09
1.12595e-09
5.49618e-09
1.03409e-09
5.02155e-09
9.49256e-10
4.58606e-09
8.70957e-10
4.1867e-09
7.98733e-10
3.82062e-09
7.32155e-10
3.48522e-09
6.70813e-10
3.17805e-09
6.1433e-10
2.89688e-09
5.62347e-10
2.63962e-09
5.14535e-10
2.40433e-09
4.70582e-10
2.18924e-09
4.30201e-10
1.99268e-09
3.93119e-10
1.81315e-09
3.59084e-10
1.64922e-09
3.2786e-10
1.49961e-09
2.99228e-10
1.36312e-09
2.72986e-10
1.23866e-09
2.48947e-10
1.12519e-09
2.26937e-10
1.0218e-09
2.06796e-10
9.27619e-10
1.88372e-10
8.41861e-10
1.71526e-10
7.63802e-10
1.56128e-10
6.92777e-10
1.42059e-10
6.28176e-10
1.2921e-10
5.6944e-10
1.17481e-10
5.16055e-10
1.06778e-10
4.67551e-10
9.70168e-11
4.23495e-10
8.81192e-11
3.83492e-10
8.00125e-11
3.47181e-10
7.26296e-11
3.1423e-10
6.59085e-11
2.84337e-10
5.97916e-11
2.57227e-10
5.42262e-11
2.32647e-10
4.9164e-11
2.10369e-10
4.45614e-11
1.90182e-10
4.03785e-11
1.71895e-10
3.65788e-11
1.55332e-10
3.31284e-11
1.40336e-10
2.99961e-11
1.26761e-10
2.71533e-11
1.14476e-10
2.45736e-11
1.0336e-10
2.22335e-11
9.3306e-11
2.01114e-11
8.42132e-11
1.81881e-11
7.59915e-11
1.64455e-11
6.85588e-11
1.48674e-11
6.18404e-11
1.34387e-11
5.57686e-11
1.21453e-11
5.02821e-11
1.09746e-11
4.53253e-11
9.91511e-12
4.08477e-11
8.95661e-12
3.68034e-11
8.08979e-12
3.31508e-11
7.30624e-12
2.98521e-11
6.59827e-12
2.68732e-11
5.95888e-12
2.41827e-11
5.38171e-12
2.17526e-11
4.86094e-12
1.95573e-11
4.39126e-12
1.75737e-11
3.96786e-12
1.57808e-11
3.58637e-12
1.41595e-11
3.24293e-12
1.26927e-11
2.93417e-12
1.13643e-11
2.65719e-12
1.01596e-11
2.40962e-12
9.06477e-12
2.18995e-12
8.06738e-12
1.99499e-12
1.81498e-12
-3.40045e-05
4.5025e-05
-4.81123e-05
4.23181e-05
-6.14619e-05
4.00436e-05
-7.40091e-05
3.7632e-05
-8.57031e-05
3.50689e-05
-9.65927e-05
3.26659e-05
-0.000106643
3.01427e-05
-0.000115923
2.78102e-05
-0.000124424
2.54657e-05
-0.000132109
2.30606e-05
-0.000139033
2.07847e-05
-0.000145198
1.84643e-05
-0.000150599
1.61711e-05
-0.00015522
1.38692e-05
-0.000159044
1.14812e-05
-0.000162096
9.13359e-06
-0.000164359
6.80553e-06
-0.000165863
4.5354e-06
-0.000166584
2.21215e-06
-0.000166402
-5.43407e-07
-0.00016526
-3.42071e-06
-0.00016321
-6.14907e-06
-0.000160232
-8.93744e-06
-0.00015623
-1.20046e-05
-0.000151259
-1.49237e-05
-0.000145223
-1.81065e-05
-0.000138228
-2.09788e-05
-0.000130281
-2.38334e-05
-0.000121305
-2.69161e-05
-0.000111466
-2.95055e-05
-0.000100826
-3.19032e-05
-8.93494e-05
-3.44054e-05
-7.72567e-05
-3.62515e-05
-6.45545e-05
-3.8087e-05
-5.14032e-05
-3.94293e-05
-3.79844e-05
-4.02307e-05
-2.43227e-05
-4.09595e-05
-1.05294e-05
-4.13587e-05
3.18383e-06
-4.11234e-05
1.68032e-05
-4.0825e-05
3.01964e-05
-4.01671e-05
4.32583e-05
-3.91665e-05
5.59658e-05
-3.80936e-05
6.81653e-05
-3.65904e-05
7.9794e-05
-3.48719e-05
9.08604e-05
-3.31677e-05
0.000101207
-3.10465e-05
0.000110793
-2.87416e-05
0.00011962
-2.64448e-05
0.000127548
-2.37976e-05
0.000134536
-2.09573e-05
0.000140544
-1.80019e-05
0.000145553
-1.49773e-05
0.000149426
-1.1602e-05
0.000152089
-7.9811e-06
0.000153545
-4.35916e-06
0.000153777
-6.80824e-07
0.000152672
3.32021e-06
0.000150305
7.10856e-06
0.000146656
1.09199e-05
0.000141849
1.4445e-05
0.000135801
1.81128e-05
0.000128618
2.15228e-05
0.000120419
2.45531e-05
0.000111233
2.75423e-05
0.000101254
2.99152e-05
9.0598e-05
3.19271e-05
7.94175e-05
3.34927e-05
6.78416e-05
3.46993e-05
5.60405e-05
3.5373e-05
4.41363e-05
3.56714e-05
3.23192e-05
3.54104e-05
2.07214e-05
3.47707e-05
9.45424e-06
3.37694e-05
-1.36564e-06
3.24309e-05
-1.16441e-05
3.0821e-05
-2.12872e-05
2.89125e-05
-3.02773e-05
2.69523e-05
-3.85311e-05
2.47534e-05
-4.60081e-05
2.24266e-05
-5.27176e-05
2.01276e-05
-5.865e-05
1.77831e-05
-6.37843e-05
1.53954e-05
-6.81149e-05
1.29949e-05
-7.16419e-05
1.05863e-05
-7.43819e-05
8.22363e-06
-7.63535e-05
5.91438e-06
-7.75759e-05
3.67998e-06
-7.81115e-05
1.62544e-06
-7.79702e-05
-4.23573e-07
-7.7146e-05
-2.46137e-06
-7.57408e-05
-4.20322e-06
-7.37989e-05
-5.81593e-06
-7.13458e-05
-7.35516e-06
-6.83846e-05
-8.87307e-06
-6.49886e-05
-1.01788e-05
-6.11898e-05
-1.13885e-05
-5.70221e-05
-1.24876e-05
-5.25318e-05
-1.34615e-05
-4.77528e-05
-1.43268e-05
-4.27292e-05
-1.50628e-05
-3.74876e-05
-1.57198e-05
-3.20588e-05
-1.62671e-05
-2.65446e-05
-1.65332e-05
-2.09406e-05
-1.68023e-05
-1.52992e-05
-1.69119e-05
-9.66886e-06
-1.68784e-05
-4.10527e-06
-1.66816e-05
1.36185e-06
-1.63869e-05
6.69536e-06
-1.59911e-05
1.18064e-05
-1.53283e-05
1.67031e-05
-1.46826e-05
2.13569e-05
-1.39521e-05
2.57233e-05
-1.30935e-05
2.97836e-05
-1.21736e-05
3.35265e-05
-1.12246e-05
3.69163e-05
-1.01682e-05
3.99582e-05
-9.12062e-06
4.26262e-05
-8.00057e-06
4.4921e-05
-6.88086e-06
4.68467e-05
-5.78204e-06
4.84152e-05
-4.70515e-06
4.96073e-05
-3.57308e-06
5.04368e-05
-2.48776e-06
5.09263e-05
-1.47744e-06
5.10924e-05
-5.00661e-07
5.09313e-05
4.77842e-07
5.04649e-05
1.39042e-06
4.97429e-05
2.16188e-06
4.87491e-05
2.98043e-06
4.75167e-05
3.69351e-06
4.60748e-05
4.30988e-06
4.44554e-05
4.86132e-06
4.26663e-05
5.36192e-06
4.07392e-05
5.7732e-06
3.87098e-05
6.08463e-06
3.659e-05
6.35362e-06
3.4409e-05
6.53723e-06
3.21866e-05
6.66165e-06
2.9945e-05
6.72115e-06
2.77147e-05
6.68525e-06
2.55071e-05
6.63073e-06
2.33289e-05
6.51868e-06
2.1212e-05
6.3495e-06
1.91497e-05
6.18146e-06
1.71685e-05
5.93466e-06
1.52656e-05
5.71383e-06
1.34563e-05
5.42641e-06
1.1741e-05
5.14484e-06
1.01299e-05
4.8326e-06
8.61971e-06
4.53026e-06
7.22067e-06
4.19557e-06
5.92863e-06
3.87718e-06
4.73525e-06
3.57822e-06
3.65205e-06
3.24938e-06
2.67149e-06
2.94612e-06
1.78318e-06
2.66197e-06
9.95135e-07
2.36472e-06
2.98597e-07
2.08952e-06
-3.13997e-07
1.8393e-06
-8.4411e-07
1.59122e-06
-1.29715e-06
1.35991e-06
-1.67851e-06
1.14539e-06
-1.99425e-06
9.48032e-07
-2.24851e-06
7.63738e-07
-2.445e-06
5.90166e-07
-2.58947e-06
4.34305e-07
-2.68673e-06
2.92558e-07
-2.74206e-06
1.67346e-07
-2.76057e-06
5.69588e-08
-2.74548e-06
-4.53261e-08
-2.70027e-06
-1.34855e-07
-2.63042e-06
-2.07836e-07
-2.53904e-06
-2.74329e-07
-2.42876e-06
-3.30142e-07
-2.30423e-06
-3.72447e-07
-2.16706e-06
-4.11413e-07
-2.02049e-06
-4.39124e-07
-1.86772e-06
-4.57452e-07
-1.71006e-06
-4.72856e-07
-1.54995e-06
-4.79967e-07
-1.3893e-06
-4.82357e-07
-1.22889e-06
-4.79976e-07
-1.0715e-06
-4.7184e-07
-9.18201e-07
-4.60037e-07
-7.6764e-07
-4.51063e-07
-6.24074e-07
-4.30541e-07
-4.86567e-07
-4.12299e-07
-3.56096e-07
-3.91145e-07
-2.33131e-07
-3.69321e-07
-1.16196e-07
-3.50536e-07
-7.14626e-09
-3.26955e-07
9.40202e-08
-3.03454e-07
1.87204e-07
-2.79541e-07
2.72669e-07
-2.56387e-07
3.50442e-07
-2.33327e-07
4.20693e-07
-2.10774e-07
4.83635e-07
-1.88852e-07
5.39623e-07
-1.6801e-07
5.88868e-07
-1.47775e-07
6.31726e-07
-1.28628e-07
6.68577e-07
-1.10598e-07
6.9964e-07
-9.32475e-08
7.25344e-07
-7.7178e-08
7.46002e-07
-6.20287e-08
7.61946e-07
-4.78928e-08
7.7352e-07
-3.47802e-08
7.81072e-07
-2.27258e-08
7.84979e-07
-1.17808e-08
7.85399e-07
-1.32102e-09
7.82731e-07
7.94614e-09
7.77267e-07
1.63386e-08
7.69277e-07
2.3915e-08
7.59022e-07
3.07144e-08
7.46747e-07
3.67723e-08
7.32691e-07
4.2122e-08
7.17076e-07
4.67979e-08
7.00116e-07
5.08343e-08
6.82012e-07
5.42681e-08
6.62953e-07
5.7136e-08
6.43115e-07
5.94764e-08
6.22661e-07
6.13266e-08
6.01741e-07
6.27244e-08
5.80495e-07
6.3706e-08
5.5905e-07
6.43073e-08
5.3752e-07
6.45621e-08
5.1601e-07
6.45037e-08
4.94615e-07
6.41631e-08
4.73417e-07
6.35706e-08
4.52493e-07
6.27541e-08
4.31907e-07
6.17408e-08
4.11716e-07
6.05554e-08
3.91971e-07
5.92219e-08
3.72712e-07
5.77619e-08
3.53976e-07
5.61963e-08
3.35792e-07
5.45433e-08
3.18182e-07
5.2821e-08
3.01164e-07
5.10448e-08
2.84752e-07
4.92297e-08
2.68954e-07
4.73885e-08
2.53775e-07
4.55336e-08
2.39215e-07
4.36753e-08
2.25273e-07
4.18236e-08
2.11943e-07
3.99867e-08
1.99218e-07
3.81723e-08
1.87089e-07
3.63868e-08
1.75543e-07
3.46359e-08
1.64568e-07
3.29244e-08
1.54149e-07
3.12565e-08
1.44271e-07
2.96353e-08
1.34916e-07
2.80638e-08
1.26069e-07
2.65441e-08
1.1771e-07
2.50778e-08
1.09822e-07
2.3666e-08
1.02386e-07
2.23095e-08
9.53832e-08
2.10085e-08
8.8796e-08
1.97632e-08
8.26056e-08
1.85731e-08
7.67935e-08
1.74379e-08
7.1342e-08
1.63564e-08
6.62333e-08
1.5328e-08
6.14502e-08
1.43512e-08
5.69758e-08
1.3425e-08
5.27939e-08
1.25477e-08
4.88885e-08
1.1718e-08
4.52444e-08
1.09342e-08
4.18468e-08
1.01946e-08
3.86815e-08
9.49766e-09
3.57348e-08
8.84159e-09
3.29938e-08
8.22465e-09
3.0446e-08
7.64517e-09
2.80793e-08
7.10139e-09
2.58826e-08
6.59166e-09
2.3845e-08
6.11428e-09
2.19562e-08
5.66765e-09
2.02066e-08
5.25014e-09
1.85869e-08
4.86024e-09
1.70885e-08
4.49641e-09
1.57031e-08
4.15723e-09
1.44231e-08
3.84126e-09
1.3241e-08
3.54717e-09
1.21501e-08
3.27366e-09
1.11439e-08
3.01948e-09
1.02164e-08
2.78345e-09
9.3618e-09
2.56444e-09
8.57493e-09
2.36136e-09
7.85077e-09
2.17319e-09
7.18467e-09
1.99895e-09
6.5723e-09
1.83773e-09
6.00961e-09
1.68864e-09
5.49283e-09
1.55087e-09
5.01846e-09
1.42363e-09
4.58322e-09
1.3062e-09
4.18407e-09
1.19788e-09
3.8182e-09
1.09803e-09
3.48299e-09
1.00603e-09
3.176e-09
9.21315e-10
2.895e-09
8.43353e-10
2.63788e-09
7.71647e-10
2.40274e-09
7.05728e-10
2.18777e-09
6.45166e-10
1.99134e-09
5.89553e-10
1.81191e-09
5.3851e-10
1.64809e-09
4.91683e-10
1.49857e-09
4.48743e-10
1.36217e-09
4.09387e-10
1.23779e-09
3.73335e-10
1.1244e-09
3.40327e-10
1.02107e-09
3.1012e-10
9.26953e-10
2.8249e-10
8.41252e-10
2.57227e-10
7.63246e-10
2.34135e-10
6.92269e-10
2.13036e-10
6.27713e-10
1.93767e-10
5.69017e-10
1.76176e-10
5.1567e-10
1.60125e-10
4.67199e-10
1.45487e-10
4.23175e-10
1.32144e-10
3.83201e-10
1.19987e-10
3.46915e-10
1.08915e-10
3.13988e-10
9.88357e-11
2.84117e-10
8.96627e-11
2.57027e-10
8.13166e-11
2.32465e-10
7.37252e-11
2.10204e-10
6.68231e-11
1.90032e-10
6.05504e-11
1.71758e-10
5.48523e-11
1.55209e-10
4.9678e-11
1.40224e-10
4.49809e-11
1.26659e-10
4.07178e-11
1.14383e-10
3.68495e-11
1.03277e-10
3.33402e-11
9.32301e-11
3.0158e-11
8.41444e-11
2.72737e-11
7.59293e-11
2.46607e-11
6.85025e-11
2.22942e-11
6.17894e-11
2.01517e-11
5.57225e-11
1.82122e-11
5.02404e-11
1.64567e-11
4.52875e-11
1.4868e-11
4.08135e-11
1.34306e-11
3.67725e-11
1.21308e-11
3.31229e-11
1.09558e-11
2.98269e-11
9.89419e-12
2.68504e-11
8.93541e-12
2.41622e-11
8.06992e-12
2.17341e-11
7.28902e-12
1.95406e-11
6.58474e-12
1.75586e-11
5.94984e-12
1.57672e-11
5.3778e-12
1.41473e-11
4.86281e-12
1.26816e-11
4.39983e-12
1.13543e-11
3.9845e-12
1.01507e-11
3.61328e-12
9.05669e-12
3.28391e-12
8.06008e-12
2.9916e-12
2.72167e-12
-3.4106e-05
6.00412e-05
-4.8218e-05
5.64301e-05
-6.15722e-05
5.33978e-05
-7.41227e-05
5.01824e-05
-8.58215e-05
4.67677e-05
-9.67204e-05
4.35649e-05
-0.000106778
4.02e-05
-0.00011606
3.70929e-05
-0.000124569
3.39745e-05
-0.000132272
3.07637e-05
-0.000139206
2.77179e-05
-0.000145367
2.46261e-05
-0.000150774
2.15776e-05
-0.000155418
1.8513e-05
-0.000159256
1.53192e-05
-0.000162322
1.22001e-05
-0.000164607
9.08997e-06
-0.000166078
6.00629e-06
-0.000166739
2.87294e-06
-0.000166519
-7.6293e-07
-0.000165375
-4.56448e-06
-0.000163324
-8.20066e-06
-0.000160348
-1.19129e-05
-0.000156347
-1.60055e-05
-0.000151382
-1.98895e-05
-0.000145345
-2.4143e-05
-0.000138347
-2.79768e-05
-0.000130397
-3.17837e-05
-0.000121415
-3.58976e-05
-0.000111569
-3.93524e-05
-0.000100918
-4.25535e-05
-8.94302e-05
-4.58937e-05
-7.73243e-05
-4.83575e-05
-6.46105e-05
-5.08009e-05
-5.1445e-05
-5.2595e-05
-3.80121e-05
-5.36637e-05
-2.43377e-05
-5.46341e-05
-1.05306e-05
-5.51659e-05
3.19068e-06
-5.48449e-05
1.68213e-05
-5.44558e-05
3.02251e-05
-5.35711e-05
4.32971e-05
-5.22387e-05
5.60088e-05
-5.08054e-05
6.82159e-05
-4.87978e-05
7.98542e-05
-4.65104e-05
9.09228e-05
-4.42364e-05
0.000101278
-4.14023e-05
0.000110874
-3.83376e-05
0.000119704
-3.52746e-05
0.000127636
-3.17303e-05
0.000134627
-2.79486e-05
0.000140648
-2.4023e-05
0.000145671
-2.00001e-05
0.000149551
-1.54824e-05
0.000152219
-1.0649e-05
0.000153684
-5.82421e-06
0.000153927
-9.24257e-07
0.000152824
4.42344e-06
0.000150461
9.47155e-06
0.000146795
1.45856e-05
0.000141997
1.92427e-05
0.000135939
2.41709e-05
0.000128739
2.87228e-05
0.000120509
3.27824e-05
0.000111333
3.6719e-05
0.000101336
3.99117e-05
9.06657e-05
4.25975e-05
7.94564e-05
4.47019e-05
6.78696e-05
4.6286e-05
5.60502e-05
4.71924e-05
4.4131e-05
4.75905e-05
3.22963e-05
4.72452e-05
2.06799e-05
4.63871e-05
9.40277e-06
4.50466e-05
-1.42904e-06
4.32627e-05
-1.17203e-05
4.11122e-05
-2.13686e-05
3.85609e-05
-3.03648e-05
3.59485e-05
-3.86251e-05
3.30137e-05
-4.61059e-05
2.99074e-05
-5.28161e-05
2.68378e-05
-5.87494e-05
2.37164e-05
-6.38846e-05
2.05306e-05
-6.82182e-05
1.73285e-05
-7.17453e-05
1.41134e-05
-7.44833e-05
1.09616e-05
-7.64514e-05
7.88251e-06
-7.76707e-05
4.89922e-06
-7.81954e-05
2.15015e-06
-7.80471e-05
-5.71882e-07
-7.72174e-05
-3.29103e-06
-7.58068e-05
-5.61384e-06
-7.38588e-05
-7.76396e-06
-7.14029e-05
-9.81104e-06
-6.84383e-05
-1.18377e-05
-6.50379e-05
-1.35792e-05
-6.12356e-05
-1.51908e-05
-5.70609e-05
-1.66623e-05
-5.25656e-05
-1.79567e-05
-4.77824e-05
-1.91101e-05
-4.27536e-05
-2.00916e-05
-3.75106e-05
-2.09628e-05
-3.20729e-05
-2.17048e-05
-2.65535e-05
-2.20526e-05
-2.09442e-05
-2.24117e-05
-1.52976e-05
-2.25585e-05
-9.66175e-06
-2.25142e-05
-4.09213e-06
-2.22512e-05
1.38003e-06
-2.1859e-05
6.71735e-06
-2.13284e-05
1.18331e-05
-2.0444e-05
1.67328e-05
-1.95823e-05
2.13913e-05
-1.86106e-05
2.57609e-05
-1.74631e-05
2.98235e-05
-1.62362e-05
3.35676e-05
-1.49688e-05
3.69587e-05
-1.35592e-05
4.00024e-05
-1.21643e-05
4.2672e-05
-1.06702e-05
4.49687e-05
-9.1776e-06
4.68915e-05
-7.70476e-06
4.84587e-05