/*--------------------------------*- C++ -*----------------------------------*\
| =========                 |                                                 |
| \\      /  F ield         | OpenFOAM: The Open Source CFD Toolbox           |
|  \\    /   O peration     | Version:  3.0.1                                 |
|   \\  /    A nd           | Web:      www.OpenFOAM.org                      |
|    \\/     M anipulation  |                                                 |
\*---------------------------------------------------------------------------*/
FoamFile
{
    version     2.0;
    format      ascii;
    class       volVectorField;
    location    "16.4";
    object      U;
}
// * * * * * * * * * * * * * * * * * * * * * * * * * * * * * * * * * * * * * //

dimensions      [0 1 -1 0 0 0 0];

internalField   nonuniform List<vector> 
21420
(
(0.115119 0.00180048 0)
(0.0994538 0.00183575 0)
(0.0806274 0.00188211 0)
(0.0615544 0.00190511 0)
(0.0424688 0.00187253 0)
(0.0231992 0.00185306 0)
(0.00470614 0.00178385 0)
(-0.0126164 0.00173472 0)
(-0.0296299 0.00167029 0)
(-0.0459502 0.00157517 0)
(-0.061432 0.00149346 0)
(-0.0760011 0.00140444 0)
(-0.0896105 0.00129941 0)
(-0.10224 0.00120559 0)
(-0.113883 0.00110229 0)
(-0.124548 0.00100917 0)
(-0.134251 0.000916482 0)
(-0.143012 0.000821663 0)
(-0.150861 0.000734171 0)
(-0.157828 0.000648817 0)
(-0.163943 0.000564584 0)
(-0.169238 0.000485103 0)
(-0.173741 0.000407776 0)
(-0.177477 0.000332039 0)
(-0.180472 0.000258461 0)
(-0.182753 0.000186202 0)
(-0.184309 0.0001168 0)
(-0.185133 5.08686e-05 0)
(-0.185289 -2.12746e-05 0)
(-0.18471 -9.4444e-05 0)
(-0.183408 -0.000167409 0)
(-0.181363 -0.000242659 0)
(-0.178556 -0.000319142 0)
(-0.174964 -0.000400235 0)
(-0.170562 -0.000481661 0)
(-0.165304 -0.000566492 0)
(-0.15916 -0.00065911 0)
(-0.152111 -0.000747925 0)
(-0.144109 -0.000840783 0)
(-0.135111 -0.000946386 0)
(-0.125096 -0.00104188 0)
(-0.114016 -0.00115522 0)
(-0.101857 -0.00125329 0)
(-0.0886611 -0.00134742 0)
(-0.0744382 -0.00146464 0)
(-0.0591716 -0.00154733 0)
(-0.0429263 -0.00162421 0)
(-0.0256978 -0.00173 0)
(-0.00809279 -0.00178962 0)
(0.00983191 -0.00182827 0)
(0.0285107 -0.00188385 0)
(0.0475575 -0.0018923 0)
(0.0667219 -0.00190388 0)
(0.0858053 -0.00187644 0)
(0.104539 -0.00181846 0)
(0.122649 -0.00175354 0)
(0.139934 -0.00165878 0)
(0.156143 -0.00152772 0)
(0.170982 -0.00139085 0)
(0.184265 -0.00122507 0)
(0.195807 -0.00104613 0)
(0.205422 -0.000848036 0)
(0.212909 -0.000627605 0)
(0.218145 -0.000401054 0)
(0.22102 -0.000171931 0)
(0.22152 6.9063e-05 0)
(0.219613 0.000305869 0)
(0.215203 0.000547976 0)
(0.208574 0.00076506 0)
(0.199685 0.000982351 0)
(0.188681 0.00117827 0)
(0.175758 0.00135541 0)
(0.161186 0.0015141 0)
(0.145272 0.00164119 0)
(0.128222 0.00174103 0)
(0.110308 0.00182815 0)
(0.091663 0.00186694 0)
(0.072441 0.00190308 0)
(0.0533245 0.00189076 0)
(0.0344113 0.00188168 0)
(0.0154658 0.00185198 0)
(-0.00285278 0.00179325 0)
(-0.020435 0.00172398 0)
(-0.0374424 0.00164261 0)
(-0.0536149 0.00154999 0)
(-0.0687472 0.00145733 0)
(-0.0829343 0.00137049 0)
(-0.0960144 0.00126382 0)
(-0.10817 0.0011594 0)
(-0.119456 0.00106331 0)
(-0.129748 0.000974467 0)
(-0.139174 0.00088974 0)
(-0.147691 0.000802325 0)
(-0.15526 0.000706943 0)
(-0.162104 0.000632843 0)
(-0.167867 0.000531634 0)
(-0.172656 0.000463848 0)
(-0.177118 0.00038757 0)
(-0.180625 0.00029699 0)
(-0.183103 0.000222851 0)
(-0.184875 0.000154969 0)
(-0.185838 6.14223e-05 0)
(-0.186533 -2.23426e-05 0)
(-0.186053 -0.00011432 0)
(-0.183789 -0.000201067 0)
(-0.18148 -0.0002791 0)
(-0.178257 -0.000359465 0)
(-0.17415 -0.00044597 0)
(-0.16925 -0.000515883 0)
(-0.163631 -0.000603093 0)
(-0.157103 -0.000687258 0)
(-0.149749 -0.000774295 0)
(-0.141526 -0.000861055 0)
(-0.132368 -0.000946751 0)
(-0.12231 -0.0010384 0)
(-0.111358 -0.00114112 0)
(-0.0993424 -0.00122378 0)
(-0.0864284 -0.00132198 0)
(-0.0726803 -0.00141456 0)
(-0.0579198 -0.00150026 0)
(-0.0423196 -0.00158527 0)
(-0.0259598 -0.00166459 0)
(-0.00889572 -0.00173564 0)
(0.00884393 -0.00178694 0)
(0.0270957 -0.0018292 0)
(0.0457257 -0.0018465 0)
(0.0644779 -0.00185336 0)
(0.0830894 -0.00183707 0)
(0.101411 -0.00180063 0)
(0.119165 -0.00173775 0)
(0.136247 -0.00164784 0)
(0.152393 -0.0015226 0)
(0.167085 -0.00139624 0)
(0.180232 -0.00123677 0)
(0.191776 -0.00104625 0)
(0.20139 -0.000853132 0)
(0.208947 -0.000645814 0)
(0.214306 -0.000421092 0)
(0.217409 -0.000192154 0)
(0.21816 3.95483e-05 0)
(0.216592 0.000267143 0)
(0.212814 0.000493828 0)
(0.206667 0.000711002 0)
(0.198415 0.000908444 0)
(0.188405 0.00110429 0)
(0.176197 0.00127241 0)
(0.162822 0.00141027 0)
(0.148037 0.00153998 0)
(0.13175 0.00165584 0)
(0.114726 0.00173826 0)
(0.0966411 0.00181397 0)
(0.0782789 0.00184316 0)
(0.0595695 0.00187424 0)
(0.040438 0.00188551 0)
(0.0216526 0.00185394 0)
(0.00309966 0.00182368 0)
(-0.0150996 0.00178372 0)
(-0.0326331 0.00171082 0)
(-0.0496635 0.0016511 0)
(-0.0658845 0.00156678 0)
(-0.0812793 0.00146761 0)
(-0.0957016 0.00139098 0)
(-0.108953 0.00127251 0)
(-0.121206 0.00116555 0)
(-0.132358 0.00105085 0)
(-0.142344 0.000939812 0)
(-0.151293 0.000830504 0)
(-0.159146 0.000718593 0)
(-0.165654 0.000597224 0)
(-0.171148 0.000500592 0)
(-0.175827 0.000407905 0)
(-0.179232 0.000274747 0)
(-0.181681 0.000188624 0)
(-0.183384 0.000140983 0)
(-0.184077 2.51779e-05 0)
(-0.183893 -3.14785e-05 0)
(-0.183048 -0.000137862 0)
(-0.181418 -0.000210295 0)
(-0.179251 -0.000249399 0)
(-0.17632 -0.000314676 0)
(-0.172655 -0.00038094 0)
(-0.168588 -0.000426132 0)
(-0.164034 -0.000491725 0)
(-0.158783 -0.000536081 0)
(-0.153017 -0.000594968 0)
(-0.146581 -0.000664882 0)
(-0.13958 -0.000723786 0)
(-0.13193 -0.000793391 0)
(-0.123522 -0.000869827 0)
(-0.114315 -0.000950396 0)
(-0.104309 -0.00103238 0)
(-0.0934395 -0.00112933 0)
(-0.0816553 -0.00121209 0)
(-0.0689148 -0.00131607 0)
(-0.0552001 -0.00141238 0)
(-0.040491 -0.00150593 0)
(-0.0248309 -0.00159109 0)
(-0.00830186 -0.00167438 0)
(0.00893077 -0.0017509 0)
(0.0267991 -0.00181195 0)
(0.0452504 -0.00185603 0)
(0.0641214 -0.0018774 0)
(0.0831204 -0.0018768 0)
(0.102006 -0.00184602 0)
(0.120331 -0.00181146 0)
(0.138089 -0.00171636 0)
(0.154967 -0.00160368 0)
(0.170402 -0.00147056 0)
(0.184289 -0.00129634 0)
(0.196398 -0.00109983 0)
(0.206422 -0.000877045 0)
(0.214131 -0.00064193 0)
(0.21936 -0.000389187 0)
(0.221972 -0.000131866 0)
(0.221996 0.000127905 0)
(0.219257 0.000396385 0)
(0.213899 0.000641236 0)
(0.206045 0.000883442 0)
(0.196014 0.00111064 0)
(0.183985 0.00131195 0)
(0.169652 0.00148827 0)
(0.15423 0.00161475 0)
(0.137185 0.00174621 0)
(0.118906 0.00183828 0)
(0.100428 0.00188004 0)
(0.0812753 0.00190174 0)
(0.0620312 0.0019169 0)
(0.0429065 0.00188037 0)
(0.0238113 0.00186655 0)
(0.00541517 0.00178954 0)
(-0.0121357 0.00171907 0)
(-0.0292315 0.00165202 0)
(-0.0452923 0.00154482 0)
(-0.0603217 0.00144536 0)
(-0.0744924 0.00135521 0)
(-0.087797 0.00125968 0)
(-0.099945 0.0011716 0)
(-0.111073 0.00106889 0)
(-0.121444 0.00098311 0)
(-0.13107 0.000902839 0)
(-0.139885 0.000826129 0)
(-0.147707 0.00074298 0)
(-0.1549 0.000679759 0)
(-0.161511 0.000613276 0)
(-0.16719 0.000524537 0)
(-0.172157 0.000471455 0)
(-0.17621 0.000359519 0)
(-0.179588 0.000292234 0)
(-0.182382 0.000251671 0)
(-0.184105 0.000152165 0)
(-0.185182 7.11316e-05 0)
(-0.186152 5.04593e-06 0)
(-0.186055 -7.96955e-05 0)
(-0.184183 -0.000152056 0)
(-0.182072 -0.000249374 0)
(-0.17916 -0.000342451 0)
(-0.17532 -0.000421995 0)
(-0.170655 -0.00051383 0)
(-0.164916 -0.000604036 0)
(-0.158323 -0.00069383 0)
(-0.150827 -0.00079321 0)
(-0.14238 -0.000885887 0)
(-0.132924 -0.000988596 0)
(-0.122434 -0.00108495 0)
(-0.110928 -0.00118276 0)
(-0.0984923 -0.00128642 0)
(-0.0850459 -0.00137413 0)
(-0.0706582 -0.00146591 0)
(-0.0555214 -0.00155211 0)
(-0.0395438 -0.00162354 0)
(-0.0227903 -0.00168684 0)
(-0.00540424 -0.00173827 0)
(0.0123915 -0.00178545 0)
(0.0305702 -0.00180997 0)
(0.0489975 -0.00181704 0)
(0.0674423 -0.00180529 0)
(0.0856922 -0.00177155 0)
(0.103541 -0.00172316 0)
(0.120724 -0.00165187 0)
(0.137047 -0.00156352 0)
(0.152394 -0.00144841 0)
(0.166554 -0.00130461 0)
(0.179177 -0.00115604 0)
(0.190066 -0.000980769 0)
(0.199172 -0.000792959 0)
(0.206322 -0.00059311 0)
(0.211389 -0.00037728 0)
(0.214291 -0.000163132 0)
(0.215022 6.26293e-05 0)
(0.213648 0.000278688 0)
(0.210008 0.000491045 0)
(0.204249 0.0006969 0)
(0.196466 0.000881858 0)
(0.186821 0.00105993 0)
(0.175449 0.00122511 0)
(0.162555 0.00135451 0)
(0.148365 0.0014728 0)
(0.133131 0.00157191 0)
(0.11705 0.00163322 0)
(0.100374 0.00168536 0)
(0.0833461 0.00170088 0)
(0.0661129 0.00170889 0)
(0.0488598 0.00169816 0)
(0.0317937 0.00165823 0)
(0.015107 0.00161678 0)
(-0.000206358 0.00155397 0)
(-0.0145944 0.00148698 0)
(-0.0289014 0.00141528 0)
(-0.0425234 0.00132732 0)
(-0.055343 0.00124273 0)
(-0.0673065 0.00115405 0)
(-0.0783775 0.00105981 0)
(-0.088547 0.000970531 0)
(-0.0978185 0.00088115 0)
(-0.1062 0.00079096 0)
(-0.11371 0.000705396 0)
(-0.12037 0.000620366 0)
(-0.1262 0.000539378 0)
(-0.131223 0.000459868 0)
(-0.13546 0.000381441 0)
(-0.138927 0.000305576 0)
(-0.141641 0.000231198 0)
(-0.143626 0.000157282 0)
(-0.144857 8.86146e-05 0)
(-0.145397 2.11723e-05 0)
(-0.145227 -5.09868e-05 0)
(-0.144353 -0.000119976 0)
(-0.142802 -0.00018776 0)
(-0.140578 -0.000253602 0)
(-0.137685 -0.00031871 0)
(-0.134134 -0.000384827 0)
(-0.129931 -0.000448683 0)
(-0.125074 -0.000512121 0)
(-0.119567 -0.000578452 0)
(-0.113413 -0.000640896 0)
(-0.106616 -0.000707207 0)
(-0.099188 -0.000767723 0)
(-0.0911397 -0.000826295 0)
(-0.082485 -0.000889766 0)
(-0.0732469 -0.000943376 0)
(-0.0634525 -0.000993604 0)
(-0.0531322 -0.00105007 0)
(-0.042325 -0.00109226 0)
(-0.0310726 -0.00114126 0)
(-0.0194138 -0.00117318 0)
(-0.0074172 -0.00119814 0)
(0.00481551 -0.00122945 0)
(0.0172353 -0.00124065 0)
(0.0297951 -0.00124347 0)
(0.0423976 -0.00125236 0)
(0.0549496 -0.00123693 0)
(0.0673509 -0.00122576 0)
(0.0794953 -0.00118948 0)
(0.0912664 -0.00114216 0)
(0.102555 -0.00109582 0)
(0.113235 -0.00102565 0)
(0.124474 -0.000945314 0)
(0.115146 0.00540245 0)
(0.0994727 0.00550819 0)
(0.0806371 0.00564725 0)
(0.0615553 0.00571621 0)
(0.0424617 0.00561835 0)
(0.023184 0.00555992 0)
(0.00468562 0.00535212 0)
(-0.0126415 0.00520454 0)
(-0.0296597 0.00501123 0)
(-0.0459826 0.00472578 0)
(-0.0614671 0.00448057 0)
(-0.076038 0.00421346 0)
(-0.0896477 0.0038983 0)
(-0.102278 0.00361679 0)
(-0.11392 0.00330685 0)
(-0.124585 0.00302747 0)
(-0.134287 0.0027494 0)
(-0.143046 0.00246493 0)
(-0.150894 0.00220246 0)
(-0.157861 0.00194643 0)
(-0.163975 0.00169376 0)
(-0.169269 0.00145534 0)
(-0.17377 0.00122342 0)
(-0.177506 0.00099634 0)
(-0.1805 0.000775595 0)
(-0.18278 0.000558141 0)
(-0.184339 0.000349663 0)
(-0.185161 0.000152611 0)
(-0.185318 -6.34608e-05 0)
(-0.18474 -0.000283212 0)
(-0.183438 -0.000502021 0)
(-0.181394 -0.000727744 0)
(-0.178588 -0.000957177 0)
(-0.174998 -0.00120045 0)
(-0.170598 -0.00144473 0)
(-0.165342 -0.0016992 0)
(-0.1592 -0.00197708 0)
(-0.152153 -0.00224356 0)
(-0.144153 -0.00252213 0)
(-0.135157 -0.00283899 0)
(-0.125143 -0.00312546 0)
(-0.114066 -0.00346563 0)
(-0.101908 -0.00375942 0)
(-0.0887114 -0.00404223 0)
(-0.0744882 -0.00439401 0)
(-0.05922 -0.00464228 0)
(-0.0429746 -0.00487322 0)
(-0.0257432 -0.00518962 0)
(-0.00813202 -0.00536925 0)
(0.00979778 -0.00548563 0)
(0.0284832 -0.00565265 0)
(0.0475377 -0.00567814 0)
(0.0667118 -0.00571251 0)
(0.0858055 -0.00563036 0)
(0.104551 -0.00545694 0)
(0.122672 -0.00526283 0)
(0.139972 -0.0049753 0)
(0.156188 -0.00458932 0)
(0.17104 -0.00418116 0)
(0.184346 -0.00367168 0)
(0.195899 -0.00313392 0)
(0.205524 -0.00254514 0)
(0.213021 -0.0018839 0)
(0.218255 -0.00121628 0)
(0.221158 -0.000506208 0)
(0.221657 0.000205997 0)
(0.219736 0.000917219 0)
(0.215335 0.00164491 0)
(0.208702 0.00229532 0)
(0.199806 0.00294757 0)
(0.188795 0.00353674 0)
(0.17586 0.00406727 0)
(0.161273 0.00454456 0)
(0.145343 0.00492687 0)
(0.128278 0.00522493 0)
(0.110344 0.00548724 0)
(0.0916825 0.00560271 0)
(0.0724436 0.0057121 0)
(0.0533124 0.00567468 0)
(0.0343863 0.0056483 0)
(0.015425 0.00555819 0)
(-0.00290447 0.00537945 0)
(-0.0204972 0.00517631 0)
(-0.0375213 0.00492772 0)
(-0.0536916 0.00464916 0)
(-0.0688284 0.00437517 0)
(-0.0830173 0.00411687 0)
(-0.096095 0.00379915 0)
(-0.108251 0.00347988 0)
(-0.119538 0.00319024 0)
(-0.129832 0.00293015 0)
(-0.139255 0.00267333 0)
(-0.147777 0.00240724 0)
(-0.155342 0.00211676 0)
(-0.162184 0.00189576 0)
(-0.167936 0.00160066 0)
(-0.17273 0.00139275 0)
(-0.177196 0.00116471 0)
(-0.180701 0.000889222 0)
(-0.183175 0.000666707 0)
(-0.184947 0.000475324 0)
(-0.185913 0.000176443 0)
(-0.186605 -7.02168e-05 0)
(-0.186141 -0.000354856 0)
(-0.183846 -0.000597621 0)
(-0.181531 -0.00083662 0)
(-0.178318 -0.00108287 0)
(-0.174203 -0.00133812 0)
(-0.169301 -0.00155107 0)
(-0.163681 -0.00180927 0)
(-0.157151 -0.00206343 0)
(-0.149795 -0.00232542 0)
(-0.141566 -0.00258348 0)
(-0.132415 -0.00284534 0)
(-0.122349 -0.00311361 0)
(-0.111394 -0.00342209 0)
(-0.0993751 -0.00366841 0)
(-0.0864579 -0.00396809 0)
(-0.0727063 -0.00424474 0)
(-0.0579403 -0.00450192 0)
(-0.042334 -0.00475905 0)
(-0.0259674 -0.00499703 0)
(-0.00889541 -0.00520797 0)
(0.00885396 -0.00536338 0)
(0.0271175 -0.00548779 0)
(0.0457585 -0.00554194 0)
(0.0645204 -0.00556543 0)
(0.0831437 -0.00551675 0)
(0.10148 -0.005408 0)
(0.119246 -0.00521577 0)
(0.136343 -0.00494344 0)
(0.152499 -0.00457292 0)
(0.167201 -0.00419535 0)
(0.180363 -0.00370854 0)
(0.191901 -0.00315339 0)
(0.201538 -0.0025563 0)
(0.2091 -0.00192774 0)
(0.214455 -0.00126315 0)
(0.217559 -0.000576464 0)
(0.218309 0.000116675 0)
(0.216719 0.000801891 0)
(0.212946 0.00148286 0)
(0.206792 0.00213512 0)
(0.198532 0.00273051 0)
(0.188502 0.00331007 0)
(0.176283 0.0038213 0)
(0.162895 0.00423606 0)
(0.148096 0.00462024 0)
(0.131791 0.00496848 0)
(0.114756 0.00521731 0)
(0.0966533 0.00544521 0)
(0.0782785 0.00553016 0)
(0.0595578 0.0056276 0)
(0.0404092 0.00565801 0)
(0.0216144 0.00556187 0)
(0.00305404 0.00547513 0)
(-0.0151614 0.00535273 0)
(-0.0327013 0.00513254 0)
(-0.0497342 0.0049604 0)
(-0.065968 0.00470007 0)
(-0.0813666 0.00440546 0)
(-0.0957937 0.00416907 0)
(-0.109036 0.00382283 0)
(-0.121291 0.00349953 0)
(-0.132453 0.0031473 0)
(-0.142435 0.00281959 0)
(-0.151378 0.00249576 0)
(-0.159241 0.00215398 0)
(-0.165743 0.00179245 0)
(-0.171232 0.0015053 0)
(-0.175921 0.00122365 0)
(-0.179322 0.000826318 0)
(-0.181756 0.000565817 0)
(-0.18346 0.000427361 0)
(-0.184155 7.5577e-05 0)
(-0.183957 -9.51051e-05 0)
(-0.183112 -0.000416817 0)
(-0.181493 -0.000642519 0)
(-0.1793 -0.000740092 0)
(-0.176374 -0.000942861 0)
(-0.172701 -0.00114872 0)
(-0.168644 -0.00129371 0)
(-0.164067 -0.00146529 0)
(-0.158828 -0.00161396 0)
(-0.153054 -0.00178222 0)
(-0.146615 -0.00198839 0)
(-0.139611 -0.0021702 0)
(-0.131961 -0.00238001 0)
(-0.123555 -0.00261313 0)
(-0.114345 -0.00284963 0)
(-0.104338 -0.00310082 0)
(-0.0934681 -0.00339015 0)
(-0.0816816 -0.00363377 0)
(-0.0689414 -0.0039507 0)
(-0.0552232 -0.00423957 0)
(-0.040509 -0.0045191 0)
(-0.0248415 -0.00477258 0)
(-0.00830812 -0.00502633 0)
(0.00893254 -0.00525838 0)
(0.0268108 -0.00544176 0)
(0.0452702 -0.00557074 0)
(0.0641544 -0.0056331 0)
(0.0831698 -0.00563119 0)
(0.102063 -0.005546 0)
(0.120412 -0.00543512 0)
(0.138166 -0.00516698 0)
(0.155076 -0.00480918 0)
(0.170524 -0.00440705 0)
(0.184423 -0.00388851 0)
(0.196543 -0.00330056 0)
(0.206569 -0.00264048 0)
(0.214292 -0.00191752 0)
(0.21952 -0.00116721 0)
(0.222135 -0.000398385 0)
(0.222155 0.000382003 0)
(0.219399 0.00119338 0)
(0.214039 0.00192402 0)
(0.206178 0.00265354 0)
(0.196134 0.00333448 0)
(0.184087 0.0039381 0)
(0.169735 0.00446803 0)
(0.154296 0.00484916 0)
(0.137234 0.00523956 0)
(0.118935 0.00551909 0)
(0.100436 0.0056432 0)
(0.0812696 0.00570906 0)
(0.0620085 0.0057525 0)
(0.0428723 0.00564632 0)
(0.0237598 0.00559833 0)
(0.00535587 0.00536803 0)
(-0.0122024 0.00515996 0)
(-0.0293074 0.00495656 0)
(-0.0453742 0.00463626 0)
(-0.0604053 0.00433867 0)
(-0.0745775 0.00406934 0)
(-0.0878808 0.00378131 0)
(-0.100021 0.00352167 0)
(-0.111154 0.00321482 0)
(-0.121529 0.00295662 0)
(-0.131146 0.002715 0)
(-0.139965 0.00248273 0)
(-0.147786 0.00223192 0)
(-0.154974 0.00204016 0)
(-0.161588 0.00184322 0)
(-0.167266 0.00156917 0)
(-0.172239 0.00140606 0)
(-0.17628 0.00108607 0)
(-0.179645 0.000883438 0)
(-0.182453 0.000750543 0)
(-0.184182 0.000459365 0)
(-0.185247 0.000208202 0)
(-0.18623 8.52166e-06 0)
(-0.186136 -0.000236918 0)
(-0.184242 -0.000453707 0)
(-0.18213 -0.000755697 0)
(-0.179227 -0.00103586 0)
(-0.175385 -0.00127221 0)
(-0.170702 -0.00153102 0)
(-0.164983 -0.0018217 0)
(-0.158374 -0.00207308 0)
(-0.150877 -0.00237532 0)
(-0.142429 -0.00265642 0)
(-0.132968 -0.00296321 0)
(-0.12249 -0.00326903 0)
(-0.110966 -0.003548 0)
(-0.0985275 -0.00385729 0)
(-0.0850722 -0.00411716 0)
(-0.0706993 -0.00441259 0)
(-0.0555402 -0.00465701 0)
(-0.0395494 -0.00486315 0)
(-0.0228027 -0.00506705 0)
(-0.00541428 -0.0052238 0)
(0.0124048 -0.00535351 0)
(0.0305936 -0.00542759 0)
(0.0490282 -0.00545054 0)
(0.0674797 -0.00541482 0)
(0.0857403 -0.00531282 0)
(0.103599 -0.00517227 0)
(0.120794 -0.00495652 0)
(0.137126 -0.00469192 0)
(0.152484 -0.00434434 0)
(0.166654 -0.003913 0)
(0.179275 -0.00347724 0)
(0.190176 -0.00294729 0)
(0.199299 -0.00237194 0)
(0.206449 -0.00177588 0)
(0.211515 -0.00113242 0)
(0.21442 -0.000491104 0)
(0.215154 0.000185827 0)
(0.213763 0.000835341 0)
(0.210124 0.00147302 0)
(0.204363 0.00209084 0)
(0.196574 0.00264612 0)
(0.186922 0.0031815 0)
(0.175539 0.00367651 0)
(0.162635 0.00406401 0)
(0.148433 0.00441971 0)
(0.133189 0.00471242 0)
(0.117097 0.00490077 0)
(0.10041 0.00505706 0)
(0.083371 0.00510392 0)
(0.0661278 0.0051277 0)
(0.048866 0.00509558 0)
(0.0317922 0.00497535 0)
(0.0150968 0.00485106 0)
(-0.000220783 0.00466264 0)
(-0.0146115 0.00446193 0)
(-0.0289242 0.00424653 0)
(-0.0425495 0.00398248 0)
(-0.0553716 0.00372859 0)
(-0.0673369 0.00346258 0)
(-0.0784088 0.00317972 0)
(-0.088579 0.00291163 0)
(-0.0978504 0.00264362 0)
(-0.106232 0.00237312 0)
(-0.113741 0.00211659 0)
(-0.120401 0.00186135 0)
(-0.126231 0.001618 0)
(-0.131253 0.00137953 0)
(-0.13549 0.00114458 0)
(-0.138956 0.000917066 0)
(-0.14167 0.000693544 0)
(-0.143654 0.000471808 0)
(-0.144887 0.000265294 0)
(-0.145425 6.37482e-05 0)
(-0.145256 -0.000152663 0)
(-0.144381 -0.000359908 0)
(-0.142829 -0.000563201 0)
(-0.140605 -0.000760753 0)
(-0.137712 -0.0009561 0)
(-0.134161 -0.00115448 0)
(-0.129958 -0.00134606 0)
(-0.125101 -0.00153639 0)
(-0.119593 -0.00173539 0)
(-0.113439 -0.00192272 0)
(-0.106643 -0.00212166 0)
(-0.0992139 -0.0023032 0)
(-0.0911648 -0.00247892 0)
(-0.0825095 -0.00266937 0)
(-0.0732702 -0.00283022 0)
(-0.0634744 -0.00298091 0)
(-0.0531529 -0.00315034 0)
(-0.0423439 -0.00327692 0)
(-0.0310896 -0.00342397 0)
(-0.0194283 -0.00351981 0)
(-0.00742891 -0.00359477 0)
(0.00480645 -0.00368853 0)
(0.0172292 -0.00372226 0)
(0.0297923 -0.00373076 0)
(0.0423986 -0.00375748 0)
(0.0549545 -0.00371119 0)
(0.0673602 -0.00367773 0)
(0.079509 -0.0035689 0)
(0.0912846 -0.00342694 0)
(0.102579 -0.00328794 0)
(0.113263 -0.00307744 0)
(0.124508 -0.00283641 0)
(0.1152 0.00900747 0)
(0.0995084 0.00918347 0)
(0.0806542 0.00941511 0)
(0.0615546 0.00952989 0)
(0.0424448 0.00936645 0)
(0.0231509 0.00926885 0)
(0.00464194 0.00892199 0)
(-0.0126945 0.00867562 0)
(-0.0297221 0.00835321 0)
(-0.0460504 0.00787717 0)
(-0.0615402 0.00746822 0)
(-0.0761146 0.0070228 0)
(-0.089725 0.0064973 0)
(-0.102356 0.00602797 0)
(-0.113997 0.00551128 0)
(-0.124661 0.00504552 0)
(-0.134361 0.00458199 0)
(-0.143118 0.00410784 0)
(-0.150964 0.0036704 0)
(-0.157928 0.00324372 0)
(-0.16404 0.00282263 0)
(-0.169331 0.00242532 0)
(-0.173831 0.00203885 0)
(-0.177564 0.00166055 0)
(-0.180556 0.00129279 0)
(-0.182833 0.00093054 0)
(-0.184394 0.000582725 0)
(-0.185221 0.00025278 0)
(-0.185374 -0.000106251 0)
(-0.184798 -0.000472068 0)
(-0.183497 -0.000836459 0)
(-0.181454 -0.00121256 0)
(-0.17865 -0.00159488 0)
(-0.175063 -0.00200029 0)
(-0.170665 -0.00240742 0)
(-0.165411 -0.0028315 0)
(-0.159272 -0.00329471 0)
(-0.152227 -0.00373888 0)
(-0.144229 -0.0042032 0)
(-0.135236 -0.00473143 0)
(-0.125224 -0.00520896 0)
(-0.114149 -0.00577616 0)
(-0.10199 -0.00626494 0)
(-0.0887917 -0.00673742 0)
(-0.0745654 -0.00732397 0)
(-0.0592919 -0.00773849 0)
(-0.0430442 -0.0081237 0)
(-0.0258049 -0.00864882 0)
(-0.00818023 -0.00895068 0)
(0.00976136 -0.00914507 0)
(0.0284606 -0.00942386 0)
(0.0475305 -0.00946657 0)
(0.0667221 -0.00952452 0)
(0.0858333 -0.00938848 0)
(0.104598 -0.00909832 0)
(0.122739 -0.00877491 0)
(0.140058 -0.00829526 0)
(0.156292 -0.0076494 0)
(0.171162 -0.00696991 0)
(0.184478 -0.0061289 0)
(0.196048 -0.00523213 0)
(0.205692 -0.0042439 0)
(0.213203 -0.00313677 0)
(0.218439 -0.00202388 0)
(0.221341 -0.00086081 0)
(0.221854 0.000349177 0)
(0.219905 0.00153066 0)
(0.215515 0.00274105 0)
(0.208879 0.00382838 0)
(0.199971 0.00491599 0)
(0.188942 0.00589592 0)
(0.175998 0.00678313 0)
(0.16139 0.00757894 0)
(0.145431 0.00821415 0)
(0.128357 0.00871389 0)
(0.110394 0.00915025 0)
(0.0917138 0.00934102 0)
(0.0724486 0.00952264 0)
(0.053308 0.00946131 0)
(0.0343665 0.00941694 0)
(0.01539 0.00926779 0)
(-0.00295042 0.00896837 0)
(-0.0205614 0.0086288 0)
(-0.0375898 0.00821621 0)
(-0.0537619 0.00774972 0)
(-0.0688969 0.00729114 0)
(-0.0830868 0.00685938 0)
(-0.0961558 0.00632865 0)
(-0.108305 0.00579662 0)
(-0.119598 0.0053259 0)
(-0.129888 0.00488499 0)
(-0.139313 0.00446187 0)
(-0.147843 0.00401649 0)
(-0.155392 0.00353694 0)
(-0.162252 0.00316493 0)
(-0.167998 0.00266258 0)
(-0.17278 0.00232138 0)
(-0.177264 0.00194089 0)
(-0.180752 0.00148308 0)
(-0.183237 0.00111691 0)
(-0.185029 0.000785562 0)
(-0.185977 0.000290549 0)
(-0.186695 -0.000122182 0)
(-0.18624 -0.000579394 0)
(-0.183901 -0.00100988 0)
(-0.181585 -0.00139243 0)
(-0.17839 -0.00180427 0)
(-0.174281 -0.0022353 0)
(-0.169369 -0.00258433 0)
(-0.163757 -0.00302016 0)
(-0.157225 -0.00343726 0)
(-0.149869 -0.0038755 0)
(-0.141641 -0.00430547 0)
(-0.132499 -0.00474497 0)
(-0.122433 -0.00519258 0)
(-0.111471 -0.00570371 0)
(-0.0994642 -0.00612143 0)
(-0.0865405 -0.00661228 0)
(-0.0727881 -0.00708795 0)
(-0.0580173 -0.00750815 0)
(-0.0424055 -0.00793167 0)
(-0.0260301 -0.0083283 0)
(-0.00895183 -0.00868639 0)
(0.0088101 -0.00894578 0)
(0.0270866 -0.00915733 0)
(0.0457434 -0.00924238 0)
(0.0645206 -0.00927813 0)
(0.0831594 -0.00920459 0)
(0.101521 -0.0090171 0)
(0.119306 -0.0087026 0)
(0.136424 -0.00825297 0)
(0.152602 -0.00761454 0)
(0.167318 -0.00699301 0)
(0.180503 -0.00619038 0)
(0.192057 -0.00525604 0)
(0.201695 -0.00427038 0)
(0.209272 -0.00322141 0)
(0.214642 -0.00210435 0)
(0.217751 -0.000955627 0)
(0.218492 0.000189681 0)
(0.216879 0.00134107 0)
(0.213115 0.00247111 0)
(0.206953 0.00356033 0)
(0.19869 0.0045562 0)
(0.18865 0.00552102 0)
(0.176396 0.00637178 0)
(0.163003 0.00706263 0)
(0.148197 0.00770445 0)
(0.131866 0.00828353 0)
(0.114818 0.00870069 0)
(0.0966856 0.00907715 0)
(0.0783068 0.00922275 0)
(0.0595643 0.00938049 0)
(0.0403974 0.00943175 0)
(0.0215999 0.00927605 0)
(0.00302255 0.00912645 0)
(-0.0152047 0.00892573 0)
(-0.0327529 0.00855862 0)
(-0.0497966 0.00827384 0)
(-0.0660427 0.00783401 0)
(-0.0814365 0.00734045 0)
(-0.0958656 0.00695159 0)
(-0.109104 0.00636987 0)
(-0.121358 0.00582907 0)
(-0.132522 0.00525213 0)
(-0.142508 0.00470542 0)
(-0.151462 0.00415713 0)
(-0.159326 0.00358962 0)
(-0.165818 0.00298691 0)
(-0.171293 0.00250563 0)
(-0.176004 0.00204375 0)
(-0.179403 0.00137666 0)
(-0.18181 0.000942099 0)
(-0.183531 0.000710143 0)
(-0.184226 0.000127473 0)
(-0.184012 -0.000157256 0)
(-0.183162 -0.000683847 0)
(-0.181567 -0.00108412 0)
(-0.179363 -0.00125591 0)
(-0.176428 -0.00156872 0)
(-0.172745 -0.00190566 0)
(-0.168688 -0.00215296 0)
(-0.164121 -0.00245032 0)
(-0.158877 -0.00268371 0)
(-0.153117 -0.00297549 0)
(-0.14668 -0.00332331 0)
(-0.139671 -0.00361992 0)
(-0.132025 -0.00396869 0)
(-0.123618 -0.00434809 0)
(-0.114425 -0.00475803 0)
(-0.104411 -0.00515889 0)
(-0.0935513 -0.00565804 0)
(-0.0817661 -0.00606433 0)
(-0.0690287 -0.00658634 0)
(-0.0553064 -0.00706986 0)
(-0.0405888 -0.00753858 0)
(-0.0249146 -0.00795644 0)
(-0.00837225 -0.00837347 0)
(0.00887199 -0.00876457 0)
(0.0267616 -0.00907595 0)
(0.04524 -0.00929282 0)
(0.0641381 -0.00940087 0)
(0.0831754 -0.00939346 0)
(0.102095 -0.00923676 0)
(0.12046 -0.00906881 0)
(0.138246 -0.00861377 0)
(0.15517 -0.00802568 0)
(0.170645 -0.00735706 0)
(0.184572 -0.00648811 0)
(0.196715 -0.00549912 0)
(0.206748 -0.00440377 0)
(0.214484 -0.00320587 0)
(0.219729 -0.00193911 0)
(0.222352 -0.000662407 0)
(0.222356 0.00063524 0)
(0.219581 0.00198899 0)
(0.214232 0.00321117 0)
(0.206361 0.00442385 0)
(0.196302 0.00556513 0)
(0.184236 0.0065663 0)
(0.169852 0.00744963 0)
(0.154397 0.00808753 0)
(0.137323 0.00873855 0)
(0.11899 0.00920689 0)
(0.100456 0.009405 0)
(0.0812837 0.0095221 0)
(0.0619945 0.00958907 0)
(0.0428511 0.0094179 0)
(0.0237183 0.00933061 0)
(0.00530473 0.00894507 0)
(-0.0122606 0.00860378 0)
(-0.0293791 0.00826186 0)
(-0.0454529 0.00772756 0)
(-0.0604785 0.00723457 0)
(-0.0746572 0.00677829 0)
(-0.0879364 0.00629567 0)
(-0.100064 0.00586839 0)
(-0.11121 0.00535612 0)
(-0.121583 0.00492822 0)
(-0.131193 0.00452246 0)
(-0.140021 0.00413017 0)
(-0.147829 0.00372239 0)
(-0.155017 0.00340588 0)
(-0.161643 0.003074 0)
(-0.167311 0.00262139 0)
(-0.172301 0.00234909 0)
(-0.176352 0.0018071 0)
(-0.179691 0.00146439 0)
(-0.182503 0.00125684 0)
(-0.184259 0.000767934 0)
(-0.185303 0.000347842 0)
(-0.186326 1.73918e-06 0)
(-0.186228 -0.000389384 0)
(-0.184305 -0.000765237 0)
(-0.18218 -0.0012539 0)
(-0.179296 -0.00172204 0)
(-0.17546 -0.00211968 0)
(-0.170783 -0.00255389 0)
(-0.165061 -0.00302909 0)
(-0.158465 -0.00346536 0)
(-0.150965 -0.00396342 0)
(-0.142517 -0.00443408 0)
(-0.133052 -0.00493773 0)
(-0.12257 -0.00544318 0)
(-0.111055 -0.00591812 0)
(-0.0986105 -0.00643315 0)
(-0.0851508 -0.00686019 0)
(-0.0707742 -0.00734965 0)
(-0.0556057 -0.00776947 0)
(-0.0396105 -0.00810738 0)
(-0.0228569 -0.00844294 0)
(-0.00545558 -0.00870795 0)
(0.0123772 -0.00892678 0)
(0.0305772 -0.00905206 0)
(0.0490255 -0.00908955 0)
(0.0674941 -0.00903167 0)
(0.0857696 -0.00886094 0)
(0.103645 -0.00862233 0)
(0.120861 -0.0082607 0)
(0.137208 -0.00782322 0)
(0.152586 -0.00724735 0)
(0.166773 -0.00651716 0)
(0.179403 -0.00579137 0)
(0.190322 -0.00491161 0)
(0.199448 -0.00396528 0)
(0.206613 -0.00296633 0)
(0.21169 -0.00188584 0)
(0.214602 -0.000817111 0)
(0.215332 0.000307463 0)
(0.213913 0.00139278 0)
(0.210284 0.00245283 0)
(0.204518 0.0034861 0)
(0.19672 0.0044127 0)
(0.187053 0.00530473 0)
(0.175655 0.00613068 0)
(0.162734 0.00677695 0)
(0.148514 0.00736679 0)
(0.133252 0.00787682 0)
(0.117143 0.00817359 0)
(0.100437 0.00843263 0)
(0.0833807 0.0085089 0)
(0.0661215 0.00854842 0)
(0.0488454 0.00849435 0)
(0.0317604 0.00829351 0)
(0.0150512 0.00808593 0)
(-0.000272617 0.00777343 0)
(-0.014666 0.00743871 0)
(-0.028988 0.00707877 0)
(-0.0426177 0.00663824 0)
(-0.0554429 0.00621487 0)
(-0.0674099 0.00577125 0)
(-0.0784814 0.00529961 0)
(-0.0886513 0.00485279 0)
(-0.0979219 0.00440599 0)
(-0.106301 0.00395512 0)
(-0.113809 0.00352748 0)
(-0.120466 0.00310212 0)
(-0.126295 0.00269647 0)
(-0.131315 0.00229907 0)
(-0.13555 0.00190807 0)
(-0.139015 0.00152926 0)
(-0.141727 0.00115649 0)
(-0.143709 0.00078712 0)
(-0.144944 0.000442281 0)
(-0.145483 0.000102478 0)
(-0.145311 -0.000254908 0)
(-0.144435 -0.000600106 0)
(-0.142882 -0.000938786 0)
(-0.140657 -0.001268 0)
(-0.137763 -0.00159356 0)
(-0.134213 -0.00192418 0)
(-0.130009 -0.00224347 0)
(-0.125152 -0.00256068 0)
(-0.119644 -0.00289237 0)
(-0.11349 -0.00320461 0)
(-0.106693 -0.00353623 0)
(-0.099263 -0.00383881 0)
(-0.0912123 -0.00413179 0)
(-0.0825557 -0.00444928 0)
(-0.0733141 -0.00471743 0)
(-0.0635155 -0.00496862 0)
(-0.0531915 -0.00525108 0)
(-0.0423788 -0.00546212 0)
(-0.031121 -0.00570727 0)
(-0.0194549 -0.00586703 0)
(-0.00744981 -0.00599221 0)
(0.00479073 -0.00614857 0)
(0.0172192 -0.00620485 0)
(0.029789 -0.00621909 0)
(0.0424026 -0.00626375 0)
(0.0549663 -0.00618667 0)
(0.0673807 -0.00613101 0)
(0.0795381 -0.00594966 0)
(0.0913225 -0.0057131 0)
(0.102626 -0.00548148 0)
(0.11332 -0.00513062 0)
(0.124574 -0.00472885 0)
(0.11528 0.0126176 0)
(0.0995619 0.0128635 0)
(0.0806799 0.0131875 0)
(0.0615534 0.0133479 0)
(0.0424195 0.0131184 0)
(0.0231011 0.0129812 0)
(0.00457628 0.0124945 0)
(-0.0127741 0.0121489 0)
(-0.0298158 0.011697 0)
(-0.0461521 0.0110299 0)
(-0.0616499 0.0104568 0)
(-0.0762297 0.00983268 0)
(-0.0898409 0.00909653 0)
(-0.102473 0.00843911 0)
(-0.114112 0.00771549 0)
(-0.124775 0.00706315 0)
(-0.134473 0.0064141 0)
(-0.143226 0.00575016 0)
(-0.151069 0.00513774 0)
(-0.158029 0.00454043 0)
(-0.164137 0.00395097 0)
(-0.169425 0.00339484 0)
(-0.173922 0.00285399 0)
(-0.177652 0.00232481 0)
(-0.180641 0.00181091 0)
(-0.182913 0.0013054 0)
(-0.184473 0.000818001 0)
(-0.185314 0.000344296 0)
(-0.185459 -0.000151898 0)
(-0.184885 -0.000661036 0)
(-0.183584 -0.00117061 0)
(-0.181544 -0.00169693 0)
(-0.178743 -0.00223203 0)
(-0.17516 -0.00279951 0)
(-0.170765 -0.00336943 0)
(-0.165515 -0.00396309 0)
(-0.159381 -0.00461172 0)
(-0.152339 -0.00523361 0)
(-0.144344 -0.00588375 0)
(-0.135356 -0.00662345 0)
(-0.125345 -0.00729222 0)
(-0.114275 -0.00808663 0)
(-0.102115 -0.00876964 0)
(-0.0889127 -0.00943312 0)
(-0.0746818 -0.0102549 0)
(-0.0594002 -0.010837 0)
(-0.0431488 -0.011376 0)
(-0.0258982 -0.0121082 0)
(-0.00825364 -0.012536 0)
(0.009706 -0.0128083 0)
(0.0284259 -0.0131996 0)
(0.0475188 -0.0132599 0)
(0.0667376 -0.0133399 0)
(0.085875 -0.0131519 0)
(0.104668 -0.0127456 0)
(0.122838 -0.0122932 0)
(0.140185 -0.0116217 0)
(0.156449 -0.0107181 0)
(0.171343 -0.00976776 0)
(0.184686 -0.00858576 0)
(0.196276 -0.00732955 0)
(0.205936 -0.00595497 0)
(0.213466 -0.00440105 0)
(0.218714 -0.00283865 0)
(0.221627 -0.00120738 0)
(0.222129 0.000501152 0)
(0.220165 0.0021465 0)
(0.215786 0.00383734 0)
(0.209138 0.00536278 0)
(0.200216 0.00688797 0)
(0.189165 0.0082589 0)
(0.176199 0.00950335 0)
(0.161563 0.0106212 0)