/*--------------------------------*- C++ -*----------------------------------*\
| =========                 |                                                 |
| \\      /  F ield         | OpenFOAM: The Open Source CFD Toolbox           |
|  \\    /   O peration     | Version:  3.0.1                                 |
|   \\  /    A nd           | Web:      www.OpenFOAM.org                      |
|    \\/     M anipulation  |                                                 |
\*---------------------------------------------------------------------------*/
FoamFile
{
    version     2.0;
    format      ascii;
    class       surfaceScalarField;
    location    "23.6";
    object      phi;
}
// * * * * * * * * * * * * * * * * * * * * * * * * * * * * * * * * * * * * * //

dimensions      [0 3 -1 0 0 0 0];

internalField   nonuniform List<scalar> 
42423
(
-0.000149584
-2.3007e-06
-0.000146375
-3.2086e-06
-0.00014234
-4.03539e-06
-0.000137454
-4.88558e-06
-0.00013157
-5.88425e-06
-0.000124809
-6.76127e-06
-0.000116926
-7.88214e-06
-0.000108118
-8.80876e-06
-9.84533e-05
-9.66444e-06
-8.78173e-05
-1.0636e-05
-7.62815e-05
-1.15358e-05
-6.39251e-05
-1.23564e-05
-5.07544e-05
-1.31707e-05
-3.69508e-05
-1.38036e-05
-2.25503e-05
-1.44006e-05
-7.69887e-06
-1.48515e-05
7.35259e-06
-1.50515e-05
2.25483e-05
-1.51957e-05
3.77741e-05
-1.52258e-05
5.27928e-05
-1.50187e-05
6.74833e-05
-1.46905e-05
8.1746e-05
-1.42628e-05
9.53855e-05
-1.36396e-05
0.000108268
-1.28826e-05
0.000120268
-1.20004e-05
0.0001313
-1.10317e-05
0.000141226
-9.92558e-06
0.000149938
-8.71236e-06
0.000157363
-7.42507e-06
0.000163447
-6.08399e-06
0.000168134
-4.68683e-06
0.000171397
-3.26363e-06
0.000173182
-1.78446e-06
0.000173506
-3.24015e-07
0.000172593
9.12981e-07
0.00017017
2.42232e-06
0.000166276
3.89408e-06
0.000160839
5.43704e-06
0.00015396
6.87923e-06
0.000145732
8.22814e-06
0.000136118
9.61383e-06
0.00012543
1.06876e-05
0.000113672
1.17585e-05
0.000100938
1.27331e-05
8.75161e-05
1.34224e-05
7.35707e-05
1.39453e-05
5.92745e-05
1.42962e-05
4.48388e-05
1.44356e-05
3.03218e-05
1.45171e-05
1.59971e-05
1.43247e-05
2.0881e-06
1.3909e-05
-1.14023e-05
1.34904e-05
-2.43264e-05
1.29241e-05
-3.66356e-05
1.23092e-05
-4.82429e-05
1.16072e-05
-5.91025e-05
1.08596e-05
-6.91986e-05
1.00961e-05
-7.84894e-05
9.29085e-06
-8.69815e-05
8.49207e-06
-9.46926e-05
7.71106e-06
-0.000101593
6.90063e-06
-0.00010773
6.1365e-06
-0.000113057
5.32702e-06
-0.000117583
4.52673e-06
-0.000121346
3.76293e-06
-0.000124328
2.98175e-06
-0.000126499
2.1711e-06
-0.000127905
1.40536e-06
-0.000128544
6.39095e-07
-0.000128427
-1.16522e-07
-0.00012763
-7.97006e-07
-0.000126107
-1.52326e-06
-0.000123999
-2.10781e-06
-0.000121374
-2.62459e-06
-0.000118158
-3.2166e-06
-0.000114486
-3.67226e-06
-0.000110283
-4.20264e-06
-0.00010562
-4.66274e-06
-0.000100532
-5.08856e-06
-9.49293e-05
-5.60245e-06
-8.88156e-05
-6.11367e-06
-8.21705e-05
-6.64513e-06
-7.49448e-05
-7.2257e-06
-6.71064e-05
-7.8384e-06
-5.85709e-05
-8.53555e-06
-4.93774e-05
-9.19355e-06
-3.94947e-05
-9.88276e-06
-2.89698e-05
-1.05249e-05
-1.78282e-05
-1.11416e-05
-6.16752e-06
-1.16607e-05
5.91057e-06
-1.20781e-05
1.83858e-05
-1.24753e-05
3.11009e-05
-1.27151e-05
4.40003e-05
-1.28994e-05
5.69295e-05
-1.29293e-05
6.98133e-05
-1.28839e-05
8.25353e-05
-1.2722e-05
9.49179e-05
-1.23826e-05
0.000106851
-1.19336e-05
0.000118168
-1.1317e-05
0.000128673
-1.05043e-05
0.00013825
-9.57724e-06
0.000146675
-8.42557e-06
0.000153801
-7.12606e-06
0.000159525
-5.72378e-06
0.000163709
-4.18419e-06
0.000166305
-2.59591e-06
0.000167169
-8.6338e-07
0.000166363
8.05752e-07
0.000163814
2.54916e-06
0.000159595
4.21853e-06
0.000153773
5.82157e-06
0.000146444
7.32968e-06
0.00013774
8.70368e-06
0.000127816
9.92352e-06
0.000116825
1.09913e-05
0.000104946
1.18794e-05
9.2376e-05
1.25697e-05
7.93206e-05
1.30554e-05
6.59406e-05
1.338e-05
5.2381e-05
1.35596e-05
3.89082e-05
1.34728e-05
2.56417e-05
1.32666e-05
1.27468e-05
1.28949e-05
3.01158e-07
1.24456e-05
-1.16005e-05
1.19016e-05
-2.28869e-05
1.12865e-05
-3.35589e-05
1.0672e-05
-4.35779e-05
1.00189e-05
-5.29487e-05
9.37084e-06
-6.1657e-05
8.70827e-06
-6.9703e-05
8.04602e-06
-7.71186e-05
7.41563e-06
-8.38874e-05
6.76876e-06
-9.00745e-05
6.18717e-06
-9.561e-05
5.53542e-06
-0.000100603
4.99345e-06
-0.000104948
4.34495e-06
-0.000108701
3.75282e-06
-0.000111892
3.19056e-06
-0.000114545
2.65356e-06
-0.000116648
2.10287e-06
-0.000118219
1.57077e-06
-0.00011925
1.03138e-06
-0.000119797
5.46776e-07
-0.000119792
-4.59607e-09
-0.00011922
-5.72245e-07
-0.000118094
-1.12643e-06
-0.000116396
-1.69764e-06
-0.000114084
-2.31245e-06
-0.00011116
-2.92382e-06
-0.000107603
-3.55655e-06
-0.000103377
-4.22679e-06
-9.84427e-05
-4.93391e-06
-9.28325e-05
-5.61016e-06
-8.64874e-05
-6.34516e-06
-7.94012e-05
-7.08619e-06
-7.16064e-05
-7.79482e-06
-6.30723e-05
-8.53409e-06
-5.38519e-05
-9.22045e-06
-4.39355e-05
-9.91638e-06
-3.34364e-05
-1.04991e-05
-2.23349e-05
-1.11015e-05
-1.07114e-05
-1.16236e-05
1.36245e-06
-1.20738e-05
1.37948e-05
-1.24324e-05
2.6496e-05
-1.27012e-05
3.93303e-05
-1.28342e-05
5.2199e-05
-1.28688e-05
6.49731e-05
-1.2774e-05
7.75215e-05
-1.25484e-05
8.97118e-05
-1.21904e-05
0.000101402
-1.16906e-05
0.000112443
-1.1041e-05
0.000122683
-1.02397e-05
0.000131983
-9.30028e-06
0.000140211
-8.22736e-06
0.000147246
-7.03571e-06
0.000152989
-5.74252e-06
0.000157344
-4.35532e-06
0.000160274
-2.92996e-06
0.000161727
-1.45322e-06
0.000161697
2.99564e-08
0.000160188
1.50953e-06
0.000157187
3.00039e-06
0.000152743
4.44446e-06
0.000146934
5.80847e-06
0.000139837
7.09711e-06
0.000131532
8.30555e-06
0.00012213
9.4014e-06
0.00011176
1.03707e-05
0.000100547
1.12126e-05
8.86545e-05
1.18924e-05
7.62376e-05
1.24169e-05
6.34326e-05
1.2805e-05
5.04226e-05
1.301e-05
3.73235e-05
1.30991e-05
2.42391e-05
1.30844e-05
1.13131e-05
1.2926e-05
-1.3528e-06
1.26659e-05
-1.36687e-05
1.23159e-05
-2.55511e-05
1.18823e-05
-3.69079e-05
1.13569e-05
-4.77211e-05
1.08132e-05
-5.79156e-05
1.01944e-05
-6.74642e-05
9.54864e-06
-7.63415e-05
8.87725e-06
-8.4515e-05
8.17358e-06
-9.19593e-05
7.44424e-06
-9.86543e-05
6.69501e-06
-0.000104582
5.92746e-06
-0.000109773
5.19106e-06
-0.000114196
4.42363e-06
-0.000117877
3.68023e-06
-0.000120829
2.95245e-06
-0.000123063
2.23407e-06
-0.000124669
1.60618e-06
-0.000125624
9.54953e-07
-0.00012596
3.3551e-07
-0.000125682
-2.77624e-07
-0.0001248
-8.8182e-07
-0.000123389
-1.41171e-06
-0.000121348
-2.04039e-06
-0.000118732
-2.61584e-06
-0.000115529
-3.20346e-06
-0.000111753
-3.77582e-06
-0.000107389
-4.36395e-06
-0.000102433
-4.9559e-06
-9.69074e-05
-5.52597e-06
-9.07763e-05
-6.13108e-06
-8.40989e-05
-6.6774e-06
-7.68202e-05
-7.27867e-06
-6.8957e-05
-7.86325e-06
-6.05395e-05
-8.41755e-06
-5.15792e-05
-8.96027e-06
-4.20829e-05
-9.49631e-06
-3.20791e-05
-1.00038e-05
-2.15896e-05
-1.04895e-05
-1.06343e-05
-1.09553e-05
7.75063e-07
-1.14094e-05
1.25718e-05
-1.17968e-05
2.46753e-05
-1.21035e-05
3.70335e-05
-1.23583e-05
4.94957e-05
-1.24622e-05
6.19812e-05
-1.24856e-05
7.43387e-05
-1.23575e-05
8.64504e-05
-1.21118e-05
9.81469e-05
-1.16965e-05
0.000109285
-1.11377e-05
0.000119713
-1.04285e-05
0.000129213
-9.49988e-06
0.000137675
-8.46224e-06
0.000144925
-7.24935e-06
0.000150839
-5.91431e-06
0.000155287
-4.44825e-06
0.000158185
-2.89775e-06
0.000159454
-1.26936e-06
0.000159081
3.73006e-07
0.00015701
2.07087e-06
0.00015327
3.74031e-06
0.000147917
5.35288e-06
0.000141065
6.85161e-06
0.000132823
8.24204e-06
0.000123311
9.51263e-06
0.000112661
1.06495e-05
0.000101096
1.15655e-05
8.87989e-05
1.22967e-05
7.59896e-05
1.28092e-05
6.27257e-05
1.32639e-05
4.92935e-05
1.34322e-05
3.59458e-05
1.33477e-05
2.27633e-05
1.31825e-05
9.92943e-06
1.28339e-05
-2.24699e-06
1.21764e-05
-1.39062e-05
1.16592e-05
-2.49062e-05
1.10001e-05
-3.5168e-05
1.02618e-05
-4.47104e-05
9.54235e-06
-5.35526e-05
8.84225e-06
-6.16682e-05
8.11553e-06
-6.91413e-05
7.47317e-06
-7.59514e-05
6.81005e-06
-8.22098e-05
6.25839e-06
-8.79353e-05
5.72558e-06
-9.31499e-05
5.21454e-06
-9.79384e-05
4.7885e-06
-0.000102335
4.39708e-06
-0.000106308
3.97275e-06
-0.000109896
3.58804e-06
-0.000113044
3.14729e-06
-0.00011575
2.70694e-06
-0.000117981
2.23077e-06
-0.000119681
1.69979e-06
-0.000120861
1.17951e-06
-0.000121521
6.6086e-07
-0.000121491
-3.06517e-08
-0.000120681
-8.09653e-07
-0.000119162
-1.51872e-06
-0.000116879
-2.28329e-06
-0.000113846
-3.03325e-06
-0.000110061
-3.78499e-06
-0.000105542
-4.51894e-06
-0.000100241
-5.3011e-06
-9.41242e-05
-6.11664e-06
-8.73096e-05
-6.81468e-06
-7.9797e-05
-7.51255e-06
-7.14053e-05
-8.39176e-06
-6.23304e-05
-9.07494e-06
-5.25316e-05
-9.79877e-06
-4.20835e-05
-1.04481e-05
-3.09881e-05
-1.10954e-05
-1.936e-05
-1.16281e-05
-7.3003e-06
-1.20597e-05
5.01465e-06
-1.2315e-05
1.75895e-05
-1.25749e-05
3.02573e-05
-1.26678e-05
4.29678e-05
-1.27106e-05
5.55185e-05
-1.25508e-05
6.77641e-05
-1.22456e-05
7.96503e-05
-1.18862e-05
9.09968e-05
-1.13465e-05
0.000101689
-1.06922e-05
0.000111648
-9.95898e-06
0.000120715
-9.06731e-06
0.000128845
-8.13004e-06
0.000135925
-7.07989e-06
0.000141852
-5.92724e-06
0.000146589
-4.73654e-06
0.000150076
-3.48715e-06
0.000152272
-2.19592e-06
0.000153172
-9.00775e-07
0.000152736
4.36267e-07
0.000150893
1.84352e-06
0.000147722
3.17051e-06
0.000143207
4.51469e-06
0.000137427
5.78027e-06
0.000130421
7.00647e-06
0.000122281
8.13985e-06
0.000113122
9.15838e-06
0.000102976
1.01463e-05
9.19792e-05
1.09967e-05
8.03898e-05
1.15894e-05
6.82302e-05
1.21595e-05
5.57067e-05
1.25235e-05
4.29186e-05
1.27881e-05
2.99579e-05
1.29607e-05
1.70605e-05
1.28974e-05
4.3119e-06
1.27486e-05
-8.16886e-06
1.24807e-05
-2.02458e-05
1.2077e-05
-3.18328e-05
1.15869e-05
-4.28261e-05
1.09933e-05
-5.31772e-05
1.03511e-05
-6.28359e-05
9.65869e-06
-7.17464e-05
8.91051e-06
-7.98924e-05
8.14594e-06
7.27612e-06
-0.000149623
-4.59458e-06
-0.000146419
-6.41276e-06
-0.000142388
-8.0661e-06
-0.000137507
-9.76677e-06
-0.000131627
-1.17646e-05
-0.000124867
-1.35215e-05
-0.000116983
-1.57661e-05
-0.000108175
-1.76167e-05
-9.85084e-05
-1.9331e-05
-8.7871e-05
-2.12734e-05
-7.63351e-05
-2.30717e-05
-6.39696e-05
-2.47221e-05
-5.07935e-05
-2.63469e-05
-3.69842e-05
-2.76129e-05
-2.25737e-05
-2.88111e-05
-7.70568e-06
-2.97196e-05
7.3513e-06
-3.01086e-05
2.25461e-05
-3.03906e-05
3.77843e-05
-3.04641e-05
5.28105e-05
-3.0045e-05
6.75075e-05
-2.93877e-05
8.17787e-05
-2.85341e-05
9.54261e-05
-2.7287e-05
0.000108317
-2.57739e-05
0.000120325
-2.40084e-05
0.000131369
-2.2076e-05
0.0001413
-1.98566e-05
0.000150014
-1.74264e-05
0.000157443
-1.48538e-05
0.000163529
-1.21706e-05
0.000168219
-9.37617e-06
0.000171486
-6.53113e-06
0.000173276
-3.57485e-06
0.000173601
-6.48838e-07
0.000172683
1.83089e-06
0.000170261
4.84456e-06
0.000166369
7.78571e-06
0.000160927
1.08792e-05
0.000154046
1.37603e-05
0.000145815
1.64587e-05
0.000136198
1.9231e-05
0.000125501
2.13843e-05
0.000113735
2.35242e-05
0.000100995
2.54738e-05
8.75605e-05
2.68567e-05
7.36065e-05
2.78993e-05
5.93009e-05
2.86018e-05
4.48572e-05
2.88794e-05
3.03322e-05
2.9042e-05
1.59955e-05
2.86613e-05
2.08e-06
2.78245e-05
-1.14203e-05
2.69906e-05
-2.43523e-05
2.58561e-05
-3.66712e-05
2.46282e-05
-4.82902e-05
2.32262e-05
-5.91531e-05
2.17225e-05
-6.92498e-05
2.01929e-05
-7.85457e-05
1.85867e-05
-8.70383e-05
1.69847e-05
-9.4751e-05
1.54237e-05
-0.000101653
1.38029e-05
-0.000107783
1.22661e-05
-0.000113108
1.06516e-05
-0.000117633
9.05253e-06
-0.000121397
7.52642e-06
-0.000124376
5.96073e-06
-0.000126546
4.34099e-06
-0.000127951
2.81104e-06
-0.000128588
1.27552e-06
-0.00012847
-2.34797e-07
-0.00012767
-1.59693e-06
-0.000126144
-3.04924e-06
-0.000124036
-4.21508e-06
-0.000121408
-5.25313e-06
-0.000118183
-6.44149e-06
-0.000114506
-7.34883e-06
-0.000110303
-8.40603e-06
-0.000105637
-9.32887e-06
-0.000100545
-1.01801e-05
-9.49389e-05
-1.1209e-05
-8.88204e-05
-1.22322e-05
-8.21793e-05
-1.32862e-05
-7.49521e-05
-1.4453e-05
-6.71102e-05
-1.56803e-05
-5.85808e-05
-1.7065e-05
-4.93909e-05
-1.83835e-05
-3.95041e-05
-1.97695e-05
-2.89856e-05
-2.10435e-05
-1.78511e-05
-2.22762e-05
-6.18681e-06
-2.33251e-05
5.88872e-06
-2.41537e-05
1.83677e-05
-2.49544e-05
3.10873e-05
-2.54348e-05
4.39881e-05
-2.58003e-05
5.69298e-05
-2.58711e-05
6.98144e-05
-2.57685e-05
8.25367e-05
-2.54444e-05
9.49279e-05
-2.4774e-05
0.000106871
-2.38767e-05
0.000118196
-2.26419e-05
0.000128703
-2.10113e-05
0.000138292
-1.9167e-05
0.000146725
-1.68583e-05
0.000153858
-1.42595e-05
0.000159592
-1.14571e-05
0.000163784
-8.37625e-06
0.000166389
-5.20136e-06
0.000167246
-1.71988e-06
0.000166429
1.62186e-06
0.000163892
5.08669e-06
0.000159659
8.45113e-06
0.000153831
1.16497e-05
0.000146497
1.46637e-05
0.000137801
1.73996e-05
0.000127861
1.98638e-05
0.000116855
2.19968e-05
0.000104963
2.3772e-05
9.23819e-05
2.51504e-05
7.93224e-05
2.61149e-05
6.59517e-05
2.67507e-05
5.23608e-05
2.71505e-05
3.88752e-05
2.69584e-05
2.56008e-05
2.6541e-05
1.26996e-05
2.57961e-05
2.527e-07
2.48926e-05
-1.16473e-05
2.38017e-05
-2.29434e-05
2.25825e-05
-3.36229e-05
2.13516e-05
-4.36367e-05
2.00328e-05
-5.30072e-05
1.87414e-05
-6.17188e-05
1.74199e-05
-6.97532e-05
1.60805e-05
-7.71858e-05
1.48482e-05
-8.39563e-05
1.35393e-05
-9.01368e-05
1.23676e-05
-9.56648e-05
1.10634e-05
-0.000100661
9.98945e-06
-0.000105011
8.69502e-06
-0.000108766
7.50806e-06
-0.000111957
6.38121e-06
-0.000114611
5.30814e-06
-0.000116713
4.20424e-06
-0.000118284
3.14218e-06
-0.000119321
2.06803e-06
-0.000119856
1.08254e-06
-0.000119851
-9.70016e-09
-0.000119285
-1.1382e-06
-0.000118156
-2.25578e-06
-0.000116458
-3.3956e-06
-0.000114143
-4.62764e-06
-0.000111221
-5.84573e-06
-0.000107665
-7.11219e-06
-0.000103443
-8.4494e-06
-9.85096e-05
-9.86718e-06
-9.28964e-05
-1.12234e-05
-8.65459e-05
-1.26957e-05
-7.94562e-05
-1.41759e-05
-7.16597e-05
-1.55913e-05
-6.31285e-05
-1.70653e-05
-5.39134e-05
-1.84356e-05
-4.40007e-05
-1.98291e-05
-3.34797e-05
-2.10201e-05
-2.23707e-05
-2.22105e-05
-1.07437e-05
-2.32507e-05
1.33326e-06
-2.41508e-05
1.37706e-05
-2.48698e-05
2.64785e-05
-2.54091e-05
3.93219e-05
-2.56777e-05
5.22005e-05
-2.57475e-05
6.49823e-05
-2.55559e-05
7.75354e-05
-2.51016e-05
8.97334e-05
-2.43885e-05
0.000101436
-2.33929e-05
0.00011248
-2.20857e-05
0.000122734
-2.04933e-05
0.000132047
-1.86136e-05
0.000140272
-1.64524e-05
0.000147309
-1.40723e-05
0.000153054
-1.14878e-05
0.000157423
-8.72445e-06
0.000160357
-5.86421e-06
0.000161801
-2.89769e-06
0.00016177
6.1325e-08
0.000160257
3.0227e-06
0.000157244
6.01342e-06
0.000152807
8.88084e-06
0.000146998
1.16179e-05
0.00013989
1.42049e-05
0.000131576
1.66195e-05
0.000122167
1.88109e-05
0.000111787
2.07501e-05
0.000100577
2.2423e-05
8.8668e-05
2.38012e-05
7.62379e-05
2.4847e-05
6.34309e-05
2.5612e-05
5.04138e-05
2.60271e-05
3.72967e-05
2.62162e-05
2.4208e-05
2.6173e-05
1.12815e-05
2.58525e-05
-1.38705e-06
2.53345e-05
-1.37087e-05
2.46376e-05
-2.55971e-05
2.37708e-05
-3.69656e-05
2.27253e-05
-4.77817e-05
2.16294e-05
-5.79765e-05
2.03892e-05
-6.75318e-05
1.9104e-05
-7.64074e-05
1.77528e-05
-8.45812e-05
1.63474e-05
-9.20276e-05
1.48906e-05
-9.87273e-05
1.33947e-05
-0.000104664
1.18647e-05
-0.000109842
1.03688e-05
-0.00011426
8.84157e-06
-0.000117948
7.3684e-06
-0.000120896
5.89996e-06
-0.000123136
4.47392e-06
-0.00012474
3.21024e-06
-0.000125694
1.90887e-06
-0.000126031
6.72468e-07
-0.00012575
-5.5848e-07
-0.000124864
-1.76783e-06
-0.000123448
-2.82699e-06
-0.000121403
-4.08609e-06
-0.000118789
-5.22934e-06
-0.000115588
-6.40481e-06
-0.000111811
-7.55248e-06
-0.000107447
-8.72788e-06
-0.000102491
-9.91188e-06
-9.69645e-05
-1.10528e-05
-9.08403e-05
-1.22553e-05
-8.41497e-05
-1.33681e-05
-7.68669e-05
-1.45614e-05
-6.90033e-05
-1.57269e-05
-6.05829e-05
-1.68379e-05
-5.16191e-05
-1.79241e-05
-4.21171e-05
-1.89983e-05
-3.2117e-05
-2.00039e-05
-2.16233e-05
-2.09833e-05
-1.06579e-05
-2.19208e-05
7.4989e-07
-2.28172e-05
1.25489e-05
-2.35958e-05
2.46656e-05
-2.42203e-05
3.70233e-05
-2.4716e-05
4.9495e-05
-2.49339e-05
6.19988e-05
-2.49894e-05
7.43592e-05
-2.47179e-05
8.64809e-05
-2.42335e-05
9.81876e-05
-2.34033e-05
0.000109329
-2.22792e-05
0.000119765
-2.08649e-05
0.000129268
-1.90029e-05
0.000137742
-1.69356e-05
0.000145001
-1.45091e-05
0.000150919
-1.18325e-05
0.000155372
-8.9009e-06
0.000158274
-5.79955e-06
0.000159552
-2.54795e-06
0.000159174
7.50905e-07
0.000157089
4.15641e-06
0.000153348
7.48095e-06
0.000147996
1.07046e-05
0.000141138
1.37104e-05
0.000132889
1.64905e-05
0.000123392
1.90094e-05
0.000112703
2.13383e-05
0.000101129
2.31403e-05
8.88222e-05
2.4603e-05
7.6012e-05
2.56195e-05
6.27312e-05
2.65447e-05
4.92874e-05
2.68759e-05
3.59332e-05
2.67019e-05
2.27448e-05
2.63709e-05
9.90731e-06
2.56714e-05
-2.28236e-06
2.43661e-05
-1.39488e-05
2.33256e-05
-2.49558e-05
2.20071e-05
-3.52244e-05
2.05303e-05
-4.47716e-05
1.90896e-05
-5.36152e-05
1.76859e-05
-6.17362e-05
1.62366e-05
-6.92134e-05
1.49504e-05
-7.6023e-05
1.36196e-05
-8.22824e-05
1.25178e-05
-8.80075e-05
1.14506e-05
-9.3225e-05
1.04321e-05
-9.80167e-05
9.58019e-06
-0.000102408
8.78813e-06
-0.000106376
7.94053e-06
-0.000109964
7.17607e-06
-0.000113109
6.2931e-06
-0.000115817
5.41479e-06
-0.00011806
4.47356e-06
-0.000119771
3.41096e-06
-0.000120947
2.35553e-06
-0.000121604
1.31727e-06
-0.000121563
-7.11902e-08
-0.000120745
-1.62787e-06
-0.000119227
-3.03665e-06
-0.000116938
-4.5727e-06
-0.000113908
-6.06257e-06
-0.000110126
-7.56763e-06
-0.000105604
-9.04029e-06
-0.000100311
-1.05947e-05
-9.42091e-05
-1.22183e-05
-8.73775e-05
-1.36463e-05
-7.98505e-05
-1.50396e-05
-7.14607e-05
-1.67816e-05
-6.23835e-05
-1.81522e-05
-5.25781e-05
-1.96042e-05
-4.21152e-05
-2.0911e-05
-3.1023e-05
-2.21877e-05
-1.93903e-05
-2.32609e-05
-7.32569e-06
-2.41244e-05
4.9937e-06
-2.46344e-05
1.75762e-05
-2.51575e-05
3.02519e-05
-2.53436e-05
4.29734e-05
-2.54321e-05
5.55324e-05
-2.51098e-05
6.77842e-05
-2.44976e-05
7.96837e-05
-2.37857e-05
9.10356e-05
-2.26985e-05
0.000101731
-2.13881e-05
0.000111706
-1.99336e-05
0.000120776
-1.81374e-05
0.000128903
-1.62571e-05
0.000135994
-1.41711e-05
0.000141939
-1.18723e-05
0.000146675
-9.47278e-06
0.000150153
-6.96492e-06
0.000152349
-4.39216e-06
0.000153255
-1.80679e-06
0.000152816
8.75322e-07
0.00015097
3.68948e-06
0.000147797
6.3428e-06
0.000143282
9.02982e-06
0.000137498
1.15643e-05
0.000130487
1.40179e-05
0.000122343
1.6284e-05
0.000113181
1.83201e-05
0.000103027
2.03002e-05
9.20218e-05
2.20018e-05
8.04247e-05
2.31865e-05
6.82565e-05
2.43277e-05
5.57239e-05
2.50561e-05
4.29263e-05
2.55856e-05
2.99622e-05
2.59248e-05
1.70572e-05
2.58023e-05
4.30207e-06
2.55037e-05
-8.18325e-06
2.4966e-05
-2.02642e-05
2.41578e-05
-3.1852e-05
2.31747e-05
-4.28486e-05
2.199e-05
-5.32025e-05
2.0705e-05
-6.28613e-05
1.93175e-05
-7.17746e-05
1.78238e-05
-7.99231e-05
1.62945e-05
1.45518e-05
-0.00014969
-6.88722e-06
-0.000146488
-9.61496e-06
-0.000142459
-1.20953e-05
-0.000137579
-1.46461e-05
-0.000131703
-1.76408e-05
-0.000124944
-2.02812e-05
-0.000117058
-2.36518e-05
-0.000108249
-2.64258e-05
-9.8581e-05
-2.89989e-05
-8.79345e-05
-3.192e-05
-7.63798e-05
-3.46264e-05
-6.40097e-05
-3.70923e-05
-5.08321e-05
-3.95245e-05
-3.70147e-05
-4.14304e-05
-2.25866e-05
-4.32393e-05
-7.70701e-06
-4.45992e-05
7.36253e-06
-4.51782e-05
2.25789e-05
-4.56071e-05
3.78333e-05
-4.57186e-05
5.28655e-05
-4.50773e-05
6.75753e-05
-4.40976e-05
8.18659e-05
-4.28247e-05
9.55151e-05
-4.09363e-05
0.000108411
-3.86694e-05
0.000120436
-3.60337e-05
0.000131491
-3.31316e-05
0.000141422
-2.97872e-05
0.000150139
-2.61432e-05
0.000157578
-2.22937e-05
0.000163677
-1.8269e-05
0.00016838
-1.40801e-05
0.000171661
-9.81218e-06
0.000173456
-5.36946e-06
0.000173758
-9.51387e-07
0.000172809
2.78046e-06
0.000170379
7.27431e-06
0.000166492
1.16727e-05
0.000161043
1.63278e-05
0.000154152
2.06513e-05
0.000145915
2.46956e-05
0.000136315
2.88311e-05
0.000125582
3.21174e-05
0.000113804
3.53024e-05
0.000101053
3.82249e-05
8.75989e-05
4.03106e-05
7.36284e-05
4.18698e-05
5.93065e-05
4.29237e-05
4.48464e-05
4.33394e-05
3.032e-05
4.35684e-05
1.5965e-05
4.30163e-05
2.03736e-06
4.17521e-05
-1.14741e-05
4.05021e-05
-2.44167e-05
3.87987e-05
-3.67397e-05
3.69512e-05
-4.83584e-05
3.48449e-05
-5.92259e-05
3.259e-05
-6.93258e-05
3.02927e-05
-7.86222e-05
2.78831e-05
-8.71135e-05
2.5476e-05
-9.48197e-05
2.31299e-05
-0.000101715
2.06983e-05
-0.00010784
1.83912e-05
-0.000113158
1.59699e-05
-0.00011768
1.35742e-05
-0.000121442
1.12885e-05
-0.000124416
8.93455e-06
-0.000126588
6.51256e-06
-0.000128001
4.22392e-06
-0.000128635
1.91034e-06
-0.000128513
-3.56773e-07
-0.000127709
-2.40106e-06
-0.00012618
-4.57824e-06
-0.000124068
-6.32744e-06
-0.000121433
-7.88828e-06
-0.000118204
-9.67043e-06
-0.00011452
-1.10322e-05
-0.00011031
-1.26164e-05
-0.00010564
-1.39993e-05
-0.000100548
-1.52713e-05
-9.49375e-05
-1.68199e-05
-8.8818e-05
-1.83518e-05
-8.21759e-05
-1.99282e-05
-7.49438e-05
-2.16851e-05
-6.71079e-05
-2.35163e-05
-5.85862e-05
-2.55868e-05
-4.94044e-05
-2.75654e-05
-3.95243e-05
-2.96497e-05
-2.90068e-05
-3.1561e-05
-1.78759e-05
-3.34072e-05
-6.21498e-06
-3.49861e-05
5.86074e-06
-3.62295e-05
1.83461e-05
-3.74398e-05
3.10682e-05
-3.8157e-05
4.3969e-05
-3.87012e-05
5.69107e-05
-3.88128e-05
6.97853e-05
-3.86432e-05
8.25273e-05
-3.81865e-05
9.49294e-05
-3.71761e-05
0.000106885
-3.58323e-05
0.000118221
-3.39786e-05
0.000128745
-3.15349e-05
0.000138331
-2.87533e-05
0.000146794
-2.5321e-05
0.000153941
-2.14072e-05
0.000159686
-1.7202e-05
0.000163886
-1.25755e-05
0.00016648
-7.79556e-06
0.000167347
-2.5876e-06
0.00016652
2.44884e-06
0.000163991
7.61591e-06
0.000159738
1.27042e-05
0.00015391
1.74779e-05
0.000146571
2.20023e-05
0.000137886
2.60847e-05
0.000127905
2.98444e-05
0.000116884
3.30185e-05
0.000104978
3.56774e-05
9.23837e-05
3.77448e-05
7.9311e-05
3.91875e-05
6.59119e-05
4.01498e-05
5.23208e-05
4.07416e-05
3.88237e-05
4.04555e-05
2.55324e-05
3.98324e-05
1.26139e-05
3.87146e-05
1.74252e-07
3.73322e-05
-1.17296e-05
3.57055e-05
-2.30334e-05
3.38863e-05
-3.37149e-05
3.20331e-05
-4.37308e-05
3.00487e-05
-5.30985e-05
2.81092e-05
-6.18061e-05
2.61274e-05
-6.98222e-05
2.40966e-05
-7.72638e-05
2.22899e-05
-8.40374e-05
2.03129e-05
-9.0222e-05
1.85522e-05
-9.5752e-05
1.65935e-05
-0.00010074
1.49778e-05
-0.000105091
1.30455e-05
-0.000108852
1.12691e-05
-0.000112048
9.57743e-06
-0.00011469
7.95018e-06
-0.00011679
6.30433e-06
-0.000118365
4.7166e-06
-0.0001194
3.10378e-06
-0.000119929
1.61119e-06
-0.000119932
-7.2177e-09
-0.00011937
-1.69982e-06
-0.000118231
-3.39462e-06
-0.000116534
-5.09237e-06
-0.000114226
-6.93603e-06
-0.000111306
-8.76548e-06
-0.000107746
-1.06723e-05
-0.000103533
-1.26626e-05
-9.85998e-05
-1.48003e-05
-9.29817e-05
-1.68414e-05
-8.66351e-05
-1.90424e-05
-7.95452e-05
-2.12658e-05
-7.17509e-05
-2.33856e-05
-6.32157e-05
-2.56006e-05
-5.39954e-05
-2.76559e-05
-4.40876e-05
-2.97369e-05
-3.35546e-05
-3.15532e-05
-2.2446e-05
-3.33192e-05
-1.0806e-05
-3.48907e-05
1.27953e-06
-3.62364e-05
1.37231e-05
-3.73135e-05
2.64442e-05
-3.81302e-05
3.92951e-05
-3.85286e-05
5.21824e-05
-3.86349e-05
6.49731e-05
-3.83466e-05
7.75387e-05
-3.76673e-05
8.97524e-05
-3.66022e-05
0.000101463
-3.51037e-05
0.000112521
-3.31437e-05
0.000122783
-3.07554e-05
0.000132105
-2.79358e-05
0.000140346
-2.46927e-05
0.000147392
-2.11185e-05
0.000153146
-1.72422e-05
0.000157514
-1.30924e-05
0.000160446
-8.79625e-06
0.000161897
-4.34917e-06
0.000161861
9.81802e-08
0.000160342
4.54096e-06
0.000157326
9.0294e-06
0.000152894
1.33131e-05
0.000147071
1.74412e-05
0.000139953
2.13222e-05
0.000131631
2.49416e-05
0.000122214
2.82277e-05
0.000111825
3.11396e-05
0.000100605
3.36427e-05
8.86797e-05
3.57266e-05
7.62358e-05
3.7291e-05
6.3418e-05
3.84298e-05
5.03898e-05
3.90553e-05
3.72592e-05
3.93468e-05
2.41691e-05
3.92631e-05
1.12319e-05
3.87898e-05
-1.44816e-06
3.80145e-05
-1.37743e-05
3.69637e-05
-2.56664e-05
3.56629e-05
-3.7038e-05
3.40969e-05
-4.78602e-05
3.24516e-05
-5.8062e-05
3.0591e-05
-6.7617e-05
2.86591e-05
-7.64943e-05
2.66302e-05
-8.46654e-05
2.45185e-05
-9.21115e-05
2.23368e-05
-9.88157e-05
2.00989e-05
-0.000104752
1.78013e-05
-0.000109928
1.55447e-05
-0.000114349
1.32623e-05
-0.000118034
1.10533e-05
-0.000120981
8.84723e-06
-0.000123225
6.71785e-06
-0.000124822
4.80683e-06
-0.000125771
2.85793e-06
-0.0001261
1.00201e-06
-0.000125824
-8.34782e-07
-0.000124951
-2.64082e-06
-0.000123521
-4.25717e-06
-0.000121475
-6.13143e-06
-0.00011886
-7.84496e-06
-0.000115658
-9.6062e-06
-0.000111879
-1.13315e-05
-0.000107516
-1.30917e-05
-0.000102561
-1.4866e-05
-9.7033e-05
-1.65813e-05
-9.09138e-05
-1.83745e-05
-8.42183e-05
-2.00635e-05
-7.69386e-05
-2.18411e-05
-6.90712e-05
-2.35943e-05
-6.06475e-05
-2.52618e-05
-5.16817e-05
-2.68899e-05
-4.21724e-05
-2.85077e-05
-3.21786e-05
-2.99977e-05
-2.16872e-05
-3.14747e-05
-1.07184e-05
-3.28897e-05
6.99372e-07
-3.4235e-05
1.25039e-05
-3.54004e-05
2.46297e-05
-3.63461e-05
3.69976e-05
-3.70841e-05
4.94793e-05
-3.74156e-05
6.19856e-05
-3.74958e-05
7.436e-05
-3.70924e-05
8.64972e-05
-3.63706e-05
9.82183e-05
-3.51245e-05
0.00010937
-3.3431e-05
0.000119826
-3.13208e-05
0.00012934
-2.85166e-05
0.000137822
-2.54177e-05
0.000145091
-2.17784e-05
0.000151019
-1.77602e-05
0.000155487
-1.33697e-05
0.000158399
-8.71137e-06
0.000159676
-3.82499e-06
0.000159288
1.13893e-06
0.0001572
6.24451e-06
0.000153455
1.12254e-05
0.000148094
1.60661e-05
0.000141225
2.05793e-05
0.000132966
2.47499e-05
0.000123462
2.85126e-05
0.000112757
3.20441e-05
0.000101167
3.47301e-05
8.88346e-05
3.69352e-05
7.59944e-05
3.84596e-05
6.27341e-05
3.9805e-05
4.92767e-05
4.03333e-05
3.59134e-05
4.00652e-05
2.27121e-05
3.95721e-05
9.86984e-06
3.85137e-05
-2.33191e-06
3.65678e-05
-1.40104e-05
3.50041e-05
-2.50231e-05
3.30198e-05
-3.52945e-05
3.08018e-05
-4.48501e-05
2.86451e-05
-5.36984e-05
2.65342e-05
-6.1821e-05
2.43592e-05
-6.9298e-05
2.24273e-05
-7.61067e-05
2.04284e-05
-8.23698e-05
1.87809e-05
-8.80972e-05
1.7178e-05
-9.33093e-05
1.56442e-05
-9.80972e-05
1.4368e-05
-0.000102493
1.31839e-05
-0.000106465
1.19126e-05
-0.000110048
1.07587e-05
-0.000113189
9.43415e-06
-0.000115895
8.12152e-06
-0.000118137
6.71515e-06
-0.000119856
5.12952e-06
-0.000121037
3.5373e-06
-0.00012168
1.95965e-06
-0.000121623
-1.28516e-07
-0.000120805
-2.44509e-06
-0.000119282
-4.5602e-06
-0.00011699
-6.86458e-06
-0.000113963
-9.08914e-06
-0.000110185
-1.13464e-05
-0.000105665
-1.35599e-05
-0.000100378
-1.58817e-05
-9.42851e-05
-1.83113e-05
-8.74481e-05
-2.04833e-05
-7.99094e-05
-2.25784e-05
-7.15251e-05
-2.51659e-05
-6.24412e-05
-2.72361e-05
-5.26293e-05
-2.94162e-05
-4.21492e-05
-3.13912e-05
-3.10641e-05
-3.32728e-05
-1.9425e-05
-3.49e-05
-7.35284e-06
-3.61966e-05
4.97548e-06
-3.69628e-05
1.75703e-05
-3.77523e-05
3.02566e-05
-3.80299e-05
4.29895e-05
-3.81651e-05
5.55611e-05
-3.76814e-05
6.78262e-05
-3.67627e-05
7.97363e-05
-3.56959e-05
9.10977e-05
-3.406e-05
0.000101807
-3.20977e-05
0.000111788
-2.99148e-05
0.000120867
-2.7216e-05
0.000129013
-2.44029e-05
0.000136117
-2.12751e-05
0.000142058
-1.78137e-05
0.000146793
-1.42074e-05
0.000150281
-1.0454e-05
0.000152492
-6.60225e-06
0.000153409
-2.72394e-06
0.000152944
1.33964e-06
0.00015108
5.55328e-06
0.000147901
9.52186e-06
0.000143385
1.35457e-05
0.000137595
1.73545e-05
0.000130577
2.10358e-05
0.000122424
2.44366e-05
0.000113259
2.74859e-05
0.000103093
3.04653e-05
9.20766e-05
3.30186e-05
8.04672e-05
3.47959e-05
6.82861e-05
3.65087e-05
5.57398e-05
3.76024e-05
4.29275e-05
3.83979e-05
2.9961e-05
3.88913e-05
1.70449e-05
3.87184e-05
4.27998e-06
3.82686e-05
-8.21534e-06
3.74614e-05
-2.03053e-05
3.62478e-05
-3.18999e-05
3.47693e-05
-4.28996e-05
3.29896e-05
-5.32573e-05
3.10626e-05
-6.29201e-05
2.89803e-05
-7.18338e-05
2.67375e-05
-7.99851e-05
2.44458e-05
2.18263e-05
-0.000149791
-9.17779e-06
-0.000146591
-1.28143e-05
-0.000142564
-1.61223e-05
-0.000137688
-1.95227e-05
-0.000131818
-2.35105e-05
-0.000125059
-2.70402e-05
-0.000117171
-3.15404e-05
-0.00010836
-3.52364e-05
-9.86913e-05
-3.86676e-05
-8.80328e-05
-4.25785e-05
-7.6455e-05
-4.62042e-05
-6.40727e-05
-4.94746e-05
-5.08802e-05
-5.2717e-05
-3.70504e-05
-5.52603e-05
-2.26034e-05
-5.76864e-05
-7.69759e-06
-5.95051e-05
7.40078e-06
-6.02766e-05
2.26361e-05
-6.08424e-05
3.79028e-05
-6.09854e-05
5.29556e-05
-6.01302e-05
6.76875e-05
-5.88295e-05
8.19886e-05
-5.71259e-05
9.56542e-05
-5.46021e-05
0.000108569
-5.15844e-05
0.000120605
-4.80697e-05
0.000131672
-4.41986e-05
0.000141619
-3.9734e-05
0.00015035
-3.48751e-05
0.000157802
-2.97454e-05
0.000163905
-2.43717e-05
0.000168611
-1.87861e-05
0.000171896
-1.30976e-05
0.000173692
-7.16563e-06
0.000173979
-1.2388e-06
0.000172998
3.7619e-06
0.000170556
9.71603e-06
0.000166677
1.55521e-05
0.000161219
2.17851e-05
0.000154312
2.75581e-05
0.000146065
3.2943e-05
0.000136463
3.84333e-05
0.000125702
4.28781e-05
0.000113905
4.70988e-05
0.000101139
5.09907e-05
8.76568e-05
5.37933e-05
7.3663e-05
5.58636e-05
5.9317e-05
5.72696e-05
4.4832e-05
5.78244e-05
3.03017e-05
5.80987e-05
1.59214e-05
5.73967e-05
1.97537e-06
5.56981e-05
-1.15549e-05
5.40323e-05
-2.45107e-05
5.17544e-05
-3.68446e-05
4.92851e-05
-4.8469e-05
4.64692e-05
-5.93404e-05
4.34615e-05
-6.94439e-05
4.03962e-05
-7.87376e-05
3.71768e-05
-8.72265e-05
3.39649e-05
-9.49288e-05
3.08322e-05
-0.000101815
2.75842e-05
-0.000107932
2.4508e-05
-0.000113243
2.12815e-05
-0.000117755
1.8086e-05
-0.00012151
1.50441e-05
-0.000124474
1.18983e-05
-0.000126636
8.67461e-06
-0.00012805
5.63747e-06
-0.000128688
2.54801e-06
-0.000128575
-4.69031e-07
-0.00012777
-3.20675e-06
-0.000126235
-6.11277e-06
-0.000124117
-8.44575e-06
-0.00012147
-1.05351e-05
-0.000118231
-1.29098e-05
-0.000114544
-1.47191e-05
-0.000110326
-1.68338e-05
-0.000105648
-1.86778e-05
-0.000100551
-2.03683e-05
-9.49316e-05
-2.24393e-05
-8.88168e-05
-2.44666e-05
-8.21781e-05
-2.6567e-05
-7.49384e-05
-2.89249e-05
-6.71069e-05
-3.13477e-05
-5.85941e-05
-3.40997e-05
-4.94264e-05
-3.67332e-05
-3.95558e-05
-3.95204e-05
-2.90378e-05
-4.2079e-05
-1.79186e-05
-4.45264e-05
-6.25915e-06
-4.66456e-05
5.81097e-06
-4.82997e-05
1.8307e-05
-4.99359e-05
3.10355e-05
-5.08855e-05
4.39354e-05
-5.16013e-05
5.68859e-05
-5.17634e-05
6.97821e-05
-5.15395e-05
8.25232e-05
-5.09277e-05
9.49412e-05
-4.95942e-05
0.000106916
-4.7807e-05
0.000118265
-4.53278e-05
0.000128812
-4.20815e-05
0.000138419
-3.83607e-05
0.000146893
-3.37957e-05
0.000154065