/*--------------------------------*- C++ -*----------------------------------*\
| =========                 |                                                 |
| \\      /  F ield         | OpenFOAM: The Open Source CFD Toolbox           |
|  \\    /   O peration     | Version:  3.0.1                                 |
|   \\  /    A nd           | Web:      www.OpenFOAM.org                      |
|    \\/     M anipulation  |                                                 |
\*---------------------------------------------------------------------------*/
FoamFile
{
    version     2.0;
    format      ascii;
    class       volVectorField;
    location    "23.6";
    object      U;
}
// * * * * * * * * * * * * * * * * * * * * * * * * * * * * * * * * * * * * * //

dimensions      [0 1 -1 0 0 0 0];

internalField   nonuniform List<vector> 
21420
(
(-0.151039 -0.000251655 0)
(-0.148463 -0.000336284 0)
(-0.144637 -0.000421307 0)
(-0.139941 -0.000507847 0)
(-0.134357 -0.000598564 0)
(-0.127868 -0.000688247 0)
(-0.120459 -0.000783249 0)
(-0.112121 -0.000874053 0)
(-0.102852 -0.000963469 0)
(-0.0926625 -0.00105894 0)
(-0.0815798 -0.00114219 0)
(-0.0696479 -0.00121804 0)
(-0.0569272 -0.00130251 0)
(-0.0435014 -0.00136107 0)
(-0.0294721 -0.0014281 0)
(-0.0149529 -0.00146287 0)
(-7.03583e-05 -0.00148252 0)
(0.0150316 -0.00151177 0)
(0.0302038 -0.00150376 0)
(0.045296 -0.00148025 0)
(0.0601546 -0.00146257 0)
(0.0746299 -0.00140991 0)
(0.0885653 -0.00134314 0)
(0.101813 -0.00127774 0)
(0.114235 -0.0011849 0)
(0.125704 -0.00109047 0)
(0.136103 -0.000976044 0)
(0.145329 -0.000853824 0)
(0.153298 -0.000728055 0)
(0.159941 -0.000593579 0)
(0.165205 -0.000455082 0)
(0.169044 -0.00031459 0)
(0.171409 -0.000171232 0)
(0.17221 -3.14888e-05 0)
(0.17164 0.000108603 0)
(0.1697 0.000257573 0)
(0.166384 0.00039846 0)
(0.161673 0.000539813 0)
(0.155564 0.000681676 0)
(0.148104 0.000805621 0)
(0.139355 0.000934606 0)
(0.129422 0.00103808 0)
(0.118415 0.00114483 0)
(0.106382 0.00124171 0)
(0.0935639 0.00130335 0)
(0.0801359 0.00136332 0)
(0.0661842 0.00140626 0)
(0.0519056 0.00141499 0)
(0.0374539 0.00142634 0)
(0.023181 0.00141478 0)
(0.00925914 0.00137144 0)
(-0.0043051 0.00133405 0)
(-0.0174089 0.00127742 0)
(-0.0299817 0.00121903 0)
(-0.0419197 0.00115237 0)
(-0.0531596 0.00107809 0)
(-0.0636697 0.00100456 0)
(-0.0734282 0.000926932 0)
(-0.0824317 0.000847845 0)
(-0.0906873 0.000770993 0)
(-0.0982022 0.000692137 0)
(-0.104979 0.000617057 0)
(-0.110967 0.000536236 0)
(-0.116122 0.00045678 0)
(-0.120482 0.000380187 0)
(-0.124048 0.00030248 0)
(-0.126788 0.000220532 0)
(-0.128753 0.000144052 0)
(-0.129969 6.62317e-05 0)
(-0.130396 -3.72922e-06 0)
(-0.130036 -6.56115e-05 0)
(-0.12899 -0.000134516 0)
(-0.127179 -0.000191539 0)
(-0.124802 -0.000239249 0)
(-0.121941 -0.000296768 0)
(-0.118393 -0.000342527 0)
(-0.114409 -0.000392818 0)
(-0.10992 -0.000437139 0)
(-0.10488 -0.000478797 0)
(-0.0995207 -0.000530762 0)
(-0.093468 -0.0005797 0)
(-0.0869426 -0.00063428 0)
(-0.0799331 -0.000688933 0)
(-0.0721294 -0.000751989 0)
(-0.0637373 -0.000823386 0)
(-0.0547864 -0.000890866 0)
(-0.0452203 -0.00096008 0)
(-0.0348668 -0.00102982 0)
(-0.02393 -0.00108975 0)
(-0.0125155 -0.00114466 0)
(-0.000703676 -0.00119167 0)
(0.0115192 -0.00123168 0)
(0.0242371 -0.00125772 0)
(0.03719 -0.00127671 0)
(0.0502554 -0.00127888 0)
(0.0632764 -0.00127821 0)
(0.0761803 -0.00126107 0)
(0.0887799 -0.00122729 0)
(0.100939 -0.00118345 0)
(0.112553 -0.0011225 0)
(0.123463 -0.00104166 0)
(0.133504 -0.000947381 0)
(0.142481 -0.000835565 0)
(0.150289 -0.000705855 0)
(0.156737 -0.000566672 0)
(0.161678 -0.000414404 0)
(0.165058 -0.000256527 0)
(0.166788 -8.7596e-05 0)
(0.166835 8.21107e-05 0)
(0.165098 0.000252275 0)
(0.161695 0.000416277 0)
(0.156686 0.000577154 0)
(0.150099 0.000729487 0)
(0.142064 0.000863945 0)
(0.132743 0.000982863 0)
(0.122285 0.00108988 0)
(0.110833 0.00117867 0)
(0.0986138 0.00124715 0)
(0.0857926 0.00129525 0)
(0.0725304 0.00132524 0)
(0.059078 0.00134553 0)
(0.0455775 0.00133679 0)
(0.0321992 0.00131735 0)
(0.0191156 0.00127832 0)
(0.00646143 0.00123423 0)
(-0.00569799 0.00118182 0)
(-0.0172922 0.00111663 0)
(-0.0282503 0.00106002 0)
(-0.0385921 0.000993704 0)
(-0.0482892 0.000928062 0)
(-0.0573402 0.000865912 0)
(-0.065731 0.000797352 0)
(-0.073456 0.000736273 0)
(-0.080528 0.000673096 0)
(-0.087015 0.000614836 0)
(-0.0929058 0.000548425 0)
(-0.0981501 0.00049257 0)
(-0.102793 0.000432592 0)
(-0.10685 0.000371872 0)
(-0.110317 0.000317043 0)
(-0.11323 0.000264283 0)
(-0.115601 0.000209282 0)
(-0.117442 0.000156577 0)
(-0.11875 0.000102618 0)
(-0.119522 5.64929e-05 0)
(-0.1198 -1.41044e-06 0)
(-0.119513 -5.69437e-05 0)
(-0.118656 -0.000110884 0)
(-0.117236 -0.000167013 0)
(-0.115224 -0.000228637 0)
(-0.112617 -0.000290539 0)
(-0.109376 -0.00035206 0)
(-0.10548 -0.000418909 0)
(-0.100916 -0.000488731 0)
(-0.095641 -0.000554912 0)
(-0.0896356 -0.000627758 0)
(-0.0829426 -0.000702323 0)
(-0.0755045 -0.000773498 0)
(-0.0673297 -0.000847149 0)
(-0.0584562 -0.000914045 0)
(-0.0489063 -0.000980142 0)
(-0.0387077 -0.00104052 0)
(-0.0278812 -0.00110071 0)
(-0.0165113 -0.00115337 0)
(-0.00465606 -0.00119621 0)
(0.00760451 -0.00123219 0)
(0.020169 -0.00125874 0)
(0.0329305 -0.00127113 0)
(0.0457909 -0.00127605 0)
(0.058608 -0.00126671 0)
(0.071271 -0.00124407 0)
(0.0836447 -0.00120713 0)
(0.0955848 -0.00115861 0)
(0.10696 -0.00109426 0)
(0.117605 -0.00101325 0)
(0.12737 -0.000923386 0)
(0.136145 -0.000815711 0)
(0.143782 -0.000696984 0)
(0.150179 -0.000568123 0)
(0.155232 -0.00042907 0)
(0.158861 -0.000292588 0)
(0.161064 -0.000144106 0)
(0.16176 4.90176e-06 0)
(0.16098 0.000149155 0)
(0.158691 0.000298598 0)
(0.154968 0.000441869 0)
(0.149836 0.000576321 0)
(0.143381 0.000702984 0)
(0.135675 0.000824344 0)
(0.126814 0.000932326 0)
(0.116921 0.00103015 0)
(0.10612 0.00111314 0)
(0.0945613 0.00117811 0)
(0.0824085 0.00123209 0)
(0.0697871 0.00127106 0)
(0.0568712 0.00128918 0)
(0.0438129 0.00130021 0)
(0.0307304 0.00129862 0)
(0.0177287 0.00128292 0)
(0.00493002 0.00125402 0)
(-0.00754984 0.00122157 0)
(-0.0196566 0.00117693 0)
(-0.0312781 0.0011271 0)
(-0.0423593 0.00107448 0)
(-0.0528504 0.00101048 0)
(-0.0627128 0.000947184 0)
(-0.0719298 0.000881275 0)
(-0.0804525 0.000810473 0)
(-0.0882561 0.000739299 0)
(-0.0953304 0.000663589 0)
(-0.101639 0.000589118 0)
(-0.107201 0.000517176 0)
(-0.112009 0.000436899 0)
(-0.116047 0.000365017 0)
(-0.119365 0.00029492 0)
(-0.121976 0.000220282 0)
(-0.123883 0.000159936 0)
(-0.125141 9.52231e-05 0)
(-0.125789 3.37897e-05 0)
(-0.125819 -2.50843e-05 0)
(-0.125276 -8.80643e-05 0)
(-0.124109 -0.000137878 0)
(-0.12236 -0.000203305 0)
(-0.120037 -0.000259539 0)
(-0.117118 -0.00031746 0)
(-0.113623 -0.0003736 0)
(-0.109559 -0.000433036 0)
(-0.104912 -0.00049025 0)
(-0.099667 -0.000546912 0)
(-0.093854 -0.000606804 0)
(-0.0874414 -0.000660462 0)
(-0.0804525 -0.000722164 0)
(-0.0728802 -0.000779936 0)
(-0.0647383 -0.000834114 0)
(-0.0560504 -0.000888311 0)
(-0.0468361 -0.000941775 0)
(-0.0370973 -0.000990959 0)
(-0.0268282 -0.00103908 0)
(-0.016105 -0.00108625 0)
(-0.00492187 -0.00113308 0)
(0.0066935 -0.00116772 0)
(0.0186378 -0.00119921 0)
(0.03087 -0.0012259 0)
(0.0432911 -0.00123355 0)
(0.0557598 -0.00123658 0)
(0.0681757 -0.00122651 0)
(0.0804116 -0.00120042 0)
(0.0923166 -0.00115995 0)
(0.103746 -0.00110463 0)
(0.114516 -0.00103264 0)
(0.124485 -0.000941569 0)
(0.133489 -0.00083722 0)
(0.141346 -0.000719236 0)
(0.147934 -0.000586552 0)
(0.153116 -0.000440901 0)
(0.156795 -0.000286034 0)
(0.158881 -0.000124718 0)
(0.159315 3.57221e-05 0)
(0.158093 0.000205447 0)
(0.155146 0.000374265 0)
(0.150601 0.000530175 0)
(0.144509 0.000679346 0)
(0.13698 0.000817454 0)
(0.128083 0.000941635 0)
(0.118066 0.00105575 0)
(0.107056 0.00114704 0)
(0.0951792 0.0012184 0)
(0.0825533 0.00126589 0)
(0.0694589 0.00131192 0)
(0.0561583 0.00132985 0)
(0.0427345 0.00132043 0)
(0.0294326 0.00130256 0)
(0.0164582 0.00126744 0)
(0.00441864 0.00120337 0)
(-0.00685425 0.00115482 0)
(-0.0177376 0.00109102 0)
(-0.0279685 0.00102513 0)
(-0.0375043 0.000957338 0)
(-0.0463786 0.000892283 0)
(-0.0545478 0.000822846 0)
(-0.0620863 0.000762795 0)
(-0.0689958 0.000699228 0)
(-0.0753355 0.000646827 0)
(-0.0812222 0.000594647 0)
(-0.0866107 0.000543259 0)
(-0.0915801 0.000501879 0)
(-0.0962561 0.000464232 0)
(-0.100537 0.00041978 0)
(-0.104487 0.000378912 0)
(-0.10807 0.000333229 0)
(-0.111232 0.00028612 0)
(-0.113991 0.00023567 0)
(-0.116219 0.000179279 0)
(-0.117945 0.000124508 0)
(-0.119096 6.77906e-05 0)
(-0.119574 4.78072e-06 0)
(-0.119384 -6.61971e-05 0)
(-0.118444 -0.000132516 0)
(-0.116764 -0.000207587 0)
(-0.114369 -0.000280814 0)
(-0.111125 -0.000355849 0)
(-0.107143 -0.000428938 0)
(-0.102432 -0.000506055 0)
(-0.096909 -0.00058781 0)
(-0.090631 -0.000659348 0)
(-0.0835749 -0.00073187 0)
(-0.0757189 -0.000817859 0)
(-0.0670865 -0.000886178 0)
(-0.057646 -0.000963209 0)
(-0.0475193 -0.00102471 0)
(-0.0368651 -0.00108572 0)
(-0.0255909 -0.00114505 0)
(-0.0137248 -0.00118457 0)
(-0.00170578 -0.00120907 0)
(0.0104934 -0.00124277 0)
(0.0230177 -0.00124923 0)
(0.0356231 -0.0012572 0)
(0.0481727 -0.00123905 0)
(0.0605135 -0.00120733 0)
(0.0725227 -0.00117486 0)
(0.0840788 -0.00111971 0)
(0.0950504 -0.00105293 0)
(0.105325 -0.000982727 0)
(0.114793 -0.00089527 0)
(0.123353 -0.000803241 0)
(0.130916 -0.000698283 0)
(0.137398 -0.000586102 0)
(0.142723 -0.000469326 0)
(0.146838 -0.000345702 0)
(0.149705 -0.000218133 0)
(0.151282 -8.89725e-05 0)
(0.151526 3.90412e-05 0)
(0.150444 0.000171465 0)
(0.147996 0.000304028 0)
(0.14426 0.000434432 0)
(0.139246 0.00055667 0)
(0.133004 0.000676893 0)
(0.125596 0.000791629 0)
(0.117104 0.000889158 0)
(0.10763 0.000985058 0)
(0.0972795 0.0010713 0)
(0.0861727 0.00113165 0)
(0.0744411 0.0011922 0)
(0.0622227 0.00122375 0)
(0.0496605 0.0012561 0)
(0.0368937 0.00127409 0)
(0.0240346 0.001262 0)
(0.0109111 0.00125225 0)
(-0.00157209 0.00122963 0)
(-0.0133264 0.00118249 0)
(-0.0250065 0.00113683 0)
(-0.0361502 0.00107187 0)
(-0.0466709 0.00101032 0)
(-0.0565077 0.000942391 0)
(-0.0656114 0.00086447 0)
(-0.0739602 0.000790406 0)
(-0.0827113 0.000714063 0)
(-0.151072 -0.00075474 0)
(-0.148497 -0.00100871 0)
(-0.144671 -0.00126377 0)
(-0.139976 -0.00152341 0)
(-0.134393 -0.00179559 0)
(-0.127905 -0.00206467 0)
(-0.120497 -0.0023497 0)
(-0.112158 -0.00262216 0)
(-0.102889 -0.00289046 0)
(-0.092699 -0.00317695 0)
(-0.0816146 -0.00342677 0)
(-0.0696801 -0.00365436 0)
(-0.0569568 -0.00390787 0)
(-0.0435269 -0.00408361 0)
(-0.0294935 -0.00428477 0)
(-0.0149691 -0.00438896 0)
(-8.13813e-05 -0.00444821 0)
(0.015026 -0.00453593 0)
(0.0302041 -0.00451191 0)
(0.0453021 -0.00444137 0)
(0.060167 -0.00438833 0)
(0.074648 -0.00423035 0)
(0.0885888 -0.00403003 0)
(0.101842 -0.00383381 0)
(0.11427 -0.00355524 0)
(0.125743 -0.00327193 0)
(0.136146 -0.00292861 0)
(0.145376 -0.00256186 0)
(0.153349 -0.00218452 0)
(0.159994 -0.00178086 0)
(0.165259 -0.001365 0)
(0.169101 -0.000943385 0)
(0.171467 -0.000514198 0)
(0.17227 -9.77697e-05 0)
(0.171697 0.000325407 0)
(0.169759 0.000772652 0)
(0.166444 0.00119527 0)
(0.161733 0.00161935 0)
(0.155624 0.00204504 0)
(0.148162 0.00241692 0)
(0.13941 0.00280406 0)
(0.129474 0.00311455 0)
(0.118463 0.00343482 0)
(0.106425 0.00372558 0)
(0.0936007 0.00391083 0)
(0.0801661 0.00409075 0)
(0.0662078 0.00421963 0)
(0.0519236 0.00424567 0)
(0.0374651 0.00427962 0)
(0.0231832 0.00424538 0)
(0.00925621 0.00411497 0)
(-0.00431213 0.00400297 0)
(-0.0174206 0.0038331 0)
(-0.0299976 0.00365819 0)
(-0.0419398 0.00345782 0)
(-0.0531833 0.00323408 0)
(-0.0636951 0.00301433 0)
(-0.073457 0.00278127 0)
(-0.0824623 0.00254418 0)
(-0.0907187 0.00231363 0)
(-0.0982372 0.0020763 0)
(-0.105018 0.00184912 0)
(-0.111007 0.00160935 0)
(-0.116163 0.00137089 0)
(-0.120526 0.0011414 0)
(-0.124094 0.000905379 0)
(-0.126834 0.000661439 0)
(-0.128801 0.000432264 0)
(-0.130016 0.000198424 0)
(-0.13044 -1.04668e-05 0)
(-0.130079 -0.000198468 0)
(-0.129032 -0.000403591 0)
(-0.127217 -0.000570139 0)
(-0.124842 -0.000722179 0)
(-0.121974 -0.000892609 0)
(-0.118418 -0.00102387 0)
(-0.114433 -0.0011791 0)
(-0.109943 -0.00131361 0)
(-0.104898 -0.00143911 0)
(-0.0995358 -0.00158833 0)
(-0.0934777 -0.00174086 0)
(-0.0869465 -0.00189708 0)
(-0.0799481 -0.00207454 0)
(-0.0721337 -0.00225774 0)
(-0.0637429 -0.00246904 0)
(-0.0548021 -0.00267048 0)
(-0.0452318 -0.00288153 0)
(-0.0348738 -0.00308195 0)
(-0.0239566 -0.00327714 0)
(-0.012535 -0.00343704 0)
(-0.000727474 -0.00357021 0)
(0.0114939 -0.00369905 0)
(0.0242151 -0.00377616 0)
(0.037165 -0.0038329 0)
(0.0502267 -0.00384646 0)
(0.0632673 -0.00383214 0)
(0.0761707 -0.00378581 0)
(0.0887804 -0.00368505 0)
(0.100952 -0.00354954 0)
(0.112574 -0.00336387 0)
(0.12349 -0.00312594 0)
(0.133532 -0.00285179 0)
(0.142525 -0.00250761 0)
(0.150338 -0.00211914 0)
(0.156796 -0.0017027 0)
(0.161746 -0.00124621 0)
(0.165128 -0.000774765 0)
(0.166865 -0.000255174 0)
(0.166895 0.000237526 0)
(0.165166 0.000756243 0)
(0.161766 0.00125851 0)
(0.156749 0.00173459 0)
(0.150152 0.00217993 0)
(0.142115 0.00258694 0)
(0.132791 0.00295634 0)
(0.122323 0.00327185 0)
(0.110858 0.00353692 0)
(0.0986254 0.00374098 0)
(0.0857937 0.00388341 0)
(0.0725333 0.00398319 0)
(0.0590642 0.00403793 0)
(0.045553 0.00400866 0)
(0.0321608 0.00394749 0)
(0.0190741 0.00383822 0)
(0.00641245 0.00370556 0)
(-0.00574319 0.00353769 0)
(-0.0173378 0.00336114 0)
(-0.0283152 0.00317588 0)
(-0.0386527 0.00298004 0)
(-0.0483459 0.00279128 0)
(-0.0574038 0.00259025 0)
(-0.0657898 0.00239264 0)
(-0.073519 0.00220632 0)
(-0.0805998 0.00201386 0)
(-0.0870843 0.00184001 0)
(-0.0929598 0.00164538 0)
(-0.0982041 0.00149134 0)
(-0.102857 0.00129262 0)
(-0.106911 0.00111646 0)
(-0.110381 0.000950665 0)
(-0.113295 0.000790988 0)
(-0.115665 0.000625923 0)
(-0.117505 0.000467155 0)
(-0.118816 0.000308739 0)
(-0.11959 0.00015913 0)
(-0.119856 -1.49872e-06 0)
(-0.119579 -0.000166448 0)
(-0.11872 -0.000333984 0)
(-0.117299 -0.000508861 0)
(-0.11529 -0.000686959 0)
(-0.112678 -0.000868153 0)
(-0.109438 -0.00105877 0)
(-0.105546 -0.00125552 0)
(-0.100982 -0.0014643 0)
(-0.0957065 -0.00167241 0)
(-0.0897042 -0.00188816 0)
(-0.0830007 -0.00210829 0)
(-0.0755593 -0.00231654 0)
(-0.0673839 -0.00253647 0)
(-0.0585164 -0.00274152 0)
(-0.0489704 -0.00295116 0)
(-0.0387556 -0.00312752 0)
(-0.027921 -0.00330035 0)
(-0.0165463 -0.00345627 0)
(-0.00468916 -0.00359486 0)
(0.00757669 -0.00369656 0)
(0.0201428 -0.00377951 0)
(0.0329159 -0.00382086 0)
(0.045783 -0.00382665 0)
(0.058612 -0.00380185 0)
(0.0712834 -0.00373147 0)
(0.0836545 -0.00362944 0)
(0.0956086 -0.00347973 0)
(0.106995 -0.00328366 0)
(0.117637 -0.00304975 0)
(0.127426 -0.00276582 0)
(0.136203 -0.00244565 0)
(0.143843 -0.00209233 0)
(0.15024 -0.00170843 0)
(0.155291 -0.00130004 0)
(0.158943 -0.000870758 0)
(0.161137 -0.000430078 0)
(0.161829 7.04386e-06 0)
(0.161051 0.00044933 0)
(0.158754 0.000894863 0)
(0.155028 0.00132003 0)
(0.149902 0.00172774 0)
(0.143441 0.00211457 0)
(0.135724 0.00247354 0)
(0.12686 0.00279984 0)
(0.116953 0.00308664 0)
(0.106149 0.00333533 0)
(0.0945874 0.00353917 0)
(0.0824119 0.00369597 0)
(0.0697873 0.00380933 0)
(0.0568673 0.00387291 0)
(0.043795 0.0038987 0)
(0.0307046 0.0038943 0)
(0.0176919 0.003843 0)
(0.00490272 0.00377096 0)
(-0.00759213 0.00366621 0)
(-0.019693 0.00353703 0)
(-0.0313301 0.00338069 0)
(-0.0424189 0.00321498 0)
(-0.0529054 0.00303411 0)
(-0.062778 0.00284327 0)
(-0.0719968 0.00264059 0)
(-0.0805161 0.0024338 0)
(-0.0883269 0.00221465 0)
(-0.0953967 0.00199183 0)
(-0.101718 0.00176577 0)
(-0.107279 0.00154104 0)
(-0.112072 0.00131735 0)
(-0.11612 0.00109742 0)
(-0.119435 0.00087583 0)
(-0.122038 0.000666245 0)
(-0.123953 0.000479325 0)
(-0.125211 0.000284095 0)
(-0.125857 0.000101073 0)
(-0.125892 -8.46758e-05 0)
(-0.125336 -0.000259575 0)
(-0.124178 -0.000423258 0)
(-0.122417 -0.000605881 0)
(-0.120095 -0.000775855 0)
(-0.117177 -0.000952686 0)
(-0.113683 -0.0011217 0)
(-0.109617 -0.0012979 0)
(-0.10497 -0.00147522 0)
(-0.0997273 -0.00164173 0)
(-0.0939157 -0.00182491 0)
(-0.0874978 -0.00198952 0)
(-0.0805009 -0.00216379 0)
(-0.0729275 -0.00233715 0)
(-0.0647863 -0.00250343 0)
(-0.0560928 -0.0026642 0)
(-0.0468767 -0.00282632 0)
(-0.0371335 -0.00297702 0)
(-0.0268718 -0.00312005 0)
(-0.0161358 -0.00325948 0)
(-0.00494432 -0.00339018 0)
(0.00665943 -0.00351165 0)
(0.0186153 -0.00360273 0)
(0.0308596 -0.00367487 0)
(0.0432737 -0.00370977 0)
(0.0557607 -0.00371836 0)
(0.0681917 -0.00367314 0)
(0.080427 -0.00360343 0)
(0.0923473 -0.0034806 0)
(0.103784 -0.00331354 0)
(0.114561 -0.00310283 0)
(0.124535 -0.00282758 0)
(0.133543 -0.0025194 0)
(0.141415 -0.00215634 0)
(0.14801 -0.00175805 0)
(0.153196 -0.00132048 0)
(0.156878 -0.000864762 0)
(0.158968 -0.000379584 0)
(0.159409 0.000112291 0)
(0.158173 0.000616939 0)
(0.15522 0.00110933 0)
(0.150679 0.00159456 0)
(0.144584 0.00203979 0)
(0.137049 0.00245144 0)
(0.128147 0.00282811 0)
(0.118117 0.00317282 0)
(0.107092 0.0034372 0)
(0.0952122 0.00365362 0)
(0.0825794 0.00380743 0)
(0.069472 0.00394013 0)
(0.0561562 0.00398656 0)
(0.0427239 0.00395788 0)
(0.0294192 0.00390868 0)
(0.0164308 0.00380482 0)
(0.0043862 0.00361221 0)
(-0.00688666 0.00346125 0)
(-0.0177776 0.00328084 0)
(-0.0280137 0.00307222 0)
(-0.037556 0.00287445 0)
(-0.0464318 0.00267878 0)
(-0.0545982 0.00247274 0)
(-0.0621462 0.00228898 0)
(-0.0690544 0.00209762 0)
(-0.0753944 0.00193738 0)
(-0.0812808 0.00178276 0)
(-0.0866649 0.00163341 0)
(-0.091634 0.00150687 0)
(-0.0963105 0.00138748 0)
(-0.100588 0.00125832 0)
(-0.104538 0.00113922 0)
(-0.108121 0.00100003 0)
(-0.111281 0.000860216 0)
(-0.114039 0.000708388 0)
(-0.116266 0.000539678 0)
(-0.117995 0.000370254 0)
(-0.119142 0.000204944 0)
(-0.119625 1.07317e-05 0)
(-0.119432 -0.000199658 0)
(-0.118491 -0.000405384 0)
(-0.116812 -0.000623106 0)
(-0.114416 -0.000842284 0)
(-0.111172 -0.00106759 0)
(-0.107191 -0.00128691 0)
(-0.102479 -0.00151714 0)
(-0.0969543 -0.00176259 0)
(-0.0906751 -0.00197888 0)
(-0.0836197 -0.00219612 0)
(-0.0757629 -0.00245334 0)
(-0.0671277 -0.00265864 0)
(-0.0576857 -0.00289015 0)
(-0.0475577 -0.00307469 0)
(-0.0369 -0.00325685 0)
(-0.0256209 -0.0034355 0)
(-0.01375 -0.0035541 0)
(-0.00172654 -0.00362735 0)
(0.0104771 -0.0037288 0)
(0.0230069 -0.00374817 0)
(0.035618 -0.00377214 0)
(0.0481735 -0.00371778 0)
(0.0605199 -0.00362253 0)
(0.0725348 -0.00352521 0)
(0.0840964 -0.00335977 0)
(0.0950731 -0.00315923 0)
(0.105353 -0.00294886 0)
(0.114825 -0.00268635 0)
(0.12339 -0.00241015 0)
(0.130957 -0.00209507 0)
(0.137441 -0.00175941 0)
(0.14277 -0.00140809 0)
(0.146887 -0.00103712 0)
(0.149755 -0.00065396 0)
(0.151335 -0.000265993 0)
(0.15158 0.000114902 0)
(0.150495 0.000514421 0)
(0.148049 0.000912107 0)
(0.144312 0.00130336 0)
(0.139296 0.00167016 0)
(0.133052 0.0020309 0)
(0.125641 0.00237516 0)
(0.117145 0.0026678 0)
(0.107667 0.00295559 0)
(0.0973114 0.00321436 0)
(0.086199 0.00339544 0)
(0.0744622 0.00357717 0)
(0.0622379 0.00367181 0)
(0.0496698 0.00376889 0)
(0.0368971 0.00382286 0)
(0.0240326 0.00378652 0)
(0.0109038 0.00375735 0)
(-0.00158432 0.00368925 0)
(-0.0133429 0.0035479 0)
(-0.0250271 0.00341087 0)
(-0.0361737 0.00321589 0)
(-0.046697 0.00303119 0)
(-0.0565358 0.00282734 0)
(-0.0656405 0.00259351 0)
(-0.0739902 0.00237127 0)
(-0.0827417 0.0021422 0)
(-0.151138 -0.0012575 0)
(-0.148564 -0.00168086 0)
(-0.14474 -0.00210595 0)
(-0.140046 -0.0025387 0)
(-0.134465 -0.0029924 0)
(-0.127978 -0.00344096 0)
(-0.120571 -0.0039161 0)
(-0.112232 -0.00437033 0)
(-0.102961 -0.00481767 0)
(-0.0927699 -0.00529538 0)
(-0.0816817 -0.00571195 0)
(-0.0697417 -0.00609151 0)
(-0.0570127 -0.00651432 0)
(-0.0435746 -0.00680739 0)
(-0.0295325 -0.00714271 0)
(-0.0149972 -0.00731637 0)
(-9.87413e-05 -0.00741601 0)
(0.0150197 -0.00756198 0)
(0.0302099 -0.00752188 0)
(0.0453197 -0.00740424 0)
(0.0601974 -0.00731591 0)
(0.0746898 -0.00705253 0)
(0.0886415 -0.00671855 0)
(0.101907 -0.00639146 0)
(0.114344 -0.00592702 0)
(0.125828 -0.00545468 0)
(0.136238 -0.00488217 0)
(0.145474 -0.00427068 0)
(0.153453 -0.00364169 0)
(0.160102 -0.00296905 0)
(0.16537 -0.0022766 0)
(0.169212 -0.00157522 0)
(0.17158 -0.000860037 0)
(0.172393 -0.00015843 0)
(0.171807 0.000545766 0)
(0.169872 0.00128884 0)
(0.166557 0.0019925 0)
(0.161844 0.00269937 0)
(0.155731 0.00340912 0)
(0.148263 0.00402913 0)
(0.139505 0.00467429 0)
(0.129559 0.00519299 0)
(0.118539 0.0057265 0)
(0.106489 0.0062112 0)
(0.09365 0.00652057 0)
(0.080201 0.00682026 0)
(0.0662281 0.00703511 0)
(0.0519321 0.00707838 0)
(0.0374604 0.00713381 0)
(0.0231611 0.00707804 0)
(0.0092244 0.0068597 0)
(-0.00434995 0.00667376 0)
(-0.0174661 0.0063901 0)
(-0.0300499 0.00609793 0)
(-0.0419958 0.00576406 0)
(-0.0532412 0.00539113 0)
(-0.063756 0.00502429 0)
(-0.073518 0.0046368 0)
(-0.0825235 0.00423993 0)
(-0.0907805 0.00385549 0)
(-0.0982963 0.00346027 0)
(-0.105077 0.00308191 0)
(-0.111067 0.00268167 0)
(-0.116223 0.00228448 0)
(-0.120585 0.00190139 0)
(-0.124152 0.00150911 0)
(-0.126891 0.00110218 0)
(-0.12886 0.000719805 0)
(-0.130071 0.000328838 0)
(-0.130486 -1.7092e-05 0)
(-0.130119 -0.000330614 0)
(-0.12907 -0.000673282 0)
(-0.12725 -0.000953128 0)
(-0.124868 -0.0012025 0)
(-0.121997 -0.00148896 0)
(-0.118435 -0.00171021 0)
(-0.114442 -0.00196438 0)
(-0.109946 -0.00218919 0)
(-0.1049 -0.00239704 0)
(-0.0995387 -0.00265187 0)
(-0.0934715 -0.00290164 0)
(-0.0869467 -0.00316462 0)
(-0.0799384 -0.00345443 0)
(-0.0721291 -0.00376202 0)
(-0.0637431 -0.00411227 0)
(-0.0548123 -0.00445209 0)
(-0.0452485 -0.00480363 0)
(-0.0348972 -0.00513875 0)
(-0.0239775 -0.00545521 0)
(-0.0125606 -0.00572763 0)
(-0.000763567 -0.00594995 0)
(0.0114665 -0.0061621 0)
(0.0241763 -0.00629806 0)
(0.0371268 -0.00638708 0)
(0.0501952 -0.0064072 0)
(0.0632352 -0.00638503 0)
(0.0761492 -0.00630759 0)
(0.0887699 -0.00614196 0)
(0.100952 -0.00592125 0)
(0.112582 -0.00561832 0)
(0.123517 -0.00520841 0)
(0.13357 -0.0047514 0)
(0.14258 -0.00418101 0)
(0.150402 -0.00353669 0)
(0.15687 -0.00284309 0)
(0.161831 -0.00207693 0)
(0.16522 -0.00128818 0)
(0.16696 -0.000426099 0)
(0.166983 0.00039934 0)
(0.165254 0.00126239 0)
(0.161852 0.00209602 0)
(0.156827 0.00288828 0)
(0.150227 0.00363719 0)
(0.14218 0.00431715 0)
(0.132841 0.00493025 0)
(0.122358 0.00545684 0)
(0.110881 0.0058967 0)
(0.0986318 0.00623765 0)
(0.0857851 0.00647833 0)
(0.072511 0.00663395 0)
(0.059029 0.00673287 0)
(0.0455068 0.00668884 0)
(0.0321004 0.00658404 0)
(0.0189954 0.00639701 0)
(0.00633235 0.00616972 0)
(-0.00582147 0.00590517 0)
(-0.0174222 0.00560141 0)
(-0.0284078 0.0052935 0)
(-0.038745 0.00496827 0)
(-0.0484444 0.00464395 0)
(-0.0574955 0.00432059 0)
(-0.0658782 0.00398521 0)
(-0.0736004 0.00368581 0)
(-0.080687 0.00335759 0)
(-0.0871709 0.00306449 0)
(-0.093043 0.00274581 0)
(-0.0982982 0.00247289 0)
(-0.102942 0.00215697 0)
(-0.106989 0.00186492 0)
(-0.110466 0.00158182 0)
(-0.11338 0.00131635 0)
(-0.115745 0.00104322 0)
(-0.117589 0.000780576 0)
(-0.118897 0.000512592 0)
(-0.119662 0.000272365 0)
(-0.119934 1.89163e-06 0)
(-0.119666 -0.000285678 0)
(-0.118809 -0.000560729 0)
(-0.117374 -0.00083637 0)
(-0.115376 -0.00114615 0)
(-0.112765 -0.00144991 0)
(-0.109524 -0.00175962 0)
(-0.105638 -0.00209248 0)
(-0.101077 -0.00244923 0)
(-0.0957942 -0.002779 0)
(-0.0897967 -0.00314729 0)
(-0.0830908 -0.00351175 0)
(-0.0756535 -0.00386478 0)
(-0.0674785 -0.00423172 0)
(-0.0586048 -0.00457076 0)
(-0.0490547 -0.00491411 0)
(-0.0388328 -0.00520997 0)
(-0.0280029 -0.00550957 0)
(-0.0166242 -0.00576624 0)
(-0.00475053 -0.00598421 0)
(0.00751655 -0.00616805 0)
(0.0200932 -0.00630035 0)
(0.0328834 -0.00636306 0)
(0.04575 -0.00638734 0)
(0.0585902 -0.0063348 0)
(0.0712713 -0.00622569 0)
(0.083658 -0.00604575 0)
(0.0956285 -0.0057983 0)
(0.107018 -0.00547745 0)
(0.117677 -0.00508095 0)
(0.127473 -0.0046155 0)
(0.13626 -0.00408009 0)
(0.143913 -0.00348913 0)
(0.150318 -0.00284804 0)
(0.155376 -0.0021608 0)
(0.159026 -0.00145283 0)
(0.161223 -0.000719198 0)
(0.161918 1.30881e-05 0)
(0.161132 0.000750593 0)
(0.158838 0.00149215 0)
(0.155114 0.00220365 0)
(0.149981 0.00288525 0)
(0.143509 0.00352453 0)
(0.135784 0.004121 0)
(0.126909 0.00466626 0)
(0.116996 0.0051475 0)
(0.106182 0.00556159 0)
(0.0946074 0.00590514 0)
(0.0824179 0.00616069 0)
(0.0697793 0.00635259 0)
(0.0568504 0.00645523 0)
(0.043769 0.00650399 0)
(0.0306666 0.00649035 0)
(0.0176515 0.0064139 0)
(0.00484226 0.00628094 0)
(-0.00765349 0.00610799 0)
(-0.0197651 0.00589408 0)
(-0.0313978 0.00563675 0)
(-0.0424895 0.00536791 0)
(-0.0529885 0.00505581 0)
(-0.0628644 0.00473686 0)
(-0.0720828 0.00440285 0)
(-0.0806056 0.00405327 0)
(-0.0884103 0.00369393 0)
(-0.0954846 0.00332293 0)
(-0.101807 0.00294181 0)
(-0.107364 0.00257243 0)
(-0.112162 0.00219326 0)
(-0.116208 0.00182577 0)
(-0.119523 0.0014645 0)
(-0.122121 0.00111231 0)
(-0.124035 0.000794557 0)
(-0.125295 0.000475258 0)
(-0.125933 0.000168562 0)
(-0.125964 -0.000137204 0)
(-0.125413 -0.000438825 0)
(-0.12425 -0.000699239 0)
(-0.122498 -0.00101278 0)
(-0.120171 -0.00129538 0)
(-0.117251 -0.00158602 0)
(-0.11376 -0.00187325 0)
(-0.109689 -0.00216364 0)
(-0.10504 -0.00245265 0)
(-0.0998086 -0.00274301 0)
(-0.0939866 -0.00303585 0)
(-0.0875683 -0.00331062 0)
(-0.0805769 -0.00360896 0)
(-0.0730036 -0.00389938 0)
(-0.0648574 -0.00417471 0)
(-0.056166 -0.00444463 0)
(-0.0469435 -0.00470981 0)
(-0.0371976 -0.00495478 0)
(-0.0269405 -0.00520385 0)
(-0.0162048 -0.00543371 0)
(-0.00500864 -0.00565935 0)
(0.00660504 -0.00584839 0)
(0.0185708 -0.00600272 0)
(0.0308171 -0.00612856 0)
(0.0432457 -0.00618296 0)
(0.0557412 -0.00619274 0)
(0.0681784 -0.00613205 0)
(0.0804227 -0.00601005 0)
(0.0923619 -0.00580161 0)
(0.103812 -0.00552366 0)
(0.114598 -0.00517581 0)
(0.124593 -0.00470996 0)
(0.133606 -0.00419965 0)
(0.14149 -0.00359752 0)
(0.148095 -0.00293524 0)
(0.153287 -0.00221195 0)
(0.156985 -0.00143561 0)
(0.15908 -0.000629579 0)
(0.159517 0.000182748 0)
(0.158273 0.00103158 0)
(0.155332 0.00185925 0)
(0.150777 0.00265376 0)
(0.144677 0.00340177 0)
(0.137131 0.00409004 0)
(0.128221 0.00470916 0)
(0.118176 0.00529248 0)
(0.107138 0.00573388 0)
(0.0952432 0.00609597 0)
(0.0825926 0.00634238 0)
(0.0694862 0.0065668 0)
(0.0561475 0.00665069 0)
(0.0427093 0.00660053 0)
(0.0293959 0.00651625 0)
(0.0163808 0.00634095 0)
(0.00433744 0.0060235 0)
(-0.0069354 0.00577313 0)
(-0.017841 0.0054641 0)
(-0.0280742 0.00512669 0)
(-0.0376243 0.00479257 0)
(-0.0465061 0.00446436 0)
(-0.054674 0.00412121 0)
(-0.0622237 0.00381505 0)
(-0.0691293 0.00349585 0)
(-0.0754661 0.00323219 0)
(-0.0813551 0.00297283 0)
(-0.0867373 0.00272282 0)
(-0.0917023 0.00251144 0)
(-0.0963741 0.00231228 0)
(-0.100652 0.00209587 0)
(-0.104602 0.00189713 0)
(-0.108182 0.00166571 0)
(-0.111342 0.00143244 0)
(-0.114097 0.0011835 0)
(-0.116325 0.000902878 0)
(-0.11805 0.000618812 0)
(-0.119203 0.000338292 0)
(-0.119684 1.83537e-05 0)
(-0.119494 -0.000331758 0)
(-0.11855 -0.000661941 0)
(-0.116872 -0.00104129 0)
(-0.114476 -0.00140247 0)
(-0.111232 -0.00177863 0)
(-0.107253 -0.00214478 0)
(-0.102541 -0.00252773 0)
(-0.097015 -0.00293578 0)
(-0.0907353 -0.00329972 0)
(-0.0836808 -0.00366187 0)
(-0.0758229 -0.00408876 0)
(-0.067184 -0.00443194 0)
(-0.0577395 -0.00481747 0)
(-0.0476104 -0.00512644 0)
(-0.0369467 -0.00542769 0)
(-0.025659 -0.00572663 0)
(-0.0137799 -0.00592464 0)
(-0.00174894 -0.00604658 0)
(0.0104623 -0.00621609 0)
(0.023002 -0.00624857 0)
(0.0356237 -0.00628846 0)
(0.0481893 -0.00619793 0)
(0.0605455 -0.0060393 0)
(0.072571 -0.00587686 0)
(0.0841419 -0.00560119 0)
(0.0951271 -0.00526702 0)
(0.105416 -0.00491603 0)
(0.114897 -0.00447854 0)
(0.123469 -0.00401823 0)
(0.131042 -0.0034932 0)
(0.137532 -0.00293292 0)
(0.142866 -0.00234751 0)
(0.146986 -0.00172917 0)
(0.149856 -0.00109165 0)
(0.151438 -0.000447814 0)
(0.151689 0.000194371 0)
(0.150595 0.000859444 0)
(0.148152 0.00152068 0)
(0.144413 0.00217277 0)
(0.139392 0.00278437 0)
(0.133143 0.0033858 0)
(0.125726 0.00395974 0)
(0.117222 0.00444762 0)
(0.107736 0.00492752 0)
(0.0973714 0.00535897 0)
(0.0862481 0.00566082 0)
(0.0745007 0.00596383 0)
(0.0622647 0.00612158 0)
(0.0496852 0.0062834 0)
(0.0369009 0.00637336 0)
(0.0240256 0.00631254 0)
(0.0108866 0.00626379 0)
(-0.00161117 0.00615038 0)
(-0.0133782 0.00591461 0)
(-0.0250706 0.00568594 0)
(-0.0362226 0.0053607 0)
(-0.046751 0.00505265 0)
(-0.0565935 0.0047127 0)
(-0.0656999 0.0043228 0)
(-0.0740511 0.00395223 0)
(-0.0828029 0.0035703 0)
(-0.151237 -0.00175991 0)
(-0.148664 -0.00235262 0)
(-0.144843 -0.00294773 0)
(-0.140151 -0.00355358 0)
(-0.134572 -0.00418884 0)
(-0.128087 -0.00481699 0)
(-0.120681 -0.00548241 0)
(-0.112342 -0.00611859 0)
(-0.103069 -0.00674522 0)
(-0.0928764 -0.00741446 0)
(-0.0817823 -0.00799807 0)
(-0.0698342 -0.00853002 0)
(-0.0570968 -0.00912255 0)
(-0.043646 -0.00953316 0)
(-0.0295911 -0.0100027 0)
(-0.0150396 -0.0102462 0)
(-0.000124986 -0.0103875 0)
(0.0150102 -0.0105912 0)
(0.0302185 -0.0105348 0)
(0.0453461 -0.0103701 0)
(0.0602429 -0.0102465 0)
(0.0747526 -0.00987762 0)
(0.0887207 -0.0094098 0)
(0.102004 -0.00895178 0)
(0.114456 -0.00830121 0)
(0.125955 -0.00763956 0)
(0.136376 -0.00683756 0)
(0.145621 -0.00598111 0)
(0.153609 -0.00510048 0)
(0.160264 -0.00415876 0)
(0.165536 -0.00318927 0)
(0.169383 -0.00220676 0)
(0.171753 -0.00120688 0)
(0.172568 -0.000217678 0)
(0.171971 0.000774706 0)
(0.170043 0.00180684 0)
(0.166727 0.00279033 0)
(0.16201 0.00378012 0)
(0.155892 0.0047743 0)
(0.148415 0.00564286 0)
(0.139647 0.00654593 0)
(0.129686 0.00727454 0)
(0.118651 0.00802103 0)
(0.106584 0.00869977 0)
(0.0937238 0.00913398 0)
(0.080253 0.00955318 0)
(0.0662585 0.00985415 0)
(0.0519445 0.00991478 0)
(0.0374531 0.009989 0)
(0.0231278 0.00991408 0)
(0.00917678 0.00960737 0)
(-0.00440698 0.00934753 0)
(-0.0175346 0.00894908 0)
(-0.030128 0.00853968 0)
(-0.0420806 0.0080712 0)
(-0.0533289 0.00754907 0)
(-0.0638471 0.00703535 0)
(-0.0736103 0.00649207 0)
(-0.0826143 0.00593663 0)
(-0.0908723 0.00539741 0)
(-0.0983871 0.00484209 0)
(-0.105167 0.00431277 0)
(-0.111158 0.00375343 0)
(-0.116311 0.00319717 0)
(-0.120672 0.00266281 0)