/*--------------------------------*- C++ -*----------------------------------*\
| =========                 |                                                 |
| \\      /  F ield         | OpenFOAM: The Open Source CFD Toolbox           |
|  \\    /   O peration     | Version:  3.0.1                                 |
|   \\  /    A nd           | Web:      www.OpenFOAM.org                      |
|    \\/     M anipulation  |                                                 |
\*---------------------------------------------------------------------------*/
FoamFile
{
    version     2.0;
    format      ascii;
    class       volScalarField;
    location    "95.6";
    object      p_rgh;
}
// * * * * * * * * * * * * * * * * * * * * * * * * * * * * * * * * * * * * * //

dimensions      [1 -1 -2 0 0 0 0];

internalField   nonuniform List<scalar> 
21420
(
-328.384
-324.647
-319.445
-312.752
-304.529
-294.713
-283.251
-270.074
-255.145
-238.424
-219.877
-199.473
-177.205
-153.084
-127.134
-99.4209
-70.0273
-39.0509
-6.76386
23.3145
57.6194
92.548
127.687
162.727
197.272
230.941
263.314
293.974
322.55
348.642
371.871
391.923
408.508
421.386
430.376
435.363
436.173
432.94
425.67
414.449
399.475
380.989
359.251
334.564
307.306
277.842
246.548
213.843
180.12
145.741
111.092
76.4921
42.3055
11.2203
-20.7809
-51.756
-81.4291
-109.617
-136.208
-161.109
-184.261
-205.634
-225.205
-242.979
-258.969
-273.187
-285.661
-296.418
-305.482
-312.873
-318.593
-322.67
-325.092
-325.845
-325.046
-322.647
-318.594
-312.885
-305.503
-296.449
-285.719
-273.305
-259.217
-243.465
-226.052
-206.999
-186.339
-164.088
-140.282
-114.961
-88.1741
-59.9874
-30.4955
0.194831
31.9328
64.4347
97.4892
130.817
164.102
197.001
229.151
260.172
289.68
317.294
342.637
365.353
385.111
401.605
414.565
423.767
429.048
430.184
427.273
420.243
409.12
394.058
375.253
352.958
327.488
299.207
268.52
235.861
201.681
166.441
130.599
94.5941
58.8405
23.7701
-10.3603
-43.207
-74.5219
-104.103
-131.797
-157.495
-181.132
-202.681
-222.147
-239.565
-254.989
-268.486
-280.134
-290.012
-298.199
-304.768
-309.788
-313.325
-315.431
-316.125
-315.418
-313.382
-309.999
-305.267
-299.174
-291.7
-282.818
-272.497
-260.703
-247.396
-232.544
-216.115
-198.079
-178.417
-157.12
-134.196
-109.672
-83.5964
-56.0512
-27.145
2.96706
34.0936
66.5406
99.0861
131.966
164.83
197.309
229.009
259.517
288.406
315.248
339.62
361.121
379.378
394.058
404.881
411.628
414.093
412.309
406.207
395.908
381.545
363.365
341.658
316.772
289.104
259.085
227.171
193.828
159.525
124.727
89.8719
55.4232
21.6499
-11.0823
-42.5152
-72.4416
-100.701
-127.177
-151.79
-174.499
-195.293
-214.186
-231.216
-246.435
-259.907
-271.697
-281.868
-290.483
-297.595
-303.249
-307.487
-310.351
-311.854
-311.998
-310.814
-308.325
-304.51
-299.362
-292.867
-285.002
-275.749
-265.082
-252.976
-239.405
-224.344
-207.768
-189.66
-170.008
-148.809
-126.079
-101.852
-76.1859
-49.1617
-20.8918
8.47901
38.7682
69.754
101.339
132.96
164.465
195.508
225.722
254.72
282.099
307.452
330.371
350.461
367.349
380.702
390.238
395.744
397.001
394.049
386.855
375.488
360.141
341.066
318.588
293.094
265.01
234.793
202.928
169.907
136.207
102.375
68.6743
35.5282
3.28019
-27.777
-57.4103
-85.4456
-111.75
-136.243
-158.888
-179.665
-198.602
-215.72
-231.061
-244.683
-256.643
-267.018
-275.884
-283.32
-289.415
-294.242
-297.881
-300.41
-301.858
-302.259
-301.686
-300.098
-297.481
-293.772
-288.896
-282.771
-275.283
-266.31
-255.736
-243.436
-229.305
-213.244
-195.178
-175.09
-152.976
-128.867
-102.867
-75.118
-45.7873
-15.1063
16.6798
47.5135
80.1642
112.795
145.042
176.461
206.665
235.25
261.822
286.065
307.655
326.298
341.772
353.896
362.536
367.618
369.018
366.724
360.878
351.627
339.123
323.587
305.264
284.431
261.363
236.354
209.703
181.714
152.726
123.059
93.0797
63.2563
36.4306
7.7202
-20.8982
-48.8566
-75.821
-101.628
-126.108
-328.44
-324.704
-319.504
-312.813
-304.593
-294.779
-283.32
-270.146
-255.22
-238.502
-219.956
-199.554
-177.288
-153.167
-127.216
-99.5028
-70.1069
-39.1243
-6.81358
23.2405
57.5722
92.514
127.666
162.721
197.281
230.967
263.358
294.036
322.63
348.739
371.985
392.051
408.648
421.535
430.532
435.522
436.338
433.094
425.819
414.59
399.606
381.106
359.352
334.648
307.373
277.891
246.58
213.858
180.12
145.726
111.064
76.4538
42.2601
11.1554
-20.8503
-51.8295
-81.506
-109.697
-136.288
-161.19
-184.342
-205.714
-225.283
-243.056
-259.043
-273.26
-285.732
-296.488
-305.551
-312.941
-318.661
-322.737
-325.159
-325.91
-325.115
-322.715
-318.663
-312.955
-305.574
-296.521
-285.792
-273.378
-259.291
-243.539
-226.128
-207.077
-186.416
-164.166
-140.361
-115.039
-88.2518
-60.0632
-30.5677
0.127725
31.8726
64.3833
97.4482
130.788
164.086
197
229.166
260.204
289.729
317.36
342.719
365.452
385.225
401.732
414.703
423.915
429.201
430.345
427.426
420.393
409.264
394.191
375.372
353.061
327.573
299.273
268.566
235.887
201.687
166.429
130.569
94.5487
58.7804
23.6995
-10.4415
-43.2957
-74.6162
-104.201
-131.897
-157.595
-181.231
-202.779
-222.242
-239.656
-255.076
-268.57
-280.214
-290.088
-298.272
-304.837
-309.855
-313.39
-315.494
-316.184
-315.479
-313.443
-310.06
-305.329
-299.237
-291.764
-282.883
-272.565
-260.772
-247.467
-232.618
-216.191
-198.157
-178.496
-157.2
-134.277
-109.752
-83.6752
-56.127
-27.2168
2.90194
34.0325
66.49
99.0433
131.937
164.816
197.311
229.028
259.554
288.462
315.323
339.715
361.234
379.506
394.2
405.034
411.788
414.263
412.468
406.364
396.057
381.683
363.488
341.764
316.859
289.172
259.132
227.197
193.834
159.512
124.697
89.8259
55.3654
21.5805
-11.16
-42.5992
-72.5299
-100.792
-127.269
-151.881
-174.589
-195.381
-214.271
-231.298
-246.514
-259.982
-271.769
-281.937
-290.549
-297.659
-303.312
-307.548
-310.411
-311.913
-312.054
-310.872
-308.384
-304.569
-299.422
-292.927
-285.064
-275.813
-265.147
-253.042
-239.473
-224.414
-207.839
-189.733
-170.082
-148.884
-126.154
-101.926
-76.2584
-49.2316
-20.9573
8.41914
38.7162
69.7137
101.301
132.937
164.456
195.514
225.745
254.76
282.157
307.528
330.466
350.573
367.477
380.844
390.391
395.902
397.167
394.209
387.011
375.635
360.276
341.185
318.689
293.175
265.07
234.833
202.948
169.908
136.191
102.344
68.6298
35.4727
3.21586
-27.848
-57.4861
-85.5244
-111.83
-136.324
-158.968
-179.743
-198.678
-215.794
-231.132
-244.75
-256.708
-267.079
-275.941
-283.374
-289.465
-294.289
-297.926
-300.453
-301.898
-302.299
-301.726
-300.139
-297.524
-293.818
-288.946
-282.825
-275.343
-266.374
-255.806
-243.511
-229.385
-213.327
-195.265
-175.178
-153.064
-128.953
-102.951
-75.197
-45.86
-15.1717
16.6212
47.4823
80.1429
112.788
145.051
176.486
206.708
235.309
261.898
286.156
307.76
326.415
341.899
354.03
362.675
367.758
369.164
366.858
361.01
351.75
339.236
323.689
305.352
284.507
261.425
236.402
209.737
181.735
152.734
123.053
93.0608
63.224
36.4058
7.68307
-20.9462
-48.9136
-75.8852
-101.698
-126.182
-328.551
-324.819
-319.623
-312.936
-304.721
-294.912
-283.459
-270.291
-255.369
-238.656
-220.115
-199.716
-177.453
-153.333
-127.382
-99.6666
-70.2661
-39.2716
-6.91391
23.0935
57.4785
92.4461
127.624
162.707
197.299
231.019
263.445
294.16
322.79
348.934
372.213
392.308
408.929
421.835
430.845
435.839
436.671
433.402
426.118
414.873
399.866
381.339
359.554
334.817
307.507
277.99
246.644
213.888
180.118
145.696
111.007
76.3772
42.1697
11.0256
-20.9889
-51.9763
-81.6596
-109.855
-136.449
-161.351
-184.503
-205.872
-225.439
-243.208
-259.191
-273.404
-285.873
-296.625
-305.686
-313.073
-318.792
-322.866
-325.29
-326.037
-325.247
-322.847
-318.795
-313.088
-305.709
-296.657
-285.929
-273.517
-259.431
-243.68
-226.27
-207.22
-186.561
-164.312
-140.506
-115.184
-88.3949
-60.2021
-30.6991
0.00658172
31.7656
64.294
97.3796
130.743
164.069
197.013
229.21
260.281
289.84
317.505
342.898
365.662
385.465
401.998
414.992
424.221
429.515
430.679
427.742
420.705
409.562
394.468
375.622
353.279
327.755
299.417
268.67
235.951
201.712
166.417
130.523
94.4709
58.6762
23.5693
-10.5899
-43.4586
-74.79
-104.382
-132.082
-157.781
-181.415
-202.958
-222.415
-239.823
-255.235
-268.721
-280.357
-290.224
-298.4
-304.96
-309.973
-313.504
-315.605
-316.289
-315.586
-313.549
-310.167
-305.437
-299.347
-291.876
-282.999
-272.685
-260.895
-247.594
-232.749
-216.326
-198.296
-178.638
-157.345
-134.422
-109.897
-83.817
-56.2633
-27.3451
2.78696
33.9266
66.4017
98.9718
131.892
164.8
197.327
229.079
259.641
288.588
315.487
339.916
361.47
379.774
394.495
405.35
412.119
414.612
412.796
406.69
396.365
381.969
363.745
341.986
317.044
289.316
259.235
227.259
193.857
159.498
124.648
89.7475
55.2588
21.4531
-11.3039
-42.7554
-72.6945
-100.961
-127.44
-152.052
-174.757
-195.544
-214.429
-231.45
-246.658
-260.12
-271.899
-282.062
-290.669
-297.774
-303.424
-307.658
-310.518
-312.017
-312.156
-310.977
-308.488
-304.674
-299.528
-293.035
-285.175
-275.926
-265.264
-253.162
-239.596
-224.54
-207.969
-189.866
-170.217
-149.02
-126.291
-102.061
-76.39
-49.3578
-21.075
8.31263
38.6251
69.6449
101.24
132.904
164.451
195.539
225.802
254.852
282.285
307.693
330.667
350.809
367.744
381.138
390.705
396.228
397.508
394.537
387.33
375.937
360.552
341.43
318.898
293.344
265.197
234.918
202.993
169.915
136.162
102.285
68.5443
35.3649
3.09034
-27.9871
-57.6348
-85.6795
-111.989
-136.483
-159.126
-179.898
-198.829
-215.94
-231.272
-244.884
-256.835
-267.199
-276.054
-283.48
-289.565
-294.383
-298.014
-300.537
-301.977
-302.378
-301.805
-300.221
-297.61
-293.91
-289.045
-282.933
-275.461
-266.503
-255.945
-243.661
-229.544
-213.494
-195.437
-175.354
-153.24
-129.127
-103.118
-75.3547
-46.0052
-15.3021
16.5062
47.4183
80.1004
112.773
145.068
176.537
206.793
235.429
262.05
286.339
307.971
326.65
342.153
354.299
362.953
368.038
369.457
367.129
361.274
351.996
339.462
323.891
305.53
284.658
261.548
236.498
209.806
181.778
152.75
123.042
93.023
63.1592
36.3564
7.60885
-21.0422
-49.0276
-76.0138
-101.838
-126.331
-328.719
-324.991
-319.801
-313.12
-304.913
-295.112
-283.667
-270.507
-255.593
-238.887
-220.352
-199.959
-177.7
-153.583
-127.631
-99.9124
-70.5052
-39.4944
-7.07332
22.8812
57.3393
92.3444
127.56
162.687
197.326
231.096
263.576
294.345
323.03
349.227
372.554
392.693
409.35
422.285
431.314
436.315
437.163
433.868
426.568
415.298
400.257
381.689
359.858
335.071
307.708
278.138
246.74
213.933
180.115
145.65
110.922
76.2619
42.0336
10.8312
-21.1969
-52.1966
-81.8902
-110.092
-136.69
-161.594
-184.744
-206.11
-225.672
-243.436
-259.414
-273.62
-286.084
-296.832
-305.888
-313.272
-318.988
-323.061
-325.483
-326.232
-325.445
-323.043
-318.993
-313.289
-305.912
-296.862
-286.135
-273.724
-259.64
-243.89
-226.482
-207.436
-186.777
-164.529
-140.725
-115.402
-88.6088
-60.4096
-30.8954
-0.174487
31.6064
64.1612
97.2781
130.678
164.044
197.032
229.277
260.398
290.008
317.724
343.167
365.98
385.827
402.4
415.427
424.682
429.99
431.178
428.223
421.175
410.011
394.886
375.999
353.608
328.03
299.634
268.828
236.049
201.751
166.4
130.454
94.3562
58.5226
23.3754
-10.8105
-43.7012
-75.0488
-104.651
-132.356
-158.057
-181.688
-203.225
-222.674
-240.071
-255.471
-268.945
-280.57
-290.426
-298.592
-305.143
-310.149
-313.673
-315.768
-316.446
-315.745
-313.706
-310.324
-305.597
-299.51
-292.043
-283.171
-272.862
-261.078
-247.784
-232.945
-216.528
-198.504
-178.85
-157.56
-134.639
-110.112
-84.0284
-56.4665
-27.5364
2.61609
33.7917
66.2481
98.8658
131.826
164.778
197.353
229.156
259.774
288.777
315.734
340.219
361.826
380.179
394.94
405.827
412.616
415.133
413.296
407.181
396.831
382.4
364.132
342.322
317.323
289.535
259.393
227.355
193.892
159.478
124.577
89.6331
55.0985
21.2635
-11.5182
-42.9883
-72.9402
-101.214
-127.696
-152.307
-175.008
-195.789
-214.665
-231.675
-246.874
-260.325
-272.094
-282.248
-290.848
-297.946
-303.59
-307.821
-310.676
-312.171
-312.31
-311.132
-308.643
-304.83
-299.686
-293.196
-285.34
-276.096
-265.438
-253.341
-239.78
-224.728
-208.162
-190.063
-170.419
-149.224
-126.494
-102.263
-76.5862
-49.5457
-21.2503
8.15429
38.4896
69.5407
101.152
132.857
164.445
195.577
225.889
254.991
282.479
307.942
330.97
351.164
368.146
381.58
391.178
396.718
398.018
395.033
387.811
376.392
360.969
341.799
319.212
293.598
265.389
235.047
203.061
169.925
136.119
102.197
68.416
35.2032
2.90189
-28.1959
-57.8581
-85.9124
-112.226
-136.722
-159.363
-180.131
-199.056
-216.159
-231.482
-245.085
-257.025
-267.379
-276.224
-283.639
-289.714
-294.523
-298.147
-300.663
-302.096
-302.499
-301.925
-300.343
-297.739
-294.047
-289.194
-283.095
-275.638
-266.696
-256.155
-243.885
-229.783
-213.744
-195.696
-175.617
-153.504
-129.387
-103.369
-75.5915
-46.2231
-15.4976
16.3337
47.3215
80.0364
112.752
145.094
176.613
206.92
235.607
262.278
286.613
308.287
327.002
342.534
354.702
363.37
368.457
369.891
367.538
361.67
352.365
339.801
324.195
305.796
284.884
261.734
236.643
209.91
181.841
152.774
123.026
92.9661
63.0617
36.2822
7.49739
-21.1864
-49.1989
-76.2067
-102.048
-126.554
-328.942
-325.22
-320.037
-313.366
-305.168
-295.378
-283.944
-270.795
-255.892
-239.196
-220.67
-200.284
-178.03
-153.915
-127.963
-100.24
-70.8247
-39.7946
-7.30647
22.6175
57.1562
92.2087
127.475
162.659
197.361
231.199
263.751
294.592
323.349
349.618
373.01
393.206
409.912
422.885
431.94
436.951
437.813
434.496
427.169
415.864
400.779
382.156
360.263
335.409
307.977
278.335
246.867
213.992
180.111
145.589
110.809
76.1075
41.8512
10.5724
-21.4742
-52.4906
-82.1978
-110.409
-137.012
-161.917
-185.065
-206.428
-225.983
-243.74
-259.71
-273.909
-286.366
-297.106
-306.157
-313.537
-319.25
-323.32
-325.739
-326.493
-325.707
-323.306
-319.258
-313.556
-306.182
-297.135
-286.41
-274.001
-259.919
-244.171
-226.766
-207.723
-187.065
-164.819
-141.016
-115.692
-88.8943
-60.6866
-31.1577
-0.416688
31.3945
63.9843
97.1427
130.591
164.011
197.059
229.367
260.554
290.233
318.017
343.527
366.404
386.311
402.937
416.009
425.298
430.626
431.835
428.872
421.805
410.612
395.445
376.502
354.047
328.398
299.925
269.04
236.18
201.804
166.379
130.363
94.2031
58.3165
23.1177
-11.1047
-44.0248
-75.394
-105.011
-132.723
-158.425
-182.052
-203.581
-223.018
-240.401
-255.787
-269.244
-280.853
-290.695
-298.847
-305.386
-310.382
-313.897
-315.983
-316.659
-315.956
-313.915
-310.535
-305.81
-299.727
-292.266
-283.4
-273.098
-261.322
-248.036
-233.206
-216.798
-198.78
-179.133
-157.847
-134.928
-110.399
-84.3104
-56.7379
-27.7916
2.3874
33.6181
66.0362
98.7244
131.739
164.749
197.387
229.259
259.951
289.03
316.064
340.624
362.302
380.718
395.535
406.464
413.28
415.817
413.972
407.84
397.453
382.976
364.649
342.771
317.695
289.827
259.603
227.483
193.94
159.451
124.481
89.4787
54.8859
21.0104
-11.8044
-43.2991
-73.2679
-101.552
-128.037
-152.648
-175.343
-196.115
-214.98
-231.977
-247.161
-260.598
-272.354
-282.496
-291.086
-298.175
-303.813
-308.037
-310.887
-312.376
-312.517
-311.339
-308.849
-305.038
-299.897
-293.411
-285.56
-276.322
-265.67
-253.579
-240.024
-224.979
-208.42
-190.327
-170.687
-149.496
-126.766
-102.531
-76.8478
-49.7963
-21.4841
7.94308
38.3084
69.3979
101.038
132.794
164.437
195.629
226.006
255.177
282.737
308.274
331.375
351.638
368.684
382.171
391.81
397.375
398.693
395.699
388.455
377
361.525
342.291
319.631
293.937
265.644
235.219
203.151
169.938
136.062
102.08
68.2443
34.987
2.65014
-28.4746
-58.1563
-86.2233
-112.544
-137.041
-159.679
-180.441
-199.358
-216.451
-231.763
-245.353
-257.28
-267.62
-276.45
-283.851
-289.913
-294.711
-298.323
-300.829
-302.257
-302.658
-302.084
-300.506
-297.91
-294.23
-289.392
-283.312
-275.874
-266.953
-256.433
-244.185
-230.101
-214.078
-196.041
-175.969
-153.856
-129.733
-103.704
-75.9074
-46.5139
-15.7585
16.1033
47.1917
79.9504
112.722
145.129
176.715
207.091
235.846
262.582
286.978
308.708
327.472
343.043
355.24
363.926
369.019
370.462
368.09
362.198
352.858
340.253
324.601
306.151
285.186
261.982
236.835
210.048
181.926
152.806
123.005
92.8899
62.9314
36.1835
7.34849
-21.379
-49.4276
-76.4642
-102.329
-126.852
-329.221
-325.506
-320.333
-313.673
-305.488
-295.711
-284.291
-271.155
-256.265
-239.582
-221.067
-200.69
-178.443
-154.331
-128.379
-100.651
-71.2248
-40.1744
-7.63133
22.3193
56.9305
92.0389
127.368
162.624
197.405
231.328
263.969
294.901
323.749
350.106
373.58
393.849
410.616
423.636
432.723
437.748
438.617
435.286
427.922
416.574
401.431
382.74
360.77
335.831
308.312
278.582
247.025
214.066
180.105
145.512
110.667
75.9132
41.6218
10.2495
-21.821
-52.8585
-82.5826
-110.806
-137.415
-162.322
-185.467
-206.824
-226.373
-244.12
-260.081
-274.27
-286.718
-297.45
-306.494
-313.868
-319.578
-323.644
-326.061
-326.818
-326.035
-323.634
-319.589
-313.89
-306.52
-297.476
-286.753
-274.348
-260.268
-244.522
-227.121
-208.082
-187.426
-165.182
-141.381
-116.055
-89.2519
-61.0332
-31.4866
-0.72084
31.1296
63.7626
96.973
130.481
163.97
197.092
229.479
260.75
290.514
318.383
343.978
366.936
386.917
403.608
416.736
426.068
431.423
432.651
429.688
422.594
411.364
396.143
377.133
354.597
328.858
300.289
269.303
236.343
201.87
166.351
130.249
94.0107
58.0568
22.7956
-11.4732
-44.4304
-75.8263
-105.461
-133.183
-158.886
-182.509
-204.026
-223.45
-240.815
-256.181
-269.619
-281.208
-291.031
-299.166
-305.691
-310.673
-314.177
-316.252
-316.926
-316.219
-314.177
-310.797
-306.076
-299.998
-292.544
-283.687
-273.394
-261.628
-248.353
-233.533
-217.135
-199.126
-179.487
-158.207
-135.29
-110.759
-84.6635
-57.0781
-28.1115
2.09917
33.3849
65.7856
98.5479
131.63
164.711
197.429
229.388
260.171
289.346
316.476
341.13
362.897
381.394
396.278
407.262
414.112
416.666
414.824
408.663
398.233
383.696
365.295
343.331
318.161
290.192
259.864
227.641
193.999
159.416
124.36
89.2834
54.6203
20.6931
-12.1632
-43.6887
-73.6783
-101.975
-128.464
-153.074
-175.762
-196.523
-215.373
-232.354
-247.52
-260.94
-272.68
-282.807
-291.383
-298.462
-304.091
-308.308
-311.151
-312.635
-312.775
-311.597
-309.107
-305.298
-300.161
-293.68
-285.835
-276.604
-265.96
-253.877
-240.33
-225.293
-208.742
-190.658
-171.024
-149.835
-127.106
-102.868
-77.1756
-50.1101
-21.7773
7.67834
38.0805
69.2164
100.897
132.716
164.426
195.692
226.151
255.409
283.06
308.689
331.882
352.232
369.356
382.91
392.6
398.197
399.534
396.536
389.261
377.76
362.22
342.907
320.155
294.36
265.963
235.433
203.264
169.954
135.989
101.933
68.0287
34.7158
2.33473
-28.8237
-58.5296
-86.6124
-112.941
-137.44
-160.074
-180.83
-199.736
-216.816
-232.114
-245.688
-257.597
-267.92
-276.733
-284.117
-290.162
-294.944
-298.544
-301.037
-302.458
-302.857
-302.282
-300.71
-298.124
-294.459
-289.639
-283.582
-276.169
-267.275
-256.782
-244.559
-230.499
-214.496
-196.472
-176.408
-154.297
-130.168
-104.123
-76.3029
-46.8779
-16.0847
15.8151
47.0274
79.8418
112.685
145.171
176.842
207.303
236.144
262.961
287.435
309.235
328.059
343.68
355.914
364.622
369.722
371.168
368.784
362.857
353.474
340.818
325.108
306.595
285.564
262.291
237.076
210.221
182.032
152.845
122.977
92.7943
62.768
36.0601
7.16186
-21.6205
-49.7141
-76.7866
-102.68
-127.226
-329.556
-325.85
-320.688
-314.041
-305.871
-296.111
-284.707
-271.588
-256.714
-240.045
-221.543
-201.177
-178.939
-154.831
-128.878
-101.144
-71.706
-40.6352
-8.04651
21.9847
56.6628
91.8345
127.238
162.581
197.457
231.482
264.229
295.271
324.229
350.692
374.265
394.62
411.461
424.538
433.663
438.706
439.578
436.236
428.828
417.426
402.215
383.441
361.377
336.338
308.714
278.877
247.215
214.154
180.097
145.419
110.495
75.6784
41.3441
9.86326
-22.2372
-53.3004
-83.0448
-111.282
-137.899
-162.808
-185.95
-207.301
-226.84
-244.577
-260.525
-274.703
-287.14
-297.863
-306.898
-314.265
-319.971
-324.033
-326.447
-327.206
-326.427
-324.028
-319.986
-314.292
-306.926
-297.886
-287.166
-274.763
-260.687
-244.944
-227.547
-208.512
-187.86
-165.619
-141.819
-116.491
-89.6818
-61.4498
-31.8823
-1.08769
30.8113
63.4958
96.7684
130.349
163.919
197.13
229.613
260.984
290.85
318.823
344.519
367.573
387.644
404.415
417.61
426.995
432.382
433.628
430.668
423.544
412.268
396.983
377.89
355.257
329.41
300.725
269.619
236.538
201.947
166.316
130.11
93.7782
57.7429
22.4082
-11.9168
-44.9186
-76.3467
-106.003
-133.735
-159.44
-183.057
-204.562
-223.968
-241.312
-256.655
-270.069
-281.635
-291.435
-299.55
-306.056
-311.023
-314.513
-316.576
-317.246
-316.535
-314.491
-311.113
-306.396
-300.324
-292.879
-284.031
-273.749
-261.995
-248.733
-233.926
-217.539
-199.542
-179.912
-158.639
-135.724
-111.192
-85.0882
-57.4876
-28.4967
1.7502
33.0911
65.4961
98.3365
131.497
164.665
197.478
229.541
260.435
289.724
316.97
341.737
363.611
382.204
397.172
408.22
415.113
417.685
415.846
409.653
399.17
384.561
366.072
344.005
318.72
290.63
260.178
227.831
194.069
159.373
124.214
89.0464
54.3011
20.3108
-12.5952
-44.1576
-74.1722
-102.483
-128.979
-153.586
-176.267
-197.013
-215.846
-232.807
-247.952
-261.351
-273.071
-283.18
-291.741
-298.807
-304.424
-308.633
-311.467
-312.946
-313.086
-311.907
-309.417
-305.611
-300.478
-294.003
-286.166
-276.944
-266.308
-254.234
-240.697
-225.671
-209.13
-191.054
-171.428
-150.244
-127.515
-103.272
-77.5701
-50.4876
-22.1304
7.35956
37.8051
68.9961
100.73
132.621
164.412
195.768
226.324
255.686
283.446
309.187
332.489
352.944
370.163
383.797
393.55
399.187
400.542
397.542
390.231
378.673
363.055
343.647
320.785
294.869
266.345
235.689
203.397
169.972
135.901
101.755
67.7687
34.3892
1.95519
-29.2435
-58.9784
-87.0802
-113.418
-137.92
-160.55
-181.296
-200.189
-217.255
-232.535
-246.089
-257.979
-268.28
-277.071
-284.435
-290.461
-295.225
-298.808
-301.287
-302.7
-303.095
-302.52
-300.954
-298.38
-294.732
-289.936
-283.905
-276.523
-267.661
-257.201
-245.009
-230.977
-214.998
-196.991
-176.937
-154.827
-130.69
-104.627
-76.7784
-47.3153
-16.4764
15.4705
46.8267
79.7101
112.639
145.222
176.993
207.558
236.501
263.417
287.983
309.868
328.765
344.445
356.723
365.459
370.569
372.013
369.617
363.649
354.214
341.497
325.717
307.127
286.017
262.662
237.364
210.427
182.158
152.892
122.945
92.6792
62.5708
35.9122
6.93711
-21.9111
-50.0586
-77.1742
-103.101
-127.674
-329.946
-326.251
-321.102
-314.471
-306.318
-296.577
-285.193
-272.093
-257.237
-240.585
-222.099
-201.747
-179.518
-155.414
-129.461
-101.719
-72.2686
-41.1783
-8.55223
21.6127
56.3532
91.5951
127.086
162.53
197.516
231.66
264.533
295.702
324.788
351.376
375.064
395.521
412.447
425.591
434.762
439.827
440.702
437.343
429.887
418.422
403.129
384.26
362.087
336.93
309.183
279.22
247.435
214.255
180.086
145.308
110.293
75.4021
41.0168
9.41405
-22.723
-53.8167
-83.5847
-111.839
-138.464
-163.375
-186.514
-207.857
-227.385
-245.109
-261.044
-275.208
-287.633
-298.344
-307.369
-314.729
-320.429
-324.487
-326.899
-327.658
-326.883
-324.488
-320.449
-314.76
-307.399
-298.363
-287.647
-275.249
-261.176
-245.437
-228.044
-209.014
-188.366
-166.128
-142.331
-117.001
-90.1844
-61.9363
-32.3453
-1.51785
30.4397
63.1833
96.5283
130.194
163.859
197.175
229.769
261.257
291.243
319.336
345.15
368.318
388.493
405.358
418.631
428.076
433.504
434.771
431.811
424.653
413.325
397.964
378.774
356.028
330.054
301.234
269.987
236.765
202.036
166.274
129.947
93.505
57.3743
21.9547
-12.4363
-45.49
-76.9557
-106.636
-134.382
-160.089
-183.698
-205.188
-224.573
-241.892
-257.208
-270.594
-282.132
-291.907
-299.998
-306.483
-311.431
-314.905
-316.955
-317.62
-316.904
-314.857
-311.482
-306.769
-300.705
-293.269
-284.433
-274.164
-262.424
-249.177
-234.385
-218.012
-200.028
-180.41
-159.144
-136.233
-111.698
-85.5851
-57.9672
-28.948
1.33926
32.7381
65.1656
98.0898
131.341
164.61
197.534
229.718
260.741
290.165
317.546
342.446
364.445
383.151
398.215
409.339
416.283
418.878
417.039
410.81
400.264
385.571
366.978
344.791
319.373
291.141
260.543
228.051
194.149
159.32
124.041
88.767
53.9272
19.8631
-13.1012
-44.7065
-74.7502
-103.078
-129.58
-154.185
-176.856
-197.587
-216.399
-233.336
-248.457
-261.83
-273.527
-283.616
-292.158
-299.209
-304.814
-309.012
-311.837
-313.31
-313.448
-312.268
-309.779
-305.976
-300.848
-294.38
-286.553
-277.34
-266.715
-254.652
-241.126
-226.112
-209.583
-191.518
-171.9
-150.721
-127.993
-103.745
-78.0314
-50.9296
-22.5438
6.98587
37.482
68.7361
100.533
132.509
164.394
195.854
226.524
256.009
283.897
309.767
333.198
353.776
371.106
384.835
394.66
400.344
401.72
398.716
391.365
379.74
364.031
344.511
321.52
295.462
266.791
235.987
203.552
169.991
135.795
101.547
67.4637
34.0064
1.5109
-29.7345
-59.503
-87.6268
-113.976
-138.48
-161.105
-181.841
-200.719
-217.766
-233.026
-246.558
-258.424
-268.7
-277.467
-284.806
-290.808
-295.551
-299.116
-301.578
-302.981
-303.37
-302.797
-301.238
-298.678
-295.051
-290.281
-284.283
-276.936
-268.111
-257.689
-245.534
-231.535
-215.584
-197.597
-177.554
-155.446
-131.3
-105.216
-77.3342
-47.8266
-16.9336
15.0702
46.5873
79.5542
112.585
145.279
177.169
207.854
236.918
263.949
288.624
310.607
329.589
345.338
357.668
366.437
371.559
373.001
370.586
364.572
355.077
342.289
326.428
307.749
286.545
263.095
237.7
210.668
182.305
152.947
122.907
92.5448
62.3393
35.74
6.67376
-22.2515
-50.4618
-77.6275
-103.594
-128.198
-330.392
-326.709
-321.575
-314.962
-306.829
-297.109
-285.748
-272.669
-257.835
-241.204
-222.735
-202.398
-180.18
-156.082
-130.128
-102.378
-72.9128
-41.8045
-9.15111
21.2051
56.0011
91.3197
126.91
162.47
197.583
231.862
264.878
296.194
325.427
352.158
375.978
396.552
413.577
426.797
436.019
441.111
441.989
438.608
431.099
419.562
404.176
385.196
362.898
337.606
309.718
279.612
247.686
214.37
180.073
145.179
110.061
75.0831
40.6387
8.90219
-23.2785
-54.4078
-84.2029
-112.476
-139.111
-164.025
-187.159
-208.494
-228.009
-245.719
-261.638
-275.786
-288.195
-298.894
-307.908
-315.258
-320.953
-325.007
-327.416
-328.175
-327.404
-325.013
-320.979
-315.295
-307.94
-298.909
-288.197
-275.804
-261.736
-246.001
-228.613
-209.587
-188.945
-166.711
-142.916
-117.585
-90.7596
-62.4934
-32.8757
-2.01239
30.0145
62.8244
96.2524
130.015
163.789
197.224
229.946
261.568
291.691
319.922
345.872
369.169
389.464
406.436
419.8
429.315
434.789
436.079
433.118
425.924
414.535
399.086
379.787
356.91
330.791
301.814
270.407
237.024
202.137
166.224
129.757
93.1901
56.9499
21.4344
-13.0324
-46.1454
-77.6543
-107.362
-135.122
-160.832
-184.432
-205.906
-225.266
-242.557
-257.841
-271.195
-282.701
-292.446
-300.51
-306.971
-311.897
-315.353
-317.389
-318.05
-317.324
-315.276
-311.903
-307.196
-301.141
-293.716
-284.893
-274.638
-262.915
-249.684
-234.909
-218.554
-200.585
-180.979
-159.723
-136.815
-112.278
-86.1547
-58.5169
-29.4663
0.865882
32.3258
64.7921
97.8074
131.161
164.544
197.596
229.919
261.091
290.668
318.204
343.256
365.399
384.235
399.41
410.621
417.623
420.246
418.404
412.134
401.518
386.728
368.016
345.689
320.119
291.724
260.96
228.302
194.239
159.259
123.84
88.4444
53.498
19.3489
-13.682
-45.3361
-75.413
-103.76
-130.27
-154.872
-177.531
-198.243
-217.032
-233.942
-249.034
-262.379
-274.049
-284.114
-292.636
-299.669
-305.259
-309.446
-312.261
-313.727
-313.861
-312.681
-310.193
-306.393
-301.271
-294.812
-286.995
-277.794
-267.181
-255.13
-241.617
-226.616
-210.101
-192.049
-172.441
-151.268
-128.541
-104.287
-78.5602
-51.4365
-23.0181
6.55658
37.1105
68.436
100.308
132.38
164.372
195.952
226.752
256.377
284.411
310.43
334.009
354.727
372.185
386.022
395.931
401.669
403.07
400.059
392.663
380.963
365.149
345.5
322.36
296.14
267.3
236.326
203.728
170.012
135.672
101.308
67.1127
33.5668
1.00117
-30.2972
-60.1041
-88.2527
-114.614
-139.122
-161.74
-182.464
-201.325
-218.352
-233.588
-247.094
-258.933
-269.181
-277.919
-285.23
-291.206
-295.925
-299.468
-301.911
-303.302
-303.684
-303.113
-301.562
-299.019
-295.415
-290.676
-284.714
-277.407
-268.626
-258.248
-246.134
-232.174
-216.254
-198.291
-178.26
-156.155
-131.999
-105.891
-77.9708
-48.4122
-17.4567
14.6148
46.3075
79.3734
112.52
145.344
177.369
208.193
237.394
264.557
289.356
311.452
330.531
346.36
358.749
367.556
372.694
374.13
371.693
365.627
356.065
343.195
327.24
308.459
287.149
263.589
238.084
210.942
182.473
153.01
122.863
92.391
62.0727
35.5435
6.37119
-22.6423
-50.924
-78.1467
-104.159
-128.798
-330.893
-327.224
-322.107
-315.514
-307.404
-297.708
-286.372
-273.319
-258.508
-241.899
-223.451
-203.131
-180.925
-156.834
-130.88
-103.12
-73.6386
-42.5144
-9.84892
20.7662
55.6056
91.0073
126.709
162.4
197.656
232.088
265.266
296.747
326.146
353.038
377.007
397.713
414.849
428.155
437.437
442.559
443.438
440.032
432.465
420.846
405.355
386.25
363.812
338.366
310.32
280.052
247.967
214.497
180.055
145.031
109.797
74.7201
40.2087
8.32768
-23.9039
-55.0741
-84.8995
-113.194
-139.84
-164.756
-187.885
-209.21
-228.711
-246.404
-262.305
-276.435
-288.828
-299.513
-308.514
-315.854
-321.542
-325.591
-327.998
-328.759
-327.991
-325.603
-321.575
-315.897
-308.548
-299.523
-288.816
-276.429
-262.365
-246.636
-229.252
-210.232
-189.597
-167.367
-143.576
-118.243
-91.4072
-63.1217
-33.4742
-2.57221
29.5356
62.4183
95.94
129.811
163.708
197.278
230.144
261.917
292.195
320.582
346.684
370.127
390.558
407.651
421.117
430.711
436.238
437.554
434.59
427.356
415.898
400.352
380.927
357.903
331.62
302.468
270.879
237.313
202.248
166.166
129.541
92.8326
56.4689
20.8462
-13.7063
-46.8856
-78.443
-108.182
-135.958
-161.67
-185.26
-206.714
-226.047
-243.306
-258.554
-271.872
-283.342
-293.053
-301.087
-307.519
-312.422
-315.857
-317.877
-318.529
-317.797
-315.747
-312.377
-307.677
-301.631
-294.219
-285.411
-275.173
-263.468
-250.256
-235.501
-219.164
-201.212
-181.621
-160.375
-137.472
-112.932
-86.7975
-59.1378
-30.0524
0.329428
31.8541
64.374
97.4885
130.956
164.468
197.663
230.143
261.482
291.233
318.944
344.168
366.473
385.456
400.757
412.066
419.134
421.788
419.942
413.626
402.931
388.032
369.184
346.702
320.958
292.38
261.427
228.582
194.337
159.186
123.612
88.0776
53.0121
18.7671
-14.3385
-46.0473
-76.1614
-104.529
-131.047
-155.646
-178.292
-198.984
-217.745
-234.624
-249.684
-262.997
-274.637
-284.675
-293.173
-300.187
-305.761
-309.934
-312.738
-314.197
-314.327
-313.145
-310.659
-306.864
-301.748
-295.298
-287.493
-278.304
-267.705
-255.669
-242.171
-227.185
-210.685
-192.647
-173.05
-151.884
-129.158
-104.898
-79.1569
-52.0089
-23.5539
6.07096
36.6901
68.0948
100.053
132.233