/*--------------------------------*- C++ -*----------------------------------*\
| =========                 |                                                 |
| \\      /  F ield         | OpenFOAM: The Open Source CFD Toolbox           |
|  \\    /   O peration     | Version:  3.0.1                                 |
|   \\  /    A nd           | Web:      www.OpenFOAM.org                      |
|    \\/     M anipulation  |                                                 |
\*---------------------------------------------------------------------------*/
FoamFile
{
    version     2.0;
    format      ascii;
    class       volScalarField;
    location    "92.2";
    object      p;
}
// * * * * * * * * * * * * * * * * * * * * * * * * * * * * * * * * * * * * * //

dimensions      [1 -1 -2 0 0 0 0];

internalField   nonuniform List<scalar> 
21420
(
3849.54
3825.5
3797.33
3769.35
3742.46
3717.01
3693.19
3671.08
3650.75
3632.21
3615.43
3600.38
3587.02
3575.3
3565.17
3556.57
3549.46
3543.8
3539.55
3536.69
3535.24
3535.15
3536.39
3539.02
3543.07
3548.55
3555.51
3564.01
3574.11
3585.85
3599.31
3614.55
3631.61
3650.53
3671.33
3694.03
3718.6
3744.97
3773.07
3802.77
3833.89
3866.23
3899.52
3933.46
3967.76
4002.03
4035.88
4068.93
4100.75
4130.93
4159.07
4184.8
4207.74
4227.6
4244.08
4256.95
4266.05
4271.25
4272.4
4269.62
4262.84
4252.12
4237.66
4219.68
4198.42
4174.16
4147.27
4118.1
4087.07
4054.56
4020.99
3986.78
3952.33
3918
3884.17
3851.32
3819.35
3788.56
3759.19
3731.41
3705.34
3681.08
3658.69
3638.21
3619.67
3603.05
3588.36
3575.55
3564.61
3555.49
3548.14
3542.48
3538.47
3536.04
3535.15
3535.69
3537.65
3541
3545.71
3551.8
3559.26
3568.13
3578.44
3590.23
3603.53
3618.38
3634.82
3652.87
3672.56
3693.86
3716.78
3741.26
3767.25
3794.66
3823.37
3853.26
3884.17
3915.81
3947.98
3980.4
4012.77
4044.75
4075.97
4106.05
4134.6
4161.21
4185.48
4207.04
4225.51
4240.59
4252
4259.52
4262.94
4262.26
4257.42
4248.5
4235.57
4218.85
4198.58
4175.08
4148.69
4119.82
4088.87
4056.31
4022.6
3988.2
3953.57
3919.15
3885.37
3852.53
3820.96
3790.88
3762.5
3735.94
3711.29
3688.58
3667.83
3649.01
3632.1
3617.02
3603.7
3592.08
3582.07
3573.6
3566.58
3560.96
3556.67
3553.66
3551.89
3551.34
3552.01
3553.85
3556.89
3561.13
3566.6
3573.34
3581.36
3590.74
3601.5
3613.7
3627.39
3642.6
3659.4
3677.83
3697.89
3719.62
3743.01
3768.01
3794.56
3822.56
3851.85
3882.18
3914.19
3946.09
3978.43
4010.78
4042.77
4073.97
4103.97
4132.35
4158.7
4182.62
4203.73
4221.67
4236.15
4246.87
4253.65
4256.26
4254.76
4249.08
4239.34
4225.69
4208.37
4187.68
4163.95
4137.59
4108.99
4078.61
4046.88
4014.25
3981.16
3948.01
3915.18
3883.01
3851.79
3821.75
3793.12
3766.02
3740.6
3716.92
3695.03
3674.94
3656.66
3640.16
3625.39
3612.29
3600.81
3590.88
3582.44
3575.42
3569.77
3565.46
3562.42
3560.61
3560.02
3560.61
3562.33
3565.18
3569.18
3574.34
3580.69
3588.27
3597.13
3607.3
3618.85
3631.8
3646.2
3662.05
3679.39
3698.22
3718.53
3740.32
3763.56
3788.2
3814.18
3841.41
3869.78
3899.15
3929.42
3960.97
3992.19
4023.23
4053.82
4083.6
4112.18
4139.15
4164.1
4186.63
4206.34
4222.87
4235.88
4245.1
4250.32
4251.4
4248.25
4241.11
4229.85
4214.66
4195.81
4173.65
4148.59
4121.05
4091.53
4060.52
4028.52
3996.02
3963.46
3931.24
3900.16
3870.15
3841.09
3813.29
3786.97
3762.26
3739.23
3717.92
3698.3
3680.32
3663.91
3648.99
3635.46
3623.24
3612.24
3602.41
3593.68
3586.03
3579.45
3573.96
3569.59
3566.38
3564.41
3563.78
3564.55
3566.8
3570.63
3576.14
3583.39
3592.45
3603.36
3616.15
3630.85
3647.43
3665.88
3686.13
3708.09
3731.66
3756.67
3782.97
3810.38
3838.67
3867.69
3902.6
3932.4
3962.15
3991.53
4020.25
4048.03
4074.54
4099.48
4122.59
4143.59
4162.25
4178.33
4191.63
4201.99
4209.25
4213.29
3751.39
3727.33
3699.15
3671.17
3644.28
3618.83
3595
3572.9
3552.57
3534.03
3517.25
3502.21
3488.85
3477.14
3467.01
3458.41
3451.31
3445.65
3441.4
3438.54
3437.08
3436.99
3438.24
3440.87
3444.91
3450.39
3457.35
3465.85
3475.94
3487.68
3501.14
3516.37
3533.43
3552.35
3573.15
3595.85
3620.41
3646.79
3674.89
3704.59
3735.72
3768.07
3801.37
3835.32
3869.63
3903.92
3937.78
3970.85
4002.69
4032.89
4061.05
4086.79
4109.75
4129.62
4146.11
4159
4168.1
4173.3
4174.47
4171.67
4164.89
4154.16
4139.69
4121.7
4100.42
4076.15
4049.24
4020.05
3989
3956.47
3922.89
3888.66
3854.2
3819.86
3786.01
3753.16
3721.17
3690.38
3661.01
3633.22
3607.15
3582.89
3560.5
3540.03
3521.49
3504.87
3490.18
3477.38
3466.43
3457.32
3449.97
3444.32
3440.3
3437.88
3436.99
3437.53
3439.49
3442.84
3447.56
3453.64
3461.1
3469.97
3480.28
3492.06
3505.36
3520.21
3536.65
3554.7
3574.38
3595.68
3618.6
3643.08
3669.07
3696.48
3725.2
3755.1
3786.01
3817.66
3849.84
3882.28
3914.66
3946.65
3977.89
4007.99
4036.55
4063.18
4087.47
4109.04
4127.53
4142.63
4154.05
4161.58
4165
4164.32
4159.47
4150.54
4137.6
4120.87
4100.59
4077.07
4050.66
4021.77
3990.8
3958.22
3924.49
3890.07
3855.42
3820.99
3787.2
3754.35
3722.77
3692.69
3664.31
3637.75
3613.09
3590.39
3569.64
3550.83
3533.91
3518.84
3505.53
3493.91
3483.9
3475.43
3468.42
3462.8
3458.51
3455.51
3453.74
3453.19
3453.86
3455.7
3458.73
3462.98
3468.45
3475.18
3483.2
3492.58
3503.34
3515.53
3529.22
3544.43
3561.23
3579.65
3599.72
3621.44
3644.83
3669.83
3696.39
3724.39
3753.68
3784.03
3816.03
3847.95
3880.3
3912.67
3944.67
3975.89
4005.91
4034.31
4060.68
4084.61
4105.74
4123.7
4138.19
4148.92
4155.7
4158.32
4156.81
4151.13
4141.39
4127.72
4110.38
4089.68
4065.94
4039.55
4010.94
3980.53
3948.78
3916.14
3883.03
3849.87
3817.03
3784.85
3753.61
3723.58
3694.93
3667.84
3642.41
3618.73
3596.84
3576.76
3558.48
3541.98
3527.21
3514.12
3502.65
3492.72
3484.27
3477.26
3471.62
3467.3
3464.26
3462.46
3461.87
3462.47
3464.18
3467.04
3471.03
3476.19
3482.54
3490.12
3498.97
3509.15
3520.69
3533.64
3548.03
3563.89
3581.22
3600.05
3620.37
3642.15
3665.39
3690.03
3716.01
3743.25
3771.62
3800.99
3831.28
3862.85
3894.07
3925.13
3955.73
3985.53
4014.12
4041.11
4066.08
4088.62
4108.36
4124.9
4137.92
4147.15
4152.39
4153.47
4150.32
4143.17
4131.9
4116.7
4097.83
4075.66
4050.57
4023.01
3993.47
3962.44
3930.42
3897.9
3865.32
3833.09
3802
3771.98
3742.92
3715.11
3688.79
3664.08
3641.06
3619.74
3600.13
3582.15
3565.75
3550.83
3537.31
3525.09
3514.1
3504.26
3495.54
3487.89
3481.31
3475.82
3471.44
3468.23
3466.26
3465.62
3466.39
3468.63
3472.46
3477.97
3485.22
3494.27
3505.18
3517.98
3532.67
3549.25
3567.7
3587.96
3609.92
3633.49
3658.5
3684.81
3712.23
3740.53
3769.55
3804.46
3834.28
3864.04
3893.43
3922.16
3949.96
3976.48
4001.44
4024.56
4045.58
4064.25
4080.34
4093.65
4104.01
4111.28
4115.32
3653.2
3629.09
3600.9
3572.91
3546.02
3520.56
3496.74
3474.64
3454.32
3435.78
3419
3403.97
3390.62
3378.91
3368.78
3360.19
3353.09
3347.43
3343.19
3340.33
3338.88
3338.78
3340.03
3342.66
3346.7
3352.17
3359.13
3367.62
3377.7
3389.44
3402.89
3418.12
3435.17
3454.08
3474.88
3497.58
3522.14
3548.52
3576.62
3606.34
3637.48
3669.84
3703.16
3737.14
3771.48
3805.79
3839.69
3872.79
3904.67
3934.9
3963.1
3988.88
4011.87
4031.77
4048.28
4061.19
4070.31
4075.51
4076.7
4073.87
4067.08
4056.35
4041.85
4023.83
4002.52
3978.22
3951.27
3922.05
3890.96
3858.4
3824.78
3790.52
3756.03
3721.66
3687.8
3654.93
3622.93
3592.12
3562.75
3534.95
3508.88
3484.62
3462.23
3441.76
3423.22
3406.61
3391.92
3379.12
3368.19
3359.07
3351.73
3346.08
3342.08
3339.66
3338.77
3339.32
3341.28
3344.63
3349.34
3355.42
3362.88
3371.75
3382.05
3393.83
3407.12
3421.97
3438.4
3456.45
3476.13
3497.43
3520.34
3544.83
3570.82
3598.24
3626.97
3656.87
3687.8
3719.47
3751.67
3784.13
3816.53
3848.56
3879.83
3909.96
3938.56
3965.23
3989.55
4011.16
4029.68
4044.8
4056.24
4063.79
4067.24
4066.53
4061.68
4052.74
4039.78
4023.02
4002.71
3979.15
3952.71
3923.77
3892.77
3860.15
3826.38
3791.92
3757.24
3722.77
3688.97
3656.1
3624.5
3594.42
3566.03
3539.46
3514.81
3492.11
3471.36
3452.56
3435.65
3420.58
3407.28
3395.67
3385.67
3377.21
3370.2
3364.59
3360.31
3357.3
3355.54
3355
3355.66
3357.5
3360.53
3364.77
3370.24
3376.97
3384.99
3394.36
3405.11
3417.3
3430.98
3446.19
3462.98
3481.4
3501.46
3523.19
3546.57
3571.58
3598.14
3626.15
3655.46
3685.85
3717.79
3749.76
3782.14
3814.55
3846.58
3877.84
3907.89
3936.33
3962.74
3986.71
4007.86
4025.86
4040.37
4051.13
4057.92
4060.56
4059.03
4053.34
4043.58
4029.89
4012.52
3991.78
3968
3941.58
3912.93
3882.48
3850.69
3818.01
3784.87
3751.69
3718.82
3686.62
3655.37
3625.33
3596.67
3569.58
3544.15
3520.47
3498.58
3478.5
3460.23
3443.73
3428.97
3415.88
3404.42
3394.49
3386.06
3379.04
3373.41
3369.1
3366.06
3364.27
3363.68
3364.27
3365.99
3368.84
3372.84
3377.99
3384.34
3391.91
3400.76
3410.93
3422.47
3435.42
3449.8
3465.66
3482.99
3501.82
3522.13
3543.92
3567.15
3591.8
3617.79
3645.03
3673.41
3702.79
3733.09
3764.69
3795.94
3827.02
3857.65
3887.49
3916.11
3943.14
3968.14
3990.72
4010.49
4027.06
4040.11
4049.36
4054.61
4055.7
4052.56
4045.38
4034.1
4018.87
3999.98
3977.76
3952.63
3925.03
3895.44
3864.37
3832.31
3799.75
3767.15
3734.89
3703.79
3673.75
3644.67
3616.86
3590.53
3565.82
3542.8
3521.49
3501.88
3483.91
3467.52
3452.61
3439.1
3426.89
3415.9
3406.07
3397.35
3389.7
3383.12
3377.63
3373.25
3370.03
3368.05
3367.42
3368.17
3370.41
3374.23
3379.73
3386.98
3396.02
3406.92
3419.72
3434.41
3450.99
3469.44
3489.7
3511.67
3535.24
3560.27
3586.59
3614.02
3642.34
3671.38
3706.29
3736.13
3765.92
3795.34
3824.1
3851.92
3878.47
3903.45
3926.6
3947.64
3966.33
3982.45
3995.77
4006.15
4013.43
4017.47
3554.96
3530.79
3502.58
3474.57
3447.67
3422.21
3398.39
3376.29
3355.98
3337.45
3320.68
3305.65
3292.31
3280.61
3270.5
3261.91
3254.82
3249.17
3244.93
3242.07
3240.62
3240.52
3241.77
3244.39
3248.42
3253.9
3260.84
3269.33
3279.4
3291.13
3304.57
3319.78
3336.83
3355.73
3376.53
3399.22
3423.79
3450.16
3478.28
3508.01
3539.16
3571.55
3604.9
3638.91
3673.29
3707.66
3741.6
3774.76
3806.69
3836.98
3865.23
3891.06
3914.1
3934.04
3950.59
3963.52
3972.66
3977.88
3979.08
3976.22
3969.42
3958.67
3944.14
3926.08
3904.73
3880.37
3853.37
3824.1
3792.95
3760.33
3726.66
3692.36
3657.82
3623.42
3589.53
3556.63
3524.61
3493.79
3464.4
3436.6
3410.52
3386.26
3363.88
3343.41
3324.88
3308.27
3293.59
3280.8
3269.87
3260.76
3253.42
3247.79
3243.79
3241.39
3240.5
3241.05
3243.01
3246.36
3251.08
3257.15
3264.61
3273.47
3283.77
3295.54
3308.82
3323.66
3340.09
3358.13
3377.8
3399.11
3422.02
3446.51
3472.5
3499.93
3528.67
3558.59
3589.54
3621.23
3653.46
3685.95
3718.4
3750.47
3781.79
3811.97
3840.63
3867.35
3891.73
3913.38
3931.96
3947.12
3958.59
3966.15
3969.63
3968.9
3964.05
3955.09
3942.1
3925.3
3904.94
3881.33
3854.83
3825.83
3794.77
3762.09
3728.26
3693.75
3659.02
3624.51
3590.67
3557.77
3526.15
3496.05
3467.66
3441.09
3416.44
3393.74
3373
3354.21
3337.32
3322.26
3308.97
3297.37
3287.38
3278.93
3271.93
3266.32
3262.05
3259.05
3257.29
3256.76
3257.42
3259.25
3262.29
3266.52
3271.99
3278.71
3286.72
3296.08
3306.83
3319.01
3332.68
3347.88
3364.67
3383.07
3403.13
3424.86
3448.24
3473.25
3499.82
3527.84
3557.17
3587.63
3619.49
3651.54
3683.97
3716.41
3748.5
3779.81
3809.92
3838.41
3864.87
3888.9
3910.11
3928.14
3942.69
3953.48
3960.3
3962.96
3961.4
3955.71
3945.92
3932.19
3914.78
3893.99
3870.16
3843.67
3814.96
3784.46
3752.62
3719.88
3686.7
3653.46
3620.57
3588.34
3557.07
3527
3498.34
3471.23
3445.8
3422.12
3400.23
3380.16
3361.89
3345.41
3330.65
3317.58
3306.12
3296.21
3287.78
3280.78
3275.14
3270.84
3267.81
3266.02
3265.44
3266.03
3267.75
3270.61
3274.6
3279.75
3286.09
3293.66
3302.5
3312.66
3324.19
3337.13
3351.52
3367.36
3384.7
3403.52
3423.83
3445.61
3468.85
3493.5
3519.49
3546.75
3575.14
3604.54
3634.86
3666.52
3697.8
3728.91
3759.58
3789.47
3818.14
3845.23
3870.28
3892.92
3912.73
3929.35
3942.44
3951.72
3956.99
3958.09
3954.97
3947.75
3936.45
3921.19
3902.25
3879.97
3854.78
3827.11
3797.45
3766.32
3734.2
3701.59
3668.94
3636.64
3605.52
3575.45
3546.36
3518.53
3492.19
3467.48
3444.47
3423.17
3403.56
3385.61
3369.23
3354.33
3340.83
3328.63
3317.66
3307.83
3299.12
3291.47
3284.89
3279.4
3275.01
3271.79
3269.8
3269.15
3269.89
3272.12
3275.94
3281.43
3288.66
3297.7
3308.59
3321.38
3336.07
3352.65
3371.11
3391.37
3413.35
3436.93
3461.97
3488.31
3515.77
3544.11
3573.18
3608.09
3637.96
3667.79
3697.25
3726.05
3753.91
3780.5
3805.52
3828.71
3849.79
3868.52
3884.66
3898.01
3908.41
3915.7
3919.76
3456.67
3432.41
3404.18
3376.15
3349.24
3323.78
3299.96
3277.87
3257.56
3239.04
3222.29
3207.27
3193.94
3182.25
3172.15
3163.57
3156.48
3150.84
3146.61
3143.76
3142.3
3142.2
3143.45
3146.07
3150.1
3155.56
3162.5
3170.97
3181.03
3192.74
3206.17
3221.37
3238.4
3257.3
3278.09
3300.78
3325.34
3351.73
3379.85
3409.6
3440.78
3473.2
3506.59
3540.64
3575.08
3609.51
3643.52
3676.74
3708.75
3739.11
3767.44
3793.33
3816.44
3836.44
3853.04
3866.01
3875.17
3880.4
3881.62
3878.74
3871.92
3861.13
3846.56
3828.45
3807.04
3782.61
3755.54
3726.19
3694.97
3662.28
3628.54
3594.18
3559.58
3525.13
3491.2
3458.27
3426.22
3395.37
3365.97
3338.16
3312.08
3287.81
3265.43
3244.97
3226.45
3209.85
3195.17
3182.39
3171.48
3162.38
3155.05
3149.43
3145.44
3143.05
3142.16
3142.72
3144.69
3148.04
3152.75
3158.83
3166.28
3175.13
3185.42
3197.18
3210.45
3225.28
3241.7
3259.74
3279.41
3300.71
3323.62
3348.11
3374.11
3401.55
3430.3
3460.24
3491.22
3522.95
3555.22
3587.76
3620.26
3652.38
3683.77
3714.02
3742.75
3769.54
3794
3815.72
3834.36
3849.57
3861.09
3868.68
3872.18
3871.45
3866.59
3857.59
3844.56
3827.71
3807.28
3783.6
3757.03
3727.95
3696.8
3664.04
3630.14
3595.56
3560.76
3526.19
3492.31
3459.37
3427.72
3397.6
3369.19
3342.63
3317.98
3295.29
3274.56
3255.78
3238.9
3223.86
3210.58
3199
3189.03
3180.59
3173.6
3168.01
3163.74
3160.75
3158.99
3158.46
3159.12
3160.96
3163.99
3168.22
3173.68
3180.39
3188.4
3197.75
3208.49
3220.66
3234.31
3249.51
3266.28
3284.68
3304.73
3326.45
3349.83
3374.84
3401.42
3429.46
3458.82
3489.34
3521.15
3553.27
3585.76
3618.27
3650.42
3681.8
3711.99
3740.55
3767.09
3791.19
3812.46
3830.56
3845.17
3856
3862.83
3865.52
3863.95
3858.24
3848.41
3834.64
3817.17
3796.3
3772.4
3745.84
3717.04
3686.46
3654.54
3621.74
3588.49
3555.21
3522.26
3489.99
3458.69
3428.6
3399.92
3372.81
3347.37
3323.69
3301.81
3281.74
3263.49
3247.01
3232.27
3219.21
3207.77
3197.87
3189.45
3182.45
3176.83
3172.53
3169.51
3167.73
3167.15
3167.75
3169.47
3172.32
3176.31
3181.46
3187.79
3195.35
3204.18
3214.34
3225.86
3238.79
3253.17
3269.01
3286.33
3305.15
3325.46
3347.24
3370.48
3395.14
3421.14
3448.4
3476.81
3506.23
3536.57
3568.31
3599.63
3630.8
3661.53
3691.48
3720.22
3747.38
3772.51
3795.21
3815.09
3831.77
3844.91
3854.24
3859.54
3860.65
3857.53
3850.29
3838.95
3823.64
3804.64
3782.28
3757
3729.25
3699.5
3668.28
3636.08
3603.4
3570.68
3538.35
3507.18
3477.08
3447.97
3420.12
3393.78
3369.07
3346.05
3324.76
3305.18
3287.24
3270.87
3256
3242.51
3230.33
3219.37
3209.55
3200.84
3193.2
3186.62
3181.12
3176.73
3173.49
3171.5
3170.83
3171.55
3173.77
3177.57
3183.05
3190.27
3199.3
3210.19
3222.97
3237.65
3254.23
3272.69
3292.96
3314.95
3338.55
3363.61
3389.97
3417.45
3445.83
3474.93
3509.85
3539.77
3569.64
3599.16
3628.02
3655.93
3682.58
3707.65
3730.89
3752.02
3770.79
3786.97
3800.36
3810.79
3818.1
3822.17
3358.34
3333.97
3305.7
3277.65
3250.73
3225.26
3201.45
3179.36
3159.06
3140.56
3123.82
3108.81
3095.5
3083.83
3073.73
3065.17
3058.1
3052.46
3048.23
3045.39
3043.93
3043.83
3045.07
3047.69
3051.71
3057.16
3064.09
3072.55
3082.59
3094.29
3107.7
3122.89
3139.9
3158.79
3179.56
3202.25
3226.82
3253.2
3281.34
3311.11
3342.32
3374.78
3408.22
3442.34
3476.84
3511.34
3545.43
3578.75
3610.85
3641.3
3669.72
3695.7
3718.89
3738.96
3755.62
3768.63
3777.83
3783.08
3784.31
3781.42
3774.56
3763.74
3749.12
3730.94
3709.45
3684.94
3657.77
3628.33
3597.02
3564.24
3530.42
3495.97
3461.31
3426.79
3392.82
3359.84
3327.76
3296.88
3267.46
3239.64
3213.55
3189.28
3166.91
3146.45
3127.93
3111.35
3096.68
3083.91
3073.01
3063.93
3056.61
3051
3047.03
3044.65
3043.77
3044.34
3046.31
3049.67
3054.38
3060.45
3067.89
3076.73
3087.01
3098.76
3112.02
3126.84
3143.25
3161.28
3180.94
3202.23
3225.15
3249.64
3275.65
3303.1
3331.88
3361.84
3392.85
3424.62
3456.94
3489.54
3522.11
3554.3
3585.77
3616.11
3644.93
3671.81
3696.36
3718.17
3736.88
3752.17
3763.74
3771.37
3774.89
3774.17
3769.29
3760.25
3747.16
3730.24
3709.74
3685.97
3659.3
3630.12
3598.87
3566.02
3532.01
3497.34
3462.46
3427.82
3393.87
3360.89
3329.21
3299.07
3270.65
3244.07
3219.42
3196.74
3176.03
3157.27
3140.41
3125.38
3112.13
3100.57
3090.61
3082.19
3075.22
3069.64
3065.38
3062.4
3060.65
3060.12
3060.78
3062.62
3065.65
3069.87
3075.32
3082.03
3090.02
3099.36
3110.08
3122.24
3135.88
3151.06
3167.82
3186.21
3206.25
3227.96
3251.35
3276.37
3302.95
3331.01
3360.41
3390.98
3422.77
3454.97
3487.53
3520.12
3552.35
3583.82
3614.1
3642.76
3669.39
3693.57
3714.94
3733.11
3747.78
3758.66
3765.53
3768.23
3766.67
3760.93
3751.05
3737.22
3719.67
3698.72
3674.72
3648.06
3619.17
3588.49
3556.48
3523.59
3490.26
3456.91
3423.9
3391.58
3360.24
3330.13
3301.43
3274.3
3248.86
3225.18
3203.3
3183.25
3165
3148.54
3133.82
3120.77
3109.35
3099.46
3091.06
3084.07
3078.46
3074.17
3071.17
3069.39
3068.82
3069.42
3071.14
3074
3077.98
3083.12
3089.44
3096.99
3105.81
3115.95
3127.46
3140.39
3154.75
3170.59
3187.9
3206.72
3227.02
3248.8
3272.05
3296.7
3322.72
3350
3378.43
3407.87
3438.24
3470.09
3501.45
3532.68
3563.48
3593.51
3622.35
3649.59
3674.81
3697.6
3717.57
3734.32
3747.53
3756.91
3762.25
3763.38
3760.26
3752.99
3741.61
3726.24
3707.15
3684.7
3659.31
3631.44
3601.59
3570.26
3537.96
3505.18
3472.39
3440
3408.79
3378.65
3349.51
3321.64
3295.28
3270.57
3247.56
3226.28
3206.71
3188.8
3172.46
3157.6
3144.14
3131.98
3121.03
3111.23
3102.52
3094.88
3088.3
3082.8
3078.4
3075.15
3073.14
3072.46
3073.16
3075.36
3079.14
3084.6
3091.81
3100.82
3111.7
3124.47
3139.15
3155.73
3174.19
3194.47
3216.47
3240.09
3265.18
3291.57
3319.09
3347.5
3376.65
3411.59
3441.56
3471.49
3501.07
3530
3557.98
3584.7
3609.83
3633.14
3654.33
3673.16
3689.4
3702.83
3713.29
3720.63
3724.71
3259.95
3235.46
3207.15
3179.07
3152.14
3126.66
3102.85
3080.77
3060.49
3041.99
3025.27
3010.29
2996.99
2985.34
2975.26
2966.71
2959.65
2954.02
2949.81
2946.97
2945.51
2945.4
2946.65
2949.26
2953.27
2958.71
2965.62
2974.06
2984.09
2995.76
3009.15
3024.32
3041.32
3060.19
3080.96
3103.63
3128.2
3154.6
3182.75
3212.55
3243.79
3276.3
3309.8
3343.99
3378.57
3413.16
3447.36
3480.78
3512.99
3543.55
3572.08
3598.16
3621.45
3641.6
3658.33
3671.41
3680.65
3685.92
3687.16
3684.26
3677.36
3666.48
3651.8
3633.54
3611.96
3587.35
3560.08
3530.52
3499.1
3466.21
3432.29
3397.75
3363
3328.4
3294.37
3261.34
3229.22
3198.31
3168.86
3141.03
3114.93
3090.67
3068.29
3047.85
3029.34
3012.77
2998.12
2985.36
2974.47
2965.4
2958.1
2952.51
2948.55
2946.19
2945.32
2945.9
2947.88
2951.24
2955.95
2962.01
2969.45
2978.28
2988.54
3000.28
3013.52
3028.33
3044.73
3062.74
3082.4
3103.69
3126.6
3151.09
3177.12
3204.58
3233.38
3263.37
3294.44
3326.25
3358.63
3391.3
3423.94
3456.23
3487.79
3518.24
3547.17
3574.16
3598.81
3620.73
3639.54
3654.9
3666.54
3674.22
3677.76
3677.05
3672.14
3663.06
3649.91
3632.91
3612.31
3588.44
3561.65
3532.35
3500.98
3468
3433.88
3399.1
3364.13
3329.4
3295.37
3262.33
3230.61
3200.44
3172.01
3145.43
3120.78
3098.11
3077.42
3058.67
3041.83
3026.83
3013.61
3002.07
2992.13
2983.73
2976.78
2971.22
2966.97
2964
2962.26
2961.74
2962.4
2964.23
2967.25
2971.47
2976.91
2983.61
2991.59
3000.91
3011.62
3023.76
3037.39
3052.55
3069.3
3087.67
3107.7
3129.4
3152.79
3177.81
3204.41
3232.5
3261.93
3292.56
3324.35
3356.63
3389.28
3421.96
3454.29
3485.86
3516.25
3545.03
3571.77
3596.06
3617.52
3635.79
3650.54
3661.48
3668.4
3671.12
3669.55
3663.78
3653.84
3639.94
3622.3
3601.25
3577.13
3550.36
3521.35
3490.55
3458.43
3425.43
3392
3358.57
3325.49
3293.12
3261.73
3231.58
3202.86
3175.72
3150.27
3126.59
3104.72
3084.67
3066.44
3050
3035.29
3022.27
3010.86
3001
2992.61
2985.64
2980.04
2975.77
2972.77
2971.01
2970.44
2971.05
2972.77
2975.62
2979.6
2984.73
2991.04
2998.58
3007.39
3017.51
3029.01
3041.92
3056.28
3072.1
3089.41
3108.22
3128.52
3150.3
3173.54
3198.21
3224.23
3251.53
3279.99
3309.46
3339.85
3371.85
3403.26
3434.56
3465.45
3495.57
3524.52
3551.87
3577.19
3600.09
3620.15
3637
3650.29
3659.74
3665.12
3666.27
3663.14
3655.86
3644.42
3628.97
3609.79
3587.22
3561.7
3533.7
3503.71
3472.25
3439.83
3406.94
3374.06
3341.6
3310.34
3280.15
3250.97
3223.08
3196.71
3171.99
3148.99
3127.73
3108.18
3090.29
3073.98
3059.15
3045.71
3033.57
3022.64
3012.86
3004.16
2996.53
2989.94
2984.43
2980.02
2976.76
2974.74
2974.03
2974.71
2976.89
2980.65
2986.09
2993.28
3002.27
3013.14
3025.9
3040.57
3057.15
3075.61
3095.9
3117.92
3141.56
3166.68
3193.11
3220.67
3249.13
3278.33
3313.28
3343.32
3373.33
3402.99
3432
3460.07
3486.86
3512.08
3535.46
3556.72
3575.62
3591.92
3605.41
3615.91
3623.28
3627.38
3161.52
3136.88
3108.52
3080.41
3053.46
3027.98
3004.17
2982.1
2961.83
2943.36
2926.65
2911.69
2898.42
2886.78
2876.72
2868.19
2861.14
2855.53
2851.32
2848.49
2847.04
2846.92
2848.17
2850.77
2854.77
2860.2
2867.09
2875.51
2885.52
2897.17
2910.54
2925.68
2942.66
2961.51
2982.26
3004.93
3029.5
3055.9
3084.08
3113.9
3145.19
3177.76
3211.32
3245.59
3280.27
3314.97
3349.28
3382.82
3415.16
3445.86
3474.51
3500.72
3524.12
3544.37
3561.19
3574.33
3583.62
3588.91
3590.16
3587.25
3580.31
3569.38
3554.62
3536.26
3514.57
3489.84
3462.44
3432.76
3401.21
3368.2
3334.15
3299.5
3264.65
3229.97
3195.87
3162.78
3130.61
3099.66
3070.19
3042.33
3016.23
2991.96
2969.6
2949.16
2930.66
2914.11
2899.47
2886.73
2875.86
2866.81
2859.53
2853.95
2850.02
2847.67
2846.82
2847.41
2849.4
2852.75
2857.46
2863.52
2870.95
2879.77
2890.01
2901.73
2914.96
2929.75
2946.13
2964.14
2983.78
3005.06
3027.97
3052.48
3078.51
3105.99
3134.82
3164.84
3195.96
3227.83
3260.28
3293.03
3325.77
3358.16
3389.83
3420.4
3449.46
3476.58
3501.37
3523.4
3542.32
3557.78
3569.5
3577.23
3580.8
3580.1
3575.16
3566.02
3552.8
3535.71
3515
3490.99
3464.07
3434.63
3403.12
3370
3335.75
3300.84
3265.75
3230.93
3196.81
3163.7
3131.93
3101.73
3073.28
3046.69
3022.05
2999.39
2978.72
2960
2943.18
2928.21
2915.01
2903.5
2893.59
2885.22
2878.29
2872.74
2868.51
2865.55
2863.82
2863.3
2863.96
2865.8
2868.82
2873.03
2878.46
2885.14
2893.1
2902.41
2913.1
2925.22
2938.83
2953.97
2970.7
2989.05
3009.07
3030.77
3054.15
3079.18
3105.8
3133.91
3163.38
3194.07
3225.89
3258.26
3291
3323.78
3356.23
3387.93
3418.45
3447.36
3474.23
3498.65
3520.23
3538.61
3553.45
3564.46
3571.43
3574.17
3572.6
3566.78
3556.79
3542.79
3525.05
3503.88
3479.63
3452.72
3423.57
3392.63
3360.38
3327.26
3293.72
3260.19
3227.03
3194.59
3163.15
3132.95
3104.21
3077.05
3051.59
3027.91
3006.05
2986.02
2967.81
2951.38
2936.7
2923.7
2912.32
2902.47
2894.1
2887.15
2881.57
2877.31
2874.32
2872.57
2872.02
2872.63
2874.36
2877.21
2881.18
2886.3
2892.6
2900.12
2908.91
2919.02
2930.5
2943.4
2957.74
2973.55
2990.85
3009.65
3029.94
3051.72
3074.97
3099.64
3125.68
3153.01
3181.49
3211
3241.4
3273.59
3305.05
3336.43
3367.42
3397.66
3426.73
3454.2
3479.66
3502.68
3522.86
3539.82
3553.2
3562.72
3568.16
3569.33
3566.19
3558.89
3547.39
3531.85
3512.55
3489.84
3464.18
3436.01
3405.87
3374.26
3341.69
3308.68
3275.68
3243.15
3211.83
3181.59
3152.37
3124.44
3098.05
3073.33
3050.34
3029.1
3009.57
2991.71
2975.43
2960.64
2947.23
2935.12
2924.21
2914.44
2905.76
2898.12
2891.54
2886.02
2881.6
2878.33
2876.28
2875.54
2876.2
2878.35
2882.09
2887.51
2894.68
2903.65
2914.5
2927.24
2941.91
2958.49
2976.96
2997.25
3019.29
3042.96
3068.11
3094.59
3122.2
3150.72
3179.96
3214.95
3245.06
3275.16
3304.91
3334.02
3362.18
3389.07
3414.37
3437.84
3459.19
3478.18
3494.55
3508.1
3518.65
3526.06
3530.18
3063.04
3038.23
3009.82
2981.67
2954.7
2929.21
2905.4
2883.35
2863.09
2844.64
2827.96
2813.02
2799.77
2788.16
2778.13
2769.62
2762.58
2756.98
2752.79
2749.96
2748.51
2748.39
2749.63
2752.23
2756.21
2761.62
2768.5
2776.9
2786.88
2798.5
2811.84
2826.96
2843.91
2862.74
2883.48
2906.14
2930.71
2957.12
2985.32
3015.18
3046.52
3079.14
3112.79
3147.15
3181.94
3216.77
3251.21
3284.89
3317.38
3348.22
3377.02
3403.37
3426.9
3447.27
3464.18
3477.4
3486.74
3492.07
3493.32
3490.4
3483.41
3472.41
3457.56
3439.1
3417.29
3392.42
3364.88
3335.05
3303.35
3270.19
3236
3201.23
3166.26
3131.48
3097.31
3064.15
3031.92
3000.93
2971.42
2943.55
2917.44
2893.17
2870.81
2850.39
2831.91
2815.36
2800.75
2788.03
2777.17
2768.14
2760.88
2755.33
2751.42
2749.09
2748.25
2748.86
2750.86
2754.22
2758.92
2764.97
2772.39
2781.19
2791.42
2803.12
2816.33
2831.1
2847.47
2865.46
2885.09
2906.37
2929.28
2953.78
2979.83
3007.34
3036.19
3066.25
3097.44
3129.37
3161.9
3194.74
3227.58
3260.09
3291.9
3322.61
3351.81
3379.08
3404.01
3426.19
3445.23
3460.81
3472.61
3480.4
3484
3483.31
3478.34
3469.15
3455.84
3438.63
3417.79
3393.65
3366.57
3336.97
3305.3
3272.02
3237.61
3202.56
3167.33
3132.39
3098.17
3064.99
3033.17
3002.93
2974.45
2947.86
2923.23
2900.59
2879.93
2861.24
2844.46
2829.52
2816.35
2804.87
2794.99
2786.64
2779.74
2774.21
2770
2767.06
2765.34
2764.82
2765.49
2767.32
2770.33
2774.53
2779.95
2786.61
2794.56
2803.85
2814.52
2826.62
2840.2
2855.32
2872.03
2890.36
2910.36
2932.05
2955.43
2980.47
3007.11
3035.25
3064.77
3095.52
3127.37
3159.84
3192.69
3225.6
3258.18
3290.02
3320.69
3349.75
3376.77
3401.33
3423.05
3441.55
3456.5
3467.6
3474.62
3477.38
3475.81
3469.95
3459.89
3445.79
3427.93
3406.61
3382.22
3355.15
3325.83
3294.74
3262.33
3229.07
3195.41
3161.76
3128.51
3095.99
3064.49
3034.26
3005.48
2978.3
2952.84
2929.16
2907.3
2887.29
2869.09
2852.69
2838.04
2825.06
2813.71
2803.89
2795.54
2788.61
2783.04
2778.8
2775.83
2774.09
2773.55
2774.17
2775.9
2778.74
2782.71
2787.82
2794.1
2801.6
2810.38
2820.47
2831.93
2844.81
2859.14
2874.94
2892.23
2911.01
2931.3
2953.08
2976.33
3001.01
3027.07
3054.42
3082.94
3112.48
3142.9
3175.31
3206.82
3238.29
3269.4
3299.77
3328.98
3356.6
3382.2
3405.37
3425.68
3442.76
3456.25
3465.86
3471.36
3472.56
3469.41
3462.08
3450.51
3434.87
3415.43
3392.57
3366.73
3338.38
3308.06
3276.28
3243.55
3210.39
3177.26
3144.64
3113.27
3082.96
3053.68
3025.72
2999.31
2974.59
2951.61
2930.39
2910.9
2893.07
2876.82
2862.07
2848.69
2836.61
2825.73
2815.98
2807.31
2799.68
2793.1
2787.57
2783.13
2779.84
2777.77
2777.01
2777.63
2779.76
2783.46
2788.85
2796
2804.95
2815.78
2828.51
2843.17
2859.74
2878.22
2898.53
2920.59
2944.29
2969.48
2996
3023.67
3052.25
3081.56
3116.58
3146.77
3176.97
3206.84
3236.05
3264.32
3291.32
3316.73
3340.3
3361.75
3380.83
3397.29
3410.91
3421.52
3428.97
3433.11
2964.5
2939.51
2911.04
2882.85
2855.86
2830.36
2806.56
2784.51
2764.28
2745.85
2729.19
2714.28
2701.06
2689.48
2679.47
2670.98
2663.96
2658.38
2654.19
2651.38
2649.93
2649.81
2651.04
2653.63
2657.6
2662.99
2669.85
2678.22
2688.17
2699.76
2713.07
2728.16
2745.09
2763.9
2784.61
2807.26
2831.83
2858.26
2886.48
2916.37
2947.77
2980.47
3014.2
3048.67
3083.59
3118.54
3153.13
3186.98
3219.63
3250.64
3279.61
3306.12
3329.79
3350.29
3367.31
3380.61
3390.02
3395.38
3396.64
3393.7
3386.66
3375.59
3360.64
3342.06
3320.11
3295.09
3267.38
3237.38
3205.51
3172.19
3137.85
3102.94
3067.84
3032.95
2998.69
2965.45
2933.16
2902.12
2872.58
2844.68
2818.56
2794.29
2771.94
2751.53
2733.06
2716.54
2701.94
2689.25
2678.42
2669.41
2662.17
2656.65
2652.76
2650.45
2649.64
2650.26
2652.26
2655.63
2660.33
2666.37
2673.77
2682.56
2692.77
2704.45
2717.64
2732.39
2748.73
2766.71
2786.33
2807.6
2830.51
2855.02
2881.08
2908.61
2937.5
2967.6
2998.85
3030.86
3063.47
3096.42
3129.38
3162.03
3193.98
3224.85
3254.21
3281.65
3306.75
3329.08
3348.28
3363.97
3375.87
3383.74
3387.38
3386.69
3381.69
3372.42
3359.02
3341.69
3320.71
3296.4
3269.15
3239.37
3207.51
3174.05
3139.46
3104.25
3068.87
3033.8
2999.47
2966.21
2934.32
2904.04
2875.54
2848.94
2824.32
2801.69
2781.06
2762.4
2745.65
2730.75
2717.61
2706.17
2696.33
2688.01
2681.13
2675.63
2671.44
2668.51
2666.81
2666.29
2666.96
2668.79
2671.8
2675.99
2681.39
2688.04
2695.97
2705.23
2715.87
2727.95
2741.51
2756.6
2773.28
2791.6
2811.58
2833.26
2856.64
2881.69
2908.34
2936.52
2966.09
2996.91
3028.82
3061.38
3094.36
3127.4
3160.13
3192.14
3222.97
3252.2
3279.39
3304.12
3325.99
3344.63
3359.7
3370.9
3377.98
3380.77
3379.2
3373.29
3363.14
3348.93
3330.92
3309.46
3284.89
3257.64
3228.15
3196.88
3164.3
3130.88
3097.07
3063.3
3029.94
2997.33
2965.77
2935.48
2906.66
2879.47
2854
2830.32
2808.47
2788.47
2770.3
2753.93
2739.3
2726.36
2715.03
2705.24
2696.92
2690.01
2684.46
2680.24
2677.29
2675.57
2675.04
2675.66
2677.4
2680.24
2684.19
2689.29
2695.56
2703.04
2711.79
2721.86
2733.3
2746.16
2760.47
2776.26
2793.54
2812.31
2832.59
2854.37
2877.62
2902.31
2928.39
2955.77
2984.33
3013.91
3044.34
3077.02
3108.57
3140.15
3171.39
3201.91
3231.28
3259.06
3284.83
3308.15
3328.62
3345.84
3359.45
3369.16
3374.72
3375.96
3372.8
3365.44
3353.79
3338.03
3318.44
3295.4
3269.36
3240.81
3210.28
3178.31
3145.4
3112.08
3078.8
3046.07
3014.65
2984.27
2954.93
2926.92
2900.49
2875.77
2852.8
2831.6
2812.14
2794.35
2778.15
2763.44
2750.1
2738.06
2727.21
2717.48
2708.82
2701.2
2694.61
2689.07
2684.61
2681.3
2679.21
2678.41
2679
2681.1
2684.77
2690.13
2697.25
2706.18
2716.98
2729.7
2744.35
2760.92
2779.4
2799.72
2821.81
2845.55
2870.78
2897.36
2925.09
2953.75
2983.12
3018.17
3048.46
3078.78
3108.77
3138.1
3166.49
3193.61
3219.14
3242.83
3264.39
3283.58
3300.13
3313.83
3324.51
3332
3336.17
2865.91
2840.72
2812.18
2783.95
2756.93
2731.42
2707.62
2685.59
2665.38
2646.97
2630.35
2615.47
2602.28
2590.73
2580.74
2572.28
2565.29
2559.72
2555.55
2552.74
2551.29
2551.18
2552.4
2554.98
2558.93
2564.3
2571.13
2579.48
2589.39
2600.95
2614.23
2629.29
2646.18
2664.96
2685.66
2708.3
2732.87
2759.3
2787.55
2817.49
2848.94
2881.72
2915.55
2950.14
2985.19
3020.31
3055.06
3089.08
3121.93
3153.12
3182.27
3208.96
3232.79
3253.44
3270.58
3283.98
3293.45
3298.85
3300.12
3297.16
3290.07
3278.91
3263.86
3245.14
3223.03
3197.84
3169.95
3139.77
3107.71
3074.2
3039.69
3004.62
2969.38
2934.36
2900.01
2866.68
2834.32
2803.23
2773.64
2745.73
2719.59
2695.33
2672.98
2652.58
2634.14
2617.64
2603.06
2590.39
2579.58
2570.6
2563.39
2557.89
2554.04
2551.75
2550.96
2551.6
2553.62
2556.98
2561.68
2567.72
2575.1
2583.87
2594.06
2605.71
2618.88
2633.6
2649.93
2667.88
2687.49
2708.75
2731.66
2756.18
2782.25
2809.81
2838.74
2868.9
2900.21
2932.3
2965.02
2998.08
3031.17
3063.97
3096.08
3127.12
3156.67
3184.3
3209.58
3232.09
3251.45
3267.28
3279.3
3287.24
3290.92