/*--------------------------------*- C++ -*----------------------------------*\
| =========                 |                                                 |
| \\      /  F ield         | OpenFOAM: The Open Source CFD Toolbox           |
|  \\    /   O peration     | Version:  3.0.1                                 |
|   \\  /    A nd           | Web:      www.OpenFOAM.org                      |
|    \\/     M anipulation  |                                                 |
\*---------------------------------------------------------------------------*/
FoamFile
{
    version     2.0;
    format      ascii;
    class       surfaceScalarField;
    location    "61.2";
    object      alphaPhi;
}
// * * * * * * * * * * * * * * * * * * * * * * * * * * * * * * * * * * * * * //

dimensions      [0 3 -1 0 0 0 0];

internalField   nonuniform List<scalar> 
42423
(
-3.15533e-05
-1.38527e-05
-1.63525e-05
-1.52008e-05
-2.19759e-08
-1.63306e-05
1.67851e-05
-1.68071e-05
3.45488e-05
-1.77637e-05
5.27853e-05
-1.82365e-05
7.16256e-05
-1.88403e-05
9.06939e-05
-1.90684e-05
0.000109622
-1.89282e-05
0.000128422
-1.88e-05
0.000146752
-1.83302e-05
0.000164243
-1.74904e-05
0.000180745
-1.65026e-05
0.00019595
-1.52047e-05
0.000209628
-1.3678e-05
0.00022153
-1.19024e-05
0.000231425
-9.89428e-06
0.000239057
-7.63252e-06
0.000244302
-5.2451e-06
0.000247034
-2.73198e-06
0.000247274
-2.39529e-07
0.000244971
2.30286e-06
0.000239931
5.03921e-06
0.000232572
7.3594e-06
0.000222844
9.72809e-06
0.000211199
1.16447e-05
0.000197587
1.36123e-05
0.000182264
1.53224e-05
0.00016566
1.66049e-05
0.00014797
1.769e-05
0.000129427
1.85422e-05
0.000110359
1.90686e-05
9.09503e-05
1.94084e-05
7.14953e-05
1.94551e-05
5.21538e-05
1.93415e-05
3.31638e-05
1.899e-05
1.47374e-05
1.84264e-05
-2.96392e-06
1.77013e-05
-1.99539e-05
1.699e-05
-3.60788e-05
1.61248e-05
-5.12709e-05
1.51921e-05
-6.54844e-05
1.42135e-05
-7.87e-05
1.32156e-05
-9.0897e-05
1.2197e-05
-0.000102072
1.11754e-05
-0.000112263
1.01901e-05
-0.000121469
9.20689e-06
-0.000129732
8.26237e-06
-0.000137072
7.34064e-06
-0.000143518
6.44546e-06
-0.00014909
5.57204e-06
-0.000153826
4.73647e-06
-0.000157767
3.94037e-06
-0.000160944
3.17698e-06
-0.000163376
2.43218e-06
-0.000165029
1.65265e-06
-0.000166026
9.97034e-07
-0.000166251
2.25685e-07
-0.000165695
-5.56127e-07
-0.000164349
-1.34662e-06
-0.000162239
-2.10949e-06
-0.00015932
-2.91954e-06
-0.000155689
-3.63045e-06
-0.000151222
-4.46699e-06
-0.000145942
-5.27968e-06
-0.000139887
-6.05526e-06
-0.000132925
-6.96263e-06
-0.000125181
-7.74315e-06
-0.000116401
-8.78035e-06
-0.000106747
-9.65426e-06
-9.62718e-05
-1.04751e-05
-8.48967e-05
-1.13751e-05
-7.2645e-05
-1.22518e-05
-5.96489e-05
-1.29961e-05
-4.57643e-05
-1.38846e-05
-3.11049e-05
-1.46593e-05
-1.5706e-05
-1.5399e-05
4.92844e-07
-1.61988e-05
1.71634e-05
-1.66706e-05
3.4346e-05
-1.71826e-05
5.19473e-05
-1.76012e-05
6.96672e-05
-1.772e-05
8.7541e-05
-1.78738e-05
0.000105386
-1.78455e-05
0.00012292
-1.75331e-05
0.000140068
-1.71478e-05
0.000156535
-1.6467e-05
0.000172141
-1.5606e-05
0.000186552
-1.44111e-05
0.000199541
-1.29888e-05
0.000210796
-1.12539e-05
0.000220085
-9.2889e-06
0.000227194
-7.10844e-06
0.000231948
-4.7533e-06
0.00023424
-2.29201e-06
0.000234057
1.83542e-07
0.000231355
2.70273e-06
0.000226135
5.22013e-06
0.000218499
7.63622e-06
0.000208592
9.90697e-06
0.000196607
1.19853e-05
0.000182723
1.38837e-05
0.000167165
1.55582e-05
0.000150128
1.70376e-05
0.000131906
1.82214e-05
0.000112753
1.91535e-05
9.29938e-05
1.9759e-05
7.28982e-05
2.00956e-05
5.27309e-05
2.01673e-05
3.27462e-05
1.99847e-05
1.31628e-05
1.95834e-05
-5.75096e-06
1.89138e-05
-2.3861e-05
1.81101e-05
-4.10827e-05
1.72217e-05
-5.72318e-05
1.6149e-05
-7.23169e-05
1.50852e-05
-8.62221e-05
1.39052e-05
-9.89665e-05
1.27444e-05
-0.000110644
1.16777e-05
-0.000121152
1.05081e-05
-0.00013057
9.41797e-06
-0.000138919
8.3484e-06
-0.000146245
7.32633e-06
-0.000152612
6.36668e-06
-0.000158017
5.40506e-06
-0.000162598
4.58106e-06
-0.000166255
3.65692e-06
-0.000169125
2.87056e-06
-0.000171265
2.13975e-06
-0.000172619
1.35438e-06
-0.000173263
6.43968e-07
-0.000173377
1.13907e-07
-0.00017275
-6.26952e-07
-0.000171587
-1.16379e-06
-0.000169777
-1.80987e-06
-0.000167335
-2.44158e-06
-0.000164449
-2.88656e-06
-0.000160846
-3.60236e-06
-0.00015671
-4.13668e-06
-0.000151857
-4.85228e-06
-0.000146426
-5.43162e-06
-0.000140251
-6.17497e-06
-0.00013345
-6.80077e-06
-0.000125858
-7.59176e-06
-0.000117547
-8.31141e-06
-0.000108429
-9.11794e-06
-9.84873e-05
-9.94181e-06
-8.76958e-05
-1.07915e-05
-7.60542e-05
-1.16417e-05
-6.3521e-05
-1.25332e-05
-5.00618e-05
-1.34592e-05
-3.58649e-05
-1.4197e-05
-2.08489e-05
-1.50161e-05
-5.11127e-06
-1.57376e-05
1.126e-05
-1.63713e-05
2.81039e-05
-1.6844e-05
4.53615e-05
-1.72576e-05
6.27545e-05
-1.73931e-05
8.01916e-05
-1.74371e-05
9.74264e-05
-1.72349e-05
0.00011419
-1.67632e-05
0.000130258
-1.60682e-05
0.00014537
-1.51125e-05
0.000159289
-1.39186e-05
0.000171749
-1.24605e-05
0.000182524
-1.07756e-05
0.000191322
-8.79729e-06
0.000197986
-6.66399e-06
0.000202335
-4.34932e-06
0.000204212
-1.87769e-06
0.000203639
5.7327e-07
0.000200513
3.1262e-06
0.000194827
5.68635e-06
0.000186801
8.0258e-06
0.000176545
1.0256e-05
0.000164252
1.22921e-05
0.00015016
1.40921e-05
0.000134567
1.55928e-05
0.000117743
1.68245e-05
9.99682e-05
1.77747e-05
8.15925e-05
1.83757e-05
6.28667e-05
1.87257e-05
4.40911e-05
1.87757e-05
2.53818e-05
1.87093e-05
7.00645e-06
1.83753e-05
-1.09017e-05
1.79082e-05
-2.82212e-05
1.73194e-05
-4.48024e-05
1.65812e-05
-6.06128e-05
1.58105e-05
-7.54417e-05
1.48288e-05
-8.92815e-05
1.38398e-05
-0.000102062
1.27803e-05
-0.000113781
1.17195e-05
-0.000124411
1.06294e-05
-0.000134052
9.64108e-06
-0.000142705
8.65312e-06
-0.000150368
7.66363e-06
-0.00015709
6.72163e-06
-0.000162906
5.81582e-06
-0.000168012
5.10639e-06
-0.000172259
4.24631e-06
-0.000175843
3.58403e-06
-0.000178689
2.84637e-06
-0.000180879
2.19033e-06
-0.000182437
1.55789e-06
-0.000183391
9.5326e-07
-0.000183836
4.45658e-07
-0.000183763
-7.33266e-08
-0.000183134
-6.29006e-07
-0.000182027
-1.1072e-06
-0.000180276
-1.75019e-06
-0.000177931
-2.34528e-06
-0.000175025
-2.906e-06
-0.000171388
-3.63694e-06
-0.000167228
-4.16039e-06
-0.000162331
-4.89701e-06
-0.000156772
-5.55919e-06
-0.000150506
-6.2657e-06
-0.000143471
-7.03521e-06
-0.000135804
-7.66649e-06
-0.00012731
-8.49447e-06
-0.000118027
-9.28262e-06
-0.000107928
-1.0099e-05
-9.70441e-05
-1.08843e-05
-8.53408e-05
-1.17033e-05
-7.27729e-05
-1.25679e-05
-5.95084e-05
-1.32645e-05
-4.54021e-05
-1.41064e-05
-3.05561e-05
-1.4846e-05
-1.50355e-05
-1.55207e-05
1.05816e-06
-1.60937e-05
1.76236e-05
-1.65655e-05
3.44968e-05
-1.68732e-05
5.14903e-05
-1.69936e-05
6.83945e-05
-1.69043e-05
8.49803e-05
-1.65858e-05
0.000101023
-1.60427e-05
0.000116282
-1.52588e-05
0.00013046
-1.41784e-05
0.000143354
-1.28938e-05
0.000154721
-1.13675e-05
0.000164302
-9.58055e-06
0.000171901
-7.59974e-06
0.000177331
-5.42923e-06
0.000180469
-3.13837e-06
0.000181247
-7.78011e-07
0.000179594
1.65308e-06
0.000175509
4.08406e-06
0.000169085
6.42482e-06
0.000160471
8.61323e-06
0.000149794
1.06767e-05
0.000137264
1.25306e-05
0.000123107
1.41571e-05
0.000107581
1.55256e-05
9.0958e-05
1.66227e-05
7.34448e-05
1.75131e-05
5.54268e-05
1.8018e-05
3.70889e-05
1.83378e-05
1.87229e-05
1.83659e-05
5.56544e-07
1.81664e-05
-1.72224e-05
1.7779e-05
-3.44237e-05
1.72013e-05
-5.08981e-05
1.64744e-05
-6.65537e-05
1.56558e-05
-8.1376e-05
1.48224e-05
-9.51941e-05
1.38182e-05
-0.000108022
1.28284e-05
-0.000119888
1.18656e-05
-0.000130668
1.07804e-05
-0.000140445
9.77731e-06
-0.000149291
8.84517e-06
-0.000157058
7.76725e-06
-0.000163903
6.84488e-06
-0.000169776
5.87395e-06
-0.000174773
4.99698e-06
-0.000178899
4.12571e-06
-0.000181989
3.08996e-06
-0.000184226
2.23684e-06
-0.000185504
1.27854e-06
-0.000185961
4.57084e-07
-0.00018546
-5.0192e-07
-0.00018411
-1.34962e-06
-0.000182097
-2.01309e-06
-0.00017943
-2.66714e-06
-0.000176196
-3.23355e-06
-0.000172646
-3.55016e-06
-0.000168777
-3.86936e-06
-0.000164471
-4.30519e-06
-0.00015996
-4.51181e-06
-0.000155023
-4.93665e-06
-0.00014982
-5.20322e-06
-0.000144342
-5.47743e-06
-0.000138384
-5.95868e-06
-0.000131871
-6.5125e-06
-0.000124916
-6.95518e-06
-0.00011713
-7.78625e-06
-0.000108541
-8.58875e-06
-9.92128e-05
-9.32813e-06
-8.87989e-05
-1.04139e-05
-7.74723e-05
-1.13266e-05
-6.49655e-05
-1.25068e-05
-5.13812e-05
-1.35843e-05
-3.6906e-05
-1.44752e-05
-2.13653e-05
-1.55407e-05
-4.86149e-06
-1.65038e-05
1.2294e-05
-1.71555e-05
3.0084e-05
-1.77901e-05
4.81755e-05
-1.80915e-05
6.64273e-05
-1.82518e-05
8.46558e-05
-1.82285e-05
0.000102379
-1.77235e-05
0.00011946
-1.70811e-05
0.000135609
-1.61486e-05
0.000150468
-1.48587e-05
0.000163861
-1.33935e-05
0.000175545
-1.16837e-05
0.000185322
-9.77749e-06
0.000192994
-7.6713e-06
0.000198433
-5.43941e-06
0.00020159
-3.15665e-06
0.00020244
-8.49975e-07
0.000200832
1.60729e-06
0.000196872
3.96051e-06
0.000190696
6.17589e-06
0.000182561
8.13471e-06
0.000172698
9.86332e-06
0.000161077
1.16204e-05
0.000148249
1.28282e-05
0.000134331
1.39186e-05
0.000119533
1.47973e-05
0.000104134
1.53989e-05
8.83177e-05
1.58167e-05
7.22568e-05
1.60609e-05
5.61112e-05
1.61456e-05
4.00313e-05
1.60799e-05
2.41364e-05
1.58949e-05
8.50496e-06
1.56315e-05
-6.66333e-06
1.51683e-05
-2.14086e-05
1.47453e-05
-3.56895e-05
1.42809e-05
-4.94229e-05
1.37333e-05
-6.25468e-05
1.3124e-05
-7.50623e-05
1.25154e-05
-8.69059e-05
1.18436e-05
-9.80909e-05
1.1185e-05
-0.000108561
1.04697e-05
-0.000118282
9.72123e-06
-0.000127258
8.9757e-06
-0.000135439
8.18131e-06
-0.000142799
7.36013e-06
-0.000149334
6.53509e-06
-0.000155022
5.68796e-06
-0.000159863
4.84107e-06
-0.000163852
3.98892e-06
-0.000166983
3.13094e-06
-0.00016925
2.26691e-06
1.38984e-06
-3.15911e-05
-2.77058e-05
-1.63872e-05
-3.04048e-05
-5.41537e-08
-3.26637e-05
1.67545e-05
-3.36159e-05
3.45252e-05
-3.55345e-05
5.27695e-05
-3.64809e-05
7.16186e-05
-3.76895e-05
9.0698e-05
-3.81479e-05
0.000109637
-3.78676e-05
0.000128452
-3.76146e-05
0.000146793
-3.66712e-05
0.000164299
-3.49965e-05
0.00018082
-3.30236e-05
0.000196053
-3.04378e-05
0.000209758
-2.73829e-05
0.000221674
-2.38188e-05
0.000231558
-1.97786e-05
0.000239183
-1.52568e-05
0.000244431
-1.04933e-05
0.00024717
-5.47125e-06
0.000247406
-4.75884e-07
0.000245096
4.61321e-06
0.000240054
1.00815e-05
0.000232692
1.4721e-05
0.000222953
1.9467e-05
0.000211304
2.32938e-05
0.000197684
2.7232e-05
0.00018234
3.06669e-05
0.000165721
3.32232e-05
0.000148018
3.53937e-05
0.000129461
3.70985e-05
0.000110378
3.81516e-05
9.09654e-05
3.88212e-05
7.15007e-05
3.89198e-05
5.2158e-05
3.86841e-05
3.31556e-05
3.79924e-05
1.4719e-05
3.6863e-05
-2.98802e-06
3.54083e-05
-1.99839e-05
3.39859e-05
-3.61134e-05
3.22543e-05
-5.13102e-05
3.03889e-05
-6.5527e-05
2.84304e-05
-7.87451e-05
2.64336e-05
-9.09447e-05
2.43965e-05
-0.000102121
2.23521e-05
-0.000112317
2.03854e-05
-0.000121522
1.84121e-05
-0.000129784
1.65247e-05
-0.000137126
1.46821e-05
-0.000143574
1.28937e-05
-0.000149147
1.11451e-05
-0.000153894
9.4838e-06
-0.000157833
7.87926e-06
-0.000161009
6.35262e-06
-0.000163435
4.85819e-06
-0.000165092
3.30931e-06
-0.000166091
1.99637e-06
-0.000166314
4.48893e-07
-0.000165765
-1.10482e-06
-0.000164415
-2.69667e-06
-0.000162312
-4.21339e-06
-0.000159386
-5.84477e-06
-0.000155761
-7.25548e-06
-0.000151293
-8.93581e-06
-0.000146009
-1.05627e-05
-0.00013996
-1.21044e-05
-0.000132995
-1.39281e-05
-0.000125245
-1.54931e-05
-0.000116461
-1.75645e-05
-0.000106812
-1.93034e-05
-9.63353e-05
-2.09515e-05
-8.49565e-05
-2.2754e-05
-7.2712e-05
-2.44963e-05
-5.97044e-05
-2.60037e-05
-4.5818e-05
-2.77711e-05
-3.11511e-05
-2.93263e-05
-1.57372e-05
-3.08129e-05
4.54664e-07
-3.23908e-05
1.71329e-05
-3.33489e-05
3.43252e-05
-3.4375e-05
5.19296e-05
-3.52057e-05
6.96568e-05
-3.54472e-05
8.75463e-05
-3.57633e-05
0.000105407
-3.57061e-05
0.00012295
-3.50765e-05
0.000140118
-3.43154e-05
0.000156595
-3.29438e-05
0.000172219
-3.12297e-05
0.000186654
-2.8846e-05
0.000199671
-2.60054e-05
0.000210943
-2.2525e-05
0.000220232
-1.85781e-05
0.000227342
-1.42177e-05
0.000232106
-9.51685e-06
0.000234408
-4.59333e-06
0.000234214
3.77893e-07
0.000231486
5.4307e-06
0.000226248
1.04585e-05
0.000218611
1.52737e-05
0.000208688
1.98296e-05
0.000196693
2.39811e-05
0.000182795
2.7782e-05
0.000167226
3.11268e-05
0.000150155
3.41086e-05
0.00013192
3.64569e-05
0.000112758
3.83153e-05
9.29812e-05
3.9536e-05
7.28611e-05
4.02158e-05
5.26997e-05
4.03288e-05
3.27073e-05
3.99771e-05
1.31104e-05
3.91804e-05
-5.81309e-06
3.78373e-05
-2.39389e-05
3.6236e-05
-4.11645e-05
3.44472e-05
-5.73234e-05
3.2308e-05
-7.24155e-05
3.01773e-05
-8.63284e-05
2.78181e-05
-9.90935e-05
2.55095e-05
-0.000110758
2.33423e-05
-0.000121278
2.10276e-05
-0.000130694
1.88346e-05
-0.000139043
1.66973e-05
-0.000146375
1.46584e-05
-0.000152747
1.27388e-05
-0.000158151
1.08086e-05
-0.00016273
9.16057e-06
-0.000166398
7.32417e-06
-0.000169285
5.75748e-06
-0.000171411
4.26621e-06
-0.000172773
2.7159e-06
-0.000173446
1.31706e-06
-0.000173537
2.05378e-07
-0.000172916
-1.24779e-06
-0.000171735
-2.34515e-06
-0.000169946
-3.59835e-06
-0.000167534
-4.85409e-06
-0.000164621
-5.79987e-06
-0.000161038
-7.18483e-06
-0.000156889
-8.28547e-06
-0.000152061
-9.68071e-06
-0.000146613
-1.08799e-05
-0.00014046
-1.23282e-05
-0.000133643
-1.36177e-05
-0.000126025
-1.52092e-05
-0.000117744
-1.65923e-05
-0.000108618
-1.82441e-05
-9.86676e-05
-1.98924e-05
-8.78793e-05
-2.15799e-05
-7.62339e-05
-2.32871e-05
-6.36928e-05
-2.50743e-05
-5.02454e-05
-2.69066e-05
-3.6042e-05
-2.84004e-05
-2.10103e-05
-3.00478e-05
-5.2588e-06
-3.14892e-05
1.11199e-05
-3.27501e-05
2.79968e-05
-3.3721e-05
4.52525e-05
-3.45134e-05
6.26745e-05
-3.48152e-05
8.01317e-05
-3.48943e-05
9.73839e-05
-3.44873e-05
0.000114158
-3.3537e-05
0.000130243
-3.21538e-05
0.000145374
-3.02431e-05
0.000159311
-2.78563e-05
0.000171788
-2.49376e-05
0.000182591
-2.15786e-05
0.000191387
-1.75936e-05
0.000198072
-1.3349e-05
0.000202437
-8.71388e-06
0.000204308
-3.74863e-06
0.000203727
1.15412e-06
0.000200597
6.25563e-06
0.000194912
1.13715e-05
0.000186885
1.60532e-05
0.000176616
2.05242e-05
0.000164319
2.45897e-05
0.000150211
2.81994e-05
0.000134604
3.12004e-05
0.00011778
3.36479e-05
9.99719e-05
3.55833e-05
8.15791e-05
3.67684e-05
6.28412e-05
3.74637e-05
4.40469e-05
3.75699e-05
2.53471e-05
3.74092e-05
6.95206e-06
3.67703e-05
-1.09648e-05
3.58251e-05
-2.82975e-05
3.46521e-05
-4.48928e-05
3.31766e-05
-6.07085e-05
3.16262e-05
-7.55454e-05
2.96657e-05
-8.93889e-05
2.76833e-05
-0.000102181
2.55729e-05
-0.000113905
2.34434e-05
-0.000124541
2.12654e-05
-0.000134162
1.92618e-05
-0.000142842
1.73335e-05
-0.000150504
1.53257e-05
-0.000157236
1.3453e-05
-0.00016307
1.165e-05
-0.000168151
1.01877e-05
-0.000172415
8.51034e-06
-0.00017599
7.15888e-06
-0.000178851
5.70762e-06
-0.000181043
4.38173e-06
-0.000182604
3.11939e-06
-0.000183564
1.91249e-06
-0.000184003
8.84975e-07
-0.000183933
-1.43469e-07
-0.000183313
-1.2486e-06
-0.000182199
-2.22126e-06
-0.000180456
-3.49365e-06
-0.000178108
-4.69249e-06
-0.000175203
-5.81162e-06
-0.000171571
-7.2689e-06
-0.00016741
-8.32084e-06
-0.000162508
-9.7998e-06
-0.000156961
-1.11053e-05
-0.000150692
-1.25356e-05
-0.000143709
-1.40175e-05
-0.000135991
-1.53844e-05
-0.000127491
-1.69946e-05
-0.000118206
-1.85677e-05
-0.000108099
-2.02059e-05
-9.72127e-05
-2.17709e-05
-8.54974e-05
-2.34187e-05
-7.29254e-05
-2.51399e-05
-5.96636e-05
-2.65264e-05
-4.55425e-05
-2.82276e-05
-3.06797e-05
-2.97088e-05
-1.51534e-05
-3.10469e-05
9.56283e-07
-3.22035e-05
1.75286e-05
-3.31378e-05
3.44197e-05
-3.37644e-05
5.14414e-05
-3.40153e-05
6.83527e-05
-3.38156e-05
8.49489e-05
-3.31821e-05
0.000101008
-3.21014e-05
0.000116283
-3.05347e-05
0.000130473
-2.83677e-05
0.000143389
-2.58104e-05
0.000154769
-2.27471e-05
0.000164368
-1.91795e-05
0.000171978
-1.52099e-05
0.000177414
-1.08651e-05
0.000180558
-6.28276e-06
0.000181325
-1.54563e-06
0.000179668
3.31052e-06
0.000175587
8.16449e-06
0.000169161
1.28515e-05
0.000160532
1.72416e-05
0.000149845
2.13639e-05
0.000137302
2.50728e-05
0.000123129
2.83306e-05
0.000107587
3.10677e-05
9.09391e-05
3.32701e-05
7.34164e-05
3.50357e-05
5.53776e-05
3.60567e-05
3.70335e-05
3.66818e-05
1.866e-05
3.67394e-05
4.7904e-07
3.63473e-05
-1.73105e-05
3.55686e-05
-3.4513e-05
3.44039e-05
-5.09897e-05
3.29512e-05
-6.66477e-05
3.13138e-05
-8.14588e-05
2.96336e-05
-9.52827e-05
2.76422e-05
-0.0001081
2.56463e-05
-0.000119961
2.37257e-05
-0.000130749
2.15687e-05
-0.000140522
1.95504e-05
-0.000149362
1.7686e-05
-0.000157135
1.55394e-05
-0.000163973
1.36831e-05
-0.000169849
1.17503e-05
-0.000174837
9.98535e-06
-0.000178967
8.25506e-06
-0.000182063
6.1859e-06
-0.000184305
4.47918e-06
-0.000185576
2.54928e-06
-0.00018603
9.11284e-07
-0.00018553
-1.00175e-06
-0.000184174
-2.70505e-06
-0.000182157
-4.03037e-06
-0.000179485
-5.33953e-06
-0.000176243
-6.47515e-06
-0.000172691
-7.10277e-06
-0.000168819
-7.7406e-06
-0.000164513
-8.61185e-06
-0.00016
-9.02445e-06
-0.000155063
-9.87399e-06
-0.000149861
-1.04046e-05
-0.000144389
-1.09498e-05
-0.000138432
-1.19157e-05
-0.000131922
-1.30225e-05
-0.00012496
-1.39171e-05
-0.000117192
-1.55543e-05
-0.000108602
-1.71785e-05
-9.9275e-05
-1.86554e-05
-8.88627e-05
-2.08262e-05
-7.75371e-05
-2.26522e-05
-6.50293e-05
-2.50147e-05
-5.14272e-05
-2.71865e-05
-3.69471e-05
-2.89553e-05
-2.13949e-05
-3.10929e-05
-4.90832e-06
-3.29904e-05
1.22633e-05
-3.43272e-05
3.00623e-05
-3.55891e-05
4.81657e-05
-3.61949e-05
6.64314e-05
-3.65175e-05
8.46726e-05
-3.64698e-05
0.000102409
-3.546e-05
0.000119505
-3.41768e-05
0.000135668
-3.23124e-05
0.000150539
-2.97295e-05
0.000163945
-2.67997e-05
0.00017564
-2.33785e-05
0.000185428
-1.95655e-05
0.000193113
-1.53561e-05
0.000198559
-1.08851e-05
0.000201716
-6.31378e-06
0.000202564
-1.69847e-06
0.000200946
3.22557e-06
0.000196978
7.92789e-06
0.000190799
1.23553e-05
0.000182653
1.62803e-05
0.000172779
1.97381e-05
0.000161152
2.32471e-05
0.000148311
2.56691e-05
0.000134381
2.78487e-05
0.000119572
2.96059e-05
0.000104163
3.08082e-05
8.83361e-05
3.16434e-05
7.22661e-05
3.21309e-05
5.61163e-05
3.22953e-05
4.00303e-05
3.21659e-05
2.41367e-05
3.17885e-05
8.49478e-06
3.12733e-05
-6.67605e-06
3.03391e-05
-2.14268e-05
2.9496e-05
-3.57108e-05
2.8565e-05
-4.94454e-05
2.74679e-05
-6.25723e-05
2.62509e-05
-7.50911e-05
2.50342e-05
-8.69373e-05
2.36899e-05
-9.81228e-05
2.23705e-05
-0.000108595
2.09423e-05
-0.000118318
1.9444e-05
-0.000127292
1.79495e-05
-0.000135472
1.63608e-05
-0.000142835
1.47233e-05
-0.000149371
1.30712e-05
-0.000155058
1.13749e-05
-0.000159898
9.68152e-06
-0.000163886
7.97666e-06
-0.000167018
6.26328e-06
-0.000169288
4.5365e-06
2.77567e-06
-3.16653e-05
-4.15609e-05
-1.64558e-05
-4.56143e-05
-1.1689e-07
-4.90027e-05
1.66992e-05
-5.0432e-05
3.44872e-05
-5.33225e-05
5.27547e-05
-5.47484e-05
7.16266e-05
-5.65614e-05
9.0734e-05
-5.72553e-05
0.000109694
-5.68275e-05
0.000128541
-5.64615e-05
0.000146914
-5.50445e-05
0.000164449
-5.25316e-05
0.000180988
-4.95628e-05
0.000196233
-4.56824e-05
0.000209942
-4.1092e-05
0.000221873
-3.575e-05
0.000231783
-2.9689e-05
0.000239424
-2.28975e-05
0.000244679
-1.57481e-05
0.000247427
-8.21983e-06
0.000247636
-6.84292e-07
0.00024529
6.95925e-06
0.000240239
1.51323e-05
0.000232872
2.20876e-05
0.000223115
2.92239e-05
0.000211444
3.4965e-05
0.000197836
4.08401e-05
0.000182449
4.60541e-05
0.000165808
4.98641e-05
0.000148081
5.31207e-05
0.0001295
5.56794e-05
0.000110391
5.72604e-05
9.09724e-05
5.82398e-05
7.14913e-05
5.84009e-05
5.21586e-05
5.80168e-05
3.31312e-05
5.70198e-05
1.46767e-05
5.53174e-05
-3.04859e-06
5.31336e-05
-2.00553e-05
5.09926e-05
-3.61924e-05
4.83914e-05
-5.13941e-05
4.55906e-05
-6.56127e-05
4.2649e-05
-7.88318e-05
3.96527e-05
-9.1033e-05
3.65978e-05
-0.00010221
3.35295e-05
-0.000112406
3.05805e-05
-0.000121609
2.76153e-05
-0.00012987
2.47857e-05
-0.00013721
2.20226e-05
-0.000143659
1.93421e-05
-0.000149229
1.67152e-05
-0.000153982
1.42367e-05
-0.000157909
1.18066e-05
-0.000161083
9.52631e-06
-0.000163507
7.28276e-06
-0.000165163
4.96555e-06
-0.000166149
2.98187e-06
-0.000166372
6.71492e-07
-0.00016583
-1.64671e-06
-0.000164474
-4.05209e-06
-0.000162376
-6.31176e-06
-0.000159449
-8.77211e-06
-0.000155828
-1.08759e-05
-0.000151366
-1.3398e-05
-0.000146077
-1.58516e-05
-0.000140032
-1.81496e-05
-0.000133065
-2.08948e-05
-0.000125307
-2.32516e-05
-0.000116532
-2.63389e-05
-0.000106881
-2.89546e-05
-9.64062e-05
-3.14265e-05
-8.50223e-05
-3.4138e-05
-7.27874e-05
-3.67312e-05
-5.97734e-05
-3.90178e-05
-4.58799e-05
-4.16646e-05
-3.12083e-05
-4.3998e-05
-1.57798e-05
-4.62414e-05
4.03651e-07
-4.85743e-05
1.70836e-05
-5.00289e-05
3.42887e-05
-5.15801e-05
5.18958e-05
-5.28128e-05
6.96366e-05
-5.31879e-05
8.75418e-05
-5.36684e-05
0.000105418
-5.35822e-05
0.000122981
-5.26391e-05
0.000140167
-5.15021e-05
0.000156664
-4.944e-05
0.000172313
-4.68787e-05
0.000186767
-4.33e-05
0.000199802
-3.90401e-05
0.000211088
-3.381e-05
0.000220388
-2.78786e-05
0.000227512
-2.13404e-05
0.000232278
-1.42823e-05
0.000234572
-6.88752e-06
0.000234356
5.94606e-07
0.000231602
8.18481e-06
0.000226329
1.57316e-05
0.000218669
2.29342e-05
0.00020875
2.97487e-05
0.000196732
3.59994e-05
0.000182813
4.17013e-05
0.000167209
4.6731e-05
0.000150113
5.12048e-05
0.000131853
5.47169e-05
0.000112664
5.75037e-05
9.2856e-05
5.93445e-05
7.27113e-05
6.03605e-05
5.25302e-05
6.05099e-05
3.25193e-05
5.9988e-05
1.29256e-05
5.87741e-05
-6.01394e-06
5.67768e-05
-2.4159e-05
5.43811e-05
-4.13846e-05
5.16728e-05
-5.75498e-05
4.84732e-05
-7.26408e-05
4.52683e-05
-8.657e-05
4.17474e-05
-9.93567e-05
3.82962e-05
-0.000111001
3.49866e-05
-0.000121521
3.15476e-05
-0.000130929
2.82428e-05
-0.000139268
2.50366e-05
-0.000146594
2.19841e-05
-0.000152965
1.91097e-05
-0.000158368
1.62118e-05
-0.000162945
1.37373e-05
-0.000166617
1.09965e-05
-0.000169511
8.65143e-06
-0.000171626
6.381e-06
-0.000172994
4.08415e-06
-0.000173696
2.01876e-06
-0.000173749
2.5861e-07
-0.000173123
-1.87401e-06
-0.000171879
-3.5897e-06
-0.000170148
-5.32869e-06
-0.000167782
-7.22073e-06
-0.000164828
-8.75354e-06
-0.000161261
-1.07518e-05
-0.000157106
-1.24405e-05
-0.000152292
-1.44946e-05
-0.000146839
-1.63329e-05
-0.000140701
-1.84656e-05
-0.000133871
-2.04479e-05
-0.000126259
-2.28215e-05
-0.00011797
-2.48808e-05
-0.000108846
-2.73687e-05
-9.88863e-05
-2.9852e-05
-8.81031e-05
-3.23631e-05
-7.64516e-05
-3.49385e-05
-6.39183e-05
-3.76077e-05
-5.052e-05
-4.03049e-05
-3.62756e-05
-4.26449e-05
-2.12365e-05
-4.50869e-05
-5.45566e-06
-4.72701e-05
1.0928e-05
-4.91338e-05
2.7833e-05
-5.0626e-05
4.5105e-05
-5.17854e-05
6.25498e-05
-5.22601e-05
8.00199e-05
-5.23645e-05
9.72841e-05
-5.17515e-05
0.000114092
-5.03446e-05
0.00013021
-4.82723e-05
0.000145367
-4.53997e-05
0.000159326
-4.18154e-05
0.000171803
-3.74148e-05
0.000182615
-3.23904e-05
0.000191435
-2.64136e-05
0.000198135
-2.00493e-05
0.000202515
-1.30937e-05
0.000204392
-5.62604e-06
0.000203791
1.75461e-06
0.000200656
9.39095e-06
0.000194968
1.70598e-05
0.000186941
2.40797e-05
0.000176649
3.08161e-05
0.000164325
3.69135e-05
0.000150191
4.23341e-05
0.000134562
4.68288e-05
0.000117721
5.04893e-05
9.98859e-05
5.34181e-05
8.14714e-05
5.51829e-05
6.27012e-05
5.62339e-05
4.38725e-05
5.63986e-05
2.51966e-05
5.60851e-05
6.77206e-06
5.51949e-05
-1.11536e-05
5.37508e-05
-2.85022e-05
5.20008e-05
-4.51089e-05
4.97833e-05
-6.09083e-05
4.74256e-05
-7.57628e-05
4.45202e-05
-8.961e-05
4.15305e-05
-0.000102414
3.83768e-05
-0.000114132
3.51616e-05
-0.000124776
3.19098e-05
-0.000134387
2.88726e-05
-0.000143075
2.60213e-05
-0.000150737
2.29874e-05
-0.00015747
2.01863e-05
-0.000163319
1.74993e-05
-0.00016832
1.51884e-05
-0.000172635
1.28248e-05
-0.000176199
1.0723e-05
-0.000179061
8.5693e-06
-0.000181244
6.5649e-06
-0.000182817
4.69277e-06
-0.000183778
2.87297e-06
-0.000184216
1.32353e-06
-0.000184144
-2.15201e-07
-0.000183518
-1.87529e-06
-0.000182398
-3.34072e-06
-0.000180665
-5.22727e-06
-0.000178316
-7.04107e-06
-0.000175406
-8.72168e-06
-0.000171837
-1.08379e-05
-0.000167623
-1.25349e-05
-0.000162674
-1.47491e-05
-0.000157175
-1.6604e-05
-0.000150904
-1.88063e-05
-0.000143944
-2.09777e-05
-0.000136208
-2.31206e-05
-0.000127711
-2.54914e-05
-0.000118422
-2.78571e-05
-0.000108323
-3.03044e-05
-9.74258e-05
-3.26685e-05
-8.56984e-05
-3.51461e-05
-7.31973e-05
-3.7641e-05
-5.98766e-05
-3.98471e-05
-4.5745e-05
-4.23592e-05
-3.08608e-05
-4.45931e-05
-1.53293e-05
-4.65784e-05
7.93655e-07
-4.83265e-05
1.73736e-05
-4.97178e-05
3.42771e-05
-5.0668e-05
5.13046e-05
-5.10428e-05
6.82534e-05
-5.07645e-05
8.48644e-05
-4.97932e-05
0.000100947
-4.81843e-05
0.000116244
-4.58315e-05
0.000130454
-4.25779e-05
0.000143383
-3.87393e-05
0.000154778
-3.4142e-05
0.000164401
-2.88029e-05
0.000172047
-2.28554e-05
0.000177475
-1.6294e-05
0.000180627
-9.43429e-06
0.00018141
-2.32886e-06
0.00017972
5.00086e-06
0.000175636
1.22485e-05
0.0001692
1.92866e-05
0.000160548
2.58936e-05
0.000149847
3.20649e-05
0.000137285
3.76344e-05
0.000123098
4.25174e-05
0.000107532
4.66337e-05
9.08406e-05
4.99617e-05
7.33175e-05
5.25587e-05
5.52548e-05
5.41193e-05
3.68937e-05
5.50427e-05
1.85053e-05
5.51279e-05
3.21147e-07
5.45314e-05
-1.74699e-05
5.33596e-05
-3.46726e-05
5.16067e-05
-5.11518e-05
4.94305e-05
-6.6803e-05
4.6965e-05
-8.15786e-05
4.44093e-05
-9.54269e-05
4.14907e-05
-0.000108234
3.84532e-05
-0.000120082
3.55746e-05
-0.000130878
3.23646e-05
-0.000140636
2.93081e-05
-0.00014946
2.65101e-05
-0.000157245
2.33242e-05
-0.000164074
2.05126e-05
-0.000169953
1.76291e-05
-0.000174924
1.49568e-05
-0.000179065
1.23962e-05
-0.000182171
9.2919e-06
-0.000184418
6.72576e-06
-0.000185679
3.81076e-06
-0.00018612
1.35209e-06
-0.000185605
-1.51652e-06
-0.000184241
-4.06976e-06
-0.000182217
-6.05454e-06
-0.000179533
-8.0227e-06
-0.000176282
-9.72694e-06
-0.000172724
-1.06604e-05
-0.000168847
-1.16177e-05
-0.000164537
-1.29213e-05
-0.000160025
-1.35364e-05
-0.000155091
-1.48086e-05
-0.000149892
-1.56031e-05
-0.000144427
-1.64152e-05
-0.000138473
-1.78693e-05
-0.00013197
-1.95261e-05
-0.000125003
-2.08833e-05
-0.000117259
-2.32984e-05
-0.000108669
-2.57684e-05
-9.93501e-05
-2.79748e-05
-8.89434e-05
-3.12329e-05
-7.76215e-05
-3.39741e-05
-6.51139e-05
-3.75223e-05
-5.14933e-05
-4.08071e-05
-3.70081e-05
-4.34405e-05
-2.1444e-05
-4.66571e-05
-4.9703e-06
-4.94641e-05
1.22221e-05
-5.15196e-05
3.0036e-05
-5.34031e-05
4.81577e-05
-5.43166e-05
6.64457e-05
-5.48056e-05
8.47112e-05
-5.47353e-05
0.000102473
-5.32219e-05
0.000119596
-5.13e-05
0.00013579
-4.85066e-05
0.000150684
-4.46229e-05
0.000164118
-4.02336e-05
0.000175833
-3.50936e-05
0.000185639
-2.93719e-05
0.000193338
-2.30548e-05
0.000198793
-1.63399e-05
0.000201956
-9.4776e-06
0.000202789
-2.53087e-06
0.000201126
4.88799e-06
0.000197143
1.19107e-05
0.000190956
1.85427e-05
0.000182792
2.44446e-05
0.000172894
2.96358e-05
0.000161264
3.4877e-05
0.000148398
3.85352e-05
0.000134448
4.17984e-05
0.000119621
4.4433e-05
0.000104195
4.62346e-05
8.83514e-05
4.74865e-05
7.2267e-05
4.82154e-05
5.61123e-05
4.845e-05
4.00175e-05
4.82607e-05
2.41283e-05
4.76777e-05
8.47731e-06
4.69243e-05
-6.71109e-06
4.55275e-05
-2.14689e-05
4.42538e-05
-3.57592e-05
4.28552e-05
-4.94992e-05
4.12078e-05
-6.26287e-05
3.93804e-05
-7.51482e-05
3.75538e-05
-8.69949e-05
3.55365e-05
-9.81816e-05
3.35573e-05
-0.000108654
3.14148e-05
-0.000118376
2.91658e-05
-0.000127352
2.69258e-05
-0.000135533
2.45418e-05
-0.000142896
2.20861e-05
-0.000149431
1.96065e-05
-0.000155118
1.70619e-05
-0.00015996
1.45231e-05
-0.000163951
1.19677e-05
-0.000167085
9.39723e-06
-0.000169361
6.81249e-06
4.15652e-06
-3.17767e-05
-5.54189e-05
-1.65598e-05
-6.08312e-05
-2.11539e-07
-6.5351e-05
1.66172e-05
-6.72608e-05
3.44325e-05
-7.11379e-05
5.2734e-05
-7.30499e-05
7.16406e-05
-7.54682e-05
9.07872e-05
-7.64019e-05
0.000109785
-7.58258e-05
0.000128671
-7.5347e-05
0.000147077
-7.34504e-05
0.000164651
-7.01061e-05
0.000181226
-6.61378e-05
0.00019651
-6.09668e-05
0.000210251
-5.48322e-05
0.000222206
-4.77052e-05
0.00023214
-3.96231e-05
0.000239796
-3.05539e-05
0.000245055
-2.10065e-05
0.000247805
-1.09707e-05
0.000247974
-8.52843e-07
0.000245584
9.34917e-06
0.000240519
2.01975e-05
0.000233143
2.94634e-05
0.00022336
3.90074e-05
0.000211651
4.6674e-05
0.000198029
5.44621e-05
0.000182612
6.14705e-05
0.000165938
6.65384e-05
0.000148176
7.08824e-05
0.000129559
7.42966e-05
0.000110413
7.64063e-05
9.09824e-05
7.76702e-05
7.14761e-05
7.79072e-05
5.21381e-05
7.73549e-05
3.31006e-05
7.60573e-05
1.46176e-05
7.38004e-05
-3.1401e-06
7.08913e-05
-2.01631e-05
6.80156e-05
-3.63112e-05
6.45395e-05
-5.15204e-05
6.07997e-05
-6.57434e-05
5.6872e-05
-7.89653e-05
5.28746e-05
-9.11679e-05
4.88004e-05
-0.000102346
4.47076e-05
-0.000112542
4.07762e-05
-0.000121741
3.68148e-05
-0.000130001
3.30459e-05
-0.000137341
2.93619e-05
-0.000143792
2.57931e-05
-0.00014936
2.22831e-05
-0.00015411
1.89871e-05
-0.000158038
1.57342e-05
-0.00016121
1.26982e-05
-0.000163631
9.70394e-06
-0.000165285
6.61979e-06
-0.000166253
3.9502e-06
-0.000166467
8.85047e-07
-0.000165901
-2.21274e-06
-0.000164565
-5.38816e-06
-0.000162474
-8.4024e-06
-0.000159547
-1.16993e-05
-0.000155934
-1.44893e-05
-0.000151476
-1.7856e-05
-0.000146179
-2.11483e-05
-0.000140142
-2.41864e-05
-0.000133174
-2.78633e-05
-0.000125394
-3.10316e-05
-0.000116643
-3.50901e-05
-0.000106986
-3.86118e-05
-9.65138e-05
-4.18983e-05
-8.5161e-05
-4.54908e-05
-7.29029e-05
-4.89892e-05
-5.98817e-05
-5.2039e-05
-4.59743e-05
-5.55721e-05
-3.12941e-05
-5.86782e-05
-1.58354e-05
-6.17001e-05
3.22742e-07
-6.47325e-05
1.70087e-05
-6.67149e-05
3.42336e-05
-6.8805e-05
5.18412e-05
-7.04205e-05
6.95988e-05
-7.09455e-05
8.75326e-05
-7.16022e-05
0.000105428
-7.14776e-05
0.000123014
-7.02252e-05
0.000140233
-6.87206e-05
0.000156752
-6.59585e-05
0.000172427
-6.25544e-05
0.000186908
-5.77805e-05
0.000199971
-5.21022e-05
0.000211278
-4.51171e-05
0.000220594
-3.71936e-05
0.000227742
-2.84882e-05
0.000232514
-1.90537e-05
0.000234774
-9.14687e-06
0.000234524
8.44795e-07
0.000231762
1.09472e-05
0.000226438
2.10555e-05
0.000218752
3.06207e-05
0.000208819
3.96822e-05
0.000196776
4.80428e-05
0.000182824
5.56529e-05
0.00016715
6.24055e-05
0.00015004
6.83143e-05
0.000131746