/*--------------------------------*- C++ -*----------------------------------*\
| =========                 |                                                 |
| \\      /  F ield         | OpenFOAM: The Open Source CFD Toolbox           |
|  \\    /   O peration     | Version:  3.0.1                                 |
|   \\  /    A nd           | Web:      www.OpenFOAM.org                      |
|    \\/     M anipulation  |                                                 |
\*---------------------------------------------------------------------------*/
FoamFile
{
    version     2.0;
    format      ascii;
    class       surfaceScalarField;
    location    "61.2";
    object      phi;
}
// * * * * * * * * * * * * * * * * * * * * * * * * * * * * * * * * * * * * * //

dimensions      [0 3 -1 0 0 0 0];

internalField   nonuniform List<scalar> 
42423
(
-3.54476e-05
-1.35409e-05
-2.05755e-05
-1.48722e-05
-4.54406e-06
-1.60315e-05
1.21341e-05
-1.66782e-05
2.98024e-05
-1.76683e-05
4.79579e-05
-1.81556e-05
6.67468e-05
-1.87889e-05
8.5804e-05
-1.90572e-05
0.000104768
-1.8964e-05
0.000123663
-1.88951e-05
0.00014215
-1.84871e-05
0.000159857
-1.77065e-05
0.000176642
-1.67859e-05
0.000192196
-1.55538e-05
0.000206289
-1.40933e-05
0.000218671
-1.23815e-05
0.000229096
-1.04253e-05
0.000237306
-8.20967e-06
0.000243164
-5.85831e-06
0.000246533
-3.36849e-06
0.000247408
-8.75261e-07
0.000245767
1.64037e-06
0.00024138
4.38719e-06
0.000234624
6.75636e-06
0.000225462
9.16211e-06
0.000214332
1.11301e-05
0.000201179
1.31523e-05
0.000186249
1.493e-05
0.00016997
1.62794e-05
0.000152537
1.74331e-05
0.000134178
1.83591e-05
0.000115224
1.89539e-05
9.58654e-05
1.93584e-05
7.64022e-05
1.94632e-05
5.70007e-05
1.94015e-05
3.79046e-05
1.90961e-05
1.93376e-05
1.8567e-05
1.47007e-06
1.78676e-05
-1.57521e-05
1.72222e-05
-3.21168e-05
1.63647e-05
-4.75587e-05
1.54419e-05
-6.20285e-05
1.44698e-05
-7.55039e-05
1.34754e-05
-8.79602e-05
1.24562e-05
-9.93916e-05
1.14314e-05
-0.000109832
1.04409e-05
-0.000119282
9.44989e-06
-0.000127779
8.49708e-06
-0.000135346
7.56671e-06
-0.000142009
6.66267e-06
-0.00014779
5.78086e-06
-0.000152727
4.93776e-06
-0.000156862
4.13467e-06
-0.000160228
3.36553e-06
-0.000162843
2.61561e-06
-0.000164676
1.83323e-06
-0.000165846
1.16931e-06
-0.000166252
4.06634e-07
-0.000165882
-3.70728e-07
-0.00016472
-1.16205e-06
-0.000162796
-1.92393e-06
-0.000160069
-2.72679e-06
-0.000156633
-3.43571e-06
-0.000152367
-4.2664e-06
-0.000147296
-5.07085e-06
-0.000141454
-5.84164e-06
-0.000134711
-6.74296e-06
-0.000127194
-7.51776e-06
-0.000118643
-8.55106e-06
-0.000109222
-9.42016e-06
-9.89822e-05
-1.02402e-05
-8.78394e-05
-1.11428e-05
-7.5817e-05
-1.20225e-05
-6.30426e-05
-1.27744e-05
-4.93674e-05
-1.36752e-05
-3.49015e-05
-1.44659e-05
-1.96737e-05
-1.52278e-05
-3.63892e-06
-1.60348e-05
1.28663e-05
-1.65052e-05
2.99055e-05
-1.70392e-05
4.74018e-05
-1.74964e-05
6.50604e-05
-1.76586e-05
8.29177e-05
-1.78573e-05
0.000100796
-1.78784e-05
0.000118415
-1.76192e-05
0.000135706
-1.72913e-05
0.000152378
-1.66711e-05
0.00016825
-1.5873e-05
0.000182992
-1.47416e-05
0.000196373
-1.33812e-05
0.000208078
-1.17045e-05
0.000217869
-9.79103e-06
0.000225523
-7.6546e-06
0.000230857
-5.33373e-06
0.000233752
-2.89533e-06
0.000234169
-4.16631e-07
0.0002321
2.06932e-06
0.00022749
4.60955e-06
0.000220434
7.0561e-06
0.000211077
9.3568e-06
0.0001996
1.14768e-05
0.000186175
1.34254e-05
0.000171018
1.51572e-05
0.000154318
1.66997e-05
0.000136367
1.79506e-05
0.000117415
1.89519e-05
9.7788e-05
1.96275e-05
7.77556e-05
2.00324e-05
5.75862e-05
2.01694e-05
3.75391e-05
2.00471e-05
1.78395e-05
1.96996e-05
-1.23672e-06
1.90762e-05
-1.95475e-05
1.83108e-05
-3.69992e-05
1.74517e-05
-5.34003e-05
1.64011e-05
-6.87517e-05
1.53514e-05
-8.29312e-05
1.41795e-05
-9.59527e-05
1.30216e-05
-0.000107906
1.1953e-05
-0.000118684
1.07785e-05
-0.000128365
9.68095e-06
-0.000136967
8.60221e-06
-0.000144538
7.57015e-06
-0.000151137
6.59959e-06
-0.000156765
5.6274e-06
-0.000161557
4.79241e-06
-0.000165415
3.85781e-06
-0.000168477
3.06196e-06
-0.000170799
2.3224e-06
-0.000172326
1.52689e-06
-0.000173132
8.06463e-07
-0.000173407
2.74949e-07
-0.000172935
-4.71938e-07
-0.000171922
-1.01335e-06
-0.000170259
-1.66278e-06
-0.000167964
-2.29511e-06
-0.000165225
-2.73971e-06
-0.000161772
-3.45298e-06
-0.000157788
-3.98324e-06
-0.000153095
-4.69312e-06
-0.00014783
-5.26534e-06
-0.000141829
-6.0007e-06
-0.000135211
-6.61785e-06
-0.000127812
-7.39961e-06
-0.000119702
-8.11012e-06
-0.000110794
-8.90812e-06
-0.00010107
-9.72404e-06
-9.05019e-05
-1.05676e-05
-7.90878e-05
-1.14141e-05
-6.67829e-05
-1.2305e-05
-5.3549e-05
-1.32339e-05
-3.95695e-05
-1.39795e-05
-2.47579e-05
-1.48116e-05
-9.20608e-06
-1.55519e-05
7.00149e-06
-1.62076e-05
2.37138e-05
-1.67124e-05
4.08776e-05
-1.71638e-05
5.82213e-05
-1.73438e-05
7.56598e-05
-1.74385e-05
9.29527e-05
-1.72929e-05
0.000109835
-1.68827e-05
0.000126088
-1.62531e-05
0.000141453
-1.53649e-05
0.000155692
-1.42392e-05
0.000168541
-1.28481e-05
0.000179768
-1.12273e-05
0.000189075
-9.30726e-06
0.000196298
-7.22337e-06
0.000201246
-4.94803e-06
0.000203749
-2.50237e-06
0.000203803
-5.45826e-08
0.000201332
2.47126e-06
0.00019627
5.06246e-06
0.000188834
7.43529e-06
0.000179128
9.70609e-06
0.000167332
1.17957e-05
0.000153674
1.36584e-05
0.000138445
1.52286e-05
0.000121912
1.65333e-05
0.000104354
1.75581e-05
8.61211e-05
1.82328e-05
6.7468e-05
1.86531e-05
4.86998e-05
1.87683e-05
2.994e-05
1.87598e-05
1.14636e-05
1.84763e-05
-6.58716e-06
1.80508e-05
-2.40836e-05
1.74964e-05
-4.08689e-05
1.67853e-05
-5.6903e-05
1.60341e-05
-7.19688e-05
1.50659e-05
-8.60533e-05
1.40845e-05
-9.9081e-05
1.30277e-05
-0.000111047
1.19656e-05
-0.000121918
1.08711e-05
-0.000131793
9.87559e-06
-0.000140672
8.87823e-06
-0.00014855
7.87824e-06
-0.000155475
6.92519e-06
-0.000161484
6.00875e-06
-0.000166772
5.28861e-06
-0.000171191
4.41883e-06
-0.000174939
3.7476e-06
-0.000177941
3.002e-06
-0.000180281
2.34027e-06
-0.000181985
1.70389e-06
-0.000183078
1.09349e-06
-0.000183661
5.82696e-07
-0.000183729
6.82778e-08
-0.000183242
-4.8733e-07
-0.000182278
-9.64492e-07
-0.000180673
-1.6048e-06
-0.000178478
-2.19491e-06
-0.000175727
-2.75068e-06
-0.000172252
-3.47486e-06
-0.000168261
-3.9918e-06
-0.000163539
-4.72122e-06
-0.000158164
-5.37549e-06
-0.000152089
-6.07517e-06
-0.000145251
-6.83737e-06
-0.000137789
-7.46267e-06
-0.000129504
-8.28478e-06
-0.000120436
-9.06823e-06
-0.000110554
-9.88138e-06
-9.98892e-05
-1.06651e-05
-8.84046e-05
-1.14846e-05
-7.60527e-05
-1.2352e-05
-6.29976e-05
-1.30551e-05
-4.90907e-05
-1.39069e-05
-3.44298e-05
-1.46609e-05
-1.90746e-05
-1.53552e-05
-3.12591e-06
-1.59487e-05
1.33344e-05
-1.64603e-05
3.0136e-05
-1.68016e-05
4.71025e-05
-1.69665e-05
6.40306e-05
-1.69282e-05
8.06962e-05
-1.66656e-05
9.68791e-05
-1.61829e-05
0.000112342
-1.54632e-05
0.000126791
-1.4449e-05
0.000140022
-1.32308e-05
0.000151791
-1.17695e-05
0.000161835
-1.00434e-05
0.000169952
-8.11689e-06
0.000175943
-5.9916e-06
0.000179678
-3.73485e-06
0.000181062
-1.38432e-06
0.000180037
1.02552e-06
0.000176583
3.45407e-06
0.000170751
5.83178e-06
0.000162698
8.05299e-06
0.000152535
1.01628e-05
0.000140462
1.20736e-05
0.000126697
1.37648e-05
0.000111494
1.52031e-05
9.5121e-05
1.63726e-05
7.77858e-05
1.73352e-05
5.98752e-05
1.79106e-05
4.15789e-05
1.82964e-05
2.31935e-05
1.83854e-05
4.95277e-06
1.82407e-05
-1.29451e-05
1.78978e-05
-3.03046e-05
1.73595e-05
-4.69674e-05
1.66628e-05
-6.28338e-05
1.58664e-05
-7.78816e-05
1.50477e-05
-9.19338e-05
1.40523e-05
-0.000105
1.30661e-05
-0.000117102
1.2102e-05
-0.000128115
1.10128e-05
-0.000138119
1.00041e-05
-0.000147183
9.06382e-06
-0.00015516
7.97755e-06
-0.000162206
7.04576e-06
-0.000168271
6.06497e-06
-0.00017345
5.17857e-06
-0.000177746
4.29663e-06
-0.000180998
3.25227e-06
-0.000183387
2.38859e-06
-0.000184803
1.41594e-06
-0.000185402
5.99219e-07
-0.000185043
-3.59537e-07
-0.00018383
-1.21236e-06
-0.000181953
-1.87733e-06
-0.000179421
-2.53191e-06
-0.000176327
-3.09445e-06
-0.000172918
-3.40836e-06
-0.000169191
-3.7277e-06
-0.000165032
-4.15891e-06
-0.000160669
-4.36278e-06
-0.000155886
-4.78288e-06
-0.000150844
-5.04184e-06
-0.000145534
-5.31063e-06
-0.000139752
-5.78196e-06
-0.00013343
-6.32168e-06
-0.000126677
-6.75326e-06
-0.000119106
-7.57095e-06
-0.000110748
-8.35769e-06
-0.000101662
-9.08616e-06
-9.15005e-05
-1.01614e-05
-8.04332e-05
-1.10673e-05
-6.8187e-05
-1.22462e-05
-5.48618e-05
-1.33252e-05
-4.06341e-05
-1.42277e-05
-2.53196e-05
-1.53145e-05
-9.01538e-06
-1.63043e-05
7.9672e-06
-1.69826e-05
2.56298e-05
-1.76627e-05
4.36445e-05
-1.80147e-05
6.18787e-05
-1.82343e-05
8.01522e-05
-1.82735e-05
9.79842e-05
-1.7832e-05
0.000115243
-1.72584e-05
0.000131638
-1.63954e-05
0.000146808
-1.51696e-05
0.000160575
-1.37677e-05
0.00017269
-1.21151e-05
0.000182949
-1.02592e-05
0.000191144
-8.19483e-06
0.000197136
-5.99203e-06
0.000200859
-3.72243e-06
0.00020227
-1.41095e-06
0.000201263
1.00642e-06
0.000197902
3.36112e-06
0.000192266
5.63622e-06
0.000184631
7.63531e-06
0.000175214
9.41673e-06
0.000163986
1.1228e-05
0.000151492
1.24935e-05
0.000137849
1.36431e-05
0.000123266
1.45829e-05
0.000108026
1.52401e-05
9.23163e-05
1.57099e-05
7.63123e-05
1.6004e-05
6.01806e-05
1.61318e-05
4.40764e-05
1.61041e-05
2.81262e-05
1.59502e-05
1.2414e-05
1.57122e-05
-2.86229e-06
1.52763e-05
-1.77336e-05
1.48713e-05
-3.21546e-05
1.4421e-05
-4.60408e-05
1.38862e-05
-5.93283e-05
1.32875e-05
-7.20163e-05
1.2688e-05
-8.40396e-05
1.20233e-05
-9.54108e-05
1.13712e-05
-0.000106071
1.06606e-05
-0.000115987
9.916e-06
-0.000125162
9.17455e-06
-0.000133545
8.38297e-06
-0.000141109
7.56416e-06
-0.000147851
6.7414e-06
-0.000153746
5.89562e-06
-0.000158796
5.04997e-06
-0.000162994
4.19805e-06
-0.000166334
3.33997e-06
-0.00016881
2.47559e-06
1.59331e-06
-3.54854e-05
-2.70824e-05
-2.06116e-05
-2.97461e-05
-4.58146e-06
-3.20617e-05
1.21021e-05
-3.33618e-05
2.97777e-05
-3.5344e-05
4.79404e-05
-3.63184e-05
6.67376e-05
-3.75862e-05
8.58055e-05
-3.81252e-05
0.00010478
-3.79389e-05
0.00012369
-3.78047e-05
0.000142188
-3.69848e-05
0.00015991
-3.54287e-05
0.000176714
-3.35899e-05
0.000192296
-3.11359e-05
0.000206416
-2.82135e-05
0.000218812
-2.47772e-05
0.000229227
-2.08412e-05
0.00023743
-1.64117e-05
0.000243291
-1.17203e-05
0.000246666
-6.74323e-06
0.000247543
-1.75221e-06
0.000245894
3.2896e-06
0.000241503
8.77829e-06
0.000234745
1.35136e-05
0.000225573
1.83344e-05
0.000214439
2.2264e-05
0.00020128
2.63118e-05
0.000186328
2.98817e-05
0.000170035
3.2572e-05
0.000152588
3.48799e-05
0.000134215
3.67324e-05
0.000115246
3.79224e-05
9.58833e-05
3.87216e-05
7.64101e-05
3.89363e-05
5.70069e-05
3.88047e-05
3.7898e-05
3.82049e-05
1.93204e-05
3.71446e-05
1.44539e-06
3.57426e-05
-1.57814e-05
3.44489e-05
-3.21506e-05
3.27339e-05
-4.75971e-05
3.08885e-05
-6.20704e-05
2.8943e-05
-7.55485e-05
2.69535e-05
-8.80074e-05
2.49152e-05
-9.94402e-05
2.28642e-05
-0.000109886
2.08869e-05
-0.000119335
1.88982e-05
-0.000127832
1.69942e-05
-0.000135399
1.51343e-05
-0.000142065
1.33281e-05
-0.000147847
1.15628e-05
-0.000152795
9.88623e-06
-0.000156928
8.26791e-06
-0.000160293
6.72975e-06
-0.000162902
5.22507e-06
-0.000164739
3.67047e-06
-0.000165911
2.34115e-06
-0.000166315
8.10042e-07
-0.000165952
-7.33387e-07
-0.000164786
-2.32761e-06
-0.000162868
-3.84231e-06
-0.000160136
-5.4592e-06
-0.000156705
-6.86602e-06
-0.000152437
-8.53461e-06
-0.000147363
-1.0145e-05
-0.000141527
-1.16772e-05
-0.000134782
-1.34887e-05
-0.000127257
-1.50422e-05
-0.000118702
-1.71059e-05
-0.000109287
-1.88352e-05
-9.9046e-05
-2.04817e-05
-8.78997e-05
-2.22891e-05
-7.58846e-05
-2.40375e-05
-6.3099e-05
-2.556e-05
-4.94223e-05
-2.7352e-05
-3.49491e-05
-2.89391e-05
-1.97063e-05
-3.04706e-05
-3.67455e-06
-3.20667e-05
1.28346e-05
-3.30144e-05
2.98825e-05
-3.40871e-05
4.73818e-05
-3.49958e-05
6.50474e-05
-3.53243e-05
8.29202e-05
-3.57301e-05
0.000100813
-3.57717e-05
0.000118443
-3.52486e-05
0.000135754
-3.46023e-05
0.000152435
-3.33519e-05
0.000168325
-3.17636e-05
0.000183091
-2.95071e-05
0.0001965
-2.67903e-05
0.000208222
-2.34267e-05
0.000218014
-1.95831e-05
0.00022567
-1.53104e-05
0.000231014
-1.06779e-05
0.000233918
-5.79943e-06
0.000234328
-8.27067e-07
0.000232232
4.16536e-06
0.000227604
9.23803e-06
0.000220547
1.41123e-05
0.000211176
1.87285e-05
0.000199689
2.29635e-05
0.000186249
2.6865e-05
0.000171082
3.03245e-05
0.000154349
3.34325e-05
0.000136385
3.59151e-05
0.000117424
3.79121e-05
9.7779e-05
3.92728e-05
7.7722e-05
4.00894e-05
5.75581e-05
4.03333e-05
3.75031e-05
4.01021e-05
1.77897e-05
3.9413e-05
-1.29647e-06
3.81624e-05
-1.96233e-05
3.66376e-05
-3.70793e-05
3.49077e-05
-5.34906e-05
3.28123e-05
-6.88492e-05
3.071e-05
-8.30367e-05
2.8367e-05
-9.60791e-05
2.6064e-05
-0.000108019
2.38932e-05
-0.000118809
2.15685e-05
-0.000128489
1.93606e-05
-0.000137092
1.7205e-05
-0.000144668
1.51461e-05
-0.000151273
1.32046e-05
-0.000156898
1.12533e-05
-0.000161689
9.58333e-06
-0.000165558
7.72599e-06
-0.000168636
6.14015e-06
-0.000170945
4.63129e-06
-0.000172479
3.06134e-06
-0.000173315
1.64194e-06
-0.000173567
5.27198e-07
-0.000173101
-9.37574e-07
-0.00017207
-2.04439e-06
-0.000170429
-3.30413e-06
-0.000168163
-4.56135e-06
-0.000165396
-5.5062e-06
-0.000161963
-6.88605e-06
-0.000157968
-7.97854e-06
-0.000153298
-9.36249e-06
-0.000148016
-1.05474e-05
-0.000142037
-1.19796e-05
-0.000135403
-1.32518e-05
-0.000127978
-1.48249e-05
-0.000119899
-1.61898e-05
-0.000110982
-1.78244e-05
-0.00010125
-1.94567e-05
-9.06855e-05
-2.11318e-05
-7.92678e-05
-2.28318e-05
-6.6955e-05
-2.46178e-05
-5.37331e-05
-2.64558e-05
-3.97473e-05
-2.79654e-05
-2.49207e-05
-2.96382e-05
-9.35565e-06
-3.11169e-05
6.85957e-06
-3.24229e-05
2.36044e-05
-3.34572e-05
4.07661e-05
-3.43256e-05
5.81383e-05
-3.47161e-05
7.55966e-05
-3.48968e-05
9.29067e-05
-3.4603e-05
0.0001098
-3.37759e-05
0.00012607
-3.25235e-05
0.000141453
-3.07478e-05
0.000155712
-2.84977e-05
0.000168576
-2.57131e-05
0.000179831
-2.24823e-05
0.000189138
-1.86138e-05
0.000196383
-1.44683e-05
0.000201347
-9.91209e-06
0.000203842
-4.99781e-06
0.000203893
-1.05751e-07
0.000201417
4.94767e-06
0.000196356
1.01238e-05
0.00018892
1.48707e-05
0.000179202
1.94237e-05
0.000167402
2.35965e-05
0.000153728
2.73316e-05
0.000138485
3.04716e-05
0.000121953
3.30653e-05
0.000104361
3.515e-05
8.61113e-05
3.64829e-05
6.74458e-05
3.73186e-05
4.86588e-05
3.75552e-05
2.99081e-05
3.75106e-05
1.14117e-05
3.69726e-05
-6.64808e-06
3.61106e-05
-2.41581e-05
3.50065e-05
-4.09578e-05
3.3585e-05
-5.69974e-05
3.20737e-05
-7.20715e-05
3.014e-05
-8.616e-05
2.81729e-05
-9.92002e-05
2.6068e-05
-0.00011117
2.39357e-05
-0.000122048
2.17489e-05
-0.000131904
1.97309e-05
-0.000140809
1.77837e-05
-0.000148686
1.5755e-05
-0.000155621
1.38602e-05
-0.000161648
1.20358e-05
-0.000166911
1.05521e-05
-0.000171348
8.85535e-06
-0.000175086
7.48615e-06
-0.000178103
6.01885e-06
-0.000180444
4.68139e-06
-0.000182152
3.41113e-06
-0.000183251
2.19313e-06
-0.000183828
1.15943e-06
-0.000183899
1.39116e-07
-0.000183421
-9.65094e-07
-0.00018245
-1.93593e-06
-0.000180851
-3.20288e-06
-0.000178655
-4.39188e-06
-0.000175904
-5.50092e-06
-0.000172434
-6.94469e-06
-0.000168443
-7.9837e-06
-0.000163716
-9.44811e-06
-0.000158353
-1.07381e-05
-0.000152274
-1.21545e-05
-0.000145489
-1.36219e-05
-0.000137975
-1.49766e-05
-0.000129685
-1.65752e-05
-0.000120614
-1.81389e-05
-0.000110725
-1.97705e-05
-0.000100058
-2.13323e-05
-8.85615e-05
-2.29812e-05
-7.62058e-05
-2.47077e-05
-6.31536e-05
-2.61074e-05
-4.92322e-05
-2.78283e-05
-3.45548e-05
-2.93383e-05
-1.9194e-05
-3.07161e-05
-3.23006e-06
-3.19126e-05
1.32372e-05
-3.29276e-05
3.00563e-05
-3.36207e-05
4.70506e-05
-3.39609e-05
6.39856e-05
-3.38632e-05
8.06614e-05
-3.33415e-05
9.68601e-05
-3.23816e-05
0.00011234
-3.09434e-05
0.0001268
-2.89089e-05
0.000140054
-2.64844e-05
0.000151835
-2.35512e-05
0.000161898
-2.01056e-05
0.000170025
-1.62447e-05
0.000176024
-1.19905e-05
0.000179765
-7.47567e-06
0.000181143
-2.76228e-06
0.000180112
2.05662e-06
0.00017666
6.90546e-06
0.000170828
1.16638e-05
0.000162761
1.61204e-05
0.000152588
2.03356e-05
0.000140503
2.41583e-05
0.000126722
2.75457e-05
0.000111503
3.04226e-05
9.51058e-05
3.27697e-05
7.77609e-05
3.46801e-05
5.98294e-05
3.5842e-05
4.15266e-05
3.65992e-05
2.31335e-05
3.67784e-05
4.87814e-06
3.64961e-05
-1.30308e-05
3.58068e-05
-3.0392e-05
3.47206e-05
-4.70575e-05
3.33283e-05
-6.29265e-05
3.17354e-05
-7.79634e-05
3.00846e-05
-9.20217e-05
2.81106e-05
-0.000105077
2.61217e-05
-0.000117174
2.41989e-05
-0.000128195
2.20337e-05
-0.000138195
2.00039e-05
-0.000147255
1.81234e-05
-0.000155237
1.596e-05
-0.000162276
1.40849e-05
-0.000168344
1.21324e-05
-0.000173514
1.03486e-05
-0.000177814
8.59694e-06
-0.000181072
6.51048e-06
-0.000183466
4.7826e-06
-0.000184875
2.8244e-06
-0.00018547
1.19474e-06
-0.000185113
-7.16424e-07
-0.000183895
-2.43069e-06
-0.000182013
-3.7589e-06
-0.000179476
-5.0691e-06
-0.000176374
-6.19694e-06
-0.000172963
-6.81918e-06
-0.000169233
-7.4573e-06
-0.000165073
-8.31936e-06
-0.000160709
-8.72647e-06
-0.000155925
-9.56652e-06
-0.000150885
-1.00819e-05
-0.00014558
-1.06163e-05
-0.000139799
-1.15622e-05
-0.00013348
-1.26408e-05
-0.00012672
-1.35132e-05
-0.000119168
-1.51237e-05
-0.000110809
-1.67163e-05
-0.000101724
-1.81713e-05
-9.15644e-05
-2.03209e-05
-8.04984e-05
-2.21333e-05
-6.82514e-05
-2.44933e-05
-5.49087e-05
-2.66679e-05
-4.06765e-05
-2.84599e-05
-2.53511e-05
-3.064e-05
-9.06322e-06
-3.25921e-05
7.93402e-06
-3.39799e-05
2.56054e-05
-3.53341e-05
4.36316e-05
-3.60409e-05
6.18795e-05
-3.64822e-05
8.01656e-05
-3.65596e-05
9.80104e-05
-3.56768e-05
0.000115283
-3.45314e-05
0.000131694
-3.28061e-05
0.000146876
-3.03515e-05
0.000160656
-2.75483e-05
0.000172783
-2.42418e-05
0.000183053
-2.05293e-05
0.000191262
-1.64035e-05
0.000197261
-1.1991e-05
0.000200983
-7.44487e-06
0.000202397
-2.82444e-06
0.000201379
2.02377e-06
0.00019801
6.73063e-06
0.000192371
1.12752e-05
0.000184725
1.5281e-05
0.000175297
1.88445e-05
0.000164063
2.24622e-05
0.000151557
2.49996e-05
0.000137902
2.72976e-05
0.000123308
2.91772e-05
0.000108057
3.04907e-05
9.23371e-05
3.143e-05
7.63238e-05
3.20172e-05
6.01876e-05
3.2268e-05
4.4077e-05
3.22146e-05
2.81276e-05
3.18996e-05
1.24049e-05
3.14349e-05
-2.87455e-06
3.05557e-05
-1.77508e-05
2.97476e-05
-3.2175e-05
2.88452e-05
-4.60625e-05
2.77737e-05
-5.93531e-05
2.65781e-05
-7.20444e-05
2.53793e-05
-8.40704e-05
2.40493e-05
-9.54423e-05
2.27431e-05
-0.000106106
2.13242e-05
-0.000116023
1.98336e-05
-0.000125196
1.83473e-05
-0.000133577
1.67642e-05
-0.000141145
1.51314e-05
-0.000147887
1.34839e-05
-0.000153782
1.17903e-05
-0.000158831
1.00994e-05
-0.000163028
8.39497e-06
-0.000166369
6.68136e-06
-0.000168848
4.95385e-06
3.18268e-06
-3.55595e-05
-4.06266e-05
-2.06824e-05
-4.46232e-05
-4.65565e-06
-4.80885e-05
1.20439e-05
-5.00614e-05
2.9738e-05
-5.30381e-05
4.79227e-05
-5.45031e-05
6.67416e-05
-5.64051e-05
8.58367e-05
-5.72203e-05
0.000104832
-5.69338e-05
0.000123773
-5.6746e-05
0.000142303
-5.55146e-05
0.000160054
-5.31796e-05
0.000176876
-5.04124e-05
0.00019247
-4.67297e-05
0.000206595
-4.23384e-05
0.000219006
-3.71884e-05
0.000229448
-3.12838e-05
0.000237668
-2.46311e-05
0.000243537
-1.75898e-05
0.000246919
-1.01254e-05
0.000247779
-2.61234e-06
0.00024609
4.97838e-06
0.000241689
1.31801e-05
0.000234928
2.02738e-05
0.000225739
2.75238e-05
0.000214584
3.34192e-05
0.000201436
3.94593e-05
0.000186442
4.48759e-05
0.000170127
4.88872e-05
0.000152657
5.235e-05
0.000134259
5.51304e-05
0.000115264
5.69168e-05
9.58949e-05
5.80912e-05
7.64048e-05
5.84264e-05
5.70101e-05
5.81994e-05
3.78756e-05
5.73394e-05
1.92792e-05
5.5741e-05
1.38426e-06
5.36374e-05
-1.58517e-05
5.16849e-05
-3.22284e-05
4.91106e-05
-4.76802e-05
4.63403e-05
-6.21555e-05
4.34183e-05
-7.56349e-05
4.0433e-05
-8.80958e-05
3.73761e-05
-9.95294e-05
3.42978e-05
-0.000109975
3.13328e-05
-0.000119422
2.83446e-05
-0.000127918
2.549e-05
-0.000135484
2.27009e-05
-0.00014215
1.99936e-05
-0.000147929
1.73417e-05
-0.000152882
1.48401e-05
-0.000157004
1.23897e-05
-0.000160366
1.0092e-05
-0.000162974
7.83301e-06
-0.000164811
5.50712e-06
-0.000165972
3.50238e-06
-0.000166374
1.21141e-06
-0.000166016
-1.09088e-06
-0.000164845
-3.49887e-06
-0.000162932
-5.75529e-06
-0.000160197
-8.19381e-06
-0.000156772
-1.02918e-05
-0.00015251
-1.27963e-05
-0.00014743
-1.5225e-05
-0.000141598
-1.75087e-05
-0.000134851
-2.02357e-05
-0.000127319
-2.2575e-05
-0.000118774
-2.56508e-05
-0.000109357
-2.82521e-05
-9.9117e-05
-3.07215e-05
-8.79658e-05
-3.34404e-05
-7.59605e-05
-3.60428e-05
-6.3169e-05
-3.83516e-05
-4.94856e-05
-4.10354e-05
-3.50082e-05
-4.34166e-05
-1.97504e-05
-4.57284e-05
-3.72217e-06
-4.8095e-05
1.27842e-05
-4.95208e-05
2.98429e-05
-5.11458e-05
4.73448e-05
-5.24977e-05
6.50237e-05
-5.30033e-05
8.29118e-05
-5.36182e-05
0.00010082
-5.36801e-05
0.000118468
-5.28969e-05
0.000135798
-5.19322e-05
0.000152498
-5.00519e-05
0.000168414
-4.76795e-05
0.000183199
-4.42918e-05
0.000196626
-4.02179e-05
0.000208363
-3.51634e-05
0.000218167
-2.93869e-05
0.000225837
-2.29804e-05
0.000231184
-1.6025e-05
0.000234079
-8.69498e-06
0.000234476
-1.22434e-06
0.000232349
6.29248e-06
0.000227685
1.39022e-05
0.000220608
2.11889e-05
0.000211241
2.80959e-05
0.000199732
3.44722e-05
0.000186272
4.03251e-05
0.00017107
4.55269e-05
0.000154312
5.01901e-05
0.000136323
5.39039e-05
0.000117337
5.68988e-05
9.76597e-05
5.89498e-05
7.75778e-05
6.01714e-05
5.73939e-05
6.05172e-05
3.73199e-05
6.0176e-05
1.7609e-05
5.91239e-05
-1.49387e-06
5.72653e-05
-1.98406e-05
5.49843e-05
-3.72974e-05
5.23645e-05
-5.37155e-05
4.92305e-05
-6.90736e-05
4.60681e-05
-8.32778e-05
4.25712e-05
-9.6342e-05
3.91282e-05
-0.000108262
3.58133e-05
-0.000119053
3.23591e-05
-0.000128724
2.90319e-05
-0.000137317
2.57984e-05
-0.000144887
2.27157e-05
-0.000151491
1.98085e-05
-0.000157117
1.68789e-05
-0.000161905
1.43715e-05
-0.000165778
1.15993e-05
-0.000168863
9.22525e-06
-0.00017116
6.92798e-06
-0.000172702
4.60321e-06
-0.000173566
2.50635e-06
-0.000173779
7.39972e-07
-0.000173308
-1.40811e-06
-0.000172214
-3.13883e-06
-0.000170631
-4.88737e-06
-0.00016841
-6.78189e-06
-0.000165603
-8.31309e-06
-0.000162186
-1.03038e-05
-0.000158184
-1.19803e-05
-0.000153529
-1.40175e-05
-0.000148242
-1.58343e-05
-0.000142279
-1.7943e-05
-0.000135631
-1.98992e-05
-0.000128211
-2.2245e-05
-0.000120124
-2.42771e-05
-0.000111209
-2.67388e-05
-0.000101468
-2.91981e-05
-9.09092e-05
-3.16908e-05
-7.94857e-05
-3.42553e-05
-6.71809e-05
-3.69226e-05
-5.40083e-05
-3.96285e-05
-3.9982e-05
-4.19917e-05
-2.51487e-05
-4.44716e-05
-9.55569e-06
-4.67099e-05
6.66474e-06
-4.86433e-05
2.34371e-05
-5.02296e-05
4.06146e-05
-5.15031e-05
5.80093e-05
-5.21108e-05
7.548e-05
-5.23676e-05
9.28015e-05
-5.19245e-05
0.000109728
-5.07026e-05
0.000126031
-4.88266e-05
0.00014144
-4.61568e-05
0.00015572
-4.27778e-05
0.000168586
-3.85785e-05
0.00017985
-3.37465e-05
0.000189181
-2.79447e-05
0.000196442
-2.17293e-05
0.000201422
-1.48925e-05
0.000203924
-7.50021e-06
0.000203963
-1.44926e-07
0.000201476
7.43527e-06
0.000196412
1.51878e-05
0.00018898
2.23028e-05
0.00017924
2.91636e-05
0.000167413
3.54226e-05
0.000153713
4.10317e-05
0.00013845
4.57353e-05
0.0001219
4.96153e-05
0.000104282
5.27681e-05
8.60096e-05
5.47548e-05
6.73115e-05
5.60167e-05
4.84895e-05
5.63771e-05
2.9762e-05
5.62381e-05
1.12354e-05
5.54992e-05
-6.83378e-06
5.41798e-05
-2.43603e-05
5.2533e-05
-4.11719e-05
5.03966e-05
-5.71958e-05
4.80976e-05
-7.2288e-05
4.52322e-05
-8.63807e-05
4.22656e-05
-9.94325e-05
3.91198e-05
-0.000111397
3.59004e-05
-0.000122284
3.26354e-05
-0.000132129
2.95766e-05
-0.000141042
2.66968e-05
-0.000148919
2.36314e-05
-0.000155856
2.07972e-05
-0.000161898
1.80777e-05
-0.000167081
1.57351e-05
-0.000171568
1.33423e-05
-0.000175296
1.12138e-05
-0.000178313
9.03607e-06
-0.000180646
7.01419e-06
-0.000182364
5.12964e-06
-0.000183465
3.29453e-06
-0.000184043
1.73665e-06
-0.00018411
2.06716e-07
-0.000183625
-1.45005e-06
-0.000182648
-2.91281e-06
-0.00018106
-4.79113e-06
-0.000178862
-6.59047e-06
-0.000176107
-8.25561e-06
-0.0001727
-1.03515e-05
-0.000168655
-1.20291e-05
-0.000163881
-1.42215e-05
-0.000158566
-1.60535e-05
-0.000152486
-1.82346e-05
-0.000145724
-2.03842e-05
-0.000138192
-2.25086e-05
-0.000129905
-2.4862e-05
-0.00012083
-2.72137e-05
-0.000110949
-2.96512e-05
-0.000100271
-3.20104e-05
-8.8763e-05
-3.44894e-05
-7.64781e-05
-3.69927e-05
-6.33675e-05
-3.92179e-05
-4.94361e-05
-4.17598e-05
-3.47378e-05
-4.40367e-05
-1.93718e-05
-4.60821e-05
-3.39504e-06
-4.78894e-05
1.30791e-05
-4.94018e-05
2.99098e-05
-5.04514e-05
4.69094e-05
-5.09606e-05
6.38815e-05
-5.08354e-05
8.05718e-05
-5.00318e-05
9.67945e-05
-4.86044e-05
0.000112295
-4.64443e-05
0.000126776
-4.33898e-05
0.000140042
-3.97504e-05
0.00015184
-3.53486e-05
0.000161927
-3.01926e-05
0.00017009
-2.44086e-05
0.000176083
-1.79833e-05
0.000179832
-1.12241e-05
0.000181234
-4.16446e-06
0.00018017
3.12062e-06
0.000176709
1.03663e-05
0.000170871
1.75018e-05
0.000162781
2.42102e-05
0.000152595
3.05214e-05
0.000140492
3.62619e-05
0.000126698
4.13395e-05
0.000111455
4.56656e-05
9.50134e-05
4.9211e-05
7.76678e-05
5.20257e-05
5.97122e-05
5.37977e-05
4.13918e-05
5.49195e-05
2.29833e-05
5.5187e-05
4.72471e-06
5.47546e-05
-1.31869e-05
5.37184e-05
-3.0549e-05
5.20826e-05
-4.72176e-05
4.99969e-05
-6.30803e-05
4.75981e-05
-7.80824e-05
4.50868e-05
-9.21654e-05
4.21936e-05
-0.00010521
3.91669e-05
-0.000117296
3.62847e-05
-0.000128325
3.30622e-05
-0.00013831
2.99886e-05
-0.000147353
2.71665e-05
-0.000155348
2.39551e-05
-0.000162378
2.11153e-05
-0.000168448
1.82022e-05
-0.000173601
1.55017e-05
-0.000177913
1.2909e-05
-0.000181181
9.77844e-06
-0.00018358
7.18091e-06
-0.000184983
4.22741e-06
-0.000185563
1.77536e-06
-0.000185189
-1.09043e-06
-0.000183961
-3.65869e-06
-0.000182073
-5.64754e-06
-0.000179524
-7.61716e-06
-0.000176412
-9.30964e-06
-0.000172996
-1.02351e-05
-0.00016926
-1.11928e-05
-0.000165097
-1.24826e-05
-0.000160734
-1.30895e-05
-0.000155953
-1.43476e-05
-0.000150916
-1.51192e-05
-0.000145617
-1.59151e-05
-0.00013984
-1.73393e-05
-0.000133527
-1.89537e-05
-0.000126763
-2.02773e-05
-0.000119234
-2.26527e-05
-0.000110875
-2.50749e-05
-0.000101798
-2.72485e-05
-9.16446e-05
-3.04745e-05
-8.05826e-05
-3.31952e-05
-6.83363e-05
-3.67396e-05
-5.49758e-05
-4.00284e-05
-4.07392e-05
-4.26965e-05
-2.54026e-05
-4.59767e-05
-9.12707e-06
-4.88678e-05
7.88878e-06
-5.09958e-05
2.55749e-05
-5.30202e-05
4.3619e-05
-5.4085e-05
6.18888e-05
-5.47521e-05
8.01987e-05
-5.48696e-05
9.80687e-05
-5.35469e-05
0.000115369
-5.18317e-05
0.00013181
-4.92471e-05
0.000147015
-4.55561e-05
0.000160823
-4.13569e-05
0.00017297
-3.63891e-05
0.00018326
-3.08184e-05
0.000191483
-2.46271e-05
0.000197492
-1.80003e-05
0.000201231
-1.11834e-05
0.000202649
-4.24213e-06
0.000201581
3.09151e-06
0.000198177
1.01346e-05
0.000192531
1.69215e-05
0.000184867
2.29447e-05
0.000175417
2.82945e-05
0.000164179
3.36997e-05
0.000151648
3.75305e-05
0.000137974
4.09718e-05
0.000123361
4.37902e-05
0.000108093
4.57587e-05
9.23563e-05
4.71668e-05
7.63282e-05
4.80453e-05
6.01866e-05
4.84096e-05
4.40667e-05
4.83345e-05
2.81206e-05
4.78458e-05
1.23881e-05
4.71673e-05
-2.90828e-06
4.58521e-05
-1.77916e-05
4.46309e-05
-3.22222e-05
4.32757e-05
-4.61153e-05
4.16668e-05
-5.94086e-05
3.98714e-05
-7.21009e-05
3.80716e-05
-8.41274e-05
3.60758e-05
-9.55006e-05
3.41163e-05
-0.000106164
3.19878e-05
-0.000116081
2.97503e-05
-0.000125256
2.75225e-05
-0.000133639
2.51469e-05
-0.000141206
2.26983e-05
-0.000147947
2.02256e-05
-0.000153842
1.7685e-05
-0.000158893
1.51499e-05
-0.000163093
1.25952e-05
-0.000166436
1.00244e-05
-0.000168921
7.4385e-06
4.76717e-06
-3.56705e-05
-5.41749e-05
-2.07892e-05
-5.95045e-05
-4.76788e-06
-6.41099e-05
1.19579e-05
-6.67873e-05
2.96805e-05
-7.07607e-05
4.78974e-05
-7.27201e-05
6.67495e-05
-7.52572e-05
8.58825e-05
-7.63534e-05
0.000104915
-7.59666e-05
0.000123895
-7.57255e-05
0.000142457
-7.40767e-05
0.000160247
-7.09698e-05
0.000177105
-6.72704e-05
0.000192739
-6.23634e-05
0.000206895
-5.64949e-05
0.000219331
-4.96243e-05
0.000229798
-4.17511e-05
0.000238035
-3.28674e-05
0.000243909
-2.34644e-05
0.0002473
-1.35161e-05
0.000248138
-3.45024e-06
0.000246395
6.7209e-06
0.00024197
1.76049e-05
0.000235204
2.70406e-05
0.000225989
3.67383e-05
0.000214797
4.46109e-05
0.000201636
5.26202e-05
0.000186614
5.98986e-05
0.000170265
6.52355e-05
0.00015276
6.98547e-05
0.000134326
7.3565e-05
0.000115294
7.59487e-05
9.59118e-05
7.74733e-05
7.63957e-05
7.79425e-05
5.69942e-05
7.7601e-05
3.78478e-05
7.64858e-05
1.92213e-05
7.43675e-05
1.29234e-06
7.15664e-05
-1.59579e-05
6.89352e-05
-3.23455e-05
6.54981e-05
-4.78051e-05
6.17999e-05
-6.22854e-05
5.78985e-05
-7.5768e-05
5.39156e-05
-8.82305e-05
4.98386e-05
-9.96652e-05
4.57325e-05
-0.000110112
4.17795e-05
-0.000119555
3.77876e-05
-0.00012805
3.3985e-05
-0.000135615
3.02662e-05
-0.000142283
2.66616e-05
-0.00014806
2.31183e-05
-0.000153011
1.97914e-05
-0.000157133
1.65117e-05
-0.000160493
1.34523e-05
-0.000163098
1.04375e-05
-0.000164932
7.34162e-06
-0.00016608
4.64966e-06
-0.000166471
1.60244e-06
-0.000166088
-1.47391e-06
-0.000164935
-4.65154e-06
-0.00016303
-7.66068e-06
-0.000160295
-1.09284e-05
-0.000156876
-1.37106e-05
-0.000152619
-1.70538e-05
-0.000147531
-2.03127e-05
-0.000141708
-2.33318e-05
-0.000134959
-2.69843e-05
-0.000127405
-3.01291e-05
-0.000118884
-3.41725e-05
-0.000109461
-3.76749e-05
-9.92248e-05
-4.09578e-05
-8.81048e-05
-4.45604e-05
-7.60768e-05
-4.80709e-05
-6.32786e-05
-5.11499e-05
-4.9582e-05
-5.47321e-05
-3.50969e-05
-5.79017e-05
-1.98088e-05
-6.10164e-05
-3.7967e-06
-6.41071e-05
1.27073e-05
-6.60248e-05
2.97831e-05
-6.82217e-05
4.72854e-05
-7e-05
6.49808e-05
-7.06987e-05
8.28968e-05
-7.15343e-05
0.000100824
-7.16072e-05
0.000118495
-7.05684e-05
0.000135856
-6.92934e-05
0.000152578
-6.6774e-05
0.000168521
-6.3622e-05
0.000183332
-5.91034e-05
0.000196788
-5.36733e-05
0.000208547
-4.69229e-05
0.000218367
-3.92064e-05
0.000226063
-3.06766e-05
0.000231417
-2.13794e-05
0.000234282
-1.15595e-05
0.000234655
-1.59793e-06
0.00023251
8.43787e-06
0.000227795
1.86174e-05
0.000220695
2.82883e-05
0.000211315
3.74764e-05
0.000199782
4.60049e-05
0.000186291
5.38165e-05
0.000171019
6.07989e-05
0.000154248