/*--------------------------------*- C++ -*----------------------------------*\
| =========                 |                                                 |
| \\      /  F ield         | OpenFOAM: The Open Source CFD Toolbox           |
|  \\    /   O peration     | Version:  3.0.1                                 |
|   \\  /    A nd           | Web:      www.OpenFOAM.org                      |
|    \\/     M anipulation  |                                                 |
\*---------------------------------------------------------------------------*/
FoamFile
{
    version     2.0;
    format      ascii;
    class       volScalarField;
    location    "19.4";
    object      p_rgh;
}
// * * * * * * * * * * * * * * * * * * * * * * * * * * * * * * * * * * * * * //

dimensions      [1 -1 -2 0 0 0 0];

internalField   nonuniform List<scalar> 
21420
(
-256.755
-240.244
-221.854
-201.612
-179.556
-155.691
-130.062
-102.761
-73.8894
-43.5813
-12.0278
20.3935
53.6774
87.5395
121.61
155.477
188.727
220.993
251.844
280.847
307.632
331.806
352.992
370.882
385.204
395.737
402.321
404.8
402.772
396.65
386.619
372.758
355.312
334.561
310.803
284.371
255.671
225.089
193.023
159.903
126.128
92.084
58.1211
24.7625
-6.25623
-37.5109
-67.6874
-96.5179
-123.828
-149.492
-173.439
-195.628
-216.044
-234.695
-251.599
-266.794
-280.315
-292.203
-302.497
-311.228
-318.429
-324.12
-328.316
-331.036
-332.248
-331.889
-330.069
-326.724
-321.84
-315.406
-307.389
-297.773
-286.524
-273.619
-259.068
-242.873
-225.043
-205.605
-184.57
-161.98
-137.901
-112.392
-85.5318
-57.4255
-28.2047
1.94769
34.1388
65.778
97.8844
130.142
162.219
193.759
224.384
253.706
281.323
306.845
329.899
350.13
367.226
380.92
390.971
397.218
399.508
397.768
392.003
382.313
368.732
351.47
330.755
306.875
280.183
251.073
219.969
187.324
153.604
119.271
84.7661
50.504
16.8618
-15.8494
-47.3544
-77.4322
-105.914
-132.678
-157.64
-180.753
-202.001
-221.387
-238.927
-254.661
-268.63
-280.88
-291.464
-300.435
-307.843
-313.733
-318.157
-321.16
-322.75
-322.938
-321.812
-319.352
-315.56
-310.428
-303.936
-296.058
-286.746
-275.97
-263.684
-249.837
-234.385
-217.271
-198.481
-178.002
-155.826
-131.983
-106.526
-79.5326
-51.1256
-21.4452
9.32231
40.9665
73.1934
105.725
138.233
170.363
201.734
231.949
260.599
287.284
311.607
333.196
351.707
366.832
378.329
385.987
389.678
389.259
384.87
376.461
364.174
348.199
328.768
306.163
280.724
252.824
222.855
191.233
158.386
124.743
90.7243
56.7307
23.1349
-9.70447
-41.5303
-72.0815
-101.162
-128.621
-154.357
-178.308
-200.438
-220.74
-239.223
-255.911
-270.837
-284.036
-295.541
-305.389
-313.616
-320.252
-325.335
-328.901
-330.953
-331.505
-330.65
-328.361
-324.654
-319.552
-313.05
-305.152
-295.867
-285.176
-273.077
-259.553
-244.574
-228.13
-210.198
-190.757
-169.798
-147.307
-123.299
-97.8091
-70.889
-42.625
-13.1317
17.4047
48.7737
80.7227
112.948
145.104
176.802
207.625
237.139
264.895
290.456
313.39
333.297
349.828
362.679
371.597
376.425
377.001
373.419
365.628
353.801
338.118
318.843
296.301
270.856
242.913
212.903
181.275
148.475
114.937
81.077
47.2798
13.8938
-18.7715
-50.4231
-80.9234
-110.081
-137.769
-163.903
-188.434
-211.335
-232.594
-252.221
-270.228
-286.622
-301.437
-314.687
-326.378
-336.536
-345.163
-352.26
-357.832
-361.882
-364.377
-365.283
-364.621
-362.384
-358.538
-353.086
-346.021
-337.321
-327.002
-315.07
-301.509
-286.338
-269.583
-251.273
-231.442
-210.109
-187.314
-163.107
-137.519
-110.578
-82.3857
-57.6659
-28.1334
2.01659
32.6088
63.3896
94.0839
124.441
154.131
182.845
210.237
235.956
259.697
281.137
299.965
315.915
328.74
338.23
344.22
346.486
344.266
338.268
328.624
315.306
298.484
278.36
255.214
229.327
201.058
170.777
138.893
105.859
72.0953
38.0266
4.08054
-29.3655
-61.7726
-91.6547
-121.802
-150.583
-177.755
-203.154
-226.682
-248.273
-267.889
-285.518
-301.163
-314.851
-326.647
-336.626
-256.83
-240.322
-221.934
-201.694
-179.638
-155.774
-130.143
-102.84
-73.965
-43.6522
-12.0929
20.3375
53.6301
87.5044
121.589
155.472
188.739
221.023
251.892
280.913
307.716
331.908
353.11
371.014
385.348
395.89
402.48
404.973
402.927
396.801
386.763
372.891
355.432
334.666
310.89
284.441
255.723
225.122
193.038
159.901
126.11
92.0524
58.0778
24.7091
-6.32473
-37.5845
-67.7654
-96.5991
-123.911
-149.576
-173.522
-195.71
-216.123
-234.772
-251.674
-266.865
-280.384
-292.269
-302.561
-311.291
-318.49
-324.181
-328.376
-331.096
-332.306
-331.95
-330.131
-326.786
-321.904
-315.471
-307.456
-297.841
-286.594
-273.69
-259.141
-242.946
-225.117
-205.68
-184.645
-162.055
-137.975
-112.465
-85.6019
-57.4921
-28.2658
1.89633
34.0788
65.7302
97.8484
130.118
162.209
193.765
224.407
253.746
281.381
306.92
329.991
350.237
367.347
381.053
391.113
397.367
399.667
397.917
392.151
382.455
368.866
351.591
330.861
306.964
280.253
251.123
219.999
187.334
153.595
119.244
84.7237
50.4481
16.7949
-15.925
-47.4364
-77.5187
-106.003
-132.768
-157.73
-180.841
-202.087
-221.47
-239.009
-254.739
-268.705
-280.953
-291.534
-300.502
-307.908
-313.796
-318.218
-321.22
-322.806
-322.996
-321.869
-319.409
-315.619
-310.487
-303.997
-296.121
-286.812
-276.038
-263.755
-249.91
-234.461
-217.35
-198.562
-178.084
-155.909
-132.065
-106.607
-79.611
-51.2001
-21.5142
9.26069
40.9132
73.1508
105.694
138.217
170.362
201.75
231.981
260.65
287.353
311.694
333.299
351.826
366.964
378.472
386.137
389.832
389.422
385.016
376.605
364.309
348.323
328.878
306.256
280.799
252.881
222.892
191.251
158.386
124.727
90.6923
56.6848
23.0771
-9.77227
-41.6057
-72.1625
-101.246
-128.707
-154.444
-178.394
-200.523
-220.823
-239.304
-255.989
-270.913
-284.109
-295.612
-305.458
-313.683
-320.318
-325.4
-328.965
-331.012
-331.567
-330.711
-328.422
-324.715
-319.613
-313.112
-305.214
-295.93
-285.241
-273.142
-259.62
-244.643
-228.201
-210.271
-190.832
-169.875
-147.384
-123.377
-97.8863
-70.9645
-42.6971
-13.199
17.344
48.7218
80.6818
112.92
145.091
176.806
207.648
237.181
264.956
290.536
313.49
333.414
349.96
362.823
371.75
376.583
377.17
373.571
365.778
353.942
338.246
318.956
296.396
270.932
242.969
212.94
181.292
148.474
114.92
81.0452
47.2353
13.8389
-18.8348
-50.4929
-80.9975
-110.158
-137.848
-163.981
-188.511
-211.411
-232.669
-252.294
-270.299
-286.691
-301.504
-314.753
-326.442
-336.599
-345.225
-352.322
-357.895
-361.944
-364.437
-365.344
-364.684
-362.448
-358.602
-353.151
-346.087
-337.387
-327.069
-315.137
-301.576
-286.406
-269.652
-251.342
-231.511
-210.177
-187.382
-163.174
-137.587
-110.645
-82.45
-57.7108
-28.1726
1.98188
32.581
63.3709
94.076
124.445
154.149
182.878
210.284
236.018
259.774
281.228
300.07
316.031
328.867
338.366
344.362
346.641
344.411
338.413
328.763
315.437
298.604
278.467
255.305
229.402
201.115
170.816
138.913
105.862
72.0816
37.9978
4.03881
-29.4175
-61.8325
-91.7319
-121.882
-150.667
-177.84
-203.242
-226.77
-248.36
-267.974
-285.601
-301.244
-314.93
-326.723
-336.699
-256.98
-240.477
-222.094
-201.856
-179.803
-155.939
-130.306
-102.998
-74.1161
-43.7939
-12.2231
20.2256
53.5355
87.4342
121.548
155.462
188.762
221.081
251.987
281.045
307.885
332.113
353.347
371.279
385.636
396.195
402.797
405.316
403.239
397.104
387.05
373.157
355.672
334.875
311.066
284.58
255.825
225.187
193.067
159.896
126.073
91.9892
57.9911
24.6022
-6.46163
-37.7316
-67.9214
-96.7614
-124.077
-149.743
-173.688
-195.872
-216.282
-234.926
-251.822
-267.008
-280.521
-292.402
-302.689
-311.415
-318.611
-324.3
-328.494
-331.214
-332.42
-332.07
-330.25
-326.907
-322.028
-315.598
-307.585
-297.974
-286.73
-273.829
-259.281
-243.088
-225.259
-205.822
-184.787
-162.196
-138.114
-112.601
-85.7326
-57.6157
-28.378
1.80332
33.9699
65.6455
97.7876
130.083
162.202
193.789
224.463
253.837
281.507
307.081
330.186
350.462
367.6
381.33
391.408
397.674
399.993
398.224
392.457
382.75
369.142
351.843
331.082
307.15
280.401
251.231
220.067
187.361
153.584
119.198
84.6463
50.3438
16.6687
-16.0687
-47.593
-77.684
-106.174
-132.94
-157.902
-181.01
-202.252
-221.63
-239.163
-254.888
-268.848
-281.089
-291.665
-300.628
-308.028
-313.913
-318.332
-321.331
-322.909
-323.104
-321.975
-319.514
-315.725
-310.596
-304.109
-296.236
-286.932
-276.163
-263.886
-250.047
-234.603
-217.496
-198.712
-178.237
-156.063
-132.219
-106.758
-79.7562
-51.3376
-21.6408
9.14872
40.818
73.077
105.645
138.195
170.37
201.791
232.057
260.762
287.501
311.878
333.517
352.073
367.238
378.766
386.445
390.147
389.754
385.319
376.902
364.589
348.578
329.104
306.449
280.956
253
222.974
191.295
158.394
124.7
90.6347
56.5993
22.9678
-9.90165
-41.7504
-72.3183
-101.409
-128.874
-154.611
-178.56
-200.686
-220.982
-239.458
-256.138
-271.057
-284.248
-295.746
-305.589
-313.81
-320.442
-325.521
-329.084
-331.124
-331.681
-330.824
-328.534
-324.826
-319.725
-313.224
-305.328
-296.046
-285.358
-273.262
-259.744
-244.77
-228.332
-210.405
-190.97
-170.016
-147.527
-123.521
-98.0286
-71.1031
-42.8291
-13.3214
17.2349
48.6304
80.6123
112.877
145.078
176.827
207.705
237.277
265.091
290.71
313.701
333.659
350.236
363.123
372.067
376.91
377.516
373.886
366.09
354.234
338.512
319.191
296.595
271.093
243.09
213.021
181.336
148.481
114.894
80.9894
47.1541
13.7366
-18.954
-50.6253
-81.1388
-110.305
-137.997
-164.132
-188.66
-211.558
-232.812
-252.434
-270.435
-286.824
-301.634
-314.88
-326.567
-336.722
-345.348
-352.444
-358.016
-362.066
-364.556
-365.467
-364.808
-362.573
-358.728
-353.279
-346.217
-337.518
-327.201
-315.271
-301.711
-286.542
-269.788
-251.478
-231.646
-210.312
-187.516
-163.309
-137.721
-110.78
-82.5784
-57.7999
-28.2503
1.91295
32.5259
63.334
94.0607
124.455
154.185
182.943
210.378
236.142
259.928
281.411
300.28
316.266
329.122
338.637
344.645
346.955
344.698
338.702
329.041
315.699
298.844
278.681
255.488
229.551
201.229
170.894
138.955
105.867
72.0541
37.9401
3.95523
-29.5217
-61.953
-91.8857
-122.043
-150.834
-178.012
-203.416
-226.945
-248.534
-268.146
-285.769
-301.407
-315.088
-326.875
-336.845
-257.205
-240.71
-222.333
-202.101
-180.05
-156.186
-130.55
-103.235
-74.3429
-44.0065
-12.4186
20.0573
53.3931
87.3286
121.485
155.446
188.797
221.169
252.13
281.244
308.139
332.42
353.702
371.677
386.068
396.653
403.271
405.818
403.716
397.563
387.481
373.557
356.032
335.189
311.329
284.79
255.979
225.285
193.111
159.889
126.019
91.8941
57.8609
24.4414
-6.66696
-37.9524
-68.1555
-97.0051
-124.326
-149.993
-173.936
-196.116
-216.519
-235.156
-252.044
-267.221
-280.727
-292.6
-302.881
-311.601
-318.792
-324.478
-328.67
-331.389
-332.593
-332.25
-330.429
-327.088
-322.213
-315.788
-307.78
-298.173
-286.934
-274.036
-259.492
-243.301
-225.473
-206.036
-185
-162.407
-138.322
-112.804
-85.9286
-57.8007
-28.546
1.66452
33.8065
65.5192
97.6971
130.031
162.192
193.825
224.549
253.975
281.698
307.324
330.479
350.802
367.981
381.746
391.851
398.137
400.473
398.696
392.921
383.194
369.558
352.221
331.415
307.43
280.625
251.395
220.169
187.403
153.569
119.13
84.5306
50.1874
16.4795
-16.2842
-47.8279
-77.9319
-106.429
-133.199
-158.159
-181.264
-202.5
-221.87
-239.395
-255.111
-269.062
-281.294
-291.862
-300.817
-308.21
-314.089
-318.503
-321.497
-323.066
-323.264
-322.133
-319.672
-315.885
-310.758
-304.276
-296.409
-287.112
-276.351
-264.082
-250.251
-234.814
-217.714
-198.937
-178.466
-156.293
-132.448
-106.983
-79.9735
-51.5432
-21.83
8.98112
40.6762
72.9671
105.571
138.162
170.384
201.854
232.173
260.932
287.725
312.154
333.844
352.446
367.649
379.208
386.909
390.621
390.246
385.78
377.349
365.01
348.962
329.443
306.739
281.193
253.181
223.097
191.362
158.406
124.661
90.5483
56.4711
22.8039
-10.0957
-41.9674
-72.5519
-101.653
-129.124
-154.862
-178.809
-200.93
-221.22
-239.689
-256.362
-271.273
-284.457
-295.948
-305.785
-314.001
-320.628
-325.703
-329.262
-331.292
-331.854
-330.993
-328.701
-324.993
-319.892
-313.393
-305.498
-296.219
-285.534
-273.442
-259.929
-244.96
-228.527
-210.606
-191.176
-170.227
-147.741
-123.735
-98.2414
-71.3104
-43.0263
-13.5044
17.0721
48.4941
80.5089
112.813
145.059
176.858
207.792
237.421
265.294
290.973
314.019
334.029
350.651
363.575
372.545
377.403
378.029
374.368
366.559
354.674
338.913
319.544
296.894
271.335
243.273
213.145
181.401
148.492
114.855
80.906
47.0324
13.5832
-19.1327
-50.8239
-81.3505
-110.525
-138.222
-164.357
-188.884
-211.777
-233.028
-252.644
-270.64
-287.024
-301.829
-315.071
-326.755
-336.907
-345.531
-352.627
-358.199
-362.249
-364.735
-365.653
-364.994
-362.76
-358.918
-353.471
-346.412
-337.716
-327.4
-315.472
-301.914
-286.745
-269.991
-251.682
-231.85
-210.515
-187.719
-163.51
-137.922
-110.983
-82.7729
-57.932
-28.3669
1.80928
32.443
63.2782
94.0374
124.468
154.24
183.04
210.52
236.329
260.159
281.686
300.594
316.617
329.504
339.045
345.068
347.413
345.137
339.14
329.458
316.093
299.205
279.001
255.763
229.775
201.4
171.01
139.016
105.876
72.0126
37.8532
3.82947
-29.6782
-62.1345
-92.116
-122.283
-151.084
-178.269
-203.678
-227.207
-248.795
-268.403
-286.02
-301.652
-315.324
-327.103
-337.064
-257.506
-241.02
-222.652
-202.426
-180.379
-156.515
-130.876
-103.552
-74.6456
-44.2901
-12.6796
19.8315
53.2029
87.1875
121.402
155.426
188.843
221.286
252.32
281.508
308.477
332.829
354.176
372.207
386.644
397.263
403.904
406.468
404.359
398.178
388.057
374.09
356.512
335.608
311.68
285.068
256.183
225.415
193.169
159.879
125.946
91.7667
57.6868
24.2264
-6.94089
-38.247
-68.468
-97.3303
-124.658
-150.327
-174.268
-196.442
-216.837
-235.463
-252.34
-267.506
-281.002
-292.865
-303.137
-311.85
-319.035
-324.716
-328.905
-331.621
-332.827
-332.489
-330.668
-327.331
-322.461
-316.042
-308.041
-298.439
-287.206
-274.314
-259.772
-243.584
-225.757
-206.321
-185.284
-162.689
-138.6
-113.076
-86.1903
-58.048
-28.7707
1.47935
33.5874
65.3509
97.5761
129.96
162.178
193.873
224.663
254.159
281.952
307.648
330.87
351.254
368.489
382.301
392.443
398.754
401.101
399.331
393.544
383.787
370.113
352.726
331.859
307.805
280.923
251.612
220.304
187.459
153.548
119.038
84.3756
49.9783
16.2266
-16.5721
-48.1416
-78.263
-106.77
-133.543
-158.502
-181.602
-202.83
-222.19
-239.704
-255.408
-269.347
-281.568
-292.124
-301.068
-308.451
-314.323
-318.73
-321.714
-323.279
-323.478
-322.343
-319.883
-316.097
-310.975
-304.499
-296.64
-287.352
-276.602
-264.343
-250.524
-235.097
-218.006
-199.237
-178.772
-156.601
-132.754
-107.283
-80.2636
-51.8178
-22.0829
8.75678
40.4871
72.8201
105.473
138.119
170.402
201.938
232.326
261.157
288.024
312.524
334.28
352.943
368.198
379.799
387.528
391.254
390.893
386.404
377.947
365.572
349.474
329.897
307.126
281.508
253.421
223.261
191.45
158.422
124.608
90.4327
56.2997
22.5847
-10.355
-42.2573
-72.8639
-101.98
-129.457
-155.198
-179.141
-201.257
-221.538
-239.998
-256.66
-271.561
-284.735
-296.218
-306.047
-314.255
-320.876
-325.944
-329.496
-331.522
-332.083
-331.218
-328.925
-325.216
-320.116
-313.618
-305.726
-296.45
-285.769
-273.683
-260.175
-245.213
-228.788
-210.875
-191.451
-170.509
-148.027
-124.021
-98.5254
-71.5871
-43.2898
-13.7487
16.8546
48.3119
80.3706
112.727
145.033
176.899
207.907
237.613
265.565
291.322
314.443
334.522
351.206
364.177
373.182
378.06
378.699
375.024
367.187
355.262
339.448
320.016
297.294
271.658
243.516
213.309
181.488
148.507
114.803
80.7944
46.8696
13.3782
-19.3715
-51.0891
-81.6333
-110.819
-138.522
-164.658
-189.182
-212.071
-233.315
-252.924
-270.913
-287.291
-302.089
-315.326
-327.006
-337.154
-345.776
-352.87
-358.442
-362.491
-364.976
-365.899
-365.242
-363.01
-359.17
-353.727
-346.671
-337.979
-327.666
-315.74
-302.184
-287.016
-270.264
-251.954
-232.122
-210.786
-187.988
-163.779
-138.191
-111.253
-83.0365
-58.1049
-28.5223
1.67056
32.3318
63.2034
94.0061
124.487
154.312
183.169
210.709
236.578
260.467
282.052
301.014
317.085
330.015
339.588
345.633
348.003
345.731
339.727
330.016
316.618
299.686
279.429
256.129
230.073
201.627
171.165
139.099
105.887
71.9568
37.7367
3.66109
-29.8875
-62.3775
-92.4226
-122.604
-151.418
-178.613
-204.027
-227.558
-249.144
-268.746
-286.356
-301.978
-315.64
-327.407
-337.356
-257.882
-241.408
-223.051
-202.833
-180.792
-156.928
-131.283
-103.949
-75.0245
-44.645
-13.006
19.5473
52.9642
87.0105
121.296
155.399
188.901
221.431
252.558
281.838
308.899
333.341
354.769
372.871
387.366
398.027
404.695
407.271
405.158
398.949
388.778
374.758
357.113
336.132
312.119
285.416
256.439
225.578
193.241
159.865
125.854
91.6066
57.4685
23.9566
-7.28339
-38.6157
-68.8592
-97.7373
-125.073
-150.745
-174.683
-196.849
-217.233
-235.847
-252.71
-267.863
-281.345
-293.195
-303.456
-312.16
-319.338
-325.013
-329.198
-331.909
-333.122
-332.786
-330.966
-327.633
-322.771
-316.36
-308.366
-298.772
-287.546
-274.66
-260.124
-243.939
-226.114
-206.678
-185.64
-163.042
-138.948
-113.416
-86.5179
-58.3577
-29.0528
1.25264
33.307
65.1405
97.4245
129.872
162.159
193.932
224.805
254.388
282.269
308.052
331.358
351.82
369.124
382.995
393.183
399.526
401.886
400.126
394.323
384.529
370.808
353.358
332.414
308.272
281.296
251.884
220.474
187.528
153.521
118.922
84.181
49.7158
15.9095
-16.9329
-48.5347
-78.6776
-107.197
-133.975
-158.932
-182.025
-203.243
-222.591
-240.091
-255.78
-269.703
-281.909
-292.452
-301.383
-308.754
-314.615
-319.013
-321.986
-323.548
-323.744
-322.607
-320.146
-316.363
-311.246
-304.777
-296.929
-287.653
-276.915
-264.67
-250.865
-235.45
-218.371
-199.613
-179.154
-156.986
-133.137
-107.66
-80.6271
-52.1616
-22.3998
8.47514
40.2502
72.6356
105.349
138.064
170.423
202.042
232.518
261.439
288.397
312.985
334.826
353.565
368.885
380.537
388.302
392.047
391.692
387.191
378.696
366.274
350.115
330.464
307.61
281.902
253.721
223.465
191.561
158.44
124.541
90.2872
56.0846
22.3099
-10.6799
-42.6204
-73.2547
-102.388
-129.875
-155.617
-179.557
-201.665
-221.936
-240.383
-257.034
-271.921
-285.083
-296.555
-306.374
-314.573
-321.185
-326.246
-329.788
-331.811
-332.369
-331.5
-329.205
-325.495
-320.395
-313.899
-306.01
-296.739
-286.063
-273.983
-260.484
-245.53
-229.115
-211.21
-191.796
-170.861
-148.384
-124.38
-98.8809
-71.9336
-43.6201
-14.055
16.5819
48.0834
80.1967
112.619
144.999
176.95
208.05
237.853
265.904
291.759
314.974
335.139
351.899
364.931
373.979
378.884
379.531
375.849
367.973
355.997
340.118
320.605
297.793
272.061
243.82
213.513
181.597
148.524
114.737
80.654
46.6652
13.1209
-19.6709
-51.4214
-81.9876
-111.187
-138.897
-165.034
-189.555
-212.438
-233.675
-253.274
-271.254
-287.624
-302.414
-315.644
-327.319
-337.462
-346.082
-353.175
-358.746
-362.794
-365.281
-366.207
-365.552
-363.323
-359.486
-354.047
-346.996
-338.308
-327.998
-316.075
-302.522
-287.355
-270.604
-252.294
-232.461
-211.125
-188.326
-164.114
-138.526
-111.592
-83.3733
-58.3153
-28.7165
1.49634
32.192
63.1093
93.9665
124.509
154.402
183.33
210.945
236.888
260.852
282.509
301.539
317.671
330.653
340.268
346.341
348.729
346.475
340.459
330.714
317.275
300.288
279.963
256.587
230.446
201.912
171.359
139.201
105.9
71.8864
37.5903
3.44943
-30.1503
-62.6829
-92.8051
-123.005
-151.836
-179.043
-204.464
-227.996
-249.579
-269.175
-286.775
-302.385
-316.034
-327.787
-337.722
-258.333
-241.874
-223.53
-203.323
-181.287
-157.424
-131.773
-104.425
-75.48
-45.0716
-13.3978
19.2039
52.6767
86.7971
121.169
155.367
188.969
221.606
252.842
282.234
309.406
333.955
355.481
373.668
388.232
398.945
405.645
408.234
406.114
399.873
389.646
375.559
357.834
336.761
312.646
285.834
256.745
225.773
193.327
159.849
125.743
91.4131
57.2053
23.6309
-7.69442
-39.0586
-69.3293
-98.2264
-125.573
-151.247
-175.181
-197.339
-217.709
-236.307
-253.154
-268.29
-281.756
-293.592
-303.84
-312.533
-319.701
-325.369
-329.549
-332.256
-333.474
-333.14
-331.324
-327.997
-323.143
-316.741
-308.757
-299.171
-287.954
-275.076
-260.545
-244.365
-226.542
-207.106
-186.067
-163.466
-139.366
-113.824
-86.9117
-58.7304
-29.3935
0.971783
32.9769
64.8885
97.2421
129.764
162.136
194.001
224.974
254.662
282.65
308.538
331.944
352.5
369.887
383.829
394.072
400.453
402.831
401.078
395.258
385.421
371.642
354.116
333.08
308.834
281.743
252.21
220.676
187.61
153.487
118.782
83.9461
49.3993
15.5278
-17.3671
-49.0076
-79.1761
-107.71
-134.493
-159.448
-182.533
-203.739
-223.072
-240.555
-256.227
-270.132
-282.32
-292.845
-301.761
-309.117
-314.966
-319.352
-322.313
-323.871
-324.063
-322.922
-320.462
-316.682
-311.571
-305.112
-297.275
-288.014
-277.291
-265.062
-251.274
-235.875
-218.81
-200.064
-179.613
-157.448
-133.597
-108.112
-81.0641
-52.5751
-22.7812
8.13595
39.9651
72.4134
105.199
137.996
170.448
202.166
232.747
261.777
288.844
313.539
335.48
354.311
369.709
381.425
389.233
393
392.65
388.138
379.597
367.118
350.884
331.144
308.191
282.374
254.081
223.71
191.692
158.462
124.46
90.1114
55.8252
21.9788
-11.0709
-43.0573
-73.7246
-102.879
-130.377
-156.121
-180.057
-202.155
-222.413
-240.846
-257.481
-272.354
-285.501
-296.959
-306.766
-314.954
-321.557
-326.608
-330.139
-332.158
-332.712
-331.838
-329.54
-325.83
-320.731
-314.236
-306.351
-297.085
-286.416
-274.344
-260.854
-245.911
-229.507
-211.613
-192.21
-171.284
-148.813
-124.81
-99.3083
-72.3504
-44.0175
-14.4236
16.2537
47.808
79.9869
112.487
144.958
177.01
208.22
238.14
266.31
292.283
315.61
335.88
352.731
365.837
374.938
379.874
380.53
376.838
368.917
356.881
340.922
321.313
298.393
272.545
244.184
213.758
181.726
148.544
114.656
80.4844
46.4187
12.8108
-20.0315
-51.821
-82.4137
-111.629
-139.347
-165.486
-190.003
-212.878
-234.106
-253.695
-271.663
-288.024
-302.804
-316.026
-327.695
-337.832
-346.449
-353.54
-359.11
-363.156
-365.647
-366.576
-365.923
-363.698
-359.866
-354.432
-347.385
-338.702
-328.396
-316.478
-302.927
-287.762
-271.012
-252.702
-232.869
-211.531
-188.73
-164.518
-138.929
-111.998
-83.7884
-58.5585
-28.9498
1.28601
32.0229
62.9955
93.918
124.535
154.509
183.524
211.228
237.261
261.313
283.058
302.169
318.375
331.42
341.085
347.193
349.6
347.364
341.335
331.553
318.064
301.01
280.605
257.137
230.894
202.253
171.59
139.323
105.916
71.8009
37.4132
3.19367
-30.4678
-63.0515
-93.2627
-123.487
-152.338
-179.56
-204.988
-228.523
-250.102
-269.69
-287.278
-302.875
-316.508
-328.243
-338.16
-258.859
-242.418
-224.09
-203.894
-181.865
-158.003
-132.345
-104.982
-76.0125
-45.5704
-13.8547
18.7999
52.3395
86.5468
121.02
155.328
189.048
221.808
253.173
282.695
309.997
334.672
356.313
374.599
389.244
400.017
406.754
409.359
407.227
400.95
390.659
376.496
358.677
337.495
313.26
286.321
257.101
225.999
193.426
159.828
125.612
91.1856
56.8965
23.2481
-8.17391
-39.5761
-69.8787
-98.798
-126.156
-151.833
-175.763
-197.91
-218.265
-236.845
-253.672
-268.789
-282.237
-294.055
-304.287
-312.967
-320.125
-325.785
-329.959
-332.662
-333.884
-333.552
-331.74
-328.421
-323.577
-317.186
-309.213
-299.638
-288.43
-275.562
-261.037
-244.862
-227.041
-207.606
-186.566
-163.961
-139.854
-114.301
-87.3718
-59.1665
-29.7938
0.632276
32.6006
64.5951
97.0285
129.638
162.108
194.081
225.171
254.981
283.093
309.104
332.628
353.293
370.778
384.803
395.11
401.536
403.937
402.19
396.348
386.464
372.617
355.001
333.858
309.49
282.264
252.59
220.912
187.704
153.447
118.617
83.6703
49.0282
15.0807
-17.8754
-49.5608
-79.7591
-108.31
-135.099
-160.051
-183.127
-204.318
-223.633
-241.097
-256.748
-270.631
-282.798
-293.304
-302.201
-309.541
-315.375
-319.748
-322.697
-324.247
-324.435
-323.291
-320.83
-317.053
-311.951
-305.502
-297.679
-288.434
-277.73
-265.52
-251.752
-236.37
-219.322
-200.59
-180.149
-157.988
-134.135
-108.641
-81.5751
-53.0587
-23.2273
7.73879
39.6311
72.1527
105.023
137.917
170.475
202.309
233.013
262.17
289.365
314.185
336.244
355.182
370.672
382.461
390.319
394.113
393.77
389.241
380.65
368.104
351.782
331.938
308.868
282.925
254.5
223.996
191.844
158.487
124.364
89.9049
55.521
21.5909
-11.5287
-43.5685
-74.2741
-103.453
-130.963
-156.71
-180.64
-202.728
-222.97
-241.387
-258.004
-272.859
-285.988
-297.431
-307.223
-315.399
-321.99
-327.03
-330.55
-332.563
-333.111
-332.232
-329.932
-326.221
-321.122
-314.63
-306.749
-297.489
-286.827
-274.765
-261.285
-246.355
-229.964
-212.084
-192.693
-171.778
-149.314
-125.314
-99.8077
-72.8378
-44.4824
-14.8549
15.8694
47.4852
79.7405
112.332
144.909
177.079
208.418
238.474
266.783
292.894
316.353
336.745
353.703
366.896
376.059
381.031
381.697
377.991
370.021
357.913
341.86
322.139
299.092
273.109
244.608
214.042
181.875
148.565
114.561
80.2848
46.1296
12.4472
-20.4537
-52.2885
-82.912
-112.147
-139.874
-166.014
-190.526
-213.392
-234.61
-254.187
-272.141
-288.491
-303.26
-316.471
-328.133
-338.264
-346.877
-353.967
-359.535
-363.58
-366.074
-367.006
-366.356
-364.135
-360.308
-354.88
-347.839
-339.163
-328.861
-316.946
-303.398
-288.237
-271.489
-253.178
-233.344
-212.005
-189.203
-164.988
-139.399
-112.473
-84.2889
-58.8273
-29.2228
1.0388
31.824
62.8613
93.8605
124.565
154.633
183.748
211.557
237.695
261.852
283.698
302.905
319.196
332.315
342.04
348.188
350.619
348.398
342.356
332.533
318.986
301.854
281.355
257.778
231.417
202.651
171.861
139.465
105.932
71.6998
37.2048
2.89271
-30.8418
-63.4833
-93.7946
-124.048
-152.925
-180.163
-205.601
-229.138
-250.713
-270.291
-287.866
-303.446
-317.06
-328.775
-338.672
-259.461
-243.04
-224.729
-204.547
-182.527
-158.666
-133.001
-105.62
-76.6224
-46.1419
-14.376
18.3338
51.9519
86.2589
120.847
155.283
189.136
222.038
253.551
283.222
310.673
335.491
357.264
375.664
390.402
401.244
408.023
410.644
408.5
402.181
391.818
377.567
359.64
338.335
313.963
286.877
257.508
226.256
193.538
159.802
125.461
90.9231
56.5409
22.8075
-8.72186
-40.1685
-70.5079
-99.4523
-126.824
-152.505
-176.429
-198.563
-218.901
-237.46
-254.265
-269.359
-282.785
-294.584
-304.799
-313.464
-320.609
-326.26
-330.427
-333.126
-334.349
-334.022
-332.216
-328.906
-324.073
-317.695
-309.734
-300.171
-288.974
-276.117
-261.6
-245.43
-227.613
-208.178
-187.135
-164.528
-140.412
-114.846
-87.8987
-59.6664
-30.2545
0.232949
32.1787
64.2602
96.7833
129.492
162.074
194.172
225.395
255.344
283.599
309.751
333.41
354.2
371.797
385.916
396.299
402.775
405.203
403.461
397.595
387.657
373.733
356.015
334.748
310.239
282.86
253.023
221.181
187.81
153.398
118.427
83.3526
48.6016
14.5675
-18.4585
-50.195
-80.4271
-108.997
-135.792
-160.741
-183.806
-204.981
-224.275
-241.716
-257.343
-271.202
-283.346
-293.828
-302.704
-310.025
-315.842
-320.2
-323.135
-324.676
-324.859
-323.711
-321.25
-317.478
-312.384
-305.947
-298.14
-288.915
-278.231
-266.044
-252.298
-236.937
-219.908
-201.193
-180.762
-158.607
-134.751
-109.246
-82.1603
-53.6128
-23.7387
7.28306
39.2479
71.8531
104.82
137.824
170.505
202.472
233.316
262.619
289.961
314.924
337.118
356.179
371.774
383.647
391.564
395.389
395.052
390.502
381.856
369.232
352.809
332.847
309.643
283.555
254.979
224.321
192.017
158.513
124.252
89.667
55.1712
21.1454
-12.054
-44.1547
-74.9041
-104.111
-131.635
-157.384
-181.308
-203.382
-223.608
-242.004
-258.602
-273.436
-286.546
-297.97
-307.746
-315.907
-322.484
-327.512
-331.02
-333.025
-333.567
-332.682
-330.379
-326.667
-321.569
-315.08
-307.204
-297.95
-287.298
-275.246
-261.778
-246.862
-230.487
-212.621
-193.246
-172.343
-149.887
-125.89
-100.38
-73.396
-45.0154
-15.3497
15.4282
47.1144
79.4568
112.153
144.851
177.156
208.642
238.855
267.324
293.592
317.203
337.734
354.814
368.107
377.343
382.357
383.035
379.31
371.284
359.095
342.934
323.083
299.892
273.753
245.092
214.366
182.044
148.588
114.45
80.0548
45.7969
12.0293
-20.9378
-52.8244
-83.4831
-112.739
-140.476
-166.618
-191.124
-213.98
-235.185
-254.748
-272.687
-289.024
-303.78
-316.98
-328.634
-338.758
-347.365
-354.454
-360.02
-364.064
-366.562
-367.498
-366.851
-364.634
-360.814
-355.392
-348.359
-339.689
-329.393
-317.482
-303.938
-288.781
-272.033
-253.723
-233.888
-212.547
-189.743
-165.526
-139.936
-113.016
-84.8772
-59.1196
-29.5369
0.753769
31.5946
62.7063
93.7932
124.597
154.774
184.004
211.933
238.191
262.467
284.43
303.746
320.136
333.34
343.132
349.328
351.786
349.58
343.522
333.654
320.04
302.82
282.212
258.511
232.015
203.106
172.169
139.626
105.95
71.5823
36.9641
2.54524
-31.2758
-63.9772
-94.4004
-124.691
-153.596
-180.854
-206.303
-229.842
-251.412
-270.979
-288.538
-304.099
-317.692
-329.384
-339.257
-260.139
-243.741
-225.45
-205.283
-183.272
-159.413
-133.74
-106.34
-77.3105
-46.7869
-14.963
17.8054
51.5133
85.9324
120.651
155.23
189.234
222.295
253.974
283.814
311.433
336.414
358.335
376.864
391.708
402.626
409.452
412.092
409.932
403.565
393.125
378.774
360.726
339.28
314.753
287.503
257.964
226.544
193.662
159.771
125.288
90.6247
56.137
22.3081
-9.33813
-40.8362
-71.2174
-100.19
-127.578
-153.261
-177.179
-199.299
-219.617
-238.152
-254.932
-270
-283.402
-295.178
-305.374
-314.022
-321.154
-326.795
-330.954
-333.648
-334.872
-334.55
-332.751
-329.452
-324.631
-318.267
-310.321
-300.771
-289.586
-276.742
-262.234
-246.07
-228.257
-208.821
-187.777
-165.166
-141.041
-115.461
-88.4926
-60.231
-30.7766
-0.226595
31.7105
63.8835
96.5057
129.326
162.034
194.271
225.645
255.753
284.168
310.478
334.29
355.222
372.945
387.171
397.638
404.173
406.631
404.893
398.999
389.002
374.99
357.157
335.751
311.083
283.53
253.51
221.482
187.928
153.342
118.209
82.9922
48.1184
13.9874
-19.1173
-50.9109
-81.1808
-109.772
-136.574
-161.518
-184.571
-205.727
-224.998
-242.414
-258.013
-271.845
-283.961
-294.418
-303.27
-310.569
-316.368
-320.709
-323.629
-325.159
-325.335
-324.184
-321.723
-317.955
-312.871
-306.448
-298.658
-289.456
-278.796
-266.633
-252.912
-237.575
-220.569
-201.871
-181.453
-159.303
-135.445
-109.928
-82.8201
-54.2379
-24.3161
6.768
38.815
71.5137
104.59
137.718
170.537
202.654
233.656
263.124
290.63
315.755
338.102
357.301
373.016
384.984
392.966
396.828
396.497
391.922
383.214
370.503
353.967
333.87
310.514
284.264
255.517
224.685
192.21
158.54
124.124
89.3969
54.775
20.6414
-12.6475
-44.8167
-75.6152
-104.853
-132.392
-158.144
-182.06
-204.119
-224.326
-242.7
-259.274
-274.085
-287.173
-298.577
-308.334
-316.479
-323.041
-328.055
-331.549
-333.546
-334.08
-333.188
-330.882
-327.17
-322.071
-315.586
-307.715
-298.469
-287.827
-275.787
-262.333
-247.434
-231.075
-213.227
-193.868
-172.979
-150.532
-126.539
-101.024
-74.0256
-45.6171
-15.9085
14.9294
46.6948
79.1351
111.949
144.783
177.241
208.893
239.281
267.93