/*--------------------------------*- C++ -*----------------------------------*\
| =========                 |                                                 |
| \\      /  F ield         | OpenFOAM: The Open Source CFD Toolbox           |
|  \\    /   O peration     | Version:  3.0.1                                 |
|   \\  /    A nd           | Web:      www.OpenFOAM.org                      |
|    \\/     M anipulation  |                                                 |
\*---------------------------------------------------------------------------*/
FoamFile
{
    version     2.0;
    format      ascii;
    class       surfaceScalarField;
    location    "27.4";
    object      alphaPhi;
}
// * * * * * * * * * * * * * * * * * * * * * * * * * * * * * * * * * * * * * //

dimensions      [0 3 -1 0 0 0 0];

internalField   nonuniform List<scalar> 
44922
(
-0.000363983
-2.06037e-05
-0.000340442
-2.35412e-05
-0.000314804
-2.5638e-05
-0.000286456
-2.8348e-05
-0.00025647
-2.99853e-05
-0.000224122
-3.23485e-05
-0.000190757
-3.33646e-05
-0.000155701
-3.50564e-05
-0.000120696
-3.50051e-05
-8.50916e-05
-3.56039e-05
-5.07409e-05
-3.43506e-05
-1.66997e-05
-3.40411e-05
1.51392e-05
-3.18389e-05
4.43379e-05
-2.91987e-05
6.99077e-05
-2.55698e-05
9.16451e-05
-2.17373e-05
0.000109051
-1.74063e-05
0.000122197
-1.31451e-05
0.000130778
-8.58138e-06
0.000135119
-4.34061e-06
0.000135302
-1.83459e-07
0.000132253
3.04961e-06
0.000126299
5.95383e-06
0.000117618
8.68083e-06
0.000106988
1.06303e-05
9.44023e-05
1.25854e-05
8.05478e-05
1.38545e-05
6.5321e-05
1.52269e-05
4.93196e-05
1.60014e-05
3.24227e-05
1.6897e-05
1.50799e-05
1.73429e-05
-2.42001e-06
1.74999e-05
-2.08964e-05
1.84764e-05
-4.0194e-05
1.92976e-05
-6.06127e-05
2.04188e-05
-8.18099e-05
2.11972e-05
-0.000104393
2.25827e-05
-0.00012771
2.33173e-05
-0.000152496
2.47866e-05
-0.000177726
2.52292e-05
-0.000204228
2.6502e-05
-0.000230685
2.64578e-05
-0.000257944
2.72582e-05
-0.000284579
2.6635e-05
-0.000311343
2.67648e-05
-0.000336891
2.55478e-05
-0.000361835
2.4944e-05
-0.000385015
2.31802e-05
-0.00040692
2.19046e-05
-0.000426592
1.96717e-05
-0.000444457
1.78658e-05
-0.000460116
1.56589e-05
-0.000473029
1.29123e-05
-0.000483499
1.04704e-05
-0.000491445
7.9456e-06
-0.000496287
4.84269e-06
-0.000497536
1.24897e-06
-0.000495106
-2.43012e-06
-0.000490135
-4.97064e-06
-0.000483012
-7.12303e-06
-0.000473951
-9.06129e-06
-0.00046332
-1.06315e-05
-0.00045146
-1.18592e-05
-0.000438433
-1.30273e-05
-0.000424432
-1.4001e-05
-0.000409523
-1.49087e-05
-0.000393783
-1.57401e-05
-0.000377287
-1.64959e-05
-0.000359934
-1.73529e-05
-0.000341966
-1.79684e-05
-0.000323217
-1.87489e-05
-0.00030313
-2.00864e-05
-0.000282256
-2.08744e-05
-0.000259419
-2.28372e-05
-0.00023595
-2.34679e-05
-0.000210312
-2.5638e-05
-0.000184536
-2.57768e-05
-0.000157153
-2.73821e-05
-0.000130956
-2.61971e-05
-0.000105344
-2.56125e-05
-8.35479e-05
-2.17957e-05
-6.60191e-05
-1.75287e-05
-5.57735e-05
-1.02455e-05
-5.34206e-05
-2.35282e-06
-6.34377e-05
1.00172e-05
-8.56071e-05
2.21695e-05
-0.00012201
3.64028e-05
-0.000168291
4.62812e-05
-0.000224918
5.66269e-05
-0.000285624
6.07064e-05
-0.000346768
6.11441e-05
-0.00040543
5.86618e-05
-0.000458086
5.26561e-05
-0.000503617
4.55307e-05
-0.000541343
3.77265e-05
-0.000571838
3.04969e-05
-0.000595732
2.3895e-05
-0.000613992
1.82611e-05
-0.000627393
1.34011e-05
-0.000636451
9.05641e-06
-0.000642162
5.71061e-06
-0.000645598
3.43611e-06
-0.000647423
1.82559e-06
-0.000647507
8.32344e-08
-0.000646633
-8.72326e-07
-0.000645314
-1.31835e-06
-0.000643704
-1.61021e-06
-0.000642745
-9.61287e-07
-0.000640333
-2.41207e-06
-0.000639183
-1.15038e-06
-0.000636213
-2.97022e-06
-0.000633679
-2.53354e-06
-0.000628238
-5.44089e-06
-0.000622078
-6.15988e-06
-0.000613958
-8.1199e-06
-0.000603004
-1.09542e-05
-0.000589781
-1.32235e-05
-0.000574922
-1.48591e-05
-0.0005584
-1.65226e-05
-0.000541307
-1.70929e-05
-0.000523751
-1.75559e-05
-0.000506464
-1.72863e-05
-0.000489542
-1.69227e-05
-0.000472823
-1.67184e-05
-0.000457298
-1.55254e-05
-0.0004433
-1.39981e-05
-0.000430106
-1.31944e-05
-0.000417136
-1.2969e-05
-0.000403144
-1.39927e-05
-0.000386724
-1.642e-05
-0.000367777
-1.89472e-05
-0.000346759
-2.10172e-05
-0.000325448
-2.13114e-05
-0.000305218
-2.02294e-05
-0.000287421
-1.77973e-05
-0.000272587
-1.48336e-05
-0.000261273
-1.13141e-05
-0.000253573
-7.7001e-06
-0.000249001
-4.57198e-06
-0.000247258
-1.74288e-06
-0.000248176
9.17587e-07
-0.000251594
3.41857e-06
-0.000257395
5.80032e-06
-0.000265309
7.91465e-06
-0.000274907
9.59801e-06
-0.000286226
1.13186e-05
-0.00029886
1.26342e-05
-0.000313012
1.41518e-05
-0.000328398
1.53859e-05
-0.000344925
1.65266e-05
-0.000362485
1.756e-05
-0.000379946
1.74613e-05
-0.000397499
1.75529e-05
-0.000414415
1.69156e-05
-0.000429898
1.54839e-05
-0.000443896
1.39973e-05
-0.000455945
1.2049e-05
-0.000465649
9.70403e-06
-0.000472782
7.13305e-06
-0.000477869
5.08726e-06
-0.000480759
2.88964e-06
-0.000482239
1.48102e-06
-0.000481718
-5.2136e-07
-0.000480052
-1.6673e-06
-0.000477489
-2.56327e-06
-0.000474502
-2.98667e-06
-0.000470866
-3.63561e-06
-0.000467113
-3.7529e-06
-0.000462664
-4.44895e-06
-0.000457544
-5.12079e-06
-0.000451738
-5.80547e-06
-0.000445546
-6.19223e-06
-0.000439408
-6.1374e-06
-0.000433328
-6.08005e-06
-0.000427802
-5.5265e-06
-0.000422515
-5.28717e-06
-0.000417597
-4.91755e-06
-0.000412848
-4.74934e-06
-0.00040825
-4.59827e-06
-0.000403859
-4.39021e-06
-0.000399516
-4.34312e-06
-0.000395354
-4.16199e-06
-0.000391337
-4.01683e-06
-0.000387563
-3.77427e-06
-0.000383937
-3.62607e-06
-0.00038048
-3.45674e-06
-0.0003771
-3.38065e-06
-0.000373861
-3.23812e-06
-0.000370758
-3.10298e-06
-0.000367738
-3.01983e-06
-0.000364779
-2.95947e-06
-0.000361876
-2.90332e-06
-0.000358897
-2.97903e-06
-0.000355632
-3.26432e-06
-0.000351896
-3.73599e-06
-0.000347382
-4.51447e-06
-0.000341503
-5.87827e-06
-0.000333483
-8.01995e-06
-0.000322643
-1.08399e-05
-0.000308646
-1.39979e-05
-0.000292254
-1.63918e-05
-0.000277532
-1.47202e-05
-0.000270085
-7.44662e-06
-0.000269117
-9.69666e-07
-0.000270473
1.35591e-06
-0.000271713
1.23973e-06
-0.000268458
-3.25481e-06
-0.000255466
-1.29922e-05
-0.000232273
-2.31931e-05
-0.000201698
-3.05721e-05
-0.000167197
-3.45014e-05
-0.000128381
-3.88162e-05
-8.54738e-05
-4.29069e-05
-3.89958e-05
-4.64778e-05
1.06233e-05
-4.96192e-05
6.60397e-05
-5.54164e-05
0.00012375
-5.771e-05
0.000177465
-5.37157e-05
0.000220047
-4.25816e-05
0.000243079
-2.30325e-05
0.000253289
-1.02109e-05
0.00025132
1.96933e-06
0.00024205
9.27e-06
0.000216804
2.52457e-05
2.9589e-05
0.000187214
-0.000364122
-4.12027e-05
-0.000340578
-4.70843e-05
-0.000314934
-5.12824e-05
-0.000286572
-5.67098e-05
-0.000256572
-5.99854e-05
-0.000224202
-6.47184e-05
-0.000190813
-6.6753e-05
-0.000155726
-7.01438e-05
-0.000120688
-7.00431e-05
-8.50456e-05
-7.1246e-05
-5.06608e-05
-6.87353e-05
-1.65755e-05
-6.81263e-05
1.52953e-05
-6.37095e-05
4.45213e-05
-5.84245e-05
7.01202e-05
-5.11686e-05
9.18835e-05
-4.35005e-05
0.000109298
-3.48207e-05
0.000122445
-2.62919e-05
0.000131021
-1.71575e-05
0.00013535
-8.66916e-06
0.00013552
-3.54056e-07
0.000132432
6.13838e-06
0.00012645
1.19354e-05
0.000117745
1.73862e-05
0.000107093
2.12824e-05
9.44881e-05
2.51903e-05
8.06178e-05
2.77249e-05
6.53787e-05
3.04661e-05
4.93686e-05
3.20115e-05
3.24667e-05
3.3799e-05
1.51209e-05
3.46887e-05
-2.39747e-06
3.50183e-05
-2.08513e-05
3.69303e-05
-4.01413e-05
3.85876e-05
-6.05539e-05
4.08314e-05
-8.17472e-05
4.23906e-05
-0.000104328
4.5164e-05
-0.000127648
4.66368e-05
-0.00015244
4.95791e-05
-0.000177679
5.04675e-05
-0.000204193
5.30166e-05
-0.000230666
5.29302e-05
-0.000257941
5.45334e-05
-0.000284593
5.32874e-05
-0.000311376
5.3548e-05
-0.000336942
5.11129e-05
-0.000361902
4.9905e-05
-0.000385098
4.63758e-05
-0.000407017
4.38241e-05
-0.000426703
3.93569e-05
-0.000444581
3.5744e-05
-0.000460248
3.13263e-05
-0.000473157
2.58211e-05
-0.000483545
2.08579e-05
-0.000491261
1.56619e-05
-0.000495746
9.32797e-06
-0.000496834
2.33714e-06
-0.000494853
-4.41101e-06
-0.000490233
-9.59082e-06
-0.000483114
-1.42416e-05
-0.000474041
-1.81351e-05
-0.000463395
-2.12767e-05
-0.000451524
-2.37305e-05
-0.000438488
-2.60632e-05
-0.000424482
-2.80073e-05
-0.000409571
-2.98191e-05
-0.000393832
-3.14794e-05
-0.00037734
-3.29881e-05
-0.000359993
-3.46991e-05
-0.000342034
-3.59274e-05
-0.000323298
-3.74854e-05
-0.000303227
-4.01566e-05
-0.000282372
-4.173e-05
-0.000259549
-4.56591e-05
-0.000236087
-4.69306e-05
-0.000210442
-5.12829e-05
-0.00018464
-5.15783e-05
-0.000157212
-5.48098e-05
-0.000130945
-5.24641e-05
-0.000105238
-5.13196e-05
-8.33275e-05
-4.37056e-05
-6.56554e-05
-3.52008e-05
-5.52744e-05
-2.06264e-05
-5.28345e-05
-4.79252e-06
-6.27495e-05
1.99323e-05
-8.49021e-05
4.43221e-05
-0.000121361
7.28623e-05
-0.000167787
9.27068e-05
-0.000224635
0.000113475
-0.000285594
0.000121666
-0.000346973
0.000122523
-0.000405821
0.00011751
-0.000458591
0.000105425
-0.000504172
9.11122e-05
-0.000541903
7.54585e-05
-0.000572386
6.09823e-05
-0.000596235
4.7748e-05
-0.000614415
3.64424e-05
-0.000627753
2.67398e-05
-0.000636802
1.81057e-05
-0.000642583
1.14857e-05
-0.000646069
6.91684e-06
-0.000647773
3.52762e-06
-0.000647696
1.13571e-08
-0.00064676
-1.80134e-06
-0.000645417
-2.66029e-06
-0.00064378
-3.24761e-06
-0.000642781
-1.96051e-06
-0.000640406
-4.79449e-06
-0.000639216
-2.34544e-06
-0.000636288
-5.89906e-06
-0.000633774
-5.046e-06
-0.000628396
-1.08128e-05
-0.000622235
-1.23182e-05
-0.000614128
-1.62267e-05
-0.000603168
-2.19162e-05
-0.000589919
-2.64789e-05
-0.000575051
-2.97274e-05
-0.000558492
-3.30815e-05
-0.000541359
-3.42221e-05
-0.000523768
-3.51464e-05
-0.000506438
-3.46177e-05
-0.000489533
-3.38314e-05
-0.000472818
-3.34328e-05
-0.000457269
-3.10742e-05
-0.000443276
-2.79905e-05
-0.00043013
-2.6337e-05
-0.000417223
-2.58741e-05
-0.000403302
-2.79149e-05
-0.000386908
-3.28168e-05
-0.000367927
-3.79282e-05
-0.000346817
-4.21267e-05
-0.000325438
-4.26886e-05
-0.000305127
-4.05374e-05
-0.000287279
-3.56456e-05
-0.0002724
-2.97147e-05
-0.000261072
-2.26427e-05
-0.000253382
-1.53895e-05
-0.000248846
-9.10618e-06
-0.000247148
-3.43949e-06
-0.000248061
1.83029e-06
-0.00025148
6.83461e-06
-0.0002573
1.16197e-05
-0.00026525
1.58645e-05
-0.000274876
1.92242e-05
-0.000286199
2.26438e-05
-0.000298838
2.52751e-05
-0.000312987
2.83007e-05
-0.000328385
3.07836e-05
-0.000344911
3.30513e-05
-0.000362485
3.51311e-05
-0.00038
3.49758e-05
-0.00039757
3.51248e-05
-0.00041453
3.38777e-05
-0.000430037
3.09911e-05
-0.000444049
2.80084e-05
-0.000456109
2.41088e-05
-0.000465833
1.94256e-05
-0.000472957
1.42564e-05
-0.000478042
1.01761e-05
-0.000480912
5.75968e-06
-0.000482366
2.93518e-06
-0.000481824
-1.06422e-06
-0.000480123
-3.36783e-06
-0.000477545
-5.14409e-06
-0.000474554
-5.97902e-06
-0.000470916
-7.27282e-06
-0.000467158
-7.51064e-06
-0.000462715
-8.89236e-06
-0.000457598
-1.02395e-05
-0.000451786
-1.16177e-05
-0.000445579
-1.23999e-05
-0.000439434
-1.2279e-05
-0.000433347
-1.21648e-05
-0.000427818
-1.1056e-05
-0.000422521
-1.05839e-05
-0.000417594
-9.84733e-06
-0.000412841
-9.50389e-06
-0.000408243
-9.1964e-06
-0.000403869
-8.76403e-06
-0.000399545
-8.66739e-06
-0.000395384
-8.32042e-06
-0.000391359
-8.04129e-06
-0.000387572
-7.56153e-06
-0.000383935
-7.26345e-06
-0.000380476
-6.91851e-06
-0.000377098
-6.75878e-06
-0.000373871
-6.46492e-06
-0.000370777
-6.19463e-06
-0.000367751
-6.04459e-06
-0.000364767
-5.94333e-06
-0.000361839
-5.83187e-06
-0.000358858
-5.96262e-06
-0.000355614
-6.50927e-06
-0.000351914
-7.4347e-06
-0.000347458
-8.96844e-06
-0.000341685
-1.16505e-05
-0.000333838
-1.58677e-05
-0.000323212
-2.14656e-05
-0.000309422
-2.77881e-05
-0.000293441
-3.23729e-05
-0.000278011
-3.01496e-05
-0.000268092
-1.73654e-05
-0.000265
-4.06101e-06
-0.000264393
7.46713e-07
-0.000263381
2.2693e-07
-0.000257609
-9.02667e-06
-0.000242967
-2.7634e-05
-0.00022047
-4.56902e-05
-0.00019209
-5.89521e-05
-0.000159484
-6.71069e-05
-0.000122965
-7.53351e-05
-8.2804e-05
-8.30683e-05
-3.77109e-05
-9.15708e-05
1.19449e-05
-9.92747e-05
6.72804e-05
-0.000110753
0.000124772
-0.000115203
0.000178021
-0.000106965
0.000219997
-8.4557e-05
0.000243619
-4.66557e-05
0.000255183
-2.17756e-05
0.000256698
4.5058e-07
0.00025437
1.15988e-05
0.000240206
3.94096e-05
5.00727e-05
0.000219724
-0.000364391
-6.18008e-05
-0.000340844
-7.06304e-05
-0.000315185
-7.69419e-05
-0.000286797
-8.50975e-05
-0.000256767
-9.00156e-05
-0.000224355
-9.713e-05
-0.000190919
-0.000100189
-0.000155771
-0.000105292
-0.000120668
-0.000105146
-8.49504e-05
-0.000106964
-5.04984e-05
-0.000103187
-1.6326e-05
-0.000102299
1.56079e-05
-9.56434e-05
4.48977e-05
-8.77142e-05
7.05535e-05
-7.68243e-05
9.23546e-05
-6.53015e-05
0.00010979
-5.22565e-05
0.000122941
-3.9442e-05
0.00013151
-2.57271e-05
0.000135827
-1.29858e-05
0.000135968
-4.95398e-07
0.000132787
9.3196e-06
0.000126749
1.79736e-05
0.000117994
2.6141e-05
0.000107299
3.19774e-05
9.46559e-05
3.78337e-05
8.07546e-05
4.16262e-05
6.54912e-05
4.57295e-05
4.94643e-05
4.80385e-05
3.25528e-05
5.07105e-05
1.52023e-05
5.20393e-05
-2.34166e-06
5.25623e-05
-2.07617e-05
5.53504e-05
-4.00377e-05
5.78637e-05
-6.04385e-05
6.12322e-05
-8.16246e-05
6.35767e-05
-0.000104204
6.77434e-05
-0.000127528
6.99612e-05
-0.000152333
7.43842e-05
-0.000177591
7.57248e-05
-0.000204132
7.95574e-05
-0.000230634
7.94326e-05
-0.000257944
8.18435e-05
-0.000284632
7.99754e-05
-0.000311453
8.03689e-05
-0.000337053
7.67133e-05
-0.000362049
7.49004e-05
-0.000385276
6.96026e-05
-0.000407225
6.57736e-05
-0.000426938
5.90695e-05
-0.000444842
5.36478e-05
-0.000460528
4.70125e-05
-0.000473435
3.87286e-05
-0.000483705
3.11276e-05
-0.000491062
2.30187e-05
-0.000495427
1.36929e-05
-0.000496667
3.57725e-06
-0.000494989
-6.08877e-06
-0.000490464
-1.41161e-05
-0.000483335
-2.13708e-05
-0.000474233
-2.72369e-05
-0.000463559
-3.195e-05
-0.000451663
-3.56263e-05
-0.00043861
-3.9117e-05
-0.000424592
-4.20248e-05
-0.000409677
-4.47341e-05
-0.000393938
-4.72178e-05
-0.000377452
-4.94742e-05
-0.000360118
-5.20334e-05
-0.000342176
-5.38692e-05
-0.000323462
-5.61988e-05
-0.000303422
-6.01972e-05
-0.000282597
-6.25545e-05
-0.0002598
-6.84562e-05
-0.000236348
-7.03823e-05
-0.000210689
-7.69409e-05
-0.000184839
-7.74289e-05
-0.000157322
-8.2326e-05
-0.000130917
-7.88693e-05
-0.000105023
-7.72132e-05
-8.28884e-05
-6.58402e-05
-6.49398e-05
-5.31492e-05
-5.4277e-05
-3.12891e-05
-5.16537e-05
-7.41575e-06
-6.13767e-05
2.96554e-05
-8.3495e-05
6.64408e-05
-0.000120064
0.000109431
-0.000166768
0.000139411
-0.000224059
0.000170767
-0.000285537
0.000183143
-0.000347392
0.000184378
-0.000406609
0.000176728
-0.000459599
0.000158417
-0.000505268
0.000136784
-0.000542998
0.000113192
-0.000573445
9.14319e-05
-0.000597215
7.15212e-05
-0.000615242
5.44693e-05
-0.000628473
3.99722e-05
-0.000637605
2.72378e-05
-0.000643593
1.74745e-05
-0.000647153
1.04766e-05
-0.000648526
4.90188e-06
-0.000648077
-4.38136e-07
-0.000646966
-2.91137e-06
-0.000645558
-4.06865e-06
-0.000643884
-4.9217e-06
-0.000642778
-3.0663e-06
-0.00064046
-7.11227e-06
-0.000639222
-3.5832e-06
-0.0006364
-8.72226e-06
-0.000633885
-7.56094e-06
-0.000628607
-1.60907e-05
-0.000622483
-1.84438e-05
-0.000614409
-2.43007e-05
-0.000603469
-3.28563e-05
-0.000590182
-3.97659e-05
-0.000575321
-4.45884e-05
-0.000558692
-4.97108e-05
-0.000541432
-5.14819e-05
-0.000523735
-5.28427e-05
-0.000506314
-5.20395e-05
-0.000489475
-5.06764e-05
-0.000472782
-5.01268e-05
-0.000457194
-4.6662e-05
-0.000443219
-4.19613e-05
-0.000430172
-3.93808e-05
-0.000417362
-3.86841e-05
-0.000403588
-4.16887e-05
-0.000387268
-4.91367e-05
-0.000368201
-5.69953e-05
-0.000346886
-6.34418e-05
-0.000325377
-6.41987e-05
-0.000304908
-6.10069e-05
-0.000286952
-5.36008e-05
-0.000271982
-4.46841e-05
-0.00026061
-3.40146e-05
-0.000252932
-2.3067e-05
-0.000248464
-1.35735e-05
-0.000246856
-5.04856e-06
-0.00024781
2.7845e-06
-0.000251233
1.02581e-05
-0.000257087
1.74727e-05
-0.000265097
2.38741e-05
-0.00027478
2.89073e-05
-0.000286133
3.39971e-05
-0.000298791
3.79329e-05
-0.000312927
4.2437e-05
-0.000328343
4.61993e-05
-0.000344887
4.95952e-05
-0.000362462
5.27062e-05
-0.000380072
5.25861e-05
-0.000397705
5.27585e-05
-0.000414758
5.09302e-05
-0.000430292
4.65256e-05
-0.000444325
4.20407e-05
-0.000456417
3.62002e-05
-0.000466222
2.92322e-05
-0.000473345
2.13794e-05
-0.00047842
1.52507e-05
-0.00048123
8.57022e-06
-0.000482611
4.31607e-06
-0.000481994
-1.68173e-06
-0.000480226
-5.13542e-06
-0.000477623
-7.74734e-06
-0.000474628
-8.97435e-06
-0.00047099
-1.09102e-05
-0.000467224
-1.1277e-05
-0.000462779
-1.33374e-05
-0.000457666
-1.53525e-05
-0.000451848
-1.74359e-05
-0.000445607
-1.86411e-05
-0.000439449
-1.84378e-05
-0.000433344
-1.82697e-05
-0.000427812
-1.65879e-05
-0.000422516
-1.58798e-05
-0.000417581
-1.47828e-05
-0.000412814
-1.42709e-05
-0.000408208
-1.38021e-05
-0.000403846
-1.31258e-05
-0.000399547
-1.29664e-05
-0.000395408
-1.24604e-05
-0.00039138
-1.20696e-05
-0.000387577
-1.1364e-05
-0.000383929
-1.09123e-05
-0.000380464
-1.0383e-05
-0.000377086
-1.01368e-05
-0.000373869
-9.68212e-06
-0.0003708
-9.26495e-06
-0.000367774
-9.07005e-06
-0.000364746
-8.97083e-06
-0.000361763
-8.81424e-06
-0.000358759
-8.96718e-06
-0.00035554
-9.72829e-06
-0.000351898
-1.1077e-05
-0.000347534
-1.33319e-05
-0.000341919
-1.72662e-05
-0.000334282
-2.35045e-05
-0.000323818
-3.19298e-05
-0.000310009
-4.1597e-05
-0.000293859
-4.85223e-05
-0.000278436
-4.55742e-05
-0.000267653
-2.81479e-05
-0.000262781
-8.93264e-06
-0.000260321
-1.7133e-06
-0.000257328
-2.76695e-06
-0.000250029
-1.63268e-05
-0.00023602
-4.16429e-05
-0.000216414
-6.52956e-05
-0.000190898
-8.44676e-05
-0.000159687
-9.83175e-05
-0.000124292
-0.000110728
-8.49893e-05
-0.00012237
-4.04751e-05
-0.000136085
9.14322e-06
-0.000148893
6.40034e-05
-0.000165613
0.0001215
-0.000172699
0.000173896
-0.00015936
0.000214378
-0.000125039
0.000239275
-7.15526e-05
0.000251467
-3.39673e-05
0.000254435
-2.51909e-06
0.000256698
9.33409e-06
0.00025646
3.96492e-05
5.21579e-05
0.000254378
-0.000364794
-8.23979e-05
-0.000341243
-9.41815e-05
-0.000315561
-0.000102624
-0.000287135
-0.000113524
-0.000257059
-0.000120091
-0.000224585
-0.000129604
-0.000191078
-0.000133696
-0.000155839
-0.000140531
-0.000120639
-0.000140346
-8.48074e-05
-0.000142795
-5.02537e-05
-0.000137741
-1.59515e-05
-0.000136601
1.60765e-05
-0.000127671
4.54855e-05
-0.000117123
7.12009e-05
-0.00010254
9.3061e-05
-8.71615e-05
0.000110532
-6.97274e-05
0.000123685
-5.25945e-05
0.000132235
-3.42773e-05
0.000136526
-1.7277e-05
0.000136614
-5.82934e-07
0.000133319
1.26144e-05
0.000127198
2.40945e-05
0.000118368
3.49715e-05
0.000107608
4.27373e-05
9.4907e-05
5.05349e-05
8.09591e-05
5.55742e-05
6.56595e-05
6.10291e-05
4.96072e-05
6.40909e-05
3.26816e-05
6.76362e-05
1.53252e-05
6.93958e-05
-2.23252e-06
7.012e-05
-2.0626e-05
7.3744e-05
-3.98822e-05
7.71199e-05
-6.02653e-05
8.16153e-05
-8.14405e-05
8.4752e-05
-0.000104017
9.03195e-05
-0.000127348
9.3293e-05
-0.000152173
9.92083e-05
-0.000177459
0.000101011
-0.000204039
0.000106138
-0.000230586
0.00010598
-0.000257948
0.000109206
-0.00028469
0.000106717
-0.000311568
0.000107246
-0.000337221
0.000102367
-0.000362268
9.99477e-05
-0.000385542
9.28763e-05
-0.000407537
8.77684e-05
-0.000427291
7.88235e-05
-0.000445234
7.1591e-05
-0.000460952
6.27308e-05
-0.000473875
5.16513e-05
-0.000484133
4.13853e-05
-0.000491231
3.01168e-05
-0.000495484
1.79463e-05
-0.000496921
5.0142e-06
-0.000495379
-7.63031e-06
-0.000490827
-1.86687e-05
-0.000483667
-2.85307e-05
-0.000474521
-3.63829e-05
-0.000463805
-4.26658e-05
-0.000451872
-4.75592e-05
-0.000438791
-5.21975e-05
-0.000424757
-5.60593e-05
-0.000409835
-5.96559e-05
-0.000394098
-6.29551e-05
-0.000377621
-6.5951e-05
-0.000360304
-6.93499e-05
-0.000342388
-7.17853e-05
-0.000323709
-7.48778e-05
-0.000303713
-8.01933e-05
-0.000282934
-8.33334e-05
-0.000260173
-9.12169e-05
-0.000236738
-9.38173e-05
-0.000211061
-0.000102617
-0.000185132
-0.000103358
-0.000157493
-0.000109965
-0.00013087
-0.000105492
-0.000104698
-0.000103384
-8.22219e-05
-8.83167e-05
-6.38742e-05
-7.14968e-05
-5.28154e-05
-4.23478e-05
-4.98716e-05
-1.03594e-05
-5.93098e-05
3.90937e-05
-8.13761e-05
8.85074e-05
-0.000118112
0.000146168
-0.000165248
0.000186548
-0.000223214
0.000228734
-0.000285466
0.000245395
-0.000348027
0.000246939
-0.000407795
0.000236496
-0.000461116
0.000211739
-0.00050692
0.00018259
-0.000544611
0.000150885
-0.000574958
0.000121781
-0.000598623
9.51898e-05
-0.000616453
7.23047e-05
-0.000629557
5.30806e-05
-0.000638826
3.65076e-05
-0.000644818
2.346e-05
-0.000648169
1.38217e-05
-0.000649322
6.05346e-06
-0.000648602
-1.15897e-06
-0.000647245
-4.26875e-06
-0.000645702
-5.60648e-06
-0.000643996
-6.62103e-06
-0.000642778
-4.28125e-06
-0.000640579
-9.312e-06
-0.000639276
-4.8859e-06
-0.000636626
-1.13725e-05
-0.000634087
-1.01002e-05
-0.000628884
-2.13014e-05
-0.000622819
-2.45128e-05
-0.000614806
-3.23138e-05
-0.000603948
-4.37142e-05
-0.000590588
-5.31254e-05
-0.000575713
-5.94622e-05
-0.000558995
-6.64253e-05
-0.000541554
-6.89215e-05
-0.000523717
-7.06802e-05
-0.000506132
-6.96238e-05
-0.000489378
-6.74308e-05
-0.00047273
-6.67758e-05
-0.0004571
-6.22918e-05
-0.000443114
-5.59453e-05
-0.000430198
-5.22975e-05
-0.000417532
-5.13498e-05
-0.000403972
-5.52533e-05
-0.000387798
-6.53127e-05
-0.000368649
-7.61464e-05
-0.00034699
-8.51007e-05
-0.000325279
-8.59087e-05
-0.000304586
-8.16981e-05
-0.000286447
-7.17389e-05
-0.000271389
-5.97423e-05
-0.000259963
-4.54437e-05
-0.000252286
-3.0745e-05
-0.000247922
-1.79369e-05
-0.000246415
-6.55453e-06
-0.00024743
3.79985e-06
-0.000250891
1.37184e-05
-0.000256812
2.33941e-05
-0.000264893
3.19557e-05
-0.000274609
3.8623e-05
-0.000285972
4.536e-05
-0.000298665
5.06248e-05
-0.000312822
5.65927e-05
-0.000328276
6.16546e-05
-0.000344853
6.61758e-05
-0.00036246
7.0313e-05
-0.000380233
7.0359e-05
-0.000397895
7.04211e-05
-0.000415024
6.80564e-05
-0.000430666
6.21657e-05
-0.000444759
5.61338e-05
-0.000456901
4.83417e-05
-0.000466756
3.90889e-05
-0.000473927
2.85543e-05
-0.000478953
2.02785e-05
-0.000481672
1.12886e-05
-0.000482959
5.60183e-06
-0.000482232
-2.41236e-06
-0.000480378
-6.99068e-06
-0.000477734
-1.03909e-05
-0.000474742
-1.19655e-05
-0.000471112
-1.45408e-05
-0.000467337
-1.5052e-05
-0.000462887
-1.77883e-05
-0.000457769
-2.04706e-05
-0.000451946
-2.32584e-05
-0.00044566
-2.49272e-05
-0.000439463
-2.46354e-05
-0.000433311
-2.44207e-05
-0.000427767
-2.21307e-05
-0.000422494
-2.11541e-05
-0.00041757
-1.97081e-05
-0.000412785
-1.90559e-05
-0.000408184
-1.84033e-05
-0.000403823
-1.74865e-05
-0.000399533
-1.72558e-05
-0.000395422
-1.65719e-05
-0.000391391
-1.61003e-05
-0.000387576
-1.51787e-05
-0.000383922
-1.45665e-05
-0.000380453
-1.38525e-05
-0.000377062
-1.35281e-05
-0.00037385
-1.28942e-05
-0.000370831
-1.2284e-05
-0.000367838
-1.20613e-05
-0.000364777
-1.20305e-05
-0.000361738
-1.18545e-05
-0.000358702
-1.20052e-05
-0.000355515
-1.29151e-05
-0.000351959
-1.46319e-05
-0.000347687
-1.76027e-05
-0.000342186
-2.2767e-05
-0.000334713
-3.09785e-05
-0.000324373
-4.22705e-05
-0.00031044
-5.55299e-05
-0.000293815
-6.51469e-05
-0.00027784
-6.15498e-05
-0.000266714
-3.92729e-05
-0.000261713
-1.39336e-05
-0.000258795
-4.62999e-06
-0.0002552
-6.36067e-06
-0.000247674
-2.38533e-05
-0.000234205
-5.51117e-05
-0.000215863
-8.3636e-05
-0.000191443
-0.000108887
-0.000160797
-0.000128963
-0.000125465
-0.000146061
-8.61762e-05
-0.000161659
-4.24643e-05
-0.000179797
6.31167e-06
-0.000197669
6.02251e-05
-0.000219526
0.000117134
-0.000229608
0.000168292
-0.000210518
0.00020682
-0.000163567
0.000231965
-9.66975e-05
0.000245144
-4.71465e-05
0.000250502
-7.87644e-06
0.000256734
3.10169e-06
0.00026825
2.81323e-05
4.05499e-05
0.000279857
-0.000365332
-0.000102994
-0.000341775
-0.000117739
-0.000316063
-0.000128335
-0.000287586
-0.000142001
-0.00025745
-0.000150227
-0.000224893
-0.000162162
-0.00019129
-0.000167298
-0.000155929
-0.000175892
-0.0001206
-0.000175676
-8.46163e-05
-0.000178778
-4.99253e-05
-0.000172432
-1.54512e-05
-0.000171075
1.67019e-05
-0.000159824
4.62277e-05
-0.000146649
7.2091e-05
-0.000128403
9.40074e-05
-0.000109078
0.000111518
-8.72384e-05
0.000124671
-6.5747e-05
0.000133187
-4.27936e-05
0.000137403
-2.14929e-05
0.000137417
-5.96407e-07
0.000134022
1.60089e-05
0.000127798
3.03187e-05
0.000118865
4.39043e-05
0.000108019
5.35836e-05
9.52408e-05
6.33133e-05
8.12307e-05
6.95843e-05
6.58829e-05
7.6377e-05
4.97967e-05
8.01772e-05
3.28524e-05
8.45806e-05
1.54891e-05
8.67591e-05
-2.08896e-06
8.76981e-05
-2.04442e-05
9.20992e-05
-3.96746e-05
9.63504e-05
-6.00338e-05
0.000101975
-8.11943e-05
0.000105913
-0.000103766
0.000112891
-0.000127108
0.000116635
-0.000151957
0.000124058
-0.000177281
0.000126335
-0.000203914
0.00013277
-0.000230522
0.000132588
-0.000257954
0.000136638
-0.000284768
0.000133531
-0.000311721
0.000134199
-0.000337445
0.000128091
-0.000362561
0.000125064
-0.000385898
0.000116212
-0.000407953
0.000109823
-0.000427762
9.8633e-05
-0.000445758
8.95873e-05
-0.000461522
7.84944e-05
-0.000474474
6.46036e-05
-0.000484743
5.16543e-05
-0.000491748
3.71218e-05
-0.00049594
2.21383e-05
-0.000497456
6.52966e-06
-0.000495931
-9.15495e-06
-0.000491325
-2.32742e-05
-0.000484112
-3.57442e-05
-0.000474905
-4.55899e-05
-0.000464132
-5.34388e-05
-0.000452149
-5.95418e-05
-0.000439033
-6.53139e-05
-0.000424976
-7.01165e-05
-0.000410045
-7.45864e-05
-0.000394309
-7.86908e-05
-0.000377845
-8.24154e-05
-0.000360552
-8.66427e-05
-0.00034267
-8.96673e-05
-0.000324037
-9.35107e-05
-0.0003041
-0.00010013
-0.000283382
-0.000104052
-0.000260668
-0.00011393
-0.000237255
-0.000117231
-0.000211556
-0.000128316
-0.000185527
-0.000129388
-0.000157719
-0.000137772
-0.00013081
-0.000132401
-0.000104263
-0.000129931
-8.13346e-05
-0.000111245
-6.24662e-05
-9.0365e-05
-5.08749e-05
-5.3939e-05
-4.74758e-05
-1.37584e-05
-5.65196e-05
4.81375e-05
-7.85283e-05
0.000110516
-0.000115491
0.000183131
-0.000163197
0.000234254
-0.00022207
0.000287607
-0.000285363
0.000308689
-0.000348862
0.000310439
-0.000409369
0.000297002
-0.000463119
0.00026549
-0.000509088
0.000228559
-0.000546719
0.000188516
-0.000576892
0.000151956
-0.000600397
0.000118696
-0.000617997
8.99045e-05
-0.000630925
6.60091e-05
-0.000640199
4.57818e-05
-0.000645982
2.92429e-05
-0.000649027
1.68664e-05
-0.000650027
7.0539e-06
-0.000649158
-2.02839e-06
-0.000647607
-5.81976e-06
-0.000645916
-7.2968e-06
-0.000644118
-8.41879e-06
-0.000642793
-5.60343e-06
-0.000640783
-1.13192e-05
-0.000639418
-6.25046e-06
-0.000636967
-1.38258e-05
-0.000634413
-1.26552e-05
-0.000629301
-2.64133e-05
-0.000623266
-3.0548e-05
-0.000615342
-4.02366e-05
-0.000604591
-5.44654e-05
-0.000591129
-6.65873e-05
-0.000576133
-7.44572e-05
-0.000559325
-8.32334e-05
-0.000541721
-8.65253e-05
-0.000523699
-8.86956e-05
-0.000506012
-8.73107e-05
-0.000489339
-8.41038e-05
-0.000472645
-8.34693e-05
-0.000456932
-7.8005e-05
-0.000442936
-6.99411e-05
-0.000430161
-6.50775e-05
-0.000417704
-6.38101e-05
-0.00040444
-6.85173e-05
-0.000388467
-8.12858e-05
-0.000369207
-9.54063e-05
-0.000347117
-0.000107191
-0.000325131
-0.000107894
-0.000304162
-0.000102667
-0.000285792
-9.01096e-05
-0.000270633
-7.49021e-05
-0.000259162
-5.69161e-05
-0.000251498
-3.84085e-05
-0.000247292
-2.21432e-05
-0.000245886
-7.96073e-06
-0.000246929
4.84292e-06
-0.000250418
1.72073e-05
-0.000256394
2.93717e-05
-0.000264564
4.01271e-05
-0.00027433
4.83899e-05
-0.000285708
5.67371e-05
-0.000298431
6.33474e-05
-0.00031257
7.07317e-05
-0.000328089
7.71739e-05
-0.000344774
8.28607e-05
-0.000362409
8.79491e-05
-0.000380354
8.83047e-05
-0.000398138
8.82048e-05
-0.000415315
8.52337e-05
-0.000431134
7.79838e-05
-0.000445284
7.02841e-05
-0.000457509
6.05665e-05
-0.000467358
4.8938e-05
-0.000474564
3.57601e-05
-0.000479556
2.52708e-05
-0.000482145
1.38782e-05
-0.00048336
6.81615e-06
-0.000482549
-3.22288e-06
-0.000480603
-8.93689e-06
-0.000477893
-1.31006e-05
-0.000474878
-1.49804e-05
-0.000471249
-1.81693e-05
-0.000467487
-1.88139e-05
-0.00046305
-2.2226e-05
-0.000457916
-2.56047e-05
-0.000452067
-2.91074e-05
-0.000445709
-3.12847e-05
-0.000439477
-3.08673e-05
-0.00043328
-3.06182e-05
-0.000427713
-2.76972e-05
-0.000422433
-2.64339e-05
-0.00041753
-2.46113e-05
-0.000412767
-2.38194e-05
-0.000408175
-2.2995e-05
-0.000403814
-2.18476e-05
-0.000399534
-2.15353e-05
-0.000395416
-2.069e-05
-0.000391384
-2.01329e-05
-0.000387569
-1.89931e-05
-0.000383907
-1.8229e-05
-0.000380456
-1.73034e-05
-0.000377054
-1.69299e-05
-0.000373837
-1.61116e-05
-0.000370854
-1.52667e-05
-0.0003679
-1.50154e-05
-0.000364839
-1.50918e-05
-0.000361782
-1.49114e-05
-0.000358743
-1.50438e-05
-0.000355593
-1.60649e-05
-0.00035214
-1.80853e-05
-0.000347991
-2.17512e-05
-0.000342604
-2.81538e-05
-0.000335238
-3.83442e-05
-0.000324951
-5.2558e-05
-0.000310868
-6.96119e-05
-0.000293662
-8.23533e-05
-0.000276785
-7.84271e-05
-0.000265362
-5.06962e-05
-0.00026111
-1.81855e-05
-0.000258745
-6.99442e-06
-0.000255496
-9.60757e-06
-0.000248457
-3.08921e-05
-0.000235389
-6.81805e-05
-0.00021723
-0.000101795
-0.000192869
-0.000133248
-0.000162295
-0.000159539
-0.000127173
-0.000181185
-8.83782e-05
-0.000200456
-4.55859e-05
-0.00022259
1.86507e-06
-0.00024512
5.36998e-05
-0.000271361
0.000109003
-0.000284912
0.000157818
-0.000259332
0.000194128
-0.000199877
0.000219159
-0.000121728
0.000230707
-5.86927e-05
0.000238614
-1.57842e-05
0.000251685
-9.96928e-06
0.000273625
6.18921e-06
2.00619e-05
0.000294113
-0.000366005
-0.000123591
-0.00034244
-0.000141304
-0.000316692
-0.000154084
-0.000288152
-0.000170541
-0.00025794
-0.000180438
-0.000225278
-0.000194824
-0.000191557
-0.000201019
-0.000156044
-0.000211406
-0.000120552
-0.000211167
-8.43769e-05
-0.000214953
-4.95118e-05
-0.000207297
-1.48242e-05
-0.000205762
1.74853e-05
-0.000192134
4.71916e-05
-0.000176355
7.31673e-05
-0.000154378
9.52034e-05
-0.000131114
0.000112755
-0.00010479
0.000125906
-7.88978e-05
0.000134375
-5.1263e-05
0.000138494
-2.56116e-05
0.000138416
-5.18918e-07
0.000134899
1.95264e-05
0.000128547
3.6671e-05
0.000119486
5.29646e-05
0.000108532
6.45385e-05
9.56566e-05
7.61884e-05
8.15685e-05
8.36725e-05