/*--------------------------------*- C++ -*----------------------------------*\
| =========                 |                                                 |
| \\      /  F ield         | OpenFOAM: The Open Source CFD Toolbox           |
|  \\    /   O peration     | Version:  3.0.1                                 |
|   \\  /    A nd           | Web:      www.OpenFOAM.org                      |
|    \\/     M anipulation  |                                                 |
\*---------------------------------------------------------------------------*/
FoamFile
{
    version     2.0;
    format      ascii;
    class       volScalarField;
    location    "66.4";
    object      p_rgh;
}
// * * * * * * * * * * * * * * * * * * * * * * * * * * * * * * * * * * * * * //

dimensions      [1 -1 -2 0 0 0 0];

internalField   nonuniform List<scalar> 
21420
(
278.19
248.454
217.47
185.572
153.145
120.495
88.0301
56.088
25.2924
-4.34973
-33.5154
-61.4987
-88.098
-113.194
-136.707
-158.601
-178.855
-197.475
-214.483
-229.903
-243.774
-256.136
-267.025
-276.479
-284.531
-291.209
-296.532
-300.514
-303.12
-304.355
-304.251
-302.76
-299.833
-295.441
-289.53
-282.049
-272.95
-262.175
-249.666
-235.378
-219.268
-201.303
-181.468
-159.745
-136.171
-110.807
-83.7126
-54.9964
-24.8161
6.22133
38.6197
71.8134
105.539
139.453
173.202
206.458
238.844
269.972
299.494
327.047
352.288
374.907
394.607
411.138
424.295
433.886
439.783
441.844
440.151
434.581
425.165
412.086
395.5
375.611
352.679
326.998
298.901
268.744
236.904
203.767
169.725
135.168
100.481
66.0458
32.2962
-0.736361
-32.7852
-63.5686
-92.8598
-120.483
-146.308
-170.238
-192.204
-212.162
-230.096
-246.017
-259.952
-271.949
-282.068
-290.38
-296.957
-301.88
-305.221
-307.01
-307.287
-306.134
-303.538
-299.509
-294.042
-287.124
-278.733
-268.845
-257.438
-244.487
-229.971
-213.867
-196.163
-176.855
-155.944
-133.444
-109.386
-83.8144
-56.7913
-28.4106
1.21241
32.2264
63.875
96.2288
129.021
161.94
194.645
226.76
257.887
287.61
315.509
341.166
364.177
384.168
400.797
413.771
422.848
427.84
428.613
425.176
417.567
405.811
390.112
370.695
347.848
321.915
293.29
262.403
229.712
195.69
160.812
125.543
90.3208
55.5494
21.5802
-11.2829
-42.7825
-72.7138
-100.923
-127.303
-151.78
-174.321
-194.92
-213.596
-230.381
-245.325
-258.48
-269.91
-279.677
-287.841
-294.461
-299.594
-303.305
-305.621
-306.567
-306.181
-304.493
-301.492
-297.171
-291.517
-284.51
-276.123
-266.319
-255.058
-242.296
-227.99
-212.103
-194.604
-175.481
-154.737
-132.388
-108.467
-83.0285
-56.1402
-27.9001
1.56209
32.0776
63.4472
95.4021
127.654
159.884
191.739
222.838
252.779
281.15
307.532
331.517
352.709
370.74
385.278
396.042
402.809
405.365
403.738
397.846
387.783
373.684
355.789
334.396
309.865
282.607
253.069
221.719
189.037
155.499
121.562
87.6513
54.157
21.4145
-10.2853
-40.6993
-69.635
-96.9449
-122.522
-146.302
-168.249
-188.366
-206.676
-223.22
-238.052
-251.238
-262.843
-272.928
-281.552
-288.762
-294.593
-299.083
-302.269
-304.163
-304.767
-304.114
-302.218
-299.057
-294.622
-288.905
-281.883
-273.536
-263.849
-252.807
-240.384
-226.562
-211.319
-194.631
-176.47
-156.825
-135.702
-113.112
-89.0801
-63.666
-36.9565
-9.05864
19.9021
49.7747
80.4129
111.656
142.904
173.899
204.322
233.786
261.884
288.206
312.331
333.841
352.358
367.544
379.105
386.788
390.405
389.775
384.75
375.45
362.107
344.949
324.313
300.585
274.179
245.556
215.193
183.548
151.1
118.268
85.4002
52.8319
26.1258
-4.16329
-33.1219
-60.5771
-86.4564
-110.725
-133.375
-154.428
-173.931
-191.94
-208.522
-223.741
-237.659
-250.328
-261.784
-272.051
-281.134
-289.021
-295.686
-301.087
-305.177
-307.894
-309.156
-308.838
-306.93
-303.339
-298.035
-290.957
-282.078
-271.367
-258.82
-244.447
-228.257
-210.285
-190.601
-169.285
-146.43
-122.166
-96.6165
-69.9288
-42.309
-13.9854
14.3223
42.9454
71.9716
100.837
129.24
156.928
183.485
208.579
278.238
248.485
217.484
185.57
153.128
120.464
87.9876
56.0357
25.2357
-4.415
-33.5849
-61.5714
-88.1726
-113.269
-136.782
-158.675
-178.927
-197.545
-214.55
-229.968
-243.836
-256.196
-267.083
-276.536
-284.586
-291.263
-296.585
-300.565
-303.171
-304.411
-304.308
-302.816
-299.891
-295.501
-289.593
-282.114
-273.019
-262.246
-249.74
-235.455
-219.347
-201.384
-181.55
-159.828
-136.254
-110.889
-83.7923
-55.0734
-24.8897
6.16162
38.5666
71.7694
105.506
139.433
173.196
206.467
238.869
270.014
299.552
327.121
352.378
375.011
394.724
411.266
424.432
434.029
439.931
442.003
440.294
434.723
425.303
412.216
395.618
375.716
352.768
327.071
298.957
268.783
236.926
203.772
169.714
135.141
100.44
65.9912
32.2391
-0.803623
-32.8613
-63.6512
-92.9471
-120.573
-146.401
-170.333
-192.298
-212.256
-230.189
-246.107
-260.04
-272.033
-282.149
-290.458
-297.032
-301.952
-305.29
-307.076
-307.353
-306.199
-303.604
-299.575
-294.109
-287.192
-278.802
-268.916
-257.51
-244.562
-230.047
-213.944
-196.242
-176.935
-156.025
-133.525
-109.467
-83.8938
-56.8688
-28.4849
1.14005
32.1629
63.8171
96.1805
128.984
161.917
194.636
226.768
257.913
287.655
315.572
341.247
364.277
384.284
400.928
413.913
422.999
428.003
428.768
425.33
417.716
405.952
390.241
370.809
347.945
321.993
293.347
262.44
229.728
195.686
160.79
125.504
90.2668
55.4832
21.5037
-11.3672
-42.8724
-72.8074
-101.019
-127.399
-151.876
-174.415
-195.012
-213.685
-230.467
-245.407
-258.559
-269.986
-279.75
-287.911
-294.529
-299.66
-303.369
-305.683
-306.626
-306.242
-304.553
-301.552
-297.232
-291.579
-284.574
-276.188
-266.386
-255.127
-242.367
-228.064
-212.179
-194.682
-175.561
-154.817
-132.468
-108.547
-83.1065
-56.2161
-27.9725
1.49454
32.017
63.3955
95.3605
127.625
159.868
191.739
222.855
252.814
281.204
307.605
331.608
352.818
370.864
385.416
396.19
402.965
405.531
403.894
398.001
387.93
373.819
355.91
334.5
309.949
282.67
253.111
221.74
189.038
155.482
121.528
87.6035
54.0972
21.3448
-10.3627
-40.7824
-69.722
-97.0341
-122.612
-146.391
-168.337
-188.452
-206.758
-223.299
-238.128
-251.311
-262.913
-272.994
-281.616
-288.824
-294.654
-299.142
-302.328
-304.22
-304.822
-304.171
-302.275
-299.114
-294.68
-288.964
-281.942
-273.596
-263.911
-252.87
-240.448
-226.627
-211.385
-194.699
-176.54
-156.895
-135.773
-113.182
-89.15
-63.7341
-37.0218
-9.12009
19.8457
49.7241
80.3702
111.625
142.885
173.894
204.332
233.813
261.929
288.27
312.414
333.942
352.476
367.677
379.252
386.944
390.568
389.948
384.908
375.602
362.249
345.076
324.422
300.674
274.247
245.603
215.219
183.555
151.09
118.244
85.366
52.7863
26.0559
-4.2401
-33.1997
-60.6549
-86.5333
-110.8
-133.447
-154.497
-173.997
-192.002
-208.581
-223.796
-237.711
-250.378
-261.833
-272.099
-281.183
-289.07
-295.736
-301.139
-305.231
-307.951
-309.214
-308.901
-306.995
-303.407
-298.105
-291.028
-282.151
-271.442
-258.896
-244.523
-228.333
-210.36
-190.674
-169.355
-146.498
-122.23
-96.6762
-69.9835
-42.3572
-14.0253
14.2874
42.9211
71.9585
100.836
129.251
156.951
183.522
208.628
278.333
248.546
217.511
185.565
153.093
120.402
87.9025
55.9308
25.1221
-4.54547
-33.724
-61.7168
-88.3217
-113.419
-136.932
-158.822
-179.071
-197.684
-214.685
-230.098
-243.962
-256.317
-267.2
-276.648
-284.697
-291.37
-296.691
-300.67
-303.274
-304.522
-304.42
-302.929
-300.007
-295.622
-289.718
-282.245
-273.155
-262.388
-249.887
-235.607
-219.505
-201.546
-181.715
-159.994
-136.42
-111.052
-83.9514
-55.2268
-25.0362
6.04223
38.4607
71.6819
105.441
139.394
173.185
206.487
238.92
270.098
299.669
327.27
352.558
375.219
394.958
411.522
424.706
434.317
440.228
442.317
440.584
435.01
425.581
412.476
395.856
375.927
352.95
327.221
299.073
268.865
236.974
203.788
169.698
135.096
100.366
65.891
32.1351
-0.92741
-33.0018
-63.804
-93.1088
-120.741
-146.573
-170.506
-192.472
-212.428
-230.357
-246.272
-260.199
-272.186
-282.295
-290.597
-297.165
-302.08
-305.413
-307.191
-307.47
-306.314
-303.718
-299.69
-294.226
-287.311
-278.924
-269.041
-257.639
-244.693
-230.182
-214.082
-196.382
-177.078
-156.169
-133.671
-109.612
-84.0361
-57.0073
-28.617
1.01185
32.0522
63.7175
96.1002
128.926
161.886
194.636
226.8
257.981
287.759
315.714
341.427
364.491
384.531
401.204
414.212
423.315
428.339
429.096
425.653
418.028
406.248
390.512
371.051
348.152
322.162
293.477
262.528
229.775
195.693
160.76
125.441
90.174
55.3663
21.3665
-11.52
-43.0361
-72.9784
-101.194
-127.575
-152.05
-174.586
-195.178
-213.846
-230.622
-245.555
-258.701
-270.121
-279.879
-288.035
-294.647
-299.775
-303.48
-305.79
-306.728
-306.347
-304.657
-301.657
-297.339
-291.688
-284.685
-276.303
-266.505
-255.251
-242.496
-228.197
-212.316
-194.823
-175.704
-154.961
-132.613
-108.69
-83.2478
-56.353
-28.1028
1.37403
31.91
63.3067
95.2914
127.58
159.852
191.753
222.903
252.898
281.325
307.764
331.804
353.048
371.126
385.704
396.5
403.288
405.874
404.219
398.322
388.235
374.102
356.163
334.717
310.128
282.808
253.207
221.795
189.054
155.461
121.474
87.5205
53.9903
21.2182
-10.5044
-40.9353
-69.8823
-97.1987
-122.778
-146.556
-168.499
-188.608
-206.909
-223.443
-238.265
-251.441
-263.037
-273.113
-281.73
-288.934
-294.761
-299.248
-302.431
-304.32
-304.92
-304.271
-302.375
-299.215
-294.783
-289.068
-282.048
-273.704
-264.022
-252.983
-240.564
-226.746
-211.508
-194.825
-176.669
-157.027
-135.905
-113.315
-89.2821
-63.8631
-37.1458
-9.23689
19.7384
49.628
80.2893
111.568
142.85
173.886
204.355
233.87
262.021
288.399
312.581
334.146
352.714
367.946
379.547
387.259
390.896
390.295
385.223
375.908
362.532
345.33
324.641
300.853
274.383
245.697
215.272
183.569
151.071
118.197
85.2977
52.6961
25.9152
-4.39389
-33.3554
-60.8106
-86.6872
-110.951
-133.592
-154.636
-174.128
-192.126
-208.698
-223.907
-237.816
-250.479
-261.931
-272.196
-281.279
-289.169
-295.837
-301.244
-305.339
-308.064
-309.331
-309.027
-307.125
-303.541
-298.243
-291.171
-282.297
-271.591
-259.047
-244.675
-228.484
-210.51
-190.821
-169.497
-146.634
-122.359
-96.7957
-70.0929
-42.4537
-14.1055
14.218
42.8725
71.9322
100.833
129.272
156.998
183.594
208.725
278.477
248.638
217.552
185.557
153.04
120.308
87.7746
55.7733
24.9516
-4.74123
-33.9328
-61.935
-88.5454
-113.645
-137.156
-159.044
-179.286
-197.894
-214.888
-230.293
-244.15
-256.498
-267.374
-276.818
-284.862
-291.532
-296.85
-300.826
-303.431
-304.688
-304.586
-303.098
-300.181
-295.802
-289.905
-282.44
-273.359
-262.601
-250.109
-235.836
-219.741
-201.788
-181.963
-160.242
-136.669
-111.297
-84.1901
-55.457
-25.2558
5.86259
38.3015
71.5503
105.344
139.335
173.169
206.516
238.998
270.224
299.844
327.493
352.827
375.532
395.309
411.906
425.118
434.75
440.673
442.784
441.025
435.442
425.998
412.868
396.213
376.245
353.222
327.445
299.246
268.988
237.047
203.811
169.675
135.028
100.255
65.7412
31.98
-1.11251
-33.212
-64.0325
-93.3503
-120.992
-146.83
-170.766
-192.731
-212.684
-230.609
-246.517
-260.435
-272.413
-282.512
-290.804
-297.362
-302.269
-305.594
-307.362
-307.643
-306.484
-303.888
-299.861
-294.399
-287.487
-279.104
-269.227
-257.83
-244.889
-230.382
-214.287
-196.591
-177.29
-156.384
-133.887
-109.827
-84.2475
-57.2126
-28.8126
0.823062
31.8876
63.5704
95.9822
128.843
161.843
194.637
226.851
258.085
287.919
315.931
341.699
364.817
384.905
401.62
414.663
423.793
428.833
429.599
426.144
418.501
406.696
390.924
371.417
348.466
322.419
293.674
262.663
229.848
195.707
160.718
125.348
90.037
55.1931
21.1628
-11.747
-43.2798
-73.2328
-101.454
-127.836
-152.309
-174.84
-195.426
-214.085
-230.852
-245.775
-258.912
-270.323
-280.071
-288.218
-294.823
-299.945
-303.644
-305.948
-306.883
-306.502
-304.812
-301.813
-297.497
-291.849
-284.851
-276.474
-266.682
-255.434
-242.687
-228.395
-212.52
-195.032
-175.917
-155.176
-132.828
-108.904
-83.4577
-56.5565
-28.2961
1.19541
31.7509
63.1754
95.1898
127.515
159.828
191.777
222.977
253.026
281.509
308.004
332.099
353.395
371.52
386.139
396.967
403.776
406.386
404.712
398.808
388.697
374.529
356.545
335.046
310.398
283.017
253.353
221.879
189.079
155.431
121.394
87.3977
53.8315
21.0301
-10.7152
-41.1629
-70.1213
-97.444
-123.026
-146.801
-168.739
-188.842
-207.134
-223.657
-238.469
-251.635
-263.221
-273.289
-281.9
-289.097
-294.919
-299.404
-302.583
-304.468
-305.067
-304.42
-302.524
-299.365
-294.936
-289.223
-282.206
-273.865
-264.186
-253.151
-240.737
-226.924
-211.69
-195.013
-176.863
-157.224
-136.104
-113.515
-89.4796
-64.0563
-37.3316
-9.41209
19.5774
49.484
80.1679
111.482
142.798
173.875
204.389
233.954
262.16
288.593
312.832
334.452
353.071
368.35
379.989
387.731
391.386
390.809
385.702
376.37
362.959
345.713
324.968
301.12
274.587
245.838
215.351
183.591
151.042
118.127
85.1951
52.5631
25.7012
-4.62518
-33.589
-61.0441
-86.9182
-111.176
-133.81
-154.844
-174.326
-192.312
-208.873
-224.072
-237.974
-250.63
-262.078
-272.341
-281.424
-289.316
-295.988
-301.4
-305.501
-308.233
-309.506
-309.217
-307.32
-303.743
-298.452
-291.385
-282.517
-271.815
-259.274
-244.903
-228.712
-210.735
-191.041
-169.71
-146.838
-122.551
-96.9751
-70.2571
-42.5987
-14.2267
14.1147
42.7997
71.8927
100.828
129.303
157.068
183.703
208.871
278.668
248.76
217.606
185.546
152.969
120.183
87.6035
55.5627
24.7241
-5.0024
-34.2114
-62.2263
-88.844
-113.946
-137.456
-159.338
-179.574
-198.173
-215.158
-230.553
-244.4
-256.739
-267.608
-277.044
-285.082
-291.748
-297.062
-301.035
-303.642
-304.907
-304.807
-303.323
-300.413
-296.042
-290.156
-282.701
-273.631
-262.885
-250.404
-236.142
-220.057
-202.112
-182.293
-160.575
-137
-111.625
-84.5085
-55.7636
-25.5487
5.62224
38.0885
71.3743
105.213
139.256
173.147
206.555
239.1
270.392
300.078
327.792
353.187
375.949
395.778
412.419
425.667
435.326
441.267
443.398
441.622
436.02
426.555
413.39
396.69
376.668
353.586
327.744
299.478
269.152
237.143
203.843
169.643
134.938
100.107
65.5407
31.7732
-1.35984
-33.4928
-64.3375
-93.6728
-121.327
-147.173
-171.112
-193.077
-213.027
-230.945
-246.844
-260.751
-272.715
-282.801
-291.079
-297.625
-302.52
-305.832
-307.593
-307.873
-306.71
-304.114
-300.089
-294.63
-287.722
-279.344
-269.474
-258.084
-245.15
-230.649
-214.56
-196.87
-177.573
-156.67
-134.174
-110.113
-84.5292
-57.4861
-29.0727
0.57569
31.6645
63.374
95.8252
128.732
161.785
194.64
226.92
258.224
288.133
316.22
342.062
365.251
385.405
402.178
415.267
424.431
429.487
430.274
426.805
419.135
407.294
391.473
371.906
348.886
322.763
293.937
262.843
229.946
195.725
160.662
125.225
89.8542
54.9622
20.8911
-12.0498
-43.6047
-73.5721
-101.801
-128.185
-152.655
-175.179
-195.756
-214.403
-231.158
-246.068
-259.192
-270.59
-280.327
-288.462
-295.057
-300.171
-303.862
-306.157
-307.091
-306.708
-305.018
-302.02
-297.707
-292.064
-285.071
-276.701
-266.917
-255.679
-242.941
-228.659
-212.792
-195.311
-176.201
-155.462
-133.114
-109.189
-83.7373
-56.8275
-28.5535
0.957604
31.5395
62.9994
95.0544
127.428
159.797
191.808
223.077
253.198
281.755
308.325
332.494
353.86
372.047
386.721
397.591
404.428
407.059
405.38
399.459
389.314
375.1
357.055
335.486
310.76
283.297
253.549
221.992
189.112
155.391
121.288
87.234
53.6197
20.7791
-10.9963
-41.4664
-70.44
-97.7711
-123.355
-147.129
-169.06
-189.153
-207.433
-223.942
-238.741
-251.894
-263.467
-273.524
-282.125
-289.314
-295.131
-299.611
-302.785
-304.664
-305.266
-304.618
-302.721
-299.565
-295.139
-289.43
-282.417
-274.08
-264.406
-253.375
-240.967
-227.161
-211.934
-195.264
-177.12
-157.486
-136.369
-113.78
-89.7431
-64.3142
-37.5796
-9.64615
19.3625
49.2916
80.0057
111.366
142.727
173.859
204.435
234.067
262.344
288.852
313.167
334.859
353.547
368.888
380.579
388.36
392.039
391.484
386.352
376.988
363.529
346.224
325.405
301.476
274.859
246.025
215.456
183.619
151.003
118.032
85.0584
52.3908
25.4102
-4.93454
-33.9007
-61.3557
-87.2263
-111.477
-134.101
-155.122
-174.589
-192.56
-209.107
-224.293
-238.183
-250.831
-262.274
-272.534
-281.618
-289.512
-296.189
-301.608
-305.717
-308.456
-309.743
-309.468
-307.579
-304.012
-298.729
-291.671
-282.811
-272.115
-259.577
-245.207
-229.015
-211.035
-191.334
-169.994
-147.11
-122.808
-97.2144
-70.4762
-42.7926
-14.3893
13.9776
42.7025
71.8398
100.821
129.345
157.161
183.848
209.066
278.907
248.912
217.673
185.532
152.88
120.026
87.3884
55.2986
24.4392
-5.32911
-34.56
-62.5909
-89.2176
-114.323
-137.831
-159.707
-179.934
-198.522
-215.495
-230.879
-244.713
-257.04
-267.899
-277.326
-285.357
-292.017
-297.327
-301.297
-303.908
-305.179
-305.082
-303.604
-300.703
-296.343
-290.469
-283.027
-273.971
-263.239
-250.772
-236.525
-220.452
-202.517
-182.705
-160.991
-137.415
-112.034
-84.9067
-56.1467
-25.9148
5.32047
37.821
71.1535
105.05
139.157
173.119
206.602
239.228
270.602
300.37
328.164
353.636
376.47
396.364
413.06
426.354
436.048
442.011
444.156
442.374
436.746
427.252
414.042
397.286
377.198
354.04
328.117
299.767
269.357
237.264
203.882
169.604
134.825
99.9218
65.2887
31.5149
-1.66992
-33.8446
-64.7195
-94.0765
-121.746
-147.601
-171.545
-193.51
-213.455
-231.365
-247.253
-261.145
-273.094
-283.162
-291.423
-297.953
-302.833
-306.13
-307.884
-308.159
-306.993
-304.396
-300.372
-294.917
-288.015
-279.645
-269.783
-258.401
-245.475
-230.982
-214.902
-197.218
-177.926
-157.027
-134.533
-110.47
-84.8818
-57.8286
-29.3981
0.289551
31.3619
63.1274
95.6285
128.593
161.712
194.642
227.005
258.398
288.4
316.581
342.517
365.795
386.031
402.875
416.023
425.23
430.308
431.112
427.634
419.929
408.043
392.16
372.518
349.411
323.193
294.266
263.068
230.068
195.747
160.592
125.07
89.6249
54.6728
20.5508
-12.429
-44.0116
-73.9968
-102.235
-128.621
-153.087
-175.603
-196.168
-214.801
-231.54
-246.435
-259.543
-270.925
-280.647
-288.768
-295.351
-300.453
-304.133
-306.42
-307.351
-306.966
-305.275
-302.28
-297.971
-292.333
-285.346
-276.984
-267.211
-255.985
-243.259
-228.988
-213.132
-195.659
-176.556
-155.82
-133.472
-109.545
-84.0874
-57.1668
-28.8758
0.659863
31.275
62.7779
94.8845
127.319
159.758
191.847
223.201
253.412
282.062
308.726
332.987
354.44
372.707
387.448
398.372
405.245
407.896
406.22
400.275
390.087
375.814
357.694
336.036
311.213
283.646
253.793
222.132
189.153
155.34
121.155
87.0285
53.3541
20.4646
-11.3486
-41.8465
-70.8389
-98.1806
-123.768
-147.538
-169.461
-189.542
-207.807
-224.3
-239.081
-252.217
-263.774
-273.817
-282.407
-289.586
-295.395
-299.869
-303.036
-304.912
-305.513
-304.864
-302.968
-299.814
-295.393
-289.689
-282.679
-274.348
-264.68
-253.656
-241.255
-227.457
-212.239
-195.577
-177.442
-157.815
-136.701
-114.113
-90.0728
-64.6371
-37.8901
-9.93942
19.0932
49.0507
79.8024
111.221
142.639
173.839
204.49
234.207
262.573
289.175
313.584
335.368
354.143
369.561
381.317
389.148
392.858
392.316
387.173
377.763
364.244
346.862
325.952
301.921
275.198
246.259
215.586
183.653
150.953
117.911
84.8871
52.184
25.0364
-5.32262
-34.2905
-61.7455
-87.6118
-111.854
-134.464
-155.469
-174.918
-192.87
-209.399
-224.569
-238.445
-251.083
-262.518
-272.775
-281.859
-289.757
-296.441
-301.869
-305.986
-308.734
-310.036
-309.78
-307.904
-304.349
-299.077
-292.028
-283.177
-272.489
-259.955
-245.588
-229.395
-211.41
-191.701
-170.349
-147.45
-123.13
-97.5137
-70.7505
-43.0356
-14.5942
13.8071
42.581
71.7735
100.812
129.397
157.277
184.03
209.31
279.194
249.095
217.753
185.514
152.772
119.837
87.1285
54.9808
24.0968
-5.72153
-34.9788
-63.0289
-89.6666
-114.776
-138.281
-160.15
-180.366
-198.941
-215.9
-231.269
-245.089
-257.402
-268.248
-277.664
-285.686
-292.34
-297.645
-301.611
-304.226
-305.503
-305.411
-303.942
-301.051
-296.704
-290.844
-283.419
-274.38
-263.665
-251.215
-236.984
-220.925
-203.003
-183.2
-161.49
-137.914
-112.526
-85.3849
-56.6063
-26.3537
4.95608
37.4981
70.8876
104.852
139.037
173.084
206.659
239.381
270.853
300.72
328.611
354.176
377.095
397.067
413.831
427.179
436.914
442.904
445.061
443.279
437.62
428.089
414.826
398.002
377.834
354.586
328.565
300.114
269.602
237.408
203.928
169.556
134.688
99.698
64.9844
31.2049
-2.04318
-34.2679
-65.1791
-94.5618
-122.25
-148.117
-172.066
-194.03
-213.97
-231.87
-247.744
-261.619
-273.548
-283.596
-291.836
-298.346
-303.208
-306.488
-308.233
-308.502
-307.332
-304.734
-300.713
-295.263
-288.368
-280.006
-270.153
-258.782
-245.866
-231.383
-215.311
-197.636
-178.351
-157.456
-134.964
-110.9
-85.3056
-58.2405
-29.7895
-0.0614694
31.0042
62.8306
95.3916
128.425
161.624
194.644
227.107
258.607
288.72
317.015
343.063
366.449
386.783
403.713
416.932
426.19
431.297
432.116
428.629
420.884
408.943
392.987
373.253
350.041
323.709
294.661
263.338
230.213
195.773
160.506
124.883
89.3481
54.3242
20.1409
-12.8854
-44.501
-74.5077
-102.757
-129.145
-153.607
-176.113
-196.664
-215.28
-232
-246.876
-259.964
-271.327
-281.031
-289.135
-295.702
-300.792
-304.458
-306.737
-307.663
-307.274
-305.584
-302.591
-298.286
-292.655
-285.677
-277.325
-267.564
-256.351
-243.641
-229.385
-213.541
-196.078
-176.982
-156.25
-133.903
-109.973
-84.5081
-57.5746
-29.2634
0.301655
30.9568
62.5103
94.6796
127.187
159.71
191.893
223.348
253.668
282.43
309.208
333.58
355.137
373.499
388.322
399.31
406.227
408.9
407.23
401.254
391.017
376.672
358.461
336.696
311.756
284.065
254.086
222.3
189.202
155.278
120.993
86.7807
53.0338
20.086
-11.7726
-42.3037
-71.3186
-98.673
-124.264
-148.031
-169.943
-190.009
-208.256
-224.729
-239.49
-252.605
-264.142
-274.169
-282.745
-289.913
-295.713
-300.179
-303.338
-305.209
-305.809
-305.16
-303.265
-300.114
-295.698
-289.998
-282.995
-274.671
-265.01
-253.993
-241.601
-227.813
-212.605
-195.954
-177.828
-158.21
-137.1
-114.512
-90.4687
-65.025
-38.2634
-10.2922
18.7691
48.7611
79.5577
111.045
142.532
173.813
204.557
234.374
262.848
289.562
314.085
335.979
354.858
370.369
382.204
390.095
393.842
393.313
388.16
378.696
365.103
347.63
326.608
302.456
275.605
246.538
215.741
183.693
150.891
117.765
84.6807
51.9495
24.5721
-5.78988
-34.7587
-62.2137
-88.0748
-112.306
-134.901
-155.886
-175.312
-193.242
-209.749
-224.9
-238.759
-251.384
-262.811
-273.064
-282.149
-290.051
-296.743
-302.181
-306.31
-309.069
-310.386
-310.153
-308.293
-304.752
-299.494
-292.457
-283.617
-272.938
-260.41
-246.045
-229.851
-211.861
-192.142
-170.776
-147.858
-123.516
-97.8733
-71.08
-43.3283
-14.842
13.6033
42.4353
71.6935
100.8
129.458
157.416
184.247
209.602
279.528
249.307
217.845
185.493
152.645
119.614
86.8227
54.6088
23.6964
-6.17983
-35.4683
-63.5407
-90.1913
-115.305
-138.807
-160.667
-180.871
-199.431
-216.372
-231.724
-245.527
-257.824
-268.656
-278.059
-286.071
-292.717
-298.017
-301.979
-304.598
-305.881
-305.795
-304.335
-301.456
-297.125
-291.282
-283.875
-274.856
-264.162
-251.731
-237.52
-221.478
-203.572
-183.778
-162.073
-138.496
-113.1
-85.9433
-57.1421
-26.8639
4.52696
37.119
70.5758
104.621
138.896
173.043
206.724
239.559
271.146
301.128
329.133
354.805
377.826
397.889
414.73
428.143
437.926
443.948
446.119
444.334
438.643
429.067
415.742
398.838
378.576
355.222
329.088
300.519
269.888
237.575
203.98
169.499
134.528
99.4357
64.6261
30.8438
-2.48032
-34.7634
-65.7167
-95.1294
-122.839
-148.719
-172.674
-194.638
-214.571
-232.46
-248.317
-262.172
-274.079
-284.102
-292.318
-298.805
-303.646
-306.907
-308.64
-308.902
-307.726
-305.128
-301.11
-295.666
-288.779
-280.428
-270.586
-259.226
-246.323
-231.851
-215.79
-198.125
-178.847
-157.958
-135.468
-111.402
-85.8009
-58.7221
-30.2479
-0.479359
30.5922
62.4834
95.1137
128.228
161.52
194.646
227.224
258.849
289.093
317.521
343.7
367.211
387.661
404.692
417.993
427.312
432.455
433.289
429.79
422
409.995
393.952
374.112
350.778
324.312
295.121
263.652
230.382
195.803
160.404
124.662
89.0231
53.9157
19.6608
-13.4196
-45.0737
-75.1052
-103.368
-129.758
-154.214
-176.708
-197.242
-215.839
-232.537
-247.39
-260.455
-271.797
-281.479
-289.563
-296.113
-301.186
-304.838
-307.106
-308.026
-307.634
-305.944
-302.954
-298.654
-293.031
-286.062
-277.723
-267.976
-256.78
-244.086
-229.847
-214.018
-196.568
-177.481
-156.753
-134.407
-110.473
-84.9996
-58.0515
-29.7169
-0.117631
30.584
62.1961
94.4388
127.031
159.652
191.945
223.52
253.966
282.86
309.77
334.271
355.951
374.425
389.344
400.407
407.375
410.074
408.407
402.399
392.103
377.674
359.357
337.468
312.39
284.554
254.426
222.494
189.257
155.204
120.803
86.4898
52.6584
19.6425
-12.2689
-42.8387
-71.8796
-99.2487
-124.844
-148.606
-170.507
-190.555
-208.781
-225.23
-239.966
-253.057
-264.572
-274.58
-283.139
-290.294
-296.084
-300.54
-303.692
-305.557
-306.155
-305.505
-303.61
-300.464
-296.054
-290.36
-283.364
-275.047
-265.394
-254.386
-242.004
-228.228
-213.033
-196.393
-178.279
-158.671
-137.566
-114.979
-90.9311
-65.4784
-38.6998
-10.7048
18.3892
48.4227
79.271
110.837
142.407
173.782
204.633
234.568
263.168
290.012
314.669
336.691
355.693
371.313
383.239
391.201
394.992
394.479
389.31
379.786
366.108
348.525
327.373
303.08
276.079
246.863
215.921
183.738
150.817
117.592
84.438
51.6971
24.0063
-6.33637
-35.3052
-62.7604
-88.6157
-112.834
-135.41
-156.372
-175.773
-193.677
-210.158
-225.285
-239.126
-251.736
-263.153
-273.401
-282.486
-290.393
-297.095
-302.545
-306.688
-309.461
-310.793
-310.588
-308.747
-305.224
-299.981
-292.958
-284.13
-273.462
-260.941
-246.579
-230.383
-212.387
-192.657
-171.275
-148.335
-123.967
-98.2931
-71.4648
-43.6711
-15.1337
13.3662
42.2651
71.5995
100.786
129.53
157.578
184.5
209.943
279.909
249.549
217.95
185.467
152.499
119.358
86.4699
54.1821
23.2377
-6.70428
-36.0286
-64.1267
-90.7921
-115.91
-139.408
-161.258
-181.448
-199.99
-216.912
-232.244
-246.028
-258.306
-269.121
-278.51
-286.51
-293.147
-298.441
-302.4
-305.022
-306.311
-306.234
-304.784
-301.92
-297.605
-291.782
-284.397
-275.401
-264.73
-252.322
-238.133
-222.111
-204.221
-184.439
-162.741
-139.163
-113.757
-86.5823
-57.7543
-27.443
4.02947
36.6826
70.2178
104.355
138.734
172.995
206.798
239.761
271.48
301.594
329.729
355.525
378.661
398.828
415.76
429.245
439.084
445.142
447.328
445.538
439.815
430.186
416.789
399.795
379.424
355.949
329.686
300.981
270.213
237.765
204.038
169.433
134.344
99.135
64.2118
30.4324
-2.98227
-35.3317
-66.3327
-95.7796
-123.514
-149.409
-173.371
-195.334
-215.259
-233.136
-248.973
-262.805
-274.686
-284.681
-292.868
-299.329
-304.146
-307.386
-309.106
-309.358
-308.177
-305.579
-301.564
-296.126
-289.25
-280.91
-271.081
-259.735
-246.845
-232.386
-216.337
-198.683
-179.415
-158.531
-136.045
-111.977
-86.3682
-59.274
-30.7741
-0.964279
30.125
62.0856
94.7943
128
161.399
194.645
227.357
259.124
289.518
318.099
344.428
368.083
388.665
405.812
419.208
428.597
433.781
434.632
431.117
423.279
411.199
395.056
375.094
351.62
325.001
295.647
264.01
230.574
195.834
160.286
124.408
88.6491
53.4463
19.1094
-14.0326
-45.7304
-75.79
-104.067
-130.46
-154.91
-177.39
-197.904
-216.478
-233.151
-247.978
-261.017
-272.333
-281.991
-290.053
-296.582
-301.637
-305.274
-307.529
-308.441
-308.046
-306.356
-303.368
-299.076
-293.461
-286.503
-278.177
-268.447
-257.27
-244.596
-230.376
-214.564
-197.128
-178.051
-157.329
-134.983
-111.045
-85.5624
-58.598
-30.2367
-0.598546
30.156
61.8346
94.1615
126.851
159.585
192.002
223.714
254.306
283.349
310.412
335.062
356.883
375.484
390.513
401.662
408.69
411.42
409.755
403.711
393.347
378.822
360.382
338.35
313.115
285.112
254.814
222.715
189.318
155.117
120.582
86.1548
52.2269
19.1332
-12.8381
-43.4522
-72.5225
-99.9082
-125.509
-149.265
-171.152
-191.18
-209.381
-225.803
-240.511
-253.574
-265.064
-275.05
-283.589
-290.729
-296.507
-300.953
-304.096
-305.955
-306.549
-305.898
-304.006
-300.865
-296.46
-290.774
-283.786
-275.478
-265.834
-254.835
-242.464
-228.703
-213.522
-196.896
-178.796
-159.199
-138.1
-115.513
-91.4604
-65.9974
-39.1996
-11.1775
17.9531
48.0348
78.9416
110.596
142.262
173.745
204.718
234.787
263.531
290.526
315.335
337.505
356.647
372.392
384.424
392.467
396.309
395.814
390.625
381.034
367.258
349.548
328.251
303.794
276.621
247.233
216.124
183.786
150.729
117.389
84.1567
51.4234
23.3409
-6.96125
-35.9302
-63.3861
-89.2346
-113.438
-135.993
-156.928
-176.3
-194.173
-210.624
-225.725
-239.544
-252.137
-263.543
-273.786
-282.871
-290.784
-297.496
-302.96
-307.12
-309.91
-311.259
-311.084
-309.266
-305.762
-300.537
-293.53
-284.717
-274.062
-261.548
-247.19
-230.993
-212.989
-193.246
-171.845
-148.882
-124.483
-98.7737
-71.9053
-44.0645
-15.47
13.0955
42.0705
71.4914
100.769
129.61
157.762
184.789
210.332
280.338
249.821
218.067
185.436
152.332
119.067
86.0697
53.6991
22.7205
-7.29516
-36.6604
-64.7874
-91.4694
-116.592
-140.086
-161.924
-182.098
-200.62
-217.519
-232.83
-246.591
-258.849
-269.645
-279.017
-287.004
-293.631
-298.918
-302.875
-305.499
-306.794
-306.726
-305.289
-302.441
-298.146
-292.344
-284.983
-276.013
-265.368
-252.987
-238.822
-222.823
-204.953
-185.184
-163.493
-139.913
-114.498
-87.3024
-58.4428
-28.09
3.46176
36.1879
69.8125
104.054
138.55
172.938
206.879
239.987
271.855
302.118
330.399
356.336
379.601
399.886
416.92
430.486
440.388
446.487
448.691
446.895
441.135
431.447
417.969
400.872
380.38
356.768
330.358
301.501
270.578
237.977
204.102
169.358
134.135
98.796
63.7389
29.9716
-3.55021
-35.9738
-67.0279
-96.5133
-124.275
-150.186
-174.155
-196.118
-216.035
-233.897
-249.713
-263.519
-275.369
-285.333
-293.488
-299.919
-304.708
-307.925
-309.63
-309.871
-308.684
-306.085
-302.075
-296.645
-289.779
-281.452
-271.638
-260.307
-247.433
-232.988
-216.954
-199.312
-180.054
-159.178
-136.695
-112.625
-87.0078
-59.8967
-31.3689
-1.51641
29.6015
61.6365
94.4328
127.742
161.26
194.642
227.504
259.433
289.996
318.748
345.247
369.065
389.797
407.074
420.578
430.045
435.277
436.145
432.613
424.72
412.556
396.3
376.201
352.569
325.776
296.238
264.412
230.788
195.867
160.15
124.119
88.2246
52.9154
18.4858
-14.7251
-46.4721
-76.5628
-104.856
-131.252
-155.694
-178.158
-198.65
-217.198
-233.843
-248.64
-261.649
-272.937
-282.568
-290.604
-297.11
-302.144
-305.763
-308.005
-308.907
-308.508
-306.818
-303.835
-299.549
-293.945
-287
-278.688
-268.977
-257.821
-245.17
-230.972
-215.18
-197.76
-178.693
-157.977
-135.633
-111.69
-86.1973
-59.2146
-30.8235
-1.14187
29.6722
61.4253
93.8467
126.647
159.506
192.065
223.931
254.687
283.9
311.133
335.951
357.931
376.677
391.83
403.078
410.173
412.938
411.273
405.189
394.749
380.115
361.537
339.344
313.931
285.739
255.25
222.962
189.385
155.016
120.332
85.7749
51.7382
18.5572
-13.4812
-44.1447
-73.2483