/*--------------------------------*- C++ -*----------------------------------*\
| =========                 |                                                 |
| \\      /  F ield         | OpenFOAM: The Open Source CFD Toolbox           |
|  \\    /   O peration     | Version:  3.0.1                                 |
|   \\  /    A nd           | Web:      www.OpenFOAM.org                      |
|    \\/     M anipulation  |                                                 |
\*---------------------------------------------------------------------------*/
FoamFile
{
    version     2.0;
    format      ascii;
    class       volScalarField;
    location    "90.6";
    object      p_rgh;
}
// * * * * * * * * * * * * * * * * * * * * * * * * * * * * * * * * * * * * * //

dimensions      [1 -1 -2 0 0 0 0];

internalField   nonuniform List<scalar> 
21420
(
403.904
388.839
370.233
348.298
323.31
295.598
265.543
233.529
199.949
165.233
129.791
94.0608
58.6299
29.8773
-4.03078
-37.1528
-68.9797
-99.2709
-127.87
-154.652
-179.553
-202.535
-223.581
-242.703
-259.932
-275.305
-288.873
-300.685
-310.795
-319.255
-326.11
-331.404
-335.172
-337.432
-338.163
-337.393
-335.168
-331.397
-326.079
-319.199
-310.714
-300.593
-288.783
-275.242
-259.943
-242.843
-223.908
-203.143
-180.552
-156.14
-129.969
-102.137
-72.7491
-41.9628
-9.97513
23.0131
56.4847
90.4763
124.642
158.56
191.858
224.141
255.028
284.157
311.174
335.735
357.534
376.283
391.726
403.648
411.869
416.247
416.651
413.144
405.642
394.214
379.043
360.332
338.339
313.346
285.681
255.724
223.87
190.523
156.1
121.038
85.7415
50.6003
16.0665
-17.7316
-50.4197
-81.733
-111.45
-139.39
-165.411
-189.411
-211.329
-231.135
-248.835
-264.461
-278.067
-289.727
-299.52
-307.534
-313.852
-318.552
-321.714
-323.387
-323.604
-322.405
-319.847
-315.922
-310.636
-303.98
-295.946
-286.519
-275.678
-263.404
-249.674
-234.468
-217.767
-199.557
-179.83
-158.583
-135.823
-111.578
-85.8858
-58.8073
-30.4398
-0.907078
29.6316
61.1084
93.051
125.313
157.578
189.507
220.735
250.88
279.545
306.334
330.855
352.736
371.624
387.207
399.213
407.42
411.675
411.791
407.882
399.913
387.955
372.2
352.879
330.278
304.74
276.651
246.433
214.527
181.388
147.469
113.209
79.0278
45.3155
12.3968
-19.4261
-49.905
-78.8431
-106.093
-131.549
-155.148
-176.856
-196.669
-214.603
-230.69
-244.975
-257.514
-268.365
-277.589
-285.249
-291.407
-296.131
-299.476
-301.505
-302.281
-301.833
-300.176
-297.388
-293.457
-288.386
-282.172
-274.793
-266.225
-256.438
-245.387
-233.023
-219.296
-204.149
-187.529
-169.399
-149.726
-128.503
-105.746
-81.4907
-55.8079
-28.7885
-0.549678
28.7572
58.9634
89.9586
121.247
152.617
183.731
214.218
243.691
271.755
298.022
322.111
343.654
362.307
377.754
389.714
397.952
402.295
402.562
398.846
391.095
379.416
364.01
345.134
323.099
298.262
271.013
241.77
210.967
179.042
146.433
113.564
80.8373
48.6188
17.2245
-13.0739
-42.0598
-69.566
-95.4736
-119.705
-142.217
-162.991
-182.026
-199.344
-214.97
-228.934
-241.278
-252.046
-261.287
-269.058
-275.421
-280.444
-284.205
-286.773
-288.203
-288.543
-287.824
-286.024
-283.12
-279.144
-274.043
-267.804
-260.426
-251.909
-242.239
-231.395
-219.348
-206.071
-191.521
-175.659
-158.435
-139.788
-119.686
-98.1268
-75.1208
-50.7116
-24.9552
2.03675
30.1374
59.1931
88.9705
119.229
149.692
180.008
209.839
238.787
266.417
292.318
316.059
337.21
355.407
370.309
381.622
389.142
392.72
392.194
387.638
379.1
366.761
350.868
331.717
309.67
285.094
258.415
230.049
200.428
170.004
139.189
108.366
77.9132
48.1084
19.4821
-7.58483
-33.9256
-59.1448
-83.1161
-105.782
-127.136
-147.198
-165.994
-183.559
-199.914
-215.081
-229.07
-241.876
-253.486
-263.883
-273.033
-280.901
-287.45
-292.636
-296.422
-298.768
-299.613
-298.793
-296.389
-292.349
-286.625
-279.225
-270.112
-259.296
-246.796
-232.624
-216.801
-199.38
-180.417
-159.987
-138.201
-115.195
-91.1622
-66.5579
-42.4974
404.054
388.977
370.357
348.407
323.401
295.672
265.597
233.565
199.968
165.235
129.777
94.0284
58.5681
29.8389
-4.09617
-37.229
-69.0619
-99.3566
-127.958
-154.74
-179.64
-202.621
-223.665
-242.784
-260.01
-275.38
-288.945
-300.755
-310.862
-319.319
-326.173
-331.464
-335.231
-337.491
-338.22
-337.454
-335.228
-331.458
-326.141
-319.262
-310.779
-300.661
-288.853
-275.314
-260.018
-242.921
-223.987
-203.224
-180.633
-156.221
-130.049
-102.215
-72.823
-42.0315
-10.0371
22.9586
56.4444
90.4468
124.625
158.558
191.871
224.171
255.074
284.219
311.253
335.829
357.642
376.404
391.858
403.79
412.018
416.401
416.813
413.291
405.788
394.353
379.172
360.448
338.439
313.43
285.748
255.771
223.9
190.534
156.093
121.014
85.7025
50.5471
16.0023
-17.807
-50.5042
-81.8248
-111.547
-139.491
-165.514
-189.515
-211.432
-231.236
-248.934
-264.556
-278.158
-289.814
-299.603
-307.613
-313.928
-318.625
-321.784
-323.455
-323.667
-322.47
-319.912
-315.986
-310.7
-304.045
-296.012
-286.586
-275.747
-263.474
-249.745
-234.54
-217.841
-199.632
-179.907
-158.66
-135.901
-111.656
-85.9622
-58.882
-30.5111
-0.973148
29.5739
61.0524
93.0074
125.281
157.559
189.503
220.747
250.908
279.591
306.397
330.936
352.834
371.737
387.334
399.35
407.566
411.825
411.947
408.029
400.056
388.09
372.323
352.987
330.369
304.812
276.704
246.465
214.54
181.382
147.445
113.169
78.9727
45.2488
12.32
-19.5108
-49.9953
-78.9371
-106.189
-131.646
-155.244
-176.951
-196.761
-214.692
-230.776
-245.059
-257.594
-268.442
-277.663
-285.32
-291.476
-296.196
-299.539
-301.566
-302.34
-301.889
-300.232
-297.444
-293.512
-288.442
-282.228
-274.851
-266.284
-256.499
-245.45
-233.09
-219.365
-204.22
-187.604
-169.475
-149.804
-128.582
-105.824
-81.5677
-55.8824
-28.8594
-0.616236
28.6964
58.9082
89.9162
121.215
152.597
183.726
214.228
243.718
271.8
298.084
322.19
343.75
362.417
377.878
389.849
398.096
402.444
402.72
398.991
391.237
379.549
364.131
345.239
323.187
298.331
271.063
241.801
210.978
179.036
146.41
113.526
80.7852
48.5554
17.1519
-13.1535
-42.1443
-69.6535
-95.5626
-119.794
-142.305
-163.078
-182.111
-199.427
-215.05
-229.012
-241.354
-252.119
-261.357
-269.125
-275.485
-280.505
-284.262
-286.828
-288.256
-288.595
-287.875
-286.074
-283.173
-279.197
-274.096
-267.857
-260.479
-251.962
-242.293
-231.45
-219.404
-206.129
-191.582
-175.723
-158.501
-139.856
-119.756
-98.1981
-75.1926
-50.7826
-25.0245
1.97043
30.0757
59.1371
88.9228
119.192
149.667
179.998
209.846
238.812
266.461
292.382
316.143
337.313
355.527
370.444
381.768
389.294
392.876
392.358
387.785
379.243
366.894
350.987
331.82
309.755
285.161
258.462
230.077
200.439
169.998
139.167
108.331
77.8669
48.0532
19.4267
-7.64655
-33.9897
-59.2096
-83.1804
-105.845
-127.197
-147.257
-166.05
-183.612
-199.966
-215.132
-229.12
-241.926
-253.537
-263.934
-273.085
-280.954
-287.504
-292.692
-296.479
-298.827
-299.673
-298.856
-296.453
-292.414
-286.692
-279.293
-270.18
-259.366
-246.866
-232.693
-216.87
-199.448
-180.484
-160.052
-138.264
-115.255
-91.2189
-66.6101
-42.5427
404.355
389.254
370.606
348.624
323.583
295.818
265.707
233.638
200.006
165.239
129.749
93.9641
58.4457
29.7607
-4.22753
-37.3815
-69.2263
-99.5279
-128.133
-154.916
-179.815
-202.793
-223.833
-242.947
-260.167
-275.531
-289.09
-300.894
-310.996
-319.448
-326.298
-331.586
-335.35
-337.608
-338.335
-337.575
-335.347
-331.579
-326.264
-319.389
-310.909
-300.796
-288.993
-275.459
-260.168
-243.075
-224.145
-203.385
-180.795
-156.383
-130.209
-102.37
-72.9703
-42.1685
-10.1604
22.8503
56.3639
90.3885
124.593
158.555
191.899
224.231
255.167
284.345
311.411
336.018
357.86
376.648
392.124
404.076
412.318
416.709
417.137
413.59
406.083
394.636
379.436
360.686
338.647
313.605
285.888
255.876
223.968
190.567
156.092
120.981
85.6399
50.4573
15.891
-17.9397
-50.6545
-81.989
-111.722
-139.673
-165.7
-189.701
-211.616
-231.417
-249.109
-264.724
-278.319
-289.966
-299.747
-307.749
-314.057
-318.749
-321.902
-323.569
-323.775
-322.58
-320.02
-316.095
-310.809
-304.155
-296.125
-286.701
-275.864
-263.594
-249.868
-234.667
-217.971
-199.765
-180.042
-158.797
-136.04
-111.794
-86.0976
-59.014
-30.6366
-1.08827
29.4744
60.9581
92.9367
125.233
157.538
189.51
220.786
250.981
279.699
306.541
331.114
353.045
371.98
387.603
399.641
407.873
412.139
412.278
408.341
400.359
388.377
372.586
353.221
330.569
304.975
276.828
246.55
214.585
181.389
147.416
113.108
78.8837
45.1369
12.188
-19.6582
-50.1538
-79.1028
-106.358
-131.817
-155.413
-177.117
-196.923
-214.849
-230.927
-245.203
-257.733
-268.574
-277.789
-285.44
-291.591
-296.306
-299.644
-301.667
-302.438
-301.977
-300.323
-297.534
-293.602
-288.533
-282.321
-274.946
-266.383
-256.602
-245.558
-233.203
-219.484
-204.344
-187.734
-169.61
-149.942
-128.721
-105.963
-81.7051
-56.0152
-28.9853
-0.733642
28.5902
58.8128
89.847
121.165
152.573
183.731
214.264
243.787
271.903
298.222
322.362
343.954
362.653
378.141
390.135
398.399
402.757
403.048
399.299
391.537
379.831
364.387
345.465
323.378
298.485
271.179
241.879
211.019
179.04
146.381
113.466
80.6994
48.4471
17.0256
-13.2936
-42.2937
-69.8088
-95.7208
-119.953
-142.462
-163.231
-182.261
-199.572
-215.191
-229.147
-241.484
-252.245
-261.477
-269.239
-275.592
-280.606
-284.358
-286.918
-288.343
-288.681
-287.96
-286.155
-283.26
-279.286
-274.185
-267.947
-260.572
-252.056
-242.389
-231.548
-219.507
-206.236
-191.694
-175.841
-158.625
-139.985
-119.89
-98.3352
-75.3311
-50.9202
-25.1592
1.84135
29.9554
59.0279
88.8298
119.119
149.619
179.979
209.86
238.863
266.551
292.511
316.311
337.519
355.767
370.713
382.06
389.601
393.19
392.684
388.082
379.529
367.16
351.225
332.026
309.925
285.293
258.556
230.134
200.46
169.985
139.124
108.261
77.7742
47.9428
19.3156
-7.77004
-34.118
-59.3393
-83.3088
-105.97
-127.318
-147.373
-166.162
-183.72
-200.071
-215.234
-229.221
-242.026
-253.638
-264.036
-273.189
-281.06
-287.613
-292.804
-296.593
-298.945
-299.793
-298.982
-296.58
-292.545
-286.825
-279.428
-270.317
-259.504
-247.005
-232.831
-217.007
-199.584
-180.617
-160.182
-138.389
-115.375
-91.3322
-66.7146
-42.6332
404.805
389.669
370.979
348.949
323.857
296.038
265.871
233.748
200.062
165.245
129.706
93.8689
58.269
29.636
-4.4262
-37.6108
-69.4731
-99.7852
-128.396
-155.181
-180.078
-203.052
-224.085
-243.192
-260.403
-275.758
-289.308
-301.102
-311.196
-319.642
-326.485
-331.768
-335.527
-337.783
-338.509
-337.757
-335.527
-331.76
-326.45
-319.579
-311.105
-301
-289.203
-275.676
-260.392
-243.306
-224.381
-203.626
-181.038
-156.626
-130.449
-102.602
-73.1914
-42.3742
-10.3455
22.6878
56.2429
90.3008
124.544
158.549
191.94
224.321
255.306
284.534
311.648
336.302
358.186
377.014
392.524
404.504
412.767
417.172
417.618
414.044
406.527
395.061
379.831
361.044
338.959
313.869
286.101
256.034
224.073
190.618
156.092
120.933
85.5475
50.3246
15.7253
-18.1371
-50.8782
-82.2335
-111.982
-139.943
-165.976
-189.979
-211.892
-231.687
-249.37
-264.974
-278.557
-290.192
-299.961
-307.952
-314.249
-318.932
-322.077
-323.737
-323.937
-322.742
-320.181
-316.255
-310.97
-304.319
-296.291
-286.871
-276.039
-263.773
-250.052
-234.855
-218.163
-199.962
-180.242
-159
-136.245
-111.998
-86.2986
-59.2097
-30.8227
-1.25897
29.3258
60.8207
92.8333
125.165
157.508
189.525
220.848
251.094
279.864
306.759
331.385
353.366
372.346
388.01
400.082
408.338
412.615
412.773
408.814
400.818
388.811
372.985
353.575
330.872
305.223
277.017
246.679
214.656
181.403
147.377
113.021
78.7528
44.9717
11.9926
-19.8767
-50.3891
-79.3489
-106.61
-132.07
-155.665
-177.364
-197.164
-215.082
-231.152
-245.418
-257.938
-268.77
-277.976
-285.618
-291.761
-296.467
-299.798
-301.815
-302.58
-302.11
-300.458
-297.667
-293.735
-288.668
-282.458
-275.087
-266.53
-256.755
-245.719
-233.372
-219.661
-204.53
-187.928
-169.81
-150.147
-128.929
-106.171
-81.9093
-56.2125
-29.1725
-0.907873
28.4326
58.6716
89.7453
121.091
152.538
183.74
214.321
243.893
272.06
298.432
322.623
344.264
363.009
378.538
390.566
398.856
403.229
403.537
399.767
391.99
380.256
364.775
345.807
323.668
298.719
271.356
241.998
211.082
179.05
146.34
113.379
80.5729
48.287
16.8383
-13.5014
-42.5157
-70.0396
-95.9557
-120.188
-142.695
-163.459
-182.483
-199.788
-215.399
-229.348
-241.678
-252.431
-261.655
-269.408
-275.752
-280.757
-284.5
-287.052
-288.471
-288.807
-288.085
-286.278
-283.391
-279.418
-274.319
-268.083
-260.71
-252.196
-242.532
-231.696
-219.66
-206.396
-191.863
-176.019
-158.811
-140.179
-120.09
-98.5408
-75.5391
-51.1268
-25.3614
1.64744
29.7743
58.8642
88.69
119.01
149.546
179.95
209.881
238.939
266.684
292.705
316.564
337.828
356.127
371.117
382.497
390.061
393.66
393.167
388.533
379.96
367.56
351.583
332.334
310.18
285.492
258.698
230.219
200.491
169.966
139.058
108.156
77.6349
47.7773
19.1486
-7.95559
-34.3105
-59.534
-83.5017
-106.159
-127.499
-147.547
-166.329
-183.881
-200.227
-215.387
-229.372
-242.177
-253.789
-264.189
-273.344
-281.219
-287.776
-292.971
-296.764
-299.12
-299.972
-299.17
-296.772
-292.74
-287.025
-279.631
-270.523
-259.712
-247.213
-233.039
-217.214
-199.788
-180.817
-160.377
-138.578
-115.555
-91.5022
-66.8715
-42.7692
405.406
390.222
371.476
349.383
324.222
296.33
266.09
233.893
200.137
165.253
129.65
93.7442
58.0501
29.4523
-4.69404
-37.9175
-69.8028
-100.129
-128.746
-155.534
-180.429
-203.397
-224.422
-243.518
-260.717
-276.06
-289.598
-301.381
-311.464
-319.9
-326.735
-332.011
-335.764
-338.014
-338.743
-337.998
-335.765
-332.002
-326.697
-319.833
-311.366
-301.27
-289.483
-275.966
-260.691
-243.614
-224.697
-203.947
-181.363
-156.95
-130.769
-102.913
-73.4867
-42.6488
-10.5925
22.4709
56.0811
90.1834
124.479
158.542
191.995
224.44
255.492
284.785
311.965
336.68
358.622
377.502
393.057
405.074
413.367
417.788
418.252
414.657
407.121
395.628
380.358
361.521
339.375
314.22
286.384
256.245
224.212
190.686
156.092
120.869
85.4241
50.148
15.5035
-18.4009
-51.1768
-82.5599
-112.329
-140.304
-166.344
-190.349
-212.259
-232.046
-249.718
-265.308
-278.876
-290.494
-300.246
-308.221
-314.504
-319.175
-322.309
-323.959
-324.155
-322.959
-320.394
-316.469
-311.185
-304.536
-296.513
-287.098
-276.271
-264.011
-250.297
-235.106
-218.419
-200.224
-180.509
-159.271
-136.518
-112.27
-86.5669
-59.4706
-31.0706
-1.48725
29.1254
60.64
92.6957
125.073
157.47
189.544
220.931
251.244
280.084
307.051
331.747
353.794
372.836
388.554
400.67
408.958
413.252
413.426
409.453
401.433
389.391
373.517
354.048
331.278
305.555
277.27
246.853
214.75
181.421
147.325
112.904
78.5781
44.7514
11.7318
-20.1683
-50.703
-79.6774
-106.946
-132.408
-156.001
-177.694
-197.485
-215.393
-231.451
-245.705
-258.212
-269.032
-278.225
-285.856
-291.987
-296.683
-300.005
-302.013
-302.767
-302.291
-300.638
-297.844
-293.913
-288.847
-282.641
-275.275
-266.725
-256.959
-245.933
-233.596
-219.897
-204.777
-188.186
-170.078
-150.421
-129.207
-106.447
-82.1814
-56.4758
-29.4222
-1.14016
28.2227
58.4831
89.6095
120.993
152.492
183.752
214.395
244.034
272.27
298.711
322.971
344.678
363.485
379.068
391.142
399.467
403.86
404.184
400.399
392.597
380.825
365.293
346.263
324.054
299.031
271.592
242.158
211.167
179.063
146.285
113.264
80.4042
48.0732
16.5884
-13.7787
-42.8118
-70.3473
-96.2687
-120.502
-143.005
-163.762
-182.779
-200.075
-215.677
-229.616
-241.936
-252.679
-261.892
-269.634
-275.965
-280.958
-284.689
-287.231
-288.643
-288.975
-288.249
-286.445
-283.565
-279.594
-274.497
-268.264
-260.894
-252.383
-242.723
-231.892
-219.864
-206.61
-192.087
-176.256
-159.06
-140.437
-120.358
-98.8154
-75.8168
-51.4026
-25.6315
1.38844
29.5322
58.6456
88.5031
118.864
149.448
179.911
209.908
239.04
266.862
292.962
316.901
338.24
356.607
371.655
383.081
390.675
394.287
393.806
389.143
380.536
368.093
352.061
332.746
310.52
285.757
258.886
230.332
200.532
169.94
138.97
108.015
77.4486
47.5569
18.925
-8.20355
-34.5675
-59.7939
-83.759
-106.41
-127.742
-147.779
-166.552
-184.096
-200.435
-215.591
-229.573
-242.378
-253.991
-264.393
-273.552
-281.431
-287.993
-293.194
-296.992
-299.351
-300.213
-299.421
-297.027
-293.001
-287.292
-279.902
-270.797
-259.988
-247.491
-233.316
-217.489
-200.06
-181.084
-160.637
-138.829
-115.796
-91.7292
-67.081
-42.9506
406.158
390.915
372.098
349.926
324.679
296.696
266.363
234.075
200.229
165.262
129.58
93.5913
57.7989
29.199
-5.03288
-38.3023
-70.2156
-100.558
-129.185
-155.975
-180.867
-203.828
-224.843
-243.925
-261.11
-276.438
-289.96
-301.728
-311.798
-320.222
-327.047
-332.314
-336.06
-338.304
-339.036
-338.297
-336.064
-332.304
-327.005
-320.15
-311.693
-301.609
-289.833
-276.328
-261.066
-243.999
-225.093
-204.35
-181.769
-157.356
-131.17
-103.301
-73.8563
-42.9924
-10.9015
22.1997
55.8778
90.0357
124.396
158.532
192.063
224.589
255.723
285.1
312.36
337.152
359.167
378.112
393.724
405.789
414.116
418.56
419.036
415.431
407.867
396.337
381.018
362.117
339.896
314.66
286.737
256.508
224.386
190.771
156.092
120.789
85.2691
49.9272
15.2249
-18.7317
-51.5512
-82.9688
-112.764
-140.756
-166.806
-190.813
-212.718
-232.496
-250.153
-265.726
-279.274
-290.871
-300.602
-308.558
-314.824
-319.479
-322.599
-324.237
-324.43
-323.229
-320.661
-316.736
-311.453
-304.808
-296.791
-287.382
-276.562
-264.31
-250.603
-235.419
-218.74
-200.552
-180.843
-159.61
-136.859
-112.611
-86.9029
-59.7972
-31.3812
-1.77396
28.8719
60.4156
92.5233
124.959
157.42
189.567
221.034
251.431
280.36
307.415
332.199
354.33
373.449
389.234
401.405
409.734
414.051
414.237
410.257
402.203
390.117
374.183
354.641
331.785
305.969
277.587
247.069
214.868
181.444
147.259
112.757
78.3586
44.4749
11.4046
-20.534
-51.0964
-80.0889
-107.367
-132.832
-156.421
-178.107
-197.887
-215.782
-231.825
-246.064
-258.555
-269.359
-278.537
-286.153
-292.271
-296.954
-300.263
-302.259
-303.001
-302.519
-300.863
-298.066
-294.136
-289.072
-282.87
-275.51
-266.969
-257.214
-246.2
-233.878
-220.192
-205.087
-188.51
-170.412
-150.764
-129.554
-106.794
-82.5223
-56.8057
-29.7353
-1.43107
27.9602
58.2472
89.4377
120.869
152.434
183.766
214.488
244.21
272.532
299.06
323.406
345.196
364.08
379.732
391.864
400.232
404.65
404.987
401.193
393.357
381.538
365.941
346.834
324.538
299.422
271.887
242.357
211.272
179.078
146.216
113.118
80.1924
47.8049
16.2751
-14.1261
-43.1828
-70.7327
-96.6606
-120.894
-143.393
-164.143
-183.149
-200.434
-216.024
-229.952
-242.259
-252.989
-262.189
-269.916
-276.232
-281.209
-284.926
-287.454
-288.857
-289.184
-288.455
-286.655
-283.782
-279.814
-274.72
-268.49
-261.125
-252.617
-242.962
-232.138
-220.119
-206.877
-192.368
-176.552
-159.37
-140.761
-120.693
-99.159
-76.1643
-51.7479
-25.9695
1.06391
29.2289
58.3718
88.2687
118.68
149.325
179.861
209.942
239.166
267.085
293.284
317.322
338.756
357.208
372.329
383.811
391.444
395.073
394.597
389.913
381.258
368.76
352.658
333.261
310.945
286.088
259.121
230.474
200.583
169.906
138.859
107.838
77.2148
47.2815
18.6442
-8.51432
-34.8892
-60.1191
-84.081
-106.724
-128.044
-148.07
-166.83
-184.364
-200.695
-215.845
-229.825
-242.629
-254.243
-264.648
-273.812
-281.696
-288.264
-293.472
-297.277
-299.64
-300.511
-299.733
-297.345
-293.328
-287.625
-280.24
-271.14
-260.335
-247.839
-233.663
-217.833
-200.4
-181.418
-160.963
-139.144
-116.097
-92.0133
-67.3431
-43.1777
407.062
391.747
372.845
350.577
325.227
297.135
266.69
234.292
200.34
165.273
129.496
93.4112
57.5128
28.8774
-5.44434
-38.766
-70.7121
-101.075
-129.712
-156.506
-181.394
-204.347
-225.348
-244.415
-261.582
-276.891
-290.395
-302.146
-312.199
-320.608
-327.421
-332.678
-336.416
-338.653
-339.389
-338.654
-336.422
-332.666
-327.376
-320.53
-312.084
-302.014
-290.253
-276.762
-261.515
-244.461
-225.567
-204.833
-182.257
-157.844
-131.651
-103.768
-74.3006
-43.4056
-11.2727
21.8742
55.6323
89.8571
124.296
158.519
192.144
224.767
256.001
285.477
312.834
337.72
359.821
378.844
394.525
406.647
415.017
419.486
419.973
416.364
408.764
397.19
381.811
362.833
340.521
315.187
287.161
256.824
224.594
190.871
156.09
120.691
85.082
49.6615
14.8891
-19.1302
-52.0018
-83.4609
-113.287
-141.3
-167.361
-191.371
-213.271
-233.037
-250.677
-266.229
-279.752
-291.324
-301.031
-308.962
-315.207
-319.844
-322.948
-324.573
-324.758
-323.552
-320.982
-317.057
-311.776
-305.136
-297.124
-287.723
-276.912
-264.668
-250.97
-235.796
-219.126
-200.947
-181.245
-160.017
-137.27
-113.021
-87.3072
-60.1898
-31.7549
-2.11979
28.5649
60.1466
92.3156
124.82
157.36
189.595
221.156
251.655
280.689
307.852
332.741
354.973
374.185
390.052
402.289
410.667
415.012
415.209
411.222
403.129
390.989
374.983
355.352
332.394
306.466
277.966
247.328
215.008
181.47
147.178
112.579
78.0931
44.1422
11.0103
-20.9746
-51.5699
-80.584
-107.874
-133.341
-156.926
-178.603
-198.371
-216.249
-232.275
-246.495
-258.968
-269.752
-278.912
-286.511
-292.612
-297.279
-300.573
-302.555
-303.283
-302.794
-301.132
-298.333
-294.403
-289.342
-283.145
-275.793
-267.263
-257.521
-246.522
-234.215
-220.547
-205.46
-188.898
-170.815
-151.177
-129.971
-107.211
-82.9325
-57.2025
-30.1121
-1.78089
27.645
57.9736
89.219
120.718
152.362
183.782
214.599
244.42
272.846
299.479
323.928
345.818
364.794
380.529
392.73
401.15
405.601
405.949
402.149
394.271
382.393
366.72
347.519
325.118
299.891
272.241
242.596
211.398
179.095
146.132
112.942
79.9367
47.4817
15.8976
-14.5443
-43.6292
-71.1962
-97.1319
-121.366
-143.859
-164.6
-183.594
-200.866
-216.441
-230.354
-242.647
-253.362
-262.545
-270.255
-276.552
-281.511
-285.21
-287.721
-289.113
-289.434
-288.702
-286.907
-284.042
-280.079
-274.988
-268.762
-261.401
-252.897
-243.249
-232.433
-220.426
-207.198
-192.705
-176.908
-159.743
-141.149
-121.096
-99.572
-76.5818
-52.1625
-26.3757
0.67343
28.8635
58.0423
87.9863
118.458
149.176
179.801
209.981
239.315
267.351
293.67
317.827
339.375
357.93
373.139
384.689
392.367
396.019
395.543
390.838
382.126
369.561
353.376
333.88
311.455
286.485
259.402
230.642
200.643
169.865
138.725
107.625
76.9328
46.9514
18.305
-8.88824
-35.2759
-60.51
-84.468
-107.101
-128.408
-148.418
-167.164
-184.686
-201.008
-216.151
-230.127
-242.93
-254.546
-264.954
-274.123
-282.014
-288.59
-293.806
-297.618
-299.987
-300.866
-300.107
-297.727
-293.719
-288.025
-280.646
-271.552
-260.75
-248.256
-234.08
-218.247
-200.808
-181.819
-161.353
-139.521
-116.458
-92.3547
-67.6582
-43.4507
408.116
392.718
373.717
351.337
325.866
297.646
267.071
234.544
200.467
165.284
129.398
93.2045
57.1902
28.488
-5.92992
-39.3095
-71.2927
-101.679
-130.328
-157.125
-182.01
-204.952
-225.938
-244.986
-262.133
-277.42
-290.902
-302.632
-312.667
-321.059
-327.857
-333.103
-336.831
-339.062
-339.8
-339.069
-336.84
-333.088
-327.808
-320.974
-312.542
-302.487
-290.743
-277.269
-262.039
-245.001
-226.121
-205.396
-182.826
-158.413
-132.213
-104.315
-74.82
-43.8887
-11.7065
21.4952
55.3429
89.647
124.178
158.504
192.237
224.975
256.324
285.916
313.387
338.381
360.584
379.699
395.46
407.649
416.068
420.569
421.068
417.451
409.813
398.186
382.736
363.669
341.251
315.803
287.654
257.192
224.836
190.987
156.087
120.576
84.862
49.3507
14.4955
-19.5969
-52.5293
-84.0367
-113.899
-141.936
-168.01
-192.023
-213.917
-233.668
-251.288
-266.815
-280.311
-291.853
-301.53
-309.434
-315.654
-320.269
-323.354
-324.965
-325.141
-323.929
-321.356
-317.431
-312.153
-305.518
-297.514
-288.121
-277.32
-265.087
-251.399
-236.235
-219.577
-201.407
-181.714
-160.493
-137.749
-113.5
-87.7801
-60.6492
-32.1923
-2.52511
28.2037
59.8326
92.072
124.657
157.288
189.625
221.298
251.916
281.073
308.361
333.374
355.724
375.045
391.007
403.322
411.757
416.136
416.345
412.348
404.211
392.008
375.918
356.182
333.105
307.046
278.408
247.629
215.17
181.499
147.082
112.369
77.7813
43.7519
10.5479
-21.4905
-52.1243
-81.1634
-108.466
-133.937
-157.517
-179.183
-198.936
-216.795
-232.8
-246.999
-259.449
-270.212
-279.35
-286.929
-293.011
-297.658
-300.934
-302.9
-303.613
-303.114
-301.447
-298.644
-294.715
-289.657
-283.466
-276.124
-267.605
-257.878
-246.897
-234.61
-220.961
-205.895
-189.353
-171.285
-151.659
-130.46
-107.699
-83.4123
-57.6666
-30.553
-2.19029
27.2765
57.6663
88.9483
120.54
152.277
183.799
214.727
244.665
273.211
299.966
324.537
346.543
365.628
381.459
393.742
402.224
406.712
407.074
403.263
395.34
383.394
367.629
348.319
325.796
300.437
272.653
242.873
211.543
179.114
146.032
112.734
79.6365
47.1026
15.4552
-15.034
-44.1514
-71.7383
-97.6828
-121.917
-144.404
-165.133
-184.114
-201.369
-216.928
-230.825
-243.1
-253.797
-262.961
-270.65
-276.926
-281.863
-285.54
-288.033
-289.412
-289.726
-288.991
-287.202
-284.345
-280.387
-275.301
-269.08
-261.723
-253.225
-243.583
-232.778
-220.784
-207.572
-193.098
-177.323
-160.178
-141.602
-121.568
-100.055
-77.069
-52.6467
-26.8505
0.216522
28.4353
57.6563
87.6551
118.197
149.001
179.728
210.025
239.488
267.661
294.119
318.417
340.098
358.773
374.085
385.715
393.447
397.125
396.648
391.916
383.142
370.497
354.214
334.602
312.05
286.948
259.731
230.838
200.713
169.816
138.568
107.374
76.6018
46.5664
17.9064
-9.32563
-35.7279
-60.9669
-84.9201
-107.541
-128.832
-148.824
-167.554
-185.061
-201.372
-216.507
-230.479
-243.281
-254.898
-265.311
-274.486
-282.385
-288.97
-294.195
-298.017
-300.393
-301.277
-300.542
-298.174
-294.177
-288.492
-281.12
-272.032
-261.236
-248.744
-234.566
-218.729
-201.285
-182.286
-161.81
-139.962
-116.88
-92.7536
-68.0266
-43.7698
409.324
393.829
374.714
352.206
326.596
298.231
267.506
234.831
200.612
165.296
129.286
92.9719
56.8306
28.0299
-6.4912
-39.9336
-71.9582
-102.37
-131.034
-157.834
-182.714
-205.644
-226.613
-245.64
-262.762
-278.024
-291.482
-303.188
-313.201
-321.574
-328.356
-333.588
-337.305
-339.529
-340.268
-339.542
-337.316
-333.571
-328.301
-321.481
-313.065
-303.028
-291.303
-277.849
-262.638
-245.618
-226.755
-206.042
-183.478
-159.065
-132.857
-104.94
-75.415
-44.4422
-12.203
21.0637
55.0075
89.4042
124.042
158.484
192.343
225.211
256.694
286.418
314.02
339.138
361.456
380.676
396.53
408.795
417.271
421.807
422.32
418.695
411.014
399.326
383.795
364.626
342.087
316.506
288.218
257.612
225.111
191.119
156.083
120.443
84.6088
48.995
14.0425
-20.1327
-53.1343
-84.697
-114.6
-142.665
-168.754
-192.77
-214.657
-234.392
-251.989
-267.487
-280.949
-292.458
-302.102
-309.974
-316.165
-320.756
-323.82
-325.413
-325.579
-324.36
-321.784
-317.858
-312.584
-305.955
-297.959
-288.577
-277.786
-265.566
-251.89
-236.739
-220.092
-201.934
-182.251
-161.038
-138.299
-114.048
-88.3219
-61.1759
-32.6939
-2.99045
27.7875
59.4728
91.7921
124.469
157.205
189.658
221.458
252.212
281.511
308.943
334.097
356.583
376.028
392.099
404.504
413.005
417.424
417.646
413.636
405.451
393.175
376.987
357.133
333.919
307.709
278.913
247.973
215.354
181.53
146.97
112.128
77.4284
43.2971
10.0165
-22.0825
-52.7604
-81.8277
-109.145
-134.62
-158.194
-179.848
-199.582
-217.42
-233.402
-247.575
-260
-270.737
-279.851
-287.407
-293.466
-298.092
-301.348
-303.295
-303.991
-303.481
-301.806
-299
-295.071
-290.017
-283.834
-276.502
-267.997
-258.288
-247.327
-235.061
-221.436
-206.393
-189.872
-171.824
-152.212
-131.02
-108.258
-83.9622
-58.1984
-31.0584
-2.65986
26.854
57.3099
88.6395
120.334
152.178
183.817
214.871
244.943
273.628
300.523
325.232
347.373
366.581
382.524
394.9
403.453
407.985
408.363
404.539
396.563
384.539
368.67
349.234
326.57
301.062
273.123
243.188
211.707
179.133
145.916
112.494
79.2913
46.6669
14.9474
-15.5958
-44.7501
-72.3594
-98.3137
-122.548
-145.027
-165.744
-184.708
-201.945
-217.485
-231.362
-243.618
-254.294
-263.437
-271.103
-277.354
-282.266
-285.918
-288.39
-289.753
-290.058
-289.322
-287.539
-284.691
-280.739
-275.66
-269.444
-262.091
-253.598
-243.965
-233.172
-221.193
-207.999
-193.547
-177.798
-160.675
-142.121
-122.107
-100.607
-77.6262
-53.2006
-27.3944
-0.307151
27.9439
57.2126
87.2744
117.896
148.797
179.643
210.073
239.685
268.014
294.633
319.09
340.924
359.738
375.168
386.89
394.684
398.392
397.913
393.149
384.305
371.568
355.171
335.427
312.73
287.477
260.105
231.061
200.791
169.758
138.386
107.086
76.2208
46.1263
17.4469
-9.82664
-36.2457
-61.4902
-85.4378
-108.045
-129.317
-149.289
-167.999
-185.489
-201.787
-216.914
-230.881
-243.681
-255.301
-265.719
-274.901
-282.809
-289.404
-294.64
-298.473
-300.858
-301.748
-301.037
-298.685
-294.699
-289.026
-281.661
-272.582
-261.791
-249.301
-235.122
-219.281
-201.83
-182.822
-162.331
-140.467
-117.363
-93.2105
-68.4486
-44.1354
410.683
395.081
375.837
353.184
327.418
298.887
267.994
235.152
200.773
165.307
129.159
92.7139
56.4342
27.5009
-7.12982
-40.6395
-72.7092
-103.15
-131.829
-158.633
-183.507
-206.423
-227.372
-246.375
-263.47
-278.704
-292.134
-303.814
-313.802
-322.153
-328.917
-334.134
-337.839
-340.056
-340.795
-340.073
-337.852
-334.114
-328.855
-322.051
-313.653
-303.635
-291.932
-278.501
-263.313
-246.314
-227.468
-206.768
-184.213
-159.8
-133.582
-105.646
-76.0861
-45.0665
-12.763
20.5795
54.6253
89.1279
123.886
158.461
192.461
225.476
257.108
286.983
314.731
339.99
362.439
381.777
397.735
410.086
418.626
423.202
423.732
420.096
412.369
400.611
384.987
365.702
343.028
317.298
288.851
258.084
225.419
191.266
156.076
120.29
84.3218
48.5936
13.5298
-20.7381
-53.8177
-85.4425
-115.392
-143.488
-169.593
-193.613
-215.491
-235.208
-252.778
-268.243
-281.669
-293.139
-302.745
-310.581
-316.741
-321.303
-324.343
-325.918
-326.071
-324.845
-322.265
-318.34
-313.069
-306.447
-298.46
-289.09
-278.312
-266.105
-252.443
-237.306
-220.673
-202.527
-182.856
-161.652
-138.918
-114.667
-88.933
-61.7704
-33.2605
-3.51648
27.3152
59.0667
91.4752
124.255
157.108
189.693
221.637
252.544
282.003
309.597
334.911
357.549
377.136
393.33
405.836
414.412
418.876
419.112
415.086
406.849
394.491
378.193
358.203
334.834
308.455
279.48
248.358
215.559
181.562
146.841
111.854
77.0278
42.7826
9.41513
-22.7516
-53.4789
-82.5776
-109.911
-135.39
-158.956
-180.596
-200.311
-218.124
-234.079
-248.224
-260.62
-271.329
-280.416
-287.946
-293.979
-298.581
-301.814
-303.739
-304.417
-303.893
-302.21
-299.401
-295.473
-290.423
-284.248
-276.927
-268.438
-258.748
-247.81
-235.569
-221.971
-206.954
-190.459
-172.432
-152.835
-131.651
-108.888
-84.5825
-58.7985
-31.6287
-3.19016
26.3765
56.9033
88.2919
120.1
152.064
183.835
215.031
245.254
274.096
301.15
326.015
348.306
367.655
383.723
396.205
404.839
409.421
409.817
405.976
397.944
385.83
369.843