/*--------------------------------*- C++ -*----------------------------------*\
| =========                 |                                                 |
| \\      /  F ield         | OpenFOAM: The Open Source CFD Toolbox           |
|  \\    /   O peration     | Version:  3.0.1                                 |
|   \\  /    A nd           | Web:      www.OpenFOAM.org                      |
|    \\/     M anipulation  |                                                 |
\*---------------------------------------------------------------------------*/
FoamFile
{
    version     2.0;
    format      ascii;
    class       volScalarField;
    location    "93";
    object      p;
}
// * * * * * * * * * * * * * * * * * * * * * * * * * * * * * * * * * * * * * //

dimensions      [1 -1 -2 0 0 0 0];

internalField   nonuniform List<scalar> 
21420
(
3991.6
4024.54
4057.45
4089.85
4121.32
4151.24
4179.15
4204.55
4227.04
4246.31
4262.06
4274.04
4282.09
4286.05
4285.73
4281.32
4272.95
4260.61
4244.53
4224.94
4202.17
4176.55
4148.43
4118.24
4086.37
4053.28
4019.36
3985.02
3950.68
3916.69
3883.34
3851
3820.9
3791.23
3762.93
3736.21
3711.17
3687.89
3666.4
3646.72
3628.81
3612.68
3598.26
3585.54
3574.46
3564.97
3557.04
3550.63
3545.7
3542.22
3540.17
3539.56
3540.39
3542.69
3546.44
3551.66
3558.39
3566.67
3576.52
3588.01
3601.18
3616.07
3632.75
3651.23
3671.54
3693.7
3717.67
3743.39
3770.8
3799.74
3830.09
3861.72
3894.52
3927.81
3961.41
3995.02
4028.31
4060.92
4092.47
4122.62
4150.99
4177.2
4200.91
4221.79
4239.51
4253.81
4264.46
4271.28
4274.15
4272.94
4267.8
4258.71
4245.82
4229.29
4209.37
4186.33
4160.47
4132.13
4101.66
4069.44
4035.86
4001.34
3966.27
3931.07
3896.13
3861.82
3828.47
3796.39
3765.82
3736.96
3709.96
3684.91
3661.88
3640.87
3621.89
3604.9
3589.86
3576.72
3565.41
3555.88
3548.08
3541.96
3537.46
3534.55
3533.15
3533.27
3534.88
3537.89
3542.3
3548.08
3555.22
3563.71
3573.53
3584.69
3597.2
3611.07
3626.32
3642.98
3661.07
3680.61
3701.62
3724.1
3748.05
3773.42
3800.16
3828.16
3857.26
3887.91
3918.82
3950.34
3982.17
4013.97
4045.41
4076.13
4105.73
4133.82
4160.02
4183.93
4205.17
4223.4
4238.3
4249.58
4257
4260.4
4259.6
4254.66
4245.59
4232.45
4215.45
4194.85
4170.95
4144.16
4114.87
4083.55
4050.67
4016.7
3982.12
3947.39
3912.92
3879.11
3846.31
3814.78
3784.78
3756.48
3730.03
3705.53
3683.02
3662.52
3644.02
3627.48
3612.83
3600
3588.91
3579.47
3571.61
3565.23
3560.26
3556.63
3554.26
3553.06
3553
3554.05
3556.15
3559.31
3563.54
3568.86
3575.31
3582.94
3591.79
3601.93
3613.4
3626.27
3640.59
3656.4
3673.76
3692.68
3713.21
3735.33
3759.04
3784.28
3810.98
3839.03
3868.28
3898.57
3929.67
3961.27
3993.08
4024.77
4055.97
4086.28
4115.27
4142.53
4167.64
4190.18
4209.76
4226.02
4238.67
4247.46
4252.21
4252.71
4249.1
4241.35
4229.56
4213.95
4194.8
4172.45
4147.27
4119.69
4090.15
4059.1
4026.98
3994.23
3961.27
3928.48
3896.24
3864.82
3834.52
3805.53
3778.05
3752.19
3728.05
3705.68
3685.1
3666.32
3649.31
3634.03
3620.41
3608.41
3597.96
3589.02
3581.54
3575.48
3570.79
3567.4
3565.33
3564.53
3564.88
3566.31
3568.92
3572.72
3577.78
3584.16
3591.94
3601.18
3611.96
3624.33
3638.39
3654.22
3671.86
3691.36
3712.7
3735.91
3760.88
3787.48
3815.55
3844.87
3875.81
3914.29
3949.96
3985.05
4019.74
4053.62
4086.3
4117.44
4146.57
4173.28
4197.25
4218.09
4235.52
4249.27
4259.11
4264.86
4266.47
4264.8
4259.05
4249.29
4235.74
4218.61
4198.12
4174.59
4148.34
4119.72
4089.21
4057.17
4024.04
3990.23
3956.13
3922.11
3888.62
3857.54
3825.88
3795.34
3766.2
3738.64
3712.76
3688.65
3666.36
3645.91
3627.33
3610.57
3595.62
3582.44
3570.98
3561.19
3553.03
3546.44
3541.39
3537.83
3535.71
3535.04
3535.86
3538.17
3541.96
3547.25
3554.02
3562.34
3572.27
3893.46
3926.43
3959.35
3991.77
4023.26
4053.2
4081.13
4106.55
4129.06
4148.34
4164.1
4176.09
4184.14
4188.11
4187.79
4183.38
4175
4162.65
4146.55
4126.95
4104.17
4078.53
4050.38
4020.18
3988.3
3955.18
3921.24
3886.89
3852.54
3818.54
3785.18
3752.84
3722.73
3693.05
3664.75
3638.03
3612.99
3589.71
3568.22
3548.54
3530.64
3514.5
3500.09
3487.37
3476.29
3466.81
3458.88
3452.47
3447.54
3444.06
3442.02
3441.41
3442.24
3444.53
3448.28
3453.5
3460.23
3468.5
3478.36
3489.84
3503.01
3517.9
3534.57
3553.05
3573.36
3595.52
3619.49
3645.21
3672.62
3701.57
3731.93
3763.56
3796.37
3829.67
3863.28
3896.91
3930.21
3962.83
3994.4
4024.57
4052.95
4079.18
4102.91
4123.8
4141.54
4155.85
4166.51
4173.33
4176.21
4175
4169.85
4160.76
4147.85
4131.32
4111.38
4088.33
4062.45
4034.09
4003.6
3971.36
3937.77
3903.23
3868.15
3832.93
3797.97
3763.65
3730.29
3698.2
3667.63
3638.76
3611.76
3586.71
3563.68
3542.68
3523.7
3506.71
3491.68
3478.54
3467.23
3457.71
3449.91
3443.79
3439.3
3436.38
3434.99
3435.11
3436.72
3439.73
3444.14
3449.92
3457.06
3465.55
3475.37
3486.53
3499.04
3512.91
3528.15
3544.81
3562.9
3582.44
3603.45
3625.93
3649.88
3675.25
3701.99
3729.99
3759.1
3789.76
3820.67
3852.2
3884.04
3915.86
3947.31
3978.04
4007.66
4035.77
4061.98
4085.91
4107.17
4125.42
4140.33
4151.62
4159.06
4162.47
4161.66
4156.71
4147.64
4134.49
4117.48
4096.86
4072.95
4046.13
4016.82
3985.48
3952.58
3918.59
3883.99
3849.24
3814.76
3780.94
3748.13
3716.59
3686.58
3658.29
3631.84
3607.33
3584.82
3564.33
3545.83
3529.29
3514.65
3501.82
3490.74
3481.3
3473.44
3467.07
3462.1
3458.48
3456.11
3454.91
3454.85
3455.9
3458.01
3461.17
3465.39
3470.71
3477.16
3484.79
3493.64
3503.77
3515.24
3528.11
3542.42
3558.23
3575.58
3594.51
3615.03
3637.16
3660.86
3686.1
3712.8
3740.86
3770.12
3800.42
3831.52
3863.13
3894.96
3926.67
3957.88
3988.2
4017.21
4044.5
4069.62
4092.18
4111.77
4128.05
4140.72
4149.51
4154.26
4154.78
4151.15
4143.4
4131.6
4115.98
4096.81
4074.44
4049.24
4021.64
3992.08
3961.01
3928.87
3896.11
3863.13
3830.34
3798.08
3766.66
3736.34
3707.36
3679.87
3654.01
3629.86
3607.49
3586.92
3568.14
3551.14
3535.86
3522.24
3510.24
3499.8
3490.86
3483.38
3477.32
3472.63
3469.26
3467.18
3466.39
3466.73
3468.17
3470.77
3474.58
3479.63
3486.01
3493.78
3503.02
3513.79
3526.16
3540.22
3556.04
3573.68
3593.17
3614.52
3637.72
3662.7
3689.3
3717.37
3746.69
3777.63
3816.16
3851.83
3886.93
3921.64
3955.53
3988.23
4019.39
4048.54
4075.27
4099.25
4120.11
4137.56
4151.32
4161.17
4166.93
4168.55
4166.86
4161.1
4151.33
4137.78
4120.63
4100.13
4076.58
4050.31
4021.68
3991.14
3959.08
3925.94
3892.12
3858
3823.97
3790.47
3759.37
3727.7
3697.16
3668.02
3640.46
3614.57
3590.46
3568.17
3547.73
3529.15
3512.39
3497.45
3484.27
3472.81
3463.03
3454.87
3448.28
3443.23
3439.67
3437.55
3436.88
3437.7
3440.01
3443.81
3449.09
3455.86
3464.18
3474.11
3795.3
3828.29
3861.25
3893.7
3925.24
3955.22
3983.19
4008.65
4031.19
4050.5
4066.29
4078.29
4086.35
4090.33
4090.02
4085.6
4077.21
4064.84
4048.71
4029.08
4006.26
3980.58
3952.4
3922.16
3890.24
3857.09
3823.12
3788.74
3754.36
3720.34
3686.96
3654.61
3624.48
3594.79
3566.49
3539.76
3514.73
3491.45
3469.96
3450.28
3432.39
3416.25
3401.85
3389.14
3378.06
3368.58
3360.66
3354.25
3349.32
3345.85
3343.81
3343.19
3344.02
3346.32
3350.07
3355.28
3362.01
3370.28
3380.13
3391.61
3404.76
3419.65
3436.32
3454.79
3475.1
3497.25
3521.22
3546.95
3574.36
3603.32
3633.69
3665.34
3698.17
3731.48
3765.13
3798.78
3832.1
3864.76
3896.36
3926.56
3954.97
3981.24
4005
4025.92
4043.69
4058.02
4068.7
4075.54
4078.42
4077.23
4072.05
4062.95
4050.03
4033.47
4013.51
3990.42
3964.51
3936.11
3905.59
3873.31
3839.68
3805.11
3769.99
3734.75
3699.76
3665.41
3632.04
3599.94
3569.35
3540.48
3513.47
3488.42
3465.39
3444.4
3425.42
3408.44
3393.41
3380.28
3368.98
3359.46
3351.67
3345.55
3341.06
3338.15
3336.76
3336.89
3338.5
3341.51
3345.92
3351.71
3358.85
3367.34
3377.16
3388.32
3400.82
3414.68
3429.93
3446.58
3464.66
3484.2
3505.21
3527.69
3551.63
3577.01
3603.75
3631.77
3660.89
3691.53
3722.47
3754.02
3785.88
3817.73
3849.22
3879.98
3909.63
3937.77
3964.02
3987.99
4009.28
4027.56
4042.5
4053.81
4061.27
4064.69
4063.88
4058.93
4049.85
4036.68
4019.64
3998.98
3975.04
3948.18
3918.83
3887.45
3854.5
3820.48
3785.84
3751.06
3716.55
3682.71
3649.87
3618.33
3588.31
3560
3533.55
3509.05
3486.54
3466.05
3447.56
3431.03
3416.39
3403.57
3392.49
3383.07
3375.22
3368.85
3363.89
3360.27
3357.91
3356.72
3356.66
3357.72
3359.82
3362.98
3367.2
3372.51
3378.96
3386.58
3395.43
3405.55
3417.02
3429.88
3444.19
3459.99
3477.34
3496.26
3516.78
3538.91
3562.61
3587.85
3614.56
3642.62
3671.9
3702.21
3733.33
3764.96
3796.82
3828.55
3859.8
3890.15
3919.21
3946.53
3971.69
3994.28
4013.91
4030.22
4042.91
4051.73
4056.48
4057.01
4053.37
4045.61
4033.79
4018.14
3998.94
3976.53
3951.29
3923.65
3894.05
3862.94
3830.77
3797.97
3764.96
3732.14
3699.86
3668.42
3638.1
3609.1
3581.61
3555.74
3531.6
3509.23
3488.66
3469.89
3452.89
3437.61
3424.01
3412.01
3401.57
3392.64
3385.17
3379.11
3374.43
3371.06
3368.99
3368.2
3368.54
3369.98
3372.58
3376.38
3381.42
3387.8
3395.57
3404.8
3415.56
3427.92
3441.97
3457.78
3475.41
3494.91
3516.25
3539.46
3564.44
3591.05
3619.12
3648.44
3679.38
3717.99
3753.68
3788.79
3823.52
3857.45
3890.18
3921.38
3950.57
3977.34
4001.36
4022.25
4039.72
4053.51
4063.38
4069.16
4070.82
4069.07
4063.3
4053.52
4039.95
4022.78
4002.24
3978.67
3952.36
3923.69
3893.11
3861.02
3827.84
3793.99
3759.84
3725.79
3692.27
3661.13
3629.45
3598.9
3569.76
3542.19
3516.31
3492.2
3469.91
3449.47
3430.89
3414.14
3399.2
3386.03
3374.58
3364.8
3356.64
3350.06
3345.01
3341.45
3339.34
3338.67
3339.49
3341.8
3345.59
3350.87
3357.64
3365.96
3375.88
3697.1
3730.14
3763.15
3795.66
3827.26
3857.3
3885.33
3910.85
3933.44
3952.79
3968.61
3980.65
3988.72
3992.71
3992.42
3987.98
3979.56
3967.16
3951
3931.32
3908.45
3882.72
3854.48
3824.18
3792.21
3759.01
3724.99
3690.56
3656.14
3622.09
3588.68
3556.31
3526.15
3496.46
3468.14
3441.41
3416.38
3393.1
3371.62
3351.94
3334.06
3317.93
3303.54
3290.83
3279.76
3270.29
3262.38
3255.97
3251.05
3247.58
3245.54
3244.93
3245.76
3248.05
3251.8
3257
3263.72
3271.99
3281.83
3293.3
3306.45
3321.33
3337.99
3356.45
3376.76
3398.91
3422.88
3448.61
3476.03
3505
3535.38
3567.05
3599.92
3633.26
3666.94
3700.63
3734
3766.7
3798.35
3828.6
3857.06
3883.38
3907.19
3928.16
3945.97
3960.34
3971.04
3977.9
3980.79
3979.61
3974.4
3965.29
3952.34
3935.74
3915.74
3892.61
3866.65
3838.2
3807.62
3775.29
3741.61
3706.98
3671.82
3636.52
3601.5
3567.11
3533.71
3501.58
3470.98
3442.1
3415.09
3390.04
3367.02
3346.03
3327.06
3310.09
3295.07
3281.95
3270.66
3261.15
3253.36
3247.25
3242.77
3239.86
3238.48
3238.62
3240.22
3243.24
3247.65
3253.44
3260.58
3269.07
3278.89
3290.05
3302.55
3316.41
3331.65
3348.29
3366.37
3385.9
3406.9
3429.38
3453.32
3478.7
3505.45
3533.48
3562.65
3593.22
3624.22
3655.81
3687.71
3719.59
3751.12
3781.93
3811.63
3839.83
3866.14
3890.15
3911.5
3929.83
3944.81
3956.15
3963.63
3967.07
3966.28
3961.3
3952.21
3939.01
3921.93
3901.23
3877.22
3850.31
3820.9
3789.45
3756.44
3722.36
3687.67
3652.84
3618.29
3584.41
3551.55
3519.98
3489.94
3461.63
3435.17
3410.67
3388.17
3367.68
3349.2
3332.68
3318.06
3305.25
3294.19
3284.77
3276.93
3270.58
3265.63
3262.02
3259.66
3258.48
3258.43
3259.48
3261.59
3264.74
3268.97
3274.28
3280.72
3288.33
3297.17
3307.28
3318.74
3331.59
3345.89
3361.69
3379.03
3397.95
3418.46
3440.58
3464.29
3489.54
3516.25
3544.32
3573.61
3603.94
3635.1
3666.76
3698.65
3730.43
3761.73
3792.14
3821.24
3848.62
3873.84
3896.49
3916.17
3932.53
3945.25
3954.09
3958.87
3959.41
3955.75
3947.97
3936.11
3920.43
3901.18
3878.71
3853.41
3825.71
3796.05
3764.88
3732.66
3699.81
3666.76
3633.9
3601.59
3570.13
3539.78
3510.77
3483.27
3457.4
3433.25
3410.89
3390.32
3371.56
3354.57
3339.3
3325.7
3313.72
3303.29
3294.36
3286.9
3280.85
3276.18
3272.82
3270.75
3269.96
3270.3
3271.74
3274.34
3278.13
3283.17
3289.53
3297.29
3306.51
3317.26
3329.61
3343.64
3359.45
3377.07
3396.56
3417.9
3441.11
3466.09
3492.71
3520.79
3550.12
3581.04
3619.79
3655.49
3690.63
3725.41
3759.38
3792.17
3823.43
3852.67
3879.49
3903.57
3924.51
3942.03
3955.84
3965.74
3971.56
3973.25
3971.44
3965.65
3955.86
3942.26
3925.05
3904.47
3880.84
3854.48
3825.75
3795.12
3762.97
3729.74
3695.84
3661.65
3627.56
3594.02
3562.82
3531.13
3500.57
3471.42
3443.84
3417.95
3393.85
3371.56
3351.13
3332.55
3315.81
3300.88
3287.72
3276.27
3266.5
3258.35
3251.78
3246.73
3243.18
3241.07
3240.41
3241.22
3243.53
3247.32
3252.6
3259.36
3267.68
3277.6
3598.87
3631.97
3665.05
3697.64
3729.31
3759.44
3787.56
3813.14
3835.8
3855.22
3871.08
3883.16
3891.25
3895.24
3894.98
3890.53
3882.07
3869.63
3853.41
3833.67
3810.74
3784.93
3756.62
3726.25
3694.2
3660.92
3626.84
3592.35
3557.88
3523.78
3490.34
3457.95
3427.75
3398.04
3369.72
3342.98
3317.95
3294.67
3273.2
3253.53
3235.65
3219.54
3205.16
3192.46
3181.4
3171.94
3164.03
3157.64
3152.72
3149.25
3147.21
3146.61
3147.43
3149.72
3153.46
3158.67
3165.38
3173.64
3183.47
3194.93
3208.06
3222.93
3239.58
3258.04
3278.33
3300.48
3324.45
3350.19
3377.61
3406.6
3437
3468.7
3501.61
3535
3568.73
3602.47
3635.89
3668.66
3700.37
3730.68
3759.22
3785.6
3809.48
3830.51
3848.37
3862.79
3873.53
3880.42
3883.31
3882.15
3876.92
3867.78
3854.79
3838.15
3818.09
3794.9
3768.87
3740.35
3709.69
3677.29
3643.54
3608.84
3573.61
3538.26
3503.18
3468.75
3435.31
3403.15
3372.52
3343.63
3316.61
3291.57
3268.54
3247.56
3228.61
3211.65
3196.65
3183.54
3172.26
3162.76
3154.99
3148.89
3144.41
3141.51
3140.14
3140.28
3141.89
3144.91
3149.33
3155.12
3162.26
3170.75
3180.57
3191.72
3204.22
3218.07
3233.3
3249.94
3268.01
3287.53
3308.52
3331
3354.94
3380.32
3407.08
3435.13
3464.35
3494.87
3525.93
3557.56
3589.51
3621.45
3653.04
3683.91
3713.68
3741.95
3768.32
3792.41
3813.82
3832.21
3847.25
3858.64
3866.16
3869.61
3868.84
3863.85
3854.73
3841.49
3824.35
3803.59
3779.51
3752.51
3723.02
3691.49
3658.4
3624.24
3589.48
3554.58
3519.98
3486.05
3453.15
3421.55
3391.49
3363.17
3336.7
3312.2
3289.7
3269.23
3250.76
3234.25
3219.65
3206.86
3195.81
3186.41
3178.58
3172.24
3167.31
3163.71
3161.37
3160.19
3160.16
3161.21
3163.32
3166.47
3170.69
3175.99
3182.42
3190.03
3198.85
3208.96
3220.41
3233.24
3247.53
3263.32
3280.65
3299.56
3320.07
3342.19
3365.9
3391.15
3417.87
3445.96
3475.27
3505.63
3536.82
3568.53
3600.47
3632.31
3663.67
3694.15
3723.33
3750.78
3776.08
3798.8
3818.55
3834.97
3847.75
3856.62
3861.41
3861.98
3858.29
3850.48
3838.59
3822.85
3803.53
3780.99
3755.61
3727.83
3698.09
3666.84
3634.54
3601.63
3568.52
3535.61
3503.26
3471.76
3441.39
3412.36
3384.84
3358.97
3334.82
3312.46
3291.91
3273.15
3256.17
3240.92
3227.33
3215.36
3204.94
3196.03
3188.57
3182.53
3177.87
3174.53
3172.47
3171.67
3172.01
3173.45
3176.05
3179.84
3184.86
3191.22
3198.96
3208.16
3218.9
3231.23
3245.25
3261.03
3278.64
3298.12
3319.46
3342.67
3367.67
3394.29
3422.39
3451.72
3482.63
3521.56
3557.28
3592.45
3627.28
3661.33
3694.19
3725.52
3754.84
3781.74
3805.88
3826.89
3844.46
3858.33
3868.27
3874.12
3875.85
3873.98
3868.16
3858.34
3844.71
3827.45
3806.8
3783.11
3756.67
3727.87
3697.16
3664.93
3631.64
3597.67
3563.43
3529.3
3495.72
3464.44
3432.74
3402.16
3372.99
3345.41
3319.52
3295.41
3273.13
3252.7
3234.14
3217.41
3202.48
3189.33
3177.9
3168.14
3160
3153.43
3148.39
3144.84
3142.74
3142.09
3142.9
3145.2
3149
3154.27
3161.03
3169.34
3179.24
3500.6
3533.78
3566.95
3599.64
3631.41
3661.65
3689.86
3715.54
3738.28
3757.77
3773.7
3785.82
3793.95
3797.95
3797.7
3793.23
3784.73
3772.23
3755.95
3736.14
3713.12
3687.22
3658.82
3628.35
3596.21
3562.85
3528.68
3494.12
3459.58
3425.42
3391.94
3359.53
3329.27
3299.55
3271.21
3244.47
3219.43
3196.16
3174.69
3155.04
3137.17
3121.07
3106.7
3094.02
3082.97
3073.52
3065.63
3059.24
3054.33
3050.87
3048.83
3048.23
3049.04
3051.33
3055.08
3060.27
3066.97
3075.22
3085.04
3096.48
3109.61
3124.46
3141.09
3159.54
3179.83
3201.97
3225.94
3251.68
3279.12
3308.13
3338.56
3370.29
3403.25
3436.7
3470.48
3504.29
3537.79
3570.62
3602.42
3632.82
3661.43
3687.9
3711.86
3732.97
3750.9
3765.38
3776.17
3783.08
3786
3784.83
3779.59
3770.42
3757.38
3740.68
3720.55
3697.28
3671.17
3642.56
3611.82
3579.32
3545.48
3510.7
3475.39
3439.96
3404.81
3370.32
3336.83
3304.63
3273.98
3245.07
3218.04
3193
3169.98
3149.01
3130.08
3113.14
3098.15
3085.05
3073.79
3064.31
3056.55
3050.46
3045.99
3043.1
3041.74
3041.89
3043.5
3046.53
3050.95
3056.75
3063.89
3072.37
3082.19
3093.34
3105.83
3119.67
3134.9
3151.52
3169.58
3189.09
3210.08
3232.55
3256.49
3281.88
3308.65
3336.71
3365.97
3396.47
3427.59
3459.28
3491.28
3523.29
3554.95
3585.9
3615.76
3644.12
3670.58
3694.75
3716.26
3734.72
3749.83
3761.28
3768.84
3772.32
3771.56
3766.56
3757.4
3744.11
3726.91
3706.06
3681.89
3654.79
3625.19
3593.56
3560.37
3526.11
3491.26
3456.28
3421.61
3387.62
3354.67
3323.04
3292.95
3264.61
3238.14
3213.64
3191.15
3170.69
3152.23
3135.75
3121.16
3108.39
3097.36
3087.99
3080.18
3073.86
3068.94
3065.36
3063.03
3061.87
3061.84
3062.9
3065
3068.16
3072.37
3077.66
3084.08
3091.67
3100.49
3110.58
3122.01
3134.84
3149.11
3164.88
3182.2
3201.1
3221.61
3243.72
3267.43
3292.69
3319.42
3347.53
3376.87
3407.26
3438.5
3470.26
3502.27
3534.18
3565.62
3596.19
3625.46
3653.01
3678.41
3701.22
3721.06
3737.55
3750.39
3759.31
3764.12
3764.7
3761.01
3753.16
3741.21
3725.4
3706
3683.36
3657.89
3630
3600.16
3568.82
3536.43
3503.44
3470.25
3437.28
3404.87
3373.33
3342.93
3313.88
3286.34
3260.46
3236.31
3213.96
3193.41
3174.67
3157.7
3142.46
3128.9
3116.94
3106.54
3097.63
3090.19
3084.16
3079.51
3076.18
3074.14
3073.34
3073.68
3075.13
3077.72
3081.49
3086.51
3092.84
3100.57
3109.75
3120.47
3132.78
3146.77
3162.54
3180.14
3199.6
3220.94
3244.15
3269.16
3295.8
3323.91
3353.25
3384.14
3423.3
3459.03
3494.25
3529.15
3563.28
3596.23
3627.66
3657.08
3684.07
3708.3
3729.38
3747.03
3760.96
3770.94
3776.84
3778.6
3776.69
3770.83
3760.98
3747.3
3729.97
3709.25
3685.47
3658.93
3630.04
3599.23
3566.92
3533.53
3499.49
3465.18
3430.99
3397.36
3366
3334.27
3303.67
3274.48
3246.89
3221
3196.89
3174.61
3154.2
3135.64
3118.92
3104.02
3090.88
3079.46
3069.71
3061.58
3055.03
3050
3046.46
3044.36
3043.71
3044.52
3046.82
3050.61
3055.88
3062.63
3070.93
3080.83
3402.3
3435.57
3468.84
3501.65
3533.55
3563.91
3592.24
3618.04
3640.88
3660.45
3676.46
3688.63
3696.8
3700.81
3700.58
3696.1
3687.54
3674.98
3658.62
3638.72
3615.6
3589.6
3561.08
3530.5
3498.24
3464.77
3430.51
3395.86
3361.24
3327.01
3293.48
3261.03
3230.72
3200.97
3172.62
3145.87
3120.83
3097.57
3076.11
3056.46
3038.61
3022.53
3008.18
2995.51
2984.48
2975.04
2967.16
2960.78
2955.88
2952.42
2950.4
2949.79
2950.61
2952.89
2956.63
2961.82
2968.51
2976.74
2986.54
2997.97
3011.08
3025.91
3042.53
3060.96
3081.24
3103.37
3127.35
3153.09
3180.55
3209.58
3240.04
3271.82
3304.85
3338.35
3372.21
3406.09
3439.68
3472.61
3504.5
3534.99
3563.71
3590.28
3614.34
3635.54
3653.55
3668.11
3678.96
3685.91
3688.84
3687.68
3682.42
3673.2
3660.11
3643.34
3623.13
3599.76
3573.55
3544.83
3513.98
3481.38
3447.43
3412.55
3377.14
3341.62
3306.39
3271.82
3238.28
3206.03
3175.35
3146.41
3119.38
3094.34
3071.33
3050.37
3031.45
3014.53
2999.56
2986.49
2975.25
2965.78
2958.04
2951.96
2947.51
2944.63
2943.28
2943.44
2945.06
2948.1
2952.52
2958.32
2965.46
2973.95
2983.76
2994.9
3007.38
3021.22
3036.43
3053.05
3071.09
3090.59
3111.57
3134.04
3157.98
3183.36
3210.14
3238.23
3267.53
3298.03
3329.2
3360.96
3393.03
3425.12
3456.87
3487.92
3517.87
3546.34
3572.91
3597.19
3618.79
3637.36
3652.55
3664.07
3671.68
3675.19
3674.45
3669.44
3660.23
3646.89
3629.61
3608.66
3584.37
3557.15
3527.43
3495.67
3462.35
3427.97
3393.02
3357.94
3323.18
3289.13
3256.12
3224.44
3194.33
3165.97
3139.49
3114.99
3092.5
3072.06
3053.62
3037.16
3022.59
3009.85
2998.85
2989.5
2981.71
2975.41
2970.52
2966.95
2964.64
2963.5
2963.48
2964.54
2966.65
2969.8
2974
2979.29
2985.7
2993.27
3002.07
3012.15
3023.56
3036.37
3050.62
3066.38
3083.69
3102.57
3123.07
3145.18
3168.89
3194.15
3220.91
3249.04
3278.41
3308.84
3340.14
3371.97
3404.05
3436.04
3467.58
3498.26
3527.64
3555.31
3580.82
3603.74
3623.68
3640.27
3653.18
3662.16
3667
3667.59
3663.88
3655.99
3643.98
3628.08
3608.58
3585.83
3560.24
3532.23
3502.26
3470.81
3438.31
3405.22
3371.95
3338.9
3306.43
3274.84
3244.39
3215.31
3187.76
3161.87
3137.72
3115.37
3094.83
3076.1
3059.16
3043.94
3030.39
3018.46
3008.07
2999.18
2991.75
2985.74
2981.1
2977.79
2975.76
2974.96
2975.31
2976.75
2979.34
2983.1
2988.1
2994.41
3002.12
3011.28
3021.97
3034.26
3048.23
3063.97
3081.55
3101
3122.33
3145.55
3170.57
3197.23
3225.35
3254.7
3285.56
3325.01
3360.75
3396.02
3431.01
3465.24
3498.3
3529.85
3559.38
3586.48
3610.82
3632
3649.74
3663.74
3673.78
3679.72
3681.5
3679.57
3673.66
3663.77
3650.03
3632.62
3611.8
3587.92
3561.27
3532.26
3501.34
3468.92
3435.43
3401.29
3366.89
3332.63
3298.95
3267.48
3235.72
3205.1
3175.89
3148.29
3122.39
3098.29
3076.01
3055.61
3037.07
3020.36
3005.47
2992.35
2980.95
2971.22
2963.11
2956.56
2951.54
2948.01
2945.92
2945.28
2946.08
2948.39
2952.18
2957.44
2964.18
2972.47
2982.35
3303.96
3337.34
3370.74
3403.68
3435.73
3466.23
3494.71
3520.63
3543.59
3563.27
3579.36
3591.6
3599.81
3603.85
3603.61
3599.12
3590.51
3577.88
3561.42
3541.41
3518.17
3492.04
3463.4
3432.68
3400.3
3366.7
3332.33
3297.57
3262.86
3228.55
3194.95
3162.48
3132.09
3102.32
3073.95
3047.19
3022.15
2998.89
2977.44
2957.81
2939.98
2923.91
2909.58
2896.93
2885.92
2876.5
2868.63
2862.26
2857.37
2853.93
2851.91
2851.3
2852.11
2854.4
2858.13
2863.31
2869.98
2878.2
2887.98
2899.39
2912.48
2927.29
2943.89
2962.31
2982.57
3004.7
3028.67
3054.43
3081.9
3110.95
3141.45
3173.28
3206.39
3239.97
3273.91
3307.88
3341.56
3374.6
3406.61
3437.22
3466.06
3492.74
3516.91
3538.22
3556.34
3570.98
3581.89
3588.89
3591.84
3590.68
3585.41
3576.14
3562.98
3546.13
3525.82
3502.34
3476.01
3447.17
3416.19
3383.46
3349.39
3314.38
3278.86
3243.23
3207.9
3173.26
3139.64
3107.35
3076.62
3047.67
3020.62
2995.58
2972.58
2951.64
2932.74
2915.85
2900.9
2887.85
2876.63
2867.19
2859.46
2853.4
2848.97
2846.1
2844.77
2844.94
2846.56
2849.6
2854.04
2859.84
2866.98
2875.46
2885.27
2896.41
2908.88
2922.71
2937.91
2954.51
2972.54
2992.03
3013
3035.45
3059.39
3084.78
3111.57
3139.69
3169.03
3199.53
3230.78
3262.6
3294.76
3326.94
3358.79
3389.95
3420.03
3448.62
3475.31
3499.72
3521.44
3540.12
3555.41
3567.01
3574.68
3578.23
3577.5
3572.48
3563.23
3549.81
3532.43
3511.37
3486.95
3459.59
3429.72
3397.81
3364.35
3329.83
3294.75
3259.56
3224.7
3190.57
3157.49
3125.76
3095.62
3067.23
3040.75
3016.24
2993.77
2973.34
2954.93
2938.49
2923.95
2911.24
2900.27
2890.94
2883.18
2876.91
2872.04
2868.5
2866.2
2865.08
2865.08
2866.15
2868.26
2871.4
2875.59
2880.87
2887.26
2894.82
2903.6
2913.66
2925.05
2937.84
2952.07
2967.81
2985.1
3003.97
3024.46
3046.56
3070.27
3095.55
3122.32
3150.48
3179.88
3210.36
3241.73
3273.63
3305.8
3337.9
3369.55
3400.35
3429.87
3457.67
3483.31
3506.37
3526.43
3543.12
3556.12
3565.16
3570.05
3570.64
3566.93
3558.98
3546.89
3530.9
3511.28
3488.4
3462.66
3434.51
3404.41
3372.81
3340.19
3306.98
3273.61
3240.47
3207.92
3176.27
3145.78
3116.67
3089.1
3063.2
3039.05
3016.7
2996.17
2977.46
2960.54
2945.34
2931.82
2919.91
2909.54
2900.67
2893.25
2887.26
2882.64
2879.35
2877.34
2876.54
2876.89
2878.33
2880.91
2884.66
2889.64
2895.93
2903.61
2912.75
2923.41
2935.66
2949.61
2965.32
2982.87
3002.31
3023.64
3046.86
3071.89
3098.58
3126.72
3156.08
3186.91
3226.7
3262.44
3297.77
3332.86
3367.21
3400.4
3432.08
3461.75
3488.98
3513.45
3534.74
3552.58
3566.66
3576.77
3582.76
3584.57
3582.6
3576.66
3566.71
3552.89
3535.39
3514.46
3490.46
3463.68
3434.54
3403.49
3370.93
3337.32
3303.07
3268.57
3234.23
3200.49
3168.9
3137.11
3106.45
3077.22
3049.6
3023.7
2999.6
2977.33
2956.94
2938.41
2921.73
2906.86
2893.76
2882.38
2872.67
2864.57
2858.04
2853.03
2849.51
2847.43
2846.78
2847.59
2849.9
2853.68
2858.93
2865.67
2873.94
2883.81
3205.59
3239.09
3272.63
3305.74
3337.95
3368.62
3397.25
3423.33
3446.42
3466.21
3482.41
3494.73
3502.98
3507.05
3506.82
3502.3
3493.62
3480.91
3464.35
3444.22
3420.85
3394.57
3365.77
3334.91
3302.37
3268.64
3234.13
3199.25
3164.44
3130.04
3096.36
3063.85
3033.39
3003.58
2975.19
2948.42
2923.38
2900.13
2878.7
2859.08
2841.27
2825.23
2810.91
2798.29
2787.3
2777.9
2770.04
2763.69
2758.81
2755.37
2753.36
2752.76
2753.56
2755.85
2759.57
2764.74
2771.39
2779.59
2789.35
2800.74
2813.8
2828.59
2845.17
2863.57
2883.82
2905.94
2929.91
2955.68
2983.17
3012.25
3042.79
3074.67
3107.87
3141.54
3175.57
3209.65
3243.45
3276.61
3308.74
3339.49
3368.46
3395.28
3419.58
3441.02
3459.25
3473.98
3484.97
3492.03
3495.01
3493.85
3488.55
3479.23
3465.99
3449.04
3428.62
3405.02
3378.55
3349.57
3318.44
3285.57
3251.35
3216.21
3180.55
3144.8
3109.37
3074.62
3040.93
3008.58
2977.81
2948.83
2921.77
2896.73
2873.74
2852.83
2833.95
2817.08
2802.16
2789.13
2777.94
2768.52
2760.82
2754.78
2750.36
2747.51
2746.19
2746.37
2748.01
2751.06
2755.5
2761.3
2768.45
2776.93
2786.73
2797.86
2810.33
2824.14
2839.33
2855.91
2873.92
2893.4
2914.35
2936.8
2960.73
2986.13
3012.93
3041.08
3070.46
3100.99
3132.3
3164.21
3196.46
3228.74
3260.72
3292
3322.22
3350.95
3377.79
3402.34
3424.2
3443
3458.4
3470.1
3477.85
3481.43
3480.73
3475.69
3466.38
3452.88
3435.39
3414.2
3389.63
3362.11
3332.06
3299.98
3266.36
3231.69
3196.46
3161.14
3126.17
3091.94
3058.79
3027
2996.81
2968.41
2941.91
2917.4
2894.94
2874.53
2856.15
2839.74
2825.24
2812.56
2801.62
2792.33
2784.6
2778.35
2773.51
2770
2767.72
2766.62
2766.63
2767.71
2769.82
2772.96
2777.15
2782.41
2788.78
2796.32
2805.08
2815.11
2826.48
2839.25
2853.46
2869.18
2886.45
2905.3
2925.78
2947.88
2971.59
2996.87
3023.66
3051.85
3081.3
3111.83
3143.28
3175.26
3207.54
3239.75
3271.54
3302.47
3332.14
3360.1
3385.9
3409.1
3429.3
3446.12
3459.22
3468.33
3473.26
3473.87
3470.13
3462.12
3449.96
3433.85
3414.09
3391.06
3365.16
3336.84
3306.58
3274.83
3242.07
3208.72
3175.23
3141.99
3109.36
3077.64
3047.1
3017.95
2990.36
2964.44
2940.29
2917.95
2897.44
2878.75
2861.84
2846.68
2833.18
2821.29
2810.95
2802.1
2794.7
2788.72
2784.13
2780.86
2778.86
2778.08
2778.43
2779.87
2782.44
2786.17
2791.13
2797.39
2805.04
2814.15
2824.78
2837
2850.91
2866.6
2884.12
2903.54
2924.86
2948.08
2973.13
2999.85
3028.02
3057.39
3088.17
3128.36
3164.09
3199.5
3234.7
3269.19
3302.53
3334.36
3364.19
3391.57
3416.18
3437.6
3455.55
3469.73
3479.92
3485.96
3487.79
3485.8
3479.81
3469.8
3455.9
3438.29
3417.23
3393.09
3366.16
3336.87
3305.67
3272.96
3239.21
3204.83
3170.22
3135.79
3101.97
3070.26
3038.41
3007.72
2978.47
2950.84
2924.92
2900.82
2878.57
2858.19
2839.68
2823.02
2808.17
2795.09
2783.73
2774.04
2765.97
2759.45
2754.46
2750.94
2748.87
2748.24
2749.05
2751.35
2755.13
2760.37
2767.09
2775.36
2785.21
3107.18
3140.82
3174.52
3207.8
3240.21
3271.07
3299.88
3326.13
3349.37
3369.29
3385.6
3398
3406.32
3410.41
3410.19
3405.64
3396.9
3384.09
3367.41
3347.14
3323.61
3297.18
3268.21
3237.17
3204.47
3170.57
3135.92
3100.91
3065.97
3031.47
2997.71
2965.16
2934.61
2904.77
2876.36
2849.58
2824.53
2801.29
2779.87
2760.27
2742.48
2726.46
2712.17
2699.57
2688.61
2679.23
2671.39
2665.05
2660.19
2656.76
2654.75
2654.15
2654.96
2657.24
2660.95
2666.11
2672.75
2680.93
2690.66
2702.03
2715.06
2729.82
2746.38
2764.76
2784.99
2807.1
2831.07
2856.84
2884.35
2913.47
2944.06
2976
3009.31
3043.07
3077.21
3111.4
3145.33
3178.63
3210.91
3241.8
3270.93
3297.9
3322.35
3343.93
3362.29
3377.13
3388.21
3395.32
3398.33
3397.17
3391.85
3382.47
3369.15
3352.09
3331.54
3307.79
3281.17
3252.03
3220.74
3187.7
3153.33
3118.02
3082.22
3046.33
3010.77
2975.92
2942.15
2909.72
2878.9
2849.89
2822.82
2797.78
2774.81
2753.91
2735.07
2718.22
2703.34
2690.34
2679.18
2669.78
2662.11
2656.09
2651.69
2648.86
2647.55
2647.75
2649.39
2652.46
2656.9
2662.71
2669.86
2678.34
2688.14
2699.26
2711.72
2725.51
2740.68
2757.25
2775.24
2794.7
2815.64
2838.07
2862
2887.4
2914.23
2942.4
2971.82
3002.39
3033.78
3065.78
3098.13
3130.54
3162.64
3194.08
3224.44
3253.33
3280.34
3305.04
3327.06
3346.01
3361.54
3373.35
3381.17
3384.81
3384.12
3379.07
3369.69
3356.1
3338.49
3317.14
3292.41
3264.7
3234.47
3202.19
3168.38
3133.53
3098.14
3062.68
3027.58
2993.24
2960.01
2928.15
2897.92
2869.49
2842.98
2818.47
2796.02
2775.63
2757.28
2740.91
2726.44
2713.81
2702.9
2693.65
2685.95
2679.74
2674.93
2671.44
2669.2
2668.12
2668.15
2669.23
2671.34
2674.48
2678.65
2683.9
2690.26
2697.77
2706.51
2716.51
2727.86
2740.59
2754.78
2770.48
2787.72
2806.56
2827.02
2849.11
2872.82
2898.12
2924.93
2953.15
2982.65
3013.24
3044.78
3076.86
3109.25
3141.6
3173.53
3204.62
3234.46
3262.59
3288.56
3311.94
3332.3
3349.25
3362.47
3371.67
3376.64
3377.27
3373.51
3365.43
3353.17
3336.93
3317.02
3293.82
3267.74
3239.23
3208.79
3176.87
3143.94
3110.44
3076.82
3043.46
3010.74
2978.94
2948.34
2919.15
2891.53
2865.61
2841.45
2819.12
2798.62
2779.95
2763.08
2747.94
2734.48
2722.62
2712.3
2703.47
2696.09
2690.14
2685.56
2682.32
2680.34
2679.57
2679.92
2681.36
2683.92
2687.64
2692.57
2698.8
2706.42
2715.49
2726.08
2738.27
2752.14
2767.79
2785.28
2804.69
2825.99
2849.22
2874.29
2901.04
2929.24
2958.62
2989.35
3029.98
3065.7
3101.19
3136.53
3171.18
3204.68
3236.69
3266.69
3294.25
3319.01
3340.59
3358.66
3372.95
3383.22
3389.33
3391.17
3389.17
3383.12
3373.04
3359.05
3341.31
3320.12
3295.81
3268.72
3239.25
3207.88
3175.01
3141.1
3106.57
3071.84
3037.29
3003.39
2971.54
2939.65
2908.91
2879.63
2851.98
2826.06
2801.96
2779.72
2759.35
2740.87
2724.23
2709.41
2696.36
2685.02
2675.36
2667.3
2660.81
2655.83
2652.33
2650.27
2649.63
2650.45
2652.75
2656.52
2661.76
2668.46
2676.71
2686.55
3008.73
3042.52
3076.41
3109.89
3142.5
3173.57
3202.59
3229.03
3252.44
3272.51
3288.93
3301.44
3309.82
3313.94
3313.72
3309.14
3300.32
3287.41
3270.6
3250.17
3226.48
3199.86
3170.7
3139.47
3106.58
3072.51
3037.69
3002.53
2967.46
2932.85
2899
2866.39
2835.74
2805.87
2777.44
2750.64
2725.6
2702.36
2680.96
2661.38
2643.62
2627.63
2613.37
2600.79
2589.85
2580.49
2572.68
2566.36
2561.51
2558.09
2556.09
2555.5
2556.3
2558.57
2562.27
2567.42
2574.04
2582.2
2591.91
2603.24
2616.25
2630.98
2647.51
2665.86
2686.07
2708.17
2732.14
2757.93
2785.46
2814.62
2845.26
2877.26
2910.69
2944.56
2978.81
3013.13
3047.21
3080.66
3113.1
3144.16
3173.46
3200.6
3225.22
3246.95
3265.45
3280.42
3291.6
3298.77
3301.82
3300.66
3295.31
3285.86
3272.44
3255.26
3234.57
3210.66
3183.87
3154.55
3123.08
3089.86
3055.3
3019.83
2983.86
2947.82
2912.12
2877.15
2843.28
2810.77
2779.9
2750.86
2723.78
2698.74
2675.79
2654.91
2636.1
2619.29
2604.44
2591.47
2580.34
2570.98
2563.33
2557.33
2552.95
2550.14
2548.86
2549.07