/*--------------------------------*- C++ -*----------------------------------*\
| =========                 |                                                 |
| \\      /  F ield         | OpenFOAM: The Open Source CFD Toolbox           |
|  \\    /   O peration     | Version:  3.0.1                                 |
|   \\  /    A nd           | Web:      www.OpenFOAM.org                      |
|    \\/     M anipulation  |                                                 |
\*---------------------------------------------------------------------------*/
FoamFile
{
    version     2.0;
    format      ascii;
    class       surfaceScalarField;
    location    "34.6";
    object      phi;
}
// * * * * * * * * * * * * * * * * * * * * * * * * * * * * * * * * * * * * * //

dimensions      [0 3 -1 0 0 0 0];

internalField   nonuniform List<scalar> 
42423
(
0.000217012
5.51738e-06
0.000209656
7.35613e-06
0.000200166
9.49019e-06
0.000188613
1.15531e-05
0.000175482
1.31309e-05
0.000160743
1.47394e-05
0.000144793
1.59499e-05
0.000127812
1.69809e-05
0.000109953
1.78589e-05
9.17103e-05
1.82428e-05
7.31058e-05
1.86046e-05
5.45907e-05
1.8515e-05
3.61402e-05
1.84506e-05
1.82077e-05
1.79325e-05
7.50652e-07
1.7457e-05
-1.60779e-05
1.68286e-05
-3.21166e-05
1.60387e-05
-4.72855e-05
1.51688e-05
-6.15644e-05
1.42789e-05
-7.48785e-05
1.33141e-05
-8.72139e-05
1.23354e-05
-9.85855e-05
1.13716e-05
-0.000108997
1.04111e-05
-0.000118443
9.44609e-06
-0.000126967
8.52485e-06
-0.000134595
7.62774e-06
-0.000141348
6.75289e-06
-0.00014727
5.92204e-06
-0.0001524
5.13014e-06
-0.000156757
4.35712e-06
-0.000160388
3.63104e-06
-0.000163299
2.91075e-06
-0.000165536
2.23684e-06
-0.000167099
1.56324e-06
-0.000168049
9.49352e-07
-0.000168367
3.1883e-07
-0.000167991
-3.76182e-07
-0.000166956
-1.03561e-06
-0.000165293
-1.66292e-06
-0.00016288
-2.41256e-06
-0.000159785
-3.09505e-06
-0.000155913
-3.87221e-06
-0.000151309
-4.60349e-06
-0.000145955
-5.35403e-06
-0.000139768
-6.18726e-06
-0.000132631
-7.13768e-06
-0.000124823
-7.80761e-06
-0.000115916
-8.90665e-06
-0.000106178
-9.73783e-06
-9.55856e-05
-1.05929e-05
-8.39146e-05
-1.16711e-05
-7.14189e-05
-1.24958e-05
-5.7868e-05
-1.35509e-05
-4.33764e-05
-1.44916e-05
-2.8286e-05
-1.50905e-05
-1.23068e-05
-1.59792e-05
4.35173e-06
-1.66586e-05
2.1458e-05
-1.71063e-05
3.90407e-05
-1.75827e-05
5.68595e-05
-1.78189e-05
7.47916e-05
-1.79321e-05
9.2756e-05
-1.79645e-05
0.000110337
-1.75806e-05
0.000127463
-1.71268e-05
0.000143916
-1.64528e-05
0.000159397
-1.5481e-05
0.000173806
-1.44095e-05
0.000186851
-1.30442e-05
0.000198475
-1.1624e-05
0.000208421
-9.9465e-06
0.000216529
-8.10789e-06
0.000222706
-6.17703e-06
0.00022684
-4.13467e-06
0.000228788
-1.94765e-06
0.000228584
2.03566e-07
0.000226171
2.413e-06
0.00022169
4.48123e-06
0.00021518
6.5106e-06
0.000206758
8.42145e-06
0.000196454
1.03041e-05
0.00018458
1.18743e-05
0.000171185
1.33948e-05
0.000156561
1.46237e-05
0.000140922
1.56388e-05
0.000124454
1.64685e-05
0.000107347
1.71066e-05
8.98097e-05
1.75374e-05
7.21206e-05
1.76891e-05
5.42947e-05
1.78259e-05
3.66535e-05
1.76413e-05
1.92625e-05
1.7391e-05
2.23614e-06
1.70264e-05
-1.41767e-05
1.64129e-05
-2.9968e-05
1.57913e-05
-4.50173e-05
1.50494e-05
-5.91359e-05
1.41186e-05
-7.23537e-05
1.32178e-05
-8.46479e-05
1.22942e-05
-9.59152e-05
1.12672e-05
-0.000106187
1.02718e-05
-0.000115468
9.28112e-06
-0.000123736
8.26752e-06
-0.000131067
7.33163e-06
-0.000137478
6.41032e-06
-0.000142966
5.48814e-06
-0.000147623
4.65717e-06
-0.000151511
3.88806e-06
-0.000154667
3.15654e-06
-0.000157121
2.45385e-06
-0.000158886
1.76425e-06
-0.000159987
1.10124e-06
-0.000160464
4.77455e-07
-0.000160284
-1.80536e-07
-0.00015945
-8.34043e-07
-0.000157993
-1.45662e-06
-0.00015589
-2.10341e-06
-0.000153104
-2.78553e-06
-0.000149715
-3.3894e-06
-0.000145725
-3.98948e-06
-0.000141039
-4.68676e-06
-0.000135682
-5.35658e-06
-0.000129603
-6.07877e-06
-0.000122966
-6.63685e-06
-0.000115557
-7.40916e-06
-0.000107438
-8.11906e-06
-9.86482e-05
-8.79006e-06
-8.91021e-05
-9.54616e-06
-7.87914e-05
-1.03108e-05
-6.78047e-05
-1.09867e-05
-5.60236e-05
-1.17811e-05
-4.3512e-05
-1.25117e-05
-3.02998e-05
-1.32123e-05
-1.63936e-05
-1.39063e-05
-1.81108e-06
-1.45826e-05
1.33341e-05
-1.51453e-05
2.9038e-05
-1.5704e-05
4.51669e-05
-1.61289e-05
6.15849e-05
-1.64182e-05
7.81698e-05
-1.6585e-05
9.47406e-05
-1.65709e-05
0.00011112
-1.63796e-05
0.000127085
-1.59644e-05
0.000142438
-1.53533e-05
0.000156921
-1.44837e-05
0.000170364
-1.34428e-05
0.000182446
-1.20821e-05
0.000193053
-1.06068e-05
0.000201887
-8.83401e-06
0.000208811
-6.92399e-06
0.000213627
-4.81599e-06
0.000216191
-2.56487e-06
0.000216502
-3.11059e-07
0.000214461
2.04106e-06
0.000210077
4.38373e-06
0.000203448
6.62972e-06
0.000194608
8.83951e-06
0.000183819
1.07886e-05
0.000171158
1.26617e-05
0.000156892
1.42654e-05
0.000141265
1.56275e-05
0.000124551
1.67135e-05
0.000107023
1.75285e-05
8.89101e-05
1.81125e-05
7.05474e-05
1.83626e-05
5.21012e-05
1.84462e-05
3.38602e-05
1.8241e-05
1.60015e-05
1.78587e-05
-1.26429e-06
1.72658e-05
-1.78628e-05
1.65985e-05
-3.37518e-05
1.5889e-05
-4.8788e-05
1.50362e-05
-6.29028e-05
1.41147e-05
-7.6049e-05
1.31463e-05
-8.82183e-05
1.21692e-05
-9.93123e-05
1.1094e-05
-0.000109392
1.00801e-05
-0.000118454
9.06179e-06
-0.000126557
8.10231e-06
-0.000133705
7.14882e-06
-0.000140057
6.35185e-06
-0.000145619
5.56179e-06
-0.000150422
4.80318e-06
-0.00015454
4.11751e-06
-0.000157948
3.40847e-06
-0.000160721
2.77305e-06
-0.000162916
2.19486e-06
-0.000164444
1.52818e-06
-0.000165393
9.48852e-07
-0.000165693
3.00026e-07
-0.000165408
-2.85308e-07
-0.000164495
-9.12689e-07
-0.000162984
-1.51163e-06
-0.000160886
-2.09754e-06
-0.000158153
-2.73317e-06
-0.000154805
-3.3481e-06
-0.000150823
-3.98187e-06
-0.000146172
-4.65135e-06
-0.000140801
-5.37058e-06
-0.000134709
-6.09152e-06
-0.000127836
-6.87352e-06
-0.000120108
-7.72848e-06
-0.000111631
-8.47698e-06
-0.00010219
-9.44091e-06
-9.18953e-05
-1.02944e-05
-8.06156e-05
-1.12797e-05
-6.84707e-05
-1.2145e-05
-5.53292e-05
-1.31415e-05
-4.13692e-05
-1.396e-05
-2.64885e-05
-1.48808e-05
-1.09597e-05
-1.55289e-05
5.28922e-06
-1.6249e-05
2.2108e-05
-1.68188e-05
3.93591e-05
-1.72512e-05
5.68653e-05
-1.75062e-05
7.44674e-05
-1.76021e-05
9.19689e-05
-1.75016e-05
0.000109105
-1.71363e-05
0.000125643
-1.65378e-05
0.000141349
-1.57062e-05
0.000155899
-1.45504e-05
0.000169081
-1.31816e-05
0.000180661
-1.15807e-05
0.000190392
-9.73046e-06
0.000198078
-7.68651e-06
0.00020357
-5.49138e-06
0.000206724
-3.15487e-06
0.000207436
-7.11454e-07
0.000205738
1.69784e-06
0.000201546
4.1917e-06
0.000195032
6.51404e-06
0.000186304
8.72856e-06
0.000175554
1.07495e-05
0.000162952
1.26019e-05
0.000148747
1.42054e-05
0.000133196
1.55511e-05
0.000116561
1.66346e-05
9.9116e-05
1.74448e-05
8.10917e-05
1.80243e-05
6.2738e-05
1.83536e-05
4.43084e-05
1.84296e-05
2.60126e-05
1.82959e-05
8.03962e-06
1.7973e-05
-9.39346e-06
1.74331e-05
-2.61724e-05
1.67789e-05
-4.22029e-05
1.60305e-05
-5.73549e-05
1.51519e-05
-7.15829e-05
1.4228e-05
-8.4871e-05
1.32882e-05
-9.72208e-05
1.23498e-05
-0.000108614
1.13932e-05
-0.000119016
1.04024e-05
-0.000128436
9.41912e-06
-0.000136914
8.4779e-06
-0.000144499
7.58537e-06
-0.000151165
6.6657e-06
-0.000156991
5.82636e-06
-0.00016197
4.97949e-06
-0.000166147
4.17688e-06
-0.000169542
3.39435e-06
-0.000172159
2.61711e-06
-0.00017405
1.89107e-06
-0.000175212
1.16173e-06
-0.000175712
4.99977e-07
-0.000175517
-1.94958e-07
-0.000174667
-8.49644e-07
-0.00017316
-1.50695e-06
-0.000170963
-2.19705e-06
-0.000168107
-2.85631e-06
-0.000164542
-3.56452e-06
-0.000160238
-4.3041e-06
-0.000155113
-5.1256e-06
-0.000149321
-5.7918e-06
-0.000142677
-6.64396e-06
-0.000135291
-7.38607e-06
-0.000126931
-8.35944e-06
-0.000117873
-9.05851e-06
-0.000107746
-1.0127e-05
-9.67555e-05
-1.09903e-05
-8.48243e-05
-1.19312e-05
-7.17939e-05
-1.30304e-05
-5.77972e-05
-1.39968e-05
-4.2774e-05
-1.50233e-05
-2.6925e-05
-1.58491e-05
-1.02774e-05
-1.66476e-05
7.16724e-06
-1.74447e-05
2.52036e-05
-1.80364e-05
4.35783e-05
-1.83747e-05
6.22323e-05
-1.86541e-05
8.08924e-05
-1.86601e-05
9.93681e-05
-1.84758e-05
0.000117429
-1.80608e-05
0.000134679
-1.72502e-05
0.000151021
-1.6342e-05
0.000166128
-1.51076e-05
0.000179597
-1.34691e-05
0.000191332
-1.1735e-05
0.000201064
-9.73155e-06
0.000208487
-7.42289e-06
0.000213572
-5.08511e-06
0.000216131
-2.5589e-06
0.00021621
-7.9647e-08
0.000213763
2.44704e-06
0.000208733
5.02952e-06
0.000201361
7.37256e-06
0.000191835
9.52613e-06
0.000180294
1.15409e-05
0.000167009
1.32844e-05
0.000152202
1.48072e-05
0.00013632
1.58823e-05
0.000119387
1.69324e-05
0.000101955
1.74318e-05
8.39986e-05
1.79568e-05
6.60121e-05
1.79865e-05
4.81008e-05
1.79113e-05
3.0474e-05
1.76267e-05
1.34273e-05
1.70467e-05
-3.07725e-06
1.65045e-05
-1.88717e-05
1.57944e-05
-3.38702e-05
1.49985e-05
-4.80134e-05
1.41432e-05
-6.13026e-05
1.32892e-05
-7.37178e-05
1.24152e-05
-8.52417e-05
1.15239e-05
-9.59029e-05
1.06612e-05
-0.000105711
9.80795e-06
-0.000114711
9.0005e-06
-0.000122911
8.19983e-06
-0.00013033
7.41911e-06
-0.000136984
6.65352e-06
-0.000142894
5.90983e-06
-0.000148043
5.14954e-06
-0.000152454
4.41038e-06
-0.000156125
3.67124e-06
-0.000159047
2.92186e-06
-0.000161214
2.16782e-06
-0.000162633
1.41892e-06
-0.000163309
6.7597e-07
-0.000163151
-1.58666e-07
-0.000162129
-1.02211e-06
-0.000160274
-1.85486e-06
-0.000157597
-2.67657e-06
-0.000154034
-3.56312e-06
-0.000149692
-4.34161e-06
-0.000144379
-5.31365e-06
-0.000138251
-6.12766e-06
-0.000131356
-6.89516e-06
-0.000123435
-7.92084e-06
-0.00011467
-8.76495e-06
-0.000105075
-9.5955e-06
-9.44445e-05
-1.06301e-05
-8.30375e-05
-1.14071e-05
-7.06818e-05
-1.23557e-05
-5.76021e-05
-1.30797e-05
-4.37674e-05
-1.38347e-05
-2.90527e-05
-1.47146e-05
-1.36135e-05
-1.54392e-05
-1.61228e-05
0.000217103
1.10354e-05
0.000209745
1.4714e-05
0.000200251
1.89845e-05
0.000188691
2.31129e-05
0.000175553
2.62692e-05
0.000160804
2.94879e-05
0.000144848
3.19067e-05
0.000127853
3.39754e-05
0.000109984
3.5728e-05
9.17296e-05
3.64972e-05
7.31148e-05
3.72194e-05
5.45904e-05
3.70394e-05
3.61324e-05
3.69086e-05
1.81835e-05
3.58814e-05
7.26084e-07
3.49145e-05
-1.61056e-05
3.36603e-05
-3.2148e-05
3.20811e-05
-4.73205e-05
3.03414e-05
-6.1603e-05
2.85615e-05
-7.49192e-05
2.66304e-05
-8.7259e-05
2.46752e-05
-9.8635e-05
2.27475e-05
-0.000109045
2.08208e-05
-0.000118491
1.88928e-05
-0.000127015
1.70483e-05
-0.000134643
1.52564e-05
-0.000141401
1.35109e-05
-0.000147322
1.18425e-05
-0.000152448
1.02566e-05
-0.000156805
8.71368e-06
-0.000160437
7.26357e-06
-0.000163348
5.82147e-06
-0.000165586
4.47493e-06
-0.000167149
3.12614e-06
-0.000168097
1.89718e-06
-0.000168415
6.36743e-07
-0.00016804
-7.51025e-07
-0.000167003
-2.07261e-06
-0.000165339
-3.32706e-06
-0.000162933
-4.81848e-06
-0.000159852
-6.17663e-06
-0.000155967
-7.7566e-06
-0.000151362
-9.20881e-06
-0.000146011
-1.07054e-05
-0.000139814
-1.23842e-05
-0.000132688
-1.42629e-05
-0.000124879
-1.56169e-05
-0.000115988
-1.77983e-05
-0.000106237
-1.94886e-05
-9.56484e-05
-2.11815e-05
-8.39723e-05
-2.33472e-05
-7.14785e-05
-2.49897e-05
-5.79243e-05
-2.71053e-05
-4.34346e-05
-2.89814e-05
-2.8333e-05
-3.01921e-05
-1.2352e-05
-3.19603e-05
4.31602e-06
-3.33268e-05
2.14299e-05
-3.42203e-05
3.90238e-05
-3.51767e-05
5.68433e-05
-3.56386e-05
7.47824e-05
-3.58714e-05
9.27586e-05
-3.59408e-05
0.000110346
-3.51681e-05
0.000127498
-3.42794e-05
0.000143959
-3.29137e-05
0.000159452
-3.09742e-05
0.000173868
-2.88256e-05
0.000186924
-2.61003e-05
0.000198557
-2.3257e-05
0.000208525
-1.99145e-05
0.000216628
-1.6211e-05
0.000222814
-1.23628e-05
0.000226944
-8.2654e-06
0.000228899
-3.9023e-06
0.000228691
4.12062e-07
0.000226277
4.82691e-06
0.000221796
8.96216e-06
0.000215279
1.30267e-05
0.000206857
1.68444e-05
0.000196538
2.06224e-05
0.000184659
2.37531e-05
0.000171252
2.68021e-05
0.000156618
2.92582e-05
0.000140962
3.12945e-05
0.00012448
3.29498e-05
0.000107361
3.42257e-05
8.98073e-05
3.50916e-05
7.21059e-05
3.53904e-05
5.4269e-05
3.56629e-05
3.66189e-05
3.52914e-05
1.92116e-05
3.47983e-05
2.16891e-06
3.4069e-05
-1.42589e-05
3.28407e-05
-3.00565e-05
3.15889e-05
-4.51145e-05
3.01073e-05
-5.92381e-05
2.82422e-05
-7.24507e-05
2.64304e-05
-8.47465e-05
2.459e-05
-9.60185e-05
2.25393e-05
-0.000106286
2.05391e-05
-0.000115562
1.85574e-05
-0.000123826
1.6531e-05
-0.000131167
1.46732e-05
-0.000137565
1.28084e-05
-0.000143058
1.09807e-05
-0.000147701
9.30044e-06
-0.000151589
7.77612e-06
-0.000154746
6.31315e-06
-0.000157197
4.90498e-06
-0.000158959
3.52628e-06
-0.000160062
2.20435e-06
-0.000160529
9.43842e-07
-0.00016034
-3.69278e-07
-0.000159506
-1.66752e-06
-0.00015805
-2.91256e-06
-0.000155944
-4.21025e-06
-0.000153164
-5.56549e-06
-0.000149775
-6.77855e-06
-0.000145785
-7.97906e-06
-0.000141096
-9.37596e-06
-0.000135743
-1.07093e-05
-0.00012967
-1.21523e-05
-0.000123018
-1.32884e-05
-0.00011561
-1.48179e-05
-0.000107495
-1.62337e-05
-9.87058e-05
-1.75793e-05
-8.91614e-05
-1.90907e-05
-7.88526e-05
-2.06196e-05
-6.78598e-05
-2.19797e-05
-5.60786e-05
-2.35624e-05
-4.35664e-05
-2.5024e-05
-3.03509e-05
-2.64279e-05
-1.64375e-05
-2.78199e-05
-1.85645e-06
-2.91638e-05
1.32927e-05
-3.02946e-05
2.89991e-05
-3.14106e-05
4.51359e-05
-3.22658e-05
6.15616e-05
-3.28441e-05
7.81547e-05
-3.31783e-05
9.47277e-05
-3.3144e-05
0.000111113
-3.27646e-05
0.000127096
-3.19477e-05
0.000142454
-3.07123e-05
0.000156952
-2.89818e-05
0.000170394
-2.6885e-05
0.000182488
-2.41761e-05
0.000193109
-2.12281e-05
0.000201954
-1.76788e-05
0.000208885
-1.38554e-05
0.000213699
-9.62968e-06
0.000216266
-5.1325e-06
0.000216574
-6.18868e-07
0.000214522
4.09264e-06
0.000210129
8.77753e-06
0.000203498
1.32602e-05
0.000194648
1.76894e-05
0.000183845
2.15915e-05
0.000171178
2.53285e-05
0.000156907
2.85362e-05
0.000141264
3.1271e-05
0.00012453
3.34467e-05
0.00010699
3.50688e-05
8.88645e-05
3.62381e-05
7.04931e-05
3.6734e-05
5.20387e-05
3.69006e-05
3.37935e-05
3.64861e-05
1.59266e-05
3.57256e-05
-1.35054e-06
3.45429e-05
-1.79521e-05
3.32001e-05
-3.38443e-05
3.17813e-05
-4.88829e-05
3.00748e-05
-6.29968e-05
2.82286e-05
-7.61437e-05
2.62931e-05
-8.83127e-05
2.43383e-05
-9.94131e-05
2.21944e-05
-0.000109489
2.01563e-05
-0.000118547
1.81192e-05
-0.000126642
1.61973e-05
-0.000133783
1.429e-05
-0.000140136
1.2705e-05
-0.000145693
1.1119e-05
-0.000150498
9.60751e-06
-0.000154612
8.23144e-06
-0.000158014
6.81066e-06
-0.000160791
5.55037e-06
-0.000162989
4.39318e-06
-0.000164509
3.04756e-06
-0.000165453
1.89342e-06
-0.000165752
5.99011e-07
-0.00016547
-5.6765e-07
-0.00016455
-1.83319e-06
-0.000163031
-3.03069e-06
-0.00016094
-4.18833e-06
-0.000158212
-5.46113e-06
-0.000154868
-6.69208e-06
-0.000150885
-7.96469e-06
-0.000146237
-9.29976e-06
-0.000140868
-1.07389e-05
-0.000134773
-1.21875e-05
-0.0001279
-1.37462e-05
-0.000120174
-1.54542e-05
-0.000111705
-1.69463e-05
-0.000102269
-1.88767e-05
-9.19701e-05
-2.05937e-05
-8.06891e-05
-2.25608e-05
-6.854e-05
-2.42942e-05
-5.54028e-05
-2.62789e-05
-4.1438e-05
-2.7925e-05
-2.65476e-05
-2.97712e-05
-1.10178e-05
-3.10588e-05
5.23953e-06
-3.25064e-05
2.20704e-05
-3.36498e-05
3.93212e-05
-3.45021e-05
5.68322e-05
-3.50174e-05
7.44488e-05
-3.52189e-05
9.19573e-05
-3.50102e-05
0.000109092
-3.4271e-05
0.00012565
-3.30962e-05
0.000141373
-3.14293e-05
0.000155932
-2.91095e-05
0.000169125
-2.63743e-05
0.000180715
-2.31708e-05
0.00019045
-1.94661e-05
0.000198143
-1.53789e-05
0.000203634
-1.09831e-05
0.000206803
-6.32327e-06
0.000207517
-1.42571e-06
0.000205803
3.41176e-06
0.000201601
8.39307e-06
0.000195088
1.3027e-05
0.000186348
1.74683e-05
0.000175579
2.1519e-05
0.000162966
2.52147e-05
0.000148784
2.83877e-05
0.000133197
3.11382e-05
0.00011658
3.32512e-05
9.90881e-05
3.49366e-05
8.10564e-05
3.6056e-05
6.26955e-05
3.67146e-05
4.42505e-05
3.68745e-05
2.59371e-05
3.66092e-05
7.96191e-06
3.59481e-05
-9.4749e-06
3.48699e-05
-2.62627e-05
3.35667e-05
-4.22889e-05
3.20567e-05
-5.74494e-05
3.03125e-05
-7.16784e-05
2.8457e-05
-8.49642e-05
2.6574e-05
-9.72917e-05
2.46772e-05
-0.000108711
2.28123e-05
-0.000119115
2.08065e-05
-0.000128527
1.88312e-05
-0.000136995
1.69465e-05
-0.000144582
1.51723e-05
-0.000151246
1.33292e-05
-0.000157071
1.16518e-05
-0.000162052
9.95992e-06
-0.00016623
8.35484e-06
-0.000169627
6.7918e-06
-0.000172236
5.22547e-06
-0.000174119
3.77436e-06
-0.000175279
2.32153e-06
-0.00017578
1.00119e-06
-0.000175591
-3.84178e-07
-0.000174738
-1.70256e-06
-0.00017323
-3.01431e-06
-0.00017104
-4.38757e-06
-0.000168183
-5.71327e-06
-0.000164617
-7.13062e-06
-0.00016031
-8.61122e-06
-0.000155186
-1.02495e-05
-0.000149399
-1.15786e-05
-0.000142748
-1.32954e-05
-0.000135366
-1.47673e-05
-0.000127
-1.67262e-05
-0.000117944
-1.81146e-05
-0.000107813
-2.0258e-05
-9.68237e-05
-2.19794e-05
-8.48914e-05
-2.38636e-05
-7.18503e-05
-2.60716e-05
-5.78543e-05
-2.79928e-05
-4.28457e-05
-3.0032e-05
-2.69785e-05
-3.17163e-05
-1.03225e-05
-3.33037e-05
7.13636e-06
-3.49036e-05
2.51814e-05
-3.60816e-05
4.35662e-05
-3.67596e-05
6.22384e-05
-3.73265e-05
8.09085e-05
-3.73302e-05
9.93915e-05
-3.69589e-05
0.00011747
-3.61391e-05
0.00013474
-3.45208e-05
0.000151092
-3.2694e-05
0.000166207
-3.02222e-05
0.000179694
-2.69564e-05
0.000191445
-2.3486e-05
0.000201181
-1.94679e-05
0.000208608
-1.48504e-05
0.000213705
-1.01815e-05
0.000216272
-5.12606e-06
0.000216343
-1.50831e-07
0.000213887
4.90322e-06
0.000208856
1.006e-05
0.00020148
1.47486e-05
0.000191942
1.90636e-05
0.000180392
2.30911e-05
0.000167093
2.6583e-05
0.000152277
2.96235e-05
0.000136381
3.17781e-05
0.000119433
3.38803e-05
0.000101984
3.48806e-05
8.40265e-05
3.59146e-05
6.60194e-05
3.59936e-05
4.81013e-05
3.58294e-05
3.04624e-05
3.52656e-05
1.34117e-05
3.40974e-05
-3.09953e-06
3.30158e-05
-1.88984e-05
3.15933e-05
-3.3901e-05
3.0001e-05
-4.80476e-05
2.82898e-05
-6.13398e-05
2.65814e-05
-7.37559e-05
2.48313e-05
-8.52808e-05
2.30487e-05
-9.59458e-05
2.13262e-05
-0.000105755
1.96171e-05
-0.000114754
1.79995e-05
-0.000122954
1.64002e-05
-0.000130376
1.48411e-05
-0.000137034
1.33108e-05
-0.000142942
1.18186e-05
-0.000148091
1.02981e-05
-0.000152505
8.82392e-06
-0.000156176
7.34234e-06
-0.000159097
5.84335e-06
-0.000161269
4.33957e-06
-0.000162693
2.84273e-06
-0.00016336
1.34318e-06
-0.000163201
-3.17265e-07
-0.00016218
-2.04303e-06
-0.000160325
-3.70981e-06
-0.000157648
-5.35375e-06
-0.000154082
-7.12918e-06
-0.000149742
-8.68163e-06
-0.000144427
-1.06291e-05
-0.000138298
-1.22565e-05
-0.000131403
-1.37898e-05
-0.00012348
-1.58443e-05
-0.000114714
-1.75311e-05
-0.000105114
-1.91955e-05
-9.44842e-05
-2.12595e-05
-8.30743e-05
-2.28169e-05
-7.07155e-05
-2.47145e-05
-5.76314e-05
-2.61637e-05
-4.37943e-05
-2.76718e-05
-2.9077e-05
-2.94319e-05
-1.36338e-05
-3.08825e-05
-3.22504e-05
0.000217277
1.65615e-05
0.000209909
2.20824e-05
0.000200402
2.84919e-05
0.000188826
3.46888e-05
0.00017567
3.94254e-05
0.000160902
4.42556e-05
0.000144932
4.78764e-05
0.000127911
5.09967e-05
0.000110025
5.36138e-05
9.17493e-05
5.47731e-05
7.31191e-05
5.58497e-05
5.45779e-05
5.55806e-05
3.61123e-05
5.53742e-05
1.81305e-05
5.38633e-05
6.70067e-07
5.2375e-05
-1.61708e-05
5.05012e-05
-3.22212e-05
4.81316e-05
-4.74008e-05
4.5521e-05
-6.16897e-05
4.28503e-05
-7.50075e-05
3.99483e-05
-8.73475e-05
3.70152e-05
-9.87231e-05
3.41231e-05
-0.000109132
3.12299e-05
-0.000118577
2.83381e-05
-0.000127099
2.55701e-05
-0.000134727
2.28844e-05
-0.000141482
2.02653e-05
-0.000147402
1.77631e-05
-0.000152531
1.53857e-05
-0.000156887
1.3069e-05
-0.000160519
1.08965e-05
-0.000163429
8.73123e-06
-0.000165667
6.71243e-06
-0.000167228
4.68699e-06
-0.000168169
2.83896e-06
-0.000168474
9.41296e-07
-0.000168091
-1.13367e-06
-0.000167053
-3.11104e-06
-0.000165388
-4.99162e-06
-0.000162992
-7.21499e-06
-0.00015991
-9.25889e-06
-0.000156028
-1.16382e-05
-0.000151421
-1.38154e-05
-0.000146073
-1.60541e-05
-0.00013987
-1.85871e-05
-0.000132757
-2.13755e-05
-0.000124947
-2.34267e-05
-0.00011608
-2.66661e-05
-0.000106309
-2.92595e-05
-9.57268e-05
-3.17635e-05
-8.40439e-05
-3.50301e-05
-7.15538e-05
-3.74798e-05
-5.79956e-05
-4.06636e-05
-4.35058e-05
-4.34712e-05
-2.83922e-05
-4.53059e-05
-1.24078e-05
-4.79448e-05
4.26832e-06
-5.0003e-05
2.13897e-05
-5.13418e-05
3.89973e-05
-5.27844e-05
5.68265e-05
-5.34679e-05
7.47762e-05
-5.38211e-05
9.27682e-05
-5.39329e-05
0.000110367
-5.2767e-05
0.000127536
-5.14487e-05
0.000144013
-4.93902e-05
0.00015952
-4.64818e-05
0.000173953
-4.3258e-05
0.000187022
-3.91702e-05
0.000198666
-3.49004e-05
0.000208652
-2.9901e-05
0.000216761
-2.43195e-05
0.000222957
-1.85589e-05
0.000227085
-1.23943e-05
0.00022905
-5.86649e-06
0.000228841
6.20317e-07
0.000226424
7.24456e-06
0.000221949
1.34372e-05
0.000215426
1.95495e-05
0.000206999
2.52711e-05
0.000196658
3.09627e-05
0.000184771
3.56408e-05
0.00017134
4.02331e-05
0.000156691
4.39071e-05
0.000141011
4.6974e-05
0.000124504
4.9457e-05
0.000107365
5.13651e-05
8.97913e-05
5.2665e-05
7.2076e-05
5.31058e-05
5.42154e-05
5.35235e-05
3.65548e-05
5.2952e-05
1.91393e-05
5.22138e-05
2.07524e-06
5.11331e-05
-1.4373e-05
4.92889e-05
-3.01724e-05
4.73884e-05
-4.52465e-05
4.51814e-05
-5.93804e-05
4.23761e-05
-7.25792e-05
3.96293e-05
-8.48763e-05
3.68871e-05
-9.61658e-05
3.38288e-05
-0.000106445
3.08179e-05
-0.000115717
2.78297e-05
-0.000123957
2.47714e-05
-0.000131322
2.20378e-05
-0.000137704
1.91908e-05
-0.000143197
1.64732e-05
-0.00014783
1.39339e-05
-0.000151722
1.16675e-05
-0.000154871
9.46275e-06
-0.000157321
7.35467e-06
-0.000159086
5.29182e-06
-0.00016019
3.30826e-06
-0.000160649
1.40241e-06
-0.000160461
-5.56775e-07
-0.000159623
-2.50594e-06
-0.000158159
-4.37693e-06
-0.000156027
-6.3419e-06
-0.000153283
-8.30982e-06
-0.000149936
-1.01256e-05
-0.000145904
-1.20111e-05
-0.000141214
-1.40659e-05
-0.000135856
-1.6067e-05
-0.000129821
-1.81874e-05
-0.000123135
-1.99741e-05
-0.000115719
-2.22338e-05
-0.000107624
-2.43292e-05
-9.88266e-05
-2.63766e-05
-8.92793e-05
-2.8638e-05
-7.89787e-05
-3.09203e-05
-6.79813e-05
-3.29772e-05
-5.62025e-05
-3.53414e-05
-4.36819e-05
-3.75447e-05
-3.04625e-05
-3.96474e-05
-1.65155e-05
-4.1767e-05
-1.96183e-06
-4.37176e-05
1.31959e-05
-4.54525e-05
2.89122e-05
-4.7127e-05
4.50617e-05
-4.84156e-05
6.14975e-05
-4.928e-05
7.81017e-05
-4.97827e-05
9.4689e-05
-4.97314e-05
0.000111095
-4.91704e-05
0.000127093
-4.79462e-05
0.000142472
-4.60915e-05
0.000156983
-4.34925e-05
0.000170432
-4.03342e-05
0.000182552
-3.62961e-05
0.000193193
-3.18699e-05
0.000202054
-2.65402e-05
0.000209004
-2.08052e-05
0.00021383
-1.44561e-05
0.000216401
-7.70303e-06
0.000216697
-9.1536e-07
0.000214628
6.16174e-06
0.000210234
1.31719e-05
0.000203608
1.98854e-05
0.000194735
2.65628e-05
0.00018391
3.24163e-05
0.000171238
3.80004e-05
0.000156944
4.28306e-05
0.000141285
4.69297e-05
0.000124538
5.0193e-05
0.000106985
5.26218e-05
8.88288e-05
5.43946e-05
7.04312e-05
5.51316e-05
5.19608e-05
5.5371e-05
3.37022e-05
5.47447e-05
1.58162e-05
5.36117e-05
-1.4758e-06
5.18349e-05
-1.81117e-05
4.98359e-05
-3.39812e-05
4.76508e-05
-4.90282e-05
4.51218e-05
-6.31392e-05
4.23396e-05
-7.6295e-05
3.94488e-05
-8.84659e-05
3.65092e-05
-9.95662e-05
3.32947e-05
-0.000109637
3.02267e-05
-0.000118695
2.71775e-05
-0.000126778
2.428e-05
-0.000133901
2.14135e-05
-0.000140274
1.90777e-05
-0.000145836
1.66816e-05
-0.000150638
1.44096e-05
-0.000154731
1.23238e-05
-0.000158134
1.02135e-05
-0.000160938
8.35487e-06
-0.000163112
6.56733e-06
-0.000164633
4.56816e-06
-0.000165579
2.83953e-06
-0.000165872
8.92453e-07
-0.000165585
-8.54905e-07
-0.000164663
-2.75525e-06
-0.000163147
-4.54674e-06
-0.000161062
-6.27386e-06
-0.000158334
-8.18832e-06
-0.000154989
-1.00378e-05
-0.000151004
-1.19498e-05
-0.000146358
-1.39458e-05
-0.000140991
-1.61054e-05
-0.000134894
-1.82848e-05
-0.000128026
-2.0614e-05
-0.000120304
-2.3176e-05
-0.000111837
-2.54132e-05
-0.000102415
-2.82994e-05
-9.21057e-05
-3.09028e-05
-8.08296e-05
-3.38369e-05
-6.8676e-05
-3.64478e-05
-5.55449e-05
-3.94101e-05
-4.1561e-05
-4.1909e-05
-2.66628e-05
-4.46695e-05
-1.11325e-05
-4.65892e-05
5.13732e-06
-4.87763e-05
2.19806e-05
-5.04931e-05
3.92468e-05
-5.17685e-05
5.67773e-05
-5.25481e-05
7.44083e-05
-5.28501e-05
9.1934e-05
-5.25359e-05
0.000109079
-5.1416e-05
0.000125675
-4.96927e-05
0.000141419
-4.7173e-05
0.000156001
-4.36915e-05
0.00016921
-3.95841e-05
0.000180836
-3.47964e-05
0.000190562
-2.91926e-05
0.000198268
-2.30851e-05
0.000203772
-1.64866e-05
0.000206927
-9.47916e-06
0.000207651
-2.14918e-06
0.000205935
5.1277e-06
0.000201723
1.26053e-05
0.000195203
1.9546e-05
0.000186442
2.62296e-05
0.000175654
3.23074e-05
0.000163024
3.78447e-05
0.000148807
4.2604e-05
0.000133218
4.67277e-05
0.000116579
4.98894e-05
9.90754e-05
5.24406e-05
8.10278e-05
5.41036e-05
6.26471e-05
5.50952e-05
4.41793e-05
5.53423e-05
2.58434e-05
5.49451e-05
7.85881e-06
5.39327e-05
-9.589e-06
5.23177e-05
-2.63914e-05
5.03691e-05
-4.24204e-05
4.80857e-05
-5.75921e-05
4.54841e-05
-7.18272e-05
4.26922e-05
-8.51232e-05
3.987e-05
-9.74386e-05
3.69926e-05
-0.000108868
3.42419e-05
-0.000119266
3.12043e-05
-0.000128674
2.82391e-05
-0.00013714
2.5412e-05
-0.000144726
2.27586e-05
-0.000151382
1.99853e-05
-0.000157207
1.7477e-05
-0.000162196
1.49483e-05
-0.000166368
1.2527e-05
-0.000169763
1.01868e-05
-0.000172367
7.82924e-06
-0.000174254
5.66149e-06
-0.00017542
3.48756e-06
-0.000175912
1.49293e-06
-0.000175711
-5.85216e-07
-0.000174851
-2.56199e-06
-0.000173342
-4.52305e-06
-0.000171155
-6.57514e-06
-0.000168292
-8.57593e-06
-0.000164726
-1.06969e-05
-0.000160422
-1.29152e-05
-0.000155287
-1.53846e-05
-0.000149503
-1.73629e-05
-0.000142847
-1.99509e-05
-0.000135465
-2.21495e-05
-0.000127087
-2.51046e-05
-0.000118039
-2.71625e-05
-0.000107904
-3.03933e-05
-9.69182e-05
-3.29649e-05
-8.49836e-05
-3.57982e-05
-7.19311e-05
-3.91242e-05
-5.79378e-05
-4.19862e-05
-4.29441e-05
-4.50258e-05
-2.7057e-05
-4.76036e-05
-1.0391e-05
-4.99698e-05
7.08188e-06
-5.23766e-05
2.5139e-05
-5.41388e-05
4.35358e-05
-5.51566e-05
6.22318e-05
-5.60225e-05
8.09088e-05
-5.60074e-05
9.94133e-05
-5.54635e-05
0.000117526
-5.42515e-05
0.000134815
-5.18106e-05
0.000151183
-4.90622e-05
0.000166326
-4.53649e-05
0.000179832
-4.0463e-05
0.000191604
-3.52575e-05
0.000201343
-2.92067e-05
0.000208799
-2.23071e-05
0.000213909
-1.52917e-05
0.000216481
-7.69757e-06
0.000216544
-2.13628e-07
0.000214068
7.37882e-06
0.000209033
1.50947e-05
0.000201652
2.21297e-05
0.000192095
2.86207e-05
0.000180529
3.46564e-05
0.000167205
3.99072e-05
0.000152382
4.44465e-05
0.000136458
4.77023e-05
0.000119487
5.08507e-05
0.000102002
5.2366e-05
8.40601e-05
5.38566e-05
6.60064e-05
5.40472e-05
4.80798e-05
5.3756e-05
3.04221e-05
5.29232e-05
1.33671e-05
5.11524e-05
-3.15833e-06
4.95411e-05
-1.89643e-05
4.73992e-05
-3.39719e-05
4.50086e-05
-4.81217e-05
4.24397e-05
-6.14171e-05
3.98767e-05
-7.38329e-05
3.7247e-05
-8.5357e-05
3.45729e-05
-9.60216e-05
3.19908e-05
-0.000105832
2.94276e-05
-0.000114831
2.69985e-05
-0.000123029
2.45984e-05
-0.000130451
2.22626e-05
-0.000137105
1.99646e-05
-0.000143013
1.77275e-05
-0.000148161
1.54459e-05
-0.000152574
1.32362e-05
-0.000156248
1.10163e-05
-0.000159169
8.76498e-06
-0.000161337
6.50713e-06
-0.00016276
4.26558e-06
-0.000163429
2.01234e-06
-0.000163269
-4.77153e-07
-0.000162241
-3.0705e-06
-0.000160387
-5.5645e-06
-0.000157713
-8.02724e-06
-0.000154148
-1.06947e-05
-0.000149811
-1.30186e-05
-0.000144492
-1.59474e-05
-0.000138364
-1.83844e-05
-0.000131471
-2.0683e-05
-0.000123545
-2.37703e-05
-0.000114779
-2.6297e-05
-0.000105174
-2.88005e-05
-9.45488e-05
-3.1885e-05
-8.31362e-05
-3.42296e-05
-7.07747e-05
-3.7076e-05
-5.76846e-05
-3.92538e-05
-4.38448e-05
-4.15115e-05
-2.9124e-05
-4.41527e-05
-1.3674e-05
-4.63325e-05
-4.83871e-05
0.000217539
2.20997e-05
0.000210155
2.94665e-05
0.000200628
3.80191e-05
0.000189028
4.62889e-05
0.000175845
5.26086e-05
0.000161048
5.90523e-05
0.000145055
6.38692e-05
0.000127998
6.80541e-05
0.000110088
7.15235e-05
9.17787e-05
7.30825e-05
7.31268e-05
7.45016e-05
5.45586e-05
7.41488e-05
3.60862e-05
7.38466e-05
1.80526e-05
7.18969e-05
5.85878e-07
6.98417e-05
-1.62697e-05
6.73568e-05
-3.23315e-05
6.41934e-05
-4.75201e-05
6.07096e-05
-6.18172e-05
5.71474e-05
-7.51376e-05
5.32688e-05
-8.74806e-05
4.93582e-05
-9.88594e-05
4.55019e-05
-0.000109266
4.16362e-05
-0.00011871
3.7782e-05
-0.000127231
3.40913e-05
-0.000134856
3.05101e-05
-0.00014161
2.70184e-05
-0.000147529
2.3683e-05
-0.000152656
2.05121e-05
-0.000157011
1.74242e-05
-0.000160644
1.45293e-05
-0.000163554
1.16417e-05
-0.000165792
8.95014e-06
-0.000167352
6.24742e-06
-0.000168283
3.76991e-06
-0.000168563
1.22126e-06
-0.000168168
-1.52933e-06
-0.000167128
-4.15099e-06
-0.000165463
-6.65658e-06
-0.00016308
-9.5973e-06
-0.000159998
-1.23417e-05
-0.00015612
-1.55161e-05
-0.000151512
-1.84237e-05
-0.000146167
-2.1399e-05
-0.000139959
-2.4795e-05
-0.000132862
-2.84729e-05
-0.00012505
-3.12381e-05
-0.000116209
-3.55073e-05
-0.000106417
-3.90511e-05
-9.58452e-05
-4.23358e-05
-8.41521e-05
-4.67233e-05
-7.16676e-05
-4.99644e-05
-5.81035e-05
-5.42277e-05
-4.36168e-05
-5.79581e-05
-2.84824e-05
-6.04403e-05
-1.24918e-05
-6.39354e-05
4.19559e-06
-6.66905e-05
2.13267e-05
-6.8473e-05
3.89653e-05
-7.04232e-05
5.67998e-05
-7.13024e-05
7.47629e-05
-7.17843e-05
9.27723e-05
-7.19424e-05
0.000110395
-7.03894e-05
0.000127576
-6.86298e-05
0.00014409
-6.5905e-05
0.000159619
-6.20107e-05
0.000174076
-5.77146e-05
0.000187165
-5.22596e-05
0.000198829
-4.65642e-05
0.000208833
-3.99059e-05
0.000216955
-3.24414e-05
0.000223166
-2.47695e-05
0.000227293
-1.65218e-05
0.000229269
-7.84186e-06
0.000229065
8.23711e-07
0.000226649
9.66079e-06
0.000222179
1.79071e-05
0.000215643
2.60859e-05
0.000207208
3.3706e-05
0.000196836
4.13342e-05
0.000184936
4.75413e-05
0.000171467
5.37015e-05
0.000156801
5.85731e-05
0.00014108
6.2695e-05
0.000124539
6.59978e-05
0.000107374
6.85306e-05
8.97636e-05
7.02753e-05
7.20162e-05
7.08533e-05
5.41325e-05
7.14073e-05
3.6454e-05
7.06305e-05
1.90549e-05
6.96129e-05
1.93279e-06
6.82552e-05
-1.45473e-05
6.57691e-05
-3.03504e-05
6.31914e-05
-4.54396e-05
6.02707e-05
-5.95968e-05
5.65333e-05
-7.28302e-05
5.28627e-05
-8.50832e-05
4.91401e-05
-9.63778e-05
4.51234e-05
-0.000106665
4.11046e-05
-0.000115944
3.71089e-05
-0.000124171
3.29982e-05
-0.000131546
2.94135e-05