/*--------------------------------*- C++ -*----------------------------------*\
| =========                 |                                                 |
| \\      /  F ield         | OpenFOAM: The Open Source CFD Toolbox           |
|  \\    /   O peration     | Version:  3.0.1                                 |
|   \\  /    A nd           | Web:      www.OpenFOAM.org                      |
|    \\/     M anipulation  |                                                 |
\*---------------------------------------------------------------------------*/
FoamFile
{
    version     2.0;
    format      ascii;
    class       volScalarField;
    location    "25.2";
    object      p;
}
// * * * * * * * * * * * * * * * * * * * * * * * * * * * * * * * * * * * * * //

dimensions      [1 -1 -2 0 0 0 0];

internalField   nonuniform List<scalar> 
22680
(
3799.65
3822.17
3845.58
3869.84
3893.88
3919.51
3945.51
3971.71
3997.96
4024.09
4049.88
4075.12
4099.53
4122.88
4144.87
4165.24
4183.81
4200.37
4214.76
4226.83
4236.49
4243.64
4248.25
4250.25
4249.72
4246.67
4241.09
4233.04
4222.62
4209.94
4195.13
4178.32
4159.69
4139.41
4117.66
4094.67
4070.63
4045.76
4020.26
3994.34
3968.16
3941.87
3915.5
3894.24
3868.85
3844.31
3820.65
3797.93
3776.21
3755.58
3736.09
3717.79
3700.71
3684.89
3670.32
3657.02
3644.96
3634.15
3624.54
3616.1
3608.8
3602.61
3597.47
3593.34
3590.18
3587.94
3586.59
3586.07
3586.37
3587.48
3589.32
3591.89
3595.2
3599.23
3604
3609.52
3615.83
3622.94
3630.9
3639.76
3649.57
3660.37
3672.22
3685.15
3699.22
3714.45
3730.85
3748.44
3767.19
3787.09
3808.09
3830.12
3853.15
3877.11
3901.73
3926.89
3952.45
3978.25
4004.1
4029.79
4055.13
4079.88
4103.81
4126.7
4148.31
4168.41
4186.78
4203.21
4217.5
4229.49
4239.04
4246.02
4250.33
4251.92
4250.81
4247.01
4240.52
4231.45
4219.89
4205.99
4189.89
4171.78
4151.85
4130.33
4107.44
4083.42
4058.52
4032.97
4007.02
3980.92
3954.87
3929.09
3903.76
3879.05
3855.1
3832.02
3809.89
3788.8
3768.79
3749.88
3732.09
3715.43
3699.87
3685.39
3671.99
3659.63
3648.28
3637.92
3628.52
3620.06
3612.5
3605.84
3600.04
3595.08
3590.98
3587.73
3585.29
3583.69
3582.93
3583.03
3584.02
3585.9
3588.71
3592.47
3597.21
3602.96
3609.73
3617.56
3626.45
3636.42
3647.49
3659.67
3672.97
3687.39
3702.95
3719.64
3737.45
3756.35
3776.32
3797.31
3819.25
3842.06
3865.69
3890
3914.84
3940.09
3965.58
3991.14
4016.6
4041.76
4066.4
4090.33
4113.32
4135.17
4155.67
4174.63
4191.83
4207.12
4220.3
4231.24
4239.81
4245.87
4249.35
4250.22
4248.46
4244.02
4236.96
4227.33
4215.22
4200.75
4184.06
4165.32
4144.73
4122.48
4098.82
4074
4048.29
4022.01
3995.46
3968.96
3942.77
3917.33
3893.17
3869.34
3849.79
3701.48
3724
3747.41
3771.67
3795.73
3821.36
3847.36
3873.57
3899.83
3925.98
3951.78
3977.04
4001.46
4024.83
4046.84
4067.22
4085.81
4102.38
4116.78
4128.86
4138.52
4145.68
4150.29
4152.31
4151.76
4148.71
4143.12
4135.07
4124.64
4111.95
4097.12
4080.3
4061.66
4041.37
4019.6
3996.59
3972.54
3947.66
3922.15
3896.22
3870.04
3843.74
3817.39
3796.05
3770.67
3746.14
3722.48
3699.75
3678.04
3657.4
3637.91
3619.61
3602.53
3586.71
3572.14
3558.84
3546.79
3535.97
3526.36
3517.93
3510.64
3504.45
3499.31
3495.18
3492.02
3489.79
3488.44
3487.93
3488.23
3489.34
3491.18
3493.75
3497.06
3501.09
3505.86
3511.38
3517.68
3524.79
3532.75
3541.6
3551.4
3562.2
3574.04
3586.98
3601.04
3616.26
3632.66
3650.25
3669
3688.9
3709.91
3731.94
3754.97
3778.94
3803.57
3828.74
3854.31
3880.12
3905.98
3931.68
3957.03
3981.8
4005.75
4028.65
4050.28
4070.4
4088.78
4105.22
4119.53
4131.53
4141.08
4148.06
4152.39
4153.97
4152.86
4149.06
4142.56
4133.48
4121.91
4108
4091.88
4073.76
4053.82
4032.28
4009.38
3985.34
3960.42
3934.86
3908.9
3882.78
3856.72
3830.93
3805.59
3780.88
3756.92
3733.83
3711.71
3690.62
3670.61
3651.7
3633.92
3617.25
3601.69
3587.23
3573.83
3561.47
3550.12
3539.77
3530.37
3521.91
3514.35
3507.69
3501.89
3496.93
3492.83
3489.58
3487.14
3485.54
3484.78
3484.88
3485.86
3487.74
3490.55
3494.32
3499.06
3504.8
3511.57
3519.39
3528.28
3538.26
3549.32
3561.5
3574.8
3589.22
3604.78
3621.46
3639.27
3658.17
3678.15
3699.13
3721.07
3743.89
3767.52
3791.84
3816.69
3841.94
3867.44
3893.02
3918.49
3943.66
3968.31
3992.25
4015.26
4037.13
4057.64
4076.61
4093.83
4109.13
4122.32
4133.28
4141.85
4147.92
4151.39
4152.26
4150.51
4146.06
4138.99
4129.36
4117.24
4102.76
4086.06
4067.31
4046.69
4024.44
4000.76
3975.92
3950.2
3923.89
3897.32
3870.79
3844.58
3819.1
3794.93
3771.02
3751.09
3603.23
3625.75
3649.17
3673.43
3697.52
3723.16
3749.17
3775.4
3801.67
3827.85
3853.67
3878.96
3903.42
3926.82
3948.86
3969.29
3987.9
4004.49
4018.92
4031.02
4040.7
4047.87
4052.48
4054.51
4053.94
4050.88
4045.29
4037.22
4026.78
4014.07
3999.21
3982.37
3963.7
3943.38
3921.59
3898.55
3874.47
3849.57
3824.04
3798.09
3771.89
3745.59
3719.27
3697.75
3672.41
3647.89
3624.22
3601.5
3579.78
3559.14
3539.64
3521.34
3504.27
3488.44
3473.88
3460.58
3448.54
3437.73
3428.12
3419.7
3412.41
3406.22
3401.09
3396.97
3393.82
3391.59
3390.25
3389.73
3390.04
3391.15
3392.99
3395.57
3398.87
3402.9
3407.67
3413.19
3419.48
3426.58
3434.54
3443.38
3453.18
3463.97
3475.8
3488.72
3502.78
3518
3534.39
3551.98
3570.73
3590.63
3611.64
3633.68
3656.72
3680.71
3705.35
3730.53
3756.12
3781.95
3807.83
3833.57
3858.95
3883.74
3907.72
3930.66
3952.32
3972.47
3990.88
4007.34
4021.67
4033.7
4043.26
4050.26
4054.59
4056.17
4055.05
4051.25
4044.74
4035.65
4024.06
4010.12
3993.98
3975.82
3955.85
3934.28
3911.34
3887.28
3862.32
3836.73
3810.74
3784.6
3758.52
3732.71
3707.36
3682.63
3658.66
3635.57
3613.45
3592.36
3572.35
3553.44
3535.66
3519
3503.45
3488.99
3475.6
3463.24
3451.9
3441.55
3432.16
3423.7
3416.15
3409.49
3403.69
3398.74
3394.64
3391.39
3388.95
3387.34
3386.58
3386.68
3387.66
3389.54
3392.34
3396.1
3400.84
3406.58
3413.35
3421.17
3430.05
3440.02
3451.09
3463.26
3476.55
3490.97
3506.53
3523.21
3541.01
3559.92
3579.89
3600.88
3622.83
3645.65
3669.29
3693.62
3718.48
3743.75
3769.27
3794.87
3820.36
3845.55
3870.23
3894.2
3917.24
3939.14
3959.68
3978.68
3995.93
4011.25
4024.47
4035.44
4044.03
4050.12
4053.58
4054.45
4052.7
4048.24
4041.16
4031.51
4019.38
4004.87
3988.15
3969.37
3948.73
3926.45
3902.74
3877.88
3852.12
3825.77
3799.15
3772.57
3746.33
3720.85
3696.58
3672.8
3652.78
3504.9
3527.43
3550.86
3575.12
3599.26
3624.9
3650.94
3677.19
3703.49
3729.7
3755.57
3780.9
3805.41
3828.87
3850.96
3871.43
3890.08
3906.72
3921.17
3933.3
3943
3950.19
3954.82
3956.86
3956.27
3953.19
3947.59
3939.5
3929.03
3916.29
3901.4
3884.52
3865.81
3845.45
3823.61
3800.53
3776.42
3751.47
3725.91
3699.93
3673.71
3647.42
3621.16
3599.35
3574.07
3549.56
3525.9
3503.16
3481.44
3460.8
3441.3
3423
3405.93
3390.1
3375.55
3362.25
3350.21
3339.41
3329.81
3321.39
3314.12
3307.94
3302.81
3298.7
3295.56
3293.34
3292
3291.5
3291.82
3292.92
3294.77
3297.34
3300.65
3304.68
3309.44
3314.95
3321.23
3328.33
3336.27
3345.1
3354.88
3365.66
3377.48
3390.39
3404.43
3419.65
3436.03
3453.62
3472.37
3492.27
3513.29
3535.34
3558.39
3582.4
3607.06
3632.27
3657.89
3683.75
3709.67
3735.45
3760.87
3785.71
3809.74
3832.72
3854.42
3874.62
3893.07
3909.58
3923.95
3936
3945.59
3952.6
3956.95
3958.54
3957.41
3953.59
3947.07
3937.94
3926.33
3912.35
3896.17
3877.97
3857.96
3836.34
3813.35
3789.23
3764.23
3738.59
3712.57
3686.38
3660.27
3634.43
3609.06
3584.31
3560.33
3537.23
3515.1
3494.01
3474
3455.1
3437.33
3420.68
3405.14
3390.69
3377.3
3364.96
3353.63
3343.28
3333.9
3325.44
3317.9
3311.24
3305.45
3300.5
3296.4
3293.14
3290.7
3289.1
3288.34
3288.43
3289.41
3291.28
3294.08
3297.83
3302.56
3308.3
3315.06
3322.87
3331.76
3341.72
3352.78
3364.95
3378.24
3392.65
3408.2
3424.88
3442.68
3461.59
3481.56
3502.55
3524.51
3547.34
3570.99
3595.34
3620.22
3645.51
3671.06
3696.69
3722.21
3747.44
3772.17
3796.18
3819.26
3841.2
3861.79
3880.83
3898.12
3913.48
3926.73
3937.73
3946.34
3952.45
3955.93
3956.8
3955.03
3950.57
3943.47
3933.8
3921.63
3907.1
3890.34
3871.52
3850.84
3828.51
3804.76
3779.85
3754.05
3727.64
3700.95
3674.31
3648.03
3622.49
3598.08
3574.38
3554.14
3406.49
3429.04
3452.49
3476.75
3500.94
3526.6
3552.65
3578.94
3605.28
3631.54
3657.46
3682.86
3707.43
3730.95
3753.12
3773.65
3792.36
3809.05
3823.55
3835.72
3845.45
3852.66
3857.29
3859.33
3858.75
3855.65
3850.02
3841.91
3831.4
3818.62
3803.69
3786.75
3767.99
3747.57
3725.68
3702.54
3678.37
3653.38
3627.77
3601.76
3575.51
3549.21
3523.01
3500.87
3475.66
3451.16
3427.5
3404.76
3383.02
3362.38
3342.88
3324.57
3307.5
3291.68
3277.13
3263.84
3251.81
3241.01
3231.43
3223.02
3215.76
3209.59
3204.48
3200.38
3197.25
3195.04
3193.71
3193.22
3193.55
3194.65
3196.5
3199.08
3202.38
3206.41
3211.16
3216.66
3222.94
3230.02
3237.94
3246.76
3256.53
3267.28
3279.09
3291.98
3306.01
3321.21
3337.59
3355.17
3373.92
3393.83
3414.85
3436.92
3459.99
3484.02
3508.71
3533.96
3559.62
3585.52
3611.49
3637.32
3662.79
3687.69
3711.78
3734.83
3756.6
3776.85
3795.37
3811.93
3826.34
3838.43
3848.06
3855.09
3859.45
3861.05
3859.92
3856.07
3849.53
3840.37
3828.72
3814.69
3798.46
3780.2
3760.12
3738.44
3715.39
3691.21
3666.14
3640.44
3614.36
3588.12
3561.96
3536.09
3510.68
3485.91
3461.92
3438.8
3416.67
3395.58
3375.58
3356.69
3338.92
3322.28
3306.75
3292.31
3278.94
3266.61
3255.29
3244.96
3235.58
3227.13
3219.6
3212.94
3207.15
3202.21
3198.12
3194.86
3192.42
3190.81
3190.04
3190.14
3191.1
3192.97
3195.76
3199.51
3204.23
3209.96
3216.71
3224.52
3233.4
3243.35
3254.41
3266.57
3279.85
3294.26
3309.8
3326.48
3344.28
3363.18
3383.16
3404.15
3426.11
3448.96
3472.63
3497
3521.91
3547.23
3572.81
3598.48
3624.05
3649.34
3674.11
3698.18
3721.32
3743.32
3763.97
3783.07
3800.41
3815.82
3829.12
3840.16
3848.79
3854.92
3858.42
3859.29
3857.51
3853.04
3845.92
3836.21
3824.01
3809.43
3792.62
3773.75
3753.01
3730.63
3706.83
3681.85
3655.99
3629.51
3602.74
3576.02
3549.67
3524.09
3499.59
3475.93
3455.63
3308.01
3330.58
3354.04
3378.31
3402.56
3428.24
3454.33
3480.65
3507.04
3533.36
3559.35
3584.82
3609.48
3633.09
3655.34
3675.95
3694.74
3711.49
3726.05
3738.26
3748.03
3755.26
3759.92
3761.96
3761.38
3758.26
3752.59
3744.44
3733.9
3721.06
3706.07
3689.07
3670.23
3649.75
3627.78
3604.58
3580.35
3555.29
3529.63
3503.56
3477.28
3450.97
3424.83
3402.32
3377.18
3352.69
3329.02
3306.27
3284.53
3263.88
3244.37
3226.07
3209
3193.18
3178.63
3165.35
3153.33
3142.55
3132.98
3124.59
3117.33
3111.18
3106.09
3102
3098.88
3096.69
3095.37
3094.89
3095.23
3096.34
3098.19
3100.77
3104.08
3108.1
3112.84
3118.33
3124.59
3131.66
3139.56
3148.36
3158.1
3168.84
3180.62
3193.5
3207.51
3222.69
3239.06
3256.63
3275.39
3295.3
3316.33
3338.41
3361.51
3385.57
3410.3
3435.59
3461.3
3487.26
3513.29
3539.18
3564.73
3589.7
3613.87
3637
3658.84
3679.17
3697.76
3714.39
3728.86
3741.01
3750.67
3757.73
3762.1
3763.72
3762.58
3758.71
3752.14
3742.94
3731.23
3717.14
3700.84
3682.51
3662.36
3640.6
3617.46
3593.2
3568.06
3542.28
3516.13
3489.83
3463.61
3437.69
3412.24
3387.44
3363.42
3340.3
3318.16
3297.07
3277.07
3258.19
3240.44
3223.81
3208.3
3193.87
3180.52
3168.2
3156.89
3146.57
3137.21
3128.77
3121.24
3114.6
3108.81
3103.87
3099.78
3096.52
3094.08
3092.47
3091.7
3091.79
3092.75
3094.6
3097.38
3101.12
3105.84
3111.56
3118.3
3126.1
3134.97
3144.92
3155.97
3168.12
3181.39
3195.79
3211.32
3227.99
3245.79
3264.69
3284.67
3305.67
3327.64
3350.51
3374.2
3398.6
3423.54
3448.9
3474.52
3500.25
3525.88
3551.22
3576.07
3600.21
3623.42
3645.5
3666.22
3685.39
3702.8
3718.27
3731.63
3742.71
3751.39
3757.54
3761.06
3761.94
3760.14
3755.65
3748.5
3738.75
3726.5
3711.87
3695
3676.06
3655.26
3632.8
3608.93
3583.88
3557.94
3531.37
3504.51
3477.7
3451.27
3425.59
3400.98
3377.31
3356.7
3209.46
3232.04
3255.52
3279.82
3304.12
3329.82
3355.95
3382.32
3408.78
3435.16
3461.23
3486.8
3511.56
3535.27
3557.63
3578.33
3597.21
3614.04
3628.67
3640.94
3650.75
3658.01
3662.68
3664.73
3664.14
3661
3655.3
3647.11
3636.51
3623.61
3608.54
3591.46
3572.55
3551.98
3529.93
3506.65
3482.33
3457.2
3431.47
3405.35
3379.03
3352.69
3326.59
3303.72
3278.63
3254.15
3230.47
3207.71
3185.96
3165.3
3145.79
3127.48
3110.41
3094.6
3080.06
3066.79
3054.78
3044.01
3034.46
3026.08
3018.85
3012.71
3007.63
3003.57
3000.47
2998.29
2996.99
2996.52
2996.87
2997.98
2999.85
3002.43
3005.73
3009.74
3014.48
3019.96
3026.2
3033.25
3041.13
3049.9
3059.62
3070.33
3082.08
3094.94
3108.93
3124.09
3140.45
3158.01
3176.76
3196.68
3217.72
3239.83
3262.95
3287.05
3311.83
3337.17
3362.94
3388.96
3415.06
3441.04
3466.67
3491.73
3515.99
3539.21
3561.15
3581.57
3600.25
3616.96
3631.51
3643.71
3653.42
3660.52
3664.91
3666.54
3665.39
3661.5
3654.88
3645.64
3633.86
3619.71
3603.33
3584.91
3564.66
3542.8
3519.57
3495.21
3469.97
3444.11
3417.87
3391.49
3365.2
3339.22
3313.73
3288.9
3264.85
3241.71
3219.56
3198.47
3178.48
3159.61
3141.87
3125.26
3109.77
3095.37
3082.03
3069.73
3058.44
3048.13
3038.78
3030.36
3022.84
3016.2
3010.43
3005.49
3001.4
2998.14
2995.7
2994.09
2993.31
2993.39
2994.34
2996.19
2998.96
3002.68
3007.39
3013.09
3019.83
3027.62
3036.48
3046.42
3057.46
3069.6
3082.86
3097.25
3112.77
3129.43
3147.23
3166.13
3186.11
3207.12
3229.1
3251.99
3275.7
3300.13
3325.11
3350.52
3376.2
3401.99
3427.69
3453.11
3478.04
3502.26
3525.57
3547.73
3568.54
3587.8
3605.29
3620.84
3634.26
3645.4
3654.12
3660.3
3663.85
3664.73
3662.92
3658.4
3651.22
3641.42
3629.12
3614.42
3597.47
3578.46
3557.57
3535.03
3511.07
3485.94
3459.9
3433.24
3406.26
3379.34
3352.8
3327.02
3302.31
3278.66
3257.78
3110.82
3133.43
3156.94
3181.27
3205.61
3231.35
3257.53
3283.96
3310.48
3336.94
3363.11
3388.79
3413.67
3437.5
3459.98
3480.8
3499.78
3516.7
3531.4
3543.74
3553.6
3560.91
3565.6
3567.65
3567.05
3563.88
3558.15
3549.9
3539.24
3526.26
3511.11
3493.95
3474.93
3454.26
3432.12
3408.74
3384.33
3359.11
3333.3
3307.11
3280.74
3254.38
3228.29
3205.07
3180.01
3155.53
3131.84
3109.06
3087.3
3066.63
3047.12
3028.81
3011.74
2995.93
2981.4
2968.14
2956.15
2945.4
2935.86
2927.51
2920.29
2914.18
2909.12
2905.08
2902
2899.84
2898.55
2898.11
2898.46
2899.59
2901.46
2904.04
2907.34
2911.35
2916.08
2921.54
2927.76
2934.78
2942.64
2951.38
2961.07
2971.75
2983.47
2996.29
3010.26
3025.41
3041.75
3059.3
3078.05
3097.97
3119.03
3141.16
3164.31
3188.46
3213.29
3238.69
3264.53
3290.63
3316.82
3342.88
3368.61
3393.78
3418.15
3441.48
3463.53
3484.06
3502.84
3519.64
3534.28
3546.55
3556.32
3563.46
3567.88
3569.51
3568.35
3564.43
3557.77
3548.47
3536.62
3522.38
3505.91
3487.39
3467.03
3445.06
3421.71
3397.24
3371.89
3345.92
3319.58
3293.11
3266.75
3240.7
3215.15
3190.27
3166.2
3143.04
3120.88
3099.79
3079.8
3060.95
3043.23
3026.64
3011.17
2996.79
2983.47
2971.19
2959.92
2949.63
2940.3
2931.89
2924.38
2917.76
2911.99
2907.06
2902.98
2899.71
2897.27
2895.65
2894.87
2894.94
2895.88
2897.71
2900.47
2904.19
2908.88
2914.57
2921.3
2929.08
2937.93
2947.85
2958.88
2971.01
2984.26
2998.63
3014.15
3030.8
3048.59
3067.49
3087.47
3108.49
3130.49
3153.39
3177.13
3201.61
3226.64
3252.1
3277.84
3303.7
3329.48
3354.99
3380.01
3404.34
3427.75
3450.02
3470.93
3490.29
3507.88
3523.51
3537.02
3548.22
3556.99
3563.21
3566.78
3567.67
3565.85
3561.3
3554.07
3544.23
3531.85
3517.07
3500.04
3480.94
3459.96
3437.32
3413.25
3388.02
3361.87
3335.1
3308
3280.95
3254.29
3228.39
3203.54
3179.86
3158.62
3012.11
3034.74
3058.28
3082.66
3107.03
3132.83
3159.06
3185.55
3212.15
3238.71
3264.98
3290.79
3315.8
3339.78
3362.39
3383.34
3402.44
3419.47
3434.26
3446.68
3456.6
3463.94
3468.66
3470.71
3470.1
3466.9
3461.13
3452.82
3442.09
3429.02
3413.78
3396.51
3377.39
3356.61
3334.35
3310.85
3286.34
3261.02
3235.12
3208.85
3182.41
3156.01
3129.92
3106.38
3081.34
3056.85
3033.14
3010.34
2988.57
2967.89
2948.37
2930.05
2912.99
2897.19
2882.67
2869.42
2857.44
2846.71
2837.2
2828.86
2821.67
2815.58
2810.55
2806.53
2803.47
2801.34
2800.07
2799.64
2800.01
2801.15
2803.03
2805.62
2808.91
2812.91
2817.63
2823.07
2829.27
2836.27
2844.09
2852.8
2862.45
2873.09
2884.78
2897.58
2911.51
2926.63
2942.96
2960.5
2979.25
2999.18
3020.26
3042.42
3065.6
3089.8
3114.69
3140.16
3166.07
3192.26
3218.55
3244.72
3270.56
3295.85
3320.35
3343.8
3365.98
3386.63
3405.53
3422.44
3437.17
3449.53
3459.37
3466.56
3471
3472.64
3471.47
3467.52
3460.81
3451.44
3439.51
3425.17
3408.59
3389.95
3369.47
3347.37
3323.89
3299.28
3273.8
3247.71
3221.26
3194.69
3168.23
3142.11
3116.5
3091.57
3067.46
3044.28
3022.12
3001.02
2981.05
2962.21
2944.51
2927.95
2912.5
2898.14
2884.85
2872.6
2861.35
2851.08
2841.76
2833.37
2825.88
2819.26
2813.51
2808.59
2804.5
2801.24
2798.8
2797.17
2796.38
2796.44
2797.37
2799.19
2801.94
2805.63
2810.31
2815.99
2822.71
2830.47
2839.31
2849.22
2860.23
2872.35
2885.58
2899.95
2915.45
2932.09
2949.87
2968.77
2988.75
3009.78
3031.8
3054.73
3078.5
3103.03
3128.1
3153.62
3179.44
3205.38
3231.26
3256.87
3282
3306.44
3329.97
3352.36
3373.39
3392.86
3410.57
3426.3
3439.89
3451.18
3460.01
3466.27
3469.87
3470.76
3468.92
3464.35
3457.07
3447.16
3434.71
3419.84
3402.71
3383.5
3362.41
3339.65
3315.47
3290.12
3263.86
3236.95
3209.72
3182.52
3155.72
3129.68
3104.67
3080.97
3059.37
2913.32
2935.98
2959.56
2983.97
3008.41
3034.25
3060.53
3087.1
3113.79
3140.45
3166.85
3192.79
3217.97
3242.1
3264.87
3285.97
3305.2
3322.35
3337.24
3349.74
3359.73
3367.12
3371.86
3373.92
3373.3
3370.07
3364.24
3355.87
3345.05
3331.9
3316.54
3299.16
3279.91
3259
3236.61
3213
3188.36
3162.93
3136.93
3110.56
3084.05
3057.6
3031.49
3007.64
2982.59
2958.09
2934.36
2911.55
2889.75
2869.06
2849.53
2831.22
2814.15
2798.36
2783.85
2770.62
2758.66
2747.95
2738.46
2730.15
2722.99
2716.93
2711.92
2707.93
2704.9
2702.78
2701.54
2701.14
2701.52
2702.67
2704.56
2707.15
2710.44
2714.43
2719.14
2724.56
2730.74
2737.7
2745.49
2754.16
2763.77
2774.37
2786.02
2798.78
2812.68
2827.78
2844.08
2861.61
2880.36
2900.3
2921.39
2943.58
2966.81
2991.07
3016.03
3041.57
3067.57
3093.86
3120.25
3146.55
3172.52
3197.94
3222.58
3246.18
3268.5
3289.29
3308.32
3325.36
3340.19
3352.65
3362.56
3369.8
3374.27
3375.93
3374.75
3370.75
3363.99
3354.54
3342.52
3328.07
3311.36
3292.59
3271.97
3249.72
3226.1
3201.34
3175.72
3149.49
3122.91
3096.22
3069.67
3043.45
3017.78
2992.8
2968.65
2945.44
2923.27
2902.17
2882.21
2863.39
2845.71
2829.18
2813.76
2799.43
2786.17
2773.94
2762.72
2752.47
2743.17
2734.8
2727.32
2720.72
2714.97
2710.06
2705.98
2702.72
2700.27
2698.64
2697.85
2697.89
2698.81
2700.61
2703.34
2707.02
2711.68
2717.35
2724.05
2731.8
2740.62
2750.52
2761.52
2773.62
2786.84
2801.18
2816.67
2833.3
2851.07
2869.97
2889.96
2911
2933.03
2955.99
2979.79
3004.38
3029.51
3055.1
3081
3107.03
3133.01
3158.74
3184
3208.57
3232.22
3254.75
3275.92
3295.52
3313.35
3329.2
3342.89
3354.27
3363.17
3369.47
3373.1
3374
3372.15
3367.53
3360.2
3350.22
3337.68
3322.71
3305.47
3286.14
3264.92
3242.04
3217.74
3192.25
3165.86
3138.81
3111.43
3084.07
3057.1
3030.89
3005.72
2982.01
2959.99
2814.46
2837.15
2860.76
2885.21
2909.74
2935.62
2961.96
2988.61
3015.39
3042.17
3068.7
3094.81
3120.15
3144.47
3167.42
3188.68
3208.06
3225.34
3240.35
3252.94
3263
3270.44
3275.21
3277.28
3276.64
3273.38
3267.5
3259.05
3248.14
3234.88
3219.4
3201.88
3182.5
3161.45
3138.92
3115.16
3090.39
3064.84
3038.72
3012.25
2985.66
2959.14
2932.99
2908.86
2883.79
2859.26
2835.51
2812.67
2790.86
2770.16
2750.62
2732.3
2715.24
2699.45
2684.96
2671.74
2659.81
2649.12
2639.65
2631.38
2624.24
2618.21
2613.23
2609.27
2606.27
2604.18
2602.97
2602.58
2602.99
2604.15
2606.05
2608.64
2611.94
2615.92
2620.6
2626
2632.15
2639.08
2646.83
2655.46
2665.03
2675.58
2687.19
2699.9
2713.77
2728.84
2745.12
2762.63
2781.38
2801.32
2822.44
2844.66
2867.94
2892.26
2917.29
2942.92
2969.03
2995.42
3021.94
3048.36
3074.48
3100.05
3124.84
3148.6
3171.08
3192.03
3211.21
3228.38
3243.34
3255.9
3265.89
3273.2
3277.7
3279.37
3278.17
3274.14
3267.31
3257.78
3245.65
3231.08
3214.24
3195.32
3174.54
3152.13
3128.34
3103.42
3077.64
3051.25
3024.53
2997.71
2971.04
2944.74
2918.98
2893.94
2869.75
2846.52
2824.33
2803.24
2783.29
2764.48
2746.84
2730.33
2714.95
2700.65
2687.42
2675.22
2664.02
2653.8
2644.53
2636.18
2628.72
2622.13
2616.4
2611.49
2607.42
2604.16
2601.71
2600.07
2599.26
2599.3
2600.2
2601.99
2604.7
2608.36
2613
2618.65
2625.33
2633.07
2641.87
2651.76
2662.73
2674.82
2688.02
2702.35
2717.81
2734.43
2752.19
2771.09
2791.08
2812.13
2834.19
2857.17
2881.01
2905.67
2930.86
2956.53
2982.52
3008.65
3034.75
3060.61
3086
3110.71
3134.52
3157.2
3178.52
3198.27
3216.23
3232.21
3246.02
3257.49
3266.46
3272.83
3276.49
3277.39
3275.52
3270.87
3263.48
3253.41
3240.77
3225.69
3208.33
3188.87
3167.51
3144.49
3120.04
3094.41
3067.87
3040.67
3013.12
2985.58
2958.43
2932.03
2906.66
2882.98
2860.52
2715.51
2738.24
2761.89
2786.37
2811.01
2836.93
2863.34
2890.08
2916.97
2943.87
2970.55
2996.83
3022.37
3046.89
3070.03
3091.47
3111.01
3128.44
3143.57
3156.27
3166.41
3173.91
3178.72
3180.79
3180.13
3176.84
3170.89
3162.37
3151.35
3137.97
3122.36
3104.7
3085.16
3063.95
3041.27
3017.35
2992.44
2966.74
2940.5
2913.92
2887.22
2860.63
2834.43
2810.03
2784.92
2760.36
2736.58
2713.72
2691.89
2671.17
2651.62
2633.3
2616.24
2600.46
2585.98
2572.79
2560.87
2550.21
2540.78
2532.53
2525.43
2519.43
2514.49
2510.56
2507.59
2505.53
2504.35
2503.99
2504.41
2505.59
2507.5
2510.1
2513.39
2517.36
2522.03
2527.4
2533.52
2540.41
2548.12
2556.7
2566.22
2576.72
2588.28
2600.95
2614.78
2629.81
2646.06
2663.57
2682.3
2702.26
2723.4
2745.66
2768.98
2793.38
2818.5
2844.22
2870.43
2896.95
2923.6
2950.16
2976.44
3002.18
3027.14
3051.08
3073.74
3094.86
3114.2
3131.52
3146.62
3159.29
3169.38
3176.75
3181.29
3182.97
3181.76
3177.68
3170.78
3161.15
3148.91
3134.21
3117.21
3098.13
3077.18
3054.59
3030.61
3005.51
2979.55
2953
2926.12
2899.16
2872.36
2845.95
2820.11
2795
2770.77
2747.51
2725.31
2704.22
2684.28
2665.5
2647.88
2631.41
2616.06
2601.8
2588.6
2576.44
2565.27
2555.08
2545.83
2537.5
2530.06
2523.49
2517.77
2512.88
2508.81
2505.54
2503.09
2501.45
2500.63
2500.65
2501.53
2503.3
2505.99
2509.64
2514.26
2519.89
2526.55
2534.27
2543.05
2552.92
2563.88
2575.95
2589.13
2603.43
2618.89
2635.49
2653.24
2672.13
2692.13
2713.19
2735.27
2758.28
2782.17
2806.9
2832.16
2857.91
2883.99
2910.24
2936.47
2962.46
2988.01
3012.88
3036.86
3059.7
3081.19
3101.1
3119.22
3135.34
3149.27
3160.85
3169.91
3176.33
3180.03
3180.94
3179.04
3174.35
3166.89
3156.74
3143.99
3128.79
3111.29
3091.68
3070.17
3046.99
3022.38
2996.59
2969.89
2942.52
2914.79
2887.06
2859.71
2833.1
2807.49
2783.89
2760.98
2616.49
2639.26
2662.95
2687.47
2712.22
2738.17
2764.66
2791.5
2818.5
2845.54
2872.39
2898.86
2924.61
2949.35
2972.71
2994.34
3014.07
3031.65
3046.92
3059.73
3069.96
3077.52
3082.37
3084.45
3083.78
3080.44
3074.42
3065.81
3054.68
3041.16
3025.41
3007.59
2987.89
2966.51
2943.65
2919.57
2894.49
2868.64
2842.26
2815.55
2788.75
2762.07
2735.8
2711.16
2686
2661.39
2637.57
2614.69
2592.83
2572.1
2552.54
2534.21
2517.16
2501.39
2486.92
2473.75
2461.86
2451.23
2441.83
2433.61
2426.55
2420.59
2415.68
2411.79
2408.85
2406.83
2405.68
2405.34
2405.79
2406.99
2408.91
2411.51
2414.8
2418.76
2423.41
2428.76
2434.84
2441.69
2449.35
2457.89
2467.34
2477.8
2489.3
2501.92
2515.7
2530.69
2546.92
2564.41
2583.14
2603.11
2624.27
2646.57
2669.95
2694.43
2719.63
2745.45
2771.78
2798.43
2825.23
2851.96
2878.4
2904.32
2929.48
2953.61
2976.46
2997.77
3017.29
3034.78
3050.02
3062.82
3073.01
3080.45
3085.04
3086.73
3085.5
3081.37
3074.39
3064.66
3052.3
3037.45
3020.29
3001.03
2979.88
2957.1
2932.92
2907.62
2881.47
2854.73
2827.67
2800.56
2773.63
2747.1
2721.16
2695.98
2671.7
2648.41
2626.19
2605.11
2585.18
2566.43
2548.84
2532.41
2517.1
2502.89
2489.73
2477.6
2466.46
2456.3
2447.08
2438.77
2431.36
2424.8
2419.1
2414.21
2410.15
2406.89
2404.43
2402.78
2401.95
2401.96
2402.82
2404.57
2407.24
2410.86
2415.46
2421.06
2427.71
2435.41
2444.17
2454.02
2464.96
2477.01
2490.16
2504.45
2519.88
2536.46
2554.2
2573.09
2593.09
2614.17
2636.27
2659.32
2683.24
2708.06
2733.39
2759.23
2785.42
2811.8
2838.17
2864.31
2890.02
2915.07
2939.23
2962.25
2983.92
3004.01
3022.3
3038.58
3052.65
3064.34
3073.49
3079.98
3083.71
3084.63
3082.72
3077.97
3070.44
3060.19
3047.33
3031.99
3014.34
2994.57
2972.89
2949.54
2924.75
2898.8
2871.92
2844.38
2816.45
2788.51
2760.94
2734.09
2708.19
2684.76
2661.35
2517.39
2540.2
2563.94
2588.5
2613.36
2639.36
2665.93
2692.87
2720
2747.19
2774.21
2800.89
2826.87
2851.85
2875.45
2897.3
2917.22
2934.97
2950.39
2963.32
2973.65
2981.29
2986.17
2988.26
2987.57
2984.18
2978.09
2969.38
2958.13
2944.47
2928.56
2910.57
2890.68
2869.12
2846.07
2821.8
2796.55
2770.54
2744
2717.16
2690.24
2663.46
2637.1
2612.23
2587
2562.36
2538.49
2515.57
2493.69
2472.94
2453.37
2435.05
2417.99
2402.23
2387.78
2374.63
2362.77
2352.17
2342.81
2334.63
2327.61
2321.68
2316.82
2312.96
2310.07
2308.08
2306.96
2306.66
2307.13
2308.35
2310.28
2312.89
2316.17
2320.12
2324.75
2330.07
2336.11
2342.92
2350.53
2359.01
2368.41
2378.8
2390.24
2402.8
2416.54
2431.49
2447.68
2465.15
2483.88
2503.86
2525.05
2547.39
2570.83
2595.4
2620.7
2646.63
2673.09
2699.88
2726.83
2753.74
2780.37
2806.49
2831.85
2856.19
2879.25
2900.76
2920.48
2938.15
2953.56
2966.5
2976.79
2984.31
2988.95
2990.65
2989.4
2985.22
2978.16
2968.31
2955.81
2940.8
2923.46
2904
2882.65
2859.65
2835.26
2809.74
2783.38
2756.44
2729.19
2701.91
2674.83
2648.17
2622.13
2596.88
2572.54
2549.22
2526.99
2505.91
2486
2467.28
2449.73
2433.34
2418.07
2403.9
2390.78
2378.69
2367.59
2357.46
2348.27
2339.99
2332.6
2326.07
2320.38
2315.51
2311.44
2308.19
2305.73
2304.07
2303.23
2303.21
2304.05
2305.78
2308.43
2312.02
2316.6
2322.18
2328.8
2336.48
2345.23
2355.06
2365.98
2378
2391.13
2405.39
2420.8
2437.36
2455.09
2473.97
2493.98
2515.07
2537.2
2560.28
2584.24
2609.16
2634.56
2660.5
2686.81
2713.32
2739.84
2766.16
2792.05
2817.28
2841.64
2864.86
2886.73
2907.01
2925.48
2941.93
2956.15
2967.97
2977.23
2983.79
2987.56
2988.49
2986.55
2981.75
2974.14
2963.78
2950.79
2935.3
2917.48
2897.54
2875.68
2852.14
2827.17
2801.03
2773.97
2746.24
2718.1
2689.93
2662.12
2635.01
2608.77
2585.57
2561.66
2418.21
2441.07
2464.86
2489.48
2514.42
2540.48
2567.14
2594.2
2621.46
2648.8
2676.01
2702.93
2729.16
2754.4
2778.25
2800.34
2820.47
2838.41
2853.99
2867.05
2877.49
2885.19
2890.12
2892.22
2891.51
2888.07
2881.9
2873.08
2861.7
2847.89
2831.81
2813.63
2793.55
2771.78
2748.52
2724.06
2698.61
2672.43
2645.72
2618.73
2591.68
2564.79
2538.34
2513.25
2487.95
2463.24
2439.34
2416.38
2394.48
2373.7
2354.13
2335.79
2318.74
2303
2288.56
2275.44
2263.61
2253.04
2243.71
2235.58
2228.6
2222.72
2217.9
2214.08
2211.23
2209.28
2208.19
2207.93
2208.43
2209.66
2211.61
2214.23
2217.51
2221.44
2226.05
2231.34
2237.34
2244.1
2251.65
2260.07
2269.4
2279.73
2291.11
2303.61
2317.29
2332.2
2348.36
2365.81
2384.53
2404.52
2425.74
2448.12
2471.63
2496.3
2521.7
2547.75
2574.34
2601.28
2628.41
2655.5
2682.33
2708.67
2734.25
2758.82
2782.1
2803.84
2823.77
2841.64
2857.22
2870.31
2880.73
2888.33
2893.02
2894.74
2893.46
2889.22
2882.07
2872.11
2859.45
2844.27
2826.73
2807.07
2785.49
2762.26
2737.63
2711.88
2685.28
2658.12
2630.68
2603.21
2575.97
2549.17
2523.03
2497.69
2473.3
2449.94
2427.7
2406.62
2386.73
2368.04
2350.53
2334.19
2318.97
2304.85
2291.77
2279.72
2268.67
2258.57
2249.41
2241.16
2233.8
2227.29
2221.61
2216.75
2212.69
2209.44
2206.98
2205.31
2204.45
2204.42
2205.24
2206.94
2209.56
2213.13
2217.68
2223.24
2229.83
2237.49
2246.22
2256.03
2266.92
2278.92
2292.02
2306.26
2321.64
2338.18
2355.89
2374.77
2394.78
2415.89
2438.04
2461.17
2485.17
2510.2
2535.67
2561.71
2588.15
2614.81
2641.49
2667.99
2694.07
2719.52
2744.08
2767.52
2789.6
2810.09
2828.76
2845.39
2859.78
2871.74
2881.1
2887.74
2891.56
2892.49
2890.53
2885.67
2877.97
2867.5
2854.37
2838.72
2820.73
2800.59
2778.53
2754.79
2729.62
2703.28
2676.03
2648.09
2619.74
2591.33
2563.25
2535.86
2509.25
2486.3
2461.9
2318.95
2341.86
2365.71
2390.4
2415.42
2441.54
2468.29
2495.48
2522.87
2550.39
2577.8
2604.96
2631.47
2657
2681.12
2703.46
2723.82
2741.96
2757.71
2770.92
2781.46
2789.25
2794.22
2796.34
2795.6
2792.11
2785.86
2776.92
2765.4
2751.42
2735.15
2716.77
2696.47
2674.49
2651.01
2626.34
2600.69
2574.31
2547.42
2520.28
2493.08
2466.07
2439.51
2414.21
2388.83
2364.06
2340.1
2317.11
2295.17
2274.38
2254.79
2236.46
2219.41
2203.68
2189.26
2176.16
2164.36
2153.84
2144.55
2136.46
2129.52
2123.69
2118.91
2115.14
2112.33
2110.43
2109.38
2109.15
2109.68
2110.94
2112.9
2115.53
2118.8
2122.72
2127.31
2132.56
2138.52
2145.22
2152.72
2161.07
2170.33
2180.59
2191.9
2204.34
2217.96
2232.81
2248.94
2266.37
2285.09
2305.09
2326.33
2348.76
2372.34
2397.11
2422.62
2448.8
2475.54
2502.65
2529.96
2557.25
2584.3
2610.86
2636.68
2661.5
2685.03
2707
2727.16
2745.25
2761.02
2774.27
2784.81
2792.51
2797.25
2798.98
2797.68
2793.38
2786.13
2776.04
2763.22
2747.85
2730.11
2710.21
2688.39
2664.91
2640.03
2614.03
2587.19
2559.79
2532.12
2504.46
2477.04
2450.1
2423.84
2398.42
2373.96
2350.57
2328.32
2307.25
2287.38
2268.72
2251.26
2234.96
2219.8
2205.72
2192.7
2180.7
2169.68
2159.62
2150.5
2142.28
2134.94
2128.45
2122.8
2117.95
2113.9
2110.65
2108.18
2106.5
2105.63
2105.58
2106.37
2108.05
2110.64
2114.18
2118.7
2124.23
2130.8
2138.44
2147.14
2156.93
2167.8
2179.77
2192.84
2207.05
2222.4
2238.92
2256.62
2275.49
2295.5
2316.62
2338.81
2361.98
2386.01
2411.17
2436.72
2462.87
2489.45
2516.26
2543.12
2569.81
2596.1
2621.77
2646.56
2670.23
2692.54
2713.25
2732.14
2748.97
2763.53
2775.65
2785.13
2791.85
2795.71
2796.66
2794.67
2789.75
2781.95
2771.36
2758.08
2742.25
2724.07
2703.73
2681.45
2657.49
2632.11
2605.56
2578.09
2549.94
2521.37
2492.69
2464.33
2436.65
2409.66
2386.92
2362.06
2219.61
2242.57
2266.48
2291.24
2316.36
2342.52
2369.38
2396.7
2424.25
2451.94
2479.57
2506.99
2533.8
2559.63
2584.06
2606.67
2627.27
2645.62
2661.56
2674.92
2685.59
2693.46
2698.48
2700.61
2699.84
2696.29
2689.95
2680.89
2669.21
2655.06
2638.59
2619.99
2599.47
2577.25
2553.54
2528.63
2502.76
2476.18
2449.11
2421.78
2394.44
2367.29
2340.61
2315.11
2289.64
2264.8
2240.79
2217.76
2195.79
2174.98
2155.37
2137.03
2119.99
2104.27
2089.88
2076.81
2065.04
2054.56
2045.31
2037.27
2030.38
2024.6
2019.87
2016.15
2013.39
2011.53
2010.53
2010.33
2010.89
2012.18
2014.16
2016.79
2020.06
2023.97
2028.52
2033.74
2039.66
2046.3
2053.73
2062.01
2071.2
2081.38
2092.61
2104.98
2118.54
2133.34
2149.43
2166.83
2185.54
2205.56
2226.83
2249.31
2272.96
2297.85
2323.48
2349.79
2376.68
2403.97
2431.47
2458.98
2486.26
2513.07