/*--------------------------------*- C++ -*----------------------------------*\
| =========                 |                                                 |
| \\      /  F ield         | OpenFOAM: The Open Source CFD Toolbox           |
|  \\    /   O peration     | Version:  3.0.1                                 |
|   \\  /    A nd           | Web:      www.OpenFOAM.org                      |
|    \\/     M anipulation  |                                                 |
\*---------------------------------------------------------------------------*/
FoamFile
{
    version     2.0;
    format      ascii;
    class       volScalarField;
    location    "20.2";
    object      p_rgh;
}
// * * * * * * * * * * * * * * * * * * * * * * * * * * * * * * * * * * * * * //

dimensions      [1 -1 -2 0 0 0 0];

internalField   nonuniform List<scalar> 
22680
(
-26.7605
-51.8961
-76.6369
-100.542
-123.45
-145.21
-165.762
-185.039
-203.024
-219.692
-235.047
-249.094
-261.85
-273.335
-283.577
-292.601
-300.438
-307.119
-312.676
-317.14
-320.538
-322.898
-324.242
-324.597
-323.966
-322.332
-319.781
-316.254
-311.755
-306.255
-299.749
-292.203
-283.602
-273.912
-263.112
-251.188
-238.119
-223.895
-208.506
-191.952
-174.236
-155.372
-135.382
-114.292
-92.1517
-68.9971
-44.9157
-19.9443
5.72015
32.3074
59.1523
86.1143
113.076
139.799
166.111
191.764
216.559
240.257
262.651
283.519
302.67
319.911
335.075
348.009
358.584
366.696
372.261
375.231
375.576
373.233
368.387
360.997
351.091
338.828
324.326
307.742
289.238
269.009
247.256
224.195
200.05
175.054
149.441
123.444
97.2885
71.1941
45.3695
20.0095
-4.70074
-28.524
-51.5182
-73.5513
-94.5209
-114.368
-133.043
-150.524
-166.794
-181.868
-195.76
-208.501
-220.124
-230.665
-240.165
-248.673
-256.221
-262.85
-268.592
-273.486
-277.559
-280.851
-283.378
-285.155
-286.17
-286.484
-286.075
-284.94
-283.066
-280.432
-277.013
-272.772
-267.675
-261.664
-254.708
-246.742
-237.72
-227.587
-216.301
-203.814
-190.093
-175.112
-158.856
-141.329
-122.551
-102.563
-81.4229
-59.2196
-36.0737
-12.1928
13.669
38.8517
64.5598
90.5158
116.49
142.258
167.598
192.284
216.094
238.812
260.23
280.155
298.404
314.815
329.242
341.558
351.655
359.445
364.862
367.852
368.307
366.383
362.026
355.204
346.024
334.559
320.908
305.196
287.568
268.187
247.237
224.912
201.419
176.973
151.789
126.086
100.077
73.9705
47.9649
22.2512
-2.99452
-27.6263
-51.5014
-74.4995
-96.5132
-117.458
-137.269
-155.899
-173.313
-189.494
-204.432
-218.128
-230.59
-241.832
-251.874
-260.736
-268.444
-275.024
-280.509
-284.931
-288.317
-290.706
-292.139
-292.644
-292.248
-290.982
-288.91
-286.045
-282.419
-278.058
-272.978
-267.19
-260.688
-253.475
-245.52
-236.809
-227.303
-216.98
-205.811
-193.793
-180.915
-167.23
-152.818
-137.779
-122.379
-107.004
-91.0944
-26.8241
-51.9663
-76.712
-100.62
-123.531
-145.292
-165.845
-185.122
-203.106
-219.773
-235.127
-249.172
-261.926
-273.409
-283.649
-292.67
-300.505
-307.184
-312.739
-317.2
-320.597
-322.955
-324.298
-324.654
-324.019
-322.387
-319.836
-316.31
-311.811
-306.313
-299.808
-292.264
-283.665
-273.976
-263.178
-251.257
-238.189
-223.967
-208.58
-192.027
-174.312
-155.448
-135.458
-114.368
-92.2266
-69.0702
-44.9858
-20.0103
5.66015
32.2535
59.1094
86.082
113.055
139.79
166.115
191.781
216.591
240.302
262.711
283.594
302.758
320.012
335.187
348.132
358.716
366.834
372.405
375.378
375.725
373.385
368.525
361.131
351.219
338.947
324.433
307.836
289.319
269.075
247.307
224.231
200.07
175.059
149.431
123.42
97.2515
71.1454
45.3104
19.9415
-4.77561
-28.6038
-51.6025
-73.6385
-94.6097
-114.458
-133.132
-150.611
-166.879
-181.95
-195.839
-208.576
-220.195
-230.732
-240.229
-248.733
-256.278
-262.904
-268.643
-273.535
-277.607
-280.898
-283.425
-285.195
-286.213
-286.528
-286.119
-284.985
-283.112
-280.481
-277.064
-272.825
-267.732
-261.725
-254.772
-246.81
-237.792
-227.662
-216.38
-203.896
-190.177
-175.198
-158.943
-141.417
-122.638
-102.648
-81.5043
-59.2958
-36.1398
-12.2345
13.5833
38.7926
64.5153
90.4833
116.469
142.25
167.603
192.302
216.126
238.857
260.289
280.226
298.488
314.91
329.347
341.672
351.777
359.574
364.994
367.99
368.449
366.514
362.154
355.329
346.141
334.667
321.006
305.283
287.641
268.247
247.283
224.944
201.437
176.977
151.781
126.066
100.047
73.93
47.9156
22.1941
-3.05831
-27.6956
-51.5751
-74.5768
-96.5928
-117.54
-137.35
-155.981
-173.394
-189.574
-204.511
-218.205
-230.666
-241.905
-251.946
-260.806
-268.512
-275.09
-280.573
-284.992
-288.376
-290.763
-292.194
-292.698
-292.297
-291.031
-288.957
-286.091
-282.464
-278.102
-273.022
-267.235
-260.734
-253.522
-245.571
-236.862
-227.359
-217.039
-205.872
-193.856
-180.977
-167.289
-152.868
-137.808
-122.391
-107.01
-91.4335
-26.9513
-52.1066
-76.8622
-100.778
-123.694
-145.458
-166.011
-185.289
-203.271
-219.936
-235.287
-249.328
-262.078
-273.557
-283.792
-292.808
-300.639
-307.314
-312.864
-317.322
-320.716
-323.071
-324.412
-324.766
-324.125
-322.499
-319.947
-316.421
-311.925
-306.428
-299.927
-292.386
-283.79
-274.106
-263.311
-251.394
-238.329
-224.111
-208.726
-192.176
-174.463
-155.601
-135.611
-114.52
-92.3765
-69.2162
-45.1261
-20.1424
5.54006
32.1458
59.0235
86.0173
113.013
139.772
166.122
191.816
216.654
240.394
262.831
283.742
302.933
320.213
335.412
348.377
358.979
367.111
372.692
375.671
376.017
373.688
368.804
361.399
351.475
339.184
324.648
308.026
289.481
269.208
247.409
224.302
200.11
175.068
149.411
123.372
97.1776
71.0481
45.1926
19.8059
-4.92464
-28.763
-51.7703
-73.812
-94.7863
-114.635
-133.307
-150.783
-167.046
-182.111
-195.993
-208.723
-220.334
-230.864
-240.353
-248.85
-256.389
-263.008
-268.742
-273.629
-277.697
-280.985
-283.511
-285.272
-286.295
-286.609
-286.202
-285.069
-283.2
-280.572
-277.16
-272.927
-267.841
-261.841
-254.895
-246.941
-237.93
-227.808
-216.532
-204.055
-190.341
-175.365
-159.113
-141.587
-122.807
-102.813
-81.6627
-59.4437
-36.2682
-12.3123
13.4152
38.6795
64.4308
90.4229
116.433
142.239
167.617
192.343
216.194
238.952
260.41
280.374
298.66
315.105
329.563
341.906
352.026
359.835
365.263
368.262
368.738
366.783
362.416
355.582
346.381
334.889
321.206
305.459
287.791
268.37
247.379
225.011
201.477
176.99
151.768
126.03
99.9893
73.8528
47.8209
22.0839
-3.18184
-27.8301
-51.7184
-74.7269
-96.7476
-117.697
-137.509
-156.14
-173.552
-189.73
-204.664
-218.355
-230.812
-242.048
-252.084
-260.94
-268.641
-275.216
-280.694
-285.109
-288.489
-290.872
-292.299
-292.799
-292.389
-291.124
-289.046
-286.177
-282.548
-278.184
-273.105
-267.319
-260.82
-253.613
-245.665
-236.962
-227.465
-217.151
-205.988
-193.975
-181.095
-167.402
-152.967
-137.875
-122.415
-106.901
-91.2623
-27.1423
-52.3172
-77.0877
-101.014
-123.938
-145.706
-166.261
-185.538
-203.519
-220.18
-235.526
-249.562
-262.306
-273.778
-284.006
-293.016
-300.839
-307.508
-313.052
-317.504
-320.893
-323.244
-324.582
-324.932
-324.287
-322.666
-320.113
-316.588
-312.094
-306.602
-300.104
-292.569
-283.979
-274.3
-263.511
-251.599
-238.54
-224.326
-208.947
-192.4
-174.691
-155.83
-135.84
-114.748
-92.6015
-69.4355
-45.3367
-20.3408
5.35952
31.9841
58.8944
85.9201
112.95
139.744
166.134
191.868
216.748
240.531
263.011
283.964
303.197
320.515
335.749
348.746
359.374
367.527
373.123
376.11
376.456
374.136
369.229
361.804
351.859
339.54
324.97
308.31
289.723
269.407
247.562
224.408
200.17
175.082
149.381
123.3
97.0665
70.9019
45.0155
19.6021
-5.14816
-29.002
-52.0223
-74.0726
-95.0515
-114.901
-133.571
-151.041
-167.297
-182.353
-196.225
-208.943
-220.542
-231.061
-240.539
-249.025
-256.554
-263.165
-268.891
-273.77
-277.832
-281.115
-283.636
-285.393
-286.418
-286.731
-286.326
-285.195
-283.331
-280.71
-277.305
-273.08
-268.003
-262.014
-255.079
-247.136
-238.137
-228.026
-216.761
-204.292
-190.586
-175.616
-159.367
-141.842
-123.06
-103.06
-81.9004
-59.666
-36.463
-12.4301
13.1638
38.5118
64.3046
90.3323
116.378
142.222
167.639
192.405
216.296
239.095
260.593
280.595
298.917
315.397
329.886
342.257
352.4
360.227
365.667
368.669
369.164
367.192
362.811
355.964
346.74
335.221
321.506
305.723
288.017
268.555
247.522
225.113
201.537
177.01
151.75
125.977
99.903
73.7371
47.6789
21.9185
-3.36714
-28.0318
-51.9334
-74.9522
-96.9798
-117.934
-137.748
-156.379
-173.788
-189.964
-204.893
-218.579
-231.032
-242.262
-252.292
-261.141
-268.836
-275.404
-280.876
-285.285
-288.659
-291.035
-292.457
-292.947
-292.531
-291.263
-289.179
-286.306
-282.673
-278.308
-273.228
-267.444
-260.95
-253.748
-245.808
-237.113
-227.625
-217.319
-206.163
-194.153
-181.272
-167.573
-153.117
-137.983
-122.458
-106.795
-91.1018
-27.3973
-52.5984
-77.3887
-101.33
-124.263
-146.037
-166.595
-185.871
-203.849
-220.505
-235.846
-249.874
-262.61
-274.073
-284.292
-293.293
-301.107
-307.767
-313.303
-317.747
-321.129
-323.474
-324.808
-325.152
-324.505
-322.887
-320.334
-316.81
-312.32
-306.832
-300.341
-292.813
-284.23
-274.558
-263.777
-251.873
-238.821
-224.614
-209.241
-192.7
-174.994
-156.135
-136.146
-115.053
-92.9017
-69.7283
-45.6178
-20.606
5.11798
31.7683
58.7219
85.7901
112.865
139.708
166.149
191.937
216.874
240.714
263.251
284.261
303.548
320.917
336.199
349.237
359.901
368.083
373.698
376.696
377.043
374.725
369.802
362.346
352.372
340.015
325.4
308.689
290.047
269.672
247.765
224.55
200.25
175.101
149.34
123.204
96.9179
70.7064
44.779
19.3295
-5.4462
-29.3214
-52.3588
-74.4204
-95.4055
-115.256
-133.923
-151.386
-167.633
-182.675
-196.533
-209.237
-220.82
-231.324
-240.788
-249.259
-256.774
-263.374
-269.089
-273.958
-278.013
-281.288
-283.801
-285.558
-286.581
-286.894
-286.491
-285.364
-283.506
-280.893
-277.497
-273.284
-268.22
-262.245
-255.326
-247.398
-238.414
-228.317
-217.066
-204.61
-190.913
-175.951
-159.706
-142.182
-123.397
-103.39
-82.218
-59.9638
-36.7271
-12.6179
12.8583
38.2917
64.1367
90.2115
116.305
142.199
167.668
192.487
216.432
239.284
260.836
280.889
299.261
315.786
330.317
342.725
352.899
360.75
366.206
369.215
369.722
367.744
363.34
356.472
347.22
335.664
321.907
306.076
288.318
268.802
247.713
225.247
201.616
177.036
151.725
125.905
99.7874
73.5823
47.489
21.6976
-3.61464
-28.3013
-52.2206
-75.253
-97.2899
-118.25
-138.067
-156.697
-174.104
-190.275
-205.199
-218.879
-231.324
-242.547
-252.569
-261.409
-269.097
-275.656
-281.12
-285.52
-288.885
-291.253
-292.666
-293.145
-292.723
-291.448
-289.356
-286.478
-282.841
-278.473
-273.393
-267.612
-261.122
-253.928
-245.998
-237.314
-227.838
-217.543
-206.397
-194.393
-181.51
-167.8
-153.318
-138.134
-122.525
-106.679
-90.8525
-27.7164
-52.9502
-77.7655
-101.725
-124.67
-146.451
-167.012
-186.288
-204.262
-220.912
-236.245
-250.264
-262.99
-274.442
-284.65
-293.639
-301.441
-308.09
-313.616
-318.05
-321.423
-323.762
-325.09
-325.426
-324.778
-323.162
-320.61
-317.088
-312.603
-307.121
-300.637
-293.117
-284.545
-274.881
-264.11
-252.215
-239.173
-224.974
-209.608
-193.074
-175.373
-156.518
-136.529
-115.434
-93.2774
-70.0947
-45.9699
-20.9382
4.81459
31.4983
58.5057
85.6269
112.758
139.661
166.167
192.023
217.03
240.942
263.551
284.631
303.986
321.421
336.761
349.852
360.56
368.777
374.418
377.43
377.78
375.457
370.519
363.027
353.014
340.61
325.938
309.163
290.452
270.003
248.02
224.727
200.349
175.124
149.289
123.082
96.7314
70.4612
44.4826
18.9874
-5.81871
-29.7215
-52.7803
-74.856
-95.8487
-115.701
-134.363
-151.817
-168.052
-183.079
-196.919
-209.605
-221.168
-231.652
-241.098
-249.552
-257.05
-263.634
-269.336
-274.194
-278.238
-281.504
-284.007
-285.766
-286.784
-287.097
-286.697
-285.576
-283.725
-281.121
-277.738
-273.54
-268.492
-262.534
-255.634
-247.725
-238.759
-228.681
-217.448
-205.007
-191.323
-176.37
-160.131
-142.609
-123.82
-103.804
-82.616
-60.3377
-37.0629
-12.8854
12.5077
38.0211
63.9274
90.0601
116.213
142.169
167.703
192.589
216.601
239.522
261.14
281.257
299.691
316.273
330.856
343.31
353.523
361.404
366.881
369.9
370.414
368.435
364.004
357.109
347.82
336.218
322.407
306.517
288.695
269.11
247.951
225.415
201.715
177.068
151.694
125.814
99.6423
73.3881
47.251
21.4208
-3.9247
-28.6388
-52.5801
-75.6295
-97.6781
-118.645
-138.465
-157.095
-174.499
-190.665
-205.582
-219.254
-231.69
-242.903
-252.916
-261.745
-269.422
-275.971
-281.424
-285.813
-289.168
-291.526
-292.927
-293.392
-292.964
-291.679
-289.578
-286.693
-283.05
-278.679
-273.599
-267.821
-261.338
-254.154
-246.235
-237.565
-228.104
-217.824
-206.69
-194.692
-181.809
-168.087
-153.575
-138.332
-122.623
-106.585
-90.5832
-28.1002
-53.3732
-78.2183
-102.199
-125.159
-146.949
-167.513
-186.788
-204.758
-221.401
-236.724
-250.732
-263.446
-274.885
-285.079
-294.054
-301.843
-308.478
-313.991
-318.414
-321.777
-324.107
-325.427
-325.757
-325.106
-323.49
-320.94
-317.422
-312.942
-307.467
-300.993
-293.483
-284.922
-275.269
-264.509
-252.626
-239.594
-225.406
-210.049
-193.523
-175.829
-156.977
-136.989
-115.891
-93.7288
-70.5353
-46.3933
-21.3382
4.44807
31.1742
58.2456
85.4301
112.63
139.605
166.188
192.125
217.217
241.215
263.91
285.076
304.513
322.025
337.436
350.59
361.351
369.611
375.283
378.312
378.665
376.336
371.378
363.846
353.785
341.323
326.583
309.732
290.937
270.401
248.325
224.939
200.467
175.15
149.227
122.936
96.5066
70.1658
44.1258
18.5758
-6.26649
-30.2032
-53.2873
-75.3796
-96.3814
-116.236
-134.892
-152.336
-168.555
-183.564
-197.383
-210.046
-221.585
-232.047
-241.47
-249.903
-257.382
-263.947
-269.633
-274.476
-278.507
-281.762
-284.256
-286.014
-287.028
-287.34
-286.944
-285.829
-283.988
-281.396
-278.027
-273.846
-268.817
-262.88
-256.003
-248.117
-239.175
-229.119
-217.906
-205.483
-191.815
-176.873
-160.641
-143.121
-124.328
-104.301
-83.0949
-60.7884
-37.472
-13.2318
12.1106
37.7008
63.6768
89.8782
116.103
142.133
167.744
192.71
216.804
239.806
261.504
281.699
300.206
316.858
331.503
344.012
354.272
362.189
367.692
370.725
371.245
369.26
364.802
357.874
348.54
336.883
323.008
307.046
289.146
269.48
248.236
225.616
201.832
177.105
151.655
125.704
99.4671
73.154
46.9643
21.0878
-4.29771
-29.0448
-53.0123
-76.0822
-98.1446
-119.12
-138.944
-157.573
-174.973
-191.133
-206.041
-219.704
-232.129
-243.331
-253.332
-262.149
-269.813
-276.349
-281.789
-286.165
-289.507
-291.853
-293.24
-293.691
-293.252
-291.956
-289.844
-286.951
-283.3
-278.926
-273.846
-268.071
-261.596
-254.424
-246.52
-237.867
-228.424
-218.162
-207.042
-195.053
-182.169
-168.434
-153.886
-138.58
-122.752
-106.512
-90.2813
-28.5488
-53.8677
-78.7475
-102.754
-125.731
-147.53
-168.098
-187.372
-205.337
-221.972
-237.284
-251.279
-263.978
-275.402
-285.579
-294.539
-302.311
-308.931
-314.429
-318.839
-322.19
-324.509
-325.821
-326.144
-325.489
-323.87
-321.324
-317.811
-313.338
-307.871
-301.407
-293.909
-285.362
-275.722
-264.976
-253.106
-240.087
-225.91
-210.564
-194.047
-176.36
-157.513
-137.526
-116.426
-94.2565
-71.0504
-46.8888
-21.8065
4.01673
30.7965
57.9412
85.1993
112.478
139.538
166.211
192.243
217.435
241.533
264.33
285.594
305.127
322.729
338.224
351.452
362.275
370.585
376.293
379.342
379.701
377.364
372.38
364.803
354.687
342.156
327.337
310.396
291.504
270.864
248.681
225.185
200.605
175.18
149.153
122.763
96.2428
69.8197
43.7077
18.0948
-6.79078
-30.767
-53.8803
-75.9919
-97.0042
-116.86
-135.511
-152.942
-169.143
-184.131
-197.924
-210.561
-222.072
-232.507
-241.905
-250.313
-257.768
-264.312
-269.979
-274.806
-278.822
-282.063
-284.546
-286.3
-287.31
-287.623
-287.232
-286.124
-284.294
-281.716
-278.364
-274.204
-269.196
-263.285
-256.434
-248.574
-239.659
-229.63
-218.441
-206.039
-192.389
-177.461
-161.237
-143.719
-124.922
-104.882
-83.6553
-61.3171
-37.9558
-13.6566
11.6653
37.3311
63.3848
89.6653
115.973
142.09
167.792
192.851
217.04
240.137
261.929
282.214
300.808
317.54
332.258
344.832
355.146
363.106
368.639
371.689
372.215
370.222
365.735
358.767
349.381
337.66
323.71
307.664
289.672
269.91
248.568
225.849
201.968
177.147
151.608
125.574
99.2614
72.8795
46.6284
20.6981
-4.73414
-29.5196
-53.5179
-76.6113
-98.6899
-119.675
-139.503
-158.131
-175.527
-191.679
-206.578
-220.229
-232.642
-243.83
-253.817
-262.619
-270.268
-276.79
-282.215
-286.576
-289.903
-292.234
-293.605
-294.04
-293.589
-292.279
-290.154
-287.25
-283.592
-279.214
-274.133
-268.363
-261.898
-254.738
-246.853
-238.219
-228.797
-218.556
-207.453
-195.475
-182.591
-168.842
-154.257
-138.88
-122.923
-106.477
-89.9764
-29.0629
-54.434
-79.3536
-103.389
-126.385
-148.196
-168.768
-188.041
-205.999
-222.624
-237.924
-251.904
-264.586
-275.992
-286.152
-295.092
-302.846
-309.448
-314.93
-319.324
-322.661
-324.968
-326.271
-326.586
-325.926
-324.305
-321.763
-318.255
-313.789
-308.333
-301.88
-294.396
-285.864
-276.24
-265.508
-253.654
-240.649
-226.487
-211.153
-194.647
-176.968
-158.127
-138.141
-117.038
-94.8607
-71.6406
-47.4573
-22.3441
3.51874
30.366
57.5924
84.934
112.304
139.459
166.237
192.377
217.682
241.895
264.808
286.187
305.829
323.535
339.126
352.438
363.333
371.7
377.449
380.521
380.885
378.541
373.524
365.898
355.718
343.109
328.199
311.155
292.152
271.394
249.088
225.467
200.761
175.213
149.067
122.564
95.9393
69.4222
43.2276
17.544
-7.39266
-31.4139
-54.5601
-76.6936
-97.7175
-117.575
-136.219
-153.635
-169.816
-184.779
-198.543
-211.149
-222.629
-233.033
-242.401
-250.78
-258.209
-264.729
-270.374
-275.182
-279.181
-282.407
-284.877
-286.616
-287.633
-287.947
-287.56
-286.461
-284.643
-282.081
-278.749
-274.612
-269.63
-263.747
-256.926
-249.097
-240.213
-230.214
-219.052
-206.675
-193.047
-178.134
-161.92
-144.405
-125.601
-105.548
-84.2976
-61.9245
-38.5148
-14.1563
11.1674
36.9119
63.0513
89.4213
115.823
142.04
167.846
193.012
217.309
240.515
262.414
282.803
301.495
318.319
333.122
345.769
356.146
364.155
369.724
372.792
373.325
371.322
366.803
359.789
350.343
338.548
324.512
308.369
290.274
270.402
248.947
226.114
202.122
177.194
151.553
125.424
99.0246
72.5641
46.2427
20.2508
-5.23448
-30.0637
-54.0972
-77.2174
-99.3145
-120.311
-140.143
-158.77
-176.16
-192.304
-207.191
-220.829
-233.228
-244.401
-254.371
-263.157
-270.79
-277.294
-282.701
-287.045
-290.355
-292.669
-294.022
-294.441
-293.973
-292.647
-290.509
-287.593
-283.926
-279.543
-274.462
-268.696
-262.241
-255.097
-247.232
-238.622
-229.224
-219.007
-207.925
-195.959
-183.077
-169.313
-154.687
-139.233
-123.14
-106.482
-89.6795
-29.6429
-55.0728
-80.0372
-104.105
-127.123
-148.945
-169.522
-188.793
-206.745
-223.359
-238.644
-252.607
-265.271
-276.657
-286.796
-295.715
-303.448
-310.03
-315.493
-319.87
-323.19
-325.485
-326.777
-327.084
-326.417
-324.795
-322.255
-318.754
-314.297
-308.852
-302.413
-294.944
-286.43
-276.823
-266.108
-254.271
-241.282
-227.136
-211.816
-195.322
-177.653
-158.818
-138.833
-117.728
-95.5419
-72.3066
-48.0995
-22.9516
2.95933
29.8759
57.1979
84.6335
112.106
139.369
166.264
192.526
217.959
242.302
265.346
286.852
306.619
324.443
340.141
353.549
364.525
372.956
378.751
381.849
382.221
379.866
374.813
367.132
356.881
344.183
329.17
312.01
292.881
271.989
249.545
225.783
200.935
175.248
148.969
122.338
95.5955
68.9724
42.6845
16.9228
-8.0732
-32.1447
-55.3274
-77.4854
-98.5219
-118.382
-137.017
-154.417
-170.575
-185.509
-199.24
-211.811
-223.256
-233.624
-242.959
-251.307
-258.706
-265.198
-270.819
-275.605
-279.584
-282.794
-285.25
-286.972
-287.995
-288.311
-287.928
-286.839
-285.035
-282.491
-279.181
-275.07
-270.118
-264.266
-257.479
-249.685
-240.837
-230.872
-219.74
-207.392
-193.787
-178.892
-162.689
-145.177
-126.368
-106.299
-85.0226
-62.6113
-39.1501
-14.7301
10.615
36.443
62.6757
89.1457
115.654
141.982
167.905
193.191
217.611
240.939
262.959
283.465
302.269
319.197
334.094
346.825
357.271
365.337
370.945
374.036
374.575
372.559
368.006
360.941
351.427
339.548
325.415
309.163
290.95
270.954
249.372
226.411
202.294
177.244
151.489
125.254
98.7559
72.2069
45.8066
19.7453
-5.79925
-30.6778
-54.7509
-77.9009
-100.019
-121.027
-140.865
-159.49
-176.874
-193.007
-207.882
-221.505
-233.888
-245.043
-254.996
-263.763
-271.376
-277.861
-283.249
-287.574
-290.864
-293.158
-294.492
-294.891
-294.404
-293.062
-290.908
-287.977
-284.3
-279.912
-274.83
-269.07
-262.627
-255.5
-247.658
-239.075
-229.706
-219.516
-208.457
-196.507
-183.628
-169.848
-155.179
-139.643
-123.411
-106.532
-89.4111
-30.2894
-55.7845
-80.7987
-104.903
-127.944
-149.78
-170.361
-189.63
-207.574
-224.176
-239.445
-253.39
-266.032
-277.396
-287.511
-296.407
-304.117
-310.676
-316.118
-320.475
-323.779
-326.058
-327.339
-327.636
-326.964
-325.338
-322.802
-319.308
-314.861
-309.429
-303.004
-295.552
-287.057
-277.47
-266.774
-254.956
-241.986
-227.857
-212.554
-196.073
-178.414
-159.586
-139.605
-118.496
-96.3007
-73.0491
-48.8162
-23.6298
2.33968
29.3229
56.7569
84.2973
111.883
139.267
166.291
192.69
218.265
242.753
265.942
287.592
307.497
325.451
341.269
354.784
365.851
374.353
380.2
383.329
383.707
381.338
376.247
368.505
358.175
345.378
330.251
312.96
293.691
272.649
250.052
226.132
201.126
175.286
148.857
122.084
95.2105
68.4692
42.0772
16.2305
-8.83349
-32.9602
-56.1834
-78.3681
-99.4183
-119.28
-137.907
-155.288
-171.419
-186.32
-200.016
-212.547
-223.953
-234.282
-243.579
-251.891
-259.257
-265.719
-271.313
-276.074
-280.032
-283.224
-285.665
-287.379
-288.397
-288.714
-288.337
-287.258
-285.47
-282.946
-279.661
-275.58
-270.659
-264.844
-258.094
-250.339
-241.531
-231.603
-220.506
-208.19
-194.611
-179.736
-163.546
-146.037
-127.222
-107.136
-85.8308
-63.3782
-39.8627
-15.3782
10.007
35.9235
62.2576
88.8377
115.463
141.916
167.969
193.389
217.945
241.41
263.564
284.2
303.128
320.172
335.175
347.998
358.524
366.652
372.305
375.421
375.966
373.935
369.344
362.223
352.632
340.661
326.419
310.046
291.702
271.567
249.843
226.74
202.483
177.298
151.415
125.061
98.4545
71.8072
45.3194
19.181
-6.42927
-31.3627
-55.4795
-78.6626
-100.803
-121.824
-141.667
-160.291
-177.667
-193.79
-208.649
-222.256
-234.621
-245.757
-255.689
-264.435
-272.027
-278.491
-283.858
-288.161
-291.429
-293.702
-295.013
-295.392
-294.885
-293.522
-291.351
-288.404
-284.715
-280.322
-275.238
-269.485
-263.055
-255.948
-248.131
-239.578
-230.241
-220.082
-209.051
-197.118
-184.244
-170.45
-155.736
-140.114
-123.738
-106.636
-89.1836
-31.003
-56.5699
-81.6389
-105.782
-128.849
-150.699
-171.286
-190.553
-208.488
-225.076
-240.327
-254.251
-266.87
-278.209
-288.299
-297.169
-304.853
-311.387
-316.805
-321.141
-324.426
-326.689
-327.956
-328.243
-327.566
-325.936
-323.402
-319.917
-315.481
-310.062
-303.654
-296.222
-287.746
-278.183
-267.508
-255.71
-242.761
-228.651
-213.365
-196.901
-179.254
-160.433
-140.455
-119.343
-97.1379
-73.869
-49.6082
-24.3799
1.65381
28.7104
56.2687
83.9249
111.635
139.151
166.318
192.867
218.599
243.248
266.597
288.404
308.462
326.561
342.512
356.146
367.312
375.894
381.797
384.959
385.346
382.959
377.827
370.018
359.6
346.694
331.44
314.007
294.583
273.376
250.608
226.515
201.335
175.324
148.73
121.801
94.7834
67.9115
41.4045
15.4656
-9.67478
-33.8614
-57.1288
-79.3425
-100.407
-120.271
-138.887
-156.247
-172.349
-187.215
-200.87
-213.357
-224.719
-235.005
-244.261
-252.534
-259.864
-266.292
-271.856
-276.59
-280.525
-283.696
-286.122
-287.826
-288.839
-289.157
-288.786
-287.719
-285.947
-283.446
-280.189
-276.139
-271.255
-265.478
-258.771
-251.059
-242.293
-232.407
-221.35
-209.068
-195.519
-180.666
-164.49
-146.985
-128.163
-108.06
-86.7232
-64.2262
-40.6528
-16.1016
9.34271
35.3524
61.7964
88.4969
115.252
141.841
168.037
193.605
218.311
241.926
264.229
285.009
304.074
321.245
336.364
349.291
359.903
368.1
373.802
376.947
377.499
375.451
370.818
363.634
353.961
341.886
327.525
311.017
292.528
272.241
250.359
227.099
202.687
177.354
151.33
124.846
98.1195
71.364
44.7801
18.557
-7.12536
-32.119
-56.2839
-79.5032
-101.669
-122.704
-142.552
-161.173
-178.541
-194.651
-209.494
-223.083
-235.428
-246.542
-256.453
-265.176
-272.744
-279.185
-284.528
-288.807
-292.051
-294.301
-295.587
-295.943
-295.413
-294.028
-291.838
-288.873
-285.172
-280.77
-275.686
-269.939
-263.524
-256.438
-248.651
-240.131
-230.83
-220.707
-209.706
-197.795
-184.927
-171.12
-156.359
-140.65
-124.128
-106.801
-89.0123
-31.7844
-57.4296
-82.5585
-106.744
-129.839
-151.704
-172.296
-191.56
-209.485
-226.058
-241.29
-255.191
-267.785
-279.096
-289.158
-297.999
-305.656
-312.162
-317.555
-321.867
-325.131
-327.376
-328.629
-328.905
-328.225
-326.587
-324.057
-320.58
-316.156
-310.754
-304.364
-296.952
-288.498
-278.959
-268.308
-256.534
-243.607
-229.518
-214.252
-197.804
-180.171
-161.359
-141.383
-120.269
-98.0543
-74.7667
-50.4761
-25.2026
0.898246
28.0376
55.7329
83.5156
111.361
139.02
166.343
193.058
218.962
243.785
267.309
289.29
309.516
327.773
343.87
357.633
368.908
377.577
383.542
386.741
387.138
384.729
379.554
371.672
361.158
348.134
332.74
315.15
295.556
274.169
251.214
226.93
201.561
175.364
148.588
121.489
94.3131
67.2981
40.6651
14.6262
-10.5983
-34.8491
-58.1644
-80.4092
-101.49
-121.355
-139.96
-157.297
-173.366
-188.192
-201.803
-214.243
-225.556
-235.794
-245.004
-253.235
-260.525
-266.918
-272.448
-277.153
-281.061
-284.211
-286.619
-288.313
-289.321
-289.64
-289.275
-288.221
-286.467
-283.99
-280.764
-276.748
-271.903
-266.171
-259.509
-251.844
-243.126
-233.285
-222.271
-210.028
-196.511
-181.683
-165.522
-148.022
-129.194
-109.07
-87.7008
-65.1559
-41.5208
-16.8973
8.61727
34.7286
61.2914
88.1225
115.018
141.757
168.109
193.839
218.709
242.489
264.953
285.891
305.105
322.416
337.663
350.702
361.41
369.683
375.439
378.614
379.174
377.107
372.43
365.177
355.412
343.224
328.731
312.077
293.429
272.974
250.92
227.488
202.907
177.411
151.234
124.606
97.7497
70.8763
44.1879
17.8727
-7.88848
-32.9479
-57.1649
-80.4233
-102.616
-123.666
-143.519
-162.137
-179.496
-195.591
-210.417
-223.985
-236.308
-247.4
-257.286
-265.984
-273.527
-279.941
-285.259
-289.512
-292.73
-294.953
-296.214
-296.544
-295.988
-294.58
-292.368
-289.383
-285.669
-281.259
-276.173
-270.433
-264.034
-256.973
-249.217
-240.735
-231.473
-221.389
-210.423
-198.536
-185.679
-171.86
-157.052
-141.254
-124.583
-107.033
-88.9092
-32.6343
-58.3644
-83.5582
-107.79
-130.914
-152.795
-173.393
-192.653
-210.568
-227.124
-242.334
-256.21
-268.776
-280.058
-290.089
-298.9
-306.525
-313.002
-318.367
-322.653
-325.895
-328.121
-329.358
-329.621
-328.935
-327.296
-324.766
-321.298
-316.888
-311.502
-305.132
-297.743
-289.313
-279.799
-269.176
-257.427
-244.524
-230.458
-215.214
-198.785
-181.167
-162.364
-142.392
-121.275
-99.05
-75.7428
-51.4205
-26.0994
0.0699336
27.3045
55.1484
83.0685
111.06
138.874
166.367
193.261
219.352
244.365
268.08
290.249
310.657
329.087
345.343
359.246
370.641
379.405
385.438
388.677
389.084
386.651
381.43
373.469
362.849
349.696
334.15
316.391
296.611
275.027
251.869
227.378
201.803
175.403
148.431
121.147
93.7983
66.6274
39.8578
13.7078
-11.6029
-35.9237
-59.2909
-81.5698
-102.668
-122.533
-141.125
-158.437
-174.47
-189.252
-202.815
-215.202
-226.463
-236.65
-245.809
-253.993
-261.241
-267.595
-273.089
-277.761
-281.642
-284.768
-287.158
-288.841
-289.841
-290.162
-289.803
-288.763
-287.029
-284.579
-281.385
-277.407
-272.606
-266.92
-260.308
-252.696
-244.028
-234.238
-223.271
-211.07
-197.588
-182.787
-166.643
-149.149
-130.314
-110.169
-88.7643
-66.1684
-42.4676
-17.7656
7.82904
34.0508
60.7416
87.7138
114.761
141.662
168.184
194.089
219.138
243.096
265.737
286.846
306.223
323.686
339.071
352.233
363.044
371.4
377.215
380.424
380.991
378.905
374.179
366.851
356.986
344.676
330.04
313.226
294.404
273.767
251.526
227.906
203.142
177.468
151.125
124.342
97.344
70.3432
43.5415
17.1268
-8.7198
-33.8503
-58.1235
-81.4237
-103.645
-124.711
-144.569
-163.183
-180.532
-196.611
-211.418
-224.964
-237.263
-248.329
-258.189
-266.859
-274.375
-280.761
-286.05
-290.275
-293.466
-295.661
-296.893
-297.195
-296.611
-295.179
-292.941
-289.936
-286.206
-281.786
-276.699
-270.967
-264.585
-257.551
-249.83
-241.388
-232.171
-222.13
-211.203
-199.345
-186.501
-172.671
-157.819
-141.931
-125.111
-107.34
-88.8886
-33.5534
-59.3751
-84.639
-108.92
-132.074
-153.973
-174.576
-193.832
-211.735
-228.273
-243.46
-257.309
-269.845
-281.095
-291.092
-299.869
-307.461
-313.906
-319.24
-323.499
-326.717
-328.922
-330.141
-330.391
-329.697
-328.059
-325.529
-322.071
-317.674
-312.306
-305.958
-298.594
-290.192
-280.705
-270.109
-258.389
-245.512
-231.472
-216.25
-199.842
-182.24
-163.448
-143.48
-122.361
-100.126
-76.7983
-52.4428
-27.0716
-0.83228
26.5091
54.5144
82.5823
110.731
138.712
166.388
193.475
219.769
244.987
268.909
291.281
311.886
330.503
346.931
360.987
372.512
381.379
387.485
390.766
391.185
388.729
383.454
375.409
364.675
351.382
335.67
317.728
297.747
275.952
252.573
227.859
202.061
175.441
148.257
120.773
93.2376
65.8976
38.9814
12.7086
-12.6892
-37.0867
-60.5098
-82.8255
-103.942
-123.807
-142.384
-159.668
-175.662
-190.396
-203.905
-216.237
-227.44
-237.571
-246.676
-254.81
-262.012
-268.324
-273.779
-278.416
-282.267
-285.367
-287.737
-289.408
-290.401
-290.722
-290.371
-289.346
-287.633
-285.212
-282.053
-278.116
-273.362
-267.726
-261.169
-253.612
-245
-235.266
-224.349
-212.194
-198.75
-183.979
-167.854
-150.366
-131.524
-111.357
-89.9145
-67.2647
-43.4939
-18.7076
6.97713
33.318
60.146
87.2699
114.481
141.557
168.262
194.356
219.598
243.749
266.58
287.874
307.427
325.054
340.589
353.883
364.807
373.253
379.131
382.378
382.953
380.844
376.067
368.658
358.685
346.242
331.451
314.464
295.454
274.619
252.176
228.353
203.389
177.525
151.002
124.052
96.9013
69.7631
42.8398
16.3184
-9.62049
-34.827
-59.1607
-82.5058
-104.757
-125.84
-145.703
-164.312
-181.649
-197.711
-212.496
-226.018
-238.291
-249.33
-259.161
-267.803
-275.288
-281.644
-286.903
-291.098
-294.259
-296.423
-297.624
-297.896
-297.283
-295.822
-293.558
-290.531
-286.783
-282.352
-277.264
-271.54
-265.176
-258.171
-250.489
-242.092
-232.923
-222.93
-212.046
-200.221
-187.395
-173.558
-158.661
-142.683
-125.716
-107.728
-88.9564
-34.5424
-60.4625
-85.8019
-110.136
-133.322
-155.238
-175.846
-195.098
-212.987
-229.506
-244.668
-258.487
-270.991
-282.206
-292.167
-300.908
-308.464
-314.875
-320.176
-324.405
-327.597
-329.78
-330.98
-331.216
-330.512
-328.877
-326.348
-322.897
-318.516
-313.167
-306.843
-299.506
-291.133
-281.675
-271.11