/*--------------------------------*- C++ -*----------------------------------*\
| =========                 |                                                 |
| \\      /  F ield         | OpenFOAM: The Open Source CFD Toolbox           |
|  \\    /   O peration     | Version:  3.0.1                                 |
|   \\  /    A nd           | Web:      www.OpenFOAM.org                      |
|    \\/     M anipulation  |                                                 |
\*---------------------------------------------------------------------------*/
FoamFile
{
    version     2.0;
    format      ascii;
    class       surfaceScalarField;
    location    "77.4";
    object      phi;
}
// * * * * * * * * * * * * * * * * * * * * * * * * * * * * * * * * * * * * * //

dimensions      [0 3 -1 0 0 0 0];

internalField   nonuniform List<scalar> 
42423
(
1.12243e-05
-2.35019e-06
1.39618e-05
-2.7375e-06
1.71385e-05
-3.17674e-06
2.07372e-05
-3.59876e-06
2.48991e-05
-4.1619e-06
2.95423e-05
-4.6432e-06
3.48727e-05
-5.33047e-06
4.08864e-05
-6.01368e-06
4.74312e-05
-6.54486e-06
5.48586e-05
-7.42746e-06
6.322e-05
-8.36144e-06
7.22523e-05
-9.03234e-06
8.23901e-05
-1.01378e-05
9.34562e-05
-1.10661e-05
0.000105648
-1.21919e-05
0.000118995
-1.33472e-05
0.00013306
-1.40646e-05
0.000148144
-1.50843e-05
0.000164221
-1.6077e-05
0.000180855
-1.66346e-05
0.000198177
-1.73219e-05
0.000216156
-1.7979e-05
0.000234289
-1.81336e-05
0.000252567
-1.82773e-05
0.000270794
-1.82269e-05
0.000288708
-1.79148e-05
0.000306165
-1.74563e-05
0.000322746
-1.65818e-05
0.000338339
-1.55926e-05
0.000352688
-1.43495e-05
0.000365532
-1.28443e-05
0.000376688
-1.11561e-05
0.000385932
-9.24379e-06
0.000393094
-7.16196e-06
0.000398103
-5.00912e-06
0.000400769
-2.66642e-06
0.00040114
-3.70516e-07
0.000399301
1.83917e-06
0.000394912
4.38816e-06
0.000388396
6.51594e-06
0.000379834
8.56263e-06
0.000369417
1.0417e-05
0.000357483
1.19335e-05
0.000343924
1.35587e-05
0.000329096
1.48282e-05
0.000313366
1.57302e-05
0.000296736
1.66296e-05
0.000279528
1.72084e-05
0.000262017
1.75103e-05
0.000244278
1.77396e-05
0.000226576
1.77014e-05
0.000209056
1.75207e-05
0.000191883
1.71724e-05
0.000175181
1.67018e-05
0.000159025
1.61563e-05
0.000143544
1.54813e-05
0.0001288
1.47443e-05
0.000114831
1.39687e-05
0.000101709
1.31222e-05
8.94384e-05
1.22703e-05
7.80534e-05
1.1385e-05
6.75461e-05
1.05073e-05
5.78865e-05
9.65963e-06
4.9061e-05
8.82552e-06
4.10241e-05
8.03687e-06
3.36576e-05
7.36655e-06
2.69174e-05
6.74018e-06
2.06691e-05
6.2483e-06
1.48574e-05
5.81177e-06
9.43491e-06
5.42245e-06
4.29441e-06
5.1405e-06
-5.53467e-07
4.84788e-06
-5.14281e-06
4.58935e-06
-9.57797e-06
4.43516e-06
-1.38576e-05
4.27959e-06
-1.7898e-05
4.04045e-06
-2.1775e-05
3.87705e-06
-2.52707e-05
3.49569e-06
-2.82326e-05
2.96191e-06
-3.07722e-05
2.53959e-06
-3.26165e-05
1.8443e-06
-3.36077e-05
9.91166e-07
-3.37928e-05
1.85074e-07
-3.26963e-05
-1.09651e-06
-3.0386e-05
-2.31031e-06
-2.69288e-05
-3.4572e-06
-2.23132e-05
-4.61559e-06
-1.66277e-05
-5.68545e-06
-9.907e-06
-6.72074e-06
-2.30688e-06
-7.60013e-06
6.86698e-06
-9.17387e-06
1.68576e-05
-9.99068e-06
2.76201e-05
-1.07625e-05
3.90904e-05
-1.14703e-05
5.13034e-05
-1.2213e-05
6.42301e-05
-1.29268e-05
7.78487e-05
-1.36186e-05
9.21406e-05
-1.42919e-05
0.000107097
-1.49567e-05
0.000122564
-1.54672e-05
0.000138528
-1.59634e-05
0.0001549
-1.6372e-05
0.00017156
-1.66601e-05
0.000188356
-1.67964e-05
0.000205179
-1.68231e-05
0.000221855
-1.66761e-05
0.000238215
-1.63599e-05
0.000254114
-1.58992e-05
0.000269257
-1.51427e-05
0.000283504
-1.42475e-05
0.00029663
-1.31256e-05
0.000308409
-1.17791e-05
0.000318657
-1.02486e-05
0.000327172
-8.5145e-06
0.000333817
-6.64514e-06
0.000338368
-4.5516e-06
0.000340763
-2.39523e-06
0.000341022
-2.58995e-07
0.000338998
2.02455e-06
0.000334638
4.35932e-06
0.000328093
6.5452e-06
0.000319394
8.69935e-06
0.000308714
1.06792e-05
0.000296104
1.26108e-05
0.000281829
1.42742e-05
0.00026605
1.57794e-05
0.000249055
1.69949e-05
0.000231009
1.80463e-05
0.000212192
1.88163e-05
0.000192975
1.92173e-05
0.000173605
1.93696e-05
0.000154363
1.92422e-05
0.000135476
1.88874e-05
0.000117167
1.83089e-05
9.95954e-05
1.75716e-05
8.28879e-05
1.67075e-05
6.71541e-05
1.57338e-05
5.24377e-05
1.47164e-05
3.88253e-05
1.36123e-05
2.62827e-05
1.25426e-05
1.49499e-05
1.13328e-05
4.78519e-06
1.01647e-05
-4.16838e-06
8.95356e-06
-1.19487e-05
7.78027e-06
-1.85653e-05
6.61667e-06
-2.40288e-05
5.4635e-06
-2.84728e-05
4.44395e-06
-3.1837e-05
3.36422e-06
-3.43109e-05
2.47388e-06
-3.58648e-05
1.55392e-06
-3.6565e-05
7.00216e-07
-3.65493e-05
-1.57771e-08
-3.57993e-05
-7.49927e-07
-3.44267e-05
-1.37264e-06
-3.24575e-05
-1.96922e-06
-2.98977e-05
-2.55974e-06
-2.68699e-05
-3.02786e-06
-2.3397e-05
-3.47283e-06
-1.94307e-05
-3.96633e-06
-1.51093e-05
-4.32142e-06
-1.0442e-05
-4.66726e-06
-5.40968e-06
-5.0323e-06
-6.74725e-08
-5.3422e-06
5.63858e-06
-5.70604e-06
1.16908e-05
-6.05223e-06
1.81129e-05
-6.42211e-06
2.49163e-05
-6.80336e-06
3.20916e-05
-7.17535e-06
3.96058e-05
-7.51411e-06
4.74197e-05
-7.81391e-06
5.54959e-05
-8.07625e-06
6.38345e-05
-8.33858e-06
7.23813e-05
-8.54678e-06
8.11333e-05
-8.75202e-06
9.01404e-05
-9.00717e-06
9.94687e-05
-9.32831e-06
0.000109125
-9.65579e-06
0.000119212
-1.00873e-05
0.000129788
-1.05758e-05
0.000140904
-1.11169e-05
0.000152585
-1.16811e-05
0.000164878
-1.22921e-05
0.000177754
-1.28766e-05
0.000191201
-1.3447e-05
0.000205081
-1.38797e-05
0.000219355
-1.42746e-05
0.00023382
-1.44647e-05
0.000248375
-1.45554e-05
0.000262838
-1.44627e-05
0.000277081
-1.42435e-05
0.00029096
-1.38792e-05
0.000304232
-1.32718e-05
0.000316698
-1.24663e-05
0.000328076
-1.1378e-05
0.000338085
-1.00085e-05
0.000346522
-8.43789e-06
0.000353089
-6.56631e-06
0.000357595
-4.50624e-06
0.000359909
-2.31387e-06
0.000359927
-1.84361e-08
0.000357613
2.31392e-06
0.000352859
4.75387e-06
0.000345818
7.04066e-06
0.000336646
9.1721e-06
0.000325522
1.11245e-05
0.000312677
1.28442e-05
0.000298363
1.43139e-05
0.000282892
1.54716e-05
0.000266568
1.63235e-05
0.00024973
1.68379e-05
0.000232655
1.70752e-05
0.000215638
1.70172e-05
0.00019892
1.67174e-05
0.000182746
1.61742e-05
0.0001673
1.54457e-05
0.000152735
1.45652e-05
0.000139114
1.36215e-05
0.000126505
1.2609e-05
0.000114912
1.15924e-05
0.000104351
1.05607e-05
9.48084e-05
9.54302e-06
8.62614e-05
8.54695e-06
7.86673e-05
7.59407e-06
7.19671e-05
6.70018e-06
6.60818e-05
5.88533e-06
6.09764e-05
5.10542e-06
5.65918e-05
4.38451e-06
5.2868e-05
3.72381e-06
4.97341e-05
3.1339e-06
4.7105e-05
2.62911e-06
4.48511e-05
2.25388e-06
4.28708e-05
1.98026e-06
4.10431e-05
1.82773e-06
3.92643e-05
1.77882e-06
3.75005e-05
1.76372e-06
3.57375e-05
1.76305e-06
3.39946e-05
1.74291e-06
3.23693e-05
1.62528e-06
3.08751e-05
1.4942e-06
2.96484e-05
1.22671e-06
2.87221e-05
9.26236e-07
2.81351e-05
5.87048e-07
2.79413e-05
1.93734e-07
2.81647e-05
-2.23317e-07
2.87591e-05
-5.94398e-07
2.969e-05
-9.30961e-07
3.08982e-05
-1.20815e-06
3.23706e-05
-1.4724e-06
3.41067e-05
-1.73619e-06
3.61074e-05
-2.0007e-06
3.84492e-05
-2.34177e-06
4.12091e-05
-2.75992e-06
4.44615e-05
-3.25243e-06
4.83159e-05
-3.85436e-06
5.28616e-05
-4.54571e-06
5.81978e-05
-5.33621e-06
6.43958e-05
-6.198e-06
7.15229e-05
-7.12714e-06
7.95951e-05
-8.07225e-06
8.86026e-05
-9.00755e-06
9.84901e-05
-9.88749e-06
0.000109243
-1.07525e-05
0.000120858
-1.16154e-05
0.000133233
-1.23748e-05
0.00014632
-1.30871e-05
0.000160059
-1.37388e-05
0.000174402
-1.43439e-05
0.000189119
-1.47168e-05
0.000204017
-1.48983e-05
0.000219055
-1.50378e-05
0.000234136
-1.50815e-05
0.000249064
-1.49277e-05
0.000263709
-1.46455e-05
0.000277926
-1.4217e-05
0.000291606
-1.36799e-05
0.000304624
-1.3018e-05
0.000316793
-1.21694e-05
0.000328034
-1.12402e-05
0.000338105
-1.00711e-05
0.000346809
-8.70465e-06
0.000353857
-7.04747e-06
0.000359157
-5.30085e-06
0.000362596
-3.439e-06
0.000363267
-6.70434e-07
0.000361275
1.99215e-06
0.000356904
4.37063e-06
0.000350643
6.26128e-06
0.0003425
8.14296e-06
0.000332225
1.02747e-05
0.000320109
1.21157e-05
0.000306341
1.37681e-05
0.00029115
1.51912e-05
0.000275099
1.60508e-05
0.000258483
1.66158e-05
0.000241586
1.68973e-05
0.000224867
1.67186e-05
0.000208494
1.63731e-05
0.000192654
1.584e-05
0.00017754
1.51137e-05
0.000163181
1.43587e-05
0.000149691
1.34904e-05
0.000137041
1.26499e-05
0.000125224
1.18173e-05
0.000114273
1.09505e-05
0.000104146
1.01278e-05
9.48192e-05
9.32642e-06
8.62979e-05
8.5213e-06
7.85427e-05
7.75517e-06
7.15443e-05
6.99847e-06
6.52648e-05
6.27945e-06
5.96741e-05
5.59074e-06
5.47428e-05
4.93126e-06
5.04254e-05
4.3174e-06
4.66762e-05
3.74922e-06
4.34468e-05
3.22935e-06
4.06826e-05
2.76423e-06
3.83315e-05
2.35108e-06
3.63416e-05
1.9899e-06
3.46654e-05
1.67626e-06
3.32642e-05
1.40113e-06
3.21064e-05
1.15781e-06
3.11689e-05
9.37507e-07
3.04556e-05
7.13324e-07
2.99697e-05
4.85877e-07
2.97402e-05
2.2948e-07
2.98222e-05
-8.19506e-08
3.01847e-05
-3.62564e-07
3.09895e-05
-8.04732e-07
3.22727e-05
-1.28327e-06
3.39589e-05
-1.68615e-06
3.62843e-05
-2.32537e-06
3.92913e-05
-3.00706e-06
4.2861e-05
-3.56973e-06
4.71924e-05
-4.33136e-06
5.22416e-05
-5.0492e-06
5.81242e-05
-5.88261e-06
6.48975e-05
-6.77341e-06
7.23112e-05
-7.41367e-06
8.06138e-05
-8.30262e-06
8.98305e-05
-9.21674e-06
9.96322e-05
-9.80174e-06
0.000110327
-1.06945e-05
0.000121744
-1.14169e-05
0.000134004
-1.22606e-05
0.000147091
-1.30875e-05
0.000160665
-1.35736e-05
0.000174936
-1.42706e-05
0.00018989
-1.49548e-05
0.000205176
-1.52856e-05
0.000220948
-1.57728e-05
0.000236911
-1.59625e-05
0.000253089
-1.61778e-05
0.000269281
-1.61923e-05
0.000285152
-1.58714e-05
0.000300694
-1.55421e-05
0.000315704
-1.50098e-05
-1.46479e-05
1.12059e-05
-4.70009e-06
1.39424e-05
-5.47403e-06
1.71179e-05
-6.35229e-06
2.07142e-05
-7.19505e-06
2.48733e-05
-8.32106e-06
2.9515e-05
-9.28494e-06
3.48479e-05
-1.06635e-05
4.08576e-05
-1.20234e-05
4.73979e-05
-1.30852e-05
5.48339e-05
-1.48635e-05
6.31953e-05
-1.6723e-05
7.22309e-05
-1.8068e-05
8.23625e-05
-2.02696e-05
9.34166e-05
-2.21203e-05
0.000105609
-2.43848e-05
0.000118958
-2.66961e-05
0.000133025
-2.81319e-05
0.000148115
-3.01743e-05
0.000164198
-3.21598e-05
0.000180838
-3.32749e-05
0.000198177
-3.46616e-05
0.000216167
-3.5969e-05
0.000234293
-3.62597e-05
0.000252589
-3.65737e-05
0.000270826
-3.64644e-05
0.000288744
-3.58329e-05
0.000306215
-3.49274e-05
0.000322803
-3.31695e-05
0.000338401
-3.11909e-05
0.000352767
-2.87155e-05
0.000365626
-2.57035e-05
0.000376783
-2.23136e-05
0.000386031
-1.84915e-05
0.000393194
-1.43252e-05
0.000398207
-1.00223e-05
0.000400884
-5.34325e-06
0.00040126
-7.4663e-07
0.000399406
3.69214e-06
0.00039502
8.77411e-06
0.000388505
1.30317e-05
0.000379936
1.71308e-05
0.000369511
2.08425e-05
0.00035757
2.38746e-05
0.000344001
2.71269e-05
0.000329163
2.96669e-05
0.000313426
3.14669e-05
0.000296782
3.32734e-05
0.000279567
3.44234e-05
0.000262047
3.50303e-05
0.000244298
3.5489e-05
0.000226592
3.54072e-05
0.000209063
3.5049e-05
0.000191885
3.43509e-05
0.000175178
3.34092e-05
0.000159016
3.23177e-05
0.00014353
3.09671e-05
0.000128782
2.94927e-05
0.00011481
2.7941e-05
0.000101685
2.62473e-05
8.94122e-05
2.45428e-05
7.80253e-05
2.27719e-05
6.75168e-05
2.10158e-05
5.78567e-05
1.93198e-05
4.90305e-05
1.76517e-05
4.09939e-05
1.60735e-05
3.3628e-05
1.47325e-05
2.68905e-05
1.34777e-05
2.06432e-05
1.24956e-05
1.48334e-05
1.16216e-05
9.41467e-06
1.08412e-05
4.27619e-06
1.0279e-05
-5.63501e-07
9.68759e-06
-5.14296e-06
9.16881e-06
-9.56374e-06
8.85595e-06
-1.38363e-05
8.55211e-06
-1.78663e-05
8.07053e-06
-2.17261e-05
7.73681e-06
-2.52066e-05
6.97625e-06
-2.81536e-05
5.90887e-06
-3.06765e-05
5.06253e-06
-3.2506e-05
3.67373e-06
-3.34841e-05
1.96925e-06
-3.36517e-05
3.52663e-07
-3.2546e-05
-2.2022e-06
-3.02216e-05
-4.63471e-06
-2.67459e-05
-6.93284e-06
-2.21248e-05
-9.23671e-06
-1.64278e-05
-1.13825e-05
-9.68796e-06
-1.34606e-05
-2.09595e-06
-1.51922e-05
7.11031e-06
-1.83802e-05
1.71042e-05
-1.99846e-05
2.78661e-05
-2.15244e-05
3.93472e-05
-2.29515e-05
5.15559e-05
-2.44217e-05
6.44969e-05
-2.58678e-05
7.81136e-05
-2.72354e-05
9.24097e-05
-2.8588e-05
0.000107341
-2.98883e-05
0.00012283
-3.09561e-05
0.000138798
-3.19313e-05
0.000155206
-3.278e-05
0.00017183
-3.32845e-05
0.000188637
-3.36042e-05
0.000205466
-3.3652e-05
0.000222143
-3.33534e-05
0.00023851
-3.2727e-05
0.000254387
-3.17755e-05
0.000269558
-3.03143e-05
0.000283814
-2.85032e-05
0.000296952
-2.6264e-05
0.000308745
-2.35724e-05
0.000318996
-2.04999e-05
0.000327512
-1.70301e-05
0.000334178
-1.33117e-05
0.000338726
-9.09979e-06
0.000341132
-4.80135e-06
0.000341389
-5.15839e-07
0.000339337
4.07597e-06
0.000334982
8.71458e-06
0.000328432
1.30946e-05
0.000319738
1.73935e-05
0.000309033
2.13846e-05
0.000296443
2.52006e-05
0.000282175
2.85417e-05
0.00026637
3.15849e-05
0.000249309
3.40551e-05
0.000231264
3.60918e-05
0.00021247
3.76104e-05
0.000193261
3.8426e-05
0.000173873
3.87573e-05
0.000154606
3.8509e-05
0.000135756
3.77378e-05
0.000117379
3.66854e-05
9.98145e-05
3.51363e-05
8.30745e-05
3.34475e-05
6.73362e-05
3.1472e-05
5.26196e-05
2.94331e-05
3.89769e-05
2.7255e-05
2.64476e-05
2.50719e-05
1.50931e-05
2.26873e-05
4.96517e-06
2.02926e-05
-4.06215e-06
1.79809e-05
-1.18605e-05
1.55786e-05
-1.84929e-05
1.32491e-05
-2.39974e-05
1.0968e-05
-2.84384e-05
8.88497e-06
-3.18417e-05
6.76744e-06
-3.43026e-05
4.93481e-06
-3.58692e-05
3.12057e-06
-3.65914e-05
1.42242e-06
-3.65865e-05
-2.06777e-08
-3.58494e-05
-1.48707e-06
-3.45036e-05
-2.71843e-06
-3.2545e-05
-3.92775e-06
-2.99945e-05
-5.1103e-06
-2.69906e-05
-6.03171e-06
-2.353e-05
-6.93342e-06
-1.96085e-05
-7.88785e-06
-1.52517e-05
-8.6782e-06
-1.05754e-05
-9.34357e-06
-5.54906e-06
-1.00586e-05
-2.36593e-07
-1.06547e-05
5.44755e-06
-1.13902e-05
1.14939e-05
-1.20986e-05
1.79199e-05
-1.28481e-05
2.47258e-05
-1.36093e-05
3.18948e-05
-1.43443e-05
3.9419e-05
-1.50383e-05
4.72416e-05
-1.56366e-05
5.53144e-05
-1.61491e-05
6.36508e-05
-1.6675e-05
7.21902e-05
-1.70862e-05
8.09583e-05
-1.75201e-05
8.99725e-05
-1.80213e-05
9.92996e-05
-1.86554e-05
0.000108967
-1.93228e-05
0.000119077
-2.01979e-05
0.000129645
-2.11439e-05
0.000140746
-2.2218e-05
0.000152451
-2.3386e-05
0.000164755
-2.45961e-05
0.000177639
-2.57605e-05
0.000191109
-2.69174e-05
0.000204993
-2.77641e-05
0.000219265
-2.85468e-05
0.000233747
-2.89468e-05
0.000248308
-2.91164e-05
0.000262787
-2.89417e-05
0.000277041
-2.8498e-05
0.000290924
-2.77624e-05
0.000304206
-2.65535e-05
0.000316681
-2.49415e-05
0.000328079
-2.27766e-05
0.000338113
-2.00422e-05
0.000346548
-1.68728e-05
0.000353123
-1.31417e-05
0.00035764
-9.02323e-06
0.000359956
-4.63052e-06
0.000359973
-3.51656e-08
0.000357634
4.65223e-06
0.00035287
9.51798e-06
0.000345837
1.40738e-05
0.000336657
1.83515e-05
0.000325501
2.22804e-05
0.000312631
2.57144e-05
0.000298299
2.8646e-05
0.000282814
3.09565e-05
0.000266498
3.26392e-05
0.000249638
3.36974e-05
0.000232521
3.41924e-05
0.000215497
3.40419e-05
0.000198774
3.34396e-05
0.000182588
3.23604e-05
0.000167135
3.08983e-05
0.000152566
2.91348e-05
0.000138943
2.72445e-05
0.000126327
2.52245e-05
0.000114734
2.3185e-05
0.000104175
2.11199e-05
9.46361e-05
1.90821e-05
8.60816e-05
1.71014e-05
7.84822e-05
1.51934e-05
7.17843e-05
1.33981e-05
6.59088e-05
1.17608e-05
6.0809e-05
1.02051e-05
5.64233e-05
8.77022e-06
5.27032e-05
7.44395e-06
4.95735e-05
6.26351e-06
4.69486e-05
5.25405e-06
4.47091e-05
4.49339e-06
4.27408e-05
3.94847e-06
4.09109e-05
3.65767e-06
3.91301e-05
3.55956e-06
3.73678e-05
3.52604e-06
3.56014e-05
3.52944e-06
3.38575e-05
3.48684e-06
3.22341e-05
3.24868e-06
3.07418e-05
2.98647e-06
2.95029e-05
2.46563e-06
2.85753e-05
1.85378e-06
2.80044e-05
1.15802e-06
2.78134e-05
3.84673e-07
2.8034e-05
-4.43896e-07
2.86321e-05
-1.19247e-06
2.95694e-05
-1.86835e-06
3.07834e-05
-2.42215e-06
3.22607e-05
-2.94971e-06
3.39974e-05
-3.47283e-06
3.59963e-05
-3.99966e-06
3.83438e-05
-4.68925e-06
4.10993e-05
-5.51546e-06
4.4343e-05
-6.49614e-06
4.81926e-05
-7.70396e-06
5.27405e-05
-9.09368e-06
5.80861e-05
-1.06818e-05
6.42884e-05
-1.24003e-05
7.14083e-05
-1.42472e-05
7.94735e-05
-1.61375e-05
8.84834e-05
-1.80175e-05
9.83825e-05
-1.97867e-05
0.000109146
-2.15159e-05
0.000120768
-2.32382e-05
0.000133144
-2.47507e-05
0.000146227
-2.61698e-05
0.000159974
-2.74866e-05
0.000174308
-2.86776e-05
0.000189006
-2.94153e-05
0.000203918
-2.98096e-05
0.000218975
-3.00953e-05
0.000234049
-3.01558e-05
0.000248969
-2.9848e-05
0.000263612
-2.92887e-05
0.000277851
-2.8456e-05
0.000291564
-2.73931e-05
0.000304599
-2.60533e-05
0.000316756
-2.43265e-05
0.00032797
-2.24542e-05
0.000338017
-2.0118e-05
0.00034666
-1.7348e-05
0.000353678
-1.40655e-05
0.000358962
-1.05851e-05
0.000362278
-6.7555e-06
0.00036288
-1.27224e-06
0.000360981
3.89071e-06
0.000356794
8.55816e-06
0.00035063
1.24244e-05
0.000342505
1.62686e-05
0.000332229
2.05502e-05
0.00032011
2.42349e-05
0.000306337
2.7541e-05
0.00029114
3.03881e-05
0.000275083
3.21074e-05
0.000258462
3.32371e-05
0.00024156
3.37994e-05
0.000224837
3.34411e-05
0.000208462
3.27486e-05
0.00019262
3.16816e-05
0.000177505
3.02285e-05
0.000163147
2.87175e-05
0.000149657
2.69805e-05
0.000137007
2.52993e-05
0.000125191
2.36338e-05
0.000114241
2.19003e-05
0.000104114
2.02549e-05
9.47882e-05
1.86521e-05
8.62676e-05
1.70419e-05
7.85132e-05
1.55096e-05
7.15156e-05
1.39961e-05
6.52372e-05
1.25579e-05
5.96476e-05
1.11803e-05
5.47177e-05
9.86117e-06
5.04017e-05
8.63345e-06
4.66536e-05
7.49729e-06
4.34254e-05
6.45762e-06
4.06627e-05
5.52685e-06
3.83131e-05
4.70073e-06
3.63241e-05
3.9789e-06
3.46482e-05
3.35219e-06
3.32468e-05
2.8025e-06
3.20894e-05
2.31522e-06
3.11523e-05
1.87457e-06
3.04377e-05
1.42791e-06
2.99498e-05
9.73803e-07
2.97179e-05
4.61371e-07
2.9793e-05
-1.57063e-07
3.01524e-05
-7.21923e-07
3.09552e-05
-1.60756e-06
3.2232e-05
-2.56007e-06
3.39144e-05
-3.36854e-06
3.62365e-05
-4.6475e-06
3.92377e-05
-6.00828e-06
4.28041e-05
-7.13616e-06
4.71313e-05
-8.65862e-06
5.21727e-05
-1.00906e-05
5.80484e-05
-1.17584e-05
6.48165e-05
-1.35415e-05
7.22299e-05
-1.48272e-05
8.05319e-05
-1.66047e-05
8.97498e-05
-1.84346e-05
9.95627e-05
-1.96147e-05
0.000110252
-2.13835e-05
0.000121668
-2.2833e-05
0.00013394
-2.45327e-05
0.000147035
-2.6183e-05
0.000160608
-2.71472e-05
0.000174882
-2.85447e-05
0.000189842
-2.99151e-05
0.000205134
-3.0577e-05
0.000220899
-3.1538e-05
0.000236861
-3.19253e-05
0.000253061
-3.23783e-05
0.000269268
-3.23989e-05
0.000285137
-3.17403e-05
0.00030069
-3.1096e-05
0.00031573
-3.00501e-05
-2.93048e-05
1.11702e-05
-7.05041e-06
1.39061e-05
-8.20998e-06
1.70806e-05
-9.52684e-06
2.0676e-05
-1.07905e-05
2.48364e-05
-1.24815e-05
2.94791e-05
-1.39277e-05
3.48097e-05
-1.59942e-05
4.08226e-05
-1.80363e-05
4.73706e-05
-1.96334e-05
5.48002e-05
-2.2293e-05
6.31583e-05
-2.50813e-05
7.21953e-05
-2.7105e-05
8.23267e-05
-3.04011e-05
9.33874e-05
-3.31811e-05
0.000105583
-3.658e-05
0.000118932
-4.00457e-05
0.000132999
-4.21993e-05
0.000148089
-4.52638e-05
0.000164174
-4.82458e-05
0.000180827
-4.9928e-05
0.00019817
-5.2004e-05
0.000216171
-5.39708e-05
0.000234309
-5.43974e-05
0.000252608
-5.48732e-05
0.000270864
-5.47203e-05
0.000288797
-5.37661e-05
0.000306288
-5.24182e-05
0.000322888
-4.97699e-05
0.000338505
-4.68081e-05
0.000352889
-4.30999e-05
0.000365753
-3.85672e-05
0.000376921
-3.34823e-05
0.000386182
-2.77526e-05
0.000393356
-2.14994e-05
0.000398384
-1.50499e-05
0.000401062
-8.02131e-06
0.000401433
-1.11742e-06
0.000399558
5.56682e-06
0.000395178
1.31532e-05
0.000388662
1.95482e-05
0.000380083
2.57096e-05
0.000369642
3.12834e-05
0.000357685
3.58311e-05
0.000344099
4.07129e-05
0.000329241
4.45248e-05
0.000313491
4.72173e-05
0.000296823
4.99411e-05
0.00027959
5.16568e-05
0.000262058
5.2562e-05
0.000244296
5.32515e-05
0.000226576
5.31268e-05
0.000209036
5.25888e-05
0.000191848
5.15396e-05
0.000175132
5.01251e-05
0.000158963
4.84863e-05
0.000143472
4.64586e-05
0.000128719
4.42453e-05
0.000114744
4.19161e-05
0.000101617
3.9374e-05
8.93446e-05
3.68157e-05
7.79585e-05
3.4158e-05
6.74519e-05
3.15224e-05
5.77948e-05
2.89769e-05
4.8973e-05
2.64735e-05
4.09425e-05
2.41041e-05
3.35839e-05
2.20911e-05
2.68538e-05
2.02078e-05
2.06155e-05
1.87339e-05
1.48151e-05
1.7422e-05
9.40545e-06
1.62509e-05
4.27978e-06
1.54047e-05
-5.44762e-07
1.45121e-05
-5.10403e-06
1.37281e-05
-9.50409e-06
1.3256e-05
-1.37498e-05
1.27978e-05
-1.77562e-05
1.20769e-05
-2.15954e-05
1.1576e-05
-2.50543e-05
1.04351e-05
-2.79778e-05
8.83243e-06
-3.04776e-05
7.56233e-06
-3.22858e-05
5.4819e-06
-3.32355e-05
2.91892e-06
-3.33737e-05
4.90918e-07
-3.22452e-05
-3.33068e-06
-2.99024e-05
-6.97752e-06
-2.64121e-05
-1.04232e-05
-2.17836e-05
-1.38652e-05
-1.60618e-05
-1.71043e-05
-9.37662e-06
-2.01458e-05
-1.72644e-06
-2.28424e-05
7.53922e-06
-2.76458e-05
1.75269e-05
-2.99723e-05
2.82933e-05
-3.22909e-05
3.97721e-05
-3.44303e-05
5.20009e-05
-3.66506e-05
6.49036e-05
-3.87705e-05
7.85494e-05
-4.08813e-05
9.28537e-05
-4.28924e-05
0.000107759
-4.47936e-05
0.000123258
-4.64557e-05
0.000139241
-4.79142e-05
0.00015561
-4.9149e-05
0.000172288
-4.99624e-05
0.000189111
-5.04279e-05
0.000205937
-5.04773e-05
0.000222626
-5.00429e-05
0.000239007
-4.91084e-05
0.000254871
-4.7639e-05
0.000270077
-4.55211e-05
0.000284346
-4.2772e-05
0.000297484
-3.94024e-05
0.000309305
-3.53933e-05
0.000319587
-3.07813e-05
0.000328114
-2.55579e-05
0.000334728
-1.99257e-05
0.000339306
-1.36777e-05
0.000341775
-7.27003e-06
0.00034195
-6.90911e-07
0.000339893
6.13263e-06
0.000335587
1.30206e-05
0.00032898
1.97014e-05
0.000320294
2.60795e-05
0.000309584
3.2094e-05
0.000297022
3.7763e-05
0.000282706
4.28571e-05
0.000266895
4.73959e-05
0.000249801
5.11491e-05
0.000231711
5.41819e-05
0.000212951
5.63701e-05
0.000193691
5.76859e-05
0.000174279
5.8169e-05
0.00015498
5.78084e-05
0.000136048
5.66697e-05
0.000117718
5.50153e-05
0.000100207
5.26475e-05
8.3413e-05
5.02414e-05
6.76527e-05
4.72323e-05
5.2966e-05
4.41198e-05
3.92364e-05
4.09847e-05
2.67704e-05
3.75378e-05
1.5348e-05
3.41097e-05
5.18604e-06
3.04546e-05
-3.85858e-06
2.70255e-05
-1.16807e-05
2.34007e-05
-1.83406e-05
1.99089e-05
-2.38878e-05
1.65153e-05
-2.83452e-05
1.33423e-05
-3.17966e-05
1.02189e-05
-3.42639e-05
7.40207e-06
-3.58582e-05
4.71484e-06
-3.66047e-05
2.16901e-06
-3.66294e-05
3.9411e-09
-3.59233e-05
-2.19314e-06
-3.46028e-05
-4.03894e-06
-3.26726e-05
-5.85789e-06
-3.01766e-05
-7.60628e-06
-2.72123e-05
-8.99601e-06
-2.37461e-05
-1.03997e-05
-1.98626e-05
-1.17714e-05
-1.55601e-05
-1.29807e-05
-1.08877e-05
-1.40159e-05
-5.90037e-06
-1.50459e-05
-5.52997e-07
-1.6002e-05
5.11268e-06
-1.70558e-05
1.11417e-05
-1.81276e-05
1.75573e-05
-1.92637e-05
2.43617e-05
-2.04137e-05
3.15385e-05
-2.1521e-05
3.90628e-05
-2.25626e-05
4.68905e-05
-2.34643e-05
5.49775e-05
-2.42361e-05
6.33264e-05
-2.50239e-05
7.18684e-05
-2.56282e-05
8.06353e-05
-2.62871e-05
8.96492e-05
-2.70352e-05
9.8965e-05
-2.79714e-05
0.000108632
-2.89894e-05
0.000118738
-3.03046e-05
0.000129329
-3.17345e-05
0.000140441
-3.33302e-05
0.000152171
-3.51159e-05
0.000164502
-3.69275e-05
0.000177399
-3.86579e-05
0.000190852
-4.03706e-05
0.00020477
-4.16821e-05
0.00021905
-4.2827e-05
0.000233542
-4.3439e-05
0.000248118
-4.36925e-05
0.000262611
-4.34342e-05
0.000276888
-4.27751e-05
0.000290791
-4.1666e-05
0.000304091
-3.98539e-05
0.000316592
-3.74423e-05
0.000328014
-3.41989e-05
0.000338068
-3.0096e-05
0.000346529
-2.53336e-05
0.000353116
-1.97296e-05
0.000357646
-1.35533e-05
0.00035998
-6.9644e-06
0.00035998
-3.55787e-08
0.000357619
7.01377e-06
0.000352853
1.42832e-05
0.00034581
2.1117e-05
0.000336611
2.75501e-05
0.000325431
3.34607e-05
0.000312529
3.8616e-05
0.000298172
4.30029e-05
0.000282663
4.64655e-05
0.000266316
4.89864e-05
0.000249439
5.05743e-05
0.000232307
5.13241e-05
0.000215255
5.10938e-05
0.000198501
5.01936e-05
0.000182297
4.8564e-05
0.000166826
4.63692e-05
0.000152241
4.37199e-05
0.000138609
4.08768e-05
0.000125995
3.78381e-05
0.000114402
3.47781e-05
0.000103837
3.16854e-05
9.42974e-05
2.86212e-05
8.57656e-05
2.56332e-05
7.81624e-05
2.27966e-05
7.14664e-05
2.0094e-05
6.55957e-05
1.76315e-05
6.05039e-05
1.52969e-05
5.61236e-05
1.31505e-05
5.2405e-05
1.11626e-05
4.92816e-05
9.38688e-06
4.66673e-05
7.86835e-06
4.44403e-05
6.72035e-06
4.24888e-05
5.89995e-06
4.06737e-05
5.47275e-06
3.88967e-05
5.33651e-06
3.71294e-05
5.29337e-06
3.53617e-05
5.29709e-06
3.36184e-05
5.23019e-06
3.19919e-05
4.87517e-06
3.04957e-05
4.48262e-06
2.92628e-05
3.69855e-06
2.83254e-05
2.79116e-06
2.77539e-05
1.72951e-06
2.75804e-05
5.58146e-07
2.78116e-05
-6.75104e-07
2.84115e-05
-1.79234e-06
2.93517e-05
-2.80852e-06
3.05689e-05
-3.63942e-06
3.20461e-05
-4.42694e-06
3.37777e-05
-5.20443e-06
3.57791e-05
-6.00106e-06
3.81269e-05
-7.03702e-06
4.08739e-05
-8.26243e-06
4.41112e-05
-9.73351e-06
4.79552e-05
-1.1548e-05
5.24917e-05
-1.36302e-05
5.78293e-05
-1.60195e-05
6.40279e-05
-1.8599e-05
7.11537e-05
-2.1373e-05
7.92249e-05
-2.42088e-05
8.8231e-05
-2.70235e-05
9.81348e-05
-2.96906e-05
0.00010891
-3.22909e-05
0.000120537
-3.48655e-05
0.000132927
-3.71404e-05
0.000146022
-3.92659e-05
0.000159774
-4.12384e-05
0.000174088
-4.29912e-05
0.000188773
-4.41007e-05
0.000203691
-4.47278e-05
0.000218769
-4.51738e-05
0.000233879
-4.52656e-05
0.000248829
-4.47985e-05
0.000263497
-4.39565e-05
0.000277755
-4.27139e-05
0.000291471
-4.111e-05
0.000304514
-3.9096e-05
0.00031669
-3.6503e-05
0.000327914
-3.36782e-05
0.000337951
-3.01545e-05
0.000346547
-2.5944e-05
0.000353421
-2.09397e-05
0.000358438
-1.56024e-05
0.000361341
-9.65886e-06
0.000361787
-1.71857e-06
0.000360327
5.35063e-06
0.00035665
1.2235e-05
0.000350642
1.84321e-05
0.000342534
2.43768e-05
0.000332251
3.0833e-05
0.000320121
3.63654e-05
0.000306334
4.13277e-05
0.000291122
4.56e-05
0.000275051
4.81783e-05
0.000258416
4.98717e-05
0.000241503
5.07122e-05
0.000224772
5.01723e-05
0.000208386
4.91343e-05
0.000192547
4.75207e-05
0.00017743
4.53454e-05
0.000163071
4.30768e-05
0.000149582
4.04697e-05
0.000136934
3.7947e-05
0.00012512
3.54483e-05
0.000114172
3.28479e-05
0.000104047
3.03799e-05
9.47233e-05
2.79757e-05
8.62048e-05
2.55604e-05
7.84526e-05
2.32618e-05
7.14573e-05
2.09913e-05
6.51814e-05
1.88338e-05
5.95947e-05
1.6767e-05
5.46679e-05
1.4788e-05
5.03554e-05
1.2946e-05
4.66113e-05
1.12413e-05
4.33872e-05
9.68174e-06
4.06284e-05
8.28564e-06
3.8282e-05
7.04712e-06
3.62956e-05
5.96538e-06
3.46223e-05
5.02543e-06
3.32223e-05
4.20249e-06
3.20648e-05
3.47278e-06
3.11269e-05
2.81242e-06
3.04103e-05
2.14449e-06
2.99204e-05
1.46376e-06
2.96844e-05
6.97319e-07
2.97562e-05
-2.28879e-07
3.01126e-05
-1.07832e-06
3.0909e-05
-2.4039e-06
3.21789e-05
-3.83002e-06
3.38556e-05
-5.04526e-06
3.61723e-05
-6.96414e-06
3.91645e-05
-9.00052e-06
4.2724e-05
-1.06957e-05
4.70459e-05
-1.29805e-05
5.20857e-05
-1.51305e-05
5.79592e-05
-1.76319e-05
6.4726e-05
-2.03084e-05
7.21351e-05
-2.22363e-05
8.04384e-05
-2.4908e-05
8.96571e-05
-2.76534e-05
9.9467e-05
-2.94248e-05
0.00011016
-3.20771e-05
0.00012158
-3.4253e-05
0.000133848
-3.68003e-05
0.000146945
-3.92803e-05
0.000160524
-4.07269e-05
0.000174799
-4.282e-05
0.000189758
-4.48742e-05
0.000205044
-4.58627e-05
0.000220819
-4.73133e-05
0.000236799
-4.79058e-05
0.000253006
-4.85847e-05
0.000269216
-4.86096e-05
0.000285108
-4.7633e-05
0.000300699
-4.66865e-05
0.000315775
-4.51267e-05
-4.39873e-05
1.11166e-05
-9.40133e-06
1.38516e-05
-1.0945e-05
1.70248e-05
-1.27001e-05
2.06192e-05
-1.43849e-05
2.47799e-05
-1.66422e-05
2.94242e-05
-1.8572e-05
3.4757e-05
-2.1327e-05
4.07714e-05
-2.40508e-05
4.73241e-05
-2.61861e-05
5.47568e-05
-2.97257e-05
6.31188e-05
-3.34433e-05
7.21643e-05
-3.61506e-05
8.22975e-05
-4.05344e-05
9.3362e-05
-4.42457e-05
0.000105557
-4.87755e-05
0.000118899
-5.33875e-05
0.000132969
-5.62699e-05
0.000148065
-6.03596e-05
0.000164154
-6.43352e-05
0.000180809
-6.65827e-05
0.000198163
-6.93581e-05
0.000216176
-7.19839e-05
0.000234328
-7.25494e-05
0.000252646
-7.31912e-05
0.000270918
-7.29933e-05
0.000288878
-7.17262e-05
0.000306394
-6.99337e-05
0.000323016
-6.6393e-05
0.000338658
-6.24498e-05
0.000353068
-5.75104e-05
0.000365948
-5.14467e-05
0.000377133
-4.4668e-05
0.000386409
-3.70283e-05
0.000393593
-2.8684e-05
0.000398638
-2.00948e-05
0.000401317
-1.07004e-05
0.00040168
-1.48008e-06
0.000399787
7.45881e-06
0.000395422
1.75188e-05
0.000388899
2.60711e-05
0.000380302
3.4306e-05
0.000369839
4.17467e-05
0.000357859
4.78108e-05
0.000344246
5.43256e-05
0.00032936
5.94113e-05
0.000313584
6.29934e-05
0.000296888
6.6637e-05
0.000279629
6.89159e-05
0.000262075
7.0116e-05
0.000244291
7.10354e-05
0.000226549
7.08687e-05
0.000208995
7.01429e-05
0.000191791
6.87433e-05
0.000175062
6.68538e-05
0.000158883
6.46656e-05
0.000143383
6.19585e-05
0.000128625
5.9004e-05
0.000114645
5.58954e-05
0.000101516
5.25029e-05
8.92429e-05
4.9089e-05
7.78582e-05
4.55428e-05
6.73544e-05
4.20262e-05
5.77018e-05
3.86296e-05
4.88867e-05
3.52886e-05
4.08645e-05
3.21263e-05
3.35167e-05
2.94389e-05
2.67992e-05
2.69253e-05
2.05733e-05
2.49598e-05
1.47867e-05
2.32086e-05
9.39232e-06
2.16453e-05
4.28453e-06
2.05125e-05
-5.17755e-07
1.93144e-05
-5.04797e-06
1.82583e-05
-9.41844e-06
1.76265e-05
-1.36305e-05
1.70099e-05
-1.75985e-05
1.60449e-05
-2.14046e-05
1.53822e-05
-2.4831e-05
1.38615e-05
-2.77185e-05
1.172e-05
-3.01829e-05
1.00267e-05
-3.19559e-05
7.25493e-06
-3.28686e-05
3.83159e-06
-3.29668e-05
5.89137e-07
-3.18035e-05
-4.49396e-06
-2.94276e-05
-9.35345e-06
-2.59125e-05
-1.39383e-05
-2.12565e-05
-1.85212e-05
-1.55477e-05
-2.28132e-05
-8.78113e-06
-2.69124e-05
-1.06645e-06
-3.05571e-05
8.17391e-06
-3.68862e-05
1.8155e-05
-3.99534e-05
2.8927e-05
-4.30629e-05
4.04181e-05
-4.59215e-05
5.26529e-05
-4.88855e-05
6.55794e-05
-5.1697e-05
7.92023e-05
-5.45043e-05
9.34827e-05
-5.71728e-05
0.000108416
-5.97266e-05
0.000123927
-6.19668e-05
0.000139911
-6.38987e-05
0.000156278
-6.55159e-05
0.000172989
-6.66733e-05
0.000189787
-6.72262e-05
0.000206628
-6.73184e-05
0.000223331
-6.67462e-05
0.000239771
-6.55484e-05
0.000255619
-6.34876e-05
0.000270864
-6.07655e-05
0.000285137
-5.70456e-05
0.000298285
-5.25502e-05
0.000310118
-4.7227e-05
0.000320411
-4.10739e-05
0.000328986
-3.41333e-05
0.000335588
-2.65281e-05
0.000340187
-1.8277e-05
0.000342601
-9.68409e-06
0.000342787
-8.7666e-07
0.000340715
8.20483e-06
0.000336341
1.73943e-05
0.000329781
2.62612e-05
0.000321102
3.47584e-05
0.000310355