/*--------------------------------*- C++ -*----------------------------------*\
| =========                 |                                                 |
| \\      /  F ield         | OpenFOAM: The Open Source CFD Toolbox           |
|  \\    /   O peration     | Version:  3.0.1                                 |
|   \\  /    A nd           | Web:      www.OpenFOAM.org                      |
|    \\/     M anipulation  |                                                 |
\*---------------------------------------------------------------------------*/
FoamFile
{
    version     2.0;
    format      ascii;
    class       surfaceScalarField;
    location    "59.6";
    object      alphaPhi;
}
// * * * * * * * * * * * * * * * * * * * * * * * * * * * * * * * * * * * * * //

dimensions      [0 3 -1 0 0 0 0];

internalField   nonuniform List<scalar> 
42423
(
-0.000164759
-1.8793e-06
-0.000162102
-2.65732e-06
-0.000158762
-3.34057e-06
-0.000154691
-4.07022e-06
-0.000149758
-4.93316e-06
-0.000144102
-5.65646e-06
-0.000137433
-6.66857e-06
-0.000129992
-7.44133e-06
-0.000121804
-8.18829e-06
-0.000112558
-9.24525e-06
-0.00010238
-1.0178e-05
-9.12368e-05
-1.11435e-05
-7.90284e-05
-1.22084e-05
-6.58671e-05
-1.31612e-05
-5.16156e-05
-1.42516e-05
-3.6414e-05
-1.52016e-05
-2.05227e-05
-1.58913e-05
-3.71953e-06
-1.68032e-05
1.37896e-05
-1.75091e-05
3.18507e-05
-1.80611e-05
5.04711e-05
-1.86204e-05
6.94844e-05
-1.90133e-05
8.84379e-05
-1.89534e-05
0.000107363
-1.89253e-05
0.000125899
-1.85354e-05
0.000143838
-1.79399e-05
0.000160937
-1.70981e-05
0.000176821
-1.58848e-05
0.000191328
-1.45072e-05
0.000204216
-1.28873e-05
0.000215211
-1.09953e-05
0.000224102
-8.89125e-06
0.000230712
-6.60975e-06
0.000234953
-4.24154e-06
0.00023675
-1.79619e-06
0.000235983
7.66118e-07
0.000232755
3.2288e-06
0.000227127
5.62727e-06
0.000219132
7.99511e-06
0.000208974
1.0158e-05
0.000196803
1.2171e-05
0.000183022
1.37815e-05
0.000167762
1.52595e-05
0.000151214
1.65478e-05
0.000133744
1.74699e-05
0.000115594
1.81502e-05
9.69758e-05
1.86184e-05
7.80938e-05
1.8882e-05
5.91883e-05
1.89055e-05
4.0627e-05
1.85612e-05
2.25148e-05
1.81122e-05
4.81579e-06
1.7699e-05
-1.21871e-05
1.70029e-05
-2.8447e-05
1.626e-05
-4.38271e-05
1.53801e-05
-5.8277e-05
1.44498e-05
-7.17997e-05
1.35227e-05
-8.43188e-05
1.25191e-05
-9.58582e-05
1.15394e-05
-0.000106429
1.05707e-05
-0.000116031
9.60162e-06
-0.000124742
8.71155e-06
-0.000132499
7.75698e-06
-0.000139367
6.86839e-06
-0.000145404
6.0366e-06
-0.000150594
5.18964e-06
-0.000154909
4.31525e-06
-0.00015846
3.55091e-06
-0.00016115
2.6899e-06
-0.000163071
1.92085e-06
-0.000164216
1.14521e-06
-0.000164576
3.60046e-07
-0.00016422
-3.55801e-07
-0.000163141
-1.0795e-06
-0.000161193
-1.94809e-06
-0.000158552
-2.64103e-06
-0.000155053
-3.49878e-06
-0.000150822
-4.2312e-06
-0.000145839
-4.98257e-06
-0.000139987
-5.85181e-06
-0.000133277
-6.71097e-06
-0.000125862
-7.41465e-06
-0.000117594
-8.26789e-06
-0.000108543
-9.05131e-06
-9.86378e-05
-9.90529e-06
-8.78563e-05
-1.07816e-05
-7.6236e-05
-1.16205e-05
-6.37799e-05
-1.24562e-05
-5.05672e-05
-1.32128e-05
-3.65515e-05
-1.40158e-05
-2.17827e-05
-1.47689e-05
-6.34466e-06
-1.54381e-05
9.70358e-06
-1.60483e-05
2.62685e-05
-1.6565e-05
4.32618e-05
-1.69933e-05
6.05447e-05
-1.72828e-05
7.80117e-05
-1.7467e-05
9.54839e-05
-1.74722e-05
0.00011279
-1.73057e-05
0.00012974
-1.69497e-05
0.000146155
-1.64158e-05
0.000161761
-1.5605e-05
0.000176358
-1.45972e-05
0.000189697
-1.33394e-05
0.000201551
-1.18536e-05
0.00021168
-1.01286e-05
0.000219903
-8.22346e-06
0.000226041
-6.13814e-06
0.000229954
-3.91322e-06
0.000231518
-1.56326e-06
0.000230683
8.34864e-07
0.000227399
3.28418e-06
0.00022166
5.73875e-06
0.000213547
8.11261e-06
0.000203234
1.03137e-05
0.000190864
1.23696e-05
0.000176629
1.42353e-05
0.000160805
1.58233e-05
0.000143651
1.71543e-05
0.000125421
1.82302e-05
0.000106474
1.89471e-05
8.70734e-05
1.94004e-05
6.74956e-05
1.95778e-05
4.79605e-05
1.95351e-05
2.87621e-05
1.91984e-05
1.00071e-05
1.8755e-05
-7.99118e-06
1.79983e-05
-2.52251e-05
1.72339e-05
-4.14642e-05
1.62391e-05
-5.67353e-05
1.52712e-05
-7.08875e-05
1.41521e-05
-8.39486e-05
1.30612e-05
-9.59067e-05
1.19581e-05
-0.000106738
1.08314e-05
-0.000116472
9.73384e-06
-0.000125133
8.66154e-06
-0.00013276
7.62641e-06
-0.000139382
6.62221e-06
-0.00014511
5.72768e-06
-0.000149889
4.7791e-06
-0.000153967
4.07848e-06
-0.000157216
3.24839e-06
-0.000159887
2.67083e-06
-0.000161829
1.94226e-06
-0.000163157
1.32833e-06
-0.000163871
7.1425e-07
-0.000164127
2.55119e-07
-0.000163815
-3.11767e-07
-0.000162975
-8.39249e-07
-0.000161561
-1.41399e-06
-0.000159735
-1.82611e-06
-0.000157305
-2.43019e-06
-0.000154337
-2.9682e-06
-0.000150799
-3.53811e-06
-0.000146646
-4.15252e-06
-0.000141877
-4.76968e-06
-0.000136373
-5.5039e-06
-0.000130208
-6.16471e-06
-0.00012324
-6.96828e-06
-0.000115448
-7.79164e-06
-0.000106928
-8.52013e-06
-9.75584e-05
-9.36975e-06
-8.73596e-05
-1.01988e-05
-7.62556e-05
-1.11041e-05
-6.4331e-05
-1.19246e-05
-5.15135e-05
-1.28174e-05
-3.78724e-05
-1.36412e-05
-2.34402e-05
-1.44322e-05
-8.2529e-06
-1.51873e-05
7.4848e-06
-1.57377e-05
2.37647e-05
-1.628e-05
4.0435e-05
-1.66703e-05
5.73335e-05
-1.68985e-05
7.42876e-05
-1.69542e-05
9.10991e-05
-1.68116e-05
0.000107554
-1.64552e-05
0.000123376
-1.58222e-05
0.000138348
-1.49722e-05
0.000152206
-1.38578e-05
0.000164659
-1.24525e-05
0.000175472
-1.08131e-05
0.000184374
-8.90284e-06
0.000191166
-6.7917e-06
0.000195679
-4.51322e-06
0.000197785
-2.10583e-06
0.000197452
3.32599e-07
0.000194622
2.82982e-06
0.000189337
5.2852e-06
0.000181644
7.69313e-06
0.000171846
9.79762e-06
0.000160081
1.1765e-05
0.000146568
1.35134e-05
0.000131606
1.49624e-05
0.000115466
1.61396e-05
9.83493e-05
1.71166e-05
8.06607e-05
1.76886e-05
6.25511e-05
1.81096e-05
4.43694e-05
1.81817e-05
2.63224e-05
1.80471e-05
8.59778e-06
1.77246e-05
-8.56201e-06
1.71598e-05
-2.50837e-05
1.65217e-05
-4.08528e-05
1.57691e-05
-5.57065e-05
1.48537e-05
-6.96798e-05
1.39733e-05
-8.265e-05
1.29702e-05
-9.46704e-05
1.20204e-05
-0.000105836
1.11661e-05
-0.000116018
1.01813e-05
-0.000125314
9.29631e-06
-0.000133709
8.39448e-06
-0.000141237
7.52822e-06
-0.000147921
6.68412e-06
-0.000153804
5.88267e-06
-0.000158908
5.10408e-06
-0.00016325
4.34188e-06
-0.000166977
3.7272e-06
-0.000169981
3.00432e-06
-0.000172358
2.37646e-06
-0.000174091
1.73325e-06
-0.00017525
1.15877e-06
-0.000175831
5.81233e-07
-0.000175826
-5.04917e-09
-0.000175375
-4.50567e-07
-0.000174352
-1.02335e-06
-0.000172826
-1.5257e-06
-0.000170766
-2.06014e-06
-0.000168156
-2.60975e-06
-0.000165011
-3.1456e-06
-0.000161281
-3.72976e-06
-0.00015703
-4.25139e-06
-0.000152136
-4.89334e-06
-0.000146591
-5.5448e-06
-0.000140353
-6.23833e-06
-0.000133417
-6.93627e-06
-0.000125746
-7.67136e-06
-0.000117296
-8.44965e-06
-0.000108006
-9.29028e-06
-9.79536e-05
-1.0052e-05
-8.70534e-05
-1.09003e-05
-7.52277e-05
-1.18257e-05
-6.25602e-05
-1.26675e-05
-4.90393e-05
-1.3521e-05
-3.46933e-05
-1.4346e-05
-1.96495e-05
-1.50439e-05
-3.9675e-06
-1.5682e-05
1.22178e-05
-1.61853e-05
2.87477e-05
-1.653e-05
4.54563e-05
-1.67086e-05
6.21436e-05
-1.66873e-05
7.85589e-05
-1.64154e-05
9.4494e-05
-1.59352e-05
0.000109673
-1.51795e-05
0.00012385
-1.41766e-05
0.000136761
-1.29111e-05
0.00014809
-1.13291e-05
0.000157664
-9.57401e-06
0.000165247
-7.58322e-06
0.000170643
-5.39619e-06
0.000173715
-3.07225e-06
0.000174389
-6.74753e-07
0.000172635
1.75419e-06
0.000168408
4.22689e-06
0.000161847
6.56032e-06
0.000153055
8.79198e-06
0.000142208
1.08471e-05
0.000129577
1.26307e-05
0.000115425
1.41516e-05
0.000100054
1.53708e-05
8.38105e-05
1.62434e-05
6.70265e-05
1.6784e-05
4.99778e-05
1.70486e-05
3.28442e-05
1.71336e-05
1.61032e-05
1.6741e-05
-1.60157e-07
1.62634e-05
-1.57739e-05
1.56137e-05
-3.05427e-05
1.47688e-05
-4.43927e-05
1.38501e-05
-5.71664e-05
1.27737e-05
-6.88963e-05
1.17299e-05
-7.96078e-05
1.07115e-05
-8.92833e-05
9.67556e-06
-9.81032e-05
8.81985e-06
-0.000106012
7.90839e-06
-0.000113214
7.20287e-06
-0.000119776
6.56201e-06
-0.000125594
5.81809e-06
-0.000130863
5.26816e-06
-0.000135551
4.68856e-06
-0.00013964
4.08862e-06
-0.00014324
3.5997e-06
-0.000146276
3.03638e-06
-0.000148794
2.51812e-06
-0.000150863
2.0693e-06
-0.000152476
1.61296e-06
-0.000153586
1.1102e-06
-0.000154349
7.62451e-07
-0.000154726
3.77316e-07
-0.000154735
8.28473e-09
-0.000154415
-3.19083e-07
-0.000153649
-7.66686e-07
-0.000152528
-1.12065e-06
-0.000151044
-1.48377e-06
-0.000148989
-2.05509e-06
-0.000146455
-2.53432e-06
-0.000143365
-3.08959e-06
-0.000139464
-3.90146e-06
-0.000134856
-4.60833e-06
-0.000129286
-5.56953e-06
-0.000122826
-6.46032e-06
-0.000115422
-7.40388e-06
-0.000106815
-8.60642e-06
-9.71314e-05
-9.68409e-06
-8.64658e-05
-1.06656e-05
-7.44487e-05
-1.20171e-05
-6.13719e-05
-1.30768e-05
-4.71645e-05
-1.42074e-05
-3.19782e-05
-1.51863e-05
-1.60921e-05
-1.58861e-05
5.50638e-07
-1.66428e-05
1.77828e-05
-1.72322e-05
3.52692e-05
-1.74864e-05
5.29782e-05
-1.77091e-05
7.05627e-05
-1.75845e-05
8.78755e-05
-1.73129e-05
0.000104648
-1.67728e-05
0.000120546
-1.58982e-05
0.000135389
-1.48425e-05
0.000148966
-1.35771e-05
0.000161045
-1.20786e-05
0.000171466
-1.04218e-05
0.000180065
-8.59862e-06
0.000186711
-6.64594e-06
0.000191306
-4.59524e-06
0.000193818
-2.51182e-06
0.00019428
-4.61646e-07
0.000192633
1.64654e-06
0.000188852
3.78079e-06
0.0001832
5.65175e-06
0.000175726
7.47404e-06
0.000166561
9.16509e-06
0.000156047
1.05138e-05
0.000144238
1.18097e-05
0.000131416
1.2822e-05
0.000117682
1.37341e-05
0.000103206
1.44759e-05
8.82364e-05
1.49693e-05
7.28493e-05
1.5387e-05
5.71295e-05
1.57198e-05
4.1325e-05
1.58045e-05
2.54602e-05
1.58648e-05
9.71189e-06
1.57483e-05
-5.82583e-06
1.55377e-05
-2.11121e-05
1.52863e-05
-3.59181e-05
1.48059e-05
-5.02553e-05
1.43372e-05
1.36449e-05
-0.000164792
-3.7534e-06
-0.000162137
-5.31184e-06
-0.000158801
-6.67643e-06
-0.000154733
-8.13806e-06
-0.000149803
-9.86386e-06
-0.00014415
-1.13095e-05
-0.000137477
-1.33416e-05
-0.000130035
-1.48835e-05
-0.000121851
-1.6372e-05
-0.000112605
-1.84907e-05
-0.000102419
-2.03644e-05
-9.12865e-05
-2.2276e-05
-7.90784e-05
-2.44165e-05
-6.59155e-05
-2.63242e-05
-5.16591e-05
-2.8508e-05
-3.64536e-05
-3.04072e-05
-2.05591e-05
-3.17858e-05
-3.75636e-06
-3.36059e-05
1.3764e-05
-3.50296e-05
3.18294e-05
-3.61265e-05
5.04586e-05
-3.72497e-05
6.94821e-05
-3.80369e-05
8.84542e-05
-3.79256e-05
0.000107391
-3.78625e-05
0.000125933
-3.70774e-05
0.000143894
-3.59009e-05
0.000161017
-3.42208e-05
0.000176905
-3.17731e-05
0.000191416
-2.90183e-05
0.00020431
-2.57812e-05
0.000215315
-2.19996e-05
0.000224214
-1.77905e-05
0.000230834
-1.32303e-05
0.000235089
-8.49678e-06
0.000236891
-3.59805e-06
0.000236108
1.54926e-06
0.00023287
6.46702e-06
0.000227243
1.12546e-05
0.000219245
1.59929e-05
0.000209077
2.03256e-05
0.000196896
2.43521e-05
0.000183104
2.75739e-05
0.000167833
3.05305e-05
0.000151272
3.3108e-05
0.00013379
3.49519e-05
0.000115628
3.63126e-05
9.70028e-05
3.72434e-05
7.81103e-05
3.77745e-05
5.91938e-05
3.7822e-05
4.06205e-05
3.71345e-05
2.24985e-05
3.62342e-05
4.80099e-06
3.53965e-05
-1.22109e-05
3.40147e-05
-2.84794e-05
3.25285e-05
-4.38633e-05
3.07639e-05
-5.83181e-05
2.89047e-05
-7.1847e-05
2.70516e-05
-8.43727e-05
2.50448e-05
-9.59128e-05
2.30794e-05
-0.000106486
2.11437e-05
-0.00011609
1.92055e-05
-0.000124804
1.74255e-05
-0.000132562
1.5515e-05
-0.000139433
1.37396e-05
-0.000145475
1.20787e-05
-0.000150665
1.03799e-05
-0.000154984
8.63389e-06
-0.000158531
7.09834e-06
-0.000161215
5.37313e-06
-0.00016314
3.84652e-06
-0.000164289
2.29361e-06
-0.000164644
7.15391e-07
-0.000164285
-7.15404e-07
-0.000163208
-2.15564e-06
-0.000161258
-3.89853e-06
-0.000158614
-5.28481e-06
-0.000155129
-6.98428e-06
-0.000150887
-8.47257e-06
-0.000145906
-9.96446e-06
-0.000140049
-1.17088e-05
-0.000133323
-1.34368e-05
-0.000125921
-1.48164e-05
-0.000117634
-1.65557e-05
-0.000108585
-1.81e-05
-9.86819e-05
-1.98086e-05
-8.78854e-05
-2.15782e-05
-7.62794e-05
-2.32267e-05
-6.38188e-05
-2.49169e-05
-5.06011e-05
-2.64306e-05
-3.65703e-05
-2.80468e-05
-2.17985e-05
-2.95407e-05
-6.35826e-06
-3.08784e-05
9.69847e-06
-3.2105e-05
2.62671e-05
-3.31336e-05
4.32675e-05
-3.39937e-05
6.05623e-05
-3.45776e-05
7.80339e-05
-3.49385e-05
9.55014e-05
-3.49397e-05
0.000112805
-3.4609e-05
0.000129762
-3.39069e-05
0.000146193
-3.28472e-05
0.000161803
-3.1215e-05
0.000176413
-2.92071e-05
0.000189766
-2.66923e-05
0.000201632
-2.37193e-05
0.000211777
-2.02736e-05
0.000220016
-1.64626e-05
0.000226154
-1.22758e-05
0.000230065
-7.82374e-06
0.000231641
-3.14001e-06
0.000230797
1.67952e-06
0.000227504
6.57713e-06
0.000221761
1.14811e-05
0.00021365
1.62239e-05
0.000203324
2.06393e-05
0.000190934
2.47596e-05
0.000176681
2.84885e-05
0.000160838
3.16671e-05
0.000143664
3.43278e-05
0.000125417
3.6477e-05
0.000106452
3.79128e-05
8.70361e-05
3.8816e-05
6.74413e-05
3.91727e-05
4.78813e-05
3.90952e-05
2.86713e-05
3.84084e-05
9.89823e-06
3.75281e-05
-8.11428e-06
3.60109e-05
-2.53576e-05
3.44772e-05
-4.16094e-05
3.2491e-05
-5.68813e-05
3.05431e-05
-7.10543e-05
2.83251e-05
-8.41184e-05
2.61254e-05
-9.60571e-05
2.38967e-05
-0.000106916
2.169e-05
-0.000116654
1.94722e-05
-0.000125319
1.73271e-05
-0.000132944
1.52512e-05
-0.000139575
1.32532e-05
-0.0001453
1.14522e-05
-0.000150125
9.60405e-06
-0.000154165
8.11906e-06
-0.000157435
6.51766e-06
-0.000160068
5.30416e-06
-0.000162007
3.88188e-06
-0.000163324
2.6454e-06
-0.000164077
1.46726e-06
-0.000164295
4.72902e-07
-0.000163986
-6.20907e-07
-0.000163146
-1.67959e-06
-0.000161723
-2.83677e-06
-0.000159894
-3.65482e-06
-0.000157473
-4.85108e-06
-0.000154503
-5.93854e-06
-0.00015095
-7.09142e-06
-0.000146802
-8.30034e-06
-0.000142018
-9.55384e-06
-0.000136524
-1.09974e-05
-0.00013035
-1.23394e-05
-0.000123371
-1.39467e-05
-0.000115579
-1.55842e-05
-0.000107065
-1.70334e-05
-9.76836e-05
-1.87515e-05
-8.74772e-05
-2.04052e-05
-7.63757e-05
-2.22056e-05
-6.44377e-05
-2.38627e-05
-5.15805e-05
-2.56746e-05
-3.798e-05
-2.72417e-05
-2.35432e-05
-2.88691e-05
-8.31205e-06
-3.04186e-05
7.41596e-06
-3.14658e-05
2.37091e-05
-3.25732e-05
4.03896e-05
-3.33509e-05
5.72955e-05
-3.38045e-05
7.42695e-05
-3.39282e-05
9.11033e-05
-3.36454e-05
0.000107572
-3.2924e-05
0.000123406
-3.16563e-05
0.000138388
-2.99546e-05
0.000152258
-2.77274e-05
0.000164725
-2.49196e-05
0.00017555
-2.16377e-05
0.000184462
-1.78155e-05
0.000191272
-1.36012e-05
0.000195791
-9.03307e-06
0.000197896
-4.21093e-06
0.000197559
6.7015e-07
0.000194714
5.67424e-06
0.000189408
1.05916e-05
0.000181726
1.53751e-05
0.00017191
1.96132e-05
0.000160126
2.35498e-05
0.000146593
2.7046e-05
0.000131614
2.99418e-05
0.00011545
3.23031e-05
9.83255e-05
3.42413e-05
8.05939e-05
3.54202e-05
6.24914e-05
3.62121e-05
4.42923e-05
3.63808e-05
2.62251e-05
3.61143e-05
8.49019e-06
3.54596e-05
-8.68205e-06
3.43321e-05
-2.52126e-05
3.30522e-05
-4.10011e-05
3.15577e-05
-5.58683e-05
2.97209e-05
-6.98443e-05
2.79493e-05
-8.28192e-05
2.59452e-05
-9.48358e-05
2.4037e-05
-0.000106002
2.23325e-05
-0.000116192
2.03714e-05
-0.000125492
1.8596e-05
-0.000133885
1.67875e-05
-0.000141418
1.5061e-05
-0.000148098
1.33645e-05
-0.000153987
1.17713e-05
-0.000159091
1.02084e-05
-0.000163441
8.69179e-06
-0.000167158
7.44431e-06
-0.000170155
6.00178e-06
-0.000172536
4.75702e-06
-0.000174271
3.46812e-06
-0.000175421
2.30865e-06
-0.000175999
1.15905e-06
-0.00017599
-1.33006e-08
-0.000175537
-9.03489e-07
-0.000174509
-2.05182e-06
-0.000172975
-3.05982e-06
-0.000170922
-4.11271e-06
-0.000168303
-5.22936e-06
-0.000165123
-6.32533e-06
-0.00016144
-7.41296e-06
-0.000157163
-8.52781e-06
-0.000152279
-9.77755e-06
-0.000146725
-1.10987e-05
-0.000140487
-1.24768e-05
-0.000133541
-1.38818e-05
-0.000125864
-1.53481e-05
-0.000117414
-1.69003e-05
-0.00010812
-1.85838e-05
-9.80753e-05
-2.0097e-05
-8.71676e-05
-2.18079e-05
-7.53446e-05
-2.36488e-05
-6.2663e-05
-2.53491e-05
-4.91237e-05
-2.70603e-05
-3.47766e-05
-2.86931e-05
-1.97221e-05
-3.00984e-05
-4.01178e-06
-3.13924e-05
1.2165e-05
-3.23621e-05
2.87009e-05
-3.30659e-05
4.54268e-05
-3.34347e-05
6.21257e-05
-3.33862e-05
7.8552e-05
-3.28418e-05
9.45039e-05
-3.18873e-05
0.000109689
-3.03646e-05
0.000123877
-2.83647e-05
0.0001368
-2.58341e-05
0.000148141
-2.26703e-05
0.000157724
-1.91571e-05
0.000165308
-1.51678e-05
0.000170712
-1.07998e-05
0.000173795
-6.15582e-06
0.000174466
-1.34662e-06
0.000172699
3.52188e-06
0.000168471
8.45461e-06
0.00016191
1.31207e-05
0.000153123
1.75789e-05
0.000142273
2.1696e-05
0.000129635
2.52686e-05
0.000115475
2.83117e-05
0.00010009
3.07557e-05
8.38321e-05
3.25014e-05
6.70321e-05
3.35839e-05
4.9973e-05
3.41077e-05
3.28416e-05
3.4265e-05
1.60802e-05
3.35024e-05
-1.91403e-07
3.25349e-05
-1.58125e-05
3.12348e-05
-3.05892e-05
2.95455e-05
-4.44495e-05
2.77104e-05
-5.72274e-05
2.55516e-05
-6.89582e-05
2.34607e-05
-7.96687e-05
2.1422e-05
-8.93435e-05
1.93503e-05
-9.81599e-05
1.76363e-05
-0.000106065
1.58133e-05
-0.000113264
1.44022e-05
-0.000119827
1.31254e-05
-0.000125647
1.16381e-05
-0.000130909
1.05296e-05
-0.000135595
9.37503e-06
-0.000139681
8.17395e-06
-0.00014328
7.1991e-06
-0.000146316
6.07201e-06
-0.000148834
5.03676e-06
-0.000150905
4.13945e-06
-0.000152523
3.23093e-06
-0.000153632
2.21927e-06
-0.000154394
1.52527e-06
-0.00015477
7.52574e-07
-0.00015478
1.84416e-08
-0.000154461
-6.37683e-07
-0.000153694
-1.53387e-06
-0.000152574
-2.24117e-06
-0.000151092
-2.96536e-06
-0.00014904
-4.10741e-06
-0.000146507
-5.0667e-06
-0.000143414
-6.18244e-06
-0.000139519
-7.79678e-06
-0.000134916
-9.21111e-06
-0.000129353
-1.11334e-05
-0.000122892
-1.29205e-05
-0.00011549
-1.48061e-05
-0.000106884
-1.72128e-05
-9.72008e-05
-1.93671e-05
-8.65297e-05
-2.13367e-05
-7.45003e-05
-2.40465e-05
-6.14259e-05
-2.61513e-05
-4.72137e-05
-2.84195e-05
-3.20213e-05
-3.03788e-05
-1.61281e-05
-3.17793e-05
5.20864e-07
-3.32917e-05
1.77622e-05
-3.44735e-05
3.52592e-05
-3.49834e-05
5.29849e-05
-3.54348e-05
7.05881e-05
-3.51878e-05
8.7919e-05
-3.46438e-05
0.000104706
-3.35594e-05
0.000120618
-3.1811e-05
0.000135475
-2.9699e-05
0.000149059
-2.71613e-05
0.000161135
-2.4155e-05
0.000171559
-2.08453e-05
0.000180162
-1.72016e-05
0.000186816
-1.33003e-05
0.000191425
-9.20435e-06
0.000193951
-5.03773e-06
0.000194403
-9.13842e-07
0.000192733
3.31716e-06
0.000188947
7.56675e-06
0.00018329
1.13089e-05
0.000175812
1.4952e-05
0.000166638
1.83383e-05
0.000156116
2.10364e-05
0.000144297
2.36285e-05
0.000131466
2.5653e-05
0.000117723
2.74774e-05
0.000103237
2.89612e-05
8.82593e-05
2.99472e-05
7.28635e-05
3.07829e-05
5.71394e-05
3.14439e-05
4.13283e-05
3.16155e-05
2.5458e-05
3.17352e-05
9.70509e-06
3.15012e-05
-5.83626e-06
3.10791e-05
-2.11267e-05
3.05768e-05
-3.59368e-05
2.9616e-05
-5.02784e-05
2.86788e-05
2.72934e-05
-0.000164846
-5.62712e-06
-0.000162193
-7.96519e-06
-0.000158861
-1.00083e-05
-0.000154793
-1.22061e-05
-0.000149865
-1.47916e-05
-0.000144216
-1.69584e-05
-0.00013754
-2.00181e-05
-0.0001301
-2.23233e-05
-0.000121919
-2.45531e-05
-0.000112675
-2.77343e-05
-0.000102492
-3.05472e-05
-9.13576e-05
-3.34108e-05
-7.91486e-05
-3.66255e-05
-6.59816e-05
-3.94912e-05
-5.17271e-05
-4.27626e-05
-3.65221e-05
-4.56122e-05
-2.06265e-05
-4.76814e-05
-3.83131e-06
-5.04012e-05
1.37236e-05
-5.25845e-05
3.18094e-05
-5.42123e-05
5.04576e-05
-5.58979e-05
6.94983e-05
-5.70776e-05
8.84863e-05
-5.69136e-05
0.000107435
-5.68111e-05
0.000125997
-5.564e-05
0.000143978
-5.38818e-05
0.000161127
-5.137e-05
0.000177037
-4.76826e-05
0.000191576
-4.35574e-05
0.000204481
-3.86863e-05
0.000215503
-3.30213e-05
0.000224416
-2.67042e-05
0.000231048
-1.98625e-05
0.000235302
-1.27501e-05
0.000237109
-5.40547e-06
0.00023631
2.34852e-06
0.00023305
9.72714e-06
0.000227419
1.68856e-05
0.000219416
2.39957e-05
0.000209232
3.05092e-05
0.000197038
3.65468e-05
0.000183225
4.13864e-05
0.000167933
4.58227e-05
0.00015135
4.96912e-05
0.000133845
5.24567e-05
0.000115658
5.44991e-05
9.70226e-05
5.58792e-05
7.8112e-05
5.66851e-05
5.91808e-05
5.67532e-05
4.05825e-05
5.57329e-05
2.24372e-05
5.43794e-05
4.75206e-06
5.30817e-05
-1.22751e-05
5.10419e-05
-2.85546e-05
4.8808e-05
-4.39425e-05
4.61517e-05
-5.84013e-05
4.33636e-05
-7.19336e-05
4.05838e-05
-8.44595e-05
3.75708e-05
-9.59993e-05
3.46192e-05
-0.000106574
3.17181e-05
-0.000116173
2.88051e-05
-0.000124888
2.61402e-05
-0.00013265
2.32767e-05
-0.000139517
2.06063e-05
-0.000145558
1.81204e-05
-0.000150746
1.55679e-05
-0.000155059
1.2947e-05
-0.000158601
1.06401e-05
-0.000161283
8.05459e-06
-0.000163219
5.78258e-06
-0.00016436
3.43505e-06
-0.000164705
1.05985e-06
-0.000164348
-1.07228e-06
-0.00016327
-3.23323e-06
-0.00016132
-5.84887e-06
-0.000158683
-7.92153e-06
-0.000155212
-1.04558e-05
-0.000150959
-1.27253e-05
-0.00014598
-1.49436e-05
-0.000140119
-1.75701e-05
-0.000133393
-2.01627e-05
-0.000125988
-2.22215e-05
-0.00011768
-2.48639e-05
-0.000108637
-2.7143e-05
-9.8748e-05
-2.96977e-05
-8.79536e-05
-3.23728e-05
-7.63586e-05
-3.48218e-05
-6.39197e-05
-3.7356e-05
-5.06843e-05
-3.96661e-05
-3.6656e-05
-4.20752e-05
-2.18793e-05
-4.43175e-05
-6.43989e-06
-4.63178e-05
9.62917e-06
-4.81741e-05
2.61926e-05
-4.96971e-05
4.31923e-05
-5.09934e-05
6.04894e-05
-5.18747e-05
7.796e-05
-5.24091e-05
9.5438e-05
-5.24176e-05
0.000112752
-5.19228e-05
0.000129723
-5.08783e-05
0.000146143
-4.92671e-05
0.000161789
-4.6861e-05
0.00017642
-4.38373e-05
0.000189788
-4.00604e-05
0.000201678
-3.561e-05
0.00021184
-3.04356e-05
0.000220089
-2.47106e-05
0.000226235
-1.84226e-05
0.000230155
-1.17434e-05
0.000231758
-4.74315e-06
0.00023089
2.54754e-06
0.000227579
9.88851e-06
0.000221831
1.7229e-05
0.000213713
2.43421e-05
0.000203371
3.09812e-05
0.000190962
3.71682e-05
0.000176691
4.27594e-05
0.000160814
4.75443e-05
0.000143617
5.15249e-05
0.000125349
5.47457e-05
0.000106361
5.69004e-05
8.69432e-05
5.82337e-05
6.73161e-05
5.87998e-05
4.77257e-05
5.86856e-05
2.852e-05
5.76141e-05
9.70923e-06
5.6339e-05
-8.3289e-06
5.4049e-05
-2.55764e-05
5.17248e-05
-4.18363e-05
4.87509e-05
-5.71098e-05
4.58167e-05
-7.13013e-05
4.25166e-05
-8.43608e-05
3.91849e-05
-9.62676e-05
3.58036e-05
-0.00010715
3.25721e-05
-0.000116887
2.92096e-05
-0.00012556
2.59997e-05
-0.000133184
2.28755e-05
-0.000139826
1.98952e-05
-0.000145542
1.71682e-05
-0.000150375
1.44375e-05
-0.0001544
1.21435e-05
-0.000157695
9.81241e-06
-0.000160285
7.895e-06
-0.000162219
5.81514e-06
-0.000163488
3.91434e-06
-0.000164293
2.27259e-06
-0.000164479
6.58917e-07
-0.000164182
-9.17685e-07
-0.000163334
-2.52734e-06
-0.000161968
-4.20311e-06
-0.000160095
-5.52741e-06
-0.000157683
-7.26329e-06
-0.000154713
-8.90832e-06
-0.000151107
-1.06977e-05
-0.000147005
-1.24019e-05
-0.000142218
-1.43409e-05
-0.000136726
-1.649e-05
-0.000130546
-1.85196e-05
-0.00012358
-2.09119e-05
-0.000115812
-2.33524e-05
-0.000107286
-2.55598e-05
-9.78903e-05
-2.81469e-05
-8.76634e-05
-3.06321e-05
-7.65892e-05
-3.32798e-05
-6.46479e-05
-3.5804e-05
-5.17822e-05
-3.85403e-05
-3.81962e-05
-4.08278e-05
-2.37426e-05
-4.33226e-05
-8.50088e-06
-4.56603e-05
7.24004e-06
-4.72067e-05
2.35484e-05
-4.88816e-05
4.02409e-05
-5.00433e-05
5.71655e-05
-5.07292e-05
7.41587e-05
-5.09214e-05
9.1027e-05
-5.05138e-05
0.000107503
-4.93999e-05
0.000123351
-4.75047e-05
0.000138355
-4.49581e-05
0.000152248
-4.16213e-05
0.000164741
-3.74121e-05
0.000175594
-3.2491e-05
0.000184531
-2.6753e-05
0.000191347
-2.04167e-05
0.000195869
-1.35558e-05
0.000197984
-6.32534e-06
0.000197637
1.01722e-06
0.000194773
8.53748e-06
0.000189453
1.59122e-05
0.000181784
2.30435e-05
0.000171946
2.9452e-05
0.000160145
3.535e-05
0.000146587
4.06046e-05
0.00013158
4.49486e-05
0.000115388
4.84948e-05
9.82689e-05
5.13606e-05
8.0473e-05
5.3216e-05
6.23588e-05
5.43264e-05
4.41426e-05
5.45971e-05
2.60593e-05
5.41976e-05
8.31425e-06
5.32046e-05
-8.87759e-06
5.15239e-05
-2.54084e-05
4.95831e-05
-4.12153e-05
4.73645e-05
-5.60926e-05
4.45983e-05
-7.00691e-05
4.19259e-05
-8.30554e-05
3.89315e-05
-9.51156e-05
3.60971e-05
-0.000106233
3.34502e-05
-0.000116412
3.05499e-05
-0.000125715
2.78995e-05
-0.000134103
2.51758e-05
-0.000141639
2.25964e-05
-0.000148304
2.00292e-05
-0.000154203
1.76705e-05
-0.000159317
1.53232e-05
-0.000163699
1.30732e-05
-0.000167365
1.11106e-05
-0.000170357
8.99365e-06
-0.000172743
7.14315e-06
-0.000174479
5.20369e-06
-0.00017562
3.45016e-06
-0.000176193
1.73167e-06
-0.000176218
1.22626e-08
-0.000175722
-1.39941e-06
-0.0001747
-3.07453e-06
-0.000173167
-4.5927e-06
-0.000171116
-6.16338e-06
-0.00016849
-7.85605e-06
-0.000165289
-9.52612e-06
-0.000161635
-1.1067e-05
-0.000157349
-1.2813e-05
-0.000152471
-1.46561e-05
-0.000146919
-1.66508e-05
-0.000140693
-1.8703e-05
-0.000133733
-2.08415e-05
-0.000126067
-2.30142e-05
-0.00011762
-2.53473e-05
-0.000108338
-2.78655e-05
-9.82878e-05
-3.01475e-05
-8.7379e-05
-3.27167e-05
-7.55662e-05
-3.54616e-05
-6.28683e-05
-3.8047e-05
-4.92757e-05
-4.06529e-05
-3.49913e-05
-4.29775e-05
-1.99151e-05
-4.51746e-05
-4.13354e-06
-4.7174e-05
1.20087e-05
-4.85044e-05
2.85624e-05
-4.96196e-05
4.53045e-05
-5.01768e-05
6.20101e-05
-5.00919e-05
7.84654e-05
-4.92971e-05
9.44382e-05
-4.78601e-05
0.000109634
-4.55606e-05
0.000123848
-4.25788e-05
0.000136802
-3.87878e-05
0.000148164
-3.40329e-05
0.000157764
-2.87571e-05
0.000165365
-2.27688e-05
0.000170775
-1.62106e-05
0.000173868
-9.24865e-06
0.000174545
-2.02407e-06
0.000172774
5.2928e-06
0.000168555
1.26734e-05
0.000161995
1.96801e-05
0.000153213
2.63609e-05
0.000142359
3.25494e-05
0.000129721
3.79063e-05
0.000115548
4.24846e-05
0.000100127
4.61769e-05
8.38446e-05
4.87836e-05
6.70267e-05
5.04017e-05
4.99534e-05
5.11809e-05
3.28251e-05
5.13933e-05
1.60251e-05
5.03024e-05
-2.57726e-07
4.88178e-05
-1.58904e-05
4.68675e-05
-3.06743e-05
4.43294e-05
-4.45507e-05
4.15868e-05
-5.7331e-05
3.8332e-05
-6.9064e-05
3.51937e-05
-7.97749e-05
3.21328e-05
-8.94458e-05
2.90213e-05
-9.82537e-05
2.64442e-05
-0.000106144
2.37033e-05
-0.000113335
2.15938e-05
-0.000119897
1.9687e-05
-0.000125714
1.74556e-05
-0.000130959
1.57747e-05
-0.000135643
1.40588e-05
-0.000139722
1.22525e-05
-0.000143321
1.07982e-05
-0.000146353
9.1047e-06
-0.000148869
7.55278e-06
-0.000150938
6.20843e-06
-0.000152565
4.85773e-06
-0.00015367
3.32382e-06
-0.000154428
2.28309e-06
-0.000154796
1.12122e-06
-0.000154811
3.32458e-08
-0.000154492
-9.56965e-07
-0.000153726
-2.29962e-06
-0.000152607
-3.36011e-06
-0.000151131
-4.44108e-06
-0.000149085
-6.15376e-06
-0.000146558
-7.59357e-06
-0.000143465
-9.2761e-06
-0.00013958
-1.16814e-05
-0.000134987
-1.38037e-05
-0.000129436
-1.66853e-05
-0.000122979
-1.93768e-05
-0.000115582
-2.22031e-05
-0.000106979
-2.58164e-05
-9.73019e-05
-2.90439e-05
-8.66236e-05
-3.20151e-05
-7.4582e-05
-3.60881e-05
-6.15064e-05
-3.9227e-05
-4.72877e-05
-4.26382e-05
-3.20881e-05
-4.55784e-05
-1.61836e-05
-4.76838e-05
4.82809e-07
-4.99582e-05
1.77447e-05
-5.17354e-05
3.52608e-05
-5.24995e-05
5.30068e-05
-5.31809e-05
7.06259e-05
-5.28069e-05
8.79769e-05
-5.19949e-05
0.000104784
-5.03661e-05
0.000120716
-4.77437e-05
0.000135596
-4.45784e-05
0.000149201
-4.07667e-05
0.000161297
-3.62512e-05
0.000171743
-3.12909e-05
0.000180364
-2.58228e-05
0.000187033
-1.99696e-05
0.000191641
-1.38119e-05
0.000194152
-7.54971e-06
0.000194589
-1.35039e-06
0.00019289
5.01621e-06
0.000189092
1.13644e-05
0.000183424
1.69775e-05
0.00017594
2.24358e-05
0.000166756
2.75223e-05
0.000156216
3.15757e-05
0.000144383
3.54617e-05
0.000131538
3.84981e-05
0.000117781
4.12348e-05
0.00010328
4.34617e-05
8.82881e-05
4.49393e-05
7.28782e-05
4.61927e-05
5.71491e-05
4.71729e-05
4.13282e-05
4.74364e-05
2.54497e-05
4.76137e-05
9.69123e-06
4.72597e-05
-5.86138e-06
4.66317e-05
-2.11604e-05
4.58758e-05
-3.59778e-05
4.44334e-05
-5.03269e-05
4.30278e-05
4.0947e-05
-0.000164928
-7.50003e-06
-0.000162276
-1.0617e-05
-0.000158943
-1.33413e-05
-0.000154882
-1.62667e-05
-0.000149958
-1.97157e-05
-0.000144316
-2.26005e-05
-0.000137634
-2.66999e-05
-0.000130198
-2.97599e-05
-0.000122021
-3.27302e-05
-0.00011278
-3.6975e-05
-0.000102603
-4.07239e-05
-9.14658e-05
-4.45482e-05
-7.92567e-05
-4.88345e-05
-6.60858e-05
-5.26622e-05
-5.18322e-05
-5.70162e-05
-3.66252e-05
-6.08192e-05
-2.07272e-05
-6.35795e-05
-3.95745e-06
-6.71709e-05
1.36744e-05
-7.02164e-05
3.17885e-05
-7.23265e-05
5.04598e-05
-7.45692e-05
6.95179e-05
-7.61358e-05
8.85401e-05
-7.59359e-05
0.000107512
-7.5783e-05
0.000126107
-7.42351e-05
0.000144119
-7.18934e-05
0.000161307
-6.85589e-05
0.000177247
-6.36217e-05
0.000191818
-5.81286e-05
0.000204741
-5.16095e-05
0.000215781
-4.40615e-05
0.000224711
-3.56337e-05
0.000231365
-2.65172e-05
0.000235627
-1.7012e-05
0.000237436
-7.21455e-06
0.000236617
3.1676e-06
0.000233325
1.30194e-05
0.000227683
2.25271e-05
0.000219662
3.20174e-05
0.000209464
4.07063e-05
0.000197252
4.87596e-05
0.000183408
5.52299e-05
0.000168084
6.1147e-05
0.000151466
6.6309e-05
0.000133927
6.9996e-05
0.000115704
7.27214e-05
9.70516e-05
7.45319e-05
7.81143e-05
7.56224e-05
5.91636e-05
7.57038e-05
4.05262e-05
7.43702e-05
2.23496e-05
7.25561e-05
4.67882e-06
7.07524e-05
-1.23726e-05
6.80933e-05
-2.86652e-05
6.51006e-05
-4.40606e-05
6.15471e-05
-5.85252e-05
5.78282e-05
-7.20637e-05
5.41223e-05
-8.45931e-05
5.01002e-05
-9.61305e-05
4.61566e-05
-0.000106707
4.22946e-05
-0.000116303
3.84015e-05
-0.000125019
3.48559e-05
-0.000132784
3.10413e-05
-0.000139647
2.74694e-05
-0.000145689
2.41632e-05
-0.000150873
2.07514e-05
-0.000155182
1.72561e-05
-0.000158716
1.41744e-05
-0.000161383
1.0721e-05
-0.000163333
7.73268e-06
-0.000164478
4.58067e-06
-0.000164808
1.38926e-06
-0.000164443
-1.43686e-06
-0.000163366
-4.31057e-06
-0.000161419
-7.79547e-06
-0.000158786
-1.05549e-05
-0.00015533
-1.39117e-05
-0.000151072
-1.69837e-05
-0.000146093
-1.99223e-05
-0.000140228
-2.34353e-05
-0.000133508
-2.68833e-05
-0.000126099
-2.963e-05
-0.000117792
-3.31715e-05
-0.000108717
-3.62182e-05
-9.88493e-05
-3.95651e-05
-8.80771e-05
-4.31451e-05
-7.64901e-05
-4.64089e-05
-6.40925e-05
-4.97537e-05
-5.08422e-05
-5.29166e-05
-3.68123e-05
-5.61052e-05
-2.2029e-05
-5.91009e-05
-6.58755e-06
-6.17593e-05
9.48665e-06
-6.42484e-05
2.60515e-05
-6.62619e-05
4.30505e-05
-6.79924e-05
6.03543e-05
-6.91784e-05
7.78303e-05
-6.98849e-05
9.53198e-05
-6.9907e-05
0.000112645
-6.92482e-05
0.00012964
-6.78733e-05
0.000146081
-6.57075e-05
0.000161753