/*--------------------------------*- C++ -*----------------------------------*\
| =========                 |                                                 |
| \\      /  F ield         | OpenFOAM: The Open Source CFD Toolbox           |
|  \\    /   O peration     | Version:  3.0.1                                 |
|   \\  /    A nd           | Web:      www.OpenFOAM.org                      |
|    \\/     M anipulation  |                                                 |
\*---------------------------------------------------------------------------*/
FoamFile
{
    version     2.0;
    format      ascii;
    class       surfaceScalarField;
    location    "85.2";
    object      alphaPhi;
}
// * * * * * * * * * * * * * * * * * * * * * * * * * * * * * * * * * * * * * //

dimensions      [0 3 -1 0 0 0 0];

internalField   nonuniform List<scalar> 
42423
(
-4.90398e-05
-1.48085e-05
-3.29883e-05
-1.60515e-05
-1.60279e-05
-1.69604e-05
1.82589e-06
-1.78539e-05
2.04002e-05
-1.85743e-05
3.92753e-05
-1.88751e-05
5.85732e-05
-1.92979e-05
7.78797e-05
-1.93065e-05
9.69047e-05
-1.90251e-05
0.000115503
-1.85985e-05
0.000133384
-1.78813e-05
0.000150203
-1.68185e-05
0.000165691
-1.54877e-05
0.000179642
-1.39514e-05
0.000191792
-1.21498e-05
0.000201901
-1.01091e-05
0.000209746
-7.84538e-06
0.000215223
-5.47702e-06
0.000218207
-2.9838e-06
0.000218639
-4.32458e-07
0.000216556
2.08327e-06
0.000211906
4.65005e-06
0.00020464
7.26617e-06
0.000195219
9.42122e-06
0.000183633
1.15853e-05
0.000170264
1.33688e-05
0.000155306
1.49582e-05
0.000138819
1.64877e-05
0.000121319
1.74991e-05
0.00010292
1.83992e-05
8.38987e-05
1.90214e-05
6.46213e-05
1.92774e-05
4.5266e-05
1.93553e-05
2.6099e-05
1.91669e-05
7.24337e-06
1.88556e-05
-1.10977e-05
1.8341e-05
-2.88102e-05
1.77125e-05
-4.5796e-05
1.69858e-05
-6.19304e-05
1.61344e-05
-7.71378e-05
1.52074e-05
-9.13797e-05
1.42419e-05
-0.000104631
1.32513e-05
-0.000116883
1.2252e-05
-0.000128131
1.12477e-05
-0.00013838
1.0249e-05
-0.000147673
9.29319e-06
-0.000156007
8.33418e-06
-0.000163404
7.39711e-06
-0.000169923
6.51875e-06
-0.000175543
5.61961e-06
-0.000180313
4.77039e-06
-0.000184257
3.94364e-06
-0.000187378
3.12105e-06
-0.000189733
2.35543e-06
-0.000191299
1.56585e-06
-0.00019211
8.10871e-07
-0.000192155
4.51097e-08
-0.000191356
-7.99057e-07
-0.000189736
-1.61967e-06
-0.000187352
-2.38424e-06
-0.000184092
-3.25985e-06
-0.000179987
-4.10475e-06
-0.000175098
-4.88909e-06
-0.000169291
-5.80773e-06
-0.000162631
-6.65922e-06
-0.000155176
-7.45504e-06
-0.000146652
-8.5241e-06
-0.000137387
-9.26557e-06
-0.000127065
-1.03217e-05
-0.000115724
-1.13409e-05
-0.000103624
-1.21003e-05
-9.06149e-05
-1.30091e-05
-7.67291e-05
-1.38858e-05
-6.2132e-05
-1.45971e-05
-4.6769e-05
-1.5363e-05
-3.07336e-05
-1.60354e-05
-1.40736e-05
-1.666e-05
3.20025e-06
-1.72739e-05
2.085e-05
-1.76498e-05
3.88558e-05
-1.80058e-05
5.70944e-05
-1.82387e-05
7.5231e-05
-1.81366e-05
9.33961e-05
-1.8165e-05
0.000111224
-1.78277e-05
0.000128678
-1.74539e-05
0.000145458
-1.67802e-05
0.000161252
-1.57936e-05
0.000175905
-1.46522e-05
0.000188993
-1.30875e-05
0.000200251
-1.12574e-05
0.000209389
-9.13775e-06
0.000216216
-6.8265e-06
0.000220619
-4.40256e-06
0.000222512
-1.89249e-06
0.000221888
6.24887e-07
0.000218712
3.17605e-06
0.000213036
5.67616e-06
0.000205029
8.00762e-06
0.000194774
1.02559e-05
0.000182501
1.22728e-05
0.000168335
1.41659e-05
0.000152553
1.57823e-05
0.000135373
1.71805e-05
0.000117075
1.82975e-05
9.79237e-05
1.91519e-05
7.8224e-05
1.96997e-05
5.82673e-05
1.99567e-05
3.83077e-05
1.99597e-05
1.86047e-05
1.9703e-05
-5.97977e-07
1.92027e-05
-1.91518e-05
1.85538e-05
-3.6856e-05
1.77042e-05
-5.35931e-05
1.67371e-05
-6.93117e-05
1.57186e-05
-8.38888e-05
1.4577e-05
-9.73445e-05
1.34557e-05
-0.000109647
1.23026e-05
-0.000120819
1.11723e-05
-0.000130853
1.00337e-05
-0.000139805
8.9516e-06
-0.000147689
7.88449e-06
-0.000154567
6.87781e-06
-0.000160479
5.91173e-06
-0.000165437
4.95845e-06
-0.000169503
4.06556e-06
-0.000172798
3.29475e-06
-0.000175187
2.3895e-06
-0.000176949
1.76238e-06
-0.000177883
9.33651e-07
-0.000178225
3.41654e-07
-0.000177829
-3.9614e-07
-0.00017686
-9.68705e-07
-0.000175202
-1.65825e-06
-0.000172965
-2.23663e-06
-0.000170057
-2.90791e-06
-0.000166683
-3.37417e-06
-0.000162619
-4.06389e-06
-0.000157945
-4.67461e-06
-0.000152616
-5.3287e-06
-0.000146611
-6.00506e-06
-0.000139913
-6.69839e-06
-0.000132412
-7.50028e-06
-0.000124281
-8.13164e-06
-0.000115267
-9.01364e-06
-0.00010538
-9.88758e-06
-9.4751e-05
-1.06286e-05
-8.31897e-05
-1.15614e-05
-7.07823e-05
-1.24074e-05
-5.74929e-05
-1.32895e-05
-4.33654e-05
-1.41276e-05
-2.84369e-05
-1.49286e-05
-1.27013e-05
-1.57357e-05
3.54068e-06
-1.6242e-05
2.04223e-05
-1.68817e-05
3.77347e-05
-1.73125e-05
5.53396e-05
-1.76049e-05
7.29818e-05
-1.76422e-05
9.05263e-05
-1.75446e-05
0.000107721
-1.71948e-05
0.000124318
-1.65972e-05
0.000140063
-1.57447e-05
0.000154691
-1.46286e-05
0.000167948
-1.32568e-05
0.000179559
-1.16112e-05
0.000189311
-9.75198e-06
0.000196985
-7.67379e-06
0.000202427
-5.44225e-06
0.000205485
-3.05834e-06
0.000206124
-6.38241e-07
0.000204243
1.88057e-06
0.000199847
4.39541e-06
0.000193052
6.79487e-06
0.000184026
9.02683e-06
0.000172925
1.11008e-05
0.000159905
1.30194e-05
0.00014528
1.46256e-05
0.00012929
1.59892e-05
0.000112216
1.70744e-05
9.4361e-05
1.78548e-05
7.59782e-05
1.83828e-05
5.73099e-05
1.86682e-05
3.86445e-05
1.86655e-05
2.01753e-05
1.84691e-05
2.11071e-06
1.80646e-05
-1.54154e-05
1.75261e-05
-3.22528e-05
1.68374e-05
-4.83356e-05
1.60828e-05
-6.34495e-05
1.51139e-05
-7.75718e-05
1.41223e-05
-9.07046e-05
1.31328e-05
-0.000102828
1.21232e-05
-0.000113991
1.11634e-05
-0.00012414
1.01488e-05
-0.00013334
9.19994e-06
-0.000141511
8.17096e-06
-0.0001487
7.18916e-06
-0.000154885
6.18459e-06
-0.000160155
5.27017e-06
-0.000164531
4.37656e-06
-0.000168153
3.62161e-06
-0.000171087
2.93417e-06
-0.000173402
2.31482e-06
-0.000175197
1.79476e-06
-0.000176501
1.30398e-06
-0.000177244
7.43378e-07
-0.000177484
2.40398e-07
-0.000177092
-3.92524e-07
-0.000176086
-1.00604e-06
-0.000174399
-1.68654e-06
-0.000172035
-2.36472e-06
-0.00016898
-3.05417e-06
-0.000165261
-3.71932e-06
-0.000160828
-4.43259e-06
-0.00015586
-4.96839e-06
-0.000150159
-5.7012e-06
-0.000143799
-6.36038e-06
-0.000136783
-7.01512e-06
-0.000129057
-7.72653e-06
-0.000120598
-8.45853e-06
-0.000111395
-9.20355e-06
-0.000101397
-9.99747e-06
-9.06047e-05
-1.07928e-05
-7.90278e-05
-1.1577e-05
-6.6675e-05
-1.23528e-05
-5.35272e-05
-1.31478e-05
-3.95563e-05
-1.39709e-05
-2.49798e-05
-1.45766e-05
-9.7448e-06
-1.5235e-05
6.06641e-06
-1.58113e-05
2.23147e-05
-1.62484e-05
3.88958e-05
-1.65811e-05
5.55744e-05
-1.66787e-05
7.22465e-05
-1.66721e-05
8.86629e-05
-1.64164e-05
0.00010463
-1.59674e-05
0.000119896
-1.52655e-05
0.000134238
-1.43428e-05
0.000147339
-1.31005e-05
0.000159006
-1.16672e-05
0.00016894
-9.93404e-06
0.000176942
-8.0022e-06
0.000182797
-5.8556e-06
0.000186348
-3.55116e-06
0.000187478
-1.13015e-06
0.000186188
1.28979e-06
0.000182345
3.84224e-06
0.000176083
6.26256e-06
0.000167534
8.54829e-06
0.000156903
1.06311e-05
0.000144365
1.25377e-05
0.00013023
1.41343e-05
0.000114679
1.55516e-05
9.80815e-05
1.65969e-05
8.066e-05
1.74213e-05
6.27132e-05
1.79467e-05
4.4455e-05
1.82581e-05
2.61074e-05
1.83476e-05
7.959e-06
1.81484e-05
-9.92403e-06
1.7883e-05
-2.72615e-05
1.73375e-05
-4.39166e-05
1.66551e-05
-5.97846e-05
1.5868e-05
-7.47656e-05
1.49811e-05
-8.88179e-05
1.40524e-05
-0.000101843
1.30248e-05
-0.000113886
1.20438e-05
-0.000124968
1.10813e-05
-0.000134962
9.99417e-06
-0.000143921
8.95951e-06
-0.000151951
8.02998e-06
-0.000159042
7.09128e-06
-0.000165098
6.05579e-06
-0.000170291
5.19301e-06
-0.000174581
4.28963e-06
-0.000177987
3.40625e-06
-0.000180459
2.47246e-06
-0.000182147
1.68793e-06
-0.000182955
8.08242e-07
-0.000182931
-2.4253e-08
-0.000182053
-8.77725e-07
-0.000180325
-1.7287e-06
-0.000177714
-2.61056e-06
-0.000174467
-3.24659e-06
-0.000170615
-3.85269e-06
-0.00016621
-4.40495e-06
-0.000161481
-4.72869e-06
-0.000156501
-4.98032e-06
-0.00015113
-5.37057e-06
-0.000145585
-5.54554e-06
-0.000139637
-5.94718e-06
-0.000133402
-6.23507e-06
-0.000126909
-6.49314e-06
-0.000119903
-7.00622e-06
-0.000112397
-7.5057e-06
-0.00010436
-8.03779e-06
-9.54285e-05
-8.93109e-06
-8.56947e-05
-9.73384e-06
-7.51506e-05
-1.05441e-05
-6.35247e-05
-1.16259e-05
-5.10081e-05
-1.25166e-05
-3.73504e-05
-1.36577e-05
-2.25983e-05
-1.47521e-05
-7.04383e-06
-1.55545e-05
9.34485e-06
-1.63887e-05
2.65911e-05
-1.72463e-05
4.42427e-05
-1.76515e-05
6.23021e-05
-1.80595e-05
8.04029e-05
-1.81008e-05
9.84091e-05
-1.80062e-05
0.000115995
-1.75855e-05
0.000132704
-1.67092e-05
0.000148418
-1.57142e-05
0.000162798
-1.43806e-05
0.000175512
-1.27137e-05
0.000186454
-1.09416e-05
0.000195311
-8.85694e-06
0.000202011
-6.70015e-06
0.000206389
-4.37872e-06
0.000208382
-1.99238e-06
0.000207898
4.83951e-07
0.000204988
2.90979e-06
0.000199544
5.44402e-06
0.000192083
7.46057e-06
0.000182558
9.52578e-06
0.000171422
1.11361e-05
0.000158808
1.26138e-05
0.000144892
1.39152e-05
0.000130138
1.47549e-05
0.000114534
1.56038e-05
9.84946e-05
1.60391e-05
8.21919e-05
1.63027e-05
6.58326e-05
1.63593e-05
4.95723e-05
1.62603e-05
3.35668e-05
1.60055e-05
1.792e-05
1.56468e-05
2.74075e-06
1.51792e-05
-1.20637e-05
1.48044e-05
-2.63013e-05
1.42376e-05
-3.99321e-05
1.36308e-05
-5.29745e-05
1.30424e-05
-6.53876e-05
1.24131e-05
-7.71378e-05
1.17502e-05
-8.82368e-05
1.10991e-05
-9.86435e-05
1.04067e-05
-0.000108375
9.73149e-06
-0.000117397
9.02203e-06
-0.000125689
8.29172e-06
-0.00013325
7.56127e-06
-0.000140054
6.80404e-06
-0.00014607
6.0157e-06
-0.0001513
5.22997e-06
-0.000155723
4.42363e-06
-0.000159335
3.6119e-06
-0.000162132
2.79703e-06
-0.000164099
1.96699e-06
-0.000165251
1.15156e-06
3.21072e-07
-4.90748e-05
-2.96193e-05
-3.30209e-05
-3.21056e-05
-1.60624e-05
-3.39189e-05
1.80313e-06
-3.57195e-05
2.03812e-05
-3.71524e-05
3.92638e-05
-3.77579e-05
5.85766e-05
-3.86108e-05
7.79036e-05
-3.86336e-05
9.69381e-05
-3.80596e-05
0.000115549
-3.72094e-05
0.000133461
-3.57938e-05
0.000150297
-3.36538e-05
0.00016578
-3.09709e-05
0.000179735
-2.79069e-05
0.000191894
-2.43085e-05
0.000202012
-2.02276e-05
0.000209867
-1.57007e-05
0.000215353
-1.09628e-05
0.000218347
-5.97723e-06
0.000218777
-8.62387e-07
0.000216677
4.1831e-06
0.000212023
9.30378e-06
0.000204761
1.45283e-05
0.000195326
1.88555e-05
0.000183732
2.31794e-05
0.000170349
2.67517e-05
0.000155378
2.99301e-05
0.000138878
3.29868e-05
0.000121368
3.50096e-05
0.000102963
3.68045e-05
8.39249e-05
3.8059e-05
6.46348e-05
3.85675e-05
4.52685e-05
3.87217e-05
2.60915e-05
3.83439e-05
7.22648e-06
3.77206e-05
-1.11185e-05
3.6686e-05
-2.8837e-05
3.5431e-05
-4.58276e-05
3.39765e-05
-6.19669e-05
3.22737e-05
-7.71793e-05
3.04198e-05
-9.14262e-05
2.84888e-05
-0.000104682
2.65069e-05
-0.000116938
2.45078e-05
-0.000128188
2.24978e-05
-0.000138439
2.04998e-05
-0.00014773
1.85843e-05
-0.000156065
1.6669e-05
-0.000163465
1.47972e-05
-0.000169983
1.30374e-05
-0.000175601
1.12375e-05
-0.000180376
9.54573e-06
-0.000184328
7.89561e-06
-0.000187451
6.24345e-06
-0.000189803
4.7078e-06
-0.000191367
3.13007e-06
-0.000192178
1.62176e-06
-0.000192223
8.96234e-08
-0.000191429
-1.59239e-06
-0.000189805
-3.2441e-06
-0.000187423
-4.76627e-06
-0.000184168
-6.51453e-06
-0.000180059
-8.21398e-06
-0.000175171
-9.77726e-06
-0.000169361
-1.16177e-05
-0.0001627
-1.33198e-05
-0.000155251
-1.49047e-05
-0.000146732
-1.70433e-05
-0.000137458
-1.85391e-05
-0.000127132
-2.06478e-05
-0.000115792
-2.26814e-05
-0.000103686
-2.42057e-05
-9.06711e-05
-2.60242e-05
-7.67822e-05
-2.77748e-05
-6.21988e-05
-2.91806e-05
-4.68274e-05
-3.07344e-05
-3.07802e-05
-3.20827e-05
-1.41189e-05
-3.33214e-05
3.16768e-06
-3.45605e-05
2.08267e-05
-3.53088e-05
3.88441e-05
-3.60232e-05
5.70871e-05
-3.64817e-05
7.52369e-05
-3.62864e-05
9.34204e-05
-3.63485e-05
0.000111254
-3.56609e-05
0.000128738
-3.4938e-05
0.00014553
-3.35722e-05
0.000161345
-3.16078e-05
0.000176031
-2.93382e-05
0.000189137
-2.6193e-05
0.000200408
-2.25281e-05
0.000209574
-1.83032e-05
0.000216409
-1.36606e-05
0.000220812
-8.80555e-06
0.00022271
-3.78921e-06
0.000222075
1.2601e-06
0.000218891
6.36076e-06
0.00021321
1.1357e-05
0.000205193
1.6025e-05
0.000194917
2.05331e-05
0.000182622
2.45678e-05
0.00016844
2.83484e-05
0.000152643
3.15792e-05
0.000135445
3.43789e-05
0.000117124
3.66184e-05
9.79546e-05
3.83216e-05
7.82324e-05
3.94221e-05
5.82496e-05
3.99395e-05
3.82708e-05
3.99386e-05
1.85605e-05
3.94133e-05
-6.49237e-07
3.84125e-05
-1.92102e-05
3.71148e-05
-3.69417e-05
3.54358e-05
-5.36883e-05
3.34838e-05
-6.94172e-05
3.14475e-05
-8.40064e-05
2.91663e-05
-9.74657e-05
2.69151e-05
-0.000109777
2.46134e-05
-0.000120952
2.23476e-05
-0.000131
2.00822e-05
-0.000139963
1.79142e-05
-0.000147855
1.57766e-05
-0.000154732
1.37544e-05
-0.00016064
1.18204e-05
-0.000165605
9.92299e-06
-0.000169675
8.13534e-06
-0.00017298
6.6004e-06
-0.000175398
4.80688e-06
-0.000177145
3.50964e-06
-0.000178092
1.8804e-06
-0.000178427
6.77444e-07
-0.000178047
-7.76534e-07
-0.000177076
-1.94024e-06
-0.000175434
-3.29953e-06
-0.0001732
-4.47092e-06
-0.000170359
-5.74873e-06
-0.000166928
-6.80501e-06
-0.000162806
-8.18653e-06
-0.000158205
-9.27512e-06
-0.000152865
-1.06693e-05
-0.000146873
-1.19968e-05
-0.000140174
-1.33973e-05
-0.000132726
-1.49479e-05
-0.00012453
-1.63279e-05
-0.000115509
-1.80354e-05
-0.000105623
-1.97734e-05
-9.49966e-05
-2.12548e-05
-8.34217e-05
-2.31363e-05
-7.10107e-05
-2.48184e-05
-5.77083e-05
-2.65919e-05
-4.35709e-05
-2.8265e-05
-2.8572e-05
-2.99275e-05
-1.29457e-05
-3.1362e-05
3.36667e-06
-3.25545e-05
2.02761e-05
-3.37911e-05
3.7607e-05
-3.46435e-05
5.52151e-05
-3.52131e-05
7.28848e-05
-3.5312e-05
9.0446e-05
-3.51059e-05
0.000107659
-3.44077e-05
0.000124272
-3.3211e-05
0.000140038
-3.15105e-05
0.000154688
-2.92789e-05
0.000167977
-2.65453e-05
0.000179589
-2.32237e-05
0.000189365
-1.95279e-05
0.000197051
-1.53604e-05
0.000202502
-1.08933e-05
0.000205584
-6.1398e-06
0.000206197
-1.25124e-06
0.000204319
3.75841e-06
0.000199926
8.78768e-06
0.000193127
1.35945e-05
0.000184088
1.80658e-05
0.000172979
2.22094e-05
0.000159948
2.60501e-05
0.000145307
2.9267e-05
0.000129307
3.19887e-05
0.000112222
3.41601e-05
9.43452e-05
3.57312e-05
7.59387e-05
3.67892e-05
5.72596e-05
3.73474e-05
3.85801e-05
3.73449e-05
2.01004e-05
3.69489e-05
2.02375e-06
3.61413e-05
-1.55179e-05
3.50678e-05
-3.2384e-05
3.37035e-05
-4.84575e-05
3.21563e-05
-6.35859e-05
3.02424e-05
-7.7717e-05
2.82534e-05
-9.08589e-05
2.62747e-05
-0.00010299
2.42543e-05
-0.000114163
2.23369e-05
-0.000124328
2.03136e-05
-0.000133525
1.83964e-05
-0.000141702
1.63488e-05
-0.000148893
1.43793e-05
-0.000155087
1.23795e-05
-0.000160364
1.05468e-05
-0.000164753
8.76512e-06
-0.000168372
7.24133e-06
-0.000171303
5.8649e-06
-0.000173627
4.6389e-06
-0.000175382
3.54967e-06
-0.000176726
2.64777e-06
-0.000177477
1.49445e-06
-0.000177723
4.86074e-07
-0.000177335
-7.79612e-07
-0.000176313
-2.02809e-06
-0.000174646
-3.35442e-06
-0.000172273
-4.73697e-06
-0.000169224
-6.10325e-06
-0.000165506
-7.43801e-06
-0.000161067
-8.8716e-06
-0.000156098
-9.93686e-06
-0.0001504
-1.1399e-05
-0.000144049
-1.27115e-05
-0.000137017
-1.40469e-05
-0.000129249
-1.54952e-05
-0.000120821
-1.68863e-05
-0.000111603
-1.84213e-05
-0.000101605
-1.99956e-05
-9.08123e-05
-2.15856e-05
-7.92153e-05
-2.3174e-05
-6.68479e-05
-2.47203e-05
-5.36937e-05
-2.6302e-05
-3.97153e-05
-2.79494e-05
-2.51387e-05
-2.91532e-05
-9.88913e-06
-3.04846e-05
5.93857e-06
-3.1639e-05
2.21949e-05
-3.25048e-05
3.87897e-05
-3.31759e-05
5.54791e-05
-3.33681e-05
7.21802e-05
-3.33734e-05
8.8626e-05
-3.28622e-05
0.000104596
-3.19378e-05
0.000119884
-3.05534e-05
0.000134234
-2.86928e-05
0.000147342
-2.62086e-05
0.000159018
-2.33438e-05
0.000168967
-1.98828e-05
0.000176977
-1.60127e-05
0.000182843
-1.17211e-05
0.000186402
-7.11129e-06
0.000187535
-2.26255e-06
0.000186219
2.60478e-06
0.000182372
7.68962e-06
0.0001761
1.25337e-05
0.000167553
1.70951e-05
0.000156942
2.12419e-05
0.000144375
2.51042e-05
0.000130214
2.82953e-05
0.000114676
3.10895e-05
9.8065e-05
3.3208e-05
8.06374e-05
3.48488e-05
6.26836e-05
3.59005e-05
4.44272e-05
3.65144e-05
2.60622e-05
3.67126e-05
7.88882e-06
3.63217e-05
-9.97087e-06
3.57427e-05
-2.73283e-05
3.4695e-05
-4.39846e-05
3.33116e-05
-5.98599e-05
3.17434e-05
-7.48457e-05
2.9967e-05
-8.89012e-05
2.8108e-05
-0.000101927
2.60509e-05
-0.000113965
2.40821e-05
-0.000125033
2.21488e-05
-0.000135039
2.00005e-05
-0.000143999
1.79193e-05
-0.000152026
1.60576e-05
-0.000159108
1.41734e-05
-0.000165167
1.21141e-05
-0.000170357
1.03837e-05
-0.000174644
8.5768e-06
-0.000178054
6.81574e-06
-0.000180524
4.94263e-06
-0.000182219
3.38255e-06
-0.000183018
1.60819e-06
-0.000182997
-4.54595e-08
-0.000182119
-1.75546e-06
-0.00018039
-3.458e-06
-0.000177775
-5.22594e-06
-0.000174524
-6.49683e-06
-0.000170668
-7.70912e-06
-0.000166258
-8.81472e-06
-0.000161527
-9.46041e-06
-0.000156544
-9.96279e-06
-0.000151168
-1.07462e-05
-0.000145622
-1.10925e-05
-0.000139678
-1.18907e-05
-0.000133444
-1.24689e-05
-0.000126953
-1.29841e-05
-0.000119954
-1.40055e-05
-0.00011245
-1.50092e-05
-0.000104418
-1.607e-05
-9.54982e-05
-1.78512e-05
-8.57478e-05
-1.94842e-05
-7.5208e-05
-2.1084e-05
-6.35825e-05
-2.32514e-05
-5.10658e-05
-2.50333e-05
-3.7407e-05
-2.73165e-05
-2.26521e-05
-2.9507e-05
-7.09429e-06
-3.11123e-05
9.30375e-06
-3.27868e-05
2.65617e-05
-3.45043e-05
4.42222e-05
-3.5312e-05
6.22965e-05
-3.61339e-05
8.04136e-05
-3.62179e-05
9.84302e-05
-3.60229e-05
0.000116035
-3.51899e-05
0.000132759
-3.34333e-05
0.00014849
-3.14451e-05
0.000162882
-2.87726e-05
0.000175603
-2.54354e-05
0.000186554
-2.18927e-05
0.000195419
-1.77221e-05
0.000202129
-1.34099e-05
0.000206511
-8.76007e-06
0.000208511
-3.99241e-06
0.000208018
9.76318e-07
0.000205103
5.82506e-06
0.000199652
1.08947e-05
0.000192182
1.49305e-05
0.000182654
1.90542e-05
0.000171501
2.22892e-05
0.000158877
2.52377e-05
0.000144947
2.78452e-05
0.000130187
2.95152e-05
0.000114567
3.12236e-05
9.85224e-05
3.20834e-05
8.22065e-05
3.26185e-05
6.58378e-05
3.2728e-05
4.95698e-05
3.25283e-05
3.35573e-05
3.2018e-05
1.79043e-05
3.12998e-05
2.72082e-06
3.03627e-05
-1.2084e-05
2.96093e-05
-2.63224e-05
2.84759e-05
-3.99561e-05
2.72645e-05
-5.30026e-05
2.6089e-05
-6.54193e-05
2.48298e-05
-7.71702e-05
2.35011e-05
-8.82679e-05
2.21968e-05
-9.86773e-05
2.0816e-05
-0.000108411
1.94653e-05
-0.000117433
1.80435e-05
-0.000125723
1.6582e-05
-0.000133283
1.51216e-05
-0.000140089
1.36094e-05
-0.000146103
1.20298e-05
-0.000151334
1.04613e-05
-0.000155758
8.84819e-06
-0.000159369
7.22215e-06
-0.000162165
5.59329e-06
-0.000164135
3.93721e-06
-0.000165287
2.30317e-06
6.38904e-07
-4.91429e-05
-4.44367e-05
-3.30835e-05
-4.81651e-05
-1.61047e-05
-5.08977e-05
1.76271e-06
-5.3587e-05
2.03562e-05
-5.57459e-05
3.9259e-05
-5.66607e-05
5.85957e-05
-5.79476e-05
7.79438e-05
-5.79817e-05
9.70083e-05
-5.71242e-05
0.000115653
-5.58546e-05
0.000133581
-5.37217e-05
0.000150437
-5.05099e-05
0.000165951
-4.64851e-05
0.000179943
-4.18988e-05
0.000192121
-3.6486e-05
0.000202255
-3.03619e-05
0.000210123
-2.35685e-05
0.000215612
-1.64518e-05
0.000218599
-8.96442e-06
0.000219008
-1.2713e-06
0.000216869
6.32119e-06
0.000212205
1.39684e-05
0.000204941
2.17919e-05
0.00019549
2.83068e-05
0.000183882
3.47869e-05
0.000170477
4.01565e-05
0.000155481
4.49269e-05
0.000138965
4.95026e-05
0.000121436
5.25386e-05
0.000103016
5.52244e-05
8.39595e-05
5.71155e-05
6.46461e-05
5.78808e-05
4.52601e-05
5.81076e-05
2.60655e-05
5.75384e-05
7.18411e-06
5.66021e-05
-1.11707e-05
5.50408e-05
-2.89006e-05
5.31608e-05
-4.59009e-05
5.09768e-05
-6.20479e-05
4.84207e-05
-7.72658e-05
4.56377e-05
-9.15161e-05
4.27392e-05
-0.000104772
3.97626e-05
-0.000117028
3.67641e-05
-0.00012828
3.37492e-05
-0.000138529
3.07497e-05
-0.000147822
2.78764e-05
-0.000156158
2.50053e-05
-0.000163554
2.21935e-05
-0.000170079
1.95626e-05
-0.000175699
1.68566e-05
-0.000180474
1.43209e-05
-0.000184424
1.18458e-05
-0.000187538
9.3572e-06
-0.000189891
7.06075e-06
-0.000191457
4.69647e-06
-0.000192258
2.42304e-06
-0.00019229
1.21372e-07
-0.000191495
-2.38798e-06
-0.000189866
-4.87241e-06
-0.000187486
-7.14633e-06
-0.000184239
-9.76176e-06
-0.000180127
-1.23256e-05
-0.000175244
-1.46603e-05
-0.000169437
-1.74255e-05
-0.000162774
-1.99825e-05
-0.000155328
-2.23504e-05
-0.000146811
-2.55607e-05
-0.000137534
-2.78154e-05
-0.000127207
-3.0975e-05
-0.000115865
-3.40233e-05
-0.000103753
-3.63184e-05
-9.07381e-05
-3.90391e-05
-7.68482e-05
-4.16647e-05
-6.22782e-05
-4.37507e-05
-4.68988e-05
-4.61139e-05
-3.08439e-05
-4.81376e-05
-1.4173e-05
-4.99923e-05
3.12353e-06
-5.18571e-05
2.07883e-05
-5.29736e-05
3.8825e-05
-5.406e-05
5.70669e-05
-5.47236e-05
7.52348e-05
-5.44542e-05
9.34354e-05
-5.4549e-05
0.000111279
-5.35039e-05
0.000128797
-5.24562e-05
0.000145604
-5.03791e-05
0.000161441
-4.74441e-05
0.000176159
-4.40562e-05
0.000189288
-3.93214e-05
0.000200607
-3.38472e-05
0.000209767
-2.74623e-05
0.000216613
-2.05065e-05
0.000221017
-1.32089e-05
0.000222914
-5.68473e-06
0.000222249
1.92515e-06
0.000219036
9.57377e-06
0.000213342
1.70522e-05
0.000205307
2.40599e-05
0.000194999
3.08419e-05
0.000182669
3.68983e-05
0.000168462
4.25549e-05
0.000152629
4.74123e-05
0.000135399
5.16097e-05
0.000117056
5.49614e-05
9.78706e-05
5.7507e-05
7.80983e-05
5.91944e-05
5.80884e-05
5.99496e-05
3.80883e-05
5.99388e-05
1.83555e-05
5.91461e-05
-8.78974e-07
5.7647e-05
-1.94362e-05
5.5672e-05
-3.72014e-05
5.3201e-05
-5.39651e-05
5.02475e-05
-6.9691e-05
4.71733e-05
-8.42942e-05
4.37695e-05
-9.77096e-05
4.03304e-05
-0.000110074
3.69776e-05
-0.000121248
3.35224e-05
-0.0001313
3.01333e-05
-0.000140244
2.68587e-05
-0.00014814
2.36728e-05
-0.000155017
2.06311e-05
-0.000160927
1.77304e-05
-0.000165894
1.489e-05
-0.000169959
1.22007e-05
-0.000173266
9.90725e-06
-0.0001757
7.24078e-06
-0.000177436
5.24521e-06
-0.000178385
2.82935e-06
-0.00017871
1.00299e-06
-0.00017833
-1.15679e-06
-0.000177353
-2.91767e-06
-0.000175724
-4.92782e-06
-0.000173503
-6.6922e-06
-0.000170684
-8.5679e-06
-0.000167233
-1.02558e-05
-0.000163117
-1.23023e-05
-0.000158514
-1.38789e-05
-0.000153172
-1.60104e-05
-0.000147191
-1.79782e-05
-0.000140479
-2.01093e-05
-0.000133055
-2.23716e-05
-0.000124841
-2.45427e-05
-0.000115787
-2.70885e-05
-0.000105975
-2.95863e-05
-9.5298e-05
-3.19314e-05
-8.3717e-05
-3.47172e-05
-7.13054e-05
-3.72301e-05
-5.79977e-05
-3.98995e-05
-4.38424e-05
-4.24204e-05
-2.88609e-05
-4.4909e-05
-1.32419e-05
-4.6981e-05
3.10835e-06
-4.89047e-05
2.00335e-05
-5.07163e-05
3.73944e-05
-5.20043e-05
5.50098e-05
-5.28285e-05
7.27106e-05
-5.30128e-05
9.02916e-05
-5.2687e-05
0.000107516
-5.16317e-05
0.000124152
-4.98477e-05
0.000139943
-4.73011e-05
0.000154613
-4.39491e-05
0.000167929
-3.98615e-05
0.000179566
-3.48606e-05
0.000189359
-2.93206e-05
0.000197062
-2.30636e-05
0.000202525
-1.63564e-05
0.000205612
-9.22751e-06
0.000206208
-1.84679e-06
0.000204318
5.64788e-06
0.000199924
1.31822e-05
0.000193126
2.03926e-05
0.000184082
2.71092e-05
0.000172931
3.336e-05
0.000159886
3.90959e-05
0.000145221
4.39313e-05
0.000129208
4.80021e-05
0.000112096
5.12714e-05
9.41853e-05
5.36424e-05
7.57961e-05
5.51784e-05
5.70841e-05
5.60594e-05
3.83659e-05
5.60631e-05
1.98715e-05
5.54433e-05
1.78129e-06
5.42315e-05
-1.57847e-05
5.26338e-05
-3.267e-05
5.05888e-05
-4.87076e-05
4.8194e-05
-6.38749e-05
4.54098e-05
-7.80171e-05
4.23956e-05
-9.1157e-05
3.94147e-05
-0.000103292
3.63892e-05
-0.000114454
3.3499e-05
-0.000124629
3.0489e-05
-0.000133825
2.7592e-05
-0.000142014
2.45383e-05
-0.000149196
2.15606e-05
-0.000155395
1.85786e-05
-0.000160678
1.58307e-05
-0.000165075
1.31612e-05
-0.000168671
1.08376e-05
-0.000171539
8.73318e-06
-0.00017391
7.00988e-06
-0.000175685
5.32465e-06
-0.000177014
3.97703e-06
-0.000177769
2.24898e-06
-0.000178015
7.31757e-07
-0.000177633
-1.16093e-06
-0.000176544
-3.11742e-06
-0.000174947
-4.95095e-06
-0.000172568
-7.11669e-06
-0.000169521
-9.15032e-06
-0.000165797
-1.11612e-05
-0.000161414
-1.32553e-05
-0.000156382
-1.49683e-05
-0.000150692
-1.70888e-05
-0.000144343
-1.90607e-05
-0.000137304
-2.1086e-05
-0.000129493
-2.33065e-05
-0.000121095
-2.5284e-05
-0.00011187
-2.76461e-05
-0.000101878
-2.99877e-05
-9.10886e-05
-3.23752e-05
-7.94939e-05
-3.47687e-05
-6.71257e-05
-3.70885e-05
-5.39568e-05
-3.94708e-05
-4.00543e-05
-4.18519e-05
-2.54072e-05
-4.38003e-05
-1.01385e-05
-4.57532e-05
5.70145e-06
-4.7479e-05
2.19753e-05
-4.87786e-05
3.85724e-05
-4.9773e-05
5.5289e-05
-5.00847e-05
7.19935e-05
-5.00779e-05
8.84643e-05
-4.93331e-05
0.000104476
-4.795e-05
0.000119785
-4.58615e-05
0.000134126
-4.3034e-05
0.000147267
-3.93502e-05
0.000158967
-3.50437e-05
0.000168944
-2.98599e-05
0.000176957
-2.40254e-05
0.000182833
-1.75975e-05
0.000186401
-1.068e-05
0.00018755
-3.41178e-06
0.000186195
3.95975e-06
0.000182346
1.15382e-05
0.000176074
1.88062e-05
0.000167531
2.5637e-05
0.000156867
3.1906e-05
0.000144331
3.76403e-05
0.000130146
4.24803e-05
0.000114623
4.66122e-05
9.79935e-05
4.98369e-05
8.05612e-05
5.22809e-05
6.25902e-05
5.38713e-05
4.43232e-05
5.47813e-05
2.59374e-05
5.50983e-05
7.74472e-06
5.45144e-05
-1.01008e-05
5.35882e-05
-2.74691e-05
5.20633e-05
-4.41269e-05
4.99694e-05
-6.00119e-05
4.76285e-05
-7.49897e-05
4.49449e-05
-8.90431e-05
4.21615e-05
-0.000102071
3.90789e-05
-0.000114101
3.61121e-05
-0.000125145
3.31928e-05
-0.00013517
3.00256e-05
-0.000144117
2.68668e-05
-0.000152138
2.40788e-05
-0.000159205
2.12402e-05
-0.000165263
1.8172e-05
-0.000170443
1.55634e-05
-0.000174721
1.28553e-05
-0.000178135
1.02295e-05
-0.000180601
7.4087e-06
-0.00018231
5.09207e-06
-0.000183103
2.40112e-06
-0.000183081
-6.79437e-08
-0.000182192
-2.64441e-06
-0.000180459
-5.19044e-06
-0.000177831
-7.85389e-06
-0.000174575
-9.75279e-06
-0.000170716
-1.15687e-05
-0.000166296
-1.3234e-05
-0.000161555
-1.42022e-05
-0.00015657
-1.49478e-05
-0.000151191
-1.61252e-05
-0.000145645
-1.66379e-05
-0.000139704
-1.78323e-05
-0.000133474
-1.86984e-05
-0.000126992
-1.94664e-05
-0.000120001
-2.09962e-05
-0.0001125
-2.25106e-05
-0.000104481
-2.40886e-05
-9.55802e-05
-2.67521e-05
-8.58122e-05
-2.92522e-05
-7.52816e-05
-3.16146e-05
-6.36586e-05
-3.48744e-05
-5.11443e-05
-3.75477e-05
-3.74869e-05
-4.09739e-05
-2.27293e-05
-4.42647e-05
-7.16672e-06
-4.66749e-05
9.2445e-06
-4.9198e-05
2.65206e-05
-5.17805e-05
4.41968e-05
-5.29882e-05
6.22931e-05
-5.42302e-05
8.04338e-05
-5.43587e-05
9.84729e-05
-5.4062e-05
0.000116107
-5.28244e-05
0.000132852
-5.01784e-05
0.000148609
-4.72016e-05
0.000163031
-4.31951e-05
0.000175782
-3.8186e-05
0.000186752
-3.28627e-05
0.000195638
-2.66078e-05
0.000202371
-2.01432e-05
0.000206762
-1.31515e-05
0.00020877
-5.99993e-06
0.000208232
1.51383e-06
0.000205283
8.77449e-06
0.00019982
1.63572e-05
0.000192329
2.24221e-05
0.000182805
2.85777e-05
0.000171614
3.34803e-05
0.000158973
3.78783e-05
0.000145019
4.17997e-05
0.000130238
4.42963e-05
0.000114606
4.68557e-05
9.85621e-05
4.81269e-05
8.22192e-05
4.89614e-05
6.58341e-05
4.91132e-05
4.95531e-05
4.88092e-05
3.35296e-05
4.80415e-05
1.7867e-05
4.69624e-05
2.67609e-06
4.55536e-05
-1.21292e-05
4.44145e-05
-2.63719e-05
4.27186e-05
-4.00088e-05
4.09014e-05
-5.30575e-05
3.91377e-05
-6.54756e-05
3.72479e-05
-7.72282e-05
3.52537e-05
-8.83284e-05
3.3297e-05
-9.87367e-05
3.12243e-05
-0.00010847
2.91983e-05
-0.000117491
2.70648e-05
-0.000125781
2.48724e-05
-0.000133341
2.26814e-05
-0.000140146
2.04141e-05
-0.00014616
1.80442e-05
-0.000151392
1.56928e-05
-0.000155816
1.32727e-05
-0.000159428
1.08341e-05
-0.000162229
8.39355e-06
-0.000164201
5.90955e-06
-0.000165356
3.45873e-06
9.52545e-07
-4.92453e-05
-5.92638e-05
-3.31778e-05
-6.42327e-05
-1.61647e-05
-6.79108e-05
1.70186e-06
-7.14536e-05
2.03182e-05
-7.43623e-05
3.92532e-05
-7.55958e-05
5.86271e-05
-7.73216e-05
7.80142e-05
-7.73689e-05
9.71198e-05
-7.62299e-05
0.000115807
-7.45421e-05
0.000133771
-7.16855e-05
0.00015067
-6.74091e-05
0.000166213
-6.20281e-05
0.000180245
-5.59303e-05
0.000192439
-4.86808e-05
0.000202597
-4.05198e-05
0.000210486
-3.14575e-05
0.000215987
-2.19522e-05
0.000218972
-1.19499e-05
0.000219356
-1.65527e-06
0.000217164
8.5131e-06
0.00021248
1.8652e-05
0.000205208
2.90644e-05
0.000195735
3.778e-05
0.000184107
4.64142e-05
0.00017067
5.35938e-05
0.000155636
5.99608e-05
0.000139095
6.60442e-05
0.000121537
7.00959e-05
0.000103087
7.36744e-05
8.40136e-05
7.61891e-05
6.46638e-05
7.72307e-05
4.52481e-05
7.75233e-05
2.6027e-05
7.67595e-05
7.1209e-06
7.55082e-05
-1.125e-05
7.34117e-05
-2.8998e-05
7.09089e-05
-4.60132e-05
6.79919e-05
-6.21701e-05
6.45776e-05
-7.73963e-05
6.08639e-05
-9.16537e-05
5.69965e-05
-0.000104911
5.30201e-05
-0.000117169
4.90223e-05
-0.000128422
4.50021e-05
-0.000138672
4.09994e-05
-0.000147962
3.71661e-05
-0.000156301
3.33449e-05
-0.000163695
2.95878e-05
-0.000170224
2.60916e-05
-0.00017584
2.24723e-05
-0.000180617
1.90975e-05
-0.000184573
1.58025e-05
-0.000187683
1.24667e-05
-0.000190037
9.41525e-06
-0.000191601
6.25963e-06
-0.000192385
3.20778e-06
-0.000192396
1.3234e-07
-0.000191595
-3.18918e-06
-0.000189961
-6.5069e-06
-0.000187584
-9.52259e-06
-0.000184315
-1.30317e-05
-0.000180234
-1.64058e-05
-0.000175359
-1.95353e-05
-0.000169554
-2.32306e-05
-0.00016289
-2.66469e-05
-0.000155443
-2.97977e-05
-0.000146931
-3.40723e-05
-0.000137651
-3.70952e-05
-0.00012732
-4.1306e-05
-0.00011598
-4.53637e-05
-0.00010389
-4.84078e-05
-9.08612e-05
-5.20683e-05
-7.69802e-05
-5.55457e-05
-6.23943e-05
-5.83367e-05
-4.70064e-05
-6.15018e-05
-3.09424e-05
-6.42016e-05
-1.42549e-05
-6.668e-05
3.05559e-06
-6.91676e-05
2.07267e-05
-7.06448e-05
3.87913e-05
-7.21246e-05
5.70271e-05
-7.29595e-05
7.52307e-05
-7.26578e-05
9.34472e-05
-7.27654e-05
0.000111309
-7.13652e-05
0.00012887
-7.00173e-05
0.000145679
-6.71881e-05
0.000161557
-6.33218e-05
0.000176313
-5.88114e-05
0.00018947
-5.24782e-05
0.000200839
-4.52157e-05
0.000209986
-3.66084e-05
0.000216842
-2.73618e-05
0.000221242
-1.76089e-05
0.000223127
-7.5689e-06
0.000222453
2.5996e-06
0.000219173
1.2854e-05
0.000213451
2.27749e-05
0.000205355
3.21569e-05
0.00019504
4.11572e-05
0.000182667
4.92714e-05
0.000168432
5.67898e-05
0.000152548
6.32968e-05
0.000135279
6.88789e-05
0.000116931
7.33094e-05