/*--------------------------------*- C++ -*----------------------------------*\
| =========                 |                                                 |
| \\      /  F ield         | OpenFOAM: The Open Source CFD Toolbox           |
|  \\    /   O peration     | Version:  3.0.1                                 |
|   \\  /    A nd           | Web:      www.OpenFOAM.org                      |
|    \\/     M anipulation  |                                                 |
\*---------------------------------------------------------------------------*/
FoamFile
{
    version     2.0;
    format      ascii;
    class       volScalarField;
    location    "82.2";
    object      p_rgh;
}
// * * * * * * * * * * * * * * * * * * * * * * * * * * * * * * * * * * * * * //

dimensions      [1 -1 -2 0 0 0 0];

internalField   nonuniform List<scalar> 
21420
(
-39.0476
-68.0933
-96.5463
-123.851
-149.688
-173.92
-196.433
-217.191
-236.163
-253.357
-268.803
-282.534
-294.593
-305.03
-313.891
-321.217
-327.047
-331.416
-334.331
-335.777
-335.801
-334.425
-331.585
-327.271
-321.444
-314.069
-305.095
-294.467
-282.129
-268.029
-252.11
-234.336
-214.677
-193.124
-169.694
-144.402
-117.323
-88.5634
-58.2442
-26.5384
6.32411
39.6024
73.8541
108.301
142.633
176.446
209.329
240.909
270.769
298.501
323.751
346.174
365.463
381.353
393.616
402.083
406.656
407.182
403.801
396.441
385.177
370.205
351.717
329.985
305.296
277.979
248.416
216.991
184.107
150.182
115.629
80.8284
46.1936
12.3667
-20.9052
-53.1901
-84.2145
-113.779
-141.716
-167.901
-192.242
-214.671
-235.144
-253.647
-270.178
-284.739
-297.359
-308.076
-316.922
-323.955
-329.257
-332.871
-334.842
-335.288
-334.263
-331.806
-327.955
-322.736
-316.163
-308.235
-298.934
-288.237
-276.11
-262.511
-247.405
-230.765
-212.563
-192.781
-171.417
-148.487
-124.022
-98.0777
-70.7337
-42.0947
-12.3022
18.4971
50.07
82.1775
114.552
146.891
178.861
210.101
240.224
268.83
295.511
319.862
341.491
360.035
375.166
386.599
394.113
397.5
396.754
391.804
382.738
369.626
352.687
332.177
308.408
281.74
252.577
221.354
188.526
154.562
119.932
85.0897
50.4663
16.4622
-16.584
-48.3752
-78.6718
-107.29
-134.102
-159.025
-182.016
-203.068
-222.202
-239.457
-254.889
-268.566
-280.563
-290.957
-299.828
-307.25
-313.288
-318.001
-321.439
-323.638
-324.609
-324.345
-322.891
-320.214
-316.292
-311.102
-304.604
-296.762
-287.543
-276.897
-264.779
-251.148
-235.962
-219.185
-200.797
-180.791
-159.172
-135.961
-111.198
-84.9498
-57.3168
-28.4334
1.53474
32.3974
63.8698
95.6803
127.523
159.063
189.94
219.778
248.185
274.765
299.121
320.869
339.647
355.127
367.022
375.101
379.175
379.116
374.944
366.714
354.483
338.48
318.962
296.247
270.696
242.709
212.706
181.129
148.418
115.013
81.3363
47.7854
14.728
-17.5098
-48.6423
-78.4289
-106.679
-133.251
-158.048
-181.013
-202.125
-221.393
-238.846
-254.529
-268.491
-280.79
-291.479
-300.614
-308.255
-314.46
-319.291
-322.816
-325.109
-326.202
-326.119
-324.912
-322.583
-319.121
-314.516
-308.752
-301.809
-293.662
-284.292
-273.673
-261.772
-248.557
-233.995
-218.057
-200.714
-181.946
-161.743
-140.104
-117.049
-92.6185
-66.8738
-39.9133
-11.8755
17.0603
47.0109
77.2652
107.677
137.948
167.745
196.703
224.46
250.625
274.803
296.61
315.648
331.575
344.059
352.805
357.586
358.234
354.606
347.224
335.643
320.12
300.921
278.404
252.968
225.06
195.176
163.83
131.514
98.7211
65.8952
33.4446
1.75075
-28.5089
-57.344
-84.9984
-111.179
-135.725
-158.554
-179.63
-198.969
-216.618
-232.646
-247.139
-260.192
-271.901
-282.362
-291.659
-299.864
-307.033
-313.2
-318.381
-322.57
-325.743
-327.859
-328.827
-328.573
-327.023
-324.099
-319.692
-313.723
-306.128
-296.834
-285.781
-272.938
-258.283
-241.809
-223.544
-203.535
-181.849
-158.591
-133.876
-107.853
-80.7114
-52.6383
-23.68
5.58742
35.0507
64.4165
93.4194
121.796
149.228
175.4
200.035
222.823
243.502
261.818
277.557
290.545
300.611
307.596
-39.1145
-68.1666
-96.624
-123.932
-149.77
-174.002
-196.514
-217.271
-236.241
-253.431
-268.875
-282.603
-294.659
-305.094
-313.952
-321.277
-327.105
-331.473
-334.388
-335.832
-335.859
-334.482
-331.643
-327.331
-321.506
-314.134
-305.162
-294.537
-282.203
-268.105
-252.189
-234.417
-214.76
-193.209
-169.779
-144.487
-117.407
-88.6438
-58.3199
-26.6082
6.26031
39.5569
73.818
108.278
142.625
176.454
209.355
240.953
270.831
298.58
323.847
346.285
365.588
381.49
393.762
402.236
406.813
407.344
403.95
396.587
385.317
370.334
351.833
330.086
305.38
278.045
248.464
217.021
184.119
150.177
115.608
80.7936
46.1452
12.3079
-20.9732
-53.2656
-84.2959
-113.865
-141.805
-167.992
-192.334
-214.762
-235.235
-253.737
-270.266
-284.826
-297.445
-308.159
-317.003
-324.034
-329.334
-332.943
-334.911
-335.357
-334.33
-331.871
-328.02
-322.8
-316.228
-308.301
-299.002
-288.306
-276.181
-262.585
-247.481
-230.842
-212.642
-192.862
-171.499
-148.568
-124.103
-98.1573
-70.8105
-42.168
-12.3697
18.4355
50.0171
82.1344
114.52
146.873
178.858
210.114
240.254
268.878
295.578
319.947
341.593
360.154
375.298
386.743
394.265
397.662
396.907
391.955
382.883
369.761
352.808
332.283
308.495
281.808
252.625
221.381
188.533
154.55
119.902
85.043
50.4053
16.389
-16.6668
-48.4652
-78.7668
-107.388
-134.201
-159.124
-182.113
-203.163
-222.294
-239.545
-254.973
-268.647
-280.64
-291.03
-299.898
-307.317
-313.352
-318.063
-321.5
-323.698
-324.667
-324.404
-322.95
-320.274
-316.353
-311.164
-304.668
-296.828
-287.611
-276.967
-264.852
-251.223
-236.039
-219.264
-200.877
-180.872
-159.254
-136.042
-111.278
-85.0279
-57.3912
-28.5024
1.47249
32.3433
63.826
95.6484
127.505
159.059
189.952
219.807
248.232
274.83
299.204
320.968
339.762
355.257
367.163
375.25
379.335
379.269
375.095
366.859
354.619
338.602
319.069
296.336
270.767
242.76
212.738
181.141
148.413
114.991
81.2987
47.7343
14.6653
-17.5821
-48.7222
-78.5144
-106.769
-133.343
-158.14
-181.104
-202.215
-221.48
-238.93
-254.609
-268.569
-280.865
-291.551
-300.684
-308.322
-314.524
-319.353
-322.875
-325.166
-326.257
-326.172
-324.966
-322.637
-319.176
-314.572
-308.809
-301.867
-293.721
-284.353
-273.734
-261.836
-248.623
-234.062
-218.126
-200.784
-182.018
-161.815
-140.176
-117.121
-92.6886
-66.9411
-39.9763
-11.9321
17.0135
46.9663
77.2335
107.659
137.943
167.754
196.728
224.502
250.684
274.88
296.704
315.758
331.701
344.198
352.955
357.746
358.401
354.782
347.384
335.793
320.258
301.044
278.508
253.05
225.12
195.213
163.846
131.51
98.6986
65.8567
33.3926
1.68895
-28.5745
-57.417
-85.0755
-111.259
-135.806
-158.633
-179.707
-199.043
-216.688
-232.711
-247.2
-260.248
-271.952
-282.41
-291.703
-299.906
-307.073
-313.239
-318.421
-322.611
-325.785
-327.903
-328.874
-328.623
-327.078
-324.157
-319.753
-313.787
-306.196
-296.905
-285.854
-273.013
-258.359
-241.886
-223.62
-203.611
-181.923
-158.661
-133.942
-107.913
-80.7651
-52.684
-23.7183
5.55858
35.0322
64.4092
93.424
121.814
149.259
175.445
200.093
222.894
243.586
261.912
277.66
290.656
300.728
307.716
-39.2484
-68.3132
-96.7794
-124.093
-149.933
-174.166
-196.676
-217.429
-236.395
-253.581
-269.019
-282.741
-294.792
-305.222
-314.076
-321.396
-327.221
-331.586
-334.5
-335.943
-335.976
-334.597
-331.76
-327.451
-321.629
-314.262
-305.295
-294.677
-282.349
-268.257
-252.347
-234.58
-214.927
-193.379
-169.95
-144.658
-117.574
-88.8045
-58.4713
-26.7476
6.13408
39.4649
73.7459
108.232
142.609
176.471
209.406
241.04
270.955
298.739
324.04
346.509
365.839
381.764
394.054
402.542
407.123
407.669
404.251
396.88
385.596
370.593
352.066
330.288
305.548
278.179
248.562
217.082
184.144
150.169
115.569
80.7261
46.0518
12.1934
-21.1053
-53.4121
-84.4531
-114.03
-141.975
-168.165
-192.507
-214.935
-235.406
-253.905
-270.43
-284.985
-297.6
-308.309
-317.147
-324.173
-329.467
-333.068
-335.033
-335.476
-334.443
-331.982
-328.129
-322.909
-316.338
-308.413
-299.117
-288.426
-276.305
-262.712
-247.614
-230.979
-212.783
-193.005
-171.644
-148.714
-124.248
-98.299
-70.9469
-42.2973
-12.4878
18.329
49.9278
82.0645
114.473
146.852
178.867
210.155
240.33
268.99
295.727
320.132
341.814
360.406
375.578
387.044
394.582
398
397.225
392.273
383.187
370.045
353.066
332.509
308.686
281.96
252.736
221.452
188.564
154.543
119.859
84.9676
50.3016
16.2615
-16.8133
-48.6258
-78.9367
-107.564
-134.378
-159.3
-182.286
-203.331
-222.455
-239.7
-255.12
-268.786
-280.771
-291.154
-300.015
-307.428
-313.459
-318.165
-321.599
-323.796
-324.759
-324.501
-323.048
-320.373
-316.455
-311.269
-304.776
-296.941
-287.728
-277.089
-264.978
-251.354
-236.174
-219.403
-201.021
-181.018
-159.401
-136.189
-111.422
-85.1683
-57.5246
-28.6253
1.36301
32.2498
63.7531
95.5991
127.482
159.065
189.99
219.878
248.339
274.972
299.381
321.18
340.006
355.528
367.457
375.561
379.663
379.59
375.41
367.162
354.903
338.86
319.295
296.527
270.92
242.875
212.814
181.18
148.415
114.96
81.2375
47.6466
14.5548
-17.7116
-48.8666
-78.6695
-106.931
-133.509
-158.307
-181.269
-202.376
-221.636
-239.08
-254.753
-268.706
-280.996
-291.677
-300.804
-308.437
-314.633
-319.457
-322.975
-325.261
-326.347
-326.262
-325.057
-322.727
-319.267
-314.665
-308.905
-301.964
-293.821
-284.457
-273.842
-261.947
-248.738
-234.181
-218.248
-200.91
-182.146
-161.945
-140.307
-117.251
-92.8162
-67.0638
-40.0912
-12.0348
16.9295
46.8866
77.1788
107.63
137.94
167.78
196.785
224.592
250.807
275.038
296.895
315.982
331.956
344.48
353.259
358.068
358.736
355.133
347.702
336.095
320.536
301.29
278.716
253.215
225.24
195.289
163.878
131.501
98.6537
65.7797
33.289
1.56543
-28.7058
-57.563
-85.2297
-111.418
-135.966
-158.792
-179.861
-199.19
-216.827
-232.841
-247.32
-260.359
-272.055
-282.505
-291.792
-299.99
-307.154
-313.318
-318.5
-322.691
-325.869
-327.99
-328.967
-328.726
-327.189
-324.273
-319.876
-313.917
-306.332
-297.047
-286.001
-273.164
-258.512
-242.04
-223.774
-203.762
-182.07
-158.802
-134.074
-108.034
-80.8725
-52.7754
-23.7949
5.50093
34.9953
64.3946
93.4331
121.848
149.32
175.533
200.209
223.036
243.752
262.1
277.866
290.878
300.962
307.958
-39.4495
-68.5333
-97.0126
-124.335
-150.179
-174.412
-196.92
-217.668
-236.627
-253.805
-269.235
-282.949
-294.992
-305.414
-314.261
-321.576
-327.396
-331.755
-334.668
-336.112
-336.15
-334.769
-331.935
-327.63
-321.815
-314.455
-305.496
-294.886
-282.568
-268.486
-252.584
-234.825
-215.178
-193.634
-170.207
-144.913
-117.824
-89.0458
-58.6986
-26.9568
5.94519
39.3258
73.6373
108.162
142.584
176.496
209.483
241.171
271.14
298.978
324.329
346.844
366.215
382.175
394.493
403
407.589
408.152
404.708
397.321
386.016
370.981
352.414
330.591
305.802
278.38
248.708
217.174
184.183
150.157
115.509
80.6243
45.9122
12.0216
-21.3035
-53.6318
-84.6888
-114.278
-142.231
-168.424
-192.767
-215.194
-235.661
-254.155
-270.674
-285.223
-297.831
-308.531
-317.362
-324.38
-329.665
-333.252
-335.215
-335.651
-334.612
-332.147
-328.291
-323.07
-316.501
-308.579
-299.288
-288.602
-276.487
-262.902
-247.81
-231.182
-212.99
-193.217
-171.859
-148.93
-124.462
-98.5089
-71.1489
-42.4886
-12.6628
18.1719
49.7964
81.9624
114.405
146.824
178.882
210.219
240.446
269.161
295.953
320.414
342.148
360.788
376.001
387.501
395.061
398.503
397.714
392.756
383.648
370.475
353.456
332.851
308.974
282.191
252.907
221.562
188.614
154.536
119.797
84.8576
50.1491
16.0732
-17.03
-48.8636
-79.1887
-107.824
-134.641
-159.561
-182.542
-203.58
-222.695
-239.929
-255.338
-268.992
-280.966
-291.338
-300.189
-307.592
-313.615
-318.316
-321.745
-323.94
-324.896
-324.643
-323.191
-320.519
-316.605
-311.423
-304.936
-297.108
-287.901
-277.269
-265.166
-251.55
-236.376
-219.611
-201.234
-181.235
-159.619
-136.407
-111.637
-85.3766
-57.7223
-28.8075
1.20101
32.1118
63.646
95.5274
127.45
159.078
190.05
219.989
248.501
275.189
299.651
321.501
340.374
355.937
367.9
376.029
380.148
380.083
375.889
367.619
355.331
339.249
319.637
296.816
271.154
243.05
212.931
181.24
148.422
114.916
81.1481
47.5174
14.3913
-17.9035
-49.0808
-78.8999
-107.172
-133.756
-158.554
-181.514
-202.615
-221.868
-239.303
-254.966
-268.911
-281.192
-291.864
-300.983
-308.608
-314.795
-319.611
-323.123
-325.4
-326.479
-326.396
-325.19
-322.86
-319.403
-314.803
-309.046
-302.109
-293.97
-284.61
-274
-262.111
-248.907
-234.357
-218.429
-201.097
-182.337
-162.139
-140.502
-117.445
-93.006
-67.2464
-40.2623
-12.188
16.8039
46.7688
77.0977
107.587
137.935
167.819
196.87
224.727
250.991
275.275
297.182
316.318
332.338
344.902
353.714
358.551
359.239
355.659
348.186
336.551
320.953
301.66
279.027
253.463
225.421
195.402
163.926
131.488
98.586
65.6639
33.1319
1.38014
-28.9033
-57.7822
-85.4613
-111.658
-136.208
-159.03
-180.092
-199.411
-217.036
-233.036
-247.501
-260.526
-272.21
-282.648
-291.925
-300.116
-307.274
-313.437
-318.618
-322.813
-325.994
-328.121
-329.106
-328.882
-327.353
-324.446
-320.059
-314.111
-306.536
-297.259
-286.221
-273.39
-258.742
-242.271
-224.004
-203.989
-182.291
-159.013
-134.271
-108.215
-81.0339
-52.913
-23.9098
5.41437
34.9398
64.3725
93.4468
121.9
149.412
175.667
200.384
223.25
244.002
262.382
278.177
291.211
301.314
308.321
-39.7178
-68.827
-97.3238
-124.657
-150.507
-174.74
-197.244
-217.986
-236.936
-254.104
-269.523
-283.225
-295.258
-305.67
-314.507
-321.815
-327.628
-331.982
-334.891
-336.338
-336.381
-334.999
-332.168
-327.869
-322.062
-314.711
-305.764
-295.166
-282.861
-268.791
-252.9
-235.151
-215.513
-193.975
-170.549
-145.254
-118.158
-89.3678
-59.0019
-27.2359
5.69361
39.1391
73.4919
108.069
142.551
176.528
209.585
241.346
271.388
299.296
324.715
347.292
366.718
382.724
395.078
403.611
408.212
408.789
405.324
397.911
386.577
371.499
352.879
330.995
306.139
278.648
248.903
217.295
184.233
150.14
115.429
80.4879
45.7261
11.7919
-21.5684
-53.9251
-85.0035
-114.608
-142.571
-168.77
-193.114
-215.539
-236.002
-254.489
-270.999
-285.54
-298.139
-308.828
-317.649
-324.657
-329.928
-333.501
-335.457
-335.884
-334.837
-332.365
-328.505
-323.285
-316.718
-308.8
-299.515
-288.837
-276.73
-263.154
-248.072
-231.452
-213.267
-193.499
-172.145
-149.217
-124.748
-98.7885
-71.4181
-42.7431
-12.8964
17.9627
49.6215
81.8267
114.315
146.786
178.904
210.305
240.602
269.39
296.256
320.79
342.594
361.299
376.567
388.111
395.701
399.166
398.378
393.405
384.264
371.051
353.978
333.309
309.36
282.5
253.136
221.71
188.682
154.526
119.716
84.7112
49.946
15.8222
-17.3188
-49.1806
-79.5247
-108.17
-134.992
-159.909
-182.884
-203.911
-223.014
-240.234
-255.628
-269.267
-281.225
-291.582
-300.419
-307.81
-313.823
-318.516
-321.939
-324.129
-325.084
-324.832
-323.382
-320.714
-316.805
-311.629
-305.149
-297.33
-288.132
-277.509
-265.416
-251.809
-236.644
-219.887
-201.517
-181.523
-159.91
-136.697
-111.923
-85.654
-57.9858
-29.0506
0.985032
31.928
63.5035
95.4321
127.408
159.094
190.13
220.136
248.719
275.478
300.011
321.93
340.866
356.484
368.493
376.655
380.789
380.742
376.532
368.232
355.904
339.768
320.094
297.203
271.465
243.284
213.088
181.321
148.43
114.857
81.029
47.3452
14.1732
-18.1594
-49.3664
-79.2072
-107.494
-134.085
-158.884
-181.841
-202.934
-222.176
-239.599
-255.251
-269.182
-281.452
-292.113
-301.221
-308.835
-315.011
-319.815
-323.318
-325.585
-326.657
-326.573
-325.365
-323.037
-319.582
-314.987
-309.233
-302.301
-294.168
-284.814
-274.211
-262.329
-249.133
-234.59
-218.67
-201.345
-182.59
-162.396
-140.762
-117.703
-93.259
-67.4898
-40.4904
-12.3929
16.635
46.6127
76.9898
107.53
137.929
167.87
196.984
224.906
251.238
275.591
297.564
316.766
332.848
345.465
354.322
359.196
359.91
356.353
348.84
337.163
321.512
302.154
279.443
253.794
225.661
195.552
163.989
131.471
98.4952
65.5086
32.9222
1.13323
-29.1678
-58.0747
-85.7704
-111.977
-136.53
-159.348
-180.401
-199.706
-217.314
-233.296
-247.743
-260.75
-272.415
-282.838
-292.103
-300.283
-307.435
-313.594
-318.776
-322.974
-326.162
-328.296
-329.293
-329.087
-327.571
-324.677
-320.304
-314.369
-306.808
-297.543
-286.514
-273.691
-259.048
-242.58
-224.312
-204.292
-182.585
-159.294
-134.536
-108.457
-81.2495
-53.0975
-24.0626
5.2989
34.8657
64.343
93.4648
121.969
149.535
175.844
200.616
223.535
244.336
262.759
278.59
291.656
301.783
308.806
-40.0538
-69.1947
-97.7134
-125.061
-150.918
-175.151
-197.65
-218.383
-237.323
-254.477
-269.882
-283.571
-295.59
-305.99
-314.816
-322.113
-327.919
-332.265
-335.168
-336.621
-336.667
-335.285
-332.459
-328.168
-322.371
-315.032
-306.099
-295.516
-283.226
-269.171
-253.295
-235.558
-215.931
-194.401
-170.978
-145.681
-118.577
-89.7709
-59.3814
-27.5851
5.37974
38.9037
73.309
107.952
142.509
176.569
209.713
241.563
271.697
299.694
325.197
347.851
367.346
383.41
395.81
404.375
408.992
409.577
406.1
398.651
387.278
372.146
353.461
331.501
306.561
278.982
249.147
217.447
184.296
150.119
115.329
80.3165
45.4933
11.504
-21.9005
-54.2925
-85.3976
-115.022
-142.998
-169.203
-193.548
-215.97
-236.428
-254.908
-271.407
-285.937
-298.524
-309.2
-318.007
-325.002
-330.256
-333.814
-335.76
-336.174
-335.118
-332.638
-328.774
-323.553
-316.988
-309.076
-299.799
-289.131
-277.034
-263.469
-248.399
-231.789
-213.613
-193.853
-172.504
-149.577
-125.105
-99.1383
-71.7552
-43.0616
-13.1896
17.701
49.4024
81.6564
114.202
146.738
178.93
210.413
240.796
269.675
296.635
321.26
343.153
361.937
377.275
388.874
396.503
399.992
399.211
394.218
385.037
371.771
354.631
333.882
309.844
282.886
253.422
221.894
188.766
154.514
119.614
84.5274
49.6911
15.5076
-17.6808
-49.5778
-79.9454
-108.605
-135.43
-160.345
-183.311
-204.326
-223.413
-240.616
-255.991
-269.61
-281.549
-291.887
-300.707
-308.084
-314.083
-318.766
-322.181
-324.364
-325.318
-325.068
-323.62
-320.957
-317.055
-311.886
-305.416
-297.607
-288.42
-277.81
-265.729
-252.134
-236.98
-220.233
-201.871
-181.883
-160.274
-137.061
-112.281
-86.0014
-58.3159
-29.3555
0.714277
31.6976
63.3249
95.3124
127.354
159.114
190.229
220.32
248.991
275.84
300.462
322.466
341.481
357.169
369.235
377.439
381.594
381.561
377.339
368.999
356.621
340.419
320.665
297.686
271.854
243.576
213.283
181.421
148.44
114.783
80.8792
47.1292
13.8998
-18.48
-49.7243
-79.5922
-107.896
-134.497
-159.298
-182.249
-203.333
-222.562
-239.971
-255.606
-269.522
-281.777
-292.424
-301.519
-309.119
-315.281
-320.072
-323.562
-325.815
-326.88
-326.794
-325.585
-323.258
-319.808
-315.216
-309.467
-302.541
-294.415
-285.069
-274.475
-262.601
-249.415
-234.883
-218.972
-201.655
-182.908
-162.719
-141.086
-118.027
-93.5758
-67.7945
-40.7763
-12.6504
16.4218
46.4184
76.8548
107.458
137.921
167.934
197.125
225.13
251.545
275.985
298.043
317.327
333.485
346.169
355.083
360.001
360.748
357.213
349.662
337.93
322.212
302.772
279.964
254.207
225.962
195.74
164.068
131.448
98.3809
65.3134
32.6585
0.824664
-29.5
-58.4405
-86.1573
-112.378
-136.933
-159.745
-180.786
-200.074
-217.662
-233.621
-248.045
-261.028
-272.673
-283.076
-292.324
-300.492
-307.636
-313.791
-318.973
-323.175
-326.371
-328.514
-329.528
-329.343
-327.843
-324.966
-320.61
-314.693
-307.148
-297.898
-286.882
-274.068
-259.432
-242.966
-224.696
-204.67
-182.954
-159.647
-134.866
-108.76
-81.5197
-53.3294
-24.2534
5.15435
34.7728
64.3059
93.4871
122.054
149.687
176.066
200.906
223.892
244.753
263.23
279.108
292.212
302.369
309.413
-40.4577
-69.6368
-98.1816
-125.547
-151.411
-175.644
-198.138
-218.861
-237.787
-254.926
-270.314
-283.986
-295.989
-306.373
-315.186
-322.472
-328.267
-332.605
-335.502
-336.96
-337.008
-335.628
-332.808
-328.526
-322.741
-315.417
-306.5
-295.935
-283.665
-269.628
-253.77
-236.048
-216.434
-194.912
-171.493
-146.194
-119.08
-90.2556
-59.8374
-28.0046
5.00414
38.618
73.0882
107.81
142.458
176.616
209.865
241.824
272.068
300.172
325.776
348.523
368.1
384.234
396.689
405.292
409.929
410.521
407.032
399.543
388.12
372.924
354.159
332.107
307.068
279.383
249.438
217.629
184.37
150.093
115.207
80.1096
45.213
11.1577
-22.3
-54.7342
-85.8714
-115.52
-143.51
-169.724
-194.07
-216.489
-236.94
-255.41
-271.897
-286.414
-298.987
-309.646
-318.438
-325.416
-330.65
-334.192
-336.123
-336.523
-335.454
-332.966
-329.097
-323.875
-317.314
-309.407
-300.14
-289.483
-277.399
-263.848
-248.791
-232.194
-214.029
-194.277
-172.934
-150.009
-125.534
-99.5589
-72.1607
-43.4447
-13.543
17.386
49.1385
81.4511
114.065
146.68
178.96
210.54
241.029
270.017
297.089
321.825
343.823
362.705
378.126
389.792
397.467
400.978
400.209
395.194
385.966
372.637
355.416
334.57
310.424
283.35
253.765
222.115
188.865
154.498
119.49
84.3054
49.3839
15.1285
-18.1169
-50.0558
-80.4517
-109.127
-135.958
-160.869
-183.825
-204.825
-223.893
-241.074
-256.427
-270.023
-281.939
-292.254
-301.054
-308.412
-314.396
-319.066
-322.472
-324.647
-325.601
-325.351
-323.907
-321.25
-317.355
-312.195
-305.736
-297.94
-288.767
-278.171
-266.104
-252.524
-237.384
-220.649
-202.297
-182.317
-160.711
-137.498
-112.712
-86.4195
-58.7128
-29.7225
0.38792
31.42
63.1096
95.1678
127.289
159.137
190.348
220.54
249.317
276.274
301.003
323.11
342.22
357.991
370.127
378.381
382.564
382.543
378.307
369.922
357.482
341.2
321.352
298.267
272.322
243.927
213.516
181.54
148.451
114.694
80.6982
46.8686
13.5705
-18.8663
-50.1551
-80.0554
-108.381
-134.992
-159.795
-182.741
-203.813
-223.026
-240.417
-256.033
-269.93
-282.167
-292.798
-301.877
-309.461
-315.605
-320.379
-323.854
-326.093
-327.149
-327.059
-325.849
-323.524
-320.078
-315.491
-309.749
-302.83
-294.712
-285.376
-274.792
-262.929
-249.755
-235.234
-219.335
-202.028
-183.289
-163.106
-141.476
-118.415
-93.9567
-68.1609
-41.1205
-12.9611
16.1621
46.1869
76.6927
107.37
137.911
168.01
197.295
225.398
251.914
276.458
298.617
318.001
334.25
347.014
355.997
360.969
361.754
358.252
350.649
338.852
323.054
303.515
280.589
254.703
226.322
195.964
164.161
131.42
98.2424
65.0776
32.3393
0.454111
-29.9008
-58.8796
-86.6225
-112.858
-137.417
-160.223
-181.249
-200.517
-218.08
-234.012
-248.407
-261.363
-272.981
-283.361
-292.59
-300.743
-307.877
-314.027
-319.209
-323.416
-326.621
-328.778
-329.81
-329.648
-328.169
-325.312
-320.978
-315.081
-307.556
-298.324
-287.323
-274.521
-259.892
-243.429
-225.158
-205.126
-183.396
-160.07
-135.264
-109.125
-81.845
-53.6087
-24.4824
4.98047
34.6609
64.2609
93.5134
122.157
149.87
176.332
201.255
224.319
245.253
263.796
279.73
292.88
303.074
310.142
-40.9302
-70.1535
-98.7288
-126.114
-151.987
-176.22
-198.707
-219.418
-238.329
-255.45
-270.819
-284.471
-296.454
-306.82
-315.617
-322.889
-328.674
-333.002
-335.894
-337.354
-337.405
-336.027
-333.214
-328.944
-323.174
-315.866
-306.969
-296.425
-284.176
-270.162
-254.323
-236.62
-217.021
-195.51
-172.095
-146.793
-119.667
-90.822
-60.3706
-28.4946
4.56705
38.2806
72.8287
107.643
142.396
176.671
210.042
242.128
272.501
300.73
326.452
349.308
368.98
385.196
397.716
406.364
411.025
411.623
408.119
400.585
389.104
373.833
354.974
332.816
307.659
279.851
249.778
217.839
184.457
150.061
115.064
79.8666
44.8848
10.7524
-22.7676
-55.2508
-86.4255
-116.101
-144.109
-170.332
-194.679
-217.094
-237.537
-255.996
-272.469
-286.971
-299.527
-310.168
-318.94
-325.899
-331.111
-334.633
-336.547
-336.93
-335.847
-333.348
-329.474
-324.251
-317.693
-309.794
-300.538
-289.894
-277.825
-264.291
-249.25
-232.668
-214.515
-194.773
-173.437
-150.514
-126.036
-100.051
-72.6351
-43.893
-13.9567
17.017
48.8295
81.2101
113.904
146.61
178.994
210.688
241.299
270.416
297.618
322.484
344.606
363.601
379.12
390.864
398.593
402.132
401.374
396.334
387.052
373.649
356.332
335.373
311.101
283.892
254.165
222.371
188.981
154.478
119.343
84.0444
49.0235
14.6842
-18.6278
-50.6156
-81.0444
-109.738
-136.575
-161.481
-184.425
-205.408
-224.454
-241.61
-256.936
-270.505
-282.393
-292.682
-301.458
-308.795
-314.76
-319.416
-322.811
-324.977
-325.93
-325.682
-324.241
-321.591
-317.705
-312.556
-306.111
-298.329
-289.171
-278.592
-266.543
-252.98
-237.856
-221.135
-202.795
-182.823
-161.222
-138.009
-113.216
-86.9087
-59.1775
-30.1522
0.00518308
31.0945
62.857
94.9977
127.212
159.162
190.485
220.796
249.697
276.779
301.634
323.861
343.082
358.952
371.168
379.482
383.699
383.69
379.437
371.001
358.488
342.113
322.153
298.944
272.866
244.335
213.788
181.679
148.463
114.587
80.4852
46.5628
13.1842
-19.3188
-50.6595
-80.5976
-108.948
-135.572
-160.376
-183.315
-204.374
-223.569
-240.937
-256.532
-270.407
-282.624
-293.235
-302.295
-309.86
-315.984
-320.739
-324.194
-326.417
-327.463
-327.368
-326.157
-323.835
-320.392
-315.812
-310.078
-303.167
-295.059
-285.734
-275.161
-263.311
-250.151
-235.644
-219.758
-202.463
-183.735
-163.559
-141.932
-118.869
-94.4021
-68.5895
-41.5233
-13.3255
15.8511
45.9216
76.5036
107.266
137.898
168.097
197.492
225.709
252.345
277.009
299.287
318.787
335.143
348
357.063
362.099
362.928
359.471
351.798
339.929
324.038
304.382
281.319
255.281
226.741
196.225
164.268
131.385
98.0792
64.8003
31.9661
0.0201489
-30.3703
-59.3921
-87.1665
-113.421
-137.984
-160.781
-181.791
-201.034
-218.568
-234.468
-248.83
-261.753
-273.34
-283.693
-292.899
-301.035
-308.157
-314.301
-319.484
-323.697
-326.913
-329.085
-330.139
-330.004
-328.548
-325.716
-321.406
-315.534
-308.033
-298.821
-287.838
-275.049
-260.43
-243.97
-225.697
-205.657
-183.914
-160.565
-135.728
-109.551
-82.2259
-53.9356
-24.7501
4.7769
34.5296
64.2077
93.5433
122.275
150.083
176.642
201.662
224.819
245.838
264.456
280.456
293.66
303.897
310.994
-41.4717
-70.7455
-99.3555
-126.763
-152.646
-176.88
-199.358
-220.056
-238.949
-256.049
-271.395
-285.024
-296.986
-307.332
-316.11
-323.367
-329.139
-333.457
-336.341
-337.802
-337.856
-336.483
-333.679
-329.421
-323.667
-316.38
-307.505
-296.984
-284.761
-270.772
-254.957
-237.274
-217.693
-196.194
-172.784
-147.479
-120.34
-91.4708
-60.9814
-29.0555
4.06821
37.8903
72.5296
107.45
142.325
176.732
210.243
242.475
272.994
301.367
327.225
350.205
369.988
386.297
398.89
407.59
412.28
412.884
409.362
401.779
390.231
374.872
355.907
333.626
308.335
280.386
250.165
218.079
184.554
150.023
114.898
79.5869
44.508
10.2878
-23.3037
-55.8428
-87.0604
-116.767
-144.795
-171.028
-195.377
-217.787
-238.221
-256.667
-273.123
-287.607
-300.145
-310.765
-319.515
-326.451
-331.638
-335.138
-337.031
-337.395
-336.296
-333.785
-329.904
-324.681
-318.126
-310.236
-300.992
-290.364
-278.313
-264.797
-249.775
-233.209
-215.071
-195.341
-174.012
-151.093
-126.61
-100.614
-73.1786
-44.4071
-14.4313
16.593
48.4747
80.9326
113.717
146.529
179.031
210.855
241.607
270.87
298.223
323.237
345.501
364.626
380.257
392.091
399.884
403.453
402.706
397.638
388.296
374.807
357.381
336.292
311.875
284.51
254.621
222.663
189.111
154.453
119.173
83.7436
48.6088
14.1733
-19.2143
-51.2579
-81.7241
-110.438
-137.281
-162.183
-185.113
-206.074
-225.095
-242.223
-257.519
-271.056
-282.913
-293.172
-301.92
-309.232
-315.177
-319.817
-323.199
-325.356
-326.308
-326.059
-324.623
-321.981
-318.106
-312.97
-306.54
-298.774
-289.634
-279.074
-267.045
-253.501
-238.396
-221.692
-203.365
-183.403
-161.808
-138.594
-113.794
-87.4694
-59.7105
-30.6452
-0.434795
30.7209
62.5663
94.8014
127.122
159.19
190.64
221.087
250.13
277.357
302.355
324.72
344.069
360.051
372.36
380.743
385
385.004
380.73
372.236
359.641
343.157
323.07
299.718
273.489
244.801
214.097
181.835
148.474
114.464
80.2394
46.2112
12.7402
-19.8383
-51.2382
-81.2194
-109.598
-136.236
-161.042
-183.973
-205.016
-224.189
-241.534
-257.102
-270.952
-283.145
-293.735
-302.773
-310.316
-316.418
-321.15
-324.583
-326.788
-327.822
-327.72
-326.509
-324.19
-320.753
-316.18
-310.454
-303.553
-295.456
-286.143
-275.584
-263.749
-250.604
-236.113
-220.242
-202.961
-184.244
-164.077
-142.454
-119.389
-94.9124
-69.0806
-41.9849
-13.7442
15.4882
45.6218
76.2869
107.145
137.883
168.196
197.717
226.064
252.836
277.639
300.053
319.686
336.164
349.129
358.284
363.392
364.269
360.842
353.11
341.162
325.165
305.375
282.154
255.942
227.219
196.521
164.389
131.343
97.8904
64.4809
31.5384
-0.480632
-30.9076
-59.9778
-87.7896
-114.065
-138.632
-161.421
-182.41
-201.625
-219.125
-234.989
-249.313
-262.198
-273.751
-284.072
-293.252
-301.368
-308.476
-314.615
-319.798
-324.018
-327.247
-329.436
-330.516
-330.41
-328.981
-326.177
-321.896
-316.053
-308.577
-299.39
-288.427
-275.654
-261.045
-244.589
-226.315
-206.266
-184.506
-161.132
-136.26
-110.038
-82.6624
-54.31
-25.057
4.54323
34.3787
64.1461
93.5766
122.41
150.326
176.995
202.126
225.389
246.506
265.212
281.286
294.553
304.838
311.97
-42.0828
-71.4134
-100.062
-127.495
-153.389
-177.622
-200.092
-220.774
-239.646
-256.722
-272.043
-285.647
-297.583
-307.907
-316.665
-323.903
-329.661
-333.968
-336.845
-338.306
-338.363
-336.995
-334.201
-329.957
-324.222
-316.957
-308.107
-297.613
-285.419
-271.458
-255.67
-238.011
-218.449
-196.964
-173.561
-148.252
-121.099
-92.2025
-61.6704
-29.6877
3.50673
37.4466
72.1902
107.231
142.242
176.799
210.468
242.864
273.549
302.084
328.094
351.216
371.123
387.537
400.213
408.972
413.693
414.304
410.76
403.124
391.501
376.042
356.957
334.538
309.096
280.987
250.6
218.348
184.662
149.979
114.71
79.2696
44.0818
9.76302
-23.909
-56.5109
-87.7768
-117.518
-145.568
-171.812
-196.163
-218.567
-238.99
-257.423
-273.86
-288.324
-300.84
-311.437
-320.163
-327.073
-332.233
-335.707
-337.576
-337.917
-336.8
-334.277
-330.388
-325.164
-318.613
-310.732
-301.503
-290.893
-278.862
-265.368
-250.365
-233.819
-215.698
-195.981
-174.661
-151.745
-127.258
-101.249
-73.7919
-44.9875
-14.9673
16.1132
48.0738
80.6181
113.505
146.435
179.071
211.042
241.951
271.381
298.902
324.085
346.509
365.78
381.54
393.475
401.339
404.948
404.208
399.107
389.698
376.112
358.562
337.328
312.747
285.205
255.133
222.99
189.257
154.423
118.98
83.4022
48.1385
13.5952
-19.8776
-51.9838
-82.4918
-111.229
-138.079
-162.974
-185.888
-206.826
-225.818
-242.914
-258.175
-271.677
-283.499
-293.724
-302.44
-309.725
-315.646
-320.268
-323.635
-325.783
-326.733
-326.484
-325.052
-322.42
-318.557
-313.435
-307.022
-299.275
-290.155
-279.617
-267.61
-254.088
-239.004
-222.319
-204.007
-184.057
-162.467
-139.254
-114.445
-88.1024
-60.3123
-31.2023
-0.932476
30.298
62.237
94.5781
127.019
159.219
190.813
221.414
250.616
278.006
303.166
325.687
345.181
361.289
373.703
382.164
386.468
386.485
382.186
373.63
360.939
344.334
324.102
300.589
274.188
245.324
214.444
182.01
148.484
114.322
79.9599
45.8128
12.2379
-20.4256
-51.8921
-81.9217