/*--------------------------------*- C++ -*----------------------------------*\
| =========                 |                                                 |
| \\      /  F ield         | OpenFOAM: The Open Source CFD Toolbox           |
|  \\    /   O peration     | Version:  3.0.1                                 |
|   \\  /    A nd           | Web:      www.OpenFOAM.org                      |
|    \\/     M anipulation  |                                                 |
\*---------------------------------------------------------------------------*/
FoamFile
{
    version     2.0;
    format      ascii;
    class       surfaceScalarField;
    location    "20.2";
    object      alphaPhi;
}
// * * * * * * * * * * * * * * * * * * * * * * * * * * * * * * * * * * * * * //

dimensions      [0 3 -1 0 0 0 0];

internalField   nonuniform List<scalar> 
42423
(
-3.57403e-05
1.6196e-05
-5.10709e-05
1.53307e-05
-6.5634e-05
1.45631e-05
-7.93488e-05
1.37147e-05
-9.21202e-05
1.27714e-05
-0.000104
1.188e-05
-0.000114932
1.09321e-05
-0.000124975
1.00426e-05
-0.000134124
9.14868e-06
-0.000142378
8.25431e-06
-0.000149796
7.41841e-06
-0.000156399
6.60289e-06
-0.000162221
5.82193e-06
-0.000167289
5.0679e-06
-0.000171609
4.32002e-06
-0.000175227
3.61832e-06
-0.000178159
2.93198e-06
-0.000180377
2.21733e-06
-0.000181913
1.53601e-06
-0.000182824
9.11379e-07
-0.000183041
2.16843e-07
-0.000182477
-5.64428e-07
-0.00018118
-1.29692e-06
-0.00017911
-2.06956e-06
-0.000176309
-2.80115e-06
-0.00017267
-3.63929e-06
-0.000168184
-4.48546e-06
-0.000162921
-5.26322e-06
-0.000156634
-6.28737e-06
-0.000149474
-7.1594e-06
-0.000141449
-8.02502e-06
-0.000132355
-9.0943e-06
-0.000122254
-1.01009e-05
-0.000111135
-1.11189e-05
-9.89612e-05
-1.21741e-05
-8.58791e-05
-1.30822e-05
-7.16935e-05
-1.41856e-05
-5.6521e-05
-1.51725e-05
-4.05339e-05
-1.59872e-05
-2.35971e-05
-1.69369e-05
-5.8822e-06
-1.77149e-05
1.25187e-05
-1.84009e-05
3.14148e-05
-1.88962e-05
5.04548e-05
-1.90401e-05
6.95994e-05
-1.91447e-05
8.86249e-05
-1.90255e-05
0.000107132
-1.85072e-05
0.000125027
-1.78952e-05
0.000142081
-1.7054e-05
0.000157846
-1.57648e-05
0.000172286
-1.44405e-05
0.00018508
-1.27937e-05
0.000196076
-1.09964e-05
0.000205131
-9.05484e-06
0.000211986
-6.85469e-06
0.000216621
-4.63504e-06
0.000218908
-2.2872e-06
0.000218631
2.76663e-07
0.000215984
2.64687e-06
0.000210963
5.02154e-06
0.000203767
7.19537e-06
0.000194477
9.2901e-06
0.000183237
1.12403e-05
0.000170212
1.30248e-05
0.000155694
1.45184e-05
0.000139772
1.59214e-05
0.000122795
1.69771e-05
0.000105017
1.77779e-05
8.6693e-05
1.83244e-05
6.79883e-05
1.87047e-05
4.9226e-05
1.87623e-05
3.04734e-05
1.87527e-05
1.1916e-05
1.85573e-05
-6.1329e-06
1.80489e-05
-2.36427e-05
1.75098e-05
-4.0443e-05
1.68002e-05
-5.64199e-05
1.5977e-05
-7.1636e-05
1.52161e-05
-8.58675e-05
1.42315e-05
-9.91509e-05
1.32834e-05
-0.000111482
1.23314e-05
-0.000122734
1.12516e-05
-0.000133014
1.02799e-05
-0.000142276
9.26206e-06
-0.000150442
8.1658e-06
-0.000157694
7.25172e-06
-0.000163989
6.29552e-06
-0.000169241
5.25233e-06
-0.000173582
4.3405e-06
-0.000176971
3.38909e-06
-0.000179532
2.56095e-06
-0.000181382
1.85034e-06
-0.000182391
1.00885e-06
-0.000182638
2.47109e-07
-0.000182179
-4.59298e-07
-0.00018099
-1.18913e-06
-0.00017927
-1.72029e-06
-0.000176971
-2.29889e-06
-0.000173941
-3.02982e-06
-0.000170362
-3.57873e-06
-0.000166393
-3.96889e-06
-0.000161481
-4.91222e-06
-0.000155916
-5.5649e-06
-0.00014964
-6.27617e-06
-0.000142488
-7.15172e-06
-0.00013456
-7.92811e-06
-0.00012576
-8.80078e-06
-0.000116092
-9.66795e-06
-0.000105517
-1.0575e-05
-9.40472e-05
-1.14697e-05
-8.16545e-05
-1.23928e-05
-6.83253e-05
-1.33293e-05
-5.41004e-05
-1.4225e-05
-3.90515e-05
-1.50489e-05
-2.3201e-05
-1.58506e-05
-6.62553e-06
-1.65755e-05
1.05649e-05
-1.71905e-05
2.82652e-05
-1.77004e-05
4.63219e-05
-1.80568e-05
6.45854e-05
-1.82636e-05
8.28294e-05
-1.8244e-05
0.000100837
-1.80078e-05
0.000118374
-1.75366e-05
0.000135184
-1.68103e-05
0.000150997
-1.58136e-05
0.000165482
-1.44846e-05
0.000178416
-1.29347e-05
0.000189555
-1.1139e-05
0.000198635
-9.07946e-06
0.000205518
-6.88349e-06
0.000210042
-4.52375e-06
0.000212123
-2.08125e-06
0.00021176
3.62759e-07
0.000208926
2.83439e-06
0.000203658
5.26722e-06
0.000196114
7.54429e-06
0.000186431
9.68265e-06
0.00017479
1.16412e-05
0.000161417
1.33728e-05
0.00014656
1.48569e-05
0.000130481
1.60793e-05
0.000113384
1.70975e-05
9.55455e-05
1.7838e-05
7.72168e-05
1.83287e-05
5.86685e-05
1.85483e-05
4.01354e-05
1.85331e-05
2.18991e-05
1.82363e-05
4.01315e-06
1.78859e-05
-1.33952e-05
1.74084e-05
-3.00179e-05
1.66226e-05
-4.5911e-05
1.58931e-05
-6.08425e-05
1.49315e-05
-7.49231e-05
1.40807e-05
-8.79064e-05
1.29833e-05
-9.97481e-05
1.18417e-05
-0.000110671
1.09232e-05
-0.00012051
9.83873e-06
-0.00012933
8.82018e-06
-0.000137271
7.94067e-06
-0.000144219
6.94818e-06
-0.000150381
6.16208e-06
-0.000155676
5.29525e-06
-0.000160228
4.55185e-06
-0.000163984
3.75586e-06
-0.00016704
3.05558e-06
-0.00016943
2.39009e-06
-0.000171171
1.74129e-06
-0.000172217
1.04576e-06
-0.000172644
4.27302e-07
-0.000172492
-1.52338e-07
-0.000171671
-8.2128e-07
-0.000170124
-1.54671e-06
-0.000168073
-2.05123e-06
-0.000165384
-2.68853e-06
-0.000161918
-3.46657e-06
-0.000157892
-4.02556e-06
-0.000152845
-5.04667e-06
-0.00014702
-5.8257e-06
-0.000140583
-6.43627e-06
-0.000133239
-7.3449e-06
-0.000124981
-8.2576e-06
-0.00011592
-9.0605e-06
-0.000105861
-1.00597e-05
-9.48909e-05
-1.097e-05
-8.28821e-05
-1.20088e-05
-6.9861e-05
-1.30212e-05
-5.58839e-05
-1.39771e-05
-4.10348e-05
-1.48492e-05
-2.52778e-05
-1.5757e-05
-8.7458e-06
-1.65321e-05
8.49662e-06
-1.72425e-05
2.62986e-05
-1.7802e-05
4.45093e-05
-1.82108e-05
6.2949e-05
-1.84398e-05
8.14129e-05
-1.8464e-05
9.96745e-05
-1.82616e-05
0.00011752
-1.78457e-05
0.000134643
-1.71232e-05
0.000150823
-1.61795e-05
0.000165795
-1.49723e-05
0.000179302
-1.35075e-05
0.000191108
-1.18054e-05
0.000201006
-9.89865e-06
0.000208771
-7.76512e-06
0.000214288
-5.51647e-06
0.000217455
-3.16775e-06
0.00021818
-7.24296e-07
0.000216502
1.67732e-06
0.000212376
4.12622e-06
0.000205945
6.43102e-06
0.0001973
8.64518e-06
0.000186646
1.06535e-05
0.000174203
1.24429e-05
0.000160179
1.40248e-05
0.000144763
1.54154e-05
0.000128254
1.65095e-05
0.000110936
1.73176e-05
9.2965e-05
1.7971e-05
7.45971e-05
1.83679e-05
5.61396e-05
1.84575e-05
3.76689e-05
1.84706e-05
1.95033e-05
1.81656e-05
1.73444e-06
1.77689e-05
-1.5392e-05
1.71264e-05
-3.16017e-05
1.62097e-05
-4.7022e-05
1.54203e-05
-6.14789e-05
1.44569e-05
-7.49372e-05
1.34583e-05
-8.73475e-05
1.24103e-05
-9.8547e-05
1.11995e-05
-0.000108754
1.02071e-05
-0.000117845
9.09053e-06
-0.000125788
7.94338e-06
-0.000132679
6.89068e-06
-0.000138578
5.89929e-06
-0.000143578
5.00008e-06
-0.000147622
4.04388e-06
-0.000150826
3.20381e-06
-0.000153255
2.42932e-06
-0.000154949
1.69343e-06
-0.000155962
1.01373e-06
-0.000156382
4.19266e-07
-0.000156245
-1.36347e-07
-0.000155633
-6.12698e-07
-0.000154404
-1.22824e-06
-0.00015275
-1.65483e-06
-0.000150386
-2.36364e-06
-0.000147553
-2.83289e-06
-0.000144274
-3.27939e-06
-0.000140344
-3.9297e-06
-0.000135756
-4.5877e-06
-0.000130503
-5.25343e-06
-0.000124704
-5.79852e-06
-0.000118145
-6.55881e-06
-0.000110612
-7.53386e-06
-0.000102235
-8.37617e-06
-9.29855e-05
-9.24999e-06
-8.27158e-05
-1.02698e-05
-7.1466e-05
-1.12498e-05
-5.92339e-05
-1.22321e-05
-4.59946e-05
-1.32393e-05
-3.17566e-05
-1.4238e-05
-1.65602e-05
-1.51965e-05
-4.93563e-07
-1.60667e-05
1.63566e-05
-1.68502e-05
3.38604e-05
-1.75038e-05
5.188e-05
-1.80197e-05
7.02277e-05
-1.83478e-05
8.86686e-05
-1.84409e-05
0.000106952
-1.82831e-05
0.000124903
-1.79515e-05
0.00014217
-1.72668e-05
0.000158479
-1.63092e-05
0.000173629
-1.51499e-05
0.00018737
-1.37413e-05
0.000199408
-1.20379e-05
0.000209647
-1.02387e-05
0.000217865
-8.21833e-06
0.000223885
-6.02023e-06
0.000227736
-3.85109e-06
0.000229256
-1.52013e-06
0.000228591
6.65223e-07
0.000225699
2.89119e-06
0.000220503
5.19655e-06
0.00021323
7.27319e-06
0.000203974
9.25538e-06
0.000192884
1.10904e-05
0.000180237
1.26463e-05
0.00016622
1.40171e-05
0.000151006
1.52146e-05
0.000134745
1.62608e-05
0.000117807
1.69383e-05
0.000100376
1.74305e-05
8.26043e-05
1.77718e-05
6.47412e-05
1.7863e-05
4.69881e-05
1.77531e-05
2.94449e-05
1.75431e-05
1.23301e-05
1.71149e-05
-4.17008e-06
1.65001e-05
-2.0092e-05
1.59219e-05
-3.52572e-05
1.51652e-05
-4.96369e-05
1.43797e-05
-6.3114e-05
1.34771e-05
-7.56415e-05
1.25274e-05
-8.72222e-05
1.15807e-05
-9.7792e-05
1.05698e-05
-0.000107325
9.53248e-06
-0.000115845
8.52028e-06
-0.00012334
7.49518e-06
-0.000129842
6.50168e-06
-0.000135372
5.53013e-06
-0.000139931
4.55962e-06
-0.000143558
3.62664e-06
-0.000146297
2.73889e-06
-0.000148217
1.92057e-06
-0.000149367
1.1494e-06
-0.000149765
3.98298e-07
-0.000149355
-4.10384e-07
-0.000148228
-1.12653e-06
-0.00014642
-1.80863e-06
-0.000143971
-2.44901e-06
-0.00014087
-3.10069e-06
-0.000137064
-3.80607e-06
-0.000132681
-4.38252e-06
-0.000127606
-5.07583e-06
-0.000121902
-5.70361e-06
-0.000115598
-6.30355e-06
-0.000108556
-7.04284e-06
-0.000100843
-7.71239e-06
-9.25151e-05
-8.32813e-06
-8.34684e-05
-9.04673e-06
-7.35711e-05
-9.89725e-06
-6.30511e-05
-1.052e-05
-5.17658e-05
-1.12854e-05
-3.98454e-05
-1.19203e-05
-2.71438e-05
-1.27017e-05
-1.37008e-05
-1.3443e-05
2.38807e-07
-1.39396e-05
1.4848e-05
-1.46092e-05
3.00006e-05
-1.51527e-05
4.55036e-05
-1.5503e-05
6.14955e-05
-1.5992e-05
7.76986e-05
-1.62031e-05
9.40992e-05
-1.64006e-05
0.000110459
-1.63599e-05
0.000126503
-1.60441e-05
0.000142192
-1.56893e-05
0.000157279
-1.50869e-05
0.000171503
-1.42241e-05
0.000184732
-1.32288e-05
0.000196723
-1.19911e-05
0.000207216
-1.04932e-05
0.000215974
-8.75814e-06
0.000222776
-6.80158e-06
0.000227422
-4.64652e-06
0.000229816
-2.39352e-06
-1.21871e-07
-3.5772e-05
3.23949e-05
-5.11047e-05
3.06634e-05
-6.56705e-05
2.9129e-05
-7.93886e-05
2.74328e-05
-9.21624e-05
2.55451e-05
-0.000104043
2.37607e-05
-0.000114977
2.18657e-05
-0.000125021
2.00865e-05
-0.000134171
1.82987e-05
-0.000142429
1.65123e-05
-0.000149847
1.48365e-05
-0.000156449
1.32057e-05
-0.000162273
1.16452e-05
-0.000167342
1.01367e-05
-0.000171661
8.63923e-06
-0.000175279
7.23627e-06
-0.000178218
5.87166e-06
-0.000180443
4.44176e-06
-0.000181974
3.06717e-06
-0.000182877
1.81478e-06
-0.000183094
4.32872e-07
-0.000182531
-1.12671e-06
-0.000181234
-2.59386e-06
-0.000179165
-4.13848e-06
-0.000176364
-5.60223e-06
-0.000172721
-7.28246e-06
-0.000168244
-8.96243e-06
-0.000162978
-1.05295e-05
-0.000156689
-1.25763e-05
-0.000149531
-1.43172e-05
-0.00014151
-1.60468e-05
-0.000132409
-1.81947e-05
-0.000122319
-2.01918e-05
-0.000111197
-2.2241e-05
-9.9019e-05
-2.43517e-05
-8.59353e-05
-2.61659e-05
-7.17465e-05
-2.83745e-05
-5.65685e-05
-3.03506e-05
-4.05751e-05
-3.19807e-05
-2.36437e-05
-3.38683e-05
-5.91878e-06
-3.544e-05
1.24887e-05
-3.68085e-05
3.13956e-05
-3.78032e-05
5.0448e-05
-3.80925e-05
6.96036e-05
-3.83004e-05
8.86422e-05
-3.80641e-05
0.000107163
-3.70282e-05
0.00012507
-3.58027e-05
0.000142137
-3.41204e-05
0.000157916
-3.15439e-05
0.000172373
-2.88978e-05
0.000185164
-2.55847e-05
0.000196159
-2.19915e-05
0.000205231
-1.81271e-05
0.000212099
-1.37232e-05
0.000216744
-9.28026e-06
0.000219037
-4.58029e-06
0.000218755
5.58751e-07
0.000216107
5.29483e-06
0.000211089
1.00396e-05
0.000203891
1.43933e-05
0.000194595
1.85865e-05
0.000183346
2.24885e-05
0.000170311
2.60601e-05
0.000155784
2.90451e-05
0.000139848
3.18579e-05
0.000122859
3.39663e-05
0.000105069
3.55678e-05
8.67342e-05
3.66589e-05
6.8024e-05
3.74148e-05
4.9236e-05
3.75503e-05
3.04736e-05
3.75151e-05
1.19074e-05
3.71236e-05
-6.16409e-06
3.61204e-05
-2.36903e-05
3.50361e-05
-4.05027e-05
3.36125e-05
-5.64877e-05
3.19619e-05
-7.17122e-05
3.04405e-05
-8.5953e-05
2.84723e-05
-9.92418e-05
2.65722e-05
-0.00011158
2.46698e-05
-0.00012283
2.25011e-05
-0.000133111
2.05608e-05
-0.000142383
1.85347e-05
-0.00015056
1.6342e-05
-0.000157795
1.44866e-05
-0.000164091
1.25921e-05
-0.000169345
1.0506e-05
-0.000173687
8.68232e-06
-0.00017708
6.78259e-06
-0.000179634
5.11421e-06
-0.000181485
3.70158e-06
-0.000182488
2.01209e-06
-0.000182726
4.84702e-07
-0.000182277
-9.08084e-07
-0.000181069
-2.3968e-06
-0.000179348
-3.44147e-06
-0.000177051
-4.59548e-06
-0.000174021
-6.06027e-06
-0.000170442
-7.15824e-06
-0.000166466
-7.94457e-06
-0.000161556
-9.8217e-06
-0.000155992
-1.11292e-05
-0.000149696
-1.25727e-05
-0.000142567
-1.42806e-05
-0.000134624
-1.58709e-05
-0.000125811
-1.76144e-05
-0.000116148
-1.93306e-05
-0.000105577
-2.11463e-05
-9.40944e-05
-2.29521e-05
-8.16976e-05
-2.47897e-05
-6.83581e-05
-2.66689e-05
-5.412e-05
-2.84632e-05
-3.90724e-05
-3.00966e-05
-2.32144e-05
-3.17087e-05
-6.633e-06
-3.31571e-05
1.05676e-05
-3.43912e-05
2.82798e-05
-3.54128e-05
4.63483e-05
-3.61254e-05
6.46297e-05
-3.65452e-05
8.28899e-05
-3.65044e-05
0.000100919
-3.60373e-05
0.000118471
-3.50881e-05
0.000135287
-3.36269e-05
0.000151104
-3.16306e-05
0.000165603
-2.89837e-05
0.000178556
-2.58882e-05
0.000189703
-2.22855e-05
0.000198787
-1.81639e-05
0.000205678
-1.37745e-05
0.000210213
-9.05888e-06
0.000212296
-4.16427e-06
0.000211915
7.43282e-07
0.00020907
5.67927e-06
0.000203795
1.05428e-05
0.000196242
1.50967e-05
0.000186558
1.93671e-05
0.000174902
2.32973e-05
0.000161508
2.67668e-05
0.000146633
2.97311e-05
0.000130544
3.21689e-05
0.000113434
3.42074e-05
9.55765e-05
3.56955e-05
7.72275e-05
3.66777e-05
5.86582e-05
3.71176e-05
4.01062e-05
3.70852e-05
2.186e-05
3.64824e-05
3.96836e-06
3.57776e-05
-1.34576e-05
3.48344e-05
-3.00926e-05
3.32576e-05
-4.59956e-05
3.17961e-05
-6.09364e-05
2.98723e-05
-7.50241e-05
2.81684e-05
-8.80124e-05
2.59715e-05
-9.98576e-05
2.36869e-05
-0.000110769
2.18343e-05
-0.000120609
1.96793e-05
-0.000129431
1.7642e-05
-0.000137385
1.58943e-05
-0.000144329
1.38922e-05
-0.000150481
1.23147e-05
-0.000155781
1.05952e-05
-0.000160323
9.09384e-06
-0.000164084
7.51705e-06
-0.000167136
6.10726e-06
-0.000169515
4.76852e-06
-0.000171259
3.48591e-06
-0.000172309
2.09505e-06
-0.000172717
8.35907e-07
-0.000172579
-2.90413e-07
-0.000171763
-1.63732e-06
-0.000170202
-3.10762e-06
-0.000168147
-4.10664e-06
-0.000165462
-5.37312e-06
-0.000161991
-6.93746e-06
-0.000157973
-8.04368e-06
-0.000152936
-1.00834e-05
-0.000147109
-1.16527e-05
-0.000140664
-1.28816e-05
-0.000133304
-1.47052e-05
-0.000125034
-1.6527e-05
-0.000115977
-1.81175e-05
-0.000105921
-2.01165e-05
-9.49496e-05
-2.1941e-05
-8.29325e-05
-2.4026e-05
-6.99063e-05
-2.60474e-05
-5.59209e-05
-2.79626e-05
-4.10662e-05
-2.9704e-05
-2.52958e-05
-3.15274e-05
-8.75362e-06
-3.30743e-05
8.50283e-06
-3.4499e-05
2.63103e-05
-3.56096e-05
4.45326e-05
-3.64332e-05
6.29859e-05
-3.68931e-05
8.14655e-05
-3.69437e-05
9.97408e-05
-3.6537e-05
0.000117598
-3.57033e-05
0.00013473
-3.42548e-05
0.000150925
-3.23746e-05
0.000165914
-2.99618e-05
0.000179436
-2.70294e-05
0.000191251
-2.36203e-05
0.00020115
-1.97976e-05
0.000208934
-1.55496e-05
0.000214466
-1.10483e-05
0.000217618
-6.31936e-06
0.000218343
-1.44943e-06
0.000216667
3.35275e-06
0.000212527
8.26614e-06
0.000206078
1.28805e-05
0.000197434
1.72885e-05
0.000186769
2.13193e-05
0.000174306
2.49055e-05
0.00016026
2.80707e-05
0.000144832
3.08435e-05
0.000128314
3.30273e-05
0.000110979
3.46533e-05
9.29866e-05
3.59631e-05
7.46015e-05
3.67531e-05
5.61324e-05
3.69266e-05
3.76456e-05
3.69574e-05
1.94591e-05
3.63522e-05
1.67202e-06
3.5556e-05
-1.5461e-05
3.42595e-05
-3.16732e-05
3.24218e-05
-4.71008e-05
3.0848e-05
-6.15728e-05
2.89288e-05
-7.5032e-05
2.69175e-05
-8.74544e-05
2.48328e-05
-9.86508e-05
2.23959e-05
-0.000108856
2.04128e-05
-0.000117952
1.81862e-05
-0.000125896
1.58879e-05
-0.000132793
1.3787e-05
-0.000138699
1.18052e-05
-0.000143667
9.96827e-06
-0.000147719
8.09647e-06
-0.000150913
6.39707e-06
-0.000153351
4.86744e-06
-0.000155052
3.39495e-06
-0.000156064
2.02506e-06
-0.00015646
8.15861e-07
-0.000156336
-2.60569e-07
-0.000155722
-1.22641e-06
-0.000154488
-2.46278e-06
-0.000152822
-3.32038e-06
-0.000150447
-4.73913e-06
-0.000147608
-5.67166e-06
-0.000144342
-6.54534e-06
-0.000140421
-7.85079e-06
-0.000135826
-9.18269e-06
-0.000130578
-1.05017e-05
-0.000124774
-1.1602e-05
-0.000118214
-1.31189e-05
-0.000110674
-1.50746e-05
-0.000102287
-1.67629e-05
-9.30393e-05
-1.84976e-05
-8.27694e-05
-2.05398e-05
-7.1513e-05
-2.25063e-05
-5.92802e-05
-2.4465e-05
-4.60455e-05
-2.6474e-05
-3.17965e-05
-2.84871e-05
-1.65788e-05
-3.04142e-05
-4.99369e-07
-3.21462e-05
1.63539e-05
-3.37036e-05
3.38665e-05
-3.50165e-05
5.18992e-05
-3.60524e-05
7.02488e-05
-3.66975e-05
8.87005e-05
-3.68926e-05
0.000107009
-3.65922e-05
0.00012499
-3.59326e-05
0.000142266
-3.45421e-05
0.000158571
-3.26149e-05
0.000173729
-3.0308e-05
0.000187481
-2.74936e-05
0.000199525
-2.4082e-05
0.00020977
-2.04833e-05
0.000217994
-1.64427e-05
0.000224016
-1.20421e-05
0.000227869
-7.70416e-06
0.000229395
-3.04603e-06
0.000228726
1.33373e-06
0.000225826
5.79153e-06
0.000220629
1.03933e-05
0.00021335
1.45514e-05
0.000204104
1.85017e-05
0.000192998
2.21963e-05
0.000180335
2.53092e-05
0.000166303
2.80495e-05
0.000151076
3.04416e-05
0.000134806
3.25302e-05
0.000117862
3.38829e-05
0.000100419
3.48733e-05
8.26378e-05
3.55527e-05
6.47648e-05
3.5736e-05
4.70017e-05
3.55163e-05
2.94506e-05
3.50942e-05
1.23257e-05
3.42397e-05
-4.18435e-06
3.30102e-05
-2.01171e-05
3.18546e-05
-3.52913e-05
3.03394e-05
-4.9676e-05
2.87645e-05
-6.3157e-05
2.69581e-05
-7.56905e-05
2.50609e-05
-8.72726e-05
2.31628e-05
-9.78428e-05
2.114e-05
-0.000107382
1.90719e-05
-0.000115904
1.70419e-05
-0.000123401
1.49918e-05
-0.000129902
1.30031e-05
-0.000135431
1.10596e-05
-0.00013999
9.11847e-06
-0.000143619
7.25525e-06
-0.000146361
5.48114e-06
-0.000148277
3.83684e-06
-0.000149428
2.30007e-06
-0.000149826
7.96365e-07
-0.000149407
-8.29528e-07
-0.000148278
-2.25569e-06
-0.000146467
-3.61899e-06
-0.000144017
-4.89959e-06
-0.000140921
-6.19676e-06
-0.000137114
-7.61324e-06
-0.00013273
-8.76654e-06
-0.000127653
-1.01526e-05
-0.000121947
-1.14092e-05
-0.000115643
-1.26082e-05
-0.000108599
-1.40869e-05
-0.000100887
-1.54238e-05
-9.25577e-05
-1.66577e-05
-8.35019e-05
-1.81026e-05
-7.36129e-05
-1.97863e-05
-6.30917e-05
-2.10412e-05
-5.18045e-05
-2.25726e-05
-3.98822e-05
-2.38427e-05
-2.7178e-05
-2.5406e-05
-1.37305e-05
-2.68906e-05
2.06125e-07
-2.78762e-05
1.48231e-05
-2.92262e-05
3.00005e-05
-3.03301e-05
4.55148e-05
-3.10174e-05
6.14967e-05
-3.1974e-05
7.76979e-05
-3.24044e-05
9.41064e-05
-3.28093e-05
0.000110475
-3.27289e-05
0.000126528
-3.20966e-05
0.000142225
-3.13868e-05
0.000157322
-3.01841e-05
0.000171549
-2.84508e-05
0.000184784
-2.64642e-05
0.000196762
-2.3969e-05
0.00020724
-2.09717e-05
0.000216003
-1.7521e-05
0.000222825
-1.36239e-05
0.000227495
-9.31629e-06
0.000229904
-4.80264e-06
-2.46904e-07
-3.5836e-05
4.86e-05
-5.11739e-05
4.60012e-05
-6.57447e-05
4.36999e-05
-7.94668e-05
4.11549e-05
-9.22432e-05
3.83216e-05
-0.000104126
3.56434e-05
-0.000115064
3.28036e-05
-0.000125112
3.01352e-05
-0.000134267
2.7453e-05
-0.000142526
2.47715e-05
-0.000149935
2.22454e-05
-0.000156535
1.98061e-05
-0.000162356
1.74654e-05
-0.000167424
1.52049e-05
-0.000171753
1.2968e-05
-0.000175368
1.08514e-05
-0.0001783
8.80425e-06
-0.000180529
6.67085e-06
-0.000182074
4.6118e-06
-0.000182971
2.71158e-06
-0.000183164
6.2637e-07
-0.000182591
-1.69966e-06
-0.000181292
-3.89362e-06
-0.000179224
-6.20619e-06
-0.000176424
-8.4022e-06
-0.000172782
-1.0925e-05
-0.000168313
-1.34315e-05
-0.000163037
-1.58055e-05
-0.000156755
-1.88576e-05
-0.000149601
-2.14715e-05
-0.000141583
-2.40654e-05
-0.000132484
-2.72937e-05
-0.000122403
-3.02723e-05
-0.000111277
-3.33669e-05
-9.90993e-05
-3.65298e-05
-8.6014e-05
-3.92512e-05
-7.18218e-05
-4.25668e-05
-5.66372e-05
-4.55352e-05
-4.06354e-05
-4.79826e-05
-2.37143e-05
-5.07895e-05
-5.97225e-06
-5.31821e-05
1.2454e-05
-5.52348e-05
3.13758e-05
-5.67251e-05
5.04491e-05
-5.7166e-05
6.96163e-05
-5.74677e-05
8.8672e-05
-5.71199e-05
0.000107211
-5.55668e-05
0.000125139
-5.37316e-05
0.000142218
-5.11988e-05
0.000158017
-4.73433e-05
0.00017249
-4.33708e-05
0.000185296
-3.83907e-05
0.000196306
-3.30016e-05
0.000205391
-2.7212e-05
0.000212259
-2.0592e-05
0.000216902
-1.39226e-05
0.000219211
-6.89008e-06
0.000218926
8.43725e-07
0.000216272
7.94874e-06
0.00021126
1.50515e-05
0.000204058
2.15962e-05
0.00019475
2.78941e-05
0.000183487
3.37516e-05
0.000170435
3.91122e-05
0.000155893
4.35868e-05
0.000139934
4.78172e-05
0.000122929
5.09711e-05
0.000105121
5.33753e-05
8.67714e-05
5.50087e-05
6.80608e-05
5.61254e-05
4.92297e-05
5.63814e-05
3.0452e-05
5.62927e-05
1.18709e-05
5.57047e-05
-6.22169e-06
5.42129e-05
-2.37565e-05
5.25708e-05
-4.05789e-05
5.0435e-05
-5.65657e-05
4.79487e-05
-7.17951e-05
4.56699e-05
-8.60505e-05
4.27276e-05
-9.93397e-05
3.98614e-05
-0.00011168
3.70102e-05
-0.000122931
3.37522e-05
-0.000133211
3.08406e-05
-0.00014249
2.78132e-05
-0.000150666
2.45179e-05
-0.000157883
2.17039e-05
-0.00016418
1.88895e-05
-0.000169429
1.57549e-05
-0.000173765
1.30179e-05
-0.00017716
1.01771e-05
-0.000179702
7.65648e-06
-0.000181557
5.55657e-06
-0.000182557
3.01186e-06
-0.000182784
7.1239e-07
-0.000182343
-1.34942e-06
-0.000181113
-3.62664e-06
-0.000179403
-5.15183e-06
-0.000177116
-6.88236e-06
-0.000174076
-9.10069e-06
-0.000170522
-1.07118e-05
-0.000166542
-1.19247e-05
-0.00016164
-1.47236e-05
-0.000156071
-1.66981e-05
-0.000149781
-1.8863e-05
-0.000142641
-2.14202e-05
-0.000134703
-2.38088e-05
-0.000125902
-2.64158e-05
-0.000116231
-2.90019e-05
-0.000105663
-3.1714e-05
-9.41808e-05
-3.44346e-05
-8.17791e-05
-3.71915e-05
-6.84464e-05
-4.00017e-05
-5.42096e-05
-4.27001e-05
-3.91523e-05
-4.5154e-05
-2.32847e-05
-4.75764e-05
-6.69892e-06
-4.9743e-05
1.05138e-05
-5.1604e-05
2.82439e-05
-5.3143e-05
4.63344e-05
-5.4216e-05
6.46384e-05
-5.48493e-05
8.29085e-05
-5.47746e-05
0.000100951
-5.40796e-05
0.000118521
-5.2659e-05
0.000135366
-5.04715e-05
0.000151208
-4.74732e-05
0.000165727
-4.35029e-05
0.000178708
-3.88688e-05
0.000189878
-3.3456e-05
0.000198984
-2.72703e-05
0.000205884
-2.06743e-05
0.000210417
-1.35918e-05
0.000212504
-6.25161e-06
0.000212102
1.14522e-06
0.000209238
8.54387e-06
0.000203957
1.58231e-05
0.000196398
2.26561e-05
0.000186703
2.90616e-05
0.000175036
3.49647e-05
0.000161621
4.01812e-05
0.000146714
4.46384e-05
0.000130598
4.82851e-05
0.000113479
5.13262e-05
9.5606e-05
5.35683e-05
7.72336e-05
5.50501e-05
5.86475e-05
5.57036e-05
4.00739e-05
5.56588e-05
2.18107e-05
5.47456e-05
3.91452e-06
5.36738e-05
-1.35331e-05
5.2282e-05
-3.01779e-05
4.99023e-05
-4.60872e-05
4.77054e-05
-6.10259e-05
4.48111e-05
-7.51184e-05
4.22608e-05
-8.81099e-05
3.89631e-05
-9.99569e-05
3.55339e-05
-0.000110863
3.27407e-05
-0.000120707
2.95226e-05
-0.000129517
2.64527e-05
-0.000137476
2.3853e-05
-0.000144399
2.08152e-05
-0.000150538
1.84533e-05
-0.000155842
1.58998e-05
-0.000160386
1.36374e-05
-0.000164144
1.12753e-05
-0.000167185
9.1478e-06
-0.000169568
7.15226e-06
-0.000171321
5.23828e-06
-0.000172375
3.14968e-06
-0.00017276
1.22032e-06
-0.000172638
-4.12249e-07
-0.000171832
-2.44293e-06
-0.000170261
-4.67898e-06
-0.000168201
-6.16662e-06
-0.000165519
-8.05552e-06
-0.000162043
-1.04132e-05
-0.000158048
-1.20388e-05
-0.000153022
-1.51087e-05
-0.000147191
-1.74839e-05
-0.000140763
-1.93099e-05
-0.000133399
-2.20689e-05
-0.000125123
-2.48036e-05
-0.000116072
-2.71679e-05
-0.000106008
-3.01808e-05
-9.50507e-05
-3.28984e-05
-8.30355e-05
-3.60412e-05
-7.00097e-05
-3.90733e-05
-5.60067e-05
-4.19657e-05
-4.11559e-05
-4.45548e-05
-2.53773e-05
-4.73061e-05
-8.81497e-06
-4.96367e-05
8.44844e-06
-5.17625e-05
2.6276e-05
-5.34372e-05
4.451e-05
-5.46673e-05
6.29764e-05
-5.53596e-05
8.1472e-05
-5.54394e-05
9.97676e-05
-5.48327e-05
0.000117655
-5.35911e-05
0.000134813
-5.14131e-05
0.000151029
-4.85908e-05
0.000166037
-4.49696e-05
0.000179574
-4.05664e-05
0.000191408
-3.54542e-05
0.00020132
-2.97093e-05
0.000209106
-2.33357e-05
0.000214657
-1.65999e-05
0.000217831
-9.49338e-06
0.000218548
-2.16674e-06
0.000216834
5.06656e-06
0.000212698
1.24028e-05
0.000206244
1.93346e-05
0.00019758
2.59523e-05
0.000186895
3.20041e-05
0.000174424
3.73767e-05
0.000160363
4.21309e-05
0.000144907
4.62996e-05
0.000128365
4.957e-05
0.000111021
5.19972e-05
9.30081e-05
5.39758e-05
7.45923e-05
5.51688e-05
5.61153e-05
5.54036e-05
3.76154e-05
5.54574e-05
1.94095e-05
5.45581e-05
1.60435e-06
5.33612e-05
-1.55412e-05
5.14051e-05
-3.17509e-05
4.86315e-05
-4.71881e-05
4.62852e-05
-6.16798e-05
4.34205e-05
-7.51364e-05
4.03741e-05
-8.75598e-05
3.72562e-05
-9.8751e-05
3.3587e-05
-0.000108955
3.06165e-05
-0.000118052
2.72837e-05
-0.000125994
2.38297e-05
-0.000132888
2.06807e-05
-0.00013879
1.7707e-05
-0.000143731
1.49094e-05
-0.000147787
1.21529e-05
-0.000150971
9.58054e-06
-0.000153408
7.30437e-06
-0.000155119
5.10672e-06
-0.000156133
3.03909e-06
-0.000156499
1.18165e-06
-0.000156369
-3.90976e-07
-0.000155762
-1.83291e-06
-0.000154535
-3.68979e-06
-0.000152876
-4.97936e-06
-0.000150497
-7.11819e-06
-0.000147647
-8.5219e-06
-0.000144394
-9.79862e-06
-0.000140492
-1.17531e-05
-0.000135899
-1.37755e-05
-0.000130655
-1.57455e-05
-0.000124855
-1.74019e-05
-0.000118289
-1.96843e-05
-0.000110751
-2.26134e-05
-0.000102372
-2.51412e-05
-9.31252e-05
-2.77448e-05
-8.28655e-05
-3.07996e-05
-7.16101e-05
-3.37617e-05
-5.93756e-05
-3.66995e-05
-4.6131e-05
-3.97187e-05
-3.18881e-05
-4.27301e-05
-1.66741e-05
-4.56283e-05
-5.57123e-07
-4.82631e-05
1.63014e-05
-5.05622e-05
3.38211e-05
-5.25363e-05
5.18667e-05
-5.40981e-05
7.02376e-05
-5.50685e-05
8.87034e-05
-5.53585e-05
0.000107041
-5.49303e-05
0.000125038
-5.39294e-05
0.000142319
-5.18233e-05
0.000158651
-4.89467e-05
0.000173825
-4.54827e-05
0.000187597
-4.12656e-05
0.000199656
-3.61409e-05
0.000209911
-3.07387e-05
0.000218145
-2.46769e-05
0.00022417
-1.80671e-05
0.000228033
-1.15674e-05
0.000229577
-4.58968e-06
0.000228912
1.99821e-06
0.000225988
8.71616e-06
0.000220792
1.55893e-05
0.000213503
2.184e-05
0.000204247
2.77572e-05
0.000193149
3.32943e-05
0.000180456
3.80028e-05
0.000166397
4.21078e-05
0.000151148
4.56909e-05
0.000134865
4.88129e-05
0.000117915
5.08328e-05
0.000100453
5.23354e-05
8.26597e-05
5.33461e-05
6.47725e-05
5.36232e-05
4.69955e-05
5.32933e-05
2.94362e-05
5.26535e-05
1.22988e-05
5.1377e-05
-4.23592e-06
4.9545e-05
-2.018e-05
4.77987e-05
-3.536e-05
4.55194e-05
-4.97524e-05
4.31568e-05
-6.32403e-05
4.04461e-05
-7.57758e-05
3.75964e-05
-8.736e-05
3.4747e-05
-9.79373e-05
3.17172e-05
-0.000107484
2.86184e-05
-0.000116004
2.55619e-05
-0.000123498
2.24865e-05
-0.000129997
1.95021e-05
-0.000135527
1.65892e-05
-0.000140088
1.36799e-05
-0.000143722
1.08891e-05
-0.000146471
8.23006e-06
-0.000148377
5.74224e-06
-0.000149512
3.43562e-06
-0.0001499
1.18413e-06
-0.000149464
-1.26563e-06
-0.000148329
-3.39011e-06
-0.000146517
-5.43142e-06
-0.000144065
-7.35174e-06
-0.000140976
-9.28515e-06
-0.000137168
-1.14218e-05
-0.000132781
-1.31534e-05
-0.000127703
-1.52302e-05
-0.000121998
-1.71145e-05
-0.000115694
-1.89125e-05
-0.000108651
-2.11297e-05
-0.000100944
-2.31303e-05
-9.26105e-05
-2.49917e-05
-8.35516e-05
-2.71615e-05
-7.36733e-05
-2.96646e-05
-6.31521e-05
-3.15626e-05
-5.18642e-05
-3.38605e-05
-3.99409e-05
-3.5766e-05
-2.72354e-05
-3.81115e-05
-1.37824e-05
-4.03436e-05
1.8419e-07
-4.18429e-05
1.48087e-05
-4.38508e-05
2.99901e-05
-4.55117e-05
4.55232e-05
-4.65506e-05
6.15321e-05
-4.79829e-05
7.77477e-05
-4.86201e-05
9.41628e-05
-4.92244e-05
0.000110538
-4.91041e-05
0.000126591
-4.81498e-05
0.000142289
-4.70849e-05
0.000157392
-4.52873e-05
0.000171627
-4.26861e-05
0.000184873
-3.97099e-05
0.000196862
-3.59583e-05
0.000207355
-3.1465e-05
0.000216126
-2.62915e-05
0.000222949
-2.0447e-05
0.000227627
-1.39947e-05
0.000230063
-7.23884e-06
-3.95849e-07
-3.59324e-05
6.48146e-05
-5.12783e-05
6.13471e-05
-6.58565e-05
5.82781e-05
-7.9585e-05
5.48834e-05
-9.23675e-05
5.1104e-05
-0.000104254
4.75301e-05
-0.000115195
4.37441e-05
-0.000125244
4.01848e-05
-0.000134399
3.66078e-05
-0.000142662
3.30345e-05
-0.000150073
2.96565e-05
-0.000156679
2.64116e-05
-0.00016249
2.32769e-05
-0.000167557
2.02722e-05
-0.000171886
1.72967e-05
-0.000175499
1.44646e-05
-0.000178438
1.17431e-05
-0.000180673
8.90537e-06
-0.000182211
6.15051e-06
-0.000183089
3.58926e-06
-0.000183263
8.00198e-07
-0.000182682
-2.28075e-06
-0.000181378
-5.19712e-06
-0.000179312
-8.27254e-06
-0.000176514
-1.12005e-05
-0.000172874
-1.45648e-05
-0.000168416
-1.78897e-05
-0.000163131
-2.10908e-05
-0.000156856
-2.51321e-05
-0.000149706
-2.86218e-05
-0.000141692
-3.20788e-05
-0.000132597
-3.63894e-05
-0.000122533
-4.03357e-05
-0.000111398
-4.45021e-05
-9.922e-05
-4.87082e-05
-8.6133e-05
-5.23383e-05
-7.19353e-05
-5.67646e-05
-5.67412e-05
-6.07294e-05
-4.07264e-05
-6.39975e-05
-2.37856e-05
-6.77304e-05
-6.05341e-06
-7.09143e-05
1.24014e-05
-7.36897e-05
3.13477e-05
-7.56715e-05
5.04435e-05
-7.62618e-05
6.96361e-05
-7.66604e-05
8.87159e-05
-7.61998e-05
0.000107278
-7.41293e-05
0.000125228
-7.16814e-05
0.000142338
-6.83086e-05
0.00015816
-6.31654e-05
0.000172653
-5.78639e-05
0.000185481
-5.12186e-05
0.000196513
-4.4034e-05
0.000205621
-3.63199e-05
0.000212499
-2.74701e-05
0.000217143
-1.85664e-05
0.000219463
-9.21024e-06
0.000219175
1.13183e-06
0.000216523
1.06002e-05
0.000211519
2.0055e-05
0.000204305
2.88106e-05
0.000194979
3.72199e-05
0.000183694
4.50364e-05
0.000170618
5.2188e-05
0.000156054
5.81509e-05
0.000140061
6.38109e-05
0.000123033
6.7999e-05
0.0001052
7.12075e-05
8.68285e-05
7.33806e-05
6.8088e-05
7.48658e-05
4.92188e-05
7.52506e-05
3.04188e-05
7.50927e-05
1.18177e-05
7.43059e-05
-6.30904e-06
7.23396e-05
-2.38607e-05
7.01225e-05
-4.07003e-05
6.72746e-05
-5.66969e-05
6.39452e-05
-7.19275e-05
6.09005e-05
-8.6187e-05
5.69871e-05
-9.9495e-05
5.31693e-05
-0.000111841
4.93562e-05
-0.000123082
4.49935e-05
-0.000133369
4.11272e-05
-0.00014266
3.71037e-05
-0.000150829
3.26873e-05
-0.000158015
2.889e-05
-0.000164314
2.51888e-05
-0.000169573
2.1013e-05
-0.0001739
1.73454e-05
-0.000177282
1.35588e-05
-0.000179816
1.01905e-05
-0.000181675
7.4152e-06
-0.00018267
4.00734e-06
-0.000182891
9.33744e-07
-0.000182455
-1.78602e-06
-0.00018117
-4.91159e-06
-0.000179474
-6.84728e-06
-0.000177219
-9.1382e-06
-0.000174161
-1.21585e-05
-0.000170632
-1.42407e-05
-0.000166639
-1.59179e-05