/*--------------------------------*- C++ -*----------------------------------*\
| =========                 |                                                 |
| \\      /  F ield         | OpenFOAM: The Open Source CFD Toolbox           |
|  \\    /   O peration     | Version:  3.0.1                                 |
|   \\  /    A nd           | Web:      www.OpenFOAM.org                      |
|    \\/     M anipulation  |                                                 |
\*---------------------------------------------------------------------------*/
FoamFile
{
    version     2.0;
    format      ascii;
    class       surfaceScalarField;
    location    "15.2";
    object      alphaPhi;
}
// * * * * * * * * * * * * * * * * * * * * * * * * * * * * * * * * * * * * * //

dimensions      [0 3 -1 0 0 0 0];

internalField   nonuniform List<scalar> 
42423
(
-4.62134e-05
-1.37485e-05
-3.1281e-05
-1.49327e-05
-1.54142e-05
-1.58671e-05
1.08939e-06
-1.65038e-05
1.83786e-05
-1.72894e-05
3.60028e-05
-1.76244e-05
5.41901e-05
-1.81875e-05
7.24179e-05
-1.82279e-05
9.04315e-05
-1.80138e-05
0.000108351
-1.79196e-05
0.000125676
-1.73253e-05
0.00014213
-1.64544e-05
0.000157663
-1.55333e-05
0.00017196
-1.42962e-05
0.000184767
-1.28072e-05
0.000195727
-1.09608e-05
0.000204606
-8.87865e-06
0.000211196
-6.59011e-06
0.000215341
-4.1451e-06
0.000216917
-1.57593e-06
0.000216089
8.27599e-07
0.000212857
3.23221e-06
0.000207272
5.5844e-06
0.000199635
7.63696e-06
0.000189804
9.83105e-06
0.000178217
1.15865e-05
0.000164844
1.33733e-05
0.00014983
1.50136e-05
0.000133779
1.60511e-05
0.000116652
1.71268e-05
9.87049e-05
1.79473e-05
8.03961e-05
1.83087e-05
6.18325e-05
1.85636e-05
4.34725e-05
1.836e-05
2.51944e-05
1.8278e-05
7.23606e-06
1.79583e-05
-1.01533e-05
1.73894e-05
-2.68498e-05
1.66964e-05
-4.27813e-05
1.59315e-05
-5.78074e-05
1.5026e-05
-7.19529e-05
1.41455e-05
-8.51237e-05
1.31708e-05
-9.73588e-05
1.22351e-05
-0.000108637
1.12779e-05
-0.000118943
1.03062e-05
-0.00012832
9.37706e-06
-0.000136781
8.4613e-06
-0.000144357
7.57589e-06
-0.000151107
6.75022e-06
-0.000157052
5.94508e-06
-0.000162183
5.13075e-06
-0.00016651
4.32666e-06
-0.000170088
3.57822e-06
-0.00017295
2.86146e-06
-0.00017506
2.11005e-06
-0.000176388
1.32811e-06
-0.000176982
5.94109e-07
-0.000176929
-5.28528e-08
-0.000176259
-6.69505e-07
-0.000174953
-1.30662e-06
-0.00017294
-2.01319e-06
-0.000170234
-2.70561e-06
-0.000166776
-3.45861e-06
-0.000162481
-4.29476e-06
-0.00015741
-5.0704e-06
-0.000151485
-5.92571e-06
-0.000144572
-6.91316e-06
-0.000136795
-7.77692e-06
-0.000127944
-8.8508e-06
-0.000118247
-9.69729e-06
-0.000107602
-1.06449e-05
-9.58457e-05
-1.17564e-05
-8.3078e-05
-1.27677e-05
-6.97483e-05
-1.33299e-05
-5.49727e-05
-1.47756e-05
-3.95631e-05
-1.54098e-05
-2.30706e-05
-1.64926e-05
-5.95945e-06
-1.71113e-05
1.15951e-05
-1.75547e-05
2.99069e-05
-1.8312e-05
4.85311e-05
-1.86244e-05
6.7155e-05
-1.8624e-05
8.58157e-05
-1.86609e-05
0.000104166
-1.83507e-05
0.000121911
-1.77447e-05
0.00013886
-1.69489e-05
0.000154795
-1.59356e-05
0.000169554
-1.47585e-05
0.000182733
-1.31794e-05
0.00019411
-1.13778e-05
0.000203423
-9.31232e-06
0.000210491
-7.06891e-06
0.000215093
-4.60192e-06
0.00021724
-2.14653e-06
0.000216831
4.08754e-07
0.000214192
2.63855e-06
0.000209289
4.9028e-06
0.000201981
7.30874e-06
0.0001927
9.28078e-06
0.000181389
1.1311e-05
0.000168124
1.32643e-05
0.000153488
1.46359e-05
0.000137607
1.58808e-05
0.000120981
1.66262e-05
0.000103343
1.76378e-05
8.50464e-05
1.82969e-05
6.67194e-05
1.83269e-05
4.83551e-05
1.83643e-05
3.01364e-05
1.82187e-05
1.24255e-05
1.77108e-05
-4.75653e-06
1.7182e-05
-2.12582e-05
1.65016e-05
-3.6942e-05
1.56838e-05
-5.18109e-05
1.48689e-05
-6.57826e-05
1.39717e-05
-7.88899e-05
1.31073e-05
-9.11164e-05
1.22265e-05
-0.000102449
1.13323e-05
-0.000112928
1.04795e-05
-0.000122568
9.63997e-06
-0.000131387
8.81874e-06
-0.000139425
8.03806e-06
-0.000146708
7.28316e-06
-0.000153287
6.57874e-06
-0.000159212
5.92485e-06
-0.000164506
5.29441e-06
-0.000169082
4.57539e-06
-0.000172939
3.8576e-06
-0.000176089
3.14981e-06
-0.000178508
2.41847e-06
-0.000180097
1.58907e-06
-0.000180845
7.48342e-07
-0.000180831
-1.41533e-08
-0.000180078
-7.52458e-07
-0.000178552
-1.52677e-06
-0.000176162
-2.38955e-06
-0.000172823
-3.33867e-06
-0.000168575
-4.24873e-06
-0.000163282
-5.29302e-06
-0.000157074
-6.20727e-06
-0.000149869
-7.20593e-06
-0.000141527
-8.34119e-06
-0.000132308
-9.21906e-06
-0.000122158
-1.015e-05
-0.000110888
-1.12708e-05
-9.88643e-05
-1.20234e-05
-8.60125e-05
-1.28519e-05
-7.2181e-05
-1.38315e-05
-5.77537e-05
-1.44274e-05
-4.24559e-05
-1.52978e-05
-2.66928e-05
-1.57632e-05
-1.06017e-05
-1.60912e-05
6.08694e-06
-1.66887e-05
2.30391e-05
-1.69523e-05
4.00614e-05
-1.70224e-05
5.73389e-05
-1.72776e-05
7.45215e-05
-1.71827e-05
9.16399e-05
-1.71185e-05
0.000108455
-1.68155e-05
0.000124749
-1.62941e-05
0.000140422
-1.56724e-05
0.000155317
-1.48957e-05
0.000169324
-1.40074e-05
0.000182076
-1.27514e-05
0.00019325
-1.11743e-05
0.000202684
-9.43397e-06
0.000210059
-7.37541e-06
0.000215062
-5.00254e-06
0.000217679
-2.61687e-06
0.000217754
-7.59403e-08
0.000215287
2.46694e-06
0.000210627
4.66022e-06
0.000203622
7.00484e-06
0.000194068
9.55401e-06
0.000182531
1.15368e-05
0.000168855
1.36766e-05
0.0001536
1.52543e-05
0.000136864
1.67362e-05
0.000118705
1.81587e-05
9.96981e-05
1.90072e-05
8.00353e-05
1.96628e-05
5.99849e-05
2.00504e-05
3.99076e-05
2.00773e-05
1.99606e-05
1.9947e-05
6.50887e-07
1.93097e-05
-1.79308e-05
1.85817e-05
-3.56445e-05
1.77137e-05
-5.23116e-05
1.66671e-05
-6.79043e-05
1.55927e-05
-8.2361e-05
1.44567e-05
-9.56511e-05
1.32901e-05
-0.000107757
1.2106e-05
-0.000118653
1.08958e-05
-0.000128374
9.72142e-06
-0.000136966
8.59144e-06
-0.000144503
7.53696e-06
-0.000151056
6.55379e-06
-0.000156651
5.59457e-06
-0.000161337
4.68614e-06
-0.000165251
3.914e-06
-0.000168418
3.16706e-06
-0.000170871
2.45283e-06
-0.000172665
1.79429e-06
-0.000173795
1.13013e-06
-0.000174278
4.82071e-07
-0.000174221
-5.67699e-08
-0.000173681
-5.39437e-07
-0.000172645
-1.036e-06
-0.000171068
-1.57783e-06
-0.000168904
-2.16337e-06
-0.000166162
-2.74213e-06
-0.000162758
-3.40456e-06
-0.000158719
-4.03857e-06
-0.000153961
-4.75786e-06
-0.000148365
-5.59583e-06
-0.000142021
-6.34468e-06
-0.000134819
-7.2015e-06
-0.000126566
-8.2538e-06
-0.000117419
-9.14664e-06
-0.000107068
-1.03513e-05
-9.58894e-05
-1.11785e-05
-8.3687e-05
-1.22025e-05
-7.0202e-05
-1.34851e-05
-5.57898e-05
-1.44123e-05
-4.07778e-05
-1.50121e-05
-2.44033e-05
-1.63746e-05
-7.42187e-06
-1.69816e-05
1.04603e-05
-1.78823e-05
2.88541e-05
-1.8394e-05
4.74248e-05
-1.85708e-05
6.63006e-05
-1.8876e-05
8.50937e-05
-1.87933e-05
0.000103478
-1.83842e-05
0.000121324
-1.78464e-05
0.000138345
-1.70214e-05
0.00015434
-1.59948e-05
0.000169033
-1.46931e-05
0.000182086
-1.3053e-05
0.000193192
-1.11059e-05
0.000202174
-8.98274e-06
0.000208743
-6.56938e-06
0.000212927
-4.18415e-06
0.000214465
-1.53756e-06
0.000213498
9.67061e-07
0.000210347
3.15045e-06
0.000204937
5.41026e-06
0.000197603
7.33326e-06
0.000188264
9.33956e-06
0.000176965
1.12987e-05
0.000164245
1.27194e-05
0.000150175
1.40706e-05
0.000135032
1.51428e-05
0.000119146
1.58855e-05
0.000102472
1.6674e-05
8.53798e-05
1.70923e-05
6.8211e-05
1.71687e-05
5.10321e-05
1.71789e-05
3.40718e-05
1.69603e-05
1.74751e-05
1.65966e-05
1.31577e-06
1.61593e-05
-1.39901e-05
1.53059e-05
-2.85363e-05
1.45462e-05
-4.22175e-05
1.36812e-05
-5.50435e-05
1.2826e-05
-6.70004e-05
1.19569e-05
-7.80773e-05
1.10768e-05
-8.82665e-05
1.01892e-05
-9.75545e-05
9.28805e-06
-0.000105952
8.39732e-06
-0.000113492
7.5405e-06
-0.000120216
6.72365e-06
-0.000126155
5.93916e-06
-0.000131307
5.15157e-06
-0.000135692
4.38526e-06
-0.00013936
3.66816e-06
-0.00014233
2.96987e-06
-0.000144615
2.28501e-06
-0.000146239
1.6237e-06
-0.000147169
9.3068e-07
-0.000147422
2.5282e-07
-0.000147125
-2.96855e-07
-0.000146267
-8.58502e-07
-0.000144827
-1.4395e-06
-0.000142783
-2.0447e-06
-0.000140099
-2.68383e-06
-0.000136816
-3.28259e-06
-0.000132902
-3.91437e-06
-0.000128294
-4.60798e-06
-0.000123052
-5.24234e-06
-0.000117072
-5.97951e-06
-0.000110458
-6.6146e-06
-0.000103165
-7.29252e-06
-9.50751e-05
-8.08998e-06
-8.63323e-05
-8.74282e-06
-7.69583e-05
-9.3741e-06
-6.67803e-05
-1.0178e-05
-5.59973e-05
-1.07831e-05
-4.45277e-05
-1.14696e-05
-3.24983e-05
-1.20294e-05
-1.99681e-05
-1.25302e-05
-6.80081e-06
-1.31674e-05
6.73334e-06
-1.35342e-05
2.0475e-05
-1.37417e-05
3.45227e-05
-1.40478e-05
4.86097e-05
-1.40871e-05
6.25667e-05
-1.3957e-05
7.63929e-05
-1.38262e-05
8.98394e-05
-1.34465e-05
0.000102827
-1.29879e-05
0.000115156
-1.2329e-05
0.000126678
-1.15218e-05
0.000137349
-1.06707e-05
0.000146897
-9.54802e-06
0.00015519
-8.29397e-06
0.000162166
-6.97572e-06
0.000167715
-5.54858e-06
0.000171727
-4.01279e-06
0.000174144
-2.41688e-06
0.00017491
-7.65583e-07
0.000174134
7.76217e-07
0.00017188
2.25354e-06
0.000168238
3.64221e-06
0.000163343
4.89422e-06
0.000157184
6.15978e-06
0.000149975
7.20835e-06
0.000141766
8.20966e-06
0.000132672
9.09345e-06
0.000122975
9.69728e-06
0.000112728
1.0247e-05
0.000102056
1.0672e-05
9.12037e-05
1.08519e-05
8.02002e-05
1.10035e-05
6.91215e-05
1.10787e-05
5.81899e-05
1.09316e-05
4.74812e-05
1.07087e-05
3.70293e-05
1.04519e-05
2.71125e-05
9.91673e-06
1.76252e-05
9.48735e-06
8.71902e-06
8.90615e-06
4.1447e-07
8.30455e-06
-7.23946e-06
7.65393e-06
-1.42374e-05
6.99795e-06
-2.05894e-05
6.35203e-06
-2.62811e-05
5.69161e-06
-3.12598e-05
4.97878e-06
-3.55325e-05
4.27263e-06
-3.91562e-05
3.62372e-06
-4.21213e-05
2.96515e-06
-4.44627e-05
2.34134e-06
-4.61574e-05
1.69472e-06
-4.72425e-05
1.08511e-06
-4.77504e-05
5.07852e-07
-4.77424e-05
-7.95713e-09
-4.72466e-05
-4.9585e-07
-4.62727e-05
-9.73901e-07
-4.48457e-05
-1.42698e-06
-1.86449e-06
-4.62499e-05
-2.74977e-05
-3.13187e-05
-2.98642e-05
-1.54461e-05
-3.17402e-05
1.04189e-06
-3.29921e-05
1.83358e-05
-3.45837e-05
3.59683e-05
-3.52573e-05
5.41636e-05
-3.63832e-05
7.23999e-05
-3.64645e-05
9.04224e-05
-3.60367e-05
0.000108351
-3.5849e-05
0.000125686
-3.46605e-05
0.000142151
-3.2919e-05
0.000157694
-3.10771e-05
0.000171959
-2.85618e-05
0.000184737
-2.55849e-05
0.000195733
-2.19573e-05
0.00020465
-1.77964e-05
0.000211249
-1.31892e-05
0.000215401
-8.29745e-06
0.000216981
-3.15549e-06
0.000216146
1.66242e-06
0.000212927
6.4506e-06
0.000207356
1.11553e-05
0.000199718
1.52745e-05
0.000189883
1.96662e-05
0.000178291
2.31782e-05
0.000164911
2.6753e-05
0.00014989
3.00348e-05
0.000133831
3.21095e-05
0.000116696
3.42616e-05
9.87417e-05
3.59018e-05
8.04223e-05
3.6628e-05
6.18444e-05
3.71414e-05
4.34708e-05
3.67336e-05
2.51843e-05
3.65644e-05
7.22021e-06
3.59224e-05
-1.01681e-05
3.47776e-05
-2.68647e-05
3.33931e-05
-4.27978e-05
3.18645e-05
-5.78254e-05
3.00536e-05
-7.19721e-05
2.82921e-05
-8.51436e-05
2.63422e-05
-9.7379e-05
2.44706e-05
-0.000108657
2.25557e-05
-0.000118963
2.06121e-05
-0.000128339
1.87535e-05
-0.000136799
1.69216e-05
-0.000144372
1.51483e-05
-0.000151113
1.34913e-05
-0.000157037
1.18689e-05
-0.000162157
1.02512e-05
-0.000166498
8.66784e-06
-0.000170087
7.16659e-06
-0.000172952
5.727e-06
-0.000175067
4.22488e-06
-0.000176401
2.66181e-06
-0.000176997
1.19007e-06
-0.000176945
-1.04475e-07
-0.000176279
-1.33593e-06
-0.000174975
-2.61018e-06
-0.000172965
-4.02366e-06
-0.000170262
-5.4083e-06
-0.000166807
-6.91415e-06
-0.000162515
-8.58632e-06
-0.000157448
-1.01376e-05
-0.000151526
-1.18484e-05
-0.000144615
-1.38233e-05
-0.000136842
-1.55509e-05
-0.000127994
-1.76987e-05
-0.0001183
-1.93911e-05
-0.000107659
-2.12864e-05
-9.59053e-05
-2.35101e-05
-8.31459e-05
-2.55273e-05
-6.98001e-05
-2.66759e-05
-5.50325e-05
-2.95435e-05
-3.96168e-05
-3.08257e-05
-2.31219e-05
-3.29877e-05
-6.00642e-06
-3.4227e-05
1.15505e-05
-3.51118e-05
2.98672e-05
-3.66289e-05
4.84986e-05
-3.7256e-05
6.71306e-05
-3.72562e-05
8.58008e-05
-3.73314e-05
0.000104162
-3.67118e-05
0.000121917
-3.55e-05
0.000138876
-3.39083e-05
0.00015482
-3.18799e-05
0.000169587
-2.95258e-05
0.000182773
-2.63652e-05
0.000194147
-2.27524e-05
0.000203456
-1.86218e-05
0.000210528
-1.4141e-05
0.000215095
-9.16936e-06
0.000217224
-4.27502e-06
0.00021685
7.82417e-07
0.000214261
5.22708e-06
0.000209382
9.78162e-06
0.000202075
1.46159e-05
0.000192791
1.85642e-05
0.000181476
2.26266e-05
0.000168205
2.65346e-05
0.000153563
2.92778e-05
0.000137675
3.17692e-05
0.000121029
3.32719e-05
0.000103389
3.5278e-05
8.50781e-05
3.66073e-05
6.67416e-05
3.66634e-05
4.83616e-05
3.67442e-05
3.01419e-05
3.64385e-05
1.24238e-05
3.54289e-05
-4.76329e-06
3.43692e-05
-2.12676e-05
3.30059e-05
-3.69536e-05
3.13698e-05
-5.18238e-05
2.97392e-05
-6.57964e-05
2.79442e-05
-7.89042e-05
2.62151e-05
-9.11309e-05
2.44532e-05
-0.000102463
2.26646e-05
-0.000112942
2.09587e-05
-0.000122582
1.92795e-05
-0.0001314
1.76369e-05
-0.000139437
1.60752e-05
-0.000146719
1.45646e-05
-0.000153294
1.31539e-05
-0.000159214
1.18454e-05
-0.000164508
1.05883e-05
-0.000169086
9.15306e-06
-0.000172941
7.71319e-06
-0.000176086
6.29464e-06
-0.000178508
4.83981e-06
-0.000180108
3.1897e-06
-0.000180865
1.50477e-06
-0.000180854
-2.50059e-08
-0.000180106
-1.50061e-06
-0.000178583
-3.0496e-06
-0.000176197
-4.7759e-06
-0.000172861
-6.67421e-06
-0.000168616
-8.4944e-06
-0.000163325
-1.05832e-05
-0.000157121
-1.2412e-05
-0.000149917
-1.44099e-05
-0.000141577
-1.6681e-05
-0.000132359
-1.84371e-05
-0.00012221
-2.02988e-05
-0.000110941
-2.25405e-05
-9.89183e-05
-2.40462e-05
-8.60665e-05
-2.57038e-05
-7.22353e-05
-2.76629e-05
-5.78032e-05
-2.88597e-05
-4.25018e-05
-3.05993e-05
-2.67352e-05
-3.15299e-05
-1.06408e-05
-3.21858e-05
6.05158e-06
-3.33813e-05
2.3006e-05
-3.39069e-05
4.00315e-05
-3.40481e-05
5.73134e-05
-3.45597e-05
7.45011e-05
-3.43706e-05
9.16255e-05
-3.42431e-05
0.000108448
-3.36379e-05
0.000124749
-3.25952e-05
0.00014043
-3.13542e-05
0.000155323
-2.97885e-05
0.000169329
-2.80133e-05
0.000182098
-2.55212e-05
0.000193236
-2.23126e-05
0.000202585
-1.87823e-05
0.000209944
-1.47353e-05
0.000214993
-1.00515e-05
0.000217666
-5.29013e-06
0.00021779
-2.0022e-07
0.000215358
4.89892e-06
0.000210721
9.29742e-06
0.000203724
1.40022e-05
0.000194168
1.9109e-05
0.000182628
2.3077e-05
0.000168946
2.73587e-05
0.000153686
3.05146e-05
0.000136942
3.34797e-05
0.000118774
3.63269e-05
9.9749e-05
3.8032e-05
8.00734e-05
3.93384e-05
6.00123e-05
4.01115e-05
3.99219e-05
4.01677e-05
1.99632e-05
3.99057e-05
6.42746e-07
3.86301e-05
-1.79435e-05
3.7168e-05
-3.56623e-05
3.54326e-05
-5.23335e-05
3.33382e-05
-6.79291e-05
3.11884e-05
-8.23878e-05
2.89154e-05
-9.56789e-05
2.65813e-05
-0.000107785
2.42118e-05
-0.00011868
2.17906e-05
-0.000128399
1.94411e-05
-0.000136988
1.71804e-05
-0.000144521
1.50696e-05
-0.000151069
1.31017e-05
-0.00015666
1.11859e-05
-0.000161343
9.36942e-06
-0.000165256
7.8265e-06
-0.000168421
6.33189e-06
-0.000170868
4.90043e-06
-0.000172663
3.58902e-06
-0.000173804
2.27063e-06
-0.000174289
9.67162e-07
-0.000174232
-1.13289e-07
-0.000173695
-1.0764e-06
-0.000172662
-2.06942e-06
-0.000171086
-3.15342e-06
-0.000168926
-4.32421e-06
-0.000166186
-5.48137e-06
-0.000162785
-6.80585e-06
-0.00015875
-8.0737e-06
-0.000153996
-9.51213e-06
-0.000148404
-1.11879e-05
-0.000142063
-1.26854e-05
-0.000134866
-1.4399e-05
-0.000126616
-1.65037e-05
-0.000117474
-1.8289e-05
-0.000107127
-2.06986e-05
-9.59487e-05
-2.23569e-05
-8.37549e-05
-2.43965e-05
-7.02683e-05
-2.69719e-05
-5.58736e-05
-2.88072e-05
-4.0846e-05
-3.004e-05
-2.44711e-05
-3.27497e-05
-7.49015e-06
-3.39629e-05
1.04133e-05
-3.5786e-05
2.88144e-05
-3.67954e-05
4.73922e-05
-3.7149e-05
6.62767e-05
-3.77607e-05
8.50796e-05
-3.75964e-05
0.000103474
-3.6779e-05
0.000121331
-3.57039e-05
0.000138364
-3.4054e-05
0.000154368
-3.19992e-05
0.000169072
-2.93976e-05
0.000182129
-2.61098e-05
0.000193226
-2.22033e-05
0.000202201
-1.79582e-05
0.000208776
-1.31451e-05
0.000212981
-8.38856e-06
0.000214531
-3.08811e-06
0.000213555
1.94236e-06
0.000210421
6.28461e-06
0.000205025
1.08062e-05
0.000197691
1.46669e-05
0.000188348
1.86829e-05
0.000177043
2.26027e-05
0.000164319
2.5444e-05
0.000150245
2.81437e-05
0.000135096
3.02925e-05
0.000119198
3.17827e-05
0.000102515
3.33576e-05
8.54061e-05
3.42008e-05
6.82297e-05
3.43451e-05
5.10431e-05
3.43655e-05
3.40743e-05
3.3929e-05
1.7472e-05
3.3199e-05
1.30505e-06
3.23262e-05
-1.40022e-05
3.06131e-05
-2.85509e-05
2.90949e-05
-4.22341e-05
2.73643e-05
-5.50613e-05
2.56532e-05
-6.7019e-05
2.39147e-05
-7.80964e-05
2.21542e-05
-8.82854e-05
2.03782e-05
-9.75728e-05
1.85755e-05
-0.000105969
1.67938e-05
-0.000113508
1.50797e-05
-0.000120229
1.34441e-05
-0.000126165
1.18752e-05
-0.000131313
1.02999e-05
-0.00013568
8.75159e-06
-0.000139335
7.32377e-06
-0.000142322
5.95655e-06
-0.000144614
4.57694e-06
-0.000146214
3.22359e-06
-0.000147131
1.8481e-06
-0.000147413
5.34403e-07
-0.000147142
-5.67309e-07
-0.000146287
-1.71412e-06
-0.000144849
-2.87743e-06
-0.000142806
-4.08793e-06
-0.000140123
-5.36608e-06
-0.000136842
-6.56349e-06
-0.00013293
-7.827e-06
-0.000128324
-9.21414e-06
-0.000123083
-1.04828e-05
-0.000117106
-1.19571e-05
-0.000110493
-1.32273e-05
-0.000103202
-1.45833e-05
-9.51143e-05
-1.61781e-05
-8.63732e-05
-1.7484e-05
-7.69992e-05
-1.87481e-05
-6.68228e-05
-2.03545e-05
-5.60388e-05
-2.15671e-05
-4.45719e-05
-2.29366e-05
-3.25369e-05
-2.40644e-05
-2.00022e-05
-2.5065e-05
-6.83028e-06
-2.63394e-05
6.70573e-06
-2.70703e-05
2.04501e-05
-2.74862e-05
3.45018e-05
-2.80996e-05
4.85936e-05
-2.8179e-05
6.25559e-05
-2.79194e-05
7.6388e-05
-2.76584e-05
8.98407e-05
-2.68993e-05
0.000102835
-2.59823e-05
0.00011517
-2.46644e-05
0.000126699
-2.30505e-05
0.000137355
-2.13271e-05
0.000146889
-1.90817e-05
0.000155202
-1.66069e-05
0.000162191
-1.39648e-05
0.00016774
-1.10985e-05
0.000171757
-8.02939e-06
0.000174175
-4.83473e-06
0.000174939
-1.53026e-06
0.000174163
1.55226e-06
0.000171922
4.49475e-06
0.000168287
7.27723e-06
0.000163391
9.7897e-06
0.000157228
1.23227e-05
0.000150016
1.44204e-05
0.000141802
1.64236e-05
0.000132704
1.81915e-05
0.000123002
1.93989e-05
0.000112751
2.04982e-05
0.000102075
2.13482e-05
9.12191e-05
2.17077e-05
8.02118e-05
2.20108e-05
6.91282e-05
2.21622e-05
5.81915e-05
2.18683e-05
4.748e-05
2.14202e-05
3.70273e-05
2.09046e-05
2.70988e-05
1.98452e-05
1.7607e-05
1.89792e-05
8.69727e-06
1.78158e-05
3.92408e-07
1.66094e-05
-7.26102e-06
1.53073e-05
-1.42591e-05
1.3996e-05
-2.0611e-05
1.2704e-05
-2.63021e-05
1.13826e-05
-3.12804e-05
9.95709e-06
-3.55526e-05
8.54483e-06
-3.91756e-05
7.24675e-06
-4.21368e-05
5.92636e-06
-4.44728e-05
4.67731e-06
-4.61667e-05
3.38858e-06
-4.72546e-05
2.17309e-06
-4.77657e-05
1.01888e-06
-4.77597e-05
-1.39333e-08
-4.72642e-05
-9.91349e-07
-4.62899e-05
-1.94816e-06
-4.48625e-05
-2.85442e-06
-3.72971e-06
-4.63198e-05
-4.1251e-05
-3.13906e-05
-4.47938e-05
-1.55067e-05
-4.76245e-05
9.87306e-07
-4.94865e-05
1.82906e-05
-5.18874e-05
3.59357e-05
-5.29027e-05
5.41472e-05
-5.4595e-05
7.24012e-05
-5.47189e-05
9.04421e-05
-5.40779e-05
0.000108391
-5.37982e-05
0.000125746
-5.20156e-05
0.000142213
-4.93866e-05
0.00015775
-4.66143e-05
0.00017202
-4.28322e-05
0.000184789
-3.83538e-05
0.000195731
-3.28994e-05
0.000204591
-2.6657e-05
0.000211165
-1.97632e-05
0.00021532
-1.24523e-05
0.000216958
-4.79468e-06
0.000216224
2.39683e-06
0.000213079
9.59519e-06
0.000207528
1.67067e-05
0.000199883
2.29189e-05
0.000190034
2.95149e-05
0.000178426
3.47859e-05
0.000165028
4.01509e-05
0.000149987
4.5076e-05
0.000133908
4.81881e-05
0.000116753
5.14167e-05
9.87793e-05
5.38756e-05
8.04393e-05
5.49678e-05
6.18358e-05
5.57449e-05
4.34324e-05
5.5137e-05
2.51368e-05
5.48599e-05
7.16551e-06
5.38936e-05
-1.02263e-05
5.21694e-05
-2.69268e-05
5.00935e-05
-4.28646e-05
4.78024e-05
-5.78962e-05
4.50851e-05
-7.20454e-05
4.24413e-05
-8.52183e-05
3.95151e-05
-9.74541e-05
3.67064e-05
-0.000108731
3.38329e-05
-0.000119036
3.09167e-05
-0.00012841
2.81279e-05
-0.000136868
2.53791e-05
-0.000144433
2.27138e-05
-0.000151153
2.02106e-05
-0.000157059
1.77753e-05
-0.000162182
1.5374e-05
-0.000166525
1.30103e-05
-0.000170076
1.07181e-05
-0.000172901
8.55167e-06
-0.000175031
6.35482e-06
-0.00017641
4.04156e-06
-0.000177035
1.81438e-06
-0.000176992
-1.47419e-07
-0.000176329
-1.99837e-06
-0.000175029
-3.9102e-06
-0.000173022
-6.03153e-06
-0.000170322
-8.10818e-06
-0.000166869
-1.03667e-05
-0.000162581
-1.28748e-05
-0.000157516
-1.52022e-05
-0.000151596
-1.77687e-05
-0.000144688
-2.07314e-05
-0.000136916
-2.33231e-05
-0.00012807
-2.65452e-05
-0.000118377
-2.90833e-05
-0.000107737
-3.19271e-05
-9.59843e-05
-3.52629e-05
-8.3241e-05
-3.82707e-05
-6.98627e-05
-4.00544e-05
-5.51048e-05
-4.43015e-05
-3.96761e-05
-4.62546e-05
-2.31758e-05
-4.94882e-05
-6.05247e-06
-5.13505e-05
1.15109e-05
-5.26755e-05
2.98407e-05
-5.4959e-05
4.8488e-05
-5.59035e-05
6.71371e-05
-5.59056e-05
8.58263e-05
-5.60208e-05
0.000104207
-5.50927e-05
0.000121981
-5.32745e-05
0.000138959
-5.08862e-05
0.000154913
-4.78342e-05
0.000169649
-4.42616e-05
0.000182782
-3.94984e-05
0.000194126
-3.40975e-05
0.000203412
-2.79074e-05
0.000210472
-2.12013e-05
0.000215045
-1.37423e-05
0.000217229
-6.46005e-06
0.000216921
1.09034e-06
0.000214402
7.74635e-06
0.000209557
1.46261e-05
0.000202246
2.19273e-05
0.00019295
2.78595e-05
0.000181619
3.39578e-05
0.00016833
3.98236e-05
0.000153667
4.39409e-05
0.000137757
4.76789e-05
0.000121068
4.99606e-05
0.000103424
5.29219e-05
8.50905e-05
5.49408e-05
6.6737e-05
5.50169e-05
4.83146e-05
5.51666e-05
3.01075e-05
5.46456e-05
1.23775e-05
5.31587e-05
-4.81779e-06
5.15645e-05
-2.13285e-05
4.95166e-05
-3.7019e-05
4.70603e-05
-5.18917e-05
4.46118e-05
-6.58653e-05
4.19178e-05
-7.89731e-05
3.9323e-05
-9.11992e-05
3.66792e-05
-0.00010253
3.39956e-05
-0.000113008
3.14363e-05
-0.000122645
2.8917e-05
-0.000131461
2.64525e-05
-0.000139495
2.41093e-05
-0.000146772
2.18413e-05
-0.000153339
1.9721e-05
-0.000159239
1.77459e-05
-0.000164505
1.58544e-05
-0.000169077
1.3725e-05
-0.000172945
1.15811e-05
-0.000176092
9.44144e-06
-0.000178513
7.26015e-06
-0.000180133
4.8105e-06
-0.000180914
2.285e-06
-0.000180912
-2.6989e-08
-0.000180169
-2.24283e-06
-0.000178651
-4.56763e-06
-0.000176268
-7.15919e-06
-0.000172935
-1.00069e-05
-0.000168692
-1.27376e-05
-0.000163404
-1.58714e-05
-0.000157201
-1.86155e-05
-0.000149997
-2.16138e-05
-0.000141656
-2.50221e-05
-0.000132436
-2.76571e-05
-0.000122285
-3.04501e-05
-0.000111011
-3.38139e-05
-9.89854e-05
-3.60723e-05
-8.61308e-05
-3.85586e-05
-7.22959e-05
-4.14979e-05
-5.78553e-05
-4.33004e-05
-4.25466e-05
-4.59083e-05
-2.67725e-05
-4.73042e-05
-1.06713e-05
-4.82871e-05
6.02783e-06
-5.00806e-05
2.299e-05
-5.08692e-05
4.00238e-05
-5.10822e-05
5.73159e-05
-5.18519e-05
7.45143e-05
-5.15692e-05
9.16507e-05
-5.13797e-05
0.000108486
-5.04732e-05
0.0001248
-4.89095e-05
0.000140497
-4.7051e-05
0.000155397
-4.46896e-05
0.0001694
-4.2016e-05
0.000182118
-3.82388e-05
0.000193192
-3.33875e-05
0.000202543
-2.81328e-05
0.000209892
-2.20847e-05
0.000214902
-1.50618e-05
0.000217609
-7.99744e-06
0.000217835
-4.26058e-07
0.000215489
7.24478e-06
0.000210898
1.38878e-05
0.000203907
2.09932e-05
0.000194343
2.86731e-05
0.000182789
3.46312e-05
0.000169089
4.10587e-05
0.000153808
4.57954e-05
0.000137043
5.02444e-05
0.000118855
5.4515e-05
9.97953e-05
5.70917e-05
8.00951e-05
5.90386e-05
6.00071e-05
6.01995e-05
3.98847e-05
6.02901e-05
1.99206e-05
5.98698e-05
5.85253e-07
5.79654e-05
-1.80141e-05
5.57673e-05
-3.57432e-05
5.31616e-05
-5.24217e-05
5.00167e-05
-6.80221e-05
4.67889e-05
-8.24834e-05
4.33766e-05
-9.5775e-05
3.98729e-05
-0.000107879
3.63157e-05
-0.00011877
3.26818e-05
-0.000128485
2.91556e-05
-0.000137066
2.57623e-05
-0.000144587
2.25897e-05
-0.000151109
1.96246e-05
-0.000156682
1.67585e-05
-0.000161368
1.40555e-05
-0.000165256
1.17141e-05
-0.000168389
9.46496e-06
-0.000170856
7.36821e-06
-0.000172636
5.36815e-06
-0.00017376
3.39508e-06
-0.000174291
1.49758e-06
-0.000174269
-1.35006e-07
-0.000173735
-1.60989e-06
-0.000172705
-3.09995e-06
-0.000171131
-4.727e-06
-0.000168973
-6.4826e-06
-0.000166237
-8.21765e-06
-0.000162839
-1.02036e-05
-0.000158808
-1.21052e-05
-0.000154057
-1.42626e-05
-0.000148469
-1.67759e-05
-0.000142133
-1.9022e-05
-0.000134939
-2.15926e-05
-0.000126693
-2.47502e-05
-0.000117554
-2.74285e-05
-0.000107209
-3.10438e-05
-9.60266e-05
-3.35391e-05
-8.38443e-05
-3.65789e-05
-7.03535e-05
-4.04629e-05
-5.59753e-05
-4.31857e-05
-4.09262e-05
-4.50893e-05
-2.45466e-05
-4.91296e-05
-7.5559e-06
-5.09538e-05
1.03699e-05
-5.37121e-05
2.8788e-05
-5.52138e-05
4.73818e-05
-5.5743e-05
6.62843e-05
-5.66636e-05
8.51066e-05
-5.6419e-05
0.000103521
-5.51938e-05
0.000121398
-5.35812e-05
0.000138451
-5.11073e-05
0.000154451
-4.79994e-05
0.000169129
-4.40756e-05
0.000182137
-3.91179e-05
0.000193156
-3.32231e-05
0.000202073
-2.68747e-05
0.000208612
-1.96843e-05
0.000212832
-1.26091e-05
0.00021449
-4.7464e-06
0.000213621
2.81108e-06
0.000210565
9.34048e-06
0.00020519
1.61806e-05
0.000197849
2.20084e-05
0.000188492
2.80399e-05
0.000177171
3.39235e-05
0.000164428
3.81862e-05
0.000150339
4.22328e-05
0.00013517
4.54615e-05
0.000119252
4.77007e-05
0.000102551
5.0058e-05
8.54112e-05
5.13408e-05
6.82206e-05
5.15356e-05
5.10133e-05
5.15727e-05
3.40275e-05
5.09148e-05
1.74123e-05
4.98141e-05
1.25069e-06
4.84878e-05
-1.40638e-05
4.59275e-05
-2.86176e-05
4.36487e-05
-4.23042e-05
4.10508e-05
-5.51331e-05
3.84821e-05
-6.70915e-05
3.5873e-05
-7.81688e-05
3.32314e-05
-8.8356e-05
3.05654e-05
-9.76409e-05
2.78604e-05
-0.000106034
2.51871e-05
-0.000113569
2.26147e-05
-0.000120282
2.0157e-05
-0.000126201
1.77937e-05
-0.000131335
1.54345e-05
-0.000135706
1.31227e-05
-0.000139353
1.09707e-05
-0.000142328
8.93103e-06
-0.000144623
6.87168e-06
-0.000146241
4.84184e-06
-0.000147175
2.78247e-06
-0.000147457
8.16165e-07
-0.000147187
-8.37119e-07
-0.000146334
-2.56725e-06
-0.000144897
-4.31451e-06
-0.000142854
-6.13049e-06
-0.000140173
-8.04752e-06
-0.000136893
-9.84349e-06
-0.000132981
-1.17387e-05
-0.000128376
-1.38193e-05
-0.000123137
-1.57221e-05
-0.000117161
-1.79335e-05
-0.000110549
-1.9839e-05
-0.000103259
-2.18735e-05
-9.51706e-05
-2.42662e-05
-8.64291e-05
-2.62256e-05
-7.70525e-05
-2.81247e-05
-6.68759e-05
-3.05311e-05
-5.6089e-05
-3.23541e-05
-4.46221e-05
-3.44036e-05
-3.25813e-05
-3.61053e-05
-2.00406e-05
-3.76057e-05
-6.86207e-06
-3.9518e-05
6.68288e-06
-4.06153e-05
2.04355e-05
-4.12389e-05
3.44969e-05
-4.2161e-05
4.85991e-05
-4.22813e-05
6.25724e-05
-4.18927e-05
7.64163e-05
-4.15025e-05
8.9881e-05
-4.03641e-05
0.000102887
-3.89887e-05
0.000115235
-3.70118e-05
0.000126767
-3.45834e-05
0.000137419
-3.19791e-05
0.000146926
-2.85881e-05
0.0001552
-2.48811e-05
0.000162182
-2.09472e-05
0.000167719
-1.66354e-05
0.000171717
-1.20278e-05
0.000174144
-7.26141e-06
0.000174947
-2.33352e-06
0.000174219
2.27996e-06
0.000172017
6.6971e-06
0.00016839
1.09039e-05
0.000163489
1.4691e-05
0.000157317
1.84947e-05
0.000150094
2.16429e-05
0.000141869
2.46488e-05
0.000132759
2.73015e-05
0.000123045
2.91122e-05
0.000112783
3.07609e-05
0.000102095
3.20355e-05
9.12292e-05
3.25737e-05
8.02121e-05
3.30279e-05
6.91181e-05
3.32562e-05
5.81714e-05
3.2815e-05
4.74567e-05
3.21349e-05
3.70093e-05
3.1352e-05
2.706e-05
2.97945e-05
1.75628e-05
2.84764e-05
8.64906e-06
2.67295e-05
3.43381e-07
2.49151e-05
-7.31277e-06
2.29635e-05
-1.43121e-05
2.09954e-05
-2.06643e-05
1.90561e-05
-2.63531e-05
1.70714e-05
-3.13285e-05
1.49325e-05
-3.5598e-05
1.28143e-05
-3.92183e-05
1.08671e-05
-4.2179e-05
8.88701e-06
-4.45153e-05
7.01362e-06
-4.62079e-05
5.08123e-06
-4.72937e-05
3.25883e-06
-4.78029e-05
1.52813e-06
-4.77982e-05
-1.86852e-08
-4.73022e-05
-1.48729e-06
-4.63261e-05
-2.92427e-06
-4.48967e-05
-4.28387e-06
-5.597e-06
-4.64247e-05
-5.50104e-05
-3.14991e-05
-5.97199e-05
-1.55987e-05
-6.35253e-05
9.04655e-07
-6.59902e-05
1.82226e-05
-6.92056e-05
3.58867e-05
-7.05672e-05
5.41225e-05
-7.2831e-05
7.24031e-05
-7.29998e-05
9.04716e-05
-7.21467e-05
0.00010845
-7.17774e-05
0.000125835
-6.94007e-05
0.000142333
-6.58841e-05
0.000157875
-6.21574e-05
0.000172113
-5.70703e-05
0.000184841
-5.10823e-05
0.000195746
-4.38045e-05
0.000204607
-3.55177e-05
0.000211181
-2.63378e-05
0.000215332
-1.66031e-05
0.000217018
-6.48156e-06
0.000216386
3.0287e-06
0.00021332
1.26614e-05
0.000207787
2.224e-05
0.00020013
3.05751e-05
0.000190261
3.93838e-05
0.000178629
4.64177e-05
0.000165204
5.3576e-05
0.000150133
6.01471e-05
0.000134024
6.42969e-05
0.000116838
6.86023e-05
9.88346e-05
7.18791e-05
8.04647e-05
7.33377e-05
6.18229e-05
7.43866e-05
4.33678e-05
7.35919e-05
2.50613e-05
7.31664e-05
7.07941e-06
7.18754e-05
-1.03138e-05
6.95625e-05
-2.702e-05
6.67997e-05
-4.29651e-05
6.37474e-05
-5.80025e-05
6.01225e-05
-7.21555e-05
5.65944e-05
-8.53305e-05
5.26901e-05
-9.75668e-05
4.89427e-05
-0.000108843
4.51094e-05
-0.000119146
4.12194e-05
-0.000128518
3.74995e-05
-0.000136971
3.38328e-05
-0.000144529
3.02711e-05
-0.000151228
2.69099e-05
-0.000157099
2.36463e-05
-0.000162173
2.04487e-05
-0.000166483
1.73203e-05
-0.000170034
1.4269e-05
-0.000172842
1.13588e-05
-0.000174913
8.42657e-06
-0.000176276
5.40445e-06
-0.000176976
2.51407e-06
-0.000177029
-9.44211e-08
-0.000176405
-2.62203e-06
-0.000175111
-5.20483e-06
-0.000173107
-8.03555e-06
-0.000170411
-1.08038e-05
-0.000166963
-1.38149e-05
-0.000162679
-1.71588e-05
-0.000157619
-2.02626e-05
-0.000151702
-2.36855e-05
-0.000144797
-2.76363e-05
-0.000137028
-3.10927e-05
-0.000128184
-3.53895e-05
-0.000118494
-3.87732e-05
-0.000107854
-4.25666e-05
-9.61024e-05
-4.70149e-05
-8.33811e-05
-5.09923e-05
-6.99541e-05
-5.34815e-05
-5.5214e-05
-5.90418e-05
-3.97655e-05
-6.17033e-05
-2.32569e-05
-6.5997e-05
-6.12186e-06
-6.84858e-05
1.14507e-05
-7.02483e-05
2.98003e-05
-7.33088e-05
4.84716e-05
-7.45751e-05
6.71464e-05
-7.45806e-05
8.58642e-05
-7.47388e-05
0.000104275
-7.35033e-05
0.000122078
-7.1078e-05
0.000139083
-6.7892e-05
0.000155056
-6.38069e-05
0.000169795
-5.90012e-05
0.000182912
-5.26151e-05
0.000194211
-4.53975e-05
0.000203437
-3.71335e-05
0.000210452
-2.82165e-05
0.000214988
-1.82782e-05
0.00021723
-8.70188e-06
0.000217043
1.27678e-06
0.00021463
1.01594e-05
0.000209822
1.94339e-05
0.000202502
2.92472e-05
0.000193188
3.71731e-05
0.000181834
4.53126e-05
0.000168517
5.31405e-05
0.000153822
5.86355e-05
0.00013788
6.36203e-05
0.000121121
6.672e-05
0.000103475
7.05681e-05