/*--------------------------------*- C++ -*----------------------------------*\
| =========                 |                                                 |
| \\      /  F ield         | OpenFOAM: The Open Source CFD Toolbox           |
|  \\    /   O peration     | Version:  3.0.1                                 |
|   \\  /    A nd           | Web:      www.OpenFOAM.org                      |
|    \\/     M anipulation  |                                                 |
\*---------------------------------------------------------------------------*/
FoamFile
{
    version     2.0;
    format      ascii;
    class       surfaceScalarField;
    location    "54.2";
    object      phi;
}
// * * * * * * * * * * * * * * * * * * * * * * * * * * * * * * * * * * * * * //

dimensions      [0 3 -1 0 0 0 0];

internalField   nonuniform List<scalar> 
42423
(
0.000107629
1.60727e-05
9.20909e-05
1.55384e-05
7.69623e-05
1.51286e-05
6.23078e-05
1.46544e-05
4.83204e-05
1.39874e-05
3.4927e-05
1.33935e-05
2.2239e-05
1.26879e-05
1.02662e-05
1.19728e-05
-1.00058e-06
1.12668e-05
-1.15037e-05
1.05031e-05
-2.12197e-05
9.71597e-06
-3.01551e-05
8.93545e-06
-3.83126e-05
8.15744e-06
-4.57271e-05
7.41453e-06
-5.2418e-05
6.69092e-06
-5.84233e-05
6.00529e-06
-6.37724e-05
5.3491e-06
-6.84987e-05
4.72627e-06
-7.26188e-05
4.12007e-06
-7.6177e-05
3.55822e-06
-7.91682e-05
2.99122e-06
-8.16167e-05
2.44849e-06
-8.35062e-05
1.88942e-06
-8.48492e-05
1.34301e-06
-8.5647e-05
7.97819e-07
-8.58602e-05
2.13168e-07
-8.54641e-05
-3.96068e-07
-8.45078e-05
-9.56355e-07
-8.29067e-05
-1.60114e-06
-8.06064e-05
-2.30025e-06
-7.76925e-05
-2.91395e-06
-7.40114e-05
-3.68113e-06
-6.96369e-05
-4.37453e-06
-6.44332e-05
-5.20366e-06
-5.84096e-05
-6.02361e-06
-5.16632e-05
-6.74645e-06
-4.39895e-05
-7.67381e-06
-3.54043e-05
-8.58517e-06
-2.60987e-05
-9.30568e-06
-1.55767e-05
-1.0522e-05
-4.37383e-06
-1.1203e-05
7.91485e-06
-1.22888e-05
2.11872e-05
-1.32724e-05
3.52042e-05
-1.40172e-05
5.0075e-05
-1.48709e-05
6.58538e-05
-1.57789e-05
8.21845e-05
-1.63308e-05
9.91374e-05
-1.69529e-05
0.000116666
-1.75292e-05
0.000134365
-1.76984e-05
0.000152249
-1.78848e-05
0.000170099
-1.78497e-05
0.000187695
-1.75959e-05
0.000204893
-1.71983e-05
0.000221269
-1.63763e-05
0.000236665
-1.53965e-05
0.000250977
-1.43121e-05
0.000263741
-1.27632e-05
0.00027495
-1.12098e-05
0.000284282
-9.33174e-06
0.000291671
-7.38932e-06
0.000297084
-5.41339e-06
0.000300166
-3.08204e-06
0.00030106
-8.93901e-07
0.000299829
1.23104e-06
0.000296101
3.7279e-06
0.000290172
5.92852e-06
0.000282103
8.06916e-06
0.00027203
1.00731e-05
0.000260108
1.19213e-05
0.000246373
1.37355e-05
0.000231042
1.53307e-05
0.000214249
1.6793e-05
0.000196116
1.8133e-05
0.000176932
1.91838e-05
0.000156856
2.00756e-05
0.000136281
2.05753e-05
0.000115438
2.08434e-05
9.46012e-05
2.08364e-05
7.40995e-05
2.05017e-05
5.42215e-05
1.98779e-05
3.51876e-05
1.90338e-05
1.73009e-05
1.78867e-05
1.01711e-06
1.62838e-05
-1.4644e-05
1.56611e-05
-2.89606e-05
1.43166e-05
-4.21031e-05
1.31425e-05
-5.40801e-05
1.1977e-05
-6.49266e-05
1.08464e-05
-7.46856e-05
9.75904e-06
-8.34329e-05
8.74725e-06
-9.11489e-05
7.71603e-06
-9.79228e-05
6.77384e-06
-0.000103843
5.91974e-06
-0.000108846
5.00395e-06
-0.000113045
4.19886e-06
-0.000116503
3.45774e-06
-0.000119131
2.62739e-06
-0.000121056
1.9254e-06
-0.000122279
1.22327e-06
-0.00012276
4.81264e-07
-0.000122636
-1.24788e-07
-0.000121757
-8.78682e-07
-0.000120169
-1.58776e-06
-0.000117759
-2.41022e-06
-0.000114542
-3.21678e-06
-0.000110396
-4.14582e-06
-0.000105361
-5.0351e-06
-9.94688e-05
-5.89258e-06
-9.27444e-05
-6.72442e-06
-8.52736e-05
-7.47086e-06
-7.73075e-05
-7.96613e-06
-6.87226e-05
-8.5849e-06
-5.96451e-05
-9.07754e-06
-5.00798e-05
-9.56533e-06
-4.00122e-05
-1.00676e-05
-2.93773e-05
-1.0635e-05
-1.81259e-05
-1.12514e-05
-6.28157e-06
-1.18444e-05
6.15011e-06
-1.24318e-05
1.9365e-05
-1.32149e-05
3.33375e-05
-1.39726e-05
4.8005e-05
-1.46677e-05
6.33378e-05
-1.53329e-05
7.92986e-05
-1.5961e-05
9.5811e-05
-1.65125e-05
0.000112812
-1.70007e-05
0.000130131
-1.73192e-05
0.000147635
-1.75041e-05
0.000165183
-1.75486e-05
0.000182589
-1.74064e-05
0.000199617
-1.70282e-05
0.000216081
-1.64643e-05
0.000231704
-1.56229e-05
0.000246268
-1.45634e-05
0.000259553
-1.32859e-05
0.000271203
-1.16502e-05
0.000281131
-9.92768e-06
0.000288989
-7.85799e-06
0.000294684
-5.6959e-06
0.000298065
-3.38091e-06
0.000299044
-9.78488e-07
0.000297539
1.50497e-06
0.000293529
4.00957e-06
0.000287147
6.38191e-06
0.000278527
8.61932e-06
0.00026781
1.07176e-05
0.000255248
1.25614e-05
0.000241006
1.42424e-05
0.000225397
1.56085e-05
0.000208705
1.66921e-05
0.000191141
1.75641e-05
0.000173057
1.80832e-05
0.000154512
1.85451e-05
0.000135929
1.85835e-05
0.000117464
1.8465e-05
9.94044e-05
1.80592e-05
8.17903e-05
1.7614e-05
6.49403e-05
1.685e-05
4.89148e-05
1.60255e-05
3.38821e-05
1.50327e-05
1.96909e-05
1.41912e-05
6.56589e-06
1.3125e-05
-5.47586e-06
1.20417e-05
-1.65315e-05
1.10556e-05
-2.66011e-05
1.00695e-05
-3.57601e-05
9.15902e-06
-4.3994e-05
8.23387e-06
-5.1481e-05
7.487e-06
-5.81224e-05
6.64142e-06
-6.40857e-05
5.96322e-06
-6.92925e-05
5.20686e-06
-7.39005e-05
4.6079e-06
-7.79023e-05
4.00188e-06
-8.12945e-05
3.39216e-06
-8.41013e-05
2.80682e-06
-8.63265e-05
2.22511e-06
-8.79612e-05
1.63471e-06
-8.89797e-05
1.01853e-06
-8.94035e-05
4.23824e-07
-8.92063e-05
-1.97208e-07
-8.84498e-05
-7.56533e-07
-8.70453e-05
-1.4045e-06
-8.50009e-05
-2.04445e-06
-8.22697e-05
-2.73114e-06
-7.88201e-05
-3.44962e-06
-7.47402e-05
-4.07997e-06
-6.99935e-05
-4.74662e-06
-6.45912e-05
-5.40239e-06
-5.83358e-05
-6.25536e-06
-5.14611e-05
-6.87473e-06
-4.37853e-05
-7.67584e-06
-3.52442e-05
-8.54106e-06
-2.59641e-05
-9.28013e-06
-1.57818e-05
-1.01824e-05
-4.84065e-06
-1.09412e-05
7.01073e-06
-1.18514e-05
1.97239e-05
-1.27132e-05
3.33037e-05
-1.35798e-05
4.77382e-05
-1.44346e-05
6.29621e-05
-1.5224e-05
7.89348e-05
-1.59727e-05
9.55256e-05
-1.65909e-05
0.000112673
-1.71478e-05
0.000130267
-1.75934e-05
0.000148126
-1.78592e-05
0.000166119
-1.79936e-05
0.000184042
-1.79225e-05
0.000201722
-1.76807e-05
0.000218869
-1.71474e-05
0.000235282
-1.64125e-05
0.000250686
-1.54041e-05
0.000264824
-1.41385e-05
0.000277405
-1.25808e-05
0.000288176
-1.07715e-05
0.000296905
-8.72895e-06
0.000303441
-6.53567e-06
0.00030751
-4.06965e-06
0.000309107
-1.59667e-06
0.000308232
8.74921e-07
0.000304703
3.52901e-06
0.000298576
6.12642e-06
0.000290095
8.48061e-06
0.000279444
1.06515e-05
0.000266718
1.27256e-05
0.000252291
1.44275e-05
0.000236442
1.58482e-05
0.000219443
1.69998e-05
0.000201578
1.78647e-05
0.000183179
1.83984e-05
0.000164452
1.87275e-05
0.000145671
1.87804e-05
0.000127009
1.86627e-05
0.000108764
1.82444e-05
9.10484e-05
1.77159e-05
7.41155e-05
1.69328e-05
5.79453e-05
1.61702e-05
4.26945e-05
1.52508e-05
2.83591e-05
1.43355e-05
1.50596e-05
1.32995e-05
2.62497e-06
1.24346e-05
-8.78146e-06
1.14064e-05
-1.9239e-05
1.04575e-05
-2.87509e-05
9.51187e-06
-3.73362e-05
8.5853e-06
-4.50806e-05
7.74435e-06
-5.1937e-05
6.85637e-06
-5.79736e-05
6.03665e-06
-6.32151e-05
5.24148e-06
-6.76613e-05
4.44618e-06
-7.1349e-05
3.68774e-06
-7.43152e-05
2.96614e-06
-7.65255e-05
2.21034e-06
-7.79708e-05
1.44529e-06
-7.8767e-05
7.96117e-07
-7.88252e-05
5.82273e-08
-7.81674e-05
-6.57826e-07
-7.68316e-05
-1.33575e-06
-7.48606e-05
-1.97106e-06
-7.23183e-05
-2.54222e-06
-6.92721e-05
-3.04627e-06
-6.57345e-05
-3.53762e-06
-6.17506e-05
-3.98384e-06
-5.73687e-05
-4.38193e-06
-5.24296e-05
-4.93912e-06
-4.71264e-05
-5.30317e-06
-4.11581e-05
-5.96833e-06
-3.46307e-05
-6.52738e-06
-2.75246e-05
-7.10611e-06
-1.9819e-05
-7.7057e-06
-1.15388e-05
-8.28018e-06
-2.55487e-06
-8.984e-06
7.18804e-06
-9.74295e-06
1.77792e-05
-1.05913e-05
2.94178e-05
-1.16386e-05
4.21799e-05
-1.27622e-05
5.61475e-05
-1.39677e-05
7.16663e-05
-1.55189e-05
8.85162e-05
-1.685e-05
0.000106614
-1.80979e-05
0.000125775
-1.91609e-05
0.00014576
-1.99854e-05
0.000166435
-2.06752e-05
0.000187515
-2.10806e-05
0.000208592
-2.10767e-05
0.000229566
-2.0974e-05
0.000249861
-2.0295e-05
0.000269241
-1.93802e-05
0.000287254
-1.80136e-05
0.000303524
-1.62701e-05
0.000317901
-1.43768e-05
0.000329831
-1.19307e-05
0.000339072
-9.24112e-06
0.000345583
-6.51072e-06
0.000348329
-2.74644e-06
0.0003474
9.28826e-07
0.00034371
3.68977e-06
0.000337797
5.91276e-06
0.000329837
7.95984e-06
0.00031953
1.03074e-05
0.000307338
1.2191e-05
0.000293386
1.39525e-05
0.000277796
1.55901e-05
0.000261181
1.66146e-05
0.000243688
1.74929e-05
0.000225495
1.81928e-05
0.000207106
1.83884e-05
0.000188571
1.85355e-05
0.000170258
1.83122e-05
0.000152215
1.80431e-05
0.00013456
1.76553e-05
0.000117572
1.69881e-05
0.000101271
1.63009e-05
8.5745e-05
1.55255e-05
7.11542e-05
1.45907e-05
5.74888e-05
1.36654e-05
4.48588e-05
1.263e-05
3.31916e-05
1.16672e-05
2.24915e-05
1.07001e-05
1.27497e-05
9.74172e-06
3.86692e-06
8.88279e-06
-4.23869e-06
8.10559e-06
-1.15938e-05
7.3551e-06
-1.82646e-05
6.67075e-06
-2.43083e-05
6.04374e-06
-2.97891e-05
5.48084e-06
-3.47514e-05
4.96228e-06
-3.92268e-05
4.4754e-06
-4.3246e-05
4.01919e-06
-4.68077e-05
3.56165e-06
-4.99045e-05
3.09678e-06
-5.25003e-05
2.59586e-06
-5.45718e-05
2.07146e-06
-5.60516e-05
1.47981e-06
-5.69158e-05
8.64219e-07
-5.71331e-05
2.17262e-07
-5.65791e-05
-5.53983e-07
-5.53043e-05
-1.27474e-06
-5.31775e-05
-2.12682e-06
-5.02126e-05
-2.96488e-06
-4.6435e-05
-3.77766e-06
-4.17226e-05
-4.71237e-06
-3.61524e-05
-5.57016e-06
-2.96398e-05
-6.51267e-06
-2.21237e-05
-7.51605e-06
-1.38514e-05
-8.27237e-06
-4.45157e-06
-9.3998e-06
5.83435e-06
-1.02859e-05
1.68747e-05
-1.10404e-05
2.88575e-05
-1.19828e-05
4.15527e-05
-1.26952e-05
5.51098e-05
-1.3557e-05
6.93182e-05
-1.42085e-05
8.39994e-05
-1.46812e-05
9.9336e-05
-1.53366e-05
0.000115116
-1.57798e-05
-1.61956e-05
0.000107615
3.21487e-05
9.20741e-05
3.10795e-05
7.6943e-05
3.02597e-05
6.22859e-05
2.93116e-05
4.8296e-05
2.79772e-05
3.49002e-05
2.67893e-05
2.22089e-05
2.53792e-05
1.02353e-05
2.39465e-05
-1.03179e-06
2.25338e-05
-1.15346e-05
2.10059e-05
-2.12511e-05
1.94325e-05
-3.01859e-05
1.78703e-05
-3.83427e-05
1.63142e-05
-4.57581e-05
1.48299e-05
-5.24496e-05
1.33825e-05
-5.84556e-05
1.20112e-05
-6.3804e-05
1.06975e-05
-6.85303e-05
9.45253e-06
-7.2649e-05
8.23882e-06
-7.62069e-05
7.11609e-06
-7.91984e-05
5.98267e-06
-8.16481e-05
4.89821e-06
-8.35398e-05
3.78107e-06
-8.4886e-05
2.68922e-06
-8.5683e-05
1.5948e-06
-8.58955e-05
4.2572e-07
-8.55009e-05
-7.90751e-07
-8.45429e-05
-1.91435e-06
-8.29364e-05
-3.20765e-06
-8.06411e-05
-4.59562e-06
-7.77332e-05
-5.82185e-06
-7.40526e-05
-7.36183e-06
-6.96795e-05
-8.74761e-06
-6.44745e-05
-1.04087e-05
-5.84502e-05
-1.2048e-05
-5.17042e-05
-1.34925e-05
-4.403e-05
-1.53481e-05
-3.54421e-05
-1.71732e-05
-2.61206e-05
-1.86273e-05
-1.56237e-05
-2.10191e-05
-4.40922e-06
-2.24176e-05
7.87093e-06
-2.45691e-05
2.11438e-05
-2.65455e-05
3.51613e-05
-2.80349e-05
5.00366e-05
-2.97464e-05
6.58225e-05
-3.1565e-05
8.21568e-05
-3.26653e-05
9.91119e-05
-3.39083e-05
0.000116654
-3.50717e-05
0.000134364
-3.5408e-05
0.000152257
-3.5778e-05
0.000170115
-3.57079e-05
0.00018772
-3.52014e-05
0.000204933
-3.44123e-05
0.000221323
-3.2766e-05
0.000236734
-3.08078e-05
0.000251061
-2.86398e-05
0.000263829
-2.55306e-05
0.000275052
-2.2434e-05
0.000284395
-1.86744e-05
0.000291801
-1.4796e-05
0.000297212
-1.08246e-05
0.000300296
-6.16548e-06
0.000301197
-1.79571e-06
0.000299957
2.47143e-06
0.000296227
7.45781e-06
0.000290298
1.18571e-05
0.000282223
1.61437e-05
0.000272143
2.01526e-05
0.000260214
2.38506e-05
0.00024647
2.74793e-05
0.000231133
3.06674e-05
0.000214338
3.35879e-05
0.000196199
3.62721e-05
0.000177013
3.83699e-05
0.000156938
4.01503e-05
0.000136367
4.11458e-05
0.000115522
4.16887e-05
9.46904e-05
4.16677e-05
7.42008e-05
4.09913e-05
5.4331e-05
3.97477e-05
3.53076e-05
3.80572e-05
1.74294e-05
3.57648e-05
1.09887e-06
3.26143e-05
-1.45019e-05
3.12618e-05
-2.87919e-05
2.86066e-05
-4.19253e-05
2.62758e-05
-5.38964e-05
2.39481e-05
-6.47349e-05
2.16849e-05
-7.44928e-05
1.95169e-05
-8.32379e-05
1.74923e-05
-9.09534e-05
1.54315e-05
-9.77248e-05
1.35453e-05
-0.000103679
1.18743e-05
-0.000108673
9.99747e-06
-0.000112875
8.40092e-06
-0.000116354
6.93677e-06
-0.000119001
5.2743e-06
-0.000120932
3.85617e-06
-0.00012218
2.47135e-06
-0.000122675
9.76774e-07
-0.000122572
-2.28064e-07
-0.000121716
-1.73491e-06
-0.000120143
-3.16021e-06
-0.000117753
-4.80072e-06
-0.000114551
-6.41878e-06
-0.000110424
-8.27316e-06
-0.000105407
-1.0052e-05
-9.95167e-05
-1.17827e-05
-9.27927e-05
-1.34485e-05
-8.53392e-05
-1.49245e-05
-7.73618e-05
-1.59436e-05
-6.87846e-05
-1.71621e-05
-5.97171e-05
-1.81451e-05
-5.01406e-05
-1.9142e-05
-4.00802e-05
-2.01281e-05
-2.94494e-05
-2.1266e-05
-1.82134e-05
-2.24875e-05
-6.38817e-06
-2.36698e-05
6.0657e-06
-2.48858e-05
1.92953e-05
-2.64447e-05
3.3279e-05
-2.79565e-05
4.79353e-05
-2.93242e-05
6.32779e-05
-3.06757e-05
7.92495e-05
-3.19329e-05
9.57716e-05
-3.30348e-05
0.000112771
-3.40003e-05
0.000130104
-3.46528e-05
0.000147618
-3.50178e-05
0.000165179
-3.51106e-05
0.000182596
-3.48232e-05
0.000199638
-3.40702e-05
0.000216104
-3.29311e-05
0.000231744
-3.12634e-05
0.000246319
-2.9138e-05
0.0002596
-2.65676e-05
0.000271278
-2.33286e-05
0.00028117
-1.982e-05
0.00028906
-1.57481e-05
0.000294758
-1.13944e-05
0.000298115
-6.73785e-06
0.000299074
-1.93766e-06
0.000297614
2.965e-06
0.000293575
8.04857e-06
0.000287192
1.27646e-05
0.000278551
1.72597e-05
0.000267831
2.14372e-05
0.000255236
2.51569e-05
0.000240988
2.84902e-05
0.000225383
3.12135e-05
0.000208652
3.34227e-05
0.00019107
3.51461e-05
0.000172937
3.62163e-05
0.000154482
3.69996e-05
0.000135876
3.71892e-05
0.000117372
3.69689e-05
9.92514e-05
3.61799e-05
8.16681e-05
3.51972e-05
6.48004e-05
3.37176e-05
4.87712e-05
3.20547e-05
3.37005e-05
3.01033e-05
1.96036e-05
2.82881e-05
6.44562e-06
2.62829e-05
-5.62526e-06
2.41126e-05
-1.66732e-05
2.21036e-05
-2.67512e-05
2.01474e-05
-3.58913e-05
1.82991e-05
-4.41245e-05
1.64671e-05
-5.16066e-05
1.49691e-05
-5.82431e-05
1.32779e-05
-6.42168e-05
1.19368e-05
-6.94367e-05
1.04267e-05
-7.40076e-05
9.17882e-06
-7.80247e-05
8.01899e-06
-8.14099e-05
6.77726e-06
-8.42189e-05
5.61587e-06
-8.64416e-05
4.4478e-06
-8.80735e-05
3.26655e-06
-8.90839e-05
2.02892e-06
-8.94754e-05
8.15358e-07
-8.93435e-05
-3.29174e-07
-8.85702e-05
-1.52984e-06
-8.7158e-05
-2.81673e-06
-8.51009e-05
-4.10149e-06
-8.236e-05
-5.47205e-06
-7.89079e-05
-6.90178e-06
-7.48326e-05
-8.15525e-06
-7.00747e-05
-9.50452e-06
-6.46698e-05
-1.08073e-05
-5.84196e-05
-1.25056e-05
-5.15483e-05
-1.3746e-05
-4.38651e-05
-1.53591e-05
-3.53372e-05
-1.7069e-05
-2.60459e-05
-1.85715e-05
-1.58627e-05
-2.03656e-05
-4.89404e-06
-2.19099e-05
6.95021e-06
-2.36958e-05
1.96682e-05
-2.54313e-05
3.32551e-05
-2.71669e-05
4.7692e-05
-2.88716e-05
6.29232e-05
-3.04553e-05
7.89038e-05
-3.19535e-05
9.55e-05
-3.31873e-05
0.000112655
-3.43028e-05
0.000130244
-3.51827e-05
0.00014811
-3.5725e-05
0.000166107
-3.59915e-05
0.000184042
-3.58575e-05
0.000201729
-3.53676e-05
0.000218889
-3.4308e-05
0.000235309
-3.28331e-05
0.000250723
-3.08179e-05
0.000264848
-2.8264e-05
0.000277449
-2.51813e-05
0.000288225
-2.15479e-05
0.000296954
-1.7458e-05
0.0003035
-1.30823e-05
0.000307564
-8.13337e-06
0.000309182
-3.21513e-06
0.000308269
1.78792e-06
0.000304751
7.04669e-06
0.000298614
1.22636e-05
0.000290119
1.69754e-05
0.000279422
2.13476e-05
0.000266706
2.54416e-05
0.000252272
2.88613e-05
0.000236404
3.17161e-05
0.000219405
3.39991e-05
0.000201531
3.57386e-05
0.000183139
3.679e-05
0.000164375
3.74915e-05
0.00014558
3.75747e-05
0.000126907
3.73358e-05
0.000108658
3.64939e-05
9.09337e-05
3.54398e-05
7.39852e-05
3.38813e-05
5.77986e-05
3.23567e-05
4.25613e-05
3.0488e-05
2.82608e-05
2.86359e-05
1.48963e-05
2.6664e-05
2.47128e-06
2.48596e-05
-8.89119e-06
2.27688e-05
-1.93767e-05
2.09431e-05
-2.8894e-05
1.90291e-05
-3.74726e-05
1.71639e-05
-4.52168e-05
1.54885e-05
-5.20767e-05
1.37162e-05
-5.81096e-05
1.20696e-05
-6.33419e-05
1.04737e-05
-6.77738e-05
8.87806e-06
-7.14662e-05
7.38009e-06
-7.4433e-05
5.93298e-06
-7.66374e-05
4.41467e-06
-7.80806e-05
2.88848e-06
-7.88887e-05
1.60423e-06
-7.89436e-05
1.13189e-07
-7.8278e-05
-1.32344e-06
-7.69249e-05
-2.68889e-06
-7.4918e-05
-3.97793e-06
-7.23901e-05
-5.07019e-06
-6.93475e-05
-6.08888e-06
-6.58116e-05
-7.07344e-06
-6.18284e-05
-7.96707e-06
-5.74241e-05
-8.78631e-06
-5.24871e-05
-9.87616e-06
-4.71758e-05
-1.06145e-05
-4.11981e-05
-1.1946e-05
-3.46567e-05
-1.30688e-05
-2.7542e-05
-1.42209e-05
-1.98264e-05
-1.54214e-05
-1.15372e-05
-1.65695e-05
-2.54464e-06
-1.79767e-05
7.19222e-06
-1.94799e-05
1.77839e-05
-2.1183e-05
2.94152e-05
-2.32701e-05
4.21693e-05
-2.55164e-05
5.61238e-05
-2.79225e-05
7.16289e-05
-3.10243e-05
8.84656e-05
-3.36869e-05
0.00010655
-3.61822e-05
0.000125699
-3.8311e-05
0.000145674
-3.99606e-05
0.000166342
-4.13429e-05
0.000187423
-4.21627e-05
0.000208507
-4.21604e-05
0.000229485
-4.19522e-05
0.000249791
-4.06021e-05
0.000269186
-3.87757e-05
0.000287213
-3.60404e-05
0.000303477
-3.25343e-05
0.000317827
-2.8727e-05
0.00032971
-2.38145e-05
0.000338912
-1.84439e-05
0.000345283
-1.28814e-05
0.000347889
-5.35287e-06
0.000347081
1.73684e-06
0.000343662
7.108e-06
0.00033786
1.17145e-05
0.000329915
1.5904e-05
0.000319605
2.06174e-05
0.000307407
2.43884e-05
0.000293446
2.79136e-05
0.000277846
3.11902e-05
0.00026122
3.32395e-05
0.000243717
3.49959e-05
0.000225515
3.63953e-05
0.000207117
3.67855e-05
0.000188573
3.7079e-05
0.000170254
3.66316e-05
0.000152204
3.60926e-05
0.000134543
3.53163e-05
0.00011755
3.39812e-05
0.000101245
3.2606e-05
8.57155e-05
3.10545e-05
7.1122e-05
2.91842e-05
5.74558e-05
2.73315e-05
4.48234e-05
2.52624e-05
3.31564e-05
2.33341e-05
2.24567e-05
2.13997e-05
1.27164e-05
1.9482e-05
3.82516e-06
1.7774e-05
-4.26791e-06
1.61986e-05
-1.16187e-05
1.47058e-05
-1.82908e-05
1.33429e-05
-2.4334e-05
1.20868e-05
-2.98153e-05
1.09621e-05
-3.47755e-05
9.92254e-06
-3.92518e-05
8.95168e-06
-4.32732e-05
8.04059e-06
-4.68331e-05
7.12154e-06
-4.99333e-05
6.19694e-06
-5.25383e-05
5.20086e-06
-5.46061e-05
4.13932e-06
-5.60902e-05
2.96385e-06
-5.69476e-05
1.72169e-06
-5.71764e-05
4.46033e-07
-5.66208e-05
-1.10958e-06
-5.53504e-05
-2.54518e-06
-5.32178e-05
-4.25944e-06
-5.02518e-05
-5.93084e-06
-4.64716e-05
-7.55788e-06
-4.17619e-05
-9.42206e-06
-3.61902e-05
-1.11419e-05
-2.96808e-05
-1.30221e-05
-2.216e-05
-1.50368e-05
-1.38765e-05
-1.65559e-05
-4.48431e-06
-1.8792e-05
5.79634e-06
-2.05666e-05
1.68335e-05
-2.20776e-05
2.88156e-05
-2.39649e-05
4.15122e-05
-2.53918e-05
5.50743e-05
-2.71191e-05
6.92878e-05
-2.84219e-05
8.39723e-05
-2.93657e-05
9.93125e-05
-3.06769e-05
0.000115099
-3.15666e-05
-3.23981e-05
0.000107585
4.82333e-05
9.20369e-05
4.66275e-05
7.69002e-05
4.53964e-05
6.22375e-05
4.39742e-05
4.82427e-05
4.19721e-05
3.48427e-05
4.01893e-05
2.21446e-05
3.80773e-05
1.01716e-05
3.59195e-05
-1.09707e-06
3.38025e-05
-1.15999e-05
3.15087e-05
-2.13152e-05
2.91477e-05
-3.0249e-05
2.68042e-05
-3.8404e-05
2.44692e-05
-4.58185e-05
2.22444e-05
-5.25046e-05
2.00686e-05
-5.85072e-05
1.80139e-05
-6.38545e-05
1.60448e-05
-6.85783e-05
1.41763e-05
-7.26948e-05
1.23553e-05
-7.62513e-05
1.06727e-05
-7.92431e-05
8.97442e-06
-8.16926e-05
7.34767e-06
-8.35831e-05
5.67162e-06
-8.49324e-05
4.03847e-06
-8.57324e-05
2.39477e-06
-8.5946e-05
6.39321e-07
-8.55528e-05
-1.18395e-06
-8.45925e-05
-2.87465e-06
-8.29799e-05
-4.82033e-06
-8.06888e-05
-6.8867e-06
-7.77815e-05
-8.72926e-06
-7.41071e-05
-1.10363e-05
-6.97442e-05
-1.31105e-05
-6.45359e-05
-1.56171e-05
-5.85137e-05
-1.80703e-05
-5.17692e-05
-2.02371e-05
-4.40954e-05
-2.3022e-05
-3.55053e-05
-2.57634e-05
-2.61716e-05
-2.7961e-05
-1.57054e-05
-3.14854e-05
-4.47336e-06
-3.36498e-05
7.79975e-06
-3.68424e-05
2.10779e-05
-3.98238e-05
3.51014e-05
-4.20585e-05
4.99774e-05
-4.46227e-05
6.57727e-05
-4.73605e-05
8.21188e-05
-4.90116e-05
9.90789e-05
-5.08686e-05
0.000116635
-5.26279e-05
0.000134356
-5.31292e-05
0.000152269
-5.36919e-05
0.000170143
-5.35821e-05
0.000187765
-5.28228e-05
0.000205
-5.1648e-05
0.000221406
-4.9172e-05
0.000236835
-4.62368e-05
0.00025119
-4.29954e-05
0.000263983
-3.83236e-05
0.000275219
-3.367e-05
0.000284556
-2.80117e-05
0.00029198
-2.22206e-05
0.000297415
-1.626e-05
0.000300497
-9.2474e-06
0.000301407
-2.70602e-06
0.000300129
3.74967e-06
0.000296396
1.11903e-05
0.000290468
1.77846e-05
0.000282385
2.42264e-05
0.000272294
3.02438e-05
0.000260353
3.57912e-05
0.000246598
4.12347e-05
0.000231251
4.60134e-05
0.000214454
5.0385e-05
0.000196313
5.44133e-05
0.000177127
5.75559e-05
0.000157051
6.02257e-05
0.000136494
6.17026e-05
0.000115658
6.25254e-05
9.48384e-05
6.24868e-05
7.43615e-05
6.14681e-05
5.45072e-05
5.96019e-05
3.54985e-05
5.70658e-05
1.76368e-05
5.36265e-05
1.22723e-06
4.90238e-05
-1.42646e-05
4.67535e-05
-2.85245e-05
4.28665e-05
-4.16365e-05
3.93878e-05
-5.35922e-05
3.59037e-05
-6.44196e-05
3.25122e-05
-7.41674e-05
2.92647e-05
-8.29091e-05
2.6234e-05
-9.06251e-05
2.31474e-05
-9.73879e-05
2.03081e-05
-0.000103354
1.78404e-05
-0.000108355
1.49988e-05
-0.000112567
1.26125e-05
-0.000116077
1.04465e-05
-0.000118759
7.95681e-06
-0.000120715
5.81235e-06
-0.000122001
3.75653e-06
-0.000122555
1.53161e-06
-0.000122433
-3.50417e-07
-0.000121618
-2.54984e-06
-0.000120074
-4.70437e-06
-0.000117736
-7.13858e-06
-0.000114565
-9.58993e-06
-0.000110471
-1.23675e-05
-0.000105486
-1.50364e-05
-9.96129e-05
-1.76563e-05
-9.28962e-05
-2.01652e-05
-8.5494e-05
-2.23267e-05
-7.74848e-05
-2.39528e-05
-6.89126e-05
-2.57343e-05
-5.98597e-05
-2.71981e-05
-5.0276e-05
-2.87258e-05
-4.02513e-05
-3.01529e-05
-2.96119e-05
-3.19055e-05
-1.84066e-05
-3.36929e-05
-6.64927e-06
-3.54273e-05
5.86116e-06
-3.73964e-05
1.91235e-05
-3.97073e-05
3.30829e-05
-4.19161e-05
4.77471e-05
-4.39886e-05
6.31058e-05
-4.60346e-05
7.90887e-05
-4.79161e-05
9.56285e-05
-4.95749e-05
0.000112641
-5.10134e-05
0.000129978
-5.19901e-05
0.000147536
-5.25761e-05
0.0001651
-5.26742e-05
0.000182527
-5.22512e-05
0.000199599
-5.11422e-05
0.000216077
-4.94089e-05
0.000231731
-4.69176e-05
0.000246349
-4.37571e-05
0.000259613
-3.98312e-05
0.000271333
-3.50489e-05
0.000281239
-2.97262e-05
0.000289155
-2.36642e-05
0.000294851
-1.70914e-05
0.000298214
-1.01007e-05
0.000299159
-2.88315e-06
0.000297704
4.41972e-06
0.00029365
1.21024e-05
0.000287258
1.91568e-05
0.000278593
2.59239e-05
0.000267917
3.21134e-05
0.000255237
3.78365e-05
0.000240994
4.2733e-05
0.000225402
4.6806e-05
0.000208575
5.02494e-05
0.000190973
5.27477e-05
0.000172798
5.43918e-05
0.000154318
5.54786e-05
0.000135737
5.57706e-05
0.000117254
5.54518e-05
9.90456e-05
5.43882e-05
8.14858e-05
5.27571e-05
6.45706e-05
5.06327e-05
4.8534e-05
4.80913e-05
3.34658e-05
4.51715e-05
1.93657e-05
4.23881e-05
6.26487e-06
3.93837e-05
-5.8542e-06
3.62316e-05
-1.68574e-05
3.31068e-05
-2.69971e-05
3.02871e-05
-3.61207e-05
2.74227e-05
-4.43968e-05
2.47431e-05
-5.18171e-05
2.23894e-05
-5.84573e-05
1.9918e-05
-6.44198e-05
1.78994e-05
-6.96537e-05
1.56606e-05
-7.4189e-05
1.37141e-05
-7.8178e-05
1.2008e-05
-8.15604e-05
1.01597e-05
-8.44054e-05
8.46087e-06
-8.66295e-05
6.67194e-06
-8.82573e-05
4.89426e-06
-8.92636e-05
3.03522e-06
-8.96598e-05
1.21157e-06
-8.95388e-05
-4.50152e-07
-8.8755e-05
-2.31371e-06
-8.73453e-05
-4.22637e-06
-8.52887e-05
-6.15813e-06
-8.25361e-05
-8.22468e-06
-7.916e-05
-1.02779e-05
-7.50887e-05
-1.22266e-05
-7.0292e-05
-1.43013e-05
-6.48058e-05
-1.62935e-05
-5.86741e-05
-1.86374e-05
-5.17491e-05
-2.0671e-05
-4.40537e-05
-2.30545e-05
-3.5557e-05
-2.55657e-05
-2.62518e-05
-2.78768e-05
-1.60801e-05
-3.05374e-05
-5.0208e-06
-3.29693e-05
6.75289e-06
-3.54695e-05
1.94738e-05
-3.81524e-05
3.30692e-05
-4.07623e-05
4.75099e-05
-4.33124e-05
6.27539e-05
-4.56995e-05
7.873e-05
-4.79297e-05
9.53594e-05
-4.98169e-05
0.000112544
-5.14874e-05
0.000130106
-5.2745e-05
0.000147989
-5.36088e-05
0.00016601
-5.4012e-05
0.000183967
-5.38153e-05
0.000201661
-5.30612e-05
0.000218854
-5.15018e-05
0.000235294
-4.92731e-05
0.000250771
-4.62944e-05
0.000264881
-4.23745e-05
0.000277511
-3.78116e-05
0.000288298
-3.23354e-05
0.000297043
-2.62027e-05
0.000303571
-1.96112e-05
0.000307679
-1.22411e-05
0.00030928
-4.81622e-06
0.000308353
2.71486e-06
0.000304788
1.06109e-05
0.000298665
1.83864e-05
0.000290169
2.54714e-05
0.000279437
3.20796e-05
0.000266712
3.81667e-05
0.000252261
4.33123e-05
0.000236357
4.762e-05
0.000219347
5.10087e-05
0.000201476
5.36097e-05
0.000183029
5.52372e-05
0.000164247
5.62728e-05
0.000145415
5.64065e-05
0.000126729
5.60216e-05
0.000108474
5.4749e-05
9.07586e-05
5.31553e-05
7.37351e-05
5.09048e-05
5.75605e-05
4.85313e-05
4.23288e-05
4.57196e-05
2.80494e-05
4.29153e-05
1.46283e-05
4.0085e-05
2.2403e-06
3.72476e-05
-9.14526e-06
3.41544e-05
-1.95929e-05
3.13907e-05
-2.91097e-05
2.85458e-05
-3.76999e-05
2.57541e-05
-4.54298e-05
2.32185e-05
-5.22947e-05
2.0581e-05
-5.83271e-05
1.8102e-05
-6.35504e-05
1.5697e-05
-6.79422e-05
1.32699e-05
-7.16635e-05
1.11013e-05
-7.46279e-05
8.89746e-06
-7.68212e-05
6.60794e-06
-7.83149e-05
4.38212e-06
-7.90756e-05
2.36493e-06
-7.91185e-05
1.56104e-07
-7.84563e-05
-1.98564e-06
-7.70839e-05
-4.06126e-06
-7.50925e-05
-5.96936e-06
-7.25223e-05
-7.6404e-06
-6.94982e-05
-9.11299e-06
-6.59677e-05
-1.06039e-05
-6.20043e-05
-1.19305e-05
-5.75269e-05
-1.32638e-05
-5.26432e-05
-1.47599e-05
-4.73114e-05
-1.59462e-05
-4.13236e-05
-1.79339e-05
-3.4741e-05
-1.96515e-05
-2.76459e-05
-2.1316e-05
-1.99113e-05
-2.31561e-05
-1.16063e-05
-2.48745e-05
-2.57655e-06
-2.70066e-05
7.16808e-06
-2.92247e-05
1.77684e-05
-3.17835e-05
2.94054e-05
-3.49073e-05
4.21629e-05
-3.82742e-05
5.61091e-05
-4.18689e-05
7.16019e-05
-4.65172e-05
8.84245e-05
-5.05098e-05
0.000106488
-5.42456e-05
0.000125619
-5.74426e-05
0.000145576
-5.99184e-05
0.000166231
-6.19978e-05
0.00018731
-6.32422e-05
0.000208397
-6.32471e-05
0.000229389
-6.29445e-05
0.000249713
-6.09266e-05
0.000269124
-5.81869e-05
0.000287154
-5.4071e-05
0.00030339
-4.8771e-05
0.000317668
-4.30047e-05
0.000329416
-3.55628e-05
0.000338374
-2.74029e-05
0.000344451
-1.89586e-05
0.000347046
-7.94751e-06
0.000346608
2.17391e-06
0.000343599
1.01174e-05
0.000337989
1.73233e-05
0.000330074
2.38192e-05
0.000319752
3.09389e-05
0.000307535
3.66054e-05
0.000293552
4.18962e-05
0.000277929
4.68124e-05
0.000261282
4.98863e-05
0.000243758
5.25199e-05
0.000225536
5.46173e-05
0.000207121
5.52004e-05
0.000188561
5.56382e-05
0.000170228
5.49649e-05
0.000152166
5.41544e-05
0.000134494
5.29879e-05
0.000117492
5.09835e-05
0.000101179
4.89187e-05
8.56438e-05
4.65897e-05
7.10458e-05
4.37821e-05
5.738e-05
4.09972e-05
4.4743e-05
3.78993e-05
3.30776e-05
3.49995e-05
2.23802e-05
3.20972e-05
1.26445e-05
2.92177e-05
3.74178e-06
2.66766e-05
-4.32875e-06
2.42691e-05
-1.16746e-05
2.20517e-05
-1.83424e-05
2.00107e-05
-2.43804e-05
1.81248e-05
-2.98573e-05
1.6439e-05
-3.48157e-05
1.4881e-05
-3.92897e-05
1.34256e-05
-4.33101e-05
1.2061e-05
-4.6871e-05
1.06824e-05
-4.99702e-05
9.2962e-06
-5.25722e-05
7.8028e-06
-5.46489e-05
6.21601e-06
-5.61394e-05
4.45437e-06
-5.7002e-05
2.58428e-06
-5.72309e-05
6.74936e-07
-5.66762e-05
-1.6642e-06
-5.54079e-05
-3.81349e-06
-5.32799e-05
-6.38747e-06
-5.03201e-05
-8.89062e-06
-4.65365e-05
-1.13416e-05
-4.1832e-05
-1.41265e-05
-3.62599e-05
-1.6714e-05
-2.9731e-05
-1.9551e-05
-2.22289e-05
-2.25389e-05
-1.39253e-05
-2.48595e-05
-4.55497e-06
-2.81623e-05
5.72749e-06
-3.0849e-05
1.67651e-05
-3.31151e-05
2.87488e-05
-3.59487e-05
4.14474e-05
-3.80903e-05
5.5012e-05
-4.06838e-05
6.92298e-05
-4.26397e-05
8.39202e-05
-4.40561e-05
9.92706e-05
-4.60273e-05
0.000115069
-4.73655e-05
-4.86113e-05
0.00010754
6.43308e-05
9.1981e-05
6.21862e-05
7.68358e-05
6.05416e-05
6.21648e-05
5.86452e-05
4.81626e-05
5.59743e-05
3.47566e-05
5.35952e-05
2.20447e-05
5.07893e-05
1.00761e-05
4.7888e-05
-1.19514e-06
4.50737e-05
-1.16989e-05
4.20125e-05
-2.14123e-05
3.88611e-05
-3.0344e-05
3.57358e-05
-3.84953e-05
3.26205e-05
-4.5907e-05
2.96561e-05
-5.25875e-05
2.6749e-05
-5.85867e-05
2.40131e-05
-6.39292e-05
2.13874e-05
-6.86515e-05
1.88986e-05
-7.27661e-05
1.64698e-05
-7.63214e-05
1.4228e-05
-7.93106e-05
1.19637e-05
-8.17602e-05
9.79728e-06
-8.36494e-05
7.56074e-06
-8.50035e-05
5.39258e-06
-8.58081e-05
3.19938e-06
-8.60468e-05
8.78029e-07
-8.56389e-05
-1.59192e-06
-8.46755e-05
-3.83807e-06
-8.30484e-05
-6.44749e-06
-8.07615e-05
-9.17362e-06
-7.78566e-05
-1.16342e-05
-7.41887e-05
-1.47042e-05
-6.98503e-05
-1.74489e-05
-6.46293e-05
-2.08383e-05
-5.86098e-05
-2.40898e-05
-5.18673e-05
-2.69797e-05
-4.41947e-05
-3.06946e-05
-3.56023e-05
-3.43559e-05
-2.62583e-05
-3.73051e-05
-1.58374e-05
-4.19065e-05
-4.5724e-06
-4.49149e-05
7.69476e-06
-4.91097e-05
2.09778e-05
-5.3107e-05
3.50021e-05
-5.60829e-05
4.98908e-05
-5.95117e-05
6.56986e-05
-6.31685e-05
8.2048e-05
-6.53612e-05
9.9026e-05
-6.78468e-05
0.000116609
-7.02107e-05
0.000134348
-7.08685e-05
0.00015229
-7.16346e-05
0.000170182
-7.14743e-05
0.000187829
-7.04698e-05
0.0002051
-6.89192e-05
0.000221533
-6.56051e-05
0.000236994
-6.1698e-05
0.000251383
-5.73848e-05
0.000264217
-5.11578e-05
0.000275471
-4.49243e-05
0.000284848
-3.7389e-05
0.000292253
-2.96255e-05
0.00029771
-2.17174e-05
0.000300807
-1.23449e-05
0.000301722
-3.62055e-06
0.000300391
5.07997e-06
0.000296652
1.49295e-05
0.000290722
2.37137e-05
0.000282626
3.23223e-05
0.000272517
4.03527e-05
0.000260559
4.77492e-05
0.000246788
5.50062e-05
0.000231428
6.13734e-05
0.000214627
6.71859e-05
0.00019648
7.25596e-05
0.000177295
7.67413e-05
0.000157232
8.02886e-05
0.000136678
8.22565e-05
0.000115851
8.33518e-05
9.50506e-05
8.32873e-05
7.45946e-05
8.1924e-05
5.4763e-05
7.94335e-05
3.57736e-05
7.60551e-05
1.79358e-05
7.14643e-05
1.36246e-06
6.55971e-05
-1.39065e-05
6.20225e-05
-2.81249e-05
5.70848e-05
-4.12145e-05
5.24774e-05
-5.31517e-05
4.78408e-05
-6.39604e-05
4.33209e-05
-7.36958e-05
3.90001e-05
-8.24303e-05
3.49685e-05
-9.01385e-05
3.08556e-05
-9.69103e-05
2.70799e-05
-0.000102882
2.38121e-05
-0.000107897
2.00132e-05
-0.000112134
1.685e-05
-0.000115673
1.39854e-05
-0.000118386
1.06696e-05
-0.000120329
7.75543e-06
-0.000121707
5.13462e-06
-0.000122305
2.12963e-06
-0.000122222
-4.33565e-07
-0.000121462
-3.30992e-06
-0.000119966
-6.2002e-06
-0.0001177
-9.40457e-06
-0.000114584
-1.27061e-05
-0.00011054
-1.64116e-05
-0.0001056
-1.99763e-05
-9.9751e-05
-2.35053e-05