/*--------------------------------*- C++ -*----------------------------------*\
| =========                 |                                                 |
| \\      /  F ield         | OpenFOAM: The Open Source CFD Toolbox           |
|  \\    /   O peration     | Version:  3.0.1                                 |
|   \\  /    A nd           | Web:      www.OpenFOAM.org                      |
|    \\/     M anipulation  |                                                 |
\*---------------------------------------------------------------------------*/
FoamFile
{
    version     2.0;
    format      ascii;
    class       volScalarField;
    location    "70.8";
    object      p_rgh;
}
// * * * * * * * * * * * * * * * * * * * * * * * * * * * * * * * * * * * * * //

dimensions      [1 -1 -2 0 0 0 0];

internalField   nonuniform List<scalar> 
21420
(
378.913
393.818
404.926
412.137
415.407
414.504
409.525
400.575
387.77
371.233
351.191
327.936
301.821
273.172
242.406
209.89
176.06
141.36
106.209
71.017
36.2512
4.15399
-28.7513
-60.5251
-90.9013
-119.696
-146.784
-172.066
-195.493
-217.04
-236.697
-254.487
-270.442
-284.607
-297.032
-307.769
-316.872
-324.391
-330.37
-334.851
-337.866
-339.399
-339.451
-338.02
-335.159
-330.793
-324.9
-317.46
-308.422
-297.736
-285.369
-271.268
-255.403
-237.741
-218.252
-196.955
-173.875
-149.043
-122.538
-94.4764
-64.9791
-34.2325
-2.43714
30.1808
63.3512
96.7316
130.032
162.891
194.961
225.877
255.261
282.777
308.084
330.852
350.777
367.584
381.041
390.922
397.052
399.317
397.605
391.95
382.416
369.064
352.112
331.773
308.304
282.03
253.296
222.471
189.944
156.121
121.409
86.2223
50.9643
16.026
-18.2206
-51.4423
-83.3386
-113.655
-142.185
-168.776
-193.324
-215.774
-236.112
-254.354
-270.544
-284.744
-297.031
-307.48
-316.167
-323.164
-328.538
-332.354
-334.678
-335.534
-334.95
-333.019
-329.732
-325.111
-319.166
-311.901
-303.318
-293.412
-282.163
-269.555
-255.574
-240.185
-223.36
-205.075
-185.302
-164.027
-141.245
-116.967
-91.2354
-64.1081
-35.6884
-6.11024
24.4726
55.8109
87.6394
119.665
151.553
182.94
213.436
242.636
270.129
295.507
318.372
338.355
355.114
368.35
377.818
383.331
384.705
381.995
375.135
364.247
349.455
331.005
309.183
284.333
256.849
227.158
195.708
162.96
129.37
95.3815
61.4108
27.8419
-4.97803
-36.7553
-67.2379
-96.2239
-123.563
-149.15
-172.92
-194.843
-214.917
-233.163
-249.617
-264.326
-277.345
-288.725
-298.531
-306.819
-313.646
-319.066
-323.128
-325.895
-327.389
-327.626
-326.658
-324.514
-321.191
-316.693
-311.007
-304.113
-295.983
-286.574
-275.842
-263.738
-250.214
-235.234
-218.762
-200.773
-181.257
-160.211
-137.654
-113.625
-88.1839
-61.4235
-33.4625
-4.44454
25.4551
55.9931
86.9151
117.939
148.747
178.993
208.308
236.303
262.579
286.734
308.374
327.123
342.636
354.611
362.801
367.037
367.118
363.156
355.132
343.129
327.366
308.104
285.664
260.421
232.79
203.21
172.128
139.993
107.238
74.2766
41.4971
9.25501
-22.1296
-52.3789
-81.2584
-108.583
-134.215
-158.068
-180.098
-200.295
-218.679
-235.292
-250.186
-263.425
-275.075
-285.2
-293.868
-301.141
-307.08
-311.747
-315.194
-317.479
-318.624
-318.647
-317.604
-315.495
-312.336
-308.111
-302.807
-296.409
-288.875
-280.174
-270.284
-259.156
-246.736
-232.975
-217.848
-201.293
-183.28
-163.784
-142.796
-120.335
-96.4063
-71.0577
-44.4141
-16.6793
10.9613
40.3553
70.633
101.386
132.208
162.728
192.489
221.025
247.889
272.605
294.75
313.929
329.789
342.068
350.572
355.165
355.669
352.183
344.791
333.603
318.859
300.865
279.923
256.404
230.736
203.333
174.639
145.07
115.027
84.8942
55.0002
25.6589
-2.74753
-27.1186
-53.1644
-78.3661
-102.414
-125.218
-146.756
-167.024
-186.031
-203.797
-220.328
-235.635
-249.724
-262.591
-274.233
-284.634
-293.779
-301.65
-308.221
-313.468
-317.37
-319.893
-320.981
-320.326
-318.166
-314.454
-309.185
-302.357
-293.939
-283.932
-272.317
-259.111
-244.337
-227.994
-210.109
379.038
393.956
405.073
412.29
415.563
414.672
409.678
400.727
387.911
371.361
351.305
328.034
301.9
273.233
242.448
209.914
176.066
141.349
106.183
70.9779
36.2029
4.08576
-28.8253
-60.6043
-90.9842
-119.781
-146.87
-172.152
-195.579
-217.124
-236.778
-254.565
-270.518
-284.679
-297.102
-307.836
-316.936
-324.452
-330.43
-334.909
-337.923
-339.455
-339.508
-338.079
-335.219
-330.853
-324.962
-317.524
-308.488
-297.804
-285.44
-271.342
-255.48
-237.819
-218.332
-197.035
-173.956
-149.123
-122.616
-94.5515
-65.0496
-34.297
-2.49398
30.1332
63.3147
96.7071
130.021
162.894
194.98
225.911
255.311
282.843
308.166
330.949
350.888
367.707
381.175
391.064
397.2
399.474
397.752
392.094
382.555
369.195
352.231
331.878
308.393
282.101
253.35
222.505
189.96
156.119
121.39
86.1865
50.9134
15.9615
-18.2969
-51.5284
-83.4324
-113.754
-142.288
-168.881
-193.429
-215.877
-236.212
-254.451
-270.637
-284.833
-297.116
-307.561
-316.245
-323.238
-328.61
-332.424
-334.746
-335.598
-335.015
-333.083
-329.795
-325.173
-319.228
-311.964
-303.382
-293.476
-282.228
-269.623
-255.644
-240.256
-223.433
-205.15
-185.38
-164.106
-141.325
-117.048
-91.3146
-64.1854
-35.7623
-6.17828
24.4111
55.7584
87.598
119.636
151.539
182.942
213.455
242.672
270.183
295.58
318.463
338.462
355.236
368.484
377.961
383.48
384.864
382.142
375.28
364.384
349.582
331.117
309.277
284.409
256.905
227.193
195.723
162.955
129.348
95.3428
61.3578
27.7768
-5.05313
-36.8381
-67.3263
-96.3158
-123.657
-149.244
-173.013
-194.934
-215.006
-233.249
-249.7
-264.406
-277.421
-288.799
-298.602
-306.887
-313.711
-319.129
-323.19
-325.954
-327.447
-327.681
-326.714
-324.57
-321.247
-316.749
-311.064
-304.172
-296.044
-286.637
-275.907
-263.805
-250.284
-235.306
-218.836
-200.849
-181.334
-160.288
-137.732
-113.701
-88.2586
-61.4953
-33.5295
-4.50575
25.4007
55.9479
86.8806
117.917
148.739
179
208.331
236.343
262.638
286.811
308.468
327.234
342.761
354.748
362.948
367.188
367.275
363.304
355.275
343.263
327.487
308.209
285.751
260.489
232.837
203.237
172.137
139.983
107.211
74.2351
41.4422
9.18869
-22.2053
-52.4619
-81.3465
-108.674
-134.308
-158.161
-180.188
-200.383
-218.764
-235.374
-250.264
-263.499
-275.146
-285.267
-293.931
-301.201
-307.138
-311.802
-315.247
-317.53
-318.672
-318.695
-317.651
-315.541
-312.383
-308.158
-302.855
-296.457
-288.925
-280.226
-270.338
-259.212
-246.794
-233.037
-217.912
-201.36
-183.35
-163.855
-142.869
-120.408
-96.4797
-71.1289
-44.4807
-16.7393
10.8962
40.3
70.5901
101.357
132.195
162.732
192.513
221.07
247.954
272.69
294.854
314.05
329.923
342.213
350.724
355.319
355.829
352.332
344.934
333.736
318.978
300.969
280.01
256.472
230.785
203.364
174.653
145.067
115.01
84.8648
54.9595
25.6052
-2.82458
-27.1537
-53.2199
-78.4276
-102.477
-125.279
-146.816
-167.082
-186.088
-203.852
-220.382
-235.687
-249.776
-262.643
-274.284
-284.685
-293.83
-301.702
-308.274
-313.521
-317.425
-319.949
-321.038
-320.384
-318.225
-314.513
-309.245
-302.418
-294.002
-283.996
-272.382
-259.177
-244.403
-228.06
-210.174
379.289
394.231
405.367
412.597
415.873
415.004
409.988
401.03
388.193
371.619
351.534
328.229
302.06
273.356
242.533
209.961
176.077
141.327
106.13
70.8996
36.1055
3.94979
-28.9733
-60.7626
-91.1502
-119.952
-147.043
-172.325
-195.75
-217.291
-236.941
-254.723
-270.669
-284.824
-297.241
-307.969
-317.064
-324.576
-330.55
-335.026
-338.037
-339.57
-339.621
-338.197
-335.337
-330.973
-325.085
-317.651
-308.62
-297.941
-285.582
-271.489
-255.631
-237.974
-218.491
-197.196
-174.117
-149.282
-122.772
-94.6999
-65.1886
-34.4239
-2.60557
30.0401
63.2438
96.6604
130.002
162.904
195.019
225.982
255.414
282.978
308.333
331.145
351.112
367.958
381.447
391.352
397.503
399.795
398.054
392.391
382.843
369.465
352.48
332.099
308.582
282.257
253.471
222.59
190.008
156.131
121.368
86.1317
50.8286
15.85
-18.4318
-51.6828
-83.602
-113.935
-142.475
-169.071
-193.619
-216.065
-236.394
-254.626
-270.804
-284.993
-297.267
-307.705
-316.381
-323.369
-328.735
-332.545
-334.862
-335.706
-335.126
-333.191
-329.901
-325.279
-319.335
-312.071
-303.49
-293.586
-282.341
-269.739
-255.763
-240.38
-223.561
-205.282
-185.516
-164.245
-141.466
-117.19
-91.4546
-64.3218
-35.8918
-6.29644
24.306
55.6715
87.5332
119.597
151.528
182.962
213.509
242.763
270.311
295.744
318.662
338.694
355.497
368.77
378.266
383.797
385.2
382.455
375.59
364.678
349.852
331.358
309.484
284.578
257.034
227.281
195.771
162.965
129.321
95.2838
61.2701
27.6649
-5.1849
-36.9853
-67.4846
-96.4812
-123.826
-149.414
-173.181
-195.099
-215.166
-233.403
-249.848
-264.548
-277.557
-288.928
-298.725
-307.005
-313.825
-319.238
-323.295
-326.056
-327.544
-327.775
-326.809
-324.664
-321.341
-316.843
-311.161
-304.272
-296.148
-286.745
-276.02
-263.924
-250.407
-235.433
-218.967
-200.984
-181.472
-160.428
-137.871
-113.839
-88.3931
-61.624
-33.6487
-4.61346
25.3068
55.8721
86.8265
117.887
148.737
179.029
208.393
236.44
262.77
286.98
308.672
327.47
343.027
355.038
363.255
367.503
367.607
363.616
355.577
343.546
327.744
308.434
285.94
260.639
232.947
203.308
172.169
139.979
107.174
74.1678
41.3484
9.07215
-22.3405
-52.6115
-81.5064
-108.84
-134.476
-158.329
-180.353
-200.543
-218.919
-235.521
-250.405
-263.632
-275.272
-285.387
-294.045
-301.309
-307.24
-311.899
-315.34
-317.62
-318.757
-318.78
-317.734
-315.624
-312.466
-308.244
-302.943
-296.547
-289.018
-280.324
-270.44
-259.319
-246.906
-233.156
-218.037
-201.49
-183.484
-163.994
-143.011
-120.553
-96.6236
-71.2687
-44.6114
-16.8576
10.7683
40.1913
70.5062
101.301
132.17
162.743
192.562
221.16
248.085
272.861
295.063
314.292
330.193
342.504
351.028
355.627
356.151
352.629
345.22
334.002
319.218
301.178
280.184
256.609
230.885
203.426
174.68
145.061
114.975
84.8058
54.8782
25.498
-2.97915
-27.2235
-53.3315
-78.5506
-102.601
-125.402
-146.935
-167.198
-186.2
-203.961
-220.489
-235.793
-249.879
-262.746
-274.387
-284.788
-293.934
-301.806
-308.379
-313.628
-317.534
-320.062
-321.151
-320.501
-318.342
-314.632
-309.366
-302.541
-294.128
-284.123
-272.511
-259.308
-244.534
-228.191
-210.304
379.665
394.644
405.809
413.058
416.34
415.495
410.457
401.485
388.616
372.005
351.876
328.522
302.298
273.539
242.659
210.032
176.093
141.294
106.051
70.7819
35.9589
3.74599
-29.1954
-61.0002
-91.3993
-120.208
-147.303
-172.585
-196.006
-217.542
-237.185
-254.959
-270.896
-285.042
-297.45
-308.169
-317.256
-324.762
-330.73
-335.201
-338.206
-339.738
-339.794
-338.375
-335.514
-331.152
-325.27
-317.842
-308.817
-298.146
-285.795
-271.709
-255.859
-238.208
-218.729
-197.437
-174.358
-149.521
-123.005
-94.9228
-65.3975
-34.6145
-2.77325
29.9003
63.1372
96.5901
129.972
162.917
195.078
226.088
255.568
283.181
308.583
331.44
351.449
368.333
381.855
391.786
397.956
400.265
398.516
392.841
383.276
369.873
352.855
332.432
308.868
282.494
253.654
222.718
190.083
156.152
121.337
86.0521
50.7041
15.6854
-18.6315
-51.9116
-83.8537
-114.203
-142.754
-169.354
-193.902
-216.343
-236.665
-254.886
-271.052
-285.229
-297.492
-307.918
-316.584
-323.562
-328.92
-332.723
-335.033
-335.868
-335.289
-333.35
-330.059
-325.436
-319.492
-312.229
-303.651
-293.749
-282.508
-269.911
-255.94
-240.563
-223.751
-205.478
-185.718
-164.452
-141.676
-117.401
-91.6622
-64.5239
-36.0833
-6.47146
24.1509
55.5439
87.4386
119.54
151.515
182.997
213.595
242.902
270.505
295.992
318.964
339.046
355.893
369.203
378.727
384.276
385.702
382.932
376.061
365.122
350.262
331.724
309.798
284.835
257.231
227.417
195.846
162.982
129.285
95.1984
61.1416
27.5002
-5.37963
-37.2032
-67.7192
-96.7266
-124.077
-149.666
-173.43
-195.343
-215.403
-233.632
-250.068
-264.758
-277.757
-289.12
-298.909
-307.18
-313.992
-319.398
-323.45
-326.206
-327.686
-327.916
-326.95
-324.803
-321.479
-316.983
-311.304
-304.42
-296.301
-286.906
-276.189
-264.1
-250.59
-235.623
-219.163
-201.185
-181.676
-160.635
-138.078
-114.044
-88.5926
-61.8147
-33.8256
-4.77308
25.1681
55.7608
86.7475
117.845
148.736
179.074
208.488
236.587
262.972
287.236
308.981
327.828
343.429
355.476
363.719
367.98
368.102
364.09
356.033
343.974
328.133
308.775
286.226
260.867
233.116
203.417
172.22
139.976
107.121
74.0696
41.2102
8.89987
-22.5408
-52.8335
-81.7438
-109.086
-134.727
-158.579
-180.599
-200.781
-219.148
-235.74
-250.613
-263.829
-275.459
-285.564
-294.213
-301.468
-307.391
-312.044
-315.479
-317.753
-318.884
-318.907
-317.858
-315.748
-312.591
-308.371
-303.074
-296.682
-289.158
-280.47
-270.593
-259.48
-247.075
-233.334
-218.224
-201.684
-183.686
-164.203
-143.225
-120.769
-96.8397
-71.4787
-44.808
-17.0354
10.576
40.0279
70.3801
101.217
132.133
162.759
192.636
221.294
248.281
273.118
295.376
314.656
330.599
342.941
351.485
356.09
356.628
353.079
345.651
334.401
319.578
301.491
280.444
256.815
231.033
203.52
174.72
145.053
114.923
84.7173
54.7565
25.3384
-3.21014
-27.3294
-53.5005
-78.7358
-102.788
-125.586
-147.115
-167.372
-186.369
-204.126
-220.649
-235.95
-250.035
-262.9
-274.541
-284.942
-294.088
-301.962
-308.537
-313.789
-317.698
-320.229
-321.322
-320.677
-318.517
-314.81
-309.547
-302.726
-294.316
-284.315
-272.706
-259.504
-244.732
-228.388
-210.498
380.167
395.194
406.398
413.674
416.966
416.14
411.09
402.091
389.181
372.521
352.332
328.912
302.617
273.784
242.828
210.126
176.114
141.248
105.944
70.6244
35.7628
3.4743
-29.4918
-61.3174
-91.7317
-120.55
-147.649
-172.931
-196.348
-217.877
-237.511
-255.273
-271.199
-285.333
-297.728
-308.436
-317.513
-325.009
-330.97
-335.434
-338.433
-339.962
-340.027
-338.61
-335.749
-331.392
-325.516
-318.097
-309.081
-298.419
-286.079
-272.003
-256.162
-238.519
-219.046
-197.758
-174.68
-149.839
-123.315
-95.2204
-65.6763
-34.869
-2.99712
29.7134
62.9946
96.4961
129.932
162.935
195.157
226.23
255.773
283.451
308.917
331.833
351.897
368.834
382.4
392.365
398.56
400.88
399.141
393.446
383.854
370.418
353.355
332.876
309.25
282.809
253.9
222.89
190.182
156.179
121.296
85.9461
50.5382
15.4659
-18.8978
-52.2167
-84.1892
-114.56
-143.125
-169.732
-194.279
-216.714
-237.025
-255.232
-271.383
-285.544
-297.79
-308.201
-316.854
-323.819
-329.167
-332.959
-335.259
-336.086
-335.506
-333.562
-330.268
-325.644
-319.7
-312.44
-303.864
-293.966
-282.73
-270.141
-256.176
-240.807
-224.004
-205.739
-185.987
-164.727
-141.955
-117.681
-91.939
-64.7929
-36.3382
-6.70496
23.9442
55.3743
87.3129
119.465
151.498
183.043
213.709
243.088
270.765
296.325
319.368
339.516
356.422
369.781
379.344
384.916
386.359
383.581
376.692
365.717
350.81
332.212
310.218
285.18
257.495
227.599
195.947
163.006
129.237
95.0848
60.9705
27.2806
-5.63913
-37.4937
-68.032
-97.0535
-124.411
-150.002
-173.763
-195.668
-215.718
-233.936
-250.36
-265.038
-278.024
-289.375
-299.153
-307.413
-314.214
-319.612
-323.656
-326.404
-327.876
-328.105
-327.137
-324.987
-321.664
-317.169
-311.494
-304.616
-296.506
-287.121
-276.413
-264.334
-250.834
-235.875
-219.423
-201.452
-181.949
-160.911
-138.354
-114.317
-88.8585
-62.0686
-34.0617
-4.98599
24.9835
55.6128
86.6424
117.789
148.736
179.135
208.615
236.784
263.241
287.578
309.394
328.307
343.966
356.061
364.34
368.619
368.757
364.729
356.645
344.547
328.653
309.23
286.609
261.172
233.341
203.562
172.289
139.972
107.05
73.9388
41.026
8.67025
-22.8079
-53.1295
-82.0604
-109.415
-135.061
-158.912
-180.926
-201.099
-219.453
-236.031
-250.89
-264.093
-275.708
-285.8
-294.436
-301.68
-307.593
-312.236
-315.662
-317.929
-319.057
-319.076
-318.023
-315.913
-312.758
-308.542
-303.249
-296.862
-289.344
-280.665
-270.798
-259.694
-247.299
-233.572
-218.474
-201.944
-183.956
-164.482
-143.51
-121.059
-97.1283
-71.7594
-45.0706
-17.2727
10.3187
39.8097
70.2116
101.104
132.083
162.779
192.734
221.472
248.543
273.46
295.794
315.141
331.139
343.524
352.095
356.708
357.257
353.685
346.226
334.934
320.059
301.909
280.792
257.088
231.231
203.643
174.773
145.041
114.854
84.5989
54.5946
25.1274
-3.51455
-27.4745
-53.7286
-78.9836
-103.037
-125.831
-147.354
-167.604
-186.594
-204.345
-220.864
-236.161
-250.243
-263.106
-274.746
-285.147
-294.295
-302.17
-308.747
-314.003
-317.915
-320.45
-321.554
-320.91
-318.751
-315.047
-309.788
-302.972
-294.567
-284.57
-272.965
-259.766
-244.995
-228.65
-210.757
380.794
395.883
407.135
414.444
417.751
416.939
411.885
402.848
389.887
373.165
352.903
329.4
303.015
274.09
243.039
210.244
176.141
141.191
105.81
70.4266
35.5163
3.13479
-29.8626
-61.7144
-92.1478
-120.978
-148.082
-173.364
-196.776
-218.296
-237.918
-255.667
-271.578
-285.696
-298.075
-308.769
-317.833
-325.318
-331.269
-335.725
-338.716
-340.243
-340.316
-338.902
-336.043
-331.691
-325.824
-318.416
-309.41
-298.76
-286.434
-272.37
-256.542
-238.908
-219.443
-198.16
-175.082
-150.237
-123.704
-95.5929
-66.0255
-35.1877
-3.27743
29.4794
62.8156
96.3781
129.881
162.956
195.255
226.406
256.03
283.788
309.334
332.324
352.459
369.461
383.081
393.088
399.315
401.648
399.92
394.207
384.58
371.1
353.98
333.432
309.728
283.204
254.205
223.105
190.306
156.214
121.245
85.8129
50.33
15.1906
-19.2315
-52.599
-84.6096
-115.008
-143.59
-170.205
-194.751
-217.178
-237.476
-255.665
-271.797
-285.937
-298.164
-308.556
-317.191
-324.141
-329.474
-333.255
-335.542
-336.362
-335.777
-333.827
-330.53
-325.905
-319.961
-312.703
-304.131
-294.237
-283.007
-270.427
-256.47
-241.111
-224.32
-206.066
-186.323
-165.071
-142.305
-118.032
-92.2856
-65.1298
-36.6571
-6.99774
23.6852
55.162
87.1552
119.371
151.475
183.1
213.852
243.321
271.09
296.741
319.873
340.104
357.083
370.505
380.116
385.719
387.175
384.399
377.481
366.462
351.496
332.824
310.744
285.61
257.825
227.827
196.074
163.035
129.175
94.9419
60.756
27.0053
-5.9644
-37.8577
-68.4237
-97.4631
-124.829
-150.422
-174.178
-196.074
-216.113
-234.317
-250.726
-265.388
-278.358
-289.694
-299.458
-307.704
-314.493
-319.879
-323.914
-326.651
-328.115
-328.341
-327.37
-325.218
-321.895
-317.402
-311.732
-304.862
-296.762
-287.389
-276.694
-264.627
-251.139
-236.191
-219.749
-201.787
-182.29
-161.256
-138.7
-114.658
-89.1913
-62.3864
-34.3575
-5.25306
24.7521
55.4274
86.5105
117.719
148.735
179.21
208.773
237.03
263.578
288.005
309.909
328.905
344.637
356.793
365.116
369.42
369.57
365.533
357.411
345.263
329.303
309.8
287.088
261.553
233.622
203.744
172.374
139.967
106.961
73.7745
40.795
8.38243
-23.1424
-53.5003
-82.4569
-109.827
-135.48
-159.329
-181.335
-201.495
-219.834
-236.395
-251.236
-264.421
-276.019
-286.095
-294.716
-301.946
-307.845
-312.476
-315.892
-318.149
-319.274
-319.286
-318.229
-316.12
-312.966
-308.754
-303.468
-297.087
-289.578
-280.909
-271.053
-259.961
-247.58
-233.869
-218.785
-202.269
-184.293
-164.831
-143.867
-121.421
-97.4897
-72.1111
-45.3997
-17.569
9.99512
39.5362
70.0005
100.962
132.019
162.804
192.857
221.695
248.87
273.888
296.317
315.748
331.816
344.253
352.858
357.485
358.037
354.449
346.947
335.601
320.659
302.431
281.226
257.43
231.478
203.797
174.839
145.026
114.766
84.4502
54.3927
24.8668
-3.88593
-27.6656
-54.0185
-79.2949
-103.35
-126.138
-147.652
-167.894
-186.876
-204.619
-221.131
-236.423
-250.502
-263.363
-275.002
-285.404
-294.552
-302.429
-309.01
-314.27
-318.186
-320.726
-321.843
-321.2
-319.043
-315.343
-310.089
-303.279
-294.88
-284.89
-273.29
-260.094
-245.324
-228.978
-211.081
381.547
396.71
408.021
415.37
418.697
417.895
412.837
403.756
390.735
373.939
353.589
329.986
303.493
274.457
243.29
210.384
176.171
141.12
105.648
70.1877
35.2184
2.72769
-30.3081
-62.1915
-92.6478
-121.492
-148.603
-173.884
-197.29
-218.8
-238.407
-256.139
-272.032
-286.131
-298.493
-309.169
-318.217
-325.689
-331.628
-336.075
-339.058
-340.583
-340.66
-339.25
-336.396
-332.05
-326.193
-318.798
-309.805
-299.17
-286.86
-272.811
-256.997
-239.376
-219.92
-198.642
-175.566
-150.716
-124.172
-96.0407
-66.4452
-35.571
-3.61452
29.1977
62.5999
96.2359
129.82
162.981
195.372
226.618
256.338
284.192
309.834
332.913
353.133
370.213
383.898
393.957
400.222
402.573
400.851
395.121
385.452
371.92
354.731
334.099
310.302
283.678
254.572
223.362
190.454
156.254
121.182
85.6519
50.079
14.8591
-19.6332
-53.0592
-85.1153
-115.547
-144.149
-170.773
-195.319
-217.736
-238.017
-256.185
-272.294
-286.41
-298.612
-308.981
-317.595
-324.527
-329.844
-333.609
-335.881
-336.692
-336.1
-334.144
-330.844
-326.218
-320.275
-313.018
-304.451
-294.563
-283.341
-270.77
-256.824
-241.477
-224.699
-206.457
-186.727
-165.485
-142.725
-118.453
-92.7026
-65.5349
-37.0407
-7.35042
23.373
54.9064
86.9649
119.257
151.448
183.168
214.023
243.6
271.479
297.241
320.48
340.81
357.879
371.376
381.044
386.683
388.155
385.381
378.43
367.358
352.321
333.56
311.375
286.126
258.22
228.099
196.224
163.069
129.101
94.7691
60.4971
26.6735
-6.35624
-38.2958
-68.895
-97.9557
-125.333
-150.927
-174.677
-196.563
-216.587
-234.774
-251.165
-265.808
-278.76
-290.078
-299.824
-308.054
-314.827
-320.2
-324.222
-326.947
-328.403
-328.625
-327.649
-325.495
-322.171
-317.681
-312.017
-305.157
-297.07
-287.711
-277.03
-264.978
-251.505
-236.571
-220.141
-202.189
-182.7
-161.67
-139.115
-115.068
-89.5915
-62.7684
-34.7137
-5.57501
24.4734
55.2043
86.3512
117.633
148.732
179.3
208.962
237.325
263.981
288.518
310.529
329.624
345.444
357.672
366.05
370.384
370.544
366.499
358.332
346.124
330.084
310.484
287.663
262.011
233.96
203.961
172.476
139.96
106.853
73.576
40.5165
8.0357
-23.5453
-53.9468
-82.934
-110.323
-135.983
-159.83
-181.827
-201.972
-220.292
-236.832
-251.652
-264.816
-276.393
-286.45
-295.052
-302.264
-308.148
-312.764
-316.167
-318.413
-319.534
-319.538
-318.476
-316.368
-313.216
-309.01
-303.73
-297.357
-289.857
-281.201
-271.36
-260.282
-247.917
-234.226
-219.159
-202.658
-184.699
-165.249
-144.296
-121.856
-97.9244
-72.5345
-45.7959
-17.9235
9.60354
39.2069
69.7463
100.79
131.941
162.833
193.003
221.963
249.261
274.403
296.945
316.477
332.629
345.13
353.776
358.42
358.971
355.368
347.814
336.402
321.381
303.058
281.748
257.841
231.774
203.982
174.917
145.006
114.66
84.2709
54.1511
24.5587
-4.31041
-27.9172
-54.3732
-79.6704
-103.725
-126.506
-148.011
-168.242
-187.214
-204.947
-221.452
-236.739
-250.813
-263.672
-275.31
-285.712
-294.862
-302.741
-309.325
-314.589
-318.511
-321.058
-322.189
-321.549
-319.394
-315.699
-310.451
-303.648
-295.257
-285.273
-273.679
-260.487
-245.719
-229.372
-211.469
382.427
397.675
409.055
416.452
419.805
419.012
413.944
404.815
391.725
374.842
354.389
330.669
304.051
274.884
243.583
210.548
176.205
141.037
105.457
69.9066
34.8677
2.25315
-30.8286
-62.7492
-93.2323
-122.093
-149.211
-174.492
-197.891
-219.387
-238.978
-256.691
-272.562
-286.64
-298.979
-309.636
-318.666
-326.121
-332.047
-336.483
-339.457
-340.979
-341.059
-339.655
-336.806
-332.469
-326.624
-319.243
-310.266
-299.649
-287.357
-273.326
-257.528
-239.922
-220.477
-199.206
-176.131
-151.275
-124.718
-96.5641
-66.9359
-36.0193
-4.00888
28.868
62.347
96.0691
129.748
163.01
195.508
226.864
256.696
284.664
310.417
333.602
353.92
371.091
384.853
394.973
401.28
403.653
401.94
396.188
386.472
372.878
355.607
334.877
310.972
284.23
254.999
223.662
190.626
156.3
121.107
85.4625
49.7845
14.4706
-20.104
-53.598
-85.7073
-116.177
-144.803
-171.437
-195.982
-218.388
-238.65
-256.793
-272.874
-286.961
-299.135
-309.477
-318.067
-324.977
-330.274
-334.022
-336.278
-337.078
-336.478
-334.515
-331.211
-326.583
-320.64
-313.387
-304.824
-294.943
-283.73
-271.17
-257.237
-241.905
-225.141
-206.915
-187.199
-165.968
-143.216
-118.946
-93.1904
-66.0086
-37.4898
-7.76376
23.0071
54.6068
86.7413
119.122
151.414
183.246
214.221
243.924
271.932
297.824
321.188
341.635
358.808
372.392
382.128
387.81
389.301
386.526
379.539
368.405
353.284
334.418
312.112
286.729
258.681
228.416
196.399
163.107
129.012
94.5656
60.1931
26.2844
-6.8154
-38.8087
-69.4468
-98.5321
-125.921
-151.517
-175.261
-197.134
-217.141
-235.309
-251.678
-266.299
-279.228
-290.525
-300.251
-308.462
-315.218
-320.574
-324.582
-327.294
-328.74
-328.955
-327.974
-325.818
-322.494
-318.008
-312.35
-305.501
-297.429
-288.086
-277.423
-265.389
-251.933
-237.014
-220.598
-202.659
-183.179
-162.155
-139.601
-115.548
-90.0596
-63.2154
-35.1308
-5.9523
24.1472
54.9425
86.1639
117.532
148.728
179.403
209.181
237.667
264.451
289.116
311.251
330.463
346.386
358.7
367.14
371.511
371.684
367.626
359.41
347.131
330.996
311.283
288.334
262.545
234.353
204.214
172.594
139.95
106.726
73.3427
40.1899
7.62932
-24.0172
-54.4694
-83.4924
-110.903
-136.571
-160.416
-182.401
-202.529
-220.826
-237.342
-252.137
-265.276
-276.829
-286.863
-295.444
-302.636
-308.501
-313.1
-316.488
-318.721
-319.838
-319.83
-318.763
-316.657
-313.508
-309.307
-304.036
-297.672
-290.184
-281.543
-271.717
-260.657
-248.311
-234.642
-219.594
-203.113
-185.172
-165.739
-144.797
-122.364
-98.4327
-73.0302
-46.2598
-18.3353
9.142
38.8214
69.4484
100.589
131.849
162.865
193.171
222.275
249.719
275.003
297.678
317.328
333.579
346.155
354.849
359.514
360.064
356.437
348.827
337.339
322.224
303.79
282.357
258.319
232.119
204.196
175.006
144.982
114.535
84.0603
53.8698
24.2054
-4.75808
-28.2602
-54.7959
-80.1109
-104.164
-126.936
-148.429
-168.648
-187.608
-205.331
-221.827
-237.106
-251.176
-264.032
-275.669
-286.071
-295.223
-303.105
-309.693
-314.962
-318.89
-321.445
-322.592
-321.954
-319.802
-316.113
-310.873
-304.078
-295.696
-285.72
-274.134
-260.947
-246.181
-229.832
-211.924
383.433
398.779
410.239
417.691
421.074
420.291
415.208
406.026
392.858
375.876
355.305
331.451
304.689
275.372
243.917
210.733
176.243
140.939
105.237
69.5824
34.4629
1.7112
-31.4244
-63.388
-93.9016
-122.781
-149.907
-175.187
-198.578
-220.059
-239.631
-257.321
-273.168
-287.221
-299.536
-310.169
-319.178
-326.615
-332.526
-336.95
-339.914
-341.433
-341.514
-340.117
-337.274
-332.947
-327.116
-319.752
-310.793
-300.196
-287.925
-273.914
-258.136
-240.546
-221.114
-199.851
-176.777
-151.915
-125.343
-97.1635
-67.4984
-36.5332
-4.46107
28.4896
62.0566
95.8771
129.663
163.041
195.662
227.144
257.106
285.203
311.083
334.388
354.82
372.095
385.944
396.135
402.492
404.891
403.185
397.408
387.639
373.975
356.61
335.767
311.739
284.861
255.486
224.004
190.821
156.352
121.019
85.2442
49.4455
14.024
-20.6443
-54.2161
-86.3864
-116.899
-145.553
-172.199
-196.741
-219.135
-239.374
-257.489
-273.537
-287.592
-299.733
-310.045
-318.607
-325.492
-330.767
-334.494
-336.732
-337.52
-336.909
-334.938
-331.63
-327
-321.059
-313.809
-305.251
-295.377
-284.175
-271.628
-257.709
-242.393
-225.647
-207.439
-187.738
-166.521
-143.778
-119.51
-93.7495
-66.5514
-38.0051
-8.23862
22.5872
54.2626
86.4838
118.967
151.374
183.334
214.446
244.294
272.45
298.49
321.997
342.578
359.87
373.556
383.368
389.102
390.614
387.836
380.808
369.604
354.387
335.401
312.954
287.418
259.208
228.777
196.597
163.149
128.909
94.3308
59.8431
25.837
-7.3426
-39.3974
-70.0795
-99.1928
-126.595
-152.193
-175.93
-197.787
-217.775
-235.92
-252.264
-266.86
-279.764
-291.037
-300.74
-308.929
-315.664
-321.002
-324.993
-327.69
-329.125
-329.333
-328.346
-326.187
-322.863
-318.38
-312.731
-305.894
-297.839
-288.515
-277.873
-265.86
-252.422
-237.522
-221.121
-203.196
-183.727
-162.71
-140.156
-116.099
-90.5957
-63.7278
-35.6095
-6.3853
23.7724
54.6416
85.948
117.415
148.722
179.52
209.431
238.058
264.988
289.799
312.078
331.423
347.465
359.877
368.389
372.803
372.989
368.914
360.644
348.283
332.04
312.198
289.101
263.154
234.801
204.501
172.726
139.936
106.578
73.0739
39.8145
7.1625
-24.559
-55.0689
-84.1329
-111.568
-137.246
-161.087
-183.059
-203.166
-221.438
-237.926
-252.692
-265.803
-277.328
-287.336
-295.892
-303.061
-308.904
-313.483
-316.855
-319.074
-320.186
-320.164
-319.092
-316.986
-313.841
-309.648
-304.386
-298.032
-290.557
-281.932
-272.125
-261.085
-248.762
-235.118
-220.092
-203.633
-185.714
-166.298
-145.371
-122.946
-99.015
-73.599
-46.7925
-18.8036
8.6083
38.3794
69.1063
100.358
131.742
162.9
193.362
222.63
250.242
275.689
298.517
318.303
334.667
347.328
356.079
360.768
361.316
357.66
349.986
338.411
323.189
304.627
283.054
258.866
232.512
204.439
175.107
144.952
114.391
83.8177
53.5487
23.8093
-5.23267
-28.693
-55.2893
-80.6174
-104.667
-127.429
-148.908
-169.112
-188.058
-205.769
-222.255
-237.526
-251.59
-264.443
-276.079
-286.482
-295.635
-303.521
-310.114
-315.389
-319.322
-321.887
-323.05
-322.417
-320.269
-316.587
-311.356
-304.57
-296.198
-286.232
-274.654
-261.472
-246.708
-230.358
-212.443
384.565
400.023
411.572
419.088
422.505
421.732
416.63
407.39
394.134
377.039
356.335
332.331
305.406
275.92
244.291
210.939
176.284
140.827
104.986
69.2136
34.0028
1.10175
-32.0962
-64.1084
-94.6563
-123.556
-150.691
-175.971
-199.351
-220.816
-240.367
-258.031
-273.85
-287.874
-300.162
-310.769
-319.753
-327.17
-333.064
-337.474
-340.429
-341.943
-342.025
-340.635
-337.801
-333.485
-327.67
-320.324
-311.386
-300.811
-288.564
-274.576
-258.82
-241.249
-221.831
-200.577
-177.506
-152.636
-126.048
-97.8394
-68.1332
-37.1133
-4.97183
28.062
61.7281
95.6594
129.567
163.075
195.833
227.458
257.566
285.808
311.831
335.274
355.834
373.225
387.173
397.444
403.859
406.287
404.587
398.783
388.954
375.211
357.74
336.769
312.602
285.571
256.034
224.387
191.039
156.407
120.918
84.9962
49.0612
13.5188
-21.2551
-54.9147
-87.1534
-117.715
-146.399
-173.058
-197.598
-219.976
-240.19
-258.273
-274.285
-288.301
-300.407
-310.684
-319.214
-326.071
-331.321
-335.026
-337.243
-338.016
-337.394
-335.415
-332.102
-327.47
-321.529
-314.283
-305.73
-295.867
-284.676
-272.143
-258.241
-242.943
-226.217
-208.028
-188.346
-167.144
-144.411
-120.146
-94.3802
-67.1641
-38.5874
-8.77543
22.1117
53.8732
86.1916
118.789
151.327
183.43
214.698
244.709
273.032
299.239
322.908
343.64
361.068
374.867
384.767
390.558
392.096
389.312
382.239
370.956
355.63
336.507
313.903
288.193
259.8
229.182
196.818
163.194
128.79
94.0639
59.4461
25.3304
-7.93882
-40.0628
-70.7943
-99.9387
-127.356
-152.955
-176.683
-198.524
-218.489
-236.608
-252.925
-267.492
-280.368
-291.613
-301.29
-309.454
-316.167
-321.484
-325.456
-328.136
-329.559
-329.757
-328.764
-326.602
-323.278
-318.8
-313.16
-306.337
-298.3
-288.998
-278.379
-266.389
-252.974
-238.093
-221.711
-203.801
-184.345
-163.335
-140.783
-116.719
-91.2004
-64.3064
-36.1503
-6.87434
23.3482
54.3009
85.7027
117.28
148.713
179.649
209.71
238.497
265.591
290.568
313.008
332.504
348.68
361.203
369.798
374.26
374.462
370.366