/*--------------------------------*- C++ -*----------------------------------*\
| =========                 |                                                 |
| \\      /  F ield         | OpenFOAM: The Open Source CFD Toolbox           |
|  \\    /   O peration     | Version:  3.0.1                                 |
|   \\  /    A nd           | Web:      www.OpenFOAM.org                      |
|    \\/     M anipulation  |                                                 |
\*---------------------------------------------------------------------------*/
FoamFile
{
    version     2.0;
    format      ascii;
    class       volVectorField;
    location    "28.6";
    object      U;
}
// * * * * * * * * * * * * * * * * * * * * * * * * * * * * * * * * * * * * * //

dimensions      [0 1 -1 0 0 0 0];

internalField   nonuniform List<vector> 
22680
(
(0.187595 0.000679142 0)
(0.181509 0.00084568 0)
(0.173656 0.00101588 0)
(0.164471 0.00115771 0)
(0.15406 0.00130737 0)
(0.142541 0.00141646 0)
(0.130045 0.00153818 0)
(0.116717 0.00161042 0)
(0.102704 0.00169914 0)
(0.088159 0.00173384 0)
(0.0732352 0.00178719 0)
(0.0580832 0.00178637 0)
(0.0428494 0.00180486 0)
(0.0276764 0.00177249 0)
(0.0127324 0.00175851 0)
(-0.00196454 0.0017326 0)
(-0.0163113 0.00166323 0)
(-0.0301107 0.00161004 0)
(-0.0433281 0.00152547 0)
(-0.0559018 0.00145522 0)
(-0.0677815 0.00136116 0)
(-0.0789293 0.00127989 0)
(-0.0893184 0.00118181 0)
(-0.0989338 0.0010952 0)
(-0.10777 0.00099776 0)
(-0.115831 0.00091063 0)
(-0.123129 0.000817491 0)
(-0.129681 0.000733589 0)
(-0.135514 0.00064732 0)
(-0.140654 0.000569277 0)
(-0.145134 0.000491414 0)
(-0.148987 0.000420691 0)
(-0.15225 0.000351772 0)
(-0.154956 0.000288883 0)
(-0.157142 0.000229495 0)
(-0.158837 0.000173023 0)
(-0.160076 0.000120212 0)
(-0.160877 7.06871e-05 0)
(-0.161271 2.43156e-05 0)
(-0.161287 -1.98671e-05 0)
(-0.160934 -6.23361e-05 0)
(-0.160233 -0.000103217 0)
(-0.15919 -0.000143451 0)
(-0.15781 -0.000182947 0)
(-0.156097 -0.000222577 0)
(-0.154047 -0.000263082 0)
(-0.151655 -0.000303784 0)
(-0.148911 -0.000347085 0)
(-0.145798 -0.000391219 0)
(-0.142299 -0.000439604 0)
(-0.138393 -0.000488204 0)
(-0.134044 -0.000539487 0)
(-0.129228 -0.000599045 0)
(-0.123916 -0.000656358 0)
(-0.118072 -0.000724958 0)
(-0.111667 -0.000788441 0)
(-0.104667 -0.000866313 0)
(-0.0970469 -0.000934213 0)
(-0.0887817 -0.00101943 0)
(-0.0798613 -0.00108871 0)
(-0.0702776 -0.00117849 0)
(-0.0600315 -0.00124537 0)
(-0.0491396 -0.00133586 0)
(-0.0376356 -0.00139336 0)
(-0.0255055 -0.00147576 0)
(-0.0128176 -0.00152314 0)
(0.000338347 -0.00159505 0)
(0.0139224 -0.00162449 0)
(0.0278287 -0.00167422 0)
(0.0419775 -0.00168473 0)
(0.0562418 -0.0016784 0)
(0.070511 -0.00168575 0)
(0.0846683 -0.00165404 0)
(0.0985774 -0.00162687 0)
(0.112101 -0.0015642 0)
(0.125091 -0.00150031 0)
(0.137407 -0.00140518 0)
(0.148902 -0.00130544 0)
(0.159441 -0.00117904 0)
(0.168898 -0.00104711 0)
(0.177146 -0.000894266 0)
(0.184088 -0.00073793 0)
(0.189623 -0.000565935 0)
(0.193702 -0.00039074 0)
(0.196271 -0.000205975 0)
(0.197294 -2.83206e-05 0)
(0.196771 0.00015692 0)
(0.194602 0.000337937 0)
(0.190937 0.000514587 0)
(0.185782 0.00069219 0)
(0.179248 0.000847053 0)
(0.171324 0.0010023 0)
(0.162217 0.00113472 0)
(0.151999 0.00126488 0)
(0.140817 0.00136777 0)
(0.128749 0.00146472 0)
(0.115977 0.00153526 0)
(0.10269 0.00159977 0)
(0.0889626 0.00163888 0)
(0.0749038 0.00167007 0)
(0.0606978 0.00168098 0)
(0.0464478 0.00168737 0)
(0.0322442 0.00166594 0)
(0.0182584 0.00164626 0)
(0.00451964 0.0016067 0)
(-0.0088864 0.00156865 0)
(-0.0219314 0.00151301 0)
(-0.0345077 0.00145995 0)
(-0.0465651 0.00139104 0)
(-0.0580821 0.00133105 0)
(-0.0690124 0.00126094 0)
(-0.079364 0.00118806 0)
(-0.0891052 0.00111833 0)
(-0.0982371 0.00104387 0)
(-0.106753 0.000973912 0)
(-0.114646 0.000897695 0)
(-0.121932 0.000829906 0)
(-0.128594 0.000749847 0)
(-0.134639 0.000686404 0)
(-0.140092 0.000608433 0)
(-0.144979 0.000550579 0)
(-0.149294 0.000468931 0)
(-0.153049 0.000414287 0)
(-0.156205 0.000340533 0)
(-0.158846 0.000285864 0)
(-0.160975 0.000218304 0)
(-0.162603 0.000167122 0)
(-0.163706 9.916e-05 0)
(-0.164287 4.3445e-05 0)
(-0.164403 -2.33218e-05 0)
(-0.163923 -7.68923e-05 0)
(-0.162997 -0.000143467 0)
(-0.161551 -0.000199593 0)
(-0.159641 -0.000257621 0)
(-0.157233 -0.000310871 0)
(-0.15437 -0.000365456 0)
(-0.151059 -0.000418878 0)
(-0.147306 -0.000469199 0)
(-0.143106 -0.000523633 0)
(-0.138463 -0.000574393 0)
(-0.133399 -0.000624675 0)
(-0.127909 -0.000675915 0)
(-0.121982 -0.00072697 0)
(-0.115621 -0.000774789 0)
(-0.10886 -0.000826883 0)
(-0.101668 -0.000873439 0)
(-0.0940626 -0.000923914 0)
(-0.0860563 -0.000972092 0)
(-0.0776473 -0.0010161 0)
(-0.0688462 -0.00106269 0)
(-0.0596572 -0.00111003 0)
(-0.0500879 -0.00115851 0)
(-0.0401479 -0.00119893 0)
(-0.0297997 -0.00124594 0)
(-0.0190721 -0.00129572 0)
(-0.00799199 -0.00133682 0)
(0.00352896 -0.00137676 0)
(0.015418 -0.00142189 0)
(0.0275946 -0.00145808 0)
(0.040054 -0.00148749 0)
(0.0527202 -0.00150642 0)
(0.0655115 -0.00151787 0)
(0.078321 -0.00151101 0)
(0.0910293 -0.00149491 0)
(0.103519 -0.00146192 0)
(0.115667 -0.00141381 0)
(0.127332 -0.00134523 0)
(0.138367 -0.00126359 0)
(0.148611 -0.0011632 0)
(0.157925 -0.00104752 0)
(0.16619 -0.000910004 0)
(0.173263 -0.000761626 0)
(0.179007 -0.000599019 0)
(0.183308 -0.000423769 0)
(0.186104 -0.000239743 0)
(0.187323 -5.31188e-05 0)
(0.186967 0.000141389 0)
(0.184888 0.000343174 0)
(0.18112 0.000540406 0)
(0.175718 0.00073419 0)
(0.168772 0.000911687 0)
(0.160342 0.00108195 0)
(0.150608 0.00122403 0)
(0.139671 0.00136094 0)
(0.127712 0.00147115 0)
(0.114876 0.00156809 0)
(0.10135 0.00163507 0)
(0.0872862 0.00169492 0)
(0.072845 0.00172707 0)
(0.0581922 0.00174063 0)
(0.0434836 0.00173917 0)
(0.028889 0.00171649 0)
(0.0145112 0.00168391 0)
(0.000529027 0.00162671 0)
(-0.0129852 0.0015696 0)
(-0.0258977 0.00149075 0)
(-0.0381472 0.00141735 0)
(-0.0497128 0.00132525 0)
(-0.0605606 0.00124402 0)
(-0.0706775 0.00115292 0)
(-0.0800043 0.0010628 0)
(-0.0885738 0.000970474 0)
(-0.096409 0.000887535 0)
(-0.103525 0.000801435 0)
(-0.11 0.000729541 0)
(-0.115858 0.000662127 0)
(-0.121174 0.00059481 0)
(-0.12596 0.000544068 0)
(-0.130263 0.000479534 0)
(-0.134176 0.000442181 0)
(-0.137665 0.000390442 0)
(-0.140777 0.000353302 0)
(-0.143536 0.000309314 0)
(-0.146035 0.000272609 0)
(-0.148233 0.000182356 0)
(-0.149626 9.81928e-05 0)
(-0.149958 4.26457e-05 0)
(-0.149504 0.000190798 0)
(-0.15014 0.000320176 0)
(-0.152803 0.000755818 0)
(-0.157599 0.000849939 0)
(-0.160428 0.000313154 0)
(-0.160931 -0.00153753 0)
(-0.156611 -0.00505839 0)
(-0.123704 -0.013499 0)
(0.187678 0.0020378 0)
(0.181589 0.00253753 0)
(0.173732 0.00304827 0)
(0.16454 0.00347383 0)
(0.154123 0.00392294 0)
(0.142595 0.00425025 0)
(0.130093 0.00461552 0)
(0.116755 0.00483224 0)
(0.102734 0.00509843 0)
(0.0881802 0.00520251 0)
(0.0732483 0.00536256 0)
(0.058088 0.00536005 0)
(0.0428464 0.00541547 0)
(0.0276662 0.00531831 0)
(0.0127163 0.00527636 0)
(-0.00198696 0.0051984 0)
(-0.0163392 0.0049902 0)
(-0.0301433 0.00483058 0)
(-0.0433637 0.00457677 0)
(-0.0559408 0.00436595 0)
(-0.0678221 0.0040837 0)
(-0.0789718 0.00383981 0)
(-0.0893613 0.0035455 0)
(-0.0989774 0.00328561 0)
(-0.107813 0.00299323 0)
(-0.115874 0.00273179 0)
(-0.12317 0.00245234 0)
(-0.129722 0.00220059 0)
(-0.135552 0.00194176 0)
(-0.14069 0.00170762 0)
(-0.145168 0.00147402 0)
(-0.14902 0.00126184 0)
(-0.152281 0.00105508 0)
(-0.154985 0.000866416 0)
(-0.157169 0.000688241 0)
(-0.158863 0.000518831 0)
(-0.160099 0.000360569 0)
(-0.160901 0.000211539 0)
(-0.161293 7.35129e-05 0)
(-0.161307 -5.95225e-05 0)
(-0.160954 -0.000187085 0)
(-0.160252 -0.000309717 0)
(-0.159208 -0.000430399 0)
(-0.157829 -0.000548847 0)
(-0.156116 -0.000667679 0)
(-0.154067 -0.000789098 0)
(-0.151675 -0.0009113 0)
(-0.148932 -0.00104115 0)
(-0.14582 -0.0011735 0)
(-0.142322 -0.00131865 0)
(-0.138418 -0.00146442 0)
(-0.13407 -0.00161823 0)
(-0.129257 -0.0017969 0)
(-0.123946 -0.00196884 0)
(-0.118105 -0.00217463 0)
(-0.111701 -0.0023651 0)
(-0.104703 -0.00259882 0)
(-0.0970842 -0.00280239 0)
(-0.0888206 -0.00305821 0)
(-0.0799004 -0.00326608 0)
(-0.0703174 -0.00353551 0)
(-0.0600706 -0.00373611 0)
(-0.0491777 -0.00400797 0)
(-0.0376713 -0.00418039 0)
(-0.0255397 -0.00442733 0)
(-0.0128492 -0.00456988 0)
(0.000310755 -0.00478579 0)
(0.0138995 -0.00487412 0)
(0.0278113 -0.00502339 0)
(0.0419659 -0.00505505 0)
(0.056236 -0.005036 0)
(0.070513 -0.00505823 0)
(0.0846774 -0.00496314 0)
(0.0985952 -0.00488171 0)
(0.112126 -0.00469395 0)
(0.125126 -0.00450204 0)
(0.13745 -0.00421627 0)
(0.148954 -0.00391808 0)
(0.159501 -0.00353856 0)
(0.168965 -0.00314281 0)
(0.17722 -0.00268408 0)
(0.184168 -0.00221584 0)
(0.18971 -0.00169571 0)
(0.193791 -0.00117567 0)
(0.196364 -0.000617853 0)
(0.197388 -8.70411e-05 0)
(0.196859 0.000469623 0)
(0.19469 0.00101331 0)
(0.191026 0.00154361 0)
(0.185868 0.00207674 0)
(0.17933 0.00254228 0)
(0.1714 0.00300777 0)
(0.162286 0.00340548 0)
(0.15206 0.00379577 0)
(0.140868 0.00410296 0)
(0.128791 0.00439511 0)
(0.116011 0.00460858 0)
(0.102714 0.00480162 0)
(0.0889762 0.00491803 0)
(0.0749091 0.00501124 0)
(0.0606977 0.00504539 0)
(0.0464372 0.00506176 0)
(0.0322266 0.00499932 0)
(0.0182344 0.00493852 0)
(0.0044905 0.00482179 0)
(-0.0089211 0.00470358 0)
(-0.0219727 0.0045385 0)
(-0.0345553 0.00437702 0)
(-0.0466184 0.00417425 0)
(-0.0581402 0.00398512 0)
(-0.0690684 0.00378169 0)
(-0.0794162 0.00356874 0)
(-0.0891541 0.0033596 0)
(-0.0982826 0.00313556 0)
(-0.106794 0.00292172 0)
(-0.114683 0.00269421 0)
(-0.121972 0.0024876 0)
(-0.128631 0.00225181 0)
(-0.13468 0.00205923 0)
(-0.140131 0.00182207 0)
(-0.145021 0.00165216 0)
(-0.149338 0.00140553 0)
(-0.153094 0.00124065 0)
(-0.156247 0.00101664 0)
(-0.158885 0.000855524 0)
(-0.161014 0.000658306 0)
(-0.162646 0.00049241 0)
(-0.16375 0.000294227 0)
(-0.16433 0.000134305 0)
(-0.164448 -7.55971e-05 0)
(-0.163965 -0.000232758 0)
(-0.163036 -0.000424934 0)
(-0.16159 -0.000597098 0)
(-0.159681 -0.0007734 0)
(-0.157272 -0.000931761 0)
(-0.154411 -0.00109596 0)
(-0.151099 -0.00125961 0)
(-0.147348 -0.0014113 0)
(-0.143145 -0.00156805 0)
(-0.1385 -0.00172299 0)
(-0.133436 -0.00187446 0)
(-0.127946 -0.00202579 0)
(-0.12202 -0.00218201 0)
(-0.11566 -0.00232871 0)
(-0.108895 -0.00247715 0)
(-0.101706 -0.00262763 0)
(-0.0940986 -0.00277293 0)
(-0.0860889 -0.00291429 0)
(-0.0776811 -0.00305187 0)
(-0.0688823 -0.00319373 0)
(-0.0596959 -0.00333244 0)
(-0.0501252 -0.00347568 0)
(-0.040183 -0.00360128 0)
(-0.0298365 -0.00373434 0)
(-0.019104 -0.00388711 0)
(-0.00801563 -0.00401174 0)
(0.00350923 -0.00412767 0)
(0.0154018 -0.00426663 0)
(0.0275857 -0.00437428 0)
(0.0400493 -0.00446483 0)
(0.0527183 -0.00452221 0)
(0.0655131 -0.0045542 0)
(0.0783254 -0.00453801 0)
(0.0910356 -0.00448784 0)
(0.103529 -0.00438976 0)
(0.115682 -0.00424653 0)
(0.127354 -0.00404207 0)
(0.138397 -0.00379397 0)
(0.148651 -0.0034888 0)
(0.157976 -0.00314186 0)
(0.166248 -0.00273594 0)
(0.173327 -0.00228391 0)
(0.179075 -0.00179699 0)
(0.183378 -0.00127462 0)
(0.186174 -0.000718326 0)
(0.187396 -0.000158573 0)
(0.187035 0.000421318 0)
(0.184954 0.00103017 0)
(0.181189 0.0016234 0)
(0.175776 0.00220647 0)
(0.168817 0.00273166 0)
(0.160379 0.00323882 0)
(0.150641 0.00368304 0)
(0.139697 0.00407968 0)
(0.127729 0.00441568 0)
(0.11488 0.00469996 0)
(0.101345 0.0049125 0)
(0.0872689 0.00508229 0)
(0.0728202 0.00517776 0)
(0.0581674 0.00522985 0)
(0.0434542 0.00522141 0)
(0.02886 0.00515257 0)
(0.0144749 0.00505553 0)
(0.000490233 0.00488394 0)
(-0.0130292 0.00471152 0)
(-0.0259413 0.00447038 0)
(-0.0381924 0.00425561 0)
(-0.0497604 0.00397969 0)
(-0.0606135 0.00372835 0)
(-0.070736 0.00345436 0)
(-0.0800664 0.00318544 0)
(-0.0886367 0.00290756 0)
(-0.0964739 0.00265661 0)
(-0.103586 0.00239696 0)
(-0.110055 0.00218922 0)
(-0.115912 0.00198962 0)
(-0.121222 0.00178586 0)
(-0.126004 0.00162852 0)
(-0.130297 0.00143853 0)
(-0.134207 0.0013265 0)
(-0.137697 0.00116828 0)
(-0.140808 0.00105374 0)
(-0.143534 0.000914452 0)
(-0.145954 0.00084981 0)
(-0.148156 0.000637429 0)
(-0.149993 0.000354902 0)
(-0.150972 -6.25461e-05 0)
(-0.150385 -6.71817e-05 0)
(-0.148365 0.000506979 0)
(-0.147338 0.000942187 0)
(-0.147449 0.00092288 0)
(-0.145329 0.000456902 0)
(-0.137347 -0.000924762 0)
(-0.12817 -0.000652292 0)
(-0.101442 -0.00082293 0)
(0.187846 0.00339759 0)
(0.181747 0.00423088 0)
(0.173883 0.00508259 0)
(0.164676 0.00579213 0)
(0.154249 0.00654107 0)
(0.142703 0.00708673 0)
(0.130187 0.00769579 0)
(0.116831 0.00805702 0)
(0.102794 0.00850083 0)
(0.0882221 0.00867415 0)
(0.0732739 0.00894092 0)
(0.058097 0.0089365 0)
(0.0428399 0.0090288 0)
(0.0276453 0.00886662 0)
(0.0126833 0.00879653 0)
(-0.00203253 0.00866616 0)
(-0.0163958 0.00831874 0)
(-0.0302093 0.00805251 0)
(-0.0434357 0.0076292 0)
(-0.0560194 0.00727758 0)
(-0.067904 0.00680687 0)
(-0.0790576 0.00640014 0)
(-0.0894478 0.00590938 0)
(-0.0990653 0.00547603 0)
(-0.1079 0.00498854 0)
(-0.11596 0.00455264 0)
(-0.123253 0.00408674 0)
(-0.129803 0.00366705 0)
(-0.135629 0.0032356 0)
(-0.140765 0.00284529 0)
(-0.145238 0.00245595 0)
(-0.149087 0.0021023 0)
(-0.152343 0.0017577 0)
(-0.155044 0.00144325 0)
(-0.157223 0.00114631 0)
(-0.158913 0.000864044 0)
(-0.160146 0.000600692 0)
(-0.160947 0.00035258 0)
(-0.161338 0.000121929 0)
(-0.161348 -9.92814e-05 0)
(-0.160993 -0.00031207 0)
(-0.16029 -0.000516441 0)
(-0.159246 -0.000717475 0)
(-0.157866 -0.000914811 0)
(-0.156153 -0.00111264 0)
(-0.154105 -0.00131475 0)
(-0.151715 -0.00151865 0)
(-0.148973 -0.00173497 0)
(-0.145863 -0.00195537 0)
(-0.142368 -0.00219725 0)
(-0.138466 -0.00244009 0)
(-0.134122 -0.00269634 0)
(-0.129312 -0.00299413 0)
(-0.124005 -0.0032807 0)
(-0.118168 -0.00362365 0)
(-0.111767 -0.00394121 0)
(-0.104773 -0.00433109 0)
(-0.0971557 -0.00467003 0)
(-0.0888945 -0.00509682 0)
(-0.0799745 -0.00544338 0)
(-0.0703923 -0.00589272 0)
(-0.0601439 -0.00622697 0)
(-0.0492482 -0.00668006 0)
(-0.0377362 -0.00696967 0)
(-0.0256012 -0.00737909 0)
(-0.0129051 -0.00761811 0)
(0.000263356 -0.0079784 0)
(0.0138621 -0.00812556 0)
(0.0277853 -0.00837477 0)
(0.0419515 -0.00842781 0)
(0.0562338 -0.00839595 0)
(0.0705263 -0.0084335 0)
(0.0847049 -0.00827504 0)
(0.0986398 -0.0081399 0)
(0.112186 -0.00782668 0)
(0.125203 -0.0075076 0)
(0.137543 -0.00703098 0)
(0.149062 -0.00653473 0)
(0.159625 -0.00590082 0)
(0.169102 -0.00524209 0)
(0.177369 -0.00447675 0)
(0.184325 -0.00369663 0)
(0.189876 -0.00282939 0)
(0.193961 -0.0019637 0)
(0.196537 -0.00103258 0)
(0.197559 -0.000143424 0)
(0.197015 0.000785272 0)
(0.194851 0.00168763 0)
(0.191187 0.00257247 0)
(0.186022 0.00346372 0)
(0.179475 0.00423917 0)
(0.171535 0.00501665 0)
(0.162408 0.00567809 0)
(0.152167 0.00632836 0)
(0.140961 0.00684157 0)
(0.128867 0.0073241 0)
(0.116074 0.00768382 0)
(0.102761 0.00801093 0)
(0.0890079 0.00819986 0)
(0.0749267 0.00835616 0)
(0.0607063 0.00840961 0)
(0.0464271 0.00843851 0)
(0.0322069 0.00833445 0)
(0.0182025 0.00823552 0)
(0.00445024 0.00803752 0)
(-0.00897396 0.00784374 0)
(-0.0220372 0.00756424 0)
(-0.0346379 0.00729935 0)
(-0.0467137 0.00695784 0)
(-0.0582435 0.00664732 0)
(-0.069178 0.00630649 0)
(-0.0795275 0.00594624 0)
(-0.0892629 0.00559641 0)
(-0.0983827 0.00522261 0)
(-0.106888 0.00486757 0)
(-0.11477 0.00448918 0)
(-0.122064 0.00414614 0)
(-0.128723 0.00375159 0)
(-0.134785 0.00343115 0)
(-0.14023 0.00303647 0)
(-0.145129 0.00275392 0)
(-0.149445 0.00234312 0)
(-0.1532 0.00206688 0)
(-0.156341 0.00169233 0)
(-0.158979 0.00143092 0)
(-0.161105 0.00109197 0)
(-0.16274 0.000825123 0)
(-0.163847 0.000493263 0)
(-0.164437 0.000220264 0)
(-0.164542 -0.000122498 0)
(-0.164056 -0.000389267 0)
(-0.163129 -0.000714003 0)
(-0.161675 -0.000996636 0)
(-0.159767 -0.00128797 0)
(-0.157354 -0.00155429 0)
(-0.154492 -0.00182702 0)
(-0.151176 -0.00209977 0)
(-0.147424 -0.00235323 0)
(-0.143219 -0.00261466 0)
(-0.138569 -0.00287253 0)
(-0.133503 -0.0031266 0)
(-0.128015 -0.00337953 0)
(-0.122092 -0.00363567 0)
(-0.115731 -0.00388278 0)
(-0.108966 -0.00413096 0)
(-0.101775 -0.00437824 0)
(-0.0941666 -0.00462101 0)
(-0.0861532 -0.00485733 0)
(-0.0777424 -0.00508598 0)
(-0.0689461 -0.00532086 0)
(-0.0597684 -0.00555383 0)
(-0.0502034 -0.00579015 0)
(-0.0402614 -0.0060028 0)
(-0.0299195 -0.00622741 0)
(-0.0191815 -0.00647596 0)
(-0.00808142 -0.00669708 0)
(0.00345119 -0.00688809 0)
(0.0153511 -0.00711425 0)
(0.0275443 -0.00729503 0)
(0.0400123 -0.00744367 0)
(0.0526845 -0.0075396 0)
(0.0654853 -0.00759226 0)
(0.0783013 -0.00756279 0)
(0.0910122 -0.00748047 0)
(0.103512 -0.0073218 0)
(0.115681 -0.00707673 0)
(0.127371 -0.00673692 0)
(0.138432 -0.00632561 0)
(0.148705 -0.00581963 0)
(0.158054 -0.0052426 0)
(0.166349 -0.00456001 0)
(0.173444 -0.00381327 0)
(0.17921 -0.00299839 0)
(0.183526 -0.00212366 0)
(0.186325 -0.0011995 0)
(0.187551 -0.000260719 0)
(0.187182 0.000705508 0)
(0.185114 0.0017155 0)
(0.181352 0.00271144 0)
(0.175918 0.00367983 0)
(0.168947 0.00455256 0)
(0.160501 0.00540158 0)
(0.150748 0.00614124 0)
(0.13979 0.00680638 0)
(0.127801 0.00735764 0)
(0.114933 0.00784094 0)
(0.101379 0.0081867 0)
(0.0872807 0.00847576 0)
(0.0728162 0.00863365 0)
(0.05815 0.0087149 0)
(0.043429 0.00870314 0)
(0.0288326 0.00858826 0)
(0.0144314 0.00842754 0)
(0.000436161 0.00814032 0)
(-0.0131032 0.00785366 0)
(-0.0260174 0.00745348 0)
(-0.0382835 0.00709256 0)
(-0.0498558 0.00662856 0)
(-0.0607193 0.00622029 0)
(-0.0708538 0.00576032 0)
(-0.0801926 0.00530956 0)
(-0.0887686 0.00484716 0)
(-0.0966113 0.00442844 0)
(-0.103715 0.00400019 0)
(-0.110181 0.00365094 0)
(-0.116043 0.00331307 0)
(-0.121341 0.0029723 0)
(-0.126118 0.00271227 0)
(-0.130389 0.00239437 0)
(-0.134287 0.00221069 0)
(-0.137764 0.00194559 0)
(-0.140871 0.00175359 0)
(-0.143585 0.00150889 0)
(-0.146 0.00138557 0)
(-0.14812 0.00110271 0)
(-0.15001 0.000767693 0)
(-0.151275 0.000122527 0)
(-0.151223 -0.000355349 0)
(-0.148355 -0.000406248 0)
(-0.143337 0.000539934 0)
(-0.138661 0.000479332 0)
(-0.13243 -0.00190003 0)
(-0.124859 -0.00579403 0)
(-0.118015 -0.00969588 0)
(-0.0943118 -0.0195002 0)
(0.188097 0.00475926 0)
(0.181985 0.00592674 0)
(0.174109 0.0071201 0)
(0.164882 0.00811412 0)
(0.154437 0.00916344 0)
(0.142866 0.00992769 0)
(0.130329 0.010781 0)
(0.116945 0.0112867 0)
(0.102884 0.0119084 0)
(0.088285 0.0121508 0)
(0.0733123 0.0125243 0)
(0.0581106 0.0125176 0)
(0.04283 0.0126466 0)
(0.0276139 0.0124191 0)
(0.0126336 0.0123204 0)
(-0.00210102 0.0121373 0)
(-0.0164809 0.0116499 0)
(-0.0303083 0.0112768 0)
(-0.0435438 0.0106835 0)
(-0.0561375 0.0101907 0)
(-0.0680269 0.00953109 0)
(-0.0791864 0.00896116 0)
(-0.0895776 0.00827361 0)
(-0.0991973 0.00766646 0)
(-0.108029 0.00698358 0)
(-0.116089 0.00637296 0)
(-0.123378 0.00572041 0)
(-0.129924 0.0051326 0)
(-0.135745 0.00452844 0)
(-0.140876 0.00398188 0)
(-0.145343 0.00343674 0)
(-0.149186 0.00294159 0)
(-0.152436 0.00245916 0)
(-0.155132 0.00201893 0)
(-0.157306 0.00160326 0)
(-0.15899 0.0012082 0)
(-0.160218 0.000840203 0)
(-0.161015 0.000493205 0)
(-0.161405 0.000170492 0)
(-0.161409 -0.000139563 0)
(-0.161053 -0.000437427 0)
(-0.160347 -0.000723524 0)
(-0.159303 -0.00100471 0)
(-0.157922 -0.00128085 0)
(-0.15621 -0.00155738 0)
(-0.154163 -0.00183987 0)
(-0.151774 -0.00212564 0)
(-0.149035 -0.00242836 0)
(-0.145928 -0.0027365 0)
(-0.142437 -0.00307508 0)
(-0.13854 -0.00341484 0)
(-0.1342 -0.00377341 0)
(-0.129396 -0.00419027 0)
(-0.124094 -0.00459154 0)
(-0.118263 -0.00507156 0)
(-0.111866 -0.00551639 0)
(-0.104878 -0.00606286 0)
(-0.0972628 -0.00653693 0)
(-0.0890056 -0.00713513 0)
(-0.0800856 -0.00762057 0)
(-0.0705048 -0.0082503 0)
(-0.0602538 -0.00871794 0)
(-0.0493545 -0.00935155 0)
(-0.0378337 -0.00976057 0)
(-0.0256932 -0.0103341 0)
(-0.0129894 -0.0106689 0)
(0.000192191 -0.0111739 0)
(0.0138058 -0.01138 0)
(0.0277461 -0.0117296 0)
(0.04193 -0.0118045 0)
(0.0562304 -0.0117597 0)
(0.0705459 -0.0118131 0)
(0.0847459 -0.0115913 0)
(0.0987064 -0.0114028 0)
(0.112276 -0.0109642 0)
(0.125319 -0.0105178 0)
(0.137682 -0.00985044 0)
(0.149225 -0.00915592 0)
(0.15981 -0.00826665 0)
(0.169306 -0.00734478 0)
(0.17759 -0.00627257 0)
(0.18456 -0.00517996 0)
(0.190124 -0.00396342 0)
(0.194214 -0.00275319 0)
(0.196796 -0.00144937 0)
(0.197816 -0.000201481 0)
(0.197253 0.00110782 0)
(0.195097 0.00236055 0)
(0.19143 0.00360122 0)
(0.186254 0.00485328 0)
(0.179694 0.00594017 0)
(0.171736 0.00702923 0)
(0.162594 0.00795502 0)
(0.152327 0.00886385 0)
(0.1411 0.00958351 0)
(0.12898 0.0102546 0)
(0.116169 0.0107638 0)
(0.102828 0.0112263 0)
(0.0890556 0.0114867 0)
(0.07495 0.0117048 0)
(0.0607159 0.0117777 0)
(0.0464097 0.0118146 0)
(0.0321731 0.0116718 0)
(0.0181548 0.011538 0)
(0.00439315 0.0112592 0)
(-0.00905263 0.010986 0)
(-0.0221306 0.0105994 0)
(-0.0347478 0.0102271 0)
(-0.0468385 0.00974905 0)
(-0.0583864 0.00930826 0)
(-0.0693267 0.00883121 0)
(-0.0796733 0.00832477 0)
(-0.0894145 0.00783235 0)
(-0.0985268 0.00730588 0)
(-0.107029 0.00681026 0)
(-0.114897 0.00628014 0)
(-0.122204 0.00580553 0)
(-0.128849 0.00525134 0)
(-0.134938 0.00480426 0)
(-0.140361 0.00425128 0)
(-0.145271 0.00385811 0)
(-0.149582 0.00328428 0)
(-0.153356 0.00289341 0)
(-0.156453 0.00235961 0)
(-0.15911 0.00201316 0)
(-0.161234 0.00152269 0)
(-0.162879 0.00116038 0)
(-0.163977 0.000692358 0)
(-0.164579 0.000303659 0)
(-0.164671 -0.000164666 0)
(-0.164171 -0.000554856 0)
(-0.163258 -0.00099615 0)
(-0.161784 -0.00139618 0)
(-0.159889 -0.00180184 0)
(-0.157462 -0.0021809 0)
(-0.154608 -0.00255756 0)
(-0.151281 -0.00294312 0)
(-0.147528 -0.00329956 0)
(-0.143321 -0.00365952 0)
(-0.13867 -0.00402377 0)
(-0.133603 -0.0043759 0)
(-0.128112 -0.00473394 0)
(-0.122195 -0.00508661 0)
(-0.115832 -0.00543699 0)
(-0.109069 -0.00578388 0)
(-0.101869 -0.00613403 0)
(-0.0942594 -0.00646176 0)
(-0.0862379 -0.00680024 0)
(-0.0778281 -0.00712148 0)
(-0.0690305 -0.00744623 0)
(-0.0598612 -0.00777057 0)
(-0.0503081 -0.00810081 0)
(-0.0403691 -0.0084092 0)
(-0.0300259 -0.0087187 0)
(-0.0192864 -0.00906395 0)
(-0.00817493 -0.00938305 0)
(0.00336696 -0.00965796 0)
(0.0152714 -0.00996365 0)
(0.0274762 -0.0102155 0)
(0.0399499 -0.0104258 0)
(0.0526291 -0.0105601 0)
(0.0654479 -0.0106287 0)
(0.0782723 -0.0105914 0)
(0.0909905 -0.0104748 0)
(0.103512 -0.0102502 0)
(0.1157 -0.00991232 0)
(0.127412 -0.0094384 0)
(0.138502 -0.00886071 0)
(0.148802 -0.00815732 0)
(0.15818 -0.00734418 0)
(0.166499 -0.00639349 0)
(0.173623 -0.00534782 0)
(0.179419 -0.00420264 0)
(0.183753 -0.00297786 0)
(0.186551 -0.00168244 0)
(0.187787 -0.000366554 0)
(0.187416 0.000996716 0)
(0.185371 0.00240394 0)
(0.18161 0.00379879 0)
(0.176132 0.00515468 0)
(0.16915 0.00638484 0)
(0.160702 0.00756736 0)
(0.15092 0.00860139 0)
(0.139941 0.00953948 0)
(0.127938 0.0103106 0)
(0.115027 0.0109844 0)
(0.101448 0.011474 0)
(0.0873168 0.0118735 0)
(0.0728178 0.0120934 0)
(0.0581388 0.0122075 0)
(0.0433867 0.0121886 0)
(0.0287846 0.012025 0)
(0.0143593 0.0118068 0)
(0.000350346 0.011402 0)
(-0.0132288 0.0109964 0)
(-0.0261485 0.0104369 0)
(-0.0384191 0.00993078 0)
(-0.049995 0.00928947 0)
(-0.0608784 0.00870712 0)
(-0.0710223 0.00806977 0)
(-0.0803519 0.0074405 0)
(-0.0889421 0.00678856 0)
(-0.0967968 0.00620248 0)
(-0.103885 0.0056016 0)
(-0.110343 0.00511513 0)
(-0.116195 0.00463562 0)
(-0.121491 0.00415474 0)
(-0.126271 0.00378522 0)
(-0.130504 0.00334905 0)
(-0.134401 0.00308544 0)
(-0.137845 0.00272067 0)
(-0.140959 0.002451 0)
(-0.143652 0.00210528 0)
(-0.146097 0.00193763 0)
(-0.148163 0.00154851 0)
(-0.149975 0.00116663 0)
(-0.151451 0.000226624 0)
(-0.151865 -0.000589731 0)
(-0.149347 -0.00128857 0)
(-0.143604 -0.0012974 0)
(-0.135686 -0.00168986 0)
(-0.127505 -0.0029636 0)
(-0.119568 -0.00579306 0)
(-0.111417 -0.00739089 0)
(-0.0965574 -0.0153553 0)
(0.188432 0.00612359 0)
(0.182302 0.00762612 0)
(0.174412 0.00916212 0)
(0.165156 0.0104413 0)
(0.154689 0.0117918 0)
(0.143083 0.0127749 0)
(0.130518 0.013873 0)
(0.117097 0.0145234 0)
(0.103005 0.0153232 0)
(0.0883688 0.0156343 0)
(0.0733635 0.0161146 0)
(0.0581285 0.0161052 0)
(0.0428166 0.0162708 0)
(0.0275719 0.0159773 0)
(0.0125672 0.0158494 0)
(-0.00219259 0.0156131 0)
(-0.0165945 0.0149849 0)
(-0.0304405 0.0145043 0)
(-0.0436881 0.0137404 0)
(-0.0562951 0.0131059 0)
(-0.0681909 0.0122568 0)
(-0.0793582 0.0115231 0)
(-0.0897508 0.0106383 0)
(-0.0993734 0.00985691 0)
(-0.108203 0.00897824 0)
(-0.116261 0.00819254 0)
(-0.123544 0.00735302 0)
(-0.130087 0.00659691 0)
(-0.1359 0.00581989 0)
(-0.141024 0.00511692 0)
(-0.145483 0.00441596 0)
(-0.149319 0.00377925 0)
(-0.15256 0.00315901 0)
(-0.155248 0.002593 0)
(-0.157416 0.00205862 0)
(-0.159092 0.00155078 0)
(-0.160314 0.00107846 0)
(-0.161106 0.000632599 0)
(-0.161491 0.00021787 0)
(-0.161491 -0.00018059 0)
(-0.161132 -0.000563297 0)
(-0.160424 -0.000931132 0)
(-0.159378 -0.00129218 0)
(-0.157997 -0.00164674 0)
(-0.156285 -0.00200212 0)
(-0.15424 -0.0023645 0)
(-0.151853 -0.0027321 0)
(-0.149118 -0.00312114 0)
(-0.146015 -0.00351661 0)
(-0.142529 -0.00395175 0)
(-0.138637 -0.0043883 0)
(-0.134304 -0.00484904 0)
(-0.129508 -0.00538489 0)
(-0.124211 -0.00590094 0)
(-0.118389 -0.00651797 0)
(-0.111998 -0.00709028 0)
(-0.105017 -0.00779352 0)
(-0.0974056 -0.008403 0)
(-0.0891538 -0.00917298 0)
(-0.0802341 -0.00979753 0)
(-0.0706549 -0.0106091 0)
(-0.0604003 -0.0112085 0)
(-0.0494966 -0.0120234 0)
(-0.0379647 -0.0125519 0)
(-0.0258161 -0.0132944 0)
(-0.0131015 -0.013723 0)
(9.72361e-05 -0.0143732 0)
(0.0137306 -0.0146384 0)
(0.0276936 -0.0150893 0)
(0.0419011 -0.0151865 0)
(0.0562254 -0.0151289 0)
(0.070572 -0.0151989 0)
(0.0847998 -0.0149135 0)
(0.0987949 -0.0146723 0)
(0.112394 -0.0141076 0)
(0.125473 -0.0135348 0)
(0.137865 -0.0126751 0)
(0.149443 -0.0117834 0)
(0.160054 -0.0106352 0)
(0.169578 -0.00945277 0)
(0.177882 -0.00806896 0)
(0.184875 -0.00666614 0)
(0.190451 -0.00509535 0)
(0.194553 -0.00354425 0)
(0.197138 -0.00186218 0)
(0.198163 -0.000261227 0)
(0.197585 0.00143187 0)
(0.195434 0.00303231 0)
(0.191755 0.00463102 0)
(0.186565 0.00624734 0)
(0.179985 0.00764543 0)
(0.172004 0.00904719 0)
(0.16284 0.0102361 0)
(0.152543 0.0114058 0)
(0.141282 0.0123305 0)
(0.129136 0.0131924 0)
(0.116293 0.0138471 0)
(0.102918 0.0144513 0)
(0.0891121 0.0147788 0)
(0.0749781 0.015062 0)
(0.0607188 0.0151486 0)
(0.046384 0.015191 0)
(0.0321201 0.0150134 0)
(0.0180855 0.0148523 0)
(0.00431291 0.0144809 0)
(-0.00916059 0.0141386 0)
(-0.0222594 0.0136303 0)
(-0.0348729 0.0131586 0)
(-0.046984 0.012545 0)
(-0.0585536 0.0119745 0)
(-0.0695054 0.0113465 0)
(-0.0798403 0.0107139 0)
(-0.0895942 0.0100628 0)
(-0.0986888 0.00939072 0)
(-0.107219 0.00875322 0)
(-0.115042 0.00806567 0)
(-0.122397 0.00747981 0)
(-0.128984 0.0067402 0)
(-0.135138 0.00619744 0)
(-0.140503 0.00545355 0)
(-0.145449 0.00497199 0)
(-0.149717 0.00422072 0)
(-0.15354 0.00372444 0)
(-0.156581 0.00300701 0)
(-0.159297 0.00261431 0)
(-0.161381 0.00194252 0)
(-0.16306 0.00150563 0)
(-0.164112 0.000878933 0)
(-0.164737 0.000390961 0)
(-0.164826 -0.000208865 0)
(-0.164296 -0.0007176 0)
(-0.16343 -0.00128126 0)
(-0.1619 -0.00179484 0)
(-0.160054 -0.00231107 0)
(-0.157586 -0.00281128 0)
(-0.154753 -0.00328355 0)
(-0.151416 -0.00378868 0)
(-0.147658 -0.00423799 0)
(-0.143453 -0.00470944 0)
(-0.138799 -0.00516903 0)
(-0.133742 -0.0056287 0)
(-0.128235 -0.00609007 0)
(-0.122329 -0.00653189 0)
(-0.115959 -0.00699187 0)
(-0.109206 -0.00743486 0)
(-0.101994 -0.00789222 0)
(-0.0943884 -0.00830296 0)
(-0.0863442 -0.00874398 0)
(-0.0779472 -0.00915802 0)
(-0.0691455 -0.00957304 0)
(-0.0599763 -0.00998414 0)
(-0.0504274 -0.010406 0)
(-0.0404921 -0.0108113 0)
(-0.030149 -0.0112128 0)
(-0.0194136 -0.0116497 0)
(-0.0082933 -0.0120648 0)
(0.00325077 -0.0124347 0)
(0.015169 -0.0128114 0)
(0.0273794 -0.0131372 0)
(0.0398656 -0.0134034 0)
(0.05256 -0.0135812 0)
(0.0654115 -0.0136749 0)
(0.0782512 -0.0136166 0)
(0.0909895 -0.0134722 0)
(0.103546 -0.0131886 0)
(0.115773 -0.012747 0)
(0.127494 -0.0121537 0)
(0.138645 -0.0114044 0)
(0.148964 -0.0104974 0)
(0.158378 -0.00945699 0)
(0.166719 -0.00822686 0)
(0.173877 -0.00689461 0)
(0.179718 -0.00541375 0)
(0.184055 -0.0038275 0)
(0.186881 -0.00216736 0)
(0.188107 -0.000470071 0)
(0.187751 0.00127963 0)
(0.185728 0.00308526 0)
(0.18195 0.00490189 0)
(0.176418 0.00664333 0)
(0.16945 0.00821437 0)
(0.16098 0.00973606 0)
(0.151151 0.0110643 0)
(0.140147 0.0122853 0)
(0.128135 0.0132567 0)
(0.115135 0.0141519 0)
(0.101563 0.0147593 0)
(0.0873677 0.015284 0)
(0.0728231 0.0155633 0)
(0.0581393 0.0156996 0)
(0.0433179 0.0156915 0)
(0.028722 0.0154559 0)
(0.0142232 0.015202 0)
(0.000243439 0.0146599 0)
(-0.0134125 0.0141641 0)
(-0.0263298 0.0134182 0)
(-0.0386031 0.0127712 0)
(-0.0501895 0.0119444 0)
(-0.0610737 0.0112087 0)
(-0.0712666 0.0103803 0)
(-0.0805173 0.00956019 0)
(-0.0891363 0.00873537 0)
(-0.0970194 0.00797942 0)
(-0.104048 0.00719425 0)
(-0.110553 0.00657522 0)
(-0.116341 0.00594862 0)
(-0.12162 0.00534279 0)
(-0.126433 0.00485843 0)
(-0.13061 0.00429815 0)
(-0.134548 0.00396812 0)
(-0.137911 0.00348226 0)
(-0.141083 0.00315617 0)
(-0.143761 0.00269484 0)
(-0.146261 0.00248469 0)
(-0.148251 0.00196893 0)
(-0.150034 0.00158223 0)
(-0.151528 0.000507078 0)
(-0.152183 -0.000744832 0)
(-0.149697 -0.00232119 0)
(-0.144125 -0.00279774 0)
(-0.136125 -0.00339633 0)
(-0.126916 -0.0055224 0)
(-0.119004 -0.00938389 0)
(-0.109247 -0.0119457 0)
(-0.0989239 -0.022451 0)
(0.188851 0.00749132 0)
(0.182699 0.00933004 0)
(0.17479 0.0112099 0)
(0.165498 0.0127751 0)
(0.155003 0.0144277 0)
(0.143355 0.0156303 0)
(0.130754 0.0169739 0)
(0.117286 0.0177689 0)
(0.103155 0.0187473 0)
(0.0884735 0.0191268 0)
(0.0734273 0.0197139 0)
(0.0581508 0.0197012 0)
(0.0427998 0.0199031 0)
(0.027519 0.0195431 0)
(0.0124838 0.0193853 0)
(-0.00230744 0.0190947 0)
(-0.0167368 0.0183246 0)
(-0.0306061 0.017736 0)
(-0.0438688 0.0168008 0)
(-0.0564925 0.0160238 0)
(-0.0683963 0.0149844 0)
(-0.0795733 0.0140864 0)
(-0.0899675 0.0130036 0)
(-0.0995937 0.0120474 0)
(-0.10842 0.0109724 0)
(-0.116476 0.0100112 0)
(-0.123752 0.00898429 0)
(-0.13029 0.0080596 0)
(-0.136093 0.00710954 0)
(-0.14121 0.00624999 0)