/*--------------------------------*- C++ -*----------------------------------*\
| =========                 |                                                 |
| \\      /  F ield         | OpenFOAM: The Open Source CFD Toolbox           |
|  \\    /   O peration     | Version:  3.0.1                                 |
|   \\  /    A nd           | Web:      www.OpenFOAM.org                      |
|    \\/     M anipulation  |                                                 |
\*---------------------------------------------------------------------------*/
FoamFile
{
    version     2.0;
    format      ascii;
    class       surfaceScalarField;
    location    "19.4";
    object      alphaPhi;
}
// * * * * * * * * * * * * * * * * * * * * * * * * * * * * * * * * * * * * * //

dimensions      [0 3 -1 0 0 0 0];

internalField   nonuniform List<scalar> 
42423
(
-0.000139155
-7.64732e-06
-0.000130408
-8.74755e-06
-0.000120742
-9.66624e-06
-0.000110124
-1.06173e-05
-9.82962e-05
-1.18283e-05
-8.55054e-05
-1.27909e-05
-7.1459e-05
-1.40464e-05
-5.65524e-05
-1.49067e-05
-4.09138e-05
-1.56386e-05
-2.43515e-05
-1.65624e-05
-6.96348e-06
-1.73881e-05
1.10579e-05
-1.80214e-05
2.96154e-05
-1.85576e-05
4.84866e-05
-1.88712e-05
6.76684e-05
-1.91819e-05
8.68771e-05
-1.92088e-05
0.000105745
-1.88677e-05
0.000124114
-1.83697e-05
0.000141763
-1.76481e-05
0.00015831
-1.65471e-05
0.000173556
-1.52467e-05
0.00018728
-1.3724e-05
0.000199182
-1.19016e-05
0.000209066
-9.88385e-06
0.000216754
-7.68887e-06
0.000222119
-5.36511e-06
0.000225048
-2.92864e-06
0.000225457
-4.08815e-07
0.000223357
2.09933e-06
0.000218681
4.67643e-06
0.000211502
7.17879e-06
0.000202163
9.33866e-06
0.000190703
1.14602e-05
0.000177462
1.32408e-05
0.000162592
1.48703e-05
0.000146277
1.63152e-05
0.00012886
1.74171e-05
0.000110581
1.8279e-05
9.17082e-05
1.88724e-05
7.25231e-05
1.9185e-05
5.31817e-05
1.93414e-05
3.39898e-05
1.91919e-05
1.49825e-05
1.90073e-05
-3.45186e-06
1.84344e-05
-2.12736e-05
1.78218e-05
-3.83871e-05
1.71135e-05
-5.46437e-05
1.62566e-05
-7.00148e-05
1.53711e-05
-8.44328e-05
1.44179e-05
-9.78673e-05
1.34345e-05
-0.000110294
1.24264e-05
-0.000121719
1.14258e-05
-0.000132164
1.04449e-05
-0.000141674
9.50976e-06
-0.000150207
8.53333e-06
-0.00015785
7.64262e-06
-0.00016464
6.79e-06
-0.000170539
5.89871e-06
-0.000175573
5.03463e-06
-0.00017978
4.2063e-06
-0.00018314
3.36074e-06
-0.00018575
2.60974e-06
-0.000187534
1.78374e-06
-0.000188491
9.56646e-07
-0.000188691
2.00521e-07
-0.000188004
-6.8704e-07
-0.000186408
-1.5964e-06
-0.000184055
-2.35229e-06
-0.000180796
-3.25918e-06
-0.000176703
-4.09351e-06
-0.000171807
-4.89548e-06
-0.000165971
-5.83687e-06
-0.000159367
-6.60357e-06
-0.000151941
-7.42594e-06
-0.000143622
-8.31883e-06
-0.000134522
-9.10019e-06
-0.000124548
-9.9739e-06
-0.000113828
-1.07201e-05
-0.000102197
-1.16312e-05
-8.97836e-05
-1.24136e-05
-7.66874e-05
-1.30963e-05
-6.29207e-05
-1.37668e-05
-4.83939e-05
-1.45269e-05
-3.32352e-05
-1.51587e-05
-1.74929e-05
-1.57425e-05
-1.09651e-06
-1.63964e-05
1.57558e-05
-1.68524e-05
3.29789e-05
-1.72231e-05
5.05637e-05
-1.7585e-05
6.83034e-05
-1.77397e-05
8.60162e-05
-1.77129e-05
0.000103482
-1.74657e-05
0.000120435
-1.69529e-05
0.000136735
-1.63006e-05
0.000152094
-1.53588e-05
0.000166322
-1.42283e-05
0.000179092
-1.27702e-05
0.000190217
-1.11255e-05
0.000199502
-9.28502e-06
0.000206671
-7.1687e-06
0.0002116
-4.92952e-06
0.000214301
-2.7006e-06
0.000214585
-2.84318e-07
0.000212441
2.14439e-06
0.000207881
4.56001e-06
0.00020089
6.99056e-06
0.000191617
9.27262e-06
0.000180207
1.14103e-05
0.000166854
1.33533e-05
0.000151751
1.51025e-05
0.000135212
1.65395e-05
0.000117517
1.76942e-05
9.89407e-05
1.85768e-05
7.9788e-05
1.91527e-05
6.03443e-05
1.94437e-05
4.08282e-05
1.95161e-05
2.15108e-05
1.93174e-05
2.62662e-06
1.88842e-05
-1.57216e-05
1.83483e-05
-3.33022e-05
1.75806e-05
-5.00176e-05
1.67154e-05
-6.57905e-05
1.57729e-05
-8.05649e-05
1.47744e-05
-9.42969e-05
1.3732e-05
-0.000106955
1.26582e-05
-0.00011857
1.16146e-05
-0.00012917
1.06e-05
-0.000138743
9.5737e-06
-0.000147337
8.59408e-06
-0.000154998
7.66008e-06
-0.000161705
6.70741e-06
-0.000167504
5.79866e-06
-0.000172488
4.98446e-06
-0.00017661
4.12161e-06
-0.000179902
3.29218e-06
-0.000182338
2.43637e-06
-0.000183971
1.63306e-06
-0.000184838
8.6638e-07
-0.000184956
1.17876e-07
-0.000184361
-5.95081e-07
-0.000182992
-1.36818e-06
-0.000180968
-2.02467e-06
-0.000178208
-2.76004e-06
-0.000174746
-3.46212e-06
-0.000170697
-4.04836e-06
-0.000165949
-4.74787e-06
-0.000160476
-5.47369e-06
-0.000154189
-6.28705e-06
-0.00014717
-7.0188e-06
-0.000139357
-7.81272e-06
-0.00013082
-8.53703e-06
-0.000121515
-9.30565e-06
-0.000111259
-1.0256e-05
-0.00010022
-1.10393e-05
-8.82786e-05
-1.19411e-05
-7.53707e-05
-1.29079e-05
-6.16096e-05
-1.37612e-05
-4.68397e-05
-1.477e-05
-3.13791e-05
-1.54607e-05
-1.51545e-05
-1.62247e-05
1.81696e-06
-1.69716e-05
1.93015e-05
-1.74846e-05
3.72134e-05
-1.7912e-05
5.53722e-05
-1.81588e-05
7.35954e-05
-1.82233e-05
9.16632e-05
-1.80679e-05
0.000109333
-1.76701e-05
0.000126361
-1.70282e-05
0.00014253
-1.61691e-05
0.00015756
-1.50296e-05
0.000171171
-1.36109e-05
0.000183236
-1.20656e-05
0.000193446
-1.02102e-05
0.000201548
-8.10176e-06
0.000207517
-5.96892e-06
0.000211229
-3.71179e-06
0.000212675
-1.4463e-06
0.000211702
9.72548e-07
0.000208258
3.44393e-06
0.000202509
5.74975e-06
0.000194503
8.00574e-06
0.000184353
1.01498e-05
0.000172229
1.2124e-05
0.000158365
1.38639e-05
0.000142982
1.53831e-05
0.000126309
1.66731e-05
0.00010858
1.77282e-05
9.0092e-05
1.84884e-05
7.10727e-05
1.90193e-05
5.18195e-05
1.92533e-05
3.25545e-05
1.92649e-05
1.35158e-05
1.90387e-05
-5.11325e-06
1.86291e-05
-2.30874e-05
1.79742e-05
-4.03099e-05
1.72225e-05
-5.66662e-05
1.63564e-05
-7.19512e-05
1.5285e-05
-8.61672e-05
1.4216e-05
-9.92779e-05
1.31107e-05
-0.000111179
1.19016e-05
-0.000121927
1.07473e-05
-0.000131498
9.57118e-06
-0.000139937
8.43951e-06
-0.00014725
7.31234e-06
-0.000153532
6.28264e-06
-0.000158858
5.32606e-06
-0.000163182
4.32393e-06
-0.000166678
3.49565e-06
-0.000169345
2.66692e-06
-0.000171278
1.93256e-06
-0.000172549
1.27182e-06
-0.000173218
6.68361e-07
-0.000173333
1.15367e-07
-0.000172884
-4.48897e-07
-0.000171946
-9.38214e-07
-0.000170528
-1.41815e-06
-0.000168472
-2.05554e-06
-0.000165896
-2.576e-06
-0.000162802
-3.09497e-06
-0.000159053
-3.74902e-06
-0.000154754
-4.29852e-06
-0.000149656
-5.09792e-06
-0.000143856
-5.80024e-06
-0.000137385
-6.47065e-06
-0.000129945
-7.4406e-06
-0.000121432
-8.51315e-06
-0.000112116
-9.31567e-06
-0.000101555
-1.05607e-05
-9.01015e-05
-1.1454e-05
-7.75383e-05
-1.25633e-05
-6.38512e-05
-1.36872e-05
-4.92039e-05
-1.46474e-05
-3.35957e-05
-1.56082e-05
-1.7062e-05
-1.65338e-05
1.38155e-07
-1.72002e-05
1.80298e-05
-1.78917e-05
3.63243e-05
-1.82945e-05
5.48719e-05
-1.85477e-05
7.34532e-05
-1.85814e-05
9.17838e-05
-1.83307e-05
0.000109607
-1.7823e-05
0.000126694
-1.70868e-05
0.000142743
-1.60496e-05
0.00015745
-1.47069e-05
0.000170697
-1.32469e-05
0.000182153
-1.14564e-05
0.000191735
-9.58216e-06
0.000199286
-7.55056e-06
0.000204575
-5.28971e-06
0.000207656
-3.08067e-06
0.000208503
-8.4768e-07
0.000207066
1.43759e-06
0.000203283
3.78253e-06
0.000197522
5.76126e-06
0.000189792
7.73019e-06
0.000180101
9.69118e-06
0.000168791
1.13094e-05
0.000155965
1.28256e-05
0.000141853
1.41125e-05
0.000126642
1.5211e-05
0.000110549
1.60925e-05
9.37645e-05
1.67848e-05
7.65393e-05
1.72252e-05
5.89962e-05
1.75431e-05
4.13724e-05
1.76238e-05
2.38142e-05
1.75581e-05
6.47805e-06
1.73362e-05
-1.04225e-05
1.69006e-05
-2.69138e-05
1.64912e-05
-4.279e-05
1.58763e-05
-5.78504e-05
1.50604e-05
-7.22215e-05
1.43711e-05
-8.58151e-05
1.35936e-05
-9.83796e-05
1.25645e-05
-0.000110123
1.17439e-05
-0.00012098
1.0857e-05
-0.000130865
9.88466e-06
-0.000139766
8.90075e-06
-0.000147843
8.07693e-06
-0.000154896
7.05276e-06
-0.000161037
6.14171e-06
-0.000166277
5.23951e-06
-0.000170721
4.44471e-06
-0.00017427
3.54826e-06
-0.00017696
2.69017e-06
-0.00017885
1.89009e-06
-0.000179942
1.09246e-06
-0.000180114
1.72085e-07
-0.00017946
-6.54893e-07
-0.000177845
-1.61444e-06
-0.000175455
-2.39022e-06
-0.000172272
-3.18242e-06
-0.000168179
-4.09387e-06
-0.000163335
-4.84381e-06
-0.00015776
-5.57465e-06
-0.000151227
-6.53329e-06
-0.000143968
-7.25935e-06
-0.000135972
-7.99601e-06
-0.000127089
-8.88268e-06
-0.000117549
-9.54018e-06
-0.000107166
-1.03829e-05
-9.6039e-05
-1.11269e-05
-8.43057e-05
-1.17333e-05
-7.17518e-05
-1.25539e-05
-5.84287e-05
-1.33232e-05
-4.45749e-05
-1.38538e-05
-2.99386e-05
-1.46363e-05
-1.47379e-05
-1.52008e-05
1.1186e-06
-1.58565e-05
1.75536e-05
-1.6435e-05
3.42555e-05
-1.6702e-05
5.12689e-05
-1.70134e-05
6.84909e-05
-1.72221e-05
8.56293e-05
-1.71384e-05
0.000102654
-1.70248e-05
0.000119316
-1.66621e-05
0.000135431
-1.61148e-05
0.000150793
-1.53625e-05
0.000165094
-1.43007e-05
0.000178155
-1.30609e-05
0.000189748
-1.15931e-05
0.000199609
-9.86152e-06
0.000207602
-7.99259e-06
0.000213522
-5.92016e-06
0.000217242
-3.72017e-06
0.000218663
-1.42098e-06
0.00021764
1.0227e-06
0.00021412
3.52016e-06
0.00020817
5.95056e-06
0.00019977
8.40002e-06
0.000189268
1.05013e-05
0.000176784
1.24843e-05
0.000162427
1.43568e-05
0.000146595
1.58318e-05
0.000129495
1.71003e-05
0.000111476
1.80186e-05
9.27793e-05
1.86972e-05
7.36686e-05
1.91106e-05
5.44704e-05
1.91983e-05
3.54083e-05
1.90621e-05
1.67123e-05
1.86959e-05
-1.47507e-06
1.81874e-05
-1.89046e-05
1.74296e-05
-3.54418e-05
1.65372e-05
-5.10348e-05
1.55929e-05
-6.55757e-05
1.45409e-05
-7.90038e-05
1.34282e-05
-9.13346e-05
1.23308e-05
-0.000102538
1.12034e-05
-0.000112609
1.00712e-05
-0.000121588
8.97874e-06
-0.000129493
7.90509e-06
-0.000136376
6.88316e-06
-0.000142274
5.89814e-06
-0.000147232
4.95764e-06
-0.000151303
4.07095e-06
3.16006e-06
-0.000139196
-1.52895e-05
-0.000130452
-1.7492e-05
-0.000120788
-1.93297e-05
-0.000110173
-2.12321e-05
-9.83457e-05
-2.36561e-05
-8.55546e-05
-2.55821e-05
-7.15054e-05
-2.80957e-05
-5.65937e-05
-2.98185e-05
-4.09504e-05
-3.12819e-05
-2.43812e-05
-3.31317e-05
-6.97885e-06
-3.47906e-05
1.10334e-05
-3.60338e-05
2.96053e-05
-3.71296e-05
4.8486e-05
-3.7752e-05
6.76783e-05
-3.83742e-05
8.6919e-05
-3.84496e-05
0.000105811
-3.77595e-05
0.000124183
-3.67425e-05
0.00014183
-3.5295e-05
0.000158381
-3.30979e-05
0.000173637
-3.05025e-05
0.000187373
-2.74603e-05
0.000199285
-2.38143e-05
0.000209181
-1.97794e-05
0.000216877
-1.53857e-05
0.000222248
-1.07359e-05
0.000225182
-5.86258e-06
0.000225593
-8.19976e-07
0.000223483
4.20901e-06
0.000218803
9.35623e-06
0.000211623
1.43594e-05
0.000202276
1.86859e-05
0.000190805
2.29309e-05
0.000177553
2.64925e-05
0.000162671
2.97519e-05
0.000146344
3.26424e-05
0.000128915
3.4846e-05
0.000110625
3.65695e-05
9.17418e-05
3.77553e-05
7.25445e-05
3.83823e-05
5.31921e-05
3.86938e-05
3.39935e-05
3.83904e-05
1.49719e-05
3.80288e-05
-3.46676e-06
3.68731e-05
-2.12958e-05
3.56508e-05
-3.8417e-05
3.42346e-05
-5.4682e-05
3.25216e-05
-7.0058e-05
3.07471e-05
-8.44835e-05
2.88434e-05
-9.79261e-05
2.6877e-05
-0.000110355
2.48548e-05
-0.000121782
2.2853e-05
-0.000132228
2.08911e-05
-0.000141741
1.90227e-05
-0.000150282
1.7074e-05
-0.000157923
1.52839e-05
-0.000164709
1.35765e-05
-0.000170605
1.17943e-05
-0.000175645
1.00744e-05
-0.000179848
8.40906e-06
-0.000183205
6.71823e-06
-0.000185816
5.22039e-06
-0.000187601
3.56942e-06
-0.000188561
1.91585e-06
-0.000188756
3.9616e-07
-0.00018807
-1.37361e-06
-0.000186472
-3.1945e-06
-0.000184125
-4.6988e-06
-0.000180865
-6.51938e-06
-0.000176768
-8.19081e-06
-0.000171871
-9.79187e-06
-0.00016604
-1.16683e-05
-0.000159433
-1.32104e-05
-0.000152006
-1.4853e-05
-0.00014368
-1.66451e-05
-0.00013458
-1.82002e-05
-0.000124608
-1.99459e-05
-0.000113884
-2.14447e-05
-0.000102263
-2.32524e-05
-8.98542e-05
-2.48223e-05
-7.67401e-05
-2.62106e-05
-6.29713e-05
-2.75356e-05
-4.84493e-05
-2.9049e-05
-3.32906e-05
-3.03175e-05
-1.75412e-05
-3.1492e-05
-1.14476e-06
-3.2793e-05
1.57248e-05
-3.37221e-05
3.29636e-05
-3.4462e-05
5.05554e-05
-3.51769e-05
6.83059e-05
-3.54904e-05
8.60277e-05
-3.54348e-05
0.000103491
-3.49296e-05
0.000120456
-3.39179e-05
0.000136771
-3.26155e-05
0.000152146
-3.07339e-05
0.000166392
-2.84746e-05
0.000179173
-2.55509e-05
0.000190304
-2.22571e-05
0.000199602
-1.85828e-05
0.000206794
-1.43607e-05
0.000211726
-9.86192e-06
0.000214439
-5.4129e-06
0.000214728
-5.74086e-07
0.000212572
4.30068e-06
0.000208016
9.1153e-06
0.000201021
1.3986e-05
0.000191745
1.85484e-05
0.000180324
2.28314e-05
0.000166954
2.67228e-05
0.000151841
3.02163e-05
0.000135293
3.30872e-05
0.000117594
3.53927e-05
9.90091e-05
3.7162e-05
7.98416e-05
3.83201e-05
6.03752e-05
3.89101e-05
4.08404e-05
3.90509e-05
2.15137e-05
3.86441e-05
2.63062e-06
3.77672e-05
-1.57281e-05
3.6707e-05
-3.33231e-05
3.51756e-05
-5.00514e-05
3.34438e-05
-6.58275e-05
3.1549e-05
-8.06004e-05
2.95473e-05
-9.43274e-05
2.74591e-05
-0.000106993
2.5324e-05
-0.00011862
2.32418e-05
-0.000129219
2.11983e-05
-0.000138793
1.91482e-05
-0.000147385
1.71857e-05
-0.000155042
1.53177e-05
-0.000161756
1.34214e-05
-0.000167557
1.15991e-05
-0.000172547
9.97442e-06
-0.000176667
8.24151e-06
-0.000179957
6.58279e-06
-0.000182396
4.87527e-06
-0.000184025
3.26222e-06
-0.000184901
1.74199e-06
-0.000185015
2.31704e-07
-0.000184412
-1.19835e-06
-0.000183053
-2.72695e-06
-0.000181027
-4.05049e-06
-0.000178269
-5.51782e-06
-0.00017481
-6.92165e-06
-0.000170764
-8.09425e-06
-0.000166022
-9.49001e-06
-0.000160555
-1.09404e-05
-0.000154269
-1.25734e-05
-0.000147247
-1.40407e-05
-0.000139433
-1.56266e-05
-0.000130922
-1.7048e-05
-0.000121592
-1.86362e-05
-0.000111336
-2.05113e-05
-0.0001003
-2.20755e-05
-8.83654e-05
-2.38762e-05
-7.5454e-05
-2.58194e-05
-6.16905e-05
-2.75248e-05
-4.69124e-05
-2.95482e-05
-3.14518e-05
-3.09213e-05
-1.52235e-05
-3.24531e-05
1.75464e-06
-3.39498e-05
1.92487e-05
-3.49787e-05
3.71778e-05
-3.58413e-05
5.5346e-05
-3.63272e-05
7.35823e-05
-3.64597e-05
9.1667e-05
-3.61527e-05
0.000109355
-3.53584e-05
0.000126402
-3.40757e-05
0.000142593
-3.23595e-05
0.000157625
-3.00617e-05
0.00017124
-2.72266e-05
0.000183316
-2.4141e-05
0.000193547
-2.04413e-05
0.000201663
-1.62179e-05
0.000207639
-1.19453e-05
0.000211343
-7.41596e-06
0.000212804
-2.90728e-06
0.000211834
1.94299e-06
0.000208389
6.88834e-06
0.00020264
1.14991e-05
0.00019463
1.60157e-05
0.000184474
2.03049e-05
0.000172343
2.42549e-05
0.000158468
2.77398e-05
0.000143076
3.07744e-05
0.000126395
3.33543e-05
0.000108644
3.5479e-05
9.01402e-05
3.69925e-05
7.1112e-05
3.80475e-05
5.18495e-05
3.85158e-05
3.25788e-05
3.85357e-05
1.35283e-05
3.80892e-05
-5.11863e-06
3.7276e-05
-2.31035e-05
3.59591e-05
-4.03324e-05
3.44513e-05
-5.66927e-05
3.27167e-05
-7.19916e-05
3.0584e-05
-8.62235e-05
2.84479e-05
-9.9333e-05
2.62202e-05
-0.000111221
2.37896e-05
-0.000121964
2.14902e-05
-0.000131549
1.91562e-05
-0.000139996
1.68867e-05
-0.000147314
1.46305e-05
-0.000153588
1.2556e-05
-0.000158908
1.06465e-05
-0.000163231
8.64732e-06
-0.000166728
6.99205e-06
-0.000169397
5.33619e-06
-0.000171329
3.8644e-06
-0.000172593
2.53558e-06
-0.000173267
1.3422e-06
-0.000173381
2.29365e-07
-0.000172928
-9.01665e-07
-0.000171998
-1.86812e-06
-0.00017058
-2.83576e-06
-0.000168531
-4.10536e-06
-0.000165952
-5.15478e-06
-0.000162862
-6.18475e-06
-0.000159112
-7.49935e-06
-0.000154829
-8.58109e-06
-0.000149735
-1.01927e-05
-0.000143924
-1.16108e-05
-0.000137466
-1.29292e-05
-0.000130033
-1.48727e-05
-0.000121549
-1.69974e-05
-0.000112201
-1.86639e-05
-0.000101643
-2.11185e-05
-9.01945e-05
-2.29029e-05
-7.76327e-05
-2.51251e-05
-6.39413e-05
-2.73787e-05
-4.92909e-05
-2.92979e-05
-3.36791e-05
-3.12201e-05
-1.71501e-05
-3.30628e-05
7.16032e-08
-3.44221e-05
1.79805e-05
-3.58007e-05
3.629e-05
-3.66041e-05
5.4851e-05
-3.71088e-05
7.34391e-05
-3.71697e-05
9.17846e-05
-3.66763e-05
0.00010962
-3.56586e-05
0.000126732
-3.41992e-05
0.000142808
-3.21252e-05
0.000157522
-2.94213e-05
0.000170774
-2.64989e-05
0.000182245
-2.29279e-05
0.000191854
-1.91906e-05
0.000199403
-1.50998e-05
0.00020469
-1.05772e-05
0.000207779
-6.16925e-06
0.000208628
-1.69754e-06
0.000207183
2.88293e-06
0.000203395
7.57014e-06
0.000197631
1.15257e-05
0.000189906
1.54545e-05
0.000180208
1.93895e-05
0.000168889
2.26283e-05
0.000156053
2.56615e-05
0.000141932
2.82341e-05
0.000126709
3.04335e-05
0.000110605
3.21967e-05
9.3812e-05
3.35776e-05
7.65809e-05
3.44563e-05
5.90251e-05
3.50989e-05
4.13846e-05
3.52643e-05
2.3816e-05
3.51268e-05
6.47358e-06
3.46786e-05
-1.04328e-05
3.38069e-05
-2.69348e-05
3.29933e-05
-4.28224e-05
3.17639e-05
-5.78856e-05
3.01236e-05
-7.22539e-05
2.87394e-05
-8.58639e-05
2.72037e-05
-9.84394e-05
2.514e-05
-0.000110182
2.34866e-05
-0.000121038
2.17126e-05
-0.000130931
1.97782e-05
-0.000139839
1.78089e-05
-0.000147916
1.61532e-05
-0.000154974
1.41113e-05
-0.000161124
1.22921e-05
-0.00016636
1.04746e-05
-0.000170799
8.8843e-06
-0.00017435
7.09885e-06
-0.000177038
5.37839e-06
-0.00017893
3.78264e-06
-0.000180021
2.18327e-06
-0.00018019
3.40548e-07
-0.000179534
-1.31014e-06
-0.000177921
-3.22772e-06
-0.000175531
-4.78048e-06
-0.000172349
-6.36475e-06
-0.000168252
-8.1903e-06
-0.000163406
-9.69029e-06
-0.000157832
-1.1148e-05
-0.000151302
-1.30636e-05
-0.000144045
-1.45167e-05
-0.000136047
-1.59937e-05
-0.000127168
-1.77622e-05
-0.000117631
-1.90774e-05
-0.000107238
-2.07759e-05
-9.6097e-05
-2.22675e-05
-8.4363e-05
-2.34673e-05
-7.18238e-05
-2.50932e-05
-5.84887e-05
-2.66583e-05
-4.46327e-05
-2.77098e-05
-2.99929e-05
-2.92762e-05
-1.47876e-05
-3.04062e-05
1.0727e-06
-3.17168e-05
1.75159e-05
-3.28783e-05
3.42234e-05
-3.34095e-05
5.12388e-05
-3.40289e-05
6.8472e-05
-3.44554e-05
8.56231e-05
-3.42896e-05
0.000102664
-3.40653e-05
0.000119343
-3.33418e-05
0.000135478
-3.22495e-05
0.00015086
-3.07444e-05
0.000165176
-2.86171e-05
0.000178249
-2.61335e-05
0.000189846
-2.31909e-05
0.000199712
-1.9727e-05
0.000207711
-1.59921e-05
0.000213638
-1.18476e-05
0.000217367
-7.44832e-06
0.000218794
-2.8483e-06
0.000217763
2.05306e-06
0.000214239
7.04416e-06
0.000208287
1.19027e-05
0.000199881
1.68059e-05
0.000189372
2.10106e-05
0.000176878
2.49784e-05
0.000162509
2.87254e-05
0.000146664
3.16766e-05
0.00012955
3.42142e-05
0.000111518
3.60507e-05
9.28073e-05
3.74079e-05
7.36834e-05
3.82344e-05
5.44727e-05
3.84089e-05
3.5399e-05
3.81358e-05
1.66955e-05
3.73994e-05
-1.50139e-06
3.63843e-05
-1.8937e-05
3.48651e-05
-3.54811e-05
3.30813e-05
-5.10789e-05
3.11907e-05
-6.56224e-05
2.90843e-05
-7.90526e-05
2.68583e-05
-9.13855e-05
2.46637e-05
-0.000102588
2.24055e-05
-0.000112657
2.0141e-05
-0.000121634
1.79555e-05
-0.000129537
1.58078e-05
-0.000136418
1.37642e-05
-0.000142314
1.17943e-05
-0.000147269
9.91236e-06
-0.000151339
8.14117e-06
6.31577e-06
-0.000139269
-2.29298e-05
-0.000130526
-2.62344e-05
-0.000120865
-2.89914e-05
-0.000110251
-3.18456e-05
-9.84245e-05
-3.54829e-05
-8.56332e-05
-3.83735e-05
-7.15819e-05
-4.21471e-05
-5.66635e-05
-4.4737e-05
-4.10134e-05
-4.69321e-05
-2.44365e-05
-4.97087e-05
-7.0224e-06
-5.22047e-05
1.10095e-05
-5.40658e-05
2.96004e-05
-5.57206e-05
4.84966e-05
-5.66482e-05
6.77022e-05
-5.758e-05
8.69595e-05
-5.7707e-05
0.000105873
-5.66729e-05
0.000124277
-5.51466e-05
0.000141956
-5.29745e-05
0.000158534
-4.96757e-05
0.000173814
-4.57825e-05
0.00018757
-4.12167e-05
0.000199497
-3.57409e-05
0.000209407
-2.96896e-05
0.00021711
-2.30888e-05
0.000222485
-1.61112e-05
0.000225419
-8.79619e-06
0.00022581
-1.21157e-06
0.000223669
6.34963e-06
0.000218988
1.4038e-05
0.000211808
2.1539e-05
0.000202446
2.80478e-05
0.000190957
3.442e-05
0.000177685
3.97639e-05
0.000162784
4.46538e-05
0.000146435
4.89904e-05
0.000128986
5.22951e-05
0.000110677
5.48788e-05
9.17796e-05
5.66527e-05
7.2554e-05
5.76078e-05
5.3183e-05
5.80648e-05
3.39605e-05
5.76128e-05
1.49282e-05
5.70612e-05
-3.51975e-06
5.5321e-05
-2.13583e-05
5.34893e-05
-3.84906e-05
5.13669e-05
-5.4765e-05
4.8796e-05
-7.01446e-05
4.61267e-05
-8.45727e-05
4.32716e-05
-9.80123e-05
4.03166e-05
-0.000110445
3.72875e-05
-0.000121872
3.42804e-05
-0.00013231
3.13287e-05
-0.000141822
2.85347e-05
-0.000150358
2.56104e-05
-0.000157993
2.29189e-05
-0.000164777
2.03601e-05
-0.000170668
1.76856e-05
-0.000175715
1.51214e-05
-0.000179911
1.26045e-05
-0.000183258
1.00654e-05
-0.000185864
7.82623e-06
-0.00018765
5.35602e-06
-0.000188606
2.87155e-06
-0.000188811
6.01406e-07
-0.000188132
-2.05346e-06
-0.000186537
-4.78934e-06
-0.00018419
-7.04577e-06
-0.000180932
-9.77705e-06
-0.000176835
-1.22877e-05
-0.000171938
-1.46897e-05
-0.000166107
-1.74991e-05
-0.000159498
-1.9819e-05
-0.000152075
-2.22763e-05
-0.000143747
-2.49729e-05
-0.000134646
-2.73018e-05
-0.000124674
-2.99175e-05
-0.000113946
-3.21732e-05
-0.000102331
-3.48674e-05
-8.99198e-05
-3.72335e-05
-7.68046e-05
-3.93259e-05
-6.30329e-05
-4.13074e-05
-4.85039e-05
-4.35781e-05
-3.33499e-05
-4.54716e-05
-1.75904e-05
-4.72516e-05
-1.18167e-06
-4.92018e-05
1.56901e-05
-5.0594e-05
3.29498e-05
-5.17218e-05
5.05653e-05
-5.27925e-05
6.83273e-05
-5.32525e-05
8.6066e-05
-5.31736e-05
0.000103549
-5.24132e-05
0.000120535
-5.09037e-05
0.000136861
-4.89413e-05
0.000152246
-4.61195e-05
0.000166518
-4.27467e-05
0.000179309
-3.83418e-05
0.000190454
-3.34017e-05
0.000199771
-2.79004e-05
0.000206964
-2.15537e-05
0.000211895
-1.47928e-05
0.000214625
-8.14335e-06
0.000214913
-8.61702e-07
0.000212743
6.47032e-06
0.000208202
1.36565e-05
0.0002012
2.09872e-05
0.000191906
2.78425e-05
0.00018046
3.42778e-05
0.000167063
4.01198e-05
0.000151947
4.5332e-05
0.000135368
4.96656e-05
0.000117648
5.31127e-05
9.90384e-05
5.57719e-05
7.98524e-05
5.75061e-05
6.03764e-05
5.83861e-05
4.08084e-05
5.86189e-05
2.1461e-05
5.79915e-05
2.5652e-06
5.66631e-05
-1.58028e-05
5.50749e-05
-3.34007e-05
5.27735e-05
-5.0137e-05
5.018e-05
-6.5922e-05
4.73341e-05
-8.06998e-05
4.43251e-05
-9.4418e-05
4.11773e-05
-0.000107079
3.7985e-05
-0.000118707
3.48699e-05
-0.000129311
3.18023e-05
-0.000138888
2.87249e-05
-0.000147467
2.57652e-05
-0.000155115
2.29657e-05
-0.000161839
2.01451e-05
-0.000167653
1.7413e-05
-0.000172623
1.49441e-05
-0.000176746
1.23645e-05
-0.000180034
9.87095e-06
-0.000182472
7.31327e-06
-0.000184097
4.88711e-06
-0.000184967
2.61214e-06
-0.00018508
3.45056e-07
-0.000184478
-1.80022e-06
-0.000183119
-4.08672e-06
-0.000181093
-6.07592e-06
-0.000178328
-8.28344e-06
-0.000174868
-1.03813e-05
-0.000170827
-1.21358e-05
-0.00016609
-1.42262e-05
-0.00016062
-1.6411e-05
-0.000154335
-1.88581e-05
-0.000147326
-2.105e-05
-0.000139504
-2.34487e-05
-0.000131024
-2.55276e-05
-0.000121668
-2.79925e-05
-0.000111409
-3.07708e-05
-0.00010038
-3.31041e-05
-8.84438e-05
-3.58127e-05
-7.55289e-05
-3.87344e-05
-6.17744e-05
-4.12793e-05
-4.70105e-05
-4.43123e-05
-3.15228e-05
-4.64091e-05
-1.52877e-05
-4.86883e-05
1.71108e-06
-5.09487e-05
1.92149e-05
-5.24827e-05
3.71681e-05
-5.37946e-05
5.53565e-05
-5.45156e-05
7.36135e-05
-5.47169e-05
9.17091e-05
-5.42483e-05
0.000109407
-5.30568e-05
0.000126464
-5.11319e-05
0.000142687
-4.85831e-05
0.000157748
-4.5123e-05
0.000171375
-4.08536e-05
0.000183473
-3.62393e-05
0.000193725
-3.06931e-05
0.000201842
-2.43346e-05
0.00020783
-1.79339e-05
0.000211522
-1.11078e-05
0.000212998
-4.38365e-06
0.000212004
2.93661e-06
0.000208558
1.03343e-05
0.000202811
1.72469e-05
0.000194785
2.40409e-05
0.000184612
3.04778e-05
0.000172464
3.6403e-05
0.000158576
4.16277e-05
0.000143173
4.61777e-05
0.000126454
5.00736e-05
0.000108691
5.32412e-05
9.01654e-05
5.55185e-05
7.11158e-05
5.7097e-05
5.18229e-05
5.78087e-05
3.25351e-05
5.78235e-05
1.34758e-05
5.71485e-05
-5.17553e-06
5.59274e-05
-2.31732e-05
5.39567e-05
-4.0435e-05
5.17132e-05
-5.6782e-05
4.90636e-05
-7.20872e-05
4.58893e-05
-8.63145e-05
4.26751e-05
-9.94391e-05
3.93448e-05
-0.000111332
3.56828e-05
-0.000122066
3.22243e-05
-0.000131646
2.87355e-05
-0.000140094
2.53349e-05
-0.000147408
2.19451e-05
-0.000153673
1.88207e-05
-0.000158992
1.59652e-05
-0.000163305
1.29604e-05
-0.000166792
1.04794e-05
-0.000169458
8.00199e-06
-0.000171394
5.79999e-06
-0.000172655
3.79663e-06
-0.000173313
2.0005e-06
-0.000173429
3.44807e-07
-0.000172974
-1.35612e-06
-0.000172051
-2.79096e-06
-0.000170643
-4.24395e-06
-0.000168592
-6.15636e-06
-0.000165999
-7.74766e-06
-0.000162919
-9.26493e-06
-0.000159165
-1.12539e-05
-0.000154902
-1.28442e-05
-0.000149799
-1.52951e-05
-0.000143979
-1.74311e-05
-0.000137547
-1.93613e-05
-0.000130122
-2.22981e-05
-0.000121664
-2.54558e-05
-0.000112291
-2.8037e-05
-0.000101725
-3.1684e-05
-9.02928e-05
-3.43354e-05
-7.77315e-05
-3.76865e-05
-6.40251e-05
-4.10852e-05
-4.93747e-05
-4.39484e-05
-3.37619e-05
-4.6833e-05
-1.72334e-05
-4.95915e-05
1.80674e-08
-5.16736e-05
1.79607e-05
-5.37434e-05
3.62872e-05
-5.49308e-05
5.48677e-05
-5.56893e-05
7.34769e-05
-5.5779e-05
9.18367e-05
-5.50362e-05
0.00010969
-5.35119e-05
0.000126822
-5.13311e-05
0.000142917
-4.82203e-05
0.000157649
-4.41535e-05
0.000170927
-3.97773e-05
0.0001824
-3.4401e-05
0.000192025
-2.88151e-05
0.000199593
-2.26683e-05
0.000204872
-1.5856e-05
0.000207957
-9.25451e-06
0.000208803
-2.54357e-06
0.000207337
4.34831e-06
0.000203547
1.13605e-05
0.000197771
1.73015e-05
0.000190046
2.31794e-05
0.000180327
2.91083e-05
0.000168996
3.39595e-05
0.000156142
3.85158e-05
0.000142002
4.2374e-05
0.000126761
4.5674e-05
0.000110646
4.83113e-05
9.38373e-05
5.03867e-05
7.65894e-05
5.17042e-05
5.90243e-05
5.26641e-05
4.13752e-05
5.29133e-05
2.37929e-05
5.27091e-05
6.43055e-06
5.20409e-05
-1.04872e-05
5.07247e-05
-2.69976e-05
4.95037e-05
-4.28941e-05
4.76604e-05
-5.79615e-05
4.5191e-05
-7.23175e-05
4.30954e-05
-8.59455e-05
4.08316e-05
-9.85385e-05
3.77331e-05
-0.000110273
3.5221e-05
-0.00012113
3.25695e-05
-0.000131032
2.96809e-05
-0.000139933
2.67093e-05
-0.000148007
2.42272e-05
-0.000155081
2.11855e-05
-0.000161224
1.84356e-05
-0.000166451
1.57016e-05
-0.000170895
1.33279e-05
-0.000174454
1.06573e-05
-0.000177145
8.06952e-06
-0.000179041
5.67906e-06
-0.000180119
3.26111e-06
-0.00018027
4.91956e-07
-0.000179604
-1.9764e-06
-0.000177987
-4.84442e-06
-0.000175595
-7.17327e-06
-0.000172413
-9.54647e-06
-0.000168317
-1.22864e-05
-0.000163466
-1.45407e-05
-0.000157895
-1.67188e-05
-0.000151366
-1.95931e-05
-0.000144111
-2.17717e-05
-0.000136115
-2.39899e-05
-0.00012724
-2.66373e-05
-0.000117703
-2.86138e-05
-0.000107312
-3.11669e-05
-9.61488e-05
-3.34312e-05
-8.44157e-05
-3.52005e-05
-7.19011e-05
-3.76079e-05
-5.85594e-05
-4e-05
-4.47002e-05
-4.15691e-05
-3.00537e-05
-4.39228e-05
-1.48433e-05
-4.56167e-05
1.01889e-06
-4.75791e-05
1.74671e-05
-4.93266e-05
3.41793e-05
-5.01217e-05
5.12087e-05
-5.10584e-05
6.8463e-05
-5.17098e-05
8.5629e-05
-5.14557e-05
0.000102688
-5.11247e-05
0.000119386
-5.00394e-05
0.000135541
-4.84044e-05
0.000150946
-4.61494e-05
0.000165283
-4.29543e-05
0.000178385
-3.9236e-05
0.000190019
-3.48246e-05
0.000199914
-2.96226e-05
0.000207942
-2.40197e-05
0.000213889
-1.77949e-05
0.000217636
-1.11947e-05
0.000219059
-4.27141e-06
0.000217975
3.13695e-06
0.000214424
1.05947e-05
0.000208466
1.78606e-05
0.00020005
2.52221e-05
0.000189527
3.15338e-05
0.000177016
3.74889e-05
0.000162628
4.31132e-05
0.000146762
4.75425e-05
0.000129626
5.13501e-05
0.000111572
5.41054e-05
9.28387e-05
5.61409e-05
7.36932e-05
5.73799e-05
5.4462e-05
5.76401e-05
3.53692e-05
5.72286e-05
1.66337e-05
5.61349e-05
-1.56354e-06
5.45815e-05
-1.90077e-05
5.23093e-05
-3.55592e-05
4.96328e-05
-5.1164e-05
4.67955e-05
-6.57137e-05
4.3634e-05
-7.91469e-05
4.02915e-05
-9.14804e-05
3.69971e-05
-0.00010268
3.36056e-05
-0.000112748
3.02087e-05
-0.000121722
2.69296e-05
-0.000129622
2.37071e-05
-0.000136499
2.06414e-05
-0.000142391
1.76868e-05
-0.000147342
1.4863e-05
-0.000151413
1.2212e-05
9.46141e-06
-0.000139378
-3.0567e-05
-0.000130638
-3.49739e-05
-0.000120979
-3.86504e-05
-0.000110368
-4.2457e-05
-9.85428e-05
-4.73082e-05
-8.5751e-05
-5.11653e-05
-7.16973e-05
-5.62009e-05
-5.67683e-05
-5.9666e-05
-4.11082e-05
-6.25923e-05
-2.45204e-05
-6.62966e-05
-7.09224e-06
-6.9633e-05
1.09802e-05
-7.21383e-05
2.96041e-05
-7.43446e-05
4.85325e-05
-7.55767e-05
6.77682e-05
-7.68158e-05
8.7053e-05
-7.69919e-05
0.000105997
-7.56168e-05
0.00012443
-7.35798e-05
0.000142135
-7.06798e-05
0.000158739
-6.62795e-05
0.000174047
-6.1091e-05
0.000187831
-5.50003e-05
0.000199782
-4.76921e-05
0.000209722
-3.96292e-05
0.000217444
-3.08115e-05
0.000222837
-2.15036e-05
0.000225777
-1.17363e-05
0.000226143
-1.57757e-06
0.000223955
8.53682e-06
0.000219266
1.87271e-05
0.000212089
2.87165e-05
0.000202703
3.74328e-05
0.000191186
4.59376e-05
0.000177884
5.30654e-05
0.000162952
5.95862e-05
0.000146572
6.53697e-05
0.000129093
6.97746e-05
0.000110756
7.32161e-05
9.18384e-05
7.55698e-05
7.25678e-05
7.68784e-05
5.31689e-05
7.74637e-05
3.39007e-05
7.6881e-05
1.4863e-05
7.60989e-05
-3.59944e-06
7.37834e-05
-2.14549e-05
7.13447e-05
-3.86019e-05
6.8514e-05
-5.48914e-05
6.50854e-05
-7.0274e-05
6.15093e-05
-8.47081e-05
5.77056e-05
-9.81475e-05
5.37561e-05
-0.000110584
4.97235e-05
-0.000122015
4.57121e-05
-0.000132445
4.17586e-05
-0.000141954
3.80431e-05
-0.000150483
3.41399e-05
-0.000158108
3.05433e-05
-0.000164885
2.71378e-05
-0.000170765
2.35655e-05
-0.0001758
2.01558e-05
-0.000180002
1.68065e-05
-0.000183333
1.33971e-05
-0.000185935
1.04278e-05
-0.000187721
7.14219e-06
-0.000188674
3.82384e-06
-0.000188902
8.29491e-07
-0.000188225
-2.73017e-06
-0.000186635
-6.37927e-06
-0.000184294
-9.38674e-06
-0.000181034
-1.30372e-05
-0.000176936
-1.63858e-05
-0.000172041
-1.95848e-05
-0.000166215
-2.33252e-05
-0.0001596
-2.64339e-05
-0.000152177
-2.96989e-05
-0.000143849
-3.33013e-05
-0.000134748
-3.64028e-05
-0.000124767
-3.98988e-05
-0.000114045
-4.28957e-05
-0.000102446
-4.6466e-05
-9.00218e-05
-4.96579e-05
-7.6904e-05
-5.24438e-05
-6.31302e-05
-5.50813e-05
-4.85881e-05
-5.81204e-05
-3.34346e-05
-6.06251e-05
-1.76647e-05
-6.30216e-05
-1.24323e-06
-6.56234e-05
1.56491e-05
-6.74864e-05
3.29463e-05
-6.90191e-05
5.05707e-05
-7.0417e-05
6.83485e-05
-7.10304e-05
8.61237e-05
-7.09488e-05
0.000103624
-6.99134e-05
0.000120643
-6.79232e-05
0.000136998
-6.52962e-05
0.000152388
-6.15101e-05
0.00016671
-5.70679e-05
0.000179532
-5.11647e-05
0.000190679
-4.45481e-05
0.000200041
-3.72626e-05
0.000207246
-2.8759e-05
0.000212163
-1.97095e-05
0.000214909
-1.08895e-05
0.00021519
-1.14302e-06
0.000213026