/*--------------------------------*- C++ -*----------------------------------*\
| =========                 |                                                 |
| \\      /  F ield         | OpenFOAM: The Open Source CFD Toolbox           |
|  \\    /   O peration     | Version:  3.0.1                                 |
|   \\  /    A nd           | Web:      www.OpenFOAM.org                      |
|    \\/     M anipulation  |                                                 |
\*---------------------------------------------------------------------------*/
FoamFile
{
    version     2.0;
    format      ascii;
    class       surfaceScalarField;
    location    "38.2";
    object      alphaPhi;
}
// * * * * * * * * * * * * * * * * * * * * * * * * * * * * * * * * * * * * * //

dimensions      [0 3 -1 0 0 0 0];

internalField   nonuniform List<scalar> 
42423
(
4.10824e-06
1.56037e-05
-1.12191e-05
1.53273e-05
-2.58504e-05
1.46313e-05
-3.96913e-05
1.38409e-05
-5.26213e-05
1.293e-05
-6.46786e-05
1.20574e-05
-7.58087e-05
1.113e-05
-8.60612e-05
1.02525e-05
-9.54428e-05
9.3816e-06
-0.000103964
8.52155e-06
-0.000111682
7.71731e-06
-0.00011862
6.93841e-06
-0.000124803
6.1827e-06
-0.000130291
5.48842e-06
-0.000135092
4.80046e-06
-0.000139239
4.14729e-06
-0.000142785
3.54646e-06
-0.000145713
2.92802e-06
-0.00014804
2.32689e-06
-0.000149798
1.7581e-06
-0.000150956
1.15769e-06
-0.000151557
6.00564e-07
-0.000151555
-1.26473e-09
-0.000150901
-6.54134e-07
-0.000149626
-1.27542e-06
-0.000147657
-1.96894e-06
-0.000145028
-2.6294e-06
-0.000141749
-3.2783e-06
-0.0001377
-4.04948e-06
-0.000132899
-4.80086e-06
-0.00012737
-5.52877e-06
-0.000120944
-6.42599e-06
-0.000113705
-7.23943e-06
-0.000105492
-8.2129e-06
-9.6316e-05
-9.17596e-06
-8.63406e-05
-9.97542e-06
-7.53207e-05
-1.10199e-05
-6.31969e-05
-1.21238e-05
-5.03361e-05
-1.28608e-05
-3.63214e-05
-1.40147e-05
-2.15505e-05
-1.47709e-05
-5.66634e-06
-1.58842e-05
1.09326e-05
-1.65989e-05
2.80665e-05
-1.71339e-05
4.5818e-05
-1.77516e-05
6.40649e-05
-1.82469e-05
8.23874e-05
-1.83226e-05
0.000100803
-1.84159e-05
0.000119136
-1.83325e-05
0.000136967
-1.7831e-05
0.000154256
-1.72891e-05
0.000170636
-1.63806e-05
0.000185989
-1.53524e-05
0.000200112
-1.41236e-05
0.000212642
-1.25302e-05
0.00022344
-1.07981e-05
0.000232406
-8.96538e-06
0.00023931
-6.90469e-06
0.00024414
-4.83002e-06
0.000246741
-2.60086e-06
0.00024718
-4.38837e-07
0.000245447
1.73272e-06
0.000241409
4.03844e-06
0.000235255
6.15345e-06
0.000227172
8.08307e-06
0.000217119
1.00531e-05
0.00020538
1.17393e-05
0.0001921
1.32798e-05
0.000177505
1.45952e-05
0.000161774
1.57312e-05
0.000145108
1.6666e-05
0.000127836
1.72712e-05
0.000110068
1.77689e-05
9.20421e-05
1.80255e-05
7.39701e-05
1.8072e-05
5.59922e-05
1.79779e-05
3.82975e-05
1.76947e-05
2.09915e-05
1.7306e-05
4.21368e-06
1.67778e-05
-1.18325e-05
1.60462e-05
-2.73329e-05
1.55003e-05
-4.20178e-05
1.46849e-05
-5.59197e-05
1.39018e-05
-6.89613e-05
1.30415e-05
-8.11496e-05
1.21883e-05
-9.24559e-05
1.13062e-05
-0.000102865
1.04086e-05
-0.000112349
9.4846e-06
-0.000120937
8.58802e-06
-0.000128628
7.69082e-06
-0.000135431
6.80301e-06
-0.000141323
5.89161e-06
-0.000146346
5.02228e-06
-0.000150516
4.17001e-06
-0.000153817
3.30147e-06
-0.000156254
2.43668e-06
-0.000157838
1.58421e-06
-0.000158749
9.11116e-07
-0.000158831
8.16884e-08
-0.000158208
-6.23496e-07
-0.000156826
-1.38174e-06
-0.000154703
-2.12249e-06
-0.000151837
-2.86659e-06
-0.000148175
-3.66189e-06
-0.000143871
-4.30385e-06
-0.000138702
-5.16893e-06
-0.000132733
-5.96925e-06
-0.000125947
-6.78613e-06
-0.000118336
-7.61114e-06
-0.000109862
-8.47341e-06
-0.000100515
-9.3479e-06
-9.03246e-05
-1.01901e-05
-7.92543e-05
-1.10704e-05
-6.73378e-05
-1.19165e-05
-5.45888e-05
-1.2749e-05
-4.10406e-05
-1.35483e-05
-2.67715e-05
-1.42692e-05
-1.182e-05
-1.49516e-05
3.72749e-06
-1.55475e-05
1.98191e-05
-1.60917e-05
3.63522e-05
-1.65332e-05
5.32275e-05
-1.68753e-05
7.02885e-05
-1.70611e-05
8.74487e-05
-1.71602e-05
0.000104491
-1.70424e-05
0.000121289
-1.67983e-05
0.000137631
-1.63416e-05
0.000153281
-1.56501e-05
0.000168013
-1.47326e-05
0.00018161
-1.35971e-05
0.000193817
-1.22072e-05
0.000204419
-1.06012e-05
0.000213187
-8.76867e-06
0.000219928
-6.74073e-06
0.000224452
-4.52409e-06
0.000226648
-2.1966e-06
0.000226456
1.92236e-07
0.00022382
2.6363e-06
0.000218685
5.13501e-06
0.000211157
7.52776e-06
0.000201361
9.79563e-06
0.000189453
1.19079e-05
0.000175576
1.38771e-05
0.000160056
1.55206e-05
0.000143044
1.70117e-05
0.00012487
1.81734e-05
0.000105774
1.90967e-05
8.60164e-05
1.97574e-05
6.59259e-05
2.00904e-05
4.57341e-05
2.01918e-05
2.57563e-05
1.99778e-05
6.20522e-06
1.9551e-05
-1.27647e-05
1.89699e-05
-3.08938e-05
1.81291e-05
-4.80636e-05
1.71698e-05
-6.41611e-05
1.60975e-05
-7.91232e-05
1.49621e-05
-9.28887e-05
1.37655e-05
-0.000105457
1.25688e-05
-0.000116834
1.13767e-05
-0.000127015
1.01812e-05
-0.000136125
9.10964e-06
-0.000144131
8.00642e-06
-0.00015115
7.01901e-06
-0.0001572
6.04985e-06
-0.00016234
5.13935e-06
-0.000166586
4.24647e-06
-0.000169979
3.39295e-06
-0.000172714
2.73527e-06
-0.000174659
1.945e-06
-0.0001759
1.24047e-06
-0.000176481
5.8094e-07
-0.000176373
-1.08059e-07
-0.000175562
-8.10805e-07
-0.000174134
-1.42754e-06
-0.000172059
-2.07479e-06
-0.00016935
-2.70904e-06
-0.00016615
-3.20026e-06
-0.000162246
-3.90435e-06
-0.000157735
-4.51047e-06
-0.000152571
-5.16483e-06
-0.000146729
-5.84195e-06
-0.000140186
-6.54289e-06
-0.000132963
-7.2231e-06
-0.000124985
-7.97751e-06
-0.000116207
-8.77829e-06
-0.000106679
-9.52803e-06
-9.62124e-05
-1.04666e-05
-8.48129e-05
-1.13996e-05
-7.25621e-05
-1.22508e-05
-5.93149e-05
-1.32472e-05
-4.53314e-05
-1.39836e-05
-3.04624e-05
-1.4869e-05
-1.47917e-05
-1.56708e-05
1.53272e-06
-1.63245e-05
1.84691e-05
-1.69364e-05
3.58516e-05
-1.73826e-05
5.35491e-05
-1.76976e-05
7.1324e-05
-1.7775e-05
8.89796e-05
-1.76557e-05
0.000106282
-1.73029e-05
0.000122965
-1.66823e-05
0.000138725
-1.57605e-05
0.000153357
-1.4632e-05
0.00016656
-1.3203e-05
0.000178117
-1.15575e-05
0.000187675
-9.55723e-06
0.000195106
-7.43191e-06
0.000200153
-5.04685e-06
0.000202691
-2.53793e-06
0.000202692
-5.97172e-10
0.000200024
2.66744e-06
0.000194765
5.2589e-06
0.000187031
7.73403e-06
0.000177019
1.00125e-05
0.000164897
1.21218e-05
0.000150922
1.39754e-05
0.0001354
1.5521e-05
0.000118608
1.67923e-05
0.000100909
1.76993e-05
8.26323e-05
1.82765e-05
6.3997e-05
1.86353e-05
4.5325e-05
1.8672e-05
2.67969e-05
1.8528e-05
8.61386e-06
1.8183e-05
-8.99836e-06
1.76122e-05
-2.59794e-05
1.6981e-05
-4.21869e-05
1.62075e-05
-5.75385e-05
1.53516e-05
-7.19792e-05
1.44407e-05
-8.55047e-05
1.35256e-05
-9.80673e-05
1.25626e-05
-0.000109697
1.16294e-05
-0.000120405
1.07085e-05
-0.000130188
9.78258e-06
-0.000139086
8.89784e-06
-0.000147098
8.01228e-06
-0.000154288
7.19009e-06
-0.0001607
6.4119e-06
-0.000166287
5.58667e-06
-0.000171082
4.79511e-06
-0.000175087
4.00514e-06
-0.000178383
3.29653e-06
-0.000180919
2.53562e-06
-0.000182762
1.84328e-06
-0.000183888
1.12613e-06
-0.000184327
4.38432e-07
-0.000184148
-1.79057e-07
-0.000183278
-8.69751e-07
-0.000181757
-1.52099e-06
-0.000179553
-2.20397e-06
-0.000176622
-2.9309e-06
-0.000173008
-3.61386e-06
-0.000168653
-4.35526e-06
-0.000163542
-5.11062e-06
-0.000157749
-5.7931e-06
-0.000151167
-6.58173e-06
-0.00014379
-7.37781e-06
-0.000135587
-8.20262e-06
-0.000126577
-9.00966e-06
-0.000116718
-9.85892e-06
-0.000106135
-1.05833e-05
-9.46614e-05
-1.14738e-05
-8.2444e-05
-1.22174e-05
-6.93992e-05
-1.30449e-05
-5.5666e-05
-1.37332e-05
-4.10432e-05
-1.46229e-05
-2.59551e-05
-1.50881e-05
-1.01109e-05
-1.58442e-05
6.22372e-06
-1.63347e-05
2.30112e-05
-1.67875e-05
4.01255e-05
-1.71144e-05
5.73505e-05
-1.72251e-05
7.4554e-05
-1.72036e-05
9.14947e-05
-1.69408e-05
0.000107981
-1.64865e-05
0.000123819
-1.58384e-05
0.000138828
-1.50084e-05
0.000152739
-1.39113e-05
0.000165424
-1.2685e-05
0.000176471
-1.10471e-05
0.00018579
-9.31882e-06
0.000192974
-7.18453e-06
0.000197715
-4.74072e-06
0.000199854
-2.13955e-06
0.000199456
3.97982e-07
0.000196425
3.03074e-06
0.000190797
5.62824e-06
0.000182502
8.29501e-06
0.000171776
1.07257e-05
0.000158716
1.30601e-05
0.000143609
1.51077e-05
0.000126874
1.67343e-05
0.000108887
1.79878e-05
8.99719e-05
1.89146e-05
7.05936e-05
1.93782e-05
5.09973e-05
1.95963e-05
3.14924e-05
1.95048e-05
1.23687e-05
1.91237e-05
-6.18368e-06
1.85524e-05
-2.39016e-05
1.77179e-05
-4.07377e-05
1.68362e-05
-5.65992e-05
1.58615e-05
-7.14023e-05
1.48031e-05
-8.517e-05
1.37676e-05
-9.78839e-05
1.27139e-05
-0.000109534
1.16502e-05
-0.000120165
1.06312e-05
-0.000129783
9.61784e-06
-0.000138444
8.66092e-06
-0.000146171
7.72661e-06
-0.000152986
6.81533e-06
-0.000158927
5.94103e-06
-0.000164023
5.0959e-06
-0.000168299
4.27638e-06
-0.000171783
3.48411e-06
-0.000174506
2.72206e-06
-0.000176478
1.97236e-06
-0.00017771
1.23248e-06
-0.000178257
5.46405e-07
-0.000178173
-8.3622e-08
-0.000177479
-6.94233e-07
-0.000176127
-1.35188e-06
-0.0001741
-2.02712e-06
-0.000171274
-2.82617e-06
-0.000167649
-3.62436e-06
-0.000163351
-4.2985e-06
-0.000158135
-5.21627e-06
-0.000152053
-6.08215e-06
-0.000145055
-6.99797e-06
-0.000136966
-8.08884e-06
-0.000127858
-9.10771e-06
-0.000117924
-9.93377e-06
-0.000106803
-1.11214e-05
-9.48355e-05
-1.19675e-05
-8.16788e-05
-1.31567e-05
-6.76121e-05
-1.40667e-05
-5.26845e-05
-1.49277e-05
-3.6653e-05
-1.60315e-05
-1.98682e-05
-1.67848e-05
-2.48007e-06
-1.73882e-05
1.57179e-05
-1.8198e-05
3.43178e-05
-1.86e-05
5.34209e-05
-1.91031e-05
7.26232e-05
-1.92024e-05
9.16223e-05
-1.89992e-05
0.000110423
-1.88012e-05
0.000128664
-1.82408e-05
0.000145995
-1.73306e-05
0.000162296
-1.63017e-05
0.000177191
-1.48942e-05
0.00019045
-1.32593e-05
0.000201764
-1.1314e-05
0.0002109
-9.13672e-06
0.000217667
-6.76651e-06
0.000221919
-4.25198e-06
-1.85187e-06
4.07605e-06
3.12152e-05
-1.12507e-05
3.06541e-05
-2.58841e-05
2.92646e-05
-3.97275e-05
2.76843e-05
-5.26598e-05
2.58623e-05
-6.47189e-05
2.41164e-05
-7.585e-05
2.22611e-05
-8.6103e-05
2.05056e-05
-9.54832e-05
1.87617e-05
-0.000104004
1.70428e-05
-0.000111722
1.54349e-05
-0.000118661
1.38778e-05
-0.000124842
1.23635e-05
-0.000130329
1.09752e-05
-0.00013513
9.60158e-06
-0.000139281
8.2983e-06
-0.000142825
7.09004e-06
-0.000145753
5.85625e-06
-0.000148082
4.65572e-06
-0.000149845
3.52171e-06
-0.000151007
2.31965e-06
-0.000151605
1.19835e-06
-0.000151599
-7.8341e-09
-0.000150942
-1.31087e-06
-0.000149668
-2.54919e-06
-0.0001477
-3.93696e-06
-0.000145072
-5.25779e-06
-0.000141795
-6.55517e-06
-0.000137746
-8.09877e-06
-0.000132945
-9.60109e-06
-0.000127418
-1.10559e-05
-0.000120993
-1.2851e-05
-0.000113754
-1.44784e-05
-0.000105545
-1.64225e-05
-9.63658e-05
-1.83551e-05
-8.63898e-05
-1.99515e-05
-7.53647e-05
-2.2045e-05
-6.32442e-05
-2.42444e-05
-5.03777e-05
-2.57273e-05
-3.63649e-05
-2.80276e-05
-2.15804e-05
-2.95555e-05
-5.70232e-06
-3.17623e-05
1.08981e-05
-3.31994e-05
2.80403e-05
-3.42762e-05
4.57978e-05
-3.55091e-05
6.40532e-05
-3.65023e-05
8.2389e-05
-3.66584e-05
0.000100812
-3.68394e-05
0.00011916
-3.66799e-05
0.000136996
-3.56674e-05
0.000154301
-3.45939e-05
0.0001707
-3.27799e-05
0.000186054
-3.07064e-05
0.000200193
-2.82624e-05
0.00021274
-2.50774e-05
0.00022354
-2.15984e-05
0.000232515
-1.79402e-05
0.000239426
-1.38157e-05
0.000244259
-9.66371e-06
0.000246864
-5.20517e-06
0.000247298
-8.73403e-07
0.000245555
3.47575e-06
0.000241515
8.07831e-06
0.000235359
1.23095e-05
0.000227281
1.61611e-05
0.000217209
2.01249e-05
0.00020545
2.34986e-05
0.000192153
2.65768e-05
0.000177553
2.9195e-05
0.000161818
3.1466e-05
0.000145148
3.33364e-05
0.00012786
3.45593e-05
0.000110074
3.5554e-05
9.20509e-05
3.6049e-05
7.39594e-05
3.61636e-05
5.59686e-05
3.59687e-05
3.82799e-05
3.53834e-05
2.09603e-05
3.46256e-05
4.18028e-06
3.35578e-05
-1.18861e-05
3.21125e-05
-2.738e-05
3.09943e-05
-4.20597e-05
2.93645e-05
-5.59745e-05
2.78166e-05
-6.9021e-05
2.60879e-05
-8.12162e-05
2.43835e-05
-9.25224e-05
2.26123e-05
-0.000102931
2.08172e-05
-0.000112411
1.89646e-05
-0.000121003
1.71802e-05
-0.000128701
1.53882e-05
-0.00013551
1.36116e-05
-0.000141402
1.1784e-05
-0.000146437
1.00573e-05
-0.000150608
8.34038e-06
-0.000153902
6.59626e-06
-0.00015633
4.86392e-06
-0.000157939
3.19299e-06
-0.000158828
1.8002e-06
-0.000158919
1.72691e-07
-0.000158287
-1.25577e-06
-0.000156899
-2.76909e-06
-0.000154782
-4.23992e-06
-0.000151915
-5.73384e-06
-0.000148248
-7.32887e-06
-0.000143934
-8.61747e-06
-0.000138759
-1.0344e-05
-0.000132783
-1.19456e-05
-0.000126
-1.35686e-05
-0.000118397
-1.52142e-05
-0.000109916
-1.6955e-05
-0.00010057
-1.86937e-05
-9.03752e-05
-2.03849e-05
-7.92906e-05
-2.2155e-05
-6.73719e-05
-2.38352e-05
-5.46277e-05
-2.54933e-05
-4.10815e-05
-2.70946e-05
-2.6807e-05
-2.85437e-05
-1.18475e-05
-2.99112e-05
3.70851e-06
-3.11037e-05
1.9804e-05
-3.21874e-05
3.63543e-05
-3.30836e-05
5.32175e-05
-3.37386e-05
7.02822e-05
-3.41259e-05
8.74486e-05
-3.43267e-05
0.0001045
-3.40939e-05
0.000121302
-3.36004e-05
0.00013765
-3.26896e-05
0.000153311
-3.13116e-05
0.000168048
-2.94691e-05
0.000181654
-2.72035e-05
0.000193866
-2.44189e-05
0.00020447
-2.12053e-05
0.000213243
-1.75425e-05
0.000219987
-1.34845e-05
0.000224515
-9.05224e-06
0.000226718
-4.39998e-06
0.00022652
3.90827e-07
0.000223866
5.28946e-06
0.000218728
1.02732e-05
0.000211188
1.50676e-05
0.000201393
1.95907e-05
0.000189467
2.38346e-05
0.000175591
2.77527e-05
0.000160044
3.10676e-05
0.000143027
3.40286e-05
0.00012484
3.63601e-05
0.000105728
3.82086e-05
8.59563e-05
3.95295e-05
6.5854e-05
4.01927e-05
4.56519e-05
4.03939e-05
2.56638e-05
3.9966e-05
6.09192e-06
3.91229e-05
-1.28692e-05
3.7931e-05
-3.10072e-05
3.62671e-05
-4.81876e-05
3.43502e-05
-6.4289e-05
3.2199e-05
-7.92582e-05
2.99313e-05
-9.30247e-05
2.7532e-05
-0.000105591
2.51354e-05
-0.000116952
2.2737e-05
-0.000127129
2.03584e-05
-0.00013624
1.8221e-05
-0.000144236
1.60023e-05
-0.000151266
1.40493e-05
-0.000157304
1.20876e-05
-0.000162439
1.02739e-05
-0.000166681
8.48918e-06
-0.000170091
6.80304e-06
-0.000172809
5.4533e-06
-0.000174752
3.88759e-06
-0.000175997
2.48555e-06
-0.000176562
1.1464e-06
-0.00017645
-2.20143e-07
-0.000175643
-1.61828e-06
-0.000174206
-2.86416e-06
-0.000172142
-4.13938e-06
-0.000169414
-5.43676e-06
-0.000166207
-6.40667e-06
-0.000162312
-7.80027e-06
-0.000157797
-9.0251e-06
-0.00015263
-1.03322e-05
-0.000146785
-1.16868e-05
-0.000140236
-1.30917e-05
-0.00013302
-1.44395e-05
-0.000125041
-1.59564e-05
-0.000116251
-1.75678e-05
-0.000106729
-1.90506e-05
-9.62707e-05
-2.09246e-05
-8.48679e-05
-2.28025e-05
-7.2617e-05
-2.45017e-05
-5.93705e-05
-2.64939e-05
-4.53782e-05
-2.7976e-05
-3.05029e-05
-2.97444e-05
-1.48336e-05
-3.13401e-05
1.49546e-06
-3.26537e-05
1.84373e-05
-3.38783e-05
3.58254e-05
-3.47708e-05
5.35296e-05
-3.54019e-05
7.13152e-05
-3.55608e-05
8.89788e-05
-3.53194e-05
0.000106284
-3.46088e-05
0.000122965
-3.33629e-05
0.000138745
-3.15402e-05
0.000153406
-2.92931e-05
0.000166603
-2.64003e-05
0.000178165
-2.31193e-05
0.000187739
-1.91322e-05
0.000195167
-1.48599e-05
0.000200216
-1.00959e-05
0.000202764
-5.08597e-06
0.000202749
1.47134e-08
0.000200069
5.3478e-06
0.000194808
1.05196e-05
0.000187073
1.54688e-05
0.000177051
2.00346e-05
0.000164915
2.42579e-05
0.000150927
2.79631e-05
0.000135391
3.10569e-05
0.000118594
3.35888e-05
0.00010087
3.54232e-05
8.25752e-05
3.65718e-05
6.39652e-05
3.72453e-05
4.5245e-05
3.73922e-05
2.67144e-05
3.70587e-05
8.52209e-06
3.63753e-05
-9.10226e-06
3.52366e-05
-2.60962e-05
3.39749e-05
-4.23006e-05
3.24119e-05
-5.76532e-05
3.07042e-05
-7.2105e-05
2.88925e-05
-8.56279e-05
2.70484e-05
-9.81883e-05
2.5123e-05
-0.000109817
2.32581e-05
-0.000120518
2.14095e-05
-0.000130297
1.95615e-05
-0.000139195
1.77964e-05
-0.000147203
1.60194e-05
-0.000154396
1.43832e-05
-0.000160803
1.2819e-05
-0.000166389
1.11727e-05
-0.000171186
9.59212e-06
-0.000175185
8.00388e-06
-0.000178476
6.58815e-06
-0.000181011
5.0702e-06
-0.00018285
3.68239e-06
-0.000183973
2.24912e-06
-0.00018441
8.75818e-07
-0.000184224
-3.64985e-07
-0.000183358
-1.73622e-06
-0.00018183
-3.04877e-06
-0.000179621
-4.41248e-06
-0.000176695
-5.85708e-06
-0.000173077
-7.23186e-06
-0.000168718
-8.71417e-06
-0.000163609
-1.02201e-05
-0.000157811
-1.15913e-05
-0.000151222
-1.31701e-05
-0.000143848
-1.47523e-05
-0.000135644
-1.64061e-05
-0.000126633
-1.80208e-05
-0.000116772
-1.97204e-05
-0.00010619
-2.11654e-05
-9.47172e-05
-2.29464e-05
-8.24986e-05
-2.4436e-05
-6.94533e-05
-2.60902e-05
-5.57192e-05
-2.74673e-05
-4.11055e-05
-2.92366e-05
-2.5998e-05
-3.01956e-05
-1.01485e-05
-3.16938e-05
6.18629e-06
-3.26695e-05
2.29835e-05
-3.35848e-05
4.00997e-05
-3.42307e-05
5.73307e-05
-3.44562e-05
7.45531e-05
-3.44261e-05
9.14973e-05
-3.38851e-05
0.000107984
-3.29737e-05
0.000123837
-3.16909e-05
0.000138862
-3.00343e-05
0.000152783
-2.78321e-05
0.000165477
-2.53788e-05
0.000176541
-2.21116e-05
0.000185885
-1.86631e-05
0.000193086
-1.4385e-05
0.000197841
-9.4962e-06
0.000199996
-4.29463e-06
0.000199594
8.00093e-07
0.000196564
6.06048e-06
0.000190936
1.12561e-05
0.000182635
1.65963e-05
0.000171899
2.14618e-05
0.000158825
2.61334e-05
0.000143702
3.0231e-05
0.000126951
3.34849e-05
0.000108947
3.59925e-05
9.00162e-05
3.7845e-05
7.06226e-05
3.87718e-05
5.10123e-05
3.92066e-05
3.14959e-05
3.90211e-05
1.23617e-05
3.82579e-05
-6.19988e-06
3.7114e-05
-2.39219e-05
3.54399e-05
-4.07612e-05
3.36754e-05
-5.66246e-05
3.17249e-05
-7.14287e-05
2.96072e-05
-8.51968e-05
2.75357e-05
-9.79109e-05
2.5428e-05
-0.00010956
2.32992e-05
-0.00012019
2.12616e-05
-0.000129809
1.92361e-05
-0.00013847
1.7322e-05
-0.000146194
1.54514e-05
-0.000153007
1.36282e-05
-0.000158948
1.18819e-05
-0.000164048
1.01954e-05
-0.000168327
8.55606e-06
-0.00017181
6.96647e-06
-0.000174531
5.44345e-06
-0.00017651
3.95154e-06
-0.000177745
2.46717e-06
-0.000178287
1.08788e-06
-0.000178209
-1.61039e-07
-0.000177521
-1.38212e-06
-0.00017617
-2.70276e-06
-0.000174144
-4.05372e-06
-0.00017132
-5.65036e-06
-0.000167694
-7.24953e-06
-0.000163398
-8.59532e-06
-0.000158181
-1.04333e-05
-0.000152104
-1.21588e-05
-0.000145108
-1.39942e-05
-0.000137019
-1.61781e-05
-0.000127909
-1.82173e-05
-0.000117972
-1.98706e-05
-0.000106853
-2.22407e-05
-9.4887e-05
-2.39336e-05
-8.17279e-05
-2.63158e-05
-6.76628e-05
-2.81319e-05
-5.27306e-05
-2.98599e-05
-3.66896e-05
-3.20727e-05
-1.99022e-05
-3.35723e-05
-2.50849e-06
-3.4782e-05
1.56907e-05
-3.63973e-05
3.42974e-05
-3.72068e-05
5.34105e-05
-3.82163e-05
7.26216e-05
-3.84136e-05
9.16284e-05
-3.80061e-05
0.000110436
-3.76092e-05
0.000128686
-3.64909e-05
0.00014603
-3.46747e-05
0.000162341
-3.26121e-05
0.000177245
-2.97985e-05
0.000190513
-2.65275e-05
0.000201827
-2.26281e-05
0.000210966
-1.82762e-05
0.000217753
-1.35532e-05
0.000222019
-8.51868e-06
-3.70225e-06
4.01181e-06
4.6842e-05
-1.13149e-05
4.59808e-05
-2.59523e-05
4.39021e-05
-3.97989e-05
4.15309e-05
-5.27334e-05
3.87968e-05
-6.47931e-05
3.61761e-05
-7.5924e-05
3.33921e-05
-8.61764e-05
3.07579e-05
-9.5557e-05
2.81424e-05
-0.000104076
2.55621e-05
-0.000111791
2.315e-05
-0.00011873
2.0816e-05
-0.000124913
1.8547e-05
-0.000130395
1.6457e-05
-0.000135197
1.44038e-05
-0.000139355
1.24564e-05
-0.000142888
1.06226e-05
-0.000145815
8.78329e-06
-0.000148145
6.98603e-06
-0.00014991
5.28663e-06
-0.000151081
3.49104e-06
-0.000151667
1.784e-06
-0.000151646
-2.93865e-08
-0.000150987
-1.96969e-06
-0.000149722
-3.81377e-06
-0.000147747
-5.91171e-06
-0.000145124
-7.88126e-06
-0.00014185
-9.82936e-06
-0.000137803
-1.21453e-05
-0.000133007
-1.43976e-05
-0.000127481
-1.65815e-05
-0.000121059
-1.92732e-05
-0.000113823
-2.17145e-05
-0.000105624
-2.46218e-05
-9.64393e-05
-2.75395e-05
-8.64631e-05
-2.99278e-05
-7.54207e-05
-3.30874e-05
-6.33197e-05
-3.63455e-05
-5.04482e-05
-3.85988e-05
-3.64366e-05
-4.20392e-05
-2.16364e-05
-4.43558e-05
-5.76351e-06
-4.76352e-05
1.08427e-05
-4.98058e-05
2.79959e-05
-5.14295e-05
4.57657e-05
-5.3279e-05
6.40349e-05
-5.47715e-05
8.23865e-05
-5.50101e-05
0.000100824
-5.52773e-05
0.000119193
-5.5049e-05
0.000137044
-5.35178e-05
0.000154364
-5.19144e-05
0.000170784
-4.92003e-05
0.000186157
-4.60787e-05
0.000200311
-4.24165e-05
0.000212867
-3.76339e-05
0.000223688
-3.24192e-05
0.000232675
-2.69278e-05
0.000239593
-2.07334e-05
0.000244433
-1.45033e-05
0.000247042
-7.81464e-06
0.00024747
-1.30197e-06
0.000245711
5.23481e-06
0.000241674
1.21158e-05
0.000235518
1.84656e-05
0.000227407
2.42715e-05
0.000217345
3.01866e-05
0.000205569
3.52754e-05
0.000192255
3.98902e-05
0.000177644
4.38065e-05
0.000161897
4.72129e-05
0.000145205
5.00278e-05
0.000127899
5.18657e-05
0.00011009
5.33625e-05
9.20581e-05
5.40813e-05
7.39471e-05
5.42745e-05
5.5929e-05
5.39869e-05
3.82551e-05
5.30572e-05
2.09134e-05
5.19673e-05
4.129e-06
5.03422e-05
-1.19573e-05
4.81988e-05
-2.74478e-05
4.64848e-05
-4.21162e-05
4.40329e-05
-5.60546e-05
4.17549e-05
-6.91065e-05
3.91398e-05
-8.13127e-05
3.65895e-05
-9.26168e-05
3.39163e-05
-0.000103031
3.12313e-05
-0.00011251
2.84436e-05
-0.000121108
2.57779e-05
-0.000128815
2.30954e-05
-0.000135624
2.04198e-05
-0.000141531
1.76915e-05
-0.000146576
1.51022e-05
-0.000150732
1.24959e-05
-0.000154033
9.89765e-06
-0.000156451
7.2816e-06
-0.000158096
4.8382e-06
-0.000158968
2.67221e-06
-0.000159058
2.62559e-07
-0.000158428
-1.88571e-06
-0.000157038
-4.15925e-06
-0.000154931
-6.34743e-06
-0.000152071
-8.59359e-06
-0.000148417
-1.09828e-05
-0.00014406
-1.29749e-05
-0.000138906
-1.54978e-05
-0.000132919
-1.7933e-05
-0.000126104
-2.03835e-05
-0.000118536
-2.27823e-05
-0.000110061
-2.54297e-05
-0.00010072
-2.80344e-05
-9.04933e-05
-3.06119e-05
-7.94369e-05
-3.32114e-05
-6.7512e-05
-3.57601e-05
-5.47545e-05
-3.82509e-05
-4.12102e-05
-4.0639e-05
-2.68959e-05
-4.28581e-05
-1.19696e-05
-4.48376e-05
3.59536e-06
-4.66687e-05
1.97123e-05
-4.83043e-05
3.62747e-05
-4.96461e-05
5.31375e-05
-5.06015e-05
7.02127e-05
-5.12011e-05
8.73946e-05
-5.15088e-05
0.000104465
-5.11642e-05
0.000121285
-5.04204e-05
0.000137644
-4.90491e-05
0.000153325
-4.69928e-05
0.000168087
-4.42305e-05
0.000181714
-4.08308e-05
0.000193946
-3.66508e-05
0.000204565
-3.1825e-05
0.000213353
-2.63306e-05
0.000220109
-2.02402e-05
0.000224646
-1.3589e-05
0.000226859
-6.6137e-06
0.000226642
6.08154e-07
0.000223973
7.95814e-06
0.000218837
1.54095e-05
0.000211291
2.26135e-05
0.00020148
2.94013e-05
0.000189528
3.57869e-05
0.000175642
4.16389e-05
0.000160069
4.66405e-05
0.000143036
5.10611e-05
0.00012484
5.4556e-05
0.000105707
5.73418e-05
8.59121e-05
5.93243e-05
6.57786e-05
6.03261e-05
4.55438e-05
6.06287e-05
2.55336e-05
5.99762e-05
5.9305e-06
5.87261e-05
-1.30142e-05
5.68757e-05
-3.11548e-05
5.44078e-05
-4.83605e-05
5.15559e-05
-6.44734e-05
4.83118e-05
-7.94437e-05
4.49016e-05
-9.3204e-05
4.12923e-05
-0.000105767
3.76988e-05
-0.000117125
3.40943e-05
-0.00012733
3.05633e-05
-0.000136403
2.72944e-05
-0.000144384
2.39833e-05
-0.000151422
2.10869e-05
-0.000157459
1.8125e-05
-0.000162592
1.54071e-05
-0.00016683
1.27266e-05
-0.000170257
1.0231e-05
-0.000172948
8.14353e-06
-0.000174897
5.83669e-06
-0.00017615
3.73913e-06
-0.000176708
1.70425e-06
-0.000176599
-3.28905e-07
-0.000175778
-2.43983e-06
-0.000174324
-4.31782e-06
-0.000172295
-6.16901e-06
-0.000169594
-8.13704e-06
-0.000166329
-9.67154e-06
-0.000162451
-1.16784e-05
-0.00015793
-1.35459e-05
-0.00015277
-1.54927e-05
-0.000146931
-1.75258e-05
-0.000140377
-1.9646e-05
-0.000133164
-2.16518e-05
-0.000125186
-2.39352e-05
-0.000116395
-2.63581e-05
-0.000106881
-2.85651e-05
-9.64316e-05
-3.13739e-05
-8.50254e-05
-3.42087e-05
-7.27741e-05
-3.67531e-05
-5.95143e-05
-3.97536e-05
-4.55197e-05
-4.19706e-05
-3.06351e-05
-4.46291e-05
-1.49649e-05
-4.70104e-05
1.37986e-06
-4.89985e-05
1.83192e-05
-5.08178e-05
3.57295e-05
-5.21811e-05
5.34467e-05
-5.31192e-05
7.12605e-05
-5.33747e-05
8.89485e-05
-5.30075e-05
0.000106281
-5.19411e-05
0.000122971
-5.00529e-05
0.000138772
-4.73415e-05
0.000153447
-4.39679e-05
0.000166676
-3.96298e-05
0.000178251
-3.46943e-05
0.000187854
-2.8735e-05
0.000195302
-2.23079e-05
0.000200362
-1.5156e-05
0.000202929
-7.65287e-06
0.00020289
5.35948e-08
0.000200182
8.05535e-06
0.00019492
1.57813e-05
0.000187172
2.32171e-05
0.000177134
3.00729e-05
0.000164984
3.64075e-05
0.000150977
4.19701e-05
0.000135411
4.66226e-05
0.000118604
5.03956e-05
0.000100836
5.31918e-05
8.25177e-05
5.48898e-05
6.38892e-05
5.58737e-05
4.51548e-05
5.61266e-05
2.66173e-05
5.55961e-05
8.39843e-06
5.45941e-05
-9.23232e-06
5.28673e-05
-2.62402e-05
5.09828e-05
-4.24518e-05
4.86235e-05
-5.78197e-05
4.60722e-05
-7.22748e-05
4.33475e-05
-8.5787e-05
4.05607e-05
-9.83416e-05
3.76776e-05
-0.000109971
3.48879e-05
-0.000120664
3.21021e-05
-0.000130444
2.93417e-05
-0.000139342
2.66941e-05
-0.00014734
2.40173e-05
-0.000154537
2.15799e-05
-0.000160937
1.922e-05
-0.000166527
1.67625e-05
-0.000171331
1.43954e-05
-0.000175325
1.19987e-05
-0.000178611
9.87408e-06
-0.000181156
7.61487e-06
-0.000182998
5.52488e-06
-0.000184126
3.37653e-06
-0.000184558
1.30783e-06
-0.000184363
-5.5993e-07
-0.000183496
-2.60297e-06
-0.000181963
-4.58219e-06
-0.000179764
-6.61147e-06
-0.00017683
-8.79043e-06
-0.000173211
-1.08517e-05
-0.000168864
-1.3061e-05
-0.000163748
-1.5336e-05
-0.000157957
-1.73819e-05
-0.000151377
-1.97507e-05
-0.000143998
-2.21314e-05
-0.000135788
-2.46155e-05
-0.000126778
-2.70306e-05
-0.000116911
-2.95873e-05
-0.000106333
-3.17437e-05
-9.48552e-05
-3.44243e-05
-8.26215e-05
-3.66697e-05
-6.95781e-05
-3.91335e-05
-5.58338e-05
-4.12116e-05
-4.12486e-05
-4.38219e-05
-2.60992e-05
-4.5345e-05
-1.02392e-05
-4.75539e-05
6.10455e-06
-4.90133e-05
2.29319e-05
-5.04122e-05
4.00545e-05
-5.13533e-05
5.73017e-05
-5.17035e-05
7.45425e-05
-5.1667e-05
9.14989e-05
-5.08416e-05
0.000107999
-4.94735e-05
0.000123862
-4.75547e-05
0.000138899
-4.50708e-05
0.000152838
-4.17719e-05
0.000165557
-3.80977e-05
0.000176643
-3.31976e-05
0.000186016
-2.80358e-05
0.000193247
-2.16162e-05
0.000198034
-1.42835e-05
0.000200222
-6.48261e-06
0.000199808
1.21426e-06
0.000196771
9.09669e-06
0.000191143
1.68844e-05
0.000182833
2.49063e-05
0.000172077
3.22171e-05
0.00015898
3.92309e-05
0.000143829
4.53819e-05
0.00012705
5.02642e-05
0.000109015
5.40267e-05
9.00586e-05
5.68018e-05
7.06395e-05
5.81909e-05
5.10062e-05
5.88399e-05
3.14733e-05
5.8554e-05
1.23227e-05
5.74085e-05
-6.25401e-06
5.56907e-05
-2.39858e-05
5.31717e-05
-4.08317e-05
5.05212e-05
-5.6699e-05
4.75922e-05
-7.1505e-05
4.44132e-05
-8.5273e-05
4.13037e-05
-9.79852e-05
3.81403e-05
-0.000109632
3.49458e-05
-0.00012026
3.18895e-05
-0.000129874
2.88502e-05
-0.000138529
2.5977e-05
-0.000146246
2.3169e-05
-0.000153056
2.0438e-05
-0.000158993
1.7819e-05
-0.000164086
1.52884e-05
-0.000168364
1.28332e-05
-0.000171846
1.04487e-05
-0.000174565
8.16219e-06
-0.000176546
5.933e-06
-0.000177795
3.7161e-06
-0.000178341
1.63425e-06
-0.000178268
-2.34158e-07
-0.000177581
-2.06983e-06
-0.00017623
-4.0536e-06
-0.000174204
-6.07915e-06
-0.000171386
-8.46885e-06
-0.000167761
-1.08742e-05
-0.000163465
-1.28913e-05
-0.000158248
-1.56503e-05
-0.000152181
-1.8226e-05
-0.000145188
-2.09874e-05
-0.0001371
-2.42661e-05
-0.000127988
-2.7329e-05
-0.000118049
-2.98094e-05
-0.000106933
-3.33573e-05
-9.49654e-05
-3.59012e-05
-8.18055e-05
-3.94757e-05
-6.77328e-05
-4.22047e-05
-5.27966e-05
-4.47962e-05
-3.67533e-05
-4.81161e-05
-1.99543e-05
-5.03714e-05
-2.55052e-06
-5.21858e-05
1.56615e-05
-5.46094e-05
3.42775e-05
-5.5823e-05
5.34027e-05
-5.73416e-05
7.26274e-05
-5.76383e-05
9.16472e-05
-5.7026e-05
0.000110473
-5.64354e-05
0.000128737
-5.4755e-05
0.000146095
-5.20328e-05
0.000162417
-4.89339e-05
0.000177334
-4.47157e-05
0.000190613
-3.9807e-05
0.000201945
-3.39602e-05
0.000211101
-2.74324e-05
0.00021791
-2.03618e-05
0.000222204
-1.28131e-05
-5.56601e-06
3.91631e-06
6.24908e-05
-1.14112e-05
6.13082e-05
-2.60551e-05
5.8546e-05
-3.99069e-05
5.53827e-05
-5.28456e-05
5.17355e-05
-6.49071e-05
4.82376e-05
-7.60385e-05
4.45234e-05
-8.62896e-05
4.1009e-05
-9.5669e-05
3.75219e-05
-0.000104184
3.40774e-05
-0.000111897
3.08627e-05
-0.000118834
2.77525e-05
-0.000125021
2.47345e-05
-0.000130493
2.1929e-05
-0.000135293
1.92038e-05
-0.000139452
1.66154e-05
-0.000142985
1.4155e-05
-0.00014591
1.1709e-05
-0.000148241
9.3167e-06
-0.000150007
7.05255e-06
-0.000151182
4.66612e-06
-0.000151763
2.36462e-06
-0.000151716
-7.60918e-08
-0.000151054
-2.63168e-06
-0.000149804
-5.06347e-06
-0.000147821
-7.89472e-06
-0.000145203
-1.04996e-05
-0.000141933
-1.30996e-05
-0.00013789
-1.61884e-05
-0.000133099
-1.91883e-05
-0.000127577
-2.21037e-05
-0.000121158
-2.56923e-05
-0.000113925
-2.8947e-05
-0.000105743
-3.28042e-05
-9.65508e-05
-3.67315e-05
-8.65737e-05
-3.99048e-05
-7.55164e-05
-4.41448e-05
-6.34347e-05
-4.84272e-05
-5.05565e-05
-5.14772e-05
-3.6546e-05
-5.60497e-05
-2.1727e-05
-5.91749e-05
-5.85652e-06
-6.35057e-05
1.07606e-05
-6.64229e-05
2.79307e-05
-6.85997e-05
4.57158e-05
-7.10642e-05
6.40036e-05
-7.30594e-05
8.23814e-05
-7.33879e-05
0.000100843
-7.37393e-05
0.000119245
-7.34506e-05
0.000137114
-7.1387e-05
0.000154463
-6.92634e-05
0.000170913
-6.56501e-05
0.000186305
-6.14707e-05
0.000200488
-5.65999e-05
0.000213062
-5.0208e-05
0.000223905
-4.32625e-05
0.000232917
-3.59398e-05
0.000239844
-2.76606e-05
0.000244691
-1.93501e-05
0.000247302
-1.04254e-05
0.000247721
-1.72101e-06
0.000245945
7.01078e-06
0.000241912
1.61489e-05
0.000235756
2.46209e-05
0.000227618
3.24093e-05
0.000217551
4.02541e-05
0.000205746
4.70803e-05
0.000192407
5.32296e-05
0.000177777
5.84361e-05
0.000162013
6.29767e-05
0.000145294
6.67473e-05
0.000127959
6.92001e-05
0.000110114
7.12078e-05
9.20693e-05
7.21259e-05
7.39296e-05
7.24142e-05
5.58756e-05
7.20408e-05
3.8199e-05
7.07339e-05
2.08416e-05
6.93246e-05
4.05888e-06
6.71249e-05
-1.20573e-05
6.43149e-05
-2.75504e-05
6.19779e-05
-4.22333e-05
5.87157e-05
-5.61795e-05
5.57011e-05
-6.92405e-05
5.22008e-05
-8.14567e-05
4.88056e-05
-9.27663e-05
4.52258e-05
-0.000103195
4.16595e-05
-0.000112675
3.79242e-05
-0.000121279
3.43815e-05
-0.000128995
3.08115e-05
-0.000135802
2.72265e-05
-0.000141726
2.36154e-05
-0.000146783
2.01586e-05
-0.00015093
1.66433e-05
-0.000154242
1.32098e-05
-0.000156629
9.6684e-06
-0.000158318
6.52662e-06
-0.000159174
3.52895e-06
-0.000159261
3.49228e-07
-0.000158636
-2.51127e-06
-0.000157258
-5.53654e-06
-0.000155155
-8.45043e-06