/*--------------------------------*- C++ -*----------------------------------*\
| =========                 |                                                 |
| \\      /  F ield         | OpenFOAM: The Open Source CFD Toolbox           |
|  \\    /   O peration     | Version:  3.0.1                                 |
|   \\  /    A nd           | Web:      www.OpenFOAM.org                      |
|    \\/     M anipulation  |                                                 |
\*---------------------------------------------------------------------------*/
FoamFile
{
    version     2.0;
    format      ascii;
    class       surfaceScalarField;
    location    "94.4";
    object      phi;
}
// * * * * * * * * * * * * * * * * * * * * * * * * * * * * * * * * * * * * * //

dimensions      [0 3 -1 0 0 0 0];

internalField   nonuniform List<scalar> 
42423
(
0.000149436
1.66869e-05
0.000132258
1.71779e-05
0.000114474
1.77841e-05
9.62627e-05
1.82116e-05
7.80549e-05
1.82078e-05
5.98333e-05
1.82216e-05
4.19356e-05
1.78977e-05
2.44317e-05
1.75039e-05
7.46664e-06
1.6965e-05
-8.87619e-06
1.63428e-05
-2.44175e-05
1.55413e-05
-3.90864e-05
1.46689e-05
-5.28249e-05
1.37385e-05
-6.56247e-05
1.27998e-05
-7.74657e-05
1.1841e-05
-8.83704e-05
1.09046e-05
-9.83366e-05
9.96623e-06
-0.000107373
9.03623e-06
-0.000115521
8.14865e-06
-0.00012281
7.28896e-06
-0.000129265
6.45437e-06
-0.000134914
5.64947e-06
-0.000139774
4.85944e-06
-0.000143889
4.11551e-06
-0.00014729
3.40087e-06
-0.000149988
2.69747e-06
-0.000152009
2.02183e-06
-0.000153372
1.36226e-06
-0.00015409
7.18149e-07
-0.000154119
2.95177e-08
-0.000153444
-6.75689e-07
-0.000152023
-1.42043e-06
-0.000149946
-2.07712e-06
-0.000147089
-2.8572e-06
-0.000143496
-3.59327e-06
-0.000139197
-4.29895e-06
-0.000134016
-5.18025e-06
-0.000128039
-5.97706e-06
-0.000121264
-6.77535e-06
-0.000113511
-7.7536e-06
-0.000104894
-8.61684e-06
-9.52125e-05
-9.6812e-06
-8.45842e-05
-1.06284e-05
-7.3128e-05
-1.14562e-05
-6.05647e-05
-1.25634e-05
-4.69572e-05
-1.36075e-05
-3.25449e-05
-1.44124e-05
-1.70596e-05
-1.54853e-05
-5.88442e-07
-1.64712e-05
1.63322e-05
-1.69207e-05
3.39921e-05
-1.76599e-05
5.21181e-05
-1.81261e-05
7.06607e-05
-1.85426e-05
8.94889e-05
-1.88282e-05
0.000108149
-1.86602e-05
0.000126558
-1.8409e-05
0.000144521
-1.7963e-05
0.000161637
-1.71165e-05
0.000177796
-1.61588e-05
0.000192671
-1.48745e-05
0.000206114
-1.34431e-05
0.0002179
-1.17867e-05
0.000227725
-9.82473e-06
0.00023548
-7.75534e-06
0.000241141
-5.66035e-06
0.000244427
-3.28663e-06
0.000245404
-9.76615e-07
0.000244017
1.38671e-06
0.000240189
3.82846e-06
0.000234058
6.13032e-06
0.000225653
8.40502e-06
0.000215244
1.04096e-05
0.000202872
1.23717e-05
0.000188771
1.41006e-05
0.000173176
1.55955e-05
0.000156388
1.6788e-05
0.000138646
1.77417e-05
0.000120128
1.85179e-05
0.000101138
1.89899e-05
8.19389e-05
1.91995e-05
6.27012e-05
1.92376e-05
4.37024e-05
1.89989e-05
2.51231e-05
1.85793e-05
7.04329e-06
1.80798e-05
-1.03405e-05
1.73838e-05
-2.68904e-05
1.65499e-05
-4.2503e-05
1.56126e-05
-5.71089e-05
1.4606e-05
-7.06998e-05
1.35908e-05
-8.31181e-05
1.24183e-05
-9.44448e-05
1.13267e-05
-0.000104681
1.0236e-05
-0.00011393
9.24913e-06
-0.000122229
8.29952e-06
-0.000129622
7.39275e-06
-0.000136155
6.53234e-06
-0.000141828
5.67297e-06
-0.000146665
4.83797e-06
-0.000150654
3.98832e-06
-0.000153829
3.17554e-06
-0.000156207
2.37808e-06
-0.000157782
1.57409e-06
-0.000158616
8.34669e-07
-0.00015869
7.38276e-08
-0.000157995
-6.95287e-07
-0.000156621
-1.37361e-06
-0.000154574
-2.04681e-06
-0.000151765
-2.80913e-06
-0.000148252
-3.51326e-06
-0.000143997
-4.25477e-06
-0.000138988
-5.00914e-06
-0.00013326
-5.72832e-06
-0.000126731
-6.52906e-06
-0.000119399
-7.33133e-06
-0.000111271
-8.12818e-06
-0.000102314
-8.95736e-06
-9.25559e-05
-9.75805e-06
-8.19807e-05
-1.05752e-05
-7.06115e-05
-1.13693e-05
-5.84215e-05
-1.219e-05
-4.54539e-05
-1.29676e-05
-3.17585e-05
-1.36955e-05
-1.73373e-05
-1.44212e-05
-2.28136e-06
-1.5056e-05
1.33989e-05
-1.56803e-05
2.95947e-05
-1.61959e-05
4.6249e-05
-1.66543e-05
6.32311e-05
-1.69822e-05
8.04212e-05
-1.71902e-05
9.76875e-05
-1.72663e-05
0.000114758
-1.70702e-05
0.00013152
-1.6762e-05
0.000147758
-1.62383e-05
0.000163122
-1.53642e-05
0.000177477
-1.43555e-05
0.000190548
-1.30705e-05
0.000201999
-1.14516e-05
0.000211719
-9.71934e-06
0.000219434
-7.71496e-06
0.000224984
-5.54994e-06
0.000228221
-3.23704e-06
0.000229099
-8.78243e-07
0.000227528
1.57089e-06
0.000223458
4.06996e-06
0.000216976
6.48168e-06
0.00020818
8.79633e-06
0.000197215
1.09646e-05
0.000184268
1.29475e-05
0.000169514
1.47539e-05
0.0001532
1.63139e-05
0.000135588
1.76116e-05
0.000116959
1.86289e-05
9.76116e-05
1.93476e-05
7.78207e-05
1.97908e-05
5.78988e-05
1.99219e-05
3.81207e-05
1.97781e-05
1.87156e-05
1.94051e-05
-1.52103e-07
1.88677e-05
-1.82482e-05
1.80961e-05
-3.54291e-05
1.71809e-05
-5.16079e-05
1.61788e-05
-6.66557e-05
1.50478e-05
-8.05482e-05
1.38925e-05
-9.33291e-05
1.27809e-05
-0.000104896
1.15673e-05
-0.000115349
1.0453e-05
-0.000124665
9.3152e-06
-0.00013292
8.25557e-06
-0.000140189
7.26902e-06
-0.000146488
6.29879e-06
-0.000151873
5.38521e-06
-0.00015639
4.51646e-06
-0.000160162
3.77224e-06
-0.000163156
2.99429e-06
-0.000165447
2.29117e-06
-0.000167055
1.60742e-06
-0.000168029
9.74579e-07
-0.000168397
3.67644e-07
-0.000168177
-2.20191e-07
-0.000167325
-8.5219e-07
-0.000166012
-1.31229e-06
-0.000164068
-1.9443e-06
-0.000161526
-2.54166e-06
-0.000158362
-3.16396e-06
-0.000154562
-3.80063e-06
-0.00015016
-4.40214e-06
-0.000145106
-5.05362e-06
-0.00013939
-5.71601e-06
-0.000132972
-6.41776e-06
-0.0001259
-7.07198e-06
-0.000118117
-7.78338e-06
-0.000109595
-8.52196e-06
-0.000100265
-9.32973e-06
-9.01203e-05
-1.0145e-05
-7.91567e-05
-1.09636e-05
-6.7484e-05
-1.16727e-05
-5.50142e-05
-1.24699e-05
-4.18586e-05
-1.31556e-05
-2.79291e-05
-1.39294e-05
-1.34094e-05
-1.45198e-05
1.81488e-06
-1.52243e-05
1.76696e-05
-1.58548e-05
3.41026e-05
-1.6433e-05
5.08518e-05
-1.67492e-05
6.78378e-05
-1.69861e-05
8.47719e-05
-1.69342e-05
0.000101379
-1.66075e-05
0.000117475
-1.60962e-05
0.000132807
-1.53316e-05
0.000147098
-1.42914e-05
0.000160195
-1.30963e-05
0.000171814
-1.16195e-05
0.000181779
-9.96465e-06
0.000189812
-8.03365e-06
0.000195727
-5.91508e-06
0.000199322
-3.59499e-06
0.000200476
-1.15358e-06
0.000199106
1.36948e-06
0.000195179
3.92746e-06
0.000188746
6.4324e-06
0.000179984
8.76259e-06
0.000168977
1.10071e-05
0.000156029
1.29476e-05
0.000141373
1.46556e-05
0.000125316
1.60572e-05
0.00010816
1.71564e-05
9.02142e-05
1.79456e-05
7.17842e-05
1.843e-05
5.31356e-05
1.86486e-05
3.45306e-05
1.8605e-05
1.62013e-05
1.83293e-05
-1.64935e-06
1.78506e-05
-1.89071e-05
1.72577e-05
-3.53851e-05
1.64781e-05
-5.10054e-05
1.56202e-05
-6.58056e-05
1.48003e-05
-7.96199e-05
1.38143e-05
-9.24655e-05
1.28456e-05
-0.000104294
1.18287e-05
-0.000115089
1.07945e-05
-0.000124919
9.8306e-06
-0.000133783
8.86386e-06
-0.000141817
8.03383e-06
-0.000149026
7.20929e-06
-0.000155483
6.45667e-06
-0.000161235
5.75169e-06
-0.000166253
5.01845e-06
-0.000170593
4.33992e-06
-0.000174231
3.63836e-06
-0.000177213
2.98161e-06
-0.000179536
2.3227e-06
-0.00018129
1.75426e-06
-0.000182493
1.2029e-06
-0.000183209
7.15897e-07
-0.000183422
2.13051e-07
-0.000183135
-2.86407e-07
-0.000182274
-8.6183e-07
-0.000180849
-1.42438e-06
-0.000178785
-2.0646e-06
-0.000176036
-2.74889e-06
-0.000172575
-3.46031e-06
-0.000168378
-4.19725e-06
-0.000163403
-4.97472e-06
-0.000157611
-5.79197e-06
-0.000151178
-6.43368e-06
-0.000143885
-7.29292e-06
-0.000135794
-8.09091e-06
-0.000126855
-8.93888e-06
-0.000117007
-9.84825e-06
-0.000106287
-1.07203e-05
-9.46266e-05
-1.166e-05
-8.20731e-05
-1.25535e-05
-6.87129e-05
-1.33602e-05
-5.43422e-05
-1.43708e-05
-3.93648e-05
-1.49774e-05
-2.36425e-05
-1.57224e-05
-7.20537e-06
-1.64371e-05
9.89316e-06
-1.70986e-05
2.76062e-05
-1.77131e-05
4.59064e-05
-1.83002e-05
6.45734e-05
-1.86671e-05
8.35322e-05
-1.89588e-05
0.000102517
-1.89849e-05
0.000121074
-1.8557e-05
0.00013885
-1.77761e-05
0.00015536
-1.65097e-05
0.000170012
-1.4652e-05
0.000182587
-1.25756e-05
0.00019266
-1.00729e-05
0.000200107
-7.44699e-06
0.000204675
-4.56847e-06
0.000206149
-1.47312e-06
0.00020509
1.05833e-06
0.000201301
3.78964e-06
0.000194686
6.61474e-06
0.000185538
9.14754e-06
0.000173965
1.15727e-05
0.000160204
1.37614e-05
0.000144726
1.54782e-05
0.000127753
1.69732e-05
0.000109783
1.79693e-05
9.10271e-05
1.87561e-05
7.18041e-05
1.9223e-05
5.25288e-05
1.92753e-05
3.33112e-05
1.92177e-05
1.43866e-05
1.89245e-05
-3.89308e-06
1.82797e-05
-2.14679e-05
1.75749e-05
-3.81666e-05
1.66987e-05
-5.39851e-05
1.58185e-05
-6.88442e-05
1.48591e-05
-8.26776e-05
1.38334e-05
-9.55166e-05
1.2839e-05
-0.000107336
1.18195e-05
-0.000118135
1.07985e-05
-0.00012795
9.8153e-06
-0.00013679
8.8399e-06
-0.000144705
7.91533e-06
-0.000151713
7.00822e-06
-0.000157839
6.1256e-06
-0.000163119
5.27983e-06
-0.000167571
4.45243e-06
-0.000171228
3.65704e-06
-0.000174115
2.88675e-06
-0.00017625
2.13464e-06
-0.000177624
1.37406e-06
-0.000178278
6.54439e-07
-0.000178235
-4.29074e-08
-0.000177451
-7.84263e-07
-0.000176008
-1.44303e-06
-0.00017374
-2.26843e-06
-0.000170752
-2.9877e-06
-0.000167101
-3.65081e-06
-0.000162594
-4.50722e-06
-0.000157371
-5.22242e-06
-0.000151203
-6.16844e-06
-0.000144204
-6.99907e-06
-0.000136467
-7.73694e-06
-0.000127685
-8.78181e-06
-0.000118051
-9.63445e-06
-0.000107606
-1.04449e-05
-9.60287e-05
-1.15773e-05
-8.36469e-05
-1.23819e-05
-7.00943e-05
-1.35526e-05
-5.5741e-05
-1.43534e-05
-4.0555e-05
-1.5186e-05
-2.43521e-05
-1.6203e-05
-7.28099e-06
-1.70711e-05
1.04283e-05
-1.77093e-05
2.88366e-05
-1.84083e-05
4.76187e-05
-1.87822e-05
6.6756e-05
-1.91374e-05
8.58609e-05
-1.9105e-05
0.000104572
-1.87116e-05
0.000122862
-1.829e-05
0.000140387
-1.75245e-05
-1.67405e-05
0.000149467
3.33811e-05
0.000132281
3.43632e-05
0.00011449
3.55759e-05
9.62701e-05
3.6431e-05
7.80545e-05
3.64233e-05
5.98259e-05
3.64501e-05
4.19177e-05
3.58059e-05
2.44031e-05
3.50185e-05
7.43972e-06
3.39284e-05
-8.90671e-06
3.26892e-05
-2.44503e-05
3.10849e-05
-3.91209e-05
2.93395e-05
-5.28632e-05
2.74808e-05
-6.56652e-05
2.56018e-05
-7.75081e-05
2.36839e-05
-8.84135e-05
2.181e-05
-9.83798e-05
1.99326e-05
-0.000107417
1.80736e-05
-0.000115565
1.62968e-05
-0.000122854
1.45772e-05
-0.000129307
1.2908e-05
-0.000134953
1.12948e-05
-0.000139819
9.72596e-06
-0.000143938
8.2349e-06
-0.000147337
6.79983e-06
-0.000150032
5.39166e-06
-0.000152057
4.04734e-06
-0.000153423
2.72858e-06
-0.000154143
1.43731e-06
-0.000154165
5.16332e-08
-0.000153489
-1.35162e-06
-0.000152067
-2.84234e-06
-0.000149992
-4.15179e-06
-0.000147137
-5.71296e-06
-0.000143545
-7.18497e-06
-0.000139243
-8.60116e-06
-0.000134069
-1.03537e-05
-0.00012809
-1.19567e-05
-0.000121315
-1.35496e-05
-0.00011356
-1.5509e-05
-0.000104943
-1.72336e-05
-9.5262e-05
-1.93625e-05
-8.4638e-05
-2.12523e-05
-7.31752e-05
-2.2919e-05
-6.06166e-05
-2.5122e-05
-4.7007e-05
-2.72172e-05
-3.2594e-05
-2.88255e-05
-1.71068e-05
-3.09725e-05
-6.2946e-07
-3.29486e-05
1.62947e-05
-3.38449e-05
3.3962e-05
-3.53273e-05
5.20961e-05
-3.62603e-05
7.06459e-05
-3.70925e-05
8.94888e-05
-3.76712e-05
0.000108165
-3.73364e-05
0.000126588
-3.68315e-05
0.000144564
-3.594e-05
0.000161694
-3.42458e-05
0.000177866
-3.23315e-05
0.000192755
-2.97633e-05
0.000206209
-2.68969e-05
0.000218016
-2.35936e-05
0.000227847
-1.9656e-05
0.000235599
-1.55079e-05
0.000241265
-1.1326e-05
0.000244554
-6.57596e-06
0.000245529
-1.95131e-06
0.00024413
2.7855e-06
0.000240304
7.65459e-06
0.000234171
1.22632e-05
0.000225776
1.67995e-05
0.000215341
2.08445e-05
0.00020296
2.47527e-05
0.000188842
2.8219e-05
0.000173241
3.11964e-05
0.000156439
3.35899e-05
0.000138682
3.54983e-05
0.000120149
3.70513e-05
0.000101146
3.79925e-05
8.19366e-05
3.84093e-05
6.26843e-05
3.84899e-05
4.36797e-05
3.80035e-05
2.50997e-05
3.71592e-05
7.01265e-06
3.61669e-05
-1.03719e-05
3.47683e-05
-2.69243e-05
3.31023e-05
-4.25384e-05
3.12267e-05
-5.71409e-05
2.92084e-05
-7.07254e-05
2.71754e-05
-8.31457e-05
2.48386e-05
-9.44722e-05
2.26532e-05
-0.000104699
2.04628e-05
-0.000113931
1.8481e-05
-0.000122222
1.6591e-05
-0.000129611
1.4781e-05
-0.000136142
1.30636e-05
-0.00014181
1.13411e-05
-0.000146643
9.67099e-06
-0.000150628
7.97357e-06
-0.000153805
6.35181e-06
-0.000156181
4.75405e-06
-0.000157751
3.14413e-06
-0.000158583
1.66732e-06
-0.000158659
1.49211e-07
-0.000157975
-1.37858e-06
-0.000156597
-2.75166e-06
-0.000154551
-4.09264e-06
-0.00015174
-5.62094e-06
-0.000148235
-7.0176e-06
-0.000143994
-8.49598e-06
-0.000138981
-1.00226e-05
-0.000133253
-1.14561e-05
-0.000126727
-1.30547e-05
-0.000119402
-1.46571e-05
-0.000111276
-1.62537e-05
-0.000102321
-1.79121e-05
-9.25657e-05
-1.95138e-05
-8.2e-05
-2.11409e-05
-7.06366e-05
-2.27328e-05
-5.84533e-05
-2.43734e-05
-4.54926e-05
-2.59284e-05
-3.18039e-05
-2.73843e-05
-1.73893e-05
-2.88358e-05
-2.33605e-06
-3.01093e-05
1.33328e-05
-3.13492e-05
2.95205e-05
-3.23837e-05
4.61726e-05
-3.33065e-05
6.31496e-05
-3.39593e-05
8.03283e-05
-3.4369e-05
9.75813e-05
-3.45194e-05
0.000114684
-3.41731e-05
0.000131433
-3.35109e-05
0.000147638
-3.24439e-05
0.000163009
-3.07345e-05
0.000177354
-2.87007e-05
0.000190426
-2.61426e-05
0.000201876
-2.29024e-05
0.000211587
-1.94301e-05
0.000219295
-1.54227e-05
0.000224838
-1.10936e-05
0.000228081
-6.47984e-06
0.000228946
-1.74324e-06
0.000227375
3.14212e-06
0.000223295
8.14936e-06
0.000216816
1.29611e-05
0.000208022
1.75898e-05
0.000197082
2.19047e-05
0.0001841
2.59298e-05
0.000169347
2.95068e-05
0.000153028
3.26331e-05
0.000135417
3.52223e-05
0.000116783
3.72627e-05
9.74387e-05
3.86919e-05
7.7654e-05
3.95755e-05
5.77282e-05
3.98477e-05
3.79432e-05
3.9563e-05
1.85558e-05
3.87926e-05
-3.29694e-07
3.77531e-05
-1.84164e-05
3.61829e-05
-3.56041e-05
3.43686e-05
-5.17758e-05
3.23504e-05
-6.68178e-05
3.00898e-05
-8.06915e-05
2.77663e-05
-9.34696e-05
2.5559e-05
-0.000105033
2.31309e-05
-0.000115484
2.09039e-05
-0.000124789
1.86205e-05
-0.000133039
1.65055e-05
-0.000140292
1.45219e-05
-0.000146581
1.25879e-05
-0.000151966
1.07696e-05
-0.000156487
9.03786e-06
-0.000160248
7.53338e-06
-0.000163232
5.97772e-06
-0.000165506
4.56598e-06
-0.000167112
3.21257e-06
-0.000168093
1.95607e-06
-0.000168452
7.26762e-07
-0.000168228
-4.44529e-07
-0.000167385
-1.69467e-06
-0.000166071
-2.62658e-06
-0.000164123
-3.89274e-06
-0.000161575
-5.08921e-06
-0.000158418
-6.32137e-06
-0.000154628
-7.58985e-06
-0.000150225
-8.80605e-06
-0.00014518
-1.00987e-05
-0.000139473
-1.14229e-05
-0.000133059
-1.28319e-05
-0.000125994
-1.41369e-05
-0.000118239
-1.55379e-05
-0.000109718
-1.70431e-05
-0.000100396
-1.86517e-05
-9.02652e-05
-2.02761e-05
-7.93248e-05
-2.1904e-05
-6.76277e-05
-2.33699e-05
-5.51792e-05
-2.49184e-05
-4.20109e-05
-2.6324e-05
-2.81431e-05
-2.77973e-05
-1.36071e-05
-2.90558e-05
1.61565e-06
-3.04472e-05
1.74652e-05
-3.17044e-05
3.38705e-05
-3.28384e-05
5.06335e-05
-3.35123e-05
6.76177e-05
-3.39703e-05
8.45665e-05
-3.38831e-05
0.000101169
-3.32101e-05
0.000117267
-3.2194e-05
0.000132608
-3.06727e-05
0.000146902
-2.85856e-05
0.000159997
-2.6191e-05
0.000171628
-2.32507e-05
0.000181594
-1.99308e-05
0.000189638
-1.60782e-05
0.00019557
-1.18464e-05
0.000199194
-7.21894e-06
0.000200376
-2.33606e-06
0.000198986
2.75919e-06
0.000195065
7.84843e-06
0.000188633
1.28651e-05
0.000179872
1.75234e-05
0.000168864
2.2015e-05
0.000155922
2.58896e-05
0.000141268
2.93094e-05
0.000125209
3.21155e-05
0.000108049
3.43165e-05
9.01019e-05
3.58929e-05
7.16681e-05
3.68639e-05
5.30201e-05
3.72966e-05
3.44105e-05
3.72146e-05
1.60758e-05
3.6664e-05
-1.78331e-06
3.57097e-05
-1.90229e-05
3.44973e-05
-3.55085e-05
3.29637e-05
-5.11417e-05
3.12534e-05
-6.59172e-05
2.95758e-05
-7.97276e-05
2.76247e-05
-9.25697e-05
2.56877e-05
-0.000104398
2.36568e-05
-0.000115192
2.15891e-05
-0.00012502
1.9658e-05
-0.000133878
1.77224e-05
-0.000141914
1.60694e-05
-0.000149128
1.44237e-05
-0.000155584
1.29124e-05
-0.000161339
1.15062e-05
-0.000166366
1.00458e-05
-0.000170706
8.67957e-06
-0.000174338
7.27089e-06
-0.000177332
5.97574e-06
-0.000179654
4.64468e-06
-0.000181405
3.5045e-06
-0.000182604
2.40205e-06
-0.00018332
1.43194e-06
-0.000183523
4.16349e-07
-0.000183231
-5.78873e-07
-0.000182376
-1.71632e-06
-0.00018095
-2.85089e-06
-0.000178888
-4.12618e-06
-0.000176132
-5.50459e-06
-0.000172666
-6.92676e-06
-0.000168466
-8.39771e-06
-0.000163493
-9.94728e-06
-0.000157712
-1.15726e-05
-0.000151258
-1.2888e-05
-0.000143967
-1.45837e-05
-0.000135869
-1.61892e-05
-0.000126928
-1.78799e-05
-0.000117079
-1.96974e-05
-0.000106358
-2.14411e-05
-9.46883e-05
-2.33301e-05
-8.21329e-05
-2.51089e-05
-6.8774e-05
-2.67192e-05
-5.44171e-05
-2.87277e-05
-3.94154e-05
-2.99791e-05
-2.36925e-05
-3.14454e-05
-7.25064e-06
-3.28791e-05
9.85013e-06
-3.41994e-05
2.75646e-05
-3.54276e-05
4.58673e-05
-3.6603e-05
6.45398e-05
-3.73396e-05
8.35089e-05
-3.79279e-05
0.000102509
-3.79847e-05
0.000121088
-3.71367e-05
0.00013889
-3.55778e-05
0.000155426
-3.30463e-05
0.000170105
-2.93307e-05
0.000182701
-2.51712e-05
0.000192797
-2.01693e-05
0.000200263
-1.49135e-05
0.000204839
-9.14368e-06
0.000206308
-2.94268e-06
0.000205239
2.12726e-06
0.000201446
7.58292e-06
0.000194825
1.32355e-05
0.000185666
1.83063e-05
0.000174079
2.31595e-05
0.000160304
2.75367e-05
0.00014481
3.09717e-05
0.000127822
3.39621e-05
0.000109837
3.59538e-05
9.10661e-05
3.7527e-05
7.18287e-05
3.84604e-05
5.25411e-05
3.85628e-05
3.33082e-05
3.84505e-05
1.43776e-05
3.78551e-05
-3.90808e-06
3.65653e-05
-2.14852e-05
3.51519e-05
-3.81858e-05
3.33993e-05
-5.40056e-05
3.16383e-05
-6.88664e-05
2.97199e-05
-8.27007e-05
2.76678e-05
-9.55392e-05
2.56775e-05
-0.00010736
2.36406e-05
-0.000118157
2.15953e-05
-0.000127973
1.96307e-05
-0.000136816
1.76835e-05
-0.000144734
1.58328e-05
-0.000151741
1.40158e-05
-0.000157866
1.225e-05
-0.000163142
1.05565e-05
-0.000167594
8.90437e-06
-0.000171258
7.32112e-06
-0.000174148
5.77687e-06
-0.000176285
4.27065e-06
-0.000177662
2.75144e-06
-0.000178317
1.30932e-06
-0.000178275
-8.42961e-08
-0.000177492
-1.56816e-06
-0.00017605
-2.88436e-06
-0.000173781
-4.53808e-06
-0.000170792
-5.97631e-06
-0.000167146
-7.29691e-06
-0.000162639
-9.01427e-06
-0.000157419
-1.04425e-05
-0.000151245
-1.23425e-05
-0.000144247
-1.39966e-05
-0.000136511
-1.54729e-05
-0.00012773
-1.75636e-05
-0.0001181
-1.92643e-05
-0.000107652
-2.08929e-05
-9.60734e-05
-2.31558e-05
-8.36912e-05
-2.47641e-05
-7.01366e-05
-2.71072e-05
-5.57794e-05
-2.87107e-05
-4.05909e-05
-3.03745e-05
-2.43841e-05
-3.241e-05
-7.30853e-06
-3.41468e-05
1.03988e-05
-3.54168e-05
2.88105e-05
-3.68202e-05
4.75965e-05
-3.75683e-05
6.67376e-05
-3.82786e-05
8.58504e-05
-3.82179e-05
0.000104572
-3.74333e-05
0.000122878
-3.65964e-05
0.000140425
-3.50711e-05
-3.34931e-05
0.000149524
5.00934e-05
0.000132321
5.15659e-05
0.000114513
5.33847e-05
9.6277e-05
5.46665e-05
7.80459e-05
5.46545e-05
5.98047e-05
5.46913e-05
4.1877e-05
5.37336e-05
2.43432e-05
5.25523e-05
7.38349e-06
5.08881e-05
-8.97428e-06
4.9047e-05
-2.45223e-05
4.66329e-05
-3.91978e-05
4.4015e-05
-5.29424e-05
4.12253e-05
-6.57448e-05
3.84042e-05
-7.75893e-05
3.55284e-05
-8.84954e-05
3.27162e-05
-9.84594e-05
2.98966e-05
-0.000107495
2.71092e-05
-0.000115643
2.44449e-05
-0.000122932
2.18661e-05
-0.000129388
1.93644e-05
-0.000135031
1.69376e-05
-0.000139902
1.45971e-05
-0.000144013
1.23456e-05
-0.000147411
1.01976e-05
-0.000150109
8.08965e-06
-0.000152134
6.07203e-06
-0.000153496
4.09142e-06
-0.000154211
2.15222e-06
-0.000154226
6.6627e-08
-0.00015355
-2.02823e-06
-0.00015212
-4.27223e-06
-0.000150047
-6.22438e-06
-0.000147194
-8.56577e-06
-0.000143603
-1.07767e-05
-0.000139302
-1.29016e-05
-0.000134133
-1.55231e-05
-0.000128156
-1.79337e-05
-0.000121385
-2.03208e-05
-0.000113631
-2.32628e-05
-0.000105017
-2.58481e-05
-9.53377e-05
-2.90414e-05
-8.47246e-05
-3.18655e-05
-7.32488e-05
-3.43948e-05
-6.06982e-05
-3.76726e-05
-4.7085e-05
-4.08305e-05
-3.26714e-05
-4.32391e-05
-1.71822e-05
-4.64618e-05
-6.8979e-07
-4.9441e-05
1.62393e-05
-5.0774e-05
3.39176e-05
-5.30056e-05
5.20618e-05
-5.44045e-05
7.06268e-05
-5.56576e-05
8.94907e-05
-5.65351e-05
0.000108185
-5.60305e-05
0.000126634
-5.52807e-05
0.000144636
-5.39424e-05
0.000161788
-5.13975e-05
0.000177985
-4.85292e-05
0.000192898
-4.46759e-05
0.000206371
-4.03702e-05
0.000218198
-3.54204e-05
0.000228044
-2.95023e-05
0.000235808
-2.32712e-05
0.000241485
-1.70032e-05
0.000244775
-9.86593e-06
0.00024574
-2.91677e-06
0.000244303
4.22293e-06
0.000240476
1.14815e-05
0.000234342
1.83971e-05
0.000225945
2.51967e-05
0.000215479
3.131e-05
0.000203087
3.71444e-05
0.000188927
4.2379e-05
0.00017333
4.67933e-05
0.000156516
5.04041e-05
0.000138738
5.32762e-05
0.000120183
5.5607e-05
0.000101159
5.70159e-05
8.19279e-05
5.76405e-05
6.26603e-05
5.77575e-05
4.36408e-05
5.7023e-05
2.50486e-05
5.57515e-05
6.94881e-06
5.42667e-05
-1.04361e-05
5.21532e-05
-2.70015e-05
4.96677e-05
-4.26226e-05
4.68478e-05
-5.72274e-05
4.38133e-05
-7.08247e-05
4.07726e-05
-8.32491e-05
3.7263e-05
-9.45708e-05
3.39749e-05
-0.000104793
3.06852e-05
-0.00011403
2.77178e-05
-0.000122316
2.48772e-05
-0.000129699
2.2164e-05
-0.000136231
1.95951e-05
-0.000141905
1.70158e-05
-0.000146743
1.45084e-05
-0.000150733
1.19635e-05
-0.000153915
9.53413e-06
-0.0001563
7.13923e-06
-0.00015788
4.72412e-06
-0.000158721
2.50766e-06
-0.0001588
2.28265e-07
-0.000158114
-2.06431e-06
-0.000156746
-4.11966e-06
-0.000154715
-6.12376e-06
-0.000151921
-8.41476e-06
-0.00014843
-1.05084e-05
-0.000144183
-1.27429e-05
-0.000139195
-1.50109e-05
-0.000133465
-1.71859e-05
-0.000126947
-1.95725e-05
-0.000119616
-2.19891e-05
-0.000111503
-2.43659e-05
-0.000102549
-2.68666e-05
-9.27902e-05
-2.92727e-05
-8.21949e-05
-3.17361e-05
-7.0858e-05
-3.40697e-05
-5.86759e-05
-3.65555e-05
-4.57204e-05
-3.8884e-05
-3.2024e-05
-4.10807e-05
-1.76219e-05
-4.3238e-05
-2.55324e-06
-4.51781e-05
1.31208e-05
-4.70233e-05
2.93169e-05
-4.858e-05
4.59693e-05
-4.9959e-05
6.29583e-05
-5.09484e-05
8.01496e-05
-5.15604e-05
9.74007e-05
-5.17706e-05
0.000114504
-5.12761e-05
0.000131267
-5.02747e-05
0.000147497
-4.86736e-05
0.000162889
-4.61268e-05
0.000177248
-4.30599e-05
0.000190315
-3.92091e-05
0.000201795
-3.43824e-05
0.000211512
-2.91478e-05
0.000219218
-2.31289e-05
0.000224772
-1.66477e-05
0.000228026
-9.73351e-06
0.000228923
-2.64047e-06
0.000227332
4.73283e-06
0.00022321
1.22714e-05
0.000216724
1.94474e-05
0.000207934
2.63799e-05
0.000196993
3.28458e-05
0.000183986
3.89361e-05
0.000169207
4.42861e-05
0.000152878
4.89625e-05
0.000135253
5.2847e-05
0.000116558
5.59571e-05
9.71984e-05
5.80519e-05
7.73996e-05
5.93743e-05
5.74679e-05
5.97795e-05
3.77015e-05
5.93294e-05
1.82575e-05
5.82366e-05
-6.36981e-07
5.66476e-05
-1.87309e-05
5.42768e-05
-3.59192e-05
5.15568e-05
-5.20843e-05
4.85156e-05
-6.7143e-05
4.51484e-05
-8.10668e-05
4.16901e-05
-9.37938e-05
3.8286e-05
-0.000105325
3.46617e-05
-0.000115803
3.13823e-05
-0.000125105
2.79218e-05
-0.000133376
2.47771e-05
-0.000140609
2.17549e-05
-0.000146885
1.88635e-05
-0.000152257
1.61418e-05
-0.000156793
1.35736e-05
-0.00016053
1.12708e-05
-0.000163514
8.96138e-06
-0.000165797
6.84886e-06
-0.000167406
4.82142e-06
-0.000168378
2.929e-06
-0.000168736
1.0846e-06
-0.000168484
-6.9673e-07
-0.000167711
-2.46739e-06
-0.000166349
-3.98913e-06
-0.000164396
-5.84536e-06
-0.000161856
-7.6295e-06
-0.000158634
-9.54334e-06
-0.000154917
-1.13065e-05
-0.000150495
-1.32282e-05
-0.000145445
-1.51486e-05
-0.000139729
-1.71395e-05
-0.000133325
-1.92356e-05
-0.000126333
-2.11288e-05
-0.000118556
-2.33153e-05
-0.000110024
-2.55753e-05
-0.000100701
-2.79749e-05
-9.05595e-05
-3.04171e-05
-7.96315e-05
-3.28321e-05
-6.78551e-05
-3.51463e-05
-5.54784e-05
-3.72952e-05
-4.22446e-05
-3.95578e-05
-2.84623e-05
-4.15797e-05
-1.39087e-05
-4.36095e-05
1.33614e-06
-4.56921e-05
1.71709e-05
-4.75392e-05
3.35777e-05
-4.92453e-05
5.0359e-05
-5.02937e-05
6.73634e-05
-5.09747e-05
8.43195e-05
-5.08394e-05
0.000100955
-4.9846e-05
0.000117064
-4.83028e-05
0.000132418
-4.60264e-05
0.000146765
-4.29328e-05
0.000159835
-3.92617e-05
0.00017149
-3.49051e-05
0.000181469
-2.99105e-05
0.000189535
-2.41438e-05
0.00019549
-1.78012e-05
0.00019915
-1.0879e-05
0.000200298
-3.48476e-06
0.000198913
4.14433e-06
0.000194995
1.17661e-05
0.00018858
1.92806e-05
0.00017977
2.63336e-05
0.000168787
3.29976e-05
0.000155821
3.88554e-05
0.00014115
4.39805e-05
0.000125061
4.8204e-05
0.000107893
5.14852e-05
8.99553e-05
5.38303e-05
7.14661e-05
5.53531e-05
5.2796e-05
5.59667e-05
3.41791e-05
5.58314e-05
1.58612e-05
5.49819e-05
-2.05368e-06
5.36246e-05
-1.93021e-05
5.17457e-05
-3.57906e-05
4.94521e-05
-5.1456e-05
4.69189e-05
-6.62053e-05
4.4325e-05
-8.00276e-05
4.14469e-05
-9.28636e-05
3.85237e-05
-0.000104698
3.54909e-05
-0.000115484
3.23758e-05
-0.000125313
2.94863e-05
-0.000134167
2.65764e-05
-0.000142214
2.41166e-05
-0.000149424
2.16343e-05
-0.000155866
1.93539e-05
-0.000161599
1.72389e-05
-0.000166658
1.51055e-05
-0.000170988
1.30091e-05
-0.000174581
1.0864e-05
-0.000177604
8.99889e-06
-0.000179918
6.95829e-06
-0.000181657
5.2442e-06
-0.000182845
3.59005e-06
-0.000183549
2.13518e-06
-0.000183742
6.09635e-07
-0.000183411
-9.09787e-07
-0.000182585
-2.54243e-06
-0.000181148
-4.28788e-06
-0.000179077
-6.19762e-06
-0.000176311
-8.27052e-06
-0.000172838
-1.03998e-05
-0.000168626
-1.26092e-05
-0.000163645
-1.49285e-05
-0.000157875
-1.73422e-05
-0.000151389
-1.93742e-05
-0.000144096
-2.18773e-05
-0.000135991
-2.42935e-05
-0.000127047
-2.68242e-05
-0.000117197
-2.95473e-05
-0.000106469
-3.21689e-05
-9.47809e-05
-3.50187e-05
-8.22356e-05
-3.76544e-05
-6.88686e-05
-4.00862e-05
-5.45329e-05
-4.30635e-05
-3.9497e-05
-4.5015e-05
-2.37736e-05
-4.71688e-05
-7.3311e-06
-4.93216e-05
9.77301e-06
-5.13036e-05
2.74926e-05
-5.31473e-05
4.58e-05
-5.49104e-05
6.44822e-05
-5.60219e-05
8.3468e-05
-5.69137e-05
0.000102491
-5.70081e-05
0.000121106
-5.57512e-05
0.00013895
-5.34221e-05
0.000155534
-4.96303e-05
0.000170255
-4.4052e-05
0.000182899
-3.78156e-05
0.000193026
-3.02963e-05
0.000200513
-2.23998e-05
0.000205117
-1.37477e-05
0.000206576
-4.40219e-06
0.000205468
3.23494e-06
0.000201666
1.13852e-05
0.000195034
1.98676e-05
0.000185856
2.74843e-05
0.000174241
3.47744e-05
0.000160445
4.13322e-05
0.000144925
4.6492e-05
0.000127908
5.09791e-05
0.000109897
5.39642e-05
9.11018e-05
5.63226e-05
7.18401e-05
5.7722e-05
5.25319e-05
5.7871e-05
3.32683e-05
5.77141e-05
1.43377e-05
5.67857e-05
-3.96002e-06
5.4863e-05
-2.15459e-05
5.27377e-05
-3.82526e-05
5.0106e-05
-5.4076e-05
4.74617e-05
-6.89376e-05
4.45814e-05
-8.27705e-05
4.15007e-05
-9.56051e-05
3.85121e-05
-0.000107423
3.54583e-05
-0.000118218
3.23906e-05
-0.000128033
2.94454e-05
-0.000136872
2.65225e-05
-0.000144782
2.37425e-05
-0.000151785
2.1019e-05
-0.000157907
1.83719e-05
-0.000163186
1.58355e-05
-0.000167637
1.33556e-05
-0.000171298
1.09821e-05
-0.000174185
8.6644e-06
-0.000176324
6.40942e-06
-0.000177709
4.13635e-06
-0.000178368
1.96799e-06
-0.000178333
-1.18994e-07
-0.000177551
-2.35034e-06
-0.00017611
-4.32508e-06
-0.000173839
-6.80898e-06
-0.000170851
-8.96429e-06
-0.000167205
-1.09431e-05
-0.000162699
-1.35207e-05
-0.000157481
-1.56606e-05
-0.000151311
-1.8512e-05
-0.000144327
-2.0981e-05
-0.000136591
-2.32088e-05
-0.000127813
-2.63412e-05
-0.000118179
-2.8899e-05
-0.000107726
-3.13455e-05
-9.61464e-05
-3.47355e-05
-8.37672e-05
-3.71434e-05
-7.0211e-05
-4.06635e-05
-5.58486e-05
-4.30732e-05
-4.06567e-05
-4.55665e-05
-2.44448e-05
-4.8622e-05
-7.36362e-06
-5.12281e-05
1.03505e-05
-5.31309e-05
2.87675e-05
-5.52374e-05
4.75637e-05
-5.63646e-05
6.67217e-05
-5.74368e-05
8.58537e-05
-5.73499e-05
0.000104594
-5.61733e-05
0.000122924
-5.49274e-05
0.000140501
-5.2648e-05
-5.02683e-05
0.00014961
6.68327e-05
0.000132381
6.87948e-05
0.000114547
7.12189e-05
9.62874e-05
7.29262e-05
7.80329e-05
7.2909e-05
5.97735e-05
7.29507e-05
4.18178e-05
7.16892e-05
2.42563e-05
7.01138e-05
7.27227e-06
6.78721e-05
-9.07554e-06
6.53948e-05
-2.46303e-05
6.21877e-05
-3.93132e-05
5.86979e-05
-5.30613e-05
5.49734e-05
-6.58662e-05
5.1209e-05
-7.77142e-05
4.73764e-05
-8.86192e-05
4.36212e-05
-9.85799e-05
3.98573e-05
-0.000107615
3.61446e-05
-0.000115764
3.2594e-05
-0.000123053
2.91546e-05
-0.00012951
2.58211e-05
-0.000135148
2.25759e-05
-0.000140022
1.94713e-05
-0.00014413
1.64537e-05
-0.000147523
1.35903e-05
-0.000150222
1.0789e-05
-0.00015225
8.09969e-06
-0.000153612
5.45384e-06
-0.000154317
2.85688e-06
-0.000154318
6.75757e-08
-0.000153623
-2.72325e-06
-0.000152202
-5.69342e-06
-0.00015013
-8.29678e-06
-0.00014728
-1.14148e-05
-0.000143691
-1.43663e-05
-0.000139394
-1.71987e-05
-0.000134229
-2.06883e-05
-0.000128256
-2.39067e-05
-0.00012149
-2.70867e-05
-0.000113739
-3.10138e-05
-0.000105127
-3.44595e-05
-9.54517e-05
-3.87171e-05
-8.48609e-05
-4.24563e-05
-7.336e-05
-4.58958e-05
-6.08209e-05
-5.02117e-05
-4.72025e-05
-5.4449e-05
-3.27879e-05
-5.76538e-05
-1.72962e-05
-6.19535e-05
-7.80717e-07
-6.59565e-05
1.61551e-05
-6.77099e-05
3.38493e-05
-7.06999e-05
5.20091e-05
-7.25645e-05
7.05958e-05
-7.42443e-05
8.94907e-05
-7.54301e-05
0.000108214
-7.47539e-05
0.000126704
-7.37708e-05
0.000144743
-7.19812e-05
0.000161928
-6.85824e-05
0.000178164
-6.47658e-05
0.000193111
-5.96226e-05
0.000206614
-5.38736e-05
0.000218455
-4.72618e-05
0.000228337
-3.93842e-05
0.000236109
-3.10429e-05
0.000241799
-2.26929e-05
0.00024509
-1.31575e-05
0.000246047
-3.87378e-06
0.000244566
5.70447e-06
0.000240735
1.53115e-05
0.000234595
2.45376e-05
0.000226189
3.36024e-05
0.00021567
4.1829e-05
0.000203273
4.95415e-05
0.000189099
5.65527e-05
0.000173505
6.23879e-05
0.000156631
6.72778e-05
0.000138822
7.10854e-05
0.000120231
7.41974e-05
0.000101177
7.60701e-05
8.19174e-05
7.69003e-05
6.26229e-05
7.70521e-05
4.35787e-05
7.60672e-05
2.49685e-05
7.43616e-05
6.84924e-06
7.2386e-05
-1.05407e-05
6.95432e-05
-2.71271e-05
6.62542e-05
-4.27653e-05
6.2486e-05
-5.73913e-05
5.84393e-05
-7.09912e-05
5.43725e-05
-8.3425e-05
4.96967e-05
-9.47463e-05
4.52963e-05
-0.000104962
4.09011e-05
-0.000114207
3.69623e-05
-0.000122488
3.31584e-05
-0.000129885
2.95606e-05
-0.000136416
2.61262e-05
-0.0001421
2.26998e-05
-0.000146952
1.9361e-05
-0.000150958
1.59689e-05
-0.000154147
1.27234e-05
-0.000156545
9.53724e-06
-0.000158132
6.31115e-06