/*--------------------------------*- C++ -*----------------------------------*\
| =========                 |                                                 |
| \\      /  F ield         | OpenFOAM: The Open Source CFD Toolbox           |
|  \\    /   O peration     | Version:  3.0.1                                 |
|   \\  /    A nd           | Web:      www.OpenFOAM.org                      |
|    \\/     M anipulation  |                                                 |
\*---------------------------------------------------------------------------*/
FoamFile
{
    version     2.0;
    format      ascii;
    class       surfaceScalarField;
    location    "50.4";
    object      phi;
}
// * * * * * * * * * * * * * * * * * * * * * * * * * * * * * * * * * * * * * //

dimensions      [0 3 -1 0 0 0 0];

internalField   nonuniform List<scalar> 
42423
(
0.00011567
1.73987e-05
9.79662e-05
1.77039e-05
7.98121e-05
1.81541e-05
6.13765e-05
1.84357e-05
4.30882e-05
1.82882e-05
2.49069e-05
1.81813e-05
7.10688e-06
1.78e-05
-1.01037e-05
1.72105e-05
-2.66257e-05
1.6522e-05
-4.23014e-05
1.56757e-05
-5.70977e-05
1.47962e-05
-7.09267e-05
1.3829e-05
-8.37489e-05
1.28222e-05
-9.55714e-05
1.18225e-05
-0.000106394
1.08225e-05
-0.000116238
9.84444e-06
-0.000125105
8.86691e-06
-0.00013303
7.9251e-06
-0.000140045
7.0143e-06
-0.000146188
6.14287e-06
-0.000151483
5.29582e-06
-0.000155966
4.48309e-06
-0.000159669
3.70272e-06
-0.000162618
2.94869e-06
-0.000164852
2.23423e-06
-0.000166391
1.53871e-06
-0.000167272
8.81543e-07
-0.000167509
2.37025e-07
-0.000167006
-5.03107e-07
-0.000165815
-1.19136e-06
-0.00016394
-1.87507e-06
-0.000161299
-2.64046e-06
-0.000157988
-3.3116e-06
-0.000153891
-4.09717e-06
-0.000149059
-4.83177e-06
-0.000143512
-5.54709e-06
-0.000136968
-6.54371e-06
-0.000129649
-7.31885e-06
-0.000121491
-8.15885e-06
-0.000112354
-9.13619e-06
-0.000102345
-1.00092e-05
-9.1143e-05
-1.12023e-05
-7.90689e-05
-1.20741e-05
-6.61889e-05
-1.28801e-05
-5.21038e-05
-1.40851e-05
-3.71615e-05
-1.49424e-05
-2.15181e-05
-1.56434e-05
-4.97709e-06
-1.65411e-05
1.24916e-05
-1.74687e-05
3.03045e-05
-1.7813e-05
4.86066e-05
-1.83022e-05
6.71222e-05
-1.85156e-05
8.57611e-05
-1.8639e-05
0.000104337
-1.85756e-05
0.000122383
-1.80463e-05
0.000139832
-1.74488e-05
0.000156492
-1.66601e-05
0.000171916
-1.54245e-05
0.000186055
-1.41385e-05
0.00019863
-1.2575e-05
0.000209467
-1.0838e-05
0.000218403
-8.93567e-06
0.000225168
-6.7649e-06
0.000229749
-4.5809e-06
0.000232037
-2.28819e-06
0.000231868
1.68795e-07
0.000229336
2.53209e-06
0.000224425
4.91068e-06
0.000217297
7.12857e-06
0.000208036
9.26112e-06
0.000196699
1.13369e-05
0.000183655
1.30437e-05
0.000168989
1.46662e-05
0.000152956
1.60324e-05
0.000135943
1.70133e-05
0.000118023
1.79193e-05
9.95498e-05
1.84736e-05
8.07284e-05
1.88214e-05
6.19201e-05
1.88083e-05
4.3124e-05
1.87961e-05
2.45885e-05
1.85354e-05
6.62924e-06
1.79593e-05
-1.06689e-05
1.72981e-05
-2.72185e-05
1.65496e-05
-4.29415e-05
1.5723e-05
-5.77357e-05
1.47942e-05
-7.15226e-05
1.37869e-05
-8.43042e-05
1.27816e-05
-9.60806e-05
1.17764e-05
-0.000106798
1.07179e-05
-0.000116517
9.71813e-06
-0.000125237
8.72054e-06
-0.000132983
7.74547e-06
-0.000139765
6.78199e-06
-0.000145601
5.83644e-06
-0.000150472
4.87074e-06
-0.000154481
4.00914e-06
-0.000157618
3.13672e-06
-0.00015993
2.31234e-06
-0.00016152
1.5899e-06
-0.00016236
8.39697e-07
-0.000162532
1.7188e-07
-0.000162011
-5.21015e-07
-0.000160839
-1.17109e-06
-0.000159049
-1.7902e-06
-0.000156611
-2.43821e-06
-0.000153567
-3.04398e-06
-0.000149888
-3.67917e-06
-0.000145549
-4.33924e-06
-0.000140504
-5.04516e-06
-0.000134854
-5.6499e-06
-0.00012846
-6.3933e-06
-0.00012132
-7.14028e-06
-0.000113401
-7.91926e-06
-0.000104722
-8.67936e-06
-9.52984e-05
-9.42317e-06
-8.50722e-05
-1.02263e-05
-7.40447e-05
-1.10275e-05
-6.22358e-05
-1.18089e-05
-4.96435e-05
-1.25923e-05
-3.63149e-05
-1.33287e-05
-2.22613e-05
-1.40536e-05
-7.5248e-06
-1.47366e-05
7.83837e-06
-1.53632e-05
2.37683e-05
-1.593e-05
4.01535e-05
-1.63853e-05
5.69155e-05
-1.67622e-05
7.38501e-05
-1.69346e-05
9.08465e-05
-1.69966e-05
0.000107669
-1.68221e-05
0.000124154
-1.64852e-05
0.000140039
-1.58851e-05
0.000155083
-1.50444e-05
0.000169027
-1.39442e-05
0.000181604
-1.25766e-05
0.000192581
-1.0977e-05
0.000201665
-9.08396e-06
0.000208714
-7.04947e-06
0.000213493
-4.77937e-06
0.000215901
-2.4076e-06
0.000215912
-1.1166e-08
0.000213458
2.45368e-06
0.000208463
4.99488e-06
0.000201076
7.38711e-06
0.000191405
9.67141e-06
0.000179634
1.17707e-05
0.000166004
1.36294e-05
0.000150732
1.52723e-05
0.000134109
1.66231e-05
0.000116447
1.76614e-05
9.79936e-05
1.84538e-05
7.90724e-05
1.89212e-05
5.9965e-05
1.91073e-05
4.09337e-05
1.90313e-05
2.21662e-05
1.87674e-05
3.92569e-06
1.82405e-05
-1.36237e-05
1.75493e-05
-3.03362e-05
1.67126e-05
-4.61167e-05
1.57805e-05
-6.09301e-05
1.48134e-05
-7.46737e-05
1.37436e-05
-8.73709e-05
1.26971e-05
-9.89576e-05
1.15867e-05
-0.000109487
1.05294e-05
-0.000118988
9.50103e-06
-0.000127483
8.49524e-06
-0.000135101
7.61784e-06
-0.000141735
6.63386e-06
-0.000147525
5.7905e-06
-0.000152494
4.96809e-06
-0.000156701
4.20781e-06
-0.000160193
3.49167e-06
-0.000163011
2.81798e-06
-0.000165188
2.17646e-06
-0.00016676
1.57289e-06
-0.000167758
9.98007e-07
-0.000168238
4.79801e-07
-0.00016818
-5.86046e-08
-0.00016767
-5.09876e-07
-0.000166735
-9.34271e-07
-0.000165325
-1.41073e-06
-0.000163446
-1.87885e-06
-0.000161047
-2.39937e-06
-0.00015811
-2.93616e-06
-0.000154505
-3.60586e-06
-0.000150142
-4.36212e-06
-0.000145022
-5.12086e-06
-0.000139096
-5.92553e-06
-0.000132372
-6.7243e-06
-0.000124975
-7.39713e-06
-0.000116785
-8.18944e-06
-0.000107865
-8.91992e-06
-9.81542e-05
-9.71127e-06
-8.76058e-05
-1.05484e-05
-7.61972e-05
-1.14087e-05
-6.38901e-05
-1.23071e-05
-5.07413e-05
-1.31488e-05
-3.68236e-05
-1.39177e-05
-2.20665e-05
-1.47572e-05
-6.56994e-06
-1.54966e-05
9.52516e-06
-1.60952e-05
2.60958e-05
-1.65707e-05
4.29257e-05
-1.68299e-05
5.98641e-05
-1.69385e-05
7.66752e-05
-1.68112e-05
9.31714e-05
-1.64963e-05
0.000109121
-1.59492e-05
0.000124327
-1.52065e-05
0.00013855
-1.42227e-05
0.000151612
-1.30622e-05
0.00016318
-1.1568e-05
0.000173079
-9.89967e-06
0.000181042
-7.96227e-06
0.000186896
-5.85446e-06
0.000190457
-3.56147e-06
0.000191648
-1.19042e-06
0.000190482
1.16601e-06
0.000186846
3.636e-06
0.000180822
6.02378e-06
0.000172576
8.24548e-06
0.000162265
1.03113e-05
0.000150081
1.2184e-05
0.000136269
1.38121e-05
0.000121082
1.51867e-05
0.000104789
1.62932e-05
8.76873e-05
1.71014e-05
7.00545e-05
1.76328e-05
5.21668e-05
1.78877e-05
3.42893e-05
1.78775e-05
1.65582e-05
1.77311e-05
-7.29692e-07
1.72878e-05
-1.74864e-05
1.67567e-05
-3.35897e-05
1.61032e-05
-4.88957e-05
1.5306e-05
-6.3343e-05
1.44472e-05
-7.68548e-05
1.35118e-05
-8.9412e-05
1.25572e-05
-0.000100975
1.15631e-05
-0.000111581
1.0606e-05
-0.000121239
9.65745e-06
-0.000129954
8.71517e-06
-0.000137752
7.79782e-06
-0.000144682
6.93016e-06
-0.000150802
6.1204e-06
-0.00015614
5.33799e-06
-0.00016074
4.59959e-06
-0.000164637
3.89754e-06
-0.000167899
3.26211e-06
-0.000170552
2.65262e-06
-0.000172627
2.07502e-06
-0.000174134
1.50723e-06
-0.000175112
9.77434e-07
-0.000175546
4.34468e-07
-0.000175445
-1.01741e-07
-0.000174837
-6.07546e-07
-0.000173749
-1.08765e-06
-0.00017216
-1.58889e-06
-0.000170042
-2.11818e-06
-0.000167422
-2.62062e-06
-0.000164274
-3.14773e-06
-0.000160567
-3.70674e-06
-0.000156301
-4.26633e-06
-0.000151405
-4.8955e-06
-0.000145861
-5.54413e-06
-0.000139626
-6.2352e-06
-0.000132705
-6.92103e-06
-0.000125007
-7.69816e-06
-0.000116562
-8.44476e-06
-0.000107279
-9.28279e-06
-9.71949e-05
-1.00845e-05
-8.63137e-05
-1.08813e-05
-7.45437e-05
-1.177e-05
-6.19437e-05
-1.26001e-05
-4.84772e-05
-1.34666e-05
-3.42074e-05
-1.42698e-05
-1.91217e-05
-1.50857e-05
-3.22647e-06
-1.58953e-05
1.35247e-05
-1.67513e-05
3.07781e-05
-1.72534e-05
4.86267e-05
-1.78487e-05
6.67577e-05
-1.81311e-05
8.51637e-05
-1.8406e-05
0.000103369
-1.82052e-05
0.000121114
-1.77447e-05
0.000138144
-1.70307e-05
0.000153955
-1.58108e-05
0.000168247
-1.42917e-05
0.000180693
-1.2447e-05
0.000190907
-1.02139e-05
0.000198751
-7.84388e-06
0.000204019
-5.26801e-06
0.000206449
-2.43035e-06
0.000206135
3.14593e-07
0.00020305
3.08434e-06
0.000197206
5.84418e-06
0.000188936
8.27013e-06
0.000178469
1.04671e-05
0.000166016
1.24525e-05
0.000152038
1.39782e-05
0.000136709
1.53287e-05
0.000120362
1.63476e-05
0.000103351
1.70109e-05
8.59991e-05
1.73516e-05
6.84794e-05
1.75197e-05
5.10704e-05
1.7409e-05
3.3913e-05
1.71574e-05
1.72852e-05
1.66278e-05
1.30515e-06
1.598e-05
-1.39466e-05
1.52518e-05
-2.83643e-05
1.44176e-05
-4.18826e-05
1.35183e-05
-5.44769e-05
1.25943e-05
-6.61786e-05
1.17016e-05
-7.70098e-05
1.08312e-05
-8.70046e-05
9.99483e-06
-9.624e-05
9.23536e-06
-0.000104764
8.52357e-06
-0.000112647
7.8835e-06
-0.000119945
7.29756e-06
-0.000126679
6.73467e-06
-0.000132874
6.19427e-06
-0.000138541
5.66758e-06
-0.000143659
5.11754e-06
-0.000148247
4.58836e-06
-0.000152264
4.01672e-06
-0.000155699
3.43487e-06
-0.0001585
2.80109e-06
-0.000160649
2.14885e-06
-0.00016211
1.46127e-06
-0.000162867
7.56835e-07
-0.0001628
-6.69094e-08
-0.000161871
-9.28855e-07
-0.000160097
-1.77435e-06
-0.000157409
-2.6872e-06
-0.000153845
-3.56462e-06
-0.000149299
-4.54557e-06
-0.00014385
-5.44903e-06
-0.000137488
-6.3625e-06
-0.000130085
-7.40314e-06
-0.00012183
-8.25413e-06
-0.000112657
-9.17349e-06
-0.000102495
-1.01619e-05
-9.14828e-05
-1.10123e-05
-7.95051e-05
-1.19777e-05
-6.68049e-05
-1.27002e-05
-5.34245e-05
-1.33804e-05
-3.92814e-05
-1.41432e-05
-2.44358e-05
-1.48456e-05
-9.05991e-06
-1.53759e-05
6.93521e-06
-1.59951e-05
2.31348e-05
-1.61996e-05
3.95951e-05
-1.64603e-05
5.60341e-05
-1.6439e-05
7.22323e-05
-1.61982e-05
8.8201e-05
-1.59688e-05
0.000103668
-1.54667e-05
-1.49312e-05
0.000115693
3.48046e-05
9.79816e-05
3.54151e-05
7.98195e-05
3.63161e-05
6.13759e-05
3.68793e-05
4.30796e-05
3.65845e-05
2.48909e-05
3.63701e-05
7.08036e-06
3.56105e-05
-1.01295e-05
3.44204e-05
-2.66566e-05
3.30491e-05
-4.23383e-05
3.13575e-05
-5.71406e-05
2.95985e-05
-7.09731e-05
2.76614e-05
-8.37946e-05
2.56438e-05
-9.56173e-05
2.36452e-05
-0.000106441
2.16457e-05
-0.000116287
1.96914e-05
-0.000125154
1.77333e-05
-0.000133078
1.58494e-05
-0.000140092
1.40282e-05
-0.000146244
1.22944e-05
-0.000151542
1.05945e-05
-0.000156017
8.95727e-06
-0.000159715
7.40087e-06
-0.000162664
5.89791e-06
-0.000164898
4.46842e-06
-0.000166439
3.07918e-06
-0.00016732
1.76255e-06
-0.000167554
4.71048e-07
-0.000167049
-1.00764e-06
-0.000165862
-2.37836e-06
-0.000163988
-3.74978e-06
-0.000161348
-5.27967e-06
-0.000158037
-6.62328e-06
-0.00015394
-8.19368e-06
-0.000149108
-9.66428e-06
-0.000143568
-1.10867e-05
-0.000137021
-1.30907e-05
-0.000129703
-1.46371e-05
-0.000121547
-1.63144e-05
-0.000112409
-1.82746e-05
-0.000102399
-2.00195e-05
-9.11951e-05
-2.24059e-05
-7.91181e-05
-2.41512e-05
-6.62338e-05
-2.57645e-05
-5.21601e-05
-2.81589e-05
-3.72222e-05
-2.98802e-05
-2.15604e-05
-3.13053e-05
-5.02126e-06
-3.30803e-05
1.24645e-05
-3.49545e-05
3.02817e-05
-3.56303e-05
4.85941e-05
-3.66146e-05
6.71194e-05
-3.70411e-05
8.57682e-05
-3.72879e-05
0.000104354
-3.71611e-05
0.000122412
-3.61049e-05
0.000139877
-3.49136e-05
0.000156547
-3.33307e-05
0.000171984
-3.08608e-05
0.000186132
-2.82872e-05
0.000198709
-2.51516e-05
0.000209554
-2.16835e-05
0.000218506
-1.78879e-05
0.000225273
-1.35315e-05
0.00022985
-9.15841e-06
0.000232155
-4.59338e-06
0.000231992
3.32536e-07
0.000229456
5.0677e-06
0.000224544
9.82246e-06
0.000217412
1.42605e-05
0.000208137
1.85355e-05
0.000196793
2.26812e-05
0.00018374
2.60968e-05
0.00016906
2.93464e-05
0.000153018
3.20737e-05
0.000135992
3.40398e-05
0.000118053
3.58583e-05
9.957e-05
3.69564e-05
8.07432e-05
3.76482e-05
6.19236e-05
3.76278e-05
4.31229e-05
3.75969e-05
2.45694e-05
3.70889e-05
6.60089e-06
3.59277e-05
-1.07056e-05
3.46046e-05
-2.72647e-05
3.31086e-05
-4.29939e-05
3.14522e-05
-5.77938e-05
2.95942e-05
-7.15777e-05
2.75707e-05
-8.43585e-05
2.55624e-05
-9.61417e-05
2.35596e-05
-0.000106871
2.14473e-05
-0.000116596
1.94432e-05
-0.000125316
1.744e-05
-0.000133066
1.54959e-05
-0.000139839
1.35553e-05
-0.0001457
1.16968e-05
-0.000150578
9.74899e-06
-0.000154589
8.01986e-06
-0.000157723
6.27085e-06
-0.00016003
4.61957e-06
-0.000161625
3.18478e-06
-0.000162458
1.67289e-06
-0.000162632
3.45929e-07
-0.000162111
-1.04221e-06
-0.000160941
-2.3408e-06
-0.000159149
-3.58242e-06
-0.000156708
-4.8795e-06
-0.000153668
-6.08446e-06
-0.000149981
-7.36568e-06
-0.000145642
-8.67841e-06
-0.000140585
-1.01023e-05
-0.000134913
-1.1322e-05
-0.000128538
-1.27685e-05
-0.000121397
-1.42813e-05
-0.000113477
-1.58389e-05
-0.000104775
-1.7381e-05
-9.5369e-05
-1.88296e-05
-8.51457e-05
-2.04496e-05
-7.41215e-05
-2.20518e-05
-6.23128e-05
-2.36178e-05
-4.97173e-05
-2.51879e-05
-3.63818e-05
-2.66644e-05
-2.23246e-05
-2.81109e-05
-7.58377e-06
-2.94775e-05
7.78123e-06
-3.07283e-05
2.37171e-05
-3.18659e-05
4.01034e-05
-3.27718e-05
5.68742e-05
-3.35331e-05
7.38081e-05
-3.38686e-05
9.08181e-05
-3.40067e-05
0.00010765
-3.3654e-05
0.000124138
-3.29736e-05
0.000140027
-3.17736e-05
0.000155085
-3.01027e-05
0.000169035
-2.78949e-05
0.000181617
-2.51583e-05
0.000192601
-2.19615e-05
0.00020173
-1.82129e-05
0.000208754
-1.40738e-05
0.00021354
-9.56494e-06
0.000215959
-4.82754e-06
0.000215962
-1.38103e-08
0.00021349
4.92556e-06
0.000208475
1.001e-05
0.000201089
1.47733e-05
0.000191418
1.93421e-05
0.000179645
2.35437e-05
0.000165999
2.72752e-05
0.00015073
3.05409e-05
0.000134072
3.32806e-05
0.0001164
3.53334e-05
9.79494e-05
3.69047e-05
7.89922e-05
3.78783e-05
5.987e-05
3.82295e-05
4.08142e-05
3.80871e-05
2.20686e-05
3.7513e-05
3.82056e-06
3.64886e-05
-1.37461e-05
3.5116e-05
-3.04577e-05
3.34241e-05
-4.62665e-05
3.15892e-05
-6.10651e-05
2.96119e-05
-7.48041e-05
2.74826e-05
-8.74952e-05
2.53883e-05
-9.90834e-05
2.31749e-05
-0.000109617
2.10633e-05
-0.000119118
1.90015e-05
-0.000127606
1.69837e-05
-0.000135224
1.52352e-05
-0.000141858
1.32678e-05
-0.000147645
1.15774e-05
-0.000152608
9.93161e-06
-0.000156813
8.41245e-06
-0.000160304
6.98254e-06
-0.000163119
5.63376e-06
-0.00016528
4.33666e-06
-0.000166857
3.15045e-06
-0.000167855
1.9957e-06
-0.000168329
9.54342e-07
-0.000168262
-1.26122e-07
-0.000167788
-9.83926e-07
-0.000166822
-1.89972e-06
-0.000165405
-2.82773e-06
-0.000163533
-3.75141e-06
-0.000161133
-4.79891e-06
-0.000158194
-5.87507e-06
-0.000154589
-7.21113e-06
-0.000150221
-8.7303e-06
-0.0001451
-1.02421e-05
-0.000139172
-1.18535e-05
-0.00013246
-1.34361e-05
-0.000125053
-1.48046e-05
-0.000116865
-1.6377e-05
-0.000107946
-1.78386e-05
-9.82366e-05
-1.94212e-05
-8.76907e-05
-2.10944e-05
-7.6291e-05
-2.28085e-05
-6.39964e-05
-2.46018e-05
-5.08272e-05
-2.63181e-05
-3.69083e-05
-2.78367e-05
-2.21449e-05
-2.95207e-05
-6.63748e-06
-3.10042e-05
9.46139e-06
-3.21941e-05
2.60409e-05
-3.31503e-05
4.2883e-05
-3.36721e-05
5.98229e-05
-3.38786e-05
7.66361e-05
-3.36244e-05
9.31397e-05
-3.30001e-05
0.0001091
-3.19096e-05
0.00012431
-3.04167e-05
0.000138541
-2.84538e-05
0.000151597
-2.61188e-05
0.000163186
-2.31565e-05
0.000173111
-1.9825e-05
0.00018107
-1.59212e-05
0.000186926
-1.17112e-05
0.000190491
-7.12619e-06
0.000191682
-2.38163e-06
0.000190499
2.34887e-06
0.000186865
7.27057e-06
0.000180836
1.20519e-05
0.000172585
1.6497e-05
0.000162267
2.06287e-05
0.000150071
2.43804e-05
0.000136247
2.76359e-05
0.000121042
3.0391e-05
0.000104743
3.25925e-05
8.7629e-05
3.42155e-05
6.99881e-05
3.52736e-05
5.20882e-05
3.57875e-05
3.41711e-05
3.57945e-05
1.64507e-05
3.54515e-05
-8.50346e-07
3.45888e-05
-1.75955e-05
3.35019e-05
-3.36967e-05
3.22043e-05
-4.90069e-05
3.06162e-05
-6.3459e-05
2.88993e-05
-7.69696e-05
2.70224e-05
-8.95317e-05
2.51193e-05
-0.000101102
2.31329e-05
-0.000111711
2.12154e-05
-0.000121351
1.92973e-05
-0.00013007
1.74349e-05
-0.000137873
1.56005e-05
-0.000144794
1.38515e-05
-0.000150911
1.22371e-05
-0.00015625
1.06765e-05
-0.000160845
9.19487e-06
-0.00016474
7.7928e-06
-0.000168004
6.52563e-06
-0.000170648
5.29673e-06
-0.000172718
4.14495e-06
-0.000174226
3.01532e-06
-0.000175201
1.95272e-06
-0.00017563
8.63563e-07
-0.000175534
-1.98669e-07
-0.000174943
-1.19839e-06
-0.00017384
-2.19051e-06
-0.000172248
-3.18076e-06
-0.000170127
-4.23902e-06
-0.000167511
-5.23657e-06
-0.000164363
-6.29595e-06
-0.000160661
-7.40901e-06
-0.000156394
-8.53354e-06
-0.000151501
-9.78803e-06
-0.000145952
-1.10932e-05
-0.000139711
-1.24759e-05
-0.000132802
-1.38303e-05
-0.000125094
-1.54061e-05
-0.000116653
-1.68862e-05
-0.000107365
-1.85708e-05
-9.72746e-05
-2.01748e-05
-8.63876e-05
-2.17684e-05
-7.46117e-05
-2.35459e-05
-6.20064e-05
-2.52054e-05
-4.85363e-05
-2.69368e-05
-3.426e-05
-2.85462e-05
-1.91645e-05
-3.01812e-05
-3.25418e-06
-3.18057e-05
1.34923e-05
-3.34978e-05
3.07478e-05
-3.4509e-05
4.86079e-05
-3.57089e-05
6.67497e-05
-3.6273e-05
8.51671e-05
-3.68235e-05
0.00010339
-3.64279e-05
0.000121164
-3.55191e-05
0.000138202
-3.40686e-05
0.000154033
-3.16425e-05
0.000168346
-2.86047e-05
0.000180809
-2.49096e-05
0.000191031
-2.04359e-05
0.000198886
-1.56996e-05
0.00020416
-1.05415e-05
0.000206603
-4.87374e-06
0.000206281
6.36395e-07
0.000203183
6.18273e-06
0.000197335
1.16914e-05
0.000189056
1.65492e-05
0.000178572
2.09509e-05
0.000166107
2.49178e-05
0.000152117
2.79682e-05
0.000136774
3.06714e-05
0.000120409
3.2713e-05
0.000103385
3.40343e-05
8.60241e-05
3.47127e-05
6.84903e-05
3.50535e-05
5.10725e-05
3.48267e-05
3.39048e-05
3.43251e-05
1.72682e-05
3.32643e-05
1.2814e-06
3.19668e-05
-1.39755e-05
3.05086e-05
-2.83962e-05
2.88384e-05
-4.19184e-05
2.70405e-05
-5.4515e-05
2.51909e-05
-6.62157e-05
2.34023e-05
-7.70459e-05
2.16614e-05
-8.70406e-05
1.99895e-05
-9.62754e-05
1.84702e-05
-0.000104799
1.70475e-05
-0.000112683
1.57674e-05
-0.00011998
1.45944e-05
-0.000126714
1.34686e-05
-0.00013291
1.23898e-05
-0.000138581
1.1339e-05
-0.000143702
1.02382e-05
-0.000148292
9.1787e-06
-0.000152308
8.03312e-06
-0.000155741
6.86754e-06
-0.000158545
5.60507e-06
-0.000160701
4.30467e-06
-0.000162168
2.92854e-06
-0.000162921
1.50946e-06
-0.000162851
-1.36696e-07
-0.000161923
-1.85702e-06
-0.00016015
-3.54774e-06
-0.000157462
-5.37504e-06
-0.000153895
-7.13133e-06
-0.000149359
-9.0818e-06
-0.000143909
-1.08988e-05
-0.000137543
-1.27286e-05
-0.000130135
-1.4811e-05
-0.00012188
-1.65088e-05
-0.000112707
-1.83472e-05
-0.000102541
-2.03274e-05
-9.15285e-05
-2.20251e-05
-7.95435e-05
-2.39627e-05
-6.68441e-05
-2.53996e-05
-5.34568e-05
-2.67678e-05
-3.93008e-05
-2.82992e-05
-2.4456e-05
-2.96905e-05
-9.08055e-06
-3.07514e-05
6.91817e-06
-3.19939e-05
2.31193e-05
-3.24008e-05
3.95852e-05
-3.29263e-05
5.60324e-05
-3.28862e-05
7.22384e-05
-3.24043e-05
8.82156e-05
-3.1946e-05
0.000103692
-3.09432e-05
-2.98705e-05
0.000115736
5.22279e-05
9.80078e-05
5.3143e-05
7.98288e-05
5.44951e-05
6.13694e-05
5.53387e-05
4.30576e-05
5.48962e-05
2.48557e-05
5.4572e-05
7.02704e-06
5.34392e-05
-1.01882e-05
5.16357e-05
-2.6726e-05
4.95868e-05
-4.24154e-05
4.70468e-05
-5.72218e-05
4.44049e-05
-7.10576e-05
4.14973e-05
-8.38837e-05
3.84698e-05
-9.57084e-05
3.54699e-05
-0.000106533
3.24701e-05
-0.000116377
2.95359e-05
-0.000125242
2.65974e-05
-0.000133166
2.37734e-05
-0.000140179
2.10415e-05
-0.000146328
1.84435e-05
-0.000151617
1.58841e-05
-0.000156097
1.34365e-05
-0.000159799
1.11032e-05
-0.00016275
8.8488e-06
-0.000164983
6.70138e-06
-0.000166518
4.61382e-06
-0.000167385
2.63026e-06
-0.000167609
6.94379e-07
-0.0001671
-1.51576e-06
-0.000165917
-3.5615e-06
-0.000164047
-5.61985e-06
-0.00016141
-7.91688e-06
-0.000158096
-9.9378e-06
-0.000154
-1.22897e-05
-0.000149168
-1.4496e-05
-0.00014363
-1.66248e-05
-0.000137086
-1.9634e-05
-0.000129773
-2.19502e-05
-0.000121624
-2.44635e-05
-0.00011248
-2.74192e-05
-0.000102451
-3.0048e-05
-9.127e-05
-3.35875e-05
-7.91901e-05
-3.62311e-05
-6.629e-05
-3.86647e-05
-5.22479e-05
-4.2201e-05
-3.73156e-05
-4.48126e-05
-2.16241e-05
-4.69968e-05
-5.05484e-06
-4.96497e-05
1.24252e-05
-5.24347e-05
3.02472e-05
-5.34523e-05
4.85709e-05
-5.49384e-05
6.71092e-05
-5.55795e-05
8.57765e-05
-5.59552e-05
0.000104381
-5.57662e-05
0.000122453
-5.41762e-05
0.00013994
-5.24007e-05
0.000156628
-5.0019e-05
0.000172076
-4.63092e-05
0.000186245
-4.2456e-05
0.000198838
-3.7745e-05
0.000209693
-3.25387e-05
0.000218655
-2.68502e-05
0.000225435
-2.03108e-05
0.000230025
-1.37485e-05
0.000232343
-6.91147e-06
0.000232173
5.02644e-07
0.000229634
7.60575e-06
0.000224717
1.47395e-05
0.00021758
2.13978e-05
0.000208281
2.78346e-05
0.00019693
3.40324e-05
0.000183863
3.9163e-05
0.000169159
4.40507e-05
0.0001531
4.81324e-05
0.000136054
5.10855e-05
0.000118088
5.38249e-05
9.95938e-05
5.54503e-05
8.07577e-05
5.64843e-05
6.1912e-05
5.64734e-05
4.30955e-05
5.64134e-05
2.45257e-05
5.56586e-05
6.53902e-06
5.39144e-05
-1.07889e-05
5.19325e-05
-2.73599e-05
4.96795e-05
-4.30898e-05
4.71821e-05
-5.79073e-05
4.44116e-05
-7.16985e-05
4.13619e-05
-8.44836e-05
3.83475e-05
-9.62675e-05
3.53435e-05
-0.000107019
3.21988e-05
-0.000116754
2.91786e-05
-0.000125494
2.61795e-05
-0.000133225
2.32274e-05
-0.000140009
2.03385e-05
-0.000145868
1.75565e-05
-0.000150749
1.46291e-05
-0.000154762
1.20328e-05
-0.000157893
9.40269e-06
-0.000160202
6.92788e-06
-0.000161812
4.79514e-06
-0.000162641
2.50198e-06
-0.000162813
5.175e-07
-0.000162293
-1.56189e-06
-0.000161119
-3.51468e-06
-0.000159325
-5.37618e-06
-0.000156885
-7.32029e-06
-0.000153843
-9.12609e-06
-0.000150148
-1.10612e-05
-0.000145818
-1.30079e-05
-0.000140798
-1.51225e-05
-0.000135068
-1.70517e-05
-0.00012871
-1.91264e-05
-0.000121569
-2.14231e-05
-0.000113652
-2.37561e-05
-0.000104949
-2.60835e-05
-9.55351e-05
-2.82437e-05
-8.53097e-05
-3.06751e-05
-7.42819e-05
-3.30797e-05
-6.24736e-05
-3.54262e-05
-4.98812e-05
-3.77803e-05
-3.65449e-05
-4.00007e-05
-2.24816e-05
-4.21743e-05
-7.72282e-06
-4.42364e-05
7.6445e-06
-4.60958e-05
2.35891e-05
-4.78107e-05
3.99854e-05
-4.91682e-05
5.67787e-05
-5.03265e-05
7.3714e-05
-5.0804e-05
9.07515e-05
-5.10444e-05
0.000107613
-5.05159e-05
0.000124108
-4.94684e-05
0.000140004
-4.76694e-05
0.000155081
-4.51807e-05
0.000169055
-4.18689e-05
0.000181657
-3.77597e-05
0.000192649
-3.29545e-05
0.0002018
-2.73635e-05
0.000208843
-2.11174e-05
0.000213637
-1.43591e-05
0.000216058
-7.24816e-06
0.00021605
-6.15595e-09
0.000213566
7.4095e-06
0.000208544
1.50318e-05
0.000201153
2.21646e-05
0.000191472
2.9023e-05
0.000179689
3.53268e-05
0.000166008
4.09555e-05
0.000150722
4.58275e-05
0.000134037
4.99651e-05
0.000116342
5.30288e-05
9.78723e-05
5.5374e-05
7.88865e-05
5.6864e-05
5.97405e-05
5.73755e-05
4.06535e-05
5.7174e-05
2.19013e-05
5.62651e-05
3.64388e-06
5.4746e-05
-1.39314e-05
5.26912e-05
-3.06551e-05
5.01478e-05
-4.64805e-05
4.74145e-05
-6.12688e-05
4.44002e-05
-7.50079e-05
4.12217e-05
-8.76954e-05
3.80758e-05
-9.92927e-05
3.47722e-05
-0.000109828
3.15989e-05
-0.000119322
2.84952e-05
-0.000127801
2.54629e-05
-0.000135426
2.28599e-05
-0.000142063
1.99048e-05
-0.00014784
1.73545e-05
-0.000152797
1.48881e-05
-0.000157001
1.2617e-05
-0.000160492
1.04731e-05
-0.000163303
8.44474e-06
-0.00016546
6.49356e-06
-0.000167039
4.72953e-06
-0.000168028
2.98458e-06
-0.000168493
1.41969e-06
-0.000168433
-1.85789e-07
-0.000167974
-1.44311e-06
-0.000166992
-2.88168e-06
-0.000165576
-4.24424e-06
-0.000163697
-5.62968e-06
-0.000161298
-7.19868e-06
-0.000158365
-8.80753e-06
-0.000154767
-1.08095e-05
-0.0001504
-1.30969e-05
-0.000145286
-1.53565e-05
-0.000139357
-1.77832e-05
-0.000132655
-2.01376e-05
-0.000125225
-2.22347e-05
-0.00011704
-2.4562e-05
-0.000108118
-2.67605e-05
-9.841e-05
-2.91294e-05
-8.78704e-05
-3.1634e-05
-7.64836e-05
-3.41954e-05
-6.42033e-05
-3.68821e-05
-5.10514e-05
-3.94701e-05
-3.70912e-05
-4.1797e-05
-2.23132e-05
-4.42987e-05
-6.78483e-06
-4.65326e-05
9.32539e-06
-4.83045e-05
2.59146e-05
-4.97397e-05
4.27883e-05
-5.05459e-05
5.97357e-05
-5.08261e-05
7.65698e-05
-5.04586e-05
9.30779e-05
-4.95083e-05
0.00010906
-4.78914e-05
0.000124292
-4.56496e-05
0.000138544
-4.27058e-05
0.000151607
-3.91816e-05
0.000163214
-3.47637e-05
0.000173164
-2.97749e-05
0.000181141
-2.38981e-05
0.000187015
-1.75853e-05
0.000190588
-1.06992e-05
0.000191784
-3.57856e-06
0.000190579
3.55423e-06
0.000186918
1.09314e-05
0.000180897
1.80726e-05
0.000172635
2.4759e-05
0.000162303
3.09604e-05
0.000150088
3.65958e-05
0.000136241
4.1483e-05
0.000121013
4.56184e-05
0.000104697
4.8909e-05
8.75585e-05
5.13535e-05
6.98946e-05
5.29375e-05
5.19736e-05
5.37084e-05
3.40251e-05
5.3743e-05
1.62954e-05
5.31812e-05
-1.02399e-06
5.19081e-05
-1.77858e-05
5.02637e-05
-3.38712e-05
4.82896e-05
-4.91823e-05
4.59274e-05
-6.36413e-05
4.33583e-05
-7.71569e-05
4.0538e-05
-8.972e-05
3.76824e-05
-0.000101289
3.47024e-05
-0.000111911
3.18365e-05
-0.000121543
2.89297e-05
-0.000130264
2.61562e-05
-0.000138066
2.34024e-05
-0.000144981
2.07665e-05
-0.000151089
1.83447e-05
-0.000156433
1.60202e-05
-0.000161031
1.37934e-05
-0.000164931
1.16923e-05
-0.000168179
9.77379e-06
-0.00017082
7.93736e-06
-0.000172888
6.21369e-06
-0.000174391
4.51768e-06
-0.000175362
2.92456e-06
-0.000175793
1.29411e-06
-0.000175698
-2.93245e-07
-0.000175117
-1.77987e-06
-0.000174009
-3.29881e-06
-0.000172419
-4.77013e-06
-0.000170301
-6.35698e-06
-0.000167682
-7.85582e-06
-0.000164533
-9.44539e-06
-0.000160827
-1.11152e-05
-0.000156558
-1.28022e-05
-0.000151662
-1.46841e-05
-0.000146083
-1.66725e-05
-0.000139835
-1.87233e-05
-0.000132949
-2.07165e-05
-0.00012524
-2.31156e-05
-0.0001168
-2.53257e-05
-0.000107505
-2.78661e-05
-9.7401e-05
-3.02787e-05
-8.65062e-05
-3.26632e-05
-7.47281e-05
-3.53241e-05
-6.21101e-05
-3.78235e-05
-4.8633e-05
-4.04139e-05
-3.43474e-05
-4.2832e-05
-1.92366e-05
-4.5292e-05
-3.30598e-06
-4.77365e-05
1.34341e-05
-5.0238e-05
3.06935e-05
-5.17685e-05
4.85565e-05
-5.3572e-05
6.67244e-05
-5.4441e-05
8.51655e-05
-5.52646e-05
0.000103403
-5.46656e-05
0.000121215
-5.33309e-05
0.000138282
-5.1136e-05
0.000154151
-4.75117e-05
0.000168485
-4.29387e-05
0.000180983
-3.7407e-05
0.000191222
-3.06758e-05
0.000199096
-2.35737e-05
0.000204384
-1.58294e-05
0.000206837
-7.32668e-06
0.000206496
9.77569e-07
0.000203377
9.30182e-06
0.000197524
1.75434e-05
0.000189231
2.48429e-05
0.000178713
3.14684e-05
0.000166233
3.73979e-05
0.000152221
4.19804e-05
0.000136855
4.60371e-05
0.000120459
4.91088e-05
0.000103417
5.10761e-05
8.60352e-05
5.20948e-05
6.84819e-05
5.26068e-05
5.1051e-05
5.22577e-05
3.38671e-05
5.1509e-05
1.72171e-05
4.99142e-05
1.21872e-06
4.79652e-05
-1.40441e-05
4.57715e-05
-2.84682e-05
4.32624e-05
-4.19927e-05
4.0565e-05
-5.45928e-05
3.7791e-05
-6.62923e-05
3.51018e-05
-7.71187e-05
3.24877e-05
-8.71098e-05
2.99807e-05
-9.63412e-05
2.77016e-05
-0.000104864
2.55706e-05
-0.000112747
2.36497e-05
-0.000120037
2.18845e-05
-0.000126768
2.02001e-05
-0.000132965
1.85866e-05
-0.000138639
1.7013e-05
-0.000143763
1.53621e-05
-0.000148353
1.37686e-05
-0.000152372
1.20523e-05
-0.000155807
1.03031e-05
-0.000158615
8.41257e-06
-0.000160772
6.46169e-06
-0.000162239
4.39571e-06
-0.000162988
2.25882e-06
-0.000162917
-2.08168e-07
-0.000161989
-2.78518e-06
-0.000160216
-5.32042e-06
-0.000157531
-8.06013e-06
-0.000153967
-1.06954e-05
-0.000149417
-1.36313e-05
-0.000143971
-1.63454e-05
-0.000137615
-1.90849e-05
-0.000130207
-2.22183e-05
-0.000121954
-2.47619e-05
-0.000112781
-2.7521e-05
-0.000102611
-3.04973e-05
-9.15932e-05
-3.30426e-05
-7.96048e-05
-3.59512e-05
-6.68987e-05
-3.81057e-05
-5.35066e-05
-4.01599e-05
-3.93402e-05
-4.24656e-05
-2.44854e-05
-4.45454e-05
-9.11561e-06
-4.61212e-05
6.89311e-06
-4.80027e-05
2.31009e-05
-4.86087e-05
3.95759e-05
-4.94013e-05
5.60333e-05
-4.93437e-05
7.22515e-05
-4.86226e-05
8.82458e-05
-4.79403e-05
0.00010374
-4.6438e-05
-4.4826e-05
0.0001158
6.96773e-05
9.8047e-05
7.08959e-05
7.98427e-05
7.26994e-05
6.13595e-05
7.3822e-05
4.30245e-05
7.32312e-05
2.48033e-05
7.27932e-05
6.94942e-06
7.1293e-05
-1.02757e-05
6.88608e-05
-2.68295e-05
6.61406e-05
-4.25315e-05
6.27489e-05
-5.73472e-05
5.92206e-05
-7.11889e-05
5.5339e-05
-8.40194e-05
5.13003e-05
-9.58471e-05
4.72976e-05
-0.000106674
4.32967e-05
-0.000116516
3.93784e-05
-0.000125376
3.54573e-05
-0.000133299
3.16962e-05
-0.000140311
2.80535e-05
-0.000146458
2.45906e-05
-0.000151743
2.11689e-05
-0.000156221
1.79152e-05
-0.000159923
1.48044e-05
-0.000162873
1.17995e-05
-0.000165106
8.9339e-06
-0.000166641
6.14891e-06
-0.000167497
3.48666e-06
-0.000167699
8.95653e-07
-0.000167177
-2.03749e-06
-0.000165986
-4.75278e-06
-0.000164137
-7.46821e-06
-0.000161508
-1.05464e-05
-0.000158184
-1.32613e-05
-0.000154089
-1.63851e-05
-0.000149259
-1.93264e-05
-0.00014371
-2.21737e-05
-0.000137185
-2.61586e-05
-0.000129879
-2.92564e-05
-0.000121746
-3.25967e-05
-0.000112587
-3.65783e-05
-0.000102548
-4.00871e-05
-9.13832e-05
-4.47521e-05
-7.92991e-05
-4.83152e-05
-6.6385e-05
-5.15789e-05
-5.23898e-05
-5.61964e-05
-3.74188e-05
-5.97837e-05
-2.1721e-05
-6.26947e-05
-5.09989e-06
-6.62709e-05
1.23634e-05
-6.9898e-05
3.01945e-05
-7.12836e-05
4.85369e-05
-7.32809e-05
6.70937e-05
-7.41364e-05
8.5784e-05
-7.46457e-05
0.000104417
-7.43995e-05
0.000122513
-7.22725e-05
0.00014003
-6.99171e-05
0.000156745
-6.67342e-05
0.000172217
-6.17813e-05
0.000186411
-5.66502e-05
0.000199021
-5.03549e-05
0.000209898
-4.34156e-05
0.000218882
-3.58347e-05
0.000225671
-2.70999e-05
0.000230272
-1.83492e-05
0.00023261
-9.24942e-06
0.000232444
6.68084e-07
0.000229914
1.01355e-05
0.000224978
1.96758e-05
0.000217831
2.85447e-05
0.000208497
3.71685e-05
0.000197132
4.53972e-05
0.000184046
5.22486e-05
0.000169306
5.87908e-05
0.000153224
6.42145e-05
0.000136149
6.81601e-05
0.000118139
7.18349e-05
9.96243e-05
7.39654e-05
8.07832e-05
7.53254e-05
6.18944e-05
7.53622e-05
4.30515e-05
7.52563e-05
2.44522e-05
7.42579e-05
6.44152e-06
7.19251e-05
-1.09099e-05
6.92839e-05
-2.75096e-05
6.62792e-05
-4.32613e-05
6.29339e-05
-5.80972e-05
5.92474e-05
-7.19027e-05
5.51674e-05
-8.4691e-05
5.11358e-05
-9.64565e-05
4.7109e-05
-0.000107249
4.29911e-05
-0.000117
3.89301e-05
-0.00012577
3.49493e-05
-0.000133528
3.09855e-05
-0.000140276
2.70858e-05
-0.000146123
2.34036e-05
-0.000151014
1.95203e-05
-0.000155024
1.60428e-05
-0.000158146
1.25244e-05
-0.000160504
9.2858e-06
-0.000162084
6.37572e-06
-0.000162911
3.32886e-06
-0.00016308
6.85915e-07