/*--------------------------------*- C++ -*----------------------------------*\
| =========                 |                                                 |
| \\      /  F ield         | OpenFOAM: The Open Source CFD Toolbox           |
|  \\    /   O peration     | Version:  3.0.1                                 |
|   \\  /    A nd           | Web:      www.OpenFOAM.org                      |
|    \\/     M anipulation  |                                                 |
\*---------------------------------------------------------------------------*/
FoamFile
{
    version     2.0;
    format      ascii;
    class       volScalarField;
    location    "86.2";
    object      p_rgh;
}
// * * * * * * * * * * * * * * * * * * * * * * * * * * * * * * * * * * * * * //

dimensions      [1 -1 -2 0 0 0 0];

internalField   nonuniform List<scalar> 
21420
(
179.599
146.414
112.989
79.448
45.9962
12.8873
-19.583
-51.19
-81.707
-110.909
-138.649
-164.79
-189.208
-211.835
-232.616
-251.536
-268.598
-283.829
-297.283
-309.033
-319.164
-327.775
-334.971
-340.858
-345.54
-349.115
-351.67
-353.279
-353.999
-353.87
-352.915
-351.129
-348.49
-344.983
-340.56
-335.145
-328.699
-321.157
-312.434
-302.495
-291.278
-278.739
-264.84
-249.521
-232.797
-214.677
-195.143
-174.227
-151.971
-128.406
-103.585
-77.6022
-50.5414
-22.5374
6.25102
35.671
65.4953
95.4661
125.333
154.77
183.447
211.002
237.045
261.2
283.106
302.407
318.814
332.099
342.102
348.753
352.093
352.056
348.297
342.272
333.293
320.513
303.801
283.423
259.542
232.434
202.573
170.483
136.847
102.237
67.2356
32.3565
-2.00718
-35.521
-67.9297
-99.0296
-128.674
-156.755
-183.204
-207.974
-231.054
-252.46
-272.236
-290.434
-307.113
-322.34
-336.183
-348.696
-359.924
-369.901
-378.656
-386.215
-392.604
-397.85
-401.981
-405.026
-407.017
-407.984
-407.96
-406.98
-405.077
-402.283
-398.636
-394.167
-388.899
-382.858
-376.055
-368.503
-360.207
-351.165
-341.369
-330.806
-319.453
-307.283
-294.264
-280.359
-265.525
-249.722
-232.913
-215.069
-196.171
-176.226
-155.253
-133.3
-110.447
-86.7987
-62.4835
-37.661
-12.5075
12.7761
37.9665
62.8331
87.1328
110.604
132.974
153.957
173.258
190.579
205.621
218.092
227.724
234.279
237.564
237.282
233.67
226.507
215.801
201.716
184.417
164.134
141.142
115.768
88.375
59.3506
29.1016
-1.96145
-33.4278
-64.9043
-96.0224
-126.444
-155.876
-184.077
-210.855
-236.076
-259.658
-281.563
-301.784
-320.342
-337.273
-352.626
-366.459
-378.837
-389.834
-399.529
-408.015
-415.383
-421.729
-427.145
-431.723
-435.543
-438.665
-441.138
-443
-444.27
-444.96
-445.071
-444.594
-443.513
-441.805
-439.433
-436.357
-432.523
-427.87
-422.331
-415.83
-408.291
-399.637
-389.785
-378.656
-366.172
-352.249
-336.799
-319.738
-300.979
-280.469
-258.171
-234.078
-208.239
-180.748
-151.751
-121.428
-90.0173
-57.8269
-25.1972
7.4947
39.8423
71.4082
101.73
130.331
156.74
180.499
201.154
218.281
231.51
240.529
244.96
244.993
240.317
230.995
217.22
199.234
177.372
152.063
123.78
93.0393
60.3879
26.3829
-8.43264
-43.561
-78.5474
-112.995
-146.57
-179.004
-210.091
-239.668
-267.613
-293.841
-318.287
-340.919
-361.732
-380.735
-397.938
-413.371
-427.082
-439.106
-449.51
-458.305
-465.534
-471.252
-475.487
-478.266
-479.591
-479.465
-477.858
-474.802
-470.13
-463.775
-455.779
-446.155
-434.82
-421.847
-407.265
-391.196
-373.788
-355.151
-335.497
-314.947
-293.652
-271.735
-249.258
-226.252
-202.734
-178.655
-153.97
-128.567
-102.398
-75.3424
-47.3614
-18.4229
11.4959
42.2833
73.7924
105.851
138.12
170.28
201.956
232.705
262.154
289.876
315.441
338.497
358.689
375.71
389.303
399.254
405.413
407.822
406.479
401.178
392.017
379.293
363.291
344.216
322.415
298.227
271.971
244.089
214.966
184.945
154.458
123.843
93.4344
63.5098
34.3066
6.07258
-21.0382
-46.9026
-71.4115
-94.5256
-116.217
-136.497
-155.386
-172.906
-189.104
-204.021
-217.696
-230.168
-241.469
-251.623
-260.648
-268.553
-275.34
-281.007
179.616
146.418
112.98
79.4277
45.9652
12.8464
-19.6327
-51.2473
-81.7707
-110.978
-138.722
-164.866
-189.286
-211.913
-232.695
-251.613
-268.673
-283.901
-297.352
-309.098
-319.225
-327.832
-335.024
-340.906
-345.584
-349.155
-351.707
-353.314
-354.032
-353.903
-352.947
-351.162
-348.524
-345.019
-340.598
-335.186
-328.742
-321.203
-312.482
-302.545
-291.331
-278.794
-264.896
-249.579
-232.856
-214.736
-195.202
-174.286
-152.031
-128.465
-103.642
-77.6578
-50.5942
-22.5863
6.20746
35.6342
65.4669
95.4477
125.326
154.777
183.468
211.038
237.099
261.27
283.191
302.506
318.925
332.221
342.231
348.886
352.226
352.2
348.436
342.415
333.443
320.664
303.95
283.565
259.673
232.55
202.67
170.559
136.9
102.268
67.2457
32.3471
-2.03359
-35.5622
-67.9832
-99.0931
-128.745
-156.832
-183.284
-208.056
-231.136
-252.541
-272.315
-290.509
-307.186
-322.41
-336.251
-348.762
-359.987
-369.963
-378.717
-386.275
-392.662
-397.907
-402.036
-405.081
-407.07
-408.036
-408.011
-407.029
-405.125
-402.33
-398.683
-394.212
-388.944
-382.903
-376.1
-368.548
-360.253
-351.212
-341.418
-330.856
-319.505
-307.337
-294.321
-280.418
-265.587
-249.786
-232.98
-215.137
-196.241
-176.297
-155.323
-133.368
-110.513
-86.8598
-62.5393
-37.7102
-12.5489
12.7434
37.9435
62.8207
87.1318
110.615
132.998
153.995
173.31
190.645
205.701
218.185
227.827
234.391
237.681
237.419
233.785
226.625
215.914
201.819
184.509
164.211
141.203
115.811
88.4007
59.3584
29.0922
-1.98722
-33.4685
-64.9584
-96.0878
-126.519
-155.958
-184.164
-210.944
-236.166
-259.747
-281.65
-301.869
-320.423
-337.351
-352.7
-366.529
-378.903
-389.897
-399.588
-408.07
-415.434
-421.776
-427.188
-431.763
-435.581
-438.701
-441.173
-443.034
-444.305
-444.995
-445.106
-444.631
-443.552
-441.845
-439.475
-436.402
-432.57
-427.921
-422.385
-415.888
-408.353
-399.702
-389.854
-378.728
-366.249
-352.33
-336.885
-319.827
-301.072
-280.565
-258.268
-234.175
-208.333
-180.839
-151.836
-121.504
-90.0829
-57.88
-25.2362
7.47185
39.8373
71.4222
101.763
130.385
156.815
180.595
201.268
218.413
231.655
240.684
245.139
245.146
240.476
231.147
217.361
199.358
177.477
152.147
123.84
93.077
60.4029
26.3764
-8.45882
-43.6043
-78.6051
-113.064
-146.648
-179.088
-210.18
-239.759
-267.707
-293.935
-318.381
-341.014
-361.826
-380.827
-398.029
-413.46
-427.169
-439.19
-449.59
-458.381
-465.605
-471.32
-475.55
-478.325
-479.647
-479.517
-477.907
-474.846
-470.169
-463.813
-455.818
-446.189
-434.849
-421.871
-407.284
-391.209
-373.796
-355.154
-335.497
-314.945
-293.648
-271.732
-249.258
-226.257
-202.744
-178.672
-153.994
-128.599
-102.437
-75.3876
-47.4112
-18.475
11.4443
42.2351
73.7507
105.818
138.1
170.273
201.966
232.732
262.199
289.94
315.522
338.595
358.802
375.837
389.441
399.4
405.566
407.982
406.613
401.307
392.145
379.416
363.402
344.312
322.495
298.29
272.016
244.117
214.978
184.942
154.44
123.813
93.3938
63.4603
34.2502
6.01099
-21.1033
-46.9695
-71.479
-94.5925
-116.283
-136.561
-155.447
-172.965
-189.16
-204.075
-217.747
-230.218
-241.517
-251.67
-260.694
-268.598
-275.385
-281.051
179.651
146.425
112.963
79.3872
45.9031
12.7646
-19.7321
-51.3619
-81.8981
-111.116
-138.868
-165.018
-189.441
-212.071
-232.852
-251.768
-268.824
-284.047
-297.491
-309.229
-319.348
-327.946
-335.128
-341.002
-345.672
-349.236
-351.782
-353.384
-354.099
-353.968
-353.012
-351.228
-348.592
-345.091
-340.675
-335.267
-328.829
-321.294
-312.579
-302.646
-291.436
-278.902
-265.008
-249.693
-232.972
-214.854
-195.32
-174.405
-152.149
-128.581
-103.756
-77.7677
-50.6985
-22.6826
6.12188
35.5623
65.4119
95.413
125.315
154.792
183.513
211.114
237.207
261.411
283.364
302.708
319.151
332.467
342.494
349.157
352.494
352.494
348.703
342.706
333.746
320.967
304.251
283.852
259.938
232.786
202.869
170.717
137.014
102.338
67.2744
32.338
-2.07587
-35.6331
-68.078
-99.207
-128.874
-156.971
-183.43
-208.205
-231.284
-252.686
-272.454
-290.643
-307.312
-322.531
-336.366
-348.872
-360.094
-370.066
-378.817
-386.372
-392.756
-397.997
-402.124
-405.165
-407.152
-408.115
-408.087
-407.102
-405.195
-402.397
-398.748
-394.276
-389.007
-382.965
-376.162
-368.61
-360.316
-351.276
-341.485
-330.926
-319.579
-307.415
-294.403
-280.505
-265.68
-249.884
-233.083
-215.244
-196.351
-176.408
-155.433
-133.475
-110.614
-86.9531
-62.6221
-37.7801
-12.6035
12.7061
37.9253
62.8237
87.1578
110.666
133.075
154.1
173.443
190.806
205.889
218.399
228.064
234.645
237.946
237.717
234.047
226.889
216.169
202.056
184.721
164.394
141.353
115.927
88.48
59.4017
29.1007
-2.01168
-33.5231
-65.0399
-96.1922
-126.642
-156.096
-184.311
-211.097
-236.32
-259.9
-281.799
-302.013
-320.56
-337.481
-352.823
-366.645
-379.011
-389.997
-399.68
-408.153
-415.509
-421.843
-427.248
-431.818
-435.63
-438.746
-441.216
-443.076
-444.347
-445.037
-445.15
-444.676
-443.6
-441.896
-439.531
-436.462
-432.636
-427.993
-422.463
-415.973
-408.445
-399.801
-389.96
-378.842
-366.37
-352.459
-337.022
-319.972
-301.225
-280.722
-258.428
-234.333
-208.487
-180.985
-151.969
-121.621
-90.1781
-57.9503
-25.2777
7.46265
39.8638
71.4867
101.868
130.531
157.002
180.822
201.533
218.711
231.98
241.028
245.525
245.49
240.825
231.485
217.674
199.638
177.719
152.345
123.993
93.1828
60.4632
26.3937
-8.48041
-43.6599
-78.6893
-113.171
-146.772
-179.225
-210.325
-239.91
-267.86
-294.091
-318.537
-341.169
-361.981
-380.98
-398.178
-413.605
-427.309
-439.325
-449.719
-458.501
-465.718
-471.425
-475.648
-478.416
-479.731
-479.596
-477.981
-474.911
-470.226
-463.869
-455.878
-446.241
-434.892
-421.905
-407.309
-391.225
-373.802
-355.151
-335.488
-314.931
-293.634
-271.72
-249.252
-226.26
-202.758
-178.701
-154.038
-128.658
-102.512
-75.4747
-47.5078
-18.5763
11.3439
42.1413
73.6694
105.756
138.06
170.262
201.987
232.787
262.291
290.068
315.686
338.793
359.031
376.092
389.718
399.693
405.874
408.31
406.878
401.569
392.404
379.663
363.624
344.504
322.655
298.416
272.107
244.174
215.002
184.935
154.405
123.754
93.3126
63.3615
34.1373
5.88781
-21.2333
-47.1033
-71.6139
-94.7264
-116.414
-136.688
-155.569
-173.082
-189.272
-204.182
-217.85
-230.317
-241.614
-251.764
-260.786
-268.688
-275.474
-281.139
179.702
146.436
112.936
79.3262
45.81
12.6418
-19.8814
-51.534
-82.0894
-111.323
-139.087
-165.245
-189.675
-212.307
-233.088
-252
-269.051
-284.265
-297.699
-309.425
-319.531
-328.116
-335.285
-341.146
-345.804
-349.357
-351.894
-353.489
-354.2
-354.065
-353.108
-351.327
-348.695
-345.2
-340.789
-335.39
-328.959
-321.432
-312.724
-302.798
-291.594
-279.066
-265.177
-249.865
-233.146
-215.031
-195.497
-174.582
-152.326
-128.756
-103.927
-77.9328
-50.8552
-22.8273
5.99327
35.4542
65.3292
95.3607
125.298
154.815
183.58
211.228
237.37
261.623
283.623
303.01
319.491
332.837
342.888
349.563
352.896
352.91
349.119
343.153
334.199
321.423
304.702
284.284
260.338
233.141
203.17
170.954
137.186
102.445
67.3182
32.3249
-2.1387
-35.7389
-68.2195
-99.3773
-129.066
-157.179
-183.648
-208.426
-231.504
-252.901
-272.662
-290.841
-307.502
-322.711
-336.538
-349.037
-360.253
-370.22
-378.966
-386.516
-392.896
-398.132
-402.254
-405.291
-407.273
-408.231
-408.199
-407.21
-405.299
-402.497
-398.844
-394.37
-389.099
-383.055
-376.252
-368.701
-360.408
-351.371
-341.583
-331.029
-319.686
-307.529
-294.524
-280.634
-265.817
-250.029
-233.235
-215.402
-196.513
-176.572
-155.596
-133.632
-110.764
-87.0901
-62.7434
-37.882
-12.6824
12.6531
37.9012
62.8313
87.2
110.745
133.194
154.26
173.645
191.051
206.175
218.724
228.422
235.029
238.347
238.156
234.454
227.29
216.555
202.414
185.042
164.671
141.581
116.103
88.6019
59.4695
29.116
-2.04586
-33.6027
-65.1599
-96.3469
-126.825
-156.3
-184.53
-211.324
-236.55
-260.128
-282.022
-302.227
-320.766
-337.676
-353.008
-366.819
-379.173
-390.147
-399.818
-408.279
-415.622
-421.945
-427.34
-431.9
-435.705
-438.816
-441.282
-443.141
-444.41
-445.102
-445.216
-444.745
-443.673
-441.974
-439.615
-436.553
-432.735
-428.1
-422.58
-416.099
-408.581
-399.948
-390.117
-379.01
-366.55
-352.651
-337.226
-320.188
-301.451
-280.956
-258.665
-234.568
-208.715
-181.201
-152.166
-121.791
-90.3174
-58.0521
-25.3362
7.45301
39.9077
71.588
102.029
130.753
157.287
181.168
201.935
219.164
232.474
241.551
246.096
246.024
241.357
231.997
218.149
200.063
178.086
152.648
124.226
93.3466
60.5588
26.4247
-8.50805
-43.7388
-78.8111
-113.327
-146.953
-179.425
-210.539
-240.131
-268.087
-294.319
-318.766
-341.399
-362.208
-381.204
-398.398
-413.819
-427.516
-439.523
-449.908
-458.679
-465.884
-471.579
-475.79
-478.548
-479.854
-479.712
-478.09
-475.005
-470.309
-463.956
-455.967
-446.316
-434.955
-421.956
-407.346
-391.248
-373.811
-355.147
-335.474
-314.911
-293.612
-271.702
-249.243
-226.264
-202.781
-178.744
-154.105
-128.749
-102.624
-75.6056
-47.6531
-18.7288
11.1925
41.9997
73.5467
105.661
138.001
170.245
202.018
232.87
262.427
290.26
315.932
339.09
359.374
376.475
390.133
400.132
406.336
408.785
407.289
401.969
392.796
380.034
363.957
344.793
322.895
298.604
272.244
244.259
215.038
184.925
154.353
123.664
93.1906
63.213
33.9679
5.70284
-21.4285
-47.3042
-71.8164
-94.9272
-116.611
-136.879
-155.753
-173.258
-189.44
-204.343
-218.005
-230.466
-241.758
-251.904
-260.923
-268.824
-275.608
-281.272
179.771
146.45
112.901
79.2448
45.6855
12.4777
-20.0808
-51.7637
-82.3446
-111.599
-139.379
-165.549
-189.986
-212.622
-233.402
-252.311
-269.353
-284.556
-297.977
-309.687
-319.776
-328.343
-335.494
-341.338
-345.98
-349.519
-352.044
-353.629
-354.333
-354.196
-353.238
-351.459
-348.832
-345.344
-340.943
-335.553
-329.132
-321.616
-312.918
-303.001
-291.805
-279.284
-265.401
-250.094
-233.379
-215.266
-195.733
-174.819
-152.562
-128.989
-104.155
-78.1532
-51.0643
-23.0206
5.82142
35.3096
65.2184
95.2905
125.275
154.845
183.669
211.38
237.587
261.905
283.969
303.413
319.943
333.331
343.414
350.107
353.436
353.434
349.698
343.747
334.802
322.03
305.303
284.859
260.87
233.615
203.571
171.272
137.415
102.586
67.3766
32.3073
-2.22273
-35.8803
-68.4086
-99.6046
-129.323
-157.457
-183.938
-208.722
-231.799
-253.189
-272.939
-291.106
-307.754
-322.952
-336.767
-349.257
-360.465
-370.425
-379.164
-386.708
-393.082
-398.312
-402.428
-405.459
-407.435
-408.387
-408.348
-407.353
-405.437
-402.63
-398.972
-394.494
-389.221
-383.176
-376.372
-368.822
-360.53
-351.497
-341.713
-331.165
-319.83
-307.68
-294.685
-280.805
-265.999
-250.222
-233.438
-215.613
-196.729
-176.79
-155.812
-133.842
-110.962
-87.2727
-62.905
-38.0176
-12.7875
12.5824
37.8689
62.8415
87.2563
110.851
133.352
154.473
173.915
191.378
206.557
219.157
228.899
235.542
238.883
238.726
235.009
227.829
217.071
202.892
185.47
165.041
141.886
116.337
88.7638
59.5592
29.1354
-2.09262
-33.7102
-65.3213
-96.5546
-127.07
-156.574
-184.824
-211.629
-236.858
-260.433
-282.32
-302.516
-321.042
-337.939
-353.256
-367.052
-379.392
-390.349
-400.004
-408.449
-415.776
-422.083
-427.465
-432.012
-435.807
-438.911
-441.373
-443.229
-444.498
-445.191
-445.308
-444.84
-443.773
-442.081
-439.729
-436.676
-432.868
-428.245
-422.737
-416.269
-408.765
-400.145
-390.328
-379.235
-366.79
-352.907
-337.499
-320.476
-301.753
-281.269
-258.981
-234.882
-209.02
-181.489
-152.429
-122.02
-90.5033
-58.1878
-25.4141
7.44015
39.9665
71.7235
102.245
131.051
157.667
181.63
202.473
219.769
233.135
242.249
246.841
246.754
242.071
232.682
218.784
200.632
178.577
153.052
124.539
93.5659
60.6868
26.4665
-8.54473
-43.8439
-78.9734
-113.535
-147.196
-179.693
-210.823
-240.426
-268.388
-294.623
-319.072
-341.704
-362.512
-381.503
-398.69
-414.104
-427.791
-439.787
-450.158
-458.914
-466.104
-471.783
-475.98
-478.724
-480.017
-479.865
-478.234
-475.131
-470.422
-464.075
-456.084
-446.417
-435.04
-422.023
-407.395
-391.278
-373.823
-355.142
-335.455
-314.884
-293.583
-271.678
-249.231
-226.27
-202.81
-178.802
-154.194
-128.868
-102.773
-75.7805
-47.8473
-18.9328
10.9898
41.8099
73.3821
105.533
137.921
170.221
202.058
232.98
262.61
290.516
316.26
339.486
359.831
376.986
390.688
400.718
406.949
409.391
407.868
402.518
393.324
380.529
364.402
345.177
323.215
298.856
272.426
244.373
215.086
184.911
154.283
123.544
93.0275
63.0146
33.7415
5.45585
-21.6891
-47.5723
-72.0866
-95.1951
-116.873
-137.133
-155.998
-173.493
-189.665
-204.558
-218.211
-230.665
-241.95
-252.092
-261.107
-269.005
-275.787
-281.449
179.856
146.467
112.856
79.1427
45.5297
12.2723
-20.3303
-52.0512
-82.6641
-111.944
-139.745
-165.93
-190.376
-213.016
-233.796
-252.698
-269.731
-284.92
-298.324
-310.015
-320.082
-328.626
-335.756
-341.578
-346.2
-349.721
-352.23
-353.804
-354.5
-354.358
-353.399
-351.623
-349.004
-345.525
-341.134
-335.757
-329.348
-321.845
-313.16
-303.254
-292.069
-279.557
-265.681
-250.38
-233.669
-215.56
-196.029
-175.114
-152.857
-129.28
-104.44
-78.429
-51.3261
-23.2626
5.60602
35.1284
65.0794
95.2021
125.245
154.882
183.779
211.569
237.858
262.258
284.401
303.918
320.51
333.949
344.072
350.79
354.119
354.091
350.416
344.487
335.553
322.788
306.055
285.579
261.537
234.208
204.073
171.669
137.701
102.763
67.4496
32.285
-2.32816
-36.0576
-68.6455
-99.8895
-129.645
-157.805
-184.302
-209.093
-232.168
-253.55
-273.287
-291.438
-308.07
-323.252
-337.054
-349.532
-360.73
-370.681
-379.413
-386.949
-393.314
-398.537
-402.645
-405.668
-407.637
-408.581
-408.535
-407.532
-405.611
-402.796
-399.133
-394.65
-389.374
-383.326
-376.522
-368.973
-360.684
-351.654
-341.876
-331.335
-320.009
-307.87
-294.886
-281.02
-266.227
-250.463
-233.691
-215.876
-196.999
-177.063
-156.083
-134.105
-111.212
-87.5016
-63.1078
-38.1881
-12.9195
12.4934
37.8277
62.8533
87.3257
110.982
133.549
154.739
174.252
191.786
207.034
219.697
229.496
236.184
239.554
239.424
235.711
228.504
217.715
203.489
186.005
165.502
142.265
116.628
88.9647
59.6695
29.1578
-2.15304
-33.8465
-65.5253
-96.8164
-127.379
-156.919
-185.193
-212.012
-237.246
-260.818
-282.696
-302.878
-321.389
-338.269
-353.568
-367.346
-379.667
-390.605
-400.239
-408.663
-415.97
-422.258
-427.623
-432.155
-435.938
-439.032
-441.488
-443.341
-444.61
-445.304
-445.424
-444.962
-443.9
-442.216
-439.874
-436.833
-433.037
-428.429
-422.936
-416.484
-408.997
-400.393
-390.593
-379.518
-367.092
-353.228
-337.84
-320.837
-302.132
-281.661
-259.378
-235.276
-209.402
-181.851
-152.759
-122.306
-90.737
-58.3585
-25.5125
7.42315
40.039
71.8922
102.514
131.422
158.143
182.207
203.146
220.527
233.961
243.124
247.755
247.679
242.968
233.54
219.579
201.344
179.192
153.558
124.929
93.8394
60.8461
26.5178
-8.59168
-43.9765
-79.1776
-113.796
-147.5
-180.028
-211.179
-240.795
-268.765
-295.005
-319.455
-342.087
-362.891
-381.877
-399.056
-414.46
-428.136
-440.118
-450.472
-459.209
-466.38
-472.039
-476.216
-478.943
-480.221
-480.056
-478.412
-475.29
-470.566
-464.225
-456.228
-446.542
-435.145
-422.107
-407.457
-391.316
-373.837
-355.134
-335.431
-314.849
-293.546
-271.647
-249.216
-226.277
-202.847
-178.875
-154.305
-129.018
-102.961
-75.9999
-48.0909
-19.1889
10.7351
41.5712
73.1747
105.373
137.82
170.191
202.109
233.117
262.837
290.836
316.67
339.981
360.404
377.625
391.381
401.452
407.71
410.135
408.608
403.218
393.99
381.15
364.958
345.659
323.615
299.17
272.653
244.514
215.145
184.893
154.195
123.393
92.8231
62.766
33.458
5.14655
-22.0154
-47.9078
-72.4247
-95.5303
-117.201
-137.451
-156.304
-173.786
-189.946
-204.827
-218.469
-230.913
-242.191
-252.326
-261.336
-269.231
-276.01
-281.67
179.958
146.488
112.803
79.0197
45.3422
12.0253
-20.6304
-52.3968
-83.048
-112.36
-140.184
-166.387
-190.844
-213.489
-234.268
-253.164
-270.185
-285.358
-298.74
-310.408
-320.449
-328.967
-336.069
-341.865
-346.463
-349.962
-352.454
-354.014
-354.7
-354.553
-353.593
-351.821
-349.209
-345.741
-341.363
-336.001
-329.608
-322.121
-313.451
-303.559
-292.385
-279.884
-266.018
-250.724
-234.018
-215.913
-196.384
-175.47
-153.211
-129.63
-104.783
-78.7605
-51.6409
-23.5538
5.34675
34.91
64.9118
95.0951
125.209
154.926
183.911
211.795
238.182
262.681
284.92
304.524
321.19
334.691
344.863
351.612
354.948
354.898
351.249
345.377
336.449
323.697
306.958
286.444
262.338
234.921
204.676
172.146
138.046
102.977
67.5373
32.2581
-2.45523
-36.2711
-68.9306
-100.232
-130.031
-158.223
-184.74
-209.538
-232.611
-253.983
-273.703
-291.836
-308.448
-323.612
-337.397
-349.861
-361.048
-370.989
-379.711
-387.237
-393.594
-398.807
-402.906
-405.92
-407.879
-408.815
-408.76
-407.748
-405.816
-402.995
-399.325
-394.837
-389.557
-383.507
-376.702
-369.154
-360.868
-351.843
-342.072
-331.54
-320.224
-308.098
-295.128
-281.277
-266.5
-250.753
-233.995
-216.192
-197.324
-177.392
-156.409
-134.422
-111.511
-87.7772
-63.352
-38.3936
-13.079
12.3855
37.777
62.8662
87.4077
111.139
133.785
155.056
174.654
192.274
207.605
220.345
230.211
236.954
240.361
240.255
236.555
229.315
218.488
204.204
186.645
166.054
142.718
116.976
89.2038
59.7998
29.1826
-2.2279
-34.0126
-65.7724
-97.133
-127.752
-157.336
-185.64
-212.474
-237.713
-261.281
-283.148
-303.315
-321.807
-338.667
-353.945
-367.701
-379.999
-390.913
-400.524
-408.923
-416.206
-422.47
-427.814
-432.329
-436.096
-439.18
-441.629
-443.479
-444.746
-445.442
-445.566
-445.109
-444.055
-442.38
-440.05
-437.022
-433.242
-428.65
-423.175
-416.743
-409.275
-400.692
-390.912
-379.859
-367.455
-353.615
-338.252
-321.272
-302.588
-282.132
-259.856
-235.75
-209.863
-182.287
-153.157
-122.652
-91.0191
-58.5651
-25.6322
7.40137
40.1248
72.0935
102.836
131.868
158.714
182.9
203.953
221.437
234.954
244.178
248.848
248.793
244.048
234.571
220.534
202.199
179.93
154.165
125.397
94.1669
61.036
26.5778
-8.64973
-44.1376
-79.4247
-114.111
-147.867
-180.432
-211.608
-241.239
-269.219
-295.463
-319.915
-342.547
-363.347
-382.326
-399.496
-414.888
-428.55
-440.515
-450.849
-459.564
-466.71
-472.346
-476.5
-479.205
-480.465
-480.284
-478.624
-475.483
-470.743
-464.407
-456.398
-446.69
-435.271
-422.208
-407.531
-391.361
-373.854
-355.125
-335.401
-314.807
-293.501
-271.61
-249.196
-226.285
-202.891
-178.962
-154.439
-129.199
-103.186
-76.264
-48.3844
-19.4976
10.4279
41.2829
72.9241
105.178
137.697
170.153
202.168
233.28
263.11
291.22
317.162
340.575
361.091
378.393
392.214
402.333
408.62
411.034
409.499
404.068
394.795
381.896
365.626
346.236
324.095
299.547
272.925
244.683
215.216
184.87
154.088
123.211
92.5767
62.4666
33.1168
4.77456
-22.4076
-48.311
-72.831
-95.9329
-117.595
-137.833
-156.672
-174.139
-190.282
-205.149
-218.777
-231.211
-242.479
-252.607
-261.612
-269.502
-276.278
-281.935
180.076
146.511
112.739
78.8757
45.1228
11.7363
-20.9814
-52.8008
-83.4967
-112.845
-140.697
-166.92
-191.392
-214.042
-234.82
-253.708
-270.715
-285.868
-299.227
-310.866
-320.878
-329.364
-336.435
-342.201
-346.77
-350.244
-352.715
-354.258
-354.933
-354.779
-353.819
-352.051
-349.448
-345.993
-341.631
-336.286
-329.912
-322.443
-313.79
-303.914
-292.755
-280.267
-266.411
-251.125
-234.425
-216.324
-196.798
-175.884
-153.624
-130.039
-105.184
-79.148
-52.009
-23.8943
5.04315
34.654
64.7149
94.969
125.165
154.975
184.064
212.057
238.56
263.175
285.525
305.231
321.984
335.557
345.786
352.574
355.925
355.861
352.209
346.408
337.488
324.754
308.01
287.453
263.274
235.754
205.382
172.705
138.449
103.226
67.6397
32.2263
-2.60411
-36.5209
-69.2642
-100.633
-130.484
-158.713
-185.251
-210.059
-233.128
-254.488
-274.19
-292.3
-308.89
-324.032
-337.798
-350.246
-361.418
-371.347
-380.058
-387.574
-393.919
-399.121
-403.21
-406.213
-408.162
-409.088
-409.022
-407.999
-406.058
-403.227
-399.55
-395.056
-389.771
-383.718
-376.912
-369.365
-361.082
-352.062
-342.3
-331.778
-320.475
-308.363
-295.41
-281.577
-266.82
-251.09
-234.351
-216.561
-197.703
-177.776
-156.789
-134.792
-111.862
-88.0998
-63.638
-38.6346
-13.2664
12.2583
37.7165
62.8799
87.5018
111.32
134.058
155.426
175.123
192.842
208.27
221.1
231.046
237.852
241.303
241.225
237.534
230.263
219.389
205.038
187.391
166.697
143.246
117.38
89.4807
59.9495
29.2089
-2.31787
-34.2091
-66.0635
-97.5051
-128.19
-157.825
-186.163
-213.016
-238.26
-261.823
-283.678
-303.827
-322.297
-339.133
-354.387
-368.117
-380.389
-391.275
-400.857
-409.228
-416.482
-422.72
-428.039
-432.532
-436.283
-439.354
-441.795
-443.64
-444.907
-445.606
-445.733
-445.282
-444.237
-442.573
-440.256
-437.243
-433.482
-428.91
-423.456
-417.046
-409.602
-401.042
-391.285
-380.257
-367.879
-354.067
-338.733
-321.781
-303.122
-282.684
-260.415
-236.305
-210.403
-182.798
-153.623
-123.057
-91.3503
-58.8082
-25.7737
7.3742
40.2234
72.327
103.211
132.386
159.379
183.708
204.896
222.499
236.115
245.411
250.127
250.09
245.311
235.776
221.649
203.198
180.791
154.874
125.943
94.5478
61.2561
26.6457
-8.71982
-44.3282
-79.7155
-114.482
-148.297
-180.905
-212.11
-241.759
-269.749
-296
-320.454
-343.084
-363.88
-382.851
-400.01
-415.388
-429.034
-440.979
-451.29
-459.978
-467.096
-472.703
-476.831
-479.511
-480.749
-480.55
-478.871
-475.708
-470.953
-464.621
-456.595
-446.863
-435.418
-422.326
-407.616
-391.413
-373.874
-355.113
-335.366
-314.757
-293.447
-271.565
-249.173
-226.294
-202.941
-179.064
-154.595
-129.41
-103.45
-76.5734
-48.7285
-19.8597
10.0671
40.9441
72.6293
104.949
137.552
170.108
202.236
233.47
263.427
291.667
317.736
341.268
361.893
379.289
393.187
403.362
409.681
412.09
410.542
405.066
395.738
382.768
366.406
346.91
324.655
299.987
273.242
244.88
215.297
184.843
153.962
122.997
92.288
62.1161
32.7175
4.33942
-22.8662
-48.7823
-73.3056
-96.4031
-118.055
-138.279
-157.1
-174.55
-190.675
-205.524
-219.138
-231.558
-242.815
-252.935
-261.933
-269.818
-276.59
-282.244
180.209
146.536
112.666
78.7103
44.8712
11.405
-21.3836
-53.2637
-84.0107
-113.4
-141.284
-167.531
-192.018
-214.675
-235.452
-254.331
-271.322
-286.452
-299.783
-311.391
-321.368
-329.818
-336.853
-342.583
-347.12
-350.566
-353.012
-354.537
-355.198
-355.038
-354.076
-352.313
-349.721
-346.281
-341.937
-336.612
-330.259
-322.811
-314.178
-304.321
-293.179
-280.704
-266.86
-251.583
-234.89
-216.795
-197.271
-176.358
-154.097
-130.507
-105.642
-79.5917
-52.4308
-24.2849
4.6947
34.3598
64.4883
94.8232
125.114
155.03
184.237
212.357
238.991
263.738
286.217
306.04
322.892
336.548
346.841
353.675
357.05
356.982
353.314
347.575
338.668
325.959
309.213
288.608
264.347
236.71
206.192
173.346
138.911
103.512
67.757
32.1897
-2.775
-36.8074
-69.6467
-101.092
-131.002
-159.273
-185.837
-210.655
-233.721
-255.065
-274.746
-292.83
-309.394
-324.511
-338.256
-350.685
-361.841
-371.757
-380.455
-387.958
-394.291
-399.481
-403.557
-406.548
-408.485
-409.399
-409.321
-408.286
-406.334
-403.492
-399.806
-395.305
-390.015
-383.959
-377.152
-369.606
-361.327
-352.313
-342.56
-332.05
-320.761
-308.666
-295.732
-281.92
-267.184
-251.477
-234.757
-216.984
-198.137
-178.215
-157.225
-135.216
-112.264
-88.4696
-63.9662
-38.9114
-13.4819
12.1115
37.6458
62.8937
87.6077
111.524
134.368
155.846
175.656
193.49
209.028
221.962
231.999
238.879
242.381
242.333
238.651
231.347
220.42
205.99
188.243
167.431
143.847
117.84
89.7949
60.118
29.2363
-2.4237
-34.4368
-66.399
-97.9333
-128.694
-158.386
-186.763
-213.637
-238.888
-262.445
-284.286
-304.413
-322.858
-339.667
-354.892
-368.594
-380.835
-391.69
-401.24
-409.578
-416.799
-423.006
-428.297
-432.766
-436.497
-439.554
-441.986
-443.826
-445.092
-445.793
-445.926
-445.482
-444.447
-442.795
-440.493
-437.498
-433.757
-429.208
-423.778
-417.394
-409.977
-401.443
-391.713
-380.714
-368.365
-354.584
-339.284
-322.364
-303.734
-283.317
-261.056
-236.942
-211.022
-183.384
-154.158
-123.523
-91.7313
-59.0883
-25.9376
7.34108
40.3342
72.5923
103.637
132.978
160.139
184.632
205.974
223.715
237.444
246.825
251.592
251.573
246.759
237.157
222.927
204.341
181.777
155.683
126.565
94.9821
61.5055
26.7209
-8.80279
-44.5492
-80.0512
-114.908
-148.791
-181.449
-212.685
-242.354
-270.356
-296.614
-321.07
-343.699
-364.489
-383.451
-400.598
-415.961
-429.587
-441.51
-451.793
-460.451
-467.538
-473.112
-477.208
-479.861
-481.073
-480.852
-479.153
-475.967
-471.195
-464.865
-456.817
-447.059
-435.586
-422.46
-407.714
-391.472
-373.895
-355.099
-335.324
-314.698
-293.385
-271.512
-249.146
-226.303
-202.998
-179.18
-154.771
-129.651
-103.753
-76.9287
-49.1239
-20.2761
9.65202
40.5539
72.2893
104.685
137.383
170.054
202.312
233.686
263.789
292.177
318.392
342.061
362.81
380.315
394.301
404.54
410.895
413.302
411.737
406.213
396.82
383.767
367.299
347.682
325.295
300.489
273.603
245.103
215.389
184.811
153.816
122.752
91.9563
61.7137
32.2595
3.8406
-23.3917
-49.3221
-73.8489
-96.9411
-118.581
-138.788
-157.591
-175.019
-191.124
-205.953
-219.549
-231.954
-243.199
-253.309
-262.3
-270.179
-276.947
-282.598
180.358
146.563
112.582
78.5233
44.587
11.031
-21.8375
-53.786
-84.5902
-114.026
-141.946
-168.22
-192.723
-215.388
-236.164
-255.032
-272.005
-287.11
-300.409
-311.981
-321.919
-330.329
-337.323
-343.014
-347.514
-350.927
-353.346
-354.849
-355.496
-355.328
-354.365
-352.608
-350.028
-346.604
-342.28
-336.979
-330.649
-323.225
-314.615
-304.779
-293.655
-281.197
-267.366
-252.099
-235.414
-217.324
-197.804
-176.892
-154.629
-131.033
-106.159
-80.0921
-52.9067
-24.7259
4.30081
34.0269
64.2313
94.657
125.053
155.091
184.431
212.693
239.475
264.372
286.996
306.95
323.915
337.663
348.028
354.915
358.321
358.262
354.574
348.881
339.987
327.31
310.565
289.91
265.556
237.788
207.105
174.069
139.433
103.834
67.8891
32.1479
-2.96836
-37.1312
-70.0786
-101.61
-131.586
-159.905
-186.497
-211.326
-234.387
-255.716
-275.371
-293.427
-309.96
-325.05
-338.769
-351.177
-362.317
-372.217
-380.901
-388.39
-394.709
-399.885
-403.947
-406.925
-408.849
-409.748
-409.657
-408.609
-406.643
-403.789
-400.093
-395.584
-390.289
-384.229
-377.421
-369.876
-361.601
-352.595
-342.852
-332.355
-321.083
-309.006
-296.093
-282.305
-267.594
-251.911
-235.213
-217.459
-198.626
-178.71
-157.717
-135.694
-112.718
-88.8869
-64.3367
-39.2241
-13.726
11.9445
37.5643
62.9073
87.7246
111.752
134.714
156.316
176.254
194.217
209.88
222.93
233.07
240.033
243.595
243.581
239.905
232.567
221.579
207.062
189.201
168.255
144.522
118.355
90.1458
60.3047
29.2639
-2.54621
-34.6963
-66.7798
-98.4183
-129.264
-159.021
-187.441
-214.339
-239.596
-263.147
-284.97
-305.074
-323.491
-340.269
-355.462
-369.131
-381.338
-392.158
-401.671
-409.972
-417.157
-423.328
-428.587
-433.029
-436.738
-439.779
-442.201
-444.036
-445.302
-446.005
-446.144