/*--------------------------------*- C++ -*----------------------------------*\
| =========                 |                                                 |
| \\      /  F ield         | OpenFOAM: The Open Source CFD Toolbox           |
|  \\    /   O peration     | Version:  3.0.1                                 |
|   \\  /    A nd           | Web:      www.OpenFOAM.org                      |
|    \\/     M anipulation  |                                                 |
\*---------------------------------------------------------------------------*/
FoamFile
{
    version     2.0;
    format      ascii;
    class       volScalarField;
    location    "33.6";
    object      p;
}
// * * * * * * * * * * * * * * * * * * * * * * * * * * * * * * * * * * * * * //

dimensions      [1 -1 -2 0 0 0 0];

internalField   nonuniform List<scalar> 
21420
(
3509.4
3512.49
3516.96
3522.83
3530.13
3538.91
3549.22
3561.13
3574.68
3589.92
3606.9
3625.67
3646.27
3668.71
3692.99
3719.08
3746.91
3776.39
3807.3
3839.5
3872.94
3907.28
3942.16
3977.29
4012.24
4046.63
4080
4111.92
4141.98
4169.78
4194.9
4217
4235.74
4250.84
4262.07
4269.24
4272.19
4270.82
4265.22
4255.52
4241.82
4224.39
4203.45
4179.33
4152.4
4123.06
4091.71
4058.8
4024.77
3990.04
3955.03
3920.12
3885.67
3852.01
3821.14
3790.26
3760.72
3732.75
3706.47
3681.98
3659.3
3638.46
3619.45
3602.26
3586.84
3573.17
3561.2
3550.91
3542.25
3535.22
3529.78
3525.92
3523.61
3522.88
3523.71
3526.05
3529.95
3535.38
3542.36
3550.9
3561.01
3572.68
3585.93
3600.76
3617.18
3635.18
3654.78
3675.95
3698.71
3723.04
3748.89
3776.23
3804.97
3835
3866.17
3898.28
3931.07
3964.27
3997.56
4030.59
4062.98
4094.35
4124.29
4152.4
4178.3
4201.61
4221.99
4239.12
4252.73
4262.59
4268.53
4270.33
4268.11
4261.75
4251.33
4236.99
4218.92
4197.4
4172.74
4145.33
4115.56
4083.9
4050.79
4016.71
3982.11
3947.43
3913.07
3879.41
3846.77
3815.41
3785.56
3757.4
3731.06
3706.62
3684.13
3663.61
3645.05
3628.42
3613.68
3600.76
3589.6
3580.11
3572.22
3565.83
3560.88
3557.29
3555
3553.97
3554.19
3555.59
3558.18
3561.96
3566.93
3573.1
3580.51
3589.18
3599.15
3610.48
3623.23
3637.45
3653.19
3670.53
3689.48
3710.08
3732.34
3756.22
3781.71
3808.71
3837.13
3866.81
3897.53
3929.93
3962.15
3994.78
4027.4
4059.61
4090.99
4121.1
4149.48
4175.72
4199.37
4220.05
4237.41
4251.12
4260.95
4266.72
4268.26
4265.67
4258.9
4248.1
4233.46
4215.22
4193.72
4169.3
4142.38
4113.39
4082.76
4050.96
4018.41
3985.55
3952.77
3920.43
3888.85
3858.28
3828.94
3801.01
3774.58
3749.76
3726.56
3705.01
3685.09
3666.79
3650.08
3634.91
3621.26
3609.08
3598.34
3589.03
3581.1
3574.55
3569.36
3565.52
3563.03
3561.89
3562.13
3563.69
3566.59
3570.85
3576.47
3583.48
3591.89
3601.75
3613.08
3625.94
3640.36
3656.37
3674.02
3693.33
3714.29
3736.89
3761.08
3786.78
3813.91
3842.31
3871.8
3902.13
3933.72
3965.12
3996.68
4028.04
4058.83
4088.68
4117.23
4144.11
4168.93
4191.35
4211.01
4227.62
4240.87
4250.55
4256.48
4258.49
4256.63
4250.83
4241.2
4227.87
4211.04
4190.97
4167.97
4142.4
4114.65
4085.12
4054.23
4022.43
3990.13
3957.71
3925.7
3894.31
3863.59
3833.87
3805.36
3778.25
3752.69
3728.77
3706.56
3686.08
3667.37
3650.41
3635.17
3621.61
3609.69
3599.35
3590.52
3583.15
3577.17
3572.53
3569.16
3567.04
3566.16
3566.56
3568.13
3570.95
3575.03
3580.39
3587.1
3595.22
3604.8
3615.93
3628.65
3643.04
3659.15
3677.01
3696.64
3718.04
3741.16
3765.94
3792.27
3819.99
3848.93
3878.81
3909.15
3940.18
3971.45
4002.55
4033.17
4062.91
4091.41
4118.34
4143.36
4166.15
4186.42
4203.91
4218.39
4229.68
4237.63
4242.15
4243.07
4240.45
4234.35
4224.85
4212.09
4196.25
4177.57
4156.29
4132.69
4107.05
4079.73
4051.02
4021.27
3990.87
3960.16
3929.67
3900.83
3873.57
3845.73
3818.64
3792.71
3411.24
3414.34
3418.81
3424.68
3431.97
3440.75
3451.05
3462.96
3476.51
3491.75
3508.72
3527.5
3548.09
3570.53
3594.81
3620.9
3648.73
3678.21
3709.12
3741.33
3774.79
3809.13
3844.03
3879.17
3914.13
3948.54
3981.93
4013.87
4043.95
4071.77
4096.91
4119.02
4137.78
4152.89
4164.13
4171.31
4174.27
4172.88
4167.27
4157.57
4143.86
4126.41
4105.46
4081.32
4054.37
4025.02
3993.64
3960.71
3926.67
3891.92
3856.89
3821.98
3787.51
3753.85
3722.96
3692.08
3662.53
3634.56
3608.29
3583.79
3561.12
3540.28
3521.27
3504.08
3488.66
3475
3463.03
3452.74
3444.09
3437.05
3431.61
3427.75
3425.44
3424.72
3425.55
3427.89
3431.78
3437.22
3444.2
3452.74
3462.84
3474.52
3487.77
3502.6
3519.01
3537.01
3556.61
3577.78
3600.54
3624.86
3650.72
3678.06
3706.8
3736.84
3768.02
3800.13
3832.93
3866.14
3899.45
3932.49
3964.9
3996.28
4026.24
4054.37
4080.29
4103.61
4124.01
4141.16
4154.78
4164.65
4170.59
4172.4
4170.17
4163.81
4153.38
4139.02
4120.95
4099.41
4074.73
4047.3
4017.51
3985.82
3952.7
3918.6
3883.98
3849.29
3814.92
3781.25
3748.59
3717.23
3687.38
3659.21
3632.87
3608.43
3585.94
3565.42
3546.86
3530.24
3515.5
3502.59
3491.43
3481.95
3474.05
3467.67
3462.72
3459.14
3456.85
3455.82
3456.04
3457.44
3460.04
3463.81
3468.78
3474.95
3482.36
3491.02
3500.99
3512.32
3525.06
3539.28
3555.02
3572.35
3591.31
3611.91
3634.16
3658.05
3683.53
3710.54
3738.96
3768.65
3799.38
3831.77
3864.01
3896.66
3929.29
3961.52
3992.92
4023.04
4051.45
4077.7
4101.37
4122.07
4139.44
4153.17
4163.01
4168.78
4170.33
4167.73
4160.96
4150.15
4135.49
4117.24
4095.72
4071.28
4044.34
4015.33
3984.69
3952.86
3920.3
3887.42
3854.63
3822.28
3790.69
3760.11
3730.77
3702.83
3676.41
3651.58
3628.38
3606.83
3586.92
3568.62
3551.91
3536.75
3523.1
3510.92
3500.19
3490.87
3482.94
3476.39
3471.2
3467.37
3464.87
3463.74
3463.97
3465.53
3468.44
3472.69
3478.32
3485.32
3493.73
3503.59
3514.92
3527.77
3542.19
3558.2
3575.85
3595.15
3616.11
3638.71
3662.9
3688.61
3715.74
3744.15
3773.65
3804
3835.57
3866.99
3898.57
3929.94
3960.74
3990.61
4019.18
4046.07
4070.91
4093.34
4113.03
4129.64
4142.91
4152.6
4158.54
4160.55
4158.68
4152.88
4143.24
4129.9
4113.05
4092.97
4069.96
4044.37
4016.6
3987.05
3956.15
3924.33
3892.01
3859.58
3827.56
3796.16
3765.43
3735.7
3707.19
3680.08
3654.51
3630.6
3608.38
3587.91
3569.2
3552.24
3537
3523.45
3511.52
3501.19
3492.36
3484.99
3479.02
3474.38
3471.01
3468.9
3468.01
3468.41
3469.98
3472.8
3476.88
3482.24
3488.95
3497.06
3506.64
3517.76
3530.48
3544.87
3560.98
3578.84
3598.46
3619.86
3642.99
3667.76
3694.1
3721.83
3750.77
3780.66
3811.01
3842.05
3873.33
3904.45
3935.08
3964.84
3993.35
4020.3
4045.34
4068.13
4088.42
4105.92
4120.41
4131.71
4139.66
4144.18
4145.11
4142.49
4136.38
4126.87
4114.1
4098.26
4079.56
4058.27
4034.65
4009
3981.66
3952.94
3923.18
3892.76
3862.04
3831.54
3802.69
3775.42
3747.57
3720.47
3694.53
3313.03
3316.13
3320.6
3326.46
3333.75
3342.53
3352.83
3364.73
3378.28
3393.5
3410.47
3429.24
3449.83
3472.26
3496.54
3522.64
3550.47
3579.96
3610.88
3643.1
3676.57
3710.94
3745.86
3781.03
3816.03
3850.47
3883.9
3915.87
3945.99
3973.84
3999.02
4021.16
4039.95
4055.09
4066.34
4073.53
4076.52
4075.09
4069.49
4059.77
4046.04
4028.56
4007.58
3983.4
3956.42
3927.02
3895.61
3862.65
3828.56
3793.79
3758.73
3723.78
3689.3
3655.63
3624.71
3593.82
3564.27
3536.29
3510.02
3485.52
3462.85
3442.01
3423.02
3405.83
3390.42
3376.75
3364.79
3354.51
3345.86
3338.82
3333.39
3329.53
3327.22
3326.5
3327.33
3329.67
3333.56
3338.99
3345.97
3354.51
3364.61
3376.29
3389.53
3404.36
3420.77
3438.77
3458.36
3479.54
3502.3
3526.62
3552.47
3579.82
3608.56
3638.61
3669.8
3701.93
3734.75
3767.99
3801.32
3834.39
3866.83
3898.25
3928.24
3956.41
3982.36
4005.72
4026.15
4043.32
4056.96
4066.85
4072.8
4074.64
4072.38
4066.02
4055.57
4041.2
4023.09
4001.52
3976.81
3949.33
3919.51
3887.78
3854.62
3820.48
3785.83
3751.1
3716.71
3683.01
3650.34
3618.97
3589.11
3560.94
3534.59
3510.15
3487.66
3467.15
3448.6
3431.98
3417.25
3404.34
3393.19
3383.72
3375.83
3369.46
3364.51
3360.93
3358.65
3357.63
3357.84
3359.25
3361.84
3365.61
3370.58
3376.75
3384.15
3392.81
3402.78
3414.1
3426.84
3441.05
3456.79
3474.11
3493.06
3513.66
3535.91
3559.8
3585.28
3612.29
3640.73
3670.43
3701.19
3733.56
3765.84
3798.51
3831.18
3863.44
3894.87
3925.03
3953.48
3979.77
4003.48
4024.22
4041.61
4055.36
4065.22
4071.01
4072.57
4069.94
4063.17
4052.34
4037.65
4019.37
3997.82
3973.35
3946.37
3917.31
3886.63
3854.77
3822.17
3789.26
3756.44
3724.07
3692.46
3661.87
3632.52
3604.58
3578.15
3553.33
3530.13
3508.59
3488.68
3470.39
3453.68
3438.52
3424.87
3412.7
3401.97
3392.66
3384.73
3378.18
3372.99
3369.16
3366.66
3365.53
3365.77
3367.32
3370.23
3374.48
3380.11
3387.11
3395.52
3405.37
3416.69
3429.54
3443.95
3459.96
3477.6
3496.9
3517.86
3540.46
3564.66
3590.37
3617.51
3645.92
3675.44
3705.83
3737.37
3768.83
3800.44
3831.84
3862.67
3892.57
3921.17
3948.1
3972.97
3995.44
4015.15
4031.79
4045.08
4054.79
4060.74
4062.77
4060.88
4055.08
4045.42
4032.06
4015.19
3995.07
3972.03
3946.4
3918.59
3889.01
3858.07
3826.22
3793.87
3761.42
3729.38
3697.96
3667.22
3637.48
3608.95
3581.84
3556.26
3532.34
3510.13
3489.66
3470.95
3453.99
3438.76
3425.21
3413.3
3402.96
3394.14
3386.78
3380.81
3376.18
3372.81
3370.7
3369.82
3370.21
3371.79
3374.6
3378.68
3384.03
3390.74
3398.85
3408.42
3419.53
3432.25
3446.63
3462.73
3480.58
3500.21
3521.6
3544.73
3569.52
3595.86
3623.6
3652.55
3682.46
3712.83
3743.89
3775.19
3806.35
3837.01
3866.79
3895.33
3922.31
3947.38
3970.21
3990.52
4008.05
4022.56
4033.87
4041.83
4046.35
4047.3
4044.66
4038.55
4029.02
4016.23
4000.36
3981.64
3960.32
3936.68
3911
3883.63
3854.88
3825.09
3794.64
3763.91
3733.38
3704.51
3677.21
3649.34
3622.23
3596.28
3214.77
3217.86
3222.33
3228.19
3235.47
3244.24
3254.53
3266.43
3279.97
3295.19
3312.15
3330.91
3351.49
3373.92
3398.2
3424.29
3452.13
3481.63
3512.56
3544.8
3578.3
3612.7
3647.66
3682.86
3717.91
3752.41
3785.89
3817.92
3848.09
3876.01
3901.23
3923.43
3942.25
3957.43
3968.71
3975.92
3978.94
3977.48
3971.86
3962.12
3948.36
3930.84
3909.81
3885.58
3858.54
3829.09
3797.62
3764.59
3730.46
3695.63
3660.53
3625.55
3591.03
3557.34
3526.38
3495.48
3465.92
3437.94
3411.66
3387.17
3364.5
3343.67
3324.68
3307.5
3292.1
3278.44
3266.49
3256.21
3247.56
3240.53
3235.1
3231.24
3228.94
3228.22
3229.04
3231.39
3235.28
3240.71
3247.69
3256.22
3266.32
3277.99
3291.24
3306.06
3322.47
3340.47
3360.05
3381.23
3403.98
3428.3
3454.16
3481.5
3510.26
3540.32
3571.53
3603.68
3636.53
3669.81
3703.18
3736.29
3768.78
3800.25
3830.3
3858.52
3884.52
3907.93
3928.4
3945.62
3959.3
3969.21
3975.17
3977.03
3974.75
3968.39
3957.92
3943.51
3925.36
3903.74
3878.98
3851.44
3821.56
3789.77
3756.54
3722.35
3687.65
3652.88
3618.44
3584.72
3552.02
3520.62
3490.75
3462.57
3436.22
3411.78
3389.3
3368.79
3350.25
3333.64
3318.92
3306.03
3294.89
3285.42
3277.55
3271.18
3266.25
3262.68
3260.4
3259.38
3259.6
3261.01
3263.6
3267.37
3272.33
3278.5
3285.9
3294.56
3304.51
3315.83
3328.55
3342.75
3358.49
3375.8
3394.75
3415.34
3437.58
3461.47
3486.96
3513.98
3542.43
3572.15
3602.96
3635.28
3667.62
3700.33
3733.05
3765.36
3796.85
3827.07
3855.58
3881.93
3905.69
3926.48
3943.92
3957.71
3967.6
3973.39
3974.98
3972.32
3965.54
3954.68
3939.96
3921.63
3900.02
3875.49
3848.45
3819.34
3788.6
3756.68
3724.03
3691.08
3658.22
3625.82
3594.18
3563.57
3534.21
3506.25
3479.82
3455
3431.81
3410.27
3390.36
3372.08
3355.38
3340.23
3326.59
3314.42
3303.7
3294.39
3286.47
3279.92
3274.73
3270.9
3268.4
3267.28
3267.5
3269.06
3271.97
3276.22
3281.84
3288.84
3297.24
3307.08
3318.4
3331.24
3345.65
3361.65
3379.29
3398.58
3419.54
3442.14
3466.34
3492.06
3519.21
3547.64
3577.18
3607.63
3639.12
3670.64
3702.29
3733.74
3764.61
3794.56
3823.21
3850.19
3875.11
3897.63
3917.38
3934.07
3947.39
3957.13
3963.09
3965.14
3963.23
3957.42
3947.75
3934.35
3917.44
3897.28
3874.18
3848.51
3820.64
3791
3760.01
3728.11
3695.72
3663.23
3631.16
3599.71
3568.95
3539.18
3510.64
3483.52
3457.94
3434.01
3411.8
3391.33
3372.63
3355.68
3340.45
3326.91
3315
3304.68
3295.87
3288.51
3282.56
3277.92
3274.57
3272.46
3271.58
3271.97
3273.54
3276.36
3280.43
3285.77
3292.47
3300.57
3310.13
3321.24
3333.94
3348.31
3364.41
3382.26
3401.87
3423.27
3446.4
3471.19
3497.54
3525.3
3554.28
3584.21
3614.61
3645.7
3677.04
3708.24
3738.94
3768.77
3797.36
3824.39
3849.5
3872.37
3892.72
3910.28
3924.82
3936.16
3944.13
3948.66
3949.62
3946.96
3940.84
3931.29
3918.47
3902.57
3883.82
3862.46
3838.77
3813.05
3785.63
3756.84
3727.01
3696.52
3665.75
3635.18
3606.29
3578.95
3551.05
3523.92
3497.95
3116.46
3119.55
3124.01
3129.86
3137.14
3145.89
3156.18
3168.06
3181.59
3196.8
3213.75
3232.49
3253.07
3275.49
3299.77
3325.86
3353.71
3383.23
3414.17
3446.43
3479.97
3514.41
3549.42
3584.68
3619.8
3654.36
3687.91
3720.01
3750.27
3778.25
3803.55
3825.81
3844.7
3859.92
3871.24
3878.47
3881.51
3880.03
3874.4
3864.62
3850.82
3833.25
3812.15
3787.85
3760.74
3731.2
3699.66
3666.56
3632.35
3597.46
3562.3
3527.26
3492.71
3458.99
3427.97
3397.06
3367.48
3339.5
3313.22
3288.73
3266.07
3245.25
3226.26
3209.09
3193.7
3180.06
3168.11
3157.84
3149.2
3142.18
3136.75
3132.89
3130.59
3129.88
3130.7
3133.04
3136.93
3142.36
3149.34
3157.87
3167.97
3179.63
3192.87
3207.69
3224.1
3242.09
3261.67
3282.84
3305.59
3329.91
3355.77
3383.12
3411.89
3441.96
3473.2
3505.38
3538.28
3571.59
3605.02
3638.2
3670.75
3702.29
3732.41
3760.7
3786.77
3810.25
3830.78
3848.05
3861.77
3871.72
3877.71
3879.59
3877.3
3870.91
3860.42
3845.96
3827.76
3806.07
3781.23
3753.62
3723.65
3691.78
3658.48
3624.21
3589.44
3554.61
3520.12
3486.35
3453.62
3422.2
3392.31
3364.12
3337.77
3313.33
3290.85
3270.35
3251.82
3235.22
3220.52
3207.64
3196.51
3187.06
3179.21
3172.85
3167.93
3164.37
3162.1
3161.09
3161.31
3162.72
3165.31
3169.08
3174.04
3180.21
3187.6
3196.24
3206.19
3217.49
3230.21
3244.4
3260.12
3277.42
3296.36
3316.94
3339.18
3363.07
3388.56
3415.59
3444.05
3473.81
3504.68
3536.94
3569.36
3602.14
3634.92
3667.3
3698.86
3729.15
3757.74
3784.17
3808.01
3828.87
3846.37
3860.21
3870.13
3875.95
3877.54
3874.87
3868.06
3857.17
3842.39
3824
3802.32
3777.72
3750.6
3721.41
3690.59
3658.6
3625.88
3592.87
3559.95
3527.5
3495.83
3465.2
3435.82
3407.85
3381.42
3356.59
3333.41
3311.87
3291.98
3273.7
3257.01
3241.87
3228.24
3216.08
3205.36
3196.06
3188.14
3181.6
3176.41
3172.58
3170.09
3168.97
3169.19
3170.75
3173.65
3177.9
3183.52
3190.51
3198.91
3208.74
3220.05
3232.88
3247.27
3263.27
3280.9
3300.19
3321.14
3343.74
3367.94
3393.68
3420.84
3449.29
3478.87
3509.37
3540.83
3572.43
3604.13
3635.63
3666.57
3696.58
3725.3
3752.34
3777.33
3799.91
3819.73
3836.47
3849.84
3859.61
3865.6
3867.67
3865.74
3859.92
3850.21
3836.77
3819.81
3799.59
3776.43
3750.68
3722.74
3693.02
3661.97
3630
3597.55
3565.01
3532.9
3501.42
3470.62
3440.83
3412.26
3385.12
3359.54
3335.61
3313.39
3292.93
3274.23
3257.29
3242.07
3228.54
3216.65
3206.33
3197.54
3190.19
3184.24
3179.62
3176.27
3174.17
3173.29
3173.68
3175.25
3178.06
3182.12
3187.46
3194.14
3202.23
3211.78
3222.87
3235.56
3249.92
3266.01
3283.85
3303.46
3324.86
3347.99
3372.79
3399.16
3426.94
3455.94
3485.91
3516.34
3547.48
3578.88
3610.13
3640.89
3670.78
3699.43
3726.52
3751.69
3774.62
3795.02
3812.63
3827.21
3838.57
3846.57
3851.11
3852.08
3849.41
3843.26
3833.68
3820.83
3804.89
3786.08
3764.67
3740.92
3715.14
3687.67
3658.82
3628.93
3598.39
3567.57
3536.96
3508.03
3480.63
3452.7
3425.54
3399.55
3018.09
3021.17
3025.63
3031.47
3038.74
3047.49
3057.76
3069.63
3083.14
3098.33
3115.27
3134
3154.57
3176.98
3201.25
3227.35
3255.21
3284.75
3315.7
3348
3381.58
3416.07
3451.14
3486.48
3521.67
3556.32
3589.97
3622.16
3652.51
3680.59
3705.98
3728.32
3747.28
3762.56
3773.93
3781.19
3784.24
3782.76
3777.1
3767.28
3753.42
3735.78
3714.61
3690.22
3663.01
3633.38
3601.73
3568.54
3534.24
3499.26
3464.03
3428.93
3394.33
3360.58
3329.49
3298.55
3268.97
3240.97
3214.69
3190.2
3167.55
3146.74
3127.77
3110.61
3095.24
3081.6
3069.67
3059.41
3050.78
3043.76
3038.34
3034.48
3032.19
3031.47
3032.29
3034.64
3038.53
3043.95
3050.93
3059.46
3069.55
3081.21
3094.44
3109.26
3125.66
3143.64
3163.22
3184.38
3207.13
3231.45
3257.31
3284.66
3313.44
3343.54
3374.81
3407.04
3439.98
3473.36
3506.85
3540.1
3572.74
3604.36
3634.56
3662.94
3689.1
3712.66
3733.27
3750.61
3764.39
3774.38
3780.4
3782.3
3780.01
3773.59
3763.06
3748.55
3730.28
3708.51
3683.58
3655.87
3625.8
3593.83
3560.42
3526.06
3491.21
3456.3
3421.75
3387.92
3355.15
3323.69
3293.78
3265.58
3239.22
3214.79
3192.31
3171.83
3153.31
3136.73
3122.04
3109.18
3098.07
3088.64
3080.8
3074.47
3069.56
3066.01
3063.75
3062.75
3062.97
3064.38
3066.97
3070.74
3075.7
3081.86
3089.24
3097.88
3107.81
3119.1
3131.8
3145.97
3161.68
3178.97
3197.89
3218.47
3240.71
3264.6
3290.09
3317.13
3345.62
3375.41
3406.34
3438.57
3471.07
3503.92
3536.77
3569.24
3600.89
3631.28
3659.97
3686.49
3710.43
3731.37
3748.95
3762.85
3772.82
3778.66
3780.27
3777.59
3770.75
3759.8
3744.96
3726.49
3704.72
3680.02
3652.81
3623.51
3592.6
3560.52
3527.71
3494.62
3461.64
3429.14
3397.42
3366.75
3337.35
3309.37
3282.94
3258.11
3234.93
3213.41
3193.52
3175.26
3158.58
3143.45
3129.83
3117.68
3106.98
3097.68
3089.77
3083.22
3078.04
3074.21
3071.72
3070.6
3070.82
3072.38
3075.28
3079.53
3085.14
3092.13
3100.51
3110.34
3121.64
3134.46
3148.83
3164.82
3182.43
3201.72
3222.67
3245.27
3269.48
3295.22
3322.41
3350.89
3380.5
3411.05
3442.52
3474.18
3505.96
3537.53
3568.54
3598.63
3627.43
3654.56
3679.64
3702.3
3722.19
3739
3752.43
3762.24
3768.25
3770.34
3768.42
3762.56
3752.82
3739.33
3722.3
3702
3678.75
3652.92
3624.88
3595.08
3563.93
3531.89
3499.36
3466.76
3434.6
3403.07
3372.23
3342.41
3313.81
3286.66
3261.06
3237.13
3214.91
3194.45
3175.76
3158.83
3143.62
3130.11
3118.23
3107.93
3099.14
3091.82
3085.88
3081.27
3077.93
3075.84
3074.96
3075.34
3076.91
3079.72
3083.77
3089.1
3095.77
3103.84
3113.37
3124.45
3137.12
3151.46
3167.54
3185.37
3204.97
3226.37
3249.51
3274.32
3300.7
3328.51
3357.55
3387.56
3418.04
3449.23
3480.69
3512.01
3542.85
3572.82
3601.55
3628.71
3653.96
3676.95
3697.42
3715.09
3729.72
3741.12
3749.14
3753.69
3754.67
3752
3745.82
3736.2
3723.3
3707.3
3688.43
3666.95
3643.14
3617.29
3589.74
3560.82
3530.86
3500.26
3469.37
3438.7
3409.73
3382.25
3354.28
3327.09
3301.07
2919.67
2922.75
2927.2
2933.03
2940.28
2949.02
2959.28
2971.13
2984.62
2999.8
3016.72
3035.43
3055.98
3078.39
3102.66
3128.76
3156.63
3186.18
3217.17
3249.5
3283.13
3317.69
3352.83
3388.26
3423.55
3458.3
3492.06
3524.36
3554.82
3583.01
3608.51
3630.95
3649.99
3665.35
3676.77
3684.07
3687.13
3685.65
3679.95
3670.09
3656.16
3638.44
3617.17
3592.67
3565.35
3535.6
3503.84
3470.53
3436.12
3401.05
3365.73
3330.55
3295.88
3262.1
3230.93
3199.97
3170.37
3142.36
3116.08
3091.59
3068.95
3048.15
3029.2
3012.06
2996.69
2983.08
2971.16
2960.91
2952.29
2945.28
2939.86
2936.01
2933.72
2933.01
2933.83
2936.17
2940.06
2945.48
2952.45
2960.98
2971.06
2982.72
2995.95
3010.76
3027.15
3045.13
3064.7
3085.86
3108.6
3132.91
3158.77
3186.14
3214.93
3245.05
3276.36
3308.64
3341.64
3375.09
3408.66
3442.01
3474.74
3506.47
3536.78
3565.26
3591.53
3615.19
3635.89
3653.31
3667.16
3677.2
3683.25
3685.17
3682.88
3676.44
3665.86
3651.28
3632.93
3611.06
3586.02
3558.18
3527.99
3495.9
3462.38
3427.91
3392.95
3357.95
3323.32
3289.43
3256.6
3225.11
3195.17
3166.96
3140.59
3116.15
3093.69
3073.21
3054.71
3038.15
3023.48
3010.65
2999.56
2990.16
2982.34
2976.03
2971.14
2967.6
2965.35
2964.36
2964.59
2966
2968.59
2972.36
2977.31
2983.46
2990.83
2999.46
3009.38
3020.65
3033.33
3047.48
3063.17
3080.45
3099.36
3119.93
3142.16
3166.05
3191.55
3218.6
3247.11
3276.94
3307.93
3340.15
3372.73
3405.67
3438.62
3471.19
3502.95
3533.46
3562.26
3588.91
3612.96
3634
3651.67
3665.65
3675.67
3681.55
3683.16
3680.48
3673.59
3662.58
3647.66
3629.1
3607.23
3582.41
3555.08
3525.67
3494.63
3462.44
3429.53
3396.35
3363.29
3330.72
3298.95
3268.24
3238.81
3210.82
3184.38
3159.55
3136.38
3114.87
3095
3076.75
3060.09
3044.97
3031.36
3019.23
3008.53
2999.24
2991.34
2984.8
2979.62
2975.79
2973.31
2972.18
2972.4
2973.96
2976.86
2981.11
2986.71
2993.69
3002.06
3011.88
3023.16
3035.96
3050.33
3066.29
3083.9
3103.17
3124.12
3146.72
3170.94
3196.7
3223.9
3252.42
3282.08
3312.69
3344.17
3375.91
3407.77
3439.43
3470.53
3500.72
3529.61
3556.84
3582.02
3604.78
3624.76
3641.65
3655.15
3665.02
3671.07
3673.16
3671.24
3665.36
3655.57
3642.02
3624.91
3604.52
3581.17
3555.22
3527.08
3497.16
3465.91
3433.76
3401.15
3368.48
3336.26
3304.67
3273.78
3243.92
3215.3
3188.12
3162.51
3138.57
3116.35
3095.89
3077.22
3060.29
3045.1
3031.6
3019.74
3009.46
3000.7
2993.38
2987.46
2982.87
2979.54
2977.45
2976.58
2976.96
2978.53
2981.33
2985.37
2990.68
2997.33
3005.39
3014.9
3025.95
3038.61
3052.93
3068.99
3086.81
3106.4
3127.8
3150.94
3175.77
3202.18
3230.01
3259.1
3289.16
3319.69
3350.95
3382.49
3413.89
3444.82
3474.88
3503.7
3530.96
3556.3
3579.38
3599.92
3617.66
3632.35
3643.79
3651.85
3656.41
3657.4
3654.72
3648.51
3638.85
3625.89
3609.83
3590.88
3569.32
3545.42
3519.48
3491.84
3462.83
3432.79
3402.11
3371.15
3340.4
3311.4
3283.82
3255.8
3228.56
3202.52
2821.19
2824.27
2828.71
2834.53
2841.77
2850.49
2860.73
2872.56
2886.03
2901.19
2918.09
2936.79
2957.32
2979.72
3003.98
3030.08
3057.96
3087.54
3118.56
3150.93
3184.63
3219.25
3254.49
3290.01
3325.41
3360.29
3394.17
3426.61
3457.2
3485.52
3511.14
3533.7
3552.85
3568.29
3579.77
3587.11
3590.2
3588.71
3582.97
3573.04
3559.05
3541.22
3519.84
3495.22
3467.77
3437.88
3405.98
3372.54
3338.01
3302.82
3267.39
3232.12
3197.38
3163.56
3132.29
3101.31
3071.68
3043.66
3017.38
2992.9
2970.26
2949.48
2930.54
2913.42
2898.08
2884.48
2872.58
2862.34
2853.73
2846.73
2841.32
2837.48
2835.2
2834.48
2835.3
2837.65
2841.53
2846.95
2853.92
2862.44
2872.52
2884.17
2897.39
2912.19
2928.57
2946.55
2966.1
2987.26
3009.99
3034.3
3060.16
3087.54
3116.35
3146.5
3177.86
3210.19
3243.26
3276.79
3310.46
3343.91
3376.76
3408.6
3439.04
3467.65
3494.04
3517.81
3538.63
3556.14
3570.07
3580.18
3586.27
3588.21
3585.92
3579.44
3568.81
3554.15
3535.7
3513.71
3488.54
3460.57
3430.24
3398
3364.34
3329.74
3294.66
3259.55
3224.83
3190.86
3157.98
3126.44
3096.47
3068.24
3041.87
3017.43
2994.98
2974.51
2956.03
2939.49
2924.85
2912.04
2900.99
2891.61
2883.81
2877.53
2872.66
2869.14
2866.91
2865.92
2866.16
2867.57
2870.16
2873.93
2878.87
2885.02
2892.38
2900.99
2910.89
2922.14
2934.8
2948.93
2964.6
2981.86
3000.75
3021.31
3043.53
3067.42
3092.93
3120
3148.53
3178.4
3209.46
3241.69
3274.36
3307.4
3340.46
3373.15
3405.04
3435.68
3464.62
3491.4
3515.59
3536.76
3554.53
3568.6
3578.68
3584.59
3586.22
3583.52
3576.59
3565.51
3550.5
3531.83
3509.83
3484.88
3457.41
3427.86
3396.69
3364.36
3331.34
3298.05
3264.9
3232.25
3200.42
3169.66
3140.2
3112.19
3085.74
3060.92
3037.75
3016.25
2996.4
2978.17
2961.52
2946.42
2932.83
2920.71
2910.03
2900.75
2892.85
2886.32
2881.14
2877.32
2874.83
2873.71
2873.93
2875.49
2878.39
2882.63
2888.22
2895.19
2903.56
2913.35
2924.62
2937.41
2951.75
2967.7
2985.29
3004.55
3025.5
3048.1
3072.33
3098.1
3125.33
3153.89
3183.59
3214.27
3245.78
3277.62
3309.57
3341.32
3372.53
3402.83
3431.84
3459.19
3484.48
3507.35
3527.45
3544.43
3558.01
3567.94
3574.03
3576.15
3574.23
3568.31
3558.47
3544.84
3527.64
3507.14
3483.67
3457.6
3429.32
3399.28
3367.91
3335.64
3302.91
3270.16
3237.87
3206.22
3175.28
3145.37
3116.71
3089.51
3063.88
3039.93
3017.71
2997.26
2978.6
2961.69
2946.51
2933.03
2921.19
2910.93
2902.19
2894.9
2888.99
2884.41
2881.1
2879.02
2878.15
2878.53
2880.1
2882.89
2886.91
2892.21
2898.84
2906.87
2916.37
2927.39
2940.03
2954.33
2970.37
2988.17
3007.76
3029.15
3052.3
3077.14
3103.58
3131.45
3160.58
3190.71
3221.3
3252.64
3284.27
3315.77
3346.8
3376.97
3405.9
3433.26
3458.71
3481.89
3502.53
3520.35
3535.1
3546.6
3554.7
3559.28
3560.27
3557.58
3551.33
3541.62
3528.59
3512.45
3493.42
3471.76
3447.76
3421.72
3393.98
3364.87
3334.73
3303.96
3272.9
3242.08
3213.02
3185.34
3157.25
3129.97
3103.88
2722.66
2725.73
2730.16
2735.97
2743.2
2751.89
2762.11
2773.93
2787.38
2802.51
2819.39
2838.06
2858.58
2880.96
2905.22
2931.32
2959.21
2988.82
3019.87
3052.3
3086.06
3120.77
3156.1
3191.74
3227.27
3262.29
3296.32
3328.91
3359.65
3388.12
3413.88
3436.57
3455.84
3471.38
3482.93
3490.32
3493.42
3491.93
3486.15
3476.16
3462.07
3444.14
3422.63
3397.86
3370.26
3340.21
3308.15
3274.56
3239.89
3204.56
3169.02
3133.65
3098.82
3064.95
3033.58
3002.56
2972.91
2944.88
2918.59
2894.12
2871.49
2850.73
2831.81
2814.71
2799.39
2785.81
2773.93
2763.71
2755.11
2748.12
2742.72
2738.88
2736.61
2735.89
2736.71
2739.06
2742.94
2748.36
2755.32
2763.84
2773.91
2785.55
2798.76
2813.55
2829.93
2847.89
2867.44
2888.58
2911.31
2935.62
2961.48
2988.87
3017.7
3047.89
3079.29
3111.69
3144.84
3178.47
3212.24
3245.81
3278.79
3310.78
3341.35
3370.11
3396.63
3420.55
3441.48
3459.11
3473.13
3483.31
3489.45
3491.41
3489.12
3482.6
3471.91
3457.16
3438.6
3416.48
3391.16
3363.03
3332.53
3300.13
3266.31
3231.56
3196.34
3161.11
3126.28
3092.23
3059.28
3027.69
2997.68
2969.43
2943.05
2918.62
2896.18
2875.73
2857.27
2840.76
2826.14
2813.36
2802.34
2792.99
2785.23
2778.97
2774.12
2770.63
2768.41
2767.44
2767.68
2769.1
2771.69
2775.45
2780.39
2786.52
2793.87
2802.46
2812.35
2823.58
2836.21
2850.31
2865.96
2883.19
2902.07
2922.61
2944.83
2968.72
2994.23
3021.32
3049.88
3079.8
3110.92
3143.18
3175.96
3209.1
3242.28
3275.11
3307.15
3337.95
3367.05
3393.99
3418.32
3439.63
3457.53
3471.7
3481.85
3487.81
3489.45
3486.74
3479.75
3468.59
3453.48
3434.68
3412.54
3387.44
3359.8
3330.09
3298.76
3266.29
3233.13
3199.72
3166.46
3133.72
3101.82
3071.01
3041.51
3013.48
2987.02
2962.2
2939.05
2917.57
2897.73
2879.52
2862.9
2847.82
2834.24
2822.14
2811.47
2802.2
2794.31
2787.78
2782.61
2778.79
2776.31
2775.19
2775.41
2776.96
2779.86
2784.09
2789.68
2796.64
2804.99
2814.77
2826.02
2838.78
2853.11
2869.04
2886.61
2905.86
2926.8
2949.4
2973.64
2999.44
3026.7
3055.29
3085.05
3115.8
3147.37
3179.29
3211.35
3243.21
3274.54
3304.97
3334.11
3361.59
3387.02
3410.03
3430.25
3447.34
3461.02
3471.02
3477.15
3479.29
3477.36
3471.41
3461.51
3447.79
3430.48
3409.86
3386.25
3360.04
3331.61
3301.42
3269.91
3237.51
3204.66
3171.81
3139.46
3107.72
3076.72
3046.75
3018.05
2990.82
2965.17
2941.22
2919
2898.56
2879.9
2863.01
2847.85
2834.4
2822.58
2812.34
2803.62
2796.35
2790.47
2785.91
2782.61
2780.55
2779.68
2780.06
2781.62
2784.4
2788.41
2793.68
2800.3
2808.3
2817.77
2828.77
2841.38
2855.65
2871.67
2889.46
2909.03
2930.43
2953.58
2978.44
3004.9
3032.82
3062.01
3092.2
3122.86
3154.29
3186.03
3217.64
3248.79
3279.08
3308.14
3335.63
3361.19
3384.49
3405.23
3423.14
3437.97
3449.54
3457.68
3462.28
3463.28
3460.58
3454.28
3444.51
3431.41
3415.18
3396.04
3374.29
3350.17
3324.01
3296.15
3266.93
3236.68
3205.79
3174.64
3143.72
3114.6
3086.8
3058.64
3031.3
3005.17
2624.08
2627.14
2631.56
2637.36
2644.56
2653.24
2663.44
2675.23
2688.65
2703.76
2720.61
2739.26
2759.75
2782.12
2806.37
2832.47
2860.38
2890.02
2921.12
2953.6
2987.44
3022.24
3057.68
3093.45
3129.13
3164.3
3198.5
3231.25
3262.16
3290.81
3316.73
3339.57
3358.97
3374.62
3386.25
3393.69
3396.81
3395.32
3389.5
3379.42
3365.24
3347.18
3325.52
3300.6
3272.82
3242.6
3210.36
3176.6
3141.76
3106.28
3070.61
3035.12
3000.2
2966.28
2934.79
2903.73
2874.05
2846.01
2819.72
2795.25
2772.64
2751.89
2733
2715.93
2700.63
2687.07
2675.21
2665.01
2656.43
2649.45
2644.06
2640.23
2637.96
2637.24
2638.06
2640.41
2644.29
2649.7
2656.66
2665.17
2675.23
2686.87
2700.07
2714.85
2731.22
2749.17
2768.71
2789.84
2812.56
2836.86
2862.73
2890.12
2918.98
2949.21
2980.66
3013.13
3046.37
3080.11
3114.01
3147.72
3180.84
3212.98
3243.72
3272.63
3299.32
3323.38
3344.46
3362.21
3376.34
3386.6
3392.79
3394.77
3392.48
3385.92
3375.16
3360.32
3341.62
3319.35
3293.86
3265.55
3234.87
3202.28
3168.29
3133.36
3097.99
3062.62
3027.68
2993.53
2960.5
2928.85
2898.81
2870.54
2844.15
2819.72
2797.29
2776.86
2758.43
2741.94
2727.36
2714.61
2703.63
2694.31
2686.59
2680.36
2675.54
2672.06
2669.87
2668.91
2669.15
2670.58
2673.17
2676.93
2681.86
2687.98
2695.31
2703.89
2713.75
2724.95
2737.56
2751.63
2767.25
2784.46
2803.32
2823.84
2846.05
2869.94
2895.46
2922.57
2951.17
2981.14
3012.33
3044.63
3077.51
3110.78
3144.1
3177.08
3209.28
3240.26
3269.54
3296.66
3321.16
3342.63
3360.67
3374.95
3385.19
3391.2
3392.85
3390.12
3383.07
3371.82
3356.59
3337.65
3315.35
3290.07
3262.26
3232.36
3200.86
3168.22
3134.9
3101.35
3067.97
3035.14
3003.16
2972.29
2942.75
2914.7
2888.23
2863.41
2840.27
2818.8
2798.99
2780.8
2764.2
2749.14
2735.59
2723.5
2712.85
2703.59
2695.71
2689.19
2684.02
2680.21
2677.73
2676.61
2676.83
2678.38
2681.28
2685.51
2691.09
2698.03
2706.37
2716.13
2727.36
2740.1
2754.4
2770.3
2787.86
2807.09
2828.02
2850.63
2874.88
2900.7
2927.99
2956.63
2986.45
3017.27
3048.91
3080.94
3113.11
3145.1
3176.57
3207.14
3236.43
3264.07
3289.65
3312.8
3333.16
3350.38
3364.16
3374.24
3380.43
3382.59
3380.66
3374.66
3364.69
3350.88
3333.45
3312.69
3288.93
3262.55
3233.96
3203.6
3171.92
3139.37
3106.38
3073.42
3041
3009.18
2978.1
2948.06
2919.32
2892.05
2866.39
2842.42
2820.21
2799.77
2781.13
2764.26
2749.12
2735.69
2723.9
2713.69
2705
2697.76
2691.9
2687.35
2684.08
2682.02
2681.16
2681.53
2683.09
2685.86
2689.85
2695.11
2701.7
2709.67
2719.11
2730.08
2742.66
2756.9
2772.9
2790.67
2810.23
2831.62
2854.78
2879.66
2906.16
2934.12
2963.37
2993.65
3024.38
3055.92
3087.77
3119.51
3150.79
3181.22
3210.42
3238.05
3263.75
3287.17
3308.03
3326.05
3340.97
3352.61
3360.79
3365.42
3366.43
3363.71
3357.37
3347.53
3334.34
3318.01
3298.77
3276.88
3252.64
3226.35
3198.36
3169.01
3138.63
3107.62
3076.36
3045.32
3016.13
2988.2
2959.96
2932.57
2906.38
2525.45
2528.5
2532.91
2538.69
2545.87
2554.53
2564.7
2576.46
2589.85
2604.93
2621.75
2640.37
2660.84
2683.2
2707.44
2733.54
2761.46
2791.13
2822.28
2854.83
2888.75
2923.66
2959.22
2995.14
3030.97
3066.32
3100.7
3133.64
3164.75
3193.58
3219.68
3242.69
3262.24
3278.01
3289.74
3297.23
3300.37
3298.88
3293
3282.85
3268.55
3250.35
3228.53
3203.42
3175.45
3145.04
3112.6
3078.65
3043.63
3007.98
2972.16
2936.55
2901.52
2867.53
2835.92
2804.82
2775.11
2747.05
2720.76
2696.29
2673.7
2652.98
2634.11
2617.06
2601.8
2588.27
2576.43
2566.24
2557.68
2550.71
2545.33
2541.51
2539.24
2538.53
2539.35
2541.7
2545.58
2550.98
2557.94
2566.44
2576.5
2588.12
2601.31
2616.08
2632.44
2650.38
2669.91
2691.03
2713.74
2738.03
2763.9
2791.31
2820.19
2850.46
2881.98
2914.52
2947.87
2981.72
3015.76
3049.62
3082.91
3115.22
3146.13
3175.23
3202.09
3226.32
3247.56
3265.45
3279.69
3290.04
3296.29
3298.31
3296.01
3289.41
3278.56
3263.61
3244.77
3222.34
3196.66
3168.15
3137.26
3104.47
3070.27