/*--------------------------------*- C++ -*----------------------------------*\
| =========                 |                                                 |
| \\      /  F ield         | OpenFOAM: The Open Source CFD Toolbox           |
|  \\    /   O peration     | Version:  3.0.1                                 |
|   \\  /    A nd           | Web:      www.OpenFOAM.org                      |
|    \\/     M anipulation  |                                                 |
\*---------------------------------------------------------------------------*/
FoamFile
{
    version     2.0;
    format      ascii;
    class       volScalarField;
    location    "24.4";
    object      p_rgh;
}
// * * * * * * * * * * * * * * * * * * * * * * * * * * * * * * * * * * * * * //

dimensions      [1 -1 -2 0 0 0 0];

internalField   nonuniform List<scalar> 
21420
(
201.934
170.122
137.311
103.798
69.9406
35.9973
2.59161
-21.1524
-53.1915
-84.055
-113.437
-141.182
-167.204
-191.447
-213.875
-234.482
-253.271
-270.273
-285.526
-299.068
-310.946
-321.207
-329.89
-337.033
-342.673
-346.84
-349.508
-350.682
-350.407
-348.7
-345.512
-340.843
-334.654
-326.929
-317.622
-306.688
-294.1
-279.798
-263.746
-245.921
-226.291
-204.855
-181.631
-156.634
-129.949
-101.693
-71.9903
-40.9923
-9.29974
23.3045
56.5278
89.9642
123.266
156.042
187.901
218.472
247.373
274.229
298.706
320.483
339.276
354.84
366.936
375.395
380.102
380.927
377.867
370.881
360.08
345.57
327.541
306.248
281.977
255.036
225.768
194.556
161.813
127.942
93.325
58.3612
23.4443
-11.0063
-44.0463
-76.7541
-108.359
-138.546
-167.112
-193.916
-218.842
-241.811
-262.779
-281.723
-298.643
-313.561
-326.516
-337.566
-346.782
-354.243
-360.045
-364.273
-366.973
-368.211
-368.097
-366.625
-363.836
-359.736
-354.318
-347.575
-339.491
-330.036
-319.183
-306.893
-293.13
-277.866
-261.069
-242.72
-222.801
-201.312
-178.27
-153.707
-127.674
-100.255
-71.5892
-41.271
-10.4393
21.24
53.4821
85.9864
118.421
150.418
181.582
211.49
239.71
265.811
289.373
310.002
327.334
341.054
350.907
356.704
358.269
355.631
348.747
337.769
322.801
304.089
281.926
256.667
228.708
198.487
166.467
133.132
98.9665
64.4295
29.9626
-4.04233
-37.2717
-68.9756
-99.7313
-128.913
-156.426
-182.197
-206.185
-228.381
-248.797
-267.459
-284.402
-299.674
-313.326
-325.401
-335.95
-345.018
-352.635
-358.839
-363.667
-367.134
-369.263
-370.044
-369.473
-367.577
-364.331
-359.693
-353.643
-346.144
-337.15
-326.618
-314.496
-300.743
-285.317
-268.188
-249.336
-228.759
-206.478
-182.536
-156.996
-129.955
-101.533
-71.881
-41.0555
-9.51804
22.602
55.0401
87.4962
119.645
151.138
181.606
210.675
237.97
263.115
285.75
305.534
322.156
335.347
344.89
350.615
352.34
350.161
343.998
333.947
320.15
302.817
282.2
258.615
232.407
203.956
173.674
141.988
109.331
76.1176
42.7562
9.632
-22.9115
-54.5566
-85.0479
-114.16
-141.72
-167.595
-191.697
-213.972
-234.395
-252.971
-269.729
-284.708
-297.961
-309.548
-319.517
-327.926
-334.834
-340.272
-344.273
-346.888
-348.13
-347.978
-346.463
-343.624
-339.43
-333.868
-326.921
-318.578
-308.81
-297.577
-284.847
-270.593
-254.786
-237.404
-218.425
-197.848
-175.696
-152
-126.816
-100.222
-72.3083
-43.2033
-12.9981
18.4184
50.0188
81.8347
113.623
145.091
175.903
205.716
234.185
260.93
285.581
307.812
327.284
343.676
356.743
366.241
371.972
373.813
371.739
365.645
355.64
341.804
324.378
303.64
279.893
253.521
224.949
194.608
162.932
130.365
97.3283
64.1921
31.3201
-0.76805
-30.528
-60.2615
-88.8581
-116.065
-141.737
-165.781
-188.129
-208.757
-227.663
-244.859
-260.371
-274.226
-286.455
-297.088
-306.147
-313.652
-319.616
-324.048
-326.959
-328.307
-328.092
-326.296
-322.931
-318.01
-311.528
-303.498
-293.943
-282.868
-270.288
-256.217
-240.662
-223.652
-205.214
-185.369
-164.159
-141.632
-117.839
-92.867
-66.8162
-39.8077
-12.1511
15.4358
44.1635
73.2062
102.27
130.995
159.099
186.323
212.234
236.429
201.969
170.141
137.315
103.788
69.9202
35.9697
2.56027
-21.2368
-53.2781
-84.1404
-113.523
-141.267
-167.289
-191.531
-213.957
-234.562
-253.348
-270.347
-285.597
-299.136
-311.013
-321.271
-329.952
-337.094
-342.732
-346.896
-349.565
-350.738
-350.466
-348.758
-345.57
-340.902
-334.716
-326.993
-317.687
-306.756
-294.17
-279.871
-263.821
-245.999
-226.37
-204.935
-181.712
-156.715
-130.028
-101.768
-72.0617
-41.0593
-9.35385
23.2591
56.4931
89.9422
123.259
156.05
187.925
218.513
247.43
274.303
298.796
320.587
339.393
354.969
367.074
375.541
380.253
381.087
378.013
371.025
360.218
345.699
327.658
306.351
282.064
255.105
225.819
194.588
161.828
127.94
93.3067
58.3278
23.3952
-11.0731
-44.1049
-76.8269
-108.441
-138.633
-167.203
-194.009
-218.937
-241.905
-262.873
-281.815
-298.733
-313.648
-326.599
-337.646
-346.858
-354.316
-360.115
-364.339
-367.035
-368.273
-368.157
-366.685
-363.895
-359.796
-354.379
-347.637
-339.554
-330.101
-319.25
-306.962
-293.202
-277.94
-261.144
-242.797
-222.879
-201.391
-178.35
-153.786
-127.751
-100.328
-71.6494
-41.3499
-10.502
21.1873
53.4402
85.957
118.406
150.419
181.601
211.527
239.767
265.887
289.467
310.113
327.461
341.194
351.058
356.861
358.435
355.786
348.9
337.914
322.935
304.208
282.028
256.75
228.771
198.529
166.487
133.132
98.9481
64.3941
29.9127
-4.10297
-37.3305
-69.0682
-99.8175
-129
-156.515
-182.284
-206.272
-228.466
-248.878
-267.538
-284.478
-299.747
-313.396
-325.469
-336.015
-345.081
-352.696
-358.899
-363.726
-367.193
-369.321
-370.1
-369.531
-367.636
-364.39
-359.754
-353.706
-346.21
-337.218
-326.687
-314.568
-300.818
-285.394
-268.267
-249.416
-228.84
-206.56
-182.616
-157.075
-130.03
-101.605
-71.9471
-41.1143
-9.569
22.5606
55.01
87.4789
119.641
151.15
181.634
210.72
238.032
263.194
285.846
305.644
322.279
335.482
345.033
350.764
352.499
350.306
344.142
334.084
320.277
302.931
282.299
258.697
232.471
204.001
173.7
141.997
109.322
76.0924
42.7164
9.57952
-22.9748
-54.6287
-85.1267
-114.244
-141.806
-167.684
-191.786
-214.06
-234.481
-253.055
-269.81
-284.785
-298.035
-309.619
-319.585
-327.993
-334.898
-340.334
-344.335
-346.948
-348.189
-348.035
-346.523
-343.683
-339.49
-333.929
-326.983
-318.641
-308.875
-297.644
-284.916
-270.664
-254.859
-237.478
-218.5
-197.924
-175.772
-152.076
-126.89
-100.293
-72.3765
-43.2673
-13.0559
18.3731
49.9818
81.808
113.608
145.089
175.916
205.744
234.23
260.992
285.659
307.906
327.393
343.799
356.878
366.386
372.124
373.976
371.891
365.794
355.784
341.939
324.499
303.745
279.98
253.589
224.998
194.637
162.943
130.358
97.3063
64.157
31.275
-0.821439
-30.5957
-60.3332
-88.9334
-116.143
-141.816
-165.86
-188.207
-208.834
-227.738
-244.932
-260.441
-274.294
-286.521
-297.152
-306.21
-313.714
-319.677
-324.109
-327.018
-328.366
-328.153
-326.359
-322.992
-318.071
-311.589
-303.559
-294.004
-282.93
-270.35
-256.279
-240.724
-223.714
-205.276
-185.432
-164.221
-141.693
-117.898
-92.9241
-66.8696
-39.8559
-12.1951
15.3968
44.1333
73.1861
102.261
130.998
159.115
186.352
212.278
236.487
202.039
170.179
137.322
103.768
69.8791
35.9146
2.49939
-21.4074
-53.4513
-84.3113
-113.694
-141.438
-167.459
-191.699
-214.122
-234.722
-253.503
-270.496
-285.74
-299.274
-311.145
-321.399
-330.076
-337.214
-342.849
-347.01
-349.678
-350.852
-350.584
-348.875
-345.688
-341.022
-334.839
-327.119
-317.818
-306.892
-294.31
-280.017
-263.972
-246.154
-226.529
-205.096
-181.873
-156.875
-130.184
-101.918
-72.2033
-41.1918
-9.46097
23.1697
56.4251
89.8998
123.245
156.067
187.974
218.596
247.546
274.452
298.976
320.796
339.63
355.228
367.352
375.834
380.557
381.408
378.304
371.314
360.497
345.96
327.895
306.559
282.24
255.246
225.924
194.657
161.863
127.94
93.275
58.2665
23.3033
-11.1994
-44.2154
-76.9648
-108.596
-138.799
-167.375
-194.185
-219.115
-242.083
-263.048
-281.987
-298.901
-313.81
-326.754
-337.794
-346.999
-354.449
-360.241
-364.46
-367.144
-368.383
-368.264
-366.79
-364
-359.9
-354.485
-347.746
-339.666
-330.217
-319.369
-307.085
-293.329
-278.071
-261.279
-242.935
-223.02
-201.534
-178.492
-153.927
-127.889
-100.459
-71.7558
-41.4888
-10.6107
21.0982
53.3725
85.9143
118.391
150.437
181.653
211.617
239.895
266.053
289.671
310.351
327.73
341.489
351.372
357.187
358.782
356.106
349.217
338.216
323.213
304.457
282.242
256.925
228.906
198.621
166.538
133.143
98.9207
64.3329
29.8225
-4.21511
-37.4468
-69.2359
-99.9798
-129.166
-156.681
-182.45
-206.435
-228.624
-249.032
-267.686
-284.62
-299.883
-313.527
-325.595
-336.136
-345.198
-352.81
-359.009
-363.834
-367.3
-369.426
-370.202
-369.638
-367.744
-364.5
-359.867
-353.823
-346.33
-337.342
-326.817
-314.703
-300.957
-285.538
-268.415
-249.567
-228.992
-206.712
-182.766
-157.221
-130.171
-101.737
-72.0689
-41.2205
-9.65977
22.4891
54.9609
87.4553
119.646
151.184
181.701
210.821
238.167
263.363
286.046
305.875
322.537
335.762
345.329
351.07
352.823
350.607
344.442
334.368
320.541
303.168
282.505
258.87
232.607
204.1
173.762
142.022
109.312
76.0507
42.6456
9.48341
-23.0923
-54.764
-85.2753
-114.402
-141.971
-167.851
-191.954
-214.225
-234.643
-253.212
-269.962
-284.931
-298.174
-309.752
-319.712
-328.115
-335.016
-340.448
-344.447
-347.058
-348.298
-348.139
-346.63
-343.79
-339.598
-334.039
-327.096
-318.757
-308.993
-297.766
-285.042
-270.794
-254.993
-237.614
-218.639
-198.065
-175.914
-152.216
-127.027
-100.425
-72.5027
-43.3852
-13.1622
18.2915
49.9163
81.7626
113.586
145.093
175.948
205.808
234.326
261.119
285.819
308.098
327.614
344.048
357.15
366.677
372.431
374.304
372.194
366.094
356.072
342.208
324.742
303.955
280.154
253.725
225.094
194.694
162.963
130.345
97.2621
64.0868
31.1849
-0.928272
-30.7312
-60.4767
-89.084
-116.299
-141.974
-166.018
-188.364
-208.987
-227.888
-245.076
-260.582
-274.43
-286.653
-297.281
-306.336
-313.837
-319.799
-324.23
-327.137
-328.483
-328.276
-326.482
-323.113
-318.192
-311.71
-303.681
-294.126
-283.053
-270.474
-256.403
-240.849
-223.839
-205.401
-185.556
-164.344
-141.815
-118.017
-93.0384
-66.9764
-39.9527
-12.2822
15.3185
44.0731
73.1461
102.243
131.004
159.145
186.41
212.365
236.602
202.144
170.235
137.333
103.738
69.8169
35.8319
2.41333
-21.6689
-53.7114
-84.5674
-113.95
-141.695
-167.715
-191.95
-214.368
-234.962
-253.735
-270.72
-285.955
-299.48
-311.344
-321.59
-330.261
-337.394
-343.024
-347.179
-349.847
-351.024
-350.762
-349.049
-345.864
-341.201
-335.023
-327.309
-318.015
-307.096
-294.521
-280.236
-264.198
-246.386
-226.767
-205.337
-182.116
-157.115
-130.419
-102.144
-72.4158
-41.3909
-9.62189
23.035
56.3226
89.8359
123.224
156.093
188.049
218.72
247.72
274.675
299.246
321.111
339.984
355.617
367.77
376.273
381.012
381.883
378.748
371.752
360.916
346.351
328.249
306.872
282.504
255.458
226.081
194.761
161.914
127.941
93.2277
58.175
23.1661
-11.3883
-44.3806
-77.1716
-108.827
-139.047
-167.633
-194.449
-219.381
-242.349
-263.31
-282.245
-299.151
-314.051
-326.985
-338.015
-347.209
-354.648
-360.43
-364.639
-367.309
-368.548
-368.423
-366.946
-364.156
-360.057
-354.643
-347.909
-339.832
-330.389
-319.547
-307.268
-293.519
-278.267
-261.481
-243.141
-223.23
-201.746
-178.705
-154.138
-128.095
-100.654
-71.9216
-41.6892
-10.772
20.9657
53.272
85.8511
118.371
150.465
181.733
211.753
240.088
266.304
289.977
310.709
328.135
341.932
351.844
357.678
359.295
356.594
349.699
338.67
323.633
304.832
282.565
257.191
229.11
198.761
166.615
133.159
98.8809
64.2421
29.6882
-4.38302
-37.6289
-69.4777
-100.222
-129.413
-156.93
-182.698
-206.678
-228.861
-249.261
-267.906
-284.831
-300.086
-313.721
-325.782
-336.316
-345.371
-352.979
-359.174
-363.996
-367.46
-369.581
-370.359
-369.797
-367.905
-364.663
-360.034
-353.996
-346.509
-337.529
-327.011
-314.904
-301.166
-285.754
-268.636
-249.792
-229.22
-206.939
-182.99
-157.44
-130.381
-101.935
-72.2513
-41.3785
-9.79508
22.3825
54.8881
87.4208
119.653
151.238
181.803
210.973
238.37
263.617
286.349
306.223
322.925
336.184
345.776
351.531
353.305
351.066
344.893
334.796
320.937
303.525
282.815
259.13
232.812
204.249
173.855
142.061
109.3
75.9893
42.5405
9.34035
-23.2675
-54.9658
-85.4971
-114.638
-142.216
-168.101
-192.204
-214.473
-234.885
-253.447
-270.188
-285.148
-298.381
-309.949
-319.902
-328.297
-335.191
-340.619
-344.613
-347.222
-348.457
-348.297
-346.791
-343.95
-339.76
-334.203
-327.264
-318.929
-309.17
-297.948
-285.231
-270.989
-255.193
-237.818
-218.847
-198.276
-176.125
-152.425
-127.232
-100.622
-72.6915
-43.5615
-13.3212
18.1693
49.8185
81.6945
113.554
145.099
175.996
205.903
234.469
261.31
286.06
308.386
327.946
344.421
357.559
367.114
372.89
374.787
372.654
366.548
356.506
342.613
325.106
304.272
280.415
253.928
225.239
194.78
162.994
130.325
97.1956
63.9813
31.0495
-1.08897
-30.9344
-60.692
-89.3101
-116.532
-142.212
-166.255
-188.599
-209.218
-228.112
-245.294
-260.792
-274.634
-286.851
-297.473
-306.524
-314.023
-319.982
-324.411
-327.315
-328.66
-328.462
-326.666
-323.295
-318.373
-311.893
-303.864
-294.31
-283.237
-270.659
-256.589
-241.035
-224.026
-205.588
-185.743
-164.53
-141.998
-118.196
-93.21
-67.1368
-40.0983
-12.4126
15.2009
43.9826
73.0859
102.216
131.012
159.192
186.497
212.495
236.776
202.284
170.31
137.346
103.697
69.7329
35.7211
2.30942
-22.0291
-54.0582
-84.9088
-114.291
-142.037
-168.055
-192.287
-214.697
-235.281
-254.044
-271.018
-286.242
-299.756
-311.609
-321.846
-330.508
-337.635
-343.258
-347.406
-350.071
-351.256
-350.996
-349.281
-346.098
-341.44
-335.269
-327.562
-318.277
-307.367
-294.802
-280.528
-264.5
-246.696
-227.084
-205.659
-182.439
-157.436
-130.733
-102.444
-72.6993
-41.6568
-9.83674
22.8549
56.1855
89.7503
123.196
156.127
188.147
218.885
247.953
274.973
299.607
321.53
340.457
356.135
368.326
376.86
381.618
382.501
379.354
372.339
361.476
346.873
328.723
307.288
282.857
255.741
226.291
194.899
161.983
127.942
93.1646
58.053
22.9835
-11.6406
-44.6011
-77.4484
-109.137
-139.377
-167.977
-194.8
-219.736
-242.703
-263.66
-282.588
-299.485
-314.374
-327.294
-338.31
-347.488
-354.912
-360.681
-364.875
-367.532
-368.767
-368.634
-367.154
-364.364
-360.265
-354.855
-348.125
-340.055
-330.618
-319.783
-307.513
-293.772
-278.528
-261.75
-243.416
-223.51
-202.03
-178.989
-154.419
-128.37
-100.916
-72.1532
-41.9465
-10.9866
20.7887
53.1376
85.7666
118.344
150.501
181.84
211.934
240.346
266.639
290.386
311.187
328.674
342.524
352.475
358.333
359.966
357.258
350.344
339.278
324.194
305.333
282.996
257.545
229.382
198.948
166.717
133.181
98.8275
64.1204
29.5086
-4.6083
-37.8803
-69.7923
-100.543
-129.742
-157.262
-183.028
-207.003
-229.178
-249.567
-268.2
-285.114
-300.357
-313.981
-326.031
-336.556
-345.603
-353.204
-359.394
-364.211
-367.672
-369.788
-370.569
-370.008
-368.119
-364.881
-360.258
-354.227
-346.749
-337.777
-327.269
-315.173
-301.445
-286.041
-268.931
-250.092
-229.523
-207.242
-183.289
-157.731
-130.661
-102.2
-72.4963
-41.5884
-9.97575
22.2401
54.7908
87.3745
119.663
151.308
181.939
211.177
238.642
263.956
286.752
306.687
323.443
336.746
346.371
352.147
353.939
351.687
345.495
335.367
321.467
304.001
283.23
259.477
233.087
204.448
173.98
142.113
109.282
75.9073
42.4002
9.14935
-23.5013
-55.235
-85.7929
-114.953
-142.543
-168.434
-192.538
-214.803
-235.208
-253.761
-270.489
-285.437
-298.657
-310.212
-320.154
-328.539
-335.425
-340.846
-344.835
-347.44
-348.669
-348.509
-347.005
-344.164
-339.975
-334.421
-327.487
-319.158
-309.405
-298.191
-285.482
-271.248
-255.459
-238.091
-219.124
-198.557
-176.407
-152.705
-127.505
-100.885
-72.9432
-43.7969
-13.5339
18.0061
49.6879
81.6035
113.51
145.106
176.061
206.03
234.659
261.565
286.381
308.77
328.389
344.918
358.104
367.697
373.502
375.415
373.28
367.158
357.087
343.153
325.593
304.693
280.763
254.198
225.432
194.895
163.035
130.298
97.1063
63.84
30.8685
-1.30403
-31.2053
-60.9792
-89.6117
-116.844
-142.528
-166.572
-188.913
-209.525
-228.411
-245.584
-261.073
-274.905
-287.114
-297.73
-306.776
-314.27
-320.226
-324.652
-327.553
-328.899
-328.708
-326.911
-323.538
-318.615
-312.136
-304.108
-294.555
-283.484
-270.906
-256.837
-241.284
-224.276
-205.838
-185.992
-164.777
-142.242
-118.434
-93.439
-67.351
-40.2928
-12.5866
15.044
43.8617
73.0055
102.18
131.023
159.253
186.613
212.668
237.007
202.459
170.403
137.363
103.645
69.6261
35.5816
2.19699
-22.4981
-54.4915
-85.335
-114.718
-142.465
-168.481
-192.707
-215.109
-235.682
-254.431
-271.39
-286.6
-300.1
-311.94
-322.165
-330.817
-337.935
-343.551
-347.69
-350.353
-351.543
-351.286
-349.571
-346.391
-341.737
-335.576
-327.879
-318.605
-307.707
-295.153
-280.894
-264.877
-247.084
-227.481
-206.062
-182.844
-157.838
-131.125
-102.821
-73.0539
-41.9892
-10.1058
22.6287
56.0133
89.6426
123.16
156.169
188.27
219.091
248.243
275.346
300.058
322.054
341.048
356.784
369.022
377.594
382.375
383.265
380.116
373.077
362.178
347.527
329.315
307.809
283.297
256.094
226.553
195.071
162.068
127.943
93.0852
57.9003
22.7556
-11.9571
-44.8769
-77.7965
-109.525
-139.792
-168.408
-195.24
-220.18
-243.147
-264.098
-283.017
-299.902
-314.776
-327.68
-338.678
-347.838
-355.243
-360.994
-365.168
-367.815
-369.04
-368.899
-367.415
-364.624
-360.526
-355.12
-348.396
-340.333
-330.905
-320.079
-307.819
-294.089
-278.856
-262.087
-243.76
-223.86
-202.384
-179.345
-154.772
-128.715
-101.245
-72.4525
-42.2599
-11.2544
20.5669
52.9688
85.66
118.309
150.546
181.972
212.16
240.668
267.057
290.898
311.785
329.349
343.264
353.265
359.154
360.797
358.093
351.152
340.039
324.895
305.959
283.535
257.988
229.721
199.181
166.845
133.208
98.7597
63.9674
29.283
-4.89192
-38.2021
-70.1797
-100.945
-130.154
-157.678
-183.442
-207.409
-229.573
-249.949
-268.567
-285.467
-300.696
-314.306
-326.343
-336.857
-345.893
-353.486
-359.668
-364.48
-367.936
-370.049
-370.832
-370.272
-368.386
-365.153
-360.537
-354.517
-347.048
-338.088
-327.592
-315.509
-301.793
-286.401
-269.299
-250.468
-229.902
-207.621
-183.664
-158.097
-131.011
-102.531
-72.8051
-41.8501
-10.2024
22.0613
54.6684
87.3159
119.675
151.396
182.108
211.43
238.981
264.379
287.257
307.267
324.09
337.45
347.117
352.918
354.723
352.47
346.25
336.083
322.129
304.597
283.749
259.91
233.43
204.697
174.135
142.178
109.26
75.804
42.224
8.90979
-23.7944
-55.5722
-86.1634
-115.348
-142.953
-168.851
-192.956
-215.216
-235.612
-254.153
-270.866
-285.798
-299.003
-310.542
-320.469
-328.842
-335.717
-341.13
-345.113
-347.712
-348.933
-348.774
-347.271
-344.431
-340.243
-334.694
-327.767
-319.445
-309.7
-298.495
-285.796
-271.572
-255.792
-238.431
-219.471
-198.909
-176.759
-153.055
-127.848
-101.215
-73.2581
-44.0917
-13.8008
17.801
49.5246
81.4891
113.455
145.114
176.141
206.188
234.896
261.883
286.782
309.25
328.943
345.54
358.786
368.425
374.266
376.194
374.066
367.924
357.814
343.829
326.201
305.221
281.198
254.536
225.672
195.038
163.085
130.263
96.9939
63.6627
30.6415
-1.57431
-31.5437
-61.3384
-89.9891
-117.234
-142.925
-166.969
-189.305
-209.91
-228.786
-245.947
-261.424
-275.245
-287.444
-298.051
-307.09
-314.579
-320.531
-324.954
-327.851
-329.199
-329.012
-327.215
-323.841
-318.918
-312.44
-304.413
-294.861
-283.791
-271.215
-257.147
-241.595
-224.588
-206.15
-186.304
-165.086
-142.547
-118.732
-93.7257
-67.6193
-40.5368
-12.8043
14.8478
43.7103
72.9046
102.134
131.036
159.329
186.757
212.884
237.295
202.668
170.515
137.381
103.581
69.4951
35.4114
2.06179
-23.0624
-55.0099
-85.846
-115.23
-142.978
-168.992
-193.212
-215.603
-236.162
-254.896
-271.837
-287.029
-300.512
-312.337
-322.548
-331.188
-338.295
-343.902
-348.033
-350.693
-351.886
-351.632
-349.918
-346.742
-342.095
-335.944
-328.259
-318.998
-308.114
-295.575
-281.332
-265.33
-247.549
-227.958
-206.545
-183.33
-158.32
-131.597
-103.273
-73.48
-42.3879
-10.4299
22.3557
55.8054
89.5124
123.116
156.218
188.418
219.339
248.591
275.793
300.599
322.684
341.758
357.563
369.859
378.474
383.284
384.182
381.032
373.964
363.022
348.312
330.027
308.434
283.825
256.517
226.866
195.277
162.17
127.942
92.9895
57.7167
22.483
-12.3386
-45.2081
-78.2171
-109.993
-140.29
-168.925
-195.769
-220.714
-243.679
-264.624
-283.533
-300.404
-315.26
-328.144
-339.12
-348.258
-355.64
-361.369
-365.52
-368.154
-369.367
-369.216
-367.728
-364.935
-360.839
-355.437
-348.721
-340.666
-331.248
-320.434
-308.186
-294.47
-279.248
-262.491
-244.174
-224.281
-202.81
-179.772
-155.196
-129.129
-101.642
-72.8196
-42.6299
-11.5755
20.2999
52.7651
85.531
118.265
150.599
182.131
212.43
241.053
267.558
291.511
312.503
330.16
344.153
354.214
360.139
361.796
359.095
352.122
340.953
325.737
306.711
284.183
258.519
230.128
199.461
166.998
133.239
98.6771
63.7823
29.0105
-5.23459
-38.595
-70.6407
-101.427
-130.649
-158.178
-183.939
-207.897
-230.048
-250.408
-269.009
-285.89
-301.102
-314.695
-326.717
-337.217
-346.241
-353.823
-359.998
-364.802
-368.252
-370.363
-371.147
-370.589
-368.707
-365.479
-360.873
-354.864
-347.407
-338.461
-327.979
-315.912
-302.211
-286.832
-269.743
-250.919
-230.358
-208.076
-184.114
-158.536
-131.432
-102.928
-73.1779
-42.164
-10.4755
21.8458
54.5207
87.2447
119.689
151.501
182.311
211.734
239.387
264.887
287.863
307.964
324.868
338.295
348.012
353.845
355.664
353.41
347.157
336.943
322.925
305.312
284.371
260.43
233.841
204.996
174.322
142.254
109.232
75.6792
42.0116
8.62114
-24.1472
-55.9781
-86.609
-115.822
-143.446
-169.353
-193.458
-215.712
-236.097
-254.624
-271.319
-286.232
-299.417
-310.937
-320.848
-329.206
-336.068
-341.47
-345.446
-348.038
-349.251
-349.092
-347.591
-344.751
-340.566
-335.022
-328.102
-319.789
-310.053
-298.86
-286.174
-271.961
-256.192
-238.84
-219.887
-199.331
-177.183
-153.475
-128.259
-101.612
-73.6361
-44.4462
-14.1227
17.5535
49.3291
81.3511
113.387
145.123
176.236
206.377
235.179
262.265
287.263
309.826
329.607
346.288
359.604
369.3
375.184
377.132
375.008
368.843
358.69
344.641
326.932
305.854
281.719
254.942
225.96
195.209
163.145
130.221
96.8577
63.4487
30.3678
-1.90095
-31.9494
-61.7697
-90.4426
-117.703
-143.401
-167.445
-189.776
-210.371
-229.235
-246.382
-261.845
-275.653
-287.839
-298.436
-307.467
-314.95
-320.897
-325.317
-328.209
-329.56
-329.376
-327.579
-324.205
-319.281
-312.805
-304.779
-295.228
-284.161
-271.586
-257.52
-241.968
-224.962
-206.525
-186.677
-165.458
-142.913
-119.09
-94.0703
-67.9421
-40.8308
-13.0658
14.6121
43.5281
72.783
102.079
131.051
159.419
186.929
213.143
237.641
202.912
170.644
137.402
103.504
69.3389
35.2079
1.89173
-23.7112
-55.6118
-86.4412
-115.828
-143.578
-169.589
-193.801
-216.18
-236.723
-255.438
-272.359
-287.53
-300.994
-312.8
-322.995
-331.621
-338.716
-344.312
-348.435
-351.091
-352.286
-352.033
-350.323
-347.152
-342.512
-336.374
-328.702
-319.456
-308.589
-296.068
-281.844
-265.858
-248.092
-228.514
-207.11
-183.897
-158.883
-132.147
-103.802
-73.9778
-42.852
-10.8105
22.0348
55.5612
89.3592
123.064
156.275
188.589
219.627
248.997
276.314
301.23
323.418
342.586
358.472
370.835
379.503
384.344
385.251
382.099
375.001
364.008
349.229
330.858
309.164
284.442
257.01
227.232
195.517
162.287
127.94
92.8769
57.5019
22.1662
-12.7847
-45.5963
-78.712
-110.541
-140.873
-169.531
-196.387
-221.337
-244.301
-265.238
-284.135
-300.989
-315.825
-328.686
-339.637
-348.747
-356.103
-361.805
-365.932
-368.55
-369.748
-369.585
-368.092
-365.299
-361.204
-355.808
-349.1
-341.055
-331.649
-320.849
-308.616
-294.914
-279.707
-262.963
-244.657
-224.773
-203.308
-180.272
-155.691
-129.614
-102.108
-73.2545
-43.0574
-11.9503
19.9873
52.526
85.3788
118.213
150.66
182.314
212.744
241.503
268.143
292.227
313.341
331.106
345.191
355.322
361.291
362.965
360.264
353.253
342.021
326.72
307.589
284.938
259.139
230.603
199.786
167.175
133.274
98.5789
63.5645
28.6904
-5.63734
-39.0593
-71.1762
-101.99
-131.228
-158.762
-184.519
-208.467
-230.602
-250.944
-269.524
-286.384
-301.576
-315.15
-327.154
-337.638
-346.646
-354.218
-360.382
-365.178
-368.621
-370.73
-371.513
-370.958
-369.08
-365.86
-361.265
-355.268
-347.826
-338.896
-328.432
-316.383
-302.699
-287.337
-270.26
-251.446
-230.891
-208.609
-184.64
-159.049
-131.925
-103.392
-73.6139
-42.5316
-10.7959
21.5929
54.3471
87.1603
119.703
151.622
182.546
212.088
239.861
265.48
288.57
308.777
325.776
339.282
349.059
354.928
356.763
354.506
348.217
337.948
323.854
306.148
285.098
261.038
234.32
205.343
174.538
142.343
109.198
75.5321
41.7622
8.2828
-24.5605
-56.4528
-87.1304
-116.377
-144.021
-169.939
-194.045
-216.292
-236.664
-255.173
-271.848
-286.738
-299.901
-311.398
-321.289
-329.631
-336.477
-341.867
-345.834
-348.419
-349.623
-349.464
-347.963
-345.124
-340.943
-335.405
-328.493
-320.19
-310.466
-299.286
-286.614
-272.415
-256.659
-239.318
-220.374
-199.824
-177.678
-153.966
-128.74
-102.076
-74.0772
-44.8607
-14.5006
17.2635
49.1009
81.189
113.307
145.132
176.347
206.597
235.51
262.71
287.825
310.498
330.383
347.16
360.559
370.322
376.255
378.228
376.108
369.918
359.713
345.59
327.785
306.592
282.328
255.417
226.296
195.407
163.213
130.169
96.697
63.1972
30.0467
-2.28515
-32.4221
-62.2734
-90.9723
-118.251
-143.957
-168.002
-190.327
-210.91
-229.759
-246.89
-262.336
-276.128
-288.3
-298.885
-307.906
-315.382
-321.324
-325.74
-328.629
-329.981
-329.8
-328.003
-324.629
-319.705
-313.23
-305.207
-295.657
-284.591
-272.019
-257.954
-242.403
-225.4
-206.963
-187.114
-165.892
-143.342
-119.508
-94.4732
-68.3198
-41.1754
-13.3713
14.3364
43.3148
72.6405
102.014
131.068
159.524
187.129
213.444
238.044
203.189
170.79
137.423
103.414
69.1561
34.9679
1.67686
-24.436
-56.2952
-87.1204
-116.511
-144.264
-170.272
-194.475
-216.839
-237.364
-256.058
-272.955
-288.103
-301.544
-313.329
-323.505
-332.115
-339.196
-344.781
-348.894
-351.547
-352.745
-352.49
-350.785
-347.619
-342.989
-336.865
-329.209
-319.979
-309.133
-296.632
-282.429
-266.463
-248.712
-229.151
-207.757
-184.546
-159.528
-132.778
-104.409
-74.5472
-43.3795
-11.2504
21.6651
55.2802
89.1824
123.003
156.339
188.783
219.955
249.461
276.91
301.952
324.259
343.533
359.512
371.953
380.679
385.557
386.474
383.32
376.188
365.137
350.278
331.809
309.999
285.147
257.573
227.649
195.79
162.42
127.937
92.747
57.2558
21.8064
-13.2918
-46.0461
-79.2833
-111.171
-141.54
-170.225
-197.094
-222.05
-245.013
-265.942
-284.824
-301.659
-316.471
-329.305
-340.227
-349.307
-356.632
-362.304
-366.403
-369.002
-370.182
-370.007
-368.508
-365.714
-361.621
-356.232
-349.533
-341.499
-332.108
-321.323
-309.106
-295.422
-280.231
-263.503
-245.209
-225.336
-203.877
-180.843
-156.258
-130.17
-102.643
-73.757
-43.5434
-12.3791
19.6286
52.251
85.2029
118.152
150.727
182.522
213.102
242.016
268.811
293.046
314.3
332.19
346.38
356.59
362.611
364.305
361.601
354.548
343.244
327.846
308.594
285.803
259.848
231.145
200.157
167.376
133.312
98.4643
63.3131
28.3217
-6.10125
-39.5955
-71.7871
-102.635
-131.891
-159.43
-185.183
-209.119
-231.236
-251.557
-270.113
-286.95
-302.118
-315.669
-327.653
-338.118
-347.11
-354.668
-360.821
-365.607
-369.042
-371.149
-371.932
-371.379
-369.507
-366.296
-361.713
-355.731
-348.304
-339.393
-328.95
-316.921
-303.257
-287.913
-270.852
-252.05
-231.5
-209.218
-185.243
-159.636
-132.488
-103.922
-74.1079
-42.9591
-11.1645
21.3024
54.147
87.0623
119.718
151.76
182.813
212.492
240.402
266.157
289.379
309.708
326.815
340.411
350.257
356.169
358.022
355.759
349.43
339.098
324.917
307.103
285.93
261.732
234.868
205.74
174.785
142.442
109.158
75.362
41.4753
7.89403
-25.0351
-56.997
-87.7283
-117.012
-144.681
-170.61
-194.716
-216.956
-237.312
-255.801
-272.453
-287.317
-300.454
-311.926
-321.794
-330.115
-336.944
-342.32
-346.277
-348.853
-350.05
-349.89
-348.387
-345.55
-341.373
-335.842
-328.94
-320.649
-310.937
-299.772
-287.117
-272.934
-257.193
-239.865
-220.931
-200.388
-178.244
-154.528
-129.291
-102.608
-74.5819
-45.3357
-14.936
16.9316
48.8394
81.0025
113.213
145.141
176.473
206.846
235.886
263.219
288.466
311.265
331.27
348.158
361.652
371.491
377.481
379.484
377.367
371.149
360.886
346.676
328.762
307.436
283.027
255.959
226.678
195.632
163.29
130.108
96.5112
62.9075
29.6769
-2.728
-32.9614
-62.8496
-91.5786
-118.878
-144.594
-168.638
-190.956
-211.527
-230.359
-247.471
-262.897
-276.671
-288.827
-299.398
-308.408
-315.875
-321.812
-326.223
-329.109
-330.463
-330.282
-328.488
-325.113
-320.189
-313.717
-305.695
-296.147
-285.083
-272.513
-258.451
-242.901
-225.899
-207.463
-187.613
-166.388
-143.831
-119.987
-94.9344
-68.7531
-41.5711
-13.7209
14.0202
43.07
72.4765
101.938
131.086
159.642
187.357
213.787
238.505
203.501
170.953
137.445
103.309
68.9453
34.6882
1.40913
-25.2302
-57.0585
-87.8833
-117.28
-145.037
-171.042
-195.234
-217.582
-238.086
-256.755
-273.626
-288.747
-302.163
-313.924
-324.079
-332.67
-339.736
-345.309
-349.412
-352.06
-353.262
-353.003
-351.304
-348.145
-343.525
-337.417
-329.779
-320.567
-309.744
-297.266
-283.087
-267.143
-249.412
-229.868
-208.485
-185.277
-160.254
-133.489
-105.092
-75.1888
-43.9689
-11.7521
21.2451
54.9615
88.9814
122.932
156.409
189
220.324
249.982
277.58
302.764
325.205
344.6
360.684
373.212
382.005
386.922
387.853
384.695
377.527
366.409
351.46
332.88
310.939
285.94
258.206
228.117
196.097
162.568
127.93
92.5992
56.978
21.4047
-13.8486
-46.5702
-79.9338
-111.882
-142.294
-171.007
-197.892
-222.853
-245.815
-266.734
-285.6
-302.413
-317.199
-330.003
-340.892
-349.937
-357.228
-362.866
-366.934
-369.51
-370.67
-370.482
-368.976
-366.18
-362.09
-356.708
-350.02
-341.999
-332.623
-321.856
-309.659
-295.994
-280.822
-264.11
-245.831
-225.969
-204.519
-181.487
-156.898
-130.797
-103.247
-74.3273
-44.0891
-12.8627
19.2231
51.9393
85.0025
118.081
150.801
182.754
213.503
242.592
269.562
293.967
315.379
333.41
347.718
358.019
364.099
365.818
363.106
356.007
344.622
329.114
309.726
286.777
260.645
231.754
200.574
167.601
133.352
98.3324
63.027
27.9034
-6.62741
-40.2042
-72.4748
-103.361
-132.638
-160.184
-185.931
-209.854
-231.951
-252.246
-270.776
-287.586
-302.728
-316.254
-328.214
-338.659
-347.632
-355.174
-361.315
-366.09
-369.517
-371.62
-372.402
-371.852
-369.986
-366.786
-362.216
-356.25
-348.843
-339.952
-329.532
-317.526
-303.885
-288.563
-271.519
-252.729
-232.187
-209.905
-185.922
-160.298
-133.124
-104.519
-74.6447
-43.4627
-11.5822
20.9735
53.9198
86.9501
119.733
151.913
183.113
212.945
241.01
266.919
290.288
310.755
327.985
341.684
351.606
357.568
359.442
357.171
350.798
340.394
326.114
308.18