/*--------------------------------*- C++ -*----------------------------------*\
| =========                 |                                                 |
| \\      /  F ield         | OpenFOAM: The Open Source CFD Toolbox           |
|  \\    /   O peration     | Version:  3.0.1                                 |
|   \\  /    A nd           | Web:      www.OpenFOAM.org                      |
|    \\/     M anipulation  |                                                 |
\*---------------------------------------------------------------------------*/
FoamFile
{
    version     2.0;
    format      ascii;
    class       volScalarField;
    location    "43.8";
    object      p_rgh;
}
// * * * * * * * * * * * * * * * * * * * * * * * * * * * * * * * * * * * * * //

dimensions      [1 -1 -2 0 0 0 0];

internalField   nonuniform List<scalar> 
21420
(
-322.979
-328.856
-333.312
-336.364
-337.984
-338.169
-336.955
-334.303
-330.196
-324.635
-317.579
-308.996
-298.841
-287.059
-273.601
-258.409
-241.433
-222.651
-202.043
-179.595
-155.337
-129.311
-101.574
-72.2282
-41.4183
-9.31183
23.7745
57.6515
92.0988
126.68
161
194.694
227.326
258.487
287.746
314.69
338.966
360.229
378.171
392.549
403.163
409.871
412.559
411.097
405.596
396.179
382.931
366.104
345.927
322.675
296.705
268.366
238.051
206.143
173.037
139.136
104.817
70.4321
36.4089
4.74642
-27.4283
-58.5802
-88.4385
-116.831
-143.62
-168.696
-191.992
-213.461
-233.078
-250.841
-266.751
-280.834
-293.107
-303.589
-312.318
-319.322
-324.633
-328.296
-330.317
-330.717
-329.569
-326.897
-322.688
-316.973
-309.771
-301.098
-290.97
-279.4
-266.4
-251.973
-236.128
-218.87
-200.191
-180.089
-158.565
-135.625
-111.29
-85.6054
-58.6345
-30.4717
-1.24074
28.917
59.7713
91.1059
122.662
154.154
185.272
215.685
245.048
273.01
299.215
323.312
344.962
363.842
379.656
392.143
401.083
406.304
407.612
405.091
398.644
388.34
374.308
356.739
335.881
312.031
285.536
256.781
226.175
194.145
161.127
127.551
93.8348
60.3717
27.53
-4.37884
-35.0718
-64.3144
-91.9202
-117.745
-141.69
-163.69
-183.718
-201.78
-217.9
-232.129
-244.536
-255.204
-264.22
-271.677
-277.673
-282.3
-285.641
-287.794
-288.812
-288.741
-287.675
-285.621
-282.604
-278.639
-273.715
-267.81
-260.891
-252.926
-243.866
-233.658
-222.26
-209.627
-195.712
-180.476
-163.893
-145.938
-126.598
-105.87
-83.7747
-60.34
-35.6167
-9.67755
17.3816
45.4426
74.3783
103.901
133.815
163.859
193.736
223.118
251.654
278.981
304.725
328.514
349.989
368.81
384.659
397.26
406.381
411.844
413.474
411.327
405.352
395.659
382.392
365.784
346.108
323.689
298.882
272.074
243.661
214.05
183.648
152.844
122.012
91.4932
61.597
32.5758
4.64659
-22.0185
-47.291
-71.077
-93.3206
-113.994
-133.094
-150.642
-166.676
-181.24
-194.396
-206.205
-216.725
-226.019
-234.146
-241.158
-247.105
-252.03
-255.967
-258.946
-261.005
-262.137
-262.336
-261.642
-260.018
-257.454
-253.923
-249.385
-243.801
-237.126
-229.299
-220.256
-209.934
-198.27
-185.201
-170.666
-154.615
-137.011
-117.832
-97.0649
-74.7207
-50.8278
-25.4415
1.35613
29.4521
58.7083
88.9376
119.877
151.287
182.874
214.315
245.255
275.312
304.09
331.189
356.203
378.742
398.447
414.989
428.062
437.419
442.89
444.333
441.882
435.377
424.937
410.722
392.984
371.999
348.115
321.693
293.109
262.776
231.112
198.508
165.369
132.079
98.9608
66.3176
34.4985
7.20434
-21.6938
-49.1704
-75.0506
-99.2446
-121.696
-142.379
-161.307
-178.508
-194.037
-207.961
-220.347
-231.267
-240.787
-248.96
-255.826
-261.411
-265.724
-268.763
-270.497
-270.888
-269.63
-266.933
-262.651
-256.707
-249.036
-239.556
-228.203
-214.933
-199.702
-182.503
-163.341
-142.239
-119.27
-94.5294
-68.1343
-40.2434
-11.0587
19.1773
50.2688
81.9134
113.816
145.634
177.039
207.719
237.321
265.511
291.983
316.412
338.507
357.979
374.58
388.109
398.379
405.242
408.617
408.456
404.549
396.966
385.789
371.199
353.471
332.913
-323.038
-328.913
-333.368
-336.42
-338.039
-338.224
-337.012
-334.36
-330.254
-324.694
-317.64
-309.059
-298.906
-287.128
-273.672
-258.483
-241.51
-222.731
-202.124
-179.678
-155.419
-129.393
-101.654
-72.3054
-41.491
-9.37767
23.7178
57.6058
92.0661
126.662
160.998
194.708
227.359
258.537
287.816
314.778
339.07
360.349
378.304
392.692
403.314
410.027
412.723
411.251
405.745
396.323
383.066
366.226
346.034
322.767
296.779
268.422
238.089
206.164
173.041
139.125
104.792
70.3953
36.3624
4.68265
-27.4976
-58.6544
-88.5168
-116.912
-143.703
-168.779
-192.075
-213.544
-233.16
-250.921
-266.83
-280.911
-293.182
-303.662
-312.39
-319.393
-324.703
-328.364
-330.385
-330.782
-329.636
-326.963
-322.754
-317.039
-309.838
-301.166
-291.038
-279.469
-266.47
-252.044
-236.2
-218.944
-200.267
-180.166
-158.643
-135.704
-111.369
-85.6832
-58.7103
-30.544
-1.30809
28.8555
59.7178
91.0619
122.629
154.133
185.265
215.692
245.07
273.048
299.269
323.383
345.047
363.942
379.769
392.268
401.216
406.442
407.76
405.227
398.781
388.47
374.428
356.847
335.973
312.106
285.594
256.82
226.194
194.146
161.11
127.518
93.7867
60.3102
27.4576
-4.46064
-35.1608
-64.4088
-92.018
-117.845
-141.79
-163.79
-183.816
-201.876
-217.993
-232.218
-244.621
-255.284
-264.297
-271.75
-277.741
-282.365
-285.703
-287.853
-288.867
-288.795
-287.728
-285.673
-282.657
-278.691
-273.768
-267.864
-260.948
-252.985
-243.927
-233.721
-222.326
-209.695
-195.782
-180.548
-163.967
-146.014
-126.674
-105.947
-83.852
-60.4165
-35.6919
-9.75026
17.3128
45.3786
74.3217
103.852
133.776
163.832
193.722
223.118
251.67
279.013
304.773
328.579
350.071
368.907
384.769
397.381
406.511
411.979
413.618
411.461
405.484
395.783
382.506
365.885
346.194
323.758
298.934
272.107
243.677
214.05
183.631
152.813
121.968
91.4385
61.5332
32.505
4.57039
-22.0984
-47.373
-71.1598
-93.4033
-114.076
-133.173
-150.72
-166.75
-181.312
-194.464
-206.27
-216.788
-226.079
-234.203
-241.213
-247.158
-252.082
-256.018
-258.996
-261.055
-262.185
-262.385
-261.691
-260.069
-257.505
-253.975
-249.44
-243.858
-237.186
-229.361
-220.321
-210.002
-198.342
-185.275
-170.743
-154.694
-137.093
-117.915
-97.1492
-74.8054
-50.9119
-25.5237
1.27708
29.3774
58.6394
88.8761
119.826
151.246
182.846
214.301
245.257
275.332
304.128
331.245
356.278
378.835
398.556
415.112
428.197
437.564
443.043
444.494
442.034
435.524
425.078
410.854
393.103
372.103
348.203
321.763
293.162
262.811
231.129
198.508
165.353
132.05
98.9208
66.2704
34.4505
7.1203
-21.7745
-49.2512
-75.1319
-99.3259
-121.776
-142.457
-161.382
-178.58
-194.105
-208.025
-220.408
-231.325
-240.842
-249.013
-255.878
-261.462
-265.774
-268.814
-270.549
-270.941
-269.688
-266.994
-262.716
-256.775
-249.108
-239.632
-228.282
-215.014
-199.785
-182.586
-163.425
-142.322
-119.352
-94.6084
-68.209
-40.3125
-11.1206
19.1234
50.2244
81.8802
113.795
145.626
177.044
207.739
237.355
265.56
292.047
316.49
338.599
358.083
374.695
388.233
398.511
405.381
408.765
408.593
404.682
397.097
385.916
371.317
353.579
333.007
-323.157
-329.028
-333.48
-336.53
-338.15
-338.333
-337.126
-334.473
-330.369
-324.812
-317.762
-309.186
-299.038
-287.266
-273.816
-258.633
-241.664
-222.889
-202.286
-179.842
-155.584
-129.556
-101.815
-72.4597
-41.6361
-9.50916
23.6046
57.5144
92.0009
126.626
160.993
194.737
227.424
258.64
287.955
314.953
339.279
360.588
378.569
392.979
403.616
410.339
413.053
411.557
406.046
396.611
383.335
366.471
346.249
322.949
296.927
268.534
238.165
206.205
173.049
139.103
104.743
70.3221
36.2701
4.55524
-27.6356
-58.8024
-88.6726
-117.073
-143.867
-168.945
-192.241
-213.707
-233.32
-251.078
-266.983
-281.061
-293.327
-303.804
-312.528
-319.528
-324.835
-328.493
-330.511
-330.902
-329.759
-327.084
-322.873
-317.158
-309.957
-301.284
-291.156
-279.588
-266.59
-252.165
-236.324
-219.07
-200.395
-180.297
-158.776
-135.837
-111.502
-85.8141
-58.8369
-30.6637
-1.41796
28.7573
59.6357
90.9986
122.587
154.116
185.274
215.73
245.138
273.148
299.401
323.546
345.242
364.165
380.018
392.538
401.503
406.739
408.076
405.523
399.075
388.751
374.689
357.082
336.179
312.278
285.729
256.918
226.255
194.17
161.099
127.473
93.7125
60.2094
27.3355
-4.60135
-35.3157
-64.5739
-92.1899
-118.02
-141.966
-163.964
-183.988
-202.042
-218.152
-232.37
-244.765
-255.42
-264.423
-271.868
-277.852
-282.468
-285.8
-287.944
-288.95
-288.878
-287.807
-285.75
-282.733
-278.769
-273.847
-267.946
-261.034
-253.076
-244.021
-233.82
-222.43
-209.803
-195.895
-180.664
-164.087
-146.136
-126.799
-106.074
-83.9787
-60.542
-35.8147
-9.86841
17.202
45.2772
74.2349
103.781
133.724
163.803
193.719
223.144
251.727
279.102
304.895
328.734
350.257
369.123
385.012
397.646
406.793
412.273
413.927
411.751
405.77
396.053
382.755
366.106
346.385
323.915
299.057
272.195
243.73
214.069
183.619
152.772
121.902
91.3501
61.427
32.3848
4.43961
-22.2364
-47.5149
-71.3034
-93.5462
-114.216
-133.31
-150.851
-166.876
-181.431
-194.578
-206.378
-216.889
-226.175
-234.295
-241.299
-247.24
-252.162
-256.095
-259.071
-261.129
-262.255
-262.459
-261.764
-260.143
-257.582
-254.056
-249.523
-243.946
-237.279
-229.46
-220.425
-210.113
-198.459
-185.398
-170.871
-154.827
-137.231
-118.056
-97.2924
-74.9494
-51.0547
-25.6629
1.14363
29.2524
58.5256
88.7772
119.745
151.187
182.812
214.296
245.284
275.392
304.224
331.377
356.446
379.037
398.789
415.374
428.482
437.868
443.359
444.826
442.345
435.828
425.368
411.124
393.346
372.316
348.383
321.908
293.27
262.883
231.165
198.51
165.324
131.993
98.8418
66.1767
34.3555
6.9528
-21.9351
-49.4123
-75.2942
-99.488
-121.935
-142.612
-161.531
-178.723
-194.24
-208.153
-220.529
-231.439
-240.951
-249.118
-255.98
-261.563
-265.875
-268.916
-270.653
-271.046
-269.803
-267.116
-262.845
-256.913
-249.253
-239.783
-228.438
-215.176
-199.95
-182.754
-163.593
-142.49
-119.516
-94.7664
-68.3584
-40.4504
-11.2444
19.0156
50.1358
81.8139
113.754
145.61
177.056
207.779
237.424
265.659
292.176
316.647
338.782
358.291
374.925
388.482
398.775
405.657
409.056
408.87
404.95
397.361
386.17
371.553
353.793
333.197
-323.335
-329.2
-333.648
-336.695
-338.314
-338.5
-337.297
-334.643
-330.541
-324.989
-317.945
-309.376
-299.236
-287.472
-274.032
-258.856
-241.895
-223.127
-202.529
-180.088
-155.831
-129.802
-102.055
-72.6914
-41.854
-9.70676
23.4345
57.3771
91.9029
126.571
160.986
194.781
227.522
258.793
288.164
315.216
339.592
360.947
378.968
393.409
404.07
410.806
413.537
412.024
406.502
397.044
383.74
366.838
346.572
323.224
297.149
268.703
238.28
206.268
173.062
139.069
104.668
70.2121
36.1314
4.36405
-27.8428
-59.0245
-88.9065
-117.315
-144.114
-169.194
-192.489
-213.953
-233.562
-251.314
-267.214
-281.285
-293.546
-304.017
-312.735
-319.73
-325.033
-328.686
-330.698
-331.087
-329.944
-327.264
-323.052
-317.336
-310.134
-301.461
-291.333
-279.765
-266.768
-252.345
-236.507
-219.256
-200.586
-180.491
-158.972
-136.034
-111.699
-86.0078
-59.024
-30.8405
-1.5801
28.6134
59.5156
90.9068
122.528
154.093
185.291
215.79
245.245
273.301
299.603
323.796
345.537
364.503
380.395
392.948
401.937
407.189
408.549
405.976
399.521
389.176
375.085
357.44
336.491
312.539
285.936
257.069
226.349
194.208
161.085
127.41
93.6044
60.0615
27.1554
-4.80934
-35.5449
-64.8187
-92.4448
-118.281
-142.228
-164.224
-184.242
-202.288
-218.388
-232.595
-244.978
-255.62
-264.611
-272.043
-278.015
-282.62
-285.942
-288.077
-289.072
-288.999
-287.922
-285.862
-282.846
-278.883
-273.963
-268.067
-261.161
-253.208
-244.16
-233.966
-222.583
-209.963
-196.06
-180.836
-164.264
-146.318
-126.983
-106.261
-84.1659
-60.7275
-35.9962
-10.0425
17.0387
45.1275
74.1081
103.678
133.65
163.763
193.718
223.186
251.815
279.238
305.082
328.97
350.54
369.45
385.38
398.048
407.221
412.716
414.39
412.193
406.204
396.462
383.131
366.442
346.675
324.155
299.244
272.33
243.812
214.101
183.604
152.713
121.804
91.22
61.2701
32.2069
4.24588
-22.4411
-47.7256
-71.5164
-93.7584
-114.424
-133.513
-151.046
-167.062
-181.609
-194.746
-206.536
-217.039
-226.316
-234.429
-241.427
-247.362
-252.279
-256.208
-259.182
-261.237
-262.359
-262.567
-261.873
-260.254
-257.697
-254.174
-249.647
-244.077
-237.417
-229.606
-220.58
-210.278
-198.632
-185.581
-171.062
-155.026
-137.436
-118.266
-97.5052
-75.1633
-51.2667
-25.8696
0.945437
29.0668
58.3569
88.6311
119.627
151.102
182.765
214.291
245.326
275.484
304.369
331.576
356.7
379.342
399.141
415.767
428.911
438.324
443.834
445.32
442.818
436.287
425.804
411.53
393.712
372.636
348.653
322.125
293.432
262.991
231.219
198.513
165.28
131.907
98.7228
66.0354
34.211
6.70311
-22.1757
-49.6542
-75.5381
-99.7312
-122.175
-142.845
-161.756
-178.937
-194.444
-208.345
-220.71
-231.611
-241.115
-249.276
-256.134
-261.715
-266.027
-269.068
-270.808
-271.206
-269.977
-267.3
-263.04
-257.118
-249.469
-240.009
-228.673
-215.418
-200.198
-183.005
-163.846
-142.741
-119.762
-95.0035
-68.5827
-40.6575
-11.43
18.8535
50.0027
81.7143
113.691
145.586
177.073
207.838
237.528
265.807
292.368
316.882
339.057
358.603
375.27
388.855
399.17
406.072
409.481
409.295
405.356
397.757
386.55
371.908
354.115
333.482
-323.572
-329.43
-333.873
-336.915
-338.531
-338.725
-337.524
-334.87
-330.771
-325.225
-318.189
-309.629
-299.5
-287.747
-274.319
-259.155
-242.204
-223.445
-202.854
-180.417
-156.161
-130.13
-102.376
-73.0007
-42.145
-9.97097
23.2071
57.1939
91.7718
126.498
160.976
194.839
227.652
258.997
288.443
315.566
340.009
361.426
379.499
393.983
404.675
411.43
414.166
412.657
407.114
397.623
384.28
367.327
347.003
323.589
297.445
268.928
238.433
206.351
173.078
139.024
104.568
70.0648
35.9458
4.10912
-28.1191
-59.321
-89.2187
-117.638
-144.444
-169.526
-192.82
-214.28
-233.883
-251.629
-267.521
-281.585
-293.837
-304.3
-313.011
-320
-325.297
-328.943
-330.946
-331.336
-330.19
-327.505
-323.29
-317.573
-310.37
-301.697
-291.569
-280.002
-267.006
-252.585
-236.752
-219.505
-200.84
-180.749
-159.234
-136.298
-111.962
-86.266
-59.2734
-31.0761
-1.79635
28.4218
59.3559
90.7848
122.449
154.063
185.314
215.871
245.387
273.507
299.873
324.129
345.932
364.955
380.898
393.495
402.518
407.791
409.171
406.589
400.118
389.746
375.614
357.918
336.908
312.889
286.213
257.27
226.475
194.26
161.066
127.326
93.4606
59.8651
26.9148
-5.08652
-35.8505
-65.1448
-92.7846
-118.628
-142.576
-164.569
-184.58
-202.616
-218.702
-232.894
-245.261
-255.886
-264.86
-272.275
-278.232
-282.821
-286.13
-288.252
-289.238
-289.159
-288.075
-286.012
-282.995
-279.034
-274.118
-268.227
-261.329
-253.385
-244.345
-234.161
-222.787
-210.175
-196.281
-181.065
-164.501
-146.56
-127.229
-106.51
-84.4155
-60.9747
-36.2379
-10.2742
16.8209
44.9276
73.9394
103.54
133.55
163.71
193.717
223.242
251.933
279.421
305.331
329.284
350.919
369.888
385.871
398.585
407.792
413.309
414.999
412.791
406.784
397.009
383.634
366.891
347.062
324.476
299.495
272.51
243.922
214.144
183.583
152.635
121.675
91.0464
61.0609
31.9696
3.98753
-22.714
-48.0065
-71.8004
-94.0413
-114.702
-133.783
-151.306
-167.31
-181.845
-194.97
-206.748
-217.239
-226.505
-234.608
-241.597
-247.524
-252.434
-256.358
-259.329
-261.38
-262.5
-262.711
-262.018
-260.401
-257.849
-254.332
-249.812
-244.251
-237.602
-229.8
-220.786
-210.497
-198.864
-185.824
-171.316
-155.29
-137.709
-118.546
-97.789
-75.4485
-51.5493
-26.1454
0.680962
28.8191
58.1315
88.4363
119.469
150.987
182.701
214.284
245.381
275.608
304.564
331.842
357.038
379.75
399.611
416.291
429.483
438.933
444.467
445.974
443.456
436.902
426.386
412.072
394.199
373.063
349.014
322.414
293.648
263.135
231.291
198.517
165.221
131.793
98.5633
65.8457
34.0144
6.3733
-22.4958
-49.9768
-75.8636
-100.056
-122.495
-143.156
-162.055
-179.222
-194.715
-208.601
-220.952
-231.84
-241.333
-249.486
-256.339
-261.917
-266.229
-269.27
-271.014
-271.421
-270.208
-267.544
-263.299
-257.393
-249.758
-240.311
-228.986
-215.741
-200.528
-183.341
-164.183
-143.075
-120.09
-95.3199
-68.882
-40.9339
-11.6776
18.6365
49.825
81.5813
113.607
145.554
177.095
207.917
237.666
266.005
292.625
317.195
339.424
359.02
375.731
389.352
399.698
406.622
410.04
409.865
405.906
398.288
387.058
372.381
354.545
333.861
-323.868
-329.718
-334.154
-337.19
-338.805
-339.006
-337.805
-335.152
-331.059
-325.52
-318.494
-309.946
-299.83
-288.091
-274.678
-259.527
-242.589
-223.842
-203.259
-180.828
-156.574
-130.54
-102.778
-73.3878
-42.5095
-10.3023
22.9219
56.9643
91.6075
126.406
160.963
194.912
227.814
259.252
288.791
316.004
340.532
362.025
380.164
394.701
405.433
412.211
414.95
413.447
407.882
398.348
384.955
367.939
347.542
324.046
297.815
269.208
238.624
206.454
173.098
138.967
104.442
69.8799
35.7126
3.7906
-28.4648
-59.692
-89.6094
-118.043
-144.856
-169.942
-193.234
-214.689
-234.286
-252.023
-267.905
-281.959
-294.202
-304.655
-313.357
-320.338
-325.627
-329.263
-331.258
-331.648
-330.497
-327.805
-323.588
-317.869
-310.665
-301.992
-291.864
-280.298
-267.304
-252.886
-237.058
-219.817
-201.157
-181.072
-159.561
-136.627
-112.29
-86.5892
-59.5859
-31.3713
-2.06731
28.1818
59.1557
90.6317
122.351
154.025
185.343
215.972
245.564
273.764
300.21
324.546
346.426
365.521
381.529
394.18
403.246
408.546
409.942
407.361
400.866
390.458
376.276
358.516
337.43
313.326
286.56
257.523
226.633
194.325
161.042
127.22
93.2801
59.6192
26.613
-5.43377
-36.2332
-65.5532
-93.2099
-119.062
-143.012
-165.001
-185.004
-203.026
-219.096
-233.269
-245.616
-256.22
-265.172
-272.566
-278.503
-283.074
-286.366
-288.472
-289.446
-289.359
-288.267
-286.2
-283.182
-279.223
-274.311
-268.427
-261.539
-253.605
-244.577
-234.404
-223.042
-210.441
-196.557
-181.352
-164.796
-146.862
-127.537
-106.821
-84.728
-61.2843
-36.5403
-10.5646
16.5477
44.6766
73.7279
103.367
133.426
163.642
193.715
223.311
252.08
279.649
305.642
329.678
351.392
370.435
386.486
399.256
408.507
414.051
415.754
413.545
407.511
397.694
384.263
367.452
347.546
324.876
299.808
272.734
244.059
214.197
183.557
152.536
121.512
90.8287
60.7986
31.6722
3.66387
-23.0557
-48.3583
-72.156
-94.3952
-115.05
-134.12
-151.631
-167.621
-182.14
-195.25
-207.012
-217.489
-226.742
-234.832
-241.81
-247.727
-252.629
-256.546
-259.513
-261.558
-262.677
-262.89
-262.198
-260.586
-258.039
-254.529
-250.018
-244.469
-237.832
-230.044
-221.045
-210.771
-199.154
-186.129
-171.635
-155.621
-138.05
-118.896
-98.1444
-75.8053
-51.903
-26.491
0.349529
28.5084
57.8487
88.1923
119.27
150.843
182.62
214.275
245.45
275.762
304.806
332.174
357.46
380.259
400.198
416.947
430.199
439.694
445.257
446.781
444.255
437.674
427.117
412.749
394.809
373.597
349.465
322.775
293.918
263.314
231.38
198.521
165.147
131.648
98.3626
65.6066
33.7628
5.96577
-22.8951
-50.3802
-76.2709
-100.462
-122.895
-143.546
-162.43
-179.58
-195.054
-208.921
-221.254
-232.127
-241.606
-249.749
-256.595
-262.17
-266.482
-269.524
-271.27
-271.688
-270.495
-267.849
-263.624
-257.736
-250.119
-240.689
-229.378
-216.145
-200.941
-183.76
-164.605
-143.494
-120.5
-95.7159
-69.2568
-41.28
-11.9871
18.364
49.6024
81.4147
113.502
145.514
177.123
208.016
237.838
266.252
292.945
317.587
339.883
359.54
376.306
389.975
400.357
407.309
410.74
410.572
406.599
398.955
387.694
372.973
355.082
334.336
-324.224
-330.063
-334.491
-337.52
-339.134
-339.341
-338.141
-335.491
-331.403
-325.873
-318.86
-310.326
-300.225
-288.505
-275.109
-259.975
-243.052
-224.319
-203.747
-181.322
-157.069
-131.032
-103.261
-73.8534
-42.9481
-10.7014
22.5787
56.688
91.4094
126.295
160.947
194.998
228.007
259.557
289.209
316.53
341.159
362.744
380.963
395.564
406.343
413.149
415.894
414.393
408.803
399.221
385.767
368.675
348.189
324.595
298.259
269.545
238.852
206.577
173.121
138.898
104.29
69.6567
35.4306
3.40873
-28.8799
-60.138
-90.0789
-118.529
-145.352
-170.441
-193.732
-215.181
-234.769
-252.496
-268.367
-282.408
-294.639
-305.08
-313.772
-320.743
-326.022
-329.648
-331.634
-332.021
-330.864
-328.166
-323.945
-318.225
-311.019
-302.346
-292.219
-280.654
-267.66
-253.248
-237.425
-220.19
-201.538
-181.46
-159.954
-137.023
-112.685
-86.9779
-59.9616
-31.7264
-2.39341
27.8928
58.9146
90.447
122.231
153.978
185.377
216.093
245.777
274.071
300.614
325.046
347.018
366.2
382.285
395.003
404.119
409.453
410.867
408.289
401.765
391.315
377.072
359.234
338.057
313.851
286.975
257.825
226.821
194.402
161.013
127.091
93.0624
59.323
26.2493
-5.85172
-36.6935
-66.0444
-93.7213
-119.584
-143.537
-165.52
-185.513
-203.519
-219.569
-233.72
-246.042
-256.62
-265.546
-272.915
-278.829
-283.377
-286.649
-288.736
-289.696
-289.597
-288.496
-286.425
-283.407
-279.45
-274.543
-268.668
-261.792
-253.87
-244.855
-234.697
-223.348
-210.761
-196.889
-181.696
-165.151
-147.226
-127.908
-107.196
-85.1036
-61.6563
-36.9039
-10.9139
16.2189
44.3741
73.4734
103.158
133.275
163.56
193.711
223.394
252.255
279.922
306.014
330.15
351.96
371.093
387.224
400.063
409.366
414.943
416.66
414.451
408.384
398.517
385.02
368.126
348.128
325.357
300.183
273.003
244.223
214.26
183.524
152.417
121.315
90.5661
60.4829
31.3141
3.27443
-23.4664
-48.7814
-72.5835
-94.8206
-115.468
-134.526
-152.022
-167.993
-182.495
-195.586
-207.33
-217.789
-227.026
-235.101
-242.065
-247.97
-252.863
-256.772
-259.733
-261.773
-262.891
-263.105
-262.415
-260.807
-258.268
-254.766
-250.266
-244.731
-238.108
-230.336
-221.355
-211.1
-199.502
-186.494
-172.017
-156.019
-138.461
-119.316
-98.5713
-76.234
-52.3282
-26.9065
-0.0493076
28.1345
57.5079
87.8986
119.031
150.669
182.522
214.262
245.532
275.946
305.097
332.573
357.966
380.869
400.904
417.735
431.058
440.609
446.205
447.742
445.212
438.601
427.995
413.563
395.542
374.239
350.006
323.208
294.241
263.529
231.486
198.525
165.056
131.473
98.12
65.3168
33.4529
5.48302
-23.3732
-50.8643
-76.7603
-100.949
-123.375
-144.013
-162.879
-180.009
-195.46
-209.305
-221.617
-232.47
-241.934
-250.064
-256.902
-262.473
-266.785
-269.829
-271.58
-272.007
-270.838
-268.216
-264.013
-258.148
-250.552
-241.143
-229.848
-216.629
-201.437
-184.264
-165.111
-143.997
-120.993
-96.1918
-69.7072
-41.6963
-12.3593
18.0362
49.3347
81.2143
113.375
145.465
177.155
208.133
238.044
266.548
293.33
318.057
340.433
360.165
376.997
390.721
401.149
408.133
411.581
411.419
407.433
399.757
388.458
373.684
355.727
334.906
-324.638
-330.465
-334.885
-337.906
-339.519
-339.731
-338.532
-335.886
-331.805
-326.286
-319.287
-310.769
-300.687
-288.987
-275.612
-260.496
-243.593
-224.876
-204.316
-181.899
-157.648
-131.608
-103.825
-74.3976
-43.4612
-11.1688
22.1767
56.3642
91.177
126.165
160.927
195.097
228.233
259.913
289.696
317.144
341.891
363.583
381.895
396.571
407.405
414.246
416.999
415.495
409.878
400.241
386.714
369.534
348.944
325.235
298.777
269.937
239.118
206.719
173.147
138.815
104.111
69.3946
35.0985
2.96383
-29.3648
-60.659
-90.6274
-119.097
-145.931
-171.024
-194.312
-215.755
-235.333
-253.048
-268.905
-282.933
-295.149
-305.577
-314.256
-321.215
-326.484
-330.097
-332.074
-332.456
-331.291
-328.587
-324.363
-318.641
-311.433
-302.759
-292.633
-281.068
-268.077
-253.67
-237.853
-220.627
-201.983
-181.913
-160.413
-137.485
-113.147
-87.4323
-60.401
-32.1419
-2.77519
27.5544
58.6321
90.2304
122.09
153.923
185.415
216.232
246.024
274.429
301.085
325.629
347.71
366.993
383.169
395.963
405.14
410.514
411.947
409.372
402.816
392.316
378.001
360.073
338.788
314.463
287.46
258.177
227.04
194.491
160.978
126.94
92.8069
58.9756
25.8234
-6.34105
-37.2322
-66.6189
-94.3193
-120.194
-144.149
-166.127
-186.107
-204.095
-220.121
-234.246
-246.539
-257.087
-265.983
-273.323
-279.208
-283.73
-286.979
-289.044
-289.987
-289.876
-288.765
-286.688
-283.668
-279.714
-274.814
-268.949
-262.086
-254.18
-245.18
-235.038
-223.706
-211.134
-197.277
-182.099
-165.565
-147.65
-128.341
-107.634
-85.5424
-62.091
-37.329
-11.3225
15.8344
44.0192
73.1755
102.913
133.098
163.463
193.705
223.489
252.459
280.24
306.448
330.7
352.622
371.86
388.086
401.005
410.369
415.986
417.72
415.508
409.404
399.479
385.903
368.913
348.806
325.917
300.621
273.316
244.414
214.333
183.485
152.276
121.084
90.258
60.1131
30.8948
2.8187
-23.9467
-49.2762
-73.0833
-95.3176
-115.956
-135
-152.478
-168.429
-182.909
-195.979
-207.701
-218.139
-227.357
-235.415
-242.363
-248.255
-253.135
-257.035
-259.99
-262.024
-263.141
-263.355
-262.668
-261.066
-258.534
-255.042
-250.556
-245.036
-238.43
-230.677
-221.718
-211.485
-199.908
-186.921
-172.464
-156.483
-138.941
-119.808
-99.0699
-76.735
-52.8253
-27.3925
-0.515867
27.6967
57.1086
87.5546
118.751
150.465
182.406
214.247
245.627
276.159
305.435
333.037
358.556
381.581
401.728
418.655
432.062
441.676
447.311
448.861
446.329
439.684
429.022
414.514
396.397
374.988
350.637
323.713
294.619
263.779
231.609
198.529
164.949
131.268
97.8344
64.9748
33.0815
4.92727
-23.9295
-51.4294
-77.3313
-101.519
-123.936
-144.558
-163.404
-180.509
-195.935
-209.753
-222.04
-232.87
-242.315
-250.431
-257.26
-262.826
-267.138
-270.186
-271.942
-272.377
-271.238
-268.643
-264.467
-258.629
-251.059
-241.672
-230.397
-217.195
-202.017
-184.853
-165.703
-144.585
-121.57
-96.7481
-70.2338
-42.1832
-12.7956
17.6535
49.0217
80.9797
113.226
145.408
177.193
208.27
238.284
266.893
293.778
318.605
341.076
360.895
377.804
391.593
402.073
409.095
412.563
412.408
408.407
400.696
389.35
374.514
356.48
335.571
-325.112
-330.925
-335.334
-338.348
-339.958
-340.175
-338.978
-336.336
-332.264
-326.757
-319.774
-311.276
-301.215
-289.537
-276.186
-261.092
-244.211
-225.513
-204.967
-182.558
-158.311
-132.266
-104.471
-75.0212
-44.0495
-11.7053
21.7155
55.9924
90.9098
126.014
160.902
195.209
228.49
260.32
290.252
317.845
342.728
364.544
382.962
397.724
408.622
415.501
418.264
416.756
411.106
401.408
387.799
370.517
349.807
325.966
299.368
270.384
239.421
206.881
173.175
138.72
103.904
69.0925
34.7152
2.45615
-29.9197
-61.2555
-91.2556
-119.747
-146.594
-171.691
-194.977
-216.412
-235.978
-253.678
-269.52
-283.532
-295.732
-306.145
-314.81
-321.755
-327.011
-330.612
-332.577
-332.952
-331.779
-329.067
-324.84
-319.116
-311.906
-303.232
-293.106
-281.541
-268.553
-254.152
-238.343
-221.125
-202.492
-182.431
-160.938
-138.015
-113.675
-87.9526
-60.9045
-32.6183
-3.21312
27.166
58.3079
89.9813
121.928
153.858
185.457
216.39
246.305
274.838
301.623
326.296
348.501
367.899
384.18
397.063
406.308
411.728
413.185
410.609
404.02
393.462
379.065
361.032
339.625
315.163
288.013
258.579
227.289
194.591
160.936
126.766
92.5127
58.5764
25.3345
-6.90254
-37.8498
-67.2773
-95.0044
-120.893
-144.851
-166.822
-186.787
-204.753
-220.753
-234.847
-247.108
-257.621
-266.483
-273.789
-279.642
-284.134
-287.356
-289.396
-290.32
-290.193
-289.071
-286.989
-283.967
-280.015
-275.123
-269.271
-262.423
-254.533
-245.552
-235.429
-224.115
-211.56
-197.721
-182.558
-166.039
-148.136
-128.836
-108.135
-86.0446
-62.5889
-37.8162
-11.7907
15.394
43.6114
72.8338
102.63
132.893
163.35
193.697
223.596
252.691
280.602
306.944
331.329
353.379
372.738
389.072
402.083
411.518
417.181
418.934
416.716
410.572
400.58
386.914
369.814
349.582
326.557
301.121
273.673
244.63
214.414
183.439
152.113
120.817
89.9038
59.6886
30.414
2.29614
-24.4973
-49.8428
-73.6557
-95.8867
-116.514
-135.543
-152.999
-168.927
-183.383
-196.427
-208.124
-218.54
-227.736
-235.773
-242.703
-248.58
-253.446
-257.336
-260.283
-262.311
-263.425
-263.641
-262.957
-261.361
-258.838
-255.358
-250.887
-245.385
-238.797
-231.067
-222.132
-211.925
-200.372
-187.41
-172.975
-157.015
-139.49
-120.37
-99.6406
-77.3085
-53.3945
-27.9493
-1.05054
27.1946
56.6502
87.1601
118.428
150.229
182.271
214.227
245.733
276.401
305.821
333.568
359.23
382.394
402.67
419.709
433.21
442.898
448.578
450.134
447.607
440.924
430.198
415.601
397.376
375.846
351.359
324.291
295.05
264.063
231.749
198.531
164.825
131.03
97.5047
64.5786
32.646
4.30034
-24.5637
-52.0756
-77.9841
-102.171
-124.578
-145.183
-164.005
-181.082
-196.477
-210.265
-222.522
-233.328
-242.751
-250.85
-257.668
-263.229
-267.542
-270.594
-272.355
-272.799
-271.694
-269.132
-264.987
-259.179
-251.638
-242.277
-231.025
-217.842
-202.68
-185.526
-166.38
-145.258
-122.23
-97.385
-70.837
-42.7414
-13.2967
17.2158
48.6628
80.7104
113.055
145.341
177.235
208.426
238.558
267.287
294.291
319.232
341.81
361.729
378.726
392.591
403.13
410.195
413.686
413.539
409.521
401.77
390.371
375.464
357.342
336.333
-325.644
-331.442
-335.839
-338.845
-340.453
-340.674
-339.479
-336.843
-332.78
-327.287
-320.323
-311.846
-301.808
-290.157
-276.832
-261.764
-244.906
-226.23
-205.7
-183.301
-159.057
-133.008
-105.199
-75.7246
-44.7139
-12.3119
21.1943
55.5717
90.607
125.842
160.873
195.333
228.777
260.776
290.878
318.634
343.67
365.626
384.164
399.023
409.993
416.915
419.691
418.177
412.489
402.723
389.021
371.624
350.779
326.789
300.033
270.887
239.76
207.061
173.204
138.609
103.669
68.7492
34.2795
1.88595
-30.545
-61.9278
-91.9638
-120.479
-147.341
-172.442
-195.725
-217.151
-236.704
-254.388
-270.213
-284.207
-296.388
-306.783
-315.432
-322.363
-327.604
-331.191
-333.144
-333.508
-332.327
-329.608
-325.378
-319.651
-312.439
-303.763
-293.637
-282.073
-269.089
-254.694
-238.894
-221.687
-203.064
-183.014
-161.53
-138.611
-114.271
-88.5394
-61.4725
-33.156
-3.70778
26.727
57.9412
89.6991
121.743
153.783
185.503
216.567
246.62
275.297
302.227
327.046
349.391
368.92
385.319
398.301
407.625
413.097
414.58
412.002
405.376
394.753
380.264
362.114
340.568
315.952
288.636
259.03
227.568
194.702
160.886
126.567
92.1791
58.1247
24.7818
-7.53694
-38.5472
-68.0204
-95.7772
-121.682
-145.642
-167.606
-187.554
-205.495
-221.465
-235.525
-247.748
-258.223
-267.046
-274.314
-280.13
-284.589
-287.781
-289.792
-290.695
-290.55
-289.415
-287.326
-284.302
-280.354
-275.471
-269.633
-262.801
-254.931
-245.97
-235.869
-224.575
-212.041
-198.221
-183.076
-166.573
-148.683
-129.394
-108.7
-86.6107
-63.1503
-38.3657
-12.3189
14.8971
43.1509
72.4468
102.31
132.66
163.222
193.685
223.715
252.95
281.009
307.502
332.036
354.232
373.726
390.182
403.298
412.813
418.528
420.303
418.078
411.888
401.822
388.052
370.829
350.455
327.278
301.683
274.074
244.873
214.503
183.385
151.928
120.515
89.5025
59.2088
29.8708
1.70613
-25.1187
-50.4818
-74.3011
-96.5282
-117.144
-136.154
-153.587
-169.489
-183.916
-196.932
-208.601
-218.99
-228.162
-236.176
-243.086
-248.945
-253.797
-257.675
-260.613
-262.634
-263.746
-263.963
-263.282
-261.693
-259.18
-255.713
-251.26
-245.776
-239.211
-231.506
-222.599
-212.419