/*--------------------------------*- C++ -*----------------------------------*\
| =========                 |                                                 |
| \\      /  F ield         | OpenFOAM: The Open Source CFD Toolbox           |
|  \\    /   O peration     | Version:  3.0.1                                 |
|   \\  /    A nd           | Web:      www.OpenFOAM.org                      |
|    \\/     M anipulation  |                                                 |
\*---------------------------------------------------------------------------*/
FoamFile
{
    version     2.0;
    format      ascii;
    class       volScalarField;
    location    "17.4";
    object      p;
}
// * * * * * * * * * * * * * * * * * * * * * * * * * * * * * * * * * * * * * //

dimensions      [1 -1 -2 0 0 0 0];

internalField   nonuniform List<scalar> 
22680
(
3610.89
3624.98
3640.33
3656.96
3674.84
3693.97
3714.33
3735.89
3758.6
3782.38
3807.16
3832.85
3859.37
3887.07
3915.53
3943.89
3972.48
4001.01
4029.38
4057.28
4084.58
4110.98
4136.3
4160.27
4182.7
4203.33
4221.94
4238.32
4252.29
4263.69
4272.39
4278.29
4281.35
4281.58
4279.05
4273.68
4265.54
4254.76
4241.44
4225.72
4207.74
4187.7
4165.79
4142.24
4117.26
4091.11
4064.03
4036.25
4008.01
3979.54
3951.06
3922.78
3894.89
3867.55
3840.91
3815.1
3790.23
3766.38
3743.64
3722.06
3701.68
3682.54
3664.67
3648.05
3632.7
3618.61
3605.76
3594.14
3583.73
3574.52
3566.49
3559.61
3553.87
3549.25
3545.73
3543.29
3541.93
3541.65
3542.39
3544.17
3546.99
3550.85
3555.75
3561.71
3568.75
3576.87
3586.11
3596.47
3607.97
3620.66
3634.53
3649.59
3665.86
3683.32
3701.99
3721.82
3742.81
3764.9
3788.05
3812.17
3837.19
3862.98
3889.47
3916.47
3943.84
3971.39
3998.94
4026.31
4053.29
4079.67
4105.22
4129.73
4152.97
4174.75
4194.84
4213.05
4229.21
4243.17
4254.76
4263.89
4270.46
4274.42
4275.64
4274.28
4270.27
4263.63
4254.46
4242.86
4228.95
4212.88
4194.81
4174.93
4153.46
4130.6
4106.59
4081.67
4056.07
4030.02
4003.77
3977.53
3951.51
3925.89
3900.84
3876.51
3853.01
3830.46
3808.93
3788.46
3769.11
3750.88
3733.76
3717.77
3702.85
3688.99
3676.15
3664.28
3653.34
3643.28
3634.06
3625.62
3617.93
3610.93
3604.58
3598.85
3593.74
3589.16
3585.11
3581.59
3578.59
3576.1
3574.14
3572.73
3571.91
3571.72
3572.24
3573.52
3575.67
3578.76
3582.93
3588.25
3594.86
3602.87
3612.41
3623.58
3636.48
3651.17
3667.72
3686.16
3706.48
3728.66
3752.62
3778.25
3805.4
3833.87
3863.43
3893.82
3924.74
3955.89
3986.93
4017.55
4047.42
4076.22
4103.67
4129.5
4153.46
4175.33
4194.93
4212.08
4226.65
4238.51
4247.63
4253.95
4257.48
4258.2
4256.23
4251.64
4244.61
4235.33
4224.04
4211.08
4196.75
4181.71
4166.07
4151.5
4135.88
3512.71
3526.8
3542.16
3558.78
3576.66
3595.79
3616.15
3637.71
3660.42
3684.21
3708.99
3734.68
3761.21
3788.91
3817.38
3845.75
3874.35
3902.89
3931.27
3959.19
3986.5
4012.91
4038.25
4062.24
4084.68
4105.32
4123.95
4140.35
4154.33
4165.74
4174.44
4180.35
4183.43
4183.64
4181.1
4175.73
4167.59
4156.8
4143.47
4127.73
4109.74
4089.69
4067.76
4044.2
4019.2
3993.04
3965.94
3938.14
3909.89
3881.41
3852.92
3824.63
3796.73
3769.39
3742.74
3716.93
3692.05
3668.2
3645.46
3623.88
3603.5
3584.36
3566.49
3549.87
3534.52
3520.43
3507.59
3495.97
3485.56
3476.35
3468.32
3461.44
3455.7
3451.09
3447.57
3445.13
3443.77
3443.49
3444.23
3446.01
3448.83
3452.69
3457.59
3463.55
3470.58
3478.71
3487.94
3498.3
3509.8
3522.49
3536.36
3551.42
3567.68
3585.15
3603.81
3623.65
3644.63
3666.73
3689.88
3714
3739.02
3764.82
3791.32
3818.33
3845.7
3873.26
3900.83
3928.21
3955.2
3981.59
4007.15
4031.68
4054.94
4076.73
4096.83
4115.06
4131.23
4145.19
4156.79
4165.93
4172.51
4176.46
4177.7
4176.32
4172.31
4165.66
4156.49
4144.88
4130.96
4114.87
4096.79
4076.9
4055.41
4032.54
4008.51
3983.57
3957.96
3931.9
3905.64
3879.39
3853.35
3827.72
3802.67
3778.33
3754.84
3732.28
3710.75
3690.28
3670.93
3652.7
3635.59
3619.59
3604.68
3590.83
3577.99
3566.12
3555.18
3545.13
3535.91
3527.48
3519.79
3512.79
3506.44
3500.72
3495.61
3491.03
3486.98
3483.46
3480.46
3477.96
3476
3474.59
3473.76
3473.58
3474.08
3475.36
3477.5
3480.59
3484.74
3490.06
3496.66
3504.67
3514.2
3525.37
3538.25
3552.94
3569.49
3587.93
3608.25
3630.43
3654.4
3680.05
3707.21
3735.69
3765.27
3795.67
3826.61
3857.78
3888.84
3919.47
3949.36
3978.18
4005.65
4031.49
4055.47
4077.36
4096.96
4114.12
4128.7
4140.58
4149.68
4156.01
4159.54
4160.25
4158.27
4153.67
4146.63
4137.33
4126.02
4113.03
4098.67
4083.57
4067.85
4053.14
4037.14
3414.47
3428.55
3443.9
3460.52
3478.4
3497.53
3517.89
3539.45
3562.17
3585.96
3610.74
3636.44
3662.98
3690.69
3719.19
3747.57
3776.19
3804.75
3833.16
3861.11
3888.45
3914.88
3940.25
3964.27
3986.75
4007.42
4026.08
4042.5
4056.51
4067.93
4076.65
4082.57
4085.66
4085.86
4083.3
4077.93
4069.78
4058.98
4045.63
4029.87
4011.85
3991.77
3969.81
3946.21
3921.19
3894.99
3867.86
3840.04
3811.76
3783.26
3754.75
3726.44
3698.52
3671.16
3644.51
3618.68
3593.8
3569.95
3547.2
3525.61
3505.24
3486.1
3468.23
3451.62
3436.27
3422.18
3409.34
3397.73
3387.32
3378.12
3370.09
3363.21
3357.48
3352.86
3349.35
3346.91
3345.56
3345.27
3346.01
3347.79
3350.61
3354.47
3359.37
3365.33
3372.36
3380.48
3389.71
3400.07
3411.57
3424.25
3438.11
3453.17
3469.43
3486.89
3505.55
3525.39
3546.38
3568.48
3591.63
3615.76
3640.79
3666.6
3693.11
3720.14
3747.53
3775.1
3802.69
3830.1
3857.12
3883.53
3909.12
3933.68
3956.96
3978.78
3998.91
4017.16
4033.36
4047.34
4058.96
4068.12
4074.7
4078.66
4079.91
4078.51
4074.5
4067.84
4058.65
4047.02
4033.08
4016.97
3998.86
3978.94
3957.42
3934.51
3910.46
3885.49
3859.84
3833.76
3807.48
3781.2
3755.15
3729.5
3704.43
3680.08
3656.58
3634.02
3612.48
3592.02
3572.67
3554.44
3537.34
3521.35
3506.44
3492.6
3479.76
3467.9
3456.98
3446.93
3437.72
3429.29
3421.61
3414.62
3408.27
3402.57
3397.44
3392.87
3388.82
3385.3
3382.29
3379.8
3377.83
3376.41
3375.58
3375.38
3375.88
3377.15
3379.27
3382.34
3386.48
3391.78
3398.37
3406.36
3415.88
3427.03
3439.91
3454.59
3471.13
3489.57
3509.89
3532.09
3556.07
3581.73
3608.91
3637.42
3667.03
3697.47
3728.45
3759.65
3790.75
3821.43
3851.35
3880.21
3907.71
3933.59
3957.59
3979.5
3999.13
4016.31
4030.9
4042.79
4051.89
4058.22
4061.74
4062.45
4060.45
4055.83
4048.76
4039.43
4028.08
4015.04
4000.61
3985.42
3969.54
3954.63
3938.38
3316.14
3330.22
3345.57
3362.19
3380.06
3399.19
3419.55
3441.12
3463.83
3487.63
3512.42
3538.14
3564.69
3592.42
3620.94
3649.35
3678
3706.6
3735.05
3763.03
3790.41
3816.89
3842.3
3866.37
3888.89
3909.61
3928.31
3944.78
3958.82
3970.27
3979.01
3984.95
3988.04
3988.25
3985.67
3980.28
3972.12
3961.29
3947.91
3932.11
3914.06
3893.93
3871.93
3848.28
3823.21
3796.97
3769.8
3741.93
3713.61
3685.08
3656.53
3628.19
3600.25
3572.87
3546.2
3520.37
3495.47
3471.61
3448.86
3427.27
3406.9
3387.76
3369.89
3353.28
3337.94
3323.86
3311.02
3299.41
3289.02
3279.81
3271.79
3264.92
3259.19
3254.57
3251.06
3248.63
3247.28
3246.99
3247.74
3249.52
3252.34
3256.19
3261.09
3267.04
3274.07
3282.19
3291.41
3301.76
3313.26
3325.93
3339.79
3354.84
3371.1
3388.56
3407.22
3427.06
3448.05
3470.15
3493.31
3517.45
3542.49
3568.32
3594.85
3621.9
3649.31
3676.92
3704.54
3731.99
3759.04
3785.5
3811.13
3835.73
3859.06
3880.91
3901.08
3919.38
3935.61
3949.62
3961.27
3970.44
3977.04
3981
3982.27
3980.86
3976.83
3970.15
3960.94
3949.28
3935.3
3919.15
3901
3881.04
3859.47
3836.52
3812.42
3787.41
3761.72
3735.6
3709.28
3682.97
3656.88
3631.21
3606.13
3581.76
3558.25
3535.68
3514.14
3493.68
3474.33
3456.11
3439.01
3423.03
3408.14
3394.3
3381.48
3369.63
3358.72
3348.68
3339.48
3331.07
3323.39
3316.4
3310.07
3304.37
3299.25
3294.67
3290.63
3287.11
3284.1
3281.6
3279.63
3278.2
3277.35
3277.14
3277.62
3278.87
3280.97
3284.02
3288.14
3293.41
3299.98
3307.94
3317.44
3328.58
3341.43
3356.1
3372.64
3391.08
3411.41
3433.61
3457.61
3483.3
3510.52
3539.07
3568.72
3599.22
3630.25
3661.51
3692.67
3723.41
3753.39
3782.3
3809.86
3835.78
3859.82
3881.77
3901.43
3918.64
3933.25
3945.16
3954.27
3960.59
3964.1
3964.79
3962.77
3958.12
3951.01
3941.63
3930.23
3917.11
3902.59
3887.26
3871.17
3855.96
3839.26
3217.75
3231.82
3247.16
3263.77
3281.64
3300.77
3321.13
3342.7
3365.42
3389.22
3414.03
3439.76
3466.33
3494.08
3522.64
3551.09
3579.78
3608.43
3636.93
3664.96
3692.4
3718.93
3744.41
3768.53
3791.12
3811.9
3830.66
3847.18
3861.27
3872.76
3881.53
3887.49
3890.59
3890.79
3888.2
3882.79
3874.61
3863.74
3850.32
3834.48
3816.37
3796.18
3774.12
3750.41
3725.28
3698.98
3671.74
3643.82
3615.45
3586.87
3558.28
3529.9
3501.93
3474.52
3447.83
3421.98
3397.07
3373.2
3350.44
3328.85
3308.48
3289.34
3271.47
3254.87
3239.54
3225.46
3212.63
3201.03
3190.64
3181.44
3173.42
3166.56
3160.83
3156.22
3152.72
3150.29
3148.95
3148.65
3149.4
3151.19
3154
3157.85
3162.75
3168.7
3175.72
3183.83
3193.05
3203.39
3214.88
3227.55
3241.4
3256.45
3272.7
3290.15
3308.81
3328.65
3349.64
3371.75
3394.92
3419.07
3444.13
3469.98
3496.54
3523.61
3551.07
3578.71
3606.38
3633.87
3660.97
3687.48
3713.17
3737.82
3761.21
3783.12
3803.35
3821.69
3837.97
3852.02
3863.7
3872.91
3879.52
3883.49
3884.77
3883.35
3879.3
3872.6
3863.36
3851.66
3837.64
3821.44
3803.23
3783.21
3761.58
3738.57
3714.41
3689.34
3663.59
3637.42
3611.04
3584.69
3558.57
3532.87
3507.75
3483.37
3459.84
3437.26
3415.72
3395.25
3375.91
3357.7
3340.61
3324.64
3309.76
3295.94
3283.13
3271.3
3260.4
3250.38
3241.2
3232.79
3225.13
3218.16
3211.83
3206.14
3201.02
3196.45
3192.41
3188.89
3185.87
3183.37
3181.39
3179.94
3179.08
3178.85
3179.31
3180.53
3182.61
3185.63
3189.71
3194.96
3201.49
3209.42
3218.89
3230
3242.84
3257.49
3274.02
3292.45
3312.79
3335.01
3359.04
3384.77
3412.03
3440.63
3470.35
3500.91
3532.02
3563.36
3594.6
3625.41
3655.47
3684.45
3712.08
3738.06
3762.17
3784.17
3803.87
3821.11
3835.75
3847.68
3856.8
3863.12
3866.61
3867.29
3865.23
3860.54
3853.38
3843.93
3832.45
3819.24
3804.59
3789.09
3772.76
3757.17
3740.2
3119.27
3133.34
3148.67
3165.27
3183.14
3202.26
3222.63
3244.2
3266.93
3290.74
3315.57
3341.31
3367.91
3395.68
3424.3
3452.79
3481.54
3510.24
3538.8
3566.9
3594.4
3621.01
3646.56
3670.76
3693.43
3714.28
3733.12
3749.71
3763.85
3775.39
3784.2
3790.19
3793.29
3793.49
3790.89
3785.45
3777.24
3766.34
3752.86
3736.96
3718.78
3698.53
3676.39
3652.6
3627.39
3601.01
3573.7
3545.71
3517.27
3488.63
3459.99
3431.56
3403.55
3376.11
3349.39
3323.52
3298.59
3274.71
3251.94
3230.35
3209.97
3190.84
3172.98
3156.38
3141.05
3126.98
3114.16
3102.57
3092.19
3083
3074.99
3068.13
3062.41
3057.81
3054.31
3051.89
3050.55
3050.26
3051.01
3052.79
3055.61
3059.46
3064.35
3070.29
3077.31
3085.41
3094.62
3104.95
3116.43
3129.09
3142.93
3157.97
3174.22
3191.67
3210.32
3230.16
3251.16
3273.27
3296.45
3320.62
3345.7
3371.58
3398.17
3425.28
3452.78
3480.47
3508.19
3535.74
3562.91
3589.49
3615.24
3639.97
3663.43
3685.41
3705.7
3724.11
3740.45
3754.55
3766.28
3775.51
3782.15
3786.14
3787.42
3786
3781.92
3775.19
3765.91
3754.16
3740.08
3723.82
3705.54
3685.45
3663.75
3640.66
3616.42
3591.27
3565.45
3539.21
3512.78
3486.37
3460.2
3434.45
3409.3
3384.89
3361.35
3338.76
3317.21
3296.75
3277.41
3259.2
3242.13
3226.18
3211.32
3197.51
3184.73
3172.92
3162.03
3152.03
3142.86
3134.48
3126.83
3119.87
3113.56
3107.87
3102.76
3098.2
3094.16
3090.64
3087.62
3085.11
3083.11
3081.65
3080.77
3080.52
3080.95
3082.14
3084.18
3087.16
3091.21
3096.41
3102.9
3110.8
3120.23
3131.31
3144.12
3158.76
3175.27
3193.7
3214.05
3236.29
3260.35
3286.12
3313.44
3342.11
3371.91
3402.55
3433.75
3465.19
3496.53
3527.44
3557.6
3586.67
3614.38
3640.45
3664.62
3686.69
3706.44
3723.73
3738.4
3750.35
3759.49
3765.81
3769.28
3769.93
3767.83
3763.09
3755.86
3746.34
3734.75
3721.42
3706.63
3690.92
3674.32
3658.3
3640.97
3020.73
3034.78
3050.1
3066.7
3084.56
3103.68
3124.04
3145.62
3168.36
3192.19
3217.03
3242.8
3269.42
3297.22
3325.9
3354.45
3383.26
3412.03
3440.66
3468.85
3496.43
3523.12
3548.76
3573.05
3595.82
3616.77
3635.69
3652.36
3666.58
3678.18
3687.03
3693.04
3696.16
3696.36
3693.74
3688.27
3680.02
3669.07
3655.53
3639.56
3621.3
3600.96
3578.72
3554.85
3529.54
3503.07
3475.67
3447.59
3419.08
3390.36
3361.66
3333.18
3305.12
3277.64
3250.88
3224.98
3200.04
3176.14
3153.36
3131.77
3111.39
3092.26
3074.4
3057.81
3042.49
3028.43
3015.62
3004.04
2993.67
2984.49
2976.49
2969.64
2963.93
2959.34
2955.85
2953.44
2952.1
2951.81
2952.56
2954.34
2957.16
2961
2965.89
2971.83
2978.83
2986.92
2996.12
3006.45
3017.91
3030.56
3044.39
3059.42
3075.66
3093.11
3111.76
3131.59
3152.6
3174.72
3197.91
3222.1
3247.21
3273.12
3299.75
3326.91
3354.45
3382.21
3409.99
3437.61
3464.86
3491.51
3517.35
3542.16
3565.71
3587.78
3608.15
3626.63
3643.04
3657.21
3668.99
3678.26
3684.93
3688.93
3690.22
3688.79
3684.68
3677.92
3668.59
3656.78
3642.64
3626.3
3607.94
3587.76
3565.96
3542.78
3518.45
3493.21
3467.31
3440.98
3414.47
3388
3361.77
3335.98
3310.79
3286.35
3262.78
3240.18
3218.62
3198.16
3178.83
3160.64
3143.58
3127.65
3112.81
3099.02
3086.26
3074.47
3063.61
3053.63
3044.49
3036.12
3028.49
3021.55
3015.25
3009.58
3004.47
2999.92
2995.88
2992.36
2989.33
2986.81
2984.8
2983.32
2982.42
2982.14
2982.53
2983.68
2985.68
2988.62
2992.62
2997.77
3004.22
3012.07
3021.46
3032.5
3045.28
3059.89
3076.39
3094.82
3115.17
3137.44
3161.54
3187.36
3214.75
3243.51
3273.39
3304.15
3335.46
3367.01
3398.47
3429.5
3459.77
3488.96
3516.77
3542.93
3567.19
3589.33
3609.15
3626.49
3641.2
3653.18
3662.34
3668.65
3672.11
3672.72
3670.57
3665.77
3658.46
3648.84
3637.14
3623.67
3608.7
3592.75
3575.86
3559.36
3541.59
2922.11
2936.14
2951.45
2968.04
2985.9
3005.01
3025.38
3046.96
3069.71
3093.55
3118.42
3144.21
3170.86
3198.7
3227.46
3256.07
3284.95
3313.8
3342.53
3370.8
3398.48
3425.27
3451.01
3475.41
3498.29
3519.35
3538.38
3555.14
3569.44
3581.11
3590.01
3596.06
3599.19
3599.38
3596.75
3591.25
3582.95
3571.94
3558.33
3542.27
3523.92
3503.48
3481.14
3457.15
3431.73
3405.15
3377.65
3349.47
3320.87
3292.07
3263.29
3234.74
3206.62
3179.1
3152.3
3126.37
3101.41
3077.49
3054.71
3033.1
3012.72
2993.6
2975.74
2959.16
2943.86
2929.81
2917.01
2905.44
2895.08
2885.92
2877.92
2871.09
2865.39
2860.8
2857.32
2854.92
2853.58
2853.3
2854.06
2855.84
2858.65
2862.49
2867.37
2873.3
2880.3
2888.37
2897.56
2907.87
2919.33
2931.96
2945.78
2960.8
2977.03
2994.47
3013.11
3032.95
3053.96
3076.09
3099.3
3123.51
3148.65
3174.59
3201.27
3228.48
3256.09
3283.91
3311.77
3339.48
3366.81
3393.56
3419.5
3444.4
3468.05
3490.22
3510.69
3529.26
3545.75
3559.99
3571.83
3581.16
3587.86
3591.88
3593.17
3591.73
3587.59
3580.79
3571.4
3559.53
3545.3
3528.87
3510.41
3490.13
3468.23
3444.94
3420.5
3395.16
3369.15
3342.73
3316.14
3289.59
3263.29
3237.44
3212.2
3187.73
3164.13
3141.51
3119.95
3099.49
3080.17
3061.99
3044.95
3029.04
3014.22
3000.47
2987.73
2975.97
2965.14
2955.18
2946.06
2937.72
2930.11
2923.19
2916.91
2911.25
2906.15
2901.6
2897.57
2894.05
2891.02
2888.48
2886.46
2884.96
2884.02
2883.71
2884.06
2885.17
2887.12
2890.01
2893.95
2899.05
2905.44
2913.23
2922.57
2933.57
2946.31
2960.89
2977.37
2995.8
3016.17
3038.46
3062.61
3088.49
3115.96
3144.81
3174.81
3205.68
3237.13
3268.82
3300.42
3331.58
3361.99
3391.3
3419.24
3445.51
3469.87
3492.1
3512
3529.4
3544.16
3556.17
3565.35
3571.66
3575.09
3575.67
3573.46
3568.58
3561.18
3551.45
3539.62
3525.98
3510.81
3494.59
3477.38
3460.36
3442.12
2823.41
2837.43
2852.73
2869.31
2887.15
2906.27
2926.63
2948.22
2970.98
2994.84
3019.73
3045.55
3072.24
3100.11
3128.96
3157.64
3186.61
3215.56
3244.38
3272.75
3300.55
3327.45
3353.31
3377.84
3400.84
3422.03
3441.18
3458.05
3472.44
3484.19
3493.15
3499.24
3502.39
3502.57
3499.92
3494.38
3486.03
3474.95
3461.26
3445.1
3426.64
3406.08
3383.62
3359.5
3333.96
3307.26
3279.64
3251.35
3222.64
3193.74
3164.88
3136.25
3108.07
3080.49
3053.66
3027.69
3002.7
2978.76
2955.97
2934.35
2913.97
2894.85
2877.01
2860.44
2845.14
2831.11
2818.33
2806.77
2796.43
2787.27
2779.29
2772.47
2766.78
2762.21
2758.73
2756.34
2755.01
2754.73
2755.49
2757.27
2760.08
2763.92
2768.79
2774.71
2781.7
2789.76
2798.93
2809.23
2820.67
2833.29
2847.09
2862.1
2878.32
2895.75
2914.39
2934.23
2955.24
2977.38
3000.61
3024.85
3050.02
3076.01
3102.74
3130.01
3157.69
3185.59
3213.54
3241.33
3268.77
3295.62
3321.67
3346.7
3370.46
3392.74
3413.32
3432
3448.58
3462.91
3474.81
3484.2
3490.94
3494.98
3496.28
3494.82
3490.65
3483.8
3474.34
3462.39
3448.07
3431.54
3412.97
3392.57
3370.55
3347.13
3322.57
3297.11
3270.99
3244.46
3217.77
3191.13
3164.75
3138.84
3113.55
3089.03
3065.4
3042.77
3021.2
3000.74
2981.42
2963.26
2946.25
2930.36
2915.57
2901.85
2889.14
2877.41
2866.61
2856.68
2847.59
2839.28
2831.69
2824.79
2818.54
2812.89
2807.8
2803.26
2799.24
2795.71
2792.67
2790.12
2788.08
2786.55
2785.59
2785.23
2785.54
2786.6
2788.5
2791.32
2795.2
2800.23
2806.56
2814.29
2823.57
2834.51
2847.21
2861.76
2878.22
2896.65
2917.03
2939.36
2963.56
2989.51
3017.07
3046.03
3076.16
3107.17
3138.76
3170.61
3202.37
3233.69
3264.25
3293.71
3321.79
3348.18
3372.66
3394.99
3414.98
3432.45
3447.27
3459.31
3468.51
3474.82
3478.23
3478.76
3476.49
3471.53
3464.02
3454.16
3442.18
3428.36
3412.97
3396.46
3378.89
3361.32
3342.57
2724.64
2738.65
2753.93
2770.49
2788.33
2807.44
2827.8
2849.39
2872.17
2896.05
2920.97
2946.82
2973.55
3001.47
3030.41
3059.18
3088.24
3117.29
3146.22
3174.72
3202.63
3229.67
3255.66
3280.33
3303.47
3324.8
3344.09
3361.08
3375.59
3387.42
3396.45
3402.58
3405.75
3405.93
3403.25
3397.67
3389.26
3378.1
3364.32
3348.05
3329.47
3308.78
3286.18
3261.92
3236.23
3209.39
3181.63
3153.22
3124.39
3095.39
3066.42
3037.72
3009.46
2981.82
2954.94
2928.93
2903.91
2879.96
2857.14
2835.52
2815.14
2796.03
2778.19
2761.63
2746.35
2732.34
2719.57
2708.03
2697.7
2688.56
2680.6
2673.78
2668.11
2663.55
2660.08
2657.7
2656.38
2656.1
2656.87
2658.65
2661.46
2665.29
2670.15
2676.06
2683.03
2691.08
2700.24
2710.52
2721.94
2734.54
2748.33
2763.32
2779.53
2796.95
2815.59
2835.43
2856.44
2878.6
2901.85
2926.11
2951.32
2977.36
3004.15
3031.49
3059.25
3087.24
3115.28
3143.18
3170.73
3197.71
3223.88
3249.04
3272.92
3295.33
3316.04
3334.83
3351.52
3365.94
3377.93
3387.38
3394.16
3398.23
3399.53
3398.06
3393.85
3386.95
3377.42
3365.38
3350.96
3334.31
3315.62
3295.08
3272.92
3249.36
3224.66
3199.06
3172.81
3146.16
3119.36
3092.62
3066.16
3040.17
3014.82
2990.25
2966.59
2943.94
2922.36
2901.9
2882.6
2864.45
2847.46
2831.61
2816.85
2803.16
2790.49
2778.79
2768.02
2758.13
2749.07
2740.79
2733.24
2726.36
2720.13
2714.49
2709.42
2704.89
2700.87
2697.34
2694.29
2691.73
2689.67
2688.11
2687.11
2686.71
2686.97
2687.97
2689.81
2692.56
2696.37
2701.33
2707.58
2715.24
2724.46
2735.34
2747.99
2762.5
2778.94
2797.36
2817.76
2840.12
2864.38
2890.42
2918.08
2947.17
2977.43
3008.6
3040.36
3072.39
3104.33
3135.83
3166.56
3196.19
3224.42
3250.96
3275.57
3298.01
3318.1
3335.65
3350.53
3362.62
3371.84
3378.14
3381.53
3382.01
3379.67
3374.6
3366.98
3356.98
3344.83
3330.81
3315.17
3298.34
3280.4
3262.27
3242.96
2625.79
2639.78
2655.05
2671.6
2689.42
2708.53
2728.89
2750.49
2773.28
2797.18
2822.13
2848.02
2874.79
2902.75
2931.81
2960.67
2989.83
3019
3048.06
3076.69
3104.74
3131.91
3158.06
3182.88
3206.18
3227.67
3247.11
3264.25
3278.87
3290.8
3299.9
3306.08
3309.27
3309.45
3306.74
3301.12
3292.64
3281.4
3267.51
3251.12
3232.4
3211.56
3188.81
3164.39
3138.55
3111.55
3083.64
3055.08
3026.12
2997
2967.93
2939.13
2910.8
2883.09
2856.15
2830.1
2805.04
2781.07
2758.24
2736.61
2716.23
2697.12
2679.29
2662.75
2647.49
2633.49
2620.74
2609.22
2598.9
2589.78
2581.83
2575.03
2569.37
2564.82
2561.37
2559
2557.69
2557.41
2558.18
2559.97
2562.77
2566.6
2571.45
2577.35
2584.31
2592.34
2601.48
2611.74
2623.14
2635.73
2649.5
2664.47
2680.67
2698.08
2716.71
2736.54
2757.57
2779.74
2803.01
2827.31
2852.56
2878.65
2905.5
2932.92
2960.76
2988.85
3017
3045.02
3072.7
3099.81
3126.13
3151.42
3175.46
3198.01
3218.85
3237.77
3254.58
3269.11
3281.19
3290.7
3297.54
3301.63
3302.94
3301.45
3297.2
3290.24
3280.63
3268.49
3253.95
3237.17
3218.34
3197.65
3175.34
3151.63
3126.77
3101.02
3074.63
3047.84
3020.91
2994.06
2967.5
2941.43
2916.01
2891.4
2867.7
2845.03
2823.44
2802.98
2783.69
2765.57
2748.6
2732.78
2718.06
2704.41
2691.77
2680.12
2669.39
2659.53
2650.51
2642.26
2634.74
2627.89
2621.68
2616.06
2611.01
2606.49
2602.47
2598.94
2595.89
2593.31
2591.22
2589.64
2588.59
2588.15
2588.35
2589.29
2591.05
2593.73
2597.45
2602.33
2608.5
2616.09
2625.23
2636.05
2648.64
2663.11
2679.53
2697.94
2718.35
2740.76
2765.08
2791.21
2818.99
2848.21
2878.63
2909.98
2941.93
2974.15
3006.29
3037.99
3068.92
3098.73
3127.13
3153.83
3178.58
3201.15
3221.35
3239
3253.94
3266.08
3275.33
3281.63
3284.98
3285.41
3282.98
3277.82
3270.06
3259.91
3247.58
3233.34
3217.43
3200.26
3181.92
3163.2
3143.31
2526.87
2540.84
2556.09
2572.62
2590.44
2609.53
2629.89
2651.5
2674.3
2698.24
2723.22
2749.15
2775.96
2803.97
2833.16
2862.11
2891.4
2920.69
2949.89
2978.66
3006.86
3034.19
3060.5
3085.49
3108.98
3130.64
3150.25
3167.54
3182.29
3194.33
3203.52
3209.75
3212.96
3213.14
3210.4
3204.72
3196.18
3184.83
3170.83
3154.31
3135.44
3114.44
3091.51
3066.92
3040.9
3013.72
2985.65
2956.94
2927.83
2898.58
2869.39
2840.49
2812.07
2784.28
2757.29
2731.19
2706.1
2682.1
2659.26
2637.62
2617.24
2598.13
2580.31
2563.79
2548.54
2534.56
2521.83
2510.33
2500.04
2490.93
2483
2476.22
2470.57
2466.04
2462.6
2460.24
2458.94
2458.67
2459.45
2461.23
2464.03
2467.85
2472.7
2478.58
2485.52
2493.54
2502.66
2512.9
2524.28
2536.84
2550.59
2565.55
2581.72
2599.12
2617.75
2637.58
2658.61
2680.8
2704.09
2728.43
2753.72
2779.87
2806.79
2834.3
2862.24
2890.43
2918.71
2946.86
2974.67
3001.93
3028.4
3053.86
3078.05
3100.76
3121.75
3140.82
3157.76
3172.41
3184.58
3194.18
3201.06
3205.18
3206.5
3205
3200.7
3193.67
3183.97
3171.72
3157.05
3140.13
3121.15
3100.3
3077.81
3053.93
3028.9
3002.98
2976.43
2949.5
2922.43
2895.45
2868.79
2842.63
2817.14
2792.46
2768.73
2746.03
2724.43
2703.98
2684.7
2666.6
2649.67
2633.88
2619.2
2605.59
2593
2581.38
2570.7
2560.89
2551.9
2543.69
2536.2
2529.39
2523.2
2517.61
2512.57
2508.06
2504.04
2500.51
2497.45
2494.86
2492.74
2491.12
2490.04
2489.54
2489.68
2490.54
2492.23
2494.82
2498.46
2503.25
2509.33
2516.82
2525.89
2536.63
2549.17
2563.59
2579.97
2598.38
2618.81
2641.26
2665.66
2691.88
2719.79
2749.16
2779.76
2811.3
2843.46
2875.9
2908.26
2940.18
2971.33
3001.34
3029.93
3056.81
3081.72
3104.43
3124.75
3142.49
3157.51
3169.7
3178.98
3185.28
3188.6
3188.96
3186.45
3181.16
3173.26
3162.94
3150.41
3135.93
3119.74
3102.22
3083.45
3064.15
3043.66
2427.88
2441.82
2457.05
2473.57
2491.37
2510.45
2530.82
2552.43
2575.25
2599.21
2624.23
2650.2
2677.06
2705.12
2734.45
2763.51
2792.92
2822.36
2851.71
2880.64
2909.01
2936.5
2962.99
2988.17
3011.85
3033.71
3053.5
3070.96
3085.86
3098.02
3107.29
3113.58
3116.82
3116.99
3114.22
3108.49
3099.86
3088.41
3074.28
3057.61
3038.58
3017.4
2994.28
2969.5
2943.29
2915.93
2887.67
2858.79
2829.52
2800.12
2770.81
2741.79
2713.28
2685.41
2658.35
2632.2
2607.08
2583.05
2560.19
2538.54
2518.16
2499.06
2481.25
2464.74
2449.52
2435.56
2422.85
2411.37
2401.1
2392.02
2384.1
2377.34
2371.71
2367.19
2363.77
2361.42
2360.13
2359.87
2360.65
2362.43
2365.23
2369.04
2373.88
2379.75
2386.67
2394.67
2403.77
2413.98
2425.34
2437.88
2451.61
2466.55
2482.71
2500.09
2518.71
2538.54
2559.58
2581.78
2605.1
2629.47
2654.82
2681.03
2708.03
2735.63
2763.67
2791.99
2820.39
2848.68
2876.65
2904.07
2930.71
2956.34
2980.7
3003.59
3024.75
3043.97
3061.06
3075.83
3088.12
3097.79
3104.74
3108.9
3110.22
3108.69
3104.35
3097.24
3087.44
3075.07
3060.27
3043.19
3024.04
3003.01
2980.34
2956.27
2931.05
2904.95
2878.22
2851.12
2823.9
2796.79
2770.01
2743.75
2718.18
2693.45
2669.67
2646.94
2625.34
2604.89
2585.62
2567.55
2550.65
2534.9
2520.27
2506.7
2494.16
2482.59
2471.95
2462.19
2453.25
2445.08
2437.63
2430.85
2424.69
2419.12
2414.1
2409.6
2405.59
2402.06
2398.99
2396.37
2394.23
2392.57
2391.44
2390.88
2390.95
2391.74
2393.34
2395.84
2399.38
2404.07
2410.05
2417.46
2426.43
2437.09
2449.56
2463.93
2480.29
2498.68
2519.13
2541.63
2566.1
2592.44
2620.48
2650.02
2680.81
2712.56
2744.95
2777.63
2810.24
2842.4
2873.78
2904.02
2932.81
2959.88
2984.96
3007.83
3028.28
3046.13
3061.24
3073.49
3082.79
3089.09
3092.38
3092.67
3090.06
3084.65
3076.59
3066.08
3053.34
3038.61
3022.12
3004.22
2985.01
2965.1
2944
2328.81
2342.72
2357.93
2374.43
2392.21
2411.29
2431.65
2453.28
2476.11
2500.1
2525.16
2551.18
2578.09
2606.21
2635.69
2664.86
2694.41
2724
2753.52
2782.62
2811.16
2838.84
2865.53
2890.91
2914.8
2936.87
2956.87
2974.51
2989.57
3001.86
3011.23
3017.58
3020.85
3021.01
3018.21
3012.41
3003.7
2992.14
2977.87
2961.04
2941.82
2920.45
2897.13
2872.14
2845.71
2818.15
2789.7
2760.63
2731.19
2701.64
2672.18
2643.04
2614.42
2586.47
2559.34
2533.14
2507.97
2483.92
2461.04
2439.38
2419
2399.9
2382.11
2365.62
2350.42
2336.49
2323.8
2312.35
2302.1
2293.03
2285.14
2278.4
2272.78
2268.28
2264.88
2262.54
2261.26
2261.01
2261.8
2263.58
2266.38
2270.18
2275
2280.85
2287.76
2295.74
2304.81
2315
2326.33
2338.85
2352.55
2367.47
2383.61
2400.98
2419.59
2439.42
2460.47
2482.68
2506.03
2530.44
2555.84
2582.13
2609.2
2636.91
2665.06
2693.5
2722.05
2750.5
2778.63
2806.23
2833.05
2858.86
2883.42
2906.49
2927.83
2947.23
2964.48
2979.39
2991.79
3001.56
3008.57
3012.76
3014.1
3012.54
3008.15
3000.96
2991.05
2978.55
2963.6
2946.35
2927.01
2905.78
2882.91
2858.64
2833.22
2806.91
2780
2752.72
2725.34
2698.08
2671.18
2644.81
2619.15
2594.35
2570.53
2547.78
2526.15
2505.71
2486.47
2468.42
2451.56
2435.86
2421.27
2407.75
2395.26
2383.74
2373.15
2363.44
2354.55
2346.42
2339.01
2332.27
2326.14
2320.59
2315.59
2311.11
2307.11
2303.58
2300.49
2297.86
2295.69
2293.99
2292.8
2292.18
2292.18
2292.88
2294.39
2296.79
2300.22
2304.81
2310.68
2317.98
2326.86
2337.43
2349.82
2364.14
2380.46
2398.85
2419.31
2441.86
2466.42
2492.88
2521.07
2550.79
2581.79
2613.77
2646.41
2679.35
2712.22
2744.65
2776.28
2806.76
2835.78
2863.05
2888.33
2911.36
2931.95
2949.93
2965.13
2977.44
2986.77
2993.07
2996.32
2996.54
2993.82
2988.27
2980.05
2969.34
2956.36
2941.37
2924.56
2906.27
2886.61
2866.09
2844.34
2229.66
2243.55
2258.73
2275.21
2292.98
2312.05
2332.41
2354.04
2376.89
2400.92
2426.02
2452.09
2479.05
2507.22
2536.88
2566.17
2595.86
2625.62
2655.32
2684.6
2713.34
2741.21
2768.11
2793.71
2817.83
2840.14
2860.35
2878.19
2893.43
2905.85
2915.32
2921.75
2925.05
2925.2
2922.37
2916.5
2907.69
2896
2881.58
2864.58
2845.18
2823.59
2800.05
2774.83
2748.18
2720.39
2691.73
2662.46
2632.84
2603.11
2573.5
2544.23
2515.51
2487.47
2460.26
2434
2408.79
2384.7
2361.8
2340.14
2319.75
2300.67
2282.89
2266.42
2251.24
2237.33
2224.68
2213.25
2203.02
2193.98
2186.11
2179.39
2173.79
2169.31
2165.92
2163.6
2162.34
2162.1
2162.89
2164.67
2167.47
2171.26
2176.07
2181.9
2188.79
2196.74
2205.79
2215.95
2227.26
2239.75
2253.42
2268.31
2284.43
2301.79
2320.39
2340.22
2361.27
2383.5
2406.88
2431.34
2456.8
2483.15
2510.32
2538.13
2566.41
2594.99
2623.68
2652.3
2680.61
2708.4
2735.42
2761.44
2786.2
2809.47
2831.01
2850.6
2868.01
2883.07
2895.6
2905.47
2912.56
2916.79
2918.13
2916.55
2912.1
2904.82
2894.8
2882.16
2867.04
2849.61
2830.06
2808.63
2785.54
2761.04
2735.4
2708.88
2681.76
2654.29
2626.73
2599.32
2572.28
2545.79
2520.05
2495.18
2471.3
2448.52
2426.89
2406.45
2387.22
2369.21
2352.39
2336.73
2322.2
2308.73
2296.3
2284.83
2274.3
2264.64
2255.8
2247.72
2240.36
2233.65
2227.56
2222.04
2217.06
2212.59
2208.6
2205.06
2201.97
2199.32
2197.11
2195.37
2194.12
2193.43
2193.35
2193.97
2195.37
2197.67
2200.99
2205.45
2211.2
2218.39
2227.16
2237.65
2249.96
2264.21
2280.49
2298.87
2319.35
2341.96
2366.61
2393.19
2421.55
2451.46
2482.69
2514.92
2547.83
2581.05
2614.21
2646.92
2678.82
2709.57
2738.83
2766.33
2791.8
2815.02
2835.77
2853.87
2869.17
2881.55
2890.92
2897.21
2900.42
2900.57
2897.74
2892.03
2883.63
2872.71
2859.49
2844.21
2827.07
2808.38
2788.24
2767.12
2744.68
2130.44
2144.3
2159.46
2175.91
2193.66
2212.72
2233.07
2254.71
2277.59
2301.65
2326.79
2352.92
2379.93
2408.15
2438
2467.42
2497.28
2527.21
2557.11
2586.59
2615.53
2643.61
2670.73
2696.57
2720.94
2743.49
2763.95
2782.01
2797.43
2810
2819.59
2826.08
2829.42
2829.57
2826.69
2820.76
2811.84
2800.02
2785.44
2768.25
2748.63
2726.82
2703.04
2677.57
2650.68
2622.66
2593.76
2564.28
2534.46
2504.55
2474.78
2445.37
2416.53
2388.39
2361.1
2334.78
2309.52
2285.4
2262.48
2240.81
2220.42
2201.35
2183.59
2167.14
2151.99
2138.11
2125.48
2114.08
2103.88
2094.86
2087.01
2080.31
2074.74
2070.28
2066.91
2064.61
2063.35
2063.12
2063.92
2065.71
2068.5
2072.28
2077.07
2082.89
2089.75
2097.68
2106.7
2116.84
2128.11
2140.57
2154.22
2169.08
2185.18
2202.52
2221.1
2240.93
2261.99
2284.24
2307.66
2332.16
2357.68
2384.11
2411.37
2439.3
2467.71
2496.44
2525.29
2554.09
2582.59
2610.58
2637.82
2664.06
2689.04
2712.53
2734.28
2754.07
2771.67
2786.89
2799.56
2809.54
2816.7
2820.97
2822.32
2820.71
2816.2
2808.82
2798.68
2785.89
2770.59
2752.96
2733.2
2711.54
2688.21
2663.48
2637.6
2610.85
2583.5
2555.83
2528.08
2500.5
2473.31
2446.71
2420.86
2395.91
2371.99
2349.17
2327.53
2307.1
2287.89
2269.91
2253.14
2237.53
2223.05
2209.65
2197.27
2185.87
2175.39
2165.79
2157
2148.98
2141.67
2135
2128.95
2123.46
2118.5
2114.04
2110.06
2106.53
2103.42
2100.75
2098.5
2096.71
2095.41
2094.65
2094.48
2095
2096.29
2098.47
2101.67
2106
2111.63
2118.7
2127.35
2137.73
2149.95
2164.14
2180.38
2198.74
2219.25
2241.91
2266.66
2293.38
2321.91
2352.04
2383.5
2416.01
2449.21
2482.73
2516.2
2549.22
2581.42
2612.44
2641.97
2669.71
2695.4
2718.81
2739.72
2757.96
2773.37
2785.83
2795.23
2801.53
2804.69
2804.76
2801.8
2795.94
2787.33
2776.19
2762.71
2747.13
2729.65
2710.55
2689.92
2668.19
2645.04
2031.14
2044.97
2060.1
2076.53
2094.26
2113.3
2133.66
2155.31
2178.2
2202.29
2227.49
2253.68
2280.74
2309
2339.07
2368.62
2398.65
2428.78
2458.88
2488.57
2517.73
2546.04
2573.39
2599.49
2624.13
2646.95
2667.66
2685.96
2701.57
2714.31
2724.02
2730.59
2733.97
2734.1
2731.19
2725.17
2716.14
2704.18
2689.42
2672.03
2652.2
2630.14
2606.1
2580.37
2553.22
2524.94
2495.8
2466.09
2436.05
2405.95
2376.01
2346.44
2317.48
2289.23
2261.86
2235.48
2210.17
2186.02
2163.08
2141.39
2121.01
2101.94
2084.2
2067.78
2052.65
2038.81
2026.21
2014.84
2004.67
1995.68
1987.85
1981.17
1975.63
1971.19
1967.83
1965.55
1964.31
1964.09
1964.9
1966.68
1969.47
1973.24
1978.02
1983.82
1990.66
1998.56
2007.55
2017.65
2028.9
2041.32
2054.94
2069.78
2085.85
2103.16
2121.74
2141.56