/*--------------------------------*- C++ -*----------------------------------*\
| =========                 |                                                 |
| \\      /  F ield         | OpenFOAM: The Open Source CFD Toolbox           |
|  \\    /   O peration     | Version:  3.0.1                                 |
|   \\  /    A nd           | Web:      www.OpenFOAM.org                      |
|    \\/     M anipulation  |                                                 |
\*---------------------------------------------------------------------------*/
FoamFile
{
    version     2.0;
    format      ascii;
    class       volScalarField;
    location    "39.6";
    object      p_rgh;
}
// * * * * * * * * * * * * * * * * * * * * * * * * * * * * * * * * * * * * * //

dimensions      [1 -1 -2 0 0 0 0];

internalField   nonuniform List<scalar> 
21420
(
-313.745
-311.241
-307.52
-302.563
-296.337
-288.784
-279.852
-269.471
-257.591
-244.166
-229.143
-212.478
-194.147
-174.136
-152.443
-129.088
-104.11
-77.5792
-49.6157
-20.381
10.0157
41.3248
73.2943
105.669
138.126
170.343
201.951
232.575
261.88
289.488
315.013
338.131
358.519
375.884
389.986
400.624
407.668
411.016
410.611
406.516
398.834
387.608
373.066
355.412
334.92
311.876
286.584
259.406
230.691
200.781
170.046
138.832
107.464
76.2491
45.4631
15.3708
-13.8162
-41.8887
-68.3354
-93.752
-117.825
-140.455
-161.579
-181.167
-199.208
-215.72
-230.732
-244.273
-256.377
-267.075
-276.389
-284.341
-290.957
-296.256
-300.259
-302.998
-304.498
-304.807
-303.811
-301.512
-297.911
-292.977
-286.672
-278.951
-269.811
-259.226
-247.171
-233.64
-218.638
-202.176
-184.258
-164.9
-144.146
-122.037
-98.5912
-73.8615
-47.9349
-20.8207
7.33893
36.4064
66.2106
96.5517
127.2
157.894
188.349
218.254
247.286
275.113
301.394
325.788
347.97
367.621
384.438
398.151
408.523
415.359
418.414
417.742
413.198
404.813
392.638
376.817
357.548
335.089
309.736
281.84
251.787
219.988
186.863
152.841
118.344
83.7804
49.5293
15.9317
-16.7318
-47.8664
-77.8373
-106.146
-132.692
-157.394
-180.202
-201.1
-220.097
-237.224
-252.524
-266.055
-277.887
-288.078
-296.7
-303.82
-309.498
-313.804
-316.774
-318.42
-318.821
-317.982
-315.905
-312.577
-307.983
-302.095
-294.876
-286.282
-276.265
-264.783
-251.794
-237.255
-221.131
-203.393
-184.02
-163.005
-140.363
-116.13
-90.3691
-62.739
-34.1321
-4.29165
26.6029
58.3325
90.6434
123.244
155.804
187.957
219.297
249.394
277.797
304.05
327.702
348.322
365.514
378.925
388.266
393.286
393.878
389.989
381.687
369.008
352.188
331.5
307.285
279.939
249.909
217.675
183.734
148.595
112.755
76.6959
40.8657
5.67045
-28.533
-61.4357
-92.81
-122.465
-150.266
-176.126
-200.001
-221.888
-241.808
-259.813
-275.961
-290.333
-303.006
-314.061
-323.575
-331.613
-338.231
-343.488
-347.402
-349.971
-351.255
-351.236
-349.908
-347.256
-343.261
-337.903
-331.153
-322.98
-313.344
-302.201
-289.506
-275.213
-259.278
-241.662
-222.337
-201.29
-178.52
-154.057
-127.953
-100.287
-71.1251
-40.7472
-9.31383
22.9362
55.7168
88.6988
121.512
153.753
184.991
214.774
242.646
268.154
290.859
310.343
326.234
338.217
346.037
349.484
348.548
343.177
333.442
319.632
302.026
280.997
256.983
230.457
201.921
171.913
140.926
109.44
77.8691
46.5726
15.8192
-14.1805
-43.0878
-67.1985
-88.4061
-109.301
-129.674
-149.06
-167.289
-184.271
-199.991
-214.429
-227.59
-239.481
-250.109
-259.481
-267.608
-274.498
-280.16
-284.606
-287.847
-289.861
-290.613
-290.115
-288.269
-285.04
-280.415
-274.319
-266.683
-257.398
-246.363
-233.495
-218.715
-201.953
-183.184
-162.418
-139.679
-115.057
-88.6475
-60.5842
-31.0596
-0.314306
31.3994
63.782
96.5443
129.354
161.869
193.766
224.677
254.228
282.1
307.94
331.42
352.275
370.24
385.09
396.642
404.745
409.308
410.167
407.447
401.099
391.212
377.929
361.428
341.927
319.69
294.988
268.132
239.484
209.375
178.197
146.304
114.133
82.257
51.3396
23.0559
-313.792
-311.289
-307.569
-302.614
-296.39
-288.84
-279.911
-269.533
-257.656
-244.234
-229.213
-212.55
-194.221
-174.212
-152.52
-129.165
-104.186
-77.6532
-49.6859
-20.4468
9.9567
41.274
73.2532
105.64
138.109
170.34
201.963
232.603
261.925
289.55
315.091
338.225
358.627
376.005
390.117
400.763
407.812
411.169
410.753
406.653
398.966
387.733
373.18
355.513
335.007
311.948
286.64
259.446
230.715
200.79
170.041
138.814
107.434
76.2088
45.4141
15.3147
-13.878
-41.954
-68.4033
-93.8217
-117.896
-140.525
-161.648
-181.235
-199.274
-215.785
-230.794
-244.334
-256.435
-267.132
-276.445
-284.396
-291.011
-296.309
-300.311
-303.05
-304.548
-304.855
-303.859
-301.561
-297.961
-293.029
-286.725
-279.005
-269.867
-259.283
-247.229
-233.701
-218.701
-202.242
-184.327
-164.971
-144.219
-122.112
-98.6665
-73.9358
-48.0098
-20.8918
7.27237
36.3458
66.1577
96.5078
127.166
157.873
188.34
218.259
247.306
275.148
301.445
325.855
348.051
367.717
384.547
398.271
408.653
415.495
418.564
417.88
413.337
404.949
392.766
376.934
357.652
335.177
309.807
281.892
251.821
220.003
186.861
152.821
118.308
83.7311
49.468
15.8613
-16.7997
-47.9651
-77.9298
-106.24
-132.787
-157.489
-180.296
-201.191
-220.186
-237.31
-252.607
-266.134
-277.962
-288.151
-296.77
-303.887
-309.563
-313.866
-316.834
-318.479
-318.879
-318.04
-315.963
-312.636
-308.043
-302.157
-294.94
-286.348
-276.333
-264.854
-251.867
-237.331
-221.209
-203.473
-184.101
-163.087
-140.445
-116.212
-90.4514
-62.8155
-34.2075
-4.36102
26.5409
58.2795
90.6011
123.214
155.79
187.959
219.317
249.434
277.858
304.131
327.804
348.442
365.651
379.076
388.427
393.46
394.044
390.153
381.846
369.157
352.323
331.618
307.383
280.016
249.964
217.708
183.746
148.586
112.727
76.651
40.8061
5.59862
-28.6144
-61.5241
-92.9034
-122.561
-150.363
-176.222
-200.096
-221.98
-241.897
-259.897
-276.042
-290.409
-303.079
-314.131
-323.641
-331.677
-338.293
-343.548
-347.459
-350.029
-351.313
-351.295
-349.967
-347.316
-343.323
-337.966
-331.217
-323.046
-313.412
-302.272
-289.579
-275.289
-259.356
-241.742
-222.419
-201.373
-178.604
-154.14
-128.035
-100.366
-71.199
-40.815
-9.37332
22.8869
55.6798
88.6762
121.505
153.764
185.022
214.825
242.717
268.246
290.97
310.472
326.378
338.374
346.21
349.649
348.71
343.336
333.595
319.773
302.152
281.105
257.072
230.526
201.971
171.945
140.94
109.439
77.8538
46.5423
15.7741
-14.2494
-43.1849
-67.179
-88.4265
-109.345
-129.728
-149.118
-167.348
-184.33
-200.048
-214.486
-227.645
-239.535
-250.162
-259.532
-267.658
-274.548
-280.209
-284.654
-287.895
-289.91
-290.663
-290.167
-288.321
-285.094
-280.472
-274.38
-266.748
-257.468
-246.438
-233.574
-218.797
-202.038
-183.27
-162.504
-139.765
-115.141
-88.7281
-60.6595
-31.128
-0.373673
31.3498
63.743
96.5171
129.34
161.869
193.781
224.708
254.275
282.162
308.017
331.511
352.379
370.355
385.215
396.775
404.883
409.448
410.317
407.583
401.234
391.34
378.049
361.536
342.022
319.772
295.055
268.183
239.519
209.395
178.202
146.294
114.109
82.2196
51.2904
22.9997
-313.886
-311.385
-307.668
-302.716
-296.497
-288.951
-280.028
-269.656
-257.785
-244.369
-229.353
-212.695
-194.37
-174.364
-152.674
-129.32
-104.339
-77.8013
-49.8265
-20.5784
9.83875
41.1725
73.171
105.58
138.075
170.334
201.988
232.659
262.014
289.673
315.248
338.414
358.844
376.247
390.38
401.041
408.098
411.469
411.039
406.931
399.232
387.983
373.408
355.715
335.181
312.091
286.752
259.525
230.763
200.808
170.03
138.777
107.374
76.1283
45.3162
15.2025
-14.0016
-42.0842
-68.5393
-93.9611
-118.036
-140.666
-161.788
-181.371
-199.407
-215.913
-230.918
-244.454
-256.551
-267.245
-276.554
-284.503
-291.116
-296.412
-300.412
-303.148
-304.643
-304.946
-303.948
-301.654
-298.055
-293.125
-286.823
-279.104
-269.968
-259.387
-247.336
-233.812
-218.817
-202.362
-184.451
-165.101
-144.353
-122.248
-98.8033
-74.0704
-48.1452
-21.0196
7.15376
36.2392
66.0664
96.4347
127.114
157.844
188.337
218.284
247.361
275.233
301.56
326.002
348.228
367.922
384.778
398.526
408.926
415.782
418.876
418.17
413.632
405.234
393.036
377.182
357.874
335.367
309.963
282.012
251.904
220.049
186.871
152.797
118.253
83.6479
49.361
15.7362
-16.9279
-48.1373
-78.0975
-106.411
-132.96
-157.661
-180.466
-201.357
-220.346
-237.463
-252.754
-266.275
-278.096
-288.278
-296.891
-304.002
-309.674
-313.973
-316.935
-318.58
-318.979
-318.139
-316.062
-312.737
-308.148
-302.266
-295.053
-286.465
-276.455
-264.98
-251.998
-237.466
-221.349
-203.616
-184.248
-163.236
-140.595
-116.36
-90.6008
-62.9541
-34.3438
-4.48528
26.431
58.1875
90.5307
123.169
155.774
187.976
219.372
249.528
277.992
304.306
328.019
348.695
365.936
379.389
388.761
393.821
394.386
390.495
382.176
369.467
352.605
331.865
307.592
280.182
250.087
217.787
183.781
148.58
112.683
76.5733
40.6991
5.46747
-28.7646
-61.688
-93.077
-122.74
-150.544
-176.402
-200.272
-222.15
-242.06
-260.053
-276.189
-290.549
-303.211
-314.255
-323.76
-331.79
-338.403
-343.656
-347.561
-350.133
-351.417
-351.399
-350.073
-347.423
-343.432
-338.078
-331.333
-323.165
-313.536
-302.401
-289.713
-275.428
-259.5
-241.891
-222.572
-201.528
-178.76
-154.296
-128.187
-100.511
-71.3351
-40.939
-9.48067
22.7999
55.6174
88.6424
121.504
153.798
185.095
214.938
242.872
268.441
291.204
310.741
326.678
338.698
346.555
350
349.047
343.665
333.91
320.064
302.411
281.327
257.256
230.671
202.078
172.014
140.974
109.442
77.8268
46.4853
15.6873
-14.3838
-43.3783
-67.1362
-88.4655
-109.432
-129.834
-149.232
-167.465
-184.446
-200.163
-214.598
-227.755
-239.643
-250.267
-259.635
-267.759
-274.647
-280.307
-284.751
-287.989
-290.006
-290.762
-290.27
-288.425
-285.201
-280.586
-274.502
-266.878
-257.607
-246.586
-233.731
-218.962
-202.208
-183.443
-162.678
-139.937
-115.309
-88.889
-60.8103
-31.2645
-0.492217
31.2507
63.6651
96.4629
129.312
161.869
193.811
224.769
254.367
282.286
308.171
331.694
352.588
370.587
385.466
397.041
405.159
409.728
410.614
407.859
401.505
391.598
378.288
361.753
342.214
319.935
295.189
268.286
239.591
209.436
178.211
146.274
114.06
82.145
51.1919
22.8873
-314.028
-311.53
-307.817
-302.87
-296.657
-289.119
-280.205
-269.841
-257.979
-244.571
-229.563
-212.913
-194.594
-174.593
-152.906
-129.551
-104.568
-78.0235
-50.0377
-20.7759
9.66168
41.02
73.0476
105.491
138.024
170.325
202.024
232.743
262.148
289.858
315.483
338.697
359.17
376.611
390.775
401.459
408.528
411.906
411.48
407.351
399.632
388.359
373.75
356.019
335.442
312.306
286.919
259.645
230.836
200.835
170.015
138.722
107.284
76.0073
45.169
15.034
-14.1873
-42.2793
-68.7433
-94.1702
-118.248
-140.877
-161.996
-181.576
-199.606
-216.106
-231.105
-244.633
-256.724
-267.413
-276.718
-284.664
-291.274
-296.566
-300.563
-303.295
-304.787
-305.082
-304.083
-301.792
-298.197
-293.269
-286.97
-279.253
-270.121
-259.543
-247.495
-233.979
-218.989
-202.541
-184.637
-165.294
-144.553
-122.451
-99.0076
-74.2715
-48.3466
-21.2098
6.97741
36.0809
65.9311
96.3268
127.038
157.803
188.335
218.324
247.445
275.363
301.736
326.224
348.496
368.233
385.129
398.911
409.34
416.215
419.339
418.615
414.078
405.666
393.444
377.558
358.21
335.656
310.2
282.195
252.032
220.121
186.889
152.764
118.173
83.5259
49.2033
15.5505
-17.1262
-48.3843
-78.3459
-106.665
-133.216
-157.917
-180.718
-201.603
-220.584
-237.691
-252.972
-266.483
-278.294
-288.467
-297.07
-304.173
-309.838
-314.131
-317.084
-318.729
-319.126
-318.286
-316.21
-312.887
-308.303
-302.426
-295.219
-286.637
-276.635
-265.168
-252.193
-237.668
-221.558
-203.831
-184.467
-163.458
-140.818
-116.58
-90.8208
-63.1633
-34.5469
-4.66998
26.268
58.0512
90.4268
123.103
155.753
188.005
219.455
249.67
278.195
304.571
328.344
349.077
366.367
379.861
389.263
394.353
394.912
391.014
382.674
369.935
353.03
332.239
307.907
280.434
250.273
217.906
183.836
148.573
112.619
76.4588
40.5406
5.27273
-28.9881
-61.9317
-93.3355
-123.007
-150.813
-176.669
-200.534
-222.404
-242.304
-260.284
-276.409
-290.756
-303.406
-314.44
-323.936
-331.959
-338.566
-343.815
-347.713
-350.287
-351.571
-351.554
-350.23
-347.583
-343.595
-338.246
-331.505
-323.343
-313.72
-302.593
-289.913
-275.635
-259.715
-242.112
-222.799
-201.759
-178.993
-154.527
-128.414
-100.728
-71.5378
-41.1234
-9.64028
22.6708
55.5252
88.5932
121.504
153.852
185.206
215.11
243.105
268.736
291.557
311.147
327.129
339.185
347.064
350.534
349.559
344.163
334.385
320.501
302.8
281.662
257.533
230.889
202.238
172.118
141.025
109.446
77.7866
46.4
15.5577
-14.5855
-43.673
-67.0664
-88.5248
-109.563
-129.995
-149.404
-167.639
-184.62
-200.335
-214.767
-227.92
-239.804
-250.425
-259.79
-267.91
-274.795
-280.453
-284.895
-288.132
-290.151
-290.913
-290.425
-288.58
-285.363
-280.756
-274.684
-267.073
-257.817
-246.81
-233.967
-219.208
-202.462
-183.702
-162.938
-140.195
-115.561
-89.1306
-61.0368
-31.4694
-0.67018
31.102
63.5481
96.3815
129.27
161.869
193.856
224.86
254.506
282.472
308.403
331.968
352.901
370.934
385.842
397.44
405.574
410.148
411.053
408.278
401.913
391.984
378.647
362.078
342.501
320.181
295.389
268.44
239.699
209.496
178.226
146.243
113.987
82.0327
51.044
22.7183
-314.218
-311.722
-308.014
-303.074
-296.87
-289.342
-280.439
-270.088
-258.238
-244.841
-229.844
-213.203
-194.892
-174.897
-153.214
-129.861
-104.873
-78.3201
-50.3203
-21.0392
9.42537
40.8162
72.8826
105.371
137.955
170.312
202.072
232.855
262.327
290.105
315.797
339.074
359.605
377.096
391.301
402.015
409.103
412.482
412.069
407.917
400.166
388.861
374.207
356.424
335.79
312.593
287.142
259.804
230.932
200.87
169.993
138.649
107.164
75.8457
44.9726
14.809
-14.4353
-42.5394
-69.0156
-94.4494
-118.53
-141.159
-162.275
-181.848
-199.871
-216.363
-231.353
-244.873
-256.956
-267.637
-276.937
-284.878
-291.484
-296.772
-300.765
-303.492
-304.978
-305.264
-304.265
-301.978
-298.385
-293.461
-287.165
-279.452
-270.324
-259.75
-247.707
-234.2
-219.219
-202.779
-184.885
-165.552
-144.82
-122.722
-99.2802
-74.541
-48.614
-21.4632
6.74228
35.8699
65.7507
96.1831
126.936
157.749
188.333
218.378
247.558
275.536
301.972
326.522
348.854
368.648
385.597
399.425
409.892
416.793
419.945
419.22
414.677
406.243
393.99
378.061
358.659
336.042
310.517
282.44
252.202
220.218
186.913
152.72
118.067
83.3635
48.9931
15.3024
-17.3977
-48.7063
-78.676
-107.003
-133.558
-158.257
-181.053
-201.93
-220.9
-237.995
-253.262
-266.76
-278.557
-288.717
-297.308
-304.401
-310.056
-314.341
-317.285
-318.927
-319.321
-318.481
-316.406
-313.087
-308.509
-302.64
-295.441
-286.868
-276.874
-265.417
-252.453
-237.937
-221.835
-204.116
-184.759
-163.754
-141.114
-116.873
-91.1082
-63.4487
-34.8177
-4.91612
26.0508
57.8694
90.2882
123.016
155.724
188.043
219.567
249.859
278.466
304.925
328.779
349.586
366.943
380.492
389.934
395.047
395.625
391.712
383.341
370.559
353.598
332.738
308.327
280.77
250.522
218.066
183.909
148.564
112.534
76.3059
40.3291
5.01307
-29.2858
-62.2569
-93.6802
-123.363
-151.172
-177.025
-200.883
-222.742
-242.628
-260.593
-276.701
-291.032
-303.667
-314.687
-324.17
-332.184
-338.783
-344.025
-347.917
-350.493
-351.776
-351.76
-350.438
-347.795
-343.812
-338.468
-331.734
-323.58
-313.966
-302.848
-290.179
-275.912
-260.001
-242.407
-223.101
-202.066
-179.302
-154.835
-128.717
-101.018
-71.8077
-41.3692
-9.85322
22.4986
55.4022
88.5276
121.503
153.923
185.354
215.339
243.418
269.129
292.028
311.689
327.731
339.835
347.744
351.239
350.25
344.829
335.019
321.085
303.321
282.11
257.903
231.18
202.451
172.255
141.094
109.451
77.7325
46.2866
15.3855
-14.8555
-44.0742
-66.9618
-88.606
-109.741
-130.21
-149.633
-167.873
-184.853
-200.564
-214.992
-228.14
-240.019
-250.635
-259.995
-268.112
-274.993
-280.648
-285.088
-288.323
-290.343
-291.114
-290.63
-288.786
-285.577
-280.983
-274.927
-267.334
-258.096
-247.107
-234.282
-219.537
-202.801
-184.048
-163.286
-140.54
-115.897
-89.4531
-61.3397
-31.7427
-0.907807
30.9032
63.3918
96.2725
129.213
161.868
193.915
224.982
254.692
282.72
308.711
332.333
353.318
371.397
386.344
397.972
406.128
410.711
411.63
408.843
402.457
392.5
379.126
362.512
342.884
320.508
295.657
268.646
239.842
209.577
178.244
146.202
113.89
81.8827
50.8464
22.4925
-314.454
-311.963
-308.261
-303.33
-297.137
-289.622
-280.733
-270.396
-258.562
-245.179
-230.195
-213.565
-195.265
-175.279
-153.601
-130.248
-105.255
-78.6912
-50.6746
-21.3685
9.12957
40.561
72.6758
105.221
137.869
170.296
202.132
232.995
262.549
290.413
316.189
339.545
360.149
377.703
391.959
402.712
409.821
413.205
412.798
408.629
400.836
389.488
374.778
356.93
336.225
312.951
287.421
260.002
231.052
200.914
169.966
138.557
107.013
75.643
44.7265
14.5271
-14.7462
-42.8643
-69.3563
-94.799
-118.883
-141.512
-162.623
-182.189
-200.203
-216.684
-231.663
-245.172
-257.245
-267.918
-277.21
-285.146
-291.746
-297.03
-301.017
-303.738
-305.218
-305.493
-304.493
-302.21
-298.622
-293.701
-287.409
-279.7
-270.577
-260.008
-247.972
-234.476
-219.506
-203.076
-185.195
-165.874
-145.154
-123.061
-99.6216
-74.8796
-48.9472
-21.7804
6.44789
35.6058
65.5247
96.0029
126.809
157.681
188.33
218.445
247.698
275.753
302.266
326.894
349.301
369.167
386.183
400.069
410.583
417.517
420.694
419.984
415.427
406.967
394.674
378.69
359.22
336.524
310.913
282.746
252.416
220.339
186.943
152.665
117.933
83.1599
48.7296
14.9907
-17.7431
-49.104
-79.0884
-107.426
-133.985
-158.683
-181.473
-202.339
-221.296
-238.375
-253.626
-267.107
-278.886
-289.031
-297.606
-304.685
-310.328
-314.602
-317.536
-319.174
-319.566
-318.724
-316.651
-313.337
-308.767
-302.906
-295.718
-287.156
-277.174
-265.729
-252.777
-238.273
-222.183
-204.473
-185.124
-164.124
-141.485
-117.239
-91.4465
-63.8281
-35.157
-5.2243
25.7787
57.6417
90.1144
122.905
155.688
188.089
219.705
250.097
278.805
305.367
329.321
350.224
367.663
381.281
390.775
395.914
396.514
392.589
384.176
371.342
354.309
333.363
308.854
281.191
250.832
218.266
184
148.552
112.427
76.1138
40.064
4.68751
-29.6586
-62.6646
-94.1118
-123.808
-151.622
-177.471
-201.32
-223.165
-243.033
-260.978
-277.066
-291.377
-303.993
-314.995
-324.463
-332.464
-339.053
-344.287
-348.173
-350.749
-352.032
-352.018
-350.699
-348.06
-344.083
-338.746
-332.021
-323.876
-314.273
-303.168
-290.512
-276.257
-260.359
-242.776
-223.479
-202.451
-179.69
-155.221
-129.095
-101.383
-72.1451
-41.6767
-10.1202
22.2828
55.2478
88.445
121.502
154.011
185.539
215.626
243.808
269.621
292.617
312.367
328.486
340.649
348.596
352.114
351.12
345.666
335.813
321.816
303.971
282.669
258.365
231.542
202.716
172.426
141.178
109.456
77.6637
46.1456
15.1718
-15.1908
-44.5927
-66.8117
-88.7121
-109.967
-130.48
-149.92
-168.165
-185.144
-200.851
-215.273
-228.415
-240.287
-250.897
-260.252
-268.364
-275.241
-280.892
-285.329
-288.561
-290.583
-291.366
-290.884
-289.044
-285.845
-281.267
-275.231
-267.66
-258.446
-247.48
-234.675
-219.949
-203.226
-184.481
-163.721
-140.971
-116.318
-89.8568
-61.7193
-32.0846
-1.20546
30.6541
63.1959
96.1359
129.142
161.868
193.989
225.135
254.923
283.03
309.097
332.79
353.84
371.976
386.971
398.638
406.821
411.416
412.344
409.554
403.138
393.146
379.725
363.055
343.362
320.917
295.992
268.903
240.02
209.677
178.268
146.151
113.768
81.6946
50.5989
22.2094
-314.738
-312.251
-308.557
-303.636
-297.456
-289.957
-281.085
-270.766
-258.95
-245.585
-230.616
-214
-195.713
-175.736
-154.065
-130.713
-105.715
-79.1376
-51.1008
-21.764
8.77394
40.2539
72.4268
105.04
137.765
170.277
202.203
233.162
262.816
290.782
316.659
340.111
360.803
378.432
392.75
403.548
410.686
414.077
413.669
409.482
401.642
390.242
375.464
357.537
336.747
313.381
287.755
260.24
231.195
200.967
169.933
138.445
106.83
75.399
44.4304
14.1879
-15.1205
-43.2533
-69.7662
-95.2193
-119.308
-141.935
-163.041
-182.599
-200.601
-217.07
-232.035
-245.531
-257.592
-268.255
-277.538
-285.467
-292.062
-297.339
-301.319
-304.033
-305.506
-305.768
-304.768
-302.489
-298.905
-293.99
-287.702
-279.999
-270.882
-260.318
-248.291
-234.806
-219.851
-203.434
-185.566
-166.261
-145.554
-123.467
-100.032
-75.287
-49.3467
-22.1614
6.09396
35.2882
65.2527
95.786
126.656
157.599
188.325
218.525
247.866
276.013
302.619
327.341
349.839
369.791
386.886
400.843
411.414
418.388
421.592
420.901
416.328
407.837
395.495
379.445
359.894
337.104
311.39
283.114
252.671
220.483
186.979
152.598
117.772
82.9144
48.412
14.6144
-18.1629
-49.5782
-79.5834
-107.934
-134.499
-159.195
-181.977
-202.831
-221.772
-238.831
-254.062
-267.523
-279.281
-289.407
-297.964
-305.026
-310.655
-314.916
-317.838
-319.471
-319.859
-319.015
-316.945
-313.637
-309.076
-303.226
-296.05
-287.502
-277.535
-266.104
-253.166
-238.677
-222.6
-204.902
-185.563
-164.569
-141.931
-117.679
-91.8595
-64.2783
-35.5645
-5.59503
25.4512
57.3674
89.9047
122.772
155.643
188.144
219.871
250.38
279.212
305.898
329.973
350.989
368.529
382.23
391.785
396.958
397.579
393.641
385.181
372.282
355.163
334.113
309.485
281.695
251.205
218.505
184.109
148.536
112.298
75.8817
39.7444
4.29523
-30.1071
-63.1553
-94.631
-124.343
-152.162
-178.008
-201.845
-223.673
-243.52
-261.441
-277.505
-291.791
-304.384
-315.365
-324.815
-332.8
-339.378
-344.6
-348.482
-351.056
-352.34
-352.327
-351.012
-348.378
-344.408
-339.08
-332.365
-324.231
-314.641
-303.551
-290.911
-276.672
-260.789
-243.22
-223.934
-202.913
-180.155
-155.684
-129.55
-101.822
-72.5505
-42.0466
-10.4416
22.0226
55.0613
88.3447
121.499
154.116
185.76
215.969
244.276
270.211
293.324
313.181
329.392
341.626
349.62
353.161
352.165
346.673
336.768
322.693
304.752
283.34
258.919
231.977
203.034
172.629
141.279
109.461
77.5793
45.9777
14.917
-15.5842
-45.2436
-66.6018
-88.8487
-110.243
-130.806
-150.266
-168.516
-185.493
-201.195
-215.61
-228.745
-240.609
-251.212
-260.561
-268.666
-275.538
-281.185
-285.619
-288.849
-290.872
-291.668
-291.187
-289.352
-286.166
-281.607
-275.595
-268.052
-258.865
-247.927
-235.148
-220.443
-203.736
-185.001
-164.244
-141.489
-116.824
-90.3418
-62.1753
-32.4961
-1.56353
30.3543
62.96
95.9713
129.055
161.866
194.078
225.317
255.2
283.401
309.56
333.338
354.466
372.671
387.725
399.438
407.653
412.264
413.198
410.405
403.956
393.921
380.444
363.707
343.937
321.408
296.393
269.212
240.234
209.797
178.295
146.089
113.62
81.468
50.3011
21.8686
-315.068
-312.587
-308.902
-303.994
-297.829
-290.347
-281.496
-271.198
-259.403
-246.058
-231.108
-214.509
-196.235
-176.271
-154.607
-131.256
-106.252
-79.6599
-51.5993
-22.2262
8.35805
39.8944
72.1351
104.827
137.642
170.252
202.285
233.355
263.127
291.213
317.208
340.772
361.565
379.283
393.674
404.526
411.695
415.098
414.686
410.476
402.583
391.122
376.265
358.246
337.356
313.882
288.145
260.517
231.362
201.027
169.894
138.314
106.617
75.1133
44.0839
13.7906
-15.5589
-43.7063
-70.2457
-95.7105
-119.804
-142.43
-163.53
-183.076
-201.066
-217.52
-232.47
-245.95
-257.997
-268.647
-277.92
-285.842
-292.429
-297.699
-301.672
-304.377
-305.841
-306.09
-305.089
-302.815
-299.236
-294.327
-288.044
-280.347
-271.237
-260.679
-248.664
-235.19
-220.252
-203.85
-186
-166.713
-146.021
-123.942
-100.511
-75.7622
-49.8138
-22.6066
5.68023
34.9165
64.9346
95.5317
126.476
157.502
188.319
218.617
248.062
276.315
303.03
327.861
350.467
370.519
387.707
401.746
412.384
419.407
422.643
421.969
417.381
408.854
396.455
380.327
360.682
337.781
311.946
283.542
252.969
220.65
187.019
152.518
117.582
82.6265
48.0397
14.1727
-18.6573
-50.1299
-80.1616
-108.528
-135.1
-159.794
-182.566
-203.405
-222.327
-239.364
-254.572
-268.009
-279.743
-289.846
-298.382
-305.424
-311.036
-315.281
-318.19
-319.818
-320.2
-319.355
-317.288
-313.987
-309.436
-303.6
-296.438
-287.906
-277.955
-266.542
-253.621
-239.148
-223.086
-205.403
-186.075
-165.088
-142.452
-118.193
-92.3509
-64.7965
-36.0401
-6.02876
25.0678
57.046
89.6585
122.615
155.59
188.207
220.062
250.71
279.685
306.516
330.733
351.882
369.541
383.339
392.965
398.182
398.822
394.868
386.356
373.381
356.161
334.989
310.223
282.284
251.638
218.782
184.234
148.517
112.144
75.6093
39.3695
3.83545
-30.6321
-63.7297
-95.2383
-124.969
-152.794
-178.634
-202.458
-224.266
-244.089
-261.982
-278.017
-292.274
-304.84
-315.796
-325.225
-333.192
-339.756
-344.967
-348.843
-351.414
-352.698
-352.688
-351.377
-348.75
-344.788
-339.469
-332.766
-324.646
-315.072
-303.999
-291.377
-277.156
-261.29
-243.737
-224.464
-203.453
-180.699
-156.225
-130.082
-102.338
-73.0237
-42.4796
-10.8181
21.7175
54.8422
88.226
121.494
154.238
186.016
216.368
244.821
270.9
294.149
314.132
330.45
342.768
350.817
354.385
353.385
347.852
337.884
323.718
305.664
284.124
259.564
232.483
203.404
172.865
141.395
109.466
77.48
45.7823
14.6194
-16.0238
-46.0405
-66.3174
-89.0256
-110.573
-131.19
-150.671
-168.927
-185.901
-201.596
-216.003
-229.129
-240.985
-251.579
-260.92
-269.019
-275.885
-281.527
-285.957
-289.184
-291.21
-292.018
-291.538
-289.711
-286.54
-282.004
-276.02
-268.508
-259.355
-248.449
-235.699
-221.02
-204.332
-185.609
-164.855
-142.094
-117.414
-90.9085
-62.7078
-32.9784
-1.98246
30.0036
62.6838
95.7782
128.953
161.863
194.18
225.529
255.524
283.835
310.101
333.979
355.197
373.483
388.605
400.372
408.625
413.257
414.197
411.396
404.911
394.826
381.284
364.468
344.608
321.981
296.861
269.571
240.484
209.936
178.326
146.015
113.447
81.2024
49.9524
21.4693
-315.446
-312.971
-309.297
-304.402
-298.255
-290.794
-281.966
-271.692
-259.921
-246.599
-231.67
-215.089
-196.833
-176.882
-155.227
-131.878
-106.867
-80.2585
-52.1703
-22.7555
7.88137
39.482
71.8002
104.583
137.5
170.223
202.377
233.576
263.481
291.705
317.835
341.527
362.438
380.258
394.732
405.644
412.852
416.267
415.847
411.612
403.661
392.128
377.181
359.058
338.052
314.455
288.589
260.833
231.551
201.095
169.847
138.162
106.371
74.7854
43.6862
13.3344
-16.0608
-44.2246
-70.795
-96.2729
-120.371
-142.996
-164.088
-183.623
-201.598
-218.035
-232.967
-246.429
-258.46
-269.096
-278.357
-286.269
-292.849
-298.111
-302.076
-304.771
-306.223
-306.46
-305.457
-303.188
-299.615
-294.712
-288.435
-280.746
-271.643
-261.092
-249.089
-235.628
-220.709
-204.326
-186.497
-167.23
-146.554
-124.485
-101.059
-76.3062
-50.3484
-23.1163
5.20633
34.4906
64.5697
95.2397
126.268
157.391
188.312
218.721
248.285
276.66
303.5
328.456
351.184
371.352
388.646
402.778
413.493
420.575
423.847
423.191
418.586
410.019
397.553
381.338
361.583
338.555
312.581
284.031
253.308
220.839
187.063
152.425
117.363
82.2953
47.6117
13.6649
-19.2268
-50.7602
-80.8232
-109.208
-135.788
-160.479
-183.24
-204.062
-222.962
-239.974
-255.154
-268.564
-280.271
-290.347
-298.859
-305.879
-311.472
-315.697
-318.596
-320.213
-320.59
-319.744
-317.68
-314.387
-309.848
-304.026
-296.882
-288.368
-278.436
-267.042
-254.141
-239.687
-223.643
-205.976
-186.661
-165.682
-143.049
-118.784
-92.9209
-65.3833
-36.584
-6.52583
24.6279
56.677
89.375
122.433
155.526
188.278
220.28
251.085
280.226
307.223
331.602
352.904
370.699
384.608
394.317
399.584
400.245
396.271
387.701
374.639
357.303
335.99
311.066
282.957
252.133
219.099
184.375
148.492
111.966
75.2955
38.9381
3.30737
-31.2346
-64.3886
-95.9346
-125.686
-153.517
-179.352
-203.16
-224.945
-244.739
-262.601
-278.602
-292.827
-305.361
-316.289
-325.693
-333.64
-340.188
-345.386
-349.254
-351.823
-353.108
-353.1
-351.794
-349.174
-345.221
-339.914
-333.224
-325.12
-315.563
-304.51
-291.909
-277.71
-261.864
-244.33
-225.072
-204.071
-181.321
-156.844
-130.691
-102.929
-73.566
-42.9765
-11.2505
21.3666
54.5896
88.0884
121.487
154.374
186.309
216.823
245.443
271.688
295.094
315.22
331.662
344.076
352.187
355.785
354.78
349.203
339.162
324.891
306.707
285.019
260.302
233.06
203.824
173.134
141.526
109.468
77.3659
45.5586
14.281
-16.4964
-46.7953
-66.1448
-89.2583
-110.96
-131.632
-151.135
-169.397
-186.368
-202.056
-216.453
-229.569
-241.414
-251.999
-261.331
-269.422
-276.281
-281.918
-286.343
-289.568
-291.595
-292.416
-291.939
-290.12
-286.966
-282.458
-276.506
-269.03
-259.915
-249.046
-236.331
-221.68
-205.014
-186.304
-165.555
-142.788
-118.091
-91.5573
-63.3173
-33.532
-2.46267
29.6014
62.3668
95.5563
128.836
161.858
194.296
225.771
255.893
284.33
310.719
334.711
356.034
374.412
389.612
401.441
409.738
414.393
415.339
412.527
406.003
395.861
382.245
365.339
345.376
322.636
297.397
269.982
240.768
210.095
178.361
145.93
113.248
80.8972
49.5525
21.011
-315.87
-313.402
-309.74
-304.862
-298.734
-291.296
-282.494
-272.248
-260.504
-247.208
-232.302
-215.743
-197.506
-177.571
-155.926
-132.58
-107.561
-80.9339
-52.8147
-23.3525
7.34332
39.016
71.4213
104.306
137.339
170.189
202.48
233.822
263.878
292.257
318.54
342.378
363.421
381.355
395.923
406.905
414.155
417.586
417.156
412.891
404.876
393.262
378.214
359.971
338.835
315.099
289.089
261.188
231.763
201.169
169.793
137.99
106.093
74.4147
43.2368
12.8187
-16.6259
-44.8093
-71.4147
-96.9068
-121.011
-143.634
-164.717
-184.238
-202.196
-218.614
-233.525
-246.968
-258.981
-269.6
-278.849
-286.751
-293.322
-298.575
-302.531
-305.214
-306.653
-306.877
-305.873
-303.608
-300.042
-295.146
-288.874
-281.195
-272.1
-261.556
-249.567
-236.12
-221.222
-204.861
-187.055
-167.811
-147.152
-125.097
-101.676
-76.92
-50.9497
-23.6907
4.67179
34.0099
64.1575
94.9097
126.034
157.263
188.302
218.837
248.534
277.048
304.029
329.124
351.99
372.289
389.704
403.942
414.744
421.891
425.204
424.566
419.945
411.331
398.791
382.476
362.597
339.426
313.297
284.582
253.689
221.05
187.11
152.319
117.115
81.9198
47.127
13.0901
-19.8721
-51.4697
-81.5691
-109.975
-136.563
-161.251
-184
-204.803
-223.677
-240.66
-255.81
-269.188
-280.865
-290.911
-299.396
-306.391
-311.961
-316.166
-319.051
-320.658
-321.028
-320.18
-318.121
-314.837
-310.311
-304.506
-297.381
-288.887
-278.977
-267.605
-254.726
-240.294
-224.27
-206.622
-187.321
-166.352
-143.722
-119.45
-93.5693
-66.04
-37.1964
-7.08675
24.1304
56.2594
89.0535
122.226
155.452
188.354
220.522
251.506
280.832
308.019
332.581
354.055
372.003
386.039
395.842
401.166
401.849
397.853
389.219
376.057
358.589
337.118
312.016
283.713
252.69
219.453
184.532
148.462
111.764
74.9391
38.4494
2.71001
-31.9155
-65.1328
-96.7207
-126.495
-154.333
-180.161
-203.951
-225.71
-245.472
-263.297
-279.261
-293.448
-305.947
-316.844
-326.22
-334.144
-340.673
-345.857
-349.717
-352.283
-353.568
-353.563
-352.263
-349.652
-345.709
-340.415
-333.74
-325.653
-316.117
-305.086
-292.508
-278.333
-262.51
-244.996
-225.755
-204.767
-182.022
-157.543
-131.377
-103.597