/*--------------------------------*- C++ -*----------------------------------*\
| =========                 |                                                 |
| \\      /  F ield         | OpenFOAM: The Open Source CFD Toolbox           |
|  \\    /   O peration     | Version:  3.0.1                                 |
|   \\  /    A nd           | Web:      www.OpenFOAM.org                      |
|    \\/     M anipulation  |                                                 |
\*---------------------------------------------------------------------------*/
FoamFile
{
    version     2.0;
    format      ascii;
    class       volVectorField;
    location    "39.6";
    object      U;
}
// * * * * * * * * * * * * * * * * * * * * * * * * * * * * * * * * * * * * * //

dimensions      [0 1 -1 0 0 0 0];

internalField   nonuniform List<vector> 
21420
(
(-0.144524 -0.000114243 0)
(-0.143137 -0.000177786 0)
(-0.141025 -0.000241395 0)
(-0.138266 -0.000305967 0)
(-0.134845 -0.000372933 0)
(-0.130743 -0.000441368 0)
(-0.125934 -0.000513954 0)
(-0.120389 -0.000588059 0)
(-0.114072 -0.000664945 0)
(-0.10695 -0.000748635 0)
(-0.0989933 -0.000831668 0)
(-0.0901688 -0.000916582 0)
(-0.0804503 -0.00101076 0)
(-0.0698189 -0.0010988 0)
(-0.0582628 -0.00119755 0)
(-0.0457802 -0.00128529 0)
(-0.0323805 -0.00136974 0)
(-0.0180624 -0.00146846 0)
(-0.00289865 -0.00154408 0)
(0.0130446 -0.00161225 0)
(0.0297414 -0.00169624 0)
(0.0470831 -0.00174484 0)
(0.0649433 -0.00177787 0)
(0.0831837 -0.0018275 0)
(0.101644 -0.00182821 0)
(0.120138 -0.00184215 0)
(0.138468 -0.00180346 0)
(0.156399 -0.00174032 0)
(0.173693 -0.0016839 0)
(0.190125 -0.00157735 0)
(0.205448 -0.00144808 0)
(0.219423 -0.00131447 0)
(0.231839 -0.00114488 0)
(0.242495 -0.000965684 0)
(0.251219 -0.000762893 0)
(0.257872 -0.000550386 0)
(0.262356 -0.000330886 0)
(0.264571 -0.000104986 0)
(0.264571 0.000117966 0)
(0.26229 0.000340111 0)
(0.257721 0.000561222 0)
(0.251084 0.000754578 0)
(0.242466 0.000946068 0)
(0.232016 0.00112869 0)
(0.2199 0.00126831 0)
(0.206346 0.00140647 0)
(0.191554 0.00152941 0)
(0.175727 0.00160266 0)
(0.159118 0.00167583 0)
(0.141938 0.00173049 0)
(0.124389 0.00174067 0)
(0.106684 0.00175237 0)
(0.0890174 0.00172819 0)
(0.071548 0.00170611 0)
(0.0544765 0.00167057 0)
(0.0378987 0.00160962 0)
(0.0218192 0.00154274 0)
(0.00672169 0.00147882 0)
(-0.00747701 0.00139736 0)
(-0.0211218 0.00131877 0)
(-0.034005 0.00123276 0)
(-0.0460853 0.00115028 0)
(-0.0573308 0.00106488 0)
(-0.0677235 0.000976967 0)
(-0.0772516 0.00089497 0)
(-0.085913 0.000811209 0)
(-0.0937224 0.000725848 0)
(-0.100686 0.00064685 0)
(-0.106829 0.000564548 0)
(-0.112164 0.000490373 0)
(-0.116742 0.000418835 0)
(-0.120539 0.00034271 0)
(-0.12361 0.00027444 0)
(-0.126044 0.000213358 0)
(-0.127773 0.000154062 0)
(-0.129012 0.000101034 0)
(-0.12977 5.70777e-05 0)
(-0.130153 8.05078e-06 0)
(-0.13038 -8.97326e-06 0)
(-0.130122 -5.2121e-05 0)
(-0.129601 -8.71599e-05 0)
(-0.12874 -0.000130046 0)
(-0.127232 -0.000177742 0)
(-0.125072 -0.000243956 0)
(-0.122131 -0.000320159 0)
(-0.118218 -0.000409972 0)
(-0.113196 -0.000509267 0)
(-0.107023 -0.000628539 0)
(-0.0996241 -0.000751296 0)
(-0.0908948 -0.000882312 0)
(-0.0807725 -0.00101693 0)
(-0.0693513 -0.00114738 0)
(-0.0567866 -0.00128479 0)
(-0.043087 -0.00138707 0)
(-0.0283644 -0.00148773 0)
(-0.0127735 -0.00156894 0)
(0.00352849 -0.00162859 0)
(0.0203069 -0.00167208 0)
(0.037382 -0.00169656 0)
(0.0546129 -0.0017203 0)
(0.0719817 -0.00172686 0)
(0.0894114 -0.00172621 0)
(0.106782 -0.00171859 0)
(0.124002 -0.00169848 0)
(0.140981 -0.0016682 0)
(0.157594 -0.00162327 0)
(0.1737 -0.00156259 0)
(0.189092 -0.0014865 0)
(0.20362 -0.00139191 0)
(0.217111 -0.00127626 0)
(0.229336 -0.00114518 0)
(0.240114 -0.000990628 0)
(0.249273 -0.000821767 0)
(0.256612 -0.000632274 0)
(0.261981 -0.000429966 0)
(0.265237 -0.000218391 0)
(0.266301 2.81225e-06 0)
(0.265192 0.000227105 0)
(0.261638 0.000459835 0)
(0.255852 0.000687275 0)
(0.247824 0.000898416 0)
(0.237727 0.0011076 0)
(0.225671 0.00128553 0)
(0.211787 0.00145341 0)
(0.196383 0.00159614 0)
(0.17969 0.0017153 0)
(0.161932 0.00180938 0)
(0.143371 0.00187459 0)
(0.124267 0.00190567 0)
(0.104936 0.00192338 0)
(0.0855786 0.00191794 0)
(0.0664138 0.00188404 0)
(0.0476663 0.00183568 0)
(0.0295108 0.0017659 0)
(0.0121013 0.00168402 0)
(-0.00442463 0.0015982 0)
(-0.0199778 0.00149415 0)
(-0.0344884 0.00138705 0)
(-0.0479168 0.00128272 0)
(-0.060257 0.00116335 0)
(-0.0714396 0.00105529 0)
(-0.0815154 0.000949906 0)
(-0.0905639 0.000842889 0)
(-0.0985928 0.00074011 0)
(-0.105574 0.000651876 0)
(-0.111614 0.000552997 0)
(-0.116745 0.000460724 0)
(-0.120942 0.000375503 0)
(-0.124311 0.000291732 0)
(-0.12688 0.000218963 0)
(-0.128698 0.000150444 0)
(-0.12985 8.35575e-05 0)
(-0.130414 2.47395e-05 0)
(-0.130351 -3.58817e-05 0)
(-0.129713 -8.63605e-05 0)
(-0.128576 -0.000143978 0)
(-0.126925 -0.000191044 0)
(-0.124731 -0.000239862 0)
(-0.12196 -0.000299387 0)
(-0.118672 -0.000354728 0)
(-0.114792 -0.000424134 0)
(-0.110237 -0.000477924 0)
(-0.104994 -0.000554237 0)
(-0.0989923 -0.000623896 0)
(-0.0923066 -0.000702003 0)
(-0.08484 -0.000776041 0)
(-0.0765919 -0.000858328 0)
(-0.0675426 -0.000936188 0)
(-0.0576888 -0.00101863 0)
(-0.0469734 -0.00110596 0)
(-0.0353688 -0.00119633 0)
(-0.0229287 -0.00128094 0)
(-0.00962388 -0.00135173 0)
(0.00454506 -0.00143312 0)
(0.0194179 -0.00151084 0)
(0.034968 -0.00156951 0)
(0.0511242 -0.00163019 0)
(0.0677834 -0.00167055 0)
(0.084786 -0.00170255 0)
(0.101973 -0.0017087 0)
(0.119193 -0.00170078 0)
(0.136243 -0.00167721 0)
(0.152935 -0.00162898 0)
(0.169042 -0.00156208 0)
(0.184294 -0.00145983 0)
(0.198434 -0.00133085 0)
(0.211146 -0.00118097 0)
(0.222187 -0.00100275 0)
(0.231304 -0.000802015 0)
(0.238259 -0.000575887 0)
(0.242918 -0.000342017 0)
(0.245103 -9.75121e-05 0)
(0.244842 0.000148752 0)
(0.241939 0.000408914 0)
(0.236496 0.00065644 0)
(0.228678 0.000892405 0)
(0.218566 0.0011124 0)
(0.206331 0.00131112 0)
(0.19221 0.00148466 0)
(0.176499 0.00163348 0)
(0.159443 0.00175069 0)
(0.141331 0.00184044 0)
(0.122471 0.00190129 0)
(0.103124 0.00193253 0)
(0.0836026 0.00193572 0)
(0.0641745 0.00191321 0)
(0.0450801 0.00186815 0)
(0.0265396 0.00180845 0)
(0.00874308 0.00172588 0)
(-0.0081487 0.00163207 0)
(-0.0240458 0.00153116 0)
(-0.0388928 0.00141775 0)
(-0.0526226 0.00129836 0)
(-0.0651527 0.00119204 0)
(-0.0765248 0.00106841 0)
(-0.0867485 0.000961305 0)
(-0.09584 0.000842998 0)
(-0.103839 0.000740307 0)
(-0.110783 0.000642383 0)
(-0.116791 0.000549172 0)
(-0.12192 0.000470463 0)
(-0.126217 0.000384271 0)
(-0.129722 0.00031171 0)
(-0.132512 0.000237877 0)
(-0.134587 0.000169058 0)
(-0.135946 0.000110276 0)
(-0.136717 3.95689e-05 0)
(-0.13685 -1.46628e-05 0)
(-0.136331 -7.1196e-05 0)
(-0.135328 -0.000130487 0)
(-0.133748 -0.000180635 0)
(-0.131644 -0.000235882 0)
(-0.12897 -0.000293921 0)
(-0.125705 -0.000352182 0)
(-0.121861 -0.000414047 0)
(-0.117397 -0.000474901 0)
(-0.112313 -0.000531061 0)
(-0.106551 -0.000604076 0)
(-0.100118 -0.000669611 0)
(-0.0929742 -0.000746736 0)
(-0.0850596 -0.00082034 0)
(-0.0763802 -0.000897895 0)
(-0.0668872 -0.000983593 0)
(-0.0565633 -0.00105783 0)
(-0.0454169 -0.0011504 0)
(-0.0334014 -0.0012425 0)
(-0.0205531 -0.00131892 0)
(-0.00677223 -0.00139496 0)
(0.00782801 -0.001477 0)
(0.0230995 -0.00155173 0)
(0.0390577 -0.00160716 0)
(0.0555541 -0.00165673 0)
(0.0724082 -0.00168458 0)
(0.0894554 -0.00169506 0)
(0.106508 -0.0016835 0)
(0.123343 -0.00165356 0)
(0.139718 -0.0015917 0)
(0.155361 -0.00150381 0)
(0.169978 -0.00138807 0)
(0.183261 -0.00123801 0)
(0.194893 -0.00106208 0)
(0.204632 -0.000856256 0)
(0.212233 -0.000628059 0)
(0.217487 -0.000383378 0)
(0.220245 -0.000125796 0)
(0.220508 0.000116081 0)
(0.2183 0.000372486 0)
(0.21374 0.00060332 0)
(0.207017 0.000817984 0)
(0.198261 0.000992851 0)
(0.187789 0.00114565 0)
(0.175988 0.001266 0)
(0.163047 0.00136705 0)
(0.149255 0.00144124 0)
(0.134885 0.00149782 0)
(0.120036 0.00152972 0)
(0.104975 0.00154663 0)
(0.089742 0.00155579 0)
(0.0743683 0.0015458 0)
(0.0591539 0.00151829 0)
(0.0440371 0.00149268 0)
(0.0290366 0.00144294 0)
(0.0143799 0.00139985 0)
(0.00181795 0.0013753 0)
(-0.00937366 0.00134913 0)
(-0.021034 0.00131511 0)
(-0.0326835 0.00126844 0)
(-0.0439616 0.00120282 0)
(-0.0548003 0.00113528 0)
(-0.0651042 0.0010526 0)
(-0.0746798 0.000967868 0)
(-0.0835857 0.000878548 0)
(-0.0916618 0.000784289 0)
(-0.098927 0.000692881 0)
(-0.105373 0.000602792 0)
(-0.11097 0.000515339 0)
(-0.115774 0.000435793 0)
(-0.119808 0.000358835 0)
(-0.123088 0.000280481 0)
(-0.125683 0.000214731 0)
(-0.127627 0.000147942 0)
(-0.128935 8.89679e-05 0)
(-0.129629 2.96966e-05 0)
(-0.129699 -3.31946e-05 0)
(-0.129119 -9.33059e-05 0)
(-0.127882 -0.000155793 0)
(-0.125964 -0.000226885 0)
(-0.123341 -0.000295061 0)
(-0.119955 -0.000376692 0)
(-0.115763 -0.000457083 0)
(-0.110689 -0.000545826 0)
(-0.104655 -0.000647494 0)
(-0.0976258 -0.000745344 0)
(-0.0895572 -0.000847422 0)
(-0.0803946 -0.000964216 0)
(-0.0701349 -0.00106762 0)
(-0.0587714 -0.0011876 0)
(-0.0463206 -0.00128665 0)
(-0.0328564 -0.00137768 0)
(-0.0184647 -0.00148608 0)
(-0.00308898 -0.0015653 0)
(0.0131164 -0.00162317 0)
(0.0299126 -0.00170058 0)
(0.0472262 -0.00173218 0)
(0.0648923 -0.00177827 0)
(0.0827391 -0.0017756 0)
(0.100561 -0.00175104 0)
(0.118157 -0.00173805 0)
(0.135335 -0.0016755 0)
(0.151871 -0.00159157 0)
(0.167555 -0.00151202 0)
(0.182191 -0.00139046 0)
(0.195571 -0.00125123 0)
(0.20751 -0.00110826 0)
(0.217841 -0.000937718 0)
(0.226415 -0.000760553 0)
(0.233106 -0.000566527 0)
(0.237823 -0.00036556 0)
(0.240496 -0.00015965 0)
(0.241054 4.68514e-05 0)
(0.239594 0.000252598 0)
(0.235958 0.000457923 0)
(0.23034 0.000656347 0)
(0.22279 0.000837099 0)
(0.213424 0.00101355 0)
(0.202381 0.00117881 0)
(0.189824 0.00130815 0)
(0.175935 0.00143845 0)
(0.160902 0.00155238 0)
(0.144929 0.00161798 0)
(0.128221 0.0016914 0)
(0.110984 0.00171461 0)
(0.0934151 0.00174838 0)
(0.075693 0.00176351 0)
(0.057989 0.00173095 0)
(0.0404076 0.00171092 0)
(0.0215362 0.00167311 0)
(-0.144549 -0.000342616 0)
(-0.143162 -0.000533268 0)
(-0.14105 -0.00072407 0)
(-0.138292 -0.000917771 0)
(-0.134872 -0.00111866 0)
(-0.130771 -0.00132396 0)
(-0.125963 -0.00154171 0)
(-0.120419 -0.00176402 0)
(-0.114103 -0.00199468 0)
(-0.106984 -0.00224576 0)
(-0.0990278 -0.00249487 0)
(-0.0902042 -0.00274964 0)
(-0.0804869 -0.00303219 0)
(-0.0698558 -0.00329635 0)
(-0.0583004 -0.00359264 0)
(-0.0458173 -0.00385593 0)
(-0.0324167 -0.00410928 0)
(-0.0180977 -0.00440539 0)
(-0.00293164 -0.00463264 0)
(0.0130145 -0.00483709 0)
(0.0297144 -0.00508913 0)
(0.0470609 -0.005235 0)
(0.0649265 -0.00533417 0)
(0.083173 -0.00548318 0)
(0.10164 -0.00548539 0)
(0.120143 -0.00552737 0)
(0.138481 -0.00541131 0)
(0.156421 -0.00522192 0)
(0.173725 -0.0050527 0)
(0.190166 -0.00473304 0)
(0.205498 -0.0043452 0)
(0.219483 -0.00394434 0)
(0.231906 -0.00343546 0)
(0.24257 -0.0028974 0)
(0.251299 -0.00229097 0)
(0.257958 -0.0016493 0)
(0.262445 -0.000991198 0)
(0.264666 -0.000315695 0)
(0.264666 0.000351319 0)
(0.26237 0.00102053 0)
(0.257806 0.00168363 0)
(0.251165 0.0022641 0)
(0.242542 0.00283869 0)
(0.232086 0.00338676 0)
(0.219962 0.00380566 0)
(0.206401 0.00422016 0)
(0.191601 0.00458906 0)
(0.175766 0.00480884 0)
(0.159148 0.00502834 0)
(0.141961 0.00519235 0)
(0.124404 0.00522278 0)
(0.106692 0.00525784 0)
(0.0890193 0.00518535 0)
(0.0715441 0.00511882 0)
(0.0544672 0.00501231 0)
(0.0378831 0.00482923 0)
(0.0218003 0.00462851 0)
(0.00670075 0.0044372 0)
(-0.00750174 0.00419302 0)
(-0.0211493 0.00395704 0)
(-0.0340346 0.00369855 0)
(-0.0461166 0.00345106 0)
(-0.0573647 0.00319534 0)
(-0.0677588 0.00292983 0)
(-0.077288 0.00268536 0)
(-0.0859523 0.00243418 0)
(-0.0937626 0.00217689 0)
(-0.100728 0.00194147 0)
(-0.106875 0.00169427 0)
(-0.11221 0.0014689 0)
(-0.116787 0.00125771 0)
(-0.120587 0.00102805 0)
(-0.123657 0.000825793 0)
(-0.126091 0.000640824 0)
(-0.127819 0.000458252 0)
(-0.12905 0.000302103 0)
(-0.129804 0.000175655 0)
(-0.13018 2.71648e-05 0)
(-0.130402 -3.25751e-05 0)
(-0.130136 -0.000158565 0)
(-0.129606 -0.000258978 0)
(-0.128738 -0.000394045 0)
(-0.12722 -0.000531981 0)
(-0.125053 -0.000731442 0)
(-0.1221 -0.00096499 0)
(-0.118185 -0.00123508 0)
(-0.113146 -0.00152686 0)
(-0.106968 -0.00188174 0)
(-0.0995776 -0.00226035 0)
(-0.0908492 -0.00265295 0)
(-0.0807227 -0.00304945 0)
(-0.0693163 -0.00344372 0)
(-0.056762 -0.00386042 0)
(-0.043068 -0.00416589 0)
(-0.0283495 -0.00446061 0)
(-0.0127664 -0.00470208 0)
(0.00352413 -0.00488506 0)
(0.0202979 -0.00502132 0)
(0.0373649 -0.00509943 0)
(0.0545962 -0.0051607 0)
(0.0719601 -0.00518029 0)
(0.0893902 -0.00518673 0)
(0.106769 -0.00515317 0)
(0.123998 -0.00509936 0)
(0.14098 -0.00501008 0)
(0.157605 -0.00486987 0)
(0.173711 -0.00469646 0)
(0.189115 -0.00446795 0)
(0.203662 -0.00418033 0)
(0.217176 -0.0038345 0)
(0.229422 -0.00344106 0)
(0.240207 -0.00297202 0)
(0.249371 -0.00246054 0)
(0.256717 -0.00189336 0)
(0.262095 -0.00129423 0)
(0.265365 -0.000659711 0)
(0.266434 -9.72847e-07 0)
(0.265313 0.000681963 0)
(0.261759 0.00138438 0)
(0.255965 0.00205857 0)
(0.247933 0.00269437 0)
(0.237826 0.00331466 0)
(0.225763 0.00386839 0)
(0.211864 0.00436481 0)
(0.196444 0.00479174 0)
(0.179738 0.00515271 0)
(0.161952 0.00542042 0)
(0.143376 0.00561503 0)
(0.12427 0.00573541 0)
(0.104913 0.0057754 0)
(0.0855358 0.00574849 0)
(0.0663597 0.00565147 0)
(0.0476008 0.00551151 0)
(0.0294274 0.00530349 0)
(0.0120058 0.00504861 0)
(-0.00452243 0.004795 0)
(-0.0200886 0.00448678 0)
(-0.0346111 0.00415671 0)
(-0.0480406 0.00383497 0)
(-0.0603692 0.00350145 0)
(-0.0715599 0.00317442 0)
(-0.0816426 0.00284219 0)
(-0.0906846 0.00252873 0)
(-0.0987117 0.00222227 0)
(-0.105701 0.00195829 0)
(-0.111743 0.00164765 0)
(-0.116866 0.00138907 0)
(-0.121075 0.00113179 0)
(-0.124446 0.000870103 0)
(-0.127007 0.000646939 0)
(-0.128823 0.000442247 0)
(-0.129968 0.000249029 0)
(-0.13053 7.38187e-05 0)
(-0.13046 -9.61442e-05 0)
(-0.129825 -0.000255399 0)
(-0.128691 -0.000426294 0)
(-0.127052 -0.000589834 0)
(-0.12484 -0.000721953 0)
(-0.122068 -0.00088823 0)
(-0.118799 -0.00107344 0)
(-0.114902 -0.00126995 0)
(-0.110361 -0.00144714 0)
(-0.105099 -0.00164369 0)
(-0.0991275 -0.00189242 0)
(-0.0924109 -0.00209528 0)
(-0.0849597 -0.00233879 0)
(-0.0766924 -0.00256436 0)
(-0.0676485 -0.0028128 0)
(-0.0577892 -0.00305426 0)
(-0.0470698 -0.00332226 0)
(-0.0354589 -0.00358204 0)
(-0.0230252 -0.00385691 0)
(-0.00970398 -0.00405649 0)
(0.00446097 -0.00431089 0)
(0.0193494 -0.00452801 0)
(0.0348962 -0.00471981 0)
(0.0510701 -0.00488897 0)
(0.0677369 -0.00501677 0)
(0.0847529 -0.00510383 0)
(0.101955 -0.00512791 0)
(0.119187 -0.00511262 0)
(0.136254 -0.00503618 0)
(0.152964 -0.00488752 0)
(0.169087 -0.0046825 0)
(0.184345 -0.0043866 0)
(0.198501 -0.00401385 0)
(0.211237 -0.00354775 0)
(0.222295 -0.00301215 0)
(0.231412 -0.00241062 0)
(0.238377 -0.00173045 0)
(0.243045 -0.00102196 0)
(0.245236 -0.000293546 0)
(0.244974 0.000448575 0)
(0.242065 0.0012365 0)
(0.236621 0.00197416 0)
(0.228787 0.00267176 0)
(0.218659 0.00333047 0)
(0.206419 0.00394131 0)
(0.192272 0.00445035 0)
(0.176544 0.00489731 0)
(0.159475 0.00525666 0)
(0.141338 0.00552094 0)
(0.122466 0.00570662 0)
(0.103106 0.00580215 0)
(0.0835684 0.00581267 0)
(0.0641219 0.00574264 0)
(0.0450101 0.00561003 0)
(0.0264524 0.00542011 0)
(0.00864789 0.00517124 0)
(-0.00824716 0.00490244 0)
(-0.0241533 0.00459048 0)
(-0.0390044 0.0042498 0)
(-0.0527294 0.0039016 0)
(-0.0652721 0.00358089 0)
(-0.0766485 0.00320747 0)
(-0.086873 0.00287455 0)
(-0.0959636 0.00253121 0)
(-0.103968 0.00222454 0)
(-0.110909 0.00192775 0)
(-0.11691 0.00164757 0)
(-0.122042 0.0014046 0)
(-0.126327 0.00115096 0)
(-0.12984 0.000941135 0)
(-0.132638 0.000712075 0)
(-0.134707 0.000501989 0)
(-0.136061 0.000321703 0)
(-0.136824 0.000123844 0)
(-0.136952 -3.48445e-05 0)
(-0.136447 -0.000220846 0)
(-0.13544 -0.00038641 0)
(-0.133866 -0.000547662 0)
(-0.131755 -0.000708196 0)
(-0.129082 -0.000880759 0)
(-0.125824 -0.00105111 0)
(-0.121977 -0.00124143 0)
(-0.117512 -0.00142679 0)
(-0.112428 -0.00160262 0)
(-0.106659 -0.00180426 0)
(-0.100236 -0.00201909 0)
(-0.0930846 -0.0022402 0)
(-0.0851729 -0.002465 0)
(-0.0764847 -0.00270055 0)
(-0.0669876 -0.00294432 0)
(-0.056679 -0.00319471 0)
(-0.045517 -0.00345223 0)
(-0.0334918 -0.00372094 0)
(-0.0206336 -0.00395634 0)
(-0.00685448 -0.00418651 0)
(0.00775159 -0.00443384 0)
(0.0230312 -0.00465785 0)
(0.039 -0.004835 0)
(0.0555124 -0.00496785 0)
(0.0723712 -0.00505194 0)
(0.0894284 -0.00509329 0)
(0.106499 -0.00505595 0)
(0.123352 -0.00495859 0)
(0.139743 -0.00478092 0)
(0.155407 -0.00451824 0)
(0.170051 -0.00416507 0)
(0.183344 -0.00372247 0)
(0.194994 -0.0031841 0)
(0.204746 -0.00256975 0)
(0.212351 -0.0018898 0)
(0.217622 -0.00115545 0)
(0.220391 -0.000375618 0)
(0.220657 0.000345808 0)
(0.218435 0.00111984 0)
(0.213869 0.00181387 0)
(0.207132 0.00245154 0)
(0.198368 0.00298405 0)
(0.187875 0.00343909 0)
(0.176057 0.00380182 0)
(0.163098 0.00410702 0)
(0.14928 0.00432692 0)
(0.134886 0.00450128 0)
(0.120016 0.00459094 0)
(0.104937 0.00463793 0)
(0.089682 0.00466841 0)
(0.0742959 0.00463995 0)
(0.0590688 0.00455645 0)
(0.0439385 0.00447923 0)
(0.0289361 0.00432977 0)
(0.0142809 0.0042002 0)
(0.0017231 0.00412506 0)
(-0.00946195 0.00404693 0)
(-0.0211206 0.00394576 0)
(-0.0327694 0.00380516 0)
(-0.0440429 0.00360907 0)
(-0.054879 0.00340557 0)
(-0.0651774 0.00315758 0)
(-0.0747487 0.00290196 0)
(-0.0836486 0.00263488 0)
(-0.0917206 0.00235254 0)
(-0.0989806 0.00207965 0)
(-0.105422 0.00180854 0)
(-0.111014 0.00154267 0)
(-0.115815 0.0012982 0)
(-0.119846 0.0010639 0)
(-0.123122 0.000845913 0)
(-0.125715 0.000643102 0)
(-0.127657 0.000443481 0)
(-0.128966 0.000266418 0)
(-0.129657 9.01454e-05 0)
(-0.129727 -9.90762e-05 0)
(-0.129148 -0.000279583 0)
(-0.127912 -0.00046693 0)
(-0.125995 -0.00067929 0)
(-0.123374 -0.000885057 0)
(-0.119991 -0.00112976 0)
(-0.115802 -0.00137093 0)
(-0.11073 -0.00163713 0)
(-0.104699 -0.00194217 0)
(-0.0976711 -0.00223582 0)
(-0.0896035 -0.00254205 0)
(-0.0804419 -0.00289255 0)
(-0.0701819 -0.00320286 0)
(-0.0588183 -0.00356282 0)
(-0.0463653 -0.00386013 0)
(-0.0328982 -0.00413398 0)
(-0.0185046 -0.00446044 0)
(-0.00312384 -0.00469369 0)
(0.0130876 -0.0048699 0)
(0.0298889 -0.00510237 0)
(0.0472092 -0.00519719 0)
(0.0648825 -0.00533562 0)
(0.082737 -0.00532761 0)
(0.100567 -0.00525392 0)
(0.118172 -0.00521501 0)
(0.135357 -0.00502736 0)
(0.151902 -0.00477552 0)
(0.167595 -0.00453691 0)
(0.182238 -0.00417219 0)
(0.195626 -0.00375442 0)
(0.207572 -0.00332547 0)
(0.217909 -0.00281375 0)
(0.226488 -0.00228215 0)
(0.233184 -0.00169988 0)
(0.237903 -0.00109656 0)
(0.240578 -0.000478367 0)
(0.241142 0.000138983 0)
(0.239673 0.000758058 0)
(0.236037 0.00137408 0)
(0.230417 0.00196933 0)
(0.222862 0.00251175 0)
(0.213491 0.00304121 0)
(0.202442 0.00353708 0)
(0.189877 0.00392516 0)
(0.175981 0.0043161 0)
(0.160941 0.00465794 0)
(0.144959 0.00485474 0)
(0.128243 0.005075 0)
(0.110997 0.0051446 0)
(0.093421 0.0052459 0)
(0.0756915 0.00529127 0)
(0.0579808 0.00519351 0)
(0.0403926 0.00513336 0)
(0.0215144 0.00501989 0)
(-0.144599 -0.000570945 0)
(-0.143212 -0.00088867 0)
(-0.141101 -0.00120659 0)
(-0.138344 -0.00152934 0)
(-0.134925 -0.0018641 0)
(-0.130826 -0.00220621 0)
(-0.126021 -0.00256909 0)
(-0.12048 -0.00293958 0)
(-0.114166 -0.00332402 0)
(-0.10705 -0.0037425 0)
(-0.0990961 -0.00415775 0)
(-0.0902742 -0.00458245 0)
(-0.0805591 -0.00505344 0)
(-0.0699285 -0.00549383 0)
(-0.058374 -0.00598777 0)
(-0.0458898 -0.00642673 0)
(-0.0324872 -0.00684906 0)
(-0.0181661 -0.00734184 0)
(-0.00299525 -0.00772291 0)
(0.0129568 -0.00806305 0)
(0.0296634 -0.00848333 0)
(0.0470196 -0.00872664 0)
(0.0648964 -0.00889221 0)
(0.0831553 -0.00914094 0)
(0.101637 -0.00914485 0)
(0.120157 -0.00921518 0)
(0.138512 -0.00902184 0)
(0.156469 -0.00870626 0)
(0.173794 -0.00842435 0)
(0.190253 -0.00789151 0)
(0.205602 -0.00724494 0)
(0.219607 -0.00657669 0)
(0.232044 -0.00572826 0)
(0.242724 -0.00483122 0)
(0.251463 -0.00381912 0)
(0.258129 -0.00275259 0)
(0.262624 -0.00165339 0)
(0.264858 -0.000524747 0)
(0.264847 0.000586298 0)
(0.262528 0.00170215 0)
(0.257971 0.00280659 0)
(0.251319 0.00377527 0)
(0.242685 0.00473321 0)
(0.232216 0.00564718 0)
(0.220075 0.00634549 0)
(0.206497 0.00703641 0)
(0.19168 0.00765138 0)
(0.175827 0.00801761 0)
(0.159192 0.00838335 0)
(0.141987 0.00865663 0)
(0.124415 0.00870706 0)
(0.106688 0.00876527 0)
(0.0890029 0.00864438 0)
(0.0715167 0.00853278 0)
(0.0544291 0.00835549 0)
(0.0378335 0.00804939 0)
(0.0217457 0.00771476 0)
(0.00664381 0.00739703 0)
(-0.00756421 0.00698947 0)
(-0.0212143 0.00659632 0)
(-0.0341009 0.00616395 0)
(-0.0461831 0.00575207 0)
(-0.057433 0.00532506 0)
(-0.0678246 0.00488249 0)
(-0.0773525 0.00447533 0)
(-0.0860174 0.00405643 0)
(-0.0938246 0.00362799 0)
(-0.100791 0.00323663 0)
(-0.106937 0.00282185 0)
(-0.112267 0.00244992 0)
(-0.116846 0.00209328 0)
(-0.120643 0.00171806 0)
(-0.123713 0.00137399 0)
(-0.126137 0.00106773 0)
(-0.127861 0.000765784 0)
(-0.129082 0.000502917 0)
(-0.129833 0.000290097 0)
(-0.130191 4.13119e-05 0)
(-0.130399 -5.35298e-05 0)
(-0.130124 -0.000265453 0)
(-0.129583 -0.000436522 0)
(-0.128703 -0.000657861 0)
(-0.127174 -0.000889263 0)
(-0.124993 -0.00122473 0)
(-0.122024 -0.00160899 0)
(-0.118095 -0.00205572 0)
(-0.113049 -0.00255193 0)
(-0.10686 -0.00313091 0)
(-0.0994647 -0.00376674 0)
(-0.090745 -0.00441836 0)
(-0.0806342 -0.00507912 0)
(-0.0692463 -0.00573657 0)
(-0.056705 -0.00642845 0)
(-0.0430251 -0.00693964 0)
(-0.0283247 -0.0074375 0)
(-0.0127565 -0.0078355 0)
(0.0035161 -0.00813538 0)
(0.0202762 -0.00835554 0)
(0.0373222 -0.00849907 0)
(0.0545381 -0.00860744 0)
(0.0718989 -0.0086345 0)
(0.0893321 -0.00864296 0)
(0.106715 -0.00859397 0)
(0.123944 -0.00849733 0)
(0.140928 -0.00834728 0)
(0.15756 -0.0081222 0)
(0.173674 -0.00782913 0)
(0.189094 -0.00745201 0)
(0.203663 -0.00697055 0)
(0.217198 -0.00638932 0)
(0.22946 -0.00573765 0)
(0.240265 -0.00495974 0)
(0.249442 -0.00410772 0)
(0.256804 -0.00316035 0)
(0.262195 -0.00215383 0)
(0.265476 -0.00109824 0)
(0.266549 3.24978e-06 0)
(0.265404 0.00113592 0)
(0.261865 0.0023056 0)
(0.256066 0.00343033 0)
(0.248033 0.00449757 0)
(0.237913 0.0055335 0)
(0.225827 0.00644104 0)
(0.211918 0.00726982 0)
(0.196474 0.00799448 0)
(0.179744 0.00858826 0)
(0.161946 0.00904899 0)
(0.143338 0.00936663 0)
(0.124212 0.00954769 0)
(0.104844 0.0096357 0)
(0.0854377 0.00958775 0)
(0.0662459 0.00943092 0)
(0.0474705 0.00918536 0)
(0.0292812 0.00883619 0)
(0.0118573 0.00842487 0)
(-0.00468968 0.00799074 0)
(-0.0202651 0.00747324 0)
(-0.034776 0.00693593 0)
(-0.0482122 0.0064064 0)
(-0.0605534 0.00582089 0)
(-0.0717431 0.00528444 0)
(-0.0818163 0.00474588 0)
(-0.0908606 0.00421596 0)
(-0.0988805 0.00369966 0)
(-0.105871 0.00326475 0)
(-0.111916 0.00275641 0)
(-0.117035 0.00230648 0)
(-0.121246 0.00188656 0)
(-0.124606 0.00145552 0)
(-0.127154 0.0010877 0)
(-0.128971 0.000739775 0)
(-0.130121 0.000408632 0)
(-0.130678 0.000116498 0)
(-0.130607 -0.00015489 0)
(-0.129978 -0.000432091 0)
(-0.128844 -0.000720752 0)
(-0.127187 -0.00096761 0)
(-0.124986 -0.00120167 0)
(-0.122224 -0.00149077 0)
(-0.118943 -0.00177629 0)
(-0.115055 -0.0021109 0)
(-0.110519 -0.00242432 0)
(-0.10527 -0.00274592 0)
(-0.0992775 -0.00314413 0)
(-0.0925695 -0.00350037 0)
(-0.0851146 -0.00388888 0)
(-0.0768495 -0.0042866 0)
(-0.0677943 -0.00468177 0)
(-0.0579423 -0.00509632 0)
(-0.0472226 -0.00553279 0)
(-0.035623 -0.00597996 0)
(-0.023173 -0.00641535 0)
(-0.00984949 -0.00676373 0)
(0.00431542 -0.00718251 0)
(0.0192078 -0.00755616 0)
(0.0347654 -0.00786377 0)
(0.0509451 -0.00815263 0)
(0.0676194 -0.0083646 0)
(0.0846487 -0.00850936 0)
(0.101869 -0.00855531 0)
(0.119121 -0.0085168 0)
(0.136201 -0.00839737 0)
(0.152924 -0.00815626 0)
(0.169067 -0.00781601 0)
(0.184359 -0.00731315 0)
(0.198542 -0.00667987 0)
(0.211301 -0.00591678 0)
(0.222375 -0.00502281 0)
(0.231505 -0.00402236 0)
(0.238479 -0.0028896 0)
(0.243154 -0.00170918 0)
(0.245367 -0.000480503 0)
(0.245086 0.000743129 0)
(0.242164 0.00205085 0)
(0.236738 0.00329123 0)
(0.228904 0.00445492 0)
(0.218758 0.00556858 0)
(0.20649 0.00656602 0)
(0.192333 0.00742643 0)
(0.176578 0.00817179 0)
(0.15948 0.00876374 0)
(0.141317 0.00921035 0)
(0.122418 0.00951009 0)
(0.103044 0.0096746 0)
(0.083482 0.00969147 0)
(0.0640119 0.00957014 0)
(0.0448854 0.00935526 0)
(0.0263124 0.00904006 0)
(0.00849436 0.00863076 0)
(-0.00840909 0.00817232 0)
(-0.0243203 0.00764962 0)
(-0.0391718 0.00708314 0)
(-0.0528879 0.00650477 0)
(-0.0654471 0.00596539 0)
(-0.0768253 0.00534195 0)
(-0.0870469 0.0048006 0)
(-0.0961486 0.00421827 0)
(-0.104149 0.00369524 0)
(-0.111093 0.00321962 0)
(-0.11708 0.0027342 0)
(-0.122198 0.00235269 0)
(-0.126478 0.00191579 0)
(-0.13 0.00157335 0)
(-0.1328 0.00117517 0)
(-0.134851 0.000846932 0)
(-0.136206 0.000542604 0)
(-0.136965 0.000201089 0)
(-0.137091 -5.86681e-05 0)
(-0.136591 -0.000365487 0)
(-0.135586 -0.000649207 0)
(-0.134003 -0.000912208 0)
(-0.131892 -0.00117397 0)
(-0.129233 -0.00147427 0)
(-0.125981 -0.00175741 0)
(-0.122129 -0.00206572 0)
(-0.117668 -0.00238124 0)
(-0.112577 -0.00267215 0)
(-0.106816 -0.00301362 0)
(-0.10038 -0.00334989 0)
(-0.09324 -0.00374325 0)
(-0.0853153 -0.00410642 0)
(-0.0766284 -0.00449697 0)
(-0.0671318 -0.00491474 0)
(-0.0568175 -0.00530884 0)
(-0.0456671 -0.00575158 0)
(-0.0336431 -0.00620199 0)
(-0.0207789 -0.00660872 0)
(-0.00699627 -0.00697932 0)
(0.00760309 -0.00739456 0)
(0.0228941 -0.00776649 0)
(0.0388799 -0.00805131 0)
(0.0553952 -0.00828925 0)
(0.0722654 -0.00842842 0)
(0.0893401 -0.00848484 0)
(0.106428 -0.00842937 0)
(0.123303 -0.00827353 0)
(0.139721 -0.00797517 0)
(0.155414 -0.00753118 0)
(0.170086 -0.00694374 0)
(0.183399 -0.00620921 0)
(0.195074 -0.00532065 0)
(0.204856 -0.00428644 0)
(0.212486 -0.00315048 0)
(0.217775 -0.00193123 0)
(0.220562 -0.00063513 0)
(0.220834 0.000580223 0)
(0.218608 0.00186817 0)
(0.21406 0.00302658 0)
(0.207316 0.00408869 0)
(0.198532 0.00497502 0)
(0.188022 0.00573781 0)
(0.176176 0.00634244 0)
(0.163185 0.00684956 0)
(0.149336 0.00722111 0)
(0.134891 0.0075059 0)
(0.119993 0.00765594 0)
(0.104885 0.00774159 0)
(0.0895893 0.00778549 0)
(0.0741759 0.00773514 0)
(0.0589256 0.00759962 0)
(0.0437721 0.00746653 0)
(0.0287599 0.00721586 0)
(0.014114 0.00700194 0)
(0.00156815 0.00687646 0)
(-0.00961489 0.00674423 0)
(-0.0212707 0.00657517 0)
(-0.0329192 0.00634088 0)
(-0.0441861 0.00601332 0)
(-0.0550155 0.0056743 0)
(-0.0653067 0.00526066 0)
(-0.0748701 0.00483544 0)
(-0.0837616 0.00438972 0)
(-0.0918248 0.00391945 0)
(-0.0990773 0.00346391 0)
(-0.10551 0.00301328 0)
(-0.111095 0.002573 0)
(-0.115888 0.00216891 0)
(-0.119911 0.00178208 0)
(-0.123182 0.00140576 0)
(-0.125772 0.00107351 0)
(-0.12771 0.000737918 0)
(-0.129017 0.000444179 0)
(-0.129708 0.000149952 0)
(-0.129776 -0.000165111 0)
(-0.129198 -0.000465344 0)
(-0.127964 -0.000777499 0)
(-0.12605 -0.00112974 0)
(-0.123432 -0.00147424 0)
(-0.120055 -0.00188211 0)
(-0.11587 -0.00228437 0)
(-0.110804 -0.00272771 0)
(-0.104778 -0.00323626 0)
(-0.0977535 -0.0037259 0)
(-0.089688 -0.00423635 0)
(-0.0805286 -0.00482084 0)
(-0.0702681 -0.00533847 0)
(-0.0589041 -0.00593843 0)
(-0.0464468 -0.00643429 0)
(-0.0329745 -0.00689212 0)
(-0.0185764 -0.00743869 0)
(-0.00318585 -0.00781945 0)
(0.0130367 -0.00811793 0)
(0.0298484 -0.00850603 0)
(0.0471817 -0.00866421 0)
(0.0648691 -0.00889527 0)
(0.0827386 -0.00888195 0)
(0.100584 -0.00875916 0)
(0.118206 -0.00869446 0)
(0.135408 -0.00838168 0)
(0.151967 -0.00796185 0)
(0.167678 -0.00756418 0)
(0.182336 -0.00695618 0)
(0.195737 -0.00625968 0)
(0.207699 -0.00554455 0)
(0.218046 -0.00469139 0)
(0.226638 -0.00380512 0)
(0.23334 -0.00283437 0)
(0.238063 -0.0018286 0)
(0.240744 -0.000799129 0)
(0.241318 0.000231693 0)
(0.239829 0.00126639 0)
(0.236195 0.00229079 0)
(0.23057 0.0032834 0)
(0.223004 0.00418788 0)
(0.213623 0.00507064 0)
(0.202562 0.0058974 0)
(0.189981 0.00654434 0)
(0.176071 0.0071961 0)
(0.161016 0.00776596 0)
(0.145016 0.0080939 0)
(0.128285 0.00846102 0)
(0.111023 0.00857688 0)
(0.0934314 0.00874565 0)
(0.0756873 0.00882118 0)
(0.0579631 0.00865803 0)
(0.0403615 0.0085576 0)
(0.0214702 0.00836835 0)
(-0.144674 -0.000799302 0)
(-0.143288 -0.00124397 0)
(-0.141178 -0.00168887 0)
(-0.138421 -0.00214055 0)
(-0.135006 -0.00260907 0)
(-0.13091 -0.0030879 0)
(-0.126109 -0.00359584 0)
(-0.120571 -0.00411448 0)
(-0.114261 -0.00465271 0)
(-0.107149 -0.00523861 0)
(-0.0991985 -0.00582007 0)
(-0.0903791 -0.00641481 0)
(-0.0806673 -0.00707439 0)
(-0.0700375 -0.00769116 0)
(-0.0584846 -0.00838295 0)
(-0.0459986 -0.00899774 0)
(-0.0325928 -0.00958924 0)
(-0.018269 -0.010277 0)
(-0.00309099 -0.0108165 0)
(0.0128704 -0.0112909 0)
(0.0295867 -0.0118797 0)
(0.0469574 -0.0122207 0)
(0.0648511 -0.0124532 0)
(0.0831288 -0.0128021 0)
(0.101632 -0.0128081 0)
(0.120177 -0.0129073 0)
(0.138558 -0.0126369 0)
(0.156542 -0.0121952 0)
(0.173898 -0.0118008 0)
(0.190383 -0.0110546 0)
(0.205758 -0.0101491 0)
(0.219792 -0.0092133 0)
(0.232252 -0.00802491 0)
(0.242955 -0.00676856 0)
(0.25171 -0.00535184 0)
(0.258389 -0.00385698 0)
(0.262895 -0.00231959 0)
(0.265142 -0.00074571 0)
(0.265109 0.000840835 0)
(0.26277 0.00238706 0)
(0.258219 0.0039307 0)
(0.25155 0.00528918 0)
(0.2429 0.00663082 0)
(0.23241 0.0079114 0)
(0.220243 0.00888938 0)
(0.206641 0.00985691 0)
(0.191798 0.0107181 0)
(0.175918 0.0112306 0)
(0.159257 0.0117426 0)
(0.142027 0.012125 0)
(0.124431 0.012195 0)
(0.106682 0.0122761 0)
(0.0889779 0.0121067 0)
(0.071475 0.0119491 0)
(0.0543716 0.0117011 0)
(0.0377588 0.0112706 0)
(0.0216639 0.0108025 0)
(0.006558 0.0103587 0)
(-0.00765795 0.00978695 0)
(-0.0213124 0.00923638 0)
(-0.0341999 0.00862952 0)
(-0.0462834 0.00805261 0)
(-0.0575343 0.00745444 0)
(-0.0679238 0.00683517 0)
(-0.0774491 0.00626547 0)
(-0.0861154 0.00567897 0)
(-0.0939185 0.00507779 0)
(-0.100884 0.00453386 0)
(-0.107029 0.00394909 0)
(-0.112356 0.00342919 0)
(-0.116935 0.00292926 0)
(-0.120731 0.00240564 0)
(-0.123793 0.00192482 0)
(-0.126214 0.00149436 0)
(-0.127926 0.00106918 0)