/*--------------------------------*- C++ -*----------------------------------*\
| =========                 |                                                 |
| \\      /  F ield         | OpenFOAM: The Open Source CFD Toolbox           |
|  \\    /   O peration     | Version:  3.0.1                                 |
|   \\  /    A nd           | Web:      www.OpenFOAM.org                      |
|    \\/     M anipulation  |                                                 |
\*---------------------------------------------------------------------------*/
FoamFile
{
    version     2.0;
    format      ascii;
    class       surfaceScalarField;
    location    "18.4";
    object      alphaPhi;
}
// * * * * * * * * * * * * * * * * * * * * * * * * * * * * * * * * * * * * * //

dimensions      [0 3 -1 0 0 0 0];

internalField   nonuniform List<scalar> 
42423
(
9.82541e-05
1.7593e-05
8.04396e-05
1.78144e-05
6.22274e-05
1.82123e-05
4.37662e-05
1.84612e-05
2.54493e-05
1.83169e-05
7.32992e-06
1.81194e-05
-1.04378e-05
1.77678e-05
-2.7626e-05
1.71882e-05
-4.40581e-05
1.64321e-05
-5.96044e-05
1.55462e-05
-7.42533e-05
1.46489e-05
-8.79206e-05
1.36673e-05
-0.000100572
1.26509e-05
-0.000112234
1.1663e-05
-0.000122896
1.06614e-05
-0.000132594
9.69844e-06
-0.00014133
8.73572e-06
-0.00014914
7.80983e-06
-0.000156074
6.93386e-06
-0.000162156
6.08189e-06
-0.000167404
5.24813e-06
-0.000171858
4.45424e-06
-0.000175536
3.67847e-06
-0.000178449
2.91305e-06
-0.000180646
2.19615e-06
-0.000182144
1.49829e-06
-0.000182964
8.19963e-07
-0.00018312
1.55997e-07
-0.000182513
-6.07035e-07
-0.000181188
-1.32516e-06
-0.000179145
-2.04225e-06
-0.000176325
-2.8208e-06
-0.000172812
-3.51263e-06
-0.000168454
-4.35796e-06
-0.000163326
-5.1281e-06
-0.000157328
-5.99802e-06
-0.00015044
-6.88763e-06
-0.000142698
-7.74264e-06
-0.000134093
-8.60466e-06
-0.000124361
-9.73214e-06
-0.00011369
-1.06712e-05
-0.000101926
-1.17635e-05
-8.91836e-05
-1.27428e-05
-7.55978e-05
-1.35858e-05
-6.09595e-05
-1.46383e-05
-4.51792e-05
-1.57803e-05
-2.882e-05
-1.63592e-05
-1.16213e-05
-1.71987e-05
6.51871e-06
-1.81401e-05
2.4985e-05
-1.84663e-05
4.38874e-05
-1.89024e-05
6.28999e-05
-1.90126e-05
8.19316e-05
-1.90316e-05
0.000100789
-1.88574e-05
0.000119029
-1.82397e-05
0.00013652
-1.7491e-05
0.00015307
-1.65504e-05
0.000168271
-1.52014e-05
0.000181968
-1.3697e-05
0.000193939
-1.19708e-05
0.000204014
-1.00753e-05
0.00021208
-8.06517e-06
0.000217807
-5.72784e-06
0.000221244
-3.43649e-06
0.000222294
-1.05044e-06
0.000220966
1.3279e-06
0.000217251
3.715e-06
0.000211187
6.06417e-06
0.00020293
8.25751e-06
0.000192587
1.03424e-05
0.000180281
1.23063e-05
0.000166099
1.41821e-05
0.000150414
1.56849e-05
0.000133532
1.68823e-05
0.000115646
1.78862e-05
9.6963e-05
1.86827e-05
7.79361e-05
1.90269e-05
5.85027e-05
1.94335e-05
3.91295e-05
1.93732e-05
1.99368e-05
1.91927e-05
1.08778e-06
1.8849e-05
-1.72484e-05
1.83361e-05
-3.48971e-05
1.76488e-05
-5.18287e-05
1.69316e-05
-6.78003e-05
1.59716e-05
-8.288e-05
1.50797e-05
-9.71164e-05
1.42364e-05
-0.000110268
1.31519e-05
-0.000122347
1.20781e-05
-0.000133331
1.09849e-05
-0.000143257
9.92565e-06
-0.000152199
8.94173e-06
-0.000160003
7.80403e-06
-0.000166662
6.65957e-06
-0.00017231
5.64793e-06
-0.000176856
4.54545e-06
-0.000180626
3.77011e-06
-0.000183476
2.85013e-06
-0.00018537
1.8945e-06
-0.000186668
1.29745e-06
-0.000187344
6.76248e-07
-0.000187084
-2.60133e-07
-0.0001862
-8.84468e-07
-0.000184659
-1.541e-06
-0.000182354
-2.30451e-06
-0.000179378
-2.97575e-06
-0.00017572
-3.65806e-06
-0.00017136
-4.36029e-06
-0.000166385
-4.97534e-06
-0.000160572
-5.81209e-06
-0.000154007
-6.56588e-06
-0.000146608
-7.39863e-06
-0.000138352
-8.2559e-06
-0.000129334
-9.01778e-06
-0.000119384
-9.95053e-06
-0.000108484
-1.08999e-05
-9.67187e-05
-1.17653e-05
-8.40638e-05
-1.26549e-05
-7.05134e-05
-1.35505e-05
-5.60952e-05
-1.44183e-05
-4.08384e-05
-1.52568e-05
-2.47862e-05
-1.60522e-05
-8.05992e-06
-1.67264e-05
9.25614e-06
-1.73161e-05
2.70469e-05
-1.77908e-05
4.51349e-05
-1.80881e-05
6.33957e-05
-1.82608e-05
8.16256e-05
-1.823e-05
9.96491e-05
-1.80235e-05
0.000117238
-1.75891e-05
0.000134146
-1.6908e-05
0.000150118
-1.59723e-05
0.000165008
-1.48896e-05
0.00017847
-1.34619e-05
0.000190254
-1.17844e-05
0.00020018
-9.92621e-06
0.000208052
-7.87119e-06
0.000213706
-5.65485e-06
0.000216976
-3.26932e-06
0.000217802
-8.26036e-07
0.000216201
1.60089e-06
0.000212057
4.14357e-06
0.000205504
6.55314e-06
0.00019666
8.84421e-06
0.000185644
1.10154e-05
0.0001727
1.29441e-05
0.000158099
1.46012e-05
0.000142052
1.60476e-05
0.000124724
1.7328e-05
0.00010642
1.83038e-05
8.74152e-05
1.90047e-05
6.80763e-05
1.93389e-05
4.84752e-05
1.96011e-05
2.89543e-05
1.95209e-05
9.82723e-06
1.91271e-05
-8.85523e-06
1.86825e-05
-2.68934e-05
1.80382e-05
-4.40787e-05
1.71853e-05
-6.04642e-05
1.63854e-05
-7.57903e-05
1.53262e-05
-9.00928e-05
1.43024e-05
-0.000103383
1.32899e-05
-0.000115509
1.2126e-05
-0.000126555
1.10464e-05
-0.000136503
9.94814e-06
-0.00014539
8.88665e-06
-0.000153254
7.86445e-06
-0.000160074
6.81972e-06
-0.000165872
5.79847e-06
-0.000170833
4.96046e-06
-0.000174869
4.03614e-06
-0.000177845
2.9761e-06
-0.000180101
2.25554e-06
-0.000181674
1.5733e-06
-0.000182306
6.32135e-07
-0.000182226
-8.0074e-08
-0.000181036
-1.18974e-06
-0.000179196
-1.84029e-06
-0.000176781
-2.41508e-06
-0.000173542
-3.23862e-06
-0.000169587
-3.9556e-06
-0.000165047
-4.53967e-06
-0.000159784
-5.26272e-06
-0.000153885
-5.89875e-06
-0.000147268
-6.61717e-06
-0.000139935
-7.33296e-06
-0.000131932
-8.00374e-06
-0.000123272
-8.65964e-06
-0.000113851
-9.42105e-06
-0.000103708
-1.01432e-05
-9.28264e-05
-1.08814e-05
-8.11499e-05
-1.16765e-05
-6.87327e-05
-1.24172e-05
-5.54586e-05
-1.32741e-05
-4.14973e-05
-1.39613e-05
-2.6734e-05
-1.47634e-05
-1.12616e-05
-1.54725e-05
4.8988e-06
-1.61604e-05
2.16719e-05
-1.67732e-05
3.89718e-05
-1.72999e-05
5.66299e-05
-1.76581e-05
7.44819e-05
-1.78521e-05
9.23183e-05
-1.78364e-05
0.000109899
-1.75808e-05
0.000127043
-1.71439e-05
0.000143333
-1.62899e-05
0.000158551
-1.52186e-05
0.000172421
-1.38702e-05
0.000184616
-1.21943e-05
0.000194872
-1.02564e-05
0.000202948
-8.07624e-06
0.000208669
-5.72044e-06
0.000211896
-3.22769e-06
0.000212541
-6.45089e-07
0.000210596
1.94561e-06
0.000206018
4.578e-06
0.000199073
6.94489e-06
0.000189794
9.27905e-06
0.000178398
1.13954e-05
0.000165137
1.32619e-05
0.000150258
1.48784e-05
0.000134188
1.60702e-05
0.000116987
1.72006e-05
9.90758e-05
1.79116e-05
8.08991e-05
1.81767e-05
6.25071e-05
1.8392e-05
4.41766e-05
1.83306e-05
2.61673e-05
1.80093e-05
8.56231e-06
1.7605e-05
-8.29471e-06
1.6857e-05
-2.45731e-05
1.62784e-05
-4.00206e-05
1.54475e-05
-5.45428e-05
1.45222e-05
-6.81859e-05
1.36431e-05
-8.09283e-05
1.27423e-05
-9.28204e-05
1.18922e-05
-0.000103915
1.10942e-05
-0.000114055
1.014e-05
-0.000123473
9.41796e-06
-0.000132125
8.65217e-06
-0.000140021
7.89608e-06
-0.000147197
7.17649e-06
-0.000153821
6.62342e-06
-0.000159771
5.95042e-06
-0.000164967
5.19615e-06
-0.0001696
4.63264e-06
-0.000173315
3.71487e-06
-0.000176488
3.1728e-06
-0.000179092
2.60466e-06
-0.00018079
1.69769e-06
-0.000181754
9.64253e-07
-0.00018209
3.35432e-07
-0.000181719
-3.70165e-07
-0.000180508
-1.21148e-06
-0.000178273
-2.23482e-06
-0.0001753
-2.97353e-06
-0.000171483
-3.81626e-06
-0.000166743
-4.7403e-06
-0.000161057
-5.68641e-06
-0.000154469
-6.58806e-06
-0.000146858
-7.61105e-06
-0.000138291
-8.56659e-06
-0.000128695
-9.59624e-06
-0.000118073
-1.06222e-05
-0.000106488
-1.1585e-05
-9.38767e-05
-1.26109e-05
-8.03816e-05
-1.34951e-05
-6.59107e-05
-1.44709e-05
-5.05787e-05
-1.53321e-05
-3.45681e-05
-1.60106e-05
-1.78396e-05
-1.67285e-05
-5.58507e-07
-1.72812e-05
1.71753e-05
-1.77338e-05
3.52014e-05
-1.80261e-05
5.33672e-05
-1.81659e-05
7.14505e-05
-1.80833e-05
8.9283e-05
-1.78325e-05
0.000106699
-1.74162e-05
0.000123471
-1.67721e-05
0.000139371
-1.59002e-05
0.000154223
-1.48519e-05
0.000167858
-1.36346e-05
0.000180066
-1.22078e-05
0.000190596
-1.05309e-05
0.000199343
-8.74644e-06
0.000206092
-6.74948e-06
0.000210704
-4.61187e-06
0.000213104
-2.39958e-06
0.0002132
-9.63795e-08
0.000211075
2.12483e-06
0.000206687
4.38825e-06
0.000200052
6.63538e-06
0.000191352
8.69923e-06
0.000180618
1.0734e-05
0.000168039
1.2579e-05
0.000153938
1.41015e-05
0.000138394
1.5544e-05
0.000121698
1.66954e-05
0.000104136
1.75626e-05
8.5903e-05
1.82327e-05
6.73277e-05
1.85754e-05
4.85311e-05
1.87965e-05
2.98079e-05
1.87233e-05
1.13983e-05
1.84096e-05
-6.66569e-06
1.80639e-05
-2.41878e-05
1.75221e-05
-4.09873e-05
1.67995e-05
-5.69972e-05
1.60099e-05
-7.20865e-05
1.50893e-05
-8.62389e-05
1.41525e-05
-9.9391e-05
1.31521e-05
-0.000111502
1.21107e-05
-0.000122594
1.10922e-05
-0.000132656
1.00623e-05
-0.000141697
9.04045e-06
-0.000149746
8.04913e-06
-0.000156819
7.07305e-06
-0.000162962
6.14341e-06
-0.000168198
5.23541e-06
-0.000172561
4.36278e-06
-0.00017608
3.51928e-06
-0.000178777
2.6969e-06
-0.000180687
1.91014e-06
-0.000181861
1.17417e-06
-0.000182281
4.19852e-07
-0.000181851
-4.29396e-07
-0.000180648
-1.20371e-06
-0.000178664
-1.98353e-06
-0.000175966
-2.69858e-06
-0.000172557
-3.40917e-06
-0.000168276
-4.28011e-06
-0.000163263
-5.01332e-06
-0.000157549
-5.71386e-06
-0.000150998
-6.55096e-06
-0.000143718
-7.28073e-06
-0.000135458
-8.25986e-06
-0.000126413
-9.04429e-06
-0.000116628
-9.78568e-06
-0.000105892
-1.07358e-05
-9.43316e-05
-1.15605e-05
-8.19586e-05
-1.2373e-05
-6.86355e-05
-1.33231e-05
-5.46972e-05
-1.39384e-05
-3.98299e-05
-1.48673e-05
-2.42711e-05
-1.55588e-05
-8.12929e-06
-1.61419e-05
8.67953e-06
-1.68089e-05
2.59722e-05
-1.72927e-05
4.35267e-05
-1.75545e-05
6.1359e-05
-1.78323e-05
7.91881e-05
-1.78292e-05
9.69042e-05
-1.77162e-05
0.000114188
-1.72835e-05
0.000130729
-1.65416e-05
0.000146416
-1.56868e-05
0.000160982
-1.45661e-05
-1.34824e-05
9.82737e-05
3.51926e-05
8.0452e-05
3.56361e-05
6.22318e-05
3.64325e-05
4.3763e-05
3.69299e-05
2.54367e-05
3.66432e-05
7.30999e-06
3.62461e-05
-1.04616e-05
3.55394e-05
-2.76561e-05
3.43826e-05
-4.40928e-05
3.28689e-05
-5.9642e-05
3.10954e-05
-7.42947e-05
2.93016e-05
-8.79678e-05
2.73404e-05
-0.000100627
2.53101e-05
-0.000112289
2.3325e-05
-0.000122948
2.13201e-05
-0.000132646
1.93963e-05
-0.000141387
1.74768e-05
-0.000149204
1.56271e-05
-0.000156133
1.38629e-05
-0.000162207
1.21564e-05
-0.000167456
1.04964e-05
-0.00017191
8.90834e-06
-0.000175593
7.36189e-06
-0.000178516
5.83573e-06
-0.000180707
4.38727e-06
-0.000182202
2.99329e-06
-0.000183022
1.64003e-06
-0.000183174
3.07848e-07
-0.000182566
-1.215e-06
-0.000181241
-2.64998e-06
-0.000179202
-4.08115e-06
-0.000176382
-5.64133e-06
-0.000172871
-7.02361e-06
-0.000168513
-8.71581e-06
-0.000163393
-1.02476e-05
-0.000157398
-1.19935e-05
-0.000150504
-1.37814e-05
-0.000142761
-1.5486e-05
-0.000134155
-1.72102e-05
-0.000124428
-1.94597e-05
-0.000113756
-2.13426e-05
-0.000101989
-2.35307e-05
-8.92429e-05
-2.54891e-05
-7.56544e-05
-2.71743e-05
-6.09964e-05
-2.92964e-05
-4.52386e-05
-3.15382e-05
-2.88657e-05
-3.27321e-05
-1.16412e-05
-3.44233e-05
6.47257e-06
-3.62539e-05
2.4931e-05
-3.69248e-05
4.38515e-05
-3.7823e-05
6.28831e-05
-3.80442e-05
8.19284e-05
-3.8077e-05
0.000100789
-3.7718e-05
0.000119038
-3.64885e-05
0.000136557
-3.50101e-05
0.000153127
-3.31206e-05
0.000168341
-3.04155e-05
0.000182054
-2.74096e-05
0.000194022
-2.39391e-05
0.000204112
-2.01654e-05
0.000212211
-1.61645e-05
0.000217941
-1.14578e-05
0.000221382
-6.87755e-06
0.000222436
-2.10462e-06
0.0002211
2.66435e-06
0.000217386
7.42853e-06
0.00021132
1.21309e-05
0.000203056
1.65214e-05
0.000192704
2.06944e-05
0.000180382
2.46283e-05
0.000166185
2.83792e-05
0.000150481
3.13889e-05
0.000133585
3.37781e-05
0.000115687
3.57844e-05
9.69974e-05
3.73722e-05
7.79404e-05
3.80839e-05
5.84918e-05
3.88822e-05
3.91127e-05
3.87523e-05
1.98971e-05
3.84083e-05
1.03557e-06
3.77106e-05
-1.72994e-05
3.66711e-05
-3.49731e-05
3.53225e-05
-5.19078e-05
3.38663e-05
-6.78904e-05
3.19542e-05
-8.29913e-05
3.01807e-05
-9.72036e-05
2.84487e-05
-0.00011036
2.6308e-05
-0.000122437
2.41554e-05
-0.000133421
2.19693e-05
-0.000143356
1.986e-05
-0.000152299
1.78849e-05
-0.0001601
1.56055e-05
-0.000166752
1.33114e-05
-0.000172397
1.1293e-05
-0.000176934
9.0821e-06
-0.000180707
7.54382e-06
-0.000183563
5.70591e-06
-0.00018545
3.78105e-06
-0.000186737
2.58505e-06
-0.000187417
1.35627e-06
-0.000187153
-5.24131e-07
-0.000186249
-1.7885e-06
-0.000184714
-3.07582e-06
-0.000182404
-4.61507e-06
-0.000179431
-5.94876e-06
-0.000175773
-7.31626e-06
-0.000171407
-8.72628e-06
-0.000166437
-9.94452e-06
-0.000160623
-1.16261e-05
-0.000154047
-1.3142e-05
-0.000146646
-1.48001e-05
-0.000138396
-1.65053e-05
-0.000129368
-1.80459e-05
-0.000119408
-1.99112e-05
-0.000108505
-2.18021e-05
-9.6752e-05
-2.35187e-05
-8.40935e-05
-2.53135e-05
-7.05316e-05
-2.71124e-05
-5.61054e-05
-2.88445e-05
-4.08486e-05
-3.05137e-05
-2.47918e-05
-3.21091e-05
-8.06019e-06
-3.3458e-05
9.2732e-06
-3.46496e-05
2.70768e-05
-3.55944e-05
4.51641e-05
-3.61754e-05
6.34379e-05
-3.65347e-05
8.16747e-05
-3.64669e-05
9.97126e-05
-3.60615e-05
0.000117323
-3.51992e-05
0.000134239
-3.3824e-05
0.000150212
-3.1946e-05
0.000165114
-2.97915e-05
0.000178586
-2.69336e-05
0.000190385
-2.35841e-05
0.000200333
-1.98742e-05
0.000208213
-1.57508e-05
0.000213851
-1.12934e-05
0.00021713
-6.54791e-06
0.000217964
-1.66048e-06
0.000216338
3.22734e-06
0.000212189
8.29286e-06
0.000205628
1.31139e-05
0.000196764
1.77076e-05
0.000185743
2.20369e-05
0.000172784
2.59035e-05
0.000158166
2.92185e-05
0.000142095
3.21187e-05
0.000124747
3.46761e-05
0.000106437
3.66141e-05
8.74209e-05
3.80209e-05
6.80659e-05
3.86938e-05
4.84447e-05
3.92224e-05
2.89114e-05
3.90543e-05
9.77289e-06
3.82656e-05
-8.92732e-06
3.73827e-05
-2.69732e-05
3.60842e-05
-4.41654e-05
3.43775e-05
-6.05649e-05
3.2785e-05
-7.58856e-05
3.06469e-05
-9.01804e-05
2.85972e-05
-0.000103474
2.65832e-05
-0.000115602
2.42539e-05
-0.000126651
2.20962e-05
-0.000136593
1.98902e-05
-0.000145485
1.77784e-05
-0.00015335
1.57293e-05
-0.00016016
1.36295e-05
-0.000165954
1.15928e-05
-0.000170926
9.9321e-06
-0.000174966
8.07616e-06
-0.000177937
5.94728e-06
-0.000180173
4.49183e-06
-0.000181742
3.14197e-06
-0.00018237
1.26073e-06
-0.000182306
-1.44489e-07
-0.00018111
-2.38567e-06
-0.000179253
-3.69744e-06
-0.000176832
-4.83566e-06
-0.000173595
-6.47586e-06
-0.00016964
-7.91033e-06
-0.000165093
-9.08725e-06
-0.000159827
-1.0529e-05
-0.000153927
-1.1798e-05
-0.000147304
-1.32405e-05
-0.000139968
-1.46691e-05
-0.000131964
-1.6008e-05
-0.000123303
-1.73202e-05
-0.000113878
-1.88458e-05
-0.00010373
-2.02916e-05
-9.28524e-05
-2.17591e-05
-8.11737e-05
-2.33553e-05
-6.87479e-05
-2.48431e-05
-5.54721e-05
-2.655e-05
-4.15075e-05
-2.7926e-05
-2.67408e-05
-2.95301e-05
-1.12629e-05
-3.09505e-05
4.90653e-06
-3.23299e-05
2.16831e-05
-3.35499e-05
3.8994e-05
-3.46108e-05
5.66692e-05
-3.53334e-05
7.45299e-05
-3.57129e-05
9.23706e-05
-3.56772e-05
0.000109963
-3.51735e-05
0.000127131
-3.43117e-05
0.000143429
-3.25881e-05
0.000158664
-3.04531e-05
0.000172547
-2.77541e-05
0.00018475
-2.43969e-05
0.000195018
-2.05247e-05
0.0002031
-1.6158e-05
0.000208827
-1.14481e-05
0.000212051
-6.45089e-06
0.000212686
-1.28017e-06
0.000210736
3.89529e-06
0.000206152
9.16163e-06
0.000199199
1.38982e-05
0.000189916
1.85623e-05
0.000178497
2.28143e-05
0.000165216
2.65427e-05
0.000150316
2.97785e-05
0.000134238
3.21482e-05
0.000117013
3.44259e-05
9.90734e-05
3.5851e-05
8.08862e-05
3.6364e-05
6.2482e-05
3.67962e-05
4.41344e-05
3.66782e-05
2.61151e-05
3.60286e-05
8.49642e-06
3.52238e-05
-8.35494e-06
3.37084e-05
-2.46463e-05
3.25698e-05
-4.01036e-05
3.09049e-05
-5.46257e-05
2.90442e-05
-6.8273e-05
2.72904e-05
-8.10142e-05
2.54836e-05
-9.28908e-05
2.37688e-05
-0.000103997
2.22006e-05
-0.000114139
2.02819e-05
-0.000123561
1.88401e-05
-0.000132212
1.73029e-05
-0.000140096
1.57805e-05
-0.000147266
1.43461e-05
-0.000153889
1.32466e-05
-0.000159848
1.19092e-05
-0.000165041
1.03894e-05
-0.000169677
9.2687e-06
-0.000173386
7.42395e-06
-0.000176555
6.34162e-06
-0.000179165
5.21494e-06
-0.000180866
3.39915e-06
-0.000181824
1.92217e-06
-0.000182148
6.59463e-07
-0.000181783
-7.35777e-07
-0.000180573
-2.42101e-06
-0.000178342
-4.46641e-06
-0.000175363
-5.9522e-06
-0.000171534
-7.64467e-06
-0.00016679
-9.48497e-06
-0.000161101
-1.13753e-05
-0.000154517
-1.31716e-05
-0.000146905
-1.5223e-05
-0.00013834
-1.71323e-05
-0.000128742
-1.91936e-05
-0.000118118
-2.12462e-05
-0.000106525
-2.31778e-05
-9.39109e-05
-2.52256e-05
-8.04146e-05
-2.69914e-05
-6.59387e-05
-2.89469e-05
-5.06046e-05
-3.06662e-05
-3.45842e-05
-3.20311e-05
-1.78458e-05
-3.34669e-05
-5.5915e-07
-3.45679e-05
1.7182e-05
-3.5475e-05
3.52186e-05
-3.60628e-05
5.33816e-05
-3.63289e-05
7.14665e-05
-3.61683e-05
8.9319e-05
-3.56851e-05
0.000106748
-3.48454e-05
0.000123523
-3.35471e-05
0.000139432
-3.18096e-05
0.000154292
-2.97117e-05
0.000167934
-2.72768e-05
0.000180151
-2.44249e-05
0.000190673
-2.10527e-05
0.000199421
-1.74944e-05
0.000206192
-1.35209e-05
0.000210812
-9.23218e-06
0.000213216
-4.80334e-06
0.000213312
-1.92067e-07
0.000211187
4.24936e-06
0.000206806
8.7694e-06
0.000200172
1.32699e-05
0.000191468
1.74031e-05
0.000180725
2.14768e-05
0.000168136
2.51674e-05
0.000154026
2.82122e-05
0.00013847
3.10999e-05
0.000121763
3.3402e-05
0.000104189
3.51371e-05
8.59436e-05
3.64777e-05
6.73572e-05
3.71618e-05
4.85474e-05
3.76063e-05
2.98147e-05
3.7456e-05
1.13961e-05
3.68281e-05
-6.67452e-06
3.61346e-05
-2.42044e-05
3.5052e-05
-4.10108e-05
3.36059e-05
-5.70262e-05
3.20253e-05
-7.21201e-05
3.01832e-05
-8.62774e-05
2.83098e-05
-9.9433e-05
2.63077e-05
-0.000111548
2.42252e-05
-0.000122645
2.21897e-05
-0.000132709
2.01266e-05
-0.000141749
1.808e-05
-0.000149799
1.60998e-05
-0.000156876
1.41492e-05
-0.000163024
1.2292e-05
-0.000168261
1.04725e-05
-0.000172618
8.7191e-06
-0.000176136
7.03747e-06
-0.000178837
5.39846e-06
-0.000180753
3.82575e-06
-0.000181921
2.34263e-06
-0.000182333
8.31786e-07
-0.000181907
-8.5614e-07
-0.000180702
-2.40824e-06
-0.000178718
-3.96799e-06
-0.000176018
-5.3979e-06
-0.000172606
-6.82123e-06
-0.000168331
-8.55553e-06
-0.000163316
-1.00281e-05
-0.000157602
-1.1428e-05
-0.00015105
-1.31031e-05
-0.000143764
-1.45669e-05
-0.00013551
-1.65134e-05
-0.000126463
-1.80914e-05
-0.000116676
-1.9573e-05
-0.000105939
-2.14724e-05
-9.4381e-05
-2.31188e-05
-8.20051e-05
-2.47491e-05
-6.86819e-05
-2.66464e-05
-5.47411e-05
-2.78792e-05
-3.98685e-05
-2.97401e-05
-2.4301e-05
-3.11264e-05
-8.15403e-06
-3.2289e-05
8.65081e-06
-3.36138e-05
2.59469e-05
-3.45889e-05
4.34972e-05
-3.51049e-05
6.13343e-05
-3.56696e-05
7.91777e-05
-3.56728e-05
9.69065e-05
-3.54451e-05
0.000114201
-3.45782e-05
0.000130745
-3.30853e-05
0.000146443
-3.13856e-05
0.000161031
-2.91542e-05
-2.69757e-05
9.83102e-05
5.28084e-05
8.04722e-05
5.34742e-05
6.22354e-05
5.46692e-05
4.37521e-05
5.54133e-05
2.54088e-05
5.49865e-05
7.26821e-06
5.43867e-05
-1.05161e-05
5.33238e-05
-2.7721e-05
5.15875e-05
-4.41659e-05
4.93137e-05
-5.97233e-05
4.66529e-05
-7.43833e-05
4.39615e-05
-8.80609e-05
4.10181e-05
-0.00010072
3.7969e-05
-0.000112382
3.49876e-05
-0.000123048
3.19851e-05
-0.000132747
2.90955e-05
-0.000141487
2.62167e-05
-0.000149296
2.3436e-05
-0.000156224
2.07908e-05
-0.000162302
1.82352e-05
-0.000167555
1.57495e-05
-0.000172014
1.33673e-05
-0.0001757
1.10475e-05
-0.000178618
8.75358e-06
-0.000180804
6.57296e-06
-0.000182305
4.49475e-06
-0.000183119
2.45359e-06
-0.000183242
4.31618e-07
-0.000182622
-1.83504e-06
-0.000181297
-3.97499e-06
-0.000179263
-6.1157e-06
-0.000176439
-8.46489e-06
-0.000172928
-1.05347e-05
-0.000168574
-1.30705e-05
-0.000163462
-1.53591e-05
-0.000157482
-1.7974e-05
-0.000150576
-2.06874e-05
-0.000142834
-2.32276e-05
-0.00013423
-2.58142e-05
-0.000124511
-2.91783e-05
-0.000113838
-3.20159e-05
-0.000102071
-3.52979e-05
-8.93221e-05
-3.82381e-05
-7.57302e-05
-4.07663e-05
-6.10589e-05
-4.39677e-05
-4.53181e-05
-4.72791e-05
-2.89273e-05
-4.91229e-05
-1.16722e-05
-5.16784e-05
6.42303e-06
-5.43492e-05
2.48816e-05
-5.53834e-05
4.38038e-05
-5.67453e-05
6.28473e-05
-5.70877e-05
8.19186e-05
-5.71484e-05
0.000100805
-5.66041e-05
0.00011906
-5.47436e-05
0.000136588
-5.2539e-05
0.000153189
-4.97213e-05
0.000168426
-4.56523e-05
0.000182163
-4.11468e-05
0.000194154
-3.59298e-05
0.000204254
-3.0266e-05
0.000212375
-2.42855e-05
0.000218128
-1.72103e-05
0.000221572
-1.03221e-05
0.00022263
-3.1629e-06
0.000221275
4.01949e-06
0.000217564
1.11402e-05
0.000211496
1.81982e-05
0.000203226
2.47914e-05
0.000192859
3.1062e-05
0.000180503
3.69846e-05
0.000166293
4.25882e-05
0.00015057
4.71123e-05
0.000133658
5.06906e-05
0.000115742
5.36998e-05
9.70436e-05
5.60708e-05
7.7947e-05
5.71806e-05
5.84842e-05
5.83451e-05
3.90939e-05
5.81426e-05
1.98519e-05
5.76503e-05
9.88291e-07
5.65743e-05
-1.73423e-05
5.50018e-05
-3.50441e-05
5.30243e-05
-5.19796e-05
5.08018e-05
-6.79759e-05
4.79504e-05
-8.30774e-05
4.52822e-05
-9.72727e-05
4.26441e-05
-0.000110436
3.9471e-05
-0.000122515
3.62345e-05
-0.000133508
3.29627e-05
-0.000143444
2.97958e-05
-0.000152386
2.6827e-05
-0.000160186
2.34057e-05
-0.000166834
1.99587e-05
-0.00017248
1.69392e-05
-0.000177002
1.36045e-05
-0.00018079
1.13317e-05
-0.000183649
8.56455e-06
-0.000185521
5.65374e-06
-0.000186806
3.8694e-06
-0.000187477
2.02799e-06
-0.000187218
-7.83988e-07
-0.000186324
-2.68236e-06
-0.000184779
-4.62039e-06
-0.000182443
-6.95085e-06
-0.000179484
-8.9084e-06
-0.000175837
-1.09632e-05
-0.000171472
-1.30907e-05
-0.00016651
-1.49065e-05
-0.000160697
-1.74395e-05
-0.00015412
-1.97187e-05
-0.000146724
-2.21962e-05
-0.000138475
-2.47544e-05
-0.000129449
-2.70715e-05
-0.000119489
-2.98717e-05
-0.000108586
-3.2705e-05
-9.68563e-05
-3.52486e-05
-8.41716e-05
-3.79981e-05
-7.06119e-05
-4.06722e-05
-5.61782e-05
-4.32781e-05
-4.09119e-05
-4.578e-05
-2.48453e-05
-4.81758e-05
-8.10775e-06
-5.01956e-05
9.23972e-06
-5.19971e-05
2.70611e-05
-5.34159e-05
4.51638e-05
-5.42782e-05
6.34519e-05
-5.48228e-05
8.17032e-05
-5.47182e-05
9.97544e-05
-5.41127e-05
0.000117388
-5.28327e-05
0.000134326
-5.07627e-05
0.000150323
-4.79424e-05
0.000165243
-4.4712e-05
0.000178729
-4.0419e-05
0.000190544
-3.53992e-05
0.000200503
-2.98339e-05
0.000208413
-2.36603e-05
0.000214072
-1.69522e-05
0.000217345
-9.82153e-06
0.000218169
-2.48385e-06
0.000216515
4.88134e-06
0.000212366
1.2442e-05
0.000205812
1.96679e-05
0.000196922
2.65972e-05
0.00018588
3.30784e-05
0.000172912
3.88722e-05
0.000158282
4.38486e-05
0.000142182
4.82185e-05
0.000124813
5.20452e-05
0.000106491
5.4936e-05
8.74444e-05
5.70674e-05
6.80676e-05
5.80707e-05
4.8426e-05
5.8864e-05
2.8876e-05
5.86043e-05
9.72592e-06
5.74157e-05
-8.9852e-06
5.60939e-05
-2.70442e-05
5.41432e-05
-4.42451e-05
5.15784e-05
-6.06555e-05
4.91954e-05
-7.5973e-05
4.59644e-05
-9.02624e-05
4.28867e-05
-0.00010356
3.98809e-05
-0.000115681
3.63746e-05
-0.000126728
3.31439e-05
-0.000136673
2.98347e-05
-0.000145576
2.66813e-05
-0.000153441
2.35948e-05
-0.00016024
2.04285e-05
-0.000166023
1.73756e-05
-0.000171009
1.49177e-05
-0.000175049
1.21167e-05
-0.000178001
8.89911e-06
-0.000180237
6.72786e-06
-0.000181826
4.7305e-06
-0.000182432
1.86704e-06
-0.000182379
-1.97702e-07
-0.000181188
-3.57668e-06
-0.000179321
-5.5641e-06
-0.000176894
-7.26295e-06
-0.000173652
-9.71734e-06
-0.000169702
-1.18608e-05
-0.000165152
-1.36367e-05
-0.000159891
-1.57902e-05
-0.000153998
-1.7691e-05
-0.000147375
-1.98637e-05
-0.000140037
-2.20075e-05
-0.000132028
-2.40165e-05
-0.000123368
-2.59801e-05
-0.000113944
-2.82698e-05
-0.00010379
-3.04461e-05
-9.29234e-05
-3.26256e-05
-8.12469e-05
-3.50318e-05
-6.88215e-05
-3.72686e-05
-5.55736e-05
-3.97979e-05
-4.15633e-05
-4.19364e-05
-2.67929e-05
-4.43007e-05
-1.13161e-05
-4.64273e-05
4.86925e-06
-4.85153e-05
2.16564e-05
-5.03371e-05
3.89722e-05
-5.19267e-05
5.66621e-05
-5.30234e-05
7.4547e-05
-5.3598e-05
9.24078e-05
-5.35381e-05
0.000110008
-5.27736e-05
0.000127208
-5.15117e-05
0.000143527
-4.89074e-05
0.000158787
-4.57131e-05
0.0001727
-4.16668e-05
0.000184921
-3.6618e-05
0.00019521
-3.0814e-05
0.000203312
-2.42606e-05
0.000209049
-1.71843e-05
0.000212269
-9.67086e-06
0.000212906
-1.91818e-06
0.000210915
5.88681e-06
0.000206332
1.37443e-05
0.000199384
2.08468e-05
0.000190088
2.78578e-05
0.000178638
3.42647e-05
0.00016534
3.98407e-05
0.000150418
4.47006e-05
0.000134331
4.82351e-05
0.000117064
5.16927e-05
9.90855e-05
5.38295e-05
8.08853e-05
5.45642e-05
6.2464e-05
5.52175e-05
4.41062e-05
5.5036e-05
2.60695e-05
5.40654e-05
8.43214e-06
5.28611e-05
-8.41241e-06
5.0553e-05
-2.4717e-05
4.88744e-05
-4.01859e-05
4.63738e-05
-5.47036e-05
4.35619e-05
-6.83494e-05
4.09362e-05
-8.10768e-05
3.82111e-05
-9.29357e-05
3.56277e-05
-0.000104055
3.33199e-05
-0.000114202
3.0429e-05
-0.000123625
2.82628e-05
-0.000132267
2.5945e-05
-0.000140145
2.36587e-05
-0.000147311
2.15121e-05
-0.000153938
1.98732e-05
-0.000159906
1.78774e-05
-0.0001651
1.55831e-05
-0.000169745
1.3914e-05
-0.000173447
1.1126e-05
-0.000176614
9.50818e-06
-0.000179241
7.84213e-06
-0.000180948
5.10642e-06
-0.000181914
2.88803e-06
-0.000182237
9.82986e-07
-0.000181838
-1.13501e-06
-0.000180631
-3.62861e-06
-0.000178408
-6.68892e-06
-0.000175437
-8.92364e-06
-0.000171617
-1.14638e-05
-0.000166879
-1.42237e-05
-0.000161194
-1.70602e-05
-0.000154609
-1.97561e-05
-0.000146988
-2.28448e-05
-0.000138419
-2.57014e-05
-0.00012882
-2.87919e-05
-0.000118201
-3.18652e-05
-0.000106604
-3.47753e-05
-9.39845e-05
-3.78448e-05
-8.04887e-05
-4.04873e-05
-6.60095e-05
-4.3426e-05
-5.06824e-05
-4.59934e-05
-3.46493e-05
-4.80642e-05
-1.79003e-05
-5.02159e-05
-5.99152e-07
-5.18691e-05
1.71548e-05
-5.3229e-05
3.52036e-05
-5.41116e-05
5.3383e-05
-5.45084e-05
7.1473e-05
-5.42584e-05
8.93313e-05
-5.35434e-05
0.000106774
-5.22878e-05
0.000123552
-5.03259e-05
0.000139484
-4.77418e-05
0.000154365
-4.45923e-05
0.000168021
-4.0933e-05
0.000180249
-3.6653e-05
0.000190781
-3.15844e-05
0.000199523
-2.62365e-05
0.000206277
-2.0275e-05
0.000210897
-1.38518e-05
0.00021333
-7.23708e-06
0.000213445
-3.07389e-07
0.00021134
6.35495e-06
0.000206972
1.31374e-05
0.000200337
1.99048e-05
0.000191621
2.61194e-05
0.000180865
3.22321e-05
0.000168263
3.77699e-05
0.000154134
4.23406e-05
0.000138557
4.66776e-05
0.000121835
5.01238e-05
0.000104239
5.27325e-05
8.59744e-05
5.47426e-05
6.7371e-05
5.57652e-05
4.85416e-05
5.64358e-05
2.98114e-05
5.61862e-05
1.13629e-05
5.52766e-05
-6.71984e-06
5.42173e-05
-2.42598e-05
5.2592e-05
-4.10738e-05
5.04198e-05
-5.70954e-05
4.80469e-05
-7.21947e-05
4.52826e-05
-8.63571e-05
4.24722e-05
-9.95165e-05
3.94672e-05
-0.000111634
3.63423e-05
-0.000122731
3.32871e-05
-0.000132796
3.01919e-05
-0.000141839
2.71227e-05
-0.000149894
2.41545e-05
-0.00015697
2.12257e-05
-0.000163113
1.84348e-05
-0.000168348
1.57076e-05
-0.000172703
1.30736e-05
-0.000176229
1.05633e-05
-0.000178933
8.10241e-06
-0.000180844
5.73672e-06
-0.000182004
3.50327e-06
-0.000182401
1.22897e-06
-0.000181969
-1.28899e-06
-0.000180762
-3.61524e-06
-0.000178775
-5.95406e-06
-0.000176076
-8.09726e-06
-0.000172664
-1.0233e-05
-0.000168393
-1.28266e-05
-0.000163378
-1.50432e-05
-0.000157664
-1.71426e-05
-0.000151112
-1.96549e-05
-0.000143826
-2.18524e-05
-0.000135578
-2.47615e-05
-0.00012653
-2.71393e-05
-0.000116743
-2.93605e-05
-0.000106005
-3.22105e-05
-9.44538e-05
-3.467e-05
-8.20741e-05
-3.71288e-05
-6.87554e-05
-3.99651e-05
-5.4788e-05
-4.18466e-05
-3.99131e-05
-4.4615e-05
-2.43531e-05
-4.66865e-05
-8.19385e-06
-4.84483e-05
8.61987e-06
-5.04276e-05
2.59201e-05
-5.18892e-05
4.34761e-05
-5.26611e-05
6.13169e-05
-5.35104e-05
7.91658e-05
-5.35218e-05
9.691e-05
-5.31894e-05
0.000114227
-5.1895e-05
0.000130793
-4.96521e-05
0.000146511
-4.71037e-05
0.000161126
-4.37696e-05
-4.04949e-05
9.83649e-05
7.04486e-05
8.05023e-05
7.13367e-05
6.22408e-05
7.29307e-05
4.37355e-05
7.39186e-05
2.53678e-05
7.33541e-05
7.20555e-06
7.2549e-05
-1.05978e-05
7.11271e-05
-2.782e-05
6.88097e-05
-4.42787e-05
6.57724e-05
-5.98476e-05
6.22217e-05
-7.45152e-05
5.86292e-05
-8.82013e-05
5.47041e-05
-0.000100867
5.06347e-05
-0.000112533
4.66541e-05
-0.0001232
4.26521e-05
-0.000132897
3.87917e-05
-0.000141635
3.49547e-05
-0.000149445
3.12463e-05
-0.000156375
2.7721e-05
-0.00016245
2.43104e-05
-0.000167701
2.10008e-05
-0.000172159
1.78252e-05
-0.000175847
1.47351e-05
-0.000178776
1.16827e-05
-0.000180964
8.76107e-06
-0.000182463
5.99341e-06
-0.00018326
3.25043e-06
-0.000183338
5.09887e-07
-0.000182705
-2.46784e-06
-0.000181382
-5.29812e-06
-0.000179354
-8.14333e-06
-0.000176527
-1.12923e-05
-0.000173017
-1.40447e-05
-0.000168665
-1.74224e-05
-0.000163551
-2.04735e-05
-0.000157619
-2.3906e-05
-0.000150682
-2.76238e-05
-0.000142944
-3.09662e-05
-0.000134343
-3.44151e-05
-0.000124638
-3.88834e-05
-0.000113962
-4.26914e-05
-0.000102194
-4.70661e-05
-8.94418e-05
-5.09906e-05
-7.58458e-05
-5.43622e-05
-6.11532e-05
-5.86604e-05
-4.54421e-05
-6.29903e-05
-2.90212e-05
-6.55438e-05
-1.17271e-05
-6.89726e-05
6.33221e-06
-7.24086e-05
2.47914e-05
-7.38426e-05
4.37336e-05
-7.56875e-05
6.2795e-05
-7.61491e-05
8.18883e-05
-7.62419e-05
0.000100803
-7.55187e-05
0.000119091
-7.30319e-05
0.000136649
-7.0097e-05
0.000153279
-6.63508e-05
0.000168533
-6.09068e-05
0.000182305
-5.49185e-05
0.00019433
-4.7955e-05
0.000204471
-4.04069e-05
0.000212623
-3.24381e-05
0.000218394
-2.29815e-05
0.000221848
-1.37755e-05
0.000222918
-4.23323e-06
0.000221544
5.39347e-06
0.000217832
1.48521e-05
0.000211761
2.4269e-05
0.000203483
3.30702e-05
0.000193086
4.14581e-05
0.000180686
4.93853e-05
0.000166456
5.68179e-05
0.000150701
6.28678e-05
0.00013376
6.76317e-05
0.000115819
7.16407e-05
9.71329e-05
7.47568e-05
7.79576e-05
7.63559e-05
5.84645e-05
7.78382e-05
3.90709e-05
7.75362e-05
1.97882e-05
7.6933e-05
9.13009e-07
7.54495e-05
-1.74233e-05
7.33381e-05
-3.51523e-05
7.07534e-05
-5.20959e-05
6.77454e-05
-6.81074e-05
6.39619e-05
-8.3214e-05
6.03888e-05
-9.7388e-05
5.6818e-05
-0.000110565
5.26477e-05
-0.000122653
4.83229e-05
-0.000133644
4.39535e-05
-0.000143576
3.97282e-05
-0.00015252
3.57707e-05
-0.000160316
3.12016e-05
-0.000166966
2.66089e-05
-0.000172621
2.25938e-05
-0.000177092
1.80761e-05
-0.000180891
1.51299e-05
-0.000183778
1.14523e-05
-0.000185616
7.49104e-06
-0.000186907
5.16077e-06
-0.000187577
2.69853e-06
-0.000187322