/*--------------------------------*- C++ -*----------------------------------*\
| =========                 |                                                 |
| \\      /  F ield         | OpenFOAM: The Open Source CFD Toolbox           |
|  \\    /   O peration     | Version:  3.0.1                                 |
|   \\  /    A nd           | Web:      www.OpenFOAM.org                      |
|    \\/     M anipulation  |                                                 |
\*---------------------------------------------------------------------------*/
FoamFile
{
    version     2.0;
    format      ascii;
    class       surfaceScalarField;
    location    "26.2";
    object      phi;
}
// * * * * * * * * * * * * * * * * * * * * * * * * * * * * * * * * * * * * * //

dimensions      [0 3 -1 0 0 0 0];

internalField   nonuniform List<scalar> 
42423
(
-3.41073e-05
1.62035e-05
-4.94727e-05
1.53654e-05
-6.40914e-05
1.46187e-05
-7.78799e-05
1.37885e-05
-9.07336e-05
1.28537e-05
-0.000102705
1.19712e-05
-0.000113731
1.10262e-05
-0.000123867
1.01361e-05
-0.000133105
9.23832e-06
-0.000141451
8.34578e-06
-0.000148946
7.49475e-06
-0.000155599
6.65315e-06
-0.000161438
5.83898e-06
-0.000166495
5.05749e-06
-0.000170779
4.28335e-06
-0.000174329
3.55062e-06
-0.00017717
2.84066e-06
-0.000179287
2.1164e-06
-0.000180717
1.43075e-06
-0.000181478
7.60314e-07
-0.000181506
2.80026e-08
-0.000180831
-6.75027e-07
-0.000179393
-1.43721e-06
-0.000177187
-2.2065e-06
-0.000174262
-2.92478e-06
-0.000170513
-3.74941e-06
-0.000165968
-4.54453e-06
-0.000160691
-5.27732e-06
-0.000154378
-6.31292e-06
-0.000147286
-7.09167e-06
-0.000139285
-8.00184e-06
-0.000130253
-9.03132e-06
-0.000120313
-9.94084e-06
-0.000109296
-1.10161e-05
-9.73131e-05
-1.19833e-05
-8.4374e-05
-1.29392e-05
-7.03753e-05
-1.39987e-05
-5.55021e-05
-1.48732e-05
-3.96938e-05
-1.58084e-05
-2.30499e-05
-1.6644e-05
-5.75858e-06
-1.72914e-05
1.23457e-05
-1.81044e-05
3.0921e-05
-1.85753e-05
4.96738e-05
-1.87528e-05
6.8535e-05
-1.88614e-05
8.73203e-05
-1.87854e-05
0.000105672
-1.83522e-05
0.000123445
-1.77722e-05
0.000140481
-1.70368e-05
0.000156313
-1.58321e-05
0.000170884
-1.45708e-05
0.000183833
-1.29492e-05
0.000195081
-1.12478e-05
0.000204431
-9.35003e-06
0.000211593
-7.16175e-06
0.000216577
-4.98458e-06
0.000219266
-2.68878e-06
0.000219569
-3.02903e-07
0.000217534
2.03482e-06
0.000213068
4.46569e-06
0.000206339
6.72922e-06
0.000197524
8.81471e-06
0.000186591
1.09332e-05
0.000173865
1.27258e-05
0.000159461
1.44042e-05
0.000143627
1.5834e-05
0.000126636
1.69908e-05
0.000108796
1.78394e-05
9.02948e-05
1.85016e-05
7.12717e-05
1.90232e-05
5.22133e-05
1.90583e-05
3.31574e-05
1.90558e-05
1.42962e-05
1.88612e-05
-4.03851e-06
1.83347e-05
-2.17602e-05
1.77217e-05
-3.87571e-05
1.69969e-05
-5.48875e-05
1.61305e-05
-7.01329e-05
1.52453e-05
-8.43414e-05
1.42086e-05
-9.74674e-05
1.3126e-05
-0.00010954
1.20724e-05
-0.000120469
1.09288e-05
-0.000130248
9.77931e-06
-0.000138943
8.69491e-06
-0.000146549
7.60581e-06
-0.000153123
6.57442e-06
-0.000158646
5.52258e-06
-0.000163251
4.60533e-06
-0.00016695
3.69933e-06
-0.000169857
2.90614e-06
-0.000171999
2.14211e-06
-0.000173324
1.3253e-06
-0.000174018
6.93709e-07
-0.000174016
-1.21133e-09
-0.0001734
-6.16197e-07
-0.000172163
-1.23758e-06
-0.000170373
-1.78926e-06
-0.000167989
-2.38461e-06
-0.000165106
-2.88278e-06
-0.000161652
-3.45415e-06
-0.000157532
-4.12031e-06
-0.000152753
-4.77847e-06
-0.00014741
-5.34363e-06
-0.000141262
-6.14797e-06
-0.0001344
-6.8613e-06
-0.000126792
-7.6084e-06
-0.000118418
-8.37362e-06
-0.000109231
-9.18733e-06
-9.91875e-05
-1.00436e-05
-8.82837e-05
-1.09038e-05
-7.65435e-05
-1.17403e-05
-6.3938e-05
-1.26055e-05
-5.04935e-05
-1.34446e-05
-3.61923e-05
-1.43013e-05
-2.11616e-05
-1.50308e-05
-5.41727e-06
-1.57444e-05
1.09379e-05
-1.63553e-05
2.78104e-05
-1.68726e-05
4.50428e-05
-1.72325e-05
6.25435e-05
-1.75007e-05
8.01027e-05
-1.75593e-05
9.75521e-05
-1.74495e-05
0.000114673
-1.71205e-05
0.000131187
-1.65145e-05
0.000146917
-1.57305e-05
0.000161551
-1.46335e-05
0.000174848
-1.32972e-05
0.000186532
-1.1684e-05
0.00019638
-9.84871e-06
0.000204196
-7.8155e-06
0.000209793
-5.59704e-06
0.000213031
-3.23817e-06
0.000213835
-8.04023e-07
0.000212236
1.59884e-06
0.000208149
4.08721e-06
0.00020166
6.48901e-06
0.000192966
8.69365e-06
0.000182213
1.07533e-05
0.000169652
1.25601e-05
0.000155459
1.41936e-05
0.000139904
1.55542e-05
0.000123277
1.66278e-05
0.000105807
1.74696e-05
8.78112e-05
1.79957e-05
6.95431e-05
1.82681e-05
5.12512e-05
1.82918e-05
3.31588e-05
1.80924e-05
1.5406e-05
1.77527e-05
-1.74553e-06
1.71515e-05
-1.82162e-05
1.64706e-05
-3.38679e-05
1.56517e-05
-4.85372e-05
1.46692e-05
-6.22375e-05
1.37003e-05
-7.47698e-05
1.25323e-05
-8.63267e-05
1.15568e-05
-9.6875e-05
1.05483e-05
-0.000106344
9.46851e-06
-0.000114934
8.59053e-06
-0.000122567
7.63335e-06
-0.000129294
6.72649e-06
-0.000135316
6.02224e-06
-0.000140456
5.14031e-06
-0.000144902
4.44523e-06
-0.000148599
3.69747e-06
-0.000151658
3.05861e-06
-0.000154028
2.37044e-06
-0.000155747
1.71903e-06
-0.00015686
1.1124e-06
-0.000157379
5.19622e-07
-0.000157311
-6.83954e-08
-0.000156643
-6.67875e-07
-0.000155424
-1.21913e-06
-0.000153694
-1.73005e-06
-0.00015131
-2.38423e-06
-0.000148346
-2.96394e-06
-0.000144654
-3.69134e-06
-0.000140171
-4.48329e-06
-0.000135076
-5.09502e-06
-0.000129166
-5.91056e-06
-0.000122422
-6.74324e-06
-0.000114897
-7.52586e-06
-0.000106416
-8.48037e-06
-9.71539e-05
-9.26231e-06
-8.69075e-05
-1.02464e-05
-7.57186e-05
-1.11889e-05
-6.35867e-05
-1.2132e-05
-5.05977e-05
-1.2989e-05
-3.66821e-05
-1.39156e-05
-2.19111e-05
-1.4771e-05
-6.39006e-06
-1.55211e-05
9.84436e-06
-1.62345e-05
2.66982e-05
-1.68539e-05
4.40838e-05
-1.73856e-05
6.17974e-05
-1.77137e-05
7.97153e-05
-1.79179e-05
9.76225e-05
-1.79073e-05
0.000115299
-1.76769e-05
0.000132573
-1.72739e-05
0.00014918
-1.66069e-05
0.000164878
-1.56985e-05
0.000179416
-1.45381e-05
0.000192552
-1.31354e-05
0.000204044
-1.14921e-05
0.000213685
-9.64105e-06
0.000221322
-7.6375e-06
0.000226784
-5.46133e-06
0.000229996
-3.21218e-06
0.000230909
-9.13682e-07
0.000229537
1.37209e-06
0.000225784
3.75332e-06
0.000219819
5.96478e-06
0.000211787
8.03159e-06
0.00020174
1.00474e-05
0.000189942
1.17979e-05
0.000176586
1.3356e-05
0.000161984
1.46019e-05
0.000146297
1.56875e-05
0.000129695
1.66017e-05
0.000112536
1.71583e-05
9.49545e-05
1.7582e-05
7.7178e-05
1.77765e-05
5.95271e-05
1.76508e-05
4.19608e-05
1.75664e-05
2.49319e-05
1.70288e-05
8.45886e-06
1.6473e-05
-7.34057e-06
1.57994e-05
-2.23248e-05
1.49842e-05
-3.64753e-05
1.41505e-05
-4.97014e-05
1.32261e-05
-6.1876e-05
1.21746e-05
-7.30933e-05
1.12173e-05
-8.33402e-05
1.02468e-05
-9.25404e-05
9.20022e-06
-0.000100789
8.24901e-06
-0.000108057
7.26726e-06
-0.000114428
6.37161e-06
-0.000119905
5.47683e-06
-0.000124568
4.66266e-06
-0.000128455
3.88723e-06
-0.000131544
3.08887e-06
-0.000134028
2.48449e-06
-0.000135769
1.74056e-06
-0.000136929
1.15958e-06
-0.000137569
6.40339e-07
-0.000137568
-1.00139e-09
-0.000136998
-5.69841e-07
-0.000135752
-1.24585e-06
-0.000134059
-1.69323e-06
-0.000131764
-2.29511e-06
-0.00012885
-2.91372e-06
-0.000125331
-3.51917e-06
-0.000121178
-4.15329e-06
-0.000116513
-4.66456e-06
-0.000111146
-5.36732e-06
-0.000104939
-6.20712e-06
-9.81571e-05
-6.78169e-06
-9.05224e-05
-7.63471e-06
-8.21012e-05
-8.42124e-06
-7.29035e-05
-9.19769e-06
-6.28587e-05
-1.00448e-05
-5.20157e-05
-1.0843e-05
-4.03057e-05
-1.17101e-05
-2.77474e-05
-1.25583e-05
-1.45906e-05
-1.31569e-05
-5.64477e-07
-1.40261e-05
1.41654e-05
-1.47299e-05
2.95235e-05
-1.53581e-05
4.53875e-05
-1.58641e-05
6.18322e-05
-1.64447e-05
7.84642e-05
-1.6632e-05
9.53518e-05
-1.68877e-05
0.000112311
-1.69596e-05
0.000129085
-1.67741e-05
0.00014566
-1.65746e-05
0.000161742
-1.60819e-05
0.000177108
-1.53661e-05
0.000191546
-1.44378e-05
0.000204794
-1.32482e-05
0.000216513
-1.17191e-05
0.000226573
-1.00599e-05
0.000234571
-7.99855e-06
0.000240418
-5.84655e-06
0.000243767
-3.3495e-06
0.000244223
-4.55667e-07
0.000242207
2.01609e-06
0.000237649
4.55745e-06
0.00023068
6.96912e-06
0.000221488
9.19245e-06
0.00021007
1.14175e-05
0.000196779
1.32916e-05
0.000181808
1.49704e-05
0.000165389
1.64194e-05
0.000148036
1.73527e-05
0.00012994
1.80956e-05
0.000111395
1.85457e-05
9.27749e-05
1.86197e-05
7.42575e-05
1.85174e-05
5.60333e-05
1.82242e-05
3.8286e-05
1.77473e-05
2.11791e-05
1.71069e-05
4.76994e-06
1.64091e-05
-1.10208e-05
1.57907e-05
-2.59914e-05
1.49707e-05
-4.00245e-05
1.40331e-05
-5.31222e-05
1.30976e-05
-6.5247e-05
1.21248e-05
-7.63948e-05
1.11478e-05
-8.6567e-05
1.01722e-05
-9.57636e-05
9.1966e-06
-0.000103997
8.23363e-06
-0.000111314
7.31724e-06
-0.000117731
6.41606e-06
-0.000123281
5.55029e-06
-0.000128041
4.76013e-06
-0.000132011
3.9703e-06
-0.000135248
3.23717e-06
-0.00013778
2.53115e-06
-0.00013964
1.86012e-06
-0.000140819
1.17937e-06
-0.000141366
5.46901e-07
-0.000141181
-1.85047e-07
-0.000140266
-9.15181e-07
-0.000138589
-1.67671e-06
-0.0001362
-2.3894e-06
-0.000133037
-3.16307e-06
-0.000129159
-3.8771e-06
-0.000124575
-4.58486e-06
-0.000119159
-5.41552e-06
-0.000113079
-6.08038e-06
-0.000106335
-6.74397e-06
-9.87508e-05
-7.58396e-06
-9.04299e-05
-8.32096e-06
-8.14916e-05
-8.93829e-06
-7.16988e-05
-9.79281e-06
-6.12616e-05
-1.04373e-05
-5.00002e-05
-1.12614e-05
-3.79914e-05
-1.20089e-05
-2.53921e-05
-1.25993e-05
-1.20217e-05
-1.33704e-05
2.0005e-06
-1.40223e-05
1.64977e-05
-1.44972e-05
3.16608e-05
-1.51632e-05
4.72255e-05
-1.55647e-05
6.32823e-05
-1.60569e-05
7.96263e-05
-1.63441e-05
9.59866e-05
-1.63604e-05
0.000112445
-1.64584e-05
0.000128768
-1.63232e-05
0.000144703
-1.59355e-05
0.000160046
-1.53432e-05
0.000174558
-1.45119e-05
0.000188102
-1.35442e-05
0.000200319
-1.22167e-05
0.000210881
-1.05617e-05
0.000219608
-8.72802e-06
0.000226239
-6.6305e-06
-4.62921e-06
-3.4138e-05
3.24099e-05
-4.95055e-05
3.07329e-05
-6.41268e-05
2.924e-05
-7.79178e-05
2.75795e-05
-9.0774e-05
2.57098e-05
-0.000102748
2.39452e-05
-0.000113778
2.2056e-05
-0.000123917
2.0275e-05
-0.000133158
1.84797e-05
-0.000141503
1.66903e-05
-0.000148995
1.4987e-05
-0.000155648
1.33065e-05
-0.000161488
1.1679e-05
-0.000166547
1.0116e-05
-0.00017084
8.57633e-06
-0.000174389
7.09977e-06
-0.000177226
5.67775e-06
-0.00017935
4.24026e-06
-0.000180784
2.8645e-06
-0.000181545
1.52166e-06
-0.000181568
5.10973e-08
-0.000180877
-1.36634e-06
-0.000179444
-2.86988e-06
-0.000177239
-4.41172e-06
-0.000174323
-5.84124e-06
-0.000170565
-7.50709e-06
-0.000166022
-9.08718e-06
-0.00016075
-1.05496e-05
-0.000154434
-1.26289e-05
-0.000147343
-1.41835e-05
-0.000139351
-1.59935e-05
-0.000130311
-1.80709e-05
-0.000120371
-1.98811e-05
-0.000109354
-2.20338e-05
-9.73696e-05
-2.39675e-05
-8.44272e-05
-2.58818e-05
-7.04301e-05
-2.79959e-05
-5.55407e-05
-2.97627e-05
-3.97373e-05
-3.16119e-05
-2.31045e-05
-3.32769e-05
-5.78082e-06
-3.46152e-05
1.23213e-05
-3.62066e-05
3.09034e-05
-3.71575e-05
4.9668e-05
-3.75176e-05
6.8538e-05
-3.77314e-05
8.73399e-05
-3.75874e-05
0.000105707
-3.67195e-05
0.000123488
-3.55527e-05
0.000140538
-3.40877e-05
0.000156382
-3.16759e-05
0.000170964
-2.91528e-05
0.000183928
-2.59136e-05
0.000195188
-2.2508e-05
0.000204545
-1.87068e-05
0.000211714
-1.43308e-05
0.000216709
-9.98022e-06
0.0002194
-5.37942e-06
0.0002197
-6.03108e-07
0.000217663
4.07146e-06
0.000213199
8.92992e-06
0.000206469
1.34593e-05
0.000197649
1.76343e-05
0.000186705
2.18772e-05
0.000173972
2.54586e-05
0.000159554
2.88218e-05
0.000143709
3.16791e-05
0.000126704
3.3996e-05
0.000108852
3.5691e-05
9.03394e-05
3.70144e-05
7.13015e-05
3.8061e-05
5.2232e-05
3.81278e-05
3.31678e-05
3.812e-05
1.42925e-05
3.77364e-05
-4.04475e-06
3.6672e-05
-2.17709e-05
3.54478e-05
-3.87742e-05
3.40001e-05
-5.49088e-05
3.2265e-05
-7.01567e-05
3.04933e-05
-8.43644e-05
2.84162e-05
-9.74931e-05
2.62546e-05
-0.000109566
2.41454e-05
-0.000120496
2.18585e-05
-0.000130285
1.95681e-05
-0.00013899
1.74004e-05
-0.0001466
1.52156e-05
-0.00015317
1.31447e-05
-0.000158692
1.10448e-05
-0.000163306
9.2186e-06
-0.000167011
7.40434e-06
-0.000169915
5.81028e-06
-0.000172067
4.29428e-06
-0.000173396
2.65449e-06
-0.000174094
1.39131e-06
-0.000174085
-9.69477e-09
-0.000173463
-1.23817e-06
-0.000172231
-2.47011e-06
-0.000170451
-3.56925e-06
-0.000168058
-4.77792e-06
-0.000165173
-5.76769e-06
-0.000161736
-6.89069e-06
-0.000157612
-8.24431e-06
-0.000152817
-9.57349e-06
-0.000147472
-1.06887e-05
-0.000141317
-1.23038e-05
-0.000134455
-1.37227e-05
-0.000126851
-1.52128e-05
-0.000118472
-1.67523e-05
-0.000109281
-1.83786e-05
-9.92444e-05
-2.00805e-05
-8.83414e-05
-2.18069e-05
-7.65954e-05
-2.34865e-05
-6.39796e-05
-2.52213e-05
-5.05216e-05
-2.69027e-05
-3.62198e-05
-2.86033e-05
-2.1188e-05
-3.00627e-05
-5.43084e-06
-3.15017e-05
1.09226e-05
-3.27089e-05
2.78106e-05
-3.37608e-05
4.50533e-05
-3.44753e-05
6.25598e-05
-3.50074e-05
8.01338e-05
-3.51335e-05
9.75869e-05
-3.49028e-05
0.000114726
-3.42596e-05
0.00013125
-3.30391e-05
0.000146992
-3.14723e-05
0.00016163
-2.92715e-05
0.000174942
-2.66093e-05
0.000186646
-2.33886e-05
0.000196501
-1.97032e-05
0.000204313
-1.5628e-05
0.000209911
-1.1195e-05
0.000213163
-6.49076e-06
0.000213969
-1.60987e-06
0.000212343
3.22496e-06
0.000208255
8.17431e-06
0.000201766
1.29785e-05
0.000193059
1.74e-05
0.000182289
2.1523e-05
0.000169714
2.51356e-05
0.00015551
2.8397e-05
0.000139942
3.11227e-05
0.000123295
3.32746e-05
0.000105807
3.49574e-05
8.77936e-05
3.60089e-05
6.95094e-05
3.65523e-05
5.12021e-05
3.65991e-05
3.31052e-05
3.61893e-05
1.53502e-05
3.55078e-05
-1.81884e-06
3.43205e-05
-1.83027e-05
3.29544e-05
-3.39552e-05
3.13042e-05
-4.86322e-05
2.93462e-05
-6.23401e-05
2.74083e-05
-7.48826e-05
2.50747e-05
-8.64356e-05
2.31098e-05
-9.69923e-05
2.1105e-05
-0.00010645
1.89261e-05
-0.000115028
1.71687e-05
-0.000122667
1.52724e-05
-0.000129394
1.34537e-05
-0.000135413
1.20413e-05
-0.000140548
1.02751e-05
-0.000144988
8.88492e-06
-0.000148685
7.39434e-06
-0.000151747
6.12058e-06
-0.000154114
4.73747e-06
-0.000155829
3.43414e-06
-0.000156944
2.2278e-06
-0.000157462
1.03733e-06
-0.000157399
-1.31666e-07
-0.000156714
-1.35301e-06
-0.000155482
-2.4511e-06
-0.000153767
-3.4445e-06
-0.000151384
-4.76716e-06
-0.000148414
-5.93404e-06
-0.000144729
-7.37701e-06
-0.000140243
-8.9692e-06
-0.000135143
-1.01947e-05
-0.000129231
-1.18227e-05
-0.000122481
-1.3493e-05
-0.000114955
-1.50525e-05
-0.000106474
-1.69615e-05
-9.72119e-05
-1.85241e-05
-8.69666e-05
-2.04917e-05
-7.5765e-05
-2.23906e-05
-6.36276e-05
-2.42695e-05
-5.06359e-05
-2.59807e-05
-3.67228e-05
-2.78288e-05
-2.19428e-05
-2.95511e-05
-6.41854e-06
-3.10455e-05
9.82803e-06
-3.24811e-05
2.67014e-05
-3.37273e-05
4.40914e-05
-3.47757e-05
6.18086e-05
-3.5431e-05
7.97439e-05
-3.58534e-05
9.76572e-05
-3.58207e-05
0.000115348
-3.53676e-05
0.000132641
-3.45669e-05
0.000149242
-3.32085e-05
0.000164958
-3.14139e-05
0.000179515
-2.90961e-05
0.000192664
-2.62846e-05
0.000204153
-2.29811e-05
0.000213799
-1.92867e-05
0.000221446
-1.52851e-05
0.000226915
-1.09299e-05
0.000230123
-6.42006e-06
0.000231029
-1.81978e-06
0.000229648
2.75293e-06
0.000225896
7.50514e-06
0.000219923
1.19371e-05
0.000211888
1.60667e-05
0.000201815
2.01209e-05
0.000190012
2.36003e-05
0.000176643
2.67248e-05
0.000162021
2.92238e-05
0.000146313
3.1396e-05
0.000129705
3.32094e-05
0.000112533
3.43306e-05
9.49415e-05
3.51732e-05
7.71437e-05
3.55742e-05
5.94525e-05
3.5342e-05
4.18995e-05
3.51194e-05
2.48663e-05
3.40619e-05
8.3899e-06
3.29494e-05
-7.42574e-06
3.1615e-05
-2.24141e-05
2.99726e-05
-3.65692e-05
2.83056e-05
-4.97942e-05
2.64511e-05
-6.19706e-05
2.43511e-05
-7.32185e-05
2.24652e-05
-8.3455e-05
2.04833e-05
-9.2653e-05
1.83982e-05
-0.000100888
1.6484e-05
-0.000108153
1.45321e-05
-0.000114521
1.274e-05
-0.000120008
1.09632e-05
-0.000124662
9.31694e-06
-0.000128548
7.77387e-06
-0.000131658
6.19856e-06
-0.000134112
4.9381e-06
-0.000135856
3.48468e-06
-0.000137012
2.3154e-06
-0.000137649
1.27737e-06
-0.000137647
-2.8835e-09
-0.000137074
-1.14235e-06
-0.00013583
-2.49021e-06
-0.000134128
-3.39495e-06
-0.000131836
-4.58744e-06
-0.000128909
-5.84103e-06
-0.000125401
-7.02708e-06
-0.00012126
-8.29377e-06
-0.000116572
-9.35266e-06
-0.000111217
-1.07222e-05
-0.000105026
-1.23989e-05
-9.82166e-05
-1.35907e-05
-9.05787e-05
-1.52727e-05
-8.2153e-05
-1.68469e-05
-7.29524e-05
-1.83984e-05
-6.29048e-05
-2.00925e-05
-5.20552e-05
-2.16925e-05
-4.03488e-05
-2.34166e-05
-2.77792e-05
-2.5128e-05
-1.46273e-05
-2.63088e-05
-5.93852e-07
-2.80596e-05
1.41472e-05
-2.9471e-05
2.95097e-05
-3.07207e-05
4.53753e-05
-3.17298e-05
6.18209e-05
-3.28904e-05
7.84661e-05
-3.32773e-05
9.53642e-05
-3.37858e-05
0.000112329
-3.39246e-05
0.000129113
-3.35582e-05
0.000145685
-3.31464e-05
0.000161775
-3.21723e-05
0.000177139
-3.07296e-05
0.000191579
-2.88787e-05
0.000204822
-2.64909e-05
0.000216532
-2.34293e-05
0.000226587
-2.01146e-05
0.000234576
-1.59877e-05
0.000240453
-1.17234e-05
0.000243823
-6.71948e-06
0.000244274
-9.07246e-07
0.00024225
4.04011e-06
0.000237718
9.08904e-06
0.000230767
1.39203e-05
0.000221573
1.83863e-05
0.000210148
2.28426e-05
0.000196848
2.65919e-05
0.000181867
2.99509e-05
0.000165437
3.28494e-05
0.000148073
3.47163e-05
0.000129967
3.62019e-05
0.000111411
3.71018e-05
9.27845e-05
3.72462e-05
7.42554e-05
3.70465e-05
5.60256e-05
3.64541e-05
3.82767e-05
3.54961e-05
2.11573e-05
3.42264e-05
4.74769e-06
3.28187e-05
-1.10499e-05
3.15883e-05
-2.60267e-05
2.99474e-05
-4.00622e-05
2.80686e-05
-5.31652e-05
2.62006e-05
-6.5292e-05
2.42516e-05
-7.64404e-05
2.22962e-05
-8.66123e-05
2.03441e-05
-9.58123e-05
1.83967e-05
-0.000104045
1.6466e-05
-0.000111362
1.46346e-05
-0.000117777
1.28309e-05
-0.000123333
1.11062e-05
-0.000128095
9.52236e-06
-0.000132061
7.93581e-06
-0.000135298
6.47496e-06
-0.000137829
5.06144e-06
-0.000139687
3.71821e-06
-0.000140875
2.36757e-06
-0.00014143
1.10244e-06
-0.000141238
-3.77773e-07
-0.000140313
-1.83978e-06
-0.000138636
-3.35423e-06
-0.000136248
-4.77755e-06
-0.000133083
-6.32762e-06
-0.000129205
-7.75485e-06
-0.000124625
-9.16533e-06
-0.000119206
-1.08342e-05
-0.000113124
-1.2163e-05
-0.000106371
-1.34966e-05
-9.8796e-05
-1.5159e-05
-9.04743e-05
-1.66427e-05
-8.15297e-05
-1.78829e-05
-7.17411e-05
-1.95815e-05
-6.13025e-05
-2.08759e-05
-5.00429e-05
-2.25211e-05
-3.80068e-05
-2.40451e-05
-2.54301e-05
-2.51761e-05
-1.205e-05
-2.67506e-05
1.9672e-06
-2.80396e-05
1.64726e-05
-2.90028e-05
3.16387e-05
-3.03293e-05
4.72061e-05
-3.11323e-05
6.32744e-05
-3.21253e-05
7.96242e-05
-3.2694e-05
9.59852e-05
-3.27215e-05
0.000112452
-3.29252e-05
0.000128775
-3.2647e-05
0.000144716
-3.18765e-05
0.000160064
-3.06914e-05
0.000174587
-2.90349e-05
0.000188143
-2.71006e-05
0.000200357
-2.44307e-05
0.000210925
-2.11302e-05
0.000219676
-1.74793e-05
0.000226326
-1.32802e-05
-9.26277e-06
-3.41999e-05
4.86228e-05
-4.95726e-05
4.61055e-05
-6.41984e-05
4.38659e-05
-7.79936e-05
4.13746e-05
-9.08532e-05
3.85694e-05
-0.000102829
3.5921e-05
-0.000113861
3.3088e-05
-0.000124002
3.04164e-05
-0.000133242
2.7719e-05
-0.000141588
2.50365e-05
-0.000149084
2.24835e-05
-0.000155737
1.99589e-05
-0.000161573
1.75151e-05
-0.000166633
1.51758e-05
-0.00017092
1.28632e-05
-0.000174473
1.0653e-05
-0.000177313
8.51797e-06
-0.000179434
6.36102e-06
-0.000180871
4.30138e-06
-0.000181618
2.26923e-06
-0.000181635
6.76664e-08
-0.000180933
-2.06832e-06
-0.000179499
-4.30434e-06
-0.000177296
-6.61455e-06
-0.000174393
-8.74399e-06
-0.000170627
-1.12734e-05
-0.000166085
-1.36285e-05
-0.000160826
-1.58095e-05
-0.000154502
-1.89522e-05
-0.000147414
-2.12723e-05
-0.000139427
-2.39797e-05
-0.000130386
-2.71119e-05
-0.000120448
-2.98193e-05
-0.000109431
-3.30513e-05
-9.74522e-05
-3.59462e-05
-8.45047e-05
-3.88293e-05
-7.05132e-05
-4.19876e-05
-5.56035e-05
-4.46725e-05
-3.9802e-05
-4.74135e-05
-2.31693e-05
-4.99097e-05
-5.82028e-06
-5.19644e-05
1.22923e-05
-5.43193e-05
3.08865e-05
-5.57518e-05
4.96666e-05
-5.62978e-05
6.85551e-05
-5.66201e-05
8.73747e-05
-5.64071e-05
0.000105758
-5.5103e-05
0.000123558
-5.3353e-05
0.000140629
-5.11584e-05
0.000156492
-4.7539e-05
0.000171091
-4.37525e-05
0.000184073
-3.88952e-05
0.000195343
-3.37788e-05
0.000204721
-2.80849e-05
0.000211895
-2.15045e-05
0.000216897
-1.49824e-05
0.000219601
-8.08354e-06
0.000219897
-8.99155e-07
0.000217837
6.13127e-06
0.000213378
1.33889e-05
0.000206648
2.0189e-05
0.000197813
2.64691e-05
0.000186851
3.28392e-05
0.000174107
3.82029e-05
0.000159669
4.32601e-05
0.000143812
4.75359e-05
0.000126792
5.1016e-05
0.000108912
5.3571e-05
9.0384e-05
5.5542e-05
7.13334e-05
5.71115e-05
5.22385e-05
5.72227e-05
3.31637e-05
5.71948e-05
1.42704e-05
5.66297e-05
-4.07276e-06
5.50151e-05
-2.18053e-05
5.31804e-05
-3.88133e-05
5.1008e-05
-5.49511e-05
4.84028e-05
-7.02026e-05
4.57447e-05
-8.44085e-05
4.26221e-05
-9.75369e-05
3.93831e-05
-0.000109614
3.6222e-05
-0.000120546
3.27905e-05
-0.000130335
2.9358e-05
-0.000139035
2.61001e-05
-0.000146636
2.2816e-05
-0.000153212
1.97209e-05
-0.000158736
1.65687e-05
-0.000163342
1.38246e-05
-0.00016705
1.11125e-05
-0.00016996
8.71995e-06
-0.000172141
6.47585e-06
-0.000173474
3.98716e-06
-0.000174167
2.0839e-06
-0.000174144
-3.21657e-08
-0.000173532
-1.85064e-06
-0.000172304
-3.6983e-06
-0.00017053
-5.34248e-06
-0.000168136
-7.17275e-06
-0.000165253
-8.65062e-06
-0.000161833
-1.03102e-05
-0.000157716
-1.23614e-05
-0.000152922
-1.43679e-05
-0.000147573
-1.60372e-05
-0.000141402
-1.84755e-05
-0.000134547
-2.05776e-05
-0.000126962
-2.27974e-05
-0.000118573
-2.51412e-05
-0.000109383
-2.75691e-05
-9.93474e-05
-3.01161e-05
-8.84477e-05
-3.27067e-05
-7.67065e-05
-3.52278e-05
-6.40874e-05
-3.78405e-05
-5.06252e-05
-4.03651e-05
-3.63153e-05
-4.29132e-05
-2.12778e-05
-4.51003e-05
-5.51298e-06
-4.72667e-05
1.08455e-05
-4.90676e-05
2.77467e-05
-5.06621e-05
4.50105e-05
-5.17392e-05
6.25322e-05
-5.25292e-05
8.01174e-05
-5.27189e-05
9.75843e-05
-5.23698e-05
0.000114744
-5.14196e-05
0.000131298
-4.95931e-05
0.000147065
-4.72393e-05
0.000161719
-4.3926e-05
0.000175048
-3.99381e-05
0.000186771
-3.51116e-05
0.000196652
-2.95843e-05
0.00020448
-2.3457e-05
0.000210085
-1.67992e-05
0.000213335
-9.74185e-06
0.000214135
-2.40927e-06
0.000212494
4.86596e-06
0.000208412
1.22563e-05
0.000201913
1.9477e-05
0.000193186
2.6127e-05
0.000182398
3.23106e-05
0.000169807
3.7727e-05
0.000155591
4.26124e-05
0.000139995
4.67187e-05
0.000123327
4.99427e-05
0.000105816
5.24682e-05
8.77741e-05
5.4051e-05
6.94714e-05
5.48549e-05
5.11444e-05
5.4926e-05
3.30387e-05
5.4295e-05
1.52858e-05
5.32606e-05
-1.91308e-06
5.15193e-05
-1.84125e-05
4.94539e-05
-3.40705e-05
4.69621e-05
-4.87477e-05
4.40234e-05
-6.24577e-05
4.11183e-05
-7.50131e-05
3.76302e-05
-8.65504e-05
3.46471e-05
-9.71059e-05
3.16605e-05
-0.000106571
2.83912e-05
-0.000115143
2.57409e-05
-0.000122779
2.29084e-05
-0.000129489
2.01637e-05
-0.00013551
1.80625e-05
-0.000140632
1.53967e-05
-0.000145063
1.33156e-05
-0.000148769
1.11005e-05
-0.000151836
9.18736e-06
-0.000154201
7.10246e-06
-0.000155906
5.13902e-06
-0.00015702
3.34189e-06
-0.000157545
1.56245e-06
-0.000157486
-1.90597e-07
-0.000156797
-2.04153e-06
-0.000155553
-3.69512e-06
-0.000153837
-5.16116e-06
-0.00015147
-7.13392e-06
-0.000148514
-8.88979e-06
-0.00014483
-1.10614e-05
-0.000140338
-1.34611e-05
-0.000135257
-1.52761e-05
-0.000129335
-1.77444e-05
-0.000122582
-2.02456e-05
-0.00011506
-2.2575e-05
-0.000106583
-2.54386e-05
-9.73288e-05
-2.7778e-05
-8.70923e-05
-3.07283e-05
-7.58854e-05
-3.35975e-05
-6.3741e-05
-3.6414e-05
-5.07428e-05
-3.8979e-05
-3.6826e-05
-4.17457e-05
-2.20551e-05
-4.4322e-05
-6.51191e-06
-4.65887e-05
9.74127e-06
-4.87344e-05
2.66249e-05
-5.06111e-05
4.40366e-05
-5.21875e-05
6.17675e-05
-5.3162e-05
7.97128e-05
-5.37987e-05
9.7653e-05
-5.3761e-05
0.000115358
-5.30732e-05
0.000132674
-5.1883e-05
0.000149299
-4.98332e-05
0.000165021
-4.7136e-05
0.0001796
-4.36751e-05
0.000192781
-3.94658e-05
0.000204281
-3.44812e-05
0.00021394
-2.89459e-05
0.000221596
-2.29411e-05
0.000227081
-1.64143e-05
0.0002303
-9.6392e-06
0.000231192
-2.71194e-06
0.000229783
4.16162e-06
0.000226034
1.12542e-05
0.000220062
1.79093e-05
0.000212003
2.41254e-05
0.000201919
3.02043e-05
0.000190082
3.54376e-05
0.000176701
4.01053e-05
0.000162076
4.38494e-05
0.000146358
4.7114e-05
0.000129709
4.98581e-05
0.000112524
5.1515e-05
9.49437e-05
5.27538e-05
7.71086e-05
5.34093e-05
5.93935e-05
5.30571e-05
4.18209e-05
5.26919e-05
2.47736e-05
5.11093e-05
8.30113e-06
4.94218e-05
-7.53078e-06
4.74469e-05
-2.25213e-05
4.4963e-05
-3.66818e-05
4.24661e-05
-4.9913e-05
3.96823e-05
-6.20825e-05
3.65205e-05
-7.33469e-05
3.37295e-05
-8.35818e-05
3.07182e-05
-9.27937e-05
2.76101e-05
-0.000101011
2.47009e-05
-0.000108254
2.17756e-05
-0.000114613
1.90987e-05
-0.000120104
1.64542e-05
-0.000124749
1.3962e-05
-0.000128641
1.16662e-05
-0.000131764
9.3215e-06
-0.000134185
7.35881e-06
-0.000135931
5.23087e-06
-0.000137107
3.49097e-06
-0.000137728
1.89867e-06
-0.000137729
-2.23513e-09
-0.000137162
-1.70896e-06
-0.000135922
-3.73005e-06
-0.000134202
-5.11574e-06
-0.000131928
-6.861e-06
-0.000129007
-8.76168e-06
-0.00012549
-1.0544e-05
-0.000121367
-1.24172e-05
-0.000116674
-1.40454e-05
-0.00011132
-1.60768e-05
-0.00010515
-1.85686e-05
-9.83111e-05
-2.04297e-05
-9.06776e-05
-2.29062e-05
-8.22719e-05
-2.52527e-05
-7.30593e-05
-2.7611e-05
-6.30104e-05
-3.01414e-05
-5.21455e-05
-3.25574e-05
-4.04523e-05
-3.51099e-05
-2.79036e-05
-3.76768e-05
-1.47315e-05
-3.9481e-05
-6.85698e-07
-4.21055e-05
1.40637e-05
-4.42205e-05
2.94278e-05
-4.60849e-05
4.5319e-05
-4.7621e-05
6.1764e-05
-4.93356e-05
7.8419e-05
-4.99323e-05
9.5336e-05
-5.07029e-05
0.000112313
-5.09013e-05
0.000129123
-5.03692e-05
0.000145702
-4.97246e-05
0.00016181
-4.82812e-05
0.000177178
-4.60976e-05
0.000191623
-4.3324e-05
0.00020487
-3.97374e-05
0.000216557
-3.51169e-05
0.000226588
-3.0145e-05
0.000234542
-2.39418e-05
0.000240327
-1.75091e-05
0.000243638
-1.00301e-05
0.000244157
-1.4261e-06
0.000242253
5.94347e-06
0.000237831
1.35116e-05
0.00023091
2.0841e-05
0.00022171
2.7586e-05
0.000210269
3.42836e-05
0.000196951
3.991e-05
0.000181949
4.49525e-05
0.000165498
4.93009e-05
0.000148112
5.21022e-05
0.000129984
5.43294e-05
0.000111409
5.56772e-05
9.27721e-05
5.5883e-05
7.42186e-05
5.55999e-05
5.59832e-05
5.46895e-05
3.82412e-05
5.3238e-05
2.10918e-05
5.13758e-05
4.68353e-06
4.9227e-05
-1.11248e-05
4.73966e-05
-2.61062e-05
4.49288e-05
-4.01437e-05
4.21062e-05
-5.32501e-05
3.9307e-05
-6.53769e-05
3.63783e-05
-7.65271e-05
3.34464e-05
-8.66995e-05
3.05166e-05
-9.58985e-05
2.75956e-05
-0.000104132
2.46992e-05
-0.000111452
2.19549e-05
-0.000117868
1.92468e-05
-0.000123428
1.66659e-05
-0.000128185
1.42798e-05
-0.000132152
1.1903e-05
-0.000135395
9.71749e-06
-0.000137925
7.59124e-06
-0.000139784
5.57795e-06
-0.000140966
3.54898e-06
-0.000141499
1.63611e-06
-0.000141297
-5.80353e-07
-0.000140372
-2.76486e-06
-0.000138692
-5.03351e-06
-0.000136305
-7.16496e-06
-0.000133139
-9.4936e-06
-0.000129261
-1.16329e-05
-0.000124691
-1.37357e-05
-0.000119264
-1.62607e-05
-0.000113179
-1.82486e-05
-0.000106422
-2.02532e-05
-9.88471e-05
-2.2734e-05
-9.05254e-05
-2.49644e-05
-8.15835e-05
-2.68249e-05
-7.17882e-05
-2.93768e-05
-6.13521e-05
-3.13121e-05
-5.00821e-05
-3.37912e-05
-3.8066e-05
-3.60612e-05
-2.54613e-05
-3.77809e-05
-1.2089e-05
-4.0123e-05
1.94652e-06
-4.20752e-05
1.64566e-05
-4.3513e-05
3.16267e-05
-4.54995e-05
4.72025e-05
-4.67082e-05
6.3274e-05
-4.8197e-05
7.9632e-05
-4.90521e-05
9.60022e-05
-4.90918e-05
0.000112475
-4.93979e-05
0.000128802
-4.89748e-05
0.00014475
-4.78242e-05
0.000160102
-4.60438e-05
0.000174635
-4.35682e-05
0.000188202
-4.0668e-05
0.000200434
-3.66621e-05
0.000211028
-3.17243e-05
0.0002198
-2.6252e-05
0.000226483
-1.99632e-05
-1.39222e-05
-3.42927e-05
6.48452e-05
-4.96735e-05
6.14863e-05
-6.4307e-05
5.84994e-05
-7.81091e-05
5.51767e-05
-9.09749e-05
5.14353e-05
-0.000102954
4.79006e-05
-0.00011399
4.41235e-05
-0.000124134
4.05607e-05
-0.000133374
3.69582e-05
-0.000141721
3.33837e-05
-0.000149217
2.99798e-05
-0.000155868
2.66099e-05
-0.000161702
2.33496e-05
-0.000166763
2.02366e-05
-0.000171047
1.71473e-05
-0.000174605
1.42108e-05
-0.000177444
1.13572e-05
-0.000179568
8.48418e-06
-0.000181011
5.74483e-06
-0.000181735
2.99299e-06
-0.000181749
8.20132e-08
-0.000181018
-2.7995e-06
-0.000179581
-5.74132e-06
-0.000177381
-8.81469e-06
-0.000174485
-1.16398e-05
-0.00017072
-1.50392e-05
-0.000166181
-1.81675e-05
-0.000160919
-2.10707e-05
-0.000154605
-2.52668e-05
-0.00014752
-2.8357e-05
-0.000139543
-3.19572e-05
-0.000130499
-3.61557e-05
-0.000120564
-3.97545e-05
-0.000109547
-4.40684e-05
-9.75766e-05
-4.79166e-05
-8.46212e-05
-5.17848e-05
-7.06421e-05
-5.59667e-05
-5.57008e-05
-5.96139e-05
-3.98991e-05
-6.32153e-05
-2.32569e-05
-6.6552e-05
-5.88217e-06
-6.93392e-05
1.22476e-05
-7.24492e-05
3.08609e-05
-7.43653e-05
4.96635e-05
-7.51006e-05
6.85779e-05
-7.55346e-05
8.74335e-05
-7.52628e-05
0.000105835
-7.35045e-05
0.000123664
-7.11826e-05
0.000140764
-6.82585e-05
0.000156656
-6.34308e-05
0.000171279
-5.83757e-05
0.000184289
-5.1905e-05
0.000195577
-4.50669e-05
0.000204986
-3.74938e-05
0.000212165
-2.86838e-05
0.000217182
-1.99998e-05
0.000219901
-1.08024e-05
0.000220186
-1.18405e-06
0.000218104
8.21345e-06
0.000213653
1.7839e-05
0.000206912
2.69307e-05
0.00019806
3.5321e-05
0.000187068
4.38303e-05
0.000174309
5.09626e-05
0.000159838
5.77302e-05
0.000143963
6.34114e-05
0.000126919
6.806e-05
0.000109
7.14902e-05
9.04485e-05
7.40929e-05
7.1378e-05
7.61819e-05
5.22508e-05
7.63499e-05
3.31579e-05
7.62877e-05
1.42356e-05
7.55519e-05
-4.11072e-06
7.33614e-05
-2.18542e-05
7.09239e-05
-3.88699e-05
6.80237e-05
-5.50091e-05
6.4542e-05
-7.02647e-05
6.10003e-05
-8.44702e-05
5.68275e-05
-9.75983e-05
5.25112e-05
-0.000109671
4.82951e-05
-0.000120602
4.37207e-05
-0.000130388
3.91438e-05
-0.000139077
3.47896e-05
-0.000146673
3.04122e-05
-0.000153261
2.63085e-05
-0.000158795
2.21031e-05
-0.000163401
1.84306e-05
-0.000167111
1.48218e-05
-0.000170017
1.16264e-05
-0.000172239
8.69801e-06
-0.000173593
5.34137e-06
-0.000174298
2.78828e-06
-0.000174246
-8.42339e-08
-0.000173624
-2.47244e-06
-0.000172413
-4.90889e-06
-0.000170646
-7.10987e-06
-0.000168233
-9.58556e-06
-0.000165372
-1.15116e-05
-0.000161984
-1.36986e-05
-0.000157858
-1.64876e-05