/*--------------------------------*- C++ -*----------------------------------*\
| =========                 |                                                 |
| \\      /  F ield         | OpenFOAM: The Open Source CFD Toolbox           |
|  \\    /   O peration     | Version:  3.0.1                                 |
|   \\  /    A nd           | Web:      www.OpenFOAM.org                      |
|    \\/     M anipulation  |                                                 |
\*---------------------------------------------------------------------------*/
FoamFile
{
    version     2.0;
    format      ascii;
    class       volScalarField;
    location    "29.4";
    object      p;
}
// * * * * * * * * * * * * * * * * * * * * * * * * * * * * * * * * * * * * * //

dimensions      [1 -1 -2 0 0 0 0];

internalField   nonuniform List<scalar> 
21420
(
3638.72
3655.33
3673.85
3694.23
3716.36
3740.09
3765.26
3791.5
3817.79
3845.88
3874.58
3903.52
3932.42
3960.96
3988.86
4015.85
4041.65
4066.05
4088.81
4109.75
4128.7
4145.53
4160.1
4172.34
4182.17
4189.53
4194.39
4196.64
4196.57
4193.97
4188.79
4180.98
4170.56
4157.61
4142.21
4124.52
4104.72
4083.02
4059.68
4034.99
4009.24
3982.76
3955.88
3928.91
3902.17
3875.93
3850.52
3826.13
3802.74
3780.56
3759.72
3740.29
3722.34
3705.9
3690.98
3677.59
3665.73
3655.39
3646.54
3639.2
3633.34
3628.97
3626.05
3624.55
3624.46
3625.94
3628.86
3633.14
3638.74
3645.59
3653.64
3662.85
3673.16
3684.55
3696.98
3710.42
3724.87
3740.31
3756.73
3774.13
3792.47
3811.72
3831.83
3852.72
3874.09
3895.26
3917.3
3939.92
3962.8
3985.69
4008.31
4030.38
4051.61
4071.73
4090.46
4107.53
4122.67
4135.63
4146.2
4154.17
4159.38
4161.71
4161.07
4157.44
4150.89
4141.45
4129.26
4114.5
4097.39
4078.2
4057.2
4034.71
4011.04
3986.52
3961.47
3936.21
3911.02
3886.18
3861.91
3838.42
3815.86
3794.37
3774.05
3754.98
3737.2
3720.73
3705.58
3691.72
3679.14
3667.79
3657.66
3648.74
3641
3634.43
3629.02
3624.75
3621.62
3619.61
3618.73
3619
3620.44
3623.04
3626.85
3631.88
3638.18
3645.76
3654.64
3664.83
3676.36
3689.22
3703.43
3718.97
3735.83
3753.94
3773.24
3793.63
3814.98
3837.15
3859.99
3883.33
3906.92
3930.57
3954.03
3977.07
3999.44
4020.87
4041.12
4059.94
4077.1
4092.37
4105.57
4116.5
4125.03
4131.03
4134.44
4135.17
4133.28
4128.76
4121.69
4112.18
4100.35
4086.37
4070.42
4052.73
4033.5
4012.98
3991.39
3968.98
3945.96
3922.56
3899.02
3875.54
3852.31
3829.53
3807.35
3785.94
3765.41
3745.89
3727.46
3710.22
3694.23
3679.54
3666.2
3654.24
3643.67
3634.51
3626.73
3620.34
3615.32
3611.67
3609.34
3608.35
3608.69
3610.28
3613.14
3617.24
3622.55
3629.04
3636.69
3645.49
3655.4
3666.41
3678.5
3691.65
3705.85
3721.07
3737.29
3754.45
3772.53
3791.45
3811.15
3831.52
3852.48
3873.9
3895.63
3917.52
3939.4
3961.06
3982.31
4002.91
4022.63
4041.24
4058.49
4074.13
4087.95
4099.73
4109.27
4116.4
4120.99
4122.94
4122.17
4118.69
4112.54
4103.75
4092.46
4078.82
4063.01
4045.28
4025.85
4005.03
3983.08
3960.31
3936.99
3913.42
3889.84
3866.53
3843.83
3821.71
3800.4
3780.08
3760.87
3742.88
3726.18
3710.83
3696.86
3684.27
3673.06
3663.21
3654.67
3647.41
3641.37
3636.5
3632.73
3630.01
3628.27
3627.47
3627.68
3628.87
3631.34
3634.96
3639.8
3645.84
3653.12
3661.68
3671.55
3682.76
3695.32
3709.24
3724.5
3741.06
3758.86
3777.83
3797.87
3818.86
3840.65
3863.07
3885.97
3909.12
3932.35
3955.41
3978.11
4000.21
4021.51
4041.79
4060.84
4078.49
4094.56
4108.9
4121.37
4131.87
4140.3
4146.59
4150.7
4152.56
4151.86
4148.91
4143.77
4136.46
4127.03
4115.58
4102.21
4087.05
4070.25
4051.97
4032.39
4011.71
3990.15
3967.94
3945.35
3922.66
3900.18
3878.79
3857.27
3836.19
3815.85
3796.49
3778.25
3761.28
3745.66
3731.46
3718.71
3707.44
3697.63
3689.27
3682.33
3676.74
3672.46
3540.54
3557.15
3575.67
3596.05
3618.18
3641.92
3667.1
3693.36
3719.63
3747.74
3776.45
3805.41
3834.31
3862.86
3890.78
3917.78
3943.59
3968
3990.77
4011.72
4030.68
4047.51
4062.09
4074.33
4084.16
4091.53
4096.39
4098.65
4098.57
4095.97
4090.8
4082.98
4072.56
4059.59
4044.19
4026.49
4006.68
3984.98
3961.62
3936.91
3911.15
3884.66
3857.76
3830.78
3804.03
3777.79
3752.37
3727.97
3704.58
3682.4
3661.55
3642.12
3624.17
3607.73
3592.82
3579.43
3567.57
3557.22
3548.38
3541.04
3535.18
3530.81
3527.9
3526.4
3526.31
3527.79
3530.71
3534.99
3540.59
3547.44
3555.5
3564.71
3575.02
3586.41
3598.84
3612.28
3626.73
3642.17
3658.59
3675.99
3694.33
3713.59
3733.7
3754.59
3775.95
3797.13
3819.17
3841.8
3864.69
3887.59
3910.22
3932.3
3953.54
3973.67
3992.41
4009.5
4024.65
4037.62
4048.2
4056.18
4061.39
4063.73
4063.08
4059.45
4052.9
4043.45
4031.26
4016.48
3999.37
3980.16
3959.15
3936.64
3912.96
3888.43
3863.36
3838.09
3812.89
3788.04
3763.77
3740.27
3717.71
3696.21
3675.89
3656.82
3639.04
3622.57
3607.42
3593.57
3580.98
3569.64
3559.51
3550.59
3542.85
3536.28
3530.87
3526.6
3523.47
3521.46
3520.58
3520.85
3522.29
3524.89
3528.7
3533.73
3540.02
3547.6
3556.48
3566.68
3578.2
3591.06
3605.27
3620.81
3637.67
3655.79
3675.09
3695.48
3716.84
3739.01
3761.86
3785.2
3808.8
3832.46
3855.94
3878.99
3901.36
3922.81
3943.07
3961.9
3979.07
3994.35
4007.55
4018.49
4027.03
4033.03
4036.44
4037.18
4035.28
4030.76
4023.69
4014.16
4002.33
3988.34
3972.39
3954.68
3935.44
3914.91
3893.31
3870.89
3847.86
3824.46
3800.91
3777.41
3754.18
3731.39
3709.21
3687.79
3667.26
3647.73
3629.31
3612.06
3596.07
3581.38
3568.04
3556.08
3545.52
3536.35
3528.57
3522.19
3517.17
3513.51
3511.19
3510.2
3510.54
3512.13
3514.99
3519.09
3524.4
3530.89
3538.55
3547.34
3557.25
3568.26
3580.35
3593.51
3607.71
3622.93
3639.14
3656.31
3674.39
3693.31
3713.01
3733.39
3754.35
3775.77
3797.51
3819.41
3841.29
3862.96
3884.22
3904.83
3924.57
3943.19
3960.44
3976.1
3989.93
4001.71
4011.26
4018.4
4022.99
4024.95
4024.18
4020.69
4014.54
4005.75
3994.45
3980.8
3964.98
3947.23
3927.8
3906.96
3885
3862.21
3838.89
3815.3
3791.72
3768.4
3745.7
3723.57
3702.25
3681.93
3662.72
3644.72
3628.02
3612.67
3598.7
3586.12
3574.91
3565.06
3556.53
3549.27
3543.23
3538.36
3534.6
3531.88
3530.13
3529.34
3529.55
3530.73
3533.21
3536.83
3541.66
3547.7
3554.98
3563.54
3573.4
3584.61
3597.17
3611.09
3626.35
3642.91
3660.71
3679.68
3699.73
3720.72
3742.51
3764.94
3787.84
3811.01
3834.24
3857.32
3880.02
3902.14
3923.44
3943.72
3962.79
3980.45
3996.53
4010.87
4023.35
4033.85
4042.28
4048.57
4052.69
4054.55
4053.84
4050.89
4045.76
4038.44
4029
4017.55
4004.18
3989.01
3972.2
3953.91
3934.32
3913.63
3892.06
3869.84
3847.24
3824.54
3802.06
3780.67
3759.14
3738.05
3717.71
3698.33
3680.1
3663.12
3647.5
3633.29
3620.55
3609.28
3599.48
3591.12
3584.17
3578.59
3574.31
3442.28
3458.89
3477.41
3497.79
3519.93
3543.69
3568.88
3595.16
3621.43
3649.56
3678.29
3707.27
3736.2
3764.78
3792.72
3819.74
3845.57
3870
3892.8
3913.76
3932.73
3949.58
3964.17
3976.42
3986.25
3993.62
3998.49
4000.76
4000.67
3998.08
3992.9
3985.08
3974.65
3961.67
3946.26
3928.54
3908.71
3886.98
3863.6
3838.86
3813.07
3786.55
3759.63
3732.63
3705.86
3679.6
3654.17
3629.76
3606.36
3584.17
3563.32
3543.89
3525.94
3509.5
3494.59
3481.2
3469.34
3459
3450.16
3442.82
3436.96
3432.59
3429.68
3428.19
3428.11
3429.59
3432.51
3436.79
3442.4
3449.25
3457.31
3466.53
3476.84
3488.23
3500.66
3514.1
3528.56
3543.99
3560.41
3577.81
3596.15
3615.41
3635.52
3656.42
3677.78
3698.97
3721.03
3743.67
3766.57
3789.49
3812.14
3834.24
3855.51
3875.66
3894.42
3911.53
3926.7
3939.7
3950.3
3958.29
3963.52
3965.86
3965.21
3961.58
3955.02
3945.56
3933.35
3918.55
3901.41
3882.18
3861.14
3838.61
3814.9
3790.34
3765.25
3739.95
3714.73
3689.86
3665.58
3642.07
3619.5
3598
3577.67
3558.6
3540.82
3524.36
3509.21
3495.36
3482.78
3471.44
3461.31
3452.39
3444.65
3438.09
3432.68
3428.41
3425.28
3423.27
3422.39
3422.66
3424.1
3426.7
3430.5
3435.53
3441.82
3449.4
3458.27
3468.47
3479.99
3492.85
3507.05
3522.6
3539.46
3557.58
3576.89
3597.28
3618.65
3640.84
3663.7
3687.05
3710.67
3734.35
3757.84
3780.92
3803.31
3824.78
3845.06
3863.91
3881.1
3896.4
3909.62
3920.57
3929.12
3935.14
3938.55
3939.29
3937.38
3932.85
3925.77
3916.24
3904.39
3890.38
3874.41
3856.68
3837.43
3816.87
3795.26
3772.81
3749.76
3726.34
3702.77
3679.27
3656.02
3633.22
3611.03
3589.6
3569.06
3549.53
3531.1
3513.85
3497.85
3483.17
3469.83
3457.87
3447.3
3438.13
3430.36
3423.97
3418.96
3415.3
3412.98
3412
3412.33
3413.93
3416.8
3420.9
3426.2
3432.7
3440.35
3449.15
3459.06
3470.07
3482.16
3495.32
3509.52
3524.74
3540.95
3558.13
3576.21
3595.13
3614.84
3635.23
3656.19
3677.63
3699.38
3721.29
3743.18
3764.87
3786.15
3806.78
3826.54
3845.17
3862.45
3878.13
3891.98
3903.78
3913.34
3920.49
3925.1
3927.06
3926.29
3922.8
3916.64
3907.84
3896.53
3882.86
3867.02
3849.25
3829.79
3808.92
3786.94
3764.13
3740.78
3717.18
3693.57
3670.24
3647.52
3625.38
3604.06
3583.72
3564.51
3546.52
3529.81
3514.47
3500.5
3487.92
3476.72
3466.87
3458.34
3451.09
3445.05
3440.18
3436.42
3433.71
3431.97
3431.18
3431.38
3432.56
3435.03
3438.65
3443.48
3449.51
3456.79
3465.34
3475.2
3486.4
3498.96
3512.88
3528.14
3544.7
3562.51
3581.49
3601.54
3622.54
3644.34
3666.78
3689.7
3712.88
3736.13
3759.22
3781.94
3804.08
3825.4
3845.7
3864.79
3882.46
3898.55
3912.91
3925.4
3935.91
3944.34
3950.64
3954.76
3956.63
3955.92
3952.97
3947.83
3940.5
3931.06
3919.59
3906.2
3891.03
3874.2
3855.9
3836.29
3815.58
3793.99
3771.75
3749.13
3726.41
3703.9
3682.52
3660.97
3639.87
3619.51
3600.13
3581.88
3564.9
3549.27
3535.07
3522.33
3511.06
3501.26
3492.9
3485.96
3480.38
3476.11
3343.94
3360.55
3379.07
3399.46
3421.61
3445.38
3470.6
3496.92
3523.16
3551.34
3580.11
3609.13
3638.09
3666.7
3694.68
3721.73
3747.6
3772.05
3794.88
3815.87
3834.86
3851.73
3866.33
3878.59
3888.44
3895.82
3900.69
3902.98
3902.88
3900.29
3895.11
3887.28
3876.84
3863.84
3848.41
3830.66
3810.8
3789.03
3765.61
3740.84
3715.01
3688.45
3661.49
3634.45
3607.65
3581.37
3555.92
3531.49
3508.08
3485.88
3465.03
3445.6
3427.65
3411.21
3396.29
3382.91
3371.06
3360.72
3351.88
3344.54
3338.69
3334.32
3331.41
3329.92
3329.85
3331.33
3334.25
3338.55
3344.16
3351.02
3359.08
3368.3
3378.62
3390.01
3402.44
3415.89
3430.34
3445.78
3462.2
3479.59
3497.94
3517.2
3537.32
3558.21
3579.58
3600.79
3622.85
3645.52
3668.45
3691.38
3714.07
3736.2
3757.5
3777.69
3796.49
3813.63
3828.84
3841.87
3852.49
3860.51
3865.75
3868.11
3867.46
3863.83
3857.25
3847.77
3835.53
3820.71
3803.53
3784.26
3763.18
3740.6
3716.85
3692.25
3667.13
3641.79
3616.54
3591.65
3567.34
3543.82
3521.24
3499.73
3479.4
3460.32
3442.54
3426.08
3410.94
3397.1
3384.52
3373.18
3363.06
3354.14
3346.41
3339.85
3334.44
3330.17
3327.04
3325.04
3324.15
3324.43
3325.85
3328.45
3332.25
3337.28
3343.56
3351.14
3360.01
3370.2
3381.72
3394.58
3408.78
3424.33
3441.19
3459.31
3478.63
3499.04
3520.42
3542.63
3565.5
3588.88
3612.52
3636.23
3659.75
3682.86
3705.29
3726.79
3747.1
3765.99
3783.2
3798.53
3811.77
3822.75
3831.31
3837.34
3840.76
3841.51
3839.58
3835.05
3827.96
3818.4
3806.53
3792.5
3776.5
3758.74
3739.45
3718.87
3697.22
3674.74
3651.67
3628.22
3604.63
3581.1
3557.83
3535.01
3512.81
3491.37
3470.82
3451.27
3432.84
3415.58
3399.58
3384.89
3371.55
3359.59
3349.03
3339.86
3332.09
3325.71
3320.7
3317.04
3314.72
3313.75
3314.08
3315.68
3318.55
3322.65
3327.96
3334.46
3342.12
3350.91
3360.82
3371.83
3383.92
3397.08
3411.28
3426.51
3442.72
3459.9
3477.98
3496.92
3516.63
3537.03
3558.01
3579.46
3601.22
3623.15
3645.07
3666.79
3688.09
3708.75
3728.54
3747.21
3764.52
3780.22
3794.1
3805.93
3815.52
3822.69
3827.31
3829.28
3828.51
3825.02
3818.84
3810.03
3798.69
3784.99
3769.13
3751.32
3731.82
3710.92
3688.9
3666.05
3642.67
3619.04
3595.4
3572.05
3549.31
3527.16
3505.82
3485.47
3466.25
3448.26
3431.55
3416.21
3402.24
3389.66
3378.47
3368.63
3360.1
3352.86
3346.83
3341.97
3338.21
3335.5
3333.77
3332.99
3333.18
3334.35
3336.81
3340.44
3345.26
3351.29
3358.55
3367.1
3376.95
3388.15
3400.7
3414.62
3429.88
3446.44
3464.26
3483.24
3503.3
3524.32
3546.13
3568.59
3591.53
3614.73
3638.01
3661.13
3683.87
3706.04
3727.39
3747.72
3766.83
3784.52
3800.64
3815.01
3827.52
3838.04
3846.49
3852.8
3856.92
3858.8
3858.08
3855.13
3849.98
3842.64
3833.18
3821.7
3808.3
3793.1
3776.25
3757.92
3738.29
3717.55
3695.93
3673.66
3651.01
3628.25
3605.72
3584.34
3562.77
3541.64
3521.26
3501.87
3483.61
3466.62
3450.99
3436.79
3424.04
3412.78
3402.98
3394.63
3387.7
3382.12
3377.85
3245.53
3262.13
3280.65
3301.05
3323.21
3347.01
3372.26
3398.63
3424.85
3453.08
3481.9
3510.96
3539.98
3568.63
3596.65
3623.75
3649.66
3674.16
3697.02
3718.04
3737.07
3753.96
3768.58
3780.86
3790.72
3798.11
3802.99
3805.29
3805.19
3802.6
3797.41
3789.58
3779.12
3766.1
3750.64
3732.85
3712.95
3691.14
3667.66
3642.84
3616.95
3590.34
3563.33
3536.25
3509.41
3483.09
3457.62
3433.17
3409.74
3387.53
3366.67
3347.23
3329.28
3312.84
3297.93
3284.56
3272.71
3262.37
3253.54
3246.2
3240.35
3235.98
3233.08
3231.6
3231.54
3233.02
3235.95
3240.25
3245.87
3252.74
3260.81
3270.03
3280.36
3291.75
3304.19
3317.63
3332.08
3347.52
3363.94
3381.34
3399.69
3418.95
3439.08
3459.98
3481.35
3502.57
3524.66
3547.35
3570.31
3593.28
3616
3638.18
3659.52
3679.76
3698.61
3715.8
3731.06
3744.13
3754.79
3762.84
3768.1
3770.47
3769.83
3766.19
3759.6
3750.09
3737.82
3722.95
3705.72
3686.4
3665.26
3642.63
3618.83
3594.17
3569
3543.62
3518.33
3493.4
3469.07
3445.52
3422.92
3401.4
3381.07
3361.99
3344.21
3327.75
3312.62
3298.78
3286.21
3274.88
3264.76
3255.85
3248.12
3241.56
3236.15
3231.89
3228.76
3226.76
3225.87
3226.14
3227.57
3230.16
3233.95
3238.98
3245.26
3252.82
3261.69
3271.88
3283.4
3296.25
3310.45
3326
3342.86
3361
3380.33
3400.75
3422.15
3444.38
3467.28
3490.69
3514.36
3538.1
3561.67
3584.81
3607.29
3628.83
3649.19
3668.11
3685.37
3700.74
3714.01
3725.02
3733.6
3739.65
3743.07
3743.83
3741.89
3737.35
3730.23
3720.66
3708.75
3694.68
3678.64
3660.85
3641.52
3620.89
3599.2
3576.69
3553.58
3530.1
3506.47
3482.91
3459.62
3436.77
3414.55
3393.09
3372.52
3352.97
3334.52
3317.26
3301.26
3286.56
3273.22
3261.26
3250.7
3241.54
3233.77
3227.39
3222.38
3218.73
3216.41
3215.44
3215.78
3217.38
3220.25
3224.36
3229.67
3236.17
3243.83
3252.63
3262.54
3273.55
3285.64
3298.8
3313
3328.23
3344.45
3361.63
3379.72
3398.66
3418.38
3438.8
3459.79
3481.26
3503.05
3525.01
3546.96
3568.71
3590.05
3610.75
3630.57
3649.29
3666.64
3682.39
3696.3
3708.17
3717.79
3724.98
3729.62
3731.6
3730.84
3727.34
3721.15
3712.31
3700.95
3687.21
3671.3
3653.45
3633.91
3612.95
3590.88
3567.99
3544.56
3520.88
3497.21
3473.83
3451.07
3428.88
3407.53
3387.17
3367.94
3349.94
3333.24
3317.89
3303.93
3291.36
3280.17
3270.34
3261.82
3254.59
3248.57
3243.71
3239.96
3237.26
3235.54
3234.76
3234.94
3236.1
3238.56
3242.19
3247
3253.02
3260.27
3268.81
3278.65
3289.84
3302.39
3316.31
3331.57
3348.13
3365.95
3384.95
3405.02
3426.05
3447.89
3470.38
3493.34
3516.57
3539.88
3563.04
3585.82
3608.02
3629.41
3649.77
3668.92
3686.64
3702.79
3717.19
3729.72
3740.26
3748.72
3755.04
3759.16
3761.05
3760.33
3757.38
3752.21
3744.86
3735.39
3723.88
3710.46
3695.23
3678.35
3659.99
3640.32
3619.55
3597.89
3575.57
3552.88
3530.08
3507.5
3486.13
3464.53
3443.37
3422.97
3403.55
3385.28
3368.28
3352.65
3338.44
3325.7
3314.44
3304.65
3296.31
3289.38
3283.81
3279.55
3147.03
3163.63
3182.15
3202.56
3224.74
3248.56
3273.86
3300.29
3326.48
3354.78
3383.66
3412.78
3441.86
3470.57
3498.65
3525.81
3551.77
3576.32
3599.23
3620.29
3639.35
3656.27
3670.93
3683.23
3693.1
3700.5
3705.38
3707.7
3707.61
3705.02
3699.82
3691.98
3681.5
3668.45
3652.95
3635.12
3615.17
3593.29
3569.75
3544.86
3518.91
3492.23
3465.16
3438.02
3411.13
3384.76
3359.26
3334.78
3311.33
3289.11
3268.24
3248.8
3230.85
3214.42
3199.51
3186.14
3174.29
3163.96
3155.13
3147.8
3141.95
3137.59
3134.69
3133.22
3133.17
3134.66
3137.6
3141.91
3147.53
3154.41
3162.49
3171.73
3182.05
3193.45
3205.89
3219.34
3233.79
3249.23
3265.65
3283.04
3301.39
3320.67
3340.8
3361.71
3383.07
3404.32
3426.44
3449.17
3472.17
3495.18
3517.95
3540.18
3561.58
3581.87
3600.79
3618.04
3633.35
3646.48
3657.19
3665.27
3670.57
3672.95
3672.32
3668.67
3662.05
3652.52
3640.2
3625.28
3607.99
3588.6
3567.4
3544.7
3520.82
3496.1
3470.86
3445.42
3420.08
3395.11
3370.75
3347.18
3324.56
3303.02
3282.68
3263.59
3245.82
3229.37
3214.24
3200.41
3187.85
3176.52
3166.42
3157.51
3149.78
3143.22
3137.82
3133.57
3130.44
3128.43
3127.55
3127.81
3129.23
3131.82
3135.61
3140.62
3146.9
3154.46
3163.33
3173.51
3185.02
3197.87
3212.06
3227.61
3244.48
3262.63
3281.97
3302.41
3323.83
3346.09
3369.02
3392.47
3416.18
3439.97
3463.58
3486.78
3509.31
3530.91
3551.32
3570.3
3587.61
3603.02
3616.34
3627.38
3635.99
3642.06
3645.49
3646.25
3644.31
3639.75
3632.61
3623
3611.05
3596.94
3580.86
3563.01
3543.63
3522.95
3501.21
3478.65
3455.49
3431.96
3408.29
3384.69
3361.37
3338.49
3316.24
3294.76
3274.18
3254.61
3236.15
3218.88
3202.87
3188.17
3174.83
3162.87
3152.31
3143.15
3135.39
3129.01
3124.01
3120.36
3118.05
3117.08
3117.42
3119.03
3121.91
3126.02
3131.33
3137.84
3145.5
3154.3
3164.21
3175.22
3187.32
3200.47
3214.68
3229.91
3246.13
3263.31
3281.41
3300.37
3320.1
3340.53
3361.55
3383.04
3404.86
3426.85
3448.84
3470.63
3492.01
3512.77
3532.64
3551.41
3568.81
3584.61
3598.58
3610.49
3620.15
3627.38
3632.04
3634.03
3633.28
3629.77
3623.56
3614.69
3603.29
3589.51
3573.55
3555.64
3536.03
3515.02
3492.88
3469.93
3446.45
3422.71
3399
3375.58
3352.78
3330.57
3309.19
3288.82
3269.58
3251.57
3234.87
3219.52
3205.57
3193
3181.82
3172
3163.5
3156.27
3150.26
3145.42
3141.68
3138.99
3137.27
3136.5
3136.67
3137.82
3140.28
3143.9
3148.71
3154.71
3161.95
3170.47
3180.3
3191.48
3204.03
3217.94
3233.2
3249.77
3267.6
3286.61
3306.7
3327.75
3349.61
3372.13
3395.12
3418.4
3441.75
3464.95
3487.78
3510.02
3531.46
3551.86
3571.05
3588.82
3605
3619.44
3631.99
3642.56
3651.04
3657.37
3661.49
3663.38
3662.67
3659.71
3654.54
3647.16
3637.67
3626.14
3612.68
3597.42
3580.5
3562.1
3542.39
3521.57
3499.86
3477.49
3454.74
3431.89
3409.26
3387.9
3366.26
3345.06
3324.63
3305.19
3286.9
3269.89
3254.24
3240.03
3227.29
3216.04
3206.25
3197.92
3191.01
3185.45
3181.2
3048.45
3065.05
3083.57
3103.99
3126.2
3150.05
3175.4
3201.9
3228.06
3256.44
3285.4
3314.59
3343.73
3372.51
3400.66
3427.89
3453.92
3478.53
3501.49
3522.61
3541.72
3558.67
3573.36
3585.68
3595.58
3602.99
3607.88
3610.2
3610.13
3607.54
3602.34
3594.48
3583.97
3570.89
3555.35
3537.46
3517.44
3495.5
3471.88
3446.91
3420.88
3394.12
3366.97
3339.76
3312.81
3286.4
3260.85
3236.35
3212.87
3190.63
3169.75
3150.31
3132.36
3115.92
3101.02
3087.66
3075.82
3065.49
3056.67
3049.34
3043.5
3039.14
3036.25
3034.79
3034.75
3036.25
3039.19
3043.51
3049.15
3056.05
3064.14
3073.38
3083.71
3095.12
3107.56
3121.01
3135.46
3150.89
3167.31
3184.71
3203.06
3222.34
3242.49
3263.4
3284.77
3306.05
3328.2
3350.96
3374.01
3397.08
3419.91
3442.2
3463.67
3484.03
3503.02
3520.34
3535.73
3548.92
3559.68
3567.81
3573.14
3575.54
3574.92
3571.27
3564.62
3555.05
3542.68
3527.69
3510.33
3490.86
3469.57
3446.79
3422.83
3398.03
3372.72
3347.21
3321.81
3296.79
3272.38
3248.78
3226.14
3204.58
3184.23
3165.14
3147.36
3130.92
3115.8
3101.98
3089.43
3078.12
3068.02
3059.12
3051.39
3044.84
3039.45
3035.2
3032.07
3030.06
3029.18
3029.44
3030.85
3033.43
3037.21
3042.22
3048.49
3056.04
3064.9
3075.08
3086.58
3099.42
3113.62
3129.16
3146.04
3164.2
3183.56
3204.03
3225.47
3247.76
3270.74
3294.22
3317.99
3341.83
3365.51
3388.77
3411.36
3433.02
3453.5
3472.54
3489.91
3505.38
3518.75
3529.83
3538.48
3544.57
3548.01
3548.77
3546.83
3542.24
3535.08
3525.43
3513.44
3499.27
3483.13
3465.22
3445.78
3425.04
3403.24
3380.61
3357.4
3333.82
3310.1
3286.46
3263.09
3240.18
3217.9
3196.39
3175.79
3156.2
3137.73
3120.45
3104.43
3089.73
3076.38
3064.43
3053.87
3044.71
3036.96
3030.59
3025.59
3021.94
3019.64
3018.67
3019.02
3020.63
3023.51
3027.63
3032.95
3039.46
3047.12
3055.92
3065.84
3076.85
3088.95
3102.1
3116.31
3131.54
3147.77
3164.96
3183.07
3202.03
3221.79
3242.24
3263.28
3284.8
3306.65
3328.69
3350.72
3372.56
3394
3414.81
3434.75
3453.58
3471.05
3486.91
3500.93
3512.9
3522.6
3529.87
3534.56
3536.57
3535.82
3532.3
3526.07
3517.17
3505.72
3491.89
3475.87
3457.89
3438.21
3417.11
3394.91
3371.88
3348.33
3324.53
3300.77
3277.29
3254.46
3232.21
3210.81
3190.42
3171.17
3153.15
3136.44
3121.1
3107.15
3094.6
3083.43
3073.62
3065.13
3057.91
3051.92
3047.09
3043.36
3040.68
3038.97
3038.19
3038.36
3039.51
3041.96
3045.58
3050.37
3056.36
3063.58
3072.09
3081.91
3093.07
3105.61
3119.52
3134.78
3151.35
3169.19
3188.21
3208.33
3229.4
3251.3
3273.85
3296.89
3320.21
3343.61
3366.86
3389.74
3412.04
3433.53
3454
3473.24
3491.05
3507.28
3521.75
3534.34
3544.93
3553.43
3559.78
3563.91
3565.8
3565.1
3562.14
3556.94
3549.55
3540.03
3528.46
3514.97
3499.67
3482.71
3464.25
3444.48
3423.61
3401.84
3379.42
3356.6
3333.68
3310.99
3289.64
3267.95
3246.71
3226.23
3206.76
3188.45
3171.43
3155.78
3141.56
3128.83
3117.58
3107.8
3099.48
3092.58
3087.03
3082.79
2949.79
2966.38
2984.91
3005.34
3027.57
3051.47
3076.87
3103.46
3129.58
3158.07
3187.11
3216.38
3245.6
3274.47
3302.7
3330
3356.11
3380.79
3403.82
3424.99
3444.15
3461.15
3475.87
3488.23
3498.15
3505.58
3510.48
3512.81
3512.75
3510.16
3504.95
3497.07
3486.54
3473.43
3457.83
3439.88
3419.79
3397.76
3374.05
3348.98
3322.85
3296
3268.76
3241.47
3214.45
3187.98
3162.4
3137.85
3114.35
3092.09
3071.19
3051.74
3033.79
3017.36
3002.47
2989.11
2977.28
2966.96
2958.14
2950.82
2944.99
2940.64
2937.75
2936.3
2936.27
2937.78
2940.74
2945.07
2950.73
2957.63
2965.73
2974.99
2985.33
2996.74
3009.18
3022.64
3037.09
3052.52
3068.94
3086.33
3104.69
3123.98
3144.15
3165.06
3186.43
3207.74
3229.94
3252.75
3275.85
3298.98
3321.87
3344.24
3365.79
3386.24
3405.31
3422.72
3438.18
3451.45
3462.28
3470.47
3475.83
3478.26
3477.64
3473.98
3467.3
3457.68
3445.25
3430.19
3412.75
3393.18
3371.8
3348.92
3324.86
3299.97
3274.57
3248.98
3223.51
3198.42
3173.97
3150.33
3127.66
3106.09
3085.72
3066.62
3048.85
3032.42
3017.31
3003.51
2990.97
2979.67
2969.57
2960.68
2952.96
2946.42
2941.03
2936.78
2933.66
2931.65
2930.77
2931.02
2932.43
2935
2938.77
2943.77
2950.03
2957.57
2966.43
2976.59
2988.09
3000.93
3015.11
3030.66
3047.55
3065.72
3085.1
3105.59
3127.07
3149.4
3172.42
3195.96
3219.78
3243.69
3267.43
3290.76
3313.43
3335.17
3355.73
3374.84
3392.28
3407.82
3421.24
3432.38
3441.06
3447.18
3450.64
3451.4
3449.45
3444.84
3437.64
3427.95
3415.9
3401.68
3385.47
3367.48
3347.97
3327.15
3305.29
3282.59
3259.31
3235.67
3211.89
3188.2
3164.78
3141.83
3119.51
3097.97
3077.35
3057.74
3039.25
3021.96
3005.93
2991.23
2977.88
2965.92
2955.37
2946.22
2938.47
2932.1
2927.11
2923.47
2921.17
2920.21
2920.56
2922.19
2925.07
2929.19
2934.52
2941.03
2948.7
2957.5
2967.42
2978.44
2990.53
3003.69
3017.89
3033.13
3049.36
3066.56
3084.68
3103.66
3123.43
3143.91
3164.98
3186.54
3208.43
3230.51
3252.59
3274.49
3295.99
3316.87
3336.89
3355.79
3373.33
3389.27
3403.36
3415.39
3425.15
3432.47
3437.19
3439.21
3438.47
3434.95
3428.68
3419.75
3408.25
3394.35
3378.25
3360.19
3340.42
3319.24
3296.95
3273.83
3250.2
3226.34
3202.51
3178.98
3156.1
3133.81
3112.38
3091.97
3072.7
3054.67
3037.96
3022.63
3008.68
2996.14
2984.98
2975.19
2966.71
2959.52
2953.54
2948.72
2945.01
2942.33
2940.63
2939.86
2940
2941.16
2943.61
2947.22
2951.99
2957.96
2965.17
2973.65
2983.46
2994.61
3007.14
3021.04
3036.3
3052.88
3070.73
3089.77
3109.91
3131.02
3152.94
3175.54
3198.63
3222
3245.46
3268.77
3291.72
3314.09
3335.64
3356.17
3375.47
3393.34
3409.62
3424.14
3436.76
3447.39
3455.92
3462.28
3466.42
3468.31
3467.62
3464.64
3459.43
3452.01
3442.46
3430.86
3417.32
3401.97
3384.96
3366.45
3346.62
3325.68
3303.84
3281.34
3258.46
3235.46
3212.69
3191.36
3169.61
3148.31
3127.79
3108.29
3089.95
3072.91
3057.25
3043.03
3030.3
3019.05
3009.29
3000.98
2994.09
2988.56
2984.34
2851.05
2867.63
2886.17
2906.61
2928.87
2952.81
2978.27
3004.97
3031.04
3059.66
3088.79
3118.15
3147.47
3176.43
3204.75
3232.14
3258.34
3283.1
3306.21
3327.45
3346.67
3363.72
3378.48
3390.87
3400.82
3408.27
3413.18
3415.51
3415.47
3412.88
3407.67
3399.77
3389.21
3376.05
3360.39
3342.37
3322.19
3300.07
3276.26
3251.08
3224.84
3197.89
3170.54
3143.16
3116.05
3089.52
3063.89
3039.3
3015.76
2993.48
2972.57
2953.12
2935.16
2918.74
2903.85
2890.5
2878.67
2868.36
2859.56
2852.24
2846.41
2842.07
2839.2
2837.76
2837.74
2839.27
2842.23
2846.58
2852.25
2859.17
2867.29
2876.55
2886.91
2898.32
2910.77
2924.23
2938.68
2954.11
2970.53
2987.92
3006.29
3025.58
3045.76
3066.69
3088.05
3109.4
3131.64
3154.51
3177.68
3200.88
3223.85
3246.29
3267.94
3288.48
3307.65
3325.16
3340.72
3354.07
3364.98
3373.23
3378.64
3381.09
3380.49
3376.81
3370.1
3360.43
3347.92
3332.78
3315.23
3295.56
3274.07
3251.08
3226.91
3201.91
3176.41
3150.72
3125.17
3100.02
3075.52
3051.83
3029.13
3007.54
2987.15
2968.05
2950.28
2933.86
2918.76
2904.97
2892.45
2881.16
2871.08
2862.19
2854.48
2847.94
2842.56
2838.32
2835.2
2833.19
2832.31
2832.55
2833.95
2836.52
2840.28
2845.27
2851.52
2859.05
2867.9
2878.06
2889.54
2902.37
2916.55
2932.1
2948.99
2967.18
2986.59
3007.11
3028.63
3051
3074.07
3097.66
3121.56
3145.53
3169.36
3192.77
3215.53
3237.36
3258
3277.2
3294.72
3310.33
3323.82
3335.02
3343.75
3349.9
3353.38
3354.14
3352.18
3347.54
3340.3
3330.56
3318.45
3304.16
3287.86
3269.8
3250.2
3229.3
3207.35
3184.58
3161.23
3137.52
3113.67
3089.91
3066.44
3043.44
3021.08
2999.51
2978.86
2959.23
2940.72
2923.42
2907.38
2892.66
2879.31
2867.36
2856.81
2847.67
2839.92
2833.56
2828.57
2824.94
2822.66
2821.7
2822.05
2823.69
2826.58
2830.7
2836.04
2842.56
2850.23
2859.04
2868.96
2879.97
2892.07
2905.23
2919.44
2934.67
2950.91
2968.12
2986.25
3005.25
3025.04
3045.54
3066.65
3088.24
3110.18
3132.31
3154.46
3176.43
3198
3218.96
3239.06
3258.05
3275.67
3291.69
3305.87
3317.97
3327.79
3335.16
3339.92
3341.97
3341.23
3337.69
3331.4
3322.42
3310.86
3296.89
3280.71
3262.55
3242.69
3221.41
3199.01
3175.8
3152.08
3128.13
3104.22
3080.64
3057.7
3035.37
3013.9
2993.46
2974.18
2956.14
2939.43
2924.1
2910.16
2897.63
2886.49
2876.71
2868.25
2861.07
2855.11
2850.32
2846.61
2843.95
2842.26
2841.48
2841.61
2842.78
2845.23
2848.82
2853.58
2859.53
2866.71
2875.17
2884.96
2896.1
2908.61
2922.51
2937.77
2954.36
2972.22
2991.28
3011.44
3032.59
3054.56
3077.2
3100.34
3123.78
3147.3
3170.69
3193.71
3216.15
3237.78
3258.38
3277.74
3295.68
3312.02
3326.59
3339.26
3349.92
3358.48
3364.86
3369.02
3370.91
3370.22
3367.24
3362
3354.56
3344.97
3333.33
3319.74
3304.34
3287.26
3268.68
3248.78
3227.77
3205.85
3183.27
3160.3
3137.21
3114.36
3093.06
3071.23
3049.87
3029.3
3009.76
2991.39
2974.33
2958.66
2944.44
2931.71
2920.47
2910.72
2902.43
2895.56
2890.04
2885.83
2752.23
2768.81
2787.34
2807.8
2830.1
2854.08
2879.61
2906.44
2932.46
2961.21
2990.44
3019.91
3049.33
3078.39
3106.82
3134.32
3160.61
3185.47
3208.66
3229.98
3249.26
3266.37
3281.18
3293.6
3303.58
3311.05
3315.98
3318.31
3318.29
3315.71
3310.49
3302.57
3291.97
3278.76
3263.04
3244.93
3224.66
3202.43
3178.51
3153.2
3126.84
3099.76
3072.31
3044.81
3017.62
2991.01
2965.32
2940.69
2917.12
2894.81
2873.88
2854.42
2836.47
2820.05
2805.17
2791.82
2780.01
2769.71
2760.91
2753.6
2747.78
2743.45
2740.58
2739.16
2739.15
2740.7
2743.68
2748.04
2753.73
2760.67
2768.8
2778.08
2788.44
2799.87
2812.32
2825.78
2840.23
2855.66
2872.07
2889.47
2907.84
2927.15
2947.35
2968.29
2989.63
3011.03
3033.33
3056.25
3079.49
3102.77
3125.83
3148.37
3170.12
3190.77
3210.05
3227.67
3243.34
3256.79
3267.78
3276.1
3281.56
3284.04
3283.45
3279.76
3273.01
3263.28
3250.7
3235.46
3217.8
3198.01
3176.39
3153.27
3128.98
3103.86
3078.24
3052.45
3026.81
3001.58
2977.02
2953.28
2930.55
2908.93
2888.53
2869.42
2851.65
2835.24
2820.16
2806.39
2793.88
2782.61
2772.53
2763.65
2755.95
2749.42
2744.05
2739.81
2736.69
2734.69
2733.8
2734.04
2735.44
2737.99
2741.74
2746.72
2752.95
2760.48
2769.31
2779.46
2790.94
2803.76
2817.93
2833.48
2850.38
2868.59
2888.03
2908.58
2930.14
2952.56
2975.69
2999.35
3023.31
3047.38
3071.29
3094.8
3117.65
3139.58
3160.32
3179.62
3197.23
3212.92
3226.49
3237.75
3246.53
3252.72
3256.22
3256.98
3255.01
3250.34
3243.06
3233.26
3221.08
3206.7
3190.33
3172.17
3152.47
3131.49
3109.44
3086.59
3063.15
3039.35
3015.43
2991.61
2968.07
2945.02
2922.62
2901
2880.32
2860.66
2842.14
2824.82
2808.77
2794.05
2780.69
2768.74
2758.19
2749.06
2741.32
2734.97
2729.99
2726.36
2724.08
2723.14
2723.5
2725.14
2728.04
2732.17
2737.51
2744.04
2751.72
2760.53
2770.45
2781.47
2793.56
2806.72
2820.93
2836.17
2852.41
2869.63
2887.78
2906.8
2926.61
2947.15
2968.29
2989.93
3011.92
3034.11
3056.33
3078.37
3100.03
3121.07
3141.26
3160.35
3178.07
3194.18
3208.45
3220.63
3230.53
3237.95
3242.76
3244.83
3244.1
3240.55
3234.23
3225.19
3213.57
3199.51
3183.24
3164.98
3145
3123.6
3101.09
3077.77
3053.95
3029.9
3005.92
2982.27
2959.27
2936.88
2915.38
2894.91
2875.6
2857.56
2840.84
2825.51
2811.59
2799.07
2787.95
2778.19
2769.75
2762.59
2756.65
2751.87
2748.19
2745.54
2743.85
2743.08
2743.18
2744.36
2746.81
2750.39
2755.13
2761.05
2768.21
2776.64
2786.41
2797.53
2810.03
2823.92
2839.19
2855.78
2873.66
2892.74
2912.93
2934.11
2956.13
2978.83
3002.04
3025.54
3049.14
3072.6
3095.71
3118.23
3139.95
3160.62
3180.07
3198.08
3214.48
3229.11
3241.84
3252.54
3261.13
3267.53
3271.7
3273.6
3272.91
3269.92
3264.66
3257.19
3247.56
3235.87
3222.23
3206.76
3189.61
3170.96
3150.98
3129.88
3107.88
3085.21
3062.14
3038.95
3016
2994.72
2972.82
2951.38
2930.76
2911.17
2892.78
2875.69
2860.01
2845.78
2833.05
2821.83
2812.09
2803.82
2796.96
2791.47
2787.27
2653.33
2669.89
2688.43
2708.91
2731.24
2755.28
2780.88
2807.84
2833.82
2862.72
2892.07
2921.65
2951.19
2980.37
3008.91
3036.52
3062.92
3087.88
3111.17
3132.58
3151.93
3169.1
3183.97
3196.43
3206.44
3213.94
3218.88
3221.22
3221.21
3218.64
3213.42
3205.48
3194.84
3181.57
3165.77
3147.58
3127.2
3104.85
3080.79
3055.35
3028.85
3001.64
2974.05
2946.44
2919.14
2892.46
2866.71
2842.02
2818.41
2796.07
2775.13
2755.66
2737.7
2721.29
2706.42
2693.09
2681.28
2670.99
2662.2
2654.9
2649.09
2644.77
2641.91
2640.5
2640.51
2642.07
2645.07
2649.45
2655.16
2662.12
2670.27
2679.56
2689.94
2701.38
2713.83
2727.29
2741.74
2757.17
2773.58
2790.97
2809.35
2828.67
2848.9
2869.86
2891.18
2912.63
2934.99
2957.98
2981.3
3004.67
3027.82
3050.47
3072.33
3093.1
3112.51
3130.25
3146.03
3159.59
3170.68
3179.08
3184.6
3187.11
3186.53
3182.83
3176.04
3166.24
3153.57
3138.22
3120.44
3100.51
3078.76
3055.49
3031.07
3005.81
2980.06
2954.16
2928.41
2903.1
2878.47
2854.68
2831.91
2810.26
2789.84
2770.73
2752.96