/*--------------------------------*- C++ -*----------------------------------*\
| =========                 |                                                 |
| \\      /  F ield         | OpenFOAM: The Open Source CFD Toolbox           |
|  \\    /   O peration     | Version:  3.0.1                                 |
|   \\  /    A nd           | Web:      www.OpenFOAM.org                      |
|    \\/     M anipulation  |                                                 |
\*---------------------------------------------------------------------------*/
FoamFile
{
    version     2.0;
    format      ascii;
    class       surfaceScalarField;
    location    "28";
    object      alphaPhi;
}
// * * * * * * * * * * * * * * * * * * * * * * * * * * * * * * * * * * * * * //

dimensions      [0 3 -1 0 0 0 0];

internalField   nonuniform List<scalar> 
42423
(
-7.21173e-05
9.25195e-06
-8.04277e-05
8.31032e-06
-8.78808e-05
7.45307e-06
-9.44712e-05
6.59045e-06
-0.000100198
5.72694e-06
-0.000105091
4.89273e-06
-0.000109161
4.06968e-06
-0.00011244
3.27962e-06
-0.000114949
2.50867e-06
-0.000116717
1.76857e-06
-0.000117778
1.06029e-06
-0.000118139
3.60965e-07
-0.000117769
-3.69778e-07
-0.000116683
-1.08637e-06
-0.00011483
-1.85247e-06
-0.000112252
-2.57851e-06
-0.000109
-3.25159e-06
-0.000104923
-4.07686e-06
-0.000100089
-4.83401e-06
-9.4501e-05
-5.58818e-06
-8.80295e-05
-6.47142e-06
-8.07399e-05
-7.28969e-06
-7.26606e-05
-8.07928e-06
-6.36977e-05
-8.96291e-06
-5.39379e-05
-9.75981e-06
-4.34513e-05
-1.04867e-05
-3.22308e-05
-1.12205e-05
-2.04217e-05
-1.18091e-05
-8.02762e-06
-1.23941e-05
4.84471e-06
-1.28724e-05
1.80503e-05
-1.32056e-05
3.15253e-05
-1.3475e-05
4.51086e-05
-1.35833e-05
5.87232e-05
-1.36146e-05
7.22482e-05
-1.3525e-05
8.54745e-05
-1.32264e-05
9.8338e-05
-1.28635e-05
0.000110709
-1.23714e-05
0.000122431
-1.17212e-05
0.000133433
-1.10028e-05
0.000143605
-1.01719e-05
0.000152858
-9.25252e-06
0.000161105
-8.24755e-06
0.000168251
-7.14564e-06
0.000174257
-6.00595e-06
0.000179035
-4.778e-06
0.0001825
-3.46568e-06
0.000184684
-2.18412e-06
0.000185521
-8.36502e-07
0.000185081
4.39869e-07
0.000183171
1.91028e-06
0.000179638
3.53246e-06
0.000174624
5.01404e-06
0.000168113
6.51135e-06
0.000160169
7.94397e-06
0.000150896
9.27239e-06
0.000140405
1.04915e-05
0.000128797
1.16076e-05
0.00011626
1.25373e-05
0.00010295
1.33099e-05
8.90699e-05
1.388e-05
7.47635e-05
1.43064e-05
6.02152e-05
1.45482e-05
4.56108e-05
1.46044e-05
3.10514e-05
1.45594e-05
1.66994e-05
1.4352e-05
2.68697e-06
1.40124e-05
-1.08277e-05
1.35147e-05
-2.37869e-05
1.29591e-05
-3.61705e-05
1.23836e-05
-4.78663e-05
1.16958e-05
-5.8833e-05
1.09667e-05
-6.90197e-05
1.01866e-05
-7.84379e-05
9.41821e-06
-8.69619e-05
8.52404e-06
-9.46737e-05
7.71176e-06
-0.000101486
6.8127e-06
-0.00010746
5.97315e-06
-0.000112635
5.17506e-06
-0.000116971
4.33661e-06
-0.000120529
3.55697e-06
-0.000123315
2.78671e-06
-0.000125258
1.94211e-06
-0.000126425
1.16784e-06
-0.000126787
3.61723e-07
-0.000126359
-4.28546e-07
-0.000125104
-1.25461e-06
-0.000123112
-1.99265e-06
-0.000120442
-2.67014e-06
-0.000117115
-3.32672e-06
-0.000113209
-3.90681e-06
-0.000108756
-4.45253e-06
-0.000103884
-4.87235e-06
-9.85931e-05
-5.29071e-06
-9.29181e-05
-5.67506e-06
-8.68973e-05
-6.02087e-06
-8.04306e-05
-6.46671e-06
-7.35233e-05
-6.90738e-06
-6.61313e-05
-7.39198e-06
-5.82406e-05
-7.89078e-06
-4.97995e-05
-8.44112e-06
-4.07886e-05
-9.01099e-06
-3.11783e-05
-9.6103e-06
-2.10186e-05
-1.01597e-05
-1.03203e-05
-1.06984e-05
8.8033e-07
-1.12007e-05
1.2495e-05
-1.16148e-05
2.44902e-05
-1.19952e-05
3.67692e-05
-1.22791e-05
4.92251e-05
-1.24559e-05
6.17129e-05
-1.24879e-05
7.41199e-05
-1.24071e-05
8.62325e-05
-1.21128e-05
9.79344e-05
-1.17019e-05
0.000108982
-1.10476e-05
0.000119242
-1.02598e-05
0.000128528
-9.28605e-06
0.000136653
-8.12515e-06
0.000143469
-6.81667e-06
0.000148852
-5.38302e-06
0.000152711
-3.85926e-06
0.000154918
-2.20654e-06
0.000155464
-5.46114e-07
0.000154326
1.13825e-06
0.000151502
2.82332e-06
0.000147035
4.46691e-06
0.000141021
6.01457e-06
0.000133555
7.46576e-06
0.000124755
8.80038e-06
0.000114783
9.97131e-06
0.000103827
1.09565e-05
9.20518e-05
1.1775e-05
7.96604e-05
1.23914e-05
6.68379e-05
1.28225e-05
5.37641e-05
1.30738e-05
4.06129e-05
1.31512e-05
2.74946e-05
1.31183e-05
1.45682e-05
1.29264e-05
1.97793e-06
1.25903e-05
-1.02045e-05
1.21824e-05
-2.19614e-05
1.17569e-05
-3.31537e-05
1.11924e-05
-4.38157e-05
1.0662e-05
-5.38778e-05
1.00622e-05
-6.33578e-05
9.48e-06
-7.22546e-05
8.89679e-06
-8.05474e-05
8.29285e-06
-8.82707e-05
7.72334e-06
-9.53844e-05
7.1137e-06
-0.00010189
6.50555e-06
-0.000107809
5.91871e-06
-0.000113101
5.29272e-06
-0.000117803
4.70116e-06
-0.000121856
4.0536e-06
-0.000125308
3.45188e-06
-0.000128181
2.87327e-06
-0.000130453
2.27166e-06
-0.000132141
1.68841e-06
-0.000133246
1.10464e-06
-0.000133801
5.54897e-07
-0.00013378
-2.08964e-08
-0.000133171
-6.0886e-07
-0.000131953
-1.21813e-06
-0.000130119
-1.83432e-06
-0.000127641
-2.47751e-06
-0.000124523
-3.11843e-06
-0.000120755
-3.76784e-06
-0.000116342
-4.41255e-06
-0.000111201
-5.14078e-06
-0.000105442
-5.75991e-06
-9.89488e-05
-6.49273e-06
-9.17471e-05
-7.20175e-06
-8.38471e-05
-7.89999e-06
-7.529e-05
-8.55712e-06
-6.60971e-05
-9.19294e-06
-5.63174e-05
-9.77974e-06
-4.5997e-05
-1.03204e-05
-3.51961e-05
-1.0801e-05
-2.39591e-05
-1.1237e-05
-1.23509e-05
-1.16083e-05
-4.43384e-07
-1.19075e-05
1.16658e-05
-1.21092e-05
2.38678e-05
-1.22021e-05
3.60867e-05
-1.22189e-05
4.81523e-05
-1.20656e-05
6.00022e-05
-1.185e-05
7.1494e-05
-1.14919e-05
8.24961e-05
-1.10021e-05
9.28796e-05
-1.03836e-05
0.000102495
-9.61502e-06
0.000111223
-8.72803e-06
0.00011892
-7.69797e-06
0.00012551
-6.58949e-06
0.000130838
-5.32811e-06
0.00013486
-4.02234e-06
0.000137502
-2.64202e-06
0.000138699
-1.1964e-06
0.000138447
2.51787e-07
0.000136721
1.72563e-06
0.000133504
3.21725e-06
0.000128893
4.61073e-06
0.000122932
5.9612e-06
0.000115709
7.22299e-06
0.000107319
8.38971e-06
9.78861e-05
9.43315e-06
8.75375e-05
1.03486e-05
7.64221e-05
1.11154e-05
6.46868e-05
1.17353e-05
5.25103e-05
1.21765e-05
4.00171e-05
1.24932e-05
2.73325e-05
1.26845e-05
1.46393e-05
1.26933e-05
2.04423e-06
1.2595e-05
-1.0314e-05
1.23583e-05
-2.23642e-05
1.20502e-05
-3.39919e-05
1.16277e-05
-4.51374e-05
1.11455e-05
-5.572e-05
1.05825e-05
-6.57008e-05
9.98083e-06
-7.50167e-05
9.31591e-06
-8.36374e-05
8.62076e-06
-9.15488e-05
7.91138e-06
-9.87379e-05
7.18915e-06
-0.000105229
6.49058e-06
-0.000110988
5.75901e-06
-0.000116045
5.05787e-06
-0.000120413
4.3676e-06
-0.000124116
3.70318e-06
-0.000127144
3.02801e-06
-0.000129522
2.37836e-06
-0.00013126
1.73732e-06
-0.000132393
1.13336e-06
-0.00013292
5.27149e-07
-0.000132852
-6.87289e-08
-0.000132212
-6.39358e-07
-0.000131012
-1.19993e-06
-0.000129276
-1.73635e-06
-0.000126996
-2.27988e-06
-0.000124202
-2.79432e-06
-0.000120858
-3.34388e-06
-0.000116982
-3.87586e-06
-0.000112548
-4.43441e-06
-0.000107557
-4.99067e-06
-0.000102042
-5.51527e-06
-9.59286e-05
-6.11313e-06
-8.9255e-05
-6.6736e-06
-8.20035e-05
-7.25158e-06
-7.41709e-05
-7.83256e-06
-6.57802e-05
-8.39077e-06
-5.67954e-05
-8.98487e-06
-4.72755e-05
-9.51987e-06
-3.72111e-05
-1.00644e-05
-2.66414e-05
-1.05698e-05
-1.56075e-05
-1.1034e-05
-4.16325e-06
-1.14443e-05
7.54002e-06
-1.17033e-05
1.95135e-05
-1.19735e-05
3.15868e-05
-1.20734e-05
4.37077e-05
-1.21209e-05
5.57256e-05
-1.20179e-05
6.75227e-05
-1.17971e-05
7.89293e-05
-1.14066e-05
8.97727e-05
-1.08434e-05
9.993e-05
-1.01574e-05
0.000109213
-9.28348e-06
0.000117474
-8.26075e-06
0.000124586
-7.11181e-06
0.000130455
-5.86926e-06
0.000134959
-4.50435e-06
0.000138059
-3.09977e-06
0.000139766
-1.70728e-06
0.000140014
-2.47639e-07
0.000138924
1.09003e-06
0.000136597
2.32618e-06
0.000133032
3.56545e-06
0.000128444
4.58758e-06
0.000122725
5.71886e-06
0.000116036
6.68883e-06
0.000108353
7.68308e-06
9.98875e-05
8.46581e-06
9.05902e-05
9.2972e-06
8.06807e-05
9.90949e-06
7.01198e-05
1.05609e-05
5.90693e-05
1.10505e-05
4.7668e-05
1.14014e-05
3.59227e-05
1.17453e-05
2.41105e-05
1.18121e-05
1.23037e-05
1.18068e-05
6.21811e-07
1.16819e-05
-1.09574e-05
1.15792e-05
-2.22074e-05
1.125e-05
-3.30146e-05
1.08073e-05
-4.32816e-05
1.0267e-05
-5.29996e-05
9.71804e-06
-6.21235e-05
9.12384e-06
-7.0634e-05
8.51052e-06
-7.85631e-05
7.9291e-06
-8.58762e-05
7.31317e-06
-9.25893e-05
6.71306e-06
-9.87155e-05
6.12624e-06
-0.000104238
5.52254e-06
-0.000109175
4.93682e-06
-0.000113501
4.32647e-06
-0.000117199
3.69795e-06
-0.000120289
3.09022e-06
-0.000122732
2.44301e-06
-0.000124517
1.78479e-06
-0.000125664
1.14673e-06
-0.000126127
4.62769e-07
-0.00012579
-3.36396e-07
-0.000124682
-1.10836e-06
-0.000122779
-1.9035e-06
-0.00012014
-2.63882e-06
-0.000116752
-3.38759e-06
-0.000112554
-4.19799e-06
-0.000107617
-4.93743e-06
-0.000101852
-5.76439e-06
-9.53617e-05
-6.49057e-06
-8.81823e-05
-7.17949e-06
-8.02484e-05
-7.93389e-06
-7.16598e-05
-8.58861e-06
-6.24631e-05
-9.19666e-06
-5.26217e-05
-9.84141e-06
-4.22737e-05
-1.03481e-05
-3.14544e-05
-1.08193e-05
-2.0179e-05
-1.12754e-05
-8.5924e-06
-1.15866e-05
3.2764e-06
-1.18688e-05
1.52861e-05
-1.20097e-05
2.72986e-05
-1.20125e-05
3.92697e-05
-1.19711e-05
5.11026e-05
-1.18329e-05
6.26539e-05
-1.15513e-05
7.38144e-05
-1.11606e-05
8.44556e-05
-1.06412e-05
9.4481e-05
-1.00254e-05
0.000103787
-9.30567e-06
0.000112255
-8.46802e-06
0.000119819
-7.56461e-06
0.000126387
-6.56764e-06
0.000131876
-5.48953e-06
0.000136253
-4.37653e-06
0.000139455
-3.20217e-06
0.000141461
-2.00629e-06
0.000142277
-8.15701e-07
0.000141788
4.88795e-07
0.000140025
1.76305e-06
0.000136986
3.03868e-06
0.000132704
4.28199e-06
0.000127275
5.42872e-06
0.000120674
6.6013e-06
0.000113034
7.64005e-06
0.000104358
8.67616e-06
9.47127e-05
9.64517e-06
8.4317e-05
1.03956e-05
7.31668e-05
1.11502e-05
1.17593e-05
-7.21549e-05
1.85064e-05
-8.04665e-05
1.66219e-05
-8.79215e-05
1.49081e-05
-9.45139e-05
1.31828e-05
-0.000100243
1.14557e-05
-0.000105137
9.78677e-06
-0.000109207
8.14e-06
-0.000112487
6.55951e-06
-0.000114995
5.01705e-06
-0.000116763
3.53636e-06
-0.000117823
2.1203e-06
-0.000118183
7.21285e-07
-0.000117814
-7.39283e-07
-0.000116727
-2.17356e-06
-0.000114875
-3.70435e-06
-0.000112298
-5.15526e-06
-0.000109048
-6.50188e-06
-0.000104971
-8.15364e-06
-0.000100137
-9.66792e-06
-9.45493e-05
-1.1176e-05
-8.80762e-05
-1.29446e-05
-8.07866e-05
-1.45792e-05
-7.27081e-05
-1.61579e-05
-6.37385e-05
-1.79324e-05
-5.39781e-05
-1.95203e-05
-4.34922e-05
-2.09726e-05
-3.2267e-05
-2.24458e-05
-2.04489e-05
-2.36271e-05
-8.04816e-06
-2.47949e-05
4.82414e-06
-2.57447e-05
1.80351e-05
-2.64166e-05
3.15177e-05
-2.69577e-05
4.51102e-05
-2.7176e-05
5.87367e-05
-2.72412e-05
7.227e-05
-2.70584e-05
8.55015e-05
-2.6458e-05
9.83728e-05
-2.57348e-05
0.000110763
-2.47621e-05
0.000122505
-2.34633e-05
0.000133503
-2.20002e-05
0.000143669
-2.03379e-05
0.000152924
-1.85076e-05
0.000161178
-1.6502e-05
0.000168336
-1.43034e-05
0.000174349
-1.20192e-05
0.000179127
-9.55602e-06
0.000182597
-6.93566e-06
0.000184795
-4.38277e-06
0.000185632
-1.6737e-06
0.00018518
8.92025e-07
0.000183267
3.82305e-06
0.000179738
7.06156e-06
0.000174724
1.00287e-05
0.000168207
1.30277e-05
0.000160257
1.58943e-05
0.000150978
1.85514e-05
0.000140477
2.09919e-05
0.000128859
2.3226e-05
0.000116315
2.50817e-05
0.000102998
2.66268e-05
8.9112e-05
2.77655e-05
7.47964e-05
2.8622e-05
6.0239e-05
2.91056e-05
4.56263e-05
2.92171e-05
3.10597e-05
2.91259e-05
1.67002e-05
2.87115e-05
2.67835e-06
2.80343e-05
-1.08394e-05
2.70325e-05
-2.38027e-05
2.59224e-05
-3.61909e-05
2.47718e-05
-4.78902e-05
2.3395e-05
-5.88586e-05
2.19351e-05
-6.90475e-05
2.03755e-05
-7.84651e-05
1.88358e-05
-8.69887e-05
1.70475e-05
-9.46971e-05
1.54201e-05
-0.000101508
1.36235e-05
-0.00010748
1.19448e-05
-0.000112642
1.0337e-05
-0.000116962
8.65683e-06
-0.000120505
7.1e-06
-0.000123284
5.56599e-06
-0.000125228
3.88519e-06
-0.000126405
2.34514e-06
-0.000126774
7.30553e-07
-0.000126347
-8.56114e-07
-0.000125102
-2.4995e-06
-0.000123119
-3.97522e-06
-0.000120455
-5.3349e-06
-0.000117132
-6.64935e-06
-0.000113235
-7.80391e-06
-0.000108795
-8.89328e-06
-0.000103926
-9.74111e-06
-9.86393e-05
-1.05774e-05
-9.29713e-05
-1.1343e-05
-8.69633e-05
-1.2029e-05
-8.04967e-05
-1.29333e-05
-7.35897e-05
-1.38145e-05
-6.61825e-05
-1.47993e-05
-5.83008e-05
-1.57725e-05
-4.98656e-05
-1.68764e-05
-4.08543e-05
-1.80223e-05
-3.12417e-05
-1.9223e-05
-2.10792e-05
-2.03224e-05
-1.03771e-05
-2.14005e-05
8.297e-07
-2.24076e-05
1.24538e-05
-2.3239e-05
2.44552e-05
-2.39967e-05
3.67332e-05
-2.45572e-05
4.92018e-05
-2.49246e-05
6.17018e-05
-2.4988e-05
7.41154e-05
-2.48208e-05
8.62334e-05
-2.42309e-05
9.79451e-05
-2.34137e-05
0.000109006
-2.21088e-05
0.000119278
-2.05317e-05
0.000128572
-1.85803e-05
0.000136696
-1.62495e-05
0.000143517
-1.3638e-05
0.000148926
-1.07912e-05
0.000152785
-7.71897e-06
0.000155008
-4.42923e-06
0.00015554
-1.07826e-06
0.000154392
2.28596e-06
0.000151567
5.64832e-06
0.0001471
8.93418e-06
0.00014108
1.20339e-05
0.000133597
1.49489e-05
0.000124792
1.76054e-05
0.000114818
1.99457e-05
0.000103864
2.19107e-05
9.20643e-05
2.35742e-05
7.9654e-05
2.48017e-05
6.68261e-05
2.56505e-05
5.37528e-05
2.61471e-05
4.05964e-05
2.63076e-05
2.74697e-05
2.6245e-05
1.45331e-05
2.5863e-05
1.93017e-06
2.51933e-05
-1.02643e-05
2.4377e-05
-2.2016e-05
2.35086e-05
-3.32129e-05
2.23893e-05
-4.3876e-05
2.13252e-05
-5.39424e-05
2.01285e-05
-6.34244e-05
1.8962e-05
-7.23145e-05
1.7787e-05
-8.06084e-05
1.65868e-05
-8.83416e-05
1.54565e-05
-9.54523e-05
1.42245e-05
-0.000101956
1.30093e-05
-0.000107879
1.18418e-05
-0.000113176
1.05898e-05
-0.000117872
9.397e-06
-0.000121926
8.1073e-06
-0.000125379
6.90546e-06
-0.000128253
5.74702e-06
-0.000130522
4.54121e-06
-0.000132212
3.37796e-06
-0.000133321
2.21393e-06
-0.000133879
1.11253e-06
-0.000133853
-4.69654e-08
-0.000133237
-1.22432e-06
-0.000132019
-2.43613e-06
-0.000130187
-3.66664e-06
-0.000127712
-4.95239e-06
-0.000124595
-6.23524e-06
-0.000120825
-7.53858e-06
-0.00011641
-8.82685e-06
-0.000111286
-1.02651e-05
-0.000105511
-1.15353e-05
-9.90143e-05
-1.2989e-05
-9.18151e-05
-1.44009e-05
-8.39146e-05
-1.58006e-05
-7.53529e-05
-1.71188e-05
-6.61535e-05
-1.83923e-05
-5.63689e-05
-1.95644e-05
-4.60455e-05
-2.06439e-05
-3.52419e-05
-2.16046e-05
-2.40037e-05
-2.24753e-05
-1.23874e-05
-2.32246e-05
-4.72465e-07
-2.38225e-05
1.16393e-05
-2.4221e-05
2.38509e-05
-2.44138e-05
3.60807e-05
-2.44488e-05
4.81491e-05
-2.41341e-05
6.00064e-05
-2.37074e-05
7.15022e-05
-2.29877e-05
8.25147e-05
-2.20147e-05
9.29077e-05
-2.07766e-05
0.000102527
-1.92349e-05
0.000111257
-1.74575e-05
0.000118967
-1.54079e-05
0.000125557
-1.31794e-05
0.00013089
-1.06619e-05
0.000134918
-8.05018e-06
0.00013756
-5.28434e-06
0.00013876
-2.39585e-06
0.00013851
5.0209e-07
0.00013678
3.45506e-06
0.000133562
6.43578e-06
0.000128944
9.22867e-06
0.000122978
1.19263e-05
0.000115753
1.44488e-05
0.000107353
1.67893e-05
9.7912e-05
1.88742e-05
8.75569e-05
2.07037e-05
7.64318e-05
2.22405e-05
6.46852e-05
2.34819e-05
5.24999e-05
2.43619e-05
3.99983e-05
2.49948e-05
2.73075e-05
2.53754e-05
1.46099e-05
2.53909e-05
2.00958e-06
2.51954e-05
-1.03563e-05
2.47242e-05
-2.2406e-05
2.41e-05
-3.40409e-05
2.32625e-05
-4.51978e-05
2.23025e-05
-5.57849e-05
2.11697e-05
-6.5768e-05
1.99639e-05
-7.50849e-05
1.86328e-05
-8.37042e-05
1.72401e-05
-9.16128e-05
1.58199e-05
-9.87999e-05
1.43763e-05
-0.000105299
1.29897e-05
-0.00011106
1.15196e-05
-0.000116124
1.01222e-05
-0.000120487
8.73115e-06
-0.000124188
7.40406e-06
-0.000127216
6.05607e-06
-0.000129591
4.75257e-06
-0.000131332
3.47859e-06
-0.000132458
2.25992e-06
-0.000132986
1.05462e-06
-0.000132923
-1.31154e-07
-0.000132275
-1.28735e-06
-0.000131071
-2.4044e-06
-0.000129336
-3.47126e-06
-0.000127054
-4.56191e-06
-0.000124262
-5.58614e-06
-0.00012092
-6.68655e-06
-0.000117043
-7.75221e-06
-0.00011261
-8.86719e-06
-0.000107618
-9.98276e-06
-0.000102096
-1.10379e-05
-9.59826e-05
-1.22263e-05
-8.93095e-05
-1.33467e-05
-8.20556e-05
-1.45055e-05
-7.42217e-05
-1.56665e-05
-6.58288e-05
-1.67837e-05
-5.68439e-05
-1.79698e-05
-4.73229e-05
-1.9041e-05
-3.72494e-05
-2.01379e-05
-2.668e-05
-2.11392e-05
-1.56412e-05
-2.20728e-05
-4.18914e-06
-2.28964e-05
7.51989e-06
-2.34124e-05
1.94968e-05
-2.39505e-05
3.1579e-05
-2.41556e-05
4.37078e-05
-2.42498e-05
5.57303e-05
-2.40405e-05
6.7536e-05
-2.36029e-05
7.89524e-05
-2.28231e-05
8.98069e-05
-2.1698e-05
9.99721e-05
-2.03226e-05
0.00010926
-1.85718e-05
0.000117524
-1.65246e-05
0.000124641
-1.42286e-05
0.000130515
-1.17432e-05
0.000135013
-9.00282e-06
0.000138106
-6.19275e-06
0.000139825
-3.42676e-06
0.000140078
-5.00252e-07
0.000138977
2.19073e-06
0.00013665
4.65349e-06
0.000133081
7.13441e-06
0.000128485
9.18281e-06
0.000122759
1.14452e-05
0.00011606
1.33875e-05
0.000108372
1.53708e-05
9.98946e-05
1.69435e-05
9.05953e-05
1.85964e-05
8.06767e-05
1.98281e-05
7.01173e-05
2.11202e-05
5.90582e-05
2.21097e-05
4.76539e-05
2.28056e-05
3.5906e-05
2.34932e-05
2.40894e-05
2.36288e-05
1.22787e-05
2.36174e-05
5.91775e-07
2.33689e-05
-1.09888e-05
2.31598e-05
-2.22413e-05
2.25024e-05
-3.30498e-05
2.16159e-05
-4.33175e-05
2.05347e-05
-5.30369e-05
1.94375e-05
-6.21622e-05
1.82492e-05
-7.06746e-05
1.70229e-05
-7.86042e-05
1.58587e-05
-8.59202e-05
1.46291e-05
-9.26419e-05
1.34348e-05
-9.87727e-05
1.22571e-05
-0.000104288
1.10374e-05
-0.000109222
9.8715e-06
-0.000113549
8.65348e-06
-0.000117251
7.40003e-06
-0.000120348
6.18678e-06
-0.000122795
4.89002e-06
-0.000124576
3.5658e-06
-0.00012572
2.29073e-06
-0.000126183
9.2605e-07
-0.000125844
-6.75416e-07
-0.000124737
-2.21567e-06
-0.000122834
-3.80641e-06
-0.000120195
-5.27751e-06
-0.000116808
-6.77445e-06
-0.000112609
-8.39694e-06
-0.000107669
-9.8776e-06
-0.000101904
-1.15299e-05
-9.54112e-05
-1.29832e-05
-8.82297e-05
-1.4361e-05
-8.02933e-05
-1.58703e-05
-7.17017e-05
-1.71802e-05
-6.2502e-05
-1.83963e-05
-5.26572e-05
-1.96863e-05
-4.23067e-05
-2.06986e-05
-3.14798e-05
-2.16462e-05
-2.01992e-05
-2.2556e-05
-8.60832e-06
-2.31776e-05
3.26894e-06
-2.37461e-05
1.52819e-05
-2.40227e-05
2.72973e-05
-2.4028e-05
3.92743e-05
-2.39482e-05
5.11166e-05
-2.36752e-05
6.2681e-05
-2.31158e-05
7.38466e-05
-2.23262e-05
8.44892e-05
-2.12838e-05
9.45205e-05
-2.00568e-05
0.000103832
-1.8617e-05
0.000112306
-1.6942e-05
0.000119875
-1.5134e-05
0.000126446
-1.3139e-05
0.00013194
-1.09828e-05
0.000136319
-8.75599e-06
0.000139524
-6.4074e-06
0.000141533
-4.01537e-06
0.000142353
-1.63582e-06
0.000141861
9.81404e-07
0.000140097
3.52692e-06
0.000137058
6.07747e-06
0.000132773
8.56635e-06
0.000127339
1.08627e-05
0.000120732
1.32089e-05
0.000113085
1.52871e-05
0.000104401
1.73596e-05
9.47492e-05
1.9297e-05
8.43467e-05
2.07981e-05
7.31895e-05
2.23074e-05
2.35263e-05
-7.22275e-05
2.77633e-05
-8.05417e-05
2.49361e-05
-8.80001e-05
2.23665e-05
-9.45964e-05
1.97791e-05
-0.000100329
1.71886e-05
-0.000105226
1.46837e-05
-0.000109297
1.22106e-05
-0.000112578
9.84028e-06
-0.000115087
7.52664e-06
-0.00011685
5.29865e-06
-0.000117892
3.16232e-06
-0.00011824
1.06988e-06
-0.000117867
-1.11234e-06
-0.000116779
-3.26134e-06
-0.000114929
-5.55435e-06
-0.000112346
-7.73836e-06
-0.000109096
-9.75228e-06
-0.000105026
-1.22232e-05
-0.000100195
-1.44992e-05
-9.46101e-05
-1.6761e-05
-8.81385e-05
-1.94162e-05
-8.08498e-05
-2.18679e-05
-7.27702e-05
-2.42376e-05
-6.38048e-05
-2.68979e-05
-5.40353e-05
-2.92898e-05
-4.35401e-05
-3.14678e-05
-3.23027e-05
-3.36833e-05
-2.04812e-05
-3.54487e-05
-8.07502e-06
-3.72012e-05
4.8278e-06
-3.86476e-05
1.80559e-05
-3.96447e-05
3.15553e-05
-4.04572e-05
4.51615e-05
-4.07822e-05
5.87929e-05
-4.08726e-05
7.23279e-05
-4.05935e-05
8.55722e-05
-3.97024e-05
9.84628e-05
-3.86255e-05
0.000110859
-3.71587e-05
0.000122595
-3.51989e-05
0.000133599
-3.30044e-05
0.000143777
-3.05163e-05
0.00015305
-2.77803e-05
0.000161326
-2.47784e-05
0.000168491
-2.14678e-05
0.000174504
-1.80328e-05
0.000179294
-1.43461e-05
0.000182782
-1.04238e-05
0.000184984
-6.5851e-06
0.0001858
-2.48931e-06
0.000185312
1.38016e-06
0.00018338
5.7546e-06
0.000179859
1.05824e-05
0.000174842
1.5046e-05
0.000168318
1.95518e-05
0.000160361
2.38512e-05
0.000151072
2.78397e-05
0.00014056
3.15036e-05
0.000128929
3.48575e-05
0.000116372
3.76389e-05
0.000103043
3.99555e-05
8.9146e-05
4.16625e-05
7.48173e-05
4.29507e-05
6.0248e-05
4.36748e-05
4.56242e-05
4.3841e-05
3.10485e-05
4.37016e-05
1.66821e-05
4.30778e-05
2.65263e-06
4.20638e-05
-1.08714e-05
4.05565e-05
-2.38387e-05
3.88896e-05
-3.62302e-05
3.71633e-05
-4.79315e-05
3.50964e-05
-5.89002e-05
3.29037e-05
-6.90892e-05
3.05645e-05
-7.85046e-05
2.82512e-05
-8.70209e-05
2.55638e-05
-9.47149e-05
2.31141e-05
-0.000101512
2.04208e-05
-0.000107477
1.79094e-05
-0.000112632
1.54915e-05
-0.000116945
1.29699e-05
-0.00012048
1.0635e-05
-0.000123248
8.33385e-06
-0.000125182
5.81925e-06
-0.000126364
3.52716e-06
-0.000126742
1.10785e-06
-0.000126314
-1.28407e-06
-0.000125075
-3.7381e-06
-0.0001231
-5.95018e-06
-0.000120446
-7.98949e-06
-0.000117133
-9.9624e-06
-0.00011325
-1.16868e-05
-0.000108819
-1.33244e-05
-0.000103963
-1.45972e-05
-9.86929e-05
-1.58477e-05
-9.30349e-05
-1.70011e-05
-8.70348e-05
-1.80291e-05
-8.05697e-05
-1.93984e-05
-7.36682e-05
-2.07161e-05
-6.62599e-05
-2.22076e-05
-5.83992e-05
-2.36332e-05
-4.99672e-05
-2.53084e-05
-4.09503e-05
-2.70393e-05
-3.13281e-05
-2.88452e-05
-2.11726e-05
-3.0478e-05
-1.04633e-05
-3.21099e-05
7.36021e-07
-3.3607e-05
1.23862e-05
-3.48892e-05
2.43992e-05
-3.60097e-05
3.6683e-05
-3.68412e-05
4.91674e-05
-3.74091e-05
6.16676e-05
-3.74883e-05
7.40938e-05
-3.72471e-05
8.62334e-05
-3.63706e-05
9.79589e-05
-3.51392e-05
0.000109034
-3.31837e-05
0.000119315
-3.08134e-05
0.000128621
-2.78856e-05
0.000136766
-2.43948e-05
0.0001436
-2.04722e-05
0.000149007
-1.61983e-05
0.000152862
-1.15743e-05
0.000155105
-6.67208e-06
0.000155655
-1.62849e-06
0.000154499
3.44235e-06
0.000151656
8.4908e-06
0.000147179
1.3411e-05
0.000141152
1.80615e-05
0.000133655
2.2446e-05
0.000124847
2.64126e-05
0.000114853
2.99396e-05
0.000103886
3.28785e-05
9.20721e-05
3.53877e-05
7.96504e-05
3.72233e-05
6.68069e-05
3.8494e-05
5.37127e-05
3.92414e-05
4.05516e-05
3.94686e-05
2.74077e-05
3.9389e-05
1.44684e-05
3.88023e-05
1.85185e-06
3.78099e-05
-1.03656e-05
3.65945e-05
-2.21036e-05
3.52466e-05
-3.32996e-05
3.35853e-05
-4.39601e-05
3.19858e-05
-5.40278e-05
3.01963e-05
-6.35146e-05
2.84489e-05
-7.2409e-05
2.66814e-05
-8.0702e-05
2.48798e-05
-8.84338e-05
2.31884e-05
-9.55456e-05
2.13363e-05
-0.000102049
1.95128e-05
-0.000107973
1.77655e-05
-0.000113274
1.58916e-05
-0.000117971
1.40932e-05
-0.00012202
1.21566e-05
-0.00012547
1.03553e-05
-0.000128345
8.62253e-06
-0.000130615
6.81086e-06
-0.000132309
5.07229e-06
-0.000133409
3.31401e-06
-0.000133964
1.66712e-06
-0.000133945
-6.58859e-08
-0.000133331
-1.83851e-06
-0.00013211
-3.65725e-06
-0.000130273
-5.50354e-06
-0.000127804
-7.42085e-06
-0.000124686
-9.35309e-06
-0.000120913
-1.13118e-05
-0.000116504
-1.32359e-05
-0.000111393
-1.53757e-05
-0.000105606
-1.7323e-05
-9.9109e-05
-1.94857e-05
-9.19084e-05
-2.16016e-05
-8.40026e-05
-2.37065e-05
-7.5437e-05
-2.56844e-05
-6.62357e-05
-2.75937e-05
-5.64483e-05
-2.93518e-05
-4.61231e-05
-3.09691e-05
-3.5309e-05
-3.24188e-05
-2.40651e-05
-3.37192e-05
-1.24437e-05
-3.48461e-05
-5.2235e-07
-3.5744e-05
1.15994e-05
-3.63428e-05
2.38197e-05
-3.66341e-05
3.60511e-05
-3.66802e-05
4.81357e-05
-3.62188e-05
6.00031e-05
-3.55748e-05
7.15125e-05
-3.44972e-05
8.25341e-05
-3.30364e-05
9.29317e-05
-3.11743e-05
0.000102564
-2.88668e-05
0.00011131
-2.62037e-05
0.000119026
-2.31241e-05
0.000125614
-1.97681e-05
0.000130966
-1.60135e-05
0.000134999
-1.20829e-05
0.000137649
-7.93515e-06
0.000138851
-3.59787e-06
0.000138591
7.62113e-07
0.000136855
5.19158e-06
0.000133634
9.65656e-06
0.000129015
1.38475e-05
0.000123044
1.78972e-05
0.000115807
2.16857e-05
0.000107394
2.52027e-05
9.7945e-05
2.83231e-05
8.75781e-05
3.10705e-05
7.64483e-05
3.33703e-05
6.46926e-05
3.52376e-05
5.24878e-05
3.65667e-05
3.99751e-05
3.75075e-05
2.72714e-05
3.80791e-05
1.45601e-05
3.81023e-05
1.95846e-06
3.7797e-05
-1.04159e-05
3.70986e-05
-2.24775e-05
3.61616e-05
-3.41187e-05
3.49038e-05
-4.52784e-05
3.34622e-05
-5.58675e-05
3.17589e-05
-6.58555e-05
2.9952e-05
-7.51798e-05
2.79571e-05
-8.38047e-05
2.58651e-05
-9.17169e-05
2.37322e-05
-9.88873e-05
2.15468e-05
-0.000105389
1.94918e-05
-0.000111149
1.72789e-05
-0.000116214
1.51875e-05
-0.000120583
1.31004e-05
-0.000124278
1.10986e-05
-0.000127298
9.07641e-06
-0.000129679
7.13356e-06
-0.000131427
5.22618e-06
-0.000132546
3.37974e-06
-0.000133069
1.57712e-06
-0.000133
-2.00111e-07
-0.000132343
-1.94429e-06
-0.000131151
-3.59624e-06
-0.000129417
-5.20578e-06
-0.00012713
-6.84832e-06
-0.000124338
-8.37815e-06
-0.00012099
-1.0035e-05
-0.000117117
-1.16254e-05
-0.000112686
-1.32974e-05
-0.000107693
-1.49762e-05
-0.000102164
-1.65674e-05
-9.60623e-05
-1.83276e-05
-8.93915e-05
-2.00175e-05
-8.21316e-05
-2.17655e-05
-7.42941e-05
-2.3504e-05
-6.59016e-05
-2.51762e-05
-5.69129e-05
-2.69586e-05
-4.73957e-05
-2.85582e-05
-3.73244e-05
-3.02092e-05
-2.67487e-05
-3.1715e-05
-1.57033e-05
-3.31183e-05
-4.24251e-06
-3.43572e-05
7.47956e-06
-3.51345e-05
1.94614e-05
-3.59324e-05
3.15545e-05
-3.62488e-05
4.36888e-05
-3.63842e-05
5.57278e-05
-3.60795e-05
6.75443e-05
-3.54194e-05
7.89752e-05
-3.42539e-05
8.98385e-05
-3.25614e-05
0.000100015
-3.04988e-05
0.00010932
-2.7877e-05
0.00011759
-2.47953e-05
0.000124716
-2.13542e-05
0.000130595
-1.76223e-05
0.000135099
-1.35073e-05
0.000138189
-9.28279e-06
0.000139906
-5.14299e-06
0.00014016
-7.55171e-07
0.000139058
3.29326e-06
0.000136736
6.97513e-06
0.000133159
1.07117e-05
0.000128552
1.37889e-05
0.000122815
1.71822e-05
0.000116096
2.01069e-05
0.000108399
2.30677e-05
9.99013e-05
2.5441e-05
9.06e-05
2.78977e-05
8.06653e-05
2.97628e-05
7.01069e-05
3.16786e-05
5.90299e-05
3.31867e-05
4.76208e-05
3.42147e-05
3.58684e-05
3.52456e-05
2.40409e-05
3.54564e-05
1.22263e-05
3.54321e-05
5.31359e-07
3.50638e-05
-1.10496e-05
3.47408e-05
-2.2304e-05
3.37568e-05
-3.31136e-05
3.24255e-05
-4.33802e-05
3.08014e-05
-5.31e-05
2.91573e-05
-6.22245e-05
2.73737e-05
-7.07373e-05
2.55358e-05
-7.86681e-05
2.37895e-05
-8.59808e-05
2.19419e-05
-9.27007e-05
2.01547e-05
-9.88296e-05
1.8386e-05
-0.000104344
1.6552e-05
-0.000109285
1.48123e-05
-0.000113617
1.29855e-05
-0.000117326
1.1109e-05
-0.000120429
9.2897e-06
-0.000122885
7.3463e-06
-0.000124668
5.34892e-06
-0.000125807
3.42991e-06
-0.000126256
1.37502e-06
-0.000125902
-1.02985e-06
-0.000124795
-3.32253e-06
-0.000122893
-5.70839e-06
-0.000120255
-7.91544e-06
-0.000116869
-1.01609e-05
-0.00011267
-1.25953e-05
-0.000107729
-1.48192e-05
-0.000101963
-1.72963e-05
-9.54686e-05
-1.94771e-05
-8.82854e-05
-2.15443e-05
-8.03467e-05
-2.3809e-05
-7.17525e-05
-2.57745e-05
-6.25496e-05
-2.75991e-05
-5.27016e-05
-2.95343e-05
-4.23488e-05
-3.10514e-05
-3.15131e-05
-3.24819e-05
-2.0226e-05
-3.38432e-05
-8.63099e-06
-3.47726e-05
3.26029e-06
-3.56374e-05
1.52822e-05
-3.60446e-05
2.73079e-05
-3.60537e-05
3.92979e-05
-3.59383e-05
5.11533e-05
-3.55307e-05
6.2724e-05
-3.46865e-05
7.38955e-05
-3.34978e-05
8.45502e-05
-3.19385e-05
9.45915e-05
-3.00981e-05
0.000103913
-2.79382e-05
0.000112396
-2.54257e-05
0.000119975
-2.27124e-05
0.000126555
-1.97196e-05
0.000132057
-1.64849e-05
0.000136442
-1.31409e-05
0.000139652
-9.61745e-06
0.000141665
-6.0282e-06
0.000142489
-2.45987e-06
0.000141974
1.49617e-06
0.000140198
5.30253e-06
0.000137158
9.11812e-06
0.000132869
1.28553e-05
0.00012743
1.63011e-05
0.000120818
1.98206e-05
0.000113164
2.29411e-05
0.000104473
2.60508e-05
9.48133e-05
2.89568e-05
8.44006e-05
3.12107e-05
7.32324e-05
3.34756e-05
3.5306e-05
-7.23364e-05
3.70241e-05
-8.06552e-05
3.32549e-05
-8.81174e-05
2.98287e-05
-9.47161e-05
2.63778e-05
-0.000100451
2.29233e-05
-0.00010535
1.95825e-05
-0.000109422
1.62827e-05
-0.000112705
1.31234e-05
-0.000115219
1.00404e-05
-0.00011698
7.06018e-06
-0.000118006
4.18851e-06
-0.000118331
1.39442e-06
-0.000117946
-1.4977e-06
-0.000116859
-4.34837e-06
-0.00011501
-7.40321e-06
-0.000112428
-1.03201e-05
-0.000109171
-1.30088e-05
-0.000105107
-1.6288e-05
-0.000100278
-1.93277e-05
-9.47015e-05
-2.23378e-05
-8.82304e-05
-2.58873e-05
-8.09396e-05
-2.91587e-05
-7.28599e-05
-3.23173e-05
-6.39033e-05
-3.58545e-05
-5.41209e-05
-3.90721e-05
-4.36129e-05
-4.19759e-05
-3.23603e-05
-4.49359e-05
-2.0527e-05
-4.7282e-05
-8.1076e-06
-4.96207e-05
4.84569e-06
-5.16009e-05
1.80781e-05
-5.28771e-05
3.15911e-05
-5.39703e-05
4.52131e-05
-5.44042e-05
5.8862e-05
-5.45216e-05
7.24202e-05
-5.41517e-05
8.56821e-05
-5.29643e-05
9.85811e-05
-5.15246e-05
0.000110992
-4.95697e-05
0.000122745
-4.69519e-05
0.000133771
-4.4031e-05
0.000143965
-4.07096e-05
0.000153246
-3.70621e-05
0.00016153
-3.30617e-05
0.000168704
-2.86418e-05
0.000174734
-2.40632e-05
0.000179552
-1.91639e-05
0.000183041
-1.39133e-05
0.000185253
-8.79691e-06
0.000186062
-3.2983e-06
0.000185521
1.92085e-06
0.000183551
7.72468e-06
0.00018004
1.4093e-05
0.000175019
2.00673e-05
0.000168484
2.60865e-05
0.000160514
3.18213e-05
0.000151211
3.71423e-05
0.000140682
4.20333e-05
0.000129032
4.65065e-05
0.000116458
5.02136e-05
0.00010311
5.33037e-05
8.91961e-05
5.55759e-05
7.48472e-05
5.72995e-05
6.02605e-05
5.82615e-05
4.56216e-05
5.84798e-05
3.10313e-05
5.8292e-05
1.66544e-05
5.74547e-05
2.61398e-06
5.61042e-05
-1.09187e-05
5.40892e-05
-2.38901e-05
5.1861e-05
-3.62859e-05
4.95591e-05
-4.79901e-05
4.68006e-05
-5.89609e-05
4.38745e-05
-6.91499e-05
4.07534e-05
-7.85563e-05
3.76577e-05
-8.70692e-05
3.40767e-05
-9.47561e-05
3.08009e-05
-0.000101542
2.72069e-05
-0.000107492
2.38595e-05
-0.000112624
2.06227e-05
-0.000116915
1.72615e-05
-0.000120424
1.41432e-05
-0.000123163
1.10732e-05
-0.000125081
7.73656e-06
-0.000126282
4.72876e-06
-0.000126687
1.51193e-06
-0.000126269
-1.70173e-06
-0.000125043
-4.96419e-06
-0.000123074
-7.91988e-06
-0.000120437
-1.06258e-05
-0.000117141
-1.32584e-05
-0.000113278
-1.55503e-05
-0.000108864
-1.77384e-05
-0.000104022
-1.94391e-05
-9.8772e-05
-2.10982e-05
-9.31307e-05
-2.26424e-05
-8.7119e-05
-2.40408e-05
-8.06839e-05
-2.58335e-05
-7.37853e-05
-2.76148e-05
-6.63947e-05
-2.95982e-05
-5.85328e-05
-3.14952e-05
-5.01091e-05
-3.37321e-05
-4.10883e-05
-3.60602e-05
-3.14355e-05
-3.8498e-05
-2.1309e-05