/*--------------------------------*- C++ -*----------------------------------*\
| =========                 |                                                 |
| \\      /  F ield         | OpenFOAM: The Open Source CFD Toolbox           |
|  \\    /   O peration     | Version:  3.0.1                                 |
|   \\  /    A nd           | Web:      www.OpenFOAM.org                      |
|    \\/     M anipulation  |                                                 |
\*---------------------------------------------------------------------------*/
FoamFile
{
    version     2.0;
    format      ascii;
    class       volScalarField;
    location    "47";
    object      p;
}
// * * * * * * * * * * * * * * * * * * * * * * * * * * * * * * * * * * * * * //

dimensions      [1 -1 -2 0 0 0 0];

internalField   nonuniform List<scalar> 
21420
(
4042.58
4074.72
4106.19
4136.49
4165.23
4191.85
4215.98
4237.19
4255.16
4269.63
4280.35
4287.16
4289.83
4288.2
4282.44
4272.72
4259.1
4241.77
4221.01
4197.13
4170.48
4141.44
4110.4
4077.81
4044.09
4009.69
3975.01
3940.42
3906.53
3874.3
3842.27
3811.33
3781.75
3753.72
3727.35
3702.75
3679.94
3658.96
3639.8
3622.46
3606.89
3593.06
3580.92
3570.44
3561.57
3554.26
3548.48
3544.2
3541.39
3540.09
3540.29
3541.93
3545.06
3549.71
3555.92
3563.7
3573.1
3584.17
3596.94
3611.44
3627.7
3645.72
3665.51
3687.05
3710.29
3735.17
3761.6
3789.44
3818.56
3848.8
3880.06
3914.97
3947.61
3980.35
4013.01
4045.31
4076.91
4107.45
4136.59
4163.98
4189.26
4212.09
4232.14
4249.11
4262.73
4272.78
4279.07
4281.44
4279.85
4274.3
4264.85
4251.59
4234.7
4214.38
4190.91
4164.57
4135.73
4104.74
4072.03
4038.02
4003.13
3967.83
3932.54
3897.68
3863.65
3830.77
3799.33
3769.58
3741.68
3715.76
3691.88
3670.08
3650.34
3632.63
3616.9
3603.09
3591.12
3580.92
3572.41
3565.52
3560.19
3556.35
3553.93
3552.93
3553.3
3554.96
3557.92
3562.17
3567.69
3574.49
3582.57
3591.97
3602.69
3614.78
3628.28
3643.22
3659.64
3677.59
3697.09
3718.16
3740.8
3765
3790.71
3817.85
3846.33
3875.99
3906.68
3938.19
3970.17
4002.38
4034.47
4066.1
4096.88
4126.41
4154.29
4180.12
4203.52
4224.11
4241.56
4255.56
4265.87
4272.28
4274.6
4272.87
4267.01
4257.13
4243.33
4225.85
4204.96
4181
4154.36
4125.46
4094.74
4062.66
4029.68
3996.24
3962.77
3929.67
3897.26
3865.87
3835.74
3807.08
3780.02
3754.68
3731.12
3709.36
3689.41
3671.27
3654.88
3640.22
3627.23
3615.84
3605.98
3597.59
3590.59
3584.91
3580.51
3577.31
3575.28
3574.39
3574.63
3575.94
3578.33
3581.82
3586.41
3592.15
3599.07
3607.21
3616.62
3627.36
3639.46
3652.98
3667.94
3684.39
3702.34
3721.81
3742.79
3765.25
3789.15
3814.41
3840.93
3868.58
3897.23
3926.68
3956.71
3987.07
4017.47
4047.62
4077.17
4105.78
4133.08
4158.7
4182.26
4203.4
4221.78
4237.08
4249.06
4257.48
4262.21
4263.08
4260.21
4253.55
4243.24
4229.44
4212.4
4192.41
4169.79
4144.91
4118.16
4089.93
4060.61
4030.58
4000.23
3969.87
3939.84
3910.42
3881.84
3854.32
3828.04
3803.13
3779.71
3757.83
3737.53
3718.83
3701.7
3686.11
3672.03
3659.39
3648.14
3638.23
3629.6
3622.21
3615.99
3610.91
3606.92
3603.99
3602.11
3601.25
3601.34
3602.4
3604.42
3607.39
3611.31
3616.2
3622.07
3628.93
3636.84
3645.83
3655.96
3667.28
3679.84
3693.71
3708.93
3725.57
3743.68
3763.29
3784.42
3807.07
3831.17
3856.6
3883.16
3909.54
3937.68
3966.66
3996.05
4025.47
4054.62
4083.13
4110.64
4136.81
4161.29
4183.79
4204
4221.67
4236.58
4248.54
4257.42
4263.13
4265.53
4263.89
4258.99
4250.98
4239.93
4226
4209.44
4190.47
4169.37
4146.44
4121.97
4096.27
4069.67
4042.44
4014.87
3987.22
3959.76
3932.73
3906.39
3881.38
3856.67
3832.6
3809.41
3787.22
3766.1
3746.13
3727.33
3709.74
3693.38
3678.26
3664.42
3651.86
3640.59
3630.64
3622
3614.7
3608.75
3604.14
3600.87
3944.47
3976.63
4008.11
4038.44
4067.19
4093.84
4117.98
4139.21
4157.19
4171.67
4182.4
4189.21
4191.9
4190.26
4184.49
4174.77
4161.13
4143.79
4123.02
4099.12
4072.46
4043.4
4012.33
3979.72
3945.99
3911.58
3876.88
3842.28
3808.37
3776.14
3744.09
3713.15
3683.57
3655.54
3629.17
3604.56
3581.76
3560.78
3541.62
3524.28
3508.71
3494.89
3482.76
3472.28
3463.4
3456.1
3450.32
3446.04
3443.23
3441.94
3442.13
3443.77
3446.9
3451.55
3457.75
3465.53
3474.93
3486
3498.77
3513.27
3529.52
3547.54
3567.34
3588.88
3612.11
3636.99
3663.42
3691.27
3720.4
3750.64
3781.89
3816.84
3849.47
3882.22
3914.9
3947.21
3978.82
4009.38
4038.54
4065.94
4091.24
4114.08
4134.15
4151.13
4164.76
4174.82
4181.12
4183.5
4181.91
4176.34
4166.9
4153.63
4136.72
4116.39
4092.9
4066.55
4037.68
4006.68
3973.95
3939.92
3905.02
3869.69
3834.39
3799.52
3765.47
3732.58
3701.14
3671.39
3643.49
3617.57
3593.69
3571.88
3552.15
3534.44
3518.72
3504.91
3492.95
3482.75
3474.24
3467.36
3462.03
3458.19
3455.77
3454.77
3455.14
3456.8
3459.77
3464.01
3469.53
3476.33
3484.42
3493.81
3504.53
3516.62
3530.12
3545.05
3561.48
3579.42
3598.92
3619.99
3642.63
3666.82
3692.53
3719.68
3748.16
3777.83
3808.52
3840.04
3872.04
3904.26
3936.37
3968.01
3998.8
4028.35
4056.25
4082.1
4105.51
4126.12
4143.59
4157.6
4167.92
4174.33
4176.67
4174.93
4169.07
4159.17
4145.36
4127.87
4106.97
4082.99
4056.33
4027.41
3996.67
3964.57
3931.57
3898.12
3864.63
3831.51
3799.1
3767.7
3737.56
3708.89
3681.84
3656.5
3632.93
3611.18
3591.23
3573.09
3556.71
3542.05
3529.06
3517.67
3507.82
3499.43
3492.43
3486.76
3482.36
3479.16
3477.13
3476.24
3476.48
3477.79
3480.19
3483.67
3488.27
3494
3500.92
3509.05
3518.47
3529.2
3541.3
3554.81
3569.78
3586.22
3604.17
3623.64
3644.62
3667.08
3690.98
3716.24
3742.77
3770.43
3799.08
3828.53
3858.58
3888.95
3919.36
3949.52
3979.09
4007.71
4035.03
4060.66
4084.24
4105.39
4123.79
4139.11
4151.09
4159.52
4164.25
4165.14
4162.25
4155.59
4145.27
4131.46
4114.41
4094.4
4071.76
4046.87
4020.1
3991.85
3962.51
3932.47
3902.1
3871.74
3841.7
3812.26
3783.68
3756.15
3729.87
3704.96
3681.53
3659.66
3639.36
3620.66
3603.53
3587.95
3573.86
3561.23
3549.98
3540.08
3531.45
3524.06
3517.84
3512.77
3508.78
3505.85
3503.97
3503.11
3503.2
3504.26
3506.28
3509.25
3513.17
3518.06
3523.93
3530.79
3538.69
3547.68
3557.81
3569.13
3581.69
3595.55
3610.77
3627.4
3645.51
3665.12
3686.25
3708.9
3733
3758.44
3785.01
3811.38
3839.53
3868.53
3897.93
3927.37
3956.53
3985.05
4012.57
4038.76
4063.25
4085.76
4105.99
4123.67
4138.59
4150.56
4159.45
4165.15
4167.57
4165.92
4161.01
4153
4141.94
4128
4111.43
4092.45
4071.33
4048.38
4023.9
3998.19
3971.57
3944.33
3916.75
3889.1
3861.63
3834.59
3808.24
3783.24
3758.52
3734.46
3711.26
3689.06
3667.95
3647.97
3629.17
3611.58
3595.22
3580.11
3566.27
3553.71
3542.44
3532.48
3523.85
3516.55
3510.6
3505.99
3502.72
3846.36
3878.55
3910.07
3940.43
3969.22
3995.9
4020.08
4041.34
4059.35
4073.86
4084.61
4091.43
4094.14
4092.48
4086.71
4076.97
4063.31
4045.94
4025.14
4001.2
3974.5
3945.41
3914.3
3881.66
3847.89
3813.44
3778.72
3744.09
3710.17
3677.9
3645.85
3614.89
3585.31
3557.27
3530.9
3506.29
3483.49
3462.51
3443.37
3426.03
3410.47
3396.65
3384.52
3374.05
3365.18
3357.88
3352.1
3347.82
3345.02
3343.73
3343.91
3345.55
3348.68
3353.33
3359.53
3367.3
3376.7
3387.76
3400.53
3415.02
3431.27
3449.29
3469.08
3490.62
3513.86
3538.74
3565.18
3593.04
3622.17
3652.42
3683.65
3718.68
3751.31
3784.07
3816.78
3849.12
3880.76
3911.35
3940.53
3967.97
3993.3
4016.18
4036.27
4053.28
4066.93
4077.01
4083.32
4085.72
4084.11
4078.54
4069.09
4055.8
4038.87
4018.51
3994.99
3968.6
3939.7
3908.67
3875.9
3841.82
3806.89
3771.53
3736.19
3701.3
3667.23
3634.32
3602.87
3573.1
3545.2
3519.28
3495.4
3473.6
3453.87
3436.17
3420.46
3406.66
3394.7
3384.51
3376.01
3369.13
3363.81
3359.97
3357.56
3356.57
3356.94
3358.6
3361.56
3365.81
3371.33
3378.13
3386.21
3395.6
3406.32
3418.41
3431.89
3446.82
3463.24
3481.18
3500.67
3521.74
3544.38
3568.58
3594.29
3621.44
3649.93
3679.61
3710.32
3741.86
3773.88
3806.12
3838.25
3869.93
3900.75
3930.34
3958.27
3984.16
4007.61
4028.25
4045.74
4059.78
4070.12
4076.55
4078.9
4077.14
4071.28
4061.37
4047.54
4030.01
4009.08
3985.07
3958.37
3929.41
3898.63
3866.49
3833.45
3799.97
3766.45
3733.31
3700.87
3669.46
3639.31
3610.63
3583.57
3558.23
3534.67
3512.91
3492.98
3474.84
3458.46
3443.81
3430.83
3419.44
3409.6
3401.21
3394.23
3388.56
3384.16
3380.97
3378.94
3378.05
3378.29
3379.61
3382
3385.48
3390.07
3395.81
3402.71
3410.85
3420.26
3430.99
3443.08
3456.59
3471.55
3487.99
3505.93
3525.4
3546.38
3568.85
3592.75
3618.01
3644.54
3672.21
3700.88
3730.35
3760.41
3790.8
3821.24
3851.43
3881.02
3909.68
3937.02
3962.69
3986.3
4007.49
4025.91
4041.26
4053.26
4061.71
4066.45
4067.34
4064.44
4057.77
4047.43
4033.6
4016.52
3996.48
3973.81
3948.88
3922.08
3893.79
3864.42
3834.36
3803.96
3773.57
3743.51
3714.06
3685.46
3657.92
3631.63
3606.72
3583.29
3561.41
3541.12
3522.42
3505.3
3489.72
3475.64
3463.01
3451.77
3441.87
3433.25
3425.86
3419.65
3414.58
3410.6
3407.67
3405.79
3404.93
3405.03
3406.09
3408.11
3411.08
3414.99
3419.88
3425.75
3432.61
3440.5
3449.49
3459.61
3470.93
3483.48
3497.33
3512.55
3529.17
3547.28
3566.89
3588.01
3610.66
3634.77
3660.22
3686.81
3713.17
3741.34
3770.36
3799.79
3829.25
3858.44
3886.98
3914.54
3940.76
3965.28
3987.82
4008.07
4025.77
4040.71
4052.7
4061.59
4067.31
4069.74
4068.06
4063.16
4055.13
4044.05
4030.1
4013.5
3994.49
3973.35
3950.38
3925.87
3900.13
3873.49
3846.23
3818.62
3790.95
3763.47
3736.41
3710.04
3685.06
3660.34
3636.26
3613.06
3590.86
3569.74
3549.76
3530.96
3513.37
3497.01
3481.9
3468.06
3455.5
3444.23
3434.28
3425.64
3418.34
3412.39
3407.78
3404.51
3748.24
3780.48
3812.06
3842.47
3871.32
3898.05
3922.28
3943.59
3961.64
3976.18
3986.96
3993.8
3996.53
3994.88
3989.09
3979.32
3965.62
3948.22
3927.37
3903.38
3876.62
3847.47
3816.31
3783.61
3749.79
3715.29
3680.53
3645.86
3611.91
3579.61
3547.53
3516.56
3486.96
3458.92
3432.55
3407.94
3385.14
3364.17
3345.03
3327.7
3312.15
3298.33
3286.22
3275.75
3266.89
3259.59
3253.82
3249.55
3246.75
3245.46
3245.63
3247.27
3250.4
3255.05
3261.24
3269.01
3278.4
3289.46
3302.21
3316.7
3332.95
3350.96
3370.75
3392.29
3415.53
3440.42
3466.86
3494.73
3523.88
3554.14
3585.35
3620.49
3653.11
3685.9
3718.65
3751.02
3782.71
3813.35
3842.58
3870.07
3895.45
3918.37
3938.51
3955.55
3969.24
3979.35
3985.68
3988.09
3986.47
3980.89
3971.42
3958.11
3941.14
3920.74
3897.17
3870.73
3841.78
3810.69
3777.86
3743.73
3708.74
3673.33
3637.95
3603.02
3568.91
3535.98
3504.5
3474.73
3446.82
3420.89
3397.02
3375.23
3355.51
3337.82
3322.12
3308.33
3296.38
3286.2
3277.71
3270.84
3265.53
3261.69
3259.29
3258.31
3258.68
3260.34
3263.31
3267.55
3273.07
3279.87
3287.95
3297.33
3308.05
3320.13
3333.61
3348.53
3364.94
3382.88
3402.36
3423.42
3446.06
3470.26
3495.98
3523.13
3551.63
3581.33
3612.06
3643.63
3675.68
3707.96
3740.14
3771.86
3802.73
3832.37
3860.36
3886.3
3909.8
3930.49
3948.03
3962.1
3972.47
3978.92
3981.29
3979.51
3973.64
3963.71
3949.85
3932.28
3911.3
3887.23
3860.47
3831.45
3800.61
3768.42
3735.33
3701.79
3668.23
3635.05
3602.59
3571.14
3540.98
3512.29
3485.22
3459.88
3436.32
3414.57
3394.64
3376.51
3360.14
3345.5
3332.53
3321.15
3311.32
3302.94
3295.96
3290.31
3285.91
3282.73
3280.7
3279.82
3280.06
3281.37
3283.77
3287.25
3291.83
3297.56
3304.46
3312.59
3321.99
3332.72
3344.8
3358.3
3373.25
3389.69
3407.63
3427.1
3448.07
3470.54
3494.45
3519.72
3546.26
3573.95
3602.63
3632.12
3662.21
3692.63
3723.11
3753.33
3782.97
3811.68
3839.07
3864.79
3888.45
3909.68
3928.15
3943.54
3955.57
3964.04
3968.79
3969.7
3966.77
3960.09
3949.72
3935.86
3918.74
3898.65
3875.93
3850.95
3824.1
3795.76
3766.35
3736.23
3705.8
3675.37
3645.28
3615.8
3587.18
3559.63
3533.33
3508.41
3484.97
3463.1
3442.81
3424.11
3407
3391.43
3377.36
3364.74
3353.51
3343.61
3335
3327.62
3321.41
3316.35
3312.37
3309.45
3307.58
3306.71
3306.81
3307.87
3309.89
3312.86
3316.78
3321.66
3327.53
3334.38
3342.27
3351.25
3361.36
3372.67
3385.21
3399.06
3414.26
3430.88
3448.98
3468.58
3489.71
3512.36
3536.47
3561.94
3588.56
3614.89
3643.1
3672.15
3701.62
3731.12
3760.35
3788.94
3816.55
3842.81
3867.37
3889.95
3910.24
3927.98
3942.94
3954.95
3963.86
3969.58
3972.03
3970.34
3965.43
3957.38
3946.27
3932.29
3915.66
3896.61
3875.43
3852.42
3827.87
3802.09
3775.41
3748.12
3720.48
3692.78
3665.27
3638.18
3611.79
3586.85
3562.11
3538.01
3514.8
3492.6
3471.48
3451.5
3432.7
3415.11
3398.75
3383.64
3369.79
3357.23
3345.97
3336.01
3327.38
3320.08
3314.13
3309.52
3306.25
3650.11
3682.43
3714.07
3744.55
3773.48
3800.28
3824.58
3845.95
3864.07
3878.65
3889.47
3896.33
3899.08
3897.43
3891.62
3881.81
3868.07
3850.62
3829.7
3805.64
3778.82
3749.59
3718.35
3685.58
3651.68
3617.13
3582.3
3547.59
3513.59
3481.24
3449.14
3418.15
3388.54
3360.49
3334.11
3309.51
3286.71
3265.75
3246.62
3229.3
3213.75
3199.95
3187.84
3177.39
3168.53
3161.24
3155.48
3151.21
3148.42
3147.13
3147.29
3148.93
3152.06
3156.7
3162.89
3170.65
3180.03
3191.08
3203.82
3218.3
3234.54
3252.55
3272.34
3293.88
3317.12
3342.01
3368.47
3396.36
3425.53
3455.8
3487
3522.26
3554.87
3587.7
3620.5
3652.93
3684.68
3715.38
3744.67
3772.23
3797.67
3820.65
3840.85
3857.95
3871.69
3881.83
3888.18
3890.62
3888.99
3883.4
3873.9
3860.55
3843.54
3823.09
3799.45
3772.95
3743.92
3712.75
3679.85
3645.65
3610.58
3575.11
3539.66
3504.68
3470.52
3437.55
3406.05
3376.26
3348.34
3322.41
3298.55
3276.76
3257.05
3239.38
3223.69
3209.92
3197.99
3187.83
3179.35
3172.49
3167.19
3163.36
3160.97
3160
3160.36
3162.04
3165
3169.25
3174.77
3181.56
3189.63
3199.01
3209.72
3221.79
3235.26
3250.18
3266.58
3284.5
3303.98
3325.04
3347.67
3371.87
3397.59
3424.76
3453.27
3483
3513.75
3545.36
3577.45
3609.78
3642.02
3673.8
3704.74
3734.45
3762.51
3788.52
3812.09
3832.85
3850.44
3864.57
3874.97
3881.45
3883.84
3882.05
3876.17
3866.2
3852.3
3834.68
3813.62
3789.48
3762.65
3733.54
3702.62
3670.35
3637.19
3603.59
3569.97
3536.74
3504.23
3472.76
3442.57
3413.87
3386.8
3361.45
3337.89
3316.15
3296.22
3278.1
3261.75
3247.12
3234.16
3222.8
3212.98
3204.62
3197.65
3192
3187.62
3184.44
3182.42
3181.55
3181.79
3183.1
3185.49
3188.97
3193.55
3199.27
3206.17
3214.28
3223.67
3234.39
3246.47
3259.96
3274.9
3291.32
3309.26
3328.72
3349.7
3372.17
3396.08
3421.36
3447.92
3475.62
3504.33
3533.85
3563.98
3594.44
3624.97
3655.25
3684.94
3713.71
3741.17
3766.95
3790.68
3811.98
3830.5
3845.94
3858.02
3866.52
3871.28
3872.2
3869.26
3862.56
3852.15
3838.24
3821.06
3800.92
3778.13
3753.08
3726.16
3697.75
3668.27
3638.1
3607.61
3577.14
3547.01
3517.5
3488.85
3461.27
3434.95
3410.02
3386.59
3364.71
3344.42
3325.74
3308.63
3293.07
3279.01
3266.4
3255.19
3245.3
3236.7
3229.33
3223.13
3218.08
3214.11
3211.19
3209.32
3208.46
3208.56
3209.62
3211.64
3214.61
3218.52
3223.4
3229.26
3236.11
3244
3252.96
3263.07
3274.36
3286.89
3300.72
3315.92
3332.52
3350.61
3370.21
3391.33
3413.98
3438.11
3463.59
3490.25
3516.55
3544.81
3573.92
3603.44
3632.99
3662.27
3690.92
3718.58
3744.91
3769.53
3792.16
3812.5
3830.29
3845.29
3857.33
3866.26
3871.99
3874.44
3872.75
3867.82
3859.74
3848.6
3834.58
3817.9
3798.8
3777.57
3754.5
3729.9
3704.07
3677.34
3650
3622.33
3594.59
3567.04
3539.92
3513.49
3488.6
3463.83
3439.72
3416.49
3394.28
3373.16
3353.18
3334.38
3316.79
3300.43
3285.32
3271.48
3258.92
3247.65
3237.7
3229.06
3221.77
3215.81
3211.2
3207.94
3551.98
3584.38
3616.11
3646.69
3675.7
3702.6
3726.98
3748.44
3766.62
3781.27
3792.13
3799.02
3801.79
3800.15
3794.32
3784.46
3770.66
3753.14
3732.15
3708
3681.08
3651.76
3620.43
3587.56
3553.58
3518.94
3484.05
3449.27
3415.22
3382.81
3350.68
3319.67
3290.04
3261.97
3235.59
3210.99
3188.2
3167.24
3148.12
3130.81
3115.29
3101.5
3089.4
3078.96
3070.12
3062.84
3057.08
3052.82
3050.04
3048.74
3048.9
3050.54
3053.66
3058.3
3064.48
3072.22
3081.59
3092.63
3105.36
3119.83
3136.07
3154.06
3173.85
3195.39
3218.63
3243.54
3270.01
3297.91
3327.11
3357.41
3388.6
3423.98
3456.6
3489.48
3522.34
3554.84
3586.66
3617.44
3646.81
3674.45
3699.97
3723.04
3743.31
3760.48
3774.27
3784.46
3790.84
3793.29
3791.67
3786.07
3776.53
3763.13
3746.06
3725.54
3701.83
3675.24
3646.12
3614.86
3581.86
3547.56
3512.41
3476.85
3441.32
3406.27
3372.06
3339.04
3307.51
3277.7
3249.77
3223.84
3199.98
3178.21
3158.51
3140.86
3125.19
3111.44
3099.53
3089.38
3080.92
3074.08
3068.79
3064.98
3062.6
3061.63
3062
3063.68
3066.65
3070.89
3076.41
3083.2
3091.27
3100.64
3111.34
3123.4
3136.86
3151.76
3168.15
3186.06
3205.53
3226.58
3249.21
3273.41
3299.13
3326.31
3354.85
3384.6
3415.38
3447.04
3479.19
3511.58
3543.89
3575.75
3606.78
3636.57
3664.72
3690.82
3714.48
3735.32
3752.99
3767.18
3777.63
3784.14
3786.55
3784.76
3778.85
3768.85
3754.89
3737.19
3716.06
3691.82
3664.89
3635.69
3604.67
3572.3
3539.05
3505.36
3471.67
3438.38
3405.82
3374.31
3344.09
3315.37
3288.28
3262.93
3239.38
3217.64
3197.73
3179.62
3163.29
3148.67
3135.73
3124.39
3114.58
3106.24
3099.28
3093.65
3089.27
3086.11
3084.1
3083.23
3083.47
3084.79
3087.18
3090.65
3095.22
3100.93
3107.82
3115.92
3125.3
3136
3148.07
3161.55
3176.48
3192.89
3210.82
3230.28
3251.26
3273.73
3297.65
3322.94
3349.51
3377.24
3405.97
3435.54
3465.71
3496.23
3526.82
3557.16
3586.93
3615.77
3643.32
3669.18
3692.99
3714.37
3732.97
3748.47
3760.6
3769.14
3773.92
3774.85
3771.9
3765.17
3754.72
3740.74
3723.5
3703.27
3680.4
3655.27
3628.25
3599.77
3570.21
3539.96
3509.41
3478.88
3448.7
3419.14
3390.45
3362.85
3336.51
3311.57
3288.13
3266.25
3245.97
3227.29
3210.2
3194.65
3180.61
3168.01
3156.81
3146.94
3138.35
3130.99
3124.81
3119.76
3115.8
3112.89
3111.03
3110.16
3110.27
3111.33
3113.35
3116.32
3120.23
3125.11
3130.96
3137.8
3145.67
3154.63
3164.72
3176
3188.52
3202.33
3217.51
3234.1
3252.17
3271.76
3292.88
3315.54
3339.67
3365.19
3391.89
3418.16
3446.48
3475.65
3505.23
3534.85
3564.2
3592.92
3620.66
3647.05
3671.75
3694.45
3714.86
3732.69
3747.75
3759.82
3768.78
3774.52
3776.98
3775.29
3770.34
3762.22
3751.04
3736.96
3720.23
3701.07
3679.77
3656.63
3631.96
3606.07
3579.28
3551.89
3524.16
3496.37
3468.78
3441.62
3415.15
3390.31
3365.51
3341.38
3318.14
3295.92
3274.79
3254.81
3236.01
3218.42
3202.06
3186.95
3173.11
3160.55
3149.28
3139.33
3130.69
3123.4
3117.44
3112.83
3109.57
3453.84
3486.34
3518.18
3548.87
3577.99
3605
3629.49
3651.04
3669.31
3684.02
3694.94
3701.87
3704.66
3703.03
3697.17
3687.26
3673.39
3655.79
3634.7
3610.45
3583.42
3553.98
3522.54
3489.56
3455.48
3420.74
3385.76
3350.91
3316.8
3284.31
3252.14
3221.1
3191.45
3163.37
3136.99
3112.39
3089.6
3068.66
3049.55
3032.26
3016.75
3002.97
2990.9
2980.47
2971.64
2964.37
2958.62
2954.37
2951.59
2950.29
2950.45
2952.09
2955.2
2959.83
2966
2973.74
2983.09
2994.11
3006.83
3021.29
3037.51
3055.5
3075.28
3096.82
3120.07
3144.98
3171.48
3199.4
3228.63
3258.97
3290.17
3325.64
3358.29
3391.23
3424.17
3456.75
3488.66
3519.53
3549
3576.74
3602.36
3625.52
3645.88
3663.13
3676.99
3687.24
3693.66
3696.12
3694.51
3688.88
3679.3
3665.85
3648.71
3628.11
3604.3
3577.6
3548.38
3517
3483.9
3449.49
3414.22
3378.56
3342.94
3307.81
3273.53
3240.46
3208.89
3179.04
3151.1
3125.17
3101.32
3079.56
3059.89
3042.26
3026.61
3012.88
3000.99
2990.87
2982.43
2975.61
2970.33
2966.53
2964.17
2963.2
2963.58
2965.27
2968.24
2972.49
2978
2984.78
2992.85
3002.21
3012.9
3024.95
3038.39
3053.28
3069.65
3087.55
3107.01
3128.05
3150.68
3174.87
3200.61
3227.8
3256.36
3286.14
3316.97
3348.68
3380.89
3413.36
3445.75
3477.71
3508.84
3538.73
3566.99
3593.2
3616.97
3637.9
3655.66
3669.93
3680.44
3686.98
3689.41
3687.64
3681.7
3671.64
3657.61
3639.84
3618.6
3594.25
3567.2
3537.88
3506.74
3474.26
3440.89
3407.11
3373.33
3339.96
3307.34
3275.78
3245.53
3216.79
3189.69
3164.34
3140.79
3119.06
3099.16
3081.07
3064.75
3050.15
3037.23
3025.91
3016.12
3007.8
3000.86
2995.25
2990.88
2987.73
2985.73
2984.87
2985.11
2986.43
2988.82
2992.28
2996.85
3002.55
3009.42
3017.51
3026.88
3037.56
3049.62
3063.08
3078
3094.4
3112.32
3131.77
3152.74
3175.22
3199.15
3224.46
3251.05
3278.8
3307.57
3337.18
3367.41
3397.99
3428.65
3459.08
3488.94
3517.87
3545.51
3571.48
3595.39
3616.86
3635.55
3651.13
3663.32
3671.91
3676.72
3677.65
3674.69
3667.92
3657.41
3643.37
3626.04
3605.72
3582.75
3557.51
3530.39
3501.8
3472.15
3441.82
3411.18
3380.58
3350.34
3320.73
3292
3264.37
3238
3213.05
3189.6
3167.72
3147.44
3128.78
3111.7
3096.17
3082.15
3069.57
3058.38
3048.53
3039.95
3032.61
3026.44
3021.4
3017.45
3014.55
3012.69
3011.83
3011.94
3013.01
3015.03
3017.99
3021.9
3026.77
3032.61
3039.45
3047.31
3056.25
3066.33
3077.59
3090.09
3103.88
3119.04
3135.62
3153.67
3173.25
3194.36
3217.02
3241.17
3266.73
3293.49
3319.7
3348.1
3377.34
3407
3436.69
3466.13
3494.94
3522.76
3549.25
3574.03
3596.82
3617.3
3635.21
3650.31
3662.43
3671.42
3677.18
3679.64
3677.95
3672.97
3664.81
3653.58
3639.45
3622.64
3603.41
3582.03
3558.81
3534.06
3508.09
3481.23
3453.76
3425.97
3398.13
3370.48
3343.27
3316.75
3291.99
3267.15
3242.98
3219.72
3197.5
3176.36
3156.38
3137.58
3119.99
3103.63
3088.52
3074.68
3062.12
3050.86
3040.9
3032.27
3024.97
3019.02
3014.41
3011.15
3355.7
3388.31
3420.28
3451.09
3480.35
3507.48
3532.09
3553.75
3572.12
3586.92
3597.91
3604.88
3607.69
3606.06
3600.18
3590.21
3576.26
3558.56
3537.37
3512.99
3485.84
3456.26
3424.69
3391.58
3357.37
3322.52
3287.44
3252.51
3218.32
3185.75
3153.54
3122.45
3092.78
3064.69
3038.3
3013.7
2990.92
2969.99
2950.9
2933.63
2918.13
2904.38
2892.32
2881.91
2873.09
2865.84
2860.11
2855.86
2853.09
2851.79
2851.95
2853.58
2856.69
2861.31
2867.46
2875.18
2884.52
2895.53
2908.23
2922.67
2938.88
2956.86
2976.63
2998.17
3021.43
3046.36
3072.87
3100.82
3130.09
3160.46
3191.7
3227.23
3259.93
3292.95
3325.99
3358.67
3390.68
3421.66
3451.24
3479.09
3504.82
3528.09
3548.56
3565.9
3579.85
3590.16
3596.62
3599.12
3597.5
3591.85
3582.22
3568.71
3551.49
3530.78
3506.86
3480.05
3450.7
3419.19
3385.95
3351.41
3316.02
3280.24
3244.51
3209.28
3174.92
3141.79
3110.17
3080.3
3052.34
3026.41
3002.57
2980.83
2961.17
2943.57
2927.95
2914.25
2902.39
2892.29
2883.87
2877.07
2871.81
2868.03
2865.69
2864.73
2865.12
2866.81
2869.78
2874.03
2879.54
2886.32
2894.38
2903.73
2914.4
2926.43
2939.86
2954.73
2971.09
2988.97
3008.42
3029.45
3052.07
3076.27
3102.01
3129.22
3157.8
3187.62
3218.49
3250.28
3282.57
3315.12
3347.61
3379.68
3410.92
3440.94
3469.33
3495.67
3519.55
3540.6
3558.47
3572.82
3583.4
3589.99
3592.44
3590.67
3584.7
3574.59
3560.48
3542.6
3521.25
3496.77
3469.58
3440.12
3408.84
3376.22
3342.73
3308.83
3274.95
3241.5
3208.8
3177.18
3146.89
3118.12
3091.01
3065.66
3042.11
3020.4
3000.51
2982.44
2966.14
2951.57
2938.66
2927.37
2917.61
2909.3
2902.39
2896.79
2892.45
2889.3
2887.32
2886.46
2886.71
2888.03
2890.41
2893.88
2898.43
2904.12
2910.97
2919.05
2928.4
2939.07
2951.1
2964.55
2979.45
2995.84
3013.75
3033.19
3054.16
3076.64
3100.58
3125.91
3152.52
3180.31
3209.12
3238.78
3269.08
3299.74
3330.48
3361
3390.96
3420
3447.76
3473.84
3497.87
3519.45
3538.25
3553.92
3566.18
3574.82
3579.66
3580.61
3577.63
3570.81
3560.24
3546.12
3528.69
3508.26
3485.17
3459.81
3432.57
3403.86
3374.1
3343.66
3312.93
3282.25
3251.94
3222.27
3193.49
3165.82
3139.43
3114.45
3090.99
3069.12
3048.85
3030.19
3013.13
2997.62
2983.62
2971.06
2959.9
2950.06
2941.51
2934.18
2928.02
2922.99
2919.06
2916.17
2914.32
2913.46
2913.58
2914.64
2916.66
2919.63
2923.53
2928.4
2934.23
2941.05
2948.9
2957.82
2967.89
2979.13
2991.6
3005.38
3020.51
3037.06
3055.1
3074.66
3095.78
3118.44
3142.6
3168.2
3195.03
3221.17
3249.67
3279
3308.74
3338.53
3368.07
3396.97
3424.91
3451.5
3476.38
3499.26
3519.84
3537.82
3552.99
3565.17
3574.19
3579.96
3582.43
3580.73
3575.73
3567.53
3556.24
3542.03
3525.15
3505.82
3484.34
3461.03
3436.19
3410.13
3383.18
3355.64
3327.78
3299.87
3272.16
3244.89
3218.3
3193.63
3168.74
3144.54
3121.26
3099.02
3077.88
3057.9
3039.09
3021.5
3005.15
2990.04
2976.2
2963.64
2952.38
2942.43
2933.79
2926.5
2920.54
2915.94
2912.67
3257.54
3290.29
3322.4
3353.36
3382.77
3410.04
3434.79
3456.59
3475.07
3489.97
3501.03
3508.05
3510.89
3509.26
3503.34
3493.3
3479.27
3461.46
3440.14
3415.63
3388.32
3358.6
3326.87
3293.61
3259.26
3224.28
3189.09
3154.06
3119.78
3087.12
3054.85
3023.73
2994.03
2965.92
2939.53
2914.93
2892.16
2871.24
2852.17
2834.92
2819.45
2805.72
2793.68
2783.28
2774.49
2767.25
2761.53
2757.29
2754.53
2753.23
2753.38
2755.01
2758.11
2762.72
2768.86
2776.56
2785.88
2796.87
2809.56
2823.98
2840.17
2858.14
2877.91
2899.45
2922.71
2947.65
2974.18
3002.17
3031.48
3061.91
3093.2
3128.75
3161.54
3194.65
3227.79
3260.58
3292.71
3323.81
3353.53
3381.5
3407.37
3430.77
3451.35
3468.81
3482.85
3493.23
3499.74
3502.27
3500.65
3494.97
3485.29
3471.7
3454.39
3433.57
3409.53
3382.57
3353.08
3321.42
3288.03
3253.34
3217.8
3181.88
3146.02
3110.7
3076.24
3043.03
3011.36
2981.46
2953.49
2927.55
2903.72
2882
2862.37
2844.79
2829.21
2815.54
2803.71
2793.64
2785.25
2778.47
2773.24
2769.48
2767.15
2766.2
2766.6
2768.3
2771.28
2775.52
2781.03
2787.8
2795.85
2805.19
2815.85
2827.87
2841.28
2856.13
2872.46
2890.33
2909.76
2930.77
2953.39
2977.59
3003.34
3030.57
3059.18
3089.04
3119.97
3151.84
3184.2
3216.86
3249.47
3281.66
3313.04
3343.2
3371.73
3398.21
3422.24
3443.42
3461.4
3475.86
3486.52
3493.16
3495.64
3493.87
3487.86
3477.69
3463.49
3445.49
3424
3399.38
3372.03
3342.4
3310.97
3278.19
3244.56
3210.52
3176.52
3142.97
3110.2
3078.51
3048.18
3019.38
2992.25
2966.89
2943.35
2921.65
2901.78
2883.73
2867.45
2852.91
2840.03
2828.76
2819.03
2810.75
2803.86
2798.29
2793.96
2790.83
2788.86
2788.01
2788.26
2789.58
2791.97
2795.42
2799.97
2805.64
2812.48
2820.53
2829.86
2840.51
2852.53
2865.96
2880.84
2897.21
2915.11
2934.54
2955.51
2978
3001.95
3027.29
3053.93
3081.76
3110.62
3140.34
3170.71
3201.45
3232.29
3262.92
3293
3322.16
3350.05
3376.27
3400.43
3422.15
3441.06
3456.83
3469.18
3477.88
3482.76
3483.71
3480.72
3473.85
3463.21
3448.99
3431.45
3410.89
3387.67
3362.17
3334.79
3305.95
3276.05
3245.5
3214.66
3183.88
3153.49
3123.75
3094.92
3067.2
3040.78
3015.79
2992.32
2970.44
2950.18
2931.54
2914.5
2899.01
2885.03
2872.5
2861.36
2851.54
2843.01
2835.7
2829.56
2824.55
2820.62
2817.75
2815.9
2815.06
2815.17
2816.24
2818.26
2821.22
2825.12
2829.98
2835.8
2842.61
2850.45
2859.35
2869.39
2880.61
2893.06
2906.81
2921.92
2938.45
2956.47
2976.01
2997.12
3019.78
3043.96
3069.61
3096.52
3122.58
3151.2
3180.63
3210.47
3240.36
3270
3299.03
3327.08
3353.79
3378.79
3401.79
3422.46
3440.54
3455.79
3468.02
3477.08
3482.88
3485.35
3483.65
3478.62
3470.36
3459
3444.71
3427.73
3408.3
3386.72
3363.3
3338.35
3312.18
3285.14
3257.51
3229.56
3201.58
3173.8
3146.46
3119.79
3095.23
3070.29
3046.05
3022.74
3000.49
2979.35
2959.36
2940.56
2922.97
2906.61
2891.51
2877.67
2865.11
2853.85
2843.89
2835.26
2827.96
2822.01
2817.41
2814.14
3159.38
3192.28
3224.55
3255.68
3285.25
3312.69
3337.6
3359.54
3378.15
3393.16
3404.31
3411.38
3414.25
3412.62
3406.66
3396.55
3382.42
3364.49
3343.02
3318.35
3290.88
3260.98
3229.08
3195.65
3161.15
3126.02
3090.7
3055.57
3021.18
2988.42
2956.1
2924.93
2895.19
2867.07
2840.67
2816.07
2793.31
2772.41
2753.36
2736.13
2720.69
2706.98
2694.97
2684.59
2675.82
2668.6
2662.89
2658.67
2655.91
2654.61
2654.76
2656.38
2659.48
2664.07
2670.2
2677.88
2687.18
2698.15
2710.81
2725.22
2741.39
2759.35
2779.11
2800.64
2823.91
2848.87
2875.43
2903.45
2932.81
2963.3
2994.65
3030.22
3063.1
3096.32
3129.58
3162.49
3194.75
3226
3255.86
3283.98
3310
3333.54
3354.26
3371.84
3385.99
3396.45
3403.02
3405.57
3403.96
3398.25
3388.51
3374.84
3357.42
3336.47
3312.29
3285.18
3255.51
3223.69
3190.13
3155.27
3119.57
3083.49
3047.49
3012.04
2977.48
2944.19
2912.46
2882.52
2854.53
2828.6
2804.78
2783.08
2763.48
2745.93
2730.38
2716.75
2704.96
2694.92
2686.56
2679.81
2674.6
2670.87
2668.55
2667.62
2668.03
2669.74
2672.72
2676.96
2682.47
2689.24
2697.27
2706.6
2717.24
2729.24
2742.63
2757.46
2773.77
2791.61
2811.02
2832.03
2854.63
2878.83
2904.59
2931.84
2960.49
2990.4
3021.38
3053.35
3085.81
3118.58
3151.31
3183.64
3215.17
3245.5
3274.19
3300.84
3325.02
3346.35
3364.47
3379.04
3389.79
3396.5
3399.01
3397.23
3391.19
3380.94
3366.64
3348.51
3326.87
3302.08
3274.55
3244.74
3213.12
3180.17
3146.37
3112.19
3078.05
3044.4
3011.52
2979.77
2949.38
2920.55
2893.41
2868.05
2844.51
2822.82
2802.98
2784.95
2768.7
2754.18
2741.33
2730.1
2720.39
2712.15
2705.29
2699.73
2695.43
2692.32
2690.35
2689.52
2689.77
2691.1
2693.48
2696.93
2701.46
2707.11
2713.93
2721.97
2731.27
2741.9
2753.9
2767.3
2782.16
2798.52
2816.4
2835.83
2856.8
2879.28
2903.25
2928.61
2955.28
2983.15
3012.07
3041.85
3072.31
3103.15
3134.1
3164.84
3195.05
3224.36
3252.39
3278.76
3303.07
3324.94
3343.98
3359.87
3372.32
3381.09
3386.01
3386.97
3383.96
3377.04
3366.31
3351.99
3334.32
3313.62
3290.24
3264.58
3237.04
3208.05
3178.01
3147.32
3116.36
3085.48
3055
3025.18
2996.29
2968.52
2942.06
2917.05
2893.57
2871.69
2851.44
2832.82
2815.8
2800.34
2786.39
2773.88
2762.76
2752.97
2744.46
2737.17
2731.05
2726.06
2722.15
2719.29
2717.45
2716.61
2716.73
2717.81
2719.83
2722.78
2726.67
2731.53
2737.34
2744.13
2751.95
2760.84
2770.85
2782.05
2794.47
2808.18
2823.26
2839.77
2857.76
2877.29
2898.39
2921.05
2945.26
2970.95
2997.96
3023.92
3052.68
3082.22
3112.17
3142.17
3171.95
3201.1
3229.29
3256.14
3281.27
3304.39
3325.18
3343.36
3358.69
3370.99
3380.1
3385.92
3388.4
3386.69
3381.62
3373.3
3361.87
3347.49
3330.4
3310.86
3289.16
3265.61
3240.54
3214.26
3187.1
3159.37
3131.33
3103.27
3075.41
3047.99
3021.24
2996.8
2971.79
2947.5
2924.17
2901.91
2880.76
2860.77
2841.96
2824.37
2808.02
2792.92
2779.08
2766.52
2755.26
2745.31
2736.68
2729.38
2723.43
2718.82
2715.56
3061.21
3094.27
3126.73
3158.04
3187.8
3215.42
3240.5
3262.6
3281.37
3296.5
3307.74
3314.88
3317.78
3316.14
3310.14
3299.95
3285.71
3267.64
3246.02
3221.17
3193.51
3163.42
3131.33
3097.72
3063.03
3027.74
2992.27
2957.02
2922.53
2889.66
2857.26
2826.04
2796.27
2768.13
2741.72
2717.13
2694.38
2673.5
2654.47
2637.27
2621.85
2608.17
2596.19
2585.84
2577.09
2569.88
2564.19
2559.98
2557.23
2555.94
2556.08
2557.7
2560.78
2565.36
2571.47
2579.13
2588.41
2599.35
2611.99
2626.37
2642.53
2660.47
2680.22
2701.76
2725.03
2750.01
2776.59
2804.66
2834.07
2864.64
2896.07
2931.63
2964.62
2997.96
3031.35
3064.41
3096.81
3128.22
3158.24
3186.52
3212.71
3236.41
3257.28
3275
3289.26
3299.81
3306.45
3309.04
3307.43
3301.68
3291.88
3278.11
3260.57
3239.49
3215.14
3187.86
3158.01
3126
3092.25
3057.2
3021.32
2985.07
2948.91
2913.32
2878.65
2845.27
2813.47
2783.49
2755.48
2729.55
2705.74
2684.06
2664.5
2646.99
2631.48
2617.89
2606.14
2596.14
2587.81
2581.09
2575.91
2572.2
2569.91
2568.99
2569.41
2571.12
2574.11
2578.36
2583.86
2590.62
2598.64