/*--------------------------------*- C++ -*----------------------------------*\
| =========                 |                                                 |
| \\      /  F ield         | OpenFOAM: The Open Source CFD Toolbox           |
|  \\    /   O peration     | Version:  3.0.1                                 |
|   \\  /    A nd           | Web:      www.OpenFOAM.org                      |
|    \\/     M anipulation  |                                                 |
\*---------------------------------------------------------------------------*/
FoamFile
{
    version     2.0;
    format      ascii;
    class       volScalarField;
    location    "74";
    object      p;
}
// * * * * * * * * * * * * * * * * * * * * * * * * * * * * * * * * * * * * * //

dimensions      [1 -1 -2 0 0 0 0];

internalField   nonuniform List<scalar> 
21420
(
3645.48
3627.19
3610.56
3595.63
3582.37
3570.76
3560.76
3552.33
3545.43
3540.04
3536.11
3533.64
3532.59
3532.89
3534.58
3537.73
3542.34
3548.43
3556.04
3565.24
3576.05
3588.53
3602.73
3618.7
3636.48
3656.1
3677.54
3700.82
3725.9
3752.68
3781.09
3811.03
3842.35
3874.95
3908.29
3942.17
3976.33
4010.35
4043.85
4076.44
4107.69
4137.19
4164.51
4189.27
4211.12
4229.76
4244.9
4256.34
4263.92
4267.54
4267.09
4262.64
4254.23
4241.89
4225.87
4206.42
4183.78
4158.26
4130.25
4100.11
4068.25
4035.08
4001.02
3966.51
3932
3897.92
3865.16
3833.12
3801.97
3771.84
3743.08
3715.87
3690.33
3666.58
3644.65
3624.57
3606.38
3590.06
3575.62
3563.01
3552.23
3543.25
3536.02
3530.51
3526.7
3524.59
3523.92
3524.79
3527.19
3531.07
3536.39
3543.14
3551.29
3560.85
3571.84
3584.26
3598.16
3613.55
3630.47
3648.96
3669.03
3690.68
3713.92
3738.69
3764.94
3792.59
3821.5
3851.54
3882.56
3914.22
3946.31
3978.55
4010.64
4042.24
4072.99
4102.52
4130.42
4156.33
4179.84
4200.6
4218.26
4232.51
4243.09
4249.79
4252.41
4250.94
4245.37
4235.77
4222.21
4204.93
4184.17
4160.25
4133.53
4104.4
4073.28
4040.62
4006.86
3972.44
3937.8
3903.37
3869.53
3836.61
3804.92
3774.71
3746.19
3719.51
3694.77
3672.01
3651.26
3632.5
3615.68
3600.75
3587.62
3576.21
3566.45
3558.23
3551.49
3546.15
3542.13
3539.37
3537.85
3537.56
3538.41
3540.44
3543.65
3548.05
3553.66
3560.53
3568.67
3578.14
3588.98
3601.23
3614.93
3630.12
3646.85
3665.14
3685.03
3706.53
3729.62
3754.27
3780.42
3807.99
3836.85
3866.86
3898.13
3929.76
3961.8
3993.93
4025.79
4057
4087.14
4115.8
4142.55
4166.96
4188.63
4207.19
4222.31
4233.69
4241.12
4244.4
4243.51
4238.44
4229.27
4216.1
4199.19
4178.8
4155.27
4129
4100.4
4069.94
4038.06
4005.24
3971.93
3938.56
3905.53
3873.21
3841.87
3811.78
3783.14
3756.08
3730.7
3707.07
3685.21
3665.13
3646.8
3630.19
3615.27
3601.99
3590.3
3580.16
3571.51
3564.3
3558.48
3553.98
3550.74
3548.73
3547.9
3548.21
3549.63
3552.17
3555.85
3560.67
3566.67
3573.89
3582.37
3592.15
3603.27
3615.76
3629.66
3645.01
3661.82
3680.11
3699.89
3721.17
3743.94
3768.14
3793.74
3820.63
3848.71
3877.81
3907.78
3938.41
3969.3
4000.22
4030.83
4060.78
4089.68
4117.13
4142.73
4166.07
4186.77
4204.46
4218.81
4229.53
4236.38
4239.21
4237.86
4232.41
4222.87
4209.34
4192.09
4171.44
4147.73
4121.36
4092.81
4062.51
4030.92
3998.52
3965.78
3933.13
3900.95
3870.4
3840.65
3811.98
3784.69
3758.99
3735.01
3712.84
3692.5
3673.97
3657.22
3642.18
3628.76
3616.86
3606.37
3597.18
3589.17
3582.23
3576.28
3571.25
3567.08
3563.75
3561.3
3559.75
3559.21
3559.76
3561.49
3564.57
3569.12
3575.24
3583.06
3592.68
3604.18
3617.6
3632.99
3650.32
3669.59
3690.73
3713.65
3738.24
3764.36
3791.88
3820.66
3850.87
3885.42
3916.69
3947.64
3978.19
4008.12
4037.09
4064.77
4090.86
4115.04
4137.02
4156.54
4173.35
4187.3
4198.21
4206.02
4210.74
4212.5
4211.17
4206.58
4198.8
4187.95
4174.22
4157.78
3547.3
3529.01
3512.39
3497.46
3484.21
3472.6
3462.6
3454.17
3447.27
3441.88
3437.95
3435.48
3434.43
3434.73
3436.43
3439.57
3444.18
3450.26
3457.88
3467.07
3477.88
3490.36
3504.55
3520.53
3538.3
3557.92
3579.36
3602.64
3627.72
3654.5
3682.91
3712.85
3744.18
3776.78
3810.14
3844.03
3878.2
3912.25
3945.76
3978.37
4009.64
4039.15
4066.49
4091.27
4113.14
4131.79
4146.94
4158.39
4165.98
4169.61
4169.15
4164.69
4156.27
4143.93
4127.9
4108.44
4085.77
4060.24
4032.21
4002.05
3970.17
3936.98
3902.9
3868.38
3833.86
3799.76
3767
3734.96
3703.8
3673.67
3644.9
3617.68
3592.15
3568.39
3546.46
3526.39
3508.19
3491.89
3477.45
3464.84
3454.06
3445.08
3437.85
3432.34
3428.54
3426.43
3425.76
3426.63
3429.03
3432.91
3438.23
3444.98
3453.13
3462.69
3473.67
3486.1
3499.99
3515.38
3532.3
3550.79
3570.85
3592.51
3615.74
3640.51
3666.77
3694.41
3723.33
3753.38
3784.41
3816.08
3848.17
3880.43
3912.54
3944.15
3974.92
4004.46
4032.38
4058.3
4081.83
4102.61
4120.28
4134.54
4145.13
4151.84
4154.47
4153
4147.43
4137.82
4124.25
4106.95
4086.17
4062.24
4035.5
4006.35
3975.21
3942.53
3908.75
3874.31
3839.66
3805.21
3771.36
3738.43
3706.73
3676.52
3648
3621.32
3596.57
3573.82
3553.07
3534.31
3517.5
3502.57
3489.44
3478.04
3468.28
3460.07
3453.33
3447.99
3443.98
3441.22
3439.7
3439.4
3440.26
3442.29
3445.5
3449.9
3455.51
3462.37
3470.51
3479.98
3490.82
3503.07
3516.76
3531.95
3548.68
3566.97
3586.86
3608.35
3631.44
3656.09
3682.25
3709.82
3738.69
3768.7
3799.98
3831.62
3863.67
3895.81
3927.69
3958.92
3989.08
4017.75
4044.52
4068.95
4090.64
4109.22
4124.35
4135.74
4143.18
4146.47
4145.57
4140.5
4131.32
4118.14
4101.21
4080.8
4057.26
4030.97
4002.35
3971.86
3939.97
3907.13
3873.8
3840.42
3807.38
3775.04
3743.7
3713.6
3684.95
3657.89
3632.52
3608.89
3587.03
3566.95
3548.62
3532.02
3517.1
3503.82
3492.14
3482
3473.35
3466.14
3460.32
3455.82
3452.59
3450.58
3449.76
3450.06
3451.48
3454.02
3457.7
3462.52
3468.52
3475.74
3484.21
3493.99
3505.11
3517.6
3531.5
3546.84
3563.65
3581.94
3601.72
3623.01
3645.77
3669.98
3695.57
3722.47
3750.55
3779.66
3809.63
3840.27
3871.18
3902.11
3932.74
3962.7
3991.62
4019.08
4044.7
4068.06
4088.78
4106.49
4120.85
4131.58
4138.44
4141.27
4139.93
4134.47
4124.92
4111.38
4094.12
4073.46
4049.73
4023.34
3994.77
3964.44
3932.83
3900.41
3867.66
3834.99
3802.8
3772.24
3742.48
3713.81
3686.51
3660.81
3636.83
3614.66
3594.32
3575.8
3559.05
3544.01
3530.6
3518.7
3508.22
3499.03
3491.03
3484.1
3478.15
3473.11
3468.94
3465.62
3463.16
3461.61
3461.07
3461.61
3463.34
3466.42
3470.96
3477.08
3484.89
3494.51
3506
3519.42
3534.8
3552.14
3571.41
3592.55
3615.47
3640.06
3666.2
3693.71
3722.5
3752.71
3787.29
3818.57
3849.53
3880.09
3910.04
3939.02
3966.71
3992.82
4017.01
4039.01
4058.54
4075.36
4089.31
4100.24
4108.05
4112.77
4114.53
4113.19
4108.6
4100.81
4089.96
4076.22
4059.77
3449.05
3430.76
3414.15
3399.22
3385.97
3374.37
3364.37
3355.95
3349.06
3343.67
3339.74
3337.27
3336.21
3336.51
3338.21
3341.35
3345.96
3352.04
3359.65
3368.84
3379.64
3392.11
3406.3
3422.27
3440.04
3459.65
3481.1
3504.37
3529.45
3556.24
3584.65
3614.6
3645.94
3678.56
3711.93
3745.86
3780.05
3814.13
3847.68
3880.32
3911.62
3941.18
3968.56
3993.36
4015.27
4033.94
4049.12
4060.58
4068.19
4071.82
4071.38
4066.9
4058.46
4046.11
4030.05
4010.56
3987.87
3962.3
3934.23
3904.04
3872.12
3838.89
3804.78
3770.22
3735.66
3701.55
3668.79
3636.74
3605.56
3575.41
3546.64
3519.42
3493.88
3470.12
3448.2
3428.12
3409.93
3393.63
3379.19
3366.59
3355.81
3346.84
3339.61
3334.1
3330.3
3328.22
3327.53
3328.41
3330.81
3334.69
3340.02
3346.76
3354.92
3364.47
3375.45
3387.87
3401.76
3417.14
3434.06
3452.54
3472.6
3494.26
3517.49
3542.27
3568.52
3596.18
3625.1
3655.17
3686.21
3717.89
3750.01
3782.29
3814.42
3846.07
3876.86
3906.44
3934.4
3960.35
3983.92
4004.73
4022.43
4036.72
4047.33
4054.05
4056.7
4055.21
4049.63
4040.01
4026.42
4009.1
3988.29
3964.32
3937.54
3908.35
3877.18
3844.46
3810.64
3776.17
3741.48
3707
3673.13
3640.18
3608.47
3578.24
3549.72
3523.03
3498.29
3475.54
3454.8
3436.04
3419.24
3404.31
3391.2
3379.8
3370.05
3361.85
3355.12
3349.78
3345.77
3343.02
3341.51
3341.21
3342.07
3344.1
3347.3
3351.7
3357.31
3364.16
3372.3
3381.77
3392.6
3404.84
3418.53
3433.72
3450.44
3468.72
3488.61
3510.1
3533.19
3557.84
3584
3611.58
3640.46
3670.48
3701.78
3733.44
3765.51
3797.68
3829.59
3860.85
3891.05
3919.76
3946.57
3971.03
3992.76
4011.37
4026.53
4037.95
4045.4
4048.7
4047.79
4042.71
4033.52
4020.32
4003.36
3982.92
3959.34
3933.01
3904.35
3873.82
3841.89
3809.01
3775.65
3742.23
3709.17
3676.81
3645.46
3615.35
3586.69
3559.62
3534.25
3510.62
3488.77
3468.69
3450.37
3433.77
3418.86
3405.59
3393.91
3383.77
3375.13
3367.93
3362.11
3357.62
3354.39
3352.38
3351.56
3351.87
3353.29
3355.83
3359.5
3364.32
3370.32
3377.53
3386.01
3395.78
3406.89
3419.38
3433.28
3448.62
3465.42
3483.71
3503.49
3524.77
3547.53
3571.74
3597.34
3624.24
3652.33
3681.46
3711.45
3742.11
3773.04
3803.99
3834.65
3864.64
3893.6
3921.1
3946.75
3970.15
3990.9
4008.64
4023.03
4033.78
4040.66
4043.5
4042.16
4036.69
4027.13
4013.57
3996.28
3975.58
3951.82
3925.39
3896.78
3866.41
3834.76
3802.3
3769.51
3736.81
3704.6
3674.02
3644.25
3615.56
3588.25
3562.55
3538.57
3516.39
3496.06
3477.54
3460.81
3445.78
3432.37
3420.49
3410.01
3400.83
3392.84
3385.92
3379.98
3374.94
3370.77
3367.45
3364.99
3363.44
3362.89
3363.42
3365.13
3368.2
3372.73
3378.84
3386.65
3396.26
3407.74
3421.16
3436.54
3453.88
3473.15
3494.29
3517.22
3541.81
3567.96
3595.48
3624.27
3654.5
3689.13
3720.43
3751.41
3781.99
3811.97
3840.98
3868.7
3894.83
3919.06
3941.08
3960.63
3977.48
3991.44
4002.38
4010.2
4014.93
4016.71
4015.34
4010.74
4002.95
3992.09
3978.33
3961.85
3350.72
3332.44
3315.83
3300.91
3287.67
3276.07
3266.08
3257.66
3250.78
3245.39
3241.47
3239
3237.93
3238.24
3239.94
3243.08
3247.68
3253.76
3261.36
3270.54
3281.34
3293.8
3307.98
3323.94
3341.7
3361.31
3382.75
3406.02
3431.1
3457.89
3486.32
3516.28
3547.63
3580.28
3613.68
3647.64
3681.88
3716
3749.6
3782.3
3813.66
3843.27
3870.7
3895.56
3917.51
3936.23
3951.44
3962.93
3970.55
3974.19
3973.76
3969.25
3960.8
3948.42
3932.33
3912.8
3890.06
3864.44
3836.32
3806.06
3774.09
3740.81
3706.65
3672.04
3637.43
3603.28
3570.53
3538.46
3507.26
3477.08
3448.3
3421.07
3395.53
3371.77
3349.85
3329.78
3311.59
3295.29
3280.86
3268.26
3257.49
3248.52
3241.31
3235.8
3232.01
3229.92
3229.24
3230.12
3232.53
3236.42
3241.74
3248.49
3256.64
3266.2
3277.17
3289.58
3303.46
3318.84
3335.75
3354.23
3374.29
3395.94
3419.17
3443.95
3470.21
3497.87
3526.81
3556.89
3587.96
3619.67
3651.82
3684.13
3716.3
3747.99
3778.84
3808.46
3836.47
3862.48
3886.1
3906.96
3924.71
3939.04
3949.68
3956.42
3959.09
3957.59
3952
3942.36
3928.74
3911.37
3890.52
3866.49
3839.65
3810.41
3779.17
3746.39
3712.52
3678
3643.27
3608.74
3574.84
3541.86
3510.12
3479.88
3451.35
3424.66
3399.91
3377.17
3356.43
3337.69
3320.89
3305.98
3292.88
3281.5
3271.76
3263.57
3256.84
3251.52
3247.51
3244.77
3243.26
3242.96
3243.82
3245.85
3249.06
3253.45
3259.05
3265.9
3274.04
3283.5
3294.32
3306.56
3320.24
3335.42
3352.13
3370.41
3390.29
3411.78
3434.87
3459.52
3485.69
3513.27
3542.16
3572.19
3603.54
3635.22
3667.33
3699.54
3731.5
3762.81
3793.06
3821.83
3848.69
3873.21
3895
3913.65
3928.85
3940.3
3947.78
3951.1
3950.18
3945.09
3935.87
3922.64
3905.64
3885.15
3861.51
3835.12
3806.4
3775.81
3743.82
3710.88
3677.47
3644.01
3610.91
3578.52
3547.14
3517.02
3488.35
3461.28
3435.9
3412.28
3390.43
3370.36
3352.04
3335.45
3320.55
3307.29
3295.62
3285.49
3276.85
3269.66
3263.85
3259.36
3256.14
3254.14
3253.32
3253.63
3255.05
3257.59
3261.26
3266.08
3272.07
3279.28
3287.74
3297.51
3308.62
3321.1
3334.99
3350.33
3367.13
3385.41
3405.19
3426.47
3449.23
3473.44
3499.05
3525.96
3554.06
3583.21
3613.21
3643.91
3674.87
3705.87
3736.57
3766.61
3795.61
3823.17
3848.88
3872.33
3893.13
3910.91
3925.35
3936.13
3943.03
3945.89
3944.56
3939.07
3929.48
3915.9
3898.57
3877.82
3854
3827.52
3798.84
3768.41
3736.7
3704.19
3671.34
3638.6
3606.35
3575.74
3545.95
3517.24
3489.92
3464.2
3440.22
3418.05
3397.72
3379.21
3362.49
3347.47
3334.08
3322.21
3311.75
3302.59
3294.61
3287.7
3281.77
3276.74
3272.57
3269.25
3266.78
3265.22
3264.66
3265.18
3266.88
3269.93
3274.44
3280.54
3288.33
3297.93
3309.4
3322.82
3338.19
3355.53
3374.8
3395.95
3418.88
3443.49
3469.65
3497.19
3525.99
3556.23
3590.95
3622.27
3653.28
3683.89
3713.91
3742.97
3770.73
3796.91
3821.17
3843.23
3862.82
3879.7
3893.69
3904.64
3912.48
3917.21
3919.01
3917.61
3913.01
3905.2
3894.32
3880.53
3864.03
3252.31
3234.04
3217.44
3202.53
3189.3
3177.71
3167.73
3159.32
3152.44
3147.06
3143.14
3140.67
3139.6
3139.91
3141.61
3144.75
3149.34
3155.41
3163.01
3172.18
3182.96
3195.41
3209.58
3225.53
3243.28
3262.88
3284.32
3307.59
3332.67
3359.47
3387.9
3417.89
3449.26
3481.93
3515.37
3549.38
3583.68
3617.87
3651.53
3684.3
3715.73
3745.42
3772.93
3797.86
3819.87
3838.64
3853.9
3865.43
3873.07
3876.72
3876.3
3871.77
3863.29
3850.87
3834.74
3815.15
3792.34
3766.65
3738.46
3708.13
3676.09
3642.74
3608.5
3573.82
3539.14
3504.95
3472.22
3440.12
3408.88
3378.68
3349.87
3322.64
3297.09
3273.34
3251.41
3231.35
3213.17
3196.88
3182.45
3169.86
3159.1
3150.14
3142.93
3137.43
3133.65
3131.56
3130.89
3131.78
3134.2
3138.08
3143.41
3150.16
3158.31
3167.86
3178.83
3191.24
3205.11
3220.48
3237.38
3255.84
3275.9
3297.54
3320.77
3345.55
3371.82
3399.5
3428.45
3458.56
3489.66
3521.4
3553.59
3585.96
3618.18
3649.93
3680.84
3710.53
3738.61
3764.69
3788.38
3809.31
3827.11
3841.49
3852.17
3858.94
3861.64
3860.13
3854.53
3844.85
3831.19
3813.77
3792.85
3768.75
3741.84
3712.52
3681.2
3648.35
3614.4
3579.81
3545.01
3510.43
3476.48
3443.46
3411.69
3381.43
3352.88
3326.19
3301.45
3278.71
3257.98
3239.25
3222.47
3207.58
3194.49
3183.13
3173.4
3165.23
3158.52
3153.2
3149.21
3146.47
3144.97
3144.67
3145.53
3147.56
3150.76
3155.15
3160.75
3167.59
3175.72
3185.17
3195.98
3208.21
3221.88
3237.05
3253.75
3272.02
3291.9
3313.38
3336.47
3361.13
3387.3
3414.9
3443.81
3473.84
3505.26
3536.96
3569.12
3601.38
3633.4
3664.78
3695.11
3723.95
3750.89
3775.49
3797.34
3816.07
3831.32
3842.81
3850.32
3853.66
3852.74
3847.63
3838.38
3825.1
3808.04
3787.48
3763.77
3737.3
3708.5
3677.83
3645.76
3612.75
3579.27
3545.75
3512.6
3480.17
3448.76
3418.61
3389.93
3362.85
3337.47
3313.85
3292.01
3271.95
3253.64
3237.07
3222.18
3208.92
3197.26
3187.14
3178.52
3171.34
3165.53
3161.06
3157.85
3155.86
3155.04
3155.35
3156.77
3159.31
3162.97
3167.78
3173.77
3180.97
3189.43
3199.19
3210.29
3222.76
3236.65
3251.97
3268.77
3287.04
3306.82
3328.1
3350.86
3375.08
3400.69
3427.61
3455.73
3484.9
3514.94
3545.68
3576.69
3607.73
3638.49
3668.6
3697.67
3725.3
3751.08
3774.6
3795.47
3813.32
3827.8
3838.63
3845.57
3848.44
3847.12
3841.61
3832
3818.37
3800.99
3780.18
3756.28
3729.72
3700.96
3670.45
3638.66
3606.07
3573.14
3540.34
3508.06
3477.4
3447.57
3418.84
3391.5
3365.77
3341.79
3319.62
3299.3
3280.81
3264.1
3249.1
3235.73
3223.88
3213.44
3204.3
3196.33
3189.44
3183.52
3178.5
3174.34
3171.01
3168.54
3166.97
3166.39
3166.89
3168.57
3171.6
3176.1
3182.17
3189.94
3199.53
3210.99
3224.39
3239.76
3257.1
3276.37
3297.53
3320.47
3345.1
3371.27
3398.83
3427.64
3457.9
3492.74
3524.1
3555.14
3585.8
3615.87
3644.99
3672.81
3699.05
3723.37
3745.48
3765.11
3782.03
3796.05
3807.03
3814.88
3819.62
3821.43
3820.01
3815.39
3807.56
3796.66
3782.84
3766.3
3153.83
3135.56
3118.98
3104.07
3090.86
3079.28
3069.31
3060.91
3054.04
3048.67
3044.76
3042.29
3041.22
3041.53
3043.23
3046.36
3050.94
3057.01
3064.59
3073.75
3084.52
3096.96
3111.11
3127.04
3144.78
3164.37
3185.8
3209.07
3234.16
3260.96
3289.41
3319.41
3350.81
3383.52
3417.02
3451.09
3485.46
3519.72
3553.47
3586.33
3617.85
3647.63
3675.23
3700.25
3722.34
3741.19
3756.5
3768.07
3775.74
3779.4
3778.99
3774.45
3765.92
3753.46
3737.27
3717.61
3694.73
3668.95
3640.67
3610.25
3578.11
3544.67
3510.34
3475.57
3440.81
3406.55
3373.86
3341.72
3310.43
3280.19
3251.37
3224.12
3198.57
3174.81
3152.89
3132.83
3114.67
3098.38
3083.97
3071.39
3060.64
3051.69
3044.48
3039
3035.22
3033.12
3032.47
3033.38
3035.8
3039.69
3045.02
3051.77
3059.92
3069.46
3080.43
3092.82
3106.69
3122.04
3138.93
3157.39
3177.43
3199.07
3222.3
3247.09
3273.37
3301.06
3330.03
3360.16
3391.31
3423.1
3455.34
3487.76
3520.05
3551.87
3582.86
3612.64
3640.81
3666.98
3690.75
3711.76
3729.65
3744.09
3754.82
3761.63
3764.34
3762.85
3757.22
3747.5
3733.79
3716.3
3695.3
3671.11
3644.1
3614.68
3583.27
3550.31
3516.27
3481.59
3446.72
3412.07
3378.06
3344.99
3313.18
3282.9
3254.33
3227.63
3202.89
3180.16
3159.45
3140.73
3123.97
3109.1
3096.03
3084.69
3074.99
3066.83
3060.14
3054.83
3050.85
3048.12
3046.64
3046.34
3047.2
3049.23
3052.42
3056.8
3062.4
3069.23
3077.34
3086.78
3097.59
3109.8
3123.46
3138.62
3155.31
3173.57
3193.43
3214.91
3238
3262.66
3288.84
3316.46
3345.39
3375.43
3406.93
3438.66
3470.88
3503.21
3535.31
3566.78
3597.19
3626.13
3653.17
3677.86
3699.8
3718.61
3733.93
3745.48
3753.02
3756.38
3755.46
3750.33
3741.04
3727.7
3710.57
3689.93
3666.13
3639.56
3610.66
3579.88
3547.71
3514.61
3481.04
3447.45
3414.23
3381.75
3350.3
3320.13
3291.42
3264.34
3238.96
3215.34
3193.51
3173.46
3155.17
3138.61
3123.73
3110.49
3098.84
3088.74
3080.13
3072.96
3067.17
3062.7
3059.5
3057.52
3056.71
3057.02
3058.45
3060.99
3064.64
3069.45
3075.42
3082.62
3091.06
3100.81
3111.9
3124.36
3138.24
3153.56
3170.34
3188.61
3208.39
3229.66
3252.42
3276.64
3302.26
3329.21
3357.35
3386.55
3416.62
3447.41
3478.48
3509.59
3540.42
3570.61
3599.77
3627.49
3653.36
3676.97
3697.92
3715.84
3730.4
3741.28
3748.26
3751.15
3749.84
3744.32
3734.67
3720.99
3703.54
3682.65
3658.65
3632
3603.14
3572.52
3540.63
3507.94
3474.92
3442.04
3409.71
3378.99
3349.13
3320.37
3293.01
3267.27
3243.27
3221.11
3200.8
3182.33
3165.64
3150.66
3137.31
3125.49
3115.08
3105.96
3098.02
3091.14
3085.24
3080.23
3076.07
3072.74
3070.26
3068.68
3068.08
3068.55
3070.21
3073.22
3077.68
3083.73
3091.48
3101.05
3112.49
3125.89
3141.25
3158.58
3177.86
3199.03
3221.98
3246.63
3272.82
3300.4
3329.24
3359.5
3394.51
3425.9
3456.98
3487.71
3517.85
3547.04
3574.93
3601.24
3625.63
3647.8
3667.5
3684.46
3698.53
3709.54
3717.41
3722.16
3723.98
3722.55
3717.9
3710.05
3699.11
3685.25
3668.66
3055.27
3037.02
3020.44
3005.55
2992.35
2980.79
2970.83
2962.44
2955.58
2950.22
2946.32
2943.86
2942.79
2943.09
2944.79
2947.91
2952.49
2958.54
2966.11
2975.25
2986.01
2998.43
3012.56
3028.48
3046.2
3065.78
3087.2
3110.48
3135.57
3162.38
3190.84
3220.87
3252.29
3285.04
3318.6
3352.76
3387.21
3421.57
3455.41
3488.38
3520.02
3549.91
3577.62
3602.74
3624.93
3643.86
3659.24
3670.87
3678.57
3682.25
3681.84
3677.28
3668.71
3656.19
3639.93
3620.18
3597.21
3571.32
3542.93
3512.4
3480.16
3446.6
3412.17
3377.3
3342.43
3308.08
3275.46
3243.26
3211.91
3181.63
3152.78
3125.52
3099.96
3076.21
3054.29
3034.24
3016.08
2999.81
2985.41
2972.84
2962.1
2953.16
2945.97
2940.49
2936.73
2934.62
2933.99
2934.91
2937.35
2941.25
2946.58
2953.33
2961.47
2971.01
2981.97
2994.35
3008.2
3023.54
3040.42
3058.86
3078.9
3100.53
3123.76
3148.55
3174.84
3202.55
3231.55
3261.71
3292.91
3324.75
3357.05
3389.55
3421.92
3453.83
3484.91
3514.79
3543.07
3569.34
3593.22
3614.33
3632.31
3646.83
3657.62
3664.47
3667.2
3665.72
3660.07
3650.3
3636.52
3618.95
3597.86
3573.56
3546.44
3516.89
3485.36
3452.29
3418.14
3383.36
3348.39
3313.65
3279.57
3246.44
3214.59
3184.28
3155.69
3128.98
3104.24
3081.52
3060.83
3042.13
3025.39
3010.55
2997.5
2986.19
2976.5
2968.37
2961.7
2956.41
2952.45
2949.73
2948.25
2947.95
2948.82
2950.84
2954.03
2958.41
2963.99
2970.82
2978.92
2988.35
2999.14
3011.33
3024.98
3040.12
3056.8
3075.05
3094.9
3116.37
3139.45
3164.12
3190.31
3217.94
3246.9
3277.01
3308.5
3340.31
3372.61
3405.03
3437.22
3468.79
3499.32
3528.37
3555.52
3580.32
3602.37
3621.28
3636.68
3648.3
3655.88
3659.27
3658.36
3653.19
3643.85
3630.45
3613.23
3592.49
3568.57
3541.88
3512.86
3481.96
3449.67
3416.46
3382.79
3349.11
3315.82
3283.27
3251.77
3221.56
3192.84
3165.74
3140.36
3116.75
3094.93
3074.89
3056.62
3040.07
3025.21
3011.99
3000.36
2990.27
2981.68
2974.52
2968.75
2964.3
2961.11
2959.14
2958.34
2958.66
2960.08
2962.61
2966.26
2971.06
2977.03
2984.21
2992.65
3002.38
3013.45
3025.91
3039.78
3055.08
3071.86
3090.12
3109.88
3131.15
3153.92
3178.14
3203.78
3230.74
3258.91
3288.14
3318.26
3349.12
3380.25
3411.44
3442.36
3472.64
3501.91
3529.73
3555.71
3579.43
3600.48
3618.5
3633.14
3644.09
3651.11
3654.03
3652.73
3647.19
3637.49
3623.76
3606.22
3585.23
3561.13
3534.35
3505.37
3474.63
3442.61
3409.8
3376.68
3343.7
3311.31
3280.53
3250.63
3221.82
3194.43
3168.67
3144.68
3122.52
3102.23
3083.77
3067.1
3052.15
3038.84
3027.04
3016.66
3007.57
2999.66
2992.81
2986.92
2981.93
2977.77
2974.44
2971.95
2970.35
2969.72
2970.17
2971.8
2974.77
2979.21
2985.23
2992.95
3002.49
3013.92
3027.3
3042.66
3059.99
3079.27
3100.45
3123.42
3148.08
3174.3
3201.91
3230.76
3261.02
3296.27
3327.68
3358.82
3389.61
3419.84
3449.11
3477.1
3503.5
3527.97
3550.22
3569.98
3587.01
3601.12
3612.17
3620.07
3624.83
3626.65
3625.21
3620.54
3612.65
3601.67
3587.76
3571.11
2956.63
2938.39
2921.83
2906.96
2893.77
2882.23
2872.29
2863.91
2857.06
2851.71
2847.83
2845.37
2844.3
2844.6
2846.29
2849.4
2853.97
2860.01
2867.57
2876.69
2887.43
2899.83
2913.94
2929.84
2947.54
2967.11
2988.52
3011.79
3036.89
3063.71
3092.19
3122.25
3153.71
3186.5
3220.14
3254.38
3288.94
3323.4
3357.37
3390.46
3422.22
3452.25
3480.09
3505.33
3527.63
3546.66
3562.13
3573.82
3581.56
3585.25
3584.84
3580.27
3571.64
3559.06
3542.71
3522.87
3499.78
3473.78
3445.26
3414.6
3382.23
3348.55
3313.99
3278.99
3243.99
3209.54
3177.02
3144.75
3113.32
3082.99
3054.11
3026.83
3001.27
2977.52
2955.6
2935.56
2917.42
2901.16
2886.77
2874.22
2863.49
2854.57
2847.38
2841.92
2838.17
2836.07
2835.46
2836.39
2838.83
2842.74
2848.08
2854.82
2862.96
2872.5
2883.45
2895.82
2909.65
2924.98
2941.84
2960.27
2980.29
3001.92
3025.15
3049.94
3076.24
3103.97
3133
3163.2
3194.47
3226.36
3258.74
3291.31
3323.78
3355.79
3386.99
3416.99
3445.38
3471.79
3495.79
3517.01
3535.1
3549.71
3560.58
3567.47
3570.23
3568.76
3563.08
3553.26
3539.4
3521.73
3500.52
3476.1
3448.85
3419.16
3387.49
3354.28
3320
3285.1
3250.01
3215.17
3181.03
3147.82
3115.92
3085.56
3056.96
3030.24
3005.5
2982.79
2962.12
2943.45
2926.74
2911.91
2898.9
2887.62
2877.96
2869.85
2863.2
2857.94
2853.99
2851.29
2849.82
2849.52
2850.39
2852.42
2855.6
2859.97
2865.54
2872.35
2880.44
2889.85
2900.62
2912.81
2926.44
2941.56
2958.22
2976.45
2996.29
3017.76
3040.84
3065.51
3091.71
3119.36
3148.36
3178.53
3210.02
3241.93
3274.31
3306.83
3339.13
3370.82
3401.48
3430.66
3457.94
3482.88
3505.06
3524.08
3539.58
3551.27
3558.91
3562.32
3561.41
3556.22
3546.82
3533.34
3516.02
3495.16
3471.11
3444.28
3415.11
3384.08
3351.64
3318.3
3284.51
3250.72
3217.34
3184.73
3153.17
3122.92
3094.18
3067.07
3041.69
3018.08
2996.27
2976.25
2958
2941.47
2926.63
2913.43
2901.82
2891.75
2883.17
2876.03
2870.27
2865.84
2862.68
2860.72
2859.92
2860.24
2861.67
2864.2
2867.84
2872.63
2878.58
2885.75
2894.17
2903.89
2914.95
2927.4
2941.25
2956.54
2973.31
2991.56
3011.32
3032.58
3055.34
3079.58
3105.22
3132.2
3160.41
3189.68
3219.85
3250.79
3282
3313.27
3344.3
3374.7
3404.08
3432.03
3458.14
3481.98
3503.15
3521.28
3536.01
3547.04
3554.12
3557.07
3555.78
3550.23
3540.48
3526.66
3509.04
3487.93
3463.69
3436.78
3407.65
3376.76
3344.61
3311.66
3278.41
3245.31
3212.85
3182.01
3152.06
3123.2
3095.77
3070
3046
3023.85
3003.57
2985.13
2968.5
2953.58
2940.29
2928.54
2918.19
2909.14
2901.26
2894.43
2888.57
2883.59
2879.44
2876.1
2873.6
2871.98
2871.33
2871.74
2873.34
2876.27
2880.67
2886.65
2894.35
2903.86
2915.27
2928.63
2943.98
2961.31
2980.59
3001.78
3024.77
3049.46
3075.72
3103.35
3132.23
3162.47
3198.02
3229.45
3260.64
3291.52
3321.84
3351.22
3379.31
3405.81
3430.38
3452.72
3472.56
3489.66
3503.83
3514.92
3522.85
3527.62
3529.45
3528
3523.3
3515.38
3504.35
3490.37
3473.66
2857.91
2839.69
2823.15
2808.3
2795.13
2783.6
2773.68
2765.32
2758.49
2753.15
2749.27
2746.83
2745.76
2746.05
2747.73
2750.84
2755.39
2761.42
2768.96
2778.06
2788.78
2801.15
2815.25
2831.12
2848.8
2868.35
2889.75
2913.02
2938.12
2964.96
2993.46
3023.55
3055.05
3087.9
3121.62
3155.96
3190.63
3225.23
3259.32
3292.56
3324.47
3354.65
3382.64
3408.03
3430.45
3449.6
3465.15
3476.91
3484.7
3488.42
3488.01
3483.41
3474.73
3462.07
3445.63
3425.67
3402.46
3376.31
3347.65
3316.84
3284.32
3250.49
3215.79
3180.65
3145.51
3110.92
3078.54
3046.17
3014.65
2984.27
2955.36
2928.06
2902.5
2878.74
2856.83
2836.8
2818.67
2802.43
2788.05
2775.52
2764.81
2755.9
2748.73
2743.28
2739.54
2737.46
2736.86
2737.81
2740.26
2744.18
2749.52
2756.26
2764.4
2773.93
2784.87
2797.22
2811.04
2826.35
2843.19
2861.6
2881.61
2903.23
2926.46
2951.26
2977.57
3005.33
3034.39
3064.62
3095.98
3127.93
3160.39
3193.06
3225.63
3257.77
3289.09
3319.22
3347.76
3374.31
3398.45
3419.81
3438.01
3452.73
3463.69
3470.64
3473.43
3471.96
3466.25
3456.36
3442.42
3424.64
3403.3
3378.74
3351.33
3321.48
3289.65
3256.29
3221.85
3186.81
3151.6
3116.65
3082.41
3049.13
3017.16
2986.77
2958.13
2931.41
2906.67
2883.97
2863.32
2844.68
2828
2813.21
2800.23
2788.98
2779.36
2771.28
2764.66
2759.41
2755.48
2752.8
2751.34
2751.05
2751.92
2753.94
2757.12
2761.48
2767.04
2773.83
2781.91
2791.3
2802.06
2814.22
2827.83
2842.93
2859.57
2877.78
2897.61
2919.07
2942.14
2966.82
2993.03
3020.71
3049.75
3079.99
3111.49
3143.5
3175.98
3208.62
3241.05
3272.87
3303.67
3333.01
3360.45
3385.54
3407.86
3427.01
3442.63
3454.41
3462.11
3465.55
3464.64
3459.41
3449.94
3436.37
3418.94
3397.94
3373.74
3346.75
3317.42
3286.22
3253.62
3220.13
3186.21
3152.3
3118.82
3086.12
3054.5
3024.2
2995.43
2968.31
2942.93
2919.33
2897.53
2877.53
2859.3
2842.8
2827.98
2814.8
2803.21
2793.16
2784.6
2777.48
2771.75
2767.34
2764.19
2762.25
2761.46
2761.79
2763.21
2765.74
2769.37
2774.15
2780.09
2787.24
2795.65
2805.35
2816.4
2828.82
2842.66
2857.94
2874.69
2892.94
2912.68
2933.94
2956.7
2980.94
3006.6
3033.61
3061.85
3091.16
3121.39
3152.43
3183.72
3215.1
3246.24
3276.77
3306.29
3334.39
3360.64
3384.63
3405.94
3424.19
3439.03
3450.15
3457.3
3460.29
3459
3453.42
3443.62
3429.72
3411.98
3390.74
3366.35
3339.28
3309.99
3278.94
3246.62
3213.51
3180.11
3146.88
3114.33
3083.44
3053.42
3024.5
2997.03
2971.24
2947.23
2925.09
2904.83
2886.42
2869.81
2854.94
2841.69
2829.97
2819.67
2810.65
2802.81
2796.02
2790.18
2785.21
2781.07
2777.73
2775.21
2773.57
2772.89
2773.26
2774.82
2777.72
2782.07
2788.01
2795.67
2805.15
2816.53
2829.88
2845.22
2862.54
2881.83
2903.03
2926.04
2950.77
2977.06
3004.73
3033.63
3063.85
3099.75
3131.19
3162.44
3193.42
3223.86
3253.36
3281.56
3308.18
3332.86
3355.31
3375.24
3392.42
3406.65
3417.8
3425.76
3430.55
3432.38
3430.92
3426.18
3418.22
3407.13
3393.09
3376.3
2759.12
2740.92
2724.4
2709.57
2696.42
2684.91
2675.01
2666.66
2659.85
2654.53
2650.66
2648.23
2647.17
2647.45
2649.12
2652.22
2656.75
2662.77
2670.29
2679.37
2690.06
2702.41
2716.48
2732.32
2749.98
2769.51
2790.9
2814.17
2839.28
2866.12
2894.65
2924.77
2956.32
2989.22
3023.05
3057.51
3092.31
3127.04
3161.29
3194.68
3226.76
3257.11
3285.27
3310.82
3333.39
3352.66
3368.32
3380.16
3388.01
3391.74
3391.33
3386.7
3377.97
3365.22
3348.67
3328.59
3305.23
3278.93
3250.1
3219.12
3186.43
3152.44
3117.58
3082.29
3046.97
3012.22
2980.03
2947.54
2915.91
2885.47
2856.52
2829.21
2803.63
2779.88
2757.98
2737.96
2719.85
2703.62
2689.26
2676.75
2666.06
2657.16
2650.01
2644.58
2640.85
2638.79
2638.2
2639.17
2641.63
2645.56
2650.9
2657.65
2665.78
2675.31
2686.23
2698.57
2712.36
2727.65
2744.47
2762.87
2782.86
2804.47
2827.69
2852.5
2878.83
2906.61
2935.71
2965.98
2997.44
3029.46
3062.01
3094.79
3127.48
3159.75
3191.21
3221.5
3250.2
3276.9
3301.21
3322.72
3341.06
3355.9
3366.95
3373.97
3376.79
3375.33
3369.58
3359.63
3345.58
3327.68
3306.2
3281.47
3253.88
3223.85
3191.84
3158.3
3123.7
3088.5
3053.15
3018.07
2983.72
2950.35
2918.32
2887.88
2859.22
2832.48
2807.75
2785.06
2764.43
2745.82
2729.18
2714.43
2701.49
2690.27
2680.69
2672.64
2666.05
2660.84
2656.93
2654.26
2652.81
2652.53
2653.4
2655.42
2658.59
2662.94
2668.48
2675.26
2683.32
2692.69
2703.43
2715.57
2729.15
2744.23
2760.85
2779.05
2798.86
2820.3
2843.38
2868.05
2894.28
2921.99
2951.07
2981.39
3012.91
3045.03
3077.63
3110.39
3142.96
3174.94
3205.9
3235.42
3263.02
3288.29
3310.77
3330.07
3345.82
3357.7
3365.47
3368.94
3368.04
3362.77
3353.22
3339.55
3321.99
3300.84
3276.47
3249.3
3219.78
3188.39
3155.61
3121.95
3087.87
3053.83
3020.23
2987.44
2955.75
2925.41
2896.6
2869.46
2844.08
2820.49
2798.72
2778.74
2760.53
2744.05
2729.26
2716.11
2704.54
2694.51
2685.98
2678.88
2673.17
2668.78
2665.66
2663.73
2662.95
2663.29
2664.71
2667.23
2670.86
2675.62
2681.55
2688.68
2697.07
2706.76
2717.78
2730.19
2744.01
2759.28
2776.02
2794.24
2813.98
2835.23
2857.99
2882.24
2907.92
2934.95
2963.23
2992.6
3022.88
3054.03
3085.42
3116.92
3148.19
3178.87
3208.54
3236.8
3263.22
3287.37
3308.83
3327.22
3342.19
3353.41
3360.63
3363.66
3362.39
3356.79
3346.92
3332.92
3315.06
3293.67
3269.11
3241.86
3212.38
3181.14
3148.64
3115.36
3081.78
3048.4
3015.73
2984.82
2954.71
2925.73
2898.21
2872.39
2848.38
2826.25
2806.01
2787.63
2771.06
2756.22
2743.02
2731.35
2721.09
2712.12
2704.32
2697.57
2691.76
2686.81
2682.67
2679.33
2676.79
2675.13
2674.41
2674.74
2676.25
2679.1
2683.41
2689.3
2696.92
2706.36
2717.72
2731.05
2746.37
2763.69
2782.99
2804.2
2827.24
2852
2878.33
2906.05
2934.97
2965.15
3001.46
3032.9
3064.23
3095.32
3125.89
3155.52
3183.86
3210.61
3235.42
3257.98
3278.02
3295.29
3309.6
3320.8
3328.8
3333.6
3335.44
3333.96
3329.19
3321.18
3310.03
3295.91
3279.03
2660.25
2642.07
2625.57
2610.76
2597.64
2586.16
2576.27
2567.95
2561.15
2555.85
2552
2549.57
2548.51
2548.79
2550.46
2553.54
2558.06
2564.06
2571.56
2580.61
2591.27
2603.59
2617.63
2633.45
2651.08
2670.59
2691.97
2715.23
2740.34
2767.2
2795.76
2825.91
2857.52
2890.49
2924.42
2959.01
2993.95
3028.84
3063.26
3096.83
3129.1
3159.63
3187.98
3213.71
3236.44
3255.85
3271.63
3283.56
3291.47
3295.23
3294.81
3290.16
3281.35
3268.51
3251.84
3231.61
3208.09
3181.62
3152.61
3121.44
3088.57
3054.4
3019.36
2983.89
2948.38
2913.41
2881.51
2848.84
2817.1
2786.59
2757.6
2730.27
2704.68
2680.93
2659.04
2639.04
2620.94
2604.73
2590.39
2577.9
2567.23
2558.35
2551.22
2545.8
2542.09
2540.05
2539.48
2540.46
2542.94
2546.88
2552.23
2558.98
2567.11
2576.62
2587.53
2599.85
2613.62
2628.89
2645.69
2664.06
2684.04
2705.63
2728.85
2753.66
2780.02
2807.83
2836.97
2867.28
2898.85
2930.94
2963.59
2996.49
3029.32
3061.73
3093.36
3123.82
3152.7
3179.58
3204.06
3225.74
3244.24
3259.21
3270.37
3277.46
3280.32
3278.86