/*--------------------------------*- C++ -*----------------------------------*\
| =========                 |                                                 |
| \\      /  F ield         | OpenFOAM: The Open Source CFD Toolbox           |
|  \\    /   O peration     | Version:  3.0.1                                 |
|   \\  /    A nd           | Web:      www.OpenFOAM.org                      |
|    \\/     M anipulation  |                                                 |
\*---------------------------------------------------------------------------*/
FoamFile
{
    version     2.0;
    format      ascii;
    class       volScalarField;
    location    "74";
    object      p_rgh;
}
// * * * * * * * * * * * * * * * * * * * * * * * * * * * * * * * * * * * * * //

dimensions      [1 -1 -2 0 0 0 0];

internalField   nonuniform List<scalar> 
21420
(
-229.47
-247.765
-264.386
-279.323
-292.576
-304.186
-314.187
-322.619
-329.515
-334.911
-338.844
-341.309
-342.36
-342.062
-340.367
-337.223
-332.613
-326.524
-318.905
-309.714
-298.901
-286.422
-272.222
-256.247
-238.47
-218.853
-197.406
-174.129
-149.052
-122.271
-93.8649
-63.9245
-32.6016
-0.0046943
33.3393
67.2221
101.378
135.405
168.901
201.493
232.742
262.24
289.563
314.318
336.172
354.807
369.948
381.388
388.974
392.595
392.143
387.694
379.277
366.942
350.923
331.473
308.827
283.309
255.298
225.157
193.299
160.125
126.065
91.5612
57.0513
22.9664
-9.79042
-41.8263
-72.9794
-103.108
-131.869
-159.085
-184.62
-208.376
-230.307
-250.385
-268.58
-284.893
-299.336
-311.949
-322.735
-331.718
-338.95
-344.47
-348.279
-350.4
-351.071
-350.211
-347.821
-343.947
-338.633
-331.894
-323.747
-314.193
-303.219
-290.798
-276.911
-261.524
-244.605
-226.123
-206.059
-184.407
-161.178
-136.407
-110.157
-82.5158
-53.6039
-23.5617
7.45483
39.112
71.2
103.444
135.534
167.134
197.884
227.406
255.313
281.217
304.732
325.492
343.15
357.398
367.975
374.676
377.294
375.83
370.262
360.662
347.102
329.814
309.055
285.137
258.416
229.288
198.171
165.508
131.744
97.3261
62.6901
28.2524
-5.58891
-38.5092
-70.2002
-100.406
-128.923
-155.603
-180.349
-203.102
-223.851
-242.615
-259.434
-274.369
-287.497
-298.903
-308.669
-316.883
-323.625
-328.969
-332.984
-335.74
-337.264
-337.558
-336.701
-334.67
-331.46
-327.063
-321.446
-314.583
-306.44
-296.967
-286.125
-273.877
-260.177
-244.984
-228.258
-209.963
-190.071
-168.574
-145.484
-120.831
-94.6766
-67.1063
-38.2433
-8.23264
23.0322
54.6688
86.7075
118.837
150.7
181.91
212.054
240.712
267.457
291.869
313.545
332.108
347.222
358.607
366.039
369.314
368.427
363.357
354.189
341.021
324.104
303.714
280.188
253.916
225.32
194.853
162.975
130.153
96.8426
63.4757
30.4489
-1.87699
-33.211
-63.3001
-91.9483
-119.009
-144.383
-168.013
-189.871
-209.958
-228.288
-244.892
-259.812
-273.093
-284.781
-294.924
-303.573
-310.783
-316.61
-321.108
-324.345
-326.359
-327.182
-326.875
-325.453
-322.909
-319.235
-314.411
-308.406
-301.184
-292.704
-282.922
-271.803
-259.308
-245.4
-230.051
-213.239
-194.945
-175.155
-153.868
-131.1
-106.888
-81.2895
-54.3908
-26.3109
2.80198
32.7705
63.4068
94.3073
125.228
155.843
185.797
214.7
242.154
267.758
291.105
311.803
329.501
343.854
354.57
361.428
364.254
362.909
357.46
347.915
334.388
317.139
296.49
272.779
246.413
217.86
187.554
155.966
123.569
90.8311
58.1807
25.9988
-4.55279
-34.2975
-62.9684
-90.2584
-115.958
-139.937
-162.111
-182.453
-200.978
-217.726
-232.77
-246.19
-258.09
-268.58
-277.772
-285.782
-292.715
-298.665
-303.703
-307.874
-311.196
-313.654
-315.198
-315.737
-315.188
-313.461
-310.378
-305.831
-299.706
-291.885
-282.267
-270.772
-257.345
-241.963
-224.626
-205.355
-184.215
-161.299
-136.715
-110.585
-83.0731
-54.2922
-24.0828
10.4688
41.7419
72.6947
103.237
133.171
162.141
189.817
215.908
240.088
262.07
281.588
298.405
312.348
323.263
331.072
335.791
337.548
336.217
331.629
323.846
313.004
299.27
282.827
-229.547
-247.839
-264.459
-279.393
-292.644
-304.252
-314.251
-322.681
-329.575
-334.969
-338.901
-341.367
-342.419
-342.12
-340.425
-337.281
-332.672
-326.585
-318.969
-309.78
-298.969
-286.493
-272.297
-256.325
-238.55
-218.935
-197.488
-174.212
-149.134
-122.352
-93.9429
-63.9986
-32.6708
-0.0661169
33.2878
67.1834
101.353
135.396
168.909
201.519
232.786
262.302
289.644
314.417
336.286
354.935
370.087
381.536
389.128
392.755
392.304
387.844
379.422
367.08
351.049
331.585
308.924
283.389
255.359
225.2
193.323
160.131
126.053
91.5319
57.0056
22.9122
-9.84789
-41.8874
-73.049
-103.185
-131.951
-159.169
-184.705
-208.461
-230.392
-250.469
-268.663
-284.974
-299.416
-312.026
-322.811
-331.792
-339.023
-344.542
-348.35
-350.461
-351.14
-350.277
-347.886
-344.012
-338.697
-331.959
-323.812
-314.259
-303.286
-290.867
-276.982
-261.598
-244.681
-226.201
-206.139
-184.487
-161.259
-136.487
-110.235
-82.5911
-53.675
-23.6264
7.39768
39.0638
71.1622
103.418
135.522
167.136
197.902
227.441
255.366
281.286
304.819
325.596
343.269
357.529
368.117
374.825
377.453
375.98
370.41
360.803
347.233
329.932
309.157
285.221
258.481
229.333
198.196
165.514
131.731
97.296
62.6441
28.1922
-5.66043
-38.5908
-70.2893
-100.5
-129.021
-155.702
-180.448
-203.2
-223.946
-242.707
-259.522
-274.453
-287.577
-298.979
-308.741
-316.951
-323.689
-329.031
-333.043
-335.798
-337.319
-337.614
-336.756
-334.725
-331.516
-327.12
-321.505
-314.644
-306.502
-297.031
-286.191
-273.945
-260.248
-245.057
-228.334
-210.041
-190.151
-168.655
-145.565
-120.911
-94.755
-67.1816
-38.3143
-8.29965
22.9786
54.6226
86.6732
118.816
150.695
181.922
212.085
240.762
267.526
291.957
313.65
332.229
347.358
358.753
366.192
369.477
368.582
363.508
354.333
341.155
324.224
303.817
280.272
253.981
225.365
194.877
162.98
130.139
96.8116
63.4297
30.3902
-1.94609
-33.2881
-63.383
-92.0348
-119.097
-144.472
-168.101
-189.957
-210.042
-228.369
-244.971
-259.888
-273.166
-284.852
-294.992
-303.639
-310.846
-316.67
-321.166
-324.401
-326.413
-327.232
-326.927
-325.504
-322.961
-319.288
-314.466
-308.462
-301.243
-292.764
-282.984
-271.867
-259.374
-245.468
-230.12
-213.31
-195.017
-175.228
-153.941
-131.174
-106.961
-81.3604
-54.4585
-26.3737
2.74516
32.7215
63.3681
94.2803
125.214
155.845
185.814
214.735
242.207
267.83
291.194
311.909
329.623
343.99
354.717
361.585
364.417
363.071
357.616
348.066
334.529
317.268
296.603
272.873
246.488
217.914
187.588
155.98
123.563
90.8073
58.1417
25.9492
-4.61267
-34.3655
-63.0426
-90.3374
-116.04
-140.02
-162.192
-182.533
-201.054
-217.799
-232.838
-246.253
-258.148
-268.633
-277.82
-285.825
-292.755
-298.702
-303.737
-307.908
-311.23
-313.69
-315.237
-315.779
-315.236
-313.513
-310.435
-305.893
-299.773
-291.957
-282.343
-270.851
-257.426
-242.045
-224.709
-205.437
-184.295
-161.377
-136.789
-110.655
-83.1382
-54.3532
-24.1389
10.4404
41.7223
72.6842
103.238
133.186
162.171
189.861
215.967
240.16
262.156
281.685
298.512
312.463
323.385
331.198
335.919
337.685
336.34
331.75
323.963
313.115
299.372
282.919
-229.701
-247.989
-264.604
-279.533
-292.779
-304.383
-314.378
-322.804
-329.695
-335.085
-339.014
-341.484
-342.539
-342.236
-340.539
-337.397
-332.791
-326.708
-319.096
-309.912
-299.107
-286.636
-272.446
-256.479
-238.709
-219.098
-197.654
-174.378
-149.299
-122.514
-94.099
-64.1466
-32.8092
-0.188811
33.1848
67.106
101.304
135.379
168.925
201.57
232.874
262.428
289.807
314.614
336.515
355.192
370.368
381.834
389.437
393.07
392.628
388.146
379.713
367.355
351.302
331.81
309.117
283.547
255.482
225.285
193.371
160.144
126.03
91.4738
56.9144
22.8019
-9.95942
-42.0083
-73.1874
-103.338
-132.112
-159.335
-184.873
-208.629
-230.558
-250.633
-268.824
-285.131
-299.569
-312.176
-322.956
-331.934
-339.162
-344.677
-348.482
-350.577
-351.266
-350.399
-348.004
-344.128
-338.812
-332.074
-323.929
-314.377
-303.407
-290.992
-277.111
-261.731
-244.819
-226.343
-206.284
-184.634
-161.406
-136.633
-110.377
-82.7269
-53.8023
-23.7414
7.29829
38.9822
71.1011
103.38
135.511
167.155
197.952
227.525
255.485
281.441
305.009
325.818
343.521
357.808
368.416
375.137
377.788
376.295
370.72
361.099
347.51
330.182
309.375
285.403
258.625
229.437
198.261
165.541
131.721
97.2511
62.5674
28.0874
-5.78776
-38.7382
-70.4517
-100.673
-129.2
-155.885
-180.629
-203.379
-224.12
-242.874
-259.681
-274.604
-287.72
-299.113
-308.867
-317.07
-323.802
-329.138
-333.146
-335.898
-337.41
-337.708
-336.849
-334.819
-331.612
-327.217
-321.605
-314.749
-306.611
-297.144
-286.309
-274.068
-260.375
-245.19
-228.471
-210.182
-190.295
-168.802
-145.712
-121.058
-94.8976
-67.3181
-38.4422
-8.4206
22.8857
54.5436
86.618
118.789
150.7
181.96
212.159
240.874
267.676
292.144
313.873
332.485
347.641
359.058
366.512
369.817
368.902
363.825
354.634
341.435
324.476
304.036
280.454
254.123
225.467
194.938
163.001
130.123
96.7621
63.3502
30.2855
-2.0716
-33.4296
-63.5359
-92.1947
-119.261
-144.636
-168.263
-190.116
-210.196
-228.518
-245.114
-260.026
-273.298
-284.979
-295.114
-303.755
-310.957
-316.776
-321.268
-324.499
-326.505
-327.322
-327.017
-325.593
-323.051
-319.381
-314.561
-308.56
-301.345
-292.87
-283.095
-271.982
-259.492
-245.589
-230.246
-213.439
-195.149
-175.362
-154.076
-131.309
-107.094
-81.4897
-54.5817
-26.4876
2.64311
32.6348
63.3019
94.237
125.197
155.857
185.858
214.814
242.321
267.98
291.38
312.129
329.874
344.267
355.017
361.901
364.743
363.404
357.934
348.371
334.816
317.528
296.83
273.063
246.639
218.024
187.657
156.008
123.552
90.76
58.0639
25.8507
-4.73231
-34.5012
-63.1908
-90.4953
-116.203
-140.185
-162.355
-182.691
-201.207
-217.943
-232.973
-246.379
-258.264
-268.739
-277.916
-285.912
-292.834
-298.774
-303.806
-307.975
-311.299
-313.762
-315.314
-315.862
-315.332
-313.617
-310.549
-306.018
-299.908
-292.101
-282.494
-271.009
-257.588
-242.209
-224.874
-205.601
-184.456
-161.532
-136.936
-110.794
-83.2683
-54.4755
-24.2488
10.3816
41.6829
72.663
103.241
133.216
162.23
189.95
216.085
240.306
262.327
281.88
298.726
312.694
323.629
331.451
336.175
337.956
336.587
331.992
324.196
313.335
299.575
283.103
-229.931
-248.213
-264.821
-279.743
-292.983
-304.58
-314.568
-322.988
-329.874
-335.259
-339.183
-341.654
-342.716
-342.41
-340.71
-337.571
-332.97
-326.892
-319.286
-310.11
-299.313
-286.851
-272.669
-256.711
-238.949
-219.343
-197.903
-174.627
-149.546
-122.756
-94.3332
-64.3684
-33.0171
-0.373382
33.0301
66.9898
101.231
135.352
168.949
201.647
233.006
262.616
290.051
314.91
336.859
355.578
370.788
382.281
389.9
393.539
393.114
388.604
380.151
367.768
351.681
332.147
309.407
283.785
255.666
225.414
193.444
160.162
125.995
91.3864
56.7767
22.6299
-10.1205
-42.1889
-73.3953
-103.567
-132.355
-159.585
-185.125
-208.881
-230.809
-250.88
-269.065
-285.367
-299.799
-312.4
-323.174
-332.145
-339.369
-344.879
-348.676
-350.766
-351.456
-350.58
-348.179
-344.301
-338.983
-332.245
-324.101
-314.552
-303.585
-291.176
-277.302
-261.929
-245.023
-226.553
-206.498
-184.852
-161.624
-136.849
-110.587
-82.9281
-53.9908
-23.912
7.15208
38.8623
71.012
103.327
135.497
167.186
198.03
227.654
255.667
281.676
305.295
326.154
343.902
358.228
368.867
375.608
378.284
376.776
371.192
361.548
347.928
330.56
309.705
285.68
258.844
229.597
198.362
165.583
131.708
97.1864
62.4552
27.9326
-5.97617
-38.9565
-70.6927
-100.93
-129.467
-156.156
-180.899
-203.644
-224.378
-243.122
-259.917
-274.828
-287.932
-299.312
-309.054
-317.246
-323.967
-329.295
-333.297
-336.043
-337.547
-337.847
-336.987
-334.956
-331.753
-327.361
-321.754
-314.903
-306.77
-297.31
-286.482
-274.248
-260.563
-245.386
-228.674
-210.391
-190.51
-169.02
-145.931
-121.274
-95.1091
-67.5205
-38.6314
-8.60095
22.7496
54.4273
86.5376
118.751
150.708
182.02
212.273
241.045
267.904
292.429
314.211
332.871
348.069
359.519
366.994
370.322
369.393
364.304
355.09
341.859
324.857
304.367
280.729
254.339
225.621
195.031
163.035
130.102
96.6898
63.233
30.1304
-2.25782
-33.6397
-63.763
-92.4324
-119.504
-144.88
-168.505
-190.353
-210.425
-228.739
-245.327
-260.23
-273.494
-285.166
-295.294
-303.928
-311.122
-316.934
-321.418
-324.641
-326.639
-327.456
-327.15
-325.725
-323.184
-319.517
-314.701
-308.705
-301.496
-293.027
-283.258
-272.151
-259.667
-245.77
-230.432
-213.63
-195.344
-175.56
-154.276
-131.51
-107.291
-81.6819
-54.7642
-26.6565
2.49178
32.5061
63.2045
94.1736
125.172
155.876
185.926
214.933
242.494
268.207
291.66
312.46
330.251
344.685
355.468
362.377
365.23
363.903
358.413
348.831
335.246
317.917
297.17
273.348
246.865
218.19
187.76
156.05
123.536
90.6889
57.9467
25.7028
-4.91229
-34.7049
-63.4134
-90.7324
-116.448
-140.433
-162.601
-182.93
-201.435
-218.16
-233.177
-246.568
-258.438
-268.897
-278.06
-286.042
-292.952
-298.884
-303.91
-308.077
-311.401
-313.869
-315.429
-315.989
-315.475
-313.773
-310.72
-306.205
-300.11
-292.317
-282.722
-271.245
-257.831
-242.456
-225.122
-205.848
-184.697
-161.766
-137.158
-111.003
-83.4636
-54.6594
-24.4167
10.2955
41.6242
72.6311
103.245
133.262
162.319
190.083
216.261
240.524
262.584
282.171
299.047
313.04
323.994
331.83
336.559
338.355
336.96
332.355
324.547
313.666
299.881
283.38
-230.238
-248.511
-265.111
-280.024
-293.254
-304.842
-314.822
-323.234
-330.112
-335.491
-339.408
-341.878
-342.946
-342.638
-340.938
-337.803
-333.208
-327.137
-319.54
-310.374
-299.587
-287.137
-272.967
-257.02
-239.268
-219.67
-198.234
-174.96
-149.876
-123.08
-94.6459
-64.6645
-33.2947
-0.620485
32.8237
66.8345
101.133
135.317
168.98
201.75
233.182
262.867
290.376
315.305
337.318
356.093
371.349
382.877
390.519
394.165
393.754
389.222
380.737
368.32
352.186
332.596
309.793
284.102
255.91
225.585
193.542
160.187
125.949
91.2695
56.5916
22.3954
-10.3305
-42.429
-73.6733
-103.873
-132.678
-159.917
-185.462
-209.218
-231.143
-251.209
-269.387
-285.682
-300.106
-312.698
-323.464
-332.428
-339.645
-345.147
-348.935
-351.033
-351.708
-350.821
-348.413
-344.532
-339.211
-332.473
-324.331
-314.785
-303.822
-291.421
-277.555
-262.191
-245.294
-226.832
-206.784
-185.141
-161.915
-137.136
-110.867
-83.1958
-54.2418
-24.1403
6.95824
38.703
70.8936
103.256
135.48
167.227
198.136
227.827
255.909
281.989
305.678
326.603
344.412
358.79
369.47
376.238
378.932
377.43
371.827
362.149
348.488
331.066
310.147
286.049
259.138
229.811
198.497
165.641
131.692
97.1005
62.3058
27.7262
-6.2272
-39.2473
-71.014
-101.273
-129.822
-156.517
-181.259
-203.997
-224.722
-243.452
-260.232
-275.126
-288.214
-299.577
-309.303
-317.479
-324.188
-329.504
-333.497
-336.234
-337.73
-338.031
-337.169
-335.14
-331.94
-327.552
-321.951
-315.108
-306.983
-297.531
-286.713
-274.489
-260.814
-245.646
-228.943
-210.669
-190.795
-169.31
-146.222
-121.563
-95.391
-67.79
-38.8829
-8.84445
22.5711
54.2721
86.4306
118.7
150.72
182.099
212.426
241.273
268.209
292.808
314.662
333.387
348.641
360.134
367.637
370.984
370.058
364.949
355.699
342.425
325.366
304.808
281.097
254.627
225.828
195.156
163.081
130.073
96.5935
63.0768
29.9236
-2.50614
-33.92
-64.066
-92.7494
-119.828
-145.205
-168.826
-190.667
-210.73
-229.034
-245.611
-260.502
-273.755
-285.416
-295.534
-304.158
-311.342
-317.143
-321.617
-324.831
-326.82
-327.635
-327.325
-325.9
-323.361
-319.698
-314.887
-308.899
-301.697
-293.236
-283.476
-272.377
-259.9
-246.01
-230.679
-213.884
-195.603
-175.824
-154.543
-131.776
-107.555
-81.9378
-55.0071
-26.8818
2.28988
32.334
63.0752
94.0893
125.14
155.903
186.016
215.093
242.725
268.509
292.034
312.901
330.753
345.242
356.07
363.01
365.88
364.564
359.057
349.445
335.82
318.438
297.625
273.728
247.166
218.41
187.898
156.107
123.514
90.5934
57.7893
25.5052
-5.15323
-34.9763
-63.7103
-91.0488
-116.775
-140.763
-162.928
-183.248
-201.741
-218.45
-233.448
-246.82
-258.67
-269.109
-278.252
-286.216
-293.11
-299.029
-304.047
-308.211
-311.538
-314.012
-315.582
-316.158
-315.664
-313.981
-310.949
-306.455
-300.38
-292.605
-283.025
-271.561
-258.156
-242.785
-225.453
-206.176
-185.019
-162.077
-137.454
-111.281
-83.724
-54.9056
-24.6505
10.1883
41.5466
72.5882
103.25
133.322
162.438
190.261
216.497
240.815
262.926
282.56
299.476
313.501
324.481
332.334
337.07
338.879
337.465
332.841
325.015
314.107
300.289
283.748
-230.622
-248.885
-265.473
-280.375
-293.594
-305.17
-315.14
-323.542
-330.411
-335.782
-339.689
-342.156
-343.226
-342.922
-341.223
-338.093
-333.506
-327.444
-319.857
-310.703
-299.931
-287.495
-273.339
-257.406
-239.667
-220.079
-198.649
-175.375
-150.289
-123.486
-95.0375
-65.0355
-33.6418
-0.93088
32.5653
66.6397
101.01
135.271
169.019
201.877
233.402
263.181
290.782
315.799
337.891
356.736
372.051
383.623
391.293
394.95
394.544
389.999
381.472
369.01
352.818
333.157
310.277
284.499
256.216
225.798
193.663
160.217
125.891
91.1229
56.3583
22.0965
-10.5881
-42.7281
-74.0217
-104.257
-133.084
-160.333
-185.883
-209.639
-231.561
-251.62
-269.79
-286.076
-300.49
-313.072
-323.826
-332.781
-339.991
-345.481
-349.261
-351.368
-352.022
-351.122
-348.706
-344.82
-339.496
-332.757
-324.618
-315.076
-304.119
-291.727
-277.873
-262.52
-245.633
-227.182
-207.142
-185.504
-162.278
-137.496
-111.218
-83.5309
-54.5559
-24.4277
6.71666
38.5036
70.7452
103.167
135.458
167.279
198.267
228.043
256.213
282.381
306.158
327.165
345.05
359.493
370.225
377.027
379.738
378.248
372.623
362.903
349.188
331.698
310.7
286.512
259.505
230.079
198.666
165.713
131.67
96.9926
62.1184
27.4669
-6.54113
-39.6116
-71.4165
-101.702
-130.267
-156.968
-181.709
-204.44
-225.152
-243.865
-260.625
-275.499
-288.566
-299.908
-309.614
-317.771
-324.463
-329.766
-333.747
-336.473
-337.961
-338.261
-337.397
-335.37
-332.174
-327.791
-322.199
-315.364
-307.248
-297.807
-287.002
-274.79
-261.127
-245.971
-229.281
-211.018
-191.152
-169.673
-146.586
-121.924
-95.7438
-68.1274
-39.1969
-9.15205
22.3493
54.0765
86.2963
118.636
150.734
182.199
212.617
241.558
268.59
293.284
315.226
334.032
349.356
360.904
368.444
371.808
370.89
365.757
356.463
343.133
326.003
305.361
281.556
254.987
226.086
195.312
163.138
130.037
96.4724
62.8806
29.6642
-2.8174
-34.2711
-64.4453
-93.1464
-120.233
-145.612
-169.229
-191.061
-211.112
-229.402
-245.965
-260.842
-274.081
-285.729
-295.834
-304.445
-311.616
-317.405
-321.867
-325.067
-327.047
-327.858
-327.545
-326.119
-323.583
-319.925
-315.12
-309.141
-301.948
-293.497
-283.748
-272.659
-260.191
-246.31
-230.989
-214.201
-195.928
-176.154
-154.877
-132.11
-107.885
-82.258
-55.3116
-27.164
2.03665
32.1173
62.9137
93.9835
125.099
155.935
186.128
215.291
243.013
268.886
292.501
313.453
331.381
345.939
356.823
363.803
366.694
365.387
359.866
350.214
336.539
319.089
298.194
274.203
247.543
218.685
188.069
156.177
123.486
90.4731
57.5906
25.257
-5.45547
-35.3153
-64.0817
-91.4451
-117.185
-141.177
-163.337
-183.645
-202.123
-218.812
-233.788
-247.135
-258.96
-269.373
-278.491
-286.432
-293.307
-299.211
-304.219
-308.379
-311.708
-314.19
-315.774
-316.371
-315.9
-314.241
-311.234
-306.767
-300.718
-292.965
-283.404
-271.956
-258.561
-243.197
-225.867
-206.587
-185.421
-162.466
-137.824
-111.629
-84.0495
-55.2144
-24.9544
10.0636
41.4501
72.5339
103.255
133.397
162.587
190.483
216.792
241.179
263.355
283.047
300.012
314.077
325.09
332.964
337.709
339.526
338.1
333.452
325.601
314.659
300.798
284.209
-231.083
-249.334
-265.908
-280.796
-294.001
-305.564
-315.52
-323.911
-330.769
-336.13
-340.027
-342.49
-343.559
-343.26
-341.564
-338.441
-333.863
-327.812
-320.238
-311.098
-300.342
-287.924
-273.786
-257.87
-240.147
-220.571
-199.147
-175.875
-150.785
-123.973
-95.5083
-65.4822
-34.0584
-1.3055
32.2544
66.405
100.861
135.216
169.064
202.029
233.666
263.557
291.27
316.392
338.58
357.509
372.894
384.519
392.223
395.895
395.49
390.932
382.358
369.84
353.577
333.832
310.857
284.975
256.583
226.053
193.807
160.253
125.82
90.9465
56.0753
21.7301
-10.891
-43.086
-74.4414
-104.719
-133.572
-160.834
-186.389
-210.145
-232.063
-252.114
-270.273
-286.549
-300.951
-313.52
-324.262
-333.205
-340.405
-345.883
-349.653
-351.768
-352.397
-351.483
-349.057
-345.165
-339.838
-333.099
-324.962
-315.424
-304.476
-292.095
-278.253
-262.914
-246.041
-227.601
-207.571
-185.939
-162.715
-137.928
-111.639
-83.9337
-54.9338
-24.7752
6.4273
38.2635
70.5662
103.059
135.43
167.34
198.424
228.301
256.577
282.852
306.733
327.84
345.816
360.338
371.132
377.977
380.709
379.229
373.579
363.81
350.03
332.458
311.363
287.068
259.945
230.4
198.868
165.798
131.644
96.8621
61.8925
27.1537
-6.91838
-40.0504
-71.9008
-102.218
-130.802
-157.511
-182.251
-204.972
-225.668
-244.361
-261.098
-275.948
-288.988
-300.305
-309.987
-318.122
-324.794
-330.079
-334.046
-336.759
-338.24
-338.537
-337.671
-335.645
-332.454
-328.078
-322.495
-315.672
-307.568
-298.14
-287.349
-275.151
-261.503
-246.362
-229.686
-211.436
-191.582
-170.109
-147.024
-122.359
-96.1681
-68.5332
-39.573
-9.46668
22.0262
53.8387
86.1339
118.558
150.75
182.318
212.845
241.9
269.046
293.854
315.904
334.808
350.215
361.83
369.415
372.799
371.888
366.727
357.382
343.984
326.768
306.025
282.108
255.419
226.395
195.499
163.206
129.993
96.3257
62.6438
29.3515
-3.19235
-34.6938
-64.9018
-93.6241
-120.721
-146.101
-169.712
-191.534
-211.57
-229.845
-246.391
-261.251
-274.473
-286.105
-296.194
-304.79
-311.946
-317.719
-322.166
-325.351
-327.32
-328.125
-327.808
-326.381
-323.848
-320.196
-315.4
-309.431
-302.249
-293.811
-284.075
-272.997
-260.54
-246.671
-231.361
-214.583
-196.317
-176.551
-155.278
-132.512
-108.281
-82.6428
-55.6781
-27.5038
1.73158
31.8551
62.72
93.8553
125.048
155.972
186.262
215.529
243.358
269.339
293.061
314.116
332.136
346.777
357.727
364.755
367.673
366.374
360.838
351.14
337.402
319.871
298.876
274.774
247.996
219.015
188.274
156.26
123.452
90.3275
57.3493
24.9563
-5.81849
-35.7213
-64.5281
-91.9214
-117.677
-141.674
-163.829
-184.123
-202.581
-219.247
-234.195
-247.514
-259.308
-269.69
-278.778
-286.692
-293.543
-299.428
-304.424
-308.58
-311.912
-314.404
-316.004
-316.625
-316.183
-314.552
-311.577
-307.142
-301.123
-293.398
-283.86
-272.43
-259.049
-243.692
-226.364
-207.081
-185.904
-162.934
-138.269
-112.047
-84.4401
-55.5863
-25.3301
9.92292
41.3338
72.4673
103.261
133.486
162.765
190.749
217.145
241.616
263.87
283.631
300.655
314.77
325.82
333.72
338.476
340.299
338.862
334.187
326.304
315.322
301.41
284.763
-231.621
-249.857
-266.416
-281.288
-294.476
-306.023
-315.965
-324.341
-331.187
-336.536
-340.423
-342.88
-343.946
-343.653
-341.962
-338.846
-334.281
-328.241
-320.682
-311.559
-300.823
-288.425
-274.307
-258.412
-240.706
-221.144
-199.73
-176.458
-151.364
-124.542
-96.0589
-66.005
-34.5445
-1.74565
31.8904
66.13
100.686
135.151
169.116
202.206
233.972
263.996
291.839
317.084
339.385
358.412
373.878
385.565
393.31
397
396.595
392.018
383.394
370.809
354.463
334.619
311.533
285.53
257.011
226.351
193.976
160.295
125.737
90.7399
55.7415
21.2916
-11.2351
-43.5027
-74.9332
-105.26
-134.142
-161.418
-186.98
-210.735
-232.649
-252.691
-270.838
-287.1
-301.49
-314.043
-324.77
-333.7
-340.888
-346.353
-350.111
-352.213
-352.833
-351.904
-349.467
-345.568
-340.237
-333.497
-325.363
-315.831
-304.893
-292.525
-278.697
-263.374
-246.517
-228.091
-208.072
-186.447
-163.225
-138.433
-112.131
-84.4047
-55.3757
-25.1835
6.08973
37.982
70.3559
102.932
135.396
167.41
198.606
228.601
257
283.4
307.404
328.628
346.71
361.325
372.193
379.088
381.846
380.372
374.694
364.869
351.014
333.346
312.137
287.716
260.458
230.774
199.102
165.895
131.612
96.7084
61.6274
26.7864
-7.3603
-40.5645
-72.4677
-102.822
-131.428
-158.147
-182.883
-205.593
-226.271
-244.94
-261.65
-276.471
-289.482
-300.769
-310.423
-318.532
-325.18
-330.445
-334.395
-337.093
-338.566
-338.859
-337.991
-335.967
-332.78
-328.413
-322.842
-316.03
-307.94
-298.529
-287.754
-275.573
-261.942
-246.818
-230.16
-211.925
-192.083
-170.618
-147.537
-122.867
-96.6646
-69.0081
-40.0125
-9.83623
21.6482
53.559
85.9429
118.466
150.767
182.455
213.11
242.298
269.579
294.519
316.695
335.714
351.219
362.912
370.549
373.96
373.052
367.86
358.456
344.978
327.662
306.8
282.752
255.923
226.755
195.716
163.283
129.939
96.1528
62.3654
28.9848
-3.63179
-35.1888
-65.4362
-94.1828
-121.292
-146.673
-170.278
-192.087
-212.106
-230.362
-246.888
-261.728
-274.931
-286.543
-296.615
-305.192
-312.33
-318.086
-322.515
-325.683
-327.639
-328.436
-328.114
-326.687
-324.158
-320.513
-315.726
-309.769
-302.601
-294.178
-284.456
-273.392
-260.949
-247.093
-231.795
-215.028
-196.773
-177.014
-155.746
-132.981
-108.745
-83.0931
-56.1071
-27.9016
1.37417
31.5467
62.4933
93.7042
124.988
156.014
186.418
215.805
243.76
269.867
293.715
314.89
333.017
347.755
358.784
365.868
368.818
367.527
361.973
352.224
338.411
320.784
299.674
275.44
248.525
219.4
188.514
156.357
123.411
90.1559
57.0636
24.5989
-6.23978
-36.194
-65.0497
-92.4783
-118.253
-142.255
-164.403
-184.681
-203.117
-219.755
-234.671
-247.955
-259.713
-270.06
-279.113
-286.995
-293.817
-299.681
-304.663
-308.814
-312.15
-314.653
-316.272
-316.922
-316.511
-314.915
-311.976
-307.579
-301.597
-293.903
-284.392
-272.983
-259.618
-244.271
-226.945
-207.658
-186.47
-163.48
-138.789
-112.534
-84.8958
-56.021
-25.7784
9.76676
41.1966
72.3875
103.266
133.59
162.972
191.059
217.558
242.127
264.47
284.314
301.407
315.579
326.673
334.603
339.371
341.201
339.751
335.045
327.126
316.096
302.125
285.409
-232.236
-250.455
-266.997
-281.85
-295.019
-306.548
-316.472
-324.833
-331.664
-337
-340.876
-343.324
-344.388
-344.1
-342.415
-339.309
-334.759
-328.731
-321.189
-312.086
-301.372
-288.997
-274.903
-259.031
-241.346
-221.801
-200.396
-177.127
-152.027
-125.194
-96.6897
-66.6046
-35.0999
-2.25279
31.4727
65.814
100.485
135.075
169.174
202.407
234.322
264.497
292.489
317.875
340.305
359.445
375.004
386.763
394.554
398.265
397.857
393.258
384.579
371.92
355.478
335.52
312.307
286.164
257.5
226.691
194.167
160.341
125.642
90.503
55.3562
20.7742
-11.6147
-43.9788
-75.4982
-105.88
-134.795
-162.088
-187.656
-211.411
-233.319
-253.351
-271.483
-287.73
-302.105
-314.641
-325.351
-334.266
-341.44
-346.89
-350.634
-352.722
-353.33
-352.384
-349.936
-346.029
-340.693
-333.953
-325.82
-316.296
-305.369
-293.015
-279.205
-263.9
-247.061
-228.652
-208.646
-187.03
-163.809
-139.012
-112.695
-84.9443
-55.8819
-25.6534
5.70381
37.6584
70.1136
102.785
135.357
167.488
198.812
228.944
257.484
284.027
308.172
329.529
347.734
362.455
373.406
380.36
383.149
381.679
375.971
366.083
352.141
334.363
313.023
288.457
261.044
231.2
199.369
166.006
131.573
96.5305
61.3224
26.365
-7.86843
-41.1549
-73.1182
-103.514
-132.146
-158.874
-183.608
-206.305
-226.961
-245.603
-262.282
-277.07
-290.046
-301.3
-310.921
-319
-325.622
-330.863
-334.794
-337.475
-338.938
-339.226
-338.356
-336.335
-333.154
-328.796
-323.237
-316.44
-308.367
-298.973
-288.216
-276.055
-262.444
-247.341
-230.702
-212.485
-192.658
-171.202
-148.123
-123.449
-97.2336
-69.5529
-40.5169
-10.27
21.2234
53.2375
85.7226
118.358
150.785
182.61
213.411
242.752
270.187
295.279
317.6
336.75
352.369
364.151
371.849
375.29
374.384
369.157
359.686
346.117
328.684
307.687
283.489
256.499
227.166
195.962
163.37
129.877
95.9528
62.0446
28.5632
-4.13653
-35.7572
-66.049
-94.8234
-121.946
-147.328
-170.925
-192.719
-212.72
-230.954
-247.457
-262.274
-275.454
-287.045
-297.096
-305.653
-312.771
-318.506
-322.914
-326.062
-328.003
-328.792
-328.465
-327.037
-324.513
-320.876
-316.1
-310.156
-303.003
-294.597
-284.892
-273.844
-261.417
-247.575
-232.291
-215.537
-197.294
-177.545
-156.283
-133.518
-109.275
-83.6093
-56.5991
-28.3579
0.963842
31.1908
62.2336
93.5296
124.916
156.061
186.594
216.119
244.219
270.47
294.462
315.775
334.026
348.873
359.993
367.141
370.13
368.847
363.271
353.465
339.567
321.831
300.586
276.202
249.129
219.839
188.786
156.466
123.363
89.9576
56.7315
24.1763
-6.71282
-36.7325
-65.6474
-93.1167
-118.913
-142.92
-165.06
-185.32
-203.73
-220.335
-235.215
-248.46
-260.177
-270.482
-279.495
-287.34
-294.131
-299.969
-304.936
-309.08
-312.42
-314.937
-316.579
-317.26
-316.886
-315.33
-312.433
-308.079
-302.138
-294.481
-285.001
-273.617
-260.27
-244.933
-227.61
-208.318
-187.117
-164.106
-139.384
-113.092
-85.4162
-56.5178
-26.3004
9.59576
41.0364
72.2933
103.269
133.707
163.208
191.414
218.03
242.71
265.158
285.094
302.267
316.504
327.649
335.612
340.395
342.232
340.767
336.029
328.067
316.981
302.942
286.148
-232.928
-251.129
-267.65
-282.482
-295.63
-307.138
-317.043
-325.386
-332.201
-337.522
-341.386
-343.823
-344.885
-344.603
-342.925
-339.83
-335.296
-329.282
-321.76
-312.678
-301.99
-289.641
-275.573
-259.727
-242.066
-222.54
-201.146
-177.88
-152.775
-125.928
-97.4014
-67.2819
-35.7279
-2.82552
31.0006
65.4564
100.256
134.988
169.238
202.632
234.714
265.059
293.221
318.766
341.341
360.609
376.273
388.111
395.956
399.691
399.279
394.654
385.916
373.171
356.62
336.535
313.177
286.878
258.049
227.072
194.381
160.392
125.534
90.2354
54.919
20.1681
-12.0215
-44.5148
-76.1377
-106.582
-135.531
-162.843
-188.419
-212.173
-234.074
-254.093
-272.21
-288.44
-302.798
-315.314
-326.005
-334.904
-342.061
-347.494
-351.224
-353.295
-353.888
-352.924
-350.464
-346.547
-341.206
-334.464
-326.334
-316.818
-305.904
-293.567
-279.777
-264.492
-247.673
-229.283
-209.293
-187.686
-164.468
-139.664
-113.331
-85.5531
-56.4529
-26.1861
5.26959
37.2916
69.8387
102.617
135.31
167.574
199.043
229.328
258.027
284.731
309.035
330.544
348.887
363.728
374.775
381.795
384.618
383.152
377.409
367.451
353.41
335.507
314.02
289.292
261.703
231.68
199.668
166.128
131.528
96.3279
60.9767
25.8946
-8.4499
-41.8228
-73.8534
-104.296
-132.956
-159.695
-184.426
-207.108
-227.739
-246.35
-262.994
-277.744
-290.681
-301.897
-311.482
-319.526
-326.118
-331.333
-335.242
-337.905
-339.357
-339.638
-338.766
-336.748
-333.574
-329.228
-323.682
-316.902
-308.847
-299.473
-288.738
-276.598
-263.009
-247.929
-231.312
-213.116
-193.305
-171.86
-148.785
-124.105
-97.8759
-70.1684
-41.088
-10.7713
20.7535
52.8742
85.4724
118.235
150.803
182.783
213.749
243.261
270.871
296.135
318.619
337.918
353.664
365.547
373.314
376.79
375.885
370.618
361.072
347.4
329.836
308.686
284.317
257.146
227.627
196.237
163.466
129.803
95.7249
61.6804
28.0856
-4.70769
-36.3997
-66.7413
-95.5466
-122.684
-148.067
-171.654
-193.432
-213.411
-231.62
-248.097
-262.888
-276.043
-287.61
-297.638
-306.172
-313.266
-318.978