/*--------------------------------*- C++ -*----------------------------------*\
| =========                 |                                                 |
| \\      /  F ield         | OpenFOAM: The Open Source CFD Toolbox           |
|  \\    /   O peration     | Version:  3.0.1                                 |
|   \\  /    A nd           | Web:      www.OpenFOAM.org                      |
|    \\/     M anipulation  |                                                 |
\*---------------------------------------------------------------------------*/
FoamFile
{
    version     2.0;
    format      ascii;
    class       surfaceScalarField;
    location    "98.8";
    object      alphaPhi;
}
// * * * * * * * * * * * * * * * * * * * * * * * * * * * * * * * * * * * * * //

dimensions      [0 3 -1 0 0 0 0];

internalField   nonuniform List<scalar> 
42423
(
0.00020083
-1.11706e-05
0.000210194
-9.36409e-06
0.000217366
-7.17191e-06
0.000222207
-4.84176e-06
0.000224631
-2.42347e-06
0.000224608
2.23958e-08
0.000222166
2.4424e-06
0.000217263
4.90304e-06
0.000209929
7.33377e-06
0.000200506
9.42329e-06
0.000189087
1.14191e-05
0.000175877
1.32099e-05
0.000161225
1.46516e-05
0.000145223
1.60021e-05
0.000128333
1.68903e-05
0.000110683
1.765e-05
9.24598e-05
1.82229e-05
7.40958e-05
1.83639e-05
5.564e-05
1.84558e-05
3.73055e-05
1.83346e-05
1.94004e-05
1.7905e-05
1.98449e-06
1.74159e-05
-1.48537e-05
1.68382e-05
-3.09499e-05
1.60962e-05
-4.62469e-05
1.5297e-05
-6.06655e-05
1.44185e-05
-7.41991e-05
1.35337e-05
-8.68049e-05
1.26058e-05
-9.84832e-05
1.16783e-05
-0.000109256
1.07727e-05
-0.000119133
9.87729e-06
-0.000128125
8.99145e-06
-0.000136274
8.14932e-06
-0.000143586
7.31218e-06
-0.000150117
6.53124e-06
-0.000155871
5.75405e-06
-0.000160885
5.01337e-06
-0.00016516
4.27495e-06
-0.000168738
3.57791e-06
-0.000171621
2.88336e-06
-0.000173797
2.17592e-06
-0.000175278
1.48101e-06
-0.000176088
8.10154e-07
-0.000176183
9.44996e-08
-0.000175529
-6.53308e-07
-0.000174131
-1.39845e-06
-0.000171997
-2.13398e-06
-0.00016907
-2.92676e-06
-0.000165409
-3.66161e-06
-0.000160957
-4.45202e-06
-0.0001556
-5.35638e-06
-0.000149426
-6.17369e-06
-0.000142275
-7.15198e-06
-0.000134313
-7.96145e-06
-0.000125417
-8.89566e-06
-0.000115588
-9.82953e-06
-0.000104737
-1.08509e-05
-9.30653e-05
-1.16718e-05
-8.04428e-05
-1.26225e-05
-6.69187e-05
-1.35242e-05
-5.25283e-05
-1.43904e-05
-3.72166e-05
-1.53118e-05
-2.13644e-05
-1.58522e-05
-4.79271e-06
-1.65718e-05
1.23703e-05
-1.7163e-05
2.98161e-05
-1.74458e-05
4.75338e-05
-1.77178e-05
6.52641e-05
-1.77304e-05
8.29328e-05
-1.76688e-05
0.000100382
-1.74488e-05
0.000117282
-1.69002e-05
0.000133527
-1.62456e-05
0.000148927
-1.53999e-05
0.000163191
-1.42642e-05
0.000176143
-1.29521e-05
0.000187584
-1.14409e-05
0.000197402
-9.81758e-06
0.000205431
-8.02928e-06
0.000211476
-6.04532e-06
0.000215448
-3.97149e-06
0.000217211
-1.76252e-06
0.00021692
2.91125e-07
0.000214405
2.51514e-06
0.000209721
4.68375e-06
0.000203159
6.56218e-06
0.000194771
8.38841e-06
0.000184718
1.00538e-05
0.00017312
1.15978e-05
0.000160053
1.30677e-05
0.000145617
1.44364e-05
0.000129941
1.56764e-05
0.000113199
1.67425e-05
9.56351e-05
1.75641e-05
7.7493e-05
1.81423e-05
5.90343e-05
1.84589e-05
4.05466e-05
1.84878e-05
2.22343e-05
1.83124e-05
4.32522e-06
1.79092e-05
-1.30247e-05
1.73499e-05
-2.96273e-05
1.66025e-05
-4.53316e-05
1.57042e-05
-6.00855e-05
1.47538e-05
-7.38065e-05
1.3721e-05
-8.64248e-05
1.26181e-05
-9.79703e-05
1.15454e-05
-0.000108495
1.05248e-05
-0.000117947
9.4521e-06
-0.000126386
8.43832e-06
-0.000133839
7.45325e-06
-0.000140331
6.4915e-06
-0.000146007
5.67569e-06
-0.000150797
4.79002e-06
-0.000154807
4.01002e-06
-0.000158078
3.2708e-06
-0.000160602
2.52377e-06
-0.000162522
1.91994e-06
-0.000163726
1.20482e-06
-0.000164314
5.87067e-07
-0.000164287
-2.61878e-08
-0.000163625
-6.62491e-07
-0.000162361
-1.26418e-06
-0.000160438
-1.92239e-06
-0.00015792
-2.51845e-06
-0.000154746
-3.17418e-06
-0.000150962
-3.78354e-06
-0.000146527
-4.4351e-06
-0.000141422
-5.10587e-06
-0.000135654
-5.76777e-06
-0.000129162
-6.49162e-06
-0.000121994
-7.16845e-06
-0.000114066
-7.92808e-06
-0.000105378
-8.68826e-06
-9.58879e-05
-9.48978e-06
-8.55956e-05
-1.02923e-05
-7.44536e-05
-1.11421e-05
-6.24633e-05
-1.19903e-05
-4.96621e-05
-1.28013e-05
-3.60199e-05
-1.36423e-05
-2.15865e-05
-1.44335e-05
-6.42748e-06
-1.51591e-05
9.40407e-06
-1.58316e-05
2.58078e-05
-1.64038e-05
4.2576e-05
-1.67683e-05
5.96742e-05
-1.70982e-05
7.69005e-05
-1.72264e-05
9.40185e-05
-1.71181e-05
0.0001109
-1.6882e-05
0.000127278
-1.63779e-05
0.000142874
-1.55964e-05
0.000157501
-1.4627e-05
0.000170857
-1.33557e-05
0.000182721
-1.1864e-05
0.00019286
-1.01395e-05
0.000201075
-8.21489e-06
0.000207184
-6.10946e-06
0.000211073
-3.8892e-06
0.00021256
-1.48704e-06
0.000211743
8.17093e-07
0.000208473
3.27041e-06
0.000202746
5.72614e-06
0.000194766
7.98058e-06
0.000184633
1.01329e-05
0.000172547
1.20862e-05
0.000158751
1.37956e-05
0.000143451
1.52995e-05
0.00012698
1.64709e-05
0.000109582
1.73986e-05
9.15303e-05
1.80515e-05
7.3068e-05
1.84622e-05
5.44627e-05
1.86053e-05
3.59441e-05
1.85186e-05
1.76317e-05
1.83124e-05
-1.81493e-07
1.78131e-05
-1.73442e-05
1.71627e-05
-3.3717e-05
1.63729e-05
-4.93431e-05
1.56261e-05
-6.40004e-05
1.46573e-05
-7.76969e-05
1.36965e-05
-9.03558e-05
1.26589e-05
-0.000102089
1.17329e-05
-0.000112772
1.0683e-05
-0.000122503
9.73121e-06
-0.000131302
8.79874e-06
-0.000139221
7.91966e-06
-0.000146284
7.06251e-06
-0.00015253
6.24598e-06
-0.000157953
5.42379e-06
-0.000162563
4.60971e-06
-0.000166426
3.86262e-06
-0.000169612
3.18668e-06
-0.000172185
2.5729e-06
-0.000174164
1.97865e-06
-0.000175579
1.41473e-06
-0.000176513
9.34613e-07
-0.000176868
3.54474e-07
-0.000176568
-2.99579e-07
-0.000175586
-9.82395e-07
-0.000173939
-1.64723e-06
-0.00017149
-2.44872e-06
-0.000168372
-3.11764e-06
-0.000164545
-3.82706e-06
-0.000160091
-4.45442e-06
-0.000155018
-5.07268e-06
-0.00014926
-5.75846e-06
-0.000142808
-6.45127e-06
-0.000135508
-7.30029e-06
-0.000127578
-7.93016e-06
-0.000118738
-8.83977e-06
-0.000109066
-9.67244e-06
-9.85238e-05
-1.05421e-05
-8.71298e-05
-1.1394e-05
-7.49159e-05
-1.2214e-05
-6.18435e-05
-1.30724e-05
-4.79718e-05
-1.38718e-05
-3.33083e-05
-1.46635e-05
-1.7922e-05
-1.53864e-05
-1.90293e-06
-1.60192e-05
1.46624e-05
-1.65654e-05
3.16051e-05
-1.69428e-05
4.87474e-05
-1.71423e-05
6.59126e-05
-1.71653e-05
8.28815e-05
-1.69689e-05
9.94558e-05
-1.65744e-05
0.000115341
-1.58853e-05
0.000130345
-1.50043e-05
0.000144153
-1.38078e-05
0.00015652
-1.23674e-05
0.000167198
-1.06778e-05
0.00017597
-8.7722e-06
0.000182619
-6.64918e-06
0.000187012
-4.39284e-06
0.00018906
-2.04901e-06
0.000188706
3.54539e-07
0.000185912
2.79378e-06
0.000180707
5.20417e-06
0.000173205
7.50228e-06
0.000163516
9.68881e-06
0.000151797
1.17188e-05
0.000138229
1.35673e-05
0.000123076
1.51531e-05
0.000106624
1.64516e-05
8.91587e-05
1.74653e-05
7.099e-05
1.81686e-05
5.24255e-05
1.85643e-05
3.36548e-05
1.87706e-05
1.50416e-05
1.86132e-05
-3.25725e-06
1.82988e-05
-2.09913e-05
1.77341e-05
-3.81182e-05
1.7127e-05
-5.44378e-05
1.63196e-05
-6.99279e-05
1.54903e-05
-8.45167e-05
1.45889e-05
-9.8319e-05
1.38024e-05
-0.000111142
1.28235e-05
-0.000123054
1.1912e-05
-0.000133947
1.08932e-05
-0.000143912
9.965e-06
-0.000152803
8.89131e-06
-0.000160682
7.87863e-06
-0.000167539
6.85773e-06
-0.000173447
5.90797e-06
-0.000178464
5.01678e-06
-0.000182711
4.24695e-06
-0.000186172
3.46104e-06
-0.000188918
2.74636e-06
-0.000191101
2.1837e-06
-0.00019267
1.56844e-06
-0.000193586
9.167e-07
-0.000194115
5.29027e-07
-0.000193887
-2.28477e-07
-0.00019319
-6.96617e-07
-0.000191748
-1.4423e-06
-0.000189891
-1.85721e-06
-0.000187132
-2.75888e-06
-0.000183829
-3.30309e-06
-0.000179792
-4.03627e-06
-0.000175003
-4.7896e-06
-0.000169342
-5.6611e-06
-0.000162766
-6.57567e-06
-0.000155149
-7.61684e-06
-0.000146502
-8.64731e-06
-0.000136693
-9.80851e-06
-0.000125789
-1.09038e-05
-0.000113905
-1.18849e-05
-0.000101105
-1.27999e-05
-8.73564e-05
-1.37484e-05
-7.28472e-05
-1.45092e-05
-5.75133e-05
-1.5334e-05
-4.15816e-05
-1.59317e-05
-2.49054e-05
-1.66762e-05
-7.55955e-06
-1.73459e-05
1.01948e-05
-1.77545e-05
2.84062e-05
-1.82114e-05
4.69993e-05
-1.85931e-05
6.55856e-05
-1.85864e-05
8.41435e-05
-1.85579e-05
0.000102382
-1.82381e-05
0.000119934
-1.75528e-05
0.000136614
-1.668e-05
0.000152013
-1.53983e-05
0.000165935
-1.39221e-05
0.000178095
-1.21602e-05
0.000188149
-1.00547e-05
0.000195968
-7.81899e-06
0.000201358
-5.38974e-06
0.000204135
-2.77724e-06
0.000204367
-2.32099e-07
0.000201863
2.50404e-06
0.000196834
5.02943e-06
0.000189593
7.24039e-06
0.000180067
9.52585e-06
0.000168659
1.14082e-05
0.00015574
1.29188e-05
0.000141312
1.44283e-05
0.000125839
1.54733e-05
0.000109675
1.61635e-05
9.29093e-05
1.67657e-05
7.60128e-05
1.68965e-05
5.89444e-05
1.70684e-05
4.21583e-05
1.67861e-05
2.55686e-05
1.65897e-05
9.4908e-06
1.60778e-05
-6.00647e-06
1.54973e-05
-2.09422e-05
1.49357e-05
-3.52315e-05
1.42892e-05
-4.88804e-05
1.3649e-05
-6.18531e-05
1.29727e-05
-7.41381e-05
1.2285e-05
-8.5767e-05
1.16288e-05
-9.67267e-05
1.09598e-05
-0.000107015
1.02886e-05
-0.000116657
9.64159e-06
-0.00012562
8.96317e-06
-0.000133888
8.26812e-06
-0.000141464
7.57527e-06
-0.000148313
6.84909e-06
-0.00015442
6.10758e-06
-0.00015975
5.33024e-06
-0.000164282
4.53137e-06
-0.000167988
3.70597e-06
-0.000170829
2.84116e-06
-0.000172784
1.95548e-06
-0.000173862
1.07758e-06
-0.000174025
1.62548e-07
-0.000173183
-8.41396e-07
-0.000171382
-1.80087e-06
-0.000168591
-2.79113e-06
-0.000164882
-3.70882e-06
-0.000160251
-4.63126e-06
-0.000154646
-5.60538e-06
-0.000148167
-6.47898e-06
-0.000140722
-7.44452e-06
-0.000132455
-8.26747e-06
-0.000123368
-9.08686e-06
-0.000113346
-1.00219e-05
-0.000102541
-1.0805e-05
-1.15724e-05
0.000200923
-2.23606e-05
0.000210307
-1.87474e-05
0.000217498
-1.43633e-05
0.000222342
-9.68537e-06
0.000224761
-4.84278e-06
0.000224735
4.79288e-08
0.000222282
4.89578e-06
0.000217375
9.81008e-06
0.000210034
1.46744e-05
0.000200606
1.88517e-05
0.000189179
2.28459e-05
0.000175955
2.64339e-05
0.000161295
2.93119e-05
0.000145286
3.20109e-05
0.000128376
3.38e-05
0.000110716
3.53102e-05
9.24797e-05
3.6459e-05
7.41069e-05
3.67367e-05
5.56395e-05
3.69232e-05
3.73069e-05
3.66671e-05
1.93837e-05
3.58283e-05
1.96262e-06
3.4837e-05
-1.48784e-05
3.36792e-05
-3.09793e-05
3.21971e-05
-4.62809e-05
3.05986e-05
-6.0702e-05
2.88396e-05
-7.42392e-05
2.70708e-05
-8.68488e-05
2.52154e-05
-9.85297e-05
2.33592e-05
-0.000109304
2.1547e-05
-0.00011918
1.97537e-05
-0.000128168
1.79793e-05
-0.000136317
1.62983e-05
-0.000143631
1.46263e-05
-0.000150164
1.30643e-05
-0.000155918
1.15077e-05
-0.000160933
1.00283e-05
-0.000165212
8.55377e-06
-0.000168796
7.16223e-06
-0.000171677
5.76404e-06
-0.000173853
4.35229e-06
-0.000175341
2.96875e-06
-0.000176146
1.615e-06
-0.000176238
1.86917e-07
-0.000175583
-1.30845e-06
-0.000174186
-2.79564e-06
-0.000172052
-4.26787e-06
-0.000169126
-5.85322e-06
-0.000165462
-7.32483e-06
-0.000161016
-8.8984e-06
-0.000155663
-1.07097e-05
-0.000149489
-1.23477e-05
-0.000142346
-1.42944e-05
-0.000134369
-1.59386e-05
-0.000125482
-1.77835e-05
-0.000115654
-1.96569e-05
-0.000104799
-2.17062e-05
-9.31283e-05
-2.33425e-05
-8.05021e-05
-2.52488e-05
-6.69817e-05
-2.70447e-05
-5.25838e-05
-2.87883e-05
-3.72753e-05
-3.06204e-05
-2.14064e-05
-3.17211e-05
-4.82968e-06
-3.31486e-05
1.23485e-05
-3.43413e-05
2.97989e-05
-3.48963e-05
4.75262e-05
-3.54451e-05
6.52641e-05
-3.54684e-05
8.29366e-05
-3.53414e-05
0.000100393
-3.49056e-05
0.000117312
-3.38191e-05
0.000133564
-3.24977e-05
0.000148978
-3.08139e-05
0.000163256
-2.8542e-05
0.00017622
-2.5916e-05
0.000187676
-2.28974e-05
0.000197489
-1.96299e-05
0.000205527
-1.60681e-05
0.000211582
-1.20997e-05
0.000215558
-7.94741e-06
0.000217321
-3.52536e-06
0.000217029
5.83269e-07
0.000214505
5.03894e-06
0.000209828
9.36073e-06
0.000203264
1.31273e-05
0.000194873
1.6779e-05
0.000184824
2.01032e-05
0.000173228
2.31946e-05
0.000160163
2.61334e-05
0.000145729
2.88702e-05
0.000130056
3.13498e-05
0.000113316
3.34829e-05
9.57442e-05
3.51366e-05
7.75932e-05
3.62936e-05
5.91206e-05
3.69316e-05
4.06167e-05
3.69919e-05
2.22761e-05
3.66532e-05
4.36567e-06
3.58196e-05
-1.30021e-05
3.47177e-05
-2.96227e-05
3.32231e-05
-4.53394e-05
3.14208e-05
-6.01003e-05
2.95146e-05
-7.38243e-05
2.74449e-05
-8.64583e-05
2.52521e-05
-9.80254e-05
2.31124e-05
-0.000108548
2.10475e-05
-0.00011801
1.89143e-05
-0.000126452
1.68793e-05
-0.000133904
1.49057e-05
-0.000140404
1.29911e-05
-0.000146082
1.13543e-05
-0.000150877
9.58442e-06
-0.000154891
8.02425e-06
-0.000158166
6.54511e-06
-0.000160688
5.04571e-06
-0.000162612
3.84409e-06
-0.000163822
2.41498e-06
-0.000164411
1.17553e-06
-0.000164386
-5.08941e-08
-0.000163721
-1.32737e-06
-0.000162471
-2.51392e-06
-0.000160553
-3.84035e-06
-0.000158046
-5.02628e-06
-0.000154887
-6.33297e-06
-0.000151107
-7.56325e-06
-0.000146672
-8.87067e-06
-0.000141582
-1.01957e-05
-0.000135811
-1.15386e-05
-0.000129353
-1.295e-05
-0.000122175
-1.43459e-05
-0.000114271
-1.58323e-05
-0.000105572
-1.73874e-05
-9.61086e-05
-1.89534e-05
-8.58056e-05
-2.05953e-05
-7.46872e-05
-2.22606e-05
-6.27207e-05
-2.39568e-05
-4.99112e-05
-2.56109e-05
-3.6279e-05
-2.72746e-05
-2.18452e-05
-2.88674e-05
-6.68591e-06
-3.03185e-05
9.1514e-06
-3.16691e-05
2.55405e-05
-3.2793e-05
4.2333e-05
-3.3561e-05
5.94319e-05
-3.41972e-05
7.66599e-05
-3.44545e-05
9.3817e-05
-3.42753e-05
0.000110705
-3.37701e-05
0.000127104
-3.27765e-05
0.000142714
-3.12067e-05
0.000157363
-2.92763e-05
0.000170754
-2.67469e-05
0.00018264
-2.37499e-05
0.000192804
-2.03035e-05
0.000201038
-1.645e-05
0.000207162
-1.22329e-05
0.000211061
-7.7881e-06
0.000212567
-2.99321e-06
0.000211747
1.63702e-06
0.000208465
6.55131e-06
0.000202747
1.14449e-05
0.000194774
1.59532e-05
0.000184638
2.0269e-05
0.000172552
2.41722e-05
0.000158739
2.7608e-05
0.00014344
3.05989e-05
0.000126953
3.29572e-05
0.000109559
3.4793e-05
9.14754e-05
3.6135e-05
7.30192e-05
3.69185e-05
5.44025e-05
3.72219e-05
3.58455e-05
3.70756e-05
1.75534e-05
3.66045e-05
-2.71421e-07
3.5638e-05
-1.74486e-05
3.43399e-05
-3.38516e-05
3.27759e-05
-4.94618e-05
3.12363e-05
-6.41195e-05
2.93151e-05
-7.7823e-05
2.74001e-05
-9.05114e-05
2.53474e-05
-0.000102222
2.34436e-05
-0.000112909
2.13697e-05
-0.000122638
1.94609e-05
-0.00013144
1.76e-05
-0.000139367
1.58471e-05
-0.000146434
1.41298e-05
-0.00015268
1.24917e-05
-0.000158103
1.08472e-05
-0.000162721
9.22758e-06
-0.000166587
7.72858e-06
-0.000169779
6.37873e-06
-0.000172356
5.15e-06
-0.000174338
3.96004e-06
-0.000175755
2.83225e-06
-0.000176701
1.87998e-06
-0.000177062
7.16363e-07
-0.000176781
-5.80682e-07
-0.000175767
-1.99687e-06
-0.000174159
-3.25515e-06
-0.00017172
-4.88757e-06
-0.000168604
-6.23333e-06
-0.000164786
-7.64502e-06
-0.000160337
-8.90398e-06
-0.000155258
-1.01521e-05
-0.000149515
-1.15011e-05
-0.000143064
-1.29022e-05
-0.000135826
-1.45379e-05
-0.000127849
-1.59073e-05
-0.000118988
-1.77014e-05
-0.000109326
-1.93344e-05
-9.87977e-05
-2.10702e-05
-8.74058e-05
-2.27859e-05
-7.51796e-05
-2.44403e-05
-6.20998e-05
-2.61522e-05
-4.82004e-05
-2.77713e-05
-3.35518e-05
-2.93122e-05
-1.81583e-05
-3.07798e-05
-2.12553e-06
-3.20521e-05
1.44566e-05
-3.31476e-05
3.14139e-05
-3.39002e-05
4.85702e-05
-3.42987e-05
6.57497e-05
-3.4345e-05
8.27481e-05
-3.39674e-05
9.93282e-05
-3.31546e-05
0.00011525
-3.18073e-05
0.000130275
-3.00296e-05
0.000144105
-2.76374e-05
0.000156483
-2.47455e-05
0.000167205
-2.13997e-05
0.000175965
-1.75331e-05
0.000182623
-1.33068e-05
0.000187018
-8.78798e-06
0.000189067
-4.0984e-06
0.000188718
7.02852e-07
0.000185929
5.58327e-06
0.000180719
1.04131e-05
0.000173202
1.50196e-05
0.000163499
1.93915e-05
0.000151764
2.34541e-05
0.000138186
2.71449e-05
0.000123024
3.03147e-05
0.000106561
3.29141e-05
8.90916e-05
3.49349e-05
7.08971e-05
3.63629e-05
5.23154e-05
3.71459e-05
3.35527e-05
3.75333e-05
1.49294e-05
3.72364e-05
-3.36875e-06
3.65969e-05
-2.11225e-05
3.54878e-05
-3.82397e-05
3.42442e-05
-5.45575e-05
3.26375e-05
-7.00484e-05
3.09813e-05
-8.46471e-05
2.91877e-05
-9.84307e-05
2.75861e-05
-0.000111255
2.56475e-05
-0.000123166
2.38236e-05
-0.000134055
2.17825e-05
-0.000144021
1.99306e-05
-0.000152911
1.77823e-05
-0.000160781
1.57487e-05
-0.000167639
1.37153e-05
-0.000173546
1.1815e-05
-0.000178552
1.00235e-05
-0.000182788
8.48264e-06
-0.000186249
6.9227e-06
-0.000188995
5.49241e-06
-0.000191178
4.36641e-06
-0.000192752
3.14239e-06
-0.000193658
1.82266e-06
-0.000194179
1.05032e-06
-0.000193949
-4.5821e-07
-0.000193253
-1.3922e-06
-0.000191806
-2.88949e-06
-0.000189946
-3.71671e-06
-0.000187193
-5.51206e-06
-0.000183892
-6.60457e-06
-0.00017985
-8.07785e-06
-0.000175063
-9.57721e-06
-0.00016941
-1.13141e-05
-0.000162834
-1.31515e-05
-0.000155215
-1.52353e-05
-0.000146567
-1.72954e-05
-0.000136764
-1.96119e-05
-0.000125857
-2.1811e-05
-0.000113975
-2.37663e-05
-0.000101163
-2.56127e-05
-8.74055e-05
-2.75056e-05
-7.28935e-05
-2.90213e-05
-5.75587e-05
-3.06689e-05
-4.16254e-05
-3.18651e-05
-2.49462e-05
-3.33555e-05
-7.59591e-06
-3.46963e-05
1.01685e-05
-3.5519e-05
2.83865e-05
-3.64295e-05
4.69927e-05
-3.71995e-05
6.55891e-05
-3.71829e-05
8.41594e-05
-3.71283e-05
0.00010241
-3.64889e-05
0.000119979
-3.51224e-05
0.000136671
-3.33713e-05
0.000152076
-3.08033e-05
0.000166018
-2.78645e-05
0.000178196
-2.43388e-05
0.000188252
-2.01107e-05
0.00019608
-1.56468e-05
0.000201479
-1.07892e-05
0.000204261
-5.55898e-06
0.000204491
-4.61976e-07
0.000201977
5.01756e-06
0.000196945
1.00616e-05
0.0001897
1.44849e-05
0.000180165
1.90614e-05
0.000168743
2.28295e-05
0.000155809
2.58526e-05
0.000141373
2.88649e-05
0.000125885
3.09607e-05
0.000109711
3.23374e-05
9.29338e-05
3.35431e-05
7.6027e-05
3.38032e-05
5.8948e-05
3.41473e-05
4.21559e-05
3.35783e-05
2.55573e-05
3.31882e-05
9.47311e-06
3.21619e-05
-6.02448e-06
3.09948e-05
-2.09635e-05
2.98747e-05
-3.52562e-05
2.85819e-05
-4.89089e-05
2.73016e-05
-6.18837e-05
2.59476e-05
-7.41706e-05
2.45718e-05
-8.5801e-05
2.32593e-05
-9.67635e-05
2.19222e-05
-0.000107052
2.05768e-05
-0.000116693
1.92827e-05
-0.000125658
1.7928e-05
-0.000133928
1.65388e-05
-0.000141506
1.51529e-05
-0.000148359
1.37021e-05
-0.000154468
1.2217e-05
-0.000159804
1.06661e-05
-0.000164336
9.06328e-06
-0.000168039
7.40884e-06
-0.000170881
5.68292e-06
-0.000172839
3.9134e-06
-0.000173919
2.15779e-06
-0.000174078
3.2165e-07
-0.000173236
-1.68322e-06
-0.000171434
-3.60292e-06
-0.00016864
-5.58478e-06
-0.000164929
-7.41984e-06
-0.000160297
-9.26315e-06
-0.00015469
-1.12133e-05
-0.000148208
-1.29604e-05
-0.000140761
-1.48917e-05
-0.000132491
-1.6537e-05
-0.000123403
-1.81754e-05
-0.000113379
-2.00456e-05
-0.000102572
-2.16122e-05
-2.31472e-05
0.000201098
-3.35765e-05
0.000210512
-2.81612e-05
0.000217719
-2.15706e-05
0.000222582
-1.45478e-05
0.000225017
-7.27825e-06
0.000224964
1.0103e-07
0.000222474
7.38598e-06
0.000217554
1.47298e-05
0.000210199
2.20295e-05
0.000200761
2.829e-05
0.000189322
3.4284e-05
0.000176071
3.96856e-05
0.000161395
4.39874e-05
0.000145367
4.80394e-05
0.000128433
5.07339e-05
0.000110756
5.2987e-05
9.24977e-05
5.47173e-05
7.41107e-05
5.51238e-05
5.56237e-05
5.54102e-05
3.73096e-05
5.49811e-05
1.93429e-05
5.3795e-05
1.91088e-06
5.2269e-05
-1.49405e-05
5.05305e-05
-3.10489e-05
4.83055e-05
-4.63562e-05
4.59058e-05
-6.07823e-05
4.32658e-05
-7.43234e-05
4.06119e-05
-8.69324e-05
3.78244e-05
-9.86141e-05
3.50409e-05
-0.000109388
3.23207e-05
-0.000119265
2.96307e-05
-0.000128252
2.69667e-05
-0.0001364
2.44458e-05
-0.000143712
2.19387e-05
-0.000150244
1.95963e-05
-0.000155996
1.72595e-05
-0.000161012
1.50445e-05
-0.000165291
1.28326e-05
-0.000168871
1.07421e-05
-0.000171753
8.64582e-06
-0.000173932
6.53208e-06
-0.000175417
4.4536e-06
-0.000176215
2.41248e-06
-0.000176308
2.79799e-07
-0.000175643
-1.97351e-06
-0.000174247
-4.19091e-06
-0.000172112
-6.40351e-06
-0.000169186
-8.77915e-06
-0.000165523
-1.09878e-05
-0.000161081
-1.33404e-05
-0.000155733
-1.60577e-05
-0.000149558
-1.85228e-05
-0.000142429
-2.14232e-05
-0.000134435
-2.3933e-05
-0.000125555
-2.66632e-05
-0.00011573
-2.94816e-05
-0.000104872
-3.25649e-05
-9.3201e-05
-3.50131e-05
-8.05723e-05
-3.78776e-05
-6.70537e-05
-4.05633e-05
-5.26494e-05
-4.31927e-05
-3.73412e-05
-4.59287e-05
-2.14541e-05
-4.76082e-05
-4.87166e-06
-4.97311e-05
1.23215e-05
-5.15346e-05
2.97695e-05
-5.23444e-05
4.75143e-05
-5.319e-05
6.52609e-05
-5.32151e-05
8.29481e-05
-5.30287e-05
0.00010042
-5.2378e-05
0.000117351
-5.075e-05
0.000133617
-4.87637e-05
0.000149057
-4.62534e-05
0.000163346
-4.28311e-05
0.000176328
-3.8898e-05
0.000187807
-3.43766e-05
0.000197624
-2.94468e-05
0.000205672
-2.41167e-05
0.000211742
-1.81697e-05
0.000215725
-1.19305e-05
0.000217492
-5.29176e-06
0.000217197
8.78645e-07
0.000214657
7.57898e-06
0.000209979
1.40384e-05
0.000203402
1.97051e-05
0.000195007
2.51747e-05
0.000184946
3.01644e-05
0.000173349
3.47919e-05
0.000160277
3.92054e-05
0.000145841
4.33067e-05
0.000130158
4.70333e-05
0.000113401
5.02402e-05
9.58087e-05
5.27294e-05
7.76272e-05
5.44753e-05
5.91187e-05
5.54404e-05
4.05794e-05
5.55314e-05
2.22163e-05
5.50163e-05
4.26714e-06
5.37689e-05
-1.31312e-05
5.21161e-05
-2.97736e-05
4.98655e-05
-4.5518e-05
4.71651e-05
-6.02882e-05
4.42848e-05
-7.4032e-05
4.11886e-05
-8.66857e-05
3.79057e-05
-9.82277e-05
3.46543e-05
-0.00010879
3.16099e-05
-0.000118264
2.83876e-05
-0.000126702
2.53171e-05
-0.000134161
2.23647e-05
-0.000140688
1.95183e-05
-0.00014634
1.70064e-05
-0.000151142
1.43862e-05
-0.000155162
1.20445e-05
-0.00015842
9.80282e-06
-0.000160941
7.56669e-06
-0.000162874
5.77728e-06
-0.000164092
3.63267e-06
-0.000164642
1.72548e-06
-0.000164651
-4.19436e-08
-0.000163937
-2.04171e-06
-0.000162729
-3.72184e-06
-0.000160829
-5.74057e-06
-0.000158321
-7.53406e-06
-0.000155177
-9.47739e-06
-0.0001514
-1.13402e-05
-0.000146968
-1.3302e-05
-0.000141875
-1.52888e-05
-0.000136047
-1.73671e-05
-0.000129665
-1.93316e-05
-0.000122413
-2.15988e-05
-0.000114587
-2.36578e-05
-0.000105816
-2.61584e-05
-9.64385e-05
-2.83311e-05
-8.60696e-05
-3.09644e-05
-7.50245e-05
-3.33057e-05
-6.30699e-05
-3.59115e-05
-5.02552e-05
-3.84256e-05
-3.66262e-05
-4.09037e-05
-2.21879e-05
-4.33058e-05
-7.02665e-06
-4.54798e-05
8.84238e-06
-4.75382e-05
2.52219e-05
-4.91726e-05
4.20456e-05
-5.03848e-05
5.91574e-05
-5.13091e-05
7.63991e-05
-5.16963e-05
9.3609e-05
-5.14853e-05
0.000110483
-5.06439e-05
0.000126887
-4.9181e-05
0.000142538
-4.68582e-05
0.000157206
-4.39444e-05
0.000170624
-4.01648e-05
0.000182539
-3.5665e-05
0.000192727
-3.04911e-05
0.000200994
-2.47172e-05
0.000207134
-1.83734e-05
0.000211026
-1.16797e-05
0.000212566
-4.53317e-06
0.000211709
2.49302e-06
0.000208396
9.86415e-06
0.000202704
1.71376e-05
0.000194753
2.39037e-05
0.000184569
3.04525e-05
0.000172474
3.62671e-05
0.000158629
4.14535e-05
0.000143322
4.59058e-05
0.000126802
4.94772e-05
0.000109381
5.22139e-05
9.12833e-05
5.42321e-05
7.28249e-05
5.53769e-05
5.41562e-05
5.58906e-05
3.55756e-05
5.56562e-05
1.72977e-05
5.48824e-05
-5.41626e-07
5.34773e-05
-1.77427e-05
5.1541e-05
-3.41796e-05
4.92127e-05
-4.97745e-05
4.68312e-05
-6.44313e-05
4.39719e-05
-7.81371e-05
4.11059e-05
-9.08625e-05
3.80728e-05
-0.000102545
3.51259e-05
-0.00011324
3.2065e-05
-0.000122969
2.91895e-05
-0.000131769
2.64e-05
-0.000139693
2.3772e-05
-0.000146753
2.11898e-05
-0.00015299
1.87285e-05
-0.000158417
1.62738e-05
-0.000163039
1.38497e-05
-0.000166902
1.1592e-05
-0.00017009
9.56644e-06
-0.000172661
7.72106e-06
-0.00017464
5.93921e-06
-0.000176128
4.32057e-06
-0.00017703
2.78181e-06
-0.000177341
1.02685e-06
-0.000177113
-8.08887e-07
-0.000176129
-2.98029e-06
-0.000174489
-4.89552e-06
-0.000172057
-7.31964e-06
-0.000168931
-9.35865e-06
-0.000165119
-1.14571e-05
-0.000160676
-1.3347e-05
-0.000155591
-1.52374e-05
-0.000149857
-1.72351e-05
-0.00014341
-1.93496e-05
-0.000136208
-2.17392e-05
-0.000128192
-2.39238e-05
-0.000119285
-2.66084e-05
-0.000109677
-2.89423e-05
-9.91484e-05
-3.1599e-05
-8.77585e-05
-3.41758e-05
-7.55125e-05
-3.66863e-05
-6.24337e-05
-3.9231e-05
-4.84386e-05
-4.17665e-05
-3.38595e-05
-4.38913e-05
-1.8455e-05
-4.61844e-05
-2.41319e-06
-4.80939e-05
1.41839e-05
-4.97447e-05
3.1156e-05
-5.08723e-05
4.83395e-05
-5.14823e-05
6.55324e-05
-5.15379e-05
8.25522e-05
-5.09872e-05
9.91441e-05
-4.97466e-05
0.00011512
-4.77832e-05
0.000130122
-4.50321e-05
0.000143981
-4.14958e-05
0.000156391
-3.7156e-05
0.000167105
-3.21135e-05
0.000175914
-2.6342e-05
0.0001826
-1.99934e-05
0.000187007
-1.31948e-05
0.00018906
-6.15186e-06
0.000188687
1.07607e-06
0.000185882
8.3879e-06
0.000180656
1.56386e-05
0.000173127
2.25485e-05
0.000163416
2.9102e-05
0.000151658
3.52124e-05
0.000138061
4.07407e-05
0.000122881
4.54947e-05
0.000106398
4.93975e-05
8.89561e-05
5.23763e-05
7.07164e-05
5.46024e-05
5.21284e-05
5.57338e-05
3.33421e-05
5.63195e-05
1.47029e-05
5.58756e-05
-3.60306e-06
5.49029e-05
-2.13867e-05
5.32715e-05
-3.84773e-05
5.13348e-05
-5.4794e-05
4.89543e-05
-7.027e-05
4.64573e-05
-8.48956e-05
4.38134e-05
-9.86484e-05
4.13391e-05
-0.000111464
3.84631e-05
-0.00012337
3.57296e-05
-0.000134298
3.27112e-05
-0.000144219
2.98514e-05
-0.000153104
2.66673e-05
-0.000160965
2.36099e-05
-0.000167814
2.05642e-05
-0.000173708
1.77096e-05
-0.000178703
1.50182e-05
-0.000182929
1.27092e-05
-0.000186392
1.03851e-05
-0.000189124
8.22543e-06
-0.00019129
6.53235e-06
-0.000192864
4.71627e-06
-0.00019378
2.73918e-06
-0.000194271
1.54072e-06
-0.000194035
-6.93977e-07
-0.000193336
-2.09146e-06
-0.000191884
-4.34104e-06
-0.000190018
-5.58262e-06
-0.000187275
-8.25491e-06
-0.000183976
-9.90393e-06
-0.000179922
-1.21313e-05
-0.000175132
-1.43671e-05
-0.000169499
-1.69476e-05
-0.000162923
-1.97274e-05
-0.000155303
-2.2855e-05
-0.000146651
-2.59477e-05
-0.000136857
-2.94059e-05
-0.000125948
-3.27201e-05
-0.000114068
-3.56458e-05
-0.000101237
-3.84438e-05
-8.74761e-05
-4.12668e-05
-7.29573e-05
-4.35402e-05
-5.76182e-05
-4.60081e-05
-4.16808e-05
-4.78026e-05
-2.49965e-05
-5.00399e-05
-7.64293e-06
-5.205e-05
1.01314e-05
-5.32934e-05
2.83602e-05
-5.46584e-05
4.69817e-05
-5.5821e-05
6.55937e-05
-5.57951e-05
8.41881e-05
-5.57228e-05
0.000102443
-5.47434e-05
0.000120047
-5.27273e-05
0.000136764
-5.00876e-05
0.000152189
-4.62291e-05
0.000166149
-4.18247e-05
0.000178348
-3.65378e-05
0.000188417
-3.01795e-05
0.000196263
-2.3493e-05
0.000201678
-1.62038e-05
0.000204461
-8.3426e-06
0.00020468
-6.80698e-07
0.000202156
7.54094e-06
0.000197123
1.50948e-05
0.000189867
2.17405e-05
0.000180315
2.86137e-05
0.000168871
3.42736e-05
0.000155906
3.88171e-05
0.000141458
4.33135e-05
0.000125947
4.64719e-05
0.000109754
4.85302e-05
9.29589e-05
5.03378e-05
7.60321e-05
5.073e-05
5.89372e-05
5.12422e-05
4.2135e-05
5.03804e-05
2.5524e-05
4.97992e-05
9.43044e-06
4.82555e-05
-6.07292e-06
4.64982e-05
-2.10181e-05
4.48198e-05
-3.5314e-05
4.28778e-05
-4.89684e-05
4.0956e-05
-6.19451e-05
3.89243e-05
-7.42327e-05
3.68594e-05
-8.58641e-05
3.48906e-05
-9.68256e-05
3.28838e-05
-0.000107115
3.08663e-05
-0.000116757
2.89248e-05
-0.000125723
2.68936e-05
-0.000133995
2.48111e-05
-0.000141574
2.27316e-05
-0.000148427
2.05554e-05
-0.000154539
1.83287e-05
-0.000159877
1.60045e-05
-0.000164414
1.35999e-05
-0.000168121
1.11162e-05
-0.000170966
8.52735e-06
-0.000172927
5.87428e-06
-0.000174002
3.23276e-06
-0.000174156
4.75733e-07
-0.000173309
-2.53033e-06
-0.000171508
-5.40363e-06
-0.000168712
-8.38119e-06
-0.000165
-1.11314e-05
-0.000160368
-1.38952e-05
-0.000154759
-1.68221e-05
-0.000148276
-1.94435e-05
-0.000140828
-2.234e-05
-0.000132557
-2.48079e-05
-0.000123467
-2.72655e-05
-0.000113441
-3.00708e-05
-0.000102632
-3.24216e-05
-3.47249e-05
0.000201357
-4.48279e-05
0.000210825
-3.76285e-05
0.000218074
-2.88198e-05
0.000222976
-1.94495e-05
0.000225427
-9.72985e-06
0.00022532
2.08432e-07
0.000222764
9.94136e-06
0.000217823
1.9671e-05
0.000210447
2.9406e-05
0.000200993
3.77438e-05
0.00018954
4.57367e-05
0.000176245
5.29809e-05
0.000161546
5.86863e-05
0.000145485
6.41005e-05
0.000128518
6.77006e-05
0.000110816
7.06887e-05
9.25251e-05
7.30085e-05
7.41162e-05
7.35327e-05
5.55996e-05
7.39269e-05
3.72933e-05
7.32874e-05
1.92818e-05
7.18064e-05
1.83315e-06
6.97176e-05
-1.50335e-05
6.73971e-05
-3.11543e-05
6.44264e-05
-4.64711e-05
6.12225e-05
-6.09049e-05
5.76996e-05
-7.44512e-05
5.41582e-05
-8.70613e-05
5.04345e-05
-9.87438e-05
4.67235e-05
-0.000109517
4.30939e-05
-0.000119394
3.95072e-05
-0.000128379
3.59522e-05
-0.000136524
3.25911e-05
-0.000143836
2.92498e-05
-0.000150366
2.61266e-05
-0.000156117
2.30106e-05
-0.000161134
2.0062e-05
-0.000165412
1.711e-05
-0.00016899
1.43208e-05
-0.000171873
1.1528e-05
-0.000174051
8.71067e-06
-0.00017554
5.94249e-06
-0.000176329
3.20116e-06
-0.000176421
3.72094e-07
-0.000175731
-2.66324e-06
-0.00017434
-5.58245e-06
-0.000172202
-8.54153e-06
-0.000169277
-1.17044e-05
-0.000165613
-1.4651e-05
-0.000161179
-1.7775e-05
-0.000155839
-2.13977e-05
-0.000149662
-2.47002e-05
-0.00014256
-2.85244e-05
-0.000134535
-3.1958e-05
-0.000125666
-3.55327e-05
-0.000115846
-3.93021e-05
-0.000104982
-4.34285e-05
-9.33118e-05
-4.66833e-05
-8.06787e-05
-5.05107e-05
-6.71642e-05
-5.40779e-05
-5.27491e-05
-5.76079e-05
-3.74446e-05
-6.12332e-05
-2.1529e-05
-6.35239e-05
-4.93843e-06
-6.63218e-05
1.22734e-05
-6.87465e-05
2.97258e-05
-6.97968e-05
4.7491e-05
-7.09552e-05
6.52512e-05
-7.09754e-05
8.29613e-05
-7.07388e-05
0.000100453
-6.98698e-05
0.000117408
-6.77049e-05
0.000133698
-6.50538e-05
0.00014917
-6.17259e-05
0.00016348
-5.7141e-05
0.000176489
-5.19066e-05
0.000187984
-4.58716e-05
0.000197818
-3.92806e-05
0.000205889
-3.21887e-05
0.000211983
-2.42635e-05
0.000215969
-1.59157e-05
0.000217742
-7.06499e-06
0.000217447
1.17407e-06
0.000214882
1.01439e-05
0.000210201
1.87199e-05
0.000203594
2.63121e-05
0.000195178
3.35912e-05
0.000185098
4.02453e-05
0.000173497
4.63933e-05
0.000160411
5.22915e-05
0.000145965
5.77529e-05
0.000130257
6.27414e-05
0.000113468
6.70302e-05
9.58229e-05
7.03743e-05
7.75855e-05
7.2713e-05
5.90294e-05
7.39966e-05
4.04336e-05
7.41273e-05
2.20411e-05
7.3409e-05
3.99273e-06
7.18173e-05
-1.34136e-05
6.95223e-05
-3.00785e-05
6.65304e-05
-4.58667e-05
6.29532e-05
-6.06553e-05
5.90733e-05
-7.44237e-05
5.49569e-05
-8.71011e-05