/*--------------------------------*- C++ -*----------------------------------*\
| =========                 |                                                 |
| \\      /  F ield         | OpenFOAM: The Open Source CFD Toolbox           |
|  \\    /   O peration     | Version:  3.0.1                                 |
|   \\  /    A nd           | Web:      www.OpenFOAM.org                      |
|    \\/     M anipulation  |                                                 |
\*---------------------------------------------------------------------------*/
FoamFile
{
    version     2.0;
    format      ascii;
    class       volScalarField;
    location    "27.6";
    object      p;
}
// * * * * * * * * * * * * * * * * * * * * * * * * * * * * * * * * * * * * * //

dimensions      [1 -1 -2 0 0 0 0];

internalField   nonuniform List<scalar> 
21420
(
3519.11
3522.47
3527.25
3533.48
3541.2
3550.46
3561.33
3573.85
3588.08
3604.05
3621.79
3641.36
3662.74
3685.95
3710.97
3737.72
3766.11
3795.88
3826.94
3859.31
3892.68
3926.69
3960.99
3995.25
4029.05
4061.99
4093.63
4123.5
4151.23
4176.4
4198.62
4217.57
4232.97
4244.58
4252.2
4255.73
4254.99
4250.15
4241.19
4228.22
4211.45
4191.15
4167.61
4141.16
4112.2
4081.13
4048.37
4014.37
3979.56
3944.34
3909.13
3874.29
3840.12
3807.11
3776.66
3746.62
3718.06
3691.16
3666.04
3642.76
3621.34
3601.77
3584.05
3568.14
3554
3541.59
3530.87
3521.8
3514.36
3508.5
3504.23
3501.49
3500.31
3500.69
3502.54
3505.91
3510.78
3517.18
3525.09
3534.52
3545.47
3557.95
3571.94
3587.46
3604.52
3623.11
3643.23
3664.89
3688.06
3712.74
3738.88
3766.42
3795.28
3825.42
3856.51
3888.42
3920.92
3953.71
3986.49
4018.92
4050.61
4081.2
4110.29
4137.49
4162.42
4184.73
4204.06
4220.11
4232.6
4241.33
4246.1
4246.74
4243.29
4235.76
4224.15
4208.64
4189.45
4166.84
4141.17
4112.82
4082.23
4049.86
4016.17
3981.66
3946.78
3911.97
3877.64
3844.18
3811.86
3780.98
3751.76
3724.35
3698.88
3675.43
3654.02
3634.67
3617.35
3602.01
3588.58
3576.98
3567.11
3558.89
3552.22
3546.99
3543.14
3540.59
3539.26
3539.11
3540.13
3542.25
3545.47
3549.82
3555.31
3561.98
3569.88
3579.06
3589.6
3601.55
3614.98
3629.95
3646.52
3664.75
3684.67
3706.3
3729.64
3754.66
3781.31
3809.49
3839.06
3869.8
3902.15
3934.68
3967.74
4000.94
4033.88
4066.14
4097.29
4126.89
4154.48
4179.64
4201.97
4221.08
4236.67
4248.48
4256.3
4260.01
4259.53
4254.91
4246.28
4233.72
4217.49
4197.85
4175.15
4149.73
4122.01
4092.41
4061.36
4029.28
3996.59
3963.7
3930.97
3898.72
3867.25
3836.8
3807.57
3779.71
3753.35
3728.56
3705.41
3683.92
3664.11
3645.98
3629.5
3614.67
3601.45
3589.82
3579.76
3571.21
3564.18
3558.61
3554.48
3551.78
3550.47
3550.56
3552.06
3554.92
3559.18
3564.84
3571.94
3580.49
3590.52
3602.06
3615.14
3629.79
3646.04
3663.89
3683.36
3704.43
3727.08
3751.28
3776.96
3804.03
3832.37
3861.85
3892.28
3923.6
3955.26
3987.15
4018.93
4050.29
4080.86
4110.25
4138.08
4163.96
4187.5
4208.34
4226.13
4240.58
4251.43
4258.48
4261.57
4260.64
4255.68
4246.8
4234.07
4217.72
4197.99
4175.21
4149.73
4121.94
4092.25
4061.1
4028.9
3996.09
3963.11
3930.43
3899.3
3868.17
3837.92
3808.92
3781.36
3755.38
3731.04
3708.43
3687.55
3668.41
3650.98
3635.25
3621.17
3608.71
3597.82
3588.46
3580.59
3574.16
3569.15
3565.5
3563.19
3562.22
3562.59
3564.29
3567.3
3571.66
3577.39
3584.5
3593.05
3603.09
3614.66
3627.8
3642.56
3658.97
3677.08
3696.87
3718.33
3741.44
3766.13
3792.3
3819.82
3848.51
3878.02
3907.55
3938.22
3969.24
4000.27
4030.9
4060.78
4089.51
4116.71
4142.05
4165.2
4185.81
4203.62
4218.36
4229.84
4237.87
4242.35
4243.12
4240.28
4233.85
4223.93
4210.66
4194.26
4174.97
4153.06
4128.86
4102.67
4074.84
4045.74
4015.73
3985.17
3954.45
3923.96
3894.75
3867.28
3839.42
3812.5
3786.79
3762.45
3420.95
3424.31
3429.09
3435.32
3443.04
3452.3
3463.16
3475.68
3489.91
3505.87
3523.62
3543.18
3564.56
3587.77
3612.79
3639.54
3667.93
3697.71
3728.78
3761.15
3794.53
3828.55
3862.86
3897.14
3930.96
3963.92
3995.57
4025.47
4053.21
4078.4
4100.64
4119.6
4135.02
4146.63
4154.26
4157.79
4157.06
4152.2
4143.24
4130.26
4113.48
4093.17
4069.61
4043.14
4014.16
3983.07
3950.29
3916.27
3881.44
3846.21
3810.99
3776.14
3741.96
3708.94
3678.47
3648.44
3619.87
3592.98
3567.86
3544.57
3523.15
3503.59
3485.87
3469.96
3455.83
3443.42
3432.71
3423.64
3416.2
3410.34
3406.06
3403.33
3402.15
3402.53
3404.38
3407.74
3412.62
3419.02
3426.93
3436.35
3447.3
3459.78
3473.78
3489.3
3506.36
3524.94
3545.06
3566.72
3589.89
3614.57
3640.71
3668.26
3697.12
3727.25
3758.35
3790.28
3822.78
3855.59
3888.39
3920.82
3952.53
3983.13
4012.24
4039.46
4064.41
4086.73
4106.08
4122.14
4134.65
4143.38
4148.16
4148.8
4145.35
4137.81
4126.2
4110.68
4091.47
4068.84
4043.15
4014.78
3984.17
3951.78
3918.08
3883.55
3848.65
3813.82
3779.48
3746.01
3713.68
3682.8
3653.57
3626.16
3600.69
3577.23
3555.83
3536.49
3519.17
3503.83
3490.41
3478.81
3468.94
3460.73
3454.06
3448.84
3444.99
3442.44
3441.11
3440.97
3441.99
3444.1
3447.33
3451.68
3457.16
3463.83
3471.73
3480.91
3491.44
3503.38
3516.81
3531.78
3548.35
3566.58
3586.5
3608.12
3631.46
3656.48
3683.13
3711.32
3740.9
3771.66
3803.98
3836.54
3869.61
3902.82
3935.78
3968.06
3999.23
4028.85
4056.46
4081.64
4103.98
4123.11
4138.72
4150.53
4158.36
4162.08
4161.59
4156.97
4148.33
4135.76
4119.51
4099.86
4077.14
4051.71
4023.97
3994.35
3963.27
3931.17
3898.47
3865.57
3832.82
3800.57
3769.09
3738.63
3709.4
3681.54
3655.17
3630.38
3607.23
3585.75
3565.94
3547.8
3531.33
3516.5
3503.29
3491.66
3481.59
3473.05
3466.02
3460.45
3456.33
3453.62
3452.31
3452.41
3453.91
3456.77
3461.02
3466.69
3473.78
3482.33
3492.35
3503.9
3516.98
3531.63
3547.87
3565.72
3585.19
3606.25
3628.91
3653.1
3678.79
3705.86
3734.21
3763.69
3794.13
3825.46
3857.13
3889.02
3920.83
3952.2
3982.78
4012.19
4040.04
4065.93
4089.49
4110.34
4128.16
4142.62
4153.48
4160.54
4163.63
4162.69
4157.73
4148.85
4136.11
4119.74
4100
4077.2
4051.7
4023.89
3994.19
3963.01
3930.8
3897.97
3864.97
3832.27
3801.16
3770.01
3739.76
3710.75
3683.18
3657.2
3632.87
3610.26
3589.38
3570.23
3552.81
3537.08
3523
3510.54
3499.66
3490.3
3482.43
3476.01
3470.99
3467.35
3465.04
3464.07
3464.44
3466.14
3469.15
3473.51
3479.23
3486.34
3494.89
3504.93
3516.5
3529.63
3544.39
3560.8
3578.9
3598.69
3620.15
3643.26
3667.96
3694.13
3721.66
3750.35
3779.88
3809.4
3840.09
3871.12
3902.16
3932.81
3962.7
3991.44
4018.67
4044.03
4067.19
4087.81
4105.63
4120.39
4131.87
4139.9
4144.39
4145.17
4142.32
4135.88
4125.96
4112.68
4096.26
4076.96
4055.04
4030.82
4004.61
3976.77
3947.65
3917.63
3887.06
3856.32
3825.83
3796.61
3769.12
3741.25
3714.33
3688.61
3664.28
3322.74
3326.1
3330.88
3337.1
3344.81
3354.07
3364.92
3377.44
3391.66
3407.62
3425.36
3444.92
3466.3
3489.51
3514.52
3541.28
3569.68
3599.46
3630.54
3662.93
3696.33
3730.38
3764.72
3799.02
3832.87
3865.87
3897.56
3927.49
3955.28
3980.5
4002.77
4021.77
4037.2
4048.84
4056.48
4060.01
4059.3
4054.42
4045.44
4032.45
4015.64
3995.3
3971.71
3945.2
3916.18
3885.06
3852.24
3818.18
3783.32
3748.05
3712.8
3677.93
3643.73
3610.7
3580.21
3550.17
3521.6
3494.7
3469.59
3446.3
3424.89
3405.33
3387.62
3371.71
3357.58
3345.18
3334.47
3325.41
3317.97
3312.12
3307.84
3305.11
3303.93
3304.3
3306.16
3309.52
3314.4
3320.79
3328.71
3338.13
3349.08
3361.55
3375.55
3391.07
3408.12
3426.71
3446.82
3468.48
3491.65
3516.33
3542.47
3570.02
3598.89
3629.03
3660.15
3692.09
3724.61
3757.45
3790.27
3822.73
3854.47
3885.11
3914.25
3941.51
3966.49
3988.84
4008.22
4024.31
4036.84
4045.59
4050.38
4051.02
4047.57
4040.02
4028.39
4012.85
3993.61
3970.95
3945.22
3916.81
3886.16
3853.72
3819.98
3785.41
3750.48
3715.63
3681.26
3647.76
3615.42
3584.53
3555.29
3527.87
3502.4
3478.95
3457.55
3438.21
3420.9
3405.57
3392.15
3380.56
3370.71
3362.5
3355.84
3350.63
3346.79
3344.24
3342.92
3342.78
3343.8
3345.91
3349.14
3353.48
3358.96
3365.63
3373.52
3382.7
3393.22
3405.16
3418.58
3433.55
3450.11
3468.33
3488.24
3509.87
3533.21
3558.23
3584.88
3613.07
3642.67
3673.47
3705.74
3738.35
3771.45
3804.69
3837.68
3870
3901.21
3930.86
3958.51
3983.73
4006.11
4025.27
4040.9
4052.74
4060.58
4064.32
4063.81
4059.18
4050.52
4037.94
4021.66
4001.98
3979.22
3953.75
3925.97
3896.31
3865.2
3833.07
3800.34
3767.41
3734.64
3702.36
3670.87
3640.4
3611.15
3583.29
3556.92
3532.13
3508.98
3487.5
3467.69
3449.56
3433.09
3418.26
3405.05
3393.43
3383.37
3374.83
3367.8
3362.23
3358.11
3355.41
3354.1
3354.2
3355.7
3358.56
3362.81
3368.47
3375.56
3384.11
3394.13
3405.67
3418.74
3433.39
3449.63
3467.48
3486.94
3508.01
3530.66
3554.86
3580.55
3607.63
3635.99
3665.48
3695.93
3727.27
3758.97
3790.88
3822.71
3854.12
3884.73
3914.17
3942.05
3967.98
3991.58
4012.46
4030.3
4044.79
4055.67
4062.74
4065.86
4064.9
4059.94
4051.04
4038.28
4021.89
4002.12
3979.28
3953.75
3925.9
3896.16
3864.95
3832.7
3799.84
3766.8
3734.06
3702.98
3671.79
3641.52
3612.5
3584.93
3558.94
3534.61
3512
3491.13
3471.98
3454.57
3438.84
3424.77
3412.31
3401.43
3392.08
3384.22
3377.8
3372.78
3369.14
3366.83
3365.87
3366.24
3367.94
3370.95
3375.3
3381.02
3388.13
3396.68
3406.71
3418.27
3431.4
3446.15
3462.56
3480.66
3500.44
3521.9
3545.02
3569.72
3595.9
3623.43
3652.13
3681.68
3711.22
3741.92
3772.98
3804.05
3834.72
3864.65
3893.42
3920.68
3946.07
3969.26
3989.91
4007.76
4022.54
4034.03
4042.08
4046.57
4047.37
4044.49
4038.05
4028.11
4014.81
3998.37
3979.04
3957.09
3932.84
3906.6
3878.73
3849.58
3819.53
3788.93
3758.17
3727.66
3698.42
3670.91
3643.03
3616.1
3590.37
3566.02
3224.48
3227.83
3232.6
3238.82
3246.52
3255.77
3266.62
3279.13
3293.34
3309.29
3327.02
3346.58
3367.95
3391.16
3416.17
3442.93
3471.34
3501.15
3532.24
3564.65
3598.08
3632.17
3666.55
3700.89
3734.8
3767.85
3799.6
3829.59
3857.42
3882.7
3905.02
3924.06
3939.53
3951.2
3958.86
3962.4
3961.7
3956.79
3947.8
3934.77
3917.93
3897.55
3873.9
3847.34
3818.26
3787.08
3754.2
3720.09
3685.18
3649.87
3614.58
3579.67
3545.44
3512.4
3481.87
3451.82
3423.24
3396.34
3371.23
3347.95
3326.53
3306.98
3289.28
3273.39
3259.27
3246.87
3236.17
3227.11
3219.68
3213.83
3209.55
3206.82
3205.65
3206.02
3207.88
3211.24
3216.12
3222.51
3230.42
3239.85
3250.79
3263.26
3277.25
3292.77
3309.83
3328.4
3348.52
3370.17
3393.34
3418.01
3444.16
3471.72
3500.6
3530.75
3561.89
3593.85
3626.41
3659.28
3692.14
3724.65
3756.44
3787.13
3816.32
3843.63
3868.66
3891.06
3910.48
3926.61
3939.18
3947.95
3952.76
3953.42
3949.95
3942.39
3930.73
3915.16
3895.87
3873.16
3847.38
3818.91
3788.19
3755.69
3721.89
3687.27
3652.28
3617.39
3582.98
3549.45
3517.08
3486.17
3456.92
3429.5
3404.03
3380.58
3359.18
3339.85
3322.55
3307.23
3293.83
3282.25
3272.41
3264.21
3257.56
3252.36
3248.53
3245.99
3244.68
3244.55
3245.56
3247.68
3250.91
3255.25
3260.72
3267.38
3275.27
3284.43
3294.95
3306.88
3320.29
3335.24
3351.8
3370.01
3389.92
3411.54
3434.87
3459.9
3486.55
3514.76
3544.37
3575.21
3607.45
3640.11
3673.26
3706.55
3739.58
3771.95
3803.22
3832.94
3860.65
3885.92
3908.35
3927.56
3943.23
3955.1
3962.96
3966.71
3966.2
3961.55
3952.87
3940.25
3923.93
3904.21
3881.39
3855.87
3828.03
3798.32
3767.15
3734.97
3702.19
3669.21
3636.4
3604.1
3572.58
3542.09
3512.84
3484.96
3458.59
3433.8
3410.65
3389.17
3369.37
3351.24
3334.78
3319.96
3306.76
3295.14
3285.08
3276.55
3269.52
3263.96
3259.84
3257.14
3255.83
3255.94
3257.43
3260.29
3264.54
3270.2
3277.29
3285.83
3295.85
3307.38
3320.45
3335.09
3351.33
3369.17
3388.63
3409.69
3432.35
3456.55
3482.24
3509.33
3537.7
3567.21
3597.67
3629.05
3660.77
3692.72
3724.59
3756.04
3786.7
3816.2
3844.13
3870.11
3893.75
3914.69
3932.58
3947.1
3958.01
3965.11
3968.24
3967.27
3962.3
3953.38
3940.59
3924.16
3904.34
3881.46
3855.87
3827.96
3798.16
3766.9
3734.6
3701.69
3668.6
3635.8
3604.76
3573.52
3543.22
3514.18
3486.6
3460.61
3436.28
3413.67
3392.8
3373.66
3356.25
3340.53
3326.47
3314.02
3303.15
3293.8
3285.94
3279.53
3274.52
3270.88
3268.57
3267.62
3267.98
3269.68
3272.69
3277.04
3282.76
3289.86
3298.4
3308.42
3319.97
3333.1
3347.85
3364.24
3382.34
3402.12
3423.58
3446.69
3471.4
3497.59
3525.14
3553.86
3583.43
3612.98
3643.72
3674.81
3705.93
3736.65
3766.62
3795.44
3822.74
3848.18
3871.42
3892.11
3910
3924.81
3936.33
3944.4
3948.89
3949.71
3946.81
3940.36
3930.39
3917.06
3900.59
3881.22
3859.22
3834.93
3808.64
3780.71
3751.53
3721.43
3690.79
3660
3629.45
3600.19
3572.64
3544.73
3517.79
3492.04
3467.69
3126.16
3129.51
3134.27
3140.48
3148.17
3157.41
3168.25
3180.75
3194.95
3210.89
3228.61
3248.16
3269.53
3292.73
3317.74
3344.51
3372.93
3402.76
3433.87
3466.31
3499.79
3533.92
3568.35
3602.76
3636.73
3669.85
3701.67
3731.74
3759.65
3785
3807.39
3826.49
3842.01
3853.71
3861.4
3864.95
3864.27
3859.33
3850.31
3837.24
3820.35
3799.91
3776.2
3749.56
3720.41
3689.15
3656.19
3622.01
3587.03
3551.65
3516.3
3481.35
3447.09
3414.02
3383.44
3353.38
3324.8
3297.9
3272.78
3249.5
3228.1
3208.56
3190.87
3174.99
3160.88
3148.49
3137.8
3128.75
3121.32
3115.48
3111.21
3108.48
3107.32
3107.68
3109.53
3112.9
3117.78
3124.17
3132.08
3141.5
3152.44
3164.91
3178.9
3194.41
3211.46
3230.03
3250.14
3271.79
3294.96
3319.63
3345.78
3373.35
3402.25
3432.41
3463.57
3495.58
3528.17
3561.09
3594
3626.57
3658.42
3689.18
3718.44
3745.82
3770.92
3793.39
3812.87
3829.05
3841.66
3850.46
3855.29
3855.97
3852.49
3844.91
3833.22
3817.6
3798.26
3775.48
3749.62
3721.07
3690.26
3657.68
3623.8
3589.1
3554.05
3519.09
3484.64
3451.06
3418.67
3387.73
3358.46
3331.03
3305.55
3282.11
3260.72
3241.4
3224.11
3208.81
3195.43
3183.86
3174.04
3165.87
3159.23
3154.05
3150.23
3147.7
3146.39
3146.27
3147.29
3149.41
3152.63
3156.96
3162.44
3169.08
3176.96
3186.11
3196.62
3208.53
3221.93
3236.87
3253.42
3271.62
3291.52
3313.13
3336.46
3361.49
3388.15
3416.37
3446
3476.89
3509.11
3541.83
3575.04
3608.38
3641.49
3673.93
3705.28
3735.07
3762.86
3788.21
3810.71
3829.98
3845.71
3857.61
3865.51
3869.25
3868.76
3864.09
3855.37
3842.71
3826.33
3806.54
3783.66
3758.06
3730.15
3700.35
3669.11
3636.86
3604.02
3570.99
3538.13
3505.78
3474.24
3443.72
3414.45
3386.56
3360.18
3335.39
3312.25
3290.77
3270.98
3252.86
3236.4
3221.59
3208.39
3196.78
3186.73
3178.21
3171.18
3165.63
3161.51
3158.82
3157.51
3157.62
3159.11
3161.97
3166.22
3171.87
3178.95
3187.49
3197.5
3209.02
3222.09
3236.72
3252.95
3270.79
3290.24
3311.31
3333.96
3358.16
3383.86
3410.96
3439.35
3468.88
3499.37
3530.78
3562.54
3594.54
3626.46
3657.97
3688.7
3718.26
3746.26
3772.31
3796.03
3817.03
3834.97
3849.55
3860.5
3867.62
3870.77
3869.81
3864.82
3855.87
3843.04
3826.55
3806.67
3783.72
3758.06
3730.08
3700.2
3668.86
3636.49
3603.52
3570.36
3537.47
3506.49
3475.19
3444.85
3415.79
3388.2
3362.2
3337.87
3315.26
3294.4
3275.27
3257.87
3242.16
3228.1
3215.66
3204.8
3195.46
3187.61
3181.21
3176.2
3172.57
3170.27
3169.32
3169.68
3171.37
3174.38
3178.72
3184.43
3191.53
3200.06
3210.07
3221.61
3234.73
3249.47
3265.86
3283.94
3303.72
3325.18
3348.3
3373.01
3399.21
3426.78
3455.53
3485.14
3514.7
3545.48
3576.63
3607.8
3638.58
3668.61
3697.5
3724.86
3750.36
3773.66
3794.41
3812.35
3827.21
3838.76
3846.85
3851.36
3852.19
3849.28
3842.8
3832.8
3819.43
3802.9
3783.48
3761.43
3737.07
3710.72
3682.73
3653.48
3623.33
3592.64
3561.79
3531.2
3501.92
3474.31
3446.38
3419.41
3393.65
3369.28
3027.78
3031.12
3035.88
3042.08
3049.76
3058.99
3069.81
3082.29
3096.48
3112.41
3130.12
3149.66
3171.02
3194.21
3219.23
3246
3274.43
3304.3
3335.43
3367.91
3401.44
3435.63
3470.13
3504.61
3538.67
3571.88
3603.8
3633.96
3661.97
3687.4
3709.87
3729.04
3744.63
3756.38
3764.1
3767.66
3766.99
3762.03
3752.97
3739.86
3722.9
3702.38
3678.59
3651.86
3622.61
3591.25
3558.2
3523.93
3488.86
3453.41
3417.99
3382.97
3348.68
3315.58
3284.94
3254.86
3226.27
3199.36
3174.24
3150.98
3129.58
3110.06
3092.38
3076.51
3062.41
3050.05
3039.36
3030.32
3022.9
3017.06
3012.8
3010.08
3008.91
3009.28
3011.13
3014.5
3019.38
3025.76
3033.67
3043.09
3054.03
3066.49
3080.48
3095.98
3113.03
3131.6
3151.7
3173.34
3196.51
3221.18
3247.34
3274.91
3303.83
3334.01
3365.21
3397.25
3429.9
3462.87
3495.86
3528.5
3560.43
3591.27
3620.62
3648.08
3673.28
3695.82
3715.38
3731.63
3744.29
3753.14
3757.99
3758.69
3755.2
3747.59
3735.86
3720.18
3700.76
3677.9
3651.94
3623.29
3592.38
3559.7
3525.72
3490.92
3455.79
3420.75
3386.23
3352.61
3320.17
3289.2
3259.91
3232.47
3206.99
3183.55
3162.17
3142.86
3125.6
3110.31
3096.95
3085.41
3075.61
3067.45
3060.84
3055.67
3051.87
3049.36
3048.06
3047.95
3048.97
3051.09
3054.31
3058.64
3064.1
3070.74
3078.6
3087.74
3098.23
3110.13
3123.51
3138.44
3154.97
3173.16
3193.04
3214.64
3237.97
3263
3289.67
3317.91
3347.57
3378.51
3410.72
3443.51
3476.79
3510.21
3543.39
3575.93
3607.37
3637.26
3665.15
3690.59
3713.18
3732.54
3748.33
3760.29
3768.21
3771.97
3771.48
3766.78
3758.02
3745.3
3728.86
3708.99
3686.02
3660.32
3632.32
3602.43
3571.09
3538.76
3505.83
3472.73
3439.81
3407.42
3375.83
3345.29
3315.99
3288.09
3261.7
3236.91
3213.77
3192.29
3172.51
3154.4
3137.95
3123.15
3109.96
3098.36
3088.32
3079.81
3072.79
3067.24
3063.13
3060.44
3059.14
3059.25
3060.74
3063.59
3067.84
3073.49
3080.56
3089.09
3099.09
3110.6
3123.66
3138.29
3154.51
3172.34
3191.78
3212.85
3235.5
3259.71
3285.41
3312.53
3340.94
3370.49
3401.01
3432.48
3464.28
3496.34
3528.33
3559.91
3590.71
3620.36
3648.45
3674.59
3698.39
3719.48
3737.49
3752.14
3763.14
3770.29
3773.45
3772.5
3767.5
3758.5
3745.62
3729.07
3709.11
3686.08
3660.32
3632.25
3602.28
3570.85
3538.39
3505.33
3472.08
3439.09
3408.19
3376.79
3346.41
3317.32
3289.72
3263.71
3239.38
3216.78
3195.92
3176.8
3159.41
3143.71
3129.67
3117.24
3106.39
3097.07
3089.22
3082.83
3077.83
3074.2
3071.91
3070.96
3071.32
3073.02
3076.02
3080.36
3086.06
3093.14
3101.66
3111.66
3123.19
3136.29
3151.02
3167.4
3185.48
3205.25
3226.7
3249.83
3274.55
3300.77
3328.36
3357.14
3386.8
3416.38
3447.21
3478.42
3509.66
3540.52
3570.63
3599.6
3627.04
3652.62
3675.99
3696.82
3714.82
3729.73
3741.33
3749.44
3753.96
3754.8
3751.88
3745.38
3735.34
3721.92
3705.33
3685.83
3663.71
3639.28
3612.85
3584.78
3555.46
3525.23
3494.47
3463.57
3432.92
3403.6
3375.93
3347.96
3320.96
3295.18
3270.79
2929.35
2932.69
2937.43
2943.62
2951.29
2960.5
2971.3
2983.77
2997.94
3013.86
3031.55
3051.07
3072.43
3095.62
3120.63
3147.41
3175.86
3205.76
3236.92
3269.45
3303.04
3337.3
3371.88
3406.46
3440.61
3473.93
3505.97
3536.24
3564.36
3589.91
3612.47
3631.73
3647.39
3659.2
3666.96
3670.54
3669.88
3664.9
3655.79
3642.62
3625.59
3604.98
3581.08
3554.24
3524.87
3493.4
3460.24
3425.85
3390.68
3355.13
3319.63
3284.55
3250.2
3217.06
3186.35
3156.25
3127.65
3100.74
3075.62
3052.36
3030.98
3011.47
2993.81
2977.96
2963.88
2951.53
2940.86
2931.83
2924.42
2918.59
2914.33
2911.62
2910.45
2910.82
2912.67
2916.04
2920.92
2927.3
2935.2
2944.62
2955.55
2968.01
2981.99
2997.49
3014.53
3033.09
3053.19
3074.82
3097.99
3122.66
3148.82
3176.41
3205.34
3235.55
3266.79
3298.88
3331.59
3364.64
3397.7
3430.43
3462.46
3493.4
3522.85
3550.42
3575.72
3598.36
3618.01
3634.33
3647.06
3655.96
3660.84
3661.56
3658.08
3650.43
3638.65
3622.9
3603.39
3580.43
3554.35
3525.58
3494.54
3461.73
3427.63
3392.73
3357.49
3322.37
3287.77
3254.08
3221.59
3190.58
3161.27
3133.81
3108.33
3084.9
3063.53
3044.24
3026.99
3011.74
2998.4
2986.88
2977.11
2968.98
2962.39
2957.25
2953.46
2950.97
2949.69
2949.58
2950.6
2952.72
2955.94
2960.27
2965.72
2972.34
2980.19
2989.31
2999.78
3011.66
3025.02
3039.93
3056.44
3074.62
3094.49
3116.08
3139.41
3164.43
3191.12
3219.37
3249.07
3280.05
3312.28
3345.15
3378.5
3412.01
3445.3
3477.94
3509.49
3539.51
3567.51
3593.08
3615.77
3635.22
3651.09
3663.11
3671.08
3674.85
3674.36
3669.64
3660.83
3648.04
3631.51
3611.54
3588.46
3562.66
3534.54
3504.53
3473.09
3440.65
3407.63
3374.44
3341.45
3308.99
3277.36
3246.78
3217.45
3189.54
3163.14
3138.35
3115.21
3093.74
3073.96
3055.87
3039.43
3024.64
3011.47
2999.88
2989.85
2981.34
2974.34
2968.8
2964.69
2962.01
2960.72
2960.82
2962.31
2965.16
2969.41
2975.05
2982.11
2990.63
3000.62
3012.12
3025.17
3039.78
3055.99
3073.81
3093.26
3114.31
3136.97
3161.18
3186.9
3214.03
3242.46
3272.05
3302.6
3334.13
3365.99
3398.11
3430.18
3461.85
3492.75
3522.5
3550.7
3576.95
3600.85
3622.03
3640.14
3654.86
3665.92
3673.12
3676.3
3675.36
3670.33
3661.29
3648.35
3631.72
3611.67
3588.52
3562.66
3534.47
3504.39
3472.85
3440.29
3407.13
3373.78
3340.65
3309.85
3278.34
3247.9
3218.78
3191.16
3165.14
3140.81
3118.21
3097.36
3078.25
3060.88
3045.19
3031.17
3018.75
3007.92
2998.61
2990.78
2984.39
2979.4
2975.78
2973.5
2972.55
2972.91
2974.61
2977.61
2981.93
2987.63
2994.7
3003.2
3013.19
3024.7
3037.79
3052.5
3068.87
3086.94
3106.7
3128.15
3151.28
3176.02
3202.25
3229.88
3258.7
3288.4
3318.01
3348.91
3380.19
3411.52
3442.46
3472.66
3501.73
3529.27
3554.95
3578.41
3599.32
3617.4
3632.37
3644.02
3652.18
3656.72
3657.56
3654.63
3648.09
3638
3624.52
3607.86
3588.28
3566.07
3541.54
3515.02
3486.86
3457.44
3427.13
3396.29
3365.31
3334.6
3305.24
3277.49
3249.47
3222.44
3196.63
3172.23
2830.87
2834.19
2838.93
2845.1
2852.75
2861.94
2872.73
2885.18
2899.33
2915.23
2932.91
2952.41
2973.75
2996.94
3021.95
3048.74
3077.2
3107.15
3138.34
3170.93
3204.59
3238.93
3273.61
3308.29
3342.56
3376.01
3408.18
3438.59
3466.84
3492.51
3515.19
3534.56
3550.3
3562.18
3569.99
3573.59
3572.93
3567.93
3558.76
3545.52
3528.4
3507.68
3483.67
3456.69
3427.2
3395.59
3362.29
3327.77
3292.48
3256.82
3221.23
3186.06
3151.65
3118.47
3087.68
3057.57
3028.95
3002.03
2976.91
2953.66
2932.3
2912.8
2895.16
2879.33
2865.27
2852.94
2842.28
2833.27
2825.87
2820.05
2815.8
2813.1
2811.93
2812.3
2814.16
2817.52
2822.4
2828.77
2836.67
2846.09
2857.01
2869.47
2883.44
2898.94
2915.96
2934.52
2954.61
2976.24
2999.39
3024.07
3050.23
3077.83
3106.79
3137.03
3168.31
3200.47
3233.25
3266.38
3299.54
3332.37
3364.51
3395.57
3425.14
3452.83
3478.25
3501.01
3520.76
3537.18
3549.99
3558.95
3563.87
3564.6
3561.11
3553.43
3541.59
3525.76
3506.15
3483.06
3456.85
3427.93
3396.75
3363.79
3329.55
3294.52
3259.16
3223.93
3189.24
3155.47
3122.93
3091.88
3062.54
3035.07
3009.58
2986.15
2964.8
2945.53
2928.31
2913.08
2899.77
2888.29
2878.55
2870.45
2863.88
2858.76
2855.01
2852.53
2851.26
2851.17
2852.19
2854.32
2857.53
2861.85
2867.29
2873.9
2881.73
2890.83
2901.28
2913.14
2926.47
2941.36
2957.85
2976
2995.86
3017.44
3040.76
3065.79
3092.48
3120.76
3150.49
3181.53
3213.79
3246.74
3280.19
3313.8
3347.2
3379.97
3411.66
3441.81
3469.96
3495.65
3518.48
3538.04
3554
3566.09
3574.1
3577.9
3577.4
3572.66
3563.78
3550.91
3534.29
3514.21
3491
3465.07
3436.81
3406.67
3375.1
3342.53
3309.41
3276.12
3243.05
3210.52
3178.82
3148.2
3118.85
3090.91
3064.51
3039.71
3016.57
2995.12
2975.35
2957.26
2940.84
2926.07
2912.9
2901.33
2891.31
2882.82
2875.82
2870.29
2866.2
2863.52
2862.23
2862.34
2863.82
2866.68
2870.91
2876.55
2883.61
2892.11
2902.09
2913.58
2926.61
2941.21
2957.41
2975.22
2994.66
3015.71
3038.36
3062.58
3088.31
3115.46
3143.92
3173.55
3204.16
3235.72
3267.66
3299.87
3332.03
3363.8
3394.82
3424.69
3453.01
3479.38
3503.4
3524.7
3542.91
3557.72
3568.86
3576.1
3579.3
3578.37
3573.32
3564.22
3551.21
3534.48
3514.33
3491.06
3465.07
3436.75
3406.53
3374.87
3342.18
3308.91
3275.44
3242.16
3211.46
3179.82
3149.32
3120.17
3092.52
3066.5
3042.16
3019.57
2998.73
2979.63
2962.27
2946.61
2932.6
2920.2
2909.38
2900.09
2892.27
2885.9
2880.92
2877.31
2875.03
2874.08
2874.45
2876.14
2879.14
2883.46
2889.14
2896.2
2904.69
2914.66
2926.15
2939.22
2953.91
2970.27
2988.32
3008.08
3029.53
3052.66
3077.41
3103.67
3131.33
3160.19
3189.96
3219.59
3250.56
3281.94
3313.36
3344.41
3374.72
3403.9
3431.56
3457.34
3480.92
3501.92
3520.09
3535.14
3546.86
3555.05
3559.61
3560.46
3557.52
3550.94
3540.79
3527.24
3510.49
3490.82
3468.5
3443.87
3417.24
3388.96
3359.44
3329.03
3298.1
3267.04
3236.25
3206.83
3178.99
3150.92
3123.85
3098.01
3073.58
2732.33
2735.64
2740.36
2746.52
2754.15
2763.32
2774.09
2786.51
2800.64
2816.52
2834.18
2853.67
2875
2898.17
2923.19
2949.99
2978.47
3008.47
3039.69
3072.35
3106.09
3140.53
3175.31
3210.12
3244.52
3278.12
3310.43
3340.99
3369.4
3395.21
3418.03
3437.51
3453.36
3465.31
3473.17
3476.81
3476.15
3471.12
3461.89
3448.57
3431.35
3410.51
3386.35
3359.23
3329.58
3297.82
3264.36
3229.7
3194.27
3158.49
3122.78
3087.52
3053.04
3019.81
2988.92
2958.79
2930.15
2903.23
2878.12
2854.88
2833.53
2814.05
2796.44
2780.63
2766.59
2754.28
2743.64
2734.65
2727.26
2721.45
2717.21
2714.51
2713.35
2713.72
2715.58
2718.94
2723.81
2730.19
2738.08
2747.49
2758.41
2770.86
2784.83
2800.31
2817.33
2835.88
2855.96
2877.58
2900.73
2925.4
2951.57
2979.19
3008.17
3038.44
3069.79
3102.01
3134.87
3168.09
3201.36
3234.32
3266.58
3297.78
3327.49
3355.32
3380.87
3403.76
3423.63
3440.16
3453.06
3462.09
3467.05
3467.81
3464.31
3456.58
3444.68
3428.75
3409.02
3385.79
3359.43
3330.34
3299
3265.87
3231.47
3196.28
3160.79
3125.44
3090.65
3056.8
3024.18
2993.09
2963.71
2936.23
2910.74
2887.31
2865.98
2846.73
2829.54
2814.34
2801.06
2789.62
2779.92
2771.85
2765.32
2760.23
2756.5
2754.04
2752.79
2752.71
2753.74
2755.87
2759.08
2763.39
2768.82
2775.41
2783.21
2792.29
2802.72
2814.55
2827.86
2842.72
2859.18
2877.32
2897.15
2918.72
2942.03
2967.07
2993.77
3022.07
3051.85
3082.94
3115.25
3148.28
3181.84
3215.57
3249.11
3282.02
3313.86
3344.17
3372.48
3398.33
3421.3
3440.99
3457.06
3469.23
3477.3
3481.11
3480.61
3475.83
3466.89
3453.93
3437.2
3416.98
3393.63
3367.55
3339.14
3308.84
3277.12
3244.42
3211.16
3177.76
3144.59
3111.98
3080.23
3049.56
3020.17
2992.21
2965.79
2941
2917.86
2896.41
2876.66
2858.59
2842.18
2827.42
2814.28
2802.72
2792.72
2784.24
2777.25
2771.73
2767.65
2764.98
2763.7
2763.81
2765.29
2768.14
2772.37
2777.99
2785.04
2793.53
2803.5
2814.97
2827.99
2842.58
2858.76
2876.56
2895.98
2917.03
2939.68
2963.91
2989.65
3016.82
3045.32
3074.99
3105.66
3137.27
3169.3
3201.6
3233.87
3265.76
3296.9
3326.91
3355.37
3381.88
3406.05
3427.48
3445.81
3460.72
3471.94
3479.24
3482.47
3481.54
3476.46
3467.31
3454.21
3437.38
3417.09
3393.69
3367.55
3339.08
3308.71
3276.9
3244.08
3210.68
3177.07
3143.61
3113.02
3081.23
3050.67
3021.48
2993.81
2967.77
2943.44
2920.85
2900.02
2880.94
2863.6
2847.95
2833.96
2821.59
2810.79
2801.51
2793.71
2787.35
2782.39
2778.79
2776.52
2775.57
2775.94
2777.63
2780.62
2784.93
2790.6
2797.64
2806.11
2816.06
2827.53
2840.59
2855.26
2871.59
2889.63
2909.38
2930.83
2953.97
2978.73
3005.01
3032.71
3061.63
3091.48
3121.12
3152.19
3183.67
3215.2
3246.37
3276.81
3306.12
3333.9
3359.81
3383.51
3404.63
3422.9
3438.04
3449.82
3458.07
3462.65
3463.51
3460.55
3453.93
3443.72
3430.07
3413.23
3393.45
3371.01
3346.25
3319.5
3291.1
3261.46
3230.93
3199.89
3168.73
3137.85
3108.37
3080.43
3052.3
3025.18
2999.31
2974.86
2633.74
2637.04
2641.74
2647.88
2655.48
2664.63
2675.38
2687.77
2701.88
2717.74
2735.38
2754.85
2776.16
2799.32
2824.34
2851.15
2879.66
2909.71
2940.97
2973.7
3007.54
3042.08
3076.99
3111.93
3146.49
3180.24
3212.73
3243.47
3272.04
3298.02
3320.98
3340.6
3356.56
3368.6
3376.52
3380.19
3379.53
3374.47
3365.18
3351.76
3334.43
3313.45
3289.14
3261.85
3232.03
3200.09
3166.46
3131.63
3096.04
3060.12
3024.29
2988.91
2954.37
2921.07
2890.09
2859.93
2831.27
2804.34
2779.23
2756
2734.67
2715.22
2697.63
2681.85
2667.84
2655.55
2644.94
2635.96
2628.59
2622.79
2618.56
2615.87
2614.71
2615.08
2616.94
2620.3
2625.17
2631.54
2639.43
2648.83
2659.75
2672.19
2686.15
2701.63
2718.63
2737.17
2757.24
2778.85
2802
2826.67
2852.84
2880.48
2909.49
2939.8
2971.2
3003.5
3036.45
3069.78
3103.17
3136.26
3168.67
3200.02
3229.89
3257.88
3283.58
3306.62
3326.63
3343.28
3356.28
3365.38
3370.4
3371.18
3367.67
3359.9
3347.92
3331.88
3312.02
3288.64
3262.1
3232.82
3201.29
3167.97
3133.39
3098.03
3062.39
3026.9
2991.99
2958.04
2925.36
2894.21
2864.8
2837.29
2811.8
2788.38
2767.06
2747.84
2730.68
2715.52
2702.28
2690.88
2681.22
2673.19
2666.7
2661.64
2657.94
2655.51
2654.28
2654.21
2655.25
2657.38
2660.59
2664.88
2670.3
2676.87
2684.65
2693.7
2704.1
2715.9
2729.18
2744.01
2760.45
2778.56
2798.37
2819.93
2843.23
2868.27
2894.99
2923.31
2953.13
2984.29
3016.65
3049.79
3083.46
3117.33
3151.01
3184.09
3216.1
3246.59
3275.08
3301.1
3324.23
3344.07
3360.26
3372.53
3380.65
3384.5
3383.99
3379.17
3370.15
3357.09
3340.23
3319.87
3296.36
3270.1
3241.51
3211.05
3179.16
3146.3
3112.9
3079.37
3046.09
3013.39
2981.57
2950.84
2921.41
2893.43
2867
2842.2
2819.07
2797.64
2777.9
2759.84
2743.45
2728.71
2715.58
2704.04
2694.06
2685.59
2678.62
2673.12
2669.04
2666.38
2665.11
2665.22
2666.7
2669.54
2673.77
2679.38
2686.42
2694.89
2704.84
2716.3
2729.3
2743.87
2760.04
2777.82
2797.24
2818.28
2840.93
2865.16
2890.92
2918.12
2946.65
2976.37
3007.11
3038.78
3070.9
3103.31
3135.7
3167.72
3199.01
3229.17
3257.79
3284.46
3308.79
3330.37
3348.84
3363.87
3375.18
3382.54
3385.8
3384.87
3379.76
3370.54
3357.35
3340.4
3319.97
3296.41
3270.1
3241.46
3210.92
3178.95
3145.97
3112.42
3078.68
3045.03
3014.52
2982.58
2951.95
2922.71
2895.02
2868.97
2844.63
2822.05
2801.23
2782.17
2764.85
2749.23
2735.26
2722.91
2712.13
2702.87
2695.09
2688.75
2683.8
2680.21
2677.95
2677
2677.38
2679.07
2682.05
2686.35
2692
2699.02
2707.47
2717.4
2728.85
2741.88
2756.53
2772.85
2790.87
2810.61
2832.05
2855.19
2879.97
2906.29
2934.03
2963
2992.94
3022.6
3053.77
3085.37
3117.03
3148.33
3178.91
3208.37
3236.29
3262.35
3286.19
3307.44
3325.82
3341.06
3352.93
3361.22
3365.84
3366.7
3363.73
3357.05
3346.77
3333.03
3316.07
3296.17
3273.6
3248.7
3221.8
3193.26
3163.48
3132.82
3101.66
3070.39
3039.42
3009.88
2981.81
2953.62
2926.45
2900.54
2876.06
2535.1
2538.38
2543.06
2549.17
2556.76
2565.88
2576.6
2588.97
2603.05
2618.88
2636.49
2655.94
2677.24
2700.39
2725.4
2752.23
2780.77
2810.87
2842.17
2874.99
2908.93
2943.6
2978.64
3013.73
3048.46
3082.39
3115.07
3146
3174.76
3200.92
3224.06
3243.82
3259.9
3272.05
3280.04
3283.73
3283.08
3277.98
3268.62
3255.1
3237.64
3216.51
3192.03
3164.55
3134.53
3102.4
3068.58
3033.56
2997.8
2961.71
2925.74
2890.25
2855.62
2822.26
2791.18
2760.99
2732.31
2705.37
2680.26
2657.04
2635.73
2616.31
2598.75
2583
2569.02
2556.76
2546.16
2537.2
2529.85
2524.06
2519.84
2517.16
2516.01
2516.38
2518.24
2521.6
2526.47
2532.83
2540.71
2550.11
2561.02
2573.45
2587.41
2602.87
2619.87
2638.4
2658.45
2680.05
2703.19
2727.86
2754.04
2781.69
2810.74
2841.09
2872.56
2904.94
2938
2971.45
3004.97
3038.21
3070.79
3102.3
3132.34
3160.51
3186.39
3209.59
3229.75
3246.54
3259.65
3268.84
3273.91
3274.72
3271.2
3263.38
3251.31
3235.16
3215.14
3191.58
3164.85
3135.37
3103.62
3070.1
3035.31
2999.76
2963.95
2928.31
2893.27
2859.22