/*--------------------------------*- C++ -*----------------------------------*\
| =========                 |                                                 |
| \\      /  F ield         | OpenFOAM: The Open Source CFD Toolbox           |
|  \\    /   O peration     | Version:  3.0.1                                 |
|   \\  /    A nd           | Web:      www.OpenFOAM.org                      |
|    \\/     M anipulation  |                                                 |
\*---------------------------------------------------------------------------*/
FoamFile
{
    version     2.0;
    format      ascii;
    class       volScalarField;
    location    "48.6";
    object      p;
}
// * * * * * * * * * * * * * * * * * * * * * * * * * * * * * * * * * * * * * //

dimensions      [1 -1 -2 0 0 0 0];

internalField   nonuniform List<scalar> 
21420
(
4276.65
4263.21
4246.21
4225.87
4202.43
4176.21
4147.59
4116.93
4084.63
4051.11
4016.79
3982.07
3947.33
3913.02
3882.65
3850.09
3818.68
3788.65
3760.17
3733.35
3708.29
3685.02
3663.58
3643.97
3626.16
3610.14
3595.84
3583.25
3572.3
3562.94
3555.15
3548.86
3544.06
3540.7
3538.83
3538.42
3539.43
3541.89
3545.85
3551.3
3558.3
3566.88
3577.09
3588.99
3602.62
3618.03
3635.27
3654.35
3675.29
3698.12
3722.81
3749.3
3777.54
3807.44
3838.87
3871.63
3900.77
3935.06
3969.73
4004.36
4038.58
4072
4104.24
4134.91
4163.65
4190.06
4213.84
4234.65
4252.23
4266.33
4276.74
4283.31
4285.89
4284.51
4279.09
4269.7
4256.46
4239.56
4219.22
4195.74
4169.45
4140.72
4109.93
4077.51
4043.88
4009.43
3974.58
3939.7
3905.14
3871.21
3838.2
3806.34
3775.86
3746.95
3719.76
3694.4
3670.97
3649.53
3630.1
3612.67
3597.22
3583.69
3572.03
3562.15
3554
3547.49
3542.56
3539.14
3537.22
3536.79
3537.76
3540.18
3544.03
3549.34
3556.12
3564.4
3574.19
3585.52
3598.41
3612.86
3628.87
3646.45
3665.59
3686.27
3708.47
3732.17
3757.31
3783.85
3811.71
3840.79
3870.96
3902.07
3933.91
3966.24
3998.78
4031.24
4063.26
4094.49
4124.52
4152.96
4179.41
4203.48
4224.78
4242.96
4257.72
4268.79
4275.95
4279.01
4277.98
4272.74
4263.4
4250.04
4232.84
4212.05
4187.98
4160.99
4131.48
4099.89
4066.7
4032.38
3997.42
3962.27
3927.39
3893.16
3859.93
3828.01
3797.63
3768.97
3742.16
3717.28
3694.37
3673.43
3654.44
3637.35
3622.1
3608.63
3596.85
3586.71
3578.12
3571.01
3565.33
3561.02
3558.01
3556.27
3555.8
3556.5
3558.38
3561.43
3565.65
3571.05
3577.66
3585.53
3594.67
3605.15
3617.01
3630.31
3645.07
3661.35
3679.19
3698.62
3719.67
3742.34
3766.62
3792.44
3819.73
3848.36
3878.16
3908.93
3940.54
3972.49
4004.58
4036.48
4067.81
4098.19
4127.22
4154.5
4179.64
4202.23
4221.92
4238.38
4251.3
4260.46
4265.67
4266.76
4263.78
4256.76
4245.76
4230.97
4212.65
4191.09
4166.65
4139.73
4110.75
4080.16
4048.41
4015.95
3983.21
3950.6
3918.46
3887.12
3856.85
3827.85
3800.28
3774.26
3749.86
3727.13
3706.07
3686.68
3668.93
3652.78
3638.2
3625.17
3613.63
3603.56
3594.93
3587.67
3581.74
3577.1
3573.67
3571.41
3570.27
3570.23
3571.3
3573.42
3576.66
3581.02
3586.55
3593.3
3601.31
3610.62
3621.28
3633.33
3646.82
3661.77
3678.21
3696.15
3715.61
3736.58
3759.02
3782.84
3807.89
3833.94
3860.62
3887.76
3927.76
3959.23
3990.95
4022.57
4053.53
4083.45
4111.9
4138.47
4162.83
4184.61
4203.49
4219.21
4231.52
4240.21
4245.14
4246.18
4244.8
4239.91
4231.44
4219.42
4203.94
4185.21
4163.54
4139.28
4112.83
4084.6
4055
4024.46
3993.4
3962.19
3931.23
3900.81
3869.72
3841.07
3813.61
3787.49
3762.85
3739.76
3718.29
3698.44
3680.24
3663.65
3648.65
3635.19
3623.22
3612.67
3603.5
3595.63
3589.02
3583.61
3579.35
3576.2
3574.13
3573.12
3573.16
3574.24
3576.38
3579.56
3583.82
3589.17
3595.66
3603.31
3612.17
3622.3
3633.76
3646.58
3660.82
3676.54
3693.75
3712.47
3732.66
3754.22
3776.94
4178.7
4165.25
4148.24
4127.88
4104.42
4078.19
4049.55
4018.87
3986.55
3953.01
3918.68
3883.94
3849.2
3814.87
3784.48
3751.92
3720.5
3690.47
3661.98
3635.17
3610.11
3586.84
3565.4
3545.79
3527.99
3511.96
3497.67
3485.08
3474.13
3464.78
3456.98
3450.7
3445.9
3442.55
3440.68
3440.27
3441.27
3443.73
3447.69
3453.14
3460.14
3468.71
3478.92
3490.82
3504.45
3519.85
3537.09
3556.17
3577.11
3599.94
3624.63
3651.12
3679.36
3709.26
3740.7
3773.46
3802.63
3836.93
3871.61
3906.25
3940.48
3973.92
4006.18
4036.87
4065.62
4092.05
4115.84
4136.67
4154.26
4168.37
4178.79
4185.36
4187.95
4186.57
4181.14
4171.75
4158.49
4141.58
4121.23
4097.73
4071.43
4042.67
4011.87
3979.43
3945.78
3911.32
3876.45
3841.56
3806.99
3773.05
3740.03
3708.17
3677.68
3648.77
3621.57
3596.21
3572.78
3551.34
3531.91
3514.49
3499.04
3485.51
3473.85
3463.98
3455.83
3449.32
3444.39
3440.98
3439.06
3438.63
3439.6
3442.02
3445.87
3451.18
3457.96
3466.24
3476.03
3487.36
3500.24
3514.69
3530.7
3548.28
3567.42
3588.1
3610.3
3634
3659.14
3685.68
3713.55
3742.63
3772.8
3803.92
3835.77
3868.1
3900.66
3933.13
3965.17
3996.41
4026.46
4054.92
4081.39
4105.47
4126.79
4144.99
4159.76
4170.84
4178.01
4181.08
4180.03
4174.8
4165.45
4152.08
4134.87
4114.06
4089.98
4062.96
4033.43
4001.83
3968.62
3934.28
3899.3
3864.13
3829.23
3794.99
3761.76
3729.83
3699.44
3670.78
3643.97
3619.09
3596.18
3575.25
3556.26
3539.17
3523.93
3510.45
3498.68
3488.54
3479.95
3472.85
3467.18
3462.87
3459.86
3458.12
3457.65
3458.35
3460.23
3463.28
3467.5
3472.9
3479.51
3487.37
3496.52
3506.99
3518.85
3532.14
3546.9
3563.18
3581.02
3600.45
3621.49
3644.17
3668.44
3694.27
3721.56
3750.19
3780
3810.78
3842.4
3874.36
3906.47
3938.38
3969.72
4000.12
4029.17
4056.47
4081.62
4104.23
4123.94
4140.41
4153.35
4162.51
4167.73
4168.82
4165.84
4158.81
4147.8
4133
4114.66
4093.09
4068.63
4041.69
4012.69
3982.08
3950.31
3917.84
3885.08
3852.45
3820.31
3788.96
3758.68
3729.67
3702.1
3676.08
3651.68
3628.95
3607.9
3588.51
3570.76
3554.61
3540.04
3527
3515.47
3505.41
3496.77
3489.51
3483.59
3478.95
3475.52
3473.26
3472.12
3472.09
3473.15
3475.28
3478.51
3482.87
3488.4
3495.14
3503.16
3512.47
3523.12
3535.17
3548.66
3563.61
3580.04
3597.99
3617.45
3638.42
3660.85
3684.68
3709.73
3735.8
3762.49
3789.64
3829.59
3861.08
3892.83
3924.46
3955.44
3985.38
4013.84
4040.43
4064.81
4086.61
4105.5
4121.23
4133.56
4142.26
4147.2
4148.24
4146.85
4141.96
4133.48
4121.45
4105.96
4087.21
4065.53
4041.25
4014.78
3986.53
3956.91
3926.36
3895.28
3864.06
3833.08
3802.65
3771.57
3742.91
3715.44
3689.32
3664.67
3641.59
3620.11
3600.27
3582.07
3565.49
3550.49
3537.03
3525.06
3514.52
3505.35
3497.48
3490.88
3485.46
3481.21
3478.06
3475.98
3474.98
3475.01
3476.1
3478.24
3481.42
3485.68
3491.02
3497.51
3505.16
3514.02
3524.15
3535.6
3548.42
3562.66
3578.37
3595.59
3614.3
3634.49
3656.05
3678.77
4080.9
4067.42
4050.39
4030
4006.51
3980.24
3951.56
3920.85
3888.49
3854.92
3820.55
3785.79
3751.03
3716.69
3686.23
3653.67
3622.25
3592.21
3563.72
3536.9
3511.84
3488.58
3467.14
3447.53
3429.74
3413.72
3399.43
3386.84
3375.9
3366.55
3358.76
3352.49
3347.69
3344.34
3342.47
3342.05
3343.05
3345.52
3349.47
3354.92
3361.92
3370.48
3380.69
3392.58
3406.2
3421.6
3438.83
3457.91
3478.84
3501.67
3526.36
3552.85
3581.1
3611
3642.44
3675.22
3704.44
3738.76
3773.46
3808.12
3842.39
3875.86
3908.15
3938.88
3967.66
3994.13
4017.95
4038.81
4056.42
4070.56
4080.99
4087.57
4090.18
4088.77
4083.35
4073.94
4060.67
4043.73
4023.35
3999.82
3973.48
3944.69
3913.85
3881.38
3847.69
3813.19
3778.3
3743.38
3708.79
3674.83
3641.79
3609.92
3579.42
3550.5
3523.3
3497.93
3474.51
3453.07
3433.64
3416.22
3400.77
3387.26
3375.61
3365.74
3357.6
3351.09
3346.17
3342.76
3340.85
3340.41
3341.39
3343.8
3347.65
3352.96
3359.73
3368.01
3377.8
3389.13
3402.01
3416.45
3432.46
3450.04
3469.18
3489.86
3512.06
3535.76
3560.9
3587.45
3615.31
3644.4
3674.59
3705.72
3737.58
3769.94
3802.52
3835.02
3867.08
3898.36
3928.44
3956.94
3983.45
4007.56
4028.91
4047.14
4061.94
4073.04
4080.22
4083.31
4082.25
4077.02
4067.66
4054.26
4037.02
4016.19
3992.07
3965.02
3935.45
3903.8
3870.55
3836.17
3801.15
3765.96
3731.03
3696.76
3663.51
3631.56
3601.17
3572.5
3545.69
3520.81
3497.91
3476.98
3458
3440.92
3425.68
3412.21
3400.45
3390.31
3381.73
3374.64
3368.97
3364.66
3361.65
3359.93
3359.45
3360.15
3362.03
3365.08
3369.3
3374.7
3381.31
3389.17
3398.3
3408.78
3420.63
3433.92
3448.67
3464.95
3482.78
3502.2
3523.25
3545.92
3570.2
3596.03
3623.33
3651.96
3681.78
3712.58
3744.22
3776.21
3808.34
3840.28
3871.65
3902.09
3931.17
3958.51
3983.69
4006.34
4026.08
4042.58
4055.54
4064.72
4069.94
4071.04
4068.05
4061.02
4049.98
4035.16
4016.79
3995.18
3970.69
3943.71
3914.67
3884.02
3852.22
3819.71
3786.93
3754.27
3722.1
3690.74
3660.44
3631.43
3603.85
3577.83
3553.43
3530.7
3509.65
3490.26
3472.52
3456.38
3441.81
3428.78
3417.25
3407.19
3398.56
3391.3
3385.39
3380.75
3377.33
3375.07
3373.94
3373.91
3374.96
3377.09
3380.32
3384.68
3390.2
3396.94
3404.95
3414.26
3424.91
3436.95
3450.43
3465.38
3481.81
3499.75
3519.21
3540.19
3562.62
3586.45
3611.52
3637.61
3664.33
3691.49
3731.37
3762.89
3794.68
3826.35
3857.36
3887.33
3915.83
3942.46
3966.87
3988.7
4007.62
4023.39
4035.73
4044.46
4049.41
4050.46
4049.05
4044.16
4035.67
4023.62
4008.1
3989.32
3967.6
3943.29
3916.78
3888.5
3858.84
3828.26
3797.15
3765.9
3734.89
3704.43
3673.37
3644.69
3617.21
3591.08
3566.43
3543.34
3521.87
3502.03
3483.83
3467.25
3452.26
3438.81
3426.84
3416.31
3407.14
3399.28
3392.68
3387.27
3383.02
3379.87
3377.8
3376.8
3376.83
3377.92
3380.06
3383.24
3387.49
3392.83
3399.31
3406.96
3415.82
3425.94
3437.39
3450.2
3464.44
3480.14
3497.35
3516.06
3536.25
3557.81
3580.53
3983.25
3969.74
3952.66
3932.23
3908.69
3882.37
3853.64
3822.87
3790.45
3756.84
3722.42
3687.62
3652.82
3618.47
3587.91
3555.34
3523.91
3493.87
3465.37
3438.55
3413.49
3390.23
3368.8
3349.2
3331.41
3315.4
3301.12
3288.54
3277.61
3268.27
3260.48
3254.21
3249.41
3246.07
3244.2
3243.78
3244.78
3247.24
3251.19
3256.64
3263.63
3272.19
3282.38
3294.27
3307.88
3323.27
3340.5
3359.56
3380.49
3403.32
3428
3454.5
3482.75
3512.66
3544.11
3576.91
3606.21
3640.55
3675.29
3709.99
3744.3
3777.82
3810.16
3840.94
3869.78
3896.29
3920.16
3941.06
3958.72
3972.88
3983.34
3989.94
3992.57
3991.13
3985.7
3976.28
3962.98
3946.01
3925.58
3902
3875.6
3846.76
3815.86
3783.34
3749.6
3715.06
3680.12
3645.16
3610.54
3576.55
3543.49
3511.59
3481.08
3452.14
3424.93
3399.57
3376.14
3354.7
3335.28
3317.87
3302.43
3288.93
3277.29
3267.43
3259.3
3252.8
3247.88
3244.48
3242.58
3242.14
3243.12
3245.53
3249.38
3254.68
3261.45
3269.72
3279.51
3290.83
3303.71
3318.15
3334.16
3351.74
3370.87
3391.55
3413.75
3437.45
3462.6
3489.15
3517.02
3546.12
3576.32
3607.47
3639.36
3671.74
3704.36
3736.9
3769.01
3800.33
3830.47
3859.02
3885.58
3909.75
3931.15
3949.43
3964.26
3975.39
3982.6
3985.71
3984.63
3979.39
3970.01
3956.59
3939.31
3918.43
3894.26
3867.15
3837.52
3805.81
3772.49
3738.06
3702.99
3667.74
3632.77
3598.46
3565.18
3533.22
3502.81
3474.13
3447.32
3422.44
3399.55
3378.62
3359.65
3342.58
3327.36
3313.9
3302.15
3292.02
3283.45
3276.37
3270.7
3266.4
3263.4
3261.68
3261.21
3261.91
3263.79
3266.84
3271.06
3276.45
3283.06
3290.91
3300.04
3310.5
3322.35
3335.63
3350.38
3366.64
3384.47
3403.89
3424.93
3447.6
3471.88
3497.71
3525.02
3553.67
3583.51
3614.33
3646
3678.02
3710.19
3742.17
3773.6
3804.08
3833.22
3860.61
3885.85
3908.55
3928.34
3944.88
3957.87
3967.08
3972.32
3973.43
3970.43
3963.37
3952.32
3937.46
3919.04
3897.38
3872.83
3845.79
3816.7
3785.99
3754.13
3721.57
3688.74
3656.04
3623.84
3592.45
3562.14
3533.11
3505.52
3479.5
3455.1
3432.38
3411.33
3391.95
3374.21
3358.08
3343.52
3330.49
3318.97
3308.91
3300.29
3293.04
3287.13
3282.5
3279.09
3276.84
3275.71
3275.68
3276.73
3278.86
3282.09
3286.44
3291.95
3298.69
3306.69
3315.99
3326.64
3338.67
3352.15
3367.09
3383.52
3401.46
3420.92
3441.89
3464.33
3488.17
3513.25
3539.37
3566.13
3593.33
3633.08
3664.64
3696.5
3728.23
3759.3
3789.32
3817.87
3844.55
3869.01
3890.89
3909.86
3925.66
3938.05
3946.8
3951.77
3952.83
3951.4
3946.51
3938
3925.92
3910.36
3891.53
3869.77
3845.4
3818.84
3790.49
3760.78
3730.15
3699
3667.7
3636.66
3606.15
3575.12
3546.41
3518.91
3492.77
3468.11
3445.02
3423.55
3403.72
3385.52
3368.95
3353.97
3340.52
3328.57
3318.04
3308.88
3301.03
3294.44
3289.04
3284.79
3281.64
3279.57
3278.58
3278.61
3279.7
3281.83
3285.01
3289.26
3294.6
3301.07
3308.72
3317.56
3327.68
3339.12
3351.92
3366.15
3381.85
3399.05
3417.76
3437.94
3459.5
3482.22
3885.75
3872.19
3855.07
3834.57
3810.96
3784.58
3755.77
3724.93
3692.44
3658.75
3624.27
3589.42
3554.58
3520.2
3489.52
3456.95
3425.5
3395.44
3366.94
3340.12
3315.05
3291.8
3270.38
3250.78
3233
3217
3202.74
3190.17
3179.25
3169.92
3162.14
3155.87
3151.08
3147.75
3145.88
3145.45
3146.45
3148.91
3152.85
3158.29
3165.27
3173.83
3184.01
3195.89
3209.49
3224.87
3242.08
3261.14
3282.06
3304.88
3329.57
3356.06
3384.32
3414.24
3445.69
3478.52
3507.93
3542.31
3577.09
3611.84
3646.21
3679.8
3712.21
3743.06
3771.96
3798.55
3822.48
3843.43
3861.14
3875.34
3885.83
3892.46
3895.11
3893.66
3888.22
3878.76
3865.43
3848.41
3827.92
3804.28
3777.81
3748.89
3717.92
3685.32
3651.51
3616.91
3581.91
3546.91
3512.24
3478.21
3445.12
3413.19
3382.66
3353.71
3326.49
3301.12
3277.69
3256.25
3236.83
3219.43
3204.01
3190.52
3178.89
3169.06
3160.93
3154.45
3149.54
3146.15
3144.25
3143.81
3144.79
3147.2
3151.04
3156.34
3163.11
3171.38
3181.16
3192.47
3205.35
3219.78
3235.79
3253.36
3272.5
3293.17
3315.37
3339.07
3364.22
3390.78
3418.66
3447.77
3477.99
3509.17
3541.09
3573.52
3606.18
3638.77
3670.94
3702.33
3732.54
3761.16
3787.79
3812.04
3833.5
3851.84
3866.73
3877.89
3885.13
3888.27
3887.18
3881.93
3872.53
3859.06
3841.74
3820.79
3796.55
3769.36
3739.65
3707.85
3674.46
3639.95
3604.8
3569.49
3534.46
3500.11
3466.79
3434.79
3404.36
3375.68
3348.86
3323.99
3301.1
3280.18
3261.23
3244.17
3228.96
3215.52
3203.78
3193.67
3185.11
3178.04
3172.38
3168.09
3165.1
3163.39
3162.92
3163.62
3165.51
3168.55
3172.77
3178.16
3184.76
3192.6
3201.72
3212.17
3224.01
3237.28
3252.02
3268.27
3286.09
3305.5
3326.54
3349.2
3373.48
3399.33
3426.65
3455.32
3485.18
3516.03
3547.75
3579.81
3612.03
3644.07
3675.56
3706.12
3735.32
3762.79
3788.1
3810.86
3830.72
3847.31
3860.35
3869.59
3874.85
3875.98
3872.96
3865.88
3854.79
3839.88
3821.41
3799.68
3775.06
3747.94
3718.76
3687.98
3656.04
3623.42
3590.53
3557.78
3525.53
3494.11
3463.77
3434.72
3407.12
3381.09
3356.7
3333.98
3312.94
3293.57
3275.84
3259.71
3245.16
3232.14
3220.63
3210.58
3201.96
3194.73
3188.83
3184.2
3180.8
3178.56
3177.43
3177.41
3178.46
3180.58
3183.81
3188.15
3193.66
3200.39
3208.38
3217.67
3228.31
3240.34
3253.81
3268.74
3285.16
3303.09
3322.55
3343.52
3365.97
3389.82
3414.93
3441.08
3467.9
3495.15
3534.72
3566.34
3598.29
3630.11
3661.24
3691.33
3719.95
3746.7
3771.23
3793.18
3812.21
3828.07
3840.5
3849.29
3854.28
3855.36
3853.92
3849.01
3840.48
3828.36
3812.74
3793.85
3772.02
3747.58
3720.94
3692.52
3662.74
3632.04
3600.83
3569.48
3538.38
3507.82
3476.82
3448.06
3420.54
3394.39
3369.72
3346.63
3325.16
3305.33
3287.15
3270.58
3255.61
3242.18
3230.23
3219.72
3210.57
3202.73
3196.15
3190.75
3186.51
3183.37
3181.31
3180.31
3180.35
3181.43
3183.57
3186.74
3190.99
3196.32
3202.79
3210.42
3219.26
3229.36
3240.79
3253.58
3267.8
3283.49
3300.69
3319.39
3339.56
3361.12
3383.85
3788.4
3774.79
3757.59
3737.02
3713.33
3686.86
3657.96
3627.02
3594.45
3560.67
3526.12
3491.19
3456.29
3421.89
3391.07
3358.47
3327.01
3296.94
3268.42
3241.6
3216.54
3193.28
3171.87
3152.29
3134.52
3118.54
3104.29
3091.73
3080.82
3071.5
3063.74
3057.48
3052.7
3049.37
3047.5
3047.06
3048.06
3050.52
3054.46
3059.89
3066.86
3075.4
3085.57
3097.44
3111.02
3126.39
3143.59
3162.63
3183.55
3206.36
3231.04
3257.54
3285.8
3315.73
3347.2
3380.06
3409.61
3444.04
3478.87
3513.68
3548.13
3581.8
3614.29
3645.23
3674.22
3700.89
3724.9
3745.92
3763.69
3777.95
3788.48
3795.13
3797.8
3796.35
3790.88
3781.4
3768.02
3750.93
3730.37
3706.64
3680.09
3651.08
3620.02
3587.33
3553.43
3518.75
3483.68
3448.61
3413.88
3379.81
3346.67
3314.72
3284.16
3255.19
3227.95
3202.57
3179.14
3157.71
3138.3
3120.92
3105.51
3092.04
3080.43
3070.61
3062.5
3056.03
3051.14
3047.75
3045.86
3045.42
3046.4
3048.81
3052.65
3057.94
3064.71
3072.97
3082.74
3094.05
3106.92
3121.35
3137.35
3154.92
3174.05
3194.73
3216.93
3240.63
3265.78
3292.34
3320.24
3349.37
3379.61
3410.82
3442.78
3475.26
3507.98
3540.64
3572.89
3604.36
3634.65
3663.36
3690.09
3714.42
3735.97
3754.38
3769.33
3780.55
3787.82
3790.98
3789.9
3784.64
3775.19
3761.68
3744.29
3723.27
3698.93
3671.65
3641.83
3609.94
3576.44
3541.83
3506.59
3471.2
3436.09
3401.68
3368.31
3336.29
3305.83
3277.13
3250.31
3225.44
3202.56
3181.66
3162.72
3145.68
3130.49
3117.07
3105.35
3095.25
3086.71
3079.65
3074.01
3069.73
3066.75
3065.05
3064.58
3065.29
3067.17
3070.22
3074.43
3079.81
3086.4
3094.23
3103.35
3113.79
3125.61
3138.87
3153.59
3169.84
3187.64
3207.04
3228.07
3250.73
3275.02
3300.87
3328.21
3356.9
3386.79
3417.68
3449.46
3481.57
3513.86
3545.97
3577.54
3608.18
3637.48
3665.03
3690.43
3713.28
3733.21
3749.88
3762.98
3772.26
3777.55
3778.69
3775.66
3768.55
3757.41
3742.44
3723.89
3702.08
3677.36
3650.15
3620.87
3589.99
3557.96
3525.25
3492.28
3459.47
3427.17
3395.7
3365.33
3336.26
3308.65
3282.61
3258.22
3235.5
3214.47
3195.11
3177.39
3161.28
3146.74
3133.74
3122.23
3112.19
3103.58
3096.36
3090.47
3085.86
3082.47
3080.24
3079.12
3079.09
3080.15
3082.27
3085.48
3089.81
3095.32
3102.04
3110.02
3119.3
3129.92
3141.94
3155.4
3170.33
3186.74
3204.67
3224.12
3245.09
3267.54
3291.41
3316.55
3342.75
3369.65
3396.95
3436.29
3467.99
3500.06
3531.97
3563.2
3593.37
3622.08
3648.91
3673.53
3695.56
3714.67
3730.6
3743.09
3751.93
3756.95
3758.04
3756.61
3751.67
3743.11
3730.93
3715.25
3696.28
3674.35
3649.82
3623.09
3594.59
3564.72
3533.93
3502.64
3471.22
3440.05
3409.42
3378.47
3349.66
3322.1
3295.93
3271.26
3248.17
3226.7
3206.88
3188.7
3172.15
3157.19
3143.77
3131.84
3121.34
3112.21
3104.38
3097.81
3092.43
3088.19
3085.06
3083
3082.01
3082.04
3083.13
3085.26
3088.43
3092.67
3098
3104.45
3112.08
3120.9
3131
3142.41
3155.19
3169.39
3185.07
3202.25
3220.94
3241.12
3262.67
3285.41
3691.19
3677.52
3660.25
3639.58
3615.8
3589.21
3560.21
3529.16
3496.47
3462.6
3427.94
3392.93
3357.97
3323.53
3292.54
3259.93
3228.44
3198.35
3169.82
3142.99
3117.93
3094.69
3073.29
3053.72
3035.97
3020
3005.77
2993.23
2982.33
2973.03
2965.27
2959.03
2954.25
2950.93
2949.06
2948.62
2949.61
2952.07
2956
2961.43
2968.38
2976.91
2987.07
2998.91
3012.48
3027.83
3045.01
3064.04
3084.95
3107.75
3132.43
3158.93
3187.2
3217.14
3248.63
3281.52
3311.25
3345.73
3380.62
3415.51
3450.05
3483.82
3516.41
3547.45
3576.55
3603.32
3627.42
3648.53
3666.38
3680.7
3691.28
3697.96
3700.65
3699.2
3693.71
3684.18
3670.74
3653.58
3632.93
3609.11
3582.44
3553.32
3522.15
3489.35
3455.36
3420.58
3385.42
3350.27
3315.48
3281.35
3248.17
3216.17
3185.58
3156.58
3129.33
3103.94
3080.51
3059.08
3039.69
3022.32
3006.93
2993.48
2981.89
2972.09
2964.01
2957.55
2952.67
2949.3
2947.42
2946.98
2947.96
2950.37
2954.2
2959.49
2966.25
2974.5
2984.26
2995.57
3008.43
3022.85
3038.85
3056.41
3075.54
3096.21
3118.41
3142.11
3167.27
3193.84
3221.75
3250.9
3281.17
3312.42
3344.43
3376.97
3409.76
3442.5
3474.84
3506.4
3536.8
3565.63
3592.46
3616.89
3638.55
3657.05
3672.08
3683.36
3690.68
3693.85
3692.78
3687.5
3678.02
3664.44
3646.97
3625.86
3601.41
3574.01
3544.08
3512.06
3478.44
3443.71
3408.36
3372.87
3337.68
3303.19
3269.77
3237.7
3207.22
3178.5
3151.67
3126.81
3103.94
3083.05
3064.13
3047.12
3031.95
3018.55
3006.85
2996.77
2988.25
2981.21
2975.58
2971.31
2968.35
2966.65
2966.19
2966.91
2968.79
2971.84
2976.04
2981.42
2988
2995.82
3004.92
3015.35
3027.16
3040.39
3055.11
3071.34
3089.13
3108.52
3129.53
3152.19
3176.48
3202.34
3229.7
3258.42
3288.35
3319.28
3351.13
3383.3
3415.67
3447.87
3479.53
3510.27
3539.68
3567.34
3592.85
3615.81
3635.83
3652.59
3665.75
3675.09
3680.4
3681.56
3678.53
3671.37
3660.18
3645.13
3626.5
3604.58
3579.75
3552.42
3523.02
3492.02
3459.89
3427.07
3394.01
3361.11
3328.75
3297.23
3266.82
3237.72
3210.1
3184.06
3159.66
3136.95
3115.93
3096.59
3078.88
3062.78
3048.26
3035.26
3023.77
3013.74
3005.15
2997.94
2992.07
2987.47
2984.09
2981.87
2980.76
2980.74
2981.79
2983.91
2987.11
2991.44
2996.93
3003.64
3011.61
3020.87
3031.48
3043.49
3056.94
3071.85
3088.25
3106.17
3125.62
3146.59
3169.05
3192.93
3218.11
3244.37
3271.36
3298.76
3337.78
3369.6
3401.81
3433.84
3465.16
3495.44
3524.25
3551.19
3575.91
3598.04
3617.25
3633.26
3645.82
3654.71
3659.78
3660.88
3659.44
3654.49
3645.88
3633.64
3617.87
3598.81
3576.78
3552.14
3525.3
3496.68
3466.7
3435.82
3404.44
3372.93
3341.68
3310.97
3280.06
3251.19
3223.6
3197.41
3172.72
3149.63
3128.16
3108.35
3090.18
3073.65
3058.7
3045.3
3033.39
3022.91
3013.79
3005.98
2999.42
2994.05
2989.83
2986.7
2984.65
2983.66
2983.7
2984.79
2986.91
2990.08
2994.31
2999.63
3006.07
3013.68
3022.49
3032.57
3043.97
3056.73
3070.92
3086.58
3103.75
3122.43
3142.6
3164.15
3186.89
3594.14
3580.39
3563.03
3542.26
3518.35
3491.65
3462.51
3431.34
3398.52
3364.52
3329.76
3294.65
3259.61
3225.12
3193.95
3161.31
3129.79
3099.68
3071.14
3044.3
3019.25
2996.01
2974.62
2955.07
2937.33
2921.38
2907.17
2894.65
2883.77
2874.49
2866.75
2860.51
2855.75
2852.44
2850.56
2850.12
2851.11
2853.57
2857.49
2862.9
2869.84
2878.35
2888.49
2900.32
2913.86
2929.2
2946.36
2965.38
2986.27
3009.06
3033.74
3060.24
3088.52
3118.48
3149.97
3182.9
3212.86
3247.38
3282.34
3317.33
3351.97
3385.85
3418.57
3449.73
3478.95
3505.83
3530.05
3551.26
3569.19
3583.59
3594.23
3600.95
3603.65
3602.21
3596.69
3587.11
3573.61
3556.36
3535.61
3511.66
3484.87
3455.62
3424.32
3391.4
3357.28
3322.39
3287.13
3251.89
3217.03
3182.83
3149.59
3117.54
3086.92
3057.89
3030.62
3005.23
2981.79
2960.37
2940.99
2923.63
2908.27
2894.84
2883.28
2873.51
2865.44
2859.01
2854.15
2850.79
2848.92
2848.48
2849.46
2851.87
2855.7
2860.98
2867.72
2875.96
2885.72
2897.02
2909.87
2924.29
2940.28
2957.84
2976.96
2997.63
3019.83
3043.53
3068.69
3095.27
3123.2
3152.37
3182.68
3213.97
3246.04
3278.64
3311.52
3344.35
3376.79
3408.48
3439
3467.95
3494.91
3519.47
3541.24
3559.85
3574.97
3586.33
3593.69
3596.9
3595.84
3590.53
3580.99
3567.35
3549.79
3528.56
3503.99
3476.46
3446.38
3414.21
3380.45
3345.58
3310.1
3274.5
3239.21
3204.64
3171.15
3139.03
3108.51
3079.78
3052.94
3028.08
3005.23
2984.36
2965.46
2948.47
2933.33
2919.96
2908.29
2898.23
2889.73
2882.71
2877.1
2872.85
2869.9
2868.21
2867.76
2868.48
2870.37
2873.41
2877.61
2882.98
2889.55
2897.35
2906.43
2916.85
2928.64
2941.86
2956.56
2972.77
2990.54
3009.92
3030.92
3053.58
3077.87
3103.74
3131.12
3159.88
3189.85
3220.82
3252.76
3285.01
3317.46
3349.77
3381.54
3412.4
3441.93
3469.72
3495.36
3518.44
3538.58
3555.43
3568.68
3578.07
3583.42
3584.59
3581.55
3574.35
3563.09
3547.96
3529.22
3507.18
3482.22
3454.75
3425.22
3394.08
3361.81
3328.87
3295.71
3262.72
3230.28
3198.7
3168.24
3139.12
3111.47
3085.42
3061.03
3038.33
3017.32
2997.99
2980.3
2964.22
2949.71
2936.73
2925.25
2915.24
2906.66
2899.47
2893.61
2889.03
2885.67
2883.46
2882.36
2882.34
2883.39
2885.5
2888.7
2893.01
2898.49
2905.19
2913.14
2922.38
2932.98
2944.98
2958.41
2973.31
2989.7
3007.61
3027.05
3048.02
3070.49
3094.39
3119.61
3145.94
3173.04
3200.56
3239.17
3271.15
3303.53
3335.69
3367.14
3397.54
3426.47
3453.53
3478.37
3500.62
3519.94
3536.05
3548.7
3557.65
3562.75
3563.88
3562.44
3557.45
3548.79
3536.48
3520.62
3501.44
3479.29
3454.52
3427.55
3398.8
3368.7
3337.71
3306.21
3274.61
3243.27
3212.47
3181.59
3152.65
3125.02
3098.81
3074.11
3051.01
3029.55
3009.75
2991.6
2975.08
2960.15
2946.77
2934.88
2924.42
2915.33
2907.53
2900.99
2895.63
2891.42
2888.31
2886.26
2885.27
2885.31
2886.4
2888.52
2891.68
2895.91
2901.21
2907.65
2915.24
2924.04
2934.1
2945.47
2958.21
2972.38
2988.03
3005.18
3023.85
3044.01
3065.56
3088.31
3497.24
3483.4
3465.93
3445.04
3421.01
3394.16
3364.87
3333.55
3300.59
3266.45
3231.56
3196.34
3161.21
3126.65
3095.29
3062.62
3031.07
3000.93
2972.38
2945.53
2920.47
2897.25
2875.87
2856.34
2838.63
2822.7
2808.51
2796.01
2785.15
2775.89
2768.16
2761.94
2757.19
2753.88
2752.01
2751.56
2752.55
2755
2758.92
2764.32
2771.24
2779.73
2789.85
2801.66
2815.18
2830.49
2847.63
2866.63
2887.5
2910.29
2934.96
2961.46
2989.76
3019.73
3051.24
3084.18
3114.44
3149
3184.04
3219.13
3253.89
3287.91
3320.76
3352.06
3381.42
3408.44
3432.78
3454.11
3472.14
3486.62
3497.33
3504.1
3506.82
3505.37
3499.82
3490.19
3476.61
3459.26
3438.39
3414.31
3387.38
3357.98
3326.53
3293.47
3259.21
3224.19
3188.82
3153.47
3118.52
3084.25
3050.94
3018.84
2988.18
2959.12
2931.83
2906.42
2882.98
2861.57
2842.2
2824.86
2809.53
2796.13
2784.6
2774.85
2766.82
2760.41
2755.56
2752.22
2750.36
2749.93
2750.91
2753.31
2757.13
2762.41
2769.14
2777.37
2787.12
2798.4
2811.25
2825.66
2841.64
2859.19
2878.31
2898.98
2921.17
2944.88
2970.05
2996.64
3024.58
3053.78
3084.12
3115.47
3147.6
3180.29
3213.25
3246.19
3278.76
3310.58
3341.24
3370.33
3397.44
3422.14
3444.05
3462.78
3478.01
3489.45
3496.87
3500.11
3499.05
3493.72
3484.13
3470.4
3452.74
3431.39
3406.67
3378.98
3348.74
3316.4
3282.48
3247.45
3211.83
3176.08
3140.68
3106.02
3072.45
3040.27
3009.72
2980.96
2954.12
2929.27
2906.43
2885.59
2866.71
2849.75
2834.64
2821.3
2809.65
2799.63
2791.15
2784.15
2778.57
2774.33
2771.4
2769.72
2769.28
2770.01
2771.9
2774.94
2779.13
2784.5
2791.05
2798.84
2807.9
2818.29
2830.06
2843.26
2857.94
2874.13
2891.88
2911.24
2932.24
2954.89
2979.18
3005.07
3032.47
3061.27
3091.29
3122.33
3154.33
3186.68
3219.24
3251.66
3283.57
3314.56
3344.24
3372.17
3397.95
3421.17
3441.44
3458.4
3471.75
3481.21
3486.6
3487.79
3484.73
3477.49
3466.15
3450.92
3432.06
3409.88
3384.77
3357.15
3327.45
3296.16
3263.74
3230.66
3197.37
3164.28
3131.75
3100.11
3069.6
3040.43
3012.77
2986.71
2962.32
2939.63
2918.64
2899.32
2881.66
2865.59
2851.1
2838.14
2826.67
2816.68
2808.11
2800.94
2795.1
2790.54
2787.2
2785.01
2783.92
2783.9
2784.95
2787.06
2790.24
2794.54
2800
2806.68
2814.62
2823.85
2834.43
2846.41
2859.82
2874.71
2891.08
2908.98
2928.42
2949.39
2971.86
2995.79
3021.05
3047.45
3074.68
3102.38
3140.47
3172.65
3205.23
3237.54
3269.12
3299.66
3328.73
3355.93
3380.91
3403.3
3422.74
3438.97
3451.71
3460.74
3465.89
3467.03
3465.59
3460.58
3451.86
3439.46
3423.49
3404.18
3381.89
3356.97
3329.85
3300.96
3270.72
3239.59
3207.97
3176.25
3144.81
3113.92
3083.05
3054.05
3026.38
3000.14
2975.43
2952.33
2930.87
2911.08
2892.94
2876.44
2861.54
2848.18
2836.32
2825.88
2816.81
2809.03
2802.51
2797.17
2792.97
2789.87
2787.83
2786.84
2786.89
2787.97
2790.1
2793.25
2797.46
2802.75
2809.17
2816.75
2825.53
2835.57
2846.92
2859.64
2873.79
2889.41
2906.55
2925.2
2945.35
2966.9
2989.66
3400.5
3386.56
3368.96
3347.94
3323.75
3296.74
3267.29
3235.8
3202.68
3168.38
3133.35
3097.99
3062.76
3028.14
2996.56
2963.85
2932.26
2902.1
2873.52
2846.67
2821.62
2798.4
2777.04
2757.53
2739.84
2723.94
2709.78
2697.3
2686.47
2677.22
2669.52
2663.31
2658.57
2655.27
2653.41
2652.95
2653.94
2656.39
2660.29
2665.67
2672.57
2681.04
2691.14
2702.92
2716.42
2731.7
2748.82
2767.79
2788.65
2811.43
2836.09
2862.6
2890.91
2920.89
2952.43
2985.37
3015.99
3050.58
3085.71
3120.92
3155.82
3189.98
3222.99
3254.45
3283.96
3311.13
3335.62
3357.08
3375.22
3389.8
3400.58
3407.4
3410.14
3408.7
3403.11
3393.42
3379.75
3362.29
3341.28
3317.06
3289.96
3260.4
3228.78
3195.55
3161.14
3125.98
3090.47
3055.01
3019.96
2985.6
2952.22
2920.07
2889.35
2860.26
2832.94
2807.52
2784.08
2762.67
2743.32
2726.01
2710.71
2697.34
2685.85
2676.13
2668.12
2661.74
2656.92
2653.6
2651.74
2651.31
2652.3
2654.7
2658.51
2663.77
2670.5
2678.72
2688.45
2699.72
2712.56
2726.96
2742.93
2760.48
2779.59
2800.25
2822.45
2846.15
2871.33
2897.93
2925.9
2955.13
2985.51
3016.91
3049.12
3081.89
3114.97
3148.03
3180.73
3212.7
3243.52
3272.78
3300.05
3324.91
3346.97
3365.84
3381.18
3392.72
3400.21
3403.48
3402.44
3397.07
3387.42
3373.6
3355.82
3334.33
3309.45
3281.58
3251.15
3218.63
3184.52
3149.31
3113.52
3077.63
3042.1
3007.33
2973.67
2941.43
2910.84
2882.06
2855.21
2830.37
2807.54
2786.72
2767.88
2750.95
2735.87
2722.57
2710.96
2700.96
2692.52
2685.54
2679.98
2675.76
2672.85
2671.18
2670.75
2671.49
2673.38
2676.42
2680.61
2685.96
2692.5
2700.27
2709.31
2719.68
2731.43
2744.61
2759.26
2775.43
2793.16
2812.5
2833.48
2856.12
2880.42
2906.33
2933.76
2962.6
2992.68
3023.8
3055.86
3088.32
3121
3153.55
3185.6
3216.75
3246.59
3274.69
3300.63
3324.01
3344.42
3361.52
3374.97
3384.51
3389.95
3391.15
3388.08
3380.78
3369.36
3354.02
3335.02
3312.69
3287.41
3259.6
3229.73
3198.26
3165.67
3132.44
3099.01
3065.8
3033.17
3001.45
2970.88
2941.68
2913.99
2887.93
2863.54
2840.86
2819.88
2800.59
2782.94
2766.9
2752.42
2739.48
2728.04
2718.06
2709.51
2702.36
2696.54
2692.01
2688.68
2686.51
2685.43
2685.42
2686.47
2688.57
2691.74
2696.02
2701.47
2708.13
2716.04
2725.25
2735.82
2747.78
2761.17
2776.04
2792.4
2810.29
2829.72
2850.68
2873.17
2897.12
2922.43
2948.91
2976.28
3004.21
3041.65
3074.1
3106.9
3139.38
3171.12
3201.81
3231.04
3258.39
3283.53
3306.07
3325.66
3342.01
3354.86
3363.97
3369.18
3370.35
3368.91
3363.86
3355.07
3342.57
3326.48
3307.03
3284.58
3259.49
3232.21
3203.14
3172.75
3141.46
3109.71
3077.87
3046.31
3015.31
2984.45
2955.38
2927.66
2901.4
2876.67
2853.57
2832.12
2812.33
2794.22
2777.74
2762.86
2749.53
2737.69
2727.28
2718.23
2710.48
2703.98
2698.66
2694.48
2691.39
2689.36
2688.38
2688.42
2689.51
2691.63
2694.77
2698.97
2704.25
2710.65
2718.21
2726.96
2736.98
2748.31
2761
2775.13
2790.73
2807.84
2826.48
2846.62
2868.17
2890.93
3303.9
3289.85
3272.12
3250.94
3226.59
3199.4
3169.77
3138.09
3104.78
3070.31
3035.12
2999.62
2964.27
2929.56
2897.77
2865.01
2833.38
2803.18
2774.59
2747.73
2722.68
2699.47
2678.13
2658.64
2640.98
2625.11
2610.97
2598.53
2587.72
2578.5
2570.81
2564.62
2559.9
2556.61
2554.74
2554.29
2555.27
2557.71
2561.6
2566.96
2573.84
2582.29
2592.37
2604.12
2617.58
2632.84
2649.93
2668.88
2689.72
2712.48
2737.14
2763.65
2791.97
2821.98
2853.54
2886.47
2917.51
2952.12
2987.34
3022.69
3057.74
3092.07
3125.25
3156.89
3186.58
3213.92
3238.56
3260.16
3278.44
3293.12
3303.98
3310.86
3313.63
3312.19
3306.56
3296.81
3283.04
3265.44
3244.29
3219.89
3192.62
3162.87
3131.07
3097.65
3063.07
3027.74
2992.09
2956.51
2921.35
2886.9
2853.43
2821.21
2790.44
2761.31
2733.97
2708.53
2685.09
2663.69
2644.36
2627.08
2611.8
2598.48
2587.02
2577.34
2569.37
2563.01
2558.21
2554.91
2553.07
2552.65
2553.64
2556.03
2559.84
2565.09
2571.8
2580
2589.72
2600.98
2613.8
2628.19
2644.16