/*--------------------------------*- C++ -*----------------------------------*\
| =========                 |                                                 |
| \\      /  F ield         | OpenFOAM: The Open Source CFD Toolbox           |
|  \\    /   O peration     | Version:  3.0.1                                 |
|   \\  /    A nd           | Web:      www.OpenFOAM.org                      |
|    \\/     M anipulation  |                                                 |
\*---------------------------------------------------------------------------*/
FoamFile
{
    version     2.0;
    format      ascii;
    class       volScalarField;
    location    "19";
    object      p_rgh;
}
// * * * * * * * * * * * * * * * * * * * * * * * * * * * * * * * * * * * * * //

dimensions      [1 -1 -2 0 0 0 0];

internalField   nonuniform List<scalar> 
21420
(
171.871
203.793
235.148
265.417
294.175
320.85
345.037
366.31
384.336
398.855
409.628
416.483
419.237
417.695
411.985
402.328
388.739
371.429
350.66
326.729
300.001
270.829
239.612
206.806
172.824
138.104
103.029
67.9505
33.3699
1.33046
-31.2468
-62.8576
-93.1822
-122.02
-149.233
-174.716
-198.408
-220.274
-240.294
-258.474
-274.837
-289.408
-302.223
-313.32
-322.737
-330.512
-336.681
-341.275
-344.323
-345.813
-345.746
-344.023
-340.748
-335.84
-329.298
-321.104
-311.219
-299.602
-286.24
-271.111
-254.192
-235.488
-214.983
-192.71
-168.732
-143.1
-115.893
-87.2337
-57.2479
-26.1156
5.92472
37.6155
70.6109
103.859
137.021
169.76
201.75
232.657
262.132
289.813
315.37
338.467
358.773
375.968
389.791
400.014
406.427
408.891
407.389
401.856
392.42
379.124
362.149
341.716
318.08
291.551
262.473
231.216
198.193
163.83
128.57
92.8745
57.188
21.9294
-12.5115
-45.8107
-77.6882
-107.927
-136.363
-162.886
-187.434
-209.988
-230.553
-249.155
-265.839
-280.654
-293.655
-304.906
-314.457
-322.355
-328.653
-333.388
-336.607
-338.316
-338.508
-337.22
-334.467
-330.223
-324.475
-317.202
-308.383
-297.999
-286.031
-272.46
-257.27
-240.45
-221.994
-201.9
-180.177
-156.843
-131.927
-105.483
-77.5855
-48.3431
-17.8915
13.5954
45.9611
78.8516
112.021
145.146
177.864
209.799
240.558
269.736
296.934
321.774
343.888
362.952
378.677
390.815
399.18
403.633
404.035
400.513
392.994
381.603
366.496
347.873
325.991
301.151
273.671
243.927
212.311
179.213
145.047
110.231
75.1722
40.2597
5.8435
-27.7451
-60.2126
-91.308
-120.816
-148.564
-174.422
-198.296
-220.128
-239.889
-257.574
-273.2
-286.801
-298.425
-308.13
-315.984
-322.058
-326.443
-329.205
-330.402
-330.133
-328.47
-325.457
-321.137
-315.544
-308.701
-300.613
-291.257
-280.604
-268.617
-255.229
-240.371
-223.973
-205.962
-186.271
-164.846
-141.658
-116.703
-90.0111
-61.6598
-31.7731
-0.520935
31.9114
65.1307
98.8649
132.729
166.313
199.178
230.858
260.899
288.851
314.293
336.842
356.154
371.945
383.988
392.117
396.251
396.285
392.351
384.562
373.015
357.942
339.609
318.315
294.381
268.158
240
210.283
179.385
147.642
115.401
82.9921
50.699
18.7797
-12.5144
-42.9792
-72.4318
-100.722
-127.719
-153.319
-177.439
-200.015
-221.001
-240.364
-258.082
-274.141
-288.533
-301.249
-312.293
-321.668
-329.36
-335.367
-339.728
-342.375
-343.294
-342.651
-340.327
-336.306
-330.597
-323.168
-313.978
-303.04
-290.352
-275.904
-259.697
-241.758
-222.128
-200.865
-178.021
-153.678
-127.915
-100.841
-72.5543
-43.1388
-12.5355
21.2879
53.8392
86.3265
118.679
150.749
182.254
212.927
242.443
270.457
296.655
320.694
342.228
360.96
376.588
388.848
397.506
402.353
403.226
400.096
392.822
381.5
366.313
347.463
325.181
299.752
271.566
241.014
208.505
174.526
139.515
103.926
68.1441
32.8505
2.6251
-30.5231
-62.5869
-93.1539
-121.991
-148.918
-173.822
-196.647
-217.364
-235.983
-252.53
-267.055
-279.625
-290.309
-299.183
-306.33
-311.833
-315.769
-318.182
-318.75
-317.823
-315.45
-311.698
-306.605
-300.217
-292.552
-283.639
-273.494
-262.074
-249.349
171.866
203.804
235.177
265.464
294.24
320.933
345.137
366.426
384.467
398.997
409.779
416.639
419.402
417.856
412.143
402.478
388.878
371.555
350.77
326.822
300.076
270.886
239.65
206.826
172.826
138.091
103.002
67.9113
33.3221
1.26711
-31.3163
-62.9324
-93.2609
-122.101
-149.316
-174.799
-198.49
-220.355
-240.373
-258.552
-274.912
-289.48
-302.294
-313.388
-322.803
-330.577
-336.744
-341.337
-344.384
-345.874
-345.806
-344.085
-340.81
-335.903
-329.362
-321.171
-311.288
-299.672
-286.313
-271.186
-254.268
-235.566
-215.061
-192.788
-168.809
-143.176
-115.966
-87.3031
-57.3125
-26.175
5.87191
37.576
70.5804
103.838
137.013
169.763
201.768
232.689
262.179
289.875
315.448
338.56
358.881
376.09
389.924
400.156
406.576
409.048
407.538
402.004
392.561
379.257
362.271
341.823
318.172
291.626
262.531
231.255
198.212
163.83
128.552
92.8397
57.1377
21.8658
-12.5861
-45.8938
-77.7774
-108.019
-136.457
-162.98
-187.528
-210.079
-230.642
-249.241
-265.921
-280.733
-293.731
-304.979
-314.527
-322.423
-328.719
-333.453
-336.671
-338.379
-338.568
-337.283
-334.53
-330.287
-324.539
-317.268
-308.45
-298.067
-286.101
-272.53
-257.342
-240.523
-222.068
-201.976
-180.254
-156.92
-132.003
-105.557
-77.6583
-48.4122
-17.9553
13.5388
45.9106
78.8119
111.994
145.132
177.865
209.817
240.592
269.788
297.004
321.861
343.991
363.069
378.807
390.955
399.327
403.784
404.195
400.657
393.138
381.739
366.622
347.985
326.089
301.232
273.735
243.973
212.339
179.223
145.04
110.208
75.1345
40.209
5.78141
-27.8168
-60.2921
-91.3936
-120.906
-148.657
-174.516
-198.391
-220.222
-239.981
-257.664
-273.288
-286.886
-298.507
-308.209
-316.059
-322.13
-326.512
-329.27
-330.463
-330.193
-328.528
-325.513
-321.192
-315.599
-308.756
-300.668
-291.314
-280.664
-268.679
-255.295
-240.441
-224.046
-206.039
-186.351
-164.929
-141.743
-116.789
-90.0964
-61.7422
-31.8509
-0.590923
31.8477
65.0793
98.8274
132.707
166.308
199.192
230.892
260.953
288.924
314.384
336.95
356.277
372.08
384.132
392.267
396.409
396.433
392.495
384.699
373.142
358.056
339.709
318.399
294.448
268.209
240.034
210.302
179.388
147.631
115.378
82.9582
50.6556
18.7281
-12.5726
-43.043
-72.4999
-100.793
-127.793
-153.394
-177.515
-200.092
-221.077
-240.439
-258.157
-274.215
-288.606
-301.321
-312.365
-321.739
-329.43
-335.437
-339.798
-342.442
-343.364
-342.72
-340.397
-336.377
-330.669
-323.241
-314.052
-303.114
-290.427
-275.98
-259.773
-241.834
-222.203
-200.939
-178.093
-153.748
-127.983
-100.906
-72.6168
-43.1994
-12.5946
21.2517
53.8077
86.3017
118.663
150.744
182.262
212.949
242.48
270.509
296.723
320.778
342.327
361.073
376.715
388.986
397.653
402.508
403.392
400.246
392.972
381.646
366.45
347.587
325.289
299.843
271.637
241.066
208.537
174.538
139.51
103.904
68.1093
32.8081
2.5441
-30.6066
-62.6747
-93.2453
-122.085
-149.012
-173.916
-196.74
-217.454
-236.07
-252.614
-267.135
-279.701
-290.381
-299.252
-306.395
-311.895
-315.828
-318.239
-318.805
-317.875
-315.501
-311.747
-306.654
-300.265
-292.6
-283.688
-273.543
-262.124
-249.4
171.855
203.826
235.234
265.557
294.371
321.1
345.338
366.66
384.728
399.282
410.081
416.949
419.729
418.182
412.463
402.778
389.156
371.806
350.991
327.008
300.227
270.999
239.726
206.865
172.832
138.064
102.947
67.8328
33.2263
1.14068
-31.4554
-63.0821
-93.4184
-122.264
-149.481
-174.965
-198.655
-220.517
-240.532
-258.707
-275.062
-289.626
-302.435
-313.525
-322.936
-330.706
-336.87
-341.46
-344.505
-345.995
-345.925
-344.208
-340.934
-336.029
-329.49
-321.303
-311.423
-299.812
-286.457
-271.333
-254.419
-235.718
-215.214
-192.942
-168.962
-143.325
-116.109
-87.4388
-57.4387
-26.2906
5.76924
37.5008
70.5232
103.802
137
169.776
201.808
232.759
262.279
290.007
315.611
338.754
359.105
376.341
390.199
400.449
406.882
409.372
407.844
402.309
392.855
379.534
362.524
342.05
318.367
291.787
262.656
231.343
198.262
163.843
128.528
92.7809
57.0477
21.7491
-12.7245
-46.0496
-77.9455
-108.195
-136.636
-163.16
-187.705
-210.252
-230.809
-249.402
-266.076
-280.882
-293.873
-305.116
-314.659
-322.55
-328.843
-333.575
-336.79
-338.494
-338.683
-337.401
-334.647
-330.405
-324.66
-317.391
-308.576
-298.195
-286.231
-272.664
-257.478
-240.662
-222.209
-202.119
-180.398
-157.064
-132.147
-105.699
-77.7953
-48.542
-18.0744
13.434
45.8183
78.7413
111.947
145.113
177.876
209.86
240.671
269.901
297.153
322.044
344.206
363.314
379.076
391.245
399.63
404.096
404.521
400.958
393.436
382.022
366.883
348.22
326.293
301.403
273.871
244.073
212.404
179.252
145.036
110.172
75.069
40.1175
5.66709
-27.9504
-60.4412
-91.5549
-121.077
-148.833
-174.695
-198.57
-220.4
-240.156
-257.835
-273.454
-287.046
-298.661
-308.356
-316.2
-322.265
-326.64
-329.39
-330.576
-330.305
-328.634
-325.616
-321.292
-315.698
-308.855
-300.77
-291.419
-280.773
-268.795
-255.416
-240.57
-224.183
-206.183
-186.502
-165.085
-141.903
-116.951
-90.2559
-61.896
-31.9952
-0.719655
31.732
64.9881
98.7643
132.675
166.312
199.233
230.972
261.072
289.082
314.579
337.179
356.536
372.363
384.433
392.58
396.727
396.75
392.795
384.985
373.408
358.297
339.92
318.579
294.595
268.321
240.114
210.35
179.406
147.621
115.343
82.9012
50.5794
18.6354
-12.6785
-43.1602
-72.626
-100.926
-127.931
-153.535
-177.657
-200.235
-221.22
-240.581
-258.298
-274.355
-288.744
-301.458
-312.5
-321.873
-329.564
-335.571
-339.93
-342.57
-343.498
-342.852
-340.531
-336.513
-330.806
-323.38
-314.195
-303.259
-290.573
-276.127
-259.92
-241.981
-222.35
-201.083
-178.235
-153.886
-128.116
-101.034
-72.739
-43.3178
-12.7096
21.1811
53.7468
86.2542
118.633
150.737
182.279
212.994
242.554
270.614
296.86
320.947
342.526
361.301
376.969
389.263
397.948
402.819
403.723
400.548
393.274
381.938
366.724
347.835
325.506
300.024
271.781
241.169
208.6
174.563
139.499
103.861
68.0395
32.7226
2.38255
-30.7732
-62.8502
-93.4283
-122.273
-149.202
-174.105
-196.926
-217.635
-236.245
-252.782
-267.296
-279.854
-290.526
-299.389
-306.525
-312.019
-315.947
-318.353
-318.915
-317.979
-315.601
-311.845
-306.751
-300.362
-292.697
-283.785
-273.642
-262.224
-249.502
171.839
203.858
235.319
265.697
294.566
321.349
345.64
367.01
385.12
399.709
410.535
417.417
420.208
418.679
412.942
403.228
389.572
372.183
351.321
327.287
300.452
271.169
239.84
206.925
172.84
138.025
102.865
67.7148
33.0823
0.950984
-31.6642
-63.3067
-93.6547
-122.508
-149.729
-175.213
-198.902
-220.761
-240.77
-258.939
-275.288
-289.844
-302.646
-313.729
-323.135
-330.9
-337.059
-341.645
-344.686
-346.175
-346.105
-344.394
-341.119
-336.217
-329.682
-321.501
-311.627
-300.022
-286.673
-271.554
-254.644
-235.947
-215.445
-193.172
-169.19
-143.548
-116.324
-87.6426
-57.6281
-26.4644
5.61435
37.3881
70.4373
103.747
136.98
169.794
201.869
232.864
262.429
290.204
315.855
339.046
359.443
376.719
390.612
400.891
407.342
409.853
408.311
402.772
393.298
379.95
362.906
342.391
318.662
292.031
262.846
231.476
198.338
163.862
128.492
92.6933
56.9133
21.5744
-12.932
-46.283
-78.1974
-108.458
-136.904
-163.429
-187.97
-210.511
-231.06
-249.643
-266.308
-281.104
-294.087
-305.321
-314.856
-322.741
-329.029
-333.757
-336.968
-338.667
-338.857
-337.576
-334.824
-330.584
-324.841
-317.576
-308.764
-298.387
-286.428
-272.865
-257.683
-240.87
-222.421
-202.333
-180.614
-157.281
-132.363
-105.911
-78.0007
-48.7366
-18.253
13.2764
45.6807
78.6358
111.878
145.084
177.893
209.927
240.789
270.072
297.377
322.32
344.53
363.681
379.481
391.68
400.087
404.564
405.006
401.417
393.884
382.447
367.275
348.573
326.601
301.662
274.078
244.226
212.502
179.297
145.03
110.118
74.9712
39.9807
5.49597
-28.1505
-60.6647
-91.7966
-121.332
-149.096
-174.963
-198.839
-220.667
-240.419
-258.092
-273.702
-287.286
-298.892
-308.578
-316.412
-322.467
-326.832
-329.569
-330.749
-330.472
-328.794
-325.77
-321.443
-315.847
-309.005
-300.922
-291.575
-280.937
-268.967
-255.598
-240.763
-224.388
-206.398
-186.728
-165.319
-142.143
-117.193
-90.495
-62.1265
-32.2116
-0.913022
31.5594
64.8519
98.6702
132.628
166.317
199.295
231.092
261.253
289.32
314.873
337.524
356.925
372.789
384.885
393.049
397.197
397.231
393.251
385.416
373.808
358.659
340.238
318.85
294.816
268.492
240.235
210.423
179.434
147.607
115.292
82.8164
50.4656
18.4968
-12.837
-43.3357
-72.8148
-101.125
-128.137
-153.746
-177.871
-200.449
-221.434
-240.794
-258.509
-274.563
-288.951
-301.663
-312.703
-322.074
-329.764
-335.771
-340.127
-342.763
-343.699
-343.051
-340.732
-336.717
-331.012
-323.59
-314.409
-303.476
-290.792
-276.348
-260.142
-242.203
-222.57
-201.3
-178.447
-154.092
-128.315
-101.225
-72.9224
-43.4954
-12.882
21.0747
53.6551
86.1828
118.588
150.724
182.304
213.061
242.666
270.772
297.065
321.199
342.824
361.643
377.35
389.678
398.391
403.284
404.212
401.009
393.728
382.378
367.135
348.208
325.832
300.297
271.996
241.324
208.695
174.6
139.482
103.795
67.9343
32.5929
2.14113
-31.0231
-63.1135
-93.7029
-122.555
-149.487
-174.389
-197.206
-217.907
-236.508
-253.034
-267.536
-280.082
-290.743
-299.595
-306.721
-312.203
-316.124
-318.524
-319.081
-318.134
-315.752
-311.993
-306.896
-300.506
-292.841
-283.93
-273.789
-262.374
-249.655
171.817
203.901
235.433
265.883
294.827
321.683
346.042
367.477
385.643
400.279
411.142
418.044
420.844
419.339
413.581
403.828
390.127
372.685
351.762
327.66
300.753
271.396
239.992
207.004
172.85
137.971
102.755
67.557
32.89
0.6979
-31.9429
-63.6064
-93.9701
-122.833
-150.059
-175.545
-199.232
-221.086
-241.088
-259.249
-275.588
-290.136
-302.928
-314.003
-323.4
-331.158
-337.311
-341.892
-344.927
-346.414
-346.349
-344.641
-341.366
-336.468
-329.939
-321.765
-311.899
-300.302
-286.961
-271.849
-254.945
-236.252
-215.752
-193.48
-169.495
-143.845
-116.611
-87.9145
-57.881
-26.6966
5.40652
37.238
70.3225
103.674
136.954
169.819
201.949
233.003
262.629
290.467
316.182
339.436
359.892
377.223
391.164
401.479
407.956
410.481
408.943
403.393
393.89
380.506
363.416
342.845
319.054
292.355
263.098
231.653
198.438
163.887
128.444
92.5759
56.7333
21.3409
-13.2094
-46.595
-78.5339
-108.81
-137.263
-163.788
-188.325
-210.856
-231.394
-249.966
-266.618
-281.401
-294.372
-305.594
-315.12
-322.996
-329.277
-333.999
-337.205
-338.897
-339.09
-337.81
-335.059
-330.822
-325.083
-317.822
-309.015
-298.644
-286.69
-273.132
-257.955
-241.148
-222.703
-202.618
-180.902
-157.57
-132.65
-106.194
-78.2749
-48.9964
-18.4917
13.0651
45.4975
78.4948
111.785
145.046
177.915
210.014
240.946
270.3
297.676
322.688
344.962
364.172
380.022
392.261
400.697
405.188
405.644
402.037
394.484
383.014
367.799
349.044
327.012
302.007
274.353
244.429
212.632
179.357
145.021
110.046
74.8404
39.7976
5.26727
-28.4178
-60.9633
-92.1195
-121.673
-149.449
-175.321
-199.198
-221.023
-240.769
-258.434
-274.035
-287.607
-299.2
-308.873
-316.694
-322.736
-327.086
-329.809
-330.982
-330.694
-329.007
-325.976
-321.644
-316.046
-309.205
-301.125
-291.784
-281.155
-269.197
-255.842
-241.021
-224.661
-206.686
-187.029
-165.631
-142.462
-117.515
-90.8144
-62.4346
-32.5009
-1.17275
31.3297
64.6698
98.5439
132.564
166.324
199.377
231.253
261.493
289.638
315.265
337.984
357.445
373.357
385.489
393.675
397.827
397.866
393.862
385.993
374.343
359.142
340.663
319.211
295.11
268.719
240.396
210.52
179.471
147.588
115.223
82.7029
50.3134
18.3118
-13.0488
-43.5701
-73.067
-101.39
-128.412
-154.027
-178.156
-200.736
-221.72
-241.078
-258.791
-274.842
-289.226
-301.936
-312.974
-322.342
-330.032
-336.038
-340.389
-343.024
-343.966
-343.317
-341
-336.989
-331.288
-323.87
-314.695
-303.766
-291.084
-276.642
-260.437
-242.498
-222.863
-201.589
-178.73
-154.368
-128.581
-101.48
-73.167
-43.7323
-13.112
20.9327
53.5323
86.0869
118.526
150.708
182.338
213.15
242.814
270.982
297.338
321.536
343.222
362.098
377.859
390.232
398.982
403.903
404.856
401.633
394.338
382.965
367.683
348.704
326.266
300.66
272.282
241.531
208.821
174.649
139.459
103.707
67.7932
32.4178
1.82071
-31.356
-63.4648
-94.0693
-122.931
-149.867
-174.768
-197.578
-218.27
-236.858
-253.37
-267.856
-280.387
-291.032
-299.869
-306.981
-312.449
-316.357
-318.754
-319.3
-318.342
-315.953
-312.19
-307.09
-300.699
-293.034
-284.124
-273.986
-262.574
-249.859
171.789
203.954
235.574
266.116
295.153
322.099
346.545
368.061
386.298
400.992
411.9
418.831
421.643
420.154
414.379
404.578
390.822
373.314
352.312
328.125
301.128
271.679
240.182
207.103
172.863
137.904
102.617
67.3587
32.6489
0.381364
-32.2917
-63.9816
-94.3648
-123.24
-150.473
-175.961
-199.645
-221.492
-241.486
-259.636
-275.964
-290.5
-303.28
-314.344
-323.731
-331.48
-337.626
-342.2
-345.229
-346.713
-346.654
-344.947
-341.675
-336.782
-330.259
-322.095
-312.238
-300.651
-287.32
-272.218
-255.321
-236.634
-216.137
-193.865
-169.876
-144.218
-116.969
-88.2546
-58.1978
-26.9876
5.14547
37.05
70.1785
103.581
136.92
169.849
202.049
233.177
262.878
290.795
316.589
339.922
360.454
377.853
391.854
402.216
408.724
411.262
409.735
404.17
394.631
381.202
364.053
343.413
319.544
292.76
263.414
231.874
198.564
163.918
128.382
92.4283
56.5073
21.048
-13.5572
-46.9862
-78.9555
-109.25
-137.711
-164.237
-188.768
-211.289
-231.813
-250.369
-267.005
-281.773
-294.728
-305.937
-315.449
-323.314
-329.587
-334.302
-337.5
-339.188
-339.381
-338.102
-335.353
-331.119
-325.385
-318.131
-309.33
-298.964
-287.017
-273.466
-258.296
-241.495
-223.055
-202.976
-181.263
-157.933
-133.01
-106.548
-78.6182
-49.3219
-18.7912
12.7993
45.2685
78.3178
111.668
144.998
177.943
210.124
241.142
270.585
298.049
323.147
345.503
364.785
380.698
392.987
401.459
405.97
406.434
402.818
395.234
383.724
368.454
349.633
327.526
302.439
274.697
244.682
212.795
179.431
145.01
109.955
74.6762
39.568
4.98059
-28.7529
-61.3374
-92.524
-122.099
-149.89
-175.769
-199.648
-221.469
-241.208
-258.862
-274.45
-288.008
-299.585
-309.243
-317.047
-323.073
-327.404
-330.11
-331.271
-330.971
-329.273
-326.233
-321.896
-316.295
-309.455
-301.379
-292.046
-281.429
-269.485
-256.146
-241.343
-225.002
-207.046
-187.406
-166.022
-142.863
-117.919
-91.2142
-62.8209
-32.8635
-1.50001
31.0429
64.4415
98.3851
132.484
166.331
199.479
231.453
261.792
290.036
315.755
338.559
358.095
374.068
386.245
394.457
398.617
398.654
394.631
386.715
375.012
359.746
341.193
319.662
295.478
269.002
240.596
210.641
179.516
147.564
115.136
82.5603
50.1223
18.0799
-13.3143
-43.8636
-73.3828
-101.723
-128.757
-154.38
-178.512
-201.094
-222.078
-241.434
-259.143
-275.191
-289.571
-302.278
-313.312
-322.678
-330.366
-336.371
-340.715
-343.353
-344.299
-343.648
-341.335
-337.33
-331.632
-324.22
-315.053
-304.128
-291.449
-277.01
-260.806
-242.866
-223.231
-201.951
-179.085
-154.712
-128.913
-101.798
-73.4726
-44.0283
-13.4003
20.7553
53.3782
85.9665
118.449
150.686
182.379
213.26
242.999
271.245
297.68
321.957
343.72
362.668
378.495
390.925
399.721
404.677
405.651
402.422
395.104
383.701
368.37
349.326
326.809
301.114
272.641
241.789
208.979
174.709
139.429
103.597
67.6155
32.1951
1.42255
-31.7717
-63.9043
-94.528
-123.401
-150.343
-175.242
-198.044
-218.723
-237.296
-253.789
-268.257
-280.768
-291.394
-300.212
-307.306
-312.757
-316.648
-319.041
-319.572
-318.601
-316.204
-312.435
-307.333
-300.939
-293.275
-284.367
-274.231
-262.824
-250.113
171.754
204.017
235.743
266.396
295.544
322.6
347.149
368.762
387.084
401.849
412.812
419.778
422.607
421.126
415.334
405.478
391.656
374.068
352.974
328.684
301.579
272.018
240.409
207.221
172.877
137.822
102.449
67.1195
32.3583
0.00138129
-32.7108
-64.4325
-94.8391
-123.73
-150.97
-176.46
-200.14
-221.98
-241.964
-260.101
-276.416
-290.937
-303.703
-314.754
-324.129
-331.867
-338.003
-342.571
-345.592
-347.073
-347.019
-345.314
-342.045
-337.159
-330.644
-322.49
-312.646
-301.071
-287.752
-272.66
-255.773
-237.092
-216.599
-194.327
-170.334
-144.665
-117.4
-88.663
-58.5787
-27.3377
4.83133
36.8237
70.0052
103.47
136.879
169.885
202.169
233.384
263.176
291.189
317.078
340.506
361.128
378.61
392.683
403.1
409.648
412.203
410.684
405.101
395.521
382.037
364.818
344.096
320.133
293.247
263.792
232.14
198.714
163.954
128.308
92.25
56.2349
20.6952
-13.9762
-47.457
-79.4627
-109.78
-138.251
-164.777
-189.301
-211.808
-232.316
-250.853
-267.47
-282.219
-295.156
-306.347
-315.844
-323.697
-329.958
-334.665
-337.855
-339.538
-339.731
-338.452
-335.705
-331.476
-325.748
-318.501
-309.707
-299.35
-287.411
-273.867
-258.705
-241.911
-223.479
-203.405
-181.696
-158.367
-133.443
-106.974
-79.0307
-49.7133
-19.1518
12.4786
44.9934
78.1047
111.527
144.938
177.975
210.254
241.376
270.926
298.496
323.698
346.151
365.522
381.51
393.86
402.375
406.911
407.38
403.757
396.137
384.576
369.241
350.34
328.142
302.956
275.109
244.986
212.99
179.518
144.996
109.845
74.478
39.2915
4.63555
-29.156
-61.7874
-93.0104
-122.612
-150.419
-176.308
-200.188
-222.004
-241.734
-259.376
-274.949
-288.49
-300.048
-309.686
-317.471
-323.476
-327.786
-330.473
-331.618
-331.303
-329.592
-326.542
-322.198
-316.594
-309.754
-301.684
-292.359
-281.756
-269.83
-256.511
-241.73
-225.412
-207.479
-187.859
-166.492
-143.344
-118.405
-91.6949
-63.2856
-33.3002
-1.89521
30.6984
64.1666
98.1932
132.387
166.339
199.6
231.692
262.151
290.512
316.343
339.25
358.875
374.922
387.153
395.398
399.567
399.6
395.552
387.582
375.815
360.471
341.829
320.203
295.919
269.342
240.836
210.785
179.569
147.533
115.03
82.3882
49.8921
17.8009
-13.6337
-44.2165
-73.7625
-102.122
-129.171
-154.804
-178.941
-201.525
-222.508
-241.861
-259.567
-275.61
-289.985
-302.688
-313.719
-323.08
-330.766
-336.77
-341.108
-343.749
-344.698
-344.046
-341.737
-337.738
-332.045
-324.639
-315.482
-304.564
-291.888
-277.451
-261.25
-243.309
-223.672
-202.386
-179.51
-155.126
-129.313
-102.181
-73.8391
-44.3833
-13.7479
20.543
53.1922
85.8206
118.356
150.659
182.428
213.392
243.221
271.559
298.09
322.462
344.317
363.353
379.258
391.757
400.609
405.605
406.601
403.373
396.027
384.585
369.194
350.072
327.461
301.659
273.07
242.099
209.167
174.78
139.391
103.462
67.4002
31.9224
0.948149
-32.2701
-64.4322
-95.0791
-123.967
-150.915
-175.811
-198.604
-219.268
-237.821
-254.294
-268.738
-281.225
-291.827
-300.623
-307.695
-313.125
-316.998
-319.383
-319.898
-318.912
-316.505
-312.73
-307.623
-301.228
-293.564
-284.658
-274.526
-263.123
-250.419
171.712
204.089
235.94
266.721
296
323.183
347.855
369.58
388.002
402.85
413.878
420.885
423.735
422.26
416.444
406.529
392.63
374.948
353.746
329.336
302.104
272.413
240.674
207.357
172.892
137.724
102.252
66.8385
32.0173
-0.442071
-33.2006
-64.9595
-95.3934
-124.302
-151.551
-177.042
-200.718
-222.549
-242.521
-260.644
-276.942
-291.447
-304.197
-315.232
-324.593
-332.318
-338.444
-343.002
-346.016
-347.494
-347.444
-345.74
-342.475
-337.597
-331.092
-322.952
-313.121
-301.56
-288.256
-273.177
-256.3
-237.627
-217.138
-194.867
-170.869
-145.187
-117.904
-89.14
-59.024
-27.7473
4.46422
36.5581
69.8018
103.339
136.83
169.927
202.307
233.625
263.523
291.648
317.648
341.186
361.915
379.494
393.651
404.133
410.727
413.306
411.792
406.188
396.56
383.012
365.712
344.892
320.82
293.814
264.233
232.449
198.889
163.995
128.219
92.0403
55.9155
20.2816
-14.467
-48.008
-80.0561
-110.399
-138.882
-165.407
-189.923
-212.415
-232.902
-251.419
-268.013
-282.739
-295.655
-306.826
-316.304
-324.142
-330.391
-335.088
-338.268
-339.946
-340.138
-338.86
-336.116
-331.892
-326.172
-318.932
-310.147
-299.799
-287.87
-274.336
-259.182
-242.397
-223.973
-203.906
-182.202
-158.875
-133.948
-107.471
-79.5127
-50.1709
-19.574
12.1025
44.6716
77.8548
111.36
144.868
178.011
210.405
241.649
271.324
299.018
324.341
346.908
366.382
382.458
394.879
403.445
408.01
408.486
404.852
397.191
385.571
370.159
351.166
328.862
303.559
275.589
245.34
213.216
179.62
144.979
109.715
74.2456
38.9675
4.23162
-29.6278
-62.3138
-93.5792
-123.212
-151.039
-176.937
-200.818
-222.629
-242.349
-259.976
-275.531
-289.053
-300.589
-310.204
-317.965
-323.947
-328.232
-330.897
-332.023
-331.69
-329.964
-326.901
-322.549
-316.942
-310.104
-302.038
-292.725
-282.139
-270.232
-256.936
-242.182
-225.891
-207.983
-188.388
-167.041
-143.906
-118.972
-92.2568
-63.8293
-33.8115
-2.35892
30.2955
63.8445
97.9676
132.272
166.347
199.74
231.971
262.569
291.068
317.03
340.056
359.787
375.919
388.213
396.497
400.679
400.704
396.626
388.596
376.752
361.317
342.572
320.834
296.433
269.737
241.116
210.952
179.63
147.496
114.905
82.1862
49.6228
17.4741
-14.0075
-44.6291
-74.2063
-102.589
-129.655
-155.298
-179.442
-202.027
-223.01
-242.36
-260.06
-276.098
-290.468
-303.167
-314.193
-323.55
-331.233
-337.236
-341.568
-344.211
-345.163
-344.51
-342.206
-338.214
-332.528
-325.129
-315.982
-305.072
-292.401
-277.967
-261.768
-243.826
-224.186
-202.893
-180.007
-155.609
-129.778
-102.628
-74.2664
-44.7973
-14.1563
20.2962
52.9738
85.648
118.248
150.627
182.485
213.546
243.479
271.926
298.567
323.05
345.014
364.151
380.149
392.728
401.645
406.689
407.71
404.484
397.107
385.619
370.158
350.944
328.222
302.295
273.572
242.459
209.386
174.861
139.345
103.303
67.1462
31.597
0.399131
-32.851
-65.0488
-95.7231
-124.628
-151.583
-176.476
-199.258
-219.904
-238.435
-254.882
-269.299
-281.759
-292.334
-301.102
-308.149
-313.555
-317.406
-319.78
-320.276
-319.275
-316.855
-313.073
-307.962
-301.565
-293.901
-284.997
-274.87
-263.473
-250.775
171.662
204.169
236.163
267.092
296.521
323.85
348.661
370.516
389.052
403.996
415.098
422.154
425.027
423.556
417.711
407.73
393.743
375.955
354.628
330.081
302.705
272.865
240.975
207.512
172.908
137.611
102.025
66.5148
31.6248
-0.949091
-33.7615
-65.563
-96.0279
-124.956
-152.215
-177.709
-201.38
-223.201
-243.158
-261.264
-277.544
-292.029
-304.761
-315.778
-325.122
-332.834
-338.948
-343.496
-346.501
-347.975
-347.929
-346.228
-342.966
-338.099
-331.605
-323.479
-313.664
-302.12
-288.832
-273.768
-256.903
-238.24
-217.756
-195.486
-171.481
-145.785
-118.48
-89.686
-59.5341
-28.2165
4.04426
36.2526
69.568
103.189
136.773
169.973
202.465
233.899
263.918
292.172
318.3
341.964
362.813
380.505
394.758
405.314
411.962
414.569
413.059
407.43
397.75
384.128
366.734
345.803
321.606
294.463
264.737
232.802
199.087
164.04
128.117
91.7988
55.5483
19.8065
-15.0306
-48.64
-80.7364
-111.108
-139.604
-166.129
-190.634
-213.109
-233.574
-252.065
-268.633
-283.333
-296.225
-307.373
-316.831
-324.652
-330.886
-335.571
-338.741
-340.413
-340.602
-339.326
-336.586
-332.368
-326.656
-319.425
-310.65
-300.313
-288.395
-274.871
-259.728
-242.953
-224.537
-204.478
-182.781
-159.456
-134.526
-108.04
-80.0647
-50.6952
-20.0585
11.6705
44.3027
77.5676
111.169
144.786
178.05
210.577
241.959
271.777
299.615
325.076
347.774
367.366
383.543
396.045
404.669
409.268
409.752
406.104
398.397
386.71
371.21
352.11
329.685
304.249
276.138
245.743
213.474
179.735
144.957
109.565
73.9783
38.5953
3.76821
-30.1687
-62.9172
-94.2311
-123.898
-151.748
-177.657
-201.54
-223.345
-243.052
-260.662
-276.197
-289.696
-301.207
-310.796
-318.53
-324.484
-328.741
-331.381
-332.485
-332.132
-330.389
-327.312
-322.95
-317.339
-310.502
-302.443
-293.142
-282.575
-270.691
-257.423
-242.698
-226.438
-208.561
-188.993
-167.668
-144.55
-119.622
-92.9003
-64.4527
-34.398
-2.89181
29.8333
63.4743
97.7077
132.139
166.355
199.899
232.289
263.047
291.704
317.815
340.979
360.829
377.061
389.427
397.756
401.953
401.968
397.854
389.756
377.825
362.285
343.422
321.555
297.02
270.189
241.434
211.142
179.698
147.453
114.761
81.9538
49.3137
17.0991
-14.4362
-45.1018
-74.7144
-103.124
-130.209
-155.865
-180.014
-202.602
-223.583
-242.93
-260.625
-276.657
-291.02
-303.714
-314.735
-324.088
-331.767
-337.768
-342.095
-344.738
-345.693
-345.04
-342.741
-338.759
-333.079
-325.689
-316.554
-305.653
-292.987
-278.556
-262.36
-244.417
-224.774
-203.473
-180.575
-156.162
-130.311
-103.138
-74.7544
-45.2699
-14.6266
20.0153
52.7221
85.4486
118.12
150.589
182.548
213.72
243.772
272.343
299.112
323.723
345.81
365.064
381.168
393.839
402.831
407.929
408.979
405.754
398.345
386.803
371.261
351.941
329.093
303.023
274.144
242.871
209.634
174.952
139.288
103.117
66.8523
31.2165
-0.222875
-33.5142
-65.7544
-96.4605
-125.385
-152.348
-177.238
-200.006
-220.632
-239.137
-255.555
-269.941
-282.369
-292.912
-301.65
-308.667
-314.046
-317.873
-320.231
-320.706
-319.688
-317.256
-313.466
-308.35
-301.949
-294.286
-285.385
-275.263
-263.873
-251.182
171.604
204.258
236.413
267.509
297.107
324.6
349.568
371.57
390.235
405.286
416.472
423.584
426.485
425.014
419.135
409.082
394.996
377.088
355.622
330.92
303.38
273.372
241.313
207.685
172.923
137.482
101.766
66.1474
31.1798
-1.51987
-34.3938
-66.2436
-96.7434
-125.694
-152.964
-178.46
-202.125
-223.934
-243.875
-261.962
-278.221
-292.685
-305.395
-316.392
-325.718
-333.413
-339.514
-344.051
-347.047
-348.516
-348.474
-346.776
-343.518
-338.662
-332.181
-324.072
-314.275
-302.749
-289.48
-274.433
-257.582
-238.93
-218.452
-196.182
-172.17
-146.459
-119.129
-90.3015
-60.1095
-28.7454
3.57144
35.9062
69.303
103.018
136.707
170.024
202.64
234.206
264.362
292.76
319.033
342.84
363.824
381.643
396.006
406.646
413.355
415.994
414.486
408.828
399.09
385.385
367.885
346.829
322.49
295.193
265.303
233.198
199.31
164.09
127.999
91.5245
55.1322
19.2689
-15.6678
-49.354
-81.5045
-111.909
-140.419
-166.943
-191.436
-213.89
-234.329
-252.792
-269.331
-284.002
-296.866
-307.989
-317.423
-325.224
-331.442
-336.114
-339.273
-340.938
-341.125
-339.849
-337.114
-332.903
-327.2
-319.98
-311.216
-300.892
-288.985
-275.473
-260.342
-243.578
-225.173
-205.123
-183.432
-160.11
-135.178
-108.681
-80.6872
-51.2867
-20.6058
11.1819
43.8857
77.2423
110.951
144.691
178.093
210.768
242.307
272.286
300.285
325.903
348.749
368.474
384.766
397.359
406.049
410.686
411.179
407.514
399.756
387.993
372.394
353.174
330.611
305.025
276.755
246.197
213.763
179.863
144.931
109.394
73.6754
38.1743
3.24457
-30.7794
-63.5985
-94.9665
-124.673
-152.548
-178.469
-202.353
-224.151
-243.844
-261.435
-276.947
-290.42
-301.902
-311.462
-319.166
-325.088
-329.315
-331.926
-333.005
-332.629
-330.866
-327.774
-323.401
-317.785
-310.95
-302.898
-293.611
-283.066
-271.207
-257.969
-243.279
-227.053
-209.211
-189.674
-168.376
-145.275
-120.355
-93.6262
-65.1564
-35.0607
-3.49461
29.3109
63.0551
97.4125
131.986
166.361
200.076
232.645
263.584
292.419
318.699
342.017
362.004
378.346
390.795
399.175
403.389
403.392
399.236
391.063
379.033
363.374
344.377
322.365
297.68
270.696
241.79