/*--------------------------------*- C++ -*----------------------------------*\
| =========                 |                                                 |
| \\      /  F ield         | OpenFOAM: The Open Source CFD Toolbox           |
|  \\    /   O peration     | Version:  3.0.1                                 |
|   \\  /    A nd           | Web:      www.OpenFOAM.org                      |
|    \\/     M anipulation  |                                                 |
\*---------------------------------------------------------------------------*/
FoamFile
{
    version     2.0;
    format      ascii;
    class       volScalarField;
    location    "19";
    object      p;
}
// * * * * * * * * * * * * * * * * * * * * * * * * * * * * * * * * * * * * * //

dimensions      [1 -1 -2 0 0 0 0];

internalField   nonuniform List<scalar> 
21420
(
4045.69
4077.59
4108.92
4139.16
4167.88
4194.53
4218.69
4239.94
4257.96
4272.47
4283.25
4290.12
4292.89
4291.37
4285.68
4276.05
4262.48
4245.18
4224.43
4200.51
4173.78
4144.62
4113.39
4080.57
4046.57
4011.81
3976.67
3941.52
3906.89
3875.33
3842.66
3810.99
3780.62
3751.76
3724.53
3699.04
3675.34
3653.46
3633.44
3615.26
3598.89
3584.32
3571.51
3560.41
3551
3543.23
3537.07
3532.49
3529.46
3528.01
3528.14
3529.88
3533.18
3538.1
3544.65
3552.85
3562.75
3574.37
3587.74
3602.88
3619.81
3638.52
3659.02
3681.29
3705.26
3730.88
3758.06
3786.66
3816.55
3847.55
3879.47
3912.49
3945.62
3978.89
4012.04
4044.75
4076.71
4107.58
4137.01
4164.67
4190.21
4213.3
4233.61
4250.84
4264.72
4275.01
4281.52
4284.12
4282.74
4277.35
4268.07
4254.93
4238.11
4217.82
4194.33
4167.92
4138.94
4107.77
4074.81
4040.49
4005.25
3969.55
3933.84
3898.54
3864.03
3830.66
3798.69
3768.36
3739.82
3713.19
3688.54
3665.88
3645.22
3626.53
3609.77
3594.88
3581.82
3570.52
3560.93
3553
3546.67
3541.92
3538.68
3536.97
3536.77
3538.06
3540.81
3545.06
3550.81
3558.09
3566.91
3577.3
3589.27
3602.85
3618.04
3634.87
3653.33
3673.42
3695.15
3718.49
3743.4
3769.85
3797.74
3826.99
3857.44
3888.92
3921.29
3954.18
3987.36
4020.48
4053.2
4085.14
4115.9
4145.08
4172.28
4197.12
4219.24
4238.3
4254.03
4266.17
4274.54
4279
4279.4
4275.89
4268.38
4257
4241.91
4223.3
4201.44
4176.63
4149.18
4119.47
4087.89
4054.84
4020.72
3985.95
3950.95
3916.1
3881.74
3848.22
3815.83
3784.81
3755.38
3727.71
3701.94
3678.16
3656.42
3636.75
3619.16
3603.64
3590.14
3578.62
3569.03
3561.28
3555.32
3551.06
3548.41
3547.32
3547.71
3549.5
3552.63
3557.06
3562.77
3569.73
3577.93
3587.39
3598.15
3610.24
3623.73
3638.69
3655.18
3673.28
3693.06
3714.56
3737.82
3762.84
3789.59
3817.98
3847.9
3879.17
3911.58
3944.79
3978.5
4012.31
4045.83
4078.6
4110.17
4140.08
4167.89
4193.16
4215.53
4234.65
4250.24
4262.08
4270.01
4273.95
4273.8
4269.69
4261.75
4250.07
4234.89
4216.48
4195.14
4171.18
4144.97
4116.85
4087.21
4056.4
4024.78
3992.67
3960.41
3928.28
3896.53
3865.41
3835.14
3805.89
3777.8
3751.01
3725.62
3701.71
3679.34
3658.57
3639.42
3621.91
3606.05
3591.86
3579.34
3568.48
3559.28
3551.75
3545.88
3541.65
3539.07
3538.21
3538.99
3541.39
3545.46
3551.21
3558.65
3567.77
3578.58
3591.11
3605.33
3621.26
3638.85
3658.09
3678.96
3701.4
3725.35
3750.74
3777.5
3805.51
3834.65
3864.76
3894.91
3926.26
3957.97
3989.75
4021.36
4052.48
4082.82
4112.03
4139.77
4165.7
4189.49
4210.79
4229.3
4244.72
4256.79
4265.29
4270.04
4270.81
4267.51
4260.15
4248.84
4233.68
4214.89
4192.7
4167.43
4139.47
4109.22
4077.08
4043.55
4009.07
3974.09
3939
3904.42
3872.48
3840.04
3808.63
3778.65
3750.33
3723.84
3699.3
3676.77
3656.29
3637.83
3621.39
3606.92
3594.36
3583.65
3574.72
3567.5
3561.91
3557.91
3555.48
3554.7
3555.49
3557.77
3561.47
3566.54
3572.94
3580.65
3589.64
3599.89
3611.44
3624.33
3947.58
3979.5
4010.85
4041.11
4069.85
4096.51
4120.69
4141.96
4159.99
4174.52
4185.3
4192.18
4194.96
4193.43
4187.74
4178.1
4164.52
4147.21
4126.44
4102.5
4075.76
4046.57
4015.33
3982.49
3948.47
3913.7
3878.55
3843.38
3808.75
3777.16
3744.49
3712.81
3682.45
3653.58
3626.35
3600.85
3577.15
3555.28
3535.26
3517.08
3500.72
3486.15
3473.33
3462.24
3452.83
3445.06
3438.91
3434.33
3431.3
3429.85
3429.98
3431.72
3435.02
3439.93
3446.48
3454.69
3464.58
3476.2
3489.57
3504.71
3521.63
3540.34
3560.85
3583.11
3607.09
3632.71
3659.89
3688.49
3718.39
3749.39
3781.32
3814.35
3847.49
3880.77
3913.93
3946.66
3978.63
4009.51
4038.96
4066.63
4092.19
4115.3
4135.63
4152.87
4166.75
4177.05
4183.58
4186.18
4184.79
4179.4
4170.12
4156.97
4140.14
4119.84
4096.32
4069.9
4040.91
4009.71
3976.74
3942.4
3907.14
3871.42
3835.7
3800.38
3765.87
3732.48
3700.51
3670.17
3641.63
3615
3590.35
3567.7
3547.04
3528.35
3511.59
3496.71
3483.65
3472.35
3462.76
3454.83
3448.51
3443.75
3440.52
3438.81
3438.61
3439.9
3442.65
3446.9
3452.65
3459.93
3468.75
3479.14
3491.11
3504.68
3519.87
3536.7
3555.16
3575.25
3596.98
3620.31
3645.23
3671.68
3699.58
3728.82
3759.28
3790.77
3823.15
3856.05
3889.23
3922.37
3955.11
3987.06
4017.84
4047.04
4074.25
4099.11
4121.24
4140.33
4156.06
4168.22
4176.59
4181.05
4181.47
4177.94
4170.43
4159.04
4143.94
4125.32
4103.45
4078.61
4051.15
4021.42
3989.82
3956.75
3922.61
3887.83
3852.82
3817.95
3783.59
3750.06
3717.65
3686.63
3657.19
3629.53
3603.75
3579.97
3558.23
3538.56
3520.98
3505.46
3491.96
3480.45
3470.85
3463.11
3457.15
3452.89
3450.25
3449.16
3449.56
3451.34
3454.48
3458.91
3464.62
3471.58
3479.78
3489.24
3500
3512.09
3525.57
3540.52
3557.01
3575.11
3594.88
3616.38
3639.64
3664.65
3691.41
3719.81
3749.73
3781.01
3813.42
3846.65
3880.37
3914.2
3947.73
3980.52
4012.11
4042.04
4069.86
4095.16
4117.54
4136.68
4152.29
4164.13
4172.07
4176.01
4175.85
4171.74
4163.79
4152.1
4136.91
4118.48
4097.13
4073.15
4046.92
4018.79
3989.13
3958.31
3926.67
3894.55
3862.28
3830.14
3798.38
3767.26
3736.98
3707.72
3679.63
3652.84
3627.45
3603.54
3581.17
3560.4
3541.24
3523.74
3507.88
3493.69
3481.17
3470.31
3461.11
3453.58
3447.72
3443.48
3440.91
3440.05
3440.82
3443.23
3447.3
3453.05
3460.48
3469.6
3480.41
3492.93
3507.16
3523.08
3540.68
3559.92
3580.79
3603.22
3627.18
3652.58
3679.33
3707.35
3736.49
3766.61
3796.77
3828.13
3859.84
3891.64
3923.26
3954.39
3984.74
4013.97
4041.72
4067.67
4091.48
4112.79
4131.31
4146.75
4158.83
4167.34
4172.09
4172.87
4169.56
4162.2
4150.89
4135.71
4116.91
4094.7
4069.42
4041.44
4011.16
3979.01
3945.46
3910.96
3875.96
3840.86
3806.27
3774.32
3741.86
3710.45
3680.47
3652.14
3625.65
3601.11
3578.58
3558.1
3539.65
3523.21
3508.75
3496.19
3485.48
3476.55
3469.33
3463.75
3459.75
3457.32
3456.54
3457.33
3459.62
3463.32
3468.39
3474.79
3482.5
3491.49
3501.74
3513.29
3526.18
3849.47
3881.43
3912.81
3943.1
3971.88
3998.58
4022.79
4044.09
4062.15
4076.7
4087.51
4094.39
4097.18
4095.66
4089.96
4080.3
4066.7
4049.36
4028.56
4004.59
3977.81
3948.59
3917.31
3884.44
3850.38
3815.57
3780.4
3745.21
3710.55
3678.93
3646.24
3614.56
3584.19
3555.32
3528.08
3502.59
3478.89
3457.02
3437
3418.83
3402.47
3387.9
3375.09
3364.01
3354.6
3346.83
3340.68
3336.1
3333.08
3331.63
3331.76
3333.5
3336.79
3341.71
3348.25
3356.45
3366.34
3377.96
3391.33
3406.46
3423.38
3442.09
3462.59
3484.86
3508.83
3534.46
3561.65
3590.26
3620.16
3651.18
3683.12
3716.17
3749.33
3782.64
3815.82
3848.57
3880.57
3911.48
3940.96
3968.66
3994.25
4017.39
4037.75
4055.02
4068.93
4079.25
4085.78
4088.41
4086.99
4081.61
4072.31
4059.15
4042.29
4021.97
3998.42
3971.96
3942.93
3911.7
3878.69
3844.31
3809.01
3773.26
3737.51
3702.16
3667.63
3634.23
3602.24
3571.89
3543.35
3516.72
3492.07
3469.42
3448.77
3430.09
3413.34
3398.46
3385.41
3374.11
3364.53
3356.6
3350.28
3345.53
3342.3
3340.59
3340.4
3341.68
3344.44
3348.68
3354.43
3361.7
3370.52
3380.91
3392.88
3406.45
3421.64
3438.46
3456.91
3477.01
3498.73
3522.07
3546.99
3573.44
3601.34
3630.59
3661.06
3692.57
3724.95
3757.88
3791.09
3824.25
3857.02
3889.01
3919.82
3949.05
3976.3
4001.2
4023.36
4042.47
4058.23
4070.41
4078.79
4083.26
4083.69
4080.14
4072.63
4061.22
4046.1
4027.45
4005.55
3980.69
3953.18
3923.42
3891.79
3858.68
3824.51
3789.7
3754.65
3719.76
3685.37
3651.82
3619.4
3588.36
3558.92
3531.25
3505.47
3481.69
3459.95
3440.29
3422.71
3407.19
3393.7
3382.19
3372.6
3364.87
3358.92
3354.66
3352.03
3350.95
3351.35
3353.14
3356.27
3360.71
3366.42
3373.38
3381.57
3391.03
3401.79
3413.87
3427.35
3442.29
3458.78
3476.87
3496.63
3518.13
3541.38
3566.39
3593.15
3621.55
3651.49
3682.78
3715.21
3748.46
3782.2
3816.06
3849.63
3882.46
3914.09
3944.06
3971.92
3997.25
4019.67
4038.84
4054.47
4066.33
4074.28
4078.23
4078.07
4073.94
4065.97
4054.27
4039.05
4020.59
3999.2
3975.2
3948.94
3920.77
3891.07
3860.23
3828.56
3796.42
3764.13
3731.96
3700.19
3669.05
3638.76
3609.49
3581.4
3554.6
3529.2
3505.29
3482.93
3462.15
3443
3425.5
3409.64
3395.46
3382.93
3372.07
3362.88
3355.35
3349.48
3345.25
3342.68
3341.82
3342.59
3345
3349.07
3354.81
3362.24
3371.36
3382.17
3394.69
3408.92
3424.84
3442.44
3461.68
3482.54
3504.98
3528.93
3554.34
3581.1
3609.12
3638.27
3668.4
3698.59
3729.96
3761.69
3793.5
3825.15
3856.31
3886.68
3915.94
3943.72
3969.71
3993.55
4014.89
4033.44
4048.9
4061
4069.53
4074.29
4075.09
4071.76
4064.4
4053.07
4037.88
4019.05
3996.81
3971.49
3943.48
3913.16
3880.97
3847.38
3812.84
3777.81
3742.68
3708.07
3676.08
3643.61
3612.19
3582.19
3553.86
3527.37
3502.83
3480.3
3459.82
3441.38
3424.95
3410.49
3397.94
3387.24
3378.32
3371.1
3365.52
3361.52
3359.1
3358.33
3359.13
3361.41
3365.12
3370.19
3376.59
3384.3
3393.29
3403.54
3415.09
3427.97
3751.36
3783.36
3814.79
3845.14
3873.98
3900.73
3924.99
3946.34
3964.44
3979.03
3989.86
3996.75
3999.56
3998.05
3992.34
3982.65
3969.01
3951.64
3930.79
3906.77
3879.94
3850.66
3819.32
3786.4
3752.29
3717.44
3682.22
3647
3612.32
3580.62
3547.93
3516.23
3485.85
3456.97
3429.73
3404.24
3380.54
3358.68
3338.66
3320.49
3304.14
3289.58
3276.78
3265.7
3256.3
3248.54
3242.39
3237.82
3234.8
3233.35
3233.47
3235.21
3238.5
3243.42
3249.96
3258.15
3268.03
3279.65
3293.01
3308.14
3325.05
3343.76
3364.26
3386.53
3410.51
3436.14
3463.33
3491.96
3521.88
3552.91
3584.88
3617.95
3651.14
3684.48
3717.7
3750.49
3782.53
3813.48
3843.01
3870.76
3896.4
3919.58
3939.98
3957.29
3971.24
3981.58
3988.14
3990.78
3989.36
3983.97
3974.65
3961.46
3944.57
3924.21
3900.62
3874.11
3845.02
3813.74
3780.66
3746.23
3710.88
3675.08
3639.27
3603.89
3569.32
3535.89
3503.89
3473.53
3444.98
3418.35
3393.7
3371.06
3350.42
3331.75
3315
3300.13
3287.09
3275.81
3266.23
3258.31
3252
3247.25
3244.02
3242.32
3242.12
3243.4
3246.16
3250.4
3256.15
3263.42
3272.23
3282.62
3294.58
3308.15
3323.33
3340.15
3358.6
3378.69
3400.42
3423.75
3448.67
3475.12
3503.03
3532.3
3562.78
3594.31
3626.72
3659.67
3692.92
3726.12
3758.94
3790.97
3821.84
3851.12
3878.43
3903.37
3925.58
3944.74
3960.54
3972.74
3981.15
3985.63
3986.08
3982.5
3974.97
3963.55
3948.39
3929.71
3907.76
3882.84
3855.29
3825.47
3793.79
3760.62
3726.4
3691.54
3656.45
3621.52
3587.1
3553.52
3521.08
3490.02
3460.57
3432.88
3407.1
3383.31
3361.58
3341.92
3324.35
3308.84
3295.36
3283.86
3274.28
3266.56
3260.62
3256.37
3253.74
3252.68
3253.08
3254.88
3258.02
3262.46
3268.17
3275.13
3283.32
3292.78
3303.52
3315.6
3329.07
3344
3360.47
3378.55
3398.31
3419.79
3443.04
3468.05
3494.81
3523.22
3553.17
3584.49
3616.94
3650.22
3684.01
3717.92
3751.54
3784.43
3816.11
3846.14
3874.06
3899.45
3921.92
3941.13
3956.79
3968.69
3976.65
3980.6
3980.45
3976.29
3968.3
3956.56
3941.31
3922.81
3901.37
3877.32
3851
3822.79
3793.04
3762.15
3730.44
3698.26
3665.94
3633.75
3601.94
3570.79
3540.49
3511.2
3483.1
3456.29
3430.89
3406.98
3384.61
3363.84
3344.69
3327.18
3311.34
3297.15
3284.63
3273.77
3264.58
3257.05
3251.18
3246.95
3244.39
3243.52
3244.29
3246.7
3250.77
3256.51
3263.94
3273.05
3283.86
3296.38
3310.6
3326.52
3344.12
3363.36
3384.23
3406.67
3430.62
3456.03
3482.81
3510.83
3540
3570.13
3600.37
3631.75
3663.51
3695.35
3727.03
3758.23
3788.65
3817.95
3845.78
3871.81
3895.7
3917.09
3935.68
3951.18
3963.31
3971.87
3976.65
3977.47
3974.12
3966.76
3955.41
3940.18
3921.31
3899.03
3873.65
3845.59
3815.21
3782.96
3749.31
3714.72
3679.64
3644.46
3609.82
3577.78
3545.28
3513.84
3483.83
3455.49
3428.99
3404.46
3381.93
3361.46
3343.02
3326.6
3312.15
3299.62
3288.93
3280.01
3272.81
3267.24
3263.24
3260.81
3260.05
3260.87
3263.16
3266.87
3271.94
3278.34
3286.05
3295.04
3305.28
3316.83
3329.72
3653.23
3685.3
3716.81
3747.23
3776.14
3802.96
3827.29
3848.71
3866.86
3881.5
3892.37
3899.28
3902.09
3900.61
3894.88
3885.15
3871.47
3854.04
3833.13
3809.04
3782.14
3752.78
3721.38
3688.38
3654.2
3619.29
3584.02
3548.75
3514.03
3482.26
3449.55
3417.83
3387.43
3358.54
3331.3
3305.8
3282.11
3260.25
3240.25
3222.08
3205.74
3191.19
3178.4
3167.33
3157.93
3150.18
3144.04
3139.47
3136.46
3135.01
3135.12
3136.86
3140.15
3145.06
3151.6
3159.79
3169.66
3181.27
3194.62
3209.74
3226.65
3245.35
3265.85
3288.12
3312.1
3337.74
3364.95
3393.59
3423.53
3454.59
3486.58
3519.69
3552.92
3586.3
3619.57
3652.41
3684.51
3715.52
3745.11
3772.92
3798.62
3821.87
3842.33
3859.69
3873.68
3884.07
3890.65
3893.3
3891.89
3886.48
3877.14
3863.92
3846.98
3826.56
3802.91
3776.33
3747.18
3715.82
3682.67
3648.16
3612.73
3576.86
3541
3505.56
3470.94
3437.48
3405.45
3375.08
3346.52
3319.89
3295.25
3272.61
3251.98
3233.32
3216.59
3201.73
3188.7
3177.43
3167.86
3159.95
3153.65
3148.9
3145.69
3143.99
3143.79
3145.07
3147.82
3152.06
3157.81
3165.07
3173.88
3184.26
3196.22
3209.78
3224.96
3241.77
3260.22
3280.31
3302.03
3325.36
3350.28
3376.74
3404.66
3433.94
3464.44
3496
3528.43
3561.43
3594.72
3627.99
3660.86
3692.96
3723.89
3753.25
3780.63
3805.64
3827.92
3847.13
3862.98
3875.22
3883.66
3888.15
3888.62
3885.02
3877.47
3866.01
3850.81
3832.08
3810.07
3785.09
3757.46
3727.57
3695.81
3662.58
3628.29
3593.37
3558.22
3523.24
3488.77
3455.15
3422.68
3391.6
3362.12
3334.43
3308.64
3284.85
3263.12
3243.47
3225.9
3210.41
3196.94
3185.45
3175.89
3168.17
3162.25
3158.01
3155.4
3154.35
3154.76
3156.56
3159.71
3164.16
3169.87
3176.83
3185.02
3194.47
3205.2
3217.27
3230.72
3245.64
3262.1
3280.16
3299.91
3321.38
3344.62
3369.63
3396.39
3424.81
3454.78
3486.13
3518.61
3551.94
3585.79
3619.76
3653.45
3686.41
3718.18
3748.29
3776.28
3801.74
3824.28
3843.55
3859.26
3871.19
3879.17
3883.13
3882.98
3878.8
3870.77
3858.99
3843.68
3825.13
3803.62
3779.5
3753.12
3724.84
3695.04
3664.08
3632.32
3600.09
3567.72
3535.49
3503.66
3472.48
3442.15
3412.85
3384.73
3357.91
3332.51
3308.59
3286.22
3265.45
3246.3
3228.8
3212.96
3198.77
3186.26
3175.4
3166.21
3158.68
3152.82
3148.59
3146.04
3145.16
3145.93
3148.34
3152.4
3158.14
3165.57
3174.68
3185.48
3198
3212.22
3228.14
3245.73
3264.97
3285.84
3308.28
3332.24
3357.66
3384.44
3412.48
3441.66
3471.81
3502.1
3533.51
3565.31
3597.19
3628.92
3660.17
3690.64
3720
3747.89
3773.99
3797.94
3819.39
3838.04
3853.58
3865.76
3874.35
3879.15
3880
3876.63
3869.26
3857.88
3842.62
3823.69
3801.35
3775.9
3747.76
3717.31
3684.98
3651.25
3616.58
3581.44
3546.21
3511.52
3479.41
3446.88
3415.41
3385.38
3357.03
3330.53
3305.99
3283.47
3263
3244.58
3228.17
3213.74
3201.22
3190.54
3181.64
3174.45
3168.89
3164.9
3162.47
3161.72
3162.55
3164.85
3168.57
3173.64
3180.05
3187.76
3196.74
3206.98
3218.53
3231.41
3555.11
3587.26
3618.85
3649.36
3678.36
3705.28
3729.69
3751.19
3769.41
3784.11
3795.02
3801.97
3804.79
3803.33
3797.58
3787.8
3774.06
3756.57
3735.58
3711.41
3684.42
3654.97
3623.47
3590.38
3556.12
3521.12
3485.79
3450.46
3415.7
3383.82
3351.09
3319.35
3288.93
3260.03
3232.79
3207.29
3183.6
3161.75
3141.75
3123.59
3107.26
3092.73
3079.95
3068.88
3059.5
3051.76
3045.62
3041.06
3038.06
3036.61
3036.72
3038.45
3041.74
3046.65
3053.18
3061.35
3071.22
3082.81
3096.15
3111.27
3128.17
3146.87
3167.37
3189.63
3213.62
3239.27
3266.49
3295.15
3325.12
3356.21
3388.24
3421.38
3454.66
3488.1
3521.43
3554.34
3586.5
3617.59
3647.25
3675.15
3700.93
3724.25
3744.78
3762.22
3776.27
3786.7
3793.31
3795.98
3794.58
3789.16
3779.78
3766.51
3749.52
3729.03
3705.3
3678.64
3649.4
3617.94
3584.7
3550.09
3514.58
3478.62
3442.67
3407.17
3372.5
3338.99
3306.93
3276.54
3247.97
3221.34
3196.7
3174.08
3153.46
3134.81
3118.1
3103.26
3090.24
3078.99
3069.43
3061.53
3055.24
3050.5
3047.29
3045.59
3045.4
3046.68
3049.43
3053.66
3059.4
3066.66
3075.47
3085.84
3097.79
3111.34
3126.52
3143.32
3161.77
3181.85
3203.57
3226.9
3251.82
3278.29
3306.21
3335.51
3366.04
3397.63
3430.1
3463.15
3496.5
3529.84
3562.78
3594.97
3625.99
3655.43
3682.9
3708
3730.36
3749.64
3765.56
3777.85
3786.32
3790.84
3791.3
3787.7
3780.12
3768.62
3753.37
3734.56
3712.48
3687.42
3659.7
3629.72
3597.87
3564.55
3530.18
3495.18
3459.95
3424.9
3390.38
3356.71
3324.2
3293.09
3263.59
3235.89
3210.09
3186.3
3164.57
3144.93
3127.38
3111.89
3098.43
3086.96
3077.41
3069.72
3063.81
3059.59
3057
3055.96
3056.38
3058.2
3061.35
3065.81
3071.52
3078.48
3086.67
3096.11
3106.83
3118.88
3132.32
3147.22
3163.66
3181.7
3201.43
3222.89
3246.12
3271.13
3297.89
3326.33
3356.32
3387.7
3420.23
3453.62
3487.53
3521.58
3555.36
3588.42
3620.28
3650.49
3678.58
3704.13
3726.76
3746.1
3761.87
3773.84
3781.85
3785.81
3785.66
3781.46
3773.39
3761.55
3746.18
3727.55
3705.97
3681.76
3655.3
3626.94
3597.05
3566.02
3534.19
3501.9
3469.48
3437.2
3405.32
3374.11
3343.75
3314.43
3286.29
3259.47
3234.05
3210.13
3187.76
3166.99
3147.85
3130.35
3114.51
3100.33
3087.82
3076.97
3067.78
3060.25
3054.39
3050.17
3047.62
3046.73
3047.5
3049.91
3053.97
3059.71
3067.13
3076.23
3087.03
3099.54
3113.76
3129.68
3147.27
3166.51
3187.38
3209.83
3233.79
3259.22
3286.01
3314.07
3343.27
3373.44
3403.79
3435.24
3467.07
3499.01
3530.79
3562.11
3592.65
3622.09
3650.06
3676.23
3700.26
3721.78
3740.5
3756.12
3768.35
3776.98
3781.81
3782.68
3779.32
3771.92
3760.5
3745.19
3726.2
3703.77
3678.24
3650.01
3619.45
3587.02
3553.2
3518.44
3483.21
3447.91
3413.16
3380.97
3348.4
3316.9
3286.85
3258.48
3231.97
3207.43
3184.92
3164.46
3146.05
3129.66
3115.25
3102.74
3092.09
3083.2
3076.03
3070.48
3066.5
3064.06
3063.34
3064.18
3066.5
3070.21
3075.3
3081.7
3089.41
3098.39
3108.63
3120.18
3133.05
3456.97
3489.22
3520.92
3551.54
3580.65
3607.67
3632.2
3653.79
3672.1
3686.86
3697.83
3704.81
3707.65
3706.2
3700.43
3690.6
3676.8
3659.23
3638.15
3613.87
3586.77
3557.21
3525.6
3492.4
3458.03
3422.95
3387.53
3352.14
3317.31
3285.33
3252.56
3220.8
3190.36
3161.44
3134.19
3108.69
3085
3063.16
3043.17
3025.03
3008.71
2994.19
2981.42
2970.37
2961
2953.27
2947.14
2942.59
2939.59
2938.15
2938.25
2939.98
2943.27
2948.17
2954.69
2962.86
2972.71
2984.29
2997.62
3012.72
3029.62
3048.3
3068.8
3091.07
3115.07
3140.73
3167.96
3196.65
3226.64
3257.77
3289.85
3323.03
3356.38
3389.88
3423.28
3456.27
3488.52
3519.69
3549.45
3577.44
3603.31
3626.73
3647.35
3664.87
3678.99
3689.48
3696.13
3698.82
3697.42
3691.98
3682.57
3669.25
3652.19
3631.62
3607.79
3581.03
3551.68
3520.11
3486.75
3452.03
3416.41
3380.34
3344.3
3308.72
3273.98
3240.42
3208.32
3177.91
3149.33
3122.7
3098.07
3075.46
3054.85
3036.23
3019.53
3004.71
2991.71
2980.47
2970.93
2963.05
2956.76
2952.04
2948.83
2947.14
2946.95
2948.23
2950.97
2955.21
2960.94
2968.19
2976.99
2987.35
2999.29
3012.84
3028.01
3044.81
3063.24
3083.32
3105.03
3128.36
3153.29
3179.76
3207.7
3237.02
3267.58
3299.21
3331.73
3364.84
3398.26
3431.68
3464.72
3497
3528.12
3557.67
3585.25
3610.45
3632.9
3652.28
3668.27
3680.62
3689.14
3693.68
3694.15
3690.53
3682.92
3671.37
3656.05
3637.17
3614.99
3589.83
3562.01
3531.93
3499.97
3466.54
3432.06
3396.96
3361.65
3326.53
3291.93
3258.21
3225.65
3194.5
3164.98
3137.25
3111.45
3087.66
3065.94
3046.3
3028.76
3013.29
2999.85
2988.4
2978.87
2971.2
2965.3
2961.11
2958.54
2957.51
2957.95
2959.78
2962.94
2967.41
2973.13
2980.08
2988.26
2997.69
3008.4
3020.44
3033.86
3048.73
3065.15
3083.17
3102.88
3124.32
3147.54
3172.55
3199.31
3227.77
3257.78
3289.2
3321.79
3355.24
3389.24
3423.39
3457.27
3490.44
3522.42
3552.75
3580.96
3606.62
3629.35
3648.78
3664.63
3676.65
3684.69
3688.66
3688.5
3684.28
3676.15
3664.25
3648.8
3630.08
3608.4
3584.1
3557.53
3529.07
3499.09
3467.97
3436.05
3403.69
3371.2
3338.87
3306.93
3275.68
3245.3
3215.95
3187.79
3160.95
3135.53
3111.6
3089.23
3068.46
3049.32
3031.83
3015.99
3001.82
2989.31
2978.46
2969.28
2961.75
2955.89
2951.68
2949.13
2948.24
2949.01
2951.42
2955.47
2961.2
2968.62
2977.72
2988.51
3001.02
3015.23
3031.14
3048.73
3067.98
3088.85
3111.3
3135.27
3160.71
3187.52
3215.59
3244.82
3275.01
3305.44
3336.92
3368.82
3400.81
3432.66
3464.05
3494.68
3524.21
3552.27
3578.54
3602.66
3624.28
3643.09
3658.78
3671.08
3679.76
3684.62
3685.51
3682.16
3674.73
3663.27
3647.89
3628.82
3606.31
3580.67
3552.32
3521.65
3489.1
3455.16
3420.29
3384.96
3349.57
3314.76
3282.47
3249.85
3218.3
3188.22
3159.84
3133.32
3108.78
3086.28
3065.83
3047.44
3031.07
3016.68
3004.2
2993.56
2984.7
2977.54
2972.01
2968.04
2965.6
2964.9
2965.76
2968.09
2971.81
2976.9
2983.31
2991.01
2999.99
3010.23
3021.77
3034.64
3358.83
3391.19
3423.02
3453.76
3483.01
3510.16
3534.8
3556.5
3574.91
3589.76
3600.8
3607.82
3610.68
3609.24
3603.45
3593.55
3579.67
3562.01
3540.82
3516.42
3489.2
3459.51
3427.76
3394.44
3359.95
3324.75
3289.24
3253.77
3218.88
3186.76
3153.96
3122.16
3091.7
3062.77
3035.5
3010
2986.32
2964.49
2944.51
2926.39
2910.09
2895.58
2882.83
2871.79
2862.44
2854.72
2848.6
2844.06
2841.07
2839.62
2839.72
2841.45
2844.73
2849.62
2856.14
2864.29
2874.13
2885.69
2899.01
2914.1
2930.98
2949.67
2970.16
2992.43
3016.43
3042.11
3069.36
3098.07
3128.1
3159.28
3191.41
3224.64
3258.06
3291.64
3325.13
3358.2
3390.55
3421.83
3451.69
3479.79
3505.78
3529.3
3550.03
3567.64
3581.85
3592.4
3599.1
3601.81
3600.42
3594.97
3585.5
3572.12
3554.98
3534.32
3510.38
3483.5
3454.03
3422.33
3388.83
3353.98
3318.22
3282.04
3245.89
3210.21
3175.39
3141.77
3109.63
3079.19
3050.6
3023.97
2999.34
2976.75
2956.16
2937.56
2920.88
2906.09
2893.11
2881.89
2872.37
2864.5
2858.23
2853.51
2850.32
2848.63
2848.44
2849.72
2852.46
2856.69
2862.41
2869.66
2878.45
2888.8
2900.74
2914.27
2929.43
2946.22
2964.65
2984.72
3006.43
3029.76
3054.68
3081.16
3109.12
3138.46
3169.06
3200.73
3233.3
3266.49
3300
3333.51
3366.65
3399.05
3430.29
3459.97
3487.67
3512.99
3535.56
3555.04
3571.11
3583.54
3592.1
3596.67
3597.15
3593.53
3585.87
3574.27
3558.87
3539.89
3517.61
3492.33
3464.39
3434.18
3402.09
3368.54
3333.94
3298.73
3263.32
3228.1
3193.43
3159.64
3127.02
3095.83
3066.28
3038.53
3012.72
2988.93
2967.21
2947.59
2930.06
2914.6
2901.19
2889.76
2880.25
2872.6
2866.73
2862.56
2860.01
2859.01
2859.46
2861.3
2864.49
2868.95
2874.68
2881.63
2889.81
2899.23
2909.92
2921.93
2935.33
2950.18
2966.57
2984.57
3004.25
3025.67
3048.88
3073.88
3100.65
3129.12
3159.17
3190.64
3223.29
3256.83
3290.92
3325.17
3359.18
3392.48
3424.61
3455.07
3483.42
3509.21
3532.06
3551.59
3567.52
3579.61
3587.69
3591.67
3591.5
3587.25
3579.06
3567.08
3551.54
3532.71
3510.92
3486.5
3459.82
3431.24
3401.14
3369.92
3337.91
3305.46
3272.89
3240.49
3208.5
3177.21
3146.78
3117.4
3089.22
3062.36
3036.93
3013
2990.63
2969.86
2950.72
2933.23
2917.4
2903.23
2890.73
2879.89
2870.71
2863.19
2857.33
2853.12
2850.58
2849.69
2850.45
2852.86
2856.91
2862.63
2870.04
2879.13
2889.92
2902.42
2916.63
2932.54
2950.13
2969.37
2990.24
3012.7
3036.68
3062.13
3088.95
3117.05
3146.31
3176.54
3207.03
3238.57
3270.53
3302.6
3334.53
3366.01
3396.74
3426.37
3454.54
3480.92
3505.15
3526.88
3545.78
3561.56
3573.94
3582.68
3587.59
3588.5
3585.15
3577.7
3566.18
3550.73
3531.57
3508.94
3483.18
3454.7
3423.89
3391.2
3357.13
3322.13
3286.68
3251.19
3216.3
3183.9
3151.22
3119.62
3089.51
3061.1
3034.57
3010.04
2987.54
2967.12
2948.74
2932.4
2918.03
2905.57
2894.96
2886.12
2878.99
2873.48
2869.52
2867.07
2866.4
2867.29
2869.63
2873.36
2878.46
2884.86
2892.57
2901.55
2911.78
2923.31
2936.18
3260.68
3293.17
3325.14
3356.04
3385.43
3412.72
3437.5
3459.34
3477.86
3492.8
3503.92
3510.98
3513.87
3512.43
3506.61
3496.66
3482.69
3464.92
3443.61
3419.07
3391.7
3361.86
3329.97
3296.49
3261.87
3226.55
3190.92
3155.36
3120.4
3088.14
3055.29
3023.45
2992.96
2964.01
2936.74
2911.24
2887.56
2865.74
2845.77
2827.67
2811.38
2796.9
2784.16
2773.15
2763.81
2756.1
2750
2745.46
2742.48
2741.04
2741.13
2742.86
2746.14
2751.02
2757.52
2765.66
2775.48
2787.03
2800.33
2815.4
2832.28
2850.95
2871.44
2893.71
2917.72
2943.41
2970.69
2999.43
3029.5
3060.73
3092.92
3126.21
3159.71
3193.38
3226.96
3260.15
3292.61
3324
3353.98
3382.21
3408.33
3431.98
3452.82
3470.55
3484.85
3495.47
3502.23
3504.97
3503.58
3498.1
3488.59
3475.13
3457.9
3437.13
3413.07
3386.06
3356.44
3324.59
3290.94
3255.93
3220.03
3183.7
3147.43
3111.63
3076.73
3043.04
3010.85
2980.38
2951.78
2925.14
2900.53
2877.95
2857.39
2838.81
2822.16
2807.39
2794.44
2783.24
2773.74
2765.89
2759.63
2754.93
2751.74
2750.07
2749.87
2751.15
2753.89
2758.11
2763.83
2771.07
2779.85
2790.19
2802.11
2815.64
2830.79
2847.56
2865.98
2886.05
2907.75
2931.07
2956.01
2982.49
3010.47
3039.84
3070.47
3102.2
3134.83
3168.1
3201.7
3235.32
3268.59
3301.12
3332.5
3362.32
3390.16
3415.63
3438.33
3457.92
3474.1
3486.6
3495.23
3499.83
3500.32
3496.68
3488.98
3477.3
3461.82
3442.74
3420.33
3394.92
3366.84
3336.48
3304.25
3270.55
3235.82
3200.48
3164.95
3129.62
3094.86
3060.99
3028.32
2997.08
2967.49
2939.72
2913.9
2890.11
2868.39
2848.78
2831.27
2815.84
2802.44
2791.04
2781.56
2773.93
2768.09
2763.95
2761.43
2760.44
2760.92
2762.78
2765.97
2770.45
2776.18
2783.13
2791.3
2800.71
2811.39
2823.38
2836.75
2851.57
2867.92
2885.89
2905.55
2926.95
2950.14
2975.13
3001.91
3030.4
3060.49
3092.01
3124.73
3158.36
3192.56
3226.94
3261.09
3294.55
3326.83
3357.45
3385.96
3411.9
3434.88
3454.54
3470.56
3482.72
3490.85
3494.84
3494.66
3490.37
3482.11
3470.04
3454.39
3435.45
3413.53
3388.98
3362.16
3333.45
3303.22
3271.88
3239.75
3207.2
3174.55
3142.08
3110.02
3078.67
3048.2
3018.79
2990.58
2963.71
2938.26
2914.32
2891.95
2871.18
2852.05
2834.57
2818.74
2804.58
2792.09
2781.25
2772.08
2764.56
2758.7
2754.5
2751.96
2751.07
2751.83
2754.23
2758.28
2764
2771.4
2780.48
2791.26
2803.75
2817.95
2833.86
2851.45
2870.69
2891.56
2914.02
2938.01
2963.48
2990.33
3018.45
3047.74
3078.01
3108.59
3140.19
3172.21
3204.36
3236.39
3267.97
3298.81
3328.56
3356.85
3383.36
3407.72
3429.57
3448.59
3464.48
3476.95
3485.76
3490.71
3491.65
3488.3
3480.81
3469.24
3453.71
3434.44
3411.69
3385.78
3357.15
3326.18
3293.34
3259.1
3223.96
3188.37
3152.76
3117.79
3085.25
3052.51
3020.86
2990.71
2962.28
2935.74
2911.2
2888.72
2868.31
2849.96
2833.64
2819.3
2806.87
2796.29
2787.48
2780.37
2774.88
2770.94
2768.49
2767.86
2768.77
2771.12
2774.86
2779.96
2786.37
2794.08
2803.05
2813.28
2824.8
2837.66
3162.53
3195.17
3227.29
3258.35
3287.91
3315.37
3340.31
3362.29
3380.94
3395.99
3407.19
3414.31
3417.23
3415.79
3409.94
3399.91
3385.85
3367.96
3346.5
3321.81
3294.28
3264.27
3232.21
3198.57
3163.79
3128.32
3092.57
3056.91
3021.87
2989.45
2956.55
2924.67
2894.14
2865.17
2837.89
2812.38
2788.71
2766.9
2746.96
2728.87
2712.61
2698.14
2685.43
2674.43
2665.11
2657.42
2651.33
2646.81
2643.83
2642.39
2642.48
2644.2
2647.48
2652.35
2658.84
2666.96
2676.76
2688.29
2701.57
2716.63
2733.49
2752.16
2772.64
2794.92
2818.93
2844.64
2871.94
2900.72
2930.84
2962.12
2994.38
3027.73
3061.32
3095.1
3128.79
3162.09
3194.68
3226.2
3256.33
3284.69
3310.95
3334.74
3355.73
3373.58
3387.98
3398.7
3405.51
3408.28
3406.9
3401.4
3391.83
3378.29
3360.96
3340.06
3315.86
3288.69
3258.91
3226.89
3193.07
3157.89
3121.82
3085.34
3048.92
3013
2978
2944.23
2911.99
2881.48
2852.86
2826.23
2801.63
2779.07
2758.53
2739.98
2723.36
2708.62
2695.69
2684.52
2675.04
2667.21
2660.97
2656.28
2653.11
2651.44
2651.25
2652.52
2655.26
2659.48
2665.19
2672.41
2681.18
2691.51
2703.42
2716.94
2732.07
2748.84
2767.25
2787.3
2809
2832.32
2857.25
2883.75
2911.74
2941.14
2971.82
3003.61
3036.32
3069.67
3103.39
3137.13
3170.53
3203.21
3234.75
3264.73
3292.73
3318.35
3341.2
3360.93
3377.22
3389.82
3398.51
3403.15
3403.65
3399.99
3392.24
3380.48
3364.9
3345.7
3323.15
3297.59
3269.35
3238.83
3206.43
3172.58
3137.69
3102.2
3066.54
3031.1
2996.23
2962.28
2929.53
2898.24
2868.61
2840.82
2814.98
2791.19
2769.48
2749.89
2732.39
2716.98
2703.62
2692.24
2682.79
2675.2
2669.39
2665.28
2662.78
2661.82
2662.32
2664.2
2667.41
2671.9
2677.63
2684.58
2692.75
2702.14
2712.8
2724.76
2738.1
2752.89
2769.21
2787.14
2806.77
2828.14
2851.32
2876.3
2903.09
2931.6
2961.73
2993.31
3026.11
3059.84
3094.17
3128.7
3163
3196.63
3229.09
3259.9
3288.58
3314.69
3337.82
3357.61
3373.75
3385.99
3394.16
3398.17
3397.98
3393.64
3385.31
3373.14
3357.37
3338.29
3316.23
3291.53
3264.55
3235.69
3205.33
3173.84
3141.59
3108.93
3076.19
3043.63
3011.49
2980.08
2949.56
2920.11
2891.88
2864.98
2839.52
2815.58
2793.2
2772.44
2753.31
2735.83
2720.02
2705.86
2693.37
2682.54
2673.38
2665.86
2660.01
2655.81
2653.27
2652.38
2653.14
2655.55
2659.59
2665.29
2672.68
2681.76
2692.53
2705.01
2719.21
2735.11
2752.7
2771.94
2792.81
2815.28
2839.28
2864.76
2891.63
2919.79
2949.11
2979.43
3010.1
3041.76
3073.87
3106.11
3138.24
3169.94
3200.91
3230.79
3259.22
3285.87
3310.38
3332.37
3351.52
3367.52
3380.09
3388.98
3393.99
3394.96
3391.61
3384.09
3372.45
3356.82
3337.43
3314.54
3288.48
3259.67
3228.52
3195.5
3161.09
3125.77
3090.04
3054.29
3019.22
2986.54
2953.72
2922.01
2891.82
2863.36
2836.81
2812.27
2789.8
2769.41
2751.09
2734.8
2720.5
2708.1
2697.55
2688.77
2681.69
2676.23
2672.3
2669.85
2669.25
2670.19
2672.56
2676.31
2681.42
2687.83
2695.53
2704.5
2714.73
2726.25
2739.09
3064.36
3097.16
3129.47
3160.71
3190.46
3218.1
3243.21
3265.35
3284.15
3299.32
3310.62
3317.81
3320.75
3319.31
3313.42
3303.32
3289.14
3271.12
3249.51
3224.65
3196.93
3166.73
3134.48
3100.66
3065.71
3030.08
2994.19
2958.41
2923.28
2890.7
2857.74
2825.8
2795.24
2766.25
2738.95
2713.45
2689.78
2667.99
2648.06
2629.99
2613.75
2599.31
2586.62
2575.65
2566.34
2558.67
2552.6
2548.09
2545.12
2543.69
2543.77
2545.49
2548.76
2553.62
2560.09
2568.19
2577.97
2589.49
2602.75
2617.79
2634.63
2653.29
2673.77
2696.04
2720.07
2745.79
2773.12
2801.94
2832.11
2863.46
2895.79
2929.21
2962.91
2996.79
3030.61
3064.04
3096.76
3128.44
3158.71
3187.24
3213.66
3237.61
3258.74
3276.73
3291.26
3302.07
3308.95
3311.76
3310.38
3304.85
3295.21
3281.59
3264.14
3243.1
3218.75
3191.41
3161.45
3129.24
3095.22
3059.85
3023.59
2986.94
2950.36
2914.31
2879.19
2845.34
2813.03
2782.49
2753.85
2727.22
2702.63
2680.1
2659.59
2641.06
2624.48
2609.77
2596.88
2585.73
2576.28
2568.47
2562.25
2557.57
2554.42
2552.75
2552.57
2553.84
2556.58
2560.78