/*--------------------------------*- C++ -*----------------------------------*\
| =========                 |                                                 |
| \\      /  F ield         | OpenFOAM: The Open Source CFD Toolbox           |
|  \\    /   O peration     | Version:  3.0.1                                 |
|   \\  /    A nd           | Web:      www.OpenFOAM.org                      |
|    \\/     M anipulation  |                                                 |
\*---------------------------------------------------------------------------*/
FoamFile
{
    version     2.0;
    format      ascii;
    class       volScalarField;
    location    "21.2";
    object      p;
}
// * * * * * * * * * * * * * * * * * * * * * * * * * * * * * * * * * * * * * //

dimensions      [1 -1 -2 0 0 0 0];

internalField   nonuniform List<scalar> 
21420
(
3792.97
3821.71
3851.85
3882.56
3910.47
3943.93
3978.34
4012.87
4047.07
4080.56
4112.89
4143.64
4172.39
4198.72
4222.23
4242.55
4259.34
4272.38
4281.46
4286.45
4287.18
4283.77
4276.22
4264.66
4249.23
4230.22
4207.87
4182.52
4154.56
4124.38
4092.39
4059.05
4024.8
3990.08
3955.32
3921.03
3888.93
3856.67
3825.1
3794.66
3765.65
3738.24
3712.55
3688.64
3666.56
3646.31
3627.89
3611.26
3596.41
3583.28
3571.83
3562.01
3553.78
3547.1
3541.93
3538.24
3536.04
3535.34
3536.23
3538.64
3542.6
3548.14
3555.31
3564.11
3574.57
3586.75
3600.65
3616.28
3633.67
3652.79
3673.63
3696.15
3720.31
3746.01
3773.18
3801.7
3831.42
3862.19
3893.68
3925.74
3958.31
3991.06
4023.66
4055.83
4087.19
4117.37
4146.02
4172.76
4197.21
4219
4237.82
4253.37
4265.4
4273.69
4278.09
4278.47
4274.86
4267.28
4255.76
4240.45
4221.54
4199.29
4173.98
4145.95
4115.59
4083.31
4049.56
4014.79
3979.46
3944.02
3908.9
3874.48
3841.11
3809.08
3778.64
3749.97
3723.2
3698.4
3675.64
3654.9
3636.19
3619.46
3604.67
3591.75
3580.64
3571.28
3563.59
3557.51
3552.96
3549.87
3548.21
3547.94
3548.94
3551.22
3554.75
3559.5
3565.48
3572.69
3581.14
3590.87
3601.92
3614.33
3628.17
3643.48
3660.33
3678.75
3698.8
3720.49
3743.82
3768.78
3795.31
3823.31
3852.68
3883.25
3914.82
3947.12
3979.87
4012.75
4045.39
4077.4
4108.37
4137.86
4165.45
4190.71
4213.24
4232.65
4248.61
4260.83
4269.07
4273.18
4273.03
4268.67
4260.19
4247.66
4231.32
4211.47
4188.42
4162.57
4134.31
4104.1
4072.37
4039.58
4006.16
3972.53
3939.07
3906.18
3874.08
3843.07
3813.37
3785.14
3758.49
3733.52
3710.24
3688.69
3668.85
3650.7
3634.19
3619.28
3605.94
3594.1
3583.74
3574.82
3567.31
3561.18
3556.43
3553.03
3551.01
3550.39
3551.15
3553.31
3556.91
3561.97
3568.55
3576.67
3586.38
3597.71
3610.7
3625.38
3641.77
3659.9
3679.74
3701.29
3724.5
3749.32
3775.66
3803.4
3832.42
3862.54
3893.56
3925.29
3957.4
3989.63
4021.67
4053.18
4083.82
4113.23
4141.02
4166.85
4190.36
4211.21
4229.08
4243.7
4254.82
4262.25
4265.85
4265.49
4261.22
4253.07
4241.09
4225.46
4206.39
4184.14
4159.03
4131.41
4101.67
4070.22
4037.5
4003.93
3969.95
3935.99
3902.43
3869.64
3837.93
3807.59
3778.83
3751.81
3726.68
3703.48
3682.24
3662.98
3645.63
3630.14
3616.45
3604.45
3594.06
3585.17
3577.7
3571.57
3566.7
3563.05
3560.63
3559.42
3559.44
3560.69
3563.24
3567.12
3572.42
3579.18
3587.47
3597.38
3608.95
3622.25
3637.33
3654.21
3672.92
3693.46
3715.78
3739.85
3765.57
3792.83
3821.48
3851.31
3882.03
3913.12
3944.93
3976.93
4008.8
4040.15
4070.66
4099.94
4127.64
4153.46
4177.07
4198.17
4216.53
4231.91
4244.1
4252.95
4258.35
4260.11
4258.19
4252.66
4243.59
4231.06
4215.23
4196.28
4174.43
4150
4123.25
4094.54
4064.25
4032.77
4000.49
3967.81
3935.12
3902.94
3871.84
3841.11
3811.37
3782.9
3755.93
3730.62
3707.08
3685.39
3665.61
3647.76
3631.85
3617.84
3605.72
3595.44
3586.93
3580.13
3575
3571.43
3569.4
3568.88
3569.92
3694.79
3723.53
3753.69
3784.42
3812.3
3845.78
3880.21
3914.76
3948.97
3982.48
4014.83
4045.59
4074.37
4100.72
4124.24
4144.58
4161.39
4174.43
4183.52
4188.51
4189.25
4185.83
4178.27
4166.7
4151.27
4132.23
4109.87
4084.51
4056.52
4026.33
3994.32
3960.96
3926.69
3891.95
3857.18
3822.87
3790.78
3758.51
3726.93
3696.49
3667.47
3640.06
3614.36
3590.46
3568.38
3548.13
3529.71
3513.09
3498.24
3485.11
3473.66
3463.85
3455.62
3448.94
3443.77
3440.09
3437.89
3437.18
3438.07
3440.48
3444.44
3449.98
3457.14
3465.94
3476.4
3488.58
3502.47
3518.11
3535.49
3554.61
3575.45
3597.98
3622.13
3647.84
3675.02
3703.54
3733.26
3764.04
3795.53
3827.6
3860.18
3892.94
3925.56
3957.74
3989.11
4019.31
4047.98
4074.73
4099.2
4121.01
4139.84
4155.41
4167.44
4175.74
4180.15
4180.52
4176.91
4169.33
4157.8
4142.48
4123.56
4101.29
4075.96
4047.92
4017.54
3985.24
3951.47
3916.68
3881.33
3845.88
3810.74
3776.31
3742.93
3710.9
3680.45
3651.78
3625
3600.21
3577.45
3556.72
3538.01
3521.28
3506.49
3493.58
3482.47
3473.11
3465.42
3459.34
3454.8
3451.71
3450.06
3449.78
3450.79
3453.07
3456.6
3461.35
3467.33
3474.53
3482.99
3492.72
3503.76
3516.17
3530.01
3545.32
3562.16
3580.58
3600.62
3622.31
3645.65
3670.6
3697.13
3725.14
3754.52
3785.09
3816.66
3848.98
3881.74
3914.63
3947.29
3979.32
4010.3
4039.81
4067.42
4092.7
4115.25
4134.68
4150.65
4162.88
4171.13
4175.25
4175.09
4170.73
4162.24
4149.7
4133.35
4113.48
4090.42
4064.54
4036.27
4006.04
3974.29
3941.48
3908.04
3874.39
3840.92
3808.02
3775.91
3744.9
3715.19
3686.96
3660.31
3635.34
3612.07
3590.52
3570.68
3552.53
3536.02
3521.12
3507.77
3495.94
3485.59
3476.67
3469.15
3463.03
3458.28
3454.88
3452.85
3452.23
3452.99
3455.15
3458.75
3463.81
3470.39
3478.5
3488.21
3499.54
3512.53
3527.21
3543.6
3561.72
3581.56
3603.11
3626.32
3651.14
3677.49
3705.24
3734.26
3764.38
3795.41
3827.15
3859.27
3891.51
3923.57
3955.1
3985.75
4015.17
4042.98
4068.83
4092.35
4113.21
4131.1
4145.73
4156.86
4164.3
4167.9
4167.54
4163.27
4155.12
4143.13
4127.49
4108.4
4086.14
4061.01
4033.38
4003.62
3972.15
3939.4
3905.82
3871.83
3837.85
3804.28
3771.47
3739.76
3709.41
3680.64
3653.63
3628.49
3605.29
3584.06
3564.79
3547.45
3531.97
3518.28
3506.29
3495.89
3487.01
3479.55
3473.42
3468.55
3464.9
3462.48
3461.28
3461.29
3462.54
3465.09
3468.97
3474.26
3481.02
3489.31
3499.21
3510.78
3524.08
3539.15
3556.03
3574.74
3595.28
3617.6
3641.67
3667.39
3694.66
3723.31
3753.15
3783.88
3814.98
3846.8
3878.81
3910.7
3942.07
3972.59
4001.88
4029.6
4055.43
4079.05
4100.17
4118.54
4133.93
4146.13
4154.99
4160.38
4162.16
4160.22
4154.69
4145.62
4133.09
4117.24
4098.28
4076.42
4051.97
4025.21
3996.48
3966.18
3934.68
3902.38
3869.69
3836.99
3804.8
3773.69
3742.95
3713.2
3684.73
3657.75
3632.44
3608.9
3587.21
3567.43
3549.58
3533.67
3519.67
3507.55
3497.27
3488.76
3481.97
3476.83
3473.27
3471.25
3470.73
3471.77
3596.52
3625.27
3655.46
3686.23
3714.06
3747.59
3782.05
3816.63
3850.88
3884.41
3916.8
3947.6
3976.42
4002.81
4026.37
4046.73
4063.57
4076.64
4085.74
4090.74
4091.49
4088.04
4080.48
4068.89
4053.43
4034.37
4011.98
3986.57
3958.56
3928.32
3896.27
3862.88
3828.57
3793.8
3758.99
3724.64
3692.59
3660.29
3628.69
3598.23
3569.21
3541.79
3516.09
3492.19
3470.11
3449.87
3431.45
3414.84
3399.99
3386.87
3375.43
3365.62
3357.39
3350.71
3345.55
3341.87
3339.67
3338.97
3339.85
3342.26
3346.21
3351.76
3358.91
3367.71
3378.17
3390.34
3404.23
3419.86
3437.24
3456.36
3477.2
3499.73
3523.89
3549.6
3576.78
3605.31
3635.04
3665.83
3697.34
3729.42
3762.02
3794.8
3827.45
3859.65
3891.05
3921.29
3949.99
3976.78
4001.27
4023.12
4041.98
4057.57
4069.62
4077.94
4082.37
4082.74
4079.12
4071.53
4059.98
4044.65
4025.7
4003.4
3978.04
3949.95
3919.54
3887.2
3853.39
3818.57
3783.18
3747.69
3712.53
3678.07
3644.68
3612.63
3582.18
3553.5
3526.72
3501.93
3479.16
3458.44
3439.74
3423.02
3408.23
3395.33
3384.23
3374.87
3367.19
3361.12
3356.58
3353.5
3351.85
3351.58
3352.59
3354.87
3358.4
3363.15
3369.13
3376.33
3384.78
3394.51
3405.55
3417.95
3431.78
3447.08
3463.92
3482.34
3502.38
3524.06
3547.39
3572.35
3598.88
3626.9
3656.28
3686.87
3718.46
3750.79
3783.58
3816.5
3849.19
3881.25
3912.27
3941.82
3969.47
3994.79
4017.37
4036.83
4052.83
4065.08
4073.35
4077.49
4077.32
4072.95
4064.45
4051.89
4035.51
4015.61
3992.51
3966.59
3938.28
3908.01
3876.22
3843.38
3809.91
3776.23
3742.73
3709.81
3677.68
3646.66
3616.94
3588.7
3562.06
3537.08
3513.81
3492.27
3472.43
3454.29
3437.78
3422.89
3409.55
3397.72
3387.37
3378.45
3370.94
3364.82
3360.07
3356.67
3354.65
3354.03
3354.78
3356.93
3360.53
3365.59
3372.16
3380.28
3389.98
3401.3
3414.29
3428.96
3445.35
3463.47
3483.31
3504.86
3528.07
3552.9
3579.24
3607
3636.03
3666.17
3697.21
3728.97
3761.12
3793.38
3825.46
3857.02
3887.7
3917.15
3945
3970.88
3994.44
4015.33
4033.24
4047.89
4059.04
4066.5
4070.12
4069.75
4065.47
4057.31
4045.3
4029.64
4010.53
3988.24
3963.07
3935.4
3905.6
3874.1
3841.32
3807.7
3773.67
3739.66
3706.07
3673.24
3641.51
3611.15
3582.37
3555.35
3530.21
3507.02
3485.79
3466.53
3449.2
3433.72
3420.04
3408.06
3397.67
3388.8
3381.35
3375.22
3370.36
3366.71
3364.29
3363.08
3363.09
3364.34
3366.88
3370.76
3376.05
3382.8
3391.08
3400.98
3412.54
3425.83
3440.9
3457.78
3476.49
3497.02
3519.34
3543.41
3569.14
3596.42
3625.08
3654.94
3685.68
3716.8
3748.64
3780.68
3812.59
3843.99
3874.54
3903.87
3931.61
3957.47
3981.12
4002.27
4020.66
4036.07
4048.29
4057.16
4062.56
4064.35
4062.4
4056.87
4047.79
4035.24
4019.37
4000.38
3978.5
3954.02
3927.22
3898.46
3868.13
3836.6
3804.26
3771.54
3738.82
3706.6
3675.48
3644.72
3614.96
3586.47
3559.49
3534.17
3510.63
3488.94
3469.16
3451.32
3435.41
3421.41
3409.3
3399.02
3390.52
3383.74
3378.61
3375.05
3373.04
3372.52
3373.56
3498.16
3526.94
3557.16
3587.99
3615.76
3649.34
3683.86
3718.49
3752.78
3786.37
3818.82
3849.67
3878.55
3904.99
3928.61
3949.02
3965.89
3978.99
3988.11
3993.12
3993.9
3990.42
3982.85
3971.23
3955.73
3936.63
3914.18
3888.73
3860.65
3830.36
3798.26
3764.81
3730.44
3695.62
3660.75
3626.35
3594.36
3562.01
3530.37
3499.9
3470.86
3443.44
3417.74
3393.84
3371.77
3351.53
3333.12
3316.51
3301.68
3288.56
3277.13
3267.32
3259.11
3252.43
3247.27
3243.59
3241.39
3240.7
3241.57
3243.98
3247.93
3253.47
3260.62
3269.41
3279.86
3292.02
3305.91
3321.54
3338.92
3358.03
3378.88
3401.4
3425.57
3451.28
3478.47
3507.01
3536.76
3567.57
3599.1
3631.2
3663.83
3696.64
3729.33
3761.58
3793.02
3823.31
3852.06
3878.89
3903.44
3925.34
3944.25
3959.87
3971.95
3980.29
3984.73
3985.12
3981.48
3973.88
3962.31
3946.94
3927.96
3905.61
3880.2
3852.06
3821.58
3789.19
3755.32
3720.44
3685
3649.47
3614.26
3579.77
3546.35
3514.28
3483.81
3455.12
3428.34
3403.55
3380.79
3360.08
3341.38
3324.67
3309.9
3297
3285.92
3276.57
3268.9
3262.83
3258.3
3255.23
3253.59
3253.32
3254.33
3256.62
3260.15
3264.91
3270.88
3278.08
3286.52
3296.24
3307.28
3319.68
3333.49
3348.79
3365.61
3384.02
3404.06
3425.74
3449.07
3474.02
3500.56
3528.59
3557.98
3588.58
3620.2
3652.57
3685.39
3718.36
3751.09
3783.21
3814.28
3843.89
3871.59
3896.97
3919.6
3939.11
3955.16
3967.44
3975.74
3979.88
3979.72
3975.33
3966.81
3954.22
3937.8
3917.85
3894.69
3868.72
3840.35
3810.02
3778.18
3745.28
3711.76
3678.03
3644.49
3611.54
3579.39
3548.34
3518.62
3490.37
3463.72
3438.74
3415.48
3393.94
3374.11
3355.97
3339.48
3324.59
3311.26
3299.44
3289.09
3280.18
3272.67
3266.55
3261.8
3258.41
3256.39
3255.76
3256.51
3258.66
3262.25
3267.31
3273.88
3281.98
3291.68
3303
3315.97
3330.65
3347.03
3365.14
3384.98
3406.53
3429.75
3454.58
3480.93
3508.7
3537.74
3567.9
3598.97
3630.76
3662.93
3695.23
3727.35
3758.95
3789.68
3819.18
3847.08
3873.01
3896.61
3917.55
3935.5
3950.19
3961.37
3968.84
3972.48
3972.12
3967.82
3959.65
3947.62
3931.92
3912.77
3890.43
3865.22
3837.49
3807.64
3776.07
3743.24
3709.57
3675.49
3641.44
3607.8
3574.95
3543.19
3512.8
3484.02
3456.99
3431.85
3408.66
3387.44
3368.18
3350.86
3335.4
3321.73
3309.76
3299.39
3290.53
3283.09
3276.97
3272.12
3268.48
3266.06
3264.84
3264.84
3266.09
3268.63
3272.5
3277.78
3284.52
3292.79
3302.68
3314.23
3327.52
3342.58
3359.45
3378.15
3398.68
3421
3445.08
3470.82
3498.1
3526.79
3556.66
3587.43
3618.58
3650.45
3682.53
3714.48
3745.92
3776.52
3805.89
3833.68
3859.58
3883.28
3904.46
3922.89
3938.33
3950.57
3959.46
3964.87
3966.69
3964.71
3959.18
3950.08
3937.51
3921.61
3902.59
3880.66
3856.14
3829.29
3800.49
3770.1
3738.52
3706.14
3673.38
3640.61
3608.37
3577.21
3546.43
3516.64
3488.14
3461.15
3435.83
3412.28
3390.59
3370.81
3352.97
3337.07
3323.08
3310.98
3300.71
3292.22
3285.44
3280.32
3276.77
3274.77
3274.25
3275.3
3399.72
3428.53
3458.8
3489.72
3517.38
3551.05
3585.64
3620.33
3654.69
3688.35
3720.86
3751.8
3780.75
3807.27
3830.96
3851.43
3868.36
3881.5
3890.65
3895.67
3896.46
3892.97
3885.37
3873.71
3858.17
3839
3816.49
3790.96
3762.82
3732.45
3700.27
3666.74
3632.31
3597.41
3562.47
3528
3496.07
3463.67
3431.99
3401.49
3372.43
3345
3319.31
3295.41
3273.34
3253.11
3234.71
3218.12
3203.29
3190.19
3178.76
3168.97
3160.76
3154.09
3148.93
3145.26
3143.06
3142.36
3143.23
3145.64
3149.59
3155.12
3162.26
3171.04
3181.49
3193.64
3207.52
3223.14
3240.52
3259.63
3280.48
3303.01
3327.17
3352.9
3380.1
3408.65
3438.42
3469.25
3500.81
3532.94
3565.61
3598.47
3631.2
3663.51
3695.01
3725.36
3754.18
3781.09
3805.7
3827.66
3846.63
3862.31
3874.43
3882.79
3887.25
3887.65
3884.01
3876.38
3864.78
3849.37
3830.33
3807.92
3782.44
3754.23
3723.68
3691.21
3657.26
3622.31
3586.8
3551.2
3515.94
3481.4
3447.94
3415.84
3385.36
3356.66
3329.87
3305.09
3282.33
3261.63
3242.94
3226.25
3211.49
3198.6
3187.53
3178.2
3170.54
3164.49
3159.97
3156.91
3155.28
3155.01
3156.03
3158.32
3161.86
3166.61
3172.58
3179.78
3188.22
3197.93
3208.95
3221.34
3235.14
3250.43
3267.24
3285.64
3305.66
3327.33
3350.66
3375.62
3402.16
3430.2
3459.62
3490.24
3521.89
3554.3
3587.17
3620.19
3652.99
3685.17
3716.32
3746
3773.79
3799.24
3821.94
3841.52
3857.62
3869.95
3878.28
3882.44
3882.29
3877.89
3869.33
3856.69
3840.22
3820.2
3796.97
3770.92
3742.47
3712.06
3680.14
3647.17
3613.59
3579.8
3546.21
3513.22
3481.03
3449.96
3420.22
3391.96
3365.3
3340.33
3317.07
3295.54
3275.72
3257.59
3241.11
3226.23
3212.91
3201.1
3190.76
3181.86
3174.35
3168.23
3163.48
3160.09
3158.07
3157.44
3158.19
3160.34
3163.92
3168.97
3175.53
3183.63
3193.31
3204.62
3217.59
3232.26
3248.64
3266.74
3286.58
3308.13
3331.35
3356.18
3382.55
3410.33
3439.4
3469.57
3500.67
3532.5
3564.72
3597.06
3629.24
3660.9
3691.69
3721.25
3749.22
3775.21
3798.88
3819.87
3837.89
3852.62
3863.84
3871.34
3874.99
3874.64
3870.34
3862.13
3850.07
3834.33
3815.13
3792.72
3767.44
3739.64
3709.71
3678.08
3645.17
3611.42
3577.29
3543.17
3509.49
3476.59
3444.79
3414.38
3385.58
3358.54
3333.4
3310.21
3289
3269.76
3252.45
3237.01
3223.35
3211.4
3201.05
3192.2
3184.77
3178.67
3173.83
3170.19
3167.78
3166.55
3166.55
3167.79
3170.32
3174.18
3179.45
3186.18
3194.44
3204.31
3215.85
3229.13
3244.18
3261.04
3279.74
3300.27
3322.59
3346.67
3372.42
3399.72
3428.42
3458.33
3489.13
3520.31
3552.23
3584.36
3616.37
3647.87
3678.52
3707.96
3735.81
3761.77
3785.52
3806.76
3825.23
3840.71
3852.99
3861.9
3867.33
3869.16
3867.18
3861.63
3852.51
3839.9
3823.97
3804.89
3782.91
3758.33
3731.42
3702.55
3672.1
3640.45
3608.01
3575.19
3542.37
3510.08
3478.88
3448.07
3418.26
3389.74
3362.73
3337.39
3313.84
3292.15
3272.38
3254.55
3238.65
3224.68
3212.58
3202.33
3193.85
3187.08
3181.97
3178.43
3176.44
3175.92
3176.98
3301.19
3330.03
3360.36
3391.4
3418.93
3452.71
3487.39
3522.16
3556.6
3590.34
3622.95
3653.98
3683.03
3709.65
3733.42
3753.97
3770.97
3784.16
3793.35
3798.39
3799.19
3795.68
3788.04
3776.33
3760.73
3741.5
3718.9
3693.29
3665.04
3634.58
3602.31
3568.69
3534.17
3499.17
3464.14
3429.57
3397.75
3365.27
3333.53
3303
3273.92
3246.49
3220.78
3196.89
3174.83
3154.61
3136.22
3119.64
3104.83
3091.74
3080.33
3070.54
3062.34
3055.69
3050.54
3046.87
3044.68
3043.97
3044.83
3047.24
3051.18
3056.7
3063.84
3072.61
3083.04
3095.19
3109.06
3124.68
3142.05
3161.16
3182
3204.53
3228.7
3254.44
3281.65
3310.23
3340.02
3370.87
3402.48
3434.64
3467.36
3500.28
3533.07
3565.45
3597.03
3627.46
3656.36
3683.35
3708.05
3730.09
3749.13
3764.87
3777.05
3785.45
3789.93
3790.34
3786.69
3779.04
3767.4
3751.93
3732.83
3710.35
3684.78
3656.48
3625.83
3593.26
3559.22
3524.16
3488.57
3452.89
3417.56
3382.96
3349.45
3317.32
3286.81
3258.1
3231.31
3206.53
3183.78
3163.09
3144.42
3127.74
3113
3100.13
3089.08
3079.76
3072.12
3066.08
3061.58
3058.53
3056.91
3056.65
3057.68
3059.98
3063.51
3068.27
3074.23
3081.43
3089.86
3099.56
3110.57
3122.94
3136.73
3152
3168.8
3187.18
3207.19
3228.86
3252.18
3277.14
3303.69
3331.74
3361.18
3391.84
3423.53
3455.99
3488.92
3522.01
3554.89
3587.16
3618.4
3648.18
3676.06
3701.6
3724.4
3744.06
3760.23
3772.62
3780.99
3785.16
3785.03
3780.6
3772
3759.31
3742.77
3722.67
3699.35
3673.2
3644.65
3614.14
3582.13
3549.07
3515.4
3481.54
3447.88
3414.85
3382.61
3351.51
3321.74
3293.47
3266.81
3241.83
3218.58
3197.06
3177.25
3159.14
3142.67
3127.81
3114.5
3102.7
3092.37
3083.47
3075.98
3069.86
3065.11
3061.72
3059.7
3059.07
3059.81
3061.95
3065.53
3070.57
3077.12
3085.21
3094.88
3106.18
3119.14
3133.8
3150.17
3168.27
3188.1
3209.65
3232.87
3257.72
3284.1
3311.9
3340.98
3371.19
3402.33
3434.21
3466.48
3498.88
3531.12
3562.85
3593.72
3623.37
3651.41
3677.49
3701.24
3722.31
3740.39
3755.19
3766.46
3773.99
3777.65
3777.32
3773
3764.77
3752.67
3736.87
3717.59
3695.11
3669.75
3641.86
3611.83
3580.1
3547.1
3513.27
3479.05
3444.87
3411.12
3378.16
3346.32
3315.88
3287.05
3260.01
3234.86
3211.67
3190.47
3171.25
3153.96
3138.54
3124.91
3112.98
3102.65
3093.82
3086.41
3080.32
3075.49
3071.87
3069.45
3068.21
3068.21
3069.45
3071.96
3075.81
3081.07
3087.78
3096.02
3105.88
3117.4
3130.66
3145.7
3162.55
3181.25
3201.77
3224.09
3248.18
3273.94
3301.26
3329.99
3359.94
3390.77
3422
3453.98
3486.17
3518.25
3549.82
3580.56
3610.07
3637.99
3664.03
3687.85
3709.15
3727.69
3743.21
3755.53
3764.48
3769.92
3771.76
3769.78
3764.22
3755.07
3742.42
3726.43
3707.3
3685.25
3660.59
3633.61
3604.65
3574.12
3542.39
3509.87
3476.98
3444.09
3411.76
3380.5
3349.65
3319.8
3291.25
3264.23
3238.88
3215.32
3193.63
3173.86
3156.04
3140.15
3126.19
3114.11
3103.87
3095.4
3088.65
3083.56
3080.03
3078.05
3077.54
3078.62
3202.57
3231.45
3261.86
3293.03
3320.4
3354.32
3389.11
3423.98
3458.51
3492.35
3525.07
3556.22
3585.38
3612.12
3635.99
3656.65
3673.72
3686.98
3696.2
3701.27
3702.07
3698.55
3690.88
3679.11
3663.43
3644.11
3621.42
3595.69
3567.34
3536.76
3504.37
3470.64
3436.01
3400.91
3365.77
3331.08
3299.38
3266.81
3235
3204.42
3175.33
3147.88
3122.18
3098.29
3076.24
3056.03
3037.66
3021.09
3006.29
2993.22
2981.83
2972.06
2963.87
2957.22
2952.08
2948.42
2946.23
2945.52
2946.38
2948.78
2952.72
2958.23
2965.35
2974.11
2984.53
2996.67
3010.53
3026.13
3043.5
3062.6
3083.44
3105.98
3130.16
3155.91
3183.14
3211.74
3241.55
3272.44
3304.1
3336.31
3369.09
3402.06
3434.94
3467.39
3499.06
3529.59
3558.6
3585.69
3610.49
3632.63
3651.76
3667.58
3679.82
3688.26
3692.76
3693.19
3689.54
3681.84
3670.16
3654.63
3635.45
3612.87
3587.2
3558.79
3528.03
3495.34
3461.18
3426.01
3390.31
3354.54
3319.12
3284.46
3250.89
3218.72
3188.18
3159.45
3132.66
3107.88
3085.14
3064.46
3045.81
3029.15
3014.43
3001.59
2990.55
2981.26
2973.63
2967.61
2963.13
2960.1
2958.49
2958.24
2959.28
2961.58
2965.12
2969.87
2975.84
2983.02
2991.45
3001.13
3012.13
3024.49
3038.26
3053.51
3070.29
3088.66
3108.65
3130.31
3153.63
3178.59
3205.15
3233.22
3262.68
3293.38
3325.12
3357.64
3390.64
3423.82
3456.79
3489.16
3520.51
3550.4
3578.4
3604.06
3626.97
3646.73
3662.99
3675.44
3683.86
3688.05
3687.93
3683.49
3674.83
3662.08
3645.45
3625.25
3601.82
3575.55
3546.88
3516.26
3484.13
3450.96
3417.19
3383.25
3349.51
3316.41
3284.12
3252.98
3223.19
3194.9
3168.23
3143.26
3120.01
3098.5
3078.71
3060.62
3044.16
3029.32
3016.02
3004.24
2993.92
2985.03
2977.54
2971.43
2966.69
2963.3
2961.28
2960.64
2961.37
2963.51
2967.08
2972.11
2978.65
2986.72
2996.39
3007.67
3020.62
3035.26
3051.63
3069.72
3089.55
3111.1
3134.32
3159.18
3185.57
3213.39
3242.51
3272.75
3303.94
3335.88
3368.2
3400.68
3433
3464.82
3495.78
3525.52
3553.67
3579.84
3603.69
3624.85
3643.02
3657.89
3669.21
3676.79
3680.47
3680.15
3675.82
3667.55
3655.4
3639.53
3620.18
3597.6
3572.14
3544.14
3514
3482.16
3449.05
3415.11
3380.79
3346.52
3312.69
3279.67
3247.78
3217.29
3188.44
3161.38
3136.23
3113.05
3091.87
3072.66
3055.39
3039.99
3026.39
3014.49
3004.18
2995.38
2987.99
2981.92
2977.1
2973.49
2971.07
2969.83
2969.82
2971.05
2973.55
2977.39
2982.62
2989.32
2997.54
3007.38
3018.88
3032.13
3047.15
3063.99
3082.67
3103.19
3125.52
3149.61
3175.39
3202.73
3231.5
3261.48
3292.37
3323.65
3355.7
3387.97
3420.13
3451.79
3482.61
3512.21
3540.23
3566.36
3590.26
3611.64
3630.25
3645.84
3658.21
3667.19
3672.65
3674.51
3672.53
3666.95
3657.76
3645.07
3629.02
3609.81
3587.68
3562.93
3535.85
3506.8
3476.16
3444.34
3411.72
3378.74
3345.78
3313.38
3282.06
3251.16
3221.27
3192.69
3165.64
3140.28
3116.72
3095.03
3075.26
3057.45
3041.58
3027.63
3015.57
3005.34
2996.9
2990.16
2985.08
2981.58
2979.61
2979.11
2980.2
3103.86
3132.8
3163.29
3194.62
3221.8
3255.89
3290.81
3325.78
3360.42
3394.38
3427.23
3458.51
3487.82
3514.68
3538.68
3559.45
3576.62
3589.94
3599.22
3604.31
3605.13
3601.59
3593.87
3582.03
3566.27
3546.84
3524.03
3498.18
3469.7
3438.98
3406.46
3372.61
3337.85
3302.63
3267.35
3232.53
3200.97
3168.28
3136.4
3105.77
3076.65
3049.19
3023.49
2999.6
2977.56
2957.37
2939.01
2922.47
2907.69
2894.64
2883.26
2873.51
2865.33
2858.7
2853.57
2849.91
2847.72
2847.01
2847.87
2850.26
2854.19
2859.69
2866.8
2875.54
2885.95
2898.07
2911.92
2927.52
2944.87
2963.97
2984.82
3007.36
3031.54
3057.31
3084.56
3113.18
3143.03
3173.96
3205.67
3237.93
3270.78
3303.83
3336.79
3369.34
3401.12
3431.76
3460.89
3488.1
3513.02
3535.28
3554.51
3570.42
3582.73
3591.23
3595.76
3596.2
3592.54
3584.81
3573.07
3557.46
3538.19
3515.5
3489.71
3461.17
3430.27
3397.45
3363.15
3327.85
3292.03
3256.14
3220.63
3185.88
3152.25
3120.03
3089.46
3060.71
3033.91
3009.14
2986.41
2965.75
2947.12
2930.48
2915.79
2902.97
2891.96
2882.69
2875.08
2869.08
2864.62
2861.61
2860.02
2859.78
2860.83
2863.14
2866.68
2871.43
2877.39
2884.57
2892.98
2902.66
2913.64
2925.97
2939.72
2954.95
2971.71
2990.06
3010.04
3031.68
3054.99
3079.96
3106.52
3134.62
3164.11
3194.85
3226.65
3259.24
3292.33
3325.6
3358.69
3391.18
3422.66
3452.68
3480.81
3506.61
3529.64
3549.52
3565.88
3578.42
3586.89
3591.12
3591
3586.53
3577.82
3564.99
3548.26
3527.94
3504.39
3477.98
3449.18
3418.41
3386.15
3352.85
3318.97
3284.92
3251.1
3217.91
3185.57
3154.38
3124.56
3096.25
3069.58
3044.61
3021.37
2999.87
2980.1
2962.02
2945.59
2930.76
2917.48
2905.72
2895.41
2886.54
2879.05
2872.95
2868.21
2864.82
2862.8
2862.15
2862.88
2865.01
2868.57
2873.59
2880.11
2888.18
2897.82
2909.09
2922.03
2936.66
2953.01
2971.1
2990.92
3012.46
3035.7
3060.56
3086.97
3114.82
3143.97
3174.26
3205.49
3237.5
3269.9
3302.46
3334.88
3366.8
3397.87
3427.72
3455.98
3482.27
3506.23
3527.5
3545.77
3560.72
3572.12
3579.74
3583.45
3583.14
3578.8
3570.48
3558.27
3542.33
3522.88
3500.19
3474.6
3446.48
3416.21
3384.23
3350.99
3316.93
3282.5
3248.12
3214.2
3181.11
3149.15
3118.63
3089.74
3062.67
3037.51
3014.34
2993.17
2973.98
2956.74
2941.38
2927.8
2915.93
2905.66
2896.89
2889.52
2883.47
2878.67
2875.07
2872.65
2871.41
2871.38
2872.61
2875.09
2878.91
2884.13
2890.8
2899
2908.81
2920.29
2933.52
2948.53
2965.35
2984.02
3004.54
3026.86
3050.97
3076.76
3104.13
3132.94
3162.97
3193.92
3225.26
3257.39
3289.75
3322
3353.77
3384.7
3414.4
3442.53
3468.75
3492.76
3514.23
3532.92
3548.58
3561.01
3570.04
3575.53
3577.39
3575.42
3569.82
3560.59
3547.84
3531.72
3512.43
3490.2
3465.34
3438.16
3408.98
3378.23
3346.29
3313.57
3280.48
3247.43
3214.96
3183.57
3152.6
3122.67
3094.05
3066.98
3041.6
3018.03
2996.34
2976.58
2958.77
2942.92
2928.99
2916.95
2906.75
2898.32
2891.61
2886.54
2883.06
2881.11
2880.62
2881.72
3005.07
3034.05
3064.64
3096.17
3123.13
3157.42
3192.47
3227.57
3262.34
3296.43
3329.42
3360.86
3390.32
3417.34
3441.49
3462.38
3479.66
3493.07
3502.4
3507.52
3508.35
3504.79
3497.01
3485.09
3469.24
3449.69
3426.75
3400.75
3372.12
3341.25
3308.58
3274.58
3239.68
3204.31
3168.89
3133.89
3102.52
3069.69
3037.72
3007.04
2977.89
2950.42
2924.71
2900.83
2878.8
2858.63
2840.29
2823.77
2809.01
2795.98
2784.62
2774.89
2766.73
2760.11
2754.99
2751.35
2749.16
2748.44
2749.3
2751.68
2755.6
2761.09
2768.18
2776.91
2787.3
2799.41
2813.24
2828.83
2846.17
2865.27
2886.11
2908.66
2932.85
2958.63
2985.91
3014.56
3044.44
3075.41
3107.19
3139.51
3172.44
3205.58
3238.64
3271.3
3303.2
3333.97
3363.24
3390.59
3415.64
3438.03
3457.38
3473.39
3485.79
3494.35
3498.91
3499.37
3495.69
3487.92
3476.12
3460.43
3441.05
3418.24
3392.31
3363.62
3332.57
3299.59
3265.13
3229.68
3193.72
3157.7
3122.08
3087.23
3053.53
3021.26
2990.65
2961.88
2935.08
2910.3
2887.59
2866.95
2848.34
2831.73
2817.07
2804.27
2793.29
2784.05
2776.47
2770.49
2766.05
2763.07
2761.49
2761.26
2762.32
2764.64
2768.19
2772.94
2778.9
2786.07
2794.47
2804.13
2815.09
2827.4
2841.13
2856.33
2873.06
2891.39
2911.35
2932.98
2956.28
2981.25
3007.83
3035.94
3065.47
3096.27
3128.13
3160.8
3193.99
3227.37
3260.58
3293.21
3324.84
3355.02
3383.3
3409.25
3432.43
3452.45
3468.92
3481.55
3490.09
3494.35
3494.23
3489.74
3480.97
3468.04
3451.21
3430.75
3407.05
3380.49
3351.52
3320.59
3288.18
3254.74
3220.73
3186.56
3152.64
3119.36
3086.95
3055.71
3025.85
2997.53
2970.85
2945.87
2922.65
2901.17
2881.42
2863.36
2846.95
2832.14
2818.89
2807.14
2796.85
2787.98
2780.51
2774.41
2769.68
2766.29
2764.27
2763.61
2764.34
2766.46
2770.01
2775.01
2781.52
2789.56
2799.19
2810.45
2823.37
2837.98
2854.32
2872.4
2892.21
2913.76
2937
2961.87
2988.3
3016.18
3045.37
3075.71
3107
3139.09
3171.57
3204.23
3236.75
3268.79
3299.98
3329.96
3358.36
3384.78
3408.87
3430.26
3448.64
3463.69
3475.16
3482.85
3486.59
3486.29
3481.93
3473.57
3461.29
3445.25
3425.69
3402.88
3377.15
3348.88
3318.46
3286.34
3252.95
3218.75
3184.18
3149.68
3115.66
3082.48
3050.46
3019.88
2990.96
2963.86
2938.7
2915.54
2894.39
2875.23
2858.02
2842.69
2829.15
2817.32
2807.08
2798.34
2791
2784.97
2780.19
2776.6
2774.19
2772.93
2772.9
2774.11
2776.58
2780.38
2785.57
2792.21
2800.39
2810.18
2821.64
2834.84
2849.83
2866.63
2885.29
2905.8
2928.13
2952.24
2978.06
3005.46
3034.31
3064.4
3095.42
3126.82
3159.04
3191.5
3223.87
3255.76
3286.8
3316.64
3344.88
3371.23
3395.34
3416.92
3435.7
3451.45
3463.94
3473.02
3478.54
3480.42
3478.46
3472.82
3463.54
3450.73
3434.53
3415.14
3392.81
3367.83
3340.51
3311.21
3280.33
3248.25
3215.4
3182.2
3149.04
3116.49
3085.02
3053.98
3023.99
2995.33
2968.23
2942.83
2919.25
2897.57
2877.81
2860.02
2844.18
2830.27
2818.25
2808.08
2799.67
2792.98
2787.94
2784.48
2782.55
2782.08
2783.2
2906.18
2935.23
2965.91
2997.67
3024.39
3058.9
3094.11
3129.35
3164.25
3198.49
3231.65
3263.26
3292.9
3320.1
3344.4
3365.44
3382.84
3396.34
3405.75
3410.9
3411.73
3408.15
3400.31
3388.31
3372.34
3352.66
3329.57
3303.41
3274.61
3243.57
3210.73
3176.56
3141.49
3105.98
3070.38
3035.19
3004.03
2971.03
2938.96
2908.23
2879.05
2851.56
2825.85
2801.98
2779.96
2759.81
2741.49
2724.99
2710.26
2697.26
2685.92
2676.21
2668.07
2661.47
2656.36
2652.72
2650.54
2649.82
2650.67
2653.05
2656.95
2662.42
2669.5
2678.21
2688.58
2700.67
2714.49
2730.06
2747.4
2766.49
2787.33
2809.88
2834.09
2859.89
2887.18
2915.87
2945.79
2976.81
3008.66
3041.05
3074.07
3107.31
3140.48
3173.27
3205.3
3236.22
3265.64
3293.15
3318.36
3340.89
3360.37
3376.5
3388.99
3397.62
3402.23
3402.7
3399.01
3391.19
3379.32
3363.53
3344.03
3321.08
3295
3266.14
3234.91
3201.75
3167.12
3131.5
3095.38
3059.22
3023.47
2988.52
2954.73
2922.39
2891.74
2862.95
2836.14
2811.38
2788.68
2768.06
2749.48
2732.9
2718.27
2705.51
2694.56
2685.34
2677.79
2671.84
2667.43
2664.47
2662.91
2662.7
2663.77
2666.1
2669.65
2674.41
2680.36
2687.52
2695.9
2705.54
2716.48
2728.77
2742.47
2757.64
2774.35
2792.65
2812.59
2834.2
2857.5
2882.46
2909.05
2937.2
2966.77
2997.61
3029.55
3062.31
3095.61
3129.12
3162.47
3195.26
3227.05
3257.41
3285.87
3311.99
3335.34
3355.5
3372.11
3384.84
3393.45
3397.75
3397.64
3393.12
3384.27
3371.25
3354.28
3333.68
3309.81
3283.07
3253.92
3222.82
3190.23
3156.63
3122.46
3088.16
3054.13
3020.75
2988.26
2956.97
2927.07
2898.72
2872.03
2847.06
2823.85
2802.39
2782.66
2764.62
2748.24
2733.46
2720.22
2708.49
2698.22
2689.37
2681.92
2675.82
2671.09
2667.71
2665.68
2665.02
2665.74
2667.85
2671.38
2676.37
2682.86
2690.89
2700.5
2711.73
2724.63
2739.23
2755.55
2773.62
2793.43
2814.97
2838.22
2863.11
2889.56
2917.48
2946.71
2977.1
3008.45
3040.64
3073.21
3105.97
3138.61
3170.78
3202.12
3232.25
3260.79
3287.36
3311.59
3333.13
3351.63
3366.79
3378.36
3386.1
3389.88
3389.59
3385.21
3376.8
3364.44
3348.3
3328.62
3305.67
3279.79
3251.35
3220.76
3188.46
3154.91
3120.55
3085.84
3051.2
3017.07
2983.78
2951.68
2921.04
2892.09
2864.97
2839.81
2816.65
2795.52
2776.39
2759.21
2743.92
2730.42
2718.63
2708.43
2699.73
2692.43
2686.43
2681.66
2678.09
2675.68
2674.42
2674.38
2675.57
2678.02
2681.79
2686.96
2693.57
2701.72
2711.48
2722.91
2736.09
2751.05
2767.84
2786.48
2806.99
2829.31
2853.43
2879.28
2906.71
2935.61
2965.77
2996.86
3028.34
3060.67
3093.24
3125.74
3157.76
3188.94
3218.91
3247.29
3273.77
3298.01
3319.71
3338.6
3354.43
3367
3376.14
3381.7
3383.6
3381.63
3375.96
3366.64
3353.75
3337.46
3317.96
3295.5
3270.39
3242.93
3213.48
3182.44
3150.22
3117.22
3083.89
3050.6
3017.98
2986.41
2955.29
2925.24
2896.53
2869.4
2843.98
2820.39
2798.71
2778.96
2761.18
2745.36
2731.48
2719.49
2709.34
2700.96
2694.3
2689.28
2685.84
2683.93
2683.49
2684.62
2807.21
2836.31
2867.11
2899.11
2925.59
2960.34
2995.72
3031.11
3066.16
3100.57
3133.91
3165.72
3195.56
3222.95
3247.44
3268.63
3286.17
3299.78
3309.26
3314.45
3315.29
3311.67
3303.77
3291.67
3275.58
3255.75
3232.5
3206.15
3177.16
3145.93
3112.89
3078.54
3043.3
3007.61
2971.83
2936.41
2905.49
2872.3
2840.12
2809.33
2780.12
2752.61
2726.9
2703.04
2681.04
2660.91
2642.62
2626.14
2611.44
2598.46
2587.16
2577.47
2569.35
2562.76
2557.67
2554.04
2551.86
2551.14
2551.99
2554.35
2558.24
2563.7
2570.76
2579.44
2589.8
2601.87
2615.67
2631.22
2648.55
2667.63
2688.47
2711.03
2735.25
2761.07
2788.39
2817.11
2847.08
2878.16
2910.08
2942.56
2975.66
3009.01
3042.32
3075.24
3107.42
3138.51
3168.1
3195.78
3221.16
3243.86
3263.49
3279.75
3292.34
3301.05
3305.7
3306.19
3302.48
3294.62
3282.66
3266.76
3247.13
3224.03
3197.78
3168.73
3137.31
3103.95
3069.12
3033.31
2997.01
2960.68
2924.8
2889.73
2855.85
2823.44
2792.75
2763.93
2737.11
2712.36
2689.68
2669.08
2650.53
2633.99