/*--------------------------------*- C++ -*----------------------------------*\
| =========                 |                                                 |
| \\      /  F ield         | OpenFOAM: The Open Source CFD Toolbox           |
|  \\    /   O peration     | Version:  3.0.1                                 |
|   \\  /    A nd           | Web:      www.OpenFOAM.org                      |
|    \\/     M anipulation  |                                                 |
\*---------------------------------------------------------------------------*/
FoamFile
{
    version     2.0;
    format      ascii;
    class       volScalarField;
    location    "70.4";
    object      p;
}
// * * * * * * * * * * * * * * * * * * * * * * * * * * * * * * * * * * * * * //

dimensions      [1 -1 -2 0 0 0 0];

internalField   nonuniform List<scalar> 
21420
(
4222.87
4199.26
4173.46
4145.72
4116.33
4085.66
4054.12
4022.07
3989.85
3957.84
3926.32
3895.53
3865.72
3837.04
3809.65
3783.64
3759.08
3736.03
3714.53
3694.57
3676.19
3659.38
3644.13
3630.46
3618.36
3607.86
3599.13
3591.64
3585.46
3580.61
3577.07
3574.78
3573.66
3573.63
3574.61
3576.49
3579.21
3582.71
3586.96
3591.91
3597.55
3603.9
3611.03
3619.01
3627.92
3637.86
3648.9
3660.75
3674.1
3688.99
3705.48
3723.54
3743.22
3764.47
3787.22
3811.43
3836.92
3863.52
3891.07
3919.27
3947.91
3976.66
4005.24
4033.38
4060.78
4087.15
4112.24
4135.75
4157.46
4177.11
4194.44
4209.26
4221.43
4230.21
4234.67
4236.37
4235.39
4231
4223.06
4211.76
4197.29
4179.9
4159.92
4137.67
4113.46
4087.63
4060.5
4032.35
4003.47
3974.13
3944.61
3915.14
3885.97
3857.32
3829.38
3802.34
3776.33
3751.46
3727.83
3705.5
3684.5
3664.86
3646.59
3629.71
3614.18
3599.99
3587.13
3575.55
3565.23
3556.12
3548.18
3541.37
3535.65
3530.99
3527.34
3524.67
3522.95
3522.13
3522.21
3523.15
3524.96
3527.65
3531.2
3535.63
3540.95
3547.15
3554.25
3562.27
3571.23
3581.16
3592.11
3604.11
3617.18
3631.39
3646.78
3663.37
3681.21
3700.32
3720.72
3742.38
3765.3
3789.41
3814.65
3840.91
3868.07
3895.98
3924.45
3953.27
3982.2
4010.96
4039.24
4066.72
4093.05
4117.86
4140.79
4161.47
4179.56
4194.73
4206.69
4215.21
4220.01
4221.11
4218.34
4211.73
4201.28
4187.14
4169.51
4148.62
4124.78
4098.34
4069.7
4039.26
4007.47
3974.76
3941.56
3908.26
3875.24
3842.82
3811.3
3780.93
3751.92
3724.43
3698.58
3674.47
3652.11
3631.52
3612.65
3595.45
3579.83
3565.71
3553.01
3541.63
3531.5
3522.55
3514.72
3507.95
3502.2
3497.44
3493.64
3490.77
3488.83
3487.82
3487.76
3488.67
3490.6
3493.57
3497.64
3502.83
3509.19
3516.76
3525.57
3535.67
3547.11
3559.95
3574.26
3590.09
3607.51
3626.59
3647.37
3669.89
3694.13
3720.08
3747.66
3776.77
3807.26
3838.93
3871.55
3904.82
3938.42
3971.97
4005.06
4037.25
4068.09
4097.09
4123.81
4147.79
4168.62
4185.89
4199.3
4208.55
4213.46
4213.8
4209.73
4201.14
4188.2
4171.09
4150.09
4125.54
4097.84
4067.41
4034.75
4000.35
3964.7
3928.31
3891.65
3855.17
3819.27
3784.31
3750.6
3718.38
3687.85
3659.14
3632.34
3607.51
3584.65
3563.74
3544.76
3527.66
3512.38
3498.89
3487.15
3477.16
3468.89
3462.38
3457.63
3454.72
3453.71
3454.76
3457.83
3463.09
3470.57
3480.12
3491.59
3504.92
3519.87
3536.37
3554.2
3573.23
3593.34
3614.35
3636.19
3658.77
3682.02
3705.94
3730.55
3755.86
3781.94
3808.83
3836.63
3865.31
3894.93
3925.43
3956.73
3988.73
4021.18
4053.81
4086.33
4118.31
4149.35
4179.02
4206.85
4232.45
4255.43
4275.42
4292.11
4305.23
4314.58
4319.98
4321.32
4318.41
4311.27
4300.12
4285.22
4266.82
4245.24
4220.8
4193.82
4164.78
4134.12
4102.22
4069.58
4036.62
4003.71
3971.24
3939.51
3908.79
3879.26
3851.08
3824.39
3799.23
3775.64
3753.63
3733.18
3714.27
3696.84
3680.86
3666.29
3653.1
3641.25
3630.72
3621.49
3613.57
3606.97
3601.82
3597.75
3594.88
3593.3
4124.88
4101.25
4075.43
4047.67
4018.26
3987.57
3956.02
3923.95
3891.72
3859.7
3828.17
3797.37
3767.55
3738.87
3711.48
3685.47
3660.91
3637.86
3616.35
3596.4
3578.02
3561.21
3545.97
3532.29
3520.19
3509.7
3500.97
3493.48
3487.31
3482.46
3478.92
3476.63
3475.52
3475.49
3476.47
3478.36
3481.08
3484.58
3488.84
3493.78
3499.42
3505.77
3512.89
3520.87
3529.77
3539.72
3550.75
3562.59
3575.94
3590.82
3607.31
3625.37
3645.05
3666.3
3689.05
3713.27
3738.76
3765.37
3792.92
3821.14
3849.78
3878.55
3907.14
3935.29
3962.7
3989.08
4014.18
4037.71
4059.43
4079.09
4096.45
4111.27
4123.45
4132.24
4136.73
4138.45
4137.46
4133.07
4125.12
4113.81
4099.33
4081.93
4061.94
4039.66
4015.44
3989.59
3962.44
3934.27
3905.38
3876.03
3846.49
3817.01
3787.83
3759.17
3731.23
3704.18
3678.16
3653.3
3629.66
3607.33
3586.33
3566.69
3548.43
3531.54
3516.02
3501.83
3488.97
3477.4
3467.08
3457.97
3450.03
3443.22
3437.51
3432.85
3429.2
3426.53
3424.81
3424
3424.07
3425.01
3426.83
3429.51
3433.06
3437.49
3442.81
3449.01
3456.11
3464.13
3473.08
3483.01
3493.96
3505.95
3519.03
3533.24
3548.62
3565.21
3583.05
3602.16
3622.55
3644.22
3667.13
3691.25
3716.48
3742.75
3769.92
3797.83
3826.31
3855.14
3884.08
3912.85
3941.15
3968.65
3994.99
4019.82
4042.76
4063.46
4081.56
4096.74
4108.72
4117.25
4122.06
4123.15
4120.38
4113.77
4103.31
4089.17
4071.52
4050.62
4026.76
4000.3
3971.64
3941.18
3909.37
3876.65
3843.43
3810.12
3777.08
3744.66
3713.13
3682.76
3653.74
3626.25
3600.4
3576.28
3553.93
3533.34
3514.48
3497.28
3481.67
3467.55
3454.85
3443.48
3433.35
3424.4
3416.57
3409.8
3404.06
3399.3
3395.5
3392.63
3390.69
3389.68
3389.62
3390.53
3392.45
3395.42
3399.49
3404.68
3411.04
3418.6
3427.41
3437.51
3448.95
3461.79
3476.09
3491.92
3509.34
3528.42
3549.2
3571.71
3595.95
3621.9
3649.48
3678.6
3709.09
3740.77
3773.4
3806.68
3840.3
3873.86
3906.97
3939.18
3970.04
3999.06
4025.8
4049.8
4070.64
4087.94
4101.35
4110.61
4115.53
4115.88
4111.79
4103.2
4090.26
4073.13
4052.12
4027.55
3999.82
3969.38
3936.7
3902.27
3866.6
3830.19
3793.51
3757.02
3721.11
3686.14
3652.42
3620.2
3589.66
3560.95
3534.15
3509.32
3486.46
3465.56
3446.58
3429.48
3414.2
3400.71
3388.98
3378.99
3370.73
3364.22
3359.47
3356.56
3355.56
3356.61
3359.68
3364.95
3372.43
3381.98
3393.46
3406.79
3421.75
3438.25
3456.09
3475.13
3495.23
3516.24
3538.09
3560.66
3583.91
3607.83
3632.43
3657.74
3683.81
3710.7
3738.48
3767.16
3796.78
3827.28
3858.58
3890.59
3923.05
3955.69
3988.23
4020.22
4051.28
4080.97
4108.82
4134.44
4157.44
4177.44
4194.14
4207.28
4216.63
4222.04
4223.39
4220.45
4213.32
4202.16
4187.25
4168.84
4147.24
4122.78
4095.78
4066.72
4036.04
4004.12
3971.47
3938.49
3905.57
3873.09
3841.35
3810.62
3781.09
3752.91
3726.22
3701.06
3677.47
3655.46
3635.02
3616.1
3598.68
3582.7
3568.13
3554.94
3543.09
3532.57
3523.34
3515.42
3508.81
3503.68
3499.6
3496.73
3495.15
4026.98
4003.32
3977.47
3949.67
3920.22
3889.5
3857.91
3825.82
3793.56
3761.52
3729.97
3699.15
3669.32
3640.63
3613.23
3587.22
3562.66
3539.62
3518.11
3498.16
3479.79
3462.98
3447.73
3434.06
3421.96
3411.46
3402.76
3395.27
3389.1
3384.25
3380.72
3378.44
3377.33
3377.31
3378.3
3380.19
3382.92
3386.42
3390.68
3395.63
3401.26
3407.61
3414.73
3422.69
3431.59
3441.52
3452.55
3464.37
3477.71
3492.59
3509.07
3527.12
3546.81
3568.05
3590.82
3615.04
3640.55
3667.16
3694.73
3722.97
3751.63
3780.42
3809.03
3837.2
3864.64
3891.05
3916.17
3939.73
3961.47
3981.16
3998.55
4013.4
4025.58
4034.41
4038.93
4040.7
4039.72
4035.31
4027.35
4016.02
4001.51
3984.08
3964.06
3941.75
3917.49
3891.61
3864.43
3836.23
3807.3
3777.93
3748.36
3718.86
3689.66
3660.98
3633.02
3605.96
3579.94
3555.07
3531.43
3509.1
3488.1
3468.46
3450.2
3433.32
3417.8
3403.62
3390.76
3379.19
3368.88
3359.77
3351.84
3345.03
3339.32
3334.67
3331.02
3328.36
3326.64
3325.82
3325.9
3326.84
3328.65
3331.34
3334.89
3339.32
3344.63
3350.83
3357.93
3365.94
3374.89
3384.82
3395.76
3407.75
3420.82
3435.02
3450.4
3466.99
3484.82
3503.93
3524.32
3545.98
3568.9
3593.02
3618.26
3644.53
3671.71
3699.64
3728.13
3756.98
3785.94
3814.74
3843.06
3870.59
3896.97
3921.83
3944.81
3965.54
3983.67
3998.88
4010.88
4019.43
4024.28
4025.34
4022.57
4015.96
4005.48
3991.32
3973.64
3952.71
3928.82
3902.33
3873.63
3843.13
3811.29
3778.53
3745.28
3711.94
3678.89
3646.44
3614.9
3584.51
3555.49
3527.99
3502.14
3478.03
3455.68
3435.09
3416.24
3399.05
3383.44
3369.33
3356.64
3345.27
3335.15
3326.21
3318.38
3311.62
3305.88
3301.12
3297.32
3294.46
3292.52
3291.5
3291.44
3292.34
3294.26
3297.23
3301.3
3306.49
3312.84
3320.4
3329.2
3339.3
3350.73
3363.57
3377.86
3393.68
3411.1
3430.17
3450.94
3473.45
3497.7
3523.65
3551.24
3580.36
3610.86
3642.56
3675.21
3708.52
3742.16
3775.76
3808.9
3841.15
3872.04
3901.11
3927.89
3951.93
3972.8
3990.13
4003.57
4012.85
4017.78
4018.15
4014.02
4005.43
3992.47
3975.32
3954.27
3929.67
3901.9
3871.42
3838.69
3804.22
3768.51
3732.07
3695.35
3658.83
3622.89
3587.91
3554.17
3521.93
3491.39
3462.67
3435.87
3411.04
3388.18
3367.29
3348.32
3331.22
3315.95
3302.47
3290.74
3280.76
3272.5
3266
3261.26
3258.35
3257.35
3258.41
3261.48
3266.75
3274.25
3283.81
3295.29
3308.64
3323.6
3340.12
3357.97
3377.01
3397.12
3418.13
3439.97
3462.54
3485.79
3509.7
3534.29
3559.58
3585.65
3612.52
3640.3
3668.96
3698.58
3729.08
3760.39
3792.41
3824.89
3857.56
3890.12
3922.15
3953.25
3982.97
4010.85
4036.51
4059.54
4079.58
4096.31
4109.47
4118.83
4124.26
4125.64
4122.64
4115.5
4104.34
4089.4
4070.97
4049.34
4024.84
3997.8
3968.71
3937.99
3906.03
3873.35
3840.34
3807.38
3774.89
3743.13
3712.39
3682.85
3654.66
3627.97
3602.81
3579.22
3557.22
3536.78
3517.87
3500.45
3484.48
3469.92
3456.73
3444.88
3434.36
3425.14
3417.21
3410.6
3405.48
3401.4
3398.53
3396.95
3929.19
3905.47
3879.57
3851.72
3822.22
3791.45
3759.81
3727.67
3695.37
3663.29
3631.71
3600.87
3571.02
3542.33
3514.92
3488.9
3464.34
3441.3
3419.8
3399.85
3381.48
3364.67
3349.43
3335.76
3323.66
3313.16
3304.5
3297.01
3290.83
3285.99
3282.47
3280.2
3279.1
3279.09
3280.09
3281.99
3284.73
3288.24
3292.5
3297.44
3303.08
3309.42
3316.53
3324.48
3333.36
3343.29
3354.3
3366.09
3379.42
3394.28
3410.76
3428.81
3448.49
3469.74
3492.51
3516.75
3542.27
3568.91
3596.5
3624.76
3653.46
3682.27
3710.92
3739.13
3766.6
3793.04
3818.2
3841.8
3863.59
3883.32
3900.75
3915.65
3927.83
3936.69
3941.3
3943.15
3942.14
3937.71
3929.73
3918.38
3903.84
3886.37
3866.3
3843.94
3819.62
3793.7
3766.46
3738.21
3709.24
3679.82
3650.21
3620.68
3591.44
3562.74
3534.76
3507.69
3481.66
3456.78
3433.14
3410.81
3389.81
3370.17
3351.92
3335.04
3319.52
3305.35
3292.5
3280.94
3270.63
3261.53
3253.6
3246.8
3241.1
3236.44
3232.8
3230.15
3228.43
3227.62
3227.69
3228.64
3230.45
3233.13
3236.68
3241.11
3246.42
3252.62
3259.71
3267.72
3276.66
3286.58
3297.52
3309.5
3322.56
3336.76
3352.12
3368.7
3386.53
3405.64
3426.02
3447.69
3470.61
3494.73
3519.98
3546.26
3573.45
3601.4
3629.92
3658.8
3687.79
3716.62
3744.99
3772.57
3799
3823.91
3846.94
3867.72
3885.9
3901.15
3913.18
3921.75
3926.64
3927.67
3924.92
3918.29
3907.79
3893.6
3875.88
3854.9
3830.96
3804.42
3775.66
3745.11
3713.21
3680.41
3647.11
3613.73
3580.64
3548.17
3516.6
3486.2
3457.16
3429.65
3403.8
3379.69
3357.35
3336.77
3317.93
3300.75
3285.15
3271.06
3258.38
3247.02
3236.91
3227.97
3220.15
3213.39
3207.65
3202.9
3199.11
3196.24
3194.3
3193.29
3193.22
3194.12
3196.03
3199
3203.06
3208.24
3214.59
3222.15
3230.94
3241.03
3252.46
3265.28
3279.57
3295.38
3312.78
3331.85
3352.61
3375.12
3399.36
3425.32
3452.91
3482.05
3512.57
3544.29
3576.97
3610.32
3644
3677.65
3710.84
3743.15
3774.1
3803.23
3830.07
3854.16
3875.09
3892.46
3905.94
3915.25
3920.2
3920.6
3916.43
3907.84
3894.84
3877.65
3856.56
3831.9
3804.07
3773.53
3740.74
3706.2
3670.44
3633.93
3597.17
3560.59
3524.62
3489.6
3455.84
3423.58
3393.03
3364.31
3337.51
3312.67
3289.82
3268.93
3249.97
3232.88
3217.63
3204.15
3192.44
3182.46
3174.21
3167.72
3162.98
3160.08
3159.09
3160.15
3163.22
3168.52
3176.02
3185.6
3197.1
3210.46
3225.44
3241.97
3259.83
3278.88
3299
3320.01
3341.86
3364.42
3387.66
3411.55
3436.12
3461.41
3487.45
3514.3
3542.06
3570.72
3600.33
3630.83
3662.15
3694.19
3726.7
3759.4
3792.01
3824.09
3855.24
3885.02
3912.96
3938.67
3961.76
3981.84
3998.61
4011.8
4021.19
4026.64
4028.04
4024.99
4017.84
4006.66
3991.69
3973.22
3951.54
3926.98
3899.89
3870.74
3839.96
3807.95
3775.21
3742.16
3709.16
3676.63
3644.85
3614.09
3584.53
3556.34
3529.65
3504.49
3480.91
3458.91
3438.48
3419.58
3402.16
3386.2
3371.64
3358.46
3346.62
3336.1
3326.88
3318.95
3312.33
3307.25
3303.15
3300.28
3298.7
3831.49
3807.72
3781.75
3753.82
3724.25
3693.41
3661.7
3629.5
3597.15
3565.02
3533.4
3502.53
3472.66
3443.95
3416.53
3390.51
3365.95
3342.91
3321.41
3301.47
3283.1
3266.3
3251.07
3237.4
3225.29
3214.78
3206.19
3198.68
3192.51
3187.68
3184.17
3181.91
3180.83
3180.84
3181.84
3183.76
3186.51
3190.02
3194.29
3199.24
3204.86
3211.2
3218.29
3226.23
3235.1
3245
3255.99
3267.74
3281.06
3295.92
3312.38
3330.42
3350.1
3371.36
3394.14
3418.39
3443.93
3470.6
3498.22
3526.52
3555.25
3584.11
3612.8
3641.06
3668.58
3695.07
3720.28
3743.93
3765.77
3785.56
3803.05
3818.01
3830.2
3839.09
3843.83
3845.77
3844.74
3840.29
3832.29
3820.9
3806.31
3788.78
3768.64
3746.22
3721.83
3695.84
3668.53
3640.22
3611.19
3581.71
3552.05
3522.47
3493.19
3464.46
3436.45
3409.36
3383.31
3358.42
3334.78
3312.45
3291.45
3271.82
3253.57
3236.7
3221.19
3207.02
3194.18
3182.63
3172.33
3163.23
3155.31
3148.52
3142.83
3138.18
3134.55
3131.9
3130.18
3129.38
3129.45
3130.4
3132.21
3134.88
3138.43
3142.86
3148.17
3154.36
3161.45
3169.45
3178.39
3188.3
3199.23
3211.2
3224.25
3238.43
3253.79
3270.36
3288.19
3307.28
3327.67
3349.33
3372.25
3396.38
3421.64
3447.94
3475.15
3503.12
3531.67
3560.58
3589.62
3618.5
3646.93
3674.57
3701.06
3726.04
3749.14
3769.99
3788.23
3803.53
3815.61
3824.22
3829.14
3830.17
3827.42
3820.76
3810.24
3796
3778.24
3757.2
3733.19
3706.57
3677.74
3647.12
3615.15
3582.27
3548.92
3515.49
3482.35
3449.83
3418.24
3387.81
3358.76
3331.24
3305.39
3281.28
3258.94
3238.38
3219.55
3202.38
3186.81
3172.73
3160.06
3148.72
3138.62
3129.69
3121.88
3115.13
3109.4
3104.65
3100.85
3097.99
3096.05
3095.03
3094.96
3095.85
3097.76
3100.72
3104.77
3109.95
3116.3
3123.84
3132.63
3142.71
3154.13
3166.94
3181.21
3197.01
3214.4
3233.45
3254.21
3276.71
3300.95
3326.91
3354.52
3383.67
3414.22
3445.97
3478.69
3512.08
3545.82
3579.54
3612.8
3645.18
3676.21
3705.42
3732.34
3756.51
3777.51
3794.95
3808.48
3817.83
3822.79
3823.22
3819.03
3810.41
3797.38
3780.14
3758.98
3734.24
3706.34
3675.71
3642.83
3608.21
3572.36
3535.78
3498.95
3462.32
3426.29
3391.23
3357.44
3325.16
3294.58
3265.85
3239.05
3214.22
3191.38
3170.5
3151.55
3134.47
3119.23
3105.77
3094.07
3084.1
3075.86
3069.38
3064.65
3061.76
3060.77
3061.84
3064.92
3070.23
3077.76
3087.35
3098.87
3112.25
3127.26
3143.8
3161.68
3180.74
3200.87
3221.89
3243.73
3266.29
3289.52
3313.39
3337.94
3363.2
3389.22
3416.05
3443.79
3472.42
3502.03
3532.53
3563.86
3595.93
3628.48
3661.23
3693.89
3726.04
3757.26
3787.12
3815.13
3840.92
3864.07
3884.22
3901.04
3914.28
3923.7
3929.17
3930.6
3927.5
3920.33
3909.12
3894.11
3875.58
3853.84
3829.21
3802.04
3772.81
3741.95
3709.86
3677.06
3643.95
3610.9
3578.32
3546.51
3515.72
3486.15
3457.95
3431.25
3406.09
3382.52
3360.53
3340.11
3321.21
3303.81
3287.86
3273.31
3260.14
3248.3
3237.79
3228.57
3220.64
3214.01
3208.97
3204.85
3201.97
3200.39
3733.9
3710.05
3683.99
3655.98
3626.32
3595.38
3563.59
3531.31
3498.89
3466.71
3435.04
3404.13
3374.23
3345.5
3318.07
3292.04
3267.48
3244.44
3222.95
3203.02
3184.66
3167.87
3152.63
3138.97
3126.86
3116.33
3107.84
3100.31
3094.13
3089.31
3085.81
3083.57
3082.51
3082.54
3083.56
3085.5
3088.26
3091.78
3096.05
3101
3106.62
3112.95
3120.02
3127.94
3136.79
3146.67
3157.64
3169.34
3182.64
3197.48
3213.93
3231.97
3251.64
3272.9
3295.69
3319.96
3345.54
3372.23
3399.9
3428.24
3457.03
3485.94
3514.69
3543
3570.58
3597.13
3622.4
3646.11
3668.02
3687.89
3705.45
3720.48
3732.71
3741.63
3746.51
3748.54
3747.51
3743.03
3735
3723.57
3708.92
3691.32
3671.11
3648.59
3624.12
3598.04
3570.64
3542.25
3513.14
3483.6
3453.87
3424.23
3394.91
3366.12
3338.09
3310.96
3284.9
3260
3236.36
3214.02
3193.03
3173.4
3155.16
3138.3
3122.79
3108.64
3095.81
3084.27
3073.98
3064.9
3056.99
3050.2
3044.52
3039.88
3036.26
3033.61
3031.9
3031.1
3031.18
3032.12
3033.93
3036.61
3040.15
3044.58
3049.88
3056.07
3063.16
3071.15
3080.08
3089.97
3100.89
3112.85
3125.89
3140.06
3155.41
3171.97
3189.78
3208.87
3229.24
3250.91
3273.83
3297.97
3323.24
3349.56
3376.79
3404.79
3433.38
3462.34
3491.43
3520.38
3548.88
3576.59
3603.17
3628.24
3651.42
3672.35
3690.67
3706.04
3718.18
3726.82
3731.77
3732.83
3730.07
3723.39
3712.83
3698.54
3680.71
3659.59
3635.49
3608.79
3579.86
3549.15
3517.09
3484.13
3450.7
3417.2
3384.01
3351.44
3319.81
3289.35
3260.28
3232.75
3206.89
3182.78
3160.46
3139.91
3121.1
3103.95
3088.4
3074.34
3061.69
3050.36
3040.28
3031.37
3023.56
3016.82
3011.1
3006.36
3002.57
2999.71
2997.76
2996.74
2996.66
2997.55
2999.45
3002.4
3006.44
3011.62
3017.95
3025.49
3034.27
3044.33
3055.74
3068.54
3082.79
3098.57
3115.95
3134.99
3155.73
3178.23
3202.47
3228.43
3256.05
3285.22
3315.8
3347.6
3380.36
3413.82
3447.63
3481.42
3514.78
3547.25
3578.38
3607.69
3634.71
3658.98
3680.07
3697.58
3711.18
3720.57
3725.56
3726
3721.81
3713.16
3700.07
3682.76
3661.53
3636.7
3608.69
3577.96
3544.98
3510.25
3474.3
3437.62
3400.71
3364
3327.91
3292.79
3258.96
3226.64
3196.05
3167.31
3140.51
3115.68
3092.84
3071.98
3053.04
3035.98
3020.76
3007.31
2995.63
2985.68
2977.45
2970.98
2966.26
2963.38
2962.4
2963.48
2966.57
2971.91
2979.46
2989.07
3000.62
3014.02
3029.05
3045.62
3063.52
3082.6
3102.74
3123.76
3145.6
3168.15
3191.36
3215.22
3239.74
3264.97
3290.95
3317.75
3345.47
3374.08
3403.68
3434.18
3465.53
3497.63
3530.22
3563.04
3595.77
3628
3659.31
3689.26
3717.37
3743.25
3766.49
3786.72
3803.61
3816.9
3826.37
3831.86
3833.3
3830.19
3822.97
3811.72
3796.66
3778.06
3756.23
3731.51
3704.25
3674.92
3643.96
3611.79
3578.9
3545.71
3512.59
3479.96
3448.1
3417.28
3387.69
3359.48
3332.78
3307.62
3284.06
3262.08
3241.67
3222.79
3205.4
3189.45
3174.92
3161.76
3149.93
3139.42
3130.21
3122.28
3115.63
3110.65
3106.5
3103.62
3102.03
3636.41
3612.46
3586.3
3558.18
3528.41
3497.37
3465.48
3433.11
3400.61
3368.35
3336.62
3305.67
3275.74
3246.98
3219.54
3193.5
3168.94
3145.91
3124.42
3104.5
3086.15
3069.36
3054.14
3040.48
3028.37
3017.8
3009.44
3001.87
2995.7
2990.89
2987.41
2985.19
2984.15
2984.2
2985.24
2987.2
2989.98
2993.51
2997.79
3002.74
3008.36
3014.67
3021.72
3029.62
3038.43
3048.29
3059.24
3070.88
3084.16
3098.98
3115.41
3133.44
3153.11
3174.38
3197.18
3221.47
3247.08
3273.82
3301.53
3329.93
3358.77
3387.75
3416.56
3444.94
3472.59
3499.21
3524.56
3548.35
3570.34
3590.29
3607.95
3623.06
3635.36
3644.33
3649.34
3651.47
3650.44
3645.95
3637.88
3626.4
3611.68
3593.99
3573.68
3551.07
3526.49
3500.3
3472.8
3444.31
3415.11
3385.48
3355.68
3325.97
3296.58
3267.75
3239.67
3212.52
3186.43
3161.52
3137.87
3115.53
3094.54
3074.92
3056.68
3039.83
3024.34
3010.2
2997.38
2985.85
2975.58
2966.51
2958.61
2951.84
2946.16
2941.54
2937.92
2935.29
2933.59
2932.79
2932.87
2933.81
2935.62
2938.29
2941.84
2946.26
2951.56
2957.74
2964.82
2972.8
2981.72
2991.6
3002.51
3014.45
3027.47
3041.63
3056.96
3073.51
3091.31
3110.39
3130.76
3152.42
3175.35
3199.49
3224.78
3251.12
3278.38
3306.42
3335.05
3364.07
3393.23
3422.25
3450.84
3478.64
3505.32
3530.49
3553.78
3574.81
3593.22
3608.67
3620.88
3629.58
3634.56
3635.65
3632.87
3626.16
3615.56
3601.2
3583.29
3562.08
3537.88
3511.07
3482.03
3451.21
3419.04
3385.99
3352.46
3318.88
3285.62
3253
3221.31
3190.82
3161.72
3134.18
3108.32
3084.21
3061.9
3041.37
3022.58
3005.46
2989.93
2975.89
2963.27
2951.96
2941.9
2933
2925.21
2918.48
2912.76
2908.03
2904.24
2901.38
2899.44
2898.41
2898.32
2899.2
2901.09
2904.04
2908.07
2913.23
2919.56
2927.09
2935.85
2945.9
2957.29
2970.07
2984.31
3000.07
3017.43
3036.45
3057.18
3079.66
3103.9
3129.87
3157.51
3186.71
3217.32
3249.16
3281.99
3315.52
3349.42
3383.3
3416.77
3449.36
3480.61
3510.04
3537.17
3561.56
3582.75
3600.36
3614.04
3623.49
3628.52
3628.97
3624.77
3616.07
3602.93
3585.54
3564.21
3539.27
3511.14
3480.28
3447.17
3412.32
3376.24
3339.45
3302.43
3265.63
3229.46
3194.28
3160.4
3128.05
3097.43
3068.68
3041.87
3017.05
2994.23
2973.38
2954.46
2937.42
2922.21
2908.79
2897.12
2887.19
2878.98
2872.52
2867.82
2864.95
2863.98
2865.07
2868.17
2873.53
2881.11
2890.76
2902.33
2915.77
2930.83
2947.42
2965.35
2984.44
3004.6
3025.63
3047.47
3070.01
3093.2
3117.03
3141.52
3166.71
3192.66
3219.41
3247.1
3275.69
3305.27
3335.78
3367.15
3399.28
3431.93
3464.82
3497.65
3529.98
3561.39
3591.46
3619.68
3645.67
3669.02
3689.34
3706.31
3719.67
3729.18
3734.71
3736.15
3733.03
3725.77
3714.47
3699.34
3680.65
3658.73
3633.9
3606.52
3577.07
3546
3513.71
3480.72
3447.44
3414.25
3381.55
3349.64
3318.78
3289.16
3260.94
3234.23
3209.08
3185.52
3163.56
3143.16
3124.3
3106.92
3090.99
3076.47
3063.32
3051.5
3041
3031.8
3023.87
3017.19
3012.28
3008.09
3005.21
3003.63
3539.03
3514.96
3488.68
3460.43
3430.54
3399.38
3367.37
3334.89
3302.29
3269.95
3238.15
3207.15
3177.17
3148.39
3120.93
3094.89
3070.33
3047.3
3025.82
3005.91
2987.56
2970.79
2955.57
2941.92
2929.8
2919.19
2910.99
2903.38
2897.21
2892.42
2888.96
2886.76
2885.74
2885.82
2886.89
2888.87
2891.67
2895.22
2899.5
2904.45
2910.06
2916.35
2923.39
2931.25
2940.04
2949.86
2960.79
2972.35
2985.61
3000.41
3016.83
3034.84
3054.51
3075.78
3098.6
3122.92
3148.56
3175.35
3203.12
3231.58
3260.49
3289.54
3318.44
3346.9
3374.63
3401.33
3426.76
3450.64
3472.73
3492.78
3510.54
3525.75
3538.13
3547.19
3552.3
3554.54
3553.54
3549.03
3540.93
3529.38
3514.58
3496.79
3476.37
3453.63
3428.93
3402.62
3375.01
3346.4
3317.09
3287.36
3257.47
3227.67
3198.21
3169.32
3141.19
3114.01
3087.9
3062.97
3039.32
3016.98
2995.99
2976.38
2958.15
2941.31
2925.83
2911.7
2898.9
2887.39
2877.13
2868.08
2860.19
2853.44
2847.77
2843.16
2839.56
2836.93
2835.24
2834.44
2834.53
2835.47
2837.28
2839.95
2843.49
2847.9
2853.2
2859.38
2866.45
2874.42
2883.32
2893.19
2904.08
2916
2929.01
2943.15
2958.46
2974.99
2992.78
3011.84
3032.21
3053.87
3076.8
3100.96
3126.26
3152.63
3179.92
3208
3236.69
3265.77
3295
3324.12
3352.8
3380.72
3407.52
3432.81
3456.22
3477.36
3495.88
3511.43
3523.71
3532.47
3537.49
3538.61
3535.82
3529.08
3518.43
3504
3485.99
3464.67
3440.36
3413.42
3384.25
3353.3
3321.01
3287.83
3254.2
3220.53
3187.18
3154.49
3122.75
3092.22
3063.09
3035.53
3009.67
2985.57
2963.27
2942.76
2923.99
2906.9
2891.4
2877.39
2864.79
2853.51
2843.47
2834.59
2826.81
2820.09
2814.39
2809.66
2805.88
2803.02
2801.08
2800.05
2799.95
2800.82
2802.7
2805.63
2809.65
2814.8
2821.12
2828.63
2837.38
2847.42
2858.79
2871.55
2885.76
2901.5
2918.84
2937.83
2958.55
2981.03
3005.26
3031.24
3058.89
3088.12
3118.78
3150.68
3183.58
3217.19
3251.19
3285.18
3318.77
3351.49
3382.88
3412.46
3439.73
3464.26
3485.57
3503.29
3517.06
3526.58
3531.65
3532.11
3527.91
3519.16
3505.95
3488.47
3467.02
3441.95
3413.69
3382.67
3349.41
3314.41
3278.19
3241.27
3204.13
3167.22
3130.96
3095.71
3061.76
3029.37
2998.73
2969.96
2943.15
2918.34
2895.52
2874.69
2855.79
2838.78
2823.59
2810.19
2798.55
2788.63
2780.44
2774
2769.32
2766.46
2765.51
2766.61
2769.72
2775.12
2782.73
2792.41
2804.01
2817.48
2832.58
2849.21
2867.16
2886.28
2906.45
2927.49
2949.33
2971.86
2995.03
3018.82
3043.28
3068.43
3094.33
3121.04
3148.69
3177.25
3206.82
3237.33
3268.71
3300.9
3333.61
3366.59
3399.52
3431.96
3463.51
3493.7
3522.06
3548.18
3571.65
3592.08
3609.15
3622.58
3632.16
3637.72
3639.17
3636.04
3628.72
3617.36
3602.15
3583.37
3561.33
3536.37
3508.85
3479.27
3448.06
3415.64
3382.53
3349.14
3315.85
3283.08
3251.11
3220.21
3190.56
3162.32
3135.61
3110.46
3086.91
3064.96
3044.58
3025.74
3008.38
2992.47
2977.97
2964.83
2953.02
2942.53
2933.33
2925.41
2918.72
2913.85
2909.64
2906.75
2905.17
3441.75
3417.55
3391.12
3362.73
3332.7
3301.39
3269.25
3236.65
3203.94
3171.5
3139.63
3108.56
3078.54
3049.73
3022.25
2996.2
2971.64
2948.62
2927.15
2907.24
2888.91
2872.15
2856.94
2843.3
2831.18
2820.52
2812.49
2804.83
2798.66
2793.89
2790.45
2788.28
2787.29
2787.4
2788.5
2790.51
2793.33
2796.89
2801.18
2806.13
2811.74
2818.01
2825.02
2832.85
2841.6
2851.39
2862.29
2873.76
2887
2901.77
2918.17
2936.16
2955.83
2977.1
2999.94
3024.3
3049.98
3076.82
3104.66
3133.19
3162.19
3191.32
3220.3
3248.86
3276.68
3303.48
3329.01
3352.99
3375.18
3395.35
3413.22
3428.55
3441.04
3450.19
3455.43
3457.78
3456.8
3452.28
3444.14
3432.52
3417.62
3399.72
3379.17
3356.3
3331.46
3305
3277.25
3248.52
3219.09
3189.24
3159.24
3129.35
3099.81
3070.85
3042.67
3015.44
2989.3
2964.36
2940.7
2918.36
2897.38
2877.78
2859.55
2842.73
2827.26
2813.15
2800.37
2788.87
2778.63
2769.6
2761.73
2754.99
2749.34
2744.74
2741.15
2738.53
2736.85
2736.06
2736.15
2737.09
2738.9
2741.56
2745.1
2749.51
2754.8
2760.98
2768.04
2775.99
2784.88
2794.73
2805.6
2817.5
2830.49
2844.61
2859.9
2876.42
2894.18
2913.24
2933.6
2955.26
2978.19
3002.36
3027.69
3054.08
3081.41
3109.54
3138.28
3167.44
3196.76
3225.98
3254.78
3282.82
3309.75
3335.18
3358.73
3380.01
3398.65
3414.31
3426.69
3435.52
3440.58
3441.73
3438.93
3432.15
3421.44
3406.92
3388.81
3367.37
3342.91
3315.83
3286.51
3255.41
3222.97
3189.67
3155.92
3122.13
3088.69
3055.92
3024.12
2993.54
2964.38
2936.81
2910.93
2886.84
2864.55
2844.07
2825.33
2808.28
2792.81
2778.83
2766.26
2755.01
2744.99
2736.13
2728.37
2721.67
2715.97
2711.25
2707.48
2704.63
2702.68
2701.65
2701.54
2702.39
2704.26
2707.18
2711.19
2716.33
2722.63
2730.13
2738.86
2748.88
2760.23
2772.97
2787.16
2802.87
2820.17
2839.15
2859.85
2882.31
2906.54
2932.53
2960.2
2989.47
3020.17
3052.13
3085.11
3118.82
3152.93
3187.06
3220.79
3253.66
3285.21
3314.95
3342.39
3367.06
3388.53
3406.37
3420.24
3429.84
3434.96
3435.44
3431.23
3422.43
3409.13
3391.54
3369.96
3344.75
3316.32
3285.14
3251.7
3216.53
3180.15
3143.08
3105.79
3068.76
3032.4
2997.06
2963.05
2930.61
2899.94
2871.15
2844.34
2819.53
2796.73
2775.92
2757.05
2740.06
2724.9
2711.53
2699.91
2690.02
2681.85
2675.42
2670.76
2667.92
2666.98
2668.1
2671.21
2676.66
2684.3
2694.02
2705.67
2719.18
2734.32
2750.98
2768.97
2788.11
2808.3
2829.35
2851.18
2873.7
2896.84
2920.61
2945.02
2970.12
2995.96
3022.63
3050.23
3078.76
3108.31
3138.82
3170.23
3202.46
3235.26
3268.33
3301.38
3333.96
3365.65
3396
3424.51
3450.77
3474.38
3494.94
3512.12
3525.64
3535.28
3540.89
3542.35
3539.2
3531.83
3520.39
3505.1
3486.2
3464.02
3438.92
3411.25
3381.51
3350.15
3317.58
3284.32
3250.81
3217.42
3184.56
3152.52
3121.57
3091.89
3063.63
3036.91
3011.77
2988.23
2966.3
2945.94
2927.12
2909.78
2893.89
2879.41
2866.28
2854.49
2844.01
2834.81
2826.9
2820.22
2815.34
2811.13
2808.24
2806.65
3344.57
3320.22
3293.64
3265.09
3234.89
3203.42
3171.13
3138.39
3105.55
3073.01
3041.05
3009.91
2979.84
2951
2923.5
2897.44
2872.88
2849.86
2828.4
2808.51
2790.19
2773.44
2758.25
2744.61
2732.5
2721.81
2713.91
2706.22
2700.06
2695.3
2691.89
2689.75
2688.8
2688.94
2690.08
2692.11
2694.96
2698.54
2702.84
2707.79
2713.39
2719.64
2726.62
2734.42
2743.12
2752.87
2763.75
2775.11
2788.32
2803.07
2819.44
2837.42
2857.08
2878.36
2901.22
2925.61
2951.34
2978.25
3006.16
3034.77
3063.85
3093.09
3122.17
3150.82
3178.75
3205.66
3231.3
3255.39
3277.71
3298
3316
3331.47
3344.08
3353.35
3358.7
3361.17
3360.23
3355.7
3347.52
3335.82
3320.82
3302.78
3282.08
3259.06
3234.05
3207.44
3179.54
3150.65
3121.09
3091.11
3061
3031
3001.37
2972.33
2944.08
2916.81
2890.64
2865.69
2842.01
2819.68
2798.7
2779.11
2760.9
2744.09
2728.64
2714.55
2701.78
2690.31
2680.08
2671.07
2663.22
2656.5
2650.86
2646.28
2642.7
2640.1
2638.43
2637.65
2637.74
2638.69
2640.48
2643.15
2646.68
2651.09
2656.37
2662.54
2669.59
2677.53
2686.4
2696.23
2707.08
2718.96
2731.92
2746.02
2761.29
2777.78
2795.53
2814.57
2834.92
2856.58
2879.52
2903.7
2929.05
2955.47
2982.85
3011.03
3039.84
3069.08
3098.5
3127.83
3156.76
3184.95
3212.03
3237.61
3261.32
3282.75
3301.53
3317.32
3329.8
3338.71
3343.83
3345
3342.19
3335.37
3324.59
3309.98
3291.75
3270.16
3245.55
3218.3
3188.82
3157.55
3124.95
3091.49
3057.6
3023.7
2990.15
2957.3
2925.43
2894.79
2865.6
2838
2812.12
2788.03
2765.77
2745.31
2726.61
2709.59
2694.16
2680.22
2667.68
2656.46
2646.47
2637.63
2629.89
2623.2
2617.52
2612.81
2609.05
2606.2
2604.25
2603.21
2603.09
2603.93
2605.78
2608.68
2612.68
2617.81
2624.09
2631.58
2640.29
2650.29
2661.61
2674.32
2688.48
2704.16
2721.44
2740.39
2761.07
2783.52
2807.75
2833.74
2861.44
2890.74
2921.5
2953.53
2986.6
3020.42
3054.66
3088.93
3122.82
3155.87
3187.6
3217.52
3245.14
3269.99
3291.61
3309.6
3323.59
3333.28
3338.45
3338.95
3334.73
3325.86
3312.47
3294.76
3273.04
3247.66
3219.05
3187.67
3154.04
3118.68
3082.11
3044.87
3007.43
2970.26
2933.78
2898.35
2864.26
2831.77
2801.06
2772.26
2745.44
2720.64
2697.86
2677.07
2658.22
2641.26
2626.14
2612.79
2601.2
2591.34
2583.19
2576.79
2572.14
2569.32
2568.4
2569.54
2572.66
2578.15
2585.84
2595.6
2607.29
2620.84
2636.03
2652.74
2670.76
2689.93
2710.14
2731.2
2753.03
2775.54
2798.65
2822.37
2846.74
2871.78
2897.56
2924.17
2951.73
2980.22
3009.75
3040.26
3071.7
3103.99
3136.87
3170.05
3203.23
3235.96
3267.82
3298.34
3327.02
3353.45
3377.22
3397.92
3415.22
3428.84
3438.56
3444.22
3445.69
3442.52
3435.09
3423.58
3408.17
3389.14
3366.82
3341.55
3313.71
3283.79
3252.25
3219.51
3186.1
3152.45
3118.94
3085.98
3053.86
3022.86
2993.14
2964.86
2938.13
2913
2889.48
2867.57
2847.23
2828.43
2811.12
2795.25
2780.78
2767.68
2755.9
2745.43
2736.25
2728.34
2721.7
2716.75
2712.57
2709.68
2708.09
3247.49
3222.98
3196.22
3167.49
3137.11
3105.47
3073
3040.1
3007.13
2974.47
2942.41
2911.2
2881.08
2852.19
2824.67
2798.6
2774.04
2751.03
2729.59
2709.71
2691.4
2674.67
2659.48
2645.86
2633.76
2623.07
2615.23
2607.54
2601.39
2596.67
2593.29
2591.18
2590.26
2590.44
2591.62
2593.69
2596.56
2600.15
2604.48
2609.43
2615.01
2621.24
2628.19
2635.94
2644.6
2654.3
2665.15
2676.39
2689.59
2704.29
2720.64
2738.6
2758.25
2779.54
2802.43
2826.86
2852.64
2879.61
2907.6
2936.31
2965.49
2994.83
3024.02
3052.8
3080.84
3107.87
3133.63
3157.85
3180.29
3200.72
3218.88
3234.49
3247.24
3256.65
3262.14
3264.73
3263.84
3259.3
3251.06
3239.28
3224.15
3205.98
3185.11
3161.91
3136.73
3109.94
3081.86
3052.82
3023.1
2992.98
2962.73
2932.62
2902.88
2873.75
2845.44
2818.12
2791.92
2766.95
2743.27
2720.93
2699.96
2680.38
2662.18
2645.38
2629.95
2615.88
2603.14
2591.69
2581.49
2572.5
2564.67
2557.96
2552.34
2547.78
2544.22
2541.64
2539.98
2539.21
2539.3
2540.24
2542.04
2544.7
2548.22
2552.63
2557.91
2564.06
2571.1
2579.03
2587.87