/*--------------------------------*- C++ -*----------------------------------*\
| =========                 |                                                 |
| \\      /  F ield         | OpenFOAM: The Open Source CFD Toolbox           |
|  \\    /   O peration     | Version:  3.0.1                                 |
|   \\  /    A nd           | Web:      www.OpenFOAM.org                      |
|    \\/     M anipulation  |                                                 |
\*---------------------------------------------------------------------------*/
FoamFile
{
    version     2.0;
    format      ascii;
    class       volVectorField;
    location    "70.4";
    object      U;
}
// * * * * * * * * * * * * * * * * * * * * * * * * * * * * * * * * * * * * * //

dimensions      [0 1 -1 0 0 0 0];

internalField   nonuniform List<vector> 
21420
(
(0.33505 0.000964201 0)
(0.32604 0.00111372 0)
(0.314013 0.00126586 0)
(0.300592 0.00140344 0)
(0.285996 0.00149322 0)
(0.270425 0.0015906 0)
(0.254087 0.00163681 0)
(0.237202 0.00169178 0)
(0.219973 0.0017265 0)
(0.202604 0.00171301 0)
(0.185297 0.00170749 0)
(0.168225 0.00168389 0)
(0.151551 0.00162388 0)
(0.135419 0.00157071 0)
(0.119949 0.00148995 0)
(0.10524 0.00141632 0)
(0.0913643 0.00133526 0)
(0.0783719 0.00123928 0)
(0.0662925 0.00115164 0)
(0.0551309 0.0010635 0)
(0.044874 0.000970936 0)
(0.0354915 0.000888117 0)
(0.0269366 0.000809762 0)
(0.0191518 0.000733156 0)
(0.0120585 0.000665778 0)
(0.00553476 0.000600611 0)
(-0.000213566 0.000545776 0)
(-0.00530182 0.000494345 0)
(-0.0100212 0.000445772 0)
(-0.0142744 0.000399995 0)
(-0.0180773 0.000355366 0)
(-0.0214346 0.000310778 0)
(-0.0243405 0.000265322 0)
(-0.0267806 0.000217959 0)
(-0.0287344 0.000167622 0)
(-0.0301718 0.000113963 0)
(-0.0310522 5.73326e-05 0)
(-0.0313572 -2.52874e-06 0)
(-0.0310248 -6.69832e-05 0)
(-0.0300183 -0.000135954 0)
(-0.0283188 -0.000204515 0)
(-0.0258949 -0.000279235 0)
(-0.0227095 -0.00035163 0)
(-0.0187338 -0.000425794 0)
(-0.0139502 -0.000505397 0)
(-0.00824258 -0.000583127 0)
(-0.001967 -0.000663024 0)
(0.00490289 -0.000739693 0)
(0.0127221 -0.00081397 0)
(0.0212894 -0.000884369 0)
(0.0306496 -0.000969427 0)
(0.040814 -0.00104 0)
(0.0517609 -0.00112625 0)
(0.0635412 -0.00120134 0)
(0.0760682 -0.00126684 0)
(0.089348 -0.00135208 0)
(0.103446 -0.00142421 0)
(0.118247 -0.00148185 0)
(0.133727 -0.00155887 0)
(0.149885 -0.0016123 0)
(0.16662 -0.00166977 0)
(0.183857 -0.00171066 0)
(0.201476 -0.00173405 0)
(0.219288 -0.00174599 0)
(0.237137 -0.00173935 0)
(0.254803 -0.00170247 0)
(0.271968 -0.00164154 0)
(0.288329 -0.00153909 0)
(0.303459 -0.00139846 0)
(0.316964 -0.00121685 0)
(0.328455 -0.000978537 0)
(0.33751 -0.000727513 0)
(0.343873 -0.000453961 0)
(0.347031 -0.000186679 0)
(0.346888 5.40649e-05 0)
(0.343492 0.000354589 0)
(0.338206 0.000641783 0)
(0.331214 0.000855803 0)
(0.32277 0.00102745 0)
(0.313011 0.0011467 0)
(0.302541 0.00123188 0)
(0.29141 0.00130624 0)
(0.279722 0.00135327 0)
(0.267681 0.00139859 0)
(0.255107 0.0014461 0)
(0.242026 0.00148806 0)
(0.228339 0.00153482 0)
(0.21411 0.00157445 0)
(0.199305 0.00161072 0)
(0.184075 0.00162685 0)
(0.168556 0.0016392 0)
(0.152821 0.00163527 0)
(0.137046 0.00161739 0)
(0.121308 0.00159255 0)
(0.105786 0.00154906 0)
(0.0905462 0.00149496 0)
(0.0757738 0.00145461 0)
(0.0615909 0.00138392 0)
(0.0479922 0.00131625 0)
(0.035065 0.00124883 0)
(0.0229122 0.00116421 0)
(0.0115193 0.00109475 0)
(0.000951682 0.00101065 0)
(-0.00879218 0.000927096 0)
(-0.0177201 0.00084143 0)
(-0.0258031 0.000763748 0)
(-0.0330765 0.000682569 0)
(-0.0395515 0.000604458 0)
(-0.0452243 0.000526218 0)
(-0.0501264 0.000450983 0)
(-0.0542626 0.000372813 0)
(-0.0576312 0.000298606 0)
(-0.0602582 0.000228131 0)
(-0.0621749 0.000158141 0)
(-0.0633923 8.33713e-05 0)
(-0.0639251 2.43201e-05 0)
(-0.0638011 -4.60813e-05 0)
(-0.0630288 -0.000104296 0)
(-0.0616506 -0.000158746 0)
(-0.059701 -0.000222484 0)
(-0.0571799 -0.000273875 0)
(-0.0541235 -0.000330436 0)
(-0.0505267 -0.000383277 0)
(-0.046401 -0.000439147 0)
(-0.0417295 -0.000486101 0)
(-0.0364973 -0.000556432 0)
(-0.0306897 -0.000601826 0)
(-0.024244 -0.00067074 0)
(-0.0171926 -0.000735462 0)
(-0.00951433 -0.000790706 0)
(-0.00119701 -0.000844442 0)
(0.00769057 -0.000905327 0)
(0.0171356 -0.000958012 0)
(0.0270873 -0.00101874 0)
(0.0375901 -0.00106775 0)
(0.048628 -0.00112289 0)
(0.0601732 -0.0011739 0)
(0.0722907 -0.00122829 0)
(0.0849942 -0.00129245 0)
(0.0982906 -0.00134475 0)
(0.112156 -0.00140575 0)
(0.126617 -0.00146587 0)
(0.141667 -0.00152273 0)
(0.157281 -0.00157129 0)
(0.173443 -0.00162461 0)
(0.190048 -0.00166887 0)
(0.206983 -0.00169523 0)
(0.224174 -0.0016974 0)
(0.241377 -0.00170735 0)
(0.258435 -0.00166506 0)
(0.2751 -0.00162684 0)
(0.291189 -0.00155569 0)
(0.30645 -0.00147107 0)
(0.320685 -0.00134677 0)
(0.33365 -0.00121547 0)
(0.345112 -0.00105647 0)
(0.354882 -0.000881985 0)
(0.362782 -0.000688361 0)
(0.368642 -0.000480032 0)
(0.372344 -0.00025461 0)
(0.37373 -2.81008e-05 0)
(0.37292 0.000205614 0)
(0.369537 0.000441687 0)
(0.363901 0.000672393 0)
(0.356072 0.000887509 0)
(0.346113 0.00108284 0)
(0.334229 0.00127073 0)
(0.32062 0.00142566 0)
(0.305537 0.00156081 0)
(0.289257 0.00166137 0)
(0.272069 0.00173491 0)
(0.254279 0.00179028 0)
(0.236164 0.00181275 0)
(0.217891 0.00180711 0)
(0.199724 0.00179489 0)
(0.18181 0.0017552 0)
(0.164338 0.00170356 0)
(0.147431 0.00163807 0)
(0.13127 0.0015624 0)
(0.116 0.00146557 0)
(0.101756 0.00135762 0)
(0.0886452 0.00124004 0)
(0.0767695 0.00111194 0)
(0.0661743 0.00099475 0)
(0.0568303 0.00087227 0)
(0.0486392 0.000751299 0)
(0.0415636 0.000647869 0)
(0.0354864 0.000560942 0)
(0.0303332 0.000473856 0)
(0.0259663 0.000390707 0)
(0.0223632 0.000316861 0)
(0.0194616 0.000261251 0)
(0.0171668 0.000198178 0)
(0.0154448 0.000137984 0)
(0.0142704 9.6312e-05 0)
(0.0136219 4.38291e-05 0)
(0.013463 -2.34589e-06 0)
(0.0137353 -4.67955e-05 0)
(0.0144282 -8.76991e-05 0)
(0.0154597 -0.000112487 0)
(0.0167609 -0.000143832 0)
(0.0183327 -0.000163813 0)
(0.0200887 -0.000192384 0)
(0.0220918 -0.000198216 0)
(0.0242454 -0.00022709 0)
(0.0265893 -0.000234457 0)
(0.0290833 -0.000257997 0)
(0.0317751 -0.000279238 0)
(0.0347008 -0.000298455 0)
(0.0378904 -0.000335585 0)
(0.0414319 -0.000377328 0)
(0.0454631 -0.000414893 0)
(0.0499685 -0.000473966 0)
(0.0550587 -0.00053698 0)
(0.0607659 -0.000593747 0)
(0.067067 -0.000656165 0)
(0.0740914 -0.000729584 0)
(0.08183 -0.000799446 0)
(0.0903255 -0.000882734 0)
(0.0996749 -0.000966075 0)
(0.109887 -0.00105695 0)
(0.121 -0.00114607 0)
(0.132965 -0.00123151 0)
(0.145778 -0.00130558 0)
(0.159351 -0.00137683 0)
(0.173587 -0.00144667 0)
(0.188404 -0.00149368 0)
(0.203701 -0.00152886 0)
(0.219347 -0.00156924 0)
(0.235188 -0.00157734 0)
(0.251042 -0.00156581 0)
(0.266678 -0.00153174 0)
(0.28187 -0.00147597 0)
(0.296397 -0.0013949 0)
(0.309941 -0.00129784 0)
(0.322364 -0.00115859 0)
(0.333363 -0.00101746 0)
(0.34274 -0.000845505 0)
(0.350305 -0.000652763 0)
(0.355863 -0.000443065 0)
(0.359246 -0.00022864 0)
(0.36037 -1.34005e-05 0)
(0.359311 0.000223915 0)
(0.355787 0.000455692 0)
(0.350072 0.000665627 0)
(0.342305 0.00087494 0)
(0.332572 0.00105438 0)
(0.321154 0.00120935 0)
(0.308255 0.00134026 0)
(0.294146 0.00145351 0)
(0.279087 0.00153642 0)
(0.263342 0.00158658 0)
(0.247175 0.00161941 0)
(0.230802 0.00162538 0)
(0.214417 0.00161531 0)
(0.19824 0.00159416 0)
(0.182402 0.00154794 0)
(0.167034 0.00150306 0)
(0.152238 0.00143816 0)
(0.138045 0.00137612 0)
(0.124501 0.00131223 0)
(0.111594 0.00123369 0)
(0.0994072 0.0011688 0)
(0.0879625 0.00109836 0)
(0.0772427 0.0010195 0)
(0.067292 0.000945999 0)
(0.0581696 0.000866845 0)
(0.0499005 0.000793102 0)
(0.0423541 0.000715618 0)
(0.0355474 0.000640481 0)
(0.0294118 0.00057205 0)
(0.0239632 0.000501477 0)
(0.0191676 0.000431583 0)
(0.015033 0.000361718 0)
(0.0115592 0.00029042 0)
(0.00888087 0.000214093 0)
(0.00688777 0.000143521 0)
(0.00577344 6.66025e-05 0)
(0.00548939 -5.3588e-06 0)
(0.0061306 -7.56648e-05 0)
(0.00777165 -0.000146894 0)
(0.0102544 -0.000208717 0)
(0.0134562 -0.000273894 0)
(0.0176319 -0.000342129 0)
(0.0224654 -0.00038937 0)
(0.0278067 -0.000443775 0)
(0.0338669 -0.000485413 0)
(0.0401301 -0.000515019 0)
(0.0468309 -0.000551983 0)
(0.0537924 -0.000572102 0)
(0.0608101 -0.00059388 0)
(0.0681077 -0.000623851 0)
(0.0756248 -0.000656302 0)
(0.0833647 -0.000689839 0)
(0.091526 -0.000748753 0)
(0.100169 -0.000807972 0)
(0.109494 -0.000889788 0)
(0.119547 -0.000972143 0)
(0.130451 -0.00107769 0)
(0.142314 -0.00117506 0)
(0.155116 -0.00129083 0)
(0.168938 -0.00139709 0)
(0.183657 -0.00148677 0)
(0.199216 -0.00158578 0)
(0.215571 -0.00165937 0)
(0.232505 -0.00169771 0)
(0.249809 -0.00173888 0)
(0.267269 -0.00173284 0)
(0.284582 -0.00171568 0)
(0.301464 -0.00165452 0)
(0.317624 -0.00155725 0)
(0.332735 -0.00144525 0)
(0.346512 -0.00129837 0)
(0.358711 -0.00112124 0)
(0.369063 -0.000929269 0)
(0.377377 -0.000717084 0)
(0.383495 -0.000485298 0)
(0.387241 -0.000246439 0)
(0.38859 1.36e-06 0)
(0.387647 0.000241351 0)
(0.384015 0.000484594 0)
(0.377982 0.000718797 0)
(0.36969 0.000922355 0)
(0.359307 0.00112839 0)
(0.347031 0.0012895 0)
(0.333123 0.00144768 0)
(0.317812 0.00158825 0)
(0.301353 0.00166651 0)
(0.284068 0.00174589 0)
(0.266218 0.00180234 0)
(0.248066 0.00179873 0)
(0.229888 0.00180045 0)
(0.211896 0.00178175 0)
(0.194288 0.00171859 0)
(0.177238 0.00166475 0)
(0.160873 0.00157941 0)
(0.145289 0.00150543 0)
(0.13054 0.00142563 0)
(0.116661 0.00133018 0)
(0.103664 0.00124722 0)
(0.0915353 0.00116509 0)
(0.080252 0.00107736 0)
(0.0697829 0.00100099 0)
(0.0600912 0.000921882 0)
(0.0511406 0.000852286 0)
(0.0428957 0.000785257 0)
(0.0353286 0.00071686 0)
(0.028416 0.000654146 0)
(0.0221402 0.000592389 0)
(0.0164907 0.000529192 0)
(0.0114614 0.000468346 0)
(0.00704977 0.000406122 0)
(0.00323629 0.000345332 0)
(8.19691e-05 0.000281181 0)
(-0.00241568 0.00021875 0)
(-0.00429659 0.000155225 0)
(-0.00555168 9.05948e-05 0)
(0.335118 0.00289317 0)
(0.326101 0.00334179 0)
(0.314068 0.00379829 0)
(0.30064 0.00421111 0)
(0.286035 0.00448045 0)
(0.270456 0.00477263 0)
(0.25411 0.00491122 0)
(0.237216 0.00507616 0)
(0.219979 0.00518029 0)
(0.202603 0.00513977 0)
(0.185288 0.00512315 0)
(0.16821 0.00505229 0)
(0.151531 0.00487217 0)
(0.135394 0.00471256 0)
(0.119921 0.0044702 0)
(0.105209 0.00424924 0)
(0.0913303 0.00400595 0)
(0.0783372 0.00371793 0)
(0.0662573 0.00345493 0)
(0.055096 0.00319043 0)
(0.0448406 0.00291269 0)
(0.0354597 0.00266418 0)
(0.0269067 0.00242909 0)
(0.0191243 0.00219927 0)
(0.0120329 0.00199706 0)
(0.00551179 0.00180173 0)
(-0.000234236 0.00163714 0)
(-0.00532113 0.00148293 0)
(-0.0100394 0.00133721 0)
(-0.014292 0.00119998 0)
(-0.0180947 0.00106613 0)
(-0.0214523 0.000932453 0)
(-0.0243589 0.000796069 0)
(-0.0268001 0.000654051 0)
(-0.0287551 0.000503155 0)
(-0.030194 0.000342208 0)
(-0.0310764 0.000172013 0)
(-0.0313829 -7.88642e-06 0)
(-0.0310522 -0.000200832 0)
(-0.030047 -0.000407563 0)
(-0.0283487 -0.000613609 0)
(-0.0259262 -0.000837519 0)
(-0.0227413 -0.00105501 0)
(-0.0187667 -0.00127709 0)
(-0.0139845 -0.00151726 0)
(-0.00827841 -0.001748 0)
(-0.00200188 -0.00198919 0)
(0.00486843 -0.00221878 0)
(0.0126861 -0.00244172 0)
(0.0212525 -0.00265285 0)
(0.0306115 -0.00290816 0)
(0.0407751 -0.00311983 0)
(0.0517207 -0.0033787 0)
(0.0635008 -0.0036035 0)
(0.0760262 -0.003801 0)
(0.0893066 -0.00405582 0)
(0.103404 -0.00427296 0)
(0.118205 -0.00444614 0)
(0.133688 -0.00467687 0)
(0.14985 -0.00483656 0)
(0.166589 -0.00501041 0)
(0.183833 -0.0051333 0)
(0.201457 -0.00520059 0)
(0.219279 -0.00523917 0)
(0.23714 -0.00522195 0)
(0.254822 -0.00510479 0)
(0.272003 -0.00492712 0)
(0.288385 -0.00461921 0)
(0.303539 -0.00419258 0)
(0.317076 -0.00364989 0)
(0.328573 -0.00297439 0)
(0.337665 -0.0021797 0)
(0.344049 -0.00133293 0)
(0.347213 -0.000556714 0)
(0.347077 0.000160711 0)
(0.343693 0.0010656 0)
(0.338443 0.00192603 0)
(0.331461 0.00256752 0)
(0.323027 0.00308119 0)
(0.313279 0.00343826 0)
(0.30282 0.00369329 0)
(0.291698 0.00392056 0)
(0.280016 0.0040604 0)
(0.267982 0.00419398 0)
(0.255413 0.0043373 0)
(0.242337 0.00446807 0)
(0.228641 0.00460346 0)
(0.214413 0.00471769 0)
(0.199592 0.00482297 0)
(0.184372 0.00488261 0)
(0.168827 0.00491791 0)
(0.153077 0.00489643 0)
(0.13729 0.00485187 0)
(0.121561 0.004777 0)
(0.106031 0.00465207 0)
(0.0907869 0.00449506 0)
(0.0759941 0.00435468 0)
(0.0618174 0.00415582 0)
(0.0482086 0.0039348 0)
(0.0352908 0.00374659 0)
(0.0231183 0.003489 0)
(0.0117282 0.00328041 0)
(0.00116174 0.00303195 0)
(-0.00857916 0.00277994 0)
(-0.0175042 0.00253138 0)
(-0.0255984 0.00228491 0)
(-0.0328652 0.00204577 0)
(-0.039337 0.00180581 0)
(-0.0450088 0.00156806 0)
(-0.0499037 0.00134448 0)
(-0.0540369 0.00111361 0)
(-0.0574091 0.000889315 0)
(-0.0600439 0.000672479 0)
(-0.0619619 0.000457268 0)
(-0.0631681 0.000242317 0)
(-0.0636965 7.14652e-05 0)
(-0.0635678 -0.000134683 0)
(-0.062811 -0.000331071 0)
(-0.0614353 -0.000487236 0)
(-0.059487 -0.000672801 0)
(-0.0569714 -0.000830492 0)
(-0.0539081 -0.000983176 0)
(-0.0503308 -0.0011525 0)
(-0.0462161 -0.00132523 0)
(-0.0415409 -0.00145039 0)
(-0.0363246 -0.00165874 0)
(-0.0305412 -0.0018171 0)
(-0.0241093 -0.00199844 0)
(-0.0170739 -0.00220014 0)
(-0.00939024 -0.00235688 0)
(-0.00111007 -0.00255126 0)
(0.00775631 -0.0027307 0)
(0.0171936 -0.00287718 0)
(0.0271318 -0.00305005 0)
(0.0376082 -0.00320406 0)
(0.0486275 -0.00336271 0)
(0.0601524 -0.00352506 0)
(0.0722579 -0.00368914 0)
(0.0849581 -0.00386729 0)
(0.0982224 -0.00404515 0)
(0.112073 -0.00422824 0)
(0.126537 -0.00438702 0)
(0.141579 -0.00455879 0)
(0.157178 -0.00473371 0)
(0.173336 -0.00487229 0)
(0.189945 -0.00499294 0)
(0.206889 -0.00507923 0)
(0.22406 -0.00511856 0)
(0.241287 -0.00511008 0)
(0.258345 -0.00502176 0)
(0.27503 -0.00488122 0)
(0.29113 -0.00466906 0)
(0.306412 -0.00438777 0)
(0.320639 -0.004061 0)
(0.333624 -0.00364118 0)
(0.345096 -0.00317189 0)
(0.354885 -0.00263788 0)
(0.362807 -0.00205065 0)
(0.368684 -0.00142398 0)
(0.372378 -0.000767849 0)
(0.373773 -9.91846e-05 0)
(0.372954 0.000603306 0)
(0.369592 0.00132854 0)
(0.363955 0.00201607 0)
(0.356117 0.00266097 0)
(0.346163 0.00326765 0)
(0.334252 0.00380299 0)
(0.320642 0.00428696 0)
(0.305538 0.00467861 0)
(0.289252 0.00499835 0)
(0.272049 0.00521827 0)
(0.254231 0.00535522 0)
(0.236083 0.00542349 0)
(0.217823 0.00543971 0)
(0.199632 0.0053791 0)
(0.181723 0.00527685 0)
(0.164233 0.00512184 0)
(0.147305 0.00492083 0)
(0.131126 0.0046819 0)
(0.115855 0.00439829 0)
(0.101596 0.00407263 0)
(0.0884941 0.00372436 0)
(0.0766008 0.0033517 0)
(0.0659849 0.00297396 0)
(0.0566312 0.00260707 0)
(0.0484565 0.00226619 0)
(0.0413937 0.00195597 0)
(0.0353189 0.00167046 0)
(0.0301551 0.00140631 0)
(0.025808 0.00119251 0)
(0.0221947 0.000958177 0)
(0.0192934 0.000770763 0)
(0.0170125 0.00059246 0)
(0.0152985 0.000432342 0)
(0.0141125 0.000276712 0)
(0.0134581 0.00012268 0)
(0.0133032 -1.39527e-05 0)
(0.0135889 -0.000138482 0)
(0.0142687 -0.000255251 0)
(0.0153068 -0.000341071 0)
(0.0166121 -0.000426177 0)
(0.0181705 -0.000503633 0)
(0.019973 -0.000548466 0)
(0.021943 -0.000629525 0)
(0.0241256 -0.000659653 0)
(0.026437 -0.000730092 0)
(0.0289565 -0.000764514 0)
(0.0316337 -0.000838469 0)
(0.0345442 -0.000909062 0)
(0.0377549 -0.0009978 0)
(0.0413083 -0.00111999 0)
(0.0453114 -0.00126586 0)
(0.0498355 -0.00141936 0)
(0.0549296 -0.00159206 0)
(0.0606194 -0.00178417 0)
(0.0669384 -0.0019724 0)
(0.0739457 -0.00218671 0)
(0.0816781 -0.00241068 0)
(0.0901871 -0.00265031 0)
(0.099541 -0.00290406 0)
(0.109761 -0.00316349 0)
(0.120877 -0.00343504 0)
(0.13286 -0.00368637 0)
(0.145667 -0.00392338 0)
(0.159245 -0.00414471 0)
(0.173503 -0.00431669 0)
(0.188325 -0.00449282 0)
(0.203629 -0.00460578 0)
(0.219293 -0.00469516 0)
(0.235143 -0.00472428 0)
(0.251008 -0.00470403 0)
(0.266662 -0.00459938 0)
(0.281869 -0.00443629 0)
(0.296391 -0.00419393 0)
(0.30998 -0.00387361 0)
(0.322375 -0.00351016 0)
(0.333418 -0.00303816 0)
(0.342802 -0.00253043 0)
(0.350364 -0.00196159 0)
(0.355916 -0.00134143 0)
(0.359319 -0.000676591 0)
(0.360447 -1.96138e-05 0)
(0.359353 0.000656503 0)
(0.355817 0.00136346 0)
(0.350135 0.00201784 0)
(0.342313 0.00260604 0)
(0.332582 0.00316009 0)
(0.321147 0.00363782 0)
(0.308233 0.00403438 0)
(0.294101 0.00435957 0)
(0.279012 0.00459626 0)
(0.263259 0.00475584 0)
(0.247086 0.00486358 0)
(0.230701 0.00488215 0)
(0.214304 0.0048658 0)
(0.198107 0.00477855 0)
(0.18226 0.00464829 0)
(0.166889 0.00449062 0)
(0.15209 0.00432135 0)
(0.137892 0.00412561 0)
(0.124346 0.00393344 0)
(0.111452 0.00371091 0)
(0.0992525 0.00350575 0)
(0.0878074 0.00329182 0)
(0.0771051 0.00306391 0)
(0.0671498 0.00282648 0)
(0.0580338 0.00259216 0)
(0.0497721 0.00237584 0)
(0.0422363 0.00215598 0)
(0.0354431 0.00193026 0)
(0.0293175 0.00171895 0)
(0.0238733 0.00150034 0)
(0.0190884 0.00129531 0)
(0.0149622 0.00108265 0)
(0.011495 0.000861742 0)
(0.00882187 0.000645955 0)
(0.0068296 0.000431882 0)
(0.00571513 0.000200003 0)
(0.00542946 -1.21386e-05 0)
(0.00606628 -0.00022656 0)
(0.00769925 -0.00043928 0)
(0.0101748 -0.000621235 0)
(0.0133633 -0.000820859 0)
(0.0175292 -0.00102615 0)
(0.0223573 -0.0011674 0)
(0.0276912 -0.00133018 0)
(0.0337497 -0.00145376 0)
(0.0400102 -0.0015464 0)
(0.0467116 -0.0016556 0)
(0.053684 -0.00171146 0)
(0.0607001 -0.00178232 0)
(0.068004 -0.00187576 0)
(0.0755287 -0.00195912 0)
(0.0832715 -0.00208397 0)
(0.0914375 -0.0022316 0)
(0.100084 -0.00243326 0)
(0.109411 -0.002667 0)
(0.119468 -0.00291988 0)
(0.130375 -0.00323544 0)
(0.142241 -0.00353141 0)
(0.155049 -0.0038756 0)
(0.168875 -0.00419703 0)
(0.183604 -0.00446153 0)
(0.199169 -0.0047603 0)
(0.215537 -0.00497712 0)
(0.23248 -0.00509328 0)
(0.249796 -0.00521903 0)
(0.26727 -0.00519777 0)
(0.284593 -0.00514889 0)
(0.301489 -0.00496523 0)
(0.317662 -0.00467299 0)
(0.332785 -0.00433809 0)
(0.346575 -0.00389327 0)
(0.35878 -0.00336652 0)
(0.369144 -0.00279047 0)
(0.377468 -0.00214628 0)
(0.383582 -0.00146559 0)
(0.38735 -0.000735299 0)
(0.388702 2.50749e-06 0)
(0.387741 0.000723108 0)
(0.3841 0.00145322 0)
(0.378073 0.00215609 0)
(0.369775 0.00276752 0)
(0.359385 0.0033859 0)
(0.347099 0.00386935 0)
(0.333182 0.00434401 0)
(0.317861 0.00476583 0)
(0.30139 0.00500059 0)
(0.284093 0.00523874 0)
(0.266233 0.00540809 0)
(0.24807 0.00539714 0)
(0.229883 0.00540221 0)
(0.211882 0.00534602 0)
(0.194269 0.00515637 0)
(0.177213 0.00499473 0)
(0.160845 0.00473855 0)
(0.145258 0.0045165 0)
(0.130507 0.00427699 0)
(0.116628 0.00399057 0)
(0.103631 0.00374163 0)
(0.0915028 0.00349519 0)
(0.0802209 0.00323195 0)
(0.069753 0.00300285 0)
(0.0600629 0.00276552 0)
(0.0511134 0.00255675 0)
(0.0428695 0.00235568 0)
(0.0353034 0.00215051 0)
(0.0283913 0.0019624 0)
(0.0221158 0.00177715 0)
(0.0164666 0.00158757 0)
(0.0114372 0.00140505 0)
(0.00702566 0.00121838 0)
(0.00321154 0.00103614 0)
(5.6938e-05 0.000843434 0)
(-0.0024405 0.000656328 0)
(-0.00432197 0.000465716 0)
(-0.00557747 0.000271825 0)
(0.335251 0.00482393 0)
(0.326222 0.00557181 0)
(0.314176 0.0063329 0)
(0.300734 0.00702117 0)
(0.286112 0.00747009 0)
(0.270516 0.00795717 0)
(0.254153 0.00818807 0)
(0.237243 0.00846297 0)
(0.21999 0.00863646 0)
(0.202598 0.00856869 0)
(0.185269 0.00854081 0)
(0.168178 0.00842249 0)
(0.151488 0.00812198 0)
(0.135342 0.0078557 0)
(0.119861 0.00745144 0)
(0.105143 0.00708287 0)
(0.0912603 0.0066771 0)
(0.0782656 0.00619677 0)
(0.0661849 0.00575819 0)
(0.0550243 0.00531707 0)
(0.0447719 0.00485401 0)
(0.0353942 0.00443966 0)
(0.0268452 0.00404773 0)
(0.0190678 0.00366468 0)
(0.0119805 0.00332745 0)
(0.00546464 0.00300243 0)
(-0.000276656 0.00272785 0)
(-0.00536067 0.00247111 0)
(-0.0100766 0.00222832 0)
(-0.0143277 0.00199981 0)
(-0.0181299 0.00177685 0)
(-0.0214878 0.00155432 0)
(-0.0243955 0.00132701 0)
(-0.0268386 0.00109049 0)
(-0.0287959 0.000839135 0)
(-0.0302372 0.00057103 0)
(-0.0311236 0.000287134 0)
(-0.0314326 -1.31703e-05 0)
(-0.0311047 -0.000334361 0)
(-0.0301018 -0.000678394 0)
(-0.0284053 -0.0010229 0)
(-0.0259847 -0.00139554 0)
(-0.0228004 -0.00175867 0)
(-0.0188273 -0.00212772 0)
(-0.0140464 -0.00253149 0)
(-0.00834236 -0.00290973 0)
(-0.00206304 -0.00331657 0)
(0.00480988 -0.00369759 0)
(0.012626 -0.00406937 0)
(0.0211927 -0.00442136 0)
(0.0305515 -0.00484686 0)
(0.0407158 -0.00519964 0)
(0.0516611 -0.0056312 0)
(0.063442 -0.00600595 0)
(0.0759685 -0.00633488 0)
(0.0892498 -0.00676027 0)
(0.103349 -0.00712193 0)
(0.118154 -0.00741081 0)
(0.133642 -0.00779576 0)
(0.149809 -0.00806256 0)
(0.166556 -0.00835166 0)
(0.18381 -0.0085569 0)
(0.201443 -0.00867263 0)
(0.219282 -0.0087343 0)
(0.237163 -0.00870544 0)
(0.254863 -0.00851613 0)
(0.272076 -0.00821578 0)
(0.288491 -0.00770627 0)
(0.303678 -0.00699962 0)
(0.317258 -0.00609946 0)
(0.328808 -0.00495689 0)
(0.337935 -0.00363993 0)
(0.344329 -0.00223568 0)
(0.347512 -0.000920882 0)
(0.347377 0.000257821 0)
(0.344022 0.00177805 0)
(0.338837 0.0032113 0)
(0.331865 0.00427467 0)
(0.323446 0.00513165 0)
(0.313709 0.0057273 0)
(0.303263 0.00615351 0)
(0.292154 0.00653089 0)
(0.280488 0.00676488 0)
(0.268466 0.0069893 0)
(0.255903 0.00722904 0)
(0.242826 0.00744588 0)
(0.229128 0.00767487 0)
(0.214902 0.00787044 0)
(0.200073 0.0080439 0)
(0.184835 0.0081418 0)
(0.169284 0.00820193 0)
(0.153525 0.00817415 0)
(0.137712 0.00808682 0)
(0.121978 0.00796074 0)
(0.106434 0.00775779 0)
(0.0911801 0.00749579 0)
(0.0763829 0.00726207 0)
(0.0622017 0.0069231 0)
(0.0486083 0.00658255 0)
(0.0356706 0.00622431 0)
(0.0234919 0.00583122 0)
(0.0120991 0.00546332 0)
(0.0015249 0.00505049 0)
(-0.00822158 0.00462979 0)
(-0.0171477 0.00421878 0)
(-0.0252327 0.00381181 0)
(-0.0324953 0.00341195 0)
(-0.0389644 0.00300804 0)
(-0.044637 0.00262509 0)
(-0.049539 0.00224633 0)
(-0.0536689 0.00186206 0)
(-0.057034 0.00149419 0)
(-0.0596629 0.00112305 0)
(-0.0615815 0.000765081 0)
(-0.0627907 0.000416843 0)
(-0.063314 0.000119795 0)
(-0.0631838 -0.000230292 0)
(-0.0624164 -0.000521271 0)
(-0.0610496 -0.000817572 0)
(-0.0591117 -0.00111055 0)
(-0.0565984 -0.00137905 0)
(-0.0535519 -0.00164811 0)
(-0.0499801 -0.00191649 0)
(-0.0458796 -0.00219451 0)
(-0.0412274 -0.00242111 0)
(-0.0360374 -0.00275311 0)
(-0.0302645 -0.00303129 0)
(-0.0238707 -0.00334063 0)
(-0.016863 -0.00365548 0)
(-0.0091999 -0.00393737 0)
(-0.000934783 -0.00423345 0)
(0.00789752 -0.00453795 0)
(0.0172919 -0.00479842 0)
(0.0271848 -0.00507969 0)
(0.037626 -0.00533369 0)
(0.0486205 -0.00559863 0)
(0.0601175 -0.00586932 0)
(0.0721865 -0.00614821 0)
(0.0848424 -0.00644592 0)
(0.098088 -0.00673179 0)
(0.111919 -0.00702578 0)
(0.126343 -0.00732885 0)
(0.141372 -0.00759568 0)
(0.156967 -0.00787295 0)
(0.173109 -0.00813237 0)
(0.18971 -0.00832499 0)
(0.206659 -0.00847106 0)
(0.223843 -0.00851738 0)
(0.241079 -0.0085103 0)
(0.258163 -0.00836672 0)
(0.274865 -0.00813476 0)
(0.290971 -0.00779401 0)
(0.306265 -0.00732738 0)
(0.320515 -0.00675948 0)
(0.333505 -0.00607891 0)
(0.344998 -0.00529364 0)
(0.354806 -0.00440692 0)
(0.362745 -0.00343264 0)
(0.368648 -0.00238811 0)
(0.372368 -0.00128233 0)
(0.373793 -0.000151337 0)
(0.372949 0.00100974 0)
(0.369582 0.00221413 0)
(0.36396 0.00335804 0)
(0.356107 0.00443425 0)
(0.346131 0.00543657 0)
(0.334215 0.00634733 0)
(0.320585 0.00714022 0)
(0.305466 0.00780952 0)
(0.28915 0.00832113 0)
(0.271938 0.00870174 0)
(0.254116 0.00894651 0)
(0.235921 0.00904716 0)
(0.21763 0.00906395 0)
(0.19943 0.0089686 0)
(0.181503 0.00879297 0)
(0.163996 0.00853782 0)
(0.14706 0.00820494 0)
(0.130861 0.00780807 0)
(0.115569 0.00733108 0)
(0.101303 0.00679954 0)
(0.088183 0.00620054 0)
(0.0762878 0.00558403 0)
(0.0656687 0.0049649 0)
(0.0563086 0.00435002 0)
(0.0481424 0.00376406 0)
(0.0410972 0.00325929 0)
(0.0350272 0.00278279 0)
(0.0298705 0.00235979 0)
(0.0255208 0.00196759 0)
(0.0219203 0.00160177 0)
(0.0190299 0.00128796 0)
(0.0167345 0.000980834 0)
(0.0150122 0.000709379 0)
(0.013833 0.000474231 0)
(0.0131708 0.000209456 0)
(0.0130187 -2.27676e-05 0)
(0.0133069 -0.000235387 0)
(0.0139905 -0.000424221 0)
(0.0150333 -0.000578383 0)
(0.0163492 -0.000717162 0)
(0.0179248 -0.000828328 0)
(0.019715 -0.000932988 0)
(0.0217039 -0.00103406 0)
(0.0238713 -0.00111618 0)
(0.0261974 -0.00119459 0)
(0.0286985 -0.00128946 0)
(0.0313833 -0.00138811 0)
(0.0342949 -0.00151459 0)
(0.0374816 -0.00167265 0)
(0.041046 -0.00186565 0)
(0.0450512 -0.00210469 0)
(0.0495638 -0.00237457 0)
(0.0546506 -0.00267099 0)
(0.0603616 -0.00296434 0)
(0.0666783 -0.00328987 0)
(0.0736783 -0.00364571 0)
(0.0814073 -0.00400668 0)
(0.0899121 -0.00441975 0)
(0.099272 -0.0048486 0)
(0.109497 -0.00528248 0)
(0.120621 -0.00573187 0)
(0.132615 -0.00614934 0)
(0.145434 -0.00654032 0)
(0.159013 -0.00690369 0)
(0.173273 -0.00721009 0)
(0.188118 -0.00747901 0)
(0.203431 -0.00768474 0)
(0.2191 -0.00782968 0)
(0.234976 -0.00788512 0)
(0.250867 -0.0078387 0)
(0.266545 -0.00766895 0)
(0.281775 -0.00739574 0)
(0.29632 -0.00699385 0)
(0.309918 -0.00647067 0)
(0.322342 -0.00583203 0)
(0.333375 -0.00509025 0)
(0.342788 -0.00422105 0)
(0.350375 -0.00326617 0)
(0.355939 -0.00223348 0)
(0.359332 -0.00114249 0)
(0.360476 -3.41336e-05 0)
(0.359362 0.00110899 0)
(0.355828 0.0022715 0)
(0.350136 0.00335565 0)
(0.342309 0.00436584 0)
(0.332545 0.00526666 0)
(0.321084 0.00606307 0)
(0.308146 0.0067259 0)
(0.293998 0.00727406 0)
(0.278893 0.00766615 0)
(0.26311 0.00793935 0)
(0.246906 0.00810671 0)
(0.230496 0.00814506 0)
(0.214081 0.00809799 0)
(0.197878 0.00796234 0)
(0.182019 0.00775894 0)
(0.16664 0.00749176 0)
(0.15183 0.00719631 0)
(0.137639 0.00687907 0)
(0.124084 0.00655974 0)
(0.111182 0.00618192 0)
(0.0989848 0.00584814 0)
(0.0875364 0.00547373 0)
(0.0768338 0.00509329 0)
(0.0668969 0.00472049 0)
(0.057792 0.00433135 0)
(0.0495455 0.0039597 0)
(0.0420112 0.00358168 0)
(0.0352435 0.00320776 0)
(0.0291409 0.00285984 0)
(0.0237178 0.00249984 0)
(0.0189538 0.00215431 0)
(0.0148508 0.00180293 0)
(0.0114063 0.00144018 0)
(0.00874417 0.00107262 0)
(0.00676578 0.000718239 0)
(0.00565327 0.000333003 0)
(0.00536843 -2.17093e-05 0)
(0.00600223 -0.000375572 0)
(0.007625 -0.000730238 0)
(0.0100884 -0.00103462 0)
(0.0132569 -0.00136412 0)
(0.0174034 -0.00170709 0)
(0.0222213 -0.00194324 0)
(0.0275383 -0.00221545 0)
(0.0335924 -0.00242306 0)
(0.0398465 -0.00257528 0)
(0.0465474 -0.00276093 0)
(0.0535299 -0.00285628 0)
(0.0605482 -0.00297018 0)
(0.0678571 -0.003125 0)
(0.0753912 -0.00327336 0)
(0.0831374 -0.00346336 0)
(0.0913067 -0.00373139 0)
(0.0999565 -0.00404802 0)
(0.109285 -0.00445147 0)
(0.119347 -0.00485172 0)
(0.130258 -0.00538661 0)
(0.142131 -0.00588108 0)
(0.154945 -0.00645497 0)
(0.168781 -0.00698893 0)
(0.183522 -0.00743398 0)
(0.199103 -0.00793057 0)
(0.215488 -0.0082957 0)
(0.232452 -0.00848883 0)
(0.24979 -0.00870087 0)
(0.267286 -0.00866657 0)
(0.284635 -0.00858335 0)
(0.301554 -0.00827815 0)
(0.317748 -0.00779429 0)
(0.332896 -0.00723419 0)
(0.346705 -0.00649342 0)
(0.358928 -0.00561157 0)
(0.36931 -0.00465354 0)
(0.377645 -0.00358392 0)
(0.383775 -0.00243711 0)
(0.387553 -0.00123452 0)
(0.388919 1.29829e-07 0)
(0.387917 0.00120255 0)
(0.384272 0.0024192 0)
(0.378249 0.00359334 0)
(0.369939 0.00461457 0)
(0.359535 0.00564598 0)
(0.347229 0.00645205 0)
(0.333292 0.00724348 0)
(0.31795 0.00794679 0)
(0.301456 0.00833797 0)
(0.284138 0.00873486 0)
(0.266256 0.00901701 0)
(0.248073 0.00899837 0)
(0.229867 0.00900649 0)
(0.211851 0.00891246 0)
(0.194225 0.00859586 0)
(0.177159 0.00832603 0)
(0.160784 0.00789859 0)
(0.145192 0.00752812 0)
(0.130437 0.00712859 0)
(0.116559 0.00665092 0)
(0.103563 0.00623581 0)
(0.0914356 0.00582494 0)
(0.080157 0.00538613 0)
(0.0696916 0.00500426 0)
(0.0600049 0.00460874 0)
(0.0510578 0.00426084 0)
(0.042816 0.0039258 0)
(0.035252 0.00358392 0)
(0.0283412 0.00327048 0)
(0.0220664 0.0029618 0)
(0.0164178 0.0026459 0)
(0.0113884 0.00234177 0)
(0.00697714 0.00203067 0)
(0.00316175 0.00172734 0)
(6.67037e-06 0.00140538 0)
(-0.00249025 0.00109407 0)
(-0.00437282 0.000776312 0)
(-0.00562908 0.000453141 0)
(0.335452 0.00675765 0)
(0.326403 0.00780507 0)
(0.314339 0.00887114 0)
(0.300875 0.0098352 0)
(0.286226 0.0104637 0)
(0.270607 0.0111459 0)
(0.254217 0.011469 0)
(0.237283 0.0118538 0)
(0.220005 0.0120966 0)
(0.202591 0.0120012 0)
(0.185241 0.0119618 0)
(0.16813 0.0117957 0)
(0.151424 0.0113743 0)
(0.135263 0.011001 0)
(0.119772 0.0104343 0)
(0.105044 0.00991771 0)
(0.091155 0.00934902 0)
(0.0781582 0.00867594 0)
(0.0660762 0.00806139 0)
(0.0549167 0.00744323 0)
(0.0446687 0.0067946 0)
(0.0352959 0.00621419 0)
(0.0267531 0.00566519 0)
(0.0189829 0.00512895 0)
(0.0119019 0.00465641 0)
(0.00539397 0.00420241 0)
(-0.000340282 0.0038174 0)
(-0.00541993 0.00345868 0)
(-0.0101322 0.00311895 0)
(-0.0143813 0.00279944 0)
(-0.0181826 0.00248753 0)
(-0.0215411 0.00217644 0)
(-0.0244505 0.0018583 0)
(-0.0268964 0.00152746 0)
(-0.028857 0.00117575 0)
(-0.0303018 0.000800992 0)
(-0.0311944 0.000403336 0)
(-0.0315072 -1.84318e-05 0)
(-0.0311834 -0.000467257 0)
(-0.0301839 -0.00094668 0)
(-0.0284902 -0.0014332 0)
(-0.0260725 -0.00195324 0)
(-0.0228889 -0.00246252 0)
(-0.0189185 -0.00297704 0)
(-0.014139 -0.00354875 0)
(-0.00843815 -0.0040694 0)
(-0.00215533 -0.00464417 0)
(0.00472219 -0.00517606 0)
(0.0125358 -0.005697 0)
(0.0211029 -0.00618991 0)
(0.0304612 -0.00678576 0)
(0.0406264 -0.00727953 0)
(0.0515716 -0.00788379 0)
(0.0633535 -0.00840863 0)
(0.0758811 -0.00886942 0)
(0.0891642 -0.00946493 0)
(0.103267 -0.00997202 0)
(0.118077 -0.0103771 0)
(0.133571 -0.0109167 0)
(0.149746 -0.0112908 0)
(0.166507 -0.0116971 0)
(0.183773 -0.0119857 0)
(0.201424 -0.0121457 0)
(0.219288 -0.0122353 0)
(0.237191 -0.0121982 0)
(0.25493 -0.0119304 0)
(0.27218 -0.0115192 0)
(0.28865 -0.0108079 0)
(0.303899 -0.00982326 0)
(0.317538 -0.00856578 0)
(0.329153 -0.00697673 0)
(0.338332 -0.00513323 0)
(0.344753 -0.00316292 0)
(0.347952 -0.00130425 0)
(0.347792 0.000427451 0)
(0.344522 0.00252335 0)
(0.339426 0.00449899 0)
(0.332464 0.00597935 0)
(0.324064 0.00717777 0)
(0.314341 0.00801341 0)
(0.303919 0.00860906 0)
(0.292832 0.00913922 0)
(0.281189 0.00946754 0)
(0.269181 0.00978189 0)
(0.256628 0.0101192 0)
(0.243554 0.0104289 0)