/*--------------------------------*- C++ -*----------------------------------*\
| =========                 |                                                 |
| \\      /  F ield         | OpenFOAM: The Open Source CFD Toolbox           |
|  \\    /   O peration     | Version:  3.0.1                                 |
|   \\  /    A nd           | Web:      www.OpenFOAM.org                      |
|    \\/     M anipulation  |                                                 |
\*---------------------------------------------------------------------------*/
FoamFile
{
    version     2.0;
    format      ascii;
    class       surfaceScalarField;
    location    "37.2";
    object      phi;
}
// * * * * * * * * * * * * * * * * * * * * * * * * * * * * * * * * * * * * * //

dimensions      [0 3 -1 0 0 0 0];

internalField   nonuniform List<scalar> 
42423
(
-3.30797e-05
-1.06055e-05
-2.12146e-05
-1.18651e-05
-8.29039e-06
-1.29243e-05
5.57452e-06
-1.3865e-05
2.04681e-05
-1.48937e-05
3.60405e-05
-1.55724e-05
5.25094e-05
-1.6469e-05
6.95722e-05
-1.70628e-05
8.69347e-05
-1.73626e-05
0.00010472
-1.77857e-05
0.000122686
-1.79653e-05
0.00014047
-1.77844e-05
0.000158011
-1.75415e-05
0.000175001
-1.69895e-05
0.000191262
-1.62616e-05
0.000206511
-1.52483e-05
0.000220547
-1.4036e-05
0.000233092
-1.25459e-05
0.000243982
-1.08896e-05
0.000253005
-9.02265e-06
0.000259966
-6.961e-06
0.000264782
-4.81691e-06
0.000267284
-2.5013e-06
0.000267536
-2.52185e-07
0.000265468
2.06778e-06
0.000261119
4.34905e-06
0.000254608
6.51102e-06
0.000245989
8.61895e-06
0.000235529
1.04597e-05
0.000223428
1.21007e-05
0.000209683
1.37452e-05
0.000194794
1.48893e-05
0.000178802
1.59923e-05
0.000162073
1.67288e-05
0.00014485
1.72229e-05
0.0001272
1.765e-05
0.000109506
1.76937e-05
9.18497e-05
1.76564e-05
7.43817e-05
1.7468e-05
5.73188e-05
1.70628e-05
4.08576e-05
1.64612e-05
2.49457e-05
1.59119e-05
9.76326e-06
1.51824e-05
-4.71553e-06
1.44788e-05
-1.83724e-05
1.36569e-05
-3.1223e-05
1.28506e-05
-4.32344e-05
1.20114e-05
-5.44051e-05
1.11707e-05
-6.4764e-05
1.0359e-05
-7.4308e-05
9.544e-06
-8.30435e-05
8.73544e-06
-9.10303e-05
7.9868e-06
-9.82712e-05
7.24095e-06
-0.000104814
6.54298e-06
-0.000110659
5.8443e-06
-0.000115793
5.13402e-06
-0.000120265
4.4726e-06
-0.000124069
3.80431e-06
-0.000127206
3.13678e-06
-0.000129709
2.50279e-06
-0.000131523
1.81365e-06
-0.000132678
1.15497e-06
-0.000133174
4.9651e-07
-0.000132875
-2.99361e-07
-0.000131824
-1.05057e-06
-0.000130092
-1.73212e-06
-0.000127419
-2.67333e-06
-0.000124092
-3.32728e-06
-0.00011976
-4.33193e-06
-0.00011461
-5.14955e-06
-0.000108653
-5.95668e-06
-0.000101741
-6.91217e-06
-9.39758e-05
-7.76553e-06
-8.53641e-05
-8.61163e-06
-7.58217e-05
-9.5425e-06
-6.55851e-05
-1.02366e-05
-5.45448e-05
-1.10403e-05
-4.26384e-05
-1.19065e-05
-3.01224e-05
-1.25159e-05
-1.69894e-05
-1.31331e-05
-3.23244e-06
-1.3757e-05
1.10569e-05
-1.42894e-05
2.5834e-05
-1.47772e-05
4.11369e-05
-1.53029e-05
5.69279e-05
-1.57911e-05
7.32215e-05
-1.62936e-05
8.99624e-05
-1.67409e-05
0.00010717
-1.72079e-05
0.0001247
-1.75297e-05
0.000142377
-1.76769e-05
0.000159936
-1.75589e-05
0.00017704
-1.71042e-05
0.000193196
-1.61566e-05
0.000208142
-1.49455e-05
0.000221365
-1.32236e-05
0.000232543
-1.11778e-05
0.000241405
-8.86156e-06
0.000247789
-6.38478e-06
0.000251581
-3.79152e-06
0.000252758
-1.17719e-06
0.000251391
1.36646e-06
0.000247363
4.02833e-06
0.000240867
6.49608e-06
0.000232063
8.80391e-06
0.000221126
1.09368e-05
0.000208169
1.2957e-05
0.000193502
1.46674e-05
0.000177356
1.61454e-05
0.000159955
1.74015e-05
0.00014161
1.83451e-05
0.000122595
1.90143e-05
0.000103183
1.94125e-05
8.35789e-05
1.96038e-05
6.41186e-05
1.94603e-05
4.49857e-05
1.91329e-05
2.6329e-05
1.86567e-05
8.3866e-06
1.79424e-05
-8.76005e-06
1.71466e-05
-2.50832e-05
1.63231e-05
-4.03955e-05
1.53123e-05
-5.46833e-05
1.42878e-05
-6.7926e-05
1.32427e-05
-8.01014e-05
1.21754e-05
-9.12696e-05
1.11681e-05
-0.000101346
1.00765e-05
-0.000110412
9.066e-06
-0.000118538
8.12596e-06
-0.000125684
7.14591e-06
-0.000131907
6.22278e-06
-0.000137261
5.35426e-06
-0.000141835
4.57357e-06
-0.000145563
3.72843e-06
-0.000148517
2.9543e-06
-0.000150674
2.15662e-06
-0.000152124
1.4502e-06
-0.000152919
7.94548e-07
-0.000153001
8.24143e-08
-0.000152387
-6.14437e-07
-0.000151214
-1.17233e-06
-0.000149302
-1.9122e-06
-0.000146727
-2.57485e-06
-0.000143442
-3.28504e-06
-0.000139461
-3.98139e-06
-0.000134757
-4.70393e-06
-0.000129407
-5.34999e-06
-0.000123252
-6.15494e-06
-0.000116299
-6.95349e-06
-0.000108545
-7.75329e-06
-9.99203e-05
-8.62498e-06
-9.0404e-05
-9.51631e-06
-7.99912e-05
-1.04128e-05
-6.86111e-05
-1.13802e-05
-5.64335e-05
-1.21776e-05
-4.32435e-05
-1.31901e-05
-2.92323e-05
-1.40112e-05
-1.43065e-05
-1.49258e-05
1.38134e-06
-1.56879e-05
1.77833e-05
-1.64019e-05
3.47468e-05
-1.69635e-05
5.21936e-05
-1.74469e-05
6.99453e-05
-1.77518e-05
8.78128e-05
-1.78674e-05
0.000105621
-1.78078e-05
0.000123143
-1.75226e-05
0.000140136
-1.69928e-05
0.000156344
-1.62081e-05
0.000171501
-1.5157e-05
0.000185356
-1.38556e-05
0.000197649
-1.22921e-05
0.000208133
-1.04846e-05
0.000216501
-8.36798e-06
0.000222623
-6.12181e-06
0.000226326
-3.70359e-06
0.000227513
-1.18669e-06
0.000226189
1.32387e-06
0.000222295
3.89441e-06
0.000215933
6.36183e-06
0.000207168
8.76491e-06
0.000196289
1.08791e-05
0.000183482
1.28067e-05
0.000169034
1.44485e-05
0.000153206
1.58279e-05
0.000136299
1.69072e-05
0.000118568
1.77305e-05
0.000100261
1.83073e-05
8.1619e-05
1.86418e-05
6.289e-05
1.8729e-05
4.42906e-05
1.85995e-05
2.5918e-05
1.83726e-05
8.10852e-06
1.78094e-05
-9.13401e-06
1.72425e-05
-2.55778e-05
1.64438e-05
-4.11622e-05
1.55844e-05
-5.57989e-05
1.46367e-05
-6.94101e-05
1.36112e-05
-8.19396e-05
1.25296e-05
-9.35e-05
1.15604e-05
-0.00010395
1.04496e-05
-0.000113348
9.39884e-06
-0.000121701
8.35213e-06
-0.000129177
7.47657e-06
-0.000135688
6.51099e-06
-0.000141344
5.65581e-06
-0.000146172
4.82809e-06
-0.000150206
4.03402e-06
-0.000153497
3.29104e-06
-0.00015609
2.59248e-06
-0.000157987
1.89734e-06
-0.0001593
1.31295e-06
-0.000159975
6.7458e-07
-0.000160031
5.6963e-08
-0.000159508
-5.23821e-07
-0.000158337
-1.17033e-06
-0.000156678
-1.65889e-06
-0.000154281
-2.39734e-06
-0.000151386
-2.89489e-06
-0.000147767
-3.6188e-06
-0.000143487
-4.28004e-06
-0.000138478
-5.00896e-06
-0.000132779
-5.69928e-06
-0.000126318
-6.46094e-06
-0.000119025
-7.29324e-06
-0.000111034
-7.99134e-06
-0.000102112
-8.92141e-06
-9.2275e-05
-9.8373e-06
-8.14902e-05
-1.07848e-05
-6.9799e-05
-1.16913e-05
-5.7096e-05
-1.27029e-05
-4.35493e-05
-1.35467e-05
-2.90758e-05
-1.44736e-05
-1.37946e-05
-1.52812e-05
2.2469e-06
-1.60415e-05
1.89189e-05
-1.6672e-05
3.61858e-05
-1.72669e-05
5.38083e-05
-1.76225e-05
7.16879e-05
-1.78796e-05
8.95871e-05
-1.78993e-05
0.000107297
-1.77103e-05
0.000124584
-1.72868e-05
0.000141203
-1.6619e-05
0.000156832
-1.56284e-05
0.000171231
-1.43992e-05
0.000184134
-1.29031e-05
0.000195269
-1.11357e-05
0.000204424
-9.15483e-06
0.000211404
-6.97974e-06
0.000216067
-4.6627e-06
0.000218302
-2.23566e-06
0.000218122
1.7992e-07
0.000215478
2.64428e-06
0.000210331
5.14666e-06
0.000202867
7.46434e-06
0.000193261
9.60623e-06
0.000181709
1.15519e-05
0.00016843
1.32786e-05
0.000153671
1.47587e-05
0.000137659
1.60129e-05
0.000120675
1.69831e-05
0.000102929
1.77461e-05
8.47362e-05
1.81932e-05
6.62267e-05
1.85095e-05
4.77111e-05
1.85155e-05
2.93636e-05
1.83475e-05
1.14686e-05
1.7895e-05
-6.03835e-06
1.75069e-05
-2.27349e-05
1.66966e-05
-3.85618e-05
1.58269e-05
-5.3352e-05
1.47902e-05
-6.70547e-05
1.37026e-05
-7.95154e-05
1.24608e-05
-9.07082e-05
1.11928e-05
-0.000100584
9.87598e-06
-0.000109239
8.65505e-06
-0.000116678
7.43831e-06
-0.000123007
6.3291e-06
-0.000128197
5.19004e-06
-0.000132325
4.12798e-06
-0.000135502
3.17771e-06
-0.000137802
2.29974e-06
-0.000139337
1.53514e-06
-0.00014035
1.01312e-06
-0.000140771
4.20911e-07
-0.000140607
-1.64661e-07
-0.000140062
-5.44257e-07
-0.00013909
-9.72236e-07
-0.000137828
-1.26202e-06
-0.00013641
-1.41798e-06
-0.000134648
-1.76193e-06
-0.000132607
-2.04122e-06
-0.00013011
-2.49741e-06
-0.000127077
-3.03273e-06
-0.000123499
-3.57778e-06
-0.000119196
-4.30301e-06
-0.000114149
-5.04691e-06
-0.000108363
-5.78618e-06
-0.000101621
-6.7418e-06
-9.40081e-05
-7.61321e-06
-8.55118e-05
-8.49623e-06
-7.59079e-05
-9.60394e-06
-6.5418e-05
-1.04899e-05
-5.37923e-05
-1.16257e-05
-4.11072e-05
-1.26851e-05
-2.76593e-05
-1.3448e-05
-1.30514e-05
-1.46079e-05
2.58598e-06
-1.56374e-05
1.89081e-05
-1.63221e-05
3.60856e-05
-1.71776e-05
5.37494e-05
-1.76637e-05
7.18894e-05
-1.81401e-05
9.02565e-05
-1.83671e-05
0.000108442
-1.8186e-05
0.000126353
-1.79103e-05
0.00014375
-1.73975e-05
0.000160211
-1.64607e-05
0.000175671
-1.54599e-05
0.000189778
-1.41075e-05
0.000202435
-1.26574e-05
0.000213438
-1.10024e-05
0.000222567
-9.12916e-06
0.000229701
-7.13445e-06
0.000234791
-5.08927e-06
0.00023766
-2.86938e-06
0.000238364
-7.04172e-07
0.000236856
1.5078e-06
0.000233131
3.72559e-06
0.000227377
5.75356e-06
0.000219513
7.86456e-06
0.000209869
9.64323e-06
0.000198554
1.13152e-05
0.000185714
1.28401e-05
0.000171554
1.416e-05
0.000156426
1.51279e-05
0.000140308
1.61178e-05
0.00012351
1.67978e-05
0.000106341
1.71698e-05
8.88701e-05
1.74705e-05
7.14033e-05
1.74668e-05
5.39279e-05
1.74754e-05
3.68146e-05
1.71133e-05
1.99834e-05
1.68311e-05
3.74956e-06
1.62339e-05
-1.19539e-05
1.57035e-05
-2.69573e-05
1.50034e-05
-4.11476e-05
1.41902e-05
-5.45111e-05
1.33636e-05
-6.69735e-05
1.24624e-05
-7.84885e-05
1.1515e-05
-8.90535e-05
1.05649e-05
-9.86447e-05
9.5912e-06
-0.000107244
8.59901e-06
-0.000114862
7.61791e-06
-0.000121496
6.63441e-06
-0.000127195
5.69912e-06
-0.000131955
4.75994e-06
-0.000135815
3.86007e-06
-0.000138805
2.99024e-06
2.11043e-06
-3.31154e-05
-2.12121e-05
-2.12516e-05
-2.37291e-05
-8.33221e-06
-2.58438e-05
5.53787e-06
-2.77351e-05
2.04336e-05
-2.97896e-05
3.60142e-05
-3.11531e-05
5.2488e-05
-3.29429e-05
6.95532e-05
-3.41281e-05
8.69239e-05
-3.47334e-05
0.000104722
-3.55834e-05
0.000122698
-3.5942e-05
0.000140502
-3.5588e-05
0.000158057
-3.50972e-05
0.000175072
-3.40048e-05
0.000191345
-3.25346e-05
0.000206592
-3.0495e-05
0.00022063
-2.80743e-05
0.000233186
-2.51021e-05
0.000244091
-2.17943e-05
0.000253118
-1.80496e-05
0.000260095
-1.39379e-05
0.000264917
-9.63906e-06
0.000267415
-4.99923e-06
0.000267659
-4.96318e-07
0.000265582
4.14481e-06
0.000261234
8.69644e-06
0.000254721
1.30245e-05
0.000246089
1.72504e-05
0.000235623
2.09262e-05
0.000223508
2.42153e-05
0.000209758
2.74952e-05
0.000194857
2.97901e-05
0.000178852
3.19973e-05
0.000162116
3.34649e-05
0.000144878
3.4461e-05
0.00012722
3.5308e-05
0.000109518
3.53956e-05
9.18541e-05
3.532e-05
7.43766e-05
3.49455e-05
5.73106e-05
3.41288e-05
4.08429e-05
3.29288e-05
2.49215e-05
3.18334e-05
9.73238e-06
3.03715e-05
-4.74253e-06
2.89537e-05
-1.84031e-05
2.73174e-05
-3.12562e-05
2.57037e-05
-4.32727e-05
2.40278e-05
-5.44459e-05
2.2344e-05
-6.48045e-05
2.07176e-05
-7.43466e-05
1.90861e-05
-8.30854e-05
1.74743e-05
-9.10756e-05
1.59769e-05
-9.83204e-05
1.44858e-05
-0.000104864
1.30871e-05
-0.000110713
1.16925e-05
-0.000115833
1.02546e-05
-0.000120308
8.94723e-06
-0.000124114
7.61081e-06
-0.000127251
6.2736e-06
-0.000129766
5.01733e-06
-0.000131573
3.62115e-06
-0.000132728
2.30976e-06
-0.000133228
9.96781e-07
-0.000132929
-5.98514e-07
-0.000131878
-2.10132e-06
-0.000130149
-3.462e-06
-0.000127477
-5.34526e-06
-0.000124154
-6.65013e-06
-0.000119819
-8.66697e-06
-0.000114666
-1.03022e-05
-0.000108716
-1.19073e-05
-0.000101805
-1.38227e-05
-9.40276e-05
-1.55431e-05
-8.54208e-05
-1.72184e-05
-7.58705e-05
-1.90928e-05
-6.56235e-05
-2.04837e-05
-5.45754e-05
-2.20885e-05
-4.26661e-05
-2.38159e-05
-3.01392e-05
-2.50429e-05
-1.69976e-05
-2.62748e-05
-3.23021e-06
-2.75244e-05
1.10743e-05
-2.85939e-05
2.58704e-05
-2.95733e-05
4.11885e-05
-3.06211e-05
5.69942e-05
-3.15969e-05
7.32996e-05
-3.25991e-05
9.00474e-05
-3.34888e-05
0.000107262
-3.44227e-05
0.000124805
-3.50723e-05
0.000142496
-3.53683e-05
0.000160057
-3.51197e-05
0.000177164
-3.42117e-05
0.000193318
-3.23105e-05
0.000208266
-2.98936e-05
0.000221485
-2.64427e-05
0.000232666
-2.23585e-05
0.000241523
-1.77192e-05
0.000247907
-1.27683e-05
0.000251702
-7.58707e-06
0.00025288
-2.3552e-06
0.000251516
2.73046e-06
0.000247458
8.08614e-06
0.000240957
1.29968e-05
0.000232154
1.76072e-05
0.000221219
2.18724e-05
0.000208249
2.59268e-05
0.000193578
2.93378e-05
0.00017742
3.23032e-05
0.000160008
3.48144e-05
0.000141637
3.67155e-05
0.000122609
3.80428e-05
0.000103184
3.88369e-05
8.35853e-05
3.92026e-05
6.41103e-05
3.89353e-05
4.49612e-05
3.82821e-05
2.62933e-05
3.73245e-05
8.36626e-06
3.58694e-05
-8.81759e-06
3.43305e-05
-2.51467e-05
3.26523e-05
-4.04583e-05
3.06239e-05
-5.47526e-05
2.85821e-05
-6.79996e-05
2.64898e-05
-8.01824e-05
2.43582e-05
-9.13479e-05
2.23336e-05
-0.00010143
2.01589e-05
-0.000110504
1.81397e-05
-0.000118622
1.62445e-05
-0.000125764
1.42877e-05
-0.000131986
1.24444e-05
-0.000137381
1.07494e-05
-0.000141932
9.1245e-06
-0.000145655
7.45121e-06
-0.000148614
5.91397e-06
-0.000150777
4.31978e-06
-0.000152203
2.87592e-06
-0.000153019
1.60987e-06
-0.000153109
1.72989e-07
-0.000152492
-1.23172e-06
-0.000151314
-2.34998e-06
-0.000149405
-3.82156e-06
-0.00014683
-5.14981e-06
-0.00014355
-6.56448e-06
-0.000139571
-7.9612e-06
-0.00013486
-9.41484e-06
-0.000129515
-1.06947e-05
-0.000123366
-1.23037e-05
-0.000116391
-1.39287e-05
-0.000108671
-1.54736e-05
-0.000100046
-1.725e-05
-9.05232e-05
-1.9039e-05
-8.01057e-05
-2.08303e-05
-6.87171e-05
-2.27688e-05
-5.65435e-05
-2.43513e-05
-4.33598e-05
-2.63737e-05
-2.93356e-05
-2.80354e-05
-1.43997e-05
-2.98618e-05
1.29745e-06
-3.13851e-05
1.77119e-05
-3.28165e-05
3.4675e-05
-3.39266e-05
5.2147e-05
-3.4919e-05
6.988e-05
-3.54848e-05
8.77755e-05
-3.5763e-05
0.000105582
-3.56146e-05
0.000123124
-3.50641e-05
0.000140126
-3.39958e-05
0.000156357
-3.24387e-05
0.000171529
-3.03287e-05
0.000185399
-2.77257e-05
0.000197712
-2.46057e-05
0.000208203
-2.09756e-05
0.000216583
-1.67474e-05
0.000222712
-1.22517e-05
0.000226424
-7.41531e-06
0.000227625
-2.38802e-06
0.000226283
2.66618e-06
0.000222388
7.78964e-06
0.000216027
1.27222e-05
0.000207257
1.7535e-05
0.000196369
2.1767e-05
0.000183557
2.5619e-05
0.000169096
2.89096e-05
0.000153251
3.16728e-05
0.00013633
3.38277e-05
0.000118591
3.54696e-05
0.000100277
3.66219e-05
8.16301e-05
3.72882e-05
6.28803e-05
3.74788e-05
4.42685e-05
3.72112e-05
2.58863e-05
3.67547e-05
8.0737e-06
3.56221e-05
-9.1771e-06
3.44933e-05
-2.56296e-05
3.28963e-05
-4.12177e-05
3.11725e-05
-5.58672e-05
2.92862e-05
-6.94876e-05
2.72316e-05
-8.20287e-05
2.50707e-05
-9.35795e-05
2.31112e-05
-0.000104032
2.09018e-05
-0.00011344
1.88068e-05
-0.00012179
1.67024e-05
-0.000129266
1.49527e-05
-0.000135781
1.30261e-05
-0.000141432
1.13066e-05
-0.000146257
9.6535e-06
-0.000150296
8.07249e-06
-0.00015359
6.58482e-06
-0.000156185
5.18775e-06
-0.000158098
3.81043e-06
-0.000159399
2.61413e-06
-0.000160065
1.34023e-06
-0.000160123
1.15435e-07
-0.000159597
-1.05063e-06
-0.000158455
-2.31168e-06
-0.000156777
-3.33762e-06
-0.000154403
-4.77058e-06
-0.000151486
-5.81194e-06
-0.000147878
-7.22677e-06
-0.0001436
-8.55837e-06
-0.00013859
-1.00194e-05
-0.000132868
-1.14206e-05
-0.000126426
-1.29033e-05
-0.000119153
-1.45667e-05
-0.000111141
-1.60026e-05
-0.000102226
-1.78367e-05
-9.23924e-05
-1.96709e-05
-8.16156e-05
-2.15616e-05
-6.98965e-05
-2.34104e-05
-5.72254e-05
-2.53741e-05
-4.36586e-05
-2.71135e-05
-2.91721e-05
-2.89601e-05
-1.38851e-05
-3.05683e-05
2.15015e-06
-3.20768e-05
1.88353e-05
-3.33572e-05
3.60951e-05
-3.45269e-05
5.37405e-05
-3.52679e-05
7.1628e-05
-3.57671e-05
8.9551e-05
-3.58224e-05
0.000107275
-3.54342e-05
0.000124572
-3.45839e-05
0.000141211
-3.32581e-05
0.00015685
-3.12673e-05
0.00017127
-2.88191e-05
0.000184181
-2.58144e-05
0.000195335
-2.229e-05
0.000204506
-1.83255e-05
0.000211491
-1.39653e-05
0.00021616
-9.33116e-06
0.000218409
-4.48525e-06
0.000218225
3.64213e-07
0.000215569
5.30037e-06
0.000210443
1.02719e-05
0.000202947
1.49608e-05
0.000193335
1.92185e-05
0.000181785
2.31019e-05
0.000168494
2.6569e-05
0.00015375
2.95029e-05
0.000137707
3.20554e-05
0.000120717
3.39734e-05
0.000102951
3.55125e-05
8.47333e-05
3.64105e-05
6.62267e-05
3.70161e-05
4.77038e-05
3.70385e-05
2.93516e-05
3.66998e-05
1.14534e-05
3.57932e-05
-6.0631e-06
3.50234e-05
-2.27681e-05
3.34016e-05
-3.86022e-05
3.1661e-05
-5.34039e-05
2.95919e-05
-6.71136e-05
2.74124e-05
-7.9578e-05
2.49251e-05
-9.07771e-05
2.23919e-05
-0.000100659
1.97584e-05
-0.000109323
1.7319e-05
-0.000116781
1.48956e-05
-0.00012313
1.26786e-05
-0.000128332
1.03916e-05
-0.000132467
8.26333e-06
-0.000135651
6.36162e-06
-0.00013797
4.61826e-06
-0.000139518
3.08307e-06
-0.000140504
1.99961e-06
-0.000140905
8.21564e-07
-0.000140733
-3.36562e-07
-0.000140181
-1.09567e-06
-0.000139206
-1.94752e-06
-0.000137936
-2.53196e-06
-0.000136513
-2.84132e-06
-0.000134747
-3.5283e-06
-0.0001327
-4.08806e-06
-0.000130199
-4.99795e-06
-0.000127163
-6.06861e-06
-0.000123581
-7.15977e-06
-0.000119276
-8.60868e-06
-0.000114228
-1.00944e-05
-0.000108437
-1.15775e-05
-0.000101693
-1.34853e-05
-9.40806e-05
-1.5226e-05
-8.55808e-05
-1.69961e-05
-7.59812e-05
-1.92035e-05
-6.54823e-05
-2.09888e-05
-5.3858e-05
-2.325e-05
-4.11654e-05
-2.53778e-05
-2.77168e-05
-2.68967e-05
-1.31022e-05
-2.92225e-05
2.52458e-06
-3.12643e-05
1.88423e-05
-3.26399e-05
3.60195e-05
-3.43549e-05
5.36844e-05
-3.53287e-05
7.18294e-05
-3.62851e-05
9.02036e-05
-3.67413e-05
0.000108399
-3.63815e-05
0.000126326
-3.58369e-05
0.000143742
-3.48144e-05
0.000160221
-3.2939e-05
0.000175687
-3.09262e-05
0.000189817
-2.82371e-05
0.000202495
-2.5336e-05
0.000213514
-2.20218e-05
0.000222661
-1.82754e-05
0.000229797
-1.42707e-05
0.000234894
-1.01868e-05
0.000237767
-5.7425e-06
0.000238475
-1.41197e-06
0.000236959
3.02418e-06
0.000233232
7.45219e-06
0.000227475
1.1511e-05
0.000219606
1.57332e-05
0.000209953
1.92961e-05
0.000198635
2.26327e-05
0.00018578
2.56953e-05
0.000171617
2.83236e-05
0.000156472
3.0272e-05
0.000140349
3.22411e-05
0.00012354
3.36066e-05
0.000106362
3.43476e-05
8.88823e-05
3.49505e-05
7.14083e-05
3.49409e-05
5.39239e-05
3.49598e-05
3.68054e-05
3.42317e-05
1.99665e-05
3.367e-05
3.72933e-06
3.2471e-05
-1.19795e-05
3.14122e-05
-2.69889e-05
3.00128e-05
-4.11831e-05
2.83845e-05
-5.45489e-05
2.67293e-05
-6.7014e-05
2.49275e-05
-7.85311e-05
2.30321e-05
-8.90983e-05
2.11321e-05
-9.86881e-05
1.9181e-05
-0.000107286
1.71973e-05
-0.000114903
1.52342e-05
-0.000121536
1.32677e-05
-0.000127232
1.13953e-05
-0.000131992
9.51987e-06
-0.000135852
7.71977e-06
-0.000138841
5.97978e-06
4.21724e-06
-3.31857e-05
-3.1822e-05
-2.1324e-05
-3.55909e-05
-8.41549e-06
-3.87524e-05
5.47311e-06
-4.16238e-05
2.03789e-05
-4.46954e-05
3.59707e-05
-4.67449e-05
5.24621e-05
-4.94344e-05
6.95511e-05
-5.12173e-05
8.69408e-05
-5.21232e-05
0.000104761
-5.34041e-05
0.000122753
-5.39334e-05
0.000140577
-5.34122e-05
0.000158149
-5.26689e-05
0.000175172
-5.10279e-05
0.000191471
-4.88341e-05
0.000206755
-4.57791e-05
0.000220809
-4.21279e-05
0.000233367
-3.76602e-05
0.000244288
-3.27154e-05
0.000253328
-2.70898e-05
0.000260306
-2.09159e-05
0.000265144
-1.44775e-05
0.000267652
-7.50753e-06
0.000267866
-7.10362e-07
0.000265748
6.26315e-06
0.000261402
1.30427e-05
0.000254887
1.95386e-05
0.000246231
2.59064e-05
0.000235754
3.14032e-05
0.000223615
3.63544e-05
0.000209862
4.12485e-05
0.000194939
4.47127e-05
0.000178913
4.80231e-05
0.000162169
5.02093e-05
0.000144901
5.17293e-05
0.00012723
5.29784e-05
0.000109513
5.31124e-05
9.18376e-05
5.29956e-05
7.43441e-05
5.2439e-05
5.72771e-05
5.11958e-05
4.0796e-05
4.94099e-05
2.48579e-05
4.77714e-05
9.65776e-06
4.55717e-05
-4.80851e-06
4.342e-05
-1.8472e-05
4.09809e-05
-3.13262e-05
3.85579e-05
-4.33444e-05
3.6046e-05
-5.45146e-05
3.35143e-05
-6.48738e-05
3.10767e-05
-7.44141e-05
2.86264e-05
-8.31528e-05
2.62129e-05
-9.11438e-05
2.39679e-05
-9.83888e-05
2.17308e-05
-0.000104928
1.96262e-05
-0.000110765
1.75291e-05
-0.000115877
1.53669e-05
-0.000120352
1.34222e-05
-0.000124161
1.14196e-05
-0.000127297
9.41015e-06
-0.000129819
7.53953e-06
-0.00013162
5.42202e-06
-0.000132774
3.46312e-06
-0.000133276
1.49907e-06
-0.000132983
-8.91426e-07
-0.000131935
-3.14935e-06
-0.00013021
-5.18718e-06
-0.000127537
-8.01768e-06
-0.000124218
-9.96934e-06
-0.000119885
-1.30003e-05
-0.00011473
-1.54575e-05
-0.000108784
-1.78531e-05
-0.000101874
-2.07326e-05
-9.40832e-05
-2.33339e-05
-8.54852e-05
-2.58165e-05
-7.59333e-05
-2.86448e-05
-6.5672e-05
-3.07451e-05
-5.46138e-05
-3.31467e-05
-4.26974e-05
-3.57323e-05
-3.01561e-05
-3.75842e-05
-1.70073e-05
-3.94237e-05
-3.2251e-06
-4.13067e-05
1.11048e-05
-4.29239e-05
2.59169e-05
-4.43855e-05
4.12583e-05
-4.59626e-05
5.7084e-05
-4.74226e-05
7.34056e-05
-4.89208e-05
9.0175e-05
-5.02583e-05
0.000107401
-5.16491e-05
0.000124947
-5.26175e-05
0.000142643
-5.30652e-05
0.000160219
-5.26957e-05
0.000177342
-5.13343e-05
0.000193505
-4.84738e-05
0.000208469
-4.4858e-05
0.000221681
-3.96543e-05
0.000232861
-3.35391e-05
0.000241707
-2.65646e-05
0.000248084
-1.91461e-05
0.000251881
-1.13837e-05
0.000253051
-3.5256e-06
0.000251627
4.15497e-06
0.000247577
1.21361e-05
0.000241067
1.95069e-05
0.000232243
2.64309e-05
0.000221259
3.28559e-05
0.000208311
3.88746e-05
0.000193641
4.4008e-05
0.000177447
4.84972e-05
0.000160026
5.2236e-05
0.000141621
5.51199e-05
0.000122571
5.70932e-05
0.000103114
5.82939e-05
8.35089e-05
5.88075e-05
6.40156e-05
5.84286e-05
4.48425e-05
5.74551e-05
2.61659e-05
5.60012e-05
8.2376e-06
5.37977e-05
-8.96476e-06
5.15329e-05
-2.53022e-05
4.89897e-05
-4.06196e-05
4.59413e-05
-5.49203e-05
4.28828e-05
-6.81627e-05
3.97321e-05
-8.0361e-05
3.65566e-05
-9.15098e-05
3.34823e-05
-0.000101587
3.02358e-05
-0.000110662
2.72146e-05
-0.000118778
2.43605e-05
-0.000125923
2.14326e-05
-0.000132138
1.86596e-05
-0.000137553
1.6165e-05
-0.000142079
1.36496e-05
-0.000145795
1.1168e-05
-0.000148757
8.87556e-06
-0.000150914
6.47652e-06
-0.000152342
4.3041e-06
-0.000153161
2.42874e-06
-0.000153247
2.5955e-07
-0.000152617
-1.86185e-06
-0.000151444
-3.52368e-06
-0.00014954
-5.72484e-06
-0.000146972
-7.71809e-06
-0.000143683
-9.85371e-06
-0.000139702
-1.19417e-05
-0.000134997
-1.41203e-05
-0.000129657
-1.60341e-05
-0.000123514
-1.84473e-05
-0.000116503
-2.09398e-05
-0.00010882
-2.31564e-05
-0.000100199
-2.58708e-05
-9.06757e-05
-2.85626e-05
-8.02611e-05
-3.1245e-05
-6.88702e-05
-3.41597e-05
-5.67013e-05
-3.65203e-05
-4.35197e-05
-3.95553e-05
-2.94855e-05
-4.20697e-05
-1.45169e-05
-4.48304e-05
1.15625e-06
-4.70584e-05
1.75913e-05
-4.92516e-05
3.45633e-05
-5.08986e-05
5.20383e-05
-5.23941e-05
6.97904e-05
-5.3237e-05
8.77214e-05
-5.3694e-05
0.000105541
-5.34339e-05
0.000123105
-5.26281e-05
0.000140125
-5.10166e-05
0.000156404
-4.87173e-05
0.000171592
-4.5517e-05
0.000185477
-4.1611e-05
0.000197822
-3.69506e-05
0.000208305
-3.14588e-05
0.000216713
-2.5155e-05
0.000222858
-1.83975e-05
0.000226577
-1.11335e-05
0.000227792
-3.60385e-06
0.000226406
4.05229e-06
0.000222502
1.1694e-05
0.000216125
1.90986e-05
0.000207354
2.63064e-05
0.000196453
3.26674e-05
0.000183615
3.84572e-05
0.000169124
4.34009e-05
0.000153257
4.75392e-05
0.000136326
5.07595e-05
0.000118565
5.32307e-05
0.000100221
5.4965e-05
8.15568e-05
5.59527e-05
6.27887e-05
5.62469e-05
4.4137e-05
5.58629e-05
2.5767e-05
5.51247e-05
7.91253e-06
5.34766e-05
-9.30054e-06
5.17064e-05
-2.57936e-05
4.93894e-05
-4.13822e-05
4.6761e-05
-5.60274e-05
4.39313e-05
-6.96481e-05
4.08523e-05
-8.22093e-05
3.76319e-05
-9.37411e-05
3.46429e-05
-0.000104189
3.13503e-05
-0.000113597
2.82142e-05
-0.000121967
2.50727e-05
-0.000129417
2.24026e-05
-0.000135939
1.95476e-05
-0.000141578
1.69463e-05
-0.000146397
1.44719e-05
-0.000150436
1.21115e-05
-0.000153727
9.87551e-06
-0.000156313
7.77412e-06
-0.000158238
5.73553e-06
-0.000159532
3.90828e-06
-0.000160198
2.0061e-06
-0.000160249
1.65919e-07
-0.00015971
-1.58875e-06
-0.00015858
-3.4425e-06
-0.000156895
-5.02267e-06
-0.000154564
-7.10101e-06
-0.000151613
-8.76317e-06
-0.000148024
-1.08156e-05
-0.00014374
-1.28423e-05
-0.000138733
-1.50268e-05
-0.000132982
-1.7171e-05
-0.000126573
-1.93128e-05
-0.000119302
-2.18375e-05
-0.000111283
-2.40215e-05
-0.000102384
-2.67362e-05
-9.25443e-05
-2.95105e-05
-8.17757e-05
-3.23302e-05
-7.00397e-05
-3.51465e-05
-5.73921e-05
-3.80218e-05
-4.38041e-05
-4.07016e-05
-2.93044e-05
-4.34598e-05
-1.40057e-05
-4.58671e-05
2.02449e-06
-4.8107e-05
1.87174e-05
-5.00501e-05
3.59788e-05
-5.17884e-05
5.36483e-05
-5.29375e-05
7.15578e-05
-5.36766e-05
8.94958e-05
-5.37605e-05
0.000107255
-5.31929e-05
0.000124573
-5.19021e-05
0.000141233
-4.99187e-05
0.000156902
-4.69361e-05
0.000171345
-4.32622e-05
0.000184279
-3.87488e-05
0.000195449
-3.346e-05
0.000204627
-2.75037e-05
0.000211631
-2.09686e-05
0.000216306
-1.40068e-05
0.000218556
-6.73466e-06
0.000218351
5.68818e-07
0.00021568
7.97106e-06
0.000210536
1.54158e-05
0.000203041
2.24557e-05
0.000193416
2.88438e-05
0.000181849
3.46685e-05
0.000168541
3.9877e-05
0.000153784
4.42601e-05
0.000137715
4.81246e-05
0.000120701
5.09871e-05
0.000102917
5.32966e-05
8.46698e-05
5.46576e-05
6.61671e-05
5.55187e-05
4.76364e-05
5.55692e-05
2.92832e-05
5.5053e-05
1.13466e-05
5.37298e-05
-6.13948e-06
5.25094e-05
-2.284e-05
5.01021e-05
-3.8672e-05
4.7493e-05
-5.34703e-05
4.43902e-05
-6.71823e-05
4.11243e-05
-7.96517e-05
3.73945e-05
-9.08579e-05
3.35981e-05
-0.00010075
2.96502e-05
-0.000109428
2.59969e-05
-0.000116903
2.23714e-05
-0.000123272
1.9047e-05
-0.0001285
1.56194e-05
-0.000132677
1.2441e-05
-0.000135909
9.59334e-06
-0.000138278
6.98689e-06
-0.000139835
4.6405e-06
-0.000140756
2.92011e-06
-0.000141093
1.15911e-06
-0.000140896
-5.34126e-07
-0.000140338
-1.65309e-06
-0.000139353
-2.93272e-06
-0.00013807
-3.81447e-06
-0.000136639
-4.27258e-06
-0.000134866
-5.30115e-06
-0.000132815
-6.13981e-06
-0.000130309
-7.50373e-06
-0.000127267
-9.11026e-06
-0.00012368
-1.07466e-05
-0.000119372
-1.29172e-05
-0.000114322
-1.51446e-05
-0.000108524
-1.73748e-05
-0.000101782
-2.02276e-05
-9.4172e-05
-2.2836e-05
-8.56632e-05
-2.5505e-05
-7.60732e-05
-2.87935e-05
-6.5564e-05
-3.14981e-05
-5.3945e-05
-3.4869e-05
-4.12421e-05
-3.80807e-05
-2.77966e-05
-4.03422e-05
-1.31751e-05
-4.3844e-05
2.44426e-06
-4.68837e-05
1.87594e-05
-4.89551e-05
3.59382e-05
-5.15338e-05
5.3612e-05
-5.30025e-05
7.17659e-05
-5.44391e-05
9.01536e-05
-5.51291e-05
0.000108364
-5.4592e-05
0.000126307
-5.37799e-05
0.000143749
-5.22566e-05
0.000160251
-4.94406e-05
0.000175749
-4.6425e-05
0.000189901
-4.23891e-05
0.000202606
-3.80409e-05
0.000213649
-3.30645e-05
0.000222814
-2.74404e-05
0.000229968
-2.14246e-05
0.000235081
-1.53e-05
0.000237965
-8.62672e-06
0.000238667
-2.1139e-06
0.000237121
4.56954e-06
0.000233393
1.11805e-05
0.000227625
1.72793e-05
0.000219749
2.36093e-05
0.000210078
2.89666e-05
0.000198761
3.39499e-05
0.000185875
3.8581e-05
0.000171711
4.24881e-05
0.000156533
4.54492e-05
0.000140403
4.83718e-05
0.000123576
5.0433e-05
0.000106385
5.1539e-05
8.88894e-05
5.24459e-05
7.14031e-05
5.24271e-05
5.39046e-05
5.24582e-05
3.67783e-05
5.13581e-05
1.99289e-05
5.05194e-05
3.68676e-06
4.87131e-05
-1.20394e-05
4.71384e-05
-2.70551e-05
4.50285e-05
-4.12544e-05
4.25837e-05
-5.46247e-05
4.00996e-05
-6.70914e-05
3.73942e-05
-7.86099e-05
3.45506e-05
-8.91786e-05
3.17008e-05
-9.87666e-05
2.8769e-05
-0.000107365
2.57957e-05
-0.000114979
2.28481e-05
-0.00012161
1.98991e-05
-0.000127305
1.70902e-05
-0.000132062
1.42765e-05
-0.000135919
1.15768e-05
-0.000138913
8.97384e-06
6.31713e-06
-3.32915e-05
-4.24364e-05
-2.14327e-05
-4.74498e-05
-8.54227e-06
-5.16429e-05
5.37645e-06
-5.55427e-05
2.02961e-05
-5.96151e-05
3.591e-05
-6.2359e-05
5.24271e-05
-6.59516e-05
6.95437e-05
-6.8334e-05
8.69651e-05
-6.95447e-05
0.000104818
-7.12568e-05
0.000122837
-7.19528e-05
0.000140694
-7.12695e-05
0.000158294
-7.02689e-05
0.000175346
-6.80797e-05
0.00019168
-6.5168e-05
0.000206991
-6.10905e-05
0.000221068
-5.62049e-05
0.000233651
-5.02431e-05
0.000244587
-4.36518e-05
0.00025364
-3.61424e-05
0.000260636
-2.79127e-05
0.000265483
-1.93241e-05
0.000267985
-1.00099e-05
0.000268166
-8.91643e-07
0.000266002
8.4279e-06
0.000261655
1.73889e-05
0.000255142
2.60517e-05
0.000246446
3.46024e-05
0.000235952
4.18973e-05
0.000223779
4.85274e-05
0.000210019
5.5008e-05
0.000195062
5.96699e-05
0.000179006
6.40796e-05
0.000162252
6.69625e-05
0.000144936
6.90456e-05
0.000127246
7.06684e-05
0.000109506
7.08523e-05
9.18127e-05
7.06891e-05
7.42962e-05
6.99555e-05
5.72295e-05
6.82625e-05
4.07257e-05
6.59136e-05
2.47644e-05
6.37327e-05
9.54997e-06
6.07862e-05
-4.90741e-06
5.78773e-05
-1.8577e-05
5.46504e-05
-3.14324e-05
5.14133e-05
-4.34548e-05
4.80683e-05
-5.46229e-05
4.46823e-05
-6.49822e-05
4.1436e-05
-7.45184e-05
3.81627e-05
-8.32535e-05
3.4948e-05
-9.12422e-05
3.19567e-05
-9.8491e-05
2.89795e-05
-0.000105023
2.61581e-05
-0.000110831
2.33376e-05
-0.000115946
2.04818e-05
-0.000120421
1.78969e-05
-0.000124229
1.52279e-05
-0.000127363
1.25436e-05
-0.000129887
1.00641e-05
-0.000131688
7.22253e-06
-0.000132842
4.61706e-06
-0.000133357
2.01397e-06
-0.000133069
-1.17955e-06
-0.000132022
-4.19635e-06
-0.000130303
-6.90592e-06
-0.00012763
-1.06906e-05
-0.000124317
-1.3282e-05
-0.000119986
-1.73318e-05
-0.000114823
-2.06199e-05
-0.000108888
-2.3789e-05
-0.000101985
-2.76354e-05
-9.41728e-05
-3.11461e-05
-8.5586e-05
-3.44033e-05
-7.60246e-05
-3.82063e-05
-6.57421e-05
-4.10276e-05
-5.46739e-05
-4.42149e-05
-4.2749e-05
-4.76573e-05
-3.01853e-05
-5.01479e-05
-1.7019e-05
-5.25901e-05
-3.21395e-06
-5.51118e-05
1.11448e-05
-5.72827e-05
2.59833e-05
-5.92242e-05
4.13575e-05
-6.13369e-05
5.72093e-05
-6.32745e-05
7.3556e-05
-6.52675e-05
9.0355e-05
-6.70574e-05
0.000107594
-6.88886e-05
0.000125159
-7.0182e-05
0.000142878
-7.07849e-05
0.000160471
-7.02878e-05
0.000177612
-6.84761e-05
0.000193796
-6.46574e-05
0.000208757
-5.98194e-05
0.000221958
-5.28549e-05
0.000233139
-4.4721e-05
0.000241981
-3.54058e-05
0.000248354
-2.55197e-05
0.000252151
-1.51805e-05
0.000253304
-4.67869e-06
0.000251797
5.66125e-06
0.000247746
1.61873e-05
0.000241218
2.60352e-05
0.000232372
3.52763e-05
0.000221365
4.38628e-05
0.00020841
5.18298e-05
0.00019373
5.86882e-05
0.000177481