/*--------------------------------*- C++ -*----------------------------------*\
| =========                 |                                                 |
| \\      /  F ield         | OpenFOAM: The Open Source CFD Toolbox           |
|  \\    /   O peration     | Version:  3.0.1                                 |
|   \\  /    A nd           | Web:      www.OpenFOAM.org                      |
|    \\/     M anipulation  |                                                 |
\*---------------------------------------------------------------------------*/
FoamFile
{
    version     2.0;
    format      ascii;
    class       volScalarField;
    location    "18.4";
    object      p;
}
// * * * * * * * * * * * * * * * * * * * * * * * * * * * * * * * * * * * * * //

dimensions      [1 -1 -2 0 0 0 0];

internalField   nonuniform List<scalar> 
21420
(
4090.83
4058.84
4025.86
3992.27
3958.52
3924.98
3893.34
3861.62
3830.04
3799.51
3770.34
3742.73
3716.82
3692.68
3670.37
3649.91
3631.29
3614.49
3599.47
3586.18
3574.59
3564.63
3556.26
3549.45
3544.15
3540.32
3537.99
3537.16
3537.79
3539.85
3543.39
3548.4
3554.91
3562.96
3572.6
3583.85
3596.78
3611.42
3627.83
3646.03
3666.06
3687.92
3711.59
3737.06
3764.25
3793.03
3823.28
3854.81
3887.31
3920.32
3954.1
3988.1
4021.96
4055.29
4087.67
4118.75
4148.12
4175.41
4200.27
4222.37
4241.43
4257.2
4269.45
4277.99
4282.72
4283.49
4280.4
4273.34
4262.37
4247.68
4229.45
4207.91
4183.36
4156.13
4126.59
4095.14
4062.17
4028.09
3993.35
3958.33
3923.49
3889.74
3856.2
3823.57
3792.19
3762.29
3734.09
3707.7
3683.25
3660.81
3640.42
3622.1
3605.84
3591.64
3579.44
3569.16
3560.74
3554.09
3549.13
3545.75
3543.88
3543.5
3544.5
3546.84
3550.52
3555.52
3561.85
3569.51
3578.53
3588.95
3600.77
3614.03
3628.76
3644.99
3662.72
3681.97
3702.75
3725.04
3748.83
3774.07
3800.72
3828.69
3857.86
3888.12
3919.3
3951.14
3983.4
4015.8
4048
4079.64
4110.32
4139.63
4167.15
4192.47
4215.16
4234.85
4251.2
4263.91
4272.73
4277.5
4278.02
4274.41
4266.61
4254.71
4238.92
4219.47
4196.65
4170.84
4142.43
4111.87
4079.62
4046.16
4011.97
3977.49
3943.18
3909.41
3876.52
3844.8
3814.48
3785.74
3758.72
3733.5
3710.11
3688.56
3668.83
3650.9
3634.7
3620.16
3607.24
3595.86
3585.97
3577.49
3570.39
3564.62
3560.15
3556.95
3555.01
3554.34
3554.99
3556.91
3560.2
3564.89
3571.03
3578.7
3587.96
3598.88
3611.51
3625.92
3642.15
3660.21
3680.11
3701.85
3725.37
3750.62
3777.5
3805.87
3835.58
3866.44
3898.23
3930.68
3963.48
3996.32
4028.86
4060.75
4091.61
4121.08
4148.77
4174.34
4197.44
4217.76
4235.03
4249
4259.49
4266.34
4269.44
4268.73
4264.23
4256.01
4244.1
4228.66
4209.88
4187.98
4163.24
4135.97
4106.51
4075.24
4042.57
4008.9
3974.68
3940.3
3906.19
3872.73
3840.26
3809.09
3779.47
3751.62
3725.68
3701.76
3679.91
3660.14
3642.43
3626.74
3612.97
3601.04
3590.86
3582.32
3575.32
3569.77
3565.58
3562.66
3560.98
3560.51
3561.19
3563.02
3566.02
3570.22
3575.66
3582.39
3590.51
3600.08
3611.18
3623.92
3638.35
3654.56
3672.6
3692.5
3714.27
3737.9
3763.32
3790.44
3819.13
3849.2
3880.43
3912.67
3945.44
3978.44
4011.32
4043.71
4075.22
4105.46
4134.05
4160.61
4184.79
4206.27
4224.75
4239.99
4251.79
4259.98
4264.44
4265.1
4262.08
4255.26
4244.78
4230.81
4213.55
4193.24
4170.2
4144.73
4117.19
4087.95
4057.38
4025.86
3993.73
3961.35
3929.04
3897.21
3866.73
3836.75
3807.69
3779.81
3753.3
3728.31
3704.94
3683.26
3663.32
3645.14
3628.71
3614.02
3601.04
3589.74
3580.08
3572.03
3565.56
3560.64
3557.25
3555.41
3555.13
3556.41
3559.24
3563.65
3569.63
3577.18
3586.34
3597.09
3609.45
3623.41
3638.97
3656.13
3674.85
3695.11
3716.88
3740.08
3764.65
3790.48
3817.44
3845.37
3874.1
3903.22
3932.87
3962.68
3992.3
4021.45
4049.77
4076.94
4102.65
4126.47
4148.01
3992.77
3960.76
3927.77
3894.15
3860.39
3826.84
3795.18
3763.45
3731.87
3701.34
3672.16
3644.55
3618.63
3594.5
3572.19
3551.73
3533.11
3516.31
3501.29
3488.01
3476.42
3466.46
3458.1
3451.29
3445.99
3442.16
3439.83
3439
3439.63
3441.7
3445.23
3450.24
3456.75
3464.8
3474.43
3485.68
3498.61
3513.25
3529.65
3547.85
3567.88
3589.74
3613.4
3638.88
3666.07
3694.86
3725.11
3756.64
3789.16
3822.18
3855.97
3889.98
3923.86
3957.2
3989.6
4020.69
4050.08
4077.39
4102.26
4124.38
4143.46
4159.24
4171.49
4180.04
4184.77
4185.55
4182.45
4175.39
4164.41
4149.71
4131.46
4109.91
4085.35
4058.1
4028.54
3997.07
3964.08
3929.99
3895.23
3860.2
3825.33
3791.59
3758.03
3725.4
3694
3664.11
3635.9
3609.51
3585.06
3562.61
3542.22
3523.91
3507.66
3493.46
3481.26
3470.99
3462.57
3455.92
3450.97
3447.58
3445.72
3445.34
3446.35
3448.69
3452.36
3457.36
3463.69
3471.35
3480.38
3490.79
3502.61
3515.87
3530.6
3546.82
3564.55
3583.8
3604.58
3626.87
3650.66
3675.9
3702.55
3730.52
3759.7
3789.96
3821.15
3853
3885.27
3917.68
3949.9
3981.55
4012.25
4041.58
4069.12
4094.45
4117.16
4136.87
4153.24
4165.96
4174.79
4179.56
4180.09
4176.47
4168.66
4156.76
4140.95
4121.49
4098.65
4072.82
4044.39
4013.81
3981.54
3948.06
3913.85
3879.36
3845.03
3811.25
3778.35
3746.62
3716.3
3687.56
3660.54
3635.31
3611.92
3590.38
3570.66
3552.72
3536.53
3522
3509.08
3497.7
3487.81
3479.34
3472.24
3466.47
3462
3458.8
3456.85
3456.19
3456.83
3458.76
3462.04
3466.73
3472.87
3480.53
3489.79
3500.71
3513.34
3527.75
3543.97
3562.03
3581.93
3603.67
3627.19
3652.44
3679.32
3707.7
3737.42
3768.28
3800.08
3832.54
3865.35
3898.21
3930.76
3962.67
3993.55
4023.03
4050.74
4076.32
4099.43
4119.77
4137.05
4151.04
4161.53
4168.39
4171.5
4170.78
4166.27
4158.05
4146.13
4130.68
4111.89
4089.98
4065.23
4037.93
4008.46
3977.17
3944.48
3910.8
3876.55
3842.17
3808.04
3774.57
3742.09
3710.91
3681.29
3653.43
3627.49
3603.57
3581.72
3561.95
3544.25
3528.55
3514.79
3502.87
3492.7
3484.16
3477.17
3471.62
3467.43
3464.51
3462.84
3462.37
3463.05
3464.88
3467.87
3472.07
3477.5
3484.24
3492.35
3501.92
3513.02
3525.75
3540.18
3556.38
3574.42
3594.31
3616.08
3639.71
3665.14
3692.26
3720.95
3751.03
3782.28
3814.52
3847.3
3880.32
3913.22
3945.62
3977.14
4007.4
4036.01
4062.59
4086.78
4108.27
4126.77
4142.02
4153.83
4162.02
4166.49
4167.16
4164.13
4157.3
4146.81
4132.84
4115.56
4095.24
4072.19
4046.7
4019.14
3989.88
3959.3
3927.76
3895.61
3863.22
3830.9
3799.06
3768.58
3738.59
3709.52
3681.64
3655.13
3630.14
3606.76
3585.08
3565.15
3546.96
3530.54
3515.85
3502.87
3491.57
3481.91
3473.87
3467.4
3462.48
3459.09
3457.26
3456.97
3458.25
3461.08
3465.49
3471.46
3479.02
3488.18
3498.92
3511.28
3525.25
3540.81
3557.96
3576.68
3596.95
3618.71
3641.92
3666.48
3692.32
3719.28
3747.23
3775.96
3805.09
3834.74
3864.56
3894.2
3923.36
3951.7
3978.88
4004.6
4028.44
4049.99
3894.74
3862.7
3829.67
3796.02
3762.23
3728.65
3696.97
3665.22
3633.63
3603.08
3573.89
3546.28
3520.36
3496.23
3473.93
3453.47
3434.86
3418.06
3403.05
3389.77
3378.18
3368.23
3359.88
3353.07
3347.77
3343.95
3341.61
3340.79
3341.41
3343.48
3347.01
3352.02
3358.53
3366.57
3376.2
3387.45
3400.36
3415
3431.4
3449.6
3469.62
3491.47
3515.14
3540.62
3567.81
3596.61
3626.87
3658.42
3690.95
3723.98
3757.8
3791.84
3825.75
3859.12
3891.55
3922.68
3952.1
3979.44
4004.35
4026.5
4045.6
4061.4
4073.67
4082.24
4086.98
4087.78
4084.65
4077.58
4066.6
4051.87
4033.6
4012.02
3987.42
3960.14
3930.55
3899.04
3866.01
3831.89
3797.09
3762.03
3727.13
3693.39
3659.81
3627.15
3595.74
3565.84
3537.62
3511.23
3486.77
3464.33
3443.94
3425.63
3409.39
3395.19
3383
3372.73
3364.33
3357.69
3352.74
3349.36
3347.51
3347.13
3348.14
3350.48
3354.16
3359.16
3365.48
3373.14
3382.16
3392.57
3404.39
3417.64
3432.37
3448.59
3466.32
3485.57
3506.34
3528.63
3552.42
3577.66
3604.31
3632.29
3661.48
3691.75
3722.95
3754.82
3787.11
3819.55
3851.79
3883.48
3914.21
3943.58
3971.16
3996.53
4019.27
4039.02
4055.41
4068.15
4077
4081.78
4082.33
4078.69
4070.88
4058.96
4043.12
4023.62
4000.76
3974.88
3946.41
3915.79
3883.48
3849.96
3815.71
3781.19
3746.83
3713.03
3680.11
3648.37
3618.04
3589.29
3562.27
3537.04
3513.66
3492.12
3472.4
3454.48
3438.28
3423.76
3410.85
3399.48
3389.59
3381.13
3374.03
3368.27
3363.8
3360.6
3358.65
3357.99
3358.63
3360.55
3363.83
3368.51
3374.65
3382.31
3391.56
3402.47
3415.09
3429.49
3445.71
3463.77
3483.67
3505.4
3528.93
3554.19
3581.07
3609.46
3639.19
3670.07
3701.88
3734.37
3767.2
3800.08
3832.67
3864.6
3895.51
3925.02
3952.77
3978.38
4001.53
4021.89
4039.19
4053.2
4063.71
4070.58
4073.7
4072.97
4068.46
4060.23
4048.3
4032.83
4014.01
3992.08
3967.29
3939.97
3910.45
3879.13
3846.4
3812.69
3778.41
3743.99
3709.84
3676.34
3643.84
3612.65
3583.01
3555.15
3529.21
3505.29
3483.44
3463.67
3445.98
3430.29
3416.54
3404.63
3394.46
3385.94
3378.95
3373.41
3369.22
3366.31
3364.64
3364.17
3364.85
3366.68
3369.68
3373.87
3379.3
3386.03
3394.13
3403.69
3414.78
3427.5
3441.93
3458.13
3476.16
3496.05
3517.82
3541.45
3566.87
3594
3622.71
3652.8
3684.06
3716.33
3749.13
3782.17
3815.1
3847.54
3879.09
3909.38
3938.03
3964.64
3988.86
4010.39
4028.91
4044.18
4056
4064.21
4068.69
4069.37
4066.31
4059.48
4048.97
4034.98
4017.68
3997.33
3974.25
3948.73
3921.13
3891.84
3861.23
3829.66
3797.49
3765.07
3732.73
3700.87
3670.37
3640.37
3611.29
3583.4
3556.88
3531.88
3508.51
3486.83
3466.89
3448.71
3432.29
3417.6
3404.63
3393.34
3383.68
3375.64
3369.17
3364.26
3360.87
3359.04
3358.75
3360.02
3362.86
3367.26
3373.24
3380.79
3389.95
3400.69
3413.05
3427.01
3442.57
3459.73
3478.45
3498.71
3520.48
3543.68
3568.26
3594.1
3621.07
3649.03
3677.78
3706.92
3736.59
3766.43
3796.09
3825.29
3853.65
3880.85
3906.61
3930.48
3952.05
3796.74
3764.65
3731.57
3697.87
3664.04
3630.43
3598.71
3566.92
3535.31
3504.75
3475.55
3447.93
3422.01
3397.88
3375.58
3355.13
3336.52
3319.74
3304.73
3291.46
3279.88
3269.94
3261.59
3254.79
3249.5
3245.68
3243.34
3242.51
3243.14
3245.21
3248.74
3253.74
3260.25
3268.28
3277.9
3289.14
3302.05
3316.68
3333.07
3351.26
3371.28
3393.13
3416.79
3442.27
3469.47
3498.28
3528.56
3560.12
3592.68
3625.75
3659.6
3693.68
3727.63
3761.05
3793.53
3824.71
3854.19
3881.57
3906.53
3928.72
3947.86
3963.7
3976
3984.59
3989.34
3990.16
3987
3979.92
3968.92
3954.17
3935.86
3914.23
3889.59
3862.25
3832.6
3801.04
3767.96
3733.78
3698.94
3663.82
3628.87
3595.14
3561.52
3528.83
3497.4
3467.48
3439.25
3412.86
3388.4
3365.96
3345.57
3327.26
3311.03
3296.84
3284.66
3274.41
3266.01
3259.39
3254.44
3251.08
3249.24
3248.87
3249.87
3252.22
3255.9
3260.9
3267.22
3274.87
3283.89
3294.29
3306.1
3319.36
3334.08
3350.3
3368.02
3387.26
3408.03
3430.32
3454.11
3479.36
3506.01
3533.99
3563.2
3593.49
3624.7
3656.6
3688.92
3721.4
3753.69
3785.42
3816.21
3845.63
3873.27
3898.69
3921.49
3941.28
3957.72
3970.5
3979.38
3984.17
3984.74
3981.07
3973.25
3961.3
3945.43
3925.88
3902.96
3877.03
3848.5
3817.81
3785.44
3751.87
3717.56
3682.99
3648.59
3614.75
3581.8
3550.04
3519.69
3490.94
3463.91
3438.69
3415.31
3393.78
3374.07
3356.15
3339.97
3325.46
3312.56
3301.2
3291.32
3282.86
3275.77
3270.01
3265.54
3262.35
3260.4
3259.74
3260.37
3262.29
3265.57
3270.24
3276.36
3284.01
3293.26
3304.15
3316.77
3331.17
3347.38
3365.43
3385.33
3407.06
3430.59
3455.85
3482.74
3511.14
3540.89
3571.79
3603.63
3636.15
3669.02
3701.94
3734.57
3766.55
3797.51
3827.07
3854.86
3880.53
3903.72
3924.12
3941.46
3955.5
3966.04
3972.92
3976.05
3975.32
3970.8
3962.55
3950.6
3935.1
3916.25
3894.27
3869.44
3842.06
3812.5
3781.12
3748.34
3714.57
3680.25
3645.78
3611.59
3578.05
3545.52
3514.3
3484.65
3456.78
3430.83
3406.91
3385.06
3365.31
3347.63
3331.95
3318.21
3306.32
3296.16
3287.65
3280.68
3275.15
3270.97
3268.07
3266.4
3265.94
3266.62
3268.44
3271.43
3275.62
3281.04
3287.76
3295.86
3305.4
3316.48
3329.19
3343.61
3359.79
3377.81
3397.7
3419.47
3443.1
3468.53
3495.67
3524.39
3554.5
3585.79
3618.08
3650.92
3684.01
3716.98
3749.47
3781.07
3811.41
3840.11
3866.77
3891.04
3912.61
3931.17
3946.47
3958.32
3966.55
3971.03
3971.73
3968.64
3961.8
3951.27
3937.25
3919.91
3899.52
3876.39
3850.82
3823.17
3793.84
3763.17
3731.56
3699.35
3666.89
3634.51
3602.64
3572.1
3542.09
3512.99
3485.08
3458.55
3433.55
3410.17
3388.5
3368.56
3350.39
3333.97
3319.29
3306.32
3295.03
3285.39
3277.35
3270.89
3265.98
3262.59
3260.76
3260.47
3261.74
3264.57
3268.98
3274.95
3282.5
3291.65
3302.4
3314.75
3328.71
3344.27
3361.42
3380.14
3400.4
3422.17
3445.39
3469.97
3495.82
3522.8
3550.78
3579.55
3608.71
3638.42
3668.29
3697.98
3727.22
3755.62
3782.87
3808.67
3832.58
3854.2
3698.78
3666.62
3633.47
3599.71
3565.82
3532.16
3500.39
3468.56
3436.93
3406.34
3377.13
3349.5
3323.58
3299.44
3277.15
3256.7
3238.11
3221.33
3206.34
3193.08
3181.52
3171.58
3163.24
3156.45
3151.16
3147.35
3145.02
3144.18
3144.8
3146.87
3150.4
3155.4
3161.9
3169.93
3179.54
3190.77
3203.67
3218.28
3234.66
3252.85
3272.85
3294.7
3318.37
3343.85
3371.06
3399.87
3430.17
3461.77
3494.36
3527.46
3561.36
3595.49
3629.51
3662.99
3695.54
3726.79
3756.33
3783.78
3808.8
3831.06
3850.25
3866.13
3878.47
3887.09
3891.86
3892.69
3889.51
3882.41
3871.38
3856.59
3838.23
3816.54
3791.84
3764.43
3734.71
3703.07
3669.92
3635.68
3600.76
3565.58
3530.56
3496.84
3463.17
3430.44
3398.98
3369.04
3340.8
3314.4
3289.94
3267.49
3247.11
3228.81
3212.59
3198.41
3186.24
3176.01
3167.63
3161.02
3156.09
3152.74
3150.91
3150.54
3151.56
3153.91
3157.59
3162.58
3168.9
3176.55
3185.56
3195.96
3207.76
3221.01
3235.72
3251.93
3269.65
3288.89
3309.66
3331.94
3355.73
3380.98
3407.64
3435.64
3464.85
3495.16
3526.41
3558.34
3590.71
3623.23
3655.58
3687.38
3718.23
3747.73
3775.44
3800.94
3823.81
3843.67
3860.17
3873
3881.91
3886.72
3887.31
3883.62
3875.77
3863.79
3847.87
3828.26
3805.27
3779.26
3750.65
3719.88
3687.43
3653.77
3619.4
3584.76
3550.3
3516.41
3483.43
3451.64
3421.27
3392.51
3365.48
3340.25
3316.88
3295.36
3275.66
3257.76
3241.59
3227.09
3214.2
3202.86
3192.99
3184.54
3177.46
3171.7
3167.24
3164.04
3162.1
3161.44
3162.06
3163.98
3167.24
3171.9
3178.02
3185.66
3194.89
3205.77
3218.38
3232.76
3248.96
3267.01
3286.9
3308.64
3332.17
3357.44
3384.34
3412.76
3442.53
3473.46
3505.33
3537.89
3570.81
3603.78
3636.47
3668.52
3699.54
3729.17
3757.03
3782.75
3806
3826.46
3843.85
3857.93
3868.5
3875.4
3878.54
3877.82
3873.29
3865.02
3853.03
3837.5
3818.6
3796.56
3771.67
3744.23
3714.59
3683.14
3650.29
3616.45
3582.06
3547.53
3513.28
3479.7
3447.13
3415.88
3386.21
3358.32
3332.36
3308.44
3286.6
3266.86
3249.19
3233.53
3219.81
3207.93
3197.8
3189.3
3182.35
3176.83
3172.67
3169.78
3168.12
3167.65
3168.33
3170.16
3173.15
3177.32
3182.73
3189.44
3197.52
3207.05
3218.12
3230.81
3245.21
3261.38
3279.39
3299.27
3321.04
3344.67
3370.1
3397.26
3426
3456.14
3487.46
3519.79
3552.68
3585.82
3618.86
3651.4
3683.07
3713.48
3742.24
3768.97
3793.31
3814.93
3833.55
3848.89
3860.77
3869.03
3873.53
3874.23
3871.12
3864.26
3853.71
3839.64
3822.25
3801.81
3778.61
3752.98
3725.26
3695.86
3665.13
3633.45
3601.19
3568.69
3536.27
3504.35
3473.79
3443.74
3414.62
3386.69
3360.15
3335.14
3311.76
3290.08
3270.15
3251.98
3235.57
3220.9
3207.95
3196.67
3187.03
3179
3172.54
3167.63
3164.26
3162.43
3162.12
3163.4
3166.23
3170.63
3176.6
3184.15
3193.3
3204.04
3216.38
3230.34
3245.9
3263.05
3281.77
3302.03
3323.8
3347.02
3371.61
3397.47
3424.48
3452.48
3481.28
3510.46
3540.21
3570.13
3599.87
3629.16
3657.62
3684.93
3710.79
3734.76
3756.43
3600.86
3568.61
3535.37
3501.52
3467.56
3433.85
3402.02
3370.13
3338.47
3307.86
3278.62
3250.98
3225.05
3200.92
3178.63
3158.2
3139.62
3122.86
3107.88
3094.64
3083.08
3073.16
3064.83
3058.05
3052.77
3048.97
3046.63
3045.78
3046.41
3048.49
3052.01
3057
3063.5
3071.51
3081.11
3092.33
3105.21
3119.81
3136.18
3154.35
3174.35
3196.19
3219.86
3245.34
3272.56
3301.39
3331.72
3363.35
3395.98
3429.13
3463.09
3497.29
3531.38
3564.94
3597.58
3628.91
3658.54
3686.07
3711.17
3733.5
3752.76
3768.7
3781.08
3789.73
3794.53
3795.37
3792.19
3785.06
3773.99
3759.15
3740.73
3718.96
3694.17
3666.68
3636.87
3605.14
3571.9
3537.57
3502.57
3467.31
3432.2
3398.5
3364.75
3331.97
3300.48
3270.52
3242.26
3215.85
3191.38
3168.94
3148.56
3130.27
3114.06
3099.9
3087.75
3077.53
3069.17
3062.58
3057.67
3054.34
3052.53
3052.17
3053.19
3055.54
3059.22
3064.22
3070.53
3078.18
3087.18
3097.57
3109.36
3122.6
3137.31
3153.51
3171.22
3190.45
3211.21
3233.49
3257.28
3282.54
3309.2
3337.21
3366.45
3396.79
3428.06
3460.04
3492.46
3525.05
3557.47
3589.35
3620.29
3649.88
3677.69
3703.28
3726.24
3746.19
3762.76
3775.64
3784.6
3789.44
3790.04
3786.34
3778.46
3766.43
3750.45
3730.77
3707.69
3681.58
3652.86
3621.99
3589.43
3555.68
3521.21
3486.49
3451.96
3418.02
3384.99
3353.16
3322.77
3293.99
3266.95
3241.73
3218.37
3196.85
3177.17
3159.29
3143.14
3128.66
3115.79
3104.45
3094.6
3086.16
3079.09
3073.35
3068.89
3065.69
3063.76
3063.09
3063.7
3065.61
3068.87
3073.51
3079.61
3087.24
3096.45
3107.32
3119.91
3134.28
3150.47
3168.51
3188.4
3210.13
3233.67
3258.95
3285.87
3314.31
3344.11
3375.07
3406.99
3439.6
3472.58
3505.62
3538.38
3570.5
3601.6
3631.31
3659.25
3685.06
3708.39
3728.92
3746.37
3760.5
3771.1
3778.03
3781.18
3780.47
3775.93
3767.62
3755.6
3740.02
3721.06
3698.95
3673.98
3646.46
3616.73
3585.2
3552.25
3518.33
3483.85
3449.24
3414.93
3381.28
3348.66
3317.37
3287.67
3259.76
3233.8
3209.88
3188.05
3168.32
3150.67
3135.03
3121.33
3109.48
3099.37
3090.9
3083.96
3078.46
3074.31
3071.44
3069.79
3069.32
3070
3071.83
3074.81
3078.98
3084.38
3091.07
3099.13
3108.64
3119.69
3132.36
3146.74
3162.9
3180.89
3200.76
3222.52
3246.15
3271.6
3298.77
3327.53
3357.71
3389.08
3421.44
3454.41
3487.61
3520.72
3553.34
3585.1
3615.6
3644.44
3671.25
3695.67
3717.36
3736.04
3751.44
3763.37
3771.65
3776.17
3776.88
3773.76
3766.87
3756.28
3742.16
3724.71
3704.19
3680.92
3655.2
3627.4
3597.92
3567.11
3535.35
3503.02
3470.45
3437.98
3406.02
3375.41
3345.33
3316.18
3288.23
3261.68
3236.66
3213.27
3191.59
3171.67
3153.5
3137.1
3122.44
3109.5
3098.23
3088.6
3080.58
3074.13
3069.23
3065.86
3064.03
3063.72
3064.99
3067.83
3072.22
3078.19
3085.73
3094.87
3105.61
3117.95
3131.91
3147.46
3164.61
3183.33
3203.59
3225.37
3248.59
3273.19
3299.07
3326.1
3354.13
3382.97
3412.19
3441.98
3471.96
3501.76
3531.11
3559.64
3587.02
3612.96
3637
3658.74
3502.97
3470.61
3437.27
3403.32
3369.27
3335.5
3303.58
3271.64
3239.94
3209.29
3180.04
3152.38
3126.45
3102.32
3080.04
3059.62
3041.05
3024.3
3009.34
2996.12
2984.58
2974.67
2966.36
2959.58
2954.32
2950.52
2948.19
2947.33
2947.96
2950.04
2953.56
2958.55
2965.03
2973.03
2982.61
2993.82
3006.69
3021.27
3037.62
3055.78
3075.77
3097.6
3121.26
3146.75
3173.98
3202.84
3233.19
3264.86
3297.54
3330.75
3364.78
3399.06
3433.24
3466.9
3499.63
3531.07
3560.8
3588.44
3613.63
3636.05
3655.39
3671.4
3683.84
3692.53
3697.35
3698.2
3695.01
3687.85
3676.74
3661.84
3643.34
3621.49
3596.6
3569
3539.08
3507.24
3473.89
3439.46
3404.36
3369
3333.78
3300.1
3266.27
3233.43
3201.9
3171.91
3143.63
3117.2
3092.73
3070.29
3049.92
3031.64
3015.45
3001.31
2989.17
2978.98
2970.64
2964.08
2959.19
2955.88
2954.09
2953.74
2954.76
2957.13
2960.81
2965.8
2972.11
2979.75
2988.74
2999.12
3010.9
3024.13
3038.83
3055.02
3072.72
3091.94
3112.7
3134.98
3158.76
3184.02
3210.7
3238.72
3267.98
3298.35
3329.67
3361.69
3394.19
3426.85
3459.35
3491.33
3522.38
3552.08
3580
3605.71
3628.78
3648.82
3665.48
3678.44
3687.45
3692.32
3692.93
3689.23
3681.31
3669.23
3653.17
3633.39
3610.2
3583.98
3555.14
3524.14
3491.46
3457.59
3423.01
3388.19
3353.57
3319.56
3286.47
3254.6
3224.18
3195.39
3168.35
3143.13
3119.77
3098.27
3078.61
3060.74
3044.61
3030.16
3017.3
3005.99
2996.15
2987.73
2980.67
2974.94
2970.48
2967.29
2965.36
2964.69
2965.29
2967.19
2970.43
2975.07
2981.15
2988.75
2997.95
3008.8
3021.37
3035.73
3051.9
3069.93
3089.81
3111.55
3135.09
3160.38
3187.31
3215.78
3245.61
3276.62
3308.59
3341.27
3374.32
3407.43
3440.28
3472.49
3503.7
3533.51
3561.55
3587.45
3610.87
3631.48
3649.01
3663.2
3673.85
3680.81
3683.98
3683.27
3678.71
3670.37
3658.31
3642.66
3623.63
3601.44
3576.38
3548.75
3518.92
3487.28
3454.23
3420.2
3385.62
3350.92
3316.52
3282.8
3250.12
3218.79
3189.05
3161.12
3135.15
3111.23
3089.4
3069.69
3052.06
3036.45
3022.78
3010.95
3000.87
2992.43
2985.51
2980.04
2975.91
2973.05
2971.41
2970.95
2971.63
2973.45
2976.43
2980.58
2985.96
2992.64
3000.68
3010.17
3021.19
3033.84
3048.19
3064.33
3082.31
3102.17
3123.92
3147.55
3173.01
3200.2
3228.99
3259.21
3290.63
3323.05
3356.09
3389.38
3422.58
3455.3
3487.15
3517.75
3546.7
3573.61
3598.12
3619.9
3638.66
3654.12
3666.1
3674.42
3678.96
3679.67
3676.54
3669.62
3658.98
3644.8
3627.27
3606.67
3583.3
3557.48
3529.58
3500
3469.1
3437.25
3404.84
3372.19
3339.66
3307.65
3276.99
3246.86
3217.68
3189.7
3163.13
3138.09
3114.7
3093.02
3073.1
3054.95
3038.56
3023.92
3010.98
2999.73
2990.11
2982.1
2975.66
2970.77
2967.4
2965.57
2965.26
2966.53
2969.36
2973.75
2979.71
2987.25
2996.39
3007.12
3019.45
3033.4
3048.95
3066.1
3084.82
3105.08
3126.86
3150.1
3174.71
3200.61
3227.67
3255.73
3284.62
3313.87
3343.72
3373.76
3403.64
3433.07
3461.68
3489.15
3515.18
3539.32
3561.14
3405.11
3372.64
3339.16
3305.1
3270.95
3237.11
3205.09
3173.09
3141.33
3110.65
3081.37
3053.69
3027.76
3003.63
2981.36
2960.95
2942.4
2925.68
2910.73
2897.53
2886.01
2876.12
2867.82
2861.06
2855.8
2852.02
2849.69
2848.82
2849.46
2851.54
2855.06
2860.03
2866.5
2874.49
2884.05
2895.24
2908.09
2922.65
2938.99
2957.13
2977.1
2998.92
3022.59
3048.08
3075.32
3104.2
3134.6
3166.31
3199.05
3232.32
3266.44
3300.81
3335.1
3368.87
3401.72
3433.28
3463.13
3490.88
3516.19
3538.71
3558.14
3574.24
3586.74
3595.48
3600.33
3601.19
3597.99
3590.8
3579.64
3564.67
3546.08
3524.12
3499.11
3471.39
3441.34
3409.37
3375.9
3341.34
3306.13
3270.65
3235.31
3201.66
3167.72
3134.81
3103.24
3073.21
3044.91
3018.47
2993.99
2971.55
2951.19
2932.92
2916.75
2902.63
2890.52
2880.35
2872.05
2865.51
2860.64
2857.36
2855.59
2855.25
2856.29
2858.66
2862.34
2867.33
2873.63
2881.27
2890.25
2900.61
2912.38
2925.6
2940.28
2956.46
2974.15
2993.37
3014.11
3036.39
3060.18
3085.44
3112.13
3140.17
3169.45
3199.86
3231.22
3263.31
3295.88
3328.63
3361.24
3393.33
3424.5
3454.33
3482.38
3508.22
3531.42
3551.58
3568.34
3581.39
3590.46
3595.37
3595.99
3592.29
3584.32
3572.17
3556.02
3536.13
3512.82
3486.46
3457.48
3426.33
3393.51
3359.5
3324.79
3289.85
3255.14
3221.04
3187.89
3155.97
3125.52
3096.7
3069.65
3044.44
3021.09
2999.61
2979.97
2962.13
2946.02
2931.59
2918.76
2907.47
2897.65
2889.25
2882.2
2876.48
2872.03
2868.85
2866.91
2866.23
2866.83
2868.72
2871.95
2876.56
2882.62
2890.21
2899.38
2910.2
2922.76
2937.09
2953.25
2971.27
2991.15
3012.88
3036.43
3061.73
3088.69
3117.18
3147.05
3178.12
3210.14
3242.9
3276.03
3309.24
3342.18
3374.51
3405.82
3435.75
3463.91
3489.92
3513.45
3534.16
3551.77
3566.03
3576.74
3583.74
3586.92
3586.22
3581.65
3573.27
3561.15
3545.43
3526.31
3504.03
3478.85
3451.11
3421.16
3389.39
3356.21
3322.06
3287.36
3252.56
3218.06
3184.26
3151.51
3120.11
3090.34
3062.38
3036.4
3012.48
2990.67
2970.97
2953.37
2937.79
2924.15
2912.36
2902.31
2893.89
2887.01
2881.56
2877.45
2874.61
2872.98
2872.53
2873.21
2875.03
2878
2882.14
2887.5
2894.15
2902.17
2911.63
2922.62
2935.24
2949.57
2965.69
2983.65
3003.49
3025.24
3048.87
3074.34
3101.55
3130.38
3160.64
3192.13
3224.62
3257.74
3291.13
3324.43
3357.26
3389.22
3419.95
3449.01
3476.04
3500.66
3522.55
3541.39
3556.94
3568.98
3577.34
3581.9
3582.62
3579.47
3572.51
3561.82
3547.57
3529.95
3509.24
3485.77
3459.83
3431.82
3402.12
3371.1
3339.15
3306.64
3273.9
3241.29
3209.23
3178.51
3148.33
3119.11
3091.1
3064.5
3039.45
3016.05
2994.38
2974.46
2956.32
2939.94
2925.31
2912.4
2901.16
2891.56
2883.56
2877.13
2872.24
2868.88
2867.05
2866.74
2868
2870.83
2875.22
2881.18
2888.71
2897.83
2908.56
2920.89
2934.83
2950.38
2967.52
2986.24
3006.5
3028.29
3051.54
3076.16
3102.09
3129.18
3157.28
3186.22
3215.52
3245.44
3275.56
3305.52
3335.04
3363.75
3391.32
3417.46
3441.7
3463.62
3307.3
3274.67
3241.06
3206.86
3172.59
3138.67
3106.54
3074.47
3042.66
3011.93
2982.61
2954.92
2928.98
2904.86
2882.6
2862.2
2843.67
2826.97
2812.05
2798.87
2787.38
2777.51
2769.23
2762.48
2757.24
2753.46
2751.14
2750.25
2750.9
2752.98
2756.49
2761.46
2767.91
2775.89
2785.43
2796.59
2809.42
2823.96
2840.28
2858.4
2878.35
2900.17
2923.83
2949.32
2976.58
3005.49
3035.93
3067.7
3100.5
3133.84
3168.06
3202.54
3236.94
3270.84
3303.83
3335.52
3365.52
3393.41
3418.84
3441.48
3461.02
3477.2
3489.78
3498.58
3503.46
3504.33
3501.13
3493.9
3482.67
3467.62
3448.93
3426.85
3401.71
3373.85
3343.65
3311.54
3277.92
3243.23
3207.88
3172.27
3136.78
3103.17
3069.1
3036.12
3004.49
2974.43
2946.1
2919.64
2895.16
2872.73
2852.37
2834.12
2817.96
2803.87
2791.79
2781.65
2773.38
2766.87
2762.04
2758.78
2757.03
2756.71
2757.76
2760.14
2763.82
2768.81
2775.1
2782.73
2791.7
2802.05
2813.81
2827.01
2841.68
2857.84
2875.52
2894.72
2915.46
2937.73
2961.52
2986.79
3013.49
3041.54
3070.86
3101.31
3132.73
3164.89
3197.54
3230.39
3263.12
3295.34
3326.65
3356.63
3384.83
3410.82
3434.17
3454.47
3471.35
3484.49
3493.64
3498.59
3499.22
3495.5
3487.49
3475.26
3459.01
3439
3415.54
3389.03
3359.88
3328.56
3295.57
3261.4
3226.55
3191.48
3156.65
3122.46
3089.23
3057.26
3026.77
2997.93
2970.87
2945.66
2922.33
2900.87
2881.25
2863.44
2847.36
2832.95
2820.15
2808.88
2799.09
2790.7
2783.68
2777.96
2773.53
2770.35
2768.41
2767.73
2768.32
2770.2
2773.4
2778
2784.04
2791.59
2800.74
2811.54
2824.07
2838.38
2854.53
2872.53
2892.4
2914.13
2937.68
2963
2989.98
3018.51
3048.43
3079.55
3111.64
3144.48
3177.71
3211.02
3244.09
3276.53
3307.98
3338.04
3366.33
3392.48
3416.12
3436.95
3454.66
3469
3479.77
3486.81
3490.02
3489.32
3484.73
3476.3
3464.12
3448.33
3429.11
3406.71
3381.42
3353.54
3323.45
3291.53
3258.21
3223.92
3189.08
3154.15
3119.54
3085.64
3052.81
3021.36
2991.54
2963.56
2937.56
2913.64
2891.84
2872.17
2854.59
2839.04
2825.44
2813.69
2803.68
2795.3
2788.45
2783.03
2778.94
2776.12
2774.51
2774.06
2774.75
2776.56
2779.52
2783.64
2788.99
2795.61
2803.6
2813.03
2823.99
2836.58
2850.88
2866.97
2884.9
2904.73
2926.47
2950.1
2975.59
3002.82
3031.69
3062.01
3093.56
3126.13
3159.36
3192.85
3226.27
3259.22
3291.33
3322.18
3351.39
3378.54
3403.3
3425.3
3444.25
3459.88
3471.99
3480.4
3484.99
3485.72
3482.56
3475.54
3464.79
3450.46
3432.74
3411.91
3388.31
3362.24
3334.09
3304.26
3273.11
3241.04
3208.42
3175.59
3142.89
3110.76
3079.97
3049.74
3020.47
2992.42
2965.8
2940.73
2917.33
2895.65
2875.74
2857.61
2841.25
2826.64
2813.74
2802.52
2792.94
2784.95
2778.53
2773.66
2770.3
2768.48
2768.16
2769.42
2772.25
2776.63
2782.58
2790.1
2799.22
2809.93
2822.26
2836.19
2851.73
2868.87
2887.59
2907.86
2929.65
2952.91
2977.55
3003.5
3030.63
3058.78
3087.77
3117.12
3147.13
3177.34
3207.39
3237.01
3265.84
3293.53
3319.79
3344.15
3366.18
3209.51
3176.73
3142.96
3108.6
3074.19
3040.17
3007.95
2975.79
2943.91
2913.13
2883.78
2856.07
2830.12
2806
2783.75
2763.37
2744.87
2728.19
2713.3
2700.15
2688.67
2678.83
2670.57
2663.84
2658.61
2654.84
2652.52
2651.63
2652.29
2654.36
2657.87
2662.82
2669.26
2677.22
2686.74
2697.88
2710.68
2725.2
2741.49
2759.59
2779.52
2801.32
2824.98
2850.48
2877.76
2906.7
2937.18
2969.01
3001.9
3035.32
3069.64
3104.25
3138.78
3172.83
3205.97
3237.82
3267.96
3296.01
3321.59
3344.36
3364.02
3380.31
3392.97
3401.83
3406.75
3407.64
3404.42
3397.15
3385.86
3370.72
3351.9
3329.69
3304.4
3276.38
3246.01
3213.73
3179.95
3145.11
3109.62
3073.86
3038.19
3004.63
2970.41
2937.35
2905.66
2875.56
2847.2
2820.73
2796.24
2773.8
2753.46
2735.22
2719.09
2705.02
2692.98
2682.87
2674.64
2668.17
2663.37
2660.15
2658.42
2658.12
2659.18
2661.56
2665.25
2670.23
2676.52
2684.13
2693.09
2703.42
2715.17
2728.35
2743
2759.15
2776.82
2796.01
2816.74
2839.01
2862.79
2888.06
2914.78
2942.86
2972.21
3002.7
3034.19
3066.42
3099.17
3132.14
3164.99
3197.36
3228.83
3258.97
3287.35
3313.51
3337.03
3357.48
3374.49
3387.75
3396.97
3401.97
3402.63
3398.89
3390.82
3378.5
3362.14
3341.98
3318.37
3291.67
3262.34
3230.83
3197.66
3163.31
3128.29
3093.07
3058.11
3023.82
2990.5
2958.47
2927.93
2899.08
2872.01
2846.8
2823.48
2802.05
2782.46
2764.67
2748.62
2734.25
2721.48
2710.24
2700.47
2692.11
2685.1
2679.4
2674.98
2671.8
2669.86
2669.18
2669.75
2671.62
2674.81
2679.38
2685.39
2692.92
2702.03
2712.81
2725.31
2739.6
2755.72
2773.71
2793.57
2815.3
2838.86
2864.19
2891.2
2919.77
2949.74
2980.92
3013.09
3046.03
3079.36
3112.8
3145.99
3178.58
3210.17
3240.38
3268.82
3295.11
3318.9
3339.85
3357.67
3372.11
3382.95
3390.04
3393.26
3392.57
3387.96
3379.48
3367.23
3351.35
3332.02
3309.5
3284.06
3256.03
3225.78
3193.7
3160.22
3125.77
3090.78
3055.71
3020.97
2986.97
2954.04
2922.52
2892.65
2864.63
2838.62
2814.7
2792.92
2773.27
2755.73
2740.22
2726.66
2714.95
2704.98
2696.65
2689.83
2684.44
2680.39
2677.59
2675.99
2675.56
2676.24
2678.05
2681
2685.1
2690.42
2697.02
2704.97
2714.37
2725.3
2737.85
2752.11
2768.17
2786.08
2805.89
2827.62
2851.25
2876.75
2904.02
2932.92
2963.3
2994.93
3027.59
3060.93
3094.55
3128.1
3161.2
3193.45
3224.46
3253.82
3281.13
3306.03
3328.16
3347.22
3362.96
3375.15
3383.61
3388.23
3388.97
3385.78
3378.72
3367.9
3353.47
3335.64
3314.68
3290.94
3264.72
3236.42
3206.43
3175.14
3142.94
3110.19
3077.24
3044.45
3012.25
2981.37
2951.08
2921.75
2893.67
2867.01
2841.93
2818.52
2796.85
2776.95
2758.83
2742.49
2727.9
2715.02
2703.82
2694.25
2686.28
2679.88
2675.01
2671.67
2669.84
2669.52
2670.78
2673.6
2677.98
2683.91
2691.43
2700.54
2711.24
2723.56
2737.49
2753.02
2770.16
2788.87
2809.14
2830.94
2854.21
2878.88
2904.86
2932.02
2960.23
2989.29
3018.69
3048.79
3079.1
3109.26
3139
3167.95
3195.78
3222.17
3246.67
3268.82
3111.76
3078.8
3044.85
3010.32
2975.75
2941.6
2909.32
2877.05
2845.09
2814.25
2784.86
2757.12
2731.17
2707.05
2684.82
2664.46
2645.98
2629.34
2614.47
2601.35
2589.91
2580.09
2571.85
2565.14
2559.92
2556.17
2553.85
2552.96
2553.62
2555.69
2559.19
2564.13
2570.55
2578.48
2587.98
2599.1
2611.87
2626.36
2642.62
2660.7
2680.61
2702.4
2726.05
2751.56
2778.86
2807.83
2838.36
2870.26
2903.23
2936.74
2971.19
3005.93
3040.62
3074.82
3108.13
3140.15
3170.47
3198.68
3224.43
3247.35
3267.15
3283.55
3296.3
3305.23
3310.2
3311.1
3307.87
3300.55
3289.18
3273.94
3255
3232.63
3207.18
3178.97
3148.42
3115.96
3082
3046.99
3011.33
2975.42
2939.55
2906.04
2871.65
2838.5
2806.75
2776.6
2748.21
2721.72
2697.22
2674.79
2654.46
2636.24
2620.13
2606.1
2594.08
2584.02
2575.83
2569.4
2564.64
2561.45
2559.75
2559.47
2560.55
2562.94
2566.63
2571.61
2577.89
2585.49
2594.43
2604.74
2616.47
2629.63
2644.27
2660.4
2678.05
2697.23
2717.95
2740.21
2763.99
2789.27
2816
2844.1
2873.49
2904.04
2935.59
2967.91
3000.77
3033.86
3066.86
3099.39