/*--------------------------------*- C++ -*----------------------------------*\
| =========                 |                                                 |
| \\      /  F ield         | OpenFOAM: The Open Source CFD Toolbox           |
|  \\    /   O peration     | Version:  3.0.1                                 |
|   \\  /    A nd           | Web:      www.OpenFOAM.org                      |
|    \\/     M anipulation  |                                                 |
\*---------------------------------------------------------------------------*/
FoamFile
{
    version     2.0;
    format      ascii;
    class       volScalarField;
    location    "85.6";
    object      p_rgh;
}
// * * * * * * * * * * * * * * * * * * * * * * * * * * * * * * * * * * * * * //

dimensions      [1 -1 -2 0 0 0 0];

internalField   nonuniform List<scalar> 
21420
(
-339.637
-335.242
-329.348
-321.935
-312.969
-302.382
-290.126
-276.136
-260.379
-242.826
-223.449
-202.227
-179.168
-154.301
-127.674
-99.3778
-69.5299
-38.2774
-5.84745
27.5056
61.6206
96.1065
130.605
164.759
198.141
230.342
260.924
289.46
315.584
338.916
359.101
375.848
388.903
398.064
403.196
404.125
400.948
393.652
382.35
367.253
348.571
326.597
301.638
274.042
244.222
212.577
179.516
145.469
110.845
76.0369
41.4069
7.3969
-25.393
-57.3753
-88.2096
-117.664
-145.573
-171.812
-196.305
-219.005
-239.892
-258.968
-276.247
-291.764
-305.55
-317.649
-328.113
-336.977
-344.277
-350.04
-354.306
-357.075
-358.312
-358.028
-356.207
-352.82
-347.842
-341.245
-332.984
-323.035
-311.373
-297.972
-282.826
-265.939
-247.316
-226.977
-204.952
-181.278
-156.008
-129.205
-100.961
-71.3915
-40.6326
-8.86335
23.664
56.7108
89.991
123.186
155.949
187.913
218.698
247.92
275.198
300.165
322.473
341.805
357.869
370.42
379.256
384.229
385.145
382.099
375.046
363.998
349.111
330.569
308.615
283.549
255.722
225.524
193.375
159.713
124.984
89.6302
54.0794
18.7341
-16.0346
-49.8924
-82.5551
-113.774
-143.348
-171.116
-196.961
-220.802
-242.591
-262.309
-279.965
-295.591
-309.237
-320.971
-330.868
-339.014
-345.501
-350.421
-353.871
-355.905
-356.586
-356.02
-354.222
-351.224
-347.042
-341.683
-335.139
-327.391
-318.409
-308.153
-296.576
-283.624
-269.24
-253.373
-235.976
-217.015
-196.466
-174.327
-150.612
-125.363
-98.6445
-70.5493
-41.1788
-10.7264
20.6029
52.5812
84.9313
117.336
149.441
180.86
211.18
239.973
266.8
291.231
312.848
331.262
346.127
357.149
364.101
366.761
365.17
359.251
349.115
334.89
316.835
295.252
270.505
243.004
213.19
181.524
148.47
114.49
80.0341
45.5385
11.4145
-21.9606
-54.2618
-85.2212
-114.625
-142.318
-168.2
-192.214
-214.339
-234.584
-252.982
-269.579
-284.435
-297.617
-309.193
-319.236
-327.811
-334.983
-340.807
-345.336
-348.611
-350.662
-351.505
-351.154
-349.641
-346.953
-343.086
-338.023
-331.744
-324.221
-315.423
-305.308
-293.838
-280.974
-266.674
-250.894
-233.599
-214.764
-194.37
-172.408
-148.885
-123.837
-97.3224
-69.426
-40.2742
-10.01
21.1296
52.8871
84.9876
117.114
148.917
180.019
210.017
238.489
265.001
289.121
310.431
328.544
343.111
353.838
360.5
362.872
361.024
354.875
344.504
330.099
311.913
290.257
265.503
238.077
208.435
177.059
144.441
111.058
77.3958
44.0304
12.3734
-19.2879
-50.1684
-79.8778
-108.196
-134.964
-160.089
-183.499
-205.129
-224.998
-243.192
-259.785
-274.837
-288.376
-300.436
-311.015
-320.141
-327.828
-334.069
-338.854
-342.205
-344.155
-344.603
-343.41
-340.861
-336.901
-331.455
-324.461
-315.816
-305.431
-293.258
-279.18
-263.164
-245.162
-225.146
-203.136
-179.162
-153.266
-125.538
-96.1038
-65.1132
-32.7754
0.638794
34.925
69.7039
104.625
139.33
173.399
206.429
237.978
267.622
294.982
319.668
341.316
359.631
374.35
385.256
392.194
395.043
393.766
388.418
379.117
365.957
349.174
329.01
305.783
279.828
251.523
221.245
189.382
156.361
122.571
88.397
54.2427
20.5255
-11.8552
-41.4408
-71.6636
-100.605
-128.025
-153.752
-339.695
-335.3
-329.409
-321.998
-313.034
-302.451
-290.197
-276.21
-260.455
-242.905
-223.529
-202.309
-179.251
-154.384
-127.755
-99.457
-69.6049
-38.3468
-5.90918
27.4523
61.5788
96.0778
130.591
164.761
198.161
230.38
260.981
289.536
315.678
339.027
359.227
375.987
389.053
398.221
403.356
404.296
401.102
393.803
382.494
367.385
348.69
326.699
301.723
274.108
244.27
212.607
179.528
145.464
110.824
76.0019
41.3604
7.34178
-25.4561
-57.4452
-88.2847
-117.742
-145.654
-171.894
-196.386
-219.086
-239.971
-259.045
-276.322
-291.836
-305.62
-317.716
-328.178
-337.04
-344.339
-350.101
-354.367
-357.134
-358.371
-358.089
-356.27
-352.885
-347.908
-341.313
-333.055
-323.108
-311.447
-298.048
-282.904
-266.017
-247.395
-227.057
-205.033
-181.359
-156.088
-129.284
-101.038
-71.4647
-40.7008
-8.92499
23.6113
56.6686
89.9612
123.17
155.948
187.929
218.731
247.97
275.266
300.248
322.573
341.918
357.995
370.556
379.4
384.381
385.299
382.247
375.191
364.137
349.24
330.684
308.715
283.632
255.787
225.569
193.4
159.719
124.972
89.6011
54.0351
18.6763
-16.1038
-49.9712
-82.6414
-113.866
-143.444
-171.214
-197.061
-220.902
-242.689
-262.405
-280.059
-295.682
-309.324
-321.054
-330.947
-339.089
-345.572
-350.489
-353.935
-355.965
-356.646
-356.078
-354.279
-351.279
-347.097
-341.739
-335.196
-327.45
-318.469
-308.215
-296.642
-283.692
-269.311
-253.447
-236.053
-217.093
-196.546
-174.407
-150.692
-125.442
-98.7215
-70.6227
-41.248
-10.7889
20.5487
52.537
84.8992
117.318
149.439
180.874
211.213
240.025
266.871
291.322
312.958
331.388
346.267
357.3
364.26
366.931
365.329
359.407
349.264
335.027
316.956
295.356
270.59
243.068
213.233
181.546
148.473
114.474
80.001
45.4902
11.3529
-22.0331
-54.3428
-85.3084
-114.716
-142.411
-168.293
-192.306
-214.429
-234.672
-253.066
-269.66
-284.512
-297.69
-309.263
-319.302
-327.875
-335.044
-340.866
-345.393
-348.666
-350.717
-351.558
-351.208
-349.694
-347.006
-343.14
-338.079
-331.801
-324.279
-315.483
-305.37
-293.902
-281.041
-266.743
-250.964
-233.672
-214.839
-194.447
-172.485
-148.963
-123.914
-97.3972
-69.4975
-40.3406
-10.0703
21.0782
52.8461
84.9587
117.099
148.918
180.036
210.053
238.543
265.075
289.214
310.542
328.672
343.252
353.99
360.659
363.042
361.182
355.032
344.652
330.236
312.035
290.36
265.587
238.141
208.478
177.083
144.445
111.043
77.3616
43.9726
12.3373
-19.3416
-50.2332
-79.9484
-108.27
-135.039
-160.166
-183.575
-205.205
-225.071
-243.263
-259.854
-274.904
-288.44
-300.498
-311.075
-320.2
-327.886
-334.127
-338.914
-342.267
-344.216
-344.659
-343.47
-340.924
-336.967
-331.523
-324.531
-315.889
-305.507
-293.337
-279.262
-263.248
-245.248
-225.233
-203.224
-179.25
-153.352
-125.621
-96.1832
-65.1871
-32.843
0.58298
34.8794
69.6708
104.607
139.328
173.413
206.462
238.029
267.691
295.069
319.772
341.436
359.764
374.495
385.409
392.354
395.211
393.922
388.57
379.263
366.094
349.298
329.118
305.875
279.903
251.579
221.283
189.403
156.366
122.56
88.3723
54.2053
20.4771
-11.9081
-41.5137
-71.7425
-100.688
-128.111
-153.84
-339.809
-335.418
-329.531
-322.125
-313.165
-302.587
-290.339
-276.358
-260.608
-243.062
-223.691
-202.473
-179.417
-154.55
-127.919
-99.6154
-69.7551
-38.4857
-6.03283
27.3457
61.4952
96.0205
130.563
164.767
198.202
230.458
261.096
289.688
315.865
339.249
359.479
376.265
389.352
398.535
403.678
404.635
401.412
394.108
382.782
367.65
348.926
326.904
301.893
274.242
244.366
212.666
179.551
145.453
110.783
75.9319
41.2673
7.23161
-25.5824
-57.5849
-88.435
-117.9
-145.816
-172.058
-196.549
-219.247
-240.129
-259.199
-276.471
-291.979
-305.758
-317.85
-328.306
-337.165
-344.46
-350.222
-354.487
-357.249
-358.49
-358.209
-356.392
-353.011
-348.038
-341.446
-333.191
-323.248
-311.591
-298.194
-283.052
-266.167
-247.546
-227.209
-205.185
-181.511
-156.239
-129.432
-101.181
-71.5997
-40.8255
-9.03619
23.5182
56.5968
89.9142
123.151
155.96
187.973
218.809
248.082
275.413
300.429
322.784
342.158
358.26
370.841
379.701
384.69
385.623
382.555
375.494
364.426
349.509
330.928
308.928
283.811
255.928
225.672
193.464
159.744
124.961
89.5575
53.9613
18.5759
-16.2267
-50.1128
-82.7977
-114.034
-143.619
-171.394
-197.242
-221.083
-242.868
-262.58
-280.228
-295.845
-309.48
-321.202
-331.088
-339.222
-345.697
-350.608
-354.046
-356.067
-356.747
-356.176
-354.374
-351.373
-347.191
-341.834
-335.293
-327.55
-318.574
-308.325
-296.757
-283.813
-269.438
-253.579
-236.19
-217.234
-196.69
-174.552
-150.838
-125.586
-98.8608
-70.7549
-41.372
-10.8995
20.4546
52.4629
84.8488
117.295
149.447
180.917
211.292
240.142
267.028
291.516
313.189
331.653
346.56
357.615
364.589
367.282
365.657
359.733
349.572
335.312
317.211
295.575
270.77
243.207
213.331
181.604
148.491
114.455
79.9484
45.4073
11.2435
-22.164
-54.4906
-85.4682
-114.883
-142.582
-168.464
-192.474
-214.593
-234.831
-253.219
-269.805
-284.651
-297.821
-309.387
-319.42
-327.987
-335.151
-340.969
-345.494
-348.763
-350.812
-351.649
-351.301
-349.787
-347.1
-343.235
-338.176
-331.901
-324.382
-315.589
-305.48
-294.017
-281.161
-266.867
-251.093
-233.805
-214.976
-194.586
-172.627
-149.105
-124.055
-97.5336
-69.6273
-40.4603
-10.178
20.9883
52.7769
84.9134
117.081
148.931
180.083
210.135
238.664
265.234
289.411
310.776
328.938
343.546
354.305
360.987
363.388
361.51
355.354
344.958
330.518
312.286
290.576
265.764
238.276
208.572
177.136
144.459
111.019
77.2983
43.8613
12.2692
-19.4458
-50.3594
-80.0866
-108.415
-135.188
-160.315
-183.724
-205.354
-225.216
-243.404
-259.991
-275.035
-288.567
-300.622
-311.195
-320.317
-328.002
-334.242
-339.032
-342.391
-344.338
-344.772
-343.587
-341.049
-337.097
-331.659
-324.673
-316.036
-305.66
-293.495
-279.425
-263.416
-245.419
-225.406
-203.398
-179.424
-153.523
-125.788
-96.3417
-65.3348
-32.9775
0.470914
34.7881
69.6049
104.57
139.322
173.442
206.526
238.13
267.83
295.244
319.982
341.677
360.032
374.785
385.716
392.671
395.548
394.234
388.877
379.555
366.367
349.545
329.334
306.058
280.051
251.692
221.36
189.446
156.375
122.539
88.323
54.1306
20.3802
-12.0143
-41.6592
-71.9003
-100.855
-128.283
-154.016
-339.982
-335.595
-329.713
-322.314
-313.362
-302.792
-290.552
-276.579
-260.837
-243.298
-223.932
-202.72
-179.666
-154.798
-128.164
-99.8533
-69.9805
-38.6943
-6.21871
27.1858
61.3695
95.9342
130.522
164.775
198.263
230.574
261.268
289.915
316.146
339.581
359.857
376.683
389.801
399.006
404.16
405.137
401.884
394.566
383.214
368.047
349.281
327.211
302.148
274.442
244.511
212.755
179.586
145.437
110.72
75.8266
41.1273
7.06633
-25.7719
-57.7948
-88.6607
-118.136
-146.059
-172.303
-196.794
-219.489
-240.366
-259.429
-276.694
-292.194
-305.965
-318.05
-328.499
-337.352
-344.642
-350.402
-354.665
-357.422
-358.668
-358.389
-356.576
-353.2
-348.232
-341.646
-333.396
-323.458
-311.806
-298.413
-283.274
-266.391
-247.772
-227.436
-205.413
-181.738
-156.463
-129.652
-101.394
-71.801
-41.0112
-9.20122
23.3802
56.4909
89.8455
123.124
155.979
188.042
218.928
248.254
275.636
300.702
323.104
342.52
358.659
371.271
380.154
385.154
386.11
383.024
375.951
364.864
349.917
331.296
309.25
284.081
256.142
225.828
193.562
159.786
124.948
89.4944
53.8528
18.4274
-16.4087
-50.323
-83.0301
-114.283
-143.879
-171.661
-197.512
-221.352
-243.134
-262.84
-280.481
-296.088
-309.713
-321.423
-331.297
-339.419
-345.883
-350.783
-354.21
-356.219
-356.898
-356.32
-354.514
-351.512
-347.33
-341.975
-335.437
-327.698
-318.728
-308.487
-296.927
-283.992
-269.626
-253.775
-236.393
-217.443
-196.903
-174.768
-151.054
-125.798
-99.0674
-70.9507
-41.5555
-11.0629
20.316
52.3542
84.7757
117.264
149.462
180.983
211.413
240.321
267.265
291.811
313.538
332.052
347.002
358.09
365.085
367.805
366.157
360.226
350.038
335.743
317.596
295.906
271.043
243.419
213.481
181.692
148.52
114.429
79.8717
45.2849
11.0813
-22.3582
-54.7104
-85.706
-115.132
-142.836
-168.718
-192.725
-214.838
-235.067
-253.445
-270.022
-284.857
-298.017
-309.572
-319.595
-328.154
-335.31
-341.122
-345.641
-348.907
-350.951
-351.786
-351.438
-349.924
-347.238
-343.375
-338.319
-332.048
-324.535
-315.746
-305.644
-294.188
-281.338
-267.05
-251.283
-234.002
-215.178
-194.794
-172.836
-149.316
-124.264
-97.7359
-69.8197
-40.6378
-10.3372
20.856
52.6756
84.848
117.057
148.952
180.155
210.262
238.847
265.475
289.71
311.13
329.341
343.99
354.781
361.482
363.906
362.009
355.841
345.419
330.942
312.664
290.9
266.029
238.48
208.713
177.215
144.479
110.983
77.2039
43.6936
12.1681
-19.6028
-50.5492
-80.2942
-108.632
-135.411
-160.54
-183.949
-205.577
-225.434
-243.615
-260.195
-275.233
-288.758
-300.807
-311.375
-320.493
-328.175
-334.415
-339.21
-342.577
-344.519
-344.943
-343.765
-341.237
-337.293
-331.862
-324.885
-316.257
-305.888
-293.732
-279.67
-263.667
-245.675
-225.666
-203.66
-179.685
-153.78
-126.038
-96.5798
-65.5563
-33.1788
0.301832
34.6509
69.5057
104.514
139.314
173.485
206.623
238.283
268.038
295.507
320.296
342.038
360.434
375.221
386.177
393.148
396.042
394.711
389.34
379.995
366.777
349.915
329.659
306.333
280.273
251.86
221.475
189.509
156.389
122.507
88.2487
54.0183
20.2344
-12.1742
-41.8775
-72.137
-101.104
-128.542
-154.28
-340.211
-335.831
-329.956
-322.566
-313.625
-303.065
-290.837
-276.874
-261.142
-243.613
-224.255
-203.049
-179.998
-155.131
-128.491
-100.171
-70.2816
-38.9731
-6.46752
26.9727
61.2017
95.8187
130.466
164.785
198.343
230.728
261.497
290.218
316.521
340.024
360.362
377.24
390.4
399.635
404.803
405.796
402.522
395.177
383.791
368.577
349.755
327.621
302.488
274.709
244.703
212.873
179.632
145.416
110.636
75.6857
40.94
6.84598
-26.0249
-58.075
-88.9619
-118.452
-146.383
-172.631
-197.121
-219.811
-240.681
-259.736
-276.991
-292.481
-306.242
-318.316
-328.757
-337.601
-344.886
-350.642
-354.901
-357.655
-358.906
-358.629
-356.82
-353.451
-348.492
-341.912
-333.67
-323.738
-312.092
-298.705
-283.57
-266.691
-248.074
-227.739
-205.716
-182.04
-156.763
-129.946
-101.678
-72.0698
-41.2594
-9.42109
23.1962
56.3497
89.7541
123.089
156.006
188.133
219.089
248.483
275.934
301.067
323.531
343.004
359.193
371.847
380.76
385.776
386.752
383.657
376.564
365.449
350.461
331.788
309.68
284.442
256.429
226.037
193.693
159.841
124.931
89.4104
53.7082
18.2294
-16.6515
-50.6034
-83.3399
-114.615
-144.226
-172.018
-197.873
-221.712
-243.489
-263.187
-280.818
-296.412
-310.022
-321.717
-331.575
-339.681
-346.13
-351.015
-354.426
-356.425
-357.097
-356.512
-354.701
-351.697
-347.515
-342.161
-335.628
-327.895
-318.934
-308.703
-297.153
-284.23
-269.876
-254.036
-236.664
-217.722
-197.187
-175.056
-151.341
-126.082
-99.3425
-71.2122
-41.7998
-11.2804
20.1317
52.2096
84.6786
117.222
149.482
181.072
211.575
240.559
267.582
292.205
314.006
332.586
347.592
358.725
365.748
368.49
366.835
360.886
350.662
336.318
318.11
296.35
271.408
243.702
213.681
181.81
148.56
114.395
79.7694
45.1216
10.8647
-22.6175
-55.0039
-86.0232
-115.464
-143.175
-169.058
-193.06
-215.164
-235.382
-253.748
-270.311
-285.131
-298.277
-309.819
-319.829
-328.376
-335.522
-341.326
-345.838
-349.097
-351.137
-351.97
-351.621
-350.106
-347.423
-343.562
-338.51
-332.245
-324.737
-315.956
-305.861
-294.415
-281.574
-267.295
-251.536
-234.264
-215.449
-195.07
-173.116
-149.597
-124.542
-98.0056
-70.0762
-40.8744
-10.5494
20.6801
52.5409
84.7611
117.025
148.982
180.252
210.431
239.093
265.798
290.11
311.602
329.878
344.583
355.417
362.144
364.589
362.682
356.492
346.035
331.508
313.168
291.333
266.383
238.751
208.901
177.321
144.507
110.936
77.0786
43.4683
12.0346
-19.8139
-50.8034
-80.5717
-108.923
-135.708
-160.841
-184.249
-205.874
-225.725
-243.897
-260.468
-275.497
-289.013
-301.054
-311.615
-320.727
-328.406
-334.646
-339.445
-342.819
-344.756
-345.176
-344.004
-341.488
-337.554
-332.134
-325.167
-316.551
-306.193
-294.048
-279.996
-264.002
-246.017
-226.013
-204.009
-180.033
-154.124
-126.372
-96.8976
-65.852
-33.4463
0.0748428
34.4673
69.3731
104.439
139.303
173.542
206.752
238.486
268.316
295.857
320.716
342.52
360.971
375.802
386.792
393.783
396.684
395.356
389.962
380.583
367.324
350.41
330.093
306.7
280.569
252.084
221.628
189.593
156.408
122.463
88.1493
53.8682
20.0405
-12.389
-42.1688
-72.4527
-101.438
-128.887
-154.632
-340.498
-336.125
-330.26
-322.881
-313.953
-303.407
-291.192
-277.243
-261.524
-244.006
-224.659
-203.46
-180.414
-155.546
-128.901
-100.568
-70.6585
-39.3225
-6.77984
26.7063
60.9913
95.6736
130.395
164.798
198.444
230.92
261.783
290.597
316.99
340.578
360.993
377.937
391.15
400.422
405.609
406.611
403.326
395.945
384.513
369.239
350.348
328.133
302.913
275.042
244.943
213.021
179.69
145.388
110.53
75.5089
40.7049
6.57051
-26.3416
-58.4258
-89.339
-118.847
-146.789
-173.04
-197.53
-220.215
-241.077
-260.12
-277.363
-292.84
-306.587
-318.649
-329.079
-337.913
-345.189
-350.941
-355.195
-357.949
-359.203
-358.929
-357.126
-353.766
-348.816
-342.245
-334.012
-324.089
-312.451
-299.07
-283.94
-267.065
-248.451
-228.118
-206.095
-182.419
-157.137
-130.314
-102.034
-72.4067
-41.5707
-9.69632
22.9656
56.1725
89.6392
123.045
156.038
188.248
219.289
248.77
276.306
301.523
324.066
343.61
359.861
372.566
381.518
386.556
387.548
384.452
377.332
366.181
351.142
332.403
310.218
284.894
256.787
226.299
193.857
159.909
124.909
89.3046
53.5266
17.981
-16.9559
-50.9546
-83.7282
-115.03
-144.661
-172.464
-198.323
-222.162
-243.933
-263.622
-281.239
-296.817
-310.409
-322.085
-331.923
-340.008
-346.439
-351.305
-354.697
-356.683
-357.346
-356.751
-354.935
-351.928
-347.746
-342.395
-335.867
-328.142
-319.191
-308.972
-297.436
-284.527
-270.188
-254.362
-237.002
-218.07
-197.543
-175.415
-151.701
-126.437
-99.687
-71.5399
-42.1057
-11.5524
19.9006
52.0282
84.5565
117.169
149.507
181.183
211.777
240.858
267.979
292.698
314.59
333.254
348.332
359.52
366.58
369.339
367.69
361.714
351.443
337.039
318.754
296.904
271.865
244.056
213.931
181.958
148.609
114.351
79.6407
44.9166
10.5929
-22.9427
-55.3718
-86.4208
-115.88
-143.599
-169.482
-193.479
-215.572
-235.777
-254.126
-270.672
-285.474
-298.602
-310.127
-320.121
-328.654
-335.787
-341.581
-346.084
-349.335
-351.368
-352.201
-351.85
-350.334
-347.653
-343.796
-338.749
-332.49
-324.991
-316.218
-306.134
-294.698
-281.868
-267.601
-251.854
-234.592
-215.786
-195.415
-173.467
-149.949
-124.89
-98.3435
-70.3975
-41.1713
-10.8152
20.4599
52.3721
84.6521
116.984
149.018
180.373
210.642
239.399
266.202
290.609
312.193
330.551
345.326
356.212
362.974
365.438
363.528
357.307
346.806
332.217
313.8
291.874
266.826
239.09
209.135
177.453
144.54
110.876
76.923
43.1838
11.8697
-20.0809
-51.1229
-80.9194
-109.287
-136.081
-161.217
-184.625
-206.247
-226.088
-244.25
-260.809
-275.827
-289.332
-301.362
-311.915
-321.02
-328.695
-334.934
-339.738
-343.117
-345.052
-345.471
-344.305
-341.802
-337.881
-332.474
-325.521
-316.918
-306.575
-294.443
-280.405
-264.421
-246.445
-226.447
-204.446
-180.469
-154.554
-126.789
-97.2954
-66.2221
-33.7805
-0.210447
34.237
69.2067
104.345
139.288
173.612
206.912
238.74
268.663
296.294
321.24
343.123
361.642
376.53
387.562
394.578
397.484
396.16
390.743
381.319
368.008
351.028
330.635
307.159
280.94
252.365
221.818
189.697
156.43
122.409
88.0244
53.6804
19.7985
-12.6602
-42.5332
-72.8477
-101.855
-129.319
-155.073
-340.842
-336.478
-330.625
-323.259
-314.346
-303.817
-291.619
-277.686
-261.982
-244.478
-225.143
-203.954
-180.913
-156.045
-129.393
-101.046
-71.1118
-39.7429
-7.15617
26.3863
60.7378
95.4984
130.31
164.812
198.564
231.151
262.126
291.051
317.552
341.243
361.751
378.774
392.05
401.367
406.578
407.587
404.293
396.867
385.38
370.036
351.059
328.748
303.423
275.441
245.23
213.197
179.758
145.354
110.402
75.2956
40.4212
6.23985
-26.7222
-58.8477
-89.7924
-119.322
-147.277
-173.533
-198.021
-220.699
-241.551
-260.582
-277.809
-293.271
-307.002
-319.049
-329.465
-338.287
-345.553
-351.299
-355.547
-358.302
-359.559
-359.288
-357.492
-354.144
-349.205
-342.645
-334.422
-324.51
-312.881
-299.508
-284.384
-267.514
-248.903
-228.573
-206.551
-182.873
-157.588
-130.755
-102.461
-72.8122
-41.9459
-10.0273
22.6879
55.9589
89.5004
122.99
156.076
188.385
219.529
249.114
276.754
302.071
324.708
344.338
360.664
373.431
382.429
387.495
388.503
385.408
378.256
367.061
351.96
333.143
310.865
285.435
257.217
226.612
194.053
159.991
124.882
89.1765
53.3072
17.6816
-17.3226
-51.3773
-84.1954
-115.531
-145.184
-173.001
-198.865
-222.703
-244.467
-264.144
-281.745
-297.304
-310.875
-322.527
-332.34
-340.402
-346.809
-351.653
-355.023
-356.994
-357.644
-357.038
-355.216
-352.205
-348.024
-342.676
-336.154
-328.439
-319.5
-309.296
-297.776
-284.885
-270.563
-254.754
-237.409
-218.489
-197.971
-175.848
-152.133
-126.864
-100.101
-71.9346
-42.474
-11.8796
19.6221
51.8092
84.4089
117.104
149.536
181.314
212.02
241.215
268.454
293.29
315.292
334.057
349.22
360.475
367.579
370.36
368.716
362.708
352.383
337.904
319.527
297.569
272.412
244.48
214.23
182.134
148.666
114.298
79.485
44.669
10.2651
-23.3346
-55.8149
-86.8993
-116.38
-144.109
-169.993
-193.982
-216.063
-236.251
-254.581
-271.105
-285.887
-298.993
-310.498
-320.472
-328.988
-336.106
-341.887
-346.378
-349.621
-351.647
-352.477
-352.124
-350.609
-347.93
-344.077
-339.036
-332.785
-325.295
-316.533
-306.461
-295.039
-282.222
-267.968
-252.235
-234.987
-216.192
-195.83
-173.888
-150.372
-125.309
-98.7503
-70.7841
-41.529
-11.1352
20.1949
52.1684
84.5202
116.935
149.061
180.517
210.895
239.766
266.686
291.209
312.902
331.359
346.217
357.168
363.972
366.456
364.545
358.288
347.733
333.07
314.558
292.524
267.356
239.496
209.416
177.611
144.58
110.805
76.7379
42.8389
11.6738
-20.4057
-51.5085
-81.3379
-109.724
-136.529
-161.669
-185.076
-206.693
-226.525
-244.673
-261.219
-276.223
-289.715
-301.733
-312.274
-321.372
-329.041
-335.279
-340.088
-343.472
-345.406
-345.828
-344.668
-342.179
-338.273
-332.881
-325.945
-317.359
-307.034
-294.918
-280.895
-264.924
-246.958
-226.968
-204.971
-180.993
-155.07
-127.29
-97.7735
-66.667
-34.1819
-0.554376
33.9595
69.0061
104.231
139.27
173.696
207.105
239.044
269.079
296.82
321.869
343.847
362.447
377.403
388.486
395.533
398.447
397.124
391.679
382.205
368.83
351.771
331.285
307.709
281.384
252.701
222.047
189.821
156.456
122.343
87.8738
53.4545
19.5085
-12.9896
-42.9709
-73.322
-102.356
-129.838
-155.603
-341.243
-336.89
-331.05
-323.7
-314.805
-304.295
-292.118
-278.203
-262.517
-245.03
-225.709
-204.53
-181.496
-156.628
-129.968
-101.604
-71.642
-40.2349
-7.59708
26.012
60.4407
95.2925
130.209
164.827
198.703
231.419
262.526
291.581
318.208
342.02
362.636
379.752
393.102
402.471
407.711
408.727
405.419
397.945
386.393
370.965
351.89
329.466
304.018
275.907
245.565
213.401
179.837
145.313
110.25
75.0452
40.0878
5.85402
-27.1673
-59.3412
-90.3224
-119.877
-147.846
-174.108
-198.595
-221.265
-242.105
-261.12
-278.331
-293.773
-307.486
-319.515
-329.915
-338.723
-345.978
-351.717
-355.959
-358.713
-359.975
-359.707
-357.92
-354.584
-349.659
-343.112
-334.901
-325.001
-313.383
-300.019
-284.902
-268.038
-249.432
-229.104
-207.083
-183.403
-158.113
-131.271
-102.961
-73.2871
-42.3853
-10.4145
22.3623
55.7083
89.3371
122.926
156.12
188.544
219.808
249.516
277.276
302.71
325.457
345.187
361.602
374.441
383.493
388.593
389.618
386.521
379.336
368.09
352.916
334.007
311.619
286.068
257.718
226.976
194.28
160.085
124.849
89.0253
53.0494
17.3305
-17.7522
-51.8724
-84.7424
-116.116
-145.796
-173.628
-199.499
-223.335
-245.091
-264.753
-282.336
-297.872
-311.418
-323.043
-332.828
-340.862
-347.242
-352.059
-355.404
-357.357
-357.991
-357.373
-355.543
-352.529
-348.348
-343.004
-336.489
-328.785
-319.86
-309.674
-298.173
-285.302
-271.002
-255.212
-237.885
-218.979
-198.472
-176.354
-152.639
-127.363
-100.586
-72.3969
-42.9048
-12.2624
19.2955
51.5521
84.2349
117.026
149.568
181.467
212.301
241.631
269.008
293.98
316.111
334.994
350.258
361.591
368.748
371.554
369.913
363.869
353.481
338.916
320.429
298.346
273.052
244.975
214.578
182.338
148.732
114.233
79.3014
44.378
9.88053
-23.7942
-56.3341
-87.4597
-116.966
-144.706
-170.59
-194.571
-216.637
-236.804
-255.112
-271.612
-286.368
-299.45
-310.93
-320.882
-329.377
-336.478
-342.244
-346.723
-349.955
-351.973
-352.798
-352.443
-350.929
-348.253
-344.404
-339.371
-333.129
-325.651
-316.901
-306.844
-295.437
-282.635
-268.398
-252.681
-235.447
-216.666
-196.315
-174.381
-150.867
-125.798
-99.2263
-71.2369
-41.9485
-11.5099
19.8847
51.9291
84.3647
116.875
149.109
180.683
211.189
240.194
267.251
291.909
313.73
332.303
347.259
358.286
365.138
367.645
365.732
359.435
348.816
334.065
315.444
293.283
267.976
239.97
209.742
177.793
144.625
110.721
76.5245
42.4345
11.4454
-20.7913
-51.9616
-81.8278
-110.236
-137.053
-162.197
-185.602
-207.214
-227.034
-245.166
-261.697
-276.685
-290.162
-302.165
-312.694
-321.782
-329.446
-335.681
-340.494
-343.882
-345.818
-346.245
-345.093
-342.62
-338.73
-333.357
-326.44
-317.873
-307.57
-295.472
-281.467
-265.512
-247.558
-227.577
-205.584
-181.604
-155.674
-127.876
-98.3325
-67.1872
-34.6511
-0.957406
33.6343
68.7707
104.097
139.247
173.793
207.328
239.398
269.564
297.432
322.604
344.692
363.388
378.424
389.566
396.649
399.574
398.249
392.772
383.239
369.79
352.638
332.045
308.351
281.902
253.092
222.313
189.966
156.485
122.265
87.697
53.1901
19.1706
-13.3787
-43.482
-73.8759
-102.941
-130.444
-156.222
-341.702
-337.361
-331.536
-324.205
-315.33
-304.841
-292.688
-278.794
-263.128
-245.66
-226.356
-205.19
-182.164
-157.296
-130.627
-102.243
-72.2498
-40.799
-8.10309
25.5828
60.0993
95.0552
130.092
164.843
198.861
231.724
262.982
292.187
318.959
342.907
363.649
380.871
394.306
403.735
409.008
410.031
406.705
399.179
387.553
372.03
352.84
330.287
304.698
276.439
245.946
213.634
179.925
145.265
110.076
74.7568
39.7033
5.41321
-27.6772
-59.9067
-90.9297
-120.513
-148.498
-174.767
-199.251
-221.912
-242.738
-261.736
-278.926
-294.348
-308.039
-320.048
-330.43
-339.22
-346.463
-352.193
-356.429
-359.184
-360.447
-360.186
-358.409
-355.086
-350.177
-343.646
-335.449
-325.563
-313.957
-300.603
-285.495
-268.638
-250.036
-229.711
-207.691
-184.01
-158.715
-131.862
-103.533
-73.8315
-42.8895
-10.8585
21.9883
55.4201
89.149
122.85
156.169
188.725
220.126
249.974
277.873
303.441
326.315
346.16
362.674
375.596
384.711
389.851
390.895
387.794
380.572
369.267
354.01
334.995
312.483
286.791
258.291
227.393
194.54
160.19
124.809
88.8504
52.7526
16.9268
-18.2454
-52.4407
-85.3697
-116.787
-146.497
-174.347
-200.225
-224.059
-245.805
-265.452
-283.013
-298.523
-312.04
-323.633
-333.387
-341.388
-347.736
-352.523
-355.841
-357.77
-358.388
-357.756
-355.917
-352.899
-348.718
-343.378
-336.872
-329.181
-320.273
-310.106
-298.628
-285.78
-271.503
-255.737
-238.429
-219.54
-199.045
-176.933
-153.219
-127.935
-101.142
-72.927
-43.3999
-12.7013
18.92
51.256
84.0339
116.936
149.603
181.639
212.622
242.107
269.641
294.769
317.049
336.066
351.446
362.87
370.087
372.922
371.283
365.199
354.739
340.074
321.462
299.235
273.782
245.54
214.976
182.569
148.805
114.158
79.0893
44.0427
9.43856
-24.3229
-56.9303
-88.103
-117.638
-145.391
-171.274
-195.245
-217.293
-237.438
-255.72
-272.192
-286.919
-299.972
-311.425
-321.351
-329.823
-336.903
-342.651
-347.116
-350.337
-352.346
-353.164
-352.809
-351.295
-348.622
-344.779
-339.755
-333.523
-326.057
-317.322
-307.281
-295.891
-283.109
-268.89
-253.19
-235.974
-217.209
-196.87
-174.945
-151.433
-126.359
-99.7722
-71.7563
-42.4296
-11.9407
19.5289
51.6536
84.1849
116.805
149.162
180.872
211.523
240.682
267.896
292.709
314.677
333.383
348.452
359.565
366.475
369.008
367.09
360.748
350.057
335.205
316.458
294.15
268.684
240.511
210.114
177.999
144.676
110.626
76.2852
41.9774
11.1762
-21.2415
-52.4833
-82.3897
-110.822
-137.653
-162.801
-186.205
-207.811
-227.616
-245.731
-262.243
-277.213
-290.672
-302.658
-313.173
-322.251
-329.907
-336.141
-340.956
-344.35
-346.289
-346.722
-345.58
-343.124
-339.253
-333.901
-327.006
-318.462
-308.183
-296.106
-282.121
-266.183
-248.243
-228.273
-206.285
-182.304
-156.364
-128.547
-98.9727
-67.7833
-35.1888
-1.42012
33.2607
68.4999
103.942
139.219
173.903
207.582
239.802
270.118
298.133
323.443
345.658
364.465
379.591
390.802
397.927
400.864
399.536
394.021
384.424
370.889
353.63
332.913
309.084
282.493
253.538
222.615
190.129
156.517
122.175
87.4937
52.8865
18.7841
-13.8294
-44.0665
-74.5096
-103.61
-131.138
-156.931
-342.217
-337.89
-332.083
-324.772
-315.919
-305.456
-293.329
-279.459
-263.816
-246.369
-227.084
-205.933
-182.915
-158.048
-131.369
-102.963
-72.9356
-41.4358
-8.67485
25.0976
59.7126
94.7856
129.958
164.859
199.037
232.067
263.494
292.867
319.803
343.907
364.789
382.131
395.662
405.16
410.471
411.503
408.153
400.569
388.859
373.229
353.909
331.211
305.463
277.037
246.375
213.895
180.023
145.209
109.877
74.4295
39.2657
4.91805
-28.2528
-60.5448
-91.6147
-121.23
-149.234
-175.509
-199.99
-222.641
-243.451
-262.429
-279.597
-294.994
-308.661
-320.647
-331.009
-339.78
-347.008
-352.729
-356.958
-359.712
-360.979
-360.724
-358.959
-355.652
-350.76
-344.246
-336.066
-326.195
-314.603
-301.261
-286.163
-269.313
-250.716
-230.395
-208.376
-184.694
-159.392
-132.528
-104.179
-74.446
-43.4595
-11.36
21.5655
55.0934
88.9353
122.764
156.222
188.927
220.483
250.489
278.544
304.264
327.281
347.255
363.883
376.899
386.084
391.27
392.335
389.228
381.966
370.594
355.243
336.109
313.455
287.606
258.935
227.86
194.83
160.308
124.762
88.651
52.4161
16.4694
-18.803
-53.0829
-86.0782
-117.544
-147.288
-175.157
-201.044
-224.875
-246.61
-266.239
-283.775
-299.257
-312.74
-324.299
-334.015
-341.98
-348.292
-353.045
-356.332
-358.236
-358.834
-358.187
-356.339
-353.315
-349.134
-343.8
-337.303
-329.626
-320.736
-310.592
-299.139
-286.319
-272.069
-256.328
-239.043
-220.173
-199.69
-177.587
-153.872
-128.58
-101.77
-73.5256
-43.9596
-13.1971
18.495
50.9203
83.805
116.832
149.639
181.831
212.98
242.64
270.353
295.657
318.104
337.274
352.785
364.311
371.598
374.466
372.826
366.698
356.157
341.379
322.626
300.235
274.604
246.175
215.421
182.829
148.886
114.071
78.8477
43.6623
8.93861
-24.9222
-57.6045
-88.8301
-118.396
-146.163
-172.046
-196.005
-218.033
-238.153
-256.404
-272.845
-287.539
-300.56
-311.982
-321.879
-330.324
-337.382
-343.11
-347.559
-350.767
-352.766
-353.58
-353.221
-351.707
-349.037
-345.201
-340.186
-333.967
-326.515
-317.796
-307.773