/*--------------------------------*- C++ -*----------------------------------*\
| =========                 |                                                 |
| \\      /  F ield         | OpenFOAM: The Open Source CFD Toolbox           |
|  \\    /   O peration     | Version:  3.0.1                                 |
|   \\  /    A nd           | Web:      www.OpenFOAM.org                      |
|    \\/     M anipulation  |                                                 |
\*---------------------------------------------------------------------------*/
FoamFile
{
    version     2.0;
    format      ascii;
    class       surfaceScalarField;
    location    "53.6";
    object      phi;
}
// * * * * * * * * * * * * * * * * * * * * * * * * * * * * * * * * * * * * * //

dimensions      [0 3 -1 0 0 0 0];

internalField   nonuniform List<scalar> 
42423
(
-0.000177289
-1.74162e-06
-0.000174758
-2.53152e-06
-0.000171524
-3.23374e-06
-0.000167544
-3.9795e-06
-0.000162697
-4.84714e-06
-0.000157093
-5.60457e-06
-0.000150433
-6.66003e-06
-0.000142994
-7.43924e-06
-0.00013479
-8.20326e-06
-0.000125622
-9.16878e-06
-0.000115428
-1.01936e-05
-0.000104356
-1.10716e-05
-9.22101e-05
-1.21463e-05
-7.90933e-05
-1.31168e-05
-6.49255e-05
-1.41679e-05
-4.98142e-05
-1.51113e-05
-3.40231e-05
-1.57911e-05
-1.7348e-05
-1.66751e-05
5.97666e-08
-1.74078e-05
1.79575e-05
-1.78977e-05
3.64161e-05
-1.84587e-05
5.52877e-05
-1.88716e-05
7.41226e-05
-1.88349e-05
9.28535e-05
-1.87309e-05
0.000111209
-1.83554e-05
0.000129012
-1.78032e-05
0.000146018
-1.70064e-05
0.000161815
-1.57965e-05
0.000176208
-1.43936e-05
0.00018897
-1.27614e-05
0.000199848
-1.08781e-05
0.000208711
-8.86278e-06
0.000215347
-6.63629e-06
0.000219675
-4.32825e-06
0.000221581
-1.90552e-06
0.000220935
6.45581e-07
0.000217835
3.09992e-06
0.000212339
5.49622e-06
0.000204397
7.94125e-06
0.000194375
1.00226e-05
0.000182324
1.20507e-05
0.000168654
1.36695e-05
0.000153492
1.51623e-05
0.000136964
1.65284e-05
0.000119457
1.75069e-05
0.00010117
1.8287e-05
8.24405e-05
1.87292e-05
6.34907e-05
1.89498e-05
4.45252e-05
1.89655e-05
2.57897e-05
1.87355e-05
7.47379e-06
1.83159e-05
-1.03279e-05
1.78017e-05
-2.74373e-05
1.71093e-05
-4.37826e-05
1.63453e-05
-5.92333e-05
1.54507e-05
-7.37488e-05
1.45155e-05
-8.73126e-05
1.35638e-05
-9.98441e-05
1.25314e-05
-0.000111357
1.15132e-05
-0.00012188
1.05232e-05
-0.000131418
9.53764e-06
-0.000140034
8.61559e-06
-0.000147682
7.64782e-06
-0.000154426
6.74419e-06
-0.000160347
5.92081e-06
-0.000165382
5.0352e-06
-0.000169581
4.19924e-06
-0.000173039
3.45824e-06
-0.000175726
2.68631e-06
-0.000177762
2.03619e-06
-0.000179028
1.26645e-06
-0.000179556
5.27584e-07
-0.000179455
-1.01125e-07
-0.000178653
-8.01603e-07
-0.000177027
-1.62611e-06
-0.000174749
-2.27779e-06
-0.000171592
-3.1572e-06
-0.000167679
-3.91258e-06
-0.000162975
-4.70421e-06
-0.000157404
-5.57071e-06
-0.000150977
-6.42739e-06
-0.000143656
-7.32116e-06
-0.000135517
-8.13871e-06
-0.00012646
-9.05745e-06
-0.000116524
-9.93603e-06
-0.000105643
-1.08809e-05
-9.38756e-05
-1.17672e-05
-8.11302e-05
-1.27454e-05
-6.76186e-05
-1.35117e-05
-5.32607e-05
-1.4358e-05
-3.81232e-05
-1.51375e-05
-2.22677e-05
-1.58555e-05
-5.79641e-06
-1.64713e-05
1.11744e-05
-1.69708e-05
2.85459e-05
-1.73715e-05
4.61695e-05
-1.76237e-05
6.38905e-05
-1.7721e-05
8.15363e-05
-1.76459e-05
9.89268e-05
-1.73905e-05
0.000115825
-1.68986e-05
0.000132063
-1.62374e-05
0.000147393
-1.53301e-05
0.000161612
-1.42196e-05
0.000174479
-1.28666e-05
0.000185817
-1.13382e-05
0.000195399
-9.58223e-06
0.000203052
-7.65299e-06
0.000208643
-5.59106e-06
0.000212033
-3.38984e-06
0.000213164
-1.13113e-06
0.000212003
1.16091e-06
0.000208451
3.55189e-06
0.000202576
5.87514e-06
0.000194491
8.08537e-06
0.000184281
1.02097e-05
0.00017209
1.21913e-05
0.000158162
1.39278e-05
0.00014268
1.54817e-05
0.000125948
1.67317e-05
0.0001082
1.77482e-05
8.9673e-05
1.85272e-05
7.07164e-05
1.89566e-05
5.15551e-05
1.91613e-05
3.24397e-05
1.91153e-05
1.3509e-05
1.89307e-05
-4.94023e-06
1.84492e-05
-2.27842e-05
1.78439e-05
-3.98549e-05
1.70707e-05
-5.60583e-05
1.62034e-05
-7.13049e-05
1.52465e-05
-8.54887e-05
1.41839e-05
-9.8601e-05
1.31123e-05
-0.000110583
1.19824e-05
-0.00012153
1.09468e-05
-0.00013128
9.74975e-06
-0.000139994
8.71371e-06
-0.000147602
7.60827e-06
-0.000154199
6.59666e-06
-0.000159773
5.57436e-06
-0.000164417
4.64354e-06
-0.000168166
3.74911e-06
-0.000171075
2.90957e-06
-0.000173207
2.13143e-06
-0.000174628
1.42147e-06
-0.000175417
7.89395e-07
-0.000175606
1.88137e-07
-0.000175212
-3.94e-07
-0.000174298
-9.13317e-07
-0.000172822
-1.47605e-06
-0.000170813
-2.00955e-06
-0.000168272
-2.54098e-06
-0.00016516
-3.11133e-06
-0.000161505
-3.65534e-06
-0.000157262
-4.24332e-06
-0.000152421
-4.84045e-06
-0.000146966
-5.45583e-06
-0.000140838
-6.12769e-06
-0.000134022
-6.81556e-06
-0.000126508
-7.51396e-06
-0.00011821
-8.29879e-06
-0.000109139
-9.07078e-06
-9.9261e-05
-9.87784e-06
-8.85761e-05
-1.0685e-05
-7.70567e-05
-1.15194e-05
-6.47702e-05
-1.22865e-05
-5.16657e-05
-1.31045e-05
-3.78147e-05
-1.3851e-05
-2.32153e-05
-1.45995e-05
-7.93551e-06
-1.52799e-05
7.9394e-06
-1.5875e-05
2.42707e-05
-1.63314e-05
4.09769e-05
-1.67063e-05
5.78937e-05
-1.69168e-05
7.48509e-05
-1.69572e-05
9.164e-05
-1.67892e-05
0.000108078
-1.64381e-05
0.000123901
-1.58229e-05
0.000138893
-1.4992e-05
0.000152768
-1.38754e-05
0.000165242
-1.24739e-05
0.000176112
-1.087e-05
0.000185096
-8.98371e-06
0.000192021
-6.92513e-06
0.000196722
-4.70072e-06
0.000199048
-2.32655e-06
0.000198966
8.22733e-08
0.000196451
2.51503e-06
0.000191471
4.97981e-06
0.000184178
7.29308e-06
0.000174733
9.4448e-06
0.000163242
1.14912e-05
0.000149959
1.32822e-05
0.000135043
1.49164e-05
0.000118767
1.62758e-05
0.000101421
1.73461e-05
8.32955e-05
1.81256e-05
6.48319e-05
1.84636e-05
4.62959e-05
1.85359e-05
2.79671e-05
1.83288e-05
1.00433e-05
1.79237e-05
-7.22836e-06
1.72717e-05
-2.37946e-05
1.65662e-05
-3.9597e-05
1.58025e-05
-5.45538e-05
1.49567e-05
-6.86386e-05
1.40848e-05
-8.18733e-05
1.32348e-05
-9.40559e-05
1.21826e-05
-0.000105191
1.11347e-05
-0.000115306
1.01159e-05
-0.000124503
9.19662e-06
-0.000132652
8.14925e-06
-0.000139903
7.2509e-06
-0.000146182
6.27892e-06
-0.000151702
5.52026e-06
-0.000156308
4.60583e-06
-0.000160142
3.83356e-06
-0.000163231
3.08878e-06
-0.000165646
2.41557e-06
-0.000167429
1.78307e-06
-0.000168588
1.15867e-06
-0.000169312
7.24349e-07
-0.000169448
1.3563e-07
-0.000169087
-3.61154e-07
-0.000168205
-8.81331e-07
-0.000166845
-1.36087e-06
-0.000164983
-1.86181e-06
-0.000162607
-2.37532e-06
-0.000159714
-2.8934e-06
-0.00015629
-3.42445e-06
-0.000152311
-3.97904e-06
-0.000147776
-4.53478e-06
-0.000142605
-5.17123e-06
-0.000136756
-5.84889e-06
-0.000130334
-6.42211e-06
-0.000123147
-7.18707e-06
-0.000115174
-7.97224e-06
-0.000106344
-8.83033e-06
-9.67306e-05
-9.61341e-06
-8.62287e-05
-1.05019e-05
-7.48515e-05
-1.13773e-05
-6.25846e-05
-1.22669e-05
-4.95648e-05
-1.30198e-05
-3.57846e-05
-1.37802e-05
-2.13424e-05
-1.44422e-05
-6.28661e-06
-1.50558e-05
9.3032e-06
-1.55898e-05
2.52953e-05
-1.59921e-05
4.16248e-05
-1.63296e-05
5.81495e-05
-1.65247e-05
7.47038e-05
-1.65543e-05
9.11139e-05
-1.64101e-05
0.000107208
-1.60938e-05
0.000122731
-1.55232e-05
0.000137397
-1.46661e-05
0.000150938
-1.35416e-05
0.000163007
-1.20687e-05
0.000173383
-1.03764e-05
0.000181755
-8.37167e-06
0.000187966
-6.21082e-06
0.000191843
-3.87775e-06
0.000193275
-1.43205e-06
0.000192268
1.00726e-06
0.000188803
3.46538e-06
0.000182961
5.84149e-06
0.000174909
8.05191e-06
0.000164769
1.01398e-05
0.000152769
1.20009e-05
0.0001391
1.36683e-05
0.000124159
1.49412e-05
0.000108198
1.59607e-05
9.14264e-05
1.67719e-05
7.42905e-05
1.71358e-05
5.71118e-05
1.71787e-05
4.01444e-05
1.69675e-05
2.34002e-05
1.67441e-05
7.49393e-06
1.59063e-05
-7.73219e-06
1.52261e-05
-2.21166e-05
1.43844e-05
-3.54851e-05
1.33685e-05
-4.77846e-05
1.22995e-05
-5.90058e-05
1.12212e-05
-6.91282e-05
1.01225e-05
-7.83586e-05
9.23032e-06
-8.67567e-05
8.39812e-06
-9.45128e-05
7.75607e-06
-0.000101785
7.2727e-06
-0.000108524
6.73887e-06
-0.000114771
6.24695e-06
-0.000120626
5.85448e-06
-0.000125961
5.3348e-06
-0.000130857
4.89671e-06
-0.000135187
4.32983e-06
-0.000138908
3.72066e-06
-0.000142088
3.18041e-06
-0.000144622
2.53339e-06
-0.000146424
1.80241e-06
-0.000147554
1.1303e-06
-0.000147941
3.86808e-07
-0.000147686
-2.55289e-07
-0.000146835
-8.51165e-07
-0.000145244
-1.59058e-06
-0.000142991
-2.25334e-06
-0.000139991
-2.99942e-06
-0.000136089
-3.90195e-06
-0.00013138
-4.70955e-06
-0.000125857
-5.52251e-06
-0.000119224
-6.63345e-06
-0.000111707
-7.51701e-06
-0.000102999
-8.70768e-06
-9.32643e-05
-9.73492e-06
-8.2572e-05
-1.06924e-05
-7.07826e-05
-1.17894e-05
-5.79319e-05
-1.28507e-05
-4.42597e-05
-1.36722e-05
-2.94829e-05
-1.47769e-05
-1.38162e-05
-1.56667e-05
2.8503e-06
-1.66665e-05
2.03072e-05
-1.74569e-05
3.8236e-05
-1.79289e-05
5.67387e-05
-1.85027e-05
7.55864e-05
-1.88477e-05
9.44351e-05
-1.88488e-05
0.0001133
-1.88652e-05
0.000131826
-1.85255e-05
0.000149776
-1.79506e-05
0.000166927
-1.71513e-05
0.000182922
-1.59942e-05
0.000197571
-1.46498e-05
0.000210575
-1.30034e-05
0.0002217
-1.11256e-05
0.000230823
-9.12302e-06
0.000237723
-6.89923e-06
0.000242229
-4.50693e-06
0.000244306
-2.07613e-06
0.000243945
3.6087e-07
0.00024116
2.78421e-06
0.000236046
5.11452e-06
0.000228557
7.489e-06
0.000218945
9.61196e-06
0.000207419
1.15256e-05
0.000194062
1.33576e-05
0.000179283
1.47784e-05
0.000163182
1.61011e-05
0.000146107
1.70754e-05
0.000128368
1.7739e-05
0.000110143
1.82243e-05
9.16363e-05
1.85071e-05
7.30994e-05
1.85368e-05
5.4709e-05
1.83905e-05
3.66339e-05
1.8075e-05
1.90676e-05
1.75663e-05
2.24607e-06
1.68215e-05
-1.41909e-05
1.64369e-05
-2.98117e-05
1.56208e-05
-4.45163e-05
1.47046e-05
-5.83509e-05
1.38346e-05
1.28122e-05
-0.000177323
-3.47753e-06
-0.000174794
-5.06017e-06
-0.000171564
-6.46425e-06
-0.000167589
-7.95442e-06
-0.000162744
-9.69154e-06
-0.000157144
-1.12052e-05
-0.00015048
-1.33234e-05
-0.000143043
-1.48767e-05
-0.000134843
-1.64037e-05
-0.000125675
-1.8337e-05
-0.000115476
-2.03919e-05
-0.000104409
-2.21391e-05
-9.22592e-05
-2.42961e-05
-7.91416e-05
-2.62344e-05
-6.49735e-05
-2.83361e-05
-4.98572e-05
-3.02277e-05
-3.40627e-05
-3.15857e-05
-1.73878e-05
-3.33502e-05
3.55739e-08
-3.48313e-05
1.79475e-05
-3.58098e-05
3.64177e-05
-3.6929e-05
5.52921e-05
-3.7746e-05
7.41316e-05
-3.76745e-05
9.28745e-05
-3.7474e-05
0.00011125
-3.6731e-05
0.000129065
-3.56184e-05
0.000146078
-3.40196e-05
0.000161886
-3.16043e-05
0.000176293
-2.88011e-05
0.000189076
-2.55442e-05
0.000199959
-2.17615e-05
0.000208822
-1.77253e-05
0.000215462
-1.32765e-05
0.000219794
-8.66069e-06
0.000221706
-3.81723e-06
0.000221052
1.29958e-06
0.000217947
6.20492e-06
0.000212454
1.09892e-05
0.000204506
1.58884e-05
0.000194475
2.00536e-05
0.000182414
2.41124e-05
0.000168733
2.73495e-05
0.00015356
3.0336e-05
0.000137024
3.30642e-05
0.000119505
3.50254e-05
0.000101206
3.65863e-05
8.24656e-05
3.74695e-05
6.35054e-05
3.791e-05
4.45296e-05
3.79412e-05
2.57846e-05
3.74805e-05
7.46052e-06
3.66399e-05
-1.03466e-05
3.56088e-05
-2.7463e-05
3.42258e-05
-4.38147e-05
3.26969e-05
-5.92722e-05
3.09082e-05
-7.37949e-05
2.90382e-05
-8.73622e-05
2.71312e-05
-9.9899e-05
2.50682e-05
-0.000111416
2.303e-05
-0.000121945
2.10523e-05
-0.000131482
1.90748e-05
-0.000140101
1.72346e-05
-0.000147754
1.53008e-05
-0.000154495
1.34849e-05
-0.000160419
1.18451e-05
-0.000165457
1.00731e-05
-0.000169657
8.39919e-06
-0.000173119
6.92057e-06
-0.000175793
5.36005e-06
-0.000177823
4.06667e-06
-0.000179101
2.54433e-06
-0.000179623
1.04883e-06
-0.00017952
-2.03571e-07
-0.000178716
-1.60597e-06
-0.00017709
-3.25157e-06
-0.000174814
-4.5544e-06
-0.000171653
-6.31803e-06
-0.000167743
-7.82239e-06
-0.00016304
-9.40782e-06
-0.000157471
-1.11392e-05
-0.000151033
-1.28654e-05
-0.000143716
-1.46381e-05
-0.000135574
-1.62813e-05
-0.000126511
-1.81199e-05
-0.000116575
-1.98723e-05
-0.000105683
-2.17729e-05
-9.39184e-05
-2.35318e-05
-8.11849e-05
-2.5479e-05
-6.76578e-05
-2.70388e-05
-5.32817e-05
-2.87341e-05
-3.81376e-05
-3.02817e-05
-2.22809e-05
-3.17123e-05
-5.8078e-06
-3.29445e-05
1.11744e-05
-3.39531e-05
2.8553e-05
-3.47501e-05
4.61845e-05
-3.52553e-05
6.39082e-05
-3.54448e-05
8.15723e-05
-3.531e-05
9.8974e-05
-3.47923e-05
0.000115876
-3.38004e-05
0.000132121
-3.2483e-05
0.00014746
-3.06694e-05
0.000161703
-2.84625e-05
0.000174588
-2.57515e-05
0.000185932
-2.26822e-05
0.000195526
-1.91765e-05
0.000203183
-1.531e-05
0.000208782
-1.11899e-05
0.000212183
-6.79101e-06
0.000213317
-2.26519e-06
0.000212137
2.34089e-06
0.000208579
7.11003e-06
0.000202701
1.17527e-05
0.000194605
1.61812e-05
0.000184384
2.04313e-05
0.000172175
2.43996e-05
0.000158228
2.78748e-05
0.000142728
3.09824e-05
0.000125972
3.34876e-05
0.000108201
3.55184e-05
8.96497e-05
3.7079e-05
7.06757e-05
3.79305e-05
5.14941e-05
3.8343e-05
3.23452e-05
3.82642e-05
1.34084e-05
3.78675e-05
-5.05901e-06
3.69167e-05
-2.29155e-05
3.57004e-05
-3.99989e-05
3.4154e-05
-5.61864e-05
3.2391e-05
-7.1471e-05
3.05311e-05
-8.5661e-05
2.83739e-05
-9.87837e-05
2.6235e-05
-0.000110769
2.39682e-05
-0.000121722
2.18998e-05
-0.000131479
1.95059e-05
-0.000140191
1.74262e-05
-0.000147804
1.52209e-05
-0.000154398
1.31907e-05
-0.000159977
1.11537e-05
-0.000164605
9.27128e-06
-0.000168346
7.49031e-06
-0.000171257
5.82093e-06
-0.000173397
4.27089e-06
-0.000174814
2.83838e-06
-0.000175602
1.57717e-06
-0.000175784
3.70957e-07
-0.000175406
-7.72776e-07
-0.000174469
-1.84963e-06
-0.000172989
-2.95634e-06
-0.000170975
-4.02343e-06
-0.00016843
-5.08639e-06
-0.000165316
-6.22501e-06
-0.000161659
-7.31204e-06
-0.000157416
-8.48717e-06
-0.00015257
-9.68581e-06
-0.000147098
-1.09282e-05
-0.000140975
-1.22504e-05
-0.000134155
-1.36359e-05
-0.000126631
-1.50379e-05
-0.00011832
-1.66097e-05
-0.000109253
-1.81378e-05
-9.93771e-05
-1.97539e-05
-8.86859e-05
-2.13762e-05
-7.71551e-05
-2.30503e-05
-6.48557e-05
-2.4586e-05
-5.1749e-05
-2.62113e-05
-3.78945e-05
-2.77055e-05
-2.32809e-05
-2.92131e-05
-7.97412e-06
-3.05867e-05
7.89041e-06
-3.17396e-05
2.42372e-05
-3.26783e-05
4.09632e-05
-3.34323e-05
5.78926e-05
-3.38464e-05
7.48595e-05
-3.39241e-05
9.1667e-05
-3.35967e-05
0.000108116
-3.28873e-05
0.000123954
-3.16605e-05
0.000138968
-3.00062e-05
0.000152862
-2.77695e-05
0.000165358
-2.49702e-05
0.000176239
-2.1751e-05
0.000185222
-1.79674e-05
0.000192149
-1.38524e-05
0.000196855
-9.40674e-06
0.000199181
-4.65228e-06
0.000199098
1.65461e-07
0.000196572
5.04098e-06
0.000191589
9.9622e-06
0.000184283
1.45999e-05
0.000174819
1.89083e-05
0.000163308
2.3002e-05
0.000150002
2.65878e-05
0.000135066
2.98528e-05
0.00011877
3.25716e-05
0.000101405
3.47112e-05
8.32536e-05
3.6277e-05
6.47609e-05
3.69563e-05
4.61901e-05
3.71068e-05
2.78308e-05
3.66881e-05
9.92313e-06
3.58314e-05
-7.3606e-06
3.45554e-05
-2.39339e-05
3.31395e-05
-3.97481e-05
3.16166e-05
-5.47187e-05
2.99273e-05
-6.88114e-05
2.81775e-05
-8.20518e-05
2.64751e-05
-9.42415e-05
2.43723e-05
-0.000105394
2.22874e-05
-0.000115499
2.02202e-05
-0.000124698
1.83958e-05
-0.000132851
1.63023e-05
-0.000140102
1.45017e-05
-0.000146419
1.25964e-05
-0.000151892
1.09927e-05
-0.000156489
9.20282e-06
-0.000160332
7.67697e-06
-0.000163414
6.17045e-06
-0.000165833
4.83536e-06
-0.000167613
3.56276e-06
-0.000168782
2.32742e-06
-0.000169479
1.42166e-06
-0.000169613
2.69256e-07
-0.000169251
-7.22602e-07
-0.000168375
-1.75796e-06
-0.000167008
-2.72799e-06
-0.000165142
-3.72758e-06
-0.000162763
-4.7539e-06
-0.000159861
-5.79599e-06
-0.000156432
-6.85323e-06
-0.000152446
-7.9653e-06
-0.00014791
-9.07075e-06
-0.000142735
-1.03458e-05
-0.000136904
-1.16799e-05
-0.000130459
-1.28673e-05
-0.000123266
-1.43799e-05
-0.000115288
-1.59502e-05
-0.000106449
-1.76701e-05
-9.68398e-05
-1.92222e-05
-8.63316e-05
-2.10102e-05
-7.49471e-05
-2.27618e-05
-6.26452e-05
-2.45689e-05
-4.96486e-05
-2.60164e-05
-3.58538e-05
-2.75751e-05
-2.13991e-05
-2.8897e-05
-6.32944e-06
-3.01256e-05
9.26293e-06
-3.11823e-05
2.52706e-05
-3.19999e-05
4.16165e-05
-3.26756e-05
5.81441e-05
-3.30524e-05
7.47154e-05
-3.31257e-05
9.11437e-05
-3.28385e-05
0.000107253
-3.22036e-05
0.000122788
-3.10581e-05
0.000137476
-2.93542e-05
0.000151038
-2.71034e-05
0.000163105
-2.41361e-05
0.000173491
-2.07616e-05
0.000181872
-1.67536e-05
0.000188072
-1.24109e-05
0.000191959
-7.76471e-06
0.000193396
-2.86839e-06
0.000192371
2.03198e-06
0.0001889
6.93671e-06
0.000183048
1.16933e-05
0.000174986
1.61135e-05
0.000164836
2.02901e-05
0.000152832
2.40041e-05
0.00013914
2.73604e-05
0.000124188
2.98931e-05
0.000108216
3.19332e-05
9.14684e-05
3.35191e-05
7.4286e-05
3.43181e-05
5.70915e-05
3.43733e-05
4.01248e-05
3.39341e-05
2.33665e-05
3.35023e-05
7.44248e-06
3.18303e-05
-7.78966e-06
3.04582e-05
-2.21829e-05
2.87776e-05
-3.55606e-05
2.67462e-05
-4.78676e-05
2.46065e-05
-5.90888e-05
2.24424e-05
-6.9211e-05
2.02447e-05
-7.84414e-05
1.84606e-05
-8.68289e-05
1.67857e-05
-9.45754e-05
1.55026e-05
-0.000101835
1.45323e-05
-0.000108565
1.34685e-05
-0.000114807
1.24893e-05
-0.000120659
1.17067e-05
-0.000125989
1.06645e-05
-0.000130884
9.79191e-06
-0.000135216
8.66199e-06
-0.000138936
7.44058e-06
-0.00014211
6.35404e-06
-0.000144631
5.0549e-06
-0.00014644
3.61076e-06
-0.000147591
2.28129e-06
-0.000147989
7.84969e-07
-0.000147736
-5.08245e-07
-0.000146889
-1.69832e-06
-0.000145302
-3.17744e-06
-0.000143048
-4.50709e-06
-0.000140051
-5.99661e-06
-0.00013615
-7.80267e-06
-0.00013144
-9.41953e-06
-0.000125926
-1.1037e-05
-0.000119289
-1.327e-05
-0.000111769
-1.50373e-05
-0.000103058
-1.74186e-05
-9.33162e-05
-1.94769e-05
-8.26314e-05
-2.13772e-05
-7.08389e-05
-2.35819e-05
-5.79838e-05
-2.57059e-05
-4.43221e-05
-2.73339e-05
-2.95439e-05
-2.95551e-05
-1.38784e-05
-3.13323e-05
2.7845e-06
-3.33294e-05
2.02455e-05
-3.4918e-05
3.81787e-05
-3.58621e-05
5.66744e-05
-3.69984e-05
7.5526e-05
-3.76994e-05
9.44021e-05
-3.7725e-05
0.000113284
-3.77472e-05
0.000131808
-3.70496e-05
0.000149774
-3.5916e-05
0.000166957
-3.43349e-05
0.000182965
-3.20023e-05
0.00019762
-2.93042e-05
0.000210645
-2.60286e-05
0.000221789
-2.22703e-05
0.000230921
-1.82546e-05
0.00023783
-1.38088e-05
0.000242342
-9.01913e-06
0.000244426
-4.16e-06
0.000244059
7.28364e-07
0.00024127
5.57267e-06
0.000236157
1.02281e-05
0.000228661
1.49842e-05
0.000219045
1.92286e-05
0.000207512
2.30579e-05
0.000194139
2.67306e-05
0.000179346
2.95717e-05
0.000163238
3.22088e-05
0.000146151
3.4162e-05
0.000128397
3.54935e-05
0.000110163
3.64582e-05
9.16452e-05
3.70248e-05
7.30987e-05
3.70834e-05
5.47003e-05
3.67888e-05
3.66213e-05
3.6154e-05
1.90451e-05
3.51425e-05
2.21165e-06
3.36549e-05
-1.42214e-05
3.287e-05
-2.98433e-05
3.12426e-05
-4.45498e-05
2.94111e-05
-5.83868e-05
2.76715e-05
2.56252e-05
-0.000177379
-5.21297e-06
-0.000174851
-7.58764e-06
-0.000171621
-9.69425e-06
-0.00016765
-1.19263e-05
-0.000162808
-1.45331e-05
-0.000157213
-1.68003e-05
-0.000150547
-1.99895e-05
-0.000143114
-2.23097e-05
-0.000134918
-2.45996e-05
-0.000125751
-2.75041e-05
-0.00011555
-3.05931e-05
-0.000104481
-3.32077e-05
-9.23308e-05
-3.64467e-05
-7.92074e-05
-3.93579e-05
-6.50351e-05
-4.25084e-05
-4.9923e-05
-4.53399e-05
-3.41262e-05
-4.73826e-05
-1.74655e-05
-5.0011e-05
8.05951e-10
-5.22976e-05
1.79293e-05
-5.37384e-05
3.64107e-05
-5.54104e-05
5.53034e-05
-5.66389e-05
7.41661e-05
-5.65374e-05
9.29288e-05
-5.62367e-05
0.000111316
-5.51184e-05
0.000129147
-5.34495e-05
0.000146188
-5.10605e-05
0.000162018
-4.74348e-05
0.000176445
-4.32275e-05
0.000189243
-3.8343e-05
0.00020014
-3.2658e-05
0.000209011
-2.6596e-05
0.000215658
-1.9924e-05
0.000219998
-1.30004e-05
0.000221918
-5.73794e-06
0.00022124
1.97787e-06
0.000218121
9.32371e-06
0.000212634
1.64765e-05
0.000204676
2.38463e-05
0.00019463
3.00992e-05
0.000182551
3.61916e-05
0.00016885
4.10507e-05
0.000153652
4.5534e-05
0.000137104
4.96113e-05
0.000119565
5.25643e-05
0.000101247
5.4905e-05
8.24863e-05
5.62299e-05
6.35075e-05
5.68888e-05
4.45137e-05
5.69349e-05
2.57519e-05
5.62423e-05
7.41241e-06
5.49794e-05
-1.04025e-05
5.34236e-05
-2.75279e-05
5.13512e-05
-4.38878e-05
4.90569e-05
-5.93525e-05
4.63729e-05
-7.38802e-05
4.35659e-05
-8.74538e-05
4.07047e-05
-9.99955e-05
3.76099e-05
-0.000111513
3.45473e-05
-0.000122041
3.15805e-05
-0.000131571
2.86046e-05
-0.00014019
2.58533e-05
-0.00014784
2.29515e-05
-0.000154568
2.02124e-05
-0.00016049
1.77669e-05
-0.00016553
1.51131e-05
-0.00016973
1.25995e-05
-0.000173193
1.03832e-05
-0.000175855
8.02218e-06
-0.000177881
6.09272e-06
-0.000179165
3.82889e-06
-0.00017968
1.56347e-06
-0.000179577
-3.0633e-07
-0.000178772
-2.41081e-06
-0.000177149
-4.87486e-06
-0.000174874
-6.82898e-06
-0.000171721
-9.47165e-06
-0.000167812
-1.17316e-05
-0.00016311
-1.41097e-05
-0.000157537
-1.67117e-05
-0.000151094
-1.93089e-05
-0.000143789
-2.19426e-05
-0.000135652
-2.44186e-05
-0.000126589
-2.71836e-05
-0.000116649
-2.98115e-05
-0.000105759
-3.26633e-05
-9.40009e-05
-3.52899e-05
-8.12891e-05
-3.81909e-05
-6.77467e-05
-4.05812e-05
-5.33699e-05
-4.3111e-05
-3.82243e-05
-4.54273e-05
-2.23614e-05
-4.75753e-05
-5.88136e-06
-4.94246e-05
1.11081e-05
-5.09427e-05
2.84902e-05
-5.21323e-05
4.61321e-05
-5.28973e-05
6.38564e-05
-5.31693e-05
8.15329e-05
-5.29865e-05
9.89426e-05
-5.22022e-05
0.000115849
-5.07072e-05
0.000132111
-4.87449e-05
0.000147472
-4.60306e-05
0.00016174
-4.27302e-05
0.00017462
-3.8632e-05
0.00018598
-3.4042e-05
0.000195612
-2.88091e-05
0.000203274
-2.29714e-05
0.000208902
-1.68185e-05
0.000212294
-1.01832e-05
0.000213427
-3.39799e-06
0.000212225
3.54245e-06
0.000208667
1.06683e-05
0.000202791
1.7629e-05
0.000194679
2.42931e-05
0.000184447
3.06635e-05
0.000172217
3.66293e-05
0.000158246
4.18451e-05
0.000142731
4.64981e-05
0.000125948
5.02703e-05
0.000108156
5.33104e-05
8.95801e-05
5.56549e-05
7.05745e-05
5.69361e-05
5.13691e-05
5.75484e-05
3.21913e-05
5.74419e-05
1.32621e-05
5.67967e-05
-5.22401e-06
5.54028e-05
-2.30951e-05
5.35716e-05
-4.01871e-05
5.1246e-05
-5.63783e-05
4.85822e-05
-7.16785e-05
4.58313e-05
-8.58873e-05
4.25827e-05
-9.90136e-05
3.93613e-05
-0.00011099
3.59445e-05
-0.000121951
3.28609e-05
-0.000131715
2.92701e-05
-0.000140415
2.61258e-05
-0.000148027
2.28328e-05
-0.000154608
1.97724e-05
-0.000160193
1.67383e-05
-0.000164823
1.39013e-05
-0.000168563
1.12298e-05
-0.000171463
8.72136e-06
-0.000173599
6.40678e-06
-0.000175009
4.24806e-06
-0.000175796
2.36463e-06
-0.00017597
5.45232e-07
-0.000175597
-1.14608e-06
-0.000174655
-2.79176e-06
-0.000173173
-4.43799e-06
-0.000171158
-6.03907e-06
-0.000168617
-7.62665e-06
-0.000165505
-9.33701e-06
-0.000161841
-1.09762e-05
-0.000157606
-1.27221e-05
-0.000152759
-1.45332e-05
-0.000147263
-1.64239e-05
-0.000141167
-1.83463e-05
-0.000134344
-2.04592e-05
-0.000126819
-2.25634e-05
-0.00011848
-2.49483e-05
-0.000109444
-2.71737e-05
-9.95665e-05
-2.96319e-05
-8.88696e-05
-3.20732e-05
-7.73521e-05
-3.45678e-05
-6.5043e-05
-3.68952e-05
-5.19181e-05
-3.93362e-05
-3.80618e-05
-4.15619e-05
-2.34447e-05
-4.38302e-05
-8.09655e-06
-4.5935e-05
7.71803e-06
-4.75542e-05
2.40918e-05
-4.90522e-05
4.08327e-05
-5.01733e-05
5.77839e-05
-5.07976e-05
7.47694e-05
-5.09097e-05
9.16219e-05
-5.04493e-05
0.000108072
-4.93371e-05
0.000123933
-4.75222e-05
0.000138962
-4.50347e-05
0.000152883
-4.1691e-05
0.00016542
-3.75072e-05
0.000176287
-3.26182e-05
0.000185298
-2.69782e-05
0.000192235
-2.07893e-05
0.000196968
-1.41399e-05
0.000199281
-6.96566e-06
0.000199191
2.55094e-07
0.000196652
7.58005e-06
0.000191668
1.49464e-05
0.000184363
2.19051e-05
0.000174874
2.83968e-05
0.000163355
3.45209e-05
0.000150022
3.99211e-05
0.000135064
4.48105e-05
0.00011874
4.88957e-05
0.000101352
5.20997e-05
8.3179e-05
5.44495e-05
6.46425e-05
5.54928e-05
4.60348e-05
5.57145e-05
2.76481e-05
5.50748e-05
9.74092e-06
5.37385e-05
-7.54368e-06
5.184e-05
-2.41091e-05
4.9705e-05
-3.99391e-05
4.74466e-05
-5.49166e-05
4.49048e-05
-6.90437e-05
4.23046e-05
-8.22492e-05
3.96806e-05
-9.44561e-05
3.65793e-05
-0.000105632
3.34632e-05
-0.000115775
3.03637e-05
-0.00012493
2.75502e-05
-0.000133074
2.44464e-05
-0.00014032
2.17474e-05
-0.000146649
1.89257e-05
-0.000152108
1.64517e-05
-0.000156677
1.37719e-05
-0.000160537
1.15368e-05
-0.000163614
9.2482e-06
-0.00016603
7.25134e-06
-0.000167804
5.33605e-06
-0.000169002
3.5261e-06
-0.000169662
2.08084e-06
-0.000169792
3.99478e-07
-0.000169432
-1.08262e-06
-0.000168557
-2.63267e-06
-0.000167194
-4.09146e-06
-0.00016533
-5.59164e-06
-0.000162946
-7.13722e-06
-0.000160038
-8.70383e-06
-0.000156601
-1.02902e-05
-0.000152623
-1.19434e-05
-0.000148088
-1.36065e-05
-0.000142906
-1.55276e-05
-0.000137116
-1.74699e-05
-0.000130645
-1.93379e-05
-0.000123448
-2.15776e-05
-0.000115477
-2.39204e-05
-0.000106639
-2.65087e-05
-9.70347e-05
-2.88265e-05
-8.65263e-05
-3.15185e-05
-7.51338e-05
-3.41544e-05
-6.28385e-05
-3.68643e-05
-4.9848e-05
-3.9007e-05
-3.60332e-05
-4.139e-05
-2.15711e-05
-4.33591e-05
-6.47505e-06
-4.52217e-05
9.11522e-06
-4.67726e-05
2.5138e-05
-4.80227e-05
4.15035e-05
-4.90412e-05
5.80281e-05
-4.95771e-05
7.46359e-05
-4.97336e-05
9.10729e-05
-4.92756e-05
0.000107201
-4.83319e-05
0.000122763
-4.66196e-05
0.000137475
-4.40669e-05
0.000151065
-4.06932e-05
0.000163147
-3.62182e-05
0.000173553
-3.1168e-05
0.000181973
-2.51735e-05
0.000188164
-1.86022e-05
0.000192051
-1.1651e-05
0.000193487
-4.30527e-06
0.000192472
3.04778e-06
0.000189007
1.04013e-05
0.000183146
1.75541e-05
0.000175082
2.41779e-05
0.00016492
3.04519e-05
0.000152914
3.60101e-05
0.000139195
4.10788e-05
0.000124229
4.48594e-05
0.000108228
4.79338e-05
9.15121e-05
5.02354e-05
7.42649e-05
5.15653e-05
5.70428e-05
5.15953e-05
4.00586e-05
5.09184e-05
2.33012e-05
5.02597e-05
7.347e-06
4.77845e-05
-7.89272e-06
4.56979e-05
-2.23007e-05
4.31855e-05
-3.56919e-05
4.01374e-05
-4.80081e-05
3.69227e-05
-5.92299e-05
3.36641e-05
-6.93471e-05
3.03619e-05
-7.85589e-05
2.76725e-05
-8.69175e-05
2.51442e-05
-9.46475e-05
2.32325e-05
-0.000101895
2.17796e-05
-0.000108614
2.01876e-05
-0.000114848
1.87233e-05
-0.000120699
1.75575e-05
-0.000126024
1.59901e-05
-0.000130915
1.46826e-05
-0.000135242
1.29889e-05
-0.000138956
1.11541e-05
-0.00014213
9.52869e-06
-0.00014466
7.58505e-06
-0.000146468
5.41815e-06
-0.000147622
3.43598e-06
-0.000148023
1.18587e-06
-0.000147793
-7.38361e-07
-0.000146949
-2.54243e-06
-0.000145366
-4.76012e-06
-0.000143112
-6.7619e-06
-0.000140118
-8.99016e-06
-0.00013622
-1.17012e-05
-0.000131509
-1.41304e-05
-0.000126009
-1.6537e-05
-0.00011937
-1.99087e-05
-0.000111848
-2.25594e-05
-0.000103135
-2.61316e-05
-9.33854e-05
-2.92266e-05
-8.27131e-05
-3.20495e-05
-7.09181e-05
-3.53769e-05
-5.80669e-05
-3.85571e-05
-4.44147e-05
-4.09862e-05
-2.96346e-05
-4.43353e-05
-1.39732e-05
-4.69937e-05
2.67656e-06
-4.99793e-05
2.01314e-05
-5.23729e-05
3.80684e-05
-5.37991e-05
5.65864e-05
-5.55164e-05
7.54623e-05
-5.65754e-05
9.43491e-05
-5.66119e-05
0.000113246
-5.66437e-05
0.000131802
-5.56057e-05
0.000149797
-5.39117e-05
0.000166999
-5.15365e-05
0.00018303
-4.80339e-05
0.00019772
-4.39935e-05
0.000210772
-3.90809e-05
0.000221932
-3.34305e-05
0.00023108
-2.74031e-05
0.00023801
-2.0738e-05
0.000242533
-1.35423e-05
0.000244637
-6.2642e-06
0.000244251
1.11423e-06
0.000241445
8.3781e-06
0.000236332
1.53412e-05
0.000228824
2.24923e-05
0.000219199
2.88535e-05
0.000207659
3.45978e-05
0.000194256
4.01336e-05
0.000179436
4.43922e-05
0.000163318
4.83263e-05
0.000146215
5.12652e-05
0.000128431
5.32772e-05
0.000110181
5.47082e-05
9.16463e-05
5.55596e-05
7.30843e-05
5.56454e-05
5.4674e-05
5.51991e-05
3.65923e-05
5.42357e-05
1.89987e-05
5.27361e-05
2.14165e-06
5.05119e-05
-1.42889e-05
4.93006e-05
-2.99127e-05
4.68664e-05
-4.46214e-05
4.41197e-05
-5.84603e-05
4.15105e-05
3.8438e-05
-0.000177463
-6.94745e-06
-0.000174937
-1.01135e-05
-0.000171708
-1.29233e-05
-0.000167741
-1.58935e-05
-0.000162904
-1.93707e-05
-0.000157317
-2.23865e-05
-0.000150647
-2.66601e-05
-0.000143221
-2.9736e-05
-0.000135033
-3.27874e-05
-0.000125866
-3.66708e-05
-0.000115661
-4.07983e-05
-0.000104589
-4.42794e-05
-9.24363e-05
-4.85997e-05
-7.93074e-05
-5.24869e-05
-6.5134e-05
-5.66819e-05
-5.00259e-05
-6.04481e-05
-3.42272e-05
-6.31813e-05
-1.75771e-05
-6.66611e-05
-4.85635e-08
-6.98262e-05
1.7912e-05
-7.16991e-05
3.64143e-05
-7.39128e-05
5.53271e-05
-7.55517e-05
7.42146e-05
-7.5425e-05
9.30022e-05
-7.50244e-05
0.00011142
-7.35365e-05
0.000129281
-7.13107e-05
0.000146359
-6.81384e-05
0.000162213
-6.32889e-05
0.000176667
-5.76813e-05
0.000189501
-5.1177e-05
0.000200428
-4.35852e-05
0.000209304
-3.54724e-05
0.00021596
-2.65804e-05
0.000220309
-1.7349e-05
0.000222231
-7.65983e-06
0.000221521
2.68748e-06
0.000218386
1.24586e-05
0.000212889
2.19737e-05
0.000204929
3.18058e-05
0.000194862
4.01665e-05
0.000182757
4.82966e-05
0.000169024
5.47838e-05
0.00015379
6.07673e-05
0.000137225
6.61767e-05
0.000119655
7.01341e-05
0.000101308
7.32521e-05
8.25175e-05
7.50203e-05
6.35107e-05
7.58956e-05
4.44901e-05
7.59555e-05
2.57031e-05
7.50293e-05
7.34065e-06
7.33418e-05
-1.04868e-05
7.1251e-05
-2.76277e-05
6.84921e-05
-4.40004e-05
6.54296e-05
-5.94751e-05
6.18475e-05
-7.40107e-05
5.81015e-05
-8.75901e-05
5.42841e-05
-0.000100136
5.01562e-05
-0.000111655
4.60658e-05
-0.000122185
4.21105e-05
-0.000131709
3.81287e-05
-0.000140328
3.44723e-05
-0.000147977
3.06006e-05
-0.00015469
2.6925e-05
-0.00016061
2.36871e-05
-0.000165646
2.01494e-05
-0.000169846
1.67991e-05
-0.000173309
1.38458e-05
-0.000175949
1.06624e-05
-0.000177961
8.10469e-06
-0.000179268
5.13614e-06
-0.000179772
2.0672e-06
-0.000179666
-4.12002e-07
-0.000178857
-3.2196e-06
-0.00017724
-6.49178e-06
-0.000174969
-9.10004e-06
-0.000171819
-1.26218e-05
-0.000167918
-1.5633e-05
-0.00016322
-1.88074e-05
-0.000157642
-2.229e-05
-0.000151185
-2.57655e-05
-0.000143905
-2.92231e-05
-0.000135771
-3.25522e-05
-0.000126711
-3.62442e-05
-0.000116769
-3.97531e-05
-0.00010588
-4.35523e-05
-9.41342e-05
-4.7036e-05
-8.14504e-05
-5.08747e-05
-6.79014e-05
-5.41304e-05
-5.35157e-05
-5.74968e-05
-3.83645e-05
-6.05785e-05
-2.2495e-05
-6.34449e-05
-6.00964e-06
-6.59101e-05
1.09918e-05
-6.79442e-05
2.83732e-05
-6.95137e-05
4.60254e-05
-7.05496e-05
6.3756e-05
-7.08999e-05
8.14491e-05
-7.06797e-05
9.8859e-05
-6.96121e-05
0.000115797
-6.76449e-05
0.000132075
-6.5023e-05
0.00014745