/*--------------------------------*- C++ -*----------------------------------*\
| =========                 |                                                 |
| \\      /  F ield         | OpenFOAM: The Open Source CFD Toolbox           |
|  \\    /   O peration     | Version:  3.0.1                                 |
|   \\  /    A nd           | Web:      www.OpenFOAM.org                      |
|    \\/     M anipulation  |                                                 |
\*---------------------------------------------------------------------------*/
FoamFile
{
    version     2.0;
    format      ascii;
    class       volScalarField;
    location    "68.8";
    object      p;
}
// * * * * * * * * * * * * * * * * * * * * * * * * * * * * * * * * * * * * * //

dimensions      [1 -1 -2 0 0 0 0];

internalField   nonuniform List<scalar> 
21420
(
4092.05
4121.18
4148.97
4175.26
4199.92
4222.56
4242.86
4260.48
4275.15
4286.64
4294.69
4298.96
4299.52
4296.46
4289.69
4279.34
4265.63
4248.79
4229.1
4206.86
4182.45
4156.22
4128.51
4099.71
4070.15
4040.15
4009.98
3979.9
3950.13
3920.89
3892.33
3864.62
3837.87
3812.19
3787.68
3764.42
3742.48
3721.91
3702.74
3685.03
3668.79
3654.03
3640.74
3628.94
3618.51
3609.29
3601.28
3594.42
3588.65
3583.88
3580.04
3577.04
3575.05
3573.87
3573.49
3573.95
3575.33
3577.73
3581.15
3585.01
3590.28
3596.95
3605.12
3614.89
3626.35
3639.58
3654.7
3671.72
3690.68
3711.53
3734.18
3758.51
3784.28
3811.29
3839.21
3867.84
3896.82
3925.98
3955.09
3983.93
4012.45
4040.5
4067.98
4094.75
4120.62
4145.36
4168.7
4190.31
4209.87
4227.02
4241.43
4252.8
4260.87
4265.48
4266.38
4263.68
4257.32
4247.36
4233.89
4217.07
4197.11
4174.27
4148.84
4121.15
4091.54
4060.37
4027.99
3994.77
3961.03
3927.12
3893.33
3859.95
3827.26
3795.48
3764.82
3735.47
3707.59
3681.29
3656.68
3633.82
3612.77
3593.53
3576.1
3560.46
3546.56
3534.35
3523.79
3514.82
3507.38
3501.42
3496.88
3493.7
3491.84
3491.26
3491.91
3493.76
3496.77
3500.95
3506.26
3512.69
3520.26
3528.94
3538.76
3549.71
3561.81
3575.06
3589.47
3605.07
3621.86
3639.87
3659.11
3679.6
3701.36
3724.4
3748.7
3774.24
3800.97
3828.84
3857.73
3887.5
3917.98
3948.93
3980.07
4011.09
4041.62
4071.28
4099.66
4126.35
4150.94
4173.03
4192.24
4208.23
4220.69
4229.34
4234
4234.5
4230.62
4222.62
4210.39
4194.06
4173.88
4150.14
4123.19
4093.46
4061.39
4027.49
3992.26
3956.21
3919.85
3883.64
3848.03
3813.39
3780.02
3748.2
3718.12
3689.92
3663.7
3639.5
3617.36
3597.26
3579.16
3563.01
3548.74
3536.27
3525.5
3516.35
3508.72
3502.51
3497.65
3494.03
3491.61
3490.32
3490.1
3490.93
3492.77
3495.6
3499.41
3504.2
3509.95
3516.66
3524.34
3532.98
3542.61
3553.23
3564.93
3577.75
3591.66
3606.75
3623.06
3640.64
3659.55
3679.79
3701.39
3724.32
3748.55
3773.98
3800.52
3828
3856.25
3885.03
3914.06
3943.02
3971.55
3999.26
4025.74
4050.57
4073.36
4093.73
4111.32
4125.84
4137.01
4144.63
4148.55
4148.63
4144.86
4137.3
4126.1
4111.28
4093.15
4071.97
4048.08
4021.87
3993.73
3964.1
3933.41
3902.11
3870.6
3839.29
3808.56
3778.78
3750.23
3723.18
3697.85
3674.39
3652.91
3633.46
3616.04
3600.64
3587.1
3575.35
3565.04
3556.48
3553.89
3552.57
3551.49
3551.12
3551.55
3552.68
3554.43
3556.86
3560.43
3565
3570.4
3576.49
3582.63
3588.47
3598.29
3607.61
3617.58
3627.95
3638.88
3650.47
3662.86
3676.22
3690.66
3706.36
3723.48
3742.13
3762.4
3784.34
3807.96
3833.22
3860.02
3888.21
3917.62
3947.98
3979.04
4010.44
4041.85
4072.94
4103.3
4132.53
4160.27
4186.14
4209.77
4230.8
4248.92
4263.85
4275.37
4283.29
4287.52
4287.96
4284.69
4277.63
4266.86
4252.68
4235.29
4214.97
4192.07
4166.92
4139.87
4111.34
4081.71
4051.35
4020.62
3989.81
3959.24
3929.18
3899.81
3871.36
3843.96
3817.75
3792.83
3769.28
3747.22
3726.73
3707.95
3993.95
4023.1
4050.9
4077.21
4101.89
4124.54
4144.85
4162.49
4177.17
4188.66
4196.74
4201
4201.56
4198.5
4191.72
4181.36
4167.65
4150.79
4131.08
4108.83
4084.4
4058.15
4030.43
4001.62
3972.04
3942.03
3911.86
3881.76
3851.99
3822.75
3794.18
3766.46
3739.71
3714.03
3689.53
3666.26
3644.32
3623.74
3604.58
3586.87
3570.63
3555.87
3542.58
3530.78
3520.36
3511.14
3503.13
3496.28
3490.51
3485.75
3481.91
3478.91
3476.92
3475.74
3475.36
3475.82
3477.19
3479.59
3483.01
3486.86
3492.13
3498.8
3506.96
3516.72
3528.18
3541.41
3556.53
3573.54
3592.5
3613.36
3636.02
3660.35
3686.14
3713.15
3741.09
3769.73
3798.72
3827.9
3857.02
3885.86
3914.39
3942.45
3969.93
3996.71
4022.58
4047.33
4070.68
4092.31
4111.87
4129.03
4143.45
4154.83
4162.91
4167.52
4168.43
4165.72
4159.36
4149.4
4135.91
4119.08
4099.11
4076.26
4050.82
4023.11
3993.48
3962.3
3929.91
3896.67
3862.92
3828.99
3795.19
3761.81
3729.1
3697.32
3666.66
3637.3
3609.41
3583.11
3558.5
3535.65
3514.59
3495.36
3477.93
3462.28
3448.38
3436.18
3425.62
3416.65
3409.22
3403.26
3398.72
3395.54
3393.69
3393.11
3393.76
3395.61
3398.63
3402.8
3408.11
3414.54
3422.11
3430.79
3440.61
3451.56
3463.66
3476.9
3491.32
3506.91
3523.7
3541.71
3560.95
3581.44
3603.2
3626.23
3650.53
3676.07
3702.81
3730.68
3759.57
3789.35
3819.84
3850.79
3881.95
3912.98
3943.53
3973.2
4001.6
4028.31
4052.92
4075.03
4094.26
4110.26
4122.73
4131.39
4136.05
4136.56
4132.7
4124.67
4112.44
4096.1
4075.91
4052.15
4025.18
3995.43
3963.34
3929.41
3894.16
3858.09
3821.71
3785.49
3749.87
3715.21
3681.84
3650.01
3619.93
3591.73
3565.5
3541.31
3519.17
3499.07
3480.97
3464.82
3450.56
3438.09
3427.33
3418.19
3410.55
3404.35
3399.49
3395.88
3393.46
3392.17
3391.96
3392.79
3394.63
3397.46
3401.27
3406.06
3411.81
3418.52
3426.19
3434.84
3444.46
3455.09
3466.78
3479.6
3493.51
3508.59
3524.9
3542.48
3561.38
3581.63
3603.22
3626.16
3650.38
3675.81
3702.35
3729.85
3758.11
3786.9
3815.94
3844.91
3873.45
3901.18
3927.67
3952.53
3975.34
3995.72
4013.33
4027.86
4039.04
4046.67
4050.59
4050.69
4046.9
4039.34
4028.13
4013.3
3995.16
3973.96
3950.05
3923.82
3895.66
3866.01
3835.31
3803.98
3772.46
3741.13
3710.4
3680.6
3652.04
3625
3599.66
3576.2
3554.72
3535.28
3517.87
3502.47
3488.94
3477.19
3466.88
3458.35
3455.81
3454.45
3453.37
3452.99
3453.43
3454.56
3456.3
3458.73
3462.31
3466.89
3472.29
3478.38
3484.53
3490.39
3500.14
3509.48
3519.46
3529.82
3540.75
3552.33
3564.72
3578.07
3592.5
3608.2
3625.31
3643.96
3664.23
3686.16
3709.78
3735.04
3761.85
3790.05
3819.46
3849.83
3880.9
3912.32
3943.74
3974.84
4005.22
4034.47
4062.23
4088.11
4111.76
4132.81
4150.93
4165.87
4177.41
4185.34
4189.58
4190
4186.73
4179.66
4168.89
4154.7
4137.29
4116.96
4094.04
4068.88
4041.81
4013.26
3983.62
3953.25
3922.5
3891.68
3861.1
3831.03
3801.66
3773.2
3745.8
3719.59
3694.67
3671.12
3649.05
3628.57
3609.78
3895.86
3925.04
3952.87
3979.22
4003.92
4026.6
4046.95
4064.61
4079.32
4090.82
4098.91
4103.21
4103.76
4100.69
4093.89
4083.51
4069.77
4052.89
4033.15
4010.86
3986.4
3960.12
3932.37
3903.53
3873.93
3843.89
3813.7
3783.59
3753.81
3724.55
3695.98
3668.26
3641.5
3615.82
3591.31
3568.05
3546.1
3525.52
3506.36
3488.65
3472.4
3457.65
3444.37
3432.58
3422.16
3412.95
3404.94
3398.09
3392.33
3387.57
3383.74
3380.75
3378.76
3377.58
3377.2
3377.65
3379.02
3381.41
3384.82
3388.66
3393.92
3400.58
3408.73
3418.49
3429.93
3443.16
3458.28
3475.29
3494.25
3515.12
3537.78
3562.13
3587.94
3614.99
3642.95
3671.62
3700.64
3729.83
3758.97
3787.84
3816.38
3844.44
3871.93
3898.72
3924.61
3949.38
3972.75
3994.39
4013.98
4031.16
4045.61
4057
4065.1
4069.71
4070.64
4067.9
4061.54
4051.57
4038.07
4021.21
4001.22
3978.34
3952.87
3925.13
3895.47
3864.25
3831.83
3798.57
3764.79
3730.84
3697.02
3663.62
3630.9
3599.1
3568.43
3539.06
3511.17
3484.86
3460.25
3437.39
3416.33
3397.1
3379.68
3364.04
3350.14
3337.95
3327.39
3318.43
3311
3305.04
3300.51
3297.34
3295.49
3294.91
3295.56
3297.41
3300.43
3304.6
3309.91
3316.35
3323.91
3332.6
3342.41
3353.36
3365.45
3378.7
3393.11
3408.7
3425.49
3443.5
3462.73
3483.22
3504.98
3528.01
3552.31
3577.85
3604.59
3632.46
3661.37
3691.16
3721.66
3752.63
3783.81
3814.87
3845.45
3875.16
3903.59
3930.34
3954.98
3977.12
3996.38
4012.41
4024.91
4033.6
4038.27
4038.78
4034.95
4026.88
4014.65
3998.29
3978.07
3954.27
3927.27
3897.47
3865.34
3831.37
3796.07
3759.96
3723.55
3687.29
3651.64
3616.96
3583.57
3551.74
3521.64
3493.44
3467.21
3443.02
3420.88
3400.79
3382.7
3366.56
3352.3
3339.84
3329.09
3319.96
3312.33
3306.14
3301.29
3297.68
3295.27
3293.98
3293.77
3294.6
3296.44
3299.28
3303.09
3307.87
3313.63
3320.34
3328.01
3336.65
3346.28
3356.9
3368.58
3381.4
3395.3
3410.38
3426.68
3444.26
3463.15
3483.39
3504.99
3527.92
3552.15
3577.59
3604.13
3631.64
3659.91
3688.72
3717.79
3746.79
3775.36
3803.12
3829.65
3854.54
3877.39
3897.81
3915.45
3930
3941.2
3948.85
3952.79
3952.9
3949.09
3941.52
3930.29
3915.45
3897.27
3876.04
3852.1
3825.82
3797.63
3767.94
3737.2
3705.84
3674.28
3642.92
3612.17
3582.35
3553.78
3526.72
3501.39
3477.93
3456.46
3437.03
3419.62
3404.23
3390.71
3378.97
3368.65
3360.18
3357.76
3356.3
3355.22
3354.85
3355.29
3356.41
3358.15
3360.59
3364.19
3368.77
3374.17
3380.26
3386.42
3392.34
3401.94
3411.34
3421.32
3431.67
3442.59
3454.16
3466.53
3479.87
3494.29
3509.98
3527.08
3545.71
3565.98
3587.91
3611.53
3636.79
3663.61
3691.81
3721.24
3751.63
3782.72
3814.17
3845.62
3876.75
3907.16
3936.44
3964.24
3990.16
4013.83
4034.92
4053.07
4068.03
4079.58
4087.53
4091.78
4092.2
4088.9
4081.83
4071.05
4056.83
4039.4
4019.04
3996.09
3970.89
3943.79
3915.21
3885.53
3855.13
3824.36
3793.52
3762.93
3732.84
3703.45
3674.99
3647.58
3621.36
3596.44
3572.89
3550.82
3530.34
3511.55
3797.78
3827
3854.88
3881.27
3906.02
3928.75
3949.14
3966.85
3981.58
3993.11
4001.21
4005.57
4006.1
4003.01
3996.19
3985.79
3972.01
3955.09
3935.29
3912.96
3888.45
3862.12
3834.32
3805.44
3775.8
3745.74
3715.52
3685.38
3655.58
3626.32
3597.73
3570
3543.24
3517.55
3493.04
3469.77
3447.82
3427.24
3408.08
3390.36
3374.12
3359.37
3346.09
3334.31
3323.91
3314.7
3306.7
3299.86
3294.11
3289.37
3285.54
3282.56
3280.57
3279.39
3279
3279.45
3280.81
3283.19
3286.59
3290.4
3295.66
3302.3
3310.44
3320.18
3331.62
3344.84
3359.95
3376.96
3395.92
3416.8
3439.48
3463.86
3489.71
3516.79
3544.79
3573.5
3602.56
3631.79
3660.96
3689.84
3718.4
3746.48
3773.99
3800.79
3826.7
3851.5
3874.9
3896.58
3916.2
3933.41
3947.88
3959.3
3967.42
3972.04
3972.99
3970.23
3963.87
3953.87
3940.35
3923.46
3903.43
3880.51
3855
3827.21
3797.51
3766.24
3733.78
3700.47
3666.66
3632.67
3598.82
3565.39
3532.64
3500.82
3470.13
3440.76
3412.85
3386.54
3361.92
3339.06
3318
3298.77
3281.36
3265.72
3251.84
3239.65
3229.1
3220.14
3212.72
3206.77
3202.24
3199.08
3197.23
3196.66
3197.31
3199.17
3202.19
3206.36
3211.67
3218.11
3225.67
3234.35
3244.16
3255.11
3267.2
3280.45
3294.85
3310.44
3327.23
3345.23
3364.46
3384.95
3406.7
3429.73
3454.03
3479.57
3506.32
3534.2
3563.11
3592.92
3623.44
3654.44
3685.66
3716.76
3747.38
3777.14
3805.63
3832.42
3857.12
3879.32
3898.63
3914.7
3927.24
3935.96
3940.66
3941.18
3937.37
3929.26
3917.01
3900.63
3880.36
3856.51
3829.45
3799.59
3767.39
3733.36
3697.99
3661.82
3625.35
3589.05
3553.35
3518.64
3485.23
3453.37
3423.27
3395.05
3368.83
3344.64
3322.51
3302.42
3284.34
3268.21
3253.97
3241.53
3230.79
3221.67
3214.06
3207.87
3203.03
3199.44
3197.03
3195.75
3195.54
3196.38
3198.22
3201.06
3204.87
3209.66
3215.41
3222.12
3229.79
3238.43
3248.05
3258.67
3270.34
3283.16
3297.05
3312.11
3328.41
3345.97
3364.86
3385.1
3406.69
3429.62
3453.85
3479.3
3505.86
3533.38
3561.67
3590.51
3619.61
3648.65
3677.28
3705.09
3731.67
3756.62
3779.52
3799.99
3817.67
3832.27
3843.5
3851.18
3855.13
3855.26
3851.43
3843.84
3832.59
3817.72
3799.5
3778.22
3754.22
3727.89
3699.63
3669.88
3639.08
3607.67
3576.06
3544.66
3513.87
3484.03
3455.44
3428.37
3403.03
3379.57
3358.11
3338.69
3321.3
3305.93
3292.42
3280.68
3270.37
3261.98
3259.73
3258.15
3257.04
3256.68
3257.13
3258.25
3259.97
3262.42
3266.06
3270.65
3276.04
3282.12
3288.31
3294.29
3303.7
3313.18
3323.15
3333.49
3344.39
3355.95
3368.3
3381.62
3396.03
3411.69
3428.78
3447.4
3467.65
3489.58
3513.2
3538.47
3565.29
3593.52
3622.97
3653.39
3684.51
3715.99
3747.49
3778.66
3809.12
3838.46
3866.3
3892.28
3916
3937.13
3955.32
3970.32
3981.9
3989.87
3994.12
3994.55
3991.22
3984.14
3973.34
3959.09
3941.62
3921.21
3898.21
3872.96
3845.8
3817.18
3787.45
3757.01
3726.21
3695.33
3664.71
3634.6
3605.2
3576.72
3549.3
3523.08
3498.14
3474.59
3452.52
3432.04
3413.26
3699.7
3728.98
3756.92
3783.37
3808.19
3830.98
3851.43
3869.19
3883.98
3895.54
3903.66
3908.07
3908.59
3905.48
3898.63
3888.19
3874.36
3857.38
3837.53
3815.12
3790.55
3764.16
3736.3
3707.36
3677.67
3647.56
3617.3
3587.14
3557.32
3528.03
3499.43
3471.69
3444.91
3419.22
3394.7
3371.43
3349.48
3328.9
3309.73
3292.02
3275.78
3261.03
3247.76
3236
3225.6
3216.4
3208.41
3201.59
3195.85
3191.12
3187.31
3184.33
3182.35
3181.16
3180.78
3181.22
3182.56
3184.93
3188.32
3192.1
3197.34
3203.97
3212.09
3221.82
3233.24
3246.44
3261.54
3278.55
3297.52
3318.41
3341.12
3365.53
3391.42
3418.55
3446.61
3475.38
3504.49
3533.77
3562.97
3591.88
3620.46
3648.57
3676.09
3702.92
3728.86
3753.69
3777.13
3798.85
3818.52
3835.78
3850.29
3861.74
3869.88
3874.52
3875.49
3872.71
3866.34
3856.32
3842.75
3825.83
3805.75
3782.77
3757.2
3729.35
3699.58
3668.26
3635.74
3602.37
3568.51
3534.48
3500.58
3467.11
3434.34
3402.49
3371.77
3342.38
3314.46
3288.14
3263.51
3240.65
3219.6
3200.37
3182.97
3167.34
3153.46
3141.28
3130.74
3121.8
3114.38
3108.44
3103.92
3100.77
3098.93
3098.36
3099.02
3100.88
3103.9
3108.08
3113.39
3119.82
3127.38
3136.06
3145.87
3156.82
3168.9
3182.14
3196.55
3212.13
3228.91
3246.91
3266.13
3286.62
3308.37
3331.39
3355.69
3381.23
3407.98
3435.87
3464.8
3494.63
3525.18
3556.23
3587.49
3618.64
3649.33
3679.15
3707.71
3734.58
3759.35
3781.61
3800.98
3817.12
3829.71
3838.47
3843.2
3843.74
3839.95
3831.82
3819.54
3803.11
3782.79
3758.87
3731.73
3701.78
3669.5
3635.37
3599.92
3563.67
3527.12
3490.76
3455
3420.25
3386.8
3354.92
3324.8
3296.58
3270.35
3246.17
3224.04
3203.97
3185.9
3169.79
3155.56
3143.14
3132.42
3123.31
3115.72
3109.55
3104.72
3101.14
3098.74
3097.47
3097.27
3098.11
3099.96
3102.8
3106.61
3111.4
3117.15
3123.86
3131.53
3140.17
3149.79
3160.4
3172.06
3184.86
3198.74
3213.8
3230.07
3247.63
3266.51
3286.74
3308.32
3331.26
3355.49
3380.95
3407.52
3435.07
3463.39
3492.27
3521.42
3550.51
3579.2
3607.08
3633.73
3658.75
3681.72
3702.26
3720.01
3734.66
3745.94
3753.64
3757.62
3757.76
3753.93
3746.32
3735.03
3720.11
3701.84
3680.49
3656.42
3630.01
3601.67
3571.84
3540.97
3509.48
3477.81
3446.35
3415.51
3385.63
3357.01
3329.93
3304.58
3281.13
3259.67
3240.28
3222.91
3207.56
3194.06
3182.34
3172.04
3163.74
3161.72
3159.97
3158.85
3158.49
3158.94
3160.07
3161.77
3164.24
3167.91
3172.51
3177.9
3183.97
3190.2
3196.24
3205.43
3215
3224.96
3235.28
3246.17
3257.7
3270.03
3283.33
3297.71
3313.35
3330.42
3349.02
3369.25
3391.17
3414.79
3440.07
3466.91
3495.15
3524.63
3555.09
3586.26
3617.79
3649.34
3680.58
3711.11
3740.51
3768.43
3794.47
3818.26
3839.45
3857.7
3872.74
3884.36
3892.35
3896.61
3897.06
3893.7
3886.59
3875.75
3861.46
3843.94
3823.47
3800.4
3775.09
3747.86
3719.17
3689.38
3658.89
3628.03
3597.1
3566.45
3536.31
3506.88
3478.39
3450.96
3424.72
3399.79
3376.23
3354.16
3333.68
3314.9
3601.62
3630.97
3659
3685.53
3710.42
3733.29
3753.81
3771.65
3786.49
3798.1
3806.25
3810.7
3811.23
3808.09
3801.2
3790.71
3776.82
3759.77
3739.84
3717.36
3692.7
3666.23
3638.29
3609.28
3579.53
3549.37
3519.06
3488.86
3459.01
3429.7
3401.08
3373.32
3346.54
3320.84
3296.31
3273.03
3251.08
3230.49
3211.33
3193.62
3177.38
3162.63
3149.37
3137.63
3127.24
3118.06
3110.08
3103.27
3097.55
3092.84
3089.04
3086.08
3084.1
3082.91
3082.52
3082.95
3084.28
3086.63
3090.01
3093.74
3098.97
3105.58
3113.68
3123.38
3134.78
3147.97
3163.06
3180.06
3199.03
3219.94
3242.68
3267.14
3293.09
3320.28
3348.41
3377.25
3406.43
3435.76
3465.02
3493.96
3522.57
3550.7
3578.25
3605.11
3631.08
3655.96
3679.44
3701.22
3720.95
3738.26
3752.82
3764.32
3772.49
3777.14
3778.12
3775.35
3768.95
3758.89
3745.29
3728.31
3708.17
3685.12
3659.47
3631.55
3601.71
3570.31
3537.71
3504.28
3470.35
3436.26
3402.31
3368.8
3335.98
3304.09
3273.35
3243.94
3216
3189.66
3165.03
3142.17
3121.12
3101.9
3084.5
3068.88
3055.02
3042.85
3032.32
3023.39
3015.99
3010.06
3005.55
3002.41
3000.58
3000.02
3000.68
3002.54
3005.57
3009.75
3015.06
3021.49
3029.05
3037.73
3047.53
3058.48
3070.55
3083.79
3098.19
3113.77
3130.54
3148.53
3167.75
3188.23
3209.97
3232.99
3257.29
3282.83
3309.59
3337.49
3366.44
3396.3
3426.89
3457.98
3489.3
3520.52
3551.28
3581.19
3609.84
3636.79
3661.65
3684
3703.46
3719.67
3732.32
3741.14
3745.91
3746.46
3742.69
3734.55
3722.22
3705.74
3685.34
3661.34
3634.1
3604.05
3571.65
3537.41
3501.86
3465.5
3428.86
3392.41
3356.59
3321.78
3288.29
3256.38
3226.24
3198.01
3171.78
3147.6
3125.49
3105.43
3087.38
3071.29
3057.08
3044.68
3033.99
3024.9
3017.33
3011.18
3006.36
3002.8
3000.41
2999.15
2998.96
2999.81
3001.66
3004.5
3008.32
3013.11
3018.86
3025.57
3033.24
3041.87
3051.48
3062.08
3073.72
3086.52
3100.39
3115.43
3131.69
3149.23
3168.1
3188.31
3209.89
3232.82
3257.06
3282.53
3309.13
3336.7
3365.06
3393.99
3423.19
3452.36
3481.12
3509.09
3535.84
3560.95
3584.01
3604.63
3622.46
3637.17
3648.51
3656.26
3660.25
3660.4
3656.58
3648.95
3637.61
3622.63
3604.28
3582.85
3558.69
3532.18
3503.74
3473.82
3442.84
3411.27
3379.51
3347.99
3317.09
3287.16
3258.51
3231.4
3206.05
3182.6
3161.16
3141.78
3124.44
3109.12
3095.64
3083.92
3073.65
3065.52
3063.68
3061.77
3060.63
3060.28
3060.74
3061.87
3063.56
3066.04
3069.76
3074.36
3079.75
3085.81
3092.07
3098.2
3107.12
3116.81
3126.75
3137.05
3147.91
3159.41
3171.72
3184.98
3199.33
3214.94
3231.98
3250.56
3270.78
3292.69
3316.3
3341.59
3368.45
3396.72
3426.24
3456.74
3487.97
3519.57
3551.19
3582.5
3613.11
3642.6
3670.6
3696.73
3720.6
3741.87
3760.19
3775.29
3786.95
3794.97
3799.25
3799.7
3796.32
3789.17
3778.3
3763.95
3746.36
3725.82
3702.67
3677.27
3649.96
3621.18
3591.32
3560.75
3529.83
3498.85
3468.15
3437.97
3408.52
3380
3352.55
3326.31
3301.36
3277.81
3255.73
3235.25
3216.47
3503.55
3532.99
3561.11
3587.74
3612.72
3635.69
3656.3
3674.22
3689.13
3700.79
3708.98
3713.47
3714.01
3710.84
3703.91
3693.36
3679.4
3662.26
3642.24
3619.66
3594.9
3568.33
3540.3
3511.21
3481.38
3451.15
3420.79
3390.55
3360.66
3331.32
3302.68
3274.9
3248.11
3222.4
3197.86
3174.58
3152.62
3132.03
3112.86
3095.15
3078.92
3064.17
3050.92
3039.22
3028.84
3019.66
3011.7
3004.91
2999.21
2994.52
2990.74
2987.8
2985.82
2984.63
2984.23
2984.65
2985.97
2988.29
2991.65
2995.33
3000.54
3007.13
3015.2
3024.88
3036.26
3049.43
3064.5
3081.5
3100.47
3121.4
3144.18
3168.69
3194.71
3221.98
3250.19
3279.12
3308.37
3337.78
3367.09
3396.08
3424.72
3452.88
3480.46
3507.35
3533.37
3558.29
3581.84
3603.68
3623.48
3640.86
3655.48
3667.03
3675.24
3679.91
3680.9
3678.13
3671.7
3661.61
3647.95
3630.91
3610.69
3587.57
3561.83
3533.81
3503.87
3472.38
3439.7
3406.18
3372.18
3338.02
3304.01
3270.43
3237.57
3205.64
3174.87
3145.42
3117.46
3091.11
3066.47
3043.61
3022.56
3003.34
2985.96
2970.35
2956.5
2944.35
2933.84
2924.92
2917.53
2911.62
2907.13
2903.99
2902.17
2901.62
2902.3
2904.16
2907.19
2911.37
2916.68
2923.12
2930.67
2939.35
2949.15
2960.09
2972.16
2985.39
2999.78
3015.35
3032.12
3050.1
3069.31
3089.78
3111.52
3134.53
3158.83
3184.38
3211.14
3239.06
3268.03
3297.92
3328.56
3359.71
3391.1
3422.4
3453.25
3483.26
3512.01
3539.07
3564.04
3586.49
3606.05
3622.35
3635.08
3643.97
3648.78
3649.36
3645.59
3637.44
3625.06
3608.52
3588.04
3563.93
3536.57
3506.39
3473.86
3439.49
3403.8
3367.33
3330.57
3294.02
3258.12
3223.24
3189.7
3157.75
3127.59
3099.34
3073.11
3048.94
3026.84
3006.8
2988.77
2972.7
2958.53
2946.15
2935.48
2926.42
2918.87
2912.75
2907.96
2904.41
2902.04
2900.79
2900.61
2901.47
2903.32
2906.16
2909.99
2914.77
2920.53
2927.24
2934.9
2943.53
2953.13
2963.72
2975.34
2988.14
3001.98
3017
3033.24
3050.77
3069.62
3089.82
3111.4
3134.33
3158.57
3184.06
3210.67
3238.28
3266.69
3295.67
3324.95
3354.2
3383.06
3411.12
3437.98
3463.2
3486.37
3507.1
3525.01
3539.81
3551.22
3559.01
3563.04
3563.19
3559.39
3551.73
3540.32
3525.28
3506.84
3485.31
3461.04
3434.41
3405.85
3375.81
3344.72
3313.03
3281.18
3249.57
3218.6
3188.61
3159.92
3132.79
3107.43
3083.99
3062.56
3043.21
3025.91
3010.61
2997.16
2985.44
2975.18
2967.36
2965.58
2963.55
2962.38
2962.05
2962.53
2963.65
2965.32
2967.83
2971.59
2976.21
2981.59
2987.64
2993.94
3000.18
3008.77
3018.6
3028.52
3038.79
3049.62
3061.09
3073.36
3086.59
3100.9
3116.48
3133.48
3152.03
3172.23
3194.13
3217.74
3243.04
3269.91
3298.22
3327.78
3358.35
3389.64
3421.31
3453.02
3484.43
3515.14
3544.73
3572.84
3599.07
3623.04
3644.4
3662.8
3677.97
3689.68
3697.75
3702.04
3702.49
3699.1
3691.9
3680.98
3666.56
3648.89
3628.25
3605.01
3579.51
3552.1
3523.22
3493.26
3462.61
3431.61
3400.57
3369.81
3339.59
3310.1
3281.55
3254.09
3227.83
3202.88
3179.31
3157.24
3136.76
3117.98
3405.49
3435.03
3463.26
3489.99
3515.09
3538.16
3558.88
3576.9
3591.89
3603.62
3611.85
3616.38
3616.94
3613.73
3606.75
3596.13
3582.09
3564.86
3544.72
3522.02
3497.15
3470.47
3442.33
3413.14
3383.22
3352.92
3322.49
3292.2
3262.26
3232.89
3204.23
3176.43
3149.62
3123.9
3099.36
3076.06
3054.1
3033.51
3014.33
2996.62
2980.39
2965.65
2952.4
2940.76
2930.38
2921.22
2913.28
2906.51
2900.83
2896.16
2892.41
2889.48
2887.51
2886.32
2885.92
2886.32
2887.61
2889.91
2893.26
2896.87
2902.06
2908.62
2916.66
2926.31
2937.66
2950.81
2965.87
2982.85
3001.83
3022.79
3045.61
3070.18
3096.28
3123.64
3151.95
3180.98
3210.33
3239.81
3269.19
3298.23
3326.91
3355.1
3382.72
3409.65
3435.72
3460.7
3484.31
3506.23
3526.11
3543.57
3558.27
3569.88
3578.13
3582.83
3583.83
3581.06
3574.6
3564.46
3550.74
3533.63
3513.32
3490.1
3464.26
3436.13
3406.09
3374.49
3341.7
3308.09
3273.99
3239.75
3205.67
3172.03
3139.11
3107.13
3076.31
3046.84
3018.86
2992.49
2967.84
2944.97
2923.93
2904.72
2887.35
2871.76
2857.92
2845.79
2835.3
2826.39
2819.02
2813.13
2808.65
2805.53
2803.72
2803.18
2803.86
2805.74
2808.77
2812.95
2818.27
2824.7
2832.25
2840.92
2850.72
2861.65
2873.71
2886.94
2901.32
2916.89
2933.64
2951.61
2970.82
2991.28
3013.01
3036.02
3060.31
3085.86
3112.63
3140.57
3169.57
3199.5
3230.19
3261.41
3292.88
3324.27
3355.23
3385.36
3414.23
3441.42
3466.51
3489.09
3508.76
3525.17
3537.99
3546.95
3551.82
3552.43
3548.67
3540.51
3528.07
3511.45
3490.86
3466.63
3439.13
3408.8
3376.11
3341.59
3305.75
3269.13
3232.25
3195.59
3159.58
3124.62
3091.02
3059.03
3028.84
3000.59
2974.35
2950.19
2928.1
2908.08
2890.08
2874.04
2859.89
2847.55
2836.91
2827.88
2820.36
2814.27
2809.5
2805.97
2803.62
2802.39
2802.22
2803.08
2804.94
2807.79
2811.61
2816.4
2822.16
2828.87
2836.53
2845.15
2854.75
2865.33
2876.92
2889.71
2903.52
2918.52
2934.74
2952.25
2971.08
2991.27
3012.84
3035.76
3060.02
3085.52
3112.16
3139.81
3168.27
3197.32
3226.68
3256.02
3284.99
3313.18
3340.17
3365.52
3388.81
3409.66
3427.68
3442.58
3454.06
3461.92
3465.98
3466.15
3462.34
3454.64
3443.17
3428.05
3409.51
3387.87
3363.46
3336.7
3308
3277.81
3246.59
3214.78
3182.81
3151.1
3120.04
3089.99
3061.26
3034.1
3008.72
2985.29
2963.88
2944.56
2927.3
2912.04
2898.61
2886.9
2876.61
2869.34
2867.39
2865.3
2864.12
2863.8
2864.29
2865.42
2867.06
2869.61
2873.42
2878.05
2883.43
2889.46
2895.8
2902.15
2910.38
2920.39
2930.26
2940.5
2951.3
2962.74
2974.96
2988.14
3002.41
3017.95
3034.92
3053.43
3073.61
3095.49
3119.1
3144.4
3171.31
3199.65
3229.27
3259.9
3291.27
3323.04
3354.84
3386.36
3417.18
3446.89
3475.12
3501.47
3525.56
3547.03
3565.53
3580.78
3592.56
3600.66
3604.97
3605.42
3602.02
3594.77
3583.79
3569.3
3551.53
3530.78
3507.42
3481.8
3454.27
3425.28
3395.21
3364.46
3333.37
3302.25
3271.43
3241.15
3211.62
3183.05
3155.56
3129.29
3104.33
3080.76
3058.68
3038.2
3019.43
3307.42
3337.09
3365.44
3392.3
3417.53
3440.73
3461.56
3479.69
3494.78
3506.58
3514.87
3519.44
3520.01
3516.76
3509.73
3499.03
3484.89
3467.55
3447.29
3424.45
3399.45
3372.64
3344.37
3315.07
3285.06
3254.66
3224.17
3193.81
3163.83
3134.42
3105.73
3077.91
3051.08
3025.34
3000.79
2977.49
2955.52
2934.92
2915.74
2898.03
2881.81
2867.07
2853.82
2842.25
2831.87
2822.72
2814.81
2808.06
2802.42
2797.77
2794.05
2791.14
2789.17
2787.98
2787.57
2787.95
2789.22
2791.49
2794.82
2798.36
2803.53
2810.05
2818.06
2827.67
2838.99
2852.11
2867.15
2884.13
2903.12
2924.1
2946.97
2971.61
2997.8
3025.26
3053.69
3082.83
3112.29
3141.87
3171.32
3200.42
3229.14
3257.37
3285.03
3312
3338.13
3363.18
3386.87
3408.88
3428.85
3446.4
3461.18
3472.86
3481.17
3485.89
3486.9
3484.13
3477.64
3467.45
3453.66
3436.46
3416.06
3392.72
3366.76
3338.51
3308.34
3276.62
3243.71
3209.99
3175.8
3141.46
3107.29
3073.58
3040.59
3008.56
2977.7
2948.19
2920.18
2893.79
2869.13
2846.26
2825.22
2806.02
2788.66
2773.09
2759.28
2747.16
2736.69
2727.8
2720.46
2714.58
2710.11
2707.01
2705.22
2704.69
2705.38
2707.26
2710.31
2714.49
2719.8
2726.23
2733.78
2742.45
2752.24
2763.16
2775.22
2788.43
2802.81
2818.37
2835.12
2853.08
2872.27
2892.71
2914.44
2937.44
2961.73
2987.28
3014.07
3042.02
3071.05
3101.03
3131.78
3163.07
3194.64
3226.14
3257.22
3287.48
3316.49
3343.83
3369.06
3391.78
3411.59
3428.11
3441.04
3450.09
3455.02
3455.67
3451.91
3443.74
3431.24
3414.53
3393.82
3369.45
3341.79
3311.29
3278.42
3243.72
3207.71
3170.93
3133.89
3097.1
3060.98
3025.93
2992.26
2960.23
2930.01
2901.73
2875.5
2851.34
2829.27
2809.27
2791.3
2775.3
2761.18
2748.88
2738.28
2729.28
2721.8
2715.74
2710.99
2707.49
2705.16
2703.94
2703.79
2704.66
2706.53
2709.38
2713.2
2718
2723.75
2730.46
2738.12
2746.74
2756.32
2766.88
2778.46
2791.21
2805.02
2819.99
2836.19
2853.67
2872.48
2892.65
2914.21
2937.13
2961.39
2986.91
3013.59
3041.28
3069.8
3098.93
3128.38
3157.84
3186.93
3215.26
3242.39
3267.89
3291.33
3312.31
3330.47
3345.47
3357.04
3364.97
3369.07
3369.25
3365.44
3357.71
3346.17
3330.95
3312.3
3290.51
3265.96
3239.04
3210.18
3179.83
3148.45
3116.5
3084.39
3052.57
3021.42
2991.29
2962.5
2935.32
2909.93
2886.5
2865.11
2845.83
2828.61
2813.4
2800
2788.28
2777.95
2771.41
2769.14
2767.02
2765.83
2765.53
2766.04
2767.17
2768.8
2771.38
2775.24
2779.88
2785.25
2791.27
2797.64
2804.1
2812
2822.16
2831.98
2842.19
2852.95
2864.34
2876.52
2889.65
2903.87
2919.36
2936.28
2954.76
2974.9
2996.77
3020.38
3045.7
3072.63
3101.02
3130.7
3161.4
3192.86
3224.73
3256.65
3288.29
3319.25
3349.09
3377.46
3403.95
3428.17
3449.77
3468.38
3483.72
3495.57
3503.73
3508.06
3508.51
3505.08
3497.78
3486.73
3472.15
3454.27
3433.4
3409.91
3384.15
3356.48
3327.36
3297.17
3266.3
3235.11
3203.9
3173
3142.67
3113.1
3084.48
3056.97
3030.68
3005.71
2982.13
2960.06
2939.57
2920.81
3209.36
3239.16
3267.66
3294.66
3320.03
3343.37
3364.35
3382.6
3397.8
3409.68
3418.03
3422.64
3423.22
3419.94
3412.85
3402.06
3387.81
3370.34
3349.93
3326.95
3301.8
3274.84
3246.43
3217
3186.88
3156.38
3125.81
3095.38
3065.35
3035.89
3007.17
2979.33
2952.48
2926.73
2902.17
2878.86
2856.87
2836.27
2817.09
2799.38
2783.16
2768.42
2755.18
2743.69
2733.3
2724.18
2716.29
2709.58
2703.96
2699.35
2695.65
2692.77
2690.81
2689.61
2689.19
2689.56
2690.8
2693.03
2696.33
2699.8
2704.95
2711.43
2719.39
2728.97
2740.25
2753.34
2768.36
2785.32
2804.32
2825.33
2848.25
2872.98
2899.27
2926.85
2955.41
2984.68
3014.25
3043.94
3073.48
3102.64
3131.42
3159.69
3187.39
3214.41
3240.6
3265.73
3289.51
3311.62
3331.69
3349.35
3364.22
3375.98
3384.35
3389.11
3390.13
3387.35
3380.82
3370.57
3356.71
3339.41
3318.9
3295.43
3269.34
3240.95
3210.64
3178.78
3145.74
3111.89
3077.58
3043.14
3008.88
2975.08
2942.02
2909.93
2879.02
2849.47
2821.42
2795.02
2770.34
2747.47
2726.43
2707.24
2689.9
2674.35
2660.56
2648.46
2638.02
2629.16
2621.83
2615.97
2611.53
2608.44
2606.67
2606.15
2606.86
2608.75
2611.79
2615.98
2621.29
2627.72
2635.27
2643.93
2653.71
2664.63
2676.68
2689.88
2704.25
2719.8
2736.53
2754.48
2773.66
2794.1
2815.81
2838.8
2863.09
2888.65
2915.44
2943.42
2972.48
3002.51
3033.33
3064.71
3096.38
3128.01
3159.23
3189.63
3218.8
3246.3
3271.7
3294.57
3314.53
3331.19
3344.24
3353.39
3358.39
3359.08
3355.33
3347.13
3334.57
3317.76
3296.92
3272.39
3244.55
3213.85
3180.78
3145.88
3109.67
3072.7
3035.5
2998.55
2962.31
2927.16
2893.42
2861.33
2831.07
2802.79
2776.55
2752.4
2730.35
2710.38
2692.44
2676.47
2662.4
2650.13
2639.58
2630.62
2623.17
2617.15
2612.43
2608.95
2606.65
2605.46
2605.32
2606.2
2608.07
2610.93
2614.76
2619.55
2625.3
2632.01
2639.67
2648.28
2657.85
2668.4
2679.97
2692.67
2706.46
2721.41
2737.57
2755.03
2773.81
2793.97
2815.51
2838.44
2862.71
2888.25
2914.96
2942.7
2971.28
3000.5
3030.05
3059.64
3088.88
3117.36
3144.66
3170.33
3193.93
3215.07
3233.36
3248.49
3260.16
3268.16
3272.32
3272.52
3268.7
3260.92
3249.3
3233.98
3215.19
3193.26
3168.53
3141.43
3112.39
3081.86
3050.31
3018.19
2985.94
2953.98
2922.72
2892.52
2863.67
2836.45
2811.05
2787.62
2766.26
2747.03
2729.86
2714.69
2701.32
2689.6
2679.23
2673.5
2670.85
2668.71
2667.52
2667.24
2667.77
2668.91
2670.52
2673.16
2677.06
2681.7
2687.06
2693.07
2699.47
2706.02
2713.63
2723.91
2733.67
2743.85
2754.57
2765.91
2778.04
2791.11
2805.27
2820.71
2837.58
2856.01
2876.12
2897.97
2921.57
2946.91
2973.87
3002.31
3032.06
3062.85
3094.41
3126.39
3158.44
3190.22
3221.33
3251.33
3279.86
3306.51
3330.88
3352.61
3371.34
3386.79
3398.73
3406.94
3411.3
3411.75
3408.29
3400.93
3389.8
3375.12
3357.12
3336.11
3312.47
3286.56
3258.73
3229.46
3199.13
3168.13
3136.82
3105.52
3074.54
3044.14
3014.51
2985.86
2958.32
2932.01
2907.03
2883.45
2861.36
2840.88
2822.12
3111.3
3141.26
3169.91
3197.07
3222.6
3246.1
3267.22
3285.62
3300.94
3312.92
3321.33
3325.99
3326.57
3323.26
3316.1
3305.22
3290.84
3273.22
3252.66
3229.51
3204.19
3177.07
3148.51
3118.93
3088.68
3058.08
3027.41
2996.91
2966.82
2937.32
2908.56
2880.69
2853.83
2828.06
2803.48
2780.16
2758.17
2737.56
2718.38
2700.67
2684.45
2669.72
2656.47
2645.08
2634.69
2625.58
2617.72
2611.04
2605.46
2600.88
2597.22
2594.37
2592.41
2591.21
2590.78
2591.12
2592.33
2594.53
2597.81
2601.19
2606.31
2612.74
2620.66
2630.2
2641.44
2654.5
2669.49
2686.44
2705.44
2726.48
2749.47
2774.28
2800.69
2828.4
2857.1
2886.51
2916.23
2946.04
2975.68
3004.9
3033.73
3062.05
3089.8
3116.88
3143.13
3168.35
3192.23
3214.45
3234.64
3252.41
3267.39
3279.24
3287.67
3292.47
3293.5
3290.72
3284.15
3273.83
3259.88
3242.47
3221.84
3198.24
3171.99
3143.45
3112.98
3080.97
3047.78
3013.8
2979.36
2944.8
2910.43
2876.55
2843.4
2811.24
2780.27
2750.67
2722.6
2696.17
2671.48
2648.6
2627.57
2608.4
2591.07
2575.54
2561.78
2549.71
2539.28