/*--------------------------------*- C++ -*----------------------------------*\
| =========                 |                                                 |
| \\      /  F ield         | OpenFOAM: The Open Source CFD Toolbox           |
|  \\    /   O peration     | Version:  3.0.1                                 |
|   \\  /    A nd           | Web:      www.OpenFOAM.org                      |
|    \\/     M anipulation  |                                                 |
\*---------------------------------------------------------------------------*/
FoamFile
{
    version     2.0;
    format      ascii;
    class       volScalarField;
    location    "78";
    object      p;
}
// * * * * * * * * * * * * * * * * * * * * * * * * * * * * * * * * * * * * * //

dimensions      [1 -1 -2 0 0 0 0];

internalField   nonuniform List<scalar> 
21420
(
3748.82
3722.92
3698.26
3674.88
3652.86
3632.23
3613.06
3595.34
3579.12
3564.38
3551.11
3539.29
3528.87
3519.81
3512.07
3505.58
3500.29
3496.15
3493.12
3491.16
3490.24
3490.37
3491.52
3493.74
3497.04
3501.45
3507.02
3513.8
3521.84
3531.19
3541.92
3554.1
3567.77
3582.99
3599.82
3618.31
3638.48
3660.36
3683.94
3709.19
3736.04
3764.42
3794.18
3825.16
3857.16
3889.92
3923.12
3956.44
3989.52
4021.93
4053.29
4083.19
4111.21
4136.98
4160.13
4180.32
4197.3
4210.81
4220.66
4226.7
4228.74
4227.38
4222.1
4213.02
4200.09
4183.49
4163.46
4140.27
4114.23
4085.7
4055.06
4022.76
3989.14
3954.54
3919.31
3883.73
3848.11
3812.73
3777.88
3743.88
3710.98
3679.45
3649.55
3621.43
3595.26
3571.12
3549.04
3529.03
3511.06
3495.08
3481.1
3467.86
3456.36
3446.58
3438.47
3431.89
3426.79
3423.15
3420.93
3420.11
3420.69
3422.61
3425.84
3430.35
3436.09
3443.04
3451.15
3460.43
3470.87
3482.45
3495.19
3509.1
3524.16
3540.39
3557.8
3576.35
3596.02
3616.78
3638.64
3661.54
3685.45
3710.33
3736.11
3762.71
3790.02
3817.9
3846.2
3874.72
3903.25
3931.53
3959.29
3986.26
4012.13
4036.59
4059.34
4080.07
4098.47
4114.24
4127.11
4136.8
4143.1
4145.82
4144.83
4139.97
4131.39
4119.08
4103.23
4083.96
4061.58
4036.39
4008.78
3979.15
3947.91
3915.51
3882.4
3849.02
3815.78
3783.1
3751.35
3720.85
3691.87
3664.65
3639.35
3616.05
3594.82
3575.67
3558.56
3543.46
3530.29
3518.97
3509.41
3501.49
3495.1
3490.12
3486.39
3483.81
3482.28
3481.7
3481.95
3482.96
3484.61
3486.84
3489.57
3492.74
3496.29
3500.21
3504.45
3508.99
3514.05
3519.3
3524.99
3531.15
3537.9
3545.32
3553.53
3562.63
3572.72
3583.9
3596.27
3609.9
3624.88
3641.26
3659.08
3678.38
3699.15
3721.35
3744.94
3769.79
3795.77
3822.71
3850.37
3878.5
3906.82
3934.98
3962.61
3989.35
4014.78
4038.49
4060.07
4079.14
4095.33
4108.31
4117.8
4123.5
4125.38
4123.33
4117.42
4107.61
4094.17
4077.36
4057.52
4035.04
4010.37
3983.94
3956.21
3927.61
3898.56
3869.42
3840.53
3812.2
3784.68
3758.2
3732.92
3708.98
3686.47
3665.44
3645.91
3627.84
3611.21
3595.92
3581.9
3569.05
3557.26
3546.42
3536.44
3527.21
3518.68
3510.77
3503.45
3496.71
3490.54
3484.97
3480
3475.65
3471.95
3468.94
3466.7
3465.26
3464.71
3465.16
3466.7
3469.48
3473.61
3479.22
3486.44
3495.4
3506.2
3518.99
3533.78
3550.77
3569.88
3591.26
3614.88
3640.77
3668.84
3699.07
3731.28
3765.33
3800.98
3837.93
3875.87
3914.45
3953.25
3991.87
4029.86
4066.79
4102.21
4135.66
4166.74
4195.04
4220.19
4241.88
4259.82
4273.78
4283.55
4289.29
4291.38
4289.54
4283.51
4273.75
4260.65
4244.42
4225.33
4203.69
4179.87
4154.18
4127.01
4098.68
4069.54
4039.98
4010.28
3980.76
3951.74
3923.43
3896.07
3869.81
3844.82
3821.2
3799.01
3778.27
3759
3741.16
3724.69
3709.53
3695.59
3682.79
3671.05
3660.28
3650.41
3641.38
3633.16
3625.7
3618.99
3613.03
3607.82
3603.39
3599.76
3596.98
3595.09
3594.12
3594.12
3595.17
3597.32
3600.56
3604.93
3610.44
3617.12
3650.66
3624.76
3600.1
3576.72
3554.7
3534.07
3514.89
3497.18
3480.96
3466.22
3452.95
3441.13
3430.71
3421.66
3413.92
3407.43
3402.14
3398.01
3394.98
3393.02
3392.1
3392.23
3393.38
3395.6
3398.89
3403.31
3408.87
3415.64
3423.68
3433.03
3443.76
3455.93
3469.6
3484.82
3501.65
3520.13
3540.31
3562.18
3585.76
3611.01
3637.87
3666.25
3696.02
3727.01
3759.01
3791.78
3824.99
3858.33
3891.43
3923.85
3955.23
3985.14
4013.18
4038.97
4062.13
4082.34
4099.33
4112.85
4122.7
4128.75
4130.8
4129.43
4124.16
4115.07
4102.13
4085.52
4065.47
4042.27
4016.21
3987.66
3957.01
3924.69
3891.05
3856.45
3821.2
3785.61
3749.98
3714.59
3679.74
3645.73
3612.83
3581.3
3551.39
3523.26
3497.09
3472.95
3450.88
3430.87
3412.9
3396.91
3382.88
3369.76
3358.2
3348.42
3340.31
3333.73
3328.64
3324.99
3322.77
3321.96
3322.53
3324.46
3327.69
3332.2
3337.94
3344.89
3353.01
3362.29
3372.72
3384.3
3397.05
3410.95
3426.01
3442.24
3459.65
3478.2
3497.87
3518.64
3540.49
3563.39
3587.3
3612.19
3637.97
3664.57
3691.88
3719.77
3748.07
3776.6
3805.13
3833.42
3861.2
3888.18
3914.06
3938.54
3961.3
3982.04
4000.45
4016.24
4029.12
4038.83
4045.14
4047.86
4046.88
4042.03
4033.43
4021.12
4005.26
3985.97
3963.57
3938.37
3910.74
3881.09
3849.83
3817.41
3784.28
3750.88
3717.63
3684.94
3653.17
3622.66
3593.68
3566.46
3541.15
3517.85
3496.63
3477.47
3460.37
3445.27
3432.11
3420.8
3411.24
3403.32
3396.94
3391.96
3388.23
3385.66
3384.14
3383.56
3383.82
3384.83
3386.49
3388.72
3391.45
3394.62
3398.17
3402.09
3406.33
3410.87
3415.93
3421.18
3426.86
3433.02
3439.76
3447.18
3455.38
3464.48
3474.57
3485.75
3498.11
3511.74
3526.71
3543.08
3560.9
3580.2
3600.97
3623.18
3646.76
3671.62
3697.61
3724.55
3752.22
3780.37
3808.69
3836.87
3864.52
3891.28
3916.72
3940.45
3962.06
3981.14
3997.35
4010.34
4019.84
4025.56
4027.42
4025.38
4019.46
4009.64
3996.19
3979.36
3959.5
3937
3912.31
3885.86
3858.11
3829.5
3800.43
3771.28
3742.38
3714.04
3686.52
3660.03
3634.75
3610.8
3588.29
3567.27
3547.73
3529.68
3513.04
3497.76
3483.75
3470.9
3459.11
3448.28
3438.3
3429.08
3420.55
3412.64
3405.32
3398.58
3392.42
3386.84
3381.87
3377.52
3373.82
3370.8
3368.56
3367.12
3366.57
3367.01
3368.55
3371.33
3375.45
3381.06
3388.28
3397.24
3408.04
3420.83
3435.62
3452.61
3471.72
3493.11
3516.73
3542.62
3570.69
3600.92
3633.14
3667.2
3702.85
3739.81
3777.76
3816.35
3855.16
3893.79
3931.8
3968.74
4004.18
4037.64
4068.74
4097.05
4122.22
4143.92
4161.86
4175.84
4185.62
4191.39
4193.43
4191.56
4185.54
4175.78
4162.67
4146.43
4127.32
4105.66
4081.83
4056.12
4028.94
4000.6
3971.44
3941.86
3912.16
3882.63
3853.59
3825.27
3797.91
3771.65
3746.65
3723.03
3700.84
3680.11
3660.84
3643
3626.54
3611.38
3597.44
3584.65
3572.91
3562.14
3552.27
3543.25
3535.03
3527.57
3520.86
3514.9
3509.69
3505.26
3501.63
3498.85
3496.95
3495.98
3495.98
3497.03
3499.17
3502.42
3506.78
3512.29
3518.97
3552.45
3526.55
3501.88
3478.5
3456.48
3435.85
3416.67
3398.96
3382.73
3368
3354.74
3342.92
3332.51
3323.46
3315.72
3309.24
3303.95
3299.82
3296.8
3294.84
3293.92
3294.04
3295.2
3297.41
3300.7
3305.11
3310.68
3317.44
3325.47
3334.82
3345.54
3357.71
3371.37
3386.59
3403.4
3421.89
3442.06
3463.93
3487.51
3512.77
3539.63
3568.01
3597.79
3628.79
3660.82
3693.61
3726.84
3760.21
3793.34
3825.8
3857.21
3887.16
3915.23
3941.05
3964.24
3984.48
4001.49
4015.03
4024.9
4030.96
4033.01
4031.63
4026.36
4017.26
4004.3
3987.67
3967.6
3944.37
3918.28
3889.7
3859.01
3826.65
3792.98
3758.35
3723.08
3687.47
3651.82
3616.42
3581.56
3547.54
3514.63
3483.09
3453.17
3425.04
3398.87
3374.72
3352.65
3332.64
3314.67
3298.67
3284.58
3271.61
3259.98
3250.2
3242.09
3235.52
3230.42
3226.78
3224.56
3223.75
3224.33
3226.25
3229.49
3234
3239.75
3246.69
3254.82
3264.09
3274.53
3286.11
3298.85
3312.75
3327.82
3344.05
3361.45
3380.01
3399.67
3420.44
3442.29
3465.19
3489.11
3513.99
3539.78
3566.38
3593.7
3621.6
3649.91
3678.46
3707.01
3735.31
3763.11
3790.12
3816.02
3840.53
3863.32
3884.09
3902.53
3918.35
3931.25
3940.98
3947.31
3950.05
3949.07
3944.24
3935.6
3923.29
3907.41
3888.1
3865.67
3840.44
3812.77
3783.07
3751.78
3719.32
3686.15
3652.72
3619.43
3586.71
3554.92
3524.39
3495.4
3468.17
3442.85
3419.56
3398.33
3379.19
3362.09
3347
3333.85
3322.55
3313
3305.09
3298.73
3293.76
3290.04
3287.47
3285.96
3285.39
3285.66
3286.67
3288.34
3290.57
3293.31
3296.48
3300.04
3303.96
3308.2
3312.74
3317.79
3323.04
3328.71
3334.87
3341.6
3349.01
3357.2
3366.29
3376.36
3387.54
3399.89
3413.51
3428.47
3444.84
3462.66
3481.95
3502.72
3524.93
3548.52
3573.39
3599.39
3626.34
3654.03
3682.2
3710.55
3738.76
3766.44
3793.23
3818.72
3842.49
3864.13
3883.25
3899.48
3912.5
3922.02
3927.78
3929.61
3927.57
3921.64
3911.81
3898.32
3881.46
3861.57
3839.03
3814.29
3787.81
3760.02
3731.38
3702.28
3673.1
3644.18
3615.82
3588.29
3561.79
3536.5
3512.56
3490.05
3469.03
3449.5
3431.45
3414.82
3399.55
3385.55
3372.71
3360.93
3350.1
3340.13
3330.92
3322.39
3314.49
3307.17
3300.43
3294.26
3288.69
3283.71
3279.36
3275.66
3272.63
3270.39
3268.94
3268.39
3268.82
3270.36
3273.13
3277.25
3282.86
3290.07
3299.03
3309.83
3322.62
3337.41
3354.4
3373.51
3394.9
3418.52
3444.41
3472.49
3502.73
3534.96
3569.03
3604.7
3641.67
3679.64
3718.25
3757.08
3795.74
3833.78
3870.75
3906.22
3939.71
3970.85
3999.19
4024.38
4046.1
4064.07
4078.05
4087.88
4093.68
4095.63
4093.71
4087.7
4077.94
4064.81
4048.54
4029.41
4007.71
3983.84
3958.11
3930.89
3902.52
3873.34
3843.74
3814.01
3784.45
3755.4
3727.07
3699.69
3673.43
3648.42
3624.8
3602.61
3581.88
3562.62
3544.78
3528.33
3513.18
3499.25
3486.46
3474.73
3463.97
3454.11
3445.09
3436.87
3429.41
3422.7
3416.73
3411.52
3407.09
3403.46
3400.68
3398.78
3397.8
3397.8
3398.85
3400.99
3404.23
3408.59
3414.1
3420.77
3454.19
3428.28
3403.61
3380.22
3358.2
3337.56
3318.38
3300.67
3284.45
3269.72
3256.46
3244.65
3234.24
3225.2
3217.47
3210.99
3205.72
3201.59
3198.57
3196.61
3195.7
3195.82
3196.97
3199.18
3202.47
3206.87
3212.43
3219.19
3227.21
3236.55
3247.27
3259.42
3273.07
3288.28
3305.09
3323.57
3343.74
3365.6
3389.19
3414.44
3441.31
3469.71
3499.5
3530.52
3562.58
3595.4
3628.67
3662.08
3695.26
3727.77
3759.23
3789.23
3817.35
3843.22
3866.46
3886.74
3903.79
3917.36
3927.25
3933.31
3935.38
3933.99
3928.73
3919.6
3906.62
3889.95
3869.85
3846.57
3820.43
3791.8
3761.06
3728.65
3694.93
3660.25
3624.95
3589.31
3553.64
3518.22
3483.34
3449.31
3416.38
3384.83
3354.9
3326.76
3300.58
3276.43
3254.36
3234.35
3216.37
3200.37
3186.24
3173.38
3161.7
3151.93
3143.82
3137.24
3132.15
3128.51
3126.29
3125.48
3126.06
3128
3131.24
3135.76
3141.51
3148.45
3156.58
3165.86
3176.29
3187.87
3200.61
3214.51
3229.57
3245.8
3263.21
3281.76
3301.42
3322.19
3344.04
3366.95
3390.86
3415.75
3441.54
3468.15
3495.48
3523.39
3551.73
3580.29
3608.87
3637.21
3665.04
3692.08
3718.02
3742.57
3765.4
3786.22
3804.7
3820.55
3833.5
3843.26
3849.62
3852.38
3851.41
3846.6
3837.93
3825.6
3809.69
3790.35
3767.87
3742.58
3714.86
3685.1
3653.75
3621.23
3588.01
3554.52
3521.19
3488.43
3456.6
3426.04
3397.03
3369.78
3344.46
3321.17
3299.95
3280.81
3263.73
3248.65
3235.51
3224.23
3214.69
3206.8
3200.46
3195.5
3191.79
3189.24
3187.74
3187.18
3187.46
3188.49
3190.16
3192.41
3195.15
3198.33
3201.89
3205.81
3210.05
3214.61
3219.62
3224.88
3230.54
3236.69
3243.41
3250.8
3258.98
3268.05
3278.12
3289.27
3301.62
3315.22
3330.18
3346.53
3364.34
3383.63
3404.4
3426.61
3450.21
3475.09
3501.1
3528.08
3555.8
3584
3612.39
3640.64
3668.38
3695.22
3720.77
3744.59
3766.29
3785.46
3801.74
3814.8
3824.35
3830.15
3831.96
3829.92
3823.97
3814.11
3800.58
3783.67
3763.72
3741.12
3716.32
3689.78
3661.94
3633.24
3604.1
3574.88
3545.93
3517.55
3489.99
3463.48
3438.19
3414.24
3391.73
3370.72
3351.2
3333.16
3316.54
3301.29
3287.29
3274.47
3262.7
3251.89
3241.93
3232.73
3224.21
3216.31
3209
3202.26
3196.09
3190.51
3185.53
3181.18
3177.46
3174.44
3172.18
3170.73
3170.16
3170.59
3172.12
3174.88
3179
3184.6
3191.81
3200.76
3211.56
3224.35
3239.14
3256.14
3275.25
3296.64
3320.26
3346.16
3374.24
3404.49
3436.73
3470.82
3506.51
3543.51
3581.51
3620.15
3659.02
3697.72
3735.8
3772.82
3808.33
3841.87
3873.05
3901.43
3926.67
3948.42
3966.42
3980.43
3990.3
3996.12
3997.99
3996.01
3990
3980.23
3967.06
3950.76
3931.58
3909.84
3885.92
3860.14
3832.88
3804.46
3775.23
3745.59
3715.83
3686.25
3657.17
3628.81
3601.42
3575.14
3550.13
3526.5
3504.31
3483.59
3464.33
3446.51
3430.06
3414.92
3401.01
3388.23
3376.51
3365.76
3355.9
3346.89
3338.67
3331.22
3324.51
3318.54
3313.33
3308.89
3305.26
3302.48
3300.57
3299.59
3299.58
3300.63
3302.76
3306
3310.36
3315.86
3322.53
3355.87
3329.95
3305.28
3281.88
3259.85
3239.22
3220.04
3202.33
3186.11
3171.38
3158.13
3146.32
3135.93
3126.89
3119.17
3112.7
3107.44
3103.32
3100.3
3098.35
3097.43
3097.55
3098.7
3100.91
3104.19
3108.59
3114.14
3120.88
3128.9
3138.22
3148.93
3161.07
3174.71
3189.91
3206.71
3225.18
3245.34
3267.2
3290.78
3316.04
3342.92
3371.33
3401.15
3432.2
3464.28
3497.15
3530.47
3563.94
3597.18
3629.75
3661.29
3691.35
3719.55
3745.48
3768.78
3789.12
3806.21
3819.82
3829.74
3835.82
3837.91
3836.52
3831.25
3822.09
3809.08
3792.37
3772.21
3748.87
3722.67
3693.96
3663.15
3630.67
3596.89
3562.16
3526.81
3491.13
3455.43
3419.98
3385.08
3351.03
3318.08
3286.51
3256.57
3228.42
3202.23
3178.07
3156
3135.99
3118.01
3102
3087.84
3075.08
3063.35
3053.6
3045.49
3038.91
3033.82
3030.18
3027.97
3027.17
3027.75
3029.69
3032.94
3037.46
3043.22
3050.17
3058.29
3067.57
3078
3089.59
3102.32
3116.22
3131.28
3147.51
3164.92
3183.47
3203.13
3223.9
3245.75
3268.65
3292.57
3317.46
3343.26
3369.88
3397.22
3425.16
3453.51
3482.11
3510.72
3539.09
3566.97
3594.06
3620.06
3644.66
3667.55
3688.41
3706.95
3722.86
3735.86
3745.67
3752.06
3754.85
3753.89
3749.1
3740.41
3728.06
3712.1
3692.71
3670.17
3644.81
3617.01
3587.18
3555.74
3523.15
3489.85
3456.29
3422.9
3390.08
3358.2
3327.61
3298.57
3271.31
3245.98
3222.69
3201.47
3182.35
3165.28
3150.22
3137.1
3125.83
3116.32
3108.45
3102.13
3097.19
3093.5
3090.97
3089.49
3088.94
3089.24
3090.28
3091.97
3094.23
3096.98
3100.16
3103.73
3107.65
3111.9
3116.46
3121.45
3126.7
3132.36
3138.49
3145.19
3152.56
3160.72
3169.77
3179.82
3190.96
3203.28
3216.87
3231.81
3248.16
3265.96
3285.24
3306
3328.22
3351.83
3376.72
3402.76
3429.77
3457.52
3485.77
3514.21
3542.52
3570.33
3597.25
3622.86
3646.76
3668.53
3687.78
3704.12
3717.23
3726.82
3732.66
3734.49
3732.43
3726.44
3716.54
3702.97
3685.99
3665.96
3643.28
3618.4
3591.78
3563.86
3535.1
3505.9
3476.63
3447.63
3419.22
3391.64
3365.11
3339.8
3315.85
3293.35
3272.34
3252.83
3234.81
3218.21
3202.97
3188.99
3176.19
3164.44
3153.65
3143.71
3134.52
3126.01
3118.11
3110.8
3104.06
3097.89
3092.31
3087.32
3082.96
3079.24
3076.21
3073.94
3072.48
3071.9
3072.32
3073.83
3076.58
3080.69
3086.29
3093.49
3102.44
3113.24
3126.03
3140.82
3157.82
3176.93
3198.32
3221.95
3247.85
3275.94
3306.21
3338.47
3372.58
3408.3
3445.33
3483.37
3522.05
3560.97
3599.72
3637.86
3674.94
3710.51
3744.11
3775.35
3803.8
3829.08
3850.89
3868.92
3882.96
3892.87
3898.7
3900.52
3898.48
3892.45
3882.66
3869.44
3853.08
3833.84
3812.04
3788.06
3762.21
3734.89
3706.41
3677.13
3647.44
3617.63
3588
3558.89
3530.5
3503.09
3476.79
3451.77
3428.14
3405.95
3385.23
3365.99
3348.17
3331.74
3316.62
3302.72
3289.96
3278.25
3267.51
3257.67
3248.66
3240.45
3233
3226.29
3220.32
3215.11
3210.67
3207.03
3204.24
3202.32
3201.33
3201.32
3202.36
3204.49
3207.72
3212.08
3217.58
3224.24
3257.5
3231.57
3206.88
3183.48
3161.45
3140.81
3121.63
3103.92
3087.7
3072.99
3059.74
3047.94
3037.56
3028.53
3020.82
3014.37
3009.11
3005
3001.99
3000.04
2999.13
2999.25
3000.39
3002.59
3005.87
3010.25
3015.79
3022.53
3030.53
3039.84
3050.53
3062.66
3076.29
3091.47
3108.26
3126.71
3146.87
3168.72
3192.31
3217.57
3244.46
3272.89
3302.73
3333.81
3365.94
3398.86
3432.25
3465.79
3499.1
3531.76
3563.38
3593.54
3621.82
3647.84
3671.21
3691.61
3708.77
3722.43
3732.38
3738.48
3740.58
3739.22
3733.93
3724.73
3711.67
3694.91
3674.68
3651.27
3624.99
3596.2
3565.3
3532.73
3498.87
3464.07
3428.66
3392.93
3357.19
3321.71
3286.78
3252.7
3219.74
3188.14
3158.18
3130.02
3103.81
3079.65
3057.57
3037.57
3019.59
3003.57
2989.38
2976.7
2964.95
2955.22
2947.11
2940.53
2935.44
2931.8
2929.59
2928.79
2929.38
2931.33
2934.59
2939.12
2944.88
2951.84
2959.96
2969.25
2979.68
2991.25
3003.99
3017.88
3032.95
3049.17
3066.58
3085.12
3104.79
3125.56
3147.41
3170.31
3194.24
3219.13
3244.94
3271.57
3298.93
3326.88
3355.27
3383.9
3412.55
3440.98
3468.91
3496.06
3522.12
3546.79
3569.75
3590.69
3609.3
3625.28
3638.34
3648.2
3654.65
3657.47
3656.53
3651.74
3643.05
3630.65
3614.64
3595.18
3572.57
3547.12
3519.23
3489.29
3457.76
3425.07
3391.68
3358.03
3324.56
3291.67
3259.73
3229.09
3200.02
3172.73
3147.4
3124.11
3102.9
3083.79
3066.74
3051.7
3038.61
3027.36
3017.87
3010.03
3003.75
2998.83
2995.17
2992.66
2991.2
2990.67
2990.99
2992.05
2993.75
2996.02
2998.78
3001.98
3005.55
3009.48
3013.73
3018.3
3023.26
3028.51
3034.15
3040.26
3046.94
3054.29
3062.42
3071.45
3081.47
3092.59
3104.89
3118.46
3133.38
3149.71
3167.5
3186.77
3207.53
3229.76
3253.38
3278.29
3304.36
3331.4
3359.2
3387.51
3416.02
3444.4
3472.29
3499.3
3525.01
3549
3570.87
3590.2
3606.63
3619.8
3629.44
3635.3
3637.17
3635.1
3629.07
3619.12
3605.47
3588.41
3568.28
3545.5
3520.52
3493.8
3465.8
3436.95
3407.67
3378.34
3349.29
3320.83
3293.22
3266.67
3241.35
3217.4
3194.89
3173.89
3154.4
3136.39
3119.81
3104.59
3090.64
3077.86
3066.14
3055.37
3045.45
3036.27
3027.77
3019.89
3012.58
3005.84
2999.67
2994.08
2989.09
2984.72
2980.99
2977.95
2975.67
2974.19
2973.6
2974
2975.5
2978.24
2982.34
2987.92
2995.13
3004.07
3014.86
3027.65
3042.44
3059.44
3078.56
3099.95
3123.58
3149.49
3177.59
3207.88
3240.16
3274.3
3310.06
3347.13
3385.22
3423.96
3462.93
3501.75
3539.96
3577.11
3612.76
3646.44
3677.76
3706.27
3731.63
3753.49
3771.57
3785.65
3795.6
3801.43
3803.2
3801.11
3795.04
3785.21
3771.94
3755.51
3736.19
3714.31
3690.25
3664.33
3636.93
3608.38
3579.02
3549.27
3519.4
3489.72
3460.56
3432.14
3404.69
3378.38
3353.35
3329.71
3307.52
3286.81
3267.58
3249.78
3233.36
3218.26
3204.38
3191.64
3179.95
3169.23
3159.4
3150.4
3142.2
3134.75
3128.04
3122.07
3116.85
3112.41
3108.76
3105.96
3104.04
3103.04
3103.02
3104.06
3106.18
3109.4
3113.75
3119.24
3125.9
3159.08
3133.14
3108.43
3085.02
3062.98
3042.34
3023.16
3005.45
2989.24
2974.53
2961.29
2949.51
2939.13
2930.12
2922.43
2915.98
2910.74
2906.64
2903.64
2901.69
2900.78
2900.9
2902.04
2904.23
2907.5
2911.88
2917.4
2924.12
2932.1
2941.4
2952.07
2964.19
2977.79
2992.96
3009.73
3028.18
3048.32
3070.17
3093.75
3119.02
3145.92
3174.37
3204.24
3235.37
3267.55
3300.54
3334
3367.62
3401.04
3433.8
3465.52
3495.78
3524.16
3550.28
3573.74
3594.23
3611.46
3625.18
3635.18
3641.3
3643.41
3642.06
3636.76
3627.52
3614.41
3597.58
3577.27
3553.77
3527.39
3498.5
3467.49
3434.81
3400.86
3365.97
3330.49
3294.71
3258.92
3223.4
3188.44
3154.33
3121.34
3089.72
3059.74
3031.56
3005.34
2981.17
2959.09
2939.08
2921.11
2905.08
2890.86
2878.23
2866.51
2856.78
2848.67
2842.09
2837
2833.36
2831.15
2830.36
2830.96
2832.92
2836.19
2840.73
2846.5
2853.46
2861.59
2870.87
2881.3
2892.88
2905.61
2919.5
2934.56
2950.79
2968.19
2986.73
3006.4
3027.17
3049.02
3071.93
3095.85
3120.75
3146.57
3173.21
3200.59
3228.58
3257
3285.67
3314.37
3342.86
3370.86
3398.08
3424.22
3448.97
3472.01
3493.04
3511.73
3527.79
3540.93
3550.87
3557.37
3560.23
3559.31
3554.52
3545.83
3533.39
3517.31
3497.78
3475.07
3449.51
3421.51
3391.45
3359.8
3326.99
3293.49
3259.74
3226.17
3193.2
3161.19
3130.49
3101.38
3074.07
3048.72
3025.43
3004.24
2985.14
2968.12
2953.11
2940.04
2928.82
2919.37
2911.56
2905.31
2900.41
2896.78
2894.3
2892.87
2892.37
2892.71
2893.79
2895.51
2897.8
2900.58
2903.78
2907.36
2911.3
2915.55
2920.12
2925.05
2930.3
2935.92
2942.01
2948.66
2955.98
2964.09
2973.09
2983.08
2994.17
3006.45
3019.99
3034.89
3051.2
3068.97
3088.24
3108.99
3131.22
3154.85
3179.79
3205.89
3232.98
3260.84
3289.21
3317.8
3346.28
3374.27
3401.38
3427.21
3451.31
3473.29
3492.73
3509.25
3522.51
3532.21
3538.11
3540
3537.92
3531.84
3521.83
3508.1
3490.93
3470.69
3447.79
3422.69
3395.85
3367.73
3338.79
3309.42
3280.01
3250.89
3222.38
3194.73
3168.16
3142.82
3118.87
3096.37
3075.38
3055.9
3037.91
3021.36
3006.17
2992.25
2979.49
2967.8
2957.05
2947.15
2938
2929.52
2921.64
2914.34
2907.6
2901.42
2895.83
2890.83
2886.45
2882.72
2879.66
2877.36
2875.87
2875.26
2875.64
2877.13
2879.85
2883.94
2889.51
2896.7
2905.64
2916.43
2929.22
2944.01
2961.01
2980.13
3001.52
3025.16
3051.08
3079.2
3109.5
3141.81
3175.99
3211.79
3248.91
3287.06
3325.86
3364.91
3403.81
3442.1
3479.34
3515.08
3548.85
3580.27
3608.87
3634.31
3656.24
3674.37
3688.49
3698.48
3704.32
3706.05
3703.9
3697.78
3687.9
3674.56
3658.04
3638.64
3616.66
3592.51
3566.48
3538.99
3510.35
3480.92
3451.08
3421.14
3391.4
3362.19
3333.73
3306.24
3279.91
3254.86
3231.21
3209.03
3188.32
3169.1
3151.33
3134.93
3119.85
3106
3093.28
3081.61
3070.91
3061.09
3052.11
3043.91
3036.47
3029.76
3023.79
3018.57
3014.12
3010.46
3007.65
3005.72
3004.72
3004.68
3005.71
3007.82
3011.04
3015.38
3020.86
3027.51
3060.6
3034.64
3009.93
2986.5
2964.45
2943.8
2924.62
2906.92
2890.71
2876.01
2862.79
2851.01
2840.65
2831.66
2823.98
2817.55
2812.32
2808.24
2805.24
2803.31
2802.39
2802.51
2803.65
2805.83
2809.09
2813.45
2818.96
2825.66
2833.63
2842.91
2853.56
2865.65
2879.24
2894.38
2911.14
2929.56
2949.69
2971.54
2995.12
3020.4
3047.31
3075.79
3105.69
3136.87
3169.11
3202.17
3235.72
3269.45
3302.97
3335.85
3367.69
3398.08
3426.58
3452.81
3476.38
3496.97
3514.28
3528.07
3538.12
3544.28
3546.4
3545.07
3539.74
3530.46
3517.29
3500.37
3479.97
3456.37
3429.88
3400.87
3369.73
3336.93
3302.86
3267.88
3232.32
3196.46
3160.62
3125.06
3090.06
3055.92
3022.89
2991.25
2961.24
2933.03
2906.8
2882.62
2860.54
2840.53
2822.56
2806.52
2792.29
2779.62
2768.08
2758.29
2750.17
2743.59
2738.5
2734.86
2732.66
2731.88
2732.49
2734.46
2737.74
2742.29
2748.07
2755.04
2763.17
2772.45
2782.88
2794.45
2807.18
2821.07
2836.13
2852.35
2869.76
2888.3
2907.96
2928.73
2950.58
2973.49
2997.42
3022.33
3048.15
3074.82
3102.22
3130.23
3158.7
3187.42
3216.18
3244.74
3272.82
3300.12
3326.35
3351.2
3374.34
3395.46
3414.26
3430.41
3443.64
3453.66
3460.23
3463.14
3462.25
3457.46
3448.75
3436.27
3420.11
3400.49
3377.66
3351.99
3323.85
3293.66
3261.86
3228.92
3195.29
3161.41
3127.73
3094.66
3062.57
3031.81
3002.64
2975.31
2949.95
2926.66
2905.48
2886.4
2869.4
2854.42
2841.39
2830.21
2820.79
2813.03
2806.81
2801.95
2798.35
2795.91
2794.5
2794.03
2794.4
2795.5
2797.25
2799.56
2802.35
2805.57
2809.16
2813.1
2817.35
2821.92
2826.84
2832.07
2837.67
2843.73
2850.35
2857.64
2865.71
2874.68
2884.64
2895.7
2907.94
2921.46
2936.33
2952.62
2970.37
2989.62
3010.38
3032.62
3056.26
3081.23
3107.37
3134.51
3162.43
3190.88
3219.57
3248.15
3276.26
3303.5
3329.45
3353.7
3375.81
3395.37
3412
3425.36
3435.13
3441.07
3442.99
3440.89
3434.77
3424.68
3410.85
3393.56
3373.19
3350.15
3324.9
3297.92
3269.68
3240.61
3211.14
3181.64
3152.45
3123.88
3096.19
3069.58
3044.23
3020.26
2997.77
2976.79
2957.34
2939.37
2922.85
2907.69
2893.8
2881.08
2869.42
2858.7
2848.83
2839.71
2831.24
2823.38
2816.08
2809.34
2803.15
2797.55
2792.54
2788.16
2784.41
2781.34
2779.03
2777.51
2776.88
2777.24
2778.71
2781.41
2785.48
2791.05
2798.23
2807.16
2817.95
2830.73
2845.53
2862.53
2881.65
2903.05
2926.69
2952.62
2980.75
3011.08
3043.42
3077.64
3113.49
3150.67
3188.88
3227.76
3266.9
3305.89
3344.27
3381.62
3417.47
3451.35
3482.88
3511.58
3537.11
3559.12
3577.32
3591.49
3601.52
3607.36
3609.05
3606.84
3600.67
3590.73
3577.3
3560.69
3541.17
3519.08
3494.82
3468.69
3441.08
3412.34
3382.8
3352.88
3322.86
3293.05
3263.77
3235.26
3207.74
3181.37
3156.3
3132.65
3110.46
3089.77
3070.57
3052.81
3036.45
3021.39
3007.57
2994.88
2983.24
2972.55
2962.76
2953.79
2945.6
2938.16
2931.46
2925.48
2920.25
2915.79
2912.13
2909.31
2907.37
2906.35
2906.3
2907.32
2909.43
2912.63
2916.96
2922.44
2929.08
2962.07
2936.09
2911.36
2887.92
2865.86
2845.21
2826.02
2808.33
2792.13
2777.43
2764.22
2752.46
2742.12
2733.14
2725.48
2719.07
2713.86
2709.79
2706.81
2704.88
2703.97
2704.08
2705.22
2707.39
2710.63
2714.98
2720.47
2727.15
2735.1
2744.35
2754.98
2767.05
2780.61
2795.74
2812.47
2830.88
2851
2872.83
2896.41
2921.7
2948.63
2977.13
3007.08
3038.31
3070.63
3103.77
3137.42
3171.26
3204.91
3237.92
3269.91
3300.43
3329.07
3355.43
3379.13
3399.82
3417.24
3431.1
3441.22
3447.42
3449.55
3448.23
3442.88
3433.55
3420.3
3403.3
3382.79
3359.07
3332.45
3303.3
3272.02
3239.08
3204.88
3169.79
3134.13
3098.2
3062.3
3026.68
2991.64
2957.46
2924.4
2892.72
2862.68
2834.45
2808.2
2784.01
2761.92
2741.91
2723.94
2707.9
2693.65
2680.97
2669.56
2659.75
2651.62
2645.03
2639.94
2636.31
2634.11
2633.34
2633.96
2635.94
2639.24
2643.8
2649.59
2656.57
2664.7
2673.99
2684.42
2695.99
2708.71
2722.59
2737.65
2753.87
2771.27
2789.81
2809.48
2830.25
2852.1
2875.01
2898.94
2923.86
2949.69
2976.38
3003.81
3031.86
3060.37
3089.15
3117.98
3146.62
3174.78
3202.18
3228.52
3253.47
3276.72
3297.96
3316.87
3333.13
3346.47
3356.58
3363.22
3366.19
3365.33
3360.55
3351.82
3339.28
3323.05
3303.31
3280.37
3254.55
3226.25
3195.9
3163.95
3130.85
3097.07
3063.05
3029.24
2996.06
2963.88
2933.04
2903.82
2876.45
2851.07
2827.79
2806.62
2787.57
2770.6
2755.66
2742.66
2731.53
2722.15
2714.44
2708.25
2703.44
2699.88
2697.47
2696.1
2695.66
2696.06
2697.19
2698.97
2701.3
2704.11
2707.34
2710.94
2714.89
2719.15
2723.71
2728.61
2733.82
2739.4
2745.44
2752.02
2759.27
2767.3
2776.23
2786.15
2797.17
2809.38
2822.87
2837.71
2853.97
2871.7
2890.94
2911.69
2933.94
2957.6
2982.6
3008.78
3035.98
3063.98
3092.52
3121.31
3150.01
3178.26
3205.64
3231.75
3256.15
3278.41
3298.11
3314.88
3328.34
3338.19
3344.19
3346.14
3344.02
3337.84
3327.67
3313.73
3296.3
3275.77
3252.56
3227.16
3200.02
3171.63
3142.42
3112.83
3083.23
3053.95
3025.32
2997.57
2970.93
2945.56
2921.59
2899.1
2878.14
2858.71
2840.77
2824.28
2809.16
2795.3
2782.62
2770.99
2760.32
2750.48
2741.38
2732.93
2725.09
2717.79
2711.05
2704.86
2699.25
2694.23
2689.84
2686.08
2682.99
2680.66
2679.12
2678.46
2678.8
2680.24
2682.93
2686.98
2692.53
2699.7
2708.62
2719.41
2732.19
2746.99
2763.99
2783.12
2804.51
2828.17
2854.11
2882.26
2912.62
2944.99
2979.25
3015.16
3052.41
3090.7
3129.66
3168.9
3207.99
3246.49
3283.96
3319.93
3353.94
3385.59
3414.41
3440.05
3462.15
3480.42
3494.65
3504.71
3510.56
3512.21
3509.94
3503.7
3493.68
3480.16
3463.43
3443.8
3421.58
3397.19
3370.93
3343.2
3314.34
3284.69
3254.66
3224.55
3194.65
3165.31
3136.73
3109.17
3082.77
3057.68
3034.02
3011.84
2991.15
2971.97
2954.24
2937.9
2922.88
2909.09
2896.43
2884.82
2874.16
2864.39
2855.43
2847.26
2839.82
2833.12
2827.14
2821.91
2817.44
2813.77
2810.93
2808.98
2807.95
2807.88
2808.89
2810.99
2814.18
2818.5
2823.97
2830.59
2863.48
2837.48
2812.74
2789.28
2767.21
2746.55
2727.36
2709.67
2693.48
2678.8
2665.6
2653.86
2643.53
2634.58
2626.93
2620.55
2615.35
2611.3
2608.33
2606.4
2605.5
2605.61
2606.74
2608.9
2612.13
2616.46
2621.93
2628.59
2636.51
2645.75
2656.35
2668.39
2681.93
2697.02
2713.73
2732.12
2752.22
2774.05
2797.63
2822.92
2849.87
2878.41
2908.4
2939.69
2972.09
3005.33
3039.09
3073.06
3106.85
3140.02
3172.16
3202.84
3231.63
3258.15
3281.99
3302.8
3320.32
3334.28
3344.47
3350.71
3352.87
3351.55
3346.18
3336.79
3323.46
3306.36
3285.73
3261.87
3235.11
3205.8
3174.35
3141.25
3106.91
3071.69
3035.93
2999.91
2963.94
2928.27
2893.18
2858.96
2825.86
2794.14
2764.07
2735.81
2709.54
2685.33
2663.24
2643.23
2625.26
2609.22
2594.96
2582.27
2570.93
2561.18
2553.01
2546.42
2541.33
2537.7
2535.51
2534.75
2535.39
2537.38
2540.69
2545.27
2551.07
2558.05
2566.2
2575.48
2585.91
2597.47
2610.19
2624.07
2639.12
2655.35
2672.74
2691.28
2710.94
2731.72
2753.57
2776.48
2800.42
2825.34
2851.19
2877.89
2905.35
2933.45
2962.01
2990.85
3019.76
3048.49
3076.75
3104.26
3130.72
3155.79
3179.17
3200.53
3219.57
3235.96
3249.41
3259.63
3266.36
3269.39
3268.56
3263.78
3255.04
3242.44
3226.11
3206.26
3183.17
3157.19
3128.72
3098.19
3066.06
3032.78
2998.83
2964.66
2930.7
2897.39
2865.1
2834.18
2804.9
2777.49
2752.1
2728.82
2707.67
2688.65
2671.71
2656.81
2643.86
2632.77
2623.43
2615.79
2609.64
2604.87
2601.36
2598.99
2597.66
2597.26
2597.69
2598.86
2600.66
2603.02
2605.85
2609.09
2612.71
2616.66
2620.92
2625.49
2630.37
2635.56
2641.12
2647.11
2653.65
2660.86
2668.85
2677.73
2687.61
2698.59
2710.77
2724.21
2739.02
2755.25
2772.96
2792.18
2812.93
2835.18
2858.87
2883.9
2910.14
2937.4
2965.48
2994.12
3023.03
3051.87
3080.27
3107.82
3134.09
3158.67
3181.1
3200.97
3217.87
3231.46
3241.41
3247.46
3249.44
3247.31
3241.07
3230.8
3216.73
3199.14
3178.44
3155.05
3129.45
3102.14
3073.58
3044.23
3014.5
2984.78
2955.41
2926.69
2898.89
2872.21
2846.82
2822.84
2800.36
2779.41
2760.01
2742.11
2725.65
2710.57
2696.76
2684.12
2672.53
2661.9
2652.1
2643.03
2634.61
2626.77
2619.48
2612.74
2606.55
2600.93
2595.9
2591.49
2587.71
2584.61
2582.25
2580.69
2580.01
2580.31
2581.73
2584.39
2588.43
2593.96
2601.12
2610.03
2620.81
2633.6
2648.4
2665.4
2684.53
2705.93
2729.59
2755.55
2783.72
2814.1
2846.52
2880.83
2916.81
2954.13
2992.5
3031.57
3070.91
3110.12
3148.75
3186.35
3222.46
3256.61
3288.4
3317.36
3343.12
3365.33
3383.68
3397.97
3408.07
3413.91
3415.54
3413.2
3406.89
3396.78
3383.14
3366.29
3346.52
3324.16
3299.62
3273.21
3245.35
3216.35
3186.57
3156.43
3126.21
3096.22
3066.8
3038.16
3010.54
2984.1
2958.99
2935.32
2913.14
2892.47
2873.31
2855.61
2839.31
2824.32
2810.57
2797.94
2786.36
2775.73
2765.98
2757.05
2748.88
2741.46
2734.75
2728.77
2723.53
2719.05
2715.37
2712.52
2710.55
2709.5
2709.43
2710.42
2712.5
2715.69
2720
2725.45
2732.06
2764.84
2738.82
2714.05
2690.58
2668.49
2647.83
2628.64
2610.95
2594.77
2580.1
2566.92
2555.19
2544.89
2535.96
2528.34
2521.97
2516.8
2512.77
2509.81
2507.89
2506.99
2507.11
2508.22
2510.38
2513.59
2517.9
2523.35
2529.98
2537.88
2547.08
2557.65
2569.67
2583.17
2598.24
2614.92
2633.29
2653.37
2675.19
2698.77
2724.07
2751.04
2779.61
2809.65
2841.01
2873.49
2906.84
2940.74
2974.85
3008.8
3042.13
3074.45
3105.3
3134.27
3160.96
3184.95
3205.9
3223.54
3237.6
3247.87
3254.16
3256.34
3255.03
3249.62
3240.17
3226.76
3209.55
3188.78
3164.77
3137.84
3108.36
3076.73
3043.46
3008.95
2973.6
2937.71
2901.6
2865.55
2829.82
2794.68
2760.41
2727.27
2695.51
2665.4
2637.11
2610.81
2586.59
2564.49
2544.49
2526.53
2510.48
2496.22
2483.53
2472.24
2462.53
2454.34
2447.75
2442.66
2439.03
2436.85
2436.1
2436.75
2438.77
2442.09
2446.69
2452.5
2459.49
2467.64
2476.93
2487.35
2498.91
2511.63
2525.5
2540.55
2556.77
2574.17
2592.7
2612.37
2633.14
2654.99
2677.9
2701.84
2726.77
2752.64
2779.37
2806.86
2835
2863.62
2892.54