/*--------------------------------*- C++ -*----------------------------------*\
| =========                 |                                                 |
| \\      /  F ield         | OpenFOAM: The Open Source CFD Toolbox           |
|  \\    /   O peration     | Version:  3.0.1                                 |
|   \\  /    A nd           | Web:      www.OpenFOAM.org                      |
|    \\/     M anipulation  |                                                 |
\*---------------------------------------------------------------------------*/
FoamFile
{
    version     2.0;
    format      ascii;
    class       volVectorField;
    location    "78";
    object      U;
}
// * * * * * * * * * * * * * * * * * * * * * * * * * * * * * * * * * * * * * //

dimensions      [0 1 -1 0 0 0 0];

internalField   nonuniform List<vector> 
21420
(
(0.10783 0.00129882 0)
(0.096906 0.00118824 0)
(0.0853973 0.0010894 0)
(0.0749282 0.000989376 0)
(0.0654992 0.000881993 0)
(0.0570858 0.000785645 0)
(0.0496532 0.000687086 0)
(0.0431574 0.000598826 0)
(0.0375444 0.000515206 0)
(0.032758 0.000434658 0)
(0.0287376 0.000362669 0)
(0.0254203 0.000296381 0)
(0.0227449 0.000235107 0)
(0.0206531 0.000180238 0)
(0.019091 0.000130045 0)
(0.0180098 8.45557e-05 0)
(0.0173703 4.26236e-05 0)
(0.0171388 3.7728e-06 0)
(0.0172873 -3.31522e-05 0)
(0.0178049 -6.9223e-05 0)
(0.0186832 -0.000105135 0)
(0.0199277 -0.000141859 0)
(0.0215496 -0.00018009 0)
(0.0235659 -0.000220572 0)
(0.0260021 -0.000263373 0)
(0.0288867 -0.000309511 0)
(0.0322494 -0.000358043 0)
(0.0361141 -0.000408945 0)
(0.0405106 -0.000464121 0)
(0.0454655 -0.000520012 0)
(0.0509983 -0.000577172 0)
(0.0571331 -0.000640119 0)
(0.063888 -0.000700678 0)
(0.0712802 -0.000768535 0)
(0.0793214 -0.000832546 0)
(0.0880297 -0.000895826 0)
(0.0974297 -0.000970932 0)
(0.107525 -0.00103803 0)
(0.118328 -0.00110148 0)
(0.129849 -0.00118245 0)
(0.142084 -0.00124549 0)
(0.155018 -0.00132648 0)
(0.168643 -0.00138787 0)
(0.182906 -0.00143559 0)
(0.197726 -0.00150319 0)
(0.213055 -0.00154206 0)
(0.228774 -0.00156068 0)
(0.244726 -0.00159171 0)
(0.260787 -0.00158819 0)
(0.276776 -0.00156075 0)
(0.292478 -0.00153211 0)
(0.307681 -0.00146798 0)
(0.322176 -0.00138913 0)
(0.335707 -0.00128427 0)
(0.348084 -0.00115423 0)
(0.359069 -0.00100715 0)
(0.36845 -0.000843883 0)
(0.376061 -0.00065549 0)
(0.381734 -0.000460576 0)
(0.385345 -0.000253226 0)
(0.386788 -5.57465e-05 0)
(0.386246 0.00014363 0)
(0.383526 0.0003687 0)
(0.378768 0.000569916 0)
(0.3721 0.000758001 0)
(0.363603 0.00094632 0)
(0.353353 0.00110709 0)
(0.341488 0.00126369 0)
(0.328163 0.00139819 0)
(0.313434 0.00153084 0)
(0.297365 0.00166576 0)
(0.279982 0.00178896 0)
(0.261363 0.00190626 0)
(0.241849 0.002007 0)
(0.221593 0.00207508 0)
(0.201049 0.00211217 0)
(0.180577 0.00211737 0)
(0.160342 0.00208094 0)
(0.141029 0.00200106 0)
(0.122719 0.00190474 0)
(0.105577 0.00177909 0)
(0.0898956 0.00163716 0)
(0.0756465 0.00149165 0)
(0.062776 0.00134518 0)
(0.0513093 0.00120541 0)
(0.0410619 0.00106956 0)
(0.0319802 0.000948996 0)
(0.0238927 0.000847082 0)
(0.0166638 0.000750202 0)
(0.0102298 0.000667015 0)
(0.00441606 0.000589475 0)
(-0.00123617 0.000502541 0)
(-0.00650736 0.000479903 0)
(-0.0110866 0.000443653 0)
(-0.0151942 0.000396666 0)
(-0.0188325 0.000359504 0)
(-0.0220675 0.000311603 0)
(-0.0248552 0.000270575 0)
(-0.027304 0.000224103 0)
(-0.0293463 0.000170957 0)
(-0.0309 0.000139961 0)
(-0.031999 8.56097e-05 0)
(-0.0326563 3.98532e-05 0)
(-0.0328584 -1.37343e-06 0)
(-0.0326139 -4.55553e-05 0)
(-0.0319173 -9.43064e-05 0)
(-0.0307466 -0.000135539 0)
(-0.0290861 -0.000189541 0)
(-0.0269483 -0.00023871 0)
(-0.0242502 -0.000292624 0)
(-0.0209914 -0.000352687 0)
(-0.0171919 -0.000406014 0)
(-0.0127799 -0.000464438 0)
(-0.00770846 -0.0005306 0)
(-0.00198029 -0.000601399 0)
(0.00446027 -0.000669781 0)
(0.0116262 -0.000744954 0)
(0.0195506 -0.000818556 0)
(0.0282509 -0.000903514 0)
(0.0377894 -0.000982069 0)
(0.0481469 -0.00106918 0)
(0.0593788 -0.00115348 0)
(0.0714662 -0.00124703 0)
(0.0844535 -0.00132687 0)
(0.0982727 -0.00140718 0)
(0.112885 -0.0014808 0)
(0.128218 -0.00155686 0)
(0.144163 -0.00161407 0)
(0.160616 -0.00164727 0)
(0.177402 -0.00167516 0)
(0.194358 -0.00168275 0)
(0.211278 -0.00166888 0)
(0.227981 -0.00163951 0)
(0.244267 -0.00158561 0)
(0.259906 -0.00151777 0)
(0.274769 -0.00142557 0)
(0.288627 -0.00132024 0)
(0.30127 -0.00118315 0)
(0.312545 -0.00103719 0)
(0.322205 -0.000872643 0)
(0.330069 -0.000686121 0)
(0.335947 -0.000478096 0)
(0.339693 -0.000258626 0)
(0.341158 -4.23393e-05 0)
(0.340441 0.000191391 0)
(0.337183 0.000431075 0)
(0.331682 0.000658333 0)
(0.324003 0.000865945 0)
(0.314278 0.00106187 0)
(0.302703 0.00123499 0)
(0.289479 0.00138324 0)
(0.274875 0.00151293 0)
(0.259114 0.00161003 0)
(0.242488 0.00168293 0)
(0.225212 0.0017433 0)
(0.207514 0.00176265 0)
(0.189682 0.00177273 0)
(0.17196 0.00175185 0)
(0.154499 0.00170644 0)
(0.137509 0.00165462 0)
(0.121203 0.00158688 0)
(0.105674 0.00149782 0)
(0.0910088 0.00140384 0)
(0.0773171 0.00131159 0)
(0.0646473 0.00120819 0)
(0.053024 0.00110007 0)
(0.0425003 0.000989934 0)
(0.0330978 0.000875419 0)
(0.0248041 0.000774055 0)
(0.0175577 0.00065853 0)
(0.0113494 0.000564534 0)
(0.00608181 0.000481103 0)
(0.00166928 0.00040835 0)
(-0.00203077 0.000340082 0)
(-0.00513004 0.000276572 0)
(-0.00765585 0.000228068 0)
(-0.00968008 0.000176149 0)
(-0.0112262 0.000123761 0)
(-0.0123031 8.37114e-05 0)
(-0.0129257 4.4687e-05 0)
(-0.0131515 -1.15861e-06 0)
(-0.0129468 -4.43571e-05 0)
(-0.0122854 -9.32602e-05 0)
(-0.0111393 -0.000129785 0)
(-0.00951663 -0.000190151 0)
(-0.00741449 -0.000240864 0)
(-0.00480982 -0.00027015 0)
(-0.00176551 -0.000314577 0)
(0.00169905 -0.000358805 0)
(0.00550087 -0.000394939 0)
(0.00963846 -0.000432188 0)
(0.0141903 -0.000463485 0)
(0.0191438 -0.000515066 0)
(0.0246335 -0.000571474 0)
(0.0307186 -0.000623502 0)
(0.0373836 -0.000697002 0)
(0.0447809 -0.00076633 0)
(0.0528766 -0.000837249 0)
(0.0616906 -0.000917359 0)
(0.0712735 -0.000986364 0)
(0.0816154 -0.00106252 0)
(0.0927167 -0.00115022 0)
(0.104655 -0.00121981 0)
(0.117381 -0.00129448 0)
(0.130873 -0.00137519 0)
(0.145101 -0.00145263 0)
(0.160086 -0.001521 0)
(0.17576 -0.00159925 0)
(0.192093 -0.0016431 0)
(0.20894 -0.00168592 0)
(0.226169 -0.00172462 0)
(0.243602 -0.00174119 0)
(0.261102 -0.00173326 0)
(0.278464 -0.00170552 0)
(0.295451 -0.00165814 0)
(0.311804 -0.00157772 0)
(0.327216 -0.00147218 0)
(0.341436 -0.00134045 0)
(0.354208 -0.00117952 0)
(0.365228 -0.00100171 0)
(0.374264 -0.000791542 0)
(0.381099 -0.000561451 0)
(0.385547 -0.00031661 0)
(0.387428 -6.46814e-05 0)
(0.386864 0.000194547 0)
(0.383447 0.000466802 0)
(0.377442 0.00071203 0)
(0.369085 0.000944089 0)
(0.358513 0.00115289 0)
(0.345962 0.00133282 0)
(0.331732 0.0014873 0)
(0.316092 0.00161343 0)
(0.299321 0.0017049 0)
(0.281746 0.00178267 0)
(0.263571 0.0018274 0)
(0.24502 0.00184953 0)
(0.22632 0.00185873 0)
(0.207647 0.00184137 0)
(0.189248 0.0018071 0)
(0.171304 0.00174331 0)
(0.154073 0.00167532 0)
(0.137708 0.00156862 0)
(0.122369 0.00145985 0)
(0.108219 0.00134312 0)
(0.0953706 0.00121586 0)
(0.0837958 0.00108097 0)
(0.0735028 0.000962989 0)
(0.0643623 0.000854417 0)
(0.056263 0.000753245 0)
(0.0490608 0.000677482 0)
(0.0425828 0.000608037 0)
(0.0367838 0.000543676 0)
(0.0315815 0.000489139 0)
(0.0269289 0.000434014 0)
(0.022838 0.000378814 0)
(0.0193135 0.000316062 0)
(0.0163588 0.000259283 0)
(0.0140008 0.000200346 0)
(0.0122427 0.000146502 0)
(0.011056 9.26851e-05 0)
(0.010416 3.75606e-05 0)
(0.0101989 -1.18403e-05 0)
(0.0103892 -4.82599e-05 0)
(0.0109879 -8.25305e-05 0)
(0.0118343 -0.000111534 0)
(0.0130405 -0.000133379 0)
(0.0146574 -0.00016497 0)
(0.0165836 -0.000182629 0)
(0.0185827 -0.00019457 0)
(0.0207557 -0.000214172 0)
(0.0231655 -0.000242152 0)
(0.0259154 -0.000270532 0)
(0.0289574 -0.00030547 0)
(0.0324352 -0.000347606 0)
(0.0364045 -0.000401845 0)
(0.0410314 -0.000465034 0)
(0.0463434 -0.000540243 0)
(0.0526089 -0.00063038 0)
(0.0598412 -0.0007212 0)
(0.0683808 -0.000823662 0)
(0.0784068 -0.000919122 0)
(0.0895586 -0.00101144 0)
(0.101796 -0.00110247 0)
(0.115187 -0.00119005 0)
(0.12941 -0.00125204 0)
(0.144374 -0.00132691 0)
(0.160141 -0.00137981 0)
(0.176348 -0.00143091 0)
(0.193095 -0.00147339 0)
(0.210104 -0.00149549 0)
(0.227123 -0.00151171 0)
(0.244201 -0.00151922 0)
(0.261062 -0.00151132 0)
(0.277534 -0.00149004 0)
(0.293621 -0.00147045 0)
(0.309099 -0.00142131 0)
(0.323921 -0.00138747 0)
(0.337974 -0.00131583 0)
(0.35108 -0.00123404 0)
(0.363149 -0.00112752 0)
(0.373942 -0.00101051 0)
(0.383323 -0.000872443 0)
(0.391084 -0.000703309 0)
(0.396975 -0.000524401 0)
(0.400843 -0.00032261 0)
(0.402619 -7.9326e-05 0)
(0.402565 0.000143939 0)
(0.400511 0.00035683 0)
(0.396178 0.000538531 0)
(0.389854 0.000721559 0)
(0.381639 0.000909331 0)
(0.371704 0.00106 0)
(0.360293 0.00120207 0)
(0.347555 0.00133227 0)
(0.333733 0.00141429 0)
(0.319071 0.00149616 0)
(0.303783 0.00153357 0)
(0.2881 0.00157091 0)
(0.272172 0.00159439 0)
(0.256194 0.00157625 0)
(0.24036 0.00156191 0)
(0.224791 0.00153543 0)
(0.209632 0.00147697 0)
(0.195008 0.00142504 0)
(0.181015 0.00134942 0)
(0.167734 0.00128081 0)
(0.15521 0.00120704 0)
(0.143485 0.00112056 0)
(0.13258 0.00104211 0)
(0.122486 0.000964086 0)
(0.113188 0.000883124 0)
(0.104652 0.000811021 0)
(0.0968327 0.000743251 0)
(0.0896795 0.000677741 0)
(0.0831386 0.000620512 0)
(0.0771545 0.000566483 0)
(0.071675 0.0005196 0)
(0.0666517 0.00047709 0)
(0.0620445 0.000436806 0)
(0.0578207 0.000400693 0)
(0.0539558 0.000366436 0)
(0.0504346 0.000332242 0)
(0.04725 0.000299309 0)
(0.0444027 0.000265207 0)
(0.0418998 0.000230757 0)
(0.0397539 0.000194677 0)
(0.0379826 0.000156372 0)
(0.0366059 0.000116253 0)
(0.0356457 7.38385e-05 0)
(0.0351228 2.89857e-05 0)
(0.0350602 -1.79626e-05 0)
(0.0354801 -6.72376e-05 0)
(0.0364125 -0.000118748 0)
(0.0378758 -0.000172174 0)
(0.0398908 -0.000227939 0)
(0.0424754 -0.000285287 0)
(0.0461191 -0.000344205 0)
(0.107789 0.00389658 0)
(0.0968658 0.00356479 0)
(0.0853565 0.00326819 0)
(0.0748875 0.00296807 0)
(0.0654598 0.00264587 0)
(0.0570476 0.00235679 0)
(0.0496171 0.00206108 0)
(0.043123 0.00179627 0)
(0.0375122 0.0015454 0)
(0.0327284 0.00130374 0)
(0.0287103 0.00108778 0)
(0.0253953 0.000888918 0)
(0.0227223 0.000705111 0)
(0.0206325 0.000540525 0)
(0.0190723 0.000389972 0)
(0.0179927 0.00025354 0)
(0.0173544 0.00012778 0)
(0.0171239 1.12786e-05 0)
(0.017273 -9.94657e-05 0)
(0.0177907 -0.000207652 0)
(0.0186688 -0.000315342 0)
(0.0199128 -0.000425489 0)
(0.0215339 -0.000540151 0)
(0.0235492 -0.000661551 0)
(0.0259843 -0.000789987 0)
(0.0288676 -0.000928418 0)
(0.0322291 -0.00107396 0)
(0.0360927 -0.0012267 0)
(0.040488 -0.00139225 0)
(0.0454419 -0.0015599 0)
(0.0509738 -0.00173139 0)
(0.0571076 -0.00192024 0)
(0.0638616 -0.00210193 0)
(0.0712528 -0.00230548 0)
(0.0792931 -0.00249749 0)
(0.0880007 -0.00268736 0)
(0.0973995 -0.00291272 0)
(0.107495 -0.00311383 0)
(0.118296 -0.00330436 0)
(0.129818 -0.00354733 0)
(0.142053 -0.00373645 0)
(0.154987 -0.00397969 0)
(0.168613 -0.00416371 0)
(0.182877 -0.00430695 0)
(0.197701 -0.00451008 0)
(0.213034 -0.00462695 0)
(0.228758 -0.00468201 0)
(0.244715 -0.00477595 0)
(0.260782 -0.00476703 0)
(0.276782 -0.00468056 0)
(0.292488 -0.00460011 0)
(0.307705 -0.00440231 0)
(0.322204 -0.00417234 0)
(0.335751 -0.00385238 0)
(0.348136 -0.00346312 0)
(0.359133 -0.00302256 0)
(0.368524 -0.00252905 0)
(0.37614 -0.00196764 0)
(0.38182 -0.00138802 0)
(0.385435 -0.000769205 0)
(0.386898 -0.000156799 0)
(0.386343 0.000434132 0)
(0.383621 0.00110634 0)
(0.37887 0.00170969 0)
(0.372201 0.00227413 0)
(0.363701 0.00284009 0)
(0.353445 0.00332098 0)
(0.341577 0.00379232 0)
(0.328246 0.00419561 0)
(0.313515 0.00459249 0)
(0.297446 0.004998 0)
(0.280063 0.00536843 0)
(0.261439 0.00571889 0)
(0.241928 0.00601704 0)
(0.221677 0.00622864 0)
(0.20113 0.00633375 0)
(0.180663 0.00635127 0)
(0.160439 0.00624112 0)
(0.141135 0.00600795 0)
(0.122838 0.00571253 0)
(0.10571 0.00533914 0)
(0.0900397 0.00491292 0)
(0.0758048 0.00446893 0)
(0.0629487 0.00403545 0)
(0.0514882 0.00360569 0)
(0.0412665 0.00321117 0)
(0.0321925 0.0028492 0)
(0.0241137 0.00254278 0)
(0.0168978 0.00224309 0)
(0.0104736 0.00200726 0)
(0.00464777 0.00175376 0)
(-0.000978392 0.00151921 0)
(-0.00625373 0.00143977 0)
(-0.0108288 0.00132814 0)
(-0.0149279 0.00119682 0)
(-0.0185789 0.0010774 0)
(-0.0217964 0.000948484 0)
(-0.0246057 0.000807152 0)
(-0.0270576 0.000658067 0)
(-0.0290703 0.000533727 0)
(-0.0306501 0.000399617 0)
(-0.0317548 0.000261902 0)
(-0.0324044 0.000130841 0)
(-0.0326093 -2.67833e-06 0)
(-0.0323628 -0.000143674 0)
(-0.0316696 -0.000282218 0)
(-0.0305074 -0.000408877 0)
(-0.0288512 -0.000568854 0)
(-0.0267171 -0.000722136 0)
(-0.0240279 -0.000871474 0)
(-0.0207717 -0.00104902 0)
(-0.0169759 -0.00123091 0)
(-0.012559 -0.00139287 0)
(-0.00749259 -0.0015947 0)
(-0.00176409 -0.00179945 0)
(0.00466338 -0.00201827 0)
(0.0118329 -0.00222919 0)
(0.019744 -0.00247206 0)
(0.0284643 -0.00270123 0)
(0.0379828 -0.00295353 0)
(0.0483374 -0.00321737 0)
(0.0595723 -0.00346439 0)
(0.0716853 -0.0037285 0)
(0.0846555 -0.00398938 0)
(0.0984781 -0.00423964 0)
(0.113096 -0.00446081 0)
(0.128444 -0.00466677 0)
(0.144406 -0.00483676 0)
(0.160853 -0.00495702 0)
(0.177641 -0.00503591 0)
(0.19461 -0.00505908 0)
(0.211549 -0.00501918 0)
(0.228259 -0.00493205 0)
(0.244543 -0.00477186 0)
(0.260219 -0.00455138 0)
(0.275075 -0.00428243 0)
(0.288949 -0.00395019 0)
(0.301585 -0.00357678 0)
(0.312842 -0.00313484 0)
(0.322526 -0.0026093 0)
(0.330396 -0.00204911 0)
(0.336269 -0.00144044 0)
(0.340006 -0.000777844 0)
(0.341478 -0.000109532 0)
(0.340721 0.000573014 0)
(0.33744 0.00129153 0)
(0.331916 0.00196548 0)
(0.324215 0.00259999 0)
(0.314458 0.00318452 0)
(0.302866 0.00371117 0)
(0.289618 0.00415507 0)
(0.274973 0.00453351 0)
(0.25919 0.00484326 0)
(0.242537 0.0050667 0)
(0.225206 0.0052256 0)
(0.207501 0.00529058 0)
(0.189633 0.00531228 0)
(0.17187 0.00525439 0)
(0.1544 0.0051337 0)
(0.137394 0.00496674 0)
(0.12106 0.00475432 0)
(0.105504 0.0045006 0)
(0.0908308 0.00422321 0)
(0.077118 0.00392419 0)
(0.0644277 0.0036121 0)
(0.0527986 0.00329486 0)
(0.0422736 0.00296764 0)
(0.0328689 0.00263203 0)
(0.0245578 0.00230183 0)
(0.0173472 0.00200653 0)
(0.0111209 0.00169833 0)
(0.00585624 0.001439 0)
(0.00143142 0.00121398 0)
(-0.00225367 0.00101227 0)
(-0.00533988 0.000842471 0)
(-0.00788031 0.000673907 0)
(-0.00989585 0.000532258 0)
(-0.0114245 0.000391937 0)
(-0.0125077 0.00024728 0)
(-0.0131186 0.000128975 0)
(-0.0133421 -3.757e-06 0)
(-0.0131169 -0.000122101 0)
(-0.0124521 -0.000267112 0)
(-0.011317 -0.000409189 0)
(-0.00966906 -0.000551442 0)
(-0.00755697 -0.000705472 0)
(-0.00496033 -0.000838862 0)
(-0.00191963 -0.000953533 0)
(0.00155066 -0.00106813 0)
(0.00536318 -0.00116454 0)
(0.00950853 -0.00128401 0)
(0.0140461 -0.0014056 0)
(0.0190107 -0.0015417 0)
(0.0244818 -0.0017162 0)
(0.0305476 -0.00189001 0)
(0.037249 -0.00208505 0)
(0.0446286 -0.00230439 0)
(0.0527335 -0.0025069 0)
(0.0615421 -0.00273959 0)
(0.0711236 -0.00295862 0)
(0.0814548 -0.00319204 0)
(0.0925878 -0.00342842 0)
(0.104507 -0.00367195 0)
(0.117216 -0.00390368 0)
(0.130716 -0.00412138 0)
(0.144964 -0.00434773 0)
(0.159934 -0.00457128 0)
(0.175637 -0.00476674 0)
(0.191944 -0.00494775 0)
(0.208774 -0.00509039 0)
(0.226032 -0.00516332 0)
(0.243493 -0.00521063 0)
(0.260997 -0.00519927 0)
(0.27836 -0.00512809 0)
(0.295371 -0.00496163 0)
(0.311715 -0.00474179 0)
(0.327153 -0.00442295 0)
(0.341402 -0.00402672 0)
(0.354179 -0.00355029 0)
(0.365223 -0.00298641 0)
(0.374264 -0.00237055 0)
(0.381114 -0.001679 0)
(0.385571 -0.000943741 0)
(0.387462 -0.000198983 0)
(0.386878 0.0005709 0)
(0.38344 0.0013924 0)
(0.377457 0.00214577 0)
(0.369092 0.00283169 0)
(0.358511 0.00345726 0)
(0.345952 0.00400226 0)
(0.331701 0.0044667 0)
(0.316051 0.00484096 0)
(0.299283 0.00513114 0)
(0.281691 0.00533571 0)
(0.263497 0.00547778 0)
(0.244939 0.00555668 0)
(0.226222 0.0055775 0)
(0.207538 0.00552274 0)
(0.18913 0.00541966 0)
(0.171191 0.00524518 0)
(0.153918 0.00499955 0)
(0.13756 0.00473007 0)
(0.122226 0.00439473 0)
(0.108061 0.00401848 0)
(0.0952056 0.00363393 0)
(0.0836418 0.0032514 0)
(0.0733528 0.00289116 0)
(0.0642176 0.00255801 0)
(0.0561318 0.00227453 0)
(0.0489238 0.00202879 0)
(0.0424609 0.00181959 0)
(0.036663 0.00163521 0)
(0.0314505 0.00146339 0)
(0.026798 0.00129637 0)
(0.0227097 0.00112814 0)
(0.019191 0.000956315 0)
(0.0162466 0.000789024 0)
(0.0138838 0.000608137 0)
(0.0121147 0.000432257 0)
(0.0109277 0.000271582 0)
(0.010291 0.000124889 0)
(0.0100841 -2.12823e-05 0)
(0.010271 -0.000151301 0)
(0.0108761 -0.000252144 0)
(0.011724 -0.000333702 0)
(0.0129239 -0.000409286 0)
(0.0145622 -0.000486063 0)
(0.0164808 -0.000537429 0)
(0.018476 -0.000589049 0)
(0.0206598 -0.000651169 0)
(0.0230786 -0.000724817 0)
(0.0258215 -0.000816095 0)
(0.0288789 -0.000915458 0)
(0.0323483 -0.00104818 0)
(0.0363277 -0.00120809 0)
(0.0409471 -0.001397 0)
(0.0462632 -0.00161554 0)
(0.0525235 -0.00189122 0)
(0.0597524 -0.00216309 0)
(0.0682886 -0.00246627 0)
(0.0783109 -0.00275855 0)
(0.0894603 -0.00303796 0)
(0.101695 -0.00331041 0)
(0.115085 -0.00356796 0)
(0.129302 -0.00376271 0)
(0.144268 -0.00397342 0)
(0.160026 -0.0041409 0)
(0.17624 -0.00428694 0)
(0.192983 -0.00442161 0)
(0.210008 -0.00448395 0)
(0.227027 -0.00453472 0)
(0.24412 -0.00456252 0)
(0.260994 -0.00452429 0)
(0.277476 -0.00448578 0)
(0.29358 -0.00439451 0)
(0.309071 -0.00428686 0)
(0.323906 -0.00414342 0)
(0.337967 -0.00393892 0)
(0.351094 -0.00371241 0)
(0.363176 -0.00340615 0)
(0.373984 -0.00303998 0)
(0.383376 -0.00262094 0)
(0.39115 -0.00211113 0)
(0.397051 -0.00156433 0)
(0.400931 -0.000960005 0)
(0.402723 -0.000231873 0)
(0.402656 0.000423238 0)
(0.40058 0.00106807 0)
(0.396255 0.00161332 0)
(0.389931 0.00216467 0)
(0.381712 0.00272848 0)
(0.371769 0.00318064 0)
(0.360349 0.00360694 0)
(0.347603 0.00399764 0)
(0.333771 0.00424368 0)
(0.319101 0.00448932 0)
(0.303804 0.0046015 0)
(0.288113 0.00471347 0)
(0.272177 0.0047839 0)
(0.256193 0.00472938 0)
(0.240353 0.00468631 0)
(0.224778 0.00460683 0)
(0.209614 0.00443137 0)
(0.194986 0.00427551 0)
(0.18099 0.00404857 0)
(0.167706 0.00384267 0)
(0.15518 0.00362127 0)
(0.143454 0.00336173 0)
(0.132549 0.00312632 0)
(0.122456 0.00289219 0)
(0.113159 0.00264925 0)
(0.104625 0.00243292 0)
(0.096807 0.00222959 0)
(0.0896561 0.00203308 0)
(0.0831172 0.00186145 0)
(0.0771352 0.00169943 0)
(0.0716574 0.00155874 0)
(0.0666357 0.00143111 0)
(0.0620298 0.00131027 0)
(0.0578069 0.00120196 0)
(0.0539425 0.00109922 0)
(0.0504216 0.000996706 0)
(0.047237 0.000897938 0)
(0.0443894 0.000795653 0)
(0.0418858 0.000692326 0)
(0.0397393 0.000584106 0)
(0.0379672 0.000469202 0)
(0.0365895 0.000348852 0)
(0.0356285 0.000221608 0)
(0.0351046 8.69662e-05 0)
(0.0350409 -5.36692e-05 0)
(0.0354601 -0.000201635 0)
(0.0363917 -0.000356148 0)
(0.0378542 -0.000516435 0)
(0.0398683 -0.000683734 0)
(0.0424521 -0.000855783 0)
(0.0460951 -0.00103254 0)
(0.107709 0.00649474 0)
(0.0967846 0.00594151 0)
(0.0852742 0.00544696 0)
(0.0748053 0.00494657 0)
(0.0653803 0.00440942 0)
(0.0569703 0.00392746 0)
(0.049544 0.00343451 0)
(0.0430536 0.00299308 0)
(0.037447 0.00257488 0)
(0.0326684 0.00217211 0)
(0.028655 0.00181216 0)
(0.0253447 0.00148074 0)
(0.0226766 0.00117445 0)
(0.0205909 0.000900208 0)
(0.0190346 0.000649377 0)
(0.0179581 0.0004221 0)
(0.0173226 0.000212636 0)
(0.0170939 1.85167e-05 0)
(0.0172443 -0.00016591 0)
(0.0177623 -0.000346109 0)
(0.0186401 -0.000525449 0)
(0.0198831 -0.00070894 0)
(0.0215028 -0.000899941 0)
(0.0235162 -0.00110224 0)
(0.0259491 -0.00131627 0)
(0.02883 -0.00154702 0)
(0.0321892 -0.00178954 0)
(0.0360508 -0.00204415 0)
(0.0404439 -0.0023201 0)
(0.0453962 -0.00259955 0)
(0.0509267 -0.00288539 0)
(0.0570586 -0.00320014 0)
(0.0638116 -0.00350298 0)
(0.071201 -0.00384223 0)
(0.0792403 -0.00416229 0)
(0.087947 -0.00447874 0)
(0.0973443 -0.00485439 0)
(0.107439 -0.00518953 0)
(0.118241 -0.0055072 0)
(0.129761 -0.00591233 0)
(0.141998 -0.00622764 0)
(0.154934 -0.00663331 0)
(0.168564 -0.00694027 0)
(0.182833 -0.00717919 0)
(0.197663 -0.00751805 0)
(0.213005 -0.00771323 0)
(0.228738 -0.0078054 0)
(0.244709 -0.0079622 0)
(0.260791 -0.00794671 0)
(0.276804 -0.00780536 0)
(0.29253 -0.00766842 0)
(0.307763 -0.00734189 0)
(0.322283 -0.00695471 0)
(0.335844 -0.00642518 0)
(0.348244 -0.00577774 0)
(0.35926 -0.00503742 0)
(0.368662 -0.00422321 0)
(0.376291 -0.00328411 0)
(0.381982 -0.00231529 0)
(0.385607 -0.00127889 0)
(0.387069 -0.000266002 0)
(0.386492 0.000724157 0)
(0.38377 0.00184567 0)
(0.379026 0.00285012 0)
(0.372349 0.00379176 0)
(0.36384 0.00473506 0)
(0.353574 0.0055373 0)
(0.341695 0.00632195 0)
(0.328355 0.00699423 0)
(0.313622 0.00765509 0)
(0.297554 0.00832967 0)
(0.280174 0.00894658 0)
(0.261554 0.00953056 0)
(0.242049 0.0100277 0)
(0.221805 0.0103768 0)
(0.201275 0.0105567 0)
(0.180815 0.0105819 0)
(0.160608 0.0103983 0)
(0.141316 0.0100056 0)
(0.123043 0.00951604 0)
(0.105933 0.00889202 0)
(0.090291 0.00818274 0)
(0.0760885 0.00744568 0)
(0.0632572 0.00672146 0)
(0.0518214 0.00600969 0)
(0.0416192 0.00534482 0)
(0.0325694 0.00474104 0)
(0.0245107 0.00423306 0)
(0.017312 0.00373946 0)
(0.0108959 0.00333894 0)
(0.00507962 0.00292526 0)
(-0.000530679 0.00253576 0)
(-0.00578685 0.00240167 0)
(-0.0103614 0.00220984 0)
(-0.0144622 0.00198894 0)
(-0.0181114 0.00179351 0)
(-0.0213327 0.00157859 0)
(-0.0241394 0.00134343 0)
(-0.0265869 0.00110936 0)
(-0.0286108 0.000889636 0)
(-0.0301867 0.000665255 0)
(-0.0313016 0.000431801 0)
(-0.0319483 0.00021198 0)
(-0.0321569 -7.01757e-06 0)
(-0.0319053 -0.000229829 0)
(-0.0312187 -0.000467583 0)
(-0.0300632 -0.000689356 0)
(-0.0284117 -0.000936924 0)
(-0.0262793 -0.00120344 0)
(-0.0235974 -0.00145522 0)
(-0.0203538 -0.00174564 0)
(-0.0165584 -0.002046 0)
(-0.0121514 -0.00233991 0)
(-0.00709426 -0.00265349 0)
(-0.0013621 -0.00299708 0)
(0.00507823 -0.00335385 0)
(0.0122228 -0.00371589 0)
(0.0201275 -0.00411296 0)
(0.0288343 -0.00451486 0)
(0.0383429 -0.00492144 0)
(0.0487002 -0.00534538 0)
(0.0599244 -0.00578082 0)
(0.0720284 -0.00621967 0)
(0.0850102 -0.00664068 0)
(0.0988266 -0.00706408 0)
(0.113446 -0.00743767 0)
(0.128798 -0.00777501 0)
(0.144775 -0.00806331 0)
(0.161231 -0.00826202 0)
(0.178025 -0.00839059 0)
(0.195007 -0.00843812 0)
(0.211964 -0.00836262 0)
(0.228696 -0.00822022 0)
(0.244987 -0.00793813 0)
(0.260657 -0.00759314 0)
(0.27553 -0.00713704 0)
(0.289405 -0.00659063 0)
(0.302074 -0.00594473 0)
(0.313347 -0.00521115 0)
(0.323023 -0.00436303 0)
(0.330893 -0.00342109 0)
(0.336771 -0.00240079 0)
(0.3405 -0.00129033 0)
(0.341953 -0.000181169 0)
(0.341149 0.00096276 0)
(0.337841 0.00216494 0)
(0.332298 0.00328662 0)
(0.324551 0.00434117 0)
(0.314746 0.00531704 0)
(0.303102 0.00619448 0)
(0.289806 0.00693295 0)
(0.275117 0.00756997 0)
(0.259272 0.00807145 0)
(0.242564 0.00844908 0)
(0.225185 0.00872192 0)
(0.207427 0.0088316 0)
(0.189519 0.00886425 0)
(0.171703 0.008766 0)
(0.154184 0.0085638 0)
(0.137137 0.00828028 0)
(0.120767 0.00792688 0)
(0.10517 0.00749878 0)
(0.0904637 0.00703974 0)
(0.0767354 0.00655057 0)
(0.0640284 0.00603469 0)
(0.052374 0.00549532 0)
(0.0418413 0.00494711 0)
(0.0324302 0.00438465 0)
(0.0241241 0.003843 0)
(0.0168952 0.00331833 0)
(0.0107021 0.00284459 0)
(0.00544466 0.00239408 0)
(0.00103943 0.00203076 0)
(-0.00264277 0.00168612 0)
(-0.00572456 0.0013931 0)
(-0.00825681 0.00112553 0)
(-0.0102705 0.0008771 0)
(-0.0117945 0.000638751 0)
(-0.0128535 0.000423338 0)
(-0.0134643 0.000210615 0)
(-0.0136759 -6.61425e-07 0)
(-0.0134507 -0.000221705 0)
(-0.0127717 -0.000443847 0)
(-0.011631 -0.00068734 0)
(-0.00997862 -0.000937287 0)
(-0.00784473 -0.0011711 0)
(-0.00523329 -0.00138925 0)
(-0.00220071 -0.00159344 0)
(0.00126213 -0.00178436 0)
(0.00507629 -0.00195621 0)
(0.00922353 -0.00214602 0)
(0.0137699 -0.00233312 0)
(0.0187224 -0.00257566 0)
(0.0241872 -0.00285897 0)
(0.0302629 -0.00313781 0)
(0.0369529 -0.00348627 0)
(0.0443412 -0.0038381 0)
(0.0524441 -0.00418026 0)
(0.0612507 -0.0045745 0)
(0.0708317 -0.00493225 0)
(0.0811627 -0.0053219 0)
(0.0922902 -0.00572598 0)
(0.104225 -0.00610512 0)
(0.116928 -0.00649835 0)
(0.130413 -0.00688124 0)
(0.144664 -0.00725476 0)
(0.159648 -0.00761849 0)
(0.175346 -0.00795845 0)
(0.191673 -0.00822945 0)
(0.208506 -0.00847414 0)
(0.225754 -0.00862856 0)
(0.243246 -0.00868806 0)
(0.26077 -0.00867683 0)
(0.278166 -0.00853824 0)
(0.295188 -0.00828832 0)
(0.311561 -0.00790223 0)
(0.327025 -0.00737293 0)
(0.341296 -0.00671144 0)
(0.35409 -0.00591894 0)
(0.365143 -0.00499972 0)
(0.374214 -0.0039475 0)
(0.381073 -0.00281096 0)
(0.385542 -0.00158246 0)
(0.387455 -0.000320329 0)
(0.386841 0.000958043 0)
(0.383391 0.00232471 0)
(0.37742 0.00357061 0)
(0.36905 0.00472039 0)
(0.358449 0.00576603 0)
(0.345865 0.00667643 0)
(0.33159 0.00744838 0)
(0.315913 0.00807161 0)
(0.299124 0.00854469 0)
(0.281527 0.00890744 0)
(0.263316 0.00913158 0)
(0.244732 0.00925654 0)
(0.225998 0.00929742 0)
(0.207298 0.00920923 0)
(0.188874 0.00903227 0)
(0.170916 0.00873793 0)
(0.153644 0.00834893 0)
(0.137249 0.00786566 0)
(0.121912 0.00732335 0)
(0.107763 0.00670709 0)
(0.0948884 0.00606122 0)
(0.0833324 0.00541731 0)
(0.0730469 0.0048116 0)
(0.0639258 0.00426572 0)
(0.0558407 0.00377584 0)
(0.0486501 0.00338327 0)
(0.042198 0.00303284 0)
(0.0364061 0.00272008 0)
(0.0312014 0.0024429 0)
(0.0265504 0.00216563 0)
(0.02246 0.00188395 0)
(0.0189331 0.00158881 0)
(0.0159851 0.00130722 0)
(0.0136254 0.00101239 0)
(0.0118578 0.000729469 0)
(0.010672 0.000447869 0)
(0.0100246 0.000200467 0)
(0.00982466 -4.33675e-05 0)
(0.010026 -0.000245462 0)
(0.0106326 -0.000419505 0)
(0.0114912 -0.000555218 0)
(0.0127004 -0.000680415 0)
(0.0143472 -0.000815578 0)
(0.0162771 -0.000901376 0)
(0.0182877 -0.000979795 0)
(0.0204771 -0.00108356 0)
(0.0229161 -0.0012097 0)
(0.0256804 -0.00135918 0)
(0.0287435 -0.00152748 0)
(0.0322181 -0.00174357 0)
(0.0362051 -0.00201192 0)
(0.040825 -0.0023274 0)
(0.0461453 -0.00269733 0)
(0.0524086 -0.00315156 0)
(0.0596359 -0.0036034 0)
(0.0681718 -0.00411086 0)
(0.0781948 -0.00459383 0)
(0.0893411 -0.00505967 0)
(0.101569 -0.00551582 0)
(0.114955 -0.00594711 0)
(0.129169 -0.00626645 0)
(0.144119 -0.00662547 0)
(0.159879 -0.00689982 0)
(0.176083 -0.00714754 0)
(0.192831 -0.0073697 0)
(0.209864 -0.00747667 0)
(0.226891 -0.00756041 0)
(0.244 -0.00760529 0)
(0.260894 -0.00755075 0)
(0.277394 -0.00746722 0)
(0.293517 -0.00734379 0)
(0.309029 -0.00712786 0)
(0.323887 -0.00691172 0)
(0.337972 -0.0065629 0)
(0.351121 -0.00617973 0)
(0.363232 -0.00565696 0)
(0.374068 -0.00505202 0)
(0.38348 -0.00435484 0)
(0.39128 -0.00351584 0)
(0.397198 -0.00260652 0)
(0.401104 -0.00159206 0)
(0.402916 -0.00040937 0)
(0.402812 0.000689003 0)
(0.400709 0.0017622 0)
(0.396398 0.00268199 0)
(0.390073 0.0036085 0)
(0.381846 0.00454964 0)
(0.371887 0.00530366 0)
(0.360451 0.00601438 0)
(0.347688 0.0066657 0)
(0.333837 0.00707567 0)
(0.31915 0.00748501 0)
(0.303837 0.00767176 0)
(0.28813 0.00785824 0)
(0.27218 0.00797548 0)
(0.256183 0.00788436 0)
(0.24033 0.00781239 0)
(0.224744 0.00767971 0)
(0.209572 0.007387 0)
(0.194936 0.00712701 0)
(0.180934 0.00674849 0)
(0.167645 0.00640506 0)
(0.155116 0.00603581 0)
(0.14339 0.00560298 0)
(0.132485 0.00521039 0)
(0.122393 0.00481997 0)
(0.113099 0.00441493 0)
(0.104568 0.00405427 0)
(0.0967541 0.00371535 0)
(0.0896078 0.00338784 0)
(0.0830731 0.00310188 0)
(0.0770954 0.00283196 0)
(0.0716214 0.00259748 0)
(0.0666029 0.0023847 0)
(0.0619998 0.00218332 0)
(0.0577787 0.00200291 0)
(0.0539155 0.0018318 0)
(0.0503952 0.00166109 0)
(0.0472105 0.00149659 0)
(0.0443624 0.0013262 0)
(0.0418578 0.00115406 0)
(0.0397098 0.000973746 0)
(0.0379362 0.000782276 0)
(0.0365567 0.000581708 0)
(0.0355939 0.000369606 0)
(0.0350683 0.000145508 0)
(0.0350023 -8.936e-05 0)
(0.0354203 -0.000335768 0)
(0.03635 -0.000593277 0)
(0.0378109 -0.000860458 0)
(0.0398234 -0.0011393 0)
(0.0424057 -0.00142606 0)
(0.0460472 -0.00172067 0)
(0.107588 0.00909355 0)
(0.0966628 0.00831851 0)
(0.0851506 0.0076257 0)
(0.0746819 0.00692476 0)
(0.0652611 0.0061724 0)
(0.0568543 0.00549735 0)
(0.0494344 0.004807 0)
(0.0429495 0.00418881 0)
(0.0373492 0.00360321 0)
(0.0325785 0.00303928 0)
(0.0285721 0.00253533 0)
(0.0252688 0.00207139 0)
(0.0226079 0.00164269 0)
(0.0205285 0.00125889 0)
(0.0189781 0.000907917 0)
(0.0179063 0.000589932 0)
(0.0172747 0.000296915 0)
(0.017049 2.53628e-05 0)
(0.0172012 -0.000232655 0)
(0.0177198 -0.000484552 0)
(0.0185971 -0.000735403 0)
(0.0198386 -0.000992121 0)
(0.0214561 -0.00125929 0)
(0.0234666 -0.00154249 0)
(0.0258964 -0.00184201 0)
(0.0287737 -0.00216507 0)
(0.0321295 -0.0025046 0)
(0.035988 -0.00286107 0)
(0.0403778 -0.00324748 0)
(0.0453276 -0.00363879 0)
(0.050856 -0.00403905 0)
(0.0569852 -0.0044797 0)
(0.0637365 -0.00490369 0)
(0.0711233 -0.00537864 0)
(0.079161 -0.0058269 0)
(0.0878665 -0.00626985 0)
(0.0972615 -0.00679581 0)
(0.107355 -0.00726527 0)
(0.118157 -0.00770993 0)
(0.129677 -0.00827748 0)
(0.141916 -0.00871917 0)
(0.154854 -0.00928755 0)
(0.16849 -0.00971808 0)
(0.182766 -0.0100527 0)
(0.197607 -0.0105279 0)
(0.212961 -0.0108022 0)
(0.228709 -0.0109312 0)
(0.2447 -0.0111514 0)
(0.260803 -0.0111323 0)
(0.276838 -0.0109328 0)
(0.292591 -0.0107429 0)
(0.307849 -0.0102861 0)
(0.322399 -0.00974445 0)
(0.335984 -0.0090062 0)
(0.34841 -0.00809503 0)
(0.35945 -0.00706377 0)
(0.368871 -0.00592014 0)
(0.376523 -0.00460673 0)
(0.382224 -0.00325497 0)
(0.385859 -0.00180375 0)
(0.387321 -0.000370296 0)
(0.386706 0.0010369 0)
(0.384001 0.00258795 0)
(0.37926 0.00399176 0)
(0.37257 0.00531147 0)
(0.364047 0.00663281 0)
(0.353765 0.00775549 0)
(0.341871 0.0088545 0)
(0.328517 0.00979471 0)
(0.313779 0.0107177 0)
(0.297716 0.0116605 0)
(0.280338 0.0125232 0)
(0.261725 0.0133383 0)
(0.242229 0.0140322 0)
(0.221994 0.0145231 0)
(0.201479 0.0147702 0)
(0.181044 0.0148085 0)
(0.160852 0.0145508 0)
(0.141587 0.0140029 0)
(0.123342 0.0133137 0)
(0.106266 0.0124423 0)
(0.0906573 0.0114447 0)
(0.0764999 0.0104101 0)
(0.063707 0.00940345 0)
(0.0523145 0.008397 0)