/*--------------------------------*- C++ -*----------------------------------*\
| =========                 |                                                 |
| \\      /  F ield         | OpenFOAM: The Open Source CFD Toolbox           |
|  \\    /   O peration     | Version:  3.0.1                                 |
|   \\  /    A nd           | Web:      www.OpenFOAM.org                      |
|    \\/     M anipulation  |                                                 |
\*---------------------------------------------------------------------------*/
FoamFile
{
    version     2.0;
    format      ascii;
    class       volScalarField;
    location    "63.6";
    object      p_rgh;
}
// * * * * * * * * * * * * * * * * * * * * * * * * * * * * * * * * * * * * * //

dimensions      [1 -1 -2 0 0 0 0];

internalField   nonuniform List<scalar> 
21420
(
-331.568
-328.967
-325.03
-319.731
-313.03
-304.864
-295.176
-283.899
-270.973
-256.356
-239.986
-221.813
-201.805
-179.942
-156.218
-130.665
-103.344
-74.3542
-43.9215
-12.3493
20.6146
54.5036
88.9793
123.732
158.355
192.456
225.583
257.282
287.16
314.79
339.772
361.77
380.467
395.588
406.909
414.253
417.451
416.117
410.635
401.123
387.665
370.52
349.927
326.169
299.617
270.631
239.595
206.949
173.1
138.44
103.361
68.2162
33.3249
-1.03145
-30.5053
-62.4141
-92.9207
-121.879
-149.193
-174.787
-198.605
-220.627
-240.843
-259.268
-275.931
-290.86
-304.101
-315.695
-325.688
-334.113
-340.988
-346.338
-350.187
-352.51
-353.283
-352.483
-350.086
-346.057
-340.354
-332.939
-323.778
-312.835
-300.088
-285.518
-269.12
-250.908
-230.888
-209.077
-185.509
-160.226
-133.286
-104.774
-74.794
-43.4821
-10.9995
22.3756
56.4054
90.7989
125.225
159.324
192.712
224.994
255.768
284.638
311.218
335.147
356.087
373.741
387.85
398.196
404.624
406.917
405.179
399.331
389.385
375.489
357.82
336.616
312.172
284.837
255
223.083
189.527
154.779
119.285
83.4746
47.7538
12.4999
-21.9511
-55.3022
-87.2986
-117.727
-146.416
-173.239
-198.101
-220.941
-241.733
-260.478
-277.193
-291.92
-304.716
-315.64
-324.771
-332.188
-337.966
-342.196
-344.929
-346.206
-346.1
-344.657
-341.886
-337.8
-332.402
-325.688
-317.637
-308.224
-297.419
-285.185
-271.481
-256.268
-239.508
-221.171
-201.234
-179.684
-156.53
-131.791
-105.512
-77.7692
-48.6625
-18.3227
13.086
45.345
78.2051
111.383
144.56
177.375
209.44
240.339
269.642
296.908
321.701
343.602
362.217
377.202
388.264
395.177
397.722
395.963
389.813
379.387
364.852
346.459
324.516
299.387
271.484
241.254
209.172
175.727
141.407
106.684
72.0008
37.7706
4.33026
-28.0131
-59.0094
-88.458
-116.216
-142.181
-166.292
-188.53
-208.901
-227.429
-244.162
-259.158
-272.479
-284.196
-294.384
-303.115
-310.46
-316.479
-321.231
-324.758
-327.102
-328.255
-328.207
-326.992
-324.562
-320.889
-315.932
-309.656
-302.026
-292.999
-282.534
-270.59
-257.119
-242.081
-225.442
-207.172
-187.259
-165.711
-142.55
-117.817
-91.5803
-63.9283
-34.9782
-4.8847
26.1771
58.1158
90.3626
122.755
154.966
186.625
217.341
246.703
274.287
299.666
322.421
342.158
358.517
371.191
379.938
384.558
384.994
381.201
373.271
361.292
345.49
326.139
303.574
278.169
250.34
220.536
189.205
156.776
123.679
90.4096
60.7604
28.4328
-3.22197
-33.8624
-63.29
-91.3407
-117.88
-142.79
-166.05
-187.696
-207.755
-226.239
-243.161
-258.496
-272.252
-284.408
-294.971
-303.934
-311.278
-316.985
-321.1
-323.645
-324.456
-323.652
-321.373
-317.612
-312.329
-305.481
-296.967
-286.714
-274.672
-260.73
-244.86
-227.034
-207.238
-185.49
-161.826
-136.289
-108.975
-80.0076
-49.5331
-17.7465
15.1137
48.819
83.0661
117.516
151.835
185.623
218.497
250.036
279.825
307.493
332.641
354.897
373.948
389.501
401.306
409.177
412.979
412.589
408.087
399.526
386.962
370.609
350.692
327.514
301.396
272.722
241.873
209.258
175.318
140.456
105.061
69.5304
34.315
9.23098
-23.898
-55.6316
-85.6985
-114.027
-140.513
-331.62
-329.02
-325.085
-319.787
-313.089
-304.925
-295.24
-283.966
-271.043
-256.429
-240.062
-221.892
-201.886
-180.024
-156.302
-130.748
-103.426
-74.4317
-43.9935
-12.4176
20.5553
54.4549
88.943
123.71
158.349
192.468
225.613
257.331
287.228
314.877
339.875
361.889
380.6
395.733
407.062
414.413
417.624
416.274
410.788
401.27
387.803
370.645
350.037
326.262
299.692
270.688
239.634
206.969
173.104
138.427
103.335
68.1798
33.2819
-1.06923
-30.5964
-62.4966
-93.0024
-121.962
-149.276
-174.869
-198.686
-220.707
-240.921
-259.344
-276.004
-290.931
-304.169
-315.761
-325.752
-334.176
-341.05
-346.399
-350.249
-352.573
-353.345
-352.548
-350.153
-346.126
-340.425
-333.012
-323.853
-312.912
-300.166
-285.598
-269.201
-250.99
-230.971
-209.16
-185.593
-160.309
-133.369
-104.854
-74.8709
-43.5538
-11.064
22.3199
56.3605
90.7666
125.207
159.322
192.727
225.026
255.818
284.705
311.303
335.247
356.202
373.869
387.988
398.343
404.776
407.077
405.331
399.48
389.529
375.623
357.941
336.721
312.26
284.906
255.05
223.113
189.538
154.772
119.26
83.4344
47.6998
12.4341
-22.0268
-55.3858
-87.3884
-117.822
-146.514
-173.338
-198.2
-221.039
-241.83
-260.573
-277.285
-292.009
-304.801
-315.722
-324.849
-332.263
-338.038
-342.265
-344.995
-346.268
-346.163
-344.718
-341.947
-337.861
-332.464
-325.75
-317.7
-308.289
-297.485
-285.253
-271.552
-256.341
-239.583
-221.247
-201.312
-179.764
-156.609
-131.87
-105.59
-77.8448
-48.7341
-18.3892
13.026
45.2939
78.1643
111.355
144.545
177.376
209.458
240.377
269.699
296.984
321.796
343.715
362.347
377.346
388.419
395.339
397.894
396.123
389.972
379.536
364.989
346.58
324.619
299.471
271.547
241.296
209.193
175.728
141.389
106.648
71.9496
37.7073
4.25654
-28.0949
-59.0968
-88.5492
-116.309
-142.274
-166.384
-188.621
-208.989
-227.514
-244.244
-259.236
-272.553
-284.267
-294.451
-303.179
-310.521
-316.538
-321.287
-324.814
-327.157
-328.308
-328.262
-327.048
-324.619
-320.948
-315.992
-309.717
-302.089
-293.064
-282.602
-270.659
-257.191
-242.156
-225.519
-207.25
-187.338
-165.79
-142.628
-117.894
-91.6557
-64.0005
-35.046
-4.94692
26.1209
58.0725
90.3288
122.734
154.96
186.635
217.369
246.75
274.353
299.751
322.525
342.278
358.652
371.337
380.092
384.722
385.151
381.357
373.42
361.432
345.617
326.25
303.668
278.244
250.395
220.573
189.223
156.778
123.664
90.3564
60.7445
28.383
-3.28084
-33.9262
-63.3573
-91.4108
-117.953
-142.863
-166.124
-187.769
-207.827
-226.31
-243.231
-258.565
-272.319
-284.474
-295.036
-303.999
-311.343
-317.052
-321.171
-323.713
-324.522
-323.717
-321.44
-317.68
-312.399
-305.553
-297.041
-286.791
-274.751
-260.811
-244.943
-227.119
-207.324
-185.576
-161.911
-136.373
-109.057
-80.0851
-49.6055
-17.8126
15.0566
48.7726
83.0313
117.495
151.828
185.633
218.524
250.08
279.888
307.574
332.739
355.012
374.077
389.643
401.458
409.335
413.148
412.749
408.244
399.678
387.105
370.74
350.808
327.614
301.478
272.786
241.918
209.284
175.328
140.451
105.045
69.5084
34.2972
9.13326
-23.9894
-55.7217
-85.7899
-114.12
-140.607
-331.723
-329.125
-325.193
-319.899
-313.206
-305.048
-295.369
-284.1
-271.183
-256.576
-240.214
-222.05
-202.049
-180.19
-156.47
-130.915
-103.588
-74.5869
-44.1376
-12.5542
20.4367
54.3577
88.8706
123.666
158.337
192.491
225.673
257.429
287.364
315.049
340.082
362.128
380.866
396.022
407.37
414.734
417.97
416.586
411.096
401.565
388.079
370.896
350.257
326.449
299.843
270.802
239.71
207.01
173.11
138.403
103.283
68.1068
33.1956
-1.14536
-30.7777
-62.661
-93.1657
-122.126
-149.441
-175.034
-198.849
-220.866
-241.076
-259.494
-276.149
-291.071
-304.304
-315.891
-325.878
-334.299
-341.17
-346.52
-350.369
-352.692
-353.466
-352.673
-350.281
-346.258
-340.561
-333.153
-323.997
-313.059
-300.316
-285.75
-269.355
-251.146
-231.128
-209.318
-185.751
-160.466
-133.523
-105.004
-75.014
-43.6866
-11.1821
22.2199
56.2819
90.7132
125.182
159.328
192.766
225.1
255.928
284.85
311.482
335.459
356.444
374.136
388.277
398.648
405.088
407.41
405.646
399.791
389.827
375.902
358.195
336.944
312.449
285.058
255.163
223.188
189.574
154.771
119.226
83.3695
47.6077
12.3191
-22.1612
-55.536
-87.5504
-117.992
-146.69
-173.517
-198.38
-221.218
-242.005
-260.743
-277.45
-292.168
-304.953
-315.867
-324.987
-332.394
-338.164
-342.385
-345.108
-346.376
-346.271
-344.824
-342.051
-337.966
-332.57
-325.858
-317.81
-308.402
-297.603
-285.375
-271.678
-256.472
-239.718
-221.386
-201.454
-179.908
-156.754
-132.014
-105.732
-77.9821
-48.864
-18.5092
12.9196
45.2048
78.0956
111.31
144.528
177.391
209.508
240.463
269.824
297.148
321.999
343.954
362.619
377.645
388.74
395.674
398.249
396.455
390.3
379.847
365.275
346.836
324.839
299.652
271.687
241.393
209.248
175.743
141.366
106.591
71.8626
37.5965
4.1252
-28.2418
-59.2548
-88.7146
-116.478
-142.444
-166.552
-188.785
-209.148
-227.666
-244.389
-259.374
-272.685
-284.392
-294.569
-303.291
-310.627
-316.639
-321.386
-324.91
-327.25
-328.399
-328.358
-327.144
-324.718
-321.049
-316.097
-309.826
-302.202
-293.181
-282.723
-270.785
-257.321
-242.291
-225.658
-207.392
-187.483
-165.935
-142.772
-118.037
-91.7939
-64.1322
-35.1692
-5.0589
26.0205
57.998
90.2732
122.704
154.959
186.668
217.437
246.854
274.496
299.932
322.743
342.53
358.932
371.641
380.412
385.06
385.475
381.678
373.729
361.721
345.878
326.479
303.862
278.4
250.513
220.652
189.266
156.788
123.64
90.2607
60.7106
28.2861
-3.39527
-34.0507
-63.4893
-91.5486
-118.095
-143.009
-166.27
-187.914
-207.969
-226.45
-243.369
-258.7
-272.452
-284.605
-295.166
-304.128
-311.473
-317.187
-321.311
-323.848
-324.654
-323.847
-321.573
-317.817
-312.539
-305.697
-297.19
-286.944
-274.908
-260.973
-245.108
-227.287
-207.494
-185.747
-162.081
-136.541
-109.219
-80.2397
-49.7498
-17.9442
14.9428
48.6801
82.9622
117.452
151.816
185.653
218.578
250.17
280.014
307.735
332.937
355.242
374.336
389.927
401.761
409.653
413.477
413.076
408.56
399.982
387.392
371.001
351.04
327.813
301.642
272.913
242.007
209.338
175.347
140.441
105.012
69.464
34.2643
8.93492
-24.172
-55.9017
-85.9726
-114.306
-140.796
-331.877
-329.283
-325.355
-320.068
-313.381
-305.231
-295.561
-284.302
-271.393
-256.796
-240.443
-222.286
-202.292
-180.439
-156.721
-131.165
-103.832
-74.8201
-44.3543
-12.7591
20.2586
54.2117
88.7618
123.6
158.32
192.526
225.763
257.576
287.568
315.308
340.393
362.486
381.266
396.457
407.832
415.214
418.48
417.061
411.561
402.007
388.494
371.272
350.588
326.729
300.069
270.972
239.826
207.071
173.12
138.366
103.206
67.9969
33.065
-1.26363
-31.0462
-62.907
-93.4104
-122.373
-149.689
-175.281
-199.093
-221.105
-241.309
-259.72
-276.367
-291.281
-304.507
-316.087
-326.067
-334.483
-341.351
-346.701
-350.55
-352.87
-353.65
-352.861
-350.473
-346.456
-340.766
-333.363
-324.213
-313.28
-300.541
-285.978
-269.586
-251.379
-231.363
-209.555
-185.988
-160.701
-133.755
-105.229
-75.2279
-43.8851
-11.3578
22.071
56.1653
90.6344
125.147
159.339
192.828
225.214
256.096
285.071
311.754
335.779
356.808
374.539
388.712
399.108
405.561
407.906
406.126
400.261
390.278
376.324
358.578
337.282
312.735
285.288
255.336
223.302
189.63
154.774
119.178
83.2748
47.4722
12.1492
-22.3603
-55.7585
-87.7909
-118.246
-146.953
-173.784
-198.647
-221.483
-242.266
-260.997
-277.696
-292.404
-305.178
-316.082
-325.192
-332.588
-338.35
-342.561
-345.274
-346.538
-346.431
-344.981
-342.207
-338.121
-332.727
-326.017
-317.973
-308.57
-297.778
-285.556
-271.866
-256.666
-239.918
-221.593
-201.665
-180.122
-156.97
-132.229
-105.943
-78.1863
-49.0571
-18.6878
12.7622
45.073
77.9943
111.245
144.505
177.415
209.584
240.594
270.013
297.396
322.305
344.315
363.029
378.098
389.224
396.179
398.777
396.961
390.797
380.317
365.708
347.221
325.171
299.926
271.899
241.541
209.334
175.767
141.334
106.508
71.7346
37.4327
3.93055
-28.4599
-59.4895
-88.9602
-116.729
-142.695
-166.801
-189.028
-209.383
-227.893
-244.605
-259.58
-272.88
-284.576
-294.744
-303.456
-310.783
-316.789
-321.53
-325.051
-327.388
-328.534
-328.499
-327.287
-324.865
-321.2
-316.253
-309.988
-302.369
-293.354
-282.903
-270.972
-257.515
-242.492
-225.866
-207.604
-187.698
-166.151
-142.987
-118.248
-91.9995
-64.3281
-35.3524
-5.22485
25.8716
57.8879
90.1915
122.661
154.96
186.718
217.54
247.013
274.712
300.206
323.072
342.909
359.355
372.098
380.893
385.563
385.968
382.164
374.194
362.155
346.272
326.825
304.154
278.635
250.689
220.77
189.331
156.803
123.606
90.1335
60.6439
28.1385
-3.56734
-34.2377
-63.6875
-91.7554
-118.309
-143.227
-166.488
-188.13
-208.183
-226.661
-243.576
-258.903
-272.652
-284.801
-295.36
-304.321
-311.667
-317.387
-321.518
-324.047
-324.855
-324.043
-321.774
-318.022
-312.749
-305.914
-297.413
-287.174
-275.145
-261.215
-245.356
-227.539
-207.749
-186.003
-162.337
-136.792
-109.462
-80.4717
-49.9663
-18.1415
14.772
48.5408
82.8582
117.389
151.797
185.682
218.658
250.304
280.203
307.978
333.232
355.586
374.724
390.353
402.217
410.129
413.961
413.574
409.037
400.439
387.822
371.394
351.388
328.112
301.887
273.103
242.141
209.417
175.376
140.426
104.963
69.3964
34.2224
8.62927
-24.4452
-56.1715
-86.2465
-114.585
-141.078
-332.083
-329.493
-325.572
-320.293
-313.615
-305.476
-295.818
-284.57
-271.674
-257.089
-240.748
-222.601
-202.617
-180.771
-157.056
-131.499
-104.157
-75.1321
-44.6444
-13.032
20.0211
54.0166
88.6164
123.512
158.295
192.572
225.884
257.773
287.839
315.654
340.808
362.964
381.8
397.036
408.447
415.854
419.139
417.709
412.187
402.599
389.047
371.774
351.029
327.102
300.37
271.2
239.979
207.152
173.133
138.316
103.101
67.8494
32.889
-1.4286
-31.3975
-63.2336
-93.7366
-122.702
-150.02
-175.61
-199.419
-221.424
-241.619
-260.021
-276.657
-291.56
-304.776
-316.347
-326.32
-334.728
-341.593
-346.941
-350.788
-353.109
-353.897
-353.112
-350.73
-346.721
-341.039
-333.644
-324.501
-313.575
-300.841
-286.282
-269.895
-251.691
-231.677
-209.87
-186.303
-161.014
-134.063
-105.528
-75.5134
-44.1506
-11.5915
21.8726
56.0099
90.5296
125.099
159.355
192.911
225.367
256.32
285.366
312.118
336.207
357.295
375.078
389.293
399.722
406.194
408.56
406.772
400.889
390.881
376.887
359.09
337.733
313.118
285.597
255.566
223.454
189.706
154.777
119.113
83.1488
47.2919
11.9228
-22.6255
-56.055
-88.1112
-118.583
-147.302
-174.139
-199.003
-221.836
-242.613
-261.334
-278.023
-292.719
-305.478
-316.368
-325.464
-332.847
-338.596
-342.794
-345.495
-346.755
-346.643
-345.189
-342.413
-338.328
-332.935
-326.229
-318.19
-308.794
-298.01
-285.797
-272.115
-256.924
-240.185
-221.868
-201.946
-180.408
-157.258
-132.515
-106.224
-78.458
-49.3143
-18.9256
12.5524
44.8973
77.8596
111.159
144.475
177.448
209.686
240.77
270.266
297.728
322.714
344.797
363.577
378.702
389.872
396.854
399.474
397.646
391.462
380.945
366.285
347.737
325.615
300.292
272.182
241.74
209.448
175.801
141.292
106.397
71.5639
37.2145
3.671
-28.7507
-59.8024
-89.2877
-117.063
-143.031
-167.133
-189.352
-209.696
-228.194
-244.893
-259.854
-273.14
-284.822
-294.976
-303.676
-310.992
-316.988
-321.723
-325.239
-327.571
-328.716
-328.685
-327.477
-325.06
-321.401
-316.46
-310.203
-302.591
-293.585
-283.143
-271.221
-257.774
-242.761
-226.142
-207.887
-187.985
-166.439
-143.273
-118.53
-92.2732
-64.5893
-35.5965
-5.44563
25.6715
57.7428
90.0825
122.604
154.962
186.785
217.678
247.226
275.002
300.572
323.511
343.416
359.92
372.709
381.536
386.224
386.634
382.817
374.815
362.735
346.798
327.286
304.543
278.948
250.924
220.929
189.416
156.824
123.564
90.0015
60.5166
27.9376
-3.79769
-34.4876
-63.9522
-92.0316
-118.594
-143.518
-166.78
-188.419
-208.468
-226.942
-243.852
-259.174
-272.918
-285.063
-295.619
-304.579
-311.926
-317.652
-321.789
-324.31
-325.128
-324.306
-322.041
-318.295
-313.029
-306.203
-297.711
-287.48
-275.46
-261.538
-245.687
-227.876
-208.09
-186.346
-162.677
-137.126
-109.787
-80.7814
-50.2553
-18.4044
14.544
48.3544
82.719
117.304
151.772
185.721
218.766
250.483
280.455
308.302
333.626
356.046
375.242
390.921
402.825
410.764
414.606
414.233
409.677
401.05
388.396
371.919
351.853
328.51
302.215
273.356
242.32
209.523
175.414
140.404
104.896
69.3041
34.1628
8.22407
-24.8077
-56.5307
-86.6118
-114.957
-141.455
-332.341
-329.756
-325.842
-320.573
-313.908
-305.781
-296.139
-284.906
-272.025
-257.455
-241.129
-222.996
-203.024
-181.186
-157.476
-131.918
-104.565
-75.5232
-45.0085
-13.373
19.7238
53.7723
88.4341
123.401
158.265
192.629
226.034
258.017
288.179
316.086
341.327
363.561
382.467
397.761
409.217
416.654
419.951
418.523
412.972
403.341
389.739
372.402
351.58
327.569
300.747
271.484
240.17
207.252
173.148
138.252
102.97
67.6636
32.6661
-1.6453
-31.8275
-63.64
-94.144
-123.114
-150.434
-176.023
-199.826
-221.823
-242.008
-260.397
-277.02
-291.91
-305.113
-316.673
-326.635
-335.036
-341.895
-347.241
-351.087
-353.41
-354.204
-353.424
-351.051
-347.052
-341.38
-333.996
-324.862
-313.943
-301.216
-286.663
-270.281
-252.081
-232.07
-210.265
-186.698
-161.406
-134.45
-105.903
-75.8711
-44.4834
-11.8838
21.624
55.8152
90.398
125.039
159.374
193.014
225.558
256.6
285.735
312.572
336.742
357.905
375.752
390.021
400.491
406.988
409.373
407.585
401.677
391.635
377.593
359.732
338.298
313.596
285.982
255.855
223.645
189.801
154.78
119.032
82.9907
47.0658
11.6392
-22.9575
-56.4263
-88.5123
-119.006
-147.739
-174.583
-199.448
-222.278
-243.047
-261.757
-278.432
-293.112
-305.854
-316.726
-325.805
-333.171
-338.903
-343.085
-345.773
-347.026
-346.907
-345.448
-342.671
-338.586
-333.196
-326.494
-318.462
-309.075
-298.3
-286.098
-272.428
-257.247
-240.52
-222.212
-202.298
-180.765
-157.617
-132.872
-106.576
-78.7979
-49.6363
-19.2228
12.2891
44.677
77.6907
111.051
144.437
177.488
209.812
240.99
270.583
298.143
323.225
345.4
364.263
379.459
390.682
397.699
400.338
398.51
392.294
381.732
367.009
348.382
326.171
300.749
272.535
241.988
209.591
175.842
141.239
106.259
71.3496
36.9409
3.34565
-29.1151
-60.1943
-89.6976
-117.482
-143.451
-167.549
-189.758
-210.088
-228.571
-245.254
-260.196
-273.465
-285.129
-295.267
-303.951
-311.252
-317.237
-321.963
-325.472
-327.799
-328.945
-328.918
-327.715
-325.304
-321.652
-316.72
-310.472
-302.87
-293.873
-283.442
-271.531
-258.097
-243.096
-226.487
-208.24
-188.343
-166.799
-143.631
-118.882
-92.6155
-64.9163
-35.902
-5.72195
25.421
57.5607
89.9452
122.531
154.964
186.868
217.85
247.491
275.363
301.029
324.061
344.05
360.627
373.474
382.341
387.048
387.469
383.634
375.593
363.461
347.456
327.864
305.031
279.339
251.218
221.126
189.522
156.849
123.515
89.8641
60.3287
27.6817
-4.08683
-34.8006
-64.2837
-92.3775
-118.951
-143.881
-167.144
-188.781
-208.825
-227.293
-244.197
-259.513
-273.251
-285.391
-295.944
-304.902
-312.249
-317.982
-322.122
-324.639
-325.47
-324.637
-322.376
-318.636
-313.379
-306.563
-298.083
-287.864
-275.855
-261.942
-246.1
-228.296
-208.516
-186.774
-163.104
-137.546
-110.193
-81.169
-50.617
-18.733
14.2585
48.1204
82.5442
117.197
151.739
185.769
218.9
250.707
280.769
308.707
334.119
356.62
375.89
391.632
403.586
411.559
415.416
415.051
410.481
401.815
389.114
372.574
352.434
329.008
302.624
273.673
242.543
209.654
175.46
140.375
104.81
69.185
34.0766
7.72731
-25.2579
-56.9789
-87.0683
-115.422
-141.927
-332.649
-330.072
-326.167
-320.91
-314.258
-306.148
-296.524
-285.308
-272.446
-257.895
-241.587
-223.469
-203.511
-181.685
-157.981
-132.421
-105.056
-75.9936
-45.4466
-13.7828
19.3663
53.4781
88.2143
123.267
158.227
192.696
226.213
258.311
288.586
316.604
341.949
364.279
383.268
398.632
410.142
417.615
420.927
419.496
413.914
404.233
390.57
373.156
352.242
328.129
301.198
271.824
240.399
207.372
173.164
138.175
102.81
67.4385
32.3948
-1.91865
-32.3322
-64.1252
-94.6325
-123.608
-150.932
-176.518
-200.315
-222.302
-242.474
-260.849
-277.456
-292.33
-305.518
-317.063
-327.013
-335.404
-342.257
-347.6
-351.444
-353.771
-354.572
-353.799
-351.436
-347.45
-341.79
-334.417
-325.295
-314.386
-301.666
-287.12
-270.744
-252.549
-232.541
-210.739
-187.171
-161.877
-134.914
-106.354
-76.3014
-44.884
-12.2351
21.3248
55.5805
90.2393
124.967
159.396
193.137
225.787
256.936
286.177
313.118
337.385
358.636
376.563
390.896
401.414
407.943
410.346
408.562
402.625
392.542
378.44
360.502
338.976
314.171
286.444
256.2
223.873
189.914
154.784
118.933
82.7999
46.7934
11.2979
-23.3572
-56.8729
-88.9948
-119.514
-148.264
-175.117
-199.983
-222.809
-243.569
-262.264
-278.923
-293.584
-306.305
-317.156
-326.213
-333.558
-339.272
-343.434
-346.108
-347.351
-347.224
-345.76
-342.98
-338.895
-333.508
-326.812
-318.788
-309.411
-298.648
-286.459
-272.802
-257.636
-240.921
-222.624
-202.72
-181.194
-158.049
-133.302
-106.999
-79.2065
-50.0236
-19.5802
11.9719
44.4115
77.4869
110.92
144.39
177.536
209.964
241.253
270.962
298.64
323.839
346.124
365.088
380.368
391.657
398.716
401.374
399.547
393.295
382.677
367.878
349.157
326.838
301.298
272.96
242.285
209.761
175.891
141.174
106.091
71.0912
36.6112
2.95382
-29.5538
-60.6659
-90.1905
-117.986
-143.956
-168.048
-190.246
-210.559
-229.023
-245.686
-260.608
-273.855
-285.499
-295.616
-304.281
-311.565
-317.536
-322.251
-325.753
-328.074
-329.22
-329.197
-328
-325.597
-321.953
-317.032
-310.795
-303.204
-294.219
-283.801
-271.905
-258.485
-243.499
-226.902
-208.664
-188.773
-167.231
-144.061
-119.306
-93.0268
-65.3095
-36.2693
-6.05384
25.1242
57.3361
89.7784
122.443
154.965
186.968
218.056
247.809
275.797
301.578
324.721
344.812
361.476
374.393
383.308
388.041
388.47
384.614
376.529
364.334
348.246
328.557
305.615
279.808
251.569
221.362
189.649
156.878
123.459
89.7224
60.078
27.3693
-4.43515
-35.1769
-64.6823
-92.7933
-119.38
-144.318
-167.581
-189.214
-209.253
-227.715
-244.612
-259.92
-273.651
-285.785
-296.333
-305.289
-312.636
-318.375
-322.517
-325.034
-325.882
-325.034
-322.778
-319.046
-313.799
-306.996
-298.529
-288.324
-276.328
-262.427
-246.596
-228.802
-209.027
-187.288
-163.616
-138.049
-110.682
-81.6348
-51.0518
-19.1278
13.915
47.8385
82.3336
117.067
151.699
185.826
219.059
250.974
281.146
309.192
334.711
357.31
376.668
392.486
404.499
412.513
416.39
416.031
411.447
402.735
389.977
373.362
353.132
329.606
303.115
274.052
242.809
209.811
175.514
140.34
104.704
69.0366
33.9549
7.14669
-25.794
-57.5156
-87.6161
-115.98
-142.494
-333.009
-330.439
-326.546
-321.302
-314.667
-306.575
-296.974
-285.777
-272.938
-258.408
-242.12
-224.022
-204.08
-182.267
-158.57
-133.009
-105.63
-76.544
-45.9588
-14.2621
18.9481
53.1337
87.9565
123.109
158.181
192.774
226.422
258.653
289.061
317.209
342.676
365.117
384.203
399.649
411.222
418.736
422.07
420.632
415.012
405.276
391.541
374.036
353.015
328.782
301.725
272.221
240.666
207.512
173.183
138.084
102.622
67.1725
32.0738
-2.25312
-32.908
-64.6885
-95.2021
-124.186
-151.512
-177.096
-200.886
-222.862
-243.019
-261.376
-277.965
-292.82
-305.99
-317.519
-327.454
-335.833
-342.679
-348.019
-351.862
-354.192
-355.001
-354.236
-351.885
-347.914
-342.269
-334.91
-325.8
-314.902
-302.191
-287.653
-271.285
-253.095
-233.092
-211.292
-187.724
-162.428
-135.456
-106.881
-76.8047
-45.3533
-12.6456
20.9742
55.3054
90.053
124.881
159.42
193.28
226.053
257.327
286.693
313.755
338.136
359.491
377.508
391.918
402.494
409.06
411.483
409.7
403.733
393.603
379.43
361.402
339.769
314.841
286.984
256.603
224.138
190.045
154.786
118.817
82.5756
46.4738
10.8978
-23.8251
-57.3954
-89.5592
-120.108
-148.878
-175.741
-200.608
-223.429
-244.178
-262.858
-279.496
-294.135
-306.832
-317.658
-326.69
-334.011
-339.701
-343.842
-346.499
-347.73
-347.594
-346.124
-343.341
-339.257
-333.873
-327.183
-319.168
-309.803
-299.055
-286.881
-273.24
-258.089
-241.389
-223.106
-203.213
-181.695
-158.554
-133.805
-107.494
-79.6843
-50.4768
-19.998
11.5999
44.1003
77.2478
110.765
144.333
177.59
210.139
241.558
271.404
299.22
324.556
346.97
366.051
381.43
392.796
399.905
402.586
400.758
394.465
383.782
368.894
350.063
327.617
301.939
273.455
242.63
209.959
175.947
141.097
105.894
70.7879
36.2243
2.49465
-30.0674
-61.218
-90.767
-118.575
-144.546
-168.631
-190.815
-211.109
-229.552
-246.191
-261.088
-274.31
-285.929
-296.023
-304.665
-311.93
-317.885
-322.586
-326.079
-328.395
-329.541
-329.523
-328.332
-325.938
-322.305
-317.396
-311.171
-303.594
-294.623
-284.22
-272.341
-258.939
-243.969
-227.387
-209.16
-189.276
-167.736
-144.564
-119.801
-93.5077
-65.7695
-36.6989
-6.44131
24.8042
57.0445
89.5812
122.339
154.965
187.083
218.295
248.18
276.302
302.219
325.491
345.701
362.468
375.467
384.439
389.201
389.639
385.759
377.623
365.353
349.169
329.368
306.298
280.354
251.979
221.636
189.795
156.911
123.397
89.5799
59.7597
26.9994
-4.84306
-35.6168
-65.1482
-93.2792
-119.88
-144.828
-168.092
-189.721
-209.753
-228.207
-245.096
-260.395
-274.117
-286.244
-296.787
-305.74
-313.088
-318.831
-322.976
-325.494
-326.357
-325.498
-323.247
-319.524
-314.29
-307.501
-299.05
-288.86
-276.88
-262.993
-247.175
-229.392
-209.624
-187.888
-164.214
-138.637
-111.252
-82.1793
-51.56
-19.5894
13.513
47.5081
82.0864
116.915
151.652
185.892
219.245
251.285
281.584
309.758
335.401
358.116
377.577
393.483
405.567
413.628
417.53
417.176
412.572
403.811
390.984
374.281
353.947
330.303
303.688
274.494
243.119
209.993
175.576
140.295
104.576
68.8563
33.7895
6.48919
-26.4139
-58.1404
-88.2551
-116.632
-143.155
-333.42
-330.859
-326.979
-321.75
-315.135
-307.064
-297.487
-286.313
-273.5
-258.995
-242.731
-224.655
-204.731
-182.933
-159.245
-133.682
-106.289
-77.1748
-46.545
-14.8119
18.4685
52.7383
87.66
122.926
158.127
192.862
226.659
259.043
289.603
317.901
343.507
366.075
385.274
400.813
412.457
420.019
423.378
421.93
416.27
406.47
392.651
375.043
353.899
329.529
302.327
272.674
240.969
207.669
173.202
137.977
102.405
66.8644
31.7014
-2.65252
-33.5523
-65.3292
-95.8526
-124.846
-152.176
-177.758
-201.539
-223.501
-243.641
-261.978
-278.546
-293.38
-306.529
-318.04
-327.958
-336.324
-343.162
-348.497
-352.339
-354.674
-355.489
-354.735
-352.399
-348.444
-342.815
-335.472
-326.378
-315.493
-302.791
-288.263
-271.904
-253.719
-233.721
-211.924
-188.357
-163.058
-136.077
-107.484
-77.381
-45.8922
-13.1157
20.5718
54.9891
89.8383
124.781
159.447
193.442
226.357
257.774
287.283
314.483
338.995
360.469
378.591
393.087
403.729
410.34
412.785
411.002
405.003
394.816
380.563
362.432
340.675
315.608
287.6
257.063
224.441
190.193
154.788
118.682
82.3171
46.1061
10.4387
-24.3621
-57.9945
-90.2063
-120.789
-149.581
-176.455
-201.324
-224.138
-244.874
-263.536
-280.152
-294.765
-307.435
-318.232
-327.235
-334.528
-340.192
-344.309
-346.946
-348.163
-348.016
-346.539
-343.753
-339.669
-334.289
-327.607
-319.603
-310.252
-299.519
-287.363
-273.74
-258.607
-241.925
-223.657
-203.778
-182.269
-159.131
-134.381
-108.06
-80.232
-50.9963
-20.477
11.1726
43.7428
76.9725
110.587
144.267
177.65
210.338
241.906
271.908
299.883
325.375
347.938
367.152
382.646
394.1
401.267
403.975
402.143
395.805
385.047
370.056
351.099
328.509
302.672
274.02
243.025
210.184
176.008
141.007
105.666
70.4376
35.7804
1.96727
-30.6566
-61.8512
-91.4279
-119.25
-145.223
-169.299
-191.467
-211.739
-230.156
-246.769
-261.637
-274.831
-286.422
-296.488
-305.105
-312.348
-318.283
-322.97
-326.452
-328.762
-329.908
-329.895
-328.711
-326.328
-322.708
-317.813
-311.602
-304.04
-295.085
-284.7
-272.84
-259.457
-244.507
-227.941
-209.728
-189.852
-168.314
-145.14
-120.368
-94.0587
-66.2968
-37.1912
-6.88557
24.4331
56.7126
89.3535
122.218
154.963
187.212
218.566
248.602
276.88
302.952
326.373
346.719
363.604
376.697
385.734
390.531
390.976
387.07
378.875
366.519
350.226
330.295
307.077
280.978
252.445
221.947
189.96
156.948
123.327
89.4428
59.3662
26.5712
-5.31091
-36.1207
-65.6817
-93.8353
-120.453
-145.411
-168.675
-190.3
-210.325
-228.77
-245.649
-260.938
-274.65
-286.768
-297.306
-306.256
-313.604
-319.351
-323.498
-326.018
-326.891
-326.027
-323.782
-320.07
-314.85
-308.078
-299.645
-289.474
-277.511
-263.641
-247.838
-230.066
-210.308
-188.575
-164.898
-139.311
-111.906
-82.8029
-52.1423
-20.1182
13.052
47.1287
81.8023
116.739
151.596
185.965
219.456
251.64
282.086
310.405
336.189
359.037
378.616
394.624
406.788
414.905
418.835
418.486
413.859
405.041
392.137
375.333
354.878
331.101
304.343
274.998
243.473
210.199
175.644
140.241
104.424
68.6414
33.5734
5.76077
-27.1159
-58.8528
-88.9856
-117.378
-143.912
-333.882
-331.331
-327.465
-322.254
-315.66
-307.614
-298.064
-286.916
-274.134
-259.655
-243.418
-225.367
-205.465
-183.683
-160.005
-134.441
-107.032
-77.8867
-47.2056
-15.4333
17.9267
52.2915
87.3239
122.718
158.064
192.959
226.925
259.481
290.214
318.678
344.442
367.154
386.479
402.123
413.849
421.465
424.852
423.391
417.686
407.816
393.902
376.176
354.894
330.37
303.004
273.183
241.31
207.845
173.222
137.854
102.157
66.5128
31.2757
-3.1199
-34.263
-66.0469
-96.5842
-125.59
-152.925
-178.503
-202.274
-224.222
-244.342
-262.657
-279.2
-294.01
-307.135
-318.625
-328.524
-336.876
-343.704
-349.035
-352.877
-355.216
-356.038
-355.296
-352.978
-349.041
-343.43
-336.106
-327.028
-316.156
-303.466
-288.95
-272.6
-254.423
-234.429
-212.636
-189.07
-163.767
-136.776
-108.165
-78.0309
-46.5017
-13.6459
20.1167
54.631
89.5947
124.668
159.476
193.624
226.698
258.277
287.947
315.303
339.962
361.57
379.81
394.404
405.121
411.782
414.252
412.468
406.433
396.184
381.84
363.592
341.696
316.472
288.294
257.58
224.78
190.358
154.787
118.528
82.0236
45.6896
9.91971
-24.969
-58.6711
-90.9364
-121.558
-150.374
-177.261
-202.132
-224.938
-245.659
-264.301
-280.891
-295.475
-308.114
-318.878
-327.849
-335.11
-340.744
-344.834
-347.449
-348.65
-348.49
-347.006
-344.217
-340.134
-334.758
-328.084
-320.092
-310.757
-300.042
-287.905
-274.303
-259.191
-242.529
-224.279
-204.414
-182.915
-159.782
-135.03
-108.698
-80.8503
-51.5825
-21.0181
10.689
43.3384
76.6604
110.384
144.19
177.715
210.56
242.296
272.474
300.628
326.297
349.027
368.394
384.016
395.571
402.804
405.541
403.703
397.316
386.473
371.366
352.266
329.512
303.496
274.655
243.467
210.435
176.075
140.902
105.407
70.0458
35.2726
1.37045
-31.3224
-62.5664
-92.1739
-120.011
-145.986
-170.052
-192.201
-212.449
-230.837
-247.419
-262.256
-275.417
-286.977
-297.012
-305.6
-312.817
-318.731
-323.4
-326.871
-329.174
-330.321
-330.312
-329.138
-326.767
-323.162
-318.282
-312.087
-304.541
-295.605
-285.24
-273.401
-260.041
-245.112
-228.566
-210.368
-190.501
-168.966
-145.788
-121.006
-94.6801
-66.8917
-37.7472
-7.3881