/*--------------------------------*- C++ -*----------------------------------*\
| =========                 |                                                 |
| \\      /  F ield         | OpenFOAM: The Open Source CFD Toolbox           |
|  \\    /   O peration     | Version:  3.0.1                                 |
|   \\  /    A nd           | Web:      www.OpenFOAM.org                      |
|    \\/     M anipulation  |                                                 |
\*---------------------------------------------------------------------------*/
FoamFile
{
    version     2.0;
    format      ascii;
    class       volVectorField;
    location    "5.4";
    object      U;
}
// * * * * * * * * * * * * * * * * * * * * * * * * * * * * * * * * * * * * * //

dimensions      [0 1 -1 0 0 0 0];

internalField   nonuniform List<vector> 
21420
(
(-0.117808 -0.000807664 0)
(-0.1114 -0.000906358 0)
(-0.101798 -0.000995436 0)
(-0.0912973 -0.00108122 0)
(-0.0798984 -0.00117509 0)
(-0.0676558 -0.00125055 0)
(-0.054632 -0.00133486 0)
(-0.0409111 -0.00139291 0)
(-0.0265976 -0.00143844 0)
(-0.0118142 -0.00149272 0)
(0.00333243 -0.00151455 0)
(0.0186777 -0.00151386 0)
(0.0340142 -0.00151884 0)
(0.049156 -0.00148067 0)
(0.0639062 -0.00144546 0)
(0.0780761 -0.00137035 0)
(0.091473 -0.00127876 0)
(0.103925 -0.00118526 0)
(0.115286 -0.00106613 0)
(0.12543 -0.000938003 0)
(0.134259 -0.000806555 0)
(0.141708 -0.000666573 0)
(0.147741 -0.000525187 0)
(0.152344 -0.000385609 0)
(0.155528 -0.000247648 0)
(0.157335 -0.000111003 0)
(0.157816 1.90348e-05 0)
(0.157092 0.000142392 0)
(0.155101 0.000256929 0)
(0.151973 0.000366385 0)
(0.147757 0.000472629 0)
(0.142518 0.000567468 0)
(0.136313 0.000661972 0)
(0.129201 0.000743238 0)
(0.121258 0.000824695 0)
(0.11254 0.000901307 0)
(0.103127 0.000960074 0)
(0.0931178 0.00101964 0)
(0.0825686 0.00106975 0)
(0.0715643 0.00110111 0)
(0.0602359 0.00113148 0)
(0.0487073 0.00114088 0)
(0.0370879 0.00114799 0)
(0.0254793 0.00114281 0)
(0.0140006 0.00111863 0)
(0.00273044 0.00109067 0)
(-0.00817956 0.00105188 0)
(-0.0185937 0.000999838 0)
(-0.0284619 0.000943611 0)
(-0.0377082 0.000880223 0)
(-0.0462664 0.000809358 0)
(-0.0540887 0.000735638 0)
(-0.0611326 0.000657087 0)
(-0.0673669 0.000577027 0)
(-0.0727712 0.000494688 0)
(-0.0773238 0.000410926 0)
(-0.0810267 0.000328548 0)
(-0.0838875 0.000246059 0)
(-0.0859141 0.000163391 0)
(-0.0871329 8.65138e-05 0)
(-0.0876012 1.16026e-05 0)
(-0.0873128 -5.5796e-05 0)
(-0.0863216 -0.000121811 0)
(-0.0845423 -0.000187318 0)
(-0.0819936 -0.000243931 0)
(-0.0793413 -0.000298723 0)
(-0.0762579 -0.000355268 0)
(-0.0723831 -0.000399317 0)
(-0.068154 -0.000447202 0)
(-0.0634482 -0.000485893 0)
(-0.058381 -0.000519028 0)
(-0.053006 -0.000553334 0)
(-0.0473753 -0.000579538 0)
(-0.0415042 -0.00060172 0)
(-0.0354183 -0.000619189 0)
(-0.0292098 -0.000629385 0)
(-0.0229096 -0.000635068 0)
(-0.0165708 -0.000634856 0)
(-0.0102169 -0.000630405 0)
(-0.0037048 -0.000621629 0)
(0.00286473 -0.000604251 0)
(0.00917135 -0.000583933 0)
(0.015102 -0.000561245 0)
(0.020718 -0.000534587 0)
(0.0260274 -0.000504289 0)
(0.0309885 -0.000470609 0)
(0.0355698 -0.000433543 0)
(0.0397418 -0.000393883 0)
(0.0434848 -0.000351046 0)
(0.0467732 -0.000306112 0)
(0.0495867 -0.000260707 0)
(0.0519136 -0.000213199 0)
(0.0537366 -0.000164929 0)
(0.0550643 -0.000118207 0)
(0.0559038 -7.22431e-05 0)
(0.0562624 -2.97975e-05 0)
(0.0561632 9.72073e-06 0)
(0.0555792 4.58827e-05 0)
(0.0546496 7.77686e-05 0)
(0.0535541 0.000108803 0)
(0.0522788 0.00013744 0)
(0.0507926 0.000162346 0)
(0.0491022 0.000184441 0)
(0.0472279 0.000202881 0)
(0.045195 0.000218475 0)
(0.0430261 0.00023111 0)
(0.0407468 0.000240655 0)
(0.0383907 0.000247805 0)
(0.0359469 0.000252734 0)
(0.0335114 0.000254527 0)
(0.0310914 0.000258237 0)
(0.0285517 0.000255208 0)
(0.0259697 0.000250919 0)
(0.0234416 0.000245197 0)
(0.0209781 0.000237989 0)
(0.0185936 0.000229424 0)
(0.0163175 0.00021942 0)
(0.0141014 0.00020792 0)
(0.0120031 0.000197795 0)
(0.0100722 0.000186024 0)
(0.00827131 0.000171801 0)
(0.0065989 0.000158208 0)
(0.00504179 0.000146772 0)
(0.00363792 0.000133955 0)
(0.00237993 0.00011928 0)
(0.00122666 0.000106116 0)
(0.000175956 9.50122e-05 0)
(-0.000737598 8.24804e-05 0)
(-0.00151735 7.09719e-05 0)
(-0.00218061 6.01844e-05 0)
(-0.00273584 5.01865e-05 0)
(-0.00319174 4.09103e-05 0)
(-0.00355475 3.2342e-05 0)
(-0.00383203 2.44041e-05 0)
(-0.00403251 1.71974e-05 0)
(-0.004164 1.08607e-05 0)
(-0.00423179 5.25704e-06 0)
(-0.00424259 3.12355e-07 0)
(-0.0041982 -3.90968e-06 0)
(-0.00411354 -7.44901e-06 0)
(-0.00401013 -1.07655e-05 0)
(-0.00388806 -1.36643e-05 0)
(-0.00374383 -1.61134e-05 0)
(-0.0035804 -1.81219e-05 0)
(-0.00339754 -1.97302e-05 0)
(-0.00320801 -2.0832e-05 0)
(-0.00301348 -2.20079e-05 0)
(-0.00279933 -2.23928e-05 0)
(-0.00257452 -2.26015e-05 0)
(-0.00235186 -2.26052e-05 0)
(-0.00212164 -2.23579e-05 0)
(-0.00189311 -2.19835e-05 0)
(-0.0016734 -2.14998e-05 0)
(-0.00145598 -2.09148e-05 0)
(-0.00124608 -2.02566e-05 0)
(-0.00104423 -1.94788e-05 0)
(-0.000852911 -1.84741e-05 0)
(-0.000670373 -1.74585e-05 0)
(-0.000496816 -1.63722e-05 0)
(-0.000332524 -1.54497e-05 0)
(-0.000179053 -1.44466e-05 0)
(-3.45518e-05 -1.33398e-05 0)
(9.9681e-05 -1.2245e-05 0)
(0.00022008 -1.11587e-05 0)
(0.000328689 -1.01046e-05 0)
(0.000426171 -9.07861e-06 0)
(0.000512995 -8.08285e-06 0)
(0.000589622 -7.12758e-06 0)
(0.000656595 -6.20483e-06 0)
(0.000714255 -5.32244e-06 0)
(0.000763129 -4.49133e-06 0)
(0.000803794 -3.71517e-06 0)
(0.000836707 -2.99303e-06 0)
(0.00086233 -2.31817e-06 0)
(0.000881198 -1.69316e-06 0)
(0.000893961 -1.11816e-06 0)
(0.000901185 -6.04429e-07 0)
(0.000903325 -1.44058e-07 0)
(0.000900985 2.75392e-07 0)
(0.000894641 6.4685e-07 0)
(0.000884579 9.72839e-07 0)
(0.000871146 1.25554e-06 0)
(0.000854939 1.49636e-06 0)
(0.000836923 1.71082e-06 0)
(0.000817621 1.89922e-06 0)
(0.000797063 2.06089e-06 0)
(0.000775357 2.19641e-06 0)
(0.000752655 2.30711e-06 0)
(0.000729127 2.39472e-06 0)
(0.000704941 2.46096e-06 0)
(0.000680265 2.50757e-06 0)
(0.000655256 2.53641e-06 0)
(0.000630056 2.54912e-06 0)
(0.000604799 2.54746e-06 0)
(0.0005796 2.533e-06 0)
(0.000554562 2.50726e-06 0)
(0.000529768 2.47168e-06 0)
(0.000505298 2.42735e-06 0)
(0.000481247 2.37601e-06 0)
(0.000457702 2.31899e-06 0)
(0.000434725 2.25732e-06 0)
(0.000412368 2.1919e-06 0)
(0.00039067 2.12346e-06 0)
(0.000369663 2.05264e-06 0)
(0.000349371 1.98002e-06 0)
(0.00032981 1.90613e-06 0)
(0.000310993 1.83144e-06 0)
(0.000292927 1.7564e-06 0)
(0.000275614 1.68141e-06 0)
(0.000259052 1.60683e-06 0)
(0.000243237 1.533e-06 0)
(0.000228159 1.4602e-06 0)
(0.000213807 1.38871e-06 0)
(0.000200167 1.31874e-06 0)
(0.000187223 1.25048e-06 0)
(0.000174957 1.1841e-06 0)
(0.00016335 1.11974e-06 0)
(0.00015238 1.05749e-06 0)
(0.000142026 9.97443e-07 0)
(0.000132266 9.39657e-07 0)
(0.000123077 8.84175e-07 0)
(0.000114434 8.31015e-07 0)
(0.000106316 7.80184e-07 0)
(9.86985e-05 7.31671e-07 0)
(9.15582e-05 6.85458e-07 0)
(8.48721e-05 6.41508e-07 0)
(7.86177e-05 5.99783e-07 0)
(7.27729e-05 5.6023e-07 0)
(6.7316e-05 5.22795e-07 0)
(6.22259e-05 4.87414e-07 0)
(5.74825e-05 4.54024e-07 0)
(5.30658e-05 4.22551e-07 0)
(4.8957e-05 3.92928e-07 0)
(4.51378e-05 3.65077e-07 0)
(4.15908e-05 3.38927e-07 0)
(3.8299e-05 3.144e-07 0)
(3.52467e-05 2.91423e-07 0)
(3.24184e-05 2.69919e-07 0)
(2.97998e-05 2.49818e-07 0)
(2.73771e-05 2.31046e-07 0)
(2.51371e-05 2.13533e-07 0)
(2.30677e-05 1.97209e-07 0)
(2.11571e-05 1.8201e-07 0)
(1.93944e-05 1.67869e-07 0)
(1.77691e-05 1.54726e-07 0)
(1.62715e-05 1.4252e-07 0)
(1.48925e-05 1.31194e-07 0)
(1.36235e-05 1.20693e-07 0)
(1.24564e-05 1.10965e-07 0)
(1.13837e-05 1.0196e-07 0)
(1.03983e-05 9.36311e-08 0)
(9.49362e-06 8.59325e-08 0)
(8.66359e-06 7.88224e-08 0)
(7.90244e-06 7.22599e-08 0)
(7.20486e-06 6.62076e-08 0)
(6.56586e-06 6.06292e-08 0)
(5.98086e-06 5.54914e-08 0)
(5.44557e-06 5.07622e-08 0)
(4.95602e-06 4.64122e-08 0)
(4.50854e-06 4.24131e-08 0)
(4.09971e-06 3.87394e-08 0)
(3.72639e-06 3.53662e-08 0)
(3.38566e-06 3.22712e-08 0)
(3.07483e-06 2.94329e-08 0)
(2.79141e-06 2.68316e-08 0)
(2.53311e-06 2.44488e-08 0)
(2.29782e-06 2.22675e-08 0)
(2.08357e-06 2.02717e-08 0)
(1.88859e-06 1.84466e-08 0)
(1.71121e-06 1.67785e-08 0)
(1.54992e-06 1.52547e-08 0)
(1.40332e-06 1.38635e-08 0)
(1.27014e-06 1.25939e-08 0)
(1.14919e-06 1.14359e-08 0)
(1.0394e-06 1.03803e-08 0)
(9.39779e-07 9.41833e-09 0)
(8.49421e-07 8.54227e-09 0)
(7.67498e-07 7.74467e-09 0)
(6.93251e-07 7.01899e-09 0)
(6.25988e-07 6.35888e-09 0)
(5.65073e-07 5.7588e-09 0)
(5.0993e-07 5.21347e-09 0)
(4.60028e-07 4.71814e-09 0)
(4.14886e-07 4.26841e-09 0)
(3.74064e-07 3.86027e-09 0)
(3.37162e-07 3.48999e-09 0)
(3.03813e-07 3.15421e-09 0)
(2.73687e-07 2.84984e-09 0)
(2.46479e-07 2.57402e-09 0)
(2.21916e-07 2.32416e-09 0)
(1.99748e-07 2.09792e-09 0)
(1.79746e-07 1.89312e-09 0)
(1.61705e-07 1.70783e-09 0)
(1.45438e-07 1.54022e-09 0)
(1.30773e-07 1.38866e-09 0)
(1.17557e-07 1.25163e-09 0)
(1.05651e-07 1.12782e-09 0)
(9.4926e-08 1.01592e-09 0)
(8.52689e-08 9.14896e-10 0)
(7.65752e-08 8.23658e-10 0)
(6.87509e-08 7.41333e-10 0)
(6.17106e-08 6.6705e-10 0)
(5.53775e-08 6.00045e-10 0)
(4.96818e-08 5.39613e-10 0)
(4.45608e-08 4.8513e-10 0)
(3.99577e-08 4.36009e-10 0)
(3.58213e-08 3.9176e-10 0)
(3.21051e-08 3.51903e-10 0)
(2.87673e-08 3.16016e-10 0)
(2.57701e-08 2.83717e-10 0)
(2.30794e-08 2.54652e-10 0)
(2.06644e-08 2.28498e-10 0)
(1.84975e-08 2.0497e-10 0)
(1.65538e-08 1.83807e-10 0)
(1.48108e-08 1.6478e-10 0)
(1.32482e-08 1.47677e-10 0)
(1.18478e-08 1.32316e-10 0)
(1.0593e-08 1.18522e-10 0)
(9.46903e-09 1.06142e-10 0)
(8.46238e-09 9.50339e-11 0)
(7.56103e-09 8.50703e-11 0)
(6.75415e-09 7.61344e-11 0)
(6.03199e-09 6.81209e-11 0)
(5.38582e-09 6.0935e-11 0)
(4.80781e-09 5.44936e-11 0)
(4.29088e-09 4.87218e-11 0)
(3.82868e-09 4.35519e-11 0)
(3.41551e-09 3.89228e-11 0)
(3.04624e-09 3.4779e-11 0)
(2.71626e-09 3.10697e-11 0)
(2.42148e-09 2.77497e-11 0)
(2.15819e-09 2.47784e-11 0)
(1.92308e-09 2.21201e-11 0)
(1.7132e-09 1.97427e-11 0)
(1.52586e-09 1.76177e-11 0)
(1.35869e-09 1.57187e-11 0)
(1.20952e-09 1.40223e-11 0)
(1.07645e-09 1.25067e-11 0)
(9.57757e-10 1.11527e-11 0)
(8.51913e-10 9.94309e-12 0)
(7.5755e-10 8.86255e-12 0)
(6.73441e-10 7.89764e-12 0)
(5.98489e-10 7.03629e-12 0)
(5.31711e-10 6.26766e-12 0)
(4.72226e-10 5.58203e-12 0)
(4.19247e-10 4.97064e-12 0)
(3.7207e-10 4.42556e-12 0)
(3.30064e-10 3.93967e-12 0)
(2.92669e-10 3.50653e-12 0)
(2.59385e-10 3.1204e-12 0)
(2.29764e-10 2.77618e-12 0)
(2.03408e-10 2.4693e-12 0)
(1.79961e-10 2.19574e-12 0)
(1.59104e-10 1.9519e-12 0)
(1.40548e-10 1.73455e-12 0)
(1.24041e-10 1.54078e-12 0)
(1.05679e-10 1.36798e-12 0)
(-0.117846 -0.00242289 0)
(-0.111439 -0.00271907 0)
(-0.101836 -0.00298636 0)
(-0.0913341 -0.00324375 0)
(-0.079934 -0.00352545 0)
(-0.067689 -0.003752 0)
(-0.0546626 -0.00400493 0)
(-0.0409376 -0.00417912 0)
(-0.0266194 -0.00431568 0)
(-0.0118318 -0.00447949 0)
(0.00332123 -0.00454382 0)
(0.0186743 -0.00454218 0)
(0.0340183 -0.00455721 0)
(0.0491674 -0.00444276 0)
(0.0639256 -0.00433719 0)
(0.0781026 -0.00411183 0)
(0.0915059 -0.00383701 0)
(0.103965 -0.00355646 0)
(0.115331 -0.00319899 0)
(0.125478 -0.00281444 0)
(0.134311 -0.00242018 0)
(0.141762 -0.00200003 0)
(0.147795 -0.00157595 0)
(0.152398 -0.00115675 0)
(0.155582 -0.00074248 0)
(0.15739 -0.000330925 0)
(0.15787 5.34926e-05 0)
(0.157138 0.000426918 0)
(0.155148 0.000770399 0)
(0.15202 0.00109909 0)
(0.147802 0.00141789 0)
(0.142562 0.00170241 0)
(0.136356 0.00198595 0)
(0.129243 0.00222975 0)
(0.121299 0.00247418 0)
(0.112579 0.00270411 0)
(0.103163 0.00288048 0)
(0.0931509 0.00305931 0)
(0.0825988 0.00320963 0)
(0.0715915 0.00330371 0)
(0.060259 0.00339501 0)
(0.0487263 0.0034233 0)
(0.0371024 0.00344473 0)
(0.025489 0.00342928 0)
(0.0140058 0.00335673 0)
(0.00273084 0.00327241 0)
(-0.0081839 0.00315616 0)
(-0.0186022 0.00300017 0)
(-0.0284744 0.00283133 0)
(-0.0377244 0.00264142 0)
(-0.0462861 0.00242875 0)
(-0.0541116 0.00220754 0)
(-0.0611585 0.0019718 0)
(-0.0673956 0.00173157 0)
(-0.0728023 0.00148453 0)
(-0.0773569 0.00123316 0)
(-0.0810615 0.000986057 0)
(-0.083924 0.000738538 0)
(-0.0859524 0.000490683 0)
(-0.0871721 0.00025986 0)
(-0.0876388 3.61486e-05 0)
(-0.0873508 -0.000166934 0)
(-0.0863602 -0.000365005 0)
(-0.0845808 -0.000561481 0)
(-0.0820318 -0.000731446 0)
(-0.07938 -0.000896193 0)
(-0.0762958 -0.00106593 0)
(-0.0724203 -0.00119792 0)
(-0.0681909 -0.00134169 0)
(-0.0634835 -0.00145809 0)
(-0.0584152 -0.00155713 0)
(-0.0530391 -0.00166021 0)
(-0.0474066 -0.00173886 0)
(-0.0415332 -0.00180563 0)
(-0.0354446 -0.00185808 0)
(-0.0292334 -0.00188869 0)
(-0.0229303 -0.00190575 0)
(-0.0165888 -0.0019051 0)
(-0.0102322 -0.0018917 0)
(-0.0037163 -0.00186582 0)
(0.00285676 -0.00181333 0)
(0.00916573 -0.00175224 0)
(0.0150996 -0.00168451 0)
(0.0207186 -0.00160437 0)
(0.0260307 -0.00151309 0)
(0.0309951 -0.00141218 0)
(0.0355792 -0.00130072 0)
(0.039754 -0.00118163 0)
(0.0434994 -0.00105326 0)
(0.0467902 -0.000918657 0)
(0.0496056 -0.000781902 0)
(0.0519328 -0.000640193 0)
(0.053759 -0.0004954 0)
(0.0550883 -0.000355024 0)
(0.0559269 -0.000217542 0)
(0.0562852 -9.00735e-05 0)
(0.0561851 2.87276e-05 0)
(0.0556005 0.000137158 0)
(0.0546708 0.000233024 0)
(0.0535749 0.000326331 0)
(0.0522989 0.000412357 0)
(0.0508117 0.000487143 0)
(0.0491203 0.000553476 0)
(0.0472448 0.00060883 0)
(0.0452107 0.000655636 0)
(0.0430405 0.000693556 0)
(0.0407601 0.000722203 0)
(0.0384028 0.000743661 0)
(0.0359576 0.000758439 0)
(0.0335215 0.000763865 0)
(0.0311002 0.000774968 0)
(0.0285585 0.00076584 0)
(0.0259755 0.000752941 0)
(0.0234463 0.000735786 0)
(0.0209818 0.000714161 0)
(0.0185962 0.000688476 0)
(0.016319 0.000658455 0)
(0.0141024 0.000623877 0)
(0.0120035 0.000593524 0)
(0.0100714 0.000558219 0)
(0.00826961 0.000515673 0)
(0.0065973 0.000474725 0)
(0.0050399 0.000440389 0)
(0.00363498 0.000401962 0)
(0.00237653 0.000358062 0)
(0.00122359 0.000318372 0)
(0.000172661 0.000285135 0)
(-0.000741288 0.000247487 0)
(-0.00152098 0.000212981 0)
(-0.00218421 0.000180604 0)
(-0.00273936 0.0001506 0)
(-0.00319519 0.000122766 0)
(-0.00355811 9.70597e-05 0)
(-0.00383527 7.3239e-05 0)
(-0.00403558 5.16089e-05 0)
(-0.00416686 3.25935e-05 0)
(-0.00423446 1.57918e-05 0)
(-0.00424506 9.54471e-07 0)
(-0.00420046 -1.17028e-05 0)
(-0.00411567 -2.23379e-05 0)
(-0.00401217 -3.2305e-05 0)
(-0.00388995 -4.101e-05 0)
(-0.00374557 -4.83621e-05 0)
(-0.00358197 -5.43907e-05 0)
(-0.00339894 -5.92171e-05 0)
(-0.00320931 -6.25273e-05 0)
(-0.00301462 -6.60547e-05 0)
(-0.00280027 -6.72017e-05 0)
(-0.00257535 -6.78239e-05 0)
(-0.00235257 -6.78314e-05 0)
(-0.00212224 -6.70838e-05 0)
(-0.00189363 -6.59681e-05 0)
(-0.00167384 -6.45153e-05 0)
(-0.00145635 -6.27589e-05 0)
(-0.00124637 -6.0784e-05 0)
(-0.00104441 -5.84535e-05 0)
(-0.000852999 -5.54436e-05 0)
(-0.000670403 -5.23885e-05 0)
(-0.000496823 -4.91291e-05 0)
(-0.000332507 -4.63546e-05 0)
(-0.00017896 -4.33534e-05 0)
(-3.44019e-05 -4.00307e-05 0)
(9.98651e-05 -3.67427e-05 0)
(0.000220291 -3.34841e-05 0)
(0.000328921 -3.03216e-05 0)
(0.000426422 -2.7243e-05 0)
(0.000513261 -2.42553e-05 0)
(0.000589901 -2.13891e-05 0)
(0.000656884 -1.86206e-05 0)
(0.000714548 -1.59731e-05 0)
(0.000763422 -1.34784e-05 0)
(0.000804083 -1.11498e-05 0)
(0.000836994 -8.98292e-06 0)
(0.000862612 -6.95822e-06 0)
(0.000881474 -5.08267e-06 0)
(0.000894227 -3.357e-06 0)
(0.000901438 -1.81586e-06 0)
(0.000903568 -4.35051e-07 0)
(0.000901218 8.24278e-07 0)
(0.000894862 1.93877e-06 0)
(0.000884788 2.91668e-06 0)
(0.000871342 3.76461e-06 0)
(0.000855125 4.48735e-06 0)
(0.000837101 5.13178e-06 0)
(0.00081779 5.69776e-06 0)
(0.000797222 6.18326e-06 0)
(0.000775507 6.59018e-06 0)
(0.000752796 6.92253e-06 0)
(0.000729259 7.18551e-06 0)
(0.000705065 7.38434e-06 0)
(0.00068038 7.52425e-06 0)
(0.000655362 7.61078e-06 0)
(0.000630155 7.64892e-06 0)
(0.000604891 7.6439e-06 0)
(0.000579685 7.60047e-06 0)
(0.00055464 7.52317e-06 0)
(0.000529839 7.41635e-06 0)
(0.000505364 7.28329e-06 0)
(0.000481308 7.12921e-06 0)
(0.000457757 6.95812e-06 0)
(0.000434775 6.7731e-06 0)
(0.000412414 6.57681e-06 0)
(0.000390712 6.37145e-06 0)
(0.000369701 6.15894e-06 0)
(0.000349405 5.94106e-06 0)
(0.000329841 5.71935e-06 0)
(0.000311021 5.49524e-06 0)
(0.000292952 5.27009e-06 0)
(0.000275636 5.04508e-06 0)
(0.000259072 4.82131e-06 0)
(0.000243254 4.59978e-06 0)
(0.000228174 4.38135e-06 0)
(0.000213821 4.16684e-06 0)
(0.000200179 3.95688e-06 0)
(0.000187233 3.75207e-06 0)
(0.000174966 3.5529e-06 0)
(0.000163357 3.35977e-06 0)
(0.000152386 3.17299e-06 0)
(0.000142032 2.99282e-06 0)
(0.000132271 2.81944e-06 0)
(0.00012308 2.65296e-06 0)
(0.000114437 2.49345e-06 0)
(0.000106319 2.34093e-06 0)
(9.87003e-05 2.19537e-06 0)
(9.15594e-05 2.05671e-06 0)
(8.48729e-05 1.92483e-06 0)
(7.86182e-05 1.79964e-06 0)
(7.2773e-05 1.68096e-06 0)
(6.73158e-05 1.56863e-06 0)
(6.22256e-05 1.46247e-06 0)
(5.74819e-05 1.36229e-06 0)
(5.30651e-05 1.26785e-06 0)
(4.89562e-05 1.17897e-06 0)
(4.51369e-05 1.0954e-06 0)
(4.15898e-05 1.01694e-06 0)
(3.8298e-05 9.43344e-07 0)
(3.52456e-05 8.74401e-07 0)
(3.24173e-05 8.09881e-07 0)
(2.97987e-05 7.49568e-07 0)
(2.73759e-05 6.93241e-07 0)
(2.5136e-05 6.40694e-07 0)
(2.30666e-05 5.91715e-07 0)
(2.1156e-05 5.4611e-07 0)
(1.93933e-05 5.03681e-07 0)
(1.7768e-05 4.64246e-07 0)
(1.62705e-05 4.27621e-07 0)
(1.48915e-05 3.93638e-07 0)
(1.36226e-05 3.62131e-07 0)
(1.24555e-05 3.32943e-07 0)
(1.13828e-05 3.05924e-07 0)
(1.03975e-05 2.80933e-07 0)
(9.49285e-06 2.57834e-07 0)
(8.66286e-06 2.365e-07 0)
(7.90176e-06 2.1681e-07 0)
(7.20421e-06 1.9865e-07 0)
(6.56525e-06 1.81913e-07 0)
(5.98029e-06 1.66497e-07 0)
(5.44503e-06 1.52307e-07 0)
(4.95552e-06 1.39255e-07 0)
(4.50806e-06 1.27257e-07 0)
(4.09927e-06 1.16234e-07 0)
(3.72598e-06 1.06113e-07 0)
(3.38528e-06 9.68266e-08 0)
(3.07447e-06 8.83102e-08 0)
(2.79108e-06 8.05053e-08 0)
(2.5328e-06 7.33559e-08 0)
(2.29753e-06 6.68112e-08 0)
(2.08331e-06 6.08228e-08 0)
(1.88834e-06 5.53469e-08 0)
(1.71098e-06 5.03418e-08 0)
(1.54971e-06 4.577e-08 0)
(1.40313e-06 4.15956e-08 0)
(1.26996e-06 3.77864e-08 0)
(1.14902e-06 3.4312e-08 0)
(1.03924e-06 3.11447e-08 0)
(9.39635e-07 2.82584e-08 0)
(8.49288e-07 2.56299e-08 0)
(7.67375e-07 2.32368e-08 0)
(6.93138e-07 2.10594e-08 0)
(6.25883e-07 1.90789e-08 0)
(5.64977e-07 1.72784e-08 0)
(5.09841e-07 1.56422e-08 0)
(4.59946e-07 1.4156e-08 0)
(4.1481e-07 1.28066e-08 0)
(3.73995e-07 1.15821e-08 0)
(3.37097e-07 1.04711e-08 0)
(3.03754e-07 9.46364e-09 0)
(2.73632e-07 8.5504e-09 0)
(2.46429e-07 7.72284e-09 0)
(2.2187e-07 6.97315e-09 0)
(1.99705e-07 6.29436e-09 0)
(1.79707e-07 5.6799e-09 0)
(1.61669e-07 5.12394e-09 0)
(1.45404e-07 4.62105e-09 0)
(1.30742e-07 4.16633e-09 0)
(1.17529e-07 3.75521e-09 0)
(1.05625e-07 3.38372e-09 0)
(9.49021e-08 3.04801e-09 0)
(8.52469e-08 2.74488e-09 0)
(7.6555e-08 2.47114e-09 0)
(6.87324e-08 2.22414e-09 0)
(6.16936e-08 2.00127e-09 0)
(5.53618e-08 1.80024e-09 0)
(4.96675e-08 1.61893e-09 0)
(4.45476e-08 1.45546e-09 0)
(3.99457e-08 1.30809e-09 0)
(3.58103e-08 1.17533e-09 0)
(3.2095e-08 1.05574e-09 0)
(2.87581e-08 9.48076e-10 0)
(2.57617e-08 8.51172e-10 0)
(2.30717e-08 7.6397e-10 0)
(2.06574e-08 6.85504e-10 0)
(1.84911e-08 6.14913e-10 0)
(1.6548e-08 5.5142e-10 0)
(1.48055e-08 4.94335e-10 0)
(1.32434e-08 4.43025e-10 0)
(1.18434e-08 3.9694e-10 0)
(1.0589e-08 3.55555e-10 0)
(9.4654e-09 3.18414e-10 0)
(8.45909e-09 2.8509e-10 0)
(7.55805e-09 2.55198e-10 0)
(6.75144e-09 2.2839e-10 0)
(6.02954e-09 2.0435e-10 0)
(5.38361e-09 1.82792e-10 0)
(4.8058e-09 1.63468e-10 0)
(4.28906e-09 1.46152e-10 0)
(3.82704e-09 1.30643e-10 0)
(3.41403e-09 1.16756e-10 0)
(3.0449e-09 1.04325e-10 0)
(2.71506e-09 9.31978e-11 0)
(2.4204e-09 8.32383e-11 0)
(2.15721e-09 7.43249e-11 0)
(1.92221e-09 6.63505e-11 0)
(1.71241e-09 5.9219e-11 0)
(1.52515e-09 5.28444e-11 0)
(1.35805e-09 4.71482e-11 0)
(1.20895e-09 4.20594e-11 0)
(1.07594e-09 3.75134e-11 0)
(9.57296e-10 3.34519e-11 0)
(8.51499e-10 2.98234e-11 0)
(7.57178e-10 2.65823e-11 0)
(6.73108e-10 2.3688e-11 0)
(5.98191e-10 2.11044e-11 0)
(5.31444e-10 1.87989e-11 0)
(4.71987e-10 1.67424e-11 0)
(4.19033e-10 1.49086e-11 0)
(3.71878e-10 1.32737e-11 0)
(3.29893e-10 1.18163e-11 0)
(2.92516e-10 1.05172e-11 0)
(2.59248e-10 9.35906e-12 0)
(2.29642e-10 8.32661e-12 0)
(2.03299e-10 7.40618e-12 0)
(1.79864e-10 6.58571e-12 0)
(1.59016e-10 5.85439e-12 0)
(1.4047e-10 5.2025e-12 0)
(1.23971e-10 4.62134e-12 0)
(1.05618e-10 4.1031e-12 0)
(-0.117919 -0.00403797 0)
(-0.111513 -0.00453185 0)
(-0.101908 -0.00497752 0)
(-0.0914036 -0.0054067 0)
(-0.0800008 -0.00587647 0)
(-0.0677503 -0.00625442 0)
(-0.0547183 -0.00667609 0)
(-0.0409846 -0.00696663 0)
(-0.0266566 -0.00719424 0)
(-0.01186 -0.00746874 0)
(0.00330603 -0.00757473 0)
(0.0186747 -0.00757255 0)
(0.0340345 -0.00759782 0)
(0.0491986 -0.00740709 0)
(0.0639733 -0.00723114 0)
(0.0781644 -0.00685538 0)
(0.0915805 -0.00639707 0)
(0.104052 -0.00592925 0)
(0.115428 -0.00533313 0)
(0.125582 -0.00469182 0)
(0.13442 -0.00403413 0)
(0.141874 -0.00333378 0)
(0.147907 -0.00262646 0)
(0.152508 -0.00192672 0)
(0.155689 -0.00123599 0)
(0.157489 -0.000557597 0)
(0.157984 9.52631e-05 0)
(0.157228 0.000711365 0)
(0.155236 0.00128362 0)
(0.152103 0.00183237 0)
(0.147882 0.00236386 0)
(0.142637 0.00283807 0)
(0.136426 0.00331066 0)
(0.129307 0.00371699 0)
(0.121358 0.0041245 0)
(0.112633 0.00450786 0)
(0.103211 0.00480193 0)
(0.0931909 0.00510005 0)
(0.0826314 0.00535089 0)
(0.0716167 0.00550719 0)
(0.0602753 0.00565983 0)
(0.0487337 0.00570703 0)
(0.0371007 0.00574286 0)
(0.0254779 0.00571719 0)
(0.0139864 0.00559619 0)
(0.00270317 0.00545501 0)
(-0.00821883 0.00526145 0)
(-0.0186442 0.00500098 0)
(-0.0285217 0.00471969 0)
(-0.0377768 0.00440279 0)
(-0.0463423 0.00404818 0)
(-0.0541708 0.00367941 0)
(-0.0612198 0.00328639 0)
(-0.0674588 0.00288592 0)
(-0.0728669 0.00247403 0)
(-0.0774215 0.00205511 0)
(-0.0811261 0.00164309 0)
(-0.0839877 0.00123098 0)
(-0.0860156 0.000818199 0)
(-0.0872332 0.000435078 0)
(-0.0876989 5.96896e-05 0)
(-0.0874038 -0.000277741 0)
(-0.0864112 -0.000608418 0)
(-0.0846288 -0.00093584 0)
(-0.0820769 -0.00121919 0)
(-0.0794232 -0.00149413 0)
(-0.0763351 -0.00177712 0)
(-0.0724561 -0.00199713 0)
(-0.0682248 -0.00223653 0)
(-0.0635129 -0.00243079 0)
(-0.0584414 -0.00259579 0)
(-0.0530627 -0.00276764 0)
(-0.0474266 -0.0028988 0)
(-0.0415489 -0.00301026 0)
(-0.0354553 -0.0030977 0)
(-0.0292397 -0.00314866 0)
(-0.0229323 -0.00317703 0)
(-0.0165871 -0.00317585 0)
(-0.010227 -0.00315336 0)
(-0.00370588 -0.00311089 0)
(0.00287168 -0.00302222 0)
(0.00918205 -0.00292124 0)
(0.0151201 -0.00280724 0)
(0.0207414 -0.00267419 0)
(0.0260559 -0.00252233 0)
(0.0310235 -0.00235361 0)
(0.03561 -0.00216787 0)
(0.0397869 -0.00196963 0)
(0.0435342 -0.0017554 0)
(0.046826 -0.00153091 0)
(0.0496424 -0.00130253 0)
(0.0519704 -0.00106581 0)
(0.0537961 -0.000825771 0)
(0.055124 -0.000593281 0)
(0.0559627 -0.000363079 0)
(0.056319 -0.000150096 0)
(0.0562146 4.75218e-05 0)
(0.0556271 0.000228384 0)
(0.0546959 0.00038847 0)
(0.0535985 0.000544225 0)
(0.0523202 0.000687707 0)
(0.0508305 0.000812393 0)
(0.0491364 0.000922965 0)
(0.0472584 0.00101522 0)
(0.0452218 0.00109322 0)
(0.0430494 0.0011564 0)
(0.0407668 0.00120411 0)
(0.0384076 0.00123985 0)
(0.0359603 0.00126441 0)
(0.0335238 0.00127356 0)
(0.0311005 0.00129195 0)
(0.0285556 0.00127667 0)
(0.0259716 0.00125511 0)
(0.0234412 0.00122652 0)
(0.0209756 0.00119047 0)
(0.0185889 0.00114768 0)
(0.0163105 0.00109768 0)
(0.0140938 0.00103981 0)
(0.0119948 0.000989174 0)
(0.0100611 0.000930303 0)
(0.00825858 0.000859985 0)
(0.00658734 0.000791207 0)
(0.0050303 0.000733742 0)
(0.0036241 0.000669749 0)
(0.00236548 0.000597244 0)
(0.00121396 0.000530433 0)
(0.000163293 0.000475221 0)
(-0.000750826 0.000412362 0)
(-0.00152983 0.000354937 0)
(-0.00219246 0.000300943 0)
(-0.00274698 0.000250928 0)
(-0.00320227 0.000204524 0)
(-0.00356466 0.000161701 0)
(-0.00384129 0.000121992 0)
(-0.00404095 8.59307e-05 0)
(-0.00417159 5.42507e-05 0)
(-0.00423866 2.62593e-05 0)
(-0.00424869 1.53641e-06 0)
(-0.00420354 -1.95324e-05 0)
(-0.00411839 -3.72791e-05 0)
(-0.00401464 -5.39057e-05 0)
(-0.00389207 -6.84172e-05 0)
(-0.00374734 -8.06706e-05 0)
(-0.00358341 -9.07174e-05 0)
(-0.00340001 -9.87558e-05 0)
(-0.00321021 -0.000104278 0)
(-0.00301524 -0.000110147 0)
(-0.0028005 -0.000112043 0)
(-0.00257543 -0.00011307 0)
(-0.00235247 -0.00011307 0)
(-0.002122 -0.000111808 0)
(-0.00189329 -0.000109975 0)
(-0.00167342 -0.000107545 0)
(-0.00145585 -0.000104612 0)
(-0.0012458 -0.000101313 0)
(-0.0010437 -9.74271e-05 0)
(-0.000852197 -9.24577e-05 0)
(-0.000669568 -8.73206e-05 0)
(-0.000496026 -8.19158e-05 0)
(-0.000331744 -7.72177e-05 0)
(-0.000178125 -7.22576e-05 0)
(-3.35281e-05 -6.67254e-05 0)
(0.00010073 -6.12351e-05 0)
(0.000221139 -5.5804e-05 0)
(0.000329746 -5.05334e-05 0)
(0.000427223 -4.54021e-05 0)
(0.000514035 -4.04219e-05 0)
(0.000590646 -3.56453e-05 0)
(0.0006576 -3.10311e-05 0)
(0.000715227 -2.66201e-05 0)
(0.000764059 -2.24594e-05 0)
(0.000804678 -1.85777e-05 0)
(0.000837548 -1.49662e-05 0)
(0.000863128 -1.15929e-05 0)
(0.00088195 -8.46681e-06 0)
(0.000894659 -5.59005e-06 0)
(0.000901825 -3.02182e-06 0)
(0.000903918 -7.21257e-07 0)
(0.000901532 1.3776e-06 0)
(0.000895139 3.23454e-06 0)
(0.000885029 4.86371e-06 0)
(0.00087155 6.2761e-06 0)
(0.000855306 7.48054e-06 0)
(0.000837261 8.55559e-06 0)
(0.000817929 9.49946e-06 0)
(0.000797341 1.03088e-05 0)
(0.000775605 1.09871e-05 0)
(0.000752875 1.15409e-05 0)
(0.00072932 1.19791e-05 0)
(0.00070511 1.23103e-05 0)
(0.00068041 1.25433e-05 0)
(0.000655379 1.26873e-05 0)
(0.00063016 1.27506e-05 0)
(0.000604884 1.2742e-05 0)
(0.000579669 1.26693e-05 0)
(0.000554616 1.25403e-05 0)
(0.000529808 1.2362e-05 0)
(0.000505326 1.214e-05 0)
(0.000481265 1.1883e-05 0)
(0.00045771 1.15978e-05 0)
(0.000434725 1.12893e-05 0)
(0.000412361 1.0962e-05 0)
(0.000390657 1.06197e-05 0)
(0.000369645 1.02654e-05 0)
(0.000349347 9.90222e-06 0)
(0.000329782 9.53264e-06 0)
(0.000310962 9.15907e-06 0)
(0.000292893 8.78375e-06 0)
(0.000275577 8.40868e-06 0)
(0.000259013 8.03567e-06 0)
(0.000243196 7.66641e-06 0)
(0.000228117 7.30233e-06 0)
(0.000213764 6.94476e-06 0)
(0.000200124 6.5948e-06 0)
(0.00018718 6.25342e-06 0)
(0.000174914 5.92144e-06 0)
(0.000163307 5.59953e-06 0)
(0.000152338 5.28821e-06 0)
(0.000141985 4.98792e-06 0)
(0.000132226 4.69892e-06 0)
(0.000123037 4.42145e-06 0)
(0.000114396 4.1556e-06 0)
(0.000106279 3.90139e-06 0)
(9.86628e-05 3.65878e-06 0)
(9.15237e-05 3.42767e-06 0)
(8.4839e-05 3.20788e-06 0)
(7.8586e-05 2.99922e-06 0)
(7.27425e-05 2.80142e-06 0)
(6.7287e-05 2.61421e-06 0)
(6.21983e-05 2.43728e-06 0)
(5.74562e-05 2.2703e-06 0)
(5.30409e-05 2.11292e-06 0)
(4.89334e-05 1.96478e-06 0)
(4.51155e-05 1.82551e-06 0)
(4.15697e-05 1.69474e-06 0)
(3.82791e-05 1.57209e-06 0)
(3.52279e-05 1.45719e-06 0)
(3.24008e-05 1.34967e-06 0)
(2.97832e-05 1.24915e-06 0)
(2.73615e-05 1.15528e-06 0)
(2.51226e-05 1.06771e-06 0)
(2.30541e-05 9.8608e-07 0)
(2.11444e-05 9.10077e-07 0)
(1.93825e-05 8.39368e-07 0)
(1.7758e-05 7.73648e-07 0)
(1.62612e-05 7.12612e-07 0)
(1.48829e-05 6.55979e-07 0)
(1.36145e-05 6.03471e-07 0)
(1.24481e-05 5.5483e-07 0)
(1.13759e-05 5.09803e-07 0)
(1.03911e-05 4.68156e-07 0)
(9.48698e-06 4.29661e-07 0)
(8.65744e-06 3.94109e-07 0)
(7.89676e-06 3.61296e-07 0)
(7.1996e-06 3.31034e-07 0)
(6.561e-06 3.03141e-07 0)
(5.97638e-06 2.77452e-07 0)
(5.44143e-06 2.53805e-07 0)
(4.95221e-06 2.32055e-07 0)
(4.50502e-06 2.12059e-07 0)
(4.09647e-06 1.9369e-07 0)
(3.72341e-06 1.76825e-07 0)
(3.38292e-06 1.6135e-07 0)
(3.07232e-06 1.47158e-07 0)
(2.7891e-06 1.34152e-07 0)
(2.53099e-06 1.22238e-07 0)
(2.29587e-06 1.11332e-07 0)
(2.08179e-06 1.01353e-07 0)
(1.88695e-06 9.22275e-08 0)
(1.70971e-06 8.38871e-08 0)
(1.54855e-06 7.62686e-08 0)
(1.40207e-06 6.93125e-08 0)
(1.26899e-06 6.2965e-08 0)
(1.14814e-06 5.71752e-08 0)
(1.03844e-06 5.18973e-08 0)
(9.38905e-07 4.70878e-08 0)
(8.48623e-07 4.27077e-08 0)
(7.6677e-07 3.87199e-08 0)
(6.92587e-07 3.50917e-08 0)
(6.25382e-07 3.17913e-08 0)
(5.64521e-07 2.87911e-08 0)
(5.09427e-07 2.60646e-08 0)
(4.5957e-07 2.35882e-08 0)
(4.14469e-07 2.13397e-08 0)
(3.73684e-07 1.92991e-08 0)
(3.36816e-07 1.74479e-08 0)
(3.03499e-07 1.57691e-08 0)
(2.73401e-07 1.42474e-08 0)
(2.46219e-07 1.28684e-08 0)
(2.2168e-07 1.16192e-08 0)
(1.99533e-07 1.04881e-08 0)
(1.79551e-07 9.46422e-09 0)
(1.61528e-07 8.53783e-09 0)
(1.45277e-07 7.69986e-09 0)
(1.30627e-07 6.94216e-09 0)
(1.17425e-07 6.25713e-09 0)
(1.0553e-07 5.63811e-09 0)
(9.48169e-08 5.07873e-09 0)
(8.517e-08 4.57363e-09 0)
(7.64856e-08 4.11751e-09 0)
(6.86696e-08 3.70594e-09 0)
(6.1637e-08 3.33458e-09 0)
(5.53108e-08 2.99961e-09 0)
(4.96214e-08 2.6975e-09 0)
(4.45061e-08 2.42512e-09 0)
(3.99083e-08 2.17956e-09 0)
(3.57766e-08 1.95834e-09 0)
(3.20647e-08 1.75909e-09 0)
(2.87308e-08 1.57969e-09 0)
(2.57371e-08 1.41822e-09 0)
(2.30496e-08 1.27293e-09 0)
(2.06375e-08 1.14218e-09 0)
(1.84732e-08 1.02456e-09 0)
(1.65319e-08 9.18768e-10 0)
(1.4791e-08 8.23651e-10 0)
(1.32304e-08 7.38158e-10 0)
(1.18318e-08 6.61369e-10 0)
(1.05786e-08 5.92414e-10 0)
(9.45601e-09 5.30529e-10 0)
(8.45067e-09 4.75004e-10 0)
(7.5505e-09 4.252e-10 0)
(6.74467e-09 3.80533e-10 0)
(6.02347e-09 3.40476e-10 0)
(5.37817e-09 3.04557e-10 0)
(4.80093e-09 2.7236e-10 0)
(4.2847e-09 2.43509e-10 0)
(3.82314e-09 2.17667e-10 0)
(3.41053e-09 1.9453e-10 0)
(3.04177e-09 1.73818e-10 0)
(2.71226e-09 1.55278e-10 0)
(2.41789e-09 1.38684e-10 0)
(2.15497e-09 1.23833e-10 0)
(1.9202e-09 1.10546e-10 0)
(1.71062e-09 9.86644e-11 0)
(1.52355e-09 8.80435e-11 0)
(1.35662e-09 7.8553e-11 0)
(1.20767e-09 7.00745e-11 0)
(1.07479e-09 6.25003e-11 0)
(9.56276e-10 5.57334e-11 0)
(8.50589e-10 4.9688e-11 0)
(7.56365e-10 4.4288e-11 0)
(6.72382e-10 3.94657e-11 0)
(5.97543e-10 3.51611e-11 0)
(5.30866e-10 3.132e-11 0)
(4.71472e-10 2.78937e-11 0)
(4.18574e-10 2.48385e-11 0)
(3.71469e-10 2.21146e-11 0)
(3.29528e-10 1.96865e-11 0)
(2.92191e-10 1.75221e-11 0)
(2.58958e-10 1.55926e-11 0)
(2.29384e-10 1.38725e-11 0)
(2.03069e-10 1.2339e-11 0)
(1.79659e-10 1.09721e-11 0)
(1.58834e-10 9.7537e-12 0)