/*--------------------------------*- C++ -*----------------------------------*\
| =========                 |                                                 |
| \\      /  F ield         | OpenFOAM: The Open Source CFD Toolbox           |
|  \\    /   O peration     | Version:  3.0.1                                 |
|   \\  /    A nd           | Web:      www.OpenFOAM.org                      |
|    \\/     M anipulation  |                                                 |
\*---------------------------------------------------------------------------*/
FoamFile
{
    version     2.0;
    format      ascii;
    class       surfaceScalarField;
    location    "17.8";
    object      alphaPhi;
}
// * * * * * * * * * * * * * * * * * * * * * * * * * * * * * * * * * * * * * //

dimensions      [0 3 -1 0 0 0 0];

internalField   nonuniform List<scalar> 
44922
(
-0.000174513
2.52326e-06
-0.000176505
1.99166e-06
-0.000178
1.4956e-06
-0.000179012
1.01172e-06
-0.000179564
5.51982e-07
-0.000179656
9.19134e-08
-0.000179238
-4.17989e-07
-0.000178338
-9.0007e-07
-0.000176974
-1.36406e-06
-0.00017512
-1.85395e-06
-0.000172822
-2.29761e-06
-0.000170002
-2.82028e-06
-0.00016673
-3.27135e-06
-0.000162885
-3.84575e-06
-0.000158526
-4.35848e-06
-0.0001537
-4.82579e-06
-0.000148219
-5.48146e-06
-0.000142225
-5.99452e-06
-0.000135543
-6.68166e-06
-0.00012833
-7.21328e-06
-0.000120405
-7.92459e-06
-0.000111924
-8.48142e-06
-0.000102688
-9.23577e-06
-9.28823e-05
-9.80557e-06
-8.23064e-05
-1.05759e-05
-7.11616e-05
-1.11448e-05
-5.92476e-05
-1.1914e-05
-4.68311e-05
-1.24165e-05
-3.36901e-05
-1.31411e-05
-2.01114e-05
-1.35786e-05
-5.87546e-06
-1.4236e-05
8.74962e-06
-1.46251e-05
2.38827e-05
-1.51331e-05
3.93334e-05
-1.54507e-05
5.48282e-05
-1.54949e-05
7.04426e-05
-1.56143e-05
8.59448e-05
-1.55022e-05
0.000101296
-1.53515e-05
0.000116275
-1.49786e-05
0.000130802
-1.45267e-05
0.00014467
-1.38689e-05
0.000157764
-1.30932e-05
0.000169911
-1.21475e-05
0.000180978
-1.10667e-05
0.000190822
-9.84369e-06
0.000199333
-8.51104e-06
0.000206373
-7.0405e-06
0.000211881
-5.50772e-06
0.000215756
-3.87528e-06
0.000217969
-2.21254e-06
0.000218473
-5.04382e-07
0.000217277
1.19548e-06
0.000214385
2.8922e-06
0.000209816
4.56924e-06
0.000203706
6.11046e-06
0.000196022
7.684e-06
0.000186985
9.03621e-06
0.0001766
1.0385e-05
0.000165089
1.15108e-05
0.000152525
1.25641e-05
0.000139089
1.34367e-05
0.000124876
1.42128e-05
0.000110103
1.47728e-05
9.48661e-05
1.52369e-05
7.93504e-05
1.55157e-05
6.36735e-05
1.56769e-05
4.80367e-05
1.56368e-05
3.24568e-05
1.55799e-05
1.71174e-05
1.53393e-05
2.0088e-06
1.51086e-05
-1.27267e-05
1.47355e-05
-2.69937e-05
1.42669e-05
-4.07352e-05
1.37416e-05
-5.38816e-05
1.31464e-05
-6.64031e-05
1.25214e-05
-7.82515e-05
1.18484e-05
-8.94218e-05
1.11703e-05
-9.98664e-05
1.04446e-05
-0.000109609
9.74245e-06
-0.000118608
8.99961e-06
-0.0001269
8.29182e-06
-0.000134478
7.57766e-06
-0.000141376
6.89819e-06
-0.000147569
6.19253e-06
-0.000153138
5.56928e-06
-0.000158056
4.91789e-06
-0.000162428
4.37245e-06
-0.00016618
3.75175e-06
-0.00016943
3.24955e-06
-0.0001721
2.67017e-06
-0.000174237
2.13737e-06
-0.000175906
1.66853e-06
-0.000176975
1.06895e-06
-0.000177627
6.52292e-07
-0.000177693
6.56924e-08
-0.000177313
-3.79463e-07
-0.000176338
-9.75201e-07
-0.000174979
-1.35902e-06
-0.000172999
-1.97974e-06
-0.000170631
-2.3682e-06
-0.000167682
-2.94896e-06
-0.000164299
-3.3831e-06
-0.000160344
-3.95482e-06
-0.000155912
-4.43244e-06
-0.000150927
-4.98432e-06
-0.000145419
-5.50849e-06
-0.000139326
-6.09298e-06
-0.000132691
-6.63495e-06
-0.000125533
-7.15807e-06
-0.000117707
-7.82571e-06
-0.00010946
-8.24691e-06
-0.000100459
-9.001e-06
-9.10221e-05
-9.43724e-06
-8.08445e-05
-1.01777e-05
-7.02267e-05
-1.06178e-05
-5.89053e-05
-1.13214e-05
-4.71711e-05
-1.17342e-05
-3.47678e-05
-1.24033e-05
-2.20127e-05
-1.27551e-05
-8.68113e-06
-1.33316e-05
4.92379e-06
-1.3605e-05
1.88899e-05
-1.39661e-05
3.31657e-05
-1.42758e-05
4.76578e-05
-1.44921e-05
6.20986e-05
-1.44408e-05
7.65748e-05
-1.44763e-05
9.09279e-05
-1.43531e-05
0.00010497
-1.40419e-05
0.000118566
-1.3596e-05
0.000131554
-1.29877e-05
0.00014385
-1.22964e-05
0.000155289
-1.14387e-05
0.000165758
-1.04694e-05
0.000175124
-9.36569e-06
0.000183258
-8.13439e-06
0.00019007
-6.81184e-06
0.000195463
-5.39303e-06
0.000199359
-3.89647e-06
0.00020172
-2.36109e-06
0.000202506
-7.85296e-07
0.000201731
7.7475e-07
0.000199355
2.37576e-06
0.000195404
3.95064e-06
0.000189995
5.4089e-06
0.000183164
6.83097e-06
0.000175034
8.1305e-06
0.000165692
9.34145e-06
0.000155254
1.04385e-05
0.000143883
1.13713e-05
0.000131694
1.2189e-05
0.000118847
1.28463e-05
0.000105485
1.33619e-05
9.17564e-05
1.37289e-05
7.78127e-05
1.39437e-05
6.37844e-05
1.40283e-05
4.9787e-05
1.39974e-05
3.59321e-05
1.38549e-05
2.23443e-05
1.35878e-05
9.07842e-06
1.32659e-05
-3.77733e-06
1.28557e-05
-1.61785e-05
1.24011e-05
-2.80773e-05
1.18988e-05
-3.94624e-05
1.13851e-05
-5.03058e-05
1.08434e-05
-6.05829e-05
1.02771e-05
-7.02553e-05
9.67234e-06
-7.93845e-05
9.12926e-06
-8.79542e-05
8.56966e-06
-9.5981e-05
8.02679e-06
-0.000103514
7.53341e-06
-0.000110469
6.95483e-06
-0.000117015
6.54614e-06
-0.000123077
6.06206e-06
-0.000128718
5.6406e-06
-0.000133972
5.25381e-06
-0.00013887
4.89846e-06
-0.000143279
4.4086e-06
-0.000147482
4.2026e-06
-0.000151129
3.64697e-06
-0.000154624
3.49515e-06
-0.000157779
3.1549e-06
-0.000160769
2.99015e-06
-0.000163215
2.44629e-06
-0.000165207
1.99178e-06
-0.000166836
1.62961e-06
-0.000167841
1.00499e-06
-0.000168465
6.23995e-07
-0.000168404
-6.09022e-08
-0.000167861
-5.43568e-07
-0.000166643
-1.21757e-06
-0.00016482
-1.8236e-06
-0.000162333
-2.48673e-06
-0.000159196
-3.13742e-06
-0.000155393
-3.80264e-06
-0.000150901
-4.49217e-06
-0.000145766
-5.13509e-06
-0.000139956
-5.81002e-06
-0.000133437
-6.51921e-06
-0.000126307
-7.12931e-06
-0.000118461
-7.84592e-06
-0.000109889
-8.57244e-06
-0.000100812
-9.07648e-06
-9.09724e-05
-9.8401e-06
-8.06327e-05
-1.03397e-05
-6.96232e-05
-1.10095e-05
-5.80735e-05
-1.15497e-05
-4.59007e-05
-1.21728e-05
-3.32891e-05
-1.26116e-05
-2.00922e-05
-1.31969e-05
-6.65928e-06
-1.3433e-05
7.17532e-06
-1.38346e-05
2.12719e-05
-1.40967e-05
3.55246e-05
-1.42527e-05
4.96586e-05
-1.4134e-05
6.37754e-05
-1.41169e-05
7.75728e-05
-1.37974e-05
9.09174e-05
-1.33446e-05
0.00010344
-1.25221e-05
0.000114994
-1.15547e-05
0.000125083
-1.00889e-05
0.00013313
-8.04644e-06
0.00013734
-4.2105e-06
0.000135972
1.36758e-06
0.000116587
1.93853e-05
2.36114e-05
9.29757e-05
-0.000174547
5.05082e-06
-0.000176538
3.98236e-06
-0.000178034
2.99181e-06
-0.000179047
2.02496e-06
-0.0001796
1.10439e-06
-0.000179693
1.84658e-07
-0.000179273
-8.3745e-07
-0.000178371
-1.80174e-06
-0.000177007
-2.72804e-06
-0.000175153
-3.70885e-06
-0.000172856
-4.59391e-06
-0.000170037
-5.63978e-06
-0.000166767
-6.54139e-06
-0.000162921
-7.69103e-06
-0.000158564
-8.71601e-06
-0.000153739
-9.65072e-06
-0.000148258
-1.09626e-05
-0.000142266
-1.19867e-05
-0.000135584
-1.33635e-05
-0.000128372
-1.44247e-05
-0.000120448
-1.58493e-05
-0.000111969
-1.69598e-05
-0.000102734
-1.84716e-05
-9.29294e-05
-1.96097e-05
-8.23507e-05
-2.11547e-05
-7.12036e-05
-2.22919e-05
-5.92885e-05
-2.38292e-05
-4.68694e-05
-2.48357e-05
-3.37256e-05
-2.62848e-05
-2.01432e-05
-2.71611e-05
-5.90179e-06
-2.84775e-05
8.72426e-06
-2.92512e-05
2.3861e-05
-3.02699e-05
3.93171e-05
-3.09068e-05
5.48175e-05
-3.09954e-05
7.04395e-05
-3.12363e-05
8.59503e-05
-3.10131e-05
0.00010131
-3.07109e-05
0.000116297
-2.99663e-05
0.000130833
-2.90622e-05
0.000144713
-2.77492e-05
0.000157813
-2.61931e-05
0.000169968
-2.43028e-05
0.000181045
-2.21441e-05
0.000190899
-1.96971e-05
0.000199419
-1.70308e-05
0.000206465
-1.40867e-05
0.000211979
-1.10223e-05
0.000215855
-7.75161e-06
0.000218077
-4.43378e-06
0.000218582
-1.0092e-06
0.000217376
2.40088e-06
0.000214484
5.78384e-06
0.000209915
9.13867e-06
0.000203798
1.2227e-05
0.000196112
1.537e-05
0.000187069
1.80795e-05
0.000176676
2.07778e-05
0.000165162
2.30249e-05
0.000152585
2.5141e-05
0.00013914
2.68815e-05
0.000124918
2.84348e-05
0.000110136
2.95548e-05
9.48885e-05
3.04847e-05
7.93663e-05
3.10378e-05
6.36833e-05
3.13599e-05
4.80381e-05
3.1282e-05
3.24507e-05
3.11673e-05
1.71075e-05
3.06825e-05
1.9947e-06
3.02215e-05
-1.27498e-05
2.948e-05
-2.70218e-05
2.8539e-05
-4.0768e-05
2.74877e-05
-5.39156e-05
2.62939e-05
-6.6444e-05
2.50499e-05
-7.82959e-05
2.37003e-05
-8.94701e-05
2.23445e-05
-9.99167e-05
2.08912e-05
-0.000109661
1.94863e-05
-0.000118662
1.80009e-05
-0.000126955
1.65849e-05
-0.00013453
1.51529e-05
-0.000141432
1.37999e-05
-0.000147624
1.23851e-05
-0.000153194
1.11391e-05
-0.000158109
9.83248e-06
-0.000162481
8.74464e-06
-0.000166231
7.50152e-06
-0.00016948
6.49851e-06
-0.000172149
5.33927e-06
-0.000174285
4.27297e-06
-0.000175954
3.33826e-06
-0.00017702
2.13446e-06
-0.000177668
1.30026e-06
-0.000177736
1.33958e-07
-0.000177357
-7.58906e-07
-0.00017638
-1.95181e-06
-0.00017502
-2.71915e-06
-0.000173041
-3.95867e-06
-0.000170675
-4.73381e-06
-0.000167723
-5.90169e-06
-0.000164342
-6.76365e-06
-0.000160387
-7.90951e-06
-0.000155955
-8.86538e-06
-0.000150966
-9.97323e-06
-0.000145454
-1.10203e-05
-0.000139359
-1.21877e-05
-0.000132727
-1.32674e-05
-0.000125573
-1.43117e-05
-0.000117745
-1.5654e-05
-0.000109499
-1.64926e-05
-0.0001005
-1.80003e-05
-9.10594e-05
-1.88777e-05
-8.08778e-05
-2.03593e-05
-7.02606e-05
-2.12351e-05
-5.89324e-05
-2.26497e-05
-4.71991e-05
-2.34675e-05
-3.479e-05
-2.48124e-05
-2.20372e-05
-2.5508e-05
-8.69716e-06
-2.66716e-05
4.91426e-06
-2.72164e-05
1.88849e-05
-2.79368e-05
3.31728e-05
-2.85638e-05
4.76683e-05
-2.89877e-05
6.21082e-05
-2.88806e-05
7.65963e-05
-2.89645e-05
9.0961e-05
-2.87178e-05
0.000105011
-2.80916e-05
0.000118614
-2.71996e-05
0.00013161
-2.59833e-05
0.000143917
-2.46036e-05
0.000155364
-2.28859e-05
0.000165843
-2.09481e-05
0.000175213
-1.87363e-05
0.000183355
-1.62765e-05
0.00019017
-1.36271e-05
0.000195569
-1.07921e-05
0.000199467
-7.79384e-06
0.000201827
-4.72143e-06
0.000202615
-1.57293e-06
0.000201829
1.56044e-06
0.000199452
4.75256e-06
0.0001955
7.90284e-06
0.000190085
1.08236e-05
0.00018325
1.36664e-05
0.000175111
1.62694e-05
0.000165763
1.8689e-05
0.000155314
2.08875e-05
0.000143933
2.27521e-05
0.000131736
2.43867e-05
0.00011888
2.57021e-05
0.000105508
2.67333e-05
9.17707e-05
2.74666e-05
7.78183e-05
2.78961e-05
6.37822e-05
2.80644e-05
4.9779e-05
2.80005e-05
3.59169e-05
2.77171e-05
2.23235e-05
2.71811e-05
9.05097e-06
2.65384e-05
-3.80815e-06
2.57149e-05
-1.62133e-05
2.48062e-05
-2.8116e-05
2.38015e-05
-3.95022e-05
2.27713e-05
-5.03484e-05
2.16896e-05
-6.06267e-05
2.05554e-05
-7.02976e-05
1.93433e-05
-7.94281e-05
1.82597e-05
-8.79967e-05
1.71383e-05
-9.60171e-05
1.60472e-05
-0.000103555
1.5071e-05
-0.00011051
1.39104e-05
-0.000117052
1.30882e-05
-0.000123112
1.21219e-05
-0.000128755
1.12829e-05
-0.000134007
1.05059e-05
-0.000138907
9.7989e-06
-0.000143313
8.81451e-06
-0.000147519
8.40847e-06
-0.000151163
7.2907e-06
-0.000154657
6.9897e-06
-0.000157817
6.31532e-06
-0.00016081
5.98282e-06
-0.000163256
4.89232e-06
-0.000165247
3.98271e-06
-0.000166881
3.26338e-06
-0.000167884
2.00851e-06
-0.000168515
1.2541e-06
-0.00016845
-1.25705e-07
-0.000167912
-1.08123e-06
-0.000166689
-2.44074e-06
-0.000164867
-3.64516e-06
-0.000162386
-4.968e-06
-0.000159246
-6.27757e-06
-0.000155437
-7.61143e-06
-0.000150946
-8.98369e-06
-0.000145803
-1.0278e-05
-0.000139996
-1.16167e-05
-0.000133475
-1.30398e-05
-0.000126348
-1.42563e-05
-0.000118503
-1.5691e-05
-0.000109928
-1.7148e-05
-0.000100851
-1.81531e-05
-9.10096e-05
-1.96817e-05
-8.06715e-05
-2.06777e-05
-6.96565e-05
-2.20246e-05
-5.81103e-05
-2.30959e-05
-4.59299e-05
-2.43532e-05
-3.33146e-05
-2.5227e-05
-2.0111e-05
-2.64005e-05
-6.67362e-06
-2.68704e-05
7.17318e-06
-2.76815e-05
2.12793e-05
-2.82028e-05
3.55385e-05
-2.85119e-05
4.9677e-05
-2.82725e-05
6.38109e-05
-2.82508e-05
7.76256e-05
-2.76121e-05
9.09848e-05
-2.67039e-05
0.000103535
-2.50724e-05
0.000115077
-2.30964e-05
0.000125226
-2.02385e-05
0.000133405
-1.6225e-05
0.000138862
-9.66784e-06
0.000140451
-2.21407e-07
0.0001293
3.05361e-05
4.20234e-05
0.000110888
-0.000174611
7.58229e-06
-0.000176606
5.97708e-06
-0.000178104
4.49013e-06
-0.000179119
3.0393e-06
-0.000179664
1.64932e-06
-0.000179747
2.68065e-07
-0.000179326
-1.25846e-06
-0.000178423
-2.70481e-06
-0.000177059
-4.09184e-06
-0.000175203
-5.56505e-06
-0.000172909
-6.88792e-06
-0.000170092
-8.45682e-06
-0.000166824
-9.80913e-06
-0.000162982
-1.15335e-05
-0.000158628
-1.30702e-05
-0.000153804
-1.44744e-05
-0.000148324
-1.64424e-05
-0.000142335
-1.79755e-05
-0.000135654
-2.00447e-05
-0.000128447
-2.1632e-05
-0.000120521
-2.37754e-05
-0.000112044
-2.54366e-05
-0.000102808
-2.77079e-05
-9.30048e-05
-2.94127e-05
-8.24257e-05
-3.17339e-05
-7.12774e-05
-3.34401e-05
-5.93615e-05
-3.57451e-05
-4.69391e-05
-3.72581e-05
-3.37915e-05
-3.94324e-05
-2.02033e-05
-4.07493e-05
-5.95254e-06
-4.27283e-05
8.68044e-06
-4.38842e-05
2.38265e-05
-4.5416e-05
3.92929e-05
-4.63733e-05
5.48043e-05
-4.65067e-05
7.04387e-05
-4.68708e-05
8.59623e-05
-4.65367e-05
0.000101337
-4.60852e-05
0.000116339
-4.49683e-05
0.00013089
-4.36136e-05
0.000144788
-4.16474e-05
0.0001579
-3.93052e-05
0.000170072
-3.64747e-05
0.000181164
-3.32363e-05
0.000191031
-2.95642e-05
0.000199564
-2.55631e-05
0.000206621
-2.11439e-05
0.000212153
-1.65549e-05
0.000216034
-1.16326e-05
0.000218268
-6.66778e-06
0.000218769
-1.50942e-06
0.000217549
3.62018e-06
0.000214663
8.67051e-06
0.000210092
1.37097e-05
0.000203963
1.83551e-05
0.000196274
2.30593e-05
0.000187216
2.71381e-05
0.000176808
3.11854e-05
0.000165284
3.45492e-05
0.000152685
3.77398e-05
0.000139224
4.03422e-05
0.000124985
4.26744e-05
0.000110186
4.43538e-05
9.49167e-05
4.57536e-05
7.93829e-05
4.65716e-05
6.36911e-05
4.70518e-05
4.80272e-05
4.69458e-05
3.24261e-05
4.67684e-05
1.70605e-05
4.60481e-05
1.95744e-06
4.53246e-05
-1.28051e-05
4.42425e-05
-2.70852e-05
4.28191e-05
-4.08377e-05
4.12402e-05
-5.39892e-05
3.94455e-05
-6.65252e-05
3.75859e-05
-7.83801e-05
3.55552e-05
-8.95592e-05
3.35236e-05
-0.000100008
3.134e-05
-0.00010975
2.92287e-05
-0.000118749
2.69997e-05
-0.000127043
2.48792e-05
-0.000134609
2.27189e-05
-0.000141519
2.07093e-05
-0.000147707
1.85738e-05
-0.000153276
1.67073e-05
-0.00015818
1.47365e-05
-0.000162556
1.31207e-05
-0.000166299
1.12446e-05
-0.000169549
9.74923e-06
-0.000172216
8.00569e-06
-0.000174346
6.40322e-06
-0.000176023
5.01516e-06
-0.000177084
3.19526e-06
-0.000177722
1.93788e-06
-0.000177791
2.02961e-07
-0.000177414
-1.1357e-06
-0.000176434
-2.93156e-06
-0.000175072
-4.08095e-06
-0.000173099
-5.93189e-06
-0.000170737
-7.09585e-06
-0.000167778
-8.86095e-06
-0.000164403
-1.01386e-05
-0.000160448
-1.18645e-05
-0.000156015
-1.32984e-05
-0.000151019
-1.4969e-05
-0.000145506
-1.6533e-05
-0.000139409
-1.82852e-05
-0.00013278
-1.98963e-05
-0.000125636
-2.1456e-05
-0.000117825
-2.34646e-05
-0.000109564
-2.47539e-05
-0.000100563
-2.7001e-05
-9.11243e-05
-2.83168e-05
-8.0935e-05
-3.05486e-05
-7.03214e-05
-3.18487e-05
-5.89824e-05
-3.39888e-05
-4.72554e-05
-3.51944e-05
-3.48336e-05
-3.72343e-05
-2.2089e-05
-3.82527e-05
-8.73319e-06
-4.00274e-05
4.88575e-06
-4.08354e-05
1.88681e-05
-4.19193e-05
3.31612e-05
-4.28569e-05
4.76622e-05
-4.34888e-05
6.21231e-05
-4.33416e-05
7.66332e-05
-4.34746e-05
9.10175e-05
-4.31022e-05
0.000105075
-4.21495e-05
0.000118691
-4.08152e-05
0.000131697
-3.89898e-05
0.00014402
-3.69261e-05
0.000155481
-3.4347e-05
0.000165978
-3.14451e-05
0.000175357
-2.81157e-05
0.000183514
-2.44333e-05
0.000190338
-2.04509e-05
0.000195748
-1.62018e-05
0.000199653
-1.16993e-05
0.000202014
-7.08245e-06
0.0002028
-2.35936e-06
0.000201995
2.36613e-06
0.000199608
7.13897e-06
0.000195661
1.18504e-05
0.000190237
1.62473e-05
0.000183394
2.05091e-05
0.000175241
2.44219e-05
0.000165873
2.80575e-05
0.000155414
3.13464e-05
0.000144017
3.41489e-05
0.000131804
3.65999e-05
0.000118925
3.85813e-05
0.000105545
4.01133e-05
9.179e-05
4.12211e-05
7.78228e-05
4.18633e-05
6.37733e-05
4.21139e-05
4.97577e-05
4.20161e-05
3.58834e-05
4.15913e-05
2.229e-05
4.07744e-05
8.99911e-06
3.98293e-05
-3.86544e-06
3.85794e-05
-1.62778e-05
3.72185e-05
-2.81845e-05
3.57082e-05
-3.95744e-05
3.41612e-05
-5.04225e-05
3.25378e-05
-6.07043e-05
3.08372e-05
-7.03721e-05
2.9011e-05
-7.95034e-05
2.7391e-05
-8.80659e-05
2.57008e-05
-9.60851e-05
2.40664e-05
-0.000103619
2.26047e-05
-0.000110574
2.08655e-05
-0.000117116
1.96307e-05
-0.000123161
1.81661e-05
-0.000128804
1.69263e-05
-0.00013405
1.57522e-05
-0.000138954
1.4703e-05
-0.000143355
1.32147e-05
-0.000147562
1.26158e-05
-0.000151203
1.09319e-05
-0.000154693
1.04791e-05
-0.000157862
9.48466e-06
-0.000160869
8.99012e-06
-0.000163305
7.32815e-06
-0.000165292
5.97011e-06
-0.000166939
4.9103e-06
-0.000167938
3.00722e-06
-0.000168584
1.89992e-06
-0.000168509
-2.00788e-07
-0.000167985
-1.60467e-06
-0.000166753
-3.67279e-06
-0.000164934
-5.4647e-06
-0.000162456
-7.44558e-06
-0.000159311
-9.42281e-06
-0.000155499
-1.14238e-05
-0.000151009
-1.3473e-05
-0.000145855
-1.54322e-05
-0.000140054
-1.74183e-05
-0.000133532
-1.95619e-05
-0.00012642
-2.13681e-05
-0.000118576
-2.35348e-05
-0.000109992
-2.57316e-05
-0.000100921
-2.72246e-05
-9.10746e-05
-2.9528e-05
-8.07409e-05
-3.10115e-05
-6.9718e-05
-3.30475e-05
-5.81836e-05
-3.46303e-05
-4.59875e-05
-3.65493e-05
-3.33742e-05
-3.78403e-05
-2.01571e-05
-3.96176e-05
-6.7123e-06
-4.03152e-05
7.15719e-06
-4.1551e-05
2.12662e-05
-4.23118e-05
3.55374e-05
-4.27832e-05
4.97047e-05
-4.24398e-05
6.38735e-05
-4.24196e-05
7.7712e-05
-4.14507e-05
9.10954e-05
-4.00873e-05
0.000103665
-3.76416e-05
0.000115269
-3.4701e-05
0.000125647
-3.06163e-05
0.000133626
-2.42045e-05
0.000138623
-1.46643e-05
0.000140657
-2.25564e-06
0.000135824
3.53689e-05
5.31122e-05
0.000124735
-0.000174703
1.01152e-05
-0.0001767
7.97437e-06
-0.000178199
5.98924e-06
-0.000179214
4.05395e-06
-0.000179752
2.18727e-06
-0.000179828
3.44066e-07
-0.000179404
-1.68233e-06
-0.000178499
-3.60933e-06
-0.000177137
-5.4545e-06
-0.000175283
-7.41887e-06
-0.000172988
-9.18303e-06
-0.000170174
-1.12702e-05
-0.00016691
-1.30735e-05
-0.000163071
-1.53723e-05
-0.000158722
-1.74194e-05
-0.000153901
-1.9296e-05
-0.000148423
-2.19197e-05
-0.000142439
-2.39594e-05
-0.00013576
-2.67241e-05
-0.000128561
-2.88311e-05
-0.00012063
-3.17058e-05
-0.000112156
-3.39115e-05
-0.000102919
-3.69448e-05
-9.31172e-05
-3.92142e-05
-8.25375e-05
-4.23136e-05
-7.13877e-05
-4.459e-05
-5.94702e-05
-4.76626e-05
-4.7043e-05
-4.96853e-05
-3.38894e-05
-5.2586e-05
-2.02926e-05
-5.43462e-05
-6.02831e-06
-5.69925e-05
8.61521e-06
-5.85277e-05
2.37758e-05
-6.05766e-05
3.9259e-05
-6.18565e-05
5.4788e-05
-6.20357e-05
7.04426e-05
-6.25255e-05
8.59873e-05
-6.20815e-05
0.000101384
-6.14818e-05
0.000116409
-5.99931e-05
0.000130984
-5.81889e-05
0.000144905
-5.5568e-05
0.000158042
-5.24423e-05
0.00017024
-4.86729e-05
0.000181354
-4.43505e-05
0.000191243
-3.94531e-05
0.000199793
-3.4113e-05
0.000206866
-2.82175e-05
0.000212425
-2.2114e-05
0.000216316
-1.55231e-05
0.000218561
-8.9132e-06
0.000219048
-1.9967e-06
0.00021782
4.8484e-06
0.000214935
1.15555e-05
0.000210357
1.82875e-05
0.000204214
2.44989e-05
0.000196519
3.07537e-05
0.000187435
3.6222e-05
0.000177005
4.16154e-05
0.000165457
4.60975e-05
0.000152834
5.03629e-05
0.00013935
5.38264e-05
0.000125084
5.69399e-05
0.000110259
5.91787e-05
9.49603e-05
6.10526e-05
7.94082e-05
6.21236e-05
6.37057e-05
6.27543e-05
4.80108e-05
6.26407e-05
3.23894e-05
6.23897e-05
1.69862e-05
6.14513e-05
1.90272e-06
6.04081e-05
-1.28876e-05
5.90329e-05
-2.71787e-05
5.71102e-05
-4.094e-05
5.50015e-05
-5.40991e-05
5.26045e-05
-6.66436e-05
5.01304e-05
-7.85048e-05
4.74164e-05
-8.96879e-05
4.47066e-05
-0.000100139
4.17912e-05
-0.000109881
3.89706e-05
-0.000118868
3.59864e-05
-0.000127171
3.31827e-05
-0.000134719
3.0267e-05
-0.000141641
2.76312e-05
-0.000147826
2.47585e-05
-0.000153395
2.22762e-05
-0.000158284
1.96255e-05
-0.000162663
1.74999e-05
-0.000166397
1.49783e-05
-0.000169652
1.30041e-05
-0.000172315
1.06688e-05
-0.000174437
8.52495e-06
-0.00017612
6.69903e-06
-0.000177178
4.25324e-06
-0.000177816
2.57497e-06
-0.000177873
2.60322e-07
-0.000177503
-1.50595e-06
-0.000176518
-3.91607e-06
-0.000175144
-5.45538e-06
-0.000173189
-7.8864e-06
-0.000170828
-9.4572e-06
-0.000167863
-1.18253e-05
-0.000164493
-1.3509e-05
-0.000160536
-1.58214e-05
-0.000156103
-1.77318e-05
-0.000151107
-1.9965e-05
-0.000145598
-2.20417e-05
-0.000139498
-2.43853e-05
-0.00013287
-2.65244e-05
-0.000125732
-2.85938e-05
-0.000117925
-3.1272e-05
-0.000109659
-3.30198e-05
-0.000100654
-3.60056e-05
-9.12234e-05
-3.77476e-05
-8.10218e-05
-4.07503e-05
-7.04184e-05
-4.24521e-05
-5.90638e-05
-4.53433e-05
-4.73409e-05
-4.69174e-05
-3.49053e-05
-4.96699e-05
-2.21624e-05
-5.09956e-05
-8.79517e-06
-5.33947e-05
4.82929e-06
-5.44599e-05
1.88521e-05
-5.59422e-05
3.31311e-05
-5.71358e-05
4.76452e-05
-5.8003e-05
6.21455e-05
-5.78419e-05
7.66762e-05
-5.80054e-05
9.1086e-05
-5.7512e-05
0.000105152
-5.6215e-05
0.000118791
-5.4455e-05
0.00013182
-5.2019e-05
0.00014417
-4.92754e-05
0.000155651
-4.58287e-05
0.000166174
-4.19678e-05
0.000175567
-3.75085e-05
0.000183746
-3.26126e-05
0.000190582
-2.72873e-05
0.000196005
-2.16248e-05
0.000199927
-1.56208e-05
0.000202287
-9.44293e-06
0.00020307
-3.14181e-06
0.000202247
3.18911e-06
0.00019985
9.53595e-06
0.000195904
1.57964e-05
0.000190466
2.16846e-05
0.000183611
2.73641e-05
0.000175438
3.25948e-05
0.000166047
3.74493e-05
0.00015557
4.18231e-05
0.000144145
4.55737e-05
0.000131909
4.88358e-05
0.000119005
5.14856e-05
0.000105601
5.3517e-05
9.18229e-05
5.49994e-05
7.78316e-05
5.58545e-05
6.37605e-05
5.6185e-05
4.97297e-05
5.60469e-05
3.58369e-05
5.54842e-05
2.22183e-05
5.4393e-05
8.92466e-06
5.31229e-05
-3.94789e-06
5.14519e-05
-1.63702e-05
4.96408e-05
-2.82837e-05
4.76217e-05
-3.96767e-05
4.55542e-05
-5.05269e-05
4.33879e-05
-6.08102e-05
4.11206e-05
-7.04752e-05
3.86759e-05
-7.96236e-05
3.65394e-05
-8.81801e-05
3.42573e-05
-9.61829e-05
3.20693e-05
-0.000103704
3.01258e-05
-0.00011067
2.78317e-05
-0.000117216
2.61766e-05
-0.000123233
2.41834e-05
-0.000128883
2.25763e-05
-0.000134109
2.09781e-05
-0.000139014
1.96073e-05
-0.000143424
1.76246e-05
-0.000147622
1.68139e-05
-0.000151266
1.45763e-05
-0.000154767
1.39802e-05
-0.000157925
1.26424e-05
-0.000160986
1.20513e-05
-0.000163373
9.71532e-06
-0.000165365
7.96134e-06
-0.000167023
6.5687e-06
-0.000168018
4.00188e-06
-0.000168688
2.56996e-06
-0.000168601
-2.87346e-07
-0.000168088
-2.11808e-06
-0.000166855
-4.90599e-06
-0.000165038
-7.28092e-06
-0.000162565
-9.91935e-06
-0.00015941
-1.25773e-05
-0.000155605
-1.52294e-05
-0.000151116
-1.79612e-05
-0.000145955
-2.05936e-05
-0.000140157
-2.32167e-05
-0.000133623
-2.60959e-05
-0.00012653
-2.8461e-05
-0.000118683
-3.13817e-05
-0.000110089
-3.43252e-05
-0.000101023
-3.62909e-05
-9.11763e-05
-3.93748e-05
-8.08702e-05
-4.13176e-05
-6.98067e-05
-4.4111e-05
-5.82922e-05
-4.61448e-05
-4.6072e-05
-4.87695e-05
-3.34648e-05
-5.04476e-05
-2.0236e-05
-5.28465e-05
-6.75717e-06
-5.37941e-05
7.13767e-06
-5.54458e-05
2.12275e-05
-5.64016e-05
3.55253e-05
-5.7081e-05
4.97663e-05
-5.66808e-05
6.39677e-05
-5.66211e-05
7.78025e-05
-5.52855e-05
9.12254e-05
-5.35102e-05
0.000103866
-5.02824e-05
0.000115506
-4.63403e-05
0.000125999
-4.111e-05
0.000134322
-3.25274e-05
0.000139515
-1.98572e-05
0.000141778
-4.51852e-06
0.000140407
3.67397e-05
6.12394e-05
0.00013228
-0.00017482
1.26449e-05
-0.000176815
9.96908e-06
-0.000178312
7.48635e-06
-0.000179325
5.06688e-06
-0.000179859
2.72185e-06
-0.000179934
4.18674e-07
-0.000179507
-2.10889e-06
-0.0001786
-4.51641e-06
-0.00017724
-6.81452e-06
-0.000175389
-9.26992e-06
-0.000173093
-1.14793e-05
-0.000170284
-1.40788e-05
-0.000167024
-1.63338e-05
-0.000163189
-1.92072e-05
-0.000158847
-2.17617e-05
-0.000154029
-2.4114e-05
-0.000148555
-2.73935e-05
-0.000142578
-2.99368e-05
-0.000135901
-3.34007e-05
-0.000128721
-3.60114e-05
-0.000120777
-3.965e-05
-0.000112303
-4.23847e-05
-0.000103066
-4.61825e-05
-9.32659e-05
-4.9014e-05
-8.26857e-05
-5.28938e-05
-7.15337e-05
-5.5742e-05
-5.96136e-05
-5.95828e-05
-4.718e-05
-6.2119e-05
-3.40183e-05
-6.57477e-05
-2.04102e-05
-6.79544e-05
-6.12869e-06
-7.12741e-05
8.52862e-06
-7.31851e-05
2.37092e-05
-7.57572e-05
3.92166e-05
-7.73639e-05
5.47707e-05
-7.75899e-05
7.04538e-05
-7.82087e-05
8.60291e-05
-7.76568e-05
0.000101457
-7.69097e-05
0.000116515
-7.50509e-05
0.000131123
-7.27973e-05
0.000145074
-6.95194e-05
0.000158248
-6.56157e-05
0.000170482
-6.09073e-05
0.000181623
-5.5491e-05
0.000191543
-4.93732e-05
0.000200114
-4.26839e-05
0.000207208
-3.53124e-05
0.00021277
-2.76751e-05
0.000216701
-1.94542e-05
0.000218926
-1.11388e-05
0.000219427
-2.49793e-06
0.000218203
6.07294e-06
0.000215307
1.44516e-05
0.000210714
2.28805e-05
0.00020455
3.06627e-05
0.000196854
3.84501e-05
0.000187729
4.53468e-05
0.00017727
5.20746e-05
0.000165688
5.76787e-05
0.000153032
6.30189e-05
0.000139505
6.73539e-05
0.000125217
7.12278e-05
0.000110358
7.40378e-05
9.50206e-05
7.63898e-05
7.94427e-05
7.77015e-05
6.37353e-05
7.84617e-05
4.79888e-05
7.83872e-05
3.23416e-05
7.80369e-05
1.68957e-05
7.68972e-05
1.83234e-06
7.54714e-05
-1.29969e-05
7.38621e-05
-2.73004e-05
7.14137e-05
-4.10729e-05
6.8774e-05
-5.42424e-05
6.57741e-05
-6.67946e-05
6.26826e-05
-7.86638e-05
5.92856e-05
-8.98514e-05
5.58942e-05
-0.000100305
5.22445e-05
-0.000110047
4.87132e-05
-0.000119033
4.49717e-05
-0.000127335
4.14847e-05
-0.000134875
3.78072e-05
-0.000141791
3.45475e-05
-0.000147975
3.09421e-05
-0.000153545
2.78463e-05
-0.000158443
2.45235e-05
-0.000162798
2.18553e-05
-0.000166514
1.86944e-05
-0.000169779
1.62691e-05
-0.00017244
1.33298e-05
-0.00017456
1.06449e-05
-0.00017624
8.37882e-06
-0.000177301
5.31389e-06
-0.000177931
3.20556e-06
-0.000177985
3.1424e-07
-0.00017762
-1.87126e-06
-0.000176635
-4.90146e-06
-0.000175254
-6.83589e-06
-0.000173305
-9.83543e-06
-0.000170946
-1.18159e-05
-0.000167979
-1.47931e-05
-0.000164612
-1.68756e-05
-0.000160657
-1.97765e-05
-0.000156223
-2.21659e-05
-0.00015123
-2.49577e-05
-0.000145703
-2.75691e-05
-0.000139625
-3.04627e-05
-0.000133004
-3.3146e-05
-0.000125865
-3.57323e-05
-0.000118059
-3.90786e-05
-0.000109772
-4.13062e-05
-0.000100787
-4.49905e-05
-9.13606e-05
-4.71745e-05
-8.11541e-05
-5.09567e-05
-7.05512e-05
-5.3055e-05
-5.91863e-05
-5.67083e-05
-4.74585e-05
-5.86452e-05
-3.50197e-05
-6.21088e-05
-2.226e-05
-6.37553e-05
-8.8902e-06
-6.67645e-05
4.74476e-06
-6.80949e-05
1.88249e-05
-7.00224e-05
3.30762e-05
-7.13872e-05
4.76269e-05
-7.25537e-05
6.21689e-05
-7.23838e-05
7.67106e-05
-7.25472e-05
9.11485e-05
-7.195e-05
0.000105231
-7.02972e-05
0.000118913
-6.81372e-05
0.000131986
-6.50922e-05
0.000144361
-6.16504e-05
0.00015587
-5.73381e-05
0.00016643
-5.25275e-05
0.000175839
-4.69172e-05
0.000184046
-4.08203e-05
0.0001909
-3.41412e-05
0.000196339
-2.70638e-05
0.000200271
-1.95531e-05
0.000202639
-1.18108e-05
0.000203423
-3.92548e-06
0.000202592
4.02036e-06
0.000200185
1.19425e-05
0.000196232
1.97498e-05
0.000190777
2.71394e-05
0.000183902
3.42384e-05
0.000175702
4.07951e-05
0.000166285
4.68665e-05
0.000155782
5.23262e-05
0.00014432
5.70354e-05
0.000132053
6.11027e-05
0.000119115
6.44232e-05
0.000105678
6.69548e-05
9.18714e-05
6.88055e-05
7.78481e-05
6.98778e-05
6.37437e-05
7.02894e-05
4.96824e-05
7.01081e-05
3.57775e-05
6.93891e-05
2.21352e-05
6.80353e-05
8.8284e-06
6.64297e-05
-4.05764e-06
6.4338e-05
-1.64905e-05
6.20737e-05
-2.8411e-05
5.95422e-05
-3.98025e-05
5.69457e-05
-5.06589e-05
5.42443e-05
-6.09433e-05
5.14049e-05
-7.0608e-05
4.83407e-05
-7.97611e-05
4.56924e-05
-8.83157e-05
4.28118e-05
-9.63186e-05
4.00722e-05
-0.000103798
3.76056e-05
-0.00011079
3.48235e-05
-0.000117326
3.27126e-05
-0.000123336
3.01927e-05
-0.000128989
2.82301e-05
-0.000134189
2.6178e-05
-0.000139093
2.45105e-05
-0.000143517
2.20487e-05
-0.000147699
2.09966e-05
-0.000151355
1.82318e-05
-0.000154856
1.74816e-05
-0.000158013
1.57993e-05
-0.0001611
1.51388e-05
-0.000163461
1.20761e-05
-0.000165473
9.9734e-06
-0.000167138
8.23365e-06
-0.000168134
4.99745e-06
-0.000168807
3.24358e-06
-0.00016873
-3.6442e-07
-0.00016823
-2.61883e-06
-0.000166996
-6.14005e-06
-0.000165188
-9.08856e-06
-0.000162724
-1.23831e-05
-0.000159555
-1.57468e-05
-0.000155758
-1.90257e-05
-0.00015127
-2.24495e-05
-0.000146106
-2.57577e-05
-0.000140308
-2.90146e-05
-0.000133758
-3.26463e-05
-0.000126666
-3.55526e-05
-0.000118822
-3.92262e-05
-0.000110226
-4.29205e-05
-0.000101145
-4.5372e-05
-9.13209e-05
-4.91991e-05
-8.10384e-05
-5.16001e-05
-6.99386e-05
-5.52108e-05
-5.84305e-05
-5.7653e-05
-4.61875e-05
-6.10126e-05
-3.35779e-05
-6.30571e-05
-2.03409e-05
-6.60835e-05
-6.83417e-06
-6.73008e-05
7.10689e-06
-6.93869e-05
2.11744e-05
-7.04692e-05
3.55123e-05
-7.14188e-05
4.98293e-05
-7.0998e-05
6.40465e-05
-7.08382e-05
7.78904e-05
-6.91295e-05
9.13636e-05
-6.69835e-05
0.000104106
-6.30247e-05
0.000115848
-5.80827e-05
0.000126382
-5.1644e-05
0.000135118
-4.12635e-05
0.000140977
-2.57161e-05
0.000143461
-7.00196e-06
0.000143637
3.65629e-05
6.64101e-05
0.000138467
-0.000174965
1.51691e-05
-0.000176954
1.19581e-05
-0.000178447
8.97969e-06
-0.000179457
6.07702e-06
-0.00017999
3.25479e-06
-0.000180065
4.93721e-07
-0.000179636
-2.53748e-06
-0.000178724
-5.42902e-06
-0.000177369
-8.16917e-06
-0.000175521
-1.11184e-05
-0.000173224
-1.37764e-05
-0.000170421
-1.6881e-05
-0.000167166
-1.95891e-05
-0.000163334
-2.30398e-05
-0.000159001
-2.6094e-05
-0.000154188
-2.89272e-05
-0.000148719
-3.28631e-05
-0.00014275
-3.59053e-05
-0.000136077
-4.00733e-05
-0.000128909
-4.31797e-05
-0.00012096
-4.75991e-05
-0.000112489
-5.08557e-05
-0.000103249
-5.54228e-05
-9.34506e-05
-5.88121e-05
-8.28698e-05
-6.34746e-05
-7.1715e-05
-6.68969e-05
-5.97911e-05
-7.15067e-05
-4.73493e-05
-7.45608e-05
-3.41776e-05
-7.89194e-05
-2.05552e-05
-8.15768e-05
-6.25314e-06
-8.55761e-05
8.42027e-06
-8.78585e-05
2.36261e-05
-9.0963e-05
3.91645e-05
-9.29023e-05
5.47507e-05
-9.31761e-05
7.04703e-05
-9.39283e-05
8.60849e-05
-9.32715e-05
0.000101552
-9.23768e-05
0.000116652
-9.01509e-05
0.000131303
-8.74482e-05
0.000145297
-8.35134e-05
0.000158516
-7.88351e-05
0.000170795
-7.31857e-05
0.000181965