/*--------------------------------*- C++ -*----------------------------------*\
| =========                 |                                                 |
| \\      /  F ield         | OpenFOAM: The Open Source CFD Toolbox           |
|  \\    /   O peration     | Version:  3.0.1                                 |
|   \\  /    A nd           | Web:      www.OpenFOAM.org                      |
|    \\/     M anipulation  |                                                 |
\*---------------------------------------------------------------------------*/
FoamFile
{
    version     2.0;
    format      ascii;
    class       surfaceScalarField;
    location    "17.8";
    object      phi;
}
// * * * * * * * * * * * * * * * * * * * * * * * * * * * * * * * * * * * * * //

dimensions      [0 3 -1 0 0 0 0];

internalField   nonuniform List<scalar> 
44922
(
-0.000174735
2.58241e-06
-0.000176796
2.06044e-06
-0.000178359
1.56303e-06
-0.000179436
1.07692e-06
-0.000180049
6.13486e-07
-0.000180208
1.58674e-07
-0.000179862
-3.45573e-07
-0.000179031
-8.31405e-07
-0.000177726
-1.30507e-06
-0.000175942
-1.78361e-06
-0.000173692
-2.24999e-06
-0.000170949
-2.74376e-06
-0.000167732
-3.21709e-06
-0.000163981
-3.75083e-06
-0.000159737
-4.24322e-06
-0.00015501
-4.72744e-06
-0.000149638
-5.37196e-06
-0.000143768
-5.87013e-06
-0.000137204
-6.56382e-06
-0.000130097
-7.10673e-06
-0.000122241
-7.8561e-06
-0.000113814
-8.42733e-06
-0.000104618
-9.19642e-06
-9.4829e-05
-9.78854e-06
-8.42566e-05
-1.05725e-05
-7.30968e-05
-1.11597e-05
-6.1187e-05
-1.19099e-05
-4.87297e-05
-1.24573e-05
-3.55237e-05
-1.3206e-05
-2.18843e-05
-1.36394e-05
-7.56008e-06
-1.43242e-05
7.15621e-06
-1.47163e-05
2.24167e-05
-1.52605e-05
3.79773e-05
-1.55606e-05
5.35625e-05
-1.55852e-05
6.92929e-05
-1.57304e-05
8.48905e-05
-1.55976e-05
0.000100344
-1.54531e-05
0.000115404
-1.50605e-05
0.000130002
-1.45978e-05
0.000143934
-1.39316e-05
0.000157079
-1.31456e-05
0.000169266
-1.21871e-05
0.000180371
-1.11052e-05
0.000190254
-9.88289e-06
0.000198791
-8.5363e-06
0.000205887
-7.09624e-06
0.000211458
-5.57112e-06
0.000215411
-3.9533e-06
0.000217704
-2.29228e-06
0.000218305
-6.01247e-07
0.000217218
1.08718e-06
0.000214483
2.73473e-06
0.000210055
4.42828e-06
0.000204142
5.91234e-06
0.000196647
7.49559e-06
0.000187821
8.82587e-06
0.000177635
1.01857e-05
0.000166338
1.12965e-05
0.00015396
1.23784e-05
0.000140733
1.32274e-05
0.000126747
1.3986e-05
0.000112178
1.45689e-05
9.71322e-05
1.50456e-05
8.18345e-05
1.52977e-05
6.63031e-05
1.55314e-05
5.07801e-05
1.5523e-05
3.53081e-05
1.54719e-05
2.00468e-05
1.52613e-05
5.02417e-06
1.50227e-05
-9.63404e-06
1.46582e-05
-2.38434e-05
1.42094e-05
-3.7552e-05
1.37085e-05
-5.06908e-05
1.31388e-05
-6.3229e-05
1.25382e-05
-7.51141e-05
1.18851e-05
-8.63314e-05
1.12174e-05
-9.68411e-05
1.05097e-05
-0.000106649
9.80763e-06
-0.000115726
9.07695e-06
-0.000124094
8.36854e-06
-0.000131733
7.63847e-06
-0.000138682
6.94949e-06
-0.000144928
6.24613e-06
-0.000150533
5.60494e-06
-0.000155486
4.95307e-06
-0.000159849
4.36297e-06
-0.000163612
3.7625e-06
-0.000166867
3.25558e-06
-0.000169548
2.6807e-06
-0.000171684
2.13581e-06
-0.00017335
1.66644e-06
-0.000174493
1.14279e-06
-0.000175189
6.95905e-07
-0.000175347
1.57817e-07
-0.000175082
-2.64564e-07
-0.000174251
-8.31022e-07
-0.000173069
-1.18202e-06
-0.000171286
-1.78301e-06
-0.000169124
-2.16201e-06
-0.000166387
-2.73688e-06
-0.000163271
-3.116e-06
-0.000159533
-3.73859e-06
-0.000155398
-4.13523e-06
-0.0001507
-4.69712e-06
-0.000145516
-5.18479e-06
-0.000139722
-5.79343e-06
-0.000133407
-6.31572e-06
-0.000126606
-6.80011e-06
-0.000119153
-7.45318e-06
-0.00011124
-7.91333e-06
-0.000102607
-8.63337e-06
-9.35579e-05
-9.04865e-06
-8.37793e-05
-9.77861e-06
-7.3577e-05
-1.02023e-05
-6.26824e-05
-1.08946e-05
-5.14016e-05
-1.12807e-05
-3.94546e-05
-1.1947e-05
-2.72e-05
-1.22546e-05
-1.43626e-05
-1.28375e-05
-1.29102e-06
-1.30716e-05
1.21637e-05
-1.34548e-05
2.5878e-05
-1.37143e-05
3.97544e-05
-1.38764e-05
5.36129e-05
-1.38585e-05
6.74704e-05
-1.38575e-05
8.11874e-05
-1.3717e-05
9.45613e-05
-1.3374e-05
0.000107497
-1.29355e-05
0.000119814
-1.23174e-05
0.000131423
-1.16092e-05
0.000142181
-1.07573e-05
0.000151964
-9.78366e-06
0.000160648
-8.68366e-06
0.000168139
-7.49076e-06
0.000174321
-6.18211e-06
0.000179134
-4.81326e-06
0.000182506
-3.37229e-06
0.00018441
-1.90316e-06
0.000184821
-4.1163e-07
0.00018376
1.06106e-06
0.0001812
2.55968e-06
0.000177241
3.95996e-06
0.000171928
5.31243e-06
0.000165372
6.55636e-06
0.000157659
7.71252e-06
0.000148924
8.73501e-06
0.000139295
9.62903e-06
0.000128894
1.04008e-05
0.000117906
1.09878e-05
0.000106433
1.14738e-05
9.46566e-05
1.1776e-05
8.27049e-05
1.19518e-05
7.06994e-05
1.20054e-05
5.87961e-05
1.19033e-05
4.7079e-05
1.17171e-05
3.56529e-05
1.14261e-05
2.45866e-05
1.10663e-05
1.39758e-05
1.06108e-05
3.83301e-06
1.01428e-05
-5.79166e-06
9.62466e-06
-1.48792e-05
9.08755e-06
-2.34662e-05
8.58698e-06
-3.15465e-05
8.08033e-06
-3.91398e-05
7.59328e-06
-4.62237e-05
7.08394e-06
-5.28891e-05
6.66538e-06
-5.91323e-05
6.24316e-06
-6.49967e-05
5.86439e-06
-7.05625e-05
5.56582e-06
-7.57978e-05
5.23527e-06
-8.08748e-05
5.07702e-06
-8.57052e-05
4.83036e-06
-9.04247e-05
4.71953e-06
-9.5037e-05
4.61233e-06
-9.96269e-05
4.58991e-06
-0.000104012
4.38524e-06
-0.000108518
4.50617e-06
-0.00011275
4.23172e-06
-0.000117122
4.37187e-06
-0.000121391
4.2689e-06
-0.000125745
4.3541e-06
-0.000129718
3.97267e-06
-0.000133414
3.6959e-06
-0.000136908
3.49493e-06
-0.000139834
2.92519e-06
-0.000142452
2.6182e-06
-0.000144389
1.93665e-06
-0.000145837
1.44824e-06
-0.000146595
7.57796e-07
-0.000146728
1.33558e-07
-0.000146146
-5.82447e-07
-0.000144853
-1.29246e-06
-0.000142872
-1.9813e-06
-0.000140174
-2.69836e-06
-0.000136814
-3.35948e-06
-0.000132783
-4.03089e-06
-0.000128053
-4.7303e-06
-0.000122727
-5.32601e-06
-0.000116737
-5.99023e-06
-0.000109975
-6.76156e-06
-0.000102698
-7.27665e-06
-9.46861e-05
-8.01238e-06
-8.62676e-05
-8.41848e-06
-7.69172e-05
-9.35036e-06
-6.70082e-05
-9.909e-06
-5.63442e-05
-1.06641e-05
-4.52287e-05
-1.11154e-05
-3.36036e-05
-1.16252e-05
-2.15499e-05
-1.20536e-05
-9.01661e-06
-1.25333e-05
3.72037e-06
-1.2737e-05
1.67157e-05
-1.29953e-05
2.96447e-05
-1.2929e-05
4.26372e-05
-1.29925e-05
5.5338e-05
-1.27008e-05
6.76802e-05
-1.23422e-05
7.93341e-05
-1.16539e-05
8.99983e-05
-1.06642e-05
9.89771e-05
-8.97883e-06
0.000106253
-7.27564e-06
0.000108124
-1.87093e-06
0.000104747
3.37636e-06
7.61772e-05
2.85701e-05
2.63931e-05
4.97841e-05
-0.000174768
5.16664e-06
-0.000176827
4.12024e-06
-0.000178391
3.12614e-06
-0.000179468
2.15459e-06
-0.000180081
1.22633e-06
-0.000180237
3.14965e-07
-0.000179891
-6.91543e-07
-0.000179059
-1.66352e-06
-0.000177754
-2.61004e-06
-0.000175971
-3.56722e-06
-0.000173721
-4.49965e-06
-0.000170978
-5.48719e-06
-0.000167761
-6.43318e-06
-0.000164011
-7.50123e-06
-0.000159769
-8.48555e-06
-0.000155043
-9.45309e-06
-0.000149673
-1.07417e-05
-0.000143804
-1.17395e-05
-0.000137242
-1.31263e-05
-0.000130137
-1.42118e-05
-0.000122282
-1.57111e-05
-0.000113855
-1.68538e-05
-0.000104658
-1.83932e-05
-9.48701e-05
-1.95767e-05
-8.42983e-05
-2.11443e-05
-7.31405e-05
-2.23176e-05
-6.12257e-05
-2.38246e-05
-4.8764e-05
-2.4919e-05
-3.55586e-05
-2.64114e-05
-2.19136e-05
-2.72844e-05
-7.58452e-06
-2.86534e-05
7.13214e-06
-2.9433e-05
2.23958e-05
-3.05242e-05
3.79611e-05
-3.11259e-05
5.35523e-05
-3.11764e-05
6.92892e-05
-3.14673e-05
8.48932e-05
-3.12017e-05
0.000100353
-3.0913e-05
0.000115421
-3.01288e-05
0.000130027
-2.92035e-05
0.000143967
-2.78715e-05
0.000157121
-2.63e-05
0.000169315
-2.43811e-05
0.000180428
-2.22174e-05
0.000190318
-1.97738e-05
0.000198862
-1.70802e-05
0.000205964
-1.41983e-05
0.000211537
-1.11441e-05
0.000215492
-7.90818e-06
0.000217795
-4.59451e-06
0.000218403
-1.20987e-06
0.000217308
2.18231e-06
0.000214576
5.467e-06
0.000210149
8.85502e-06
0.000204233
1.18285e-05
0.000196732
1.49965e-05
0.000187901
1.76571e-05
0.000177708
2.03788e-05
0.000166403
2.26013e-05
0.000154016
2.47652e-05
0.00014078
2.64636e-05
0.000126783
2.79825e-05
0.000112207
2.91451e-05
9.71588e-05
3.00939e-05
8.18425e-05
3.0614e-05
6.63093e-05
3.10646e-05
5.0779e-05
3.10533e-05
3.53013e-05
3.09497e-05
2.00343e-05
3.05283e-05
5.00655e-06
3.00504e-05
-9.65713e-06
2.93219e-05
-2.38699e-05
2.84221e-05
-3.75827e-05
2.74213e-05
-5.07252e-05
2.62813e-05
-6.32663e-05
2.50794e-05
-7.51535e-05
2.37722e-05
-8.63731e-05
2.2437e-05
-9.68847e-05
2.10213e-05
-0.000106694
1.96166e-05
-0.000115772
1.81553e-05
-0.000124141
1.67375e-05
-0.00013178
1.52775e-05
-0.000138728
1.38976e-05
-0.000144976
1.24937e-05
-0.000150578
1.12075e-05
-0.000155531
9.90607e-06
-0.000159894
8.72529e-06
-0.000163654
7.52257e-06
-0.000166907
6.50903e-06
-0.000169586
5.35987e-06
-0.000171724
4.27393e-06
-0.000173394
3.3364e-06
-0.00017453
2.27815e-06
-0.000175226
1.39226e-06
-0.00017538
3.12094e-07
-0.000175118
-5.26559e-07
-0.000174284
-1.66562e-06
-0.000173103
-2.36285e-06
-0.00017132
-3.56603e-06
-0.00016916
-4.32189e-06
-0.000166419
-5.47801e-06
-0.000163305
-6.22981e-06
-0.000159573
-7.47034e-06
-0.000155433
-8.27555e-06
-0.000150733
-9.39694e-06
-0.000145546
-1.03717e-05
-0.000139754
-1.15856e-05
-0.000133438
-1.26322e-05
-0.000126643
-1.3595e-05
-0.00011919
-1.4906e-05
-0.000111279
-1.58242e-05
-0.000102643
-1.72696e-05
-9.35954e-05
-1.8096e-05
-8.38128e-05
-1.95612e-05
-7.3607e-05
-2.04082e-05
-6.27129e-05
-2.17886e-05
-5.14323e-05
-2.25614e-05
-3.94806e-05
-2.38987e-05
-2.72265e-05
-2.45087e-05
-1.43812e-05
-2.56828e-05
-1.30901e-06
-2.61438e-05
1.2153e-05
-2.69168e-05
2.58744e-05
-2.74357e-05
3.97568e-05
-2.77588e-05
5.36182e-05
-2.772e-05
6.7483e-05
-2.77223e-05
8.12103e-05
-2.74443e-05
9.4592e-05
-2.67557e-05
0.000107535
-2.58789e-05
0.00011986
-2.46418e-05
0.000131477
-2.32263e-05
0.000142242
-2.15228e-05
0.000152033
-1.95743e-05
0.000160723
-1.73738e-05
0.000168219
-1.49864e-05
0.000174405
-1.23687e-05
0.000179222
-9.62964e-06
0.000182597
-6.74762e-06
0.000184501
-3.80769e-06
0.000184911
-8.21392e-07
0.000183843
2.12904e-06
0.000181281
5.12162e-06
0.000177318
7.92291e-06
0.000172001
1.06293e-05
0.000165439
1.31184e-05
0.00015772
1.54314e-05
0.000148977
1.7478e-05
0.00013934
1.92663e-05
0.00012893
2.08108e-05
0.000117934
2.19843e-05
0.000106457
2.29506e-05
9.46667e-05
2.35662e-05
8.27078e-05
2.39107e-05
7.0696e-05
2.40172e-05
5.87855e-05
2.38138e-05
4.70636e-05
2.3439e-05
3.56333e-05
2.28564e-05
2.45635e-05
2.2136e-05
1.39484e-05
2.12259e-05
3.80317e-06
2.0288e-05
-5.82338e-06
1.92512e-05
-1.49141e-05
1.81783e-05
-2.3504e-05
1.71768e-05
-3.15829e-05
1.61593e-05
-3.91715e-05
1.51818e-05
-4.62522e-05
1.41646e-05
-5.29167e-05
1.33299e-05
-5.91541e-05
1.24806e-05
-6.50156e-05
1.17258e-05
-7.05792e-05
1.11295e-05
-7.58122e-05
1.04682e-05
-8.08858e-05
1.01506e-05
-8.57149e-05
9.65947e-06
-9.04347e-05
9.4393e-06
-9.50434e-05
9.22111e-06
-9.96356e-05
9.18205e-06
-0.00010402
8.76933e-06
-0.000108527
9.01373e-06
-0.000112758
8.46224e-06
-0.000117128
8.74236e-06
-0.000121403
8.54405e-06
-0.000125766
8.71642e-06
-0.000129737
7.9444e-06
-0.00013344
7.3988e-06
-0.000136936
6.99077e-06
-0.000139864
5.85337e-06
-0.000142488
5.24134e-06
-0.000144427
3.8764e-06
-0.000145883
2.90401e-06
-0.000146641
1.51568e-06
-0.000146773
2.65249e-07
-0.000146197
-1.15779e-06
-0.000144902
-2.58771e-06
-0.000142916
-3.96758e-06
-0.00014021
-5.40388e-06
-0.000136849
-6.72114e-06
-0.000132818
-8.06115e-06
-0.000128087
-9.46165e-06
-0.000122759
-1.06542e-05
-0.000116769
-1.19798e-05
-0.000110006
-1.35245e-05
-0.000102739
-1.45442e-05
-9.4722e-05
-1.60291e-05
-8.63041e-05
-1.68364e-05
-7.69585e-05
-1.8696e-05
-6.7056e-05
-1.98115e-05
-5.63897e-05
-2.13303e-05
-4.52669e-05
-2.22383e-05
-3.36385e-05
-2.32536e-05
-2.15772e-05
-2.4115e-05
-9.0307e-06
-2.50798e-05
3.71389e-06
-2.54816e-05
1.67197e-05
-2.60012e-05
2.96539e-05
-2.58632e-05
4.26612e-05
-2.59999e-05
5.53791e-05
-2.54186e-05
6.77319e-05
-2.46951e-05
7.9414e-05
-2.3336e-05
9.01304e-05
-2.13806e-05
9.91188e-05
-1.79672e-05
0.000106355
-1.45119e-05
0.000108551
-4.06724e-06
0.00010762
4.30719e-06
8.85704e-05
4.76202e-05
4.74664e-05
6.74971e-05
-0.000174829
7.75156e-06
-0.00017689
6.18123e-06
-0.000178453
4.68886e-06
-0.000179532
3.23361e-06
-0.000180142
1.83711e-06
-0.000180293
4.65569e-07
-0.000179943
-1.04126e-06
-0.000179111
-2.49618e-06
-0.000177805
-3.91529e-06
-0.000176022
-5.35019e-06
-0.000173773
-6.74904e-06
-0.000171031
-8.22921e-06
-0.000167817
-9.64734e-06
-0.000164069
-1.12496e-05
-0.000159828
-1.2726e-05
-0.000155105
-1.41759e-05
-0.00014974
-1.61066e-05
-0.000143872
-1.76079e-05
-0.000137312
-1.9686e-05
-0.00013021
-2.13143e-05
-0.000122357
-2.35644e-05
-0.000113932
-2.52784e-05
-0.000104735
-2.75905e-05
-9.49465e-05
-2.93649e-05
-8.43757e-05
-3.17151e-05
-7.322e-05
-3.34733e-05
-6.12973e-05
-3.57474e-05
-4.88265e-05
-3.73898e-05
-3.56243e-05
-3.96136e-05
-2.19695e-05
-4.09391e-05
-7.63094e-06
-4.2992e-05
7.08868e-06
-4.41526e-05
2.23616e-05
-4.57971e-05
3.79377e-05
-4.67021e-05
5.35407e-05
-4.67794e-05
6.92899e-05
-4.72165e-05
8.4907e-05
-4.68188e-05
0.00010038
-4.6386e-05
0.000115462
-4.5211e-05
0.000130081
-4.38226e-05
0.000144035
-4.1825e-05
0.000157202
-3.94674e-05
0.000169409
-3.65884e-05
0.000180534
-3.33421e-05
0.000190438
-2.96777e-05
0.000198992
-2.56343e-05
0.000206104
-2.13102e-05
0.000211685
-1.67256e-05
0.000215644
-1.18669e-05
0.000217954
-6.90444e-06
0.00021857
-1.82548e-06
0.000217472
3.28013e-06
0.000214753
8.1857e-06
0.000210327
1.32809e-05
0.000204402
1.77537e-05
0.000196891
2.25081e-05
0.000188048
2.64993e-05
0.000177841
3.05864e-05
0.000166519
3.39229e-05
0.000154116
3.71679e-05
0.000140863
3.97168e-05
0.000126847
4.19986e-05
0.000112256
4.37362e-05
9.71995e-05
4.51505e-05
8.18532e-05
4.59603e-05
6.63141e-05
4.66037e-05
5.07697e-05
4.65976e-05
3.5281e-05
4.64383e-05
2.00036e-05
4.58057e-05
4.9665e-06
4.50875e-05
-9.70872e-06
4.39971e-05
-2.39288e-05
4.26422e-05
-3.76484e-05
4.11409e-05
-5.07972e-05
3.94301e-05
-6.33434e-05
3.76255e-05
-7.52339e-05
3.56627e-05
-8.64575e-05
3.36606e-05
-9.69714e-05
3.15352e-05
-0.000106782
2.94272e-05
-0.000115861
2.72341e-05
-0.000124229
2.51059e-05
-0.000131868
2.29161e-05
-0.000138811
2.08411e-05
-0.00014506
1.87423e-05
-0.000150657
1.6805e-05
-0.000155608
1.48569e-05
-0.000159967
1.30844e-05
-0.00016372
1.12755e-05
-0.000166967
9.75544e-06
-0.000169643
8.03563e-06
-0.000171787
6.4184e-06
-0.000173459
5.00848e-06
-0.000174585
3.40407e-06
-0.000175284
2.09128e-06
-0.000175433
4.60688e-07
-0.000175174
-7.8488e-07
-0.000174334
-2.50614e-06
-0.000173156
-3.54042e-06
-0.000171374
-5.34775e-06
-0.000169218
-6.47794e-06
-0.000166471
-8.22594e-06
-0.00016336
-9.34066e-06
-0.000159649
-1.11814e-05
-0.00015549
-1.24338e-05
-0.000150787
-1.40999e-05
-0.000145599
-1.55597e-05
-0.000139809
-1.73765e-05
-0.000133507
-1.8934e-05
-0.000126706
-2.0396e-05
-0.000119253
-2.23587e-05
-0.000111347
-2.37301e-05
-0.000102707
-2.59102e-05
-9.36621e-05
-2.71404e-05
-8.3872e-05
-2.93513e-05
-7.36572e-05
-3.0623e-05
-6.27666e-05
-3.26793e-05
-5.14885e-05
-3.38395e-05
-3.95266e-05
-3.58606e-05
-2.72747e-05
-3.67606e-05
-1.44149e-05
-3.85426e-05
-1.34186e-06
-3.92168e-05
1.21391e-05
-4.03978e-05
2.58604e-05
-4.11571e-05
3.97514e-05
-4.16498e-05
5.36332e-05
-4.16018e-05
6.75147e-05
-4.16038e-05
8.12634e-05
-4.1193e-05
9.46574e-05
-4.01497e-05
0.000107613
-3.88345e-05
0.00011995
-3.69784e-05
0.000131581
-3.48582e-05
0.000142361
-3.23026e-05
0.000152165
-2.93782e-05
0.000160866
-2.60751e-05
0.000168372
-2.24923e-05
0.000174566
-1.85629e-05
0.000179385
-1.44482e-05
0.00018277
-1.01325e-05
0.000184673
-5.71103e-06
0.000185078
-1.22629e-06
0.000183997
3.21011e-06
0.000181432
7.68693e-06
0.000177462
1.18921e-05
0.000172137
1.59545e-05
0.000165565
1.96911e-05
0.000157834
2.31624e-05
0.000149075
2.62366e-05
0.000139422
2.8919e-05
0.000128995
3.1238e-05
0.00011798
3.29991e-05
0.000106491
3.44402e-05
9.46807e-05
3.5376e-05
8.27083e-05
3.58831e-05
7.06841e-05
3.60413e-05
5.87608e-05
3.57371e-05
4.70295e-05
3.51703e-05
3.55909e-05
3.4295e-05
2.45144e-05
3.32125e-05
1.38908e-05
3.18494e-05
3.74097e-06
3.04379e-05
-5.89238e-06
2.88845e-05
-1.49935e-05
2.72794e-05
-2.35928e-05
2.57762e-05
-3.16694e-05
2.42358e-05
-3.92461e-05
2.27586e-05
-4.63168e-05
2.12353e-05
-5.29776e-05
1.99907e-05
-5.9201e-05
1.8704e-05
-6.50559e-05
1.75808e-05
-7.06144e-05
1.66879e-05
-7.58433e-05
1.56971e-05
-8.09084e-05
1.52158e-05
-8.57313e-05
1.44823e-05
-9.04572e-05
1.41652e-05
-9.50584e-05
1.38223e-05
-9.96486e-05
1.37723e-05
-0.000104034
1.31546e-05
-0.000108541
1.35206e-05
-0.000112771
1.26921e-05
-0.000117131
1.31025e-05
-0.000121419
1.28326e-05
-0.000125803
1.31003e-05
-0.000129765
1.19062e-05
-0.000133482
1.11157e-05
-0.000136981
1.04898e-05
-0.000139914
8.78621e-06
-0.000142548
7.87588e-06
-0.000144492
5.82027e-06
-0.000145964
4.37626e-06
-0.000146722
2.27339e-06
-0.000146853
3.95977e-07
-0.000146279
-1.73219e-06
-0.000144977
-3.88876e-06
-0.000142984
-5.9609e-06
-0.000140268
-8.11989e-06
-0.000136902
-1.00876e-05
-0.000132873
-1.20902e-05
-0.000128134
-1.42e-05
-0.000122808
-1.59801e-05
-0.000116823
-1.79655e-05
-0.000110066
-2.02817e-05
-0.000102821
-2.17884e-05
-9.47981e-05
-2.40523e-05
-8.63546e-05
-2.52798e-05
-7.70141e-05
-2.80365e-05
-6.71455e-05
-2.96801e-05
-5.64883e-05
-3.19876e-05
-4.53839e-05
-3.33427e-05
-3.37136e-05
-3.49239e-05
-2.16343e-05
-3.61943e-05
-9.05853e-06
-3.76555e-05
3.70171e-06
-3.82418e-05
1.67218e-05
-3.90213e-05
2.96705e-05
-3.88119e-05
4.27092e-05
-3.90385e-05
5.54615e-05
-3.81709e-05
6.78414e-05
-3.7075e-05
7.95655e-05
-3.50601e-05
9.03055e-05
-3.21206e-05
9.95191e-05
-2.71808e-05
0.000106789
-2.17814e-05
0.000109053
-6.33176e-06
0.000108175
5.18573e-06
9.68964e-05
5.88984e-05
6.06284e-05
8.37344e-05
-0.000174919
1.03352e-05
-0.00017698
8.24286e-06
-0.000178542
6.25051e-06
-0.000179621
4.31274e-06
-0.000180229
2.44514e-06
-0.000180375
6.11435e-07
-0.000180021
-1.39511e-06
-0.000179188
-3.32954e-06
-0.000177882
-5.22102e-06
-0.0001761
-7.1321e-06
-0.000173851
-8.9981e-06
-0.000171111
-1.09691e-05
-0.0001679
-1.28585e-05
-0.000164155
-1.4995e-05
-0.000159916
-1.69647e-05
-0.000155197
-1.88947e-05
-0.00014984
-2.14633e-05
-0.000143974
-2.34744e-05
-0.000137418
-2.62419e-05
-0.000130319
-2.84128e-05
-0.000122469
-3.14147e-05
-0.000114047
-3.37003e-05
-0.000104849
-3.67885e-05
-9.5061e-05
-3.91532e-05
-8.44897e-05
-4.22864e-05
-7.3336e-05
-4.4627e-05
-6.14031e-05
-4.76803e-05
-4.89228e-05
-4.98701e-05
-3.5722e-05
-5.28144e-05
-2.20517e-05
-5.46094e-05
-7.69464e-06
-5.73491e-05
7.02354e-06
-5.88708e-05
2.2311e-05
-6.10846e-05
3.79046e-05
-6.22957e-05
5.35261e-05
-6.24008e-05
6.92956e-05
-6.2986e-05
8.49338e-05
-6.2457e-05
0.000100429
-6.18809e-05
0.000115534
-6.03159e-05
0.000130175
-5.84642e-05
0.000144151
-5.58011e-05
0.000157341
-5.26567e-05
0.000169569
-4.88172e-05
0.000180713
-4.44859e-05
0.000190637
-3.96016e-05
0.000199208
-3.42056e-05
0.000206336
-2.84378e-05
0.00021193
-2.23202e-05
0.000215895
-1.58312e-05
0.000218212
-9.22197e-06
0.000218829
-2.44277e-06
0.000217733
4.37694e-06
0.00021503
1.08886e-05
0.000210597
1.77136e-05
0.000204656
2.36942e-05
0.000197129
3.00355e-05
0.000188271
3.53569e-05
0.000178042
4.08157e-05
0.000166694
4.52707e-05
0.000154268
4.95943e-05
0.00014099
5.29947e-05
0.000126944
5.6044e-05
0.00011233
5.8351e-05
9.72497e-05
6.02304e-05
8.1874e-05
6.1336e-05
6.6321e-05
6.21567e-05
5.07556e-05
6.2163e-05
3.52489e-05
6.19451e-05
1.99574e-05
6.10972e-05
4.90661e-06
6.01383e-05
-9.78543e-06
5.86892e-05
-2.4016e-05
5.68728e-05
-3.77453e-05
5.48703e-05
-5.0903e-05
5.25877e-05
-6.34563e-05
5.01789e-05
-7.53513e-05
4.75577e-05
-8.65806e-05
4.48899e-05
-9.70976e-05
4.20521e-05
-0.00010691
3.92397e-05
-0.000115989
3.63131e-05
-0.000124355
3.34714e-05
-0.000131994
3.05551e-05
-0.000138935
2.77827e-05
-0.000145181
2.49882e-05
-0.000150771
2.23954e-05
-0.000155718
1.98038e-05
-0.000160074
1.74403e-05
-0.000163819
1.50205e-05
-0.00016705
1.29858e-05
-0.000169728
1.07138e-05
-0.000171879
8.56959e-06
-0.000173552
6.68114e-06
-0.000174655
4.50696e-06
-0.000175358
2.79422e-06
-0.000175508
6.11468e-07
-0.000175257
-1.03603e-06
-0.00017443
-3.33376e-06
-0.000173236
-4.73423e-06
-0.000171456
-7.12772e-06
-0.000169305
-8.62852e-06
-0.000166554
-1.09772e-05
-0.000163433
-1.24617e-05
-0.000159746
-1.48687e-05
-0.000155576
-1.66036e-05
-0.000150873
-1.88031e-05
-0.000145692
-2.07408e-05
-0.000139898
-2.31696e-05
-0.000133609
-2.52239e-05
-0.000126802
-2.72024e-05
-0.000119347
-2.98137e-05
-0.000111446
-3.16312e-05
-0.000102806
-3.45507e-05
-9.37624e-05
-3.61837e-05
-8.39605e-05
-3.91533e-05
-7.37504e-05
-4.08331e-05
-6.28506e-05
-4.35791e-05
-5.15708e-05
-4.51194e-05
-3.95983e-05
-4.78331e-05
-2.7344e-05
-4.90149e-05
-1.44774e-05
-5.14093e-05
-1.39621e-06
-5.2298e-05
1.21238e-05
-5.39177e-05
2.58319e-05
-5.48652e-05
3.97378e-05
-5.55557e-05
5.36571e-05
-5.55211e-05
6.75549e-05
-5.55016e-05
8.13355e-05
-5.49737e-05
9.47437e-05
-5.35579e-05
0.00010772
-5.18106e-05
0.000120076
-4.9335e-05
0.000131732
-4.65139e-05
0.000142531
-4.31019e-05
0.000152357
-3.92034e-05
0.000161074
-3.47929e-05
0.000168596
-3.00142e-05
0.000174803
-2.47697e-05
0.000179633
-1.92785e-05
0.000183025
-1.35243e-05
0.000184922
-7.60795e-06
0.000185326
-1.63002e-06
0.000184233
4.3031e-06
0.000181662
1.02571e-05
0.000177682
1.58726e-05
0.000172344
2.12922e-05
0.000165756
2.62795e-05
0.000158002
3.09163e-05
0.000149223
3.50153e-05
0.000139543
3.85994e-05
0.000129097
4.16834e-05
0.000118051
4.4045e-05
0.000106543
4.59484e-05
9.47048e-05
4.72142e-05
8.27103e-05
4.78776e-05
7.06719e-05
4.80797e-05
5.87264e-05
4.76827e-05
4.69777e-05
4.6919e-05
3.55212e-05
4.57514e-05
2.44404e-05
4.42933e-05
1.38037e-05
4.24862e-05
3.65036e-06
4.05912e-05
-5.99115e-06
3.8526e-05
-1.51012e-05
3.63895e-05
-2.37069e-05
3.43819e-05
-3.17845e-05
3.23134e-05
-3.93478e-05
3.03219e-05
-4.64057e-05
2.82931e-05
-5.3062e-05
2.6647e-05
-5.92673e-05
2.49093e-05
-6.51143e-05
2.34278e-05
-7.06624e-05
2.2236e-05
-7.58907e-05
2.09253e-05
-8.09421e-05
2.02672e-05
-8.57514e-05
1.92916e-05
-9.04888e-05
1.89026e-05
-9.50758e-05
1.84093e-05
-9.96584e-05
1.8355e-05
-0.000104057
1.75537e-05
-0.000108552
1.80149e-05
-0.000112783
1.6923e-05
-0.000117145
1.74644e-05
-0.000121429
1.7117e-05
-0.000125856
1.75274e-05
-0.0001298
1.58502e-05
-0.000133539
1.48543e-05
-0.000137046
1.3997e-05
-0.000139986
1.17266e-05
-0.000142645
1.05345e-05
-0.000144587
7.76243e-06
-0.000146082
5.87132e-06
-0.000146838
3.02982e-06
-0.00014697
5.28019e-07
-0.0001464
-2.30291e-06
-0.000145088
-5.20039e-06
-0.0001431
-7.9491e-06
-0.000140372
-1.08482e-05
-0.000136999
-1.34599e-05
-0.00013297
-1.61196e-05
-0.000128217
-1.89534e-05
-0.000122904
-2.12931e-05
-0.00011692
-2.39492e-05
-0.000110169
-2.7033e-05
-0.00010295
-2.90073e-05
-9.49219e-05
-3.20802e-05
-8.64325e-05
-3.37692e-05
-7.70876e-05
-3.73814e-05
-6.72597e-05
-3.9508e-05
-5.6625e-05
-4.26223e-05
-4.55455e-05
-4.44223e-05
-3.38054e-05
-4.6664e-05
-2.16996e-05
-4.83e-05
-9.10821e-06
-5.02469e-05
3.66419e-06
-5.10142e-05
1.67055e-05
-5.20625e-05
2.97011e-05
-5.18075e-05
4.27731e-05
-5.21106e-05
5.55488e-05
-5.09466e-05
6.7974e-05
-4.95002e-05
7.97496e-05
-4.68357e-05
9.05886e-05
-4.29596e-05
9.99034e-05
-3.64957e-05
0.000107316
-2.91939e-05
0.000110477
-9.4931e-06
0.000110168
5.49483e-06
0.000102574
6.6493e-05
7.26643e-05
9.05377e-05
-0.000175036
1.29151e-05
-0.000177095
1.03019e-05
-0.000178656
7.81093e-06
-0.000179731
5.38799e-06
-0.000180336
3.05006e-06
-0.00018048
7.55704e-07
-0.000180125
-1.75048e-06
-0.00017929
-4.16388e-06
-0.000177984
-6.5275e-06
-0.000176204
-8.91239e-06
-0.000173956
-1.12454e-05
-0.000171218
-1.37077e-05
-0.000168011
-1.60655e-05
-0.000164269
-1.87364e-05
-0.000160031
-2.12033e-05
-0.000155321
-2.36048e-05
-0.000149973
-2.68108e-05
-0.00014411
-2.93377e-05
-0.000137558
-3.27939e-05
-0.000130465
-3.55057e-05
-0.000122619
-3.92606e-05
-0.000114201
-4.21188e-05
-0.000105002
-4.59875e-05
-9.52132e-05
-4.89416e-05
-8.46362e-05
-5.28634e-05
-7.34871e-05
-5.57761e-05
-6.15396e-05
-5.96279e-05
-4.90589e-05
-6.23508e-05
-3.58512e-05
-6.60221e-05
-2.21566e-05
-6.83041e-05
-7.78218e-06
-7.17235e-05
6.93634e-06
-7.35893e-05
2.22444e-05
-7.63926e-05
3.78628e-05
-7.79141e-05
5.35099e-05
-7.8048e-05
6.93083e-05
-7.87844e-05
8.49764e-05
-7.81252e-05
0.000100503
-7.74077e-05
0.000115641
-7.54535e-05
0.000130315
-7.31387e-05
0.000144324
-6.981e-05
0.000157546
-6.58784e-05
0.000169804
-6.10751e-05
0.000180975
-5.56569e-05
0.000190924
-4.95507e-05
0.000199524
-4.28057e-05
0.000206673
-3.55872e-05
0.000212285
-2.79318e-05
0.000216266
-1.98126e-05
0.000218585
-1.15408e-05
0.000219201
-3.0586e-06
0.000218106
5.47199e-06
0.000215408
1.35869e-05
0.000210964
2.21574e-05
0.000204997
2.96613e-05
0.000197448
3.7584e-05
0.000188575
4.42303e-05
0.000178316
5.10747e-05
0.000166929
5.66576e-05
0.000154471
6.20521e-05
0.000141162
6.63036e-05
0.000127076
7.01299e-05
0.000112429
7.29987e-05
9.73179e-05
7.53413e-05
8.19059e-05
7.67479e-05
6.63301e-05
7.77325e-05
5.07366e-05
7.77565e-05
3.51805e-05
7.75012e-05
1.98956e-05
7.6382e-05
4.82716e-06
7.52068e-05
-9.88688e-06
7.34032e-05
-2.41305e-05
7.11163e-05
-3.7872e-05
6.86119e-05
-5.10408e-05
6.57566e-05
-6.36032e-05
6.27412e-05
-7.55045e-05
5.94591e-05
-8.67397e-05
5.61252e-05
-9.72602e-05
5.25726e-05
-0.000107074
4.9054e-05
-0.000116153
4.5392e-05
-0.000124517
4.1835e-05
-0.000132154
3.8192e-05
-0.000139092
3.47205e-05
-0.000145334
3.12309e-05
-0.000150924
2.79845e-05
-0.000155858
2.47384e-05
-0.000160207
2.17893e-05
-0.000163949
1.87625e-05
-0.000167172
1.62088e-05
-0.000169847
1.33889e-05
-0.000171998
1.07205e-05
-0.000173668
8.35098e-06
-0.000174762
5.60145e-06
-0.000175465
3.49722e-06
-0.000175594
7.39724e-07
-0.000175367
-1.26273e-06
-0.000174542
-4.15866e-06
-0.00017334
-5.93577e-06
-0.000171563
-8.90532e-06
-0.000169418
-1.07738e-05
-0.00016668
-1.37144e-05
-0.000163539
-1.56031e-05
-0.000159865
-1.85424e-05
-0.000155705
-2.07637e-05
-0.000151001
-2.35074e-05
-0.000145817
-2.59248e-05
-0.000140023
-2.89634e-05
-0.000133742
-3.15051e-05
-0.000126933
-3.40118e-05
-0.000119477
-3.72691e-05
-0.000111578
-3.953e-05
-0.000102947
-4.31822e-05
-9.38964e-05
-4.52344e-05
-8.40865e-05
-4.89632e-05
-7.38754e-05
-5.10442e-05
-6.29624e-05
-5.44921e-05
-5.16809e-05
-5.64009e-05
-3.97056e-05
-5.98084e-05
-2.74341e-05
-6.12864e-05
-1.45684e-05
-6.4275e-05
-1.46272e-06
-6.54037e-05
1.20967e-05
-6.74772e-05
2.57807e-05
-6.85493e-05
3.97289e-05
-6.95039e-05
5.36786e-05
-6.94708e-05
6.75891e-05
-6.94122e-05
8.14017e-05
-6.87863e-05
9.48397e-05
-6.69958e-05
0.000107849
-6.48202e-05
0.000120235
-6.17206e-05
0.000131925
-5.82041e-05
0.000142747
-5.3924e-05
0.000152603
-4.90597e-05
0.000161344
-4.35338e-05
0.000168887
-3.7557e-05
0.000175114
-3.09964e-05
0.000179961
-2.41251e-05
0.000183356
-1.69194e-05
0.00018526
-9.51223e-06
0.000185655
-2.02506e-06
0.000184553
5.40466e-06
0.000181978
1.28329e-05
0.000177978
1.98717e-05
0.000172623
2.66474e-05
0.000166013
3.28895e-05
0.00015823
3.87e-05
0.00014942
4.38244e-05
0.000139706
4.83142e-05
0.00012924
5.21488e-05
0.000118147
5.51387e-05
0.000106605
5.74895e-05
9.47404e-05
5.90792e-05
8.27149e-05
5.99031e-05
7.06529e-05
6.01417e-05
5.86801e-05
5.96555e-05
4.69086e-05
5.86904e-05
3.5433e-05
5.7227e-05
2.43446e-05
5.53817e-05
1.36895e-05
5.31413e-05
3.53216e-06
5.07486e-05
-6.11628e-06
4.81745e-05
-1.52326e-05
4.55057e-05
-2.38336e-05
4.29829e-05
-3.1909e-05
4.03888e-05
-3.94667e-05
3.78795e-05
-4.65139e-05
3.53403e-05
-5.31615e-05
3.32947e-05
-5.9353e-05
3.11007e-05
-6.51886e-05
2.92635e-05
-7.07181e-05
2.77654e-05
-7.59513e-05
2.61586e-05
-8.09849e-05
2.53008e-05
-8.57835e-05
2.40902e-05
-9.05249e-05
2.3644e-05
-9.5089e-05
2.29735e-05
-9.96599e-05
2.29258e-05
-0.000104079
2.19731e-05
-0.000108554
2.24892e-05
-0.000112792
2.11612e-05
-0.000117165
2.18377e-05
-0.000121461
2.14124e-05
-0.000125898
2.19653e-05
-0.000129855
1.98066e-05
-0.000133615
1.86143e-05
-0.00013712
1.75024e-05
-0.000140087
1.46936e-05
-0.00014277
1.32169e-05
-0.000144714
9.70683e-06
-0.000146232
7.38934e-06
-0.000146992
3.78984e-06
-0.000147128
6.64013e-07
-0.000146561
-2.8696e-06
-0.000145243
-6.51889e-06
-0.000143262
-9.92986e-06
-0.000140547
-1.35636e-05
-0.000137147
-1.68601e-05
-0.000133097
-2.01693e-05
-0.00012835
-2.37e-05
-0.000123085
-2.65584e-05
-0.000117062
-2.99723e-05
-0.00011031
-3.37849e-05
-0.000103117
-3.62008e-05
-9.50977e-05
-4.0099e-05
-8.65504e-05
-4.23165e-05
-7.72133e-05
-4.67186e-05
-6.73947e-05
-4.93266e-05
-5.678e-05
-5.3237e-05
-4.57043e-05
-5.54979e-05
-3.39023e-05
-5.8466e-05
-2.17803e-05
-6.0422e-05
-9.18037e-06
-6.28469e-05
3.60363e-06
-6.37982e-05
1.66927e-05
-6.51516e-05
2.97465e-05
-6.48612e-05
4.28332e-05
-6.51973e-05
5.56186e-05
-6.37321e-05
6.81284e-05
-6.201e-05
7.99597e-05
-5.86669e-05
9.09232e-05
-5.39231e-05
0.000100509
-4.60814e-05
0.000108118
-3.68035e-05
0.000112195
-1.35695e-05
0.000112451
5.2383e-06
0.00010746
7.14847e-05
8.19043e-05
9.82196e-05
-0.000175182
1.54897e-05
-0.000177236
1.23556e-05
-0.000178792
9.36724e-06
-0.000179863
6.45837e-06
-0.000180465
3.65274e-06
-0.000180609
8.99463e-07
-0.000180254
-2.10606e-06
-0.000179419
-4.99888e-06
-0.000178113
-7.83308e-06
-0.000176333
-1.06924e-05
-0.000174088
-1.34901e-05
-0.000171351
-1.64449e-05
-0.000168149
-1.92674e-05
-0.000164413
-2.24732e-05
-0.000160182
-2.54343e-05
-0.000155478
-2.83083e-05
-0.000150138
-3.21515e-05
-0.000144279
-3.51957e-05
-0.000137729
-3.93446e-05
-0.000130645
-4.25896e-05
-0.000122806
-4.70992e-05
-0.000114392
-5.0533e-05
-0.000105192
-5.51876e-05
-9.54034e-05
-5.87301e-05
-8.48247e-05
-6.34421e-05
-7.36722e-05
-6.69286e-05
-6.17027e-05
-7.15975e-05
-4.9228e-05
-7.48255e-05
-3.60112e-05
-7.92388e-05
-2.22926e-05
-8.20227e-05
-7.91396e-06
-8.61021e-05
6.82624e-06
-8.83295e-05
2.2161e-05
-9.17274e-05
3.7811e-05
-9.35641e-05
5.34906e-05
-9.37276e-05
6.93259e-05
-9.46197e-05
8.50318e-05
-9.38311e-05
0.000100599
-9.29753e-05
0.000115779
-9.06327e-05
0.000130496
-8.78558e-05
0.000144546
-8.38608e-05
0.00015781
-7.9142e-05
0.000170107
-7.33718e-05
0.000181316
-6.68666e-05
0.0001913