/*--------------------------------*- C++ -*----------------------------------*\
| =========                 |                                                 |
| \\      /  F ield         | OpenFOAM: The Open Source CFD Toolbox           |
|  \\    /   O peration     | Version:  3.0.1                                 |
|   \\  /    A nd           | Web:      www.OpenFOAM.org                      |
|    \\/     M anipulation  |                                                 |
\*---------------------------------------------------------------------------*/
FoamFile
{
    version     2.0;
    format      ascii;
    class       surfaceScalarField;
    location    "90";
    object      alphaPhi;
}
// * * * * * * * * * * * * * * * * * * * * * * * * * * * * * * * * * * * * * //

dimensions      [0 3 -1 0 0 0 0];

internalField   nonuniform List<scalar> 
42423
(
0.000175254
1.40335e-05
0.000162103
1.31505e-05
0.000149804
1.22991e-05
0.000138353
1.1451e-05
0.000127817
1.05363e-05
0.000118161
9.65614e-06
0.000109428
8.73322e-06
0.000101603
7.82444e-06
9.46943e-05
6.90902e-06
8.87243e-05
5.97003e-06
8.36785e-05
5.04579e-06
7.95507e-05
4.12773e-06
7.63157e-05
3.23504e-06
7.3929e-05
2.38672e-06
7.2343e-05
1.58594e-06
7.14955e-05
8.47486e-07
7.13196e-05
1.75963e-07
7.17706e-05
-4.51078e-07
7.27861e-05
-1.0154e-06
7.41947e-05
-1.40861e-06
7.60139e-05
-1.8192e-06
7.82196e-05
-2.20571e-06
8.06127e-05
-2.3931e-06
8.32716e-05
-2.65895e-06
8.61166e-05
-2.84501e-06
8.92234e-05
-3.10675e-06
9.26205e-05
-3.39715e-06
9.61214e-05
-3.50088e-06
9.99294e-05
-3.80802e-06
0.000104155
-4.22573e-06
0.000108581
-4.42589e-06
0.000113494
-4.9132e-06
0.000118821
-5.32705e-06
0.000124759
-5.93811e-06
0.000131398
-6.6386e-06
0.000138495
-7.09684e-06
0.000146279
-7.78387e-06
0.000154922
-8.64335e-06
0.00016411
-9.18819e-06
0.000174051
-9.941e-06
0.000184718
-1.06671e-05
0.000196124
-1.1406e-05
0.000208398
-1.22734e-05
0.000221161
-1.27635e-05
0.000234543
-1.33819e-05
0.000248717
-1.41741e-05
0.000263254
-1.45365e-05
0.000278162
-1.49085e-05
0.000293646
-1.54843e-05
0.000309248
-1.5602e-05
0.000325017
-1.57691e-05
0.000340758
-1.57408e-05
0.000356291
-1.55326e-05
0.00037153
-1.5239e-05
0.00038616
-1.46305e-05
0.000399934
-1.37744e-05
0.000412728
-1.27934e-05
0.000424267
-1.15399e-05
0.000434378
-1.01105e-05
0.000442848
-8.47022e-06
0.000449505
-6.65681e-06
0.00045435
-4.84471e-06
0.000457298
-2.94821e-06
0.000458381
-1.08318e-06
0.000457657
7.23419e-07
0.000455066
2.59169e-06
0.000450688
4.37758e-06
0.000444439
6.24919e-06
0.00043646
7.97836e-06
0.000426634
9.82647e-06
0.000414487
1.21469e-05
0.000399629
1.48576e-05
0.000381768
1.78608e-05
0.000361302
2.04664e-05
0.000338667
2.26349e-05
0.00031493
2.37372e-05
0.000290723
2.42066e-05
0.000266948
2.37753e-05
0.000244459
2.24894e-05
0.000223864
2.05952e-05
0.000205311
1.85529e-05
0.000188454
1.68567e-05
0.000173508
1.49462e-05
0.000160067
1.34406e-05
0.000147843
1.22241e-05
0.000136641
1.12018e-05
0.00012637
1.02719e-05
0.000116917
9.45237e-06
0.00010829
8.62725e-06
0.000100549
7.74061e-06
9.3679e-05
6.87041e-06
8.76872e-05
5.99178e-06
8.24718e-05
5.21541e-06
7.79353e-05
4.53653e-06
7.39731e-05
3.96215e-06
7.0423e-05
3.55015e-06
6.71687e-05
3.25436e-06
6.42702e-05
2.89849e-06
6.16346e-05
2.63557e-06
5.92571e-05
2.37753e-06
5.71775e-05
2.07963e-06
5.54373e-05
1.74019e-06
5.40788e-05
1.35857e-06
5.31283e-05
9.50463e-07
5.25578e-05
5.70578e-07
5.23995e-05
1.58315e-07
5.26391e-05
-2.39664e-07
5.32204e-05
-5.81198e-07
5.4192e-05
-9.71643e-07
5.54985e-05
-1.30649e-06
5.71022e-05
-1.60366e-06
5.90637e-05
-1.96147e-06
6.13502e-05
-2.28651e-06
6.39517e-05
-2.60153e-06
6.69091e-05
-2.9573e-06
7.02309e-05
-3.32185e-06
7.39279e-05
-3.697e-06
7.8012e-05
-4.0841e-06
8.25323e-05
-4.52029e-06
8.75314e-05
-4.99905e-06
9.3041e-05
-5.50963e-06
9.90645e-05
-6.02352e-06
0.000105648
-6.58317e-06
0.000112828
-7.17993e-06
0.000120624
-7.79673e-06
0.000129046
-8.42212e-06
0.00013815
-9.10366e-06
0.00014798
-9.83011e-06
0.000158528
-1.0548e-05
0.000169851
-1.13228e-05
0.000181948
-1.20967e-05
0.000194776
-1.28279e-05
0.000208342
-1.35662e-05
0.000222559
-1.42176e-05
0.000237277
-1.47175e-05
0.000252438
-1.51609e-05
0.000267873
-1.54359e-05
0.000283378
-1.55043e-05
0.00029886
-1.54826e-05
0.000314092
-1.52319e-05
0.000328834
-1.47417e-05
0.000342955
-1.41212e-05
0.00035623
-1.32755e-05
0.000368443
-1.22122e-05
0.000379431
-1.0988e-05
0.000388949
-9.51836e-06
0.000396853
-7.90376e-06
0.000403029
-6.17564e-06
0.000407337
-4.30849e-06
0.00040967
-2.33238e-06
0.00040998
-3.10413e-07
0.000408246
1.73397e-06
0.000404296
3.95069e-06
0.000398248
6.04767e-06
0.000390174
8.07427e-06
0.000380174
1e-05
0.000368427
1.17474e-05
0.000355104
1.33233e-05
0.000340436
1.46689e-05
0.000324663
1.57728e-05
0.000308043
1.662e-05
0.00029084
1.72036e-05
0.000273279
1.7561e-05
0.000255578
1.77009e-05
0.000238013
1.75659e-05
0.000220708
1.73051e-05
0.000203904
1.68037e-05
0.000187699
1.62052e-05
0.000172221
1.54781e-05
0.000157539
1.46825e-05
0.000143681
1.38573e-05
0.000130697
1.29841e-05
0.000118581
1.21166e-05
0.000107375
1.12057e-05
9.69976e-05
1.03778e-05
8.74904e-05
9.50724e-06
7.87804e-05
8.71001e-06
7.09074e-05
7.87303e-06
6.37874e-05
7.12003e-06
5.73754e-05
6.412e-06
5.1712e-05
5.66343e-06
4.67448e-05
4.96726e-06
4.24467e-05
4.29812e-06
3.88501e-05
3.59657e-06
3.58709e-05
2.97919e-06
3.35509e-05
2.32007e-06
3.1886e-05
1.66487e-06
3.08894e-05
9.96583e-07
3.05287e-05
3.607e-07
3.07517e-05
-2.23009e-07
3.15894e-05
-8.37723e-07
3.3005e-05
-1.41553e-06
3.49863e-05
-1.98129e-06
3.75737e-05
-2.58743e-06
4.07115e-05
-3.13778e-06
4.44773e-05
-3.76586e-06
4.88318e-05
-4.35445e-06
5.37638e-05
-4.93201e-06
5.92425e-05
-5.47875e-06
6.5204e-05
-5.9615e-06
7.16222e-05
-6.41821e-06
7.84557e-05
-6.83346e-06
8.56904e-05
-7.2347e-06
9.32923e-05
-7.60188e-06
0.000101255
-7.96266e-06
0.000109578
-8.32302e-06
0.000118272
-8.69444e-06
0.000127352
-9.07935e-06
0.000136819
-9.46724e-06
0.000146799
-9.98026e-06
0.000157283
-1.04839e-05
0.000168284
-1.10009e-05
0.000180078
-1.1794e-05
0.000192506
-1.24277e-05
0.000205593
-1.30871e-05
0.000219471
-1.38778e-05
0.000233937
-1.4466e-05
0.000248983
-1.50467e-05
0.000264499
-1.55154e-05
0.000280331
-1.58327e-05
0.000296366
-1.60344e-05
0.000312443
-1.60772e-05
0.000328347
-1.59044e-05
0.000343888
-1.55408e-05
0.000358926
-1.50377e-05
0.0003732
-1.42743e-05
0.000386524
-1.33242e-05
0.000398647
-1.21229e-05
0.00040934
-1.06929e-05
0.000418454
-9.1139e-06
0.000425713
-7.25957e-06
0.000430916
-5.20215e-06
0.000433932
-3.0166e-06
0.000434647
-7.1489e-07
0.000433096
1.55119e-06
0.00042904
4.05568e-06
0.000422702
6.33816e-06
0.000414211
8.49113e-06
0.000403711
1.05001e-05
0.000391502
1.22093e-05
0.000377719
1.37834e-05
0.00036268
1.50383e-05
0.00034659
1.60899e-05
0.000329765
1.68253e-05
0.00031248
1.72849e-05
0.00029489
1.75903e-05
0.000277383
1.75068e-05
0.000260149
1.72335e-05
0.00024334
1.6809e-05
0.000227303
1.60368e-05
0.000212087
1.52164e-05
0.000197907
1.41804e-05
0.000184914
1.29923e-05
0.000173194
1.17207e-05
0.000162812
1.03815e-05
0.000153679
9.13337e-06
0.000145793
7.88547e-06
0.000139046
6.74697e-06
0.000133202
5.84358e-06
0.000128262
4.94024e-06
0.000124158
4.10397e-06
0.000120711
3.44731e-06
0.00011778
2.93103e-06
0.000115265
2.51483e-06
0.000112972
2.29232e-06
0.000110774
2.19791e-06
0.000108743
2.03125e-06
0.000106781
1.96205e-06
0.000104837
1.94425e-06
0.000103022
1.81418e-06
0.000101267
1.75503e-06
9.96915e-05
1.57554e-06
9.82143e-05
1.47699e-06
9.69105e-05
1.30366e-06
9.59084e-05
1.00186e-06
9.51794e-05
7.28747e-07
9.4701e-05
4.78122e-07
9.46916e-05
9.06727e-09
9.49723e-05
-2.81079e-07
9.56437e-05
-6.71714e-07
9.69356e-05
-1.29228e-06
9.89995e-05
-2.06426e-06
0.000101736
-2.73673e-06
0.000105238
-3.5026e-06
0.000109284
-4.04633e-06
0.000113904
-4.61997e-06
0.000119029
-5.12602e-06
0.000124497
-5.46805e-06
0.000130393
-5.89637e-06
0.00013658
-6.18738e-06
0.000143011
-6.43144e-06
0.000149817
-6.80568e-06
0.000156999
-7.18258e-06
0.000164625
-7.62634e-06
0.000172848
-8.22253e-06
0.000181766
-8.91835e-06
0.000191534
-9.76873e-06
0.000202177
-1.06428e-05
0.000213911
-1.17341e-05
0.000226666
-1.27557e-05
0.000240564
-1.38982e-05
0.000255519
-1.49542e-05
0.000271309
-1.57905e-05
0.000287963
-1.66543e-05
0.000305218
-1.7255e-05
0.000322683
-1.74659e-05
0.000340283
-1.75993e-05
0.00035753
-1.72472e-05
0.000374197
-1.66676e-05
0.000389979
-1.57822e-05
0.000404433
-1.44543e-05
0.000417436
-1.30027e-05
0.000428773
-1.13373e-05
0.000438125
-9.35197e-06
0.000445416
-7.29115e-06
0.000450499
-5.08341e-06
0.00045324
-2.74153e-06
0.000453622
-3.81691e-07
0.000451479
2.14252e-06
0.000447091
4.38758e-06
0.000440821
6.27025e-06
0.000432462
8.35902e-06
0.000422454
1.00075e-05
0.000410847
1.16073e-05
0.00039799
1.28565e-05
0.000384141
1.38489e-05
0.000369259
1.48823e-05
0.000353807
1.54521e-05
0.000338014
1.57921e-05
0.000321908
1.6106e-05
0.000305869
1.60392e-05
0.00029004
1.58293e-05
0.000274466
1.55736e-05
0.00025941
1.5056e-05
0.000244898
1.45119e-05
0.000231069
1.38287e-05
0.000217924
1.31455e-05
0.00020545
1.24737e-05
0.000193717
1.1733e-05
0.000182678
1.10386e-05
0.00017229
1.03885e-05
0.000162554
9.73596e-06
0.000153398
9.15538e-06
0.000144804
8.5945e-06
0.00013671
8.09372e-06
0.000129075
7.63505e-06
0.000121885
7.18989e-06
0.000115114
6.77094e-06
0.000108738
6.3757e-06
0.000102777
5.96174e-06
9.72156e-05
5.561e-06
9.20757e-05
5.13988e-06
8.73911e-05
4.68454e-06
8.31741e-05
4.21706e-06
7.94484e-05
3.72565e-06
7.62479e-05
3.20048e-06
2.68379e-06
0.000175221
2.80672e-05
0.00016207
2.63011e-05
0.000149771
2.45984e-05
0.00013832
2.29024e-05
0.000127782
2.10735e-05
0.000118125
1.93133e-05
0.000109392
1.74668e-05
0.000101567
1.5649e-05
9.46584e-05
1.38177e-05
8.86878e-05
1.19406e-05
8.36426e-05
1.00911e-05
7.95139e-05
8.25636e-06
7.62773e-05
6.47169e-06
7.38941e-05
4.76989e-06
7.2309e-05
3.17103e-06
7.14619e-05
1.69457e-06
7.12872e-05
3.50681e-07
7.17417e-05
-9.05635e-07
7.27602e-05
-2.03386e-06
7.4174e-05
-2.8224e-06
7.59958e-05
-3.64098e-06
7.82009e-05
-4.41084e-06
8.05918e-05
-4.78405e-06
8.32502e-05
-5.31733e-06
8.60964e-05
-5.69124e-06
8.92005e-05
-6.21083e-06
9.25916e-05
-6.78825e-06
9.60899e-05
-6.99925e-06
9.9896e-05
-7.61411e-06
0.000104114
-8.44359e-06
0.000108536
-8.84772e-06
0.000113452
-9.82988e-06
0.000118771
-1.06461e-05
0.000124709
-1.18753e-05
0.000131334
-1.32642e-05
0.000138428
-1.41906e-05
0.000146222
-1.55781e-05
0.000154861
-1.7282e-05
0.000164046
-1.83738e-05
0.000173987
-1.98821e-05
0.00018464
-2.132e-05
0.000196045
-2.28106e-05
0.000208344
-2.45732e-05
0.000221115
-2.55341e-05
0.000234498
-2.67651e-05
0.000248672
-2.83485e-05
0.000263192
-2.90566e-05
0.000278114
-2.98298e-05
0.000293628
-3.09988e-05
0.00030924
-3.12139e-05
0.000325015
-3.15447e-05
0.000340768
-3.14935e-05
0.000356302
-3.10663e-05
0.000371554
-3.04912e-05
0.00038621
-2.92866e-05
0.000399996
-2.75606e-05
0.000412811
-2.56083e-05
0.000424363
-2.30924e-05
0.000434486
-2.0234e-05
0.000442976
-1.69605e-05
0.00044966
-1.33409e-05
0.000454508
-9.69248e-06
0.000457445
-5.88513e-06
0.000458521
-2.15908e-06
0.000457776
1.46803e-06
0.000455165
5.20243e-06
0.000450782
8.76028e-06
0.000444524
1.2507e-05
0.000436527
1.59761e-05
0.000426685
1.96682e-05
0.000414541
2.42911e-05
0.000399715
2.96829e-05
0.000381887
3.56888e-05
0.000361439
4.09149e-05
0.000338809
4.52647e-05
0.00031508
4.74657e-05
0.00029088
4.84065e-05
0.000267113
4.7543e-05
0.000244633
4.49694e-05
0.000224052
4.11756e-05
0.000205516
3.70892e-05
0.000188673
3.37001e-05
0.000173739
2.98797e-05
0.000160314
2.68658e-05
0.000148108
2.44304e-05
0.000136917
2.23931e-05
0.000126642
2.05469e-05
0.000117184
1.89106e-05
0.000108558
1.72533e-05
0.000100815
1.5483e-05
9.39424e-05
1.37433e-05
8.79475e-05
1.19867e-05
8.27377e-05
1.04252e-05
7.8217e-05
9.05726e-06
7.42552e-05
7.92402e-06
7.06948e-05
7.11049e-06
6.74422e-05
6.50703e-06
6.45473e-05
5.7934e-06
6.19044e-05
5.27852e-06
5.95221e-05
4.75982e-06
5.74416e-05
4.16019e-06
5.57062e-05
3.47561e-06
5.43487e-05
2.71611e-06
5.33983e-05
1.90086e-06
5.28289e-05
1.14001e-06
5.2661e-05
3.26222e-07
5.28933e-05
-4.71921e-07
5.34802e-05
-1.16816e-06
5.44565e-05
-1.94792e-06
5.57626e-05
-2.61253e-06
5.73599e-05
-3.20088e-06
5.93168e-05
-3.91836e-06
6.16033e-05
-4.57305e-06
6.42031e-05
-5.20124e-06
6.71571e-05
-5.91134e-06
7.04738e-05
-6.63854e-06
7.41684e-05
-7.3915e-06
7.82508e-05
-8.1665e-06
8.27653e-05
-9.03476e-06
8.77639e-05
-9.99768e-06
9.32689e-05
-1.10146e-05
9.92978e-05
-1.20525e-05
0.000105883
-1.31684e-05
0.000113055
-1.43518e-05
0.000120848
-1.55902e-05
0.000129269
-1.68426e-05
0.000138373
-1.82079e-05
0.000148206
-1.96636e-05
0.000158746
-2.10876e-05
0.000170067
-2.26444e-05
0.000182168
-2.41972e-05
0.000194997
-2.56572e-05
0.000208567
-2.71363e-05
0.000222793
-2.84435e-05
0.000237515
-2.94397e-05
0.000252677
-3.03231e-05
0.000268127
-3.08857e-05
0.00028364
-3.10178e-05
0.000299132
-3.09745e-05
0.000314372
-3.04718e-05
0.000329131
-2.95007e-05
0.000343259
-2.82492e-05
0.000356545
-2.65615e-05
0.000368771
-2.4439e-05
0.000379763
-2.19793e-05
0.000389289
-1.90452e-05
0.000397191
-1.58057e-05
0.000403374
-1.23588e-05
0.00040768
-8.61352e-06
0.000410013
-4.66585e-06
0.000410323
-6.20342e-07
0.000408579
3.47795e-06
0.000404631
7.89855e-06
0.000398585
1.20939e-05
0.000390507
1.61525e-05
0.000380497
2.00107e-05
0.00036874
2.35041e-05
0.000355412
2.66514e-05
0.000340737
2.93442e-05
0.000324963
3.1547e-05
0.000308338
3.32454e-05
0.00029112
3.44217e-05
0.000273544
3.51369e-05
0.00025584
3.54059e-05
0.000238257
3.51487e-05
0.000220952
3.46106e-05
0.000204147
3.36088e-05
0.000187932
3.24198e-05
0.000172459
3.09515e-05
0.000157772
2.93699e-05
0.000143903
2.77259e-05
0.000130915
2.5972e-05
0.000118806
2.42257e-05
0.000107595
2.24174e-05
9.72155e-05
2.07572e-05
8.77078e-05
1.9015e-05
7.89934e-05
1.74245e-05
7.11247e-05
1.57417e-05
6.39956e-05
1.42492e-05
5.75632e-05
1.28445e-05
5.18866e-05
1.134e-05
4.6904e-05
9.94989e-06
4.25881e-05
8.61398e-06
3.89778e-05
7.20693e-06
3.59834e-05
5.97355e-06
3.36423e-05
4.66116e-06
3.1965e-05
3.3422e-06
3.09486e-05
2.0129e-06
3.05679e-05
7.41447e-07
3.07734e-05
-4.28514e-07
3.15965e-05
-1.66081e-06
3.29908e-05
-2.80987e-06
3.49531e-05
-3.94356e-06
3.75197e-05
-5.15402e-06
4.06394e-05
-6.25752e-06
4.43933e-05
-7.51976e-06
4.87324e-05
-8.69355e-06
5.3653e-05
-9.85254e-06
5.91127e-05
-1.09384e-05
6.5059e-05
-1.19077e-05
7.14701e-05
-1.28294e-05
7.82827e-05
-1.3646e-05
8.54914e-05
-1.44434e-05
9.30816e-05
-1.51921e-05
0.000101036
-1.59171e-05
0.000109347
-1.66339e-05
0.000118034
-1.7381e-05
0.000127101
-1.81465e-05
0.000136556
-1.89225e-05
0.000146527
-1.99512e-05
0.000157005
-2.09617e-05
0.000168016
-2.20122e-05
0.000179803
-2.35807e-05
0.00019222
-2.48449e-05
0.000205306
-2.61729e-05
0.000219193
-2.7765e-05
0.000233674
-2.89468e-05
0.000248735
-3.01076e-05
0.000264256
-3.10357e-05
0.000280101
-3.16786e-05
0.000296155
-3.2088e-05
0.000312252
-3.21742e-05
0.000328178
-3.18304e-05
0.00034374
-3.11023e-05
0.000358795
-3.00931e-05
0.00037309
-2.85691e-05
0.000386432
-2.66666e-05
0.000398576
-2.42661e-05
0.000409286
-2.14033e-05
0.000418424
-1.82516e-05
0.000425698
-1.45332e-05
0.000430916
-1.04206e-05
0.000433948
-6.04866e-06
0.000434669
-1.43612e-06
0.000433102
3.1182e-06
0.000429057
8.10104e-06
0.000422718
1.26773e-05
0.000414206
1.70029e-05
0.0004037
2.10059e-05
0.000391478
2.44322e-05
0.000377679
2.75822e-05
0.000362643
3.00746e-05
0.000346542
3.21905e-05
0.000329695
3.3672e-05
0.000312382
3.45986e-05
0.000294778
3.51938e-05
0.000277269
3.50162e-05
0.000260016
3.44866e-05
0.0002432
3.36247e-05
0.000227136
3.21009e-05
0.000211904
3.04477e-05
0.000197728
2.83572e-05
0.000184717
2.60025e-05
0.000172987
2.34509e-05
0.000162607
2.07617e-05
0.000153472
1.82685e-05
0.000145581
1.57768e-05
0.00013883
1.34974e-05
0.000132995
1.16785e-05
0.000128066
9.8693e-06
0.000123983
8.18678e-06
0.000120562
6.8691e-06
0.000117621
5.8716e-06
0.000115089
5.04664e-06
0.000112798
4.58322e-06
0.000110614
4.38179e-06
0.000108587
4.05831e-06
0.000106638
3.9112e-06
0.000104701
3.8814e-06
0.000102878
3.63648e-06
0.000101134
3.49856e-06
9.95655e-05
3.14438e-06
9.81047e-05
2.93766e-06
9.68262e-05
2.58187e-06
9.58277e-05
2.00014e-06
9.50974e-05
1.45882e-06
9.4627e-05
9.48207e-07
9.46175e-05
1.81998e-08
9.48994e-05
-5.63348e-07
9.5572e-05
-1.34467e-06
9.68645e-05
-2.58516e-06
9.89246e-05
-4.12473e-06
0.000101654
-5.46669e-06
0.000105151
-7.00005e-06
0.000109193
-8.08834e-06
0.000113805
-9.23261e-06
0.000118927
-1.02487e-05
0.000124393
-1.0934e-05
0.000130286
-1.17902e-05
0.000136474
-1.23751e-05
0.000142904
-1.28624e-05
0.000149712
-1.36137e-05
0.000156896
-1.43669e-05
0.000164523
-1.5254e-05
0.000172748
-1.64476e-05
0.000181666
-1.78361e-05
0.000191436
-1.95397e-05
0.000202081
-2.12876e-05
0.000213816
-2.34691e-05
0.000226569
-2.55092e-05
0.000240466
-2.77959e-05
0.000255423
-2.9911e-05
0.000271198
-3.15658e-05
0.000287832
-3.32886e-05
0.00030511
-3.45338e-05
0.000322595
-3.49505e-05
0.000340195
-3.51997e-05
0.00035747
-3.45228e-05
0.000374142
-3.33405e-05
0.000389921
-3.15615e-05
0.000404412
-2.89455e-05
0.000417433
-2.60236e-05
0.000428774
-2.26786e-05
0.000438148
-1.87259e-05
0.000445439
-1.45827e-05
0.000450514
-1.01586e-05
0.000453282
-5.51028e-06
0.000453685
-7.84567e-07
0.000451532
4.29532e-06
0.000447161
8.75872e-06
0.000440898
1.25322e-05
0.000432535
1.67224e-05
0.00042252
2.00217e-05
0.000410905
2.32226e-05
0.000398039
2.57219e-05
0.000384181
2.77068e-05
0.000369289
2.97741e-05
0.000353828
3.09136e-05
0.000338026
3.15933e-05
0.000321912
3.22206e-05
0.000305864
3.20866e-05
0.000290027
3.16662e-05
0.000274447
3.11533e-05
0.000259385
3.01179e-05
0.000244868
2.90293e-05
0.000231034
2.76622e-05
0.000217887
2.62926e-05
0.000205414
2.49472e-05
0.000193683
2.34639e-05
0.000182648
2.20737e-05
0.000172262
2.0774e-05
0.000162529
1.94686e-05
0.000153378
1.83071e-05
0.000144786
1.71858e-05
0.000136694
1.61856e-05
0.000129059
1.52701e-05
0.000121869
1.43796e-05
0.0001151
1.35401e-05
0.000108726
1.27499e-05
0.000102765
1.19231e-05
9.72019e-05
1.11238e-05
9.20613e-05
1.02805e-05
8.73755e-05
9.37031e-06
8.31561e-05
8.43648e-06
7.94281e-05
7.45357e-06
7.62265e-05
6.40212e-06
5.36865e-06
0.000175154
4.21024e-05
0.000162003
3.94524e-05
0.000149703
3.68981e-05
0.000138251
3.43541e-05
0.000127714
3.16105e-05
0.000118057
2.89703e-05
0.000109323
2.62006e-05
0.000101499
2.34733e-05
9.45909e-05
2.07259e-05
8.86217e-05
1.79099e-05
8.35781e-05
1.51347e-05
7.94521e-05
1.23824e-05
7.62178e-05
9.70595e-06
7.38361e-05
7.15153e-06
7.2256e-05
4.75118e-06
7.14174e-05
2.53314e-06
7.125e-05
5.18132e-07
7.17119e-05
-1.36759e-06
7.27368e-05
-3.05871e-06
7.4153e-05
-4.23865e-06
7.59773e-05
-5.46526e-06
7.819e-05
-6.62354e-06
8.05805e-05
-7.17462e-06
8.32364e-05
-7.97322e-06
8.60803e-05
-8.53512e-06
8.91809e-05
-9.31143e-06
9.25706e-05
-1.01779e-05
9.60651e-05
-1.04938e-05
9.98636e-05
-1.14126e-05
0.000104079
-1.26593e-05
0.000108492
-1.326e-05
0.000113402
-1.47399e-05
0.000118712
-1.59564e-05
0.000124641
-1.7804e-05
0.000131271
-1.98946e-05
0.000138347
-2.12672e-05
0.000146132
-2.33628e-05
0.000154773
-2.59232e-05
0.000163948
-2.75483e-05
0.000173891
-2.98257e-05
0.000184548
-3.19767e-05
0.000195939
-3.42012e-05
0.000208239
-3.6874e-05
0.000221021
-3.83158e-05
0.000234397
-4.01414e-05
0.000248582
-4.2533e-05
0.000263118
-4.35929e-05
0.000278044
-4.47564e-05
0.000293569
-4.65239e-05
0.000309183
-4.6828e-05
0.000324973
-4.73345e-05
0.000340747
-4.72676e-05
0.000356305
-4.66246e-05
0.000371584
-4.57702e-05
0.00038627
-4.39722e-05
0.000400085
-4.13755e-05
0.000412941
-3.84649e-05
0.000424529
-3.46802e-05
0.000434683
-3.0388e-05
0.000443194
-2.54717e-05
0.000449889
-2.00359e-05
0.000454757
-1.4561e-05
0.0004577
-8.82761e-06
0.00045874
-3.19991e-06
0.000457947
2.26162e-06
0.000455307
7.84196e-06
0.000450922
1.31457e-05
0.000444648
1.87803e-05
0.000436613
2.40114e-05
0.000426736
2.95447e-05
0.000414584
3.64431e-05
0.000399811
4.44555e-05
0.000382036
5.34642e-05
0.000361627
6.13234e-05
0.000339013
6.78792e-05
0.0003153
7.11787e-05
0.000291123
7.25836e-05
0.000267385
7.12812e-05
0.000244928
6.74264e-05
0.000224368
6.17352e-05
0.000205857
5.56e-05
0.000189035
5.05224e-05
0.000174127
4.47874e-05
0.000160741
4.02523e-05
0.000148572
3.65988e-05
0.000137403
3.35622e-05
0.000127128
3.08218e-05
0.000117661
2.83779e-05
0.00010903
2.58841e-05
0.000101292
2.32209e-05
9.44284e-05
2.06073e-05
8.84452e-05
1.79699e-05
8.32421e-05
1.56284e-05
7.87212e-05
1.35781e-05
7.47654e-05
1.18799e-05
7.12147e-05
1.06612e-05
6.79767e-05
9.74508e-06
6.50592e-05
8.7109e-06
6.24084e-05
7.92939e-06
6.00263e-05
7.14188e-06
5.79513e-05
6.23521e-06
5.62144e-05
5.21258e-06
5.48576e-05
4.07294e-06
5.39044e-05
2.85401e-06
5.33244e-05
1.72005e-06
5.31629e-05
4.87708e-07
5.33959e-05
-7.04887e-07
5.3987e-05
-1.75925e-06
5.4956e-05
-2.91687e-06
5.62635e-05
-3.92005e-06
5.78632e-05
-4.8005e-06
5.9818e-05
-5.8731e-06
6.20897e-05
-6.84479e-06
6.46853e-05
-7.79679e-06
6.76379e-05
-8.8639e-06
7.09493e-05
-9.9499e-06
7.46317e-05
-1.10739e-05
7.87087e-05
-1.22435e-05
8.32245e-05
-1.35505e-05
8.82178e-05
-1.4991e-05
9.37124e-05
-1.65092e-05
9.97309e-05
-1.80709e-05
0.000106309
-1.97465e-05
0.000113483
-2.15254e-05
0.000121273
-2.33806e-05
0.000129689
-2.52581e-05
0.00013878
-2.72989e-05
0.000148602
-2.94864e-05
0.00015914
-3.16249e-05
0.000170455
-3.39599e-05
0.000182554
-3.62955e-05
0.000195382
-3.84853e-05
0.000208952
-4.07063e-05
0.000223182
-4.26739e-05
0.000237916
-4.41734e-05
0.000253082
-4.549e-05
0.000268534
-4.63378e-05
0.000284064
-4.65477e-05
0.000299584
-4.6494e-05
0.000314837
-4.57247e-05
0.000329599
-4.42627e-05
0.00034375
-4.24012e-05
0.000357048
-3.98589e-05
0.000369292
-3.66834e-05
0.000380289
-3.29765e-05
0.00038982
-2.85764e-05
0.000397732
-2.37171e-05
0.000403926
-1.8553e-05
0.000408247
-1.29338e-05
0.000410596
-7.01542e-06
0.000410898
-9.22212e-07
0.000409119
5.25723e-06
0.000405169
1.18487e-05
0.000399123
1.81394e-05
0.000391039
2.4237e-05
0.000381024
3.0026e-05
0.000369255
3.52733e-05
0.000355909
3.99972e-05
0.000341216
4.40374e-05
0.000325429
4.73339e-05
0.000308786
4.98891e-05
0.00029155
5.16574e-05
0.000273963
5.27239e-05
0.000256249
5.3121e-05
0.000238657
5.27404e-05
0.000221333
5.19349e-05
0.00020452
5.04222e-05
0.000188301
4.86386e-05
0.000172818
4.64343e-05
0.000158129
4.40591e-05
0.00014427
4.15854e-05
0.000131284
3.89575e-05
0.000119179
3.63311e-05
0.00010797
3.36264e-05
9.75823e-05
3.11448e-05
8.80654e-05
2.85319e-05
7.93488e-05
2.61412e-05
7.14711e-05
2.36194e-05
6.43263e-05
2.1394e-05
5.78922e-05
1.92785e-05
5.22008e-05
1.70314e-05
4.71991e-05
1.49516e-05
4.28596e-05
1.29535e-05
3.92243e-05
1.08421e-05
3.61946e-05
9.00324e-06
3.38267e-05
7.02906e-06
3.21227e-05
5.04624e-06
3.1079e-05
3.05656e-06
3.06697e-05
1.15076e-06
3.0843e-05
-6.01833e-07
3.16318e-05
-2.4496e-06
3.29966e-05
-4.17474e-06
3.493e-05
-5.87693e-06
3.74643e-05
-7.68834e-06
4.05537e-05
-9.34685e-06
4.42751e-05
-1.12411e-05
4.85857e-05
-1.30041e-05
5.34762e-05
-1.4743e-05
5.89017e-05
-1.63639e-05
6.48128e-05
-1.78188e-05
7.11915e-05
-1.92079e-05
7.79775e-05
-2.04319e-05
8.51526e-05
-2.16185e-05
9.27105e-05
-2.27499e-05
0.00010064
-2.38469e-05
0.000108933
-2.4927e-05
0.00011759
-2.60376e-05
0.000126631
-2.71878e-05
0.000136077
-2.83684e-05
0.000146034
-2.99076e-05
0.000156495
-3.1423e-05
0.0001675
-3.3017e-05
0.000179277
-3.53569e-05
0.000191697
-3.7265e-05
0.000204796
-3.92719e-05
0.000218688
-4.16572e-05
0.000233186
-4.34447e-05
0.000248276
-4.51971e-05
0.000263812
-4.65714e-05
0.000279676
-4.75426e-05
0.000295749
-4.81615e-05
0.000311878
-4.83029e-05
0.000327837
-4.77893e-05
0.000343435
-4.66998e-05
0.000358518
-4.5176e-05
0.000372844
-4.2895e-05
0.000386216
-4.00381e-05
0.000398384
-3.6434e-05
0.00040912
-3.21399e-05
0.000418295
-2.74256e-05
0.000425596
-2.18342e-05
0.000430828
-1.56532e-05
0.000433872
-9.09274e-06
0.000434602
-2.16516e-06
0.000433009
4.71104e-06
0.000428968
1.21422e-05
0.000422638
1.90066e-05
0.000414122
2.55194e-05
0.000403604
3.15243e-05
0.00039136
3.66755e-05
0.000377533
4.14093e-05
0.000362476
4.51318e-05
0.000346365
4.83016e-05
0.000329506
5.05304e-05
0.00031217
5.19344e-05
0.000294552
5.28125e-05
0.000277021
5.25472e-05
0.000259749
5.17588e-05
0.000242911
5.04625e-05
0.00022682
4.81916e-05
0.000211564
4.57034e-05
0.000197368
4.25537e-05
0.000184338
3.90317e-05
0.000172597
3.51919e-05
0.000162216
3.11427e-05
0.000153093
2.73918e-05
0.000145208
2.36612e-05
0.00013846
2.02462e-05
0.000132639
1.7499e-05
0.000127741
1.47674e-05
0.000123681
1.22472e-05
0.000120246
1.03036e-05
0.000117296
8.82201e-06
0.000114764
7.57848e-06
0.000112478
6.8692e-06
0.000110315
6.54451e-06
0.000108295
6.07847e-06
0.000106349
5.85703e-06
0.00010443
5.79997e-06
0.000102623
5.44313e-06
0.000100902
5.21934e-06
9.93517e-05
4.6949e-06
9.79191e-05
4.37e-06
9.66562e-05
3.84461e-06
9.56742e-05
2.9819e-06
9.49636e-05
2.1691e-06
9.45114e-05
1.40006e-06
9.45185e-05
1.07993e-08
9.48105e-05
-8.55679e-07
9.54852e-05
-2.01973e-06
9.67811e-05
-3.88148e-06
9.8839e-05
-6.18298e-06
0.00010156
-8.18808e-06
0.000105053
-1.04931e-05
0.000109087
-1.21236e-05
0.00011369
-1.38358e-05
0.000118807
-1.53657e-05
0.000124264
-1.63918e-05
0.000130155
-1.76811e-05
0.000136342
-1.8563e-05
0.000142768
-1.92888e-05
0.000149575
-2.04202e-05
0.000156761
-2.15532e-05
0.000164388
-2.2882e-05
0.000172613
-2.46727e-05
0.000181532
-2.67555e-05
0.000191301
-2.93087e-05
0.000201951
-3.19381e-05
0.000213688
-3.52061e-05
0.000226441
-3.82629e-05
0.000240333
-4.16874e-05
0.000255275
-4.48535e-05
0.000271039
-4.73308e-05
0.000287653
-4.99025e-05
0.000304893
-5.17739e-05
0.000322353
-5.24111e-05
0.000339944
-5.27907e-05
0.000357217
-5.17961e-05
0.000373913
-5.0037e-05
0.000389739
-4.73875e-05
0.000404265
-4.34725e-05
0.000417304
-3.90627e-05
0.000428691
-3.40656e-05
0.000438098
-2.81335e-05
0.000445416
-2.19009e-05
0.000450526
-1.52692e-05
0.000453338
-8.3222e-06
0.000453779
-1.22572e-06
0.000451631
6.4434e-06
0.000447296
1.3093e-05
0.000441045
1.87828e-05
0.000432671
2.50965e-05
0.000422641
3.00513e-05
0.000411008
3.48552e-05
0.000398124
3.86057e-05
0.000384247
4.15833e-05
0.000369337
4.46848e-05
0.000353856
4.63937e-05
0.000338038
4.74118e-05
0.000321906
4.83516e-05
0.000305844
4.8149e-05
0.000289994
4.75161e-05
0.000274403
4.67446e-05
0.000259331
4.51893e-05
0.000244806
4.35542e-05
0.000230966
4.15026e-05
0.000217814
3.9444e-05
0.000205341
3.74206e-05
0.000193613
3.51921e-05
0.000182581
3.31051e-05
0.0001722
3.1155e-05
0.000162473
2.91959e-05
0.000153326
2.74538e-05
0.00014474
2.57722e-05
0.000136652
2.42729e-05
0.000129022
2.29e-05
0.000121836
2.15657e-05
0.000115068
2.03077e-05
0.000108695
1.91237e-05
0.000102733
1.78851e-05
9.71698e-05
1.66867e-05
9.20288e-05
1.54214e-05
8.73409e-05
1.40582e-05
8.31202e-05
1.26572e-05
7.93896e-05
1.11841e-05
7.61848e-05
9.60697e-06
8.05685e-06
0.000175053
5.61399e-05
0.000161901
5.26045e-05
0.000149601
4.91983e-05
0.000138149
4.58061e-05
0.000127612
4.21477e-05
0.000117955
3.86268e-05
0.000109222
3.49337e-05
0.000101398
3.12969e-05
9.44921e-05
2.7632e-05
8.85243e-05
2.38777e-05
8.34829e-05
2.0176e-05
7.93598e-05
1.65055e-05
7.61288e-05
1.2937e-05
7.37536e-05
9.52673e-06
7.21775e-05
6.3272e-06
7.13445e-05
3.36619e-06
7.11882e-05
6.74367e-07
7.16676e-05
-1.84691e-06
7.27063e-05
-4.09744e-06
7.41284e-05
-5.66076e-06
7.59563e-05
-7.29319e-06
7.81744e-05
-8.84161e-06
8.05637e-05
-9.56394e-06
8.32173e-05
-1.06268e-05
8.60567e-05
-1.13745e-05
8.91529e-05
-1.24076e-05
9.2539e-05
-1.3564e-05
9.60235e-05
-1.39783e-05
9.98138e-05
-1.52029e-05
0.000104024
-1.68696e-05
0.000108424
-1.76602e-05
0.000113322
-1.96376e-05
0.000118621
-2.1256e-05
0.000124539
-2.37212e-05
0.000131161
-2.65172e-05
0.000138227
-2.8333e-05
0.000146
-3.11358e-05
0.000154638
-3.4561e-05
0.000163798
-3.67085e-05
0.000173729
-3.97571e-05
0.000184377
-4.2624e-05
0.000195767
-4.5592e-05
0.000208078
-4.91851e-05
0.000220856
-5.10933e-05
0.000234237
-5.35221e-05
0.000248444
-5.67407e-05
0.000262987
-5.81355e-05
0.000277914
-5.96836e-05
0.00029347
-6.20801e-05
0.000309103
-6.24612e-05
0.000324916
-6.31472e-05
0.000340714
-6.3066e-05
0.000356297
-6.22083e-05
0.000371624
-6.10967e-05
0.000386357
-5.87052e-05
0.000400217
-5.52356e-05
0.000413132
-5.13799e-05
0.00042477
-4.63185e-05
0.000434975
-4.05932e-05
0.000443528
-3.40251e-05
0.000450261
-2.67683e-05
0.000455145
-1.94451e-05
0.000458087
-1.17695e-05
0.00045908
-4.19319e-06
0.000458211
3.13067e-06
0.000455528
1.05247e-05
0.000451133
1.75403e-05
0.000444833
2.50802e-05
0.000436742
3.21022e-05
0.000426814
3.94729e-05
0.000414645
4.86124e-05
0.000399947
5.91533e-05
0.00038225
7.11604e-05
0.000361909
8.16645e-05
0.000339321
9.04675e-05
0.00031563
9.48697e-05
0.000291487
9.67266e-05
0.000267787
9.49808e-05
0.000245361
8.98526e-05
0.000224829
8.22677e-05
0.000206351
7.40773e-05
0.000189566
6.73079e-05
0.000174707
5.96467e-05
0.000161383
5.35757e-05
0.000149272
4.87103e-05
0.000138127
4.47069e-05
0.000127846
4.11026e-05
0.000118366
3.78587e-05
0.000109731
3.45194e-05
0.000102002
3.0949e-05
9.51548e-05
2.74549e-05
8.91827e-05
2.39421e-05
8.39881e-05
2.0823e-05
7.94718e-05
1.80944e-05
7.55129e-05
1.58388e-05
7.19715e-05
1.42026e-05
6.87726e-05
1.29439e-05
6.58357e-05
1.16479e-05
6.31662e-05
1.05989e-05
6.07777e-05
9.53039e-06
5.87054e-05
8.30754e-06
5.69723e-05
6.94567e-06
5.56181e-05
5.42714e-06
5.46635e-05
3.8086e-06
5.40842e-05
2.29942e-06
5.39217e-05
6.50173e-07
5.41616e-05
-9.44698e-07
5.47497e-05
-2.34739e-06
5.5725e-05
-3.89209e-06
5.70237e-05
-5.21878e-06
5.86139e-05
-6.39065e-06
6.05633e-05
-7.82246e-06
6.28346e-05
-9.11607e-06
6.54183e-05
-1.03805e-05
6.8366e-05
-1.18116e-05
7.16712e-05
-1.32551e-05
7.53389e-05
-1.47416e-05
7.94066e-05
-1.63111e-05
8.39177e-05
-1.80616e-05
8.88947e-05
-1.99679e-05
9.43808e-05
-2.19953e-05
0.000100392
-2.40821e-05
0.000106958
-2.63122e-05
0.000114116
-2.8684e-05
0.000121894
-3.1158e-05
0.000130296
-3.36605e-05
0.000139374
-3.63765e-05
0.000149187
-3.92992e-05
0.000159716
-4.21544e-05
0.000171019
-4.52633e-05
0.000183112
-4.83877e-05