/*--------------------------------*- C++ -*----------------------------------*\
| =========                 |                                                 |
| \\      /  F ield         | OpenFOAM: The Open Source CFD Toolbox           |
|  \\    /   O peration     | Version:  3.0.1                                 |
|   \\  /    A nd           | Web:      www.OpenFOAM.org                      |
|    \\/     M anipulation  |                                                 |
\*---------------------------------------------------------------------------*/
FoamFile
{
    version     2.0;
    format      ascii;
    class       surfaceScalarField;
    location    "63.4";
    object      phi;
}
// * * * * * * * * * * * * * * * * * * * * * * * * * * * * * * * * * * * * * //

dimensions      [0 3 -1 0 0 0 0];

internalField   nonuniform List<scalar> 
42423
(
-0.00011278
-5.6559e-06
-0.000106181
-6.59891e-06
-9.8683e-05
-7.49791e-06
-9.02733e-05
-8.40964e-06
-8.07619e-05
-9.51144e-06
-7.02215e-05
-1.05404e-05
-5.86174e-05
-1.16042e-05
-4.60005e-05
-1.26169e-05
-3.25905e-05
-1.341e-05
-1.81109e-05
-1.44797e-05
-2.6948e-06
-1.54161e-05
1.34599e-05
-1.61547e-05
3.05064e-05
-1.70466e-05
4.81564e-05
-1.765e-05
6.63854e-05
-1.82291e-05
8.50393e-05
-1.86539e-05
0.000103699
-1.86598e-05
0.000122282
-1.85829e-05
0.000140617
-1.83355e-05
0.000158285
-1.76678e-05
0.000175098
-1.68127e-05
0.000190844
-1.57465e-05
0.000205153
-1.4309e-05
0.000217887
-1.2734e-05
0.000228703
-1.08157e-05
0.00023746
-8.75727e-06
0.000244027
-6.56697e-06
0.000248173
-4.14614e-06
0.000249803
-1.63004e-06
0.000248997
8.06836e-07
0.00024554
3.45677e-06
0.000239657
5.88306e-06
0.000231419
8.23776e-06
0.000221055
1.0364e-05
0.000208716
1.23387e-05
0.000194575
1.41412e-05
0.000178963
1.56116e-05
0.000162075
1.68881e-05
0.000144121
1.79543e-05
0.000125417
1.87036e-05
0.000106307
1.91104e-05
8.70257e-05
1.9281e-05
6.77056e-05
1.93201e-05
4.85611e-05
1.91444e-05
2.97785e-05
1.87826e-05
1.16755e-05
1.8103e-05
-5.8504e-06
1.75259e-05
-2.25664e-05
1.6716e-05
-3.84339e-05
1.58674e-05
-5.33381e-05
1.49042e-05
-6.72468e-05
1.39086e-05
-8.01606e-05
1.29138e-05
-9.20455e-05
1.1885e-05
-0.000102947
1.09015e-05
-0.000112822
9.87535e-06
-0.000121719
8.89672e-06
-0.000129699
7.98021e-06
-0.00013675
7.05085e-06
-0.000142882
6.13188e-06
-0.000148193
5.31094e-06
-0.000152643
4.4501e-06
-0.000156366
3.72319e-06
-0.00015933
2.96358e-06
-0.00016148
2.15009e-06
-0.000163012
1.53211e-06
-0.000163824
8.11536e-07
-0.000163876
5.24407e-08
-0.000163235
-6.40761e-07
-0.000161746
-1.48935e-06
-0.000159582
-2.16377e-06
-0.000156728
-2.85453e-06
-0.000153059
-3.66863e-06
-0.000148535
-4.5236e-06
-0.000143229
-5.30654e-06
-0.000136905
-6.32397e-06
-0.000129706
-7.19916e-06
-0.000121531
-8.17462e-06
-0.000112449
-9.08223e-06
-0.000102432
-1.0017e-05
-9.14615e-05
-1.09705e-05
-7.94865e-05
-1.1975e-05
-6.66826e-05
-1.28039e-05
-5.29272e-05
-1.37555e-05
-3.83625e-05
-1.45647e-05
-2.30368e-05
-1.53257e-05
-6.95846e-06
-1.60783e-05
9.82013e-06
-1.67786e-05
2.72309e-05
-1.74108e-05
4.51855e-05
-1.79546e-05
6.35485e-05
-1.8363e-05
8.2153e-05
-1.86045e-05
0.000100797
-1.8644e-05
0.000119217
-1.84196e-05
0.000137163
-1.79469e-05
0.000154306
-1.71427e-05
0.000170409
-1.61028e-05
0.000185166
-1.47573e-05
0.000198363
-1.31966e-05
0.000209763
-1.14003e-05
0.000219178
-9.41505e-06
0.000226468
-7.29029e-06
0.00023149
-5.02197e-06
0.000234156
-2.66553e-06
0.000234452
-2.96064e-07
0.000232353
2.0992e-06
0.000227766
4.58691e-06
0.000220838
6.92716e-06
0.000211684
9.15425e-06
0.000200419
1.12648e-05
0.000187219
1.32005e-05
0.000172308
1.49106e-05
0.000155878
1.64299e-05
0.000138226
1.76527e-05
0.000119604
1.86218e-05
0.000100256
1.93482e-05
8.0499e-05
1.97567e-05
6.05821e-05
1.99169e-05
4.07784e-05
1.98037e-05
2.12544e-05
1.9524e-05
2.25284e-06
1.90015e-05
-1.60697e-05
1.83225e-05
-3.35769e-05
1.75072e-05
-5.01383e-05
1.65615e-05
-6.57095e-05
1.55712e-05
-8.02196e-05
1.451e-05
-9.36663e-05
1.34467e-05
-0.000106004
1.23377e-05
-0.000117199
1.11955e-05
-0.000127341
1.01415e-05
-0.000136368
9.02685e-06
-0.000144296
7.9279e-06
-0.000151205
6.90945e-06
-0.00015709
5.88517e-06
-0.000161954
4.86389e-06
-0.000165916
3.96207e-06
-0.00016903
3.11335e-06
-0.000171215
2.18522e-06
-0.000172593
1.37851e-06
-0.000173332
7.38567e-07
-0.000173242
-8.94811e-08
-0.000172481
-7.61127e-07
-0.000171134
-1.34757e-06
-0.000169073
-2.06046e-06
-0.000166553
-2.52062e-06
-0.000163393
-3.15989e-06
-0.000159605
-3.78755e-06
-0.0001553
-4.30559e-06
-0.000150392
-4.90728e-06
-0.00014488
-5.51225e-06
-0.000138731
-6.14932e-06
-0.000131916
-6.81517e-06
-0.000124418
-7.49776e-06
-0.000116199
-8.21886e-06
-0.000107244
-8.95531e-06
-9.75017e-05
-9.74204e-06
-8.70978e-05
-1.04039e-05
-7.58711e-05
-1.12268e-05
-6.38362e-05
-1.20349e-05
-5.1005e-05
-1.28312e-05
-3.7374e-05
-1.36311e-05
-2.30565e-05
-1.43175e-05
-8.01611e-06
-1.50404e-05
7.58786e-06
-1.5604e-05
2.37227e-05
-1.61349e-05
4.02623e-05
-1.65396e-05
5.70694e-05
-1.68071e-05
7.40082e-05
-1.69388e-05
9.08873e-05
-1.68792e-05
0.000107489
-1.66014e-05
0.000123598
-1.61093e-05
0.000138963
-1.53645e-05
0.000153273
-1.43101e-05
0.000166325
-1.30519e-05
0.00017785
-1.1526e-05
0.000187619
-9.76809e-06
0.000195329
-7.71025e-06
0.000200822
-5.49361e-06
0.000203954
-3.13159e-06
0.000204643
-6.8945e-07
0.000202846
1.79711e-06
0.000198486
4.36034e-06
0.000191678
6.80785e-06
0.00018254
9.13832e-06
0.000171259
1.12808e-05
0.000158021
1.32378e-05
0.000143108
1.4913e-05
0.000126839
1.62695e-05
0.000109487
1.73514e-05
9.13633e-05
1.81238e-05
7.27295e-05
1.86338e-05
5.37962e-05
1.89333e-05
3.48384e-05
1.89578e-05
1.6044e-05
1.87943e-05
-2.32568e-06
1.83697e-05
-2.0071e-05
1.77453e-05
-3.7e-05
1.6929e-05
-5.30348e-05
1.60348e-05
-6.80481e-05
1.50133e-05
-8.2012e-05
1.39639e-05
-9.48897e-05
1.28777e-05
-0.000106638
1.17485e-05
-0.000117299
1.06606e-05
-0.000127046
9.747e-06
-0.00013569
8.64394e-06
-0.000143446
7.75676e-06
-0.000150306
6.8597e-06
-0.000156249
5.94295e-06
-0.000161453
5.20438e-06
-0.000165966
4.51247e-06
-0.000169681
3.71533e-06
-0.000172775
3.09334e-06
-0.000175174
2.39898e-06
-0.000176879
1.70548e-06
-0.000177965
1.08617e-06
-0.000178391
4.25446e-07
-0.000178209
-1.818e-07
-0.000177397
-8.1154e-07
-0.000176093
-1.30474e-06
-0.000174266
-1.82709e-06
-0.000172077
-2.18897e-06
-0.000169418
-2.65819e-06
-0.000166307
-3.11125e-06
-0.00016264
-3.66699e-06
-0.000158524
-4.11573e-06
-0.000153736
-4.78808e-06
-0.00014825
-5.48635e-06
-0.000142005
-6.24485e-06
-0.00013493
-7.07524e-06
-0.000127085
-7.84493e-06
-0.000118377
-8.7078e-06
-0.000108829
-9.54776e-06
-9.84322e-05
-1.03973e-05
-8.71679e-05
-1.12643e-05
-7.50179e-05
-1.215e-05
-6.20937e-05
-1.29242e-05
-4.83394e-05
-1.37544e-05
-3.38412e-05
-1.44982e-05
-1.86741e-05
-1.51672e-05
-3.00054e-06
-1.56736e-05
1.30916e-05
-1.60921e-05
2.94555e-05
-1.63639e-05
4.59318e-05
-1.64764e-05
6.2398e-05
-1.64662e-05
7.86412e-05
-1.62432e-05
9.45448e-05
-1.59037e-05
0.000109901
-1.53557e-05
0.000124472
-1.45713e-05
0.000137952
-1.34802e-05
0.000150088
-1.21362e-05
0.00016059
-1.05018e-05
0.000169177
-8.58753e-06
0.000175619
-6.44146e-06
0.000179752
-4.13305e-06
0.000181448
-1.69638e-06
0.000180714
7.34129e-07
0.000177463
3.25094e-06
0.000171798
5.66458e-06
0.000163865
7.93352e-06
0.00015383
1.00349e-05
0.000141913
1.19174e-05
0.000128343
1.35698e-05
0.000113354
1.4989e-05
9.72525e-05
1.61012e-05
8.03087e-05
1.69438e-05
6.27626e-05
1.75461e-05
4.49415e-05
1.78211e-05
2.6999e-05
1.79426e-05
9.18755e-06
1.78114e-05
-8.21987e-06
1.74074e-05
-2.50884e-05
1.68686e-05
-4.122e-05
1.61316e-05
-5.65194e-05
1.52994e-05
-7.0798e-05
1.42786e-05
-8.40386e-05
1.32406e-05
-9.62665e-05
1.22279e-05
-0.000107372
1.11059e-05
-0.000117451
1.00788e-05
-0.000126454
9.00272e-06
-0.000134336
7.88205e-06
-0.00014108
6.74411e-06
-0.000146728
5.64771e-06
-0.000151286
4.55761e-06
-0.000155002
3.71631e-06
-0.000158013
3.01086e-06
-0.000160549
2.53613e-06
-0.000162807
2.25791e-06
-0.000164753
1.94602e-06
-0.000166352
1.59934e-06
-0.000167649
1.29724e-06
-0.000168429
7.79942e-07
-0.000168774
3.44542e-07
-0.000168597
-1.76985e-07
-0.000167786
-8.10798e-07
-0.000166425
-1.36135e-06
-0.000164381
-2.04381e-06
-0.000161503
-2.87808e-06
-0.000157922
-3.58082e-06
-0.000153486
-4.43581e-06
-0.000148052
-5.43456e-06
-0.00014174
-6.31211e-06
-0.000134246
-7.49334e-06
-0.000125765
-8.4813e-06
-0.000116315
-9.44953e-06
-0.00010561
-1.07057e-05
-9.38973e-05
-1.17125e-05
-8.12657e-05
-1.26316e-05
-6.74156e-05
-1.38501e-05
-5.26964e-05
-1.47192e-05
-3.69948e-05
-1.57016e-05
-2.04194e-05
-1.65754e-05
-3.26632e-06
-1.71531e-05
1.46286e-05
-1.78949e-05
3.30227e-05
-1.83941e-05
5.15825e-05
-1.85599e-05
7.03206e-05
-1.87381e-05
8.89205e-05
-1.85999e-05
0.000107239
-1.83182e-05
0.000125047
-1.78082e-05
0.000142016
-1.69691e-05
0.000157963
-1.59471e-05
0.000172617
-1.46544e-05
0.000185681
-1.30639e-05
0.000197001
-1.13201e-05
0.000206387
-9.38605e-06
0.000213656
-7.26852e-06
0.000218595
-4.93898e-06
0.000221106
-2.51144e-06
0.000221238
-1.31504e-07
0.000219002
2.23552e-06
0.000214207
4.79548e-06
0.000207118
7.08908e-06
0.000197919
9.19826e-06
0.000186549
1.13703e-05
0.00017336
1.31893e-05
0.000158508
1.48521e-05
0.000142292
1.62157e-05
0.000125003
1.72883e-05
0.000106866
1.81373e-05
8.82092e-05
1.8657e-05
6.91592e-05
1.90499e-05
4.99824e-05
1.91768e-05
3.09354e-05
1.9047e-05
1.23277e-05
1.86077e-05
-5.85793e-06
1.81856e-05
-2.34341e-05
1.75761e-05
-4.02266e-05
1.67925e-05
-5.61413e-05
1.59148e-05
-7.11547e-05
1.50133e-05
-8.51773e-05
1.40227e-05
-9.81818e-05
1.30045e-05
-0.000110177
1.19949e-05
-0.000121146
1.09696e-05
-0.000131122
9.97561e-06
-0.000140104
8.98188e-06
-0.000148118
8.01382e-06
-0.000155215
7.09723e-06
6.10416e-06
-0.000112816
-1.13077e-05
-0.00010622
-1.3195e-05
-9.87266e-05
-1.49918e-05
-9.03178e-05
-1.68184e-05
-8.08008e-05
-1.90285e-05
-7.02698e-05
-2.10715e-05
-5.86643e-05
-2.32097e-05
-4.6044e-05
-2.52373e-05
-3.26471e-05
-2.68069e-05
-1.81535e-05
-2.89734e-05
-2.72621e-06
-3.08434e-05
1.34323e-05
-3.23133e-05
3.04778e-05
-3.40921e-05
4.81377e-05
-3.53099e-05
6.63801e-05
-3.64716e-05
8.50556e-05
-3.73295e-05
0.000103723
-3.73277e-05
0.000122308
-3.71679e-05
0.000140668
-3.66952e-05
0.000158347
-3.53468e-05
0.000175163
-3.36285e-05
0.000190933
-3.15166e-05
0.000205251
-2.86276e-05
0.000217989
-2.54714e-05
0.000228815
-2.16426e-05
0.00023759
-1.75325e-05
0.000244161
-1.31372e-05
0.000248303
-8.28873e-06
0.000249947
-3.27346e-06
0.000249129
1.62444e-06
0.000245657
6.92889e-06
0.000239773
1.17665e-05
0.000231532
1.64792e-05
0.000221159
2.0737e-05
0.00020881
2.46877e-05
0.000194655
2.8296e-05
0.00017903
3.12364e-05
0.000162135
3.37833e-05
0.000144168
3.59207e-05
0.000125453
3.74194e-05
0.000106329
3.82343e-05
8.70358e-05
3.85738e-05
6.7711e-05
3.8645e-05
4.85579e-05
3.82975e-05
2.97671e-05
3.75733e-05
1.16569e-05
3.62132e-05
-5.8751e-06
3.50579e-05
-2.25964e-05
3.34373e-05
-3.84688e-05
3.17399e-05
-5.3378e-05
2.98134e-05
-6.72904e-05
2.7821e-05
-8.02058e-05
2.58292e-05
-9.20938e-05
2.37729e-05
-0.000102997
2.1805e-05
-0.000112877
1.97549e-05
-0.000121776
1.77954e-05
-0.000129759
1.5964e-05
-0.000136811
1.41028e-05
-0.000142947
1.22675e-05
-0.000148259
1.06226e-05
-0.000152711
8.90264e-06
-0.000156432
7.44408e-06
-0.000159402
5.93341e-06
-0.000161546
4.29438e-06
-0.000163079
3.065e-06
-0.000163893
1.62592e-06
-0.000163942
1.0059e-07
-0.000163302
-1.28058e-06
-0.000161818
-2.97267e-06
-0.000159652
-4.33067e-06
-0.00015681
-5.69646e-06
-0.000153134
-7.3442e-06
-0.000148605
-9.05283e-06
-0.000143298
-1.06135e-05
-0.000136968
-1.26536e-05
-0.000129773
-1.43945e-05
-0.000121612
-1.63354e-05
-0.000112517
-1.81775e-05
-0.000102499
-2.00344e-05
-9.15233e-05
-2.19467e-05
-7.95457e-05
-2.39526e-05
-6.67376e-05
-2.56121e-05
-5.29781e-05
-2.75151e-05
-3.8415e-05
-2.91278e-05
-2.30752e-05
-3.06657e-05
-6.98667e-06
-3.21669e-05
9.80857e-06
-3.35739e-05
2.72262e-05
-3.48285e-05
4.5191e-05
-3.59195e-05
6.35706e-05
-3.67426e-05
8.21937e-05
-3.72277e-05
0.000100856
-3.73066e-05
0.000119294
-3.68578e-05
0.000137258
-3.59103e-05
0.000154418
-3.43032e-05
0.000170532
-3.22168e-05
0.000185294
-2.9519e-05
0.000198506
-2.64086e-05
0.000209917
-2.28119e-05
0.000219348
-1.88462e-05
0.000226638
-1.45804e-05
0.000231654
-1.00376e-05
0.000234329
-5.34053e-06
0.000234625
-5.91927e-07
0.000232508
4.21604e-06
0.000227918
9.17687e-06
0.000220985
1.38604e-05
0.000211827
1.83118e-05
0.000200557
2.25351e-05
0.000187344
2.64126e-05
0.000172421
2.98343e-05
0.000155971
3.28797e-05
0.000138295
3.53283e-05
0.000119659
3.72582e-05
0.000100289
3.87177e-05
8.05104e-05
3.95354e-05
6.05763e-05
3.9851e-05
4.07524e-05
3.96275e-05
2.12064e-05
3.907e-05
2.18097e-06
3.8027e-05
-1.6159e-05
3.66625e-05
-3.36785e-05
3.50267e-05
-5.02507e-05
3.31337e-05
-6.58363e-05
3.11568e-05
-8.03608e-05
2.90345e-05
-9.3815e-05
2.6901e-05
-0.000106174
2.46968e-05
-0.000117383
2.2404e-05
-0.000127527
2.02859e-05
-0.000136559
1.80587e-05
-0.000144496
1.58647e-05
-0.000151414
1.38281e-05
-0.000157313
1.17836e-05
-0.000162178
9.72967e-06
-0.000166122
7.90615e-06
-0.000169262
6.2524e-06
-0.00017147
4.39357e-06
-0.000172872
2.78105e-06
-0.00017356
1.42599e-06
-0.000173463
-1.86729e-07
-0.000172684
-1.54017e-06
-0.000171354
-2.67753e-06
-0.000169337
-4.0772e-06
-0.000166777
-5.08021e-06
-0.000163601
-6.33628e-06
-0.000159811
-7.57715e-06
-0.000155528
-8.58916e-06
-0.000150614
-9.82126e-06
-0.000145096
-1.10303e-05
-0.000138944
-1.23016e-05
-0.000132121
-1.3638e-05
-0.000124616
-1.50027e-05
-0.000116395
-1.64401e-05
-0.000107416
-1.79337e-05
-9.76722e-05
-1.94861e-05
-8.72658e-05
-2.08103e-05
-7.60219e-05
-2.24707e-05
-6.39763e-05
-2.40805e-05
-5.11289e-05
-2.56787e-05
-3.75007e-05
-2.72593e-05
-2.31658e-05
-2.86525e-05
-8.1173e-06
-3.0089e-05
7.51446e-06
-3.12358e-05
2.36547e-05
-3.22751e-05
4.02096e-05
-3.30947e-05
5.70297e-05
-3.36272e-05
7.39876e-05
-3.38968e-05
9.08831e-05
-3.37747e-05
0.000107499
-3.32178e-05
0.000123628
-3.22378e-05
0.000139005
-3.07419e-05
0.000153336
-2.86408e-05
0.000166416
-2.61319e-05
0.000177963
-2.3073e-05
0.000187738
-1.95436e-05
0.000195461
-1.54334e-05
0.000200966
-1.0998e-05
0.000204109
-6.27516e-06
0.000204802
-1.38226e-06
0.000202996
3.60354e-06
0.000198626
8.72933e-06
0.000191812
1.36222e-05
0.000182665
1.82854e-05
0.000171369
2.25767e-05
0.000158113
2.64934e-05
0.000143185
2.98416e-05
0.000126898
3.25564e-05
0.00010952
3.47296e-05
9.13663e-05
3.62771e-05
7.27023e-05
3.72978e-05
5.37625e-05
3.78731e-05
3.47887e-05
3.79316e-05
1.59891e-05
3.75939e-05
-2.41906e-06
3.67779e-05
-2.01853e-05
3.55115e-05
-3.71429e-05
3.38866e-05
-5.31903e-05
3.20822e-05
-6.82166e-05
3.00396e-05
-8.21896e-05
2.79369e-05
-9.50697e-05
2.57578e-05
-0.000106824
2.3503e-05
-0.000117529
2.13657e-05
-0.000127248
1.9466e-05
-0.000135903
1.72981e-05
-0.000143637
1.54913e-05
-0.000150538
1.37605e-05
-0.000156482
1.18871e-05
-0.000161671
1.03933e-05
-0.000166172
9.01369e-06
-0.0001699
7.44308e-06
-0.000172957
6.15023e-06
-0.000175402
4.84383e-06
-0.000177116
3.42004e-06
-0.0001782
2.16952e-06
-0.00017863
8.56309e-07
-0.000178435
-3.77096e-07
-0.00017762
-1.62661e-06
-0.000176301
-2.62392e-06
-0.000174457
-3.67138e-06
-0.000172278
-4.3672e-06
-0.000169613
-5.32304e-06
-0.000166492
-6.23227e-06
-0.000162874
-7.28524e-06
-0.000158733
-8.25656e-06
-0.000153931
-9.59087e-06
-0.000148442
-1.0975e-05
-0.000142184
-1.25024e-05
-0.000135081
-1.41787e-05
-0.000127256
-1.56704e-05
-0.000118528
-1.74351e-05
-0.000108985
-1.90911e-05
-9.85748e-05
-2.08076e-05
-8.7302e-05
-2.25371e-05
-7.51568e-05
-2.42953e-05
-6.22113e-05
-2.58697e-05
-4.84381e-05
-2.75276e-05
-3.39198e-05
-2.90166e-05
-1.8756e-05
-3.03309e-05
-3.06191e-06
-3.13678e-05
1.30537e-05
-3.22078e-05
2.94177e-05
-3.2728e-05
4.59108e-05
-3.29695e-05
6.23953e-05
-3.29508e-05
7.86517e-05
-3.24997e-05
9.45859e-05
-3.18379e-05
0.000109949
-3.07192e-05
0.000124533
-2.9155e-05
0.000138031
-2.69779e-05
0.000150188
-2.42937e-05
0.000160709
-2.10222e-05
0.000169303
-1.71818e-05
0.000175748
-1.28865e-05
0.00017988
-8.26523e-06
0.000181583
-3.39934e-06
0.000180842
1.47478e-06
0.000177577
6.51627e-06
0.000171897
1.13446e-05
0.000163945
1.58856e-05
0.0001539
2.00792e-05
0.000141972
2.38459e-05
0.000128382
2.71598e-05
0.000113376
2.99941e-05
9.72613e-05
3.22163e-05
8.03016e-05
3.39035e-05
6.27532e-05
3.50945e-05
4.49176e-05
3.56566e-05
2.69649e-05
3.58952e-05
9.14718e-06
3.56291e-05
-8.27204e-06
3.48266e-05
-2.51526e-05
3.37491e-05
-4.12936e-05
3.22726e-05
-5.65999e-05
3.06057e-05
-7.08848e-05
2.85635e-05
-8.41232e-05
2.6479e-05
-9.63508e-05
2.44555e-05
-0.000107465
2.222e-05
-0.000117551
2.01653e-05
-0.000126556
1.80072e-05
-0.000134445
1.57713e-05
-0.000141197
1.34961e-05
-0.00014684
1.12913e-05
-0.000151396
9.11282e-06
-0.000155099
7.41951e-06
-0.000158086
5.99768e-06
-0.000160609
5.05932e-06
-0.000162861
4.51e-06
-0.000164803
3.88804e-06
-0.000166402
3.19781e-06
-0.000167702
2.59817e-06
-0.000168482
1.55958e-06
-0.000168828
6.90341e-07
-0.000168655
-3.50051e-07
-0.000167847
-1.619e-06
-0.000166487
-2.72075e-06
-0.000164445
-4.08563e-06
-0.000161569
-5.75429e-06
-0.000157989
-7.16131e-06
-0.000153552
-8.87245e-06
-0.00014812
-1.0867e-05
-0.000141808
-1.26243e-05
-0.000134314
-1.49871e-05
-0.000125832
-1.69627e-05
-0.000116382
-1.88998e-05
-0.000105675
-2.14128e-05
-9.39605e-05
-2.34272e-05
-8.13259e-05
-2.52663e-05
-6.74722e-05
-2.77038e-05
-5.27457e-05
-2.94457e-05
-3.70452e-05
-3.14022e-05
-2.04622e-05
-3.31584e-05
-3.29859e-06
-3.43167e-05
1.45917e-05
-3.57853e-05
3.29878e-05
-3.67902e-05
5.15527e-05
-3.71249e-05
7.02979e-05
-3.74833e-05
8.88974e-05
-3.71995e-05
0.00010722
-3.6641e-05
0.000125049
-3.5637e-05
0.000142035
-3.3955e-05
0.000157992
-3.19046e-05
0.000172643
-2.93048e-05
0.000185714
-2.61356e-05
0.000197064
-2.26697e-05
0.000206467
-1.87894e-05
0.000213735
-1.45364e-05
0.000218681
-9.88531e-06
0.000221212
-5.04261e-06
0.000221345
-2.63878e-07
0.000219107
4.47264e-06
0.000214315
9.58832e-06
0.000207223
1.41806e-05
0.000198018
1.84032e-05
0.000186638
2.27501e-05
0.000173442
2.6386e-05
0.000158578
2.97152e-05
0.000142353
3.24412e-05
0.000125049
3.45922e-05
0.000106898
3.62877e-05
8.82276e-05
3.73279e-05
6.91711e-05
3.81064e-05
4.99839e-05
3.83639e-05
3.09261e-05
3.81049e-05
1.23116e-05
3.72221e-05
-5.87499e-06
3.63722e-05
-2.34561e-05
3.51573e-05
-4.02528e-05
3.35891e-05
-5.61709e-05
3.18328e-05
-7.11872e-05
3.00296e-05
-8.52119e-05
2.80474e-05
-9.82167e-05
2.60093e-05
-0.00011021
2.39887e-05
-0.000121179
2.19376e-05
-0.000131155
1.99519e-05
-0.000140138
1.79654e-05
-0.000148153
1.60288e-05
-0.000155252
1.41963e-05
1.22049e-05
-0.000112884
-1.69573e-05
-0.00010629
-1.97889e-05
-9.88019e-05
-2.24801e-05
-9.03924e-05
-2.5228e-05
-8.0868e-05
-2.85529e-05
-7.03523e-05
-3.15871e-05
-5.8746e-05
-3.4816e-05
-4.61203e-05
-3.78631e-05
-3.27595e-05
-4.01677e-05
-1.82221e-05
-4.35109e-05
-2.78294e-06
-4.62826e-05
1.3394e-05
-4.84903e-05
3.04569e-05
-5.1155e-05
4.81419e-05
-5.29949e-05
6.64046e-05
-5.47343e-05
8.50837e-05
-5.60086e-05
0.000103772
-5.60165e-05
0.000122381
-5.5777e-05
0.000140749
-5.50627e-05
0.000158449
-5.30468e-05
0.000175292
-5.04718e-05
0.00019108
-4.73048e-05
0.000205414
-4.29614e-05
0.000218171
-3.82289e-05
0.000229017
-3.24882e-05
0.000237795
-2.63101e-05
0.000244372
-1.97144e-05
0.000248531
-1.24481e-05
0.000250175
-4.9177e-06
0.000249324
2.47548e-06
0.000245836
1.04166e-05
0.000239951
1.76516e-05
0.000231704
2.47263e-05
0.000221316
3.1125e-05
0.000208952
3.70523e-05
0.000194771
4.24763e-05
0.000179122
4.68859e-05
0.000162215
5.06899e-05
0.000144228
5.39077e-05
0.000125493
5.61541e-05
0.000106344
5.7384e-05
8.70282e-05
5.78893e-05
6.76971e-05
5.7976e-05
4.853e-05
5.74647e-05
2.97313e-05
5.63719e-05
1.16047e-05
5.43399e-05
-5.93931e-06
5.26019e-05
-2.26677e-05
5.01657e-05
-3.85455e-05
4.76177e-05
-5.34577e-05
4.47256e-05
-6.7374e-05
4.17373e-05
-8.02906e-05
3.87457e-05
-9.2178e-05
3.56604e-05
-0.00010308
3.27071e-05
-0.00011296
2.96344e-05
-0.000121857
2.66928e-05
-0.000129844
2.39506e-05
-0.000136895
2.11538e-05
-0.000143032
1.84048e-05
-0.000148342
1.5933e-05
-0.000152795
1.33556e-05
-0.000156511
1.116e-05
-0.000159488
8.90968e-06
-0.000161613
6.42025e-06
-0.000163147
4.5988e-06
-0.000163949
2.42793e-06
-0.000163988
1.39491e-07
-0.00016336
-1.90843e-06
-0.000161879
-4.45396e-06
-0.00015971
-6.49942e-06
-0.000156886
-8.52029e-06
-0.000153206
-1.10245e-05
-0.00014868
-1.35795e-05
-0.000143373
-1.59203e-05
-0.000137038
-1.89881e-05
-0.000129851
-2.15818e-05
-0.000121704
-2.44829e-05
-0.000112599
-2.72819e-05
-0.000102582
-3.00519e-05
-9.1605e-05
-3.29233e-05
-7.962e-05
-3.59378e-05
-6.68106e-05
-3.84215e-05
-5.30483e-05
-4.12775e-05
-3.84887e-05
-4.36874e-05
-2.31396e-05
-4.60148e-05
-7.03104e-06
-4.82755e-05
9.7618e-06
-5.03668e-05
2.71886e-05
-5.22554e-05
4.5168e-05
-5.3899e-05
6.35606e-05
-5.51353e-05
8.22019e-05
-5.58691e-05
0.00010088
-5.59852e-05
0.000119337
-5.53143e-05
0.000137321
-5.38951e-05
0.000154488
-5.14697e-05
0.000170607
-4.83356e-05
0.00018539
-4.43027e-05
0.000198612
-3.96307e-05
0.000210032
-3.42316e-05
0.000219489
-2.83033e-05
0.000226759
-2.18509e-05
0.000231777
-1.50551e-05
0.000234446
-8.00927e-06
0.000234721
-8.6733e-07
0.000232583
6.35404e-06
0.000228019
1.3741e-05
0.000221065
2.08144e-05
0.000211893
2.74837e-05
0.000200611
3.38169e-05
0.000187379
3.96445e-05
0.000172424
4.47892e-05
0.000155962
4.93425e-05
0.000138267
5.30227e-05
0.000119605
5.59201e-05
0.000100203
5.81202e-05
8.04098e-05
5.93283e-05
6.04456e-05
5.98152e-05
4.05922e-05
5.94809e-05
2.10428e-05
5.86195e-05
2.00026e-06
5.70695e-05
-1.63543e-05
5.5017e-05
-3.38889e-05
5.25613e-05
-5.04686e-05
4.97134e-05
-6.60611e-05
4.67492e-05
-8.059e-05
4.35634e-05
-9.40105e-05
4.03215e-05
-0.000106403
3.70897e-05
-0.000117619
3.36194e-05
-0.00012776
3.04273e-05
-0.000136796
2.70945e-05
-0.000144739
2.38076e-05
-0.000151653
2.07422e-05
-0.000157559
1.76893e-05
-0.000162431
1.46015e-05
-0.000166368
1.18432e-05
-0.000169504
9.38906e-06
-0.000171719
6.60796e-06
-0.000173128
4.19072e-06
-0.000173791
2.08875e-06
-0.000173703
-2.74784e-07
-0.000172914
-2.3294e-06
-0.00017158
-4.01166e-06
-0.000169579
-6.07804e-06
-0.000166995
-7.66393e-06
-0.000163771
-9.56033e-06
-0.000160091
-1.12577e-05
-0.000155767
-1.29125e-05
-0.000150848
-1.47401e-05
-0.000145325
-1.65541e-05
-0.000139176
-1.845e-05
-0.000132356
-2.04582e-05
-0.000124856
-2.25026e-05
-0.000116625
-2.46712e-05
-0.000107604
-2.69547e-05
-9.79732e-05
-2.9117e-05
-8.74993e-05
-3.12842e-05
-7.62462e-05
-3.37239e-05
-6.41989e-05
-3.61278e-05
-5.13369e-05
-3.85407e-05
-3.7717e-05
-4.08792e-05
-2.33712e-05
-4.29983e-05
-8.30908e-06
-4.51511e-05
7.34325e-06
-4.68882e-05
2.3499e-05
-4.84309e-05
4.00602e-05
-4.96559e-05
5.68961e-05
-5.04632e-05
7.3871e-05
-5.08717e-05
9.07689e-05
-5.06727e-05
0.000107411
-4.986e-05
0.000123562
-4.83887e-05
0.000138956
-4.61359e-05
0.000153327
-4.30118e-05
0.000166434
-3.92392e-05
0.000178016
-3.46549e-05
0.000187769
-2.92968e-05
0.000195552
-2.32161e-05
0.000201051
-1.64971e-05
0.000204208
-9.43223e-06
0.0002049
-2.07405e-06
0.000203065
5.43797e-06
0.000198695
1.3099e-05
0.000191896
2.04221e-05
0.000182718
2.74632e-05
0.000171401
3.38933e-05
0.000158164
3.97307e-05
0.00014318
4.48255e-05
0.00012685
4.88864e-05
0.000109451
5.21288e-05
9.12674e-05
5.44602e-05
7.25742e-05
5.5991e-05
5.36329e-05
5.68145e-05
3.46119e-05
5.69525e-05
1.57947e-05
5.64111e-05
-2.60939e-06
5.5182e-05
-2.03941e-05
5.32962e-05
-3.73794e-05
5.0872e-05
-5.34349e-05
4.81377e-05
-6.84679e-05
4.50726e-05
-8.24426e-05
4.19116e-05
-9.53186e-05
3.86338e-05
-0.000107069
3.52537e-05
-0.000117781
3.20778e-05
-0.000127488
2.91723e-05
-0.000136151
2.59618e-05
-0.000143877
2.32168e-05
-0.000150784
2.0668e-05
-0.000156735
1.78375e-05
-0.000161953
1.56118e-05
-0.000166425
1.34855e-05
-0.000170153
1.11709e-05
-0.000173178
9.17537e-06
-0.000175645
7.31062e-06
-0.000177366
5.14121e-06
-0.000178439
3.24218e-06
-0.000178866
1.28397e-06
-0.000178665
-5.78444e-07
-0.000177846
-2.44604e-06
-0.000176517
-3.95228e-06
-0.000174695
-5.49411e-06
-0.000172484
-6.57763e-06
-0.000169821
-7.98602e-06
-0.000166667
-9.3862e-06
-0.000163121
-1.08313e-05
-0.000158968
-1.24094e-05
-0.000154157
-1.44025e-05
-0.000148673
-1.64586e-05
-0.000142416
-1.876e-05
-0.00013531
-2.12843e-05
-0.000127485
-2.34953e-05
-0.000118758
-2.61625e-05
-0.000109205
-2.86444e-05
-9.87928e-05
-3.12194e-05
-8.7512e-05
-3.3818e-05
-7.53805e-05
-3.64268e-05
-6.24195e-05
-3.88307e-05
-4.86439e-05
-4.13032e-05
-3.40739e-05
-4.35867e-05
-1.89535e-05
-4.54514e-05
-3.22992e-06
-4.70913e-05
1.29018e-05
-4.83396e-05
2.92721e-05
-4.90984e-05
4.57762e-05
-4.94736e-05
6.22789e-05
-4.94535e-05
7.85543e-05
-4.87752e-05
9.4498e-05
-4.77817e-05
0.000109896
-4.61171e-05
0.000124496
-4.37547e-05
0.00013803
-4.05126e-05
0.000150226
-3.64893e-05
0.000160747
-3.15434e-05
0.000169378
-2.58131e-05
0.000175827
-1.93352e-05
0.000179972
-1.24109e-05
0.000181682
-5.10873e-06
0.000180912
2.24482e-06
0.000177646
9.78174e-06
0.000171954
1.70367e-05
0.000163997
2.38422e-05
0.000153938
3.01386e-05
0.00014199
3.57937e-05
0.000128389
4.07612e-05
0.000113378
4.50052e-05
9.72462e-05
4.83477e-05
8.02663e-05
5.08834e-05
6.27207e-05
5.26401e-05
4.48709e-05
5.35065e-05
2.68966e-05
5.38695e-05
9.07332e-06
5.34524e-05
-8.35366e-06
5.22536e-05
-2.52497e-05
5.06451e-05
-4.14071e-05
4.843e-05
-5.67209e-05
4.59195e-05
-7.10144e-05
4.2857e-05
-8.42555e-05
3.97201e-05
-9.64886e-05
3.66885e-05
-0.000107607
3.33385e-05
-0.000117702
3.02602e-05
-0.00012672
2.70247e-05
-0.000134617
2.3669e-05
-0.000141372
2.02512e-05
-0.000147008
1.6927e-05
-0.000151549
1.36534e-05
-0.000155226
1.10966e-05
-0.000158176
8.94749e-06
-0.000160674
7.55744e-06
-0.00016291
6.74642e-06
-0.000164843
5.82055e-06
-0.000166434
4.78935e-06
-0.000167733
3.89724e-06
-0.000168518
2.34367e-06
-0.000168871
1.04381e-06
-0.000168705
-5.16464e-07
-0.000167901
-2.42232e-06
-0.000166546
-4.07587e-06
-0.000164509
-6.12238e-06
-0.000161639
-8.62498e-06
-0.000158062
-1.07384e-05
-0.000153623
-1.33114e-05
-0.000148198
-1.6292e-05
-0.000141888
-1.89345e-05
-0.000134396
-2.2479e-05
-0.000125916
-2.54425e-05
-0.000116466
-2.83493e-05
-0.000105759
-3.21203e-05
-9.4043e-05
-3.51431e-05
-8.14062e-05
-3.79031e-05
-6.75487e-05
-4.15614e-05
-5.28184e-05
-4.41761e-05
-3.71156e-05
-4.7105e-05
-2.05236e-05
-4.97505e-05
-3.34619e-06
-5.14942e-05
1.45488e-05
-5.36803e-05
3.29504e-05
-5.51919e-05
5.15192e-05
-5.56937e-05
7.02657e-05
-5.62299e-05
8.88761e-05
-5.581e-05
0.000107221
-5.49864e-05
0.000125064
-5.34793e-05
0.000142055
-5.09461e-05
0.000158023
-4.78727e-05
0.000172701
-4.39827e-05
0.0001858
-3.9235e-05
0.000197165
-3.40348e-05
0.000206576
-2.82006e-05
0.000213871
-2.18307e-05
0.000218838
-1.48524e-05
0.000221384
-7.58939e-06
0.000221523
-4.02741e-07
0.000219281
6.71483e-06
0.000214494
1.43753e-05
0.000207397
2.12771e-05
0.000198178
2.76231e-05
0.00018678
3.41479e-05
0.00017357
3.95956e-05
0.000158688
4.45972e-05
0.00014245
4.86797e-05
0.000125116
5.19262e-05
0.000106941
5.44618e-05
8.82458e-05
5.60235e-05
6.91797e-05
5.71724e-05
4.99758e-05
5.75678e-05
3.09026e-05
5.71781e-05
1.22755e-05
5.58492e-05
-5.92381e-06
5.45715e-05
-2.35128e-05
5.27463e-05
-4.03165e-05
5.03928e-05
-5.62393e-05
4.77556e-05
-7.12586e-05
4.5049e-05
-8.52851e-05
4.20738e-05
-9.82912e-05
3.90154e-05
-0.000110286
3.59839e-05
-0.000121254
3.29053e-05
-0.00013123
2.99277e-05
-0.000140213
2.69481e-05
-0.000148226
2.40421e-05
-0.000155326
2.12967e-05
1.83001e-05
-0.000112986
-2.26033e-05
-0.000106395
-2.63794e-05
-9.89151e-05
-2.996e-05
-9.05046e-05
-3.36386e-05
-8.09718e-05
-3.80857e-05
-7.04774e-05
-4.20815e-05
-5.88687e-05
-4.64248e-05
-4.62338e-05
-5.0498e-05
-3.28745e-05
-5.3527e-05
-1.83177e-05
-5.80678e-05
-2.86511e-06
-6.17352e-05
1.33543e-05
-6.47098e-05
3.04385e-05
-6.82392e-05
4.81496e-05
-7.07061e-05
6.64387e-05
-7.30235e-05
8.51345e-05
-7.47045e-05
0.000103853
-7.47353e-05
0.000122486
-7.441e-05
0.000140878
-7.34549e-05
0.000158612
-7.07808e-05
0.000175483
-6.73423e-05
0.000191305
-6.31275e-05
0.000205675
-5.73309e-05
0.000218449
-5.10032e-05
0.000229316
-4.33548e-05
0.000238109
-3.51039e-05
0.000244701
-2.63057e-05
0.000248874
-1.66215e-05
0.000250513
-6.55671e-06
0.00024962
3.36824e-06
0.00024611
1.39265e-05
0.000240219
2.35425e-05
0.000231963
3.2983e-05
0.000221552
4.15356e-05
0.000209166
4.94386e-05
0.000194946
5.66956e-05
0.000179261
6.25716e-05
0.000162335
6.76152e-05
0.000144318
7.19253e-05
0.000125556
7.49159e-05
0.000106367
7.65731e-05
8.70179e-05
7.7238e-05
6.76759e-05
7.7318e-05
4.84878e-05
7.66528e-05
2.96816e-05
7.51781e-05
1.15264e-05
7.24951e-05
-6.03628e-06
7.01645e-05
-2.27758e-05
6.69052e-05
-3.86621e-05
6.3504e-05
-5.35795e-05
5.9643e-05
-6.75004e-05
5.56581e-05
-8.04177e-05
5.16631e-05
-9.23066e-05
4.75493e-05
-0.000103209
4.36093e-05
-0.000113089
3.95144e-05
-0.000121983
3.55871e-05
-0.000129972
3.19399e-05
-0.000137021
2.82021e-05
-0.00014316
2.45442e-05
-0.000148467
2.12396e-05
-0.000152921
1.78097e-05
-0.000156629
1.48681e-05
-0.000159614
1.18947e-05
-0.000161721
8.52703e-06
-0.000163256
6.13382e-06
-0.000164044
3.21658e-06
-0.000164066
1.60859e-07
-0.000163442
-2.53222e-06
-0.000161973
-5.92335e-06
-0.000159805
-8.66717e-06
-0.000157
-1.13246e-05
-0.000153317
-1.47081e-05
-0.00014879
-1.8106e-05
-0.000143486
-2.12249e-05
-0.000137141
-2.53334e-05
-0.000129969
-2.87533e-05
-0.000121841
-3.26111e-05
-0.000112724
-3.63986e-05
-0.000102708
-4.00681e-05
-9.17274e-05
-4.39041e-05
-7.97365e-05
-4.79287e-05
-6.6923e-05
-5.12351e-05
-5.31573e-05
-5.50431e-05
-3.86031e-05
-5.82416e-05
-2.32413e-05
-6.13767e-05
-7.09675e-06
-6.44201e-05
9.6886e-06
-6.71522e-05
2.71258e-05
-6.96926e-05
4.51197e-05
-7.18929e-05
6.35286e-05
-7.35442e-05
8.22022e-05
-7.45428e-05
0.00010089
-7.46728e-05
0.000119368
-7.37921e-05
0.000137368
-7.18958e-05
0.000154555
-6.86565e-05
0.000170697
-6.4478e-05
0.000185496
-5.91017e-05
0.00019875
-5.28845e-05
0.00021018
-4.56615e-05
0.000219602
-3.77253e-05
0.000226894
-2.91427e-05
0.000231908
-2.00695e-05
0.00023457
-1.06714e-05
0.000234815