/*--------------------------------*- C++ -*----------------------------------*\
| =========                 |                                                 |
| \\      /  F ield         | OpenFOAM: The Open Source CFD Toolbox           |
|  \\    /   O peration     | Version:  3.0.1                                 |
|   \\  /    A nd           | Web:      www.OpenFOAM.org                      |
|    \\/     M anipulation  |                                                 |
\*---------------------------------------------------------------------------*/
FoamFile
{
    version     2.0;
    format      ascii;
    class       surfaceScalarField;
    location    "19.4";
    object      alphaPhi;
}
// * * * * * * * * * * * * * * * * * * * * * * * * * * * * * * * * * * * * * //

dimensions      [0 3 -1 0 0 0 0];

internalField   nonuniform List<scalar> 
44922
(
-0.000411469
-2.02872e-05
-0.000388982
-2.24876e-05
-0.000365902
-2.30803e-05
-0.000341812
-2.40905e-05
-0.000317435
-2.43776e-05
-0.000292474
-2.4961e-05
-0.000267693
-2.47815e-05
-0.000242962
-2.47314e-05
-0.000219044
-2.39185e-05
-0.000195899
-2.31453e-05
-0.000174242
-2.16579e-05
-0.000154091
-2.01518e-05
-0.000136021
-1.80703e-05
-0.000120123
-1.58975e-05
-0.000106777
-1.33467e-05
-9.61121e-05
-1.06652e-05
-8.83041e-05
-7.80829e-06
-8.33777e-05
-4.92668e-06
-8.13393e-05
-2.03859e-06
-8.19842e-05
6.44603e-07
-8.50138e-05
3.02935e-06
-9.04607e-05
5.44661e-06
-9.79901e-05
7.52916e-06
-0.00010767
9.67924e-06
-0.000118974
1.1304e-05
-0.000132036
1.30616e-05
-0.000146227
1.41914e-05
-0.000161731
1.55033e-05
-0.000177892
1.61615e-05
-0.000194925
1.70327e-05
-0.000212206
1.72802e-05
-0.000229963
1.77569e-05
-0.000247641
1.76781e-05
-0.000265515
1.78737e-05
-0.000283326
1.78117e-05
-0.00030072
1.73939e-05
-0.000317885
1.71642e-05
-0.000334483
1.65985e-05
-0.000350683
1.62001e-05
-0.000366218
1.55345e-05
-0.000381227
1.50091e-05
-0.000395503
1.42755e-05
-0.00040916
1.36576e-05
-0.00042204
1.28801e-05
-0.000434241
1.2201e-05
-0.000445642
1.14003e-05
-0.000456328
1.06865e-05
-0.000466206
9.87811e-06
-0.000475352
9.14514e-06
-0.000483686
8.33474e-06
-0.000491281
7.59485e-06
-0.000498091
6.81011e-06
-0.000504072
5.98083e-06
-0.000509268
5.1963e-06
-0.000513711
4.44279e-06
-0.000517847
4.13599e-06
-0.000521342
3.49518e-06
-0.000524618
3.2753e-06
-0.00052608
1.46257e-06
-0.000523458
-2.62228e-06
-0.000519627
-3.83136e-06
-0.00051644
-3.18679e-06
-0.000512264
-4.17538e-06
-0.000507072
-5.19259e-06
-0.000500875
-6.19725e-06
-0.000493737
-7.13756e-06
-0.000485755
-7.9821e-06
-0.000477159
-8.59634e-06
-0.000468063
-9.09592e-06
-0.000458348
-9.71473e-06
-0.000447984
-1.03638e-05
-0.000437061
-1.09226e-05
-0.000425636
-1.14253e-05
-0.000413695
-1.19406e-05
-0.000401402
-1.22934e-05
-0.00038867
-1.27322e-05
-0.000375729
-1.29409e-05
-0.000362464
-1.32645e-05
-0.000349144
-1.33202e-05
-0.000335648
-1.34959e-05
-0.000322249
-1.33994e-05
-0.00030882
-1.34283e-05
-0.000295614
-1.32063e-05
-0.000282471
-1.3143e-05
-0.000269606
-1.28649e-05
-0.000256788
-1.28182e-05
-0.000244212
-1.25753e-05
-0.000231567
-1.26456e-05
-0.000219064
-1.25028e-05
-0.000206272
-1.27914e-05
-0.000193114
-1.31582e-05
-0.000179603
-1.3511e-05
-0.000165401
-1.42015e-05
-0.000150705
-1.46958e-05
-0.000135311
-1.53947e-05
-0.000119483
-1.58278e-05
-0.000103251
-1.62317e-05
-8.69681e-05
-1.62829e-05
-7.08203e-05
-1.61478e-05
-5.52119e-05
-1.56083e-05
-4.04595e-05
-1.47523e-05
-2.6971e-05
-1.34885e-05
-1.50504e-05
-1.19206e-05
-5.09666e-06
-9.95369e-06
2.74205e-06
-7.83868e-06
8.06353e-06
-5.32145e-06
1.08863e-05
-2.82272e-06
1.0972e-05
-8.56956e-08
8.48085e-06
2.49116e-06
3.28314e-06
5.19772e-06
-4.46433e-06
7.74749e-06
-1.47233e-05
1.0259e-05
-2.72308e-05
1.25075e-05
-4.18237e-05
1.45929e-05
-5.81413e-05
1.63177e-05
-7.59387e-05
1.77974e-05
-9.48254e-05
1.88867e-05
-0.000114521
1.96953e-05
-0.000134564
2.00433e-05
-0.000154659
2.00951e-05
-0.000174329
1.967e-05
-0.00019339
1.90613e-05
-0.000211617
1.82268e-05
-0.000228765
1.71477e-05
-0.000244726
1.59615e-05
-0.000259296
1.457e-05
-0.000272604
1.33075e-05
-0.000284531
1.19275e-05
-0.000295192
1.06605e-05
-0.000304511
9.31951e-06
-0.000312808
8.29661e-06
-0.000319882
7.07405e-06
-0.000326134
6.25157e-06
-0.000331395
5.26189e-06
-0.000336018
4.62226e-06
-0.000339846
3.82806e-06
-0.000343164
3.3186e-06
-0.000345884
2.71944e-06
-0.000348161
2.27762e-06
-0.000350016
1.85479e-06
-0.000351491
1.47434e-06
-0.000352661
1.17079e-06
-0.000353471
8.09987e-07
-0.000353989
5.17867e-07
-0.000354137
1.4732e-07
-0.000353963
-1.73695e-07
-0.000353345
-6.1763e-07
-0.000352364
-9.80799e-07
-0.000350895
-1.46905e-06
-0.000348917
-1.97868e-06
-0.000346382
-2.53493e-06
-0.000343196
-3.18576e-06
-0.000339296
-3.89957e-06
-0.000334636
-4.65965e-06
-0.000329104
-5.53241e-06
-0.000322674
-6.43034e-06
-0.000315259
-7.4142e-06
-0.000306794
-8.46562e-06
-0.00029724
-9.55354e-06
-0.000286549
-1.06905e-05
-0.00027467
-1.18797e-05
-0.000261576
-1.30934e-05
-0.000247289
-1.42874e-05
-0.000231823
-1.54661e-05
-0.000215201
-1.66212e-05
-0.000197508
-1.76936e-05
-0.00017877
-1.87372e-05
-0.000159155
-1.96157e-05
-0.000138756
-2.03981e-05
-0.000117717
-2.10396e-05
-9.62296e-05
-2.1487e-05
-7.44425e-05
-2.1787e-05
-5.25345e-05
-2.1908e-05
-3.07337e-05
-2.18007e-05
-9.24568e-06
-2.1488e-05
1.16316e-05
-2.08772e-05
3.17307e-05
-2.0099e-05
5.08313e-05
-1.91006e-05
6.88352e-05
-1.80038e-05
8.55389e-05
-1.67037e-05
0.000100704
-1.51655e-05
0.000114161
-1.34568e-05
0.000125908
-1.1747e-05
0.000135665
-9.75688e-06
0.000143539
-7.8741e-06
0.000149361
-5.8212e-06
0.000153208
-3.84698e-06
0.000155052
-1.84419e-06
0.000154999
5.25384e-08
0.000153131
1.86813e-06
0.00014947
3.66178e-06
0.000144264
5.20505e-06
0.00013758
6.68418e-06
0.000129659
7.92142e-06
0.000120561
9.09755e-06
0.000110584
9.97734e-06
9.97701e-05
1.0814e-05
8.83538e-05
1.14164e-05
7.65143e-05
1.18395e-05
6.44362e-05
1.20781e-05
5.23317e-05
1.21045e-05
4.02386e-05
1.20931e-05
2.83128e-05
1.19258e-05
1.67883e-05
1.15245e-05
5.60277e-06
1.11856e-05
-5.03978e-06
1.06426e-05
-1.50445e-05
1.00047e-05
-2.44373e-05
9.39278e-06
-3.29906e-05
8.5533e-06
-4.09477e-05
7.95714e-06
-4.80704e-05
7.12268e-06
-5.44496e-05
6.37929e-06
-5.98427e-05
5.39309e-06
-6.46186e-05
4.77584e-06
-6.8492e-05
3.87345e-06
-7.1642e-05
3.15004e-06
-7.3757e-05
2.11501e-06
-7.51359e-05
1.37888e-06
-7.60863e-05
9.50417e-07
-7.82716e-05
2.18531e-06
-8.18663e-05
3.5947e-06
-8.54646e-05
3.59822e-06
-8.6871e-05
1.40643e-06
-8.43081e-05
-2.56292e-06
-7.82383e-06
-7.64842e-05
-0.000411535
-4.05794e-05
-0.000389037
-4.49863e-05
-0.000365946
-4.61718e-05
-0.000341843
-4.81951e-05
-0.000317452
-4.87695e-05
-0.000292473
-4.99404e-05
-0.000267674
-4.95818e-05
-0.000242923
-4.94833e-05
-0.000218986
-4.78564e-05
-0.000195822
-4.63099e-05
-0.000174146
-4.33348e-05
-0.000153976
-4.03216e-05
-0.000135892
-3.61551e-05
-0.000119983
-3.18076e-05
-0.000106625
-2.67051e-05
-9.59494e-05
-2.13413e-05
-8.81293e-05
-1.56289e-05
-8.31988e-05
-9.85773e-06
-8.1179e-05
-4.05893e-06
-8.18333e-05
1.29842e-06
-8.48724e-05
6.068e-06
-9.03291e-05
1.09028e-05
-9.78689e-05
1.50685e-05
-0.00010756
1.937e-05
-0.000118876
2.26197e-05
-0.000131951
2.61357e-05
-0.000146154
2.83948e-05
-0.00016167
3.10184e-05
-0.000177843
3.23339e-05
-0.000194886
3.40758e-05
-0.000212176
3.45696e-05
-0.000229941
3.55222e-05
-0.000247627
3.53634e-05
-0.000265507
3.57538e-05
-0.000283325
3.56288e-05
-0.000300723
3.47924e-05
-0.000317891
3.43322e-05
-0.000334493
3.32001e-05
-0.000350696
3.24028e-05
-0.000366233
3.10713e-05
-0.000381244
3.002e-05
-0.000395521
2.85523e-05
-0.000409179
2.73162e-05
-0.00042206
2.57607e-05
-0.000434261
2.44022e-05
-0.000445661
2.28005e-05
-0.000456348
2.13728e-05
-0.000466226
1.97559e-05
-0.000475371
1.829e-05
-0.000483705
1.66693e-05
-0.0004913
1.51893e-05
-0.000498108
1.36188e-05
-0.000504084
1.19568e-05
-0.000509266
1.03777e-05
-0.000513623
8.80019e-06
-0.000517185
7.69775e-06
-0.000519871
6.18161e-06
-0.000521511
4.91526e-06
-0.000522103
2.05446e-06
-0.000521455
-3.27085e-06
-0.000519529
-5.75683e-06
-0.000516442
-6.27403e-06
-0.000512295
-8.32195e-06
-0.000507102
-1.03861e-05
-0.000500905
-1.23938e-05
-0.000493767
-1.42753e-05
-0.000485785
-1.59647e-05
-0.000477188
-1.71929e-05
-0.000468091
-1.81927e-05
-0.000458376
-1.94304e-05
-0.000448011
-2.07283e-05
-0.000437088
-2.1846e-05
-0.000425662
-2.28511e-05
-0.000413721
-2.38818e-05
-0.000401426
-2.45873e-05
-0.000388693
-2.54651e-05
-0.000375751
-2.58828e-05
-0.000362486
-2.65302e-05
-0.000349164
-2.66418e-05
-0.000335667
-2.6993e-05
-0.000322266
-2.68e-05
-0.000308837
-2.68572e-05
-0.00029563
-2.64128e-05
-0.000282488
-2.62849e-05
-0.000269625
-2.57277e-05
-0.000256811
-2.56329e-05
-0.000244241
-2.51449e-05
-0.000231603
-2.5283e-05
-0.000219112
-2.49938e-05
-0.000206331
-2.55726e-05
-0.000193178
-2.63112e-05
-0.000179669
-2.70199e-05
-0.000165465
-2.84051e-05
-0.000150765
-2.93958e-05
-0.000135361
-3.07988e-05
-0.000119522
-3.16667e-05
-0.000103275
-3.24783e-05
-8.69728e-05
-3.25853e-05
-7.08008e-05
-3.23197e-05
-5.51687e-05
-3.12404e-05
-4.03861e-05
-2.95348e-05
-2.68857e-05
-2.69888e-05
-1.4918e-05
-2.38883e-05
-4.93075e-06
-1.99408e-05
2.88264e-06
-1.5652e-05
8.20234e-06
-1.06411e-05
1.10394e-05
-5.65976e-06
1.11567e-05
-2.02986e-07
8.63529e-06
5.01265e-06
3.41561e-06
1.04174e-05
-4.33578e-06
1.54989e-05
-1.46082e-05
2.05315e-05
-2.71217e-05
2.50209e-05
-4.17269e-05
2.91982e-05
-5.80641e-05
3.26548e-05
-7.58872e-05
3.56205e-05
-9.47956e-05
3.77951e-05
-0.000114514
3.94141e-05
-0.000134576
4.01053e-05
-0.000154686
4.02046e-05
-0.000174376
3.93601e-05
-0.000193455
3.81397e-05
-0.000211693
3.64651e-05
-0.00022885
3.43053e-05
-0.000244814
3.19249e-05
-0.000259387
2.91436e-05
-0.000272695
2.66149e-05
-0.000284619
2.38521e-05
-0.000295275
2.13163e-05
-0.000304599
1.86429e-05
-0.000312888
1.65861e-05
-0.000319962
1.41478e-05
-0.000326203
1.24931e-05
-0.000331465
1.05231e-05
-0.000336083
9.24079e-06
-0.000339909
7.65348e-06
-0.000343224
6.63406e-06
-0.000345943
5.43847e-06
-0.000348217
4.55133e-06
-0.000350074
3.71229e-06
-0.000351544
2.94385e-06
-0.000352718
2.3449e-06
-0.00035352
1.61182e-06
-0.000354038
1.03619e-06
-0.000354178
2.87645e-07
-0.000354008
-3.44025e-07
-0.000353394
-1.23107e-06
-0.000352416
-1.95951e-06
-0.00035095
-2.93512e-06
-0.000348978
-3.95032e-06
-0.000346445
-5.06768e-06
-0.000343266
-6.36435e-06
-0.000339371
-7.79514e-06
-0.000334713
-9.31749e-06
-0.000329185
-1.10596e-05
-0.000322756
-1.28595e-05
-0.000315338
-1.48323e-05
-0.000306881
-1.69226e-05
-0.000297331
-1.9103e-05
-0.00028664
-2.13813e-05
-0.000274771
-2.37489e-05
-0.000261669
-2.61951e-05
-0.000247381
-2.8575e-05
-0.000231912
-3.09349e-05
-0.000215287
-3.32459e-05
-0.000197585
-3.5396e-05
-0.000178845
-3.74773e-05
-0.000159221
-3.92389e-05
-0.000138812
-4.08073e-05
-0.000117762
-4.20895e-05
-9.62649e-05
-4.29839e-05
-7.44609e-05
-4.35908e-05
-5.25425e-05
-4.38263e-05
-3.07285e-05
-4.36145e-05
-9.22558e-06
-4.29908e-05
1.16659e-05
-4.17686e-05
3.17769e-05
-4.02098e-05
5.08869e-05
-3.82104e-05
6.89078e-05
-3.60247e-05
8.56241e-05
-3.34198e-05
0.0001008
-3.03417e-05
0.000114268
-2.69241e-05
0.000126021
-2.35002e-05
0.000135786
-1.95216e-05
0.000143667
-1.57549e-05
0.00014949
-1.1644e-05
0.000153336
-7.69315e-06
0.000155183
-3.69085e-06
0.000155124
1.11094e-07
0.000153246
3.74624e-06
0.000149578
7.32939e-06
0.000144364
1.04198e-05
0.000137664
1.33835e-05
0.000129737
1.58487e-05
0.000120628
1.82068e-05
0.000110639
1.9966e-05
9.98151e-05
2.16384e-05
8.83893e-05
2.28422e-05
7.65359e-05
2.36929e-05
6.44492e-05
2.41648e-05
5.23354e-05
2.42185e-05
4.02332e-05
2.41954e-05
2.83003e-05
2.38587e-05
1.67674e-05
2.30574e-05
5.57713e-06
2.23759e-05
-5.07167e-06
2.12914e-05
-1.50774e-05
2.00105e-05
-2.44784e-05
1.87937e-05
-3.30301e-05
1.71051e-05
-4.09912e-05
1.59182e-05
-4.81077e-05
1.42392e-05
-5.44863e-05
1.27579e-05
-5.98768e-05
1.07837e-05
-6.46632e-05
9.56223e-06
-6.8537e-05
7.74725e-06
-7.17112e-05
6.32427e-06
-7.38961e-05
4.29989e-06
-7.53923e-05
2.87513e-06
-7.59006e-05
1.4587e-06
-7.54973e-05
1.782e-06
-7.35635e-05
1.66093e-06
-7.04773e-05
5.12035e-07
-6.57898e-05
-3.28105e-06
-6.18413e-05
-6.51139e-06
-1.38699e-05
-5.57952e-05
-0.000411659
-6.08867e-05
-0.000389142
-6.7505e-05
-0.00036603
-6.92846e-05
-0.000341899
-7.23268e-05
-0.000317479
-7.31901e-05
-0.000292466
-7.49546e-05
-0.000267631
-7.4417e-05
-0.000242843
-7.42729e-05
-0.000218867
-7.18325e-05
-0.000195664
-6.95134e-05
-0.000173952
-6.50475e-05
-0.00015375
-6.05247e-05
-0.000135636
-5.42694e-05
-0.0001197
-4.77438e-05
-0.000106321
-4.00846e-05
-9.56255e-05
-3.20377e-05
-8.77762e-05
-2.34787e-05
-8.28293e-05
-1.48051e-05
-8.08526e-05
-6.03616e-06
-8.15425e-05
1.98786e-06
-8.46013e-05
9.12643e-06
-9.00786e-05
1.63797e-05
-9.76403e-05
2.26297e-05
-0.000107357
2.90859e-05
-0.000118698
3.39607e-05
-0.000131799
3.92365e-05
-0.000146028
4.26238e-05
-0.00016157
4.65593e-05
-0.000177766
4.853e-05
-0.000194832
5.11417e-05
-0.000212142
5.18793e-05
-0.000229926
5.33061e-05
-0.000247628
5.30647e-05
-0.000265522
5.3648e-05
-0.000283352
5.34581e-05
-0.00030076
5.2201e-05
-0.000317937
5.15089e-05
-0.000334546
4.98091e-05
-0.000350755
4.86118e-05
-0.000366297
4.66132e-05
-0.000381313
4.50352e-05
-0.000395593
4.28325e-05
-0.000409254
4.09774e-05
-0.000422137
3.86432e-05
-0.000434339
3.66046e-05
-0.00044574
3.42012e-05
-0.000456426
3.20592e-05
-0.000466304
2.96337e-05
-0.000475449
2.74349e-05
-0.000483784
2.50039e-05
-0.000491378
2.27839e-05
-0.000498186
2.04263e-05
-0.000504158
1.79288e-05
-0.000509328
1.55475e-05
-0.000513619
1.30915e-05
-0.000516905
1.09838e-05
-0.000519301
8.57744e-06
-0.000520559
6.17341e-06
-0.000520877
2.37218e-06
-0.000520876
-3.27121e-06
-0.000519542
-7.09118e-06
-0.000516513
-9.30277e-06
-0.00051239
-1.24455e-05
-0.000507199
-1.55772e-05
-0.000501001
-1.85908e-05
-0.000493862
-2.1415e-05
-0.000485876
-2.39502e-05
-0.000477277
-2.57917e-05
-0.000468177
-2.72933e-05
-0.000458457
-2.91501e-05
-0.000448088
-3.10968e-05
-0.000437161
-3.27731e-05
-0.000425732
-3.42804e-05
-0.000413787
-3.58267e-05
-0.000401489
-3.6885e-05
-0.000388752
-3.8202e-05
-0.000375806
-3.88291e-05
-0.000362535
-3.98004e-05
-0.000349208
-3.99684e-05
-0.000335707
-4.04947e-05
-0.000322301
-4.02051e-05
-0.000308869
-4.02891e-05
-0.000295661
-3.96216e-05
-0.000282519
-3.94265e-05
-0.000269659
-3.85878e-05
-0.000256849
-3.84422e-05
-0.000244288
-3.77061e-05
-0.000231661
-3.79091e-05
-0.000219184
-3.74707e-05
-0.000206416
-3.8341e-05
-0.000193273
-3.94536e-05
-0.000179773
-4.05204e-05
-0.000165566
-4.26113e-05
-0.000150858
-4.41042e-05
-0.000135441
-4.62152e-05
-0.00011958
-4.75281e-05
-0.000103306
-4.87522e-05
-8.69698e-05
-4.89214e-05
-7.07532e-05
-4.85363e-05
-5.50819e-05
-4.69116e-05
-4.02587e-05
-4.4358e-05
-2.67194e-05
-4.0528e-05
-1.47177e-05
-3.58899e-05
-4.67579e-06
-2.99827e-05
3.14624e-06
-2.3474e-05
8.4795e-06
-1.59743e-05
1.13227e-05
-8.5029e-06
1.14416e-05
-3.21901e-07
8.91962e-06
7.53469e-06
3.65123e-06
1.56859e-05
-4.10546e-06
2.32556e-05
-1.44067e-05
3.08327e-05
-2.69346e-05
3.75489e-05
-4.15656e-05
4.38292e-05
-5.79284e-05
4.90175e-05
-7.57954e-05
5.34876e-05
-9.4743e-05
5.67427e-05
-0.00011451
5.91807e-05
-0.000134599
6.01943e-05
-0.000154729
6.03348e-05
-0.00017445
5.90818e-05
-0.000193562
5.72518e-05
-0.000211822
5.47242e-05
-0.000228996
5.14795e-05
-0.000244964
4.78933e-05
-0.000259549
4.37287e-05
-0.000272854
3.99198e-05
-0.000284767
3.57651e-05
-0.000295415
3.1964e-05
-0.000304729
2.79566e-05
-0.000313006
2.48632e-05
-0.000320078
2.12197e-05
-0.000326304
1.87193e-05
-0.00033156
1.57793e-05
-0.000336172
1.38524e-05
-0.00033999
1.14714e-05
-0.0003433
9.94417e-06
-0.000346029
8.16792e-06
-0.000348306
6.82799e-06
-0.000350181
5.58783e-06
-0.000351641
4.40335e-06
-0.00035281
3.51373e-06
-0.000353595
2.39682e-06
-0.000354106
1.54781e-06
-0.000354228
4.09793e-07
-0.000354052
-5.20052e-07
-0.000353448
-1.83493e-06
-0.000352473
-2.93513e-06
-0.000351016
-4.39208e-06
-0.000349055
-5.91078e-06
-0.000346527
-7.59627e-06
-0.00034336
-9.53042e-06
-0.000339469
-1.16866e-05
-0.000334818
-1.39684e-05
-0.000329299
-1.65779e-05
-0.000322872
-1.92866e-05
-0.000315459
-2.22456e-05
-0.000307009
-2.5372e-05
-0.000297468
-2.86446e-05
-0.000286777
-3.20721e-05
-0.000274937
-3.55881e-05
-0.000261811
-3.93218e-05
-0.000247519
-4.2866e-05
-0.00023205
-4.64043e-05
-0.000215421
-4.98749e-05
-0.000197702
-5.31151e-05
-0.000178954
-5.62244e-05
-0.000159321
-5.88719e-05
-0.000138889
-6.12393e-05
-0.000117823
-6.31551e-05
-9.63077e-05
-6.44992e-05
-7.44746e-05
-6.54237e-05
-5.25363e-05
-6.57646e-05
-3.07015e-05
-6.54492e-05
-9.17505e-06
-6.45171e-05
1.17462e-05
-6.26897e-05
3.1881e-05
-6.03445e-05
5.10052e-05
-5.73345e-05
6.9058e-05
-5.40774e-05
8.57967e-05
-5.01584e-05
0.00010099
-4.55351e-05
0.000114468
-4.0402e-05
0.000126232
-3.52643e-05
0.000136019
-2.93084e-05
0.000143907
-2.36425e-05
0.000149734
-1.7471e-05
0.000153585
-1.15444e-05
0.000155424
-5.52964e-06
0.000155344
1.9166e-07
0.000153443
5.64721e-06
0.000149758
1.10141e-05
0.000144529
1.5649e-05
0.000137798
2.01142e-05
0.000129854
2.37929e-05
0.000120723
2.73381e-05
0.000110723
2.9966e-05
9.98807e-05
3.24806e-05
8.84371e-05
3.42857e-05
7.65537e-05
3.55764e-05
6.4451e-05
3.62675e-05
5.23216e-05
3.63478e-05
4.02025e-05
3.63145e-05
2.82547e-05
3.58065e-05
1.6708e-05
3.4604e-05
5.50645e-06
3.35775e-05
-5.1485e-06
3.19463e-05
-1.51578e-05
3.00199e-05
-2.45763e-05
2.82123e-05
-3.31259e-05
2.56547e-05
-4.10794e-05
2.38717e-05
-4.81705e-05
2.13304e-05
-5.45556e-05
1.9143e-05
-5.99588e-05
1.61868e-05
-6.47653e-05
1.43687e-05
-6.86212e-05
1.16032e-05
-7.17985e-05
9.50159e-06
-7.39573e-05
6.45877e-06
-7.55102e-05
4.42802e-06
-7.62311e-05
2.17955e-06
-7.63863e-05
1.93726e-06
-7.5091e-05
3.65566e-07
-7.20565e-05
-2.52245e-06
-6.62959e-05
-9.04157e-06
-5.57803e-05
-1.70271e-05
-2.69079e-05
-4.27423e-05
-0.000411851
-8.1213e-05
-0.000389302
-9.00552e-05
-0.000366159
-9.24285e-05
-0.000341988
-9.64987e-05
-0.000317526
-9.76525e-05
-0.000292461
-0.000100021
-0.000267574
-9.9304e-05
-0.000242728
-9.91196e-05
-0.000218696
-9.58652e-05
-0.000195436
-9.27747e-05
-0.00017367
-8.68139e-05
-0.000153417
-8.07783e-05
-0.00013526
-7.24273e-05
-0.000119286
-6.37177e-05
-0.000105876
-5.34953e-05
-9.51531e-05
-4.27612e-05
-8.7273e-05
-3.13592e-05
-8.23127e-05
-1.9766e-05
-8.03772e-05
-7.97211e-06
-8.11086e-05
2.71883e-06
-8.4195e-05
1.22123e-05
-8.97028e-05
2.18871e-05
-9.72973e-05
3.02238e-05
-0.000107051
3.88392e-05
-0.00011843
4.53396e-05
-0.000131572
5.23776e-05
-0.00014584
5.68914e-05
-0.00016142
6.21389e-05
-0.000177652
6.47618e-05
-0.000194752
6.82416e-05
-0.000212092
6.92192e-05
-0.000229904
7.11177e-05
-0.000247629
7.07899e-05
-0.000265545
7.15633e-05
-0.000283392
7.13056e-05
-0.000300816
6.9625e-05
-0.000318006
6.86988e-05
-0.000334626
6.6429e-05
-0.000350845
6.48301e-05
-0.000366395
6.21628e-05
-0.000381416
6.00568e-05
-0.000395702
5.71178e-05
-0.000409367
5.46425e-05
-0.000422252
5.15283e-05
-0.000434456
4.88086e-05
-0.000445858
4.56027e-05
-0.000456544
4.27458e-05
-0.000466422
3.95114e-05
-0.000475567
3.65798e-05
-0.000483902
3.33389e-05
-0.000491497
3.03792e-05
-0.000498306
2.72347e-05
-0.000504277
2.39003e-05
-0.000509441
2.07115e-05
-0.000513708
1.73586e-05
-0.000517005
1.42808e-05
-0.000519329
1.09009e-05
-0.000520594
7.43876e-06
-0.000521066
2.84434e-06
-0.000521028
-3.30921e-06
-0.000519619
-8.50068e-06
-0.00051664
-1.22811e-05
-0.000512532
-1.6554e-05
-0.000507344
-2.07649e-05
-0.000501146
-2.47887e-05
-0.000494004
-2.85575e-05
-0.000486014
-3.19399e-05
-0.000477411
-3.43942e-05
-0.000468305
-3.63997e-05
-0.000458579
-3.88761e-05
-0.000448204
-4.1471e-05
-0.000437272
-4.3706e-05
-0.000425837
-4.57149e-05
-0.000413887
-4.7777e-05
-0.000401583
-4.91882e-05
-0.00038884
-5.09451e-05
-0.000375887
-5.1782e-05
-0.00036261
-5.30774e-05
-0.000349276
-5.33026e-05
-0.000335767
-5.40037e-05
-0.000322354
-5.36171e-05
-0.000308918
-5.37252e-05
-0.000295706
-5.28337e-05
-0.000282565
-5.25676e-05
-0.000269709
-5.14433e-05
-0.000256908
-5.12431e-05
-0.00024436
-5.02543e-05
-0.000231749
-5.05194e-05
-0.000219293
-4.99266e-05
-0.000206544
-5.10907e-05
-0.000193416
-5.2581e-05
-0.000179929
-5.40071e-05
-0.000165719
-5.6821e-05
-0.000151001
-5.88223e-05
-0.000135564
-6.16521e-05
-0.000119663
-6.34288e-05
-0.000103348
-6.50676e-05
-8.6957e-05
-6.53122e-05
-7.06775e-05
-6.48157e-05
-5.4944e-05
-6.26451e-05
-4.00617e-05
-5.92403e-05
-2.64638e-05
-5.41258e-05
-1.44092e-05
-4.79444e-05
-4.32203e-06
-4.00699e-05
3.53514e-06
-3.13311e-05
8.90979e-06
-2.13489e-05
1.16888e-05
-1.12818e-05
1.18186e-05
-4.5168e-07
9.30402e-06
1.00493e-05
4.03187e-06
2.0958e-05
-3.74724e-06
3.10348e-05
-1.4078e-05
4.11635e-05
-2.66367e-05
5.01076e-05
-4.13258e-05
5.85183e-05
-5.77214e-05
6.54131e-05
-7.56649e-05
7.14311e-05
-9.46624e-05
7.57403e-05
-0.000114481
7.89991e-05
-0.000134612
8.03257e-05
-0.000154785
8.05077e-05
-0.000174555
7.88513e-05
-0.000193728
7.64248e-05
-0.000212014
7.30104e-05
-0.000229208
6.86731e-05
-0.000245184
6.38695e-05
-0.000259797
5.83415e-05
-0.000273089
5.32121e-05
-0.000284991
4.76672e-05
-0.00029563
4.2603e-05
-0.000304929
3.72552e-05
-0.000313178
3.31122e-05
-0.000320253
2.82949e-05
-0.000326448
2.49142e-05
-0.000331688
2.10199e-05
-0.000336296
1.84606e-05
-0.000340091
1.52662e-05
-0.000343419
1.32724e-05
-0.000346141
1.089e-05
-0.000348417
9.10373e-06
-0.000350312
7.48214e-06
-0.00035177
5.86172e-06
-0.00035293
4.67339e-06
-0.000353687
3.15443e-06
-0.000354192
2.05308e-06
-0.000354301
5.18448e-07
-0.00035412
-7.00635e-07
-0.000353528
-2.42768e-06
-0.000352558
-3.90486e-06
-0.000351111
-5.83912e-06
-0.000349167
-7.85457e-06
-0.000346643
-1.01198e-05
-0.000343494
-1.26795e-05
-0.000339616
-1.55648e-05
-0.000334973
-1.86114e-05
-0.000329469
-2.20816e-05
-0.000323048
-2.57078e-05
-0.000315646
-2.96475e-05
-0.0003072
-3.38174e-05
-0.000297675
-3.81695e-05
-0.000286989
-4.2758e-05
-0.000275124
-4.74532e-05
-0.000262024
-5.24217e-05
-0.000247724
-5.71655e-05
-0.000232279
-6.18487e-05
-0.000215646
-6.65083e-05
-0.000197876
-7.08845e-05
-0.00017912
-7.49809e-05
-0.000159473
-7.85188e-05
-0.000139005
-8.1707e-05
-0.000117909
-8.4251e-05
-9.63739e-05
-8.6034e-05
-7.44956e-05
-8.73019e-05
-5.2528e-05
-8.7732e-05
-3.06748e-05
-8.73023e-05
-9.10176e-06
-8.60899e-05
1.18703e-05
-8.36617e-05
3.20462e-05
-8.05203e-05
5.11844e-05
-7.64726e-05
6.92747e-05
-7.21676e-05
8.60474e-05
-6.69309e-05
0.000101276
-6.07635e-05
0.000114768
-5.38944e-05
0.000126544
-4.704e-05
0.000136364
-3.91279e-05
0.000144255
-3.15339e-05
0.000150091
-2.33064e-05
0.000153952
-1.54054e-05
0.000155767
-7.34462e-06
0.000155654
3.04792e-07
0.000153723
7.57811e-06
0.000150023
1.47141e-05
0.000144771
2.09014e-05
0.000137997
2.68881e-05
0.000130038
3.17515e-05
0.000120859
3.65171e-05
0.000110847
3.99784e-05
9.99808e-05
4.33467e-05
8.8513e-05
4.57536e-05
7.65984e-05
4.74911e-05
6.44537e-05
4.84122e-05
5.23149e-05
4.84866e-05
4.01615e-05
4.8468e-05
2.81808e-05
4.77872e-05
1.66277e-05
4.61571e-05
5.40943e-06
4.47958e-05
-5.24893e-06
4.26047e-05
-1.52686e-05
4.00396e-05
-2.47116e-05
3.76552e-05
-3.32659e-05
3.4209e-05
-4.12108e-05
3.18166e-05
-4.8266e-05
2.83856e-05
-5.46804e-05
2.55574e-05
-6.0112e-05
2.16184e-05
-6.49344e-05
1.91911e-05
-6.87487e-05
1.54174e-05
-7.19429e-05
1.26959e-05
-7.40823e-05
8.59817e-06
-7.55906e-05
5.93636e-06
-7.60864e-05
2.67532e-06
-7.59037e-05
1.7546e-06
-7.44428e-05
-1.09541e-06
-7.14247e-05
-5.5405e-06
-6.62748e-05
-1.41915e-05
-5.86566e-05
-2.46452e-05
-3.63136e-05
-4.92509e-05
-0.000412111
-0.00010156
-0.00038952
-0.000112647
-0.000366336
-0.000115613
-0.000342112
-0.000120723
-0.000317596
-0.00012217
-0.000292462
-0.000125155
-0.000267508
-0.000124259
-0.000242586
-0.000124042
-0.000218478
-0.000119973
-0.000195142
-0.000116112
-0.000173304
-0.000108652
-0.000152984
-0.000101099
-0.000134768
-9.06434e-05
-0.000118746
-7.97408e-05
-0.000105297
-6.69449e-05
-9.45462e-05
-5.35121e-05
-8.66474e-05
-3.92585e-05
-8.16875e-05
-2.47264e-05
-7.97741e-05
-9.88589e-06
-8.05338e-05
3.47808e-06
-8.36534e-05
1.53315e-05
-8.92015e-05
2.74348e-05
-9.68398e-05
3.78617e-05
-0.000106644
4.86427e-05
-0.000118073
5.67691e-05
-0.000131269
6.55724e-05
-0.000145588
7.12103e-05
-0.000161219
7.77701e-05
-0.000177499
8.1041e-05
-0.000194645
8.53869e-05
-0.000212025
8.65996e-05
-0.000229874
8.89663e-05
-0.000247631
8.85469e-05
-0.000265575
8.95068e-05
-0.000283447
8.91774e-05
-0.000300891
8.70693e-05
-0.000318099
8.59061e-05
-0.000334733
8.30636e-05
-0.000350964
8.10608e-05
-0.000366524
7.77228e-05
-0.000381555
7.5087e-05
-0.000395847
7.14099e-05
-0.000409517
6.83128e-05
-0.000422406
6.44171e-05
-0.000434612
6.10148e-05
-0.000446015
5.70052e-05
-0.000456701
5.34326e-05
-0.000466579
4.93889e-05
-0.000475724
4.57247e-05
-0.000484059
4.16744e-05
-0.000491656
3.79759e-05
-0.000498466
3.40447e-05
-0.000504439
2.98731e-05
-0.000509602
2.58741e-05
-0.000513862
2.16188e-05
-0.000517174
1.75928e-05
-0.000519502
1.32287e-05
-0.00052082
8.75722e-06
-0.000521358
3.3823e-06
-0.000521246
-3.42076e-06
-0.000519766
-9.98108e-06
-0.000516819
-1.52282e-05
-0.000512723
-2.06501e-05
-0.000507538
-2.59494e-05
-0.000501339
-3.09878e-05
-0.000494193
-3.57039e-05
-0.000486197
-3.99353e-05
-0.00047759
-4.30016e-05
-0.000468476
-4.55138e-05
-0.000458742
-4.86103e-05
-0.000448359
-5.18531e-05
-0.000437419
-5.46465e-05
-0.000425977
-5.71563e-05
-0.00041402
-5.97348e-05
-0.000401709
-6.1499e-05
-0.000388958
-6.36961e-05
-0.000375996
-6.47438e-05
-0.00036271
-6.63635e-05
-0.000349365
-6.66469e-05
-0.000335847
-6.75221e-05
-0.000322425
-6.70386e-05
-0.000308983
-6.71672e-05
-0.000295766
-6.60501e-05
-0.000282626
-6.5708e-05
-0.000269777
-6.42925e-05
-0.000256987
-6.40323e-05
-0.000244457
-6.27847e-05
-0.000231868
-6.31086e-05
-0.000219438
-6.23558e-05
-0.000206715
-6.38135e-05
-0.000193608
-6.56886e-05
-0.000180138
-6.74763e-05
-0.000165925
-7.10344e-05
-0.000151195
-7.35522e-05
-0.000135727
-7.71199e-05
-0.000119775
-7.93805e-05
-0.000103405
-8.1438e-05
-8.69346e-05
-8.17822e-05
-7.05718e-05
-8.11784e-05
-5.47608e-05
-7.84561e-05
-3.97749e-05
-7.42261e-05
-2.60975e-05
-6.78031e-05
-1.40057e-05
-6.00361e-05
-3.89939e-06
-5.01761e-05
4.02827e-06
-3.92587e-05
9.44231e-06
-2.67629e-05
1.22719e-05
-1.41114e-05
1.23844e-05
-5.64191e-07
9.87905e-06
1.25547e-05
4.61168e-06
2.62254e-05
-3.21134e-06
3.88578e-05
-1.35896e-05
5.15418e-05
-2.61915e-05
6.27095e-05
-4.09757e-05
7.33025e-05
-5.74278e-05
8.18652e-05
-7.54637e-05
8.94671e-05
-9.45351e-05
9.48117e-05
-0.000114421
9.88851e-05
-0.000134624
0.000100529
-0.000154875
0.000100758
-0.0001747
9.86773e-05
-0.000193939
9.56636e-05
-0.000212258
9.13294e-05
-0.000229492
8.59066e-05
-0.000245479
7.98566e-05
-0.000260118
7.29802e-05
-0.000273399
6.64932e-05
-0.000285286
5.9555e-05
-0.000295908
5.32248e-05
-0.000305196
4.6543e-05
-0.000313412
4.1328e-05
-0.000320483
3.53665e-05
-0.000326642
3.10726e-05
-0.000331866
2.62443e-05
-0.000336465
2.30594e-05
-0.000340229
1.90302e-05
-0.000343552
1.65952e-05
-0.000346261
1.3599e-05
-0.000348537
1.13795e-05
-0.000350423
9.368e-06
-0.000351869
7.3083e-06
-0.000353041
5.84556e-06
-0.000353791
3.90417e-06
-0.000354286
2.54753e-06
-0.000354391
6.23741e-07
-0.000354211
-8.80757e-07
-0.000353631
-3.00727e-06
-0.000352668
-4.86743e-06
-0.000351234
-7.27377e-06
-0.000349311
-9.77766e-06
-0.000346794
-1.26363e-05
-0.000343665
-1.58086e-05
-0.000339808
-1.94218e-05
-0.000335174
-2.32455e-05
-0.000329692
-2.75629e-05
-0.00032328
-3.21194e-05
-0.000315891
-3.70364e-05
-0.000307456
-4.22532e-05
-0.000297943
-4.76821e-05
-0.000287299
-5.34014e-05
-0.000275394
-5.93586e-05
-0.000262313
-6.55028e-05
-0.000248023
-7.14555e-05
-0.000232517
-7.73537e-05
-0.000215874
-8.31517e-05
-0.00019814
-8.8618e-05
-0.000179345
-9.37757e-05
-0.000159664
-9.81999e-05
-0.000139162
-0.000102209
-0.000118023
-0.00010539
-9.64498e-05
-0.000107607
-7.45245e-05
-0.000109227
-5.25148e-05
-0.000109742
-3.06114e-05
-0.000109206
-8.99254e-06
-0.000107709
1.20378e-05
-0.000104692
3.22644e-05
-0.000100747
5.14455e-05
-9.56535e-05
6.95593e-05
-9.02813e-05
8.63694e-05
-8.3741e-05
0.000101643
-7.60373e-05
0.000115166
-6.74168e-05
0.000126948
-5.88223e-05
0.000136816
-4.89959e-05
0.000144697
-3.94149e-05
0.000150546
-2.91549e-05
0.000154407
-1.9267e-05
0.000156193
-9.13047e-06
0.000156067
4.31117e-07
0.000154096
9.54941e-06
0.000150375
1.84345e-05
0.000145091
2.61858e-05
0.000138266
3.37133e-05
0.000130286
3.97311e-05
0.000121054
4.57496e-05
0.000111011
5.00208e-05
0.000100099
5.42597e-05
8.86052e-05
5.72469e-05
7.66523e-05
5.9444e-05
6.44628e-05
6.06017e-05
5.23067e-05
6.06427e-05
4.0113e-05
6.06617e-05
2.80944e-05
5.98059e-05
1.65325e-05
5.7719e-05
5.28507e-06
5.60432e-05
-5.37566e-06
5.32655e-05
-1.54117e-05
5.00756e-05
-2.48736e-05
4.71171e-05
-3.3449e-05
4.27845e-05
-4.13962e-05
3.97638e-05
-4.84268e-05
3.54162e-05
-5.48622e-05
3.19929e-05
-6.03207e-05
2.70769e-05
-6.51414e-05
2.40118e-05
-6.8914e-05
1.91901e-05
-7.21224e-05
1.59042e-05
-7.42677e-05
1.07435e-05
-7.58003e-05
7.46895e-06
-7.6243e-05
3.11808e-06
-7.58817e-05
1.39322e-06
-7.43066e-05
-2.67048e-06
-7.16752e-05
-8.17188e-06
-6.75598e-05
-1.83069e-05
-6.07577e-05
-3.14473e-05
-4.58169e-05
-5.12544e-05
-0.000412437
-0.000121934
-0.000389795
-0.00013529
-0.00036656
-0.000138849
-0.000342272
-0.000145012
-0.000317688
-0.000146755
-0.000292469
-0.000150375
-0.000267428
-0.0001493
-0.000242413
-0.000149059
-0.000218211
-0.000144176
-0.000194779
-0.000139545
-0.000172852
-0.00013058
-0.000152448
-0.000121504
-0.000134159
-0.000108933
-0.000118076
-9.58251e-05
-0.00010458
-8.04407e-05
-9.37998e-05
-6.4293e-05
-8.58906e-05
-4.71681e-05
-8.09374e-05
-2.96801e-05
-7.90365e-05
-1.17872e-05
-7.98178e-05
4.25896e-06
-8.29764e-05
1.84897e-05
-8.85744e-05
3.30324e-05
-9.62675e-05
4.55544e-05
-0.000106134
5.85089e-05
-0.000117627
6.8262e-05
-0.00013089
7.88345e-05
-0.000145273
8.55937e-05
-0.00016097
9.34659e-05
-0.000177308
9.73797e-05
-0.000194511
0.000102589
-0.000211942
0.00010403
-0.000229837
0.000106861
-0.000247634
0.000106344