/*--------------------------------*- C++ -*----------------------------------*\
| =========                 |                                                 |
| \\      /  F ield         | OpenFOAM: The Open Source CFD Toolbox           |
|  \\    /   O peration     | Version:  3.0.1                                 |
|   \\  /    A nd           | Web:      www.OpenFOAM.org                      |
|    \\/     M anipulation  |                                                 |
\*---------------------------------------------------------------------------*/
FoamFile
{
    version     2.0;
    format      ascii;
    class       volScalarField;
    location    "44.4";
    object      p_rgh;
}
// * * * * * * * * * * * * * * * * * * * * * * * * * * * * * * * * * * * * * //

dimensions      [1 -1 -2 0 0 0 0];

internalField   nonuniform List<scalar> 
21420
(
215.779
184.106
151.451
118.183
84.7694
51.5673
20.0019
-11.2498
-42.5148
-72.7588
-101.671
-129.043
-154.75
-178.714
-200.884
-221.243
-239.79
-256.545
-271.544
-284.823
-296.429
-306.411
-314.814
-321.681
-327.054
-330.969
-333.436
-334.439
-333.964
-332.066
-328.704
-323.886
-317.567
-309.721
-300.29
-289.229
-276.502
-262.052
-245.836
-227.829
-208.004
-186.358
-162.912
-137.688
-110.759
-82.247
-52.2857
-21.0236
11.1776
43.4503
76.8273
110.627
144.449
177.837
210.362
241.629
271.213
298.705
323.746
345.992
365.138
380.938
393.166
401.658
406.327
407.019
403.863
396.817
385.935
371.399
353.385
332.141
307.958
281.159
252.117
221.222
188.881
155.516
121.54
87.3614
53.3704
19.9468
-12.7278
-44.3692
-74.7441
-103.668
-130.996
-156.618
-180.463
-202.477
-222.628
-240.904
-257.306
-271.846
-284.542
-295.432
-304.562
-311.978
-317.736
-321.903
-324.547
-325.704
-325.411
-323.771
-320.783
-316.468
-310.834
-303.876
-295.578
-285.918
-274.87
-262.409
-248.506
-233.141
-216.295
-197.957
-178.13
-156.828
-134.083
-109.939
-84.4607
-57.7332
-29.8613
-0.973804
28.8395
59.2833
90.2098
121.383
152.536
183.373
213.572
242.787
270.658
296.815
320.888
342.516
361.356
377.097
389.463
398.226
403.227
404.267
401.434
394.686
384.064
369.735
351.896
330.802
306.757
280.109
251.248
220.587
188.558
155.606
122.172
88.6841
55.5488
23.1415
-8.2108
-38.2259
-66.6765
-93.3898
-118.243
-141.167
-162.13
-181.143
-198.247
-213.505
-226.997
-238.812
-249.045
-257.792
-265.137
-271.163
-275.946
-279.55
-282.048
-283.468
-283.838
-283.243
-281.681
-279.178
-275.75
-271.403
-266.137
-259.942
-252.801
-244.678
-235.537
-225.335
-214.017
-201.525
-187.802
-172.79
-156.437
-138.695
-119.527
-98.9101
-76.8408
-53.3358
-28.439
-2.22776
25.1891
53.74
83.1025
113.124
143.542
174.055
204.33
234.002
262.687
289.989
315.502
338.83
359.592
377.438
392.054
403.18
410.611
414.184
413.842
409.587
401.529
389.752
374.484
356.003
334.63
310.725
284.691
256.943
227.902
197.986
167.592
137.096
106.837
77.1116
48.1837
20.2441
-6.53394
-32.0275
-56.1512
-78.8507
-100.098
-119.889
-138.229
-155.143
-170.664
-184.83
-197.69
-209.293
-219.7
-228.969
-237.152
-244.302
-250.459
-255.661
-259.931
-263.281
-265.718
-267.241
-267.823
-267.429
-266.067
-263.679
-260.224
-255.651
-249.888
-242.875
-234.538
-224.784
-213.532
-200.71
-186.244
-170.104
-152.267
-132.712
-111.441
-88.4891
-63.9714
-38.0149
-10.9463
16.7257
53.8409
86.6352
120.743
155.15
189.308
222.873
255.345
286.341
315.414
342.13
366.133
387.052
404.542
418.341
428.198
433.895
435.283
433.99
428.72
419.383
406.027
388.777
367.834
343.513
316.232
286.416
254.528
221.038
186.413
151.122
115.605
80.2797
45.5121
10.9591
-21.7894
-53.1731
-82.9895
-111.09
-137.362
-161.726
-184.139
-204.583
-223.059
-239.586
-254.19
-266.908
-277.783
-286.853
-294.16
-299.735
-303.641
-305.877
-306.404
-305.283
-302.458
-297.945
-291.742
-283.795
-274.08
-262.556
-249.18
-233.902
-216.688
-197.492
-176.281
-153.051
-127.796
-100.53
-71.322
-40.2525
-7.89653
9.09899
39.909
72.5336
105.897
215.813
184.124
151.451
118.166
84.7379
51.5219
19.9517
-11.3139
-42.586
-72.8352
-101.751
-129.125
-154.833
-178.796
-200.965
-221.323
-239.867
-256.62
-271.615
-284.892
-296.495
-306.475
-314.875
-321.741
-327.112
-331.025
-333.493
-334.495
-334.022
-332.123
-328.762
-323.945
-317.627
-309.784
-300.355
-289.298
-276.573
-262.126
-245.912
-227.907
-208.084
-186.44
-162.993
-137.769
-110.838
-82.323
-52.3567
-21.0873
11.1217
43.3994
76.7885
110.602
144.44
177.843
210.386
241.671
271.273
298.782
323.84
346.101
365.261
381.073
393.309
401.809
406.484
407.174
404.01
396.962
386.073
371.527
353.5
332.241
308.042
281.225
252.164
221.25
188.891
155.509
121.516
87.3225
53.3184
19.8858
-12.7977
-44.4468
-74.8276
-103.756
-131.086
-156.71
-180.555
-202.569
-222.72
-240.995
-257.396
-271.934
-284.628
-295.516
-304.644
-312.057
-317.812
-321.977
-324.618
-325.771
-325.479
-323.837
-320.848
-316.533
-310.899
-303.942
-295.646
-285.987
-274.941
-262.481
-248.58
-233.217
-216.371
-198.035
-178.208
-156.907
-134.161
-110.015
-84.5353
-57.8049
-29.9292
-1.03637
28.7813
59.2328
90.1681
121.352
152.517
183.367
213.579
242.81
270.697
296.871
320.96
342.604
361.46
377.214
389.59
398.363
403.369
404.415
401.575
394.823
384.194
369.854
352.002
330.893
306.83
280.164
251.285
220.604
188.556
155.586
122.135
88.6319
55.4831
23.0643
-8.29702
-38.319
-66.7742
-93.49
-118.345
-141.267
-162.229
-181.239
-198.339
-213.593
-227.081
-238.891
-249.12
-257.863
-265.205
-271.228
-276.007
-279.61
-282.106
-283.522
-283.892
-283.296
-281.733
-279.229
-275.801
-271.455
-266.189
-259.995
-252.854
-244.733
-235.594
-225.395
-214.08
-201.591
-187.87
-172.861
-156.511
-138.771
-119.605
-98.9892
-76.9204
-53.4149
-28.5164
-2.302
25.1201
53.6746
83.0457
113.077
143.506
174.033
204.322
234.011
262.713
290.032
315.562
338.908
359.687
377.548
392.177
403.312
410.75
414.331
413.982
409.725
401.66
389.873
374.592
356.096
334.705
310.782
284.73
256.964
227.905
197.972
167.564
137.055
106.785
77.0509
48.1158
20.1713
-6.61013
-32.1056
-56.2301
-78.9294
-100.176
-119.965
-138.304
-155.216
-170.734
-184.898
-197.755
-209.356
-219.76
-229.027
-237.208
-244.355
-250.511
-255.712
-259.982
-263.331
-265.768
-267.292
-267.873
-267.481
-266.12
-263.734
-260.281
-255.71
-249.949
-242.939
-234.605
-224.855
-213.606
-200.787
-186.324
-170.184
-152.348
-132.794
-111.522
-88.569
-64.0472
-38.0822
-10.992
16.7309
53.7039
86.5544
120.697
155.123
189.298
222.88
255.37
286.385
315.477
342.212
366.234
387.171
404.678
418.49
428.359
434.065
435.454
434.153
428.887
419.544
406.177
388.912
367.951
343.611
316.309
286.472
254.563
221.053
186.409
151.1
115.568
80.2288
45.4496
10.8915
-21.8645
-53.254
-83.0742
-111.176
-137.449
-161.813
-184.225
-204.667
-223.141
-239.666
-254.267
-266.983
-277.856
-286.924
-294.228
-299.803
-303.708
-305.939
-306.469
-305.348
-302.524
-298.012
-291.811
-283.866
-274.153
-262.632
-249.258
-233.984
-216.773
-197.579
-176.37
-153.142
-127.889
-100.625
-71.4213
-40.3611
-8.01382
9.08963
39.8826
72.5023
105.871
215.883
184.158
151.45
118.133
84.6747
51.4311
19.8511
-11.4421
-42.7285
-72.9882
-101.911
-129.29
-154.999
-178.962
-201.128
-221.482
-240.022
-256.769
-271.759
-285.03
-296.628
-306.603
-314.999
-321.86
-327.228
-331.139
-333.606
-334.608
-334.137
-332.236
-328.877
-324.063
-317.749
-309.91
-300.486
-289.434
-276.715
-262.273
-246.064
-228.064
-208.245
-186.602
-163.157
-137.932
-110.996
-82.4748
-52.4983
-21.2144
11.0101
43.298
76.7111
110.552
144.42
177.858
210.435
241.756
271.393
298.938
324.029
346.321
365.508
381.342
393.597
402.11
406.791
407.491
404.308
397.252
386.35
371.783
353.731
332.443
308.211
281.359
252.262
221.312
188.917
155.5
121.475
87.2526
53.2237
19.7742
-12.9259
-44.589
-74.98
-103.915
-131.25
-156.876
-180.721
-202.734
-222.883
-241.155
-257.552
-272.086
-284.776
-295.66
-304.782
-312.189
-317.94
-322.1
-324.736
-325.881
-325.589
-323.944
-320.955
-316.639
-311.007
-304.052
-295.758
-286.101
-275.059
-262.603
-248.706
-233.345
-216.503
-198.168
-178.343
-157.042
-134.295
-110.147
-84.6633
-57.9275
-30.044
-1.14081
28.6853
59.1522
90.105
121.309
152.497
183.373
213.614
242.876
270.795
297.002
321.125
342.801
361.687
377.467
389.865
398.655
403.668
404.731
401.875
395.116
384.473
370.112
352.234
331.094
306.997
280.295
251.377
220.658
188.573
155.568
122.084
88.5498
55.3745
22.9334
-8.44571
-38.481
-66.9449
-93.6654
-118.521
-141.442
-162.399
-181.403
-198.495
-213.741
-227.219
-239.021
-249.241
-257.976
-265.311
-271.328
-276.102
-279.7
-282.192
-283.601
-283.972
-283.372
-281.808
-279.304
-275.875
-271.529
-266.265
-260.073
-252.935
-244.817
-235.683
-225.489
-214.179
-201.696
-187.981
-172.978
-156.633
-138.898
-119.736
-99.1228
-77.0551
-53.5487
-28.6473
-2.42668
25.0055
53.5674
82.9553
113.006
143.458
174.01
204.329
234.049
262.785
290.139
315.705
339.085
359.897
377.787
392.441
403.596
411.048
414.646
414.281
410.02
401.942
390.134
374.827
356.301
334.876
310.916
284.827
257.025
227.932
197.966
167.529
136.994
106.702
76.9512
48.0022
20.0482
-6.73958
-32.2387
-56.3643
-79.0626
-100.307
-120.093
-138.428
-155.335
-170.849
-185.007
-197.859
-209.455
-219.854
-229.115
-237.291
-244.435
-250.588
-255.787
-260.055
-263.404
-265.841
-267.367
-267.947
-267.56
-266.202
-263.818
-260.371
-255.804
-250.049
-243.047
-234.72
-224.977
-213.735
-200.922
-186.465
-170.33
-152.497
-132.944
-111.672
-88.7177
-64.1888
-38.2082
-11.0764
16.7516
53.4337
86.4003
120.609
155.074
189.282
222.898
255.422
286.474
315.605
342.378
366.438
387.412
404.951
418.792
428.682
434.405
435.813
434.485
429.221
419.867
406.478
389.183
368.187
343.807
316.463
286.584
254.634
221.084
186.401
151.058
115.494
80.1269
45.3223
10.7585
-22.0146
-53.4159
-83.2436
-111.35
-137.625
-161.988
-184.398
-204.836
-223.306
-239.826
-254.422
-267.133
-278.001
-287.065
-294.366
-299.939
-303.841
-306.065
-306.6
-305.478
-302.656
-298.147
-291.948
-284.008
-274.299
-262.783
-249.416
-234.147
-216.941
-197.753
-176.548
-153.325
-128.076
-100.816
-71.6197
-40.5781
-8.25261
9.07515
39.8292
72.4392
105.821
215.987
184.21
151.45
118.084
84.5799
51.2948
19.6999
-11.6348
-42.9424
-73.2178
-102.152
-129.537
-155.248
-179.21
-201.372
-221.721
-240.254
-256.993
-271.975
-285.237
-296.828
-306.795
-315.184
-322.039
-327.402
-331.308
-333.775
-334.779
-334.31
-332.406
-329.05
-324.24
-317.932
-310.099
-300.683
-289.639
-276.928
-262.494
-246.293
-228.299
-208.485
-186.847
-163.403
-138.175
-111.234
-82.7027
-52.7108
-21.4052
10.8421
43.1456
76.5948
110.477
144.392
177.879
210.508
241.883
271.574
299.172
324.313
346.651
365.878
381.746
394.028
402.561
407.249
407.965
404.759
397.689
386.766
372.169
354.078
332.746
308.464
281.56
252.408
221.404
188.956
155.488
121.415
87.1482
53.082
19.6077
-13.1174
-44.8014
-75.2077
-104.153
-131.494
-157.123
-180.968
-202.979
-223.125
-241.394
-257.786
-272.313
-284.997
-295.873
-304.988
-312.387
-318.129
-322.282
-324.909
-326.045
-325.753
-324.103
-321.111
-316.796
-311.165
-304.213
-295.923
-286.271
-275.234
-262.784
-248.892
-233.536
-216.698
-198.366
-178.543
-157.242
-134.494
-110.342
-84.8527
-58.1085
-30.2136
-1.2949
28.5443
59.0343
90.0133
121.247
152.47
183.386
213.67
242.978
270.946
297.203
321.376
343.1
362.03
377.85
390.282
399.096
404.122
405.205
402.331
395.561
384.896
370.503
352.585
331.399
307.25
280.494
251.52
220.744
188.602
155.544
122.009
88.43
55.2147
22.7401
-8.66575
-38.7209
-67.198
-93.9257
-118.783
-141.701
-162.652
-181.646
-198.727
-213.96
-227.425
-239.213
-249.421
-258.143
-265.468
-271.475
-276.241
-279.832
-282.318
-283.719
-284.09
-283.485
-281.918
-279.413
-275.984
-271.638
-266.376
-260.187
-253.053
-244.941
-235.814
-225.627
-214.326
-201.851
-188.145
-173.15
-156.813
-139.086
-119.929
-99.3204
-77.2545
-53.7469
-28.8409
-2.61106
24.8358
53.4098
82.8225
112.902
143.388
173.979
204.342
234.109
262.896
290.303
315.922
339.354
360.215
378.15
392.842
404.027
411.498
415.112
414.74
410.469
402.369
390.53
375.184
356.611
335.134
311.121
284.977
257.119
227.974
197.959
167.478
136.905
106.581
76.804
47.8343
19.866
-6.93141
-32.436
-56.5632
-79.2602
-100.501
-120.282
-138.612
-155.513
-171.019
-185.17
-198.014
-209.601
-219.992
-229.246
-237.415
-244.554
-250.702
-255.897
-260.164
-263.512
-265.95
-267.477
-268.056
-267.677
-266.322
-263.944
-260.503
-255.943
-250.197
-243.206
-234.89
-225.159
-213.927
-201.124
-186.676
-170.547
-152.718
-133.169
-111.896
-88.9407
-64.4017
-38.3984
-11.2066
16.7923
53.018
86.1726
120.479
155.001
189.257
222.923
255.501
286.608
315.797
342.628
366.745
387.772
405.361
419.243
429.168
434.914
436.333
434.991
429.725
420.353
406.93
389.589
368.54
344.101
316.694
286.752
254.739
221.129
186.389
150.994
115.383
79.9737
45.1304
10.5595
-22.2401
-53.6589
-83.4979
-111.611
-137.888
-162.25
-184.657
-205.09
-223.553
-240.065
-254.654
-267.358
-278.219
-287.276
-294.572
-300.142
-304.04
-306.255
-306.795
-305.674
-302.853
-298.348
-292.155
-284.221
-274.519
-263.011
-249.651
-234.391
-217.194
-198.013
-176.816
-153.599
-128.355
-101.101
-71.9168
-40.9031
-8.62196
9.06456
39.748
72.3433
105.744
216.126
184.279
151.45
118.017
84.4531
51.1129
19.4976
-11.8922
-43.2278
-73.5242
-102.473
-129.866
-155.581
-179.541
-201.699
-222.04
-240.563
-257.292
-272.263
-285.514
-297.093
-307.05
-315.43
-322.278
-327.634
-331.534
-333.998
-335.009
-334.539
-332.633
-329.28
-324.476
-318.175
-310.352
-300.945
-289.911
-277.213
-262.789
-246.597
-228.613
-208.806
-187.173
-163.73
-138.5
-111.551
-83.007
-52.9943
-21.6598
10.6172
42.942
76.4392
110.377
144.353
177.907
210.605
242.052
271.816
299.484
324.692
347.09
366.372
382.285
394.602
403.161
407.861
408.59
405.367
398.273
387.322
372.683
354.541
333.149
308.802
281.828
252.604
221.527
189.008
155.471
121.333
87.0083
52.892
19.3855
-13.3729
-45.085
-75.5116
-104.47
-131.819
-157.452
-181.297
-203.307
-223.448
-241.711
-258.096
-272.616
-285.291
-296.158
-305.262
-312.649
-318.381
-322.523
-325.138
-326.268
-325.97
-324.314
-321.32
-317.005
-311.376
-304.428
-296.142
-286.497
-275.468
-263.024
-249.139
-233.789
-216.957
-198.63
-178.809
-157.509
-134.758
-110.602
-85.1051
-58.3496
-30.4395
-1.50077
28.3573
58.8776
89.8914
121.166
152.435
183.403
213.745
243.114
271.148
297.472
321.711
343.5
362.49
378.363
390.839
399.686
404.731
405.831
402.947
396.156
385.461
371.026
353.055
331.806
307.59
280.761
251.711
220.858
188.642
155.512
121.91
88.2703
55.0017
22.4825
-8.95916
-39.0409
-67.5355
-94.2728
-119.133
-142.047
-162.989
-181.971
-199.037
-214.252
-227.698
-239.47
-249.661
-258.367
-265.677
-271.672
-276.426
-280.009
-282.484
-283.877
-284.245
-283.635
-282.065
-279.559
-276.129
-271.784
-266.523
-260.339
-253.21
-245.105
-235.988
-225.811
-214.52
-202.057
-188.363
-173.38
-157.054
-139.335
-120.186
-99.5839
-77.5202
-54.011
-29.0989
-2.85705
24.6086
53.2007
82.6456
112.763
143.295
173.938
204.359
234.19
263.045
290.522
316.212
339.714
360.64
378.634
393.377
404.602
412.099
415.725
415.361
411.072
402.939
391.06
375.661
357.026
335.48
311.394
285.176
257.245
228.03
197.95
167.411
136.787
106.419
76.6077
47.6103
19.6228
-7.18725
-32.6991
-56.8284
-79.5237
-100.761
-120.535
-138.857
-155.749
-171.246
-185.386
-198.219
-209.796
-220.176
-229.42
-237.58
-244.711
-250.853
-256.044
-260.308
-263.656
-266.094
-267.622
-268.204
-267.832
-266.482
-264.111
-260.68
-256.128
-250.395
-243.418
-235.117
-225.401
-214.184
-201.393
-186.957
-170.837
-153.015
-133.469
-112.196
-89.2387
-64.6865
-38.6545
-11.3877
16.8469
52.4611
85.8764
120.308
154.904
189.224
222.957
255.605
286.786
316.052
342.96
367.153
388.253
405.907
419.846
429.815
435.592
437.035
435.68
430.4
421.003
407.533
390.131
369.01
344.492
317.003
286.976
254.879
221.188
186.373
150.908
115.235
79.7692
44.8732
10.2944
-22.5411
-53.9833
-83.8372
-111.959
-138.239
-162.6
-185.002
-205.428
-223.883
-240.385
-254.964
-267.657
-278.509
-287.558
-294.847
-300.413
-304.303
-306.512
-307.055
-305.934
-303.117
-298.616
-292.43
-284.504
-274.812
-263.314
-249.966
-234.717
-217.53
-198.361
-177.173
-153.965
-128.728
-101.482
-72.3119
-41.335
-9.13686
9.07279
39.6371
72.2132
105.641
216.299
184.365
151.449
117.933
84.2943
50.8865
19.2422
-12.2149
-43.5852
-73.9078
-102.875
-130.278
-155.996
-179.955
-202.106
-222.438
-240.95
-257.665
-272.622
-285.86
-297.425
-307.37
-315.738
-322.576
-327.924
-331.817
-334.275
-335.298
-334.823
-332.915
-329.568
-324.77
-318.48
-310.667
-301.273
-290.253
-277.568
-263.157
-246.978
-229.005
-209.207
-187.58
-164.14
-138.907
-111.948
-83.388
-53.3489
-21.9782
10.3346
42.6869
76.2439
110.252
144.304
177.941
210.727
242.263
272.117
299.874
325.166
347.64
366.989
382.959
395.322
403.912
408.628
409.364
406.132
399.006
388.017
373.327
355.12
333.654
309.225
282.163
252.848
221.68
189.072
155.449
121.231
86.8324
52.6528
19.1079
-13.6931
-45.4403
-75.8924
-104.868
-132.227
-157.864
-181.709
-203.716
-223.853
-242.109
-258.485
-272.995
-285.659
-296.514
-305.605
-312.978
-318.696
-322.824
-325.423
-326.548
-326.241
-324.578
-321.581
-317.266
-311.64
-304.696
-296.417
-286.78
-275.759
-263.324
-249.448
-234.107
-217.281
-198.96
-179.142
-157.843
-135.09
-110.927
-85.4209
-58.6512
-30.7227
-1.75932
28.1239
58.6815
89.7385
121.064
152.391
183.424
213.838
243.285
271.4
297.807
322.13
344
363.065
379.005
391.536
400.424
405.493
406.609
403.722
396.902
386.169
371.68
353.643
332.317
308.014
281.094
251.949
221.001
188.691
155.471
121.786
88.0699
54.7345
22.1596
-9.32685
-39.4418
-67.9583
-94.7075
-119.571
-142.48
-163.411
-182.377
-199.423
-214.617
-228.041
-239.79
-249.96
-258.646
-265.938
-271.917
-276.658
-280.229
-282.693
-284.076
-284.44
-283.823
-282.249
-279.741
-276.31
-271.966
-266.708
-260.529
-253.406
-245.311
-236.205
-226.041
-214.764
-202.315
-188.635
-173.667
-157.355
-139.648
-120.509
-99.9137
-77.8528
-54.3419
-29.422
-3.16557
24.3231
52.9396
82.4239
112.59
143.177
173.886
204.38
234.291
263.231
290.796
316.575
340.163
361.172
379.24
394.046
405.321
412.852
416.492
416.135
411.828
403.654
391.722
376.257
357.545
335.912
311.735
285.425
257.403
228.099
197.938
167.326
136.638
106.216
76.3614
47.3297
19.3181
-7.50778
-33.0285
-57.1605
-79.8536
-101.085
-120.851
-139.163
-156.046
-171.53
-185.657
-198.476
-210.04
-220.407
-229.637
-237.787
-244.908
-251.043
-256.228
-260.489
-263.836
-266.274
-267.803
-268.391
-268.025
-266.682
-264.321
-260.9
-256.361
-250.643
-243.684
-235.401
-225.704
-214.506
-201.731
-187.31
-171.201
-153.386
-133.844
-112.572
-89.612
-65.0442
-38.9786
-11.6262
16.8738
51.8028
85.5191
120.097
154.782
189.181
222.997
255.733
287.008
316.37
343.375
367.664
388.855
406.591
420.6
430.625
436.44
437.897
436.548
431.248
421.815
408.287
390.809
369.599
344.982
317.388
287.255
255.054
221.262
186.352
150.8
115.048
79.5129
44.551
9.96211
-22.9183
-54.3895
-84.262
-112.394
-138.678
-163.037
-185.434
-205.852
-224.295
-240.785
-255.351
-268.032
-278.871
-287.91
-295.19
-300.749
-304.631
-306.836
-307.38
-306.26
-303.446
-298.951
-292.773
-284.858
-275.178
-263.693
-250.359
-235.124
-217.951
-198.795
-177.62
-154.421
-129.193
-101.957
-72.8041
-41.8714
-9.78399
9.08632
39.4931
72.047
105.509
216.507
184.468
151.446
117.832
84.103
50.617
18.931
-12.6035
-44.0148
-74.3689
-103.357
-130.774
-156.496
-180.452
-202.596
-222.917
-241.414
-258.114
-273.054
-286.274
-297.824
-307.753
-316.108
-322.933
-328.271
-332.156
-334.61
-335.642
-335.162
-333.254
-329.913
-325.124
-318.845
-311.046
-301.667
-290.662
-277.994
-263.6
-247.435
-229.476
-209.689
-188.07
-164.632
-139.395
-112.426
-83.8461
-53.7751
-22.3604
9.99311
42.3799
76.0086
110.1
144.244
177.982
210.871
242.516
272.479
300.342
325.734
348.3
367.731
383.769
396.185
404.815
409.55
410.292
407.05
399.888
388.852
374.099
355.816
334.26
309.733
282.565
253.141
221.863
189.148
155.421
121.107
86.6198
52.3635
18.7747
-14.0783
-45.8678
-76.3503
-105.346
-132.716
-158.36
-182.205
-204.207
-224.339
-242.586
-258.953
-273.45
-286.101
-296.942
-306.017
-313.373
-319.074
-323.185
-325.768
-326.885
-326.565
-324.895
-321.894
-317.579
-311.957
-305.018
-296.747
-287.12
-276.109
-263.685
-249.82
-234.488
-217.671
-199.356
-179.542
-158.244
-135.488
-111.318
-85.8004
-59.014
-31.0635
-2.07083
27.8436
58.4453
89.5543
120.94
152.337
183.449
213.949
243.489
271.702
298.21
322.633
344.6
363.755
379.775
392.373
401.312
406.411
407.541
404.652
397.798
387.019
372.466
354.348
332.929
308.524
281.494
252.235
221.172
188.75
155.421
121.636
87.8282
54.4125
21.7706
-9.76947
-39.9241
-68.4669
-95.2303
-120.097
-143
-163.918
-182.865
-199.888
-215.056
-228.452
-240.175
-250.32
-258.981
-266.251
-272.212
-276.936
-280.493
-282.942
-284.316
-284.673
-284.049
-282.471
-279.959
-276.527
-272.184
-266.931
-260.757
-253.642
-245.558
-236.466
-226.317
-215.056
-202.625
-188.963
-174.012
-157.716
-140.023
-120.897
-100.31
-78.2526
-54.7399
-29.8106
-3.53717
23.9789
52.6258
82.1571
112.38
143.036
173.823
204.404
234.411
263.453
291.124
317.01
340.703
361.811
379.968
394.851
406.186
413.757
417.415
417.063
412.735
404.514
392.518
376.974
358.168
336.431
312.145
285.723
257.591
228.182
197.923
167.222
136.458
105.971
76.0646
46.9919
18.9513
-7.89342
-33.4247
-57.5595
-80.2501
-101.474
-121.231
-139.532
-156.401
-171.871
-185.983
-198.786
-210.332
-220.684
-229.899
-238.034
-245.145
-251.271
-256.449
-260.706
-264.052
-266.491
-268.021
-268.614
-268.257
-266.923
-264.573
-261.164
-256.639
-250.941
-244.004
-235.742
-226.067
-214.893
-202.136
-187.732
-171.637
-153.831
-134.295
-113.024
-90.0607
-65.4756
-39.3725
-11.9281
16.8303
51.0818
85.1091
119.847
154.636
189.129
223.045
255.887
287.273
316.751
343.873
368.277
389.577
407.413
421.507
431.599
437.459
438.928
437.592
432.269
422.792
409.192
391.623
370.305
345.569
317.85
287.589
255.263
221.35
186.325
150.67
114.824
79.2045
44.1648
9.5608
-23.3722
-54.8778
-84.7724
-112.916
-139.205
-163.563
-185.953
-206.359
-224.79
-241.265
-255.816
-268.482
-279.307
-288.333
-295.601
-301.153
-305.024
-307.225
-307.77
-306.65
-303.841
-299.353
-293.186
-285.283
-275.617
-264.149
-250.831
-235.613
-218.457
-199.316
-178.156
-154.97
-129.752
-102.526
-73.3924
-42.5088
-10.5488
9.09029
39.3114
71.8426
105.348
216.75
184.588
151.443
117.712
83.8787
50.3056
18.5613
-13.0583
-44.5168
-74.9078
-103.922
-131.353
-157.08
-181.033
-203.168
-223.475
-241.956
-258.637
-273.558
-286.758
-298.289
-308.2
-316.539
-323.351
-328.677
-332.552
-335
-336.041
-335.556
-333.648
-330.315
-325.536
-319.27
-311.487
-302.126
-291.14
-278.492
-264.116
-247.969
-230.026
-210.252
-188.642
-165.207
-139.966
-112.984
-84.3819
-54.2734
-22.8071
9.59316
42.0203
75.7326
109.922
144.174
178.028
211.04
242.81
272.9
300.888
326.397
349.071
368.597
384.715
397.194
405.868
410.627
411.375
408.121
400.918
389.827
375.001
356.628
334.968
310.325
283.034
253.483
222.077
189.235
155.389
120.962
86.37
52.023
18.3857
-14.5289
-46.3681
-76.8861
-105.905
-133.289
-158.938
-182.784
-204.782
-224.906
-243.144
-259.498
-273.982
-286.618
-297.441
-306.497
-313.835
-319.516
-323.607
-326.17
-327.273
-326.942
-325.264
-322.26
-317.945
-312.326
-305.394
-297.132
-287.516
-276.518
-264.106
-250.254
-234.933
-218.126
-199.818
-180.009
-158.712
-135.953
-111.775
-86.244
-59.4383
-31.4622
-2.43585
27.5159
58.1688
89.3383
120.795
152.273
183.476
214.077
243.726
272.054
298.679
323.22
345.3
364.562
380.675
393.351
402.348
407.484
408.63
405.736
398.846
388.012
373.384
355.173
333.644
309.119
281.96
252.568
221.37
188.817
155.362
121.459
87.5443
54.0352
21.3149
-10.2877
-40.4887
-69.0621
-95.8417
-120.712
-143.608
-164.51
-183.435
-200.431
-215.568
-228.932
-240.624
-250.739
-259.372
-266.617
-272.556
-277.261
-280.801
-283.234
-284.596
-284.945
-284.313
-282.728
-280.214
-276.781
-272.439
-267.19
-261.022
-253.918
-245.847
-236.771
-226.639
-215.397
-202.987
-189.346
-174.414
-158.137
-140.462
-121.35
-100.773
-78.7201
-55.2052
-30.2652
-3.97211
23.5755
52.2589
81.8446
112.134
142.869
173.747
204.431
234.55
263.711
291.506
317.517
341.332
362.556
380.818
395.79
407.196
414.815
418.495
418.147
413.794
405.519
393.448
377.811
358.895
337.036
312.623
286.07
257.809
228.277
197.904
167.1
136.246
105.684
75.7167
46.5964
18.5222
-8.34465
-33.8878
-58.0259
-80.7133
-101.93
-121.675
-139.962
-156.816
-172.269
-186.363
-199.147
-210.674
-221.007
-230.204
-238.324
-245.421
-251.536
-256.707
-260.959
-264.303
-266.743
-268.276
-268.876
-268.528
-267.203
-264.866
-261.472
-256.965
-251.289
-244.376
-236.14
-226.493
-215.344
-202.609
-188.226
-172.146
-154.352
-134.821
-113.554
-90.5852
-65.9816
-39.838
-12.3001
16.6705
50.3399
84.6547
119.562
154.465
189.068
223.099
256.065
287.581
317.195
344.453
368.991
390.419
408.372
422.566
432.736
438.648
440.137
438.811
433.463
423.933
410.25
392.573
371.13
346.255
318.388
287.979
255.506
221.451
186.293
150.516
114.561
78.8438
43.7152
9.08858
-23.9038
-55.449
-85.3691
-113.527
-139.821
-164.177
-186.558
-206.952
-225.367
-241.826
-256.358
-269.006
-279.814
-288.825
-296.081
-301.622
-305.483
-307.68
-308.224
-307.106
-304.301
-299.822
-293.666
-285.779
-276.129
-264.68
-251.381
-236.183
-219.047
-199.925
-178.782
-155.61
-130.404
-103.19
-74.0756
-43.2434
-11.418
9.07089
39.0862
71.5971
105.157
217.027
184.724
151.438
117.573
83.6203
49.9528
18.1308
-13.5795
-45.0917
-75.5252
-104.568
-132.016
-157.748
-181.698
-203.822
-224.114
-242.576
-259.235
-274.133
-287.311
-298.82
-308.711
-317.032
-323.827
-329.14
-333.004
-335.447
-336.496
-336.004
-334.099
-330.774
-326.007
-319.757
-311.992
-302.651
-291.686
-279.06
-264.706
-248.579
-230.654
-210.896
-189.296
-165.865
-140.619
-113.623
-84.9958
-54.8446
-23.3204
9.13563
41.6074
75.4154
109.717
144.092
178.08
211.231
243.146
273.382
301.512
327.156
349.952
369.587
385.797
398.349
407.073
411.86
412.615
409.345
402.098
390.944
376.034
357.557
335.777
311.002
283.57
253.872
222.32
189.334
155.35
120.794
86.0824
51.6295
17.9414
-15.0455
-46.9419
-77.5002
-106.546
-133.944
-159.6
-183.446
-205.439
-225.555
-243.781
-260.122
-274.59
-287.208
-298.012
-307.047
-314.362
-320.021
-324.089
-326.63
-327.714
-327.373
-325.685
-322.677
-318.363
-312.747
-305.824
-297.573
-287.97
-276.985
-264.588
-250.75
-235.442
-218.646
-200.348
-180.544
-159.248
-136.484
-112.298
-86.7519
-59.9243
-31.9192
-2.85475
27.1404
57.8514
89.0898
120.627
152.198
183.506
214.223
243.996
272.455
299.215
323.89
346.101
365.484
381.705
394.47
403.535
408.714
409.877
406.976
400.047
389.149
374.435
356.116
334.462
309.799
282.493
252.947
221.596
188.892
155.293
121.255
87.2178
53.6017
20.7916
-10.8825
-41.1362
-69.7444
-96.5424
-121.417
-144.305
-165.189
-184.087
-201.051
-216.154
-229.482
-241.138
-251.218
-259.82
-267.035
-272.949
-277.632
-281.152
-283.568
-284.917
-285.255
-284.614
-283.023
-280.505
-277.07
-272.731
-267.486
-261.326
-254.233
-246.177
-237.118
-227.007
-215.788
-203.401
-189.783
-174.875
-158.62
-140.964
-121.868
-101.303
-79.2555
-55.7382
-30.7864
-4.47068
23.112
51.838
81.486
111.851
142.676
173.659
204.46
234.708
264.006
291.942
318.097
342.052
363.409
381.791
396.866
408.352
416.026
419.734
419.387
415.005
406.669
394.513
378.768
359.726
337.728
313.168
286.465
258.056
228.384
197.88
166.959
136.002
105.353
75.3168
46.1427
18.03
-8.8618
-34.4183
-58.56
-81.2436
-102.451
-122.183
-140.454
-157.291
-172.724
-186.798
-199.56
-211.064
-221.376
-230.553
-238.654
-245.736
-251.84
-257.001
-261.248
-264.59
-267.032
-268.568
-269.175
-268.836
-267.524
-265.202
-261.824
-257.337
-251.686
-244.801
-236.594
-226.979
-215.861
-203.151
-188.79
-172.728
-154.947
-135.424
-114.161
-91.1861
-66.5629
-40.3758
-12.7487
16.3853
49.5832
84.1623
119.241
154.27
188.996
223.159
256.265
287.931
317.701
345.115
369.808
391.383
409.47
423.778
434.038
440.011
441.527
440.208
434.832
425.24
411.46
393.66
372.072
347.038
319.003
288.424
255.782
221.566
186.254
150.338
114.259
78.4299
43.2027
8.54379
-24.514
-56.1036
-86.0524
-114.227
-140.527
-164.879
-187.251
-207.631
-226.027
-242.466
-256.978
-269.606
-280.395
-289.388
-296.629
-302.158
-306.008
-308.199
-308.743
-307.626
-304.827
-300.358
-294.215
-286.345
-276.715
-265.286
-252.01
-236.835
-219.721
-200.62
-179.497
-156.342
-131.149
-103.947
-74.8524
-44.0705
-12.3794
9.0156
38.8115
71.3076
104.933
217.339
184.877
151.432
117.414
83.3266
49.5585
17.6377
-14.167
-45.7398
-76.2214
-105.297
-132.763
-158.502
-182.447
-204.559
-224.833
-243.274
-259.909
-274.781
-287.934
-299.417
-309.285
-317.585
-324.363
-329.66
-333.513
-335.948
-337.004
-336.507
-334.606
-331.29
-326.537
-320.303
-312.559
-303.241
-292.301
-279.699
-265.37
-249.266
-231.362
-211.621
-190.033
-166.606
-141.355
-114.344
-85.6885
-55.4897
-23.9016
8.62081
41.1401
75.0566
109.484
143.998
178.136
211.445
243.523
273.923
302.213
328.009
350.945
370.703
387.016
399.649
408.432
413.25
414.012
410.723
403.428
392.202
377.197
358.603
336.688
311.764
284.173
254.31
222.592
189.443
155.305
120.603
85.7564
51.181
17.4425
-15.629
-47.59
-78.1932
-107.268
-134.683
-160.346
-184.192
-206.179
-226.285
-244.499
-260.825
-275.276
-287.873
-298.655
-307.666
-314.956
-320.589
-324.631
-327.147
-328.208
-327.856
-326.159
-323.146
-318.832
-313.221
-306.307
-298.069
-288.48
-277.511
-265.13
-251.308
-236.015
-219.232
-200.944
-181.147
-159.852
-137.084
-112.888
-87.3244
-60.4727
-32.4347
-3.328
26.7164
57.4927
88.8084
120.436
152.112
183.538
214.385
244.298
272.905
299.817
324.644
347.002
366.522
382.865
395.732
404.873
410.099
411.283
408.373
401.399
390.431
375.618
357.178
335.384
310.565
283.091
253.373
221.849
188.975
155.213
121.022
86.8477
53.111
20.2
-11.5545
-41.8677
-70.5146
-97.3332
-122.212
-145.09
-165.953
-184.821
-201.75
-216.814
-230.1
-241.715
-251.757
-260.323
-267.506
-273.391
-278.048
-281.547
-283.943
-285.277
-285.603
-284.953
-283.355
-280.833
-277.396
-273.058
-267.819
-261.667
-254.587
-246.548
-237.51
-227.422
-216.227
-203.866
-190.275
-175.393
-159.163
-141.53
-122.453
-101.9
-79.8591
-56.3393
-31.3746
-5.03345
22.5879
51.3626
81.0805
111.531
142.457
173.558
204.491
234.883
264.335
292.432
318.749
342.863
364.369
382.886
398.077
409.655
417.391
421.13
420.785
416.369
407.965
395.713
379.847
360.662
338.508
313.782
286.909
258.334