/*--------------------------------*- C++ -*----------------------------------*\
| =========                 |                                                 |
| \\      /  F ield         | OpenFOAM: The Open Source CFD Toolbox           |
|  \\    /   O peration     | Version:  3.0.1                                 |
|   \\  /    A nd           | Web:      www.OpenFOAM.org                      |
|    \\/     M anipulation  |                                                 |
\*---------------------------------------------------------------------------*/
FoamFile
{
    version     2.0;
    format      ascii;
    class       volVectorField;
    location    "25.4";
    object      U;
}
// * * * * * * * * * * * * * * * * * * * * * * * * * * * * * * * * * * * * * //

dimensions      [0 1 -1 0 0 0 0];

internalField   nonuniform List<vector> 
22680
(
(-0.0814319 -0.00106299 0)
(-0.07252 -0.00115357 0)
(-0.062446 -0.00122758 0)
(-0.0517493 -0.00130474 0)
(-0.0405045 -0.00136083 0)
(-0.0287935 -0.00142117 0)
(-0.0167479 -0.00145538 0)
(-0.00479226 -0.0014965 0)
(0.0079075 -0.00151933 0)
(0.0212348 -0.00153973 0)
(0.0341734 -0.00152391 0)
(0.0469913 -0.00151985 0)
(0.0596118 -0.00148061 0)
(0.0719381 -0.00145145 0)
(0.0838779 -0.00139068 0)
(0.0953373 -0.00132105 0)
(0.106234 -0.00125871 0)
(0.116495 -0.00117323 0)
(0.126053 -0.00109283 0)
(0.134853 -0.000995602 0)
(0.142847 -0.000901722 0)
(0.149997 -0.000797097 0)
(0.156275 -0.000694599 0)
(0.161662 -0.000586738 0)
(0.166149 -0.000480434 0)
(0.169733 -0.000372793 0)
(0.172416 -0.000266669 0)
(0.174206 -0.000161841 0)
(0.175092 -5.90215e-05 0)
(0.175085 3.88836e-05 0)
(0.174243 0.000138484 0)
(0.172583 0.000236489 0)
(0.170153 0.00033002 0)
(0.166953 0.00042192 0)
(0.163004 0.000512801 0)
(0.158322 0.000598333 0)
(0.15292 0.000685319 0)
(0.146817 0.000764656 0)
(0.140035 0.000847027 0)
(0.132601 0.000918592 0)
(0.124546 0.000994641 0)
(0.115906 0.00105608 0)
(0.106726 0.00112307 0)
(0.0970543 0.00117079 0)
(0.086953 0.00122466 0)
(0.0764908 0.00125452 0)
(0.0657492 0.00129018 0)
(0.0548188 0.0012995 0)
(0.0438039 0.00131323 0)
(0.0327864 0.00130096 0)
(0.021893 0.00129309 0)
(0.0111476 0.00127066 0)
(0.000529849 0.00123378 0)
(-0.00979291 0.00119547 0)
(-0.0196993 0.00114441 0)
(-0.0291573 0.00109322 0)
(-0.0381353 0.00103325 0)
(-0.0465961 0.000972958 0)
(-0.0545078 0.000907217 0)
(-0.0618533 0.000841553 0)
(-0.0686295 0.000773563 0)
(-0.0748354 0.000706315 0)
(-0.080473 0.000638451 0)
(-0.0855454 0.00057148 0)
(-0.0900556 0.00050377 0)
(-0.0940041 0.000436125 0)
(-0.0973868 0.000366807 0)
(-0.100199 0.000296063 0)
(-0.102431 0.000222974 0)
(-0.104065 0.000152078 0)
(-0.105052 8.34494e-05 0)
(-0.105442 9.8623e-06 0)
(-0.105204 -6.78842e-05 0)
(-0.104343 -0.000146823 0)
(-0.102842 -0.000220784 0)
(-0.100719 -0.000296156 0)
(-0.097983 -0.000365434 0)
(-0.0946452 -0.000435831 0)
(-0.0907343 -0.000498223 0)
(-0.0862847 -0.000561881 0)
(-0.0813822 -0.00061218 0)
(-0.0760317 -0.000663353 0)
(-0.0702683 -0.000701713 0)
(-0.0641578 -0.000739144 0)
(-0.0577625 -0.000768756 0)
(-0.0511377 -0.000794928 0)
(-0.0443446 -0.000809235 0)
(-0.037434 -0.00082478 0)
(-0.0303108 -0.000834164 0)
(-0.0232071 -0.000837712 0)
(-0.0160871 -0.000842652 0)
(-0.00883643 -0.000842751 0)
(-0.00174551 -0.000843907 0)
(0.00526875 -0.000841574 0)
(0.0123871 -0.000842499 0)
(0.0194967 -0.000838893 0)
(0.0266277 -0.000836964 0)
(0.0337087 -0.000832389 0)
(0.0407633 -0.000829628 0)
(0.0478139 -0.000820945 0)
(0.0547752 -0.000819846 0)
(0.0616858 -0.000806135 0)
(0.0685114 -0.000797661 0)
(0.0752374 -0.000783699 0)
(0.081812 -0.000766799 0)
(0.0881887 -0.000743612 0)
(0.0943915 -0.000719336 0)
(0.100387 -0.000687228 0)
(0.106052 -0.000646773 0)
(0.111363 -0.000604878 0)
(0.116252 -0.000547594 0)
(0.120665 -0.000493719 0)
(0.124548 -0.000420735 0)
(0.127833 -0.000352907 0)
(0.130466 -0.000267128 0)
(0.132396 -0.000186803 0)
(0.133568 -9.18343e-05 0)
(0.133963 -3.55175e-06 0)
(0.133555 0.00010125 0)
(0.132296 0.000191064 0)
(0.130208 0.000297723 0)
(0.127352 0.000382934 0)
(0.123734 0.000483876 0)
(0.119247 0.00056943 0)
(0.114079 0.00065145 0)
(0.108299 0.000725136 0)
(0.101879 0.000800634 0)
(0.0947895 0.000868768 0)
(0.0872216 0.000925911 0)
(0.0791874 0.00097523 0)
(0.070808 0.00101108 0)
(0.0621265 0.00104425 0)
(0.0532255 0.00106349 0)
(0.0441725 0.00107775 0)
(0.035038 0.00108209 0)
(0.0259142 0.00108148 0)
(0.0168409 0.00106633 0)
(0.00790426 0.00105001 0)
(-0.000840389 0.00102105 0)
(-0.0093252 0.00098955 0)
(-0.0175038 0.000949487 0)
(-0.0253256 0.000903371 0)
(-0.03274 0.000852906 0)
(-0.0396983 0.000797881 0)
(-0.0461876 0.000740097 0)
(-0.0521796 0.000680027 0)
(-0.0576566 0.000617565 0)
(-0.0626108 0.000555227 0)
(-0.0670344 0.000492576 0)
(-0.0709377 0.000432977 0)
(-0.0743443 0.000374434 0)
(-0.0772811 0.000319228 0)
(-0.0797765 0.000269003 0)
(-0.0818369 0.000219954 0)
(-0.0834989 0.000174762 0)
(-0.0848022 0.000133293 0)
(-0.0857637 9.37559e-05 0)
(-0.0863967 5.69624e-05 0)
(-0.0867215 2.18918e-05 0)
(-0.0867508 -1.3425e-05 0)
(-0.086476 -5.18975e-05 0)
(-0.0858987 -8.97731e-05 0)
(-0.0849828 -0.000122913 0)
(-0.0837335 -0.000166606 0)
(-0.0821751 -0.000206313 0)
(-0.0802398 -0.000249481 0)
(-0.0779273 -0.000296048 0)
(-0.0752524 -0.000341651 0)
(-0.0721477 -0.000388942 0)
(-0.0686689 -0.000433627 0)
(-0.0648008 -0.000483216 0)
(-0.0605429 -0.000526884 0)
(-0.0558884 -0.000577572 0)
(-0.0508233 -0.000621746 0)
(-0.045342 -0.00067061 0)
(-0.0395331 -0.000709919 0)
(-0.0332924 -0.000765704 0)
(-0.0267015 -0.000802318 0)
(-0.0197241 -0.000851928 0)
(-0.0123329 -0.000888968 0)
(-0.0046628 -0.000923121 0)
(0.00319777 -0.000939095 0)
(0.0112172 -0.000967146 0)
(0.0195054 -0.000987435 0)
(0.0278722 -0.00099905 0)
(0.0363945 -0.00101642 0)
(0.0449437 -0.00101066 0)
(0.0534852 -0.00101131 0)
(0.0619557 -0.000990291 0)
(0.0702451 -0.000972516 0)
(0.0783174 -0.000936664 0)
(0.0860559 -0.000896197 0)
(0.0934148 -0.000845425 0)
(0.100307 -0.000786958 0)
(0.106684 -0.000723831 0)
(0.112498 -0.000653875 0)
(0.117693 -0.000577042 0)
(0.122238 -0.000498809 0)
(0.12609 -0.000414273 0)
(0.129236 -0.000329325 0)
(0.131643 -0.000237406 0)
(0.133252 -0.000144202 0)
(0.134091 -5.43205e-05 0)
(0.134147 3.87954e-05 0)
(0.133465 0.000120665 0)
(0.13205 0.000213121 0)
(0.129943 0.00028724 0)
(0.127147 0.000374136 0)
(0.123705 0.000440219 0)
(0.119671 0.000512804 0)
(0.115151 0.000560053 0)
(0.110166 0.000623493 0)
(0.104705 0.000662689 0)
(0.0989248 0.000698594 0)
(0.0930101 0.000701638 0)
(0.0869904 0.000717671 0)
(0.0809932 0.000702544 0)
(0.0751424 0.000642292 0)
(0.0697287 0.000554549 0)
(0.0653947 0.000561447 0)
(0.0611518 0.000826217 0)
(0.0538049 0.00123182 0)
(0.0420035 0.00214146 0)
(0.0210298 0.00205125 0)
(0.000295375 -0.00284216 0)
(-0.0814742 -0.00318931 0)
(-0.0725594 -0.00346109 0)
(-0.0624815 -0.00368318 0)
(-0.0517812 -0.00391473 0)
(-0.0405319 -0.00408305 0)
(-0.0288164 -0.00426414 0)
(-0.0167654 -0.00436681 0)
(-0.00480781 -0.00449022 0)
(0.00789757 -0.00455847 0)
(0.0212337 -0.00461988 0)
(0.0341781 -0.00457237 0)
(0.0470018 -0.00456025 0)
(0.0596277 -0.00444252 0)
(0.0719598 -0.00435499 0)
(0.0839045 -0.00417264 0)
(0.0953681 -0.00396367 0)
(0.10627 -0.00377663 0)
(0.116534 -0.00352011 0)
(0.126096 -0.00327889 0)
(0.134898 -0.00298709 0)
(0.142895 -0.00270539 0)
(0.150046 -0.00239147 0)
(0.156325 -0.00208393 0)
(0.161713 -0.00176034 0)
(0.1662 -0.00144137 0)
(0.169783 -0.00111834 0)
(0.172466 -0.000800086 0)
(0.174255 -0.000484775 0)
(0.175141 -0.000176084 0)
(0.175134 0.000116057 0)
(0.174287 0.000415831 0)
(0.172629 0.00070955 0)
(0.170198 0.00099017 0)
(0.166997 0.00126587 0)
(0.163047 0.00153851 0)
(0.158364 0.00179512 0)
(0.15296 0.00205609 0)
(0.146856 0.00229411 0)
(0.140073 0.00254125 0)
(0.132637 0.00275597 0)
(0.12458 0.00298416 0)
(0.115938 0.00316852 0)
(0.106755 0.00336956 0)
(0.0970804 0.00351278 0)
(0.0869754 0.00367448 0)
(0.0765087 0.0037641 0)
(0.0657623 0.00387114 0)
(0.0548269 0.00389912 0)
(0.0438065 0.0039403 0)
(0.0327843 0.00390345 0)
(0.021886 0.00387997 0)
(0.011136 0.0038125 0)
(0.000514912 0.00370183 0)
(-0.00981171 0.00358678 0)
(-0.0197209 0.00343361 0)
(-0.0291816 0.00328002 0)
(-0.0381616 0.00310009 0)
(-0.0466242 0.00291926 0)
(-0.0545373 0.00272206 0)
(-0.0618838 0.00252476 0)
(-0.0686606 0.00232079 0)
(-0.0748669 0.00211913 0)
(-0.0805047 0.00191576 0)
(-0.0855776 0.00171464 0)
(-0.0900883 0.00151152 0)
(-0.0940375 0.00130841 0)
(-0.0974214 0.00109998 0)
(-0.100235 0.000888548 0)
(-0.102467 0.000670714 0)
(-0.104103 0.000457838 0)
(-0.105094 0.000251552 0)
(-0.105483 2.90507e-05 0)
(-0.105246 -0.000204067 0)
(-0.104385 -0.000440427 0)
(-0.102884 -0.000662297 0)
(-0.100761 -0.000888516 0)
(-0.0980242 -0.00109656 0)
(-0.0946855 -0.00130777 0)
(-0.0907735 -0.0014951 0)
(-0.0863213 -0.00168502 0)
(-0.0814163 -0.00183747 0)
(-0.0760636 -0.00199086 0)
(-0.0702972 -0.00210582 0)
(-0.0641848 -0.00221829 0)
(-0.0577867 -0.00230675 0)
(-0.0511577 -0.00238491 0)
(-0.0443617 -0.00242903 0)
(-0.0374485 -0.00247476 0)
(-0.0303241 -0.00250392 0)
(-0.0232164 -0.00251326 0)
(-0.0160948 -0.00252816 0)
(-0.00884227 -0.00252864 0)
(-0.00174999 -0.00253279 0)
(0.005266 -0.00252555 0)
(0.0123861 -0.0025278 0)
(0.019497 -0.00251659 0)
(0.0266293 -0.00251124 0)
(0.0337121 -0.00249837 0)
(0.040767 -0.0024896 0)
(0.0478196 -0.00246419 0)
(0.0547826 -0.00246074 0)
(0.0616969 -0.00241767 0)
(0.0685226 -0.00239305 0)
(0.0752514 -0.00235054 0)
(0.0818311 -0.00230117 0)
(0.0882126 -0.00223324 0)
(0.0944189 -0.0021583 0)
(0.100415 -0.00206486 0)
(0.106081 -0.00194364 0)
(0.1114 -0.00181255 0)
(0.11629 -0.00164487 0)
(0.120711 -0.00148093 0)
(0.124599 -0.00126241 0)
(0.127889 -0.00105889 0)
(0.130527 -0.000802351 0)
(0.132461 -0.00056075 0)
(0.13364 -0.000272432 0)
(0.134036 -1.20707e-05 0)
(0.133624 0.000302889 0)
(0.132367 0.000572806 0)
(0.130276 0.000892615 0)
(0.127418 0.00114477 0)
(0.123798 0.00145022 0)
(0.119308 0.00170761 0)
(0.114137 0.00195733 0)
(0.108358 0.00217449 0)
(0.101935 0.0024065 0)
(0.0948379 0.00260588 0)
(0.0872645 0.00278005 0)
(0.0792228 0.00292677 0)
(0.0708384 0.00303405 0)
(0.0621515 0.00313393 0)
(0.0532451 0.00319292 0)
(0.0441871 0.00323534 0)
(0.0350469 0.00324856 0)
(0.0259159 0.00324421 0)
(0.0168376 0.00320154 0)
(0.00789707 0.00315308 0)
(-0.000854348 0.00306467 0)
(-0.00934451 0.00296908 0)
(-0.017529 0.00284764 0)
(-0.0253547 0.00271043 0)
(-0.0327722 0.00255977 0)
(-0.0397331 0.00239339 0)
(-0.046225 0.00221999 0)
(-0.0522181 0.00203828 0)
(-0.0576945 0.0018543 0)
(-0.0626498 0.00166606 0)
(-0.0670755 0.00147661 0)
(-0.0709798 0.00129825 0)
(-0.074386 0.00112507 0)
(-0.0773209 0.000959107 0)
(-0.0798149 0.000807118 0)
(-0.0818731 0.000660301 0)
(-0.083532 0.000526313 0)
(-0.0848335 0.000400858 0)
(-0.0857942 0.000281588 0)
(-0.0864275 0.000170874 0)
(-0.0867517 6.46969e-05 0)
(-0.0867823 -4.11203e-05 0)
(-0.0865103 -0.000155407 0)
(-0.0859339 -0.000271247 0)
(-0.0850193 -0.000369863 0)
(-0.0837734 -0.000501173 0)
(-0.0822164 -0.000620179 0)
(-0.0802816 -0.000750704 0)
(-0.07797 -0.000887801 0)
(-0.0752947 -0.00102513 0)
(-0.072189 -0.00116646 0)
(-0.0687101 -0.00129998 0)
(-0.0648414 -0.00144912 0)
(-0.0605856 -0.00158351 0)
(-0.0559286 -0.00173101 0)
(-0.0508619 -0.00186469 0)
(-0.0453801 -0.00201417 0)
(-0.0395729 -0.00212988 0)
(-0.0333345 -0.00229804 0)
(-0.0267417 -0.00240747 0)
(-0.0197649 -0.00255614 0)
(-0.0123685 -0.00266436 0)
(-0.00469354 -0.00277342 0)
(0.00316821 -0.00281793 0)
(0.011184 -0.0029003 0)
(0.019478 -0.00296687 0)
(0.0278497 -0.00299891 0)
(0.0363791 -0.00304853 0)
(0.044934 -0.0030326 0)
(0.0534787 -0.00303748 0)
(0.0619547 -0.00297313 0)
(0.0702485 -0.00292019 0)
(0.0783273 -0.00280936 0)
(0.0860692 -0.00269003 0)
(0.0934364 -0.00253553 0)
(0.100337 -0.00236185 0)
(0.106724 -0.00216886 0)
(0.112546 -0.00195926 0)
(0.117745 -0.00172912 0)
(0.122291 -0.00149643 0)
(0.126144 -0.0012396 0)
(0.129293 -0.000988437 0)
(0.131703 -0.00071418 0)
(0.133312 -0.000432173 0)
(0.134152 -0.000165799 0)
(0.134205 0.000115052 0)
(0.133519 0.000362151 0)
(0.132105 0.000636788 0)
(0.13 0.000861484 0)
(0.127202 0.00112115 0)
(0.123759 0.00132259 0)
(0.11972 0.00153848 0)
(0.115201 0.0016804 0)
(0.110212 0.00187037 0)
(0.104743 0.00198528 0)
(0.0989595 0.00209847 0)
(0.0930408 0.00210764 0)
(0.0869967 0.00214729 0)
(0.0810338 0.00209437 0)
(0.0753391 0.00201753 0)
(0.0695861 0.00176843 0)
(0.064736 0.00142704 0)
(0.0608299 0.00188679 0)
(0.0560913 0.00343415 0)
(0.047541 0.005352 0)
(0.0337367 0.00710471 0)
(0.0197959 0.00705341 0)
(-0.0815588 -0.0053167 0)
(-0.0726381 -0.00576983 0)
(-0.0625524 -0.00614009 0)
(-0.0518449 -0.00652618 0)
(-0.0405864 -0.00680688 0)
(-0.0288618 -0.00710894 0)
(-0.0168002 -0.00728001 0)
(-0.00483846 -0.00748496 0)
(0.00787818 -0.00760027 0)
(0.021232 -0.00770225 0)
(0.0341879 -0.00762288 0)
(0.0470233 -0.00760276 0)
(0.0596602 -0.00740643 0)
(0.0720039 -0.00726049 0)
(0.0839581 -0.0069564 0)
(0.0954304 -0.00660792 0)
(0.106341 -0.00629602 0)
(0.116612 -0.00586828 0)
(0.126182 -0.00546604 0)
(0.134989 -0.00497946 0)
(0.14299 -0.00450973 0)
(0.150144 -0.00398633 0)
(0.156426 -0.00347357 0)
(0.161814 -0.0029341 0)
(0.166302 -0.00240228 0)
(0.169884 -0.00186373 0)
(0.172567 -0.00133316 0)
(0.174353 -0.000807841 0)
(0.17524 -0.000294965 0)
(0.17523 0.000198691 0)
(0.174377 0.000695101 0)
(0.172719 0.001183 0)
(0.170286 0.0016507 0)
(0.167083 0.00211024 0)
(0.163132 0.00256461 0)
(0.158446 0.00299235 0)
(0.15304 0.00342737 0)
(0.146933 0.0038241 0)
(0.140147 0.00423609 0)
(0.132707 0.00459406 0)
(0.124646 0.00497451 0)
(0.115999 0.00528194 0)
(0.106811 0.00561721 0)
(0.0971285 0.0058561 0)
(0.0870157 0.00612582 0)
(0.0765399 0.00627536 0)
(0.0657836 0.00645391 0)
(0.0548379 0.00650059 0)
(0.0438065 0.00656915 0)
(0.0327749 0.00650758 0)
(0.0218665 0.00646856 0)
(0.0111073 0.0063554 0)
(0.000479661 0.00617144 0)
(-0.00985452 0.00597928 0)
(-0.0197691 0.00572377 0)
(-0.0292347 0.00546763 0)
(-0.0382184 0.00516763 0)
(-0.0466844 0.00486616 0)
(-0.0545997 0.0045374 0)
(-0.0619477 0.00420824 0)
(-0.0687251 0.00386808 0)
(-0.0749315 0.00353211 0)
(-0.0805693 0.0031932 0)
(-0.085642 0.00285815 0)
(-0.0901529 0.00251972 0)
(-0.0941026 0.00218137 0)
(-0.097487 0.00183428 0)
(-0.100301 0.00148285 0)
(-0.102534 0.00112109 0)
(-0.104171 0.000766632 0)
(-0.105171 0.000417219 0)
(-0.105558 4.18812e-05 0)
(-0.105319 -0.000342278 0)
(-0.104457 -0.000734394 0)
(-0.102955 -0.00110413 0)
(-0.100829 -0.00148139 0)
(-0.0980893 -0.00182823 0)
(-0.0947475 -0.00218047 0)
(-0.0908317 -0.00249274 0)
(-0.0863746 -0.00280875 0)
(-0.0814637 -0.00306443 0)
(-0.0761057 -0.0033193 0)
(-0.070333 -0.00351121 0)
(-0.0642171 -0.00369948 0)
(-0.0578132 -0.00384513 0)
(-0.0511774 -0.00397503 0)
(-0.0443762 -0.0040506 0)
(-0.0374596 -0.00412549 0)
(-0.0303306 -0.00417348 0)
(-0.0232212 -0.00418992 0)
(-0.0160971 -0.00421417 0)
(-0.00884189 -0.00421454 0)
(-0.00174869 -0.00422253 0)
(0.00526865 -0.00420938 0)
(0.0123895 -0.0042137 0)
(0.0195011 -0.00419563 0)
(0.0266353 -0.0041851 0)
(0.0337185 -0.00416517 0)
(0.0407756 -0.00415016 0)
(0.0478286 -0.00410704 0)
(0.0547943 -0.00410274 0)
(0.0617123 -0.00403076 0)
(0.0685363 -0.00399085 0)
(0.0752678 -0.00391886 0)
(0.0818569 -0.00383839 0)
(0.0882471 -0.00372404 0)
(0.0944589 -0.00359916 0)
(0.100458 -0.00343993 0)
(0.106121 -0.00323951 0)
(0.111445 -0.00302451 0)
(0.116337 -0.0027402 0)
(0.120768 -0.00247115 0)
(0.124664 -0.0021055 0)
(0.127965 -0.00176712 0)
(0.13061 -0.00133699 0)
(0.132549 -0.000938737 0)
(0.133731 -0.000455738 0)
(0.13413 -1.95377e-05 0)
(0.133711 0.000507501 0)
(0.132453 0.0009533 0)
(0.130353 0.00148906 0)
(0.127489 0.00191048 0)
(0.12387 0.00242011 0)
(0.119379 0.00284687 0)
(0.11421 0.00325984 0)
(0.108431 0.00362837 0)
(0.101999 0.00400927 0)
(0.09489 0.00434518 0)
(0.0873065 0.00463417 0)
(0.079255 0.00488002 0)
(0.0708648 0.00505889 0)
(0.0621702 0.0052246 0)
(0.0532562 0.00532147 0)
(0.0441903 0.00539506 0)
(0.035044 0.00541275 0)
(0.025904 0.00541106 0)
(0.0168179 0.00533691 0)
(0.007869 0.00525398 0)
(-0.000889638 0.0051093 0)
(-0.00938581 0.00494941 0)
(-0.0175776 0.00474766 0)
(-0.0254085 0.00451794 0)
(-0.032831 0.00426627 0)
(-0.0397952 0.0039897 0)
(-0.0462884 0.00370011 0)
(-0.0522805 0.00339766 0)
(-0.0577547 0.00308924 0)
(-0.062709 0.00277681 0)
(-0.0671349 0.00246112 0)
(-0.0710417 0.0021647 0)
(-0.07445 0.00187471 0)
(-0.0773801 0.00159701 0)
(-0.0798685 0.00134426 0)
(-0.081921 0.0011002 0)
(-0.083575 0.000875739 0)
(-0.0848733 0.000666503 0)
(-0.0858318 0.00046898 0)
(-0.0864659 0.000284887 0)
(-0.0867914 0.000106033 0)
(-0.0868235 -6.80698e-05 0)
(-0.0865573 -0.000259106 0)
(-0.08598 -0.000448603 0)
(-0.0850701 -0.000617535 0)
(-0.0838291 -0.00083502 0)
(-0.0822745 -0.00103101 0)
(-0.0803423 -0.00125119 0)
(-0.0780305 -0.00148159 0)
(-0.075356 -0.00170953 0)
(-0.0722467 -0.00194135 0)
(-0.0687686 -0.00216714 0)
(-0.064898 -0.00241618 0)
(-0.0606422 -0.00263937 0)
(-0.0559865 -0.00288416 0)
(-0.0509143 -0.00310902 0)
(-0.0454277 -0.00335545 0)
(-0.0396258 -0.00355053 0)
(-0.0333889 -0.00382912 0)
(-0.0267926 -0.00401084 0)
(-0.0198201 -0.00426407 0)
(-0.012418 -0.00444349 0)
(-0.00472782 -0.00462152 0)
(0.00313295 -0.00469857 0)
(0.0111375 -0.00483488 0)
(0.019451 -0.00494296 0)
(0.0278263 -0.00500128 0)
(0.0363684 -0.00508457 0)
(0.0449318 -0.0050567 0)
(0.0534846 -0.00506491 0)
(0.0619657 -0.00495469 0)
(0.0702649 -0.00486946 0)
(0.078353 -0.00468487 0)
(0.0861014 -0.00448502 0)
(0.0934805 -0.00422965 0)
(0.100394 -0.00394041 0)
(0.106795 -0.00361981 0)
(0.112629 -0.00326869 0)
(0.117832 -0.00288311 0)
(0.122376 -0.00249575 0)
(0.126222 -0.00206747 0)
(0.129371 -0.00164784 0)
(0.131788 -0.001191 0)
(0.133394 -0.000720221 0)
(0.134232 -0.00027574 0)
(0.134273 0.000195102 0)
(0.133582 0.000604261 0)
(0.132165 0.00106304 0)
(0.130059 0.00143571 0)
(0.127259 0.00187104 0)
(0.123811 0.00220226 0)
(0.11976 0.00256609 0)
(0.115237 0.00280196 0)
(0.110241 0.00312027 0)
(0.104771 0.00331102 0)
(0.0989799 0.00349837 0)
(0.0930648 0.00351803 0)
(0.0870075 0.00358163 0)
(0.0809843 0.00346569 0)
(0.0752551 0.00332898 0)
(0.0697652 0.00307125 0)
(0.0648968 0.00260306 0)
(0.0602977 0.00283631 0)
(0.0565262 0.00451263 0)
(0.0529129 0.00741305 0)
(0.0425183 0.00865049 0)
(0.0338599 0.0023069 0)
(-0.0816857 -0.00744589 0)
(-0.0727561 -0.0080806 0)
(-0.0626588 -0.0085992 0)
(-0.0519405 -0.00914007 0)
(-0.0406682 -0.00953338 0)
(-0.0289301 -0.00995676 0)
(-0.0168521 -0.0101961 0)
(-0.00488466 -0.010481 0)
(0.0078488 -0.010647 0)
(0.0212295 -0.0107883 0)
(0.0342026 -0.0106768 0)
(0.0470556 -0.0106488 0)
(0.0597089 -0.0103737 0)
(0.07207 -0.0101693 0)
(0.0840388 -0.00974319 0)
(0.095524 -0.00925487 0)
(0.106449 -0.00881789 0)
(0.11673 -0.00821856 0)
(0.12631 -0.007655 0)
(0.135124 -0.00697329 0)
(0.143133 -0.00631522 0)
(0.150291 -0.00558199 0)
(0.156577 -0.00486368 0)
(0.161966 -0.00410801 0)
(0.166455 -0.00336312 0)
(0.170037 -0.00260889 0)
(0.172718 -0.00186597 0)
(0.174502 -0.00113049 0)
(0.175386 -0.000411851 0)
(0.175373 0.000285208 0)
(0.174513 0.000977409 0)
(0.172856 0.00165716 0)
(0.170418 0.0023118 0)
(0.167212 0.00295528 0)
(0.163258 0.00359134 0)
(0.158568 0.0041903 0)
(0.15316 0.00479949 0)
(0.147048 0.00535495 0)
(0.140258 0.00593194 0)
(0.132812 0.00643329 0)
(0.124746 0.00696623 0)
(0.116091 0.00739695 0)
(0.106894 0.00786678 0)
(0.0972007 0.00820161 0)
(0.0870763 0.00857972 0)
(0.0765866 0.00878941 0)
(0.0658155 0.0090397 0)
(0.0548545 0.00910517 0)
(0.0438064 0.009201 0)
(0.0327606 0.00911451 0)
(0.0218371 0.00905998 0)
(0.0110643 0.00889999 0)
(0.000426855 0.00864387 0)
(-0.00991884 0.0083739 0)
(-0.0198413 0.00801559 0)
(-0.0293143 0.00765657 0)
(-0.0383036 0.00723627 0)
(-0.0467747 0.00681391 0)
(-0.0546933 0.00635338 0)
(-0.0620437 0.0058921 0)
(-0.0688217 0.0054157 0)
(-0.0750285 0.00494525 0)
(-0.080666 0.00447086 0)
(-0.0857388 0.004002 0)
(-0.0902501 0.00352864 0)
(-0.0942007 0.00305548 0)
(-0.0975862 0.00257023 0)
(-0.100402 0.00207985 0)
(-0.102634 0.00157464 0)
(-0.104272 0.00107754 0)
(-0.105284 0.000576668 0)
(-0.105668 4.90365e-05 0)
(-0.105429 -0.00048291 0)
(-0.104565 -0.00102906 0)
(-0.10306 -0.00154658 0)
(-0.100931 -0.00207502 0)
(-0.0981874 -0.00256086 0)
(-0.0948409 -0.00305424 0)
(-0.0909194 -0.00349166 0)
(-0.0864548 -0.00393407 0)
(-0.0815353 -0.00429306 0)
(-0.0761689 -0.00464952 0)
(-0.0703871 -0.00491858 0)
(-0.0642648 -0.00518228 0)
(-0.0578527 -0.00538505 0)
(-0.0512068 -0.00556621 0)
(-0.0443976 -0.00567404 0)
(-0.0374761 -0.00577739 0)
(-0.0303413 -0.00584476 0)
(-0.0232273 -0.00586664 0)
(-0.0160999 -0.0059008 0)
(-0.00884231 -0.0059012 0)
(-0.00174633 -0.00591276 0)
(0.00527196 -0.0058944 0)
(0.0123953 -0.00589958 0)
(0.0195067 -0.00587377 0)
(0.0266452 -0.00586027 0)
(0.0337276 -0.00583341 0)
(0.0407864 -0.00581052 0)
(0.0478434 -0.00575187 0)
(0.0548095 -0.00574544 0)
(0.0617357 -0.00564372 0)
(0.0685557 -0.00559071 0)
(0.0752954 -0.00548714 0)
(0.0818919 -0.00537805 0)
(0.0882921 -0.00521688 0)
(0.0945144 -0.0050404 0)
(0.100521 -0.00481673 0)
(0.106178 -0.00453535 0)
(0.111517 -0.00423484 0)
(0.116406 -0.00383989 0)
(0.120857 -0.00346375 0)
(0.124762 -0.00295252 0)
(0.128079 -0.00247882 0)
(0.130729 -0.00187606 0)
(0.132677 -0.00131797 0)
(0.133864 -0.000639765 0)
(0.134267 -2.40032e-05 0)
(0.133837 0.000713286 0)
(0.13259 0.00134028 0)
(0.13047 0.00208816 0)
(0.127596 0.00266974 0)
(0.12399 0.00339099 0)
(0.119492 0.00399253 0)
(0.114318 0.00456241 0)
(0.108517 0.00507771 0)
(0.102096 0.00562009 0)
(0.0949523 0.00609057 0)
(0.0873792 0.00649075 0)
(0.0793027 0.00683131 0)
(0.0709083 0.00708755 0)
(0.0621963 0.00731605 0)
(0.0532746 0.00745549 0)
(0.044197 0.00755605 0)
(0.0350367 0.00757985 0)
(0.0258879 0.00757784 0)
(0.0167876 0.00747585 0)
(0.00783058 0.00735767 0)
(-0.000942208 0.00715631 0)
(-0.00944514 0.00693121 0)
(-0.0176493 0.00664846 0)
(-0.025485 0.00632805 0)
(-0.0329183 0.00597422 0)
(-0.0398846 0.00558684 0)
(-0.0463811 0.00518035 0)
(-0.0523718 0.00475678 0)
(-0.0578459 0.00432571 0)
(-0.0627964 0.00388853 0)
(-0.067223 0.00344612 0)
(-0.0711317 0.00303163 0)
(-0.0745408 0.00262267 0)
(-0.0774669 0.00223381 0)
(-0.0799471 0.00187849 0)
(-0.0819942 0.00153948 0)
(-0.0836412 0.00122346 0)
(-0.0849342 0.000931694 0)
(-0.0858911 0.000655638 0)
(-0.0865247 0.000399039 0)
(-0.0868518 0.000147964 0)
(-0.0868831 -9.49937e-05 0)
(-0.0866227 -0.000359054 0)
(-0.0860494 -0.000622445 0)
(-0.0851429 -0.000866199 0)
(-0.083902 -0.0011662 0)
(-0.082357 -0.00144108 0)
(-0.0804282 -0.00175236 0)
(-0.0781111 -0.00207647 0)
(-0.0754451 -0.00239211 0)
(-0.0723232 -0.00271421 0)
(-0.0688588 -0.0030344 0)
(-0.0649726 -0.00338072 0)
(-0.0607251 -0.00370068 0)
(-0.0560711 -0.00403311 0)
(-0.0509904 -0.00435358 0)
(-0.0455052 -0.00470159 0)
(-0.0397033 -0.00496704 0)
(-0.0334614 -0.00536032 0)
(-0.0268698 -0.00561016 0)
(-0.0198941 -0.00597309 0)
(-0.0124935 -0.00622617 0)
(-0.00476594 -0.00647381 0)
(0.00307956 -0.00657573 0)
(0.0110595 -0.00676776 0)
(0.0194277 -0.00692529 0)
(0.0277849 -0.00700379 0)
(0.0363659 -0.00712231 0)
(0.0449253 -0.0070808 0)
(0.0534991 -0.00709383 0)
(0.0619868 -0.00694131 0)
(0.0702937 -0.0068189 0)
(0.0784008 -0.00656197 0)
(0.0861504 -0.00628432 0)
(0.0935561 -0.00592542 0)
(0.100479 -0.00552241 0)
(0.106894 -0.00507187 0)
(0.112739 -0.00458219 0)
(0.117951 -0.00403622 0)
(0.1225 -0.00349157 0)
(0.126328 -0.00289585 0)
(0.129482 -0.0023088 0)
(0.131922 -0.00166766 0)
(0.133513 -0.0010091 0)
(0.134358 -0.000379378 0)
(0.134381 0.000281463 0)
(0.133687 0.000850658 0)
(0.132258 0.0014885 0)
(0.130147 0.00200997 0)
(0.127344 0.00261812 0)
(0.123907 0.00309021 0)
(0.119828 0.00359655 0)
(0.115293 0.00392335 0)
(0.110281 0.00437019 0)
(0.104811 0.00463702 0)
(0.0990226 0.00490086 0)
(0.093086 0.00492575 0)
(0.0869948 0.00501929 0)
(0.0809683 0.00488207 0)
(0.075164 0.00465826 0)
(0.0695873 0.0042477 0)
(0.0649742 0.00362964 0)
(0.0603997 0.00390185 0)
(0.0563004 0.00539854 0)
(0.0545157 0.00828874 0)
(0.0493789 0.0108677 0)
(0.0401627 0.00982946 0)
(-0.0818549 -0.00957763 0)
(-0.0729136 -0.0103942 0)
(-0.0628007 -0.0110614 0)
(-0.0520681 -0.0117574 0)
(-0.0407774 -0.0122636 0)
(-0.0290211 -0.0128089 0)
(-0.0169211 -0.0131166 0)
(-0.00494663 -0.0134806 0)
(0.0078092 -0.0136994 0)
(0.0212266 -0.0138792 0)
(0.0342223 -0.0137356 0)
(0.0470988 -0.0136997 0)
(0.059774 -0.0133456 0)
(0.0721584 -0.0130826 0)
(0.0841464 -0.0125341 0)
(0.0956489 -0.0119055 0)
(0.106593 -0.0113431 0)
(0.116887 -0.0105717 0)
(0.126482 -0.00984646 0)
(0.135305 -0.00896911 0)
(0.143325 -0.00812229 0)
(0.150487 -0.00717876 0)
(0.156779 -0.00625445 0)
(0.162169 -0.00528219 0)
(0.16666 -0.00432387 0)
(0.170239 -0.00335373 0)
(0.172919 -0.00239819 0)
(0.174699 -0.0014522 0)
(0.17558 -0.000526359 0)
(0.175562 0.000374147 0)
(0.174697 0.00126093 0)
(0.173037 0.00213229 0)
(0.170595 0.00297371 0)
(0.167384 0.00380128 0)
(0.163427 0.00461894 0)
(0.158732 0.00538925 0)
(0.15332 0.00617277 0)
(0.147201 0.00688702 0)
(0.140406 0.00762919 0)
(0.132952 0.00827412 0)
(0.124879 0.00895987 0)
(0.116212 0.00951418 0)
(0.107005 0.010119 0)
(0.0972971 0.0105502 0)
(0.0871572 0.0110372 0)
(0.076649 0.0113074 0)
(0.0658581 0.0116298 0)
(0.0548765 0.0117142 0)
(0.0438061 0.0118371 0)
(0.0327416 0.0117255 0)
(0.0217976 0.0116554 0)
(0.011007 0.0114472 0)
(0.00035657 0.01112 0)
(-0.0100048 0.0107713 0)
(-0.0199377 0.0103096 0)
(-0.0294206 0.00984729 0)
(-0.0384173 0.00930633 0)
(-0.046895 0.00876278 0)
(-0.0548182 0.00817023 0)
(-0.0621717 0.00757651 0)
(-0.0689507 0.00696363 0)
(-0.0751577 0.00635863 0)
(-0.0807951 0.0057487 0)
(-0.085868 0.00514622 0)
(-0.0903801 0.00453796 0)
(-0.094332 0.0039303 0)
(-0.0977199 0.00330718 0)
(-0.100537 0.00267865 0)
(-0.102772 0.00202983 0)
(-0.104409 0.00138974 0)
(-0.105428 0.000735418 0)
(-0.105812 5.49518e-05 0)
(-0.105574 -0.000624702 0)
(-0.104708 -0.00132444 0)
(-0.1032 -0.00198987 0)
(-0.101068 -0.00266976 0)
(-0.0983182 -0.00329484 0)
(-0.0949654 -0.00392972 0)
(-0.0910368 -0.00449241 0)
(-0.086562 -0.00506109 0)
(-0.0816308 -0.00552409 0)
(-0.0762525 -0.00598204 0)
(-0.0704587 -0.00632833 0)
(-0.0643272 -0.00666815 0)
(-0.0579045 -0.00692644 0)
(-0.0512457 -0.00715933 0)
(-0.0444264 -0.00729977 0)
(-0.0374971 -0.00743066 0)
(-0.0303553 -0.00751711 0)
(-0.0232351 -0.00754445 0)
(-0.016103 -0.00758829 0)
(-0.00884215 -0.00758799 0)
(-0.0017427 -0.00760401 0)
(0.00527675 -0.00757954 0)
(0.0124033 -0.00758635 0)
(0.0195136 -0.0075506 0)
(0.0266584 -0.00753742 0)
(0.0337378 -0.00750141 0)
(0.0408014 -0.00747143 0)
(0.0478601 -0.00739717 0)
(0.0548269 -0.00738921 0)
(0.0617664 -0.00725596 0)
(0.0685745 -0.00719231 0)
(0.0753391 -0.00705598 0)
(0.0819297 -0.00692043 0)
(0.0883447 -0.00670999 0)
(0.0945816 -0.00648569 0)
(0.100606 -0.00619311 0)
(0.106236 -0.00583084 0)
(0.111629 -0.00545156 0)
(0.116493 -0.00493566 0)
(0.120992 -0.00446249 0)
(0.124876 -0.00379579 0)
(0.128237 -0.00319618 0)
(0.130868 -0.00241023 0)
(0.132857 -0.00170258 0)
(0.134024 -0.000817051 0)
(0.134458 -3.5619e-05 0)
(0.134001 0.000923491 0)
(0.132784 0.00172277 0)
(0.13064 0.00269842 0)
(0.127777 0.00342723 0)
(0.124143 0.00436628 0)
(0.119654 0.00513133 0)
(0.114477 0.00586592 0)
(0.108625 0.00653612 0)
(0.102225 0.00723289 0)
(0.0950308 0.00783944 0)
(0.0874894 0.00834617 0)
(0.0793624 0.00878905 0)
(0.0709746 0.00911967 0)
(0.0622314 0.00941621 0)
(0.0533001 0.0095876 0)
(0.0442099 0.00972472 0)
(0.0350261 0.0097506 0)
(0.0258711 0.00974781 0)
(0.0167459 0.00961772 0)
(0.00778282 0.00946608 0)
(-0.0010136 0.00920693 0)
(-0.00951905 0.00891681 0)
(-0.0177451 0.0085529 0)
(-0.0255802 0.00813953 0)
(-0.0330347 0.00768152 0)
(-0.0399992 0.00718805 0)
(-0.0465031 0.00666201 0)
(-0.0524927 0.0061153 0)
(-0.0579745 0.00555947 0)
(-0.0629142 0.00499951 0)
(-0.0673419 0.00443354 0)
(-0.0712562 0.00389727 0)
(-0.0746536 0.00337403 0)
(-0.0775844 0.00286827 0)
(-0.0800527 0.00240968 0)
(-0.082087 0.00197911 0)
(-0.0837373 0.00157106 0)
(-0.0850178 0.00119588 0)
(-0.0859733 0.000844048 0)
(-0.0865979 0.000514146 0)
(-0.0869346 0.000190212 0)
(-0.0869577 -0.000120404 0)
(-0.0867 -0.000456454 0)
(-0.086135 -0.000794884 0)
(-0.0852366 -0.00111944 0)
(-0.083984 -0.00149625 0)
(-0.0824541 -0.00184412 0)
(-0.080536 -0.00226071 0)
(-0.0782015 -0.00267076 0)
(-0.0755611 -0.00307255 0)
(-0.0724089 -0.00349273 0)
(-0.0689788 -0.00389629 0)
(-0.0650522 -0.00435148 0)
(-0.0608362 -0.00475492 0)
(-0.0561744 -0.0051819 0)
(-0.0510782 -0.00560196 0)
(-0.0456196 -0.00604287 0)
(-0.0397982 -0.0063867 0)
(-0.0335457 -0.00689357 0)
(-0.0269789 -0.00720192 0)
(-0.0199714 -0.00768656 0)
(-0.0125961 -0.00801252 0)
(-0.00481839 -0.00833176 0)
(0.00300101 -0.00844044 0)
(0.0109789 -0.00870927 0)
(0.0194121 -0.00891592 0)
(0.0277223 -0.00900489 0)
(0.0363719 -0.00916815 0)
(0.0448954 -0.00910349 0)
(0.053521 -0.00913412 0)
(0.0620156 -0.00892157 0)
(0.0703331 -0.00877842 0)
(0.0784748 -0.00843834 0)
(0.086203 -0.00808494 0)
(0.0936712 -0.00762985 0)
(0.100572 -0.00710374 0)
(0.107025 -0.00652891 0)
(0.112875 -0.00589398 0)
(0.118082 -0.00518845 0)
(0.122672 -0.0044907 0)
(0.126448 -0.00371066 0)
(0.12964 -0.00297659 0)
(0.132108 -0.0021456 0)
(0.133642 -0.00128716 0)
(0.134534 -0.000494308 0)
(0.134521 0.000374469 0)
(0.133858 0.00109148 0)
(0.132387 0.00192396 0)
(0.130293 0.002583 0)
(0.127456 0.00336834 0)
(0.124043 0.00397327 0)
(0.119947 0.00463666 0)
(0.115391 0.00504827 0)
(0.110335 0.00563151 0)
(0.104879 0.00595687 0)
(0.0990911 0.00630473 0)
(0.0930928 0.00634816 0)
(0.0869487 0.00647107 0)
(0.0808887 0.00627432 0)
(0.075123 0.00599941 0)
(0.0694592 0.0054846 0)
(0.064936 0.00473791 0)
(0.0602755 0.00488926 0)
(0.0569589 0.00600671 0)
(0.0549581 0.00893503 0)
(0.0508628 0.0119265 0)
(0.0428977 0.00918865 0)
(-0.0820667 -0.0117127 0)
(-0.0731105 -0.0127115 0)
(-0.0629782 -0.0135275 0)
(-0.0522277 -0.014379 0)
(-0.0409142 -0.0149986 0)
(-0.0291351 -0.0156665 0)
(-0.017007 -0.016043 0)
(-0.00502447 -0.016486 0)
(0.0077593 -0.0167579 0)
(0.0212232 -0.016976 0)
(0.034247 -0.0168004 0)