/*--------------------------------*- C++ -*----------------------------------*\
| =========                 |                                                 |
| \\      /  F ield         | OpenFOAM: The Open Source CFD Toolbox           |
|  \\    /   O peration     | Version:  3.0.1                                 |
|   \\  /    A nd           | Web:      www.OpenFOAM.org                      |
|    \\/     M anipulation  |                                                 |
\*---------------------------------------------------------------------------*/
FoamFile
{
    version     2.0;
    format      ascii;
    class       volScalarField;
    location    "17.8";
    object      p_rgh;
}
// * * * * * * * * * * * * * * * * * * * * * * * * * * * * * * * * * * * * * //

dimensions      [1 -1 -2 0 0 0 0];

internalField   nonuniform List<scalar> 
22680
(
-328.204
-333.798
-338.366
-341.905
-344.41
-345.874
-346.304
-345.671
-343.955
-341.176
-337.312
-332.376
-326.335
-319.186
-310.881
-301.402
-290.736
-278.845
-265.71
-251.305
-235.611
-218.618
-200.322
-180.726
-159.855
-137.732
-114.401
-89.9098
-64.3152
-37.7087
-10.1436
18.4661
47.7577
77.0827
106.425
135.678
164.606
193.009
220.639
247.277
272.67
296.594
318.809
339.103
357.269
373.127
386.513
397.292
405.355
410.62
413.037
412.562
409.243
403.098
394.161
382.562
368.423
351.887
333.13
312.339
289.725
265.505
239.916
213.187
185.565
157.283
128.586
99.7031
70.8943
42.4346
14.9786
-12.265
-39.0133
-65.0468
-90.1935
-114.328
-137.365
-159.234
-179.888
-199.289
-217.415
-234.251
-249.796
-264.052
-277.033
-288.752
-299.229
-308.485
-316.545
-323.43
-329.168
-333.77
-337.27
-339.673
-340.973
-341.198
-340.365
-338.449
-335.438
-331.329
-326.107
-319.755
-312.254
-303.593
-293.75
-282.71
-270.45
-256.958
-242.218
-226.22
-208.96
-190.431
-170.647
-149.625
-127.403
-104.014
-79.531
-54.0157
-27.5754
-0.300538
27.6583
56.1902
85.0701
114.13
143.169
171.981
200.338
228.002
254.733
280.287
304.426
326.913
347.524
366.042
382.271
396.032
407.171
415.553
421.073
423.655
423.195
419.783
413.368
403.972
391.689
376.621
358.895
338.672
316.139
291.507
265.006
236.884
207.399
176.82
145.418
113.459
81.206
48.9133
16.8199
-14.8499
-45.8879
-76.1062
-105.335
-133.424
-160.239
-185.667
-209.611
-231.989
-252.738
-271.807
-289.163
-304.785
-318.661
-330.801
-341.223
-349.949
-357.029
-362.509
-366.452
-368.93
-370.01
-369.775
-368.297
-365.662
-361.931
-357.179
-351.454
-344.793
-337.214
-328.769
-319.452
-309.253
-298.156
-286.13
-273.138
-259.134
-244.069
-227.902
-210.591
-192.098
-172.409
-151.515
-129.414
-106.134
-81.701
-56.1772
-29.6276
-2.15332
26.1436
55.1093
84.6304
114.464
144.423
174.291
203.837
232.811
260.965
288.045
313.822
338.083
360.623
381.357
400.133
416.704
431.758
-328.263
-333.857
-338.423
-341.962
-344.468
-345.93
-346.362
-345.729
-344.013
-341.234
-337.372
-332.438
-326.398
-319.25
-310.948
-301.471
-290.807
-278.919
-265.786
-251.383
-235.691
-218.699
-200.404
-180.809
-159.939
-137.815
-114.482
-89.9889
-64.3908
-37.7795
-10.209
18.4079
47.7121
77.0484
106.402
135.668
164.608
193.025
220.67
247.323
272.731
296.67
318.9
339.208
357.388
373.257
386.654
397.44
405.51
410.78
413.206
412.72
409.397
403.248
394.306
382.698
368.548
352
333.23
312.424
289.795
265.56
239.955
213.211
185.575
157.279
128.569
99.6714
70.8471
42.3715
14.9379
-12.3185
-39.0776
-65.1182
-90.2693
-114.407
-137.446
-159.316
-179.97
-199.37
-217.495
-234.331
-249.874
-264.129
-277.108
-288.825
-299.3
-308.554
-316.613
-323.496
-329.232
-333.833
-337.333
-339.736
-341.033
-341.26
-340.427
-338.512
-335.502
-331.393
-326.173
-319.822
-312.323
-303.663
-293.821
-282.783
-270.525
-257.034
-242.296
-226.299
-209.04
-190.511
-170.728
-149.706
-127.482
-104.092
-79.6056
-54.0864
-27.6413
-0.360308
27.6057
56.1459
85.0354
114.106
143.157
171.982
200.353
228.031
254.776
280.346
304.5
327.002
347.627
366.159
382.4
396.173
407.321
415.711
421.235
423.82
423.369
419.946
413.53
404.129
391.84
376.762
359.025
338.788
316.241
291.595
265.078
236.939
207.438
176.844
145.426
113.452
81.1857
48.8803
16.7753
-14.905
-45.9523
-76.1789
-105.415
-133.51
-160.33
-185.763
-209.71
-232.09
-252.841
-271.911
-289.268
-304.889
-318.764
-330.903
-341.323
-350.046
-357.123
-362.598
-366.537
-369.011
-370.086
-369.847
-368.364
-365.726
-361.991
-357.236
-351.509
-344.843
-337.265
-328.82
-319.504
-309.306
-298.211
-286.187
-273.199
-259.198
-244.137
-227.973
-210.664
-192.174
-172.487
-151.593
-129.493
-106.212
-81.7774
-56.2512
-29.6977
-2.21859
26.0848
55.0584
84.5884
114.432
144.404
174.285
203.845
232.834
261.003
288.099
313.89
338.165
360.715
381.453
400.242
416.748
431.327
-328.382
-333.973
-338.539
-342.077
-344.583
-346.043
-346.479
-345.845
-344.129
-341.352
-337.491
-332.56
-326.524
-319.38
-311.081
-301.609
-290.95
-279.066
-265.938
-251.539
-235.851
-218.862
-200.569
-180.975
-160.105
-137.98
-114.645
-90.1471
-64.5422
-37.9212
-10.3395
18.2916
47.6207
76.98
106.357
135.647
164.613
193.057
220.731
247.414
272.853
296.822
319.082
339.419
357.625
373.518
386.934
397.738
405.821
411.099
413.533
413.043
409.709
403.551
394.597
382.971
368.799
352.226
333.429
312.594
289.935
265.67
240.034
213.26
185.595
157.272
128.533
99.6082
70.7529
42.2448
14.8572
-12.4257
-39.2065
-65.2609
-90.4211
-114.564
-137.607
-159.479
-180.134
-199.533
-217.657
-234.49
-250.03
-264.282
-277.257
-288.97
-299.442
-308.692
-316.747
-323.627
-329.36
-333.959
-337.456
-339.858
-341.151
-341.382
-340.549
-338.634
-335.626
-331.519
-326.301
-319.953
-312.456
-303.799
-293.961
-282.925
-270.671
-257.184
-242.448
-226.454
-209.197
-190.669
-170.887
-149.863
-127.638
-104.243
-79.7514
-54.2247
-27.7699
-0.476784
27.5035
56.0603
84.969
114.061
143.136
171.986
200.384
228.091
254.867
280.467
304.651
327.183
347.837
366.396
382.662
396.456
407.623
416.028
421.563
424.153
423.716
420.277
413.857
404.447
392.142
377.045
359.285
339.023
316.448
291.771
265.223
237.052
207.519
176.893
145.444
113.441
81.1474
48.8165
16.6883
-15.013
-46.079
-76.3218
-105.572
-133.679
-160.51
-185.951
-209.904
-232.29
-253.044
-272.116
-289.473
-305.094
-318.967
-331.103
-341.519
-350.236
-357.307
-362.775
-366.705
-369.169
-370.236
-369.987
-368.496
-365.849
-362.108
-357.346
-351.615
-344.939
-337.364
-328.918
-319.603
-309.408
-298.317
-286.299
-273.316
-259.322
-244.268
-228.11
-210.808
-192.322
-172.638
-151.747
-129.647
-106.365
-81.9265
-56.3957
-29.8345
-2.34571
25.9705
54.9599
84.5079
114.372
144.368
174.276
203.865
232.884
261.084
288.21
314.031
338.333
360.902
381.656
400.434
416.92
431.325
-328.561
-334.149
-338.712
-342.248
-344.755
-346.214
-346.654
-346.019
-344.304
-341.528
-337.671
-332.744
-326.713
-319.575
-311.282
-301.817
-291.165
-279.288
-266.166
-251.774
-236.091
-219.106
-200.816
-181.225
-160.355
-138.228
-114.89
-90.3846
-64.7694
-38.1339
-10.5351
18.1166
47.4834
76.8771
106.288
135.615
164.62
193.105
220.822
247.55
273.036
297.051
319.355
339.735
357.98
373.908
387.356
398.185
406.286
411.578
414.015
413.533
410.181
404.006
395.033
383.379
369.175
352.566
333.727
312.849
290.145
265.834
240.153
213.334
185.625
157.26
128.481
99.5135
70.6117
42.0541
14.7365
-12.5872
-39.4003
-65.4753
-90.6489
-114.801
-137.849
-159.724
-180.379
-199.778
-217.899
-234.728
-250.265
-264.511
-277.48
-289.188
-299.654
-308.899
-316.948
-323.822
-329.552
-334.148
-337.641
-340.04
-341.333
-341.565
-340.732
-338.818
-335.812
-331.709
-326.494
-320.15
-312.657
-304.004
-294.171
-283.14
-270.89
-257.408
-242.677
-226.687
-209.432
-190.907
-171.125
-150.1
-127.871
-104.471
-79.9705
-54.4324
-27.9631
-0.652013
27.3497
55.9319
84.8692
113.993
143.103
171.992
200.432
228.182
255.002
280.648
304.878
327.455
348.151
366.751
383.054
396.882
408.077
416.504
422.055
424.654
424.23
420.78
414.348
404.923
392.596
377.47
359.677
339.376
316.759
292.037
265.441
237.222
207.641
176.967
145.472
113.425
81.0896
48.7207
16.5575
-15.1752
-46.2691
-76.5365
-105.808
-133.933
-160.779
-186.233
-210.196
-232.589
-253.348
-272.424
-289.782
-305.402
-319.272
-331.403
-341.813
-350.522
-357.583
-363.04
-366.957
-369.408
-370.461
-370.198
-368.693
-366.035
-362.282
-357.511
-351.772
-345.087
-337.513
-329.065
-319.752
-309.561
-298.476
-286.467
-273.493
-259.509
-244.465
-228.317
-211.023
-192.544
-172.866
-151.977
-129.878
-106.594
-82.1507
-56.6128
-30.0402
-2.53676
25.7987
54.8118
84.3865
114.282
144.315
174.263
203.895
232.958
261.204
288.376
314.241
338.585
361.186
381.963
400.722
417.21
431.453
-328.799
-334.383
-338.943
-342.477
-344.982
-346.445
-346.887
-346.251
-344.536
-341.763
-337.911
-332.989
-326.965
-319.835
-311.55
-302.093
-291.451
-279.583
-266.47
-252.086
-236.41
-219.432
-201.147
-181.558
-160.689
-138.56
-115.216
-90.7016
-65.0727
-38.4182
-10.7955
17.8819
47.2999
76.7397
106.197
135.573
164.629
193.169
220.944
247.732
273.279
297.355
319.72
340.156
358.454
374.43
387.918
398.781
406.908
412.216
414.657
414.18
410.815
404.614
395.614
383.925
369.677
353.018
334.125
313.19
290.426
266.053
240.311
213.432
185.665
157.244
128.411
99.3876
70.4237
41.7988
14.5762
-12.8037
-39.6599
-65.7619
-90.9532
-115.117
-138.172
-160.05
-180.707
-200.104
-218.222
-235.047
-250.577
-264.817
-277.779
-289.479
-299.936
-309.174
-317.216
-324.084
-329.807
-334.398
-337.887
-340.282
-341.577
-341.809
-340.975
-339.064
-336.061
-331.961
-326.751
-320.412
-312.925
-304.278
-294.451
-283.426
-271.182
-257.708
-242.982
-226.997
-209.746
-191.223
-171.442
-150.416
-128.182
-104.774
-80.2628
-54.7098
-28.2212
-0.886323
27.1439
55.7606
84.7359
113.903
143.06
172
200.495
228.302
255.183
280.889
305.18
327.817
348.571
367.224
383.577
397.449
408.682
417.139
422.712
425.323
424.909
421.454
415.005
405.559
393.202
378.038
360.199
339.847
317.173
292.39
265.732
237.448
207.802
177.065
145.508
113.402
81.0122
48.5924
16.3828
-15.3918
-46.523
-76.8231
-106.123
-134.273
-161.139
-186.609
-210.586
-232.988
-253.755
-272.834
-290.194
-305.813
-319.679
-331.804
-342.205
-350.903
-357.951
-363.393
-367.294
-369.726
-370.761
-370.479
-368.957
-366.282
-362.514
-357.731
-351.98
-345.288
-337.711
-329.262
-319.951
-309.765
-298.688
-286.69
-273.728
-259.758
-244.728
-228.593
-211.31
-192.84
-173.169
-152.285
-130.187
-106.9
-82.4502
-56.9025
-30.315
-2.79197
25.569
54.6135
84.2239
114.162
144.244
174.245
203.934
233.057
261.364
288.598
314.522
338.92
361.563
382.374
401.123
417.618
431.706
-329.097
-334.675
-339.232
-342.764
-345.267
-346.732
-347.175
-346.54
-344.826
-342.057
-338.21
-333.296
-327.279
-320.159
-311.885
-302.439
-291.808
-279.952
-266.851
-252.477
-236.81
-219.839
-201.56
-181.974
-161.106
-138.974
-115.624
-91.0983
-65.4527
-38.7746
-11.1204
17.5867
47.0701
76.5676
106.083
135.519
164.639
193.248
221.095
247.959
273.582
297.736
320.175
340.683
359.047
375.082
388.622
399.526
407.685
413.014
415.463
414.987
411.609
405.378
396.342
384.607
370.305
353.584
334.623
313.615
290.776
266.327
240.508
213.553
185.715
157.224
128.323
99.2307
70.1893
41.4776
14.3771
-13.0764
-39.986
-66.1214
-91.3342
-115.512
-138.576
-160.459
-181.117
-200.512
-218.626
-235.445
-250.968
-265.199
-278.152
-289.842
-300.29
-309.518
-317.551
-324.41
-330.126
-334.712
-338.194
-340.585
-341.882
-342.114
-341.28
-339.37
-336.372
-332.277
-327.072
-320.74
-313.259
-304.62
-294.8
-283.783
-271.548
-258.082
-243.364
-227.386
-210.139
-191.62
-171.84
-150.811
-128.572
-105.154
-80.6288
-55.0572
-28.5445
-1.18002
26.8856
55.546
84.5687
113.789
143.005
172.009
200.573
228.453
255.408
281.19
305.558
328.269
349.095
367.816
384.232
398.159
409.438
417.934
423.534
426.16
425.754
422.299
415.828
406.355
393.96
378.748
360.852
340.436
317.691
292.833
266.095
237.731
208.004
177.187
145.553
113.374
80.9149
48.4315
16.1636
-15.6633
-46.841
-77.182
-106.518
-134.697
-161.589
-187.08
-211.073
-233.488
-254.263
-273.348
-290.71
-306.326
-320.189
-332.306
-342.696
-351.38
-358.411
-363.835
-367.714
-370.124
-371.136
-370.83
-369.286
-366.59
-362.804
-358.004
-352.24
-345.539
-337.958
-329.507
-320.199
-310.019
-298.954
-286.969
-274.023
-260.07
-245.057
-228.938
-211.669
-193.211
-173.549
-152.67
-130.573
-107.283
-82.8254
-57.2653
-30.6591
-3.11168
25.281
54.3646
84.0198
114.012
144.154
174.221
203.982
233.18
261.564
288.875
314.873
339.339
362.037
382.888
401.62
418.126
432.09
-329.454
-335.026
-339.578
-343.107
-345.61
-347.077
-347.52
-346.885
-345.174
-342.409
-338.568
-333.663
-327.657
-320.548
-312.287
-302.854
-292.237
-280.395
-267.307
-252.946
-237.291
-220.329
-202.055
-182.474
-161.607
-139.473
-116.114
-91.5753
-65.9097
-39.2037
-11.5106
17.2302
46.7939
76.3607
105.945
135.454
164.651
193.342
221.276
248.23
273.946
298.193
320.722
341.315
359.759
375.865
389.466
400.422
408.618
413.972
416.432
415.955
412.561
406.295
397.217
385.426
371.059
354.263
335.221
314.126
291.196
266.654
240.743
213.699
185.773
157.199
128.217
99.0431
69.9092
41.0885
14.1406
-13.4068
-40.3799
-66.5543
-91.7925
-115.987
-139.061
-160.95
-181.609
-201.003
-219.112
-235.923
-251.438
-265.658
-278.6
-290.278
-300.714
-309.931
-317.953
-324.802
-330.508
-335.087
-338.563
-340.949
-342.25
-342.479
-341.645
-339.738
-336.745
-332.656
-327.457
-321.133
-313.661
-305.031
-295.22
-284.212
-271.987
-258.531
-243.822
-227.851
-210.611
-192.095
-172.317
-151.286
-129.04
-105.611
-81.0686
-55.4749
-28.9333
-1.53357
26.5747
55.2877
84.3674
113.652
142.939
172.019
200.666
228.632
255.677
281.551
306.011
328.811
349.724
368.527
385.018
399.012
410.347
418.888
424.522
427.168
426.77
423.311
416.817
407.311
394.871
379.601
361.636
341.143
318.313
293.363
266.531
238.07
208.246
177.333
145.606
113.339
80.7974
48.2374
15.8998
-15.9898
-47.2233
-77.6134
-106.992
-135.208
-162.13
-187.646
-211.658
-234.088
-254.874
-273.964
-291.329
-306.944
-320.8
-332.908
-343.285
-351.953
-358.964
-364.365
-368.219
-370.602
-371.586
-371.252
-369.681
-366.96
-363.152
-358.332
-352.551
-345.841
-338.254
-329.801
-320.496
-310.324
-299.272
-287.304
-274.377
-260.444
-245.452
-229.352
-212.101
-193.657
-174.006
-153.132
-131.036
-107.743
-83.2764
-57.7015
-31.0731
-3.4963
24.9343
54.0645
83.774
113.83
144.045
174.192
204.038
233.326
261.803
289.207
315.294
339.842
362.607
383.506
402.226
418.747
432.602
-329.871
-335.435
-339.982
-343.508
-346.009
-347.479
-347.922
-347.287
-345.58
-342.82
-338.987
-334.092
-328.097
-321.002
-312.755
-303.338
-292.737
-280.911
-267.84
-253.494
-237.851
-220.9
-202.634
-183.059
-162.192
-140.055
-116.688
-92.1329
-66.4443
-39.7063
-11.9675
16.8121
46.4715
76.1187
105.783
135.377
164.664
193.451
221.486
248.547
274.371
298.725
321.36
342.054
360.59
376.78
390.453
401.468
409.709
415.092
417.564
417.085
413.672
407.368
398.238
386.383
371.939
355.056
335.918
314.721
291.685
267.036
241.018
213.868
185.841
157.17
128.093
98.8251
69.5844
40.6289
13.8684
-13.797
-40.8431
-67.0616
-92.3286
-116.542
-139.628
-161.523
-182.184
-201.575
-219.678
-236.482
-251.985
-266.194
-279.122
-290.786
-301.209
-310.413
-318.422
-325.259
-330.954
-335.525
-338.994
-341.373
-342.678
-342.903
-342.07
-340.167
-337.179
-333.099
-327.907
-321.591
-314.129
-305.509
-295.71
-284.713
-272.499
-259.055
-244.357
-228.395
-211.162
-192.651
-172.874
-151.84
-129.586
-106.145
-81.5828
-55.9631
-29.388
-1.94752
26.2105
54.9853
84.1315
113.49
142.86
172.03
200.773
228.841
255.991
281.972
306.538
329.445
350.459
369.357
385.935
400.007
411.409
420.003
425.675
428.345
427.957
424.492
417.973
408.428
395.934
380.596
362.552
341.968
319.039
293.983
267.039
238.464
208.527
177.502
145.667
113.297
80.659
48.0097
15.5907
-16.372
-47.6705
-78.1178
-107.546
-135.804
-162.762
-188.306
-212.342
-234.789
-255.587
-274.685
-292.051
-307.664
-321.515
-333.611
-343.973
-352.622
-359.609
-364.984
-368.808
-371.16
-372.111
-371.744
-370.141
-367.391
-363.556
-358.714
-352.913
-346.193
-338.598
-330.143
-320.842
-310.68
-299.643
-287.694
-274.789
-260.881
-245.913
-229.836
-212.605
-194.178
-174.538
-153.672
-131.578
-108.281
-83.8037
-58.2114
-31.5574
-3.94627
24.5281
53.7126
83.4858
113.617
143.917
174.157
204.103
233.497
262.082
289.594
315.785
340.429
363.274
384.228
402.952
419.466
433.245
-330.348
-335.903
-340.443
-343.966
-346.467
-347.938
-348.381
-347.747
-346.044
-343.288
-339.464
-334.581
-328.601
-321.521
-313.291
-303.892
-293.309
-281.502
-268.449
-254.12
-238.493
-221.553
-203.296
-183.727
-162.862
-140.721
-117.344
-92.7716
-67.0572
-40.2835
-12.4954
16.3348
46.1029
75.8414
105.596
135.287
164.677
193.574
221.725
248.907
274.855
299.333
322.089
342.898
361.541
377.826
391.582
402.665
410.957
416.374
418.86
418.379
414.942
408.595
399.408
387.478
372.946
355.962
336.716
315.401
292.244
267.472
241.33
214.061
185.917
157.135
127.952
98.5774
69.2163
40.0965
13.5616
-14.2499
-41.377
-67.6442
-92.9431
-117.178
-140.277
-162.179
-182.842
-202.23
-220.327
-237.12
-252.612
-266.807
-279.72
-291.368
-301.775
-310.963
-318.958
-325.781
-331.464
-336.025
-339.486
-341.859
-343.161
-343.388
-342.557
-340.656
-337.677
-333.604
-328.421
-322.115
-314.664
-306.056
-296.269
-285.285
-273.085
-259.654
-244.968
-229.017
-211.793
-193.287
-173.512
-152.475
-130.212
-106.756
-82.1717
-56.5222
-29.9092
-2.42236
25.7926
54.6382
83.8606
113.304
142.768
172.041
200.894
229.079
256.349
282.453
307.141
330.168
351.298
370.306
386.985
401.146
412.624
421.278
426.996
429.693
429.315
425.843
419.295
409.706
397.15
381.736
363.6
342.912
319.869
294.691
267.62
238.915
208.847
177.694
145.736
113.247
80.4993
47.7479
15.236
-16.8103
-48.183
-78.6957
-108.18
-136.487
-163.485
-189.063
-213.124
-235.591
-256.402
-275.508
-292.878
-308.488
-322.332
-334.415
-344.759
-353.386
-360.347
-365.692
-369.482
-371.797
-372.711
-372.306
-370.667
-367.883
-364.019
-359.15
-353.328
-346.594
-338.99
-330.533
-321.236
-311.086
-300.066
-288.139
-275.261
-261.38
-246.44
-230.39
-213.182
-194.774
-175.148
-154.29
-132.199
-108.897
-84.4077
-58.7957
-32.1126
-4.46215
24.0619
53.3088
83.1545
113.372
143.769
174.115
204.176
233.69
262.399
290.035
316.346
341.1
364.038
385.057
403.799
420.291
434.011
-330.883
-336.428
-340.962
-344.481
-346.981
-348.455
-348.898
-348.264
-346.564
-343.816
-340.001
-335.131
-329.166
-322.105
-313.894
-304.514
-293.952
-282.166
-269.135
-254.826
-239.215
-222.289
-204.042
-184.479
-163.617
-141.472
-118.085
-93.492
-67.7492
-40.9364
-13.0949
15.7967
45.6882
75.5284
105.385
135.185
164.689
193.711
221.993
249.311
275.399
300.017
322.91
343.848
362.612
379.004
392.854
404.013
412.364
417.818
420.321
419.836
416.374
409.978
400.725
388.712
374.08
356.983
337.613
316.167
292.873
267.961
241.681
214.276
186.001
157.094
127.792
98.3004
68.8079
39.491
13.2191
-14.7697
-41.9838
-68.3031
-93.6367
-117.895
-141.009
-162.919
-183.583
-202.968
-221.057
-237.839
-253.316
-267.496
-280.392
-292.022
-302.411
-311.582
-319.56
-326.369
-332.038
-336.588
-340.039
-342.405
-343.702
-343.932
-343.103
-341.207
-338.235
-334.173
-328.999
-322.704
-315.266
-306.672
-296.898
-285.93
-273.745
-260.328
-245.656
-229.718
-212.503
-194.003
-174.23
-153.19
-130.918
-107.445
-82.836
-57.1528
-30.4973
-2.95861
25.3202
54.2454
83.5538
113.093
142.663
172.052
201.028
229.345
256.751
282.993
307.819
330.982
352.243
371.375
388.167
402.428
413.992
422.715
428.484
431.211
430.845
427.364
420.786
411.146
398.521
383.019
364.78
343.975
320.803
295.487
268.273
239.421
209.207
177.91
145.811
113.19
80.3176
47.4513
14.835
-17.3054
-48.7615
-79.3476
-108.895
-137.256
-164.3
-189.915
-214.005
-236.495
-257.321
-276.436
-293.808
-309.416
-323.252
-335.321
-345.645
-354.247
-361.178
-366.489
-370.241
-372.515
-373.386
-372.939
-371.259
-368.436
-364.538
-359.64
-353.793
-347.044
-339.431
-330.971
-321.679
-311.541
-300.541
-288.64
-275.791
-261.942
-247.034
-231.013
-213.832
-195.445
-175.836
-154.987
-132.898
-109.591
-85.0891
-59.4548
-32.7393
-5.04483
23.5348
52.852
82.7789
113.093
143.6
174.066
204.256
233.907
262.755
290.531
316.977
341.856
364.9
385.994
404.77
421.236
434.892
-331.478
-337.012
-341.537
-345.052
-347.552
-349.03
-349.471
-348.837
-347.14
-344.401
-340.597
-335.742
-329.795
-322.753
-314.563
-305.205
-294.666
-282.904
-269.897
-255.61
-240.018
-223.107
-204.871
-185.315
-164.457
-142.309
-118.91
-94.295
-68.5212
-41.6659
-13.7669
15.1958
45.2273
75.1795
105.148
135.068
164.701
193.86
222.288
249.758
276.002
300.777
323.822
344.905
363.802
380.315
394.269
405.513
413.929
419.426
421.948
421.458
417.967
411.518
402.191
390.084
375.341
358.118
338.61
317.017
293.57
268.504
242.069
214.513
186.092
157.046
127.613
97.995
68.3637
38.8198
12.8312
-15.3615
-42.6655
-69.0395
-94.4101
-118.693
-141.824
-163.742
-184.407
-203.788
-221.869
-238.639
-254.1
-268.262
-281.139
-292.75
-303.119
-312.27
-320.23
-327.021
-332.675
-337.212
-340.653
-343.012
-344.304
-344.536
-343.71
-341.82
-338.856
-334.804
-329.641
-323.359
-315.935
-307.355
-297.597
-286.646
-274.477
-261.077
-246.421
-230.496
-213.292
-194.8
-175.03
-153.987
-131.703
-108.212
-83.576
-57.8556
-31.1533
-3.55677
24.7928
53.8065
83.2106
112.856
142.544
172.061
201.176
229.638
257.196
283.592
308.573
331.887
353.294
372.563
389.481
403.855
415.515
424.315
430.14
432.902
432.548
429.057
422.445
412.749
400.047
384.448
366.094
345.158
321.842
296.372
268.998
239.983
209.605
178.147
145.893
113.124
80.1133
47.1193
14.387
-17.8578
-49.4066
-80.0741
-109.692
-138.113
-165.207
-190.863
-214.986
-237.5
-258.344
-277.468
-294.844
-310.449
-324.275
-336.329
-346.631
-355.205
-362.103
-367.375
-371.084
-373.313
-374.136
-373.641
-371.915
-369.049
-365.113
-360.183
-354.31
-347.542
-339.919
-331.456
-322.17
-312.046
-301.068
-289.195
-276.379
-262.566
-247.693
-231.706
-214.555
-196.193
-176.601
-155.763
-133.677
-110.365
-85.8483
-60.1893
-33.4383
-5.6953
22.9462
52.3411
82.3587
112.781
143.41
174.009
204.342
234.145
263.15
291.082
317.678
342.696
365.86
387.041
405.862
422.315
435.896
-332.131
-337.653
-342.17
-345.681
-348.181
-349.662
-350.103
-349.467
-347.774
-345.043
-341.252
-336.413
-330.485
-323.465
-315.299
-305.966
-295.452
-283.717
-270.735
-256.473
-240.902
-224.008
-205.783
-186.236
-165.381
-143.231
-119.82
-95.1817
-69.3739
-42.4735
-14.5127
14.5301
44.7204
74.7942
104.885
134.937
164.711
194.022
222.609
250.248
276.664
301.612
324.825
346.068
365.114
381.76
395.829
407.167
415.655
421.198
423.741
423.245
419.722
413.215
403.806
391.596
376.73
359.369
339.708
317.952
294.337
269.099
242.494
214.771
186.19
156.991
127.415
97.6614
67.8889
38.1147
12.364
-16.0324
-43.4241
-69.8544
-95.2642
-119.575
-142.722
-164.649
-185.316
-204.692
-222.763
-239.519
-254.964
-269.105
-281.961
-293.55
-303.897
-313.026
-320.966
-327.739
-333.376
-337.898
-341.328
-343.678
-344.966
-345.198
-344.376
-342.493
-339.539
-335.497
-330.348
-324.08
-316.671
-308.107
-298.367
-287.433
-275.283
-261.901
-247.263
-231.354
-214.161
-195.678
-175.911
-154.864
-132.57
-109.058
-84.3921
-58.6315
-31.878
-4.21746
24.2093
53.3206
82.8302
112.591
142.409
172.069
201.336
229.959
257.683
284.249
309.4
332.882
354.45
373.872
390.929
405.427
417.192
426.078
431.965
434.766
434.425
430.923
424.273
414.515
401.728
386.022
367.54
346.461
322.986
297.347
269.796
240.6
210.041
178.406
145.98
113.049
79.8854
46.7511
13.891
-18.4685
-50.1191
-80.876
-110.571
-139.058
-166.207
-191.908
-216.067
-238.607
-259.469
-278.605
-295.984
-311.586
-325.402
-337.438
-347.717
-356.259
-363.12
-368.35
-372.012
-374.191
-374.962
-374.414
-372.637
-369.723
-365.745
-360.779
-354.877
-348.089
-340.454
-331.988
-322.708
-312.6
-301.646
-289.806
-277.026
-263.253
-248.42
-232.47
-215.352
-197.017
-177.445
-156.618
-134.536
-111.217
-86.686
-61
-34.2105
-6.41462
22.2953
51.7742
81.8935
112.435
143.197
173.943
204.435
234.405
263.582
291.686
318.45
343.621
366.919
388.198
407.078
423.526
437.028
-332.843
-338.351
-342.859
-346.366
-348.866
-350.352
-350.791
-350.154
-348.464
-345.743
-341.966
-337.144
-331.238
-324.242
-316.101
-306.795
-296.31
-284.603
-271.65
-257.416
-241.868
-224.992
-206.78
-187.241
-166.391
-144.24
-120.817
-96.1528
-70.3083
-43.36
-15.3348
13.7987
44.1671
74.372
104.596
134.791
164.718
194.195
222.957
250.781
277.385
302.522
325.919
347.338
366.546
383.338
397.533
408.974
417.542
423.136
425.702
425.199
421.641
415.07
405.571
393.248
378.248
360.734
340.905
318.972
295.172
269.747
242.955
215.05
186.294
156.929
127.198
97.2998
67.3887
37.4448
11.7464
-16.7889
-44.2618
-70.7488
-96.1996
-120.539
-143.705
-165.64
-186.309
-205.68
-223.74
-240.481
-255.906
-270.026
-282.858
-294.423
-304.746
-313.851
-321.769
-328.521
-334.14
-338.646
-342.063
-344.405
-345.688
-345.919
-345.103
-343.228
-340.283
-336.253
-331.118
-324.866
-317.473
-308.927
-299.206
-288.292
-276.163
-262.801
-248.181
-232.289
-215.111
-196.637
-176.873
-155.823
-133.517
-109.984
-85.2852
-59.4811
-32.6722
-4.94193
23.5684
52.7874
82.4116
112.299
142.259
172.073
201.507
230.306
258.213
284.965
310.303
333.968
355.712
375.3
392.511
407.144
419.026
428.005
433.96
436.803
436.478
432.963
426.272
416.446
403.566
387.742
369.121
347.883
324.234
298.41
270.665
241.272
210.516
178.686
146.073
112.963
79.6333
46.3457
13.3463
-19.1381
-50.8999
-81.7539
-111.534
-140.092
-167.301
-193.051
-217.248
-239.818
-260.7
-279.847
-297.23
-312.828
-326.633
-338.65
-348.903
-357.412
-364.232
-369.415
-373.026
-375.149
-375.862
-375.256
-373.424
-370.458
-366.433
-361.428
-355.495
-348.685
-341.035
-332.566
-323.293
-313.203
-302.276
-290.471
-277.732
-264.002
-249.213
-233.305
-216.223
-197.917
-178.367
-157.554
-135.476
-112.15
-87.6028
-61.8878
-35.0568
-7.20351
21.581
51.1506
81.382
112.053
142.96
173.868
204.533
234.686
264.052
292.345
319.291
344.632
368.077
389.469
408.418
424.862
438.297
-333.613
-339.107
-343.605
-347.106
-349.608
-351.098
-351.534
-350.897
-349.211
-346.5
-342.739
-337.936
-332.054
-325.083
-316.97
-307.694
-297.239
-285.564
-272.643
-258.438
-242.916
-226.059
-207.862
-188.332
-167.487
-145.335
-121.9
-97.2093
-71.3253
-44.326
-16.2369
13.0007
43.567
73.9122
104.279
134.628
164.722
194.377
223.331
251.355
278.164
303.507
327.106
348.716
368.099
385.05
399.382
410.937
419.59
425.241
427.831
427.321
423.725
417.084
407.488
395.042
379.895
362.214
342.203
320.076
296.076
270.447
243.452
215.349
186.403
156.858
126.961
96.9098
66.8641
36.8029
10.9833
-17.6347
-45.1798
-71.7239
-97.2173
-121.587
-144.772
-166.717
-187.387
-206.752
-224.8
-241.523
-256.928
-271.024
-283.831
-295.369
-305.665
-314.745
-322.638
-329.368
-334.967
-339.455
-342.858
-345.192
-346.47
-346.7
-345.888
-344.022
-341.089
-337.072
-331.953
-325.717
-318.342
-309.815
-300.115
-289.223
-277.116
-263.777
-249.178
-233.304
-216.141
-197.678
-177.918
-156.865
-134.546
-110.989
-86.2563
-60.405
-33.5363
-5.73169
22.8678
52.2074
81.9539
111.978
142.092
172.075
201.69
230.679
258.785
285.739
311.279
335.144
357.081
376.85
394.226
409.008
421.016
430.097
436.126
439.015
438.706
435.178
428.442
418.543
405.561
389.609
370.837
349.426
325.588
299.562
271.606
241.998
211.027
178.986
146.169
112.866
79.356
45.9021
12.7519
-19.8678
-51.7496
-82.7088
-112.579
-141.215
-168.489
-194.291
-218.531
-241.131
-262.035
-281.195
-298.581
-314.176
-327.968
-339.965
-350.189
-358.662
-365.438
-370.571
-374.125
-376.188
-376.838
-376.168
-374.275
-371.252
-367.177
-362.129
-356.162
-349.328
-341.663
-333.19
-323.924
-313.854
-302.957
-291.19
-278.496
-264.814
-250.073
-234.21
-217.168
-198.895
-179.369
-158.57
-136.496
-113.165
-88.5995
-62.8537
-35.9779
-8.06279
20.8017
50.4699
80.8218
111.633
142.699
173.781
204.635
234.988
264.558
293.057
320.202
345.728
369.335
390.852
409.883
426.341
439.71
-334.441
-339.919
-344.406
-347.903
-350.405
-351.902
-352.331
-351.698
-350.015
-347.315
-343.57
-338.789
-332.931
-325.989
-317.906
-308.661
-298.24
-286.599
-273.712
-259.54
-244.046
-227.21
-209.028
-189.509
-168.671
-146.518
-123.071
-98.3519
-72.4254
-45.3721
-17.2149
12.1274
42.92
73.4142
103.933
134.449
164.721
194.57
223.729
251.969
279.001
304.567
328.384
350.2
369.775
386.897
401.378
413.055
421.801
427.514
430.13
429.613
425.974
419.259
409.557
396.976
381.671
363.81
343.602
321.266
297.048
271.199
243.985
215.667
186.515
156.777
126.702
96.4902
66.3129
36.1943
10.068
-18.5706
-46.1792
-72.7805
-98.3182
-122.72
-145.925
-167.88
-188.55
-207.908
-225.943
-242.648
-258.03
-272.1
-284.879
-296.388
-306.656
-315.708
-323.574
-330.28
-335.858
-340.327
-343.714
-346.038
-347.311
-347.541
-346.734
-344.877
-341.956
-337.954
-332.851
-326.633
-319.277
-310.771
-301.093
-290.225
-278.142
-264.828
-250.251
-234.398
-217.252
-198.801
-179.046
-157.989
-135.657
-112.076
-87.3058
-61.4043
-34.4709
-6.58763
22.1068
51.5793
81.4557
111.627
141.907
172.071
201.881
231.078
259.398
286.571
312.33
336.41
358.555
378.52
396.077
411.019
423.164
432.355
438.465
441.403
441.112
437.569
430.785
420.806
407.714
391.624
372.688
351.091
327.048
300.803
272.619
242.779
211.575
179.306
146.269
112.758
79.0522
45.4194
12.1067
-20.6586
-52.6693
-83.7414
-113.71
-142.429
-169.772
-195.631
-219.914
-242.548
-263.475
-282.648
-300.039
-315.63
-329.409
-341.383
-351.576
-360.01
-366.738
-371.817
-375.31
-377.307
-377.889
-377.151
-375.19
-372.106
-367.976
-362.882
-356.878
-350.017
-342.337
-333.859
-324.602
-314.552
-303.688
-291.963
-279.319
-265.689
-251.001
-235.187
-218.188
-199.95
-180.45
-159.668
-137.599
-114.261
-89.6767
-63.8988
-36.9746
-8.99371
19.9563
49.7309
80.2114
111.176
142.412
173.682
204.74
235.309
265.101
293.822
321.183
346.91
370.693
392.35
411.474
427.962
441.274
-335.327
-340.788
-345.263
-348.755
-351.258
-352.763
-353.185
-352.553
-350.876
-348.186
-344.46
-339.702
-333.871
-326.959
-318.908
-309.697
-299.312
-287.708
-274.859
-260.723
-245.259
-228.445
-210.279
-190.772
-169.941
-147.79
-124.33
-99.5811
-73.6093
-46.4996
-18.2689
11.1739
42.2258
72.8772
103.557
134.251
164.714
194.77
224.15
252.624
279.895
305.702
329.753
351.793
371.574
388.88
403.522
415.331
424.177
429.955
432.6
432.075
428.391
421.594
411.779
399.054
383.578
365.523
345.102
322.54
298.088
272.001
244.551
216.003
186.63
156.686
126.42
96.0392
65.7295
35.6093