/*--------------------------------*- C++ -*----------------------------------*\
| =========                 |                                                 |
| \\      /  F ield         | OpenFOAM: The Open Source CFD Toolbox           |
|  \\    /   O peration     | Version:  3.0.1                                 |
|   \\  /    A nd           | Web:      www.OpenFOAM.org                      |
|    \\/     M anipulation  |                                                 |
\*---------------------------------------------------------------------------*/
FoamFile
{
    version     2.0;
    format      ascii;
    class       volScalarField;
    location    "6.4";
    object      p;
}
// * * * * * * * * * * * * * * * * * * * * * * * * * * * * * * * * * * * * * //

dimensions      [1 -1 -2 0 0 0 0];

internalField   nonuniform List<scalar> 
21420
(
4091.09
4060.5
4029.28
3997.71
3966.1
3934.66
3903.88
3875.35
3846.13
3817.98
3791.11
3765.65
3741.68
3719.27
3698.45
3679.27
3661.72
3645.83
3631.59
3619.01
3608.07
3598.79
3591.15
3585.18
3580.88
3578.34
3577.6
3578.7
3581.54
3586.25
3592.81
3601.21
3611.43
3623.41
3637.11
3652.43
3669.26
3687.48
3706.95
3727.53
3749.03
3771.3
3794.17
3817.47
3841.06
3864.75
3887.68
3910.92
3934.01
3956.74
3978.96
4000.52
4021.3
4041.14
4059.93
4077.52
4093.79
4108.6
4121.81
4133.3
4142.95
4150.64
4156.27
4159.74
4160.97
4159.96
4156.63
4151.02
4143.17
4133.14
4121.04
4107.02
4091.25
4073.94
4055.31
4035.62
4015.12
3994.1
3972.8
3951.48
3930.39
3909.76
3889.81
3870.69
3852.55
3835.52
3819.73
3805.26
3792.18
3780.54
3770.38
3761.7
3754.48
3748.72
3744.38
3741.4
3739.74
3739.35
3740.13
3742.05
3745.04
3749.02
3753.91
3759.66
3766.18
3773.4
3781.24
3789.63
3798.48
3807.72
3817.26
3827.01
3836.9
3846.84
3856.77
3866.59
3876.24
3885.66
3894.78
3903.54
3911.89
3919.79
3927.18
3934.03
3940.31
3945.99
3951.06
3955.5
3959.29
3962.45
3964.98
3966.87
3968.16
3968.86
3968.98
3968.57
3967.65
3966.25
3964.42
3962.19
3959.6
3956.7
3953.52
3950.11
3946.51
3942.77
3938.92
3935
3931.04
3927.08
3923.16
3919.29
3915.51
3911.83
3908.28
3904.87
3901.61
3898.52
3895.6
3892.86
3890.3
3887.92
3885.73
3883.71
3881.87
3880.2
3878.69
3877.34
3876.21
3875.16
3874.25
3873.46
3872.8
3872.25
3871.81
3871.46
3871.2
3871.01
3870.9
3870.85
3870.86
3870.91
3871.01
3871.15
3871.31
3871.5
3871.71
3871.94
3872.18
3872.43
3872.68
3872.94
3873.19
3873.44
3873.68
3873.92
3874.15
3874.37
3874.58
3874.78
3874.96
3875.14
3875.3
3875.45
3875.59
3875.71
3875.83
3875.93
3876.02
3876.1
3876.17
3876.23
3876.28
3876.32
3876.35
3876.38
3876.39
3876.4
3876.41
3876.41
3876.4
3876.39
3876.37
3876.35
3876.33
3876.3
3876.28
3876.24
3876.21
3876.18
3876.14
3876.1
3876.06
3876.03
3875.99
3875.95
3875.91
3875.87
3875.83
3875.79
3875.75
3875.72
3875.68
3875.65
3875.61
3875.58
3875.55
3875.51
3875.48
3875.46
3875.43
3875.4
3875.37
3875.35
3875.33
3875.3
3875.28
3875.26
3875.24
3875.22
3875.21
3875.19
3875.18
3875.16
3875.15
3875.13
3875.12
3875.11
3875.1
3875.09
3875.08
3875.07
3875.06
3875.05
3875.05
3875.04
3875.03
3875.03
3875.02
3875.01
3875.01
3875.01
3875
3875
3874.99
3874.99
3874.99
3874.98
3874.98
3874.98
3874.98
3874.97
3874.97
3874.97
3874.97
3874.97
3874.97
3874.96
3874.96
3874.96
3874.96
3874.96
3874.96
3874.96
3874.96
3874.96
3874.96
3874.96
3874.96
3874.95
3874.95
3874.95
3874.95
3874.95
3874.95
3874.95
3874.95
3874.95
3874.95
3874.95
3874.95
3874.95
3874.95
3874.95
3874.95
3874.95
3874.95
3874.95
3874.95
3874.95
3874.95
3874.95
3874.95
3874.95
3874.95
3874.95
3874.95
3874.95
3874.95
3874.95
3874.95
3874.95
3874.95
3874.95
3874.95
3874.95
3874.95
3874.95
3874.95
3874.95
3874.95
3874.95
3874.95
3874.95
3874.95
3874.95
3874.95
3993.01
3962.41
3931.18
3899.59
3867.96
3836.52
3805.73
3777.18
3747.96
3719.81
3692.94
3667.47
3643.51
3621.09
3600.28
3581.09
3563.55
3547.66
3533.43
3520.84
3509.91
3500.62
3492.99
3487.02
3482.71
3480.17
3479.43
3480.52
3483.37
3488.08
3494.64
3503.03
3513.25
3525.24
3538.94
3554.26
3571.1
3589.32
3608.8
3629.38
3650.89
3673.17
3696.04
3719.35
3742.94
3766.63
3789.58
3812.82
3835.92
3858.65
3880.88
3902.45
3923.23
3943.08
3961.87
3979.47
3995.74
4010.55
4023.78
4035.27
4044.93
4052.62
4058.25
4061.72
4062.96
4061.94
4058.62
4053.01
4045.15
4035.12
4023.01
4008.98
3993.21
3975.88
3957.24
3937.54
3917.04
3896
3874.69
3853.36
3832.27
3811.63
3791.67
3772.55
3754.4
3737.37
3721.57
3707.1
3694.02
3682.38
3672.22
3663.54
3656.32
3650.56
3646.22
3643.25
3641.6
3641.2
3641.99
3643.91
3646.9
3650.88
3655.78
3661.52
3668.05
3675.27
3683.12
3691.51
3700.37
3709.61
3719.14
3728.9
3738.79
3748.74
3758.67
3768.5
3778.15
3787.57
3796.69
3805.45
3813.81
3821.7
3829.1
3835.95
3842.23
3847.92
3852.98
3857.42
3861.22
3864.38
3866.9
3868.8
3870.08
3870.78
3870.9
3870.49
3869.57
3868.17
3866.34
3864.11
3861.52
3858.61
3855.43
3852.02
3848.42
3844.67
3840.82
3836.9
3832.94
3828.98
3825.06
3821.19
3817.41
3813.73
3810.18
3806.76
3803.51
3800.42
3797.5
3794.75
3792.19
3789.82
3787.62
3785.6
3783.76
3782.09
3780.58
3779.23
3778.11
3777.05
3776.14
3775.36
3774.7
3774.15
3773.7
3773.35
3773.09
3772.91
3772.8
3772.75
3772.76
3772.81
3772.91
3773.05
3773.21
3773.4
3773.61
3773.84
3774.08
3774.33
3774.58
3774.84
3775.09
3775.34
3775.58
3775.82
3776.05
3776.27
3776.48
3776.68
3776.86
3777.04
3777.2
3777.35
3777.49
3777.62
3777.73
3777.83
3777.92
3778
3778.07
3778.13
3778.18
3778.22
3778.25
3778.28
3778.29
3778.31
3778.31
3778.31
3778.3
3778.29
3778.27
3778.25
3778.23
3778.2
3778.18
3778.14
3778.11
3778.08
3778.04
3778
3777.96
3777.93
3777.89
3777.85
3777.81
3777.77
3777.73
3777.69
3777.65
3777.62
3777.58
3777.55
3777.51
3777.48
3777.45
3777.41
3777.38
3777.36
3777.33
3777.3
3777.27
3777.25
3777.23
3777.2
3777.18
3777.16
3777.14
3777.12
3777.11
3777.09
3777.07
3777.06
3777.05
3777.03
3777.02
3777.01
3777
3776.99
3776.98
3776.97
3776.96
3776.95
3776.95
3776.94
3776.93
3776.93
3776.92
3776.91
3776.91
3776.91
3776.9
3776.9
3776.89
3776.89
3776.89
3776.88
3776.88
3776.88
3776.88
3776.87
3776.87
3776.87
3776.87
3776.87
3776.87
3776.86
3776.86
3776.86
3776.86
3776.86
3776.86
3776.86
3776.86
3776.86
3776.86
3776.86
3776.86
3776.85
3776.85
3776.85
3776.85
3776.85
3776.85
3776.85
3776.85
3776.85
3776.85
3776.85
3776.85
3776.85
3776.85
3776.85
3776.85
3776.85
3776.85
3776.85
3776.85
3776.85
3776.85
3776.85
3776.85
3776.85
3776.85
3776.85
3776.85
3776.85
3776.85
3776.85
3776.85
3776.85
3776.85
3776.85
3776.85
3776.85
3776.85
3776.85
3776.85
3776.85
3776.85
3776.85
3776.85
3776.85
3776.85
3776.85
3776.85
3894.96
3864.33
3833.06
3801.45
3769.8
3738.34
3707.54
3678.95
3649.72
3621.57
3594.69
3569.23
3545.26
3522.85
3502.04
3482.85
3465.31
3449.42
3435.19
3422.61
3411.67
3402.39
3394.75
3388.78
3384.48
3381.93
3381.19
3382.27
3385.12
3389.83
3396.39
3404.79
3415.01
3427
3440.7
3456.03
3472.88
3491.11
3510.6
3531.19
3552.71
3575
3597.88
3621.2
3644.8
3668.51
3691.46
3714.71
3737.82
3760.57
3782.81
3804.39
3825.18
3845.04
3863.85
3881.46
3897.74
3912.57
3925.8
3937.31
3946.98
3954.68
3960.32
3963.8
3965.04
3964.02
3960.7
3955.08
3947.22
3937.17
3925.06
3911.01
3895.21
3877.87
3859.21
3839.48
3818.96
3797.9
3776.57
3755.22
3734.11
3713.46
3693.48
3674.35
3656.2
3639.16
3623.36
3608.88
3595.8
3584.16
3574
3565.32
3558.11
3552.35
3548.01
3545.04
3543.4
3543.01
3543.8
3545.72
3548.72
3552.7
3557.61
3563.36
3569.89
3577.12
3584.97
3593.37
3602.23
3611.48
3621.02
3630.79
3640.68
3650.64
3660.57
3670.4
3680.06
3689.49
3698.61
3707.38
3715.74
3723.64
3731.04
3737.89
3744.18
3749.86
3754.93
3759.37
3763.17
3766.33
3768.85
3770.75
3772.03
3772.72
3772.85
3772.43
3771.51
3770.11
3768.27
3766.03
3763.44
3760.53
3757.35
3753.93
3750.33
3746.58
3742.72
3738.8
3734.84
3730.88
3726.95
3723.08
3719.3
3715.62
3712.06
3708.65
3705.39
3702.3
3699.38
3696.64
3694.08
3691.7
3689.51
3687.49
3685.65
3683.98
3682.47
3681.12
3680
3678.94
3678.03
3677.25
3676.59
3676.04
3675.6
3675.25
3674.99
3674.8
3674.69
3674.64
3674.65
3674.71
3674.81
3674.94
3675.11
3675.3
3675.51
3675.74
3675.98
3676.23
3676.48
3676.74
3676.99
3677.24
3677.49
3677.72
3677.95
3678.17
3678.38
3678.58
3678.77
3678.94
3679.1
3679.25
3679.39
3679.52
3679.63
3679.73
3679.82
3679.9
3679.97
3680.03
3680.08
3680.12
3680.15
3680.18
3680.2
3680.21
3680.21
3680.21
3680.2
3680.19
3680.17
3680.15
3680.13
3680.1
3680.08
3680.04
3680.01
3679.98
3679.94
3679.9
3679.86
3679.83
3679.79
3679.75
3679.71
3679.67
3679.63
3679.59
3679.55
3679.52
3679.48
3679.45
3679.41
3679.38
3679.35
3679.31
3679.28
3679.26
3679.23
3679.2
3679.17
3679.15
3679.13
3679.1
3679.08
3679.06
3679.04
3679.02
3679.01
3678.99
3678.97
3678.96
3678.95
3678.93
3678.92
3678.91
3678.9
3678.89
3678.88
3678.87
3678.86
3678.85
3678.85
3678.84
3678.83
3678.83
3678.82
3678.81
3678.81
3678.81
3678.8
3678.8
3678.79
3678.79
3678.79
3678.78
3678.78
3678.78
3678.78
3678.77
3678.77
3678.77
3678.77
3678.77
3678.77
3678.76
3678.76
3678.76
3678.76
3678.76
3678.76
3678.76
3678.76
3678.76
3678.76
3678.76
3678.76
3678.75
3678.75
3678.75
3678.75
3678.75
3678.75
3678.75
3678.75
3678.75
3678.75
3678.75
3678.75
3678.75
3678.75
3678.75
3678.75
3678.75
3678.75
3678.75
3678.75
3678.75
3678.75
3678.75
3678.75
3678.75
3678.75
3678.75
3678.75
3678.75
3678.75
3678.75
3678.75
3678.75
3678.75
3678.75
3678.75
3678.75
3678.75
3678.75
3678.75
3678.75
3678.75
3678.75
3678.75
3678.75
3678.75
3678.75
3678.75
3796.94
3766.25
3734.94
3703.29
3671.61
3640.11
3609.3
3580.66
3551.42
3523.26
3496.38
3470.91
3446.94
3424.53
3403.72
3384.53
3367
3351.11
3336.88
3324.3
3313.37
3304.09
3296.45
3290.48
3286.19
3283.63
3282.87
3283.95
3286.8
3291.51
3298.07
3306.47
3316.69
3328.69
3342.4
3357.74
3374.59
3392.84
3412.34
3432.95
3454.48
3476.79
3499.69
3523.03
3546.65
3570.37
3593.34
3616.61
3639.74
3662.5
3684.75
3706.35
3727.16
3747.04
3765.86
3783.49
3799.8
3814.64
3827.89
3839.42
3849.1
3856.82
3862.47
3865.96
3867.22
3866.18
3862.86
3857.24
3849.37
3839.31
3827.17
3813.1
3797.27
3779.9
3761.2
3741.45
3720.89
3699.8
3678.44
3657.06
3635.93
3615.25
3595.26
3576.11
3557.94
3540.9
3525.09
3510.61
3497.52
3485.88
3475.72
3467.04
3459.84
3454.08
3449.75
3446.79
3445.15
3444.77
3445.57
3447.5
3450.5
3454.49
3459.41
3465.17
3471.7
3478.94
3486.8
3495.21
3504.08
3513.34
3522.89
3532.66
3542.57
3552.53
3562.48
3572.32
3581.98
3591.41
3600.55
3609.33
3617.69
3625.6
3633
3639.86
3646.14
3651.83
3656.9
3661.34
3665.14
3668.3
3670.82
3672.72
3674
3674.69
3674.81
3674.39
3673.46
3672.06
3670.22
3667.98
3665.38
3662.46
3659.27
3655.85
3652.25
3648.49
3644.63
3640.7
3636.74
3632.78
3628.84
3624.97
3621.18
3617.5
3613.95
3610.53
3607.27
3604.18
3601.26
3598.52
3595.96
3593.58
3591.39
3589.37
3587.53
3585.86
3584.35
3583
3581.88
3580.83
3579.91
3579.13
3578.47
3577.93
3577.48
3577.14
3576.88
3576.7
3576.58
3576.54
3576.55
3576.6
3576.7
3576.84
3577.01
3577.2
3577.41
3577.64
3577.88
3578.13
3578.38
3578.64
3578.89
3579.14
3579.39
3579.62
3579.85
3580.08
3580.29
3580.48
3580.67
3580.84
3581
3581.15
3581.29
3581.42
3581.53
3581.63
3581.72
3581.8
3581.87
3581.93
3581.98
3582.02
3582.05
3582.08
3582.1
3582.11
3582.11
3582.11
3582.1
3582.09
3582.07
3582.05
3582.03
3582
3581.98
3581.94
3581.91
3581.88
3581.84
3581.8
3581.76
3581.73
3581.69
3581.65
3581.61
3581.57
3581.53
3581.49
3581.45
3581.42
3581.38
3581.35
3581.31
3581.28
3581.25
3581.21
3581.18
3581.16
3581.13
3581.1
3581.07
3581.05
3581.03
3581
3580.98
3580.96
3580.94
3580.92
3580.91
3580.89
3580.87
3580.86
3580.85
3580.83
3580.82
3580.81
3580.8
3580.79
3580.78
3580.77
3580.76
3580.75
3580.75
3580.74
3580.73
3580.73
3580.72
3580.71
3580.71
3580.71
3580.7
3580.7
3580.69
3580.69
3580.69
3580.68
3580.68
3580.68
3580.68
3580.67
3580.67
3580.67
3580.67
3580.67
3580.67
3580.66
3580.66
3580.66
3580.66
3580.66
3580.66
3580.66
3580.66
3580.66
3580.66
3580.66
3580.66
3580.65
3580.65
3580.65
3580.65
3580.65
3580.65
3580.65
3580.65
3580.65
3580.65
3580.65
3580.65
3580.65
3580.65
3580.65
3580.65
3580.65
3580.65
3580.65
3580.65
3580.65
3580.65
3580.65
3580.65
3580.65
3580.65
3580.65
3580.65
3580.65
3580.65
3580.65
3580.65
3580.65
3580.65
3580.65
3580.65
3580.65
3580.65
3580.65
3580.65
3580.65
3580.65
3580.65
3580.65
3580.65
3580.65
3580.65
3580.65
3698.93
3668.18
3636.82
3605.11
3573.38
3541.85
3511.01
3482.3
3453.06
3424.89
3397.99
3372.52
3348.55
3326.13
3305.33
3286.14
3268.61
3252.73
3238.5
3225.93
3215
3205.72
3198.09
3192.12
3187.82
3185.26
3184.48
3185.55
3188.41
3193.12
3199.67
3208.07
3218.3
3230.31
3244.02
3259.38
3276.25
3294.51
3314.03
3334.66
3356.22
3378.55
3401.47
3424.84
3448.48
3472.23
3495.21
3518.5
3541.65
3564.44
3586.71
3608.34
3629.17
3649.07
3667.92
3685.57
3701.9
3716.77
3730.05
3741.6
3751.3
3759.05
3764.71
3768.21
3769.47
3768.44
3765.12
3759.49
3751.6
3741.52
3729.36
3715.25
3699.39
3681.97
3663.24
3643.43
3622.83
3601.7
3580.3
3558.89
3537.72
3517.01
3497
3477.83
3459.64
3442.58
3426.76
3412.27
3399.18
3387.54
3377.38
3368.71
3361.5
3355.76
3351.43
3348.48
3346.85
3346.48
3347.29
3349.23
3352.24
3356.25
3361.17
3366.94
3373.49
3380.74
3388.61
3397.03
3405.91
3415.18
3424.75
3434.53
3444.45
3454.43
3464.38
3474.24
3483.91
3493.35
3502.5
3511.28
3519.66
3527.57
3534.98
3541.84
3548.13
3553.83
3558.9
3563.34
3567.14
3570.3
3572.82
3574.71
3575.99
3576.68
3576.79
3576.37
3575.44
3574.03
3572.18
3569.93
3567.33
3564.4
3561.21
3557.78
3554.17
3550.41
3546.54
3542.61
3538.64
3534.67
3530.73
3526.86
3523.07
3519.38
3515.82
3512.41
3509.15
3506.05
3503.13
3500.39
3497.83
3495.45
3493.26
3491.24
3489.4
3487.73
3486.23
3484.88
3483.75
3482.7
3481.79
3481.01
3480.36
3479.81
3479.37
3479.02
3478.76
3478.58
3478.47
3478.43
3478.44
3478.5
3478.6
3478.73
3478.9
3479.1
3479.31
3479.54
3479.78
3480.03
3480.28
3480.54
3480.79
3481.04
3481.29
3481.53
3481.76
3481.98
3482.19
3482.39
3482.57
3482.74
3482.91
3483.06
3483.19
3483.32
3483.43
3483.53
3483.63
3483.7
3483.77
3483.83
3483.88
3483.92
3483.96
3483.98
3484
3484.01
3484.01
3484.01
3484
3483.99
3483.98
3483.96
3483.93
3483.91
3483.88
3483.84
3483.81
3483.78
3483.74
3483.7
3483.66
3483.63
3483.59
3483.55
3483.51
3483.47
3483.43
3483.39
3483.35
3483.32
3483.28
3483.25
3483.21
3483.18
3483.15
3483.11
3483.08
3483.06
3483.03
3483
3482.97
3482.95
3482.93
3482.9
3482.88
3482.86
3482.84
3482.82
3482.81
3482.79
3482.77
3482.76
3482.75
3482.73
3482.72
3482.71
3482.7
3482.69
3482.68
3482.67
3482.66
3482.65
3482.64
3482.64
3482.63
3482.63
3482.62
3482.61
3482.61
3482.61
3482.6
3482.6
3482.59
3482.59
3482.59
3482.58
3482.58
3482.58
3482.58
3482.57
3482.57
3482.57
3482.57
3482.57
3482.57
3482.56
3482.56
3482.56
3482.56
3482.56
3482.56
3482.56
3482.56
3482.56
3482.56
3482.56
3482.56
3482.55
3482.55
3482.55
3482.55
3482.55
3482.55
3482.55
3482.55
3482.55
3482.55
3482.55
3482.55
3482.55
3482.55
3482.55
3482.55
3482.55
3482.55
3482.55
3482.55
3482.55
3482.55
3482.55
3482.55
3482.55
3482.55
3482.55
3482.55
3482.55
3482.55
3482.55
3482.55
3482.55
3482.55
3482.55
3482.55
3482.55
3482.55
3482.55
3482.55
3482.55
3482.55
3482.55
3482.55
3482.55
3482.55
3482.55
3482.55
3600.95
3570.12
3538.68
3506.91
3475.12
3443.54
3412.67
3383.88
3354.62
3326.44
3299.54
3274.06
3250.08
3227.67
3206.86
3187.68
3170.16
3154.28
3140.06
3127.49
3116.56
3107.28
3099.65
3093.68
3089.39
3086.82
3086.02
3087.09
3089.95
3094.65
3101.21
3109.61
3119.84
3131.85
3145.58
3160.95
3177.84
3196.12
3215.67
3236.33
3257.91
3280.27
3303.23
3326.62
3350.29
3374.07
3397.07
3420.39
3443.57
3466.38
3488.69
3510.34
3531.2
3551.14
3570.01
3587.7
3604.06
3618.96
3632.27
3643.85
3653.58
3661.35
3667.03
3670.55
3671.82
3670.79
3667.47
3661.83
3653.92
3643.81
3631.61
3617.47
3601.56
3584.09
3565.3
3545.44
3524.78
3503.59
3482.14
3460.69
3439.48
3418.74
3398.69
3379.49
3361.28
3344.21
3328.37
3313.88
3300.78
3289.14
3278.98
3270.31
3263.11
3257.37
3253.06
3250.12
3248.5
3248.14
3248.96
3250.92
3253.94
3257.96
3262.9
3268.68
3275.25
3282.51
3290.4
3298.83
3307.73
3317.01
3326.59
3336.39
3346.33
3356.32
3366.29
3376.16
3385.84
3395.3
3404.46
3413.26
3421.64
3429.56
3436.98
3443.85
3450.15
3455.85
3460.92
3465.37
3469.17
3472.33
3474.85
3476.73
3478.01
3478.69
3478.8
3478.37
3477.43
3476.01
3474.16
3471.9
3469.29
3466.36
3463.15
3459.72
3456.1
3452.33
3448.45
3444.51
3440.53
3436.56
3432.62
3428.74
3424.94
3421.26
3417.69
3414.28
3411.01
3407.92
3405
3402.25
3399.69
3397.32
3395.12
3393.11
3391.27
3389.6
3388.1
3386.76
3385.62
3384.58
3383.67
3382.89
3382.23
3381.69
3381.25
3380.91
3380.65
3380.47
3380.36
3380.32
3380.33
3380.39
3380.49
3380.63
3380.8
3380.99
3381.21
3381.44
3381.68
3381.93
3382.18
3382.44
3382.69
3382.94
3383.19
3383.43
3383.66
3383.88
3384.09
3384.29
3384.47
3384.65
3384.81
3384.96
3385.1
3385.22
3385.34
3385.44
3385.53
3385.61
3385.68
3385.73
3385.78
3385.82
3385.86
3385.88
3385.9
3385.91
3385.91
3385.91
3385.9
3385.89
3385.88
3385.86
3385.83
3385.81
3385.78
3385.75
3385.71
3385.68
3385.64
3385.6
3385.56
3385.53
3385.49
3385.45
3385.41
3385.37
3385.33
3385.29
3385.25
3385.22
3385.18
3385.15
3385.11
3385.08
3385.05
3385.01
3384.98
3384.95
3384.93
3384.9
3384.87
3384.85
3384.83
3384.8
3384.78
3384.76
3384.74
3384.72
3384.71
3384.69
3384.67
3384.66
3384.65
3384.63
3384.62
3384.61
3384.6
3384.59
3384.58
3384.57
3384.56
3384.55
3384.54
3384.54
3384.53
3384.53
3384.52
3384.51
3384.51
3384.51
3384.5
3384.5
3384.49
3384.49
3384.49
3384.48
3384.48
3384.48
3384.48
3384.47
3384.47
3384.47
3384.47
3384.47
3384.47
3384.46
3384.46
3384.46
3384.46
3384.46
3384.46
3384.46
3384.46
3384.46
3384.46
3384.46
3384.46
3384.45
3384.45
3384.45
3384.45
3384.45
3384.45
3384.45
3384.45
3384.45
3384.45
3384.45
3384.45
3384.45
3384.45
3384.45
3384.45
3384.45
3384.45
3384.45
3384.45
3384.45
3384.45
3384.45
3384.45
3384.45
3384.45
3384.45
3384.45
3384.45
3384.45
3384.45
3384.45
3384.45
3384.45
3384.45
3384.45
3384.45
3384.45
3384.45
3384.45
3384.45
3384.45
3384.45
3384.45
3384.45
3384.45
3384.45
3384.45
3502.99
3472.07
3440.54
3408.69
3376.83
3345.19
3314.28
3285.4
3256.12
3227.92
3201.01
3175.52
3151.54
3129.13
3108.32
3089.15
3071.63
3055.76
3041.54
3028.98
3018.06
3008.78
3001.15
2995.18
2990.89
2988.31
2987.49
2988.55
2991.41
2996.11
3002.66
3011.07
3021.3
3033.33
3047.07
3062.46
3079.37
3097.68
3117.26
3137.94
3159.56
3181.96
3204.95
3228.38
3252.08
3275.89
3298.92
3322.28
3345.49
3368.34
3390.68
3412.37
3433.26
3453.24
3472.15
3489.87
3506.27
3521.21
3534.55
3546.17
3555.93
3563.73
3569.44
3572.97
3574.26
3573.24
3569.91
3564.25
3556.32
3546.18
3533.94
3519.75
3503.78
3486.25
3467.39
3447.47
3426.74
3405.49
3383.98
3362.47
3341.21
3320.43
3300.34
3281.11
3262.88
3245.78
3229.93
3215.42
3202.32
3190.68
3180.52
3171.85
3164.67
3158.94
3154.64
3151.71
3150.11
3149.76
3150.6
3152.57
3155.61
3159.64
3164.6
3170.4
3176.97
3184.25
3192.16
3200.61
3209.53
3218.83
3228.43
3238.25
3248.2
3258.21
3268.2
3278.08
3287.79
3297.26
3306.43
3315.24
3323.64
3331.57
3339
3345.88
3352.18
3357.89
3362.97
3367.42
3371.22
3374.38
3376.89
3378.78
3380.05
3380.72
3380.83
3380.39
3379.44
3378.01
3376.15
3373.88
3371.26
3368.32
3365.11
3361.66
3358.03
3354.25
3350.37
3346.42
3342.43
3338.45
3334.5
3330.62
3326.82
3323.12
3319.56
3316.14
3312.87
3309.78
3306.85
3304.11
3301.55
3299.17
3296.98
3294.96
3293.13
3291.46
3289.96
3288.62
3287.48
3286.44
3285.54
3284.76
3284.11
3283.57
3283.13
3282.79
3282.53
3282.35
3282.25
3282.2
3282.22
3282.28
3282.38
3282.52
3282.69
3282.89
3283.1
3283.33
3283.58
3283.83
3284.08
3284.34
3284.59
3284.84
3285.09
3285.33
3285.56
3285.78
3285.99
3286.19
3286.37
3286.55
3286.71
3286.86
3287
3287.12
3287.24
3287.34
3287.43
3287.51
3287.58
3287.64
3287.69
3287.73
3287.76
3287.78
3287.8
3287.81
3287.81
3287.81
3287.8
3287.79
3287.78
3287.76
3287.73
3287.71
3287.68
3287.65
3287.61
3287.58
3287.54
3287.5
3287.46
3287.43
3287.39
3287.35
3287.31
3287.27
3287.23
3287.19
3287.15
3287.12
3287.08
3287.05
3287.01
3286.98
3286.95
3286.91
3286.88
3286.85
3286.83
3286.8
3286.77
3286.75
3286.73
3286.7
3286.68
3286.66
3286.64
3286.62
3286.61
3286.59
3286.57
3286.56
3286.55
3286.53
3286.52
3286.51
3286.5
3286.49
3286.48
3286.47
3286.46
3286.45
3286.44
3286.44
3286.43
3286.43
3286.42
3286.41
3286.41
3286.4
3286.4
3286.4
3286.39
3286.39
3286.39
3286.38
3286.38
3286.38
3286.38
3286.37
3286.37
3286.37
3286.37
3286.37
3286.37
3286.36
3286.36
3286.36
3286.36
3286.36
3286.36
3286.36
3286.36
3286.36
3286.36
3286.36
3286.36
3286.35
3286.35
3286.35
3286.35
3286.35
3286.35
3286.35
3286.35
3286.35
3286.35
3286.35
3286.35
3286.35
3286.35
3286.35
3286.35
3286.35
3286.35
3286.35
3286.35
3286.35
3286.35
3286.35
3286.35
3286.35
3286.35
3286.35
3286.35
3286.35
3286.35
3286.35
3286.35
3286.35
3286.35
3286.35
3286.35
3286.35
3286.35
3286.35
3286.35
3286.35
3286.35
3286.35
3286.35
3286.35
3286.35
3286.35
3286.35
3405.06
3374.02
3342.39
3310.44
3278.5
3246.8
3215.84
3186.86
3157.55
3129.33
3102.41
3076.91
3052.93
3030.51
3009.71
2990.55
2973.03
2957.17
2942.96
2930.4
2919.49
2910.22
2902.59
2896.62
2892.32
2889.73
2888.89
2889.95
2892.8
2897.5
2904.05
2912.45
2922.69
2934.73
2948.49
2963.9
2980.84
2999.18
3018.79
3039.52
3061.18
3083.61
3106.64
3130.11
3153.86
3177.71
3200.76
3224.16
3247.42
3270.31
3292.69
3314.42
3335.35
3355.37
3374.32
3392.09
3408.53
3423.51
3436.9
3448.56
3458.36
3466.19
3471.93
3475.48
3476.78
3475.77
3472.43
3466.76
3458.8
3448.63
3436.34
3422.09
3406.06
3388.46
3369.52
3349.52
3328.72
3307.39
3285.81
3264.23
3242.91
3222.08
3201.95
3182.68
3164.42
3147.29
3131.43
3116.91
3103.8
3092.15
3082
3073.34
3066.16
3060.44
3056.16
3053.25
3051.66
3051.33
3052.19
3054.18
3057.23
3061.28
3066.26
3072.08
3078.67
3085.97
3093.9
3102.37
3111.31
3120.63
3130.25
3140.09
3150.07
3160.1
3170.11
3180.02
3189.74
3199.23
3208.42
3217.25
3225.66
3233.6
3241.04
3247.93
3254.24
3259.95
3265.04
3269.49
3273.29
3276.45
3278.97
3280.85
3282.11
3282.78
3282.88
3282.43
3281.47
3280.04
3278.16
3275.88
3273.25
3270.29
3267.07
3263.61
3259.97
3256.18
3252.28
3248.32
3244.33
3240.34
3236.39
3232.49
3228.69
3224.99
3221.42
3217.99
3214.73
3211.63
3208.7
3205.96
3203.4
3201.02
3198.83
3196.82
3194.98
3193.32
3191.82
3190.49
3189.34
3188.3
3187.4
3186.63
3185.98
3185.44
3185
3184.66
3184.41
3184.23
3184.13
3184.09
3184.1
3184.17
3184.27
3184.41
3184.58
3184.78
3185
3185.23
3185.47
3185.72
3185.98
3186.24
3186.49
3186.75
3186.99
3187.23
3187.46
3187.68
3187.89
3188.09
3188.28
3188.45
3188.62
3188.77
3188.9
3189.03
3189.14
3189.24
3189.33
3189.41
3189.48
3189.54
3189.59
3189.63
3189.66
3189.68
3189.7
3189.71
3189.72
3189.71
3189.71
3189.69
3189.68
3189.66
3189.63
3189.61
3189.58
3189.55
3189.51
3189.48
3189.44
3189.4
3189.36
3189.33
3189.29
3189.25
3189.21
3189.17
3189.13
3189.09
3189.05
3189.02
3188.98
3188.94
3188.91
3188.88
3188.84
3188.81
3188.78
3188.75
3188.73
3188.7
3188.67
3188.65
3188.63
3188.6
3188.58
3188.56
3188.54
3188.52
3188.51
3188.49
3188.47
3188.46
3188.45
3188.43
3188.42
3188.41
3188.4
3188.39
3188.38
3188.37
3188.36
3188.35
3188.34
3188.34
3188.33
3188.33
3188.32
3188.31
3188.31
3188.3
3188.3
3188.3
3188.29
3188.29
3188.29
3188.28
3188.28
3188.28
3188.28
3188.27
3188.27
3188.27
3188.27
3188.27
3188.27
3188.26
3188.26
3188.26
3188.26
3188.26
3188.26
3188.26
3188.26
3188.26
3188.26
3188.26
3188.26
3188.25
3188.25
3188.25
3188.25
3188.25
3188.25
3188.25
3188.25
3188.25
3188.25
3188.25
3188.25
3188.25
3188.25
3188.25
3188.25
3188.25
3188.25
3188.25
3188.25
3188.25
3188.25
3188.25
3188.25
3188.25
3188.25
3188.25
3188.25
3188.25
3188.25
3188.25
3188.25
3188.25
3188.25
3188.25
3188.25
3188.25
3188.25
3188.25
3188.25
3188.25
3188.25
3188.25
3188.25
3188.25
3188.25
3188.25
3188.25
3307.15
3275.99
3244.23
3212.18
3180.14
3148.36
3117.35
3088.25
3058.91
3030.67
3003.73
2978.23
2954.24
2931.83
2911.03
2891.87
2874.36
2858.51
2844.31
2831.76
2820.85
2811.58
2803.96
2797.98
2793.68
2791.08
2790.22
2791.27
2794.12
2798.81
2805.36
2813.76
2824.01
2836.06
2849.84
2865.27
2882.24
2900.62
2920.27
2941.04
2962.74
2985.23
3008.3
3031.82
3055.62
3079.52
3102.59
3126.04
3149.35
3172.28
3194.71
3216.48
3237.47
3257.53
3276.53
3294.35
3310.84
3325.87
3339.31
3351.02
3360.86
3368.73
3374.5
3378.08
3379.4
3378.39
3375.05
3369.36
3361.38
3351.16
3338.81
3324.5
3308.39
3290.7
3271.68
3251.59
3230.7
3209.29
3187.62
3165.97
3144.59
3123.7
3103.51
3084.21
3065.91
3048.75
3032.87
3018.33
3005.22
2993.57
2983.42
2974.76
2967.6
2961.89
2957.62
2954.73
2953.16
2952.85
2953.73
2955.74
2958.82
2962.89
2967.88
2973.72
2980.34
2987.66
2995.61
3004.11
3013.07
3022.42
3032.07
3041.93
3051.94
3061.99
3072.02
3081.95
3091.69
3101.21
3110.42
3119.26
3127.69
3135.65
3143.1
3150
3156.33
3162.04
3167.13
3171.59
3175.39
3178.55
3181.06
3182.94
3184.2
3184.86
3184.95
3184.49
3183.52
3182.07
3180.18
3177.89
3175.24
3172.28
3169.04
3165.57
3161.91
3158.11
3154.2
3150.23
3146.23
3142.23
3138.26
3134.36
3130.55
3126.85
3123.27
3119.84
3116.57
3113.47
3110.54
3107.8
3105.24
3102.86
3100.67
3098.66
3096.83
3095.16
3093.67
3092.34
3091.19
3090.16
3089.26
3088.49
3087.84
3087.3
3086.87
3086.53
3086.28
3086.11
3086.01
3085.97
3085.99
3086.05
3086.16
3086.3
3086.48
3086.67
3086.89
3087.13
3087.37
3087.62
3087.88
3088.14
3088.39
3088.65
3088.89
3089.13
3089.37
3089.59
3089.8
3090
3090.18
3090.36
3090.52
3090.67
3090.81
3090.93
3091.04
3091.15
3091.24
3091.32
3091.38
3091.44
3091.49
3091.53
3091.56
3091.59
3091.6
3091.61
3091.62
3091.62
3091.61
3091.6
3091.58
3091.56
3091.53
3091.51
3091.48
3091.45
3091.41
3091.38
3091.34
3091.3
3091.26
3091.23
3091.19
3091.15
3091.11
3091.07
3091.03
3090.99
3090.95
3090.92
3090.88
3090.84
3090.81
3090.78
3090.74
3090.71
3090.68
3090.65
3090.63
3090.6
3090.57
3090.55
3090.53
3090.5
3090.48
3090.46
3090.44
3090.42
3090.41
3090.39
3090.37
3090.36
3090.35
3090.33
3090.32
3090.31
3090.3
3090.29
3090.28
3090.27
3090.26
3090.25
3090.24
3090.24
3090.23
3090.23
3090.22
3090.21
3090.21
3090.2
3090.2
3090.2
3090.19
3090.19
3090.19
3090.18
3090.18
3090.18
3090.18
3090.17
3090.17
3090.17
3090.17
3090.17
3090.17
3090.16
3090.16
3090.16
3090.16
3090.16
3090.16
3090.16
3090.16
3090.16
3090.16
3090.16
3090.16
3090.15
3090.15
3090.15
3090.15
3090.15
3090.15
3090.15
3090.15
3090.15
3090.15
3090.15
3090.15
3090.15
3090.15
3090.15
3090.15
3090.15
3090.15
3090.15
3090.15
3090.15
3090.15
3090.15
3090.15
3090.15
3090.15
3090.15
3090.15
3090.15
3090.15
3090.15
3090.15
3090.15
3090.15
3090.15
3090.15
3090.15
3090.15
3090.15
3090.15
3090.15
3090.15
3090.15
3090.15
3090.15
3090.15
3090.15
3090.15
3209.26
3177.95
3146.06
3113.89
3081.75
3049.88
3018.81
2989.58
2960.21
2931.94
2904.99
2879.47
2855.48
2833.07
2812.27
2793.12
2775.62
2759.78
2745.59
2733.05
2722.15
2712.88
2705.26
2699.28
2694.98
2692.37
2691.48
2692.52
2695.36
2700.05
2706.6
2715
2725.26
2737.32
2751.12
2766.58
2783.59
2802.01
2821.7
2842.52
2864.27
2886.8
2909.94
2933.51
2957.36
2981.31
3004.42
3027.93
3051.28
3074.27
3096.75
3118.57
3139.61
3159.72
3178.78
3196.66
3213.2
3228.29
3241.79
3253.55
3263.44
3271.35
3277.16
3280.77
3282.11
3281.11
3277.76
3272.05
3264.03
3253.77
3241.36
3226.97
3210.78
3193
3173.88
3153.68
3132.69
3111.18
3089.43
3067.69
3046.23
3025.27
3005.04
2985.68
2967.34
2950.16
2934.25
2919.7
2906.57
2894.92
2884.77
2876.13
2868.97
2863.28
2859.03
2856.16
2854.61
2854.33
2855.23
2857.26
2860.36
2864.46
2869.48
2875.34
2881.98
2889.33
2897.31
2905.83
2914.82
2924.19
2933.87
2943.76
2953.79
2963.88
2973.94
2983.89
2993.66
3003.19
3012.43
3021.29
3029.74
3037.72
3045.18
3052.1
3058.43
3064.16
3069.25
3073.71
3077.52
3080.67
3083.18
3085.06
3086.31
3086.96
3087.04
3086.57
3085.59
3084.13
3082.22
3079.92
3077.25
3074.27
3071.02
3067.53
3063.86
3060.04
3056.12
3052.14
3048.12
3044.11
3040.14
3036.23
3032.41
3028.7
3025.12
3021.69
3018.41
3015.31
3012.38
3009.63
3007.07
3004.7
3002.51
3000.5
2998.66
2997.01
2995.52
2994.19
2993.04
2992.01
2991.11
2990.35
2989.7
2989.17
2988.74
2988.4
2988.16
2987.99
2987.89
2987.85
2987.87
2987.94
2988.05
2988.19
2988.37
2988.57
2988.79
2989.02
2989.27
2989.52
2989.78
2990.04
2990.3
2990.55
2990.8
2991.04
2991.27
2991.49
2991.7
2991.9
2992.09
2992.26
2992.42
2992.57
2992.71
2992.84
2992.95
2993.05
2993.14
2993.22
2993.29
2993.35
2993.39
2993.43
2993.47
2993.49
2993.51
2993.52
2993.52
2993.52
2993.51
2993.5
2993.48
2993.46
2993.44
2993.41
2993.38
2993.35
2993.31
2993.28
2993.24
2993.2
2993.16
2993.13
2993.09
2993.05
2993.01
2992.97
2992.93
2992.89
2992.85
2992.82
2992.78
2992.74
2992.71
2992.68
2992.64
2992.61
2992.58
2992.55
2992.53
2992.5
2992.47
2992.45
2992.42
2992.4
2992.38
2992.36
2992.34
2992.32
2992.31
2992.29
2992.27
2992.26
2992.24
2992.23
2992.22
2992.21
2992.2
2992.19
2992.18
2992.17
2992.16
2992.15
2992.14
2992.14
2992.13
2992.12
2992.12
2992.11
2992.11
2992.1
2992.1
2992.1
2992.09
2992.09
2992.09
2992.08
2992.08
2992.08
2992.08
2992.07
2992.07
2992.07
2992.07
2992.07
2992.07
2992.06
2992.06
2992.06
2992.06
2992.06
2992.06
2992.06
2992.06
2992.06
2992.06
2992.06
2992.06
2992.05
2992.05
2992.05
2992.05
2992.05
2992.05
2992.05
2992.05
2992.05
2992.05
2992.05
2992.05
2992.05
2992.05
2992.05
2992.05
2992.05
2992.05
2992.05
2992.05
2992.05
2992.05
2992.05
2992.05
2992.05
2992.05
2992.05
2992.05
2992.05
2992.05
2992.05
2992.05
2992.05
2992.05
2992.05
2992.05
2992.05
2992.05
2992.05
2992.05
2992.05
2992.05
2992.05
2992.05
2992.05
2992.05
2992.05
2992.05
3111.4
3079.92
3047.88
3015.58
2983.31
2951.35
2920.21
2890.85
2861.44
2833.14
2806.17
2780.64
2756.64
2734.23
2713.44
2694.29
2676.8
2660.98
2646.8
2634.27
2623.38
2614.11
2606.49
2600.51
2596.2
2593.58
2592.67
2593.71
2596.54
2601.22
2607.76
2616.16
2626.43
2638.5
2652.33
2667.82
2684.87
2703.33
2723.08
2743.95
2765.76
2788.35
2811.54
2835.17
2859.08
2883.09
2906.24
2929.8
2953.22
2976.27
2998.8
3020.68
3041.78
3061.95
3081.07
3099.01
3115.62
3130.77
3144.33
3156.15
3166.1
3174.06
3179.91
3183.55
3184.91
3183.92
3180.56
3174.83
3166.77
3156.45
3143.98
3129.5
3113.22
3095.33
3076.1
3055.8
3034.69
3013.07
2991.22
2969.39
2947.84
2926.82
2906.52
2887.11
2868.73
2851.51
2835.57
2821.01
2807.87
2796.21
2786.07
2777.43
2770.29
2764.62
2760.39
2757.54
2756.02
2755.75
2756.68
2758.74
2761.87
2765.99
2771.03
2776.93
2783.6
2790.97
2798.97
2807.53
2816.55
2825.95
2835.66
2845.59
2855.65
2865.76
2875.85
2885.84
2895.63
2905.19
2914.45
2923.34