/*--------------------------------*- C++ -*----------------------------------*\
| =========                 |                                                 |
| \\      /  F ield         | OpenFOAM: The Open Source CFD Toolbox           |
|  \\    /   O peration     | Version:  3.0.1                                 |
|   \\  /    A nd           | Web:      www.OpenFOAM.org                      |
|    \\/     M anipulation  |                                                 |
\*---------------------------------------------------------------------------*/
FoamFile
{
    version     2.0;
    format      ascii;
    class       surfaceScalarField;
    location    "42.4";
    object      alphaPhi;
}
// * * * * * * * * * * * * * * * * * * * * * * * * * * * * * * * * * * * * * //

dimensions      [0 3 -1 0 0 0 0];

internalField   nonuniform List<scalar> 
42423
(
9.84668e-05
1.75734e-05
8.0675e-05
1.77919e-05
6.25248e-05
1.81502e-05
4.41094e-05
1.84153e-05
2.58951e-05
1.82143e-05
7.83308e-06
1.8062e-05
-9.74513e-06
1.75782e-05
-2.67351e-05
1.699e-05
-4.29764e-05
1.62413e-05
-5.83352e-05
1.53588e-05
-7.28028e-05
1.44676e-05
-8.6308e-05
1.35052e-05
-9.88176e-05
1.25096e-05
-0.00011035
1.15322e-05
-0.000120892
1.05419e-05
-0.000130479
9.58685e-06
-0.000139124
8.64582e-06
-0.000146842
7.71809e-06
-0.000153687
6.84444e-06
-0.000159679
5.992e-06
-0.000164845
5.16611e-06
-0.00016922
4.37546e-06
-0.000172834
3.6131e-06
-0.000175713
2.87934e-06
-0.000177861
2.1477e-06
-0.0001793
1.43974e-06
-0.000180088
7.87502e-07
-0.000180179
9.15865e-08
-0.000179521
-6.58205e-07
-0.000178153
-1.36841e-06
-0.000176111
-2.04222e-06
-0.000173244
-2.86694e-06
-0.000169663
-3.58027e-06
-0.000165284
-4.37935e-06
-0.000160108
-5.17634e-06
-0.000154214
-5.89385e-06
-0.000147363
-6.85091e-06
-0.000139673
-7.69007e-06
-0.000131112
-8.56142e-06
-0.000121514
-9.59765e-06
-0.000111079
-1.04351e-05
-9.95285e-05
-1.15503e-05
-8.70851e-05
-1.24434e-05
-7.37843e-05
-1.33009e-05
-5.94527e-05
-1.43316e-05
-4.42743e-05
-1.51784e-05
-2.84161e-05
-1.58583e-05
-1.16418e-05
-1.67743e-05
5.70758e-06
-1.73494e-05
2.34273e-05
-1.77197e-05
4.15281e-05
-1.81009e-05
5.97853e-05
-1.82572e-05
7.80438e-05
-1.82586e-05
9.61382e-05
-1.80944e-05
0.000113669
-1.75309e-05
0.000130572
-1.69028e-05
0.000146593
-1.60217e-05
0.000161429
-1.48352e-05
0.000174944
-1.35156e-05
0.000186883
-1.19391e-05
0.000197184
-1.03007e-05
0.00020561
-8.42578e-06
0.000211957
-6.34749e-06
0.000216252
-4.29526e-06
0.000218321
-2.06834e-06
0.000218125
1.95843e-07
0.000215639
2.48594e-06
0.000210975
4.6638e-06
0.000204167
6.80793e-06
0.000195416
8.75077e-06
0.000184763
1.0653e-05
0.000172344
1.24187e-05
0.000158447
1.38971e-05
0.000143143
1.53043e-05
0.000126855
1.62877e-05
0.000109683
1.71722e-05
9.19459e-05
1.77373e-05
7.3663e-05
1.82829e-05
5.53748e-05
1.82883e-05
3.71207e-05
1.82541e-05
1.90748e-05
1.80459e-05
1.42789e-06
1.76469e-05
-1.56719e-05
1.70998e-05
-3.21057e-05
1.64337e-05
-4.77012e-05
1.55954e-05
-6.24173e-05
1.4716e-05
-7.61803e-05
1.37629e-05
-8.89589e-05
1.27785e-05
-0.000100746
1.17874e-05
-0.000111525
1.07786e-05
-0.000121285
9.75973e-06
-0.00013008
8.79508e-06
-0.000137909
7.82814e-06
-0.000144779
6.8708e-06
-0.000150724
5.94486e-06
-0.000155739
5.01496e-06
-0.000159871
4.13159e-06
-0.000163165
3.29388e-06
-0.000165656
2.4911e-06
-0.000167399
1.74241e-06
-0.000168395
9.96502e-07
-0.000168654
2.58766e-07
-0.000168338
-3.16016e-07
-0.000167321
-1.01725e-06
-0.0001657
-1.62142e-06
-0.000163452
-2.24733e-06
-0.000160601
-2.85106e-06
-0.000157198
-3.40308e-06
-0.000153187
-4.01159e-06
-0.000148588
-4.59825e-06
-0.00014344
-5.14838e-06
-0.00013766
-5.78007e-06
-0.000131231
-6.42927e-06
-0.000124273
-6.9579e-06
-0.000116612
-7.66057e-06
-0.000108317
-8.29561e-06
-9.93287e-05
-8.98813e-06
-8.96537e-05
-9.67505e-06
-7.93986e-05
-1.02552e-05
-6.84314e-05
-1.09673e-05
-5.6792e-05
-1.16395e-05
-4.45152e-05
-1.22769e-05
-3.15879e-05
-1.29274e-05
-1.81426e-05
-1.34454e-05
-4.05292e-06
-1.40897e-05
1.04208e-05
-1.44738e-05
2.53843e-05
-1.49637e-05
4.07236e-05
-1.53393e-05
5.63075e-05
-1.55841e-05
7.20276e-05
-1.57202e-05
8.7735e-05
-1.57075e-05
0.000103314
-1.55792e-05
0.00011851
-1.5196e-05
0.000133182
-1.46718e-05
0.000147101
-1.39199e-05
0.000160036
-1.29351e-05
0.000171777
-1.1741e-05
0.000182086
-1.03085e-05
0.000190778
-8.69208e-06
0.000197647
-6.86899e-06
0.000202544
-4.89702e-06
0.000205348
-2.80489e-06
0.000206023
-6.74452e-07
0.000204541
1.48177e-06
0.000200843
3.69828e-06
0.000194957
5.8858e-06
0.000187049
7.90811e-06
0.000177183
9.86546e-06
0.000165559
1.16238e-05
0.000152349
1.321e-05
0.000137784
1.45651e-05
0.000122077
1.57073e-05
0.000105505
1.65718e-05
8.83381e-05
1.7167e-05
7.07917e-05
1.75464e-05
5.3137e-05
1.76547e-05
3.55931e-05
1.75438e-05
1.83454e-05
1.72478e-05
1.59957e-06
1.67458e-05
-1.45165e-05
1.6116e-05
-2.98766e-05
1.53602e-05
-4.43524e-05
1.44758e-05
-5.79505e-05
1.35981e-05
-7.0511e-05
1.25605e-05
-8.20819e-05
1.15709e-05
-9.27149e-05
1.0633e-05
-0.000102313
9.59808e-06
-0.000110977
8.66369e-06
-0.000118749
7.77252e-06
-0.000125602
6.85263e-06
-0.000131687
6.08539e-06
-0.000136962
5.27529e-06
-0.000141565
4.60218e-06
-0.000145519
3.9546e-06
-0.000148866
3.34663e-06
-0.000151752
2.88618e-06
-0.000154097
2.3452e-06
-0.00015596
1.863e-06
-0.000157365
1.40459e-06
-0.000158303
9.37922e-07
-0.000158876
5.7365e-07
-0.000158998
1.21517e-07
-0.000158699
-2.9852e-07
-0.000157941
-7.57835e-07
-0.000156752
-1.18909e-06
-0.000155094
-1.65825e-06
-0.000152904
-2.18998e-06
-0.000150213
-2.69096e-06
-0.000146999
-3.21465e-06
-0.000143197
-3.80143e-06
-0.000138832
-4.36476e-06
-0.000133918
-4.91489e-06
-0.000128425
-5.49208e-06
-0.00012234
-6.08568e-06
-0.000115643
-6.69716e-06
-0.000108227
-7.41606e-06
-0.000100018
-8.20857e-06
-9.11501e-05
-8.86816e-06
-8.13872e-05
-9.76295e-06
-7.07727e-05
-1.06145e-05
-5.93266e-05
-1.14462e-05
-4.70165e-05
-1.23101e-05
-3.40671e-05
-1.29495e-05
-2.02962e-05
-1.3771e-05
-5.8275e-06
-1.44688e-05
9.34501e-06
-1.51726e-05
2.51248e-05
-1.57799e-05
4.14065e-05
-1.62818e-05
5.80596e-05
-1.66532e-05
7.48916e-05
-1.68321e-05
9.17279e-05
-1.68365e-05
0.00010835
-1.66222e-05
0.000124548
-1.61981e-05
0.000140009
-1.54616e-05
0.000154566
-1.45563e-05
0.000167938
-1.33725e-05
0.000179834
-1.18963e-05
0.000190019
-1.01844e-05
0.00019832
-8.30181e-06
0.000204541
-6.22106e-06
0.000208536
-3.99523e-06
0.000210188
-1.65135e-06
0.000209499
6.8919e-07
0.000206363
3.13538e-06
0.000200876
5.48682e-06
0.000193082
7.79377e-06
0.000183207
9.87553e-06
0.000171499
1.17082e-05
0.000158136
1.33625e-05
0.00014342
1.47163e-05
0.000127495
1.59246e-05
0.000110739
1.67564e-05
9.33836e-05
1.73549e-05
7.56825e-05
1.77011e-05
5.78329e-05
1.78496e-05
4.00894e-05
1.77435e-05
2.26514e-05
1.7438e-05
5.6935e-06
1.69579e-05
-1.05971e-05
1.62905e-05
-2.61267e-05
1.55297e-05
-4.07717e-05
1.4645e-05
-5.45097e-05
1.3738e-05
-6.72421e-05
1.27324e-05
-7.90134e-05
1.17713e-05
-8.99061e-05
1.08926e-05
-9.98531e-05
9.94707e-06
-0.000108974
9.1208e-06
-0.000117224
8.24963e-06
-0.00012471
7.48611e-06
-0.000131442
6.7327e-06
-0.00013745
6.00798e-06
-0.000142796
5.34576e-06
-0.000147496
4.70037e-06
-0.000151584
4.08752e-06
-0.000155096
3.51175e-06
-0.000158006
2.91043e-06
-0.000160316
2.31011e-06
-0.000162033
1.71674e-06
-0.000163215
1.18226e-06
-0.000163781
5.66141e-07
-0.000163739
-4.22952e-08
-0.000163057
-6.81618e-07
-0.000161763
-1.29442e-06
-0.000159825
-1.93773e-06
-0.000157165
-2.65915e-06
-0.000153867
-3.29794e-06
-0.000149785
-4.08244e-06
-0.000144868
-4.9171e-06
-0.000139151
-5.71687e-06
-0.000132673
-6.47746e-06
-0.000125189
-7.48389e-06
-0.000116762
-8.427e-06
-0.000107532
-9.23011e-06
-9.72496e-05
-1.02825e-05
-8.606e-05
-1.11896e-05
-7.39461e-05
-1.2114e-05
-6.07574e-05
-1.31887e-05
-4.6649e-05
-1.41084e-05
-3.16834e-05
-1.49657e-05
-1.5646e-05
-1.60375e-05
1.32717e-06
-1.69732e-05
1.92285e-05
-1.79014e-05
3.78341e-05
-1.86056e-05
5.69597e-05
-1.91257e-05
7.63369e-05
-1.93773e-05
9.58776e-05
-1.95408e-05
0.000115056
-1.91783e-05
0.000133788
-1.87328e-05
0.00015162
-1.78318e-05
0.000168316
-1.66955e-05
0.000183669
-1.53533e-05
0.000197157
-1.34882e-05
0.000208667
-1.15101e-05
0.000218015
-9.34835e-06
0.000224821
-6.80648e-06
0.000229127
-4.30534e-06
0.000230738
-1.61175e-06
0.000229418
1.32013e-06
0.000225454
3.96402e-06
0.000218817
6.63726e-06
0.000209928
8.88902e-06
0.000198902
1.10254e-05
0.000185884
1.30183e-05
0.000171293
1.45908e-05
0.000155325
1.59679e-05
0.00013836
1.69653e-05
0.000120618
1.77422e-05
0.000102463
1.8155e-05
8.40699e-05
1.83927e-05
6.58903e-05
1.81796e-05
4.78499e-05
1.80404e-05
3.02823e-05
1.75675e-05
1.33691e-05
1.69131e-05
-2.92846e-06
1.62976e-05
-1.8441e-05
1.55125e-05
-3.31396e-05
1.46986e-05
-4.69695e-05
1.38299e-05
-5.99387e-05
1.29692e-05
-7.20377e-05
1.2099e-05
-8.32521e-05
1.12144e-05
-9.36242e-05
1.03721e-05
-0.000103159
9.53483e-06
-0.000111867
8.70769e-06
-0.000119781
7.9139e-06
-0.000126892
7.11172e-06
-0.000133216
6.32356e-06
-0.000138754
5.53769e-06
-0.000143496
4.74206e-06
-0.000147433
3.93758e-06
-0.000150547
3.11378e-06
-0.000152815
2.26773e-06
-0.000154229
1.4144e-06
-0.000154805
5.75888e-07
-0.000154368
-4.37192e-07
-0.000152958
-1.40986e-06
-0.000150557
-2.40093e-06
-0.000147229
-3.32794e-06
-0.000142955
-4.274e-06
-0.000137655
-5.30045e-06
-0.000131426
-6.22861e-06
-0.000124276
-7.15053e-06
-0.000116113
-8.16238e-06
-0.000107128
-8.98506e-06
-9.71098e-05
-1.00185e-05
-8.62464e-05
-1.08634e-05
-7.46202e-05
-1.16262e-05
-6.20742e-05
-1.2546e-05
-4.86901e-05
-1.33841e-05
-3.45785e-05
-1.41117e-05
-1.96907e-05
-1.48878e-05
-4.18134e-06
-1.55093e-05
1.19256e-05
-1.6107e-05
2.83467e-05
-1.64211e-05
4.48856e-05
-1.6539e-05
6.16049e-05
-1.67193e-05
7.82118e-05
-1.66069e-05
-1.64525e-05
9.84859e-05
3.51541e-05
8.06866e-05
3.55911e-05
6.2528e-05
3.63088e-05
4.41056e-05
3.68378e-05
2.58826e-05
3.64373e-05
7.80814e-06
3.61365e-05
-9.76873e-06
3.51551e-05
-2.6764e-05
3.39853e-05
-4.301e-05
3.24872e-05
-5.83728e-05
3.07216e-05
-7.28447e-05
2.89395e-05
-8.63516e-05
2.70121e-05
-9.88622e-05
2.50202e-05
-0.000110395
2.30655e-05
-0.00012094
2.10866e-05
-0.00013053
1.91764e-05
-0.000139173
1.72886e-05
-0.000146893
1.5439e-05
-0.000153739
1.36903e-05
-0.000159729
1.1982e-05
-0.000164893
1.03298e-05
-0.000169272
8.75429e-06
-0.000172891
7.23204e-06
-0.000175767
5.75525e-06
-0.000177914
4.29472e-06
-0.00017936
2.88607e-06
-0.000180142
1.5693e-06
-0.000180226
1.75613e-07
-0.000179568
-1.31587e-06
-0.0001782
-2.73686e-06
-0.000176149
-4.09331e-06
-0.000173295
-5.72059e-06
-0.000169717
-7.15847e-06
-0.000165339
-8.75705e-06
-0.000160162
-1.03542e-05
-0.000154268
-1.17876e-05
-0.000147417
-1.37019e-05
-0.00013973
-1.53774e-05
-0.000131166
-1.71248e-05
-0.000121568
-1.91957e-05
-0.000111132
-2.0871e-05
-9.9586e-05
-2.30968e-05
-8.71371e-05
-2.48923e-05
-7.38322e-05
-2.66059e-05
-5.95002e-05
-2.86637e-05
-4.43194e-05
-3.03594e-05
-2.84477e-05
-3.173e-05
-1.16762e-05
-3.35459e-05
5.67766e-06
-3.47034e-05
2.34045e-05
-3.54466e-05
4.15155e-05
-3.62121e-05
5.97823e-05
-3.65241e-05
7.8051e-05
-3.65274e-05
9.61598e-05
-3.62033e-05
0.000113702
-3.50734e-05
0.000130615
-3.38158e-05
0.000146652
-3.2059e-05
0.000161491
-2.96742e-05
0.000175021
-2.70452e-05
0.000186973
-2.38912e-05
0.000197276
-2.06034e-05
0.000205708
-1.68586e-05
0.000212064
-1.27032e-05
0.00021636
-8.5914e-06
0.000218437
-4.14499e-06
0.000218237
3.95325e-07
0.000215751
4.97196e-06
0.000211086
9.32915e-06
0.000204278
1.36158e-05
0.000195518
1.75104e-05
0.000184858
2.13132e-05
0.000172426
2.48505e-05
0.000158517
2.78061e-05
0.000143207
3.06144e-05
0.000126902
3.25926e-05
0.000109717
3.43574e-05
9.1967e-05
3.54871e-05
7.36843e-05
3.65656e-05
5.53717e-05
3.66009e-05
3.71066e-05
3.65193e-05
1.90562e-05
3.60964e-05
1.39495e-06
3.53082e-05
-1.57158e-05
3.42106e-05
-3.21584e-05
3.28763e-05
-4.77541e-05
3.11911e-05
-6.24758e-05
2.94376e-05
-7.6247e-05
2.7534e-05
-8.90296e-05
2.55611e-05
-0.000100814
2.35722e-05
-0.000111591
2.1555e-05
-0.000121359
1.95282e-05
-0.000130167
1.76024e-05
-0.000137998
1.56596e-05
-0.000144866
1.37384e-05
-0.000150814
1.18932e-05
-0.000155834
1.00345e-05
-0.000159967
8.26392e-06
-0.000163259
6.58606e-06
-0.000165746
4.97856e-06
-0.000167483
3.47946e-06
-0.000168476
1.98926e-06
-0.000168765
5.47561e-07
-0.000168433
-6.48608e-07
-0.000167412
-2.03793e-06
-0.00016578
-3.25302e-06
-0.000163523
-4.5044e-06
-0.000160672
-5.70189e-06
-0.000157267
-6.80836e-06
-0.000153259
-8.01944e-06
-0.000148665
-9.19298e-06
-0.000143509
-1.03039e-05
-0.000137729
-1.15602e-05
-0.000131296
-1.28622e-05
-0.000124338
-1.39159e-05
-0.000116676
-1.53229e-05
-0.000108377
-1.65947e-05
-9.93881e-05
-1.79771e-05
-8.97236e-05
-1.93396e-05
-7.94524e-05
-2.05265e-05
-6.84798e-05
-2.194e-05
-5.68407e-05
-2.32786e-05
-4.45693e-05
-2.45484e-05
-3.16574e-05
-2.58394e-05
-1.81974e-05
-2.69055e-05
-4.09857e-06
-2.81887e-05
1.03816e-05
-2.89541e-05
2.53499e-05
-2.99321e-05
4.07085e-05
-3.06981e-05
5.62756e-05
-3.11512e-05
7.20001e-05
-3.14449e-05
8.77146e-05
-3.1422e-05
0.000103292
-3.11572e-05
0.000118501
-3.04046e-05
0.000133185
-2.93561e-05
0.000147106
-2.78414e-05
0.000160054
-2.58826e-05
0.000171807
-2.34947e-05
0.000182116
-2.0617e-05
0.00019082
-1.73969e-05
0.000197696
-1.37452e-05
0.000202592
-9.79242e-06
0.000205406
-5.61877e-06
0.000206077
-1.34603e-06
0.000204575
2.98361e-06
0.000200869
7.40423e-06
0.000194983
1.17717e-05
0.00018707
1.58215e-05
0.000177198
1.97368e-05
0.000165578
2.32439e-05
0.000152341
2.64478e-05
0.000137765
2.91406e-05
0.000122049
3.14234e-05
0.000105465
3.31556e-05
8.82866e-05
3.43459e-05
7.07412e-05
3.50918e-05
5.30513e-05
3.53447e-05
3.55019e-05
3.50933e-05
1.82812e-05
3.44686e-05
1.51062e-06
3.35164e-05
-1.46217e-05
3.22484e-05
-2.99825e-05
3.0721e-05
-4.44617e-05
2.89551e-05
-5.80574e-05
2.71939e-05
-7.06247e-05
2.51278e-05
-8.22119e-05
2.31582e-05
-9.28267e-05
2.12478e-05
-0.000102426
1.91972e-05
-0.000111056
1.72938e-05
-0.000118856
1.55725e-05
-0.000125707
1.37037e-05
-0.000131786
1.21645e-05
-0.000137065
1.05541e-05
-0.00014166
9.19734e-06
-0.0001456
7.89509e-06
-0.000148948
6.69416e-06
-0.000151835
5.77321e-06
-0.000154174
4.68411e-06
-0.000156036
3.72539e-06
-0.000157443
2.8119e-06
-0.000158375
1.86926e-06
-0.000158945
1.14367e-06
-0.000159067
2.43919e-07
-0.000158769
-5.96239e-07
-0.000158008
-1.51899e-06
-0.000156814
-2.38357e-06
-0.000155154
-3.31797e-06
-0.000152974
-4.36963e-06
-0.000150286
-5.37966e-06
-0.000147065
-6.43527e-06
-0.000143263
-7.60362e-06
-0.000138898
-8.72933e-06
-0.000133983
-9.83022e-06
-0.00012849
-1.09849e-05
-0.000122405
-1.2171e-05
-0.000115708
-1.33938e-05
-0.000108302
-1.48224e-05
-0.000100125
-1.63858e-05
-9.12307e-05
-1.77624e-05
-8.14625e-05
-1.95312e-05
-7.08452e-05
-2.1232e-05
-5.9397e-05
-2.28945e-05
-4.7123e-05
-2.45842e-05
-3.41424e-05
-2.59303e-05
-2.03602e-05
-2.75533e-05
-5.89384e-06
-2.89353e-05
9.27961e-06
-3.03462e-05
2.50626e-05
-3.1563e-05
4.1352e-05
-3.25714e-05
5.80141e-05
-3.33154e-05
7.4851e-05
-3.36692e-05
9.1695e-05
-3.36806e-05
0.00010833
-3.32568e-05
0.000124538
-3.24068e-05
0.000140013
-3.0937e-05
0.000154578
-2.91211e-05
0.000167946
-2.67411e-05
0.000179847
-2.37969e-05
0.000190051
-2.03882e-05
0.000198367
-1.66186e-05
0.000204606
-1.24602e-05
0.0002086
-7.98865e-06
0.000210251
-3.30316e-06
0.000209545
1.39498e-06
0.000206398
6.28247e-06
0.00020089
1.09946e-05
0.000193113
1.55707e-05
0.00018323
1.97584e-05
0.00017151
2.34291e-05
0.000158133
2.67388e-05
0.000143374
2.94754e-05
0.000127474
3.18246e-05
0.000110706
3.35247e-05
9.33338e-05
3.4727e-05
7.56261e-05
3.54088e-05
5.77892e-05
3.56865e-05
4.00242e-05
3.55085e-05
2.25729e-05
3.48893e-05
5.60879e-06
3.3922e-05
-1.06594e-05
3.25588e-05
-2.6218e-05
3.10883e-05
-4.08702e-05
2.92973e-05
-5.461e-05
2.74778e-05
-6.73435e-05
2.5466e-05
-7.91128e-05
2.35405e-05
-9.00057e-05
2.17856e-05
-9.99476e-05
1.98889e-05
-0.000109065
1.82387e-05
-0.000117317
1.65017e-05
-0.000124806
1.49746e-05
-0.000131538
1.34644e-05
-0.000137536
1.20063e-05
-0.00014287
1.06796e-05
-0.000147573
9.40384e-06
-0.000151664
8.17889e-06
-0.000155177
7.02436e-06
-0.000158087
5.82014e-06
-0.000160391
4.61422e-06
-0.000162107
3.4329e-06
-0.000163292
2.36734e-06
-0.00016386
1.13467e-06
-0.000163822
-8.09333e-08
-0.000163149
-1.35439e-06
-0.000161829
-2.61373e-06
-0.000159912
-3.85552e-06
-0.000157251
-5.31958e-06
-0.00015394
-6.609e-06
-0.000149873
-8.14894e-06
-0.00014496
-9.8305e-06
-0.000139227
-1.14496e-05
-0.000132747
-1.29578e-05
-0.000125268
-1.49622e-05
-0.000116832
-1.68634e-05
-0.0001076
-1.84623e-05
-9.73193e-05
-2.05627e-05
-8.61246e-05
-2.23843e-05
-7.4007e-05
-2.42316e-05
-6.08157e-05
-2.63801e-05
-4.6709e-05
-2.82151e-05
-3.17381e-05
-2.99367e-05
-1.56949e-05
-3.20808e-05
1.28709e-06
-3.39553e-05
1.9188e-05
-3.58024e-05
3.78009e-05
-3.72187e-05
5.69373e-05
-3.82622e-05
7.63328e-05
-3.8773e-05
9.58902e-05
-3.90982e-05
0.000115082
-3.83704e-05
0.000133833
-3.74842e-05
0.000151678
-3.56769e-05
0.000168387
-3.34038e-05
0.000183758
-3.07249e-05
0.000197259
-2.69898e-05
0.00020878
-2.30306e-05
0.000218137
-1.87053e-05
0.000224948
-1.36177e-05
0.000229256
-8.61417e-06
0.000230873
-3.22802e-06
0.00022954
2.65272e-06
0.000225573
7.93052e-06
0.000218935
1.32758e-05
0.000210039
1.77843e-05
0.000199001
2.2063e-05
0.000185978
2.60415e-05
0.000171365
2.9204e-05
0.000155389
3.1944e-05
0.000138409
3.39448e-05
0.000120651
3.54999e-05
0.000102488
3.63186e-05
8.40827e-05
3.67975e-05
6.58875e-05
3.63747e-05
4.78446e-05
3.60833e-05
3.0266e-05
3.51461e-05
1.33501e-05
3.38289e-05
-2.9522e-06
3.25999e-05
-1.84689e-05
3.10292e-05
-3.31712e-05
2.94009e-05
-4.7004e-05
2.76626e-05
-5.99756e-05
2.59408e-05
-7.20757e-05
2.41991e-05
-8.32904e-05
2.24291e-05
-9.36656e-05
2.07473e-05
-0.000103204
1.90729e-05
-0.000111911
1.74147e-05
-0.000119824
1.58269e-05
-0.000126938
1.42263e-05
-0.000133265
1.26506e-05
-0.000138803
1.10749e-05
-0.000143543
9.48244e-06
-0.000147482
7.87699e-06
-0.000150603
6.23423e-06
-0.000152873
4.53748e-06
-0.000154285
2.82641e-06
-0.000154856
1.1476e-06
-0.000154424
-8.69358e-07
-0.000153014
-2.82015e-06
-0.000150614
-4.80126e-06
-0.000147283
-6.65858e-06
-0.000143008
-8.54882e-06
-0.000137708
-1.06007e-05
-0.000131477
-1.24593e-05
-0.000124324
-1.43035e-05
-0.000116162
-1.63252e-05
-0.000107174
-1.79725e-05
-9.71529e-05
-2.00398e-05
-8.62872e-05
-2.17291e-05
-7.46606e-05
-2.32528e-05
-6.21093e-05
-2.50974e-05
-4.87229e-05
-2.67705e-05
-3.46054e-05
-2.82293e-05
-1.97149e-05
-2.97783e-05
-4.20218e-06
-3.10221e-05
1.19073e-05
-3.22166e-05
2.83335e-05
-3.28473e-05
4.48775e-05
-3.3083e-05
6.16041e-05
-3.34459e-05
7.82196e-05
-3.32225e-05
-3.29138e-05
9.85213e-05
5.27518e-05
8.07057e-05
5.34067e-05
6.25296e-05
5.44849e-05
4.40935e-05
5.52739e-05
2.58545e-05
5.46763e-05
7.7578e-06
5.42332e-05
-9.82159e-06
5.27345e-05
-2.68271e-05
5.09909e-05
-4.30814e-05
4.87415e-05
-5.84511e-05
4.60913e-05
-7.29276e-05
4.3416e-05
-8.6438e-05
4.05225e-05
-9.89516e-05
3.75338e-05
-0.000110485
3.45984e-05
-0.000121029
3.16307e-05
-0.000130617
2.87652e-05
-0.000139265
2.59359e-05
-0.000146988
2.31624e-05
-0.000153825
2.05277e-05
-0.000159816
1.79729e-05
-0.000164981
1.54942e-05
-0.000169356
1.31296e-05
-0.000172971
1.08471e-05
-0.000175851
8.63506e-06
-0.000177997
6.44082e-06
-0.000179438
4.32736e-06
-0.000180216
2.34741e-06
-0.000180289
2.47797e-07
-0.000179623
-1.9816e-06
-0.000178254
-4.10598e-06
-0.000176199
-6.14789e-06
-0.00017335
-8.56941e-06
-0.00016978
-1.07293e-05
-0.000165403
-1.31339e-05
-0.000160227
-1.55298e-05
-0.000154333
-1.76816e-05
-0.000147483
-2.05518e-05
-0.000139805
-2.30556e-05
-0.000131239
-2.56911e-05
-0.000121644
-2.87903e-05
-0.000111208
-3.13079e-05
-9.96703e-05
-3.46341e-05
-8.72122e-05
-3.73505e-05
-7.39019e-05
-3.99163e-05
-5.95685e-05
-4.2997e-05
-4.43841e-05
-4.55439e-05
-2.84976e-05
-4.76166e-05
-1.17238e-05
-5.03198e-05
5.63967e-06
-5.2067e-05
2.33774e-05
-5.31844e-05
4.1503e-05
-5.43378e-05
5.97849e-05
-5.4806e-05
7.8064e-05
-5.48066e-05
9.61974e-05
-5.43369e-05
0.000113756
-5.26324e-05
0.000130685
-5.07443e-05
0.000146742
-4.81166e-05
0.000161596
-4.4528e-05
0.00017514
-4.05888e-05
0.000187099
-3.58511e-05
0.000197414
-3.09178e-05
0.000205861
-2.53059e-05
0.000212214
-1.90566e-05
0.000216514
-1.28908e-05
0.000218612
-6.24339e-06
0.000218399
6.08261e-07
0.000215917
7.4542e-06
0.000211247
1.39991e-05
0.000204441
2.04216e-05
0.000195664
2.62875e-05
0.000184995
3.19824e-05
0.000172544
3.73014e-05
0.000158615
4.1735e-05
0.000143297
4.59326e-05
0.000126964
4.89251e-05
0.000109762
5.15595e-05
9.19928e-05
5.32564e-05
7.37104e-05
5.48481e-05
5.53612e-05
5.495e-05
3.70845e-05
5.47961e-05
1.9023e-05
5.41579e-05
1.33783e-06
5.29933e-05
-1.57839e-05
5.13323e-05
-3.2239e-05
4.93314e-05
-4.78469e-05
4.67989e-05
-6.25742e-05
4.41649e-05
-7.63483e-05
4.1308e-05
-8.91392e-05
3.83519e-05
-0.000100932
3.53649e-05
-0.000111715
3.23375e-05
-0.000121486
2.92994e-05
-0.000130292
2.64085e-05
-0.000138127
2.34939e-05
-0.000145001
2.06123e-05
-0.00015096
1.78522e-05
-0.000155982
1.50565e-05
-0.000160117
1.23983e-05
-0.0001634
9.86905e-06
-0.000165888
7.46655e-06
-0.00016763
5.22208e-06
-0.000168596
2.95523e-06
-0.000168929
8.80023e-07
-0.000168582
-9.95335e-07
-0.000167558
-3.06226e-06
-0.000165921
-4.88947e-06
-0.000163664
-6.76221e-06
-0.000160818
-8.54726e-06
-0.000157401
-1.02257e-05
-0.000153393
-1.20271e-05
-0.000148806
-1.37802e-05
-0.000143639
-1.54707e-05
-0.000137865
-1.73346e-05
-0.000131472
-1.92552e-05
-0.000124473
-2.09153e-05
-0.000116821
-2.29742e-05
-0.000108519
-2.48975e-05
-9.95331e-05
-2.69626e-05
-8.99052e-05
-2.89675e-05
-7.95924e-05
-3.08393e-05
-6.86176e-05
-3.29149e-05
-5.6983e-05
-3.49133e-05
-4.47045e-05
-3.6827e-05
-3.17986e-05
-3.87454e-05
-1.8323e-05
-4.03811e-05
-4.26068e-06
-4.22511e-05
1.02641e-05
-4.3479e-05
2.52428e-05
-4.49109e-05
4.06145e-05
-4.60699e-05
5.61904e-05
-4.67272e-05
7.1925e-05
-4.71796e-05
8.76587e-05
-4.71559e-05
0.000103245
-4.67435e-05
0.000118478
-4.5638e-05
0.000133176
-4.40537e-05
0.000147114
-4.17794e-05
0.000160073
-3.88424e-05
0.000171845
-3.52669e-05
0.000182176
-3.09477e-05
0.000190895
-2.61161e-05
0.000197773
-2.06234e-05
0.000202689
-1.47085e-05
0.00020551
-8.43901e-06
0.000206172
-2.00813e-06
0.000204651
4.50427e-06
0.000200919
1.11364e-05
0.000195053
1.76376e-05
0.000187145
2.37289e-05
0.000177249
2.9633e-05
0.000165636
3.48566e-05
0.000152356
3.97282e-05
0.000137762
4.37339e-05
0.00012203
4.71557e-05
0.000105421
4.97649e-05
8.82216e-05
5.1545e-05
7.0673e-05
5.26405e-05
5.29491e-05
5.30686e-05
3.53765e-05
5.26659e-05
1.81122e-05
5.17329e-05
1.36075e-06
5.02679e-05
-1.47699e-05
4.83791e-05
-3.01335e-05
4.60846e-05
-4.46272e-05
4.34487e-05
-5.82151e-05
4.07819e-05
-7.07882e-05
3.77009e-05
-8.24099e-05
3.478e-05
-9.29977e-05
3.18356e-05
-0.000102598
2.87979e-05
-0.000111215
2.59108e-05
-0.000119018
2.33748e-05
-0.000125871
2.05569e-05
-0.000131942
1.82354e-05
-0.00013722
1.58322e-05
-0.000141803
1.37803e-05
-0.000145721
1.18131e-05
-0.000149128
1.01018e-05
-0.00015198
8.62449e-06
-0.000154324
7.02826e-06
-0.000156183
5.58406e-06
-0.000157577
4.20629e-06
-0.000158507
2.7994e-06
-0.000159084
1.72099e-06
-0.00015921
3.69111e-07
-0.000158912
-8.93651e-07
-0.000158141
-2.28988e-06
-0.000156949
-3.57549e-06
-0.000155294
-4.97289e-06
-0.000153117
-6.54714e-06
-0.000150424
-8.07236e-06
-0.0001472
-9.65913e-06
-0.000143406
-1.13983e-05
-0.000139041
-1.30936e-05
-0.000134106
-1.47662e-05
-0.000128632
-1.64587e-05
-0.000122554
-1.82491e-05
-0.000115851
-2.00964e-05
-0.000108456
-2.22178e-05
-0.000100315
-2.45268e-05
-9.13785e-05
-2.66987e-05
-8.16171e-05
-2.92926e-05
-7.10043e-05
-3.18448e-05
-5.95505e-05
-3.43485e-05
-4.73072e-05
-3.68275e-05
-3.42886e-05
-3.8949e-05
-2.04524e-05
-4.13896e-05
-6.03662e-06
-4.33512e-05
9.15634e-06
-4.55393e-05
2.49443e-05
-4.73511e-05
4.12476e-05
-4.88747e-05
5.79336e-05
-5.00015e-05
7.47829e-05
-5.05186e-05
9.16386e-05
-5.05364e-05
0.00010829
-4.99081e-05
0.000124494
-4.86114e-05
0.000140012
-4.64549e-05
0.000154606
-4.37151e-05
0.000167976
-4.01113e-05
0.000179909
-3.57306e-05
0.000190133
-3.0612e-05
0.000198464
-2.49496e-05
0.000204739
-1.87355e-05
0.000208708
-1.19577e-05
0.000210373
-4.96845e-06
0.000209664
2.10383e-06
0.000206489
9.45738e-06
0.000200963
1.65205e-05
0.000193183
2.3351e-05
0.000183292
2.96495e-05
0.000171549
3.51718e-05
0.000158149
4.01385e-05
0.00014336
4.42644e-05
0.00012746
4.77254e-05
0.000110671
5.03129e-05
9.32766e-05
5.21218e-05
7.55631e-05
5.31222e-05
5.77258e-05
5.35238e-05
3.99138e-05
5.33205e-05
2.24495e-05
5.23536e-05
5.47284e-06
5.08987e-05
-1.08092e-05
4.88408e-05
-2.63777e-05
4.66568e-05
-4.10307e-05
4.39502e-05
-5.47798e-05
4.1227e-05
-6.75199e-05
3.8206e-05
-7.92835e-05
3.53042e-05
-9.0178e-05
3.26801e-05
-0.000100118
2.98285e-05
-0.000109235
2.73558e-05
-0.000117488
2.47548e-05
-0.000124961
2.24481e-05
-0.000131692
2.01949e-05
-0.000137688
1.80026e-05
-0.000143022
1.60141e-05
-0.000147727
1.41084e-05
-0.000151815
1.22666e-05
-0.000155328
1.05382e-05
-0.000158232
8.72404e-06
-0.000160508
6.88962e-06
-0.000162298
5.22292e-06
-0.00016345
3.51945e-06
-0.000164013
1.69811e-06
-0.000163975
-1.19323e-07
-0.000163311
-2.01794e-06
-0.000161975
-3.94966e-06
-0.000160056
-5.77446e-06
-0.000157397
-7.97807e-06
-0.000154038
-9.96869e-06
-0.000150009
-1.21778e-05
-0.000145092
-1.47466e-05
-0.000139347
-1.71952e-05
-0.000132868
-1.94366e-05
-0.000125393
-2.2437e-05
-0.000116939
-2.53176e-05
-0.000107705
-2.76959e-05
-9.74288e-05
-3.08389e-05
-8.62255e-05
-3.35876e-05
-7.40964e-05
-3.63607e-05
-6.09058e-05
-3.95707e-05
-4.68116e-05
-4.23094e-05
-3.1825e-05
-4.49234e-05
-1.5777e-05
-4.81289e-05
1.21254e-06
-5.0945e-05
1.91178e-05
-5.37078e-05
3.77529e-05
-5.58539e-05
5.68915e-05
-5.74009e-05
7.63073e-05
-5.81889e-05
9.58875e-05
-5.86786e-05
0.000115107
-5.759e-05
0.000133882
-5.62595e-05
0.000151751
-5.35464e-05
0.000168484
-5.01363e-05
0.000183885
-4.61261e-05
0.000197409
-4.05139e-05
0.000208951
-3.45729e-05
0.000218323
-2.80775e-05
0.000225138
-2.04329e-05
0.000229453
-1.29293e-05
0.000231066
-4.84129e-06
0.000229729
3.98981e-06
0.000225758
1.19014e-05
0.000219116
1.99173e-05
0.000210208
2.66923e-05
0.000199147
3.31237e-05
0.000186121
3.90676e-05
0.000171461
4.38642e-05
0.000155475
4.79303e-05
0.000138467
5.09524e-05
0.000120681
5.32854e-05
0.000102504
5.4496e-05
8.4081e-05
5.52204e-05
6.58541e-05
5.46015e-05
4.78116e-05
5.41257e-05
3.02156e-05
5.2742e-05
1.32977e-05
5.07468e-05
-3.01485e-06
4.89124e-05
-1.85373e-05
4.65516e-05
-3.32432e-05
4.41067e-05
-4.70775e-05
4.14969e-05
-6.00501e-05
3.89134e-05
-7.21514e-05
3.63003e-05
-8.33676e-05
3.36452e-05
-9.3742e-05
3.11218e-05
-0.000103278
2.86084e-05
-0.000111987
2.61239e-05
-0.0001199
2.37406e-05
-0.000127013
2.13388e-05
-0.00013334
1.89773e-05
-0.000138878
1.66136e-05
-0.00014362
1.42236e-05
-0.00014756
1.18171e-05
-0.000150682
9.35619e-06
-0.000152959
6.81513e-06
-0.000154374
4.24102e-06
-0.000154934
1.70785e-06
-0.000154495
-1.30851e-06
-0.000153088
-4.22739e-06
-0.000150691
-7.19807e-06
-0.000147358
-9.99178e-06
-0.000143084
-1.2823e-05
-0.000137784
-1.59e-05
-0.000131552
-1.86915e-05
-0.000124398
-2.14579e-05
-0.000116235
-2.44876e-05
-0.000107244
-2.69638e-05
-9.72205e-05
-3.00634e-05
-8.63531e-05
-3.25966e-05
-7.47279e-05
-3.4878e-05
-6.21683e-05
-3.76571e-05
-4.87805e-05
-4.01583e-05
-3.46543e-05
-4.23555e-05
-1.97607e-05
-4.46719e-05
-4.24264e-06
-4.65402e-05
1.18751e-05
-4.83344e-05
2.83112e-05
-4.92834e-05
4.48654e-05
-4.96372e-05
6.16055e-05
-5.0186e-05
7.82371e-05
-4.98541e-05
-4.93908e-05
9.85745e-05
7.03751e-05
8.07344e-05
7.12468e-05
6.25319e-05
7.26873e-05
4.40755e-05
7.37304e-05
2.58129e-05
7.29389e-05
7.68457e-06
7.23615e-05
-9.90077e-06
7.03198e-05
-2.69231e-05
6.80132e-05
-4.31907e-05
6.50091e-05
-5.85703e-05
6.14709e-05
-7.30541e-05
5.78998e-05
-8.65693e-05
5.40377e-05
-9.90878e-05
5.00524e-05
-0.00011062
4.61304e-05
-0.000121163
4.21741e-05
-0.000130753
3.83553e-05
-0.000139403
3.45859e-05
-0.000147123
3.08821e-05
-0.000153959
2.73641e-05
-0.000159948
2.39612e-05
-0.000165111
2.06576e-05
-0.000169488
1.75062e-05
-0.000173102
1.4461e-05
-0.00017598
1.15134e-05
-0.000178126
8.58715e-06
-0.000179566
5.7675e-06
-0.000180328
3.10918e-06
-0.000180378
2.97937e-07
-0.000179704
-2.65604e-06
-0.000178334
-5.47553e-06
-0.000176279
-8.20362e-06
-0.000173433
-1.14147e-05
-0.000169882
-1.42809e-05
-0.000165496
-1.75196e-05
-0.000160327
-2.0699e-05
-0.00015443
-2.35786e-05
-0.000147582
-2.74003e-05
-0.00013992
-3.07173e-05
-0.000131347
-3.42643e-05
-0.00012176
-3.83773e-05
-0.00011132
-4.17477e-05
-9.98025e-05
-4.61515e-05
-8.73254e-05
-4.98277e-05
-7.40071e-05
-5.32346e-05
-5.96715e-05
-5.73328e-05
-4.4482e-05
-6.07334e-05
-2.85743e-05
-6.35244e-05
-1.1796e-05
-6.70981e-05
5.58185e-06
-6.94449e-05
2.33364e-05
-7.0939e-05
4.14835e-05
-7.2485e-05
5.97802e-05
-7.31027e-05
7.80819e-05
-7.31084e-05
9.6254e-05
-7.25091e-05
0.000113836
-7.02141e-05
0.000130789
-6.76976e-05
0.000146874
-6.42023e-05
0.000161748
-5.94014e-05
0.000175313
-5.41541e-05
0.00018729
-4.78279e-05
0.000197621
-4.12487e-05
0.000206083
-3.37679e-05
0.000212434
-2.54082e-05
0.000216745
-1.7202e-05
0.000218872
-8.3699e-06
0.000218635
8.45206e-07
0.000216174
9.91482e-06
0.000211489
1.86838e-05
0.000204687
2.72236e-05
0.000195881
3.50934e-05
0.000185198
4.26656e-05
0.000172719
4.97804e-05
0.000158761
5.56932e-05
0.000143434
6.12598e-05
0.000127057
6.53016e-05
0.000109825
6.87913e-05
9.20316e-05
7.10502e-05
7.37685e-05
7.31113e-05
5.53434e-05
7.33751e-05
3.70423e-05
7.30973e-05
1.89679e-05
7.22323e-05
1.24697e-06
7.07142e-05
-1.58944e-05
6.84737e-05
-3.23679e-05
6.58049e-05
-4.79888e-05
6.24197e-05
-6.27306e-05
5.89067e-05
-7.65183e-05
5.50955e-05
-8.93199e-05
5.11534e-05
-0.000101117
4.71617e-05
-0.000111905
4.3126e-05
-0.000121684
3.90774e-05
-0.000130489
3.52137e-05
-0.000138334
3.13389e-05
-0.000145216
2.74946e-05
-0.000151187
2.38226e-05
-0.000156209
2.00788e-05
-0.000160341
1.65302e-05
-0.000163618
1.31456e-05
-0.000166112
9.96028e-06
-0.00016785
6.96047e-06
-0.000168828
3.93278e-06
-0.000169168
1.22025e-06