/*--------------------------------*- C++ -*----------------------------------*\
| =========                 |                                                 |
| \\      /  F ield         | OpenFOAM: The Open Source CFD Toolbox           |
|  \\    /   O peration     | Version:  3.0.1                                 |
|   \\  /    A nd           | Web:      www.OpenFOAM.org                      |
|    \\/     M anipulation  |                                                 |
\*---------------------------------------------------------------------------*/
FoamFile
{
    version     2.0;
    format      ascii;
    class       volScalarField;
    location    "39.8";
    object      p_rgh;
}
// * * * * * * * * * * * * * * * * * * * * * * * * * * * * * * * * * * * * * //

dimensions      [1 -1 -2 0 0 0 0];

internalField   nonuniform List<scalar> 
21420
(
-295.648
-303.429
-309.886
-315.045
-318.921
-321.527
-322.882
-322.983
-321.822
-319.407
-315.708
-310.684
-304.298
-296.501
-287.243
-276.474
-264.14
-250.201
-234.616
-217.349
-198.368
-177.663
-155.225
-131.07
-105.249
-77.8114
-48.7925
-18.6056
12.6888
44.8576
77.6448
110.771
143.893
176.667
208.706
239.618
269.058
296.651
322.025
344.868
364.876
381.783
395.369
405.452
411.919
414.636
413.71
409.084
400.843
389.094
374.049
355.911
334.943
311.424
285.658
258.004
228.813
198.424
167.205
135.505
103.646
71.9325
40.6387
10.0245
-19.6838
-48.2662
-75.6933
-101.816
-126.514
-149.715
-171.376
-191.474
-210.005
-226.97
-242.376
-256.247
-268.611
-279.516
-289.024
-297.149
-303.91
-309.342
-313.46
-316.249
-317.747
-317.964
-316.834
-314.023
-309.658
-303.797
-296.455
-287.662
-277.472
-265.919
-252.999
-238.719
-223.061
-206.006
-187.532
-167.616
-146.253
-123.45
-99.2407
-73.4892
-46.5949
-18.4853
10.6996
40.7957
71.6129
102.931
134.506
166.065
197.31
227.924
257.575
285.918
312.597
337.255
359.546
379.133
395.7
408.952
418.645
424.583
426.515
424.537
418.511
408.47
394.531
376.862
355.696
331.323
304.078
274.345
242.536
209.083
174.435
139.037
103.326
67.7168
32.5947
-1.6912
-34.8328
-66.5446
-96.6707
-125.019
-151.477
-175.962
-198.437
-218.893
-237.348
-253.844
-268.441
-281.206
-292.222
-301.577
-309.352
-315.626
-320.475
-323.977
-326.177
-327.1
-326.779
-325.238
-322.466
-318.446
-313.157
-306.562
-298.621
-289.285
-278.503
-266.222
-252.389
-236.95
-219.87
-201.12
-180.688
-158.578
-134.813
-109.435
-82.4966
-53.8698
-24.1158
6.80845
38.7146
71.364
104.475
137.722
170.747
203.154
234.519
264.397
292.333
317.867
340.548
359.955
375.707
387.48
395.021
398.101
396.649
390.661
380.222
365.396
346.447
323.67
297.426
268.139
236.279
202.347
166.866
130.361
93.3476
56.3107
19.7019
-16.074
-50.6668
-83.7647
-115.184
-144.732
-172.293
-197.795
-221.213
-242.551
-261.84
-279.129
-294.486
-307.983
-319.695
-329.704
-338.082
-344.896
-350.21
-354.079
-356.561
-357.683
-357.456
-355.938
-353.123
-349.013
-343.597
-336.857
-328.762
-319.274
-308.347
-295.935
-281.985
-266.443
-249.266
-230.417
-209.871
-187.625
-163.69
-138.11
-110.955
-82.3157
-52.2264
-21.1339
10.8513
43.4684
76.4055
109.304
141.768
173.372
203.665
232.198
258.52
282.211
302.89
320.207
333.84
343.549
349.15
350.5
347.753
341.43
331.175
317.144
299.868
279.729
257.066
232.303
205.797
177.946
149.128
119.649
89.8347
60.0011
30.3302
0.963397
-28.0911
-54.091
-77.3954
-100.164
-122.349
-143.468
-163.295
-181.687
-198.582
-213.964
-227.843
-240.251
-251.225
-260.806
-269.039
-275.959
-281.595
-285.968
-289.088
-290.94
-291.482
-290.68
-288.453
-284.729
-279.451
-272.529
-263.883
-253.435
-241.119
-226.892
-210.734
-192.634
-172.617
-150.75
-127.111
-101.839
-75.1024
-47.0996
-15.28
14.9014
45.9876
77.6184
109.469
141.246
172.615
203.261
232.841
261.014
287.477
311.904
333.982
353.459
370.092
383.672
394.026
401.012
404.538
404.527
400.904
393.636
382.816
368.615
351.227
330.865
307.811
282.43
255.14
-295.704
-303.483
-309.938
-315.095
-318.971
-321.575
-322.931
-323.032
-321.872
-319.458
-315.76
-310.738
-304.355
-296.56
-287.305
-276.538
-264.207
-250.27
-234.689
-217.423
-198.444
-177.741
-155.304
-131.149
-105.327
-77.8866
-48.8628
-18.6699
12.6317
44.8093
77.6072
110.745
143.882
176.67
208.726
239.654
269.111
296.721
322.11
344.968
364.99
381.908
395.502
405.592
412.064
414.79
413.85
409.222
400.975
389.217
374.162
356.011
335.029
311.495
285.713
258.044
228.837
198.433
167.201
135.488
103.617
71.8936
40.591
9.96994
-19.7438
-48.3298
-75.7602
-101.885
-126.585
-149.786
-171.447
-191.545
-210.074
-227.038
-242.443
-256.313
-268.675
-279.577
-289.083
-297.206
-303.966
-309.396
-313.514
-316.305
-317.805
-318.022
-316.886
-314.079
-309.716
-303.857
-296.516
-287.724
-277.536
-265.984
-253.067
-238.788
-223.132
-206.079
-187.606
-167.692
-146.33
-123.525
-99.3121
-73.5666
-46.6665
-18.5522
10.638
40.7406
71.5656
102.893
134.478
166.049
197.307
227.935
257.6
285.959
312.653
337.328
359.635
379.237
395.817
409.081
418.783
424.728
426.673
424.68
418.656
408.61
394.662
376.981
355.8
331.41
304.148
274.395
242.567
209.095
174.428
139.013
103.286
67.6629
32.5285
-1.76762
-34.9173
-66.6355
-96.7657
-125.117
-151.575
-176.061
-198.533
-218.987
-237.439
-253.932
-268.525
-281.287
-292.298
-301.65
-309.421
-315.691
-320.538
-324.038
-326.236
-327.156
-326.836
-325.295
-322.523
-318.505
-313.217
-306.624
-298.686
-289.352
-278.572
-266.295
-252.464
-237.028
-219.95
-201.201
-180.77
-158.661
-134.895
-109.516
-82.5776
-53.9436
-24.187
6.74314
38.6574
71.3169
104.44
137.701
170.742
203.166
234.549
264.447
292.404
317.958
340.659
360.083
375.851
387.637
395.187
398.279
396.818
390.826
380.381
365.544
346.58
323.785
297.521
268.212
236.329
202.375
166.871
130.346
93.3135
56.2598
19.6368
-16.1509
-50.7526
-83.8573
-115.281
-144.831
-172.392
-197.894
-221.31
-242.645
-261.931
-279.216
-294.57
-308.062
-319.771
-329.776
-338.151
-344.962
-350.274
-354.142
-356.622
-357.741
-357.514
-355.996
-353.181
-349.071
-343.656
-336.917
-328.825
-319.339
-308.414
-296.005
-282.058
-266.519
-249.344
-230.497
-209.953
-187.707
-163.772
-138.191
-111.033
-82.3906
-52.2944
-21.1948
10.7996
43.4283
76.379
109.293
141.775
173.398
203.711
232.265
258.606
282.318
303.015
320.349
333.996
343.715
349.324
350.684
347.948
341.599
331.331
317.294
300.007
279.852
257.172
232.39
205.866
177.996
149.161
119.665
89.8338
59.9841
30.2964
0.913512
-28.1446
-54.1247
-77.4418
-100.221
-122.414
-143.537
-163.365
-181.756
-198.649
-214.03
-227.906
-240.312
-251.282
-260.861
-269.092
-276.01
-281.645
-286.017
-289.137
-290.99
-291.533
-290.736
-288.511
-284.79
-279.516
-272.597
-263.955
-253.51
-241.198
-226.972
-210.816
-192.717
-172.699
-150.83
-127.188
-101.912
-75.1673
-47.1568
-15.3484
14.8439
45.9426
77.5855
109.449
141.239
172.62
203.28
232.875
261.063
287.541
311.982
334.073
353.563
370.206
383.795
394.156
401.148
404.684
404.664
401.035
393.766
382.941
368.732
351.333
330.958
307.891
282.494
255.189
-295.815
-303.59
-310.041
-315.195
-319.07
-321.67
-323.03
-323.13
-321.971
-319.56
-315.865
-310.848
-304.469
-296.679
-287.429
-276.667
-264.342
-250.41
-234.833
-217.572
-198.597
-177.897
-155.462
-131.308
-105.484
-78.0369
-49.0035
-18.7983
12.5175
44.7129
77.5321
110.695
143.859
176.678
208.765
239.727
269.217
296.86
322.281
345.168
365.217
382.158
395.771
405.873
412.352
415.097
414.129
409.499
401.239
389.465
374.388
356.211
335.202
311.638
285.825
258.123
228.886
198.452
167.192
135.453
103.56
71.816
40.4959
9.86122
-19.8634
-48.4563
-75.8932
-102.022
-126.724
-149.926
-171.586
-191.682
-210.21
-227.171
-242.573
-256.439
-268.797
-279.694
-289.195
-297.314
-304.07
-309.499
-313.616
-316.408
-317.913
-318.127
-316.978
-314.179
-309.819
-303.962
-296.624
-287.835
-277.65
-266.101
-253.187
-238.912
-223.26
-206.211
-187.74
-167.828
-146.466
-123.661
-99.4401
-73.7057
-46.7943
-18.6709
10.53
40.6455
71.486
102.832
134.437
166.032
197.315
227.971
257.666
286.055
312.781
337.488
359.826
379.458
396.065
409.353
419.074
425.031
427
424.985
418.962
408.904
394.938
377.233
356.022
331.599
304.3
274.511
242.644
209.133
174.43
138.981
103.223
67.5711
32.4124
-1.90381
-35.0693
-66.8002
-96.9384
-125.294
-151.755
-176.239
-198.709
-219.158
-237.604
-254.09
-268.676
-281.43
-292.434
-301.777
-309.541
-315.805
-320.647
-324.143
-326.336
-327.252
-326.934
-325.394
-322.623
-318.607
-313.322
-306.733
-298.799
-289.47
-278.697
-266.424
-252.598
-237.168
-220.094
-201.348
-180.92
-158.81
-135.045
-109.665
-82.7255
-54.0766
-24.3151
6.62677
38.5572
71.2366
104.383
137.672
170.744
203.203
234.624
264.561
292.558
318.153
340.893
360.354
376.152
387.963
395.53
398.647
397.166
391.171
380.711
365.853
346.859
324.027
297.723
268.37
236.442
202.442
166.895
130.328
93.2577
56.1705
19.5192
-16.2918
-50.9113
-84.0294
-115.462
-145.017
-172.579
-198.079
-221.491
-242.82
-262.1
-279.378
-294.723
-308.208
-319.91
-329.908
-338.277
-345.083
-350.389
-354.253
-356.731
-357.844
-357.619
-356.099
-353.284
-349.175
-343.762
-337.026
-328.937
-319.456
-308.537
-296.133
-282.19
-266.657
-249.487
-230.644
-210.103
-187.859
-163.924
-138.34
-111.178
-82.5286
-52.4185
-21.3049
10.7081
43.3595
76.3375
109.283
141.799
173.46
203.814
232.408
258.791
282.542
303.276
320.642
334.316
344.056
349.68
351.06
348.343
341.942
331.649
317.599
300.289
280.103
257.387
232.568
206.006
178.099
149.228
119.697
89.8332
59.9512
30.2299
0.814209
-28.251
-54.1916
-77.5334
-100.334
-122.543
-143.674
-163.505
-181.895
-198.785
-214.161
-228.031
-240.432
-251.397
-260.971
-269.198
-276.112
-281.745
-286.116
-289.236
-291.091
-291.637
-290.847
-288.627
-284.912
-279.646
-272.734
-264.1
-253.661
-241.354
-227.133
-210.979
-192.882
-172.863
-150.991
-127.343
-102.057
-75.2973
-47.2692
-15.4868
14.7291
45.8528
77.5197
109.407
141.223
172.631
203.319
232.943
261.161
287.668
312.138
334.257
353.77
370.435
384.041
394.417
401.42
404.968
404.942
401.301
394.026
383.192
368.966
351.546
331.146
308.051
282.624
255.288
-295.983
-303.751
-310.196
-315.346
-319.217
-321.815
-323.178
-323.276
-322.12
-319.713
-316.023
-311.011
-304.639
-296.857
-287.614
-276.861
-264.543
-250.619
-235.049
-217.795
-198.826
-178.131
-155.699
-131.546
-105.72
-78.2633
-49.2142
-18.991
12.346
44.568
77.4191
110.619
143.825
176.689
208.824
239.835
269.375
297.068
322.537
345.469
365.558
382.533
396.173
406.295
412.784
415.551
414.553
409.916
401.637
389.837
374.727
356.513
335.461
311.851
285.991
258.243
228.959
198.48
167.178
135.401
103.473
71.6994
40.3531
9.69793
-20.043
-48.6463
-76.0928
-102.228
-126.933
-150.136
-171.795
-191.889
-210.413
-227.37
-242.768
-256.629
-268.981
-279.87
-289.363
-297.476
-304.227
-309.652
-313.767
-316.562
-318.073
-318.281
-317.121
-314.328
-309.974
-304.12
-296.785
-288
-277.82
-266.275
-253.366
-239.097
-223.451
-206.406
-187.939
-168.03
-146.67
-123.863
-99.6328
-73.9105
-46.9838
-18.8469
10.37
40.5049
71.3688
102.742
134.379
166.008
197.33
228.028
257.767
286.203
312.976
337.731
360.116
379.793
396.441
409.764
419.514
425.488
427.486
425.452
419.425
409.35
395.356
377.614
356.359
331.886
304.533
274.687
242.762
209.194
174.437
138.936
103.13
67.4362
32.2409
-2.10551
-35.2948
-67.0448
-97.1949
-125.558
-152.021
-176.505
-198.97
-219.413
-237.85
-254.326
-268.9
-281.642
-292.635
-301.967
-309.719
-315.973
-320.808
-324.297
-326.483
-327.397
-327.08
-325.539
-322.77
-318.758
-313.478
-306.895
-298.968
-289.647
-278.881
-266.616
-252.799
-237.376
-220.308
-201.567
-181.142
-159.034
-135.267
-109.885
-82.9459
-54.2745
-24.5057
6.45391
38.4087
71.1179
104.3
137.631
170.749
203.26
234.737
264.735
292.793
318.448
341.247
360.761
376.607
388.455
396.048
399.189
397.702
391.695
381.21
366.318
347.279
324.393
298.027
268.609
236.613
202.545
166.932
130.304
93.1759
56.0387
19.3447
-16.5012
-51.1475
-84.2859
-115.731
-145.293
-172.857
-198.354
-221.761
-243.082
-262.351
-279.618
-294.952
-308.425
-320.116
-330.104
-338.463
-345.261
-350.561
-354.419
-356.891
-357.997
-357.773
-356.252
-353.437
-349.33
-343.92
-337.188
-329.105
-319.63
-308.718
-296.322
-282.388
-266.862
-249.7
-230.863
-210.327
-188.086
-164.151
-138.563
-111.394
-82.7349
-52.6026
-21.4684
10.5723
43.258
76.2769
109.27
141.839
173.556
203.971
232.626
259.069
282.88
303.67
321.084
334.798
344.569
350.217
351.624
348.926
342.462
332.131
318.06
300.714
280.478
257.709
232.834
206.216
178.253
149.328
119.746
89.8324
59.9019
30.1299
0.663485
-28.4107
-54.2928
-77.6694
-100.504
-122.738
-143.88
-163.715
-182.103
-198.988
-214.357
-228.22
-240.612
-251.569
-261.136
-269.356
-276.266
-281.895
-286.265
-289.384
-291.242
-291.792
-291.014
-288.8
-285.096
-279.84
-272.94
-264.316
-253.888
-241.589
-227.375
-211.225
-193.129
-173.109
-151.233
-127.576
-102.276
-75.4929
-47.4358
-15.6966
14.5568
45.7179
77.4209
109.345
141.199
172.647
203.377
233.045
261.308
287.86
312.373
334.532
354.082
370.778
384.411
394.808
401.827
405.384
405.366
401.704
394.418
383.568
369.317
351.864
331.427
308.29
282.818
255.436
-296.207
-303.966
-310.403
-315.546
-319.413
-322.009
-323.374
-323.472
-322.319
-319.916
-316.233
-311.23
-304.867
-297.094
-287.862
-277.119
-264.812
-250.898
-235.338
-218.093
-199.133
-178.443
-156.015
-131.864
-106.034
-78.5672
-49.4944
-19.2483
12.117
44.3744
77.2681
110.518
143.779
176.704
208.903
239.979
269.586
297.345
322.879
345.87
366.013
383.033
396.71
406.858
413.361
416.141
415.132
410.476
402.168
390.334
375.18
356.914
335.806
312.136
286.213
258.401
229.055
198.517
167.159
135.331
103.358
71.5434
40.1624
9.47982
-20.2829
-48.8998
-76.3591
-102.502
-127.212
-150.417
-172.075
-192.165
-210.684
-227.636
-243.028
-256.882
-269.226
-280.106
-289.587
-297.692
-304.437
-309.856
-313.969
-316.766
-318.282
-318.481
-317.319
-314.529
-310.181
-304.33
-297
-288.22
-278.046
-266.507
-253.606
-239.344
-223.704
-206.666
-188.205
-168.3
-146.942
-124.133
-99.8931
-74.1799
-47.2359
-19.0811
10.157
40.3179
71.2128
102.623
134.301
165.977
197.351
228.104
257.903
286.4
313.237
338.056
360.504
380.241
396.943
410.314
420.101
426.1
428.125
426.085
420.045
409.946
395.914
378.123
356.81
332.269
304.844
274.922
242.92
209.276
174.445
138.875
103.006
67.2565
32.0123
-2.3743
-35.5954
-67.3707
-97.5369
-125.91
-152.376
-176.858
-199.318
-219.752
-238.177
-254.64
-269.199
-281.925
-292.902
-302.219
-309.957
-316.198
-321.023
-324.502
-326.68
-327.591
-327.272
-325.733
-322.967
-318.959
-313.685
-307.111
-299.192
-289.882
-279.127
-266.873
-253.066
-237.653
-220.594
-201.859
-181.438
-159.331
-135.564
-110.179
-83.2408
-54.5379
-24.7601
6.22356
38.2107
70.9597
104.19
137.576
170.756
203.337
234.889
264.966
293.105
318.842
341.72
361.306
377.214
389.113
396.739
399.898
398.425
392.399
381.878
366.941
347.841
324.882
298.434
268.929
236.841
202.683
166.982
130.271
93.067
55.8629
19.1119
-16.7806
-51.4625
-84.6281
-116.09
-145.661
-173.227
-198.721
-222.12
-243.43
-262.685
-279.938
-295.256
-308.714
-320.392
-330.366
-338.712
-345.499
-350.789
-354.64
-357.104
-358.203
-357.978
-356.456
-353.641
-349.535
-344.13
-337.404
-329.328
-319.862
-308.96
-296.575
-282.651
-267.136
-249.984
-231.155
-210.625
-188.388
-164.452
-138.86
-111.681
-83.0111
-52.8471
-21.6863
10.3912
43.1227
76.1961
109.252
141.891
173.685
204.18
232.916
259.442
283.332
304.196
321.674
335.442
345.255
350.933
352.371
349.686
343.162
332.783
318.679
301.281
280.98
258.139
233.189
206.496
178.458
149.463
119.811
89.8313
59.8362
29.9964
0.458414
-28.6247
-54.4278
-77.8475
-100.731
-122.998
-144.156
-163.994
-182.381
-199.259
-214.619
-228.471
-240.853
-251.799
-261.356
-269.568
-276.471
-282.095
-286.463
-289.581
-291.442
-292.001
-291.236
-289.032
-285.341
-280.1
-273.214
-264.605
-254.19
-241.903
-227.697
-211.554
-193.46
-173.438
-151.555
-127.886
-102.568
-75.7547
-47.6558
-15.9789
14.3269
45.5382
77.2891
109.262
141.167
172.669
203.454
233.181
261.504
288.116
312.686
334.899
354.497
371.235
384.904
395.329
402.369
405.934
405.93
402.248
394.941
384.069
369.785
352.29
331.802
308.61
283.077
255.633
-296.487
-304.235
-310.662
-315.797
-319.657
-322.252
-323.617
-323.715
-322.566
-320.17
-316.496
-311.502
-305.151
-297.391
-288.172
-277.441
-265.148
-251.246
-235.699
-218.466
-199.515
-178.834
-156.411
-132.261
-106.428
-78.9496
-49.8434
-19.5703
11.8301
44.1318
77.0788
110.39
143.721
176.722
209.001
240.16
269.849
297.692
323.306
346.372
366.581
383.659
397.381
407.563
414.083
416.87
415.861
411.178
402.834
390.955
375.746
357.416
336.238
312.492
286.491
258.6
229.176
198.563
167.136
135.244
103.213
71.3477
39.9237
9.20659
-20.5836
-49.217
-76.692
-102.845
-127.561
-150.768
-172.424
-192.511
-211.024
-227.968
-243.353
-257.198
-269.532
-280.4
-289.868
-297.961
-304.699
-310.112
-314.221
-317.02
-318.538
-318.734
-317.568
-314.781
-310.44
-304.593
-297.268
-288.495
-278.33
-266.796
-253.905
-239.652
-224.021
-206.991
-188.538
-168.638
-147.282
-124.471
-100.222
-74.5136
-47.5509
-19.3741
9.89039
40.0838
71.0175
102.473
134.203
165.938
197.376
228.199
258.072
286.646
313.564
338.463
360.989
380.801
397.571
411.001
420.837
426.867
428.915
426.884
420.822
410.692
396.613
378.76
357.373
332.749
305.233
275.217
243.117
209.378
174.456
138.799
102.851
67.0312
31.726
-2.71108
-35.972
-67.7787
-97.965
-126.351
-152.821
-177.301
-199.753
-220.175
-238.587
-255.032
-269.572
-282.279
-293.237
-302.535
-310.254
-316.479
-321.29
-324.758
-326.926
-327.834
-327.513
-325.975
-323.212
-319.21
-313.944
-307.38
-299.473
-290.175
-279.434
-267.193
-253.4
-238
-220.951
-202.224
-181.808
-159.703
-135.934
-110.545
-83.6104
-54.8676
-25.0794
5.93509
37.9625
70.7613
104.051
137.506
170.765
203.432
235.078
265.254
293.496
319.335
342.311
361.987
377.974
389.936
397.605
400.784
399.327
393.282
382.714
367.72
348.543
325.493
298.943
269.328
237.127
202.855
167.044
130.229
92.9301
55.6423
18.8199
-17.1309
-51.8571
-85.0566
-116.54
-146.122
-173.691
-199.18
-222.569
-243.865
-263.103
-280.339
-295.637
-309.076
-320.736
-330.692
-339.023
-345.796
-351.074
-354.915
-357.37
-358.463
-358.235
-356.711
-353.896
-349.793
-344.392
-337.673
-329.606
-320.152
-309.263
-296.891
-282.981
-267.479
-250.339
-231.521
-210.999
-188.766
-164.83
-139.232
-112.042
-83.3582
-53.1518
-21.9594
10.1643
42.9528
76.0942
109.229
141.956
173.845
204.44
233.279
259.908
283.897
304.854
322.414
336.25
346.115
351.83
353.299
350.619
344.047
333.608
319.456
301.99
281.607
258.677
233.633
206.845
178.714
149.63
119.892
89.8296
59.7541
29.8294
0.196297
-28.9224
-54.5687
-78.0649
-101.017
-123.324
-144.501
-164.345
-182.729
-199.598
-214.947
-228.786
-241.153
-252.086
-261.631
-269.832
-276.726
-282.345
-286.71
-289.828
-291.692
-292.263
-291.511
-289.32
-285.646
-280.424
-273.558
-264.967
-254.568
-242.295
-228.1
-211.964
-193.873
-173.849
-151.959
-128.275
-102.934
-76.0831
-47.9252
-16.338
14.0395
45.3136
77.1242
109.159
141.127
172.695
203.551
233.351
261.749
288.435
313.078
335.357
355.016
371.807
385.52
395.981
403.047
406.622
406.628
402.933
395.599
384.697
370.37
352.822
332.271
309.009
283.401
255.88
-296.823
-304.557
-310.973
-316.097
-319.949
-322.543
-323.908
-324.007
-322.864
-320.475
-316.811
-311.83
-305.492
-297.747
-288.544
-277.828
-265.551
-251.664
-236.132
-218.913
-199.975
-179.304
-156.887
-132.737
-106.901
-79.4117
-50.261
-19.9574
11.485
43.8398
76.8506
110.236
143.651
176.742
209.118
240.375
270.165
298.108
323.818
346.974
367.265
384.411
398.188
408.409
414.951
417.745
416.736
412.021
403.634
391.701
376.426
358.019
336.755
312.919
286.823
258.838
229.32
198.618
167.107
135.138
103.038
71.1119
39.6366
8.87787
-20.9455
-49.5981
-77.0918
-103.257
-127.98
-151.19
-172.844
-192.925
-211.431
-228.367
-243.742
-257.578
-269.9
-280.754
-290.204
-298.285
-305.012
-310.418
-314.523
-317.324
-318.844
-319.038
-317.869
-315.085
-310.75
-304.908
-297.589
-288.826
-278.669
-267.144
-254.264
-240.021
-224.402
-207.382
-188.937
-169.043
-147.691
-124.878
-100.621
-74.9121
-47.9288
-19.7263
9.56981
39.8022
70.7823
102.292
134.085
165.89
197.405
228.312
258.275
286.941
313.955
338.951
361.572
381.473
398.325
411.827
421.721
427.79
429.863
427.843
421.756
411.589
397.453
379.525
358.049
333.325
305.701
275.569
243.353
209.5
174.467
138.707
102.664
66.7595
31.3813
-3.11651
-36.4248
-68.2694
-98.4798
-126.88
-153.355
-177.833
-200.276
-220.685
-239.078
-255.503
-270.021
-282.704
-293.639
-302.913
-310.61
-316.816
-321.611
-325.064
-327.221
-328.125
-327.802
-326.265
-323.507
-319.511
-314.256
-307.703
-299.81
-290.527
-279.802
-267.579
-253.801
-238.416
-221.379
-202.662
-182.253
-160.15
-136.38
-110.984
-84.0489
-55.2701
-25.4646
5.58796
37.6637
70.522
103.883
137.421
170.774
203.545
235.304
265.6
293.965
319.927
343.02
362.806
378.887
390.924
398.646
401.852
400.408
394.342
383.721
368.656
349.387
326.227
299.555
269.807
237.469
203.061
167.117
130.177
92.7644
55.3761
18.4679
-17.5529
-52.332
-85.572
-117.08
-146.677
-174.248
-199.732
-223.109
-244.388
-263.606
-280.819
-296.094
-309.51
-321.148
-331.084
-339.396
-346.152
-351.416
-355.245
-357.688
-358.774
-358.542
-357.016
-354.201
-350.101
-344.707
-337.997
-329.941
-320.5
-309.626
-297.27
-283.376
-267.89
-250.765
-231.96
-211.448
-189.22
-165.284
-139.678
-112.475
-83.7768
-53.5172
-22.2884
9.8907
42.7478
75.9708
109.2
142.033
174.036
204.752
233.714
260.467
284.577
305.645
323.302
337.22
347.148
352.908
354.407
351.73
345.113
334.608
320.391
302.842
282.36
259.322
234.165
207.264
179.021
149.83
119.989
89.8273
59.6556
29.6289
-0.124149
-29.324
-54.698
-78.3196
-101.361
-123.716
-144.916
-164.766
-183.147
-200.005
-215.34
-229.163
-241.514
-252.431
-261.961
-270.148
-277.032
-282.644
-287.006
-290.125
-291.993
-292.577
-291.841
-289.667
-286.013
-280.813
-273.97
-265.401
-255.022
-242.766
-228.584
-212.457
-194.37
-174.343
-152.444
-128.743
-103.374
-76.4792
-48.237
-16.7818
13.6949
45.044
76.9261
109.034
141.079
172.726
203.666
233.554
262.042
288.818
313.548
335.908
355.639
372.494
386.261
396.764
403.86
407.45
407.461
403.756
396.39
385.451
371.073
353.46
332.835
309.488
283.79
256.176
-297.214
-304.933
-311.335
-316.448
-320.292
-322.882
-324.246
-324.348
-323.21
-320.831
-317.178
-312.211
-305.89
-298.162
-288.977
-278.28
-266.021
-252.153
-236.637
-219.435
-200.512
-179.852
-157.443
-133.294
-107.454
-79.9542
-50.7473
-20.4102
11.0809
43.4978
76.583
110.056
143.568
176.766
209.254
240.626
270.533
298.594
324.417
347.678
368.063
385.289
399.13
409.397
415.966
418.769
417.754
413.006
404.569
392.572
377.219
358.723
337.36
313.417
287.211
259.115
229.488
198.681
167.072
135.013
102.832
70.8356
39.3007
8.49322
-21.3692
-50.0433
-77.5587
-103.739
-128.47
-151.682
-173.334
-193.409
-211.907
-228.833
-244.198
-258.022
-270.329
-281.168
-290.597
-298.661
-305.378
-310.776
-314.875
-317.677
-319.199
-319.392
-318.221
-315.44
-311.112
-305.275
-297.964
-289.211
-279.065
-267.549
-254.682
-240.452
-224.845
-207.837
-189.402
-169.517
-148.168
-125.353
-101.088
-75.3755
-48.3699
-20.1381
9.19493
39.4725
70.507
102.081
133.947
165.833
197.439
228.444
258.51
287.286
314.411
339.519
362.251
382.258
399.206
412.792
422.753
428.869
430.97
428.961
422.849
412.637
398.433
380.419
358.84
333.997
306.246
275.98
243.629
209.642
174.479
138.598
102.445
66.4408
30.9774
-3.59126
-36.955
-68.8432
-99.0819
-127.499
-153.979
-178.454
-200.887
-221.279
-239.653
-256.053
-270.544
-283.2
-294.107
-303.354
-311.026
-317.209
-321.985
-325.421
-327.567
-328.464
-328.139
-326.603
-323.85
-319.863
-314.619
-308.08
-300.203
-290.938
-280.233
-268.028
-254.27
-238.903
-221.88
-203.174
-182.772
-160.672
-136.9
-111.495
-84.527
-55.7756
-25.9166
5.18144
37.3138
70.2415
103.685
137.32
170.783
203.675
235.567
266.002
294.511
320.617
343.849
363.762
379.954
392.079
399.862
403.102
401.669
395.579
384.898
369.749
350.373
327.084
300.269
270.366
237.868
203.3
167.201
130.115
92.5692
55.0636
18.0552
-18.047
-52.8881
-86.1752
-117.713
-147.325
-174.899
-200.376
-223.739
-244.998
-264.192
-281.38
-296.628
-310.017
-321.63
-331.541
-339.831
-346.568
-351.815
-355.629
-358.06
-359.139
-358.901
-357.371
-354.558
-350.461
-345.074
-338.374
-330.331
-320.906
-310.049
-297.712
-283.838
-268.37
-251.263
-232.472
-211.972
-189.75
-165.814
-140.2
-112.982
-84.2674
-53.9439
-22.6742
9.56975
42.5071
75.8251
109.165
142.121
174.258
205.115
234.222
261.12
285.371
306.569
324.34
338.353
348.355
354.167
355.698
353.021
346.358
335.782
321.487
303.838
283.24
260.076
234.786
207.754
179.379
150.063
120.102
89.8243
59.5407
29.3957
-0.503302
-29.8333
-54.814
-78.6114
-101.765
-124.177
-145.401
-165.258
-183.633
-200.481
-215.799
-229.603
-241.935
-252.833
-262.345
-270.518
-277.39
-282.993
-287.351
-290.471
-292.345
-292.942
-292.224
-290.07
-286.441
-281.267
-274.451
-265.907
-255.552
-243.315
-229.15
-213.033
-194.949
-174.92
-153.01
-129.29
-103.89
-76.9447
-48.5959
-17.306
13.2939
44.7296
76.6946
108.887
141.021
172.762
203.799
233.791
262.385
289.266
314.097
336.551
356.367
373.297
387.125
397.679
404.809
408.418
408.434
404.715
397.316
386.332
371.895
354.206
333.493
310.048
284.243
256.521
-297.662
-305.362
-311.749
-316.85
-320.683
-323.268
-324.632
-324.737
-323.606
-321.237
-317.597
-312.647
-306.344
-298.636
-289.473
-278.797
-266.558
-252.71
-237.215
-220.031
-201.126
-180.48
-158.079
-133.931
-108.087
-80.578
-51.3022
-20.9293
10.6175
43.1052
76.2755
109.848
143.471
176.791
209.408
240.913
270.954
299.148
325.101
348.482
368.975
386.294
400.209
410.528
417.127
419.94
418.917
414.133
405.639
393.569
378.127
359.528
338.051
313.986
287.655
259.43
229.678
198.752
167.031
134.869
102.596
70.5183
38.9157
8.05204
-21.855
-50.5529
-78.0931
-104.289
-129.03
-152.245
-173.895
-193.962
-212.45
-229.365
-244.718
-258.529
-270.82
-281.641
-291.046
-299.092
-305.796
-311.184
-315.277
-318.08
-319.603
-319.796
-318.624
-315.846
-311.525
-305.695
-298.393
-289.652
-279.517
-268.013
-255.16
-240.945
-225.353
-208.358
-189.935
-170.058
-148.714
-125.898
-101.625
-75.9049
-48.8745
-20.6097
8.76529
39.0945
70.191
101.837
133.787
165.767
197.476
228.592
258.778
287.678
314.931
340.169
363.028
383.156
400.214
413.896
423.935
430.105
432.239
430.238
424.1
413.836
399.556
381.443
359.744
334.767
306.869
276.45
243.942
209.802
174.492
138.472
102.192
66.0745
30.5137
-4.13612
-37.5629
-69.5009
-99.7718
-128.208
-154.694
-179.165
-201.586
-221.96
-240.31
-256.681
-271.143
-283.768
-294.643
-303.858
-311.501
-317.658
-322.412
-325.829
-327.962
-328.852
-328.523
-326.99
-324.242
-320.265
-315.033
-308.511
-300.652
-291.408
-280.725
-268.543
-254.806
-239.459
-222.453
-203.76
-183.366
-161.27
-137.495
-112.08
-85.0778
-56.3516
-26.4351
4.71507
36.9118
69.9191
103.457
137.203
170.792
203.823
235.866
266.461
295.135
321.405
344.796
364.855
381.174
393.401
401.256
404.535
403.113
396.993
386.245
371.001
351.501
328.066
301.084
271.004
238.323
203.572
167.296
130.043
92.3437
54.7037
17.5807
-18.6142
-53.5265
-86.8665
-118.437
-148.067
-175.645
-201.114
-224.46
-245.697
-264.863
-282.021
-297.237
-310.596
-322.18
-332.064
-340.328
-347.043
-352.27
-356.069
-358.485
-359.554
-359.31
-357.777
-354.964
-350.873
-345.493
-338.804
-330.777
-321.369
-310.532
-298.217
-284.366
-268.92
-251.832
-233.059
-212.572
-190.358
-166.421
-140.798
-113.561
-84.8294
-54.4341
-23.118
9.20055
42.2301
75.6566
109.122
142.219
174.509
205.528
234.802
261.867
286.279
307.626
325.528
339.651
349.738
355.607
357.171
354.495
347.784
337.131
322.742
304.978
284.247
260.937
235.497
208.312
179.788
150.329
120.23
89.8201
59.4094
29.1299
-0.939548
-30.4571
-54.9118
-78.9424
-102.232
-124.706
-145.958
-165.821
-184.19
-201.024
-216.323
-230.107
-242.416
-253.292
-262.784
-270.939
-277.797
-283.392
-287.746
-290.867
-292.747
-293.359
-292.662
-290.531
-286.93
-281.786
-275
-266.487
-256.158
-243.944
-229.796
-213.692
-195.613
-175.581
-153.659
-129.917
-104.482
-77.4811
-49.0247
-17.8896
12.8379
44.3704
76.4293
108.719
140.955
172.802
203.951
234.061
262.776
289.777
314.724
337.286
357.199
374.214
388.115
398.724
405.895
409.525
409.545
405.812
398.375
387.34
372.834
355.059
334.245
310.687
284.761
256.914
-298.165
-305.845
-312.215
-317.301
-321.123
-323.702
-325.067
-325.175
-324.051
-321.693
-318.069
-313.137
-306.855
-299.17
-290.031
-279.379
-267.163
-253.338
-237.865
-220.703
-201.817
-181.188
-158.795
-134.649
-108.8
-81.2846
-51.9258
-21.5157
10.0938
42.6615
75.9274
109.612
143.361
176.818
209.58
241.234
271.426
299.772
325.87
349.388
370.003
387.426
401.424
411.802
418.436
421.26
420.226
415.401
406.845
394.692
379.149
360.434
338.828
314.626
288.152
259.785
229.891
198.83
166.983
134.705
102.328
70.1596
38.481
7.5532
-22.4034
-51.1271
-78.6952
-104.91
-129.661
-152.88
-174.526
-194.586
-213.062
-229.964
-245.303
-259.1
-271.372
-282.174
-291.552
-299.575
-306.265
-311.642
-315.728
-318.532
-320.058
-320.251
-319.079
-316.303
-311.989
-306.166
-298.875
-290.146
-280.023
-268.534
-255.697
-241.499
-225.923
-208.944
-190.534
-170.668
-149.328
-126.512
-102.23
-76.5008
-49.4428
-21.1415
8.28025
38.6676
69.8339
101.562
133.606
165.691
197.516
228.759
259.078
288.119
315.516
340.9
363.903
384.166
401.349
415.14
425.266
431.499
433.669
431.677
425.51
415.187
400.821
382.596
360.762
335.632
307.569
276.977
244.294
209.98
174.504
138.328
101.905
65.6598
29.9892
-4.75188
-38.2496
-70.2433
-100.55
-129.007
-155.501
-179.967
-202.374
-222.726
-241.049
-257.39
-271.817
-284.407
-295.245
-304.425
-312.036
-318.163
-322.891
-326.288
-328.406
-329.287
-328.956
-327.424
-324.683
-320.716
-315.5
-308.995
-301.157
-291.936
-281.278
-269.121
-255.409
-240.085
-223.098
-204.42
-184.036
-161.943
-138.166
-112.739
-85.7079
-56.9924
-27.0203
4.18844
36.4572
69.5538
103.199
137.069
170.799
203.987
236.199
266.976
295.836
322.292
345.863
366.087
382.549
394.891
402.828
406.151
404.739
398.587
387.764
372.411
352.772
329.17
302.003
271.722
238.834
203.876
167.4
129.958
92.0871
54.2956
17.0434
-19.2558
-54.2482
-87.6466
-119.255
-148.904
-176.485
-201.946
-225.273
-246.483
-265.619
-282.742
-297.924
-311.248
-322.799
-332.651
-340.887
-347.577
-352.782
-356.563
-358.963
-360.022
-359.771
-358.234
-355.422
-351.335
-345.965
-339.289
-331.278
-321.891