/*--------------------------------*- C++ -*----------------------------------*\
| =========                 |                                                 |
| \\      /  F ield         | OpenFOAM: The Open Source CFD Toolbox           |
|  \\    /   O peration     | Version:  3.0.1                                 |
|   \\  /    A nd           | Web:      www.OpenFOAM.org                      |
|    \\/     M anipulation  |                                                 |
\*---------------------------------------------------------------------------*/
FoamFile
{
    version     2.0;
    format      ascii;
    class       surfaceScalarField;
    location    "27.6";
    object      phi;
}
// * * * * * * * * * * * * * * * * * * * * * * * * * * * * * * * * * * * * * //

dimensions      [0 3 -1 0 0 0 0];

internalField   nonuniform List<scalar> 
42423
(
-0.00017601
-1.77281e-06
-0.000173448
-2.56196e-06
-0.00017017
-3.27793e-06
-0.000166146
-4.02349e-06
-0.000161232
-4.91475e-06
-0.000155563
-5.6683e-06
-0.000148856
-6.70777e-06
-0.000141399
-7.457e-06
-0.000133092
-8.30717e-06
-0.000123853
-9.23845e-06
-0.0001136
-1.02536e-05
-0.000102507
-1.10927e-05
-9.02553e-05
-1.22516e-05
-7.703e-05
-1.32253e-05
-6.28416e-05
-1.41885e-05
-4.76429e-05
-1.51987e-05
-3.17691e-05
-1.58739e-05
-1.51157e-05
-1.66534e-05
2.33722e-06
-1.7453e-05
2.02993e-05
-1.79621e-05
3.87755e-05
-1.84762e-05
5.76732e-05
-1.88977e-05
7.65255e-05
-1.88523e-05
9.53569e-05
-1.88315e-05
0.0001138
-1.84436e-05
0.00013173
-1.79293e-05
0.00014883
-1.71006e-05
0.000164796
-1.59654e-05
0.000179381
-1.4585e-05
0.000192376
-1.29952e-05
0.000203495
-1.11191e-05
0.00021263
-9.13502e-06
0.000219508
-6.87838e-06
0.000224097
-4.58863e-06
0.000226245
-2.14795e-06
0.000225913
3.31611e-07
0.000223154
2.759e-06
0.00021797
5.18371e-06
0.000210424
7.54654e-06
0.000200709
9.71449e-06
0.000189067
1.16426e-05
0.00017569
1.33763e-05
0.000160754
1.49367e-05
0.000144569
1.61842e-05
0.0001273
1.72694e-05
0.000109239
1.80606e-05
9.07432e-05
1.8496e-05
7.18783e-05
1.8865e-05
5.29923e-05
1.8886e-05
3.42895e-05
1.87028e-05
1.59073e-05
1.83821e-05
-1.9947e-06
1.7902e-05
-1.92196e-05
1.72249e-05
-3.57046e-05
1.64849e-05
-5.13531e-05
1.56485e-05
-6.60936e-05
1.47405e-05
-7.98987e-05
1.38051e-05
-9.27143e-05
1.28155e-05
-0.000104536
1.1822e-05
-0.000115363
1.0827e-05
-0.000125193
9.82978e-06
-0.000134085
8.89182e-06
-0.000142006
7.92103e-06
-0.000149013
7.00721e-06
-0.000155182
6.16889e-06
-0.000160468
5.28589e-06
-0.000164907
4.43896e-06
-0.000168568
3.6612e-06
-0.000171398
2.8297e-06
-0.000173512
2.11475e-06
-0.000174885
1.37216e-06
-0.000175447
5.61929e-07
-0.000175343
-1.0324e-07
-0.000174484
-8.58891e-07
-0.000172829
-1.65568e-06
-0.000170511
-2.31747e-06
-0.000167357
-3.15385e-06
-0.000163484
-3.87388e-06
-0.00015885
-4.63318e-06
-0.000153383
-5.46718e-06
-0.000147093
-6.28994e-06
-0.000139989
-7.10456e-06
-0.000131959
-8.02999e-06
-0.000123059
-8.89988e-06
-0.00011326
-9.79844e-06
-0.000102514
-1.07466e-05
-9.09451e-05
-1.15688e-05
-7.83972e-05
-1.25479e-05
-6.50476e-05
-1.33496e-05
-5.07991e-05
-1.42485e-05
-3.59035e-05
-1.48956e-05
-2.02867e-05
-1.56169e-05
-4.12699e-06
-1.61597e-05
1.27247e-05
-1.68518e-05
3.00056e-05
-1.7281e-05
4.76832e-05
-1.76776e-05
6.55664e-05
-1.78832e-05
8.35082e-05
-1.79419e-05
0.000101324
-1.78163e-05
0.000118809
-1.74846e-05
0.00013578
-1.6971e-05
0.000152025
-1.62452e-05
0.000167227
-1.52017e-05
0.000181252
-1.40251e-05
0.000193795
-1.25436e-05
0.000204618
-1.08227e-05
0.00021352
-8.90182e-06
0.000220299
-6.77939e-06
0.000224809
-4.50997e-06
0.000226963
-2.15414e-06
0.000226721
2.41941e-07
0.000224014
2.70681e-06
0.000218849
5.16536e-06
0.000211337
7.51164e-06
0.00020158
9.75701e-06
0.000189801
1.17795e-05
0.000176145
1.36555e-05
0.000160915
1.52304e-05
0.000144372
1.6543e-05
0.000126731
1.76403e-05
0.000108397
1.83341e-05
8.95852e-05
1.88122e-05
7.05326e-05
1.90525e-05
5.1598e-05
1.89347e-05
3.29274e-05
1.86706e-05
1.46901e-05
1.82372e-05
-2.8485e-06
1.75386e-05
-1.96467e-05
1.67982e-05
-3.54565e-05
1.58098e-05
-5.02958e-05
1.48393e-05
-6.41622e-05
1.38664e-05
-7.68802e-05
1.2718e-05
-8.85319e-05
1.16517e-05
-9.90791e-05
1.05472e-05
-0.000108517
9.43779e-06
-0.000117021
8.50388e-06
-0.000124464
7.44321e-06
-0.000130992
6.5279e-06
-0.00013659
5.59835e-06
-0.00014131
4.71971e-06
-0.000145184
3.87399e-06
-0.000148234
3.04981e-06
-0.000150635
2.40102e-06
-0.000152294
1.65931e-06
-0.000153284
9.89583e-07
-0.000153638
3.54494e-07
-0.000153354
-2.84306e-07
-0.000152494
-8.59565e-07
-0.000151107
-1.38693e-06
-0.000149163
-1.94392e-06
-0.000146754
-2.40953e-06
-0.000143774
-2.98037e-06
-0.000140361
-3.41285e-06
-0.000136312
-4.0483e-06
-0.000131636
-4.67593e-06
-0.000126327
-5.30926e-06
-0.000120282
-6.04493e-06
-0.000113478
-6.80475e-06
-0.000105964
-7.51382e-06
-9.75022e-05
-8.46162e-06
-8.82319e-05
-9.27029e-06
-7.80149e-05
-1.0217e-05
-6.6939e-05
-1.10759e-05
-5.48943e-05
-1.20447e-05
-4.19302e-05
-1.29641e-05
-2.79757e-05
-1.39545e-05
-1.32693e-05
-1.47065e-05
2.33193e-06
-1.56012e-05
1.86988e-05
-1.63669e-05
3.58024e-05
-1.71037e-05
5.34202e-05
-1.76178e-05
7.14783e-05
-1.80582e-05
8.97839e-05
-1.83057e-05
0.000108119
-1.83355e-05
0.000126272
-1.81525e-05
0.000144048
-1.77758e-05
0.000161215
-1.71669e-05
0.000177448
-1.62334e-05
0.00019243
-1.4982e-05
0.000205922
-1.34924e-05
0.000217684
-1.17618e-05
0.0002275
-9.81556e-06
0.000235079
-7.57938e-06
0.00024035
-5.27073e-06
0.00024321
-2.86052e-06
0.000243593
-3.82898e-07
0.000241475
2.1181e-06
0.000236846
4.62882e-06
0.000229891
6.95543e-06
0.00022069
9.20115e-06
0.000209469
1.12211e-05
0.000196468
1.3001e-05
0.000181933
1.45348e-05
0.000166026
1.59064e-05
0.000149136
1.68903e-05
0.000131465
1.76711e-05
0.000113311
1.8154e-05
9.49131e-05
1.83977e-05
7.6486e-05
1.84272e-05
5.82599e-05
1.82261e-05
4.04072e-05
1.78527e-05
2.30598e-05
1.73474e-05
6.34989e-06
1.67099e-05
-9.63251e-06
1.59824e-05
-2.4797e-05
1.51645e-05
-3.90908e-05
1.42937e-05
-5.2463e-05
1.33723e-05
-6.48895e-05
1.24265e-05
-7.63579e-05
1.14684e-05
-8.68832e-05
1.05252e-05
-9.64665e-05
9.58331e-06
-0.00010509
8.62309e-06
-0.000112822
7.73207e-06
-0.000119641
6.81942e-06
-0.000125621
5.97952e-06
-0.000130701
5.08052e-06
-0.000134893
4.19236e-06
-0.000138325
3.4316e-06
-0.00014102
2.69525e-06
-0.000142874
1.85374e-06
-0.000144192
1.31805e-06
-0.000144684
4.91731e-07
-0.0001446
-8.41223e-08
-0.00014391
-6.9017e-07
-0.000142442
-1.46749e-06
-0.000140335
-2.10696e-06
-0.00013756
-2.77553e-06
-0.000134077
-3.48239e-06
-0.000129985
-4.09175e-06
-0.000125209
-4.77679e-06
-0.000119702
-5.50666e-06
-0.000113462
-6.23964e-06
-0.00010663
-6.83187e-06
-9.89774e-05
-7.65307e-06
-9.05996e-05
-8.37789e-06
-8.13952e-05
-9.20433e-06
-7.14577e-05
-9.93755e-06
-6.06352e-05
-1.08225e-05
-4.91352e-05
-1.15e-05
-3.67737e-05
-1.23615e-05
-2.36257e-05
-1.3148e-05
-9.78482e-06
-1.38409e-05
4.82441e-06
-1.46092e-05
2.00211e-05
-1.51967e-05
3.58087e-05
-1.57876e-05
5.20689e-05
-1.62603e-05
6.87363e-05
-1.66674e-05
8.56805e-05
-1.69442e-05
0.0001027
-1.70199e-05
0.000119629
-1.69287e-05
0.000136306
-1.66765e-05
0.000152501
-1.61952e-05
0.000167882
-1.5381e-05
0.000182222
-1.43403e-05
0.000195367
-1.31453e-05
0.000206921
-1.15542e-05
0.000216763
-9.8418e-06
0.00022458
-7.81708e-06
0.000230198
-5.61781e-06
0.000233447
-3.2492e-06
0.000234237
-7.89403e-07
0.000232541
1.69598e-06
0.000228203
4.33798e-06
0.000221309
6.89375e-06
0.00021211
9.19859e-06
0.000200639
1.14716e-05
0.00018726
1.33783e-05
0.000172108
1.51522e-05
0.000155665
1.64433e-05
0.000138196
1.74686e-05
0.000119935
1.8261e-05
0.000101276
1.86597e-05
8.26706e-05
1.86049e-05
6.43338e-05
1.83368e-05
4.63139e-05
1.802e-05
2.89198e-05
1.7394e-05
1.24896e-05
1.64302e-05
-3.15565e-06
1.56452e-05
-1.79096e-05
1.4754e-05
-3.169e-05
1.37804e-05
-4.45412e-05
1.28512e-05
-5.6388e-05
1.18468e-05
-6.73647e-05
1.09767e-05
-7.74669e-05
1.01022e-05
-8.6699e-05
9.23204e-06
-9.51572e-05
8.45826e-06
-0.000102868
7.71036e-06
-0.000109809
6.94184e-06
-0.000116081
6.27149e-06
-0.000121649
5.56846e-06
-0.000126582
4.93215e-06
-0.000130892
4.3103e-06
-0.00013454
3.64844e-06
-0.000137604
3.06424e-06
-0.000140056
2.45127e-06
-0.000141887
1.83173e-06
-0.000143167
1.28e-06
-0.000143882
7.14171e-07
-0.000143954
7.21616e-08
-0.000143282
-6.72214e-07
-0.000141826
-1.45539e-06
-0.000139739
-2.08685e-06
-0.000137014
-2.72561e-06
-0.000133462
-3.55158e-06
-0.000129283
-4.17898e-06
-0.000124443
-4.83982e-06
-0.000118843
-5.6007e-06
-0.000112622
-6.2209e-06
-0.000105379
-7.24268e-06
-9.74056e-05
-7.97353e-06
-8.85792e-05
-8.82647e-06
-7.87975e-05
-9.78166e-06
-6.80803e-05
-1.07173e-05
-5.64617e-05
-1.16186e-05
-4.37804e-05
-1.26813e-05
-3.0322e-05
-1.34585e-05
-1.59023e-05
-1.44197e-05
-6.31441e-07
-1.52708e-05
1.51645e-05
-1.5796e-05
3.16359e-05
-1.64714e-05
4.85788e-05
-1.69429e-05
6.57415e-05
-1.71627e-05
8.3069e-05
-1.73275e-05
0.000100336
-1.72669e-05
0.000117433
-1.7097e-05
0.000134091
-1.66586e-05
0.000150047
-1.59554e-05
0.000165091
-1.50447e-05
0.000179074
-1.39823e-05
0.000191719
-1.26457e-05
0.000202841
-1.11217e-05
0.000212273
-9.43186e-06
0.000219868
-7.59487e-06
0.000225431
-5.56326e-06
0.000228883
-3.45171e-06
0.000230164
-1.28132e-06
0.000229288
8.75436e-07
0.000226044
3.24461e-06
0.000220616
5.42772e-06
0.000213074
7.54152e-06
0.000203473
9.60131e-06
0.000192073
1.14001e-05
0.000179036
1.30366e-05
0.000164585
1.4451e-05
0.000148994
1.55918e-05
0.000132286
1.67077e-05
0.000114977
1.73091e-05
9.70728e-05
1.7904e-05
7.89361e-05
1.81367e-05
6.07868e-05
1.81493e-05
4.27168e-05
1.80699e-05
2.49909e-05
1.77259e-05
7.76901e-06
1.72219e-05
-8.94443e-06
1.67134e-05
-2.48686e-05
1.59241e-05
-3.99836e-05
1.5115e-05
1.40945e-05
-0.000176044
-3.53972e-06
-0.000173485
-5.12091e-06
-0.000170211
-6.55197e-06
-0.000166193
-8.04133e-06
-0.00016128
-9.82861e-06
-0.000155613
-1.13354e-05
-0.00014891
-1.34104e-05
-0.000141447
-1.49196e-05
-0.000133143
-1.66113e-05
-0.000123901
-1.84812e-05
-0.000113653
-2.05014e-05
-0.000102549
-2.21962e-05
-9.0305e-05
-2.4496e-05
-7.70789e-05
-2.64514e-05
-6.28884e-05
-2.8379e-05
-4.76851e-05
-3.0402e-05
-3.18091e-05
-3.17499e-05
-1.515e-05
-3.33126e-05
2.31453e-06
-3.49175e-05
2.02863e-05
-3.5934e-05
3.87717e-05
-3.69617e-05
5.76801e-05
-3.78062e-05
7.65434e-05
-3.77156e-05
9.53862e-05
-3.76744e-05
0.000113843
-3.69005e-05
0.000131785
-3.5871e-05
0.000148901
-3.42166e-05
0.000164877
-3.1942e-05
0.000179462
-2.91701e-05
0.000192472
-2.60047e-05
0.000203597
-2.22447e-05
0.000212743
-1.82806e-05
0.000219634
-1.377e-05
0.000224232
-9.18584e-06
0.000226381
-4.29738e-06
0.000226042
6.70397e-07
0.000223271
5.5298e-06
0.000218094
1.03613e-05
0.000210539
1.51009e-05
0.000200813
1.94405e-05
0.000189163
2.32927e-05
0.000175775
2.67639e-05
0.000160828
2.98841e-05
0.000144634
3.2378e-05
0.000127352
3.45517e-05
0.00010928
3.61329e-05
9.07724e-05
3.70032e-05
7.19071e-05
3.77302e-05
5.29995e-05
3.77936e-05
3.42909e-05
3.74114e-05
1.58949e-05
3.67781e-05
-2.01531e-06
3.58122e-05
-1.9249e-05
3.44586e-05
-3.57427e-05
3.29786e-05
-5.13991e-05
3.13049e-05
-6.61435e-05
2.94849e-05
-7.99526e-05
2.76142e-05
-9.27694e-05
2.56324e-05
-0.000104586
2.36385e-05
-0.000115412
2.16527e-05
-0.000125238
1.96562e-05
-0.000134131
1.77843e-05
-0.000142051
1.58416e-05
-0.000149056
1.4012e-05
-0.000155223
1.23361e-05
-0.0001605
1.05627e-05
-0.000164935
8.87375e-06
-0.000168603
7.32937e-06
-0.000171435
5.66185e-06
-0.000173552
4.23121e-06
-0.000174926
2.74673e-06
-0.000175488
1.12388e-06
-0.000175382
-2.09767e-07
-0.000174523
-1.71777e-06
-0.000172864
-3.31416e-06
-0.000170545
-4.63652e-06
-0.000167391
-6.30845e-06
-0.000163517
-7.74718e-06
-0.00015888
-9.27021e-06
-0.000153408
-1.09396e-05
-0.000147118
-1.25796e-05
-0.000140013
-1.42095e-05
-0.000131988
-1.60554e-05
-0.000123092
-1.77962e-05
-0.000113297
-1.95926e-05
-0.000102555
-2.1489e-05
-9.0991e-05
-2.31328e-05
-7.84444e-05
-2.50945e-05
-6.5091e-05
-2.6703e-05
-5.08454e-05
-2.84943e-05
-3.59534e-05
-2.97876e-05
-2.03289e-05
-3.12415e-05
-4.15485e-06
-3.23338e-05
1.26894e-05
-3.36961e-05
2.99791e-05
-3.45707e-05
4.76635e-05
-3.5362e-05
6.55474e-05
-3.57672e-05
8.35074e-05
-3.59019e-05
0.000101335
-3.56438e-05
0.000118824
-3.49739e-05
0.000135809
-3.39565e-05
0.000152076
-3.2512e-05
0.000167302
-3.04271e-05
0.000181339
-2.80629e-05
0.000193893
-2.50975e-05
0.00020473
-2.16597e-05
0.000213655
-1.78264e-05
0.000220424
-1.3549e-05
0.000224944
-9.03032e-06
0.00022711
-4.31971e-06
0.000226862
4.89921e-07
0.000224154
5.4143e-06
0.000218982
1.03375e-05
0.000211462
1.5032e-05
0.000201705
1.95135e-05
0.000189906
2.35784e-05
0.000176237
2.73254e-05
0.000160999
3.04684e-05
0.000144435
3.31065e-05
0.000126782
3.52931e-05
0.00010843
3.66865e-05
8.96047e-05
3.76372e-05
7.05373e-05
3.81199e-05
5.15794e-05
3.78925e-05
3.28977e-05
3.73523e-05
1.46524e-05
3.64825e-05
-2.88591e-06
3.50769e-05
-1.96947e-05
3.3607e-05
-3.55221e-05
3.16372e-05
-5.03641e-05
2.96813e-05
-6.42356e-05
2.77378e-05
-7.69557e-05
2.54382e-05
-8.86197e-05
2.33157e-05
-9.91669e-05
2.10944e-05
-0.000108593
1.88641e-05
-0.000117096
1.70064e-05
-0.000124549
1.48963e-05
-0.000131079
1.30585e-05
-0.000136674
1.11927e-05
-0.000141393
9.43889e-06
-0.00014527
7.75159e-06
-0.000148316
6.09539e-06
-0.000150718
4.80313e-06
-0.000152384
3.32498e-06
-0.000153374
1.97939e-06
-0.00015373
7.10803e-07
-0.000153445
-5.69001e-07
-0.000152586
-1.71911e-06
-0.000151186
-2.7862e-06
-0.000149248
-3.88248e-06
-0.000146836
-4.82108e-06
-0.000143862
-5.95472e-06
-0.00014045
-6.82508e-06
-0.000136401
-8.09689e-06
-0.00013173
-9.34711e-06
-0.000126427
-1.06121e-05
-0.000120389
-1.20829e-05
-0.000113586
-1.36084e-05
-0.000106065
-1.50345e-05
-9.7606e-05
-1.69205e-05
-8.833e-05
-1.85463e-05
-7.81172e-05
-2.04298e-05
-6.70318e-05
-2.21614e-05
-5.4977e-05
-2.40994e-05
-4.20088e-05
-2.59323e-05
-2.80807e-05
-2.78827e-05
-1.33434e-05
-2.94438e-05
2.26213e-06
-3.12068e-05
1.86502e-05
-3.27549e-05
3.57338e-05
-3.41874e-05
5.33763e-05
-3.52603e-05
7.14617e-05
-3.61436e-05
8.97791e-05
-3.66231e-05
0.00010813
-3.66868e-05
0.000126288
-3.63108e-05
0.000144075
-3.55627e-05
0.000161259
-3.43509e-05
0.000177518
-3.24918e-05
0.000192511
-2.99756e-05
0.000206024
-2.70054e-05
0.000217803
-2.35409e-05
0.000227624
-1.9636e-05
0.000235214
-1.51698e-05
0.000240496
-1.05524e-05
0.000243365
-5.72987e-06
0.000243747
-7.65363e-07
0.000241608
4.25765e-06
0.000236978
9.25858e-06
0.000230014
1.39188e-05
0.000220807
1.84089e-05
0.000209584
2.24442e-05
0.00019657
2.60148e-05
0.000182015
2.90898e-05
0.000166097
3.18245e-05
0.000149191
3.37962e-05
0.000131502
3.536e-05
0.000113337
3.6319e-05
9.49192e-05
3.68152e-05
7.64761e-05
3.68702e-05
5.82498e-05
3.64524e-05
4.03889e-05
3.57136e-05
2.30476e-05
3.46887e-05
6.30467e-06
3.34528e-05
-9.67994e-06
3.1967e-05
-2.48483e-05
3.03329e-05
-3.91466e-05
2.85921e-05
-5.2529e-05
2.67546e-05
-6.49613e-05
2.48588e-05
-7.6431e-05
2.29381e-05
-8.69587e-05
2.10529e-05
-9.65392e-05
1.91638e-05
-0.000105161
1.7245e-05
-0.000112905
1.54756e-05
-0.000119726
1.36412e-05
-0.000125701
1.19544e-05
-0.000130785
1.0164e-05
-0.000134983
8.39058e-06
-0.000138407
6.85596e-06
-0.000141105
5.39254e-06
-0.000142966
3.71517e-06
-0.000144278
2.62986e-06
-0.000144769
9.83269e-07
-0.0001447
-1.53332e-07
-0.000144007
-1.38367e-06
-0.000142533
-2.94069e-06
-0.000140429
-4.21099e-06
-0.000137647
-5.55811e-06
-0.000134163
-6.96577e-06
-0.000130088
-8.16683e-06
-0.000125297
-9.56773e-06
-0.000119793
-1.10112e-05
-0.000113591
-1.24417e-05
-0.000106732
-1.36908e-05
-9.90873e-05
-1.52978e-05
-9.06968e-05
-1.67684e-05
-8.14864e-05
-1.84148e-05
-7.15429e-05
-1.98811e-05
-6.07455e-05
-2.16199e-05
-4.92155e-05
-2.303e-05
-3.68599e-05
-2.47172e-05
-2.37213e-05
-2.62866e-05
-9.84756e-06
-2.77147e-05
4.76154e-06
-2.92184e-05
1.99688e-05
-3.04041e-05
3.57583e-05
-3.15771e-05
5.2024e-05
-3.2526e-05
6.871e-05
-3.33533e-05
8.56693e-05
-3.39036e-05
0.000102696
-3.40467e-05
0.000119638
-3.38702e-05
0.000136329
-3.33677e-05
0.000152535
-3.24017e-05
0.000167936
-3.07822e-05
0.000182283
-2.86871e-05
0.000195439
-2.63007e-05
0.000207021
-2.31368e-05
0.000216874
-1.96948e-05
0.000224702
-1.56452e-05
0.000230339
-1.12545e-05
0.0002336
-6.51075e-06
0.000234385
-1.57454e-06
0.000232675
3.40678e-06
0.000228338
8.67434e-06
0.000221439
1.37932e-05
0.000212237
1.84e-05
0.00020076
2.29489e-05
0.000187359
2.67787e-05
0.000172195
3.03162e-05
0.000155738
3.29009e-05
0.000138248
3.49583e-05
0.000119977
3.65322e-05
0.0001013
3.73369e-05
8.26745e-05
3.72301e-05
6.43222e-05
3.66891e-05
4.62939e-05
3.60482e-05
2.88957e-05
3.47923e-05
1.24443e-05
3.28816e-05
-3.21169e-06
3.13012e-05
-1.79724e-05
2.95147e-05
-3.17595e-05
2.75674e-05
-4.4617e-05
2.57087e-05
-5.64665e-05
2.36963e-05
-6.74459e-05
2.1956e-05
-7.7549e-05
2.02054e-05
-8.67808e-05
1.84638e-05
-9.52375e-05
1.6915e-05
-0.000102945
1.54182e-05
-0.000109883
1.38799e-05
-0.000116155
1.25426e-05
-0.000121726
1.11394e-05
-0.000126653
9.85953e-06
-0.000130956
8.61375e-06
-0.000134604
7.29617e-06
-0.000137669
6.12879e-06
-0.000140128
4.91064e-06
-0.000141966
3.66988e-06
-0.000143237
2.55053e-06
-0.000143938
1.41578e-06
-0.000144005
1.39028e-07
-0.000143333
-1.34408e-06
-0.000141881
-2.90786e-06
-0.000139789
-4.17886e-06
-0.000137065
-5.44914e-06
-0.000133524
-7.09328e-06
-0.000129353
-8.34979e-06
-0.000124518
-9.67466e-06
-0.000118907
-1.12118e-05
-0.000112683
-1.24449e-05
-0.000105442
-1.44834e-05
-9.74597e-05
-1.59562e-05
-8.86528e-05
-1.76333e-05
-7.88587e-05
-1.95758e-05
-6.81369e-05
-2.14391e-05
-5.65183e-05
-2.32373e-05
-4.38412e-05
-2.53583e-05
-3.03704e-05
-2.69294e-05
-1.59468e-05
-2.88434e-05
-6.71721e-07
-3.0546e-05
1.51282e-05
-3.1596e-05
3.16088e-05
-3.29521e-05
4.85584e-05
-3.38926e-05
6.57328e-05
-3.43372e-05
8.30703e-05
-3.46651e-05
0.000100353
-3.45494e-05
0.00011746
-3.42043e-05
0.000134123
-3.3322e-05
0.000150091
-3.19234e-05
0.000165148
-3.0101e-05
0.000179148
-2.79828e-05
0.000191798
-2.52962e-05
0.00020293
-2.22531e-05
0.000212369
-1.88711e-05
0.000219975
-1.52011e-05
0.00022555
-1.11384e-05
0.000229008
-6.90939e-06
0.000230288
-2.56137e-06
0.000229401
1.76177e-06
0.000226151
6.49478e-06
0.000220722
1.08566e-05
0.000213175
1.50889e-05
0.000203568
1.92083e-05
0.000192158
2.28098e-05
0.000179113
2.60817e-05
0.00016465
2.89135e-05
0.000149048
3.11938e-05
0.000132329
3.34266e-05
0.000115009
3.46295e-05
9.70959e-05
3.58169e-05
7.89432e-05
3.62892e-05
6.0786e-05
3.63065e-05
4.27074e-05
3.61485e-05
2.49747e-05
3.54586e-05
7.74382e-06
3.44527e-05
-8.97307e-06
3.34303e-05
-2.49011e-05
3.18521e-05
-4.00202e-05
3.02341e-05
2.81919e-05
-0.000176101
-5.30643e-06
-0.000173543
-7.67892e-06
-0.000170271
-9.82461e-06
-0.000166258
-1.20542e-05
-0.000161344
-1.47427e-05
-0.000155677
-1.70018e-05
-0.000148988
-2.01001e-05
-0.000141516
-2.23918e-05
-0.000133215
-2.49118e-05
-0.000123974
-2.77222e-05
-0.000113725
-3.0751e-05
-0.000102626
-3.3295e-05
-9.03743e-05
-3.67474e-05
-7.71542e-05
-3.96716e-05
-6.29538e-05
-4.25794e-05
-4.77488e-05
-4.56071e-05
-3.18755e-05
-4.76232e-05
-1.51968e-05
-4.99913e-05
2.2827e-06
-5.23971e-05
2.02708e-05
-5.39222e-05
3.87685e-05
-5.54594e-05
5.7693e-05
-5.67308e-05
7.65705e-05
-5.65932e-05
9.54327e-05
-5.65367e-05
0.000113906
-5.53738e-05
0.000131872
-5.38372e-05
0.000149012
-5.13561e-05
0.000165008
-4.79384e-05
0.000179613
-4.37752e-05
0.000192643
-3.90348e-05
0.00020378
-3.33818e-05
0.00021294
-2.74407e-05
0.000219837
-2.06672e-05
0.00022444
-1.37893e-05
0.000226599
-6.45559e-06
0.000226241
1.02815e-06
0.000223448
8.32287e-06
0.000218275
1.55339e-05
0.000210707
2.26692e-05
0.000200966
2.91808e-05
0.000189302
3.49572e-05
0.000175893
4.01727e-05
0.00016093
4.48468e-05
0.000144718
4.85908e-05
0.000127412
5.18576e-05
0.000109324
5.42205e-05
9.07899e-05
5.55373e-05
7.1916e-05
5.66041e-05
5.29834e-05
5.67262e-05
3.42673e-05
5.61275e-05
1.58432e-05
5.52022e-05
-2.07053e-06
5.3726e-05
-1.93144e-05
5.17024e-05
-3.58172e-05
4.94815e-05
-5.14742e-05
4.69618e-05
-6.62193e-05
4.42301e-05
-8.00292e-05
4.14241e-05
-9.28424e-05
3.84456e-05
-0.000104655
3.54509e-05
-0.00011548
3.24779e-05
-0.000125303
2.94795e-05
-0.000134191
2.66721e-05
-0.000142105
2.37556e-05
-0.000149108
2.10152e-05
-0.000155275
1.85033e-05
-0.000160547
1.58348e-05
-0.000164972
1.32988e-05
-0.000168621
1.09783e-05
-0.000171442
8.48209e-06
-0.000173566
6.35572e-06
-0.000174938
4.11833e-06
-0.0001755
1.68611e-06
-0.00017541
-3.0016e-07
-0.000174562
-2.5657e-06
-0.000172902
-4.97405e-06
-0.000170582
-6.95665e-06
-0.000167423
-9.46679e-06
-0.000163541
-1.16294e-05
-0.000158906
-1.39057e-05
-0.000153436
-1.64088e-05
-0.000147144
-1.88722e-05
-0.000140037
-2.1317e-05
-0.000132016
-2.40764e-05
-0.00012312
-2.66922e-05
-0.000113328
-2.93841e-05
-0.000102591
-3.22265e-05
-9.10337e-05
-3.46899e-05
-7.84942e-05
-3.7634e-05
-6.51392e-05
-4.00581e-05
-5.08961e-05
-4.27374e-05
-3.601e-05
-4.46737e-05
-2.03885e-05
-4.68631e-05
-4.20136e-06
-4.8521e-05
1.26472e-05
-5.05447e-05
2.99449e-05
-5.18685e-05
4.76361e-05
-5.30533e-05
6.55198e-05
-5.3651e-05
8.34902e-05
-5.38724e-05
0.000101338
-5.34912e-05
0.000118832
-5.24679e-05
0.00013583
-5.09554e-05
0.000152115
-4.87969e-05
0.000167363
-4.56746e-05
0.000181437
-4.2137e-05
0.00019401
-3.76707e-05
0.000204859
-3.2509e-05
0.000213807
-2.67745e-05
0.000220586
-2.03277e-05
0.000225109
-1.3554e-05
0.00022728
-6.49044e-06
0.00022702
7.50138e-07
0.000224316
8.11792e-06
0.000219131
1.55228e-05
0.000211597
2.25653e-05
0.000201861
2.92499e-05
0.00019001
3.54292e-05
0.000176326
4.10095e-05
0.000161101
4.56926e-05
0.000144466
4.97417e-05
0.000126793
5.29661e-05
0.000108412
5.50677e-05
8.95548e-05
5.64943e-05
7.04939e-05
5.71808e-05
5.15158e-05
5.68706e-05
3.28187e-05
5.60494e-05
1.45527e-05
5.47485e-05
-2.99605e-06
5.26257e-05
-1.98044e-05
5.04153e-05
-3.56416e-05
4.74743e-05
-5.04822e-05
4.45219e-05
-6.43629e-05
4.16185e-05
-7.70966e-05
3.81719e-05
-8.87626e-05
3.49817e-05
-9.92981e-05
3.16299e-05
-0.000108715
2.82809e-05
-0.000117208
2.54998e-05
-0.000124668
2.23558e-05
-0.000131201
1.95913e-05
-0.000136795
1.67869e-05
-0.000141503
1.41472e-05
-0.00014538
1.16283e-05
-0.000148417
9.13243e-06
-0.000150816
7.20227e-06
-0.000152488
4.99673e-06
-0.000153479
2.97052e-06
-0.00015383
1.062e-06
-0.00015353
-8.68993e-07
-0.000152666
-2.58289e-06
-0.000151273
-4.17924e-06
-0.000149335
-5.82062e-06
-0.000146922
-7.2342e-06
-0.000143954
-8.92321e-06
-0.000140537
-1.02414e-05
-0.000136497
-1.21372e-05
-0.000131832
-1.40124e-05
-0.000126524
-1.59201e-05
-0.000120491
-1.81156e-05
-0.000113692
-2.04075e-05
-0.000106187
-2.25401e-05
-9.77206e-05
-2.53865e-05
-8.84508e-05
-2.78162e-05
-7.82416e-05
-3.0639e-05
-6.71427e-05
-3.32603e-05
-5.50749e-05
-3.61672e-05
-4.2103e-05
-3.89043e-05
-2.8208e-05
-4.17777e-05
-1.3441e-05
-4.42108e-05
2.17708e-06
-4.68249e-05
1.85763e-05
-4.91542e-05
3.56541e-05
-5.12652e-05
5.33055e-05
-5.29118e-05
7.14159e-05
-5.42541e-05
8.97438e-05
-5.4951e-05
0.000108121
-5.50644e-05
0.000126298
-5.44872e-05
0.000144091
-5.33564e-05
0.000161305
-5.15649e-05
0.000177557
-4.87435e-05
0.000192598
-4.50163e-05
0.000206143
-4.05509e-05
0.000217935
-3.53326e-05
0.00022778
-2.94809e-05
0.000235376
-2.27657e-05
0.000240658
-1.58353e-05
0.000243532
-8.60393e-06
0.000243918
-1.15133e-06
0.000241756
6.41972e-06
0.000237119
1.38961e-05
0.000230136
2.09015e-05
0.00022092
2.76245e-05
0.000209684
3.36807e-05
0.000196654
3.90444e-05
0.000182068
4.36763e-05
0.000166134
4.77578e-05
0.000149213
5.07181e-05
0.000131505
5.30673e-05
0.000113316
5.45079e-05
9.48852e-05
5.52464e-05
7.64173e-05
5.53381e-05
5.81753e-05
5.46943e-05
4.03054e-05
5.35835e-05
2.29763e-05
5.20178e-05
6.19957e-06
5.02295e-05
-9.78949e-06
4.79561e-05
-2.49663e-05
4.55097e-05
-3.92573e-05
4.2883e-05
-5.26442e-05
4.01415e-05
-6.50814e-05
3.7296e-05
-7.65511e-05
3.44078e-05
-8.70827e-05
3.15844e-05
-9.66534e-05
2.87345e-05
-0.000105265
2.58568e-05
-0.000113009
2.3219e-05
-0.000119851
2.04834e-05
-0.000125831
1.79344e-05
-0.000130902
1.52351e-05
-0.000135085
1.25741e-05
-0.000138519
1.02893e-05
-0.000141219
8.09333e-06
-0.000143069
5.56429e-06
-0.000144382
3.9432e-06
-0.000144861
1.46264e-06
-0.000144797
-2.17997e-07
-0.000144102
-2.07826e-06
-0.000142634
-4.40859e-06
-0.000140532
-6.3129e-06
-0.000137734
-8.35666e-06
-0.000134263
-1.04366e-05
-0.000130189
-1.22403e-05
-0.000125397
-1.43606e-05
-0.000119901
-1.65068e-05
-0.000113713
-1.86293e-05
-0.000106832
-2.05724e-05
-9.92042e-05
-2.29253e-05
-9.0816e-05
-2.51566e-05
-8.15982e-05
-2.76326e-05
-7.1646e-05
-2.98333e-05
-6.08543e-05
-3.24116e-05
-4.93053e-05
-3.4579e-05
-3.69431e-05
-3.70794e-05
-2.38219e-05
-3.94078e-05
-9.92434e-06
-4.16123e-05
4.69219e-06
-4.38349e-05
1.99058e-05
-4.56178e-05
3.57045e-05
-4.73758e-05
5.1964e-05
-4.87856e-05
6.86567e-05
-5.00461e-05
8.56426e-05
-5.08895e-05
0.000102676
-5.108e-05
0.000119631
-5.08259e-05
0.000136342
-5.00784e-05
0.000152563
-4.86225e-05
0.000167988
-4.62074e-05
0.000182361
-4.30601e-05
0.000195525
-3.94648e-05
0.000207174
-3.47854e-05
0.000217014
-2.95352e-05
0.000224855
-2.34859e-05
0.000230502
-1.6902e-05
0.000233778
-9.78613e-06
0.000234582
-2.37861e-06
0.000232827
5.16108e-06
0.000228485
1.30169e-05
0.00022159
2.06882e-05
0.000212393
2.7597e-05
0.000200895
3.44463e-05
0.000187466
4.02075e-05
0.0001723
4.54827e-05
0.000155811
4.93895e-05
0.00013829
5.24798e-05
0.000120016
5.48058e-05
0.000101318
5.6035e-05
8.26688e-05
5.58795e-05
6.42881e-05
5.50698e-05
4.62598e-05
5.40765e-05
2.88576e-05
5.21945e-05
1.23742e-05
4.9365e-05
-3.29412e-06
4.69695e-05
-1.80658e-05
4.42864e-05
-3.18639e-05
4.13656e-05
-4.47279e-05
3.85726e-05
-5.6578e-05
3.55465e-05
-6.75601e-05
3.29381e-05
-7.76617e-05
3.0307e-05
-8.68898e-05
2.76919e-05
-9.53445e-05
2.53697e-05
-0.000103049
2.31231e-05
-0.000109988
2.08181e-05
-0.000116257
1.88114e-05
-0.00012182
1.67029e-05
-0.000126742
1.47819e-05
-0.000131045
1.29159e-05
-0.000134697
1.09482e-05
-0.000137762
9.19394e-06
-0.000140219
7.36753e-06
-0.00014206
5.5115e-06
-0.000143338
3.82785e-06
-0.000144013
2.0915e-06
-0.000144062
1.87946e-07
-0.000143384
-2.02227e-06
-0.000141933
-4.35868e-06
-0.000139832
-6.28025e-06
-0.000137113
-8.16787e-06
-0.000133581
-1.06257e-05
-0.000129423
-1.25072e-05
-0.000124629
-1.44691e-05
-0.000118991
-1.68494e-05
-0.000112753
-1.86828e-05
-0.00010552
-2.17165e-05
-9.75282e-05
-2.39484e-05
-8.87573e-05
-2.64042e-05
-7.89364e-05
-2.93968e-05
-6.82171e-05
-3.21585e-05
-5.6598e-05
-3.48563e-05
-4.39384e-05
-3.8018e-05
-3.04402e-05
-4.04276e-05
-1.6011e-05
-4.32727e-05
-7.26968e-07
-4.583e-05
1.50816e-05
-4.74045e-05
3.15759e-05
-4.94465e-05
4.8543e-05
-5.08597e-05
6.57294e-05
-5.15236e-05
8.30852e-05
-5.20209e-05
0.000100383
-5.18473e-05
0.000117512
-5.13336e-05
0.000134198
-5.00077e-05
0.000150189
-4.79142e-05
0.000165266
-4.51787e-05
0.000179292
-4.20082e-05
0.000191959
-3.79638e-05
0.000203113
-3.34069e-05
0.000212561
-2.83196e-05
0.000220184
-2.28237e-05
0.000225777
-1.67313e-05
0.000229248
-1.03807e-05
0.000230528
-3.84177e-06
0.000229598
2.6924e-06
0.000226319
9.77318e-06
0.000220887
1.6289e-05
0.000213329
2.26467e-05
0.000203712
2.88253e-05
0.000192286
3.42354e-05
0.000179227
3.91411e-05
0.000164746
4.33948e-05
0.000149126
4.68136e-05
0.00013239
5.01626e-05
0.000115049
5.197e-05
9.71254e-05
5.37407e-05
7.89437e-05
5.44709e-05
6.07739e-05
5.44763e-05
4.2682e-05
5.42403e-05
2.49398e-05
5.32008e-05
7.69234e-06
5.17001e-05
-9.03391e-06
5.01565e-05
-2.49695e-05
4.77876e-05
-4.00954e-05
4.53601e-05
4.22932e-05
-0.000176187
-7.07252e-06
-0.000173631
-1.02358e-05
-0.00017036
-1.30955e-05
-0.000166355
-1.60586e-05
-0.00016144
-1.96576e-05
-0.000155775
-2.26677e-05
-0.0001491
-2.67751e-05
-0.000141619
-2.9873e-05
-0.000133323
-3.32071e-05
-0.000124084
-3.69617e-05
-0.000113832
-4.10026e-05
-0.000102741
-4.43866e-05
-9.04778e-05
-4.90104e-05
-7.72777e-05
-5.28718e-05
-6.3052e-05
-5.68051e-05
-4.78453e-05
-6.0814e-05
-3.19814e-05
-6.34871e-05
-1.52659e-05
-6.6707e-05
2.23863e-06
-6.99017e-05
2.02511e-05
-7.19347e-05
3.87735e-05
-7.39819e-05
5.77182e-05
-7.56755e-05
7.66203e-05
-7.54954e-05
9.5509e-05
-7.54255e-05
0.000114011
-7.38761e-05
0.000132008
-7.18344e-05
0.000149179
-6.85271e-05
0.000165203
-6.39624e-05
0.000179839
-5.84111e-05
0.000192898
-5.20937e-05
0.000204055
-4.45392e-05
0.000213237
-3.66224e-05
0.000220148
-2.75778e-05
0.000224767
-1.84084e-05
0.000226924
-8.61327e-06
0.000226535
1.41719e-06
0.000223714
1.11437e-05
0.000218541
2.0707e-05
0.000210945
3.0265e-05
0.000201196
3.89305e-05
0.00018951
4.6643e-05
0.00017607
5.36129e-05
0.000161084
5.98327e-05
0.000144842
6.48326e-05
0.000127501
6.91984e-05
0.000109392
7.23297e-05
9.08163e-05
7.41129e-05
7.19237e-05
7.54966e-05
5.29584e-05
7.56915e-05
3.42319e-05
7.4854e-05
1.57676e-05
7.36664e-05
-2.15562e-06
7.16492e-05
-1.94147e-05
6.89615e-05
-3.59293e-05
6.59961e-05
-5.15886e-05
6.26212e-05
-6.6336e-05
5.89774e-05
-8.01446e-05
5.52328e-05
-9.29529e-05
5.12538e-05
-0.00010476
4.72581e-05
-0.000115581
4.32985e-05
-0.000125392
3.9291e-05
-0.000134274
3.55541e-05
-0.000142179
3.16603e-05
-0.000149168
2.8004e-05
-0.000155328
2.46636e-05
-0.000160587
2.10939e-05
-0.000165006
1.77174e-05
-0.000168654
1.46266e-05
-0.000171456
1.12837e-05
-0.000173568
8.46768e-06
-0.000174948
5.49909e-06
-0.000175533
2.27108e-06
-0.000175462
-3.71737e-07
-0.00017462
-3.40694e-06
-0.000172957
-6.63776e-06
-0.000170637
-9.27641e-06
-0.000167471
-1.26333e-05
-0.000163576
-1.55239e-05
-0.000158948
-1.85334e-05
-0.000153475
-2.18821e-05
-0.000147174
-2.51734e-05
-0.000140071
-2.84194e-05
-0.000132062
-3.20855e-05
-0.000123158
-3.55968e-05
-0.000113371
-3.91708e-05
-0.000102645
-4.29529e-05
-9.10955e-05
-4.62391e-05
-7.85747e-05
-5.01549e-05
-6.52184e-05
-5.34144e-05
-5.09761e-05
-5.69797e-05
-3.60931e-05
-5.95568e-05
-2.048e-05
-6.24762e-05
-4.2885e-06
-6.47126e-05
1.25741e-05
-6.74074e-05
2.9887e-05
-6.91814e-05
4.75868e-05
-7.07532e-05
6.54831e-05
-7.15474e-05
8.34873e-05
-7.18768e-05
0.000101349
-7.13534e-05
0.00011884
-6.99591e-05
0.000135867
-6.7982e-05
0.000152185
-6.51146e-05
0.000167458
-6.09483e-05
0.000181591
-5.62695e-05
0.000194187