/*--------------------------------*- C++ -*----------------------------------*\
| =========                 |                                                 |
| \\      /  F ield         | OpenFOAM: The Open Source CFD Toolbox           |
|  \\    /   O peration     | Version:  3.0.1                                 |
|   \\  /    A nd           | Web:      www.OpenFOAM.org                      |
|    \\/     M anipulation  |                                                 |
\*---------------------------------------------------------------------------*/
FoamFile
{
    version     2.0;
    format      ascii;
    class       volScalarField;
    location    "66.2";
    object      p_rgh;
}
// * * * * * * * * * * * * * * * * * * * * * * * * * * * * * * * * * * * * * //

dimensions      [1 -1 -2 0 0 0 0];

internalField   nonuniform List<scalar> 
21420
(
6.36031
-1.24427
-25.9394
-52.6432
-78.7998
-103.811
-127.383
-149.403
-169.8
-188.555
-205.685
-221.209
-235.163
-247.59
-258.53
-268.027
-276.117
-282.837
-288.216
-292.279
-295.038
-296.474
-296.6
-295.455
-292.963
-289.107
-283.841
-277.121
-268.9
-259.123
-247.729
-234.665
-219.879
-203.327
-184.975
-164.79
-142.784
-118.988
-93.4387
-66.2308
-37.4936
-7.38542
23.7893
55.9912
88.941
122.296
155.712
188.866
221.371
252.83
282.887
311.164
337.304
360.971
381.851
399.679
414.231
425.309
432.764
436.47
435.84
431.4
423.215
411.375
396.074
377.489
355.866
331.476
304.645
275.72
245.051
213.01
179.981
146.341
112.444
78.6611
45.4007
13.9077
-17.6045
-48.0901
-77.2515
-104.911
-130.934
-155.218
-177.696
-198.32
-217.057
-233.897
-248.84
-261.9
-273.107
-282.5
-290.125
-296.034
-300.312
-302.993
-304.095
-303.747
-301.954
-298.736
-294.105
-288.067
-280.603
-271.688
-261.292
-249.386
-235.936
-220.91
-204.282
-186.039
-166.175
-144.699
-121.638
-97.0346
-70.9566
-43.4959
-14.7678
15.1033
45.9125
77.452
109.493
141.767
173.969
205.769
236.807
266.705
295.072
321.505
345.614
367.023
385.377
400.36
411.7
419.181
422.582
421.909
417.077
408.155
395.213
378.454
358.116
334.491
307.928
278.814
247.574
214.657
180.523
145.641
110.466
75.4394
40.9701
7.40956
-24.9288
-55.7892
-84.9752
-112.342
-137.795
-161.281
-182.782
-202.309
-219.894
-235.591
-249.461
-261.578
-272.014
-280.847
-288.15
-293.988
-298.421
-301.516
-303.285
-303.731
-302.932
-300.866
-297.525
-292.894
-286.958
-279.691
-271.054
-261.014
-249.538
-236.584
-222.109
-206.073
-188.437
-169.177
-148.275
-125.731
-101.571
-75.8409
-48.6238
-20.0393
9.74971
40.5494
72.1283
104.156
136.345
168.363
199.849
230.424
259.689
287.237
312.658
335.553
355.54
372.271
385.44
394.795
400.154
401.318
398.369
391.289
380.133
365.108
346.453
324.466
299.503
271.959
242.264
210.866
178.223
144.791
111.01
77.2928
44.0207
11.5317
-19.8812
-49.9739
-78.552
-105.468
-130.621
-153.949
-175.421
-195.036
-212.818
-228.805
-243.045
-255.601
-266.54
-275.927
-283.827
-290.302
-295.406
-299.189
-301.701
-302.974
-303.017
-301.914
-299.651
-296.231
-291.638
-285.844
-278.802
-270.471
-260.807
-249.764
-237.303
-223.393
-208.005
-191.116
-172.706
-152.77
-131.313
-108.359
-83.9501
-58.1567
-31.0825
-2.867
26.3218
56.2905
87.399
118.308
149.201
179.739
209.587
238.349
265.653
291.094
314.288
334.847
352.394
366.614
377.223
383.959
386.642
385.176
379.597
369.901
356.238
338.8
317.905
293.909
267.246
238.381
207.785
175.957
143.364
110.455
77.6163
45.299
15.9324
-14.0637
-42.8166
-70.0956
-95.7644
-119.735
-141.976
-162.494
-181.324
-198.53
-214.186
-228.378
-241.193
-252.71
-262.998
-272.114
-280.093
-286.954
-292.694
-297.293
-300.718
-302.909
-303.782
-303.279
-301.343
-297.841
-292.72
-285.928
-277.388
-267.055
-254.903
-240.907
-225.061
-207.394
-187.949
-166.79
-144.008
-119.709
-94.0359
-67.1635
-39.2717
-10.5661
19.0131
48.6998
78.4018
107.877
136.854
165.008
192.027
217.637
241.529
263.439
283.095
300.26
314.736
326.307
334.775
6.26109
-1.24996
-25.9938
-52.7117
-78.8741
-103.888
-127.46
-149.479
-169.874
-188.627
-205.754
-221.276
-235.227
-247.651
-258.589
-268.084
-276.173
-282.89
-288.268
-292.33
-295.089
-296.524
-296.652
-295.508
-293.017
-289.163
-283.898
-277.181
-268.963
-259.189
-247.798
-234.737
-219.954
-203.404
-185.055
-164.872
-142.867
-119.07
-93.5196
-66.309
-37.5677
-7.45386
23.7269
55.9376
88.8983
122.266
155.695
188.864
221.386
252.861
282.935
311.229
337.385
361.068
381.961
399.801
414.363
425.449
432.911
436.627
435.984
431.54
423.351
411.505
396.194
377.596
355.958
331.553
304.705
275.764
245.078
213.019
179.975
146.32
112.41
78.6116
45.3322
13.8555
-17.6726
-48.1668
-77.3333
-104.996
-131.021
-155.306
-177.784
-198.408
-217.144
-233.982
-248.924
-261.983
-273.187
-282.578
-290.201
-296.108
-300.383
-303.059
-304.162
-303.812
-302.018
-298.8
-294.17
-288.132
-280.67
-271.756
-261.363
-249.459
-236.011
-220.986
-204.361
-186.119
-166.256
-144.781
-121.719
-97.1147
-71.0347
-43.571
-14.8386
15.0371
45.8532
77.4012
109.452
141.737
173.953
205.767
236.821
266.736
295.12
321.572
345.699
367.124
385.494
400.49
411.841
419.33
422.742
422.06
417.226
408.298
395.347
378.576
358.222
334.58
307.998
278.864
247.604
214.667
180.514
145.613
110.422
75.3807
40.8992
7.3285
-25.0176
-55.8833
-85.0726
-112.441
-137.894
-161.378
-182.878
-202.401
-219.983
-235.676
-249.543
-261.655
-272.088
-280.918
-288.217
-294.053
-298.484
-301.577
-303.342
-303.79
-302.991
-300.924
-297.584
-292.954
-287.019
-279.754
-271.119
-261.081
-249.607
-236.655
-222.184
-206.149
-188.516
-169.257
-148.356
-125.813
-101.652
-75.9208
-48.701
-20.1119
9.68343
40.4911
72.0796
104.119
136.321
168.354
199.856
230.447
259.73
287.296
312.736
335.649
355.653
372.399
385.579
394.944
400.311
401.477
398.522
391.437
380.273
365.236
346.565
324.561
299.579
272.016
242.3
210.883
178.221
144.772
110.975
77.2436
43.9596
11.4608
-19.9597
-50.0579
-78.6397
-105.558
-130.711
-154.039
-175.509
-195.122
-212.901
-228.885
-243.121
-255.675
-266.611
-275.994
-283.892
-290.364
-295.466
-299.247
-301.757
-303.024
-303.071
-301.967
-299.704
-296.285
-291.693
-285.9
-278.861
-270.532
-260.871
-249.829
-237.37
-223.462
-208.076
-191.188
-172.78
-152.844
-131.388
-108.433
-84.0224
-58.2263
-31.1479
-2.92604
26.2702
56.2491
87.3607
118.283
149.189
179.743
209.606
238.384
265.706
291.164
314.375
334.951
352.514
366.749
377.369
384.114
386.804
385.345
379.755
370.052
356.38
338.928
318.016
293.999
267.315
238.428
207.811
175.962
143.352
110.427
77.5756
45.2512
15.862
-14.1382
-42.8946
-70.1757
-95.845
-119.815
-142.053
-162.568
-181.394
-198.596
-214.248
-228.436
-241.247
-252.76
-263.046
-272.16
-280.138
-286.999
-292.739
-297.34
-300.766
-302.96
-303.834
-303.337
-301.403
-297.904
-292.786
-285.997
-277.46
-267.129
-254.979
-240.984
-225.139
-207.472
-188.026
-166.865
-144.08
-119.778
-94.0994
-67.2208
-39.3218
-10.6075
18.9786
48.6754
78.3886
107.875
136.865
165.032
192.065
217.688
241.594
263.516
283.184
300.36
314.845
326.423
334.897
6.06722
-1.26479
-26.1036
-52.8491
-79.0229
-104.041
-127.614
-149.631
-170.023
-188.771
-205.893
-221.409
-235.355
-247.775
-258.708
-268.198
-276.283
-282.997
-288.373
-292.433
-295.191
-296.624
-296.758
-295.613
-293.124
-289.274
-284.014
-277.302
-269.089
-259.321
-247.935
-234.881
-220.104
-203.559
-185.215
-165.035
-143.031
-119.234
-93.6812
-66.4653
-37.7156
-7.59034
23.6023
55.8307
88.8131
122.206
155.663
188.862
221.415
252.924
283.032
311.359
337.547
361.26
382.181
400.045
414.628
425.73
433.204
436.944
436.271
431.823
423.626
411.766
396.434
377.811
356.144
331.708
304.827
275.852
245.133
213.041
179.966
146.283
112.345
78.5167
45.2003
13.7561
-17.803
-48.3135
-77.4896
-105.158
-131.186
-155.472
-177.95
-198.573
-217.306
-234.141
-249.079
-262.133
-273.333
-282.719
-290.337
-296.24
-300.51
-303.176
-304.28
-303.927
-302.131
-298.912
-294.283
-288.248
-280.788
-271.877
-261.488
-249.588
-236.144
-221.124
-204.501
-186.263
-166.402
-144.927
-121.865
-97.2588
-71.175
-43.7052
-14.9644
14.9208
45.7505
77.3154
109.386
141.694
173.935
205.779
236.865
266.814
295.233
321.721
345.884
367.343
385.744
400.766
412.138
419.642
423.077
422.374
417.541
408.6
395.631
378.834
358.449
334.773
308.153
278.98
247.679
214.702
180.511
145.574
110.35
75.2789
40.7732
7.18218
-25.1792
-56.0554
-85.251
-112.622
-138.074
-161.556
-183.051
-202.568
-220.144
-235.829
-249.688
-261.793
-272.218
-281.041
-288.334
-294.165
-298.592
-301.682
-303.441
-303.892
-303.092
-301.026
-297.687
-293.059
-287.127
-279.865
-271.234
-261.2
-249.73
-236.784
-222.317
-206.287
-188.658
-169.403
-148.505
-125.963
-101.801
-76.0662
-48.8409
-20.243
9.56505
40.3885
71.9964
104.059
136.287
168.349
199.882
230.508
259.827
287.43
312.906
335.854
355.891
372.667
385.872
395.255
400.631
401.811
398.841
391.746
380.565
365.503
346.802
324.763
299.744
272.141
242.386
210.928
178.229
144.745
110.916
77.1574
43.8498
11.3317
-20.1038
-50.2131
-78.802
-105.724
-130.879
-154.205
-175.672
-195.28
-213.054
-229.031
-243.261
-255.808
-266.737
-276.115
-284.007
-290.474
-295.571
-299.348
-301.856
-303.116
-303.164
-302.058
-299.796
-296.378
-291.789
-286
-278.965
-270.641
-260.984
-249.946
-237.491
-223.587
-208.205
-191.32
-172.914
-152.98
-131.525
-108.569
-84.1558
-58.3547
-31.2684
-3.03437
26.1765
56.175
87.2922
118.24
149.174
179.757
209.65
238.461
265.816
291.308
314.554
335.162
352.757
367.02
377.664
384.427
387.129
385.687
380.071
370.356
356.665
339.186
318.238
294.181
267.454
238.523
207.863
175.974
143.328
110.372
77.4944
45.1559
15.7211
-14.2872
-43.0506
-70.3359
-96.0063
-119.975
-142.208
-162.717
-181.536
-198.729
-214.372
-228.552
-241.355
-252.862
-263.142
-272.253
-280.229
-287.089
-292.83
-297.433
-300.863
-303.062
-303.94
-303.453
-301.524
-298.031
-292.919
-286.136
-277.604
-267.278
-255.131
-241.139
-225.295
-207.627
-188.18
-167.015
-144.225
-119.915
-94.2262
-67.3355
-39.422
-10.6901
18.9094
48.6263
78.3623
107.873
136.889
165.082
192.142
217.792
241.723
263.671
283.363
300.56
315.063
326.657
335.142
5.7885
-1.29632
-26.2708
-53.0558
-79.2464
-104.271
-127.845
-149.859
-170.246
-188.987
-206.101
-221.61
-235.548
-247.959
-258.885
-268.369
-276.448
-283.158
-288.53
-292.587
-295.343
-296.776
-296.916
-295.771
-293.286
-289.441
-284.187
-277.482
-269.278
-259.519
-248.142
-235.097
-220.328
-203.791
-185.454
-165.279
-143.278
-119.481
-93.9238
-66.7
-37.9376
-7.7953
23.415
55.6701
88.6852
122.115
155.614
188.858
221.46
253.018
283.177
311.554
337.791
361.55
382.512
400.412
415.025
426.15
433.643
437.411
436.708
432.25
424.038
412.157
396.794
378.133
356.423
331.94
305.01
275.985
245.215
213.074
179.953
146.226
112.247
78.3752
45.0025
13.607
-17.9992
-48.5338
-77.7239
-105.4
-131.433
-155.721
-178.198
-198.819
-217.548
-234.378
-249.311
-262.358
-273.552
-282.931
-290.54
-296.436
-300.699
-303.352
-304.456
-304.098
-302.299
-299.079
-294.451
-288.419
-280.963
-272.057
-261.674
-249.78
-236.342
-221.327
-204.71
-186.476
-166.618
-145.145
-122.082
-97.4729
-71.3834
-43.9046
-15.1511
14.7485
45.5988
77.189
109.289
141.631
173.912
205.799
236.933
266.934
295.406
321.948
346.164
367.674
386.121
401.184
412.588
420.114
423.577
422.855
418.018
409.057
396.059
379.224
358.793
335.064
308.388
279.156
247.795
214.759
180.51
145.518
110.244
75.1285
40.5864
6.96487
-25.4194
-56.3115
-85.5165
-112.891
-138.343
-161.821
-183.309
-202.818
-220.383
-236.058
-249.905
-261.998
-272.412
-281.225
-288.509
-294.332
-298.753
-301.837
-303.589
-304.043
-303.241
-301.176
-297.838
-293.214
-287.287
-280.029
-271.403
-261.377
-249.914
-236.974
-222.514
-206.492
-188.87
-169.62
-148.726
-126.185
-102.022
-76.2827
-49.049
-20.4378
9.38912
40.2364
71.8739
103.971
136.239
168.343
199.925
230.601
259.974
287.632
313.164
336.165
356.252
373.071
386.313
395.724
401.113
402.314
399.325
392.213
381.006
365.907
347.16
325.069
299.993
272.331
242.516
210.999
178.243
144.707
110.831
77.0301
43.687
11.1398
-20.3183
-50.444
-79.0437
-105.971
-131.128
-154.452
-175.914
-195.516
-213.281
-229.249
-243.469
-256.006
-266.925
-276.294
-284.177
-290.637
-295.727
-299.499
-302.001
-303.255
-303.302
-302.194
-299.932
-296.516
-291.932
-286.148
-279.119
-270.802
-261.152
-250.121
-237.671
-223.774
-208.397
-191.517
-173.115
-153.184
-131.73
-108.772
-84.355
-58.5464
-31.4483
-3.19647
26.0365
56.064
87.1898
118.176
149.151
179.779
209.717
238.577
265.981
291.526
314.823
335.48
353.121
367.427
378.106
384.896
387.617
386.192
380.552
370.817
357.093
339.573
318.571
294.453
267.661
238.664
207.94
175.991
143.291
110.288
77.3719
45.0122
15.5098
-14.5107
-43.2848
-70.5764
-96.2484
-120.214
-142.441
-162.94
-181.748
-198.928
-214.558
-228.725
-241.517
-253.013
-263.286
-272.391
-280.364
-287.223
-292.967
-297.573
-301.007
-303.214
-304.099
-303.626
-301.704
-298.22
-293.118
-286.343
-277.82
-267.501
-255.36
-241.371
-225.529
-207.861
-188.41
-167.24
-144.442
-120.12
-94.4167
-67.5077
-39.5725
-10.8144
18.8055
48.5528
78.3227
107.87
136.923
165.156
192.256
217.947
241.918
263.904
283.63
300.859
315.39
327.007
335.509
5.44116
-1.35771
-26.4982
-53.3327
-79.5449
-104.579
-128.153
-150.164
-170.543
-189.275
-206.379
-221.877
-235.804
-248.206
-259.122
-268.597
-276.669
-283.373
-288.739
-292.792
-295.545
-296.98
-297.125
-295.981
-293.501
-289.663
-284.417
-277.723
-269.53
-259.782
-248.418
-235.384
-220.628
-204.102
-185.774
-165.605
-143.607
-119.809
-94.2475
-67.0131
-38.2341
-8.06907
23.1648
55.4557
88.5143
121.994
155.548
188.852
221.519
253.144
283.37
311.814
338.116
361.935
382.953
400.902
415.555
426.711
434.227
438.015
437.304
432.825
424.589
412.68
397.275
378.562
356.794
332.25
305.254
276.161
245.324
213.117
179.935
146.151
112.116
78.1872
44.7381
13.408
-18.2624
-48.8284
-78.037
-105.724
-131.763
-156.053
-178.53
-199.147
-217.871
-234.695
-249.621
-262.659
-273.843
-283.212
-290.811
-296.698
-300.949
-303.588
-304.689
-304.326
-302.522
-299.301
-294.675
-288.646
-281.195
-272.296
-261.921
-250.036
-236.606
-221.599
-204.989
-186.761
-166.907
-145.435
-122.371
-97.7578
-71.661
-44.1705
-15.3998
14.5193
45.3971
77.0208
109.16
141.548
173.881
205.827
237.025
267.094
295.637
322.252
346.539
368.116
386.625
401.741
413.189
420.743
424.229
423.509
418.659
409.669
396.633
379.746
359.253
335.455
308.703
279.391
247.951
214.834
180.507
145.443
110.102
74.9279
40.3374
6.67512
-25.7396
-56.653
-85.8704
-113.25
-138.702
-162.174
-183.653
-203.15
-220.702
-236.361
-250.193
-262.271
-272.67
-281.469
-288.74
-294.554
-298.967
-302.043
-303.788
-304.243
-303.44
-301.376
-298.04
-293.421
-287.5
-280.248
-271.629
-261.612
-250.158
-237.228
-222.778
-206.765
-189.152
-169.909
-149.02
-126.482
-102.317
-76.5715
-49.3262
-20.6974
9.15403
40.0337
71.7112
103.854
136.174
168.337
199.982
230.726
260.171
287.902
313.508
336.581
356.734
373.612
386.903
396.35
401.759
402.978
399.976
392.838
381.595
366.446
347.638
325.478
300.327
272.585
242.689
211.094
178.263
144.656
110.716
76.8603
43.4699
10.8839
-20.6044
-50.752
-79.366
-106.301
-131.46
-154.781
-176.237
-195.83
-213.584
-229.539
-243.746
-256.27
-267.176
-276.532
-284.404
-290.854
-295.935
-299.699
-302.193
-303.444
-303.486
-302.376
-300.113
-296.7
-292.122
-286.344
-279.324
-271.017
-261.375
-250.352
-237.912
-224.022
-208.652
-191.779
-173.383
-153.455
-132.002
-109.043
-84.6206
-58.8021
-31.6885
-3.41334
25.8495
55.915
87.0531
118.092
149.121
179.807
209.805
238.73
266.202
291.815
315.181
335.903
353.608
367.971
378.697
385.522
388.267
386.85
381.201
371.436
357.665
340.089
319.015
294.816
267.938
238.853
208.042
176.013
143.242
110.175
77.2082
44.8189
15.2284
-14.8089
-43.5973
-70.8973
-96.5716
-120.534
-142.752
-163.239
-182.03
-199.194
-214.806
-228.956
-241.732
-253.216
-263.478
-272.575
-280.544
-287.403
-293.148
-297.76
-301.201
-303.416
-304.313
-303.857
-301.945
-298.473
-293.383
-286.621
-278.108
-267.798
-255.665
-241.681
-225.841
-208.172
-188.718
-167.541
-144.732
-120.394
-94.6709
-67.7376
-39.7734
-10.9809
18.6668
48.4547
78.2698
107.865
136.97
165.255
192.409
218.154
242.178
264.214
283.988
301.259
315.827
327.475
335.999
5.04983
-1.47003
-26.7893
-53.6806
-79.9189
-104.963
-128.539
-150.544
-170.915
-189.635
-206.726
-222.211
-236.125
-248.514
-259.418
-268.883
-276.945
-283.64
-289.001
-293.049
-295.798
-297.235
-297.386
-296.244
-293.77
-289.941
-284.705
-278.024
-269.845
-260.112
-248.762
-235.744
-221.002
-204.49
-186.173
-166.013
-144.019
-120.22
-94.6527
-67.4051
-38.6053
-8.41194
22.8514
55.1871
88.3001
121.842
155.465
188.845
221.592
253.301
283.612
312.139
338.522
362.418
383.505
401.515
416.218
427.412
434.956
438.761
438.05
433.549
425.281
413.334
397.876
379.099
357.259
332.637
305.558
276.382
245.459
213.171
179.912
146.055
111.954
77.9537
44.4071
13.1585
-18.594
-49.1982
-78.429
-106.13
-132.176
-156.469
-178.944
-199.558
-218.276
-235.091
-250.007
-263.035
-274.207
-283.564
-291.15
-297.024
-301.26
-303.886
-304.981
-304.61
-302.801
-299.578
-294.955
-288.93
-281.486
-272.595
-262.231
-250.356
-236.935
-221.938
-205.337
-187.116
-167.267
-145.798
-122.733
-98.1143
-72.0083
-44.5033
-15.7116
14.2326
45.1447
76.8101
108.999
141.443
173.842
205.861
237.139
267.293
295.926
322.631
347.008
368.67
387.256
402.44
413.941
421.533
425.039
424.332
419.463
410.436
397.35
380.398
359.828
335.943
309.096
279.686
248.145
214.928
180.504
145.349
109.925
74.6764
40.0253
6.31204
-26.1407
-57.0804
-86.3135
-113.7
-139.15
-162.616
-184.083
-203.566
-221.101
-236.741
-250.554
-262.612
-272.993
-281.775
-289.03
-294.831
-299.234
-302.298
-304.039
-304.493
-303.689
-301.625
-298.293
-293.68
-287.766
-280.522
-271.912
-261.906
-250.464
-237.546
-223.107
-207.106
-189.504
-170.271
-149.388
-126.853
-102.687
-76.9332
-49.6731
-21.0226
8.85933
39.7792
71.5076
103.707
136.092
168.328
200.052
230.882
260.416
288.24
313.938
337.1
357.337
374.289
387.641
397.134
402.569
403.803
400.795
393.622
382.333
367.122
348.237
325.99
300.744
272.903
242.906
211.212
178.286
144.592
110.573
76.6473
43.1977
10.5633
-20.9628
-51.1377
-79.7694
-106.714
-131.875
-155.193
-176.641
-196.223
-213.963
-229.902
-244.092
-256.599
-267.489
-276.829
-284.688
-291.125
-296.195
-299.948
-302.432
-303.676
-303.715
-302.602
-300.339
-296.931
-292.36
-286.59
-279.581
-271.286
-261.655
-250.643
-238.213
-224.333
-208.972
-192.106
-173.717
-153.795
-132.344
-109.383
-84.9531
-59.1222
-31.9893
-3.68561
25.6149
55.727
86.8822
117.987
149.083
179.842
209.915
238.922
266.477
292.177
315.628
336.433
354.216
368.65
379.435
386.305
389.079
387.669
382.014
372.213
358.383
340.734
319.571
295.27
268.283
239.088
208.17
176.04
143.179
110.032
77.0025
44.5749
14.8772
-15.1819
-43.9885
-71.299
-96.9759
-120.933
-143.141
-163.612
-182.384
-199.526
-215.117
-229.245
-242.002
-253.468
-263.718
-272.806
-280.77
-287.627
-293.375
-297.993
-301.442
-303.667
-304.583
-304.144
-302.246
-298.79
-293.715
-286.967
-278.468
-268.17
-256.046
-242.068
-226.231
-208.562
-189.103
-167.917
-145.094
-120.737
-94.989
-68.0253
-40.0251
-11.19
18.4932
48.3319
78.2034
107.859
137.027
165.379
192.6
218.412
242.503
264.602
284.434
301.759
316.373
328.06
336.613
4.65048
-1.6659
-27.1473
-54.1006
-80.369
-105.426
-129.002
-151.002
-171.361
-190.068
-207.143
-222.612
-236.51
-248.883
-259.773
-269.225
-277.276
-283.962
-289.315
-293.357
-296.102
-297.543
-297.697
-296.559
-294.093
-290.273
-285.051
-278.385
-270.223
-260.507
-249.175
-236.176
-221.452
-204.956
-186.652
-166.502
-144.514
-120.715
-95.1396
-67.8761
-39.0516
-8.82416
22.4742
54.8638
88.0423
121.659
155.364
188.835
221.68
253.488
283.901
312.529
339.009
362.997
384.167
402.25
417.014
428.254
435.831
439.656
438.943
434.419
426.113
414.119
398.598
379.744
357.818
333.101
305.924
276.646
245.622
213.235
179.884
145.941
111.758
77.6757
44.0103
12.8567
-18.9957
-49.6438
-78.9005
-106.617
-132.672
-156.968
-179.443
-200.052
-218.762
-235.567
-250.472
-263.487
-274.645
-283.987
-291.557
-297.416
-301.633
-304.246
-305.331
-304.95
-303.136
-299.911
-295.291
-289.271
-281.834
-272.955
-262.602
-250.739
-237.331
-222.346
-205.755
-187.543
-167.7
-146.234
-123.167
-98.5429
-72.4257
-44.9033
-16.087
13.8877
44.8413
76.5562
108.804
141.317
173.794
205.901
237.275
267.532
296.272
323.086
347.57
369.334
388.014
403.279
414.845
422.482
426.013
425.319
420.428
411.358
398.212
381.183
360.52
336.529
309.568
280.039
248.377
215.039
180.5
145.235
109.711
74.3732
39.6495
5.87501
-26.6235
-57.5946
-86.8462
-114.24
-139.689
-163.147
-184.6
-204.065
-221.579
-237.198
-250.987
-263.022
-273.38
-282.141
-289.379
-295.163
-299.553
-302.606
-304.34
-304.792
-303.987
-301.924
-298.597
-293.99
-288.085
-280.85
-272.252
-262.259
-250.83
-237.926
-223.502
-207.516
-189.928
-170.705
-149.83
-127.299
-103.13
-77.368
-50.0906
-21.4138
8.50469
39.4717
71.2629
103.53
135.993
168.316
200.136
231.069
260.711
288.646
314.454
337.724
358.061
375.102
388.528
398.076
403.544
404.793
401.778
394.565
383.22
367.933
348.956
326.604
301.244
273.284
243.166
211.353
178.313
144.513
110.399
76.3904
42.8697
10.1774
-21.3941
-51.6017
-80.2548
-107.211
-132.374
-155.688
-177.127
-196.694
-214.418
-230.338
-244.508
-256.995
-267.865
-277.187
-285.028
-291.451
-296.507
-300.248
-302.719
-303.958
-303.99
-302.873
-300.61
-297.207
-292.644
-286.885
-279.889
-271.609
-261.991
-250.991
-238.574
-224.706
-209.356
-192.5
-174.119
-154.203
-132.754
-109.79
-85.3529
-59.5071
-32.3511
-4.01395
25.332
55.4996
86.6767
117.861
149.037
179.884
210.047
239.151
266.807
292.611
316.165
337.068
354.946
369.466
380.321
387.246
390.054
388.656
382.99
373.145
359.247
341.51
320.239
295.815
268.697
239.369
208.322
176.071
143.102
109.858
76.7543
44.2783
14.4563
-15.6298
-44.4585
-71.7817
-97.4618
-121.414
-143.608
-164.059
-182.808
-199.924
-215.489
-229.591
-242.324
-253.771
-264.005
-273.082
-281.039
-287.896
-293.647
-298.272
-301.732
-303.97
-304.906
-304.487
-302.606
-299.169
-294.113
-287.384
-278.901
-268.617
-256.503
-242.534
-226.699
-209.03
-189.566
-168.369
-145.529
-121.149
-95.3714
-68.3712
-40.3278
-11.4419
18.2843
48.1842
78.1234
107.851
137.096
165.526
192.828
218.722
242.892
265.067
284.97
302.359
317.029
328.762
337.351
4.24686
-1.94707
-27.5743
-54.5938
-80.8958
-105.966
-129.544
-151.535
-171.882
-190.572
-207.63
-223.079
-236.959
-249.314
-260.188
-269.624
-277.661
-284.336
-289.681
-293.716
-296.457
-297.9
-298.059
-296.925
-294.469
-290.661
-285.454
-278.806
-270.664
-260.968
-249.658
-236.68
-221.977
-205.5
-187.212
-167.074
-145.093
-121.292
-95.7085
-68.4266
-39.5733
-9.30595
22.0322
54.4855
87.7402
121.444
155.246
188.823
221.781
253.707
284.238
312.984
339.577
363.673
384.941
403.109
417.943
429.237
436.852
440.696
439.982
435.434
427.086
415.036
399.441
380.498
358.469
333.643
306.35
276.954
245.81
213.308
179.85
145.806
111.531
77.3547
43.551
12.4985
-19.4699
-50.1661
-79.4519
-107.187
-133.251
-157.551
-180.025
-200.628
-219.329
-236.123
-251.014
-264.014
-275.156
-284.48
-292.032
-297.872
-302.069
-304.666
-305.738
-305.347
-303.526
-300.3
-295.683
-289.669
-282.241
-273.375
-263.036
-251.187
-237.793
-222.821
-206.243
-188.041
-168.206
-146.743
-123.675
-99.0439
-72.9134
-45.3709
-16.5268
13.4846
44.4864
76.2588
108.575
141.168
173.737
205.946
237.433
267.81
296.675
323.617
348.227
370.111
388.899
404.259
415.901
423.592
427.152
426.47
421.555
412.436
399.219
382.099
361.326
337.213
310.119
280.451
248.647
215.169
180.493
145.1
109.459
74.0171
39.2092
5.36313
-27.1888
-58.1962
-87.4693
-114.872
-140.319
-163.767
-185.204
-204.648
-222.138
-237.73
-251.493
-263.5
-273.832
-282.569
-289.785
-295.551
-299.926
-302.965
-304.692
-305.141
-304.334
-302.273
-298.951
-294.353
-288.456
-281.233
-272.649
-262.671
-251.258
-238.371
-223.964
-207.995
-190.422
-171.213
-150.347
-127.82
-103.649
-77.8766
-50.5792
-21.8714
8.08951
39.1108
70.9761
103.322
135.876
168.301
200.233
231.286
261.054
289.118
315.056
338.452
358.906
376.051
389.565
399.177
404.685
405.949
402.925
395.667
384.256
368.88
349.796
327.322
301.827
273.728
243.469
211.516
178.344
144.421
110.195
76.0888
42.4853
9.72528
-21.8989
-52.1445
-80.8224
-107.791
-132.958
-156.267
-177.694
-197.246
-214.949
-230.847
-244.994
-257.457
-268.304
-277.604
-285.426
-291.831
-296.871
-300.598
-303.055
-304.276
-304.31
-303.189
-300.927
-297.529
-292.976
-287.23
-280.25
-271.985
-262.382
-251.398
-238.996
-225.141
-209.804
-192.96
-174.589
-154.679
-133.233
-110.267
-85.8203
-59.9571
-32.7745
-4.39898
24.9996
55.2326
86.4364
117.715
148.983
179.931
210.2
239.418
267.191
293.117
316.79
337.81
355.799
370.419
381.356
388.344
391.193
389.809
384.128
374.235
360.257
342.417
321.018
296.451
269.179
239.696
208.498
176.105
143.01
109.655
76.463
43.9273
13.9662
-16.1528
-45.0078
-72.3461
-98.0297
-121.975
-144.154
-164.582
-183.303
-200.389
-215.923
-229.995
-242.701
-254.124
-264.339
-273.403
-281.354
-288.209
-293.964
-298.598
-302.071
-304.324
-305.283
-304.886
-303.027
-299.612
-294.578
-287.87
-279.406
-269.138
-257.038
-243.077
-227.247
-209.576
-190.106
-168.897
-146.038
-121.631
-95.8184
-68.7756
-40.6819
-11.7369
18.0398
48.0113
78.0295
107.842
137.176
165.699
193.094
219.083
243.346
265.61
285.596
303.06
317.795
329.583
338.212
3.83225
-2.30607
-28.0714
-55.161
-81.5
-106.585
-130.164
-152.146
-172.478
-191.149
-208.186
-223.614
-237.472
-249.807
-260.661
-270.079
-278.102
-284.764
-290.099
-294.127
-296.863
-298.309
-298.472
-297.344
-294.898
-291.104
-285.915
-279.287
-271.168
-261.494
-250.209
-237.256
-222.577
-206.122
-187.852
-167.729
-145.754
-121.954
-96.3599
-69.0572
-40.171
-9.85756
21.5247
54.0513
87.3934
121.196
155.11
188.808
221.896
253.956
284.623
313.504
340.227
364.446
385.826
404.092
419.007
430.362
438.018
441.883
441.171
436.596
428.2
416.086
400.405
381.359
359.214
334.262
306.837
277.304
246.024
213.391
179.81
145.65
111.27
76.9923
43.0438
12.0679
-20.0192
-50.7661
-80.0837
-107.839
-133.915
-158.218
-180.691
-201.286
-219.978
-236.759
-251.635
-264.617
-275.74
-285.044
-292.575
-298.394
-302.568
-305.146
-306.204
-305.8
-303.971
-300.744
-296.13
-290.122
-282.707
-273.854
-263.531
-251.699
-238.321
-223.366
-206.802
-188.612
-168.784
-147.325
-124.256
-99.6175
-73.4722
-45.9067
-17.0309
13.0219
44.0795
75.9173
108.311
140.996
173.669
205.997
237.612
268.127
297.135
324.223
348.977
370.998
389.912
405.38
417.11
424.864
428.459
427.786
422.844
413.67
400.372
383.147
362.25
337.995
310.749
280.921
248.955
215.315
180.484
144.945
109.17
73.607
38.7039
4.77536
-27.8372
-58.8861
-88.1834
-115.596
-141.041
-164.477
-185.895
-205.315
-222.778
-238.34
-252.071
-264.047
-274.349
-283.058
-290.249
-295.994
-300.352
-303.375
-305.095
-305.54
-304.731
-302.672
-299.357
-294.767
-288.881
-281.672
-273.104
-263.142
-251.747
-238.879
-224.492
-208.542
-190.988
-171.794
-150.938
-128.417
-104.243
-78.4593
-51.1393
-22.3963
7.61327
38.6958
70.6467
103.083
135.741
168.282
200.342
231.532
261.445
289.658
315.744
339.285
359.873
377.138
390.751
400.437
405.991
407.274
404.237
396.929
385.442
369.965
350.757
328.142
302.494
274.234
243.813
211.701
178.377
144.312
109.959
75.7419
42.0436
9.20623
-22.4779
-52.767
-81.473
-108.457
-133.627
-156.929
-178.343
-197.876
-215.557
-231.429
-245.549
-257.985
-268.806
-278.08
-285.88
-292.265
-297.288
-300.998
-303.439
-304.643
-304.676
-303.55
-301.289
-297.897
-293.354
-287.624
-280.662
-272.415
-262.831
-251.864
-239.479
-225.639
-210.316
-193.486
-175.126
-155.225
-133.782
-110.813
-86.3556
-60.4727
-33.2599
-4.84123
24.6164
54.9252
86.1612
117.548
148.92
179.983
210.373
239.723
267.629
293.695
317.504
338.658
356.774
371.508
382.541
389.601
392.497
391.13
385.431
375.482
361.414
343.455
321.91
297.177
269.73
240.068
208.697
176.143
142.903
109.423
76.1276
43.5198
13.407
-16.7512
-45.6368
-72.9924
-98.6801
-122.618
-144.778
-165.181
-183.87
-200.921
-216.418
-230.456
-243.131
-254.527
-264.721
-273.77
-281.712
-288.566
-294.326
-298.97
-302.457
-304.729
-305.714
-305.341
-303.507
-300.119
-295.11
-288.426
-279.984
-269.735
-257.649
-243.698
-227.873
-210.202
-190.724
-169.501
-146.621
-122.182
-96.3303
-69.239
-41.0879
-12.0752
17.7592
47.8128
77.9214
107.83
137.266
165.895
193.398
219.495
243.865
266.231
286.312
303.862
318.672
330.522
339.199
3.40083
-2.73717
-28.6388
-55.8034
-82.1825
-107.284
-130.862
-152.835
-173.149
-191.799
-208.812
-224.215
-238.049
-250.361
-261.193
-270.592
-278.597
-285.245
-290.568
-294.589
-297.321
-298.768
-298.935
-297.815
-295.381
-291.602
-286.433
-279.828
-271.734
-262.086
-250.829
-237.904
-223.252
-206.823
-188.573
-168.466
-146.5
-122.699
-97.0941
-69.7685
-40.8452
-10.4792
20.9507
53.5606
87.0011
120.916
154.954
188.79
222.023
254.234
285.056
314.088
340.959
365.316
386.822
405.198
420.204
431.629
439.332
443.217
442.508
437.904
429.455
417.268
401.491
382.329
360.053
334.958
307.384
277.698
246.263
213.483
179.763
145.473
110.977
76.5903
42.5214
11.531
-20.6466
-51.4445
-80.7966
-108.574
-134.662
-158.97
-181.441
-202.029
-220.709
-237.475
-252.333
-265.296
-276.399
-285.68
-293.187
-298.982
-303.13
-305.687
-306.727
-306.31
-304.472
-301.243
-296.632
-290.633
-283.231
-274.394
-264.089
-252.275
-238.916
-223.979
-207.431
-189.255
-169.436
-147.982
-124.912
-100.264
-74.1026
-46.511
-17.5997
12.4991
43.6198
75.5309
108.013
140.801
173.592
206.051
237.811
268.482
297.652
324.905
349.821
371.998
391.053
406.644
418.473
426.297
429.932
429.268
424.298
415.061
401.672
384.328
363.289
338.876
311.458
281.45
249.3
215.479
180.472
144.767
108.841
73.1431
38.1316
4.11061
-28.57
-59.6651
-88.9892
-116.412
-141.855
-165.278
-186.674
-206.067
-223.498
-239.026
-252.722
-264.663
-274.931
-283.609
-290.771
-296.492
-300.831
-303.838
-305.548
-305.987
-305.177
-303.121
-299.813
-295.233
-289.359
-282.166
-273.615
-263.672
-252.298
-239.452
-225.087
-209.159
-191.626
-172.448
-151.605
-129.089
-104.913
-79.1165
-51.7717
-22.9893
7.0752
38.2259
70.2738
102.811
135.587
168.259
200.463
231.807
261.883
290.264
316.518
340.222
360.963
378.363
392.087
401.859
407.465
408.767
405.714
398.352
386.78
371.187
351.84
329.066
303.245
274.804
244.199
211.908
178.412
144.188
109.691
75.3488
41.5438
8.6194
-23.1323
-53.4699
-82.2072
-109.207
-134.38