/*--------------------------------*- C++ -*----------------------------------*\
| =========                 |                                                 |
| \\      /  F ield         | OpenFOAM: The Open Source CFD Toolbox           |
|  \\    /   O peration     | Version:  3.0.1                                 |
|   \\  /    A nd           | Web:      www.OpenFOAM.org                      |
|    \\/     M anipulation  |                                                 |
\*---------------------------------------------------------------------------*/
FoamFile
{
    version     2.0;
    format      ascii;
    class       volScalarField;
    location    "85";
    object      p;
}
// * * * * * * * * * * * * * * * * * * * * * * * * * * * * * * * * * * * * * //

dimensions      [1 -1 -2 0 0 0 0];

internalField   nonuniform List<scalar> 
21420
(
3746.45
3772.18
3799.3
3827.79
3857.57
3888.45
3920.23
3952.65
3985.43
4018.3
4050.89
4082.8
4113.67
4143.05
4170.54
4195.73
4218.26
4237.81
4254.14
4267
4276.2
4281.52
4283.08
4280.65
4274.32
4264.12
4250.23
4232.83
4212.18
4188.54
4162.22
4133.64
4103.18
4071.27
4038.33
4004.74
3970.96
3937.36
3904.27
3872
3840.81
3810.9
3782.42
3755.46
3730.08
3706.32
3684.15
3663.55
3644.47
3626.86
3610.66
3595.8
3582.24
3569.93
3558.82
3548.89
3540.11
3532.47
3525.94
3520.52
3516.2
3512.94
3510.74
3509.58
3509.46
3510.44
3512.66
3516.18
3521.01
3527.11
3534.47
3543.09
3553.04
3564.38
3577.11
3591.1
3606.18
3622.13
3638.85
3656.13
3674.13
3692.93
3712.62
3733.49
3755.66
3779.28
3804.39
3830.95
3858.82
3887.78
3917.51
3947.66
3977.81
4007.55
4036.43
4064.07
4090.1
4114.19
4135.99
4155.19
4171.51
4184.69
4194.51
4200.82
4203.49
4202.46
4197.62
4189.18
4177.13
4161.66
4142.94
4121.26
4096.92
4070.24
4041.56
4011.24
3979.62
3947.04
3913.82
3880.3
3846.78
3813.55
3780.89
3749.07
3718.34
3688.89
3660.92
3634.57
3609.98
3587.22
3566.36
3547.41
3530.4
3515.27
3501.99
3490.5
3480.71
3472.55
3465.94
3460.8
3457.05
3454.6
3453.38
3453.3
3454.28
3456.24
3459.12
3462.85
3467.39
3472.69
3478.72
3485.46
3492.9
3501.02
3509.81
3519.28
3529.44
3540.28
3551.81
3564.07
3577.06
3590.82
3605.38
3620.76
3637.02
3654.2
3672.34
3691.49
3711.66
3732.85
3755.05
3778.2
3802.19
3826.89
3852.14
3877.72
3903.4
3928.92
3953.98
3978.25
4001.41
4023.1
4042.95
4060.62
4075.74
4087.98
4097.05
4102.71
4104.74
4102.97
4097.39
4088.04
4075.04
4058.45
4038.58
4015.75
3990.29
3962.62
3933.18
3902.4
3870.76
3838.71
3806.71
3775.17
3744.45
3714.89
3686.72
3660.14
3635.28
3612.21
3590.96
3571.52
3553.84
3537.87
3523.52
3510.69
3499.26
3489.13
3480.19
3472.33
3465.43
3459.41
3454.16
3449.59
3445.62
3442.16
3439.16
3436.57
3434.35
3432.49
3431.01
3429.94
3429.33
3429.23
3429.7
3430.83
3432.71
3435.45
3439.14
3443.89
3449.82
3457.01
3465.57
3475.58
3487.12
3500.27
3515.1
3531.65
3549.97
3570.09
3592.02
3615.73
3641.16
3668.25
3696.84
3726.77
3757.81
3789.68
3822.06
3854.58
3886.82
3918.35
3948.69
3977.36
4003.83
4027.65
4048.37
4065.6
4078.96
4088.19
4093.19
4094.39
4091.32
4084.12
4073.35
4059.27
4042.22
4022.61
4000.87
3977.38
3952.71
3927.4
3901.86
3876.47
3851.57
3827.37
3804.07
3781.82
3760.65
3740.62
3721.71
3703.91
3687.21
3671.56
3656.94
3643.37
3630.8
3619.24
3608.7
3599.16
3590.64
3583.1
3576.55
3570.95
3566.29
3562.52
3559.6
3557.5
3556.17
3555.55
3555.62
3556.67
3558.5
3561.08
3564.41
3568.55
3573.54
3579.47
3586.45
3594.56
3603.93
3614.66
3626.85
3640.58
3655.91
3672.87
3691.5
3711.78
3733.66
3757.07
3781.93
3808.09
3835.4
3863.71
3892.81
3922.49
3952.5
3982.54
4012.39
4041.73
4070.22
4097.59
4123.52
4147.7
4169.81
4189.53
4206.64
4220.86
4231.98
4239.83
4244.26
4245.23
4242.76
4236.67
4227.02
4214.22
4198.58
3648.28
3674.01
3701.14
3729.62
3759.41
3790.3
3822.09
3854.52
3887.31
3920.19
3952.8
3984.73
4015.61
4045.01
4072.52
4097.73
4120.26
4139.84
4156.18
4169.04
4178.25
4183.59
4185.13
4182.69
4176.37
4166.16
4152.26
4134.85
4114.18
4090.52
4064.19
4035.59
4005.12
3973.19
3940.23
3906.63
3872.83
3839.22
3806.12
3773.84
3742.65
3712.73
3684.25
3657.28
3631.91
3608.15
3585.99
3565.39
3546.31
3528.7
3512.5
3497.65
3484.09
3471.78
3460.68
3450.75
3441.97
3434.32
3427.8
3422.38
3418.05
3414.8
3412.6
3411.44
3411.32
3412.29
3414.51
3418.03
3422.86
3428.95
3436.31
3444.93
3454.89
3466.23
3478.96
3492.97
3508.06
3524.02
3540.75
3558.03
3576.03
3594.83
3614.51
3635.38
3657.54
3681.16
3706.26
3732.82
3760.7
3789.66
3819.39
3849.55
3879.72
3909.47
3938.36
3966.01
3992.06
4016.17
4037.98
4057.2
4073.52
4086.71
4096.54
4102.86
4105.54
4104.51
4099.68
4091.22
4079.16
4063.68
4044.95
4023.26
3998.9
3972.21
3943.51
3913.17
3881.54
3848.94
3815.72
3782.18
3748.64
3715.4
3682.74
3650.91
3620.17
3590.71
3562.74
3536.39
3511.79
3489.03
3468.17
3449.23
3432.21
3417.09
3403.81
3392.32
3382.54
3374.38
3367.78
3362.64
3358.89
3356.45
3355.23
3355.15
3356.13
3358.1
3360.98
3364.72
3369.25
3374.56
3380.59
3387.33
3394.77
3402.88
3411.68
3421.15
3431.3
3442.14
3453.68
3465.93
3478.92
3492.68
3507.23
3522.62
3538.87
3556.05
3574.19
3593.33
3613.5
3634.69
3656.89
3680.04
3704.03
3728.74
3754
3779.58
3805.28
3830.81
3855.88
3880.17
3903.34
3925.05
3944.92
3962.6
3977.73
3989.99
3999.08
4004.74
4006.79
4005.02
3999.43
3990.07
3977.07
3960.47
3940.59
3917.73
3892.25
3864.57
3835.1
3804.3
3772.64
3740.58
3708.56
3677
3646.28
3616.7
3588.53
3561.95
3537.09
3514.02
3492.77
3473.33
3455.66
3439.7
3425.35
3412.52
3401.1
3390.98
3382.04
3374.18
3367.29
3361.28
3356.03
3351.46
3347.49
3344.04
3341.04
3338.45
3336.23
3334.37
3332.89
3331.82
3331.2
3331.1
3331.57
3332.7
3334.57
3337.3
3340.99
3345.74
3351.66
3358.85
3367.4
3377.41
3388.95
3402.09
3416.92
3433.47
3451.79
3471.91
3493.83
3517.54
3542.98
3570.06
3598.67
3628.61
3659.66
3691.54
3723.93
3756.46
3788.72
3820.28
3850.64
3879.32
3905.82
3929.66
3950.39
3967.64
3981.01
3990.27
3995.24
3996.42
3993.36
3986.17
3975.39
3961.29
3944.22
3924.6
3902.85
3879.34
3854.65
3829.33
3803.78
3778.38
3753.47
3729.27
3705.96
3683.7
3662.53
3642.5
3623.59
3605.78
3589.08
3573.43
3558.81
3545.23
3532.66
3521.11
3510.56
3501.03
3492.5
3484.96
3478.41
3472.82
3468.15
3464.38
3461.47
3459.37
3458.04
3457.42
3457.5
3458.54
3460.37
3462.95
3466.28
3470.41
3475.4
3481.33
3488.3
3496.41
3505.77
3516.5
3528.69
3542.41
3557.74
3574.7
3593.33
3613.61
3635.49
3658.9
3683.76
3709.93
3737.24
3765.56
3794.67
3824.36
3854.37
3884.43
3914.29
3943.64
3972.14
3999.53
4025.47
4049.66
4071.79
4091.53
4108.64
4122.88
4134.01
4141.86
4146.3
4147.28
4144.79
4138.69
4129.04
4116.23
4100.58
3550.03
3575.77
3602.9
3631.4
3661.2
3692.1
3723.91
3756.35
3789.17
3822.08
3854.71
3886.68
3917.6
3947.03
3974.57
3999.82
4022.38
4041.98
4058.34
4071.22
4080.45
4085.83
4087.33
4084.89
4078.56
4068.33
4054.41
4036.98
4016.29
3992.6
3966.24
3937.6
3907.09
3875.13
3842.14
3808.51
3774.68
3741.04
3707.92
3675.63
3644.42
3614.5
3586
3559.04
3533.67
3509.91
3487.75
3467.16
3448.09
3430.49
3414.29
3399.44
3385.89
3373.58
3362.48
3352.56
3343.78
3336.13
3329.61
3324.19
3319.87
3316.61
3314.41
3313.25
3313.13
3314.1
3316.31
3319.82
3324.65
3330.73
3338.09
3346.72
3356.68
3368.03
3380.78
3394.81
3409.92
3425.9
3442.64
3459.93
3477.93
3496.72
3516.4
3537.25
3559.4
3583.01
3608.11
3634.67
3662.54
3691.51
3721.27
3751.44
3781.64
3811.41
3840.33
3868.01
3894.09
3918.22
3940.06
3959.3
3975.65
3988.86
3998.71
4005.04
4007.72
4006.7
4001.88
3993.38
3981.32
3965.83
3947.08
3925.36
3900.97
3874.24
3845.52
3815.14
3783.48
3750.85
3717.6
3684.04
3650.48
3617.22
3584.53
3552.69
3521.93
3492.47
3464.48
3438.13
3413.52
3390.76
3369.9
3350.96
3333.95
3318.83
3305.56
3294.08
3284.3
3276.16
3269.56
3264.43
3260.69
3258.25
3257.04
3256.97
3257.95
3259.92
3262.81
3266.55
3271.09
3276.4
3282.43
3289.17
3296.61
3304.73
3313.52
3322.99
3333.14
3343.98
3355.51
3367.76
3380.75
3394.5
3409.05
3424.43
3440.68
3457.85
3475.98
3495.12
3515.28
3536.48
3558.68
3581.83
3605.83
3630.55
3655.82
3681.42
3707.14
3732.69
3757.78
3782.1
3805.31
3827.04
3846.95
3864.66
3879.83
3892.12
3901.23
3906.92
3908.97
3907.24
3901.61
3892.25
3879.23
3862.61
3842.7
3819.8
3794.29
3766.56
3737.05
3706.21
3674.51
3642.41
3610.36
3578.78
3548.03
3518.44
3490.26
3463.67
3438.81
3415.74
3394.5
3375.06
3357.41
3341.45
3327.11
3314.29
3302.89
3292.77
3283.84
3276
3269.12
3263.11
3257.87
3253.31
3249.34
3245.9
3242.9
3240.31
3238.09
3236.23
3234.75
3233.68
3233.05
3232.94
3233.41
3234.53
3236.4
3239.12
3242.79
3247.54
3253.45
3260.63
3269.18
3279.17
3290.7
3303.84
3318.66
3335.21
3353.52
3373.64
3395.56
3419.27
3444.72
3471.81
3500.42
3530.38
3561.45
3593.35
3625.78
3658.34
3690.64
3722.23
3752.64
3781.37
3807.9
3831.78
3852.55
3869.83
3883.22
3892.52
3897.46
3898.61
3895.55
3888.35
3877.55
3863.43
3846.34
3826.69
3804.9
3781.37
3756.65
3731.3
3705.73
3680.31
3655.38
3631.16
3607.84
3585.57
3564.39
3544.36
3525.44
3507.63
3490.93
3475.27
3460.65
3447.07
3434.5
3422.94
3412.39
3402.86
3394.33
3386.79
3380.24
3374.65
3369.98
3366.22
3363.31
3361.21
3359.88
3359.27
3359.35
3360.39
3362.22
3364.79
3368.12
3372.25
3377.23
3383.15
3390.11
3398.21
3407.56
3418.28
3430.46
3444.18
3459.5
3476.46
3495.09
3515.37
3537.25
3560.67
3585.53
3611.71
3639.03
3667.36
3696.49
3726.19
3756.23
3786.3
3816.19
3845.56
3874.09
3901.51
3927.48
3951.7
3973.85
3993.62
4010.76
4025.02
4036.16
4044.03
4048.47
4049.47
4046.93
4040.84
4031.19
4018.36
4002.69
3451.72
3477.46
3504.6
3533.11
3562.92
3593.84
3625.68
3658.15
3691
3723.96
3756.64
3788.65
3819.63
3849.11
3876.71
3902
3924.61
3944.25
3960.64
3973.55
3982.79
3988.22
3989.68
3987.24
3980.89
3970.65
3956.7
3939.24
3918.5
3894.77
3868.35
3839.67
3809.1
3777.09
3744.05
3710.37
3676.5
3642.83
3609.67
3577.35
3546.12
3516.19
3487.69
3460.72
3435.36
3411.6
3389.45
3368.87
3349.81
3332.21
3316.02
3301.18
3287.64
3275.34
3264.24
3254.32
3245.54
3237.9
3231.38
3225.96
3221.64
3218.39
3216.18
3215.02
3214.9
3215.85
3218.06
3221.56
3226.38
3232.46
3239.82
3248.45
3258.41
3269.78
3282.56
3296.61
3311.76
3327.76
3344.53
3361.82
3379.83
3398.62
3418.27
3439.11
3461.24
3484.83
3509.92
3536.48
3564.36
3593.35
3623.12
3653.33
3683.56
3713.37
3742.33
3770.05
3796.17
3820.34
3842.23
3861.51
3877.89
3891.13
3901.01
3907.36
3910.06
3909.03
3904.24
3895.69
3883.62
3868.09
3849.31
3827.55
3803.12
3776.34
3747.57
3717.15
3685.44
3652.77
3619.48
3585.88
3552.29
3518.99
3486.28
3454.41
3423.63
3394.14
3366.14
3339.78
3315.17
3292.41
3271.54
3252.61
3235.6
3220.5
3207.24
3195.76
3186
3177.86
3171.28
3166.16
3162.43
3160
3158.8
3158.74
3159.73
3161.71
3164.61
3168.35
3172.9
3178.21
3184.24
3190.99
3198.42
3206.54
3215.33
3224.8
3234.95
3245.78
3257.31
3269.56
3282.54
3296.28
3310.82
3326.19
3342.44
3359.6
3377.72
3396.85
3417.01
3438.21
3460.41
3483.57
3507.58
3532.32
3557.6
3583.23
3608.98
3634.56
3659.7
3684.06
3707.31
3729.1
3749.05
3766.82
3782.03
3794.37
3803.52
3809.23
3811.31
3809.6
3803.95
3794.57
3781.53
3764.87
3744.91
3721.97
3696.4
3668.61
3639.03
3608.13
3576.38
3544.22
3512.12
3480.49
3449.71
3420.1
3391.9
3365.31
3340.44
3317.38
3296.14
3276.72
3259.07
3243.13
3228.81
3216.01
3204.62
3194.52
3185.61
3177.77
3170.91
3164.91
3159.68
3155.13
3151.17
3147.74
3144.75
3142.16
3139.94
3138.08
3136.59
3135.51
3134.88
3134.76
3135.22
3136.33
3138.19
3140.89
3144.55
3149.28
3155.18
3162.35
3170.89
3180.87
3192.39
3205.52
3220.33
3236.87
3255.18
3275.29
3297.21
3320.92
3346.37
3373.48
3402.11
3432.09
3463.19
3495.13
3527.6
3560.21
3592.57
3624.22
3654.69
3683.48
3710.08
3734.01
3754.83
3772.15
3785.59
3794.93
3799.87
3800.95
3797.89
3790.69
3779.86
3765.7
3748.57
3728.87
3707.03
3683.46
3658.69
3633.31
3607.7
3582.25
3557.29
3533.05
3509.72
3487.43
3466.24
3446.2
3427.27
3409.46
3392.74
3377.08
3362.46
3348.87
3336.3
3324.73
3314.19
3304.65
3296.12
3288.58
3282.03
3276.44
3271.78
3268.02
3265.12
3263.03
3261.7
3261.09
3261.17
3262.21
3264.04
3266.61
3269.93
3274.05
3279.02
3284.93
3291.88
3299.96
3309.3
3320.01
3332.17
3345.88
3361.19
3378.15
3396.77
3417.05
3438.94
3462.36
3487.24
3513.43
3540.77
3569.12
3598.26
3628
3658.06
3688.16
3718.08
3747.5
3776.07
3803.53
3829.54
3853.8
3875.99
3895.8
3912.98
3927.27
3938.44
3946.32
3950.79
3951.81
3949.21
3943.11
3933.45
3920.61
3904.91
3353.33
3379.08
3406.23
3434.75
3464.59
3495.54
3527.41
3559.92
3592.82
3625.82
3658.57
3690.65
3721.7
3751.26
3778.92
3804.28
3826.95
3846.64
3863.07
3876.02
3885.29
3890.74
3892.2
3889.75
3883.38
3873.11
3859.12
3841.61
3820.82
3797.02
3770.54
3741.79
3711.15
3679.07
3645.96
3612.22
3578.29
3544.57
3511.37
3479.02
3447.77
3417.81
3389.31
3362.34
3336.97
3313.22
3291.08
3270.51
3251.46
3233.88
3217.7
3202.87
3189.34
3177.04
3165.95
3156.03
3147.26
3139.62
3133.1
3127.68
3123.36
3120.11
3117.91
3116.75
3116.62
3117.56
3119.76
3123.25
3128.05
3134.13
3141.49
3150.12
3160.09
3171.48
3184.29
3198.39
3213.57
3229.62
3246.41
3263.72
3281.73
3300.51
3320.14
3340.96
3363.06
3386.63
3411.71
3438.26
3466.15
3495.16
3524.97
3555.22
3585.49
3615.34
3644.36
3672.14
3698.32
3722.55
3744.48
3763.81
3780.25
3793.53
3803.45
3809.82
3812.53
3811.51
3806.72
3798.16
3786.06
3770.49
3751.66
3729.84
3705.35
3678.51
3649.67
3619.2
3587.42
3554.7
3521.35
3487.71
3454.06
3420.72
3387.97
3356.07
3325.25
3295.75
3267.73
3241.35
3216.73
3193.97
3173.1
3154.18
3137.18
3122.08
3108.84
3097.38
3087.63
3079.51
3072.94
3067.83
3064.12
3061.71
3060.52
3060.47
3061.48
3063.47
3066.37
3070.12
3074.68
3079.99
3086.03
3092.77
3100.21
3108.33
3117.12
3126.59
3136.73
3147.56
3159.08
3171.32
3184.29
3198.03
3212.56
3227.92
3244.15
3261.3
3279.41
3298.54
3318.69
3339.88
3362.09
3385.25
3409.28
3434.04
3459.35
3485.02
3510.8
3536.43
3561.62
3586.03
3609.35
3631.2
3651.23
3669.06
3684.34
3696.73
3705.94
3711.69
3713.79
3712.1
3706.45
3697.05
3683.96
3667.26
3647.24
3624.22
3598.57
3570.7
3541.05
3510.06
3478.23
3446
3413.83
3382.15
3351.32
3321.68
3293.46
3266.86
3241.99
3218.93
3197.7
3178.3
3160.67
3144.75
3130.45
3117.67
3106.29
3096.22
3087.33
3079.51
3072.66
3066.68
3061.47
3056.93
3052.98
3049.56
3046.58
3043.99
3041.77
3039.91
3038.42
3037.33
3036.69
3036.56
3037
3038.1
3039.94
3042.63
3046.27
3050.98
3056.86
3064.02
3072.54
3082.51
3094.01
3107.13
3121.92
3138.45
3156.75
3176.86
3198.78
3222.5
3247.95
3275.07
3303.72
3333.73
3364.87
3396.87
3429.39
3462.08
3494.51
3526.24
3556.8
3585.67
3612.35
3636.35
3657.24
3674.62
3688.11
3697.48
3702.45
3703.47
3700.38
3693.17
3682.31
3668.09
3650.9
3631.14
3609.25
3585.61
3560.79
3535.35
3509.69
3484.2
3459.2
3434.94
3411.58
3389.28
3368.07
3348.01
3329.08
3311.26
3294.53
3278.87
3264.24
3250.64
3238.06
3226.49
3215.94
3206.4
3197.87
3190.34
3183.79
3178.2
3173.55
3169.79
3166.9
3164.81
3163.49
3162.89
3162.96
3164.01
3165.83
3168.39
3171.71
3175.82
3180.77
3186.67
3193.59
3201.66
3210.98
3221.67
3233.82
3247.51
3262.82
3279.76
3298.38
3318.67
3340.56
3363.99
3388.88
3415.08
3442.44
3470.82
3500
3529.76
3559.86
3590.01
3619.98
3649.45
3678.07
3705.58
3731.65
3755.97
3778.22
3798.08
3815.3
3829.64
3840.85
3848.76
3853.24
3854.27
3851.63
3845.52
3835.85
3822.97
3807.23
3254.87
3280.62
3307.79
3336.33
3366.2
3397.18
3429.09
3461.66
3494.61
3527.68
3560.5
3592.67
3623.81
3653.46
3681.21
3706.65
3729.4
3749.15
3765.64
3778.63
3787.93
3793.39
3794.87
3792.41
3786.01
3775.71
3761.67
3744.1
3723.24
3699.37
3672.8
3643.96
3613.24
3581.07
3547.87
3514.05
3480.06
3446.27
3413.02
3380.63
3349.34
3319.37
3290.85
3263.88
3238.51
3214.77
3192.64
3172.09
3153.05
3135.48
3119.32
3104.51
3090.98
3078.7
3067.62
3057.7
3048.93
3041.3
3034.78
3029.36
3025.05
3021.8
3019.6
3018.43
3018.3
3019.22
3021.41
3024.88
3029.67
3035.74
3043.09
3051.74
3061.71
3073.13
3085.98
3100.13
3115.37
3131.46
3148.29
3165.62
3183.64
3202.4
3222.01
3242.79
3264.86
3288.41
3313.47
3340.02
3367.92
3396.95
3426.8
3457.09
3487.42
3517.34
3546.43
3574.27
3600.52
3624.82
3646.83
3666.23
3682.72
3696.06
3706.01
3712.42
3715.15
3714.14
3709.34
3700.77
3688.63
3673.01
3654.11
3632.23
3607.66
3580.74
3551.83
3521.28
3489.43
3456.64
3423.22
3389.51
3355.81
3322.41
3289.61
3257.66
3226.81
3197.28
3169.23
3142.84
3118.21
3095.44
3074.58
3055.66
3038.67
3023.59
3010.36
2998.92
2989.19
2981.09
2974.54
2969.45
2965.75
2963.36
2962.19
2962.16
2963.18
2965.18
2968.1
2971.86
2976.42
2981.74
2987.79
2994.53
3001.97
3010.09
3018.88
3028.34
3038.48
3049.31
3060.82
3073.05
3086.01
3099.74
3114.26
3129.6
3145.82
3162.95
3181.05
3200.16
3220.31
3241.5
3263.71
3286.89
3310.94
3335.72
3361.07
3386.77
3412.6
3438.29
3463.54
3488.03
3511.42
3533.36
3553.47
3571.39
3586.75
3599.22
3608.49
3614.29
3616.42
3614.73
3609.1
3599.68
3586.53
3569.77
3549.68
3526.57
3500.82
3472.85
3443.09
3412
3380.06
3347.74
3315.49
3283.74
3252.86
3223.18
3194.93
3168.32
3143.44
3120.39
3099.18
3079.79
3062.19
3046.29
3032.02
3019.27
3007.92
2997.87
2989
2981.21
2974.38
2968.42
2963.23
2958.71
2954.78
2951.36
2948.39
2945.81
2943.6
2941.73
2940.23
2939.13
2938.48
2938.34
2938.76
2939.84
2941.66
2944.32
2947.95
2952.63
2958.49
2965.63
2974.12
2984.08
2995.56
3008.66
3023.44
3039.96
3058.25
3078.35
3100.27
3123.99
3149.45
3176.59
3205.27
3235.32
3266.51
3298.56
3331.16
3363.93
3396.46
3428.3
3458.96
3487.93
3514.71
3538.81
3559.78
3577.24
3590.78
3600.19
3605.19
3606.16
3603.03
3595.8
3584.89
3570.61
3553.35
3533.51
3511.54
3487.82
3462.93
3437.42
3411.71
3386.16
3361.12
3336.82
3313.43
3291.11
3269.88
3249.81
3230.86
3213.03
3196.3
3180.62
3165.98
3152.38
3139.79
3128.22
3117.67
3108.12
3099.59
3092.06
3085.51
3079.93
3075.28
3071.53
3068.64
3066.56
3065.25
3064.65
3064.73
3065.78
3067.6
3070.15
3073.46
3077.55
3082.49
3088.36
3095.27
3103.31
3112.6
3123.27
3135.4
3149.08
3164.37
3181.31
3199.93
3220.21
3242.11
3265.55
3290.45
3316.68
3344.07
3372.48
3401.69
3431.5
3461.65
3491.85
3521.88
3551.41
3580.1
3607.68
3633.82
3658.21
3680.52
3700.45
3717.74
3732.12
3743.38
3751.32
3755.83
3756.86
3754.21
3748.06
3738.37
3725.45
3709.65
3156.34
3182.1
3209.28
3237.85
3267.75
3298.78
3330.73
3363.36
3396.38
3429.53
3462.45
3494.72
3525.97
3555.73
3583.58
3609.12
3631.95
3651.78
3668.34
3681.38
3690.71
3696.2
3697.7
3695.22
3688.79
3678.44
3664.35
3646.7
3625.76
3601.8
3575.14
3546.19
3515.36
3483.09
3449.79
3415.88
3381.79
3347.94
3314.62
3282.18
3250.85
3220.85
3192.32
3165.34
3139.98
3116.25
3094.14
3073.6
3054.58
3037.03
3020.89
3006.09
2992.58
2980.31
2969.23
2959.33
2950.56
2942.93
2936.41
2931
2926.69
2923.44
2921.24
2920.07
2919.93
2920.83
2923.01
2926.46
2931.23
2937.29
2944.64
2953.29
2963.28
2974.73
2987.63
3001.84
3017.14
3033.3
3050.16
3067.52
3085.54
3104.28
3123.86
3144.61
3166.64
3190.16
3215.19
3241.74
3269.66
3298.72
3328.61
3358.97
3389.37
3419.36
3448.53
3476.46
3502.79
3527.18
3549.27
3568.74
3585.31
3598.71
3608.71
3615.16
3617.92
3616.91
3612.11
3603.52
3591.33
3575.65
3556.69
3534.72
3510.06
3483.05
3454.04
3423.39
3391.46
3358.58
3325.08
3291.29
3257.52
3224.06
3191.2
3159.2
3128.3
3098.73
3070.66
3044.25
3019.61
2996.83
2975.97
2957.06
2940.09
2925.02
2911.81
2900.4
2890.69
2882.61
2876.08
2871.01
2867.34
2864.96
2863.82
2863.8
2864.85
2866.87
2869.79
2873.57
2878.14
2883.47
2889.52
2896.27
2903.7
2911.82
2920.61
2930.07
2940.21
2951.02
2962.53
2974.75
2987.7
3001.41
3015.92
3031.24
3047.44
3064.56
3082.64
3101.74
3121.88
3143.06
3165.28
3188.47
3212.54
3237.36
3262.75
3288.5
3314.39
3340.15
3365.47
3390.05
3413.53
3435.57
3455.78
3473.8
3489.26
3501.82
3511.17
3517.03
3519.2
3517.53
3511.91
3502.45
3489.24
3472.41
3452.22
3429.01
3403.14
3375.05
3345.16
3313.95
3281.89
3249.46
3217.11
3185.27
3154.33
3124.6
3096.32
3069.69
3044.81
3021.77
3000.57
2981.21
2963.63
2947.77
2933.53
2920.8
2909.49
2899.47
2890.63
2882.87
2876.07
2870.13
2864.96
2860.46
2856.55
2853.15
2850.19
2847.62
2845.4
2843.53
2842.03
2840.92
2840.25
2840.09
2840.5
2841.55
2843.34
2845.98
2849.58
2854.24
2860.07
2867.18
2875.65
2885.58
2897.05
2910.13
2924.89
2941.39
2959.67
2979.76
3001.67
3025.39
3050.87
3078.03
3106.74
3136.84
3168.09
3200.22
3232.91
3265.78
3298.42
3330.38
3361.17
3390.27
3417.17
3441.38
3462.46
3480
3493.6
3503.06
3508.08
3509.02
3505.85
3498.59
3487.61
3473.26
3455.91
3435.98
3413.91
3390.1
3365.12
3339.53
3313.75
3288.14
3263.05
3238.7
3215.28
3192.92
3171.67
3151.58
3132.62
3114.78
3098.03
3082.35
3067.7
3054.09
3041.49
3029.91
3019.35
3009.8
3001.27
2993.74
2987.2
2981.62
2976.98
2973.24
2970.36
2968.29
2966.99
2966.39
2966.47
2967.52
2969.34
2971.89
2975.18
2979.25
2984.17
2990.02
2996.89
3004.91
3014.17
3024.82
3036.92
3050.58
3065.86
3082.78
3101.39
3121.68
3143.58
3167.04
3191.96
3218.21
3245.63
3274.08
3303.34
3333.2
3363.4
3393.67
3423.77
3453.38
3482.15
3509.82
3536.04
3560.51
3582.91
3602.92
3620.28
3634.73
3646.04
3654.02
3658.56
3659.58
3656.93
3650.74
3641.01
3628.05
3612.18
3057.73
3083.5
3110.7
3139.3
3169.24
3200.32
3232.33
3265.03
3298.13
3331.37
3364.4
3396.79
3428.16
3458.05
3486.03
3511.68
3534.62
3554.54
3571.18
3584.28
3593.65
3599.16
3600.69
3598.19
3591.71
3581.32
3567.16
3549.43
3528.39
3504.32
3477.54
3448.47
3417.52
3385.12
3351.71
3317.69
3283.5
3249.56
3216.17
3183.66
3152.3
3122.27
3093.72
3066.74
3041.38
3017.66
2995.56
2975.05
2956.05
2938.53
2922.4
2907.62
2894.13
2881.87
2870.81
2860.9
2852.15
2844.51
2838
2832.59
2828.28
2825.04
2822.85
2821.67
2821.52
2822.4
2824.56
2827.99
2832.74
2838.78
2846.12
2854.79
2864.78
2876.27
2889.23
2903.51
2918.89
2935.12
2952.04
2969.42
2987.44
3006.17
3025.71
3046.41
3068.4
3091.88
3116.89
3143.44
3171.37
3200.47
3230.41
3260.84
3291.32
3321.4
3350.66
3378.69
3405.12
3429.61
3451.79
3471.36
3488.01
3501.48
3511.55
3518.04
3520.83
3519.83
3515.02
3506.41
3494.17
3478.42
3459.37
3437.3
3412.54
3385.41
3356.3
3325.54
3293.5
3260.52
3226.93
3193.06
3159.2
3125.66
3092.73
3060.67
3029.73
3000.11
2972.01
2945.57
2920.92
2898.14
2877.28
2858.38
2841.42
2826.37
2813.19
2801.8
2792.12
2784.06
2777.56
2772.52
2768.87
2766.52
2765.4
2765.41
2766.47
2768.51
2771.46
2775.25
2779.83
2785.16
2791.22
2797.97
2805.41
2813.53
2822.32
2831.77
2841.9
2852.71
2864.21
2876.41
2889.35
2903.05
2917.53
2932.84
2949.02
2966.12
2984.18
3003.26
3023.39
3044.57
3066.79
3090
3114.1
3138.95
3164.39
3190.2
3216.16
3241.99
3267.41
3292.08
3315.68
3337.83
3358.16
3376.3
3391.88
3404.55
3413.98
3419.91
3422.13
3420.48
3414.86
3405.37
3392.09
3375.17
3354.88
3331.54
3305.54
3277.3
3247.26
3215.9
3183.71
3151.14
3118.68
3086.75
3055.72
3025.93
2997.62
2970.97
2946.09
2923.06
2901.88
2882.55
2865
2849.17
2834.97
2822.28
2811.01
2801.02
2792.22
2784.49
2777.72
2771.81
2766.67
2762.19
2758.3
2754.92
2751.97
2749.41
2747.2
2745.32
2743.81
2742.68
2742
2741.82
2742.2
2743.23
2744.99
2747.6
2751.16
2755.79
2761.59
2768.67
2777.12
2787.02
2798.46
2811.52
2826.26
2842.74
2861
2881.09
2903
2926.72
2952.21
2979.4
3008.15
3038.3
3069.62
3101.83
3134.63
3167.61
3200.39
3232.49
3263.43
3292.68
3319.72
3344.07
3365.26
3382.9
3396.59
3406.1
3411.14
3412.06
3408.83
3401.52
3390.47
3376.03
3358.58
3338.54
3316.36
3292.44
3267.36
3241.68
3215.81
3190.13
3164.98
3140.58
3117.11
3094.72
3073.45
3053.34
3034.36
3016.5
2999.74
2984.04
2969.38
2955.76
2943.16
2931.57
2921
2911.45
2902.92
2895.39
2888.85
2883.28
2878.65
2874.91
2872.04
2869.99
2868.69
2868.11
2868.18
2869.24
2871.05
2873.59
2876.87
2880.92
2885.81
2891.63
2898.48
2906.46
2915.69
2926.3
2938.38
2952.01
2967.27
2984.18
3002.79
3023.08
3044.99
3068.46
3093.41
3119.69
3147.14
3175.64
3204.94
3234.87
3265.14
3295.48
3325.66
3355.36
3384.23
3411.99
3438.31
3462.88
3485.38
3505.48
3522.92
3537.45
3548.82
3556.85
3561.42
3562.45
3559.78
3553.56
3543.79
3530.76
3514.82
2959.05
2984.83
3012.05
3040.69
3070.67
3101.8
3133.89
3166.66
3199.85
3233.21
3266.35
3298.88
3330.4
3360.44
3388.56
3414.34
3437.4
3457.42
3474.15
3487.32
3496.74
3502.28
3503.82
3501.3
3494.79
3484.34
3470.1
3452.28
3431.13
3406.94
3380.02
3350.81
3319.72
3287.18
3253.63
3219.48
3185.18
3151.14
3117.66
3085.09
3053.68
3023.61
2995.04
2968.05
2942.71
2919
2896.92
2876.43
2857.46
2839.96
2823.86
2809.1
2795.63
2783.38
2772.33
2762.44
2753.68
2746.06
2739.55
2734.14
2729.83
2726.6
2724.41
2723.23
2723.06
2723.92
2726.06
2729.46
2734.19
2740.21
2747.54
2756.22
2766.23
2777.76
2790.79
2805.15
2820.62
2836.93
2853.9
2871.32
2889.35
2908.06
2927.56
2948.21
2970.14
2993.58
3018.56
3045.1
3073.05
3102.19
3132.19
3162.7
3193.27
3223.46
3252.82
3280.97
3307.52
3332.11
3354.41
3374.08
3390.82
3404.38
3414.52
3421.06
3423.89
3422.9
3418.08
3409.44
3397.14
3381.31
3362.16
3339.98
3315.1
3287.85
3258.6
3227.72
3195.57
3162.48
3128.78
3094.8
3060.85
3027.23
2994.22
2962.09
2931.08
2901.42
2873.28
2846.81
2822.15
2799.36
2778.5
2759.61
2742.67
2727.65
2714.49
2703.13
2693.48
2685.46
2678.98
2673.97
2670.35
2668.03
2666.93
2666.97
2668.06
2670.12
2673.09
2676.89
2681.49
2686.83
2692.89
2699.65
2707.09
2715.21
2723.99
2733.45
2743.57
2754.37
2765.86
2778.05
2790.97
2804.65
2819.11
2834.4
2850.56
2867.63
2885.67
2904.73
2924.84
2946.02
2968.25
2991.48
3015.61
3040.5
3065.99
3091.87
3117.91
3143.83
3169.35
3194.14
3217.85
3240.14
3260.61
3278.89
3294.6
3307.39
3316.93
3322.94
3325.21
3323.58
3317.97
3308.44
3295.08
3278.06
3257.64
3234.16
3208
3179.6
3149.39
3117.87
3085.51
3052.8
3020.2
2988.15
2957.04
2927.19
2898.84
2872.17
2847.29
2824.26
2803.11
2783.8
2766.29
2750.5
2736.34
2723.7
2712.47
2702.52
2693.76
2686.07
2679.33
2673.46
2668.35
2663.9
2660.03
2656.67
2653.74
2651.19
2648.98
2647.1
2645.57
2644.43
2643.73
2643.52
2643.88
2644.88
2646.6
2649.18
2652.7
2657.3
2663.06
2670.11
2678.52
2688.39
2699.81
2712.84
2727.55
2744.01
2762.26
2782.33
2804.24
2827.96
2853.47
2880.68
2909.48
2939.69
2971.09
3003.41
3036.32
3069.44
3102.37
3134.64
3165.74
3195.17
3222.37
3246.87
3268.19
3285.95
3299.72
3309.3
3314.36
3315.25
3311.97
3304.6
3293.47
3278.93
3261.36
3241.2
3218.89
3194.84
3169.64
3143.86
3117.89
3092.13
3066.91
3042.45
3018.93
2996.51
2975.2
2955.07
2936.07
2918.19
2901.42
2885.71
2871.04
2857.4
2844.79
2833.19
2822.62
2813.06
2804.53
2797
2790.46
2784.9
2780.28
2776.56
2773.7
2771.65
2770.37
2769.8
2769.87
2770.93
2772.74
2775.27
2778.53
2782.56
2787.42
2793.2
2800.01
2807.96
2817.15
2827.73
2839.77
2853.38
2868.62
2885.51
2904.11
2924.4
2946.32
2969.81
2994.78
3021.1
3048.6
3077.14
3106.51
3136.5
3166.85
3197.28
3227.56
3257.36
3286.33
3314.2
3340.64
3365.32
3387.93
3408.14
3425.68
3440.3
3451.74
3459.82
3464.43
3465.46
3462.78
3456.52
3446.69
3433.59
3417.56
2860.3
2886.09
2913.34
2942.01
2972.04
3003.24
3035.4
3068.26
3101.55
3135.03
3168.32
3201
3232.69
3262.88
3291.16
3317.1
3340.29
3360.43
3377.25
3390.5
3399.98
3405.55
3407.11
3404.57
3398.02
3387.5
3373.18
3355.24
3333.97
3309.64
3282.57
3253.2
3221.95
3189.25
3155.55
3121.26
3086.83
3052.67
3019.11
2986.46
2954.99
2924.88
2896.29
2869.3
2843.96
2820.27
2798.22
2777.75
2758.81
2741.33
2725.26
2710.53
2697.07
2684.85
2673.81
2663.92
2655.18
2647.55
2641.05
2635.65
2631.34
2628.11
2625.92
2624.75
2624.56
2625.39
2627.51
2630.88
2635.58
2641.57
2648.9
2657.58
2667.61
2679.19
2692.31
2706.76
2722.32
2738.73
2755.77
2773.22
2791.26
2809.94
2829.4
2849.99
2871.87
2895.25
2920.2
2946.73
2974.7
3003.88
3033.96
3064.56
3095.23
3125.53
3155.02
3183.29
3209.97
3234.69
3257.11
3276.9
3293.75
3307.41
3317.62
3324.23
3327.09
3326.12
3321.28
3312.62
3300.25
3284.32
3265.07
3242.76
3217.74
3190.35
3160.96
3129.94
3097.65
3064.43
3030.62
2996.52
2962.47
2928.75
2895.65
2863.44
2832.37
2802.65
2774.47
2747.97
2723.29
2700.49
2679.64
2660.76
2643.84
2628.85
2615.72
2604.4
2594.78
2586.79
2580.35
2575.37
2571.78
2569.49
2568.43
2568.5
2569.61
2571.7
2574.69
2578.51
2583.12
2588.48
2594.54
2601.3
2608.75
2616.86
2625.64
2635.09
2645.21
2656
2667.47
2679.65
2692.55
2706.21
2720.66
2735.92
2752.05
2769.09
2787.11
2806.15
2826.24
2847.42
2869.65
2892.9
2917.07
2942.01
2967.56
2993.51
3019.64
3045.67
3071.29
3096.21
3120.07
3142.5
3163.13
3181.57
3197.43
3210.35
3220.01
3226.11
3228.44
3226.84
3221.23
3211.65
3198.21
3181.08
3160.52
3136.87
3110.54
3081.95
3051.55
3019.84
2987.3
2954.42
2921.67
2889.5
2858.29
2828.36
2799.97
2773.27
2748.39
2725.38
2704.25
2684.98
2667.51
2651.77
2637.65
2625.06
2613.88
2603.98
2595.26
2587.61
2580.91
2575.08
2570
2565.58
2561.74
2558.41
2555.49
2552.95
2550.74
2548.86
2547.31
2546.16
2545.44
2545.21
2545.53
2546.49
2548.18
2550.72
2554.2
2558.75
2564.48
2571.49
2579.86
2589.7
2601.08
2614.08
2628.77
2645.2
2663.43
2683.49
2705.39
2729.13
2754.65
2781.89
2810.74
2841.02
2872.51
2904.94
2937.98
2971.26
3004.36
3036.81
3068.11
3097.72
3125.11
3149.78
3171.26
3189.14
3203.02
3212.66
3217.75
3218.62
3215.28
3207.84
3196.61
3181.95
3164.25
3143.95
3121.49
3097.3
3071.98
3046.07
3019.99
2994.14
2968.84
2944.31
2920.75
2898.28
2876.94
2856.78
2837.76
2819.86
2803.07
2787.35
2772.66
2759.01
2746.38
2734.77
2724.19
2714.63
2706.1
2698.57
2692.04
2686.49
2681.87
2678.17
2675.32
2673.29
2672.02
2671.46
2671.53
2672.6
2674.4
2676.92
2680.16
2684.16
2688.99
2694.74
2701.5
2709.4
2718.56
2729.09
2741.1
2754.68
2769.89
2786.77
2805.36
2825.65
2847.59
2871.09
2896.09
2922.45
2949.99
2978.59
3008.03
3038.1
3068.53
3099.06
3129.44
3159.36
3188.46
3216.46
3243.01
3267.82
3290.56
3310.89
3328.54
3343.26
3354.78
3362.92
3367.57
3368.61
3365.92
3359.61
3349.72
3336.54
3320.41
2761.47
2787.28
2814.55
2843.27
2873.36
2904.62
2936.86
2969.82
3003.22
3036.83
3070.28
3103.14
3135.01
3165.39
3193.84
3219.95
3243.28
3263.56
3280.49
3293.83
3303.38
3308.98
3310.55
3308
3301.39
3290.8
3276.38
3258.33
3236.92
3212.43
3185.19
3155.65
3124.22
3091.34
3057.48
3023.02
2988.45
2954.17
2920.49
2887.76
2856.23
2826.08
2797.47
2770.47
2745.14
2721.47
2699.44
2679
2660.09
2642.65
2626.61
2611.9
2598.47
2586.26
2575.24
2565.36
2556.63
2549.01
2542.5
2537.11
2532.81
2529.58
2527.4
2526.22
2526.02
2526.81
2528.91
2532.25
2536.91
2542.88
2550.19
2558.88
2568.93
2580.56
2593.78
2608.33
2624
2640.52
2657.63
2675.12
2693.17
2711.83
2731.23
2751.76
2773.57
2796.89
2821.81
2848.33
2876.32
2905.56
2935.71
2966.41
2997.2
3027.63
3057.25
3085.66
3112.48
3137.35
3159.9
3179.82
3196.8
3210.55
3220.86
3227.53
3230.43
3229.48
3224.63
3215.93
3203.49
3187.47
3168.09
3145.64
3120.46
3092.92
3063.37
3032.19
2999.76
2966.39
2932.45
2898.23
2864.05
2830.22
2797.02
2764.73
2733.58
2703.8
2675.58