/*--------------------------------*- C++ -*----------------------------------*\
| =========                 |                                                 |
| \\      /  F ield         | OpenFOAM: The Open Source CFD Toolbox           |
|  \\    /   O peration     | Version:  3.0.1                                 |
|   \\  /    A nd           | Web:      www.OpenFOAM.org                      |
|    \\/     M anipulation  |                                                 |
\*---------------------------------------------------------------------------*/
FoamFile
{
    version     2.0;
    format      ascii;
    class       surfaceScalarField;
    location    "55.8";
    object      phi;
}
// * * * * * * * * * * * * * * * * * * * * * * * * * * * * * * * * * * * * * //

dimensions      [0 3 -1 0 0 0 0];

internalField   nonuniform List<scalar> 
42423
(
-0.000177723
3.46523e-06
-0.000180396
2.67308e-06
-0.000182361
1.96437e-06
-0.000183639
1.278e-06
-0.00018424
6.01485e-07
-0.000184164
-7.64788e-08
-0.000183313
-8.50477e-07
-0.000181728
-1.58516e-06
-0.000179546
-2.18243e-06
-0.000176553
-2.99304e-06
-0.000172845
-3.70782e-06
-0.000168415
-4.43006e-06
-0.000163068
-5.34732e-06
-0.000156965
-6.10205e-06
-0.000149847
-7.11812e-06
-0.000141866
-7.98113e-06
-0.000133126
-8.74033e-06
-0.00012338
-9.7464e-06
-0.000112546
-1.08339e-05
-0.000100832
-1.17139e-05
-8.8019e-05
-1.28128e-05
-7.42142e-05
-1.38049e-05
-5.95762e-05
-1.4638e-05
-4.39017e-05
-1.56746e-05
-2.74389e-05
-1.64628e-05
-1.01343e-05
-1.73046e-05
7.85846e-06
-1.79928e-05
2.62544e-05
-1.8396e-05
4.51194e-05
-1.88651e-05
6.42188e-05
-1.90995e-05
8.31446e-05
-1.89258e-05
0.000101848
-1.87033e-05
0.000120061
-1.82127e-05
0.000137494
-1.74339e-05
0.000153903
-1.64083e-05
0.000168953
-1.50502e-05
0.000182511
-1.35579e-05
0.000194299
-1.17885e-05
0.000204033
-9.7336e-06
0.00021162
-7.58712e-06
0.000216885
-5.26537e-06
0.000219794
-2.90942e-06
0.00022028
-4.85258e-07
0.000218197
2.08271e-06
0.000213699
4.49784e-06
0.000206969
6.7305e-06
0.000197981
8.98728e-06
0.000186972
1.10095e-05
0.000174163
1.28084e-05
0.000159786
1.43773e-05
0.000143973
1.58133e-05
0.000127062
1.6911e-05
0.000109396
1.76654e-05
9.1102e-05
1.82942e-05
7.2462e-05
1.86399e-05
5.3693e-05
1.87691e-05
3.49906e-05
1.87024e-05
1.65916e-05
1.8399e-05
-1.37605e-06
1.79676e-05
-1.87691e-05
1.7393e-05
-3.54609e-05
1.66918e-05
-5.1387e-05
1.59261e-05
-6.64241e-05
1.50371e-05
-8.05541e-05
1.413e-05
-9.3771e-05
1.32168e-05
-0.000105984
1.22127e-05
-0.0001172
1.12163e-05
-0.000127472
1.02722e-05
-0.000136748
9.27546e-06
-0.000145137
8.38946e-06
-0.000152584
7.44722e-06
-0.000159102
6.51754e-06
-0.000164784
5.68218e-06
-0.000169572
4.78842e-06
-0.000173459
3.88692e-06
-0.000176525
3.06594e-06
-0.000178685
2.15956e-06
-0.000180097
1.41224e-06
-0.000180653
5.55449e-07
-0.000180375
-2.77564e-07
-0.000179344
-1.03083e-06
-0.000177501
-1.84349e-06
-0.000174761
-2.73988e-06
-0.000171266
-3.49497e-06
-0.000166948
-4.3177e-06
-0.000161781
-5.16718e-06
-0.000155866
-5.91532e-06
-0.000149115
-6.75066e-06
-0.000141615
-7.50027e-06
-0.000133394
-8.22101e-06
-0.000124395
-8.99926e-06
-0.000114815
-9.57983e-06
-0.000104493
-1.0322e-05
-9.34378e-05
-1.1055e-05
-8.1622e-05
-1.18158e-05
-6.90675e-05
-1.25546e-05
-5.57337e-05
-1.33338e-05
-4.16553e-05
-1.40784e-05
-2.68617e-05
-1.47936e-05
-1.13604e-05
-1.55014e-05
4.77151e-06
-1.61319e-05
2.14373e-05
-1.66658e-05
3.85354e-05
-1.70982e-05
5.58872e-05
-1.73518e-05
7.33612e-05
-1.74741e-05
9.07526e-05
-1.73914e-05
0.000107877
-1.71248e-05
0.000124521
-1.66438e-05
0.000140459
-1.59381e-05
0.000155487
-1.50279e-05
0.00016936
-1.38732e-05
0.000181815
-1.24552e-05
0.000192678
-1.08623e-05
0.000201718
-9.04049e-06
0.000208689
-6.97134e-06
0.000213516
-4.82616e-06
0.000216032
-2.51691e-06
0.000216161
-1.28535e-07
0.000213858
2.3025e-06
0.000209045
4.81308e-06
0.000201927
7.11866e-06
0.000192556
9.37051e-06
0.000181075
1.14812e-05
0.000167733
1.33414e-05
0.000152755
1.49781e-05
0.000136396
1.63592e-05
0.000118911
1.74852e-05
0.0001006
1.83103e-05
8.17679e-05
1.88325e-05
6.26392e-05
1.91287e-05
4.35054e-05
1.91338e-05
2.45422e-05
1.89632e-05
6.02306e-06
1.85191e-05
-1.19292e-05
1.79523e-05
-2.91181e-05
1.71889e-05
-4.5422e-05
1.63039e-05
-6.07236e-05
1.53016e-05
-7.49955e-05
1.42719e-05
-8.81632e-05
1.31677e-05
-0.000100205
1.20414e-05
-0.000111153
1.09486e-05
-0.000121033
9.87968e-06
-0.000129847
8.81442e-06
-0.000137647
7.79933e-06
-0.000144487
6.84025e-06
-0.000150403
5.91641e-06
-0.000155423
5.01958e-06
-0.000159717
4.29409e-06
-0.00016323
3.51274e-06
-0.00016601
2.78068e-06
-0.000168086
2.07522e-06
-0.0001695
1.41397e-06
-0.00017032
8.20778e-07
-0.000170528
2.07363e-07
-0.000170165
-3.62861e-07
-0.00016928
-8.84548e-07
-0.000167795
-1.48487e-06
-0.000165765
-2.03054e-06
-0.000163129
-2.63589e-06
-0.000159952
-3.17722e-06
-0.000156163
-3.78856e-06
-0.000151738
-4.42492e-06
-0.000146734
-5.00436e-06
-0.000141008
-5.72547e-06
-0.000134525
-6.48327e-06
-0.000127404
-7.12174e-06
-0.000119435
-7.96816e-06
-0.000110651
-8.78407e-06
-0.00010103
-9.62096e-06
-9.05649e-05
-1.04654e-05
-7.92566e-05
-1.13084e-05
-6.70676e-05
-1.2189e-05
-5.40854e-05
-1.29822e-05
-4.02812e-05
-1.38042e-05
-2.56789e-05
-1.46024e-05
-1.03443e-05
-1.53346e-05
5.63548e-06
-1.59798e-05
2.21609e-05
-1.65254e-05
3.91535e-05
-1.69926e-05
5.63869e-05
-1.72334e-05
7.37292e-05
-1.73423e-05
9.10022e-05
-1.7273e-05
0.000107933
-1.6931e-05
0.000124319
-1.63856e-05
0.000139885
-1.55664e-05
0.000154386
-1.45011e-05
0.000167565
-1.31792e-05
0.000179173
-1.16075e-05
0.000188909
-9.73629e-06
0.000196603
-7.69423e-06
0.000201997
-5.39389e-06
0.000205034
-3.03696e-06
0.000205622
-5.88442e-07
0.000203753
1.86972e-06
0.0001994
4.35263e-06
0.000192661
6.73927e-06
0.000183685
8.97585e-06
0.000172683
1.10014e-05
0.000159854
1.28296e-05
0.000145481
1.43724e-05
0.000129847
1.5634e-05
0.000113196
1.66515e-05
9.58661e-05
1.73297e-05
7.80555e-05
1.78106e-05
6.00875e-05
1.7968e-05
4.21295e-05
1.7958e-05
2.44081e-05
1.77213e-05
7.04993e-06
1.73582e-05
-9.79538e-06
1.68453e-05
-2.60032e-05
1.62078e-05
-4.14784e-05
1.54751e-05
-5.60932e-05
1.46148e-05
-6.9778e-05
1.36848e-05
-8.25166e-05
1.27386e-05
-9.4269e-05
1.17523e-05
-0.000105043
1.0774e-05
-0.000114828
9.78538e-06
-0.00012366
8.83165e-06
-0.000131587
7.92723e-06
-0.000138629
7.04191e-06
-0.000144835
6.20593e-06
-0.000150234
5.39847e-06
-0.000154888
4.65432e-06
-0.000158826
3.93861e-06
-0.000162063
3.23691e-06
-0.000164633
2.56994e-06
-0.000166606
1.97231e-06
-0.000167935
1.32935e-06
-0.000168687
7.51617e-07
-0.000168849
1.61978e-07
-0.000168469
-3.79098e-07
-0.000167498
-9.71086e-07
-0.000165898
-1.60039e-06
-0.000163788
-2.11003e-06
-0.000161021
-2.7671e-06
-0.000157636
-3.38452e-06
-0.000153612
-4.02469e-06
-0.000149011
-4.60109e-06
-0.000143894
-5.11621e-06
-0.000138197
-5.69748e-06
-0.000131905
-6.29198e-06
-0.000125014
-6.89114e-06
-0.000117343
-7.6711e-06
-0.000109048
-8.29519e-06
-9.98725e-05
-9.17503e-06
-8.98079e-05
-1.00646e-05
-7.89342e-05
-1.08737e-05
-6.72076e-05
-1.17267e-05
-5.46772e-05
-1.25304e-05
-4.13876e-05
-1.32896e-05
-2.74202e-05
-1.39674e-05
-1.28329e-05
-1.45873e-05
2.25467e-06
-1.50876e-05
1.78037e-05
-1.5549e-05
3.36959e-05
-1.58923e-05
4.98396e-05
-1.61437e-05
6.60578e-05
-1.62182e-05
8.21938e-05
-1.6136e-05
9.80549e-05
-1.58612e-05
0.000113397
-1.53419e-05
0.00012796
-1.45628e-05
0.00014149
-1.35305e-05
0.000153727
-1.2237e-05
0.000164444
-1.07168e-05
0.000173384
-8.93996e-06
0.000180365
-6.98104e-06
0.00018521
-4.84502e-06
0.00018779
-2.57994e-06
0.000188051
-2.61723e-07
0.000185997
2.05477e-06
0.000181537
4.45947e-06
0.000174931
6.60638e-06
0.000166326
8.60445e-06
0.00015585
1.04761e-05
0.000143901
1.19487e-05
0.000130572
1.3329e-05
0.000116354
1.4218e-05
0.000101356
1.49987e-05
8.60865e-05
1.52693e-05
7.05288e-05
1.55577e-05
5.51833e-05
1.53455e-05
3.98652e-05
1.5318e-05
2.49565e-05
1.49088e-05
1.0359e-05
1.45974e-05
-3.74564e-06
1.41047e-05
-1.74473e-05
1.37016e-05
-3.0597e-05
1.31497e-05
-4.3149e-05
1.2552e-05
-5.50641e-05
1.19152e-05
-6.62031e-05
1.11389e-05
-7.66327e-05
1.04296e-05
-8.62319e-05
9.59917e-06
-9.49951e-05
8.76323e-06
-0.000102967
7.97196e-06
-0.000110135
7.16778e-06
-0.000116503
6.36832e-06
-0.000122162
5.65876e-06
-0.000127089
4.92664e-06
-0.000131357
4.26808e-06
-0.000135037
3.68001e-06
-0.000138083
3.04676e-06
-0.000140664
2.58028e-06
-0.000142772
2.10856e-06
-0.000144439
1.66666e-06
-0.000145744
1.30488e-06
-0.00014664
8.96085e-07
-0.000147138
4.98037e-07
-0.000147229
9.15582e-08
-0.00014688
-3.49547e-07
-0.000146043
-8.36984e-07
-0.000144707
-1.33638e-06
-0.000142689
-2.01776e-06
-0.000140037
-2.65164e-06
-0.000136715
-3.32256e-06
-0.000132506
-4.20903e-06
-0.000127392
-5.11378e-06
-0.000121225
-6.16672e-06
-0.000114126
-7.09914e-06
-0.000105939
-8.18742e-06
-9.65758e-05
-9.36278e-06
-8.61949e-05
-1.0381e-05
-7.47671e-05
-1.14278e-05
-6.21169e-05
-1.26502e-05
-4.84756e-05
-1.36413e-05
-3.37892e-05
-1.46865e-05
-1.82521e-05
-1.55371e-05
-2.13499e-06
-1.61171e-05
1.46202e-05
-1.67552e-05
3.18518e-05
-1.72317e-05
4.92055e-05
-1.73537e-05
6.66621e-05
-1.74566e-05
8.40145e-05
-1.73524e-05
0.000100879
-1.68646e-05
0.000117156
-1.62775e-05
0.000132619
-1.54626e-05
0.000147028
-1.44088e-05
0.000160178
-1.31497e-05
0.000171854
-1.16764e-05
0.000181905
-1.00512e-05
0.00019019
-8.28537e-06
0.000196597
-6.40638e-06
0.000201052
-4.45543e-06
0.000203528
-2.47581e-06
0.000204027
-4.99418e-07
0.000202436
1.59154e-06
0.000198766
3.66928e-06
0.000193249
5.51782e-06
0.00018595
7.29815e-06
0.000176911
9.03938e-06
0.000166442
1.04688e-05
0.000154579
1.18634e-05
0.000141623
1.29562e-05
0.000127593
1.403e-05
0.000112626
1.49669e-05
9.70967e-05
1.5529e-05
8.09923e-05
1.61043e-05
1.65082e-05
-0.00017776
6.93712e-06
-0.000180434
5.34726e-06
-0.000182402
3.93181e-06
-0.000183682
2.55867e-06
-0.000184284
1.20313e-06
-0.000184209
-1.51442e-07
-0.000183355
-1.70479e-06
-0.000181772
-3.16756e-06
-0.000179593
-4.36198e-06
-0.000176602
-5.98425e-06
-0.000172896
-7.41367e-06
-0.000168467
-8.85848e-06
-0.000163124
-1.06906e-05
-0.000157014
-1.22124e-05
-0.000149899
-1.42327e-05
-0.000141919
-1.59616e-05
-0.000133187
-1.74719e-05
-0.000123431
-1.95029e-05
-0.000112599
-2.16659e-05
-0.000100887
-2.34258e-05
-8.80722e-05
-2.56275e-05
-7.42638e-05
-2.76133e-05
-5.96224e-05
-2.92795e-05
-4.39429e-05
-3.13541e-05
-2.7476e-05
-3.29297e-05
-1.01624e-05
-3.46183e-05
7.84093e-06
-3.59962e-05
2.62402e-05
-3.67953e-05
4.51105e-05
-3.77354e-05
6.42196e-05
-3.82086e-05
8.31634e-05
-3.78697e-05
0.000101879
-3.7419e-05
0.0001201
-3.64336e-05
0.000137546
-3.48805e-05
0.000153973
-3.28349e-05
0.000169034
-3.01112e-05
0.000182598
-2.7122e-05
0.000194396
-2.3587e-05
0.000204138
-1.94758e-05
0.000211733
-1.51819e-05
0.000217003
-1.05355e-05
0.000219918
-5.82365e-06
0.000220404
-9.71997e-07
0.000218312
4.1748e-06
0.000213813
8.99687e-06
0.00020708
1.34637e-05
0.000198089
1.79783e-05
0.000187069
2.20287e-05
0.00017425
2.56279e-05
0.000159866
2.87606e-05
0.000144041
3.16392e-05
0.000127116
3.38355e-05
0.00010944
3.53416e-05
9.11343e-05
3.65996e-05
7.24838e-05
3.72904e-05
5.37046e-05
3.75482e-05
3.49927e-05
3.74143e-05
1.65852e-05
3.68064e-05
-1.38954e-06
3.59424e-05
-1.87934e-05
3.47968e-05
-3.54966e-05
3.3395e-05
-5.14286e-05
3.18581e-05
-6.64708e-05
3.00792e-05
-8.06061e-05
2.82653e-05
-9.38278e-05
2.64385e-05
-0.000106048
2.44326e-05
-0.000117273
2.2442e-05
-0.000127551
2.05502e-05
-0.000136824
1.85483e-05
-0.00014521
1.67755e-05
-0.000152655
1.48922e-05
-0.000159174
1.30369e-05
-0.000164863
1.13706e-05
-0.000169649
9.57451e-06
-0.000173531
7.76892e-06
-0.0001766
6.13462e-06
-0.000178763
4.32274e-06
-0.000180173
2.82221e-06
-0.000180724
1.10653e-06
-0.000180445
-5.56906e-07
-0.000179406
-2.06965e-06
-0.000177567
-3.68251e-06
-0.000174831
-5.47587e-06
-0.000171333
-6.99275e-06
-0.000166998
-8.65315e-06
-0.000161831
-1.03335e-05
-0.000155919
-1.18281e-05
-0.000149161
-1.35081e-05
-0.000141658
-1.50034e-05
-0.000133439
-1.64405e-05
-0.000124437
-1.80007e-05
-0.000114859
-1.91578e-05
-0.00010454
-2.0641e-05
-9.34874e-05
-2.21078e-05
-8.16709e-05
-2.36324e-05
-6.91177e-05
-2.51078e-05
-5.57901e-05
-2.66615e-05
-4.17139e-05
-2.81547e-05
-2.69211e-05
-2.95865e-05
-1.14137e-05
-3.10089e-05
4.73485e-06
-3.22805e-05
2.14011e-05
-3.33321e-05
3.85073e-05
-3.42045e-05
5.58698e-05
-3.47144e-05
7.33533e-05
-3.49578e-05
9.07581e-05
-3.47963e-05
0.000107896
-3.4263e-05
0.000124551
-3.32985e-05
0.000140498
-3.18854e-05
0.000155541
-3.00708e-05
0.000169431
-2.77635e-05
0.00018189
-2.49138e-05
0.000192762
-2.17347e-05
0.000201813
-1.80919e-05
0.000208791
-1.39496e-05
0.000213619
-9.65353e-06
0.000216136
-5.03437e-06
0.000216261
-2.53764e-07
0.000213937
4.62705e-06
0.000209127
9.62284e-06
0.000201997
1.42487e-05
0.000192612
1.87549e-05
0.000181123
2.29704e-05
0.000167765
2.66993e-05
0.000152765
2.99777e-05
0.000136399
3.27258e-05
0.000118879
3.50053e-05
0.000100554
3.66351e-05
8.17003e-05
3.76861e-05
6.25516e-05
3.82773e-05
4.34003e-05
3.82852e-05
2.44259e-05
3.79375e-05
5.88919e-06
3.70558e-05
-1.20718e-05
3.59133e-05
-2.92737e-05
3.43908e-05
-4.55815e-05
3.26117e-05
-6.09039e-05
3.0624e-05
-7.51689e-05
2.85369e-05
-8.83423e-05
2.6341e-05
-0.00010039
2.40891e-05
-0.000111338
2.18962e-05
-0.000121209
1.97515e-05
-0.00013002
1.76253e-05
-0.000137819
1.55977e-05
-0.000144649
1.36703e-05
-0.000150551
1.18183e-05
-0.000155629
1.00978e-05
-0.000159888
8.55368e-06
-0.000163395
7.01905e-06
-0.000166172
5.55781e-06
-0.000168243
4.1463e-06
-0.000169652
2.82319e-06
-0.000170472
1.64108e-06
-0.000170681
4.1606e-07
-0.000170278
-7.66058e-07
-0.000169413
-1.74935e-06
-0.000167928
-2.97022e-06
-0.00016589
-4.0683e-06
-0.000163245
-5.28063e-06
-0.000160072
-6.35009e-06
-0.000156278
-7.58317e-06
-0.00015186
-8.84243e-06
-0.000146845
-1.00194e-05
-0.00014113
-1.14409e-05
-0.000134644
-1.29696e-05
-0.000127518
-1.42471e-05
-0.000119546
-1.59407e-05
-0.000110758
-1.7572e-05
-0.000101139
-1.92403e-05
-9.06608e-05
-2.09433e-05
-7.93503e-05
-2.26189e-05
-6.71692e-05
-2.43702e-05
-5.41743e-05
-2.59771e-05
-4.03554e-05
-2.76232e-05
-2.57485e-05
-2.92093e-05
-1.04121e-05
-3.06711e-05
5.57493e-06
-3.19669e-05
2.2116e-05
-3.30665e-05
3.91136e-05
-3.39903e-05
5.63612e-05
-3.44811e-05
7.37252e-05
-3.47064e-05
9.10044e-05
-3.45522e-05
0.000107948
-3.38746e-05
0.000124352
-3.27895e-05
0.000139924
-3.11388e-05
0.000154447
-2.90243e-05
0.000167641
-2.63734e-05
0.000179252
-2.32181e-05
0.000188993
-1.94773e-05
0.000196682
-1.53836e-05
0.000202094
-1.08056e-05
0.000205127
-6.06972e-06
0.00020571
-1.17155e-06
0.000203827
3.75267e-06
0.000199464
8.71502e-06
0.00019272
1.34837e-05
0.000183729
1.79662e-05
0.000172711
2.20193e-05
0.000159878
2.56627e-05
0.000145475
2.87752e-05
0.000129859
3.12503e-05
0.000113156
3.33544e-05
9.57902e-05
3.46957e-05
7.79708e-05
3.56299e-05
5.99877e-05
3.59511e-05
4.20227e-05
3.5923e-05
2.42925e-05
3.54515e-05
6.91936e-06
3.47313e-05
-9.9372e-06
3.37019e-05
-2.61536e-05
3.24243e-05
-4.16267e-05
3.09482e-05
-5.62561e-05
2.92443e-05
-6.99434e-05
2.73721e-05
-8.26745e-05
2.54697e-05
-9.44408e-05
2.35186e-05
-0.000105211
2.15443e-05
-0.000115004
1.95784e-05
-0.000123825
1.76527e-05
-0.000131741
1.58434e-05
-0.000138781
1.40818e-05
-0.000144969
1.23937e-05
-0.000150381
1.081e-05
-0.000155052
9.32558e-06
-0.000158983
7.86983e-06
-0.000162213
6.4672e-06
-0.000164787
5.14335e-06
-0.000166753
3.93861e-06
-0.000168078
2.6544e-06
-0.000168813
1.48608e-06
-0.000168988
3.37666e-07
-0.000168594
-7.73035e-07
-0.000167623
-1.94252e-06
-0.000166024
-3.19921e-06
-0.000163919
-4.21559e-06
-0.000161143
-5.54315e-06
-0.00015775
-6.77685e-06
-0.000153725
-8.05007e-06
-0.000149121
-9.20538e-06
-0.000144001
-1.02357e-05
-0.0001383
-1.13987e-05
-0.000132013
-1.25786e-05
-0.00012512
-1.37841e-05
-0.000117487
-1.53044e-05
-0.000109151
-1.66317e-05
-9.99685e-05
-1.8357e-05
-8.9912e-05
-2.01212e-05
-7.90305e-05
-2.17552e-05
-6.72926e-05
-2.34646e-05
-5.47562e-05
-2.50668e-05
-4.14643e-05
-2.65816e-05
-2.74901e-05
-2.79417e-05
-1.29022e-05
-2.91752e-05
2.21859e-06
-3.02084e-05
1.77578e-05
-3.10883e-05
3.36533e-05
-3.17879e-05
4.98017e-05
-3.22922e-05
6.60322e-05
-3.24487e-05
8.21834e-05
-3.22872e-05
9.80494e-05
-3.17272e-05
0.000113397
-3.06892e-05
0.000127994
-2.91603e-05
0.000141522
-2.70589e-05
0.000153764
-2.44785e-05
0.000164491
-2.1444e-05
0.000173444
-1.78925e-05
0.000180439
-1.39763e-05
0.000185295
-9.70131e-06
0.000187884
-5.1685e-06
0.000188152
-5.30513e-07
0.000186097
4.11011e-06
0.00018163
8.92642e-06
0.000175026
1.32102e-05
0.000166418
1.72128e-05
0.000155926
2.09682e-05
0.000143973
2.39017e-05
0.000130623
2.66787e-05
0.000116398
2.84432e-05
0.000101383
3.00133e-05
8.61064e-05
3.05458e-05
7.05331e-05
3.1131e-05
5.51859e-05
3.06927e-05
3.98588e-05
3.06451e-05
2.49475e-05
2.98201e-05
1.03418e-05
2.92031e-05
-3.76571e-06
2.82122e-05
-1.74719e-05
2.74079e-05
-3.06262e-05
2.6304e-05
-4.31826e-05
2.51084e-05
-5.51047e-05
2.38373e-05
-6.62446e-05
2.22788e-05
-7.66758e-05
2.08608e-05
-8.62769e-05
1.92002e-05
-9.50409e-05
1.75273e-05
-0.000103016
1.59466e-05
-0.000110183
1.43352e-05
-0.000116551
1.27365e-05
-0.000122212
1.13198e-05
-0.00012715
9.86484e-06
-0.000131406
8.52325e-06
-0.000135072
7.34677e-06
-0.000138125
6.09942e-06
-0.000140705
5.1606e-06
-0.000142814
4.21764e-06
-0.000144482
3.33444e-06
-0.000145787
2.60925e-06
-0.00014668
1.78915e-06
-0.000147179
9.97144e-07
-0.000147279
1.92124e-07
-0.000146924
-7.04545e-07
-0.000146089
-1.67191e-06
-0.000144746
-2.68021e-06
-0.000142734
-4.02886e-06
-0.000140088
-5.29775e-06
-0.000136777
-6.6341e-06
-0.000132558
-8.42806e-06
-0.000127452
-1.02201e-05
-0.000121291
-1.23278e-05
-0.000114178
-1.42118e-05
-0.000106
-1.63655e-05
-9.66383e-05
-1.87244e-05
-8.62537e-05
-2.07655e-05
-7.48136e-05
-2.2868e-05
-6.21701e-05
-2.52937e-05
-4.85257e-05
-2.72857e-05
-3.38332e-05
-2.93791e-05
-1.82874e-05
-3.10829e-05
-2.16497e-06
-3.22395e-05
1.45971e-05
-3.35173e-05
3.18416e-05
-3.44762e-05
4.92111e-05
-3.47233e-05
6.66759e-05
-3.49214e-05
8.4035e-05
-3.47116e-05
0.000100915
-3.37444e-05
0.000117205
-3.25679e-05
0.000132675
-3.09321e-05
0.000147097
-2.88311e-05
0.000160265
-2.63182e-05
0.000171946
-2.33576e-05
0.000181997
-2.01014e-05
0.000190288
-1.65765e-05
0.000196699
-1.28175e-05
0.000201157
-8.91431e-06
0.000203635
-4.95368e-06
0.000204135
-9.99018e-07
0.000202536
3.19037e-06
0.000198863
7.34222e-06
0.000193339
1.10415e-05
0.000186037
1.46008e-05
0.000176988
1.80879e-05
0.00016651
2.09472e-05
0.000154637
2.3736e-05
0.000141671
2.59216e-05
0.000127632
2.80691e-05
0.000112656
2.99433e-05
9.71183e-05
3.10664e-05
8.10056e-05
3.2217e-05
3.30243e-05
-0.000177823
1.04122e-05
-0.000180501
8.02537e-06
-0.000182473
5.90411e-06
-0.000183759
3.84379e-06
-0.000184355
1.7996e-06
-0.00018427
-2.36711e-07
-0.000183408
-2.56668e-06
-0.000181826
-4.74948e-06
-0.000179647
-6.54153e-06
-0.000176656
-8.97443e-06
-0.000172952
-1.11178e-05
-0.000168526
-1.32843e-05
-0.0001632
-1.60169e-05
-0.000157082
-1.8331e-05
-0.000149966
-2.13486e-05
-0.000141991
-2.39366e-05
-0.000133279
-2.61833e-05
-0.000123502
-2.92808e-05
-0.000112675
-3.24929e-05
-0.000100963
-3.51376e-05
-8.81456e-05
-3.84448e-05
-7.43339e-05
-4.1425e-05
-5.96876e-05
-4.39258e-05
-4.40052e-05
-4.70366e-05
-2.75319e-05
-4.94031e-05
-1.02096e-05
-5.19407e-05
7.80652e-06
-5.40124e-05
2.62194e-05
-5.52082e-05
4.5109e-05
-5.66252e-05
6.42377e-05
-5.73374e-05
8.32016e-05
-5.68336e-05
0.000101932
-5.61495e-05
0.000120172
-5.46737e-05
0.000137645
-5.2354e-05
0.000154092
-4.92819e-05
0.000169167
-4.51863e-05
0.000182747
-4.07015e-05
0.000194563
-3.5403e-05
0.000204316
-2.92289e-05
0.000211924
-2.279e-05
0.000217201
-1.58126e-05
0.000220121
-8.74367e-06
0.000220604
-1.45519e-06
0.00021849
6.28891e-06
0.00021399
1.34964e-05
0.000207248
2.02057e-05
0.000198249
2.69773e-05
0.000187212
3.30657e-05
0.000174373
3.84671e-05
0.000159977
4.31563e-05
0.000144128
4.7488e-05
0.000127181
5.07826e-05
0.000109483
5.30392e-05
9.11576e-05
5.49252e-05
7.24884e-05
5.59596e-05
5.36919e-05
5.63446e-05
3.49644e-05
5.61418e-05
1.65433e-05
5.52275e-05
-1.43783e-06
5.39235e-05
-1.8852e-05
5.2211e-05
-3.55636e-05
5.01066e-05
-5.1502e-05
4.77966e-05
-6.65507e-05
4.51279e-05
-8.0692e-05
4.24066e-05
-9.39165e-05
3.9663e-05
-0.000106138
3.66543e-05
-0.000117362
3.36654e-05
-0.000127639
3.08271e-05
-0.000136911
2.78206e-05
-0.000145303
2.51673e-05
-0.000152748
2.23379e-05
-0.000159264
1.95523e-05
-0.000164951
1.70576e-05
-0.000169737
1.43606e-05
-0.000173623
1.16548e-05
-0.000176691
9.20259e-06
-0.000178853
6.48445e-06
-0.00018027
4.23913e-06
-0.000180807
1.64347e-06
-0.000180518
-8.45494e-07
-0.000179476
-3.11161e-06
-0.000177644
-5.514e-06
-0.000174909
-8.21135e-06
-0.000171418
-1.04835e-05
-0.000167073
-1.2998e-05
-0.000161908
-1.54988e-05
-0.000156005
-1.7731e-05
-0.000149248
-2.02655e-05
-0.000141747
-2.25045e-05
-0.000133529
-2.46585e-05
-0.00012453
-2.69995e-05
-0.000114963
-2.8725e-05
-0.000104655
-3.09486e-05
-9.36086e-05
-3.31546e-05
-8.18012e-05
-3.54398e-05
-6.92567e-05
-3.76524e-05
-5.59377e-05
-3.99805e-05
-4.18584e-05
-4.22341e-05
-2.70621e-05
-4.43828e-05
-1.15522e-05
-4.65189e-05
4.60177e-06
-4.84345e-05
2.12602e-05
-4.99906e-05
3.83795e-05
-5.13238e-05
5.5752e-05
-5.2087e-05
7.32565e-05
-5.24623e-05
9.06801e-05
-5.222e-05
0.000107839
-5.14216e-05
0.000124512
-4.99723e-05
0.00014048
-4.78536e-05
0.000155538
-4.51281e-05
0.00016945
-4.1676e-05
0.000181925
-3.73888e-05
0.000192813
-3.26223e-05
0.000201859
-2.71379e-05
0.000208877
-2.09678e-05
0.00021372
-1.44967e-05
0.000216245
-7.55959e-06
0.00021633
-3.39174e-07
0.000214
6.95767e-06
0.000209197
1.44257e-05
0.000202059
2.13863e-05
0.000192665
2.81487e-05
0.000181165
3.44705e-05
0.000167784
4.00807e-05
0.000152762
4.49991e-05
0.000136335
4.91532e-05
0.000118818
5.2522e-05
0.000100469
5.49844e-05
8.15943e-05
5.65607e-05
6.24224e-05
5.74491e-05
4.32463e-05
5.74613e-05
2.42636e-05
5.69202e-05
5.70963e-06
5.56098e-05
-1.22559e-05
5.38788e-05
-2.94807e-05
5.16156e-05
-4.58006e-05
4.89316e-05
-6.11403e-05
4.59637e-05
-7.54119e-05
4.28085e-05
-8.85801e-05
3.95092e-05
-0.000100631
3.61397e-05
-0.000111578
3.28433e-05
-0.000121439
2.96127e-05
-0.00013024
2.64258e-05
-0.000138027
2.33853e-05
-0.000144821
2.04639e-05
-0.00015074
1.77379e-05
-0.000155852
1.52095e-05
-0.000160101
1.28027e-05
-0.000163601
1.05192e-05
-0.000166374
8.3304e-06
-0.000168441
6.21337e-06
-0.000169865
4.24748e-06
-0.00017068
2.45567e-06
-0.000170876
6.11947e-07
-0.000170461
-1.18051e-06
-0.000169595
-2.61514e-06
-0.000168098
-4.4675e-06
-0.000166061
-6.10555e-06
-0.000163433
-7.90858e-06
-0.000160257
-9.52599e-06
-0.000156428
-1.1412e-05
-0.000152053
-1.32175e-05
-0.000147034
-1.50385e-05
-0.00014132
-1.71546e-05
-0.000134875
-1.94147e-05
-0.000127723
-2.13997e-05
-0.000119751
-2.39125e-05
-0.000110908
-2.6415e-05
-0.000101347
-2.88011e-05
-9.08677e-05
-3.14229e-05
-7.95577e-05
-3.3929e-05
-6.73742e-05
-3.65537e-05
-5.43672e-05
-3.89843e-05
-4.05493e-05
-4.14411e-05
-2.59388e-05
-4.38198e-05
-1.05897e-05
-4.60203e-05
5.41063e-06
-4.79672e-05
2.19593e-05
-4.96153e-05
3.89677e-05
-5.09989e-05
5.62402e-05
-5.17537e-05
7.36163e-05
-5.20825e-05
9.09182e-05
-5.18542e-05
0.000107883
-5.08393e-05
0.000124308
-4.92146e-05
0.000139901
-4.67318e-05
0.000154466
-4.35893e-05
0.000167662
-3.95694e-05
0.000179296
-3.4852e-05
0.000189055
-2.92364e-05
0.000196756
-2.30847e-05
0.000202209
-1.6259e-05
0.000205233
-9.09372e-06
0.000205806
-1.74486e-06
0.000203905
5.65382e-06
0.000199532
1.30879e-05
0.000192768
2.02477e-05
0.000183764
2.69702e-05
0.000172724
3.30592e-05
0.000159898
3.84888e-05
0.000145451
4.32219e-05
0.000129788
4.69136e-05
0.000113091
5.00511e-05
9.56937e-05
5.20931e-05
7.78613e-05
5.34624e-05
5.98583e-05
5.39541e-05
4.186e-05
5.39213e-05
2.412e-05
5.31916e-05
6.73317e-06
5.21181e-05
-1.01246e-05
5.05596e-05
-2.63507e-05
4.86504e-05
-4.18117e-05
4.64091e-05
-5.64661e-05
4.38987e-05
-7.01564e-05
4.10624e-05
-8.28496e-05
3.81629e-05
-9.46709e-05
3.53399e-05
-0.000105432
3.23051e-05
-0.000115215
2.93622e-05
-0.000124
2.64375e-05
-0.00013192
2.37631e-05
-0.000138966
2.11277e-05
-0.000145179
1.86071e-05
-0.000150591
1.62215e-05
-0.000155256
1.39906e-05
-0.000159187
1.18011e-05
-0.000162407
9.68689e-06
-0.000164975
7.71147e-06
-0.000166946
5.90956e-06
-0.000168269
3.97741e-06
-0.000168965
2.18239e-06
-0.000169168
5.40724e-07
-0.000168761
-1.18029e-06
-0.000167798
-2.90535e-06
-0.000166242
-4.75558e-06
-0.000164096
-6.36159e-06
-0.000161322
-8.31724e-06
-0.000157928
-1.01702e-05
-0.000153907
-1.20719e-05
-0.000149298
-1.38139e-05
-0.000144181
-1.53523e-05
-0.000138488
-1.7092e-05
-0.000132213
-1.88538e-05
-0.000125316
-2.06811e-05
-0.000117725
-2.28956e-05
-0.000109349
-2.50074e-05
-0.000100175
-2.75315e-05
-9.01247e-05
-3.01713e-05
-7.92268e-05
-3.26531e-05
-6.74839e-05
-3.52075e-05
-5.49445e-05
-3.76062e-05
-4.16483e-05
-3.98779e-05
-2.76711e-05
-4.1919e-05
-1.30851e-05
-4.37613e-05
2.03993e-06
-4.53334e-05
1.75992e-05
-4.66476e-05
3.35027e-05
-4.76914e-05
4.96717e-05
-4.84613e-05
6.59191e-05
-4.86961e-05
8.20867e-05
-4.84549e-05
9.79729e-05
-4.76134e-05
0.000113346
-4.60625e-05
0.000127949
-4.37632e-05
0.000141516
-4.06258e-05
0.000153788
-3.67503e-05
0.000164545
-3.22014e-05
0.000173524
-2.68718e-05
0.000180542
-2.09945e-05
0.000185421
-1.45804e-05
0.000188028
-7.77565e-06
0.000188302
-8.04166e-07
0.000186241
6.17062e-06
0.000181766
1.34018e-05
0.000175158
1.98184e-05
0.000166546
2.58248e-05
0.000156031
3.14825e-05
0.000144072
3.58614e-05
0.000130687
4.00639e-05
0.000116448
4.26819e-05
0.000101408
4.50534e-05
8.61219e-05
4.58316e-05
7.05234e-05
4.67294e-05
5.5173e-05
4.60431e-05
3.98273e-05
4.59908e-05
2.49127e-05
4.47347e-05
1.02976e-05
4.38181e-05
-3.80916e-06
4.2319e-05
-1.752e-05
4.11188e-05
-3.06769e-05
3.94608e-05
-4.32364e-05
3.76679e-05
-5.51662e-05
3.57671e-05
-6.63044e-05
3.3417e-05
-7.67371e-05
3.12936e-05
-8.63399e-05
2.8803e-05
-9.51042e-05
2.62916e-05
-0.000103081
2.39234e-05
-0.000110244
2.14986e-05
-0.000116611
1.91031e-05
-0.000122272
1.69804e-05
-0.000127205
1.4798e-05
-0.000131463
1.27812e-05
-0.000135117
1.10008e-05
-0.000138171
9.15316e-06
-0.000140748
7.73842e-06
-0.000142858
6.32745e-06
-0.000144528
5.00375e-06
-0.000145835
3.91693e-06
-0.000146724
2.67797e-06
-0.000147222
1.49485e-06
-0.000147337
3.0727e-07
-0.000146966
-1.07554e-06
-0.000146136
-2.50217e-06
-0.000144786
-4.02968e-06
-0.000142784
-6.03146e-06
-0.000140146
-7.93549e-06
-0.000136859
-9.92058e-06
-0.000132626
-1.26618e-05
-0.000127528
-1.53177e-05
-0.000121383
-1.84725e-05
-0.000114257
-2.13384e-05
-0.000106086
-2.45362e-05
-9.67304e-05
-2.80799e-05
-8.63432e-05
-3.11527e-05
-7.48896e-05
-3.43216e-05
-6.22549e-05
-3.79284e-05
-4.85981e-05
-4.09426e-05
-3.38936e-05
-4.40836e-05
-1.83372e-05
-4.66393e-05
-2.20014e-06
-4.83767e-05
1.45813e-05
-5.02989e-05
3.18431e-05
-5.1738e-05
4.92251e-05
-5.21053e-05
6.67074e-05
-5.24037e-05
8.40902e-05
-5.20944e-05
0.000100991
-5.06456e-05
0.0001173
-4.88769e-05
0.000132789
-4.64209e-05
0.000147235
-4.32768e-05
0.00016041
-3.94938e-05
0.000172101
-3.50482e-05
0.000182165
-3.0165e-05
0.000190466
-2.48775e-05
0.000196884
-1.92359e-05
0.000201348
-1.33783e-05
0.000203824
-7.42999e-06
0.000204314
-1.4887e-06
0.000202689
4.81554e-06
0.000199008
1.1023e-05
0.000193477
1.65724e-05
0.000186166
2.19111e-05
0.000177106
2.7148e-05
0.000166615
3.14384e-05
0.00015473
3.56208e-05
0.000141751
3.89003e-05
0.000127699
4.21212e-05
0.000112708
4.49343e-05
9.71571e-05
4.66176e-05
8.103e-05
4.8344e-05
4.95543e-05
-0.000177917
1.38914e-05
-0.000180605
1.07129e-05
-0.000182584
7.88351e-06
-0.000183871
5.13115e-06
-0.000184452
2.38029e-06
-0.000184353
-3.35592e-07
-0.000183488
-3.43173e-06
-0.000181907
-6.33088e-06
-0.000179728
-8.72006e-06
-0.00017674
-1.19624e-05
-0.000173039
-1.48187e-05
-0.000168617
-1.77062e-05
-0.000163321
-2.1313e-05
-0.000157182
-2.44704e-05
-0.000150066
-2.84648e-05
-0.000142098
-3.1904e-05
-0.000133406
-3.48762e-05
-0.000123613
-3.90732e-05
-0.000112787
-4.33188e-05
-0.000101076
-4.68491e-05
-8.82567e-05
-5.1264e-05
-7.44414e-05
-5.52403e-05
-5.97864e-05
-5.85809e-05
-4.40971e-05
-6.27259e-05
-2.76125e-05
-6.58878e-05
-1.02775e-05
-6.92757e-05
7.76208e-06
-7.2052e-05
2.61962e-05
-7.36424e-05
4.51101e-05
-7.55392e-05
6.42607e-05
-7.6488e-05
8.32583e-05
-7.58314e-05
0.000102016
-7.49076e-05
0.000120285
-7.29425e-05
0.000137791
-6.986e-05
0.00015427
-6.57606e-05
0.000169373
-6.02899e-05
0.000182976
-5.43044e-05
0.000194817
-4.72439e-05
0.000204587
-3.8999e-05
0.000212215
-3.04183e-05
0.000217503
-2.11004e-05
0.00022043
-1.16707e-05
0.000220903
-1.92837e-06
0.000218758
8.43365e-06
0.000214259
1.7996e-05
0.0002075
2.69644e-05
0.000198489
3.59883e-05
0.000187425
4.41297e-05
0.000174556
5.13361e-05
0.000160126
5.75858e-05
0.000144258
6.33557e-05
0.000127278
6.77633e-05
0.000109548
7.07688e-05
9.11924e-05
7.32808e-05
7.24952e-05
7.46568e-05
5.36729e-05
7.51669e-05
3.49223e-05
7.48924e-05
1.64809e-05
7.36689e-05
-1.511e-06
7.19154e-05
-1.89408e-05
6.96408e-05
-3.56677e-05
6.68335e-05
-5.16175e-05
6.37463e-05
-6.66729e-05
6.01834e-05
-8.08228e-05
5.65564e-05
-9.40524e-05
5.28927e-05
-0.000106278
4.88798e-05
-0.000117503
4.48904e-05
-0.00012778
4.11045e-05
-0.000137049
3.70893e-05
-0.000145445
3.35633e-05
-0.000152886
2.97793e-05
-0.0001594
2.60656e-05
-0.000165094
2.27517e-05
-0.000169876
1.91426e-05
-0.000173763
1.55424e-05
-0.000176836
1.22749e-05
-0.000178989
8.63802e-06
-0.000180409
5.65899e-06
-0.000180931
2.16573e-06
-0.000180635
-1.14199e-06
-0.000179592
-4.15459e-06
-0.000177766
-7.33948e-06
-0.000175038
-1.09402e-05
-0.00017156
-1.39613e-05
-0.000167198
-1.73597e-05
-0.000162072
-2.06251e-05
-0.000156151
-2.36516e-05
-0.000149395
-2.70217e-05
-0.0001419
-2.99995e-05
-0.000133687
-3.28713e-05
-0.000124699
-3.59874e-05
-0.000115146
-3.82788e-05
-0.000104855
-4.12394e-05
-9.38094e-05
-4.42001e-05
-8.20197e-05
-4.72296e-05
-6.94856e-05
-5.01866e-05
-5.61693e-05
-5.32969e-05
-4.20889e-05
-5.63145e-05
-2.72863e-05
-5.91855e-05
-1.17721e-05
-6.20331e-05
4.37582e-06