/*--------------------------------*- C++ -*----------------------------------*\
| =========                 |                                                 |
| \\      /  F ield         | OpenFOAM: The Open Source CFD Toolbox           |
|  \\    /   O peration     | Version:  3.0.1                                 |
|   \\  /    A nd           | Web:      www.OpenFOAM.org                      |
|    \\/     M anipulation  |                                                 |
\*---------------------------------------------------------------------------*/
FoamFile
{
    version     2.0;
    format      ascii;
    class       volScalarField;
    location    "19.6";
    object      p;
}
// * * * * * * * * * * * * * * * * * * * * * * * * * * * * * * * * * * * * * //

dimensions      [1 -1 -2 0 0 0 0];

internalField   nonuniform List<scalar> 
21420
(
3541.42
3546.33
3552.75
3560.66
3570.11
3581.16
3593.86
3608.29
3624.47
3642.45
3662.26
3683.89
3707.35
3732.59
3759.56
3788.16
3818.27
3849.74
3882.24
3915.04
3949.14
3983.65
4018.14
4052.26
4085.55
4117.6
4147.95
4176.18
4201.92
4224.8
4244.48
4260.69
4273.19
4281.79
4286.37
4286.77
4283.05
4275.23
4263.45
4247.9
4228.82
4206.5
4181.24
4153.41
4123.4
4091.63
4058.49
4024.42
3989.85
3955.19
3920.96
3889.26
3856.99
3825.41
3794.98
3765.96
3738.53
3712.81
3688.84
3666.68
3646.34
3627.8
3611.05
3596.07
3582.83
3571.3
3561.45
3553.26
3546.7
3541.76
3538.38
3536.56
3536.4
3537.85
3540.91
3545.57
3551.81
3559.62
3569.02
3580.02
3592.58
3606.71
3622.42
3639.69
3658.5
3678.86
3700.74
3724.13
3748.99
3775.27
3802.91
3831.81
3861.84
3892.84
3924.61
3956.89
3989.41
4021.85
4053.88
4085.14
4115.24
4143.81
4170.47
4194.86
4216.61
4235.41
4250.96
4263
4271.3
4275.72
4276.07
4272.38
4264.66
4252.93
4237.34
4218.11
4195.51
4169.85
4141.53
4110.95
4078.56
4044.82
4010.2
3975.15
3940.1
3905.47
3871.59
3838.8
3807.39
3777.56
3749.5
3723.35
3699.17
3677.04
3656.95
3638.9
3622.84
3608.72
3596.45
3585.94
3577.12
3569.87
3564.11
3559.76
3556.71
3554.92
3554.37
3554.96
3556.7
3559.59
3563.65
3568.91
3575.4
3583.19
3592.32
3602.87
3614.88
3628.43
3643.58
3660.36
3678.83
3699.02
3720.92
3744.54
3769.83
3796.74
3825.15
3854.93
3885.91
3917.88
3950.53
3983.56
4016.64
4049.37
4081.34
4112.12
4141.27
4168.36
4192.98
4214.73
4233.29
4248.33
4259.63
4267.01
4270.33
4269.53
4264.69
4255.9
4243.26
4227.02
4207.44
4184.84
4159.56
4131.99
4102.54
4071.61
4039.61
4006.95
3973.99
3941.1
3908.59
3876.74
3845.8
3815.97
3787.43
3760.31
3734.72
3710.73
3688.4
3667.76
3648.84
3631.63
3616.14
3602.35
3590.24
3579.78
3570.95
3563.72
3558.06
3553.94
3551.33
3550.24
3550.66
3552.54
3555.91
3560.76
3567.1
3574.96
3584.32
3595.21
3607.64
3621.61
3637.1
3654.14
3672.7
3692.77
3714.33
3737.35
3761.77
3787.53
3814.57
3842.77
3872.02
3902.17
3933.03
3964.36
3995.92
4027.4
4058.48
4088.79
4117.95
4145.56
4171.2
4194.48
4215.02
4232.45
4246.47
4256.82
4263.28
4265.7
4264.06
4258.33
4248.65
4235.09
4217.92
4197.41
4173.89
4147.75
4119.4
4089.29
4057.85
4025.55
3992.81
3960.06
3927.71
3896.44
3865.87
3836.26
3807.86
3780.85
3755.33
3731.34
3708.93
3688.08
3668.8
3651.06
3634.86
3620.17
3606.96
3595.25
3585.01
3576.24
3568.95
3563.13
3558.81
3555.97
3554.67
3554.95
3556.79
3560.25
3565.32
3572.02
3580.37
3590.37
3602.03
3615.37
3630.39
3647.07
3665.41
3685.38
3706.96
3730.08
3754.66
3780.62
3807.85
3836.17
3865.44
3895.29
3925.49
3956.08
3986.75
4017.16
4047.04
4076.04
4103.85
4130.14
4154.58
4176.88
4196.76
4213.95
4228.21
4239.34
4247.16
4251.56
4252.35
4249.5
4243.1
4233.22
4219.93
4203.42
4183.89
4161.62
4136.88
4109.99
4081.31
4051.19
4020.05
3988.27
3956.28
3924.55
3894.3
3864.58
3835.22
3806.91
3779.99
3754.61
3730.93
3443.26
3448.18
3454.58
3462.5
3471.94
3482.99
3495.69
3510.11
3526.3
3544.28
3564.07
3585.71
3609.16
3634.41
3661.38
3689.98
3720.1
3751.57
3784.09
3816.88
3850.99
3885.52
3920.03
3954.16
3987.48
4019.54
4049.91
4078.16
4103.92
4126.81
4146.51
4162.73
4175.24
4183.85
4188.43
4188.84
4185.1
4177.28
4165.49
4149.93
4130.84
4108.5
4083.22
4055.37
4025.35
3993.56
3960.4
3926.31
3891.72
3857.04
3822.8
3791.12
3758.83
3727.24
3696.8
3667.78
3640.35
3614.62
3590.66
3568.5
3548.16
3529.62
3512.87
3497.89
3484.66
3473.13
3463.28
3455.09
3448.54
3443.6
3440.21
3438.4
3438.24
3439.69
3442.75
3447.4
3453.64
3461.45
3470.86
3481.85
3494.41
3508.54
3524.25
3541.52
3560.33
3580.69
3602.57
3625.96
3650.82
3677.1
3704.75
3733.65
3763.68
3794.69
3826.47
3858.76
3891.29
3923.75
3955.79
3987.06
4017.18
4045.77
4072.44
4096.85
4118.62
4137.43
4152.99
4165.04
4173.36
4177.78
4178.12
4174.44
4166.71
4154.97
4139.38
4120.13
4097.51
4071.84
4043.49
4012.89
3980.49
3946.73
3912.09
3877.02
3841.95
3807.31
3773.42
3740.63
3709.2
3679.37
3651.31
3625.15
3600.98
3578.85
3558.77
3540.72
3524.66
3510.54
3498.27
3487.78
3478.95
3471.71
3465.96
3461.61
3458.56
3456.77
3456.22
3456.81
3458.55
3461.44
3465.5
3470.76
3477.25
3485.03
3494.16
3504.71
3516.72
3530.27
3545.41
3562.19
3580.65
3600.84
3622.74
3646.36
3671.65
3698.56
3726.97
3756.76
3787.75
3819.72
3852.38
3885.44
3918.53
3951.28
3983.26
4014.06
4043.23
4070.34
4094.97
4116.75
4135.32
4150.38
4161.68
4169.06
4172.39
4171.59
4166.74
4157.95
4145.3
4129.05
4109.45
4086.83
4061.53
4033.95
4004.47
3973.53
3941.51
3908.83
3875.86
3842.96
3810.44
3778.58
3747.64
3717.81
3689.26
3662.14
3636.54
3612.55
3590.22
3569.58
3550.66
3533.46
3517.97
3504.18
3492.07
3481.61
3472.78
3465.56
3459.9
3455.78
3453.17
3452.08
3452.5
3454.38
3457.75
3462.6
3468.94
3476.79
3486.16
3497.05
3509.48
3523.44
3538.94
3555.97
3574.54
3594.61
3616.16
3639.18
3663.6
3689.37
3716.41
3744.61
3773.87
3804.02
3834.89
3866.23
3897.8
3929.29
3960.39
3990.71
4019.89
4047.51
4073.17
4096.47
4117.03
4134.48
4148.51
4158.87
4165.34
4167.77
4166.12
4160.39
4150.69
4137.13
4119.94
4099.41
4075.88
4049.72
4021.35
3991.22
3959.76
3927.44
3894.68
3861.92
3829.55
3798.29
3767.71
3738.09
3709.69
3682.68
3657.15
3633.17
3610.76
3589.91
3570.63
3552.9
3536.69
3522
3508.8
3497.09
3486.85
3478.08
3470.79
3464.97
3460.65
3457.81
3456.51
3456.79
3458.63
3462.09
3467.16
3473.86
3482.2
3492.2
3503.86
3517.2
3532.22
3548.9
3567.24
3587.21
3608.79
3631.91
3656.49
3682.45
3709.69
3738.01
3767.29
3797.15
3827.35
3857.95
3888.64
3919.06
3948.95
3977.97
4005.79
4032.1
4056.55
4078.87
4098.76
4115.96
4130.23
4141.36
4149.19
4153.59
4154.39
4151.54
4145.14
4135.25
4121.95
4105.43
4085.89
4063.6
4038.84
4011.95
3983.24
3953.11
3921.95
3890.16
3858.15
3826.41
3796.15
3766.42
3737.06
3708.74
3681.81
3656.43
3632.74
3345.05
3349.96
3356.36
3364.27
3373.71
3384.76
3397.45
3411.87
3428.05
3446.02
3465.81
3487.45
3510.9
3536.14
3563.12
3591.73
3621.85
3653.33
3685.87
3718.68
3752.81
3787.36
3821.91
3856.07
3889.42
3921.52
3951.93
3980.22
4006.01
4028.94
4048.67
4064.91
4077.44
4086.06
4090.65
4091.08
4087.31
4079.49
4067.68
4052.09
4032.97
4010.6
3985.29
3957.4
3927.34
3895.51
3862.32
3828.2
3793.57
3758.85
3724.57
3692.93
3660.61
3629
3598.55
3569.52
3542.09
3516.36
3492.4
3470.24
3449.9
3431.37
3414.62
3399.65
3386.42
3374.89
3365.05
3356.86
3350.31
3345.37
3341.99
3340.18
3340.02
3341.47
3344.52
3349.18
3355.42
3363.23
3372.63
3383.62
3396.18
3410.31
3426.02
3443.28
3462.09
3482.45
3504.33
3527.72
3552.58
3578.86
3606.51
3635.42
3665.47
3696.49
3728.28
3760.59
3793.14
3825.63
3857.7
3889
3919.16
3947.78
3974.49
3998.92
4020.73
4039.57
4055.16
4067.23
4075.56
4080
4080.34
4076.65
4068.92
4057.16
4041.54
4022.27
3999.62
3973.91
3945.52
3914.88
3882.44
3848.64
3813.96
3778.86
3743.76
3709.09
3675.19
3642.37
3610.94
3581.09
3553.03
3526.87
3502.7
3480.57
3460.49
3442.45
3426.4
3412.28
3400.03
3389.54
3380.73
3373.49
3367.75
3363.4
3360.36
3358.58
3358.03
3358.62
3360.36
3363.25
3367.3
3372.56
3379.05
3386.82
3395.95
3406.49
3418.49
3432.03
3447.17
3463.94
3482.4
3502.58
3524.48
3548.1
3573.4
3600.31
3628.73
3658.53
3689.53
3721.52
3754.2
3787.28
3820.4
3853.18
3885.21
3916.04
3945.25
3972.4
3997.07
4018.88
4037.47
4052.56
4063.89
4071.28
4074.62
4073.8
4068.95
4060.14
4047.47
4031.19
4011.56
3988.91
3963.58
3935.95
3906.45
3875.46
3843.42
3810.71
3777.71
3744.78
3712.24
3680.37
3649.41
3619.57
3591.02
3563.89
3538.29
3514.3
3491.97
3471.33
3452.41
3435.21
3419.72
3405.94
3393.83
3383.38
3374.56
3367.33
3361.67
3357.55
3354.95
3353.87
3354.29
3356.17
3359.53
3364.38
3370.72
3378.57
3387.94
3398.82
3411.25
3425.21
3440.71
3457.74
3476.3
3496.37
3517.93
3540.95
3565.37
3591.14
3618.18
3646.4
3675.66
3705.83
3736.71
3768.07
3799.66
3831.18
3862.3
3892.66
3921.87
3949.53
3975.23
3998.56
4019.15
4036.63
4050.69
4061.07
4067.55
4070
4068.33
4062.6
4052.89
4039.3
4022.08
4001.52
3977.95
3951.75
3923.35
3893.17
3861.68
3829.32
3796.54
3763.74
3731.35
3700.09
3669.49
3639.86
3611.45
3584.44
3558.91
3534.93
3512.51
3491.67
3472.4
3454.67
3438.47
3423.78
3410.58
3398.87
3388.63
3379.86
3372.57
3366.75
3362.43
3359.59
3358.3
3358.57
3360.41
3363.86
3368.93
3375.63
3383.97
3393.96
3405.62
3418.96
3433.98
3450.66
3469
3488.97
3510.55
3533.67
3558.25
3584.22
3611.47
3639.8
3669.09
3698.97
3729.19
3759.81
3790.51
3820.96
3850.88
3879.92
3907.78
3934.11
3958.59
3980.94
4000.85
4018.07
4032.37
4043.52
4051.36
4055.77
4056.58
4053.71
4047.31
4037.4
4024.09
4007.54
3987.98
3965.66
3940.88
3913.95
3885.21
3855.04
3823.85
3792.03
3760
3728.23
3697.96
3668.21
3638.82
3610.49
3583.55
3558.16
3534.47
3246.77
3251.68
3258.08
3265.99
3275.42
3286.45
3299.14
3313.55
3329.72
3347.68
3367.47
3389.1
3412.55
3437.8
3464.77
3493.39
3523.53
3555.03
3587.6
3620.41
3654.59
3689.18
3723.77
3757.99
3791.39
3823.55
3854.01
3882.35
3908.2
3931.18
3950.95
3967.23
3979.79
3988.43
3993.03
3993.47
3989.68
3981.84
3970
3954.38
3935.22
3912.8
3887.44
3859.49
3829.38
3797.49
3764.25
3730.07
3695.4
3660.62
3626.29
3594.7
3562.33
3530.69
3500.22
3471.18
3443.74
3418.01
3394.05
3371.9
3351.56
3333.03
3316.3
3301.33
3288.1
3276.59
3266.75
3258.57
3252.02
3247.08
3243.7
3241.9
3241.73
3243.19
3246.24
3250.89
3257.13
3264.94
3274.34
3285.33
3297.89
3312.01
3327.72
3344.98
3363.78
3384.14
3406.02
3429.41
3454.27
3480.56
3508.21
3537.13
3567.19
3598.23
3630.05
3662.39
3694.98
3727.5
3759.62
3790.97
3821.17
3849.84
3876.61
3901.09
3922.94
3941.83
3957.46
3969.56
3977.91
3982.36
3982.73
3979.02
3971.28
3959.5
3943.85
3924.53
3901.83
3876.06
3847.62
3816.92
3784.41
3750.56
3715.83
3680.67
3645.53
3610.83
3576.88
3544.04
3512.59
3482.73
3454.66
3428.5
3404.33
3382.2
3362.13
3344.09
3328.06
3313.95
3301.71
3291.23
3282.43
3275.21
3269.48
3265.14
3262.11
3260.34
3259.78
3260.38
3262.12
3265.01
3269.06
3274.31
3280.79
3288.56
3297.68
3308.2
3320.2
3333.73
3348.86
3365.62
3384.08
3404.25
3426.15
3449.76
3475.06
3501.98
3530.41
3560.23
3591.25
3623.26
3655.98
3689.1
3722.26
3755.1
3787.17
3818.07
3847.33
3874.54
3899.26
3921.12
3939.76
3954.89
3966.24
3973.65
3977
3976.18
3971.31
3962.48
3949.78
3933.46
3913.79
3891.08
3865.69
3838.02
3808.45
3777.42
3745.32
3712.57
3679.53
3646.57
3613.99
3582.1
3551.12
3521.26
3492.7
3465.56
3439.96
3415.97
3393.64
3373
3354.09
3336.89
3321.41
3307.63
3295.53
3285.08
3276.26
3269.04
3263.39
3259.27
3256.67
3255.59
3256.01
3257.89
3261.25
3266.1
3272.44
3280.29
3289.65
3300.53
3312.95
3326.91
3342.41
3359.44
3378
3398.07
3419.63
3442.64
3467.07
3492.84
3519.89
3548.12
3577.4
3607.58
3638.48
3669.87
3701.49
3733.05
3764.22
3794.63
3823.89
3851.61
3877.36
3900.75
3921.39
3938.91
3953.01
3963.42
3969.92
3972.39
3970.7
3964.96
3955.23
3941.61
3924.35
3903.74
3880.11
3853.85
3825.39
3795.16
3763.61
3731.2
3698.36
3665.52
3633.09
3601.83
3571.21
3541.56
3513.14
3486.12
3460.59
3436.61
3414.2
3393.37
3374.09
3356.37
3340.17
3325.49
3312.29
3300.58
3290.35
3281.58
3274.29
3268.47
3264.15
3261.31
3260.02
3260.28
3262.12
3265.57
3270.64
3277.33
3285.67
3295.66
3307.32
3320.66
3335.66
3352.35
3370.68
3390.65
3412.23
3435.36
3459.95
3485.93
3513.18
3541.53
3570.84
3600.74
3630.99
3661.64
3692.38
3722.87
3752.82
3781.9
3809.8
3836.17
3860.7
3883.09
3903.04
3920.3
3934.62
3945.8
3953.66
3958.08
3958.92
3956.03
3949.62
3939.69
3926.35
3909.77
3890.17
3867.81
3842.98
3816
3787.21
3757
3725.76
3693.89
3661.82
3630.01
3599.72
3569.93
3540.52
3512.16
3485.21
3459.81
3436.11
3148.45
3153.35
3159.74
3167.64
3177.06
3188.08
3200.76
3215.15
3231.31
3249.27
3269.05
3290.68
3314.12
3339.37
3366.35
3394.98
3425.13
3456.66
3489.27
3522.1
3556.32
3590.97
3625.62
3659.91
3693.38
3725.61
3756.15
3784.57
3810.48
3833.53
3853.36
3869.69
3882.29
3890.96
3895.57
3896.03
3892.21
3884.34
3872.47
3856.81
3837.58
3815.1
3789.67
3761.65
3731.46
3699.5
3666.19
3631.94
3597.2
3562.34
3527.93
3496.42
3463.99
3432.3
3401.81
3372.75
3345.3
3319.57
3295.62
3273.47
3253.14
3234.62
3217.9
3202.94
3189.72
3178.22
3168.38
3160.21
3153.66
3148.72
3145.35
3143.56
3143.39
3144.84
3147.89
3152.54
3158.78
3166.59
3175.98
3186.97
3199.53
3213.65
3229.35
3246.61
3265.41
3285.76
3307.64
3331.03
3355.89
3382.18
3409.85
3438.78
3468.86
3499.92
3531.78
3564.16
3596.8
3629.37
3661.55
3692.96
3723.23
3751.97
3778.8
3803.35
3825.26
3844.21
3859.89
3872.03
3880.42
3884.89
3885.27
3881.56
3873.79
3861.98
3846.28
3826.91
3804.14
3778.3
3749.78
3719
3686.41
3652.48
3617.68
3582.45
3547.25
3512.5
3478.51
3445.64
3414.15
3384.28
3356.2
3330.03
3305.86
3283.74
3263.68
3245.66
3229.63
3215.55
3203.32
3192.86
3184.08
3176.88
3171.16
3166.83
3163.81
3162.05
3161.5
3162.1
3163.84
3166.72
3170.77
3176.01
3182.48
3190.24
3199.35
3209.86
3221.85
3235.36
3250.48
3267.23
3285.68
3305.85
3327.74
3351.35
3376.65
3403.58
3432.02
3461.86
3492.9
3524.96
3557.72
3590.89
3624.11
3657.01
3689.16
3720.13
3749.47
3776.75
3801.55
3823.48
3842.18
3857.36
3868.75
3876.18
3879.54
3878.73
3873.83
3864.96
3852.23
3835.85
3816.12
3793.34
3767.88
3740.13
3710.5
3679.39
3647.23
3614.41
3581.32
3548.31
3515.7
3483.77
3452.76
3422.89
3394.31
3367.16
3341.56
3317.56
3295.23
3274.6
3255.69
3238.5
3223.02
3209.25
3197.16
3186.72
3177.9
3170.69
3165.04
3160.93
3158.34
3157.26
3157.67
3159.55
3162.92
3167.76
3174.1
3181.94
3191.3
3202.18
3214.6
3228.55
3244.04
3261.07
3279.63
3299.7
3321.26
3344.28
3368.7
3394.49
3421.54
3449.78
3479.08
3509.29
3540.22
3571.64
3603.31
3634.92
3666.15
3696.62
3725.95
3753.74
3779.56
3803.03
3823.73
3841.32
3855.47
3865.92
3872.45
3874.93
3873.25
3867.49
3857.71
3844.05
3826.74
3806.06
3782.36
3756.02
3727.48
3697.17
3665.55
3633.07
3600.17
3567.27
3534.78
3503.53
3472.87
3443.19
3414.75
3387.73
3362.2
3338.22
3315.82
3294.99
3275.72
3258
3241.81
3227.14
3213.95
3202.24
3192.01
3183.24
3175.95
3170.14
3165.81
3162.98
3161.68
3161.94
3163.77
3167.22
3172.28
3178.97
3187.31
3197.29
3208.94
3222.28
3237.28
3253.96
3272.3
3292.27
3313.85
3336.98
3361.58
3387.57
3414.84
3443.21
3472.54
3502.48
3532.76
3563.45
3594.23
3624.77
3654.77
3683.91
3711.87
3738.3
3762.88
3785.32
3805.33
3822.63
3837
3848.21
3856.1
3860.53
3861.38
3858.49
3852.06
3842.11
3828.73
3812.11
3792.45
3770.04
3745.14
3718.1
3689.25
3658.97
3627.67
3595.74
3563.6
3531.76
3501.44
3471.61
3442.16
3413.77
3386.78
3361.37
3337.66
3050.06
3054.96
3061.34
3069.22
3078.63
3089.64
3102.3
3116.69
3132.83
3150.78
3170.55
3192.17
3215.61
3240.86
3267.85
3296.49
3326.66
3358.22
3390.87
3423.73
3458.01
3492.73
3527.46
3561.83
3595.4
3627.72
3658.36
3686.86
3712.87
3735.99
3755.9
3772.3
3784.94
3793.64
3798.27
3798.74
3794.9
3787
3775.08
3759.36
3740.06
3717.5
3691.98
3663.87
3633.59
3601.54
3568.13
3533.8
3498.97
3464.02
3429.51
3398.11
3365.59
3333.85
3303.32
3274.24
3246.79
3221.05
3197.1
3174.96
3154.64
3136.14
3119.43
3104.48
3091.27
3079.77
3069.95
3061.78
3055.24
3050.3
3046.93
3045.16
3044.98
3046.43
3049.48
3054.13
3060.37
3068.17
3077.56
3088.55
3101.1
3115.22
3130.92
3148.17
3166.97
3187.32
3209.19
3232.58
3257.44
3283.74
3311.41
3340.36
3370.47
3401.57
3433.46
3465.89
3498.59
3531.23
3563.48
3594.97
3625.32
3654.15
3681.06
3705.7
3727.69
3746.71
3762.45
3774.65
3783.08
3787.57
3787.98
3784.25
3776.46
3764.61
3748.86
3729.42
3706.56
3680.63
3652.01
3621.13
3588.44
3554.41
3519.52
3484.21
3448.93
3414.11
3380.07
3347.16
3315.64
3285.74
3257.65
3231.47
3207.3
3185.19
3165.14
3147.13
3131.13
3117.06
3104.86
3094.42
3085.66
3078.48
3072.78
3068.47
3065.46
3063.72
3063.17
3063.77
3065.51
3068.39
3072.43
3077.66
3084.12
3091.87
3100.96
3111.46
3123.43
3136.93
3152.03
3168.77
3187.21
3207.36
3229.25
3252.86
3278.16
3305.1
3333.56
3363.42
3394.5
3426.6
3459.41
3492.65
3525.95
3558.93
3591.17
3622.24
3651.68
3679.05
3703.94
3725.96
3744.73
3759.97
3771.41
3778.87
3782.24
3781.43
3776.51
3767.6
3754.81
3738.37
3718.55
3695.69
3670.14
3642.3
3612.58
3581.38
3549.14
3516.24
3483.08
3450.01
3417.35
3385.38
3354.34
3324.44
3295.85
3268.69
3243.08
3219.08
3196.75
3176.12
3157.22
3140.03
3124.57
3110.8
3098.72
3088.29
3079.48
3072.28
3066.64
3062.53
3059.94
3058.87
3059.28
3061.16
3064.52
3069.36
3075.7
3083.54
3092.89
3103.77
3116.18
3130.13
3145.62
3162.64
3181.19
3201.26
3222.82
3245.84
3270.27
3296.06
3323.13
3351.39
3380.71
3410.94
3441.91
3473.38
3505.11
3536.78
3568.08
3598.63
3628.05
3655.93
3681.85
3705.4
3726.19
3743.85
3758.07
3768.57
3775.14
3777.63
3775.95
3770.17
3760.35
3746.63
3729.25
3708.49
3684.69
3658.26
3629.62
3599.22
3567.5
3534.93
3501.95
3468.97
3436.41
3405.18
3374.47
3344.76
3316.3
3289.27
3263.73
3239.76
3217.36
3196.54
3177.29
3159.57
3143.39
3128.72
3115.54
3103.84
3093.61
3084.85
3077.56
3071.74
3067.41
3064.58
3063.28
3063.53
3065.36
3068.81
3073.86
3080.54
3088.88
3098.86
3110.5
3123.83
3138.83
3155.5
3173.84
3193.81
3215.39
3238.53
3263.14
3289.15
3316.44
3344.83
3374.2
3404.17
3434.49
3465.23
3496.07
3526.67
3556.74
3585.95
3613.97
3640.48
3665.13
3687.64
3707.72
3725.08
3739.49
3750.75
3758.66
3763.11
3763.98
3761.09
3754.64
3744.65
3731.23
3714.56
3694.84
3672.35
3647.38
3620.25
3591.32
3560.96
3529.58
3497.57
3465.36
3433.46
3403.1
3373.22
3343.73
3315.29
3288.28
3262.85
3239.12
2951.62
2956.51
2962.88
2970.75
2980.14
2991.14
3003.78
3018.14
3034.27
3052.2
3071.97
3093.58
3117.02
3142.26
3169.26
3197.92
3228.12
3259.71
3292.42
3325.3
3359.66
3394.46
3429.29
3463.76
3497.43
3529.87
3560.62
3589.24
3615.35
3638.57
3658.57
3675.04
3687.74
3696.49
3701.14
3701.6
3697.76
3689.81
3677.84
3662.04
3642.66
3620
3594.38
3566.15
3535.76
3503.6
3470.09
3435.65
3400.72
3365.66
3331.03
3299.75
3267.13
3235.32
3204.75
3175.65
3148.19
3122.45
3098.5
3076.37
3056.07
3037.58
3020.88
3005.95
2992.75
2981.26
2971.45
2963.29
2956.75
2951.82
2948.46
2946.69
2946.51
2947.97
2951.02
2955.66
2961.89
2969.69
2979.08
2990.06
3002.61
3016.72
3032.42
3049.67
3068.46
3088.8
3110.67
3134.06
3158.92
3185.23
3212.91
3241.88
3272.02
3303.16
3335.1
3367.59
3400.36
3433.09
3465.42
3497.01
3527.46
3556.39
3583.4
3608.14
3630.23
3649.33
3665.15
3677.41
3685.89
3690.41
3690.84
3687.11
3679.29
3667.39
3651.57
3632.04
3609.09
3583.05
3554.31
3523.3
3490.49
3456.35
3421.34
3385.93
3350.56
3315.67
3281.56
3248.59
3217.04
3187.12
3159
3132.82
3108.66
3086.55
3066.51
3048.53
3032.54
3018.5
3006.33
2995.92
2987.18
2980.02
2974.34
2970.05
2967.07
2965.33
2964.79
2965.4
2967.14
2970.02
2974.05
2979.26
2985.71
2993.44
3002.51
3013
3024.95
3038.43
3053.51
3070.24
3088.66
3108.8
3130.68
3154.29
3179.6
3206.54
3235.02
3264.91
3296.04
3328.18
3361.07
3394.38
3427.78
3460.86
3493.21
3524.38
3553.94
3581.43
3606.43
3628.55
3647.42
3662.72
3674.22
3681.72
3685.1
3684.29
3679.35
3670.39
3657.53
3641
3621.1
3598.13
3572.48
3544.53
3514.69
3483.39
3451.05
3418.06
3384.82
3351.68
3318.96
3286.94
3255.86
3225.93
3197.31
3170.14
3144.52
3120.52
3098.19
3077.57
3058.67
3041.5
3026.04
3012.28
3000.21
2989.79
2981
2973.8
2968.17
2964.07
2961.49
2960.42
2960.83
2962.71
2966.07
2970.91
2977.24
2985.07
2994.42
3005.29
3017.69
3031.64
3047.12
3064.14
3082.69
3102.76
3124.32
3147.34
3171.78
3197.57
3224.66
3252.93
3282.28
3312.55
3343.56
3375.09
3406.88
3438.63
3470.02
3500.67
3530.19
3558.18
3584.21
3607.87
3628.76
3646.52
3660.81
3671.37
3677.98
3680.49
3678.82
3673.01
3663.14
3649.35
3631.88
3611.02
3587.12
3560.57
3531.81
3501.29
3469.46
3436.79
3403.71
3370.63
3337.99
3306.78
3276.01
3246.25
3217.77
3190.73
3165.19
3141.22
3118.83
3098.02
3078.78
3061.08
3044.91
3030.24
3017.07
3005.37
2995.15
2986.39
2979.1
2973.28
2968.96
2966.12
2964.82
2965.06
2966.89
2970.33
2975.37
2982.05
2990.38
3000.35
3011.99
3025.31
3040.31
3056.98
3075.31
3095.28
3116.87
3140.01
3164.63
3190.66
3217.97
3246.4
3275.8
3305.82
3336.19
3366.99
3397.9
3428.57
3458.72
3488.01
3516.12
3542.71
3567.45
3590.04
3610.2
3627.63
3642.11
3653.41
3661.37
3665.84
3666.72
3663.83
3657.36
3647.33
3633.86
3617.11
3597.32
3574.74
3549.68
3522.46
3493.43
3462.97
3431.49
3399.38
3367.09
3335.11
3304.73
3274.77
3245.23
3216.75
3189.7
3164.24
3140.5
2853.12
2858
2864.36
2872.21
2881.59
2892.56
2905.18
2919.53
2935.64
2953.55
2973.3
2994.9
3018.34
3043.59
3070.59
3099.27
3129.5
3161.13
3193.91
3226.82
3261.27
3296.17
3331.1
3365.69
3399.49
3432.06
3462.94
3491.69
3517.92
3541.26
3561.36
3577.92
3590.7
3599.49
3604.17
3604.63
3600.77
3592.78
3580.74
3564.86
3545.38
3522.6
3496.85
3468.5
3437.98
3405.69
3372.05
3337.5
3302.44
3267.25
3232.47
3201.35
3168.6
3136.71
3106.1
3076.98
3049.5
3023.76
2999.82
2977.7
2957.41
2938.93
2922.25
2907.34
2894.16
2882.69
2872.89
2864.74
2858.21
2853.28
2849.93
2848.16
2847.98
2849.44
2852.48
2857.12
2863.35
2871.15
2880.54
2891.51
2904.05
2918.16
2933.85
2951.09
2969.88
2990.22
3012.09
3035.47
3060.33
3086.65
3114.34
3143.34
3173.51
3204.69
3236.69
3269.26
3302.11
3334.93
3367.37
3399.07
3429.63
3458.68
3485.82
3510.67
3532.87
3552.07
3567.98
3580.32
3588.86
3593.42
3593.86
3590.13
3582.27
3570.31
3554.41
3534.79
3511.72
3485.54
3456.67
3425.52
3392.57
3358.29
3323.15
3287.63
3252.15
3217.17
3182.98
3149.96
3118.35
3088.4
3060.27
3034.08
3009.92
2987.82
2967.8
2949.83
2933.88
2919.87
2907.72
2897.34
2888.64
2881.51
2875.85
2871.59
2868.62
2866.9
2866.37
2866.98
2868.72
2871.59
2875.61
2880.82
2887.25
2894.96
2904.01
2914.47
2926.4
2939.87
2954.92
2971.63
2990.03
3010.16
3032.03
3055.64
3080.95
3107.91
3136.41
3166.34
3197.51
3229.72
3262.68
3296.09
3329.58
3362.78
3395.26
3426.57
3456.26
3483.89
3509.02
3531.26
3550.23
3565.63
3577.19
3584.73
3588.13
3587.31
3582.34
3573.32
3560.38
3543.77
3523.75
3500.67
3474.88
3446.8
3416.84
3385.42
3352.95
3319.86
3286.53
3253.3
3220.51
3188.44
3157.31
3127.35
3098.7
3071.52
3045.89
3021.88
2999.56
2978.94
2960.05
2942.88
2927.44
2913.7
2901.64
2891.23
2882.45
2875.26
2869.64
2865.55
2862.98
2861.91
2862.32
2864.2
2867.55
2872.39
2878.71
2886.54
2895.88
2906.74
2919.14
2933.08
2948.56
2965.58
2984.12
3004.18
3025.74
3048.77
3073.21
3099.02
3126.12
3154.42
3183.79
3214.11
3245.17
3276.77
3308.63
3340.48
3371.97
3402.73
3432.37
3460.49
3486.64
3510.43
3531.44
3549.31
3563.7
3574.33
3580.99
3583.52
3581.84
3576
3566.07
3552.21
3534.63
3513.66
3489.62
3462.94
3434.04
3403.39
3371.43
3338.63
3305.44
3272.26
3239.52
3208.32
3177.48
3147.68
3119.18
3092.12
3066.58
3042.62
3020.23
2999.43
2980.2
2962.52
2946.36
2931.7
2918.54
2906.85
2896.63
2887.87
2880.58
2874.77
2870.44
2867.6
2866.29
2866.53
2868.35
2871.79
2876.82
2883.49
2891.81
2901.78
2913.41
2926.72
2941.71
2958.38
2976.71
2996.68
3018.27
3041.42
3066.06
3092.1
3119.44
3147.91
3177.35
3207.43
3237.85
3268.73
3299.72
3330.47
3360.72
3390.1
3418.31
3445
3469.84
3492.53
3512.77
3530.29
3544.84
3556.21
3564.21
3568.71
3569.6
3566.72
3560.21
3550.13
3536.6
3519.78
3499.89
3477.22
3452.05
3424.71
3395.57
3364.99
3333.4
3301.19
3268.79
3236.73
3206.3
3176.27
3146.66
3118.12
3091.03
3065.54
3041.79
2754.56
2759.43
2765.77
2773.61
2782.97
2793.92
2806.52
2820.84
2836.93
2854.82
2874.56
2896.15
2919.58
2944.83
2971.84
3000.54
3030.8
3062.49
3095.33
3128.28
3162.83
3197.84
3232.9
3267.63
3301.57
3334.29
3365.33
3394.22
3420.59
3444.07
3464.29
3480.95
3493.8
3502.65
3507.36
3507.83
3503.95
3495.9
3483.78
3467.81
3448.21
3425.3
3399.41
3370.92
3340.24
3307.81
3274.02
3239.33
3204.14
3168.81
3133.84
3102.91
3070
3038.03
3007.37
2978.23
2950.73
2924.99
2901.06
2878.95
2858.67
2840.22
2823.56
2808.66
2795.5
2784.04
2774.25
2766.12
2759.59
2754.67
2751.33
2749.57
2749.39
2750.84
2753.89
2758.53
2764.75
2772.55
2781.93
2792.89
2805.43
2819.54
2835.22
2852.45
2871.24
2891.56
2913.43
2936.81
2961.67
2987.99
3015.71
3044.73
3074.94
3106.18
3138.25
3170.89
3203.84
3236.76
3269.32
3301.15
3331.84
3361.03
3388.3
3413.28
3435.61
3454.94
3470.95
3483.38
3491.98
3496.58
3497.04
3493.31
3485.41
3473.39
3457.4
3437.66
3414.45
3388.13
3359.1
3327.79
3294.67
3260.23
3224.95
3189.29
3153.69
3118.61
3084.34
3051.24
3019.59
2989.6
2961.44
2935.24
2911.08
2889
2869
2851.06
2835.13
2821.16
2809.04
2798.7
2790.03
2782.93
2777.31
2773.07
2770.13
2768.42
2767.9
2768.52
2770.26
2773.12
2777.13
2782.32
2788.73
2796.42
2805.45
2815.89
2827.79
2841.23
2856.27
2872.95
2891.33
2911.44
2933.3
2956.91
2982.22
3009.2
3037.73
3067.69
3098.92
3131.2
3164.25
3197.76
3231.38
3264.71
3297.33
3328.79
3358.64
3386.42
3411.71
3434.08
3453.17
3468.67
3480.31
3487.9
3491.32
3490.5
3485.49
3476.4
3463.38
3446.65
3426.51
3403.29
3377.36
3349.13
3319.02
3287.46
3254.86
3221.65
3188.2
3154.89
3122.02
3089.87
3058.7
3028.69
3000.02
2972.82
2947.17
2923.17
2900.84
2880.23
2861.35
2844.2
2828.77
2815.04
2802.99
2792.6
2783.83
2776.66
2771.05
2766.97
2764.41
2763.34
2763.75
2765.63
2768.98
2773.81
2780.13
2787.95
2797.28
2808.14
2820.53
2834.46
2849.93
2866.94
2885.48
2905.55
2927.1
2950.13
2974.58
3000.4
3027.52
3055.84
3085.25
3115.61
3146.74
3178.41
3210.36
3242.31
3273.92
3304.81
3334.59
3362.85
3389.16
3413.09
3434.24
3452.23
3466.72
3477.44
3484.15
3486.71
3485.03
3479.15
3469.16
3455.2
3437.51
3416.4
3392.22
3365.38
3336.33
3305.51
3273.4
3240.47
3207.14
3173.84
3140.98
3109.82
3078.9
3049.04
3020.51
2993.44
2967.89
2943.94
2921.56
2900.78
2881.56
2863.89
2847.74
2833.1
2819.94
2808.26
2798.05
2789.3
2782.01
2776.19
2771.87
2769.03
2767.71
2767.94
2769.76
2773.18
2778.21
2784.87
2793.18
2803.14
2814.76
2828.07
2843.05
2859.71
2878.03
2898
2919.6
2942.76
2967.42
2993.48
3020.85
3049.37
3078.86
3109
3139.48
3170.44
3201.52
3232.37
3262.72
3292.22
3320.54
3347.35
3372.29
3395.1
3415.45
3433.06
3447.69
3459.13
3467.19
3471.72
3472.62
3469.74
3463.2
3453.07
3439.47
3422.56
3402.56
3379.78
3354.48
3327.02
3297.74
3267.03
3235.31
3202.97
3170.46
3138.3
3107.83
3077.71
3048.02
3019.42
2992.28
2966.76
2942.99
2655.95
2660.81
2667.13
2674.95
2684.29
2695.21
2707.78
2722.08
2738.14
2756.01
2775.73
2797.31
2820.74
2845.98
2873.01
2901.73
2932.03
2963.76
2996.7
3029.68
3064.35
3099.49
3134.68
3169.56
3203.67
3236.56
3267.77
3296.83
3323.36
3346.99
3367.34
3384.11
3397.06
3405.97
3410.71
3411.19
3407.28
3399.18
3386.97
3370.89
3351.16
3328.1
3302.06
3273.39
3242.55
3209.95
3176
3141.15
3105.81
3070.32
3035.15
3004.43
2971.33
2939.27
2908.56
2879.38
2851.88
2826.13
2802.21
2780.11
2759.86
2741.42
2724.78
2709.91
2696.77
2685.33
2675.56
2667.43
2660.92
2656
2652.67
2650.91
2650.73
2652.19
2655.24
2659.87
2666.09
2673.88
2683.25
2694.21
2706.75
2720.85
2736.52
2753.74
2772.52
2792.84
2814.7
2838.07
2862.94
2889.27
2917.01
2946.06
2976.31
3007.61
3039.75
3072.49
3105.54
3138.59
3171.28
3203.25
3234.1
3263.43
3290.86
3315.99
3338.46
3357.92
3374.06
3386.58
3395.26
3399.91
3400.39
3396.65
3388.7
3376.61
3360.52
3340.65
3317.29
3290.8
3261.59
3230.1
3196.8
3162.18
3126.73
3090.92
3055.19
3019.98
2985.62
2952.44
2920.73
2890.7
2862.52
2836.32
2812.16
2790.09
2770.11
2752.2
2736.31
2722.37
2710.29
2699.99
2691.36
2684.3
2678.71
2674.5
2671.59
2669.9
2669.39
2670.01
2671.75
2674.61
2678.61
2683.78
2690.17
2697.84
2706.84
2717.25
2729.12
2742.53
2757.54
2774.2
2792.56
2812.65
2834.5
2858.1
2883.42
2910.41
2938.97
2968.98
3000.27
3032.63
3065.78
3099.41
3133.16
3166.64
3199.43
3231.06
3261.08
3289.04
3314.49
3337.02
3356.25
3371.86
3383.59
3391.24
3394.67
3393.85
3388.8
3379.64
3366.51
3349.66
3329.38
3306.01
3279.91
3251.52
3221.24
3189.52
3156.77
3123.42
3089.85
3056.43
3023.47
2991.25
2960.02
2929.97
2901.27
2874.04
2848.39
2824.38
2802.06
2781.45
2762.58
2745.44
2730.02
2716.31
2704.28
2693.91
2685.16
2678
2672.4
2668.33
2665.78
2664.71
2665.13
2667.01
2670.35
2675.18
2681.49
2689.3
2698.62
2709.47
2721.85
2735.78
2751.24
2768.25
2786.78
2806.84
2828.39
2851.42
2875.88
2901.72
2928.86
2957.21
2986.66
3017.07
3048.26
3080.01
3112.07
3144.13
3175.87
3206.91
3236.85
3265.27
3291.74
3315.84
3337.15
3355.28
3369.89
3380.7
3387.48
3390.06
3388.38
3382.47
3372.4
3358.33
3340.51
3319.25
3294.9
3267.89
3238.66
3207.67
3175.39
3142.29
3108.82
3075.38
3042.39
3011.27
2980.24
2950.33
2921.76
2894.68
2869.13
2845.18
2822.82
2802.05
2782.85
2765.2
2749.06
2734.44
2721.29
2709.62
2699.41
2690.66
2683.38
2677.56
2673.23
2670.39
2669.07
2669.29
2671.1
2674.52
2679.53
2686.18
2694.49
2704.43
2716.04
2729.34
2744.31
2760.96
2779.29
2799.26
2820.86
2844.03
2868.7
2894.79
2922.2
2950.76
2980.31
3010.52
3041.08
3072.13
3103.31
3134.27
3164.74
3194.36
3222.81
3249.75
3274.82
3297.75
3318.22
3335.94
3350.67
3362.18
3370.3
3374.87
3375.79
3372.9
3366.33
3356.14
3342.46
3325.45
3305.33
3282.42
3256.98
3229.37
3199.95
3169.09
3137.22
3104.74
3072.1
3039.82
3009.31
2979.1
2949.32
2920.64
2893.45
2867.89
2844.1
2557.28
2562.12
2568.43
2576.23
2585.54
2596.44
2608.97
2623.24
2639.28
2657.12
2676.82
2698.39
2721.81
2747.06
2774.09
2802.83
2833.18
2864.97
2898
2931.02
2965.82
3001.1
3036.45
3071.5
3105.79
3138.87
3170.27
3199.52
3226.23
3250.02
3270.52
3287.42
3300.47
3309.45
3314.23
3314.71
3310.78
3302.61
3290.3
3274.1
3254.23
3231.01
3204.78
3175.93
3144.9
3112.11
3077.98
3042.97
3007.46
2971.8
2936.39
2905.89
2872.59
2840.44
2809.67
2780.46
2752.94
2727.19
2703.27
2681.19
2660.96
2642.55
2625.93
2611.08
2597.97
2586.55
2576.79
2568.68
2562.18
2557.27
2553.95
2552.2
2552.02
2553.48
2556.52
2561.15
2567.37
2575.15
2584.52
2595.47
2607.99
2622.09
2637.75
2654.97
2673.74
2694.05
2715.9
2739.27
2764.14
2790.48
2818.23
2847.32
2877.62
2908.98
2941.21
2974.05
3007.22
3040.4
3073.24
3105.37
3136.38
3165.89
3193.49
3218.79
3241.42
3261.03
3277.3
3289.93
3298.69
3303.4
3303.9
3300.15
3292.16
3279.99
3263.78
3243.76
3220.24
3193.56
3164.15
3132.45
3098.95
3064.13
3028.5
2992.51