/*--------------------------------*- C++ -*----------------------------------*\
| =========                 |                                                 |
| \\      /  F ield         | OpenFOAM: The Open Source CFD Toolbox           |
|  \\    /   O peration     | Version:  3.0.1                                 |
|   \\  /    A nd           | Web:      www.OpenFOAM.org                      |
|    \\/     M anipulation  |                                                 |
\*---------------------------------------------------------------------------*/
FoamFile
{
    version     2.0;
    format      ascii;
    class       surfaceScalarField;
    location    "16";
    object      phi;
}
// * * * * * * * * * * * * * * * * * * * * * * * * * * * * * * * * * * * * * //

dimensions      [0 3 -1 0 0 0 0];

internalField   nonuniform List<scalar> 
44922
(
-0.000127956
8.13493e-06
-0.000135418
7.46151e-06
-0.00014226
6.84206e-06
-0.000148471
6.2111e-06
-0.000154092
5.62139e-06
-0.000159123
5.03023e-06
-0.000163594
4.47107e-06
-0.000167511
3.91705e-06
-0.000170899
3.38788e-06
-0.000173765
2.86656e-06
-0.000176127
2.36206e-06
-0.000177991
1.86432e-06
-0.000179363
1.37145e-06
-0.000180241
8.77911e-07
-0.000180642
4.01635e-07
-0.000180544
-9.8669e-08
-0.00017994
-6.04097e-07
-0.00017884
-1.09925e-06
-0.00017723
-1.61008e-06
-0.000175137
-2.09316e-06
-0.0001725
-2.63677e-06
-0.000169395
-3.10561e-06
-0.000165702
-3.69317e-06
-0.000161506
-4.19559e-06
-0.000156697
-4.80922e-06
-0.000151343
-5.35427e-06
-0.000145319
-6.02379e-06
-0.00013872
-6.59875e-06
-0.000131407
-7.31291e-06
-0.000123493
-7.91404e-06
-0.000114813
-8.68015e-06
-0.000105509
-9.30444e-06
-9.53569e-05
-1.01516e-05
-8.46054e-05
-1.07515e-05
-7.3307e-05
-1.12984e-05
-6.12308e-05
-1.20762e-05
-4.86318e-05
-1.25989e-05
-3.5302e-05
-1.33299e-05
-2.15597e-05
-1.37423e-05
-7.22519e-06
-1.43345e-05
7.41368e-06
-1.46389e-05
2.2531e-05
-1.51174e-05
3.78e-05
-1.52689e-05
5.33476e-05
-1.55476e-05
6.88466e-05
-1.5499e-05
8.4383e-05
-1.55364e-05
9.96435e-05
-1.52605e-05
0.000114644
-1.50002e-05
0.000129108
-1.44642e-05
0.000142998
-1.38905e-05
0.000156128
-1.31295e-05
0.000168287
-1.2159e-05
0.0001794
-1.11134e-05
0.000189281
-9.88117e-06
0.000197841
-8.55984e-06
0.000204934
-7.09299e-06
0.000210495
-5.56095e-06
0.000214422
-3.92649e-06
0.000216679
-2.25723e-06
0.000217217
-5.37602e-07
0.000216133
1.0833e-06
0.000213292
2.84119e-06
0.000208887
4.40551e-06
0.000202854
6.03231e-06
0.000195377
7.47683e-06
0.000186466
8.91188e-06
0.000176305
1.01604e-05
0.000164952
1.13527e-05
0.000152619
1.23337e-05
0.000139395
1.32238e-05
0.000125373
1.40217e-05
0.000110816
1.4557e-05
9.58179e-05
1.49983e-05
8.05354e-05
1.52825e-05
6.50887e-05
1.54468e-05
4.96797e-05
1.5409e-05
3.43036e-05
1.5376e-05
1.91899e-05
1.51137e-05
4.31997e-06
1.48699e-05
-1.01817e-05
1.45017e-05
-2.42237e-05
1.4042e-05
-3.77454e-05
1.35217e-05
-5.07248e-05
1.29794e-05
-6.31099e-05
1.23852e-05
-7.48923e-05
1.17824e-05
-8.60404e-05
1.11481e-05
-9.65587e-05
1.05184e-05
-0.000106434
9.87544e-06
-0.000115676
9.24143e-06
-0.000124225
8.54891e-06
-0.000132132
7.90771e-06
-0.000139406
7.27425e-06
-0.000146006
6.6e-06
-0.000152033
6.02657e-06
-0.000157388
5.35462e-06
-0.000162236
4.84829e-06
-0.000166413
4.17719e-06
-0.000170136
3.72302e-06
-0.000173232
3.09602e-06
-0.00017589
2.65733e-06
-0.00017793
2.04023e-06
-0.000179527
1.59733e-06
-0.000180565
1.03815e-06
-0.000181108
5.42961e-07
-0.000181119
1.10009e-08
-0.000180627
-4.92394e-07
-0.000179551
-1.07621e-06
-0.000177982
-1.56836e-06
-0.000175886
-2.09588e-06
-0.000173112
-2.77456e-06
-0.000169956
-3.15591e-06
-0.000165999
-3.95733e-06
-0.000161698
-4.30021e-06
-0.000156519
-5.17906e-06
-0.000151018
-5.50141e-06
-0.000144623
-6.39485e-06
-0.000137835
-6.78814e-06
-0.000130168
-7.66697e-06
-0.000122073
-8.09468e-06
-0.000113106
-8.96681e-06
-0.000103592
-9.51446e-06
-9.33335e-05
-1.02585e-05
-8.24081e-05
-1.09254e-05
-7.06789e-05
-1.17292e-05
-5.84724e-05
-1.22065e-05
-4.55886e-05
-1.28838e-05
-3.20303e-05
-1.35583e-05
-1.79445e-05
-1.40859e-05
-3.38721e-06
-1.45573e-05
1.15039e-05
-1.48911e-05
2.67472e-05
-1.52433e-05
4.21997e-05
-1.54526e-05
5.7801e-05
-1.56013e-05
7.33822e-05
-1.55812e-05
8.88612e-05
-1.5479e-05
0.000104077
-1.52161e-05
0.000118889
-1.48118e-05
0.000133159
-1.42696e-05
0.000146743
-1.35841e-05
0.000159496
-1.27535e-05
0.000171286
-1.17895e-05
0.000181977
-1.06914e-05
0.000191446
-9.46903e-06
0.000199586
-8.1397e-06
0.000206303
-6.71762e-06
0.00021152
-5.21669e-06
0.000215166
-3.64566e-06
0.000217208
-2.04249e-06
0.000217632
-4.23318e-07
0.000216407
1.22448e-06
0.000213496
2.91095e-06
0.000208973
4.52335e-06
0.000202897
6.07536e-06
0.000195324
7.57299e-06
0.000186335
8.98963e-06
0.000176066
1.02688e-05
0.000164643
1.14233e-05
0.00015217
1.24723e-05
0.000138836
1.3335e-05
0.000124748
1.40877e-05
0.000110075
1.46729e-05
9.49606e-05
1.51142e-05
7.9559e-05
1.54015e-05
6.40235e-05
1.55355e-05
4.84448e-05
1.55787e-05
3.30413e-05
1.54035e-05
1.78428e-05
1.51985e-05
3.00565e-06
1.48371e-05
-1.1391e-05
1.43967e-05
-2.53225e-05
1.39314e-05
-3.86553e-05
1.33329e-05
-5.14518e-05
1.27965e-05
-6.35572e-05
1.21053e-05
-7.50517e-05
1.14945e-05
-8.58862e-05
1.08345e-05
-9.60317e-05
1.01455e-05
-0.000105398
9.36581e-06
-0.000114255
8.85775e-06
-0.000122265
8.00948e-06
-0.0001299
7.63525e-06
-0.000136832
6.93205e-06
-0.000143433
6.60124e-06
-0.000149155
5.72219e-06
-0.000154396
5.24086e-06
-0.000159213
4.81685e-06
-0.000163381
4.16735e-06
-0.00016724
3.85908e-06
-0.000170503
3.26326e-06
-0.000173454
2.95136e-06
-0.000175924
2.46963e-06
-0.000178004
2.07974e-06
-0.00017969
1.68663e-06
-0.000180954
1.26408e-06
-0.000181805
8.50221e-07
-0.000182215
4.10061e-07
-0.000182172
-4.27304e-08
-0.00018167
-5.01489e-07
-0.000180614
-1.05678e-06
-0.000179148
-1.4658e-06
-0.000177048
-2.10004e-06
-0.000174309
-2.73868e-06
-0.000171226
-3.08352e-06
-0.000167338
-3.88742e-06
-0.000163068
-4.27027e-06
-0.000157866
-5.20214e-06
-0.000152189
-5.67708e-06
-0.000145567
-6.62179e-06
-0.000138385
-7.18195e-06
-0.000130236
-8.14857e-06
-0.000121499
-8.73787e-06
-0.000111861
-9.63724e-06
-0.000101429
-1.0432e-05
-9.01727e-05
-1.12566e-05
-7.83537e-05
-1.1819e-05
-6.57572e-05
-1.25965e-05
-5.25847e-05
-1.31725e-05
-3.88674e-05
-1.37174e-05
-2.48647e-05
-1.40027e-05
-1.07709e-05
-1.40938e-05
3.26333e-06
-1.40342e-05
1.66629e-05
-1.33995e-05
2.85226e-05
-1.18598e-05
3.93683e-05
-1.08457e-05
3.99117e-05
-5.43375e-07
-2.20296e-07
4.01319e-05
-0.000127994
1.62698e-05
-0.000135454
1.49217e-05
-0.000142295
1.3683e-05
-0.000148505
1.24209e-05
-0.000154125
1.12415e-05
-0.000159154
1.00591e-05
-0.000163623
8.94075e-06
-0.000167539
7.83283e-06
-0.000170926
6.77446e-06
-0.000173791
5.73181e-06
-0.000176152
4.72275e-06
-0.000178015
3.72773e-06
-0.000179387
2.74315e-06
-0.000180266
1.7567e-06
-0.000180666
8.01935e-07
-0.000180569
-1.95718e-07
-0.000179966
-1.20677e-06
-0.000178868
-2.19776e-06
-0.000177258
-3.21933e-06
-0.000175166
-4.18567e-06
-0.00017253
-5.27263e-06
-0.000169426
-6.21002e-06
-0.000165733
-7.38572e-06
-0.000161541
-8.38796e-06
-0.000156732
-9.61805e-06
-0.000151378
-1.07084e-05
-0.000145357
-1.20445e-05
-0.000138759
-1.31965e-05
-0.000131448
-1.46241e-05
-0.000123537
-1.58253e-05
-0.000114856
-1.73605e-05
-0.000105554
-1.86069e-05
-9.54003e-05
-2.03053e-05
-8.46459e-05
-2.15059e-05
-7.33519e-05
-2.25925e-05
-6.1275e-05
-2.41531e-05
-4.86707e-05
-2.52033e-05
-3.53338e-05
-2.66667e-05
-2.15869e-05
-2.74892e-05
-7.24868e-06
-2.86728e-05
7.38961e-06
-2.92772e-05
2.25105e-05
-3.02383e-05
3.77839e-05
-3.05424e-05
5.33367e-05
-3.11004e-05
6.88416e-05
-3.10039e-05
8.43848e-05
-3.10797e-05
9.96523e-05
-3.0528e-05
0.00011466
-3.0008e-05
0.000129132
-2.89361e-05
0.000143031
-2.77895e-05
0.000156169
-2.62673e-05
0.000168336
-2.43261e-05
0.000179459
-2.22363e-05
0.000189347
-1.97695e-05
0.000197912
-1.71245e-05
0.00020501
-1.4191e-05
0.000210577
-1.1128e-05
0.000214507
-7.85659e-06
0.00021677
-4.52028e-06
0.000217312
-1.07948e-06
0.000216222
2.17277e-06
0.000213384
5.67975e-06
0.000208982
8.80732e-06
0.000202945
1.20696e-05
0.000195466
1.49552e-05
0.000186546
1.78317e-05
0.00017638
2.0327e-05
0.000165019
2.27139e-05
0.000152677
2.4675e-05
0.000139444
2.64576e-05
0.000125413
2.80527e-05
0.000110847
2.91225e-05
9.58411e-05
3.00041e-05
8.05498e-05
3.05738e-05
6.50959e-05
3.09006e-05
4.96812e-05
3.08236e-05
3.42951e-05
3.07622e-05
1.91721e-05
3.02367e-05
4.30543e-06
2.97366e-05
-1.01996e-05
2.90067e-05
-2.42433e-05
2.80856e-05
-3.77672e-05
2.70456e-05
-5.07491e-05
2.59613e-05
-6.31365e-05
2.47725e-05
-7.49207e-05
2.35666e-05
-8.60703e-05
2.22976e-05
-9.65901e-05
2.10382e-05
-0.000106466
1.97513e-05
-0.000115709
1.84849e-05
-0.00012426
1.70996e-05
-0.000132168
1.58152e-05
-0.000139442
1.45485e-05
-0.000146041
1.3199e-05
-0.000152073
1.20586e-05
-0.000157423
1.07045e-05
-0.000162273
9.6983e-06
-0.000166448
8.35265e-06
-0.000170173
7.44764e-06
-0.000173267
6.1897e-06
-0.000175929
5.31932e-06
-0.000177966
4.07807e-06
-0.000179571
3.20191e-06
-0.000180606
2.07316e-06
-0.000181151
1.08831e-06
-0.000181152
1.18529e-08
-0.000180656
-9.88717e-07
-0.000179587
-2.14534e-06
-0.000178017
-3.13781e-06
-0.000175929
-4.18429e-06
-0.000173157
-5.54622e-06
-0.00017
-6.31273e-06
-0.000166042
-7.91609e-06
-0.000161741
-8.60058e-06
-0.000156559
-1.03611e-05
-0.000151059
-1.10014e-05
-0.000144664
-1.27898e-05
-0.000137883
-1.35696e-05
-0.000130209
-1.53413e-05
-0.000122116
-1.61877e-05
-0.000113147
-1.79355e-05
-0.00010363
-1.90313e-05
-9.33763e-05
-2.05122e-05
-8.24558e-05
-2.18459e-05
-7.07234e-05
-2.34616e-05
-5.85146e-05
-2.44153e-05
-4.56218e-05
-2.57766e-05
-3.20579e-05
-2.71222e-05
-1.7969e-05
-2.81748e-05
-3.40832e-06
-2.9118e-05
1.14907e-05
-2.97901e-05
2.67405e-05
-3.04932e-05
4.22019e-05
-3.09139e-05
5.78101e-05
-3.12095e-05
7.33995e-05
-3.11706e-05
8.8886e-05
-3.09655e-05
0.000104112
-3.04425e-05
0.000118933
-2.96326e-05
0.000133212
-2.85483e-05
0.000146805
-2.71775e-05
0.000159567
-2.55154e-05
0.000171365
-2.35876e-05
0.000182064
-2.13899e-05
0.00019154
-1.89449e-05
0.000199686
-1.62857e-05
0.000206408
-1.34404e-05
0.000211631
-1.04392e-05
0.000215281
-7.29575e-06
0.000217323
-4.08441e-06
0.000217746
-8.46979e-07
0.000216512
2.45862e-06
0.000213599
5.82464e-06
0.000209077
9.04461e-06
0.000202994
1.21592e-05
0.000195415
1.51511e-05
0.000186421
1.79841e-05
0.000176144
2.05454e-05
0.000164707
2.28607e-05
0.000152234
2.49446e-05
0.000138888
2.66816e-05
0.000124791
2.81848e-05
0.000110108
2.93557e-05
9.49755e-05
3.02466e-05
7.9575e-05
3.08021e-05
6.40301e-05
3.10804e-05
4.84417e-05
3.11671e-05
3.30346e-05
3.08106e-05
1.7825e-05
3.04081e-05
2.98241e-06
2.96797e-05
-1.14158e-05
2.87949e-05
-2.53512e-05
2.78668e-05
-3.86882e-05
2.66699e-05
-5.14876e-05
2.55959e-05
-6.35937e-05
2.42114e-05
-7.50914e-05
2.29923e-05
-8.5925e-05
2.16681e-05
-9.60795e-05
2.03001e-05
-0.000105443
1.87293e-05
-0.000114298
1.77126e-05
-0.000122309
1.60204e-05
-0.000129944
1.52707e-05
-0.000136885
1.38725e-05
-0.000143479
1.31952e-05
-0.000149193
1.14364e-05
-0.000154432
1.04798e-05
-0.000159251
9.63602e-06
-0.000163412
8.32826e-06
-0.000167277
7.72457e-06
-0.000170539
6.52473e-06
-0.000173489
5.90113e-06
-0.00017595
4.93121e-06
-0.000178038
4.1679e-06
-0.000179726
3.37396e-06
-0.000180992
2.53082e-06
-0.000181835
1.69287e-06
-0.000182238
8.1262e-07
-0.000182202
-7.87163e-08
-0.000181706
-9.97604e-07
-0.000180651
-2.1114e-06
-0.000179186
-2.93044e-06
-0.000177089
-4.19759e-06
-0.000174349
-5.47834e-06
-0.000171273
-6.16012e-06
-0.00016739
-7.77035e-06
-0.000163112
-8.54754e-06
-0.000157914
-1.04008e-05
-0.000152235
-1.13555e-05
-0.000145615
-1.32419e-05
-0.000138433
-1.43641e-05
-0.000130285
-1.62965e-05
-0.000121551
-1.74715e-05
-0.000111906
-1.92824e-05
-0.000101468
-2.08702e-05
-9.02182e-05
-2.25065e-05
-7.84006e-05
-2.36367e-05
-6.57908e-05
-2.52062e-05
-5.26056e-05
-2.63577e-05
-3.88777e-05
-2.74453e-05
-2.48685e-05
-2.80118e-05
-1.07515e-05
-2.82109e-05
3.30262e-06
-2.80883e-05
1.67487e-05
-2.68456e-05
2.86753e-05
-2.37864e-05
3.98265e-05
-2.19968e-05
4.28415e-05
-3.55835e-06
-2.54432e-06
4.51655e-05
-0.000128067
2.44032e-05
-0.000135526
2.23805e-05
-0.000142365
2.05222e-05
-0.000148573
1.86284e-05
-0.00015419
1.68588e-05
-0.000159216
1.50848e-05
-0.000163682
1.34074e-05
-0.000167595
1.17454e-05
-0.000170978
1.01577e-05
-0.00017384
8.59408e-06
-0.000176198
7.08043e-06
-0.000178059
5.58875e-06
-0.00017943
4.11405e-06
-0.000180312
2.6391e-06
-0.000180714
1.20356e-06
-0.00018062
-2.89945e-07
-0.000180019
-1.80739e-06
-0.000178922
-3.29537e-06
-0.000177314
-4.827e-06
-0.000175222
-6.27739e-06
-0.000172588
-7.90688e-06
-0.000169485
-9.31283e-06
-0.000165794
-1.10765e-05
-0.000161606
-1.25764e-05
-0.000156798
-1.44263e-05
-0.000151444
-1.6062e-05
-0.000145428
-1.80609e-05
-0.000138831
-1.97934e-05
-0.000131523
-2.19321e-05
-0.000123615
-2.3733e-05
-0.000114935
-2.6041e-05
-0.000105631
-2.79106e-05
-9.54798e-05
-3.04566e-05
-8.47206e-05
-3.2265e-05
-7.34265e-05
-3.38866e-05
-6.13475e-05
-3.62321e-05
-4.87404e-05
-3.78104e-05
-3.53938e-05
-4.00133e-05
-2.1654e-05
-4.1229e-05
-7.29397e-06
-4.30328e-05
7.34767e-06
-4.39188e-05
2.24776e-05
-4.53682e-05
3.77604e-05
-4.58252e-05
5.33239e-05
-4.6664e-05
6.884e-05
-4.65199e-05
8.43958e-05
-4.66355e-05
9.96765e-05
-4.58087e-05
0.000114699
-4.50304e-05
0.000129185
-4.34226e-05
0.000143099
-4.17036e-05
0.000156251
-3.94194e-05
0.000168433
-3.65079e-05
0.00017957
-3.33732e-05
0.000189469
-2.96688e-05
0.000198045
-2.57003e-05
0.00020515
-2.12955e-05
0.000210724
-1.67026e-05
0.00021466
-1.17919e-05
0.000216929
-6.79013e-06
0.000217476
-1.62588e-06
0.000216385
3.26373e-06
0.000213558
8.50607e-06
0.000209161
1.32052e-05
0.000203113
1.81176e-05
0.000195629
2.24391e-05
0.000186693
2.6767e-05
0.000176514
3.05061e-05
0.000165137
3.40915e-05
0.000152778
3.70333e-05
0.000139527
3.97089e-05
0.000125478
4.21013e-05
0.000110896
4.37048e-05
9.58752e-05
4.5025e-05
8.05665e-05
4.58826e-05
6.51002e-05
4.63669e-05
4.96714e-05
4.62524e-05
3.42682e-05
4.61653e-05
1.91205e-05
4.53845e-05
4.26554e-06
4.45915e-05
-1.02444e-05
4.35167e-05
-2.42912e-05
4.21324e-05
-3.78188e-05
4.05733e-05
-5.08039e-05
3.89464e-05
-6.31941e-05
3.71628e-05
-7.49807e-05
3.53532e-05
-8.61317e-05
3.34485e-05
-9.66534e-05
3.156e-05
-0.000106529
2.96268e-05
-0.000115774
2.773e-05
-0.000124324
2.56502e-05
-0.000132231
2.37213e-05
-0.000139501
2.18192e-05
-0.0001461
1.97981e-05
-0.000152135
1.80935e-05
-0.000157478
1.60473e-05
-0.000162327
1.45476e-05
-0.0001665
1.25249e-05
-0.000170236
1.11839e-05
-0.000173314
9.26741e-06
-0.000175984
7.98962e-06
-0.000178015
6.10951e-06
-0.000179632
4.81838e-06
-0.00018066
3.10159e-06
-0.000181211
1.63946e-06
-0.000181197
-2.53511e-09
-0.000180697
-1.48873e-06
-0.000179637
-3.20552e-06
-0.000178066
-4.70836e-06
-0.000175991
-6.25967e-06
-0.000173222
-8.31513e-06
-0.000170065
-9.46959e-06
-0.000166106
-1.18748e-05
-0.000161808
-1.28994e-05
-0.000156622
-1.55463e-05
-0.000151126
-1.64981e-05
-0.000144732
-1.91834e-05
-0.00013796
-2.03412e-05
-0.000130278
-2.30233e-05
-0.000122186
-2.42798e-05
-0.000113217
-2.69046e-05
-0.0001037
-2.85483e-05
-9.34473e-05
-3.07652e-05
-8.25418e-05
-3.27514e-05
-7.08224e-05
-3.5181e-05
-5.85895e-05
-3.66482e-05
-4.56775e-05
-3.86886e-05
-3.21077e-05
-4.0692e-05
-1.80187e-05
-4.22638e-05
-3.45371e-06
-4.3683e-05
1.14618e-05
-4.47056e-05
2.67228e-05
-4.57543e-05
4.22004e-05
-4.63915e-05
5.78211e-05
-4.68302e-05
7.34253e-05
-4.67748e-05
8.89266e-05
-4.64669e-05
0.00010417
-4.56862e-05
0.000119008
-4.44698e-05
0.000133302
-4.28433e-05
0.000146913
-4.07881e-05
0.00015969
-3.82926e-05
0.000171503
-3.53998e-05
0.000182215
-3.21029e-05
0.000191704
-2.84336e-05
0.000199862
-2.44439e-05
0.000206595
-2.01733e-05
0.000211827
-1.56707e-05
0.000215487
-1.09556e-05
0.000217526
-6.12331e-06
0.000217944
-1.26524e-06
0.000216691
3.71137e-06
0.000213775
8.74062e-06
0.000209256
1.35639e-05
0.000203151
1.82638e-05
0.000195565
2.27375e-05
0.000186566
2.6983e-05
0.000176275
3.08362e-05
0.000164816
3.43196e-05
0.000152339
3.74219e-05
0.00013897
4.00501e-05
0.000124857
4.22984e-05
0.000110157
4.40555e-05
9.50069e-05
4.53968e-05
7.95945e-05
4.62144e-05
6.40322e-05
4.66427e-05
4.84275e-05
4.67717e-05
3.30152e-05
4.6223e-05
1.77855e-05
4.56378e-05
2.93391e-06
4.45312e-05
-1.1467e-05
4.31958e-05
-2.54088e-05
4.18086e-05
-3.87527e-05
4.00138e-05
-5.15554e-05
3.83986e-05
-6.36619e-05
3.63179e-05
-7.51651e-05
3.44954e-05
-8.59948e-05
3.24978e-05
-9.61597e-05
3.0465e-05
-0.000105521
2.80906e-05
-0.000114367
2.65581e-05
-0.000122381
2.40346e-05
-0.000130012
2.29018e-05
-0.000136962
2.08227e-05
-0.000143548
1.97809e-05
-0.000149245
1.71339e-05
-0.000154479
1.57133e-05
-0.000159302
1.44593e-05
-0.00016345
1.24757e-05
-0.000167329
1.16038e-05
-0.000170584
9.77949e-06
-0.000173537
8.85441e-06
-0.000175991
7.38509e-06
-0.000178085
6.26182e-06
-0.000179768
5.05695e-06
-0.000181036
3.79897e-06
-0.000181878
2.53504e-06
-0.000182272
1.20647e-06
-0.000182241
-1.0924e-07
-0.000181754
-1.48495e-06
-0.000180702
-3.16368e-06
-0.000179255
-4.37751e-06
-0.000177148
-6.30378e-06
-0.000174408
-8.21838e-06
-0.000171344
-9.22458e-06
-0.000167468
-1.1646e-05
-0.000163183
-1.28332e-05
-0.000157992
-1.55915e-05
-0.000152312
-1.70353e-05
-0.000145696
-1.98579e-05
-0.000138514
-2.15457e-05
-0.000130373
-2.44382e-05
-0.000121642
-2.62019e-05
-0.000111982
-2.89425e-05
-0.000101561
-3.12916e-05
-9.03202e-05
-3.37472e-05
-7.84784e-05
-3.54785e-05
-6.5841e-05
-3.78437e-05
-5.26394e-05
-3.95593e-05
-3.88999e-05
-4.11848e-05
-2.48798e-05
-4.20319e-05
-1.07319e-05
-4.23588e-05
3.36916e-06
-4.21894e-05
1.69243e-05
-4.04008e-05
2.90351e-05
-3.58972e-05
4.00778e-05
-3.30395e-05
4.50166e-05
-8.49719e-06
-5.88537e-06
4.83577e-05
-0.000128177
3.25339e-05
-0.000135633
2.98369e-05
-0.00014247
2.73585e-05
-0.000148674
2.48325e-05
-0.000154287
2.24723e-05
-0.000159309
2.01066e-05
-0.000163772
1.78702e-05
-0.00016768
1.5654e-05
-0.00017106
1.35371e-05
-0.000173919
1.14529e-05
-0.000176273
9.43484e-06
-0.000178131
7.44711e-06
-0.000179501
5.48394e-06
-0.000180388
3.52606e-06
-0.000180792
1.60744e-06
-0.000180699
-3.83049e-07
-0.000180099
-2.40733e-06
-0.000179003
-4.39188e-06
-0.000177397
-6.43241e-06
-0.000175307
-8.36768e-06
-0.000172675
-1.05391e-05
-0.000169575
-1.24129e-05
-0.000165887
-1.4764e-05
-0.000161703
-1.67609e-05
-0.000156897
-1.92325e-05
-0.000151546
-2.14125e-05
-0.000145534
-2.4073e-05
-0.00013894
-2.63876e-05
-0.000131635
-2.92374e-05
-0.000123731
-3.16364e-05
-0.000115051
-3.47212e-05
-0.000105749
-3.72121e-05
-9.56013e-05
-4.06046e-05
-8.48331e-05
-4.30332e-05
-7.35381e-05
-4.51816e-05
-6.14503e-05
-4.83199e-05
-4.88448e-05
-5.04159e-05
-3.55087e-05
-5.33495e-05
-2.17547e-05
-5.4983e-05
-7.36125e-06
-5.74263e-05
7.28588e-06
-5.8566e-05
2.24307e-05
-6.05131e-05
3.77287e-05
-6.11232e-05
5.33097e-05
-6.22449e-05
6.88438e-05
-6.2054e-05
8.442e-05
-6.22118e-05
9.97216e-05
-6.11103e-05
0.000114767
-6.00756e-05
0.000129276
-5.7932e-05
0.000143214
-5.56415e-05
0.000156389
-5.25944e-05
0.000168594
-4.87126e-05
0.000179752
-4.45316e-05
0.000189671
-3.95876e-05
0.000198265
-3.42939e-05
0.000205383
-2.84142e-05
0.000210968
-2.22873e-05
0.000214908
-1.57318e-05
0.000217187
-9.06937e-06
0.000217736
-2.17442e-06
0.000216643
4.3559e-06
0.000213826
1.13232e-05
0.000209429
1.76029e-05
0.000203364
2.41823e-05
0.000195869
2.99342e-05
0.000186912
3.57234e-05
0.000176712
4.0706e-05
0.000165311
4.54928e-05
0.000152928
4.94166e-05
0.000139651
5.29857e-05
0.000125577
5.61756e-05
0.00011097
5.83117e-05
9.59262e-05
6.00686e-05
8.05914e-05
6.12174e-05
6.51084e-05
6.18499e-05
4.96328e-05
6.1728e-05
3.4229e-05
6.15692e-05
1.90548e-05
6.05587e-05
4.17314e-06
5.94732e-05
-1.03162e-05
5.8006e-05
-2.43681e-05
5.61842e-05
-3.79022e-05
5.41074e-05
-5.08925e-05
5.19367e-05
-6.32865e-05
4.95567e-05
-7.50771e-05
4.71439e-05
-8.62298e-05
4.46011e-05
-9.67539e-05
4.20841e-05
-0.000106629
3.95017e-05
-0.000115877
3.69782e-05
-0.000124425
3.41983e-05
-0.000132329
3.16254e-05
-0.000139599
2.90887e-05
-0.000146194
2.63936e-05
-0.000152232
2.41311e-05
-0.000157566
2.13813e-05
-0.000162415
1.93968e-05
-0.000166581
1.66907e-05
-0.000170332
1.49349e-05
-0.00017339
1.23254e-05
-0.000176065
1.06652e-05
-0.000178095
8.13891e-06
-0.000179719
6.44307e-06
-0.000180732
4.11463e-06
-0.000181297
2.20445e-06
-0.000181282
-1.77219e-08
-0.000180782
-1.98908e-06
-0.000179728
-4.25929e-06
-0.000178137
-6.29897e-06
-0.000176084
-8.31323e-06
-0.000173317
-1.10817e-05
-0.00017016
-1.26268e-05
-0.000166203
-1.58314e-05
-0.000161907
-1.71958e-05
-0.000156718
-2.07351e-05
-0.000151227
-2.19896e-05
-0.000144834
-2.55761e-05
-0.000138074
-2.71015e-05
-0.000130397
-3.06999e-05
-0.000122288
-3.23891e-05
-0.000113329
-3.58632e-05
-0.000103824
-3.80536e-05
-9.35381e-05
-4.10511e-05
-8.2664e-05
-4.36255e-05
-7.09578e-05
-4.68872e-05
-5.86856e-05
-4.89204e-05
-4.57702e-05
-5.1604e-05
-3.21965e-05
-5.42658e-05
-1.81108e-05
-5.63494e-05
-3.52911e-06
-5.82647e-05
1.14128e-05
-5.96475e-05
2.66914e-05
-6.10329e-05
4.21907e-05
-6.18908e-05
5.78291e-05
-6.24686e-05
7.34562e-05
-6.2402e-05
8.89818e-05
-6.19924e-05
0.000104247
-6.09517e-05
0.00011911
-5.93322e-05
0.000133428
-5.71621e-05
0.000147064
-5.44241e-05
0.000159864
-5.10924e-05
0.000171698
-4.72331e-05
0.000182431
-4.28366e-05
0.00019194
-3.79424e-05
0.000200116
-3.26196e-05
0.000206864
-2.69215e-05
0.000212107
-2.09143e-05
0.000215781
-1.46293e-05
0.000217829
-8.17084e-06
0.000218232
-1.66824e-06
0.000216962
4.98094e-06
0.000214043
1.16599e-05
0.000209522
1.80844e-05
0.000203399
2.43873e-05
0.000195791
3.03456e-05
0.000186783
3.59901e-05
0.000176471
4.11482e-05
0.000164991
4.58004e-05
0.000152493
4.99196e-05
0.000139093
5.34504e-05
0.000124955
5.64357e-05
0.00011023
5.87811e-05
9.50525e-05
6.05738e-05
7.96224e-05
6.16445e-05
6.40349e-05
6.22303e-05
4.84046e-05
6.2402e-05
3.2985e-05
6.16426e-05
1.77275e-05
6.08954e-05
2.86035e-06
5.93984e-05
-1.15445e-05
5.76007e-05
-2.54952e-05
5.57594e-05
-3.88504e-05
5.33689e-05
-5.16596e-05
5.12078e-05
-6.3767e-05
4.84253e-05
-7.52796e-05
4.6008e-05
-8.60997e-05
4.33179e-05
-9.62759e-05
4.06412e-05
-0.000105639
3.74537e-05
-0.00011447
3.53893e-05
-0.000122488
3.20527e-05
-0.000130111
3.05247e-05
-0.000137071
2.7783e-05
-0.000143646
2.63556e-05
-0.000149327
2.28144e-05
-0.000154563
2.09492e-05
-0.00015938
1.92768e-05
-0.000163522
1.66176e-05
-0.000167408
1.54898e-05
-0.00017065
1.30212e-05
-0.000173608
1.1813e-05
-0.000176053
9.8296e-06
-0.000178152
8.36089e-06
-0.000179832
6.73698e-06
-0.000181101
5.06827e-06
-0.000181957
3.3912e-06
-0.000182356
1.60498e-06
-0.000182313
-1.52304e-07
-0.000181832
-1.96586e-06
-0.00018079
-4.20509e-06
-0.000179353
-5.8147e-06
-0.000177233
-8.42424e-06
-0.000174514
-1.09374e-05
-0.000171452
-1.22864e-05
-0.000167584
-1.55144e-05
-0.000163286
-1.71312e-05
-0.000158108
-2.07688e-05
-0.000152429
-2.27144e-05
-0.000145815
-2.64724e-05
-0.000138637
-2.8723e-05
-0.000130511
-3.25645e-05
-0.00012176
-3.49527e-05
-0.000112088
-3.86143e-05
-0.000101716
-4.16637e-05
-9.04694e-05
-4.49942e-05
-7.85757e-05
-4.73722e-05
-6.59064e-05
-5.05129e-05
-5.27113e-05
-5.27544e-05
-3.89652e-05
-5.49309e-05
-2.49023e-05
-5.60948e-05
-1.06884e-05
-5.65727e-05
3.4509e-06
-5.63287e-05
1.71618e-05
-5.41117e-05
2.95346e-05
-4.82701e-05
4.05487e-05
-4.40536e-05
4.71618e-05
-1.51102e-05
-9.88025e-06
5.11566e-05
-0.000128323
4.06605e-05
-0.000135775
3.72888e-05
-0.000142607
3.41902e-05
-0.000148807
3.10323e-05
-0.000154416
2.80816e-05
-0.000159433
2.51241e-05
-0.000163892
2.23285e-05
-0.000167797
1.95588e-05
-0.000171172
1.69129e-05
-0.000174028
1.43086e-05
-0.00017638
1.17868e-05
-0.000178237
9.30355e-06
-0.000179605
6.85274e-06
-0.000180493
4.41373e-06
-0.000180898
2.01294e-06
-0.000180805
-4.76582e-07
-0.000180206
-3.00668e-06
-0.00017911
-5.48714e-06
-0.000177508
-8.03482e-06
-0.00017542
-1.04556e-05
-0.000172791
-1.31682e-05
-0.000169694
-1.55098e-05
-0.00016601
-1.84475e-05
-0.000161831
-2.09407e-05
-0.000157026
-2.40366e-05
-0.000151681
-2.67578e-05
-0.000145675
-3.00796e-05
-0.000139087
-3.29748e-05
-0.000131783
-3.65421e-05
-0.000123883
-3.95363e-05
-0.000115201
-4.3403e-05
-0.000105907
-4.65063e-05
-9.5774e-05
-5.07376e-05
-8.49836e-05
-5.38236e-05
-7.36869e-05
-5.64784e-05
-6.15983e-05
-6.04084e-05
-4.8983e-05
-6.30312e-05
-3.56494e-05
-6.66831e-05
-2.18805e-05
-6.87519e-05
-7.46165e-06
-7.18451e-05
7.20447e-06
-7.32321e-05
2.2371e-05
-7.56796e-05
3.76904e-05
-7.64426e-05
5.32961e-05
-7.78506e-05
6.88556e-05
-7.76135e-05
8.44607e-05
-7.78169e-05
9.97919e-05
-7.64415e-05
0.000114869
-7.51531e-05
0.000129411
-7.24737e-05
0.000143381
-6.96118e-05
0.000156589
-6.58016e-05
0.000168825
-6.09491e-05
0.000180012
-5.57183e-05
0.000189963
-4.9539e-05
0.000198582
-4.29132e-05
0.000205724
-3.55557e-05
0.000211322
-2.78854e-05
0.000215275
-1.96847e-05
0.00021756
-1.13546e-05
0.000218109
-2.72334e-06
0.000217017
5.44834e-06
0.000214195
1.41448e-05
0.000209786
2.20116e-05
0.000203713
3.02557e-05
0.000196187
3.74599e-05
0.000187203
4.47073e-05
0.000176975
5.09345e-05
0.000165542
5.69256e-05
0.000153125
6.18329e-05
0.000139815
6.62957e-05
0.000125708
7.02834e-05
0.000111069
7.295e-05
9.59942e-05
7.51437e-05
8.06247e-05
7.6587e-05
6.51296e-05
7.7345e-05
4.95985e-05
7.72592e-05
3.41782e-05
7.69894e-05
1.8977e-05
7.57599e-05
4.07261e-06
7.43776e-05
-1.04178e-05
7.24964e-05
-2.44792e-05
7.02457e-05
-3.80227e-05
6.76509e-05
-5.10209e-05
6.49349e-05
-6.34198e-05
6.19556e-05
-7.52154e-05
5.89395e-05
-8.63707e-05
5.57564e-05
-9.68972e-05
5.26107e-05
-0.000106773
4.93771e-05
-0.000116024
4.62292e-05
-0.000124569
4.27433e-05
-0.000132469
3.95252e-05
-0.000139739
3.63587e-05
-0.000146328
3.29825e-05
-0.000152364
3.01677e-05
-0.000157694
2.6711e-05
-0.000162552
2.4255e-05
-0.000166709
2.08474e-05
-0.000170456
1.86819e-05
-0.0001735
1.53694e-05
-0.000176175
1.33398e-05
-0.000178205
1.01694e-05
-0.000179834
8.0721e-06
-0.000180847
5.12766e-06
-0.000181401
2.758e-06
-0.000181402
-1.65471e-08
-0.000180916
-2.4745e-06
-0.000179855
-5.32108e-06
-0.000178261
-7.89301e-06
-0.000176208
-1.03658e-05
-0.000173447
-1.3843e-05
-0.000170286
-1.57876e-05
-0.000166334
-1.9783e-05
-0.000162038
-2.1492e-05
-0.000156859
-2.59147e-05
-0.000151363
-2.74851e-05
-0.000144971
-3.1968e-05
-0.000138223
-3.385e-05
-0.00013057
-3.83526e-05
-0.000122428
-4.05315e-05
-0.00011347
-4.48206e-05
-0.000103976
-4.7548e-05
-9.36678e-05
-5.13592e-05
-8.28255e-05
-5.44678e-05
-7.111e-05
-5.86027e-05
-5.88056e-05
-6.12249e-05
-4.59203e-05
-6.44894e-05
-3.23267e-05
-6.78594e-05
-1.82356e-05
-7.04406e-05
-3.6281e-06
-7.28721e-05
1.13396e-05
-7.46152e-05
2.66411e-05
-7.63344e-05
4.21648e-05
-7.74145e-05
5.78288e-05
-7.81327e-05
7.34881e-05
-7.80613e-05
8.90447e-05
-7.7549e-05
0.000104335
-7.62423e-05
0.000119234
-7.42308e-05
0.000133578
-7.15064e-05
0.000147251
-6.80975e-05
0.00016008
-6.39213e-05
0.000171941
-5.90942e-05
0.000182701
-5.35962e-05
0.000192237
-4.74788e-05
0.000200436
-4.08183e-05
0.000207204
-3.36894e-05
0.000212463
-2.61729e-05
0.000216151
-1.8318e-05
0.000218208
-1.02279e-05
0.000218606
-2.06581e-06
0.000217332
6.25511e-06
0.000214404
1.45879e-05
0.000209875
2.26128e-05
0.000203734
3.05284e-05
0.000196107
3.7973e-05
0.000187074
4.5023e-05
0.000176746
5.14765e-05
0.000165222
5.73244e-05
0.000152695
6.24462e-05
0.00013925
6.68955e-05
0.000125085
7.0601e-05
0.000110323
7.35427e-05
9.51116e-05
7.57853e-05
7.96563e-05
7.70998e-05
6.40364e-05
7.78502e-05
4.83721e-05
7.80662e-05
3.29413e-05
7.70734e-05
1.7688e-05
7.61487e-05
2.75948e-06
7.43269e-05
-1.16487e-05
7.20088e-05
-2.5613e-05
6.97237e-05
-3.8984e-05
6.67399e-05
-5.18007e-05
6.40245e-05
-6.39098e-05
6.05343e-05
-7.5433e-05
5.75312e-05
-8.62395e-05
5.41243e-05
-9.64253e-05
5.08271e-05
-0.000105793
4.68217e-05
-0.00011461
4.4206e-05
-0.00012263
4.00724e-05
-0.000130237
3.81319e-05
-0.000137207
3.47529e-05
-0.000143774
3.29224e-05
-0.000149456
2.84964e-05
-0.000154677
2.61705e-05
-0.00015949
2.40897e-05
-0.000163621
2.0749e-05
-0.000167506
1.9374e-05
-0.000170736
1.62519e-05
-0.0001737
1.4777e-05
-0.000176138
1.22673e-05
-0.000178241
1.04642e-05
-0.000179919
8.41437e-06
-0.000181187
6.33676e-06
-0.000182058
4.26244e-06
-0.000182471
2.01776e-06
-0.000182416
-2.0761e-07
-0.000181954
-2.42764e-06
-0.00018092
-5.2396e-06
-0.00017948
-7.25391e-06
-0.000177358
-1.05463e-05
-0.000174658
-1.36374e-05
-0.000171596
-1.53488e-05
-0.000167735
-1.93758e-05
-0.000163436
-2.14298e-05
-0.000158265
-2.59395e-05
-0.000152584
-2.83951e-05
-0.000145973
-3.30841e-05
-0.000138806
-3.58901e-05
-0.00013069
-4.06805e-05
-0.000121925
-4.37179e-05
-0.000112237
-4.8302e-05
-0.000101901
-5.2e-05
-9.06461e-05
-5.62487e-05
-7.87105e-05
-5.93078e-05
-6.60221e-05
-6.32014e-05
-5.28343e-05
-6.59423e-05
-3.90579e-05
-6.87073e-05
-2.49314e-05
-7.02213e-05
-1.06406e-05
-7.08635e-05
3.56956e-06
-7.05389e-05
1.74276e-05
-6.79697e-05
3.01108e-05
-6.09533e-05
4.13728e-05
-5.53156e-05
4.96517e-05
-2.33892e-05
-1.52026e-05
5.4974e-05
-0.000128506
4.87821e-05
-0.000135952
4.47351e-05
-0.000142778
4.10163e-05
-0.000148972
3.72266e-05
-0.000154576
3.36854e-05
-0.000159589
3.01363e-05
-0.000164042
2.67821e-05
-0.000167942
2.34592e-05
-0.000171314
2.02849e-05
-0.000174167
1.71611e-05
-0.000176516
1.41361e-05
-0.000178371
1.11582e-05
-0.000179739
8.2204e-06
-0.000180625
5.29992e-06
-0.00018103
2.41788e-06
-0.000180937
-5.69311e-07
-0.000180339
-3.60507e-06
-0.000179247
-6.57902e-06
-0.000177646
-9.63561e-06
-0.000175563
-1.25382e-05
-0.000172936
-1.57954e-05
-0.000169845
-1.86013e-05
-0.000166164
-2.21282e-05
-0.00016199
-2.51146e-05
-0.000157188
-2.88385e-05
-0.00015185
-3.20962e-05
-0.000145845
-3.60839e-05
-0.000139269
-3.95509e-05
-0.000131967
-4.38441e-05
-0.000124069
-4.7435e-05
-0.000115378
-5.20938e-05
-0.000106104
-5.57801e-05
-9.59831e-05
-6.08583e-05
-8.51727e-05
-6.4634e-05
-7.3873e-05
-6.77781e-05
-6.17766e-05
-7.25049e-05
-4.91546e-05
-7.56533e-05
-3.58137e-05
-8.00239e-05
-2.20315e-05
-8.25341e-05
-7.6185e-06
-8.62581e-05
7.10277e-06
-8.79534e-05
2.22972e-05
-9.08741e-05