/*--------------------------------*- C++ -*----------------------------------*\
| =========                 |                                                 |
| \\      /  F ield         | OpenFOAM: The Open Source CFD Toolbox           |
|  \\    /   O peration     | Version:  3.0.1                                 |
|   \\  /    A nd           | Web:      www.OpenFOAM.org                      |
|    \\/     M anipulation  |                                                 |
\*---------------------------------------------------------------------------*/
FoamFile
{
    version     2.0;
    format      ascii;
    class       volScalarField;
    location    "34.2";
    object      p_rgh;
}
// * * * * * * * * * * * * * * * * * * * * * * * * * * * * * * * * * * * * * //

dimensions      [1 -1 -2 0 0 0 0];

internalField   nonuniform List<scalar> 
21420
(
-12.3273
-39.4002
-67.2788
-94.5529
-120.649
-145.321
-168.382
-189.758
-209.387
-227.26
-243.398
-257.825
-270.582
-281.718
-291.277
-299.306
-305.846
-310.934
-314.605
-316.842
-317.665
-317.132
-315.233
-311.939
-307.237
-301.106
-293.513
-284.416
-273.78
-261.556
-247.697
-232.163
-214.913
-195.919
-175.159
-152.617
-128.326
-102.334
-74.7057
-45.5586
-15.0574
16.5821
49.1225
82.353
116.025
149.779
183.247
216.096
247.936
278.374
307.059
333.625
357.737
379.083
397.379
412.394
423.943
431.863
436.073
436.51
433.193
426.13
415.378
401.172
383.696
363.171
339.897
314.19
286.392
256.864
225.974
194.097
161.598
128.831
96.1293
63.7947
32.1937
1.65794
-27.997
-56.4872
-83.6249
-109.29
-133.377
-155.819
-176.561
-195.572
-212.825
-228.323
-242.066
-254.069
-264.361
-272.967
-279.933
-285.307
-289.138
-291.471
-292.35
-291.806
-289.902
-286.65
-282.062
-276.14
-268.876
-260.255
-250.263
-238.873
-226.055
-211.785
-196.045
-178.82
-160.102
-139.894
-118.21
-95.0817
-70.556
-44.7007
-17.6132
10.5439
40.3342
70.3766
101.168
132.447
163.959
195.432
226.566
257.035
286.497
314.591
340.939
365.175
386.938
405.878
421.686
434.084
442.835
447.771
448.697
445.679
438.689
427.744
413.008
394.678
373.004
348.288
320.875
291.153
259.537
226.46
192.367
157.703
122.899
88.3608
54.467
21.5512
-10.1076
-40.2748
-68.7719
-95.4724
-120.291
-143.184
-164.14
-183.172
-200.311
-215.611
-229.136
-240.952
-251.133
-259.754
-266.886
-272.591
-276.927
-279.957
-281.701
-282.157
-281.356
-279.319
-276.023
-271.455
-265.601
-258.435
-249.92
-240.028
-228.717
-215.942
-201.654
-185.799
-168.335
-149.228
-128.446
-105.983
-81.8483
-56.08
-28.7488
0.0372527
30.1178
61.5207
93.5998
126.292
159.27
192.175
224.622
256.202
286.493
315.065
341.492
365.36
386.283
403.906
417.919
428.068
434.162
436.004
433.683
427.126
416.446
401.801
383.436
361.649
336.787
309.237
279.421
247.777
214.75
180.787
146.316
111.74
77.43
43.7338
10.9306
-20.7165
-50.9919
-79.7196
-106.764
-132.024
-155.431
-176.947
-196.557
-214.268
-230.103
-244.102
-256.314
-266.792
-275.595
-282.78
-288.398
-292.505
-295.149
-296.346
-296.096
-294.478
-291.475
-287.089
-281.316
-274.136
-265.53
-255.473
-243.934
-230.88
-216.281
-200.107
-182.332
-162.944
-141.939
-119.332
-95.1578
-69.4723
-42.3573
-13.924
15.6919
46.3602
78.0072
109.954
142.017
173.905
205.266
235.717
264.876
292.347
317.726
340.635
360.694
377.567
390.946
400.571
406.258
407.859
405.227
398.587
387.834
373.11
354.692
332.841
307.92
280.342
250.536
218.975
186.137
152.493
118.514
84.6407
51.2763
19.0901
-11.8892
-41.7598
-70.28
-97.2286
-122.471
-145.933
-167.582
-187.428
-205.498
-221.845
-236.53
-249.619
-261.176
-271.262
-279.925
-287.203
-293.122
-297.698
-300.939
-302.813
-303.276
-302.159
-299.594
-295.499
-289.85
-282.607
-273.723
-263.152
-250.862
-236.824
-221.023
-203.471
-184.189
-163.22
-140.629
-116.501
-90.9597
-64.1641
-36.3047
-7.63433
23.1877
53.0366
83.1417
113.179
142.841
171.769
199.625
226.1
250.852
273.588
293.998
311.808
326.785
338.684
347.275
-12.3823
-39.4651
-67.3499
-94.6283
-120.727
-145.4
-168.462
-189.836
-209.464
-227.335
-243.47
-257.895
-270.649
-281.782
-291.339
-299.365
-305.903
-310.99
-314.66
-316.896
-317.72
-317.188
-315.288
-311.995
-307.293
-301.165
-293.574
-284.479
-273.845
-261.624
-247.767
-232.235
-214.988
-195.996
-175.237
-152.697
-128.406
-102.413
-74.7818
-45.6308
-15.1247
16.5226
49.0709
82.3118
115.996
149.763
183.247
216.111
247.967
278.422
307.123
333.706
357.832
379.192
397.501
412.526
424.083
432.009
436.229
436.654
433.333
426.267
415.509
401.293
383.804
363.265
339.976
314.252
286.438
256.894
225.987
194.095
161.582
128.801
96.0888
63.7444
32.1351
1.5922
-28.0681
-56.5628
-83.7038
-109.371
-133.46
-155.903
-176.645
-195.656
-212.909
-228.406
-242.147
-254.149
-264.439
-273.044
-280.008
-285.38
-289.209
-291.54
-292.416
-291.872
-289.967
-286.715
-282.127
-276.205
-268.942
-260.323
-250.332
-238.944
-226.127
-211.859
-196.121
-178.897
-160.18
-139.972
-118.289
-95.1596
-70.6326
-44.7748
-17.6822
10.4922
40.2547
70.3164
101.118
132.406
163.928
195.413
226.56
257.044
286.522
314.631
340.997
365.25
387.028
405.984
421.805
434.214
442.974
447.919
448.844
445.822
438.83
427.878
413.132
394.789
373.1
348.366
320.936
291.194
259.56
226.464
192.353
157.672
122.851
88.2996
54.3943
21.4691
-10.1966
-40.3688
-68.8688
-95.5706
-120.389
-143.281
-164.235
-183.264
-200.4
-215.696
-229.218
-241.03
-251.208
-259.826
-266.954
-272.657
-276.992
-280.02
-281.762
-282.216
-281.417
-279.38
-276.085
-271.517
-265.664
-258.499
-249.987
-240.096
-228.788
-216.015
-201.73
-185.877
-168.416
-149.311
-128.531
-106.069
-81.9346
-56.1652
-28.8314
-0.0405823
30.0485
61.4522
93.5437
126.249
159.24
192.16
224.624
256.222
286.532
315.123
341.569
365.455
386.395
404.033
418.06
428.218
434.318
436.17
433.836
427.277
416.589
401.933
383.553
361.749
336.869
309.299
279.463
247.8
214.755
180.774
146.287
111.697
77.3746
43.668
10.8564
-20.7973
-51.0777
-79.8087
-106.855
-132.116
-155.523
-177.038
-196.646
-214.355
-230.188
-244.184
-256.393
-266.868
-275.669
-282.851
-288.467
-292.572
-295.214
-296.408
-296.16
-294.541
-291.538
-287.153
-281.38
-274.202
-265.597
-255.542
-244.005
-230.953
-216.356
-200.183
-182.411
-163.023
-142.019
-119.412
-95.2369
-69.5494
-42.4314
-13.9937
15.6278
46.3033
77.9621
109.92
141.996
173.898
205.275
235.742
264.918
292.407
317.804
340.73
360.806
377.694
391.086
400.721
406.415
408.021
405.397
398.74
387.983
373.249
354.817
332.948
308.008
280.41
250.583
219.001
186.143
152.48
118.484
84.5962
51.2222
19.0262
-11.9588
-41.835
-70.3597
-97.3108
-122.553
-146.015
-167.662
-187.505
-205.572
-221.915
-236.597
-249.682
-261.236
-271.319
-279.98
-287.257
-293.176
-297.751
-300.992
-302.868
-303.332
-302.217
-299.652
-295.56
-289.913
-282.673
-273.791
-263.222
-250.934
-236.897
-221.097
-203.546
-184.264
-163.293
-140.701
-116.57
-91.024
-64.2223
-36.354
-7.67072
23.1402
53.0039
83.1225
113.173
142.848
171.791
199.661
226.151
250.917
273.668
294.091
311.912
326.9
338.808
347.406
-12.4923
-39.5951
-67.492
-94.7792
-120.883
-145.559
-168.621
-189.993
-209.618
-227.484
-243.614
-258.033
-270.782
-281.91
-291.462
-299.484
-306.019
-311.102
-314.768
-317.002
-317.832
-317.3
-315.398
-312.106
-307.407
-301.281
-293.694
-284.604
-273.975
-261.759
-247.907
-232.381
-215.138
-196.15
-175.395
-152.857
-128.565
-102.57
-74.9337
-45.7747
-15.2582
16.4036
48.9683
82.2299
115.939
149.733
183.246
216.142
248.031
278.518
307.253
333.868
358.024
379.412
397.745
412.79
424.363
432.301
436.532
436.951
433.616
426.543
415.772
401.536
384.022
363.456
340.135
314.38
286.532
256.955
226.017
194.094
161.553
128.748
96.0134
63.6506
32.0256
1.46927
-28.2006
-56.7031
-83.8497
-109.521
-133.612
-156.056
-176.797
-195.807
-213.058
-228.552
-242.291
-254.288
-264.575
-273.175
-280.135
-285.503
-289.328
-291.656
-292.524
-291.981
-290.074
-286.822
-282.234
-276.313
-269.052
-260.435
-250.447
-239.062
-226.249
-211.984
-196.248
-179.027
-160.312
-140.105
-118.422
-95.2921
-70.7625
-44.9
-17.7979
10.4124
40.1174
70.2185
101.039
132.345
163.888
195.397
226.57
257.083
286.592
314.733
341.132
365.418
387.229
406.215
422.062
434.493
443.27
448.227
449.163
446.129
439.13
428.164
413.398
395.029
373.309
348.542
321.075
291.296
259.623
226.49
192.342
157.627
122.776
88.1974
54.2695
21.3259
-10.3535
-40.5352
-69.0408
-95.7448
-120.563
-143.452
-164.401
-183.425
-200.554
-215.844
-229.358
-241.163
-251.334
-259.945
-267.068
-272.765
-277.097
-280.123
-281.861
-282.313
-281.517
-279.48
-276.186
-271.62
-265.77
-258.607
-250.098
-240.213
-228.909
-216.142
-201.861
-186.014
-168.559
-149.458
-128.682
-106.222
-82.0878
-56.3165
-28.9776
-0.177783
29.9281
61.3336
93.4495
126.179
159.197
192.148
224.645
256.278
286.625
315.254
341.739
365.661
386.635
404.304
418.355
428.532
434.643
436.514
434.157
427.594
416.889
402.209
383.8
361.962
337.044
309.436
279.561
247.859
214.776
180.761
146.243
111.624
77.2778
43.5505
10.7225
-20.9443
-51.2344
-79.972
-107.022
-132.285
-155.691
-177.204
-196.809
-214.513
-230.341
-244.332
-256.534
-267.004
-275.799
-282.976
-288.587
-292.689
-295.329
-296.516
-296.271
-294.651
-291.647
-287.264
-281.493
-274.317
-265.715
-255.664
-244.13
-231.082
-216.49
-200.321
-182.551
-163.166
-142.163
-119.557
-95.3798
-69.6888
-42.5651
-14.1193
15.513
46.2021
77.8839
109.865
141.965
173.895
205.302
235.801
265.011
292.535
317.966
340.926
361.034
377.952
391.37
401.025
406.734
408.347
405.738
399.05
388.283
373.529
355.067
333.165
308.186
280.546
250.677
219.054
186.156
152.456
118.425
84.5071
51.1143
18.8987
-12.0979
-41.9854
-70.5191
-97.4753
-122.719
-146.179
-167.822
-187.659
-205.72
-222.055
-236.73
-249.808
-261.357
-271.435
-280.092
-287.366
-293.283
-297.858
-301.098
-302.977
-303.446
-302.333
-299.769
-295.681
-290.038
-282.804
-273.926
-263.362
-251.078
-237.044
-221.246
-203.696
-184.413
-163.441
-140.845
-116.707
-91.1527
-64.3387
-36.4527
-7.74106
23.0428
52.9386
83.0843
113.161
142.863
171.834
199.733
226.252
251.048
273.826
294.275
312.121
327.13
339.056
347.666
-12.6576
-39.7901
-67.7054
-95.0056
-121.118
-145.797
-168.859
-190.229
-209.848
-227.708
-243.83
-258.241
-270.982
-282.102
-291.647
-299.663
-306.192
-311.27
-314.931
-317.162
-317.999
-317.466
-315.562
-312.273
-307.577
-301.456
-293.875
-284.791
-274.169
-261.961
-248.118
-232.599
-215.364
-196.382
-175.632
-153.096
-128.804
-102.806
-75.1617
-45.9908
-15.4585
16.2244
48.814
82.1069
115.852
149.687
183.244
216.187
248.125
278.663
307.448
334.11
358.312
379.741
398.111
413.187
424.782
432.738
436.975
437.404
434.045
426.957
416.167
401.9
384.35
363.741
340.375
314.571
286.674
257.048
226.062
194.094
161.511
128.668
95.9004
63.5099
31.8615
1.28506
-28.3993
-56.9134
-84.0682
-109.745
-133.839
-156.284
-177.024
-196.032
-213.28
-228.77
-242.504
-254.497
-264.777
-273.371
-280.325
-285.686
-289.505
-291.827
-292.686
-292.143
-290.234
-286.98
-282.392
-276.473
-269.214
-260.601
-250.619
-239.237
-226.429
-212.169
-196.438
-179.221
-160.509
-140.304
-118.621
-95.4891
-70.9556
-45.0862
-17.9705
10.2795
39.9285
70.0752
100.923
132.257
163.831
195.374
226.587
257.143
286.699
314.889
341.338
365.674
387.533
406.564
422.451
434.915
443.717
448.686
449.646
446.595
439.583
428.596
413.799
395.391
373.626
348.808
321.286
291.451
259.72
226.531
192.329
157.563
122.665
88.0461
54.0842
21.1129
-10.587
-40.7831
-69.2971
-96.0045
-120.822
-143.707
-164.65
-183.664
-200.784
-216.063
-229.567
-241.361
-251.522
-260.123
-267.237
-272.927
-277.254
-280.275
-282.007
-282.459
-281.666
-279.629
-276.336
-271.773
-265.926
-258.768
-250.265
-240.386
-229.089
-216.329
-202.056
-186.217
-168.771
-149.677
-128.906
-106.45
-82.3165
-56.5423
-29.1957
-0.382486
29.7471
61.1585
93.3097
126.075
159.134
192.13
224.677
256.364
286.767
315.453
341.994
365.972
386.997
404.711
418.8
429.006
435.134
437.027
434.645
428.073
417.341
402.626
384.173
362.284
337.31
309.644
279.71
247.949
214.81
180.743
146.178
111.517
77.1341
43.3758
10.523
-21.1634
-51.4682
-80.2157
-107.272
-132.537
-155.943
-177.452
-197.052
-214.749
-230.57
-244.552
-256.745
-267.206
-275.993
-283.162
-288.767
-292.864
-295.499
-296.68
-296.436
-294.814
-291.811
-287.429
-281.661
-274.489
-265.891
-255.845
-244.317
-231.275
-216.689
-200.525
-182.761
-163.38
-142.379
-119.772
-95.593
-69.8967
-42.7647
-14.3067
15.3415
46.0509
77.7676
109.782
141.92
173.89
205.343
235.889
265.149
292.726
318.209
341.221
361.377
378.34
391.796
401.482
407.211
408.836
406.243
399.522
388.734
373.948
355.444
333.49
308.453
280.751
250.818
219.133
186.175
152.418
118.335
84.3729
50.9516
18.7075
-12.3063
-42.2112
-70.7585
-97.7223
-122.968
-146.425
-168.062
-187.891
-205.941
-222.265
-236.929
-249.998
-261.537
-271.608
-280.259
-287.529
-293.443
-298.017
-301.256
-303.139
-303.618
-302.508
-299.945
-295.863
-290.227
-283
-274.13
-263.572
-251.294
-237.265
-221.47
-203.92
-184.637
-163.662
-141.06
-116.914
-91.346
-64.5137
-36.6013
-7.84748
22.8973
52.841
83.0269
113.143
142.886
171.899
199.842
226.405
251.244
274.064
294.552
312.434
327.475
339.428
348.058
-12.8782
-40.0504
-67.9901
-95.3077
-121.431
-146.115
-169.178
-190.543
-210.156
-228.006
-244.118
-258.518
-271.248
-282.358
-291.893
-299.901
-306.422
-311.494
-315.148
-317.377
-318.221
-317.686
-315.782
-312.495
-307.804
-301.69
-294.116
-285.041
-274.429
-262.231
-248.398
-232.889
-215.664
-196.691
-175.947
-153.415
-129.123
-103.12
-75.466
-46.2791
-15.7257
15.9848
48.6079
81.9426
115.736
149.626
183.241
216.248
248.252
278.856
307.707
334.434
358.696
380.181
398.6
413.715
425.343
433.32
437.564
438.004
434.624
427.512
416.694
402.386
384.786
364.121
340.694
314.825
286.862
257.171
226.121
194.092
161.454
128.561
95.7493
63.322
31.6422
1.03913
-28.6646
-57.1942
-84.3601
-110.044
-134.142
-156.588
-177.327
-196.332
-213.577
-229.062
-242.79
-254.775
-265.046
-273.633
-280.579
-285.93
-289.74
-292.053
-292.906
-292.359
-290.446
-287.191
-282.603
-276.686
-269.43
-260.823
-250.847
-239.471
-226.669
-212.417
-196.692
-179.479
-160.771
-140.568
-118.885
-95.7516
-71.2131
-45.3345
-18.2021
10.0855
39.6933
69.8858
100.769
132.139
163.755
195.345
226.61
257.224
286.841
315.097
341.614
366.016
387.939
407.03
422.971
435.478
444.315
449.302
450.283
447.222
440.19
429.174
414.335
395.875
374.049
349.163
321.568
291.657
259.851
226.586
192.311
157.476
122.517
87.8441
53.8368
20.8287
-10.8988
-41.1139
-69.6391
-96.3511
-121.168
-144.048
-164.981
-183.984
-201.091
-216.357
-229.845
-241.626
-251.772
-260.361
-267.462
-273.142
-277.462
-280.476
-282.202
-282.656
-281.863
-279.827
-276.537
-271.977
-266.135
-258.983
-250.487
-240.617
-229.33
-216.58
-202.317
-186.489
-169.053
-149.969
-129.206
-106.754
-82.6216
-56.8435
-29.4869
-0.656053
29.5028
60.9274
93.1237
125.937
159.051
192.107
224.721
256.479
286.956
315.719
342.336
366.387
387.48
405.255
419.395
429.639
435.789
437.702
435.306
428.714
417.946
403.182
384.67
362.713
337.665
309.921
279.908
248.069
214.856
180.719
146.091
111.374
76.9422
43.1426
10.2568
-21.4558
-51.7802
-80.5408
-107.605
-132.873
-156.278
-177.783
-197.375
-215.064
-230.875
-244.845
-257.027
-267.476
-276.252
-283.41
-289.007
-293.096
-295.724
-296.902
-296.655
-295.031
-292.029
-287.649
-281.884
-274.717
-266.126
-256.087
-244.566
-231.532
-216.954
-200.798
-183.04
-163.664
-142.667
-120.06
-95.8775
-70.1741
-43.031
-14.5569
15.1125
45.8488
77.6126
109.67
141.86
173.884
205.396
236.007
265.334
292.981
318.534
341.613
361.834
378.856
392.365
402.091
407.849
409.489
406.909
400.158
389.337
374.509
355.946
333.923
308.808
281.024
251.006
219.238
186.2
152.368
118.215
84.1927
50.7326
18.4537
-12.5837
-42.5126
-71.078
-98.0519
-123.3
-146.753
-168.382
-188.199
-206.236
-222.546
-237.195
-250.251
-261.778
-271.838
-280.482
-287.746
-293.657
-298.229
-301.467
-303.353
-303.849
-302.74
-300.179
-296.105
-290.478
-283.262
-274.401
-263.852
-251.581
-237.558
-221.768
-204.22
-184.937
-163.958
-141.348
-117.189
-91.604
-64.7474
-36.8004
-7.99295
22.7059
52.7115
82.9505
113.119
142.916
171.985
199.986
226.608
251.505
274.38
294.922
312.852
327.936
339.925
348.58
-13.1546
-40.3762
-68.3464
-95.6857
-121.822
-146.513
-169.576
-190.936
-210.541
-228.379
-244.478
-258.865
-271.581
-282.678
-292.201
-300.198
-306.711
-311.774
-315.42
-317.648
-318.495
-317.96
-316.056
-312.773
-308.088
-301.981
-294.417
-285.354
-274.753
-262.568
-248.748
-233.253
-216.04
-197.077
-176.342
-153.815
-129.523
-103.514
-75.8469
-46.6399
-16.0599
15.684
48.3495
81.7365
115.591
149.549
183.238
216.323
248.409
279.096
308.031
334.838
359.176
380.731
399.211
414.377
426.043
434.047
438.303
438.748
435.354
428.208
417.353
402.994
385.332
364.597
341.092
315.143
287.098
257.324
226.194
194.09
161.381
128.426
95.5596
63.0866
31.3673
0.731404
-28.997
-57.5457
-84.7256
-110.419
-134.521
-156.969
-177.707
-196.709
-213.949
-229.427
-243.147
-255.123
-265.384
-273.96
-280.896
-286.235
-290.033
-292.336
-293.182
-292.629
-290.712
-287.454
-282.867
-276.952
-269.701
-261.1
-251.132
-239.764
-226.97
-212.726
-197.008
-179.802
-161.099
-140.899
-119.216
-96.0803
-71.5354
-45.6454
-18.4939
9.82868
39.412
69.6504
100.576
131.992
163.659
195.308
226.638
257.325
287.02
315.357
341.958
366.444
388.447
407.613
423.621
436.184
445.063
450.075
451.074
448.011
440.95
429.897
415.006
396.48
374.578
349.607
321.921
291.916
260.014
226.654
192.288
157.368
122.332
87.5905
53.5264
20.4725
-11.2894
-41.5284
-70.0674
-96.7849
-121.6
-144.474
-165.396
-184.384
-201.476
-216.724
-230.194
-241.956
-252.086
-260.658
-267.744
-273.412
-277.723
-280.728
-282.448
-282.902
-282.11
-280.075
-276.787
-272.232
-266.396
-259.251
-250.765
-240.906
-229.63
-216.893
-202.643
-186.83
-169.407
-150.334
-129.581
-107.135
-83.0036
-57.2207
-29.8516
-0.999297
29.1937
60.6403
92.891
125.764
158.945
192.077
224.774
256.621
287.192
316.051
342.763
366.906
388.084
405.935
420.138
430.43
436.61
438.537
436.139
429.516
418.704
403.879
385.293
363.25
338.108
310.267
280.155
248.219
214.912
180.689
145.981
111.194
76.7015
42.8505
9.92342
-21.8219
-52.1708
-80.9477
-108.022
-133.293
-156.697
-178.196
-197.781
-215.458
-231.256
-245.212
-257.379
-267.813
-276.576
-283.721
-289.306
-293.386
-296.004
-297.181
-296.929
-295.302
-292.302
-287.925
-282.164
-275.003
-266.419
-256.389
-244.878
-231.854
-217.286
-201.14
-183.39
-164.02
-143.026
-120.42
-96.2336
-70.5214
-43.3645
-14.8703
14.8255
45.5949
77.4187
109.531
141.784
173.875
205.463
236.154
265.565
293.299
318.939
342.104
362.406
379.503
393.076
402.853
408.647
410.306
407.732
400.96
390.094
375.211
356.574
334.464
309.253
281.365
251.241
219.369
186.231
152.304
118.064
83.9654
50.4542
18.1393
-12.9296
-42.8898
-71.4782
-98.4645
-123.715
-147.164
-168.782
-188.585
-206.605
-222.896
-237.528
-250.566
-262.079
-272.127
-280.76
-288.017
-293.923
-298.493
-301.731
-303.622
-304.136
-303.028
-300.472
-296.407
-290.792
-283.59
-274.74
-264.202
-251.941
-237.926
-222.14
-204.596
-185.311
-164.328
-141.709
-117.535
-91.9271
-65.0405
-37.0509
-8.17769
22.4684
52.5505
82.855
113.088
142.953
172.092
200.166
226.861
251.831
274.776
295.384
313.375
328.513
340.546
349.234
-13.4871
-40.7679
-68.7746
-96.14
-122.293
-146.991
-170.054
-191.409
-211.002
-228.827
-244.911
-259.281
-271.981
-283.062
-292.571
-300.555
-307.057
-312.111
-315.747
-317.974
-318.822
-318.287
-316.385
-313.105
-308.428
-302.331
-294.779
-285.729
-275.142
-262.973
-249.169
-233.689
-216.491
-197.541
-176.816
-154.294
-130.002
-103.987
-76.3048
-47.0737
-16.4612
15.3214
48.0386
81.4884
115.416
149.456
183.233
216.412
248.598
279.385
308.419
335.324
359.753
381.391
399.944
415.172
426.884
434.921
439.191
439.638
436.23
429.046
418.145
403.724
385.987
365.168
341.571
315.524
287.38
257.507
226.282
194.086
161.294
128.264
95.3309
62.8034
31.0362
0.361864
-29.3967
-57.9681
-85.1649
-110.869
-134.977
-157.426
-178.163
-197.16
-214.395
-229.865
-243.575
-255.541
-265.79
-274.353
-281.276
-286.602
-290.386
-292.676
-293.514
-292.953
-291.03
-287.771
-283.184
-277.271
-270.026
-261.434
-251.474
-240.115
-227.332
-213.097
-197.389
-180.19
-161.493
-141.296
-119.614
-96.4752
-71.9229
-46.0197
-18.8467
9.50981
39.0834
69.369
100.344
131.814
163.543
195.262
226.671
257.445
287.233
315.668
342.37
366.956
389.056
408.314
424.401
437.031
445.961
451.005
452.02
448.957
441.864
430.766
415.812
397.207
375.213
350.14
322.344
292.225
260.208
226.735
192.26
157.237
122.108
87.2848
53.1526
20.0438
-11.7595
-42.0269
-70.5824
-97.3065
-122.12
-144.985
-165.895
-184.865
-201.937
-217.165
-230.612
-242.352
-252.462
-261.014
-268.082
-273.736
-278.035
-281.03
-282.744
-283.196
-282.405
-280.372
-277.088
-272.539
-266.709
-259.573
-251.099
-241.252
-229.991
-217.269
-203.035
-187.238
-169.832
-150.773
-130.031
-107.592
-83.4628
-57.6742
-30.2905
-1.41283
28.8189
60.2972
92.6111
125.555
158.817
192.041
224.837
256.792
287.475
316.448
343.275
367.528
388.81
406.752
421.032
431.382
437.597
439.539
437.141
430.48
419.614
404.715
386.04
363.895
338.64
310.681
280.451
248.397
214.979
180.652
145.848
110.977
76.4115
42.4989
9.52218
-22.2623
-52.6404
-81.4369
-108.522
-133.799
-157.201
-178.693
-198.267
-215.931
-231.714
-245.652
-257.801
-268.218
-276.964
-284.094
-289.666
-293.733
-296.34
-297.516
-297.258
-295.628
-292.629
-288.255
-282.499
-275.346
-266.772
-256.752
-245.252
-232.24
-217.684
-201.55
-183.81
-164.448
-143.459
-120.853
-96.6615
-70.9387
-43.7654
-15.2475
14.4796
45.2887
77.1863
109.363
141.691
173.863
205.541
236.331
265.841
293.68
319.425
342.693
363.093
380.278
393.93
403.769
409.605
411.288
408.716
401.925
391.006
376.054
357.33
335.115
309.786
281.773
251.523
219.525
186.267
152.225
117.881
83.6898
50.1112
17.7684
-13.3437
-43.3433
-71.9594
-98.9606
-124.214
-147.657
-169.263
-189.048
-207.047
-223.317
-237.927
-250.945
-262.439
-272.472
-281.093
-288.342
-294.243
-298.811
-302.049
-303.945
-304.478
-303.372
-300.823
-296.77
-291.17
-283.982
-275.148
-264.622
-252.373
-238.367
-222.588
-205.046
-185.761
-164.772
-142.142
-117.949
-92.3156
-65.3934
-37.3538
-8.39845
22.1809
52.3582
82.7404
113.051
142.997
172.221
200.381
227.165
252.223
275.252
295.938
314.002
329.205
341.293
350.021
-13.8761
-41.2258
-69.2751
-96.6708
-122.842
-147.55
-170.613
-191.96
-211.542
-229.351
-245.415
-259.766
-272.447
-283.509
-293.002
-300.972
-307.46
-312.503
-316.131
-318.354
-319.202
-318.669
-316.768
-313.494
-308.824
-302.739
-295.2
-286.166
-275.596
-263.445
-249.66
-234.198
-217.017
-198.083
-177.369
-154.855
-130.563
-104.54
-76.84
-47.581
-16.9295
14.8963
47.6747
81.1976
115.211
149.346
183.226
216.516
248.817
279.722
308.872
335.89
360.426
382.161
400.801
416.099
427.867
435.941
440.229
440.678
437.252
430.026
419.07
404.577
386.753
365.834
342.129
315.969
287.708
257.721
226.383
194.081
161.192
128.073
95.0626
62.4717
30.6482
-0.0695241
-29.8641
-58.4618
-85.6785
-111.395
-135.509
-157.96
-178.695
-197.688
-214.916
-230.377
-244.076
-256.029
-266.264
-274.812
-281.72
-287.029
-290.797
-293.073
-293.9
-293.33
-291.402
-288.14
-283.553
-277.644
-270.405
-261.822
-251.873
-240.525
-227.754
-213.531
-197.833
-180.644
-161.953
-141.76
-120.079
-96.9366
-72.3757
-46.4576
-19.2612
9.12956
38.706
69.0416
100.072
131.605
163.406
195.207
226.708
257.583
287.48
316.031
342.851
367.555
389.767
409.131
425.313
438.021
447.011
452.093
453.126
450.061
442.932
431.781
416.753
398.056
375.954
350.761
322.838
292.586
260.434
226.829
192.226
157.083
121.845
86.9261
52.7146
19.5419
-12.3097
-42.6099
-71.1845
-97.9162
-122.728
-145.583
-166.477
-185.427
-202.476
-217.679
-231.101
-242.815
-252.901
-261.43
-268.477
-274.113
-278.399
-281.382
-283.089
-283.54
-282.75
-280.719
-277.439
-272.896
-267.075
-259.949
-251.488
-241.657
-230.412
-217.707
-203.493
-187.716
-170.328
-151.286
-130.557
-108.127
-83.9995
-58.2044
-30.804
-1.89727
28.3774
59.898
92.2833
125.31
158.667
191.997
224.91
256.99
287.804
316.912
343.872
368.255
389.657
407.706
422.075
432.493
438.751
440.711
438.308
431.607
420.677
405.693
386.913
364.647
339.261
311.165
280.796
248.605
215.055
180.606
145.692
110.722
76.0716
42.0872
9.05251
-22.7776
-53.1894
-82.0087
-109.107
-134.389
-157.789
-179.274
-198.836
-216.483
-232.248
-246.167
-258.294
-268.691
-277.417
-284.529
-290.085
-294.138
-296.732
-297.908
-297.64
-296.008
-293.01
-288.64
-282.891
-275.747
-267.183
-257.175
-245.688
-232.691
-218.15
-202.028
-184.301
-164.948
-143.964
-121.358
-97.1616
-71.4267
-44.2341
-15.689
14.0739
44.9293
76.9161
109.167
141.58
173.848
205.631
236.536
266.163
294.123
319.991
343.38
363.894
381.184
394.928
404.839
410.725
412.435
409.866
403.051
392.072
377.04
358.212
335.874
310.408
282.25
251.85
219.706
186.308
152.133
117.667
83.3644
49.7026
17.3412
-13.8259
-43.8735
-72.5224
-99.5405
-124.798
-148.234
-169.825
-189.589
-207.564
-223.808
-238.393
-251.387
-262.86
-272.875
-281.482
-288.721
-294.617
-299.181
-302.419
-304.322
-304.875
-303.772
-301.233
-297.194
-291.61
-284.441
-275.623
-265.112
-252.877
-238.882
-223.11
-205.572
-186.286
-165.291
-142.647
-118.434
-92.7699
-65.8067
-37.7104
-8.66528
21.8528
52.1353
82.6066
113.008
143.048
172.37
200.633
227.52
252.679
275.806
296.586
314.735
330.014
342.165
350.94
-14.3221
-41.7503
-69.8482
-97.2784
-123.471
-148.189
-171.252
-192.591
-212.159
-229.949
-245.992
-260.321
-272.979
-284.021
-293.494
-301.447
-307.921
-312.952
-316.569
-318.789
-319.634
-319.105
-317.205
-313.937
-309.277
-303.205
-295.682
-286.666
-276.115
-263.985
-250.22
-234.78
-217.619
-198.703
-178.003
-155.496
-131.205
-105.173
-77.4532
-48.1625
-17.4661
14.4087
47.2575
80.8636
114.975
149.219
183.217
216.634
249.067
280.106
309.39
336.538
361.196
383.043
401.78
417.161
428.991
437.108
441.417
441.867
438.42
431.147
420.129
405.553
387.629
366.596
342.768
316.477
288.083
257.964
226.498
194.074
161.073
127.853
94.7541
62.091
30.2035
-0.563381
-30.3996
-59.0269
-86.2666
-111.996
-136.119
-158.571
-179.304
-198.291
-215.513
-230.962
-244.649
-256.587
-266.805
-275.337
-282.227
-287.517
-291.268
-293.527
-294.341
-293.761
-291.826
-288.561
-283.974
-278.069
-270.839
-262.267
-252.329
-240.994
-228.237
-214.027
-198.341
-181.163
-162.479
-142.291
-120.611
-97.4647
-72.8943
-46.9595
-19.7376
8.68837
38.2785
68.6677
99.7611
131.366
163.249
195.143
226.75
257.74
287.762
316.444
343.399
368.238
390.581
410.065
426.355
439.153
448.212
453.338
454.393
451.322
444.155
432.942
417.83
399.028
376.802
351.472
323.402
292.997
260.692
226.934
192.185
156.905
121.543
86.5138
52.2119
18.9659
-12.9406
-43.2782
-71.8745
-98.6142
-123.424
-146.267
-167.143
-186.069
-203.092
-218.267
-231.659
-243.345
-253.402
-261.905
-268.928
-274.544
-278.814
-281.784
-283.484
-283.933
-283.144
-281.115
-277.84
-273.304
-267.493
-260.379
-251.933
-242.119
-230.892
-218.208
-204.016
-188.261
-170.895
-151.872
-131.159
-108.739
-84.6142
-58.8119
-31.3927
-2.45321
27.8694
59.4413
91.9074
125.029
158.493
191.944
224.991
257.215
288.179
317.441
344.554
369.086
390.626
408.798
423.27
433.765
440.073
442.053
439.643
432.897
421.894
406.812
387.911
365.507
339.971
311.717
281.188
248.841
215.141
180.553
145.511
110.429
75.6812
41.6148
8.51382
-23.3682
-53.8185
-82.6637
-109.777
-135.065
-158.462
-179.939
-199.486
-217.115
-232.859
-246.755
-258.858
-269.231
-277.935
-285.026
-290.564
-294.601
-297.181
-298.351
-298.076
-296.442
-293.446
-289.081
-283.339
-276.204
-267.653
-257.659
-246.187
-233.207
-218.681
-202.576
-184.862
-165.52
-144.542
-121.937
-97.7343
-71.9857
-44.7713
-16.1952
13.6077
44.5141
76.6101
108.941
141.451
173.83
205.733
236.769
266.531
294.629
320.639
344.165
364.811
382.22
396.069
406.063
412.007
413.748
411.183
404.338
393.293
378.169
359.221
336.741
311.119
282.794
252.223
219.911
186.352
152.029
117.419
82.9879
49.2265
16.8577
-14.3761
-44.4811
-73.1677
-100.205
-125.466
-148.894
-170.467
-190.208
-208.155
-224.369
-238.924
-251.891
-263.34
-273.335
-281.927
-289.154
-295.043
-299.604
-302.843
-304.752
-305.322
-304.227
-301.701
-297.678
-292.113
-284.964
-276.167
-265.673
-253.453
-239.471
-223.708
-206.174
-186.887
-165.885
-143.227
-118.989
-93.2907
-66.2812
-38.122
-8.98527
21.4904
51.8822
82.4535
112.957
143.105
172.54
200.919
227.925
253.201
276.44
297.326
315.574
330.939
343.163
351.992
-14.8258
-42.342
-70.4945
-97.9633
-124.181
-148.91
-171.973
-193.302
-212.853
-230.622
-246.641
-260.945
-273.578
-284.597
-294.048
-301.982
-308.439
-313.457
-317.063
-319.278
-320.12
-319.594
-317.696
-314.435
-309.787
-303.728
-296.223
-287.228
-276.699
-264.593
-250.852
-235.435
-218.297
-199.401
-178.716
-156.218
-131.928
-105.886
-78.1448
-48.8189
-18.0727
13.8593
46.7861
80.4858
114.707
149.074
183.206
216.764
249.348
280.537
309.972
337.266
362.063
384.035
402.884
418.357
430.258
438.423
442.756
443.207
439.736
432.411
421.321
406.653
388.615
367.454
343.486
317.048
288.504
258.236
226.625
194.064
160.938
127.603
94.4045
61.6598
29.7023
-1.12017
-31.0034
-59.6642
-86.9296
-112.674
-136.806
-159.259
-179.991
-198.97
-216.184
-231.621
-245.293
-257.216
-267.416
-275.928
-282.798
-288.067
-291.798
-294.038
-294.837
-294.246
-292.303
-289.034
-284.448
-278.548
-271.327
-262.766
-252.842
-241.522
-228.78
-214.585
-198.913
-181.746
-163.072
-142.889
-121.21
-98.0598
-73.479
-47.526
-20.2763
8.18626
37.8
68.2471
99.4097
131.094
163.07
195.069
226.794
257.915
288.078
316.908
344.015
369.007
391.496
411.118
427.53
440.43
449.567
454.743
455.82
452.743
445.534
434.251
419.044
400.122
377.757
352.272
324.036
293.46
260.981
227.052
192.137
156.703
121.199
86.047
51.6437
18.3151
-13.653
-44.0324
-72.653
-99.4013
-124.208
-147.038
-167.893
-186.793
-203.785
-218.928
-232.288
-243.94
-253.966
-262.44
-269.435
-275.029
-279.281
-282.236
-283.928
-284.375
-283.586
-281.561
-278.291
-273.764
-267.963
-260.863
-252.434
-242.639
-231.433
-218.772
-204.605
-188.876
-171.534
-152.533
-131.838
-109.429
-85.3071
-59.4971
-32.0572
-3.08142
27.2943
58.9263
91.4825
124.709
158.296
191.884
225.081
257.466
288.6
318.035
345.322
370.022
391.718
410.028
424.616
435.199
441.563
443.566
441.147
434.351
423.265
408.072
389.035
366.476
340.769
312.338
281.629
249.104
215.236
180.49
145.306
110.096
75.2397
41.0809
7.90547
-24.0348