/*--------------------------------*- C++ -*----------------------------------*\
| =========                 |                                                 |
| \\      /  F ield         | OpenFOAM: The Open Source CFD Toolbox           |
|  \\    /   O peration     | Version:  3.0.1                                 |
|   \\  /    A nd           | Web:      www.OpenFOAM.org                      |
|    \\/     M anipulation  |                                                 |
\*---------------------------------------------------------------------------*/
FoamFile
{
    version     2.0;
    format      ascii;
    class       surfaceScalarField;
    location    "79.4";
    object      alphaPhi;
}
// * * * * * * * * * * * * * * * * * * * * * * * * * * * * * * * * * * * * * //

dimensions      [0 3 -1 0 0 0 0];

internalField   nonuniform List<scalar> 
42423
(
-0.000141099
-7.91596e-06
-0.000132071
-9.0278e-06
-0.000122116
-9.95601e-06
-0.000111183
-1.09324e-05
-9.90691e-05
-1.21141e-05
-8.60383e-05
-1.30308e-05
-7.1732e-05
-1.43064e-05
-5.65874e-05
-1.51447e-05
-4.0741e-05
-1.58465e-05
-2.39977e-05
-1.67434e-05
-6.37486e-06
-1.76229e-05
1.1665e-05
-1.80399e-05
3.02877e-05
-1.86228e-05
4.91997e-05
-1.8912e-05
6.83097e-05
-1.91101e-05
8.73775e-05
-1.90678e-05
0.000105916
-1.85391e-05
0.000123841
-1.79241e-05
0.000140895
-1.70549e-05
0.000156715
-1.58192e-05
0.000171138
-1.44235e-05
0.00018388
-1.27419e-05
0.000194667
-1.07867e-05
0.000203358
-8.69189e-06
0.000209764
-6.40562e-06
0.000213806
-4.04169e-06
0.000215342
-1.53634e-06
0.000214333
1.00902e-06
0.00021083
3.50324e-06
0.000204899
5.9303e-06
0.000196527
8.37258e-06
0.000186077
1.04494e-05
0.000173601
1.24758e-05
0.000159537
1.40647e-05
0.000143991
1.5546e-05
0.000127172
1.68188e-05
0.000109378
1.77939e-05
9.08781e-05
1.84996e-05
7.18984e-05
1.89796e-05
5.28447e-05
1.90537e-05
3.3839e-05
1.90057e-05
1.50037e-05
1.88353e-05
-3.40165e-06
1.84053e-05
-2.12299e-05
1.78283e-05
-3.83536e-05
1.71237e-05
-5.47137e-05
1.63601e-05
-7.01707e-05
1.5457e-05
-8.46887e-05
1.4518e-05
-9.82545e-05
1.35657e-05
-0.000110821
1.25668e-05
-0.000122382
1.15609e-05
-0.000132967
1.05853e-05
-0.00014257
9.60258e-06
-0.000151226
8.65574e-06
-0.000158946
7.72041e-06
-0.000165759
6.81243e-06
-0.000171715
5.95593e-06
-0.000176798
5.08367e-06
-0.000181046
4.2482e-06
-0.000184502
3.45525e-06
-0.000187153
2.65147e-06
-0.000189073
1.91968e-06
-0.000190206
1.1334e-06
-0.000190578
3.71721e-07
-0.0001902
-3.7816e-07
-0.000189065
-1.13451e-06
-0.00018707
-1.99514e-06
-0.000184396
-2.67441e-06
-0.000180746
-3.6495e-06
-0.00017642
-4.32659e-06
-0.000171211
-5.20849e-06
-0.000165149
-6.06239e-06
-0.00015825
-6.89906e-06
-0.000150554
-7.69597e-06
-0.000141867
-8.6869e-06
-0.000132477
-9.3902e-06
-0.000122155
-1.03218e-05
-0.000110986
-1.1169e-05
-9.90066e-05
-1.19799e-05
-8.62714e-05
-1.27353e-05
-7.27461e-05
-1.35255e-05
-5.8494e-05
-1.42521e-05
-4.34199e-05
-1.50742e-05
-2.7749e-05
-1.5671e-05
-1.14512e-05
-1.62979e-05
5.53233e-06
-1.69836e-05
2.30041e-05
-1.74719e-05
4.09604e-05
-1.79564e-05
5.92179e-05
-1.82575e-05
7.75649e-05
-1.8347e-05
9.57769e-05
-1.82119e-05
0.000113565
-1.77878e-05
0.000130626
-1.70615e-05
0.000146676
-1.60494e-05
0.000161476
-1.47999e-05
0.000174768
-1.32918e-05
0.000186326
-1.15573e-05
0.00019599
-9.66432e-06
0.000203587
-7.59622e-06
0.000208943
-5.35567e-06
0.000212017
-3.07424e-06
0.000212714
-6.96519e-07
0.000211033
1.68169e-06
0.000206856
4.17706e-06
0.000200281
6.57513e-06
0.000191407
8.87351e-06
0.000180366
1.1041e-05
0.000167355
1.30111e-05
0.000152589
1.4766e-05
0.000136321
1.62688e-05
0.000118816
1.75042e-05
0.000100362
1.84546e-05
8.12453e-05
1.91166e-05
6.17372e-05
1.9508e-05
4.21457e-05
1.95916e-05
2.27157e-05
1.943e-05
3.67052e-06
1.90452e-05
-1.47915e-05
1.84621e-05
-3.2499e-05
1.77074e-05
-4.9335e-05
1.68361e-05
-6.52665e-05
1.59314e-05
-8.00858e-05
1.48193e-05
-9.38284e-05
1.37426e-05
-0.00010652
1.26919e-05
-0.00011803
1.15098e-05
-0.00012849
1.04598e-05
-0.000137852
9.36213e-06
-0.000146152
8.29974e-06
-0.000153438
7.28567e-06
-0.000159703
6.26501e-06
-0.000165124
5.42147e-06
-0.000169601
4.47735e-06
-0.000173262
3.66059e-06
-0.000176154
2.89157e-06
-0.00017825
2.096e-06
-0.000179802
1.55259e-06
-0.000180637
8.3489e-07
-0.000180898
2.60451e-07
-0.000180569
-3.28237e-07
-0.000179646
-9.23845e-07
-0.000178226
-1.41942e-06
-0.000176223
-2.00332e-06
-0.000173659
-2.56345e-06
-0.00017054
-3.11923e-06
-0.000166805
-3.73495e-06
-0.000162417
-4.38872e-06
-0.00015747
-4.94646e-06
-0.00015179
-5.68057e-06
-0.000145388
-6.40182e-06
-0.00013821
-7.17761e-06
-0.000130254
-7.95645e-06
-0.000121541
-8.71315e-06
-0.000111967
-9.57385e-06
-0.000101518
-1.04493e-05
-9.01493e-05
-1.13685e-05
-7.79548e-05
-1.21945e-05
-6.4858e-05
-1.30969e-05
-5.08768e-05
-1.39813e-05
-3.62249e-05
-1.4652e-05
-2.08235e-05
-1.54015e-05
-4.73689e-06
-1.60867e-05
1.17497e-05
-1.64867e-05
2.86954e-05
-1.69457e-05
4.58205e-05
-1.71253e-05
6.30302e-05
-1.72098e-05
8.00288e-05
-1.69987e-05
9.66841e-05
-1.66554e-05
0.000112749
-1.60647e-05
0.000127962
-1.52132e-05
0.000142094
-1.4132e-05
0.000154882
-1.27888e-05
0.000166082
-1.11996e-05
0.000175457
-9.37492e-06
0.000182822
-7.36511e-06
0.000188
-5.179e-06
0.000190873
-2.87295e-06
0.000191377
-5.03974e-07
0.000189519
1.85782e-06
0.000185208
4.311e-06
0.000178589
6.61903e-06
0.000169791
8.79808e-06
0.00015896
1.08306e-05
0.000146311
1.26492e-05
0.000132057
1.42533e-05
0.000116454
1.56033e-05
9.97704e-05
1.66837e-05
8.2304e-05
1.74664e-05
6.43428e-05
1.79612e-05
4.61446e-05
1.81981e-05
2.79403e-05
1.82043e-05
9.95623e-06
1.7984e-05
-7.59284e-06
1.75491e-05
-2.4562e-05
1.69692e-05
-4.08232e-05
1.62611e-05
-5.62701e-05
1.54469e-05
-7.08214e-05
1.45513e-05
-8.44869e-05
1.36656e-05
-9.72094e-05
1.27225e-05
-0.000108988
1.1779e-05
-0.00011983
1.08421e-05
-0.000129713
9.88286e-06
-0.000138565
8.85182e-06
-0.000146526
7.96088e-06
-0.000153504
6.97783e-06
-0.000159626
6.12258e-06
-0.00016505
5.42353e-06
-0.000169726
4.67573e-06
-0.000173776
4.04995e-06
-0.000177222
3.44656e-06
-0.000179989
2.76641e-06
-0.00018224
2.25101e-06
-0.000183722
1.48199e-06
-0.000184646
9.24155e-07
-0.000184813
1.67593e-07
-0.000184367
-4.46703e-07
-0.000183275
-1.09198e-06
-0.000181622
-1.65243e-06
-0.000179391
-2.2309e-06
-0.000176615
-2.77617e-06
-0.000173289
-3.32586e-06
-0.000169389
-3.90062e-06
-0.000164834
-4.55464e-06
-0.000159632
-5.20212e-06
-0.000153781
-5.85109e-06
-0.00014717
-6.61051e-06
-0.000139828
-7.34265e-06
-0.000131847
-7.98069e-06
-0.000123077
-8.77006e-06
-0.000113569
-9.50819e-06
-0.00010326
-1.03088e-05
-9.2237e-05
-1.10233e-05
-8.04315e-05
-1.18056e-05
-6.78813e-05
-1.25503e-05
-5.46297e-05
-1.32517e-05
-4.06899e-05
-1.39398e-05
-2.61081e-05
-1.4582e-05
-1.09707e-05
-1.51374e-05
4.61326e-06
-1.5584e-05
2.05214e-05
-1.59082e-05
3.65618e-05
-1.60405e-05
5.25567e-05
-1.5995e-05
6.8372e-05
-1.58154e-05
8.37713e-05
-1.53995e-05
9.85612e-05
-1.479e-05
0.000112528
-1.39673e-05
0.000125446
-1.29175e-05
0.000137103
-1.16573e-05
0.000147262
-1.01596e-05
0.000155751
-8.48884e-06
0.000162395
-6.64412e-06
0.000167032
-4.63771e-06
0.000169549
-2.5172e-06
0.000169871
-3.22216e-07
0.000167959
1.9114e-06
0.000163758
4.20062e-06
0.000157403
6.35524e-06
0.000148979
8.42302e-06
0.000138671
1.0308e-05
0.000126621
1.205e-05
0.000113053
1.35677e-05
9.818e-05
1.48728e-05
8.22589e-05
1.59209e-05
6.55395e-05
1.67193e-05
4.83113e-05
1.72281e-05
3.07885e-05
1.75227e-05
1.32888e-05
1.74996e-05
-3.98339e-06
1.72722e-05
-2.0827e-05
1.68436e-05
-3.70223e-05
1.61954e-05
-5.24708e-05
1.54485e-05
-6.70225e-05
1.45518e-05
-8.06139e-05
1.35914e-05
-9.32113e-05
1.25974e-05
-0.000104716
1.15048e-05
-0.000115186
1.04697e-05
-0.000124462
9.27593e-06
-0.000132587
8.12538e-06
-0.000139544
6.95671e-06
-0.000145279
5.73565e-06
-0.000149888
4.60888e-06
-0.000153489
3.60075e-06
-0.00015612
2.63155e-06
-0.000158001
1.88041e-06
-0.000159216
1.21472e-06
-0.000159922
7.06217e-07
-0.000160245
3.23594e-07
-0.000160168
-7.7341e-08
-0.000159692
-4.76156e-07
-0.000158955
-7.3727e-07
-0.000157851
-1.10357e-06
-0.000156559
-1.29188e-06
-0.000154978
-1.58118e-06
-0.000153109
-1.86887e-06
-0.000150984
-2.12475e-06
-0.000148678
-2.30671e-06
-0.000145896
-2.78125e-06
-0.00014269
-3.20648e-06
-0.000139163
-3.52676e-06
-0.000135013
-4.14967e-06
-0.000130392
-4.62104e-06
-0.000125045
-5.34794e-06
-0.000119072
-5.97303e-06
-0.000112349
-6.72299e-06
-0.000104644
-7.70489e-06
-9.6066e-05
-8.5777e-06
-8.66432e-05
-9.4228e-06
-7.61174e-05
-1.05258e-05
-6.4583e-05
-1.15345e-05
-5.18745e-05
-1.27085e-05
-3.81886e-05
-1.3686e-05
-2.37072e-05
-1.44814e-05
-8.34372e-06
-1.53635e-05
7.87791e-06
-1.62217e-05
2.45496e-05
-1.66717e-05
4.1667e-05
-1.71174e-05
5.89969e-05
-1.733e-05
7.64173e-05
-1.74204e-05
9.366e-05
-1.72427e-05
0.000110356
-1.66962e-05
0.000126364
-1.60074e-05
0.000141499
-1.51356e-05
0.000155407
-1.39084e-05
0.000167924
-1.25166e-05
0.000178854
-1.09298e-05
0.000188073
-9.21881e-06
0.000195382
-7.30987e-06
0.000200649
-5.26622e-06
0.000203851
-3.20263e-06
0.000204996
-1.14527e-06
0.000203959
1.03733e-06
0.000200804
3.1552e-06
0.000195635
5.16839e-06
0.000188596
7.03967e-06
0.000179884
8.71198e-06
0.000169651
1.02323e-05
0.000158201
1.14504e-05
0.000145612
1.2589e-05
0.000132159
1.34526e-05
0.000118009
1.415e-05
0.000103325
1.46843e-05
8.83599e-05
1.4965e-05
7.31758e-05
1.51841e-05
5.7943e-05
1.52328e-05
4.29108e-05
1.50321e-05
2.79705e-05
1.49403e-05
1.33266e-05
1.46439e-05
-8.50998e-07
1.41776e-05
-1.46462e-05
1.37952e-05
-2.79389e-05
1.32927e-05
-4.06648e-05
1.27259e-05
-5.28016e-05
1.21368e-05
-6.42925e-05
1.14908e-05
-7.51476e-05
1.08551e-05
-8.53228e-05
1.01752e-05
-9.47791e-05
9.45632e-06
-0.000103527
8.74785e-06
7.90711e-06
-0.00014114
-1.58273e-05
-0.000132115
-1.80531e-05
-0.000122162
-1.99089e-05
-0.000111231
-2.18634e-05
-9.91167e-05
-2.42286e-05
-8.60872e-05
-2.60603e-05
-7.17746e-05
-2.86191e-05
-5.66286e-05
-3.02908e-05
-4.07794e-05
-3.16957e-05
-2.40323e-05
-3.34906e-05
-6.39894e-06
-3.52563e-05
1.16526e-05
-3.60916e-05
3.02869e-05
-3.72572e-05
4.92126e-05
-3.78378e-05
6.83277e-05
-3.82253e-05
8.73979e-05
-3.81381e-05
0.000105952
-3.70935e-05
0.000123888
-3.58603e-05
0.000140964
-3.41311e-05
0.000156799
-3.16535e-05
0.000171228
-2.88527e-05
0.000183977
-2.54908e-05
0.000194773
-2.15834e-05
0.000203482
-1.7401e-05
0.000209894
-1.28174e-05
0.000213931
-8.07928e-06
0.000215472
-3.07718e-06
0.000214451
2.03063e-06
0.000210944
7.0101e-06
0.000205015
1.18589e-05
0.000196635
1.67522e-05
0.000186177
2.09078e-05
0.00017369
2.49628e-05
0.000159613
2.81414e-05
0.000144055
3.11041e-05
0.000127227
3.36465e-05
0.000109421
3.56003e-05
9.09093e-05
3.70109e-05
7.1917e-05
3.7972e-05
5.28518e-05
3.81189e-05
3.38413e-05
3.80162e-05
1.49952e-05
3.76813e-05
-3.41672e-06
3.68172e-05
-2.1252e-05
3.56636e-05
-3.83832e-05
3.42548e-05
-5.47478e-05
3.27246e-05
-7.02086e-05
3.09178e-05
-8.47317e-05
2.90411e-05
-9.83024e-05
2.71364e-05
-0.000110872
2.51361e-05
-0.000122435
2.31244e-05
-0.000133025
2.11747e-05
-0.000142631
1.9209e-05
-0.000151289
1.73133e-05
-0.000159011
1.54428e-05
-0.000165831
1.3632e-05
-0.000171793
1.19185e-05
-0.000176879
1.0169e-05
-0.00018112
8.48941e-06
-0.000184571
6.906e-06
-0.000187224
5.30461e-06
-0.000189144
3.83959e-06
-0.000190273
2.26321e-06
-0.000190633
7.31164e-07
-0.000190274
-7.36615e-07
-0.000189133
-2.2764e-06
-0.000187141
-3.98721e-06
-0.000184464
-5.35105e-06
-0.000180815
-7.29842e-06
-0.000176488
-8.65338e-06
-0.000171277
-1.04194e-05
-0.000165214
-1.21258e-05
-0.000158317
-1.37961e-05
-0.000150617
-1.53965e-05
-0.000141927
-1.73763e-05
-0.000132539
-1.87785e-05
-0.000122209
-2.06522e-05
-0.000111039
-2.23386e-05
-9.90579e-05
-2.39615e-05
-8.63204e-05
-2.54729e-05
-7.27933e-05
-2.70528e-05
-5.85359e-05
-2.85097e-05
-4.34529e-05
-3.01574e-05
-2.77814e-05
-3.13426e-05
-1.14707e-05
-3.26087e-05
5.52321e-06
-3.39777e-05
2.3005e-05
-3.49538e-05
4.09714e-05
-3.59229e-05
5.92464e-05
-3.65325e-05
7.76159e-05
-3.67166e-05
9.58446e-05
-3.64405e-05
0.000113653
-3.55959e-05
0.000130734
-3.41425e-05
0.000146803
-3.21182e-05
0.000161617
-2.96137e-05
0.000174918
-2.65922e-05
0.000186473
-2.31123e-05
0.000196139
-1.93301e-05
0.000203745
-1.52018e-05
0.000209107
-1.07179e-05
0.000212185
-6.15172e-06
0.000212876
-1.38734e-06
0.000211174
3.38322e-06
0.000206986
8.36597e-06
0.0002004
1.31608e-05
0.000191513
1.77603e-05
0.000180465
2.20893e-05
0.000167446
2.60304e-05
0.000152662
2.95505e-05
0.000136369
3.25613e-05
0.000118844
3.50293e-05
0.000100373
3.69264e-05
8.12547e-05
3.82345e-05
6.17149e-05
3.90479e-05
4.21043e-05
3.92022e-05
2.26585e-05
3.88759e-05
3.60028e-06
3.81034e-05
-1.48791e-05
3.69415e-05
-3.26054e-05
3.54338e-05
-4.94488e-05
3.36795e-05
-6.53902e-05
3.18729e-05
-8.02287e-05
2.96579e-05
-9.39761e-05
2.749e-05
-0.000106676
2.53921e-05
-0.000118203
2.30364e-05
-0.000128667
2.0924e-05
-0.000138033
1.87282e-05
-0.000146339
1.66059e-05
-0.000153628
1.45743e-05
-0.000159908
1.25451e-05
-0.000165339
1.08528e-05
-0.000169821
8.95935e-06
-0.000173491
7.33012e-06
-0.000176374
5.77532e-06
-0.000178508
4.22967e-06
-0.000180027
3.07132e-06
-0.000180869
1.67655e-06
-0.000181138
5.30095e-07
-0.000180801
-6.65631e-07
-0.000179849
-1.87594e-06
-0.00017847
-2.79864e-06
-0.000176462
-4.01106e-06
-0.000173855
-5.17029e-06
-0.000170782
-6.19239e-06
-0.000167041
-7.47608e-06
-0.00016264
-8.78967e-06
-0.000157646
-9.94044e-06
-0.000152015
-1.13114e-05
-0.000145613
-1.2804e-05
-0.000138437
-1.43536e-05
-0.000130454
-1.59395e-05
-0.000121749
-1.74177e-05
-0.000112175
-1.91483e-05
-0.000101717
-2.09069e-05
-9.03462e-05
-2.27398e-05
-7.81292e-05
-2.44115e-05
-6.50169e-05
-2.62093e-05
-5.10654e-05
-2.79329e-05
-3.63567e-05
-2.93608e-05
-2.09532e-05
-3.08052e-05
-4.87473e-06
-3.21653e-05
1.16431e-05
-3.30047e-05
2.86042e-05
-3.39069e-05
4.57489e-05
-3.427e-05
6.29673e-05
-3.44284e-05
7.9988e-05
-3.40196e-05
9.66627e-05
-3.33303e-05
0.000112742
-3.21441e-05
0.000127971
-3.04421e-05
0.000142123
-2.82845e-05
0.000154928
-2.55939e-05
0.000166136
-2.24082e-05
0.000175527
-1.87652e-05
0.000182901
-1.47401e-05
0.00018808
-1.03578e-05
0.000190966
-5.7586e-06
0.000191473
-1.01192e-06
0.000189607
3.72359e-06
0.000185297
8.62151e-06
0.000178671
1.32445e-05
0.000169857
1.76119e-05
0.000159014
2.16736e-05
0.000146347
2.53169e-05
0.000132079
2.85207e-05
0.00011646
3.12223e-05
9.9762e-05
3.33817e-05
8.22746e-05
3.49538e-05
6.43003e-05
3.59355e-05
4.6081e-05
3.64175e-05
2.78541e-05
3.64313e-05
9.85542e-06
3.59827e-05
-7.71335e-06
3.51179e-05
-2.46955e-05
3.39514e-05
-4.09675e-05
3.25331e-05
-5.64249e-05
3.09044e-05
-7.09871e-05
2.91135e-05
-8.46576e-05
2.73362e-05
-9.73967e-05
2.54616e-05
-0.000109183
2.35655e-05
-0.000119995
2.16541e-05
-0.000129927
1.98147e-05
-0.00013879
1.77151e-05
-0.00014675
1.59204e-05
-0.000153735
1.39632e-05
-0.000159889
1.22764e-05
-0.000165275
1.081e-05
-0.000169946
9.34656e-06
-0.000173972
8.07631e-06
-0.000177457
6.93163e-06
-0.000180263
5.57227e-06
-0.000182479
4.46701e-06
-0.000183959
2.96134e-06
-0.000184878
1.84398e-06
-0.000185052
3.40678e-07
-0.000184598
-9.00263e-07
-0.000183497
-2.19319e-06
-0.000181843
-3.30583e-06
-0.000179604
-4.46985e-06
-0.00017684
-5.54043e-06
-0.0001735
-6.66644e-06
-0.000169593
-7.80766e-06
-0.000165037
-9.11015e-06
-0.000159831
-1.04083e-05
-0.000153967
-1.17154e-05
-0.000147352
-1.32257e-05
-0.000140007
-1.46876e-05
-0.000132015
-1.59725e-05
-0.000123239
-1.75459e-05
-0.000113722
-1.90254e-05
-0.000103417
-2.06135e-05
-9.23812e-05
-2.20592e-05
-8.0568e-05
-2.36189e-05
-6.80177e-05
-2.51007e-05
-5.47573e-05
-2.65122e-05
-4.08013e-05
-2.78958e-05
-2.62095e-05
-2.91738e-05
-1.10646e-05
-3.02824e-05
4.53345e-06
-3.11822e-05
2.04424e-05
-3.18173e-05
3.64952e-05
-3.20934e-05
5.25124e-05
-3.20123e-05
6.83343e-05
-3.16374e-05
8.37424e-05
-3.08077e-05
9.85435e-05
-2.95913e-05
0.000112527
-2.79505e-05
0.000125452
-2.58436e-05
0.000137104
-2.33092e-05
0.000147276
-2.03313e-05
0.000155777
-1.6991e-05
0.000162418
-1.32852e-05
0.000167068
-9.28798e-06
0.000169591
-5.04005e-06
0.000169909
-6.4126e-07
0.000167991
3.82903e-06
0.000163802
8.38993e-06
0.00015745
1.27066e-05
0.000149024
1.68488e-05
0.00013871
2.06216e-05
0.000126657
2.4103e-05
0.000113077
2.71481e-05
9.81938e-05
2.97553e-05
8.22702e-05
3.18444e-05
6.55422e-05
3.34472e-05
4.82873e-05
3.44829e-05
3.07637e-05
3.50463e-05
1.32528e-05
3.50106e-05
-4.02958e-06
3.45546e-05
-2.08804e-05
3.36945e-05
-3.70825e-05
3.23975e-05
-5.25384e-05
3.09044e-05
-6.70935e-05
2.91069e-05
-8.06803e-05
2.71783e-05
-9.32835e-05
2.52006e-05
-0.000104791
2.30129e-05
-0.000115255
2.09337e-05
-0.000124535
1.85557e-05
-0.00013267
1.626e-05
-0.000139626
1.39133e-05
-0.000145354
1.14637e-05
-0.000149965
9.21953e-06
-0.000153563
7.19924e-06
-0.000156191
5.25894e-06
-0.000158064
3.7531e-06
-0.00015927
2.4209e-06
-0.000159974
1.41016e-06
-0.000160291
6.40986e-07
-0.000160206
-1.61931e-07
-0.000159731
-9.51752e-07
-0.000158996
-1.47213e-06
-0.000157888
-2.2115e-06
-0.000156599
-2.58131e-06
-0.000155016
-3.1637e-06
-0.000153149
-3.73568e-06
-0.000151029
-4.24458e-06
-0.000148724
-4.61271e-06
-0.000145946
-5.55848e-06
-0.000142739
-6.41415e-06
-0.000139209
-7.05609e-06
-0.000135063
-8.29555e-06
-0.000130446
-9.23815e-06
-0.000125113
-1.06808e-05
-0.000119131
-1.19557e-05
-0.000112403
-1.34509e-05
-0.000104702
-1.54058e-05
-9.61269e-05
-1.71529e-05
-8.67155e-05
-1.88343e-05
-7.61787e-05
-2.10625e-05
-6.46337e-05
-2.30796e-05
-5.19276e-05
-2.54147e-05
-3.82389e-05
-2.73747e-05
-2.37571e-05
-2.89633e-05
-8.38361e-06
-3.0737e-05
7.84538e-06
-3.24507e-05
2.45248e-05
-3.33512e-05
4.16531e-05
-3.42458e-05
5.89931e-05
-3.467e-05
7.64252e-05
-3.48526e-05
9.36853e-05
-3.45028e-05
0.000110399
-3.34104e-05
0.000126416
-3.20242e-05
0.000141558
-3.02778e-05
0.000155479
-2.78293e-05
0.000168014
-2.50515e-05
0.000178949
-2.18653e-05
0.000188169
-1.84382e-05
0.00019549
-1.46315e-05
0.00020077
-1.05461e-05
0.000203972
-6.4043e-06
0.000205112
-2.2855e-06
0.000204062
2.08744e-06
0.000200901
6.31571e-06
0.000195729
1.03409e-05
0.000188681
1.40874e-05
0.000179963
1.74297e-05
0.000169721
2.04743e-05
0.000158263
2.29082e-05
0.000145664
2.51879e-05
0.0001322
2.69169e-05
0.000118043
2.83071e-05
0.000103349
2.93784e-05
8.83739e-05
2.99397e-05
7.31853e-05
3.03727e-05
5.79446e-05
3.04735e-05
4.2904e-05
3.00727e-05
2.79625e-05
2.98818e-05
1.33126e-05
2.92938e-05
-8.65687e-07
2.83558e-05
-1.46628e-05
2.75923e-05
-2.79577e-05
2.65876e-05
-4.06851e-05
2.54532e-05
-5.28231e-05
2.42749e-05
-6.43153e-05
2.2983e-05
-7.51711e-05
2.17109e-05
-8.53478e-05
2.03518e-05
-9.48063e-05
1.89149e-05
-0.000103557
1.74984e-05
1.5814e-05
-0.000141214
-2.37365e-05
-0.000132191
-2.70768e-05
-0.000122241
-2.98585e-05
-0.00011131
-3.27944e-05
-9.91948e-05
-3.63442e-05
-8.6168e-05
-3.90872e-05
-7.18467e-05
-4.29404e-05
-5.66986e-05
-4.5439e-05
-4.08464e-05
-4.75479e-05
-2.40951e-05
-5.0242e-05
-6.43765e-06
-5.29139e-05
1.16373e-05
-5.41667e-05
3.02918e-05
-5.59117e-05
4.92348e-05
-5.67809e-05
6.83657e-05
-5.73563e-05
8.74594e-05
-5.72319e-05
0.000106042
-5.56757e-05
0.000124
-5.38187e-05
0.000141088
-5.12198e-05
0.000156936
-4.75016e-05
0.000171389
-4.33054e-05
0.000184161
-3.82628e-05
0.000194976
-3.23985e-05
0.000203688
-2.61134e-05
0.000210104
-1.92335e-05
0.000214155
-1.21305e-05
0.000215706
-4.6283e-06
0.000214649
3.08771e-06
0.000211123
1.05357e-05
0.000205196
1.7786e-05
0.000196805
2.51434e-05
0.000186332
3.13809e-05
0.000173828
3.74661e-05
0.000159729
4.22411e-05
0.000144148
4.6685e-05
0.000127304
5.04896e-05
0.000109476
5.34285e-05
9.09447e-05
5.55424e-05
7.1932e-05
5.69847e-05
5.28445e-05
5.72063e-05
3.38273e-05
5.70333e-05
1.4963e-05
5.65456e-05
-3.46418e-06
5.52444e-05
-2.13113e-05
5.35106e-05
-3.84534e-05
5.1397e-05
-5.48262e-05
4.90974e-05
-7.02919e-05
4.63835e-05
-8.48183e-05
4.35675e-05
-9.83937e-05
4.07118e-05
-0.000110965
3.77078e-05
-0.00012253
3.46889e-05
-0.000133117
3.17622e-05
-0.000142721
2.88122e-05
-0.000151378
2.59708e-05
-0.000159102
2.31662e-05
-0.00016592
2.04501e-05
-0.000171876
1.78752e-05
-0.000176959
1.52518e-05
-0.000181204
1.2734e-05
-0.000184658
1.03601e-05
-0.000187303
7.94961e-06
-0.000189219
5.75576e-06
-0.000190342
3.38575e-06
-0.000190694
1.08296e-06
-0.000190339
-1.09129e-06
-0.000189198
-3.4174e-06
-0.000187204
-5.98096e-06
-0.000184528
-8.02722e-06
-0.000180879
-1.0948e-05
-0.000176555
-1.29766e-05
-0.000171348
-1.56271e-05
-0.000165285
-1.81888e-05
-0.000158385
-2.06961e-05
-0.000150685
-2.30964e-05
-0.000141996
-2.60655e-05
-0.00013261
-2.81641e-05
-0.000122279
-3.09841e-05
-0.000111108
-3.35094e-05
-9.91223e-05
-3.59472e-05
-8.63889e-05
-3.82064e-05
-7.28575e-05
-4.05843e-05
-5.85979e-05
-4.27694e-05
-4.35043e-05
-4.52511e-05
-2.78347e-05
-4.70124e-05
-1.15194e-05
-4.89242e-05
5.4887e-06
-5.09858e-05
2.29775e-05
-5.24426e-05
4.09591e-05
-5.39046e-05
5.92429e-05
-5.48163e-05
7.76272e-05
-5.51008e-05
9.58795e-05
-5.46927e-05
0.000113718
-5.3434e-05
0.000130827
-5.1252e-05
0.000146917
-4.82079e-05
0.000161744
-4.44403e-05
0.000175048
-3.98962e-05
0.000186606
-3.467e-05
0.000196275
-2.8999e-05
0.000203883
-2.28086e-05
0.000209236
-1.6071e-05
0.000212304
-9.21973e-06
0.000212988
-2.07099e-06
0.000211256
5.11559e-06
0.000207059
1.25631e-05
0.000200468
1.97523e-05
0.000191578
2.665e-05
0.000180504
3.3163e-05
0.000167454
3.90808e-05
0.000152642
4.43625e-05
0.000136328
4.88756e-05
0.000118781
5.25766e-05
0.000100274
5.5433e-05
8.10952e-05
5.74134e-05
6.15662e-05
5.8577e-05
4.19399e-05
5.88285e-05
2.24707e-05
5.83451e-05
3.39202e-06
5.71821e-05
-1.51028e-05
5.54363e-05
-3.28429e-05
5.31739e-05
-4.97179e-05
5.05545e-05
-6.56524e-05
4.78075e-05
-8.05095e-05
4.4515e-05
-9.42994e-05
4.12798e-05
-0.000106955
3.80481e-05
-0.00011849
3.45709e-05
-0.000128946
3.13797e-05
-0.000138319
2.81016e-05
-0.000146619
2.49054e-05
-0.000153909
2.18653e-05
-0.000160229
1.88651e-05
-0.000165627
1.62501e-05
-0.00017011
1.34422e-05
-0.000173776
1.09968e-05
-0.000176657
8.65617e-06
-0.00017881
6.38232e-06
-0.000180313
4.57486e-06
-0.000181153
2.51644e-06
-0.000181416
7.93127e-07
-0.000181079
-1.00314e-06
-0.00018016
-2.79494e-06
-0.000178745
-4.21366e-06
-0.000176736
-6.01966e-06
-0.000174148
-7.75826e-06
-0.000171059
-9.28185e-06
-0.000167322
-1.12126e-05
-0.000162974
-1.3138e-05
-0.000157943
-1.49715e-05
-0.000152293
-1.69614e-05
-0.000145893
-1.9204e-05
-0.000138728
-2.15189e-05
-0.000130776
-2.38916e-05
-0.000122048
-2.61456e-05
-0.000112466
-2.87306e-05
-0.000101995
-3.13772e-05
-9.06375e-05
-3.40977e-05
-7.84061e-05
-3.66431e-05
-6.52718e-05
-3.93436e-05
-5.13411e-05
-4.18637e-05
-3.65983e-05
-4.41036e-05
-2.11884e-05
-4.62152e-05
-5.11929e-06
-4.82344e-05
1.14391e-05
-4.95632e-05
2.83894e-05
-5.08573e-05
4.55682e-05
-5.1449e-05
6.27862e-05
-5.16465e-05
7.98346e-05
-5.1068e-05
9.65254e-05
-5.00212e-05
0.000112655
-4.8274e-05
0.000127897
-4.56839e-05
0.000142071
-4.24589e-05
0.000154897
-3.84198e-05
0.000166123
-3.36348e-05
0.000175534
-2.81755e-05
0.000182953
-2.216e-05
0.000188114
-1.55189e-05
0.00019101
-8.65412e-06
0.000191523
-1.52531e-06
0.000189624
5.62275e-06
0.000185322
1.29235e-05
0.000178687
1.98788e-05
0.000169849
2.64498e-05
0.000158992
3.25307e-05
0.000146307
3.80018e-05
0.000132017
4.28106e-05
0.000116365
4.68739e-05
9.96503e-05
5.00966e-05
8.21427e-05
5.24613e-05
6.41412e-05
5.3937e-05
4.58975e-05
5.46611e-05
2.76552e-05
5.46737e-05
9.65304e-06
5.39848e-05
-7.95529e-06
5.27262e-05
-2.49486e-05
5.09447e-05
-4.12257e-05
4.88103e-05
-5.66926e-05
4.63714e-05
-7.12484e-05
4.36693e-05
-8.49219e-05
4.10096e-05
-9.76665e-05
3.82062e-05
-0.000109467
3.53664e-05
-0.000120287
3.24738e-05
-0.000130227
2.97546e-05
-0.000139094
2.65817e-05
-0.000147044
2.38705e-05
-0.000154028
2.09478e-05
-0.000160188
1.84357e-05
-0.000165551
1.61734e-05
-0.000170224
1.402e-05
-0.000174269
1.21205e-05
-0.000177737
1.03996e-05
-0.000180567
8.40226e-06
-0.000182754
6.65422e-06
-0.000184284
4.49197e-06
-0.000185165
2.72414e-06
-0.000185336
5.12254e-07
-0.000184868
-1.36862e-06
-0.000183758
-3.30279e-06
-0.00018211
-4.95359e-06
-0.000179869
-6.71126e-06
-0.000177104
-8.30525e-06
-0.000173755
-1.00153e-05
-0.00016985
-1.17132e-05
-0.000165293
-1.36676e-05
-0.000160083
-1.5618e-05
-0.00015422
-1.75781e-05
-0.000147609
-1.98374e-05
-0.000140307
-2.19889e-05
-0.000132281
-2.39991e-05
-0.000123502
-2.63243e-05
-0.000113952
-2.85757e-05
-0.000103676
-3.08896e-05
-9.26244e-05
-3.3111e-05
-8.08238e-05
-3.54196e-05
-6.82825e-05
-3.76419e-05
-5.50119e-05
-3.97828e-05
-4.10423e-05
-4.18655e-05
-2.64464e-05
-4.37698e-05
-1.12882e-05
-4.54407e-05
4.33317e-06
-4.68037e-05
2.02527e-05
-4.77369e-05
3.63183e-05
-4.81592e-05
5.23555e-05
-4.80495e-05
6.81874e-05
-4.74695e-05
8.36102e-05
-4.62306e-05
9.8425e-05
-4.44062e-05
0.000112424
-4.19494e-05
0.000125364
-3.8784e-05
0.000137031
-3.49767e-05
0.000147226
-3.05261e-05
0.000155767
-2.55324e-05
0.000162408
-1.99263e-05
0.000167086
-1.39668e-05
0.000169606
-7.55993e-06
0.000169932
-9.67321e-07
0.000168008
5.75264e-06
0.000163827
1.25701e-05
0.000157483
1.90505e-05
0.000149061
2.52709e-05
0.000138738
3.09441e-05
0.000126679
3.61617e-05
0.000113091
4.07362e-05
9.81936e-05
4.46523e-05
8.22561e-05
4.77816e-05
6.55288e-05
5.01745e-05
4.82343e-05
5.17773e-05
3.07035e-05
5.25769e-05
1.31751e-05
5.2539e-05
-4.11236e-06
5.1842e-05
-2.09746e-05
5.05567e-05
-3.71832e-05
4.86061e-05
-5.26395e-05
4.63608e-05
-6.7196e-05
4.36634e-05
-8.07755e-05
4.07578e-05
-9.33931e-05
3.78183e-05
-0.000104912
3.45314e-05
-0.000115365
3.13872e-05
-0.000124643
2.7834e-05
-0.000132793
2.441e-05
-0.000139755
2.08752e-05
-0.000145474
1.71824e-05
-0.000150104
1.38494e-05
-0.00015369
1.07856e-05
-0.000156307
7.87579e-06
-0.000158165
5.61158e-06
-0.000159349
3.60443e-06
-0.000160036
2.09736e-06
-0.000160331
9.36217e-07
-0.000160235
-2.58334e-07
-0.00015975
-1.43706e-06
-0.000159018
-2.20369e-06
-0.000157906
-3.32341e-06
-0.00015662
-3.86757e-06
-0.000155036
-4.74729e-06
-0.000153174
-5.59846e-06
-0.000151058
-6.36047e-06
-0.000148751
-6.91978e-06
-0.000145985
-8.32446e-06
-0.000142774
-9.62428e-06
-0.000139246
-1.05847e-05
-0.000135108
-1.24337e-05
-0.000130497
-1.38491e-05
-0.000125192
-1.5986e-05
-0.000119196
-1.79516e-05
-0.000112466
-2.01811e-05
-0.000104774
-2.30978e-05
-9.62053e-05
-2.57213e-05
-8.68158e-05
-2.82238e-05
-7.62636e-05
-3.16148e-05
-6.47086e-05
-3.46346e-05
-5.20052e-05
-3.81181e-05
-3.83141e-05
-4.10658e-05
-2.38338e-05
-4.34437e-05
-8.44662e-06
-4.61243e-05
7.80396e-06
-4.87014e-05
2.44967e-05
-5.0044e-05
4.16431e-05
-5.13923e-05
5.90019e-05
-5.20289e-05
7.64565e-05
-5.23073e-05
9.374e-05
-5.17864e-05
0.00011047
-5.01405e-05
0.00012651
-4.80643e-05
0.000141679
-4.54474e-05
0.00015562
-4.17704e-05
0.000168166
-3.75975e-05
0.000179113
-3.28123e-05
0.000188353
-2.76784e-05
0.000195696
-2.19737e-05
0.000200976
-1.58262e-05
0.000204178
-9.60721e-06
0.000205322
-3.42929e-06
0.000204234
3.17545e-06
0.000201052
9.49742e-06
0.000195871
1.55218e-05
0.000188807
2.11514e-05
0.00018008
2.6157e-05
0.000169821
3.07328e-05
0.000158351
3.43782e-05
0.000145738
3.7801e-05
0.000132252
4.04029e-05
0.000118084
4.24749e-05
0.000103375
4.40878e-05
8.83834e-05
4.49312e-05
7.31893e-05
4.55667e-05
5.79363e-05
4.57265e-05
4.28814e-05
4.51276e-05
2.79405e-05
4.48227e-05
1.32818e-05
4.39525e-05
-9.00872e-07
4.25385e-05
-1.47023e-05
4.13937e-05
-2.80007e-05
3.9886e-05
-4.07316e-05
3.8184e-05
-5.28721e-05
3.64154e-05
-6.43665e-05
3.44775e-05
-7.52246e-05
3.25689e-05
-8.54031e-05
3.05303e-05
-9.48631e-05
2.83748e-05
-0.000103617
2.62524e-05
2.372e-05
-0.000141326
-3.16422e-05
-0.000132305
-3.60981e-05
-0.00012236
-3.98032e-05
-0.00011143
-4.37249e-05
-9.93119e-05
-4.84621e-05
-8.62894e-05
-5.21098e-05
-7.19548e-05
-5.72751e-05
-5.68038e-05
-6.05901e-05
-4.09487e-05
-6.34031e-05
-2.41901e-05
-6.70007e-05
-6.49534e-06
-7.06087e-05
1.16244e-05
-7.22865e-05
3.03061e-05
-7.45936e-05
4.92811e-05
-7.5756e-05
6.8439e-05
-7.65144e-05
8.7557e-05
-7.63501e-05
0.000106169
-7.42881e-05
0.000124155
-7.18049e-05
0.000141278
-6.83427e-05
0.000157159
-6.33828e-05
0.000171642
-5.77882e-05
0.000184438
-5.10583e-05
0.000195272
-4.32328e-05
0.000204002
-3.48435e-05
0.000210434
-2.56655e-05
0.000214498
-1.61953e-05
0.000216039
-6.16879e-06
0.000214938
4.18835e-06
0.000211396
1.40779e-05
0.000205468
2.37133e-05
0.000197059
3.35522e-05
0.000186564
4.18763e-05
0.000174037
4.99929e-05
0.000159902
5.63762e-05
0.000144287
6.23e-05
0.00012742
6.73562e-05
0.000109559
7.12894e-05
9.09977e-05
7.41039e-05
7.1955e-05
7.60274e-05
5.28333e-05
7.63279e-05
3.37842e-05
7.60824e-05
1.49145e-05
7.54152e-05
-3.53649e-06
7.36954e-05
-2.1402e-05
7.13762e-05
-3.85605e-05
6.85554e-05
-5.49439e-05
6.54808e-05
-7.04179e-05
6.18574e-05
-8.49526e-05
5.81023e-05
-9.85342e-05
5.42934e-05
-0.000111109
5.02831e-05
-0.000122677
4.62566e-05
-0.000133263
4.23484e-05
-0.000142867
3.84158e-05
-0.000151526
3.46297e-05
-0.000159247
3.08878e-05
-0.000166065
2.72679e-05
-0.00017202
2.383e-05
-0.000177098
2.03294e-05
-0.000181337
1.69736e-05
-0.000184791
1.38135e-05
-0.00018743
1.05893e-05
-0.00018935
7.6757e-06
-0.000190469
4.50419e-06
-0.000190795
1.40925e-06
-0.000190436
-1.45008e-06
-0.000189299
-4.55516e-06
-0.000187305
-7.97485e-06
-0.000184625
-1.07068e-05
-0.000180977
-1.45966e-05
-0.000176659
-1.7294e-05
-0.000171455
-2.08309e-05
-0.000165391
-2.42537e-05
-0.000158492
-2.75945e-05
-0.000150789
-3.08002e-05
-0.000142101
-3.47528e-05
-0.000132721
-3.75444e-05
-0.000122384
-4.13218e-05
-0.000111215
-4.46778e-05
-9.92237e-05
-4.79388e-05
-8.64913e-05
-5.0939e-05
-7.29581e-05
-5.41177e-05
-5.86966e-05
-5.70311e-05
-4.35933e-05
-6.03545e-05
-2.79296e-05
-6.26762e-05
-1.15978e-05
-6.52561e-05
5.42368e-06
-6.80074e-05
2.29178e-05
-6.99369e-05
4.09173e-05
-7.1904e-05
5.92102e-05
-7.31092e-05
7.76188e-05
-7.35094e-05
9.59035e-05
-7.29773e-05
0.000113776
-7.13061e-05
0.000130915
-6.83908e-05
0.000147026
-6.43185e-05
0.00016187
-5.92841e-05
0.000175174
-5.32e-05
0.000186739
-4.62348e-05
0.000196408
-3.86681e-05
0.000203989
-3.03891e-05
0.000209361
-2.14426e-05
0.000212421
-1.22802e-05
0.000213097
-2.74642e-06