/*--------------------------------*- C++ -*----------------------------------*\
| =========                 |                                                 |
| \\      /  F ield         | OpenFOAM: The Open Source CFD Toolbox           |
|  \\    /   O peration     | Version:  3.0.1                                 |
|   \\  /    A nd           | Web:      www.OpenFOAM.org                      |
|    \\/     M anipulation  |                                                 |
\*---------------------------------------------------------------------------*/
FoamFile
{
    version     2.0;
    format      ascii;
    class       surfaceScalarField;
    location    "97.2";
    object      alphaPhi;
}
// * * * * * * * * * * * * * * * * * * * * * * * * * * * * * * * * * * * * * //

dimensions      [0 3 -1 0 0 0 0];

internalField   nonuniform List<scalar> 
42423
(
0.000157982
-6.3644e-06
0.000164643
-6.66105e-06
0.000171779
-7.13598e-06
0.000179247
-7.4681e-06
0.000187221
-7.97423e-06
0.000195558
-8.33748e-06
0.000204398
-8.84004e-06
0.000213731
-9.33254e-06
0.000223262
-9.53087e-06
0.000233288
-1.00265e-05
0.000243882
-1.05942e-05
0.000254674
-1.07913e-05
0.000266015
-1.13417e-05
0.000277755
-1.17397e-05
0.000289984
-1.22296e-05
0.000302831
-1.28466e-05
0.000315841
-1.30101e-05
0.000329219
-1.33776e-05
0.000343034
-1.38157e-05
0.000356818
-1.37842e-05
0.000370598
-1.37797e-05
0.000384357
-1.37589e-05
0.000397681
-1.33249e-05
0.000410444
-1.27623e-05
0.000422457
-1.20138e-05
0.000433532
-1.10746e-05
0.000443506
-9.97379e-06
0.000452102
-8.59652e-06
0.000459169
-7.06703e-06
0.000464603
-5.43348e-06
0.000468232
-3.62958e-06
0.000470016
-1.78351e-06
0.000469838
1.77542e-07
0.000467731
2.107e-06
0.000463885
3.84611e-06
0.000458076
5.80903e-06
0.000450578
7.49759e-06
0.00044172
8.85807e-06
0.000431238
1.04821e-05
0.000419483
1.17543e-05
0.000406645
1.28378e-05
0.000392902
1.37437e-05
0.000378608
1.42942e-05
0.000363698
1.49091e-05
0.000348489
1.52094e-05
0.000333278
1.52109e-05
0.000318105
1.51729e-05
0.000303228
1.48767e-05
0.000288847
1.43819e-05
0.000275026
1.38209e-05
0.000261928
1.3098e-05
0.000249626
1.23012e-05
0.000238191
1.14351e-05
0.000227646
1.05456e-05
0.000217967
9.67915e-06
0.000209139
8.82757e-06
0.000201113
8.02601e-06
0.000193809
7.30406e-06
0.000187151
6.65752e-06
0.000181034
6.11695e-06
0.000175363
5.6718e-06
0.000170053
5.30919e-06
0.000165044
5.00952e-06
0.00016028
4.76429e-06
0.000155756
4.52333e-06
0.000151379
4.37728e-06
0.000147172
4.20678e-06
0.00014317
4.00261e-06
0.000139349
3.82109e-06
0.000135686
3.66263e-06
0.000132041
3.64549e-06
0.000128213
3.82778e-06
0.00012408
4.13269e-06
0.000119384
4.69637e-06
0.000114024
5.35999e-06
0.000108137
5.88652e-06
0.000101973
6.16467e-06
9.56822e-05
6.2904e-06
8.975e-05
5.93223e-06
8.42514e-05
5.49859e-06
7.93559e-05
4.89552e-06
7.52849e-05
4.07097e-06
7.20599e-05
3.22508e-06
6.97265e-05
2.33339e-06
6.83451e-05
1.38141e-06
6.80555e-05
2.89578e-07
6.92416e-05
-1.1861e-06
7.17582e-05
-2.51658e-06
7.55254e-05
-3.76724e-06
8.04858e-05
-4.96045e-06
8.65779e-05
-6.09214e-06
9.37396e-05
-7.16172e-06
0.000101924
-8.18457e-06
0.000111128
-9.20348e-06
0.000121306
-1.0178e-05
0.000132434
-1.11289e-05
0.000144459
-1.20247e-05
0.000157392
-1.29333e-05
0.000171231
-1.38384e-05
0.000185902
-1.46716e-05
0.000201356
-1.54536e-05
0.000217528
-1.61724e-05
0.000234283
-1.67557e-05
0.000251501
-1.72179e-05
0.000269024
-1.75225e-05
0.000286659
-1.76358e-05
0.000304219
-1.75598e-05
0.000321471
-1.72516e-05
0.000338196
-1.67251e-05
0.000354153
-1.59572e-05
0.000369139
-1.49861e-05
0.00038295
-1.38114e-05
0.000395392
-1.24421e-05
0.000406285
-1.08927e-05
0.000415452
-9.16785e-06
0.000422744
-7.29175e-06
0.000427983
-5.23866e-06
0.000431148
-3.16511e-06
0.000432129
-9.80874e-07
0.000430985
1.14438e-06
0.000427571
3.41356e-06
0.000421972
5.59853e-06
0.000414368
7.60452e-06
0.000404882
9.48603e-06
0.000393656
1.12265e-05
0.000380875
1.27802e-05
0.000366721
1.41548e-05
0.000351414
1.53065e-05
0.000335204
1.62101e-05
0.000318251
1.69539e-05
0.000300768
1.7483e-05
0.000282994
1.77738e-05
0.000265053
1.79411e-05
0.000247192
1.78604e-05
0.000229563
1.76299e-05
0.00021227
1.72931e-05
0.000195572
1.66977e-05
0.00017944
1.61317e-05
0.000164046
1.53942e-05
0.000149475
1.45715e-05
0.00013567
1.38045e-05
0.000122792
1.28788e-05
0.000110804
1.19875e-05
9.97141e-05
1.109e-05
8.96124e-05
1.01017e-05
8.04451e-05
9.1674e-06
7.21957e-05
8.24937e-06
6.48987e-05
7.29704e-06
5.85222e-05
6.37652e-06
5.30109e-05
5.51129e-06
4.83624e-05
4.64853e-06
4.45391e-05
3.82328e-06
4.14182e-05
3.12092e-06
3.90481e-05
2.37015e-06
3.74323e-05
1.61575e-06
3.65294e-05
9.02944e-07
3.62607e-05
2.68726e-07
3.6624e-05
-3.63355e-07
3.76418e-05
-1.01778e-06
3.92445e-05
-1.60263e-06
4.1356e-05
-2.11158e-06
4.39573e-05
-2.60127e-06
4.70261e-05
-3.06878e-06
5.05007e-05
-3.47456e-06
5.43702e-05
-3.86952e-06
5.86464e-05
-4.27627e-06
6.32892e-05
-4.64276e-06
6.83486e-05
-5.05936e-06
7.37599e-05
-5.41136e-06
7.95399e-05
-5.77994e-06
8.56907e-05
-6.15082e-06
9.21364e-05
-6.44566e-06
9.89753e-05
-6.83889e-06
0.000106175
-7.19954e-06
0.000113678
-7.50297e-06
0.000121633
-7.95563e-06
0.000129996
-8.36259e-06
0.000138719
-8.72294e-06
0.000147903
-9.1843e-06
0.000157545
-9.64157e-06
0.000167559
-1.00142e-05
0.000177976
-1.04171e-05
0.000188816
-1.084e-05
0.000199992
-1.11754e-05
0.000211526
-1.15338e-05
0.000223431
-1.19059e-05
0.000235636
-1.22042e-05
0.000248103
-1.24672e-05
0.000260851
-1.27478e-05
0.000273772
-1.2921e-05
0.000286831
-1.30592e-05
0.000299922
-1.30913e-05
0.000312884
-1.29614e-05
0.000325597
-1.27129e-05
0.000337879
-1.22817e-05
0.000349544
-1.16647e-05
0.000360312
-1.07677e-05
0.000370019
-9.70709e-06
0.000378404
-8.38451e-06
0.000385246
-6.84232e-06
0.000390408
-5.1611e-06
0.000393721
-3.31287e-06
0.000395098
-1.37635e-06
0.000394562
5.35657e-07
0.000391989
2.57359e-06
0.000387438
4.55112e-06
0.000380995
6.44313e-06
0.000372789
8.20634e-06
0.000362943
9.84654e-06
0.000351613
1.13301e-05
0.000339015
1.25979e-05
0.000325323
1.36922e-05
0.000310826
1.44973e-05
0.00029575
1.50765e-05
0.000280405
1.53457e-05
0.00026502
1.5385e-05
0.000249822
1.51982e-05
0.000235043
1.47783e-05
0.000220817
1.4226e-05
0.000207276
1.35415e-05
0.000194506
1.27704e-05
0.000182633
1.18726e-05
0.000171611
1.10225e-05
0.00016151
1.01005e-05
0.000152294
9.21672e-06
0.000143916
8.37726e-06
0.00013638
7.53663e-06
0.000129638
6.7424e-06
0.000123606
6.03163e-06
0.000118315
5.29085e-06
0.000113724
4.5907e-06
0.000109815
3.90947e-06
0.000106521
3.29357e-06
0.000103764
2.75751e-06
0.000101499
2.26449e-06
9.96294e-05
1.87012e-06
9.81128e-05
1.51654e-06
9.6927e-05
1.18589e-06
9.59738e-05
9.53166e-07
9.5265e-05
7.08885e-07
9.47316e-05
5.33361e-07
9.4382e-05
3.49671e-07
9.41348e-05
2.47165e-07
9.40066e-05
1.28244e-07
9.40467e-05
-4.00402e-08
9.41817e-05
-1.35013e-07
9.45601e-05
-3.78407e-07
9.51817e-05
-6.21551e-07
9.59812e-05
-7.99499e-07
9.71543e-05
-1.17299e-06
9.85335e-05
-1.37926e-06
0.000100133
-1.59976e-06
0.000102011
-1.87803e-06
0.000104243
-2.23185e-06
0.000106766
-2.52273e-06
0.000109657
-2.89055e-06
0.000113054
-3.39782e-06
0.000116996
-3.94114e-06
0.000121475
-4.47918e-06
0.000126727
-5.25219e-06
0.000132696
-5.96941e-06
0.000139519
-6.82297e-06
0.000147249
-7.72976e-06
0.000155831
-8.58236e-06
0.000165356
-9.5245e-06
0.000175913
-1.05568e-05
0.000187346
-1.14337e-05
0.000199646
-1.22994e-05
0.000212898
-1.32523e-05
0.000226725
-1.3828e-05
0.000241328
-1.46032e-05
0.000256424
-1.50963e-05
0.000271648
-1.52237e-05
0.000287174
-1.55274e-05
0.000302989
-1.58157e-05
0.000318885
-1.58961e-05
0.000334805
-1.59213e-05
0.000350678
-1.58742e-05
0.000366318
-1.5642e-05
0.000381728
-1.54118e-05
0.000396812
-1.50854e-05
0.000411385
-1.45757e-05
0.000425148
-1.37649e-05
0.00043765
-1.25038e-05
0.000448523
-1.08761e-05
0.000457614
-9.09277e-06
0.000464597
-6.98511e-06
0.000468503
-3.90759e-06
0.000468026
4.75258e-07
0.000463914
4.11095e-06
0.000457283
6.63012e-06
0.000448605
8.67739e-06
0.000437817
1.07866e-05
0.000424963
1.28539e-05
0.000410205
1.47573e-05
0.000394215
1.59897e-05
0.000377327
1.68884e-05
0.000359893
1.74334e-05
0.000342403
1.74903e-05
0.000325017
1.7386e-05
0.0003081
1.6917e-05
0.000291726
1.63737e-05
0.000275956
1.57705e-05
0.000260965
1.49903e-05
0.000246743
1.42222e-05
0.000233291
1.34525e-05
0.000220686
1.26047e-05
0.000208887
1.17991e-05
0.000197931
1.09558e-05
0.000187781
1.01502e-05
0.000178418
9.36263e-06
0.000169856
8.56249e-06
0.000162056
7.80023e-06
0.000154991
7.0647e-06
0.000148647
6.34412e-06
0.000142981
5.66614e-06
0.000137962
5.01871e-06
0.000133542
4.42035e-06
0.000129671
3.87108e-06
0.000126306
3.36515e-06
0.000123393
2.91215e-06
0.000120881
2.51239e-06
0.000118719
2.16211e-06
0.000116857
1.86203e-06
0.000115255
1.60143e-06
0.000113884
1.37134e-06
0.00011272
1.16382e-06
0.000111759
9.61679e-07
0.000111007
7.51574e-07
0.000110488
5.18973e-07
0.000110227
2.60748e-07
0.000110302
-7.5005e-08
0.000110781
-4.78245e-07
0.000111743
-9.62774e-07
0.000113231
-1.48736e-06
0.000115339
-2.10853e-06
0.000118129
-2.79017e-06
0.000121568
-3.43852e-06
0.000125788
-4.22002e-06
0.000130838
-5.04989e-06
0.000136583
-5.74511e-06
0.000143228
-6.64554e-06
0.000150638
-7.40918e-06
0.00015897
-8.33228e-06
0.00016821
-9.2399e-06
0.000178107
-9.89717e-06
0.000188876
-1.07695e-05
0.000200514
-1.16377e-05
0.000212741
-1.22267e-05
0.000225768
-1.3027e-05
0.000239375
-1.36069e-05
0.000253656
-1.42813e-05
0.000268492
-1.48356e-05
0.000283584
-1.50919e-05
0.000299053
-1.54699e-05
0.000314809
-1.57553e-05
-1.61187e-05
0.000157962
-1.27273e-05
0.000164621
-1.33201e-05
0.000171758
-1.4273e-05
0.000179227
-1.49374e-05
0.000187206
-1.59527e-05
0.000195541
-1.66733e-05
0.000204379
-1.76778e-05
0.000213715
-1.86689e-05
0.000223246
-1.90613e-05
0.00023328
-2.00607e-05
0.000243889
-2.12038e-05
0.000254691
-2.15928e-05
0.000266021
-2.26724e-05
0.000277756
-2.34748e-05
0.000290004
-2.44771e-05
0.000302851
-2.56943e-05
0.000315842
-2.60014e-05
0.00032922
-2.67552e-05
0.000343044
-2.76403e-05
0.000356837
-2.75774e-05
0.000370634
-2.75766e-05
0.000384402
-2.75268e-05
0.000397721
-2.66436e-05
0.000410497
-2.55393e-05
0.000422518
-2.40344e-05
0.000433593
-2.21503e-05
0.00044359
-1.99706e-05
0.00045219
-1.7197e-05
0.000459255
-1.41319e-05
0.000464681
-1.08595e-05
0.000468322
-7.27037e-06
0.000470117
-3.57892e-06
0.00046992
3.74338e-07
0.000467804
4.2228e-06
0.000463958
7.6915e-06
0.00045814
1.16276e-05
0.000450632
1.50055e-05
0.000441776
1.77139e-05
0.000431294
2.0964e-05
0.00041954
2.35083e-05
0.000406699
2.56789e-05
0.000392948
2.74938e-05
0.000378648
2.85949e-05
0.000363732
2.98251e-05
0.000348515
3.0426e-05
0.000333297
3.04284e-05
0.000318119
3.03516e-05
0.000303237
2.97583e-05
0.000288849
2.87694e-05
0.000275022
2.76482e-05
0.00026192
2.61998e-05
0.000249618
2.46038e-05
0.000238181
2.28722e-05
0.000227633
2.10929e-05
0.000217955
1.93578e-05
0.000209131
1.76514e-05
0.00020111
1.60471e-05
0.000193809
1.46045e-05
0.000187155
1.33118e-05
0.000181039
1.22332e-05
0.000175365
1.13458e-05
0.000170054
1.06198e-05
0.000165045
1.00191e-05
0.000160281
9.52826e-06
0.000155757
9.04718e-06
0.000151379
8.7548e-06
0.000147169
8.41686e-06
0.000143165
8.00715e-06
0.000139343
7.64295e-06
0.000135676
7.32946e-06
0.000132029
7.29231e-06
0.000128198
7.65923e-06
0.000124073
8.25768e-06
0.00011939
9.37906e-06
0.000114044
1.07057e-05
0.00010818
1.17514e-05
0.000102034
1.23099e-05
9.57538e-05
1.25709e-05
8.98324e-05
1.18536e-05
8.43533e-05
1.09778e-05
7.94774e-05
9.77142e-06
7.54246e-05
8.12378e-06
7.22125e-05
6.4372e-06
6.98911e-05
4.65482e-06
6.85269e-05
2.74562e-06
6.82513e-05
5.65143e-07
6.94483e-05
-2.38317e-06
7.19714e-05
-5.03967e-06
7.57344e-05
-7.53028e-06
8.06956e-05
-9.9216e-06
8.67894e-05
-1.2186e-05
9.39569e-05
-1.43292e-05
0.000102154
-1.63819e-05
0.000111362
-1.84111e-05
0.000121542
-2.03586e-05
0.000132664
-2.22509e-05
0.000144686
-2.40467e-05
0.000157619
-2.58663e-05
0.000171453
-2.76724e-05
0.000186127
-2.93464e-05
0.000201585
-3.09116e-05
0.000217765
-3.23522e-05
0.000234527
-3.35182e-05
0.000251757
-3.44473e-05
0.000269297
-3.50636e-05
0.000286942
-3.52802e-05
0.000304508
-3.51264e-05
0.000321771
-3.45149e-05
0.000338513
-3.34668e-05
0.000354478
-3.1923e-05
0.000369469
-2.9977e-05
0.000383289
-2.76316e-05
0.000395747
-2.48998e-05
0.00040665
-2.1796e-05
0.000415821
-1.83389e-05
0.000423124
-1.45953e-05
0.000428368
-1.04822e-05
0.000431525
-6.32224e-06
0.00043251
-1.9665e-06
0.000431345
2.30999e-06
0.000427925
6.83296e-06
0.000422326
1.11976e-05
0.000414716
1.52141e-05
0.000405224
1.8979e-05
0.000393986
2.24644e-05
0.000381197
2.55686e-05
0.000367041
2.83114e-05
0.000351724
3.06232e-05
0.000335498
3.24369e-05
0.000318532
3.392e-05
0.00030104
3.49749e-05
0.000283255
3.55592e-05
0.000265301
3.58948e-05
0.000247435
3.57269e-05
0.0002298
3.5265e-05
0.000212502
3.45908e-05
0.000195796
3.34042e-05
0.000179657
3.22708e-05
0.000164261
3.07901e-05
0.000149685
2.91473e-05
0.000135879
2.76107e-05
0.000123011
2.57467e-05
0.000111018
2.39806e-05
9.99126e-05
2.21957e-05
8.98056e-05
2.02087e-05
8.0641e-05
1.83321e-05
7.23986e-05
1.64919e-05
6.51019e-05
1.45938e-05
5.8724e-05
1.27545e-05
5.32096e-05
1.10257e-05
4.85573e-05
9.30095e-06
4.47332e-05
7.64741e-06
4.16185e-05
6.23562e-06
3.92561e-05
4.73251e-06
3.7641e-05
3.23087e-06
3.67351e-05
1.8089e-06
3.6464e-05
5.39875e-07
3.68329e-05
-7.32292e-07
3.78522e-05
-2.03711e-06
3.9459e-05
-3.2094e-06
4.15733e-05
-4.22581e-06
4.41743e-05
-5.20224e-06
4.72452e-05
-6.13975e-06
5.07168e-05
-6.9461e-06
5.45861e-05
-7.73876e-06
5.88641e-05
-8.55432e-06
6.35114e-05
-9.29006e-06
6.85733e-05
-1.01212e-05
7.39888e-05
-1.08269e-05
7.97693e-05
-1.15604e-05
8.59172e-05
-1.22986e-05
9.23636e-05
-1.28921e-05
9.92044e-05
-1.36797e-05
0.0001064
-1.43951e-05
0.000113902
-1.50046e-05
0.000121864
-1.59178e-05
0.000130227
-1.67252e-05
0.000138955
-1.74509e-05
0.000148147
-1.83769e-05
0.000157786
-1.92808e-05
0.000167789
-2.00172e-05
0.000178204
-2.08314e-05
0.000189048
-2.16843e-05
0.000200229
-2.23568e-05
0.000211771
-2.30756e-05
0.000223673
-2.38076e-05
0.000235879
-2.44105e-05
0.000248353
-2.49413e-05
0.000261113
-2.55072e-05
0.000274038
-2.58459e-05
0.000287099
-2.61205e-05
0.000300199
-2.61912e-05
0.000313165
-2.59273e-05
0.000325889
-2.54368e-05
0.000338178
-2.45704e-05
0.000349852
-2.33382e-05
0.000360626
-2.1542e-05
0.000370339
-1.94199e-05
0.000378725
-1.67704e-05
0.000385581
-1.36981e-05
0.000390755
-1.03344e-05
0.000394072
-6.62962e-06
0.000395455
-2.7592e-06
0.000394893
1.09787e-06
0.000392306
5.16055e-06
0.000387744
9.11375e-06
0.000381289
1.28983e-05
0.000373061
1.64342e-05
0.000363195
1.97127e-05
0.00035185
2.26754e-05
0.000339221
2.5227e-05
0.000325499
2.74152e-05
0.000310977
2.90191e-05
0.000295873
3.01805e-05
0.000280496
3.07229e-05
0.000265064
3.0817e-05
0.000249835
3.04279e-05
0.000235036
2.95771e-05
0.000220782
2.84803e-05
0.000207216
2.71081e-05
0.000194429
2.55571e-05
0.00018254
2.37614e-05
0.000171492
2.20704e-05
0.000161369
2.02242e-05
0.000152137
1.84481e-05
0.000143743
1.67719e-05
0.000136187
1.50921e-05
0.000129428
1.35018e-05
0.000123377
1.20827e-05
0.000118075
1.05933e-05
0.000113468
9.19723e-06
0.000109547
7.83064e-06
0.000106241
6.59999e-06
0.000103475
5.52299e-06
0.0001012
4.53922e-06
9.93273e-05
3.74328e-06
9.78078e-05
3.03607e-06
9.66091e-05
2.38458e-06
9.56432e-05
1.9191e-06
9.49346e-05
1.41747e-06
9.44017e-05
1.06628e-06
9.40491e-05
7.02305e-07
9.38091e-05
4.87113e-07
9.36784e-05
2.58982e-07
9.37124e-05
-7.40343e-08
9.3861e-05
-2.83569e-07
9.4234e-05
-7.51337e-07
9.48414e-05
-1.22896e-06
9.56556e-05
-1.61369e-06
9.68461e-05
-2.36339e-06
9.82193e-05
-2.75243e-06
9.98287e-05
-3.20918e-06
0.000101716
-3.76554e-06
0.000103955
-4.4704e-06
0.00010648
-5.04777e-06
0.000109383
-5.79382e-06
0.000112786
-6.8005e-06
0.000116733
-7.8883e-06
0.000121232
-8.97829e-06
0.000126496
-1.05159e-05
0.000132489
-1.19624e-05
0.000139319
-1.36527e-05
0.000147051
-1.54623e-05
0.000155648
-1.71786e-05
0.0001652
-1.90771e-05
0.000175769
-2.11259e-05
0.000187208
-2.28728e-05
0.000199523
-2.46146e-05
0.000212788
-2.6517e-05
0.000226615
-2.76549e-05
0.000241161
-2.91502e-05
0.00025624
-3.01757e-05
0.000271501
-3.0485e-05
0.000287072
-3.1099e-05
0.000302909
-3.16536e-05
0.000318823
-3.18114e-05
0.000334757
-3.18559e-05
0.000350638
-3.17571e-05
0.000366289
-3.12945e-05
0.000381701
-3.08256e-05
0.000396769
-3.01558e-05
0.000411337
-2.9146e-05
0.000425083
-2.75125e-05
0.000437508
-2.49319e-05
0.000448279
-2.16487e-05
0.00045716
-1.79763e-05
0.000463649
-1.34766e-05
0.000467275
-7.53499e-06
0.000467075
6.72832e-07
0.000463449
7.73581e-06
0.000457169
1.29092e-05
0.000448618
1.72276e-05
0.00043784
2.15639e-05
0.000424981
2.57116e-05
0.000410217
2.95216e-05
0.000394218
3.19885e-05
0.000377323
3.37833e-05
0.000359882
3.48742e-05
0.000342384
3.49877e-05
0.000324994
3.47767e-05
0.000308073
3.38375e-05
0.000291697
3.27499e-05
0.000275925
3.15427e-05
0.000260933
2.99819e-05
0.00024671
2.84452e-05
0.000233257
2.69056e-05
0.000220652
2.52096e-05
0.000208853
2.35984e-05
0.000197897
2.19119e-05
0.000187747
2.03002e-05
0.000178384
1.87249e-05
0.000169822
1.71252e-05
0.000162021
1.5601e-05
0.000154957
1.41288e-05
0.000148614
1.26872e-05
0.000142948
1.13323e-05
0.000137927
1.00392e-05
0.000133505
8.84234e-06
0.000129638
7.73865e-06
0.000126276
6.72718e-06
0.000123365
5.82273e-06
0.000120854
5.02365e-06
0.000118692
4.32426e-06
0.00011683
3.72355e-06
0.000115229
3.20222e-06
0.000113857
2.74391e-06
0.000112692
2.32839e-06
0.00011173
1.92391e-06
0.000110975
1.50672e-06
0.000110447
1.04637e-06
0.000110184
5.24249e-07
0.000110256
-1.46699e-07
0.000110734
-9.56503e-07
0.000111695
-1.92383e-06
0.000113175
-2.96767e-06
0.00011528
-4.21302e-06
0.000118058
-5.56858e-06
0.000121496
-6.87675e-06
0.000125717
-8.4404e-06
0.000130771
-1.0104e-05
0.000136514
-1.14883e-05
0.000143155
-1.32869e-05
0.000150563
-1.48168e-05
0.000158903
-1.66727e-05
0.000168142
-1.84782e-05
0.000178037
-1.97925e-05
0.000188815
-2.15471e-05
0.000200447
-2.32702e-05
0.000212671
-2.44502e-05
0.000225712
-2.60684e-05
0.000239319
-2.72141e-05
0.000253604
-2.85659e-05
0.000268455
-2.96867e-05
0.000283546
-3.01832e-05
0.000299022
-3.09453e-05
0.000314803
-3.1537e-05
-3.22435e-05
0.000157927
-1.9092e-05
0.000164591
-1.99839e-05
0.000171733
-2.14149e-05
0.000179207
-2.24115e-05
0.000187194
-2.39405e-05
0.000195541
-2.502e-05
0.000204384
-2.65211e-05
0.000213731
-2.8016e-05
0.000223268
-2.85978e-05
0.000233309
-3.01019e-05
0.000243915
-3.18099e-05
0.000254708
-3.23863e-05
0.00026604
-3.40044e-05
0.000277778
-3.5213e-05
0.000290025
-3.67235e-05
0.000302894
-3.85636e-05
0.000315896
-3.90039e-05
0.000329273
-4.01322e-05
0.000343095
-4.14618e-05
0.000356885
-4.13682e-05
0.000370683
-4.13743e-05
0.000384478
-4.1322e-05
0.000397807
-3.99733e-05
0.000410589
-3.83215e-05
0.000422626
-3.60715e-05
0.000433717
-3.32413e-05
0.000443721
-2.99748e-05
0.00045232
-2.57957e-05
0.000459399
-2.1211e-05
0.000464835
-1.62957e-05
0.000468461
-1.08962e-05
0.000470263
-5.38114e-06
0.000470053
5.84046e-07
0.000467916
6.35925e-06
0.000464075
1.15325e-05
0.000458256
1.74472e-05
0.000450742
2.25187e-05
0.000441876
2.65802e-05
0.00043138
3.14597e-05
0.00041961
3.52787e-05
0.000406755
3.85339e-05
0.000392992
4.12563e-05
0.000378679
4.29082e-05
0.000363748
4.47556e-05
0.000348516
4.56579e-05
0.000333285
4.56596e-05
0.000318094
4.5542e-05
0.000303203
4.46497e-05
0.000288808
4.31649e-05
0.000274974
4.14816e-05
0.000261867
3.93068e-05
0.00024956
3.69106e-05
0.000238122
3.4311e-05
0.000227576
3.16388e-05
0.000217903
2.90307e-05
0.00020909
2.64642e-05
0.000201081
2.40556e-05
0.00019379
2.18961e-05
0.000187139
1.99627e-05
0.000181022
1.835e-05
0.000175348
1.70203e-05
0.000170043
1.59246e-05
0.000165039
1.50231e-05
0.000160274
1.42929e-05
0.000155751
1.35706e-05
0.000151376
1.31295e-05
0.000147167
1.26261e-05
0.00014316
1.20137e-05
0.000139335
1.14681e-05
0.000135668
1.09968e-05
0.000132023
1.09377e-05
0.000128195
1.14868e-05
0.000124088
1.23642e-05
0.000119438
1.40291e-05
0.000114126
1.60186e-05
0.000108286
1.75913e-05
0.000102178
1.8418e-05
9.59368e-05
1.88118e-05
9.00333e-05
1.77571e-05
8.45727e-05
1.64384e-05
7.97235e-05
1.46206e-05
7.56957e-05
1.21516e-05
7.25126e-05
9.6203e-06
7.02281e-05
6.93935e-06
6.89006e-05
4.07311e-06
6.86488e-05
8.16938e-07
6.9848e-05
-3.58242e-06
7.23637e-05
-7.5553e-06
7.61239e-05
-1.12906e-05
8.10756e-05
-1.48733e-05
8.71716e-05
-1.8282e-05
9.43464e-05
-2.15041e-05
0.000102555
-2.45906e-05
0.000111773
-2.76291e-05
0.000121966
-3.05517e-05
0.000133082
-3.33668e-05
0.00014509
-3.6055e-05
0.000158013
-3.87897e-05
0.000171837
-4.14965e-05
0.000186516
-4.40249e-05
0.000201983
-4.63794e-05
0.000218172
-4.85414e-05
0.000234948
-5.02943e-05
0.000252185
-5.1684e-05
0.000269744
-5.26228e-05
0.00028741
-5.29462e-05
0.000304994
-5.27106e-05
0.000322272
-5.17929e-05
0.000339027
-5.02219e-05
0.000355008
-4.79039e-05
0.000370028
-4.49976e-05
0.000383864
-4.1468e-05
0.000396338
-3.73738e-05
0.000407256
-3.27139e-05
0.00041644
-2.7523e-05
0.000423748
-2.1903e-05
0.000429006
-1.57401e-05
0.000432178
-9.49502e-06
0.00043316
-2.94774e-06
0.000431947
3.52228e-06
0.00042852
1.02597e-05
0.000422927
1.67907e-05
0.000415306
2.28353e-05
0.000405798
2.84873e-05
0.000394548
3.37144e-05
0.000381749
3.83679e-05
0.000367585
4.24748e-05
0.000352255
4.59532e-05
0.000336003
4.86892e-05
0.000319015
5.0908e-05
0.000301508
5.24825e-05
0.000283709
5.33579e-05
0.000265747
5.38576e-05
0.000247875
5.35987e-05
0.000230223
5.29166e-05
0.000212912
5.19027e-05
0.000196202
5.01142e-05
0.000180059
4.84135e-05
0.00016466
4.61892e-05
0.000150075
4.37321e-05
0.00013627
4.1416e-05
0.000123404
3.86133e-05
0.000111406
3.59779e-05
0.00010031
3.32925e-05
9.0209e-05
3.03094e-05
8.10346e-05
2.75065e-05
7.27933e-05
2.47332e-05
6.55102e-05
2.18769e-05
5.91361e-05
1.91286e-05
5.36146e-05
1.65472e-05
4.89586e-05
1.39569e-05
4.51258e-05
1.14802e-05
4.20097e-05
9.35179e-06
3.96598e-05
7.08236e-06
3.805e-05
4.84068e-06
3.71372e-05
2.72174e-06
3.68584e-05
8.1872e-07
3.72329e-05
-1.10679e-06
3.82635e-05
-3.06772e-06
3.98725e-05
-4.81842e-06
4.1988e-05
-6.34125e-06
4.45848e-05
-7.79906e-06
4.76503e-05
-9.20519e-06
5.11296e-05
-1.04254e-05
5.50039e-05
-1.16131e-05
5.92779e-05
-1.28282e-05
6.39252e-05
-1.39374e-05
6.89828e-05
-1.51788e-05
7.43948e-05
-1.62388e-05
8.01773e-05
-1.73429e-05
8.63185e-05
-1.84398e-05
9.27632e-05
-1.93367e-05
9.96006e-05
-2.05171e-05
0.000106798
-2.15921e-05
0.000114311
-2.25179e-05
0.000122273
-2.38798e-05
0.00013063
-2.50821e-05
0.000139356
-2.61771e-05
0.000148546
-2.75669e-05
0.000158181
-2.89158e-05
0.000168188
-3.0024e-05
0.000178608
-3.12513e-05
0.000189443
-3.25196e-05
0.000200617
-3.35301e-05
0.000212161
-3.46203e-05
0.000224066
-3.57117e-05
0.000236274
-3.66191e-05
0.000248749
-3.74162e-05
0.000261513
-3.82709e-05
0.000274447
-3.87803e-05
0.000287513
-3.9186e-05
0.000300615
-3.92936e-05
0.00031359
-3.89017e-05
0.000326325
-3.81715e-05
0.000338628
-3.68739e-05
0.000350319
-3.50287e-05
0.000361104
-3.2327e-05
0.000370831
-2.91466e-05
0.00037924
-2.51785e-05
0.000386106
-2.05641e-05
0.000391283
-1.55118e-05
0.000394595
-9.94121e-06
0.000395987
-4.15034e-06
0.000395404
1.68057e-06
0.000392793
7.77253e-06
0.000388219
1.36875e-05
0.000381742
1.93757e-05
0.000373491
2.46854e-05
0.000363593
2.96105e-05
0.000352212
3.40568e-05
0.000339541
3.78987e-05
0.000325777
4.11796e-05
0.00031121
4.35856e-05
0.000296048
4.53424e-05
0.000280619
4.61521e-05
0.000265138
4.62985e-05
0.000249867
4.5699e-05
0.000235021
4.44233e-05
0.000220722
4.27788e-05
0.000207118
4.07125e-05
0.000194296
3.83787e-05
0.000182368
3.56895e-05
0.000171285
3.31539e-05
0.000161126
3.03828e-05
0.000151856
2.77188e-05
0.000143437
2.51907e-05
0.000135851
2.2678e-05
0.000129057
2.02952e-05
0.00012297
1.81704e-05
0.000117637
1.59256e-05
0.000113008
1.38261e-05
0.000109058
1.17807e-05
0.000105729
9.92941e-06
0.000102947
8.30544e-06
0.000100653
6.83269e-06
9.87649e-05
5.63143e-06
9.72336e-05
4.56733e-06
9.60243e-05
3.59388e-06
9.5047e-05
2.89648e-06
9.43352e-05
2.12924e-06
9.38009e-05
1.60056e-06
9.3448e-05
1.05523e-06
9.32084e-05
7.26703e-07
9.30796e-05
3.87862e-07
9.31157e-05
-1.10124e-07
9.32728e-05
-4.40702e-07
9.36514e-05
-1.12989e-06
9.42717e-05
-1.84923e-06
9.51013e-05
-2.44322e-06
9.62965e-05
-3.55852e-06
9.76869e-05
-4.14288e-06
9.93226e-05
-4.84483e-06
0.000101213
-5.65591e-06
0.000103456
-6.71359e-06
0.000105991
-7.58258e-06
0.00010891
-8.71292e-06
0.000112325
-1.02148e-05
0.000116279
-1.18426e-05
0.000120797
-1.34962e-05
0.000126074
-1.57926e-05
0.000132084
-1.79726e-05
0.000138915
-2.04832e-05
0.000146647
-2.31943e-05
0.000155253
-2.57848e-05
0.000164815
-2.86396e-05
0.000175398
-3.17083e-05
0.000186857
-3.43322e-05
0.000199194
-3.69518e-05
0.000212467
-3.97895e-05
0.000226317
-4.15054e-05
0.000240814
-4.36476e-05
0.000255907
-4.52687e-05
0.000271222
-4.58001e-05
0.000286831
-4.67093e-05
0.000302702
-4.75249e-05
0.000318659
-4.77689e-05
0.000334617
-4.78151e-05
0.000350519
-4.76609e-05
0.000366199
-4.69756e-05
0.000381636
-4.62648e-05
0.000396728
-4.52493e-05
0.000411296
-4.37169e-05
0.000425018
-4.1237e-05
0.000437379
-3.72953e-05
0.000447997
-3.22689e-05
0.000456581
-2.65623e-05
0.000462514
-1.94116e-05
0.000465571
-1.05944e-05
0.000465443
7.98867e-07
0.000462623
1.05548e-05
0.000457042
1.84887e-05
0.000448668
2.56008e-05
0.000437898
3.23337e-05
0.000425027
3.85824e-05
0.000410244
4.43033e-05
0.000394228
4.80044e-05
0.000377303
5.07086e-05
0.000359859
5.23184e-05
0.000342349
5.24976e-05
0.000324947
5.21784e-05
0.000308018
5.0766e-05
0.000291637
4.91313e-05
0.000275861
4.7318e-05
0.000260868
4.49754e-05
0.000246644
4.26693e-05
0.00023319
4.0359e-05
0.000220585
3.78145e-05
0.000208787
3.53974e-05
0.000197831
3.28674e-05
0.000187682
3.04495e-05
0.00017832
2.80864e-05
0.000169758
2.56869e-05
0.000161959
2.34001e-05
0.000154896
2.11921e-05
0.000148553
1.90302e-05
0.000142888
1.69972e-05
0.00013787
1.50574e-05
0.000133451
1.32613e-05
0.000129586
1.16032e-05
0.000126228
1.00856e-05
0.000123321
8.72947e-06
0.000120813
7.53147e-06
0.000118654
6.48341e-06
0.000116797
5.58137e-06
0.000115198
4.80043e-06
0.000113827
4.1154e-06
0.000112662
3.49275e-06
0.000111697
2.88894e-06
0.00011094
2.26384e-06
0.000110413
1.57352e-06
0.000110145
7.92128e-07
0.000110215
-2.16575e-07
0.000110687
-1.42785e-06
0.000111642
-2.87949e-06
0.000113114
-4.43997e-06
0.000115212
-6.31079e-06
0.000117986
-8.34266e-06
0.000121417
-1.03074e-05
0.000125631
-1.26542e-05
0.000130682
-1.51551e-05
0.000136419
-1.7225e-05
0.000143061
-1.99289e-05
0.00015047
-2.22266e-05
0.000158807
-2.50096e-05
0.000168044
-2.77151e-05
0.00017794
-2.9688e-05
0.000188711
-3.23183e-05
0.000200345
-3.49042e-05
0.000212571
-3.66764e-05
0.000225606
-3.91031e-05
0.000239218
-4.08263e-05
0.000253516
-4.2864e-05
0.00026837
-4.45402e-05
0.000283471
-4.52844e-05
0.000298973
-4.64476e-05
0.000314783
-4.73466e-05
-4.83907e-05
0.000157874
-2.54583e-05
0.000164547
-2.66564e-05
0.0001717
-2.85685e-05
0.000179185
-2.98966e-05
0.000187183
-3.19381e-05
0.000195543
-3.33804e-05
0.0002044
-3.53784e-05
0.000213756
-3.73714e-05
0.000223305
-3.81475e-05
0.000233357
-4.01534e-05
0.000243964
-4.24178e-05
0.000254768
-4.319e-05
0.000266105
-4.53419e-05
0.000277849
-4.69568e-05
0.000290097
-4.89717e-05
0.000302969
-5.14352e-05
0.000315963
-5.19985e-05
0.000329342
-5.35112e-05
0.000343174
-5.52938e-05
0.000356975
-5.51697e-05
0.000370782
-5.51818e-05
0.000384593
-5.51329e-05
0.000397937
-5.33173e-05
0.000410734
-5.11182e-05
0.000422784
-4.81216e-05
0.00043389
-4.43473e-05
0.000443917
-4.0002e-05
0.00045252
-3.43989e-05
0.000459609
-2.83e-05
0.000465052
-2.17389e-05
0.00046868
-1.45246e-05
0.000470475
-7.17672e-06
0.00047024
8.18903e-07
0.000468088
8.51116e-06
0.000464257
1.53643e-05
0.000458425
2.32784e-05
0.000450895
3.00492e-05
0.000442013
3.54617e-05
0.000431499
4.19731e-05
0.00041971
4.70677e-05
0.000406834
5.14099e-05
0.000393051
5.50396e-05
0.000378719
5.724e-05
0.000363768
5.97062e-05
0.000348517
6.09091e-05
0.000333268
6.09091e-05
0.000318059
6.07504e-05
0.000303152
5.95569e-05
0.000288743
5.75736e-05
0.000274898
5.53263e-05
0.000261783
5.24224e-05
0.00024947
4.92234e-05
0.000238029
4.57524e-05
0.000227484
4.21836e-05
0.000217817
3.8698e-05
0.000209014
3.52666e-05
0.00020102
3.205e-05
0.000193743
2.91734e-05
0.000187105
2.66007e-05
0.000180997
2.44572e-05
0.00017533
2.26876e-05
0.000170028
2.12263e-05
0.000165025
2.00264e-05
0.000160263
1.9055e-05
0.000155744
1.80898e-05
0.000151373
1.75e-05
0.000147166
1.68332e-05
0.000143158
1.60219e-05
0.000139326
1.53005e-05
0.000135654
1.46686e-05
0.00013201
1.4582e-05
0.00012819
1.53062e-05
0.000124108
1.64468e-05
0.000119501
1.86359e-05
0.000114245
2.12745e-05
0.000108455
2.33813e-05
0.000102391
2.44823e-05
9.61926e-05
2.50102e-05
9.03244e-05
2.36253e-05
8.49001e-05
2.18626e-05
8.00844e-05
1.94364e-05
7.60893e-05
1.61467e-05
7.29484e-05
1.27613e-05
7.0722e-05
9.16576e-06
6.94622e-05
5.33285e-06
6.92488e-05
1.03038e-06
7.04431e-05
-4.77672e-06
7.29316e-05
-1.00439e-05
7.66842e-05
-1.50432e-05
8.16427e-05
-1.98318e-05
8.77519e-05
-2.43912e-05
9.49439e-05
-2.86961e-05
0.000103169
-3.28157e-05
0.000112397
-3.68573e-05
0.000122591
-4.07459e-05
0.000133697
-4.4473e-05
0.000145709
-4.80665e-05
0.000158606
-5.16871e-05
0.000172409
-5.52993e-05
0.000187089
-5.87054e-05
0.00020257
-6.186e-05
0.000218764
-6.47357e-05
0.000235557
-6.70875e-05
0.000252817
-6.89443e-05
0.000270404
-7.021e-05
0.000288108
-7.06505e-05
0.000305724
-7.03262e-05
0.000323032
-6.91012e-05
0.000339812
-6.70019e-05
0.000355818
-6.39107e-05
0.000370873
-6.00519e-05
0.000384739
-5.53346e-05
0.000397245
-4.98799e-05
0.000408187
-4.36554e-05
0.000417389
-3.6725e-05
0.00042471
-2.92248e-05
0.00042997
-2.09998e-05
0.000433139
-1.26644e-05
0.000434105
-3.91379e-06
0.000432839
4.7891e-06
0.000429397
1.37011e-05
0.000423809
2.2379e-05
0.000416174
3.04699e-05
0.00040665
3.80118e-05
0.000395382
4.49822e-05
0.000382558
5.11923e-05
0.000368371
5.66617e-05
0.000353019
6.13048e-05
0.000336742
6.49666e-05