/*--------------------------------*- C++ -*----------------------------------*\
| =========                 |                                                 |
| \\      /  F ield         | OpenFOAM: The Open Source CFD Toolbox           |
|  \\    /   O peration     | Version:  3.0.1                                 |
|   \\  /    A nd           | Web:      www.OpenFOAM.org                      |
|    \\/     M anipulation  |                                                 |
\*---------------------------------------------------------------------------*/
FoamFile
{
    version     2.0;
    format      ascii;
    class       volScalarField;
    location    "52";
    object      p_rgh;
}
// * * * * * * * * * * * * * * * * * * * * * * * * * * * * * * * * * * * * * //

dimensions      [1 -1 -2 0 0 0 0];

internalField   nonuniform List<scalar> 
21420
(
-226.316
-244.313
-260.68
-275.388
-288.419
-299.816
-309.614
-317.858
-324.583
-329.825
-333.617
-335.964
-336.854
-336.301
-334.343
-330.91
-326
-319.601
-311.666
-302.155
-291.02
-278.206
-263.658
-247.337
-229.202
-209.23
-187.417
-163.764
-138.308
-111.118
-82.2717
-51.9099
-20.2298
12.5311
45.8366
79.9522
114.396
148.724
182.519
215.399
246.929
276.705
304.315
329.369
351.539
370.513
386.016
397.836
405.812
409.834
409.759
405.686
397.647
385.692
370.04
350.93
328.617
303.395
275.623
245.67
213.93
180.792
146.637
111.849
76.7823
41.8091
12.4963
-20.8491
-53.0989
-84.0223
-113.431
-141.198
-167.212
-191.396
-213.704
-234.104
-252.576
-269.131
-283.785
-296.558
-307.468
-316.559
-323.874
-329.436
-333.305
-335.501
-336.048
-335.053
-332.531
-328.523
-323.075
-316.208
-307.944
-298.291
-287.24
-274.78
-260.885
-245.521
-228.659
-210.272
-190.347
-168.873
-145.861
-121.348
-95.3884
-68.0603
-39.4734
-9.76343
20.9085
52.3325
84.2542
116.419
148.532
180.27
211.287
241.217
269.681
296.291
320.662
342.418
361.205
376.694
388.599
396.688
400.778
400.714
396.542
388.289
375.989
359.853
340.115
317.072
291.07
262.499
231.779
199.354
165.677
131.204
96.3768
61.6247
27.4207
-6.01897
-38.3068
-69.1775
-98.4217
-125.881
-151.45
-175.065
-196.703
-216.372
-234.107
-249.965
-264.009
-276.312
-286.956
-296.016
-303.56
-309.659
-314.371
-317.738
-319.821
-320.632
-320.161
-318.485
-315.58
-311.436
-306.047
-299.4
-291.466
-282.215
-271.611
-259.615
-246.185
-231.282
-214.868
-196.914
-177.403
-156.324
-133.684
-109.509
-83.847
-56.7715
-28.3939
1.1473
31.6826
63.0481
94.8074
126.727
158.472
189.671
219.935
248.857
276.03
301.049
323.526
343.092
359.414
372.196
381.191
386.212
387.062
383.826
376.438
365.002
349.704
330.797
308.592
283.454
255.792
226.044
194.66
162.091
128.779
95.1493
61.602
28.5109
-3.79666
-35.0324
-64.9592
-93.3894
-120.183
-145.242
-168.513
-189.968
-209.61
-227.467
-243.58
-257.999
-270.782
-281.994
-291.691
-299.927
-306.758
-312.231
-316.383
-319.269
-320.903
-321.271
-320.461
-318.453
-315.249
-310.849
-305.257
-298.456
-290.432
-281.166
-270.631
-258.798
-245.633
-231.104
-215.177
-197.824
-179.026
-158.768
-137.055
-113.909
-89.3741
-63.5203
-36.4454
-8.27731
20.8256
50.7055
81.0078
111.505
141.891
171.826
200.939
228.834
255.107
279.351
301.157
320.144
335.952
348.274
356.838
361.429
361.919
358.269
350.469
338.633
322.92
303.632
281.086
255.669
227.819
197.986
166.644
134.277
101.33
68.2622
35.4686
3.31018
-27.7598
-57.0843
-85.2987
-112.127
-137.376
-160.928
-182.731
-202.767
-221.055
-237.641
-252.586
-265.969
-277.878
-288.401
-297.626
-305.631
-312.487
-318.248
-322.951
-326.619
-329.255
-330.816
-331.263
-330.532
-328.604
-325.373
-320.769
-314.717
-307.134
-297.943
-287.09
-274.517
-260.193
-244.103
-226.238
-206.644
-185.373
-162.493
-138.111
-112.36
-85.4015
-57.4252
-28.6653
0.634984
30.1884
59.7139
88.9295
117.516
145.169
171.604
196.507
219.591
240.553
259.136
275.123
288.316
298.55
305.708
309.701
310.447
307.928
302.091
293.023
280.992
266.223
-226.393
-244.388
-260.752
-275.457
-288.486
-299.881
-309.677
-317.918
-324.642
-329.882
-333.673
-336.02
-336.909
-336.358
-334.4
-330.967
-326.059
-319.662
-311.73
-302.221
-291.088
-278.277
-263.732
-247.414
-229.281
-209.312
-187.5
-163.847
-138.391
-111.199
-82.3499
-51.9833
-20.2964
12.4734
45.7859
79.9139
114.372
148.716
182.528
215.425
246.974
276.768
304.396
329.467
351.653
370.64
386.155
397.984
405.966
409.994
409.918
405.836
397.793
385.831
370.167
351.044
328.716
303.477
275.687
245.716
213.959
180.804
146.634
111.832
76.7535
41.7652
12.4343
-20.9216
-53.1765
-84.1035
-113.515
-141.284
-167.299
-191.483
-213.791
-234.19
-252.661
-269.215
-283.867
-296.638
-307.547
-316.636
-323.949
-329.511
-333.378
-335.571
-336.117
-335.122
-332.599
-328.59
-323.141
-316.275
-308.011
-298.358
-287.31
-274.851
-260.958
-245.596
-228.736
-210.351
-190.427
-168.954
-145.942
-121.429
-95.4677
-68.1367
-39.546
-9.83076
20.8479
52.2799
84.2115
116.387
148.513
180.265
211.298
241.245
269.726
296.353
320.742
342.515
361.317
376.821
388.737
396.835
400.936
400.865
396.691
388.433
376.125
359.976
340.224
317.163
291.142
262.551
231.811
199.366
165.67
131.178
96.335
61.5661
27.3532
-6.09909
-38.3952
-69.2719
-98.5201
-125.982
-151.551
-175.165
-196.801
-216.467
-234.199
-250.052
-264.093
-276.392
-287.033
-296.089
-303.63
-309.727
-314.436
-317.802
-319.884
-320.692
-320.223
-318.547
-315.641
-311.497
-306.109
-299.464
-291.531
-282.282
-271.68
-259.686
-246.258
-231.358
-214.946
-196.994
-177.484
-156.406
-133.766
-109.591
-83.9275
-56.8495
-28.4678
1.07885
31.6211
62.9974
94.7678
126.701
158.46
189.676
219.957
248.897
276.089
301.127
323.62
343.203
359.539
372.334
381.338
386.364
387.224
383.976
376.586
365.141
349.831
330.909
308.685
283.528
255.847
226.078
194.674
162.086
128.757
95.112
61.5508
28.4478
-3.86952
-35.1127
-65.045
-93.4786
-120.274
-145.334
-168.604
-190.057
-209.696
-227.551
-243.661
-258.076
-270.857
-282.066
-291.76
-299.993
-306.822
-312.293
-316.444
-319.33
-320.96
-321.329
-320.519
-318.511
-315.306
-310.908
-305.316
-298.516
-290.493
-281.229
-270.695
-258.864
-245.7
-231.174
-215.249
-197.898
-179.101
-158.844
-137.131
-113.985
-89.4485
-63.5921
-36.5134
-8.33995
20.7699
50.6593
80.972
111.482
141.882
171.832
200.962
228.875
255.166
279.429
301.254
320.257
336.081
348.415
356.99
361.588
362.085
358.428
350.623
338.78
323.056
303.753
281.19
255.754
227.883
198.03
166.667
134.28
101.315
68.2305
35.4228
3.25349
-27.8226
-57.1538
-85.3736
-112.205
-137.456
-161.008
-182.809
-202.843
-221.128
-237.71
-252.651
-266.03
-277.935
-288.454
-297.675
-305.678
-312.531
-318.29
-322.992
-326.66
-329.296
-330.859
-331.308
-330.581
-328.654
-325.427
-320.827
-314.778
-307.198
-298.011
-287.16
-274.589
-260.268
-244.178
-226.314
-206.719
-185.447
-162.565
-138.179
-112.424
-85.4591
-57.4752
-28.7067
0.603518
30.1678
59.7049
88.9328
117.532
145.198
171.647
196.563
219.661
240.636
259.23
275.227
288.428
298.669
305.831
309.827
310.58
308.047
302.208
293.136
281.098
266.319
-226.546
-244.537
-260.897
-275.597
-288.621
-300.01
-309.802
-318.039
-324.76
-329.997
-333.785
-336.132
-337.02
-336.474
-334.513
-331.082
-326.177
-319.784
-311.856
-302.352
-291.226
-278.42
-263.881
-247.568
-229.439
-209.474
-187.665
-164.013
-138.557
-111.362
-82.5062
-52.1301
-20.4292
12.3583
45.6843
79.8372
114.324
148.7
182.546
215.479
247.064
276.895
304.559
329.664
351.88
370.896
386.434
398.281
406.275
410.309
410.242
406.139
398.087
386.109
370.423
351.272
328.913
303.641
275.816
245.809
214.017
180.828
146.627
111.798
76.6966
41.6794
12.3101
-21.0657
-53.3303
-84.2641
-113.68
-141.454
-167.47
-191.654
-213.961
-234.357
-252.825
-269.375
-284.023
-296.79
-307.694
-316.78
-324.089
-329.647
-333.51
-335.695
-336.242
-335.244
-332.717
-328.706
-323.255
-316.388
-308.126
-298.474
-287.428
-274.972
-261.083
-245.726
-228.87
-210.489
-190.568
-169.096
-146.085
-121.571
-95.6063
-68.2702
-39.6719
-9.94631
20.7454
52.1934
84.1444
116.343
148.493
180.274
211.337
241.316
269.831
296.494
320.918
342.725
361.559
377.09
389.03
397.144
401.261
401.189
397.007
388.738
376.412
360.239
340.456
317.361
291.302
262.671
231.892
199.407
165.673
131.146
96.2694
61.4676
27.2363
-6.24029
-38.5526
-69.441
-98.6965
-126.162
-151.731
-175.343
-196.974
-216.635
-234.359
-250.205
-264.238
-276.53
-287.163
-296.212
-303.748
-309.839
-314.544
-317.907
-319.988
-320.788
-320.322
-318.646
-315.74
-311.598
-306.212
-299.568
-291.639
-282.393
-271.796
-259.806
-246.383
-231.488
-215.08
-197.132
-177.626
-156.549
-133.911
-109.735
-84.0692
-56.9864
-28.597
0.960332
31.5159
62.9139
94.7058
126.665
158.454
189.702
220.018
248.994
276.223
301.297
323.825
343.44
359.805
372.623
381.646
386.683
387.56
384.29
376.895
365.433
350.098
331.145
308.886
283.691
255.969
226.161
194.717
162.092
128.729
95.0521
61.4633
28.3367
-3.99968
-35.2576
-65.2004
-93.6407
-120.439
-145.5
-168.768
-190.218
-209.852
-227.701
-243.804
-258.213
-270.988
-282.191
-291.878
-300.107
-306.932
-312.399
-316.547
-319.432
-321.054
-321.426
-320.615
-318.606
-315.402
-311.005
-305.414
-298.616
-290.595
-281.334
-270.804
-258.976
-245.817
-231.294
-215.374
-198.027
-179.233
-158.978
-137.266
-114.119
-89.5803
-63.7191
-36.633
-8.44924
20.6739
50.5818
80.915
111.448
141.876
171.857
201.02
228.969
255.295
279.595
301.455
320.491
336.344
348.703
357.299
361.91
362.422
358.749
350.936
339.077
323.331
303.998
281.399
255.924
228.013
198.117
166.714
134.288
101.285
68.1673
35.3315
3.14028
-27.9477
-57.2927
-85.5234
-112.362
-137.616
-161.168
-182.967
-202.996
-221.274
-237.849
-252.781
-266.152
-278.048
-288.56
-297.773
-305.77
-312.618
-318.374
-323.074
-326.741
-329.378
-330.944
-331.399
-330.678
-328.756
-325.535
-320.941
-314.9
-307.326
-298.146
-287.301
-274.735
-260.417
-244.329
-226.466
-206.87
-185.595
-162.709
-138.316
-112.551
-85.5741
-57.5753
-28.7894
0.540589
30.1266
59.687
88.9395
117.564
145.257
171.733
196.677
219.801
240.801
259.418
275.435
288.653
298.907
306.078
310.081
310.846
308.286
302.444
293.362
281.31
266.513
-226.777
-244.761
-261.114
-275.806
-288.823
-300.205
-309.989
-318.221
-324.936
-330.17
-333.953
-336.299
-337.189
-336.647
-334.684
-331.254
-326.354
-319.967
-312.046
-302.55
-291.431
-278.634
-264.104
-247.798
-229.677
-209.718
-187.913
-164.263
-138.805
-111.606
-82.7409
-52.3505
-20.6289
12.1852
45.5318
79.722
114.253
148.676
182.572
215.559
247.198
277.084
304.802
329.959
352.222
371.279
386.852
398.726
406.738
410.779
410.727
406.597
398.528
386.527
370.806
351.615
329.209
303.886
276.009
245.948
214.103
180.864
146.617
111.748
76.6115
41.5525
12.1217
-21.2825
-53.5611
-84.5052
-113.93
-141.708
-167.727
-191.91
-214.215
-234.608
-253.071
-269.615
-284.257
-297.017
-307.915
-316.994
-324.298
-329.85
-333.706
-335.881
-336.43
-335.425
-332.892
-328.878
-323.425
-316.557
-308.295
-298.645
-287.602
-275.152
-261.268
-245.918
-229.068
-210.692
-190.775
-169.306
-146.296
-121.78
-95.8112
-68.4672
-39.8576
-10.1166
20.5947
52.0668
84.0469
116.278
148.467
180.29
211.398
241.427
269.994
296.709
321.185
343.044
361.924
377.497
389.472
397.611
401.742
401.686
397.487
389.199
376.847
360.636
340.808
317.66
291.546
262.856
232.016
199.472
165.681
131.1
96.1744
61.324
27.0633
-6.44913
-38.7854
-69.6913
-98.958
-126.429
-151.999
-175.607
-197.232
-216.883
-234.597
-250.432
-264.452
-276.733
-287.355
-296.394
-303.921
-310.005
-314.702
-318.061
-320.139
-320.93
-320.468
-318.792
-315.885
-311.745
-306.362
-299.722
-291.798
-282.558
-271.967
-259.984
-246.568
-231.679
-215.279
-197.337
-177.835
-156.762
-134.126
-109.949
-84.279
-57.189
-28.7882
0.785669
31.3611
62.7912
94.6156
126.614
158.447
189.744
220.112
249.143
276.426
301.554
324.135
343.799
360.206
373.061
382.111
387.164
388.062
384.77
377.363
365.874
350.502
331.502
309.19
283.937
256.156
226.287
194.785
162.104
128.688
94.9649
61.3348
28.1727
-4.19239
-35.4723
-65.431
-93.8813
-120.685
-145.746
-169.011
-190.456
-210.083
-227.923
-244.017
-258.416
-271.181
-282.375
-292.054
-300.276
-307.094
-312.555
-316.699
-319.581
-321.193
-321.569
-320.757
-318.747
-315.543
-311.147
-305.559
-298.763
-290.746
-281.49
-270.965
-259.143
-245.99
-231.473
-215.558
-198.217
-179.428
-159.176
-137.466
-114.319
-89.7756
-63.9071
-36.8099
-8.61081
20.5321
50.4679
80.8316
111.401
141.87
171.896
201.109
229.11
255.491
279.845
301.758
320.842
336.74
349.137
357.762
362.395
362.921
359.237
351.407
339.523
323.744
304.365
281.713
256.18
228.207
198.249
166.784
134.298
101.24
68.0724
35.1941
2.96992
-28.1353
-57.5013
-85.7483
-112.597
-137.856
-161.408
-183.203
-203.225
-221.493
-238.057
-252.977
-266.335
-278.219
-288.718
-297.921
-305.909
-312.75
-318.5
-323.197
-326.864
-329.501
-331.071
-331.536
-330.823
-328.908
-325.697
-321.113
-315.082
-307.519
-298.348
-287.512
-274.953
-260.64
-244.555
-226.693
-207.096
-185.818
-162.924
-138.521
-112.742
-85.7469
-57.7256
-28.9137
0.446068
30.0646
59.66
88.9495
117.613
145.346
171.862
196.847
220.011
241.05
259.701
275.748
288.99
299.263
306.449
310.46
311.238
308.65
302.798
293.703
281.628
266.803
-227.084
-245.059
-261.403
-276.085
-289.092
-300.464
-310.24
-318.464
-325.172
-330.399
-334.178
-336.521
-337.416
-336.876
-334.91
-331.484
-326.59
-320.21
-312.298
-302.813
-291.706
-278.92
-264.401
-248.106
-229.994
-210.043
-188.243
-164.596
-139.137
-111.931
-83.0543
-52.6448
-20.8955
11.9536
45.3281
79.568
114.157
148.644
182.608
215.665
247.377
277.336
305.127
330.352
352.678
371.791
387.41
399.319
407.356
411.406
411.367
407.215
399.118
387.084
371.318
352.072
329.604
304.214
276.266
246.134
214.218
180.912
146.603
111.68
76.4983
41.3866
11.8666
-21.5725
-53.8692
-84.827
-114.262
-142.047
-168.069
-192.252
-214.554
-234.942
-253.398
-269.935
-284.569
-297.32
-308.21
-317.281
-324.577
-330.12
-333.965
-336.132
-336.679
-335.665
-333.126
-329.108
-323.651
-316.781
-308.52
-298.872
-287.835
-275.391
-261.515
-246.172
-229.331
-210.963
-191.051
-169.586
-146.577
-122.059
-96.0837
-68.7294
-40.1047
-10.3431
20.3941
51.8987
83.9175
116.194
148.433
180.311
211.481
241.576
270.211
296.997
321.543
343.47
362.413
378.042
390.063
398.236
402.382
402.346
398.133
389.817
377.429
361.168
341.278
318.062
291.871
263.102
232.183
199.559
165.692
131.039
96.0486
61.1456
26.8202
-6.7276
-39.0957
-70.0247
-99.3063
-126.785
-152.355
-175.958
-197.574
-217.213
-234.913
-250.733
-264.737
-277.003
-287.611
-296.635
-304.151
-310.225
-314.913
-318.266
-320.337
-321.122
-320.663
-318.985
-316.078
-311.941
-306.562
-299.926
-292.008
-282.776
-272.194
-260.22
-246.814
-231.934
-215.543
-197.609
-178.114
-157.045
-134.411
-110.232
-84.5583
-57.4587
-29.0428
0.553174
31.1546
62.6284
94.4957
126.546
158.438
189.801
220.238
249.341
276.699
301.899
324.55
344.278
360.743
373.646
382.732
387.808
388.723
385.419
377.989
366.464
351.041
331.979
309.597
284.267
256.405
226.456
194.875
162.119
128.635
94.8489
61.1636
27.9543
-4.44918
-35.7585
-65.7382
-94.2019
-121.012
-146.075
-169.336
-190.773
-210.39
-228.218
-244.3
-258.686
-271.438
-282.62
-292.288
-300.5
-307.31
-312.762
-316.901
-319.777
-321.381
-321.76
-320.946
-318.934
-315.731
-311.337
-305.751
-298.959
-290.947
-281.696
-271.179
-259.364
-246.219
-231.71
-215.804
-198.47
-179.688
-159.441
-137.732
-114.584
-90.0356
-64.1576
-37.0454
-8.8261
20.3428
50.3167
80.7204
111.338
141.861
171.948
201.227
229.299
255.751
280.178
302.162
321.311
337.269
349.715
358.38
363.04
363.576
359.892
352.041
340.12
324.295
304.855
282.131
256.521
228.466
198.424
166.877
134.312
101.18
67.9453
35.0103
2.74173
-28.3853
-57.7798
-86.0485
-112.91
-138.176
-161.728
-183.517
-203.53
-221.786
-238.334
-253.238
-266.579
-278.446
-288.929
-298.118
-306.093
-312.924
-318.668
-323.361
-327.027
-329.666
-331.241
-331.719
-331.015
-329.111
-325.913
-321.342
-315.326
-307.776
-298.618
-287.793
-275.244
-260.938
-244.857
-226.996
-207.398
-186.114
-163.212
-138.795
-112.998
-85.9776
-57.9264
-29.0796
0.319814
29.9817
59.6238
88.9626
117.678
145.464
172.034
197.073
220.292
241.381
260.077
276.165
289.44
299.739
306.943
310.966
311.753
309.144
303.274
294.158
282.052
267.19
-227.468
-245.433
-261.764
-276.435
-289.428
-300.789
-310.553
-318.767
-325.467
-330.687
-334.458
-336.797
-337.7
-337.16
-335.194
-331.772
-326.886
-320.514
-312.614
-303.142
-292.049
-279.278
-264.773
-248.492
-230.391
-210.449
-188.657
-165.012
-139.552
-112.339
-83.4465
-53.0133
-21.2297
11.6631
45.0728
79.3749
114.037
148.603
182.651
215.797
247.601
277.652
305.533
330.844
353.248
372.43
388.107
400.062
408.129
412.191
412.159
407.994
399.857
387.782
371.958
352.644
330.098
304.624
276.587
246.365
214.361
180.97
146.584
111.594
76.3571
41.1844
11.5415
-21.9366
-54.2549
-85.2298
-114.678
-142.471
-168.497
-192.68
-214.979
-235.36
-253.808
-270.336
-284.96
-297.7
-308.579
-317.639
-324.925
-330.458
-334.29
-336.449
-336.989
-335.966
-333.418
-329.394
-323.933
-317.061
-308.8
-299.156
-288.125
-275.69
-261.823
-246.491
-229.66
-211.301
-191.397
-169.936
-146.929
-122.408
-96.4248
-69.0576
-40.4139
-10.6267
20.1428
51.6885
83.7554
116.087
148.389
180.338
211.585
241.761
270.482
297.356
321.991
344.002
363.025
378.724
390.802
399.018
403.186
403.165
398.943
390.591
378.157
361.833
341.867
318.564
292.279
263.411
232.391
199.668
165.705
130.962
95.8908
60.9197
26.5179
-7.07646
-39.4842
-70.4423
-99.7423
-127.23
-152.801
-176.398
-198.003
-217.627
-235.309
-251.11
-265.094
-277.34
-287.93
-296.937
-304.438
-310.499
-315.176
-318.521
-320.583
-321.364
-320.905
-319.226
-316.32
-312.185
-306.811
-300.181
-292.271
-283.049
-272.478
-260.516
-247.121
-232.253
-215.873
-197.949
-178.462
-157.4
-134.768
-110.588
-84.9079
-57.7964
-29.3614
0.261715
30.895
62.4251
94.3452
126.46
158.427
189.871
220.395
249.59
277.039
302.331
325.069
344.878
361.415
374.378
383.511
388.614
389.545
386.236
378.774
367.202
351.716
332.577
310.105
284.679
256.717
226.667
194.988
162.139
128.568
94.7033
60.9489
27.6805
-4.7708
-36.117
-66.123
-94.6033
-121.422
-146.485
-169.742
-191.169
-210.775
-228.588
-244.654
-259.023
-271.76
-282.927
-292.58
-300.78
-307.579
-313.022
-317.153
-320.021
-321.619
-321.998
-321.181
-319.168
-315.966
-311.575
-305.991
-299.203
-291.198
-281.955
-271.446
-259.64
-246.506
-232.008
-216.111
-198.787
-180.013
-159.771
-138.066
-114.916
-90.3612
-64.4712
-37.3401
-9.09583
20.105
50.1275
80.5807
111.258
141.85
172.013
201.374
229.534
256.078
280.595
302.667
321.898
337.93
350.439
359.153
363.847
364.395
360.711
352.835
340.869
324.984
305.468
282.655
256.947
228.79
198.643
166.993
134.329
101.104
67.7857
34.7792
2.45472
-28.6972
-58.1286
-86.4246
-113.303
-138.577
-162.129
-183.911
-203.912
-222.152
-238.681
-253.564
-266.884
-278.73
-289.193
-298.364
-306.324
-313.143
-318.877
-323.566
-327.231
-329.871
-331.455
-331.946
-331.255
-329.364
-326.182
-321.629
-315.63
-308.098
-298.955
-288.146
-275.607
-261.31
-245.234
-227.376
-207.775
-186.485
-163.572
-139.138
-113.317
-86.2665
-58.1779
-29.2874
0.161623
29.8777
59.5781
88.9787
117.758
145.61
172.249
197.357
220.642
241.795
260.549
276.686
290.003
300.335
307.561
311.598
312.39
309.768
303.871
294.728
282.583
267.674
-227.929
-245.881
-262.198
-276.854
-289.832
-301.178
-310.929
-319.13
-325.82
-331.031
-334.796
-337.129
-338.04
-337.498
-335.533
-332.118
-327.24
-320.879
-312.993
-303.536
-292.46
-279.707
-265.219
-248.954
-230.867
-210.937
-189.153
-165.512
-140.051
-112.828
-83.9181
-53.4564
-21.6318
11.3135
44.7649
79.1423
113.891
148.553
182.703
215.956
247.869
278.03
306.02
331.434
353.933
373.199
388.945
400.954
409.057
413.137
413.106
408.929
400.748
388.619
372.726
353.33
330.691
305.115
276.973
246.643
214.532
181.04
146.561
111.49
76.1876
40.9493
11.1422
-22.3754
-54.7185
-85.7136
-115.177
-142.981
-169.011
-193.194
-215.489
-235.862
-254.3
-270.817
-285.428
-298.155
-309.021
-318.069
-325.343
-330.863
-334.68
-336.83
-337.361
-336.326
-333.769
-329.738
-324.272
-317.397
-309.137
-299.498
-288.473
-276.048
-262.193
-246.873
-230.055
-211.708
-191.812
-170.356
-147.351
-122.827
-96.8348
-69.4521
-40.7857
-10.968
19.8401
51.4355
83.5601
115.959
148.337
180.37
211.709
241.983
270.808
297.788
322.528
344.642
363.76
379.543
391.691
399.958
404.155
404.148
399.917
391.523
379.032
362.632
342.575
319.166
292.768
263.781
232.64
199.798
165.72
130.87
95.7002
60.6449
26.1565
-7.49631
-39.9517
-70.9445
-100.267
-127.765
-153.337
-176.927
-198.517
-218.123
-235.784
-251.561
-265.522
-277.745
-288.313
-297.3
-304.783
-310.829
-315.492
-318.827
-320.879
-321.656
-321.196
-319.515
-316.61
-312.479
-307.111
-300.487
-292.587
-283.377
-272.819
-260.87
-247.49
-232.636
-216.269
-198.357
-178.88
-157.825
-135.196
-111.015
-85.3283
-58.2026
-29.7445
-0.0893219
30.5812
62.181
94.1634
126.357
158.412
189.954
220.583
249.887
277.447
302.848
325.691
345.598
362.222
375.258
384.446
389.585
390.529
387.218
379.717
368.089
352.528
333.294
310.716
285.174
257.091
226.92
195.122
162.161
128.486
94.5273
60.6901
27.3508
-5.15796
-36.5484
-66.5859
-95.0859
-121.914
-146.979
-170.229
-191.646
-211.236
-229.032
-245.079
-259.428
-272.146
-283.295
-292.931
-301.116
-307.902
-313.333
-317.456
-320.313
-321.905
-322.283
-321.464
-319.449
-316.249
-311.86
-306.279
-299.497
-291.499
-282.265
-271.767
-259.972
-246.85
-232.364
-216.48
-199.168
-180.404
-160.168
-138.466
-115.315
-90.7526
-64.8482
-37.6948
-9.42042
19.8181
49.8999
80.4122
111.161
141.835
172.089
201.55
229.816
256.469
281.094
303.272
322.603
338.724
351.309
360.081
364.816
365.381
361.695
353.789
341.769
325.813
306.204
283.284
257.459
229.179
198.906
167.131
134.348
101.012
67.593
34.5003
2.10736
-29.0707
-58.5482
-86.8769
-113.776
-139.058
-162.611
-184.385
-204.371
-222.592
-239.098
-253.956
-267.249
-279.07
-289.51
-298.659
-306.6
-313.404
-319.129
-323.812
-327.475
-330.118
-331.711
-332.218
-331.542
-329.669
-326.506
-321.972
-315.994
-308.483
-299.361
-288.568
-276.044
-261.758
-245.688
-227.832
-208.229
-186.931
-164.005
-139.55
-113.701
-86.6139
-58.4805
-29.5374
-0.0287894
29.7523
59.5228
88.9976
117.855
145.786
172.506
197.697
221.063
242.292
261.115
277.312
290.678
301.049
308.304
312.356
313.151
310.52
304.592
295.413
283.221
268.255
-228.467
-246.404
-262.705
-277.343
-290.304
-301.632
-311.367
-319.555
-326.232
-331.433
-335.189
-337.518
-338.435
-337.891
-335.929
-332.521
-327.654
-321.305
-313.435
-303.997
-292.94
-280.207
-265.739
-249.493
-231.423
-211.507
-189.733
-166.097
-140.633
-113.4
-84.4695
-53.9747
-22.1024
10.9048
44.4035
78.8694
113.721
148.494
182.762
216.14
248.181
278.471
306.588
332.123
354.733
374.096
389.924
401.996
410.142
414.242
414.212
410.02
401.789
389.597
373.624
354.132
331.383
305.688
277.422
246.966
214.731
181.12
146.532
111.367
75.9895
40.6862
10.663
-22.8895
-55.2602
-86.2789
-115.761
-143.576
-169.612
-193.794
-216.084
-236.448
-254.875
-271.378
-285.975
-298.686
-309.537
-318.571
-325.83
-331.336
-335.136
-337.274
-337.794
-336.746
-334.178
-330.139
-324.667
-317.789
-309.53
-299.896
-288.88
-276.466
-262.625
-247.32
-230.516
-212.182
-192.296
-170.848
-147.845
-123.317
-97.3141
-69.9134
-41.2205
-11.3674
19.4856
51.1393
83.3312
115.808
148.274
180.406
211.852
242.241
271.186
298.29
323.155
345.388
364.618
380.499
392.729
401.056
405.289
405.296
401.053
392.612
380.054
363.566
343.401
319.87
293.339
264.212
232.93
199.949
165.737
130.76
95.4758
60.3203
25.7351
-7.98783
-40.4988
-71.5323
-100.88
-128.39
-153.963
-177.544
-199.118
-218.703
-236.339
-252.089
-266.021
-278.218
-288.76
-297.723
-305.185
-311.213
-315.86
-319.184
-321.225
-321.996
-321.534
-319.853
-316.949
-312.822
-307.46
-300.844
-292.956
-283.76
-273.216
-261.285
-247.92
-233.084
-216.733
-198.834
-179.369
-158.322
-135.697
-111.515
-85.8198
-58.6777
-30.1928
-0.500539
30.2132
61.8954
93.9493
126.234
158.394
190.05
220.802
250.233
277.923
303.452
326.418
346.439
363.164
376.286
385.539
390.719
391.681
388.364
380.82
369.127
353.476
334.132
311.429
285.751
257.527
227.214
195.278
162.185
128.389
94.3204
60.3863
26.9643
-5.61141
-37.0534
-67.1275
-95.6505
-122.49
-147.556
-170.799
-192.202
-211.776
-229.551
-245.574
-259.901
-272.597
-283.724
-293.341
-301.509
-308.279
-313.696
-317.809
-320.653
-322.241
-322.615
-321.793
-319.777
-316.578
-312.192
-306.616
-299.84
-291.851
-282.628
-272.141
-260.36
-247.252
-232.781
-216.912
-199.613
-180.86
-160.633
-138.934
-115.781
-91.2101
-65.2892
-38.11
-9.80025
19.4812
49.6335
80.2142
111.046
141.817
172.178
201.754
230.144
256.924
281.676
303.979
323.425
339.652
352.325
361.166
365.948
366.532
362.844
354.903
342.821
326.781
307.063
284.018
258.057
229.632
199.211
167.291
134.369
100.903
67.3665
34.1731
1.69904
-29.5064
-59.0393
-87.4059
-114.328
-139.621
-163.174
-184.938
-204.907
-223.105
-239.584
-254.413
-267.676
-279.467
-289.879
-299.003
-306.922
-313.709
-319.422
-324.098
-327.76
-330.407
-332.011
-332.534
-331.875
-330.023
-326.883
-322.373
-316.42
-308.934
-299.834
-289.062
-276.554
-262.28
-246.218
-228.364
-208.758
-187.452
-164.51
-140.032
-114.151
-87.0203
-58.8345
-29.8299
-0.251741
29.6053
59.4575
89.0191
117.966
145.991
172.806
198.093
221.553
242.872
261.776
278.042
291.468
301.884
309.171
313.242
314.041
311.396
305.434
296.213
283.966
268.933
-229.083
-247.002
-263.284
-277.902
-290.842
-302.151
-311.868
-320.039
-326.703
-331.893
-335.639
-337.962
-338.882
-338.339
-336.38
-332.981
-328.126
-321.792
-313.94
-304.522
-293.489
-280.78
-266.335
-250.11
-232.059
-212.159
-190.396
-166.766
-141.3
-114.056
-85.1012
-54.5688
-22.642
10.437
43.9871
78.5558
113.525
148.425
182.829
216.349
248.537
278.975
307.238
332.91
355.647
375.122
391.043
403.188
411.383
415.507
415.478
411.266
402.98
390.717
374.651
355.048
332.175
306.343
277.934
247.334
214.957
181.21
146.497
111.224
75.7614
40.4024
10.0959
-23.4795
-55.8801
-86.926
-116.43
-144.257
-170.299
-194.481
-216.765
-237.119
-255.532
-272.02
-286.601
-299.293
-310.127
-319.146
-326.386
-331.876
-335.659
-337.783
-338.289
-337.226
-334.646
-330.598
-325.118
-318.237
-309.979
-300.35
-289.344
-276.944
-263.119
-247.831
-231.043
-212.725
-192.851
-171.41
-148.41
-123.878
-97.8629
-70.4419
-41.719
-11.8254
19.0787
50.7992
83.068
115.633
148.2
180.445
212.014
242.535
271.619
298.864
323.871
346.241
365.599
381.594
393.917
402.314
406.588
406.61
402.351
393.86
381.224
364.635
344.346
320.675
293.991
264.705
233.261
200.12
165.754
130.633
95.217
59.9456
25.2527
-8.55161
-41.1265
-72.2064
-101.583
-129.107
-154.68
-178.251
-199.806
-219.366
-236.974
-252.692
-266.593
-278.758
-289.271
-298.207
-305.645
-311.651
-316.282
-319.592
-321.62
-322.386
-321.921
-320.238
-317.336
-313.214
-307.858
-301.253
-293.378
-284.197
-273.671
-261.758
-248.413
-233.596
-217.263
-199.38
-179.928
-158.891
-136.271
-112.087
-86.383
-59.2221
-30.7067
-0.971849
29.7891
61.5681
93.7021
126.092
158.371
190.159
221.05
250.628
278.467
304.143
327.249
347.401
364.242
377.462
386.79
392.018
393
389.674
382.084
370.314
354.56
335.091
312.244
286.41
258.025
227.549
195.455
162.212
128.277
94.0817
60.0368
26.5201
-6.13196
-37.6327
-67.7484
-96.2975
-123.15
-148.217
-171.452
-192.84
-212.393
-230.144
-246.142
-260.442
-273.113
-284.215
-293.809
-301.958
-308.71
-314.112
-318.212
-321.043
-322.624
-322.995
-322.169
-320.153
-316.956
-312.572
-307
-300.233
-292.253
-283.042
-272.568
-260.803
-247.711
-233.257
-217.405
-200.122
-181.382
-161.164
-139.471
-116.315
-91.7343
-65.7948
-38.5863
-10.2357
19.0929
49.3286
79.9859
110.913
141.794
172.277
201.985
230.518
257.445
282.341
304.787
324.367
340.714
353.488
362.407
367.244
367.851
364.159
356.179
344.027
327.889
308.047
284.858
258.74
230.15
199.56
167.474
134.391
100.777
67.1056
33.7967
1.23045
-30.0068
-59.6025
-88.0124
-114.96
-140.266
-163.818
-185.571
-205.521
-223.692
-240.14
-254.935
-268.164
-279.921
-290.301
-299.395
-307.29
-314.057
-319.756
-324.424
-328.085
-330.737
-332.353
-332.894
-332.257
-330.428
-327.313
-322.83
-316.907
-309.448
-300.374
-289.626
-277.137
-262.878
-246.824
-228.973
-209.364
-188.049
-165.089
-140.585
-114.665
-87.4862
-59.2404
-30.1654
-0.507607
29.4364
59.382
89.0427
118.093
146.225
173.148
198.545
222.114
243.535
262.532
278.879
292.371
302.839
310.162
314.255
315.058
312.398
306.4
297.129
284.818
269.709
-229.776
-247.675
-263.935
-278.531
-291.448
-302.735
-312.431
-320.584
-327.233
-332.409
-336.146
-338.462
-339.382
-338.84
-336.887
-333.499
-328.657
-322.339
-314.508
-305.114
-294.106
-281.423
-267.004
-250.805
-232.775
-212.892
-191.143
-167.519
-142.052
-114.795
-85.814
-55.2395
-23.2515
9.91012
43.5143
78.2004
113.302
148.346
182.902
216.583
248.936
279.541
307.968
333.796
356.676
376.278
392.305
404.531
412.782
416.933
416.904
412.669
404.323
391.978
375.807
356.08
333.065
307.08
278.51
247.748
215.21
181.31
146.456
111.06
75.5014
40.1084
9.42942
-24.1452
-56.5782
-87.6551
-117.183
-145.025
-171.073
-195.254
-217.532
-237.874
-256.271
-272.742
-287.304
-299.977
-310.791
-319.792
-327.013
-332.484
-336.249
-338.356
-338.845
-337.765
-335.173
-331.113
-325.625
-318.74
-310.484
-300.861
-289.866
-277.482
-263.674
-248.406
-231.638
-213.336
-193.476
-172.044
-149.047
-124.51
-98.4819
-71.0383
-42.282
-12.3425
18.6188
50.4149
82.7698
115.435
148.116
180.487
212.195
242.865
272.104
299.51
324.676
347.202
366.704
382.827
395.257
403.732
408.053
408.092
403.814
395.266
382.543
365.839
345.41
321.581
294.724
265.258
233.631
200.31
165.771
130.487
94.9225
59.5199
24.708
-9.18853
-41.8355
-72.9674
-102.376
-129.916
-155.489
-179.048
-200.582
-220.113
-237.688
-253.372
-267.236
-279.367
-289.846
-298.751
-306.162
-312.145
-316.755
-320.05
-322.065
-322.824
-322.356
-320.671
-317.772
-313.655
-308.307
-301.712
-293.852
-284.689
-274.183
-262.291
-248.967
-234.172
-217.859
-199.995
-180.558
-159.533
-136.917
-112.732
-87.0183
-59.8363
-31.2869
-1.50344
29.3241
61.1819
93.4204
125.93
158.343
190.279
221.328
251.071
279.078
304.92
328.185
348.484
365.457
378.787
388.2
393.483
394.488
391.151
383.508
371.653
355.783
336.171
313.162
287.152
258.584
227.925
195.651
162.239
128.147
93.8105
59.6407
26.0175
-6.72051
-38.2874
-68.4495
-97.0276
-123.894
-148.962
-172.187
-193.558
-213.088
-230.811
-246.78
-261.052