/*--------------------------------*- C++ -*----------------------------------*\
| =========                 |                                                 |
| \\      /  F ield         | OpenFOAM: The Open Source CFD Toolbox           |
|  \\    /   O peration     | Version:  3.0.1                                 |
|   \\  /    A nd           | Web:      www.OpenFOAM.org                      |
|    \\/     M anipulation  |                                                 |
\*---------------------------------------------------------------------------*/
FoamFile
{
    version     2.0;
    format      ascii;
    class       volScalarField;
    location    "62.6";
    object      p_rgh;
}
// * * * * * * * * * * * * * * * * * * * * * * * * * * * * * * * * * * * * * //

dimensions      [1 -1 -2 0 0 0 0];

internalField   nonuniform List<scalar> 
21420
(
392.798
382.929
369.302
352.086
331.501
307.834
281.414
252.599
221.749
189.304
155.682
121.294
86.5755
51.9243
17.706
-15.7438
-47.9521
-77.9147
-107.541
-135.72
-162.268
-187.088
-210.116
-231.329
-250.731
-268.339
-284.189
-298.321
-310.784
-321.631
-330.911
-338.671
-344.955
-349.801
-353.243
-355.293
-355.929
-355.001
-352.661
-348.889
-343.652
-336.927
-328.657
-318.788
-307.283
-294.077
-279.113
-262.353
-243.751
-223.261
-200.869
-176.593
-150.447
-122.49
-92.7834
-61.4126
-31.1321
2.05943
36.281
71.0815
106.109
140.941
175.149
208.326
240.047
269.891
297.477
322.437
344.433
363.168
378.366
389.807
397.326
400.748
400.112
395.303
386.419
373.549
356.884
336.672
313.203
286.812
257.884
226.827
194.061
160.022
125.137
89.8223
54.4696
19.4383
-14.9478
-48.4064
-80.6949
-111.601
-140.947
-168.587
-194.409
-218.329
-240.292
-260.272
-278.272
-294.316
-308.445
-320.717
-331.196
-339.946
-347.028
-352.505
-356.443
-358.868
-359.79
-359.255
-357.281
-353.849
-348.941
-342.542
-334.629
-325.178
-314.166
-301.568
-287.368
-271.556
-254.124
-235.072
-214.406
-192.141
-168.298
-142.911
-116.036
-87.7438
-58.1307
-27.3195
4.53043
37.1754
70.3858
103.882
137.344
170.42
202.727
233.865
263.424
290.993
316.167
338.559
357.811
373.598
385.639
393.707
397.585
397.254
392.614
383.743
370.698
353.675
332.913
308.72
281.46
251.548
219.439
185.621
150.591
114.851
78.8843
43.1463
8.06417
-26.015
-58.774
-89.9632
-119.394
-146.936
-172.505
-196.065
-217.615
-237.181
-254.808
-270.555
-284.491
-296.692
-307.233
-316.184
-323.615
-329.588
-334.157
-337.392
-339.326
-339.972
-339.387
-337.6
-334.608
-330.415
-325.015
-318.392
-310.512
-301.338
-290.82
-278.899
-265.512
-250.602
-234.116
-216.01
-196.251
-174.818
-151.703
-126.923
-100.525
-72.5818
-43.1987
-12.5308
19.2359
51.8839
85.0779
118.51
151.822
184.615
216.457
246.897
275.479
301.75
325.279
345.669
362.566
375.663
384.719
389.547
390.035
386.19
378.093
365.826
349.633
329.802
306.683
280.678
252.229
221.797
189.852
156.865
123.294
89.5664
56.0779
23.1821
-8.8218
-39.6835
-69.2043
-97.2344
-123.669
-148.439
-171.501
-192.836
-212.448
-230.355
-246.586
-261.182
-274.19
-285.663
-295.652
-304.204
-311.362
-317.169
-321.658
-324.859
-326.816
-327.525
-326.981
-325.254
-322.302
-318.115
-312.661
-305.888
-297.762
-288.23
-277.224
-264.693
-250.589
-234.878
-217.534
-198.513
-177.803
-155.41
-131.377
-105.799
-78.8546
-50.8054
-22.0542
7.46214
50.432
84.5185
118.412
151.993
184.666
216.004
245.49
272.644
297.08
318.394
336.231
350.326
360.43
366.342
367.917
366.686
361.504
352.285
339.07
322.022
301.387
277.513
250.836
221.796
190.85
158.459
125.081
91.1568
57.0998
23.2791
-10.3054
-42.6866
-73.8664
-103.67
-131.93
-158.523
-183.36
-206.378
-227.55
-246.871
-264.356
-280.031
-293.933
-306.108
-316.602
-325.459
-332.724
-338.432
-342.616
-345.325
-346.549
-346.187
-344.313
-340.93
-336.055
-329.645
-321.687
-312.157
-301.015
-288.227
-273.756
-257.559
-239.607
-219.889
-198.394
-175.14
-150.177
-123.572
-95.5098
-66.2897
-36.5355
-11.012
6.91805
392.953
383.076
369.438
352.21
331.609
307.926
281.489
252.655
221.787
189.322
155.683
121.278
86.545
51.8806
17.6519
-15.8072
-48.019
-77.9939
-107.622
-135.803
-162.352
-187.171
-210.198
-231.41
-250.81
-268.415
-284.262
-298.39
-310.851
-321.695
-330.973
-338.73
-345.013
-349.857
-353.298
-355.348
-355.986
-355.057
-352.717
-348.946
-343.711
-336.987
-328.72
-318.854
-307.352
-294.149
-279.188
-262.431
-243.832
-223.344
-200.953
-176.679
-150.533
-122.575
-92.8692
-61.5017
-31.1831
2.00739
36.2365
71.0482
106.09
140.938
175.163
208.358
240.097
269.959
297.563
322.539
344.55
363.299
378.509
389.959
397.484
400.916
400.268
395.459
386.569
373.689
357.012
336.784
313.299
286.889
257.942
226.866
194.082
160.024
125.123
89.7932
54.4271
19.3843
-15.0115
-48.4783
-80.7735
-111.685
-141.035
-168.678
-194.501
-218.421
-240.384
-260.363
-278.361
-294.402
-308.528
-320.796
-331.272
-340.019
-347.099
-352.574
-356.511
-358.933
-359.854
-359.32
-357.347
-353.915
-349.008
-342.61
-334.699
-325.25
-314.239
-301.642
-287.444
-271.634
-254.202
-235.152
-214.487
-192.221
-168.379
-142.992
-116.115
-87.8203
-58.2039
-27.3878
4.46925
37.1225
70.3431
103.852
137.328
170.418
202.742
233.898
263.476
291.063
316.255
338.664
357.932
373.732
385.785
393.861
397.75
397.411
392.771
383.894
370.84
353.805
333.028
308.817
281.537
251.604
219.474
185.634
150.585
114.826
78.8417
43.0889
7.99403
-26.095
-58.8614
-90.0557
-119.49
-147.032
-172.601
-196.16
-217.707
-237.269
-254.893
-270.636
-284.569
-296.767
-307.304
-316.252
-323.68
-329.65
-334.218
-337.451
-339.383
-340.027
-339.442
-337.655
-334.663
-330.471
-325.072
-318.45
-310.572
-301.4
-290.886
-278.967
-265.584
-250.676
-234.193
-216.09
-196.333
-174.901
-151.787
-127.007
-100.608
-72.662
-43.2751
-12.6017
19.1735
51.8313
85.037
118.483
151.811
184.621
216.482
246.942
275.544
301.835
325.383
345.791
362.702
375.812
384.877
389.714
390.196
386.348
378.245
365.968
349.761
329.913
306.775
280.75
252.28
221.827
189.863
156.858
123.269
89.5273
56.0264
23.1202
-8.8917
-39.7593
-69.284
-97.3166
-123.753
-148.523
-171.583
-192.917
-212.527
-230.432
-246.661
-261.254
-274.259
-285.73
-295.716
-304.266
-311.423
-317.228
-321.716
-324.916
-326.871
-327.577
-327.035
-325.308
-322.356
-318.171
-312.718
-305.947
-297.824
-288.294
-277.29
-264.761
-250.66
-234.95
-217.609
-198.589
-177.88
-155.487
-131.452
-105.87
-78.9194
-50.8606
-22.101
7.38945
50.4128
84.4774
118.388
151.99
184.684
216.043
245.549
272.724
297.181
318.513
336.367
350.477
360.593
366.513
368.093
366.852
361.671
352.445
339.217
322.153
301.5
277.606
250.908
221.848
190.881
158.471
125.075
91.1348
57.0635
23.2309
-10.3647
-42.7537
-73.9397
-103.748
-132.011
-158.606
-183.443
-206.46
-227.631
-246.95
-264.432
-280.105
-294.004
-306.176
-316.668
-325.523
-332.786
-338.493
-342.677
-345.384
-346.605
-346.245
-344.371
-340.989
-336.115
-329.706
-321.75
-312.222
-301.082
-288.297
-273.828
-257.634
-239.684
-219.967
-198.473
-175.22
-150.256
-123.65
-95.5842
-66.3571
-36.5924
-11.0443
6.84503
393.264
383.37
369.711
352.456
331.826
308.11
281.638
252.767
221.862
189.36
155.686
121.248
86.4839
51.7932
17.5435
-15.9338
-48.1534
-78.1522
-107.786
-135.97
-162.52
-187.339
-210.364
-231.572
-250.966
-268.566
-284.407
-298.53
-310.984
-321.823
-331.096
-338.849
-345.128
-349.969
-353.408
-355.458
-356.098
-355.17
-352.828
-349.06
-343.828
-337.109
-328.845
-318.985
-307.489
-294.292
-279.337
-262.586
-243.992
-223.509
-201.122
-176.849
-150.704
-122.745
-93.0395
-61.6765
-31.2865
1.90431
36.1488
70.983
106.053
140.933
175.192
208.424
240.199
270.098
297.737
322.746
344.788
363.563
378.797
390.264
397.801
401.254
400.581
395.773
386.871
373.973
357.271
337.013
313.493
287.047
258.063
226.95
194.128
160.036
125.102
89.7421
54.3499
19.2845
-15.1301
-48.6129
-80.9209
-111.843
-141.2
-168.848
-194.674
-218.595
-240.557
-260.533
-278.526
-294.561
-308.681
-320.943
-331.412
-340.153
-347.228
-352.699
-356.631
-359.05
-359.967
-359.437
-357.463
-354.032
-349.128
-342.732
-334.824
-325.378
-314.369
-301.776
-287.58
-271.772
-254.342
-235.294
-214.63
-192.365
-168.522
-143.134
-116.255
-87.9555
-58.3323
-27.5063
4.36487
37.0347
70.2757
103.808
137.312
170.433
202.791
233.982
263.596
291.219
316.447
338.891
358.189
374.017
386.091
394.183
398.095
397.736
393.098
384.21
371.138
354.076
333.268
309.022
281.703
251.727
219.555
185.673
150.583
114.786
78.7679
42.9855
7.86517
-26.2435
-59.0247
-90.229
-119.669
-147.213
-172.781
-196.336
-217.878
-237.434
-255.05
-270.786
-284.712
-296.902
-307.433
-316.375
-323.797
-329.762
-334.326
-337.555
-339.482
-340.124
-339.54
-337.751
-334.759
-330.568
-325.171
-318.551
-310.677
-301.51
-291.001
-279.088
-265.71
-250.809
-234.331
-216.233
-196.48
-175.051
-151.938
-127.158
-100.756
-72.8048
-43.4102
-12.7258
19.0656
51.7439
84.9727
118.446
151.805
184.649
216.548
247.048
275.69
302.021
325.607
346.048
362.989
376.123
385.205
390.061
390.531
386.679
378.562
366.264
350.028
330.146
306.97
280.905
252.394
221.9
189.896
156.854
123.232
89.46
55.9341
23.0073
-9.0205
-39.8998
-69.4323
-97.4697
-123.908
-148.678
-171.737
-193.068
-212.675
-230.575
-246.799
-261.386
-274.387
-285.852
-295.834
-304.379
-311.532
-317.334
-321.819
-325.017
-326.97
-327.671
-327.133
-325.404
-322.454
-318.272
-312.821
-306.055
-297.937
-288.413
-277.413
-264.889
-250.793
-235.088
-217.75
-198.734
-178.027
-155.635
-131.597
-106.008
-79.0443
-50.9665
-22.1892
7.25552
50.3701
84.3971
118.344
151.988
184.723
216.123
245.671
272.886
297.383
318.754
336.642
350.781
360.919
366.857
368.458
367.187
362.007
352.766
339.512
322.416
301.726
277.791
251.052
221.951
190.944
158.495
125.064
91.0909
56.9907
23.1339
-10.4828
-42.8877
-74.0862
-103.904
-132.173
-158.771
-183.609
-206.624
-227.792
-247.108
-264.585
-280.252
-294.146
-306.313
-316.8
-325.651
-332.91
-338.614
-342.797
-345.503
-346.716
-346.36
-344.487
-341.107
-336.235
-329.829
-321.876
-312.352
-301.217
-288.437
-273.972
-257.782
-239.837
-220.123
-198.631
-175.379
-150.414
-123.805
-95.733
-66.4922
-36.7067
-11.1086
6.69881
393.729
383.812
370.12
352.827
332.152
308.387
281.862
252.936
221.974
189.417
155.689
121.201
86.3919
51.6617
17.3805
-16.1236
-48.3556
-78.3896
-108.03
-136.22
-162.772
-187.591
-210.612
-231.814
-251.202
-268.793
-284.625
-298.739
-311.185
-322.015
-331.28
-339.027
-345.3
-350.137
-353.572
-355.622
-356.269
-355.338
-352.995
-349.231
-344.004
-337.291
-329.034
-319.181
-307.695
-294.507
-279.561
-262.818
-244.233
-223.756
-201.374
-177.105
-150.96
-123
-93.2945
-61.9368
-31.4442
1.749
36.0166
70.8847
105.998
140.926
175.236
208.522
240.352
270.305
297.997
323.057
345.144
363.96
379.228
390.722
398.277
401.754
401.057
396.247
387.325
374.399
357.659
337.357
313.786
287.286
258.246
227.075
194.198
160.053
125.07
89.6664
54.2349
19.1359
-15.307
-48.8135
-81.1408
-112.078
-141.446
-169.102
-194.932
-218.854
-240.814
-260.785
-278.771
-294.798
-308.909
-321.161
-331.62
-340.351
-347.419
-352.884
-356.81
-359.222
-360.139
-359.609
-357.636
-354.206
-349.305
-342.913
-335.009
-325.567
-314.563
-301.974
-287.782
-271.977
-254.55
-235.504
-214.842
-192.579
-168.736
-143.346
-116.462
-88.1559
-58.5222
-27.6815
4.21087
36.9058
70.1774
103.747
137.292
170.459
202.866
234.11
263.779
291.458
316.739
339.234
358.578
374.447
386.554
394.669
398.609
398.234
393.594
384.687
371.587
354.487
333.632
309.331
281.954
251.916
219.679
185.734
150.583
114.729
78.6593
42.8324
7.67396
-26.4643
-59.2675
-90.4869
-119.935
-147.482
-173.048
-196.599
-218.133
-237.679
-255.284
-271.009
-284.924
-297.104
-307.624
-316.557
-323.971
-329.928
-334.486
-337.709
-339.628
-340.268
-339.684
-337.893
-334.902
-330.711
-325.317
-318.7
-310.832
-301.673
-291.171
-279.267
-265.898
-251.005
-234.536
-216.445
-196.698
-175.273
-152.162
-127.383
-100.976
-73.0165
-43.6104
-12.9094
18.9059
51.6153
84.8787
118.393
151.798
184.695
216.65
247.209
275.912
302.302
325.944
346.438
363.423
376.592
385.699
390.572
391.046
387.18
379.041
366.711
350.432
330.498
307.265
281.14
252.566
222.01
189.947
156.849
123.177
89.3608
55.7974
22.8399
-9.21183
-40.1087
-69.6528
-97.6973
-124.139
-148.909
-171.966
-193.293
-212.894
-230.788
-247.004
-261.583
-274.576
-286.033
-296.008
-304.547
-311.695
-317.492
-321.972
-325.167
-327.116
-327.812
-327.278
-325.548
-322.6
-318.422
-312.976
-306.217
-298.107
-288.59
-277.597
-265.081
-250.993
-235.294
-217.961
-198.952
-178.248
-155.856
-131.815
-106.215
-79.2319
-51.1254
-22.3186
7.07249
50.2875
84.2732
118.276
151.984
184.78
216.242
245.852
273.13
297.687
319.114
337.054
351.237
361.41
367.371
368.989
367.698
362.512
353.248
339.955
322.81
302.065
278.07
251.269
222.105
191.038
158.531
125.046
91.0248
56.8812
22.9874
-10.6598
-43.0889
-74.3062
-104.138
-132.415
-159.018
-183.857
-206.871
-228.035
-247.344
-264.814
-280.474
-294.36
-306.519
-316.998
-325.842
-333.096
-338.796
-342.977
-345.679
-346.884
-346.535
-344.661
-341.284
-336.416
-330.014
-322.066
-312.548
-301.419
-288.646
-274.188
-258.006
-240.066
-220.357
-198.869
-175.618
-150.652
-124.039
-95.9565
-66.6953
-36.8789
-11.2038
6.47914
394.35
384.401
370.666
353.321
332.587
308.755
282.16
253.161
222.124
189.492
155.693
121.138
86.2689
51.4857
17.1623
-16.3761
-48.6262
-78.7063
-108.357
-136.553
-163.109
-187.926
-210.943
-232.138
-251.515
-269.096
-284.916
-299.017
-311.452
-322.271
-331.526
-339.264
-345.529
-350.36
-353.79
-355.838
-356.496
-355.562
-353.217
-349.459
-344.237
-337.534
-329.285
-319.444
-307.969
-294.794
-279.86
-263.129
-244.554
-224.086
-201.711
-177.446
-151.302
-123.34
-93.6339
-62.2817
-31.6579
1.54077
35.8396
70.753
105.923
140.916
175.295
208.653
240.556
270.582
298.345
323.471
345.618
364.488
379.802
391.333
398.912
402.408
401.704
396.881
387.931
374.967
358.177
337.815
314.176
287.603
258.489
227.243
194.292
160.076
125.028
89.5651
54.0815
18.9375
-15.5428
-49.081
-81.4339
-112.391
-141.775
-169.441
-195.277
-219.2
-241.156
-261.122
-279.099
-295.114
-309.212
-321.451
-331.897
-340.616
-347.673
-353.13
-357.047
-359.451
-360.368
-359.838
-357.866
-354.438
-349.54
-343.154
-335.256
-325.819
-314.82
-302.237
-288.05
-272.25
-254.827
-235.784
-215.125
-192.863
-169.02
-143.628
-116.739
-88.4226
-58.775
-27.915
4.00602
36.7342
70.0468
103.664
137.265
170.494
202.968
234.283
264.024
291.776
317.13
339.692
359.099
375.022
387.173
395.318
399.281
398.909
394.26
385.325
372.187
355.036
334.118
309.746
282.289
252.167
219.846
185.816
150.583
114.653
78.5146
42.6282
7.41916
-26.7585
-59.5912
-90.8305
-120.29
-147.841
-173.405
-196.948
-218.473
-238.006
-255.596
-271.306
-285.206
-297.372
-307.879
-316.799
-324.202
-330.149
-334.698
-337.914
-339.823
-340.462
-339.874
-338.081
-335.091
-330.901
-325.51
-318.899
-311.038
-301.889
-291.398
-279.505
-266.148
-251.267
-234.808
-216.727
-196.988
-175.569
-152.461
-127.681
-101.269
-73.2988
-43.877
-13.1535
18.6923
51.444
84.7534
118.322
151.79
184.756
216.787
247.425
276.208
302.677
326.396
346.958
364.003
377.219
386.36
391.247
391.736
387.853
379.681
367.308
350.972
330.969
307.66
281.453
252.796
222.158
190.015
156.844
123.104
89.2288
55.6151
22.6168
-9.46686
-40.387
-69.9467
-98.0006
-124.447
-149.217
-172.271
-193.592
-213.186
-231.071
-247.276
-261.845
-274.827
-286.275
-296.24
-304.77
-311.91
-317.701
-322.175
-325.366
-327.309
-328
-327.47
-325.739
-322.795
-318.622
-313.182
-306.432
-298.333
-288.826
-277.843
-265.336
-251.259
-235.569
-218.243
-199.242
-178.543
-156.152
-132.106
-106.491
-79.4829
-51.3374
-22.4864
6.86724
50.1374
84.1021
118.185
151.977
184.856
216.401
246.094
273.454
298.091
319.595
337.604
351.845
362.064
368.057
369.695
368.392
363.188
353.891
340.546
323.336
302.516
278.442
251.558
222.31
191.163
158.579
125.022
90.9362
56.7348
22.7908
-10.8957
-43.3573
-74.5998
-104.449
-132.739
-159.348
-184.189
-207.2
-228.358
-247.659
-265.119
-280.769
-294.644
-306.793
-317.262
-326.097
-333.344
-339.038
-343.216
-345.913
-347.113
-346.767
-344.894
-341.52
-336.656
-330.26
-322.318
-312.808
-301.688
-288.925
-274.477
-258.304
-240.372
-220.669
-199.185
-175.936
-150.97
-124.35
-96.2552
-66.9671
-37.1099
-11.3287
6.18564
395.127
385.137
371.349
353.939
333.13
309.216
282.533
253.441
222.31
189.586
155.697
121.059
86.1143
51.2647
16.8886
-16.6915
-48.9661
-79.1022
-108.765
-136.971
-163.53
-188.346
-211.357
-232.542
-251.908
-269.474
-285.279
-299.366
-311.785
-322.591
-331.833
-339.56
-345.816
-350.639
-354.063
-356.108
-356.779
-355.839
-353.495
-349.743
-344.53
-337.837
-329.599
-319.771
-308.313
-295.152
-280.233
-263.517
-244.956
-224.499
-202.133
-177.873
-151.729
-123.765
-94.0572
-62.71
-31.9297
1.27869
35.6169
70.5875
105.829
140.902
175.368
208.816
240.811
270.928
298.779
323.988
346.212
365.15
380.521
392.097
399.707
403.218
402.521
397.676
388.691
375.679
358.825
338.388
314.664
288
258.792
227.452
194.408
160.104
124.975
89.4378
53.889
18.6888
-15.8383
-49.4159
-81.801
-112.783
-142.186
-169.865
-195.707
-219.632
-241.585
-261.543
-279.508
-295.509
-309.591
-321.813
-332.242
-340.946
-347.99
-353.436
-357.342
-359.738
-360.655
-360.124
-358.152
-354.727
-349.835
-343.455
-335.564
-326.135
-315.143
-302.566
-288.386
-272.591
-255.174
-236.134
-215.478
-193.219
-169.375
-143.981
-117.084
-88.7563
-59.0915
-28.2077
3.74962
36.5194
69.8831
103.561
137.231
170.537
203.095
234.497
264.33
292.174
317.618
340.266
359.75
375.741
387.947
396.132
400.116
399.758
395.094
386.124
372.938
355.723
334.726
310.264
282.708
252.482
220.054
185.918
150.582
114.557
78.3329
42.3723
7.09996
-27.127
-59.9966
-91.2608
-120.734
-148.29
-173.851
-197.386
-218.897
-238.413
-255.986
-271.678
-285.559
-297.707
-308.197
-317.102
-324.49
-330.424
-334.963
-338.168
-340.067
-340.703
-340.112
-338.318
-335.326
-331.139
-325.752
-319.147
-311.296
-302.159
-291.681
-279.803
-266.461
-251.594
-235.149
-217.079
-197.351
-175.939
-152.835
-128.055
-101.636
-73.6523
-44.2108
-13.4592
18.4241
51.2295
84.5961
118.232
151.779
184.832
216.957
247.694
276.578
303.147
326.96
347.609
364.728
378.004
387.187
392.095
392.595
388.697
380.484
368.055
351.647
331.559
308.153
281.845
253.084
222.342
190.1
156.836
123.012
89.0629
55.3865
22.3373
-9.78632
-40.7354
-70.3147
-98.38
-124.832
-149.602
-172.652
-193.967
-213.551
-231.424
-247.617
-262.172
-275.142
-286.576
-296.529
-305.049
-312.18
-317.962
-322.43
-325.614
-327.55
-328.238
-327.709
-325.978
-323.038
-318.871
-313.439
-306.701
-298.616
-289.122
-278.151
-265.656
-251.592
-235.913
-218.596
-199.605
-178.913
-156.522
-132.47
-106.837
-79.7978
-51.6027
-22.6898
6.66732
49.8915
83.8804
118.07
151.969
184.951
216.598
246.396
273.859
298.598
320.197
338.292
352.606
362.883
368.914
370.566
369.265
364.036
354.697
341.285
323.994
303.081
278.906
251.918
222.567
191.319
158.639
124.991
90.8247
56.5511
22.5436
-11.1909
-43.6933
-74.9673
-104.84
-133.144
-159.761
-184.604
-207.612
-228.762
-248.053
-265.501
-281.138
-295
-307.135
-317.592
-326.416
-333.653
-339.34
-343.513
-346.204
-347.402
-347.057
-345.185
-341.814
-336.956
-330.567
-322.634
-313.134
-302.025
-289.273
-274.838
-258.676
-240.755
-221.06
-199.581
-176.335
-151.367
-124.74
-96.6294
-67.3085
-37.401
-11.4819
5.81782
396.061
386.022
372.169
354.68
333.782
309.769
282.98
253.778
222.534
189.698
155.702
120.963
85.9277
50.9981
16.5589
-17.0702
-49.3764
-79.5775
-109.256
-137.472
-164.036
-188.85
-211.854
-233.028
-252.379
-269.928
-285.715
-299.784
-312.186
-322.975
-332.202
-339.915
-346.16
-350.974
-354.391
-356.432
-357.116
-356.169
-353.828
-350.083
-344.88
-338.201
-329.976
-320.165
-308.724
-295.582
-280.682
-263.983
-245.438
-224.995
-202.639
-178.385
-152.243
-124.274
-94.5639
-63.2208
-32.2614
0.961567
35.3476
70.3875
105.716
140.886
175.455
209.011
241.117
271.343
299.299
324.609
346.925
365.944
381.384
393.015
400.662
404.192
403.5
398.631
389.604
376.533
359.604
339.076
315.25
288.476
259.156
227.702
194.546
160.137
124.91
89.284
53.6568
18.3891
-16.1938
-49.8189
-82.2424
-113.255
-142.68
-170.374
-196.225
-220.151
-242.1
-262.048
-280
-295.983
-310.046
-322.248
-332.657
-341.342
-348.371
-353.803
-357.696
-360.084
-360.997
-360.466
-358.495
-355.074
-350.189
-343.817
-335.934
-326.513
-315.53
-302.961
-288.789
-273.001
-255.589
-236.555
-215.903
-193.646
-169.802
-144.404
-117.5
-89.1575
-59.4721
-28.5601
3.44108
36.2607
69.6857
103.436
137.19
170.588
203.246
234.755
264.698
292.652
318.204
340.954
360.533
376.605
388.877
397.11
401.121
400.778
396.096
387.086
373.842
356.548
335.457
310.887
283.212
252.86
220.303
186.039
150.581
114.441
78.1135
42.0637
6.71565
-27.5706
-60.4845
-91.7783
-121.269
-148.83
-174.387
-197.911
-219.407
-238.903
-256.455
-272.124
-285.982
-298.109
-308.579
-317.465
-324.836
-330.755
-335.28
-338.473
-340.362
-340.992
-340.398
-338.601
-335.609
-331.425
-326.043
-319.445
-311.605
-302.482
-292.021
-280.161
-266.837
-251.987
-235.558
-217.503
-197.787
-176.384
-153.285
-128.504
-102.077
-74.0778
-44.6119
-13.8269
18.1001
50.9717
84.4062
118.124
151.764
184.922
217.16
248.017
277.022
303.711
327.638
348.391
365.599
378.947
388.181
393.116
393.626
389.711
381.449
368.954
352.458
332.266
308.746
282.315
253.429
222.563
190.202
156.826
122.901
88.8624
55.1108
22.0004
-10.1708
-41.1545
-70.757
-98.8362
-125.294
-150.065
-173.11
-194.416
-213.989
-231.849
-248.026
-262.565
-275.519
-286.938
-296.877
-305.384
-312.504
-318.276
-322.734
-325.911
-327.839
-328.524
-327.996
-326.265
-323.329
-319.169
-313.747
-307.025
-298.955
-289.476
-278.52
-266.041
-251.991
-236.326
-219.021
-200.041
-179.356
-156.968
-132.907
-107.254
-80.1773
-51.9219
-22.9271
6.47102
49.5508
83.6057
117.931
151.959
185.063
216.834
246.757
274.344
299.205
320.92
339.119
353.521
363.867
369.944
371.612
370.315
365.057
355.664
342.173
324.783
303.758
279.463
252.351
222.874
191.505
158.709
124.952
90.6899
56.3297
22.2453
-11.5461
-44.0974
-75.4091
-105.309
-133.631
-160.257
-185.102
-208.106
-229.248
-248.527
-265.96
-281.58
-295.426
-307.546
-317.988
-326.799
-334.024
-339.702
-343.87
-346.553
-347.75
-347.404
-345.535
-342.168
-337.316
-330.936
-323.013
-313.525
-302.429
-289.691
-275.271
-259.123
-241.214
-221.529
-200.057
-176.814
-151.845
-125.209
-97.08
-67.7206
-37.7534
-11.6618
5.37509
397.151
387.055
373.127
355.547
334.544
310.415
283.501
254.17
222.794
189.828
155.706
120.85
85.7086
50.6855
16.1723
-17.5125
-49.8585
-80.1322
-109.828
-138.058
-164.627
-189.439
-212.435
-233.596
-252.929
-270.458
-286.224
-300.272
-312.653
-323.423
-332.632
-340.33
-346.561
-351.365
-354.773
-356.809
-357.505
-356.553
-354.217
-350.479
-345.288
-338.625
-330.417
-320.624
-309.205
-296.084
-281.205
-264.527
-246.001
-225.574
-203.23
-178.984
-152.842
-124.87
-95.1532
-63.8137
-32.6549
0.587969
35.0308
70.1524
105.582
140.865
175.555
209.238
241.473
271.827
299.907
325.333
347.757
366.871
382.391
394.086
401.778
405.331
404.643
399.747
390.671
377.531
360.513
339.879
315.933
289.032
259.58
227.992
194.707
160.175
124.833
89.1031
53.3842
18.0379
-16.6101
-50.2903
-82.7587
-113.806
-143.257
-170.97
-196.83
-220.758
-242.702
-262.638
-280.574
-296.537
-310.577
-322.755
-333.141
-341.805
-348.814
-354.231
-358.11
-360.488
-361.397
-360.865
-358.895
-355.48
-350.601
-344.239
-336.366
-326.955
-315.982
-303.423
-289.259
-273.479
-256.074
-237.046
-216.399
-194.144
-170.301
-144.899
-117.985
-89.6267
-59.9171
-28.9728
3.07998
35.9574
69.4539
103.289
137.14
170.646
203.421
235.055
265.126
293.209
318.887
341.758
361.446
377.614
389.964
398.253
402.296
401.967
397.265
388.209
374.897
357.512
336.311
311.614
283.799
253.3
220.593
186.179
150.578
114.303
77.8557
41.7016
6.26536
-28.0904
-61.0556
-92.3838
-121.894
-149.461
-175.013
-198.525
-220.002
-239.475
-257.002
-272.644
-286.477
-298.578
-309.025
-317.889
-325.24
-331.141
-335.651
-338.828
-340.707
-341.33
-340.73
-338.931
-335.939
-331.758
-326.381
-319.793
-311.966
-302.86
-292.418
-280.578
-267.276
-252.447
-236.036
-217.998
-198.297
-176.904
-153.81
-129.028
-102.593
-74.5757
-45.081
-14.2569
17.7197
50.6697
84.1828
117.995
151.745
185.025
217.396
248.392
277.54
304.369
328.43
349.304
366.617
380.049
389.343
394.311
394.83
390.894
382.577
370.003
353.406
333.093
309.437
282.863
253.831
222.819
190.319
156.813
122.769
88.6265
54.7874
21.6055
-10.6211
-41.6449
-71.2742
-99.3695
-125.834
-150.605
-173.645
-194.941
-214.501
-232.344
-248.504
-263.024
-275.959
-287.36
-297.283
-305.775
-312.881
-318.642
-323.09
-326.258
-328.177
-328.859
-328.329
-326.599
-323.67
-319.518
-314.107
-307.402
-299.35
-289.889
-278.951
-266.489
-252.457
-236.808
-219.517
-200.549
-179.875
-157.488
-133.419
-107.743
-80.6225
-52.296
-23.1979
6.28051
49.112
83.2761
117.768
151.946
185.193
217.108
247.177
274.91
299.913
321.763
340.084
354.59
365.017
371.147
372.835
371.541
366.25
356.794
343.21
325.705
304.549
280.112
252.855
223.232
191.721
158.789
124.907
90.5312
56.0702
21.8951
-11.9618
-44.57
-75.9256
-105.857
-134.2
-160.837
-185.684
-208.683
-229.815
-249.079
-266.495
-282.097
-295.924
-308.025
-318.45
-327.245
-334.457
-340.124
-344.284
-346.96
-348.156
-347.81
-345.942
-342.58
-337.736
-331.366
-323.455
-313.98
-302.9
-290.179
-275.776
-259.645
-241.75
-222.076
-200.612
-177.373
-152.402
-125.758
-97.6074
-68.2044
-38.1684
-11.8669
4.8569
398.398
388.237
374.223
356.537
335.414
311.153
284.098
254.618
223.091
189.975
155.71
120.719
85.4563
50.3264
15.7279
-18.0191
-50.4134
-80.7661
-110.483
-138.729
-165.304
-190.113
-213.099
-234.244
-253.558
-271.064
-286.806
-300.829
-313.187
-323.934
-333.123
-340.803
-347.02
-351.811
-355.21
-357.24
-357.935
-356.988
-354.661
-350.932
-345.754
-339.11
-330.92
-321.149
-309.753
-296.657
-281.802
-265.149
-246.645
-226.236
-203.907
-179.669
-153.527
-125.55
-95.8247
-64.4874
-33.1126
0.156235
34.665
69.8814
105.427
140.839
175.669
209.497
241.88
272.38
300.602
326.162
348.709
367.932
383.544
395.312
403.055
406.635
405.949
401.023
391.892
378.673
361.553
340.797
316.714
289.668
260.064
228.323
194.89
160.216
124.743
88.8941
53.0705
17.6344
-17.0876
-50.8308
-83.3504
-114.438
-143.919
-171.651
-197.523
-221.453
-243.391
-263.314
-281.231
-297.171
-311.185
-323.336
-333.695
-342.334
-349.322
-354.72
-358.583
-360.95
-361.855
-361.32
-359.353
-355.943
-351.073
-344.721
-336.859
-327.461
-316.499
-303.951
-289.797
-274.026
-256.629
-237.608
-216.966
-194.715
-170.872
-145.465
-118.541
-90.1644
-60.4271
-29.4464
2.66566
35.6088
69.1871
103.119
137.081
170.711
203.62
235.396
265.615
293.846
319.669
342.677
362.492
378.769
391.208
399.562
403.643
403.327
398.604
389.496
376.105
358.616
337.288
312.445
284.471
253.803
220.923
186.338
150.572
114.144
77.5586
41.2851
5.74793
-28.687
-61.7108
-93.0781
-122.61
-150.184
-175.731
-199.228
-220.683
-240.13
-257.627
-273.24
-287.042
-299.115
-309.534
-318.373
-325.701
-331.582
-336.074
-339.234
-341.101
-341.716
-341.11
-339.308
-336.317
-332.138
-326.768
-320.191
-312.379
-303.291
-292.871
-281.056
-267.778
-252.972
-236.583
-218.564
-198.88
-177.498
-154.412
-129.629
-103.184
-75.1462
-45.6188
-14.7501
17.2819
50.3231
83.9254
117.846
151.722
185.142
217.664
248.82
278.131
305.121
329.335
350.348
367.782
381.311
390.674
395.68
396.208
392.248
383.869
371.205
354.49
334.039
310.228
283.49
254.289
223.111
190.451
156.795
122.615
88.3545
54.4154
21.1519
-11.1378
-42.2073
-71.867
-99.9803
-126.453
-151.224
-174.257
-195.542
-215.087
-232.911
-249.05
-263.549
-276.462
-287.843
-297.746
-306.222
-313.313
-319.06
-323.496
-326.654
-328.564
-329.241
-328.709
-326.981
-324.058
-319.915
-314.519
-307.834
-299.802
-290.361
-279.444
-267.003
-252.989
-237.359
-220.084
-201.131
-180.468
-158.084
-134.006
-108.304
-81.1347
-52.7266
-23.5025
6.10128
48.5687
82.8909
117.581
151.93
185.341
217.42
247.656
275.556
300.723
322.728
341.19
355.815
366.333
372.525
374.239
372.946
367.618
358.088
344.397
326.759
305.453
280.854
253.43
223.64
191.967
158.88
124.852
90.3478
55.7722
21.4922
-12.439
-45.1118
-76.5176
-106.486
-134.852
-161.501
-186.35
-209.344
-230.463
-249.711
-267.107
-282.688
-296.493
-308.572
-318.977
-327.755
-334.951
-340.607
-344.757
-347.426
-348.621
-348.273
-346.408
-343.051
-338.216
-331.857
-323.959
-314.501
-303.439
-290.736
-276.353
-260.242
-242.364
-222.702
-201.247
-178.013
-153.041
-126.386
-98.2126
-68.7613
-38.6475
-12.0956
4.26272
399.804
389.569
375.457
357.653
336.394
311.983
284.768
255.122
223.424
190.139
155.712
120.57
85.1699
49.9203
15.2244
-18.591
-51.0421
-81.479
-111.221
-139.484
-166.067
-190.872
-213.848
-234.975
-254.265
-271.746
-287.461
-301.457
-313.787
-324.51
-333.676
-341.336
-347.535
-352.312
-355.701
-357.725
-358.406
-357.475
-355.159
-351.44
-346.279
-339.655
-331.487
-321.739
-310.371
-297.302
-282.475
-265.848
-247.37
-226.981
-204.668
-180.44
-154.298
-126.316
-96.5774
-65.2406
-33.6376
-0.335521
34.2487
69.5737
105.25
140.809
175.795
209.787
242.336
273.002
301.383
327.095
349.781
369.126
384.842
396.693
404.494
408.104
407.42
402.462
393.269
379.96
362.724
341.83
317.593
290.383
260.607
228.694
195.093
160.26
124.639
88.6564
52.715
17.1779
-17.6271
-51.4411
-84.0184
-115.151
-144.665
-172.42
-198.304
-222.237
-244.167
-264.076
-281.971
-297.885
-311.869
-323.989
-334.318
-342.929
-349.893
-355.269
-359.115
-361.47
-362.368
-361.832
-359.868
-356.465
-351.605
-345.264
-337.415
-328.029
-317.08
-304.545
-290.403
-274.642
-257.254
-238.241
-217.605
-195.358
-171.515
-146.104
-119.168
-90.771
-61.0025
-29.9815
2.19747
35.2141
68.8845
102.926
137.012
170.782
203.843
235.779
266.163
294.562
320.548
343.712
363.669
380.071
392.611
401.037
405.162
404.86
400.112
390.946
377.466
359.86
338.388
313.382
285.227
254.369
221.293
186.515
150.564
113.963
77.2211
40.8129
5.16245
-29.3615
-62.451
-93.8622
-123.418
-150.999
-176.54
-200.02
-221.45
-240.867
-258.332
-273.91
-287.679
-299.718
-310.106
-318.918
-326.221
-332.079
-336.551
-339.692
-341.545
-342.149
-341.537
-339.732
-336.742
-332.566
-327.203
-320.638
-312.842
-303.776
-293.382
-281.593
-268.343
-253.563
-237.199
-219.202
-199.536
-178.169
-155.09
-130.307
-103.851
-75.7902
-46.2263
-15.3069
16.7856
49.9314
83.633
117.676
151.692
185.271
217.964
249.3
278.795
305.967
330.354
351.525
369.095