/*--------------------------------*- C++ -*----------------------------------*\
| =========                 |                                                 |
| \\      /  F ield         | OpenFOAM: The Open Source CFD Toolbox           |
|  \\    /   O peration     | Version:  3.0.1                                 |
|   \\  /    A nd           | Web:      www.OpenFOAM.org                      |
|    \\/     M anipulation  |                                                 |
\*---------------------------------------------------------------------------*/
FoamFile
{
    version     2.0;
    format      ascii;
    class       volScalarField;
    location    "82";
    object      p_rgh;
}
// * * * * * * * * * * * * * * * * * * * * * * * * * * * * * * * * * * * * * //

dimensions      [1 -1 -2 0 0 0 0];

internalField   nonuniform List<scalar> 
21420
(
-84.7191
-111.226
-136.45
-160.392
-183.025
-204.327
-224.251
-242.789
-259.926
-275.658
-290.005
-302.988
-314.639
-324.997
-334.107
-342.016
-348.774
-354.428
-358.934
-362.383
-364.829
-366.276
-366.717
-366.155
-364.57
-361.932
-358.2
-353.314
-347.223
-339.866
-331.159
-321.044
-309.453
-296.317
-281.575
-265.143
-247
-227.114
-205.444
-182.011
-156.841
-129.979
-101.506
-71.5369
-40.2213
-7.76196
25.5749
59.5306
93.7736
127.908
161.573
194.358
225.837
255.595
283.211
308.313
330.573
349.673
365.357
377.422
385.715
390.162
390.661
387.318
380.095
369.086
354.277
335.911
314.269
289.682
262.5
233.073
201.851
169.342
135.738
101.098
65.7054
29.8888
-6.0289
-41.697
-76.764
-110.882
-143.681
-174.899
-204.284
-231.658
-256.938
-280.082
-301.129
-320.156
-337.268
-352.578
-366.199
-378.228
-388.736
-397.775
-405.372
-411.538
-416.275
-419.605
-421.548
-422.13
-421.39
-419.369
-416.115
-411.674
-406.087
-399.397
-391.634
-382.818
-372.967
-362.088
-350.189
-337.275
-323.089
-308.061
-291.949
-274.746
-256.445
-237.043
-216.54
-194.945
-172.279
-148.573
-123.876
-98.2567
-71.8069
-44.6478
-16.9325
11.1554
39.4009
67.5618
95.3789
122.571
148.841
173.886
197.394
219.052
238.551
255.586
269.871
281.145
289.173
293.756
294.756
292.05
285.567
275.43
261.748
244.561
224.147
200.774
174.759
146.465
116.291
84.6585
52.0025
18.763
-14.6252
-47.7459
-80.2126
-111.68
-141.857
-170.504
-197.434
-222.515
-245.664
-266.847
-286.074
-303.387
-318.851
-332.545
-344.554
-354.963
-363.857
-371.315
-377.379
-382.2
-385.83
-388.352
-389.86
-390.444
-390.194
-389.2
-387.54
-385.288
-382.51
-379.253
-375.556
-371.473
-367.01
-362.16
-356.885
-351.137
-344.844
-337.92
-330.275
-321.806
-312.414
-301.992
-290.436
-277.642
-263.513
-247.962
-230.918
-212.33
-192.182
-170.485
-147.29
-122.689
-96.8208
-69.8644
-42.0429
-13.6251
15.0742
43.7052
71.8844
99.2003
125.224
149.522
171.667
191.251
207.893
221.255
231.054
237.029
239.018
237.023
231.073
221.138
207.469
190.322
170.02
146.929
121.465
94.0597
65.1539
35.1908
4.59926
-26.2074
-56.8445
-86.9669
-116.273
-144.517
-171.511
-197.121
-221.261
-243.9
-265.038
-284.706
-302.956
-319.859
-335.496
-349.955
-363.328
-375.707
-387.179
-397.823
-407.707
-416.884
-425.391
-433.254
-440.494
-447.124
-453.111
-458.419
-462.985
-466.696
-469.5
-471.285
-471.921
-471.266
-469.168
-465.459
-460.002
-452.647
-443.284
-431.784
-418.073
-402.062
-383.65
-362.861
-339.623
-313.955
-285.951
-255.662
-223.287
-188.988
-152.99
-115.597
-77.1003
-37.8571
1.72431
41.2492
80.2701
118.337
155.012
189.813
222.337
252.149
278.88
302.187
321.769
337.385
348.85
355.945
358.987
358.819
354.429
345.874
333.731
318.267
299.723
278.388
254.651
228.832
201.322
172.466
142.615
112.185
81.4915
50.8483
20.5998
-9.01411
-37.7448
-65.4186
-91.8796
-116.988
-140.684
-162.921
-183.676
-202.976
-220.854
-237.356
-252.547
-266.487
-279.24
-290.86
-301.394
-310.885
-319.36
-326.837
-333.327
-338.832
-343.344
-346.852
-349.335
-350.768
-351.122
-350.145
-347.97
-344.611
-340.069
-334.35
-327.459
-319.401
-310.177
-84.7744
-111.284
-136.509
-160.451
-183.085
-204.387
-224.31
-242.848
-259.984
-275.714
-290.06
-303.042
-314.69
-325.047
-334.154
-342.061
-348.818
-354.47
-358.975
-362.423
-364.869
-366.315
-366.757
-366.195
-364.612
-361.975
-358.245
-353.362
-347.274
-339.92
-331.216
-321.104
-309.516
-296.383
-281.644
-265.214
-247.073
-227.189
-205.52
-182.087
-156.917
-130.052
-101.576
-71.6028
-40.2809
-7.81341
25.5335
59.501
93.7576
127.907
161.588
194.39
225.886
255.662
283.294
308.412
330.686
349.798
365.493
377.566
385.864
390.313
390.819
387.462
380.238
369.225
354.409
336.032
314.376
289.773
262.576
233.134
201.895
169.367
135.748
101.098
65.6957
29.8701
-6.05589
-41.7318
-76.8065
-110.932
-143.738
-174.962
-204.353
-231.731
-257.013
-280.158
-301.206
-320.232
-337.341
-352.65
-366.27
-378.297
-388.805
-397.843
-405.439
-411.605
-416.342
-419.671
-421.612
-422.193
-421.451
-419.428
-416.173
-411.73
-406.142
-399.451
-391.687
-382.872
-373.021
-362.142
-350.243
-337.332
-323.144
-308.12
-292.009
-274.808
-256.508
-237.106
-216.604
-195.01
-172.344
-148.638
-123.94
-98.3181
-71.8652
-44.7015
-16.9802
11.115
39.3691
67.5399
95.368
122.572
148.855
173.913
197.435
219.108
238.62
255.669
269.967
281.253
289.291
293.882
294.887
292.193
285.695
275.553
261.865
244.67
224.242
200.853
174.821
146.509
116.316
84.6633
51.9882
18.7307
-14.6741
-47.8098
-80.2888
-111.767
-141.951
-170.603
-197.536
-222.617
-245.765
-266.946
-286.169
-303.478
-318.937
-332.627
-344.631
-355.036
-363.926
-371.381
-377.439
-382.258
-385.884
-388.403
-389.906
-390.487
-390.234
-389.237
-387.575
-385.32
-382.541
-379.282
-375.585
-371.503
-367.041
-362.192
-356.92
-351.176
-344.887
-337.967
-330.327
-321.864
-312.477
-302.06
-290.509
-277.72
-263.596
-248.05
-231.008
-212.423
-192.276
-170.579
-147.381
-122.777
-96.9039
-69.9401
-42.1092
-13.6798
15.0329
43.6797
71.8763
99.211
125.255
149.573
171.737
191.34
207.998
221.374
231.184
237.178
239.153
237.156
231.203
221.26
207.578
190.415
170.094
146.983
121.5
94.0745
65.1497
35.1689
4.56131
-26.2594
-56.9083
-87.0401
-116.354
-144.602
-171.599
-197.209
-221.349
-243.985
-265.121
-284.785
-303.032
-319.931
-335.564
-350.019
-363.388
-375.762
-387.23
-397.871
-407.753
-416.928
-425.434
-433.296
-440.538
-447.168
-453.157
-458.467
-463.036
-466.75
-469.558
-471.348
-471.987
-471.336
-469.241
-465.535
-460.079
-452.725
-443.362
-431.861
-418.149
-402.137
-383.723
-362.933
-339.692
-314.021
-286.013
-255.718
-223.338
-189.032
-153.027
-115.626
-77.1186
-37.8642
1.72947
41.2673
80.3025
118.385
155.075
189.892
222.432
252.26
279.005
302.325
321.917
337.542
349.013
356.122
359.172
358.958
354.558
346.006
333.858
318.38
299.822
278.47
254.717
228.881
201.356
172.483
142.618
112.174
81.4681
50.8138
20.5558
-9.06601
-37.8029
-65.4812
-91.9451
-117.056
-140.751
-162.988
-183.741
-203.038
-220.913
-237.411
-252.6
-266.536
-279.286
-290.904
-301.437
-310.926
-319.4
-326.876
-333.366
-338.871
-343.384
-346.892
-349.376
-350.811
-351.166
-350.189
-348.014
-344.656
-340.115
-334.396
-327.506
-319.448
-310.225
-84.8851
-111.398
-136.626
-160.57
-183.205
-204.507
-224.429
-242.965
-260.1
-275.828
-290.17
-303.148
-314.793
-325.146
-334.249
-342.152
-348.904
-354.553
-359.055
-362.503
-364.947
-366.394
-366.836
-366.276
-364.695
-362.062
-358.336
-353.457
-347.375
-340.027
-331.329
-321.224
-309.642
-296.514
-281.781
-265.356
-247.219
-227.339
-205.671
-182.238
-157.067
-130.199
-101.717
-71.7338
-40.399
-7.9152
25.452
59.4432
93.7268
127.906
161.62
194.455
225.986
255.797
283.462
308.611
330.914
350.052
365.767
377.856
386.165
390.617
391.139
387.749
380.529
369.505
354.675
336.275
314.591
289.957
262.729
233.259
201.985
169.418
135.771
101.101
65.68
29.8371
-6.10459
-41.7954
-76.8844
-111.024
-143.843
-175.079
-204.48
-231.865
-257.151
-280.298
-301.344
-320.366
-337.472
-352.777
-366.393
-378.417
-388.923
-397.96
-405.555
-411.719
-416.455
-419.782
-421.721
-422.298
-421.553
-419.526
-416.267
-411.82
-406.229
-399.536
-391.77
-382.954
-373.103
-362.224
-350.324
-337.415
-323.231
-308.212
-292.101
-274.902
-256.604
-237.204
-216.703
-195.11
-172.444
-148.737
-124.037
-98.4116
-71.9525
-44.7801
-17.0473
11.0623
39.3335
67.5238
95.3735
122.601
148.909
173.994
197.544
219.245
238.785
255.861
270.185
281.494
289.552
294.158
295.173
292.498
285.98
275.829
262.128
244.914
224.459
201.038
174.972
146.623
116.392
84.7013
51.988
18.6944
-14.7439
-47.9093
-80.4132
-111.911
-142.111
-170.773
-197.713
-222.796
-245.942
-267.118
-286.334
-303.634
-319.084
-332.764
-344.76
-355.156
-364.038
-371.488
-377.533
-382.348
-385.966
-388.477
-389.973
-390.546
-390.287
-389.284
-387.616
-385.357
-382.574
-379.313
-375.614
-371.531
-367.071
-362.225
-356.958
-351.221
-344.939
-338.029
-330.398
-321.945
-312.568
-302.162
-290.621
-277.842
-263.728
-248.189
-231.154
-212.574
-192.429
-170.731
-147.529
-122.918
-97.0343
-70.0559
-42.2063
-13.754
14.9858
43.6641
71.8958
99.2681
125.351
149.71
171.913
191.553
208.244
221.647
231.478
237.507
239.46
237.459
231.497
221.538
207.829
190.633
170.276
147.126
121.602
94.1369
65.174
35.1577
4.51779
-26.3309
-57.0035
-87.1541
-116.481
-144.739
-171.741
-197.352
-221.49
-244.123
-265.253
-284.911
-303.15
-320.041
-335.665
-350.111
-363.472
-375.838
-387.299
-397.934
-407.811
-416.983
-425.486
-433.347
-440.591
-447.223
-453.216
-458.531
-463.107
-466.828
-469.644
-471.442
-472.09
-471.447
-469.359
-465.657
-460.205
-452.853
-443.492
-431.991
-418.278
-402.265
-383.849
-363.057
-339.812
-314.135
-286.121
-255.818
-223.428
-189.11
-153.09
-115.673
-77.1466
-37.8708
1.74633
41.3101
80.3729
118.485
155.205
190.054
222.627
252.485
279.259
302.605
322.217
337.858
349.342
356.477
359.535
359.241
354.819
346.274
334.111
318.608
300.019
278.636
254.85
228.981
201.423
172.519
142.624
112.152
81.4214
50.7449
20.4678
-9.16982
-37.9192
-65.6064
-92.0763
-117.19
-140.886
-163.12
-183.869
-203.161
-221.03
-237.523
-252.704
-266.635
-279.38
-290.993
-301.521
-311.008
-319.479
-326.954
-333.444
-338.949
-343.463
-346.973
-349.458
-350.896
-351.255
-350.276
-348.103
-344.746
-340.206
-334.488
-327.6
-319.543
-310.322
-85.0512
-111.57
-136.801
-160.748
-183.385
-204.687
-224.608
-243.142
-260.273
-275.997
-290.335
-303.308
-314.948
-325.295
-334.392
-342.289
-349.034
-354.676
-359.177
-362.623
-365.065
-366.511
-366.955
-366.398
-364.82
-362.192
-358.473
-353.601
-347.527
-340.187
-331.499
-321.403
-309.83
-296.712
-281.986
-265.569
-247.438
-227.563
-205.898
-182.466
-157.292
-130.419
-101.928
-71.9304
-40.5764
-8.06813
25.3294
59.3562
93.6804
127.905
161.667
194.553
226.136
255.999
283.715
308.911
331.256
350.432
366.179
378.291
386.615
391.071
391.605
388.193
380.97
369.926
355.074
336.64
314.914
290.233
262.958
233.447
202.12
169.495
135.806
101.105
65.6566
29.7879
-6.17736
-41.8902
-77.0009
-111.161
-144
-175.254
-204.67
-232.066
-257.358
-280.506
-301.55
-320.568
-337.668
-352.966
-366.577
-378.597
-389.099
-398.134
-405.728
-411.89
-416.624
-419.948
-421.882
-422.455
-421.704
-419.671
-416.406
-411.954
-406.359
-399.662
-391.894
-383.076
-373.224
-362.345
-350.444
-337.52
-323.379
-308.348
-292.238
-275.041
-256.746
-237.348
-216.85
-195.258
-172.592
-148.884
-124.181
-98.5496
-72.0812
-44.8957
-17.1454
10.9858
39.2825
67.5022
95.3845
122.648
148.993
174.118
197.709
219.452
239.035
256.152
270.515
281.859
289.946
294.577
295.606
292.94
286.426
276.252
262.526
245.282
224.787
201.32
175.201
146.797
116.509
84.7606
51.9899
18.6418
-14.8468
-48.0569
-80.5984
-112.127
-142.35
-171.028
-197.977
-223.063
-246.207
-267.375
-286.581
-303.868
-319.305
-332.971
-344.953
-355.337
-364.207
-371.641
-377.684
-382.484
-386.091
-388.59
-390.075
-390.636
-390.368
-389.355
-387.68
-385.414
-382.624
-379.359
-375.657
-371.574
-367.115
-362.274
-357.015
-351.287
-345.017
-338.119
-330.502
-322.063
-312.702
-302.311
-290.786
-278.022
-263.922
-248.395
-231.37
-212.797
-192.655
-170.955
-147.748
-123.127
-97.2268
-70.2264
-42.3487
-13.862
14.9188
43.6443
71.9286
99.3578
125.5
149.919
172.182
191.877
208.617
222.061
231.923
237.981
239.943
237.926
231.946
221.96
208.212
190.967
170.554
147.345
121.76
94.2352
65.2153
35.1453
4.45704
-26.4338
-57.1421
-87.3208
-116.669
-144.94
-171.95
-197.563
-221.699
-244.325
-265.447
-285.095
-303.322
-320.201
-335.813
-350.246
-363.594
-375.949
-387.399
-398.024
-407.894
-417.061
-425.561
-433.419
-440.668
-447.303
-453.3
-458.624
-463.209
-466.941
-469.77
-471.581
-472.241
-471.61
-469.532
-465.839
-460.392
-453.044
-443.683
-432.183
-418.47
-402.455
-384.037
-363.241
-339.99
-314.306
-286.282
-255.967
-223.562
-189.226
-153.185
-115.743
-77.1888
-37.881
1.77177
41.3739
80.4791
118.635
155.402
190.298
222.918
252.823
279.64
303.023
322.666
338.33
349.834
357.001
360.06
359.681
355.225
346.68
334.492
318.95
300.316
278.885
255.049
229.131
201.523
172.572
142.632
112.12
81.3511
50.6413
20.3355
-9.32573
-38.0937
-65.7945
-92.2731
-117.391
-141.088
-163.319
-184.063
-203.347
-221.207
-237.69
-252.862
-266.783
-279.519
-291.125
-301.648
-311.13
-319.599
-327.072
-333.561
-339.067
-343.582
-347.094
-349.582
-351.023
-351.387
-350.408
-348.235
-344.88
-340.342
-334.626
-327.74
-319.686
-310.467
-85.2728
-111.799
-137.035
-160.986
-183.624
-204.926
-224.846
-243.377
-260.505
-276.224
-290.555
-303.522
-315.154
-325.493
-334.582
-342.471
-349.207
-354.841
-359.339
-362.782
-365.223
-366.668
-367.113
-366.559
-364.987
-362.366
-358.654
-353.793
-347.729
-340.401
-331.726
-321.641
-310.081
-296.974
-282.26
-265.853
-247.73
-227.862
-206.2
-182.77
-157.593
-130.713
-102.209
-72.193
-40.8134
-8.27241
25.1654
59.2398
93.6182
127.903
161.73
194.684
226.336
256.268
284.051
309.31
331.713
350.94
366.728
378.873
387.217
391.677
392.204
388.801
381.565
370.49
355.606
337.127
315.345
290.601
263.263
233.695
202.301
169.598
135.851
101.111
65.625
29.722
-6.27448
-42.0168
-77.1561
-111.345
-144.209
-175.487
-204.923
-232.333
-257.633
-280.784
-301.825
-320.837
-337.929
-353.219
-366.822
-378.837
-389.335
-398.367
-405.958
-412.118
-416.851
-420.169
-422.098
-422.664
-421.905
-419.865
-416.592
-412.132
-406.531
-399.83
-392.058
-383.239
-373.386
-362.507
-350.605
-337.67
-323.567
-308.528
-292.42
-275.227
-256.935
-237.541
-217.045
-195.455
-172.79
-149.08
-124.373
-98.7337
-72.2529
-45.0498
-17.2765
10.8837
39.2145
67.4733
95.3992
122.71
149.106
174.284
197.93
219.73
239.369
256.54
270.955
282.346
290.473
295.135
296.183
293.518
287.023
276.822
263.058
245.773
225.225
201.695
175.507
147.029
116.665
84.8386
51.9912
18.5703
-14.9857
-48.2554
-80.8472
-112.417
-142.671
-171.37
-198.331
-223.422
-246.562
-267.721
-286.912
-304.182
-319.601
-333.249
-345.213
-355.58
-364.434
-371.85
-377.885
-382.669
-386.26
-388.743
-390.212
-390.759
-390.477
-389.453
-387.767
-385.491
-382.692
-379.423
-375.716
-371.633
-367.176
-362.341
-357.091
-351.376
-345.121
-338.24
-330.642
-322.222
-312.881
-302.511
-291.007
-278.263
-264.181
-248.671
-231.659
-213.094
-192.956
-171.255
-148.04
-123.405
-97.4836
-70.4539
-42.5387
-14.006
14.8293
43.6178
71.9725
99.4778
125.7
150.199
172.541
192.309
209.115
222.615
232.518
238.595
240.593
238.561
232.547
222.525
208.723
191.413
170.925
147.637
121.972
94.3668
65.2706
35.1291
4.37628
-26.5709
-57.3269
-87.5431
-116.919
-145.209
-172.229
-197.844
-221.976
-244.595
-265.705
-285.34
-303.552
-320.415
-336.009
-350.426
-363.757
-376.095
-387.531
-398.144
-408.005
-417.165
-425.66
-433.515
-440.769
-447.408
-453.413
-458.746
-463.344
-467.092
-469.936
-471.764
-472.443
-471.827
-469.762
-466.08
-460.641
-453.297
-443.939
-432.439
-418.725
-402.709
-384.287
-363.487
-340.228
-314.534
-286.497
-256.165
-223.741
-189.381
-153.312
-115.838
-77.2454
-37.8947
1.80537
41.4594
80.6203
118.837
155.666
190.624
223.309
253.275
280.149
303.582
323.266
338.96
350.488
357.687
360.737
360.291
355.786
347.227
335.001
319.405
300.712
279.216
255.315
229.33
201.657
172.643
142.643
112.075
81.257
50.5028
20.1589
-9.53398
-38.3267
-66.0455
-92.5359
-117.66
-141.357
-163.584
-184.32
-203.594
-221.442
-237.912
-253.072
-266.981
-279.706
-291.302
-301.817
-311.293
-319.757
-327.228
-333.717
-339.223
-343.74
-347.255
-349.747
-351.193
-351.562
-350.584
-348.413
-345.059
-340.524
-334.811
-327.927
-319.876
-310.66
-85.5501
-112.085
-137.328
-161.283
-183.924
-205.226
-225.144
-243.671
-260.794
-276.507
-290.83
-303.788
-315.411
-325.74
-334.82
-342.698
-349.424
-355.047
-359.541
-362.981
-365.42
-366.865
-367.311
-366.761
-365.195
-362.582
-358.881
-354.032
-347.982
-340.669
-332.009
-321.94
-310.395
-297.303
-282.603
-266.208
-248.096
-228.235
-206.579
-183.149
-157.97
-131.08
-102.562
-72.5218
-41.1103
-8.52834
24.9599
59.0937
93.54
127.9
161.808
194.847
226.586
256.605
284.472
309.809
332.285
351.574
367.415
379.6
387.97
392.437
392.948
389.563
382.309
371.196
356.271
337.736
315.883
291.06
263.643
234.005
202.528
169.728
135.906
101.117
65.5849
29.6393
-6.39606
-42.175
-77.3501
-111.574
-144.471
-175.778
-205.239
-232.668
-257.978
-281.132
-302.169
-321.174
-338.255
-353.535
-367.129
-379.137
-389.63
-398.658
-406.247
-412.404
-417.133
-420.447
-422.368
-422.926
-422.158
-420.107
-416.825
-412.356
-406.747
-400.039
-392.264
-383.442
-373.588
-362.71
-350.807
-337.866
-323.794
-308.752
-292.648
-275.459
-257.172
-237.783
-217.29
-195.702
-173.038
-149.326
-124.613
-98.9643
-72.4681
-45.2432
-17.441
10.7553
39.1288
67.4363
95.4166
122.786
149.246
174.49
198.206
220.075
239.784
257.025
271.505
282.954
291.13
295.832
296.904
294.245
287.758
277.538
263.724
246.387
225.771
202.163
175.888
147.318
116.858
84.9342
51.991
18.479
-15.1614
-48.5056
-81.1608
-112.782
-143.074
-171.8
-198.777
-223.873
-247.009
-268.155
-287.328
-304.578
-319.973
-333.599
-345.54
-355.886
-364.72
-372.116
-378.137
-382.901
-386.473
-388.937
-390.387
-390.916
-390.617
-389.577
-387.877
-385.59
-382.78
-379.504
-375.791
-371.707
-367.254
-362.426
-357.187
-351.489
-345.252
-338.393
-330.818
-322.422
-313.106
-302.762
-291.283
-278.565
-264.506
-249.016
-232.02
-213.467
-193.334
-171.63
-148.406
-123.754
-97.8058
-70.7396
-42.7774
-14.1872
14.7163
43.5836
72.0264
99.6268
125.948
150.548
172.989
192.851
209.739
223.308
233.263
239.368
241.397
239.359
233.303
223.232
209.362
191.97
171.39
148.002
122.236
94.5306
65.3389
35.108
4.27424
-26.7436
-57.5591
-87.8222
-117.232
-145.546
-172.578
-198.196
-222.324
-244.933
-266.029
-285.646
-303.84
-320.682
-336.255
-350.65
-363.96
-376.279
-387.696
-398.294
-408.143
-417.295
-425.785
-433.634
-440.895
-447.54
-453.554
-458.9
-463.513
-467.279
-470.145
-471.994
-472.694
-472.098
-470.05
-466.382
-460.952
-453.614
-444.259
-432.759
-419.044
-403.026
-384.6
-363.794
-340.526
-314.82
-286.766
-256.413
-223.965
-189.576
-153.471
-115.956
-77.3166
-37.9124
1.84686
41.5654
80.797
119.088
155.995
191.031
223.797
253.84
280.785
304.28
324.016
339.748
351.305
358.534
361.566
361.069
356.506
347.916
335.637
319.975
301.206
279.631
255.647
229.579
201.824
172.731
142.657
112.02
81.1389
50.3292
19.9374
-9.79488
-38.6186
-66.3598
-92.8648
-117.996
-141.694
-163.916
-184.643
-203.903
-221.736
-238.19
-253.334
-267.228
-279.939
-291.523
-302.028
-311.496
-319.956
-327.424
-333.912
-339.419
-343.938
-347.456
-349.953
-351.405
-351.781
-350.804
-348.634
-345.284
-340.751
-335.041
-328.161
-320.113
-310.901
-85.8831
-112.429
-137.68
-161.64
-184.283
-205.585
-225.501
-244.024
-261.141
-276.846
-291.161
-304.108
-315.72
-326.037
-335.105
-342.971
-349.684
-355.294
-359.783
-363.22
-365.656
-367.1
-367.549
-367.004
-365.445
-362.842
-359.154
-354.319
-348.286
-340.99
-332.348
-322.298
-310.772
-297.698
-283.014
-266.634
-248.535
-228.684
-207.034
-183.605
-158.422
-131.522
-102.985
-72.9171
-41.4673
-8.83632
24.7123
58.9174
93.4453
127.895
161.901
195.042
226.885
257.009
284.977
310.409
332.971
352.337
368.24
380.473
388.874
393.351
393.845
390.475
383.201
372.046
357.07
338.467
316.53
291.611
264.097
234.374
202.801
169.886
135.972
101.122
65.536
29.5396
-6.54212
-42.3647
-77.5825
-111.848
-144.784
-176.127
-205.618
-233.069
-258.392
-281.549
-302.582
-321.577
-338.647
-353.914
-367.497
-379.496
-389.983
-399.008
-406.593
-412.746
-417.473
-420.779
-422.693
-423.24
-422.46
-420.398
-417.103
-412.624
-407.006
-400.291
-392.511
-383.686
-373.832
-362.953
-351.051
-338.108
-324.06
-309.02
-292.921
-275.737
-257.456
-238.072
-217.584
-195.999
-173.335
-149.621
-124.902
-99.2417
-72.7271
-45.4761
-17.6393
10.6002
39.0249
67.3909
95.4366
122.877
149.413
174.737
198.535
220.489
240.283
257.605
272.163
283.683
291.919
296.668
297.771
295.12
288.635
278.394
264.525
247.122
226.426
202.724
176.344
147.663
117.087
85.047
51.9887
18.367
-15.3746
-48.8087
-81.54
-113.222
-143.561
-172.319
-199.314
-224.416
-247.547
-268.679
-287.83
-305.054
-320.422
-334.02
-345.935
-356.256
-365.066
-372.438
-378.441
-383.182
-386.731
-389.172
-390.599
-391.105
-390.787
-389.728
-388.012
-385.71
-382.887
-379.601
-375.885
-371.798
-367.347
-362.528
-357.304
-351.624
-345.411
-338.578
-331.029
-322.663
-313.377
-303.064
-291.616
-278.928
-264.897
-249.431
-232.455
-213.915
-193.788
-172.082
-148.847
-124.174
-98.1939
-71.084
-43.0655
-14.4065
14.5791
43.5411
72.0898
99.8046
126.246
150.968
173.528
193.5
210.488
224.141
234.159
240.3
242.358
240.315
234.213
224.082
210.13
192.639
171.947
148.44
122.552
94.7262
65.4196
35.0811
4.15016
-26.9525
-57.8395
-88.1588
-117.61
-145.952
-172.998
-198.62
-222.742
-245.339
-266.418
-286.015
-304.185
-321.003
-336.551
-350.921
-364.205
-376.5
-387.895
-398.475
-408.309
-417.451
-425.934
-433.778
-441.046
-447.699
-453.723
-459.084
-463.716
-467.504
-470.394
-472.27
-472.996
-472.424
-470.397
-466.744
-461.326
-453.995
-444.643
-433.143
-419.427
-403.406
-384.975
-364.163
-340.883
-315.162
-287.089
-256.712
-224.233
-189.81
-153.662
-116.099
-77.4024
-37.9342
1.89611
41.6924
81.0082
119.389
156.391
191.52
224.384
254.519
281.549
305.119
324.916
340.695
352.286
359.542
362.557
362.01
357.385
348.747
336.402
320.66
301.8
280.128
256.045
229.877
202.024
172.836
142.672
111.952
80.9963
50.1199
19.6709
-10.1088
-38.9697
-66.7377
-93.2603
-118.4
-142.099
-164.315
-185.03
-204.275
-222.09
-238.524
-253.649
-267.524
-280.219
-291.788
-302.281
-311.74
-320.193
-327.658
-334.145
-339.653
-344.176
-347.698
-350.2
-351.659
-352.043
-351.069
-348.901
-345.553
-341.024
-335.317
-328.441
-320.398
-311.191
-86.2722
-112.831
-138.091
-162.057
-184.703
-206.005
-225.919
-244.437
-261.547
-277.243
-291.547
-304.482
-316.08
-326.384
-335.437
-343.289
-349.988
-355.582
-360.066
-363.498
-365.931
-367.374
-367.825
-367.286
-365.736
-363.145
-359.472
-354.654
-348.64
-341.365
-332.745
-322.716
-311.212
-298.158
-283.495
-267.132
-249.047
-229.208
-207.564
-184.138
-158.95
-132.038
-103.48
-73.3795
-41.8851
-9.19687
24.4222
58.7106
93.3337
127.889
162.008
195.269
227.235
257.48
285.566
311.109
333.772
353.227
369.204
381.494
389.932
394.42
394.895
391.538
384.242
373.038
358.003
339.32
317.285
292.254
264.625
234.802
203.12
170.073
136.048
101.127
65.4777
29.4227
-6.71266
-42.5859
-77.8531
-112.167
-145.149
-176.534
-206.06
-233.537
-258.874
-282.036
-303.064
-322.048
-339.103
-354.356
-367.926
-379.914
-390.395
-399.415
-406.997
-413.146
-417.868
-421.168
-423.071
-423.607
-422.813
-420.737
-417.429
-412.936
-407.308
-400.584
-392.798
-383.971
-374.115
-363.237
-351.336
-338.394
-324.367
-309.332
-293.239
-276.062
-257.788
-238.41
-217.927
-196.345
-173.682
-149.965
-125.239
-99.5658
-73.0301
-45.7487
-17.8717
10.4182
38.9026
67.3368
95.4587
122.982
149.606
175.024
198.918
220.971
240.862
258.281
272.931
284.533
292.839
297.643
298.781
296.143
289.658
279.389
265.459
247.98
227.19
203.376
176.875
148.063
117.353
85.1764
51.9835
18.2337
-15.6262
-49.1654
-81.9855
-113.739
-144.132
-172.927
-199.944
-225.053
-248.177
-269.292
-288.418
-305.611
-320.948
-334.513
-346.397
-356.688
-365.471
-372.816
-378.797
-383.511
-387.033
-389.447
-390.847
-391.328
-390.986
-389.906
-388.171
-385.852
-383.014
-379.715
-375.996
-371.904
-367.457
-362.648
-357.441
-351.784
-345.597
-338.793
-331.277
-322.944
-313.694
-303.417
-292.005
-279.352
-265.354
-249.917
-232.964
-214.44
-194.319
-172.61
-149.363
-124.666
-98.6487
-71.4879
-43.4039
-14.6645
14.4169
43.4896
72.1619
100.011
126.592
151.456
174.156
194.259
211.363
225.114
235.206
241.393
243.479
241.429
235.277
225.076
211.028
193.421
172.597
148.951
122.92
94.9531
65.512
35.0477
4.00328
-27.1987
-58.1692
-88.554
-118.054
-146.427
-173.491
-199.116
-223.231
-245.814
-266.873
-286.445
-304.589
-321.378
-336.897
-351.236
-364.491
-376.757
-388.127
-398.685
-408.503
-417.633
-426.109
-433.946
-441.223
-447.884
-453.92
-459.299
-463.954
-467.767
-470.686
-472.593
-473.349
-472.805
-470.802
-467.168
-461.763
-454.44
-445.091
-433.591
-419.873
-403.85
-385.414
-364.593
-341.3
-315.561
-287.466
-257.059
-224.547
-190.082
-153.885
-116.265
-77.5032
-37.9604
1.95276
41.8396
81.2541
119.74
156.851
192.095
225.069
255.311
282.441
306.098
325.968
341.802
353.43
360.713
363.711
363.112
358.42
349.721
337.296
321.459
302.493
280.708
256.509
230.224
202.257
172.958
142.689
111.872
80.8288
49.8746
19.3587
-10.4762
-39.3805
-67.1797
-93.7227
-118.873
-142.572
-164.781
-185.482
-204.709
-222.502
-238.914
-254.016
-267.87
-280.545
-292.097
-302.576
-312.024
-320.47
-327.931
-334.417
-339.926
-344.452
-347.98
-350.489
-351.956
-352.349
-351.377
-349.211
-345.867
-341.342
-335.64
-328.769
-320.731
-311.529
-86.7174
-113.291
-138.561
-162.534
-185.184
-206.486
-226.396
-244.908
-262.011
-277.697
-291.988
-304.909
-316.493
-326.78
-335.818
-343.653
-350.336
-355.912
-360.39
-363.816
-366.245
-367.687
-368.141
-367.608
-366.068
-363.491
-359.834
-355.036
-349.044
-341.793
-333.197
-323.194
-311.714
-298.685
-284.044
-267.701
-249.633
-229.807
-208.172
-184.748
-159.555
-132.628
-104.046
-73.9093
-42.3642
-9.61057
24.0891
58.4727
93.2047
127.881
162.13
195.528
227.633
258.018
286.24
311.909
334.689
354.245
370.307
382.662
391.142
395.645
396.1
392.754
385.431
374.174
359.07
340.296
318.147
292.988
265.227
235.287
203.483
170.292
136.135
101.129
65.4096
29.2883
-6.90776
-42.8382
-78.1616
-112.531
-145.565
-176.998
-206.564
-234.071
-259.426
-282.592
-303.615
-322.585
-339.624
-354.859
-368.415
-380.392
-390.865
-399.88
-407.458
-413.604
-418.32
-421.613
-423.504
-424.026
-423.217
-421.124
-417.8
-413.293
-407.652
-400.919
-393.127
-384.296
-374.439
-363.562
-351.662
-338.724
-324.715
-309.687
-293.601
-276.433
-258.167
-238.796
-218.319
-196.741
-174.079
-150.359
-125.625
-99.9367
-73.3771
-46.0613
-18.1384
10.2091
38.7615
67.2736
95.4826
123.101
149.826
175.35
199.355
221.52
241.524
259.053
273.806
285.503
293.89
298.757
299.937
297.315
290.826
280.525
266.527
248.961
228.061
204.122
177.48
148.519
117.655
85.3219
51.975
18.0785
-15.9172
-49.5765
-82.498
-114.333
-144.788
-173.625
-200.666
-225.783
-248.9
-269.994
-289.091
-306.25
-321.549
-335.078
-346.926
-357.184
-365.935
-373.25
-379.205
-383.889
-387.381
-389.764
-391.133
-391.584
-391.215
-390.111
-388.353
-386.014
-383.16
-379.848
-376.122
-372.026
-367.584
-362.786
-357.598
-351.966
-345.81
-339.041
-331.561
-323.267
-314.057
-303.821
-292.451
-279.839
-265.878
-250.474
-233.547
-215.041
-194.929
-173.217
-149.954
-125.23
-99.1709
-71.9521
-43.7933
-14.9621
14.2289
43.4282
72.2424
100.244
126.986
152.014
174.873
195.126
212.364
226.227
236.405
242.647
244.763
242.703
236.497
226.214
212.055
194.315
173.339
149.533
123.339
95.2109
65.6156
35.0072
3.83268
-27.4831
-58.549
-89.0085
-118.563
-146.974
-174.056
-199.685
-223.792
-246.357
-267.393
-286.938
-305.052
-321.808
-337.292
-351.597
-364.818
-377.052
-388.393
-398.926
-408.724
-417.841
-426.31
-434.138
-441.426
-448.096
-454.146
-459.545
-464.224
-468.066
-471.019
-472.961
-473.753
-473.241
-471.265
-467.653
-462.263
-454.949
-445.604
-434.104
-420.384
-404.358
-385.914
-365.085
-341.776
-316.018
-287.896
-257.457
-224.905
-190.394
-154.141
-116.457
-77.6192
-37.9912
2.01643
42.0067
81.5339
120.14
157.377
192.751
225.852
256.217
283.461
307.219
327.171
343.069
354.739
362.048
365.03
364.378
359.613
350.837
338.319
322.372
303.285
281.37
257.039
230.62
202.521
173.096
142.707
111.779
80.6359
49.5928
19.0003
-10.8977
-39.8514
-67.6863
-94.2524
-119.414
-143.113
-165.314
-186
-205.205
-222.974
-239.36
-254.436
-268.265
-280.918
-292.451
-302.913
-312.349
-320.786
-328.243
-334.728
-340.238
-344.768
-348.301
-350.818
-352.294
-352.698
-351.729
-349.567
-346.226
-341.705
-336.008
-329.142
-321.111
-311.916
-87.2191
-113.809
-139.09
-163.072
-185.725
-207.027
-226.934
-245.439
-262.533
-278.207
-292.484
-305.39
-316.956
-327.226
-336.245
-344.063
-350.727
-356.285
-360.753
-364.173
-366.598
-368.039
-368.496
-367.97
-366.441
-363.879
-360.242
-355.467
-349.499
-342.275
-333.707
-323.732
-312.28
-299.277
-284.662
-268.342
-250.293
-230.482
-208.856
-185.435
-160.236
-133.294
-104.686
-74.5073
-42.9052
-10.0781
23.7121
58.203
93.0576
127.87
162.266
195.818
228.081
258.624
286.998
312.811
335.721
355.393
371.55
383.978
392.507
397.027
397.46
394.125
386.771
375.454
360.271
341.395
319.118
293.813
265.902
235.827
203.889
170.542
136.234
101.127
65.3309
29.1362
-7.12742
-43.1217
-78.5077
-112.939
-146.032
-177.519
-207.131
-234.672
-260.046
-283.218
-304.233
-323.189
-340.209
-355.425
-368.965
-380.928
-391.392
-400.402
-407.976
-414.118
-418.828
-422.112
-423.991
-424.497
-423.671
-421.559
-418.217
-413.694
-408.038
-401.295
-393.495
-384.66
-374.802
-363.926
-352.029
-339.096
-325.104
-310.085
-294.008
-276.85
-258.593
-239.23
-218.759
-197.186
-174.525
-150.802
-126.06
-100.355
-73.7685
-46.4144
-18.4398
9.97238
38.6012
67.201
95.5078
123.232
150.071
175.716
199.845
222.136
242.267
259.919
274.79
286.594
295.072
300.01
301.237
298.634
292.141
281.801
267.729
250.064
229.041
204.959
178.16
149.031
117.992
85.4829
51.9625
17.9003
-16.2483
-50.0428
-83.0786
-115.006
-145.529
-174.414
-201.482
-226.608
-249.717
-270.787
-289.851
-306.97
-322.227
-335.714
-347.523
-357.743
-366.458
-373.741
-379.664
-384.316
-387.773
-390.121
-391.456
-391.874
-391.474
-390.342
-388.559
-386.199
-383.325
-379.997
-376.263
-372.165
-367.726