/*--------------------------------*- C++ -*----------------------------------*\
| =========                 |                                                 |
| \\      /  F ield         | OpenFOAM: The Open Source CFD Toolbox           |
|  \\    /   O peration     | Version:  3.0.1                                 |
|   \\  /    A nd           | Web:      www.OpenFOAM.org                      |
|    \\/     M anipulation  |                                                 |
\*---------------------------------------------------------------------------*/
FoamFile
{
    version     2.0;
    format      ascii;
    class       surfaceScalarField;
    location    "87.2";
    object      alphaPhi;
}
// * * * * * * * * * * * * * * * * * * * * * * * * * * * * * * * * * * * * * //

dimensions      [0 3 -1 0 0 0 0];

internalField   nonuniform List<scalar> 
42423
(
0.000102892
-5.68048e-06
0.000108915
-6.02296e-06
0.000115442
-6.52642e-06
0.000122426
-6.9847e-06
0.000130112
-7.68612e-06
0.000138398
-8.28517e-06
0.000147515
-9.11713e-06
0.000157445
-9.93004e-06
0.00016799
-1.05457e-05
0.000179491
-1.15002e-05
0.000191908
-1.24176e-05
0.000204906
-1.29977e-05
0.000218786
-1.38802e-05
0.000233286
-1.45007e-05
0.000248438
-1.51514e-05
0.000264163
-1.57257e-05
0.000279983
-1.58196e-05
0.000295969
-1.59857e-05
0.000311996
-1.60275e-05
0.000327603
-1.56068e-05
0.00034276
-1.51571e-05
0.00035732
-1.45605e-05
0.000370947
-1.36266e-05
0.00038351
-1.25638e-05
0.000394767
-1.12565e-05
0.000404584
-9.81662e-06
0.000412793
-8.20979e-06
0.000419233
-6.4395e-06
0.000423828
-4.59545e-06
0.000426477
-2.64906e-06
0.000427113
-6.35896e-07
0.000425647
1.46626e-06
0.000422023
3.62321e-06
0.000416482
5.54151e-06
0.000409252
7.22956e-06
0.000400043
9.2092e-06
0.000389215
1.0828e-05
0.000377134
1.20804e-05
0.000363653
1.34817e-05
0.000349193
1.44596e-05
0.000333989
1.52038e-05
0.0003183
1.56889e-05
0.000302435
1.58648e-05
0.00028645
1.59852e-05
0.000270645
1.58048e-05
0.000255232
1.54133e-05
0.000240284
1.4948e-05
0.000225976
1.43076e-05
0.000212392
1.35845e-05
0.000199544
1.28479e-05
0.00018749
1.20535e-05
0.000176216
1.12744e-05
0.000165714
1.05025e-05
0.000155947
9.76623e-06
0.000146867
9.08071e-06
0.000138441
8.42605e-06
0.000130618
7.82244e-06
0.000123339
7.27916e-06
0.000116577
6.76172e-06
0.000110283
6.2947e-06
0.000104441
5.84131e-06
9.90449e-05
5.3964e-06
9.40652e-05
4.97966e-06
8.94598e-05
4.60538e-06
8.52278e-05
4.23199e-06
8.1328e-05
3.89987e-06
7.78142e-05
3.51381e-06
7.46589e-05
3.15527e-06
7.18178e-05
2.8411e-06
6.90729e-05
2.74487e-06
6.61802e-05
2.89279e-06
6.30421e-05
3.13804e-06
5.9864e-05
3.17816e-06
5.65035e-05
3.36048e-06
5.2357e-05
4.14647e-06
4.79871e-05
4.36992e-06
4.36511e-05
4.33602e-06
3.97328e-05
3.91829e-06
3.67769e-05
2.95586e-06
3.44628e-05
2.31413e-06
3.30869e-05
1.37586e-06
3.27615e-05
3.25445e-07
3.39434e-05
-1.18187e-06
3.64403e-05
-2.49698e-06
4.0252e-05
-3.81167e-06
4.54254e-05
-5.17345e-06
5.19024e-05
-6.47696e-06
5.96544e-05
-7.752e-06
6.86135e-05
-8.95919e-06
7.87026e-05
-1.00891e-05
8.98114e-05
-1.11089e-05
0.00010195
-1.21383e-05
0.000114985
-1.30354e-05
0.000128813
-1.38281e-05
0.000143321
-1.45076e-05
0.000158431
-1.51104e-05
0.000174062
-1.56312e-05
0.00019018
-1.61184e-05
0.000206702
-1.65215e-05
0.000223522
-1.68204e-05
0.000240559
-1.70366e-05
0.000257682
-1.71228e-05
0.000274742
-1.70608e-05
0.000291594
-1.68517e-05
0.000308056
-1.64623e-05
0.000323922
-1.58654e-05
0.000339007
-1.50857e-05
0.000353098
-1.40906e-05
0.000366004
-1.29064e-05
0.000377538
-1.1534e-05
0.000387534
-9.996e-06
0.000395797
-8.26312e-06
0.000402176
-6.37878e-06
0.000406546
-4.36983e-06
0.000408807
-2.26092e-06
0.000408954
-1.46717e-07
0.000406983
1.97117e-06
0.00040279
4.19233e-06
0.000396585
6.20553e-06
0.000388506
8.07878e-06
0.000378696
9.81019e-06
0.000367326
1.13701e-05
0.000354572
1.2754e-05
0.000340619
1.39527e-05
0.000325664
1.49551e-05
0.000309896
1.57682e-05
0.000293501
1.63951e-05
0.000276655
1.68468e-05
0.000259559
1.70953e-05
0.000242394
1.71655e-05
0.000225308
1.70857e-05
0.000208494
1.68142e-05
0.000192079
1.64148e-05
0.00017614
1.59392e-05
0.000160854
1.52865e-05
0.000146293
1.45607e-05
0.000132498
1.37954e-05
0.000119574
1.29237e-05
0.000107538
1.20359e-05
9.64077e-05
1.11307e-05
8.62037e-05
1.0204e-05
7.68642e-05
9.33952e-06
6.83728e-05
8.49145e-06
6.07393e-05
7.63349e-06
5.39364e-05
6.80293e-06
4.79177e-05
6.01877e-06
4.26677e-05
5.25003e-06
3.81395e-05
4.52815e-06
3.43224e-05
3.8171e-06
3.11698e-05
3.15263e-06
2.86319e-05
2.53792e-06
2.66779e-05
1.95404e-06
2.53091e-05
1.36882e-06
2.45195e-05
7.89553e-07
2.43007e-05
2.18895e-07
2.46502e-05
-3.49548e-07
2.55881e-05
-9.37841e-07
2.71344e-05
-1.54632e-06
2.92738e-05
-2.13935e-06
3.20448e-05
-2.77101e-06
3.53835e-05
-3.33868e-06
3.93382e-05
-3.95467e-06
4.38743e-05
-4.53608e-06
4.90048e-05
-5.13047e-06
5.47042e-05
-5.69944e-06
6.09508e-05
-6.2465e-06
6.77282e-05
-6.77735e-06
7.4996e-05
-7.26778e-06
8.27209e-05
-7.72492e-06
9.09007e-05
-8.17974e-06
9.95261e-05
-8.62537e-06
0.00010858
-9.05388e-06
0.000118099
-9.51926e-06
0.000128051
-9.95195e-06
0.000138515
-1.04633e-05
0.000149467
-1.09518e-05
0.000160946
-1.14789e-05
0.00017291
-1.19647e-05
0.000185399
-1.24888e-05
0.000198432
-1.30326e-05
0.000211956
-1.35244e-05
0.000226013
-1.40567e-05
0.000240479
-1.44659e-05
0.000255412
-1.49326e-05
0.000270702
-1.52907e-05
0.000286281
-1.55787e-05
0.000302021
-1.57403e-05
0.000317732
-1.57103e-05
0.000333282
-1.55502e-05
0.000348475
-1.51935e-05
0.000363055
-1.45797e-05
0.000376861
-1.38064e-05
0.000389595
-1.2734e-05
0.000401078
-1.14831e-05
0.00041106
-9.98143e-06
0.000419295
-8.23512e-06
0.000425622
-6.32671e-06
0.000429828
-4.20587e-06
0.000431805
-1.97659e-06
0.000431535
2.69702e-07
0.000428867
2.6684e-06
0.000423806
5.06064e-06
0.000416488
7.31847e-06
0.000407043
9.44512e-06
0.00039555
1.14926e-05
0.000382247
1.3303e-05
0.000367406
1.48411e-05
0.000351256
1.61505e-05
0.000334114
1.7142e-05
0.000316315
1.77993e-05
0.00029813
1.81844e-05
0.000279866
1.82649e-05
0.000261875
1.79905e-05
0.000244338
1.75373e-05
0.000227417
1.69214e-05
0.000211336
1.6081e-05
0.000196152
1.51835e-05
0.000182086
1.40666e-05
0.000169182
1.29034e-05
0.000157419
1.1763e-05
0.000146876
1.05432e-05
0.000137498
9.37798e-06
0.000129323
8.17531e-06
0.000122216
7.10695e-06
0.000116144
6.07206e-06
0.000111124
5.02012e-06
0.00010705
4.0735e-06
0.000103883
3.16781e-06
0.000101506
2.37691e-06
9.98933e-05
1.61233e-06
9.89358e-05
9.57512e-07
9.85895e-05
3.4631e-07
9.88057e-05
-2.16204e-07
9.94292e-05
-6.23486e-07
0.000100419
-9.89895e-07
0.000101668
-1.24886e-06
0.00010303
-1.36236e-06
0.000104485
-1.45481e-06
0.00010593
-1.44506e-06
0.000107302
-1.37196e-06
0.000108626
-1.32372e-06
0.000109902
-1.27661e-06
0.000111107
-1.20511e-06
0.000112287
-1.17966e-06
0.000113588
-1.3013e-06
0.000114963
-1.37487e-06
0.000116479
-1.51616e-06
0.000118257
-1.77726e-06
0.000120245
-1.98872e-06
0.000122503
-2.25823e-06
0.000125043
-2.53963e-06
0.000127894
-2.85138e-06
0.000131084
-3.18919e-06
0.000134674
-3.59092e-06
0.000138732
-4.05748e-06
0.000143296
-4.56471e-06
0.000148447
-5.15047e-06
0.000154362
-5.91507e-06
0.00016098
-6.61853e-06
0.00016848
-7.49934e-06
0.00017691
-8.43106e-06
0.000186305
-9.39455e-06
0.000196737
-1.04327e-05
0.000208122
-1.13843e-05
0.000220416
-1.22945e-05
0.000233657
-1.32413e-05
0.000247605
-1.3948e-05
0.000262058
-1.44534e-05
0.000276985
-1.49271e-05
0.00029188
-1.48949e-05
0.000306519
-1.46401e-05
0.000320962
-1.44432e-05
0.000335075
-1.41136e-05
0.000348699
-1.3625e-05
0.000361608
-1.29098e-05
0.000373697
-1.20896e-05
0.000384861
-1.11648e-05
0.000394987
-1.01272e-05
0.000403998
-9.01338e-06
0.000411674
-7.67695e-06
0.00041773
-6.05784e-06
0.000422085
-4.35641e-06
0.000424258
-2.17513e-06
0.000423587
6.68815e-07
0.000420147
3.43846e-06
0.000414589
5.55687e-06
0.000407164
7.42382e-06
0.000397792
9.37112e-06
0.000386276
1.15149e-05
0.000372945
1.333e-05
0.000357999
1.49455e-05
0.000341645
1.63543e-05
0.000324453
1.71918e-05
0.000306723
1.77294e-05
0.000288735
1.79878e-05
0.000270975
1.776e-05
0.000253627
1.73481e-05
0.000236891
1.67362e-05
0.000220981
1.59101e-05
0.000205932
1.50492e-05
0.000191864
1.40679e-05
0.000178748
1.31158e-05
0.000166567
1.21804e-05
0.000155345
1.12223e-05
0.000145026
1.03189e-05
0.000135575
9.45147e-06
0.000126978
8.59656e-06
0.000119186
7.79227e-06
0.000112174
7.01238e-06
0.000105894
6.27979e-06
0.000100307
5.58715e-06
9.5374e-05
4.9326e-06
9.10451e-05
4.3289e-06
8.72703e-05
3.7748e-06
8.39999e-05
3.27041e-06
8.11809e-05
2.81896e-06
7.87648e-05
2.41608e-06
7.67058e-05
2.05898e-06
7.49637e-05
1.74211e-06
7.35097e-05
1.45401e-06
7.23261e-05
1.18359e-06
7.14014e-05
9.24738e-07
7.0745e-05
6.56363e-07
7.03725e-05
3.72539e-07
7.03382e-05
3.42428e-08
7.07251e-05
-3.86844e-07
7.15354e-05
-8.10302e-07
7.28845e-05
-1.34914e-06
7.48641e-05
-1.97963e-06
7.74345e-05
-2.57037e-06
8.07666e-05
-3.33207e-06
8.49713e-05
-4.20475e-06
8.99033e-05
-4.93198e-06
9.57946e-05
-5.89132e-06
0.000102547
-6.75236e-06
0.000110374
-7.8275e-06
0.000119294
-8.92012e-06
0.000128959
-9.66446e-06
0.00013969
-1.07313e-05
0.000151508
-1.18179e-05
0.000163959
-1.24514e-05
0.00017735
-1.3391e-05
0.000191444
-1.40938e-05
0.000206356
-1.4912e-05
0.000222005
-1.56489e-05
0.000237944
-1.5939e-05
0.000254377
-1.64331e-05
0.000271272
-1.68956e-05
0.000288154
-1.6882e-05
0.000305088
-1.69346e-05
0.000321781
-1.66931e-05
0.000338132
-1.63506e-05
0.00035391
-1.57787e-05
0.000368786
-1.48755e-05
0.000382671
-1.3885e-05
0.000395318
-1.26472e-05
-1.16521e-05
0.000102873
-1.1358e-05
0.000108892
-1.20425e-05
0.000115416
-1.30505e-05
0.000122397
-1.39661e-05
0.000130082
-1.53703e-05
0.000138369
-1.65726e-05
0.000147495
-1.82433e-05
0.000157429
-1.98641e-05
0.000167978
-2.10947e-05
0.00017948
-2.30022e-05
0.000191904
-2.48423e-05
0.000204896
-2.59892e-05
0.000218765
-2.77502e-05
0.000233278
-2.90132e-05
0.000248454
-3.03274e-05
0.000264195
-3.14675e-05
0.000280011
-3.16352e-05
0.000295996
-3.19711e-05
0.000312029
-3.20602e-05
0.000327642
-3.12201e-05
0.000342806
-3.03214e-05
0.00035738
-2.91348e-05
0.000371012
-2.72581e-05
0.000383574
-2.51263e-05
0.000394839
-2.25221e-05
0.000404667
-1.9644e-05
0.000412879
-1.64223e-05
0.000419318
-1.28789e-05
0.00042392
-9.19714e-06
0.000426572
-5.30078e-06
0.000427211
-1.2752e-06
0.000425733
2.94433e-06
0.000422112
7.24372e-06
0.000416573
1.10805e-05
0.00040934
1.44622e-05
0.000400124
1.84247e-05
0.000389288
2.16641e-05
0.000377199
2.41694e-05
0.000363707
2.69735e-05
0.000349237
2.89301e-05
0.000334021
3.04195e-05
0.000318319
3.13914e-05
0.000302444
3.17397e-05
0.000286449
3.198e-05
0.000270639
3.16143e-05
0.000255224
3.08282e-05
0.000240274
2.98986e-05
0.000225963
2.86179e-05
0.000212377
2.71706e-05
0.000199529
2.56962e-05
0.000187475
2.41069e-05
0.000176201
2.25489e-05
0.000165699
2.10039e-05
0.000155935
1.95309e-05
0.000146854
1.81613e-05
0.000138428
1.68526e-05
0.000130606
1.56436e-05
0.000123329
1.45569e-05
0.000116568
1.35225e-05
0.000110274
1.2589e-05
0.000104431
1.16839e-05
9.90336e-05
1.07937e-05
9.40534e-05
9.95992e-06
8.94487e-05
9.21007e-06
8.522e-05
8.46067e-06
8.13204e-05
7.79947e-06
7.78024e-05
7.03178e-06
7.46388e-05
6.31887e-06
7.17922e-05
5.68773e-06
6.90509e-05
5.48618e-06
6.61582e-05
5.78547e-06
6.30146e-05
6.28172e-06
5.98324e-05
6.36031e-06
5.64844e-05
6.70856e-06
5.23798e-05
8.25106e-06
4.80384e-05
8.71131e-06
4.37246e-05
8.64987e-06
3.9825e-05
7.81787e-06
3.68885e-05
5.89232e-06
3.45943e-05
4.60833e-06
3.32282e-05
2.74195e-06
3.29186e-05
6.35097e-07
3.4136e-05
-2.39929e-06
3.66641e-05
-5.02511e-06
4.04856e-05
-7.63317e-06
4.56658e-05
-1.03537e-05
5.2144e-05
-1.29552e-05
5.99004e-05
-1.55084e-05
6.88639e-05
-1.79227e-05
7.89443e-05
-2.01695e-05
9.00571e-05
-2.22216e-05
0.000102202
-2.4283e-05
0.000115246
-2.60801e-05
0.000129086
-2.7668e-05
0.000143591
-2.90128e-05
0.000158695
-3.02144e-05
0.000174328
-3.12641e-05
0.000190442
-3.22322e-05
0.00020696
-3.30394e-05
0.000223784
-3.36448e-05
0.000240827
-3.40802e-05
0.000257961
-3.42561e-05
0.000275029
-3.41295e-05
0.00029189
-3.37126e-05
0.000308363
-3.29351e-05
0.000324229
-3.17314e-05
0.000339323
-3.01805e-05
0.000353422
-2.81889e-05
0.000366333
-2.58175e-05
0.000377889
-2.30901e-05
0.000387883
-1.999e-05
0.00039615
-1.65302e-05
0.000402535
-1.27642e-05
0.000406914
-8.74833e-06
0.000409174
-4.52086e-06
0.000409317
-2.90057e-07
0.000407322
3.96575e-06
0.000403125
8.38971e-06
0.000396923
1.24079e-05
0.000388847
1.61539e-05
0.000379024
1.96335e-05
0.000367645
2.27489e-05
0.000354886
2.55132e-05
0.000340926
2.7913e-05
0.000325958
2.99229e-05
0.00031018
3.15461e-05
0.00029378
3.27953e-05
0.000276924
3.37031e-05
0.000259815
3.42044e-05
0.000242646
3.43346e-05
0.000225558
3.41744e-05
0.000208732
3.36396e-05
0.000192305
3.28424e-05
0.000176362
3.18822e-05
0.000161073
3.05757e-05
0.000146509
2.91243e-05
0.000132706
2.75985e-05
0.000119779
2.58506e-05
0.000107751
2.40648e-05
9.66171e-05
2.22642e-05
8.64163e-05
2.04048e-05
7.70771e-05
1.86788e-05
6.85866e-05
1.6982e-05
6.09467e-05
1.52735e-05
5.41417e-05
1.36079e-05
4.81224e-05
1.20382e-05
4.28759e-05
1.04966e-05
3.8366e-05
9.03799e-06
3.45523e-05
7.63084e-06
3.13923e-05
6.31268e-06
2.88574e-05
5.07286e-06
2.69038e-05
3.90765e-06
2.55353e-05
2.73729e-06
2.47437e-05
1.58118e-06
2.45251e-05
4.37553e-07
2.48727e-05
-6.97166e-07
2.5813e-05
-1.87816e-06
2.73622e-05
-3.09543e-06
2.95022e-05
-4.27941e-06
3.2271e-05
-5.53976e-06
3.56128e-05
-6.6804e-06
3.95734e-05
-7.91526e-06
4.41046e-05
-9.06727e-06
4.92251e-05
-1.02509e-05
5.49264e-05
-1.14007e-05
6.1178e-05
-1.2498e-05
6.79534e-05
-1.35527e-05
7.52125e-05
-1.45268e-05
8.29325e-05
-1.54449e-05
9.11049e-05
-1.6352e-05
9.97222e-05
-1.72426e-05
0.000108768
-1.80994e-05
0.000118264
-1.90154e-05
0.000128202
-1.98901e-05
0.000138653
-2.09143e-05
0.000149589
-2.18879e-05
0.000161056
-2.29455e-05
0.000173004
-2.39126e-05
0.000185484
-2.49684e-05
0.000198496
-2.60449e-05
0.000212003
-2.7031e-05
0.000226038
-2.8092e-05
0.000240494
-2.89215e-05
0.000255418
-2.98567e-05
0.000270694
-3.05668e-05
0.000286258
-3.11427e-05
0.000301989
-3.14714e-05
0.000317695
-3.14153e-05
0.000333246
-3.11016e-05
0.000348428
-3.03759e-05
0.000363004
-2.91557e-05
0.000376799
-2.76013e-05
0.000389532
-2.54661e-05
0.000401013
-2.29643e-05
0.000410989
-1.99573e-05
0.000419231
-1.64778e-05
0.000425565
-1.26604e-05
0.000429764
-8.40455e-06
0.000431741
-3.9535e-06
0.000431456
5.54784e-07
0.000428783
5.34162e-06
0.000423733
1.01108e-05
0.000416397
1.46542e-05
0.000406927
1.89149e-05
0.000395439
2.2981e-05
0.00038214
2.6602e-05
0.00036728
2.97009e-05
0.000351119
3.23122e-05
0.000333964
3.42972e-05
0.000316153
3.56101e-05
0.000297978
3.63594e-05
0.000279721
3.65218e-05
0.00026171
3.60024e-05
0.000244145
3.51017e-05
0.000227227
3.38399e-05
0.000211154
3.21542e-05
0.000195978
3.03597e-05
0.000181904
2.8141e-05
0.000168994
2.58132e-05
0.000157237
2.35201e-05
0.000146699
2.10809e-05
0.000137317
1.87599e-05
0.000129131
1.63621e-05
0.00012203
1.42078e-05
0.000115963
1.21385e-05
0.000110941
1.00431e-05
0.000106873
8.1415e-06
0.000103712
6.32867e-06
0.000101333
4.75578e-06
9.97116e-05
3.23365e-06
9.87629e-05
1.90619e-06
9.84271e-05
6.82139e-07
9.86434e-05
-4.32488e-07
9.92769e-05
-1.25705e-06
0.00010026
-1.97329e-06
0.0001015
-2.48895e-06
0.000102875
-2.73717e-06
0.000104333
-2.91299e-06
0.000105778
-2.88927e-06
0.000107157
-2.75147e-06
0.000108472
-2.63875e-06
0.000109732
-2.53665e-06
0.000110946
-2.41923e-06
0.000112125
-2.3586e-06
0.000113409
-2.58488e-06
0.00011479
-2.75647e-06
0.000116319
-3.04443e-06
0.000118086
-3.54479e-06
0.000120064
-3.96647e-06
0.000122329
-4.52319e-06
0.000124872
-5.08315e-06
0.000127725
-5.70383e-06
0.000130926
-6.39063e-06
0.000134516
-7.18128e-06
0.000138565
-8.10638e-06
0.000143123
-9.12307e-06
0.000148275
-1.03022e-05
0.000154182
-1.18223e-05
0.000160807
-1.3243e-05
0.000168318
-1.50109e-05
0.000176759
-1.68723e-05
0.000186162
-1.87976e-05
0.000196597
-2.08675e-05
0.00020799
-2.27783e-05
0.000220298
-2.46023e-05
0.000233543
-2.64867e-05
0.000247496
-2.79006e-05
0.000261947
-2.89051e-05
0.00027685
-2.98306e-05
0.000291757
-2.98016e-05
0.000306427
-2.93106e-05
0.000320891
-2.89083e-05
0.000334985
-2.82075e-05
0.000348594
-2.72354e-05
0.000361546
-2.58621e-05
0.000373669
-2.42142e-05
0.000384846
-2.2343e-05
0.000394965
-2.02474e-05
0.000403907
-1.79573e-05
0.000411472
-1.5244e-05
0.000417451
-1.20381e-05
0.000421641
-8.54878e-06
0.000423689
-4.22484e-06
0.000423169
1.18661e-06
0.000419951
6.65524e-06
0.000414538
1.0968e-05
0.000407174
1.47866e-05
0.000397801
1.87425e-05
0.000386279
2.30366e-05
0.00037294
2.66681e-05
0.000357986
2.98987e-05
0.000341624
3.27159e-05
0.000324425
3.43903e-05
0.00030669
3.54646e-05
0.000288698
3.59801e-05
0.000270934
3.55235e-05
0.000253584
3.46981e-05
0.000236847
3.34732e-05
0.000220936
3.18207e-05
0.000205888
3.00977e-05
0.000191821
2.81347e-05
0.000178707
2.62303e-05
0.000166528
2.43592e-05
0.000155307
2.24432e-05
0.000144989
2.06364e-05
0.000135539
1.89016e-05
0.000126944
1.71919e-05
0.000119153
1.55835e-05
0.000112142
1.40235e-05
0.000105863
1.25581e-05
0.000100277
1.11732e-05
9.53457e-05
9.86412e-06
9.10184e-05
8.65614e-06
8.72453e-05
7.54789e-06
8.39764e-05
6.53934e-06
8.11585e-05
5.63682e-06
7.87416e-05
4.83298e-06
7.66797e-05
4.12089e-06
7.49354e-05
3.48648e-06
7.34786e-05
2.9108e-06
7.22917e-05
2.37052e-06
7.13669e-05
1.84952e-06
7.07101e-05
1.31316e-06
7.03391e-05
7.4355e-07
7.02992e-05
7.40992e-08
7.06791e-05
-7.66774e-07
7.14894e-05
-1.62059e-06
7.28359e-05
-2.69571e-06
7.4809e-05
-3.9527e-06
7.7378e-05
-5.13941e-06
8.0705e-05
-6.65907e-06
8.49073e-05
-8.40711e-06
8.98399e-05
-9.86463e-06
9.57245e-05
-1.17759e-05
0.000102481
-1.35089e-05
0.000110308
-1.56549e-05
0.000119226
-1.78381e-05
0.000128891
-1.93298e-05
0.00013962
-2.14605e-05
0.00015144
-2.36375e-05
0.000163894
-2.49058e-05
0.000177287
-2.6784e-05
0.000191382
-2.81889e-05
0.000206293
-2.98236e-05
0.000221937
-3.12931e-05
0.000237885
-3.18868e-05
0.000254335
-3.28833e-05
0.00027124
-3.38007e-05
0.000288128
-3.37704e-05
0.00030507
-3.38772e-05
0.000321773
-3.3396e-05
0.000338134
-3.27122e-05
0.000353923
-3.15681e-05
0.000368809
-2.97615e-05
0.000382706
-2.77819e-05
0.000395382
-2.53234e-05
-2.33019e-05
0.000102836
-1.70328e-05
0.000108854
-1.80603e-05
0.00011538
-1.95761e-05
0.000122363
-2.09499e-05
0.000130051
-2.30583e-05
0.00013834
-2.48617e-05
0.000147468
-2.73715e-05
0.000157416
-2.98116e-05
0.000167971
-3.16503e-05
0.000179477
-3.45082e-05
0.000191907
-3.72722e-05
0.000204906
-3.89888e-05
0.000218782
-4.16255e-05
0.000233288
-4.35195e-05
0.000248462
-4.55021e-05
0.000264216
-4.72218e-05
0.000280045
-4.74642e-05
0.000296046
-4.79723e-05
0.000312097
-4.81109e-05
0.000327718
-4.68412e-05
0.000342892
-4.54958e-05
0.000357474
-4.37173e-05
0.000371107
-4.08907e-05
0.000383687
-3.77066e-05
0.000394957
-3.37921e-05
0.000404786
-2.9473e-05
0.000413011
-2.46474e-05
0.00041945
-1.93178e-05
0.000424059
-1.38068e-05
0.000426726
-7.9675e-06
0.000427365
-1.91415e-06
0.000425865
4.44379e-06
0.000422253
1.08559e-05
0.000416717
1.6616e-05
0.000409477
2.17022e-05
0.000400249
2.76523e-05
0.000389398
3.25151e-05
0.000377293
3.6275e-05
0.000363782
4.04844e-05
0.000349289
4.34223e-05
0.000334052
4.56567e-05
0.000318329
4.71146e-05
0.000302435
4.76339e-05
0.000286425
4.79892e-05
0.000270605
4.74348e-05
0.00025518
4.62532e-05
0.000240221
4.48573e-05
0.000225906
4.29333e-05
0.000212317
4.07596e-05
0.000199467
3.85459e-05
0.000187414
3.61598e-05
0.000176142
3.38212e-05
0.000165643
3.15029e-05
0.000155881
2.92927e-05
0.000146804
2.72381e-05
0.000138382
2.5275e-05
0.000130565
2.34609e-05
0.00012329
2.18315e-05
0.000116532
2.02799e-05
0.000110242
1.88792e-05
0.000104403
1.75232e-05
9.90073e-05
1.61895e-05
9.40296e-05
1.49376e-05
8.94312e-05
1.38085e-05
8.52077e-05
1.26841e-05
8.13134e-05
1.16938e-05
7.77973e-05
1.05479e-05
7.46283e-05
9.4879e-06
7.17791e-05
8.5369e-06
6.90416e-05
8.22372e-06
6.61577e-05
8.66938e-06
6.30127e-05
9.42665e-06
5.9813e-05
9.56007e-06
5.64893e-05
1.00323e-05
5.24733e-05
1.2267e-05
4.81795e-05
1.30051e-05
4.39127e-05
1.29167e-05
4.00461e-05
1.16845e-05
3.7134e-05
8.80447e-06
3.48653e-05
6.87702e-06
3.35209e-05
4.08637e-06
3.32486e-05
9.07319e-07
3.45214e-05
-3.67202e-06
3.70941e-05
-7.59784e-06
4.09429e-05
-1.1482e-05
4.61274e-05
-1.55382e-05
5.2599e-05
-1.94269e-05
6.03478e-05
-2.32571e-05
6.93094e-05
-2.68843e-05
7.93908e-05
-3.0251e-05
9.04998e-05
-3.33307e-05
0.000102648
-3.64311e-05
0.000115695
-3.91274e-05
0.000129538
-4.15108e-05
0.00014405
-4.35247e-05
0.000159152
-4.53169e-05
0.000174776
-4.68879e-05
0.00019088
-4.83361e-05
0.000207392
-4.9552e-05
0.000224222
-5.04744e-05
0.000241279
-5.1138e-05
0.000258422
-5.13988e-05
0.000275504
-5.12109e-05
0.000292373
-5.05817e-05
0.000308842
-4.94047e-05
0.00032474
-4.76295e-05
0.000339833
-4.52736e-05
0.000353953
-4.23091e-05
0.000366872
-3.87361e-05
0.00037844
-3.4658e-05
0.000388451
-3.00016e-05
0.000396741
-2.48196e-05
0.000403125
-1.91486e-05
0.00040751
-1.31328e-05
0.00040978
-6.79112e-06
0.000409901
-4.11253e-07
0.000407871
5.99572e-06
0.000403672
1.25886e-05
0.000397464
1.86161e-05
0.000389389
2.42289e-05
0.000379562
2.94602e-05
0.000368166
3.41455e-05
0.000355389
3.82904e-05
0.000341415
4.18866e-05
0.000326444
4.48939e-05
0.000310653
4.73376e-05
0.000294235
4.92135e-05
0.000277371
5.05672e-05
0.000260253
5.13222e-05
0.000243068
5.15199e-05
0.000225962
5.12802e-05
0.000209129
5.04731e-05
0.000192695
4.92757e-05
0.000176743
4.78345e-05
0.000161453
4.58658e-05
0.000146875
4.37028e-05
0.00013306
4.14132e-05
0.00012014
3.87703e-05
0.000108133
3.60719e-05
9.70113e-05
3.33862e-05
8.68008e-05
3.06154e-05
7.74666e-05
2.8013e-05
6.89602e-05
2.54884e-05
6.13295e-05
2.29041e-05
5.45285e-05
2.04089e-05
4.85116e-05
1.80551e-05
4.32697e-05
1.57384e-05
3.87609e-05
1.35469e-05
3.4949e-05
1.14427e-05
3.17884e-05
9.47326e-06
2.92578e-05
7.60348e-06
2.73151e-05
5.8504e-06
2.5949e-05
4.10335e-06
2.51509e-05
2.37925e-06
2.49334e-05
6.55146e-07
2.52758e-05
-1.03955e-06
2.62172e-05
-2.81956e-06
2.77649e-05
-4.64316e-06
2.99012e-05
-6.41568e-06
3.26714e-05
-8.30985e-06
3.60119e-05
-1.00209e-05
3.99731e-05
-1.18764e-05
4.45062e-05
-1.36003e-05
4.96304e-05
-1.5375e-05
5.53267e-05
-1.7097e-05
6.15702e-05
-1.87414e-05
6.8336e-05
-2.03185e-05
7.55845e-05
-2.17752e-05
8.32853e-05
-2.31456e-05
9.14442e-05
-2.45108e-05
0.00010005
-2.58484e-05
0.000109077
-2.71267e-05
0.000118553
-2.84905e-05
0.000128462
-2.9799e-05
0.000138888
-3.13402e-05
0.00014979
-3.27904e-05
0.000161229
-3.43837e-05
0.000173147
-3.58309e-05
0.000185604
-3.74251e-05
0.000198585
-3.90262e-05
0.000212053
-4.04985e-05
0.000226062
-4.21009e-05
0.000240484
-4.33431e-05
0.000255383
-4.47564e-05
0.000270639
-4.58219e-05
0.000286185
-4.66887e-05
0.000301898
-4.71849e-05
0.000317585
-4.71022e-05
0.000333122
-4.66377e-05
0.000348286
-4.55402e-05
0.000362847
-4.37166e-05
0.000376631
-4.13852e-05
0.000389353
-3.81881e-05
0.000400838
-3.44487e-05
0.000410808
-2.99281e-05
0.000419041
-2.47103e-05
0.000425375
-1.89943e-05
0.00042958
-1.26095e-05
0.000431567
-5.94033e-06
0.000431245
8.76887e-07
0.000428547
8.0392e-06
0.000423507
1.51508e-05
0.000416178
2.19835e-05
0.000406705
2.8388e-05
0.000395199
3.44866e-05
0.000381888
3.9913e-05
0.000367011
4.45787e-05
0.000350825
4.8498e-05
0.000333651
5.1471e-05
0.000315828
5.34333e-05
0.00029764
5.45473e-05
0.000279374
5.47878e-05
0.000261369
5.40079e-05
0.000243794
5.26761e-05
0.000226857
5.07775e-05
0.000210779
4.82317e-05
0.000195612
4.55271e-05
0.000181544
4.22092e-05
0.000168627
3.87306e-05
0.00015686
3.52863e-05
0.000146321
3.16204e-05
0.000136951
2.81301e-05
0.000128766
2.45466e-05
0.000121655
2.13194e-05
0.000115599
1.81946e-05
0.000110591
1.50507e-05
0.000106528
1.2205e-05
0.000103371
9.48574e-06
0.000101004
7.12254e-06
9.93895e-05
4.84794e-06
9.84344e-05
2.86128e-06
9.81062e-05
1.01035e-06
9.83377e-05
-6.63969e-07
9.89777e-05
-1.89712e-06
9.99708e-05
-2.96634e-06
0.000101214
-3.73201e-06
0.000102593
-4.11672e-06
0.000104058
-4.37716e-06
0.000105499
-4.33093e-06
0.000106881
-4.13329e-06
0.0001082
-3.95756e-06
0.000109457
-3.79404e-06
0.000110658
-3.6201e-06
0.000111839
-3.53964e-06
0.000113126
-3.87147e-06
0.000114489
-4.11981e-06
0.000116022
-4.57755e-06
0.000117805
-5.32814e-06
0.000119776
-5.93752e-06
0.000122035
-6.78125e-06
0.000124575
-7.62402e-06
0.000127425
-8.55355e-06
0.000130622
-9.58803e-06
0.000134206
-1.07649e-05
0.000138254
-1.21544e-05
0.00014281
-1.36789e-05
0.000147959
-1.54513e-05
0.000153863
-1.77265e-05
0.000160488
-1.98683e-05
0.000168001
-2.2524e-05
0.000176451
-2.53222e-05
0.00018586
-2.82063e-05
0.000196285
-3.12929e-05
0.00020769
-3.41832e-05
0.000220022
-3.69342e-05
0.000233291
-3.9756e-05
0.000247256
-4.18661e-05
0.000261709
-4.33578e-05
0.00027656
-4.46821e-05
0.000291459
-4.47011e-05
0.000306168
-4.40196e-05
0.000320658
-4.3399e-05
0.000334776
-4.23264e-05
0.00034842
-4.08803e-05
0.000361389
-3.88318e-05
0.000373494
-3.63201e-05
0.00038466
-3.35106e-05
0.000394771
-3.03595e-05
0.00040368
-2.68681e-05
0.0004112
-2.27657e-05
0.000417014
-1.78542e-05
0.000420897
-1.24339e-05
0.000422643
-5.97273e-06
0.00042216
1.6681e-06
0.000419454
9.35917e-06
0.000414488
1.59325e-05
0.000407218
2.20553e-05
0.000397842
2.81173e-05
0.000386303
3.45746e-05
0.000372946
4.00249e-05
0.000357973
4.48708e-05
0.000341593
4.90958e-05
0.000324378
5.16051e-05
0.000306628
5.32139e-05
0.000288625
5.39834e-05
0.000270853
5.32951e-05
0.000253493
5.20581e-05
0.00023676
5.02063e-05
0.000220848
4.77321e-05
0.0002058
4.51455e-05
0.000191736
4.21993e-05
0.000178625
3.93416e-05
0.000166449
3.65346e-05
0.000155232
3.36606e-05
0.000144918
3.09506e-05
0.000135471
2.83486e-05
0.000126878
2.57842e-05
0.00011909
2.33717e-05
0.000112082
2.10318e-05
0.000105807
1.88333e-05
0.000100224
1.67556e-05
9.52962e-05
1.47921e-05
9.09721e-05
1.29803e-05
8.72023e-05
1.13177e-05
8.39364e-05
9.8052e-06
8.11209e-05
8.45241e-06
7.87065e-05
7.24738e-06
7.66468e-05
6.1805e-06
7.49033e-05
5.22998e-06
7.34456e-05
4.36854e-06
7.22544e-05
3.56174e-06
7.13245e-05
2.77939e-06
7.0664e-05
1.9736e-06
7.02895e-05
1.11806e-06
7.02476e-05
1.15992e-07
7.06274e-05
-1.14652e-06
7.14343e-05
-2.42753e-06
7.27767e-05
-4.03811e-06
7.47466e-05
-5.92266e-06
7.73095e-05
-7.70235e-06
8.06356e-05
-9.9852e-06
8.48317e-05
-1.26032e-05
8.97592e-05
-1.47922e-05
9.56461e-05
-1.76629e-05
0.000102399
-2.0262e-05
0.000110225
-2.34806e-05
0.000119143
-2.67562e-05
0.000128809
-2.89962e-05
0.000139541
-3.21925e-05
0.000151359
-3.54558e-05
0.000163811
-3.73579e-05
0.000177206
-4.01791e-05
0.000191303
-4.22861e-05
0.000206221
-4.47414e-05
0.000221873
-4.6945e-05
0.000237823
-4.78373e-05
0.000254274
-4.93342e-05
0.000271177
-5.07045e-05
0.000288064
-5.06575e-05
0.000305007
-5.082e-05
0.000321715
-5.01044e-05
0.000338089
-4.90866e-05
0.000353898
-4.73771e-05
0.000368805
-4.46691e-05
0.000382731
-4.17079e-05
0.000395463
-3.80562e-05
-3.49932e-05
0.000102782
-2.27035e-05
0.000108797
-2.40752e-05
0.000115322
-2.61009e-05
0.000122307
-2.79354e-05
0.000130002
-3.07533e-05
0.000138301
-3.3161e-05
0.000147441
-3.65114e-05
0.000157398
-3.97689e-05
0.00016797
-4.2222e-05
0.000179481
-4.60199e-05
0.000191921
-4.97121e-05
0.000204925
-5.19928e-05
0.000218804
-5.55041e-05
0.000233324
-5.80395e-05
0.000248509
-6.06874e-05
0.000264275
-6.29886e-05
0.000280112
-6.33013e-05
0.000296126
-6.39864e-05
0.000312194
-6.41783e-05
0.000327828
-6.24755e-05
0.000343018
-6.06862e-05
0.000357614
-5.83132e-05
0.000371256
-5.45335e-05
0.000383851
-5.03016e-05
0.000395127
-4.50678e-05
0.000404969
-3.93157e-05
0.000413205
-3.28828e-05
0.000419647
-2.57603e-05
0.000424265
-1.84243e-05
0.00042694
-1.06429e-05
0.000427579
-2.55381e-06
0.000426065
5.95789e-06
0.000422468
1.44534e-05
0.000416934
2.21499e-05
0.000409682
2.89538e-05
0.000400436
3.68981e-05
0.000389562
4.33887e-05
0.000377432
4.84058e-05
0.000363892
5.40241e-05
0.000349368
5.79458e-05
0.000334098
6.09266e-05
0.000318342
6.28713e-05
0.000302419
6.35565e-05
0.000286385
6.40234e-05
0.000270546
6.32735e-05
0.000255109
6.16898e-05
0.000240141
5.98256e-05
0.000225818
5.72557e-05
0.000212226
5.43524e-05
0.000199374
5.13972e-05
0.000187323
4.82115e-05
0.000176053
4.50905e-05
0.000165559
4.19972e-05
0.000155803
3.9049e-05
0.000146732
3.63092e-05
0.000138315
3.36916e-05
0.000130504
3.12723e-05
0.000123235
2.91005e-05
0.000116482
2.70323e-05
0.000110196
2.51653e-05
0.000104361
2.3358e-05
9.897e-05
2.15809e-05
9.39964e-05
1.99112e-05
8.94083e-05
1.83967e-05
8.51948e-05
1.68976e-05
8.1305e-05
1.55836e-05
7.77906e-05
1.40624e-05
7.46117e-05
1.26668e-05
7.17578e-05
1.13907e-05
6.90296e-05
1.09519e-05
6.61558e-05
1.15432e-05
6.3011e-05
1.25715e-05
5.97915e-05
1.27795e-05
5.64872e-05
1.33366e-05
5.26167e-05
1.61375e-05
4.84034e-05
1.72184e-05
4.41971e-05
1.7123e-05
4.0367e-05
1.55145e-05
3.74866e-05
1.16849e-05
3.52504e-05
9.11318e-06
3.39457e-05
5.39103e-06
3.3746e-05
1.10704e-06
3.51047e-05
-5.03071e-06
3.77395e-05
-1.02327e-05
4.16215e-05
-1.5364e-05
4.68101e-05
-2.07268e-05
5.32723e-05
-2.58891e-05
6.10154e-05
-3.10003e-05
6.99731e-05
-3.5842e-05
8.00526e-05
-4.03305e-05
9.11624e-05
-4.44406e-05
0.000103315
-4.85838e-05
0.000116372
-5.21846e-05
0.000130219
-5.53581e-05
0.000144733
-5.80386e-05
0.000159828
-6.04118e-05
0.000175454
-6.25136e-05
0.000191537
-6.44193e-05
0.000208038
-6.60528e-05
0.000224879
-6.73158e-05
0.000241944
-6.82034e-05
0.0002591
-6.85543e-05
0.00027619
-6.83008e-05
0.000293073
-6.74649e-05
0.00030957
-6.59012e-05
0.000325479
-6.35389e-05
0.000340603
-6.03982e-05
0.00035473
-5.64357e-05
0.000367675
-5.16815e-05
0.000379261
-4.62437e-05
0.000389291
-4.00316e-05
0.000397579
-3.31074e-05
0.000403993
-2.5562e-05
0.000408379
-1.75191e-05
0.000410645
-9.0569e-06
0.000410736
-5.02742e-07
0.000408666
8.06588e-06
0.000404473
1.67816e-05
0.000398269
2.48198e-05
0.000390172
3.23266e-05
0.000380336
3.92954e-05
0.000368932
4.55495e-05
0.000356136
5.10867e-05
0.000342151
5.58718e-05
0.000327157
5.98882e-05
0.000311338
6.31569e-05
0.000294901
6.56497e-05
0.000278014