/*--------------------------------*- C++ -*----------------------------------*\
| =========                 |                                                 |
| \\      /  F ield         | OpenFOAM: The Open Source CFD Toolbox           |
|  \\    /   O peration     | Version:  3.0.1                                 |
|   \\  /    A nd           | Web:      www.OpenFOAM.org                      |
|    \\/     M anipulation  |                                                 |
\*---------------------------------------------------------------------------*/
FoamFile
{
    version     2.0;
    format      ascii;
    class       surfaceScalarField;
    location    "87.2";
    object      phi;
}
// * * * * * * * * * * * * * * * * * * * * * * * * * * * * * * * * * * * * * //

dimensions      [0 3 -1 0 0 0 0];

internalField   nonuniform List<scalar> 
42423
(
0.000100997
-5.52623e-06
0.000106862
-5.86547e-06
0.000113227
-6.36446e-06
0.000120047
-6.82008e-06
0.00012756
-7.51393e-06
0.000135669
-8.10868e-06
0.000144603
-8.93436e-06
0.000154348
-9.74431e-06
0.000164709
-1.03615e-05
0.000176027
-1.13182e-05
0.00018827
-1.22427e-05
0.000201103
-1.28332e-05
0.000214834
-1.37314e-05
0.000229205
-1.43707e-05
0.000244254
-1.50486e-05
0.000259909
-1.56553e-05
0.000275691
-1.5782e-05
0.000291685
-1.59943e-05
0.000307773
-1.6088e-05
0.00032349
-1.57171e-05
0.000338817
-1.53274e-05
0.00035361
-1.47927e-05
0.000367522
-1.39123e-05
0.000380427
-1.2905e-05
0.000392078
-1.16506e-05
0.000402336
-1.0258e-05
0.00041103
-8.69414e-06
0.000417987
-6.95699e-06
0.000423125
-5.13847e-06
0.000426339
-3.2142e-06
0.000427529
-1.18994e-06
0.000426632
8.96933e-07
0.000423577
3.05501e-06
0.000418548
5.02874e-06
0.000411806
6.74268e-06
0.000403041
8.76412e-06
0.000392611
1.04306e-05
0.000380876
1.17346e-05
0.000367678
1.31982e-05
0.00035344
1.42373e-05
0.000338398
1.50425e-05
0.00032281
1.55878e-05
0.000306994
1.5816e-05
0.000291002
1.59922e-05
0.000275142
1.586e-05
0.000259635
1.55072e-05
0.000244555
1.50795e-05
0.000230087
1.44684e-05
0.000216319
1.37674e-05
0.000203269
1.30501e-05
0.000191001
1.22684e-05
0.000179503
1.14979e-05
0.000168772
1.07305e-05
0.000158777
9.99543e-06
0.000149468
9.30883e-06
0.000140818
8.64998e-06
0.000132778
8.04013e-06
0.000125289
7.48891e-06
0.000118327
6.96219e-06
0.000111841
6.48525e-06
0.000105819
6.02195e-06
0.000100252
5.56751e-06
9.51101e-05
5.14185e-06
9.0349e-05
4.76114e-06
8.59678e-05
4.3812e-06
8.19263e-05
4.04153e-06
7.82787e-05
3.64756e-06
7.50022e-05
3.27655e-06
7.20461e-05
2.95606e-06
6.91867e-05
2.85939e-06
6.61784e-05
3.00833e-06
6.29242e-05
3.25421e-06
5.96361e-05
3.28811e-06
5.61801e-05
3.45595e-06
5.19229e-05
4.25718e-06
4.74315e-05
4.49141e-06
4.2967e-05
4.46448e-06
3.89171e-05
4.04993e-06
3.58255e-05
3.09161e-06
3.33709e-05
2.45462e-06
3.18418e-05
1.52909e-06
3.13745e-05
4.67283e-07
3.23584e-05
-9.83871e-07
3.4687e-05
-2.32864e-06
3.83414e-05
-3.65442e-06
4.33628e-05
-5.0214e-06
4.96923e-05
-6.32955e-06
5.73009e-05
-7.60857e-06
6.61205e-05
-8.81969e-06
7.60736e-05
-9.95309e-06
8.70488e-05
-1.09752e-05
9.90562e-05
-1.20075e-05
0.000111964
-1.29079e-05
0.000125669
-1.37049e-05
0.000140059
-1.43902e-05
0.00015506
-1.50009e-05
0.000170592
-1.55325e-05
0.000186626
-1.60339e-05
0.000203082
-1.64555e-05
0.000219859
-1.67771e-05
0.00023688
-1.70211e-05
0.00025402
-1.714e-05
0.000271134
-1.71148e-05
0.000288081
-1.69464e-05
0.000304682
-1.66013e-05
0.000320732
-1.60505e-05
0.00033605
-1.53179e-05
0.00035042
-1.43701e-05
0.000363653
-1.32325e-05
0.000375556
-1.19039e-05
0.000385963
-1.04062e-05
0.000394672
-8.70928e-06
0.000401526
-6.85394e-06
0.000406391
-4.8653e-06
0.000409157
-2.76633e-06
0.000409787
-6.3015e-07
0.000408329
1.45808e-06
0.000404624
3.70472e-06
0.000398855
5.76889e-06
0.000391179
7.67606e-06
0.000381729
9.45013e-06
0.000370672
1.10572e-05
0.000358181
1.24907e-05
0.00034444
1.37403e-05
0.000329647
1.47936e-05
0.00031399
1.56566e-05
0.000297658
1.63316e-05
0.000280829
1.6829e-05
0.000263709
1.71207e-05
0.000246478
1.72304e-05
0.000229291
1.7187e-05
0.000212343
1.69482e-05
0.000195767
1.65758e-05
0.000179644
1.61231e-05
0.000164155
1.54889e-05
0.00014938
1.47752e-05
0.000135362
1.40179e-05
0.000122212
1.31502e-05
0.000109949
1.22627e-05
9.85933e-05
1.13555e-05
8.81686e-05
1.04247e-05
7.86143e-05
9.5543e-06
6.99149e-05
8.6994e-06
6.20814e-05
7.83343e-06
5.50879e-05
6.99347e-06
4.88891e-05
6.19883e-06
4.34705e-05
5.41858e-06
3.87864e-05
4.68404e-06
3.48269e-05
3.95953e-06
3.15457e-05
3.28117e-06
2.88931e-05
2.65261e-06
2.68375e-05
2.05563e-06
2.53788e-05
1.45864e-06
2.45096e-05
8.69257e-07
2.42193e-05
2.90219e-07
2.4503e-05
-2.83665e-07
2.53781e-05
-8.75096e-07
2.68634e-05
-1.48528e-06
2.89406e-05
-2.0772e-06
3.16468e-05
-2.70622e-06
3.49167e-05
-3.26992e-06
3.87978e-05
-3.88113e-06
4.32552e-05
-4.45738e-06
4.83017e-05
-5.04646e-06
5.39121e-05
-5.61045e-06
6.00648e-05
-6.15263e-06
6.67436e-05
-6.67884e-06
7.39083e-05
-7.16472e-06
8.15252e-05
-7.61686e-06
8.95915e-05
-8.06633e-06
9.80977e-05
-8.50621e-06
0.000107026
-8.92804e-06
0.000116412
-9.38664e-06
0.000126224
-9.81198e-06
0.00013654
-1.03159e-05
0.000147337
-1.07965e-05
0.000158653
-1.13161e-05
0.000170447
-1.17945e-05
0.000182759
-1.23118e-05
0.00019561
-1.2851e-05
0.00020895
-1.33395e-05
0.000222822
-1.38725e-05
0.000237108
-1.42856e-05
0.000251869
-1.47613e-05
0.000267004
-1.51354e-05
0.00028245
-1.54458e-05
0.000298088
-1.56383e-05
0.000313735
-1.56463e-05
0.000329266
-1.55317e-05
0.000344495
-1.5229e-05
0.000359169
-1.46743e-05
0.000373135
-1.39655e-05
0.000386096
-1.29611e-05
0.000397875
-1.17789e-05
0.000408221
-1.0346e-05
0.000416885
-8.66419e-06
0.000423699
-6.81454e-06
0.000428443
-4.7431e-06
0.000430994
-2.55152e-06
0.000431303
-3.09047e-07
0.000429274
2.02874e-06
0.00042483
4.44393e-06
0.000418097
6.73331e-06
0.000409213
8.88412e-06
0.000398241
1.09721e-05
0.000385404
1.28365e-05
0.000370968
1.44355e-05
0.000355157
1.58118e-05
0.000338282
1.68748e-05
0.000320677
1.76046e-05
0.000302616
1.80613e-05
0.000284404
1.82116e-05
0.000266403
1.80011e-05
0.000248799
1.76038e-05
0.000231762
1.70373e-05
0.000215524
1.6238e-05
0.00020015
1.53738e-05
0.000185868
1.42823e-05
0.000172733
1.31348e-05
0.00016073
1.2003e-05
0.000149944
1.07855e-05
0.000140327
9.61772e-06
0.000131917
8.40923e-06
0.000124585
7.33229e-06
0.000118297
6.28814e-06
0.000113071
5.22575e-06
0.000108803
4.26804e-06
0.000105452
3.35134e-06
0.000102902
2.5497e-06
0.000101127
1.77464e-06
0.000100018
1.1094e-06
9.953e-05
4.88058e-07
9.96146e-05
-8.46016e-08
0.000100114
-4.99025e-07
0.000100988
-8.74536e-07
0.000102128
-1.13991e-06
0.000103386
-1.2576e-06
0.000104738
-1.35241e-06
0.000106082
-1.34393e-06
0.000107353
-1.27114e-06
0.000108576
-1.22281e-06
0.000109751
-1.1755e-06
0.000110854
-1.10302e-06
0.000111929
-1.07436e-06
0.00011312
-1.19148e-06
0.000114379
-1.25919e-06
0.000115772
-1.39279e-06
0.000117418
-1.64618e-06
0.000119268
-1.84968e-06
0.000121379
-2.11112e-06
0.000123764
-2.38479e-06
0.000126453
-2.68857e-06
0.000129471
-3.01818e-06
0.000132882
-3.41163e-06
0.000136753
-3.87044e-06
0.000141124
-4.37085e-06
0.000146074
-4.95027e-06
0.000151785
-5.7108e-06
0.000158196
-6.41158e-06
0.000165487
-7.29092e-06
0.000173711
-8.22436e-06
0.000182904
-9.19211e-06
0.000193143
-1.02393e-05
0.000204348
-1.12048e-05
0.00021648
-1.21324e-05
0.000229585
-1.31052e-05
0.00024343
-1.38451e-05
0.000257817
-1.4387e-05
0.000272721
-1.49043e-05
0.000287645
-1.49234e-05
0.000302366
-1.47213e-05
0.000316945
-1.4579e-05
0.000331251
-1.43066e-05
0.000345131
-1.38794e-05
0.000358357
-1.32268e-05
0.000370821
-1.24642e-05
0.000382415
-1.15939e-05
0.000393022
-1.06071e-05
0.000402557
-9.53529e-06
0.0004108
-8.2422e-06
0.00041746
-6.66009e-06
0.000422449
-4.98989e-06
0.000425434
-2.98488e-06
0.000425496
-6.20426e-08
0.000422683
2.81305e-06
0.000417497
5.18579e-06
0.000410435
7.06236e-06
0.000401458
8.97681e-06
0.000390285
1.11728e-05
0.000377226
1.30588e-05
0.000362478
1.47483e-05
0.000346241
1.6237e-05
0.000329095
1.71465e-05
0.000311345
1.77495e-05
0.000293276
1.80688e-05
0.000275389
1.78869e-05
0.000257876
1.75133e-05
0.000240945
1.69312e-05
0.000224821
1.61241e-05
0.000209543
1.52776e-05
0.000195241
1.43021e-05
0.000181888
1.3353e-05
0.00016947
1.24177e-05
0.000158016
1.14547e-05
0.00014747
1.05455e-05
0.000137799
9.67091e-06
0.000128993
8.80633e-06
0.000121
7.99252e-06
0.000113799
7.20167e-06
0.00010734
6.45845e-06
0.000101585
5.75504e-06
9.64961e-05
5.08911e-06
9.20217e-05
4.47438e-06
8.81124e-05
3.90935e-06
8.47182e-05
3.39413e-06
8.17858e-05
2.9325e-06
7.92656e-05
2.52011e-06
7.7111e-05
2.15466e-06
7.52802e-05
1.83081e-06
7.37427e-05
1.53744e-06
7.24788e-05
1.26397e-06
7.14747e-05
1.00412e-06
7.07377e-05
7.36935e-07
7.02827e-05
4.54979e-07
7.01519e-05
1.30836e-07
7.04307e-05
-2.78797e-07
7.11257e-05
-6.95011e-07
7.23471e-05
-1.22139e-06
7.41832e-05
-1.8361e-06
7.66009e-05
-2.41772e-06
7.97663e-05
-3.16543e-06
8.37882e-05
-4.02193e-06
8.85312e-05
-4.74294e-06
9.42233e-05
-5.69217e-06
0.00010077
-6.54623e-06
0.000108385
-7.6153e-06
0.000117086
-8.70163e-06
0.000126534
-9.44789e-06
0.00013705
-1.05163e-05
0.000148655
-1.1605e-05
0.000160901
-1.22456e-05
0.000174095
-1.3194e-05
0.000188003
-1.39076e-05
0.000202744
-1.47415e-05
0.000218243
-1.54994e-05
0.000234055
-1.58117e-05
0.000250392
-1.6337e-05
0.000267227
-1.68351e-05
0.000284084
-1.68575e-05
0.000301039
-1.69553e-05
0.000317796
-1.67564e-05
0.00033426
-1.64641e-05
0.000350202
-1.59421e-05
0.000365285
-1.50833e-05
0.000379428
-1.41436e-05
0.000392383
-1.29553e-05
-1.2007e-05
0.000100977
-1.10495e-05
0.000106839
-1.17276e-05
0.000113201
-1.27265e-05
0.000120018
-1.36368e-05
0.00012753
-1.50259e-05
0.00013564
-1.62195e-05
0.000144583
-1.78775e-05
0.000154331
-1.94925e-05
0.000164696
-2.0726e-05
0.000176016
-2.26381e-05
0.000188265
-2.44924e-05
0.000201092
-2.56601e-05
0.000214813
-2.74525e-05
0.000229195
-2.87531e-05
0.000244268
-3.01215e-05
0.000259939
-3.13266e-05
0.000275717
-3.15597e-05
0.00029171
-3.19881e-05
0.000307803
-3.21811e-05
0.000323526
-3.14404e-05
0.000338861
-3.0662e-05
0.000353667
-2.95992e-05
0.000367584
-2.78297e-05
0.000380488
-2.58089e-05
0.000392148
-2.33104e-05
0.000402417
-2.05271e-05
0.000411114
-1.73914e-05
0.000418071
-1.39143e-05
0.000423216
-1.02833e-05
0.000426432
-6.43014e-06
0.00042763
-2.38865e-06
0.000426718
1.80898e-06
0.000423663
6.10962e-06
0.00041864
1.00519e-05
0.000411895
1.34876e-05
0.000403125
1.75342e-05
0.000392687
2.0869e-05
0.000380943
2.34776e-05
0.000367735
2.64064e-05
0.000353487
2.84854e-05
0.000338432
3.0097e-05
0.000322831
3.11893e-05
0.000307005
3.16422e-05
0.000291003
3.19941e-05
0.000275138
3.1725e-05
0.000259629
3.1016e-05
0.000244546
3.01618e-05
0.000230075
2.894e-05
0.000216305
2.75368e-05
0.000203255
2.61007e-05
0.000190986
2.45369e-05
0.000179488
2.29961e-05
0.000168758
2.14602e-05
0.000158764
1.99894e-05
0.000149456
1.86177e-05
0.000140805
1.73006e-05
0.000132766
1.6079e-05
0.000125278
1.49765e-05
0.000118317
1.39235e-05
0.000111832
1.29702e-05
0.000105809
1.20452e-05
0.000100241
1.11359e-05
9.50982e-05
1.02843e-05
9.03378e-05
9.5215e-06
8.59599e-05
8.75913e-06
8.19186e-05
8.08279e-06
7.82668e-05
7.2994e-06
7.49818e-05
6.56159e-06
7.20203e-05
5.91752e-06
6.91646e-05
5.71505e-06
6.61567e-05
6.01623e-06
6.28973e-05
6.51369e-06
5.96051e-05
6.58029e-06
5.616e-05
6.90103e-06
5.19463e-05
8.47082e-06
4.74836e-05
8.95411e-06
4.30415e-05
8.90663e-06
3.90104e-05
8.08105e-06
3.59383e-05
6.16368e-06
3.3504e-05
4.88893e-06
3.19856e-05
3.04742e-06
3.15302e-05
9.22653e-07
3.2551e-05
-2.00464e-06
3.49112e-05
-4.68888e-06
3.85752e-05
-7.31847e-06
4.36032e-05
-1.00494e-05
4.99339e-05
-1.26603e-05
5.75466e-05
-1.52214e-05
6.63706e-05
-1.76437e-05
7.6315e-05
-1.98975e-05
8.72939e-05
-2.19542e-05
9.93076e-05
-2.40212e-05
0.000112225
-2.5825e-05
0.000125941
-2.74215e-05
0.000140329
-2.87782e-05
0.000155323
-2.99953e-05
0.000170857
-3.10666e-05
0.000186886
-3.20634e-05
0.000203338
-3.29071e-05
0.000220119
-3.35579e-05
0.000237146
-3.40489e-05
0.000254296
-3.42904e-05
0.000271419
-3.42375e-05
0.000288374
-3.3902e-05
0.000304986
-3.32127e-05
0.000321036
-3.21015e-05
0.000336363
-3.06451e-05
0.000350741
-2.87484e-05
0.000363978
-2.64693e-05
0.000375904
-2.38297e-05
0.000386308
-2.0811e-05
0.000395022
-1.74229e-05
0.000401882
-1.37146e-05
0.000406756
-9.7395e-06
0.000409521
-5.53098e-06
0.000410153
-1.2623e-06
0.000408669
2.94146e-06
0.000404957
7.41668e-06
0.000399193
1.15335e-05
0.000391521
1.53478e-05
0.000382058
1.89128e-05
0.000370992
2.21231e-05
0.000358496
2.49864e-05
0.000344748
2.7488e-05
0.000329942
2.95998e-05
0.000314275
3.1323e-05
0.000297939
3.26683e-05
0.0002811
3.36674e-05
0.000263965
3.42554e-05
0.000246731
3.44647e-05
0.000229541
3.43769e-05
0.000212582
3.39074e-05
0.000195993
3.31646e-05
0.000179866
3.22503e-05
0.000164374
3.09805e-05
0.000149596
2.95534e-05
0.00013557
2.80436e-05
0.000122416
2.63039e-05
0.000110161
2.45185e-05
9.88022e-05
2.27138e-05
8.83806e-05
2.08462e-05
7.88266e-05
1.91083e-05
7.01281e-05
1.73979e-05
6.22881e-05
1.56733e-05
5.52926e-05
1.3989e-05
4.90931e-05
1.23983e-05
4.3678e-05
1.08337e-05
3.90122e-05
9.3498e-06
3.5056e-05
7.91569e-06
3.17675e-05
6.56968e-06
2.91179e-05
5.30221e-06
2.70627e-05
4.11078e-06
2.56045e-05
2.91687e-06
2.47333e-05
1.74045e-06
2.44433e-05
5.8021e-07
2.47251e-05
-5.65548e-07
2.56029e-05
-1.75281e-06
2.7091e-05
-2.9734e-06
2.9169e-05
-4.15521e-06
3.1873e-05
-5.41023e-06
3.5146e-05
-6.54292e-06
3.90331e-05
-7.7682e-06
4.34856e-05
-8.90987e-06
4.8522e-05
-1.00829e-05
5.41343e-05
-1.12227e-05
6.0292e-05
-1.23103e-05
6.69689e-05
-1.33557e-05
7.41248e-05
-1.43206e-05
8.17367e-05
-1.52288e-05
8.97956e-05
-1.61252e-05
9.82938e-05
-1.70044e-05
0.000107214
-1.78478e-05
0.000116577
-1.87502e-05
0.000126375
-1.961e-05
0.000136679
-2.06193e-05
0.00014746
-2.15774e-05
0.000158763
-2.26197e-05
0.000170541
-2.35723e-05
0.000182844
-2.46144e-05
0.000195674
-2.56816e-05
0.000208996
-2.66612e-05
0.000222846
-2.77233e-05
0.000237121
-2.85606e-05
0.000251874
-2.95142e-05
0.000266995
-3.0256e-05
0.000282425
-3.08763e-05
0.000298054
-3.12669e-05
0.000313694
-3.12872e-05
0.000329227
-3.10646e-05
0.000344445
-3.04468e-05
0.000359115
-2.93448e-05
0.000373069
-2.79195e-05
0.000386028
-2.59201e-05
0.000397805
-2.35561e-05
0.000408146
-2.06866e-05
0.000416817
-1.7336e-05
0.000423639
-1.36366e-05
0.000428376
-9.47976e-06
0.000430927
-5.10242e-06
0.000431227
-6.09496e-07
0.00042919
4.06631e-06
0.000424755
8.87886e-06
0.000418007
1.34806e-05
0.000409099
1.77925e-05
0.00039813
2.19404e-05
0.000385299
2.56683e-05
0.000370845
2.8889e-05
0.000355022
3.16345e-05
0.000338134
3.37626e-05
0.000320518
3.52208e-05
0.000302466
3.61135e-05
0.000284262
3.6415e-05
0.00026624
3.60233e-05
0.000248609
3.52351e-05
0.000231574
3.40723e-05
0.000215343
3.24686e-05
0.000199977
3.07404e-05
0.000185686
2.85725e-05
0.000172545
2.62763e-05
0.000160547
2.40004e-05
0.000149767
2.15656e-05
0.000140146
1.92394e-05
0.000131725
1.68301e-05
0.000124398
1.46587e-05
0.000118116
1.25706e-05
0.000112887
1.04544e-05
0.000108625
8.53063e-06
0.00010528
6.69568e-06
0.000102729
5.10126e-06
0.000100945
3.55833e-06
9.98443e-05
2.21007e-06
9.93669e-05
9.65483e-07
9.94513e-05
-1.69035e-07
9.99606e-05
-1.00835e-06
0.000100829
-1.74271e-06
0.00010196
-2.271e-06
0.00010323
-2.52767e-06
0.000104586
-2.70827e-06
0.000105929
-2.68699e-06
0.000107208
-2.54991e-06
0.000108422
-2.43701e-06
0.000109581
-2.33432e-06
0.000110693
-2.21501e-06
0.000111767
-2.14822e-06
0.00011294
-2.36526e-06
0.000114206
-2.52503e-06
0.000115611
-2.79775e-06
0.000117248
-3.28265e-06
0.000119086
-3.68831e-06
0.000121204
-4.22891e-06
0.000123593
-4.77348e-06
0.000126282
-5.37812e-06
0.000129313
-6.0486e-06
0.000132724
-6.82276e-06
0.000136585
-7.7322e-06
0.00014095
-8.73518e-06
0.000145901
-9.90162e-06
0.000151604
-1.14136e-05
0.000158021
-1.28289e-05
0.000165324
-1.45939e-05
0.000173558
-1.64588e-05
0.000182759
-1.83927e-05
0.000193
-2.04802e-05
0.000204214
-2.24189e-05
0.000216359
-2.42777e-05
0.000229468
-2.62142e-05
0.000243317
-2.76947e-05
0.000257702
-2.87723e-05
0.000272583
-2.97849e-05
0.000287518
-2.98584e-05
0.000302269
-2.94729e-05
0.00031687
-2.91802e-05
0.000331159
-2.85954e-05
0.000345025
-2.77456e-05
0.000358293
-2.64952e-05
0.000370791
-2.49624e-05
0.000382399
-2.32012e-05
0.000393001
-2.12094e-05
0.000402474
-1.90086e-05
0.000410617
-1.63859e-05
0.000417209
-1.32518e-05
0.000422047
-9.82824e-06
0.000424913
-5.85045e-06
0.000425096
-2.45054e-07
0.000422441
5.46767e-06
0.000417408
1.02188e-05
0.00041044
1.40305e-05
0.000401469
1.7947e-05
0.00039029
2.23515e-05
0.000377224
2.61253e-05
0.000362468
2.95044e-05
0.000346223
3.24815e-05
0.00032907
3.42999e-05
0.000311314
3.55051e-05
0.00029324
3.61425e-05
0.000275349
3.57777e-05
0.000257834
3.50287e-05
0.000240902
3.38636e-05
0.000224777
3.22489e-05
0.0002095
3.05548e-05
0.000195199
2.86032e-05
0.000181847
2.67048e-05
0.00016943
2.4834e-05
0.000157977
2.2908e-05
0.000147433
2.10896e-05
0.000137763
1.93405e-05
0.000128958
1.76115e-05
0.000120967
1.5984e-05
0.000113766
1.44021e-05
0.000107309
1.29155e-05
0.000101556
1.1509e-05
9.64675e-05
1.01771e-05
9.19948e-05
8.94709e-06
8.80872e-05
7.81698e-06
8.46946e-05
6.78675e-06
8.17632e-05
5.86385e-06
7.92424e-05
5.04091e-06
7.7085e-05
4.31205e-06
7.52521e-05
3.66371e-06
7.37121e-05
3.07751e-06
7.24449e-05
2.5311e-06
7.14408e-05
2.00825e-06
7.07034e-05
1.4743e-06
7.02498e-05
9.08593e-07
7.0114e-05
2.66676e-07
7.03857e-05
-5.50585e-07
7.10806e-05
-1.38992e-06
7.22994e-05
-2.44017e-06
7.41289e-05
-3.66565e-06
7.65452e-05
-4.83403e-06
7.97055e-05
-6.32571e-06
8.37248e-05
-8.04129e-06
8.84682e-05
-9.48639e-06
9.41536e-05
-1.13776e-05
0.000100704
-1.30965e-05
0.000108319
-1.52303e-05
0.000117018
-1.74009e-05
0.000126466
-1.88965e-05
0.00013698
-2.10302e-05
0.000148587
-2.32116e-05
0.000160835
-2.44941e-05
0.000174031
-2.63899e-05
0.00018794
-2.78163e-05
0.00020268
-2.94822e-05
0.000218175
-3.09939e-05
0.000233995
-3.1632e-05
0.000250348
-3.26908e-05
0.000267193
-3.36796e-05
0.000284056
-3.37213e-05
0.000301019
-3.39186e-05
0.000317785
-3.35227e-05
0.00033426
-3.29392e-05
0.000350213
-3.18949e-05
0.000365306
-3.0177e-05
0.000379461
-2.82992e-05
0.000392445
-2.59397e-05
-2.40118e-05
0.000100941
-1.65701e-05
0.000106801
-1.7588e-05
0.000113165
-1.90901e-05
0.000119984
-2.04559e-05
0.000127499
-2.25415e-05
0.000135612
-2.43317e-05
0.000144557
-2.68225e-05
0.000154318
-2.92538e-05
0.000164689
-3.10969e-05
0.000176012
-3.39616e-05
0.000188266
-3.67469e-05
0.000201101
-3.84948e-05
0.000214827
-4.11786e-05
0.000229203
-4.31288e-05
0.000244274
-4.51927e-05
0.000259957
-4.70098e-05
0.000275747
-4.73504e-05
0.000291756
-4.79972e-05
0.000307867
-4.82918e-05
0.000323598
-4.71713e-05
0.000338942
-4.60067e-05
0.000353757
-4.44141e-05
0.000367675
-4.17483e-05
0.000380597
-3.87309e-05
0.000392262
-3.49751e-05
0.000402533
-3.07983e-05
0.000411243
-2.61017e-05
0.0004182
-2.08716e-05
0.000423353
-1.54365e-05
0.000426576
-9.6526e-06
0.000427781
-3.5939e-06
0.000426854
2.7359e-06
0.000423801
9.16213e-06
0.000418786
1.50667e-05
0.000412035
2.02384e-05
0.000403254
2.63156e-05
0.000392801
3.13219e-05
0.000381041
3.52369e-05
0.000367814
3.96335e-05
0.000353544
4.27553e-05
0.000338468
4.51732e-05
0.000322846
4.68117e-05
0.000307
4.7488e-05
0.000290983
4.80109e-05
0.000275107
4.76014e-05
0.000259587
4.65356e-05
0.000244496
4.52528e-05
0.000230019
4.34169e-05
0.000216246
4.13094e-05
0.000203194
3.91532e-05
0.000190926
3.68051e-05
0.000179429
3.44924e-05
0.000168702
3.21875e-05
0.000158711
2.99808e-05
0.000149405
2.79229e-05
0.000140759
2.59472e-05
0.000132724
2.41143e-05
0.000125239
2.2461e-05
0.000118281
2.08815e-05
0.0001118
1.94509e-05
0.00010578
1.80651e-05
0.000100213
1.67027e-05
9.50738e-05
1.54239e-05
9.03199e-05
1.42754e-05
8.59473e-05
1.31317e-05
8.19114e-05
1.21187e-05
7.82612e-05
1.09495e-05
7.49704e-05
9.85243e-06
7.20066e-05
8.88131e-06
6.91552e-05
8.5665e-06
6.61565e-05
9.01488e-06
6.28965e-05
9.77366e-06
5.95871e-05
9.88977e-06
5.61631e-05
1.0325e-05
5.20414e-05
1.25925e-05
4.76266e-05
1.33689e-05
4.32318e-05
1.33015e-05
3.92339e-05
1.20789e-05
3.61864e-05
9.21118e-06
3.37781e-05
7.2972e-06
3.22835e-05
4.54208e-06
3.18575e-05
1.34857e-06
3.29369e-05
-3.08402e-06
3.53427e-05
-7.09472e-06
3.90338e-05
-1.10095e-05
4.40658e-05
-1.50815e-05
5.03897e-05
-1.89841e-05
5.79947e-05
-2.28264e-05
6.68166e-05
-2.64657e-05
7.67619e-05
-2.98428e-05
8.7737e-05
-3.29293e-05
9.97538e-05
-3.60381e-05
0.000112673
-3.87445e-05
0.000126393
-4.1141e-05
0.000140787
-4.31728e-05
0.00015578
-4.49882e-05
0.000171305
-4.65914e-05
0.000187324
-4.80824e-05
0.00020377
-4.9353e-05
0.000220555
-5.03436e-05
0.000237597
-5.10905e-05
0.000254756
-5.14499e-05
0.000271891
-5.13726e-05
0.000288854
-5.08654e-05
0.000305462
-4.98208e-05
0.000321545
-4.81844e-05
0.00033687
-4.59705e-05
0.00035127
-4.31483e-05
0.000364514
-3.97138e-05
0.000376452
-3.57677e-05
0.000386874
-3.12335e-05
0.00039561
-2.61591e-05
0.000402471
-2.0575e-05
0.000407351
-1.46204e-05
0.000410124
-8.30375e-06
0.000410746
-1.8841e-06
0.000409221
4.4662e-06
0.000405503
1.11341e-05
0.000399736
1.73008e-05
0.000392065
2.30187e-05
0.000382599
2.83785e-05
0.000371515
3.32065e-05
0.000359002
3.75001e-05
0.00034524
4.12494e-05
0.00033043
4.44094e-05
0.00031475
4.7003e-05
0.000298395
4.90232e-05
0.000281549
5.0514e-05
0.000264405
5.13988e-05
0.000247155
5.17154e-05
0.000229947
5.15843e-05
0.000212979
5.08753e-05
0.000196384
4.97595e-05
0.000180247
4.83871e-05
0.000164754
4.64735e-05
0.000149961
4.43469e-05
0.000135923
4.20813e-05
0.000122776
3.94507e-05
0.000110542
3.67525e-05
9.91955e-05
3.40606e-05
8.87642e-05
3.12776e-05
7.92151e-05
2.86574e-05
7.05006e-05
2.61123e-05
6.26698e-05
2.35041e-05
5.56781e-05
2.09806e-05
4.9481e-05
1.85954e-05
4.40705e-05
1.62441e-05
3.94057e-05
1.40146e-05
3.54513e-05
1.187e-05
3.21623e-05
9.85871e-06
2.9517e-05
7.94742e-06
2.74728e-05
6.15502e-06
2.60171e-05
4.37256e-06
2.51396e-05
2.61791e-06
2.48507e-05
8.69146e-07
2.51276e-05
-8.42529e-07
2.60069e-05
-2.63207e-06
2.74938e-05
-4.4603e-06
2.95681e-05
-6.22956e-06
3.22736e-05
-8.11571e-06
3.55455e-05
-9.8148e-06
3.94331e-05
-1.16558e-05
4.38876e-05
-1.33643e-05
4.89278e-05
-1.51231e-05
5.45352e-05
-1.68301e-05
6.06848e-05
-1.84599e-05
6.73521e-05
-2.00231e-05
7.44976e-05
-2.14661e-05
8.20903e-05
-2.28215e-05
9.01358e-05
-2.41707e-05
9.86226e-05
-2.54911e-05
0.000107524
-2.67496e-05
0.000116867
-2.8093e-05
0.000126636
-2.9379e-05
0.000136915
-3.08979e-05
0.000147662
-3.23247e-05
0.000158937
-3.38951e-05
0.000170685
-3.53204e-05
0.000182965
-3.68941e-05
0.000195765
-3.84812e-05
0.000209047
-3.99434e-05
0.000222871
-4.15475e-05
0.000237112
-4.28012e-05
0.000251839
-4.42418e-05
0.000266938
-4.53551e-05
0.00028235
-4.62885e-05
0.000297961
-4.68773e-05
0.000313583
-4.69093e-05
0.0003291
-4.65817e-05
0.000344299
-4.56461e-05
0.000358954
-4.39997e-05
0.000372897
-4.18621e-05
0.000385845
-3.88688e-05
0.000397625
-3.53363e-05
0.000407961
-3.10227e-05
0.000416623
-2.59982e-05
0.000423446
-2.04591e-05
0.000428189
-1.42232e-05
0.000430748
-7.66154e-06
0.000431025
-8.86777e-07
0.000428955
6.13705e-06
0.000424527
1.33065e-05
0.00041779
2.02171e-05
0.00040888
2.67025e-05
0.000397896
3.29249e-05
0.000385053
3.85114e-05
0.000370582
4.336e-05
0.000354735
4.74813e-05
0.000337828
5.06692e-05
0.000320199
5.28498e-05
0.000302134
5.41788e-05
0.00028392
5.46281e-05
0.000265904
5.40398e-05
0.000248262
5.28768e-05
0.000231207
5.11272e-05
0.000214972
4.87043e-05
0.000199613
4.6099e-05
0.000185328
4.28572e-05
0.000172179
3.94259e-05
0.000160171
3.60076e-05
0.000149389
3.23481e-05
0.000139779
2.88496e-05
0.00013136
2.52487e-05
0.000124023
2.1996e-05
0.00011775
1.8843e-05
0.000112537
1.56677e-05
0.000108279
1.27887e-05
0.000104938
1.00363e-05
0.000102399
7.64073e-06
0.000100622
5.33493e-06
9.9515e-05
3.31719e-06
9.9045e-05
1.43548e-06
9.91444e-05
-2.68373e-07
9.96608e-05
-1.52482e-06
0.000100539
-2.62062e-06
0.000101673
-3.40525e-06
0.000102948
-3.8026e-06
0.00010431
-4.07023e-06
0.00010565
-4.0276e-06
0.000106932
-3.83098e-06
0.00010815
-3.65508e-06
0.000109306
-3.49068e-06
0.000110405
-3.3138e-06
0.000111481
-3.22418e-06
0.000112658
-3.54226e-06
0.000113905
-3.77265e-06
0.000115315
-4.20749e-06
0.000116967
-4.93501e-06
0.000118799
-5.52028e-06
0.00012091
-6.33979e-06
0.000123296
-7.15948e-06
0.000125983
-8.06495e-06
0.000129009
-9.075e-06
0.000132414
-1.02271e-05
0.000136274
-1.15929e-05
0.000140636
-1.30969e-05
0.000145585
-1.48503e-05
0.000151284
-1.71133e-05
0.000157702
-1.9247e-05
0.000165007
-2.18983e-05
0.00017325
-2.47017e-05
0.000182455
-2.75985e-05
0.000192686
-3.07112e-05
0.000203911
-3.36433e-05
0.00021608
-3.64468e-05
0.000229212
-3.93465e-05
0.000243074
-4.15566e-05
0.00025746
-4.31583e-05
0.000272289
-4.46143e-05
0.000287217
-4.4787e-05
0.000302007
-4.42632e-05
0.000316635
-4.38078e-05
0.00033095
-4.29102e-05
0.000344851
-4.16467e-05
0.000358138
-3.97827e-05
0.000370622
-3.7446e-05
0.000382223
-3.48024e-05
0.000392822
-3.18089e-05
0.000402269
-2.84557e-05
0.000410375
-2.44923e-05
0.000416821
-1.96976e-05
0.000421377
-1.4384e-05
0.000423783
-8.25628e-06
0.000423788
-2.5022e-07
0.000421705
7.55048e-06
0.000417301
1.4622e-05
0.000410481
2.08504e-05
0.000401514
2.69146e-05
0.00039032
3.35452e-05
0.000377235
3.92102e-05
0.00036246
4.42794e-05
0.000346197
4.87446e-05
0.000329027
5.14701e-05
0.000311256
5.32755e-05
0.000293171
5.42279e-05
0.000275271
5.36773e-05
0.000257745
5.25551e-05
0.000240816
5.07923e-05
0.00022469
4.83752e-05
0.000209413
4.58317e-05
0.000195113
4.29025e-05
0.000181764
4.00537e-05
0.000169352
3.72469e-05
0.000157902
3.4358e-05
0.000147361
3.16305e-05
0.000137694
2.90071e-05
0.000128892
2.64136e-05
0.000120904
2.39725e-05
0.000113706
2.15997e-05
0.000107252
1.93694e-05
0.000101502
1.72593e-05
9.64173e-05
1.52616e-05
9.19477e-05
1.34166e-05
8.80435e-05
1.17213e-05
8.4654e-05
1.01762e-05
8.1725e-05
8.7928e-06
7.92069e-05
7.55909e-06
7.70519e-05
6.46703e-06
7.522e-05
5.49558e-06
7.36792e-05
4.61831e-06
7.24081e-05
3.80221e-06
7.13992e-05
3.01721e-06
7.06583e-05
2.2152e-06
7.02009e-05
1.36597e-06
7.00633e-05
4.04253e-07
7.03348e-05
-8.22129e-07
7.10268e-05
-2.08188e-06
7.22415e-05
-3.65486e-06
7.40678e-05
-5.49205e-06
7.6478e-05
-7.2442e-06
7.96372e-05
-9.48496e-06
8.36502e-05
-1.20543e-05
8.83884e-05
-1.42247e-05
9.40759e-05
-1.70651e-05
0.000100623
-1.96431e-05
0.000108236
-2.28435e-05
0.000116935
-2.61002e-05
0.000126384
-2.83461e-05
0.000136901
-3.15468e-05
0.000148506
-3.48167e-05
0.000160752
-3.674e-05
0.000173949
-3.95877e-05
0.00018786
-4.17269e-05
0.000202606
-4.42289e-05
0.000218108
-4.64957e-05
0.00023393
-4.74544e-05
0.000250284
-4.90449e-05
0.000267127
-5.05226e-05
0.000283989
-5.05837e-05
0.000300953
-5.08821e-05
0.000317724
-5.02945e-05
0.000334212
-4.94272e-05
0.000350184
-4.78673e-05
0.000365299
-4.52923e-05
0.000379483
-4.24838e-05
0.000392524
-3.89802e-05
-3.6058e-05
0.000100887
-2.20868e-05
0.000106745
-2.34454e-05
0.000113107
-2.54529e-05
0.000119928
-2.72765e-05
0.00012745
-3.0064e-05
0.000135572
-3.2454e-05
0.000144529
-3.57788e-05
0.000154299
-3.90245e-05
0.000164686
-4.14834e-05
0.000176015
-4.52906e-05
0.000188279
-4.9011e-05
0.000201117
-5.13336e-05
0.000214846
-5.49076e-05
0.000229235
-5.75179e-05
0.000244316
-6.02739e-05
0.000260011
-6.27048e-05
0.000275809
-6.31484e-05
0.00029183
-6.40186e-05
0.000307957
-6.44184e-05
0.0003237
-6.2915e-05
0.000339061
-6.13673e-05
0.000353889
-5.92424e-05
0.000367818
-5.56774e-05
0.000380755
-5.16681e-05
0.000392426
-4.66462e-05
0.000402712
-4.10839e-05
0.000411433
-3.48233e-05
0.000418395
-2.78337e-05
0.000423556
-2.05982e-05
0.00042679
-1.28859e-05
0.000427997
-4.80145e-06
0.000427058
3.67515e-06
0.000424013
1.22071e-05
0.000419005
2.00739e-05
0.000412245
2.69989e-05
0.000403446
3.51143e-05
0.000392971
4.17965e-05
0.000381187
4.70209e-05
0.000367932
5.28892e-05
0.00035363
5.70564e-05
0.000338521
6.02821e-05
0.000322865
6.24678e-05
0.00030699
6.33627e-05
0.000290948
6.40532e-05
0.000275053
6.34967e-05
0.000259521
6.20676e-05
0.000244419
6.0354e-05
0.000229934
5.79016e-05
0.000216157
5.50864e-05
0.000203103
5.22078e-05
0.000190835
4.90727e-05
0.000179341
4.59861e-05
0.000168618
4.29107e-05
0.000158632
3.9967e-05
0.000149332
3.72226e-05
0.000140691
3.45882e-05
0.000132662
3.21439e-05
0.000125183
2.99401e-05
0.000118229
2.78345e-05
0.000111753
2.59276e-05
0.000105737
2.40804e-05
0.000100175
2.22651e-05
9.50396e-05
2.05595e-05
9.02962e-05
1.90188e-05
8.59337e-05
1.74942e-05
8.19025e-05
1.61499e-05
7.8254e-05
1.4598e-05
7.49527e-05
1.31538e-05
7.19845e-05
1.18495e-05
6.91429e-05
1.14081e-05
6.61553e-05
1.20026e-05
6.28965e-05
1.30325e-05
5.95679e-05
1.32183e-05
5.61589e-05
1.3734e-05
5.2187e-05
1.65644e-05
4.78533e-05
1.77026e-05
4.35194e-05
1.76354e-05
3.95585e-05
1.60398e-05
3.65431e-05
1.22266e-05
3.41679e-05
9.67237e-06
3.2717e-05
5.9929e-06
3.23531e-05
1.7125e-06
3.35226e-05
-4.25356e-06
3.59905e-05
-9.56257e-06
3.97141e-05
-1.47332e-05
4.47501e-05
-2.01175e-05
5.10642e-05
-2.52983e-05
5.86634e-05
-3.04257e-05
6.74813e-05
-3.52836e-05
7.74245e-05
-3.97861e-05
8.84001e-05
-4.39049e-05
0.000100421
-4.80591e-05
0.00011335
-5.16734e-05
0.000127074
-5.4865e-05
0.00014147
-5.75696e-05
0.000156456
-5.99739e-05
0.000171983
-6.21182e-05
0.00018798
-6.40804e-05
0.000204414
-6.57866e-05
0.000221211
-6.71405e-05
0.000238259
-6.81393e-05
0.000255431
-6.86217e-05
0.000272574
-6.85156e-05
0.000289551
-6.78424e-05
0.000306185
-6.64554e-05
0.000322279
-6.42784e-05
0.000337636
-6.13274e-05
0.000352042
-5.75547e-05
0.000365313
-5.29852e-05
0.000377269
-4.77238e-05
0.00038771
-4.16749e-05
0.000396446
-3.48946e-05
0.000403336
-2.74653e-05
0.00040822
-1.95042e-05
0.000410992
-1.10762e-05
0.000411597
-2.4897e-06
0.000410021
6.04247e-06
0.000406303
1.4852e-05
0.000400544
2.30595e-05
0.000392852
3.07111e-05
0.000383377
3.78525e-05
0.000372287
4.4297e-05
0.000359754
5.00328e-05
0.000345981
5.50223e-05
0.000331148
5.92423e-05
0.00031544
6.27112e-05
0.000299066
6.53966e-05
0.000282196
6.73839e-05
0.000265032
6.85631e-05
0.000247766