/*--------------------------------*- C++ -*----------------------------------*\
| =========                 |                                                 |
| \\      /  F ield         | OpenFOAM: The Open Source CFD Toolbox           |
|  \\    /   O peration     | Version:  3.0.1                                 |
|   \\  /    A nd           | Web:      www.OpenFOAM.org                      |
|    \\/     M anipulation  |                                                 |
\*---------------------------------------------------------------------------*/
FoamFile
{
    version     2.0;
    format      ascii;
    class       volScalarField;
    location    "20.2";
    object      p_rgh;
}
// * * * * * * * * * * * * * * * * * * * * * * * * * * * * * * * * * * * * * //

dimensions      [1 -1 -2 0 0 0 0];

internalField   nonuniform List<scalar> 
21420
(
-27.5734
-51.7912
-76.9464
-101.705
-125.448
-147.879
-168.777
-188.028
-205.542
-221.28
-235.238
-247.427
-257.879
-266.641
-273.766
-279.311
-283.319
-285.77
-286.697
-286.349
-284.59
-281.352
-276.624
-270.38
-262.599
-253.252
-242.32
-229.782
-215.633
-199.895
-182.598
-163.811
-143.646
-122.221
-99.6996
-76.2375
-52.0121
-27.2282
-2.06254
23.2743
48.4745
73.3912
97.8139
121.536
144.365
166.105
186.575
205.615
223.061
238.766
252.594
264.413
274.102
281.549
286.652
289.306
289.355
286.833
281.777
274.125
263.908
251.207
236.147
218.893
199.65
178.658
156.166
132.461
107.843
82.5797
56.9723
31.1948
2.41917
-23.3971
-48.4201
-72.531
-95.5638
-117.37
-137.797
-156.729
-174.085
-189.793
-203.833
-216.2
-226.914
-236.02
-243.567
-249.613
-254.266
-257.6
-259.611
-260.369
-259.955
-258.416
-255.796
-252.125
-247.427
-241.703
-234.948
-227.155
-218.298
-208.358
-197.309
-185.123
-171.773
-157.238
-141.503
-124.567
-106.44
-87.1565
-66.7729
-45.3715
-23.0639
0.011175
23.702
47.7476
71.9474
96.0602
119.826
142.972
165.211
186.254
205.811
223.6
239.359
252.849
263.859
272.215
277.783
280.478
280.228
277.073
271.076
262.304
250.908
237.075
221.019
202.98
183.222
162.021
139.661
116.426
92.5935
68.4259
44.1672
20.0287
-3.6033
-26.8873
-49.4888
-71.2956
-92.2084
-112.145
-131.039
-148.841
-165.513
-181.027
-195.364
-208.511
-220.465
-231.225
-240.791
-249.159
-256.313
-262.24
-266.921
-270.354
-272.504
-273.336
-272.88
-271.097
-267.965
-263.469
-257.599
-250.348
-241.717
-231.708
-220.327
-207.591
-193.522
-178.154
-161.532
-143.713
-124.771
-104.797
-83.8988
-62.1994
-39.8416
-16.9534
6.24011
29.5852
52.8847
75.9298
98.5024
120.379
141.333
161.141
179.584
196.448
211.533
224.652
235.634
244.328
250.612
254.392
255.591
254.186
250.164
243.583
234.47
222.927
209.073
193.059
175.063
155.287
133.957
111.315
87.6185
63.1323
38.1282
12.8759
-12.361
-37.3296
-61.7917
-85.5379
-108.377
-130.147
-150.714
-169.968
-187.828
-204.237
-219.158
-232.572
-244.478
-254.885
-263.817
-271.304
-277.384
-282.1
-285.504
-287.624
-288.495
-288.198
-286.746
-284.17
-280.496
-275.743
-269.923
-263.038
-255.082
-246.051
-235.929
-224.698
-212.338
-198.827
-184.152
-168.301
-151.278
-133.101
-113.81
-93.4629
-72.1432
-49.9634
-27.0846
-3.67718
20.0562
43.8821
67.5446
90.7681
113.271
134.75
154.922
173.504
190.224
204.847
217.142
226.943
234.089
238.485
240.116
239.285
235.813
229.638
220.892
209.762
196.413
181.024
163.812
145.011
124.853
103.585
81.4375
58.6398
35.4138
11.9467
-11.5741
-35.0088
-58.0809
-75.3016
-96.3513
-117.007
-136.926
-155.939
-173.917
-190.77
-206.422
-220.804
-233.867
-245.57
-255.886
-264.798
-272.294
-278.376
-283.052
-286.331
-288.196
-288.653
-287.71
-285.403
-281.712
-276.649
-270.217
-262.421
-253.272
-242.788
-230.985
-217.896
-203.55
-187.997
-171.294
-153.501
-134.695
-114.969
-94.4211
-73.1661
-51.3471
-29.0953
-6.58441
16.0008
38.4684
60.6049
82.1938
103.024
122.873
141.536
158.807
174.507
188.489
200.615
210.777
218.888
224.872
228.683
230.13
229.247
226.046
220.605
213.014
-27.6217
-51.8491
-77.0112
-101.775
-125.522
-147.956
-168.854
-188.105
-205.619
-221.356
-235.312
-247.498
-257.947
-266.707
-273.83
-279.371
-283.377
-285.828
-286.758
-286.409
-284.649
-281.411
-276.684
-270.442
-262.662
-253.317
-242.386
-229.849
-215.701
-199.962
-182.663
-163.874
-143.705
-122.276
-99.7485
-76.2801
-52.0478
-27.2563
-2.08249
23.2617
48.4707
73.3962
97.8277
121.558
144.396
166.143
186.622
205.669
223.123
238.834
252.668
264.494
274.189
281.64
286.746
289.405
289.456
286.936
281.879
274.223
264.002
251.295
236.226
218.962
199.708
178.704
156.2
132.483
107.852
82.5764
56.9575
31.1704
2.38738
-23.4366
-48.4674
-72.5852
-95.6239
-117.435
-137.866
-156.801
-174.158
-189.867
-203.907
-216.272
-226.984
-236.088
-243.633
-249.677
-254.328
-257.659
-259.665
-260.423
-260.008
-258.468
-255.847
-252.176
-247.478
-241.754
-235
-227.207
-218.352
-208.413
-197.366
-185.181
-171.833
-157.299
-141.565
-124.629
-106.502
-87.2171
-66.8312
-45.4263
-23.1141
-0.0330946
23.6654
47.7194
71.9285
96.0516
119.829
142.986
165.238
186.293
205.863
223.664
239.435
252.935
263.953
272.315
277.889
280.588
280.333
277.177
271.176
262.397
250.994
237.151
221.083
203.032
183.262
162.049
139.677
116.431
92.5875
68.4104
44.1436
19.9998
-3.64396
-26.931
-49.5361
-71.3459
-92.261
-112.199
-131.094
-148.897
-165.57
-181.084
-195.42
-208.566
-220.52
-231.28
-240.846
-249.213
-256.368
-262.296
-266.977
-270.41
-272.559
-273.394
-272.938
-271.156
-268.025
-263.53
-257.66
-250.41
-241.779
-231.77
-220.39
-207.653
-193.583
-178.214
-161.591
-143.771
-124.826
-104.849
-83.9462
-62.2421
-39.8785
-16.985
6.21573
29.5685
52.8763
75.9303
98.5122
120.398
141.362
161.18
179.632
196.506
211.6
224.727
235.716
244.417
250.705
254.489
255.692
254.283
250.26
243.676
234.559
223.01
209.149
193.126
175.12
155.334
133.993
111.341
87.6323
63.1349
38.1199
12.8572
-12.3893
-37.3666
-61.8363
-85.589
-108.433
-130.208
-150.777
-170.033
-187.895
-204.305
-219.225
-232.638
-244.543
-254.949
-263.879
-271.365
-277.442
-282.157
-285.559
-287.676
-288.547
-288.248
-286.795
-284.218
-280.544
-275.791
-269.971
-263.086
-255.131
-246.101
-235.98
-224.751
-212.392
-198.883
-184.208
-168.359
-151.336
-133.158
-113.866
-93.5162
-72.193
-50.0082
-27.1234
-3.70861
20.0335
43.8694
67.5428
90.7782
113.294
134.785
154.97
173.565
190.297
204.93
217.233
227.043
234.194
238.596
240.236
239.391
235.912
229.736
220.986
209.849
196.491
181.092
163.87
145.058
124.889
103.61
81.453
58.646
35.4119
11.9372
-11.5901
-35.0315
-58.1111
-75.3346
-96.3917
-117.052
-136.975
-155.99
-173.97
-190.824
-206.478
-220.861
-233.924
-245.628
-255.944
-264.855
-272.351
-278.433
-283.107
-286.385
-288.25
-288.707
-287.765
-285.457
-281.767
-276.703
-270.271
-262.475
-253.327
-242.842
-231.039
-217.949
-203.602
-188.047
-171.343
-153.548
-134.739
-115.01
-94.4581
-73.1983
-51.3744
-29.1164
-6.59844
15.9945
38.4705
60.6158
82.2139
103.053
122.912
141.583
158.862
174.57
188.558
200.69
210.856
218.971
224.958
228.774
230.216
229.332
226.132
220.689
213.094
-27.7183
-51.9649
-77.1409
-101.916
-125.67
-148.109
-169.01
-188.261
-205.773
-221.507
-235.459
-247.641
-258.085
-266.839
-273.956
-279.492
-283.492
-285.942
-286.882
-286.53
-284.766
-281.529
-276.804
-270.565
-262.788
-253.446
-242.519
-229.984
-215.836
-200.096
-182.794
-163.999
-143.823
-122.384
-99.8457
-76.3647
-52.1186
-27.3119
-2.12168
23.2371
48.464
73.4072
97.8563
121.604
144.458
166.222
186.717
205.779
223.247
238.972
252.819
264.657
274.363
281.824
286.935
289.599
289.663
287.146
282.085
274.422
264.191
251.47
236.386
219.102
199.825
178.798
156.269
132.527
107.872
82.5721
56.9307
31.1238
2.32838
-23.5113
-48.5573
-72.6883
-95.738
-117.558
-137.995
-156.935
-174.294
-190.003
-204.042
-216.404
-227.112
-236.211
-243.75
-249.791
-254.438
-257.759
-259.758
-260.515
-260.097
-258.554
-255.932
-252.26
-247.561
-241.838
-235.085
-227.294
-218.442
-208.506
-197.462
-185.28
-171.935
-157.404
-141.672
-124.736
-106.608
-87.321
-66.9306
-45.5189
-23.1976
-0.105002
23.6088
47.6793
71.9069
96.0504
119.85
143.031
165.308
186.388
205.982
223.807
239.6
253.12
264.155
272.53
278.113
280.819
280.561
277.398
271.389
262.597
251.176
237.313
221.223
203.149
183.354
162.116
139.72
116.451
92.5863
68.39
44.1072
19.9532
-3.71521
-27.0077
-49.6199
-71.4357
-92.3554
-112.297
-131.194
-148.998
-165.672
-181.186
-195.521
-208.667
-220.619
-231.378
-240.944
-249.311
-256.467
-262.395
-267.078
-270.512
-272.659
-273.498
-273.044
-271.263
-268.134
-263.64
-257.771
-250.522
-241.892
-231.884
-220.504
-207.766
-193.696
-178.325
-161.699
-143.875
-124.925
-104.941
-84.0306
-62.3169
-39.942
-17.0377
6.17727
29.5453
52.8695
75.9412
98.5417
120.447
141.43
161.268
179.739
196.632
211.743
224.886
235.889
244.602
250.9
254.69
255.902
254.483
250.46
243.871
234.745
223.183
209.307
193.268
175.243
155.436
134.073
111.398
87.6673
63.1474
38.1106
12.8272
-12.4386
-37.4331
-61.918
-85.6836
-108.539
-130.321
-150.897
-170.157
-188.021
-204.431
-219.351
-232.763
-244.666
-255.069
-263.995
-271.477
-277.551
-282.262
-285.66
-287.771
-288.642
-288.339
-286.884
-284.305
-280.63
-275.877
-270.057
-263.173
-255.219
-246.191
-236.072
-224.846
-212.49
-198.983
-184.311
-168.463
-151.44
-133.261
-113.966
-93.6115
-72.2815
-50.0866
-27.1899
-3.76024
19.9994
43.8552
67.5502
90.8092
113.349
134.866
155.076
173.695
190.45
205.104
217.425
227.249
234.411
238.826
240.475
239.612
236.117
229.936
221.178
210.025
196.649
181.23
163.986
145.152
124.962
103.662
81.4846
58.6588
35.4083
11.9184
-11.6221
-35.0769
-58.1715
-75.4002
-96.4726
-117.142
-137.071
-156.091
-174.076
-190.933
-206.589
-220.975
-234.039
-245.744
-256.06
-264.97
-272.465
-278.545
-283.218
-286.494
-288.358
-288.815
-287.875
-285.566
-281.875
-276.812
-270.38
-262.585
-253.436
-242.95
-231.146
-218.055
-203.707
-188.149
-171.44
-153.641
-134.827
-115.092
-94.5319
-73.2628
-51.4289
-29.1585
-6.62641
15.982
38.4747
60.6377
82.2541
103.112
122.989
141.678
158.973
174.696
188.697
200.84
211.015
219.136
225.131
228.956
230.388
229.504
226.303
220.857
213.256
-27.8633
-52.1387
-77.3355
-102.127
-125.893
-148.338
-169.243
-188.495
-206.005
-221.734
-235.681
-247.855
-258.291
-267.037
-274.146
-279.674
-283.665
-286.113
-287.067
-286.709
-284.941
-281.706
-276.984
-270.75
-262.978
-253.641
-242.717
-230.186
-216.039
-200.298
-182.991
-164.188
-144
-122.546
-99.9916
-76.4918
-52.2249
-27.3955
-2.18091
23.2005
48.454
73.4236
97.899
121.673
144.552
166.341
186.858
205.944
223.433
239.179
253.045
264.901
274.624
282.099
287.22
289.89
289.973
287.458
282.393
274.72
264.475
251.735
236.625
219.311
200.002
178.939
156.373
132.593
107.901
82.5657
56.8904
31.0531
2.24055
-23.6233
-48.692
-72.8428
-95.9089
-117.742
-138.19
-157.136
-174.498
-190.207
-204.243
-216.601
-227.302
-236.393
-243.925
-249.959
-254.599
-257.906
-259.897
-260.651
-260.228
-258.682
-256.056
-252.383
-247.683
-241.961
-235.211
-227.423
-218.574
-208.643
-197.603
-185.426
-172.086
-157.558
-141.829
-124.894
-106.766
-87.4751
-67.078
-45.6561
-23.3212
-0.211239
23.5258
47.621
71.8762
96.0504
119.883
143.099
165.413
186.531
206.163
224.024
239.851
253.4
264.46
272.855
278.451
281.162
280.908
277.734
271.71
262.898
251.452
237.559
221.435
203.325
183.493
162.219
139.787
116.483
92.5862
68.3612
44.0539
19.8858
-3.82145
-27.1211
-49.7441
-71.569
-92.4956
-112.442
-131.343
-149.149
-165.823
-181.337
-195.672
-208.816
-220.767
-231.525
-241.089
-249.457
-256.614
-262.543
-267.229
-270.663
-272.808
-273.653
-273.202
-271.423
-268.296
-263.804
-257.937
-250.689
-242.061
-232.053
-220.673
-207.936
-193.864
-178.49
-161.86
-144.031
-125.073
-105.079
-84.1562
-62.4283
-40.0365
-17.1156
6.12055
29.5114
52.8604
75.9586
98.587
120.521
141.534
161.4
179.901
196.821
211.959
225.126
236.151
244.881
251.193
254.992
256.213
254.788
250.763
244.164
235.025
223.445
209.547
193.482
175.428
155.59
134.195
111.486
87.7207
63.1671
38.0976
12.7831
-12.5115
-37.532
-62.0397
-85.8247
-108.696
-130.49
-151.075
-170.341
-188.209
-204.62
-219.54
-232.949
-244.849
-255.247
-264.169
-271.645
-277.714
-282.419
-285.811
-287.914
-288.783
-288.476
-287.017
-284.435
-280.758
-276.005
-270.185
-263.302
-255.351
-246.325
-236.21
-224.987
-212.635
-199.133
-184.464
-168.618
-151.595
-133.415
-114.115
-93.7539
-72.4134
-50.2036
-27.2888
-3.83692
19.9488
43.8346
67.5622
90.8565
113.433
134.987
155.236
173.891
190.682
205.365
217.714
227.558
234.737
239.166
240.822
239.949
236.431
230.239
221.467
210.291
196.887
181.437
164.162
145.294
125.071
103.738
81.5318
58.678
35.4028
11.8901
-11.6701
-35.1448
-58.2619
-75.4997
-96.5941
-117.278
-137.216
-156.243
-174.234
-191.096
-206.756
-221.145
-234.211
-245.917
-256.233
-265.142
-272.636
-278.714
-283.385
-286.657
-288.518
-288.979
-288.04
-285.729
-282.038
-276.975
-270.544
-262.748
-253.6
-243.113
-231.308
-218.214
-203.863
-188.301
-171.587
-153.781
-134.959
-115.215
-94.6428
-73.3595
-51.5109
-29.2217
-6.66846
15.9632
38.481
60.6706
82.3145
103.2
123.104
141.82
159.14
174.884
188.905
201.064
211.252
219.385
225.39
229.224
230.65
229.763
226.56
221.109
213.498
-28.0568
-52.3706
-77.5952
-102.408
-126.19
-148.645
-169.554
-188.806
-206.314
-222.037
-235.976
-248.141
-258.566
-267.301
-274.399
-279.916
-283.896
-286.342
-287.307
-286.943
-285.173
-281.941
-277.225
-270.996
-263.231
-253.9
-242.983
-230.455
-216.31
-200.567
-183.253
-164.439
-144.236
-122.764
-100.186
-76.6614
-52.3668
-27.5072
-2.26069
23.1524
48.4408
73.4455
97.9558
121.764
144.677
166.498
187.047
206.163
223.681
239.454
253.346
265.226
274.972
282.467
287.602
290.281
290.383
287.875
282.804
275.118
264.854
252.087
236.943
219.591
200.237
179.127
156.511
132.681
107.94
82.557
56.8363
30.9576
2.12386
-23.7728
-48.872
-73.0491
-96.1371
-117.988
-138.449
-157.404
-174.77
-190.48
-204.511
-216.863
-227.556
-236.637
-244.157
-250.182
-254.811
-258.102
-260.084
-260.832
-260.402
-258.851
-256.222
-252.547
-247.846
-242.126
-235.379
-227.594
-218.75
-208.825
-197.791
-185.621
-172.287
-157.764
-142.039
-125.106
-106.976
-87.6806
-67.2744
-45.839
-23.486
-0.353182
23.4154
47.5433
71.8354
96.0504
119.927
143.191
165.554
186.723
206.405
224.314
240.185
253.774
264.868
273.289
278.902
281.619
281.371
278.184
272.14
263.3
251.82
237.887
221.719
203.561
183.68
162.356
139.875
116.526
92.586
68.3226
43.9825
19.7912
-3.95839
-27.2719
-49.9096
-71.7467
-92.6824
-112.635
-131.541
-149.349
-166.025
-181.539
-195.873
-209.015
-220.964
-231.72
-241.284
-249.651
-256.809
-262.741
-267.428
-270.863
-273.009
-273.86
-273.411
-271.635
-268.511
-264.023
-258.158
-250.912
-242.286
-232.279
-220.9
-208.161
-194.088
-178.711
-162.076
-144.238
-125.27
-105.263
-84.3238
-62.577
-40.1629
-17.2193
6.04487
29.4661
52.8482
75.9818
98.6475
120.62
141.672
161.577
180.116
197.074
212.247
225.446
236.499
245.254
251.585
255.396
256.622
255.2
251.169
244.555
235.398
223.794
209.867
193.767
175.675
155.796
134.357
111.603
87.792
63.1934
38.0802
12.7241
-12.6088
-37.664
-62.2022
-86.013
-108.905
-130.716
-151.313
-170.587
-188.46
-204.873
-219.791
-233.198
-245.092
-255.485
-264.4
-271.869
-277.93
-282.627
-286.011
-288.105
-288.97
-288.657
-287.194
-284.609
-280.93
-276.175
-270.355
-263.474
-255.526
-246.504
-236.394
-225.176
-212.83
-199.333
-184.668
-168.825
-151.802
-133.62
-114.314
-93.9439
-72.5897
-50.3598
-27.421
-3.93944
19.8812
43.8068
67.578
90.9194
113.545
135.15
155.45
174.153
190.991
205.714
218.099
227.971
235.172
239.616
241.279
240.398
236.855
230.645
221.852
210.645
197.204
181.713
164.395
145.483
125.216
103.841
81.5945
58.7033
35.3952
11.8523
-11.7342
-35.2351
-58.3818
-75.6326
-96.7566
-117.459
-137.41
-156.447
-174.446
-191.314
-206.979
-221.372
-234.441
-246.148
-256.464
-265.372
-272.864
-278.939
-283.607
-286.874
-288.733
-289.199
-288.259
-285.946
-282.254
-277.192
-270.762
-262.966
-253.818
-243.33
-231.523
-218.427
-204.071
-188.504
-171.783
-153.969
-135.135
-115.378
-94.7908
-73.4887
-51.6203
-29.3061
-6.72468
15.938
38.4893
60.7143
82.3948
103.318
123.259
142.01
159.362
175.136
189.183
201.363
211.569
219.716
225.735
229.576
231.004
230.111
226.904
221.445
213.82
-28.299
-52.6607
-77.9203
-102.76
-126.561
-149.028
-169.943
-189.196
-206.7
-222.417
-236.345
-248.498
-258.91
-267.631
-274.715
-280.219
-284.187
-286.631
-287.602
-287.235
-285.464
-282.235
-277.525
-271.304
-263.547
-254.224
-243.314
-230.792
-216.649
-200.903
-183.582
-164.754
-144.531
-123.035
-100.43
-76.8736
-52.5444
-27.6473
-2.36122
23.0928
48.4245
73.4729
98.0267
121.878
144.833
166.695
187.284
206.437
223.991
239.798
253.723
265.633
275.407
282.927
288.081
290.773
290.892
288.396
283.317
275.616
265.327
252.528
237.342
219.94
200.532
179.361
156.684
132.792
107.988
82.5457
56.7683
30.8367
1.97835
-23.96
-49.0974
-73.3073
-96.4229
-118.296
-138.773
-157.739
-175.11
-190.82
-204.847
-217.191
-227.873
-236.941
-244.448
-250.461
-255.075
-258.348
-260.32
-261.059
-260.62
-259.062
-256.43
-252.751
-248.05
-242.331
-235.589
-227.808
-218.971
-209.052
-198.027
-185.865
-172.538
-158.022
-142.302
-125.371
-107.239
-87.9379
-67.5206
-46.0683
-23.6926
-0.531543
23.2772
47.4456
71.7839
96.0499
119.982
143.305
165.73
186.962
206.706
224.676
240.603
254.242
265.378
273.831
279.466
282.192
281.946
278.749
272.677
263.804
252.28
238.297
222.073
203.855
183.912
162.527
139.986
116.578
92.5854
68.2739
43.8923
19.6688
-4.12628
-27.4603
-50.1168
-71.9692
-92.9163
-112.877
-131.788
-149.6
-166.277
-181.791
-196.124
-209.264
-221.21
-231.964
-241.526
-249.894
-257.054
-262.988
-267.678
-271.112
-273.261
-274.118
-273.673
-271.901
-268.781
-264.296
-258.434
-251.191
-242.567
-232.562
-221.183
-208.444
-194.368
-178.987
-162.345
-144.498
-125.517
-105.493
-84.5337
-62.7632
-40.3217
-17.3489
5.94994
29.4092
52.8326
76.0104
98.7227
120.743
141.844
161.798
180.385
197.39
212.606
225.846
236.935
245.719
252.074
255.901
257.133
255.716
251.677
245.045
235.865
224.231
210.266
194.124
175.984
156.053
134.559
111.749
87.881
63.226
38.058
12.6501
-12.7309
-37.8295
-62.4057
-86.2489
-109.167
-130.999
-151.611
-170.895
-188.773
-205.188
-220.106
-233.509
-245.397
-255.783
-264.689
-272.149
-278.2
-282.888
-286.26
-288.347
-289.205
-288.884
-287.415
-284.826
-281.144
-276.388
-270.569
-263.689
-255.746
-246.728
-236.623
-225.412
-213.073
-199.583
-184.924
-169.084
-152.062
-133.877
-114.564
-94.182
-72.8108
-50.5558
-27.5869
-4.06814
19.796
43.7716
67.5973
90.9978
113.685
135.353
155.716
174.48
191.377
206.151
218.581
228.488
235.716
240.177
241.848
240.956
237.391
231.156
222.334
211.087
197.601
182.059
164.687
145.719
125.398
103.969
81.6725
58.7347
35.3854
11.8048
-11.8145
-35.3477
-58.5307
-75.8003
-96.9605
-117.686
-137.652
-156.701
-174.71
-191.587
-207.258
-221.656
-234.728
-246.437
-256.753
-265.659
-273.148
-279.221
-283.884
-287.146
-289.003
-289.472
-288.531
-286.217
-282.525
-277.464
-271.034
-263.239
-254.091
-243.602
-231.793
-218.693
-204.332
-188.757
-172.028
-154.202
-135.356
-115.583
-94.976
-73.6506
-51.7572
-29.4119
-6.79522
15.9063
38.4994
60.7688
82.4952
103.465
123.452
142.247
159.64
175.451
189.53
201.737
211.965
220.131
226.164
230.015
231.446
230.55
227.335
221.866
214.224
-28.5901
-53.0094
-78.3108
-103.184
-127.007
-149.489
-170.411
-189.664
-207.164
-222.872
-236.789
-248.927
-259.322
-268.026
-275.094
-280.583
-284.538
-286.977
-287.951
-287.582
-285.812
-282.588
-277.885
-271.673
-263.926
-254.613
-243.712
-231.196
-217.057
-201.308
-183.976
-165.132
-144.886
-123.361
-100.723
-77.1286
-52.7578
-27.816
-2.48251
23.0216
48.4049
73.5056
98.1117
122.014
145.02
166.931
187.567
206.766
224.363
240.211
254.175
266.122
275.929
283.479
288.657
291.367
291.504
289.019
283.933
276.213
265.896
253.057
237.821
220.36
200.885
179.643
156.892
132.924
108.046
82.5317
56.686
30.6902
1.80383
-24.1851
-49.3684
-73.6178
-96.7665
-118.667
-139.163
-158.142
-175.519
-191.23
-205.251
-217.585
-228.253
-237.306
-244.797
-250.795
-255.391
-258.644
-260.603
-261.331
-260.882
-259.316
-256.679
-252.997
-248.295
-242.578
-235.84
-228.066
-219.235
-209.326
-198.31
-186.157
-172.84
-158.332
-142.617
-125.689
-107.556
-88.2474
-67.8167
-46.3442
-23.9414
-0.746772
23.1109
47.3277
71.7214
96.0486
120.047
143.441
165.941
187.249
207.068
225.11
241.105
254.804
265.99
274.482
280.144
282.881
282.636
279.427
273.323
264.408
252.833
238.789
222.498
204.208
184.192
162.731
140.118
116.641
92.584
68.2145
43.7827
19.5184
-4.32563
-27.6865
-50.3659
-72.2366
-93.1974
-113.168
-132.085
-149.901
-166.58
-182.094
-196.425
-209.563
-221.505
-232.256
-241.818
-250.186
-257.347
-263.284
-267.977
-271.412
-273.565
-274.427
-273.987
-272.221
-269.106
-264.625
-258.766
-251.526
-242.904
-232.902
-221.523
-208.783
-194.704
-179.318
-162.668
-144.81
-125.814
-105.77
-84.7863
-62.9873
-40.513
-17.5046
5.83558
29.3404
52.8134
76.0444
98.8126
120.891
142.05
162.063
180.708
197.768
213.038
226.327
237.458
246.279
252.662
256.508
257.747
256.334
252.286
245.634
236.426
224.755
210.747
194.553
176.355
156.361
134.802
111.923
87.9875
63.2647
38.031
12.5607
-12.878
-38.0287
-62.6507
-86.5326
-109.483
-131.339
-151.969
-171.265
-189.15
-205.568
-220.483
-233.882
-245.763
-256.141
-265.037
-272.485
-278.525
-283.2
-286.56
-288.636
-289.486
-289.156
-287.68
-285.086
-281.401
-276.644
-270.825
-263.948
-256.009
-246.997
-236.899
-225.696
-213.364
-199.883
-185.231
-169.395
-152.374
-134.186
-114.865
-94.4685
-73.0769
-50.7917
-27.7866
-4.22332
19.6931
43.7286
67.62
91.0914
113.852
135.596
156.036
174.873
191.84
206.676
219.161
229.109
236.369
240.849
242.528
241.624
238.038
231.771
222.913
211.619
198.077
182.473
165.037
146.002
125.615
104.122
81.7657
58.7718
35.3731
11.7474
-11.9111
-35.4824
-58.7083
-76.0033
-97.2063
-117.959
-137.943
-157.006
-175.027
-191.914
-207.593
-221.997
-235.073
-246.784
-257.099
-266.004
-273.49
-279.559
-284.218
-287.474
-289.329
-289.798
-288.857
-286.542
-282.851
-277.79
-271.361
-263.567
-254.418
-243.928
-232.116
-219.012
-204.644
-189.062
-172.322
-154.483
-135.621
-115.829
-95.1986
-73.8455
-51.922
-29.5393
-6.88024
15.8679
38.5113
60.8339
82.6154
103.641
123.683
142.531
159.974
175.829
189.947
202.187
212.441
220.628
226.679
230.543
231.976
231.077
227.854
222.371
214.709
-28.9304
-53.4168
-78.7673
-103.679
-127.529
-150.027
-170.957
-190.211
-207.706
-223.404
-237.307
-249.427
-259.803
-268.488
-275.537
-281.009
-284.948
-287.382
-288.355
-287.986
-286.218
-283
-278.305
-272.104
-264.369
-255.067
-244.177
-231.669
-217.532
-201.78
-184.438
-165.573
-145.301
-123.743
-101.065
-77.4267
-53.0074
-28.0133
-2.62463
22.9385
48.382
73.5436
98.2107
122.173
145.238
167.207
187.898
207.149
224.797
240.693
254.702
266.692
276.538
284.123
289.331
292.062
292.218
289.746
284.652
276.911
266.561
253.675
238.381
220.851
201.298
179.972
157.134
133.077
108.112
82.5148
56.5893
30.5179
1.59995
-24.4484
-49.6854
-73.9808
-97.1683
-119.099
-139.619
-158.613
-175.997
-191.708
-205.723
-218.045
-228.698
-237.733
-245.204
-251.183
-255.759
-258.99
-260.934
-261.649
-261.187
-259.612
-256.969
-253.283
-248.58
-242.866
-236.133
-228.366
-219.544
-209.645
-198.64
-186.499
-173.192
-158.694
-142.986
-126.061
-107.926
-88.6093
-68.1631
-46.6671
-24.2327
-0.999545
22.9166
47.1892
71.6477
96.0462
120.122
143.6
166.187
187.583
207.491
225.617
241.69
255.46
266.705
275.243
280.936
283.687
283.442
280.217
274.078
265.115
253.479
239.364
222.994
204.62
184.517
162.97
140.271
116.714
92.5814
68.1442
43.6534
19.3398
-4.55695
-27.9507
-50.657
-72.5493
-93.526
-113.508
-132.433
-150.253
-166.934
-182.448
-196.778
-209.912
-221.85
-232.598
-242.157
-250.526
-257.69
-263.63
-268.326
-271.763
-273.92
-274.788
-274.353
-272.593
-269.484
-265.008
-259.153
-251.917
-243.298
-233.298
-221.921
-209.18
-195.098
-179.705
-163.046
-145.174
-126.16
-106.094
-85.0816
-63.2495
-40.7371
-17.6868
5.70156
29.2595
52.7904
76.0835
98.9172
121.063
142.291
162.372
181.085
198.21
213.542
226.887
238.069
246.932
253.348
257.216
258.466
257.055
252.997
246.321
237.08
225.368
211.307
195.053
176.788
156.722
135.085
112.127
88.1113
63.3094
37.9989
12.4558
-13.0505
-38.262
-62.9375
-86.8645
-109.852
-131.737
-152.387
-171.698
-189.591
-206.011
-220.925
-234.318
-246.191
-256.558
-265.442
-272.877
-278.904
-283.565
-286.91
-288.975
-289.813
-289.474
-287.989
-285.39
-281.701
-276.942
-271.124
-264.25
-256.316
-247.311
-237.221
-226.026
-213.705
-200.233
-185.589
-169.758
-152.739
-134.546
-115.216
-94.8036
-73.3882
-51.0681
-28.0205
-4.4054
19.5721
43.6774
67.6457
91.2001
114.046
135.88
156.409
175.332
192.38
207.289
219.838
229.834
237.132
241.632
243.317
242.403
238.794
232.493
223.59
212.24
198.633
182.957
165.445
146.332
125.868
104.3
81.8736
58.8146
35.358
11.6801
-12.0243
-35.6387
-58.9138
-76.2415
-97.4948
-118.278
-138.283
-157.362
-175.398
-192.295
-207.985
-222.395
-235.476
-247.189
-257.504
-266.407
-273.889
-279.953
-284.607
-287.857
-289.709
-290.178
-289.236
-286.921
-283.23
-278.171
-271.743
-263.949
-254.8
-244.308
-232.494
-219.384
-205.01
-189.418
-172.665
-154.812
-135.931
-116.116
-95.4588
-74.0733
-52.1149
-29.6885
-6.97994
15.8227
38.5248
60.9097
82.7555
103.847
123.953
142.863
160.364
176.271
190.433
202.711
212.996
221.208
227.279
231.158
232.595
231.693
228.46
222.962
215.275
-29.3202
-53.8833
-79.2899
-104.245
-128.126
-150.643
-171.582
-190.837
-208.327
-224.013
-237.899
-250
-260.354
-269.015
-276.043
-281.494
-285.418
-287.844
-288.814
-288.446
-286.681
-283.47
-278.785
-272.596
-264.875
-255.587
-244.709
-232.209
-218.077
-202.321
-184.966
-166.079
-145.777
-124.18
-101.457
-77.7679
-53.2931
-28.2395
-2.78771
22.8434
48.3557
73.5869
98.3237
122.355
145.487
167.522
188.276
207.588
225.293
241.244
255.305
267.343
277.235
284.861
290.102
292.859
293.036
290.575
285.474
277.71
267.322
254.383
239.021
221.412
201.769
180.348
157.41
133.253
108.188
82.4947
56.4778
30.3197
1.36631
-24.7504
-50.0487
-74.3967
-97.6286
-119.595
-140.141
-159.153
-176.545
-192.256
-206.263
-218.571
-229.206
-238.22
-245.669
-251.627
-256.179
-259.386
-261.313
-262.012
-261.536
-259.95
-257.3
-253.61
-248.907
-243.196
-236.468
-228.709
-219.897
-210.009
-199.017
-186.89
-173.595
-159.108
-143.408
-126.487
-108.35
-89.024
-68.5602
-47.0372
-24.5668
-1.29037
22.6941
47.0298
71.5623
96.0425
120.207
143.78
166.467
187.965
207.973
226.197
242.36
256.21
267.523
276.114
281.842
284.611
284.365
281.121
274.942
265.923
254.217
240.021
223.561
205.091
184.888
163.242
140.446
116.796
92.5773
68.0626
43.5039
19.1329
-4.82076
-28.2532
-50.9906
-72.9074
-93.9022
-113.897
-132.83
-150.655
-167.339
-182.853
-197.181
-210.311
-222.245
-232.988
-242.545
-250.915
-258.081
-264.025
-268.725
-272.165
-274.326
-275.2
-274.772
-273.019
-269.917
-265.446
-259.596
-252.364
-243.749
-233.751
-222.375
-209.633
-195.547
-180.148
-163.479
-145.592
-126.557
-106.464
-85.4199
-63.5499
-40.994
-17.8956
5.54766
29.1663
52.7635
76.1276
99.0361
121.259
142.565
162.725
181.515
198.716
214.118
227.529
238.768
247.68
254.133
258.027
259.289
257.88
253.809
247.108
237.83
226.068
211.948
195.626
177.283
157.133
135.409
112.36
88.2523
63.3599
37.9615
12.335
-13.2485
-38.5298
-63.2663
-87.245
-110.274
-132.192
-152.866
-172.193
-190.095
-206.517
-221.43
-234.817
-246.68
-257.035
-265.905
-273.326
-279.337
-283.982
-287.31
-289.361
-290.187
-289.836
-288.343
-285.737
-282.044
-277.282
-271.465
-264.595
-256.666
-247.669
-237.588
-226.404
-214.094
-200.634
-186
-170.175
-153.157
-134.96
-115.618
-95.1878
-73.7451
-51.3851
-28.2891
-4.61491
19.4326
43.618
67.6742
91.3237
114.268
136.204
156.835
175.856
192.999
207.99
220.613
230.665
238.004
242.527
244.217
243.295
239.66
233.32
224.365
212.951
199.269
183.511
165.911
146.709
126.157
104.503
81.9961
58.8626
35.3397
11.6026
-12.1541
-35.8165
-59.1463
-76.5165
-97.8268
-118.644
-138.672
-157.77
-175.821
-192.732
-208.432
-222.851
-235.937
-247.652
-257.967
-266.867
-274.346
-280.404
-285.051
-288.296
-290.144
-290.611
-289.67
-287.354
-283.664
-278.605
-272.179
-264.386
-255.237
-244.743
-232.926
-219.81
-205.427
-189.824
-173.058
-155.187
-136.285
-116.446
-95.7568
-74.3344
-52.3361
-29.8597
-7.09456
15.7704
38.5397
60.9957
82.9154
104.081
124.262
143.243
160.81
176.776
190.99
203.311
213.631
221.871
227.964
231.861
233.303
232.397
229.154
223.637
215.923
-29.7599
-54.4093
-79.8792
-104.884
-128.799
-151.337
-172.287
-191.542
-209.025
-224.698
-238.566
-250.644
-260.973
-269.609
-276.611
-282.041
-285.947
-288.363
-289.329
-288.961
-287.201
-283.998
-279.325
-273.15
-265.444
-256.171
-245.307
-232.818
-218.691
-202.931
-185.561
-166.65
-146.312
-124.672
-101.899
-78.1526
-53.6154
-28.4947
-2.97191
22.7361
48.3257
73.6354
98.4507
122.56
145.768
167.876
188.702
208.081
225.852
241.864
255.983
268.076
278.018
285.691
290.97
293.757
293.958
291.509
286.399
278.609
268.179
255.181
239.743
222.044
202.301
180.771
157.72
133.449
108.273
82.4712
56.3512
30.0952
1.10247
-25.0914
-50.4587
-74.8659
-98.1477
-120.154
-140.73
-159.761
-177.162
-192.873
-206.871
-219.164
-229.779
-238.769
-246.192
-252.125
-256.65
-259.833
-261.74
-262.421
-261.929
-260.331
-257.672
-253.978
-249.273
-243.566
-236.845
-229.095
-220.294
-210.42
-199.442
-187.33
-174.05
-159.575
-143.884
-126.967
-108.828
-89.4917
-69.0083
-47.4551
-24.944
-1.61977
22.443
46.8488
71.4648
96.037
120.302
143.982
166.781
188.394
208.516
226.85
243.115
257.055
268.445
277.096
282.864
285.652
285.406
282.139
275.916
266.833
255.049
240.761
224.199
205.621
185.306
163.547
140.641
116.887
92.5713
67.969
43.3338
18.8974
-5.11765
-28.5944
-51.3668
-73.3111
-94.3262
-114.335
-133.277
-151.108
-167.795
-183.309
-197.634
-210.76
-222.688
-233.427
-242.982
-251.352
-258.522
-264.47
-269.174
-272.616
-274.783
-275.663
-275.243
-273.499
-270.405
-265.94
-260.094
-252.867
-244.256
-234.262
-222.887
-210.143
-196.053
-180.647
-163.966
-146.062
-127.005
-106.882
-85.8014
-63.889
-41.2841
-18.1314
5.37356
29.0605
52.7322
76.1764
99.1693
121.48
142.874
163.122
181.999
199.284
214.767
228.251
239.555
248.521
255.018
258.94
260.216
258.809
254.724
247.994
238.674
226.858
212.671
196.27
177.841
157.597
135.773
112.622
88.4104
63.4159
37.9185
12.198
-13.4727
-38.8324
-63.6378
-87.6746