/*--------------------------------*- C++ -*----------------------------------*\
| =========                 |                                                 |
| \\      /  F ield         | OpenFOAM: The Open Source CFD Toolbox           |
|  \\    /   O peration     | Version:  3.0.1                                 |
|   \\  /    A nd           | Web:      www.OpenFOAM.org                      |
|    \\/     M anipulation  |                                                 |
\*---------------------------------------------------------------------------*/
FoamFile
{
    version     2.0;
    format      ascii;
    class       volScalarField;
    location    "13.2";
    object      p;
}
// * * * * * * * * * * * * * * * * * * * * * * * * * * * * * * * * * * * * * //

dimensions      [1 -1 -2 0 0 0 0];

internalField   nonuniform List<scalar> 
21420
(
3793.4
3821.94
3851.86
3882.28
3910.36
3943.62
3977.85
4012.23
4046.29
4079.65
4111.86
4142.48
4171.13
4197.39
4220.85
4241.15
4257.97
4271.07
4280.25
4285.38
4286.26
4283.01
4275.65
4264.29
4249.08
4230.27
4208.14
4183
4155.23
4125.23
4093.41
4060.24
4026.15
3991.59
3957.01
3922.81
3889.77
3857.55
3826.11
3795.77
3766.82
3739.45
3713.78
3689.88
3667.8
3647.55
3629.12
3612.5
3597.65
3584.52
3573.08
3563.25
3555.01
3548.31
3543.11
3539.39
3537.15
3536.39
3537.34
3539.8
3543.81
3549.4
3556.6
3565.43
3575.93
3588.13
3602.04
3617.68
3635.05
3654.13
3674.91
3697.35
3721.39
3746.95
3773.95
3802.26
3831.77
3862.31
3893.7
3925.72
3958.16
3990.73
4023.16
4055.13
4086.3
4116.34
4144.87
4171.53
4195.96
4217.82
4236.77
4252.52
4264.82
4273.47
4278.3
4279.13
4276.05
4268.96
4257.92
4243.04
4224.5
4202.51
4177.36
4149.39
4118.98
4086.55
4052.57
4017.52
3981.89
3946.16
3910.8
3876.22
3842.8
3810.85
3780.61
3752.26
3725.93
3701.7
3679.57
3659.53
3641.53
3625.52
3611.39
3599.06
3588.43
3579.39
3571.85
3565.71
3560.87
3557.27
3554.83
3553.51
3553.3
3554.17
3556.14
3559.26
3563.59
3569.22
3576.26
3584.82
3595.02
3607
3620.85
3636.69
3654.58
3674.56
3696.64
3720.77
3746.88
3774.83
3804.44
3835.51
3867.78
3900.95
3934.7
3968.66
4002.47
4035.75
4068.11
4099.16
4128.52
4155.84
4180.79
4203.08
4222.43
4238.63
4251.49
4260.88
4266.7
4268.86
4267.42
4262.34
4253.73
4241.66
4226.27
4207.75
4186.3
4162.16
4135.61
4106.95
4076.53
4044.68
4011.77
3978.19
3944.29
3910.45
3877.02
3844.31
3812.63
3782.23
3753.33
3726.13
3700.75
3677.31
3655.87
3636.48
3619.14
3603.84
3590.56
3579.25
3569.86
3562.35
3556.64
3552.67
3550.4
3549.8
3550.74
3553.22
3557.2
3562.65
3569.54
3577.85
3587.57
3598.7
3611.23
3625.16
3640.48
3657.2
3675.29
3694.75
3715.54
3737.62
3760.95
3785.45
3811.03
3837.58
3864.97
3893.05
3921.63
3950.52
3979.47
4008.26
4036.62
4064.26
4090.92
4116.29
4140.1
4162.07
4181.94
4199.46
4214.4
4226.59
4235.85
4242.06
4245.13
4244.99
4241.69
4235.28
4225.79
4213.36
4198.17
4180.41
4160.32
4138.17
4114.25
4088.87
4062.36
4035.07
4007.33
3979.47
3951.8
3924.6
3898.15
3872.67
3848.35
3825.37
3803.86
3783.92
3765.62
3749.03
3734.16
3721.04
3709.65
3699.98
3692.01
3685.7
3681.01
3677.9
3676.32
3676.25
3677.6
3680.34
3684.43
3689.82
3696.46
3704.33
3713.35
3723.49
3734.69
3746.89
3760.03
3774.04
3788.84
3804.35
3820.48
3837.13
3854.19
3871.54
3888.68
3906.21
3923.72
3941.05
3958.07
3974.63
3990.59
4005.82
4020.2
4033.6
4045.92
4057.06
4066.94
4075.47
4082.61
4088.32
4092.58
4095.38
4096.74
4096.45
4094.78
4091.78
4087.52
4082.06
4075.51
4067.98
4059.57
4050.41
4040.61
4030.31
4019.63
4008.67
3997.57
3986.43
3975.35
3964.43
3953.75
3943.39
3933.42
3923.9
3914.88
3906.4
3898.51
3891.22
3884.59
3878.9
3873.45
3868.61
3864.37
3860.74
3857.7
3855.24
3853.32
3851.94
3851.07
3850.69
3850.8
3851.37
3852.36
3695.21
3723.76
3753.69
3784.14
3812.19
3845.47
3879.72
3914.12
3948.19
3981.57
4013.8
4044.44
4073.11
4099.38
4122.86
4143.18
4160.01
4173.12
4182.31
4187.44
4188.34
4185.07
4177.7
4166.33
4151.11
4132.29
4110.14
4084.98
4057.19
4027.18
3995.34
3962.15
3928.04
3893.47
3858.86
3824.65
3791.62
3759.39
3727.94
3697.59
3668.64
3641.27
3615.59
3591.7
3569.62
3549.37
3530.94
3514.33
3499.48
3486.35
3474.91
3465.09
3456.85
3450.15
3444.95
3441.23
3438.99
3438.24
3439.18
3441.64
3445.65
3451.23
3458.44
3467.27
3477.76
3489.96
3503.87
3519.5
3536.87
3555.95
3576.74
3599.18
3623.22
3648.78
3675.78
3704.1
3733.61
3764.16
3795.55
3827.58
3860.03
3892.61
3925.05
3957.04
3988.22
4018.28
4046.82
4073.5
4097.95
4119.82
4138.78
4154.55
4166.86
4175.52
4180.35
4181.19
4178.1
4171.01
4159.96
4145.08
4126.52
4104.52
4079.35
4051.36
4020.93
3988.49
3954.48
3919.41
3883.76
3848.02
3812.64
3778.05
3744.62
3712.66
3682.41
3654.07
3627.74
3603.5
3581.37
3561.34
3543.35
3527.34
3513.22
3500.89
3490.26
3481.23
3473.69
3467.55
3462.72
3459.13
3456.68
3455.37
3455.16
3456.03
3458
3461.11
3465.44
3471.07
3478.1
3486.65
3496.85
3508.82
3522.67
3538.5
3556.39
3576.37
3598.45
3622.58
3648.69
3676.64
3706.26
3737.34
3769.62
3802.8
3836.56
3870.54
3904.37
3937.66
3970.04
4001.1
4030.48
4057.81
4082.78
4105.08
4124.44
4140.65
4153.53
4162.92
4168.74
4170.91
4169.45
4164.37
4155.76
4143.68
4128.29
4109.75
4088.29
4064.13
4037.57
4008.9
3978.46
3946.6
3913.68
3880.07
3846.16
3812.31
3778.87
3746.15
3714.46
3684.05
3655.15
3627.94
3602.56
3579.12
3557.68
3538.29
3520.95
3505.66
3492.38
3481.07
3471.69
3464.17
3458.47
3454.5
3452.23
3451.63
3452.58
3455.06
3459.04
3464.49
3471.38
3479.69
3489.42
3500.54
3513.07
3527
3542.32
3559.04
3577.13
3596.58
3617.38
3639.46
3662.79
3687.29
3712.87
3739.43
3766.83
3794.91
3823.5
3852.39
3881.36
3910.16
3938.53
3966.18
3992.85
4018.24
4042.06
4064.04
4083.92
4101.45
4116.41
4128.6
4137.87
4144.08
4147.16
4147.01
4143.71
4137.29
4127.8
4115.37
4100.17
4082.4
4062.29
4040.13
4016.19
3990.79
3964.28
3936.97
3909.22
3881.35
3853.66
3826.46
3800
3774.51
3750.19
3727.21
3705.69
3685.75
3667.45
3650.86
3635.99
3622.87
3611.48
3601.82
3593.85
3587.54
3582.85
3579.74
3578.16
3578.09
3579.44
3582.18
3586.27
3591.67
3598.32
3606.18
3615.21
3625.35
3636.55
3648.75
3661.89
3675.9
3690.71
3706.22
3722.35
3739.01
3756.08
3773.42
3790.57
3808.1
3825.62
3842.96
3859.98
3876.54
3892.51
3907.75
3922.13
3935.54
3947.87
3959.01
3968.89
3977.43
3984.57
3990.28
3994.53
3997.34
3998.69
3998.4
3996.73
3993.73
3989.46
3984
3977.45
3969.91
3961.5
3952.33
3942.53
3932.22
3921.53
3910.58
3899.47
3888.33
3877.24
3866.32
3855.63
3845.27
3835.3
3825.78
3816.75
3808.28
3800.38
3793.1
3786.47
3780.77
3775.32
3770.48
3766.25
3762.62
3759.58
3757.11
3755.2
3753.82
3752.95
3752.57
3752.68
3753.25
3754.24
3596.94
3625.5
3655.47
3685.94
3713.95
3747.27
3781.56
3815.99
3850.1
3883.51
3915.77
3946.45
3975.16
4001.47
4024.98
4045.33
4062.19
4075.32
4084.53
4089.67
4090.57
4087.28
4079.91
4068.52
4053.28
4034.43
4012.24
3987.05
3959.23
3929.17
3897.29
3864.07
3829.92
3795.31
3760.67
3726.43
3693.42
3661.17
3629.7
3599.34
3570.38
3543.01
3517.33
3493.43
3471.35
3451.11
3432.69
3416.08
3401.23
3388.11
3376.68
3366.86
3358.63
3351.93
3346.74
3343.02
3340.77
3340.02
3340.96
3343.42
3347.43
3353.01
3360.21
3369.03
3379.52
3391.71
3405.62
3421.26
3438.62
3457.7
3478.49
3500.93
3524.97
3550.54
3577.54
3605.87
3635.39
3665.95
3697.35
3729.4
3761.87
3794.48
3826.94
3858.95
3890.17
3920.25
3948.83
3975.54
4000.02
4021.92
4040.92
4056.71
4069.04
4077.72
4082.56
4083.41
4080.3
4073.22
4062.15
4047.25
4028.67
4006.64
3981.44
3953.41
3922.94
3890.45
3856.41
3821.3
3785.61
3749.83
3714.42
3679.81
3646.36
3614.38
3584.13
3555.78
3529.45
3505.21
3483.09
3463.06
3445.08
3429.08
3414.97
3402.65
3392.03
3383.01
3375.48
3369.35
3364.53
3360.93
3358.49
3357.18
3356.98
3357.84
3359.8
3362.91
3367.23
3372.85
3379.87
3388.42
3398.61
3410.56
3424.41
3440.23
3458.11
3478.09
3500.16
3524.3
3550.41
3578.37
3608.01
3639.1
3671.4
3704.61
3738.39
3772.39
3806.25
3839.58
3871.99
3903.09
3932.5
3959.86
3984.86
4007.19
4026.57
4042.8
4055.69
4065.1
4070.93
4073.11
4071.63
4066.55
4057.93
4045.83
4030.42
4011.86
3990.37
3966.19
3939.6
3910.9
3880.42
3848.53
3815.58
3781.94
3748.01
3714.13
3680.66
3647.92
3616.22
3585.8
3556.88
3529.67
3504.28
3480.84
3459.4
3440.01
3422.68
3407.39
3394.12
3382.81
3373.44
3365.93
3360.23
3356.27
3354.01
3353.41
3354.36
3356.85
3360.83
3366.27
3373.16
3381.48
3391.2
3402.33
3414.85
3428.78
3444.1
3460.81
3478.91
3498.36
3519.15
3541.24
3564.57
3589.08
3614.67
3641.23
3668.64
3696.74
3725.34
3754.25
3783.24
3812.05
3840.44
3868.13
3894.82
3920.23
3944.08
3966.09
3985.99
4003.54
4018.51
4030.72
4040
4046.22
4049.31
4049.16
4045.85
4039.43
4029.92
4017.47
4002.25
3984.46
3964.33
3942.14
3918.17
3892.75
3866.2
3838.87
3811.09
3783.2
3755.49
3728.27
3701.79
3676.29
3651.96
3628.97
3607.45
3587.5
3569.21
3552.61
3537.75
3524.62
3513.24
3503.58
3495.61
3489.31
3484.63
3481.52
3479.95
3479.88
3481.23
3483.98
3488.07
3493.46
3500.12
3507.98
3517.01
3527.16
3538.36
3550.57
3563.71
3577.73
3592.54
3608.06
3624.2
3640.86
3657.94
3675.3
3692.45
3709.99
3727.52
3744.87
3761.9
3778.48
3794.46
3809.71
3824.1
3837.52
3849.85
3861.01
3870.89
3879.43
3886.58
3892.29
3896.55
3899.35
3900.71
3900.41
3898.73
3895.73
3891.45
3885.98
3879.42
3871.87
3863.45
3854.28
3844.47
3834.15
3823.45
3812.48
3801.37
3790.21
3779.12
3768.19
3757.5
3747.14
3737.16
3727.63
3718.61
3710.13
3702.23
3694.95
3688.32
3682.61
3677.17
3672.33
3668.1
3664.47
3661.43
3658.97
3657.06
3655.68
3654.82
3654.43
3654.55
3655.12
3656.11
3498.59
3527.17
3557.17
3587.7
3615.65
3649.02
3683.37
3717.85
3752
3785.46
3817.78
3848.52
3877.28
3903.65
3927.21
3947.61
3964.51
3977.67
3986.9
3992.05
3992.98
3989.66
3982.28
3970.86
3955.58
3936.68
3914.45
3889.2
3861.32
3831.21
3799.28
3766
3731.8
3697.13
3662.44
3628.15
3595.18
3562.89
3531.39
3501.01
3472.04
3444.66
3418.98
3395.08
3373.01
3352.77
3334.36
3317.75
3302.91
3289.81
3278.37
3268.57
3260.34
3253.65
3248.46
3244.74
3242.5
3241.76
3242.68
3245.14
3249.14
3254.72
3261.91
3270.73
3281.21
3293.4
3307.31
3322.94
3340.3
3359.38
3380.16
3402.61
3426.65
3452.23
3479.24
3507.58
3537.11
3567.69
3599.11
3631.19
3663.68
3696.32
3728.82
3760.87
3792.14
3822.27
3850.9
3877.66
3902.19
3924.13
3943.17
3959
3971.36
3980.06
3984.92
3985.79
3982.67
3975.57
3964.49
3949.55
3930.94
3908.86
3883.61
3855.53
3825
3792.45
3758.34
3723.17
3687.43
3651.6
3616.14
3581.49
3548.01
3516.02
3485.75
3457.39
3431.06
3406.83
3384.72
3364.7
3346.73
3330.74
3316.64
3304.34
3293.74
3284.73
3277.21
3271.09
3266.28
3262.69
3260.26
3258.95
3258.75
3259.61
3261.57
3264.67
3268.98
3274.58
3281.59
3290.12
3300.29
3312.23
3326.06
3341.87
3359.74
3379.71
3401.79
3425.93
3452.05
3480.02
3509.68
3540.79
3573.12
3606.36
3640.18
3674.23
3708.14
3741.51
3773.97
3805.11
3834.57
3861.99
3887.03
3909.4
3928.82
3945.08
3957.99
3967.41
3973.25
3975.45
3973.95
3968.86
3960.22
3948.11
3932.67
3914.08
3892.55
3868.32
3841.69
3812.94
3782.42
3750.48
3717.48
3683.8
3649.82
3615.9
3582.4
3549.63
3517.9
3487.46
3458.54
3431.31
3405.92
3382.47
3361.04
3341.65
3324.32
3309.04
3295.77
3284.48
3275.11
3267.61
3261.92
3257.97
3255.72
3255.12
3256.08
3258.57
3262.55
3268
3274.89
3283.21
3292.93
3304.05
3316.58
3330.5
3345.82
3362.53
3380.62
3400.08
3420.87
3442.96
3466.3
3490.81
3516.41
3542.98
3570.41
3598.52
3627.15
3656.08
3685.1
3713.95
3742.37
3770.09
3796.82
3822.27
3846.15
3868.2
3888.14
3905.72
3920.73
3932.96
3942.26
3948.49
3951.58
3951.44
3948.12
3941.68
3932.16
3919.69
3904.44
3886.61
3866.44
3844.21
3820.2
3794.73
3768.14
3740.77
3712.95
3685.02
3657.28
3630.03
3603.53
3578.01
3553.67
3530.66
3509.14
3489.18
3470.89
3454.29
3439.43
3426.31
3414.93
3405.27
3397.31
3391.02
3386.34
3383.23
3381.68
3381.61
3382.97
3385.72
3389.81
3395.21
3401.87
3409.74
3418.78
3428.93
3440.14
3452.35
3465.5
3479.52
3494.34
3509.87
3526.02
3542.69
3559.78
3577.15
3594.32
3611.88
3629.42
3646.79
3663.84
3680.43
3696.43
3711.69
3726.1
3739.53
3751.88
3763.05
3772.94
3781.49
3788.65
3794.36
3798.62
3801.42
3802.77
3802.47
3800.79
3797.78
3793.49
3788.01
3781.43
3773.87
3765.43
3756.24
3746.42
3736.09
3725.37
3714.39
3703.26
3692.1
3681
3670.05
3659.36
3648.98
3639
3629.47
3620.44
3611.96
3604.06
3596.78
3590.15
3584.43
3579
3574.16
3569.93
3566.3
3563.27
3560.8
3558.9
3557.52
3556.66
3556.28
3556.4
3556.98
3557.97
3400.15
3428.76
3458.81
3489.42
3517.27
3550.73
3585.14
3619.69
3653.91
3687.44
3719.83
3750.64
3779.48
3805.92
3829.56
3850.02
3866.97
3880.18
3889.43
3894.59
3895.54
3892.2
3884.8
3873.34
3858.01
3839.06
3816.76
3791.44
3763.49
3733.3
3701.29
3667.93
3633.66
3598.93
3564.16
3529.81
3496.89
3464.55
3433.01
3402.6
3373.62
3346.22
3320.54
3296.65
3274.58
3254.35
3235.94
3219.35
3204.52
3191.43
3180.01
3170.21
3161.99
3155.3
3150.12
3146.41
3144.17
3143.43
3144.34
3146.8
3150.8
3156.37
3163.55
3172.37
3182.84
3195.02
3208.92
3224.54
3241.9
3260.98
3281.76
3304.21
3328.26
3353.84
3380.87
3409.22
3438.77
3469.37
3500.82
3532.93
3565.46
3598.15
3630.7
3662.8
3694.12
3724.32
3753.01
3779.84
3804.44
3826.45
3845.54
3861.42
3873.83
3882.56
3887.43
3888.33
3885.19
3878.08
3866.97
3852
3833.33
3811.2
3785.88
3757.72
3727.11
3694.48
3660.29
3625.04
3589.22
3553.32
3517.81
3483.11
3449.59
3417.56
3387.28
3358.91
3332.58
3308.36
3286.25
3266.25
3248.3
3232.33
3218.25
3205.97
3195.38
3186.39
3178.89
3172.78
3167.98
3164.41
3161.98
3160.68
3160.47
3161.33
3163.29
3166.38
3170.67
3176.26
3183.25
3191.75
3201.9
3213.82
3227.63
3243.43
3261.28
3281.25
3303.32
3327.46
3353.59
3381.59
3411.27
3442.41
3474.78
3508.07
3541.94
3576.04
3610.01
3643.45
3675.97
3707.19
3736.71
3764.19
3789.29
3811.71
3831.18
3847.48
3860.42
3869.87
3875.72
3877.92
3876.42
3871.32
3862.65
3850.51
3835.03
3816.39
3794.82
3770.54
3743.84
3715.03
3684.45
3652.44
3619.38
3585.64
3551.61
3517.64
3484.09
3451.28
3419.52
3389.05
3360.1
3332.86
3307.46
3284.01
3262.58
3243.2
3225.88
3210.61
3197.35
3186.07
3176.71
3169.22
3163.54
3159.6
3157.37
3156.77
3157.73
3160.23
3164.22
3169.67
3176.56
3184.88
3194.6
3205.72
3218.24
3232.16
3247.48
3264.19
3282.28
3301.74
3322.53
3344.62
3367.97
3392.49
3418.1
3444.69
3472.13
3500.27
3528.93
3557.89
3586.95
3615.84
3644.31
3672.07
3698.85
3724.35
3748.29
3770.38
3790.37
3808
3823.04
3835.31
3844.63
3850.88
3853.98
3853.85
3850.51
3844.06
3834.51
3822
3806.71
3788.84
3768.62
3746.33
3722.27
3696.74
3670.1
3642.67
3614.8
3586.82
3559.04
3531.75
3505.22
3479.67
3455.31
3432.29
3410.75
3390.8
3372.49
3355.9
3341.04
3327.92
3316.55
3306.9
3298.95
3292.66
3287.99
3284.89
3283.34
3283.28
3284.65
3287.4
3291.51
3296.91
3303.58
3311.45
3320.49
3330.65
3341.87
3354.09
3367.24
3381.28
3396.11
3411.65
3427.81
3444.5
3461.61
3479
3496.18
3513.75
3531.32
3548.71
3565.78
3582.4
3598.42
3613.71
3628.14
3641.59
3653.96
3665.14
3675.04
3683.61
3690.77
3696.49
3700.75
3703.54
3704.89
3704.59
3702.9
3699.88
3695.57
3690.08
3683.48
3675.9
3667.44
3658.23
3648.39
3638.04
3627.3
3616.3
3605.16
3593.98
3582.86
3571.91
3561.2
3550.82
3540.82
3531.28
3522.25
3513.76
3505.86
3498.58
3491.96
3486.22
3480.79
3475.96
3471.73
3468.11
3465.08
3462.62
3460.71
3459.34
3458.48
3458.11
3458.23
3458.82
3459.82
3301.62
3330.28
3360.39
3391.09
3418.82
3452.39
3486.89
3521.52
3555.82
3589.43
3621.91
3652.82
3681.75
3708.29
3732.01
3752.55
3769.57
3782.83
3792.12
3797.3
3798.26
3794.92
3787.47
3775.97
3760.58
3741.55
3719.17
3693.76
3665.72
3635.43
3603.33
3569.88
3535.51
3500.69
3465.84
3431.41
3398.54
3366.15
3334.56
3304.12
3275.11
3247.71
3222.02
3198.13
3176.07
3155.84
3137.46
3120.87
3106.06
3092.98
3081.57
3071.79
3063.58
3056.9
3051.73
3048.02
3045.78
3045.04
3045.95
3048.4
3052.39
3057.95
3065.13
3073.93
3084.4
3096.57
3110.46
3126.07
3143.43
3162.51
3183.29
3205.74
3229.8
3255.39
3282.43
3310.79
3340.37
3370.99
3402.48
3434.63
3467.21
3499.95
3532.56
3564.74
3596.13
3626.41
3655.19
3682.1
3706.77
3728.86
3748.03
3763.97
3776.43
3785.2
3790.1
3791.01
3787.87
3780.74
3769.6
3754.58
3735.85
3713.64
3688.24
3659.99
3629.28
3596.55
3562.26
3526.9
3490.99
3455
3419.41
3384.65
3351.08
3319.02
3288.71
3260.34
3234.01
3209.79
3187.7
3167.71
3149.78
3133.83
3119.78
3107.52
3096.96
3087.99
3080.51
3074.42
3069.64
3066.07
3063.66
3062.37
3062.16
3063.02
3064.96
3068.04
3072.32
3077.88
3084.84
3093.32
3103.44
3115.34
3129.12
3144.89
3162.74
3182.69
3204.76
3228.91
3255.05
3283.07
3312.78
3343.97
3376.38
3409.72
3443.66
3477.83
3511.88
3545.4
3578.01
3609.3
3638.91
3666.47
3691.64
3714.13
3733.66
3750.01
3762.99
3772.46
3778.33
3780.53
3779.03
3773.91
3765.22
3753.03
3737.51
3718.82
3697.18
3672.83
3646.06
3617.17
3586.51
3554.42
3521.28
3487.47
3453.36
3419.33
3385.72
3352.86
3321.06
3290.56
3261.59
3234.33
3208.92
3185.47
3164.04
3144.66
3127.35
3112.09
3098.85
3087.58
3078.24
3070.76
3065.1
3061.17
3058.95
3058.35
3059.33
3061.83
3065.83
3071.28
3078.18
3086.49
3096.21
3107.33
3119.85
3133.77
3149.08
3165.79
3183.88
3203.33
3224.13
3246.23
3269.58
3294.11
3319.73
3346.34
3373.81
3401.98
3430.67
3459.68
3488.78
3517.73
3546.25
3574.08
3600.92
3626.48
3650.49
3672.64
3692.69
3710.37
3725.46
3737.77
3747.12
3753.39
3756.5
3756.37
3753.03
3746.55
3736.97
3724.42
3709.08
3691.15
3670.87
3648.51
3624.38
3598.78
3572.06
3544.57
3516.63
3488.59
3460.76
3433.42
3406.85
3381.28
3356.89
3333.85
3312.3
3292.33
3274.03
3257.43
3242.58
3229.47
3218.1
3208.46
3200.52
3194.24
3189.58
3186.49
3184.95
3184.9
3186.27
3189.04
3193.15
3198.56
3205.23
3213.11
3222.16
3232.33
3243.55
3255.78
3268.95
3283
3297.84
3313.4
3329.58
3346.29
3363.41
3380.82
3398.03
3415.63
3433.22
3450.64
3467.74
3484.39
3500.43
3515.75
3530.2
3543.68
3556.07
3567.27
3577.2
3585.77
3592.95
3598.67
3602.93
3605.72
3607.07
3606.76
3605.06
3602.02
3597.7
3592.19
3585.57
3577.96
3569.48
3560.24
3550.37
3540
3529.24
3518.22
3507.05
3495.85
3484.72
3473.75
3463.02
3452.63
3442.63
3433.08
3424.03
3415.54
3407.64
3400.36
3393.75
3387.99
3382.57
3377.73
3373.51
3369.89
3366.86
3364.41
3362.51
3361.14
3360.29
3359.92
3360.05
3360.64
3361.65
3203.01
3231.71
3261.89
3292.71
3320.3
3353.99
3388.61
3423.33
3457.73
3491.44
3524.03
3555.05
3584.1
3610.75
3634.58
3655.21
3672.31
3685.63
3694.97
3700.17
3701.14
3697.79
3690.3
3678.74
3663.28
3644.17
3621.69
3596.17
3568.01
3537.61
3505.39
3471.83
3437.36
3402.43
3367.47
3332.94
3300.15
3267.69
3236.03
3205.56
3176.52
3149.11
3123.42
3099.53
3077.48
3057.26
3038.89
3022.32
3007.53
2994.46
2983.07
2973.3
2965.11
2958.44
2953.27
2949.57
2947.34
2946.58
2947.49
2949.94
2953.93
2959.48
2966.64
2975.43
2985.88
2998.04
3011.92
3027.53
3044.88
3063.96
3084.74
3107.2
3131.26
3156.86
3183.92
3212.3
3241.91
3272.57
3304.1
3336.3
3368.94
3401.74
3434.42
3466.68
3498.17
3528.53
3557.41
3584.42
3609.2
3631.38
3650.64
3666.65
3679.18
3687.99
3692.93
3693.86
3690.72
3683.56
3672.38
3657.3
3638.5
3616.2
3590.7
3562.33
3531.5
3498.65
3464.23
3428.76
3392.73
3356.64
3320.96
3286.12
3252.49
3220.39
3190.05
3161.66
3135.34
3111.13
3089.05
3069.09
3051.18
3035.26
3021.23
3009
2998.47
2989.53
2982.07
2976.01
2971.24
2967.7
2965.3
2964.01
2963.8
2964.66
2966.59
2969.65
2973.91
2979.45
2986.38
2994.82
3004.91
3016.77
3030.53
3046.27
3064.1
3084.04
3106.1
3130.26
3156.42
3184.46
3214.21
3245.45
3277.92
3311.33
3345.34
3379.6
3413.74
3447.36
3480.06
3511.46
3541.17
3568.82
3594.09
3616.65
3636.25
3652.66
3665.69
3675.2
3681.08
3683.29
3681.79
3676.64
3667.91
3655.69
3640.1
3621.35
3599.63
3575.2
3548.34
3519.36
3488.6
3456.42
3423.19
3389.28
3355.09
3320.98
3287.3
3254.38
3222.53
3191.99
3162.99
3135.71
3110.29
3086.83
3065.4
3046.04
3028.74
3013.49
3000.26
2989.01
2979.69
2972.23
2966.58
2962.67
2960.46
2959.88
2960.87
2963.38
2967.38
2972.84
2979.73
2988.05
2997.76
3008.88
3021.4
3035.31
3050.62
3067.32
3085.41
3104.86
3125.66
3147.77
3171.13
3195.67
3221.31
3247.95
3275.44
3303.65
3332.39
3361.45
3390.6
3419.61
3448.21
3476.1
3503.02
3528.66
3552.74
3574.97
3595.09
3612.83
3627.99
3640.34
3649.73
3656.03
3659.15
3659.02
3655.67
3649.16
3639.54
3626.95
3611.55
3593.55
3573.19
3550.75
3526.53
3500.85
3474.04
3446.46
3418.45
3390.34
3362.44
3335.05
3308.43
3282.82
3258.4
3235.34
3213.77
3193.8
3175.49
3158.89
3144.04
3130.94
3119.58
3109.95
3102.02
3095.75
3091.1
3088.03
3086.5
3086.46
3087.84
3090.62
3094.74
3100.16
3106.84
3114.73
3123.79
3133.96
3145.2
3157.44
3170.62
3184.68
3199.54
3215.12
3231.32
3248.05
3265.2
3282.64
3299.87
3317.5
3335.12
3352.58
3369.71
3386.39
3402.47
3417.82
3432.31
3445.82
3458.23
3469.46
3479.4
3488
3495.18
3500.91
3505.17
3507.96
3509.29
3508.98
3507.27
3504.22
3499.88
3494.34
3487.7
3480.06
3471.55
3462.28
3452.38
3441.97
3431.18
3420.14
3408.94
3397.72
3386.56
3375.57
3364.83
3354.42
3344.41
3334.85
3325.8
3317.3
3309.39
3302.11
3295.51
3289.73
3284.31
3279.49
3275.27
3271.65
3268.63
3266.18
3264.28
3262.92
3262.07
3261.71
3261.85
3262.45
3263.46
3104.31
3133.06
3163.32
3194.3
3221.71
3255.56
3290.3
3325.13
3359.64
3393.46
3426.18
3457.34
3486.53
3513.3
3537.26
3558
3575.2
3588.59
3597.98
3603.21
3604.18
3600.83
3593.29
3581.66
3566.11
3546.9
3524.3
3498.66
3470.37
3439.84
3407.48
3373.79
3339.19
3304.14
3269.06
3234.41
3201.71
3169.17
3137.44
3106.91
3077.86
3050.43
3024.74
3000.85
2978.8
2958.6
2940.24
2923.7
2908.92
2895.88
2884.5
2874.75
2866.57
2859.92
2854.76
2851.07
2848.83
2848.07
2848.98
2851.42
2855.4
2860.94
2868.09
2876.87
2887.3
2899.45
2913.32
2928.92
2946.26
2965.33
2986.12
3008.58
3032.65
3058.27
3085.34
3113.75
3143.38
3174.08
3205.66
3237.92
3270.63
3303.51
3336.28
3368.63
3400.22
3430.7
3459.69
3486.82
3511.72
3534.01
3553.36
3569.47
3582.07
3590.94
3595.91
3596.86
3593.72
3586.53
3575.3
3560.16
3541.27
3518.87
3493.24
3464.75
3433.78
3400.78
3366.22
3330.6
3294.44
3258.23
3222.44
3187.52
3153.82
3121.67
3091.3
3062.9
3036.57
3012.37
2990.31
2970.38
2952.5
2936.61
2922.61
2910.42
2899.92
2891.01
2883.58
2877.54
2872.8
2869.28
2866.89
2865.61
2865.4
2866.25
2868.18
2871.22
2875.45
2880.95
2887.85
2896.26
2906.31
2918.13
2931.85
2947.57
2965.37
2985.3
3007.36
3031.52
3057.7
3085.77
3115.56
3146.86
3179.39
3212.88
3246.99
3281.35
3315.59
3349.32
3382.15
3413.66
3443.48
3471.25
3496.62
3519.28
3538.97
3555.44
3568.53
3578.07
3583.98
3586.19
3584.68
3579.52
3570.75
3558.46
3542.82
3523.98
3502.18
3477.65
3450.69
3421.6
3390.73
3358.43
3325.09
3291.08
3256.78
3222.58
3188.82
3155.84
3123.92
3093.34
3064.3
3037
3011.56
2988.1
2966.68
2947.32
2930.04
2914.81
2901.6
2890.37
2881.06
2873.63
2867.99
2864.11
2861.91
2861.34
2862.34
2864.86
2868.87
2874.34
2881.23
2889.55
2899.26
2910.38
2922.89
2936.8
2952.1
2968.8
2986.88
3006.34
3027.14
3049.25
3072.62
3097.18
3122.84
3149.5
3177.04
3205.29
3234.07
3263.19
3292.41
3321.49
3350.17
3378.15
3405.15
3430.88
3455.05
3477.37
3497.57
3515.39
3530.61
3543.03
3552.46
3558.79
3561.93
3561.8
3558.44
3551.89
3542.23
3529.57
3514.1
3496.02
3475.58
3453.04
3428.72
3402.94
3376.03
3348.36
3320.26
3292.06
3264.09
3236.63
3209.96
3184.3
3159.84
3136.76
3115.17
3095.19
3076.88
3060.28
3045.43
3032.34
3020.99
3011.37
3003.45
2997.2
2992.57
2989.51
2987.99
2987.96
2989.36
2992.14
2996.27
3001.71
3008.39
3016.3
3025.37
3035.55
3046.8
3059.06
3072.25
3086.33
3101.21
3116.81
3133.03
3149.79
3166.97
3184.44
3201.7
3219.36
3237.02
3254.52
3271.69
3288.41
3304.53
3319.92
3334.44
3347.99
3360.44
3371.69
3381.66
3390.27
3397.47
3403.21
3407.47
3410.26
3411.57
3411.26
3409.54
3406.46
3402.1
3396.53
3389.86
3382.19
3373.64
3364.34
3354.4
3343.96
3333.14
3322.06
3310.83
3299.58
3288.4
3277.39
3266.63
3256.2
3246.17
3236.6
3227.54
3219.03
3211.12
3203.84
3197.24
3191.45
3186.03
3181.21
3177
3173.39
3170.37
3167.92
3166.04
3164.68
3163.84
3163.49
3163.64
3164.24
3165.26
3005.52
3034.32
3064.69
3095.84
3123.04
3157.07
3191.96
3226.92
3261.55
3295.51
3328.37
3359.68
3389.02
3415.95
3440.05
3460.92
3478.22
3491.7
3501.15
3506.42
3507.4
3504.02
3496.43
3484.73
3469.08
3449.75
3427.02
3401.23
3372.8
3342.11
3309.6
3275.76
3241.02
3205.83
3170.6
3135.82
3103.23
3070.58
3038.77
3008.19
2979.1
2951.66
2925.96
2902.08
2880.05
2859.86
2841.52
2824.99
2810.24
2797.22
2785.87
2776.14
2767.97
2761.33
2756.19
2752.5
2750.27
2749.5
2750.41
2752.85
2756.81
2762.34
2769.47
2778.23
2788.65
2800.78
2814.64
2830.23
2847.57
2866.64
2887.42
2909.89
2933.97
2959.6
2986.69
3015.13
3044.8
3075.54
3107.18
3139.51
3172.29
3205.25
3238.12
3270.58
3302.3
3332.9
3362.03
3389.29
3414.32
3436.74
3456.21
3472.42
3485.1
3494.04
3499.05
3500.02
3496.88
3489.65
3478.37
3463.15
3444.16
3421.64
3395.89
3367.24
3336.11
3302.94
3268.22
3232.44
3196.12
3159.77
3123.87
3088.84
3055.06
3022.86
2992.45
2964.03
2937.7
2913.52
2891.49
2871.57
2853.73
2837.88
2823.92
2811.77
2801.3
2792.43
2785.04
2779.03
2774.31
2770.81
2768.44
2767.17
2766.96
2767.81
2769.72
2772.74
2776.94
2782.41
2789.26
2797.63
2807.63
2819.41
2833.09
2848.77
2866.55
2886.46
2908.52
2932.69
2958.89
2987
3016.84
3048.2
3080.81
3114.39
3148.6
3183.07
3217.44
3251.3
3284.26
3315.91
3345.86
3373.75
3399.24
3422.01
3441.79
3458.35
3471.5
3481.09
3487.02
3489.24
3487.72
3482.53
3473.71
3461.37
3445.65
3426.72
3404.82
3380.18
3353.1
3323.88
3292.88
3260.46
3226.99
3192.86
3158.45
3124.14
3090.29
3057.23
3025.25
2994.61
2965.53
2938.2
2912.75
2889.28
2867.86
2848.52
2831.25
2816.04
2802.85
2791.65
2782.36
2774.95
2769.34
2765.47
2763.3
2762.75
2763.76
2766.29
2770.31
2775.78
2782.68
2790.99
2800.7
2811.81
2824.32
2838.22
2853.52
2870.21
2888.29
2907.75
2928.55
2950.67
2974.05
2998.63
3024.31
3051.01
3078.58
3106.88
3135.72
3164.91
3194.21
3223.37
3252.14
3280.22
3307.32
3333.15
3357.42
3379.84
3400.14
3418.05
3433.35
3445.83
3455.31
3461.68
3464.83
3464.71
3461.33
3454.74
3445.03
3432.31
3416.76
3398.58
3378.04
3355.39
3330.96
3305.06
3278.04
3250.25
3222.04
3193.75
3165.69
3138.16
3111.43
3085.72
3061.22
3038.11
3016.5
2996.51
2978.19
2961.6
2946.75
2933.67
2922.33
2912.73
2904.82
2898.58
2893.97
2890.93
2889.42
2889.41
2890.82
2893.62
2897.76
2903.2
2909.9
2917.82
2926.9
2937.1
2948.36
2960.63
2973.85
2987.94
3002.84
3018.47
3034.72
3051.51
3068.72
3086.22
3103.52
3121.22
3138.93
3156.46
3173.69
3190.45
3206.62
3222.05
3236.62
3250.2
3262.68
3273.97
3283.97
3292.6
3299.81
3305.57
3309.83
3312.61
3313.91
3313.59
3311.86
3308.76
3304.37
3298.76
3292.06
3284.35
3275.76
3266.42
3256.44
3245.96
3235.1
3223.98
3212.72
3201.44
3190.23
3179.19
3168.41
3157.96
3147.91
3138.33
3129.25
3120.74
3112.82
3105.54
3098.95
3093.14
3087.73
3082.91
3078.7
3075.1
3072.09
3069.65
3067.77
3066.42
3065.59
3065.24
3065.4
3066.02
3067.05
2906.64
2935.5
2965.97
2997.33
3024.3
3058.54
3093.59
3128.69
3163.46
3197.57
3230.59
3262.07
3291.6
3318.7
3342.95
3363.96
3381.39
3394.97
3404.49
3409.79
3410.78
3407.38
3399.74
3387.94
3372.19
3352.73
3329.85
3303.89
3275.29
3244.43
3211.75
3177.73
3142.83
3107.48
3072.1
3037.16
3004.69
2971.93
2940.03
2909.39
2880.27
2852.81
2827.11
2803.23
2781.21
2761.04
2742.72
2726.22
2711.49
2698.49
2687.17
2677.46
2669.32
2662.69
2657.56
2653.88
2651.65
2650.87
2651.78
2654.21
2658.16
2663.67
2670.79
2679.53
2689.93
2702.05
2715.89
2731.47
2748.8
2767.86
2788.65
2811.12
2835.21
2860.86
2887.97
2916.44
2946.15
2976.95
3008.64
3041.05
3073.92
3106.98
3139.96
3172.54
3204.39
3235.14
3264.42
3291.83
3317.01
3339.57
3359.17
3375.5
3388.28
3397.28
3402.35
3403.34
3400.19
3392.93
3381.6
3366.29
3347.19
3324.53
3298.62
3269.8
3238.49
3205.14
3170.22
3134.26
3097.77
3061.27
3025.23
2990.09
2956.22
2923.95
2893.51
2865.07
2838.74
2814.57
2792.56
2772.69
2754.88
2739.07
2725.16
2713.04
2702.62
2693.79
2686.43
2680.46
2675.78
2672.3
2669.95
2668.69
2668.48
2669.32
2671.21
2674.21
2678.38
2683.81
2690.62
2698.93
2708.89
2720.62
2734.25
2749.89
2767.64
2787.53
2809.58
2833.76
2859.99
2888.14
2918.03
2949.46
2982.16
3015.85
3050.17
3084.77
3119.28
3153.28
3186.39
3218.19
3248.3
3276.33
3301.96
3324.85
3344.74
3361.39
3374.6
3384.24
3390.21
3392.43
3390.91
3385.68
3376.81
3364.4
3348.59
3329.57
3307.55
3282.79
3255.57
3226.22
3195.07
3162.5
3128.89
3094.62
3060.09
3025.66
2991.71
2958.55
2926.49
2895.8
2866.68
2839.31
2813.85
2790.38
2768.96
2749.63
2732.38
2717.19
2704.03
2692.85
2683.59
2676.2
2670.62
2666.78
2664.62
2664.09
2665.11
2667.66
2671.69
2677.16
2684.06
2692.37
2702.08
2713.19
2725.69
2739.59
2754.88
2771.57
2789.65
2809.1
2829.9
2852.03
2875.42
2900.02
2925.73
2952.46
2980.08
3008.43
3037.34
3066.6
3095.99
3125.25
3154.11
3182.3
3209.52
3235.47
3259.85
3282.39
3302.79
3320.8
3336.19
3348.74
3358.28
3364.69
3367.86
3367.74
3364.34
3357.72
3347.94
3335.15
3319.51
3301.23
3280.57
3257.8
3233.23
3207.2
3180.06
3152.14
3123.82
3095.42
3067.26
3039.65
3012.84
2987.08
2962.54
2939.39
2917.76
2897.75
2879.43
2862.84
2848
2834.92
2823.6
2814.01
2806.13
2799.9
2795.31
2792.29
2790.8
2790.8
2792.23
2795.04
2799.19
2804.65
2811.36
2819.29
2828.38
2838.6
2849.88
2862.17
2875.4
2889.52
2904.44
2920.09
2936.38
2953.2
2970.45
2988
3005.32
3023.07
3040.83
3058.42
3075.69
3092.51
3108.72
3124.2
3138.82
3152.45
3164.97
3176.3
3186.32
3194.98
3202.22
3207.98
3212.25
3215.02
3216.3
3215.98
3214.23
3211.11
3206.68
3201.04
3194.29
3186.54
3177.91
3168.52
3158.49
3147.97
3137.06
3125.91
3114.61
3103.29
3092.05
3080.98
3070.17
3059.7
3049.64
3040.03
3030.94
3022.42
3014.49
3007.21
3000.64
2994.81
2989.4
2984.59
2980.38
2976.79
2973.78
2971.35
2969.48
2968.14
2967.32
2966.98
2967.16
2967.78
2968.82
2807.67
2836.6
2867.18
2898.78
2925.49
2959.97
2995.19
3030.44
3065.36
3099.64
3132.85
3164.52
3194.24
3221.53
3245.96
3267.14
3284.7
3298.38
3307.98
3313.32
3314.33
3310.9
3303.19
3291.31
3275.43
3255.82
3232.78
3206.64
3177.84
3146.79
3113.92
3079.72
3044.63
3009.11
2973.55
2938.44
2906.12
2873.21
2841.21
2810.51
2781.35
2753.87
2728.16
2704.29
2682.28
2662.14
2643.84
2627.36
2612.67
2599.7
2588.4
2578.72
2570.6
2563.99
2558.87
2555.2
2552.97
2552.19
2553.09
2555.51
2559.45
2564.94
2572.04
2580.76
2591.14
2603.24
2617.06
2632.63
2649.95
2669.01
2689.8
2712.28
2736.38
2762.04
2789.18
2817.69
2847.44
2878.29
2910.06
2942.55
2975.51
3008.68
3041.79
3074.51
3106.51
3137.41
3166.86
3194.44
3219.79
3242.51
3262.25
3278.71
3291.6
3300.69
3305.8
3306.82
3303.67
3296.37
3284.97
3269.56
3250.34
3227.53
3201.45
3172.44
3140.93
3107.37
3072.24
3036.08
2999.4
2962.71
2926.52
2891.26
2857.3
2824.95
2794.47
2766.01
2739.68
2715.53
2693.55
2673.71
2655.95
2640.18
2626.32
2614.25
2603.88