/*--------------------------------*- C++ -*----------------------------------*\
| =========                 |                                                 |
| \\      /  F ield         | OpenFOAM: The Open Source CFD Toolbox           |
|  \\    /   O peration     | Version:  3.0.1                                 |
|   \\  /    A nd           | Web:      www.OpenFOAM.org                      |
|    \\/     M anipulation  |                                                 |
\*---------------------------------------------------------------------------*/
FoamFile
{
    version     2.0;
    format      ascii;
    class       volScalarField;
    location    "69";
    object      p_rgh;
}
// * * * * * * * * * * * * * * * * * * * * * * * * * * * * * * * * * * * * * //

dimensions      [1 -1 -2 0 0 0 0];

internalField   nonuniform List<scalar> 
21420
(
155.964
188.192
220.011
250.978
280.732
308.743
334.627
357.938
378.313
395.452
409.073
418.954
424.943
426.804
423.969
417.108
406.452
392.056
374.165
353.049
329.046
302.476
273.71
243.152
211.193
178.247
144.687
110.883
77.1903
43.8981
11.4206
-14.9645
-44.8907
-73.6386
-100.882
-126.479
-150.364
-172.5
-192.871
-211.485
-228.366
-243.544
-257.057
-268.948
-279.259
-288.032
-295.306
-301.115
-305.492
-308.46
-310.049
-310.245
-309.047
-306.473
-302.503
-297.146
-290.376
-282.161
-272.485
-261.315
-248.618
-234.354
-218.486
-200.993
-181.86
-161.076
-138.647
-114.617
-89.0424
-62.0218
-33.6655
-4.11172
26.4951
57.9341
89.9084
122.131
154.339
186.233
217.5
247.829
276.9
304.386
329.97
353.342
374.2
392.263
407.277
419.021
427.315
432.027
433.062
430.395
424.078
414.215
400.868
384.239
364.537
342.008
316.921
289.584
260.32
229.471
197.394
164.455
131.024
97.4694
64.1503
31.4047
-0.452427
-31.1503
-60.4576
-88.1852
-114.188
-138.369
-160.668
-181.061
-199.549
-216.154
-230.913
-243.873
-255.085
-264.598
-272.46
-278.719
-283.42
-286.607
-288.333
-288.615
-287.471
-285.001
-281.203
-276.111
-269.758
-262.162
-253.341
-243.302
-232.047
-219.563
-205.832
-190.825
-174.505
-156.839
-137.786
-117.318
-95.4187
-72.0917
-47.3573
-21.259
6.12384
34.6967
64.2906
94.707
125.729
157.097
188.514
219.655
250.165
279.675
307.797
334.141
358.317
379.949
398.67
414.143
426.065
434.182
438.3
438.186
433.937
425.503
412.927
396.413
376.203
352.611
326.011
296.82
265.492
232.497
198.32
163.433
128.292
93.3279
58.9346
25.4785
-6.76751
-37.5363
-66.6226
-93.8751
-119.193
-142.516
-163.825
-183.132
-200.476
-215.916
-229.522
-241.375
-251.558
-260.15
-267.232
-272.881
-277.166
-280.149
-281.9
-282.452
-281.812
-280.03
-277.105
-273.008
-267.721
-261.208
-253.431
-244.361
-233.952
-222.161
-208.944
-194.25
-178.027
-160.227
-140.809
-119.756
-97.061
-72.7478
-46.8762
-19.5344
9.1519
39.0071
70.0495
101.639
133.7
165.891
197.84
229.144
259.375
288.09
314.841
339.192
360.731
379.074
393.884
404.873
411.815
414.517
412.936
407.044
396.953
382.759
364.724
343.155
318.42
290.935
261.148
229.535
196.581
162.772
128.577
94.4407
60.7707
27.9142
-3.8408
-34.257
-63.1546
-90.4023
-115.906
-139.612
-161.483
-181.505
-199.683
-216.033
-230.583
-243.375
-254.452
-263.886
-271.756
-278.138
-283.111
-286.703
-288.908
-289.827
-289.585
-288.059
-285.232
-281.04
-275.448
-268.385
-259.784
-249.556
-237.608
-223.84
-208.186
-190.542
-170.917
-149.287
-125.631
-100.092
-72.7788
-43.8615
-13.5889
18.4451
56.2068
92.5222
128.472
163.808
198.214
231.384
262.833
292.134
318.943
342.836
363.492
380.589
393.869
403.146
408.245
409.21
406.833
400.374
389.852
375.507
357.55
336.258
311.907
284.859
255.556
224.375
191.77
158.147
123.926
89.5448
55.349
21.8702
-9.95562
-41.648
-72.1802
-101.285
-128.805
-154.615
-178.644
-200.84
-221.187
-239.697
-256.389
-271.298
-284.474
-295.961
-305.806
-314.054
-320.743
-325.902
-329.556
-331.74
-332.436
-331.567
-329.131
-325.111
-319.495
-312.215
-303.225
155.948
188.191
220.026
251.009
280.779
308.809
334.711
358.039
378.43
395.583
409.215
419.105
425.1
426.985
424.125
417.259
406.593
392.186
374.281
353.15
329.13
302.543
273.759
243.183
211.207
178.246
144.671
110.854
77.15
43.8453
11.3387
-15.0117
-44.964
-73.7183
-100.964
-126.561
-150.445
-172.58
-192.949
-211.561
-228.439
-243.614
-257.125
-269.013
-279.322
-288.093
-295.365
-301.173
-305.548
-308.515
-310.103
-310.297
-309.102
-306.528
-302.558
-297.202
-290.433
-282.22
-272.546
-261.379
-248.683
-234.422
-218.556
-201.065
-181.933
-161.15
-138.722
-114.691
-89.1156
-62.0923
-33.7324
-4.17396
26.4411
57.8883
89.8717
122.105
154.324
186.23
217.51
247.853
276.938
304.438
330.036
353.423
374.294
392.369
407.394
419.148
427.447
432.163
433.205
430.529
424.208
414.34
400.984
384.344
364.63
342.086
316.985
289.632
260.352
229.487
197.394
164.439
130.993
97.425
64.0934
31.3369
-0.529349
-31.2344
-60.5472
-88.2781
-114.283
-138.464
-160.763
-181.154
-199.639
-216.241
-230.997
-243.954
-255.164
-264.674
-272.533
-278.791
-283.49
-286.675
-288.4
-288.678
-287.535
-285.063
-281.264
-276.172
-269.818
-262.222
-253.401
-243.363
-232.108
-219.625
-205.896
-190.891
-174.575
-156.91
-137.86
-117.394
-95.4958
-72.1694
-47.4346
-21.3347
6.05092
34.6275
64.2275
94.6516
125.683
157.062
188.492
219.647
250.173
279.698
307.838
334.199
358.394
380.042
398.78
414.267
426.202
434.329
438.455
438.346
434.089
425.651
413.067
396.54
376.314
352.704
326.084
296.872
265.523
232.507
198.31
163.405
128.248
93.269
58.8629
25.3976
-6.85667
-37.6312
-66.7211
-93.9754
-119.293
-142.615
-163.922
-183.226
-200.566
-216.002
-229.604
-241.453
-251.632
-260.221
-267.299
-272.945
-277.227
-280.207
-281.957
-282.507
-281.865
-280.085
-277.161
-273.065
-267.779
-261.268
-253.493
-244.424
-234.017
-222.229
-209.015
-194.323
-178.103
-160.305
-140.89
-119.839
-97.144
-72.8308
-46.9575
-19.6127
9.07842
38.945
69.9844
101.588
133.662
165.867
197.833
229.155
259.405
288.139
314.91
339.281
360.837
379.197
394.021
405.021
411.972
414.684
413.094
407.199
397.101
382.895
364.845
343.257
318.503
290.997
261.188
229.554
196.58
162.751
128.539
94.3883
60.706
27.8398
-3.9224
-34.3436
-63.2442
-90.4931
-115.998
-139.702
-161.572
-181.592
-199.768
-216.115
-230.662
-243.45
-254.523
-263.953
-271.819
-278.197
-283.166
-286.756
-288.96
-289.882
-289.637
-288.112
-285.287
-281.097
-275.508
-268.449
-259.851
-249.628
-237.684
-223.921
-208.271
-190.63
-171.008
-149.378
-125.722
-100.18
-72.8635
-43.9425
-13.6657
18.3725
56.1664
92.4924
128.454
163.805
198.228
231.417
262.885
292.206
319.034
342.944
363.616
380.727
394.019
403.304
408.412
409.379
406.987
400.523
389.998
375.643
357.673
336.365
311.996
284.929
255.606
224.407
191.783
158.143
123.906
89.5103
55.3025
21.8161
-10.0236
-41.7218
-72.2586
-101.366
-128.888
-154.699
-178.728
-200.923
-221.268
-239.775
-256.464
-271.371
-284.544
-296.027
-305.871
-314.116
-320.804
-325.962
-329.615
-331.799
-332.492
-331.626
-329.191
-325.172
-319.558
-312.28
-303.291
155.916
188.189
220.055
251.071
280.876
308.94
334.879
358.242
378.665
395.845
409.5
419.406
425.413
427.349
424.434
417.561
406.877
392.446
374.515
353.353
329.299
302.678
273.857
243.246
211.236
178.243
144.64
110.796
77.0695
43.7405
11.1771
-15.1083
-45.1114
-73.8778
-101.127
-126.725
-150.608
-172.739
-193.105
-211.712
-228.585
-243.755
-257.261
-269.144
-279.448
-288.215
-295.483
-301.288
-305.66
-308.625
-310.211
-310.402
-309.211
-306.637
-302.668
-297.313
-290.546
-282.337
-272.667
-261.504
-248.812
-234.555
-218.693
-201.206
-182.078
-161.297
-138.869
-114.838
-89.2587
-62.2301
-33.8627
-4.29501
26.3369
57.8007
89.8024
122.056
154.299
186.229
217.536
247.906
277.02
304.549
330.177
353.593
374.491
392.592
407.639
419.411
427.724
432.449
433.504
430.811
424.484
414.604
401.232
384.57
364.83
342.258
317.127
289.742
260.43
229.533
197.409
164.423
130.947
97.3519
63.9953
31.2169
-0.667263
-31.3867
-60.7101
-88.4477
-114.456
-138.637
-160.934
-181.322
-199.802
-216.399
-231.149
-244.1
-255.304
-264.808
-272.663
-278.916
-283.612
-286.794
-288.515
-288.785
-287.644
-285.169
-281.367
-276.274
-269.918
-262.322
-253.501
-243.464
-232.211
-219.731
-206.005
-191.005
-174.693
-157.033
-137.988
-117.525
-95.6301
-72.3051
-47.5694
-21.4667
5.92451
34.5082
64.1206
94.5597
125.61
157.01
188.465
219.648
250.205
279.764
307.938
334.335
358.565
380.248
399.017
414.534
426.494
434.64
438.776
438.685
434.411
425.965
413.364
396.811
376.553
352.907
326.246
296.993
265.601
232.544
198.308
163.366
128.176
93.1676
58.736
25.2524
-7.01817
-37.8041
-66.9012
-94.159
-119.477
-142.796
-164.098
-183.396
-200.729
-216.156
-229.75
-241.591
-251.762
-260.343
-267.414
-273.054
-277.331
-280.307
-282.053
-282.598
-281.956
-280.177
-277.254
-273.161
-267.877
-261.369
-253.598
-244.533
-234.131
-222.348
-209.139
-194.453
-178.238
-160.446
-141.036
-119.987
-97.2935
-72.9802
-47.104
-19.7532
8.94763
38.8339
69.872
101.503
133.602
165.836
197.834
229.191
259.479
288.253
315.063
339.473
361.066
379.459
394.311
405.333
412.299
415.032
413.422
407.525
397.411
383.182
365.101
343.477
318.683
291.134
261.282
229.606
196.591
162.725
128.478
94.2972
60.5905
27.7046
-4.0721
-34.5036
-63.4102
-90.6619
-116.167
-139.87
-161.738
-181.754
-199.925
-216.267
-230.808
-243.59
-254.656
-264.078
-271.937
-278.308
-283.27
-286.855
-289.058
-289.986
-289.737
-288.214
-285.392
-281.207
-275.624
-268.572
-259.983
-249.769
-237.835
-224.081
-208.439
-190.804
-171.186
-149.557
-125.9
-100.352
-73.0306
-44.1024
-13.8177
18.2295
56.087
92.4342
128.42
163.801
198.257
231.484
262.991
292.35
319.216
343.162
363.867
381.006
394.32
403.622
408.746
409.716
407.294
400.824
390.29
375.918
357.919
336.579
312.174
285.069
255.707
224.47
191.81
158.134
123.866
89.4414
55.2094
21.7073
-10.1594
-41.8694
-72.4154
-101.53
-129.055
-154.867
-178.895
-201.087
-221.428
-239.931
-256.614
-271.515
-284.682
-296.161
-305.999
-314.241
-320.925
-326.082
-329.735
-331.917
-332.604
-331.745
-329.311
-325.295
-319.684
-312.41
-303.425
155.869
188.186
220.098
251.163
281.02
309.138
335.13
358.546
379.017
396.239
409.927
419.858
425.88
427.875
424.906
418.018
407.302
392.837
374.865
353.657
329.552
302.879
274.004
243.34
211.28
178.238
144.592
110.71
76.9487
43.5849
10.9449
-15.2637
-45.3344
-74.1176
-101.371
-126.97
-150.851
-172.979
-193.339
-211.939
-228.805
-243.966
-257.464
-269.34
-279.637
-288.397
-295.66
-301.46
-305.829
-308.791
-310.373
-310.561
-309.375
-306.8
-302.831
-297.48
-290.717
-282.513
-272.848
-261.691
-249.006
-234.756
-218.9
-201.419
-182.296
-161.518
-139.091
-115.057
-89.4738
-62.4372
-34.0585
-4.47709
26.1807
57.6689
89.6981
121.984
154.26
186.228
217.574
247.987
277.144
304.717
330.389
353.848
374.788
392.926
408.007
419.807
428.141
432.878
433.944
431.243
424.903
415.002
401.605
384.91
365.133
342.518
317.342
289.91
260.55
229.605
197.433
164.401
130.88
97.2442
63.85
31.0391
-0.872271
-31.6134
-60.9526
-88.7004
-114.714
-138.896
-161.19
-181.572
-200.045
-216.633
-231.375
-244.317
-255.511
-265.008
-272.855
-279.102
-283.792
-286.969
-288.684
-288.946
-287.806
-285.324
-281.519
-276.424
-270.066
-262.469
-253.648
-243.612
-232.362
-219.887
-206.167
-191.172
-174.869
-157.216
-138.176
-117.719
-95.8292
-72.5063
-47.7692
-21.6625
5.73698
34.3314
63.9626
94.4242
125.502
156.935
188.428
219.653
250.257
279.865
308.091
334.54
358.823
380.558
399.376
414.937
426.935
435.109
439.261
439.195
434.9
426.439
413.812
397.221
376.915
353.213
326.493
297.177
265.721
232.602
198.306
163.309
128.069
93.0176
58.5477
25.0365
-7.25863
-38.0616
-67.1694
-94.4325
-119.751
-143.066
-164.361
-183.649
-200.97
-216.386
-229.967
-241.795
-251.955
-260.525
-267.586
-273.217
-277.484
-280.453
-282.193
-282.732
-282.092
-280.313
-277.391
-273.302
-268.022
-261.519
-253.754
-244.695
-234.3
-222.524
-209.324
-194.646
-178.439
-160.655
-141.253
-120.208
-97.5161
-73.2025
-47.3219
-19.9624
8.75349
38.6658
69.7082
101.377
133.514
165.791
197.837
229.248
259.593
288.425
315.296
339.764
361.412
379.854
394.749
405.804
412.793
415.548
413.926
408.019
397.879
383.615
365.488
343.81
318.955
291.342
261.426
229.686
196.61
162.686
128.388
94.1623
60.4187
27.5035
-4.29522
-34.742
-63.658
-90.9139
-116.42
-140.122
-161.985
-181.996
-200.161
-216.495
-231.028
-243.799
-254.855
-264.266
-272.114
-278.475
-283.425
-287.004
-289.207
-290.14
-289.887
-288.366
-285.549
-281.372
-275.798
-268.757
-260.181
-249.981
-238.06
-224.32
-208.69
-191.066
-171.454
-149.827
-126.168
-100.612
-73.2814
-44.3423
-14.0462
18.0133
55.9678
92.3465
128.369
163.794
198.301
231.584
263.15
292.567
319.489
343.489
364.242
381.424
394.772
404.1
409.247
410.218
407.761
401.278
390.731
376.329
358.289
336.9
312.441
285.279
255.859
224.564
191.848
158.121
123.805
89.3378
55.0696
21.5433
-10.363
-42.0909
-72.6507
-101.775
-129.306
-155.119
-179.146
-201.334
-221.669
-240.164
-256.839
-271.731
-284.89
-296.36
-306.191
-314.428
-321.107
-326.262
-329.913
-332.094
-332.773
-331.922
-329.492
-325.48
-319.873
-312.604
-303.625
155.805
188.181
220.156
251.287
281.212
309.401
335.465
358.952
379.487
396.764
410.498
420.462
426.503
428.523
425.543
418.629
407.87
393.358
375.332
354.062
329.889
303.147
274.2
243.466
211.337
178.232
144.529
110.594
76.7878
43.38
10.6602
-15.4963
-45.6352
-74.438
-101.698
-127.298
-151.176
-173.298
-193.65
-212.242
-229.097
-244.248
-257.736
-269.601
-279.888
-288.641
-295.896
-301.69
-306.053
-309.011
-310.588
-310.774
-309.592
-307.017
-303.05
-297.702
-290.944
-282.746
-273.089
-261.941
-249.265
-235.023
-219.176
-201.703
-182.587
-161.812
-139.386
-115.351
-89.7608
-62.7136
-34.32
-4.72011
25.9719
57.4926
89.5588
121.886
154.209
186.226
217.625
248.093
277.308
304.941
330.672
354.188
375.183
393.373
408.498
420.335
428.697
433.451
434.52
431.825
425.466
415.535
402.103
385.365
365.537
342.865
317.629
290.135
260.71
229.701
197.465
164.371
130.792
97.1006
63.6563
30.8018
-1.14561
-31.9156
-61.276
-89.0374
-115.058
-139.241
-161.531
-181.906
-200.369
-216.945
-231.675
-244.605
-255.788
-265.274
-273.111
-279.349
-284.032
-287.202
-288.908
-289.162
-288.02
-285.531
-281.722
-276.623
-270.263
-262.665
-253.844
-243.81
-232.564
-220.094
-206.381
-191.396
-175.102
-157.458
-138.427
-117.978
-96.0943
-72.7741
-48.0355
-21.9234
5.48682
34.096
63.7522
94.2437
125.358
156.835
188.379
219.66
250.325
280
308.294
334.815
359.169
380.973
399.856
415.476
427.523
435.736
439.909
439.866
435.559
427.073
414.41
397.768
377.398
353.623
326.822
297.422
265.881
232.679
198.304
163.233
127.927
92.8174
58.2965
24.7486
-7.57951
-38.4052
-67.5272
-94.7973
-120.116
-143.426
-164.711
-183.986
-201.292
-216.692
-230.256
-242.068
-252.211
-260.767
-267.815
-273.433
-277.688
-280.649
-282.381
-282.91
-282.272
-280.493
-277.574
-273.489
-268.214
-261.718
-253.961
-244.911
-234.524
-222.759
-209.569
-194.903
-178.707
-160.933
-141.541
-120.502
-97.8131
-73.4988
-47.6125
-20.2412
8.49443
38.4374
69.4935
101.209
133.397
165.731
197.841
229.324
259.744
288.656
315.607
340.152
361.873
380.382
395.333
406.434
413.453
416.224
414.608
408.683
398.506
384.194
366.005
344.254
319.318
291.62
261.618
229.793
196.635
162.635
128.268
93.9822
60.1894
27.2351
-4.59294
-35.0598
-63.9884
-91.2501
-116.758
-140.457
-162.315
-182.318
-200.475
-216.8
-231.321
-244.079
-255.121
-264.517
-272.35
-278.697
-283.634
-287.202
-289.408
-290.343
-290.087
-288.568
-285.758
-281.592
-276.03
-269.004
-260.444
-250.263
-238.361
-224.64
-209.026
-191.415
-171.811
-150.186
-126.525
-100.958
-73.616
-44.6624
-14.3515
17.7245
55.8092
92.2291
128.3
163.785
198.36
231.718
263.362
292.856
319.854
343.925
364.743
381.981
395.374
404.737
409.912
410.879
408.399
401.892
391.322
376.878
358.783
337.329
312.797
285.558
256.062
224.69
191.9
158.103
123.724
89.1994
54.8829
21.3233
-10.6346
-42.3864
-72.9647
-102.102
-129.64
-155.456
-179.481
-201.664
-221.99
-240.475
-257.139
-272.019
-285.167
-296.626
-306.448
-314.676
-321.35
-326.5
-330.15
-332.327
-333.003
-332.159
-329.733
-325.726
-320.125
-312.863
-303.892
155.725
188.174
220.228
251.44
281.452
309.73
335.884
359.46
380.075
397.421
411.211
421.217
427.283
429.316
426.336
419.392
408.581
394.011
375.915
354.568
330.311
303.482
274.444
243.622
211.409
178.224
144.448
110.45
76.5868
43.1269
10.3297
-15.8132
-46.0158
-74.8397
-102.107
-127.708
-151.583
-173.698
-194.04
-212.62
-229.463
-244.6
-258.075
-269.927
-280.203
-288.945
-296.191
-301.977
-306.334
-309.286
-310.857
-311.043
-309.862
-307.288
-303.322
-297.979
-291.228
-283.039
-273.391
-262.254
-249.588
-235.358
-219.522
-202.059
-182.95
-162.18
-139.756
-115.718
-90.12
-63.0596
-34.6473
-5.02357
25.7098
57.2716
89.3842
121.764
154.144
186.224
217.689
248.227
277.514
305.22
331.024
354.613
375.677
393.931
409.113
420.996
429.392
434.167
435.241
432.549
426.171
416.202
402.726
385.933
366.041
343.299
317.988
290.415
260.911
229.821
197.505
164.333
130.681
96.9206
63.4137
30.5043
-1.48784
-32.2942
-61.681
-89.4593
-115.488
-139.672
-161.958
-182.323
-200.774
-217.336
-232.051
-244.966
-256.134
-265.606
-273.432
-279.659
-284.331
-287.493
-289.188
-289.434
-288.287
-285.791
-281.976
-276.873
-270.509
-262.91
-254.089
-244.057
-232.815
-220.353
-206.649
-191.675
-175.392
-157.761
-138.742
-118.303
-96.426
-73.109
-48.3689
-22.2503
5.17304
33.8017
63.4887
94.0175
125.178
156.71
188.316
219.669
250.411
280.168
308.549
335.158
359.601
381.491
400.455
416.149
428.26
436.521
440.723
440.699
436.389
427.868
415.16
398.453
378.003
354.136
327.234
297.728
266.081
232.775
198.301
163.138
127.749
92.5664
57.9817
24.3875
-7.98159
-38.8357
-67.9751
-95.2538
-120.572
-143.876
-165.149
-184.408
-201.695
-217.074
-230.617
-242.409
-252.532
-261.069
-268.1
-273.702
-277.944
-280.892
-282.614
-283.135
-282.496
-280.719
-277.801
-273.723
-268.456
-261.967
-254.221
-245.18
-234.805
-223.052
-209.876
-195.224
-179.043
-161.282
-141.901
-120.87
-98.1851
-73.8699
-47.9764
-20.59
8.16918
38.1474
69.2276
100.998
133.249
165.655
197.846
229.418
259.934
288.945
315.995
340.638
362.451
381.042
396.064
407.221
414.279
417.067
415.461
409.514
399.292
384.919
366.652
344.81
319.773
291.968
261.857
229.926
196.666
162.571
128.117
93.756
59.9022
26.8989
-4.96589
-35.4577
-64.4018
-91.671
-117.18
-140.877
-162.727
-182.722
-200.868
-217.18
-231.688
-244.429
-255.453
-264.831
-272.644
-278.974
-283.895
-287.451
-289.658
-290.593
-290.336
-288.822
-286.02
-281.867
-276.32
-269.312
-260.774
-250.616
-238.738
-225.039
-209.446
-191.851
-172.258
-150.636
-126.972
-101.392
-74.0343
-45.0625
-14.7334
17.3609
55.6113
92.0817
128.212
163.772
198.432
231.884
263.626
293.218
320.31
344.47
365.37
382.679
396.129
405.534
410.739
411.7
409.208
402.669
392.063
377.565
359.4
337.864
313.241
285.908
256.314
224.846
191.964
158.08
123.623
89.0259
54.649
21.0463
-10.9742
-42.7561
-73.3576
-102.511
-130.059
-155.878
-179.9
-202.076
-222.392
-240.864
-257.514
-272.38
-285.513
-296.959
-306.769
-314.987
-321.653
-326.798
-330.445
-332.617
-333.293
-332.455
-330.034
-326.033
-320.44
-313.187
-304.226
155.627
188.166
220.314
251.624
281.739
310.124
336.387
360.069
380.781
398.21
412.069
422.124
428.219
430.263
427.282
420.304
409.435
394.794
376.616
355.176
330.818
303.883
274.736
243.81
211.493
178.213
144.351
110.275
76.3456
42.8262
9.95223
-16.2141
-46.4777
-75.3234
-102.598
-128.2
-152.071
-174.177
-194.508
-213.074
-229.902
-245.023
-258.482
-270.319
-280.581
-289.31
-296.545
-302.322
-306.67
-309.616
-311.18
-311.366
-310.186
-307.612
-303.65
-298.312
-291.569
-283.389
-273.754
-262.629
-249.976
-235.759
-219.936
-202.485
-183.386
-162.622
-140.2
-116.159
-90.5517
-63.4754
-35.0407
-5.3872
25.3934
57.0052
89.174
121.617
154.065
186.22
217.765
248.386
277.76
305.554
331.448
355.124
376.271
394.601
409.851
421.79
430.228
435.029
436.109
433.417
427.018
417.004
403.474
386.616
366.647
343.82
318.419
290.752
261.151
229.964
197.553
164.288
130.547
96.7036
63.1216
30.1462
-1.89962
-32.7496
-62.1682
-89.9666
-116.005
-140.191
-162.471
-182.825
-201.26
-217.805
-232.502
-245.399
-256.549
-266.005
-273.816
-280.03
-284.691
-287.841
-289.523
-289.761
-288.606
-286.102
-282.28
-277.172
-270.805
-263.203
-254.383
-244.354
-233.117
-220.664
-206.971
-192.009
-175.742
-158.125
-139.119
-118.692
-96.8246
-73.5113
-48.77
-22.6435
4.79497
33.4479
63.1716
93.745
124.961
156.558
188.24
219.678
250.513
280.369
308.854
335.57
360.119
382.113
401.176
416.958
429.144
437.464
441.702
441.697
437.386
428.826
416.061
399.276
378.729
354.751
327.728
298.095
266.32
232.89
198.296
163.023
127.534
92.2641
57.6033
23.9524
-8.46561
-39.3535
-68.5139
-95.8028
-121.121
-144.417
-165.676
-184.915
-202.179
-217.533
-231.051
-242.818
-252.918
-261.433
-268.443
-274.026
-278.25
-281.185
-282.894
-283.407
-282.766
-280.989
-278.075
-274.004
-268.746
-262.267
-254.533
-245.504
-235.141
-223.404
-210.244
-195.609
-179.445
-161.701
-142.334
-121.313
-98.6325
-74.3162
-48.4139
-21.0097
7.77703
37.7953
68.9098
100.746
133.071
165.563
197.851
229.529
260.16
289.29
316.461
341.221
363.144
381.835
396.943
408.168
415.272
418.083
416.484
410.513
400.236
385.79
367.43
345.477
320.318
292.385
262.145
230.085
196.702
162.492
127.935
93.4832
59.5564
26.4941
-5.41459
-35.9362
-64.8984
-92.1767
-117.688
-141.38
-163.223
-183.207
-201.34
-217.637
-232.128
-244.85
-255.852
-265.207
-272.998
-279.307
-284.21
-287.753
-289.959
-290.892
-290.634
-289.125
-286.334
-282.197
-276.669
-269.682
-261.169
-251.039
-239.189
-225.519
-209.95
-192.376
-172.795
-151.176
-127.509
-101.913
-74.5365
-45.5426
-15.1921
16.9233
55.375
91.9037
128.105
163.755
198.518
232.083
263.943
293.651
320.858
345.125
366.122
383.517
397.035
406.492
411.729
412.688
410.182
403.607
392.956
378.391
360.141
338.508
313.776
286.327
256.617
225.033
192.039
158.052
123.499
88.817
54.3676
20.7118
-11.3824
-43.2002
-73.8298
-103.003
-130.562
-156.384
-180.403
-202.57
-222.874
-241.331
-257.964
-272.812
-285.928
-297.358
-307.153
-315.36
-322.017
-327.156
-330.799
-332.965
-333.642
-332.809
-330.395
-326.402
-320.818
-313.576
-304.627
155.513
188.155
220.412
251.837
282.073
310.584
336.974
360.78
381.605
399.132
413.071
423.184
429.312
431.363
428.382
421.365
410.432
395.708
377.434
355.886
331.41
304.351
275.077
244.027
211.591
178.199
144.236
110.071
76.0641
42.4784
9.52842
-16.7003
-47.0225
-75.8897
-103.172
-128.775
-152.641
-174.737
-195.055
-213.605
-230.414
-245.517
-258.957
-270.776
-281.022
-289.736
-296.958
-302.723
-307.063
-310.001
-311.559
-311.742
-310.563
-307.989
-304.031
-298.7
-291.967
-283.797
-274.176
-263.066
-250.429
-236.228
-220.42
-202.983
-183.895
-163.138
-140.719
-116.674
-91.0561
-63.9615
-35.5004
-5.81108
25.0222
56.6931
88.9278
121.444
153.972
186.214
217.852
248.572
278.047
305.944
331.941
355.719
376.963
395.383
410.713
422.717
431.204
436.035
437.125
434.429
428.004
417.941
404.349
387.412
367.354
344.428
318.921
291.144
261.43
230.13
197.607
164.234
130.389
96.449
62.7793
29.7268
-2.38149
-33.2826
-62.7382
-90.5599
-116.61
-140.797
-163.07
-183.41
-201.828
-218.353
-233.028
-245.904
-257.034
-266.471
-274.265
-280.464
-285.11
-288.247
-289.916
-290.144
-288.979
-286.465
-282.635
-277.521
-271.15
-263.546
-254.726
-244.7
-233.47
-221.026
-207.346
-192.4
-176.149
-158.55
-139.561
-119.148
-97.2901
-73.9816
-49.2392
-23.1037
4.35297
33.0334
62.8003
93.4256
124.706
156.38
188.15
219.687
250.63
280.602
309.209
336.049
360.724
382.839
402.016
417.903
430.178
438.566
442.848
442.864
438.548
429.945
417.114
400.237
379.578
355.469
328.305
298.524
266.599
233.022
198.289
162.887
127.282
91.9096
57.1627
23.4399
-9.03237
-39.9593
-69.1442
-96.4446
-121.763
-145.05
-166.291
-185.507
-202.744
-218.069
-231.558
-243.296
-253.368
-261.857
-268.843
-274.404
-278.608
-281.526
-283.22
-283.724
-283.079
-281.304
-278.394
-274.331
-269.084
-262.618
-254.896
-245.881
-235.535
-223.815
-210.674
-196.059
-179.916
-162.191
-142.84
-121.83
-99.1558
-74.838
-48.9252
-21.501
7.31727
37.3803
68.5394
100.45
132.861
165.453
197.855
229.658
260.423
289.693
317.005
341.902
363.953
382.761
397.969
409.274
416.433
419.271
417.679
411.679
401.34
386.809
368.338
346.256
320.955
292.872
262.479
230.269
196.743
162.399
127.72
93.163
59.1512
26.02
-5.93966
-36.4958
-65.4789
-92.7677
-118.28
-141.968
-163.801
-183.773
-201.891
-218.171
-232.641
-245.341
-256.317
-265.646
-273.411
-279.695
-284.577
-288.106
-290.308
-291.238
-290.981
-289.479
-286.7
-282.581
-277.074
-270.114
-261.631
-251.533
-239.717
-226.079
-210.539
-192.988
-173.422
-151.808
-128.136
-102.523
-75.1226
-46.1028
-15.7276
16.4112
55.1007
91.6945
127.978
163.733
198.617
232.314
264.313
294.157
321.497
345.89
367.001
384.495
398.094
407.61
412.884
413.844
411.322
404.707
394
379.356
361.007
339.258
314.399
286.816
256.97
225.251
192.126
158.017
123.353
88.5728
54.0383
20.3188
-11.8596
-43.7191
-74.3816
-103.578
-131.149
-156.975
-180.99
-203.148
-223.437
-241.876
-258.489
-273.316
-286.412
-297.823
-307.602
-315.795
-322.441
-327.572
-331.21
-333.373
-334.049
-333.223
-330.816
-326.832
-321.259
-314.029
-305.095
155.382
188.141
220.524
252.08
282.454
311.108
337.644
361.593
382.548
400.187
414.217
424.396
430.563
432.619
429.638
422.577
411.571
396.755
378.37
356.697
332.086
304.886
275.466
244.275
211.702
178.182
144.103
109.837
75.7419
42.0835
9.06038
-17.2747
-47.6518
-76.539
-103.829
-129.433
-153.293
-175.378
-195.68
-214.211
-230.999
-246.081
-259.499
-271.299
-281.525
-290.223
-297.43
-303.183
-307.512
-310.44
-311.991
-312.173
-310.993
-308.42
-304.467
-299.144
-292.421
-284.264
-274.659
-263.566
-250.946
-236.764
-220.973
-203.551
-184.478
-163.728
-141.313
-117.264
-91.6335
-64.5181
-36.0267
-6.29546
24.5954
56.3347
88.6449
121.245
153.865
186.207
217.951
248.783
278.373
306.389
332.505
356.399
377.755
396.277
411.698
423.777
432.32
437.188
438.289
435.588
429.132
419.013
405.349
388.324
368.163
345.123
319.494
291.591
261.748
230.319
197.669
164.171
130.207
96.1565
62.3861
29.2453
-2.93414
-33.894
-63.3915
-91.2398
-117.303
-141.491
-163.755
-184.08
-202.478
-218.98
-233.63
-246.482
-257.588
-267.003
-274.778
-280.959
-285.59
-288.712
-290.366
-290.581
-289.405
-286.88
-283.041
-277.92
-271.544
-263.938
-255.118
-245.095
-233.873
-221.44
-207.775
-192.847
-176.616
-159.037
-140.066
-119.669
-97.8228
-74.5204
-49.7768
-23.631
3.84637
32.5571
62.3746
93.0587
124.412
156.174
188.046
219.695
250.763
280.868
309.614
336.597
361.414
383.669
402.978
418.984
431.361
439.828
444.161
444.2
439.878
431.227
418.319
401.338
380.549
356.291
328.963
299.012
266.916
233.171
198.279
162.729
126.991
91.5023
56.6592
22.8492
-9.68266
-40.6538
-69.8666
-97.18
-122.498
-145.774
-166.995
-186.184
-203.39
-218.682
-232.137
-243.842
-253.883
-262.342
-269.3
-274.836
-279.017
-281.915
-283.593
-284.086
-283.437
-281.663
-278.76
-274.706
-269.471
-263.018
-255.311
-246.313
-235.985
-224.285
-211.165
-196.574
-180.454
-162.751
-143.418
-122.423
-99.7552
-75.4356
-49.5113
-22.0646
6.78914
36.9021
68.1157
100.109
132.62
165.326
197.857
229.804
260.722
290.152
317.625
342.68
364.879
383.821
399.143
410.54
417.762
420.633
419.046
413.013
402.605
387.974
369.377
347.148
321.683
293.427
262.86
230.478
196.788
162.29
127.473
92.7945
58.6859
25.476
-6.5418
-37.137
-66.1435
-93.4442
-118.959
-142.641
-164.463
-184.42
-202.521
-218.781
-233.229
-245.902
-256.85
-266.148
-273.882
-280.138
-284.998
-288.511
-290.707
-291.633
-291.377
-289.882
-287.118
-283.02
-277.538
-270.607
-262.157
-252.097
-240.319
-226.719
-211.213
-193.689
-174.139
-152.531
-128.854
-103.222
-75.7927
-46.7429
-16.3399
15.8156
54.7894
91.4531
127.83
163.706
198.727
232.577
264.734
294.735
322.227
346.764
368.007
385.615
399.305
408.889
414.204
415.169
412.63
405.969
395.197
380.461
361.997
340.117
315.111
287.375
257.372
225.498
192.224
157.975
123.184
88.2924
53.6606
19.8665
-12.4066
-44.3133
-75.0136
-104.236
-131.822
-157.652
-181.663
-203.809
-224.081
-242.5
-259.09
-273.893
-286.965
-298.355
-308.114
-316.291
-322.925
-328.047
-331.68
-333.839
-334.515
-333.696
-331.298
-327.324
-321.763
-314.547
-305.629
155.232
188.124
220.649
252.352
282.881
311.697
338.398
362.508
383.61
401.375
415.509
425.763
431.974
434.036
431.05
423.94
412.855
397.933
379.423
357.61
332.847
305.486
275.903
244.551
211.824
178.16
143.951
109.571
75.3785
41.6409
8.55268
-17.943
-48.3669
-77.272
-104.57
-130.175
-154.027
-176.099
-196.383
-214.893
-231.658
-246.715
-260.11
-271.886
-282.091
-290.77
-297.96
-303.699
-308.016
-310.935
-312.478
-312.656
-311.477
-308.904
-304.957
-299.643
-292.931
-284.789
-275.203
-264.129
-251.528
-237.367
-221.596
-204.192
-185.134
-164.393
-141.982
-117.929
-92.2846
-65.146
-36.6198
-6.84091
24.1126
55.9295
88.3249
121.019
153.744
186.198
218.062
249.019
278.74
306.889
333.138
357.164
378.646
397.285
412.808
424.972
433.579
438.486
439.601
436.892
430.401
420.221
406.475
389.35
369.073
345.905
320.14
292.093
262.106
230.531
197.736
164.098
130.001
95.8252
61.9415
28.7011
-3.55863
-34.5843
-64.129
-92.0072
-118.085
-142.274
-164.528
-184.835
-203.21
-219.685
-234.308
-247.132
-258.212
-267.603
-275.356
-281.517
-286.13
-289.235
-290.872
-291.073
-289.884
-287.347
-283.499
-278.369
-271.988
-264.379
-255.559
-245.54
-234.326
-221.906
-208.258
-193.35
-177.14
-159.584
-140.635
-120.256
-98.4234
-75.1282
-50.3833
-24.2256
3.27419
32.0189
61.8935
92.6436
124.08
155.94
187.926
219.703
250.911
281.165
310.068
337.212
362.19
384.603
404.061
420.202
432.693
441.25
445.641
445.707
441.376
432.673
419.679
402.578
381.643
357.216
329.704
299.562
267.271
233.337
198.265
162.549
126.66
91.0409
56.0882
22.1832
-10.4173
-41.438
-70.682
-98.0095
-123.328
-146.59
-167.789
-186.948
-204.118
-219.373
-232.79
-244.456
-254.462
-262.887
-269.814
-275.322
-279.477
-282.353
-284.012
-284.494
-283.84
-282.067
-279.17
-275.127
-269.906
-263.469
-255.779
-246.799
-236.492
-224.814
-211.718
-197.153
-181.06
-163.382
-144.071
-123.091
-100.431
-76.1095
-50.1731
-22.7012
6.19187
36.3599
67.6378
99.7244
132.345
165.18
197.858
229.966
261.057
290.667
318.323
343.555
365.922
385.015
400.467
411.967
419.261
422.17
420.587
414.516
404.031
389.289
370.549
348.151
322.501
294.052
263.287
230.712
196.836
162.166
127.191