/*--------------------------------*- C++ -*----------------------------------*\
| =========                 |                                                 |
| \\      /  F ield         | OpenFOAM: The Open Source CFD Toolbox           |
|  \\    /   O peration     | Version:  3.0.1                                 |
|   \\  /    A nd           | Web:      www.OpenFOAM.org                      |
|    \\/     M anipulation  |                                                 |
\*---------------------------------------------------------------------------*/
FoamFile
{
    version     2.0;
    format      ascii;
    class       volScalarField;
    location    "56.8";
    object      p_rgh;
}
// * * * * * * * * * * * * * * * * * * * * * * * * * * * * * * * * * * * * * //

dimensions      [1 -1 -2 0 0 0 0];

internalField   nonuniform List<scalar> 
21420
(
266.053
291.454
314.414
334.754
352.331
366.856
378.109
385.899
389.875
389.894
386.166
378.814
367.796
353.291
335.517
314.717
291.183
265.273
237.318
207.694
176.825
145.089
112.851
80.4887
48.3274
16.6569
-14.2709
-44.256
-73.1299
-100.755
-126.93
-148.321
-171.296
-193.061
-213.398
-232.276
-249.71
-265.73
-280.363
-293.638
-305.583
-316.222
-325.575
-333.657
-340.475
-346.015
-350.213
-353.13
-354.766
-355.119
-354.19
-351.955
-348.388
-343.459
-337.135
-329.381
-320.147
-309.362
-296.951
-282.82
-266.799
-248.728
-234.498
-214.359
-192.772
-169.655
-144.955
-118.817
-91.3171
-62.6174
-32.9057
-2.38255
28.7065
60.0609
91.3985
122.381
152.662
181.894
209.707
235.726
259.599
280.959
299.476
314.844
326.797
334.92
339.888
341.408
339.587
334.175
325.13
312.56
296.607
277.462
255.353
230.543
203.33
174.043
143.041
110.685
77.3458
43.401
9.22185
-24.8329
-58.4301
-91.2643
-123.063
-153.594
-182.664
-210.067
-235.793
-259.733
-281.85
-302.141
-320.628
-337.349
-352.356
-365.717
-377.5
-387.77
-396.598
-404.047
-410.167
-415.007
-418.612
-421.009
-422.216
-422.247
-421.103
-418.786
-415.29
-410.605
-404.718
-397.611
-389.265
-379.656
-368.76
-356.549
-342.988
-328.065
-311.747
-294.01
-274.828
-254.182
-232.062
-208.471
-183.433
-156.991
-129.222
-100.238
-70.1874
-39.2696
-7.72601
24.164
56.0732
87.6423
118.487
148.197
176.353
202.54
226.344
247.364
265.232
279.609
290.205
296.786
299.075
297.137
290.822
280.224
265.424
246.649
224.188
198.389
169.658
138.46
105.279
70.6189
34.9899
-1.11141
-37.2125
-72.8695
-107.693
-141.349
-173.565
-204.132
-232.901
-259.775
-284.699
-307.657
-328.662
-347.75
-364.971
-380.391
-394.111
-406.204
-416.75
-425.833
-433.527
-439.899
-445.006
-448.894
-451.604
-453.165
-453.595
-452.909
-451.114
-448.206
-444.174
-439.003
-432.673
-425.161
-416.44
-406.48
-395.244
-382.693
-368.786
-353.473
-336.708
-318.493
-298.791
-277.599
-254.929
-230.809
-205.295
-178.463
-150.424
-121.314
-91.3029
-60.5946
-29.43
1.92084
33.1518
63.9187
93.8543
122.566
149.638
174.654
197.2
216.877
233.322
246.204
255.251
260.252
261.058
257.542
249.819
237.997
222.168
202.631
179.716
153.821
125.384
94.8777
62.7946
29.6308
-4.13608
-38.0527
-71.7023
-104.713
-136.756
-167.557
-196.893
-224.595
-250.543
-274.662
-296.907
-317.268
-335.721
-351.208
-365.36
-377.569
-387.824
-396.119
-402.476
-406.924
-409.511
-410.259
-409.295
-406.716
-402.401
-396.498
-389.135
-380.417
-370.472
-359.405
-347.379
-334.51
-320.93
-306.736
-292.026
-277.097
-262.584
-248.682
-228.567
-209.478
-189.538
-169.123
-147.906
-125.752
-102.382
-77.7101
-51.6068
-23.9759
5.12205
35.6105
67.3422
100.016
133.31
166.827
200.108
232.73
264.221
294.095
321.935
347.311
369.84
389.175
405.017
417.135
425.357
429.566
428.409
423.103
413.806
400.724
384.188
364.483
341.916
316.803
289.591
260.684
230.472
199.428
167.931
136.367
105.049
74.2602
44.2696
15.2499
-12.6538
-39.3188
-64.6928
-88.7217
-111.383
-132.655
-152.49
-170.598
-187.582
-203.568
-218.324
-231.791
-243.939
-254.744
-264.186
-272.253
-278.937
266.107
291.525
314.501
334.855
352.445
366.981
378.242
386.038
390.034
390.039
386.311
378.952
367.924
353.409
335.622
314.807
291.258
265.331
237.359
207.718
176.833
145.082
112.831
80.4563
48.285
16.6062
-14.3279
-44.3172
-73.194
-100.825
-127.024
-148.362
-171.361
-193.128
-213.463
-232.339
-249.77
-265.788
-280.419
-293.692
-305.636
-316.273
-325.625
-333.707
-340.525
-346.066
-350.263
-353.18
-354.815
-355.169
-354.241
-352.007
-348.442
-343.514
-337.192
-329.441
-320.209
-309.428
-297.021
-282.895
-266.885
-248.827
-234.546
-214.418
-192.839
-169.725
-145.025
-118.883
-91.3796
-62.674
-32.9548
-2.42212
28.6784
60.046
91.3983
122.397
152.696
181.946
209.775
235.811
259.7
281.074
299.603
314.982
326.934
335.059
340.046
341.575
339.743
334.321
325.268
312.689
296.724
277.566
255.443
230.618
203.39
174.087
143.069
110.698
77.343
43.3836
9.19097
-24.8759
-58.4839
-91.3271
-123.133
-153.67
-182.744
-210.15
-235.877
-259.817
-281.933
-302.224
-320.709
-337.427
-352.433
-365.791
-377.571
-387.839
-396.666
-404.113
-410.23
-415.069
-418.674
-421.07
-422.278
-422.308
-421.165
-418.849
-415.353
-410.669
-404.783
-397.678
-389.333
-379.726
-368.831
-356.621
-343.063
-328.141
-311.825
-294.09
-274.909
-254.265
-232.146
-208.556
-183.517
-157.074
-129.302
-100.312
-70.2557
-39.3292
-7.77491
24.1273
56.0507
87.6358
118.498
148.226
176.401
202.607
226.429
247.467
265.352
279.743
290.351
296.94
299.244
297.292
290.979
280.375
265.564
246.776
224.298
198.479
169.728
138.509
105.306
70.6255
34.9765
-1.1433
-37.2605
-72.9317
-107.766
-141.431
-173.654
-204.225
-232.997
-259.871
-284.794
-307.751
-328.753
-347.838
-365.055
-380.472
-394.189
-406.277
-416.821
-425.901
-433.592
-439.962
-445.066
-448.953
-451.662
-453.223
-453.652
-452.966
-451.171
-448.263
-444.232
-439.062
-432.734
-425.223
-416.504
-406.545
-395.311
-382.762
-368.857
-353.546
-336.784
-318.571
-298.87
-277.678
-255.008
-230.887
-205.372
-178.538
-150.494
-121.379
-91.3617
-60.6452
-29.4705
1.89172
33.1358
63.918
93.8701
122.599
149.69
174.726
197.29
216.985
233.446
246.341
255.398
260.408
261.225
257.697
249.97
238.142
222.301
202.748
179.815
153.899
125.441
94.9128
62.8084
29.6244
-4.161
-38.0942
-71.7582
-104.781
-136.834
-167.642
-196.983
-224.688
-250.639
-274.758
-297.003
-317.36
-335.808
-351.303
-365.449
-377.654
-387.906
-396.197
-402.549
-406.993
-409.573
-410.314
-409.343
-406.762
-402.44
-396.532
-389.164
-380.441
-370.492
-359.421
-347.391
-334.519
-320.936
-306.741
-292.031
-277.1
-262.572
-248.647
-228.636
-209.51
-189.57
-169.165
-147.956
-125.811
-102.449
-77.7823
-51.6826
-24.0524
5.0478
35.5415
67.2816
99.9662
133.274
166.808
200.107
232.748
264.258
294.153
322.012
347.407
369.952
389.302
405.157
417.284
425.514
429.737
428.557
423.242
413.942
400.853
384.304
364.584
341.999
316.868
289.637
260.712
230.483
199.421
167.911
136.334
105.006
74.2084
44.2119
15.188
-12.7181
-39.3842
-64.7583
-88.7868
-111.447
-132.718
-152.552
-170.654
-187.639
-203.625
-218.38
-231.847
-243.995
-254.8
-264.242
-272.309
-278.994
266.215
291.667
314.674
335.057
352.673
367.231
378.509
386.316
390.352
390.327
386.602
379.227
368.182
353.645
335.833
314.988
291.407
265.447
237.441
207.766
176.85
145.069
112.79
80.3914
48.1999
16.5048
-14.442
-44.4395
-73.322
-100.966
-127.21
-148.443
-171.491
-193.263
-213.594
-232.464
-249.891
-265.904
-280.531
-293.801
-305.742
-316.377
-325.727
-333.808
-340.626
-346.168
-350.364
-353.279
-354.914
-355.268
-354.342
-352.11
-348.548
-343.624
-337.305
-329.558
-320.332
-309.556
-297.158
-283.044
-267.055
-249.021
-234.639
-214.533
-192.971
-169.862
-145.159
-119.012
-91.4996
-62.7822
-33.0478
-2.49589
28.6276
60.022
91.4044
122.436
152.77
182.055
209.919
235.989
259.909
281.312
299.866
315.264
327.216
335.349
340.382
341.92
340.065
334.624
325.554
312.956
296.969
277.785
255.633
230.779
203.521
174.186
143.137
110.734
77.3496
43.3616
9.14246
-24.9483
-58.5773
-91.438
-123.258
-153.806
-182.887
-210.298
-236.027
-259.966
-282.081
-302.368
-320.849
-337.562
-352.562
-365.915
-377.689
-387.952
-396.774
-404.217
-410.33
-415.166
-418.769
-421.164
-422.372
-422.402
-421.259
-418.944
-415.449
-410.767
-404.883
-397.78
-389.438
-379.833
-368.941
-356.734
-343.18
-328.261
-311.949
-294.217
-275.04
-254.398
-232.281
-208.692
-183.652
-157.207
-129.429
-100.43
-70.3615
-39.4185
-7.84346
24.0828
56.034
87.6503
118.546
148.309
176.522
202.765
226.623
247.695
265.612
280.032
290.662
297.266
299.6
297.619
291.309
280.691
265.861
247.045
224.532
198.674
169.883
138.62
105.375
70.653
34.9642
-1.19226
-37.3416
-73.0406
-107.898
-141.581
-173.816
-204.395
-233.17
-260.045
-284.967
-307.919
-328.916
-347.995
-365.204
-380.615
-394.323
-406.403
-416.939
-426.013
-433.698
-440.063
-445.164
-449.047
-451.754
-453.313
-453.739
-453.054
-451.26
-448.353
-444.323
-439.155
-432.828
-425.32
-416.604
-406.648
-395.418
-382.873
-368.972
-353.664
-336.908
-318.697
-298.998
-277.808
-255.138
-231.016
-205.498
-178.658
-150.608
-121.483
-91.4528
-60.7204
-29.5262
1.85814
33.1278
63.9395
93.924
122.688
149.815
174.888
197.488
217.218
233.71
246.632
255.71
260.733
261.566
258.03
250.289
238.445
222.581
202.996
180.026
154.07
125.568
94.9961
62.8491
29.6247
-4.19759
-38.1636
-71.8561
-104.903
-136.974
-167.797
-197.149
-224.86
-250.814
-274.934
-297.177
-317.528
-335.965
-351.475
-365.61
-377.807
-388.051
-396.333
-402.677
-407.111
-409.679
-410.408
-409.425
-406.838
-402.503
-396.586
-389.209
-380.477
-370.52
-359.441
-347.404
-334.526
-320.939
-306.742
-292.034
-277.098
-262.544
-248.582
-228.756
-209.565
-189.631
-169.242
-148.052
-125.925
-102.578
-77.9236
-51.8312
-24.2027
4.90161
35.4055
67.1623
99.8691
133.205
166.77
200.105
232.784
264.335
294.27
322.168
347.599
370.178
389.558
405.437
417.583
425.829
430.081
428.85
423.524
414.216
401.111
384.536
364.785
342.165
316.997
289.729
260.767
230.503
199.409
167.869
136.267
104.918
74.1048
44.0963
15.0643
-12.8467
-39.515
-64.8892
-88.917
-111.576
-132.844
-152.677
-170.766
-187.753
-203.738
-218.493
-231.959
-244.107
-254.912
-264.355
-272.422
-279.106
266.378
291.879
314.934
335.361
353.015
367.606
378.909
386.732
390.817
390.767
387.041
379.64
368.569
353.999
336.149
315.26
291.632
265.621
237.564
207.839
176.874
145.048
112.728
80.2938
48.0721
16.3525
-14.6134
-44.6233
-73.5137
-101.175
-127.482
-148.572
-171.688
-193.465
-213.79
-232.653
-250.073
-266.079
-280.7
-293.964
-305.9
-316.532
-325.879
-333.958
-340.776
-346.321
-350.515
-353.428
-355.061
-355.418
-354.494
-352.265
-348.706
-343.788
-337.474
-329.734
-320.516
-309.75
-297.363
-283.268
-267.309
-249.316
-234.776
-214.706
-193.169
-170.067
-145.361
-119.206
-91.6801
-62.9451
-33.1879
-2.60721
28.5508
59.9852
91.4127
122.494
152.88
182.218
210.135
236.255
260.222
281.667
300.259
315.689
327.657
335.799
340.875
342.423
340.546
335.079
325.986
313.358
297.337
278.115
255.921
231.022
203.718
174.336
143.239
110.79
77.3605
43.3294
9.07049
-25.0563
-58.7169
-91.6039
-123.446
-154.01
-183.101
-210.521
-236.251
-260.19
-282.302
-302.584
-321.058
-337.764
-352.756
-366.1
-377.866
-388.121
-396.935
-404.371
-410.478
-415.311
-418.911
-421.304
-422.51
-422.54
-421.398
-419.084
-415.591
-410.911
-405.03
-397.93
-389.592
-379.992
-369.104
-356.901
-343.353
-328.439
-312.132
-294.405
-275.233
-254.595
-232.482
-208.894
-183.853
-157.403
-129.616
-100.604
-70.517
-39.5492
-7.94331
24.0192
56.0124
87.6754
118.621
148.439
176.707
203.006
226.917
248.042
266.007
280.468
291.131
297.758
300.128
298.119
291.811
281.171
266.309
247.45
224.885
198.97
170.117
138.79
105.481
70.6963
34.9481
-1.26355
-37.4614
-73.2021
-108.094
-141.803
-174.056
-204.647
-233.429
-260.305
-285.224
-308.17
-329.16
-348.228
-365.425
-380.826
-394.522
-406.59
-417.115
-426.179
-433.855
-440.213
-445.307
-449.186
-451.889
-453.445
-453.875
-453.185
-451.391
-448.485
-444.457
-439.292
-432.968
-425.464
-416.751
-406.801
-395.576
-383.037
-369.142
-353.84
-337.091
-318.884
-299.189
-278
-255.33
-231.206
-205.683
-178.837
-150.775
-121.635
-91.5866
-60.8306
-29.6074
1.8105
33.1186
63.9743
94.0074
122.823
150.006
175.134
197.789
217.57
234.109
247.072
256.18
261.225
262.066
258.54
250.774
238.903
223.003
203.371
180.345
154.327
125.76
95.1231
62.9121
29.627
-4.25075
-38.266
-72.0013
-105.083
-137.183
-168.028
-197.395
-225.116
-251.074
-275.195
-297.435
-317.778
-336.2
-351.73
-365.85
-378.035
-388.267
-396.537
-402.867
-407.287
-409.838
-410.548
-409.547
-406.952
-402.598
-396.667
-389.276
-380.532
-370.562
-359.471
-347.423
-334.538
-320.945
-306.745
-292.037
-277.096
-262.505
-248.492
-228.929
-209.644
-189.722
-169.361
-148.198
-126.096
-102.772
-78.1359
-52.0545
-24.4288
4.68161
35.2008
66.9826
99.7229
133.1
166.714
200.103
232.839
264.45
294.445
322.401
347.888
370.517
389.941
405.856
418.031
426.3
430.576
429.304
423.954
414.629
401.499
384.884
365.086
342.414
317.192
289.868
260.85
230.533
199.39
167.806
136.167
104.787
73.9491
43.9226
14.8785
-13.0397
-39.7114
-65.0858
-89.1122
-111.769
-133.033
-152.862
-170.934
-187.925
-203.907
-218.662
-232.128
-244.275
-255.081
-264.523
-272.59
-279.275
266.596
292.162
315.281
335.766
353.472
368.107
379.445
387.288
391.417
391.364
387.624
380.192
369.085
354.472
336.57
315.623
291.931
265.853
237.728
207.935
176.906
145.019
112.645
80.1632
47.9012
16.149
-14.8421
-44.8688
-73.769
-101.45
-127.828
-148.762
-171.955
-193.736
-214.052
-232.905
-250.314
-266.311
-280.924
-294.181
-306.111
-316.738
-326.082
-334.158
-340.976
-346.525
-350.715
-353.626
-355.259
-355.617
-354.697
-352.472
-348.918
-344.006
-337.7
-329.969
-320.761
-310.007
-297.637
-283.565
-267.647
-249.716
-234.951
-214.938
-193.435
-170.34
-145.63
-119.464
-91.9214
-63.1629
-33.3755
-2.75642
28.4474
59.9351
91.4226
122.569
153.025
182.434
210.421
236.608
260.638
282.141
300.784
316.257
328.256
336.427
341.525
343.086
341.185
335.686
326.561
313.895
297.828
278.555
256.305
231.346
203.98
174.536
143.375
110.865
77.3744
43.2857
8.97371
-25.2014
-58.904
-91.8263
-123.697
-154.283
-183.389
-210.818
-236.552
-260.49
-282.598
-302.874
-321.339
-338.034
-353.015
-366.347
-378.101
-388.346
-397.15
-404.576
-410.676
-415.504
-419.099
-421.489
-422.694
-422.724
-421.583
-419.27
-415.78
-411.103
-405.226
-398.131
-389.797
-380.203
-369.32
-357.123
-343.583
-328.676
-312.375
-294.655
-275.49
-254.858
-232.749
-209.163
-184.12
-157.664
-129.866
-100.837
-70.7242
-39.7234
-8.07634
23.9344
55.9839
87.7091
118.722
148.611
176.954
203.326
227.311
248.505
266.534
281.051
291.759
298.415
300.815
298.802
292.483
281.812
266.907
247.992
225.358
199.365
170.43
139.018
105.622
70.7541
34.9266
-1.35853
-37.6212
-73.4177
-108.355
-142.099
-174.377
-204.984
-233.774
-260.651
-285.566
-308.505
-329.484
-348.539
-365.72
-381.107
-394.787
-406.84
-417.35
-426.4
-434.065
-440.412
-445.499
-449.371
-452.069
-453.621
-454.05
-453.358
-451.564
-448.661
-444.636
-439.474
-433.154
-425.655
-416.948
-407.004
-395.786
-383.255
-369.368
-354.074
-337.334
-319.133
-299.442
-278.256
-255.586
-231.46
-205.931
-179.075
-150.999
-121.839
-91.7648
-60.9774
-29.7158
1.74707
33.1066
64.0209
94.1188
123.005
150.26
175.463
198.191
218.041
234.643
247.658
256.809
261.881
262.729
259.219
251.427
239.516
223.567
203.872
180.772
154.671
126.017
95.2926
62.9963
29.6301
-4.32182
-38.4029
-72.1951
-105.324
-137.463
-168.336
-197.723
-225.457
-251.422
-275.544
-297.781
-318.113
-336.514
-352.067
-366.168
-378.339
-388.555
-396.808
-403.121
-407.522
-410.05
-410.734
-409.713
-407.104
-402.725
-396.775
-389.366
-380.604
-370.618
-359.512
-347.45
-334.553
-320.951
-306.749
-292.041
-277.093
-262.455
-248.371
-229.164
-209.746
-189.843
-169.518
-148.391
-126.325
-103.031
-78.4194
-52.3529
-24.731
4.3872
34.9268
66.742
99.5271
132.96
166.639
200.099
232.913
264.603
294.678
322.712
348.273
370.969
390.453
406.417
418.629
426.926
431.209
429.929
424.541
415.183
402.017
385.348
365.488
342.747
317.451
290.052
260.961
230.572
199.364
167.722
136.032
104.612
73.7411
43.6908
14.6305
-13.2973
-39.9734
-65.348
-89.3726
-112.027
-133.285
-153.107
-171.159
-188.153
-204.133
-218.887
-232.352
-244.499
-255.305
-264.747
-272.815
-279.501
266.867
292.517
315.716
336.273
354.044
368.734
380.115
387.987
392.149
392.113
388.35
380.881
369.731
355.063
337.096
316.076
292.305
266.143
237.932
208.055
176.945
144.983
112.541
79.9993
47.6869
15.894
-15.1284
-45.1764
-74.0882
-101.786
-128.222
-149.038
-172.295
-194.075
-214.379
-233.219
-250.616
-266.601
-281.204
-294.453
-306.375
-316.996
-326.335
-334.408
-341.226
-346.78
-350.965
-353.874
-355.505
-355.866
-354.951
-352.729
-349.183
-344.279
-337.982
-330.262
-321.067
-310.329
-297.978
-283.935
-268.067
-250.23
-235.157
-215.23
-193.769
-170.684
-145.968
-119.788
-92.2236
-63.4359
-33.6109
-2.94403
28.3169
59.8711
91.4336
122.662
153.204
182.703
210.777
237.048
261.157
282.733
301.439
316.969
329.015
337.234
342.332
343.903
341.977
336.444
327.279
314.565
298.442
279.105
256.784
231.751
204.308
174.785
143.545
110.957
77.3907
43.2299
8.85148
-25.3841
-59.1393
-92.106
-124.012
-154.626
-183.75
-211.192
-236.93
-260.866
-282.97
-303.237
-321.691
-338.373
-353.34
-366.658
-378.397
-388.628
-397.42
-404.834
-410.925
-415.745
-419.335
-421.722
-422.925
-422.954
-421.814
-419.504
-416.017
-411.344
-405.471
-398.381
-390.054
-380.466
-369.592
-357.402
-343.87
-328.972
-312.68
-294.968
-275.811
-255.187
-233.083
-209.499
-184.455
-157.992
-130.18
-101.128
-70.9838
-39.9419
-8.24356
23.8278
55.9475
87.7507
118.848
148.827
177.262
203.727
227.803
249.085
267.193
281.78
292.544
299.24
301.664
299.665
293.325
282.616
267.657
248.669
225.949
199.859
170.821
139.301
105.798
70.8258
34.899
-1.47775
-37.8218
-73.6883
-108.683
-142.47
-174.779
-205.406
-234.205
-261.085
-285.995
-308.924
-329.889
-348.928
-366.089
-381.457
-395.118
-407.151
-417.643
-426.676
-434.326
-440.662
-445.738
-449.603
-452.294
-453.841
-454.264
-453.575
-451.782
-448.88
-444.859
-439.701
-433.387
-425.894
-417.194
-407.258
-396.049
-383.528
-369.651
-354.368
-337.639
-319.445
-299.759
-278.576
-255.907
-231.777
-206.241
-179.373
-151.279
-122.094
-91.9883
-61.1616
-29.8522
1.66688
33.091
64.0784
94.2574
123.231
150.577
175.874
198.694
218.63
235.311
248.393
257.595
262.702
263.562
260.06
252.249
240.284
224.273
204.498
181.305
155.101
126.338
95.5045
63.1011
29.6333
-4.41161
-38.5751
-72.4381
-105.626
-137.812
-168.722
-198.134
-225.884
-251.856
-275.98
-298.213
-318.532
-336.908
-352.487
-366.566
-378.718
-388.914
-397.146
-403.437
-407.815
-410.316
-410.969
-409.921
-407.291
-402.883
-396.91
-389.478
-380.695
-370.688
-359.562
-347.482
-334.572
-320.96
-306.753
-292.046
-277.091
-262.399
-248.208
-229.469
-209.865
-189.994
-169.715
-148.633
-126.611
-103.355
-78.7746
-52.7268
-25.11
4.01777
34.5829
66.4398
99.281
132.784
166.544
200.094
233.003
264.794
294.969
323.101
348.754
371.535
391.093
407.118
419.377
427.707
431.991
430.711
425.286
415.881
402.665
385.929
365.99
343.163
317.774
290.282
261.098
230.621
199.331
167.616
135.864
104.392
73.4804
43.4002
14.3199
-13.6197
-40.3012
-65.676
-89.6979
-112.349
-133.601
-153.412
-171.442
-188.437
-204.415
-219.168
-232.633
-244.779
-255.585
-265.028
-273.096
-279.783
267.193
292.943
316.237
336.882
354.731
369.488
380.921
388.83
393.023
393.006
389.218
381.709
370.506
355.772
337.729
316.621
292.754
266.491
238.177
208.199
176.991
144.939
112.415
79.8016
47.4287
15.5869
-15.4726
-45.5466
-74.4712
-102.181
-128.652
-149.417
-172.71
-194.483
-214.772
-233.596
-250.979
-266.95
-281.54
-294.778
-306.692
-317.305
-326.639
-334.709
-341.526
-347.085
-351.264
-354.17
-355.802
-356.164
-355.256
-353.038
-349.5
-344.606
-338.321
-330.614
-321.435
-310.715
-298.388
-284.377
-268.569
-250.866
-235.385
-215.585
-194.173
-171.097
-146.374
-120.177
-92.5871
-63.7645
-33.8947
-3.17049
28.1587
59.7926
91.4452
122.772
153.418
183.023
211.202
237.575
261.78
283.443
302.225
317.824
329.931
338.22
343.303
344.875
342.925
337.353
328.142
315.37
299.179
279.764
257.359
232.236
204.7
175.082
143.748
111.066
77.4087
43.1616
8.70316
-25.605
-59.4235
-92.4434
-124.393
-155.039
-184.185
-211.642
-237.384
-261.32
-283.417
-303.674
-322.114
-338.781
-353.73
-367.031
-378.753
-388.967
-397.744
-405.143
-411.223
-416.035
-419.618
-422.001
-423.202
-423.231
-422.092
-419.784
-416.301
-411.632
-405.765
-398.682
-390.363
-380.783
-369.917
-357.737
-344.215
-329.327
-313.045
-295.345
-276.198
-255.582
-233.485
-209.904
-184.858
-158.385
-130.556
-101.478
-71.2965
-40.2053
-8.4456
23.6989
55.9026
87.7996
118.999
149.085
177.631
204.208
228.394
249.781
267.985
282.655
293.487
300.231
302.682
300.702
294.337
283.582
268.558
249.483
226.659
200.453
171.289
139.641
106.009
70.9108
34.8648
-1.6218
-38.0639
-74.0143
-109.077
-142.916
-175.263
-205.914
-234.724
-261.605
-286.51
-309.427
-330.377
-349.396
-366.532
-381.879
-395.515
-407.525
-417.994
-427.007
-434.641
-440.961
-446.025
-449.88
-452.564
-454.105
-454.525
-453.835
-452.043
-449.144
-445.127
-439.975
-433.667
-426.18
-417.489
-407.562
-396.365
-383.856
-369.991
-354.721
-338.004
-319.819
-300.14
-278.961
-256.292
-232.159
-206.615
-179.731
-151.616
-122.402
-92.2575
-61.3836
-30.0169
1.56939
33.0711
64.1463
94.4227
123.501
150.958
176.367
199.297
219.337
236.113
249.275
258.54
263.69
264.566
261.067
253.234
241.209
225.122
205.251
181.945
155.618
126.724
95.7583
63.2259
29.6358
-4.52072
-38.783
-72.7307
-105.99
-138.233
-169.186
-198.628
-226.397
-252.378
-276.504
-298.732
-319.039
-337.382
-352.987
-367.042
-379.174
-389.346
-397.553
-403.816
-408.166
-410.634
-411.253
-410.17
-407.513
-403.072
-397.072
-389.612
-380.803
-370.771
-359.623
-347.521
-334.594
-320.97
-306.757
-292.051
-277.09
-262.341
-248.001
-229.845
-209.997
-190.175
-169.952
-148.924
-126.955
-103.745
-79.2018
-53.1767
-25.5663
3.57265
34.1683
66.0753
98.9842
132.571
166.429
200.087
233.112
265.022
295.318
323.567
349.332
372.214
391.861
407.96
420.275
428.643
432.936
431.648
426.184
416.724
403.444
386.626
366.593
343.662
318.163
290.558
261.263
230.679
199.291
167.488
135.66
104.126
73.1665
43.0506
13.9464
-14.0073
-40.6951
-66.0698
-90.0884
-112.736
-133.982
-153.777
-171.782
-188.778
-204.753
-219.505
-232.969
-245.116
-255.921
-265.364
-273.434
-280.121
267.573
293.439
316.846
337.593
355.534
370.369
381.864
389.816
394.043
394.041
390.228
382.674
371.411
356.601
338.467
317.257
293.277
266.896
238.462
208.365
177.044
144.886
112.267
79.5696
47.126
15.2272
-15.8752
-45.9797
-74.9184
-102.633
-129.118
-149.896
-173.202
-194.96
-215.231
-234.037
-251.401
-267.356
-281.932
-295.158
-307.061
-317.666
-326.993
-335.059
-341.876
-347.441
-351.612
-354.515
-356.148
-356.513
-355.611
-353.399
-349.871
-344.988
-338.716
-331.025
-321.864
-311.165
-298.864
-284.89
-269.148
-251.617
-235.643
-216.006
-194.647
-171.581
-146.849
-120.632
-93.0124
-64.1493
-34.2274
-3.43657
27.9723
59.699
91.4568
122.899
153.666
183.396
211.698
238.19
262.506
284.271
303.142
318.823
331.003
339.379
344.435
346.002
344.026
338.413
329.148
316.309
300.038
280.533
258.029
232.802
205.157
175.428
143.983
111.192
77.4281
43.0803
8.52802
-25.8648
-59.7571
-92.8393
-124.839
-155.524
-184.696
-212.168
-237.916
-261.85
-283.94
-304.185
-322.609
-339.257
-354.187
-367.466
-379.168
-389.363
-398.121
-405.505
-411.572
-416.372
-419.948
-422.327
-423.525
-423.554
-422.417
-420.112
-416.633
-411.97
-406.109
-399.034
-390.723
-381.153
-370.298
-358.128
-344.618
-329.741
-313.472
-295.784
-276.649
-256.043
-233.954
-210.377
-185.328
-158.846
-130.998
-101.888
-71.663
-40.5142
-8.68298
23.5471
55.8487
87.8552
119.173
149.385
178.062
204.769
229.084
250.593
268.909
283.678
294.59
301.39
303.874
301.91
295.519
284.711
269.61
250.434
227.488
201.146
171.836
140.037
106.254
71.0089
34.8233
-1.79161
-38.3483
-74.3965
-109.539
-143.44
-175.829
-206.507
-235.331
-262.214
-287.112
-310.015
-330.946
-349.942
-367.05
-382.371
-395.979
-407.961
-418.405
-427.394
-435.007
-441.31
-446.361
-450.204
-452.879
-454.413
-454.83
-454.138
-452.348
-449.452
-445.44
-440.294
-433.993
-426.515
-417.833
-407.918
-396.734
-384.24
-370.389
-355.134
-338.43
-320.257
-300.584
-279.411
-256.742
-232.605
-207.051
-180.151
-152.01
-122.762
-92.5731
-61.6439
-30.2106
1.45416
33.0462
64.224
94.614
123.816
151.402
176.941
200
220.163
237.049
250.305
259.644
264.844
265.742
262.244
254.383
242.291
226.114
206.13
182.693
156.22
127.174
96.0535
63.3701
29.637
-4.64971
-39.0273
-73.074
-106.416
-138.726
-169.729
-199.207
-226.997
-252.988
-277.116
-299.339
-319.633
-337.937
-353.567
-367.598
-379.705
-389.85
-398.027
-404.259
-408.575
-411.007
-411.586
-410.461
-407.77
-403.291
-397.26
-389.768
-380.93
-370.868
-359.693
-347.566
-334.619
-320.981
-306.762
-292.057
-277.09
-262.283
-247.797
-230.246
-210.136
-190.386
-170.227
-149.265
-127.357
-104.201
-79.7016
-53.7034
-26.1008
3.05098
33.6822
65.6477
98.6357
132.321
166.293
200.077
233.237
265.288
295.725
324.112
350.006
373.008
392.759
408.944
421.323
429.735
434.043
432.74
427.234
417.71
404.354
387.441
367.298
344.244
318.615
290.879
261.454
230.745
199.242
167.337
135.421
103.815
72.7988
42.6415
13.5096
-14.4604
-41.1551
-66.5297
-90.5441
-113.188
-134.427
-154.202
-172.181
-189.173
-205.148
-219.899
-233.362
-245.508
-256.313
-265.757
-273.827
-280.516
268.006
294.007
317.542
338.407
356.453
371.377
382.943
390.946
395.208
395.22
391.381
383.778
372.446
357.549
339.312
317.984
293.875
267.359
238.788
208.555
177.102
144.825
112.096
79.3025
46.7782
14.8142
-16.3368
-46.4761
-75.4305
-103.142
-129.617
-150.481
-173.772
-195.507
-215.755
-234.539
-251.884
-267.82
-282.38
-295.592
-307.484
-318.078
-327.398
-335.459
-342.275
-347.846
-352.009
-354.909
-356.544
-356.911
-356.016
-353.811
-350.295
-345.424
-339.167
-331.494
-322.353
-311.679
-299.407
-285.474
-269.8
-252.444
-235.969
-216.499
-195.195
-172.137
-147.393
-121.154
-93.5
-64.5908
-34.6096
-3.74295
27.7568
59.5895
91.4675
123.041
153.946
183.819
212.262
238.89
263.335
285.218
304.193
319.966
332.232
340.717
345.729
347.287
345.283
339.625
330.299
317.383
301.02
281.411
258.793
233.447
205.678
175.822
144.251
111.334
77.4486
42.9854
8.32554
-26.164
-60.1408
-93.2944
-125.352
-156.08
-185.283
-212.772
-238.526
-262.458
-284.539
-304.77
-323.176
-339.803
-354.709
-367.965
-379.643
-389.816
-398.553
-405.919
-411.97
-416.759
-420.326
-422.699
-423.895
-423.924
-422.788
-420.486
-417.012
-412.355
-406.502
-399.436
-391.135
-381.576
-370.733
-358.576
-345.079
-330.215
-313.96
-296.286
-277.165
-256.571
-234.491
-210.918
-185.867
-159.374
-131.504
-102.359
-72.0839
-40.8693
-8.9562
23.3716
55.7853
87.917
119.371
149.727
178.552
205.411
229.872
251.521
269.966
284.848
295.852
302.718
305.241
303.291
296.872
286.005
270.815
251.522
228.437
201.938
172.461
140.489
106.533
71.1194
34.7741
-1.98794
-38.6757
-74.836
-110.07
-144.04
-176.479
-207.187
-236.026
-262.911
-287.801
-310.688
-331.597
-350.568
-367.641
-382.933
-396.51
-408.46
-418.874
-427.837
-435.426
-441.709
-446.744
-450.574
-453.238
-454.765
-455.178
-454.485
-452.696
-449.804
-445.798
-440.659
-434.367
-426.898
-418.227
-408.325
-397.156
-384.678
-370.844
-355.607
-338.917
-320.757
-301.094
-279.925
-257.258
-233.116
-207.551
-180.631
-152.462
-123.175
-92.9356
-61.9434
-30.4339
1.3205
33.0159
64.311
94.8313
124.174
151.908
177.598
200.804
221.107
238.12
251.484
260.908
266.166
267.09
263.592
255.697
243.529
227.25
207.137
183.549
156.909
127.687
96.3897
63.5333
29.6365
-4.7994
-39.3088
-73.4688
-106.905
-139.291
-170.352
-199.869
-227.683
-253.687
-277.815
-300.034
-320.316
-338.572
-354.227
-368.233
-380.312
-390.426
-398.568
-404.764
-409.042
-411.433
-411.968
-410.792
-408.056
-403.541
-397.474
-389.946
-381.073
-370.979
-359.772
-347.616
-334.647
-320.992
-306.766
-292.063
-277.091
-262.228
-247.62
-230.646
-210.279
-190.629
-170.541
-149.654
-127.817
-104.724
-80.2747
-54.3076
-26.7144
2.45179
33.1235
65.156
98.2346
132.032
166.135
200.064
233.379
265.591
296.189
324.734
350.777
373.915
393.786
410.069
422.523
430.984
435.312
433.99
428.436
418.841
405.397
388.373
368.103
344.909
319.132
291.245
261.671
230.819
199.185
167.162
135.146
103.458
72.3767
42.1721
13.0089
-14.9793
-41.6816
-67.0559
-91.065
-113.704
-134.938
-154.692
-172.633
-189.624
-205.598
-220.349
-233.811
-245.956
-256.762
-266.206
-274.277
-280.967
268.493
294.646
318.326
339.324
357.487
372.513
384.16
392.22
396.519
396.544
392.679
385.02
373.613
358.617
340.264
318.803
294.547
267.879
239.154
208.766
177.167
144.753
111.901
78.9997
46.3843
14.3471
-16.8586
-47.036
-76.0086
-103.708
-130.142
-151.178
-174.42
-196.124
-216.345
-235.105
-252.427
-268.342
-282.884
-296.08
-307.958
-318.542
-327.853
-335.908
-342.724
-348.301
-352.454
-355.352
-356.989
-357.36
-356.471
-354.275
-350.772
-345.914
-339.674
-332.021
-322.903
-312.256
-300.017
-286.126
-270.522
-253.318
-236.391
-217.07
-195.816
-172.765
-148.007
-121.742
-94.0505
-65.0896
-35.0421
-4.09051
27.5114
59.4632
91.4764
123.197
154.26
184.293
212.895
239.678
264.267
286.282
305.376
321.253
333.616
342.228
347.182
348.726
346.696
340.988
331.593
318.591
302.124
282.398
259.653
234.171
206.263
176.265
144.55
111.492
77.4696
42.876
8.09508
-26.5035
-60.5757
-93.8095
-125.932
-156.709
-185.946
-213.453
-239.214
-263.144
-285.214
-305.43
-323.815
-340.418
-355.298
-368.526
-380.178
-390.326
-399.04
-406.384
-412.418
-417.194
-420.751
-423.118
-424.311
-424.339
-423.206
-420.907
-417.439
-412.789
-406.944
-399.888
-391.599
-382.053
-371.222
-359.079
-345.597
-330.749
-314.509
-296.851
-277.746
-257.166
-235.096
-211.528
-186.475
-159.97
-132.075
-102.891
-72.56
-41.2714
-9.26621
23.1717
55.7117
87.9847
119.592
150.111
179.104
206.131
230.759
252.567
271.157
286.167
297.274
304.215
306.782
304.846
298.397
287.464
272.173
252.748
229.506
202.83
173.163
140.997
106.845
71.2417
34.7166
-2.21163
-39.0471
-75.3339
-110.67
-144.718
-177.212
-207.955
-236.811
-263.698
-288.577
-311.446
-332.33
-351.273
-368.308
-383.567
-397.107
-409.022
-419.401
-428.334
-435.897
-442.158
-447.174
-450.99
-453.643
-455.162
-455.568
-454.875
-453.088
-450.2
-446.2
-441.069
-434.787
-427.329
-418.67
-408.783
-397.63
-385.171