/*--------------------------------*- C++ -*----------------------------------*\
| =========                 |                                                 |
| \\      /  F ield         | OpenFOAM: The Open Source CFD Toolbox           |
|  \\    /   O peration     | Version:  3.0.1                                 |
|   \\  /    A nd           | Web:      www.OpenFOAM.org                      |
|    \\/     M anipulation  |                                                 |
\*---------------------------------------------------------------------------*/
FoamFile
{
    version     2.0;
    format      ascii;
    class       surfaceScalarField;
    location    "100";
    object      alphaPhi;
}
// * * * * * * * * * * * * * * * * * * * * * * * * * * * * * * * * * * * * * //

dimensions      [0 3 -1 0 0 0 0];

internalField   nonuniform List<scalar> 
42423
(
-0.000110251
9.81346e-06
-0.000119121
8.86941e-06
-0.000127153
8.03188e-06
-0.000134371
7.21829e-06
-0.0001408
6.42875e-06
-0.000146483
5.68351e-06
-0.00015143
4.94671e-06
-0.00015568
4.25026e-06
-0.000159247
3.5669e-06
-0.000162138
2.89133e-06
-0.000164383
2.24476e-06
-0.000166008
1.62476e-06
-0.000166979
9.71467e-07
-0.000167304
3.25164e-07
-0.00016692
-3.845e-07
-0.000165841
-1.07909e-06
-0.000164139
-1.70153e-06
-0.000161664
-2.47515e-06
-0.000158465
-3.19964e-06
-0.000154561
-3.90336e-06
-0.000149716
-4.84565e-06
-0.000144083
-5.63274e-06
-0.000137666
-6.41705e-06
-0.000130237
-7.4292e-06
-0.000121899
-8.33763e-06
-0.000112536
-9.36267e-06
-0.000102208
-1.03289e-05
-9.09195e-05
-1.12881e-05
-7.85524e-05
-1.23672e-05
-6.51434e-05
-1.3409e-05
-5.08272e-05
-1.43162e-05
-3.54768e-05
-1.53504e-05
-1.92826e-05
-1.61943e-05
-2.19983e-06
-1.70829e-05
1.56048e-05
-1.78046e-05
3.38008e-05
-1.81961e-05
5.24574e-05
-1.86566e-05
7.13729e-05
-1.89155e-05
9.02133e-05
-1.88405e-05
0.00010889
-1.86769e-05
0.000127086
-1.81956e-05
0.000144651
-1.7565e-05
0.000161321
-1.6671e-05
0.000176682
-1.53603e-05
0.00019067
-1.39883e-05
0.000203015
-1.23451e-05
0.000213418
-1.0403e-05
0.000221823
-8.40473e-06
0.000228072
-6.24979e-06
0.000231985
-3.91303e-06
0.000233573
-1.58752e-06
0.000232781
7.91605e-07
0.000229622
3.15948e-06
0.00022427
5.35129e-06
0.000216707
7.56366e-06
0.000207158
9.5481e-06
0.000195835
1.13235e-05
0.00018279
1.30448e-05
0.000168264
1.45258e-05
0.000152596
1.5668e-05
0.000136011
1.65854e-05
0.000118567
1.74441e-05
0.000100642
1.79245e-05
8.24612e-05
1.8181e-05
6.41906e-05
1.82706e-05
4.6003e-05
1.81876e-05
2.8103e-05
1.79e-05
1.06825e-05
1.74206e-05
-6.14707e-06
1.68295e-05
-2.24071e-05
1.626e-05
-3.78543e-05
1.54472e-05
-5.24864e-05
1.46321e-05
-6.62708e-05
1.37844e-05
-7.91696e-05
1.28987e-05
-9.11234e-05
1.19538e-05
-0.000102214
1.10905e-05
-0.000112325
1.01115e-05
-0.000121608
9.28292e-06
-0.000130034
8.42525e-06
-0.000137578
7.54424e-06
-0.000144335
6.75676e-06
-0.000150272
5.93661e-06
-0.000155405
5.13378e-06
-0.000159743
4.33695e-06
-0.000163252
3.50885e-06
-0.000165918
2.66579e-06
-0.000167767
1.84903e-06
-0.000168728
9.60711e-07
-0.000168856
1.28244e-07
-0.000168055
-8.01283e-07
-0.000166318
-1.73747e-06
-0.000163625
-2.69287e-06
-0.000160046
-3.57975e-06
-0.000155628
-4.41864e-06
-0.000150464
-5.16392e-06
-0.000144644
-5.82006e-06
-0.000138228
-6.41608e-06
-0.000131278
-6.95061e-06
-0.000123713
-7.56488e-06
-0.000115531
-8.1825e-06
-0.00010666
-8.87128e-06
-9.70486e-05
-9.61152e-06
-8.6678e-05
-1.03708e-05
-7.55447e-05
-1.11335e-05
-6.36039e-05
-1.19409e-05
-5.07923e-05
-1.28118e-05
-3.71494e-05
-1.3643e-05
-2.28141e-05
-1.43354e-05
-7.71401e-06
-1.51002e-05
8.03212e-06
-1.57462e-05
2.4337e-05
-1.63049e-05
4.10885e-05
-1.67516e-05
5.81473e-05
-1.70589e-05
7.53832e-05
-1.7236e-05
9.26282e-05
-1.7245e-05
0.000109731
-1.71029e-05
0.000126486
-1.67552e-05
0.00014272
-1.62333e-05
0.000158214
-1.5494e-05
0.000172785
-1.45717e-05
0.000186212
-1.34265e-05
0.0001983
-1.20881e-05
0.000208824
-1.05244e-05
0.000217599
-8.77471e-06
0.000224397
-6.79818e-06
0.00022914
-4.74244e-06
0.000231708
-2.56822e-06
0.000231989
-2.81218e-07
0.000229992
1.99675e-06
0.000225639
4.35306e-06
0.000219061
6.57808e-06
0.000210332
8.72889e-06
0.000199634
1.06985e-05
0.000187119
1.25152e-05
0.000173013
1.41054e-05
0.000157514
1.54998e-05
0.000140904
1.66101e-05
0.000123392
1.75114e-05
0.000105252
1.81401e-05
8.67237e-05
1.85283e-05
6.80346e-05
1.86891e-05
4.94004e-05
1.86342e-05
3.10546e-05
1.83458e-05
1.31792e-05
1.78754e-05
-4.08899e-06
1.72682e-05
-2.0622e-05
1.6533e-05
-3.62651e-05
1.56431e-05
-5.09208e-05
1.46557e-05
-6.45805e-05
1.36597e-05
-7.71702e-05
1.25897e-05
-8.86969e-05
1.15266e-05
-9.91691e-05
1.04723e-05
-0.000108604
9.43442e-06
-0.000117033
8.4293e-06
-0.000124501
7.46805e-06
-0.000131168
6.6675e-06
-0.000136952
5.78334e-06
-0.000141941
4.98912e-06
-0.000146191
4.2506e-06
-0.000149725
3.53348e-06
-0.000152563
2.83767e-06
-0.000154845
2.28219e-06
-0.000156467
1.62275e-06
-0.000157501
1.03318e-06
-0.000157952
4.51053e-07
-0.000157934
-1.80763e-08
-0.000157296
-6.37603e-07
-0.000156132
-1.16432e-06
-0.000154395
-1.7362e-06
-0.00015206
-2.33494e-06
-0.000149168
-2.89284e-06
-0.000145634
-3.53323e-06
-0.000141534
-4.10057e-06
-0.000136795
-4.73854e-06
-0.000131384
-5.41091e-06
-0.000125325
-6.05929e-06
-0.00011855
-6.77527e-06
-0.000111063
-7.48717e-06
-0.000102839
-8.22378e-06
-9.3838e-05
-9.00098e-06
-8.40703e-05
-9.76773e-06
-7.34897e-05
-1.05806e-05
-6.21305e-05
-1.13593e-05
-4.99289e-05
-1.22016e-05
-3.68891e-05
-1.30399e-05
-2.30756e-05
-1.38135e-05
-8.464e-06
-1.46117e-05
6.84803e-06
-1.53121e-05
2.27982e-05
-1.59503e-05
3.92762e-05
-1.64781e-05
5.61551e-05
-1.68789e-05
7.32819e-05
-1.7127e-05
9.04733e-05
-1.71915e-05
0.000107512
-1.70387e-05
0.000124178
-1.66663e-05
0.000140237
-1.60587e-05
0.000155393
-1.51567e-05
0.000169381
-1.39877e-05
0.000181965
-1.25846e-05
0.000192884
-1.09188e-05
0.000201925
-9.04071e-06
0.000208886
-6.96144e-06
0.000213623
-4.73668e-06
0.000216023
-2.40047e-06
0.000216013
1.03469e-08
0.000213595
2.41749e-06
0.000208701
4.89381e-06
0.000201583
7.11826e-06
0.000192308
9.27463e-06
0.000181081
1.12266e-05
0.000168093
1.29881e-05
0.000153536
1.45567e-05
0.000137705
1.58317e-05
0.000120779
1.6925e-05
0.000103085
1.76943e-05
8.4865e-05
1.82201e-05
6.64421e-05
1.84228e-05
4.79767e-05
1.84654e-05
2.97897e-05
1.8187e-05
1.20575e-05
1.77321e-05
-5.05897e-06
1.71164e-05
-2.1423e-05
1.6364e-05
-3.706e-05
1.5637e-05
-5.17588e-05
1.46989e-05
-6.55137e-05
1.37548e-05
-7.83228e-05
1.28091e-05
-9.01238e-05
1.1801e-05
-0.000100927
1.08028e-05
-0.000110752
9.82506e-06
-0.000119711
8.95976e-06
-0.00012776
8.04884e-06
-0.000134995
7.23496e-06
-0.000141505
6.51009e-06
-0.000147353
5.84794e-06
-0.000152603
5.24997e-06
-0.000157235
4.63194e-06
-0.0001613
4.06554e-06
-0.000164738
3.43821e-06
-0.000167507
2.76905e-06
-0.000169687
2.18035e-06
-0.000171101
1.4141e-06
-0.000171859
7.58153e-07
-0.000171911
5.14771e-08
-0.000171276
-6.34537e-07
-0.00016999
-1.28589e-06
-0.000168089
-1.90065e-06
-0.000165627
-2.46175e-06
-0.000162622
-3.00479e-06
-0.000159072
-3.54964e-06
-0.000154906
-4.16614e-06
-0.000150198
-4.70818e-06
-0.000144821
-5.37658e-06
-0.000138697
-6.12357e-06
-0.000131783
-6.91331e-06
-0.000124007
-7.7765e-06
-0.000115401
-8.60617e-06
-0.000105937
-9.46323e-06
-9.56764e-05
-1.02607e-05
-8.4654e-05
-1.10224e-05
-7.28659e-05
-1.1788e-05
-6.03076e-05
-1.25583e-05
-4.70923e-05
-1.32153e-05
-3.30565e-05
-1.40359e-05
-1.82912e-05
-1.47653e-05
-2.76693e-06
-1.55243e-05
1.33467e-05
-1.61137e-05
2.99564e-05
-1.66098e-05
4.68761e-05
-1.69198e-05
6.3902e-05
-1.7026e-05
8.07749e-05
-1.68731e-05
9.72606e-05
-1.64858e-05
0.000113115
-1.58543e-05
0.000128114
-1.49994e-05
0.000142131
-1.40171e-05
0.000154811
-1.26805e-05
0.000166107
-1.12954e-05
0.000175808
-9.7018e-06
0.000183787
-7.97918e-06
0.000189738
-5.9512e-06
0.000193723
-3.98471e-06
0.000195429
-1.70649e-06
0.000195007
4.2263e-07
0.000192478
2.52899e-06
0.000187521
4.9568e-06
0.000180265
7.25591e-06
0.000170589
9.67593e-06
0.000158565
1.20237e-05
0.000144552
1.40134e-05
0.000128668
1.58834e-05
0.000111346
1.73222e-05
9.29145e-05
1.84315e-05
7.38391e-05
1.90754e-05
5.45631e-05
1.92759e-05
3.52818e-05
1.92812e-05
1.62985e-05
1.89833e-05
-2.19588e-06
1.84944e-05
-1.98959e-05
1.77e-05
-3.67394e-05
1.68435e-05
-5.2638e-05
1.58985e-05
-6.75619e-05
1.49239e-05
-8.14392e-05
1.38774e-05
-9.42977e-05
1.28585e-05
-0.000106113
1.18157e-05
-0.000116884
1.07706e-05
-0.000126651
9.76699e-06
-0.000135422
8.77064e-06
-0.000143214
7.79246e-06
-0.000150064
6.84932e-06
-0.000155988
5.9241e-06
-0.000161018
5.03072e-06
-0.000165166
4.14769e-06
-0.000168443
3.27726e-06
-0.000170836
2.39228e-06
-0.000172327
1.49185e-06
-0.000172953
6.25316e-07
-0.000172814
-1.39073e-07
-0.000171945
-8.68772e-07
-0.000170299
-1.64593e-06
-0.000167846
-2.45331e-06
-0.000164527
-3.31877e-06
-0.000160359
-4.16841e-06
-0.00015535
-5.00856e-06
-0.000149238
-6.11183e-06
-0.000142224
-7.01448e-06
-0.000134138
-8.08554e-06
-0.000125048
-9.08999e-06
-0.000115062
-9.98673e-06
-0.00010396
-1.11012e-05
-9.18677e-05
-1.20927e-05
-7.88474e-05
-1.30203e-05
-6.45688e-05
-1.42787e-05
-4.93723e-05
-1.51965e-05
-3.33766e-05
-1.59958e-05
-1.64773e-05
-1.68994e-05
1.08356e-06
-1.75609e-05
1.9403e-05
-1.83195e-05
3.82002e-05
-1.87973e-05
5.71462e-05
-1.8946e-05
7.63478e-05
-1.92017e-05
9.54812e-05
-1.91334e-05
0.000114163
-1.86817e-05
0.000132346
-1.81834e-05
0.000149673
-1.73271e-05
0.000165962
-1.62889e-05
0.000180913
-1.49512e-05
0.000194237
-1.33234e-05
0.000205774
-1.15376e-05
0.000215304
-9.52961e-06
0.00022265
-7.34626e-06
0.000227618
-4.96854e-06
0.000230097
-2.47835e-06
0.000229992
1.03956e-07
0.000227316
2.67626e-06
0.000222048
5.26762e-06
0.000214574
7.4743e-06
0.000204854
9.72004e-06
1.17764e-05
-0.00011029
1.96292e-05
-0.000119159
1.77384e-05
-0.000127192
1.60655e-05
-0.000134414
1.44396e-05
-0.000140843
1.28581e-05
-0.000146526
1.13663e-05
-0.000151472
9.89343e-06
-0.000155721
8.4994e-06
-0.000159289
7.13478e-06
-0.000162184
5.78599e-06
-0.00016443
4.49051e-06
-0.000166058
3.25301e-06
-0.000167023
1.93621e-06
-0.000167347
6.4982e-07
-0.000166966
-7.66204e-07
-0.000165885
-2.15981e-06
-0.000164185
-3.40177e-06
-0.000161709
-4.95082e-06
-0.000158503
-6.40571e-06
-0.000154601
-7.80548e-06
-0.000149765
-9.68213e-06
-0.000144131
-1.12659e-05
-0.000137716
-1.28326e-05
-0.00013029
-1.48556e-05
-0.000121953
-1.66737e-05
-0.000112596
-1.872e-05
-0.000102263
-2.06617e-05
-9.09756e-05
-2.2576e-05
-7.86041e-05
-2.47388e-05
-6.51936e-05
-2.68195e-05
-5.08855e-05
-2.86244e-05
-3.55215e-05
-3.07146e-05
-1.93223e-05
-3.23936e-05
-2.23273e-06
-3.41725e-05
1.5579e-05
-3.56164e-05
3.37861e-05
-3.64034e-05
5.24544e-05
-3.7325e-05
7.13771e-05
-3.78383e-05
9.02253e-05
-3.76888e-05
0.000108914
-3.73653e-05
0.00012712
-3.64026e-05
0.000144697
-3.51417e-05
0.00016138
-3.33542e-05
0.000176752
-3.07325e-05
0.000190752
-2.7988e-05
0.000203103
-2.46967e-05
0.000213516
-2.08162e-05
0.000221926
-1.68146e-05
0.000228181
-1.25048e-05
0.000232104
-7.83639e-06
0.000233697
-3.18044e-06
0.000232892
1.5972e-06
0.00022973
6.32058e-06
0.000224384
1.06977e-05
0.000216817
1.51308e-05
0.000207264
1.9101e-05
0.000195939
2.26483e-05
0.000182881
2.61024e-05
0.000168342
2.90648e-05
0.00015266
3.13499e-05
0.000136059
3.31859e-05
0.000118604
3.48993e-05
0.000100667
3.58618e-05
8.24722e-05
3.63756e-05
6.4201e-05
3.65417e-05
4.59879e-05
3.64007e-05
2.80998e-05
3.5788e-05
1.06539e-05
3.48665e-05
-6.19799e-06
3.36814e-05
-2.246e-05
3.2522e-05
-3.79112e-05
3.08984e-05
-5.25358e-05
2.92568e-05
-6.63274e-05
2.75759e-05
-7.92352e-05
2.58065e-05
-9.11881e-05
2.39067e-05
-0.00010228
2.21823e-05
-0.000112394
2.02258e-05
-0.000121681
1.85695e-05
-0.000130091
1.68357e-05
-0.000137637
1.50901e-05
-0.000144399
1.35181e-05
-0.000150354
1.18919e-05
-0.000155474
1.02533e-05
-0.000159808
8.67131e-06
-0.000163313
7.01367e-06
-0.000165976
5.32829e-06
-0.000167824
3.6971e-06
-0.000168778
1.91452e-06
-0.000168902
2.51279e-07
-0.000168094
-1.60917e-06
-0.000166355
-3.47683e-06
-0.000163657
-5.39112e-06
-0.000160075
-7.1625e-06
-0.00015564
-8.8538e-06
-0.000150462
-1.03415e-05
-0.00014463
-1.16524e-05
-0.000138221
-1.28255e-05
-0.000131247
-1.39247e-05
-0.000123679
-1.51333e-05
-0.000115493
-1.63691e-05
-0.000106624
-1.77407e-05
-9.70007e-05
-1.92346e-05
-8.66272e-05
-2.07445e-05
-7.55081e-05
-2.22527e-05
-6.3541e-05
-2.39082e-05
-5.07265e-05
-2.56264e-05
-3.70794e-05
-2.72903e-05
-2.27356e-05
-2.86794e-05
-7.63238e-06
-3.02035e-05
8.12468e-06
-3.15034e-05
2.44324e-05
-3.26128e-05
4.11843e-05
-3.35036e-05
5.82462e-05
-3.41209e-05
7.54873e-05
-3.44772e-05
9.27346e-05
-3.44924e-05
0.000109841
-3.42096e-05
0.000126602
-3.35165e-05
0.00014284
-3.24711e-05
0.000158335
-3.0989e-05
0.000172909
-2.91459e-05
0.000186336
-2.68529e-05
0.000198415
-2.41672e-05
0.000208935
-2.10446e-05
0.000217706
-1.75465e-05
0.000224491
-1.35832e-05
0.00022922
-9.47092e-06
0.000231761
-5.10943e-06
0.000232031
-5.5101e-07
0.000229999
4.02877e-06
0.000225621
8.73117e-06
0.00021902
1.3179e-05
0.000210277
1.7472e-05
0.000199555
2.14202e-05
0.000187012
2.5058e-05
0.000172873
2.82445e-05
0.000157355
3.10183e-05
0.000140706
3.32585e-05
0.000123207
3.50111e-05
0.000105007
3.63398e-05
8.64858e-05
3.70494e-05
6.77478e-05
3.74271e-05
4.91407e-05
3.72412e-05
3.07544e-05
3.67321e-05
1.28485e-05
3.57813e-05
-4.43653e-06
3.45533e-05
-2.09519e-05
3.30484e-05
-3.65865e-05
3.12778e-05
-5.12683e-05
2.93374e-05
-6.48974e-05
2.72888e-05
-7.74987e-05
2.5191e-05
-8.90026e-05
2.30306e-05
-9.94644e-05
2.09341e-05
-0.000108858
1.88281e-05
-0.000117285
1.68563e-05
-0.000124826
1.50086e-05
-0.000131431
1.32729e-05
-0.000137198
1.15506e-05
-0.000142177
9.96761e-06
-0.000146404
8.47805e-06
-0.00014992
7.04977e-06
-0.00015278
5.69675e-06
-0.000155027
4.52977e-06
-0.000156632
3.22781e-06
-0.000157642
2.04311e-06
-0.000158096
9.04959e-07
-0.00015807
-4.42059e-08
-0.000157425
-1.28241e-06
-0.000156254
-2.33558e-06
-0.000154511
-3.47876e-06
-0.000152166
-4.67986e-06
-0.000149261
-5.79822e-06
-0.000145705
-7.0891e-06
-0.000141621
-8.18414e-06
-0.000136876
-9.48388e-06
-0.000131454
-1.08333e-05
-0.000125382
-1.21304e-05
-0.000118603
-1.35551e-05
-0.000111112
-1.49782e-05
-0.00010289
-1.64457e-05
-9.38857e-05
-1.80051e-05
-8.41114e-05
-1.95421e-05
-7.35273e-05
-2.11648e-05
-6.21613e-05
-2.27254e-05
-4.99662e-05
-2.43968e-05
-3.69272e-05
-2.6079e-05
-2.311e-05
-2.76309e-05
-8.50098e-06
-2.92208e-05
6.80823e-06
-3.06215e-05
2.27586e-05
-3.19008e-05
3.92392e-05
-3.29588e-05
5.61217e-05
-3.37616e-05
7.32424e-05
-3.42478e-05
9.0431e-05
-3.43803e-05
0.000107467
-3.40749e-05
0.000124134
-3.33331e-05
0.000140192
-3.21169e-05
0.00015534
-3.03053e-05
0.000169331
-2.79782e-05
0.000181906
-2.51605e-05
0.000192818
-2.18311e-05
0.000201867
-1.80892e-05
0.000208806
-1.39009e-05
0.000213534
-9.46492e-06
0.000215914
-4.78079e-06
0.000215881
4.35998e-08
0.000213429
4.86925e-06
0.000208544
9.77915e-06
0.000201435
1.42266e-05
0.000192117
1.85925e-05
0.000180883
2.24608e-05
0.000167873
2.59982e-05
0.000153317
2.91119e-05
0.000137465
3.16842e-05
0.000120542
3.38478e-05
0.000102835
3.54015e-05
8.46595e-05
3.63954e-05
6.61478e-05
3.69344e-05
4.77201e-05
3.6893e-05
2.95716e-05
3.63355e-05
1.18058e-05
3.54979e-05
-5.32128e-06
3.42435e-05
-2.17188e-05
3.27615e-05
-3.7307e-05
3.12252e-05
-5.19899e-05
2.93818e-05
-6.57585e-05
2.75235e-05
-7.85517e-05
2.56024e-05
-9.03365e-05
2.35858e-05
-0.000101099
2.15657e-05
-0.00011098
1.97058e-05
-0.000119906
1.78858e-05
-0.000127939
1.60817e-05
-0.000135163
1.44595e-05
-0.000141664
1.30111e-05
-0.000147492
1.1676e-05
-0.000152727
1.0485e-05
-0.000157366
9.27053e-06
-0.000161422
8.12162e-06
-0.000164859
6.87594e-06
-0.000167638
5.54793e-06
-0.000169795
4.33677e-06
-0.000171214
2.83412e-06
-0.000171959
1.50333e-06
-0.000172029
1.20962e-07
-0.000171389
-1.2743e-06
-0.000170097
-2.57726e-06
-0.000168195
-3.80236e-06
-0.000165737
-4.92015e-06
-0.000162732
-6.00892e-06
-0.000159178
-7.10346e-06
-0.000155016
-8.32854e-06
-0.000150332
-9.39187e-06
-0.000144941
-1.07671e-05
-0.00013881
-1.22541e-05
-0.000131891
-1.3832e-05
-0.000124112
-1.55556e-05
-0.000115501
-1.72168e-05
-0.000106032
-1.89325e-05
-9.57696e-05
-2.05231e-05
-8.47379e-05
-2.2054e-05
-7.2948e-05
-2.35779e-05
-6.03805e-05
-2.51258e-05
-4.71601e-05
-2.64358e-05
-3.31207e-05
-2.80753e-05
-1.83477e-05
-2.95385e-05
-2.77971e-06
-3.10924e-05
1.33058e-05
-3.21993e-05
2.99256e-05
-3.32298e-05
4.68572e-05
-3.38516e-05
6.38905e-05
-3.40596e-05
8.07798e-05
-3.37625e-05
9.72773e-05
-3.29835e-05
0.000113137
-3.17141e-05
0.000128146
-3.00085e-05
0.000142172
-2.80439e-05
0.000154854
-2.53618e-05
0.000166153
-2.25955e-05
0.000175868
-1.94168e-05
0.000183851
-1.59621e-05
0.000189792
-1.18922e-05
0.000193788
-7.98123e-06
0.000195515
-3.43343e-06
0.000195122
8.15284e-07
0.000192584
5.06655e-06
0.000187635
9.90582e-06
0.000180382
1.45087e-05
0.000170704
1.9354e-05
0.000158672
2.40553e-05
0.000144647
2.80391e-05
0.000128748
3.17819e-05
0.000111409
3.46612e-05
9.29605e-05
3.68799e-05
7.38696e-05
3.81662e-05
5.45796e-05
3.85659e-05
3.5287e-05
3.85737e-05
1.62941e-05
3.79762e-05
-2.21039e-06
3.69988e-05
-1.99144e-05
3.5404e-05
-3.6761e-05
3.36901e-05
-5.26616e-05
3.17991e-05
-6.7587e-05
2.98493e-05
-8.14653e-05
2.77557e-05
-9.43242e-05
2.57173e-05
-0.00010614
2.36316e-05
-0.000116911
2.15411e-05
-0.000126675
1.95318e-05
-0.000135442
1.75368e-05
-0.000143233
1.55835e-05
-0.000150085
1.37019e-05
-0.000156009
1.18483e-05
-0.000161039
1.00598e-05
-0.000165181
8.29042e-06
-0.000168451
6.54735e-06
-0.000170846
4.78654e-06
-0.000172348
2.99378e-06
-0.000172987
1.26429e-06
-0.000172859
-2.66975e-07
-0.000171989
-1.73858e-06
-0.000170346
-3.28906e-06
-0.000167895
-4.90454e-06
-0.000164576
-6.63779e-06
-0.000160405
-8.33905e-06
-0.000155383
-1.00311e-05
-0.000149291
-1.22031e-05
-0.000142279
-1.4027e-05
-0.00013419
-1.61741e-05
-0.0001251
-1.81807e-05
-0.000115114
-1.99727e-05
-0.000104012
-2.2203e-05
-9.19167e-05
-2.41881e-05
-7.88901e-05
-2.60471e-05
-6.46164e-05
-2.85525e-05
-4.94102e-05
-3.04028e-05
-3.34176e-05
-3.19884e-05
-1.65157e-05
-3.38014e-05
1.0511e-06
-3.51279e-05
1.938e-05
-3.66485e-05
3.81902e-05
-3.76076e-05
5.71404e-05
-3.78964e-05
7.63498e-05
-3.84112e-05
9.54968e-05
-3.82805e-05
0.000114191
-3.73763e-05
0.000132388
-3.63801e-05
0.000149729
-3.46687e-05
0.000166025
-3.25845e-05
0.000180982
-2.99092e-05
0.000194316
-2.66574e-05
0.000205855
-2.30761e-05
0.000215389
-1.90637e-05
0.000222742
-1.47002e-05
0.000227715
-9.94146e-06
0.000230195
-4.95838e-06
0.000230085
2.13956e-07
0.000227403
5.35745e-06
0.000222138
1.05324e-05
0.000214662
1.49509e-05
0.000204935
1.94469e-05
2.35623e-05
-0.000110362
2.94451e-05
-0.00011923
2.66069e-05
-0.000127263
2.40978e-05
-0.000134482
2.16593e-05
-0.000140911
1.92873e-05
-0.000146592
1.70472e-05
-0.000151538
1.48389e-05
-0.000155788
1.27492e-05
-0.000159357
1.07038e-05
-0.000162255
8.68435e-06
-0.000164505
6.74013e-06
-0.000166124
4.87226e-06
-0.000167086
2.89795e-06
-0.000167399
9.63024e-07
-0.000167011
-1.15376e-06
-0.000165933
-3.23827e-06
-0.000164233
-5.10211e-06
-0.00016176
-7.42324e-06
-0.000158561
-9.60529e-06
-0.000154662
-1.17042e-05
-0.000149832
-1.45119e-05
-0.000144199
-1.68995e-05
-0.000137784
-1.92468e-05
-0.000130362
-2.22782e-05
-0.000122032
-2.50042e-05
-0.000112691
-2.80605e-05
-0.00010234
-3.10133e-05
-9.10634e-05
-3.38522e-05
-7.868e-05
-3.71223e-05
-6.52675e-05
-4.02321e-05
-5.09815e-05
-4.29104e-05
-3.55843e-05
-4.61119e-05
-1.93753e-05
-4.86026e-05
-2.27635e-06
-5.12716e-05
1.55432e-05
-5.34361e-05
3.37602e-05
-5.46205e-05
5.24433e-05
-5.60082e-05
7.13855e-05
-5.67806e-05
9.0251e-05
-5.65545e-05
0.000108955
-5.60696e-05
0.000127176
-5.4623e-05
0.00014477
-5.27365e-05
0.000161476
-5.00601e-05
0.000176872
-4.61284e-05
0.000190885
-4.20014e-05
0.000203252
-3.7063e-05
0.000213678
-3.12428e-05
0.000222102
-2.52387e-05
0.000228363
-1.87652e-05
0.000232288
-1.17616e-05
0.000233888
-4.78136e-06
0.000233054
2.43118e-06
0.000229891
9.48368e-06
0.00022455
1.60384e-05
0.000216976
2.27053e-05
0.000207414
2.86629e-05
0.000196094
3.39686e-05
0.000183001
3.91946e-05
0.000168443
4.36232e-05
0.000152733
4.70594e-05
0.000136098
4.98215e-05
0.000118639
5.23579e-05
0.000100685
5.38156e-05
8.24731e-05
5.45877e-05
6.41954e-05
5.48195e-05
4.59621e-05
5.46339e-05
2.80674e-05
5.36827e-05
1.05998e-05
5.2334e-05
-6.25976e-06
5.0541e-05
-2.25273e-05
4.87895e-05
-3.79807e-05
4.63518e-05
-5.2596e-05
4.3872e-05
-6.63944e-05
4.13744e-05
-7.93101e-05
3.87222e-05
-9.12669e-05
3.58634e-05
-0.000102361
3.32769e-05
-0.000112473
3.03377e-05
-0.000121763
2.7859e-05
-0.000130154
2.5227e-05
-0.0001377
2.26361e-05
-0.000144465
2.02827e-05
-0.000150443
1.78694e-05
-0.000155556
1.53669e-05
-0.000159889
1.30041e-05
-0.000163393
1.05171e-05
-0.000166058
7.99275e-06
-0.000167909
5.54782e-06
-0.000168853
2.85888e-06
-0.000168975
3.72607e-07
-0.00016817
-2.41464e-06
-0.000166434
-5.21255e-06
-0.00016374
-8.08569e-06
-0.000160145
-1.07572e-05
-0.000155715
-1.32843e-05
-0.000150534
-1.55229e-05
-0.000144698
-1.74886e-05
-0.000138277
-1.92465e-05
-0.000131306
-2.08966e-05
-0.00012374
-2.26989e-05
-0.000115563
-2.45464e-05
-0.000106702
-2.66019e-05
-9.70929e-05
-2.88442e-05
-8.67183e-05
-3.11193e-05
-7.55964e-05
-3.33748e-05
-6.36453e-05
-3.58594e-05
-5.08406e-05
-3.84313e-05
-3.71942e-05
-4.09369e-05
-2.28507e-05
-4.3023e-05
-7.74925e-06
-4.5305e-05
8.00637e-06
-4.72591e-05
2.43174e-05
-4.8924e-05
4.10792e-05
-5.02654e-05
5.81536e-05
-5.11953e-05
7.54035e-05
-5.17272e-05
9.26581e-05
-5.1747e-05
0.00010977
-5.13214e-05
0.000126541
-5.02875e-05
0.000142798
-4.8728e-05
0.000158306
-4.64969e-05
0.000172889
-4.3729e-05
0.000186337
-4.03011e-05
0.000198433
-3.62635e-05
0.000208965
-3.15759e-05
0.000217726
-2.63082e-05
0.000224528
-2.03846e-05
0.00022926
-1.4203e-05
0.000231774
-7.62357e-06
0.000232042
-8.18954e-07
0.000229996
6.07444e-06
0.000225615
1.31125e-05
0.000218995
1.97993e-05
0.000210232
2.62348e-05
0.000199483
3.21693e-05
0.000186915
3.7626e-05
0.000172744
4.24155e-05
0.000157236
4.65256e-05
0.000140509
4.99854e-05
0.000122974
5.25465e-05
0.000104747
5.45665e-05
8.61732e-05
5.56236e-05
6.74464e-05
5.61539e-05
4.88413e-05
5.58463e-05
3.04125e-05
5.51609e-05
1.24873e-05
5.37065e-05
-4.81998e-06
5.18605e-05
-2.13254e-05
4.95538e-05
-3.69274e-05
4.68798e-05
-5.16437e-05
4.40537e-05
-6.52921e-05
4.09372e-05
-7.78903e-05
3.77892e-05
-8.93823e-05
3.45226e-05
-9.97952e-05
3.13471e-05
-0.000109219
2.82517e-05
-0.00011772
2.53573e-05
-0.000125216
2.25046e-05
-0.000131812
1.98687e-05
-0.000137564
1.73033e-05
-0.000142524
1.49271e-05
-0.000146744
1.26985e-05
-0.000150185
1.04902e-05
-0.000153099
8.61109e-06
-0.000155335
6.76533e-06
-0.000156943
4.83582e-06
-0.000157904
3.0044e-06
-0.000158448
1.44932e-06
-0.000158366
-1.26675e-07
-0.00015772
-1.9276e-06
-0.000156545
-3.51114e-06
-0.000154801
-5.22312e-06
-0.000152452
-7.02823e-06
-0.00014953
-8.72056e-06
-0.000145992
-1.06264e-05
-0.000141927
-1.22499e-05
-0.000137161
-1.42496e-05
-0.000131743
-1.62511e-05
-0.000125667
-1.82064e-05
-0.000118888
-2.03338e-05
-0.000111407
-2.24596e-05
-0.000103101
-2.47515e-05
-9.41832e-05
-2.69233e-05
-8.44202e-05
-2.93051e-05
-7.38372e-05
-3.17478e-05
-6.23951e-05
-3.41676e-05
-5.02467e-05
-3.65453e-05
-3.72109e-05
-3.91148e-05
-2.33707e-05
-4.14712e-05
-8.7454e-06
-4.38462e-05
6.57055e-06
-4.59375e-05
2.25279e-05
-4.78583e-05
3.90115e-05
-4.94426e-05
5.59001e-05
-5.06502e-05
7.30294e-05
-5.13773e-05
9.02287e-05
-5.15797e-05
0.000107282
-5.11281e-05
0.000123966
-5.0017e-05
0.000140039
-4.819e-05
0.000155211
-4.54776e-05
0.000169256
-4.20237e-05
0.000181816
-3.77208e-05
0.000192732
-3.27474e-05
0.000201806
-2.71628e-05
0.000208737
-2.08326e-05
0.000213493
-1.42207e-05
0.000215834
-7.12204e-06
0.000215798
7.92708e-08
0.000213303
7.36471e-06
0.000208424
1.46573e-05
0.000201263
2.13874e-05
0.000191954
2.79014e-05
0.000180742
3.36729e-05
0.000167688
3.90526e-05
0.000153145
4.36541e-05
0.000137234
4.75959e-05
0.000120304
5.07772e-05
0.000102567
5.31384e-05
8.43324e-05
5.463e-05
6.58443e-05
5.54224e-05
4.74507e-05
5.52866e-05
2.92561e-05
5.45301e-05
1.14834e-05
5.32706e-05
-5.65229e-06
5.13791e-05
-2.20612e-05
4.91704e-05
-3.76414e-05
4.68053e-05
-5.23348e-05
4.40752e-05
-6.61083e-05
4.12969e-05
-7.88911e-05
3.83852e-05
-9.06773e-05
3.5372e-05
-0.000101467
3.23554e-05
-0.000111326
2.95648e-05
-0.000120237
2.67967e-05
-0.000128257
2.41019e-05
-0.000135469
2.16717e-05
-0.000141959
1.95008e-05
-0.000147778
1.74958e-05
-0.000153007
1.5714e-05
-0.000157662
1.3925e-05
-0.000161713
1.21729e-05
-0.000165147
1.03098e-05
-0.000167952
8.3532e-06
-0.000170089
6.47397e-06
-0.000171529
4.27443e-06
-0.000172217
2.19108e-06
-0.000172329
2.33262e-07
-0.000171682
-1.92079e-06
-0.00017039
-3.86947e-06
-0.000168478
-5.71405e-06
-0.00016602
-7.37746e-06
-0.000163001
-9.02801e-06
-0.00015944
-1.06647e-05
-0.000155328
-1.24401e-05
-0.00015063
-1.40898e-05
-0.000145224
-1.61731e-05
-0.000139083
-1.83947e-05
-0.000132149
-2.07655e-05
-0.000124357
-2.33477e-05
-0.000115733
-2.58405e-05
-0.000106248
-2.84173e-05
-9.59794e-05
-3.07916e-05
-8.49335e-05
-3.30998e-05
-7.31348e-05
-3.53766e-05
-6.05461e-05
-3.77145e-05
-4.7315e-05
-3.96669e-05
-3.32642e-05
-4.21261e-05
-1.84767e-05
-4.43261e-05
-2.89054e-06
-4.66786e-05
1.32066e-05
-4.82966e-05
2.98456e-05
-4.98688e-05
4.68016e-05
-5.08077e-05
6.3855e-05
-5.11131e-05
8.07732e-05
-5.06809e-05
9.72863e-05
-4.94968e-05
0.000113157
-4.75851e-05
0.000128184
-4.50362e-05
0.00014223
-4.20895e-05
0.000154922
-3.8054e-05
0.000166222
-3.38961e-05
0.00017594
-2.91347e-05
0.000183939
-2.39614e-05
0.000189882
-1.78352e-05
0.000193887
-1.19861e-05
0.000195631
-5.17803e-06
0.000195275
1.17094e-06
0.000192737
7.60532e-06
0.000187805
1.48372e-05
0.000180557
2.17562e-05
0.000170874
2.90368e-05
0.000158829
3.61009e-05
0.000144781
4.20869e-05
0.000128854
4.77084e-05
0.000111485
5.20304e-05
9.30075e-05
5.53573e-05
7.38903e-05
5.72833e-05
5.45756e-05
5.78806e-05
3.52644e-05
5.78848e-05
1.62546e-05
5.69859e-05
-2.25949e-06
5.55129e-05
-1.99733e-05
5.31178e-05
-3.68254e-05
5.05422e-05
-5.27314e-05
4.77051e-05
-6.76595e-05
4.47773e-05
-8.15386e-05
4.16348e-05
-9.43974e-05
3.85761e-05
-0.000106212
3.5446e-05
-0.000116979
3.23086e-05
-0.00012674
2.92927e-05
-0.000135503
2.62998e-05
-0.000143288
2.33685e-05
-0.000150133
2.05464e-05
-0.000156049
1.77646e-05
-0.000161071
1.50819e-05
-0.000165213
1.24325e-05
-0.000168481
9.81506e-06
-0.000170879
7.18504e-06
-0.000172397
4.5112e-06
-0.000173048
1.91546e-06
-0.00017293
-3.85151e-07
-0.000172066
-2.60217e-06
-0.000170421
-4.93431e-06
-0.000167972
-7.35332e-06
-0.000164652
-9.95827e-06
-0.000160476
-1.25145e-05
-0.000155438
-1.50695e-05
-0.000149371
-1.82697e-05
-0.000142359
-2.1039e-05
-0.00013427
-2.42632e-05
-0.000125181
-2.72697e-05
-0.000115197
-2.9957e-05
-0.000104096
-3.33046e-05
-9.19971e-05
-3.62867e-05
-7.89645e-05
-3.90798e-05
-6.46952e-05
-4.28219e-05
-4.94781e-05
-4.56201e-05
-3.34798e-05
-4.79868e-05
-1.65703e-05
-5.0711e-05
1.00638e-06
-5.27046e-05
1.93454e-05
-5.49877e-05
3.81745e-05
-5.64368e-05
5.71423e-05
-5.68643e-05
7.6367e-05
-5.7636e-05
9.55297e-05
-5.74435e-05
0.00011424
-5.60872e-05
0.000132461
-5.46004e-05
0.000149818
-5.20264e-05
0.000166132
-4.88986e-05
0.000181102
-4.48797e-05
0.000194449
-4.00037e-05
0.000206
-3.46274e-05
0.000215537
-2.86009e-05
0.000222887
-2.20506e-05
0.000227853
-1.49079e-05
0.000230342
-7.44682e-06
0.000230242
3.13574e-07
0.000227567
8.03167e-06
0.000222315
1.57848e-05
0.000214833
2.24327e-05
0.000205093
2.91868e-05
3.53635e-05
-0.00011047
3.92607e-05
-0.000119339
3.54757e-05
-0.00012737
3.21296e-05
-0.000134589
2.88778e-05
-0.000141016
2.57147e-05
-0.000146695
2.27259e-05
-0.000151641
1.97851e-05
-0.000155892
1.69998e-05
-0.00015946
1.42722e-05
-0.000162361
1.15852e-05
-0.000164619
8.99798e-06
-0.000166227
6.47989e-06
-0.000167182
3.85311e-06
-0.000167479
1.25977e-06
-0.000167082
-1.55079e-06
-0.000166008
-4.31164e-06
-0.000164308
-6.80239e-06
-0.000161839
-9.89229e-06
-0.000158645
-1.27995e-05
-0.000154754
-1.55948e-05
-0.000149944
-1.9322e-05
-0.000144298
-2.25453e-05
-0.000137886
-2.56593e-05
-0.000130469
-2.96944e-05
-0.000122149
-3.3325e-05
-0.000112849
-3.73598e-05
-0.000102456
-4.1407e-05
-9.12027e-05
-4.51053e-05
-7.87953e-05
-4.95297e-05
-6.53795e-05
-5.3648e-05
-5.1096e-05
-5.7194e-05
-3.56821e-05
-6.15259e-05
-1.94578e-05
-6.4827e-05
-2.34252e-06
-6.8387e-05
1.54931e-05
-7.12718e-05
3.37276e-05
-7.28551e-05
5.24313e-05
-7.47119e-05
7.13952e-05
-7.57446e-05
9.02834e-05
-7.54428e-05
0.000109014
-7.48007e-05
0.00012726
-7.28683e-05
0.000144882
-7.03591e-05
0.000161621
-6.67991e-05
0.000177051
-6.15588e-05
0.00019108
-5.60305e-05
0.000203474
-4.94568e-05
0.000213926
-4.16951e-05
0.000222365
-3.36778e-05
0.000228634
-2.50344e-05
0.000232562
-1.56891e-05
0.000234164
-6.38341e-06
0.000233299
3.29582e-06
0.000230137
1.26452e-05
0.000224801
2.13752e-05
0.000217214
3.02916e-05
0.000207639
3.82382e-05
0.000196313
4.52947e-05
0.00018318
5.23275e-05
0.000168597
5.82058e-05
0.000152844
6.2813e-05
0.000136164
6.65008e-05
0.00011869
6.98317e-05
0.000100712
7.17942e-05
8.24721e-05
7.28274e-05
6.4147e-05
7.31445e-05
4.5919e-05
7.28619e-05
2.80111e-05
7.15905e-05
1.05127e-05
6.98325e-05
-6.3549e-06
6.74085e-05
-2.26299e-05
6.50645e-05
-3.80877e-05
6.18096e-05
-5.26809e-05
5.84651e-05
-6.64962e-05
5.51897e-05
-7.94252e-05
5.16512e-05
-9.13862e-05
4.78244e-05
-0.000102483
4.43733e-05
-0.000112591
4.04459e-05
-0.000121887
3.71547e-05
-0.000130289
3.36289e-05
-0.000137814
3.01614e-05
-0.000144607
2.70754e-05
-0.000150576
2.3838e-05
-0.000155681
2.04724e-05
-0.000160014
1.73369e-05
-0.000163515
1.40178e-05
-0.000166184
1.06614e-05
-0.000168044
7.40717e-06
-0.00016898
3.79495e-06
-0.000169098
4.90354e-07
-0.000168296
-3.21725e-06
-0.000166573
-6.93542e-06
-0.000163885
-1.07739e-05
-0.000160258
-1.43848e-05
-0.000155846
-1.76967e-05
-0.00015066
-2.07083e-05
-0.000144826
-2.33228e-05
-0.000138385
-2.56886e-05
-0.000131441
-2.78405e-05
-0.000123887
-3.02527e-05
-0.000115725
-3.27095e-05
-0.000106881
-3.54453e-05