/*--------------------------------*- C++ -*----------------------------------*\
| =========                 |                                                 |
| \\      /  F ield         | OpenFOAM: The Open Source CFD Toolbox           |
|  \\    /   O peration     | Version:  3.0.1                                 |
|   \\  /    A nd           | Web:      www.OpenFOAM.org                      |
|    \\/     M anipulation  |                                                 |
\*---------------------------------------------------------------------------*/
FoamFile
{
    version     2.0;
    format      ascii;
    class       volScalarField;
    location    "20.2";
    object      p;
}
// * * * * * * * * * * * * * * * * * * * * * * * * * * * * * * * * * * * * * //

dimensions      [1 -1 -2 0 0 0 0];

internalField   nonuniform List<scalar> 
21420
(
3836.37
3808.48
3780.41
3753.14
3727.12
3702.6
3679.72
3658.57
3639.19
3621.6
3605.77
3591.69
3579.31
3568.58
3559.47
3551.93
3545.92
3541.4
3538.35
3536.8
3536.71
3538.05
3540.83
3545.07
3550.81
3558.06
3566.86
3577.27
3589.32
3603.07
3618.57
3635.85
3654.97
3675.92
3698.72
3723.36
3749.78
3777.89
3807.59
3838.72
3871.08
3903.85
3937.61
3971.81
4006.1
4040.06
4073.29
4105.39
4135.95
4164.55
4190.84
4214.45
4235.07
4252.42
4266.26
4276.39
4282.69
4285.03
4283.39
4277.72
4268.14
4254.77
4237.77
4217.41
4193.93
4167.65
4138.94
4108.19
4075.81
4042.21
4007.8
3972.98
3938.15
3903.59
3869.58
3836.6
3804.84
3774.47
3745.68
3718.61
3693.35
3669.99
3648.58
3629.12
3611.65
3596.14
3582.58
3570.94
3561.17
3553.23
3547.06
3542.58
3539.73
3538.46
3538.73
3540.42
3543.51
3547.98
3553.81
3560.98
3569.51
3579.42
3590.73
3603.48
3617.71
3633.46
3650.75
3669.61
3690.05
3712.06
3735.62
3760.67
3787.17
3815.01
3844.07
3874.2
3905.24
3936.98
3969.15
4001.49
4033.7
4065.45
4096.37
4126.08
4154.17
4180.26
4203.94
4224.82
4242.55
4256.81
4267.33
4273.9
4276.32
4274.61
4268.69
4258.67
4244.66
4226.88
4205.59
4181.11
4153.83
4124.15
4092.51
4059.37
4025.21
3990.48
3955.64
3921.1
3887.27
3854.47
3823.01
3793.1
3764.94
3738.64
3714.27
3691.86
3671.39
3652.82
3636.11
3621.18
3607.95
3596.34
3586.27
3577.68
3570.49
3564.65
3560.12
3556.84
3554.8
3554.02
3554.46
3556.12
3559.04
3563.22
3568.71
3575.55
3583.79
3593.5
3604.73
3617.55
3632.03
3648.22
3666.18
3685.93
3707.48
3730.83
3755.94
3782.73
3811.09
3840.87
3871.88
3903.89
3936.63
3969.78
4002.99
4035.91
4068.12
4099.24
4128.84
4156.53
4181.9
4204.59
4224.26
4240.62
4253.43
4262.49
4267.67
4268.86
4266.16
4259.55
4249.16
4235.14
4217.72
4197.16
4173.75
4147.82
4119.73
4089.84
4058.54
4026.19
3993.19
3959.9
3926.67
3893.82
3861.67
3830.47
3800.45
3771.81
3744.72
3719.28
3695.59
3673.7
3653.66
3635.49
3619.17
3604.69
3592.05
3581.19
3572.08
3564.68
3558.96
3554.83
3552.28
3551.28
3551.75
3553.63
3556.9
3561.53
3567.49
3574.76
3583.34
3593.22
3604.42
3616.96
3630.88
3646.23
3663.04
3681.37
3701.26
3722.74
3745.82
3770.5
3796.73
3824.43
3853.5
3883.76
3915.43
3947.46
3979.93
4012.51
4044.79
4076.36
4106.79
4135.66
4162.53
4186.98
4208.68
4227.26
4242.41
4253.93
4261.64
4265.4
4265.13
4261.13
4253.24
4241.55
4226.33
4207.85
4186.39
4162.25
4135.81
4107.44
4077.53
4046.43
4014.54
3982.21
3949.8
3917.83
3889.1
3858.99
3829.33
3800.55
3772.95
3746.71
3721.95
3698.79
3677.28
3657.48
3639.43
3623.14
3608.6
3595.82
3584.77
3575.44
3567.79
3561.8
3557.44
3554.71
3553.61
3554.19
3556.34
3560.08
3565.38
3572.23
3580.62
3590.56
3602.03
3615.01
3629.52
3645.53
3663.04
3682.02
3702.46
3724.31
3747.52
3772.02
3797.69
3824.44
3852.12
3880.56
3909.6
3939.05
3968.66
3998.19
4027.35
4055.85
4083.42
4109.72
4134.41
4157.18
4177.69
4195.63
4210.71
4222.68
4231.34
4236.53
4238.12
3738.2
3710.31
3682.24
3654.96
3628.94
3604.41
3581.54
3560.39
3541.01
3523.42
3507.6
3493.52
3481.14
3470.42
3461.31
3453.77
3447.76
3443.25
3440.2
3438.65
3438.55
3439.89
3442.67
3446.91
3452.65
3459.89
3468.7
3479.1
3491.15
3504.89
3520.39
3537.68
3556.79
3577.74
3600.54
3625.18
3651.6
3679.71
3709.41
3740.55
3772.92
3805.7
3839.47
3873.68
3907.99
3941.96
3975.2
4007.33
4037.9
4066.53
4092.83
4116.46
4137.09
4154.45
4168.3
4178.44
4184.74
4187.09
4185.44
4179.76
4170.19
4156.8
4139.8
4119.41
4095.92
4069.62
4040.9
4010.13
3977.73
3944.11
3909.68
3874.85
3840.01
3805.44
3771.42
3738.43
3706.66
3676.29
3647.5
3620.42
3595.17
3571.8
3550.39
3530.94
3513.46
3497.96
3484.4
3472.76
3463
3455.06
3448.89
3444.42
3441.56
3440.3
3440.57
3442.26
3445.35
3449.83
3455.65
3462.82
3471.35
3481.26
3492.57
3505.32
3519.55
3535.29
3552.58
3571.44
3591.88
3613.89
3637.44
3662.5
3689
3716.84
3745.91
3776.04
3807.09
3838.84
3871.02
3903.37
3935.6
3967.36
3998.29
4028.02
4056.13
4082.24
4105.93
4126.83
4144.58
4158.85
4169.38
4175.95
4178.39
4176.67
4170.74
4160.72
4146.7
4128.9
4107.6
4083.1
4055.8
4026.1
3994.44
3961.29
3927.11
3892.36
3857.5
3822.95
3789.1
3756.3
3724.82
3694.92
3666.75
3640.45
3616.08
3593.67
3573.2
3554.64
3537.93
3523
3509.78
3498.18
3488.11
3479.52
3472.34
3466.5
3461.97
3458.69
3456.65
3455.87
3456.31
3457.97
3460.88
3465.06
3470.55
3477.39
3485.63
3495.33
3506.56
3519.38
3533.86
3550.05
3568
3587.75
3609.3
3632.65
3657.76
3684.55
3712.91
3742.7
3773.72
3805.74
3838.49
3871.65
3904.88
3937.81
3970.04
4001.18
4030.8
4058.5
4083.89
4106.6
4126.29
4142.66
4155.47
4164.54
4169.73
4170.92
4168.21
4161.6
4151.19
4137.17
4119.73
4099.16
4075.73
4049.79
4021.68
3991.78
3960.45
3928.09
3895.08
3861.77
3828.53
3795.67
3763.51
3732.3
3702.28
3673.64
3646.54
3621.09
3597.41
3575.52
3555.48
3537.31
3520.99
3506.52
3493.87
3483.02
3473.91
3466.52
3460.79
3456.67
3454.12
3453.12
3453.59
3455.47
3458.75
3463.38
3469.34
3476.61
3485.18
3495.06
3506.26
3518.8
3532.72
3548.06
3564.87
3583.2
3603.09
3624.57
3647.65
3672.32
3698.55
3726.26
3755.34
3785.6
3817.28
3849.31
3881.81
3914.4
3946.69
3978.28
4008.73
4037.62
4064.5
4088.98
4110.69
4129.29
4144.45
4155.98
4163.7
4167.46
4167.2
4163.17
4155.28
4143.59
4128.36
4109.86
4088.38
4064.23
4037.77
4009.39
3979.45
3948.34
3916.43
3884.09
3851.66
3819.68
3790.97
3760.85
3731.17
3702.38
3674.78
3648.54
3623.78
3600.61
3579.1
3559.31
3541.26
3524.96
3510.43
3497.65
3486.6
3477.27
3469.62
3463.64
3459.27
3456.55
3455.45
3456.03
3458.18
3461.92
3467.21
3474.07
3482.46
3492.39
3503.86
3516.85
3531.36
3547.37
3564.87
3583.86
3604.3
3626.15
3649.36
3673.86
3699.53
3726.28
3753.97
3782.42
3811.46
3840.92
3870.54
3900.09
3929.26
3957.77
3985.35
4011.66
4036.37
4059.15
4079.68
4097.64
4112.73
4124.71
4133.37
4138.57
4140.17
3639.98
3612.07
3583.99
3556.7
3530.68
3506.15
3483.28
3462.13
3442.75
3425.17
3409.35
3395.27
3382.9
3372.18
3363.08
3355.55
3349.54
3345.03
3341.99
3340.44
3340.34
3341.67
3344.45
3348.7
3354.43
3361.67
3370.47
3380.87
3392.91
3406.65
3422.14
3439.42
3458.53
3479.48
3502.27
3526.92
3553.34
3581.45
3611.16
3642.31
3674.69
3707.5
3741.29
3775.53
3809.86
3843.87
3877.14
3909.3
3939.91
3968.57
3994.91
4018.57
4039.23
4056.61
4070.48
4080.64
4086.95
4089.32
4087.64
4081.96
4072.38
4058.97
4041.94
4021.53
3998.01
3971.67
3942.92
3912.11
3879.67
3846.02
3811.56
3776.7
3741.82
3707.24
3673.19
3640.2
3608.41
3578.03
3549.23
3522.15
3496.89
3473.53
3452.12
3432.67
3415.2
3399.7
3386.14
3374.51
3364.75
3356.81
3350.65
3346.18
3343.34
3342.08
3342.35
3344.04
3347.14
3351.62
3357.44
3364.61
3373.14
3383.04
3394.35
3407.09
3421.32
3437.06
3454.35
3473.2
3493.64
3515.65
3539.2
3564.26
3590.76
3618.61
3647.68
3677.83
3708.9
3740.66
3772.86
3805.23
3837.49
3869.28
3900.24
3930
3958.16
3984.3
4008.03
4028.96
4046.74
4061.04
4071.59
4078.17
4080.63
4078.88
4072.96
4062.93
4048.88
4031.06
4009.72
3985.19
3957.85
3928.11
3896.41
3863.21
3828.99
3794.21
3759.32
3724.74
3690.87
3658.05
3626.56
3596.64
3568.48
3542.17
3517.81
3495.4
3474.94
3456.39
3439.68
3424.76
3411.55
3399.95
3389.89
3381.31
3374.13
3368.29
3363.76
3360.49
3358.45
3357.67
3358.11
3359.77
3362.68
3366.86
3372.35
3379.18
3387.41
3397.11
3408.33
3421.14
3435.61
3451.8
3469.75
3489.49
3511.04
3534.39
3559.5
3586.29
3614.66
3644.46
3675.49
3707.53
3740.31
3773.49
3806.75
3839.71
3871.98
3903.15
3932.81
3960.55
3985.97
4008.71
4028.43
4044.83
4057.66
4066.74
4071.93
4073.14
4070.41
4063.79
4053.37
4039.32
4021.86
4001.26
3977.8
3951.82
3923.68
3893.74
3862.38
3829.99
3796.95
3763.62
3730.35
3697.47
3665.29
3634.07
3604.03
3575.38
3548.28
3522.83
3499.14
3477.26
3457.22
3439.05
3422.73
3408.27
3395.63
3384.77
3375.67
3368.28
3362.56
3358.45
3355.9
3354.91
3355.38
3357.26
3360.54
3365.17
3371.13
3378.41
3386.98
3396.85
3408.05
3420.58
3434.5
3449.84
3466.64
3484.96
3504.85
3526.32
3549.4
3574.07
3600.31
3628.02
3657.11
3687.39
3719.06
3751.13
3783.65
3816.27
3848.6
3880.22
3910.71
3939.64
3966.56
3991.07
4012.81
4031.44
4046.63
4058.17
4065.9
4069.67
4069.43
4065.37
4057.46
4045.76
4030.5
4011.98
3990.47
3966.28
3939.79
3911.37
3881.4
3850.25
3818.32
3785.95
3753.49
3721.47
3692.81
3662.65
3632.95
3604.15
3576.54
3550.29
3525.53
3502.36
3480.85
3461.06
3443.01
3426.71
3412.18
3399.41
3388.36
3379.03
3371.39
3365.41
3361.05
3358.32
3357.23
3357.8
3359.96
3363.7
3368.99
3375.84
3384.23
3394.17
3405.64
3418.62
3433.13
3449.14
3466.64
3485.63
3506.07
3527.92
3551.13
3575.63
3601.32
3628.08
3655.78
3684.24
3713.29
3742.77
3772.41
3801.97
3831.17
3859.71
3887.32
3913.66
3938.39
3961.21
3981.76
3999.75
4014.86
4026.86
4035.54
4040.75
4042.35
3541.7
3513.76
3485.66
3458.36
3432.34
3407.8
3384.93
3363.79
3344.42
3326.84
3311.03
3296.96
3284.6
3273.89
3264.79
3257.26
3251.26
3246.76
3243.72
3242.17
3242.06
3243.4
3246.18
3250.42
3256.15
3263.38
3272.18
3282.57
3294.6
3308.33
3323.81
3341.09
3360.19
3381.13
3403.92
3428.57
3454.99
3483.12
3512.83
3544
3576.4
3609.25
3643.07
3677.34
3711.72
3745.77
3779.1
3811.31
3841.97
3870.69
3897.07
3920.78
3941.48
3958.91
3972.8
3982.99
3989.31
3991.7
3990
3984.31
3974.71
3961.28
3944.21
3923.76
3900.19
3873.8
3844.99
3814.13
3781.64
3747.93
3713.42
3678.51
3643.6
3608.98
3574.91
3541.89
3510.08
3479.68
3450.88
3423.8
3398.53
3375.17
3353.76
3334.31
3316.85
3301.36
3287.81
3276.18
3266.43
3258.5
3252.34
3247.88
3245.05
3243.81
3244.08
3245.78
3248.88
3253.35
3259.18
3266.34
3274.87
3284.77
3296.07
3308.81
3323.03
3338.76
3356.04
3374.89
3395.32
3417.33
3440.89
3465.95
3492.46
3520.32
3549.4
3579.57
3610.65
3642.44
3674.67
3707.08
3739.37
3771.2
3802.22
3832.03
3860.24
3886.43
3910.22
3931.2
3949.03
3963.36
3973.95
3980.55
3983.03
3981.27
3975.34
3965.28
3951.21
3933.34
3911.95
3887.37
3859.97
3830.17
3798.41
3765.15
3730.88
3696.04
3661.1
3626.49
3592.58
3559.72
3528.22
3498.29
3470.11
3443.81
3419.44
3397.04
3376.59
3358.05
3341.36
3326.45
3313.24
3301.66
3291.61
3283.04
3275.87
3270.04
3265.51
3262.24
3260.21
3259.43
3259.87
3261.52
3264.43
3268.6
3274.08
3280.91
3289.13
3298.82
3310.04
3322.84
3337.3
3353.47
3371.41
3391.15
3412.7
3436.05
3461.16
3487.96
3516.34
3546.16
3577.21
3609.28
3642.09
3675.31
3708.61
3741.62
3773.94
3805.16
3834.87
3862.67
3888.14
3910.93
3930.69
3947.13
3959.99
3969.09
3974.3
3975.52
3972.76
3966.13
3955.68
3941.6
3924.1
3903.45
3879.95
3853.92
3825.73
3795.74
3764.33
3731.9
3698.81
3665.43
3632.13
3599.22
3567.01
3535.77
3505.72
3477.05
3449.94
3424.49
3400.8
3378.92
3358.88
3340.71
3324.4
3309.94
3297.31
3286.46
3277.37
3269.98
3264.27
3260.16
3257.62
3256.63
3257.1
3259
3262.28
3266.91
3272.88
3280.15
3288.72
3298.59
3309.78
3322.31
3336.22
3351.55
3368.34
3386.66
3406.53
3428
3451.08
3475.75
3501.99
3529.71
3558.81
3589.12
3620.8
3652.9
3685.46
3718.13
3750.51
3782.19
3812.73
3841.71
3868.69
3893.25
3915.05
3933.72
3948.94
3960.52
3968.27
3972.05
3971.81
3967.72
3959.79
3948.06
3932.77
3914.21
3892.64
3868.41
3841.86
3813.39
3783.37
3752.18
3720.2
3687.78
3655.28
3623.2
3594.62
3564.41
3534.67
3505.85
3478.23
3451.97
3427.2
3404.03
3382.52
3362.73
3344.68
3328.39
3313.86
3301.09
3290.05
3280.73
3273.09
3267.11
3262.76
3260.04
3258.94
3259.51
3261.67
3265.42
3270.71
3277.56
3285.95
3295.88
3307.35
3320.33
3334.84
3350.85
3368.35
3387.33
3407.77
3429.63
3452.85
3477.35
3503.05
3529.82
3557.54
3586.01
3615.09
3644.59
3674.26
3703.85
3733.08
3761.66
3789.31
3815.69
3840.48
3863.34
3883.94
3901.96
3917.11
3929.14
3937.85
3943.07
3944.68
3443.35
3415.38
3387.26
3359.95
3333.91
3309.38
3286.51
3265.36
3246.01
3228.44
3212.64
3198.58
3186.22
3175.52
3166.44
3158.92
3152.93
3148.43
3145.39
3143.84
3143.73
3145.07
3147.85
3152.09
3157.81
3165.04
3173.82
3184.2
3196.22
3209.94
3225.41
3242.67
3261.77
3282.71
3305.49
3330.13
3356.57
3384.7
3414.43
3445.62
3478.04
3510.94
3544.81
3579.13
3613.56
3647.68
3681.07
3713.35
3744.09
3772.87
3799.33
3823.1
3843.86
3861.33
3875.27
3885.48
3891.83
3894.23
3892.52
3886.82
3877.18
3863.72
3846.61
3826.1
3802.46
3776.01
3747.12
3716.19
3683.62
3649.85
3615.27
3580.3
3545.34
3510.67
3476.56
3443.51
3411.68
3381.26
3352.45
3325.35
3300.09
3276.73
3255.32
3235.87
3218.41
3202.93
3189.39
3177.77
3168.03
3160.12
3153.97
3149.52
3146.7
3145.47
3145.75
3147.45
3150.56
3155.04
3160.86
3168.02
3176.54
3186.43
3197.73
3210.46
3224.67
3240.4
3257.67
3276.51
3296.94
3318.94
3342.5
3367.57
3394.09
3421.96
3451.06
3481.25
3512.36
3544.18
3576.45
3608.91
3641.25
3673.14
3704.22
3734.1
3762.38
3788.65
3812.51
3833.56
3851.44
3865.84
3876.46
3883.1
3885.59
3883.82
3877.88
3867.79
3853.67
3835.75
3814.3
3789.64
3762.16
3732.28
3700.44
3667.11
3632.76
3597.85
3562.85
3528.17
3494.22
3461.33
3429.79
3399.84
3371.66
3345.35
3320.99
3298.6
3278.16
3259.63
3242.96
3228.07
3214.88
3203.31
3193.27
3184.71
3177.55
3171.73
3167.21
3163.94
3161.92
3161.14
3161.57
3163.23
3166.13
3170.29
3175.77
3182.58
3190.8
3200.47
3211.67
3224.46
3238.91
3255.07
3273
3292.73
3314.27
3337.62
3362.74
3389.55
3417.95
3447.78
3478.87
3510.97
3543.82
3577.1
3610.45
3643.52
3675.91
3707.21
3736.99
3764.86
3790.4
3813.26
3833.08
3849.56
3862.47
3871.59
3876.81
3878.04
3875.27
3868.61
3858.14
3844.01
3826.46
3805.75
3782.18
3756.09
3727.83
3697.77
3666.3
3633.8
3600.65
3567.22
3533.87
3500.92
3468.68
3437.4
3407.33
3378.65
3351.52
3326.07
3302.37
3280.49
3260.46
3242.29
3225.99
3211.54
3198.91
3188.08
3178.99
3171.62
3165.91
3161.81
3159.29
3158.3
3158.78
3160.68
3163.96
3168.6
3174.56
3181.84
3190.41
3200.27
3211.46
3223.98
3237.88
3253.19
3269.98
3288.28
3308.15
3329.61
3352.68
3377.35
3403.59
3431.33
3460.45
3490.79
3522.48
3554.64
3587.25
3619.98
3652.42
3684.17
3714.79
3743.85
3770.9
3795.53
3817.4
3836.12
3851.4
3863.01
3870.78
3874.58
3874.35
3870.23
3862.27
3850.51
3835.17
3816.54
3794.92
3770.61
3743.99
3715.46
3685.37
3654.12
3622.08
3589.6
3557.03
3524.87
3496.39
3466.11
3436.33
3407.49
3379.85
3353.58
3328.8
3305.62
3284.12
3264.32
3246.28
3229.99
3215.47
3202.71
3191.68
3182.36
3174.73
3168.75
3164.41
3161.69
3160.59
3161.16
3163.33
3167.07
3172.36
3179.21
3187.6
3197.53
3209
3221.98
3236.48
3252.49
3269.99
3288.97
3309.41
3331.27
3354.5
3379.01
3404.72
3431.51
3459.25
3487.75
3516.85
3546.39
3576.09
3605.73
3635
3663.63
3691.34
3717.78
3742.62
3765.54
3786.2
3804.28
3819.48
3831.55
3840.29
3845.54
3847.15
3344.94
3316.93
3288.79
3261.45
3235.4
3210.87
3188
3166.86
3147.51
3129.96
3114.17
3100.12
3087.78
3077.1
3068.02
3060.51
3054.53
3050.04
3047.01
3045.46
3045.34
3046.68
3049.46
3053.69
3059.41
3066.63
3075.4
3085.76
3097.77
3111.48
3126.94
3144.18
3163.27
3184.2
3206.98
3231.62
3258.06
3286.2
3315.95
3347.16
3379.62
3412.59
3446.51
3480.88
3515.39
3549.59
3583.07
3615.43
3646.26
3675.13
3701.67
3725.52
3746.35
3763.89
3777.88
3788.13
3794.5
3796.92
3795.2
3789.47
3779.81
3766.3
3749.13
3728.54
3704.82
3678.28
3649.31
3618.28
3585.63
3551.76
3517.1
3482.06
3447.03
3412.3
3378.15
3345.06
3313.2
3282.76
3253.93
3226.83
3201.56
3178.19
3156.79
3137.35
3119.9
3104.43
3090.9
3079.29
3069.56
3061.66
3055.53
3051.1
3048.29
3047.07
3047.36
3049.07
3052.18
3056.66
3062.49
3069.65
3078.16
3088.05
3099.33
3112.05
3126.25
3141.96
3159.23
3178.06
3198.49
3220.49
3244.05
3269.12
3295.65
3323.53
3352.65
3382.87
3414.02
3445.88
3478.2
3510.71
3543.12
3575.09
3606.25
3636.22
3664.58
3690.95
3714.89
3736.03
3753.99
3768.45
3779.13
3785.8
3788.31
3786.55
3780.58
3770.45
3756.28
3738.29
3716.75
3692.01
3664.43
3634.45
3602.51
3569.08
3534.63
3499.63
3464.55
3429.81
3395.79
3362.85
3331.28
3301.31
3273.11
3246.8
3222.45
3200.07
3179.64
3161.14
3144.48
3129.61
3116.44
3104.89
3094.88
3086.33
3079.18
3073.37
3068.86
3065.6
3063.58
3062.79
3063.23
3064.88
3067.77
3071.94
3077.4
3084.2
3092.4
3102.06
3113.25
3126.02
3140.45
3156.6
3174.51
3194.23
3215.77
3239.12
3264.24
3291.06
3319.48
3349.34
3380.46
3412.61
3445.52
3478.86
3512.28
3545.43
3577.91
3609.29
3639.17
3667.12
3692.76
3715.69
3735.59
3752.14
3765.09
3774.25
3779.49
3780.72
3777.93
3771.25
3760.73
3746.55
3728.93
3708.15
3684.5
3658.33
3629.98
3599.84
3568.28
3535.7
3502.48
3468.99
3435.57
3402.57
3370.28
3338.97
3308.86
3280.17
3253.03
3227.56
3203.86
3181.98
3161.96
3143.8
3127.51
3113.06
3100.45
3089.62
3080.55
3073.19
3067.49
3063.4
3060.89
3059.91
3060.39
3062.3
3065.59
3070.24
3076.2
3083.47
3092.04
3101.9
3113.08
3125.59
3139.48
3154.78
3171.55
3189.84
3209.7
3231.14
3254.21
3278.88
3305.13
3332.88
3362.02
3392.4
3424.11
3456.33
3489.01
3521.81
3554.34
3586.18
3616.89
3646.04
3673.18
3697.91
3719.85
3738.65
3753.99
3765.65
3773.46
3777.26
3777.04
3772.9
3764.9
3753.08
3737.68
3718.99
3697.28
3672.89
3646.18
3617.56
3587.39
3556.06
3523.95
3491.39
3458.74
3426.48
3398.14
3367.77
3337.94
3309.06
3281.39
3255.11
3230.32
3207.14
3185.63
3165.84
3147.8
3131.52
3117.01
3104.25
3093.23
3083.92
3076.3
3070.33
3065.99
3063.28
3062.18
3062.75
3064.92
3068.67
3073.96
3080.81
3089.19
3099.12
3110.59
3123.56
3138.06
3154.07
3171.57
3190.55
3210.99
3232.85
3256.08
3280.61
3306.34
3333.14
3360.91
3389.44
3418.57
3448.15
3477.91
3507.6
3536.93
3565.62
3593.39
3619.91
3644.83
3667.82
3688.56
3706.7
3721.97
3734.09
3742.87
3748.14
3749.76
3246.47
3218.41
3190.23
3162.87
3136.82
3112.27
3089.41
3068.28
3048.94
3031.4
3015.63
3001.6
2989.27
2978.6
2969.54
2962.04
2956.07
2951.59
2948.58
2947.02
2946.89
2948.24
2951.02
2955.24
2960.95
2968.16
2976.91
2987.26
2999.25
3012.94
3028.38
3045.62
3064.68
3085.6
3108.38
3133.02
3159.46
3187.62
3217.39
3248.64
3281.13
3314.18
3348.16
3382.61
3417.2
3451.5
3485.08
3517.55
3548.49
3577.46
3604.11
3628.05
3648.97
3666.58
3680.63
3690.92
3697.33
3699.76
3698.04
3692.29
3682.58
3669.01
3651.77
3631.1
3607.28
3580.64
3551.55
3520.42
3487.65
3453.68
3418.93
3383.79
3348.68
3313.89
3279.68
3246.54
3214.64
3184.18
3155.32
3128.21
3102.94
3079.57
3058.17
3038.75
3021.3
3005.84
2992.33
2980.74
2971.02
2963.14
2957.02
2952.61
2949.82
2948.62
2948.91
2950.64
2953.76
2958.24
2964.06
2971.22
2979.73
2989.6
3000.87
3013.58
3027.76
3043.47
3060.72
3079.55
3099.96
3121.96
3145.52
3170.6
3197.14
3225.04
3254.19
3284.44
3315.63
3347.54
3379.92
3412.5
3444.99
3477.04
3508.3
3538.37
3566.85
3593.32
3617.38
3638.62
3656.67
3671.21
3681.95
3688.66
3691.19
3689.44
3683.45
3673.27
3659.03
3640.95
3619.32
3594.47
3566.77
3536.67
3504.61
3471.06
3436.49
3401.39
3366.21
3331.39
3297.3
3264.31
3232.69
3202.7
3174.48
3148.17
3123.82
3101.45
3081.05
3062.56
3045.94
3031.09
3017.94
3006.41
2996.42
2987.89
2980.76
2974.96
2970.46
2967.2
2965.19
2964.4
2964.83
2966.48
2969.37
2973.52
2978.97
2985.76
2993.95
3003.59
3014.75
3027.51
3041.92
3058.05
3075.95
3095.65
3117.18
3140.53
3165.66
3192.49
3220.93
3250.83
3281.99
3314.2
3347.17
3380.59
3414.1
3447.34
3479.92
3511.41
3541.39
3569.46
3595.2
3618.23
3638.22
3654.84
3667.85
3677.06
3682.32
3683.55
3680.76
3674.03
3663.46
3649.21
3631.52
3610.65
3586.9
3560.63
3532.18
3501.93
3470.28
3437.61
3404.3
3370.72
3337.23
3304.17
3271.82
3240.47
3210.33
3181.61
3154.45
3128.98
3105.27
3083.4
3063.38
3045.23
3028.94
3014.51
3001.91
2991.1
2982.04
2974.69
2969
2964.93
2962.43
2961.46
2961.96
2963.87
2967.17
2971.82
2977.79
2985.06
2993.62
3003.48
3014.64
3027.14
3041.02
3056.3
3073.06
3091.33
3111.17
3132.61
3155.66
3180.33
3206.58
3234.35
3263.52
3293.95
3325.68
3357.97
3390.74
3423.63
3456.26
3488.2
3519.03
3548.29
3575.55
3600.38
3622.42
3641.31
3656.72
3668.44
3676.28
3680.11
3679.88
3675.72
3667.67
3655.8
3640.33
3621.54
3599.74
3575.24
3548.43
3519.71
3489.44
3458.01
3425.81
3393.17
3360.42
3328.04
3299.86
3269.37
3239.48
3210.56
3182.87
3156.57
3131.77
3108.58
3087.07
3067.28
3049.25
3032.98
3018.47
3005.72
2994.71
2985.41
2977.8
2971.84
2967.51
2964.81
2963.7
2964.28
2966.45
2970.2
2975.49
2982.34
2990.72
3000.65
3012.11
3025.08
3039.58
3055.58
3073.08
3092.06
3112.5
3134.37
3157.61
3182.15
3207.89
3234.72
3262.52
3291.09
3320.26
3349.89
3379.71
3409.46
3438.86
3467.63
3495.48
3522.08
3547.09
3570.18
3591
3609.23
3624.57
3636.75
3645.58
3650.89
3652.53
3147.94
3119.82
3091.61
3064.22
3038.15
3013.6
2990.73
2969.61
2950.29
2932.76
2917.01
2903
2890.7
2880.04
2871
2863.52
2857.56
2853.09
2850.08
2848.53
2848.4
2849.74
2852.52
2856.73
2862.43
2869.62
2878.36
2888.69
2900.67
2914.33
2929.75
2946.97
2966.02
2986.93
3009.7
3034.34
3060.79
3088.96
3118.76
3150.04
3182.58
3215.73
3249.77
3284.31
3319
3353.41
3387.11
3419.7
3450.77
3479.87
3506.63
3530.68
3551.7
3569.4
3583.52
3593.87
3600.31
3602.76
3601.03
3595.25
3585.49
3571.86
3554.53
3533.77
3509.84
3483.07
3453.86
3422.59
3389.7
3355.6
3320.73
3285.5
3250.29
3215.41
3181.14
3147.95
3116.01
3085.51
3056.64
3029.51
3004.23
2980.87
2959.47
2940.05
2922.62
2907.18
2893.68
2882.1
2872.41
2864.54
2858.45
2854.05
2851.29
2850.1
2850.41
2852.15
2855.28
2859.76
2865.59
2872.74
2881.24
2891.1
2902.36
2915.05
2929.22
2944.9
2962.14
2980.96
3001.36
3023.36
3046.92
3072.01
3098.56
3126.49
3155.66
3185.95
3217.18
3249.15
3281.6
3314.27
3346.85
3379.01
3410.38
3440.57
3469.18
3495.78
3519.96
3541.32
3559.48
3574.11
3584.93
3591.69
3594.25
3592.5
3586.47
3576.24
3561.92
3543.75
3522
3497.02
3469.19
3438.94
3406.74
3373.05
3338.35
3303.13
3267.84
3232.91
3198.74
3165.68
3134.02
3103.99
3075.76
3049.45
3025.11
3002.75
2982.37
2963.91
2947.31
2932.49
2919.37
2907.87
2897.9
2889.4
2882.28
2876.5
2872
2868.76
2866.75
2865.96
2866.39
2868.04
2870.92
2875.06
2880.5
2887.27
2895.43
2905.05
2916.19
2928.92
2943.31
2959.42
2977.3
2996.99
3018.52
3041.86
3066.99
3093.85
3122.31
3152.25
3183.46
3215.73
3248.78
3282.29
3315.9
3349.26
3381.95
3413.56
3443.68
3471.87
3497.73
3520.88
3540.97
3557.68
3570.77
3580.02
3585.3
3586.54
3583.73
3576.96
3566.33
3552
3534.22
3513.24
3489.39
3462.99
3434.43
3404.06
3372.3
3339.51
3306.1
3272.43
3238.86
3205.72
3173.31
3141.9
3111.72
3082.97
3055.79
3030.31
3006.6
2984.73
2964.71
2946.57
2930.3
2915.89
2903.3
2892.5
2883.46
2876.12
2870.45
2866.4
2863.91
2862.95
2863.46
2865.38
2868.69
2873.35
2879.32
2886.59
2895.15
2905
2916.16
2928.64
2942.5
2957.76
2974.5
2992.75
3012.57
3033.99
3057.04
3081.71
3107.97
3135.76
3164.96
3195.44
3227.2
3259.58
3292.44
3325.43
3358.18
3390.25
3421.21
3450.6
3477.99
3502.95
3525.11
3544.09
3559.59
3571.38
3579.27
3583.11
3582.88
3578.69
3570.59
3558.65
3543.09
3524.21
3502.29
3477.67
3450.74
3421.89
3391.51
3359.97
3327.67
3294.92
3262.06
3229.53
3201.54
3170.92
3140.95
3111.99
3084.27
3057.95
3033.14
3009.95
2988.44
2968.65
2950.62
2934.35
2919.86
2907.12
2896.12
2886.84
2879.23
2873.29
2868.97
2866.27
2865.17
2865.75
2867.92
2871.67
2876.96
2883.81
2892.19
2902.11
2913.57
2926.54
2941.03
2957.03
2974.52
2993.5
3013.94
3035.82
3059.07
3083.62
3109.39
3136.25
3164.08
3192.7
3221.91
3251.61
3281.48
3311.31
3340.79
3369.65
3397.6
3424.3
3449.42
3472.61
3493.54
3511.86
3527.29
3539.54
3548.43
3553.77
3555.44
3049.34
3021.16
2992.9
2965.48
2939.39
2914.84
2891.98
2870.87
2851.56
2834.05
2818.32
2804.34
2792.05
2781.42
2772.39
2764.93
2758.98
2754.52
2751.52
2749.97
2749.85
2751.18
2753.96
2758.16
2763.85
2771.03
2779.74
2790.06
2802.01
2815.65
2831.05
2848.25
2867.28
2888.17
2910.94
2935.57
2962.03
2990.22
3020.05
3051.37
3083.96
3117.22
3151.34
3185.97
3220.78
3255.32
3289.15
3321.89
3353.1
3382.34
3409.24
3433.42
3454.56
3472.35
3486.55
3496.97
3503.45
3505.92
3504.18
3498.37
3488.56
3474.85
3457.43
3436.54
3412.48
3385.58
3356.22
3324.8
3291.76
3257.53
3222.52
3187.17
3151.86
3116.88
3082.55
3049.29
3017.3
2986.77
2957.86
2930.72
2905.44
2882.07
2860.68
2841.28
2823.86
2808.43
2794.95
2783.39
2773.72
2765.88
2759.8
2755.43
2752.69
2751.52
2751.85
2753.6
2756.74
2761.23
2767.05
2774.2
2782.69
2792.54
2803.78
2816.45
2830.6
2846.27
2863.5
2882.3
2902.7
2924.69
2948.26
2973.35
2999.92
3027.86
3057.08
3087.41
3118.69
3150.73
3183.26
3216.02
3248.7
3280.98
3312.48
3342.81
3371.56
3398.31
3422.64
3444.13
3462.42
3477.16
3488.06
3494.88
3497.47
3495.72
3489.66
3479.36
3464.96
3446.67
3424.8
3399.66
3371.68
3341.27
3308.9
3275.05
3240.21
3204.84
3169.42
3134.38
3100.12
3066.98
3035.26
3005.2
2976.95
2950.63
2926.3
2903.97
2883.61
2865.18
2848.61
2833.83
2820.74
2809.27
2799.33
2790.85
2783.75
2777.99
2773.5
2770.27
2768.26
2767.48
2767.91
2769.55
2772.42
2776.55
2781.97
2788.72
2796.86
2806.46
2817.57
2830.27
2844.64
2860.72
2878.58
2898.25
2919.77
2943.11
2968.25
2995.12
3023.62
3053.59
3084.87
3117.21
3150.35
3183.96
3217.69
3251.17
3284
3315.75
3346.01
3374.35
3400.36
3423.64
3443.85
3460.66
3473.82
3483.13
3488.45
3489.69
3486.86
3480.04
3469.34
3454.92
3437.03
3415.94
3391.96
3365.43
3336.72
3306.23
3274.33
3241.42
3207.88
3174.1
3140.43
3107.21
3074.73
3043.26
3013.04
2984.25
2957.05
2931.56
2907.85
2885.98
2865.97
2847.84
2831.58
2817.18
2804.61
2793.83
2784.81
2777.49
2771.84
2767.8
2765.33
2764.39
2764.91
2766.85
2770.16
2774.82
2780.8
2788.07
2796.63
2806.47
2817.61
2830.08
2843.92
2859.16
2875.87
2894.1
2913.9
2935.31
2958.34
2983.01
3009.28
3037.09
3066.33
3096.86
3128.67
3161.14
3194.11
3227.22
3260.1
3292.32
3323.42
3352.97
3380.5
3405.61
3427.9
3447
3462.6
3474.47
3482.41
3486.28
3486.04
3481.83
3473.66
3461.64
3445.98
3426.98
3404.93
3380.17
3353.1
3324.12
3293.6
3261.94
3229.52
3196.66
3163.68
3130.98
3103.19
3072.41
3042.37
3013.35
2985.6
2959.26
2934.44
2911.24
2889.72
2869.94
2851.91
2835.66
2821.18
2808.45
2797.47
2788.19
2780.6
2774.67
2770.36
2767.67
2766.57
2767.16
2769.33
2773.08
2778.37
2785.22
2793.6
2803.52
2814.97
2827.94
2842.42
2858.42
2875.9
2894.88
2915.32
2937.2
2960.46
2985.04
3010.83
3037.73
3065.6
3094.26
3123.53
3153.29
3183.25
3213.16
3242.73
3271.69
3299.75
3326.57
3351.81
3375.12
3396.17
3414.6
3430.13
3442.47
3451.41
3456.8
3458.49
2950.68
2922.43
2894.12
2866.66
2840.56
2816
2793.14
2772.04
2752.75
2735.27
2719.56
2705.6
2693.34
2682.73
2673.72
2666.28
2660.35
2655.9
2652.91
2651.37
2651.24
2652.57
2655.34
2659.54
2665.21
2672.37
2681.07
2691.36
2703.28
2716.89
2732.27
2749.44
2768.45
2789.33
2812.09
2836.72
2863.19
2891.4
2921.26
2952.63
2985.27
3018.65
3052.87
3087.61
3122.54
3157.23
3191.21
3224.12
3255.49
3284.89
3311.94
3336.27
3357.53
3375.44
3389.73
3400.21
3406.75
3409.24
3407.49
3401.64
3391.77
3377.97
3360.44
3339.43
3315.22
3288.16
3258.63
3227.05
3193.84
3159.45
3124.3
3088.81
3053.38
3018.3
2983.88
2950.55
2918.51
2887.94
2859.01
2831.85
2806.56
2783.19
2761.81
2742.42
2725.02
2709.6
2696.15
2684.61
2674.96
2667.14
2661.09
2656.75
2654.04
2652.89
2653.23
2655
2658.15
2662.65
2668.47
2675.62
2684.09
2693.92
2705.14
2717.8
2731.93
2747.58
2764.78
2783.57
2803.96
2825.95
2849.51
2874.62
2901.2
2929.18
2958.43
2988.81
3020.15
3052.27
3084.88
3117.75
3150.55
3182.96
3214.61
3245.09
3274.01
3300.92
3325.41
3347.07
3365.5
3380.36
3391.35
3398.24
3400.86
3399.11
3393.02
3382.65
3368.14
3349.73
3327.7
3302.41
3274.24
3243.65
3211.1
3177.07
3142.05
3106.52
3070.96
3035.79
3001.42
2968.2
2936.42
2906.32
2878.05
2851.73
2827.4
2805.09
2784.77
2766.37
2749.84
2735.09
2722.04
2710.6
2700.7
2692.24
2685.17
2679.42
2674.95
2671.73
2669.73
2668.94
2669.37
2671
2673.86
2677.98
2683.38
2690.11
2698.23
2707.8
2718.88
2731.56
2745.89
2761.94
2779.78
2799.44
2820.94
2844.27
2869.42
2896.32
2924.85
2954.87
2986.21
3018.63
3051.88
3085.6
3119.45
3153.08
3186.06
3217.98
3248.41
3276.91
3303.07
3326.51
3346.85
3363.78
3377.03
3386.4
3391.75
3393
3390.15
3383.27
3372.49
3357.97
3339.96
3318.73
3294.61
3267.93
3239.07
3208.42
3176.37
3143.32
3109.65
3075.75
3041.97
3008.65
2976.09
2944.56
2914.28
2885.46
2858.24
2832.73
2809.01
2787.14
2767.14
2749.03
2732.79
2718.41
2705.85
2695.09
2686.09
2678.79
2673.16
2669.15
2666.7
2665.77
2666.3
2668.25
2671.58
2676.25
2682.23
2689.5
2698.06
2707.89
2719.01
2731.46
2745.28
2760.5
2777.18
2795.39
2815.16
2836.55
2859.57
2884.23
2910.51
2938.34
2967.63
2998.22
3030.09
3062.66
3095.74
3129
3162.02
3194.4
3225.68
3255.39
3283.1
3308.37
3330.81
3350.05
3365.76
3377.72
3385.71
3389.6
3389.37
3385.11
3376.88
3364.77
3349
3329.87
3307.66
3282.75
3255.53
3226.38
3195.71
3163.91
3131.36
3098.38
3065.26
3032.37
3004.8
2973.85
2943.71
2914.65
2886.86
2860.5
2835.66
2812.45
2790.93
2771.15
2753.13
2736.89
2722.42
2709.71
2698.74
2689.48
2681.91
2675.99
2671.69
2669.01
2667.91
2668.5
2670.68
2674.43
2679.73
2686.57
2694.94
2704.86
2716.31
2729.27
2743.75
2759.74
2777.22
2796.19
2816.64
2838.52
2861.8
2886.39
2912.21
2939.15
2967.06
2995.78
3025.11
3054.95
3084.99
3114.99
3144.67
3173.75
3201.93
3228.88
3254.25
3277.71
3298.89
3317.45
3333.08
3345.52
3354.54
3359.98
3361.69
2851.95
2823.62
2795.26
2767.77
2741.64
2717.07
2694.22
2673.13
2653.86
2636.4
2620.72
2606.79
2594.56
2583.97
2574.99
2567.56
2561.65
2557.22
2554.25
2552.7
2552.58
2553.91
2556.67
2560.86
2566.51
2573.65
2582.32
2592.59
2604.48
2618.07
2633.41
2650.56
2669.55
2690.41
2713.16
2737.78
2764.26
2792.49
2822.4
2853.82
2886.52
2920.03
2954.35
2989.21
3024.29
3059.13
3093.29
3126.38
3157.93
3187.51
3214.73
3239.22
3260.62
3278.65
3293.05
3303.61
3310.2
3312.72
3310.96
3305.07
3295.13
3281.24
3263.59
3242.43
3218.06
3190.82
3161.11
3129.34
3095.95
3061.38
3026.06
2990.42
2954.85
2919.66
2885.15
2851.75
2819.64
2789.03
2760.06
2732.89
2707.59
2684.22
2662.85
2643.47
2626.09
2610.69
2597.26
2585.75
2576.12
2568.33
2562.31
2558
2555.32
2554.19
2554.56
2556.35
2559.51
2564.01
2569.83
2576.97
2585.43
2595.25
2606.45
2619.08
2633.19
2648.82
2666
2684.77
2705.15
2727.13
2750.7
2775.82
2802.42
2830.42
2859.71
2890.15
2921.56
2953.76
2986.48
3019.45
3052.39
3084.95
3116.75
3147.42
3176.51
3203.61