/*--------------------------------*- C++ -*----------------------------------*\
| =========                 |                                                 |
| \\      /  F ield         | OpenFOAM: The Open Source CFD Toolbox           |
|  \\    /   O peration     | Version:  3.0.1                                 |
|   \\  /    A nd           | Web:      www.OpenFOAM.org                      |
|    \\/     M anipulation  |                                                 |
\*---------------------------------------------------------------------------*/
FoamFile
{
    version     2.0;
    format      ascii;
    class       volScalarField;
    location    "37";
    object      p;
}
// * * * * * * * * * * * * * * * * * * * * * * * * * * * * * * * * * * * * * //

dimensions      [1 -1 -2 0 0 0 0];

internalField   nonuniform List<scalar> 
21420
(
4015.42
4048.02
4080.83
4113.42
4145.41
4176.24
4205.47
4232.61
4257.26
4279.1
4297.78
4313.03
4324.64
4332.44
4336.28
4336.01
4331.79
4323.7
4311.8
4296.28
4277.39
4255.43
4230.7
4203.59
4174.46
4143.73
4111.77
4078.98
4045.78
4012.5
3979.51
3947.1
3915.53
3885.16
3856.46
3828.7
3802.23
3777.21
3753.75
3731.89
3711.65
3693.03
3676.02
3660.59
3646.71
3634.35
3623.48
3614.06
3606.07
3599.49
3594.31
3590.5
3588.08
3587.07
3587.49
3589.37
3592.75
3597.69
3604.2
3612.36
3622.21
3633.82
3647.26
3662.57
3679.76
3698.89
3719.95
3742.92
3767.76
3794.37
3822.66
3852.51
3883.77
3916.55
3949.9
3983.71
4017.75
4051.69
4085.19
4117.92
4149.52
4179.61
4207.83
4233.83
4257.26
4277.81
4295.17
4309.08
4319.33
4325.77
4328.26
4326.81
4321.39
4312.12
4299.06
4282.41
4262.37
4239.2
4213.19
4184.64
4153.92
4121.39
4087.43
4052.45
4016.86
3981.06
3945.44
3910.37
3876.19
3843.2
3811.65
3781.74
3753.63
3727.42
3703.19
3680.98
3660.79
3642.61
3626.42
3612.2
3599.9
3589.48
3580.89
3574.1
3569.07
3565.73
3564.07
3564.08
3565.66
3568.79
3573.44
3579.6
3587.23
3596.32
3606.87
3618.86
3632.3
3647.21
3663.58
3681.45
3700.82
3721.7
3744.1
3768.01
3793.38
3820.16
3848.27
3877.59
3907.96
3939.33
3971.19
4003.4
4035.67
4067.66
4099.01
4129.34
4158.25
4185.34
4210.21
4232.48
4251.77
4267.74
4280.09
4288.57
4292.97
4293.08
4288.97
4280.6
4268.02
4251.42
4231.04
4207.21
4180.31
4150.76
4119.04
4085.65
4051.06
4015.78
3980.28
3944.98
3910.31
3876.6
3844.16
3813.25
3784.06
3756.73
3731.35
3707.97
3686.6
3667.24
3649.85
3634.37
3620.73
3608.84
3598.61
3589.97
3582.82
3577.1
3572.74
3569.66
3567.82
3567.19
3567.77
3569.5
3572.4
3576.51
3581.85
3588.49
3596.46
3605.83
3616.66
3629
3642.92
3658.46
3675.67
3694.59
3715.23
3737.59
3761.63
3787.31
3814.54
3843.19
3873.1
3904.08
3935.88
3968.21
4000.74
4033.14
4065
4095.94
4125.53
4153.34
4178.98
4202.04
4222.16
4239.01
4252.3
4261.8
4267.36
4268.81
4266.22
4259.56
4248.95
4234.54
4216.59
4195.37
4171.22
4144.54
4115.72
4085.18
4053.37
4020.7
3987.6
3954.43
3921.56
3889.3
3857.92
3827.66
3798.69
3771.18
3745.25
3720.99
3698.45
3677.66
3658.67
3641.45
3625.98
3612.26
3600.26
3589.92
3581.21
3574.09
3568.51
3564.42
3561.82
3560.68
3560.91
3562.41
3565.27
3569.5
3575.11
3582.15
3590.64
3600.64
3612.19
3625.35
3640.17
3656.72
3675.01
3695.09
3716.94
3740.53
3765.79
3792.57
3820.7
3849.99
3880.63
3922.24
3957
3991.49
4025.81
4059.54
4092.24
4123.58
4153.06
4180.26
4204.83
4226.38
4244.57
4259.13
4269.78
4276.35
4278.8
4277.23
4271.56
4261.81
4248.18
4230.86
4210.08
4186.17
4159.42
4130.23
4099.06
4066.31
4032.45
3997.94
3963.21
3928.63
3894.77
3862.26
3830.36
3799.64
3770.4
3742.8
3716.94
3692.89
3670.67
3650.3
3631.77
3615.04
3600.09
3586.88
3575.36
3565.49
3557.22
3550.5
3545.31
3541.58
3539.27
3538.37
3538.89
3540.86
3544.25
3549.06
3555.29
3563.01
3572.29
3917.28
3949.9
3982.72
4015.33
4047.34
4078.19
4107.43
4134.59
4159.26
4181.11
4199.81
4215.07
4226.69
4234.49
4238.34
4238.07
4233.84
4225.75
4213.83
4198.3
4179.4
4157.42
4132.67
4105.55
4076.41
4045.65
4013.68
3980.88
3947.65
3914.37
3881.36
3848.94
3817.37
3786.99
3758.29
3730.53
3704.05
3679.04
3655.58
3633.72
3613.48
3594.86
3577.85
3562.42
3548.55
3536.19
3525.32
3515.9
3507.91
3501.34
3496.15
3492.35
3489.93
3488.91
3489.33
3491.22
3494.59
3499.53
3506.03
3514.19
3524.04
3535.65
3549.09
3564.39
3581.58
3600.7
3621.76
3644.74
3669.57
3696.19
3724.49
3754.33
3785.6
3818.39
3851.75
3885.58
3919.63
3953.58
3987.1
4019.84
4051.45
4081.56
4109.79
4135.81
4159.26
4179.82
4197.19
4211.12
4221.38
4227.82
4230.32
4228.86
4223.44
4214.17
4201.1
4184.43
4164.38
4141.19
4115.16
4086.61
4055.87
4023.32
3989.34
3954.35
3918.74
3882.92
3847.29
3812.2
3778.02
3745.02
3713.46
3683.55
3655.44
3629.23
3605
3582.79
3562.6
3544.42
3528.24
3514.02
3501.72
3491.3
3482.72
3475.93
3470.9
3467.56
3465.91
3465.92
3467.49
3470.62
3475.28
3481.44
3489.07
3498.16
3508.71
3520.7
3534.14
3549.04
3565.41
3583.28
3602.65
3623.53
3645.93
3669.84
3695.21
3722
3750.11
3779.43
3809.81
3841.18
3873.05
3905.27
3937.55
3969.56
4000.92
4031.27
4060.2
4087.31
4112.2
4134.48
4153.79
4169.78
4182.14
4190.63
4195.04
4195.15
4191.04
4182.66
4170.07
4153.46
4133.07
4109.21
4082.29
4052.72
4020.98
3987.56
3952.96
3917.66
3882.14
3846.83
3812.15
3778.42
3745.98
3715.06
3685.87
3658.54
3633.15
3609.78
3588.42
3569.06
3551.67
3536.19
3522.56
3510.67
3500.45
3491.81
3484.67
3478.95
3474.58
3471.51
3469.67
3469.05
3469.63
3471.35
3474.25
3478.36
3483.7
3490.34
3498.31
3507.67
3518.49
3530.83
3544.75
3560.29
3577.5
3596.42
3617.05
3639.41
3663.46
3689.14
3716.36
3745.02
3774.94
3805.92
3837.74
3870.08
3902.63
3935.03
3966.92
3997.87
4027.47
4055.31
4080.96
4104.04
4124.18
4141.04
4154.34
4163.86
4169.42
4170.88
4168.28
4161.61
4150.99
4136.58
4118.6
4097.37
4073.21
4046.5
4017.66
3987.11
3955.28
3922.6
3889.48
3856.3
3823.42
3791.15
3759.76
3729.48
3700.52
3673
3647.07
3622.81
3600.27
3579.49
3560.49
3543.27
3527.81
3514.09
3502.09
3491.75
3483.05
3475.93
3470.35
3466.27
3463.66
3462.53
3462.75
3464.26
3467.12
3471.35
3476.96
3483.99
3492.48
3502.48
3514.03
3527.18
3542
3558.55
3576.83
3596.91
3618.76
3642.35
3667.61
3694.4
3722.53
3751.83
3782.44
3824.11
3858.86
3893.36
3927.7
3961.44
3994.17
4025.52
4055.02
4082.24
4106.83
4128.39
4146.61
4161.17
4171.84
4178.42
4180.88
4179.29
4173.61
4163.85
4150.22
4132.89
4112.09
4088.16
4061.4
4032.19
4000.99
3968.23
3934.35
3899.82
3865.07
3830.49
3796.61
3764.09
3732.18
3701.46
3672.22
3644.62
3618.75
3594.7
3572.49
3552.12
3533.59
3516.87
3501.92
3488.71
3477.19
3467.32
3459.06
3452.34
3447.15
3443.42
3441.11
3440.21
3440.74
3442.71
3446.1
3450.91
3457.13
3464.85
3474.12
3819.11
3851.75
3884.61
3917.24
3949.29
3980.17
4009.46
4036.66
4061.36
4083.24
4101.96
4117.24
4128.88
4136.69
4140.55
4140.28
4136.05
4127.94
4116
4100.45
4081.52
4059.51
4034.73
4007.57
3978.39
3947.6
3915.59
3882.76
3849.51
3816.2
3783.17
3750.73
3719.15
3688.77
3660.05
3632.28
3605.81
3580.79
3557.33
3535.47
3515.24
3496.62
3479.61
3464.19
3450.32
3437.96
3427.1
3417.69
3409.7
3403.12
3397.94
3394.14
3391.72
3390.7
3391.12
3393
3396.37
3401.3
3407.8
3415.96
3425.8
3437.4
3450.83
3466.13
3483.32
3502.44
3523.49
3546.47
3571.31
3597.93
3626.23
3656.09
3687.36
3720.18
3753.56
3787.41
3821.48
3855.46
3889.01
3921.78
3953.42
3983.56
4011.83
4037.88
4061.36
4081.95
4099.35
4113.3
4123.58
4130.03
4132.54
4131.06
4125.64
4116.35
4103.27
4086.58
4066.5
4043.28
4017.22
3988.63
3957.86
3925.27
3891.26
3856.23
3820.59
3784.75
3749.08
3713.98
3679.77
3646.76
3615.19
3585.27
3557.15
3530.95
3506.72
3484.51
3464.32
3446.15
3429.98
3415.76
3403.46
3393.05
3384.47
3377.69
3372.66
3369.33
3367.68
3367.69
3369.27
3372.4
3377.06
3383.22
3390.85
3399.94
3410.49
3422.48
3435.92
3450.82
3467.19
3485.05
3504.41
3525.29
3547.69
3571.6
3596.97
3623.76
3651.88
3681.2
3711.6
3742.99
3774.87
3807.12
3839.43
3871.46
3902.86
3933.24
3962.2
3989.34
4014.27
4036.59
4055.93
4071.95
4084.34
4092.84
4097.26
4097.39
4093.27
4084.88
4072.27
4055.63
4035.21
4011.32
3984.36
3954.74
3922.96
3889.5
3854.86
3819.52
3783.96
3748.62
3713.92
3680.18
3647.71
3616.79
3587.59
3560.25
3534.87
3511.5
3490.14
3470.79
3453.41
3437.94
3424.31
3412.43
3402.22
3393.59
3386.45
3380.74
3376.38
3373.31
3371.48
3370.86
3371.43
3373.15
3376.05
3380.16
3385.5
3392.13
3400.09
3409.45
3420.27
3432.6
3446.51
3462.05
3479.25
3498.16
3518.8
3541.16
3565.2
3590.88
3618.12
3646.78
3676.72
3707.72
3739.55
3771.91
3804.49
3836.93
3868.84
3899.83
3929.47
3957.34
3983.03
4006.15
4026.31
4043.2
4056.53
4066.06
4071.63
4073.11
4070.49
4063.81
4053.18
4038.74
4020.74
3999.47
3975.27
3948.53
3919.65
3889.06
3857.2
3824.48
3791.33
3758.13
3725.22
3692.93
3661.53
3631.24
3602.27
3574.75
3548.82
3524.55
3502.01
3481.23
3462.23
3445.02
3429.56
3415.85
3403.85
3393.52
3384.82
3377.7
3372.13
3368.05
3365.45
3364.32
3364.54
3366.05
3368.91
3373.14
3378.75
3385.78
3394.26
3404.25
3415.79
3428.94
3443.76
3460.29
3478.58
3498.65
3520.5
3544.09
3569.36
3596.15
3624.3
3653.6
3684.18
3725.96
3760.69
3795.2
3829.57
3863.35
3896.12
3927.51
3957.05
3984.3
4008.93
4030.53
4048.77
4063.36
4074.05
4080.65
4083.14
4081.5
4075.81
4066.05
4052.4
4035.04
4014.22
3990.25
3963.45
3934.2
3902.97
3870.16
3836.25
3801.68
3766.9
3732.29
3698.4
3665.86
3633.93
3603.2
3573.95
3546.35
3520.48
3496.44
3474.22
3453.86
3435.34
3418.62
3403.67
3390.47
3378.96
3369.09
3360.83
3354.12
3348.93
3345.21
3342.9
3342.01
3342.53
3344.5
3347.89
3352.7
3358.92
3366.63
3375.9
3720.9
3753.59
3786.48
3819.17
3851.27
3882.21
3911.55
3938.8
3963.55
3985.48
4004.24
4019.56
4031.22
4039.05
4042.91
4042.67
4038.41
4030.28
4018.31
4002.72
3983.75
3961.69
3936.86
3909.65
3880.41
3849.57
3817.52
3784.64
3751.34
3718
3684.94
3652.47
3620.86
3590.47
3561.75
3533.97
3507.48
3482.47
3459.01
3437.15
3416.92
3398.31
3381.31
3365.89
3352.03
3339.68
3328.82
3319.41
3311.43
3304.86
3299.67
3295.87
3293.45
3292.43
3292.85
3294.72
3298.09
3303.02
3309.51
3317.65
3327.49
3339.08
3352.5
3367.79
3384.97
3404.09
3425.14
3448.11
3472.95
3499.58
3527.89
3557.77
3589.06
3621.91
3655.32
3689.2
3723.31
3757.33
3790.92
3823.74
3855.43
3885.62
3913.94
3940.04
3963.57
3984.2
4001.63
4015.61
4025.92
4032.39
4034.92
4033.42
4027.99
4018.68
4005.57
3988.85
3968.73
3945.47
3919.36
3890.72
3859.89
3827.25
3793.19
3758.12
3722.43
3686.53
3650.83
3615.69
3581.46
3548.42
3516.84
3486.9
3458.78
3432.57
3408.35
3386.14
3365.96
3347.8
3331.63
3317.42
3305.13
3294.72
3286.15
3279.38
3274.36
3271.03
3269.39
3269.4
3270.98
3274.12
3278.78
3284.94
3292.57
3301.67
3312.21
3324.2
3337.63
3352.53
3368.89
3386.75
3406.11
3426.99
3449.38
3473.29
3498.66
3525.46
3553.58
3582.92
3613.33
3644.75
3676.66
3708.94
3741.29
3773.37
3804.81
3835.24
3864.25
3891.45
3916.43
3938.81
3958.2
3974.26
3986.68
3995.22
3999.65
3999.81
3995.66
3987.27
3974.63
3957.95
3937.48
3913.54
3886.51
3856.83
3824.98
3791.46
3756.75
3721.36
3685.75
3650.37
3615.63
3581.85
3549.37
3518.43
3489.22
3461.88
3436.5
3413.13
3391.78
3372.44
3355.07
3339.61
3325.99
3314.12
3303.92
3295.3
3288.18
3282.47
3278.12
3275.06
3273.23
3272.62
3273.19
3274.91
3277.81
3281.91
3287.24
3293.86
3301.82
3311.18
3321.98
3334.31
3348.21
3363.73
3380.93
3399.84
3420.47
3442.82
3466.87
3492.56
3519.8
3548.48
3578.43
3609.46
3641.31
3673.71
3706.33
3738.81
3770.78
3801.82
3831.52
3859.44
3885.19
3908.35
3928.57
3945.5
3958.86
3968.42
3974.01
3975.5
3972.85
3966.17
3955.51
3941.04
3923
3901.68
3877.43
3850.63
3821.69
3791.05
3759.13
3726.36
3693.16
3659.92
3626.98
3594.66
3563.24
3532.93
3503.94
3476.42
3450.48
3426.21
3403.67
3382.89
3363.9
3346.69
3331.24
3317.53
3305.54
3295.22
3286.53
3279.42
3273.86
3269.79
3267.19
3266.06
3266.28
3267.79
3270.65
3274.88
3280.48
3287.5
3295.98
3305.96
3317.49
3330.63
3345.44
3361.97
3380.24
3400.31
3422.16
3445.75
3471.03
3497.84
3526
3555.31
3585.84
3627.77
3662.47
3697.02
3731.43
3765.27
3798.09
3829.53
3859.13
3886.45
3911.13
3932.78
3951.07
3965.7
3976.41
3983.05
3985.57
3983.88
3978.17
3968.4
3954.72
3937.33
3916.45
3892.44
3865.58
3836.27
3804.98
3772.11
3738.14
3703.52
3668.7
3634.05
3600.12
3567.55
3535.61
3504.86
3475.6
3447.99
3422.13
3398.08
3375.88
3355.52
3337
3320.29
3305.36
3292.16
3280.66
3270.8
3262.55
3255.84
3250.66
3246.94
3244.63
3243.75
3244.27
3246.24
3249.63
3254.43
3260.65
3268.36
3277.62
3622.66
3655.4
3688.35
3721.1
3753.27
3784.28
3813.7
3841.02
3865.85
3887.83
3906.65
3922.02
3933.71
3941.56
3945.43
3945.2
3940.93
3932.77
3920.76
3905.11
3886.09
3863.96
3839.06
3811.78
3782.48
3751.57
3719.45
3686.51
3653.16
3619.76
3586.65
3554.15
3522.51
3492.12
3463.37
3435.58
3409.09
3384.07
3360.61
3338.76
3318.53
3299.93
3282.94
3267.53
3253.67
3241.33
3230.48
3221.08
3213.1
3206.53
3201.35
3197.55
3195.13
3194.11
3194.52
3196.38
3199.75
3204.67
3211.15
3219.28
3229.11
3240.69
3254.1
3269.37
3286.54
3305.65
3326.7
3349.67
3374.52
3401.15
3429.48
3459.37
3490.69
3523.59
3557.04
3590.96
3625.11
3659.19
3692.83
3725.72
3757.47
3787.72
3816.11
3842.28
3865.87
3886.56
3904.05
3918.07
3928.41
3934.9
3937.44
3935.94
3930.49
3921.16
3908.01
3891.24
3871.07
3847.75
3821.58
3792.87
3761.97
3729.27
3695.14
3659.99
3624.24
3588.28
3552.53
3517.34
3483.07
3450
3418.39
3388.45
3360.31
3334.1
3309.88
3287.68
3267.51
3249.36
3233.2
3219
3206.72
3196.33
3187.76
3181
3175.98
3172.67
3171.04
3171.05
3172.63
3175.78
3180.44
3186.6
3194.24
3203.33
3213.87
3225.86
3239.29
3254.18
3270.53
3288.38
3307.74
3328.61
3351
3374.91
3400.29
3427.09
3455.23
3484.58
3515.01
3546.47
3578.42
3610.74
3643.14
3675.27
3706.78
3737.28
3766.36
3793.63
3818.69
3841.13
3860.58
3876.7
3889.18
3897.75
3902.21
3902.39
3898.23
3889.81
3877.14
3860.41
3839.87
3815.85
3788.74
3758.98
3727.05
3693.43
3658.65
3623.18
3587.5
3552.06
3517.27
3483.46
3450.94
3419.98
3390.76
3363.42
3338.03
3314.67
3293.33
3274
3256.64
3241.2
3227.6
3215.75
3205.57
3196.96
3189.85
3184.16
3179.82
3176.77
3174.94
3174.34
3174.9
3176.62
3179.52
3183.61
3188.94
3195.55
3203.5
3212.84
3223.63
3235.95
3249.83
3265.35
3282.54
3301.44
3322.06
3344.41
3368.46
3394.16
3421.41
3450.11
3480.08
3511.14
3543.04
3575.48
3608.15
3640.7
3672.73
3703.84
3733.61
3761.61
3787.43
3810.67
3830.95
3847.93
3861.34
3870.93
3876.54
3878.05
3875.39
3868.69
3857.99
3843.47
3825.37
3803.99
3779.66
3752.79
3723.78
3693.06
3661.07
3628.23
3594.97
3561.68
3528.69
3496.34
3464.88
3434.55
3405.54
3378.01
3352.06
3327.79
3305.25
3284.48
3265.49
3248.29
3232.85
3219.15
3207.17
3196.86
3188.17
3181.07
3175.52
3171.46
3168.88
3167.75
3167.96
3169.48
3172.34
3176.56
3182.16
3189.17
3197.64
3207.61
3219.13
3232.25
3247.05
3263.56
3281.83
3301.89
3323.73
3347.33
3372.62
3399.45
3427.63
3456.95
3487.44
3529.54
3564.21
3598.8
3633.28
3667.19
3700.08
3731.61
3761.28
3788.67
3813.43
3835.15
3853.5
3868.18
3878.94
3885.61
3888.14
3886.43
3880.69
3870.89
3857.18
3839.74
3818.8
3794.72
3767.78
3738.4
3707.03
3674.08
3640.04
3605.35
3570.46
3535.76
3501.8
3469.18
3437.21
3406.44
3377.17
3349.55
3323.69
3299.65
3277.45
3257.1
3238.59
3221.89
3206.97
3193.78
3182.29
3172.44
3164.2
3157.5
3152.32
3148.61
3146.31
3145.44
3145.95
3147.93
3151.32
3156.12
3162.33
3170.02
3179.27
3524.39
3557.18
3590.21
3623.04
3655.3
3686.4
3715.91
3743.33
3768.24
3790.3
3809.19
3824.61
3836.35
3844.22
3848.1
3847.89
3843.61
3835.4
3823.34
3807.63
3788.53
3766.33
3741.35
3713.97
3684.58
3653.59
3621.38
3588.37
3554.95
3521.48
3488.32
3455.77
3424.1
3393.7
3364.93
3337.12
3310.62
3285.59
3262.14
3240.29
3220.07
3201.48
3184.5
3169.1
3155.25
3142.92
3132.08
3122.69
3114.72
3108.15
3102.98
3099.18
3096.76
3095.73
3096.14
3097.99
3101.35
3106.26
3112.73
3120.84
3130.65
3142.22
3155.61
3170.87
3188.03
3207.13
3228.18
3251.15
3276
3302.65
3330.99
3360.9
3392.24
3425.21
3458.71
3492.68
3526.89
3561.03
3594.75
3627.71
3659.55
3689.88
3718.35
3744.6
3768.27
3789.03
3806.59
3820.67
3831.05
3837.57
3840.12
3838.62
3833.15
3823.78
3810.59
3793.76
3773.52
3750.13
3723.88
3695.08
3664.1
3631.31
3597.09
3561.86
3526.02
3490
3454.17
3418.93
3384.6
3351.5
3319.86
3289.9
3261.76
3235.54
3211.33
3189.13
3168.97
3150.83
3134.69
3120.5
3108.24
3097.85
3089.3
3082.55
3077.54
3074.24
3072.62
3072.63
3074.22
3077.37
3082.04
3088.21
3095.84
3104.93
3115.47
3127.45
3140.88
3155.76
3172.11
3189.95
3209.3
3230.17
3252.56
3276.46
3301.84
3328.65
3356.8
3386.18
3416.63
3448.14
3480.13
3512.51
3544.97
3577.18
3608.77
3639.35
3668.52
3695.88
3721.03
3743.56
3763.09
3779.29
3791.83
3800.45
3804.94
3805.13
3800.97
3792.52
3779.8
3763.01
3742.39
3718.28
3691.06
3661.19
3629.15
3595.43
3560.54
3524.98
3489.22
3453.7
3418.85
3384.99
3352.44
3321.45
3292.21
3264.86
3239.48
3216.12
3194.79
3175.48
3158.14
3142.72
3129.14
3117.31
3107.15
3098.56
3091.46
3085.79
3081.46
3078.42
3076.61
3076
3076.57
3078.29
3081.18
3085.26
3090.58
3097.18
3105.11
3114.44
3125.22
3137.52
3151.39
3166.89
3184.07
3202.96
3223.58
3245.93
3269.98
3295.68
3322.95
3351.67
3381.67
3412.77
3444.72
3477.22
3509.96
3542.58
3574.69
3605.89
3635.75
3663.85
3689.76
3713.08
3733.44
3750.5
3763.97
3773.6
3779.23
3780.75
3778.09
3771.36
3760.62
3746.04
3727.87
3706.4
3681.99
3655.02
3625.91
3595.1
3563.01
3530.1
3496.76
3463.4
3430.36
3397.95
3366.46
3336.1
3307.07
3279.52
3253.57
3229.29
3206.75
3185.99
3167.01
3149.81
3134.38
3120.7
3108.73
3098.43
3089.75
3082.67
3077.13
3073.08
3070.51
3069.37
3069.59
3071.11
3073.97
3078.19
3083.78
3090.78
3099.23
3109.19
3120.7
3133.81
3148.58
3165.09
3183.34
3203.39
3225.23
3248.84
3274.13
3300.98
3329.19
3358.54
3388.97
3431.26
3465.91
3500.56
3535.12
3569.11
3602.1
3633.72
3663.5
3690.98
3715.83
3737.63
3756.06
3770.81
3781.62
3788.33
3790.88
3789.14
3783.38
3773.55
3759.79
3742.28
3721.27
3697.09
3670.06
3640.58
3609.11
3576.07
3541.93
3507.15
3472.18
3437.42
3403.41
3370.74
3338.73
3307.94
3278.65
3251.03
3225.17
3201.13
3178.94
3158.6
3140.11
3123.42
3108.51
3095.34
3083.86
3074.02
3065.79
3059.1
3053.93
3050.22
3047.94
3047.07
3047.59
3049.56
3052.95
3057.74
3063.94
3071.63
3080.86
3426.07
3458.94
3492.06
3524.98
3557.35
3588.57
3618.19
3645.72
3670.73
3692.89
3711.86
3727.35
3739.14
3747.04
3750.94
3750.73
3746.44
3738.18
3726.06
3710.28
3691.09
3668.79
3643.7
3616.23
3586.73
3555.63
3523.33
3490.22
3456.71
3423.17
3389.95
3357.34
3325.62
3295.22
3266.42
3238.59
3212.08
3187.04
3163.59
3141.75
3121.54
3102.96
3085.99
3070.6
3056.77
3044.45
3033.62
3024.24
3016.27
3009.72
3004.54
3000.75
2998.33
2997.3
2997.69
2999.54
3002.89
3007.78
3014.24
3022.34
3032.13
3043.67
3057.05
3072.29
3089.44
3108.53
3129.57
3152.54
3177.4
3204.05
3232.42
3262.35
3293.73
3326.78
3360.33
3394.37
3428.65
3462.87
3496.68
3529.73
3561.66
3592.09
3620.66
3647.01
3670.77
3691.63
3709.26
3723.4
3733.84
3740.39
3742.95
3741.46
3735.97
3726.55
3713.3
3696.41
3676.09
3652.6
3626.25
3597.36
3566.27
3533.37
3499.05
3463.72
3427.79
3391.67
3355.77
3320.45
3286.07
3252.92
3221.25
3191.26
3163.11
3136.89
3112.68
3090.5
3070.35
3052.22
3036.09
3021.93
3009.68
2999.31
2990.77
2984.03
2979.03
2975.74
2974.13
2974.15
2975.75
2978.91
2983.58
2989.75
2997.39
3006.48
3017.02
3028.99
3042.41
3057.29
3073.63
3091.46
3110.8
3131.66
3154.04
3177.94
3203.33
3230.15
3258.32
3287.72
3318.19
3349.78
3381.81
3414.25
3446.79
3479.09
3510.77
3541.45
3570.73
3598.2
3623.45
3646.09
3665.73
3682.01
3694.63
3703.3
3707.83
3708.04
3703.88
3695.39
3682.62
3665.74
3645.03
3620.8
3593.46
3563.47
3531.29
3497.44
3462.43
3426.76
3390.9
3355.29
3320.36
3286.44
3253.85
3222.83
3193.57
3166.21
3140.83
3117.48
3096.16
3076.87
3059.56
3044.16
3030.6
3018.8
3008.66
3000.1
2993.02
2987.36
2983.05
2980.02
2978.22
2977.63
2978.19
2979.91
2982.79
2986.87
2992.17
2998.75
3006.67
3015.98
3026.75
3039.03
3052.88
3068.37
3085.53
3104.41
3125.02
3147.36
3171.42
3197.13
3224.41
3253.16
3283.2
3314.34
3346.35
3378.92
3411.74
3444.45
3476.67
3507.97
3537.94
3566.15
3592.17
3615.6
3636.06
3653.2
3666.74
3676.43
3682.09
3683.62
3680.95
3674.18
3663.39
3648.74
3630.48
3608.91
3584.39
3557.31
3528.09
3497.16
3464.97
3431.95
3398.53
3365.08
3331.97
3299.51
3267.97
3237.58
3208.53
3180.96
3154.99
3130.71
3108.18
3087.42
3068.44
3051.26
3035.84
3022.17
3010.22
2999.93
2991.27
2984.2
2978.67
2974.64
2972.08
2970.95
2971.17
2972.7
2975.56
2979.76
2985.34
2992.33
3000.77
3010.71
3022.2
3035.29
3050.05
3066.53
3084.77
3104.82
3126.65
3150.26
3175.57
3202.45
3230.69
3260.07
3290.45
3332.92
3367.56
3402.28
3436.94
3471.04
3504.14
3535.88
3565.77
3593.37
3618.33
3640.23
3658.75
3673.58
3684.45
3691.21
3693.77
3692.02
3686.23
3676.35
3662.54
3644.94
3623.84
3599.56
3572.42
3542.82
3511.23
3478.07
3443.82
3408.93
3373.86
3339.03
3304.96
3272.23
3240.18
3209.36
3180.05
3152.42
3126.56
3102.53
3080.35
3060.03
3041.54
3024.87
3009.98
2996.82
2985.36
2975.54
2967.31
2960.64
2955.48
2951.78
2949.51
2948.64
2949.16
2951.14
2954.53
2959.32
2965.51
2973.18
2982.4
3327.72
3360.68
3393.89
3426.94
3459.43
3490.77
3520.53
3548.19
3573.32
3595.58
3614.65
3630.22
3642.07
3650.02
3653.93
3653.73
3649.42
3641.11
3628.91
3613.04
3593.76
3571.35
3546.14
3518.54
3488.92
3457.69
3425.28
3392.06
3358.45
3324.83
3291.52
3258.85
3227.08
3196.68
3167.84
3139.98
3113.46
3088.42
3064.96
3043.13
3022.93
3004.37
2987.41
2972.04
2958.23
2945.92
2935.1
2925.73
2917.78
2911.22
2906.06
2902.26
2899.84
2898.81
2899.19
2901.03
2904.37
2909.25
2915.69
2923.76
2933.53
2945.06
2958.41
2973.64
2990.77
3009.84
3030.87
3053.84
3078.71
3105.38
3133.77
3163.73
3195.14
3228.3
3261.91
3296.01
3330.38
3364.69
3398.6
3431.76
3463.8
3494.35
3523.04
3549.5
3573.38
3594.33
3612.06
3626.28
3636.78
3643.36
3645.94
3644.45
3638.93
3629.46
3616.15
3599.17
3578.76
3555.17
3528.71
3499.7
3468.49
3435.47
3401.03
3365.58
3329.53
3293.31
3257.31
3221.91
3187.46
3154.25
3122.54
3092.53
3064.37
3038.15
3013.94
2991.77
2971.64
2953.53
2937.42
2923.27
2911.04
2900.68
2892.16
2885.44
2880.46
2877.18
2875.58
2875.61
2877.22
2880.38
2885.06
2891.24
2898.88
2907.97
2918.5
2930.47
2943.88
2958.75
2975.08
2992.9
3012.23
3033.08
3055.45
3079.35
3104.74
3131.57
3159.76
3189.2
3219.7
3251.36
3283.45
3315.97
3348.6
3380.99
3412.79
3443.59
3472.99
3500.59
3525.97
3548.73
3568.48
3584.87
3597.58
3606.32
3610.89
3611.13
3606.96
3598.43
3585.59
3568.63
3547.8
3523.44
3495.95
3465.8
3433.47
3399.47
3364.32
3328.51
3292.53
3256.83
3221.81
3187.82
3155.17
3124.12
3094.84
3067.47
3042.09
3018.75
2997.45
2978.18
2960.89
2945.52
2932
2920.23
2910.11
2901.58
2894.52
2888.89
2884.59
2881.58
2879.79
2879.2
2879.77
2881.49
2884.36
2888.42
2893.71
2900.28
2908.18
2917.47
2928.21
2940.47
2954.31
2969.77
2986.91
3005.78
3026.38
3048.72
3072.78
3098.5
3125.81
3154.58
3184.67
3215.86
3247.94
3280.59
3313.51
3346.32
3378.65
3410.08
3440.18
3468.52
3494.67
3518.22
3538.79
3556.04
3569.65
3579.4
3585.11
3586.64
3583.97
3577.16
3566.31
3551.57
3533.21
3511.53
3486.88
3459.67
3430.31
3399.25
3366.94
3333.8
3300.27
3266.73
3233.54
3201.01
3169.42
3138.99
3109.9
3082.32
3056.34
3032.06
3009.52
2988.77
2969.8
2952.63
2937.23
2923.58
2911.64
2901.37
2892.73
2885.67
2880.16
2876.14
2873.59
2872.47
2872.7
2874.23
2877.09
2881.28
2886.85
2893.83
2902.25
2912.17
2923.63
2936.7
2951.44
2967.9
2986.12
3006.16
3027.99
3051.6
3076.93
3103.84
3132.13
3161.54
3191.92
3234.49
3269.16
3303.97
3338.75
3372.98
3406.2
3438.08
3468.11
3495.84
3520.93
3542.96
3561.58
3576.5
3587.44
3594.25
3596.83
3595.07
3589.24
3579.31
3565.43
3547.74
3526.53
3502.13
3474.85
3445.11
3413.38
3380.08
3345.7
3310.69
3275.51
3240.59
3206.46
3173.65
3141.55
3110.7
3081.37
3053.73
3027.87
3003.84
2981.67
2961.37
2942.9
2926.25
2911.37
2898.24
2886.79
2876.99
2868.78
2862.13
2856.98
2853.29
2851.02
2850.16
2850.69
2852.67
2856.06
2860.84
2867.02
2874.67
2883.87
3229.33
3262.39
3295.72
3328.89
3361.53
3393.03
3422.94
3450.74
3476
3498.39
3517.57
3533.24
3545.16
3553.15
3557.09
3556.89
3552.55
3544.18
3531.91
3515.94
3496.54
3474
3448.65
3420.91
3391.15
3359.78
3327.23
3293.89
3260.17
3226.45
3193.05
3160.31
3128.47
3098.07
3069.19
3041.3
3014.76
2989.72
2966.27
2944.44
2924.25
2905.7
2888.77
2873.42
2859.62
2847.33
2836.52
2827.16
2819.22
2812.68
2807.51
2803.72
2801.3
2800.26
2800.64
2802.47
2805.8
2810.65
2817.07
2825.12
2834.87
2846.37
2859.7
2874.9
2892.01
2911.07
2932.09
2955.06
2979.93
3006.62
3035.04
3065.03
3096.48
3129.76
3163.44
3197.62
3232.08
3266.5
3300.53
3333.81
3365.98
3396.66
3425.48
3452.08
3476.08
3497.16
3514.99
3529.3
3539.86
3546.49
3549.09
3547.59
3542.05
3532.52
3519.13
3502.07
3481.54
3457.84
3431.25
3402.1
3370.75
3337.59
3303.01
3267.42
3231.25
3194.9
3158.79
3123.3
3088.77
3055.51
3023.75
2993.71
2965.54
2939.32
2915.11
2892.95
2872.84
2854.75
2838.66
2824.53
2812.32
2801.99
2793.49
2786.78
2781.81
2778.55
2776.96
2777.01
2778.63
2781.8
2786.49
2792.66
2800.31
2809.4
2819.93
2831.89
2845.3
2860.15
2876.47
2894.27
2913.59
2934.43
2956.8
2980.69
3006.09
3032.93
3061.15
3090.61
3121.17
3152.88
3185.04
3217.66
3250.39
3282.9
3314.82
3345.76
3375.3
3403.05
3428.57
3451.47
3471.36
3487.87
3500.68
3509.5
3514.12
3514.38
3510.21
3501.63
3488.72
3471.65
3450.69
3426.18
3398.52
3368.2
3335.69
3301.52
3266.2
3230.25
3194.13
3158.31
3123.19
3089.12
3056.41
3025.32
2996.02
2968.64
2943.26
2919.93
2898.65
2879.4
2862.14
2846.81
2833.32
2821.58
2811.5
2802.99
2795.97
2790.36
2786.08
2783.09
2781.32
2780.73
2781.3
2783.02
2785.88
2789.93
2795.2
2801.75
2809.63
2818.89
2829.61
2841.85
2855.66
2871.1
2888.23
2907.07
2927.66
2950
2974.06
2999.79
3027.12
3055.93
3086.07
3117.33
3149.48
3182.23
3215.25
3248.19
3280.65
3312.22
3342.47
3370.96
3397.25
3420.95
3441.65
3459.01
3472.72
3482.54
3488.28
3489.84
3487.16
3480.3
3469.37
3454.54
3436.07
3414.25
3389.46
3362.09
3332.58
3301.37
3268.91
3235.64
3201.99
3168.34
3135.06
3102.45
3070.8
3040.32
3011.2
2983.59
2957.6
2933.32
2910.78
2890.04
2871.09
2853.93
2838.55
2824.91
2812.99
2802.74
2794.12
2787.08
2781.59
2777.59
2775.06
2773.94
2774.18
2775.71
2778.56
2782.75
2788.3
2795.26
2803.66
2813.56
2825
2838.04
2852.75
2869.19
2887.4
2907.41
2929.24
2952.86
2978.21
3005.15
3033.5
3062.96
3093.35
3135.97
3170.7
3205.62
3240.54
3274.91
3308.29
3340.32
3370.51
3398.39
3423.63
3445.79
3464.55
3479.57
3490.59
3497.46
3500.05
3498.28
3492.41
3482.43
3468.46
3450.67
3429.33
3404.79
3377.36
3347.46
3315.57
3282.12
3247.59
3212.43
3177.12
3142.09
3107.89
3075
3042.85
3011.96
2982.6
2954.95
2929.08
2905.07
2882.92
2862.63
2844.18
2827.55
2812.7
2799.58
2788.15
2778.37
2770.18
2763.55
2758.41
2754.74
2752.48
2751.62
2752.16
2754.14
2757.53
2762.3
2768.47
2776.1
2785.28
3130.91
3164.08
3197.54
3230.86
3263.65
3295.32
3325.4
3353.37
3378.79
3401.32
3420.63
3436.39
3448.39
3456.44
3460.4
3460.21
3455.84
3447.4
3435.04
3418.96
3399.43
3376.74
3351.24
3323.33
3293.41
3261.89
3229.19
3195.71
3161.87
3128.03
3094.53
3061.71
3029.79
2999.4
2970.46
2942.55
2915.99
2890.94
2867.49
2845.67
2825.5
2806.97
2790.05
2774.72
2760.94
2748.68
2737.89
2728.54
2720.61
2714.07
2708.92
2705.13
2702.7
2701.66
2702.02
2703.85
2707.16
2711.99
2718.39
2726.41
2736.13
2747.6
2760.91
2776.08
2793.17
2812.21
2833.23
2856.19
2881.07
2907.78
2936.23
2966.25
2997.74
3031.17
3064.92
3099.19
3133.76
3168.3
3202.46
3235.88
3268.2
3299.02
3327.99
3354.74
3378.89
3400.1
3418.05
3432.47
3443.1
3449.78
3452.4
3450.9
3445.32
3435.73
3422.26
3405.08
3384.44
3360.6
3333.86
3304.56
3273.06
3239.74
3205
3169.26
3132.94
3096.46
3060.23
3024.63
2990.01
2956.68
2924.88
2894.8
2866.61
2840.39
2816.19
2794.05
2773.95
2755.89
2739.82
2725.72
2713.53
2703.22
2694.74
2688.05
2683.1
2679.86
2678.29
2678.34
2679.97
2683.16
2687.85
2694.03
2701.68
2710.77
2721.29
2733.25
2746.65
2761.49
2777.79
2795.58
2814.88
2835.71
2858.07
2881.96
2907.36
2934.22
2962.46
2991.97
3022.59
3054.34
3086.6
3119.32
3152.17
3184.81
3216.87
3247.96
3277.67
3305.58
3331.27
3354.33
3374.36
3391.01
3403.93
3412.84
3417.52
3417.81
3413.63
3405
3392
3374.81
3353.7
3329.02
3301.18
3270.66
3237.95
3203.58
3168.08
3131.95
3095.69
3059.73
3024.5
2990.35
2957.57
2926.43
2897.1
2869.71
2844.34
2821.02
2799.76
2780.54
2763.32
2748.02
2734.57
2722.87
2712.83
2704.35
2697.36
2691.77
2687.52
2684.55
2682.79
2682.22
2682.79
2684.5
2687.35
2691.39
2696.64
2703.16
2711.02
2720.26
2730.95
2743.16
2756.95
2772.36
2789.46
2808.29
2828.87
2851.2
2875.26
2901.01
2928.37
2957.22
2987.41
3018.73
3050.98
3083.83
3116.97
3150.05
3182.66
3214.39
3244.81
3273.46
3299.92
3323.78
3344.62
3362.11
3375.93
3385.83
3391.63
3393.2
3390.5
3383.6
3372.59
3357.65
3339.04
3317.08
3292.12
3264.58
3234.9
3203.51
3170.89
3137.47
3103.68
3069.91
3036.52
3003.84
2972.12
2941.58
2912.43
2884.79
2858.79
2834.5
2811.97
2791.23
2772.29
2755.15
2739.78
2726.17
2714.27
2704.04
2695.44
2688.43
2682.96
2678.98
2676.46
2675.36
2675.6
2677.14
2679.99
2684.17
2689.7
2696.64
2705.02
2714.89
2726.31
2739.32
2754
2770.41
2788.59
2808.59
2830.41
2854.04
2879.41
2906.4
2934.8
2964.33
2994.76
3037.36
3072.18
3107.25
3142.31
3176.85
3210.4
3242.6
3272.97
3301.03
3326.43
3348.75
3367.64
3382.78
3393.9
3400.83
3403.44
3401.66
3395.75
3385.7
3371.64
3353.73
3332.24
3307.54
3279.95
3249.87
3217.8
3184.17
3149.46
3114.15
3078.69
3043.55
3009.26
2976.28
2944.07
2913.13
2883.75
2856.08
2830.22
2806.21
2784.08
2763.81
2745.39
2728.78
2713.95
2700.86
2689.45
2679.69
2671.53
2664.91
2659.79
2656.13
2653.88
2653.03
2653.58
2655.57
2658.95
2663.71
2669.86
2677.48
2686.62
3032.44
3065.74
3099.34
3132.82
3165.8
3197.66
3227.93
3256.09
3281.68
3304.36
3323.81
3339.69
3351.78
3359.89
3363.88
3363.69
3359.28
3350.78
3338.31
3322.1
3302.43
3279.58
3253.9
3225.82
3195.72
3164.02
3131.16
3097.52
3063.53
3029.57
2995.96
2963.04
2931.06
2900.66
2871.67
2843.73
2817.15
2792.09
2768.64
2746.83
2726.68
2708.16
2691.27
2675.96
2662.21
2649.96
2639.19
2629.86
2621.94
2615.42
2610.26
2606.48
2604.05
2603.01
2603.35
2605.17
2608.46
2613.27
2619.64
2627.64
2637.32
2648.76
2662.04
2677.18
2694.25
2713.27
2734.27
2757.24
2782.13
2808.86
2837.33
2867.4
2898.92
2932.54
2966.35
3000.72
3035.41
3070.09
3104.39
3137.96
3170.44
3201.44
3230.57
3257.49
3281.8
3303.16
3321.25
3335.77
3346.49
3353.23
3355.87
3354.36
3348.74
3339.08
3325.52
3308.23
3287.45
3263.46
3236.56
3207.09
3175.41
3141.92
3107
3071.09
3034.61
2997.98
2961.61
2925.89
2891.18
2857.76
2825.91
2795.8
2767.59
2741.36
2717.18
2695.05
2674.98
2656.94
2640.9
2626.82
2614.66
2604.37
2595.92
2589.25