/*--------------------------------*- C++ -*----------------------------------*\
| =========                 |                                                 |
| \\      /  F ield         | OpenFOAM: The Open Source CFD Toolbox           |
|  \\    /   O peration     | Version:  3.0.1                                 |
|   \\  /    A nd           | Web:      www.OpenFOAM.org                      |
|    \\/     M anipulation  |                                                 |
\*---------------------------------------------------------------------------*/
FoamFile
{
    version     2.0;
    format      ascii;
    class       volScalarField;
    location    "5.2";
    object      p_rgh;
}
// * * * * * * * * * * * * * * * * * * * * * * * * * * * * * * * * * * * * * //

dimensions      [1 -1 -2 0 0 0 0];

internalField   nonuniform List<scalar> 
21420
(
-18.4491
3.33174
16.5727
41.7664
69.3458
96.8555
123.635
149.243
173.452
196.055
216.78
235.411
251.767
265.674
277.025
285.752
291.84
295.307
296.313
295.019
291.333
285.416
277.512
267.77
256.332
243.351
228.966
213.322
196.57
178.841
160.283
141.066
121.333
101.248
80.9784
60.7141
40.6497
20.958
-0.330021
-19.2199
-37.2805
-54.4094
-70.4976
-85.4297
-99.1102
-111.459
-122.406
-131.907
-139.932
-146.464
-151.494
-155.066
-157.249
-158.028
-157.457
-155.594
-152.523
-148.304
-143.008
-136.712
-129.487
-121.415
-112.569
-103.019
-92.8635
-82.2484
-71.2785
-60.0309
-48.5919
-37.0666
-25.5536
-14.1457
-2.84169
9.20981
20.3942
31.0903
41.2716
50.8799
59.8625
68.1634
75.7342
82.5371
88.5304
93.6845
97.9784
101.408
103.979
105.706
106.631
106.805
106.272
105.059
103.222
100.817
97.8981
94.5254
90.7611
86.671
82.3248
77.7609
73.0244
68.1708
63.2529
58.3198
53.4149
48.5774
43.8418
39.2388
34.7935
30.5328
26.4802
22.6442
19.0323
15.6554
12.5218
9.63668
7.00109
4.60546
2.26407
0.261676
-1.46056
-2.94836
-4.21771
-5.2831
-6.15861
-6.8582
-7.39631
-7.78732
-8.04528
-8.18454
-8.22528
-8.17616
-8.04808
-7.85167
-7.59695
-7.2932
-6.94896
-6.57202
-6.16969
-5.74992
-5.31754
-4.87721
-4.43442
-3.99407
-3.56013
-3.13655
-2.72651
-2.33106
-1.95126
-1.58869
-1.24465
-0.920102
-0.615928
-0.33138
-0.0429958
0.208524
0.437452
0.644863
0.831482
0.998009
1.14518
1.27375
1.38452
1.47842
1.55641
1.61951
1.66873
1.70509
1.72961
1.74338
1.74869
1.74559
1.73482
1.71724
1.69365
1.66479
1.63139
1.5941
1.55356
1.51033
1.46496
1.41795
1.36978
1.32082
1.27132
1.22155
1.17174
1.12213
1.07294
1.02436
0.976541
0.929641
0.883781
0.839065
0.79558
0.753397
0.712576
0.673163
0.635194
0.598691
0.563663
0.530113
0.498035
0.467417
0.438239
0.410479
0.384107
0.359092
0.335397
0.312985
0.291814
0.271842
0.253024
0.235315
0.21867
0.203042
0.188386
0.174656
0.161807
0.149795
0.138576
0.128108
0.118349
0.109261
0.100804
0.0929417
0.0856381
0.0788592
0.0725724
0.0667465
0.0613519
0.0563604
0.0517454
0.0474814
0.0435445
0.0399122
0.0365632
0.0334774
0.030636
0.0280214
0.0256168
0.0234069
0.021377
0.0195136
0.0178041
0.0162367
0.0148003
0.0134848
0.0122806
0.0111788
0.0101714
0.00925073
0.00840973
0.0076419
0.00694123
0.00630217
0.00571957
0.00518871
0.00470521
0.00426506
0.00386455
0.00350028
0.00316912
0.00286819
0.00259485
0.00234668
0.00212146
0.00191714
0.00173188
0.00156395
0.00141181
0.00127401
0.00114927
0.00103638
0.000934258
0.000841915
0.000758446
0.000683026
0.000614905
0.000553398
0.000497884
0.000447797
0.000402622
0.000361892
0.000325183
0.000292109
0.00026232
0.000235499
0.000211358
0.000189637
0.0001701
0.000152532
0.00013674
0.00012255
0.000109802
9.83532e-05
8.80752e-05
7.88502e-05
7.05733e-05
6.31488e-05
5.64912e-05
5.05227e-05
4.51736e-05
4.0381e-05
3.60881e-05
3.22437e-05
2.88022e-05
2.57219e-05
2.29657e-05
2.05e-05
1.82949e-05
1.63233e-05
1.45609e-05
1.29859e-05
1.15787e-05
1.03216e-05
9.19901e-06
8.19664e-06
7.30186e-06
6.50328e-06
5.79071e-06
5.15506e-06
4.58811e-06
4.08254e-06
3.63182e-06
3.2301e-06
2.87209e-06
2.55312e-06
2.269e-06
2.01597e-06
1.79069e-06
1.59015e-06
1.41167e-06
1.25287e-06
1.11161e-06
9.85985e-07
8.7429e-07
7.75012e-07
6.86791e-07
6.08424e-07
5.3883e-07
4.7705e-07
4.22227e-07
3.73595e-07
3.30475e-07
2.9226e-07
2.58408e-07
2.28435e-07
2.01912e-07
1.7846e-07
1.57744e-07
1.39471e-07
1.23387e-07
1.09271e-07
9.694e-08
8.62413e-08
7.70465e-08
-18.5338
3.26735
16.5421
41.7526
69.3443
96.8652
123.655
149.276
173.497
196.113
216.85
235.492
251.856
265.769
277.124
285.853
291.942
295.409
296.413
295.104
291.412
285.492
277.582
267.834
256.389
243.401
229.01
213.359
196.601
178.866
160.301
141.077
121.337
101.246
80.969
60.6978
40.6268
20.9298
-0.364057
-19.2584
-37.3237
-54.4569
-70.5488
-85.4839
-99.1666
-111.517
-122.465
-131.967
-139.991
-146.523
-151.553
-155.126
-157.305
-158.077
-157.506
-155.642
-152.568
-148.347
-143.048
-136.749
-129.521
-121.447
-112.598
-103.045
-92.8861
-82.2677
-71.2943
-60.0431
-48.6004
-37.0711
-25.5541
-14.1422
-2.83415
9.21903
20.407
31.1065
41.2908
50.9018
59.8869
68.19
75.7627
82.5671
88.5616
93.7164
98.0107
101.441
104.011
105.737
106.662
106.832
106.298
105.083
103.244
100.837
97.9153
94.5403
90.7735
86.6811
82.3328
77.7668
73.0283
68.1728
63.2533
58.3186
53.4123
48.5735
43.8367
39.2327
34.7865
30.525
26.4717
22.6351
19.0227
15.6454
12.5117
9.62654
6.99132
4.59719
2.25221
0.251837
-1.46954
-2.95677
-4.22559
-5.29044
-6.1654
-6.86443
-7.40198
-7.79242
-8.04983
-8.18861
-8.22886
-8.17928
-8.05077
-7.85396
-7.59887
-7.29478
-6.95022
-6.573
-6.17043
-5.75044
-5.31785
-4.87734
-4.43438
-3.99389
-3.55982
-3.13613
-2.72599
-2.33046
-1.95059
-1.58797
-1.24387
-0.919285
-0.615059
-0.330413
-0.0422099
0.209349
0.438277
0.645671
0.832265
0.998762
1.1459
1.27444
1.38517
1.47903
1.55698
1.62004
1.66922
1.70554
1.73002
1.74374
1.74903
1.74588
1.73509
1.71748
1.69385
1.66497
1.63154
1.59423
1.55366
1.51041
1.46502
1.418
1.36981
1.32084
1.27133
1.22155
1.17173
1.12211
1.07292
1.02432
0.976503
0.929599
0.883735
0.839016
0.795528
0.753343
0.71252
0.673106
0.635136
0.598632
0.563605
0.530055
0.497978
0.46736
0.438183
0.410424
0.384053
0.359039
0.335346
0.312936
0.291767
0.271796
0.25298
0.235273
0.21863
0.203004
0.188349
0.174621
0.161774
0.149763
0.138546
0.128079
0.118323
0.109236
0.100781
0.0929195
0.0856173
0.0788397
0.0725541
0.0667294
0.0613359
0.0563455
0.0517314
0.0474683
0.0435324
0.0399009
0.0365527
0.0334677
0.030627
0.028013
0.0256091
0.0233997
0.0213704
0.0195075
0.0177985
0.0162315
0.0147955
0.0134803
0.0122765
0.0111751
0.010168
0.00924755
0.00840681
0.00763922
0.00693878
0.00629991
0.00571751
0.00518682
0.00470348
0.00426348
0.00386311
0.00349896
0.00316791
0.00286709
0.00259385
0.00234576
0.00212062
0.00191638
0.00173119
0.00156332
0.00141123
0.00127349
0.00114879
0.00103595
0.000933867
0.000841561
0.000758125
0.000682735
0.000614641
0.000553159
0.000497668
0.000447601
0.000402445
0.000361732
0.000325038
0.000291978
0.000262201
0.000235392
0.000211262
0.00018955
0.000170021
0.000152461
0.000136676
0.000122492
0.00010975
9.83066e-05
8.80332e-05
7.88124e-05
7.05394e-05
6.31183e-05
5.64637e-05
5.0498e-05
4.51515e-05
4.03611e-05
3.60702e-05
3.22277e-05
2.87878e-05
2.5709e-05
2.29541e-05
2.04897e-05
1.82857e-05
1.6315e-05
1.45535e-05
1.29792e-05
1.15727e-05
1.03163e-05
9.19423e-06
8.19235e-06
7.29804e-06
6.49986e-06
5.78766e-06
5.15233e-06
4.58568e-06
4.08037e-06
3.62988e-06
3.22836e-06
2.87054e-06
2.55174e-06
2.26777e-06
2.01488e-06
1.78971e-06
1.58927e-06
1.41089e-06
1.25218e-06
1.11099e-06
9.85434e-07
8.73799e-07
7.74573e-07
6.86402e-07
6.08077e-07
5.38522e-07
4.76774e-07
4.21982e-07
3.73377e-07
3.3028e-07
2.92086e-07
2.58254e-07
2.28298e-07
2.01791e-07
1.78352e-07
1.57648e-07
1.39385e-07
1.2331e-07
1.09203e-07
9.68793e-08
8.61861e-08
7.69977e-08
-18.7009
3.13987
16.4833
41.7265
69.3426
96.8863
123.699
149.343
173.59
196.232
216.993
235.655
252.036
265.962
277.325
286.058
292.147
295.616
296.614
295.276
291.573
285.645
277.724
267.963
256.505
243.503
229.099
213.435
196.664
178.916
160.338
141.101
121.347
101.241
80.9506
60.6654
40.5812
20.8729
-0.431721
-19.3353
-37.41
-54.552
-70.6513
-85.5924
-99.2796
-111.633
-122.583
-132.086
-140.111
-146.641
-151.673
-155.246
-157.417
-158.177
-157.604
-155.737
-152.659
-148.432
-143.128
-136.823
-129.59
-121.51
-112.655
-103.096
-92.9309
-82.306
-71.3257
-60.0672
-48.6169
-37.0798
-25.5547
-14.1347
-2.81842
9.23767
20.4329
31.1391
41.3295
50.9461
59.9362
68.2436
75.8201
82.6275
88.6243
93.7806
98.0757
101.505
104.075
105.8
106.723
106.887
106.349
105.13
103.288
100.876
97.9499
94.57
90.7985
86.7015
82.3489
77.7786
73.0361
68.177
63.254
58.3163
53.4072
48.5658
43.8267
39.2206
34.7725
30.5094
26.4548
22.6169
19.0035
15.6256
12.4915
9.60633
6.97183
4.58076
2.22852
0.232267
-1.48742
-2.97353
-4.2413
-5.30507
-6.17893
-6.87684
-7.41326
-7.80257
-8.05888
-8.1967
-8.23599
-8.18549
-8.05613
-7.85852
-7.60268
-7.29791
-6.95274
-6.57496
-6.17189
-5.75146
-5.31846
-4.87759
-4.4343
-3.99352
-3.5592
-3.13529
-2.72497
-2.32927
-1.94926
-1.58652
-1.24233
-0.917659
-0.61333
-0.328487
-0.0406478
0.210992
0.439919
0.647278
0.833822
1.00026
1.14734
1.2758
1.38646
1.48024
1.55811
1.62109
1.67019
1.70643
1.73083
1.74446
1.74969
1.74648
1.73561
1.71794
1.69425
1.66531
1.63183
1.59448
1.55387
1.51058
1.46516
1.4181
1.36989
1.32089
1.27136
1.22155
1.17171
1.12208
1.07287
1.02426
0.97643
0.929517
0.883645
0.838918
0.795425
0.753236
0.712409
0.672993
0.635022
0.598517
0.56349
0.52994
0.497864
0.467247
0.438072
0.410315
0.383947
0.358936
0.335246
0.312839
0.291673
0.271706
0.252893
0.235189
0.21855
0.202927
0.188277
0.174552
0.161708
0.149701
0.138487
0.128024
0.11827
0.109186
0.100734
0.0928756
0.085576
0.078801
0.0725179
0.0666955
0.0613042
0.0563159
0.0517038
0.0474426
0.0435084
0.0398787
0.036532
0.0334485
0.0306092
0.0279965
0.0255938
0.0233855
0.0213573
0.0194954
0.0177873
0.0162212
0.014786
0.0134716
0.0122684
0.0111677
0.0101611
0.00924129
0.00840105
0.00763394
0.00693393
0.00629547
0.00571344
0.00518309
0.00470007
0.00426036
0.00386026
0.00349636
0.00316554
0.00286492
0.00259187
0.00234396
0.00211898
0.00191489
0.00172982
0.00156208
0.00141011
0.00127247
0.00114786
0.0010351
0.000933099
0.000840864
0.000757493
0.000682162
0.000614122
0.000552688
0.000497241
0.000447215
0.000402096
0.000361416
0.000324753
0.00029172
0.000261968
0.000235182
0.000211072
0.000189379
0.000169867
0.000152322
0.000136551
0.000122379
0.000109648
9.82149e-05
8.79507e-05
7.87382e-05
7.04726e-05
6.30582e-05
5.64098e-05
5.04495e-05
4.51079e-05
4.03219e-05
3.60351e-05
3.21962e-05
2.87595e-05
2.56836e-05
2.29313e-05
2.04693e-05
1.82674e-05
1.62986e-05
1.45388e-05
1.29661e-05
1.15609e-05
1.03057e-05
9.1848e-06
8.18392e-06
7.29049e-06
6.49312e-06
5.78163e-06
5.14694e-06
4.58086e-06
4.07606e-06
3.62603e-06
3.22493e-06
2.86747e-06
2.54901e-06
2.26533e-06
2.0127e-06
1.78777e-06
1.58754e-06
1.40935e-06
1.2508e-06
1.10977e-06
9.8434e-07
8.72825e-07
7.73704e-07
6.85627e-07
6.07388e-07
5.37905e-07
4.76228e-07
4.21495e-07
3.72943e-07
3.29896e-07
2.91743e-07
2.57948e-07
2.28027e-07
2.01549e-07
1.78135e-07
1.57456e-07
1.39214e-07
1.23158e-07
1.09067e-07
9.67577e-08
8.60771e-08
7.68998e-08
-18.9521
2.94709
16.3962
41.6874
69.3399
96.9176
123.764
149.444
173.73
196.409
217.206
235.899
252.306
266.251
277.627
286.365
292.454
295.925
296.912
295.537
291.816
285.876
277.937
268.156
256.677
243.656
229.232
213.549
196.758
178.99
160.393
141.136
121.362
101.235
80.923
60.6167
40.5127
20.7873
-0.533139
-19.4505
-37.5396
-54.6946
-70.8052
-85.7554
-99.4492
-111.808
-122.76
-132.265
-140.289
-146.819
-151.851
-155.424
-157.584
-158.329
-157.751
-155.88
-152.795
-148.561
-143.248
-136.935
-129.693
-121.605
-112.741
-103.173
-92.9982
-82.3634
-71.3729
-60.1034
-48.6417
-37.0928
-25.5556
-14.1235
-2.79475
9.26554
20.4718
31.1882
41.3877
51.0125
60.01
68.324
75.9062
82.7181
88.7184
93.8771
98.1732
101.602
104.171
105.894
106.814
106.97
106.425
105.202
103.354
100.935
98.0018
94.6146
90.8359
86.7322
82.373
77.7963
73.0478
68.1832
63.2552
58.3128
53.3994
48.5542
43.8117
39.2025
34.7515
30.486
26.4293
22.5895
18.9747
15.5958
12.4611
9.57596
6.94247
4.55603
2.19302
0.203009
-1.51422
-2.99868
-4.26486
-5.32703
-6.19924
-6.89545
-7.43018
-7.81779
-8.07246
-8.20884
-8.24667
-8.19481
-8.06416
-7.86535
-7.60839
-7.3026
-6.9565
-6.57789
-6.17408
-5.75299
-5.31938
-4.87796
-4.43419
-3.99297
-3.55827
-3.13403
-2.72344
-2.32748
-1.94726
-1.58435
-1.24002
-0.915221
-0.610737
-0.325607
-0.0382934
0.213462
0.442384
0.649689
0.836158
1.00251
1.14949
1.27785
1.38839
1.48205
1.5598
1.62267
1.67165
1.70777
1.73204
1.74554
1.75068
1.74736
1.7364
1.71863
1.69485
1.66583
1.63228
1.59485
1.55418
1.51083
1.46535
1.41825
1.37
1.32096
1.27139
1.22155
1.17169
1.12203
1.07279
1.02417
0.976321
0.929393
0.883509
0.838772
0.795271
0.753075
0.712244
0.672824
0.634851
0.598345
0.563317
0.529768
0.497693
0.467078
0.437906
0.410152
0.383788
0.358781
0.335095
0.312693
0.291532
0.27157
0.252762
0.235064
0.21843
0.202813
0.188168
0.174448
0.16161
0.149608
0.138398
0.12794
0.118191
0.109112
0.100664
0.0928097
0.0855142
0.078743
0.0724635
0.0666446
0.0612567
0.0562715
0.0516624
0.047404
0.0434725
0.0398453
0.036501
0.0334197
0.0305825
0.0279717
0.0255708
0.0233643
0.0213376
0.0194773
0.0177706
0.0162057
0.0147718
0.0134585
0.0122563
0.0111565
0.0101509
0.00923189
0.00839242
0.00762602
0.00692666
0.00628881
0.00570734
0.0051775
0.00469496
0.00425568
0.00385598
0.00349245
0.00316197
0.00286166
0.0025889
0.00234125
0.00211651
0.00191264
0.00172778
0.00156022
0.00140841
0.00127093
0.00114646
0.00103383
0.000931946
0.000839818
0.000756544
0.000681301
0.000613342
0.000551982
0.000496602
0.000446636
0.000401572
0.000360943
0.000324325
0.000291333
0.000261619
0.000234866
0.000210787
0.000189122
0.000169635
0.000152113
0.000136363
0.000122209
0.000109495
9.80773e-05
8.78269e-05
7.86268e-05
7.03724e-05
6.29681e-05
5.63288e-05
5.03767e-05
4.50425e-05
4.02632e-05
3.59824e-05
3.21489e-05
2.87171e-05
2.56455e-05
2.28972e-05
2.04386e-05
1.82399e-05
1.6274e-05
1.45168e-05
1.29463e-05
1.15433e-05
1.02899e-05
9.17066e-06
8.17126e-06
7.27917e-06
6.483e-06
5.77258e-06
5.13885e-06
4.57363e-06
4.0696e-06
3.62027e-06
3.21978e-06
2.86288e-06
2.5449e-06
2.26167e-06
2.00943e-06
1.78485e-06
1.58494e-06
1.40703e-06
1.24873e-06
1.10792e-06
9.82698e-07
8.71361e-07
7.72401e-07
6.84467e-07
6.06354e-07
5.36985e-07
4.75408e-07
4.20765e-07
3.72293e-07
3.29317e-07
2.91229e-07
2.5749e-07
2.27619e-07
2.01185e-07
1.77813e-07
1.57168e-07
1.38958e-07
1.22929e-07
1.08863e-07
9.65752e-08
8.59135e-08
7.67536e-08
-19.2881
2.68704
16.2825
41.6355
69.3358
96.9588
123.851
149.579
173.916
196.646
217.491
236.226
252.666
266.637
278.029
286.775
292.864
296.334
297.306
295.891
292.143
286.185
278.221
268.413
256.908
243.86
229.409
213.7
196.884
179.09
160.467
141.182
121.381
101.226
80.8861
60.5517
40.4211
20.6729
-0.66841
-19.6042
-37.7125
-54.885
-71.0104
-85.9728
-99.6756
-112.04
-122.997
-132.503
-140.528
-147.056
-152.088
-155.658
-157.804
-158.535
-157.95
-156.071
-152.976
-148.731
-143.408
-137.084
-129.831
-121.731
-112.856
-103.275
-93.0879
-82.4401
-71.4357
-60.1516
-48.6748
-37.1101
-25.5567
-14.1086
-2.76315
9.30269
20.5237
31.2536
41.4653
51.1011
60.1085
68.4312
76.021
82.8391
88.844
94.0059
98.3034
101.732
104.298
106.019
106.934
107.081
106.528
105.299
103.442
101.014
98.071
94.674
90.8858
86.773
82.4051
77.8199
73.0634
68.1914
63.2566
58.308
53.3891
48.5388
43.7916
39.1782
34.7235
30.4547
26.3953
22.553
18.9363
15.5561
12.4207
9.5354
6.9031
4.52276
2.14593
0.164192
-1.54992
-3.0322
-4.29628
-5.35631
-6.22631
-6.92028
-7.45274
-7.83808
-8.09057
-8.22502
-8.26091
-8.20722
-8.07486
-7.87445
-7.61601
-7.30886
-6.96152
-6.58179
-6.17699
-5.75503
-5.3206
-4.87845
-4.43403
-3.99224
-3.55702
-3.13235
-2.72139
-2.3251
-1.94459
-1.58145
-1.23694
-0.91197
-0.607283
-0.321786
-0.0351317
0.216764
0.445674
0.652905
0.839273
1.00551
1.15235
1.28057
1.39097
1.48448
1.56207
1.62477
1.67359
1.70955
1.73367
1.74698
1.752
1.74855
1.73745
1.71955
1.69566
1.66653
1.63287
1.59535
1.55459
1.51117
1.46562
1.41845
1.37014
1.32105
1.27144
1.22155
1.17165
1.12196
1.0727
1.02405
0.976175
0.929227
0.883327
0.838578
0.795065
0.752861
0.712023
0.672599
0.634622
0.598115
0.563086
0.529538
0.497465
0.466853
0.437685
0.409935
0.383575
0.358574
0.334895
0.312498
0.291344
0.271389
0.252588
0.234897
0.21827
0.20266
0.188022
0.17431
0.161478
0.149483
0.13828
0.127828
0.118086
0.109013
0.10057
0.0927219
0.0854317
0.0786656
0.072391
0.0665768
0.0611933
0.0562123
0.0516072
0.0473526
0.0434246
0.0398007
0.0364596
0.0333812
0.0305468
0.0279386
0.0255402
0.023336
0.0213114
0.0194531
0.0177482
0.0161851
0.0147527
0.0134409
0.0122402
0.0111417
0.0101373
0.00921935
0.00838091
0.00761545
0.00691698
0.00627993
0.0056992
0.00517005
0.00468814
0.00424945
0.00385028
0.00348724
0.00315722
0.00285733
0.00258494
0.00233764
0.00211322
0.00190964
0.00172505
0.00155774
0.00140616
0.00126888
0.0011446
0.00103214
0.000930409
0.000838423
0.000755279
0.000680155
0.000612303
0.000551041
0.00049575
0.000445865
0.000400874
0.000360312
0.000323754
0.000290818
0.000261153
0.000234446
0.000210408
0.000188779
0.000169326
0.000151834
0.000136112
0.000121983
0.000109292
9.78939e-05
8.76618e-05
7.84783e-05
7.02388e-05
6.2848e-05
5.62208e-05
5.02797e-05
4.49554e-05
4.0185e-05
3.59121e-05
3.20858e-05
2.86605e-05
2.55948e-05
2.28517e-05
2.03978e-05
1.82033e-05
1.62413e-05
1.44874e-05
1.29201e-05
1.15197e-05
1.02688e-05
9.1518e-06
8.1544e-06
7.26408e-06
6.46951e-06
5.76052e-06
5.12807e-06
4.564e-06
4.061e-06
3.61258e-06
3.21292e-06
2.85675e-06
2.53943e-06
2.25678e-06
2.00507e-06
1.78097e-06
1.58147e-06
1.40394e-06
1.24598e-06
1.10547e-06
9.8051e-07
8.69411e-07
7.70664e-07
6.8292e-07
6.04975e-07
5.3576e-07
4.74316e-07
4.19792e-07
3.71427e-07
3.28546e-07
2.90542e-07
2.5688e-07
2.27074e-07
2.00701e-07
1.77382e-07
1.56784e-07
1.38616e-07
1.22625e-07
1.08591e-07
9.63319e-08
8.56955e-08
7.65568e-08
-19.7097
2.3568
16.1445
41.5713
69.3302
97.0097
123.958
149.747
174.148
196.943
217.847
236.634
253.117
267.12
278.533
287.288
293.377
296.841
297.791
296.339
292.557
286.572
278.576
268.735
257.196
244.114
229.631
213.89
197.041
179.215
160.559
141.241
121.405
101.216
80.8399
60.4703
40.3062
20.5297
-0.837596
-19.7963
-37.9287
-55.1233
-71.2673
-86.2448
-99.9589
-112.331
-123.293
-132.802
-140.826
-147.352
-152.382
-155.947
-158.079
-158.796
-158.199
-156.31
-153.203
-148.945
-143.608
-137.27
-130.003
-121.889
-112.999
-103.403
-93.2002
-82.536
-71.5144
-60.212
-48.7162
-37.1318
-25.5583
-14.09
-2.72367
9.34915
20.5886
31.3354
41.5623
51.2119
60.2316
68.5653
76.1647
82.9904
89.0013
94.1671
98.4663
101.894
104.458
106.175
107.082
107.22
106.658
105.419
103.552
101.113
98.1575
94.7483
90.9482
86.824
82.4451
77.8493
73.0829
68.2017
63.2584
58.3021
53.3761
48.5194
43.7665
39.1479
34.6885
30.4156
26.3528
22.5074
18.8882
15.5064
12.37
9.48458
6.85354
4.48033
2.08781
0.115988
-1.59448
-3.07409
-4.33555
-5.39292
-6.26016
-6.95131
-7.48092
-7.86343
-8.11321
-8.24524
-8.27871
-8.22274
-8.08823
-7.88581
-7.62552
-7.31667
-6.96779
-6.58666
-6.18063
-5.75758
-5.32212
-4.87906
-4.43382
-3.99131
-3.55546
-3.13024
-2.71883
-2.32211
-1.94125
-1.57782
-1.23309
-0.90791
-0.602969
-0.317041
-0.0311433
0.220906
0.449791
0.656928
0.843169
1.00925
1.15594
1.28398
1.39419
1.48751
1.5649
1.6274
1.67601
1.71177
1.7357
1.74881
1.75366
1.75003
1.73876
1.7207
1.69666
1.6674
1.63361
1.59598
1.55511
1.51158
1.46595
1.4187
1.37032
1.32117
1.2715
1.22156
1.17161
1.12188
1.07257
1.02389
0.975991
0.92902
0.8831
0.838334
0.794808
0.752593
0.711747
0.672317
0.634337
0.597827
0.562798
0.529251
0.49718
0.466572
0.437407
0.409663
0.38331
0.358315
0.334643
0.312255
0.291109
0.271162
0.252371
0.234689
0.21807
0.20247
0.187841
0.174137
0.161314
0.149327
0.138133
0.127689
0.117954
0.108889
0.100454
0.0926121
0.0853286
0.0785689
0.0723005
0.066492
0.0611141
0.0561383
0.0515382
0.0472883
0.0433648
0.0397451
0.0364079
0.0333332
0.0305022
0.0278973
0.025502
0.0233006
0.0212787
0.0194228
0.0177203
0.0161593
0.014729
0.0134191
0.0122201
0.0111232
0.0101202
0.00920369
0.00836653
0.00760225
0.00690487
0.00626883
0.00568903
0.00516074
0.00467962
0.00424165
0.00384316
0.00348074
0.00315127
0.0028519
0.00257999
0.00233314
0.00210911
0.0019059
0.00172164
0.00155464
0.00140334
0.00126631
0.00114227
0.00103002
0.000928489
0.000836681
0.000753699
0.000678722
0.000611004
0.000549865
0.000494685
0.000444901
0.000400002
0.000359523
0.000323041
0.000290173
0.000260572
0.00023392
0.000209933
0.000188351
0.00016894
0.000151487
0.000135798
0.000121701
0.000109037
9.76649e-05
8.74554e-05
7.82929e-05
7.00718e-05
6.26979e-05
5.60859e-05
5.01586e-05
4.48464e-05
4.00872e-05
3.58243e-05
3.2007e-05
2.85898e-05
2.55313e-05
2.27948e-05
2.03468e-05
1.81576e-05
1.62003e-05
1.44507e-05
1.28872e-05
1.14904e-05
1.02425e-05
9.12823e-06
8.13335e-06
7.24524e-06
6.45264e-06
5.74548e-06
5.11459e-06
4.55197e-06
4.05025e-06
3.60299e-06
3.20433e-06
2.84909e-06
2.5326e-06
2.25069e-06
1.99963e-06
1.77612e-06
1.57715e-06
1.40008e-06
1.24254e-06
1.1024e-06
9.77777e-07
8.66977e-07
7.68494e-07
6.80987e-07
6.03252e-07
5.34226e-07
4.72949e-07
4.18577e-07
3.70346e-07
3.27583e-07
2.89684e-07
2.56117e-07
2.26395e-07
2.00096e-07
1.76844e-07
1.56305e-07
1.38189e-07
1.22244e-07
1.08251e-07
9.60279e-08
8.5423e-08
7.63118e-08
-20.2175
1.95224
15.9857
41.4949
69.3228
97.0699
124.087
149.949
174.427
197.298
218.275
237.124
253.659
267.701
279.138
287.905
293.993
297.446
298.371
296.878
293.057
287.037
279.003
269.121
257.541
244.42
229.897
214.117
197.229
179.364
160.669
141.311
121.434
101.203
80.7843
60.3723
40.1678
20.3574
-1.04062
-20.0268
-38.1885
-55.4095
-71.5759
-86.5716
-100.299
-112.682
-123.649
-133.16
-141.184
-147.708
-152.735
-156.291
-158.41
-159.111
-158.5
-156.598
-153.475
-149.201
-143.848
-137.493
-130.21
-122.079
-113.172
-103.557
-93.335
-82.6512
-71.609
-60.2846
-48.766
-37.158
-25.5601
-14.0676
-2.67635
9.405
20.6667
31.4338
41.6789
51.3449
60.3795
68.7263
76.3373
83.1723
89.1904
94.3609
98.6621
102.089
104.649
106.361
107.259
107.387
106.815
105.564
103.685
101.231
98.2613
94.8375
91.023
86.8851
82.4932
77.8846
73.1062
68.2139
63.2605
58.2949
53.3605
48.4961
43.7363
39.1115
34.6465
30.3686
26.3017
22.4525
18.8305
15.4466
12.3092
9.42347
6.79356
4.42724
2.02009
0.0586071
-1.64787
-3.12436
-4.3827
-5.43686
-6.30078
-6.98854
-7.51473
-7.89383
-8.14035
-8.26947
-8.30004
-8.24134
-8.10427
-7.89944
-7.63692
-7.32603
-6.97529
-6.5925
-6.18499
-5.76062
-5.32394
-4.87978
-4.43358
-3.9902
-3.55358
-3.12771
-2.71574
-2.31852
-1.93723
-1.57347
-1.22846
-0.903041
-0.597798
-0.311387
-0.0263058
0.225895
0.454739
0.661759
0.847845
1.01375
1.16024
1.28807
1.39806
1.49114
1.56829
1.63055
1.67892
1.71444
1.73813
1.75101
1.75565
1.75181
1.74033
1.72209
1.69787
1.66844
1.6345
1.59672
1.55573
1.51209
1.46634
1.419
1.37054
1.32131
1.27156
1.22156
1.17155
1.12177
1.07243
1.0237
0.975771
0.928772
0.882827
0.838041
0.794499
0.752271
0.711416
0.671978
0.633994
0.597482
0.562452
0.528906
0.496838
0.466234
0.437075
0.409337
0.382991
0.358005
0.334342
0.311963
0.290827
0.270891
0.25211
0.234438
0.217831
0.202241
0.187622
0.173929
0.161117
0.14914
0.137956
0.127522
0.117796
0.10874
0.100313
0.0924803
0.0852049
0.0784529
0.0721918
0.0663904
0.061019
0.0560496
0.0514554
0.0472112
0.043293
0.0396783
0.0363458
0.0332756
0.0304488
0.0278478
0.0254561
0.0232581
0.0212395
0.0193866
0.0176868
0.0161284
0.0147005
0.0133928
0.0121959
0.0111009
0.0100998
0.00918491
0.00834928
0.00758642
0.00689035
0.00625552
0.00567684
0.00514958
0.0046694
0.00423231
0.00383462
0.00347293
0.00314415
0.0028454
0.00257406
0.00232773
0.00210419
0.00190141
0.00171756
0.00155092
0.00139996
0.00126324
0.00113948
0.00102749
0.000926186
0.000834591
0.000751803
0.000677004
0.000609447
0.000548454
0.000493408
0.000443745
0.000398956
0.000358577
0.000322186
0.000289401
0.000259874
0.00023329
0.000209365
0.000187838
0.000168477
0.000151069
0.000135422
0.000121362
0.000108732
9.73901e-05
8.72083e-05
7.80702e-05
6.98718e-05
6.2518e-05
5.59242e-05
5.00132e-05
4.47159e-05
3.99699e-05
3.57191e-05
3.19125e-05
2.8505e-05
2.54553e-05
2.27266e-05
2.02857e-05
1.81028e-05
1.61512e-05
1.44067e-05
1.28478e-05
1.1455e-05
1.02109e-05
9.1e-06
8.10806e-06
7.22264e-06
6.43245e-06
5.72739e-06
5.09846e-06
4.53754e-06
4.03736e-06
3.59147e-06
3.19406e-06
2.83992e-06
2.52441e-06
2.24338e-06
1.99311e-06
1.77029e-06
1.57196e-06
1.39545e-06
1.23841e-06
1.09873e-06
9.74501e-07
8.64058e-07
7.65892e-07
6.7867e-07
6.0119e-07
5.32388e-07
4.71315e-07
4.17121e-07
3.6905e-07
3.26429e-07
2.88659e-07
2.55202e-07
2.25582e-07
1.99372e-07
1.76198e-07
1.5573e-07
1.37678e-07
1.21788e-07
1.07844e-07
9.56635e-08
8.50962e-08
7.6018e-08
-20.8123
1.46755
15.8111
41.4065
69.313
97.1388
124.235
150.183
174.752
197.714
218.775
237.697
254.292
268.379
279.845
288.625
294.711
298.151
299.047
297.51
293.643
287.58
279.5
269.571
257.944
244.775
230.207
214.381
197.449
179.539
160.797
141.393
121.468
101.187
80.7192
60.2576
40.0057
20.1554
-1.27721
-20.2957
-38.4919
-55.7439
-71.9365
-86.9534
-100.697
-113.091
-124.065
-133.579
-141.602
-148.123
-153.145
-156.692
-158.795
-159.48
-158.852
-156.933
-153.793
-149.5
-144.128
-137.754
-130.451
-122.3
-113.373
-103.737
-93.4924
-82.7856
-71.7194
-60.3695
-48.8243
-37.1886
-25.5623
-14.0414
-2.62123
9.47029
20.758
31.5487
41.815
51.5002
60.5522
68.9143
76.5387
83.3848
89.4113
94.5873
98.8909
102.317
104.873
106.577
107.465
107.582
106.998
105.734
103.839
101.369
98.3824
94.9414
91.1102
86.9564
82.5491
77.9256
73.1332
68.2281
63.2628
58.2864
53.3422
48.4689
43.701
39.0689
34.5973
30.3138
26.2419
22.3884
18.763
15.3769
12.2381
9.35201
6.72292
4.36118
1.94501
-0.00774311
-1.71006
-3.18301
-4.43771
-5.48813
-6.34819
-7.03199
-7.55417
-7.92928
-8.17199
-8.29772
-8.32492
-8.26303
-8.12296
-7.91533
-7.65021
-7.33693
-6.98403
-6.59928
-6.19006
-5.76416
-5.32605
-4.88062
-4.43328
-3.98888
-3.55137
-3.12474
-2.71213
-2.31432
-1.93254
-1.56838
-1.22306
-0.897368
-0.591778
-0.304841
-0.0205931
0.231741
0.460521
0.667399
0.853304
1.019
1.16527
1.29285
1.40258
1.49539
1.57226
1.63423
1.68232
1.71756
1.74098
1.75359
1.75798
1.75388
1.74217
1.7237
1.69927
1.66965
1.63554
1.59759
1.55645
1.51267
1.4668
1.41935
1.37079
1.32147
1.27164
1.22157
1.17149
1.12165
1.07225
1.02349
0.975514
0.928481
0.882509
0.837699
0.794138
0.751896
0.711028
0.671583
0.633593
0.597078
0.562048
0.528504
0.496439
0.465839
0.436687
0.408956
0.382619
0.357643
0.33399
0.311622
0.290498
0.270574
0.251805
0.234146
0.217551
0.201974
0.187368
0.173687
0.160887
0.148922
0.13775
0.127327
0.117612
0.108566
0.10015
0.0923267
0.0850606
0.0783176
0.072065
0.0662718
0.0609082
0.0559461
0.0513589
0.0471212
0.0432092
0.0396004
0.0362734
0.0332084
0.0303865
0.02779
0.0254026
0.0232086
0.0211937
0.0193443
0.0176478
0.0160924
0.0146673
0.0133622
0.0121677
0.011075
0.010076
0.009163
0.00832916
0.00756796
0.00687341
0.00624
0.00566262
0.00513656
0.00465749
0.00422141
0.00382466
0.00346383
0.00313584
0.00283782
0.00256715
0.00232142
0.00209844
0.00189618
0.00171279
0.00154659
0.00139601
0.00125966
0.00113622
0.00102453
0.000923501
0.000832155
0.000749594
0.000675001
0.000607632
0.00054681
0.000491919
0.000442398
0.000397737
0.000357475
0.00032119
0.0002885
0.00025906
0.000232556
0.000208702
0.00018724
0.000167938
0.000150583
0.000134984
0.000120967
0.000108376
9.70698e-05
8.692e-05
7.78109e-05
6.96385e-05
6.23083e-05
5.57356e-05
4.98438e-05
4.45637e-05
3.98332e-05
3.55963e-05
3.18024e-05
2.84062e-05
2.53667e-05
2.26471e-05
2.02144e-05
1.8039e-05
1.6094e-05
1.43555e-05
1.28019e-05
1.14139e-05
1.01742e-05
9.06709e-06
8.07862e-06
7.19631e-06
6.4089e-06
5.70634e-06
5.07964e-06
4.52073e-06
4.02234e-06
3.57805e-06
3.18208e-06
2.82922e-06
2.51486e-06
2.23486e-06
1.98551e-06
1.76351e-06
1.56591e-06
1.39006e-06
1.23361e-06
1.09444e-06
9.70682e-07
8.60655e-07
7.62862e-07
6.7597e-07
5.98785e-07
5.30246e-07
4.69407e-07
4.15423e-07
3.67539e-07
3.25083e-07
2.87461e-07
2.54136e-07
2.24633e-07
1.98527e-07
1.75446e-07
1.55061e-07
1.37081e-07
1.21256e-07
1.07369e-07
9.52388e-08
8.47154e-08
7.56755e-08
-21.4945
0.894567
15.628
41.3059
69.3004
97.216
124.403
150.451
175.123
198.189
219.346
238.353
255.017
269.156
280.655
289.449
295.533
298.955
299.817
298.233
294.315
288.202
280.069
270.086
258.404
245.182
230.561
214.684
197.7
179.738
160.944
141.486
121.506
101.17
80.6447
60.1261
39.8195
19.9229
-1.54691
-20.603
-38.8392
-56.1268
-72.3493
-87.3905
-101.153
-113.559
-124.542
-134.059
-142.081
-148.598
-153.613
-157.149
-159.236
-159.903
-159.255
-157.317
-154.157
-149.842
-144.448
-138.052
-130.726
-122.553
-113.602
-103.942
-93.6724
-82.9395
-71.8458
-60.4667
-48.8909
-37.2236
-25.5648
-14.0114
-2.55838
9.54512
20.8626
31.6803
41.9709
51.678
60.7497
69.1294
76.7692
83.6279
89.6641
94.8464
99.1527
102.578
105.128
106.825
107.701
107.806
107.207
105.928
104.016
101.527
98.5208
95.0602
91.2097
87.0377
82.613
77.9724
73.1641
68.2442
63.2654
58.2767
53.3211
48.4377
43.6606
39.0201
34.5411
30.251
26.1736
22.315
18.6858
15.297
12.1567
9.27013
6.64147
4.28218
1.86243
-0.0829342
-1.78103
-3.25003
-4.5006
-5.54674
-6.40237
-7.08164
-7.59924
-7.96977
-8.20811
-8.32996
-8.35332
-8.2878
-8.14429
-7.93345
-7.66536
-7.34936
-6.99399
-6.60702
-6.19584
-5.76819
-5.32845
-4.88156
-4.43292
-3.98737
-3.54884
-3.12134
-2.708
-2.3095
-1.92717
-1.56255
-1.21688
-0.890896
-0.584921
-0.297406
-0.0139768
0.238453
0.467139
0.673849
0.859546
1.02501
1.17101
1.29831
1.40774
1.50023
1.57679
1.63843
1.6862
1.72112
1.74423
1.75653
1.76063
1.75625
1.74426
1.72554
1.70088
1.67103
1.63672
1.59859
1.55727
1.51334
1.46733
1.41975
1.37108
1.32165
1.27173
1.22157
1.17142
1.12151
1.07205
1.02324
0.975219
0.928149
0.882144
0.837308
0.793725
0.751466
0.710586
0.671131
0.633135
0.596617
0.561587
0.528044
0.495982
0.465389
0.436243
0.408521
0.382194
0.357228
0.333588
0.311233
0.290122
0.270211
0.251457
0.233812
0.217232
0.201669
0.187077
0.173411
0.160624
0.148673
0.137514
0.127104
0.117402
0.108368
0.0999632
0.0921511
0.0848958
0.078163
0.0719202
0.0661363
0.0607815
0.0558278
0.0512486
0.0470184
0.0431135
0.0395114
0.0361907