/*--------------------------------*- C++ -*----------------------------------*\
| =========                 |                                                 |
| \\      /  F ield         | OpenFOAM: The Open Source CFD Toolbox           |
|  \\    /   O peration     | Version:  3.0.1                                 |
|   \\  /    A nd           | Web:      www.OpenFOAM.org                      |
|    \\/     M anipulation  |                                                 |
\*---------------------------------------------------------------------------*/
FoamFile
{
    version     2.0;
    format      ascii;
    class       volScalarField;
    location    "67.2";
    object      p_rgh;
}
// * * * * * * * * * * * * * * * * * * * * * * * * * * * * * * * * * * * * * //

dimensions      [1 -1 -2 0 0 0 0];

internalField   nonuniform List<scalar> 
21420
(
-83.5394
-54.358
-23.7063
7.80424
35.1623
69.0355
103.683
138.343
172.598
206.097
238.415
269.133
297.857
324.153
347.619
367.885
384.618
397.577
406.561
411.415
412.006
408.452
400.828
389.153
373.647
354.559
332.174
306.815
278.882
248.767
216.89
183.716
149.673
115.187
80.6171
46.4921
13.5048
-18.9102
-50.3021
-80.4044
-109.03
-136.04
-161.343
-184.871
-206.599
-226.522
-244.647
-261.004
-275.625
-288.547
-299.812
-309.461
-317.53
-324.054
-329.057
-332.555
-334.527
-334.987
-333.988
-331.448
-327.363
-321.703
-314.426
-305.512
-294.924
-282.615
-268.562
-252.746
-235.161
-215.818
-194.715
-171.893
-147.432
-121.393
-93.868
-65.0033
-34.9427
-3.84477
28.2374
60.9924
94.0598
127.111
159.899
192.103
223.392
253.396
281.75
308.075
332.003
353.189
371.318
386.109
397.327
404.79
408.341
407.935
403.546
395.251
383.074
367.192
347.804
325.159
299.553
271.327
240.864
208.576
174.896
140.274
105.158
69.9862
35.176
1.09432
-31.9235
-63.5937
-93.6849
-122.021
-148.475
-172.962
-195.437
-215.889
-234.331
-250.796
-265.334
-278
-288.863
-297.99
-305.449
-311.311
-315.652
-318.534
-320.002
-320.081
-318.883
-316.414
-312.695
-307.737
-301.542
-294.088
-285.356
-275.318
-263.928
-251.148
-236.94
-221.258
-204.06
-185.31
-164.985
-143.075
-119.591
-94.564
-68.06
-40.1751
-11.0538
19.0722
50.8227
82.5021
114.652
146.894
178.869
210.203
240.506
269.375
296.401
321.182
343.327
362.468
378.266
390.433
398.736
402.973
403.061
398.973
390.791
378.577
362.555
342.989
320.199
294.556
266.47
236.375
204.718
171.952
138.518
104.84
71.3123
38.297
6.11114
-24.9706
-54.7196
-82.954
-109.539
-134.383
-157.429
-178.652
-198.055
-215.665
-231.522
-245.681
-258.201
-269.147
-278.587
-286.583
-293.193
-298.473
-302.473
-305.247
-306.82
-307.197
-306.404
-304.453
-301.318
-296.99
-291.455
-284.687
-276.67
-267.384
-256.803
-244.896
-231.629
-216.97
-200.887
-183.346
-164.327
-143.821
-121.835
-98.3953
-73.5534
-47.383
-19.9864
8.50514
37.9354
68.1473
98.8119
129.707
160.534
190.961
220.624
249.135
276.09
301.082
323.708
343.583
360.356
373.72
383.422
389.273
391.085
388.916
382.699
372.527
358.558
341.024
320.219
296.49
270.229
241.866
211.85
180.633
148.662
116.357
84.1
52.2373
21.0675
-9.14209
-38.1648
-65.8104
-91.9259
-116.406
-139.184
-160.228
-179.546
-197.17
-213.142
-227.515
-240.35
-251.698
-261.624
-270.176
-277.433
-283.425
-288.175
-291.689
-294.135
-295.505
-295.852
-295.208
-293.576
-290.951
-287.31
-282.643
-276.937
-270.163
-262.296
-253.293
-243.081
-231.586
-218.731
-204.424
-188.58
-171.12
-151.965
-131.079
-108.442
-84.0692
-58.0541
-30.5243
-1.87297
27.6643
58.2328
89.37
120.675
151.786
182.267
211.685
239.668
265.809
289.744
311.117
329.611
344.979
357.008
365.545
370.508
371.761
369.338
363.385
354.053
341.503
325.972
307.74
287.127
264.433
239.989
214.14
187.199
159.479
131.258
102.8
74.3552
46.1343
18.3496
-8.72573
-34.8022
-60.4276
-85.1791
-108.922
-131.567
-153.04
-173.27
-192.202
-209.788
-225.979
-240.74
-254.03
-265.821
-276.109
-284.894
-83.6264
-54.438
-23.7724
7.76322
35.0872
68.9891
103.656
138.332
172.602
206.117
238.453
269.19
297.933
324.249
347.733
368.015
384.761
397.73
406.72
411.585
412.168
408.612
400.982
389.297
373.778
354.676
332.274
306.896
278.944
248.81
216.914
183.722
149.662
115.161
80.5778
46.4423
13.445
-18.9779
-50.3759
-80.4827
-109.111
-136.123
-161.426
-184.953
-206.68
-226.6
-244.723
-261.077
-275.696
-288.615
-299.878
-309.525
-317.593
-324.115
-329.116
-332.615
-334.584
-335.048
-334.049
-331.51
-327.426
-321.768
-314.493
-305.581
-294.996
-282.689
-268.637
-252.824
-235.24
-215.898
-194.795
-171.973
-147.51
-121.469
-93.9408
-65.0723
-35.0068
-3.90262
28.1864
60.9511
94.0283
127.091
159.891
192.109
223.413
253.433
281.804
308.145
332.089
353.291
371.432
386.235
397.463
404.932
408.493
408.078
403.688
395.388
383.203
367.31
347.909
325.249
299.626
271.382
240.9
208.592
174.894
140.254
105.121
69.9334
35.1102
1.01735
-32.0093
-63.6861
-93.7818
-122.12
-148.575
-173.062
-195.536
-215.985
-234.424
-250.887
-265.421
-278.084
-288.943
-298.067
-305.523
-311.382
-315.72
-318.6
-320.062
-320.143
-318.943
-316.474
-312.755
-307.797
-301.602
-294.15
-285.421
-275.384
-263.996
-251.219
-237.014
-221.334
-204.138
-185.391
-165.067
-143.159
-119.674
-94.647
-68.1408
-40.252
-11.1231
19.0245
50.7448
82.4494
114.613
146.87
178.86
210.21
240.531
269.417
296.462
321.261
343.423
362.58
378.392
390.572
398.883
403.13
403.211
399.121
390.933
378.71
362.675
343.092
320.285
294.623
266.517
236.403
204.726
171.942
138.492
104.798
71.2575
38.2311
6.03626
-25.0524
-54.8063
-83.044
-109.631
-134.475
-157.52
-178.741
-198.142
-215.749
-231.603
-245.758
-258.275
-269.218
-278.655
-286.648
-293.255
-298.532
-302.531
-305.304
-306.875
-307.251
-306.46
-304.508
-301.375
-297.048
-291.513
-284.746
-276.73
-267.447
-256.867
-244.961
-231.696
-217.04
-200.959
-183.421
-164.403
-143.898
-121.912
-98.4717
-73.6284
-47.4553
-20.0548
8.442
37.8789
68.0991
98.7735
129.68
160.52
190.961
220.64
249.169
276.142
301.152
323.796
343.687
360.475
373.851
383.563
389.419
391.24
389.061
382.842
372.662
358.682
341.134
320.312
296.565
270.284
241.902
211.866
180.631
148.644
116.324
84.0539
52.1807
21.0024
-9.21401
-38.2418
-65.8908
-92.0083
-116.489
-139.266
-160.308
-179.623
-197.244
-213.212
-227.582
-240.413
-251.759
-261.681
-270.229
-277.483
-283.473
-288.224
-291.734
-294.177
-295.546
-295.892
-295.247
-293.615
-290.991
-287.35
-282.684
-276.98
-270.207
-262.343
-253.343
-243.135
-231.644
-218.792
-204.489
-188.65
-171.193
-152.042
-131.158
-108.522
-84.1478
-58.13
-30.595
-1.93498
27.6104
58.1899
89.3405
120.661
151.788
182.285
211.721
239.721
265.88
289.831
311.219
329.726
345.105
357.142
365.684
370.649
371.909
369.473
363.516
354.175
341.614
326.071
307.824
287.196
264.487
240.03
214.167
187.213
159.481
131.25
102.783
74.3298
46.1022
18.3117
-8.76761
-34.8493
-60.4776
-85.2317
-108.976
-131.623
-153.098
-173.329
-192.262
-209.848
-226.041
-240.802
-254.092
-265.883
-276.171
-284.957
-83.8005
-54.5983
-23.9052
7.68159
34.9369
68.8967
103.601
138.308
172.609
206.157
238.529
269.304
298.087
324.44
347.961
368.274
385.047
398.036
407.039
411.915
412.5
408.933
401.289
389.585
374.042
354.909
332.474
307.059
279.07
248.897
216.963
183.735
149.641
115.108
80.4991
46.3427
13.3254
-19.1132
-50.5237
-80.6393
-109.274
-136.288
-161.591
-185.116
-206.84
-226.756
-244.875
-261.223
-275.837
-288.752
-300.01
-309.653
-317.717
-324.236
-329.235
-332.733
-334.699
-335.169
-334.169
-331.631
-327.551
-321.896
-314.625
-305.717
-295.137
-282.834
-268.786
-252.976
-235.394
-216.053
-194.951
-172.127
-147.662
-121.616
-94.0815
-65.2051
-35.1293
-4.01218
28.0913
60.8758
93.9733
127.06
159.886
192.133
223.467
253.52
281.924
308.3
332.276
353.509
371.678
386.504
397.751
405.234
408.815
408.382
403.989
395.68
383.479
367.564
348.137
325.446
299.789
271.509
240.989
208.643
174.907
140.231
105.063
69.8458
34.9967
0.881493
-32.1628
-63.8526
-93.9571
-122.301
-148.757
-173.243
-195.714
-216.159
-234.593
-251.048
-265.576
-278.232
-289.085
-298.202
-305.652
-311.505
-315.837
-318.712
-320.168
-320.247
-319.045
-316.574
-312.854
-307.898
-301.704
-294.255
-285.529
-275.496
-264.112
-251.341
-237.14
-221.465
-204.274
-185.531
-165.211
-143.305
-119.82
-94.7915
-68.2808
-40.3843
-11.2408
18.9515
50.6103
82.3664
114.559
146.843
178.864
210.247
240.601
269.524
296.605
321.441
343.638
362.826
378.667
390.869
399.196
403.464
403.531
399.438
391.238
378.995
362.933
343.319
320.476
294.775
266.63
236.476
204.761
171.941
138.457
104.733
71.1664
38.118
5.90512
-25.1973
-54.9612
-83.2053
-109.795
-134.64
-157.683
-178.9
-198.296
-215.898
-231.745
-245.894
-258.404
-269.341
-278.771
-286.759
-293.362
-298.635
-302.63
-305.399
-306.968
-307.342
-306.553
-304.602
-301.47
-297.145
-291.612
-284.847
-276.835
-267.554
-256.978
-245.076
-231.815
-217.163
-201.086
-183.551
-164.537
-144.034
-122.048
-98.6067
-73.7602
-47.5817
-20.1734
8.3342
37.7841
68.0214
98.7151
129.644
160.511
190.981
220.692
249.255
276.264
301.311
323.99
343.914
360.73
374.132
383.861
389.728
391.565
389.368
383.146
372.95
358.946
341.37
320.515
296.73
270.411
241.989
211.915
180.643
148.622
116.272
83.977
52.0822
20.8864
-9.34415
-38.3828
-66.0393
-92.1614
-116.643
-139.419
-160.458
-179.768
-197.383
-213.344
-227.708
-240.534
-251.874
-261.79
-270.332
-277.579
-283.566
-288.317
-291.822
-294.258
-295.625
-295.97
-295.324
-293.692
-291.069
-287.429
-282.765
-277.064
-270.295
-262.436
-253.442
-243.24
-231.757
-218.913
-204.619
-188.787
-171.338
-152.193
-131.314
-108.68
-84.304
-58.281
-30.7358
-2.05827
27.5032
58.1044
89.2819
120.632
151.792
182.324
211.794
239.829
266.022
290.006
311.424
329.957
345.357
357.41
365.963
370.931
372.203
369.743
363.78
354.42
341.836
326.268
307.992
287.335
264.597
240.11
214.22
187.24
159.485
131.234
102.748
74.2791
46.0379
18.2358
-8.8516
-34.9435
-60.5777
-85.3367
-109.086
-131.736
-153.213
-173.447
-192.382
-209.97
-226.163
-240.925
-254.216
-266.008
-276.296
-285.082
-84.0619
-54.8394
-24.1059
7.55858
34.7118
68.759
103.52
138.273
172.619
206.217
238.643
269.475
298.317
324.728
348.302
368.663
385.476
398.496
407.518
412.402
413.003
409.417
401.751
390.018
374.437
355.259
332.773
307.304
279.258
249.028
217.037
183.754
149.609
115.03
80.3808
46.1931
13.1458
-19.3164
-50.7457
-80.8745
-109.517
-136.535
-161.838
-185.362
-207.08
-226.991
-245.102
-261.443
-276.049
-288.956
-300.208
-309.845
-317.904
-324.418
-329.413
-332.908
-334.873
-335.35
-334.349
-331.814
-327.738
-322.088
-314.823
-305.922
-295.348
-283.051
-269.009
-253.204
-235.625
-216.287
-195.185
-172.359
-147.89
-121.837
-94.2927
-65.4046
-35.3132
-4.17663
27.9487
60.7629
93.8909
127.013
159.878
192.169
223.549
253.652
282.107
308.533
332.559
353.839
372.049
386.911
398.186
405.689
409.29
408.848
404.449
396.122
383.897
367.95
348.482
325.745
300.037
271.702
241.126
208.723
174.93
140.199
104.981
69.7171
34.8292
0.680419
-32.3903
-64.0997
-94.2175
-122.569
-149.028
-173.512
-195.979
-216.417
-234.842
-251.288
-265.806
-278.452
-289.294
-298.401
-305.842
-311.687
-316.01
-318.877
-320.325
-320.402
-319.195
-316.721
-313.001
-308.046
-301.854
-294.409
-285.689
-275.66
-264.284
-251.52
-237.327
-221.659
-204.475
-185.739
-165.424
-143.52
-120.037
-95.0054
-68.4878
-40.5801
-11.4156
18.834
50.4228
82.2465
114.481
146.807
178.872
210.304
240.711
269.688
296.824
321.714
343.963
363.199
379.082
391.319
399.67
403.959
404.021
399.92
391.699
379.427
363.324
343.663
320.765
295.008
266.803
236.589
204.817
171.942
138.408
104.639
71.0326
37.951
5.71109
-25.4121
-55.1908
-83.4446
-110.04
-134.885
-157.925
-179.137
-198.526
-216.119
-231.957
-246.095
-258.595
-269.523
-278.944
-286.924
-293.519
-298.785
-302.776
-305.54
-307.104
-307.479
-306.692
-304.741
-301.611
-297.289
-291.758
-284.997
-276.989
-267.713
-257.141
-245.245
-231.99
-217.344
-201.273
-183.745
-164.735
-144.235
-122.25
-98.8066
-73.9555
-47.7688
-20.3487
8.17512
37.6443
67.9076
98.6304
129.594
160.5
191.014
220.773
249.388
276.45
301.551
324.283
344.257
361.118
374.555
384.312
390.196
392.053
389.837
383.605
373.385
359.347
341.727
320.822
296.982
270.605
242.123
211.99
180.664
148.592
116.197
83.8636
51.9365
20.7142
-9.53768
-38.5929
-66.2608
-92.39
-116.874
-139.649
-160.682
-179.985
-197.591
-213.543
-227.898
-240.715
-252.046
-261.953
-270.485
-277.723
-283.704
-288.46
-291.955
-294.38
-295.743
-296.086
-295.439
-293.808
-291.186
-287.547
-282.886
-277.189
-270.427
-262.575
-253.59
-243.398
-231.927
-219.096
-204.814
-188.994
-171.556
-152.421
-131.549
-108.917
-84.5387
-58.5078
-30.9474
-2.24335
27.342
57.976
89.1937
120.588
151.798
182.381
211.904
239.991
266.236
290.268
311.731
330.303
345.736
357.814
366.382
371.353
372.641
370.153
364.176
354.788
342.169
326.563
308.245
287.544
264.761
240.231
214.3
187.281
159.491
131.209
102.695
74.2028
45.9413
18.1219
-8.97773
-35.0848
-60.7279
-85.4945
-109.25
-131.905
-153.387
-173.624
-192.562
-210.152
-226.347
-241.111
-254.403
-266.195
-276.484
-285.27
-84.4111
-55.162
-24.3766
7.39253
34.4134
68.5772
103.411
138.225
172.632
206.296
238.794
269.704
298.623
325.111
348.757
369.183
386.049
399.11
408.158
413.051
413.67
410.066
402.367
390.596
374.964
355.726
333.172
307.631
279.508
249.201
217.135
183.779
149.566
114.924
80.2226
45.9936
12.906
-19.5876
-51.0419
-81.1884
-109.842
-136.865
-162.169
-185.689
-207.401
-227.303
-245.405
-261.736
-276.332
-289.229
-300.472
-310.101
-318.153
-324.661
-329.65
-333.141
-335.107
-335.591
-334.589
-332.057
-327.987
-322.345
-315.088
-306.195
-295.63
-283.342
-269.306
-253.508
-235.934
-216.598
-195.497
-172.669
-148.194
-122.132
-94.5748
-65.6709
-35.5588
-4.39637
27.7587
60.6121
93.7804
126.951
159.867
192.216
223.658
253.827
282.35
308.844
332.937
354.279
372.545
387.455
398.768
406.297
409.911
409.478
405.067
396.713
384.456
368.464
348.944
326.145
300.369
271.961
241.309
208.829
174.961
140.157
104.871
69.5457
34.606
0.412372
-32.6936
-64.4291
-94.5645
-122.926
-149.389
-173.871
-196.332
-216.761
-235.175
-251.608
-266.112
-278.745
-289.573
-298.666
-306.095
-311.928
-316.24
-319.094
-320.53
-320.606
-319.394
-316.916
-313.196
-308.243
-302.054
-294.614
-285.901
-275.88
-264.512
-251.758
-237.575
-221.917
-204.742
-186.015
-165.707
-143.808
-120.325
-95.2902
-68.7639
-40.8412
-11.6507
18.6539
50.1968
82.0891
114.377
146.759
178.884
210.382
240.858
269.907
297.116
322.079
344.398
363.698
379.638
391.92
400.303
404.61
404.684
400.568
392.316
380.003
363.848
344.122
321.153
295.318
267.034
236.741
204.892
171.944
138.342
104.513
70.8543
37.7283
5.45247
-25.6985
-55.497
-83.7636
-110.365
-135.212
-158.248
-179.453
-198.833
-216.413
-232.238
-246.363
-258.849
-269.765
-279.174
-287.144
-293.728
-298.986
-302.969
-305.728
-307.286
-307.662
-306.876
-304.925
-301.798
-297.48
-291.953
-285.197
-277.194
-267.924
-257.359
-245.47
-232.223
-217.586
-201.523
-184.002
-164.999
-144.502
-122.518
-99.0731
-74.2156
-48.018
-20.5821
7.963
37.4576
67.7565
98.5176
129.526
160.485
191.058
220.881
249.565
276.7
301.873
324.676
344.716
361.635
375.122
384.915
390.821
392.696
390.471
384.22
373.967
359.882
342.205
321.232
297.318
270.863
242.302
212.092
180.691
148.552
116.097
83.7126
51.7422
20.4845
-9.79587
-38.8731
-66.5563
-92.6949
-117.183
-139.955
-160.982
-180.274
-197.869
-213.808
-228.151
-240.956
-252.275
-262.171
-270.691
-277.914
-283.885
-288.651
-292.129
-294.543
-295.9
-296.241
-295.592
-293.961
-291.341
-287.705
-283.047
-277.356
-270.602
-262.761
-253.788
-243.61
-232.154
-219.339
-205.073
-189.269
-171.847
-152.724
-131.862
-109.233
-84.8521
-58.8107
-31.2303
-2.49043
27.1265
57.8041
89.0757
120.53
151.805
182.457
212.049
240.207
266.52
290.618
312.141
330.765
346.241
358.351
366.94
371.917
373.214
370.708
364.705
355.279
342.614
326.956
308.582
287.821
264.98
240.392
214.406
187.336
159.499
131.175
102.625
74.1009
45.8123
17.9699
-9.14594
-35.2735
-60.9282
-85.7048
-109.469
-132.131
-153.618
-173.86
-192.801
-210.394
-226.593
-241.358
-254.652
-266.445
-276.734
-285.52
-84.8485
-55.5673
-24.7199
7.18054
34.0443
68.3532
103.277
138.166
172.649
206.394
238.983
269.988
299.007
325.591
349.326
369.832
386.766
399.878
408.96
413.867
414.497
410.879
403.139
391.318
375.623
356.31
333.671
308.039
279.821
249.418
217.257
183.809
149.511
114.792
80.0239
45.7438
12.6057
-19.9274
-51.4128
-81.5813
-110.249
-137.278
-162.582
-186.098
-207.802
-227.694
-245.784
-262.102
-276.685
-289.57
-300.802
-310.421
-318.464
-324.965
-329.948
-333.433
-335.402
-335.889
-334.889
-332.362
-328.298
-322.665
-315.418
-306.536
-295.983
-283.704
-269.679
-253.889
-236.321
-216.988
-195.887
-173.057
-148.574
-122.501
-94.9279
-66.0044
-35.8664
-4.67178
27.5211
60.4228
93.6414
126.873
159.854
192.275
223.794
254.046
282.653
309.233
333.41
354.829
373.165
388.135
399.496
407.058
410.687
410.266
405.842
397.454
385.155
369.108
349.521
326.645
300.784
272.285
241.539
208.962
174.999
140.104
104.733
69.3307
34.3263
0.0764587
-33.0735
-64.8416
-94.999
-123.373
-149.84
-174.32
-196.773
-217.191
-235.591
-252.008
-266.495
-279.111
-289.921
-298.998
-306.411
-312.229
-316.526
-319.365
-320.797
-320.862
-319.643
-317.161
-313.439
-308.488
-302.303
-294.87
-286.166
-276.154
-264.798
-252.056
-237.885
-222.239
-205.077
-186.36
-166.061
-144.167
-120.685
-95.6467
-69.1098
-41.1687
-11.9473
18.4094
49.9322
81.8943
114.248
146.698
178.899
210.478
241.041
270.18
297.482
322.536
344.941
364.322
380.333
392.672
401.097
405.424
405.512
401.381
393.09
380.726
364.503
344.696
321.637
295.706
267.323
236.93
204.985
171.946
138.26
104.355
70.6307
37.4491
5.12842
-26.0572
-55.8805
-84.163
-110.773
-135.62
-158.652
-179.848
-199.216
-216.781
-232.59
-246.698
-259.168
-270.067
-279.462
-287.418
-293.99
-299.237
-303.211
-305.961
-307.514
-307.89
-307.105
-305.156
-302.033
-297.719
-292.196
-285.446
-277.451
-268.188
-257.631
-245.751
-232.515
-217.888
-201.836
-184.325
-165.329
-144.838
-122.855
-99.4067
-74.5412
-48.33
-20.8742
7.69715
37.2229
67.5676
98.3761
129.442
160.465
191.112
221.016
249.785
277.011
302.276
325.167
345.29
362.283
375.83
385.67
391.605
393.495
391.268
384.99
374.695
360.553
342.802
321.745
297.738
271.186
242.526
212.218
180.725
148.501
115.971
83.523
51.4986
20.1966
-10.1193
-39.224
-66.9263
-93.0766
-117.569
-140.338
-161.356
-180.636
-198.216
-214.14
-228.467
-241.257
-252.563
-262.443
-270.947
-278.155
-284.112
-288.886
-292.343
-294.745
-296.097
-296.434
-295.784
-294.154
-291.536
-287.902
-283.248
-277.565
-270.821
-262.992
-254.034
-243.873
-232.437
-219.643
-205.398
-189.613
-172.211
-153.104
-132.254
-109.63
-85.2447
-59.19
-31.585
-2.79968
26.856
57.5886
88.9275
120.457
151.814
182.551
212.231
240.476
266.875
291.055
312.654
331.343
346.873
359.024
367.639
372.625
373.923
371.407
365.367
355.893
343.171
327.449
309.002
288.168
265.254
240.593
214.538
187.404
159.508
131.133
102.537
73.973
45.6508
17.7796
-9.35659
-35.5096
-61.1789
-85.968
-109.742
-132.413
-153.907
-174.155
-193.101
-210.698
-226.899
-241.667
-254.963
-266.757
-277.047
-285.833
-85.3747
-56.0562
-25.1391
6.91713
33.6098
68.089
103.117
138.095
172.667
206.511
239.209
270.33
299.466
326.166
350.01
370.613
387.626
400.8
409.924
414.85
415.487
411.855
404.066
392.186
376.415
357.011
334.27
308.528
280.196
249.678
217.403
183.845
149.444
114.632
79.784
45.4435
12.2446
-20.336
-51.8588
-82.0537
-110.737
-137.774
-163.079
-186.59
-208.284
-228.163
-246.239
-262.542
-277.109
-289.98
-301.198
-310.804
-318.838
-325.33
-330.305
-333.784
-335.756
-336.246
-335.248
-332.726
-328.671
-323.05
-315.814
-306.945
-296.406
-284.14
-270.125
-254.346
-236.785
-217.456
-196.356
-173.523
-149.031
-122.944
-95.3522
-66.4052
-36.2362
-5.00334
27.236
60.195
93.474
126.778
159.836
192.345
223.957
254.308
283.017
309.699
333.977
355.49
373.91
388.951
400.37
407.972
411.621
411.21
406.771
398.345
385.995
369.882
350.214
327.246
301.282
272.674
241.813
209.121
175.043
140.039
104.567
69.0714
33.9892
-0.32806
-33.5309
-65.3379
-95.5215
-123.911
-150.382
-174.86
-197.304
-217.708
-236.09
-252.489
-266.955
-279.55
-290.34
-299.396
-306.79
-312.591
-316.87
-319.691
-321.112
-321.167
-319.941
-317.454
-313.732
-308.783
-302.602
-295.178
-286.484
-276.484
-265.141
-252.414
-238.258
-222.627
-205.479
-186.775
-166.487
-144.599
-121.119
-96.0752
-69.526
-41.5631
-12.3068
18.1018
49.6263
81.6619
114.092
146.624
178.916
210.593
241.26
270.508
297.92
323.083
345.594
365.072
381.168
393.576
402.05
406.404
406.504
402.357
394.02
381.593
365.29
345.387
322.219
296.172
267.67
237.157
205.096
171.947
138.16
104.164
70.3612
37.1128
4.73827
-26.4889
-56.3418
-84.6434
-111.263
-136.111
-159.137
-180.323
-199.676
-217.224
-233.013
-247.1
-259.55
-270.43
-279.807
-287.747
-294.305
-299.538
-303.501
-306.241
-307.788
-308.163
-307.379
-305.433
-302.314
-298.006
-292.488
-285.746
-277.758
-268.505
-257.958
-246.089
-232.865
-218.252
-202.212
-184.712
-165.726
-145.24
-123.259
-99.8079
-74.9328
-48.7053
-21.2256
7.37719
36.9395
67.3407
98.2052
129.339
160.441
191.176
221.177
250.05
277.384
302.758
325.756
345.979
363.06
376.681
386.577
392.547
394.453
392.227
385.916
375.571
361.358
343.52
322.361
298.242
271.573
242.794
212.369
180.765
148.439
115.819
83.2945
51.2054
19.8501
-10.5084
-39.646
-67.3713
-93.5354
-118.033
-140.798
-161.806
-181.071
-198.633
-214.537
-228.846
-241.619
-252.907
-262.769
-271.256
-278.445
-284.386
-289.157
-292.598
-294.987
-296.333
-296.666
-296.014
-294.384
-291.769
-288.138
-283.49
-277.816
-271.084
-263.27
-254.33
-244.19
-232.776
-220.007
-205.787
-190.027
-172.647
-153.56
-132.724
-110.105
-85.7168
-59.6462
-32.012
-3.17129
26.5299
57.3287
88.7486
120.368
151.823
182.664
212.449
240.799
267.301
291.579
313.269
332.037
347.632
359.833
368.479
373.477
374.772
372.245
366.16
356.63
343.84
328.039
309.508
288.584
265.582
240.834
214.696
187.486
159.519
131.081
102.431
73.8189
45.4566
17.5509
-9.61001
-35.7932
-61.4801
-86.2841
-110.071
-132.752
-154.255
-174.509
-193.461
-211.062
-227.267
-242.038
-255.336
-267.132
-277.422
-286.209
-85.9902
-56.6301
-25.6381
6.59176
33.1198
67.787
102.931
138.011
172.688
206.647
239.471
270.727
300.003
326.838
350.808
371.524
388.632
401.878
411.051
416.001
416.644
412.992
405.149
393.2
377.339
357.83
334.969
309.099
280.634
249.98
217.572
183.886
149.365
114.443
79.5022
45.0922
11.8223
-20.8139
-52.3804
-82.6059
-111.308
-138.354
-163.659
-187.163
-208.847
-228.711
-246.77
-263.055
-277.604
-290.457
-301.659
-311.252
-319.273
-325.756
-330.722
-334.195
-336.168
-336.661
-335.667
-333.152
-329.107
-323.498
-316.277
-307.423
-296.9
-284.648
-270.647
-254.88
-237.327
-218.003
-196.903
-174.067
-149.565
-123.461
-95.848
-66.8739
-36.6686
-5.39169
26.903
59.9285
93.2779
126.666
159.814
192.425
224.145
254.613
283.441
310.243
334.638
356.261
374.779
389.905
401.391
409.04
412.713
412.312
407.855
399.386
386.976
370.786
351.024
327.947
301.863
273.128
242.133
209.305
175.095
139.962
104.371
68.7672
33.5938
-0.802096
-34.0663
-65.9188
-96.1329
-124.539
-151.017
-175.49
-197.924
-218.311
-236.674
-253.05
-267.491
-280.062
-290.829
-299.861
-307.233
-313.013
-317.271
-320.073
-321.475
-321.523
-320.288
-317.797
-314.073
-309.126
-302.952
-295.538
-286.855
-276.868
-265.542
-252.831
-238.692
-223.079
-205.949
-187.26
-166.984
-145.104
-121.626
-96.5764
-70.0129
-42.0249
-12.7301
17.732
49.2771
81.3917
113.909
146.537
178.934
210.726
241.515
270.89
298.431
323.722
346.356
365.948
382.143
394.633
403.165
407.551
407.662
403.495
395.108
382.607
366.209
346.192
322.897
296.715
268.073
237.421
205.224
171.947
138.041
103.94
70.0449
36.7188
4.28121
-26.9943
-56.8817
-85.2054
-111.836
-136.686
-159.705
-180.878
-200.213
-217.741
-233.507
-247.57
-259.997
-270.854
-280.21
-288.131
-294.672
-299.89
-303.839
-306.568
-308.109
-308.483
-307.7
-305.757
-302.643
-298.34
-292.83
-286.096
-278.118
-268.875
-258.34
-246.484
-233.274
-218.676
-202.651
-185.165
-166.189
-145.711
-123.732
-100.277
-75.3906
-49.1443
-21.6366
7.00282
36.6077
67.0746
98.0042
129.218
160.412
191.249
221.363
250.358
277.818
303.321
326.444
346.784
363.969
377.676
387.637
393.649
395.574
393.344
386.998
376.594
362.299
344.359
323.08
298.831
272.025
243.106
212.544
180.81
148.365
115.641
83.0264
50.8619
19.4444
-10.9636
-40.1395
-67.8918
-94.0717
-118.575
-141.336
-162.332
-181.578
-199.119
-215.002
-229.289
-242.041
-253.309
-263.15
-271.617
-278.784
-284.706
-289.464
-292.892
-295.27
-296.608
-296.937
-296.282
-294.653
-292.04
-288.413
-283.772
-278.108
-271.39
-263.594
-254.675
-244.559
-233.172
-220.431
-206.24
-190.51
-173.157
-154.092
-133.274
-110.662
-86.2692
-60.1798
-32.512
-3.60557
26.1472
57.0237
88.5385
120.264
151.834
182.796
212.702
241.176
267.799
292.192
313.988
332.847
348.519
360.778
369.461
374.474
375.765
373.222
367.087
357.491
344.621
328.729
310.097
289.069
265.963
241.114
214.879
187.579
159.531
131.02
102.306
73.6382
45.2293
17.2835
-9.90674
-36.1244
-61.8318
-86.6532
-110.455
-133.148
-154.66
-174.922
-193.88
-211.487
-227.697
-242.472
-255.772
-267.57
-277.86
-286.647
-86.6958
-57.2902
-26.221
6.18431
32.5934
67.4499
102.72
137.914
172.709
206.799
239.769
271.18
300.615
327.606
351.72
372.566
389.782
403.112
412.342
417.32
417.969
414.291
406.388
394.36
378.397
358.766
335.769
309.752
281.133
250.324
217.764
183.931
149.272
114.225
79.1775
44.6896
11.3382
-21.3618
-52.9782
-83.2385
-111.962
-139.018
-164.323
-187.82
-209.49
-229.337
-247.377
-263.641
-278.169
-291.002
-302.187
-311.763
-319.771
-326.242
-331.199
-334.665
-336.639
-337.134
-336.145
-333.638
-329.605
-324.011
-316.806
-307.97
-297.464
-285.229
-271.244
-255.49
-237.947
-218.628
-197.53
-174.689
-150.176
-124.053
-96.4157
-67.4109
-37.164
-5.8376
26.5219
59.6233
93.0529
126.537
159.788
192.515
224.36
254.961
283.924
310.865
335.393
357.143
375.774
390.997
402.559
410.263
413.965
413.572
409.095
400.577
388.099
371.82
351.95
328.749
302.528
273.646
242.498
209.515
175.152
139.873
104.145
68.4185
33.1382
-1.34653
-34.6808
-66.5848
-96.8337
-125.259
-151.743
-176.212
-198.633
-219.002
-237.341
-253.691
-268.105
-280.649
-291.387
-300.393
-307.74
-313.495
-317.73
-320.51
-321.892
-321.93
-320.685
-318.188
-314.463
-309.518
-303.351
-295.948
-287.279
-277.309
-266
-253.308
-239.189
-223.597
-206.486
-187.815
-167.553
-145.682
-122.206
-97.1505
-70.5713
-42.555
-13.2179
17.3005
48.883
81.0831
113.698
146.436
178.954
210.876
241.805
271.326
299.015
324.453
347.228
366.949
383.259
395.842
404.441
408.865
408.988
404.798
396.353
383.768
367.26
347.114
323.673
297.336
268.533
237.721
205.369
171.944
137.903
103.681
69.6812
36.266
3.75653
-27.574
-57.5007
-85.8494
-112.492
-137.343
-160.355
-181.513
-200.828
-218.332
-234.072
-248.108
-260.508
-271.338
-280.671
-288.571
-295.091
-300.292
-304.225
-306.941
-308.475
-308.847
-308.066
-306.126
-303.019
-298.723
-293.221
-286.497
-278.529
-269.298
-258.776
-246.935
-233.742
-219.16
-203.153
-185.683
-166.72
-146.25
-124.274
-100.814
-75.9153
-49.6475
-22.1079
6.57365
36.231
66.7646
97.7724
129.078
160.376
191.331
221.574
250.708
278.314
303.963
327.23
347.704
365.009
378.815
388.851
394.911
396.857
394.623
388.237
377.765
363.376
345.318
323.903
299.504
272.541
243.462
212.742
180.86
148.278
115.434
82.718
50.4676
18.9793
-11.4854
-40.7049
-68.4882
-94.6863
-119.196
-141.952
-162.933
-182.159
-199.675
-215.532
-229.795
-242.523
-253.768
-263.586
-272.029
-279.172
-285.071
-289.811
-293.227
-295.592
-296.921
-297.246
-296.589
-294.96
-292.35
-288.728
-284.094
-278.442
-271.74
-263.964
-255.069
-244.981
-233.624
-220.916
-206.759
-191.062
-173.74
-154.702
-133.904
-111.299
-86.9024
-60.7912
-33.0852
-4.10327
25.7068
56.6729
88.2966
120.143
151.844
182.945
212.991
241.606
268.368
292.892
314.81
333.775
349.534
361.859
370.586
375.616
376.901
374.337
368.146
358.475
345.514
329.517
310.771
289.624
266.399
241.433
215.088
187.685
159.543
130.949
102.162
73.4304
44.9687
16.9773
-10.247
-36.5035
-62.2342
-87.0755
-110.894
-133.6
-155.124
-175.395
-194.36
-211.973
-228.188
-242.967
-256.271
-268.07
-278.361
-287.148
-87.4921
-58.0377
-26.8911
5.67044
32.0531
67.0802
102.485
137.805
172.731
206.968
240.102
271.689
301.304
328.47
352.748
373.741
391.079
404.503
413.797
418.808
419.461
415.753
407.784
395.666
379.587
359.82
336.669
310.485
281.694
250.711
217.979
183.98
149.165
113.977
78.8084
44.2355
10.7919
-21.9804
-53.6527
-83.9521
-112.7
-139.766
-165.071
-188.559
-210.215
-230.042
-248.059
-264.3
-278.805
-291.616
-302.78
-312.338
-320.331
-326.789
-331.736
-335.195
-337.168
-337.666
-336.683
-334.184
-330.165
-324.587
-317.4
-308.584
-298.098
-285.883
-271.915
-256.177
-238.645
-219.332
-198.235
-175.391
-150.865
-124.719
-97.0556
-68.0164
-37.7228
-6.34229
26.0921
59.2797
92.7984
126.39
159.756
192.615
224.599
255.35
284.468
311.564
336.243
358.135
376.895
392.227
403.876
411.641
415.377
414.991
410.491
401.92
389.364
372.985
352.993
329.651
303.276
274.228
242.908
209.75
175.214
139.77
103.888
68.0241
32.6215
-1.96226
-35.3753
-67.3372
-97.6246
-126.072
-152.562
-177.026
-199.433
-219.78
-238.093
-254.414
-268.797
-281.309
-292.016
-300.992
-308.309
-314.038
-318.246
-321.002
-322.361
-322.388
-321.132
-318.628
-314.901
-309.96
-303.801
-296.41
-287.755
-277.804
-266.515
-253.845
-239.749
-224.18
-207.091
-188.44
-168.194
-146.334
-122.86
-97.7983
-71.2014
-43.1541
-13.7709
16.8079
48.4417
80.7354
113.46
146.32
178.974
211.044
242.13
271.815
299.671
325.274
348.208
368.077
384.516
397.205
405.881
410.348
410.483
406.266
397.756
385.077
368.445
348.152
324.547
298.034
269.05
238.057
205.53
171.94
137.746
103.387
69.2691
35.7537
3.16349
-28.2289
-58.1995
-86.5761
-113.232
-138.085
-161.087
-182.228
-201.521
-218.998
-234.709
-248.713
-261.082
-271.884
-281.19
-289.065
-295.564
-300.744
-304.66
-307.361
-308.887
-309.257
-308.477
-306.542
-303.442
-299.154
-293.661
-286.948
-278.992
-269.774
-259.267
-247.443
-234.269
-219.706
-203.718
-186.266
-167.318
-146.857
-124.885
-101.42
-76.5074
-50.215
-22.64
6.08917
35.8103
66.4085
97.5093
128.918
160.334
191.421
221.81
251.101
278.871
304.686
328.115
348.741
366.18
380.099
390.219
396.334
398.305
396.064
389.634
379.086
364.591
346.399
324.83