/*--------------------------------*- C++ -*----------------------------------*\
| =========                 |                                                 |
| \\      /  F ield         | OpenFOAM: The Open Source CFD Toolbox           |
|  \\    /   O peration     | Version:  3.0.1                                 |
|   \\  /    A nd           | Web:      www.OpenFOAM.org                      |
|    \\/     M anipulation  |                                                 |
\*---------------------------------------------------------------------------*/
FoamFile
{
    version     2.0;
    format      ascii;
    class       surfaceScalarField;
    location    "75.8";
    object      phi;
}
// * * * * * * * * * * * * * * * * * * * * * * * * * * * * * * * * * * * * * //

dimensions      [0 3 -1 0 0 0 0];

internalField   nonuniform List<scalar> 
42423
(
1.83814e-06
6.32139e-06
-3.98998e-06
5.82811e-06
-8.93931e-06
4.94932e-06
-1.29934e-05
4.05412e-06
-1.61676e-05
3.17416e-06
-1.85014e-05
2.33382e-06
-2.00413e-05
1.53989e-06
-2.08351e-05
7.93752e-07
-2.09283e-05
9.32597e-08
-2.03187e-05
-6.09654e-07
-1.90915e-05
-1.22719e-06
-1.73873e-05
-1.70417e-06
-1.5097e-05
-2.29038e-06
-1.23591e-05
-2.73789e-06
-9.14282e-06
-3.21626e-06
-5.45676e-06
-3.68607e-06
-1.4635e-06
-3.99326e-06
3.01208e-06
-4.4756e-06
8.03114e-06
-5.01907e-06
1.34056e-05
-5.3745e-06
1.94071e-05
-6.0015e-06
2.60577e-05
-6.65061e-06
3.31629e-05
-7.10517e-06
4.09839e-05
-7.82107e-06
4.94801e-05
-8.49617e-06
5.87527e-05
-9.27272e-06
6.89172e-05
-1.01645e-05
7.96609e-05
-1.07437e-05
9.12891e-05
-1.16283e-05
0.000103887
-1.25976e-05
0.000117062
-1.31755e-05
0.000131093
-1.40306e-05
0.000145827
-1.47345e-05
0.000161342
-1.55154e-05
0.000177613
-1.62711e-05
0.000194188
-1.65747e-05
0.000211156
-1.6968e-05
0.000228505
-1.73491e-05
0.000245764
-1.72588e-05
0.000262913
-1.71499e-05
0.000279763
-1.685e-05
0.000296049
-1.62853e-05
0.000311638
-1.5589e-05
0.000326164
-1.45263e-05
0.000339404
-1.32398e-05
0.000351268
-1.18641e-05
0.00036142
-1.01529e-05
0.000369692
-8.27136e-06
0.000376052
-6.3608e-06
0.000380257
-4.20483e-06
0.000382259
-2.00199e-06
0.000382031
2.28044e-07
0.00037957
2.46091e-06
0.00037507
4.5003e-06
0.000368394
6.67525e-06
0.000359726
8.66854e-06
0.000349312
1.0414e-05
0.000337101
1.22106e-05
0.000323419
1.36821e-05
0.000308436
1.49833e-05
0.000292427
1.60082e-05
0.000275654
1.67737e-05
0.000258256
1.73973e-05
0.000240536
1.77203e-05
0.000222702
1.78342e-05
0.000204875
1.78268e-05
0.000187255
1.76197e-05
0.000169941
1.73141e-05
0.000153009
1.69326e-05
0.000136455
1.65534e-05
0.000120234
1.62213e-05
0.000104351
1.58825e-05
8.88598e-05
1.54916e-05
7.37843e-05
1.50755e-05
5.9237e-05
1.45473e-05
4.53839e-05
1.38531e-05
3.22203e-05
1.31636e-05
2.00592e-05
1.21611e-05
9.09159e-06
1.09676e-05
-2.1046e-07
9.30205e-06
-8.58379e-06
8.37334e-06
-1.57552e-05
7.17143e-06
-2.19727e-05
6.21746e-06
-2.72042e-05
5.23158e-06
-3.15394e-05
4.33518e-06
-3.50411e-05
3.50174e-06
-3.77987e-05
2.75752e-06
-3.98696e-05
2.07098e-06
-4.12535e-05
1.3839e-06
-4.20262e-05
7.7271e-07
-4.21843e-05
1.58049e-07
-4.17142e-05
-4.70035e-07
-4.0698e-05
-1.01621e-06
-3.91319e-05
-1.56614e-06
-3.70271e-05
-2.10475e-06
-3.44735e-05
-2.5536e-06
-3.14431e-05
-3.03041e-06
-2.79001e-05
-3.54296e-06
-2.38261e-05
-4.07396e-06
-1.94055e-05
-4.42061e-06
-1.45243e-05
-4.88121e-06
-9.20882e-06
-5.31548e-06
-3.43708e-06
-5.77174e-06
2.7134e-06
-6.15048e-06
9.39288e-06
-6.67948e-06
1.65378e-05
-7.14492e-06
2.41895e-05
-7.65167e-06
3.23965e-05
-8.20707e-06
4.11756e-05
-8.77913e-06
5.05186e-05
-9.34301e-06
6.04663e-05
-9.94774e-06
7.09572e-05
-1.04909e-05
8.2032e-05
-1.10749e-05
9.36808e-05
-1.16488e-05
0.000105838
-1.21577e-05
0.00011852
-1.26818e-05
0.000131639
-1.31186e-05
0.000145158
-1.35193e-05
0.000159007
-1.38494e-05
0.00017312
-1.4113e-05
0.000187368
-1.42476e-05
0.00020166
-1.42924e-05
0.000215838
-1.41785e-05
0.000229746
-1.39079e-05
0.000243253
-1.35069e-05
0.000256128
-1.28745e-05
0.000268223
-1.20958e-05
0.00027931
-1.10868e-05
0.000289264
-9.95395e-06
0.000297784
-8.52007e-06
0.000304759
-6.97547e-06
0.000310088
-5.32856e-06
0.000313555
-3.46782e-06
0.000315153
-1.59762e-06
0.000314855
2.97578e-07
0.000312571
2.28393e-06
0.000308339
4.23241e-06
0.000302237
6.10161e-06
0.00029432
7.91734e-06
0.000284825
9.49457e-06
0.000273775
1.10502e-05
0.000261451
1.23232e-05
0.00024805
1.34016e-05
0.000233774
1.4276e-05
0.000218875
1.48987e-05
0.000203563
1.53119e-05
0.000188108
1.54548e-05
0.000172709
1.53992e-05
0.000157543
1.5166e-05
0.000142785
1.47574e-05
0.000128585
1.42006e-05
0.000115073
1.35122e-05
0.000102375
1.26972e-05
9.04016e-05
1.19737e-05
7.9397e-05
1.10046e-05
6.93347e-05
1.00623e-05
6.02349e-05
9.09977e-06
5.21332e-05
8.10169e-06
4.49383e-05
7.19479e-06
3.86504e-05
6.2879e-06
3.31847e-05
5.46574e-06
2.8491e-05
4.69368e-06
2.44365e-05
4.05448e-06
2.1026e-05
3.41041e-06
1.81759e-05
2.8501e-06
1.58403e-05
2.33557e-06
1.39547e-05
1.8856e-06
1.24921e-05
1.46258e-06
1.13805e-05
1.11159e-06
1.05598e-05
8.20692e-07
1.00266e-05
5.33239e-07
9.76721e-06
2.59365e-07
9.73206e-06
3.51368e-08
9.93751e-06
-2.05455e-07
1.03319e-05
-3.94363e-07
1.0889e-05
-5.57106e-07
1.1637e-05
-7.48017e-07
1.25843e-05
-9.47322e-07
1.3768e-05
-1.1837e-06
1.52395e-05
-1.47153e-06
1.703e-05
-1.79053e-06
1.92148e-05
-2.18477e-06
2.18508e-05
-2.63602e-06
2.49526e-05
-3.10179e-06
2.85364e-05
-3.58385e-06
3.26371e-05
-4.1007e-06
3.72765e-05
-4.63943e-06
4.25106e-05
-5.23403e-06
4.83561e-05
-5.84554e-06
5.48846e-05
-6.52856e-06
6.21415e-05
-7.25695e-06
7.02108e-05
-8.06932e-06
7.91242e-05
-8.91341e-06
8.8933e-05
-9.80885e-06
9.97048e-05
-1.07718e-05
0.000111437
-1.17321e-05
0.000124158
-1.27216e-05
0.00013788
-1.37215e-05
0.000152496
-1.46165e-05
0.000167954
-1.54574e-05
0.000184142
-1.61887e-05
0.000200925
-1.67831e-05
0.000218213
-1.7288e-05
0.000235824
-1.76112e-05
0.000253632
-1.78079e-05
0.000271452
-1.78208e-05
0.000289062
-1.761e-05
0.000306225
-1.71629e-05
0.000322638
-1.64133e-05
0.000337995
-1.53574e-05
0.000351982
-1.39871e-05
0.000364339
-1.23572e-05
0.000374734
-1.03949e-05
0.000382937
-8.20339e-06
0.00038876
-5.82285e-06
0.000392045
-3.28509e-06
0.000392759
-7.13712e-07
0.00039092
1.83877e-06
0.000386379
4.54054e-06
0.000379353
7.02569e-06
0.000370008
9.3448e-06
0.000358532
1.14762e-05
0.000345162
1.33701e-05
0.000330167
1.49952e-05
0.000313822
1.6344e-05
0.000296447
1.73754e-05
0.000278379
1.80678e-05
0.000259976
1.84031e-05
0.000241554
1.84222e-05
0.000223393
1.81608e-05
0.000205718
1.76745e-05
0.000188675
1.70433e-05
0.000172361
1.63137e-05
0.000156846
1.55156e-05
0.000142107
1.47385e-05
0.000128128
1.39791e-05
0.000114891
1.32373e-05
0.000102348
1.25425e-05
9.05022e-05
1.18459e-05
7.93945e-05
1.11077e-05
6.90454e-05
1.03492e-05
5.95231e-05
9.52221e-06
5.08468e-05
8.67633e-06
4.30878e-05
7.75894e-06
3.6214e-05
6.87384e-06
3.01676e-05
6.04639e-06
2.48565e-05
5.31111e-06
2.0219e-05
4.63747e-06
1.61687e-05
4.05022e-06
1.26583e-05
3.51048e-06
9.64828e-06
3.00998e-06
7.10501e-06
2.54327e-06
5.03033e-06
2.07468e-06
3.40983e-06
1.62049e-06
2.24727e-06
1.16255e-06
1.55275e-06
6.94522e-07
1.32919e-06
2.23556e-07
1.59542e-06
-2.66237e-07
2.34525e-06
-7.4983e-07
3.5764e-06
-1.23116e-06
5.25642e-06
-1.68003e-06
7.39815e-06
-2.14173e-06
1.00108e-05
-2.61266e-06
1.30409e-05
-3.03011e-06
1.65027e-05
-3.46182e-06
2.05117e-05
-4.00896e-06
2.50222e-05
-4.51056e-06
2.99906e-05
-4.96841e-06
3.54053e-05
-5.41472e-06
4.12438e-05
-5.83852e-06
4.7507e-05
-6.26325e-06
5.421e-05
-6.70301e-06
6.13284e-05
-7.11841e-06
6.89615e-05
-7.63317e-06
7.71629e-05
-8.20136e-06
8.601e-05
-8.84719e-06
9.56131e-05
-9.60317e-06
0.000106147
-1.05339e-05
0.000117747
-1.16002e-05
0.000130764
-1.30171e-05
0.000145079
-1.43152e-05
0.000160615
-1.55363e-05
0.000177385
-1.67697e-05
0.000195269
-1.78837e-05
0.000213983
-1.87145e-05
0.000233462
-1.94793e-05
0.000253303
-1.98415e-05
0.000273229
-1.99255e-05
0.000292892
-1.9663e-05
0.000311806
-1.89148e-05
0.000329776
-1.79697e-05
0.000346438
-1.66618e-05
0.000361374
-1.49364e-05
0.000374488
-1.3114e-05
0.000385473
-1.0985e-05
0.000394149
-8.67696e-06
0.000400406
-6.25636e-06
0.000403698
-3.29208e-06
0.000403805
-1.07431e-07
0.000401583
2.2221e-06
0.000397658
3.9247e-06
0.000392224
5.4338e-06
0.000384913
7.31028e-06
0.000375959
8.95477e-06
0.000365454
1.05042e-05
0.000353423
1.20306e-05
0.000340307
1.31162e-05
0.000326138
1.41694e-05
0.0003113
1.48372e-05
0.000295894
1.54065e-05
0.00028001
1.58841e-05
0.000264022
1.59875e-05
0.000248007
1.60149e-05
0.000232055
1.59522e-05
0.000216459
1.55961e-05
0.000201241
1.52172e-05
0.000186611
1.46301e-05
0.000172595
1.40161e-05
0.000159252
1.33429e-05
0.00014672
1.2532e-05
0.000135001
1.17192e-05
0.000124115
1.08859e-05
0.000114112
1.00035e-05
0.000104956
9.15601e-06
9.66452e-05
8.31036e-06
8.91252e-05
7.51996e-06
8.23447e-05
6.78048e-06
7.62588e-05
6.08594e-06
7.07929e-05
5.46582e-06
6.58807e-05
4.9122e-06
6.14651e-05
4.4156e-06
5.7477e-05
3.98816e-06
5.38606e-05
3.61636e-06
5.05749e-05
3.28568e-06
4.75762e-05
2.99867e-06
4.48476e-05
2.72862e-06
4.23657e-05
2.48195e-06
4.01396e-05
2.22608e-06
3.81861e-05
1.95353e-06
3.65284e-05
1.65763e-06
3.51906e-05
1.33779e-06
3.4205e-05
9.85639e-07
3.36041e-05
6.00869e-07
3.34307e-05
1.73406e-07
3.37657e-05
-3.34967e-07
3.46198e-05
-8.54084e-07
3.60197e-05
-1.39996e-06
3.79804e-05
-1.9607e-06
4.05087e-05
-2.52824e-06
4.36479e-05
-3.13923e-06
4.73761e-05
-3.72821e-06
5.17484e-05
-4.37231e-06
5.67399e-05
-4.99144e-06
6.23208e-05
-5.58095e-06
6.86012e-05
-6.2804e-06
7.5544e-05
-6.94272e-06
-7.58279e-06
1.7993e-06
1.26459e-05
-4.02746e-06
1.16549e-05
-8.97636e-06
9.89822e-06
-1.30293e-05
8.10705e-06
-1.62025e-05
6.34735e-06
-1.85351e-05
4.66638e-06
-2.00741e-05
3.07893e-06
-2.08668e-05
1.5864e-06
-2.09563e-05
1.82811e-07
-2.03438e-05
-1.22222e-06
-1.91136e-05
-2.45735e-06
-1.74109e-05
-3.40689e-06
-1.51193e-05
-4.58199e-06
-1.23781e-05
-5.47916e-06
-9.15954e-06
-6.4348e-06
-5.47503e-06
-7.37061e-06
-1.48354e-06
-7.98478e-06
2.98698e-06
-8.94614e-06
8.0028e-06
-1.00349e-05
1.33734e-05
-1.07452e-05
1.93758e-05
-1.20039e-05
2.60238e-05
-1.32986e-05
3.31244e-05
-1.42059e-05
4.09501e-05
-1.56468e-05
4.9444e-05
-1.69901e-05
5.87097e-05
-1.85385e-05
6.88767e-05
-2.03316e-05
7.96157e-05
-2.14828e-05
9.12459e-05
-2.32585e-05
0.000103842
-2.5194e-05
0.000117016
-2.63494e-05
0.000131058
-2.80728e-05
0.000145794
-2.94705e-05
0.000161309
-3.10306e-05
0.000177586
-3.25483e-05
0.000194167
-3.31561e-05
0.000211142
-3.39426e-05
0.000228497
-3.47044e-05
0.000245763
-3.45247e-05
0.000262929
-3.43164e-05
0.000279778
-3.36995e-05
0.00029607
-3.2577e-05
0.000311686
-3.12058e-05
0.000326226
-2.90657e-05
0.00033947
-2.64842e-05
0.000351344
-2.37386e-05
0.000361505
-2.03146e-05
0.000369786
-1.65516e-05
0.000376155
-1.27306e-05
0.00038036
-8.40951e-06
0.00038237
-4.01237e-06
0.000382146
4.52499e-07
0.000379679
4.92775e-06
0.000375185
8.99374e-06
0.000368513
1.33472e-05
0.000359841
1.73401e-05
0.000349423
2.08325e-05
0.000337205
2.44278e-05
0.000323515
2.73729e-05
0.000308521
2.99772e-05
0.000292501
3.20274e-05
0.000275716
3.35586e-05
0.000258307
3.48064e-05
0.000240576
3.54517e-05
0.000222731
3.56792e-05
0.000204894
3.56638e-05
0.000187266
3.52473e-05
0.000169945
3.46351e-05
0.000153008
3.38704e-05
0.000136455
3.3106e-05
0.000120238
3.24384e-05
0.000104363
3.17576e-05
8.88819e-05
3.09725e-05
7.38187e-05
3.01388e-05
5.92879e-05
2.90781e-05
4.54492e-05
2.76918e-05
3.23022e-05
2.63107e-05
2.01608e-05
2.43024e-05
9.18923e-06
2.19393e-05
-1.59568e-07
1.86509e-05
-8.4452e-06
1.6659e-05
-1.55918e-05
1.4318e-05
-2.17916e-05
1.24173e-05
-2.7005e-05
1.04449e-05
-3.13288e-05
8.659e-06
-3.482e-05
6.99301e-06
-3.75606e-05
5.49809e-06
-3.96212e-05
4.13158e-06
-4.10041e-05
2.76686e-06
-4.17717e-05
1.5403e-06
-4.193e-05
3.16393e-07
-4.14552e-05
-9.44837e-07
-4.0436e-05
-2.0354e-06
-3.88737e-05
-3.12838e-06
-3.68084e-05
-4.17004e-06
-3.42188e-05
-5.14319e-06
-3.11821e-05
-6.06706e-06
-2.76341e-05
-7.09098e-06
-2.36108e-05
-8.09729e-06
-1.91545e-05
-8.87686e-06
-1.42659e-05
-9.76984e-06
-8.95151e-06
-1.06298e-05
-3.21918e-06
-1.15041e-05
2.96596e-06
-1.23356e-05
9.65998e-06
-1.33735e-05
1.67771e-05
-1.4262e-05
2.44332e-05
-1.53078e-05
3.26391e-05
-1.6413e-05
4.14118e-05
-1.75519e-05
5.07377e-05
-1.8669e-05
6.0664e-05
-1.98741e-05
7.11739e-05
-2.10008e-05
8.2253e-05
-2.21541e-05
9.39088e-05
-2.33047e-05
0.000106075
-2.43245e-05
0.000118779
-2.53853e-05
0.000131878
-2.62177e-05
0.00014539
-2.70314e-05
0.000159289
-2.7749e-05
0.000173379
-2.82027e-05
0.000187627
-2.84963e-05
0.000201944
-2.86094e-05
0.000216088
-2.8322e-05
0.000230026
-2.7846e-05
0.00024353
-2.70111e-05
0.000256462
-2.58074e-05
0.000268541
-2.41745e-05
0.00027968
-2.22262e-05
0.000289578
-1.98518e-05
0.000298141
-1.70838e-05
0.000305093
-1.39275e-05
0.0003104
-1.06351e-05
0.000313883
-6.95097e-06
0.000315484
-3.19897e-06
0.000315173
6.07965e-07
0.000312884
4.57271e-06
0.000308672
8.4444e-06
0.0003025
1.22733e-05
0.000294569
1.58487e-05
0.000285031
1.90326e-05
0.000273978
2.21029e-05
0.000261623
2.46782e-05
0.000248195
2.6829e-05
0.000233883
2.85876e-05
0.000218954
2.98277e-05
0.000203621
3.06453e-05
0.000188134
3.09414e-05
0.000172702
3.08316e-05
0.000157511
3.03571e-05
0.000142725
2.95425e-05
0.000128504
2.84216e-05
0.000114965
2.70512e-05
0.000102223
2.54396e-05
9.02627e-05
2.39339e-05
7.92567e-05
2.20106e-05
6.92004e-05
2.01186e-05
6.00649e-05
1.82351e-05
5.19384e-05
1.62282e-05
4.4736e-05
1.43972e-05
3.84671e-05
1.25568e-05
3.29972e-05
1.09355e-05
2.82975e-05
9.39337e-06
2.42439e-05
8.10807e-06
2.0835e-05
6.81932e-06
1.79753e-05
5.70977e-06
1.56406e-05
4.67018e-06
1.376e-05
3.76622e-06
1.22967e-05
2.9259e-06
1.1183e-05
2.22527e-06
1.03742e-05
1.62948e-06
9.85018e-06
1.05722e-06
9.59456e-06
5.14968e-07
9.57049e-06
5.91951e-08
9.78383e-06
-4.18809e-07
1.01799e-05
-7.9041e-07
1.07482e-05
-1.12544e-06
1.14997e-05
-1.49956e-06
1.24534e-05
-1.90096e-06
1.36384e-05
-2.36876e-06
1.51104e-05
-2.94353e-06
1.69077e-05
-3.58785e-06
1.90904e-05
-4.36753e-06
2.17158e-05
-5.26136e-06
2.48195e-05
-6.20555e-06
2.8409e-05
-7.17335e-06
3.25218e-05
-8.21354e-06
3.71555e-05
-9.27315e-06
4.2377e-05
-1.04556e-05
4.82188e-05
-1.16874e-05
5.47499e-05
-1.30596e-05
6.20082e-05
-1.45154e-05
7.00736e-05
-1.61348e-05
7.89835e-05
-1.78234e-05
8.87902e-05
-1.96157e-05
9.95561e-05
-2.15378e-05
0.000111293
-2.34695e-05
0.000124019
-2.54474e-05
0.000137738
-2.7441e-05
0.000152362
-2.92403e-05
0.000167817
-3.09127e-05
0.000184013
-3.23849e-05
0.000200806
-3.35761e-05
0.00021809
-3.45727e-05
0.000235709
-3.52299e-05
0.000253533
-3.56322e-05
0.000271364
-3.56522e-05
0.000288991
-3.52375e-05
0.000306164
-3.43359e-05
0.000322587
-3.28367e-05
0.000337971
-3.07412e-05
0.000351991
-2.80075e-05
0.000364348
-2.47143e-05
0.000374755
-2.08026e-05
0.000382977
-1.64251e-05
0.000388791
-1.16376e-05
0.00039208
-6.57418e-06
0.000392797
-1.43044e-06
0.000390942
3.69363e-06
0.000386395
9.08647e-06
0.000379358
1.40626e-05
0.000370006
1.86966e-05
0.000358533
2.2949e-05
0.000345154
2.67491e-05
0.000330139
3.00103e-05
0.000313776
3.27062e-05
0.000296394
3.47576e-05
0.000278317
3.61443e-05
0.000259893
3.68275e-05
0.000241457
3.68577e-05
0.00022328
3.63376e-05
0.000205588
3.53664e-05
0.000188549
3.40826e-05
0.000172235
3.26275e-05
0.000156714
3.10361e-05
0.000141977
2.94756e-05
0.000128
2.7956e-05
0.000114759
2.64789e-05
0.000102219
2.50816e-05
9.03887e-05
2.36766e-05
7.92747e-05
2.22216e-05
6.89118e-05
2.0712e-05
5.93912e-05
1.90428e-05
5.07257e-05
1.73418e-05
4.2963e-05
1.55216e-05
3.60875e-05
1.37493e-05
3.00466e-05
1.20873e-05
2.47393e-05
1.06184e-05
2.00981e-05
9.27866e-06
1.60475e-05
8.10076e-06
1.25456e-05
7.01234e-06
9.53473e-06
6.02087e-06
6.99647e-06
5.08151e-06
4.92125e-06
4.14989e-06
3.289e-06
3.25273e-06
2.12356e-06
2.32799e-06
1.43397e-06
1.38411e-06
1.21515e-06
4.42368e-07
1.48134e-06
-5.32438e-07
2.22137e-06
-1.48986e-06
3.44819e-06
-2.45799e-06
5.13182e-06
-3.36367e-06
7.2801e-06
-4.29003e-06
9.89063e-06
-5.22321e-06
1.29212e-05
-6.06074e-06
1.63837e-05
-6.92425e-06
2.03771e-05
-8.00242e-06
2.48882e-05
-9.02174e-06
2.98597e-05
-9.93992e-06
3.52798e-05
-1.08348e-05
4.11292e-05
-1.16879e-05
4.73928e-05
-1.25269e-05
5.40921e-05
-1.34024e-05
6.12229e-05
-1.42492e-05
6.8866e-05
-1.52764e-05
7.70634e-05
-1.63989e-05
8.59122e-05
-1.76961e-05
9.55188e-05
-1.92099e-05
0.000106054
-2.1069e-05
0.000117655
-2.32012e-05
0.00013067
-2.60331e-05
0.000144981
-2.86265e-05
0.000160516
-3.10707e-05
0.000177283
-3.35377e-05
0.000195168
-3.57686e-05
0.000213883
-3.743e-05
0.000233364
-3.89606e-05
0.000253212
-3.96897e-05
0.000273147
-3.98605e-05
0.000292818
-3.93349e-05
0.000311742
-3.78386e-05
0.000329716
-3.5944e-05
0.000346361
-3.33074e-05
0.000361275
-2.9851e-05
0.000374383
-2.62218e-05
0.000385342
-2.19445e-05
0.000393964
-1.72988e-05
0.000400229
-1.25218e-05
0.00040353
-6.59321e-06
0.000403621
-1.99063e-07
0.000401485
4.35814e-06
0.000397681
7.72857e-06
0.000392286
1.08284e-05
0.000384978
1.46181e-05
0.00037602
1.79126e-05
0.00036551
2.10136e-05
0.000353473
2.40678e-05
0.000340349
2.62396e-05
0.000326172
2.83464e-05
0.000311327
2.96819e-05
0.000295913
3.08203e-05
0.000280022
3.17754e-05
0.000264027
3.19816e-05
0.000248006
3.2036e-05
0.000232048
3.19101e-05
0.000216447
3.11973e-05
0.000201225
3.0439e-05
0.000186591
2.92642e-05
0.000172571
2.80357e-05
0.000159225
2.66887e-05
0.000146691
2.50662e-05
0.00013497
2.344e-05
0.000124083
2.17725e-05
0.00011408
2.00072e-05
0.000104924
1.83115e-05
9.66147e-05
1.66198e-05
8.90959e-05
1.50388e-05
8.23171e-05
1.35593e-05
7.62323e-05
1.21707e-05
7.0768e-05
1.09301e-05
6.58575e-05
9.82267e-06
6.14409e-05
8.83217e-06
5.74527e-05
7.97639e-06
5.38343e-05
7.23478e-06
5.05459e-05
6.57404e-06
4.75446e-05
5.99998e-06
4.48094e-05
5.46375e-06
4.23314e-05
4.95996e-06
4.01104e-05
4.44716e-06
3.81611e-05
3.90276e-06
3.65044e-05
3.31434e-06
3.51652e-05
2.67704e-06
3.41802e-05
1.97064e-06
3.3579e-05
1.20205e-06
3.34054e-05
3.46962e-07
3.37409e-05
-6.7038e-07
3.4594e-05
-1.70723e-06
3.59929e-05
-2.79888e-06
3.79536e-05
-3.92133e-06
4.04819e-05
-5.05661e-06
4.36203e-05
-6.27759e-06
4.73478e-05
-7.45573e-06
5.17208e-05
-8.74525e-06
5.67123e-05
-9.98293e-06
6.22926e-05
-1.11613e-05
6.85722e-05
-1.256e-05
7.55148e-05
-1.38853e-05
-1.5167e-05
1.72142e-06
1.8977e-05
-4.1025e-06
1.74788e-05
-9.05029e-06
1.4846e-05
-1.31003e-05
1.21571e-05
-1.62711e-05
9.51813e-06
-1.86009e-05
6.99621e-06
-2.01366e-05
4.61455e-06
-2.09261e-05
2.37598e-06
-2.1007e-05
2.63625e-07
-2.03891e-05
-1.84007e-06
-1.91545e-05
-3.69201e-06
-1.74462e-05
-5.11519e-06
-1.51516e-05
-6.87656e-06
-1.24136e-05
-8.21724e-06
-9.19318e-06
-9.6552e-06
-5.51079e-06
-1.1053e-05
-1.52185e-06
-1.19737e-05
2.96284e-06
-1.34309e-05
7.98284e-06
-1.50549e-05
1.33482e-05
-1.61105e-05
1.93488e-05
-1.80045e-05
2.5993e-05
-1.99429e-05
3.30845e-05
-2.12974e-05
4.09021e-05
-2.34645e-05
4.93957e-05
-2.54837e-05
5.8658e-05
-2.78008e-05
6.88227e-05
-3.04963e-05
7.95576e-05
-3.22178e-05
9.11859e-05
-3.48869e-05
0.000103787
-3.77951e-05
0.000116957
-3.95197e-05
0.000130998
-4.21133e-05
0.000145732
-4.42053e-05
0.000161251
-4.65499e-05
0.00017754
-4.88369e-05
0.000194131
-4.97479e-05
0.000211114
-5.09251e-05
0.000228482
-5.20733e-05
0.00024576
-5.18024e-05
0.000262935
-5.14912e-05
0.000279798
-5.05634e-05
0.000296111
-4.88899e-05
0.000311742
-4.68373e-05
0.0003263
-4.3623e-05
0.000339563
-3.97476e-05
0.000351454
-3.563e-05
0.00036163
-3.04905e-05
0.000369921
-2.48428e-05
0.000376298
-1.91079e-05
0.000380506
-1.26178e-05
0.000382537
-6.04308e-06
0.0003823
6.89478e-07
0.00037982
7.40786e-06
0.000375338
1.34748e-05
0.000368665
2.00208e-05
0.000359982
2.60223e-05
0.000349552
3.12625e-05
0.000337321
3.66586e-05
0.000323614
4.10799e-05
0.000308603
4.49883e-05
0.000292566
4.80644e-05
0.000275763
5.03615e-05
0.000258337
5.22325e-05
0.00024059
5.31989e-05
0.000222731
5.3538e-05
0.000204882
5.35134e-05
0.000187244
5.28851e-05
0.000169918
5.19608e-05
0.00015298
5.08089e-05
0.000136434
4.96514e-05
0.00012023
4.86424e-05
0.000104374
4.76134e-05
8.8917e-05
4.64299e-05
7.38839e-05
4.51719e-05
5.93872e-05
4.35748e-05
4.55791e-05
4.15e-05
3.24648e-05
3.9425e-05
2.036e-05
3.64072e-05
9.39706e-06
3.29022e-05
-6.90976e-08
2.8117e-05
-8.18629e-06
2.47762e-05
-1.52938e-05
2.14255e-05
-2.1462e-05
1.85855e-05
-2.66457e-05
1.56287e-05
-3.09393e-05
1.29526e-05
-3.44056e-05
1.04593e-05
-3.71302e-05
8.22269e-06
-3.91756e-05
6.17696e-06
-4.05471e-05
4.13846e-06
-4.13102e-05
2.30336e-06
-4.1471e-05
4.77176e-07
-4.09897e-05
-1.42609e-06
-3.99585e-05
-3.06655e-06
-3.8383e-05
-4.70391e-06
-3.63468e-05
-6.20622e-06
-3.37676e-05
-7.72231e-06
-3.07068e-05
-9.12791e-06
-2.71058e-05
-1.06919e-05
-2.31642e-05
-1.20389e-05
-1.87008e-05
-1.33402e-05
-1.37962e-05
-1.46744e-05
-8.49904e-06
-1.5927e-05
-2.7362e-06
-1.72669e-05
3.46212e-06
-1.85339e-05
1.00738e-05
-1.99852e-05
1.72209e-05
-2.14092e-05
2.48894e-05
-2.29763e-05
3.30718e-05
-2.45954e-05
4.18382e-05
-2.63183e-05
5.11649e-05
-2.79958e-05
6.1095e-05
-2.98042e-05
7.16068e-05
-3.15128e-05
8.2685e-05
-3.32323e-05
9.43252e-05
-3.4945e-05
0.000106495
-3.64945e-05
0.000119146
-3.80358e-05
0.000132297
-3.93693e-05
0.000145796
-4.05308e-05
0.000159661
-4.16137e-05
0.000173781
-4.23229e-05
0.00018804
-4.27561e-05
0.000202329
-4.28978e-05
0.000216511
-4.25048e-05
0.000230484
-4.18185e-05
0.000243973
-4.0501e-05
0.000256892
-3.87263e-05
0.000269024
-3.63066e-05
0.000280144
-3.33465e-05
0.000290071
-2.97788e-05
0.000298623
-2.56361e-05
0.000305649
-2.09532e-05
0.00031092
-1.59067e-05
0.000314413
-1.04441e-05
0.000316014
-4.80025e-06
0.000315681
9.40957e-07
0.000313401
6.85225e-06
0.00030909
1.27553e-05
0.000302916
1.84473e-05
0.000294963
2.38019e-05
0.000285367
2.86285e-05
0.000274299
3.31709e-05
0.000261891
3.70855e-05
0.000248408
4.0312e-05
0.000234038
4.29581e-05
0.000219062
4.48028e-05
0.000203692
4.60161e-05
0.000188145
4.64876e-05
0.00017266
4.63168e-05
0.000157427
4.55895e-05
0.000142598
4.43715e-05
0.000128335
4.26845e-05
0.000114757
4.06298e-05
0.000101976
3.82201e-05
8.99931e-05
3.5917e-05
7.89761e-05
3.30276e-05
6.88253e-05
3.02694e-05
5.97233e-05
2.73371e-05
5.15485e-05
2.4403e-05
4.43928e-05
2.15529e-05
3.80904e-05
1.88591e-05
3.26043e-05
1.64216e-05
2.79147e-05
1.4083e-05
2.38639e-05
1.21588e-05
2.04686e-05
1.02146e-05
1.76216e-05
8.55675e-06
1.52886e-05
7.00315e-06
1.34139e-05
5.64086e-06
1.19614e-05
4.37845e-06
1.08524e-05
3.33421e-06
1.00459e-05
2.43598e-06
9.52618e-06
1.5769e-06
9.27858e-06
7.62549e-07
9.26488e-06
7.28825e-08
9.49931e-06
-6.53243e-07
9.90966e-06
-1.20078e-06
1.04902e-05
-1.70596e-06
1.12428e-05
-2.25222e-06
1.21974e-05
-2.85558e-06
1.33911e-05
-3.56243e-06
1.48605e-05
-4.41298e-06
1.66563e-05
-5.38367e-06
1.88383e-05
-6.54947e-06
2.14629e-05
-7.88601e-06
2.45624e-05
-9.30508e-06
2.81534e-05
-1.07644e-05
3.22724e-05
-1.23325e-05
3.6908e-05
-1.39088e-05
4.21299e-05
-1.56775e-05
4.79665e-05
-1.75241e-05
5.44953e-05
-1.95884e-05
6.17552e-05
-2.17754e-05
6.98209e-05
-2.42006e-05
7.87247e-05
-2.67272e-05
8.85212e-05
-2.94123e-05
9.92826e-05
-3.22993e-05
0.000111016
-3.52034e-05
0.000123746
-3.81771e-05
0.000137465
-4.11607e-05
0.000152091
-4.38658e-05
0.000167557
-4.63787e-05
0.000183759
-4.85879e-05
0.000200556
-5.03729e-05
0.00021785
-5.18668e-05
0.000235477
-5.28575e-05
0.000253319
-5.34744e-05
0.000271175
-5.35086e-05
0.000288827
-5.28899e-05
0.000306028
-5.15366e-05
0.000322484
-4.92935e-05
0.000337887
-4.6144e-05
0.000351933
-4.20535e-05
0.000364325
-3.71073e-05
0.000374743
-3.12206e-05
0.000382977
-2.46596e-05
0.000388811
-1.74716e-05
0.00039211
-9.87278e-06
0.000392814
-2.13467e-06
0.000390911
5.59635e-06
0.000386365
1.3632e-05
0.000379332
2.10954e-05
0.000369968
2.80601e-05
0.000358472
3.44449e-05
0.000345074
4.01471e-05
0.000330035
4.50488e-05
0.00031364
4.91012e-05
0.00029623
5.21672e-05
0.000278134
5.424e-05
0.000259694
5.52677e-05
0.000241235
5.53171e-05
0.000223034
5.45381e-05
0.000205328
5.30721e-05
0.000188277
5.11342e-05
0.000171962
4.89417e-05
0.000156449
4.65488e-05
0.000141712
4.42131e-05
0.000127734
4.19335e-05
0.0001145
3.97132e-05
0.000101963
3.76182e-05
9.01319e-05
3.55081e-05
7.90242e-05
3.33293e-05
6.86592e-05
3.1077e-05
5.9126e-05
2.85759e-05
5.04567e-05
2.60111e-05
4.27111e-05
2.32671e-05
3.58387e-05
2.06217e-05
2.98051e-05
1.81209e-05
2.4503e-05
1.59205e-05
1.98679e-05
1.39137e-05
1.58137e-05
1.2155e-05
1.23101e-05
1.05159e-05
9.29927e-06
9.03167e-06
6.75956e-06
7.62122e-06
4.68244e-06
6.227e-06
3.05162e-06
4.88354e-06
1.8841e-06
3.49549e-06
1.18902e-06
2.07919e-06
9.68152e-07
6.63225e-07
1.23827e-06
-8.02567e-07
1.98463e-06
-2.23623e-06
3.21244e-06
-3.6858e-06
4.89598e-06
-5.04723e-06
7.05319e-06
-6.44724e-06
9.65739e-06
-7.82743e-06
1.26847e-05
-9.08803e-06
1.61578e-05
-1.03974e-05
2.01528e-05
-1.19975e-05
2.46558e-05
-1.35247e-05
2.9634e-05
-1.49182e-05
3.50636e-05
-1.62644e-05
4.0928e-05
-1.75524e-05
4.72097e-05
-1.88087e-05
5.39215e-05
-2.01142e-05
6.10592e-05
-2.1387e-05
6.87123e-05
-2.29296e-05
7.69235e-05
-2.46102e-05
8.57821e-05
-2.65548e-05
9.53987e-05
-2.88267e-05
0.000105939
-3.16092e-05
0.000117538
-3.48005e-05
0.000130554
-3.90498e-05
0.000144865
-4.29376e-05
0.000160394
-4.65996e-05
0.000177161
-5.03047e-05
0.000195046
-5.36542e-05
0.000213762
-5.61461e-05
0.00023325
-5.84492e-05
0.000253108
-5.95477e-05
0.000273057
-5.98096e-05
0.000292747
-5.90255e-05
0.000311678
-5.67694e-05
0.000329652
-5.39186e-05
0.000346278
-4.99339e-05
0.000361119
-4.46923e-05
0.000374083
-3.91858e-05
0.000384823
-3.26842e-05
0.000393176
-2.56521e-05
0.000399066
-1.84125e-05
0.000402236
-9.763e-06
0.00040274
-7.03979e-07
0.000401238
5.86038e-06
0.000397754
1.12123e-05
0.000392416
1.61665e-05
0.000385107
2.19267e-05
0.000376139
2.68797e-05
0.000365617
3.15358e-05
0.000353565
3.61199e-05
0.000340425
3.93789e-05
0.000326232
4.25396e-05
0.000311371
4.45426e-05
0.000295942
4.62495e-05
0.000280036
4.76812e-05
0.000264028
4.79892e-05
0.000247994
4.80694e-05
0.000232025
4.78793e-05
0.000216414
4.68087e-05
0.000201183
4.56697e-05
0.000186541
4.3906e-05
0.000172515
4.20618e-05
0.000159164
4.00396e-05
0.000146626
3.76041e-05
0.000134903
3.51631e-05
0.000124015
3.26601e-05
0.000114012
3.00103e-05
0.000104858
2.74652e-05
9.65516e-05
2.49263e-05
8.90367e-05
2.25536e-05
8.22623e-05
2.03336e-05
7.61827e-05
1.82503e-05
7.07234e-05
1.63895e-05
6.58179e-05
1.47281e-05
6.14066e-05
1.32435e-05
5.74218e-05
1.19612e-05
5.38076e-05
1.0849e-05
5.05214e-05
9.86025e-06
4.7523e-05
8.99835e-06
4.47903e-05
8.19645e-06
4.23125e-05
7.43776e-06
4.00891e-05
6.67063e-06
3.81354e-05
5.85644e-06
3.6476e-05
4.97377e-06
3.51357e-05
4.01731e-06
3.41468e-05
2.95956e-06
3.35426e-05
1.80626e-06
3.33665e-05
5.23069e-07
3.3699e-05
-1.00294e-06
3.45487e-05
-2.55694e-06
3.59461e-05
-4.19624e-06
3.79055e-05
-5.88072e-06
4.04317e-05
-7.58285e-06
4.35694e-05
-9.41524e-06
4.72965e-05
-1.11828e-05
5.16683e-05
-1.31171e-05
5.66589e-05
-1.49736e-05
6.22381e-05
-1.67405e-05
6.85171e-05
-1.88389e-05
7.54597e-05
-2.08279e-05
-2.27507e-05
1.60649e-06
2.53158e-05
-4.21521e-06
2.33005e-05
-9.1613e-06
1.97921e-05
-1.32069e-05
1.62027e-05
-1.63742e-05
1.26854e-05
-1.87001e-05
9.3221e-06
-2.02313e-05
6.14568e-06
-2.10167e-05
3.16145e-06
-2.10837e-05
3.30598e-07
-2.04567e-05
-2.46709e-06
-1.92157e-05
-4.933e-06
-1.74963e-05
-6.83461e-06
-1.5197e-05
-9.17592e-06
-1.24765e-05
-1.09377e-05
-9.24404e-06
-1.28877e-05
-5.56375e-06
-1.47333e-05
-1.57736e-06
-1.59601e-05
2.92967e-06
-1.79379e-05
7.94829e-06
-2.00736e-05
1.33112e-05
-2.14735e-05
1.93079e-05
-2.40013e-05
2.59421e-05
-2.65771e-05
3.30265e-05
-2.83819e-05
4.08385e-05
-3.12766e-05
4.93215e-05
-3.39667e-05
5.85811e-05
-3.70604e-05
6.87395e-05
-4.06548e-05
7.94693e-05
-4.29477e-05
9.10969e-05
-4.65146e-05
0.000103696
-5.03945e-05
0.000116865
-5.26881e-05
0.000130907
-5.61553e-05
0.00014564
-5.89393e-05
0.000161167
-6.20764e-05
0.000177471
-6.51413e-05
0.00019407
-6.6347e-05
0.000211065
-6.792e-05
0.000228455
-6.94639e-05
0.000245749
-6.9096e-05
0.000262943
-6.86859e-05
0.000279826
-6.74461e-05
0.00029616
-6.5224e-05
0.000311827
-6.2505e-05
0.000326408
-5.82037e-05
0.000339692
-5.30319e-05
0.000351615
-4.75534e-05
0.000361813
-4.06883e-05
0.000370104
-3.31346e-05
0.000376512
-2.55159e-05
0.000380727
-1.68329e-05
0.000382768
-8.08434e-06
0.000382522
9.36318e-07
0.000380037
9.89263e-06
0.000375572
1.79395e-05
0.000368891
2.67014e-05
0.000360187
3.47259e-05
0.000349745
4.17053e-05
0.000337493
4.891e-05
0.000323762
5.4811e-05
0.000308725
6.0025e-05
0.000292662
6.41278e-05
0.000275832
6.71912e-05
0.00025838
6.96843e-05
0.000240609
7.09699e-05
0.00022273
7.14172e-05
0.000204862
7.13814e-05
0.000187209
7.05382e-05
0.000169874
6.92957e-05
0.000152936
6.77474e-05
0.000136402
6.61849e-05
0.000120218
6.48267e-05
0.000104393
6.34386e-05
8.89715e-05
6.18512e-05
7.39826e-05
6.01608e-05
5.95311e-05
5.80264e-05
4.57678e-05
5.52633e-05
3.27062e-05
5.24865e-05
2.06445e-05
4.84689e-05
9.69872e-06
4.3848e-05
2.36285e-07
3.75795e-05
-7.79158e-06
3.28041e-05
-1.48513e-05
2.84852e-05
-2.0971e-05
2.47052e-05
-2.61099e-05
2.07677e-05
-3.03625e-05
1.72052e-05
-3.37908e-05
1.38876e-05
-3.64839e-05
1.09159e-05
-3.85069e-05
8.19996e-06
-3.98666e-05
5.49819e-06
-4.06263e-05
3.06304e-06
-4.07803e-05
6.31234e-07
-4.03046e-05
-1.90183e-06
-3.92918e-05
-4.07934e-06
-3.76927e-05
-6.30299e-06
-3.55982e-05
-8.30068e-06
-3.30447e-05
-1.02758e-05
-2.99724e-05
-1.22002e-05
-2.6472e-05
-1.41923e-05
-2.24589e-05
-1.6052e-05
-1.79803e-05
-1.78189e-05
-1.30912e-05
-1.95634e-05
-7.80866e-06
-2.12096e-05
-2.07533e-06
-2.30002e-05
4.1089e-06
-2.47182e-05
1.07505e-05
-2.66268e-05
1.78952e-05
-2.85539e-05
2.5551e-05
-3.06321e-05
3.373e-05
-3.27744e-05
4.24773e-05
-3.50657e-05
5.18003e-05
-3.73189e-05
6.17214e-05
-3.97254e-05
7.22245e-05
-4.20159e-05
8.33093e-05
-4.43173e-05
9.49532e-05
-4.65889e-05
0.000107114
-4.86551e-05
0.000119757
-5.06792e-05
0.000132884
-5.24967e-05
0.000146446
-5.40925e-05
0.000160281
-5.5449e-05
0.000174387
-5.64293e-05
0.000188652
-5.70208e-05
0.000202944
-5.71906e-05
0.000217166
-5.67273e-05