/*--------------------------------*- C++ -*----------------------------------*\
| =========                 |                                                 |
| \\      /  F ield         | OpenFOAM: The Open Source CFD Toolbox           |
|  \\    /   O peration     | Version:  3.0.1                                 |
|   \\  /    A nd           | Web:      www.OpenFOAM.org                      |
|    \\/     M anipulation  |                                                 |
\*---------------------------------------------------------------------------*/
FoamFile
{
    version     2.0;
    format      ascii;
    class       surfaceScalarField;
    location    "20.6";
    object      alphaPhi;
}
// * * * * * * * * * * * * * * * * * * * * * * * * * * * * * * * * * * * * * //

dimensions      [0 3 -1 0 0 0 0];

internalField   nonuniform List<scalar> 
42423
(
0.000206695
7.17997e-06
0.000197666
9.02872e-06
0.000186499
1.11667e-05
0.000173287
1.32125e-05
0.000158538
1.47491e-05
0.000142259
1.62786e-05
0.000124813
1.74458e-05
0.00010643
1.83827e-05
8.7346e-05
1.90844e-05
6.79634e-05
1.93826e-05
4.84504e-05
1.9513e-05
2.90387e-05
1.94118e-05
1.00801e-05
1.89586e-05
-8.47257e-06
1.85527e-05
-2.62928e-05
1.78203e-05
-4.33294e-05
1.70366e-05
-5.94466e-05
1.61172e-05
-7.45819e-05
1.51354e-05
-8.87117e-05
1.41298e-05
-0.000101779
1.30676e-05
-0.000113795
1.20156e-05
-0.000124773
1.09781e-05
-0.000134708
9.93513e-06
-0.000143649
8.94035e-06
-0.000151625
7.97665e-06
-0.00015866
7.03519e-06
-0.000164809
6.14861e-06
-0.000170096
5.28693e-06
-0.000174558
4.46231e-06
-0.000178231
3.67318e-06
-0.000181147
2.91582e-06
-0.00018332
2.17264e-06
-0.000184786
1.46591e-06
-0.000185555
7.69097e-07
-0.000185648
9.29238e-08
-0.000185004
-6.43614e-07
-0.000183611
-1.39287e-06
-0.000181533
-2.07791e-06
-0.000178685
-2.84818e-06
-0.000175051
-3.63384e-06
-0.000170721
-4.33075e-06
-0.000165487
-5.23324e-06
-0.000159455
-6.0328e-06
-0.000152688
-6.76648e-06
-0.000144943
-7.74539e-06
-0.000136218
-8.72464e-06
-0.000126774
-9.44425e-06
-0.000116213
-1.05605e-05
-0.000104669
-1.15445e-05
-9.23484e-05
-1.23205e-05
-7.89661e-05
-1.33823e-05
-6.47252e-05
-1.42409e-05
-4.94338e-05
-1.52915e-05
-3.33624e-05
-1.60714e-05
-1.67281e-05
-1.66344e-05
7.43486e-07
-1.74716e-05
1.87232e-05
-1.79797e-05
3.6909e-05
-1.81858e-05
5.53149e-05
-1.84059e-05
7.36604e-05
-1.83455e-05
9.18211e-05
-1.81608e-05
0.000109633
-1.78122e-05
0.000126723
-1.70901e-05
0.000142918
-1.6195e-05
0.000158121
-1.52028e-05
0.000171908
-1.37866e-05
0.000184203
-1.22952e-05
0.000194773
-1.05702e-05
0.00020341
-8.63712e-06
0.000210059
-6.64882e-06
0.000214511
-4.45248e-06
0.000216698
-2.18681e-06
0.000216561
1.37682e-07
0.000214033
2.52785e-06
0.00020919
4.84291e-06
0.000202009
7.18121e-06
0.000192657
9.35188e-06
0.000181121
1.15357e-05
0.000167762
1.3359e-05
0.000152745
1.50173e-05
0.000136205
1.65399e-05
0.00011851
1.7695e-05
9.99526e-05
1.85576e-05
8.0714e-05
1.92386e-05
6.09853e-05
1.97288e-05
4.11968e-05
1.97886e-05
2.13409e-05
1.98559e-05
1.95253e-06
1.93884e-05
-1.69985e-05
1.8951e-05
-3.52905e-05
1.8292e-05
-5.27925e-05
1.75021e-05
-6.93527e-05
1.65602e-05
-8.47976e-05
1.54449e-05
-9.9088e-05
1.42904e-05
-0.000112181
1.30933e-05
-0.000124028
1.18464e-05
-0.000134742
1.07142e-05
-0.00014413
9.38857e-06
-0.000152363
8.23215e-06
-0.00015957
7.20774e-06
-0.000165574
6.00381e-06
-0.000170512
4.93836e-06
-0.000174687
4.17408e-06
-0.000177859
3.17236e-06
-0.000180213
2.35383e-06
-0.000181927
1.71453e-06
-0.000182929
1.00196e-06
-0.00018333
4.01342e-07
-0.000183129
-2.01657e-07
-0.000182283
-8.46117e-07
-0.000180857
-1.42549e-06
-0.000178812
-2.0448e-06
-0.000176161
-2.65115e-06
-0.000172879
-3.28253e-06
-0.000168966
-3.91238e-06
-0.000164385
-4.58129e-06
-0.000159174
-5.21133e-06
-0.000153212
-5.96174e-06
-0.000146666
-6.54568e-06
-0.000139343
-7.32314e-06
-0.000131253
-8.09063e-06
-0.000122388
-8.86414e-06
-0.000112686
-9.70229e-06
-0.000102125
-1.05615e-05
-9.06449e-05
-1.14797e-05
-7.82957e-05
-1.23493e-05
-6.50123e-05
-1.32835e-05
-5.07888e-05
-1.42235e-05
-3.56542e-05
-1.51347e-05
-1.96952e-05
-1.5959e-05
-2.98686e-06
-1.67084e-05
1.44156e-05
-1.74026e-05
3.23372e-05
-1.79216e-05
5.06107e-05
-1.82736e-05
6.90272e-05
-1.84165e-05
8.73887e-05
-1.83615e-05
0.000105453
-1.80644e-05
0.000122938
-1.74846e-05
0.000139581
-1.6643e-05
0.0001551
-1.55196e-05
0.000169245
-1.41448e-05
0.000181747
-1.25026e-05
0.000192405
-1.06582e-05
0.000200992
-8.58647e-06
0.00020733
-6.33818e-06
0.000211332
-4.002e-06
0.000212945
-1.61315e-06
0.000212204
7.4128e-07
0.000208957
3.24728e-06
0.000203305
5.65212e-06
0.000195357
7.94776e-06
0.000185254
1.01024e-05
0.000173168
1.20867e-05
0.000159318
1.38496e-05
0.000143994
1.53246e-05
0.000127379
1.66147e-05
0.000109779
1.76002e-05
9.14355e-05
1.83432e-05
7.24992e-05
1.89363e-05
5.3482e-05
1.90172e-05
3.44274e-05
1.90547e-05
1.56455e-05
1.87819e-05
-2.6102e-06
1.82557e-05
-2.02532e-05
1.76431e-05
-3.71254e-05
1.68722e-05
-5.30771e-05
1.59516e-05
-6.80634e-05
1.49863e-05
-8.19987e-05
1.39353e-05
-9.48642e-05
1.28655e-05
-0.000106738
1.18743e-05
-0.000117493
1.07541e-05
-0.000127205
9.71239e-06
-0.000136084
8.87867e-06
-0.000143986
7.9021e-06
-0.000150938
6.95249e-06
-0.000156965
6.02697e-06
-0.000162073
5.10802e-06
-0.000166593
4.51947e-06
-0.00017033
3.73777e-06
-0.00017328
2.94918e-06
-0.000175595
2.31514e-06
-0.000177233
1.63805e-06
-0.000178195
9.62234e-07
-0.000178589
3.93786e-07
-0.000178234
-3.55065e-07
-0.000177249
-9.84898e-07
-0.000175582
-1.66639e-06
-0.000173208
-2.37396e-06
-0.000170183
-3.02519e-06
-0.00016644
-3.74315e-06
-0.00016196
-4.47977e-06
-0.000156699
-5.26153e-06
-0.000150647
-6.0513e-06
-0.000143841
-6.80611e-06
-0.000136157
-7.68404e-06
-0.000127663
-8.49478e-06
-0.000118299
-9.36398e-06
-0.000108018
-1.02806e-05
-9.68728e-05
-1.11452e-05
-8.48214e-05
-1.20514e-05
-7.18819e-05
-1.29396e-05
-5.80572e-05
-1.38247e-05
-4.34935e-05
-1.45638e-05
-2.8094e-05
-1.53995e-05
-1.19365e-05
-1.61575e-05
4.78415e-06
-1.67207e-05
2.20628e-05
-1.72787e-05
3.97388e-05
-1.7676e-05
5.76539e-05
-1.79151e-05
7.56275e-05
-1.79737e-05
9.3434e-05
-1.78065e-05
0.000110871
-1.74368e-05
0.000127657
-1.67865e-05
0.000143557
-1.59002e-05
0.000158297
-1.474e-05
0.000171618
-1.33207e-05
0.000183334
-1.17156e-05
0.000193189
-9.85489e-06
0.000200888
-7.69914e-06
0.000206335
-5.44762e-06
0.000209358
-3.02261e-06
0.000209965
-6.06694e-07
0.000208037
1.92724e-06
0.000203548
4.48892e-06
0.000196776
6.77236e-06
0.000187723
9.05335e-06
0.000176509
1.12137e-05
0.000163505
1.30036e-05
0.000148823
1.46823e-05
0.000132934
1.58887e-05
0.000115897
1.70379e-05
9.81645e-05
1.77322e-05
8.00573e-05
1.81072e-05
6.17975e-05
1.82598e-05
4.36024e-05
1.81951e-05
2.57051e-05
1.78973e-05
8.30951e-06
1.73957e-05
-8.40166e-06
1.67112e-05
-2.44174e-05
1.60157e-05
-3.96164e-05
1.5199e-05
-5.39294e-05
1.4313e-05
-6.73846e-05
1.34552e-05
-8.002e-05
1.26355e-05
-9.17905e-05
1.17705e-05
-0.000102629
1.08389e-05
-0.000112693
1.00637e-05
-0.000121861
9.16804e-06
-0.000130398
8.53663e-06
-0.000138169
7.77136e-06
-0.000145131
6.96176e-06
-0.000151464
6.33369e-06
-0.000157223
5.75863e-06
-0.000162287
5.06441e-06
-0.000166536
4.24841e-06
-0.000170074
3.53835e-06
-0.00017304
2.96541e-06
-0.00017518
2.1401e-06
-0.000176589
1.40981e-06
-0.000177316
7.26879e-07
-0.000177213
-1.03471e-07
-0.000176264
-9.49136e-07
-0.000174473
-1.79033e-06
-0.000171773
-2.70021e-06
-0.000168179
-3.59409e-06
-0.000163656
-4.52313e-06
-0.000158153
-5.50245e-06
-0.000151713
-6.44038e-06
-0.000144327
-7.38617e-06
-0.000135889
-8.43771e-06
-0.00012645
-9.4392e-06
-0.000116089
-1.03611e-05
-0.00010479
-1.12983e-05
-9.24146e-05
-1.23759e-05
-7.91509e-05
-1.32637e-05
-6.50359e-05
-1.4115e-05
-5.02042e-05
-1.48317e-05
-3.45052e-05
-1.56991e-05
-1.83453e-05
-1.616e-05
-1.62076e-06
-1.67245e-05
1.56881e-05
-1.73088e-05
3.32459e-05
-1.75579e-05
5.09908e-05
-1.77449e-05
6.87877e-05
-1.77969e-05
8.63658e-05
-1.75782e-05
0.000103628
-1.72625e-05
0.000120424
-1.67956e-05
0.000136401
-1.59775e-05
0.000151494
-1.50932e-05
0.000165451
-1.39568e-05
0.000178166
-1.27153e-05
0.000189432
-1.1266e-05
0.000198944
-9.51192e-06
0.000206642
-7.69797e-06
0.000212439
-5.79649e-06
0.000216077
-3.63818e-06
0.000217433
-1.35668e-06
0.000216689
7.44935e-07
0.00021374
2.94874e-06
0.000208776
4.96418e-06
0.000201656
7.11927e-06
0.000192588
9.06844e-06
0.000181559
1.10285e-05
0.000168657
1.29025e-05
0.000154254
1.44028e-05
0.000138438
1.5816e-05
0.000121392
1.70464e-05
0.000103531
1.78601e-05
8.49602e-05
1.85712e-05
6.606e-05
1.89002e-05
4.70713e-05
1.89887e-05
2.80819e-05
1.89895e-05
9.46386e-06
1.8618e-05
-8.73206e-06
1.81959e-05
-2.62141e-05
1.7482e-05
-4.28361e-05
1.6622e-05
-5.85017e-05
1.56656e-05
-7.30812e-05
1.45795e-05
-8.65424e-05
1.34612e-05
-9.8833e-05
1.22906e-05
-0.000109946
1.11134e-05
-0.000119902
9.95572e-06
-0.00012871
8.80782e-06
-0.000136393
7.68307e-06
-0.000143028
6.63492e-06
-0.000148666
5.63766e-06
-0.000153365
4.69935e-06
-0.000157178
3.81268e-06
-0.00016015
2.97286e-06
-0.000162336
2.18501e-06
-0.000163778
1.44228e-06
-0.000164541
7.63508e-07
-0.000164618
7.68171e-08
-0.00016399
-6.28505e-07
-0.000162681
-1.30909e-06
-0.000160728
-1.95286e-06
-0.000158137
-2.59102e-06
-0.000154954
-3.18305e-06
-0.00015119
-3.76373e-06
-0.00014673
-4.45956e-06
-0.000141638
-5.09276e-06
-0.000135979
-5.65849e-06
-0.000129569
-6.4096e-06
-0.000122537
-7.03249e-06
-0.00011463
-7.90742e-06
-0.000106014
-8.61598e-06
-9.67574e-05
-9.25614e-06
-8.66036e-05
-1.01538e-05
-7.55362e-05
-1.10674e-05
-6.36929e-05
-1.18433e-05
-5.08548e-05
-1.2838e-05
-3.71802e-05
-1.36747e-05
-2.24884e-05
-1.46917e-05
-6.96461e-06
-1.55238e-05
9.29536e-06
-1.626e-05
2.62819e-05
-1.69865e-05
4.3696e-05
-1.74141e-05
-1.78374e-05
0.000206786
1.43612e-05
0.000197755
1.806e-05
0.000186583
2.23385e-05
0.000173363
2.64324e-05
0.000158606
2.95065e-05
0.000142317
3.25677e-05
0.00012486
3.49026e-05
0.000106465
3.67772e-05
8.73669e-05
3.81826e-05
6.79738e-05
3.87756e-05
4.8447e-05
3.90399e-05
2.90354e-05
3.88233e-05
1.00631e-05
3.79308e-05
-8.49688e-06
3.71126e-05
-2.63239e-05
3.56473e-05
-4.33651e-05
3.40777e-05
-5.94852e-05
3.22373e-05
-7.4625e-05
3.02752e-05
-8.87588e-05
2.82635e-05
-0.000101828
2.61366e-05
-0.000113846
2.40336e-05
-0.000124825
2.19577e-05
-0.000134762
1.98716e-05
-0.000143703
1.78814e-05
-0.00015168
1.59541e-05
-0.000158719
1.40739e-05
-0.000164872
1.23015e-05
-0.000170159
1.05742e-05
-0.000174622
8.92475e-06
-0.000178293
7.34468e-06
-0.000181208
5.83069e-06
-0.000183379
4.34318e-06
-0.000184853
2.94061e-06
-0.000185634
1.54966e-06
-0.000185716
1.74812e-07
-0.000185059
-1.30007e-06
-0.000183666
-2.78609e-06
-0.000181583
-4.16067e-06
-0.000178744
-5.68715e-06
-0.000175111
-7.26755e-06
-0.000170782
-8.65939e-06
-0.000165554
-1.04614e-05
-0.000159523
-1.2064e-05
-0.000152752
-1.35372e-05
-0.000145015
-1.54823e-05
-0.000136285
-1.74549e-05
-0.000126838
-1.88908e-05
-0.000116281
-2.11177e-05
-0.000104733
-2.30927e-05
-9.24107e-05
-2.4643e-05
-7.90241e-05
-2.67689e-05
-6.47882e-05
-2.84769e-05
-4.94919e-05
-3.05878e-05
-3.34086e-05
-3.21547e-05
-1.67662e-05
-3.32769e-05
7.06513e-07
-3.49443e-05
1.86955e-05
-3.59688e-05
3.6898e-05
-3.63883e-05
5.53162e-05
-3.68242e-05
7.36649e-05
-3.66943e-05
9.18383e-05
-3.63343e-05
0.000109676
-3.565e-05
0.000126776
-3.41903e-05
0.000142974
-3.23925e-05
0.000158201
-3.04305e-05
0.000172011
-2.75959e-05
0.000184317
-2.46019e-05
0.000194895
-2.11486e-05
0.000203532
-1.72734e-05
0.0002102
-1.33175e-05
0.000214669
-8.9215e-06
0.00021685
-4.36709e-06
0.000216701
2.85934e-07
0.000214171
5.05834e-06
0.000209326
9.6879e-06
0.000202138
1.43688e-05
0.000192777
1.87132e-05
0.000181224
2.30885e-05
0.000167855
2.67286e-05
0.000152826
3.00468e-05
0.000136262
3.31032e-05
0.000118555
3.54025e-05
9.99727e-05
3.71399e-05
8.07068e-05
3.85046e-05
6.09753e-05
3.94604e-05
4.1172e-05
3.95919e-05
2.13166e-05
3.97114e-05
1.90941e-06
3.87957e-05
-1.70423e-05
3.79027e-05
-3.53444e-05
3.65942e-05
-5.28618e-05
3.50195e-05
-6.94345e-05
3.3133e-05
-8.48774e-05
3.08878e-05
-9.91694e-05
2.85824e-05
-0.000112269
2.6193e-05
-0.000124121
2.3698e-05
-0.000134837
2.1431e-05
-0.000144224
1.87753e-05
-0.000152445
1.64528e-05
-0.000159655
1.44185e-05
-0.000165667
1.20152e-05
-0.000170591
9.86291e-06
-0.000174749
8.33239e-06
-0.000177915
6.33839e-06
-0.000180267
4.70548e-06
-0.000181986
3.43318e-06
-0.000182982
1.99815e-06
-0.000183386
8.05171e-07
-0.000183178
-4.09054e-07
-0.00018233
-1.69435e-06
-0.000180915
-2.84054e-06
-0.000178857
-4.10306e-06
-0.000176196
-5.31211e-06
-0.000172915
-6.5628e-06
-0.000169001
-7.82722e-06
-0.000164429
-9.15313e-06
-0.000159222
-1.04177e-05
-0.000153259
-1.19249e-05
-0.0001467
-1.31048e-05
-0.000139372
-1.46516e-05
-0.000131285
-1.61768e-05
-0.000122422
-1.77272e-05
-0.000112718
-1.94066e-05
-0.000102153
-2.11264e-05
-9.06763e-05
-2.29567e-05
-7.83292e-05
-2.46965e-05
-6.50406e-05
-2.6572e-05
-5.08228e-05
-2.84413e-05
-3.56851e-05
-3.02725e-05
-1.97104e-05
-3.19338e-05
-2.99468e-06
-3.34242e-05
1.44118e-05
-3.48091e-05
3.234e-05
-3.58498e-05
5.06281e-05
-3.65618e-05
6.90522e-05
-3.68407e-05
8.74256e-05
-3.6735e-05
0.000105502
-3.61411e-05
0.000122997
-3.4979e-05
0.000139653
-3.32999e-05
0.000155185
-3.10509e-05
0.00016934
-2.83005e-05
0.00018185
-2.5012e-05
0.000192523
-2.13315e-05
0.00020112
-1.71837e-05
0.000207444
-1.26617e-05
0.000211449
-8.00713e-06
0.000213067
-3.23082e-06
0.000212309
1.49873e-06
0.000209056
6.50006e-06
0.0002034
1.13085e-05
0.000195437
1.59103e-05
0.000185331
2.02089e-05
0.000173225
2.41926e-05
0.000159362
2.77126e-05
0.000144033
3.06533e-05
0.000127403
3.32451e-05
0.00010978
3.52232e-05
9.14259e-05
3.66975e-05
7.24735e-05
3.78887e-05
5.34471e-05
3.80437e-05
3.43862e-05
3.81156e-05
1.5592e-05
3.75761e-05
-2.67332e-06
3.65211e-05
-2.03263e-05
3.52961e-05
-3.72061e-05
3.37521e-05
-5.31558e-05
3.19014e-05
-6.81377e-05
2.99682e-05
-8.20728e-05
2.78705e-05
-9.49484e-05
2.57412e-05
-0.000106831
2.3757e-05
-0.00011758
2.15033e-05
-0.000127283
1.94152e-05
-0.000136157
1.77526e-05
-0.000144061
1.58064e-05
-0.000151016
1.39073e-05
-0.000157045
1.2056e-05
-0.000162143
1.02065e-05
-0.000166658
9.03442e-06
-0.000170385
7.46456e-06
-0.000173331
5.89478e-06
-0.00017565
4.63406e-06
-0.000177283
3.27115e-06
-0.000178252
1.93128e-06
-0.000178644
7.85621e-07
-0.000178279
-7.19246e-07
-0.000177285
-1.97969e-06
-0.000175626
-3.32512e-06
-0.000173259
-4.74049e-06
-0.00017023
-6.05412e-06
-0.000166481
-7.4929e-06
-0.000162002
-8.95877e-06
-0.000156737
-1.0526e-05
-0.000150685
-1.21032e-05
-0.000143881
-1.36108e-05
-0.000136198
-1.53668e-05
-0.000127701
-1.6992e-05
-0.000118332
-1.87323e-05
-0.000108055
-2.05581e-05
-9.69148e-05
-2.22854e-05
-8.48588e-05
-2.41074e-05
-7.19169e-05
-2.58815e-05
-5.80891e-05
-2.76526e-05
-4.35083e-05
-2.91446e-05
-2.81125e-05
-3.07954e-05
-1.19561e-05
-3.2314e-05
4.77539e-06
-3.34522e-05
2.20672e-05
-3.45706e-05
3.97532e-05
-3.53621e-05
5.76707e-05
-3.58327e-05
7.56563e-05
-3.59594e-05
9.34838e-05
-3.5634e-05
0.000110922
-3.48751e-05
0.000127715
-3.35799e-05
0.000143634
-3.18191e-05
0.000158392
-2.94977e-05
0.000171719
-2.66477e-05
0.000183443
-2.34401e-05
0.000193305
-1.97171e-05
0.000201002
-1.53953e-05
0.000206455
-1.09014e-05
0.000209472
-6.03906e-06
0.000210079
-1.21407e-06
0.000208138
3.8685e-06
0.000203644
8.9831e-06
0.000196862
1.35543e-05
0.000187786
1.81294e-05
0.000176576
2.24231e-05
0.000163554
2.60262e-05
0.000148857
2.93796e-05
0.000132959
3.17867e-05
0.000115898
3.40981e-05
9.81505e-05
3.54802e-05
8.00298e-05
3.62279e-05
6.17526e-05
3.6537e-05
4.35589e-05
3.63888e-05
2.56545e-05
3.58018e-05
8.24772e-06
3.48025e-05
-8.47473e-06
3.34337e-05
-2.44965e-05
3.20376e-05
-3.969e-05
3.03926e-05
-5.40018e-05
2.86248e-05
-6.74532e-05
2.69067e-05
-8.01164e-05
2.52987e-05
-9.18722e-05
2.35263e-05
-0.000102702
2.16687e-05
-0.000112761
2.0123e-05
-0.000121923
1.833e-05
-0.000130468
1.70813e-05
-0.000138238
1.55413e-05
-0.000145195
1.39186e-05
-0.000151529
1.26678e-05
-0.000157287
1.1517e-05
-0.000162356
1.01335e-05
-0.000166601
8.49378e-06
-0.000170123
7.06032e-06
-0.000173094
5.93567e-06
-0.000175243
4.28948e-06
-0.00017665
2.81722e-06
-0.000177374
1.45019e-06
-0.000177272
-2.05249e-07
-0.000176321
-1.90001e-06
-0.000174532
-3.57893e-06
-0.000171832
-5.39999e-06
-0.000168232
-7.19468e-06
-0.000163706
-9.04846e-06
-0.00015821
-1.09984e-05
-0.00015177
-1.28811e-05
-0.000144377
-1.47792e-05
-0.000135945
-1.68699e-05
-0.000126503
-1.88811e-05
-0.000116137
-2.07265e-05
-0.000104835
-2.26008e-05
-9.24612e-05
-2.47494e-05
-7.9195e-05
-2.65299e-05
-6.50698e-05
-2.82402e-05
-5.02391e-05
-2.96624e-05
-3.45399e-05
-3.13982e-05
-1.83687e-05
-3.23313e-05
-1.63985e-06
-3.34534e-05
1.56705e-05
-3.46192e-05
3.32286e-05
-3.5116e-05
5.09834e-05
-3.54998e-05
6.87882e-05
-3.56017e-05
8.63732e-05
-3.51633e-05
0.000103635
-3.45243e-05
0.000120432
-3.35925e-05
0.000136426
-3.19719e-05
0.000151533
-3.02004e-05
0.000165497
-2.79201e-05
0.000178197
-2.54155e-05
0.000189457
-2.25265e-05
0.000198999
-1.90534e-05
0.000206713
-1.54124e-05
0.00021248
-1.15631e-05
0.0002161
-7.2589e-06
0.000217492
-2.74878e-06
0.000216766
1.47167e-06
0.000213833
5.8813e-06
0.000208883
9.9138e-06
0.000201764
1.42391e-05
0.00019269
1.81417e-05
0.000181655
2.20635e-05
0.000168746
2.58119e-05
0.000154333
2.88154e-05
0.000138507
3.16425e-05
0.000121449
3.4104e-05
0.000103578
3.57315e-05
8.49925e-05
3.71563e-05
6.60808e-05
3.78119e-05
4.70815e-05
3.7988e-05
2.80803e-05
3.79906e-05
9.44725e-06
3.7251e-05
-8.75343e-06
3.63966e-05
-2.62458e-05
3.49744e-05
-4.28744e-05
3.32506e-05
-5.85445e-05
3.13357e-05
-7.31291e-05
2.91642e-05
-8.65953e-05
2.69273e-05
-9.88933e-05
2.45886e-05
-0.000110013
2.22333e-05
-0.000119965
1.9908e-05
-0.000128766
1.76081e-05
-0.000136451
1.53686e-05
-0.000143089
1.32728e-05
-0.000148732
1.12807e-05
-0.000153438
9.40575e-06
-0.000157252
7.62625e-06
-0.000160216
5.93727e-06
-0.000162389
4.35759e-06
-0.000163832
2.88559e-06
-0.000164595
1.52616e-06
-0.00016467
1.51533e-07
-0.000164037
-1.26094e-06
-0.000162728
-2.61842e-06
-0.000160777
-3.90427e-06
-0.000158184
-5.18402e-06
-0.000155
-6.36622e-06
-0.000151236
-7.52809e-06
-0.000146775
-8.92084e-06
-0.000141682
-1.01859e-05
-0.000136025
-1.13151e-05
-0.00012961
-1.28249e-05
-0.000122573
-1.40695e-05
-0.000114672
-1.58077e-05
-0.000106055
-1.72336e-05
-9.6798e-05
-1.85129e-05
-8.66371e-05
-2.03148e-05
-7.55766e-05
-2.2128e-05
-6.37309e-05
-2.3689e-05
-5.08897e-05
-2.56792e-05
-3.72148e-05
-2.73495e-05
-2.2519e-05
-2.93876e-05
-7.00537e-06
-3.10375e-05
9.2682e-06
-3.25336e-05
2.62585e-05
-3.39769e-05
4.3679e-05
-3.48346e-05
-3.56827e-05
0.000206962
2.15522e-05
0.000197918
2.71036e-05
0.000186731
3.35253e-05
0.000173494
3.967e-05
0.000158717
4.42833e-05
0.000142406
4.88785e-05
0.000124928
5.23809e-05
0.000106512
5.5193e-05
8.73903e-05
5.73043e-05
6.79797e-05
5.81862e-05
4.8429e-05
5.85906e-05
2.90276e-05
5.82247e-05
1.00249e-05
5.69335e-05
-8.55448e-06
5.5692e-05
-2.63929e-05
5.34856e-05
-4.3445e-05
5.11298e-05
-5.95715e-05
4.83638e-05
-7.47145e-05
4.54182e-05
-8.88527e-05
4.24017e-05
-0.000101923
3.92072e-05
-0.000113947
3.60569e-05
-0.00012493
3.2941e-05
-0.000134866
2.98075e-05
-0.000143809
2.68241e-05
-0.000151785
2.39311e-05
-0.000158819
2.11073e-05
-0.000164971
1.84537e-05
-0.000170262
1.58654e-05
-0.000174723
1.33855e-05
-0.000178394
1.10158e-05
-0.000181312
8.74823e-06
-0.000183483
6.51509e-06
-0.000184959
4.41573e-06
-0.000185718
2.3086e-06
-0.000185776
2.32818e-07
-0.000185116
-1.95984e-06
-0.000183721
-4.18107e-06
-0.000181637
-6.24409e-06
-0.000178804
-8.52022e-06
-0.00017517
-1.09016e-05
-0.000170845
-1.29847e-05
-0.000165625
-1.56811e-05
-0.000159597
-1.80926e-05
-0.00015282
-2.03143e-05
-0.000145082
-2.32205e-05
-0.000136361
-2.61758e-05
-0.000126912
-2.83392e-05
-0.000116362
-3.16677e-05
-0.000104809
-3.4646e-05
-9.24849e-05
-3.69672e-05
-7.90945e-05
-4.01594e-05
-6.48642e-05
-4.27072e-05
-4.95578e-05
-4.58942e-05
-3.34619e-05
-4.82507e-05
-1.67972e-05
-4.99416e-05
6.70227e-07
-5.24118e-05
1.86631e-05
-5.39617e-05
3.68719e-05
-5.45972e-05
5.53094e-05
-5.52617e-05
7.36785e-05
-5.50634e-05
9.1861e-05
-5.45168e-05
0.000109718
-5.35075e-05
0.000126849
-5.13207e-05
0.000143073
-4.86165e-05
0.000158312
-4.56697e-05
0.000172134
-4.14182e-05
0.000184468
-3.69362e-05
0.000195066
-3.1746e-05
0.000203712
-2.59197e-05
0.000210393
-1.9998e-05
0.000214877
-1.34056e-05
0.000217078
-6.56856e-06
0.000216909
4.55087e-07
0.000214359
7.60833e-06
0.000209512
1.45349e-05
0.000202315
2.15661e-05
0.000192942
2.80864e-05
0.000181375
3.46554e-05
0.00016799
4.01137e-05
0.00015294
4.50967e-05
0.000136351
4.96921e-05
0.000118627
5.31266e-05
0.000100017
5.57503e-05
8.07278e-05
5.77939e-05
6.09859e-05
5.92023e-05
4.11675e-05
5.94103e-05
2.13004e-05
5.95786e-05
1.87774e-06
5.82184e-05
-1.70887e-05
5.68692e-05
-3.54059e-05
5.49114e-05
-5.29216e-05
5.25352e-05
-6.95107e-05
4.9722e-05
-8.49718e-05
4.6349e-05
-9.92656e-05
4.28761e-05
-0.000112371
3.9298e-05
-0.000124227
3.55548e-05
-0.000134949
3.21526e-05
-0.000144335
2.81617e-05
-0.000152553
2.46704e-05
-0.000159776
2.16418e-05
-0.000165792
1.80308e-05
-0.000170699
1.477e-05
-0.000174846
1.2479e-05
-0.000177985
9.4782e-06
-0.000180328
7.04819e-06
-0.00018206
5.1657e-06
-0.000183051
2.98844e-06
-0.000183454
1.20826e-06
-0.000183256
-6.06807e-07
-0.000182393
-2.55751e-06
-0.000180978
-4.25581e-06
-0.00017893
-6.1502e-06
-0.000176271
-7.97155e-06
-0.000172994
-9.83983e-06
-0.000169066
-1.17554e-05
-0.000164498
-1.37204e-05
-0.000159302
-1.56139e-05
-0.000153349
-1.78778e-05
-0.000146779
-1.96756e-05
-0.000139453
-2.19767e-05
-0.000131369
-2.42615e-05
-0.000122502
-2.65944e-05
-0.000112808
-2.90999e-05
-0.000102245
-3.16896e-05
-9.07798e-05
-3.44221e-05
-7.84133e-05
-3.70631e-05
-6.5122e-05
-3.98634e-05
-5.09006e-05
-4.26627e-05
-3.57663e-05
-4.54069e-05
-1.97888e-05
-4.79113e-05
-3.05044e-06
-5.01626e-05
1.43645e-05
-5.22241e-05
3.231e-05
-5.37954e-05
5.06136e-05
-5.48655e-05
6.90588e-05
-5.52859e-05
8.74515e-05
-5.51278e-05
0.000105547
-5.42367e-05
0.000123062
-5.24939e-05
0.000139748
-4.9986e-05
0.000155299
-4.66018e-05
0.000169466
-4.24674e-05
0.000181994
-3.754e-05
0.000192682
-3.202e-05
0.000201296
-2.57978e-05
0.000207637
-1.90022e-05
0.000211638
-1.20081e-05
0.000213265
-4.85824e-06
0.000212486
2.27724e-06
0.000209215
9.77127e-06
0.000203563
1.69603e-05
0.000195577
2.38964e-05
0.000185467
3.03197e-05
0.000173346
3.63136e-05
0.000159472
4.15859e-05
0.000144131
4.59946e-05
0.000127468
4.99077e-05
0.000109814
5.28776e-05
9.14282e-05
5.50833e-05
7.247e-05
5.68469e-05
5.34309e-05
5.70829e-05
3.43572e-05
5.71893e-05
1.5553e-05
5.63804e-05
-2.71095e-06
5.4785e-05
-2.03806e-05
5.29657e-05
-3.72876e-05
5.06591e-05
-5.32542e-05
4.7868e-05
-6.82337e-05
4.49477e-05
-8.21667e-05
4.18035e-05
-9.50398e-05
3.86142e-05
-0.000106928
3.56451e-05
-0.000117674
3.22492e-05
-0.000127365
2.91067e-05
-0.00013624
2.66276e-05
-0.00014415
2.37162e-05
-0.000151105
2.08622e-05
-0.000157143
1.80946e-05
-0.000162227
1.529e-05
-0.000166747
1.3554e-05
-0.000170463
1.11809e-05
-0.000173396
8.82771e-06
-0.000175722
6.95974e-06
-0.000177369
4.91818e-06
-0.000178353
2.9156e-06
-0.000178719
1.15129e-06
-0.000178355
-1.08304e-06
-0.000177358
-2.97609e-06
-0.000175695
-4.98862e-06
-0.000173333
-7.1025e-06
-0.000170307
-9.08013e-06
-0.000166563
-1.12363e-05
-0.000162083
-1.34394e-05
-0.000156825
-1.57836e-05
-0.000150773
-1.81549e-05
-0.000143961
-2.04236e-05
-0.000136284
-2.30432e-05
-0.000127786
-2.54903e-05
-0.000118416
-2.81024e-05
-0.000108132
-3.08422e-05
-9.69948e-05
-3.34223e-05
-8.49426e-05
-3.61596e-05
-7.20008e-05
-3.88234e-05
-5.81891e-05
-4.14642e-05
-4.35868e-05
-4.3747e-05
-2.81762e-05
-4.62061e-05
-1.20099e-05
-4.84803e-05
4.7251e-06
-5.01873e-05
2.20334e-05
-5.1879e-05
3.97385e-05
-5.30673e-05
5.76736e-05
-5.37678e-05
7.56633e-05
-5.39492e-05
9.35083e-05
-5.34791e-05
0.000110974
-5.23413e-05
0.000127793
-5.03985e-05
0.000143724
-4.77501e-05
0.000158494
-4.42679e-05
0.000171838
-3.99917e-05
0.000183593
-3.51948e-05
0.000193471
-2.95954e-05
0.000201182
-2.31059e-05
0.000206652
-1.63719e-05
0.000209676
-9.06292e-06
0.000210286
-1.8237e-06
0.000208307
5.8468e-06
0.000203806
1.34849e-05
0.000197021
2.03384e-05
0.000187925
2.72263e-05
0.000176709
3.36388e-05
0.000163662
3.90728e-05
0.000148939
4.41024e-05
0.000133002
4.77246e-05
0.000115929
5.11707e-05
9.81588e-05
5.32505e-05
8.00216e-05
5.43651e-05
6.17317e-05
5.48269e-05
4.35415e-05
5.45791e-05
2.56234e-05
5.37199e-05
8.19622e-06
5.22297e-05
-8.53662e-06
5.01665e-05
-2.45674e-05
4.80684e-05
-3.97618e-05
4.55869e-05
-5.40786e-05
4.29416e-05
-6.75343e-05
4.03625e-05
-8.02094e-05
3.79738e-05
-9.19551e-05
3.5272e-05
-0.000102779
3.24924e-05
-0.000112837
3.01811e-05
-0.000121989
2.74817e-05
-0.000130545
2.56374e-05
-0.000138326
2.33228e-05
-0.000145283
2.0876e-05
-0.000151608
1.89928e-05
-0.000157353
1.7262e-05
-0.000162421
1.52014e-05
-0.000166675
1.2748e-05
-0.000170198
1.05827e-05
-0.000173179
8.91684e-06
-0.000175326
6.43688e-06
-0.000176742
4.23293e-06
-0.000177464
2.17227e-06
-0.000177359
-3.10106e-07
-0.000176404
-2.8556e-06
-0.00017462
-5.36297e-06
-0.000171922
-8.09773e-06
-0.000168331
-1.07859e-05
-0.000163801
-1.35781e-05
-0.000158301
-1.64985e-05
-0.000151864
-1.93175e-05
-0.000144448
-2.21953e-05
-0.00013604
-2.52779e-05
-0.000126597
-2.8324e-05
-0.000116222
-3.11021e-05
-0.00010491
-3.3913e-05
-9.2535e-05
-3.7124e-05
-7.9267e-05
-3.97979e-05
-6.51364e-05
-4.23708e-05
-5.02992e-05
-4.44997e-05
-3.46017e-05
-4.70958e-05
-1.84094e-05
-4.85236e-05
-1.67622e-06
-5.01866e-05
1.56471e-05
-5.19425e-05
3.32102e-05
-5.26792e-05
5.09685e-05
-5.32581e-05
6.87815e-05
-5.34147e-05
8.63782e-05
-5.276e-05
0.000103655
-5.1801e-05
0.000120458
-5.03961e-05
0.00013645
-4.7964e-05
0.000151568
-4.53184e-05
0.000165539
-4.1891e-05
0.000178243
-3.81195e-05
0.000189492
-3.37751e-05
0.000198999
-2.85612e-05
0.000206706
-2.31189e-05
0.000212482
-1.7339e-05
0.000216071
-1.0848e-05
0.000217474
-4.15181e-06
0.000216817
2.12845e-06
0.000213976
8.7223e-06
0.000209048
1.48413e-05
0.000201925
2.1363e-05
0.00019284
2.72258e-05
0.000181794
3.31098e-05
0.000168875
3.87309e-05
0.000154439
4.32511e-05
0.000138594
4.74875e-05
0.000121517
5.11811e-05
0.000103627
5.36222e-05
8.50173e-05
5.57656e-05
6.60908e-05
5.67384e-05
4.70715e-05
5.70073e-05
2.80522e-05
5.70099e-05
9.3899e-06
5.59134e-05
-8.81524e-06
5.46017e-05
-2.63196e-05
5.24788e-05
-4.29592e-05
4.98901e-05
-5.86412e-05
4.70177e-05
-7.32364e-05
4.37594e-05
-8.67115e-05
4.04025e-05
-9.90105e-05
3.68876e-05
-0.000110123
3.33459e-05
-0.000120076
2.98606e-05
-0.00012888
2.64122e-05
-0.000136566
2.30546e-05
-0.000143201
1.99081e-05
-0.000148837
1.69166e-05
-0.000153534
1.41022e-05
-0.00015734
1.14328e-05
-0.000160309
8.90643e-06
-0.00016248
6.52855e-06
-0.000163922
4.32776e-06
-0.000164671
2.27498e-06
-0.000164726
2.05976e-07
-0.000164087
-1.8998e-06
-0.000162777
-3.92818e-06
-0.000160829
-5.85271e-06
-0.000158229
-7.7835e-06
-0.000155046
-9.54901e-06
-0.000151279
-1.12957e-05
-0.000146823
-1.33768e-05
-0.000141734
-1.52749e-05
-0.000136063
-1.69854e-05
-0.000129653
-1.92349e-05
-0.000122621
-2.11015e-05
-0.000114732
-2.36974e-05
-0.000106111
-2.58544e-05
-9.68557e-05
-2.77682e-05
-8.66939e-05
-3.04766e-05
-7.56421e-05
-3.31798e-05
-6.37949e-05
-3.55363e-05
-5.09514e-05
-3.85227e-05
-3.72787e-05
-4.10222e-05
-2.25772e-05
-4.40891e-05
-7.08539e-06
-4.65293e-05
9.21761e-06
-4.88366e-05
2.62162e-05
-5.09755e-05
4.3647e-05
-5.22655e-05
-5.35418e-05
0.000207226
2.87579e-05
0.000198163
3.61656e-05
0.000186954
4.47349e-05
0.00017369
5.2934e-05
0.000158884
5.90887e-05
0.000142541
6.52221e-05
0.00012503
6.98913e-05
0.000106583
7.36408e-05
8.74259e-05
7.6461e-05
6.79885e-05
7.76236e-05
4.84021e-05
7.8177e-05
2.89963e-05
7.76305e-05
9.96759e-06
7.59622e-05
-8.64272e-06
7.43023e-05
-2.64974e-05
7.13403e-05
-4.35626e-05
6.8195e-05
-5.96996e-05
6.45008e-05
-7.48528e-05
6.05714e-05
-8.90016e-05
5.65505e-05
-0.000102073
5.22789e-05
-0.000114099
4.80827e-05
-0.000125085
4.39273e-05
-0.000135025
3.9747e-05
-0.000143968
3.57669e-05
-0.000151945
3.19081e-05
-0.000158979
2.81415e-05
-0.000165131
2.46058e-05
-0.000170421
2.11557e-05
-0.000174882
1.78462e-05
-0.000178555
1.46891e-05
-0.000181472
1.1665e-05
-0.000183643
8.68649e-06
-0.000185115
5.88767e-06
-0.000185859
3.05277e-06
-0.000185875
2.48422e-07
-0.0001852
-2.63454e-06
-0.000183803
-5.57802e-06
-0.00018172
-8.32744e-06
-0.000178895
-1.13452e-05
-0.00017526
-1.45365e-05
-0.00017094
-1.73053e-05
-0.000165733
-2.08876e-05
-0.000159712
-2.41141e-05
-0.000152922
-2.71041e-05
-0.000145177
-3.09656e-05
-0.000136477
-3.48759e-05
-0.000127024
-3.77919e-05
-0.000116485
-4.22063e-05
-0.000104924
-4.62072e-05
-9.25968e-05
-4.92945e-05
-7.92009e-05
-5.35553e-05
-6.49802e-05
-5.6928e-05
-4.96583e-05
-6.12162e-05
-3.35419e-05
-6.43672e-05
-1.68472e-05
-6.66364e-05
6.08797e-07
-6.98678e-05
1.86135e-05
-7.19664e-05
3.68369e-05
-7.28207e-05
5.52941e-05
-7.37189e-05
7.36847e-05
-7.34541e-05
9.18977e-05
-7.27299e-05
0.000109788
-7.13983e-05
0.000126952
-6.84841e-05
0.000143223
-6.48879e-05
0.000158489
-6.09353e-05
0.000172332
-5.5261e-05
0.000184694
-4.92983e-05
0.000195307
-4.23597e-05
0.000203974
-3.45866e-05
0.000210691
-2.67153e-05
0.000215188
-1.79017e-05
0.000217393
-8.77383e-06
0.000217204
6.44069e-07
0.00021464
1.01724e-05
0.000209789
1.93857e-05
0.000202582
2.87735e-05
0.000193184
3.7484e-05
0.000181595
4.62445e-05
0.000168192
5.35173e-05
0.000153108
6.01799e-05
0.000136485
6.63158e-05
0.000118738
7.08738e-05
0.000100085
7.44027e-05
8.07534e-05
7.71259e-05
6.1e-05
7.89558e-05
4.116e-05
7.92503e-05
2.12688e-05
7.94698e-05
1.80997e-06
7.76773e-05
-1.71628e-05
7.5842e-05
-3.54917e-05
7.32404e-05
-5.30228e-05
7.00664e-05
-6.96323e-05
6.63315e-05
-8.51123e-05
6.1829e-05
-9.94193e-05
5.71831e-05
-0.000112521
5.24002e-05
-0.000124384
4.74169e-05
-0.000135135
4.29046e-05
-0.000144494
3.75205e-05
-0.000152694
3.28701e-05
-0.000159948
2.88955e-05
-0.000165971
2.4054e-05
-0.000170845
1.96444e-05
-0.000174966
1.65996e-05