/*--------------------------------*- C++ -*----------------------------------*\
| =========                 |                                                 |
| \\      /  F ield         | OpenFOAM: The Open Source CFD Toolbox           |
|  \\    /   O peration     | Version:  3.0.1                                 |
|   \\  /    A nd           | Web:      www.OpenFOAM.org                      |
|    \\/     M anipulation  |                                                 |
\*---------------------------------------------------------------------------*/
FoamFile
{
    version     2.0;
    format      ascii;
    class       volScalarField;
    location    "22.4";
    object      p_rgh;
}
// * * * * * * * * * * * * * * * * * * * * * * * * * * * * * * * * * * * * * //

dimensions      [1 -1 -2 0 0 0 0];

internalField   nonuniform List<scalar> 
21420
(
211.179
179.853
147.58
114.738
81.819
49.207
18.7766
-12.2317
-43.0827
-73.0043
-101.651
-128.786
-154.274
-178.025
-199.985
-220.129
-238.45
-254.969
-269.716
-282.725
-294.04
-303.705
-311.761
-318.25
-323.212
-326.681
-328.682
-329.178
-328.201
-325.823
-321.986
-316.672
-309.858
-301.527
-291.633
-280.136
-267.001
-252.184
-235.644
-217.359
-197.302
-175.477
-151.909
-126.619
-99.7033
-71.2946
-41.5287
-10.5974
21.167
53.0264
85.7645
118.714
151.494
183.697
214.924
244.821
273.016
299.136
322.857
343.866
361.882
376.659
387.969
395.646
399.55
399.549
395.706
388.022
376.492
361.276
342.554
320.555
295.572
267.942
238.046
206.297
173.109
138.92
104.157
69.2491
34.4678
-2.01637
-35.9563
-68.5635
-99.682
-129.161
-156.84
-182.606
-206.383
-228.101
-247.738
-265.284
-280.761
-294.203
-305.656
-315.198
-322.899
-328.831
-333.101
-335.809
-337.011
-336.779
-335.209
-332.337
-328.199
-322.808
-316.163
-308.257
-299.059
-288.535
-276.649
-263.362
-248.634
-232.427
-214.705
-195.444
-174.638
-152.289
-128.41
-103.034
-76.2278
-48.072
-18.676
11.815
43.3069
75.3525
107.78
140.281
172.504
204.057
234.532
263.505
290.548
315.245
337.203
356.065
371.511
383.273
391.147
394.977
394.651
390.197
381.694
369.193
352.909
333.082
310.02
284.082
255.663
225.188
193.103
159.864
125.918
91.69
57.5871
23.9705
-8.83993
-40.587
-71.0506
-100.06
-127.486
-153.241
-177.27
-199.542
-220.048
-238.796
-255.8
-271.083
-284.683
-296.626
-306.93
-315.638
-322.778
-328.368
-332.448
-335.04
-336.143
-335.769
-333.977
-330.755
-326.111
-320.037
-312.522
-303.543
-293.08
-281.093
-267.547
-252.414
-235.659
-217.256
-197.189
-175.461
-152.096
-127.134
-100.644
-72.7372
-43.546
-13.2336
18.0003
49.8894
82.1567
114.498
146.574
178.027
208.481
237.55
264.854
290.017
312.684
332.524
349.237
362.567
372.304
378.289
380.387
378.583
372.867
363.346
350.083
333.291
313.191
290.072
264.255
236.089
205.971
174.308
141.515
108.005
74.18
40.4307
7.12091
-25.4258
-56.9183
-87.1112
-115.806
-142.846
-168.126
-191.578
-213.166
-232.888
-250.765
-266.835
-281.151
-293.776
-304.781
-314.222
-322.17
-328.688
-333.815
-337.591
-340.07
-341.241
-341.065
-339.59
-336.777
-332.577
-326.937
-319.812
-311.14
-300.86
-288.912
-275.245
-259.812
-242.584
-223.551
-202.723
-180.139
-155.88
-130.039
-102.743
-74.1739
-44.4914
-13.6896
18.4801
50.9118
83.2567
115.275
146.669
177.111
206.297
233.873
259.518
282.924
303.767
321.783
336.719
348.328
356.428
360.797
361.545
359.538
353.903
344.55
331.696
315.447
295.976
273.468
248.186
220.474
190.659
159.152
126.293
92.5197
58.2957
23.9946
-10.0117
-42.573
-73.6344
-104.025
-133.378
-161.244
-187.342
-211.499
-233.591
-253.56
-271.395
-287.113
-300.765
-312.418
-322.155
-330.071
-336.264
-340.819
-343.78
-345.258
-345.337
-344.033
-341.393
-337.466
-332.283
-325.869
-318.24
-309.387
-299.318
-288.011
-275.458
-261.627
-246.492
-230.037
-212.245
-193.096
-172.585
-150.729
-127.552
-103.12
-77.7179
-51.0541
-23.4169
5.00706
34.0178
63.3025
92.5844
121.485
149.67
176.83
202.481
226.123
211.213
179.869
147.579
114.72
81.7848
49.1595
18.7281
-12.2909
-43.1504
-73.0787
-101.73
-128.868
-154.357
-178.108
-200.066
-220.209
-238.528
-255.044
-269.789
-282.795
-294.107
-303.77
-311.824
-318.311
-323.271
-326.739
-328.737
-329.232
-328.261
-325.883
-322.044
-316.731
-309.919
-301.589
-291.698
-280.203
-267.071
-252.257
-235.718
-217.436
-197.381
-175.557
-151.989
-126.698
-99.7807
-71.3682
-41.5971
-10.6579
21.1139
52.9804
85.7309
118.694
151.489
183.707
214.951
244.865
273.076
299.212
322.949
343.972
362.002
376.789
388.109
395.793
399.707
399.699
395.855
388.168
376.631
361.405
342.671
320.656
295.656
268.008
238.093
206.325
173.119
138.911
104.132
69.2084
34.4118
-2.07784
-36.0276
-68.643
-99.7682
-129.252
-156.935
-182.702
-206.48
-228.198
-247.835
-265.379
-280.854
-294.292
-305.742
-315.281
-322.977
-328.905
-333.172
-335.877
-337.074
-336.838
-335.268
-332.395
-328.256
-322.865
-316.221
-308.316
-299.12
-288.598
-276.714
-263.43
-248.704
-232.499
-214.779
-195.52
-174.715
-152.366
-128.488
-103.111
-76.3035
-48.1449
-18.7449
11.752
43.2516
75.307
107.746
140.261
172.499
204.07
234.562
263.555
290.617
315.332
337.309
356.186
371.645
383.419
391.3
395.14
394.806
390.35
381.841
369.331
353.034
333.191
310.112
284.156
255.717
225.223
193.118
159.86
125.896
91.6534
57.5372
23.9096
-8.90966
-40.6634
-71.1318
-100.144
-127.572
-153.327
-177.356
-199.626
-220.131
-238.877
-255.879
-271.16
-284.758
-296.699
-307.001
-315.708
-322.846
-328.435
-332.514
-335.105
-336.204
-335.832
-334.039
-330.818
-326.173
-320.101
-312.587
-303.609
-293.147
-281.163
-267.619
-252.488
-235.735
-217.334
-197.269
-175.541
-152.176
-127.212
-100.721
-72.8103
-43.614
-13.2951
17.9466
49.8455
82.1242
114.478
146.569
178.037
208.508
237.594
264.915
290.095
312.777
332.633
349.358
362.7
372.445
378.435
380.541
378.729
373.01
363.482
350.211
333.407
313.293
290.157
264.324
236.139
206.003
174.323
141.512
107.986
74.1451
40.3822
7.06059
-25.496
-56.9964
-87.1951
-115.894
-142.937
-168.217
-191.668
-213.255
-232.974
-250.848
-266.915
-281.228
-293.85
-304.852
-314.289
-322.234
-328.749
-333.875
-337.65
-340.128
-341.298
-341.123
-339.649
-336.837
-332.639
-327.002
-319.879
-311.21
-300.933
-288.988
-275.324
-259.893
-242.666
-223.634
-202.806
-180.222
-155.96
-130.116
-102.816
-74.2405
-44.5513
-13.7412
18.4426
50.8857
83.2424
115.273
146.681
177.138
206.339
233.93
259.59
283.011
303.869
321.897
336.844
348.462
356.571
360.951
361.706
359.681
354.041
344.689
331.832
315.573
296.09
273.567
248.269
220.54
190.706
159.181
126.303
92.5125
58.2709
23.9535
-10.065
-42.6264
-73.6979
-104.099
-133.461
-161.332
-187.434
-211.592
-233.684
-253.652
-271.484
-287.199
-300.847
-312.495
-322.228
-330.139
-336.328
-340.877
-343.835
-345.316
-345.392
-344.084
-341.443
-337.514
-332.33
-325.917
-318.288
-309.436
-299.369
-288.063
-275.511
-261.683
-246.55
-230.097
-212.306
-193.158
-172.648
-150.793
-127.616
-103.184
-77.7745
-51.1096
-23.467
4.96452
33.9846
63.2804
92.5748
121.489
149.689
176.865
202.532
226.19
211.28
179.902
147.577
114.683
81.7163
49.0645
18.6308
-12.4093
-43.2859
-73.2277
-101.888
-129.031
-154.523
-178.274
-200.23
-220.369
-238.684
-255.195
-269.935
-282.936
-294.243
-303.9
-311.95
-318.434
-323.39
-326.854
-328.849
-329.342
-328.38
-326
-322.16
-316.849
-310.04
-301.714
-291.827
-280.337
-267.211
-252.401
-235.868
-217.589
-197.538
-175.716
-152.149
-126.857
-99.9347
-71.5148
-41.733
-10.7782
21.0087
52.8897
85.6647
118.655
151.479
183.729
215.006
244.953
273.198
299.367
323.135
344.187
362.242
377.052
388.39
396.087
400.017
400.004
396.156
388.461
376.911
361.666
342.905
320.861
295.828
268.143
238.192
206.386
173.143
138.9
104.088
69.1344
34.308
-2.19151
-36.1601
-68.7911
-99.9288
-129.422
-157.11
-182.881
-206.661
-228.379
-248.012
-265.553
-281.024
-294.456
-305.899
-315.43
-323.118
-329.038
-333.298
-335.996
-337.185
-336.942
-335.372
-332.496
-328.356
-322.965
-316.322
-308.42
-299.227
-288.709
-276.831
-263.551
-248.83
-232.629
-214.913
-195.658
-174.856
-152.509
-128.631
-103.254
-76.4431
-48.279
-18.8715
11.6368
43.1522
75.2267
107.689
140.231
172.5
204.105
234.634
263.664
290.765
315.517
337.528
356.437
371.923
383.718
391.615
395.472
395.127
390.665
382.145
369.616
353.294
333.42
310.306
284.312
255.834
225.3
193.156
159.861
125.864
91.5903
57.4476
23.7984
-9.0383
-40.8051
-71.2827
-100.301
-127.732
-153.488
-177.515
-199.782
-220.284
-239.026
-256.024
-271.301
-284.895
-296.831
-307.131
-315.834
-322.969
-328.556
-332.634
-335.221
-336.315
-335.947
-334.152
-330.931
-326.287
-320.216
-312.704
-303.73
-293.271
-281.291
-267.752
-252.625
-235.877
-217.479
-197.417
-175.692
-152.326
-127.36
-100.865
-72.9471
-43.7408
-13.4091
17.8483
49.7666
82.0682
114.448
146.568
178.067
208.57
237.69
265.045
290.259
312.974
332.858
349.61
362.973
372.735
378.736
380.859
379.027
373.305
363.766
350.476
333.649
313.507
290.339
264.472
236.251
206.079
174.363
141.517
107.958
74.0871
40.2971
6.95209
-25.624
-57.1401
-87.3502
-116.057
-143.104
-168.385
-191.835
-213.419
-233.134
-251.002
-267.063
-281.369
-293.983
-304.979
-314.41
-322.349
-328.86
-333.982
-337.755
-340.231
-341.399
-341.228
-339.756
-336.947
-332.753
-327.121
-320.003
-311.34
-301.069
-289.13
-275.471
-260.045
-242.822
-223.792
-202.965
-180.379
-156.113
-130.262
-102.953
-74.3668
-44.6647
-13.8381
18.3734
50.8387
83.2188
115.275
146.711
177.196
206.426
234.047
259.738
283.188
304.073
322.127
337.096
348.732
356.858
361.262
362.032
359.968
354.319
344.969
332.103
315.826
296.318
273.765
248.437
220.671
190.801
159.239
126.325
92.4982
58.2212
23.871
-10.172
-42.7329
-73.8248
-104.247
-133.626
-161.509
-187.618
-211.779
-233.87
-253.835
-271.661
-287.37
-301.01
-312.65
-322.374
-330.277
-336.456
-340.997
-343.948
-345.431
-345.5
-344.186
-341.542
-337.611
-332.426
-326.013
-318.385
-309.535
-299.47
-288.166
-275.619
-261.794
-246.664
-230.215
-212.428
-193.283
-172.774
-150.92
-127.743
-103.312
-77.8884
-51.2207
-23.5673
4.87951
33.9184
63.2363
92.5557
121.498
149.726
176.934
202.635
226.325
211.38
179.951
147.573
114.627
81.6132
48.9214
18.485
-12.5869
-43.4892
-73.4513
-102.125
-129.277
-154.772
-178.522
-200.475
-220.61
-238.918
-255.422
-270.153
-283.147
-294.446
-304.096
-312.14
-318.617
-323.569
-327.028
-329.018
-329.51
-328.556
-326.173
-322.333
-317.027
-310.222
-301.901
-292.021
-280.539
-267.42
-252.618
-236.091
-217.82
-197.774
-175.956
-152.389
-127.094
-100.166
-71.7348
-41.9372
-10.959
20.8508
52.7533
85.5652
118.596
151.465
183.762
215.088
245.085
273.38
299.598
323.413
344.508
362.602
377.446
388.811
396.527
400.471
400.469
396.611
388.902
377.331
362.056
343.258
321.168
296.085
268.347
238.34
206.478
173.179
138.884
104.022
69.0237
34.1526
-2.36128
-36.3582
-69.0126
-100.169
-129.675
-157.373
-183.149
-206.93
-228.648
-248.278
-265.813
-281.277
-294.701
-306.133
-315.652
-323.328
-329.237
-333.486
-336.173
-337.348
-337.101
-335.526
-332.645
-328.504
-323.114
-316.474
-308.575
-299.387
-288.876
-277.004
-263.731
-249.018
-232.823
-215.114
-195.865
-175.067
-152.723
-128.846
-103.467
-76.6519
-48.4796
-19.0609
11.4636
43.0043
75.1068
107.603
140.186
172.501
204.158
234.742
263.829
290.987
315.795
337.859
356.815
372.342
384.169
392.088
395.958
395.619
391.143
382.602
370.045
353.684
333.764
310.598
284.548
256.01
225.417
193.215
159.864
125.816
91.4967
57.3144
23.6327
-9.23024
-41.0165
-71.508
-100.535
-127.97
-153.727
-177.752
-200.016
-220.512
-239.249
-256.24
-271.511
-285.099
-297.03
-307.324
-316.023
-323.154
-328.737
-332.812
-335.395
-336.484
-336.118
-334.321
-331.099
-326.456
-320.387
-312.879
-303.91
-293.457
-281.483
-267.951
-252.83
-236.089
-217.696
-197.639
-175.916
-152.55
-127.581
-101.08
-73.1517
-43.9303
-13.5796
17.7016
49.649
81.9848
114.404
146.566
178.112
208.664
237.836
265.242
290.506
313.269
333.198
349.989
363.385
373.172
379.19
381.329
379.482
373.754
364.193
350.877
334.013
313.829
290.614
264.695
236.421
206.194
174.424
141.526
107.918
74.0013
40.1707
6.79063
-25.8148
-57.3545
-87.5817
-116.3
-143.354
-168.637
-192.085
-213.664
-233.372
-251.232
-267.283
-281.578
-294.182
-305.168
-314.59
-322.521
-329.025
-334.141
-337.911
-340.386
-341.55
-341.384
-339.915
-337.11
-332.923
-327.298
-320.189
-311.535
-301.273
-289.343
-275.692
-260.273
-243.056
-224.028
-203.202
-180.615
-156.341
-130.481
-103.16
-74.5559
-44.835
-13.9824
18.2701
50.7685
83.1837
115.279
146.755
177.283
206.557
234.224
259.96
283.454
304.381
322.472
337.474
349.139
357.29
361.726
362.511
360.405
354.741
345.392
332.511
316.205
296.659
274.064
248.683
220.867
190.944
159.326
126.357
92.4766
58.1464
23.7465
-10.3331
-42.8922
-74.0151
-104.47
-133.874
-161.775
-187.894
-212.059
-234.15
-254.11
-271.928
-287.627
-301.255
-312.883
-322.594
-330.483
-336.649
-341.176
-344.119
-345.602
-345.66
-344.339
-341.69
-337.755
-332.568
-326.157
-318.529
-309.682
-299.621
-288.322
-275.781
-261.961
-246.837
-230.393
-212.61
-193.47
-172.964
-151.112
-127.933
-103.502
-78.0618
-51.3878
-23.7179
4.75181
33.8189
63.1701
92.5269
121.51
149.783
177.038
202.788
226.527
211.514
180.016
147.568
114.553
81.475
48.7298
18.2908
-12.8237
-43.7607
-73.7499
-102.442
-129.605
-155.104
-178.854
-200.803
-220.93
-239.23
-255.724
-270.445
-283.428
-294.716
-304.357
-312.392
-318.862
-323.807
-327.259
-329.242
-329.736
-328.79
-326.403
-322.564
-317.263
-310.464
-302.151
-292.279
-280.807
-267.699
-252.907
-236.39
-218.127
-198.089
-176.275
-152.71
-127.411
-100.474
-72.0286
-42.2098
-11.2009
20.64
52.5713
85.4321
118.518
151.446
183.805
215.197
245.261
273.624
299.906
323.783
344.937
363.083
377.972
389.372
397.115
401.071
401.089
397.222
389.49
377.892
362.577
343.728
321.578
296.428
268.618
238.537
206.601
173.228
138.862
103.934
68.8755
33.9445
-2.58776
-36.6229
-69.3083
-100.489
-130.013
-157.723
-183.506
-207.289
-229.007
-248.633
-266.161
-281.615
-295.027
-306.445
-315.949
-323.609
-329.502
-333.737
-336.407
-337.566
-337.314
-335.731
-332.844
-328.703
-323.313
-316.675
-308.782
-299.6
-289.098
-277.236
-263.973
-249.269
-233.083
-215.382
-196.141
-175.349
-153.008
-129.132
-103.752
-76.9305
-48.7474
-19.3139
11.2308
42.808
74.9465
107.488
140.125
172.502
204.228
234.885
264.048
291.283
316.166
338.3
357.32
372.901
384.771
392.72
396.6
396.277
391.784
383.213
370.617
354.206
334.224
310.987
284.862
256.246
225.573
193.293
159.869
125.752
91.3714
57.1363
23.4113
-9.48657
-41.2988
-71.8088
-100.847
-128.288
-154.046
-178.069
-200.328
-220.817
-239.546
-256.529
-271.792
-285.372
-297.294
-307.582
-316.276
-323.4
-328.978
-333.049
-335.624
-336.712
-336.345
-334.545
-331.324
-326.683
-320.616
-313.113
-304.151
-293.704
-281.738
-268.216
-253.104
-236.371
-217.986
-197.935
-176.215
-152.849
-127.876
-101.366
-73.4248
-44.1834
-13.8073
17.5057
49.4919
81.8734
114.344
146.564
178.172
208.79
238.029
265.504
290.835
313.663
333.651
350.494
363.934
373.754
379.794
381.943
380.099
374.356
364.765
351.411
334.5
314.259
290.98
264.993
236.647
206.347
174.506
141.538
107.864
73.8866
40.002
6.57496
-26.0696
-57.6406
-87.8907
-116.624
-143.687
-168.973
-192.418
-213.991
-233.69
-251.538
-267.577
-281.858
-294.448
-305.421
-314.83
-322.75
-329.245
-334.353
-338.119
-340.591
-341.753
-341.592
-340.128
-337.329
-333.15
-327.534
-320.436
-311.794
-301.544
-289.626
-275.986
-260.577
-243.368
-224.344
-203.518
-180.929
-156.646
-130.774
-103.435
-74.8082
-45.0635
-14.1739
18.1322
50.6746
83.1367
115.283
146.813
177.398
206.732
234.459
260.256
283.808
304.791
322.933
337.981
349.683
357.867
362.339
363.137
361
355.314
345.96
333.056
316.711
297.116
274.461
249.015
221.129
191.134
159.442
126.4
92.4475
58.0464
23.5788
-10.5489
-43.1037
-74.2685
-104.767
-134.205
-162.129
-188.262
-212.432
-234.523
-254.476
-272.284
-287.969
-301.582
-313.193
-322.886
-330.759
-336.906
-341.416
-344.349
-345.827
-345.872
-344.542
-341.888
-337.948
-332.759
-326.349
-318.722
-309.879
-299.823
-288.53
-275.996
-262.183
-247.067
-230.63
-212.854
-193.719
-173.218
-151.367
-128.187
-103.753
-78.2956
-51.6111
-23.9191
4.58121
33.686
63.0814
92.4883
121.526
149.858
177.176
202.992
226.796
211.682
180.097
147.561
114.46
81.3012
48.4889
18.0482
-13.1197
-44.1005
-74.1238
-102.839
-130.015
-155.519
-179.269
-201.212
-221.331
-239.62
-256.102
-270.809
-283.779
-295.055
-304.684
-312.707
-319.168
-324.104
-327.548
-329.524
-330.02
-329.079
-326.689
-322.853
-317.558
-310.766
-302.463
-292.602
-281.142
-268.047
-253.269
-236.764
-218.512
-198.483
-176.674
-153.111
-127.808
-100.861
-72.3966
-42.5513
-11.5045
20.376
52.3433
85.2652
118.419
151.421
183.859
215.333
245.481
273.928
300.292
324.247
345.473
363.684
378.629
390.075
397.851
401.824
401.859
397.987
390.228
378.593
363.229
344.316
322.091
296.857
268.957
238.783
206.754
173.288
138.835
103.824
68.6894
33.683
-2.87123
-36.9546
-69.6787
-100.891
-130.435
-158.162
-183.954
-207.739
-229.457
-249.077
-266.596
-282.037
-295.435
-306.835
-316.321
-323.96
-329.834
-334.05
-336.7
-337.841
-337.58
-335.986
-333.094
-328.95
-323.561
-316.927
-309.041
-299.868
-289.376
-277.526
-264.274
-249.582
-233.408
-215.717
-196.486
-175.701
-153.365
-129.49
-104.108
-77.2794
-49.083
-19.6309
10.9373
42.5634
74.7452
107.344
140.049
172.503
204.315
235.064
264.322
291.653
316.63
338.852
357.951
373.6
385.523
393.51
397.407
397.094
392.589
383.979
371.334
354.858
334.798
311.475
285.255
256.54
225.768
193.39
159.873
125.671
91.2139
56.9129
23.1338
-9.80786
-41.6524
-72.1854
-101.238
-128.686
-154.446
-178.465
-200.718
-221.199
-239.917
-256.891
-272.143
-285.713
-297.625
-307.905
-316.591
-323.707
-329.279
-333.345
-335.91
-336.998
-336.629
-334.827
-331.605
-326.965
-320.902
-313.406
-304.451
-294.012
-282.058
-268.547
-253.447
-236.724
-218.349
-198.305
-176.59
-153.223
-128.245
-101.726
-73.7669
-44.5006
-14.093
17.26
49.295
81.7335
114.269
146.56
178.246
208.946
238.271
265.831
291.247
314.155
334.217
351.127
364.621
374.483
380.551
382.709
380.871
375.109
365.48
352.08
335.109
314.796
291.439
265.366
236.929
206.539
174.608
141.553
107.796
73.7426
39.7903
6.30443
-26.3891
-57.9989
-88.2778
-117.03
-144.105
-169.394
-192.836
-214.401
-234.088
-251.921
-267.944
-282.208
-294.781
-305.736
-315.131
-323.037
-329.52
-334.619
-338.38
-340.847
-342.006
-341.851
-340.393
-337.602
-333.433
-327.83
-320.746
-312.118
-301.884
-289.981
-276.355
-260.958
-243.758
-224.739
-203.915
-181.322
-157.028
-131.14
-103.78
-75.1241
-45.3516
-14.4117
17.9597
50.5567
83.0777
115.288
146.886
177.543
206.951
234.753
260.627
284.252
305.304
323.511
338.615
350.365
358.589
363.098
363.903
361.752
356.043
346.674
333.738
317.344
297.686
274.958
249.427
221.456
191.371
159.587
126.454
92.4109
57.921
23.3669
-10.8209
-43.3665
-74.5848
-105.139
-134.62
-162.574
-188.723
-212.9
-234.989
-254.935
-272.73
-288.398
-301.991
-313.58
-323.252
-331.103
-337.228
-341.717
-344.638
-346.107
-346.137
-344.796
-342.135
-338.19
-332.998
-326.587
-318.962
-310.125
-300.076
-288.79
-276.264
-262.461
-247.354
-230.927
-213.159
-194.031
-173.535
-151.686
-128.504
-104.066
-78.59
-51.8909
-24.1711
4.36743
33.5193
62.97
92.4396
121.546
149.951
177.349
203.247
227.133
211.883
180.194
147.553
114.347
81.0908
48.1979
17.7573
-13.4748
-44.5091
-74.5735
-103.315
-130.508
-156.018
-179.767
-201.704
-221.812
-240.088
-256.555
-271.247
-284.2
-295.461
-305.075
-313.086
-319.535
-324.461
-327.896
-329.864
-330.361
-329.424
-327.033
-323.2
-317.911
-311.129
-302.837
-292.99
-281.545
-268.466
-253.703
-237.212
-218.973
-198.956
-177.154
-153.592
-128.284
-101.325
-72.839
-42.962
-11.8707
20.0585
52.069
85.0641
118.3
151.391
183.923
215.496
245.744
274.292
300.755
324.803
346.117
364.406
379.418
390.919
398.734
402.731
402.781
398.905
391.114
379.436
364.012
345.022
322.706
297.372
269.364
239.079
206.936
173.359
138.8
103.69
68.4649
33.3678
-3.21204
-37.3539
-70.1243
-101.373
-130.944
-158.688
-184.491
-208.28
-229.997
-249.61
-267.118
-282.545
-295.924
-307.304
-316.767
-324.382
-330.232
-334.425
-337.05
-338.173
-337.898
-336.293
-333.393
-329.247
-323.859
-317.23
-309.351
-300.188
-289.709
-277.873
-264.637
-249.959
-233.798
-216.121
-196.901
-176.125
-153.793
-129.92
-104.536
-77.6987
-49.4865
-20.0122
10.5825
42.2702
74.5023
107.169
139.956
172.504
204.418
235.278
264.65
292.097
317.187
339.514
358.709
374.439
386.427
394.459
398.378
398.074
393.555
384.899
372.194
355.64
335.488
312.06
285.727
256.893
226.002
193.506
159.878
125.573
91.0236
56.6433
22.7995
-10.1946
-42.078
-72.6383
-101.708
-129.165
-154.926
-178.941
-201.186
-221.657
-240.364
-257.324
-272.565
-286.122
-298.022
-308.293
-316.969
-324.076
-329.641
-333.7
-336.255
-337.342
-336.968
-335.164
-331.942
-327.304
-321.246
-313.757
-304.811
-294.383
-282.442
-268.945
-253.858
-237.148
-218.785
-198.75
-177.04
-153.673
-128.689
-102.157
-74.1781
-44.8824
-14.4369
16.9641
49.0577
81.5646
114.177
146.555
178.335
209.133
238.56
266.224
291.741
314.746
334.897
351.886
365.446
375.359
381.459
383.631
381.797
376.012
366.34
352.883
335.84
315.442
291.988
265.812
237.268
206.768
174.729
141.569
107.714
73.5688
39.535
5.97859
-26.7735
-58.4301
-88.7435
-117.519
-144.607
-169.899
-193.337
-214.893
-234.565
-252.381
-268.384
-282.628
-295.18
-306.115
-315.491
-323.381
-329.85
-334.938
-338.692
-341.155
-342.311
-342.163
-340.711
-337.93
-333.773
-328.185
-321.117
-312.507
-302.292
-290.406
-276.797
-261.415
-244.227
-225.213
-204.391
-181.794
-157.487
-131.579
-104.195
-75.5042
-45.7008
-14.6947
17.7522
50.4144
83.0063
115.293
146.973
177.716
207.214
235.106
261.072
284.785
305.921
324.205
339.377
351.185
359.456
364.004
364.818
362.656
356.924
347.533
334.558
318.104
298.371
275.555
249.92
221.848
191.656
159.76
126.518
92.3664
57.7699
23.11
-11.1512
-43.6795
-74.9638
-105.586
-135.119
-163.108
-189.277
-213.463
-235.55
-255.486
-273.265
-288.912
-302.482
-314.045
-323.691
-331.516
-337.615
-342.08
-344.985
-346.44
-346.454
-345.1
-342.432
-338.481
-333.283
-326.874
-319.25
-310.419
-300.378
-289.102
-276.587
-262.795
-247.699
-231.283
-213.525
-194.405
-173.915
-152.069
-128.885
-104.44
-78.9453
-52.2278
-24.4743
4.11007
33.3184
62.8356
92.3805
121.569
150.062
177.555
203.552
227.537
212.117
180.308
147.542
114.214
80.8426
47.8556
17.4184
-13.8891
-44.9869
-75.0995
-103.873
-131.084
-156.601
-180.349
-202.278
-222.374
-240.635
-257.084
-271.757
-284.692
-295.934
-305.532
-313.527
-319.963
-324.877
-328.302
-330.261
-330.76
-329.824
-327.433
-323.604
-318.323
-311.552
-303.273
-293.442
-282.015
-268.954
-254.209
-237.735
-219.512
-199.508
-177.715
-154.154
-128.841
-101.867
-73.3562
-43.4422
-12.3002
19.6874
51.7479
84.8283
118.16
151.354
183.997
215.685
246.05
274.717
301.295
325.453
346.868
365.248
380.339
391.904
399.767
403.793
403.858
399.975
392.149
380.42
364.927
345.847
323.424
297.973
269.838
239.423
207.148
173.441
138.759
103.532
68.2012
32.9986
-3.61089
-37.8214
-70.6457
-101.937
-131.538
-159.304
-185.119
-208.911
-230.627
-250.232
-267.728
-283.138
-296.496
-307.852
-317.287
-324.874
-330.696
-334.862
-337.46
-338.561
-338.269
-336.65
-333.742
-329.593
-324.206
-317.582
-309.713
-300.563
-290.098
-278.279
-265.059
-250.399
-234.254
-216.592
-197.385
-176.619
-154.294
-130.423
-105.037
-78.1887
-49.9585
-20.4581
10.1659
41.9279
74.2168
106.963
139.846
172.502
204.537
235.526
265.032
292.614
317.836
340.287
359.593
375.419
387.484
395.568
399.515
399.218
394.681
385.975
373.199
356.555
336.294
312.742
286.276
257.304
226.273
193.64
159.881
125.457
90.7999
56.3272
22.4078
-10.6474
-42.5759
-73.168
-102.258
-129.724
-155.487
-179.497
-201.733
-222.192
-240.885
-257.831
-273.057
-286.599
-298.486
-308.746
-317.411
-324.506
-330.064
-334.112
-336.659
-337.743
-337.365
-335.557
-332.335
-327.7
-321.647
-314.166
-305.232
-294.816
-282.89
-269.409
-254.338
-237.643
-219.294
-199.27
-177.566
-154.199
-129.209
-102.662
-74.6589
-45.3291
-14.8394
16.6176
48.7796
81.3663
114.07
146.548
178.437
209.351
238.897
266.682
292.318
315.436
335.691
352.773
366.41
376.382
382.521
384.71
382.877
377.067
367.344
353.821
336.693
316.195
292.63
266.334
237.663
207.035
174.87
141.588
107.616
73.3647
39.2356
5.59683
-27.2236
-58.9346
-89.2883
-118.091
-145.193
-170.49
-193.923
-215.467
-235.123
-252.918
-268.899
-283.119
-295.646
-306.557
-315.911
-323.782
-330.234
-335.31
-339.056
-341.513
-342.667
-342.526
-341.081
-338.312
-334.17
-328.599
-321.55
-312.962
-302.767
-290.903
-277.314
-261.949
-244.774
-225.768
-204.948
-182.345
-158.023
-132.093
-104.68
-75.9488
-46.1085
-15.0258
17.5088
50.2473
82.9222
115.298
147.073
177.917
207.519
235.518
261.591
285.407
306.641
325.016
340.268
352.143
360.469
365.058
365.883
363.714
357.959
348.54
335.516
318.992
299.172
276.251
250.503
222.306
191.987
159.962
126.592
92.3139
57.5928
22.8069
-11.5429
-44.0408
-75.4051
-106.109
-135.703
-163.733
-189.926
-214.12
-236.205
-256.13
-273.89
-289.512
-303.054
-314.588
-324.203
-331.998
-338.067
-342.504
-345.39
-346.827
-346.822
-345.454
-342.778
-338.819
-333.616
-327.207
-319.586
-310.763
-300.731
-289.466
-276.962
-263.184
-248.101
-231.698
-213.953
-194.843
-174.36
-152.517
-129.33
-104.876
-79.3623
-52.6224
-24.8293
3.80865
33.0829
62.6777
92.3106
121.595
150.191
177.794
203.907
228.008
212.385
180.437
147.53
114.06
80.555
47.4608
17.0321
-14.3624
-45.5347
-75.7026
-104.512
-131.744
-157.269
-181.015
-202.935
-223.017
-241.26
-257.688
-272.34
-285.254
-296.476
-306.054
-314.032
-320.451
-325.352
-328.766
-330.717
-331.214
-330.281
-327.889
-324.065
-318.793
-312.035
-303.772
-293.959
-282.551
-269.512
-254.788
-238.334
-220.127
-200.14
-178.357
-154.797
-129.478
-102.488
-73.9488
-43.9926
-12.7937
19.2619
51.3793
84.5574
117.999
151.311
184.081
215.9
246.4
275.202
301.911
326.195
347.727
366.212
381.392
393.03
400.948
405.009
405.09
401.198
393.334
381.547
365.974
346.79
324.245
298.661
270.38
239.816
207.389
173.534
138.711
103.351
67.8979
32.5751
-4.06861
-38.3579
-71.2436
-102.584
-132.219
-160.008
-185.838
-209.634
-231.348
-250.945
-268.426
-283.816
-297.149
-308.478
-317.883
-325.437
-331.227
-335.361
-337.928
-339.004
-338.692
-337.057
-334.14
-329.987
-324.602
-317.985
-310.127
-300.99
-290.543
-278.742
-265.543
-250.901
-234.775
-217.13
-197.939
-177.184
-154.867
-130.999
-105.609
-78.7498
-50.4993
-20.9687
9.68756
41.5352
73.8879
106.726
139.718
172.499
204.672
235.808
265.469
293.205
318.578
341.172
360.606
376.541
388.692
396.838
400.817
400.527
395.968
387.206
374.35
357.601
337.215
313.523
286.904
257.774
226.582
193.792
159.884
125.322
90.542
55.9636
21.9579
-11.1667
-43.1469
-73.7751
-102.887
-130.364
-156.128
-180.134
-202.359
-222.803
-241.48
-258.41
-273.619
-287.145
-299.016
-309.262
-317.915
-324.999
-330.546
-334.583
-337.122
-338.201
-337.817
-336.006
-332.784
-328.153
-322.105
-314.633
-305.711
-295.312
-283.402
-269.94
-254.887
-238.209
-219.876
-199.864
-178.168
-154.801
-129.803
-103.24
-75.2097
-45.8414
-15.3012
16.2197
48.4601
81.138
113.945
146.539
178.553
209.599
239.281
267.205
292.977
316.225
336.599
353.787
367.513
377.553
383.737
385.946
384.112
378.272
368.495
354.895
337.669
317.057
293.364
266.929
238.114
207.34
175.029
141.607
107.504
73.1297
38.8916
5.15858
-27.7401
-59.5131
-89.9128
-118.745
-145.865
-171.166
-194.594
-216.125
-235.761
-253.533
-269.487
-283.679
-296.179
-307.062
-316.392
-324.241
-330.673
-335.734
-339.471
-341.921
-343.075
-342.94
-341.505
-338.748
-334.623
-329.072
-322.046
-313.481
-303.311
-291.472
-277.905
-262.56
-245.399
-226.403
-205.585
-182.976
-158.638
-132.681
-105.235
-76.4583
-46.5723
-15.4078
17.2286
50.0552
82.8252
115.303
147.187
178.146
207.868
235.989
262.184
286.118
307.465
325.943
341.288
353.24
361.627
366.26
367.098
364.925
359.147
349.694
336.613
320.009
300.088
277.047
251.175
222.831
192.366
160.191
126.676
92.2534
57.3891
22.4561
-12.0004
-44.4478
-75.9084
-106.709
-136.373
-164.45
-190.668
-214.872
-236.955
-256.866
-274.604
-290.199
-303.709
-315.208
-324.789
-332.548
-338.584
-342.991
-345.853
-347.269
-347.243
-345.858
-343.172
-339.206
-333.997
-327.589
-319.97
-311.154
-301.134
-289.882
-277.391
-263.629
-248.561
-232.173
-214.441
-195.343
-174.869
-153.03
-129.838
-105.373
-79.842
-53.0752
-25.2366
3.46258
32.8122
62.4958
92.2294
121.623
150.337
178.066
204.312
228.545
212.687
180.582
147.515
113.885
80.2257
47.012
16.5994
-14.8948
-46.153
-76.3836
-105.234
-132.488
-158.022
-181.765
-203.675
-223.74
-241.963
-258.369
-272.997
-285.886
-297.084
-306.641
-314.599
-321.001
-325.887
-329.288
-331.23
-331.725
-330.793
-328.403
-324.584
-319.321
-312.579
-304.333
-294.54
-283.155
-270.14
-255.44
-239.008
-220.82
-200.852
-179.08
-155.522
-130.197
-103.189
-74.6175
-44.6139
-13.3519
18.7815
50.9626
84.2507
117.815
151.26
184.174
216.141
246.792
275.748
302.605
327.031
348.694
367.297
382.579
394.299
402.279
406.381
406.478
402.574
394.669
382.816
367.153
347.852
325.17
299.434
270.99
240.257
207.659
173.637
138.655
103.144
67.554
32.0971
-4.58616
-38.9641
-71.9189
-103.313
-132.987
-160.802
-186.648
-210.448
-232.16
-251.747
-269.213
-284.58
-297.885
-309.183
-318.553
-326.07
-331.825
-335.922
-338.454
-339.502
-339.168
-337.516
-334.587
-330.431
-325.048
-318.438
-310.591
-301.471
-291.043
-279.264
-266.086
-251.467
-235.362
-217.737
-198.562
-177.821
-155.512
-131.647
-106.254
-79.3826
-51.1094
-21.5441
9.1502
41.0879
73.5141
106.457
139.571
172.493
204.821
236.125
265.958
293.869
319.413
342.167
361.746
377.805
390.054
398.269
402.285
402.003
397.418
388.594
375.646
358.779
338.253
314.401
287.611
258.301
226.928
193.961
159.885
125.168
90.249
55.5518
21.4491
-11.7534
-43.7919
-74.46
-103.597
-131.086
-156.851
-180.85
-203.063
-223.492
-242.15
-259.061
-274.252
-287.759
-299.612
-309.844
-318.482
-325.553
-331.088
-335.114
-337.643
-338.715
-338.326
-336.51
-333.289
-328.661
-322.62
-315.159
-306.251
-295.869
-283.978
-270.536
-255.504
-238.847
-220.531
-200.534
-178.845
-155.479
-130.473
-103.892
-75.8312
-46.4198
-15.8227
15.7699
48.0986
80.879
113.803
146.527
178.681
209.876
239.713
267.792
293.718
317.112
337.622
354.929
368.756
378.872
385.107
387.339
385.503
379.63
369.79
356.104
338.769
318.028
294.19
267.599
238.621
207.681