/*--------------------------------*- C++ -*----------------------------------*\
| =========                 |                                                 |
| \\      /  F ield         | OpenFOAM: The Open Source CFD Toolbox           |
|  \\    /   O peration     | Version:  3.0.1                                 |
|   \\  /    A nd           | Web:      www.OpenFOAM.org                      |
|    \\/     M anipulation  |                                                 |
\*---------------------------------------------------------------------------*/
FoamFile
{
    version     2.0;
    format      ascii;
    class       volVectorField;
    location    "6";
    object      U;
}
// * * * * * * * * * * * * * * * * * * * * * * * * * * * * * * * * * * * * * //

dimensions      [0 1 -1 0 0 0 0];

internalField   nonuniform List<vector> 
21420
(
(-0.102316 0.000923045 0)
(-0.108331 0.00083734 0)
(-0.116418 0.00076228 0)
(-0.12372 0.000689289 0)
(-0.130305 0.000615644 0)
(-0.136172 0.000545478 0)
(-0.141327 0.000473822 0)
(-0.145765 0.000402762 0)
(-0.149477 0.000329389 0)
(-0.15246 0.000252221 0)
(-0.154704 0.000172948 0)
(-0.156061 9.80886e-05 0)
(-0.156605 1.91521e-05 0)
(-0.15629 -7.17356e-05 0)
(-0.155078 -0.000168144 0)
(-0.152925 -0.000264608 0)
(-0.149788 -0.000364022 0)
(-0.145631 -0.000468525 0)
(-0.140435 -0.000572381 0)
(-0.134185 -0.000677001 0)
(-0.126875 -0.000786919 0)
(-0.118534 -0.00088711 0)
(-0.109216 -0.000982741 0)
(-0.0989726 -0.00108251 0)
(-0.0879197 -0.00115994 0)
(-0.0761939 -0.00123988 0)
(-0.0639566 -0.00128841 0)
(-0.051472 -0.0013202 0)
(-0.0389815 -0.00135056 0)
(-0.0269058 -0.00134594 0)
(-0.0156795 -0.00132457 0)
(-0.00205548 -0.00129366 0)
(0.0131444 -0.00123996 0)
(0.0264546 -0.00118232 0)
(0.0386153 -0.00110406 0)
(0.049646 -0.00101557 0)
(0.0594796 -0.000922069 0)
(0.06802 -0.000816236 0)
(0.0751923 -0.00070373 0)
(0.0810186 -0.000589936 0)
(0.0856251 -0.000474689 0)
(0.0891228 -0.000363582 0)
(0.0915524 -0.000255799 0)
(0.0928743 -0.000158996 0)
(0.0930795 -7.27417e-05 0)
(0.0923665 1.86009e-05 0)
(0.0910742 0.00010972 0)
(0.0893275 0.00018492 0)
(0.0871294 0.000254783 0)
(0.0845015 0.000318114 0)
(0.0814969 0.000367587 0)
(0.0781924 0.00041371 0)
(0.0745276 0.000447321 0)
(0.0705117 0.000478476 0)
(0.0660828 0.000499877 0)
(0.0613525 0.000516454 0)
(0.0564424 0.000525709 0)
(0.0513716 0.00053026 0)
(0.0463087 0.000529551 0)
(0.0411759 0.000525048 0)
(0.0360959 0.00051569 0)
(0.0311057 0.000508531 0)
(0.0262572 0.000493943 0)
(0.0214114 0.000480942 0)
(0.0167138 0.000470112 0)
(0.0119015 0.000457377 0)
(0.00711638 0.000445766 0)
(0.00269213 0.000431671 0)
(-0.00158345 0.000422396 0)
(-0.00572795 0.00041481 0)
(-0.00990207 0.000404258 0)
(-0.0139688 0.000392622 0)
(-0.0179588 0.000380239 0)
(-0.0218623 0.000367437 0)
(-0.0256352 0.000352069 0)
(-0.0292782 0.000335666 0)
(-0.0327671 0.000316752 0)
(-0.0360696 0.000295024 0)
(-0.039155 0.000269446 0)
(-0.0419666 0.000240616 0)
(-0.0444819 0.000206664 0)
(-0.0466517 0.000169781 0)
(-0.0484411 0.000128435 0)
(-0.0497789 8.35507e-05 0)
(-0.0506387 3.60977e-05 0)
(-0.050976 -1.39394e-05 0)
(-0.0507282 -6.54857e-05 0)
(-0.0498988 -0.000117156 0)
(-0.0485709 -0.000166733 0)
(-0.0467869 -0.000214869 0)
(-0.0444402 -0.000261244 0)
(-0.041521 -0.000302377 0)
(-0.0382331 -0.000339933 0)
(-0.0346707 -0.000374405 0)
(-0.0307958 -0.000404534 0)
(-0.0265205 -0.000430552 0)
(-0.0219959 -0.000451823 0)
(-0.0175043 -0.000468681 0)
(-0.0128823 -0.000482838 0)
(-0.00799708 -0.00049095 0)
(-0.00306883 -0.00049369 0)
(0.00182669 -0.000492066 0)
(0.00673406 -0.00048622 0)
(0.0115778 -0.000475661 0)
(0.0163027 -0.000460289 0)
(0.0208673 -0.000440776 0)
(0.0252279 -0.000417772 0)
(0.0293561 -0.000392409 0)
(0.0331844 -0.000362358 0)
(0.0367313 -0.000331594 0)
(0.0400114 -0.000294637 0)
(0.0428614 -0.000259928 0)
(0.0452858 -0.000224538 0)
(0.0473538 -0.000187703 0)
(0.0490546 -0.000150734 0)
(0.0503859 -0.000114858 0)
(0.0513682 -7.91179e-05 0)
(0.0519607 -4.54938e-05 0)
(0.0522049 -1.13141e-05 0)
(0.0521595 2.09205e-05 0)
(0.0518054 4.97709e-05 0)
(0.0511595 7.72044e-05 0)
(0.0502258 0.000104515 0)
(0.0490565 0.00012857 0)
(0.0476759 0.000148636 0)
(0.0460745 0.000167101 0)
(0.044282 0.000184748 0)
(0.04237 0.000198312 0)
(0.0403138 0.000208893 0)
(0.0381534 0.000219014 0)
(0.0359392 0.000223294 0)
(0.0336468 0.000227787 0)
(0.0313273 0.000230279 0)
(0.029012 0.000230048 0)
(0.0267169 0.000227492 0)
(0.0244414 0.000223059 0)
(0.0222099 0.000218094 0)
(0.0200559 0.000211045 0)
(0.0179837 0.000203289 0)
(0.015988 0.000194669 0)
(0.0140811 0.000183931 0)
(0.0122677 0.000174171 0)
(0.0105697 0.00016297 0)
(0.00898045 0.000152249 0)
(0.00750281 0.000140641 0)
(0.00614194 0.000130165 0)
(0.00487765 0.000118588 0)
(0.00373359 0.000108187 0)
(0.0026915 9.71835e-05 0)
(0.00175425 8.81315e-05 0)
(0.000921957 7.82911e-05 0)
(0.000187038 6.84079e-05 0)
(-0.000453606 5.99338e-05 0)
(-0.00101296 5.16092e-05 0)
(-0.00149221 4.37283e-05 0)
(-0.00189549 3.64282e-05 0)
(-0.00222974 2.97497e-05 0)
(-0.00249804 2.35913e-05 0)
(-0.00270564 1.79374e-05 0)
(-0.00285749 1.26793e-05 0)
(-0.00295979 7.93118e-06 0)
(-0.00301839 3.71112e-06 0)
(-0.00303914 2.09891e-08 0)
(-0.00302166 -3.26231e-06 0)
(-0.0029716 -6.30925e-06 0)
(-0.00289654 -8.7999e-06 0)
(-0.00279746 -1.09748e-05 0)
(-0.00267938 -1.27169e-05 0)
(-0.00254458 -1.41057e-05 0)
(-0.0023962 -1.52105e-05 0)
(-0.00223585 -1.61549e-05 0)
(-0.00206891 -1.68123e-05 0)
(-0.00189995 -1.70747e-05 0)
(-0.00172529 -1.73375e-05 0)
(-0.00154964 -1.73341e-05 0)
(-0.00137789 -1.7036e-05 0)
(-0.00120629 -1.68308e-05 0)
(-0.00103857 -1.63806e-05 0)
(-0.000877048 -1.57582e-05 0)
(-0.000720938 -1.51771e-05 0)
(-0.000572399 -1.44717e-05 0)
(-0.00043199 -1.37335e-05 0)
(-0.000298637 -1.29881e-05 0)
(-0.000173252 -1.20848e-05 0)
(-5.6904e-05 -1.12798e-05 0)
(5.15755e-05 -1.04385e-05 0)
(0.000151922 -9.59207e-06 0)
(0.000244163 -8.76151e-06 0)
(0.000328162 -7.9435e-06 0)
(0.000404115 -7.14489e-06 0)
(0.000472273 -6.37862e-06 0)
(0.000532849 -5.63233e-06 0)
(0.000586216 -4.9279e-06 0)
(0.00063264 -4.25587e-06 0)
(0.000672527 -3.6259e-06 0)
(0.000706253 -3.03065e-06 0)
(0.000734146 -2.47433e-06 0)
(0.000756622 -1.95603e-06 0)
(0.000774029 -1.47636e-06 0)
(0.000786796 -1.03301e-06 0)
(0.000795278 -6.26746e-07 0)
(0.000799837 -2.5446e-07 0)
(0.000800798 8.3392e-08 0)
(0.000798433 3.90123e-07 0)
(0.000793115 6.67599e-07 0)
(0.000785135 9.17189e-07 0)
(0.000774769 1.14013e-06 0)
(0.000762282 1.33766e-06 0)
(0.000747924 1.51096e-06 0)
(0.000731932 1.66129e-06 0)
(0.000714534 1.78995e-06 0)
(0.00069594 1.89824e-06 0)
(0.000676349 1.98754e-06 0)
(0.000655947 2.05918e-06 0)
(0.000634905 2.11451e-06 0)
(0.000613381 2.15482e-06 0)
(0.000591519 2.18138e-06 0)
(0.000569453 2.1954e-06 0)
(0.000547302 2.19808e-06 0)
(0.000525177 2.19051e-06 0)
(0.000503174 2.17377e-06 0)
(0.000481381 2.14886e-06 0)
(0.000459875 2.11676e-06 0)
(0.000438725 2.07834e-06 0)
(0.00041799 2.03447e-06 0)
(0.000397721 1.98592e-06 0)
(0.000377961 1.93344e-06 0)
(0.000358747 1.87769e-06 0)
(0.000340108 1.81931e-06 0)
(0.000322069 1.75888e-06 0)
(0.000304646 1.69692e-06 0)
(0.000287854 1.6339e-06 0)
(0.0002717 1.57028e-06 0)
(0.000256189 1.50642e-06 0)
(0.000241321 1.44269e-06 0)
(0.000227093 1.37938e-06 0)
(0.0002135 1.31679e-06 0)
(0.000200534 1.25513e-06 0)
(0.000188183 1.19462e-06 0)
(0.000176436 1.13544e-06 0)
(0.000165278 1.07774e-06 0)
(0.000154694 1.02163e-06 0)
(0.000144667 9.67225e-07 0)
(0.00013518 9.14598e-07 0)
(0.000126214 8.63819e-07 0)
(0.000117751 8.1492e-07 0)
(0.00010977 7.6794e-07 0)
(0.000102254 7.22882e-07 0)
(9.51827e-05 6.79759e-07 0)
(8.85363e-05 6.38551e-07 0)
(8.22958e-05 5.9925e-07 0)
(7.64421e-05 5.61819e-07 0)
(7.09565e-05 5.26234e-07 0)
(6.58207e-05 4.92445e-07 0)
(6.10167e-05 4.60416e-07 0)
(5.6527e-05 4.3009e-07 0)
(5.23348e-05 4.01423e-07 0)
(4.84236e-05 3.74352e-07 0)
(4.47775e-05 3.48828e-07 0)
(4.13811e-05 3.24784e-07 0)
(3.82193e-05 3.02166e-07 0)
(3.52776e-05 2.80904e-07 0)
(3.25421e-05 2.60942e-07 0)
(2.99996e-05 2.42213e-07 0)
(2.76376e-05 2.24662e-07 0)
(2.54443e-05 2.08226e-07 0)
(2.34087e-05 1.92852e-07 0)
(2.15204e-05 1.78482e-07 0)
(1.97695e-05 1.65065e-07 0)
(1.81471e-05 1.52547e-07 0)
(1.66445e-05 1.40881e-07 0)
(1.52538e-05 1.30016e-07 0)
(1.39676e-05 1.19909e-07 0)
(1.27789e-05 1.10513e-07 0)
(1.16811e-05 1.01788e-07 0)
(1.06681e-05 9.36898e-08 0)
(9.73403e-06 8.61817e-08 0)
(8.87355e-06 7.92244e-08 0)
(8.08145e-06 7.27832e-08 0)
(7.3529e-06 6.68225e-08 0)
(6.68334e-06 6.13109e-08 0)
(6.06848e-06 5.62167e-08 0)
(5.50433e-06 5.15113e-08 0)
(4.98711e-06 4.71667e-08 0)
(4.51332e-06 4.31575e-08 0)
(4.07969e-06 3.94589e-08 0)
(3.68316e-06 3.60486e-08 0)
(3.3209e-06 3.29052e-08 0)
(2.99026e-06 3.00089e-08 0)
(2.68878e-06 2.73415e-08 0)
(2.4142e-06 2.48859e-08 0)
(2.16439e-06 2.26263e-08 0)
(1.93739e-06 2.05482e-08 0)
(1.73138e-06 1.8638e-08 0)
(1.54467e-06 1.68834e-08 0)
(1.37569e-06 1.52728e-08 0)
(1.22298e-06 1.37956e-08 0)
(1.08519e-06 1.24419e-08 0)
(9.61068e-07 1.12026e-08 0)
(8.49456e-07 1.00693e-08 0)
(7.49273e-07 9.03428e-09 0)
(6.59521e-07 8.09018e-09 0)
(5.79273e-07 7.23033e-09 0)
(5.07671e-07 6.44845e-09 0)
(4.43922e-07 5.73872e-09 0)
(3.8729e-07 5.09567e-09 0)
(3.37097e-07 4.51422e-09 0)
(2.92716e-07 3.98956e-09 0)
(2.53571e-07 3.51723e-09 0)
(2.1913e-07 3.09302e-09 0)
(1.88906e-07 2.71298e-09 0)
(1.62452e-07 2.37339e-09 0)
(1.39359e-07 2.07077e-09 0)
(1.19255e-07 1.80186e-09 0)
(1.018e-07 1.56358e-09 0)
(8.66882e-08 1.35308e-09 0)
(7.36402e-08 1.16768e-09 0)
(6.24059e-08 1.0049e-09 0)
(5.27601e-08 8.62417e-10 0)
(4.45011e-08 7.38102e-10 0)
(3.7449e-08 6.29983e-10 0)
(3.1444e-08 5.36251e-10 0)
(2.63444e-08 4.55252e-10 0)
(2.20251e-08 3.85478e-10 0)
(1.83763e-08 3.25565e-10 0)
(1.53018e-08 2.74279e-10 0)
(1.27176e-08 2.30513e-10 0)
(1.05507e-08 1.93278e-10 0)
(8.73806e-09 1.61692e-10 0)
(7.22511e-09 1.34976e-10 0)
(5.96502e-09 1.12441e-10 0)
(4.9177e-09 9.34858e-11 0)
(4.04892e-09 7.75824e-11 0)
(3.32955e-09 6.42731e-11 0)
(2.73495e-09 5.31616e-11 0)
(2.24424e-09 4.39062e-11 0)
(1.83988e-09 3.62136e-11 0)
(1.50711e-09 2.98332e-11 0)
(1.23358e-09 2.45514e-11 0)
(1.00898e-09 2.0187e-11 0)
(8.24705e-10 1.65869e-11 0)
(6.73618e-10 1.36218e-11 0)
(5.49795e-10 1.11834e-11 0)
(4.48337e-10 9.1809e-12 0)
(3.652e-10 7.53832e-12 0)
(2.97048e-10 6.19264e-12 0)
(2.41135e-10 5.09147e-12 0)
(1.95204e-10 4.19155e-12 0)
(1.57398e-10 3.45727e-12 0)
(1.26189e-10 2.85942e-12 0)
(1.00317e-10 2.3742e-12 0)
(7.87418e-11 1.9823e-12 0)
(6.06027e-11 1.66816e-12 0)
(4.51976e-11 1.41932e-12 0)
(3.19973e-11 1.22595e-12 0)
(2.07986e-11 1.08035e-12 0)
(1.26437e-11 9.76762e-13 0)
(-0.102347 0.00276899 0)
(-0.10836 0.00251195 0)
(-0.116447 0.00228685 0)
(-0.123747 0.00206787 0)
(-0.130332 0.00184696 0)
(-0.136199 0.0016366 0)
(-0.141354 0.00142166 0)
(-0.145793 0.00120858 0)
(-0.149506 0.000988414 0)
(-0.15249 0.000756887 0)
(-0.154732 0.000519303 0)
(-0.156094 0.000293771 0)
(-0.156641 5.79513e-05 0)
(-0.156328 -0.000215817 0)
(-0.155118 -0.000504299 0)
(-0.152966 -0.000793586 0)
(-0.14983 -0.00109184 0)
(-0.145676 -0.00140538 0)
(-0.14048 -0.001717 0)
(-0.134231 -0.00203094 0)
(-0.126922 -0.00236076 0)
(-0.118581 -0.00266145 0)
(-0.109261 -0.00294845 0)
(-0.0990153 -0.00324787 0)
(-0.0879588 -0.00348035 0)
(-0.0762287 -0.00372027 0)
(-0.0639858 -0.00386596 0)
(-0.0514951 -0.00396151 0)
(-0.0389984 -0.00405258 0)
(-0.0269165 -0.00403874 0)
(-0.0156833 -0.00397488 0)
(-0.0020522 -0.00388218 0)
(0.0131534 -0.00372006 0)
(0.0264695 -0.00354726 0)
(0.0386363 -0.00331271 0)
(0.049672 -0.00304748 0)
(0.0595109 -0.0027672 0)
(0.0680561 -0.00244977 0)
(0.0752325 -0.0021124 0)
(0.0810621 -0.00177123 0)
(0.0856707 -0.00142499 0)
(0.0891702 -0.00109031 0)
(0.091596 -0.000770933 0)
(0.092926 -0.000477586 0)
(0.0931281 -0.000216637 0)
(0.0924177 5.60505e-05 0)
(0.0911269 0.000328864 0)
(0.089379 0.000554351 0)
(0.08718 0.000764057 0)
(0.0845505 0.000954322 0)
(0.0815441 0.00110284 0)
(0.078237 0.00124146 0)
(0.0745696 0.00134237 0)
(0.0705504 0.0014356 0)
(0.066118 0.00150047 0)
(0.0613829 0.00155016 0)
(0.0564688 0.0015775 0)
(0.0513937 0.00159186 0)
(0.0463251 0.00158944 0)
(0.0411884 0.00157631 0)
(0.0361048 0.00154844 0)
(0.0311104 0.00152685 0)
(0.026258 0.00148331 0)
(0.02141 0.00144398 0)
(0.0167081 0.00141122 0)
(0.0118942 0.00137275 0)
(0.00710644 0.00133924 0)
(0.00267823 0.00129537 0)
(-0.0015965 0.00126792 0)
(-0.00574435 0.00124545 0)
(-0.00992152 0.00121256 0)
(-0.0139897 0.00117808 0)
(-0.0179824 0.00114213 0)
(-0.0218868 0.00110508 0)
(-0.0256629 0.00105717 0)
(-0.0293071 0.00100929 0)
(-0.0327986 0.000951225 0)
(-0.036104 0.000885246 0)
(-0.0391917 0.000809407 0)
(-0.0420052 0.000722511 0)
(-0.0445243 0.000619697 0)
(-0.0466959 0.000510669 0)
(-0.0484865 0.000385356 0)
(-0.0498269 0.000250686 0)
(-0.0506887 0.000107866 0)
(-0.0510258 -4.13081e-05 0)
(-0.0507783 -0.000196368 0)
(-0.0499483 -0.000351582 0)
(-0.0486193 -0.000500686 0)
(-0.0468337 -0.000644572 0)
(-0.0444847 -0.000783426 0)
(-0.0415624 -0.000908204 0)
(-0.0382734 -0.0010213 0)
(-0.0347057 -0.00112388 0)
(-0.0308276 -0.00121318 0)
(-0.0265491 -0.00129332 0)
(-0.022021 -0.00135672 0)
(-0.017526 -0.00140714 0)
(-0.0129006 -0.00144973 0)
(-0.0080106 -0.00147377 0)
(-0.00307817 -0.00148213 0)
(0.00182017 -0.00147854 0)
(0.00673337 -0.00145952 0)
(0.0115805 -0.00142754 0)
(0.016309 -0.00138152 0)
(0.0208775 -0.00132266 0)
(0.0252394 -0.00125521 0)
(0.0293739 -0.00117754 0)
(0.0332039 -0.00108701 0)
(0.0367535 -0.000995258 0)
(0.0400361 -0.00088414 0)
(0.0428873 -0.00078021 0)
(0.0453132 -0.000674625 0)
(0.0473824 -0.000563199 0)
(0.0490842 -0.000452821 0)
(0.0504158 -0.000344633 0)
(0.0513984 -0.000237381 0)
(0.0519911 -0.000137127 0)
(0.0522352 -3.3909e-05 0)
(0.0521889 6.26603e-05 0)
(0.0518337 0.000149482 0)
(0.0511876 0.000231688 0)
(0.0502531 0.000313646 0)
(0.0490821 0.000385894 0)
(0.0476999 0.000446234 0)
(0.0460976 0.000501487 0)
(0.0443036 0.000554516 0)
(0.0423895 0.000595288 0)
(0.040332 0.000626923 0)
(0.0381697 0.000657487 0)
(0.0359535 0.000670346 0)
(0.03366 0.000683457 0)
(0.0313388 0.000691155 0)
(0.0290217 0.000690461 0)
(0.026725 0.000682853 0)
(0.0244482 0.000669417 0)
(0.0222154 0.000654587 0)
(0.0200601 0.000633432 0)
(0.0179869 0.000610179 0)
(0.0159898 0.000584239 0)
(0.014082 0.000552044 0)
(0.0122679 0.000522486 0)
(0.0105691 0.000489325 0)
(0.00897925 0.000456752 0)
(0.00750113 0.00042224 0)
(0.00613978 0.000390621 0)
(0.00487506 0.000355872 0)
(0.00373071 0.000324672 0)
(0.0026885 0.000291574 0)
(0.00175115 0.000264526 0)
(0.000918383 0.000234857 0)
(0.000183466 0.000205368 0)
(-0.000457109 0.000179867 0)
(-0.00101655 0.00015487 0)
(-0.00149579 0.000131215 0)
(-0.00189897 0.000109302 0)
(-0.00223313 8.92623e-05 0)
(-0.00250134 7.07857e-05 0)
(-0.00270883 5.38263e-05 0)
(-0.00286058 3.80397e-05 0)
(-0.00296272 2.37831e-05 0)
(-0.00302113 1.11209e-05 0)
(-0.00304172 4.59746e-08 0)
(-0.00302412 -9.79757e-06 0)
(-0.00297388 -1.89496e-05 0)
(-0.00289863 -2.64228e-05 0)
(-0.00279937 -3.29508e-05 0)
(-0.0026811 -3.81815e-05 0)
(-0.00254614 -4.23425e-05 0)
(-0.00239762 -4.56611e-05 0)
(-0.00223713 -4.84828e-05 0)
(-0.00206999 -5.04696e-05 0)
(-0.0019009 -5.12557e-05 0)
(-0.00172613 -5.20294e-05 0)
(-0.00155031 -5.20329e-05 0)
(-0.00137846 -5.11335e-05 0)
(-0.00120677 -5.05111e-05 0)
(-0.00103891 -4.91685e-05 0)
(-0.000877298 -4.72926e-05 0)
(-0.000721116 -4.55538e-05 0)
(-0.000572491 -4.34365e-05 0)
(-0.000432023 -4.1222e-05 0)
(-0.000298587 -3.89821e-05 0)
(-0.000173143 -3.6274e-05 0)
(-5.67635e-05 -3.38562e-05 0)
(5.17659e-05 -3.133e-05 0)
(0.00015215 -2.87883e-05 0)
(0.000244421 -2.62951e-05 0)
(0.000328447 -2.384e-05 0)
(0.000404421 -2.14426e-05 0)
(0.000472598 -1.91427e-05 0)
(0.000533186 -1.69028e-05 0)
(0.000586561 -1.4789e-05 0)
(0.000632992 -1.27722e-05 0)
(0.000672882 -1.08812e-05 0)
(0.00070661 -9.09566e-06 0)
(0.000734502 -7.42536e-06 0)
(0.000756975 -5.86901e-06 0)
(0.000774377 -4.4305e-06 0)
(0.000787139 -3.09993e-06 0)
(0.000795614 -1.88082e-06 0)
(0.000800166 -7.63434e-07 0)
(0.000801118 2.5038e-07 0)
(0.000798744 1.17083e-06 0)
(0.000793417 2.00354e-06 0)
(0.000785427 2.75256e-06 0)
(0.000775052 3.42162e-06 0)
(0.000762554 4.01438e-06 0)
(0.000748184 4.53447e-06 0)
(0.000732182 4.98561e-06 0)
(0.000714772 5.37169e-06 0)
(0.000696167 5.69667e-06 0)
(0.000676565 5.96465e-06 0)
(0.000656152 6.17963e-06 0)
(0.000635099 6.34566e-06 0)
(0.000613564 6.4666e-06 0)
(0.000591692 6.5463e-06 0)
(0.000569616 6.58838e-06 0)
(0.000547456 6.59639e-06 0)
(0.000525321 6.57365e-06 0)
(0.000503309 6.52341e-06 0)
(0.000481507 6.44865e-06 0)
(0.000459993 6.3523e-06 0)
(0.000438835 6.23699e-06 0)
(0.000418092 6.10533e-06 0)
(0.000397816 5.95961e-06 0)
(0.00037805 5.80211e-06 0)
(0.000358829 5.63479e-06 0)
(0.000340184 5.45961e-06 0)
(0.000322139 5.27823e-06 0)
(0.000304711 5.0923e-06 0)
(0.000287914 4.90318e-06 0)
(0.000271755 4.71224e-06 0)
(0.000256239 4.5206e-06 0)
(0.000241367 4.32934e-06 0)
(0.000227136 4.13936e-06 0)
(0.000213539 3.95151e-06 0)
(0.00020057 3.76647e-06 0)
(0.000188216 3.5849e-06 0)
(0.000176466 3.40729e-06 0)
(0.000165305 3.23413e-06 0)
(0.000154719 3.06575e-06 0)
(0.00014469 2.90249e-06 0)
(0.0001352 2.74456e-06 0)
(0.000126232 2.59218e-06 0)
(0.000117767 2.44544e-06 0)
(0.000109785 2.30445e-06 0)
(0.000102268 2.16924e-06 0)
(9.51949e-05 2.03983e-06 0)
(8.85473e-05 1.91617e-06 0)
(8.23056e-05 1.79823e-06 0)
(7.64509e-05 1.68591e-06 0)
(7.09644e-05 1.57912e-06 0)
(6.58277e-05 1.47773e-06 0)
(6.1023e-05 1.38161e-06 0)
(5.65326e-05 1.29061e-06 0)
(5.23398e-05 1.20458e-06 0)
(4.8428e-05 1.12335e-06 0)
(4.47814e-05 1.04675e-06 0)
(4.13846e-05 9.74602e-07 0)
(3.82224e-05 9.06728e-07 0)
(3.52803e-05 8.42925e-07 0)
(3.25445e-05 7.83021e-07 0)
(3.00017e-05 7.2682e-07 0)
(2.76394e-05 6.74151e-07 0)
(2.54459e-05 6.2483e-07 0)
(2.34101e-05 5.78695e-07 0)
(2.15216e-05 5.35573e-07 0)
(1.97706e-05 4.9531e-07 0)
(1.8148e-05 4.57746e-07 0)
(1.66453e-05 4.22738e-07 0)
(1.52545e-05 3.90136e-07 0)
(1.39682e-05 3.59808e-07 0)
(1.27794e-05 3.31614e-07 0)
(1.16815e-05 3.05431e-07 0)
(1.06684e-05 2.81133e-07 0)
(9.73435e-06 2.58603e-07 0)
(8.87382e-06 2.37727e-07 0)
(8.08168e-06 2.18399e-07 0)
(7.35309e-06 2.00514e-07 0)
(6.68349e-06 1.83975e-07 0)
(6.06861e-06 1.6869e-07 0)
(5.50443e-06 1.5457e-07 0)
(4.98719e-06 1.41534e-07 0)
(4.51339e-06 1.29504e-07 0)
(4.07974e-06 1.18405e-07 0)
(3.68319e-06 1.08172e-07 0)
(3.32091e-06 9.87397e-08 0)
(2.99026e-06 9.00491e-08 0)
(2.68877e-06 8.20448e-08 0)
(2.41418e-06 7.46763e-08 0)
(2.16436e-06 6.78958e-08 0)
(1.93736e-06 6.16601e-08 0)
(1.73134e-06 5.59283e-08 0)
(1.54462e-06 5.06632e-08 0)
(1.37563e-06 4.58302e-08 0)
(1.22292e-06 4.13974e-08 0)
(1.08513e-06 3.73352e-08 0)
(9.61006e-07 3.36165e-08 0)
(8.49392e-07 3.02157e-08 0)
(7.49209e-07 2.71097e-08 0)
(6.59456e-07 2.42767e-08 0)
(5.79209e-07 2.16965e-08 0)
(5.07608e-07 1.93502e-08 0)
(4.4386e-07 1.72204e-08 0)
(3.8723e-07 1.52908e-08 0)
(3.37039e-07 1.35459e-08 0)
(2.92661e-07 1.19715e-08 0)
(2.53518e-07 1.05542e-08 0)
(2.1908e-07 9.2812e-09 0)
(1.88859e-07 8.14077e-09 0)
(1.62408e-07 7.12174e-09 0)
(1.39318e-07 6.21365e-09 0)
(1.19217e-07 5.4067e-09 0)
(1.01766e-07 4.69169e-09 0)
(8.66566e-08 4.06004e-09 0)
(7.36115e-08 3.50371e-09 0)
(6.238e-08 3.01524e-09 0)
(5.27368e-08 2.5877e-09 0)
(4.44803e-08 2.21468e-09 0)
(3.74305e-08 1.89025e-09 0)
(3.14276e-08 1.609e-09 0)
(2.63299e-08 1.36595e-09 0)
(2.20124e-08 1.1566e-09 0)
(1.83652e-08 9.76826e-10 0)
(1.52921e-08 8.22943e-10 0)
(1.27092e-08 6.91627e-10 0)
(1.05435e-08 5.79905e-10 0)
(8.73189e-09 4.85136e-10 0)
(7.21983e-09 4.04978e-10 0)
(5.96052e-09 3.37369e-10 0)
(4.91388e-09 2.80498e-10 0)
(4.04568e-09 2.32785e-10 0)
(3.32682e-09 1.92855e-10 0)
(2.73265e-09 1.59519e-10 0)
(2.24231e-09 1.31752e-10 0)
(1.83827e-09 1.08674e-10 0)
(1.50577e-09 8.95335e-11 0)
(1.23246e-09 7.36886e-11 0)
(1.00805e-09 6.05962e-11 0)
(8.23933e-10 4.97967e-11 0)
(6.72978e-10 4.09027e-11 0)
(5.49267e-10 3.35886e-11 0)
(4.47902e-10 2.75821e-11 0)
(3.64841e-10 2.26556e-11 0)
(2.96752e-10 1.86197e-11 0)
(2.40892e-10 1.53174e-11 0)
(1.95005e-10 1.26189e-11 0)
(1.57235e-10 1.04173e-11 0)
(1.26056e-10 8.62518e-12 0)
(1.0021e-10 7.17107e-12 0)
(7.86557e-11 5.99716e-12 0)
(6.05346e-11 5.05685e-12 0)
(4.51451e-11 4.31294e-12 0)
(3.19584e-11 3.73614e-12 0)
(2.07721e-11 3.30368e-12 0)
(1.26292e-11 2.99848e-12 0)
(-0.102412 0.0046144 0)
(-0.108422 0.00418615 0)
(-0.116506 0.00381118 0)
(-0.123805 0.0034463 0)
(-0.130389 0.00307816 0)
(-0.136255 0.00272783 0)
(-0.14141 0.0023697 0)
(-0.14585 0.00201479 0)
(-0.149565 0.00164801 0)
(-0.152549 0.00126283 0)
(-0.15479 0.000869001 0)
(-0.156152 0.000498228 0)
(-0.156721 8.71457e-05 0)
(-0.156402 -0.000364434 0)
(-0.155195 -0.000840317 0)
(-0.153045 -0.0013222 0)
(-0.149911 -0.00181933 0)
(-0.145759 -0.002342 0)
(-0.140565 -0.00286153 0)
(-0.134315 -0.00338497 0)
(-0.127006 -0.00393492 0)
(-0.118662 -0.00443636 0)
(-0.109337 -0.00491501 0)
(-0.0990857 -0.00541442 0)
(-0.08802 -0.0058023 0)
(-0.0762794 -0.00620255 0)
(-0.0640235 -0.0064456 0)
(-0.0515188 -0.00660528 0)
(-0.0390074 -0.00675714 0)
(-0.0269115 -0.00673398 0)
(-0.0156621 -0.0066278 0)
(-0.0020166 -0.0064733 0)
(0.0131981 -0.00620139 0)
(0.0265261 -0.00591266 0)
(0.0387021 -0.00552228 0)
(0.0497464 -0.00508032 0)
(0.0595943 -0.00461352 0)
(0.0681462 -0.00408463 0)
(0.0753275 -0.00352194 0)
(0.0811598 -0.00295231 0)
(0.0857685 -0.00237536 0)
(0.0892626 -0.00182334 0)
(0.0916855 -0.00129189 0)
(0.093019 -0.000792461 0)
(0.0932114 -0.000355599 0)
(0.0924993 9.76021e-05 0)
(0.0912055 0.000549934 0)
(0.0894494 0.000924836 0)
(0.087243 0.00127456 0)
(0.084605 0.00159183 0)
(0.0815904 0.00183966 0)
(0.0782738 0.00207059 0)
(0.0745982 0.00223892 0)
(0.0705703 0.00239406 0)
(0.0661284 0.00250243 0)
(0.0613861 0.00258499 0)
(0.0564647 0.0026306 0)
(0.0513817 0.00265459 0)
(0.0463082 0.00265041 0)
(0.0411645 0.00262795 0)
(0.0360784 0.00258175 0)
(0.0310806 0.00254502 0)
(0.0262251 0.00247316 0)
(0.0213779 0.00240677 0)
(0.016678 0.00235314 0)
(0.0118636 0.00228729 0)
(0.007075 0.00223317 0)
(0.00265174 0.00215856 0)
(-0.00162159 0.00211333 0)
(-0.00576543 0.00207608 0)
(-0.00994372 0.00202129 0)
(-0.0140098 0.0019639 0)
(-0.0180012 0.00190358 0)
(-0.0219065 0.00184135 0)
(-0.0256798 0.00176272 0)
(-0.0293265 0.00168182 0)
(-0.0328169 0.00158596 0)
(-0.0361227 0.00147652 0)
(-0.0392136 0.00134904 0)
(-0.0420292 0.00120553 0)
(-0.0445485 0.00103527 0)
(-0.0467274 0.00084979 0)
(-0.0485169 0.000643084 0)
(-0.0498618 0.000418934 0)
(-0.0507231 0.000181451 0)
(-0.0510658 -7.02372e-05 0)
(-0.0508164 -0.000327677 0)
(-0.0499862 -0.000586298 0)
(-0.0486562 -0.000834887 0)
(-0.0468696 -0.00107383 0)
(-0.0445184 -0.0013051 0)
(-0.0415932 -0.00151474 0)
(-0.0383013 -0.00170239 0)
(-0.0347315 -0.00187481 0)
(-0.0308501 -0.00202186 0)
(-0.0265672 -0.00215619 0)
(-0.0220358 -0.002262 0)
(-0.0175388 -0.00234697 0)
(-0.01291 -0.00241772 0)
(-0.00801529 -0.00245692 0)
(-0.00307964 -0.00247166 0)
(0.00182373 -0.00246468 0)
(0.00674017 -0.00243313 0)
(0.0115907 -0.00237977 0)
(0.0163226 -0.0023033 0)
(0.0208933 -0.00220574 0)
(0.025259 -0.00209223 0)
(0.0293963 -0.00196271 0)
(0.0332274 -0.00181275 0)
(0.0367803 -0.00165854 0)
(0.0400636 -0.00147424 0)
(0.0429146 -0.00130087 0)
(0.0453435 -0.00112348 0)
(0.0474108 -0.000939431 0)
(0.0491141 -0.000754444 0)
(0.050444 -0.000574503 0)
(0.0514249 -0.000396344 0)
(0.0520196 -0.000227945 0)
(0.0522618 -5.67381e-05 0)
(0.052213 0.000104733 0)
(0.0518559 0.000249835 0)
(0.0512094 0.000386401 0)
(0.0502736 0.000522837 0)
(0.0490998 0.000643323 0)
(0.0477153 0.000744469 0)
(0.046112 0.000836046 0)
(0.0443161 0.000924511 0)
(0.0423992 0.000992697 0)
(0.0403403 0.00104507 0)
(0.0381755 0.00109614 0)
(0.035957 0.00111812 0)
(0.0336628 0.00113907 0)
(0.0313397 0.00115224 0)
(0.0290207 0.00115102 0)
(0.0267222 0.00113859 0)
(0.0244445 0.0011158 0)
(0.0222107 0.00109122 0)
(0.0200543 0.00105598 0)
(0.0179804 0.00101721 0)
(0.0159821 0.000973792 0)
(0.0140739 0.000920292 0)
(0.0122596 0.000870193 0)
(0.0105604 0.000816315 0)
(0.00897038 0.000760663 0)
(0.00749239 0.000704401 0)
(0.00613098 0.00065102 0)
(0.00486633 0.000593118 0)
(0.0037222 0.000541128 0)
(0.00268054 0.000486093 0)
(0.00174364 0.000440615 0)
(0.000910551 0.000391036 0)
(0.000176192 0.000342552 0)
(-0.000463803 0.000299769 0)
(-0.00102299 0.000258066 0)
(-0.00150183 0.000218633 0)
(-0.00190452 0.00018211 0)
(-0.00223823 0.000148682 0)
(-0.00250604 0.000117916 0)
(-0.00271316 8.96516e-05 0)
(-0.00286457 6.33676e-05 0)
(-0.00296628 3.95896e-05 0)
(-0.0030243 1.847e-05 0)
(-0.00304449 -1.68737e-11 0)
(-0.00302663 -1.63677e-05 0)
(-0.00297609 -3.16334e-05 0)
(-0.00290049 -4.40865e-05 0)
(-0.00280093 -5.49595e-05 0)
(-0.00268235 -6.37193e-05 0)
(-0.00254713 -7.06108e-05 0)
(-0.00239843 -7.61844e-05 0)
(-0.00223777 -8.07838e-05 0)
(-0.00207036 -8.41551e-05 0)
(-0.00190111 -8.55138e-05 0)
(-0.00172623 -8.66857e-05 0)
(-0.00155019 -8.67538e-05 0)
(-0.00137826 -8.5274e-05 0)
(-0.00120651 -8.41732e-05 0)
(-0.00103848 -8.19626e-05 0)
(-0.000876821 -7.88383e-05 0)
(-0.000720606 -7.59393e-05 0)
(-0.000571918 -7.24068e-05 0)
(-0.000431433 -6.87138e-05 0)
(-0.000297933 -6.49688e-05 0)
(-0.000172465 -6.04775e-05 0)
(-5.6109e-05 -5.64335e-05 0)
(5.24367e-05 -5.22216e-05 0)
(0.000152817 -4.79826e-05 0)
(0.000245076 -4.3826e-05 0)
(0.00032909 -3.97329e-05 0)
(0.000405043 -3.57356e-05 0)
(0.000473199 -3.19002e-05 0)
(0.000533763 -2.81678e-05 0)
(0.000587109 -2.46449e-05 0)
(0.00063351 -2.12847e-05 0)
(0.00067337 -1.81316e-05 0)
(0.000707068 -1.51581e-05 0)
(0.00073493 -1.23713e-05 0)
(0.000757372 -9.77588e-06 0)
(0.000774744 -7.3799e-06 0)
(0.000787478 -5.16186e-06 0)
(0.000795924 -3.13049e-06 0)
(0.000800449 -1.26787e-06 0)
(0.000801375 4.21474e-07 0)
(0.000798977 1.95537e-06 0)
(0.000793627 3.34309e-06 0)
(0.000785616 4.59135e-06 0)
(0.000775219 5.70634e-06 0)
(0.000762702 6.69418e-06 0)
(0.000748313 7.56086e-06 0)
(0.000732293 8.31261e-06 0)
(0.000714867 8.95593e-06 0)
(0.000696246 9.49742e-06 0)
(0.00067663 9.94389e-06 0)
(0.000656203 1.0302e-05 0)
(0.000635138 1.05786e-05 0)
(0.000613591 1.078e-05 0)
(0.000591709 1.09127e-05 0)
(0.000569623 1.09826e-05 0)
(0.000547454 1.09958e-05 0)
(0.000525312 1.09578e-05 0)
(0.000503293 1.08739e-05 0)
(0.000481485 1.07492e-05 0)
(0.000459965 1.05885e-05 0)
(0.000438803 1.03962e-05 0)
(0.000418056 1.01766e-05 0)
(0.000397776 9.93364e-06 0)
(0.000378007 9.67103e-06 0)
(0.000358784 9.39207e-06 0)
(0.000340138 9.10001e-06 0)
(0.000322091 8.79763e-06 0)
(0.000304662 8.48766e-06 0)
(0.000287864 8.17239e-06 0)
(0.000271705 7.8541e-06 0)
(0.000256189 7.53463e-06 0)
(0.000241317 7.21581e-06 0)
(0.000227086 6.89912e-06 0)
(0.00021349 6.586e-06 0)
(0.000200521 6.27755e-06 0)
(0.000188169 5.9749e-06 0)
(0.00017642 5.67885e-06 0)
(0.00016526 5.39022e-06 0)
(0.000154675 5.10956e-06 0)
(0.000144647 4.83745e-06 0)
(0.000135159 4.57421e-06 0)
(0.000126193 4.32022e-06 0)
(0.000117729 4.07564e-06 0)
(0.000109749 3.84066e-06 0)
(0.000102233 3.61529e-06 0)
(9.51615e-05 3.3996e-06 0)
(8.85154e-05 3.1935e-06 0)
(8.22752e-05 2.99693e-06 0)
(7.6422e-05 2.80972e-06 0)
(7.09369e-05 2.63173e-06 0)
(6.58017e-05 2.46274e-06 0)
(6.09983e-05 2.30255e-06 0)
(5.65093e-05 2.15088e-06 0)
(5.23177e-05 2.0075e-06 0)
(4.84071e-05 1.87211e-06 0)
(4.47618e-05 1.74446e-06 0)
(4.13661e-05 1.62421e-06 0)
(3.8205e-05 1.51109e-06 0)
(3.5264e-05 1.40476e-06 0)
(3.25292e-05 1.30492e-06 0)
(2.99873e-05 1.21125e-06 0)
(2.7626e-05 1.12348e-06 0)
(2.54334e-05 1.04128e-06 0)
(2.33984e-05 9.6439e-07 0)
(2.15107e-05 8.92523e-07 0)
(1.97605e-05 8.25423e-07 0)
(1.81386e-05 7.62821e-07 0)
(1.66365e-05 7.04478e-07 0)
(1.52464e-05 6.50147e-07 0)
(1.39607e-05 5.99604e-07 0)
(1.27724e-05 5.52619e-07 0)
(1.16751e-05 5.08987e-07 0)
(1.06625e-05 4.68494e-07 0)
(9.72893e-06 4.3095e-07 0)
(8.86883e-06 3.96161e-07 0)
(8.0771e-06 3.63951e-07 0)
(7.34889e-06 3.34146e-07 0)
(6.67964e-06 3.06586e-07 0)
(6.06508e-06 2.81114e-07 0)
(5.5012e-06 2.57585e-07 0)
(4.98424e-06 2.3586e-07 0)
(4.51068e-06 2.15812e-07 0)
(4.07727e-06 1.97318e-07 0)
(3.68094e-06 1.80265e-07 0)
(3.31886e-06 1.64546e-07 0)
(2.98838e-06 1.50064e-07 0)
(2.68706e-06 1.36725e-07 0)
(2.41262e-06 1.24446e-07 0)
(2.16294e-06 1.13146e-07 0)
(1.93606e-06 1.02755e-07 0)
(1.73016e-06 9.32028e-08 0)
(1.54355e-06 8.44287e-08 0)
(1.37466e-06 7.63746e-08 0)
(1.22203e-06 6.89874e-08 0)
(1.08432e-06 6.22178e-08 0)
(9.6027e-07 5.60205e-08 0)
(8.48724e-07 5.03531e-08 0)
(7.48602e-07 4.5177e-08 0)
(6.58906e-07 4.04557e-08 0)
(5.7871e-07 3.61557e-08 0)
(5.07156e-07 3.22457e-08 0)
(4.43452e-07 2.86964e-08 0)
(3.86861e-07 2.54806e-08 0)
(3.36707e-07 2.25728e-08 0)
(2.92362e-07 1.99491e-08 0)
(2.5325e-07 1.75871e-08 0)
(2.18839e-07 1.54657e-08 0)
(1.88644e-07 1.35652e-08 0)
(1.62216e-07 1.1867e-08 0)
(1.39147e-07 1.03537e-08 0)
(1.19065e-07 9.00898e-09 0)
(1.01631e-07 7.81749e-09 0)
(8.65375e-08 6.76489e-09 0)
(7.35066e-08 5.83784e-09 0)
(6.22879e-08 5.02388e-09 0)
(5.26562e-08 4.31146e-09 0)
(4.44099e-08 3.68988e-09 0)
(3.73693e-08 3.1493e-09 0)
(3.13745e-08 2.68067e-09 0)
(2.6284e-08 2.2757e-09 0)
(2.19729e-08 1.92687e-09 0)
(1.83313e-08 1.62735e-09 0)
(1.52631e-08 1.37097e-09 0)
(1.26844e-08 1.15218e-09 0)
(1.05224e-08 9.66052e-10 0)
(8.71398e-09 8.08167e-10 0)
(7.20468e-09 6.74628e-10 0)
(5.94775e-09 5.61997e-10 0)
(4.90314e-09 4.67257e-10 0)
(4.03667e-09 3.87775e-10 0)
(3.31928e-09 3.2126e-10 0)
(2.72635e-09 2.65731e-10 0)
(2.23707e-09 2.1948e-10 0)
(1.83391e-09 1.81041e-10 0)
(1.50215e-09 1.49159e-10 0)
(1.22947e-09 1.22769e-10 0)
(1.00558e-09 1.00963e-10 0)
(8.21898e-10 8.29772e-11 0)
(6.71303e-10 6.81651e-11 0)
(5.4789e-10 5.59849e-11 0)
(4.46772e-10 4.59826e-11 0)
(3.63916e-10 3.77792e-11 0)
(2.95995e-10 3.10593e-11 0)
(2.40274e-10 2.55613e-11 0)
(1.94501e-10 2.1069e-11 0)
(1.56826e-10 1.74045e-11 0)
(1.25726e-10 1.4422e-11 0)
(9.99447e-11 1.20028e-11 0)
(7.84456e-11 1.00507e-11 0)
(6.03711e-11 8.48812e-12 0)
(4.50218e-11 7.25344e-12 0)
(3.18704e-11 6.29818e-12 0)
(2.07159e-11 5.58495e-12 0)