/*--------------------------------*- C++ -*----------------------------------*\
| =========                 |                                                 |
| \\      /  F ield         | OpenFOAM: The Open Source CFD Toolbox           |
|  \\    /   O peration     | Version:  3.0.1                                 |
|   \\  /    A nd           | Web:      www.OpenFOAM.org                      |
|    \\/     M anipulation  |                                                 |
\*---------------------------------------------------------------------------*/
FoamFile
{
    version     2.0;
    format      ascii;
    class       volVectorField;
    location    "91.6";
    object      U;
}
// * * * * * * * * * * * * * * * * * * * * * * * * * * * * * * * * * * * * * //

dimensions      [0 1 -1 0 0 0 0];

internalField   nonuniform List<vector> 
21420
(
(-0.189973 -0.000185609 0)
(-0.18801 -0.000258517 0)
(-0.185032 -0.000332234 0)
(-0.181298 -0.000407854 0)
(-0.176782 -0.000487814 0)
(-0.171457 -0.000568745 0)
(-0.165292 -0.00065593 0)
(-0.158254 -0.000743008 0)
(-0.150307 -0.000832494 0)
(-0.14142 -0.000931483 0)
(-0.131566 -0.00102577 0)
(-0.120721 -0.00112067 0)
(-0.108871 -0.00122827 0)
(-0.0960131 -0.00132248 0)
(-0.0821594 -0.00143118 0)
(-0.0673386 -0.00151868 0)
(-0.051597 -0.00159852 0)
(-0.0349954 -0.00169613 0)
(-0.0176134 -0.00175818 0)
(0.000403561 -0.00180092 0)
(0.0189193 -0.0018666 0)
(0.0377933 -0.00187863 0)
(0.056808 -0.00186808 0)
(0.0757464 -0.00187239 0)
(0.0943729 -0.00181567 0)
(0.112432 -0.00176732 0)
(0.129668 -0.00166073 0)
(0.145805 -0.00152923 0)
(0.160577 -0.00139434 0)
(0.17374 -0.00121681 0)
(0.185061 -0.00102011 0)
(0.19433 -0.000811713 0)
(0.201389 -0.000582061 0)
(0.206101 -0.000343661 0)
(0.208353 -0.000102228 0)
(0.208201 0.000141849 0)
(0.205546 0.000384206 0)
(0.200444 0.000621859 0)
(0.193064 0.000852435 0)
(0.183511 0.00104524 0)
(0.171976 0.00123984 0)
(0.158659 0.00138541 0)
(0.143814 0.00153287 0)
(0.127668 0.0016597 0)
(0.110442 0.00172917 0)
(0.0924675 0.00180155 0)
(0.0739593 0.00184734 0)
(0.0550813 0.00184506 0)
(0.0361486 0.0018467 0)
(0.0174153 0.00182978 0)
(-0.000460535 0.00177966 0)
(-0.0176636 0.00172537 0)
(-0.0345908 0.001648 0)
(-0.0508229 0.00157576 0)
(-0.0662594 0.00149352 0)
(-0.0808284 0.00139924 0)
(-0.0944995 0.00130964 0)
(-0.107233 0.00121552 0)
(-0.119019 0.00111923 0)
(-0.12987 0.00102674 0)
(-0.139805 0.000932987 0)
(-0.148841 0.00084502 0)
(-0.15696 0.000755225 0)
(-0.164207 0.000669072 0)
(-0.17063 0.000586891 0)
(-0.176176 0.000500711 0)
(-0.180864 0.000418922 0)
(-0.184762 0.000339402 0)
(-0.187864 0.000253823 0)
(-0.19016 0.000185215 0)
(-0.191608 0.000107533 0)
(-0.192253 2.24439e-05 0)
(-0.192175 -4.69586e-05 0)
(-0.191338 -0.000130659 0)
(-0.189638 -0.000217366 0)
(-0.187179 -0.000293978 0)
(-0.183904 -0.000387366 0)
(-0.17975 -0.000458346 0)
(-0.174703 -0.000544239 0)
(-0.168817 -0.00063007 0)
(-0.162243 -0.000715639 0)
(-0.154641 -0.000792805 0)
(-0.14622 -0.000888812 0)
(-0.136941 -0.000980678 0)
(-0.126622 -0.00106333 0)
(-0.115533 -0.00116934 0)
(-0.103326 -0.00125674 0)
(-0.0901066 -0.00135252 0)
(-0.0760539 -0.00143386 0)
(-0.0611822 -0.00151067 0)
(-0.0456162 -0.00157711 0)
(-0.0294242 -0.00162879 0)
(-0.0127949 -0.0016765 0)
(0.00427926 -0.00170874 0)
(0.021694 -0.00173527 0)
(0.0392737 -0.00175095 0)
(0.056931 -0.00175371 0)
(0.0745384 -0.00174038 0)
(0.0919293 -0.00170474 0)
(0.108882 -0.00165532 0)
(0.125235 -0.0015838 0)
(0.140743 -0.00148901 0)
(0.155192 -0.00137266 0)
(0.168343 -0.00123019 0)
(0.179954 -0.00106639 0)
(0.189818 -0.000888595 0)
(0.197774 -0.000688109 0)
(0.203633 -0.00047064 0)
(0.207257 -0.000244891 0)
(0.208533 -1.22216e-05 0)
(0.207492 0.00022691 0)
(0.203922 0.00046406 0)
(0.198043 0.000694027 0)
(0.189915 0.000920464 0)
(0.179626 0.0011195 0)
(0.167378 0.00130854 0)
(0.153391 0.0014695 0)
(0.137879 0.00160559 0)
(0.121118 0.00171567 0)
(0.103383 0.00180199 0)
(0.0849346 0.00185547 0)
(0.0660518 0.00188935 0)
(0.0470209 0.00188951 0)
(0.0280607 0.00187261 0)
(0.00937327 0.00183084 0)
(-0.00884363 0.00177713 0)
(-0.0264115 0.00171146 0)
(-0.0432216 0.00162221 0)
(-0.0591587 0.00153297 0)
(-0.074096 0.00143577 0)
(-0.0880273 0.00132994 0)
(-0.100906 0.00122742 0)
(-0.112717 0.00111613 0)
(-0.123467 0.00100821 0)
(-0.133122 0.000914538 0)
(-0.141759 0.000805502 0)
(-0.149405 0.000711976 0)
(-0.156084 0.000612082 0)
(-0.161856 0.000531105 0)
(-0.16677 0.000448312 0)
(-0.170865 0.000366486 0)
(-0.174203 0.000294242 0)
(-0.176839 0.000222256 0)
(-0.178766 0.000166222 0)
(-0.180047 0.000100311 0)
(-0.180737 3.84405e-05 0)
(-0.180829 -1.51454e-05 0)
(-0.180346 -7.64568e-05 0)
(-0.17929 -0.000133693 0)
(-0.177664 -0.000192897 0)
(-0.175471 -0.000248461 0)
(-0.172668 -0.000299993 0)
(-0.169269 -0.000366209 0)
(-0.165281 -0.000423499 0)
(-0.16064 -0.000487569 0)
(-0.155337 -0.000559944 0)
(-0.149305 -0.000632258 0)
(-0.142534 -0.000705036 0)
(-0.135006 -0.000787097 0)
(-0.12667 -0.000861918 0)
(-0.11751 -0.000948014 0)
(-0.107527 -0.00103356 0)
(-0.0966798 -0.00112113 0)
(-0.084965 -0.00120062 0)
(-0.0724307 -0.00128633 0)
(-0.0590477 -0.00135876 0)
(-0.0448563 -0.0014436 0)
(-0.0299335 -0.00151923 0)
(-0.0142986 -0.00158108 0)
(0.00192167 -0.0016313 0)
(0.0185918 -0.00166739 0)
(0.0355325 -0.00169233 0)
(0.052611 -0.00169062 0)
(0.069604 -0.00167927 0)
(0.0863657 -0.00164137 0)
(0.102629 -0.00158316 0)
(0.118194 -0.00150019 0)
(0.1328 -0.00139574 0)
(0.146202 -0.00125668 0)
(0.158145 -0.00110549 0)
(0.168414 -0.000929911 0)
(0.176812 -0.00073238 0)
(0.183139 -0.000519772 0)
(0.187247 -0.000292844 0)
(0.189013 -6.37288e-05 0)
(0.188478 0.000169509 0)
(0.185503 0.000408077 0)
(0.180235 0.000635352 0)
(0.172767 0.00084829 0)
(0.163211 0.00104279 0)
(0.151779 0.00121987 0)
(0.138692 0.00137265 0)
(0.124179 0.00150317 0)
(0.108479 0.00161009 0)
(0.09182 0.00168996 0)
(0.0744718 0.00174574 0)
(0.0566966 0.00178317 0)
(0.0387466 0.00178077 0)
(0.020912 0.00175795 0)
(0.0034127 0.00171554 0)
(-0.0135638 0.00165565 0)
(-0.0298735 0.00158817 0)
(-0.045458 0.00150694 0)
(-0.0602881 0.00143016 0)
(-0.0743221 0.00135689 0)
(-0.0876003 0.00127329 0)
(-0.100103 0.00119842 0)
(-0.111692 0.00110051 0)
(-0.122338 0.00100509 0)
(-0.131968 0.000907182 0)
(-0.140536 0.000799736 0)
(-0.148059 0.000703699 0)
(-0.154582 0.000600839 0)
(-0.1602 0.000512923 0)
(-0.165012 0.00044206 0)
(-0.169106 0.000372877 0)
(-0.172593 0.000319375 0)
(-0.175557 0.000270909 0)
(-0.178036 0.000222873 0)
(-0.180057 0.000170088 0)
(-0.18155 0.000125781 0)
(-0.182469 6.513e-05 0)
(-0.182822 6.10499e-06 0)
(-0.182514 -5.89387e-05 0)
(-0.181587 -0.000123817 0)
(-0.180031 -0.000191928 0)
(-0.177832 -0.000236171 0)
(-0.175091 -0.000294311 0)
(-0.171843 -0.000343008 0)
(-0.168159 -0.000394052 0)
(-0.163956 -0.00044225 0)
(-0.159246 -0.000494024 0)
(-0.153946 -0.000555358 0)
(-0.147943 -0.00063049 0)
(-0.141207 -0.00070407 0)
(-0.133689 -0.000778799 0)
(-0.125448 -0.000862218 0)
(-0.116435 -0.000918943 0)
(-0.10671 -0.000998104 0)
(-0.0963009 -0.00106861 0)
(-0.0851656 -0.00114314 0)
(-0.0732962 -0.00121327 0)
(-0.0606662 -0.00128937 0)
(-0.0472554 -0.00136762 0)
(-0.0330804 -0.00144092 0)
(-0.0181737 -0.00151429 0)
(-0.00257145 -0.00157608 0)
(0.0135563 -0.00161675 0)
(0.0300149 -0.00164136 0)
(0.0465759 -0.00164379 0)
(0.063064 -0.00162296 0)
(0.0791937 -0.00157242 0)
(0.0947052 -0.0014997 0)
(0.109365 -0.00140544 0)
(0.122938 -0.00128329 0)
(0.135177 -0.00113868 0)
(0.145852 -0.000969595 0)
(0.154736 -0.000787154 0)
(0.161629 -0.000579644 0)
(0.166377 -0.00035931 0)
(0.168822 -0.000129293 0)
(0.168935 0.000106492 0)
(0.166633 0.000350507 0)
(0.161908 0.000581478 0)
(0.154926 0.000804044 0)
(0.145862 0.00100326 0)
(0.134963 0.00117722 0)
(0.12237 0.00132266 0)
(0.108553 0.00142603 0)
(0.0937664 0.0015108 0)
(0.0782366 0.00157794 0)
(0.0623468 0.00159569 0)
(0.0460559 0.0016152 0)
(0.0297185 0.00161583 0)
(0.0137395 0.00158551 0)
(-0.00166982 0.00153344 0)
(-0.0164827 0.00147001 0)
(-0.0306961 0.00138755 0)
(-0.0439716 0.00128845 0)
(-0.0562261 0.00118316 0)
(-0.0674641 0.00108503 0)
(-0.0777329 0.000985898 0)
(-0.0871344 0.000904084 0)
(-0.0957194 0.000821212 0)
(-0.103643 0.00075099 0)
(-0.111015 0.000690072 0)
(-0.117736 0.000626218 0)
(-0.123863 0.000564678 0)
(-0.129402 0.00051136 0)
(-0.134324 0.000448701 0)
(-0.138693 0.000400685 0)
(-0.142457 0.000343161 0)
(-0.145633 0.000286364 0)
(-0.148308 0.000238928 0)
(-0.150433 0.000186956 0)
(-0.152038 0.000140155 0)
(-0.153207 9.94458e-05 0)
(-0.153951 5.70303e-05 0)
(-0.154317 2.01746e-05 0)
(-0.154338 -1.07606e-05 0)
(-0.153999 -4.77912e-05 0)
(-0.153355 -7.79594e-05 0)
(-0.152363 -0.000115464 0)
(-0.150977 -0.000156554 0)
(-0.149183 -0.000197585 0)
(-0.146902 -0.000248006 0)
(-0.144042 -0.000310158 0)
(-0.140551 -0.000377384 0)
(-0.136307 -0.000460603 0)
(-0.13122 -0.000543842 0)
(-0.125223 -0.000639013 0)
(-0.11819 -0.000748701 0)
(-0.110087 -0.000851141 0)
(-0.100908 -0.000959583 0)
(-0.090577 -0.00108058 0)
(-0.0791005 -0.00118369 0)
(-0.0665262 -0.00130371 0)
(-0.052905 -0.0013967 0)
(-0.0383023 -0.00148182 0)
(-0.0228518 -0.00158164 0)
(-0.00670241 -0.00163649 0)
(0.0100501 -0.00167977 0)
(0.0272964 -0.00173665 0)
(0.0448478 -0.00174338 0)
(0.0624846 -0.00176022 0)
(0.0799983 -0.00172556 0)
(0.0971418 -0.00166643 0)
(0.113679 -0.00161136 0)
(0.129384 -0.00150823 0)
(0.144015 -0.00138352 0)
(0.157351 -0.00125541 0)
(0.169198 -0.00109412 0)
(0.179382 -0.000919598 0)
(0.187762 -0.000738335 0)
(0.194235 -0.000544243 0)
(0.198738 -0.000346327 0)
(0.201238 -0.00014662 0)
(0.201729 4.78405e-05 0)
(0.200319 0.000236131 0)
(0.19693 0.000422928 0)
(0.191786 0.000598155 0)
(0.184964 0.000753639 0)
(0.176597 0.000903666 0)
(0.166828 0.00102753 0)
(0.15581 0.00114846 0)
(0.143693 0.00125633 0)
(0.130633 0.00133059 0)
(0.116788 0.0014079 0)
(0.102307 0.00147177 0)
(0.0873383 0.00149907 0)
(0.0720257 0.00153423 0)
(0.0565046 0.00153368 0)
(0.0408931 0.00154272 0)
(0.0252157 0.00153961 0)
(0.00916275 0.00150261 0)
(-0.00599332 0.00148891 0)
(-0.0217995 0.00145294 0)
(-0.190001 -0.000556703 0)
(-0.188039 -0.000775478 0)
(-0.185062 -0.000996598 0)
(-0.181329 -0.00122344 0)
(-0.176814 -0.00146332 0)
(-0.171491 -0.0017061 0)
(-0.165327 -0.00196765 0)
(-0.15829 -0.00222889 0)
(-0.150345 -0.00249736 0)
(-0.141459 -0.00279433 0)
(-0.131606 -0.00307722 0)
(-0.120761 -0.00336196 0)
(-0.108911 -0.0036848 0)
(-0.0960531 -0.0039675 0)
(-0.082199 -0.00429365 0)
(-0.0673763 -0.00455625 0)
(-0.0516319 -0.00479583 0)
(-0.0350277 -0.00508881 0)
(-0.0176405 -0.00527494 0)
(0.000382085 -0.00540338 0)
(0.0189035 -0.00560058 0)
(0.0377855 -0.0056367 0)
(0.0568086 -0.00560512 0)
(0.0757566 -0.00561816 0)
(0.0943926 -0.00544805 0)
(0.112463 -0.00530306 0)
(0.129709 -0.00498329 0)
(0.145856 -0.00458874 0)
(0.160639 -0.00418409 0)
(0.173811 -0.00365123 0)
(0.185139 -0.0030617 0)
(0.194417 -0.00243523 0)
(0.201479 -0.00174845 0)
(0.206196 -0.00103437 0)
(0.208459 -0.00030161 0)
(0.208302 0.000425854 0)
(0.205636 0.00115287 0)
(0.200537 0.00186564 0)
(0.193154 0.00255775 0)
(0.183592 0.00313633 0)
(0.172051 0.0037203 0)
(0.158725 0.00415703 0)
(0.143871 0.00459955 0)
(0.127715 0.00498008 0)
(0.11048 0.00518841 0)
(0.0924951 0.00540568 0)
(0.0739778 0.00554305 0)
(0.0550919 0.00553599 0)
(0.0361515 0.00554118 0)
(0.0174119 0.00548998 0)
(-0.000470776 0.00533945 0)
(-0.0176804 0.00517662 0)
(-0.034611 0.00494463 0)
(-0.0508471 0.00472779 0)
(-0.0662869 0.00448115 0)
(-0.080858 0.00419825 0)
(-0.0945313 0.00392941 0)
(-0.107266 0.00364735 0)
(-0.119054 0.00335794 0)
(-0.129907 0.00307992 0)
(-0.139842 0.00279961 0)
(-0.14888 0.00253483 0)
(-0.157 0.00226657 0)
(-0.164248 0.00200771 0)
(-0.170673 0.00176192 0)
(-0.176221 0.00150154 0)
(-0.18091 0.00125739 0)
(-0.184812 0.00101932 0)
(-0.187912 0.000762632 0)
(-0.190212 0.000554424 0)
(-0.191666 0.000323939 0)
(-0.19231 6.89608e-05 0)
(-0.192232 -0.000140593 0)
(-0.191396 -0.000393897 0)
(-0.189699 -0.000651779 0)
(-0.187238 -0.00088093 0)
(-0.183964 -0.0011625 0)
(-0.179809 -0.00137414 0)
(-0.174765 -0.00163315 0)
(-0.168876 -0.00188785 0)
(-0.162306 -0.00215271 0)
(-0.154698 -0.00237787 0)
(-0.146281 -0.00267014 0)
(-0.13699 -0.00293258 0)
(-0.126675 -0.00319096 0)
(-0.115579 -0.00351463 0)
(-0.103366 -0.00376805 0)
(-0.0901415 -0.0040595 0)
(-0.07608 -0.0043091 0)
(-0.0612001 -0.00454472 0)
(-0.0456153 -0.00473987 0)
(-0.0294144 -0.00490346 0)
(-0.0127598 -0.00503183 0)
(0.00433097 -0.00512038 0)
(0.0217616 -0.00520455 0)
(0.0393421 -0.00525655 0)
(0.0570149 -0.0052599 0)
(0.0746284 -0.0052151 0)
(0.0920071 -0.0051269 0)
(0.108976 -0.00496768 0)
(0.125328 -0.00475245 0)
(0.140841 -0.00447568 0)
(0.155294 -0.00411683 0)
(0.168442 -0.00369615 0)
(0.180057 -0.00321214 0)
(0.189933 -0.0026643 0)
(0.197885 -0.00206809 0)
(0.20375 -0.00141153 0)
(0.207375 -0.000736887 0)
(0.20865 -4.21421e-05 0)
(0.207599 0.000671706 0)
(0.20403 0.00139686 0)
(0.198143 0.002087 0)
(0.190004 0.00275811 0)
(0.179705 0.00335536 0)
(0.167437 0.00392467 0)
(0.153428 0.00440415 0)
(0.137897 0.00482034 0)
(0.121117 0.0051528 0)
(0.103359 0.00540223 0)
(0.0848899 0.00556361 0)
(0.0659865 0.00566288 0)
(0.0469355 0.00567294 0)
(0.0279527 0.00562302 0)
(0.00924017 0.00549531 0)
(-0.00899392 0.00533707 0)
(-0.0265786 0.00514731 0)
(-0.0434097 0.00487025 0)
(-0.0593579 0.00460199 0)
(-0.0743146 0.00431316 0)
(-0.0882627 0.00398989 0)
(-0.101154 0.00368414 0)
(-0.112972 0.00334928 0)
(-0.12372 0.00302457 0)
(-0.133386 0.00274314 0)
(-0.142028 0.00241245 0)
(-0.149673 0.00213766 0)
(-0.156353 0.00184481 0)
(-0.162135 0.00158681 0)
(-0.167044 0.00133867 0)
(-0.171135 0.00110287 0)
(-0.174479 0.000874188 0)
(-0.177104 0.000665093 0)
(-0.17903 0.000489977 0)
(-0.180312 0.000292995 0)
(-0.180982 0.000121209 0)
(-0.181082 -5.98598e-05 0)
(-0.180574 -0.000227737 0)
(-0.17952 -0.000398873 0)
(-0.177885 -0.000572554 0)
(-0.175688 -0.000750144 0)
(-0.172876 -0.000903102 0)
(-0.169483 -0.0010974 0)
(-0.165488 -0.00127896 0)
(-0.160851 -0.00148078 0)
(-0.155524 -0.00168308 0)
(-0.14949 -0.00189956 0)
(-0.142725 -0.00212188 0)
(-0.135177 -0.0023621 0)
(-0.126845 -0.00259844 0)
(-0.117677 -0.00285036 0)
(-0.10768 -0.00309061 0)
(-0.096832 -0.00335738 0)
(-0.0851151 -0.00360333 0)
(-0.0725807 -0.00387007 0)
(-0.0591889 -0.0041004 0)
(-0.0449827 -0.00433743 0)
(-0.0300362 -0.00455196 0)
(-0.0144005 -0.00473766 0)
(0.0018261 -0.00489611 0)
(0.018499 -0.00501323 0)
(0.0354672 -0.00506907 0)
(0.0525409 -0.00509104 0)
(0.0695725 -0.00503457 0)
(0.0863283 -0.00493069 0)
(0.102622 -0.00475186 0)
(0.118199 -0.00450592 0)
(0.132819 -0.00418492 0)
(0.146229 -0.00377903 0)
(0.158182 -0.00331751 0)
(0.16846 -0.00279034 0)
(0.176869 -0.00220496 0)
(0.183204 -0.00155874 0)
(0.187306 -0.000886651 0)
(0.189073 -0.000197899 0)
(0.188536 0.000514256 0)
(0.18555 0.00123093 0)
(0.180271 0.00190448 0)
(0.172789 0.00253841 0)
(0.163222 0.00313465 0)
(0.151776 0.0036666 0)
(0.138662 0.00412557 0)
(0.124122 0.00451422 0)
(0.108404 0.00483049 0)
(0.0917269 0.00507291 0)
(0.074359 0.00523467 0)
(0.0565536 0.00534413 0)
(0.0385787 0.00533906 0)
(0.0207257 0.00527892 0)
(0.00321138 0.00514849 0)
(-0.0137795 0.00497041 0)
(-0.0301041 0.00476186 0)
(-0.0456899 0.00451723 0)
(-0.0605191 0.00429544 0)
(-0.074562 0.00407615 0)
(-0.0878451 0.00381917 0)
(-0.10035 0.00358903 0)
(-0.111943 0.00330857 0)
(-0.122596 0.00302252 0)
(-0.132234 0.00271868 0)
(-0.140808 0.00239931 0)
(-0.148332 0.00209028 0)
(-0.154839 0.00180185 0)
(-0.160447 0.00154341 0)
(-0.165251 0.00131981 0)
(-0.16933 0.00112117 0)
(-0.172815 0.000954027 0)
(-0.175778 0.000799875 0)
(-0.178249 0.000667574 0)
(-0.180263 0.000513599 0)
(-0.181757 0.000369004 0)
(-0.182669 0.000198759 0)
(-0.183021 1.15585e-05 0)
(-0.182707 -0.000177559 0)
(-0.181778 -0.000375793 0)
(-0.18021 -0.000568008 0)
(-0.17802 -0.000724268 0)
(-0.175255 -0.000884482 0)
(-0.172021 -0.00104326 0)
(-0.168313 -0.00118457 0)
(-0.164113 -0.00131406 0)
(-0.159405 -0.00148391 0)
(-0.154105 -0.00166893 0)
(-0.148104 -0.00189507 0)
(-0.14137 -0.00210866 0)
(-0.133861 -0.0023534 0)
(-0.125591 -0.00258149 0)
(-0.116594 -0.00277026 0)
(-0.106866 -0.00299672 0)
(-0.0964523 -0.00320141 0)
(-0.0853167 -0.00341685 0)
(-0.0734611 -0.00364815 0)
(-0.0608299 -0.00387256 0)
(-0.0474185 -0.00410574 0)
(-0.0332438 -0.00433375 0)
(-0.0183166 -0.0045434 0)
(-0.00269962 -0.00473129 0)
(0.0134548 -0.00484799 0)
(0.0299159 -0.00493249 0)
(0.0465102 -0.00493662 0)
(0.0630135 -0.0048665 0)
(0.0791568 -0.00472368 0)
(0.0946905 -0.00450472 0)
(0.10937 -0.00421557 0)
(0.122958 -0.00385392 0)
(0.135209 -0.00341912 0)
(0.145906 -0.00291477 0)
(0.154804 -0.00236201 0)
(0.161708 -0.00174813 0)
(0.166469 -0.00108149 0)
(0.168922 -0.000386831 0)
(0.169036 0.000312263 0)
(0.166727 0.00105057 0)
(0.162007 0.00175121 0)
(0.155016 0.00240896 0)
(0.145942 0.00301103 0)
(0.135031 0.00353097 0)
(0.122427 0.00397328 0)
(0.108597 0.00428263 0)
(0.093798 0.00453463 0)
(0.0782555 0.00472978 0)
(0.0623576 0.00479086 0)
(0.0460613 0.00484808 0)
(0.0297092 0.00484854 0)
(0.0137192 0.00475939 0)
(-0.00169474 0.00460099 0)
(-0.0165178 0.00441132 0)
(-0.0307399 0.00416218 0)
(-0.0440207 0.00386534 0)
(-0.0562757 0.00355235 0)
(-0.0675146 0.00325728 0)
(-0.0777793 0.00295759 0)
(-0.0871785 0.00271214 0)
(-0.0957605 0.00246293 0)
(-0.103679 0.00225397 0)
(-0.111049 0.00207229 0)
(-0.117771 0.00187655 0)
(-0.123894 0.0016948 0)
(-0.129434 0.00153286 0)
(-0.134354 0.00134773 0)
(-0.138723 0.0012019 0)
(-0.142487 0.00102933 0)
(-0.145662 0.000859298 0)
(-0.148335 0.000716247 0)
(-0.15046 0.000560765 0)
(-0.152062 0.000420003 0)
(-0.153231 0.000297808 0)
(-0.153974 0.000171332 0)
(-0.154337 6.36947e-05 0)
(-0.154357 -3.37372e-05 0)
(-0.154019 -0.000142936 0)
(-0.153374 -0.000233622 0)
(-0.152383 -0.00034653 0)
(-0.150999 -0.000469236 0)
(-0.149207 -0.000592381 0)
(-0.146929 -0.000743486 0)
(-0.144073 -0.000929954 0)
(-0.140586 -0.00113168 0)
(-0.136345 -0.00138126 0)
(-0.131261 -0.00163108 0)
(-0.125268 -0.0019167 0)
(-0.118238 -0.00224563 0)
(-0.110136 -0.00255326 0)
(-0.100958 -0.00287875 0)
(-0.0906262 -0.00324174 0)
(-0.0791485 -0.00355116 0)
(-0.0665727 -0.00391133 0)
(-0.0529486 -0.00419063 0)
(-0.0383422 -0.00444538 0)
(-0.0228859 -0.00474541 0)
(-0.00673056 -0.0049101 0)
(0.0100276 -0.00503999 0)
(0.0272813 -0.00521065 0)
(0.0448408 -0.00523091 0)
(0.0624866 -0.0052816 0)
(0.0800095 -0.00517764 0)
(0.0971622 -0.00500024 0)
(0.11371 -0.00483506 0)
(0.129424 -0.00452559 0)
(0.144063 -0.00415143 0)
(0.157408 -0.00376705 0)
(0.169262 -0.00328303 0)
(0.179452 -0.00275935 0)
(0.187836 -0.0022154 0)
(0.194312 -0.0016329 0)
(0.198816 -0.00103882 0)
(0.201317 -0.000439516 0)
(0.201811 0.000142489 0)
(0.200389 0.000709246 0)
(0.197001 0.00126907 0)
(0.191853 0.00179489 0)
(0.185025 0.00226141 0)
(0.176653 0.00271154 0)
(0.166878 0.00308316 0)
(0.155854 0.00344597 0)
(0.143731 0.00376959 0)
(0.130664 0.00399236 0)
(0.116814 0.0042243 0)
(0.102327 0.00441591 0)
(0.0873524 0.00449776 0)
(0.0720345 0.00460323 0)
(0.0565081 0.00460155 0)
(0.0408917 0.00462866 0)
(0.0252093 0.0046193 0)
(0.00915436 0.00450836 0)
(-0.00600561 0.004467 0)
(-0.0218184 0.00435911 0)
(-0.190058 -0.000927572 0)
(-0.188097 -0.00129222 0)
(-0.185122 -0.00166068 0)
(-0.18139 -0.00203869 0)
(-0.176878 -0.00243848 0)
(-0.171557 -0.00284308 0)
(-0.165396 -0.00327899 0)
(-0.158362 -0.00371439 0)
(-0.150418 -0.00416187 0)
(-0.141536 -0.00465687 0)
(-0.131684 -0.00512846 0)
(-0.12084 -0.00560315 0)
(-0.108991 -0.00614139 0)
(-0.0961313 -0.00661274 0)
(-0.0822763 -0.00715656 0)
(-0.0674493 -0.00759446 0)
(-0.0516991 -0.00799399 0)
(-0.0350896 -0.00848244 0)
(-0.0176914 -0.00879302 0)
(0.000342515 -0.00900796 0)
(0.0188754 -0.00933688 0)
(0.0377737 -0.00939721 0)
(0.0568137 -0.00934477 0)
(0.0757812 -0.00936682 0)
(0.0944363 -0.00908341 0)
(0.11253 -0.00884199 0)
(0.129796 -0.00830898 0)
(0.145962 -0.00765124 0)
(0.160767 -0.00697671 0)
(0.173956 -0.00608842 0)
(0.185299 -0.00510507 0)
(0.194593 -0.00406075 0)
(0.201665 -0.00291477 0)
(0.206389 -0.0017236 0)
(0.208662 -0.000502857 0)
(0.208498 0.000707851 0)
(0.205813 0.00192272 0)
(0.200717 0.00311027 0)
(0.193325 0.00426496 0)
(0.183747 0.0052297 0)
(0.172189 0.00620346 0)
(0.158843 0.00693146 0)
(0.14397 0.00766928 0)
(0.127795 0.00830358 0)
(0.110539 0.00865038 0)
(0.0925328 0.00901279 0)
(0.0739963 0.00924163 0)
(0.0550943 0.00922895 0)
(0.036138 0.00923929 0)
(0.0173857 0.00915179 0)
(-0.000510509 0.00889966 0)
(-0.0177328 0.00862897 0)
(-0.0346695 0.00824237 0)
(-0.0509123 0.00788066 0)
(-0.0663571 0.00746935 0)
(-0.0809306 0.00699771 0)
(-0.094606 0.00654962 0)
(-0.107342 0.00607925 0)
(-0.119129 0.00559719 0)
(-0.129981 0.00513395 0)
(-0.139915 0.00466516 0)
(-0.14895 0.00422664 0)
(-0.15707 0.00377849 0)
(-0.164316 0.00334681 0)
(-0.170741 0.00293561 0)
(-0.176283 0.00250518 0)
(-0.180972 0.00209653 0)
(-0.184883 0.00169689 0)
(-0.187974 0.00126913 0)
(-0.19027 0.00092656 0)
(-0.191737 0.000543036 0)
(-0.192379 0.000113812 0)
(-0.192298 -0.000235937 0)
(-0.191462 -0.000653859 0)
(-0.189769 -0.00108817 0)
(-0.187309 -0.00147017 0)
(-0.184032 -0.00193504 0)
(-0.179881 -0.00229219 0)
(-0.174836 -0.00271819 0)
(-0.168953 -0.00315144 0)
(-0.162377 -0.00358348 0)
(-0.154775 -0.00396139 0)
(-0.146365 -0.00445342 0)
(-0.137076 -0.00490158 0)
(-0.126757 -0.00531 0)
(-0.115666 -0.00585746 0)
(-0.103452 -0.00628974 0)
(-0.0902223 -0.00677159 0)
(-0.0761489 -0.00717797 0)
(-0.0612624 -0.00757151 0)
(-0.0456706 -0.00789567 0)
(-0.029462 -0.00816769 0)
(-0.0128025 -0.00839874 0)
(0.0042987 -0.00854417 0)
(0.0217289 -0.00868248 0)
(0.0393132 -0.00876218 0)
(0.0569901 -0.00876863 0)
(0.0745974 -0.00870163 0)
(0.0919849 -0.00854051 0)
(0.10896 -0.00827891 0)
(0.125319 -0.00792666 0)
(0.140848 -0.00745018 0)
(0.155305 -0.00686797 0)
(0.168463 -0.00616033 0)
(0.180084 -0.00534481 0)
(0.189961 -0.00444895 0)
(0.197926 -0.00344403 0)
(0.203793 -0.00235011 0)
(0.207421 -0.00123332 0)
(0.208708 -6.61156e-05 0)
(0.207639 0.00112775 0)
(0.204072 0.00232859 0)
(0.198175 0.00347951 0)
(0.190017 0.00459544 0)
(0.179706 0.00560333 0)
(0.167416 0.00654657 0)
(0.153379 0.00734654 0)
(0.137817 0.00803809 0)
(0.121012 0.00858792 0)
(0.103235 0.0090088 0)
(0.0847444 0.00928701 0)
(0.0658166 0.00945086 0)
(0.0467347 0.00946179 0)
(0.0277217 0.00937413 0)
(0.00898891 0.00916656 0)
(-0.00925815 0.00890062 0)
(-0.0268648 0.00857294 0)
(-0.0437084 0.00811611 0)
(-0.0596602 0.0076776 0)
(-0.0746364 0.00720079 0)
(-0.0886036 0.00664863 0)
(-0.101505 0.00613424 0)
(-0.113323 0.00558399 0)
(-0.124063 0.00505437 0)
(-0.13374 0.00457005 0)
(-0.142382 0.00402321 0)
(-0.150027 0.00356117 0)
(-0.156707 0.00307526 0)
(-0.162481 0.00264499 0)
(-0.167384 0.00222604 0)
(-0.17146 0.00184436 0)
(-0.174792 0.00146391 0)
(-0.177411 0.00111649 0)
(-0.179341 0.000812979 0)
(-0.180634 0.000487647 0)
(-0.181299 0.000190851 0)
(-0.181376 -8.849e-05 0)
(-0.180884 -0.000387154 0)
(-0.179831 -0.000658713 0)
(-0.178204 -0.000973741 0)
(-0.175985 -0.0012275 0)
(-0.173184 -0.00152229 0)
(-0.169783 -0.00182833 0)
(-0.165787 -0.00213283 0)
(-0.161149 -0.00245903 0)
(-0.155825 -0.00280421 0)
(-0.149801 -0.00316919 0)
(-0.143034 -0.00353516 0)
(-0.135486 -0.00394052 0)
(-0.127154 -0.00432436 0)
(-0.117991 -0.00474955 0)
(-0.108002 -0.00516503 0)
(-0.0971496 -0.0055977 0)
(-0.0854329 -0.0060067 0)
(-0.0728859 -0.0064428 0)
(-0.0594724 -0.00682446 0)
(-0.0452609 -0.00723161 0)
(-0.030311 -0.0075922 0)
(-0.0146725 -0.00790142 0)
(0.00155834 -0.00816592 0)
(0.0182496 -0.00835326 0)
(0.0352306 -0.00846504 0)
(0.0523396 -0.00847544 0)
(0.0693821 -0.00839627 0)
(0.0861636 -0.00822114 0)
(0.102477 -0.00792527 0)
(0.118076 -0.00751544 0)
(0.132728 -0.00698026 0)
(0.14616 -0.00629562 0)
(0.158123 -0.00553379 0)
(0.168426 -0.00465465 0)
(0.176853 -0.00367204 0)
(0.183195 -0.00259766 0)
(0.187305 -0.00147708 0)
(0.189081 -0.000320572 0)
(0.18852 0.000857177 0)
(0.185523 0.00204624 0)
(0.18024 0.00317791 0)
(0.172744 0.00423665 0)
(0.163165 0.00522846 0)
(0.151695 0.00612011 0)
(0.138557 0.00687692 0)
(0.123995 0.00752956 0)
(0.108253 0.00805242 0)
(0.0915565 0.0084589 0)
(0.0741644 0.00873941 0)
(0.0563235 0.00891218 0)
(0.0383207 0.00890523 0)
(0.0204454 0.00880147 0)
(0.00291747 0.00858786 0)
(-0.0140827 0.0082862 0)
(-0.0304129 0.00793534 0)
(-0.0459962 0.00753588 0)
(-0.0608293 0.00716413 0)
(-0.0748799 0.00678432 0)
(-0.0881623 0.00636513 0)
(-0.100671 0.00598332 0)
(-0.112274 0.00552835 0)
(-0.122937 0.00503629 0)
(-0.13258 0.00453197 0)
(-0.141151 0.00399521 0)
(-0.148663 0.00349 0)
(-0.155171 0.00300816 0)
(-0.160771 0.00256148 0)
(-0.165554 0.00219106 0)
(-0.169622 0.00187952 0)
(-0.173095 0.00158093 0)
(-0.17605 0.00134358 0)
(-0.178535 0.00111225 0)
(-0.180541 0.000856509 0)
(-0.182045 0.000615898 0)
(-0.18297 0.000325839 0)
(-0.183308 2.56517e-05 0)
(-0.183003 -0.00029892 0)
(-0.182075 -0.000621896 0)
(-0.18051 -0.000952582 0)
(-0.178305 -0.00120406 0)
(-0.175557 -0.00147755 0)
(-0.172308 -0.00173245 0)
(-0.168597 -0.0019763 0)
(-0.164401 -0.00219649 0)
(-0.159697 -0.00247931 0)
(-0.154405 -0.00277796 0)
(-0.148403 -0.00314508 0)
(-0.141685 -0.00352806 0)
(-0.134167 -0.00391142 0)
(-0.125892 -0.00429044 0)
(-0.116894 -0.00462328 0)
(-0.107171 -0.0049882 0)
(-0.0967653 -0.00534291 0)
(-0.0856377 -0.00570056 0)
(-0.0737765 -0.00608336 0)
(-0.0611432 -0.00644217 0)
(-0.0477263 -0.00684237 0)
(-0.0335401 -0.00722308 0)
(-0.0185973 -0.00758021 0)
(-0.00295846 -0.00789298 0)
(0.0132181 -0.00808212 0)
(0.0297063 -0.0082272 0)
(0.0463409 -0.008236 0)
(0.0628776 -0.00811687 0)
(0.0790556 -0.00787477 0)
(0.0946144 -0.00751363 0)
(0.109326 -0.00702747 0)
(0.122942 -0.00643111 0)
(0.135223 -0.0057053 0)
(0.14594 -0.00486135 0)
(0.154864 -0.00394451 0)
(0.161799 -0.00291742 0)
(0.166579 -0.00179812 0)
(0.169041 -0.000649982 0)
(0.16916 0.000527022 0)
(0.166844 0.0017509 0)
(0.162131 0.00291923 0)
(0.155135 0.0040124 0)
(0.146048 0.00503063 0)
(0.135117 0.00589019 0)
(0.12249 0.00662216 0)
(0.108636 0.00714329 0)
(0.0938287 0.00756168 0)
(0.0782692 0.00788857 0)
(0.0623536 0.00798676 0)
(0.0460484 0.00808037 0)
(0.0296804 0.00807772 0)
(0.0136742 0.00794113 0)
(-0.00174922 0.00767309 0)
(-0.0165875 0.00735706 0)
(-0.0308272 0.0069405 0)
(-0.0441156 0.00644578 0)
(-0.0563706 0.00592097 0)
(-0.0676081 0.00542888 0)
(-0.0778623 0.00492983 0)
(-0.0872547 0.00452101 0)
(-0.0958299 0.00410185 0)
(-0.103739 0.00375638 0)
(-0.111106 0.00345176 0)
(-0.117823 0.00312733 0)
(-0.123943 0.00282322 0)
(-0.129482 0.00255549 0)
(-0.134399 0.00224522 0)
(-0.138768 0.00200165 0)
(-0.142531 0.00171667 0)
(-0.145706 0.00143114 0)
(-0.148375 0.00119322 0)
(-0.150499 0.000934535 0)
(-0.152097 0.000702129 0)
(-0.153264 0.000502261 0)
(-0.154005 0.000290163 0)
(-0.154365 0.000103677 0)
(-0.154383 -5.64379e-05 0)
(-0.154045 -0.000238405 0)
(-0.153403 -0.000389067 0)
(-0.152414 -0.00057762 0)
(-0.151032 -0.000781329 0)
(-0.149244 -0.00098626 0)
(-0.146972 -0.00123798 0)
(-0.144124 -0.00154861 0)
(-0.140645 -0.00188494 0)
(-0.136412 -0.00230068 0)
(-0.131335 -0.00271728 0)
(-0.125348 -0.00319374 0)
(-0.118322 -0.0037415 0)
(-0.110224 -0.00425515 0)
(-0.101047 -0.00479824 0)
(-0.0907148 -0.00540303 0)
(-0.0792348 -0.00591904 0)
(-0.0666565 -0.00651961 0)
(-0.0530266 -0.00698593 0)
(-0.0384129 -0.00740932 0)
(-0.0229456 -0.00791093 0)
(-0.00677852 -0.00818552 0)
(0.00999032 -0.0084023 0)
(0.0272585 -0.00868685 0)
(0.0448337 -0.00872083 0)
(0.0624973 -0.00880568 0)
(0.0800379 -0.00863248 0)
(0.0972084 -0.00833682 0)
(0.113776 -0.00806151 0)
(0.129508 -0.00754559 0)
(0.144164 -0.00692175 0)
(0.157526 -0.00628092 0)
(0.169393 -0.00547373 0)
(0.179593 -0.00460054 0)
(0.187987 -0.00369353 0)
(0.194467 -0.00272228 0)
(0.198973 -0.00173164 0)
(0.201475 -0.000732819 0)
(0.201973 0.00023761 0)
(0.20053 0.00118513 0)
(0.197142 0.00211633 0)
(0.191986 0.0029931 0)
(0.185146 0.0037708 0)
(0.176764 0.00452115 0)
(0.166976 0.00514055 0)
(0.15594 0.00574529 0)
(0.143806 0.00628469 0)
(0.130726 0.00665591 0)
(0.116864 0.00704247 0)
(0.102366 0.0073618 0)
(0.0873792 0.00749812 0)
(0.0720505 0.00767384 0)
(0.0565136 0.0076709 0)
(0.0408876 0.00771604 0)
(0.0251952 0.00770039 0)
(0.00913664 0.0075156 0)
(-0.006031 0.00744595 0)
(-0.0218565 0.00726621 0)
(-0.190143 -0.0012982 0)
(-0.188184 -0.0018086 0)
(-0.185211 -0.00232431 0)
(-0.181482 -0.0028534 0)
(-0.176974 -0.00341305 0)
(-0.171656 -0.00397942 0)
(-0.1655 -0.00458969 0)
(-0.158469 -0.00519924 0)
(-0.150529 -0.00582578 0)
(-0.141651 -0.00651889 0)
(-0.131801 -0.00717933 0)
(-0.120957 -0.00784417 0)
(-0.109111 -0.00859803 0)
(-0.0962486 -0.00925838 0)
(-0.0823923 -0.0100202 0)
(-0.0675589 -0.0106337 0)
(-0.0518 -0.0111936 0)
(-0.0351824 -0.0118773 0)
(-0.0177681 -0.0123127 0)
(0.000282939 -0.0126171 0)
(0.0188332 -0.0130771 0)
(0.0377558 -0.0131618 0)
(0.0568212 -0.0130888 0)
(0.0758179 -0.0131203 0)
(0.0945018 -0.0127238 0)
(0.112629 -0.0123863 0)
(0.129925 -0.0116399 0)
(0.14612 -0.0107188 0)
(0.16096 -0.00977422 0)
(0.174174 -0.00852984 0)
(0.18554 -0.0071526 0)
(0.194857 -0.00569004 0)
(0.201945 -0.00408563 0)
(0.206682 -0.00242005 0)
(0.208968 -0.000712723 0)
(0.208782 0.00100947 0)
(0.206084 0.00269514 0)
(0.200988 0.00435652 0)
(0.193582 0.0059753 0)
(0.183978 0.00732668 0)
(0.172397 0.00869099 0)
(0.159021 0.00971045 0)
(0.14412 0.010744 0)
(0.127915 0.0116323 0)
(0.110628 0.0121168 0)
(0.092589 0.0126248 0)
(0.0740236 0.012945 0)
(0.0550977 0.0129252 0)
(0.0361174 0.0129437 0)
(0.0173455 0.0128165 0)
(-0.000570463 0.0124605 0)
(-0.0178115 0.0120834 0)
(-0.0347574 0.0115421 0)
(-0.0510104 0.011035 0)
(-0.0664626 0.0104586 0)
(-0.0810395 0.00979815 0)
(-0.0947186 0.00917033 0)
(-0.107455 0.00851172 0)
(-0.119241 0.00783652 0)
(-0.130093 0.00718748 0)
(-0.140022 0.00653208 0)
(-0.149057 0.00591809 0)
(-0.157176 0.00528951 0)
(-0.164416 0.00468482 0)
(-0.170841 0.00411165 0)
(-0.176382 0.0035076 0)
(-0.181067 0.00293556 0)
(-0.184984 0.00237564 0)
(-0.188066 0.00177523 0)
(-0.190361 0.00129865 0)
(-0.191848 0.000759498 0)
(-0.192488 0.000153454 0)