/*--------------------------------*- C++ -*----------------------------------*\
| =========                 |                                                 |
| \\      /  F ield         | OpenFOAM: The Open Source CFD Toolbox           |
|  \\    /   O peration     | Version:  3.0.1                                 |
|   \\  /    A nd           | Web:      www.OpenFOAM.org                      |
|    \\/     M anipulation  |                                                 |
\*---------------------------------------------------------------------------*/
FoamFile
{
    version     2.0;
    format      ascii;
    class       volVectorField;
    location    "29.6";
    object      U;
}
// * * * * * * * * * * * * * * * * * * * * * * * * * * * * * * * * * * * * * //

dimensions      [0 1 -1 0 0 0 0];

internalField   nonuniform List<vector> 
22680
(
(-0.0842556 -0.00148865 0)
(-0.0714644 -0.00151464 0)
(-0.0585227 -0.00155226 0)
(-0.0452968 -0.00158173 0)
(-0.0317664 -0.00162381 0)
(-0.0179051 -0.00165998 0)
(-0.00367023 -0.00170874 0)
(0.0109539 -0.00175348 0)
(0.0259942 -0.00180978 0)
(0.0415023 -0.00186256 0)
(0.0575028 -0.00192567 0)
(0.0740242 -0.00198618 0)
(0.0910907 -0.00205407 0)
(0.108721 -0.00212102 0)
(0.126924 -0.00218902 0)
(0.145691 -0.00224923 0)
(0.164999 -0.0023171 0)
(0.184791 -0.00235827 0)
(0.204978 -0.00241183 0)
(0.22542 -0.00241336 0)
(0.245932 -0.00243106 0)
(0.266263 -0.00236764 0)
(0.286112 -0.00232151 0)
(0.305122 -0.00216975 0)
(0.322892 -0.00203214 0)
(0.339004 -0.001781 0)
(0.353022 -0.00153643 0)
(0.364538 -0.00119515 0)
(0.373173 -0.000848806 0)
(0.378656 -0.000442097 0)
(0.380747 -3.03897e-05 0)
(0.379342 0.000370362 0)
(0.374349 0.000796629 0)
(0.365856 0.00119982 0)
(0.35412 0.00158285 0)
(0.339319 0.00192917 0)
(0.321719 0.00225665 0)
(0.301635 0.00252096 0)
(0.279342 0.00279034 0)
(0.255111 0.00298203 0)
(0.229138 0.00320991 0)
(0.201597 0.00335333 0)
(0.172578 0.0035661 0)
(0.142175 0.00368062 0)
(0.110451 0.00389716 0)
(0.0775008 0.00398265 0)
(0.0435608 0.00419653 0)
(0.0104991 0.00421609 0)
(-0.0262617 0.00442117 0)
(-0.0656956 0.0043632 0)
(-0.103289 0.00447215 0)
(-0.141565 0.0045183 0)
(-0.178763 0.00428964 0)
(-0.214532 0.00419084 0)
(-0.248437 0.00384455 0)
(-0.27981 0.00359869 0)
(-0.30829 0.00315651 0)
(-0.333328 0.00278981 0)
(-0.354718 0.00229274 0)
(-0.372113 0.00185039 0)
(-0.385411 0.00134985 0)
(-0.394364 0.000856151 0)
(-0.398944 0.000344716 0)
(-0.400015 -0.000158823 0)
(-0.396634 -0.000616403 0)
(-0.389369 -0.00104466 0)
(-0.378581 -0.00144389 0)
(-0.364609 -0.00180023 0)
(-0.347806 -0.00211141 0)
(-0.328701 -0.00234176 0)
(-0.307969 -0.00251297 0)
(-0.285802 -0.00266796 0)
(-0.262851 -0.00271664 0)
(-0.239466 -0.00277687 0)
(-0.216032 -0.00273407 0)
(-0.192904 -0.00271797 0)
(-0.170234 -0.00262186 0)
(-0.148237 -0.00255733 0)
(-0.127054 -0.00244465 0)
(-0.106562 -0.00235901 0)
(-0.0872636 -0.00226168 0)
(-0.0681013 -0.00219433 0)
(-0.0503481 -0.0021459 0)
(-0.031676 -0.00214625 0)
(-0.0141385 -0.00217782 0)
(0.00347505 -0.00227045 0)
(0.0239948 -0.002326 0)
(0.0430905 -0.00259278 0)
(0.0673257 -0.00274902 0)
(0.0888442 -0.00270763 0)
(0.113178 -0.00296411 0)
(0.137199 -0.00282514 0)
(0.160946 -0.00291166 0)
(0.184053 -0.00257038 0)
(0.204141 -0.00234572 0)
(0.221257 -0.0017257 0)
(0.232695 -0.00116443 0)
(0.238401 -0.000269679 0)
(0.236423 0.000646162 0)
(0.225187 0.00181071 0)
(0.202682 0.00291602 0)
(0.170994 0.00416322 0)
(0.127841 0.00531556 0)
(0.0732533 0.00647983 0)
(0.0106689 0.00749752 0)
(-0.0535145 0.00818299 0)
(-0.12472 0.0085888 0)
(-0.197237 0.00870266 0)
(-0.270917 0.00843286 0)
(-0.340274 0.00789958 0)
(-0.404797 0.00714458 0)
(-0.461617 0.0062298 0)
(-0.510461 0.00527761 0)
(-0.550453 0.00429666 0)
(-0.583056 0.00344319 0)
(-0.609018 0.00246478 0)
(-0.626283 0.00162466 0)
(-0.636494 0.000796527 0)
(-0.640643 0.000210007 0)
(-0.638304 -0.000584217 0)
(-0.631845 -0.000975697 0)
(-0.623517 -0.00103697 0)
(-0.615726 -0.000987396 0)
(-0.607967 -0.00101854 0)
(-0.598953 -0.00113152 0)
(-0.587199 -0.00139668 0)
(-0.573607 -0.00167205 0)
(-0.557058 -0.00218557 0)
(-0.53573 -0.00266728 0)
(-0.513984 -0.00260358 0)
(-0.49281 -0.00246498 0)
(-0.472042 -0.00249257 0)
(-0.452043 -0.00230269 0)
(-0.433105 -0.00218288 0)
(-0.414994 -0.00209166 0)
(-0.39868 -0.00183407 0)
(-0.384144 -0.00161702 0)
(-0.371252 -0.00136229 0)
(-0.360668 -0.00116793 0)
(-0.351704 -0.000909397 0)
(-0.344809 -0.000661992 0)
(-0.340259 -0.000419007 0)
(-0.338056 -0.000179303 0)
(-0.337832 0.000134463 0)
(-0.340683 0.000439684 0)
(-0.346066 0.000673427 0)
(-0.351013 0.000800023 0)
(-0.357986 0.000899811 0)
(-0.368077 0.001275 0)
(-0.379346 0.00140365 0)
(-0.390992 0.0014622 0)
(-0.402854 0.0014681 0)
(-0.414862 0.00148033 0)
(-0.428706 0.00158637 0)
(-0.443192 0.00175097 0)
(-0.458096 0.00187068 0)
(-0.474527 0.00198229 0)
(-0.491765 0.00216441 0)
(-0.510409 0.00227624 0)
(-0.530699 0.00248175 0)
(-0.552175 0.00265784 0)
(-0.57537 0.00276377 0)
(-0.599617 0.00292974 0)
(-0.62392 0.00294079 0)
(-0.649162 0.00296132 0)
(-0.673943 0.00291027 0)
(-0.698042 0.00281928 0)
(-0.721608 0.00265967 0)
(-0.742998 0.00242166 0)
(-0.762077 0.00212096 0)
(-0.778247 0.00176293 0)
(-0.791296 0.00115003 0)
(-0.798301 0.000425216 0)
(-0.799334 -8.69571e-05 0)
(-0.796667 -0.000646656 0)
(-0.788287 -0.00128085 0)
(-0.774511 -0.00181497 0)
(-0.75747 -0.00206226 0)
(-0.739902 -0.00198559 0)
(-0.723823 -0.00168786 0)
(-0.710187 -0.00135361 0)
(-0.699162 -0.00119367 0)
(-0.688145 -0.00144595 0)
(-0.672337 -0.00216532 0)
(-0.649311 -0.00321512 0)
(-0.615607 -0.00439065 0)
(-0.573624 -0.00531942 0)
(-0.52559 -0.00577116 0)
(-0.477003 -0.00566698 0)
(-0.432411 -0.00507524 0)
(-0.394661 -0.00427016 0)
(-0.364928 -0.00331544 0)
(-0.344034 -0.00230836 0)
(-0.330842 -0.00162311 0)
(-0.321667 -0.00141346 0)
(-0.312786 -0.00143165 0)
(-0.303707 -0.00138071 0)
(-0.295318 -0.00125539 0)
(-0.287426 -0.000960068 0)
(-0.284113 -0.000449606 0)
(-0.28545 3.3562e-05 0)
(-0.288174 -0.000203977 0)
(-0.28453 -0.00157319 0)
(-0.262938 -0.00440349 0)
(-0.211004 -0.00827902 0)
(-0.126077 -0.0115739 0)
(-0.0219927 -0.0120173 0)
(0.0723478 -0.00934014 0)
(0.131441 -0.00365575 0)
(0.136481 0.00140553 0)
(0.114962 0.00287959 0)
(0.0839199 0.00349228 0)
(0.0499138 0.00339729 0)
(0.0202862 0.00267316 0)
(-0.00411688 0.000688716 0)
(-0.000621731 -0.00205805 0)
(0.025575 -0.00504375 0)
(0.0727632 -0.00777097 0)
(0.144597 -0.0101889 0)
(0.225178 -0.0125447 0)
(0.342409 -0.0143211 0)
(0.4227 -0.013327 0)
(0.55145 -0.0085104 0)
(0.548459 0.00505904 0)
(0.467637 0.00341537 0)
(-0.0842707 -0.00446597 0)
(-0.0714795 -0.00454386 0)
(-0.0585387 -0.00465666 0)
(-0.0453138 -0.00474502 0)
(-0.031785 -0.00487123 0)
(-0.0179253 -0.00497974 0)
(-0.00369244 -0.00512599 0)
(0.01093 -0.00526023 0)
(0.0259683 -0.00542912 0)
(0.0414748 -0.00558748 0)
(0.0574736 -0.00577684 0)
(0.0739937 -0.00595839 0)
(0.0910592 -0.00616212 0)
(0.108689 -0.00636304 0)
(0.126892 -0.00656717 0)
(0.145661 -0.00674794 0)
(0.164972 -0.00695178 0)
(0.184769 -0.00707555 0)
(0.204964 -0.00723656 0)
(0.225416 -0.00724149 0)
(0.245942 -0.00729501 0)
(0.266289 -0.00710506 0)
(0.286159 -0.00696711 0)
(0.30519 -0.00651197 0)
(0.322987 -0.00609936 0)
(0.33912 -0.00534577 0)
(0.353165 -0.00461196 0)
(0.364698 -0.00358767 0)
(0.373358 -0.0025488 0)
(0.378846 -0.00132782 0)
(0.380946 -9.28297e-05 0)
(0.379545 0.00111011 0)
(0.374542 0.00239178 0)
(0.366043 0.00360099 0)
(0.354294 0.00475026 0)
(0.339476 0.00578941 0)
(0.321861 0.0067719 0)
(0.301759 0.00756467 0)
(0.279454 0.00837262 0)
(0.255208 0.00894732 0)
(0.229229 0.00963066 0)
(0.20168 0.0100606 0)
(0.172659 0.0106987 0)
(0.142252 0.0110421 0)
(0.110527 0.0116918 0)
(0.0775706 0.0119486 0)
(0.0436226 0.0125907 0)
(0.0105529 0.0126499 0)
(-0.0262203 0.0132656 0)
(-0.0656814 0.0130921 0)
(-0.103298 0.0134197 0)
(-0.141606 0.0135588 0)
(-0.178834 0.0128727 0)
(-0.214639 0.0125764 0)
(-0.24857 0.0115371 0)
(-0.279976 0.0107992 0)
(-0.308473 0.00947201 0)
(-0.333537 0.0083713 0)
(-0.354932 0.00687918 0)
(-0.372336 0.00555048 0)
(-0.385621 0.00404612 0)
(-0.394599 0.00256076 0)
(-0.399219 0.00102572 0)
(-0.400242 -0.000466528 0)
(-0.39684 -0.00184383 0)
(-0.389566 -0.00313532 0)
(-0.378762 -0.0043339 0)
(-0.364769 -0.00540348 0)
(-0.347941 -0.00633733 0)
(-0.328808 -0.00702844 0)
(-0.308049 -0.00754196 0)
(-0.285856 -0.00800687 0)
(-0.26288 -0.00815261 0)
(-0.239474 -0.008333 0)
(-0.216021 -0.00820414 0)
(-0.19288 -0.00815532 0)
(-0.1702 -0.00786646 0)
(-0.148198 -0.00767211 0)
(-0.127015 -0.00733352 0)
(-0.106529 -0.00707567 0)
(-0.0872421 -0.0067828 0)
(-0.0681027 -0.00657974 0)
(-0.0503737 -0.00643348 0)
(-0.031744 -0.00643855 0)
(-0.0142345 -0.0065211 0)
(0.00333494 -0.00680191 0)
(0.0238074 -0.00697272 0)
(0.0428618 -0.00776103 0)
(0.0670755 -0.00823062 0)
(0.0885944 -0.00808966 0)
(0.112932 -0.00884678 0)
(0.136997 -0.00838958 0)
(0.160788 -0.0086561 0)
(0.183979 -0.0076259 0)
(0.204135 -0.00695355 0)
(0.221332 -0.00510516 0)
(0.232844 -0.00336872 0)
(0.238653 -0.000701406 0)
(0.236701 0.00196323 0)
(0.2255 0.00546392 0)
(0.203037 0.00873262 0)
(0.171428 0.0124802 0)
(0.128333 0.0159585 0)
(0.0737115 0.0194253 0)
(0.0110392 0.0225147 0)
(-0.053301 0.0245586 0)
(-0.124599 0.0257808 0)
(-0.197279 0.0261589 0)
(-0.271174 0.0253613 0)
(-0.340738 0.0237012 0)
(-0.405262 0.0213741 0)
(-0.462086 0.0186767 0)
(-0.510996 0.0159011 0)
(-0.550854 0.0129061 0)
(-0.583461 0.0102915 0)
(-0.609424 0.00739153 0)
(-0.626839 0.00489121 0)
(-0.63704 0.0024095 0)
(-0.641012 0.000598593 0)
(-0.638537 -0.00180085 0)
(-0.631997 -0.00290799 0)
(-0.623607 -0.00314912 0)
(-0.615793 -0.00297744 0)
(-0.608014 -0.00302137 0)
(-0.599109 -0.00339798 0)
(-0.587399 -0.00418141 0)
(-0.573924 -0.00500211 0)
(-0.557323 -0.00655171 0)
(-0.535853 -0.00801728 0)
(-0.513944 -0.00780421 0)
(-0.492811 -0.00737718 0)
(-0.471987 -0.00753513 0)
(-0.451976 -0.00690375 0)
(-0.433113 -0.00655084 0)
(-0.414926 -0.00628423 0)
(-0.398604 -0.00554364 0)
(-0.384058 -0.00483984 0)
(-0.371163 -0.00409184 0)
(-0.360591 -0.0034994 0)
(-0.35163 -0.00272947 0)
(-0.34471 -0.00195904 0)
(-0.340133 -0.00124716 0)
(-0.337926 -0.000578062 0)
(-0.337713 0.000407914 0)
(-0.340586 0.00131391 0)
(-0.345997 0.00202573 0)
(-0.350958 0.0024023 0)
(-0.357909 0.00272593 0)
(-0.368008 0.00381346 0)
(-0.379302 0.00420057 0)
(-0.391013 0.00441456 0)
(-0.40289 0.00439292 0)
(-0.414861 0.0044327 0)
(-0.428681 0.00477442 0)
(-0.443148 0.00522256 0)
(-0.458056 0.00562403 0)
(-0.474459 0.00595538 0)
(-0.491703 0.00648511 0)
(-0.510361 0.00683865 0)
(-0.530645 0.00744698 0)
(-0.552154 0.00796744 0)
(-0.575341 0.00830011 0)
(-0.599603 0.00878036 0)
(-0.623918 0.00882334 0)
(-0.649164 0.00890479 0)
(-0.673979 0.00872608 0)
(-0.698114 0.00845696 0)
(-0.721741 0.00799997 0)
(-0.743157 0.00725674 0)
(-0.762208 0.00634446 0)
(-0.778296 0.00526374 0)
(-0.791131 0.00345819 0)
(-0.798835 0.00123903 0)
(-0.800085 -0.000255326 0)
(-0.79747 -0.00191368 0)
(-0.789192 -0.00382296 0)
(-0.775521 -0.00543147 0)
(-0.758491 -0.00621523 0)
(-0.740718 -0.00607444 0)
(-0.723993 -0.00530574 0)
(-0.709022 -0.00447776 0)
(-0.696094 -0.00413308 0)
(-0.683312 -0.00492063 0)
(-0.666229 -0.00701341 0)
(-0.642038 -0.0100444 0)
(-0.608532 -0.0134249 0)
(-0.566506 -0.0159973 0)
(-0.519224 -0.0171405 0)
(-0.471324 -0.016667 0)
(-0.427456 -0.0147101 0)
(-0.390343 -0.0120239 0)
(-0.361203 -0.0088819 0)
(-0.340996 -0.00572185 0)
(-0.328554 -0.00358072 0)
(-0.320053 -0.00282337 0)
(-0.311612 -0.00291543 0)
(-0.302775 -0.00296229 0)
(-0.294563 -0.00264408 0)
(-0.287027 -0.00172306 0)
(-0.284372 -0.000123958 0)
(-0.286774 0.00123607 0)
(-0.290492 0.000527125 0)
(-0.288396 -0.00368279 0)
(-0.268177 -0.012327 0)
(-0.218075 -0.0241771 0)
(-0.134018 -0.0343191 0)
(-0.0306107 -0.0357605 0)
(0.064437 -0.0279521 0)
(0.124625 -0.0109601 0)
(0.130985 0.00437538 0)
(0.110121 0.00892602 0)
(0.0793421 0.0111753 0)
(0.0465097 0.0116076 0)
(0.0186161 0.00989317 0)
(-0.00297903 0.00408294 0)
(0.0035995 -0.00483997 0)
(0.031995 -0.0123413 0)
(0.0810991 -0.0195526 0)
(0.153015 -0.0260388 0)
(0.229612 -0.0335709 0)
(0.34533 -0.0369062 0)
(0.414023 -0.0371015 0)
(0.543032 -0.0250336 0)
(0.553321 0.0261861 0)
(0.498988 0.0420506 0)
(-0.0843009 -0.00744332 0)
(-0.0715098 -0.00757291 0)
(-0.0585706 -0.00776072 0)
(-0.0453478 -0.00790784 0)
(-0.0318222 -0.00811808 0)
(-0.0179657 -0.00829888 0)
(-0.00373685 -0.00854258 0)
(0.010882 -0.00876632 0)
(0.0259166 -0.00904782 0)
(0.0414197 -0.00931181 0)
(0.0574152 -0.00962747 0)
(0.0739327 -0.00993017 0)
(0.090996 -0.0102699 0)
(0.108625 -0.010605 0)
(0.126828 -0.0109456 0)
(0.1456 -0.0112474 0)
(0.164917 -0.0115879 0)
(0.184724 -0.011795 0)
(0.204934 -0.0120645 0)
(0.225408 -0.0120738 0)
(0.245961 -0.0121645 0)
(0.266342 -0.0118489 0)
(0.286254 -0.0116204 0)
(0.305327 -0.0108623 0)
(0.323177 -0.0101755 0)
(0.339351 -0.0089189 0)
(0.353453 -0.00769555 0)
(0.365019 -0.00598674 0)
(0.373727 -0.00425611 0)
(0.379225 -0.0022224 0)
(0.381354 -0.000158861 0)
(0.379941 0.00186125 0)
(0.374929 0.00399498 0)
(0.366418 0.00600688 0)
(0.354642 0.00792297 0)
(0.339791 0.00965547 0)
(0.322145 0.0112932 0)
(0.302008 0.0126139 0)
(0.279676 0.0139598 0)
(0.255403 0.0149163 0)
(0.229409 0.0160541 0)
(0.201844 0.0167694 0)
(0.172821 0.0178322 0)
(0.142405 0.0184044 0)
(0.11068 0.0194875 0)
(0.0777102 0.0199163 0)
(0.043746 0.0209882 0)
(0.0106601 0.0210885 0)
(-0.026138 0.0221164 0)
(-0.0656532 0.0218286 0)
(-0.103316 0.0223769 0)
(-0.141689 0.0226108 0)
(-0.178976 0.021467 0)
(-0.214853 0.0209737 0)
(-0.248835 0.01924 0)
(-0.28031 0.0180093 0)
(-0.308841 0.015795 0)
(-0.333956 0.0139584 0)
(-0.355361 0.0114685 0)
(-0.372784 0.00924831 0)
(-0.386045 0.00673283 0)
(-0.395061 0.00425463 0)
(-0.399765 0.00171672 0)
(-0.400696 -0.000774798 0)
(-0.397257 -0.00305483 0)
(-0.389963 -0.00523012 0)
(-0.379126 -0.00723069 0)
(-0.365088 -0.0090151 0)
(-0.348211 -0.0105726 0)
(-0.329022 -0.0117247 0)
(-0.308207 -0.0125802 0)
(-0.285964 -0.0133548 0)
(-0.262938 -0.0135967 0)
(-0.239488 -0.0138964 0)
(-0.215999 -0.0136801 0)
(-0.192828 -0.0135969 0)
(-0.17013 -0.0131137 0)
(-0.148118 -0.0127875 0)
(-0.126934 -0.0122212 0)
(-0.106461 -0.0117887 0)
(-0.0871961 -0.0112983 0)
(-0.0681021 -0.0109569 0)
(-0.0504215 -0.0107107 0)
(-0.0318746 -0.0107235 0)
(-0.0144175 -0.0108457 0)
(0.00305423 -0.0113224 0)
(0.0234498 -0.0116065 0)
(0.042402 -0.0129312 0)
(0.0665844 -0.0137234 0)
(0.0881104 -0.0135073 0)
(0.112461 -0.0147881 0)
(0.136617 -0.0140632 0)
(0.160484 -0.0145131 0)
(0.183836 -0.0128062 0)
(0.204102 -0.0116857 0)
(0.221503 -0.00860323 0)
(0.233112 -0.00574863 0)
(0.239126 -0.00129015 0)
(0.237142 0.00321881 0)
(0.22612 0.00905308 0)
(0.203885 0.0145272 0)
(0.172362 0.0207679 0)
(0.129288 0.0265864 0)
(0.0746451 0.0324173 0)
(0.0117173 0.0375531 0)
(-0.0528703 0.040983 0)
(-0.124385 0.0430374 0)
(-0.1973 0.0436609 0)
(-0.27158 0.0423185 0)
(-0.341525 0.0395123 0)
(-0.406078 0.0356434 0)
(-0.462999 0.0311939 0)
(-0.512064 0.0265175 0)
(-0.551612 0.0214807 0)
(-0.584185 0.0171565 0)
(-0.610112 0.0123928 0)
(-0.627874 0.00819745 0)
(-0.638138 0.00390801 0)
(-0.641812 0.000996245 0)
(-0.638873 -0.00301298 0)
(-0.632285 -0.00488988 0)
(-0.623753 -0.00526109 0)
(-0.615948 -0.0049499 0)
(-0.608052 -0.00502681 0)
(-0.599287 -0.00563993 0)
(-0.587723 -0.00691713 0)
(-0.574523 -0.00833736 0)
(-0.557832 -0.0109629 0)
(-0.536048 -0.0134306 0)
(-0.513858 -0.0130408 0)
(-0.492782 -0.0123391 0)
(-0.471862 -0.0125727 0)
(-0.451812 -0.0114879 0)
(-0.432994 -0.0109182 0)
(-0.414799 -0.0105368 0)
(-0.39838 -0.00923509 0)
(-0.383886 -0.00807095 0)
(-0.370972 -0.00679771 0)
(-0.360469 -0.00583906 0)
(-0.351544 -0.00455705 0)
(-0.34454 -0.00329654 0)
(-0.339879 -0.00211658 0)
(-0.337564 -0.000953863 0)
(-0.337454 0.000673457 0)
(-0.340371 0.00221792 0)
(-0.345846 0.00337518 0)
(-0.350839 0.004029 0)
(-0.357747 0.00456098 0)
(-0.367876 0.00631107 0)
(-0.379167 0.00705506 0)
(-0.391018 0.00737749 0)
(-0.402928 0.0072993 0)
(-0.414821 0.00739967 0)
(-0.428608 0.00792284 0)
(-0.443039 0.00870855 0)
(-0.45796 0.00935631 0)
(-0.474305 0.00992881 0)
(-0.49154 0.010806 0)
(-0.510225 0.0114117 0)
(-0.530498 0.0124151 0)
(-0.552053 0.0132823 0)
(-0.57522 0.0138385 0)
(-0.599533 0.0146397 0)
(-0.623894 0.0147137 0)
(-0.649153 0.014837 0)
(-0.674028 0.0145657 0)
(-0.698202 0.014108 0)
(-0.721945 0.0133443 0)
(-0.743442 0.0121097 0)
(-0.762455 0.0105547 0)
(-0.77839 0.00872023 0)
(-0.790651 0.00593848 0)
(-0.79918 0.00232256 0)
(-0.801225 -0.0003827 0)
(-0.798735 -0.00323046 0)
(-0.790404 -0.00636733 0)
(-0.776568 -0.0090462 0)
(-0.759282 -0.0104046 0)
(-0.741103 -0.0102824 0)
(-0.723661 -0.00917084 0)
(-0.707418 -0.00798841 0)
(-0.692904 -0.00742088 0)
(-0.679128 -0.00857796 0)
(-0.662002 -0.0119242 0)
(-0.637962 -0.0168245 0)
(-0.605652 -0.0221843 0)
(-0.564143 -0.026475 0)
(-0.518079 -0.0283317 0)
(-0.47101 -0.0276459 0)
(-0.427746 -0.0244518 0)
(-0.390746 -0.0201261 0)
(-0.361508 -0.0150344 0)
(-0.34159 -0.00985317 0)
(-0.329723 -0.00636875 0)
(-0.321723 -0.00527855 0)
(-0.313407 -0.00556534 0)
(-0.304554 -0.00560697 0)
(-0.296331 -0.00506214 0)
(-0.289083 -0.0033605 0)
(-0.287171 -0.000606301 0)
(-0.290964 0.00177374 0)
(-0.296396 0.00074161 0)
(-0.297029 -0.00614319 0)
(-0.280602 -0.0203303 0)
(-0.234436 -0.0400622 0)
(-0.154383 -0.0571042 0)
(-0.0531238 -0.0597879 0)
(0.0432925 -0.0473576 0)
(0.107104 -0.0188595 0)
(0.117231 0.00677886 0)
(0.0972323 0.0140922 0)
(0.0663107 0.0176785 0)
(0.0363635 0.0174457 0)
(0.0115454 0.0140376 0)
(-0.00687042 0.00420785 0)
(-0.000285273 -0.0100044 0)
(0.0285125 -0.0233723 0)
(0.0776447 -0.0356414 0)
(0.145262 -0.0459144 0)
(0.212812 -0.0576294 0)
(0.309563 -0.0620055 0)
(0.372052 -0.0623187 0)
(0.488732 -0.0469496 0)
(0.524305 0.0232454 0)
(0.488149 0.065156 0)
(-0.084346 -0.0104207 0)
(-0.071555 -0.0106017 0)
(-0.0586184 -0.0108642 0)
(-0.0453988 -0.0110699 0)
(-0.031878 -0.011364 0)
(-0.0180262 -0.011617 0)
(-0.00380345 -0.0119581 0)
(0.01081 -0.0122713 0)
(0.025839 -0.0126654 0)
(0.0413372 -0.0130351 0)
(0.0573276 -0.0134772 0)
(0.0738412 -0.0139012 0)
(0.0909011 -0.0143772 0)
(0.108529 -0.0148469 0)
(0.126733 -0.0153245 0)
(0.145509 -0.0157481 0)
(0.164834 -0.0162263 0)
(0.184658 -0.0165182 0)
(0.204889 -0.0168978 0)
(0.225395 -0.0169132 0)
(0.24599 -0.0170431 0)
(0.26642 -0.0166036 0)
(0.286395 -0.0162867 0)
(0.30553 -0.0152263 0)
(0.323461 -0.0142665 0)
(0.339699 -0.012506 0)
(0.353885 -0.0107927 0)
(0.3655 -0.00839669 0)
(0.37428 -0.00597408 0)
(0.379798 -0.0031332 0)
(0.381972 -0.000245695 0)
(0.380528 0.00263945 0)
(0.375513 0.0056142 0)
(0.36698 0.00842064 0)
(0.355164 0.0111045 0)
(0.340264 0.0135313 0)
(0.322572 0.0158246 0)
(0.30238 0.0176725 0)
(0.28001 0.0195551 0)
(0.255694 0.0208916 0)
(0.229679 0.022482 0)
(0.202091 0.023481 0)
(0.173063 0.0249673 0)
(0.142635 0.0257678 0)
(0.11091 0.0272848 0)
(0.0779199 0.027887 0)
(0.0439318 0.0293913 0)
(0.0108215 0.0295352 0)
(-0.026014 0.0309778 0)
(-0.0656104 0.0305777 0)
(-0.103344 0.0313503 0)
(-0.141813 0.0316824 0)
(-0.179189 0.0300803 0)
(-0.215175 0.0293905 0)
(-0.249235 0.0269602 0)
(-0.280811 0.0252353 0)
(-0.309393 0.0221304 0)
(-0.334585 0.0195549 0)
(-0.356006 0.0160629 0)
(-0.373467 0.0129439 0)
(-0.38671 0.00939834 0)
(-0.395746 0.00594515 0)
(-0.400552 0.00238978 0)
(-0.401361 -0.00103989 0)
(-0.397892 -0.00425873 0)
(-0.390562 -0.00733254 0)
(-0.379673 -0.010139 0)
(-0.365568 -0.0126407 0)
(-0.348616 -0.0148235 0)
(-0.329342 -0.016437 0)
(-0.308445 -0.0176338 0)
(-0.286126 -0.0187177 0)
(-0.263024 -0.0190545 0)
(-0.239509 -0.0194718 0)
(-0.215964 -0.0191659 0)
(-0.192751 -0.0190456 0)
(-0.170024 -0.0183654 0)
(-0.147997 -0.0179037 0)
(-0.126812 -0.0171069 0)
(-0.106358 -0.0164953 0)
(-0.0871267 -0.0158039 0)
(-0.0680995 -0.015319 0)
(-0.0504943 -0.0149694 0)
(-0.0320701 -0.0149823 0)
(-0.0146894 -0.0151415 0)
(0.00262056 -0.0158195 0)
(0.0229289 -0.0162145 0)
(0.0416719 -0.0180662 0)
(0.0658846 -0.0191945 0)
(0.0873356 -0.0188936 0)
(0.111735 -0.02069 0)
(0.136 -0.0196615 0)
(0.159985 -0.0203092 0)
(0.183599 -0.0179177 0)
(0.204007 -0.0163605 0)
(0.22175 -0.0120382 0)
(0.233462 -0.00796432 0)
(0.239866 -0.00173101 0)
(0.237865 0.0045429 0)
(0.227178 0.0126068 0)
(0.205129 0.0202808 0)
(0.173808 0.0290712 0)
(0.130779 0.0372367 0)
(0.0759527 0.0453978 0)
(0.0127585 0.0526646 0)
(-0.052279 0.0574725 0)
(-0.123985 0.0603409 0)
(-0.197308 0.0612494 0)
(-0.271989 0.0594294 0)
(-0.342514 0.0554443 0)
(-0.407479 0.0499633 0)
(-0.464525 0.0437578 0)
(-0.513368 0.0370891 0)
(-0.553182 0.0299356 0)
(-0.585432 0.0239779 0)
(-0.611309 0.0174557 0)
(-0.628906 0.011729 0)
(-0.639344 0.00563563 0)
(-0.643213 0.000952641 0)
(-0.639598 -0.00430553 0)
(-0.63287 -0.00694125 0)
(-0.62394 -0.00735965 0)
(-0.616089 -0.00697701 0)
(-0.608008 -0.00708221 0)
(-0.599452 -0.00782953 0)
(-0.588301 -0.00958073 0)
(-0.57524 -0.0116159 0)
(-0.558462 -0.0153995 0)
(-0.53647 -0.0189213 0)
(-0.513727 -0.0183825 0)
(-0.492717 -0.0173049 0)
(-0.471769 -0.0175565 0)
(-0.451585 -0.0161354 0)
(-0.432787 -0.0152756 0)
(-0.41462 -0.0147549 0)
(-0.398038 -0.0129282 0)
(-0.383645 -0.011289 0)
(-0.370661 -0.00951752 0)
(-0.360227 -0.00814903 0)
(-0.351403 -0.0064394 0)
(-0.344181 -0.00467914 0)
(-0.339593 -0.0030349 0)
(-0.337061 -0.00126288 0)
(-0.337091 0.000954109 0)
(-0.340064 0.00315908 0)
(-0.345506 0.00472385 0)
(-0.350703 0.00566636 0)
(-0.357483 0.00641681 0)
(-0.367618 0.00879661 0)
(-0.379076 0.00992473 0)
(-0.390948 0.010342 0)
(-0.40295 0.0102495 0)
(-0.414772 0.0103027 0)
(-0.428441 0.0110863 0)
(-0.442869 0.0121435 0)
(-0.457802 0.0130975 0)
(-0.474101 0.0139175 0)
(-0.49129 0.0151104 0)
(-0.509985 0.0160027 0)
(-0.530265 0.0173744 0)
(-0.551886 0.0185959 0)
(-0.575025 0.0193978 0)
(-0.59939 0.0205018 0)
(-0.62386 0.020609 0)
(-0.649155 0.0207849 0)
(-0.674114 0.0204208 0)
(-0.698318 0.019772 0)
(-0.722237 0.0187287 0)
(-0.743936 0.0169635 0)
(-0.762962 0.014734 0)
(-0.778832 0.0120902 0)
(-0.790685 0.0084109 0)
(-0.799382 0.00355148 0)
(-0.802412 -0.000424793 0)
(-0.800116 -0.00448279 0)
(-0.791666 -0.00891995 0)
(-0.77749 -0.0127793 0)
(-0.759709 -0.0147489 0)
(-0.740986 -0.0146673 0)
(-0.723066 -0.0132565 0)
(-0.706249 -0.0117667 0)
(-0.691189 -0.0109323 0)
(-0.677224 -0.0123203 0)
(-0.660538 -0.0166517 0)
(-0.637299 -0.0232649 0)
(-0.605957 -0.0306473 0)
(-0.564919 -0.0367587 0)
(-0.518741 -0.0391618 0)
(-0.471385 -0.0382097 0)
(-0.427743 -0.0338287 0)
(-0.390276 -0.0278514 0)
(-0.360777 -0.0206139 0)
(-0.341121 -0.013108 0)
(-0.329777 -0.00807825 0)
(-0.322463 -0.00665356 0)
(-0.314357 -0.00709624 0)
(-0.305574 -0.00719186 0)
(-0.298067 -0.0063551 0)
(-0.292234 -0.00393909 0)
(-0.291591 0.000206723 0)
(-0.297644 0.00377126 0)
(-0.306588 0.00253748 0)
(-0.311492 -0.00667629 0)
(-0.302171 -0.0263006 0)
(-0.264016 -0.0539703 0)
(-0.192069 -0.0783478 0)
(-0.0943917 -0.0832002 0)
(0.00537326 -0.0669911 0)
(0.0767825 -0.0279532 0)
(0.0950858 0.008304 0)
(0.0747238 0.020414 0)
(0.0458228 0.0250096 0)
(0.019376 0.0247752 0)
(-0.00067583 0.0200399 0)
(-0.0121934 0.00649601 0)
(-0.0065497 -0.0134934 0)
(0.0213752 -0.0314697 0)
(0.0680073 -0.0469764 0)
(0.123442 -0.0587644 0)
(0.170171 -0.071866 0)
(0.237238 -0.0783446 0)
(0.301166 -0.0820885 0)
(0.398458 -0.0614542 0)
(0.422774 0.0325836 0)
(0.437849 0.0937806 0)
(-0.084406 -0.0133982 0)
(-0.0716153 -0.01363 0)
(-0.0586821 -0.0139669 0)
(-0.0454668 -0.0142308 0)
(-0.0319523 -0.0146085 0)
(-0.0181069 -0.0149336 0)
(-0.00389225 -0.015372 0)
(0.010714 -0.0157748 0)
(0.0257355 -0.0162816 0)
(0.0412271 -0.0167571 0)
(0.0572107 -0.0173257 0)
(0.0737191 -0.0178713 0)
(0.0907746 -0.0184838 0)
(0.1084 -0.0190886 0)
(0.126605 -0.019704 0)
(0.145387 -0.0202506 0)
(0.164724 -0.020868 0)
(0.184568 -0.0212464 0)
(0.204829 -0.0217386 0)
(0.225377 -0.0217624 0)
(0.246027 -0.0219346 0)
(0.266523 -0.0213733 0)
(0.286583 -0.0209711 0)
(0.305802 -0.0196095 0)
(0.32384 -0.0183784 0)
(0.340163 -0.0161128 0)
(0.354462 -0.0139089 0)
(0.366142 -0.0108223 0)
(0.375017 -0.00770506 0)
(0.380563 -0.00405744 0)
(0.382783 -0.000337799 0)
(0.381319 0.00341676 0)
(0.376305 0.00724259 0)
(0.367729 0.0108449 0)
(0.35586 0.0142985 0)
(0.340894 0.0174209 0)
(0.323141 0.0203702 0)
(0.302876 0.0227441 0)
(0.280453 0.0251619 0)
(0.256081 0.0268755 0)
(0.230038 0.028916 0)
(0.202419 0.0301963 0)
(0.173386 0.0321045 0)
(0.142941 0.0331328 0)
(0.111217 0.0350843 0)
(0.0782005 0.0358618 0)
(0.0441806 0.037802 0)
(0.0110377 0.0379931 0)
(-0.0258474 0.0398539 0)
(-0.065552 0.0393445 0)
(-0.103379 0.0403464 0)
(-0.141977 0.0407813 0)
(-0.179474 0.0387201 0)
(-0.215604 0.0378347 0)
(-0.249768 0.0347047 0)
(-0.281481 0.0324837 0)
(-0.310131 0.0284834 0)
(-0.335427 0.0251649 0)
(-0.356871 0.0206657 0)
(-0.374387 0.0166422 0)
(-0.387622 0.0120507 0)
(-0.396675 0.00763571 0)
(-0.401526 0.00307718 0)
(-0.402263 -0.00131369 0)
(-0.398743 -0.00547188 0)
(-0.391365 -0.00944668 0)
(-0.380404 -0.0130636 0)
(-0.366209 -0.0162861 0)
(-0.349156 -0.0190964 0)
(-0.32977 -0.0211718 0)
(-0.308762 -0.0227091 0)
(-0.28634 -0.0241017 0)
(-0.263138 -0.0245313 0)
(-0.239537 -0.0250642 0)
(-0.215917 -0.0246655 0)
(-0.192646 -0.0245043 0)
(-0.169882 -0.0236233 0)
(-0.147834 -0.0230213 0)
(-0.126647 -0.0219898 0)
(-0.106218 -0.0211934 0)
(-0.0870326 -0.0202962 0)
(-0.0680935 -0.0196612 0)
(-0.0505912 -0.0192031 0)
(-0.0323253 -0.019211 0)
(-0.0150614 -0.019397 0)
(0.00205505 -0.0202952 0)
(0.0222101 -0.0207854 0)
(0.0407107 -0.0231923 0)
(0.0649609 -0.024676 0)
(0.0862675 -0.0243088 0)
(0.110768 -0.0266738 0)
(0.135126 -0.0253962 0)
(0.159303 -0.0262651 0)
(0.183231 -0.023203 0)
(0.203851 -0.0212208 0)
(0.222056 -0.0156681 0)
(0.233977 -0.0104599 0)
(0.240784 -0.0024375 0)
(0.238864 0.00565003 0)
(0.228647 0.0160304 0)
(0.20687 0.0259596 0)
(0.175641 0.0372757 0)
(0.132679 0.0479053 0)
(0.077874 0.058495 0)
(0.0141491 0.0678419 0)
(-0.0512898 0.0740292 0)
(-0.123484 0.0777583 0)
(-0.19729 0.0789676 0)
(-0.272649 0.0766487 0)
(-0.343741 0.071501 0)
(-0.409195 0.064419 0)
(-0.466716 0.0562265 0)
(-0.514892 0.0476382 0)
(-0.555467 0.0384719 0)
(-0.58719 0.0307629 0)
(-0.613086 0.0225051 0)
(-0.630702 0.0151164 0)
(-0.640721 0.0072267 0)
(-0.644498 0.000979128 0)
(-0.640706 -0.00566565 0)
(-0.633589 -0.00907926 0)
(-0.624224 -0.00955982 0)
(-0.616002 -0.00904767 0)
(-0.607901 -0.00911111 0)
(-0.599661 -0.00992345 0)
(-0.589119 -0.0121462 0)
(-0.576266 -0.0149279 0)
(-0.559156 -0.0198125 0)
(-0.53698 -0.0244645 0)
(-0.513597 -0.0238769 0)
(-0.492749 -0.0222829 0)
(-0.471498 -0.0225127 0)
(-0.451267 -0.0207878 0)
(-0.432676 -0.0195844 0)
(-0.414386 -0.019008 0)
(-0.397617 -0.0166625 0)
(-0.383287 -0.0145104 0)
(-0.370188 -0.0122492 0)
(-0.359719 -0.0103669 0)
(-0.351077 -0.00834784 0)
(-0.343787 -0.00608708 0)
(-0.339142 -0.00389161 0)
(-0.336565 -0.0016179 0)
(-0.336634 0.00125966 0)
(-0.33968 0.00410814 0)
(-0.344994 0.00607425 0)
(-0.350508 0.00733613 0)
(-0.357212 0.00829344 0)
(-0.367136 0.0112506 0)
(-0.378904 0.0128321 0)
(-0.390993 0.0133215 0)
(-0.402951 0.0132103 0)
(-0.414723 0.0131801 0)
(-0.428206 0.01422 0)
(-0.442592 0.0155674 0)
(-0.457602 0.0168373 0)
(-0.473854 0.0179194 0)
(-0.491001 0.0193911 0)
(-0.509703 0.020613 0)
(-0.529947 0.0223337 0)
(-0.55164 0.0239126 0)
(-0.574824 0.024969 0)
(-0.599213 0.0263738 0)
(-0.623787 0.0265408 0)
(-0.649208 0.0267563 0)
(-0.674261 0.026296 0)
(-0.698539 0.0254471 0)
(-0.722665 0.0241707 0)
(-0.744579 0.0218644 0)
(-0.76369 0.0189354 0)
(-0.779669 0.0154233 0)
(-0.791498 0.0108371 0)
(-0.799757 0.00509169 0)
(-0.803701 -0.000381866 0)
(-0.801873 -0.00577543 0)
(-0.793279 -0.0115966 0)
(-0.778862 -0.0165532 0)
(-0.760534 -0.0191457 0)
(-0.741223 -0.0191756 0)
(-0.723054 -0.0173815 0)
(-0.70594 -0.0155755 0)
(-0.690794 -0.0144234 0)
(-0.677027 -0.0160115 0)
(-0.660941 -0.0213815 0)
(-0.638248 -0.0297027 0)
(-0.607293 -0.0390862 0)
(-0.566282 -0.047105 0)
(-0.519885 -0.0504364 0)
(-0.471716 -0.0493467 0)
(-0.427279 -0.0438063 0)
(-0.389814 -0.0362098 0)
(-0.360718 -0.0268179 0)
(-0.341361 -0.0171305 0)
(-0.330505 -0.0106188 0)
(-0.324318 -0.00889404 0)
(-0.317149 -0.00957557 0)
(-0.308813 -0.00963523 0)
(-0.30233 -0.00832988 0)
(-0.298148 -0.00502424 0)
(-0.29961 0.000700275 0)
(-0.309075 0.00565423 0)
(-0.322374 0.00453328 0)
(-0.334087 -0.0063509 0)
(-0.335545 -0.0305784 0)
(-0.310682 -0.0660029 0)
(-0.248553 -0.0981875 0)
(-0.152128 -0.106788 0)
(-0.0463108 -0.0875226 0)
(0.0346838 -0.0395661 0)
(0.0614712 0.0082829 0)
(0.0455885 0.0251722 0)
(0.0198968 0.0299079 0)
(-0.00194965 0.0281117 0)
(-0.0171066 0.0216084 0)
(-0.0242447 0.00635924 0)
(-0.0174988 -0.017055 0)
(0.0092117 -0.040275 0)
(0.0465281 -0.0583653 0)
(0.0762506 -0.0697079 0)
(0.0960187 -0.0835818 0)
(0.148377 -0.0945882 0)
(0.211393 -0.10157 0)
(0.299641 -0.0774359 0)
(0.322716 0.0224922 0)
(0.372612 0.108892 0)
(-0.0844807 -0.0163758 0)
(-0.0716903 -0.0166578 0)
(-0.0587615 -0.0170685 0)
(-0.0455516 -0.0173903 0)
(-0.0320451 -0.0178514 0)
(-0.0182077 -0.0182484 0)
(-0.00400322 -0.018784 0)
(0.0105941 -0.0192762 0)
(0.0256061 -0.0198958 0)
(0.0410895 -0.0204772 0)
(0.0570645 -0.0211726 0)
(0.0735663 -0.02184 0)
(0.0906161 -0.0225895 0)
(0.108239 -0.0233301 0)
(0.126445 -0.0240843 0)
(0.145235 -0.0247552 0)
(0.164585 -0.0255138 0)
(0.184455 -0.0259811 0)
(0.204752 -0.026589 0)
(0.225353 -0.0266242 0)
(0.246072 -0.0268427 0)
(0.266651 -0.0261625 0)
(0.286816 -0.0256789 0)
(0.306141 -0.0240173 0)
(0.324313 -0.0225174 0)
(0.340743 -0.0197451 0)
(0.355184 -0.0170499 0)
(0.366946 -0.0132683 0)
(0.375939 -0.00945252 0)
(0.38152 -0.0049903 0)
(0.383798 -0.000434677 0)
(0.382315 0.00419108 0)
(0.3773 0.00887801 0)
(0.368665 0.0132819 0)
(0.356731 0.0175085 0)
(0.341683 0.0213283 0)
(0.323852 0.0249343 0)
(0.303495 0.0278326 0)
(0.281007 0.0307835 0)
(0.256564 0.0328706 0)
(0.230485 0.035358 0)
(0.202827 0.0369163 0)
(0.173788 0.0392443 0)
(0.143324 0.0404996 0)
(0.111601 0.0428864 0)
(0.0785524 0.0438419 0)
(0.0444936 0.0462225 0)
(0.0113096 0.0464656 0)
(-0.0256373 0.0487488 0)
(-0.0654772 0.048134 0)
(-0.103421 0.0493719 0)