/*--------------------------------*- C++ -*----------------------------------*\
| =========                 |                                                 |
| \\      /  F ield         | OpenFOAM: The Open Source CFD Toolbox           |
|  \\    /   O peration     | Version:  3.0.1                                 |
|   \\  /    A nd           | Web:      www.OpenFOAM.org                      |
|    \\/     M anipulation  |                                                 |
\*---------------------------------------------------------------------------*/
FoamFile
{
    version     2.0;
    format      ascii;
    class       surfaceScalarField;
    location    "25.6";
    object      alphaPhi;
}
// * * * * * * * * * * * * * * * * * * * * * * * * * * * * * * * * * * * * * //

dimensions      [0 3 -1 0 0 0 0];

internalField   nonuniform List<scalar> 
42423
(
-0.000134401
-2.4775e-06
-0.000130999
-3.40285e-06
-0.000126748
-4.25031e-06
-0.000121643
-5.10544e-06
-0.00011555
-6.09299e-06
-0.000108553
-6.99641e-06
-0.000100497
-8.05659e-06
-9.15634e-05
-8.93353e-06
-8.17919e-05
-9.77149e-06
-7.10027e-05
-1.07893e-05
-5.93465e-05
-1.16561e-05
-4.69558e-05
-1.23907e-05
-3.3742e-05
-1.32139e-05
-1.99623e-05
-1.37797e-05
-5.58135e-06
-1.4381e-05
9.20023e-06
-1.47816e-05
2.41493e-05
-1.49491e-05
3.9221e-05
-1.50717e-05
5.42838e-05
-1.50629e-05
6.91224e-05
-1.48386e-05
8.36681e-05
-1.45458e-05
9.77862e-05
-1.41182e-05
0.000111252
-1.34653e-05
0.000123956
-1.27047e-05
0.000135777
-1.18209e-05
0.000146601
-1.08237e-05
0.000156316
-9.71546e-06
0.000164832
-8.51554e-06
0.000172076
-7.2445e-06
0.000177977
-5.901e-06
0.00018248
-4.50345e-06
0.000185559
-3.07839e-06
0.000187196
-1.63706e-06
0.000187403
-2.07686e-07
0.000186356
1.04708e-06
0.00018376
2.5965e-06
0.000179701
4.05843e-06
0.000174131
5.57068e-06
0.000167016
7.11453e-06
0.000158629
8.38748e-06
0.000148916
9.71244e-06
0.000138083
1.08326e-05
0.00012613
1.19538e-05
0.000113233
1.28962e-05
9.97124e-05
1.3521e-05
8.56578e-05
1.40546e-05
7.12207e-05
1.44371e-05
5.6563e-05
1.46578e-05
4.20289e-05
1.4534e-05
2.76829e-05
1.4346e-05
1.36996e-05
1.39833e-05
1.38999e-07
1.35606e-05
-1.28357e-05
1.29747e-05
-2.52004e-05
1.23647e-05
-3.68549e-05
1.16545e-05
-4.7759e-05
1.09041e-05
-5.79298e-05
1.01708e-05
-6.73119e-05
9.38213e-06
-7.58778e-05
8.56594e-06
-8.36597e-05
7.78188e-06
-9.06293e-05
6.96954e-06
-9.68386e-05
6.20928e-06
-0.000102256
5.41701e-06
-0.000106845
4.58922e-06
-0.000110683
3.83865e-06
-0.000113716
3.0327e-06
-0.000115949
2.23289e-06
-0.000117448
1.49873e-06
-0.000118165
7.17359e-07
-0.000118132
-3.33543e-08
-0.000117407
-7.24574e-07
-0.000115979
-1.42783e-06
-0.000113974
-2.00575e-06
-0.000111436
-2.53769e-06
-0.000108342
-3.09406e-06
-0.000104839
-3.50289e-06
-0.000100833
-4.00571e-06
-9.64021e-05
-4.43146e-06
-9.15849e-05
-4.81727e-06
-8.63027e-05
-5.28224e-06
-8.05487e-05
-5.75403e-06
-7.42666e-05
-6.28223e-06
-6.74275e-05
-6.83911e-06
-5.99239e-05
-7.50367e-06
-5.1707e-05
-8.21699e-06
-4.28133e-05
-8.89384e-06
-3.31753e-05
-9.6381e-06
-2.28307e-05
-1.03447e-05
-1.18078e-05
-1.10229e-05
-2.41897e-07
-1.1566e-05
1.18286e-05
-1.20705e-05
2.43295e-05
-1.2501e-05
3.70495e-05
-1.272e-05
4.9988e-05
-1.29386e-05
6.29056e-05
-1.29176e-05
7.57219e-05
-1.28164e-05
8.83494e-05
-1.26276e-05
0.000100578
-1.22291e-05
0.000112343
-1.17649e-05
0.000123473
-1.11294e-05
0.000133818
-1.03457e-05
0.000143192
-9.37436e-06
0.000151467
-8.27462e-06
0.000158441
-6.97413e-06
0.000164007
-5.5656e-06
0.000168031
-4.02405e-06
0.000170418
-2.38702e-06
0.000171093
-6.75298e-07
0.000170061
1.03138e-06
0.000167258
2.80339e-06
0.000162755
4.50305e-06
0.000156658
6.09679e-06
0.000149026
7.63217e-06
0.000139976
9.05011e-06
0.000129724
1.02516e-05
0.000118428
1.1296e-05
0.000106259
1.21689e-05
9.34256e-05
1.28335e-05
8.00685e-05
1.33571e-05
6.64429e-05
1.36256e-05
5.2698e-05
1.37448e-05
3.89612e-05
1.37368e-05
2.54232e-05
1.3538e-05
1.21813e-05
1.3242e-05
-6.5228e-07
1.28336e-05
-1.29695e-05
1.23173e-05
-2.46648e-05
1.16952e-05
-3.57351e-05
1.10703e-05
-4.60858e-05
1.03507e-05
-5.57456e-05
9.65986e-06
-6.47056e-05
8.96e-06
-7.3001e-05
8.29537e-06
-8.06231e-05
7.62208e-06
-8.75831e-05
6.95999e-06
-9.39059e-05
6.32283e-06
-9.95541e-05
5.64822e-06
-0.000104697
5.14317e-06
-0.0001092
4.50232e-06
-0.000113163
3.96338e-06
-0.000116587
3.42382e-06
-0.000119466
2.87916e-06
-0.000121793
2.32693e-06
-0.000123637
1.84437e-06
-0.000124885
1.24806e-06
-0.000125595
7.10289e-07
-0.000125751
1.55903e-07
-0.000125319
-4.32431e-07
-0.000124351
-9.67845e-07
-0.000122789
-1.56247e-06
-0.000120597
-2.19163e-06
-0.000117765
-2.83206e-06
-0.000114245
-3.51968e-06
-0.000110087
-4.15791e-06
-0.000105211
-4.87673e-06
-9.96129e-05
-5.59776e-06
-9.33452e-05
-6.2677e-06
-8.63115e-05
-7.03372e-06
-7.85476e-05
-7.7639e-06
-7.00395e-05
-8.50815e-06
-6.0837e-05
-9.20248e-06
-5.09843e-05
-9.85276e-06
-4.05111e-05
-1.04732e-05
-2.94326e-05
-1.10785e-05
-1.79128e-05
-1.15199e-05
-5.95038e-06
-1.19625e-05
6.35154e-06
-1.2302e-05
1.8902e-05
-1.25505e-05
3.15523e-05
-1.26503e-05
4.42091e-05
-1.26569e-05
5.67483e-05
-1.25393e-05
6.90369e-05
-1.22887e-05
8.0933e-05
-1.18961e-05
9.22955e-05
-1.13626e-05
0.000102983
-1.06876e-05
0.000112865
-9.88192e-06
0.000121807
-8.94257e-06
0.000129674
-7.86702e-06
0.000136352
-6.67775e-06
0.000141749
-5.39708e-06
0.000145754
-4.00485e-06
0.000148323
-2.56905e-06
0.000149403
-1.07974e-06
0.000148998
4.04725e-07
0.000147089
1.90881e-06
0.000143657
3.43196e-06
0.000138836
4.8212e-06
0.000132675
6.16109e-06
0.000125273
7.40177e-06
0.000116732
8.5413e-06
0.000107185
9.54683e-06
9.67441e-05
1.04408e-05
8.55144e-05
1.12297e-05
7.36776e-05
1.18368e-05
6.13444e-05
1.23332e-05
4.86632e-05
1.26812e-05
3.57849e-05
1.28784e-05
2.28379e-05
1.2947e-05
9.9495e-06
1.28884e-05
-2.75109e-06
1.27006e-05
-1.51965e-05
1.24454e-05
-2.72226e-05
1.20261e-05
-3.8782e-05
1.15593e-05
-4.97804e-05
1.09984e-05
-6.01996e-05
1.04192e-05
-6.99929e-05
9.7933e-06
-7.91405e-05
9.14762e-06
-8.7627e-05
8.48652e-06
-9.54212e-05
7.79421e-06
-0.000102513
7.09153e-06
-0.000108904
6.39099e-06
-0.000114587
5.6835e-06
-0.000119583
4.99546e-06
-0.000123869
4.28608e-06
-0.000127442
3.57311e-06
-0.000130347
2.90565e-06
-0.000132518
2.17016e-06
-0.000133998
1.48063e-06
-0.000134783
7.84584e-07
-0.000134892
1.09525e-07
-0.000134327
-5.65104e-07
-0.000133109
-1.21865e-06
-0.000131292
-1.81659e-06
-0.00012889
-2.40208e-06
-0.000125907
-2.98274e-06
-0.000122346
-3.56146e-06
-0.000118208
-4.13804e-06
-0.000113472
-4.73525e-06
-0.00010816
-5.31292e-06
-0.000102267
-5.89289e-06
-9.57833e-05
-6.48336e-06
-8.87107e-05
-7.07258e-06
-8.11272e-05
-7.5836e-06
-7.29508e-05
-8.17641e-06
-6.42244e-05
-8.72642e-06
-5.49525e-05
-9.27193e-06
-4.51569e-05
-9.79558e-06
-3.48701e-05
-1.02868e-05
-2.41056e-05
-1.07646e-05
-1.29762e-05
-1.11294e-05
-1.45043e-06
-1.15258e-05
1.0408e-05
-1.18585e-05
2.24805e-05
-1.20725e-05
3.47346e-05
-1.22542e-05
4.7033e-05
-1.22985e-05
5.92892e-05
-1.22562e-05
7.13711e-05
-1.2082e-05
8.30902e-05
-1.17192e-05
9.4323e-05
-1.12329e-05
0.000104907
-1.05843e-05
0.000114701
-9.79339e-06
0.00012348
-8.77905e-06
0.000131156
-7.6766e-06
0.000137574
-6.41821e-06
0.000142629
-5.05426e-06
0.000146227
-3.59875e-06
0.000148281
-2.05414e-06
0.000148758
-4.7618e-07
0.000147635
1.12208e-06
0.000144897
2.73804e-06
0.000140535
4.36198e-06
0.000134681
5.8543e-06
0.000127392
7.28945e-06
0.000118814
8.57757e-06
0.000109012
9.8023e-06
9.81853e-05
1.08264e-05
8.65541e-05
1.16311e-05
7.4267e-05
1.22871e-05
6.15532e-05
1.27137e-05
4.85876e-05
1.29656e-05
3.55216e-05
1.3066e-05
2.25725e-05
1.29491e-05
9.87468e-06
1.26978e-05
-2.21187e-06
1.20865e-05
-1.38191e-05
1.16072e-05
-2.47879e-05
1.09688e-05
-3.50677e-05
1.02799e-05
-4.459e-05
9.52233e-06
-5.34253e-05
8.83524e-06
-6.1554e-05
8.12872e-06
-6.90264e-05
7.47241e-06
-7.589e-05
6.86365e-06
-8.21692e-05
6.27917e-06
-8.79724e-05
5.80329e-06
-9.33166e-05
5.34418e-06
-9.82217e-05
4.9051e-06
-0.000102762
4.54046e-06
-0.000106952
4.18951e-06
-0.000110744
3.79219e-06
-0.000114154
3.41055e-06
-0.000117122
2.96801e-06
-0.000119641
2.51859e-06
-0.000121699
2.05796e-06
-0.000123234
1.53522e-06
-0.000124258
1.02421e-06
-0.000124759
5.0083e-07
-0.00012449
-2.68762e-07
-0.000123491
-9.99832e-07
-0.000121749
-1.74165e-06
-0.000119219
-2.52995e-06
-0.000115942
-3.27744e-06
-0.000111848
-4.09378e-06
-0.000107014
-4.83386e-06
-0.00010144
-5.5743e-06
-9.49999e-05
-6.43976e-06
-8.77964e-05
-7.20351e-06
-7.9837e-05
-7.95946e-06
-7.10959e-05
-8.74108e-06
-6.16771e-05
-9.41883e-06
-5.15117e-05
-1.01655e-05
-4.07476e-05
-1.07641e-05
-2.95104e-05
-1.12372e-05
-1.77154e-05
-1.1795e-05
-5.5036e-06
-1.22119e-05
6.97162e-06
-1.24752e-05
1.9643e-05
-1.26714e-05
3.23568e-05
-1.27138e-05
4.50189e-05
-1.26622e-05
5.75144e-05
-1.24955e-05
6.96528e-05
-1.21385e-05
8.1376e-05
-1.17232e-05
9.25581e-05
-1.11821e-05
0.000103029
-1.04711e-05
0.0001127
-9.6709e-06
0.000121473
-8.77252e-06
0.000129291
-7.81845e-06
0.000136024
-6.73349e-06
0.000141592
-5.56745e-06
0.000145959
-4.36716e-06
0.000149079
-3.1204e-06
0.000150932
-1.85289e-06
0.000151493
-5.60595e-07
0.000150718
7.74468e-07
0.000148545
2.17323e-06
0.000145068
3.47686e-06
0.000140291
4.77665e-06
0.000134329
5.96226e-06
0.000127202
7.12676e-06
0.000118988
8.21443e-06
0.00010983
9.15729e-06
9.97874e-05
1.0043e-05
8.89286e-05
1.08588e-05
7.74132e-05
1.15153e-05
6.53543e-05
1.20589e-05
5.29099e-05
1.24444e-05
4.02086e-05
1.27013e-05
2.74215e-05
1.27871e-05
1.46994e-05
1.2722e-05
2.14255e-06
1.25568e-05
-1.01923e-05
1.23349e-05
-2.21311e-05
1.19388e-05
-3.35893e-05
1.14581e-05
-4.44616e-05
1.08723e-05
-5.4704e-05
1.02424e-05
-6.42541e-05
9.55004e-06
-7.3054e-05
8.79989e-06
-8.10836e-05
8.02963e-06
7.13674e-06
-0.000134441
-4.94902e-06
-0.000131042
-6.80206e-06
-0.000126796
-8.4966e-06
-0.000121694
-1.02069e-05
-0.000115601
-1.21862e-05
-0.000108607
-1.39904e-05
-0.00010055
-1.61133e-05
-9.16166e-05
-1.78674e-05
-8.18452e-05
-1.9543e-05
-7.10523e-05
-2.15821e-05
-5.93928e-05
-2.33157e-05
-4.7001e-05
-2.47825e-05
-3.37723e-05
-2.64426e-05
-1.99831e-05
-2.7569e-05
-5.59577e-06
-2.87684e-05
9.18169e-06
-2.95591e-05
2.41379e-05
-2.99054e-05
3.92189e-05
-3.01527e-05
5.42916e-05
-3.01357e-05
6.91387e-05
-2.96857e-05
8.36919e-05
-2.90991e-05
9.78238e-05
-2.82501e-05
0.000111311
-2.6953e-05
0.000124024
-2.54172e-05
0.00013584
-2.36368e-05
0.000146667
-2.16508e-05
0.000156386
-1.94349e-05
0.000164907
-1.70363e-05
0.000172162
-1.44997e-05
0.000178084
-1.18227e-05
0.000182588
-9.00799e-06
0.000185652
-6.14235e-06
0.000187289
-3.27447e-06
0.000187498
-4.16311e-07
0.000186448
2.09724e-06
0.00018385
5.19406e-06
0.000179791
8.11747e-06
0.000174222
1.11394e-05
0.000167103
1.42338e-05
0.000158712
1.67781e-05
0.000148994
1.94304e-05
0.000138155
2.16719e-05
0.000126196
2.39125e-05
0.000113289
2.58038e-05
9.97585e-05
2.7051e-05
8.56952e-05
2.81179e-05
7.12534e-05
2.88789e-05
5.6581e-05
2.93301e-05
4.20372e-05
2.90779e-05
2.76828e-05
2.87003e-05
1.36922e-05
2.79739e-05
1.22007e-07
2.71308e-05
-1.28593e-05
2.5956e-05
-2.52316e-05
2.4737e-05
-3.68957e-05
2.33186e-05
-4.78033e-05
2.18117e-05
-5.79789e-05
2.03463e-05
-6.73615e-05
1.87647e-05
-7.59307e-05
1.71351e-05
-8.37162e-05
1.55674e-05
-9.0687e-05
1.39404e-05
-9.68925e-05
1.24148e-05
-0.000102306
1.08301e-05
-0.000106896
9.17925e-06
-0.000110732
7.67501e-06
-0.000113763
6.0641e-06
-0.000115996
4.46534e-06
-0.000117486
2.98849e-06
-0.000118194
1.42563e-06
-0.000118168
-5.94266e-08
-0.000117448
-1.44451e-06
-0.000116016
-2.86003e-06
-0.000114008
-4.01401e-06
-0.000111467
-5.07796e-06
-0.000108368
-6.19314e-06
-0.000104859
-7.01264e-06
-0.00010085
-8.01471e-06
-9.64142e-05
-8.86702e-06
-9.15979e-05
-9.63356e-06
-8.63095e-05
-1.05707e-05
-8.05483e-05
-1.15154e-05
-7.42696e-05
-1.2561e-05
-6.74246e-05
-1.36842e-05
-5.99209e-05
-1.50076e-05
-5.17081e-05
-1.64299e-05
-4.28121e-05
-1.77899e-05
-3.31693e-05
-1.9281e-05
-2.28363e-05
-2.06778e-05
-1.18203e-05
-2.2039e-05
-2.4585e-07
-2.31405e-05
1.18248e-05
-2.41412e-05
2.43256e-05
-2.5002e-05
3.70497e-05
-2.54442e-05
4.99768e-05
-2.58658e-05
6.28997e-05
-2.58406e-05
7.57227e-05
-2.56394e-05
8.83532e-05
-2.52581e-05
0.00010059
-2.44658e-05
0.000112363
-2.35385e-05
0.000123499
-2.22655e-05
0.000133852
-2.0699e-05
0.00014323
-1.87519e-05
0.000151524
-1.65683e-05
0.000158507
-1.3958e-05
0.000164078
-1.11363e-05
0.000168103
-8.04922e-06
0.000170496
-4.78046e-06
0.000171165
-1.344e-06
0.000170127
2.06912e-06
0.000167329
5.60195e-06
0.000162825
9.00672e-06
0.000156716
1.22061e-05
0.000149076
1.5272e-05
0.000140027
1.8099e-05
0.000129768
2.05107e-05
0.000118455
2.26084e-05
0.000106273
2.4351e-05
9.34166e-05
2.56902e-05
8.00638e-05
2.671e-05
6.64416e-05
2.72478e-05
5.26815e-05
2.7505e-05
3.89275e-05
2.74909e-05
2.53796e-05
2.70859e-05
1.21297e-05
2.64919e-05
-6.99591e-07
2.56629e-05
-1.30172e-05
2.46349e-05
-2.47295e-05
2.34076e-05
-3.58043e-05
2.21452e-05
-4.61547e-05
2.07011e-05
-5.58143e-05
1.93195e-05
-6.47738e-05
1.79196e-05
-7.30604e-05
1.6582e-05
-8.07001e-05
1.52618e-05
-8.76598e-05
1.39197e-05
-9.39748e-05
1.26379e-05
-9.96348e-05
1.13083e-05
-0.000104758
1.02665e-05
-0.000109266
9.00997e-06
-0.000113227
7.92504e-06
-0.000116655
6.85172e-06
-0.000119537
5.76127e-06
-0.000121862
4.65153e-06
-0.000123706
3.68842e-06
-0.000124959
2.5011e-06
-0.000125668
1.41912e-06
-0.000125821
3.08793e-07
-0.000125373
-8.79944e-07
-0.000124421
-1.91962e-06
-0.000122862
-3.1215e-06
-0.000120662
-4.39221e-06
-0.000117827
-5.66724e-06
-0.000114317
-7.02959e-06
-0.000110159
-8.31549e-06
-0.000105281
-9.75507e-06
-9.96797e-05
-1.11987e-05
-9.34104e-05
-1.2537e-05
-8.63737e-05
-1.40704e-05
-7.86055e-05
-1.55321e-05
-7.00952e-05
-1.70184e-05
-6.09024e-05
-1.83953e-05
-5.10439e-05
-1.97113e-05
-4.0552e-05
-2.09651e-05
-2.94736e-05
-2.2157e-05
-1.79478e-05
-2.30457e-05
-5.9759e-06
-2.39344e-05
6.32738e-06
-2.46053e-05
1.88901e-05
-2.51132e-05
3.15397e-05
-2.53001e-05
4.42122e-05
-2.53294e-05
5.67586e-05
-2.50857e-05
6.90495e-05
-2.45797e-05
8.09513e-05
-2.3798e-05
9.23232e-05
-2.27345e-05
0.00010302
-2.13842e-05
0.000112915
-1.97776e-05
0.000121864
-1.78914e-05
0.000129732
-1.57352e-05
0.000136411
-1.33569e-05
0.000141809
-1.07953e-05
0.000145824
-8.01987e-06
0.000148397
-5.14132e-06
0.000149474
-2.15694e-06
0.000149062
8.16676e-07
0.000147151
3.81946e-06
0.000143718
6.86527e-06
0.000138896
9.64259e-06
0.000132729
1.23286e-05
0.00012532
1.48104e-05
0.000116774
1.7087e-05
0.000107212
1.91094e-05
9.67692e-05
2.08834e-05
8.55359e-05
2.2463e-05
7.36825e-05
2.36902e-05
6.13382e-05
2.46775e-05
4.86565e-05
2.53629e-05
3.57696e-05
2.57653e-05
2.28059e-05
2.59108e-05
9.91149e-06
2.57828e-05
-2.78877e-06
2.54009e-05
-1.52396e-05
2.48962e-05
-2.72713e-05
2.40579e-05
-3.88321e-05
2.31201e-05
-4.98394e-05
2.20058e-05
-6.02663e-05
2.08461e-05
-7.006e-05
1.9587e-05
-7.92111e-05
1.82987e-05
-8.76924e-05
1.69679e-05
-9.5491e-05
1.55928e-05
-0.000102588
1.41889e-05
-0.000108985
1.2788e-05
-0.000114669
1.13677e-05
-0.000119656
9.9823e-06
-0.000123935
8.56461e-06
-0.000127516
7.15452e-06
-0.000130423
5.81246e-06
-0.000132591
4.33831e-06
-0.000134074
2.963e-06
-0.000134861
1.57177e-06
-0.000134969
2.18183e-07
-0.000134401
-1.13373e-06
-0.000133178
-2.44126e-06
-0.000131362
-3.6322e-06
-0.000128952
-4.81274e-06
-0.000125972
-5.96301e-06
-0.000122407
-7.12619e-06
-0.000118265
-8.27942e-06
-0.000113534
-9.4669e-06
-0.000108222
-1.06248e-05
-0.000102331
-1.1784e-05
-9.58443e-05
-1.29699e-05
-8.87758e-05
-1.41411e-05
-8.11782e-05
-1.51812e-05
-7.29993e-05
-1.63553e-05
-6.42687e-05
-1.74571e-05
-5.49992e-05
-1.85415e-05
-4.51964e-05
-1.95984e-05
-3.4906e-05
-2.05773e-05
-2.41381e-05
-2.15325e-05
-1.30019e-05
-2.22657e-05
-1.47341e-06
-2.30544e-05
1.03801e-05
-2.3712e-05
2.24662e-05
-2.41587e-05
3.47228e-05
-2.45109e-05
4.70316e-05
-2.46073e-05
5.93002e-05
-2.45248e-05
7.13828e-05
-2.41646e-05
8.31192e-05
-2.34557e-05
9.43595e-05
-2.24733e-05
0.000104955
-2.11798e-05
0.000114758
-1.95967e-05
0.000123535
-1.75561e-05
0.000131221
-1.5362e-05
0.000137645
-1.2843e-05
0.00014271
-1.01192e-05
0.000146311
-7.19959e-06
0.000148369
-4.11241e-06
0.000148841
-9.47464e-07
0.000147713
2.24965e-06
0.000144967
5.48395e-06
0.000140613
8.71582e-06
0.000134753
1.17142e-05
0.000127453
1.45893e-05
0.000118867
1.71637e-05
0.00010906
1.96096e-05
9.82202e-05
2.16662e-05
8.65799e-05
2.32715e-05
7.42849e-05
2.4582e-05
6.15588e-05
2.54399e-05
4.85805e-05
2.59438e-05
3.55116e-05
2.61349e-05
2.25547e-05
2.59059e-05
9.85982e-06
2.53927e-05
-2.24703e-06
2.41934e-05
-1.38625e-05
2.32227e-05
-2.4839e-05
2.19454e-05
-3.51228e-05
2.05636e-05
-4.4652e-05
1.90516e-05
-5.34972e-05
1.76804e-05
-6.16264e-05
1.6258e-05
-6.91007e-05
1.49467e-05
-7.5969e-05
1.37319e-05
-8.22514e-05
1.25617e-05
-8.80554e-05
1.16073e-05
-9.33996e-05
1.06885e-05
-9.83019e-05
9.80734e-06
-0.000102838
9.07663e-06
-0.000107026
8.37728e-06
-0.000110814
7.58023e-06
-0.000114224
6.82059e-06
-0.000117198
5.94171e-06
-0.000119721
5.04169e-06
-0.000121774
4.11146e-06
-0.000123303
3.064e-06
-0.000124324
2.04547e-06
-0.000124823
9.99495e-07
-0.000124555
-5.37128e-07
-0.000123553
-2.00108e-06
-0.000121811
-3.48359e-06
-0.000119281
-5.06028e-06
-0.000116005
-6.5538e-06
-0.000111909
-8.18913e-06
-0.000107079
-9.66394e-06
-0.000101503
-1.11504e-05
-9.50622e-05
-1.28808e-05
-8.78617e-05
-1.4404e-05
-7.98953e-05
-1.59259e-05
-7.11518e-05
-1.74846e-05
-6.17276e-05
-1.88431e-05
-5.15568e-05
-2.03363e-05
-4.07885e-05
-2.15325e-05
-2.95451e-05
-2.24806e-05
-1.77448e-05
-2.35954e-05
-5.52093e-06
-2.44358e-05
6.95398e-06
-2.49502e-05
1.96318e-05
-2.53493e-05
3.23534e-05
-2.54355e-05
4.50266e-05
-2.53354e-05
5.75303e-05
-2.49993e-05
6.9673e-05
-2.42813e-05
8.14042e-05
-2.34545e-05
9.25972e-05
-2.23752e-05
0.000103075
-2.09491e-05
0.000112749
-1.93448e-05
0.000121526
-1.75499e-05
0.000129356
-1.5648e-05
0.000136107
-1.34845e-05
0.000141674
-1.11347e-05
0.000146032
-8.72549e-06
0.000149154
-6.24213e-06
0.00015101
-3.70881e-06
0.000151573
-1.12439e-06
0.000150795
1.55231e-06
0.00014862
4.34835e-06
0.000145142
6.95528e-06
0.000140363
9.55552e-06
0.000134399
1.19262e-05
0.000127266
1.42599e-05
0.000119046
1.64337e-05
0.000109883
1.83201e-05
9.98341e-05
2.00923e-05
8.89709e-05
2.1722e-05
7.74478e-05
2.30384e-05
6.53817e-05
2.4125e-05
5.29323e-05
2.48938e-05
4.02199e-05
2.54137e-05
2.74244e-05
2.55825e-05
1.46949e-05
2.54515e-05
2.13268e-06
2.5119e-05
-1.02058e-05
2.46734e-05
-2.21481e-05
2.3881e-05
-3.36093e-05
2.29194e-05
-4.44844e-05
2.17474e-05
-5.4729e-05
2.0487e-05
-6.4281e-05
1.9102e-05
-7.30819e-05
1.76007e-05
-8.11146e-05
1.60623e-05
1.42733e-05
-0.00013451
-7.41963e-06
-0.000131111
-1.02004e-05
-0.000126866
-1.27416e-05
-0.000121767
-1.53066e-05
-0.000115672
-1.82807e-05
-0.00010868
-2.09824e-05
-0.000100624
-2.41698e-05
-9.1689e-05
-2.68022e-05
-8.19119e-05
-2.93202e-05
-7.11122e-05
-3.23819e-05
-5.94475e-05
-3.49805e-05
-4.70411e-05
-3.7189e-05
-3.38158e-05
-3.96679e-05
-2.00095e-05
-4.13753e-05
-5.60851e-06
-4.31694e-05
9.18856e-06
-4.43563e-05
2.41579e-05
-4.48749e-05
3.92519e-05
-4.52467e-05
5.43406e-05
-4.52245e-05
6.92051e-05
-4.45503e-05
8.3775e-05
-4.36691e-05
9.79194e-05
-4.23945e-05
0.000111405
-4.04388e-05
0.000124118
-3.81303e-05
0.000135947
-3.54652e-05
0.000146785
-3.2489e-05
0.00015652
-2.91699e-05
0.000165057
-2.55734e-05
0.00017232
-2.17633e-05
0.000178231
-1.77337e-05
0.000182734
-1.35109e-05
0.000185804
-9.21243e-06
0.000187447
-4.91756e-06
0.000187645
-6.14572e-07
0.00018657
3.17264e-06
0.000183964
7.79943e-06
0.000179903
1.21789e-05
0.000174339
1.67033e-05
0.000167212
2.13607e-05
0.000158812
2.51783e-05
0.000149083
2.91588e-05
0.00013823
3.2525e-05
0.000126268
3.58746e-05
0.000113342
3.873e-05
9.97958e-05
4.05966e-05
8.57169e-05
4.21969e-05
7.12731e-05
4.33226e-05
5.65818e-05
4.40214e-05
4.20189e-05
4.36408e-05
2.76519e-05
4.30672e-05
1.36483e-05
4.19775e-05
6.88867e-08
4.07102e-05
-1.29203e-05
3.89452e-05
-2.52994e-05
3.7116e-05
-3.69679e-05
3.49871e-05
-4.78751e-05
3.2719e-05
-5.80543e-05
3.05255e-05
-6.74359e-05
2.81463e-05
-7.59999e-05
2.56992e-05
-8.37824e-05
2.33498e-05
-9.07498e-05
2.09077e-05
-9.6953e-05
1.8618e-05
-0.000102361
1.62378e-05
-0.000106945
1.37633e-05
-0.000110783
1.1513e-05
-0.000113815
9.09591e-06
-0.000116044
6.69498e-06
-0.000117535
4.4795e-06
-0.00011824
2.13014e-06
-0.000118209
-9.00982e-08
-0.000117489
-2.16502e-06
-0.000116052
-4.29644e-06
-0.000114038
-6.02887e-06
-0.00011149
-7.62584e-06
-0.000108385
-9.298e-06
-0.000104869
-1.05281e-05
-0.000100853
-1.2031e-05
-9.64124e-05
-1.33079e-05
-9.15939e-05
-1.44521e-05
-8.63009e-05
-1.58638e-05
-8.05405e-05
-1.72758e-05
-7.42603e-05
-1.88413e-05
-6.74054e-05
-2.05392e-05
-5.99072e-05
-2.25059e-05
-5.16999e-05
-2.46372e-05
-4.2806e-05
-2.66839e-05
-3.31703e-05
-2.89169e-05
-2.28393e-05
-3.10088e-05
-1.18293e-05
-3.30491e-05
-2.58661e-07
-3.47112e-05
1.18134e-05
-3.62133e-05
2.43126e-05
-3.75013e-05
3.70406e-05
-3.81722e-05
4.99565e-05
-3.87818e-05
6.28912e-05
-3.87754e-05
7.57156e-05
-3.84639e-05
8.83552e-05
-3.78978e-05
0.000100596
-3.67062e-05
0.000112377
-3.53202e-05
0.000123524
-3.34126e-05
0.000133877
-3.10522e-05
0.00014328
-2.81552e-05
0.000151592
-2.48795e-05
0.000158581
-2.09472e-05
0.00016418
-1.67353e-05
0.000168201
-1.2071e-05
0.000170621
-7.20062e-06
0.000171273
-1.99534e-06
0.000170215
3.12643e-06
0.000167418
8.39949e-06
0.000162916
1.35087e-05
0.000156792
1.83294e-05
0.000149138
2.29261e-05
0.000140085
2.71517e-05
0.000129807
3.07896e-05
0.000118478
3.39367e-05
0.000106281
3.65482e-05
9.3405e-05
3.85661e-05
8.00482e-05
4.00668e-05
6.64033e-05
4.08927e-05
5.26217e-05
4.12866e-05
3.88717e-05
4.12409e-05
2.53088e-05
4.06488e-05
1.2052e-05
3.97487e-05
-7.76567e-07
3.84915e-05
-1.31023e-05
3.69607e-05
-2.48285e-05
3.51338e-05
-3.59005e-05
3.32172e-05
-4.62447e-05
3.10454e-05
-5.59106e-05
2.89854e-05
-6.48748e-05
2.68838e-05
-7.31491e-05
2.48562e-05
-8.0789e-05
2.29017e-05
-8.77446e-05
2.08754e-05
-9.40645e-05
1.89577e-05
-9.97371e-05
1.69809e-05
-0.000104847
1.53763e-05
-0.000109353
1.35165e-05
-0.000113307
1.18784e-05
-0.000116739
1.02845e-05
-0.000119623
8.64526e-06
-0.000121948
6.97594e-06
-0.000123789
5.5297e-06
-0.000125042
3.75413e-06
-0.000125747
2.12369e-06
-0.000125905
4.67141e-07
-0.000125464
-1.32114e-06
-0.000124505
-2.8788e-06
-0.000122943
-4.68339e-06
-0.000120747
-6.58759e-06
-0.000117917
-8.4979e-06
-0.000114414
-1.05327e-05
-0.000110253
-1.24761e-05
-0.000105373
-1.46348e-05
-9.97677e-05
-1.68043e-05
-9.35043e-05
-1.88004e-05
-8.64638e-05
-2.11109e-05
-7.8697e-05
-2.3299e-05
-7.01897e-05
-2.55257e-05
-6.09954e-05
-2.75897e-05
-5.11271e-05
-2.95796e-05
-4.06288e-05
-3.14634e-05
-2.95509e-05
-3.3235e-05
-1.80126e-05
-3.4584e-05
-6.03628e-06
-3.59108e-05
6.27615e-06
-3.69178e-05
1.88548e-05
-3.7692e-05
3.15106e-05
-3.79559e-05
4.4208e-05
-3.80268e-05
5.67492e-05
-3.7627e-05
6.90525e-05
-3.6883e-05
8.09675e-05
-3.5713e-05
9.23583e-05
-3.41254e-05
0.000103065
-3.2091e-05
0.000112961
-2.96735e-05
0.000121917
-2.68479e-05
0.000129799
-2.36174e-05
0.000136493
-2.00503e-05
0.000141895
-1.61979e-05
0.00014591
-1.20347e-05
0.000148484
-7.71547e-06
0.000149568
-3.24066e-06
0.000149147
1.23762e-06
0.000147236
5.73069e-06
0.000143801
1.02997e-05
0.000138973
1.44705e-05
0.000132793
1.85091e-05
0.000125371
2.2232e-05
0.00011683
2.56278e-05
0.000107251
2.86893e-05
9.67981e-05
3.13359e-05
8.55495e-05
3.37116e-05
7.36854e-05
3.55543e-05
6.13368e-05
3.70261e-05
4.86406e-05
3.80591e-05
3.57415e-05
3.86644e-05
2.27671e-05
3.88852e-05
9.86326e-06
3.86867e-05
-2.84728e-06
3.81114e-05
-1.53093e-05
3.73583e-05
-2.7345e-05
3.60936e-05
-3.8905e-05
3.46801e-05
-4.99163e-05
3.30172e-05
-6.03514e-05
3.12813e-05
-7.01446e-05
2.93802e-05
-7.93006e-05
2.74548e-05
-8.7771e-05
2.54382e-05
-9.5577e-05
2.33989e-05
-0.000102675
2.12865e-05
-0.000109072
1.91853e-05
-0.000114755
1.70513e-05
-0.000119743
1.49695e-05
-0.000124025
1.28469e-05
-0.000127604
1.07331e-05
-0.000130511
8.7203e-06
-0.000132684
6.51128e-06
-0.000134169
4.44726e-06
-0.000134949
2.35266e-06
-0.000135047
3.15752e-07
-0.000134477
-1.70388e-06
-0.000133262
-3.65607e-06
-0.000131448
-5.44662e-06
-0.000129031
-7.22956e-06
-0.000126044
-8.94952e-06
-0.000122478
-1.06926e-05
-0.000118339
-1.24178e-05
-0.00011361
-1.41964e-05
-0.000108298
-1.59366e-05
-0.000102403
-1.76788e-05
-9.5917e-05
-1.94562e-05
-8.8864e-05
-2.11941e-05
-8.12556e-05
-2.27896e-05
-7.30717e-05
-2.45392e-05
-6.43375e-05
-2.61913e-05
-5.50654e-05
-2.78137e-05
-4.52568e-05
-2.9407e-05
-3.49731e-05
-3.0861e-05
-2.42045e-05
-3.23011e-05
-1.30604e-05
-3.34098e-05
-1.51356e-06
-3.46013e-05
1.03338e-05
-3.55594e-05
2.24322e-05
-3.62571e-05
3.46977e-05
-3.67765e-05
4.70163e-05
-3.6926e-05
5.92925e-05
-3.68012e-05
7.13797e-05
-3.62518e-05
8.31394e-05
-3.52155e-05
9.43951e-05
-3.37291e-05
0.000105001
-3.17856e-05
0.000114817
-2.94126e-05
0.000123604
-2.63434e-05
0.000131297
-2.30556e-05
0.000137735
-1.92807e-05
0.000142808
-1.51923e-05
0.000146413
-1.08041e-05
0.000148492
-6.19161e-06
0.000148949
-1.40442e-06
0.000147812
3.386e-06
0.000145055
8.24143e-06
0.000140708
1.30622e-05
0.00013484
1.75828e-05
0.000127529
2.18998e-05
0.000118927
2.57658e-05
0.000109119
2.94175e-05
9.82673e-05
3.2518e-05
8.66086e-05
3.49301e-05
7.42999e-05
3.68908e-05
6.156e-05
3.81797e-05
4.85664e-05
3.89375e-05
3.55012e-05
3.92001e-05
2.25319e-05
3.88752e-05
9.83464e-06
3.809e-05
-2.29396e-06
3.6322e-05
-1.39183e-05
3.48471e-05
-2.49075e-05
3.29346e-05
-3.51972e-05
3.08533e-05
-4.47294e-05
2.85838e-05
-5.35836e-05
2.65346e-05
-6.17184e-05
2.43928e-05
-6.91971e-05
2.24254e-05
-7.60652e-05
2.06e-05
-8.23431e-05
1.88395e-05
-8.81457e-05
1.74099e-05
-9.34896e-05
1.60324e-05
-9.83959e-05
1.47136e-05
-0.000102931
1.36121e-05
-0.000107114
1.256e-05
-0.000110898
1.13639e-05
-0.00011431
1.02324e-05
-0.000117295
8.92707e-06
-0.000119828
7.57464e-06
-0.000121891
6.17435e-06
-0.00012342
4.59269e-06
-0.000124429
3.05504e-06
-0.000124914
1.48441e-06
-0.000124629
-8.22466e-07
-0.000123615
-3.01457e-06
-0.000121867
-5.2313e-06
-0.00011934
-7.58774e-06
-0.000116064
-9.82947e-06
-0.000111969
-1.22848e-05
-0.000107143
-1.44895e-05
-0.000101567
-1.6727e-05
-9.51268e-05
-1.93206e-05
-8.7929e-05
-2.16019e-05
-7.99697e-05
-2.38851e-05
-7.12179e-05
-2.62364e-05
-6.17885e-05
-2.82726e-05
-5.16091e-05
-3.05158e-05
-4.08332e-05
-3.23084e-05
-2.95846e-05
-3.37293e-05
-1.77793e-05
-3.54007e-05
-5.54234e-06
-3.66728e-05
6.94075e-06
-3.74334e-05
1.96304e-05
-3.8039e-05
3.23645e-05
-3.81697e-05
4.50468e-05
-3.80178e-05
5.75604e-05
-3.75129e-05
6.97189e-05
-3.64399e-05
8.14644e-05
-3.52e-05
9.26663e-05
-3.35772e-05
0.00010315
-3.14329e-05
0.000112835
-2.90302e-05
0.000121629
-2.63437e-05
0.000129471
-2.34901e-05
0.00013622
-2.02334e-05
0.000141788
-1.67027e-05
0.000146159
-1.30967e-05
0.000149298
-9.38123e-06
0.000151162
-5.57307e-06
0.000151712
-1.67425e-06
0.000150906
2.3585e-06
0.000148724
6.52973e-06
0.000145242
1.0437e-05
0.00014046
1.43381e-05
0.000134495
1.78906e-05
0.000127351
2.14038e-05
0.000119124
2.4661e-05
0.000109952
2.74915e-05
9.98935e-05
3.01513e-05
8.90257e-05
3.25897e-05
7.74914e-05
3.45727e-05
6.54158e-05
3.62005e-05
5.29646e-05
3.7345e-05
4.02321e-05
3.81461e-05
2.7423e-05
3.83916e-05
1.46812e-05
3.81933e-05
2.10884e-06
3.76914e-05
-1.02386e-05
3.70208e-05
-2.21883e-05
3.58306e-05
-3.36552e-05
3.43863e-05
-4.45352e-05
3.26273e-05
-5.47841e-05
3.0736e-05
-6.43397e-05
2.86575e-05
-7.31423e-05
2.64034e-05
-8.11774e-05
2.40974e-05
2.14088e-05
-0.000134613
-9.88873e-06
-0.000131215
-1.35975e-05
-0.000126972
-1.69848e-05
-0.000121875
-2.04036e-05
-0.000115779
-2.43771e-05
-0.00010879
-2.79717e-05
-0.000100734
-3.22259e-05
-9.17967e-05
-3.57391e-05
-8.20128e-05
-3.91041e-05
-7.12052e-05
-4.31896e-05
-5.95288e-05
-4.66569e-05
-4.71062e-05
-4.96116e-05
-3.38889e-05
-5.28853e-05
-2.00337e-05
-5.52306e-05
-5.60405e-06
-5.75991e-05
9.21162e-06
-5.9172e-05
2.41991e-05
-5.98624e-05
3.93153e-05
-6.0363e-05
5.44258e-05
-6.0335e-05
6.93045e-05
-5.94291e-05
8.38854e-05
-5.82501e-05
9.80442e-05
-5.65534e-05
0.000111552
-5.39467e-05
0.000124289
-5.08669e-05
0.000136142
-4.73186e-05
0.000146985
-4.33323e-05
0.000156726
-3.89109e-05
0.000165266
-3.41134e-05
0.000172538
-2.90352e-05
0.000178463
-2.36589e-05
0.000182985
-1.80328e-05
0.000186059
-1.22874e-05
0.000187691
-6.54957e-06
0.000187862
-7.84792e-07
0.00018675
4.2846e-06
0.000184135
1.04136e-05
0.000180071
1.62431e-05
0.000174514
2.22603e-05
0.000167377
2.84977e-05
0.000158961
3.35941e-05
0.000149216
3.89037e-05
0.000138344
4.33974e-05
0.000126375
4.78431e-05
0.000113421
5.16839e-05
9.98521e-05
5.41659e-05
8.57497e-05
5.62992e-05
7.13032e-05
5.77691e-05
5.65872e-05
5.87373e-05
4.19922e-05
5.82359e-05
2.76055e-05
5.74539e-05
1.35834e-05
5.59996e-05
-7.60366e-09
5.43012e-05
-1.30088e-05
5.19464e-05
-2.53976e-05
4.95049e-05
-3.70732e-05
4.66627e-05
-4.79854e-05
4.36311e-05
-5.81656e-05
4.07058e-05
-6.75461e-05
3.75268e-05
-7.61087e-05
3.42619e-05
-8.3887e-05
3.11281e-05
-9.08457e-05
2.78663e-05
-9.7041e-05
2.48133e-05
-0.000102442
2.16392e-05
-0.000107017
1.83384e-05
-0.00011085
1.53451e-05
-0.000113875
1.21209e-05
-0.000116091
8.91146e-06
-0.000117588
5.97669e-06
-0.000118302
2.84384e-06
-0.000118273
-1.18626e-07
-0.00011755
-2.88816e-06
-0.000116106
-5.74121e-06
-0.000114082
-8.05286e-06
-0.000111524
-1.01832e-05
-0.000108412
-1.24104e-05
-0.000104888
-1.40521e-05
-0.000100862
-1.60574e-05
-9.64124e-05
-1.77572e-05
-9.15869e-05
-1.92778e-05
-8.62886e-05
-2.11622e-05
-8.05277e-05
-2.30368e-05
-7.42474e-05
-2.51216e-05
-6.73868e-05
-2.73999e-05
-5.9893e-05
-2.99998e-05
-5.16879e-05
-3.28424e-05
-4.28016e-05
-3.55702e-05
-3.3177e-05
-3.85415e-05
-2.28458e-05
-4.134e-05
-1.1847e-05
-4.40479e-05
-2.78979e-07
-4.62793e-05
1.17956e-05
-4.8288e-05
2.42923e-05
-4.99981e-05
3.70318e-05
-5.09117e-05
4.99178e-05
-5.16678e-05
6.28694e-05
-5.1727e-05
7.57102e-05
-5.13048e-05
8.83413e-05
-5.05289e-05
0.000100605
-4.89704e-05
0.000112404
-4.71193e-05
0.000123567
-4.45752e-05
0.00013392
-4.14049e-05
0.000143357
-3.75924e-05
0.000151674
-3.31971e-05
0.000158698
-2.79711e-05
0.000164331