/*--------------------------------*- C++ -*----------------------------------*\
| =========                 |                                                 |
| \\      /  F ield         | OpenFOAM: The Open Source CFD Toolbox           |
|  \\    /   O peration     | Version:  3.0.1                                 |
|   \\  /    A nd           | Web:      www.OpenFOAM.org                      |
|    \\/     M anipulation  |                                                 |
\*---------------------------------------------------------------------------*/
FoamFile
{
    version     2.0;
    format      ascii;
    class       surfaceScalarField;
    location    "51.2";
    object      phi;
}
// * * * * * * * * * * * * * * * * * * * * * * * * * * * * * * * * * * * * * //

dimensions      [0 3 -1 0 0 0 0];

internalField   nonuniform List<scalar> 
42423
(
-3.38257e-05
-1.36979e-05
-1.88638e-05
-1.49619e-05
-2.7888e-06
-1.6075e-05
1.38606e-05
-1.66495e-05
3.14033e-05
-1.75428e-05
4.93737e-05
-1.79704e-05
6.79079e-05
-1.85343e-05
8.66291e-05
-1.87212e-05
0.000105191
-1.85619e-05
0.000123618
-1.84271e-05
0.000141667
-1.80489e-05
0.000158913
-1.72458e-05
0.000175152
-1.62397e-05
0.00019014
-1.49878e-05
0.000203652
-1.35122e-05
0.000215452
-1.17995e-05
0.000225185
-9.73345e-06
0.000232755
-7.56981e-06
0.000238009
-5.2538e-06
0.000240782
-2.7734e-06
0.000241127
-3.44523e-07
0.000239002
2.1243e-06
0.000234152
4.85058e-06
0.000226967
7.18433e-06
0.000217508
9.45907e-06
0.000206083
1.1425e-05
0.000192737
1.33465e-05
0.000177618
1.5119e-05
0.000161226
1.63913e-05
0.000143756
1.74707e-05
0.000125383
1.83725e-05
0.000106408
1.89752e-05
8.70674e-05
1.93407e-05
6.77644e-05
1.9303e-05
4.8584e-05
1.91804e-05
2.97634e-05
1.88206e-05
1.14979e-05
1.82655e-05
-6.1105e-06
1.76084e-05
-2.2952e-05
1.68415e-05
-3.89274e-05
1.59753e-05
-5.39653e-05
1.5038e-05
-6.80081e-05
1.40428e-05
-8.10603e-05
1.30521e-05
-9.30749e-05
1.20147e-05
-0.000104049
1.09741e-05
-0.000114033
9.98422e-06
-0.000123036
9.00266e-06
-0.000131082
8.04565e-06
-0.000138206
7.12474e-06
-0.000144429
6.22268e-06
-0.000149786
5.35747e-06
-0.000154324
4.53729e-06
-0.000158079
3.7548e-06
-0.000161075
2.99603e-06
-0.000163341
2.26675e-06
-0.000164862
1.52029e-06
-0.000165728
8.66023e-07
-0.000165882
1.54372e-07
-0.000165268
-6.14231e-07
-0.000163892
-1.37574e-06
-0.00016172
-2.17247e-06
-0.000158849
-2.87064e-06
-0.000155268
-3.58125e-06
-0.000150809
-4.45908e-06
-0.000145573
-5.2359e-06
-0.000139608
-5.96504e-06
-0.000132685
-6.92293e-06
-0.000124987
-7.69808e-06
-0.000116266
-8.72043e-06
-0.000106676
-9.59071e-06
-9.63418e-05
-1.03338e-05
-8.50587e-05
-1.12831e-05
-7.28391e-05
-1.22196e-05
-5.9853e-05
-1.29861e-05
-4.60174e-05
-1.38356e-05
-3.14138e-05
-1.46036e-05
-1.61195e-05
-1.52943e-05
-1.2478e-07
-1.59947e-05
1.65003e-05
-1.66251e-05
3.35893e-05
-1.7089e-05
5.10584e-05
-1.74691e-05
6.87617e-05
-1.77034e-05
8.66379e-05
-1.78762e-05
0.000104409
-1.77712e-05
0.000122017
-1.76083e-05
0.000139124
-1.71068e-05
0.000155632
-1.65075e-05
0.000171205
-1.55736e-05
0.000185648
-1.44432e-05
0.000198654
-1.30059e-05
0.000209975
-1.1321e-05
0.000219381
-9.40598e-06
0.000226636
-7.25488e-06
0.000231616
-4.97959e-06
0.00023419
-2.57457e-06
0.000234357
-1.6656e-07
0.000232069
2.28793e-06
0.00022723
4.83877e-06
0.000220068
7.16214e-06
0.000210648
9.42013e-06
0.000199157
1.14904e-05
0.000185743
1.34143e-05
0.000170641
1.51022e-05
0.000154082
1.65584e-05
0.000136263
1.78192e-05
0.000117523
1.87404e-05
9.80928e-05
1.943e-05
7.82777e-05
1.98151e-05
5.83654e-05
1.99124e-05
3.86105e-05
1.97548e-05
1.91689e-05
1.94416e-05
3.4974e-07
1.88192e-05
-1.76891e-05
1.80388e-05
-3.48074e-05
1.71184e-05
-5.09397e-05
1.61322e-05
-6.60129e-05
1.50732e-05
-7.99373e-05
1.39244e-05
-9.27165e-05
1.27791e-05
-0.000104356
1.16395e-05
-0.000114868
1.05125e-05
-0.000124294
9.42599e-06
-0.000132648
8.35375e-06
-0.000139989
7.34101e-06
-0.000146331
6.34184e-06
-0.000151754
5.42322e-06
-0.00015627
4.51549e-06
-0.000159918
3.6482e-06
-0.00016288
2.96172e-06
-0.000164971
2.09163e-06
-0.000166411
1.43969e-06
-0.000167094
6.83283e-07
-0.000167139
4.48581e-08
-0.000166474
-6.64675e-07
-0.000165322
-1.15216e-06
-0.000163508
-1.8142e-06
-0.000161096
-2.41212e-06
-0.000158179
-2.91654e-06
-0.00015467
-3.50912e-06
-0.000150612
-4.05848e-06
-0.000146005
-4.60669e-06
-0.000140775
-5.23e-06
-0.000134883
-5.8926e-06
-0.000128373
-6.50944e-06
-0.000121161
-7.21222e-06
-0.000113205
-7.95557e-06
-0.000104598
-8.60788e-06
-9.5208e-05
-9.38951e-06
-8.49651e-05
-1.02429e-05
-7.40484e-05
-1.09168e-05
-6.2221e-05
-1.18274e-05
-4.94854e-05
-1.27356e-05
-3.60413e-05
-1.34442e-05
-2.17361e-05
-1.43052e-05
-6.67406e-06
-1.50621e-05
9.0678e-06
-1.57419e-05
2.53957e-05
-1.63279e-05
4.21377e-05
-1.6742e-05
5.91695e-05
-1.70319e-05
7.63012e-05
-1.71317e-05
9.32979e-05
-1.69967e-05
0.000109972
-1.66742e-05
0.000126044
-1.60721e-05
0.000141296
-1.52518e-05
0.000155462
-1.41657e-05
0.000168273
-1.28112e-05
0.000179512
-1.12393e-05
0.000188863
-9.35101e-06
0.000196223
-7.35977e-06
0.000201314
-5.0913e-06
0.000204071
-2.75691e-06
0.000204421
-3.49973e-07
0.000202302
2.11915e-06
0.000197666
4.63539e-06
0.000190633
7.03306e-06
0.000181369
9.26435e-06
0.000170044
1.13251e-05
0.000156863
1.31813e-05
0.000142092
1.47706e-05
0.000125932
1.61596e-05
0.000108665
1.72668e-05
9.05733e-05
1.80921e-05
7.19399e-05
1.86334e-05
5.30503e-05
1.88895e-05
3.41975e-05
1.88528e-05
1.57e-05
1.84975e-05
-2.25221e-06
1.79522e-05
-1.9463e-05
1.72108e-05
-3.5805e-05
1.63419e-05
-5.12439e-05
1.54389e-05
-6.57584e-05
1.45145e-05
-7.92558e-05
1.34974e-05
-9.17748e-05
1.2519e-05
-0.000103283
1.15079e-05
-0.000113826
1.05435e-05
-0.000123394
9.5674e-06
-0.000132003
8.60961e-06
-0.000139723
7.71983e-06
-0.000146547
6.8234e-06
-0.000152431
5.8841e-06
-0.000157447
5.01645e-06
-0.000161686
4.23902e-06
-0.00016519
3.50347e-06
-0.00016807
2.88024e-06
-0.000170389
2.31896e-06
-0.000172157
1.76853e-06
-0.00017356
1.40251e-06
-0.000174416
8.55733e-07
-0.000174847
4.31588e-07
-0.000174717
-1.30194e-07
-0.000174066
-6.51279e-07
-0.000172872
-1.1936e-06
-0.000171052
-1.81983e-06
-0.000168678
-2.37421e-06
-0.000165677
-3.00138e-06
-0.000162059
-3.61786e-06
-0.000157833
-4.2254e-06
-0.000152899
-4.93479e-06
-0.000147228
-5.67056e-06
-0.000140949
-6.27933e-06
-0.000133872
-7.07718e-06
-0.000126005
-7.86672e-06
-0.000117388
-8.61642e-06
-0.000107937
-9.45123e-06
-9.76096e-05
-1.03277e-05
-8.65698e-05
-1.10398e-05
-7.46288e-05
-1.1941e-05
-6.18337e-05
-1.27951e-05
-4.82693e-05
-1.35645e-05
-3.39192e-05
-1.43501e-05
-1.88679e-05
-1.50514e-05
-3.1839e-06
-1.5684e-05
1.30165e-05
-1.62004e-05
2.95588e-05
-1.65424e-05
4.63228e-05
-1.6764e-05
6.30769e-05
-1.67542e-05
7.9659e-05
-1.65821e-05
9.58107e-05
-1.61517e-05
0.000111352
-1.55408e-05
0.000126005
-1.46538e-05
0.000139515
-1.35101e-05
0.000151635
-1.21195e-05
0.000162113
-1.04784e-05
0.000170708
-8.59455e-06
0.000177213
-6.50563e-06
0.000181472
-4.25861e-06
0.000183366
-1.89399e-06
0.000182858
5.0795e-07
0.000179887
2.97069e-06
0.000174508
5.37971e-06
0.000166865
7.64277e-06
0.00015711
9.75517e-06
0.000145428
1.16818e-05
0.000132089
1.33389e-05
0.00011733
1.47593e-05
0.000101386
1.59437e-05
8.45316e-05
1.68542e-05
6.70594e-05
1.74722e-05
4.92201e-05
1.78393e-05
3.12441e-05
1.7976e-05
1.33795e-05
1.78646e-05
-4.17758e-06
1.75571e-05
-2.12458e-05
1.70682e-05
-3.76395e-05
1.63937e-05
-5.32655e-05
1.5626e-05
-6.803e-05
1.47645e-05
-8.18665e-05
1.38365e-05
-9.4715e-05
1.28485e-05
-0.000106564
1.18491e-05
-0.000117383
1.08194e-05
-0.000127244
9.86033e-06
-0.000136062
8.81789e-06
-0.000143906
7.84386e-06
-0.000150846
6.94046e-06
-0.000156838
5.99176e-06
-0.000161979
5.14111e-06
-0.000166221
4.24229e-06
-0.00016957
3.34893e-06
-0.00017207
2.49967e-06
-0.000173767
1.69736e-06
-0.000174604
8.37201e-07
-0.000174683
7.9155e-08
-0.000173872
-8.11522e-07
-0.000172472
-1.39954e-06
-0.000170419
-2.05338e-06
-0.000167853
-2.5664e-06
-0.000164992
-2.86043e-06
-0.000161772
-3.21993e-06
-0.00015809
-3.68267e-06
-0.000154277
-3.81275e-06
-0.000150036
-4.24133e-06
-0.000145522
-4.51403e-06
-0.000140708
-4.81345e-06
-0.000135391
-5.3166e-06
-0.000129577
-5.81485e-06
-0.000123311
-6.26528e-06
-0.000116318
-6.99385e-06
-0.000108489
-7.82869e-06
-9.98674e-05
-8.62148e-06
-9.01984e-05
-9.66898e-06
-7.96491e-05
-1.05493e-05
-6.79449e-05
-1.17042e-05
-5.50044e-05
-1.29405e-05
-4.10875e-05
-1.39168e-05
-2.60328e-05
-1.50548e-05
-9.9429e-06
-1.60899e-05
6.83886e-06
-1.67818e-05
2.43856e-05
-1.75468e-05
4.23395e-05
-1.7954e-05
6.05744e-05
-1.82349e-05
7.8813e-05
-1.82387e-05
9.66681e-05
-1.7855e-05
0.00011397
-1.73017e-05
0.000130412
-1.64427e-05
0.000145638
-1.52256e-05
0.000159502
-1.38644e-05
0.000171735
-1.2233e-05
0.000182198
-1.04626e-05
0.000190642
-8.44404e-06
0.00019694
-6.29796e-06
0.000201009
-4.06945e-06
0.000202814
-1.80474e-06
0.000202295
5.18533e-07
0.000199539
2.75603e-06
0.000194523
5.01658e-06
0.000187579
6.94366e-06
0.000178843
8.73648e-06
0.000168365
1.04774e-05
0.00015652
1.18449e-05
0.000143541
1.29797e-05
0.000129562
1.39784e-05
0.000114812
1.47499e-05
9.94953e-05
1.5317e-05
8.38724e-05
1.56229e-05
6.80514e-05
1.5821e-05
5.21435e-05
1.59079e-05
3.62989e-05
1.58446e-05
2.06686e-05
1.56303e-05
5.35812e-06
1.53105e-05
-9.53859e-06
1.48967e-05
-2.40435e-05
1.45049e-05
-3.80528e-05
1.40092e-05
-5.14811e-05
1.34283e-05
-6.4315e-05
1.28339e-05
-7.64807e-05
1.21656e-05
-8.7983e-05
1.15023e-05
-9.87667e-05
1.07838e-05
-0.000108793
1.00263e-05
-0.000118063
9.26995e-06
-0.000126542
8.47858e-06
-0.000134211
7.66961e-06
-0.000141071
6.8596e-06
-0.000147102
6.03125e-06
-0.000152304
5.20218e-06
-0.000156676
4.37154e-06
-0.000160211
3.53503e-06
-0.000162906
2.69538e-06
1.8436e-06
-3.38608e-05
-2.7397e-05
-1.88996e-05
-2.99232e-05
-2.82017e-06
-3.21545e-05
1.3831e-05
-3.33007e-05
3.13804e-05
-3.50922e-05
4.93581e-05
-3.59482e-05
6.79001e-05
-3.70763e-05
8.66342e-05
-3.74553e-05
0.000105218
-3.71457e-05
0.000123668
-3.68774e-05
0.00014172
-3.61006e-05
0.000158969
-3.44953e-05
0.000175229
-3.2499e-05
0.000190243
-3.00022e-05
0.000203759
-2.70288e-05
0.000215556
-2.35961e-05
0.000225298
-1.94758e-05
0.000232874
-1.51457e-05
0.000238135
-1.05145e-05
0.000240914
-5.55309e-06
0.000241257
-6.86803e-07
0.000239123
4.25801e-06
0.000234274
9.69953e-06
0.000227085
1.43735e-05
0.000217615
1.8929e-05
0.000206179
2.2861e-05
0.000192826
2.66988e-05
0.000177698
3.02473e-05
0.000161289
3.28006e-05
0.000143803
3.49561e-05
0.000125422
3.67535e-05
0.000106435
3.79621e-05
8.70844e-05
3.86915e-05
6.77684e-05
3.86189e-05
4.85785e-05
3.83703e-05
2.97486e-05
3.76505e-05
1.14745e-05
3.65396e-05
-6.13641e-06
3.52193e-05
-2.29832e-05
3.36884e-05
-3.89634e-05
3.19555e-05
-5.40071e-05
3.00817e-05
-6.80513e-05
2.8087e-05
-8.11041e-05
2.61049e-05
-9.31212e-05
2.40318e-05
-0.000104099
2.19514e-05
-0.000114089
1.99742e-05
-0.000123093
1.8007e-05
-0.000131138
1.60912e-05
-0.000138259
1.42449e-05
-0.000144484
1.24479e-05
-0.000149843
1.07165e-05
-0.000154382
9.07633e-06
-0.000158137
7.5105e-06
-0.000161143
6.00195e-06
-0.000163415
4.53802e-06
-0.000164932
3.03785e-06
-0.000165794
1.72766e-06
-0.000165946
3.06896e-07
-0.000165322
-1.23866e-06
-0.000163959
-2.739e-06
-0.00016179
-4.34098e-06
-0.000158914
-5.74675e-06
-0.000155318
-7.17724e-06
-0.000150883
-8.8939e-06
-0.000145643
-1.04766e-05
-0.000139676
-1.1932e-05
-0.000132751
-1.38476e-05
-0.000125046
-1.54033e-05
-0.000116332
-1.74342e-05
-0.000106748
-1.91745e-05
-9.64085e-05
-2.06738e-05
-8.51243e-05
-2.25673e-05
-7.28959e-05
-2.4448e-05
-5.99061e-05
-2.5976e-05
-4.60432e-05
-2.76986e-05
-3.14557e-05
-2.91911e-05
-1.61586e-05
-3.05914e-05
-1.62409e-07
-3.1991e-05
1.64722e-05
-3.32598e-05
3.35668e-05
-3.41836e-05
5.10408e-05
-3.49431e-05
6.87588e-05
-3.54214e-05
8.66461e-05
-3.57635e-05
0.000104423
-3.55478e-05
0.000122046
-3.52312e-05
0.000139173
-3.4234e-05
0.000155686
-3.30211e-05
0.000171279
-3.11665e-05
0.000185749
-2.89131e-05
0.00019876
-2.60166e-05
0.000210085
-2.26468e-05
0.000219498
-1.88185e-05
0.000226754
-1.45113e-05
0.000231743
-9.96881e-06
0.000234309
-5.1401e-06
0.000234461
-3.18583e-07
0.000232136
4.61336e-06
0.000227313
9.66168e-06
0.000220153
1.43217e-05
0.000210725
1.88481e-05
0.000199227
2.29888e-05
0.000185797
2.68442e-05
0.000170682
3.02174e-05
0.000154109
3.31311e-05
0.000136278
3.565e-05
0.000117523
3.7496e-05
9.80801e-05
3.88724e-05
7.82588e-05
3.96363e-05
5.83321e-05
3.98391e-05
3.85755e-05
3.95114e-05
1.91341e-05
3.8883e-05
2.90715e-07
3.76626e-05
-1.77599e-05
3.60894e-05
-3.4886e-05
3.42445e-05
-5.1008e-05
3.22542e-05
-6.61032e-05
3.01684e-05
-8.00383e-05
2.78595e-05
-9.28168e-05
2.55576e-05
-0.000104455
2.32775e-05
-0.000114969
2.10267e-05
-0.000124399
1.88559e-05
-0.000132755
1.67098e-05
-0.000140095
1.46811e-05
-0.00014644
1.26868e-05
-0.000151865
1.08488e-05
-0.00015639
9.0401e-06
-0.000160034
7.29227e-06
-0.000163003
5.93101e-06
-0.0001651
4.18776e-06
-0.000166536
2.87651e-06
-0.000167225
1.37161e-06
-0.000167269
8.8931e-08
-0.0001666
-1.33364e-06
-0.000165451
-2.30085e-06
-0.000163645
-3.6206e-06
-0.000161243
-4.81378e-06
-0.000158304
-5.856e-06
-0.000154803
-7.01001e-06
-0.000150754
-8.10754e-06
-0.000146139
-9.22095e-06
-0.000140908
-1.04612e-05
-0.000135028
-1.17732e-05
-0.00012852
-1.3017e-05
-0.000121313
-1.44198e-05
-0.000113374
-1.58942e-05
-0.000104743
-1.72392e-05
-9.53522e-05
-1.87799e-05
-8.51005e-05
-2.04947e-05
-7.41886e-05
-2.18286e-05
-6.2359e-05
-2.36571e-05
-4.96562e-05
-2.54384e-05
-3.61752e-05
-2.69252e-05
-2.1865e-05
-2.86154e-05
-6.80611e-06
-3.0121e-05
8.95276e-06
-3.15008e-05
2.52959e-05
-3.26711e-05
4.20531e-05
-3.34992e-05
5.91049e-05
-3.40838e-05
7.62392e-05
-3.4266e-05
9.32475e-05
-3.4005e-05
0.00010994
-3.3367e-05
0.000126033
-3.21652e-05
0.000141297
-3.05156e-05
0.000155476
-2.83451e-05
0.000168304
-2.56392e-05
0.000179556
-2.24913e-05
0.000188916
-1.87103e-05
0.000196273
-1.47168e-05
0.000201383
-1.02017e-05
0.00020415
-5.52368e-06
0.000204501
-7.01497e-07
0.000202376
4.24412e-06
0.00019774
9.27142e-06
0.000190716
1.40568e-05
0.000181439
1.85414e-05
0.000170102
2.26621e-05
0.000156912
2.63711e-05
0.000142134
2.95494e-05
0.000125945
3.23478e-05
0.000108681
3.45315e-05
9.05698e-05
3.62031e-05
7.1922e-05
3.72812e-05
5.30249e-05
3.77867e-05
3.4162e-05
3.77156e-05
1.56541e-05
3.70054e-05
-2.30681e-06
3.59131e-05
-1.95309e-05
3.44349e-05
-3.5884e-05
3.26951e-05
-5.13356e-05
3.08904e-05
-6.58463e-05
2.90253e-05
-7.9349e-05
2.70001e-05
-9.18715e-05
2.50415e-05
-0.000103382
2.30185e-05
-0.000113929
2.109e-05
-0.000123505
1.91437e-05
-0.000132126
1.72303e-05
-0.000139835
1.54293e-05
-0.000146667
1.36551e-05
-0.000152552
1.17693e-05
-0.00015756
1.00243e-05
-0.000161785
8.4637e-06
-0.000165301
7.01978e-06
-0.000168161
5.74051e-06
-0.000170511
4.66875e-06
-0.000172278
3.53535e-06
-0.000173682
2.8069e-06
-0.000174544
1.71736e-06
-0.000174979
8.66464e-07
-0.000174864
-2.44839e-07
-0.000174214
-1.30155e-06
-0.000173014
-2.39361e-06
-0.000171192
-3.64108e-06
-0.000168816
-4.75061e-06
-0.000165817
-6.00079e-06
-0.000162208
-7.22659e-06
-0.000157979
-8.45429e-06
-0.000153051
-9.86257e-06
-0.000147398
-1.13244e-05
-0.0001411
-1.25767e-05
-0.000134022
-1.4155e-05
-0.000126123
-1.57664e-05
-0.000117539
-1.72003e-05
-0.000108081
-1.89088e-05
-9.77953e-05
-2.06137e-05
-8.67111e-05
-2.21239e-05
-7.47618e-05
-2.38904e-05
-6.1978e-05
-2.55789e-05
-4.83957e-05
-2.71467e-05
-3.40422e-05
-2.87036e-05
-1.8981e-05
-3.01127e-05
-3.29359e-06
-3.13714e-05
1.29158e-05
-3.24098e-05
2.94748e-05
-3.31014e-05
4.62548e-05
-3.3544e-05
6.30266e-05
-3.3526e-05
7.96232e-05
-3.31787e-05
9.57914e-05
-3.232e-05
0.000111344
-3.10936e-05
0.000126006
-2.93157e-05
0.000139537
-2.7041e-05
0.00015167
-2.42522e-05
0.000162158
-2.09664e-05
0.000170774
-1.72111e-05
0.000177296
-1.30276e-05
0.000181556
-8.51828e-06
0.00018345
-3.78833e-06
0.000182936
1.02164e-06
0.00017996
5.94742e-06
0.000174586
1.07528e-05
0.00016694
1.52894e-05
0.000157174
1.95209e-05
0.000145485
2.3371e-05
0.000132129
2.66947e-05
0.000117353
2.95357e-05
0.00010139
3.19061e-05
8.45323e-05
3.3712e-05
6.70523e-05
3.49521e-05
4.91953e-05
3.56962e-05
3.12065e-05
3.59648e-05
1.33273e-05
3.57438e-05
-4.25077e-06
3.51352e-05
-2.133e-05
3.41475e-05
-3.77304e-05
3.27941e-05
-5.33578e-05
3.12533e-05
-6.81174e-05
2.95242e-05
-8.19586e-05
2.76777e-05
-9.48059e-05
2.56958e-05
-0.000106659
2.37023e-05
-0.000117472
2.1632e-05
-0.000127327
1.97154e-05
-0.000136144
1.76352e-05
-0.00014399
1.56892e-05
-0.000150926
1.38771e-05
-0.000156916
1.19818e-05
-0.000162058
1.02831e-05
-0.000166296
8.47966e-06
-0.000169646
6.69958e-06
-0.000172155
5.00833e-06
-0.000173853
3.39572e-06
-0.000174679
1.66306e-06
-0.00017475
1.49874e-07
-0.000173933
-1.62834e-06
-0.000172528
-2.80439e-06
-0.000170473
-4.10827e-06
-0.000167903
-5.13691e-06
-0.000165033
-5.7306e-06
-0.00016182
-6.43274e-06
-0.000158131
-7.37127e-06
-0.000154316
-7.62811e-06
-0.000150075
-8.4825e-06
-0.000145562
-9.02688e-06
-0.000140751
-9.62412e-06
-0.000135437
-1.06304e-05
-0.000129627
-1.16257e-05
-0.000123368
-1.25242e-05
-0.000116373
-1.39884e-05
-0.00010855
-1.56523e-05
-9.99255e-05
-1.72456e-05
-9.02617e-05
-1.93328e-05
-7.97285e-05
-2.10825e-05
-6.80119e-05
-2.34208e-05
-5.50582e-05
-2.58943e-05
-4.11417e-05
-2.78334e-05
-2.60815e-05
-3.0115e-05
-9.98357e-06
-3.21878e-05
6.8013e-06
-3.35667e-05
2.43593e-05
-3.51048e-05
4.23272e-05
-3.59218e-05
6.05791e-05
-3.64869e-05
7.88343e-05
-3.64938e-05
9.66961e-05
-3.57169e-05
0.000114011
-3.4617e-05
0.000130471
-3.29028e-05
0.00014572
-3.04737e-05
0.000159602
-2.77472e-05
0.00017184
-2.44705e-05
0.000182299
-2.09222e-05
0.000190749
-1.68933e-05
0.000197052
-1.26016e-05
0.000201127
-8.14403e-06
0.000202936
-3.61434e-06
0.000202409
1.04609e-06
0.000199646
5.51841e-06
0.000194625
1.0038e-05
0.000187673
1.38955e-05
0.000178927
1.74822e-05
0.000168443
2.09617e-05
0.000156587
2.3701e-05
0.000143595
2.59711e-05
0.000129609
2.79644e-05
0.000114849
2.95106e-05
9.95213e-05
3.06443e-05
8.38892e-05
3.12549e-05
6.80629e-05
3.16473e-05
5.21486e-05
3.18222e-05
3.62989e-05
3.16942e-05
2.06613e-05
3.1268e-05
5.34483e-06
3.06269e-05
-9.55362e-06
2.97951e-05
-2.40634e-05
2.90147e-05
-3.80774e-05
2.80233e-05
-5.15076e-05
2.68585e-05
-6.43436e-05
2.567e-05
-7.65097e-05
2.43318e-05
-8.80158e-05
2.30083e-05
-9.88007e-05
2.15687e-05
-0.000108826
2.00519e-05
-0.000118098
1.8542e-05
-0.000126577
1.69574e-05
-0.000134243
1.53357e-05
-0.000141101
1.37174e-05
-0.000147132
1.20625e-05
-0.000152336
1.04063e-05
-0.00015671
8.74469e-06
-0.000160244
7.06965e-06
-0.000162943
5.39387e-06
3.68377e-06
-3.39296e-05
-4.10999e-05
-1.89699e-05
-4.48829e-05
-2.8821e-06
-4.82424e-05
1.37806e-05
-4.99634e-05
3.13461e-05
-5.26577e-05
4.9342e-05
-5.39441e-05
6.79078e-05
-5.56422e-05
8.66721e-05
-5.62197e-05
0.000105278
-5.57521e-05
0.000123742
-5.53408e-05
0.000141818
-5.41773e-05
0.000159105
-5.17818e-05
0.000175385
-4.87792e-05
0.000190407
-4.50239e-05
0.000203937
-4.05594e-05
0.000215764
-3.54233e-05
0.000225535
-2.92467e-05
0.000233126
-2.27364e-05
0.000238398
-1.57866e-05
0.000241177
-8.33201e-06
0.000241487
-9.96967e-07
0.000239309
6.43606e-06
0.000234461
1.45472e-05
0.000227266
2.15686e-05
0.000217775
2.84205e-05
0.000206318
3.43176e-05
0.000192958
4.00592e-05
0.000177821
4.53837e-05
0.000161376
4.92458e-05
0.000143864
5.2468e-05
0.00012547
5.51477e-05
0.000106463
5.69686e-05
8.70995e-05
5.80553e-05
6.77585e-05
5.79599e-05
4.85524e-05
5.75763e-05
2.97069e-05
5.6496e-05
1.14182e-05
5.48283e-05
-6.19896e-06
5.28364e-05
-2.3056e-05
5.05454e-05
-3.90429e-05
4.79424e-05
-5.4089e-05
4.51278e-05
-6.81398e-05
4.21378e-05
-8.11968e-05
3.91619e-05
-9.3212e-05
3.6047e-05
-0.000104191
3.29302e-05
-0.000114182
2.99654e-05
-0.000123181
2.70065e-05
-0.000131227
2.41362e-05
-0.000138349
2.13676e-05
-0.000144572
1.86705e-05
-0.000149927
1.60712e-05
-0.000154462
1.36119e-05
-0.000158216
1.12639e-05
-0.000161221
9.00739e-06
-0.000163495
6.81226e-06
-0.000165015
4.55794e-06
-0.000165865
2.57689e-06
-0.000166005
4.47234e-07
-0.000165368
-1.87552e-06
-0.000164019
-4.08838e-06
-0.000161856
-6.5036e-06
-0.000158984
-8.61847e-06
-0.000155367
-1.07949e-05
-0.00015095
-1.33103e-05
-0.000145708
-1.57192e-05
-0.000139746
-1.78937e-05
-0.000132819
-2.07749e-05
-0.000125102
-2.31199e-05
-0.000116401
-2.61356e-05
-0.000106827
-2.87479e-05
-9.64823e-05
-3.10187e-05
-8.5194e-05
-3.38556e-05
-7.29693e-05
-3.66728e-05
-5.99715e-05
-3.89738e-05
-4.60988e-05
-4.15714e-05
-3.15161e-05
-4.37738e-05
-1.62177e-05
-4.58899e-05
-2.14156e-07
-4.79945e-05
1.64296e-05
-4.99036e-05
3.35276e-05
-5.12816e-05
5.10106e-05
-5.24263e-05
6.87425e-05
-5.31533e-05
8.6633e-05
-5.36541e-05
0.000104426
-5.33409e-05
0.000122066
-5.28717e-05
0.000139209
-5.13763e-05
0.000155738
-4.95506e-05
0.000171359
-4.67873e-05
0.000185844
-4.33979e-05
0.000198868
-3.90407e-05
0.000210209
-3.39885e-05
0.000219633
-2.82425e-05
0.00022691
-2.17877e-05
0.000231899
-1.49584e-05
0.000234459
-7.69969e-06
0.000234588
-4.47864e-07
0.00023222
6.98136e-06
0.000227409
1.44724e-05
0.000220243
2.14876e-05
0.000210793
2.82989e-05
0.000199276
3.45053e-05
0.000185826
4.02941e-05
0.000170689
4.53543e-05
0.000154075
4.97457e-05
0.000136247
5.34779e-05
0.00011747
5.62731e-05
9.80046e-05
5.83373e-05
7.81631e-05
5.94779e-05
5.82057e-05
5.97964e-05
3.84079e-05
5.93093e-05
1.89894e-05
5.83014e-05
1.20699e-07
5.65313e-05
-1.79417e-05
5.41519e-05
-3.5081e-05
5.13837e-05
-5.11988e-05
4.83721e-05
-6.62893e-05
4.52588e-05
-8.02359e-05
4.18061e-05
-9.30189e-05
3.83407e-05
-0.000104664
3.49224e-05
-0.000115179
3.15422e-05
-0.000124605
2.82811e-05
-0.000132953
2.5058e-05
-0.000140287
2.20155e-05
-0.000146638
1.90378e-05
-0.000152055
1.62658e-05
-0.000156583
1.35678e-05
-0.000160213
1.09221e-05
-0.000163185
8.90297e-06
-0.000165285
6.28834e-06
-0.000166712
4.30352e-06
-0.000167401
2.06013e-06
-0.000167444
1.32013e-07
-0.000166832
-1.94583e-06
-0.000165616
-3.51621e-06
-0.000163814
-5.42263e-06
-0.000161425
-7.20276e-06
-0.000158478
-8.80395e-06
-0.000154966
-1.05216e-05
-0.000150925
-1.21486e-05
-0.000146314
-1.38323e-05
-0.000141083
-1.56916e-05
-0.000135212
-1.76443e-05
-0.000128704
-1.95249e-05
-0.000121498
-2.16265e-05
-0.000113569
-2.38229e-05
-0.000104922
-2.58863e-05
-9.55367e-05
-2.81651e-05
-8.53498e-05
-3.06815e-05
-7.43793e-05
-3.27993e-05
-6.25453e-05
-3.5491e-05
-4.98655e-05
-3.81182e-05
-3.63691e-05
-4.04216e-05
-2.20461e-05
-4.29384e-05
-6.98148e-06
-4.51857e-05
8.78889e-06
-4.72712e-05
2.51463e-05
-4.90285e-05
4.19165e-05
-5.02694e-05
5.89858e-05
-5.11532e-05
7.61661e-05
-5.14462e-05
9.31745e-05
-5.10135e-05
0.000109888
-5.00801e-05
0.000126003
-4.82805e-05
0.000141289
-4.58013e-05
0.000155487
-4.25432e-05
0.000168337
-3.84898e-05
0.000179611
-3.37651e-05
0.000188982
-2.80817e-05
0.000196338
-2.20723e-05
0.000201471
-1.53352e-05
0.000204256
-8.30834e-06
0.0002046
-1.04526e-06
0.00020245
6.39372e-06
0.000197813
1.39084e-05
0.000190806
2.10635e-05
0.00018149
2.78578e-05
0.000170138
3.40141e-05
0.000156932
3.9577e-05
0.000142129
4.43521e-05
0.00012592
4.85568e-05
0.00010863
5.18214e-05
9.05031e-05
5.43301e-05
7.18372e-05
5.59471e-05
5.29131e-05
5.67108e-05
3.40267e-05
5.6602e-05
1.54959e-05
5.55363e-05
-2.48573e-06
5.38947e-05
-1.97228e-05
5.16719e-05
-3.60777e-05
4.905e-05
-5.1537e-05
4.63498e-05
-6.60339e-05
4.35221e-05
-7.9539e-05
4.05053e-05
-9.20585e-05
3.7561e-05
-0.000103574
3.45343e-05
-0.000114126
3.16418e-05
-0.00012371
2.87273e-05
-0.00013234
2.58608e-05
-0.000140059
2.31476e-05
-0.000146862
2.04589e-05
-0.000152745
1.76521e-05
-0.000157745
1.50245e-05
-0.000161953
1.26714e-05
-0.000165481
1.05475e-05
-0.000168318
8.57737e-06
-0.000170676
7.02693e-06
-0.000172481
5.34077e-06
-0.000173851
4.17645e-06
-0.000174713
2.57971e-06
-0.000175139
1.29248e-06
-0.000175036
-3.48201e-07
-0.000174389
-1.94821e-06
-0.000173185
-3.59749e-06
-0.000171375
-5.45158e-06
-0.000168993
-7.13287e-06
-0.000165983
-9.01018e-06
-0.000162381
-1.08287e-05
-0.000158152
-1.26839e-05
-0.000153225
-1.47888e-05
-0.000147618
-1.69321e-05
-0.000141285
-1.89097e-05
-0.000134211
-2.12292e-05
-0.000126309
-2.36682e-05
-0.000117722
-2.57866e-05
-0.000108268
-2.83636e-05
-9.80102e-05
-3.08712e-05
-8.68966e-05
-3.32375e-05
-7.49497e-05
-3.58374e-05
-6.21711e-05
-3.83576e-05
-4.85749e-05
-4.07429e-05
-3.42185e-05
-4.30601e-05
-1.91464e-05
-4.51847e-05
-3.44922e-06
-4.70686e-05
1.27659e-05
-4.8625e-05
2.93488e-05
-4.96843e-05
4.61537e-05
-5.03489e-05
6.29452e-05
-5.03175e-05
7.95495e-05
-4.9783e-05
9.57475e-05
-4.8518e-05
0.000111324
-4.66703e-05
0.000126
-4.39918e-05
0.000139554
-4.05943e-05
0.000151708
-3.64067e-05
0.000162211
-3.14699e-05
0.000170844
-2.58437e-05
0.000177383
-1.95665e-05
0.000181649
-1.27847e-05
0.000183547
-5.68643e-06
0.000183015
1.55441e-06
0.000180032
8.93016e-06
0.000174658
1.61269e-05
0.000167
2.29468e-05
0.000157224
2.92975e-05
0.000145523
3.5072e-05
0.000132136
4.0081e-05
0.000117339
4.43335e-05
0.000101339
4.79055e-05
8.4456e-05
5.05952e-05
6.6966e-05
5.24421e-05
4.90928e-05
5.35695e-05
3.10937e-05
5.39639e-05
1.32065e-05
5.3631e-05
-4.40147e-06
5.27432e-05
-2.14912e-05
5.12372e-05
-3.78942e-05
4.9197e-05
-5.34952e-05
4.68543e-05
-6.82495e-05
4.42784e-05
-8.21153e-05
4.15436e-05
-9.49622e-05
3.85426e-05
-0.000106809
3.55489e-05
-0.000117611
3.24344e-05
-0.000127459
2.9563e-05
-0.000136267
2.64439e-05
-0.000144102
2.35239e-05
-0.000151035
2.08101e-05
-0.000157025
1.79717e-05
-0.000162163
1.54208e-05
-0.000166395
1.2712e-05
-0.000169746
1.005e-05
-0.000172262
7.52481e-06
-0.000173973
5.10667e-06
-0.000174784
2.47366e-06
-0.000174826
1.9215e-07
-0.000173993
-2.46091e-06
-0.000172581
-4.21691e-06
-0.00017052
-6.16883e-06
-0.00016794
-7.71729e-06
-0.00016506
-8.61048e-06
-0.000161857
-9.63621e-06
-0.000158158
-1.10694e-05
-0.00015434
-1.14464e-05
-0.000150103
-1.272e-05
-0.000145591
-1.35387e-05
-0.000140787
-1.44282e-05
-0.000135479
-1.59381e-05
-0.000129674
-1.74305e-05
-0.000123427
-1.87716e-05
-0.000116435
-2.09803e-05
-0.000108621
-2.34661e-05
-9.99984e-05
-2.58683e-05
-9.03432e-05
-2.89881e-05
-7.98368e-05
-3.1589e-05
-6.81046e-05
-3.5153e-05
-5.51366e-05
-3.88623e-05
-4.12203e-05
-4.17497e-05
-2.6154e-05
-4.51814e-05
-1.00452e-05
-4.82966e-05
6.75108e-06
-5.0363e-05
2.43285e-05
-5.26822e-05
4.23179e-05
-5.39113e-05
6.05889e-05
-5.47579e-05
7.88732e-05
-5.47782e-05
9.67549e-05
-5.35986e-05
0.000114099
-5.19608e-05
0.000130586
-4.93896e-05
0.00014585
-4.57385e-05
0.000159748
-4.16451e-05
0.000172008
-3.67305e-05
0.00018249
-3.14038e-05
0.000190958
-2.53611e-05
0.00019727
-1.89139e-05
0.000201354
-1.22283e-05
0.000203168
-5.42814e-06
0.000202601
1.6135e-06
0.000199813
8.30616e-06
0.000194782
1.50691e-05
0.000187815
2.08623e-05
0.000179051
2.62458e-05
0.000168556
3.1457e-05
0.000156682
3.55746e-05
0.000143669
3.89845e-05
0.000129671
4.19624e-05
0.000114893
4.42884e-05
9.9551e-05
4.59864e-05
8.3903e-05
4.69029e-05
6.80696e-05
4.74807e-05
5.21461e-05
4.77457e-05
3.62917e-05
4.75486e-05
2.06417e-05
4.6918e-05
5.31559e-06
4.5953e-05
-9.58858e-06
4.46993e-05
-2.41056e-05
4.35317e-05
-3.81257e-05
4.20434e-05
-5.15601e-05
4.02928e-05
-6.43987e-05
3.85085e-05
-7.65665e-05
3.64996e-05
-8.80735e-05
3.45153e-05
-9.88598e-05
3.23549e-05
-0.000108886
3.00781e-05
-0.000118158
2.78142e-05
-0.000126639
2.54378e-05
-0.000134305
2.30017e-05
-0.000141163
2.05758e-05
-0.000147195
1.80942e-05
-0.000152398
1.56096e-05
-0.000156772
1.3119e-05
-0.000160309
1.06064e-05
-0.000163013
8.09781e-06
5.51963e-06
-3.40329e-05
-5.48083e-05
-1.90756e-05
-5.98403e-05
-2.97541e-06
-6.43426e-05
1.37043e-05
-6.66432e-05
3.12954e-05
-7.02488e-05
4.93241e-05
-7.19729e-05
6.7923e-05
-7.42412e-05
8.67229e-05
-7.50197e-05
0.000105369
-7.43979e-05
0.00012387
-7.38426e-05
0.00014198
-7.22872e-05
0.000159302
-6.91039e-05
0.000175613
-6.50902e-05
0.000190673
-6.00839e-05
0.000204232
-5.41186e-05
0.000216086
-4.72767e-05
0.000225878
-3.90385e-05
0.000233482
-3.03405e-05
0.00023877
-2.10754e-05
0.000241547
-1.11089e-05
0.000241823
-1.27299e-06
0.000239594
8.6655e-06
0.000234745
1.93955e-05
0.000227542
2.87723e-05
0.000218016
3.79466e-05
0.000206529
4.5804e-05
0.000193155
5.34338e-05
0.000178012
6.05261e-05
0.000161508
6.57503e-05
0.000143956
7.00196e-05
0.000125541
7.35629e-05
0.000106505
7.60041e-05
8.7125e-05
7.74357e-05
6.77441e-05
7.73408e-05
4.8514e-05
7.68064e-05
2.96452e-05
7.53648e-05
1.13344e-05
7.31391e-05
-6.29375e-06
7.04646e-05
-2.31662e-05
6.74178e-05
-3.91633e-05
6.39395e-05
-5.42164e-05
6.01809e-05
-6.82728e-05
5.61942e-05
-8.1333e-05
5.22221e-05
-9.33496e-05
4.80636e-05
-0.000104337
4.39175e-05
-0.000114323
3.99518e-05
-0.000123321
3.60042e-05
-0.000131358
3.21729e-05
-0.000138483
2.8493e-05
-0.000144707
2.48941e-05
-0.000150061
2.14256e-05
-0.000154592
1.81429e-05
-0.00015834
1.50123e-05
-0.000161348
1.20146e-05
-0.000163624
9.08821e-06
-0.000165143
6.07763e-06
-0.000165979
3.4122e-06
-0.000166101
5.6934e-07
-0.000165447
-2.52962e-06
-0.000164117
-5.41802e-06
-0.000161962
-8.65862e-06
-0.000159089
-1.14913e-05
-0.00015546
-1.44241e-05
-0.000151055
-1.77149e-05
-0.000145812
-2.09624e-05
-0.000139851
-2.38547e-05
-0.000132921
-2.77052e-05
-0.000125177
-3.08642e-05
-0.000116505
-3.48071e-05
-0.000106947
-3.83062e-05
-9.65936e-05
-4.1372e-05
-8.53047e-05
-4.51445e-05
-7.30791e-05
-4.88984e-05
-6.00669e-05
-5.19861e-05
-4.61932e-05
-5.5445e-05
-3.16086e-05
-5.83584e-05
-1.63003e-05
-6.11982e-05
-2.94118e-07
-6.40008e-05
1.63571e-05
-6.65548e-05
3.34655e-05
-6.83901e-05
5.09607e-05
-6.99214e-05
6.87059e-05
-7.08985e-05
8.6611e-05
-7.15593e-05
0.00010443
-7.11598e-05
0.000122089
-7.05308e-05
0.000139258
-6.85454e-05
0.000155801
-6.60934e-05
0.000171455
-6.24417e-05
0.000185973
-5.79155e-05
0.000199017
-5.20847e-05
0.000210384
-4.53563e-05
0.000219812
-3.76706e-05
0.000227088
-2.90632e-05
0.000232096
-1.99669e-05
0.000234656
-1.02591e-05
0.000234754
-5.46236e-07
0.000232352
9.3839e-06
0.000227544
1.92797e-05
0.000220333
2.86988e-05
0.000210879
3.77529e-05
0.000199337
4.60473e-05
0.000185856
5.37754e-05
0.000170691
6.05195e-05
0.000154047
6.6389e-05
0.000136216
7.1309e-05