/*--------------------------------*- C++ -*----------------------------------*\
| =========                 |                                                 |
| \\      /  F ield         | OpenFOAM: The Open Source CFD Toolbox           |
|  \\    /   O peration     | Version:  3.0.1                                 |
|   \\  /    A nd           | Web:      www.OpenFOAM.org                      |
|    \\/     M anipulation  |                                                 |
\*---------------------------------------------------------------------------*/
FoamFile
{
    version     2.0;
    format      ascii;
    class       surfaceScalarField;
    location    "5.8";
    object      phi;
}
// * * * * * * * * * * * * * * * * * * * * * * * * * * * * * * * * * * * * * //

dimensions      [0 3 -1 0 0 0 0];

internalField   nonuniform List<scalar> 
42423
(
-0.000153155
2.62916e-06
-0.000155029
1.87369e-06
-0.000156297
1.26818e-06
-0.000156962
6.64406e-07
-0.000157017
5.51246e-08
-0.000156436
-5.80885e-07
-0.000155181
-1.25482e-06
-0.000153259
-1.9222e-06
-0.000150687
-2.57234e-06
-0.000147222
-3.46489e-06
-0.000142956
-4.26629e-06
-0.000137859
-5.09676e-06
-0.000131766
-6.09276e-06
-0.000124756
-7.01068e-06
-0.000116695
-8.06049e-06
-0.000107665
-9.03025e-06
-9.7732e-05
-9.93297e-06
-8.68619e-05
-1.08702e-05
-7.51504e-05
-1.17115e-05
-6.26565e-05
-1.24941e-05
-4.93737e-05
-1.32829e-05
-3.56019e-05
-1.37719e-05
-2.15081e-05
-1.40939e-05
-7.15404e-06
-1.43541e-05
7.2536e-06
-1.44078e-05
2.1497e-05
-1.42436e-05
3.55079e-05
-1.4011e-05
4.90957e-05
-1.35879e-05
6.21349e-05
-1.30393e-05
7.45145e-05
-1.23797e-05
8.6112e-05
-1.15977e-05
9.68837e-05
-1.07718e-05
0.000106714
-9.83012e-06
0.0001156
-8.88614e-06
0.000123481
-7.88116e-06
0.000130273
-6.79258e-06
0.000136013
-5.74025e-06
0.000140713
-4.69961e-06
0.000144298
-3.586e-06
0.000146848
-2.54954e-06
0.000148264
-1.41624e-06
0.000148588
-3.23855e-07
0.000147814
7.73611e-07
0.000145883
1.93126e-06
0.000142797
3.08561e-06
0.000138692
4.10423e-06
0.000133494
5.1985e-06
0.000127259
6.2346e-06
0.00012005
7.20921e-06
0.00011191
8.13941e-06
0.000102946
8.96387e-06
9.32575e-05
9.68887e-06
8.29957e-05
1.02617e-05
7.22467e-05
1.0749e-05
6.11278e-05
1.11188e-05
4.98023e-05
1.13256e-05
3.84111e-05
1.13911e-05
2.70772e-05
1.13339e-05
1.59345e-05
1.11427e-05
5.10231e-06
1.08322e-05
-5.33179e-06
1.04341e-05
-1.52712e-05
9.93938e-06
-2.46249e-05
9.35372e-06
-3.33437e-05
8.71881e-06
-4.13957e-05
8.05198e-06
-4.87127e-05
7.31699e-06
-5.52614e-05
6.54869e-06
-6.10469e-05
5.78551e-06
-6.60216e-05
4.97467e-06
-7.02568e-05
4.23515e-06
-7.37415e-05
3.48474e-06
-7.64496e-05
2.70804e-06
-7.8414e-05
1.9644e-06
-7.96781e-05
1.26408e-06
-8.02647e-05
5.86639e-07
-8.02127e-05
-5.1998e-08
-7.95214e-05
-6.91355e-07
-7.82155e-05
-1.30585e-06
-7.62906e-05
-1.92489e-06
-7.38111e-05
-2.47951e-06
-7.07718e-05
-3.03936e-06
-6.73103e-05
-3.46146e-06
-6.34455e-05
-3.86478e-06
-5.91648e-05
-4.28071e-06
-5.45077e-05
-4.65714e-06
-4.95304e-05
-4.97727e-06
-4.42784e-05
-5.25206e-06
-3.87994e-05
-5.47903e-06
-3.31609e-05
-5.63848e-06
-2.73815e-05
-5.7794e-06
-2.14856e-05
-5.89591e-06
-1.5562e-05
-5.92361e-06
-9.6734e-06
-5.88861e-06
-3.84903e-06
-5.82438e-06
1.89519e-06
-5.74422e-06
7.47432e-06
-5.57914e-06
1.28674e-05
-5.39314e-06
1.80387e-05
-5.17122e-06
2.29577e-05
-4.91908e-06
2.758e-05
-4.62228e-06
3.18702e-05
-4.29019e-06
3.58056e-05
-3.93547e-06
3.9352e-05
-3.54639e-06
4.25007e-05
-3.14866e-06
4.5251e-05
-2.75033e-06
4.75919e-05
-2.34088e-06
4.95232e-05
-1.93136e-06
5.10383e-05
-1.51509e-06
5.21597e-05
-1.12142e-06
5.29027e-05
-7.42971e-07
5.32302e-05
-3.27523e-07
5.32038e-05
2.63301e-08
5.28446e-05
3.59188e-07
5.21726e-05
6.72025e-07
5.12142e-05
9.58394e-07
4.99951e-05
1.2191e-06
4.85421e-05
1.453e-06
4.68875e-05
1.65456e-06
4.50389e-05
1.84866e-06
4.30303e-05
2.0086e-06
4.09082e-05
2.12208e-06
3.86923e-05
2.21583e-06
3.63814e-05
2.31095e-06
3.40117e-05
2.3697e-06
3.16188e-05
2.39287e-06
2.92251e-05
2.39372e-06
2.68364e-05
2.3887e-06
2.44744e-05
2.36198e-06
2.21632e-05
2.31116e-06
1.99261e-05
2.23712e-06
1.77547e-05
2.17143e-06
1.56758e-05
2.07884e-06
1.37057e-05
1.97014e-06
1.1834e-05
1.8717e-06
1.00757e-05
1.75833e-06
8.44072e-06
1.63496e-06
6.92094e-06
1.51978e-06
5.5249e-06
1.39603e-06
4.24488e-06
1.28002e-06
3.07882e-06
1.16606e-06
2.03992e-06
1.0389e-06
1.10423e-06
9.35697e-07
2.84409e-07
8.19816e-07
-4.38833e-07
7.23241e-07
-1.06617e-06
6.27333e-07
-1.60468e-06
5.38514e-07
-2.05523e-06
4.50546e-07
-2.43042e-06
3.75188e-07
-2.73308e-06
3.02668e-07
-2.97087e-06
2.37787e-07
-3.14849e-06
1.77618e-07
-3.27168e-06
1.23186e-07
-3.3461e-06
7.44243e-08
-3.37699e-06
3.08869e-08
-3.36783e-06
-9.15565e-09
-3.32388e-06
-4.39552e-08
-3.25068e-06
-7.31965e-08
-3.15173e-06
-9.89513e-08
-3.03083e-06
-1.20903e-07
-2.88982e-06
-1.41014e-07
-2.73318e-06
-1.56638e-07
-2.56539e-06
-1.67785e-07
-2.38747e-06
-1.77921e-07
-2.20257e-06
-1.84906e-07
-2.01474e-06
-1.87825e-07
-1.82497e-06
-1.89772e-07
-1.63404e-06
-1.90934e-07
-1.4449e-06
-1.89141e-07
-1.25971e-06
-1.85183e-07
-1.08096e-06
-1.78756e-07
-9.06333e-07
-1.74625e-07
-7.38776e-07
-1.67556e-07
-5.80946e-07
-1.5783e-07
-4.29704e-07
-1.51243e-07
-2.87541e-07
-1.42162e-07
-1.55775e-07
-1.31766e-07
-3.19542e-08
-1.23821e-07
8.17854e-08
-1.1374e-07
1.86209e-07
-1.04423e-07
2.8135e-07
-9.51417e-08
3.67633e-07
-8.62831e-08
4.45297e-07
-7.76634e-08
5.14527e-07
-6.92307e-08
5.75793e-07
-6.12651e-08
6.2932e-07
-5.35276e-08
6.75345e-07
-4.60245e-08
7.145e-07
-3.91555e-08
7.47138e-07
-3.26375e-08
7.73559e-07
-2.64209e-08
7.94469e-07
-2.09108e-08
8.10049e-07
-1.55797e-08
8.20922e-07
-1.08731e-08
8.27419e-07
-6.49664e-09
8.29846e-07
-2.42701e-09
8.28773e-07
1.07266e-09
8.24395e-07
4.37817e-09
8.17008e-07
7.38725e-09
8.06928e-07
1.00804e-08
7.94484e-07
1.2444e-08
7.79968e-07
1.45152e-08
7.63651e-07
1.63175e-08
7.45781e-07
1.78697e-08
7.26593e-07
1.91884e-08
7.06303e-07
2.02897e-08
6.85114e-07
2.11891e-08
6.63212e-07
2.1902e-08
6.40769e-07
2.24432e-08
6.17942e-07
2.28272e-08
5.94874e-07
2.30677e-08
5.71696e-07
2.31778e-08
5.48526e-07
2.31703e-08
5.25469e-07
2.30569e-08
5.0262e-07
2.28491e-08
4.80062e-07
2.25574e-08
4.57871e-07
2.21919e-08
4.36109e-07
2.1762e-08
4.14832e-07
2.12767e-08
3.94088e-07
2.07441e-08
3.73916e-07
2.01721e-08
3.54348e-07
1.95675e-08
3.35411e-07
1.89371e-08
3.17124e-07
1.82868e-08
2.99502e-07
1.76222e-08
2.82554e-07
1.69482e-08
2.66284e-07
1.62694e-08
2.50695e-07
1.55896e-08
2.35782e-07
1.49127e-08
2.2154e-07
1.42417e-08
2.07961e-07
1.35795e-08
1.95032e-07
1.29285e-08
1.82742e-07
1.22908e-08
1.71073e-07
1.16681e-08
1.60011e-07
1.1062e-08
1.49538e-07
1.04737e-08
1.39633e-07
9.90423e-09
1.30279e-07
9.35422e-09
1.21455e-07
8.82436e-09
1.1314e-07
8.31494e-09
1.05314e-07
7.82626e-09
9.79553e-08
7.35831e-09
9.10442e-08
6.91112e-09
8.45597e-08
6.48447e-09
7.84815e-08
6.07815e-09
7.27898e-08
5.69176e-09
6.74648e-08
5.32495e-09
6.24876e-08
4.97719e-09
5.78396e-08
4.64801e-09
5.35028e-08
4.33679e-09
4.94598e-08
4.04298e-09
4.56939e-08
3.76593e-09
4.21889e-08
3.50503e-09
3.89293e-08
3.2596e-09
3.59002e-08
3.02902e-09
3.30876e-08
2.81259e-09
3.04779e-08
2.60971e-09
2.80583e-08
2.41968e-09
2.58163e-08
2.24191e-09
2.37406e-08
2.07574e-09
2.182e-08
1.92059e-09
2.00442e-08
1.77583e-09
1.84033e-08
1.64091e-09
1.6888e-08
1.51525e-09
1.54897e-08
1.39835e-09
1.42e-08
1.28965e-09
1.30113e-08
1.18869e-09
1.19163e-08
1.09497e-09
1.09083e-08
1.00805e-09
9.98078e-09
9.27494e-10
9.12789e-09
8.52893e-10
8.34404e-09
7.83849e-10
7.62403e-09
7.20003e-10
6.96304e-09
6.60995e-10
6.35653e-09
6.06503e-10
5.80033e-09
5.56207e-10
5.29051e-09
5.09821e-10
4.82344e-09
4.6706e-10
4.39577e-09
4.27674e-10
4.00436e-09
3.91411e-10
3.6463e-09
3.58052e-10
3.31893e-09
3.27374e-10
3.01975e-09
2.99185e-10
2.74645e-09
2.73293e-10
2.49692e-09
2.49528e-10
2.2692e-09
2.27725e-10
2.06146e-09
2.07735e-10
1.87205e-09
1.89415e-10
1.69941e-09
1.72637e-10
1.54213e-09
1.57276e-10
1.39891e-09
1.43222e-10
1.26854e-09
1.30369e-10
1.14992e-09
1.18621e-10
1.04203e-09
1.07887e-10
9.43948e-10
9.80861e-11
8.54808e-10
8.914e-11
7.73829e-10
8.09788e-11
7.00293e-10
7.35358e-11
6.3354e-10
6.67522e-11
5.72969e-10
6.0571e-11
5.18027e-10
5.49425e-11
4.68208e-10
4.98184e-11
4.23051e-10
4.51566e-11
3.82135e-10
4.09164e-11
3.45073e-10
3.70617e-11
3.11515e-10
3.35583e-11
2.81139e-10
3.03758e-11
2.53653e-10
2.74855e-11
2.28791e-10
2.48622e-11
2.06309e-10
2.2482e-11
1.85986e-10
2.03232e-11
1.6762e-10
1.83659e-11
1.51028e-10
1.65921e-11
1.36043e-10
1.49848e-11
1.22514e-10
1.3529e-11
1.10303e-10
1.22107e-11
9.92854e-11
1.10175e-11
8.93474e-11
9.93796e-12
8.03858e-11
8.96162e-12
7.23068e-11
8.07893e-12
6.50255e-11
7.2813e-12
5.84647e-11
6.56076e-12
5.25546e-11
5.91007e-12
4.7232e-11
5.32259e-12
4.24397e-11
4.79232e-12
3.81259e-11
4.31376e-12
3.42438e-11
3.88205e-12
3.07511e-11
3.49273e-12
2.76093e-11
3.14177e-12
2.47838e-11
2.82549e-12
2.22432e-11
2.54054e-12
1.99594e-11
2.28386e-12
1.79067e-11
2.05267e-12
1.60622e-11
1.84449e-12
1.44051e-11
1.65709e-12
1.29166e-11
1.48846e-12
1.15798e-11
1.33678e-12
1.03794e-11
1.20038e-12
9.30168e-12
1.07776e-12
8.33414e-12
9.67535e-13
7.46567e-12
8.68464e-13
6.68624e-12
7.79427e-13
5.9868e-12
6.99427e-13
5.35923e-12
6.27572e-13
4.79617e-12
5.63056e-13
4.29101e-12
5.05153e-13
3.8378e-12
4.53208e-13
3.43117e-12
4.06628e-13
3.06629e-12
3.64879e-13
2.73881e-12
3.27475e-13
2.44483e-12
2.93979e-13
2.18083e-12
2.64e-13
1.94364e-12
2.37192e-13
1.73038e-12
2.13251e-13
1.53847e-12
1.91918e-13
1.36549e-12
1.72973e-13
1.20924e-12
1.5625e-13
1.06763e-12
1.41611e-13
1.28357e-13
-0.000153193
5.26956e-06
-0.00015507
3.75079e-06
-0.000156346
2.54366e-06
-0.000157015
1.33383e-06
-0.000157075
1.146e-07
-0.000156497
-1.15909e-06
-0.000155233
-2.51851e-06
-0.000153326
-3.8296e-06
-0.000150754
-5.1441e-06
-0.000147291
-6.92781e-06
-0.000143033
-8.52479e-06
-0.000137943
-1.01869e-05
-0.000131854
-1.21812e-05
-0.000124848
-1.40168e-05
-0.000116796
-1.61133e-05
-0.000107775
-1.80508e-05
-9.78329e-05
-1.98754e-05
-8.69429e-05
-2.17604e-05
-7.52095e-05
-2.34451e-05
-6.26984e-05
-2.50054e-05
-4.94248e-05
-2.65567e-05
-3.56469e-05
-2.755e-05
-2.15403e-05
-2.82007e-05
-7.1738e-06
-2.87209e-05
7.21532e-06
-2.87971e-05
2.14731e-05
-2.85016e-05
3.54968e-05
-2.80351e-05
4.90872e-05
-2.71786e-05
6.21399e-05
-2.60923e-05
7.4541e-05
-2.47811e-05
8.61443e-05
-2.32013e-05
9.69247e-05
-2.15526e-05
0.000106761
-1.96667e-05
0.00011566
-1.77851e-05
0.000123552
-1.57734e-05
0.000130344
-1.35855e-05
0.000136089
-1.14852e-05
0.000140795
-9.4058e-06
0.000144381
-7.17291e-06
0.000146934
-5.10282e-06
0.000148358
-2.84019e-06
0.000148683
-6.4868e-07
0.000147909
1.54703e-06
0.000145978
3.86168e-06
0.000142888
6.17532e-06
0.000138789
8.20326e-06
0.00013359
1.03975e-05
0.000127353
1.24713e-05
0.00012014
1.44219e-05
0.000111996
1.62841e-05
0.000103023
1.79359e-05
9.33183e-05
1.93939e-05
8.30567e-05
2.05232e-05
7.2307e-05
2.14986e-05
6.11791e-05
2.22466e-05
4.98423e-05
2.26623e-05
3.84387e-05
2.27947e-05
2.7105e-05
2.26675e-05
1.59538e-05
2.22939e-05
5.11014e-06
2.16758e-05
-5.32349e-06
2.08677e-05
-1.52723e-05
1.98882e-05
-2.46359e-05
1.87172e-05
-3.33647e-05
1.74476e-05
-4.14289e-05
1.61161e-05
-4.875e-05
1.46382e-05
-5.53027e-05
1.31013e-05
-6.10921e-05
1.15749e-05
-6.60702e-05
9.95276e-06
-7.031e-05
8.475e-06
-7.37976e-05
6.97232e-06
-7.65052e-05
5.41563e-06
-7.84779e-05
3.93713e-06
-7.97446e-05
2.53076e-06
-8.0326e-05
1.16795e-06
-8.02749e-05
-1.03082e-07
-7.95832e-05
-1.38305e-06
-7.82766e-05
-2.61242e-06
-7.63478e-05
-3.85369e-06
-7.387e-05
-4.95738e-06
-7.08261e-05
-6.08327e-06
-6.73623e-05
-6.92527e-06
-6.35008e-05
-7.72625e-06
-5.92154e-05
-8.56618e-06
-5.45538e-05
-9.31871e-06
-4.95723e-05
-9.95876e-06
-4.43156e-05
-1.05088e-05
-3.88276e-05
-1.09671e-05
-3.31908e-05
-1.12753e-05
-2.74101e-05
-1.15601e-05
-2.15086e-05
-1.17974e-05
-1.55771e-05
-1.18552e-05
-9.68543e-06
-1.17803e-05
-3.86105e-06
-1.16488e-05
1.88793e-06
-1.14932e-05
7.47049e-06
-1.11617e-05
1.28686e-05
-1.07913e-05
1.80478e-05
-1.03504e-05
2.29732e-05
-9.84449e-06
2.76021e-05
-9.25116e-06
3.1895e-05
-8.58311e-06
3.58312e-05
-7.87167e-06
3.93823e-05
-7.09755e-06
4.25324e-05
-6.29873e-06
4.52813e-05
-5.49933e-06
4.76232e-05
-4.68275e-06
4.95552e-05
-3.86336e-06
5.10704e-05
-3.03039e-06
5.21919e-05
-2.24288e-06
5.29338e-05
-1.48488e-06
5.326e-05
-6.53769e-07
5.32327e-05
5.3632e-08
5.28728e-05
7.19109e-07
5.22e-05
1.34482e-06
5.12405e-05
1.91782e-06
5.00201e-05
2.43954e-06
4.85657e-05
2.90737e-06
4.69104e-05
3.30982e-06
4.50606e-05
3.69851e-06
4.30505e-05
4.01864e-06
4.09258e-05
4.24679e-06
3.87087e-05
4.4329e-06
3.63966e-05
4.6231e-06
3.40256e-05
4.74071e-06
3.16312e-05
4.78726e-06
2.92353e-05
4.78961e-06
2.6845e-05
4.77894e-06
2.44815e-05
4.72548e-06
2.21683e-05
4.62438e-06
1.99306e-05
4.47482e-06
1.7758e-05
4.34405e-06
1.56774e-05
4.15942e-06
1.37069e-05
3.9406e-06
1.18343e-05
3.74432e-06
1.00747e-05
3.51796e-06
8.43964e-06
3.26999e-06
6.91939e-06
3.04002e-06
5.52262e-06
2.7928e-06
4.24192e-06
2.56072e-06
3.07561e-06
2.33237e-06
2.03645e-06
2.07806e-06
1.10216e-06
1.86999e-06
2.80671e-07
1.6413e-06
-4.428e-07
1.44671e-06
-1.0701e-06
1.25463e-06
-1.6085e-06
1.07691e-06
-2.0589e-06
9.00949e-07
-2.43395e-06
7.50236e-07
-2.73652e-06
6.05243e-07
-2.97419e-06
4.75456e-07
-3.15174e-06
3.55162e-07
-3.27477e-06
2.46219e-07
-3.34903e-06
1.48679e-07
-3.37978e-06
6.16386e-08
-3.37047e-06
-1.84685e-08
-3.32633e-06
-8.8089e-08
-3.2529e-06
-1.46636e-07
-3.1538e-06
-1.98052e-07
-3.03273e-06
-2.41973e-07
-2.89151e-06
-2.82232e-07
-2.73474e-06
-3.13406e-07
-2.56686e-06
-3.3567e-07
-2.38877e-06
-3.56007e-07
-2.20362e-06
-3.70057e-07
-2.01568e-06
-3.75762e-07
-1.82583e-06
-3.79623e-07
-1.63476e-06
-3.82005e-07
-1.44547e-06
-3.78433e-07
-1.2601e-06
-3.7055e-07
-1.08133e-06
-3.57528e-07
-9.06616e-07
-3.49338e-07
-7.38904e-07
-3.35269e-07
-5.81039e-07
-3.15696e-07
-4.29748e-07
-3.02534e-07
-2.87467e-07
-2.84443e-07
-1.5567e-07
-2.63563e-07
-3.18245e-08
-2.47667e-07
8.19252e-08
-2.27489e-07
1.86383e-07
-2.08881e-07
2.81563e-07
-1.90322e-07
3.67887e-07
-1.72606e-07
4.45602e-07
-1.55378e-07
5.14877e-07
-1.38506e-07
5.76166e-07
-1.22555e-07
6.2971e-07
-1.07071e-07
6.75745e-07
-9.20594e-08
7.14902e-07
-7.83125e-08
7.47541e-07
-6.52764e-08
7.73958e-07
-5.2838e-08
7.94863e-07
-4.18161e-08
8.10439e-07
-3.11552e-08
8.21301e-07
-2.1736e-08
8.27791e-07
-1.29858e-08
8.30205e-07
-4.84159e-09
8.29122e-07
2.15572e-09
8.24733e-07
8.76778e-09
8.17333e-07
1.47866e-08
8.07241e-07
2.01731e-08
7.94784e-07
2.49004e-08
7.80257e-07
2.90431e-08
7.63926e-07
3.26477e-08
7.46044e-07
3.57522e-08
7.26843e-07
3.83897e-08
7.0654e-07
4.0592e-08
6.85339e-07
4.23907e-08
6.63424e-07
4.38163e-08
6.40969e-07
4.48984e-08
6.1813e-07
4.5666e-08
5.95051e-07
4.61466e-08
5.71863e-07
4.63666e-08
5.48682e-07
4.63512e-08
5.25615e-07
4.6124e-08
5.02756e-07
4.57079e-08
4.80189e-07
4.5124e-08
4.57989e-07
4.43926e-08
4.36218e-07
4.35325e-08
4.14933e-07
4.25614e-08
3.94182e-07
4.14958e-08
3.74003e-07
4.03512e-08
3.54428e-07
3.91417e-08
3.35485e-07
3.78805e-08
3.17192e-07
3.65796e-08
2.99564e-07
3.525e-08
2.82611e-07
3.39016e-08
2.66337e-07
3.25435e-08
2.50743e-07
3.11837e-08
2.35826e-07
2.98296e-08
2.2158e-07
2.84873e-08
2.07997e-07
2.71626e-08
1.95065e-07
2.58603e-08
1.82772e-07
2.45846e-08
1.71101e-07
2.3339e-08
1.60036e-07
2.21267e-08
1.4956e-07
2.09498e-08
1.39653e-07
1.98106e-08
1.30297e-07
1.87104e-08
1.21471e-07
1.76505e-08
1.13154e-07
1.66315e-08
1.05327e-07
1.5654e-08
9.7967e-08
1.4718e-08
9.10546e-08
1.38235e-08
8.4569e-08
1.29701e-08
7.84898e-08
1.21573e-08
7.27971e-08
1.13845e-08
6.74713e-08
1.06507e-08
6.24933e-08
9.95513e-09
5.78446e-08
9.29669e-09
5.35072e-08
8.67418e-09
4.94637e-08
8.08651e-09
4.56973e-08
7.53234e-09
4.21918e-08
7.01049e-09
3.89318e-08
6.51958e-09
3.59025e-08
6.05837e-09
3.30895e-08
5.62549e-09
3.04796e-08
5.21969e-09
2.80596e-08
4.83961e-09
2.58175e-08
4.48404e-09
2.37416e-08
4.15167e-09
2.18208e-08
3.84133e-09
2.00448e-08
3.55179e-09
1.84038e-08
3.28194e-09
1.68884e-08
3.03062e-09
1.549e-08
2.79679e-09
1.42003e-08
2.57939e-09
1.30115e-08
2.37745e-09
1.19165e-08
2.19e-09
1.09084e-08
2.01616e-09
9.98082e-09
1.85503e-09
9.12788e-09
1.70582e-09
8.344e-09
1.56773e-09
7.62397e-09
1.44003e-09
6.96295e-09
1.32201e-09
6.35643e-09
1.21302e-09
5.80021e-09
1.11243e-09
5.29038e-09
1.01965e-09
4.82331e-09
9.34129e-10
4.39563e-09
8.55354e-10
4.00421e-09
7.82827e-10
3.64615e-09
7.16105e-10
3.31878e-09
6.54748e-10
3.01959e-09
5.98369e-10
2.7463e-09
5.46584e-10
2.49678e-09
4.99054e-10
2.26905e-09
4.55447e-10
2.06132e-09
4.15467e-10
1.87191e-09
3.78827e-10
1.69928e-09
3.45269e-10
1.542e-09
3.14547e-10
1.39879e-09
2.86439e-10
1.26842e-09
2.60732e-10
1.14981e-09
2.37236e-10
1.04192e-09
2.15769e-10
9.43843e-10
1.96167e-10
8.54708e-10
1.78275e-10
7.73734e-10
1.61952e-10
7.00203e-10
1.47067e-10
6.33455e-10
1.33499e-10
5.72889e-10
1.21137e-10
5.17951e-10
1.0988e-10
4.68137e-10
9.96322e-11
4.22985e-10
9.03087e-11
3.82072e-10
8.18286e-11
3.45014e-10
7.41193e-11
3.1146e-10
6.71127e-11
2.81088e-10
6.07478e-11
2.53605e-10
5.49675e-11
2.28746e-10
4.97211e-11
2.06268e-10
4.49607e-11
1.85947e-10
4.06434e-11
1.67584e-10
3.67291e-11
1.50995e-10
3.31815e-11
1.36012e-10
2.99671e-11
1.22485e-10
2.70556e-11
1.10277e-10
2.44192e-11
9.92613e-11
2.2033e-11
8.93252e-11
1.9874e-11
8.03653e-11
1.79214e-11
7.2288e-11
1.61562e-11
6.50082e-11
1.4561e-11
5.84489e-11
1.31201e-11
5.25401e-11
1.18188e-11
4.72187e-11
1.06439e-11
4.24275e-11
9.58349e-12
3.81148e-11
8.62647e-12
3.42336e-11
7.76313e-12
3.07418e-11
6.98457e-12
2.76008e-11
6.28272e-12
2.47761e-11
5.65022e-12
2.22362e-11
5.08039e-12
1.9953e-11
4.56707e-12
1.79009e-11
4.10475e-12
1.60569e-11
3.68845e-12
1.44003e-11
3.31369e-12
1.29123e-11
2.97647e-12
1.15759e-11
2.67314e-12
1.03759e-11
2.40038e-12
9.29844e-12
2.15517e-12
8.3312e-12
1.93476e-12
7.46301e-12
1.73665e-12
6.68383e-12
1.5586e-12
5.98463e-12
1.39862e-12
5.35727e-12
1.25493e-12
4.7944e-12
1.12592e-12
4.28941e-12
1.01013e-12
3.83636e-12
9.06258e-13
3.42987e-12
8.13113e-13
3.06511e-12
7.29628e-13
2.73775e-12
6.54834e-13
2.44387e-12
5.87854e-13
2.17996e-12
5.27907e-13
1.94285e-12
4.743e-13
1.72967e-12
4.26429e-13
1.53781e-12
3.83771e-13
1.36489e-12
3.45889e-13
1.20869e-12
3.1245e-13
1.06711e-12
2.83183e-13
2.56684e-13
-0.000153261
7.9241e-06
-0.000155147
5.63713e-06
-0.000156415
3.81168e-06
-0.000157073
1.99121e-06
-0.000157128
1.69982e-07
-0.000156549
-1.73787e-06
-0.000155287
-3.78143e-06
-0.000153384
-5.73223e-06
-0.000150815
-7.71281e-06
-0.000147356
-1.03872e-05
-0.000143101
-1.27801e-05
-0.000138016
-1.5272e-05
-0.000131934
-1.82627e-05
-0.000124938
-2.10133e-05
-0.000116895
-2.4157e-05
-0.000107882
-2.70631e-05
-9.79382e-05
-2.98197e-05
-8.70311e-05
-3.26676e-05
-7.52767e-05
-3.51997e-05
-6.27516e-05
-3.75307e-05
-4.94836e-05
-3.98249e-05
-3.56869e-05
-4.1347e-05
-2.15652e-05
-4.23226e-05
-7.18503e-06
-4.31013e-05
7.20594e-06
-4.31883e-05
2.14701e-05
-4.2766e-05
3.55027e-05
-4.2068e-05
4.91155e-05
-4.07917e-05
6.21896e-05
-3.91666e-05
7.45972e-05
-3.71891e-05
8.6207e-05
-3.48113e-05
9.69917e-05
-3.23376e-05
0.000106841
-2.95166e-05
0.000115747
-2.6691e-05
0.000123633
-2.36601e-05
0.000130431
-2.03834e-05
0.00013618
-1.72346e-05
0.000140883
-1.41091e-05
0.000144475
-1.07654e-05
0.000147019
-7.64668e-06
0.00014845
-4.2716e-06
0.000148774
-9.72852e-07
0.000147994
2.32644e-06
0.000146056
5.80003e-06
0.000142975
9.25611e-06
0.000138874
1.23036e-05
0.000133672
1.55992e-05
0.000127432
1.8712e-05
0.000120214
2.16391e-05
0.000112063
2.44346e-05
0.000103084
2.69149e-05
9.33711e-05
2.9107e-05
8.30957e-05
3.07985e-05
7.23437e-05
3.22505e-05
6.12051e-05
3.33852e-05
4.98554e-05
3.40119e-05
3.84354e-05
3.42147e-05
2.70996e-05
3.40033e-05
1.59375e-05
3.34559e-05
5.08576e-06
3.25276e-05
-5.35314e-06
3.13066e-05
-1.53126e-05
2.98476e-05
-2.46803e-05
2.80849e-05
-3.34085e-05
2.61758e-05
-4.14835e-05
2.41911e-05
-4.88028e-05
2.19575e-05
-5.53561e-05
1.96545e-05
-6.11531e-05
1.73719e-05
-6.6126e-05
1.49257e-05
-7.03672e-05
1.27161e-05
-7.38591e-05
1.04642e-05
-7.65657e-05
8.12216e-06
-7.8532e-05
5.90346e-06
-7.98014e-05
3.80014e-06
-8.03806e-05
1.74718e-06
-8.03234e-05
-1.60312e-07
-7.96296e-05
-2.07684e-06
-7.8321e-05
-3.92108e-06
-7.63888e-05
-5.78587e-06
-7.391e-05
-7.43614e-06
-7.0863e-05
-9.13033e-06
-6.73955e-05
-1.03928e-05
-6.35273e-05
-1.15945e-05
-5.92434e-05
-1.285e-05
-5.45784e-05
-1.39838e-05
-4.95936e-05
-1.49436e-05
-4.43336e-05
-1.57688e-05
-3.88424e-05
-1.64583e-05
-3.3201e-05
-1.69167e-05
-2.74177e-05
-1.73434e-05
-2.15119e-05
-1.77032e-05
-1.55764e-05
-1.77907e-05
-9.68005e-06
-1.76766e-05
-3.85264e-06
-1.74762e-05
1.89944e-06
-1.72453e-05
7.48516e-06
-1.67475e-05
1.28866e-05
-1.61927e-05
1.807e-05
-1.55339e-05
2.29997e-05
-1.47742e-05
2.7632e-05
-1.38834e-05
3.19281e-05
-1.28792e-05
3.58672e-05
-1.18108e-05
3.94187e-05
-1.06491e-05
4.25682e-05
-9.4482e-06
4.53184e-05
-8.24961e-06
4.76615e-05
-7.02578e-06
4.95916e-05
-5.79353e-06
5.11046e-05
-4.54336e-06
5.22267e-05
-3.36506e-06
5.29662e-05
-2.22438e-06
5.32888e-05
-9.76411e-07
5.32589e-05
8.35099e-08
5.28972e-05
1.08087e-06
5.22227e-05
2.01931e-06
5.12613e-05
2.87915e-06
5.00387e-05
3.66214e-06
4.85816e-05
4.36448e-06
4.69247e-05
4.96668e-06
4.50737e-05
5.54951e-06
4.30629e-05
6.02945e-06
4.09335e-05
6.37622e-06
3.87143e-05
6.6521e-06
3.64018e-05
6.9356e-06
3.40306e-05
7.11185e-06
3.1635e-05
7.18291e-06
2.92352e-05
7.18941e-06
2.68431e-05
7.17096e-06
2.44783e-05
7.09025e-06
2.21625e-05
6.94027e-06
1.99248e-05
6.7125e-06
1.77515e-05
6.51728e-06
1.56689e-05
6.24204e-06
1.36988e-05
5.91068e-06
1.18258e-05
5.61732e-06
1.00649e-05
5.27888e-06
8.43051e-06
4.90438e-06
6.91064e-06
4.55989e-06
5.51325e-06
4.19019e-06
4.23252e-06
3.84144e-06
3.0667e-06
3.49819e-06
2.02762e-06
3.11714e-06
1.09772e-06
2.79988e-06
2.72733e-07
2.46629e-06
-4.50476e-07
2.16992e-06
-1.07724e-06
1.88139e-06
-1.61507e-06
1.61474e-06
-2.06502e-06
1.3509e-06
-2.43955e-06
1.12476e-06
-2.74172e-06
9.07409e-07
-2.97893e-06
7.12671e-07
-3.15611e-06
5.3234e-07
-3.27868e-06
3.68786e-07
-3.35249e-06
2.2249e-07
-3.3829e-06
9.20464e-08
-3.37328e-06
-2.80892e-08
-3.32891e-06
-1.32456e-07
-3.2549e-06
-2.20647e-07
-3.15554e-06
-2.97418e-07
-3.03395e-06
-3.63559e-07
-2.89229e-06
-4.23891e-07
-2.73569e-06
-4.70011e-07
-2.56771e-06
-5.03647e-07
-2.38942e-06
-5.34296e-07
-2.20386e-06
-5.55622e-07
-2.0158e-06
-5.63819e-07
-1.82583e-06
-5.69595e-07
-1.63466e-06
-5.73179e-07
-1.44527e-06
-5.67816e-07
-1.25959e-06
-5.56234e-07
-1.08078e-06
-5.36337e-07
-9.06109e-07
-5.2401e-07
-7.38429e-07
-5.02949e-07
-5.80235e-07
-4.7389e-07
-4.29077e-07
-4.53692e-07
-2.86795e-07
-4.26726e-07
-1.54753e-07
-3.95604e-07
-3.10628e-08
-3.71357e-07
8.26649e-08
-3.41217e-07
1.87115e-07
-3.13331e-07
2.82284e-07
-2.85491e-07
3.68584e-07
-2.58907e-07
4.46281e-07
-2.33075e-07
5.15534e-07
-2.07759e-07
5.76789e-07
-1.8381e-07
6.303e-07
-1.60582e-07
6.76305e-07
-1.38064e-07
7.15421e-07
-1.17429e-07
7.48027e-07
-9.78819e-08
7.74407e-07
-7.92183e-08
7.95276e-07
-6.26848e-08
8.10823e-07
-4.67023e-08
8.21648e-07
-3.25612e-08
8.28109e-07
-1.94459e-08
8.3049e-07
-7.22257e-09
8.29381e-07
3.2648e-09
8.24965e-07
1.31839e-08
8.1754e-07
2.22113e-08
8.07424e-07
3.02891e-08
7.94946e-07
3.73785e-08
7.80397e-07
4.35914e-08
7.64048e-07
4.89972e-08
7.46147e-07
5.36529e-08
7.26929e-07
5.76078e-08
7.06611e-07
6.09101e-08
6.85395e-07
6.36069e-08
6.63467e-07
6.5744e-08
6.41e-07
6.73659e-08
6.1815e-07
6.85161e-08
5.9506e-07
6.92358e-08
5.71862e-07
6.95646e-08
5.48673e-07
6.95403e-08
5.25599e-07
6.91985e-08
5.02733e-07
6.85733e-08
4.80161e-07
6.76965e-08
4.57955e-07
6.65984e-08
4.3618e-07
6.53073e-08
4.14892e-07
6.38498e-08
3.94137e-07
6.22506e-08
3.73955e-07
6.0533e-08
3.54379e-07
5.87179e-08
3.35434e-07
5.68255e-08
3.1714e-07
5.48734e-08
2.99512e-07
5.28785e-08
2.82558e-07
5.08553e-08
2.66284e-07
4.88178e-08
2.5069e-07
4.67776e-08
2.35773e-07
4.4746e-08
2.21528e-07
4.27322e-08
2.07946e-07
4.07448e-08
1.95015e-07
3.8791e-08
1.82723e-07
3.68772e-08
1.71053e-07
3.50086e-08
1.5999e-07
3.31899e-08
1.49515e-07
3.14244e-08
1.3961e-07
2.97155e-08
1.30256e-07
2.80651e-08
1.21431e-07
2.64751e-08
1.13116e-07
2.49465e-08
1.0529e-07
2.34802e-08
9.79318e-08
2.20761e-08
9.1021e-08
2.07343e-08
8.4537e-08
1.94541e-08
7.84594e-08
1.82349e-08
7.27682e-08
1.70756e-08
6.74439e-08
1.5975e-08
6.24674e-08
1.49316e-08
5.78202e-08
1.3944e-08
5.34841e-08
1.30102e-08
4.94419e-08
1.21287e-08
4.56768e-08
1.12975e-08
4.21725e-08
1.05147e-08
3.89137e-08
9.7784e-09
3.58854e-08
9.08662e-09
3.30736e-08
8.43733e-09
3.04646e-08
7.82865e-09
2.80457e-08
7.25857e-09
2.58044e-08
6.72525e-09
2.37294e-08
6.22673e-09
2.18094e-08
5.76126e-09
2.00342e-08
5.32699e-09
1.83939e-08
4.92224e-09
1.68792e-08
4.5453e-09
1.54815e-08
4.19459e-09
1.41923e-08
3.86852e-09
1.30041e-08
3.56564e-09
1.19096e-08
3.2845e-09
1.0902e-08
3.02376e-09
9.97495e-09
2.7821e-09
9.12245e-09
2.55831e-09
8.33898e-09
2.3512e-09
7.61933e-09
2.15968e-09
6.95867e-09
1.98267e-09
6.35247e-09
1.81921e-09
5.79656e-09
1.66834e-09
5.28701e-09
1.5292e-09
4.82021e-09
1.40093e-09
4.39277e-09
1.28279e-09
4.00158e-09
1.17401e-09
3.64374e-09
1.07395e-09
3.31656e-09
9.81928e-10
3.01756e-09
8.97372e-10
2.74443e-09
8.19708e-10
2.49506e-09
7.48425e-10
2.26748e-09
6.83026e-10
2.05988e-09
6.23067e-10
1.87059e-09
5.68117e-10
1.69807e-09
5.17789e-10
1.5409e-09
4.71716e-10
1.39777e-09
4.29562e-10
1.2675e-09
3.91009e-10
1.14896e-09
3.55772e-10
1.04115e-09
3.23578e-10
9.43138e-10
2.9418e-10
8.54064e-10
2.67348e-10
7.73147e-10
2.42869e-10
6.99668e-10
2.20546e-10
6.32968e-10
2.00199e-10
5.72445e-10
1.8166e-10
5.17547e-10
1.64778e-10
4.67769e-10
1.4941e-10
4.2265e-10
1.35428e-10
3.81768e-10
1.2271e-10
3.44738e-10
1.11149e-10
3.11208e-10
1.00642e-10
2.80859e-10
9.10968e-11
2.53398e-10
8.24285e-11
2.28558e-10
7.45608e-11
2.06097e-10
6.7422e-11
1.85793e-10
6.09476e-11
1.67444e-10
5.50777e-11
1.50868e-10
4.97578e-11
1.35897e-10
4.49375e-11
1.22381e-10
4.05714e-11
1.10183e-10
3.66179e-11
9.9176e-11
3.30395e-11
8.92481e-11
2.98019e-11
8.02956e-11
2.68738e-11
7.2225e-11
2.42267e-11
6.49513e-11
2.18347e-11
5.83975e-11
1.96739e-11
5.24937e-11
1.77225e-11
4.71768e-11
1.59608e-11
4.23897e-11
1.43706e-11
3.80807e-11
1.29355e-11
3.42029e-11
1.16409e-11
3.07141e-11
1.04734e-11
2.75759e-11
9.42093e-12
2.47536e-11
8.47248e-12
2.22159e-11
7.618e-12
1.99347e-11
6.84828e-12
1.78844e-11
6.15502e-12
1.60421e-11
5.53076e-12
1.4387e-11
4.96881e-12
1.29003e-11
4.46314e-12
1.15651e-11
4.0083e-12
1.03662e-11
3.5993e-12
9.28974e-12
3.23161e-12
8.32339e-12
2.9011e-12
7.45599e-12
2.60404e-12
6.67752e-12
2.33706e-12
5.97897e-12
2.09717e-12
5.35218e-12
1.88171e-12
4.78983e-12
1.68826e-12
4.28532e-12
1.51464e-12
3.83268e-12
1.35888e-12
3.42658e-12
1.21922e-12
3.06216e-12
1.09404e-12
2.73511e-12
9.81885e-13
2.4415e-12
8.81453e-13
2.17784e-12
7.91566e-13
1.94095e-12
7.11186e-13
1.72797e-12
6.39406e-13
1.53629e-12
5.75444e-13
1.36354e-12
5.18644e-13
1.20747e-12
4.68508e-13
1.06602e-12
4.24629e-13
3.84897e-13
-0.000153351
1.05883e-05
-0.000155261
7.54783e-06
-0.000156542
5.09236e-06
-0.000157173
2.62228e-06
-0.000157208
2.04778e-07
-0.000156629
-2.31697e-06
-0.000155367
-5.04379e-06
-0.000153471
-7.62752e-06
-0.000150907
-1.0277e-05
-0.000147453
-1.38413e-05
-0.000143203
-1.70303e-05
-0.00013813
-2.03456e-05
-0.000132063
-2.43293e-05
-0.00012508
-2.79962e-05
-0.000117051
-3.21866e-05
-0.000108056
-3.60579e-05
-9.81182e-05
-3.97577e-05
-8.71799e-05
-4.3606e-05
-7.53776e-05
-4.70022e-05
-6.28408e-05
-5.00677e-05
-4.95648e-05
-5.31011e-05
-3.57515e-05
-5.51604e-05
-2.16102e-05
-5.64641e-05
-7.20091e-06
-5.75108e-05
7.18615e-06
-5.75756e-05
2.14678e-05
-5.70479e-05
3.55258e-05
-5.61262e-05
4.91636e-05
-5.44297e-05
6.22549e-05
-5.22582e-05
7.46766e-05
-4.9611e-05
8.63011e-05
-4.64361e-05
9.71009e-05
-4.31377e-05
0.000106957
-3.93729e-05
0.000115868
-3.56025e-05
0.000123762
-3.15538e-05
0.00013056
-2.7182e-05
0.000136318
-2.29927e-05
0.000141025
-1.88169e-05
0.000144617
-1.43578e-05
0.000147141
-1.01704e-05
0.000148599
-5.73028e-06
0.00014892
-1.29356e-06
0.000148123
3.12313e-06
0.000146168
7.75445e-06
0.000143103
1.23215e-05
0.000139001
1.64054e-05
0.000133795
2.08044e-05
0.00012755
2.49575e-05
0.000120326
2.88627e-05
0.000112167
3.25935e-05
0.000103176
3.59057e-05
9.34458e-05
3.88372e-05
8.31517e-05
4.10925e-05
7.23954e-05
4.30068e-05
6.12404e-05
4.45401e-05
4.98727e-05
4.53795e-05
3.84285e-05
4.56588e-05
2.70902e-05
4.53415e-05
1.5915e-05
4.46311e-05
5.04854e-06
4.3394e-05
-5.39857e-06
4.17536e-05
-1.53694e-05
3.98184e-05
-2.47515e-05
3.74669e-05
-3.34804e-05
3.49048e-05
-4.15608e-05
3.22715e-05
-4.88884e-05
2.9285e-05
-5.54373e-05
2.62034e-05
-6.12388e-05
2.31734e-05
-6.62144e-05
1.99013e-05
-7.04574e-05
1.69592e-05
-7.39464e-05
1.39532e-05
-7.66542e-05
1.08299e-05
-7.86196e-05
7.86886e-06
-7.9887e-05
5.06755e-06
-8.04597e-05
2.3199e-06
-8.03967e-05
-2.23347e-07
-7.96999e-05
-2.77365e-06
-7.83883e-05
-5.23274e-06
-7.64509e-05
-7.72324e-06
-7.39708e-05
-9.91627e-06
-7.0919e-05
-1.21821e-05
-6.74462e-05
-1.38656e-05
-6.35678e-05
-1.5473e-05
-5.92861e-05
-1.71317e-05
-5.46159e-05
-1.8654e-05
-4.96263e-05
-1.99332e-05
-4.43611e-05
-2.1034e-05
-3.88644e-05
-2.1955e-05
-3.32164e-05
-2.25648e-05
-2.74291e-05
-2.31307e-05
-2.1517e-05
-2.36154e-05
-1.55749e-05
-2.37327e-05
-9.67118e-06
-2.35804e-05
-3.83984e-06
-2.33076e-05
1.91448e-06
-2.29997e-05
7.50431e-06
-2.23373e-05
1.29124e-05
-2.16008e-05
1.8104e-05
-2.07255e-05
2.30384e-05
-1.97086e-05
2.76738e-05
-1.85187e-05
3.19746e-05
-1.71801e-05
3.59165e-05
-1.57528e-05
3.94712e-05
-1.42037e-05
4.26226e-05
-1.25997e-05
4.53727e-05
-1.09997e-05
4.77145e-05
-9.36764e-06
4.96444e-05
-7.72343e-06
5.11568e-05
-6.05578e-06
5.22757e-05
-4.48393e-06
5.30116e-05
-2.96037e-06
5.3332e-05
-1.29674e-06
5.32981e-05
1.17318e-07
5.29341e-05
1.4449e-06
5.22565e-05
2.69685e-06
5.12924e-05
3.84327e-06
5.00665e-05
4.88806e-06
4.8605e-05
5.82595e-06
4.69454e-05
6.62623e-06
4.5093e-05
7.40195e-06
4.30807e-05
8.04175e-06
4.09447e-05
8.51221e-06
3.87215e-05
8.87523e-06
3.64092e-05
9.24795e-06
3.40371e-05
9.48392e-06
3.16392e-05
9.58081e-06