/*--------------------------------*- C++ -*----------------------------------*\
| =========                 |                                                 |
| \\      /  F ield         | OpenFOAM: The Open Source CFD Toolbox           |
|  \\    /   O peration     | Version:  3.0.1                                 |
|   \\  /    A nd           | Web:      www.OpenFOAM.org                      |
|    \\/     M anipulation  |                                                 |
\*---------------------------------------------------------------------------*/
FoamFile
{
    version     2.0;
    format      ascii;
    class       volScalarField;
    location    "93";
    object      p;
}
// * * * * * * * * * * * * * * * * * * * * * * * * * * * * * * * * * * * * * //

dimensions      [1 -1 -2 0 0 0 0];

internalField   nonuniform List<scalar> 
21420
(
4015.53
4048.27
4080.53
4111.87
4141.94
4170.21
4196.26
4219.65
4239.99
4256.95
4270.25
4279.66
4285.05
4286.19
4283.19
4276.1
4265.06
4250.17
4231.66
4209.81
4184.97
4157.5
4127.77
4096.25
4063.33
4029.45
3995
3960.4
3926.04
3892.25
3859.56
3828.03
3797.7
3768.82
3741.53
3715.96
3692.18
3670.21
3650.08
3631.76
3615.24
3600.48
3587.42
3576.04
3566.28
3558.09
3551.45
3546.31
3542.66
3540.47
3539.76
3540.55
3542.83
3546.61
3551.93
3558.81
3567.27
3577.38
3589.16
3602.65
3617.88
3634.87
3653.66
3674.22
3696.52
3720.53
3746.18
3773.36
3801.96
3831.8
3862.71
3894.69
3927.46
3960.44
3993.44
4026.13
4058.22
4089.36
4119.21
4147.42
4173.64
4197.51
4218.71
4236.92
4251.86
4263.27
4270.96
4274.78
4274.59
4270.47
4262.4
4250.48
4234.82
4215.65
4193.2
4167.76
4139.67
4109.29
4077.03
4043.31
4008.56
3973.24
3937.78
3902.6
3868.12
3834.67
3802.57
3772.08
3743.38
3716.62
3691.9
3669.26
3648.7
3630.22
3613.77
3599.3
3586.74
3576.04
3567.11
3559.9
3554.34
3550.35
3547.87
3546.84
3547.22
3549
3552.07
3556.43
3562.08
3569
3577.21
3586.74
3597.6
3609.82
3623.46
3638.55
3655.15
3673.3
3693.03
3714.36
3737.3
3761.83
3787.88
3815.38
3844.2
3874.21
3905.22
3936.99
3969.21
4001.58
4033.77
4065.4
4096.09
4125.44
4153.02
4178.44
4201.3
4221.23
4237.88
4250.97
4260.24
4265.5
4266.57
4263.53
4256.31
4245.01
4229.81
4210.94
4188.71
4163.48
4135.65
4105.65
4073.93
4040.96
4007.2
3973.1
3939.07
3905.51
3872.75
3841.08
3810.76
3781.98
3754.88
3729.57
3706.11
3684.52
3664.83
3647
3631
3616.79
3604.32
3593.52
3584.33
3576.69
3570.52
3565.76
3562.35
3560.23
3559.35
3559.7
3561.26
3564
3567.93
3573.07
3579.43
3587.03
3595.91
3606.1
3617.65
3630.59
3644.97
3660.83
3678.21
3697.14
3717.64
3739.7
3763.3
3788.4
3814.93
3842.78
3871.81
3901.85
3932.69
3964.06
3995.66
4027.17
4058.23
4088.43
4117.38
4144.64
4169.81
4192.47
4212.23
4228.76
4241.73
4250.9
4256.09
4257.11
4254.05
4246.88
4235.66
4220.6
4201.95
4180.03
4155.2
4127.88
4098.51
4067.56
4035.48
4002.73
3969.72
3936.85
3904.47
3872.89
3842.39
3813.18
3785.46
3759.36
3734.98
3712.37
3691.56
3672.57
3655.38
3639.95
3626.25
3614.22
3603.79
3594.9
3587.49
3581.51
3576.87
3573.54
3571.45
3570.59
3570.94
3572.41
3575.01
3578.72
3583.52
3589.43
3596.45
3604.6
3613.9
3624.4
3636.14
3649.18
3663.6
3679.46
3696.84
3715.81
3736.4
3758.68
3782.69
3808.42
3835.84
3864.91
3895.5
3921.92
3954.05
3986.43
4018.73
4050.52
4081.33
4110.74
4138.27
4163.47
4185.95
4205.32
4221.28
4233.56
4241.99
4246.45
4246.79
4243.1
4235.45
4224.02
4209.08
4190.93
4169.91
4146.42
4120.86
4093.63
4065.15
4035.79
4005.94
3975.91
3945.97
3916.4
3888.14
3859.97
3832.7
3806.45
3781.28
3757.27
3734.46
3712.9
3692.61
3673.64
3656.03
3639.79
3624.99
3611.65
3599.81
3589.51
3580.77
3573.64
3568.14
3564.27
3562.05
3561.52
3562.84
3565.89
3570.69
3577.21
3585.41
3595.33
3606.95
3917.42
3950.17
3982.44
4013.8
4043.89
4072.18
4098.25
4121.66
4142.01
4158.98
4172.3
4181.72
4187.11
4188.27
4185.25
4178.15
4167.11
4152.21
4133.68
4111.81
4086.96
4059.46
4029.72
3998.17
3965.24
3931.34
3896.88
3862.26
3827.89
3794.09
3761.39
3729.86
3699.52
3670.64
3643.35
3617.78
3594
3572.03
3551.9
3533.59
3517.07
3502.3
3489.25
3477.87
3468.11
3459.93
3453.29
3448.15
3444.5
3442.31
3441.61
3442.39
3444.67
3448.45
3453.77
3460.64
3469.11
3479.22
3490.99
3504.48
3519.71
3536.7
3555.48
3576.04
3598.34
3622.35
3648
3675.19
3703.79
3733.63
3764.56
3796.54
3829.32
3862.31
3895.32
3928.03
3960.13
3991.29
4021.15
4049.38
4075.61
4099.5
4120.72
4138.94
4153.89
4165.31
4173.01
4176.83
4176.65
4172.52
4164.44
4152.52
4136.85
4117.66
4095.2
4069.74
4041.63
4011.24
3978.96
3945.22
3910.45
3875.11
3839.63
3804.44
3769.94
3736.49
3704.38
3673.88
3645.18
3618.42
3593.7
3571.06
3550.51
3532.03
3515.58
3501.11
3488.56
3477.86
3468.94
3461.73
3456.17
3452.18
3449.71
3448.68
3449.07
3450.84
3453.91
3458.27
3463.92
3470.85
3479.06
3488.58
3499.43
3511.66
3525.29
3540.38
3556.98
3575.12
3594.85
3616.18
3639.12
3663.65
3689.7
3717.2
3746.03
3776.05
3807.06
3838.84
3871.07
3903.46
3935.66
3967.31
3998.02
4027.38
4054.98
4080.42
4103.3
4123.24
4139.91
4153.01
4162.29
4167.56
4168.63
4165.58
4158.36
4147.06
4131.84
4112.96
4090.71
4065.46
4037.61
4007.58
3975.85
3942.86
3909.08
3874.96
3840.92
3807.35
3774.58
3742.91
3712.58
3683.79
3656.69
3631.38
3607.92
3586.34
3566.64
3548.81
3532.82
3518.62
3506.15
3495.35
3486.17
3478.53
3472.36
3467.6
3464.19
3462.07
3461.2
3461.55
3463.11
3465.85
3469.78
3474.92
3481.27
3488.87
3497.75
3507.94
3519.48
3532.42
3546.8
3562.66
3580.04
3598.97
3619.46
3641.52
3665.12
3690.23
3716.76
3744.61
3773.65
3803.69
3834.54
3865.92
3897.54
3929.06
3960.13
3990.35
4019.32
4046.61
4071.79
4094.47
4114.25
4130.78
4143.77
4152.95
4158.15
4159.17
4156.11
4148.93
4137.7
4122.63
4103.97
4082.02
4057.17
4029.83
4000.45
3969.48
3937.38
3904.61
3871.59
3838.71
3806.31
3774.73
3744.21
3715.01
3687.28
3661.18
3636.79
3614.18
3593.38
3574.4
3557.21
3541.78
3528.08
3516.05
3505.63
3496.74
3489.34
3483.35
3478.72
3475.39
3473.3
3472.44
3472.79
3474.26
3476.86
3480.57
3485.38
3491.28
3498.3
3506.45
3515.75
3526.25
3537.98
3551.02
3565.43
3581.3
3598.67
3617.63
3638.23
3660.5
3684.51
3710.24
3737.66
3766.73
3797.33
3823.77
3855.91
3888.3
3920.62
3952.43
3983.26
4012.69
4040.25
4065.46
4087.96
4107.34
4123.31
4135.61
4144.04
4148.5
4148.86
4145.14
4137.49
4126.05
4111.1
4092.93
4071.89
4048.39
4022.81
3995.56
3967.06
3937.69
3907.83
3877.78
3847.84
3818.26
3789.99
3761.81
3734.55
3708.29
3683.12
3659.11
3636.3
3614.74
3594.45
3575.48
3557.86
3541.63
3526.83
3513.49
3501.65
3491.34
3482.61
3475.48
3469.97
3466.1
3463.88
3463.36
3464.67
3467.72
3472.52
3479.04
3487.25
3497.16
3508.78
3819.28
3852.07
3884.37
3915.76
3945.89
3974.21
4000.33
4023.77
4044.16
4061.16
4074.49
4083.93
4089.33
4090.51
4087.46
4080.37
4069.3
4054.38
4035.82
4013.92
3989.03
3961.5
3931.71
3900.13
3867.15
3833.23
3798.73
3764.09
3729.69
3695.87
3663.16
3631.61
3601.26
3572.37
3545.08
3519.51
3495.73
3473.77
3453.64
3435.33
3418.82
3404.06
3391.01
3379.64
3369.88
3361.7
3355.07
3349.93
3346.28
3344.1
3343.39
3344.18
3346.45
3350.23
3355.55
3362.42
3370.88
3380.98
3392.75
3406.24
3421.46
3438.44
3457.22
3477.78
3500.08
3524.1
3549.75
3576.94
3605.55
3635.41
3666.34
3698.34
3731.13
3764.15
3797.18
3829.92
3862.05
3893.24
3923.13
3951.39
3977.66
4001.58
4022.83
4041.08
4056.05
4067.5
4075.21
4079.04
4078.88
4074.72
4066.64
4054.7
4039.01
4019.79
3997.3
3971.81
3943.66
3913.23
3880.91
3847.13
3812.33
3776.95
3741.44
3706.23
3671.7
3638.22
3606.1
3575.59
3546.89
3520.13
3495.41
3472.77
3452.22
3433.75
3417.3
3402.84
3390.3
3379.61
3370.7
3363.5
3357.94
3353.96
3351.49
3350.47
3350.86
3352.63
3355.7
3360.06
3365.71
3372.64
3380.84
3390.36
3401.22
3413.44
3427.06
3442.15
3458.74
3476.88
3496.6
3517.93
3540.87
3565.39
3591.45
3618.96
3647.8
3677.82
3708.86
3740.65
3772.9
3805.31
3837.55
3869.23
3899.97
3929.37
3957.01
3982.48
4005.4
4025.37
4042.07
4055.2
4064.49
4069.78
4070.87
4067.79
4060.57
4049.25
4034
4015.09
3992.81
3967.52
3939.63
3909.56
3877.79
3844.76
3810.95
3776.79
3742.72
3709.13
3676.34
3644.65
3614.31
3585.52
3558.41
3533.1
3509.64
3488.06
3468.37
3450.55
3434.57
3420.37
3407.9
3397.11
3387.94
3380.3
3374.14
3369.39
3365.99
3363.87
3362.99
3363.35
3364.91
3367.65
3371.58
3376.71
3383.07
3390.67
3399.54
3409.73
3421.26
3434.2
3448.57
3464.43
3481.8
3500.73
3521.22
3543.27
3566.88
3591.98
3618.52
3646.38
3675.43
3705.49
3736.35
3767.75
3799.4
3830.95
3862.05
3892.31
3921.31
3948.63
3973.85
3996.57
4016.38
4032.95
4045.96
4055.16
4060.36
4061.4
4058.32
4051.13
4039.89
4024.79
4006.1
3984.12
3959.23
3931.85
3902.42
3871.41
3839.28
3806.48
3773.43
3740.52
3708.1
3676.5
3645.97
3616.75
3589.02
3562.92
3538.53
3515.92
3495.12
3476.14
3458.96
3443.53
3429.84
3417.82
3407.4
3398.52
3391.12
3385.14
3380.52
3377.19
3375.11
3374.26
3374.6
3376.08
3378.68
3382.38
3387.19
3393.09
3400.11
3408.26
3417.55
3428.04
3439.77
3452.8
3467.21
3483.06
3500.43
3519.38
3539.97
3562.24
3586.25
3611.97
3639.39
3668.47
3699.07
3725.59
3757.75
3790.16
3822.51
3854.35
3885.22
3914.7
3942.29
3967.55
3990.08
4009.49
4025.49
4037.81
4046.25
4050.72
4051.08
4047.34
4039.68
4028.21
4013.23
3995.03
3973.96
3950.42
3924.8
3897.52
3868.99
3839.59
3809.7
3779.63
3749.67
3720.08
3691.78
3663.6
3636.33
3610.07
3584.91
3560.89
3538.08
3516.51
3496.23
3477.26
3459.64
3443.41
3428.61
3415.26
3403.42
3393.12
3384.38
3377.25
3371.74
3367.87
3365.65
3365.13
3366.44
3369.49
3374.29
3380.81
3389.02
3398.93
3410.55
3721.13
3753.96
3786.31
3817.76
3847.94
3876.32
3902.49
3925.99
3946.42
3963.47
3976.84
3986.3
3991.71
3992.92
3989.84
3982.74
3971.64
3956.68
3938.08
3916.13
3891.19
3863.6
3833.75
3802.12
3769.08
3735.1
3700.56
3665.87
3631.43
3597.59
3564.86
3533.29
3502.93
3474.03
3446.73
3421.16
3397.38
3375.42
3355.3
3337
3320.49
3305.74
3292.71
3281.34
3271.59
3263.42
3256.78
3251.66
3248.01
3245.83
3245.12
3245.9
3248.17
3251.95
3257.26
3264.13
3272.58
3282.68
3294.44
3307.92
3323.14
3340.12
3358.89
3379.45
3401.75
3425.77
3451.43
3478.62
3507.24
3537.12
3568.08
3600.09
3632.91
3665.96
3699.03
3731.81
3763.98
3795.22
3825.15
3853.46
3879.78
3903.75
3925.04
3943.34
3958.34
3969.82
3977.56
3981.4
3981.26
3977.07
3968.98
3957.02
3941.3
3922.04
3899.5
3873.96
3845.76
3815.27
3782.9
3749.06
3714.2
3678.77
3643.21
3607.95
3573.39
3539.88
3507.74
3477.21
3448.5
3421.74
3397.02
3374.38
3353.84
3335.38
3318.95
3304.5
3291.97
3281.28
3272.38
3265.19
3259.64
3255.67
3253.21
3252.19
3252.6
3254.37
3257.44
3261.81
3267.45
3274.37
3282.58
3292.09
3302.94
3315.15
3328.77
3343.85
3360.44
3378.57
3398.28
3419.61
3442.54
3467.07
3493.13
3520.65
3549.5
3579.54
3610.59
3642.42
3674.71
3707.15
3739.43
3771.16
3801.96
3831.41
3859.1
3884.63
3907.6
3927.62
3944.37
3957.53
3966.85
3972.16
3973.27
3970.17
3962.93
3951.58
3936.31
3917.35
3895.01
3869.67
3841.71
3811.59
3779.75
3746.66
3712.8
3678.6
3644.48
3610.85
3578.03
3546.32
3515.97
3487.16
3460.05
3434.74
3411.28
3389.71
3370.02
3352.21
3336.23
3322.05
3309.59
3298.81
3289.65
3282.02
3275.87
3271.13
3267.73
3265.62
3264.75
3265.11
3266.67
3269.4
3273.33
3278.46
3284.82
3292.41
3301.28
3311.46
3322.99
3335.91
3350.28
3366.13
3383.5
3402.41
3422.9
3444.95
3468.56
3493.66
3520.21
3548.08
3577.14
3607.23
3638.11
3669.55
3701.23
3732.83
3763.98
3794.29
3823.34
3850.72
3876
3898.77
3918.64
3935.25
3948.29
3957.52
3962.74
3963.8
3960.7
3953.49
3942.22
3927.09
3908.34
3886.31
3861.36
3833.92
3804.43
3773.37
3741.18
3708.33
3675.23
3642.28
3609.83
3578.2
3547.66
3518.42
3490.68
3464.57
3440.18
3417.58
3396.78
3377.81
3360.63
3345.22
3331.53
3319.52
3309.11
3300.24
3292.85
3286.88
3282.26
3278.94
3276.86
3276.02
3276.36
3277.84
3280.45
3284.15
3288.95
3294.85
3301.87
3310.01
3319.3
3329.78
3341.5
3354.52
3368.92
3384.76
3402.12
3421.06
3441.63
3463.9
3487.9
3513.62
3541.04
3570.12
3600.74
3627.36
3659.55
3692
3724.4
3756.29
3787.22
3816.75
3844.41
3869.72
3892.3
3911.77
3927.81
3940.15
3948.61
3953.09
3953.47
3949.69
3942.01
3930.51
3915.49
3897.24
3876.11
3852.51
3826.85
3799.51
3770.92
3741.49
3711.55
3681.46
3651.47
3621.86
3593.53
3565.34
3538.07
3511.8
3486.63
3462.61
3439.8
3418.23
3397.95
3378.98
3361.36
3345.13
3330.32
3316.98
3305.13
3294.83
3286.09
3278.95
3273.44
3269.57
3267.35
3266.83
3268.14
3271.19
3275.99
3282.51
3290.72
3300.64
3312.25
3622.96
3655.85
3688.27
3719.78
3750.04
3778.49
3804.74
3828.31
3848.81
3865.92
3879.33
3888.82
3894.25
3895.47
3892.4
3885.27
3874.13
3859.12
3840.47
3818.45
3793.43
3765.76
3735.84
3704.13
3671.02
3636.97
3602.37
3567.62
3533.13
3499.24
3466.49
3434.89
3404.51
3375.6
3348.29
3322.72
3298.94
3276.99
3256.88
3238.58
3222.09
3207.35
3194.33
3182.97
3173.23
3165.07
3158.44
3153.32
3149.68
3147.5
3146.79
3147.57
3149.83
3153.61
3158.92
3165.77
3174.22
3184.31
3196.06
3209.53
3224.74
3241.71
3260.48
3281.03
3303.34
3327.36
3353.02
3380.23
3408.86
3438.76
3469.75
3501.78
3534.65
3567.75
3600.86
3633.69
3665.92
3697.22
3727.22
3755.59
3781.97
3806.01
3827.36
3845.71
3860.77
3872.29
3880.06
3883.92
3883.79
3879.59
3871.48
3859.48
3843.72
3824.41
3801.81
3776.2
3747.92
3717.36
3684.91
3650.99
3616.06
3580.56
3544.94
3509.62
3475.01
3441.46
3409.29
3378.74
3350.01
3323.25
3298.53
3275.9
3255.37
3236.92
3220.51
3206.07
3193.56
3182.89
3174
3166.82
3161.28
3157.32
3154.87
3153.87
3154.28
3156.05
3159.13
3163.5
3169.14
3176.06
3184.26
3193.77
3204.61
3216.81
3230.43
3245.49
3262.06
3280.18
3299.89
3321.21
3344.14
3368.67
3394.74
3422.26
3451.13
3481.2
3512.28
3544.15
3576.48
3608.98
3641.31
3673.11
3703.97
3733.5
3761.26
3786.87
3809.9
3830
3846.8
3860.01
3869.37
3874.7
3875.83
3872.72
3865.46
3854.07
3838.74
3819.72
3797.32
3771.9
3743.86
3713.65
3681.73
3648.57
3614.63
3580.37
3546.2
3512.52
3479.66
3447.92
3417.54
3388.72
3361.6
3336.29
3312.83
3291.27
3271.59
3253.79
3237.83
3223.65
3211.21
3200.45
3191.29
3183.68
3177.54
3172.81
3169.42
3167.32
3166.45
3166.82
3168.37
3171.11
3175.04
3180.16
3186.51
3194.1
3202.96
3213.13
3224.65
3237.57
3251.92
3267.76
3285.12
3304.03
3324.51
3346.56
3370.17
3395.28
3421.83
3449.72
3478.8
3508.91
3539.84
3571.32
3603.05
3634.7
3665.91
3696.29
3725.42
3752.88
3778.23
3801.07
3821.01
3837.68
3850.77
3860.04
3865.28
3866.36
3863.24
3856.01
3844.7
3829.51
3810.71
3788.6
3763.58
3736.05
3706.48
3675.34
3643.08
3610.16
3577
3544
3511.51
3479.84
3449.27
3420.02
3392.26
3366.14
3341.75
3319.15
3298.36
3279.39
3262.23
3246.83
3233.15
3221.15
3210.76
3201.9
3194.52
3188.56
3183.95
3180.64
3178.57
3177.74
3178.08
3179.56
3182.17
3185.88
3190.68
3196.57
3203.58
3211.72
3221
3231.47
3243.18
3256.18
3270.57
3286.4
3303.73
3322.66
3343.22
3365.47
3389.47
3415.19
3442.61
3471.69
3502.33
3529.09
3561.33
3593.82
3626.27
3658.24
3689.24
3718.86
3746.6
3771.99
3794.64
3814.17
3830.26
3842.65
3851.13
3855.61
3856
3852.2
3844.48
3832.94
3817.86
3799.54
3778.34
3754.67
3728.93
3701.53
3672.88
3643.38
3613.4
3583.25
3553.23
3523.6
3495.22
3467.03
3439.74
3413.47
3388.29
3364.28
3341.46
3319.89
3299.61
3280.64
3263.02
3246.78
3231.97
3218.63
3206.78
3196.47
3187.73
3180.59
3175.08
3171.21
3168.99
3168.46
3169.77
3172.83
3177.63
3184.15
3192.36
3202.27
3213.89
3524.77
3557.74
3590.24
3621.84
3652.18
3680.73
3707.07
3730.74
3751.33
3768.5
3781.97
3791.51
3796.95
3798.19
3795.11
3787.95
3776.77
3761.69
3742.97
3720.87
3695.76
3668
3637.98
3606.17
3572.97
3538.83
3504.15
3469.33
3434.78
3400.84
3368.05
3336.42
3306.02
3277.09
3249.77
3224.2
3200.42
3178.48
3158.37
3140.1
3123.61
3108.89
3095.88
3084.53
3074.81
3066.65
3060.04
3054.92
3051.28
3049.11
3048.4
3049.17
3051.44
3055.21
3060.51
3067.36
3075.8
3085.87
3097.61
3111.07
3126.27
3143.23
3161.99
3182.54
3204.84
3228.87
3254.55
3281.77
3310.42
3340.34
3371.37
3403.43
3436.35
3469.5
3502.68
3535.57
3567.87
3599.24
3629.32
3657.77
3684.24
3708.35
3729.79
3748.21
3763.33
3774.9
3782.71
3786.59
3786.47
3782.27
3774.13
3762.08
3746.27
3726.89
3704.21
3678.52
3650.16
3619.5
3586.95
3552.94
3517.92
3482.33
3446.62
3411.23
3376.56
3342.96
3310.75
3280.17
3251.43
3224.66
3199.95
3177.33
3156.82
3138.38
3121.98
3107.57
3095.07
3084.42
3075.55
3068.39
3062.86
3058.92
3056.48
3055.49
3055.91
3057.69
3060.77
3065.14
3070.78
3077.7
3085.9
3095.4
3106.22
3118.42
3132.01
3147.07
3163.62
3181.73
3201.43
3222.74
3245.67
3270.19
3296.27
3323.81
3352.7
3382.8
3413.91
3445.83
3478.22
3510.78
3543.19
3575.06
3606.01
3635.63
3663.49
3689.19
3712.31
3732.49
3749.36
3762.64
3772.05
3777.4
3778.55
3775.43
3768.14
3756.71
3741.32
3722.22
3699.73
3674.21
3646.07
3615.76
3583.74
3550.48
3516.45
3482.11
3447.86
3414.13
3381.22
3349.44
3319.03
3290.2
3263.07
3237.75
3214.3
3192.74
3173.08
3155.29
3139.34
3125.19
3112.76
3102.01
3092.87
3085.28
3079.15
3074.44
3071.06
3068.96
3068.11
3068.48
3070.03
3072.77
3076.69
3081.82
3088.16
3095.74
3104.59
3114.75
3126.26
3139.16
3153.5
3169.33
3186.68
3205.58
3226.05
3248.1
3271.7
3296.82
3323.39
3351.29
3380.4
3410.55
3441.51
3473.05
3504.84
3536.57
3567.86
3598.33
3627.55
3655.1
3680.55
3703.48
3723.5
3740.25
3753.4
3762.71
3767.98
3769.07
3765.95
3758.68
3747.32
3732.07
3713.19
3690.99
3665.87
3638.24
3608.57
3577.33
3544.98
3511.98
3478.74
3445.68
3413.13
3381.42
3350.81
3321.53
3293.76
3267.63
3243.24
3220.64
3199.86
3180.9
3163.75
3148.37
3134.71
3122.72
3112.34
3103.5
3096.14
3090.19
3085.59
3082.29
3080.23
3079.41
3079.75
3081.24
3083.85
3087.56
3092.35
3098.24
3105.25
3113.38
3122.65
3133.11
3144.8
3157.79
3172.15
3187.96
3205.28
3224.19
3244.73
3266.97
3290.95
3316.67
3344.09
3373.17
3403.84
3430.78
3463.06
3495.61
3528.14
3560.2
3591.3
3621.02
3648.86
3674.35
3697.09
3716.7
3732.86
3745.29
3753.81
3758.3
3758.69
3754.86
3747.1
3735.5
3720.35
3701.95
3680.66
3656.9
3631.07
3603.57
3574.84
3545.27
3515.22
3485.03
3454.96
3425.3
3396.86
3368.66
3341.36
3315.08
3289.9
3265.88
3243.06
3221.49
3201.2
3182.23
3164.61
3148.38
3133.56
3120.21
3108.36
3098.05
3089.31
3082.17
3076.65
3072.78
3070.56
3070.03
3071.34
3074.4
3079.2
3085.72
3093.93
3103.85
3115.47
3426.57
3459.63
3492.22
3523.92
3554.38
3583.04
3609.5
3633.28
3653.96
3671.22
3684.77
3694.35
3699.82
3701.07
3697.99
3690.79
3679.55
3664.41
3645.59
3623.39
3598.17
3570.3
3540.16
3508.23
3474.93
3440.68
3405.91
3371
3336.37
3302.37
3269.55
3237.88
3207.45
3178.49
3151.17
3125.59
3101.82
3079.88
3059.79
3041.53
3025.06
3010.36
2997.36
2986.03
2976.32
2968.18
2961.57
2956.47
2952.83
2950.67
2949.96
2950.72
2952.98
2956.75
2962.05
2968.88
2977.31
2987.37
2999.09
3012.53
3027.72
3044.67
3063.43
3083.97
3106.27
3130.3
3155.99
3183.23
3211.9
3241.86
3272.93
3305.02
3338.01
3371.23
3404.47
3437.44
3469.83
3501.29
3531.46
3560.01
3586.58
3610.79
3632.32
3650.83
3666.02
3677.66
3685.51
3689.42
3689.3
3685.11
3676.93
3664.83
3648.95
3629.5
3606.72
3580.93
3552.46
3521.68
3489.02
3454.9
3419.76
3384.06
3348.26
3312.78
3278.03
3244.38
3212.12
3181.52
3152.76
3125.98
3101.27
3078.66
3058.17
3039.75
3023.37
3008.98
2996.51
2985.88
2977.03
2969.88
2964.38
2960.45
2958.03
2957.05
2957.48
2959.27
2962.36
2966.73
2972.37
2979.28
2987.47
2996.96
3007.78
3019.96
3033.54
3048.58
3065.12
3083.21
3102.89
3124.19
3147.12
3171.65
3197.73
3225.29
3254.21
3284.33
3315.49
3347.48
3379.93
3412.57
3445.06
3477.03
3508.09
3537.81
3565.78
3591.59
3614.82
3635.1
3652.07
3665.41
3674.88
3680.27
3681.44
3678.32
3670.99
3659.5
3644.03
3624.84
3602.24
3576.6
3548.35
3517.91
3485.77
3452.39
3418.26
3383.81
3349.48
3315.68
3282.71
3250.88
3220.44
3191.58
3164.45
3139.13
3115.68
3094.14
3074.49
3056.72
3040.79
3026.65
3014.24
3003.51
2994.4
2986.82
2980.71
2976.01
2972.65
2970.57
2969.72
2970.09
2971.65
2974.38
2978.3
2983.42
2989.75
2997.33
3006.17
3016.31
3027.81
3040.69
3055.02
3070.83
3088.17
3107.06
3127.52
3149.56
3173.17
3198.29
3224.87
3252.8
3281.94
3312.13
3343.15
3374.75
3406.62
3438.43
3469.82
3500.39
3529.73
3557.39
3582.95
3605.99
3626.11
3642.95
3656.18
3665.54
3670.85
3671.95
3668.82
3661.51
3650.1
3634.77
3615.79
3593.48
3568.24
3540.49
3510.7
3479.34
3446.88
3413.78
3380.45
3347.31
3314.7
3282.93
3252.28
3222.97
3195.18
3169.04
3144.65
3122.05
3101.28
3082.34
3065.2
3049.83
3036.19
3024.22
3013.86
3005.04
2997.7
2991.76
2987.18
2983.89
2981.85
2981.03
2981.38
2982.88
2985.49
2989.19
2993.99
2999.87
3006.87
3014.99
3024.25
3034.69
3046.37
3059.33
3073.68
3089.46
3106.75
3125.64
3146.16
3168.38
3192.35
3218.07
3245.49
3274.58
3305.25
3332.45
3364.77
3397.39
3430.01
3462.17
3493.39
3523.23
3551.19
3576.8
3599.65
3619.36
3635.59
3648.09
3656.64
3661.15
3661.53
3657.69
3649.87
3638.19
3622.95
3604.46
3583.06
3559.19
3533.25
3505.65
3476.82
3447.16
3417.03
3386.77
3356.66
3326.96
3298.46
3270.23
3242.92
3216.63
3191.45
3167.42
3144.6
3123.03
3102.74
3083.77
3066.15
3049.91
3035.09
3021.74
3009.89
2999.57
2990.82
2983.68
2978.16
2974.28
2972.07
2971.53
2972.84
2975.9
2980.71
2987.23
2995.44
3005.35
3016.97
3328.34
3361.51
3394.22
3426.04
3456.62
3485.41
3512.01
3535.92
3556.72
3574.09
3587.71
3597.35
3602.85
3604.11
3601.03
3593.79
3582.48
3567.25
3548.34
3526.02
3500.67
3472.66
3442.39
3410.33
3376.89
3342.53
3307.64
3272.63
3237.91
3203.85
3170.98
3139.26
3108.79
3079.82
3052.48
3026.9
3003.13
2981.2
2961.13
2942.88
2926.44
2911.75
2898.78
2887.47
2877.77
2869.64
2863.05
2857.95
2854.33
2852.16
2851.45
2852.2
2854.47
2858.23
2863.52
2870.34
2878.75
2888.79
2900.5
2913.93
2929.1
2946.04
2964.78
2985.32
3007.62
3031.66
3057.36
3084.61
3113.31
3143.31
3174.43
3206.57
3239.63
3272.92
3306.25
3339.31
3371.79
3403.36
3433.65
3462.31
3488.99
3513.32
3534.95
3553.56
3568.85
3580.56
3588.46
3592.4
3592.3
3588.1
3579.88
3567.72
3551.77
3532.22
3509.34
3483.42
3454.82
3423.92
3391.12
3356.86
3321.59
3285.77
3249.86
3214.27
3179.44
3145.72
3113.41
3082.77
3053.99
3027.2
3002.5
2979.9
2959.42
2941.03
2924.68
2910.32
2897.87
2887.26
2878.44
2871.32
2865.84
2861.93
2859.52
2858.56
2859.01
2860.8
2863.89
2868.27
2873.91
2880.82
2889
2898.48
2909.28
2921.44
2935.01
2950.03
2966.55
2984.62
3004.29
3025.57
3048.49
3073.03
3099.12
3126.7
3155.64
3185.81
3217.01
3249.08
3281.6
3314.33
3346.93
3379.01
3410.19
3440.04
3468.14
3494.08
3517.44
3537.83
3554.9
3568.34
3577.87
3583.3
3584.49
3581.37
3573.99
3562.44
3546.88
3527.58
3504.86
3479.08
3450.68
3420.1
3387.82
3354.31
3320.04
3285.48
3251.05
3217.17
3184.13
3152.25
3121.77
3092.89
3065.74
3040.42
3016.98
2995.44
2975.81
2958.06
2942.15
2928.04
2915.66
2904.95
2895.85
2888.3
2882.21
2877.53
2874.19
2872.12
2871.28
2871.66
2873.22
2875.95
2879.87
2884.98
2891.3
2898.86
2907.69
2917.82
2929.3
2942.17
2956.48
2972.27
2989.59
3008.47
3028.92
3050.96
3074.56
3099.69
3126.29
3154.24
3183.42
3213.65
3244.73
3276.41
3308.37
3340.28
3371.79
3402.48
3431.94
3459.74
3485.44
3508.61
3528.85
3545.79
3559.11
3568.53
3573.88
3575
3571.85
3564.5
3553.02
3537.6
3518.51
3496.07
3470.69
3442.8
3412.86
3381.36
3348.77
3315.56
3282.13
3248.9
3216.21
3184.37
3153.68
3124.33
3096.52
3070.37
3045.97
3023.38
3002.62
2983.69
2966.57
2951.22
2937.61
2925.66
2915.32
2906.52
2899.2
2893.28
2888.72
2885.45
2883.41
2882.6
2882.96
2884.47
2887.08
2890.79
2895.58
2901.45
2908.44
2916.55
2925.8
2936.23
2947.88
2960.82
2975.14
2990.89
3008.16
3027.01
3047.5
3069.71
3093.67
3119.38
3146.81
3175.89
3206.56
3234.08
3266.44
3299.13
3331.86
3364.15
3395.51
3425.49
3453.6
3479.34
3502.32
3522.14
3538.47
3551.03
3559.63
3564.16
3564.54
3560.66
3552.78
3541.02
3525.68
3507.07
3485.55
3461.55
3435.48
3407.75
3378.8
3349.04
3318.83
3288.49
3258.31
3228.57
3200
3171.76
3144.43
3118.13
3092.93
3068.9
3046.08
3024.51
3004.22
2985.25
2967.62
2951.38
2936.56
2923.2
2911.34
2901.02
2892.27
2885.13
2879.6
2875.73
2873.51
2872.97
2874.28
2877.34
2882.14
2888.67
2896.88
2906.79
2918.42
3230.1
3263.39
3296.22
3328.18
3358.91
3387.86
3414.6
3438.67
3459.61
3477.09
3490.8
3500.51
3506.05
3507.32
3504.23
3496.95
3485.56
3470.24
3451.2
3428.75
3403.26
3375.09
3344.67
3312.45
3278.87
3244.36
3209.35
3174.22
3139.4
3105.26
3072.33
3040.56
3010.06
2981.05
2953.7
2928.12
2904.36
2882.44
2862.38
2844.16
2827.74
2813.07
2800.12
2788.83
2779.15
2771.04
2764.46
2759.38
2755.76
2753.6
2752.89
2753.64
2755.9
2759.65
2764.93
2771.73
2780.13
2790.15
2801.84
2815.25
2830.4
2847.33
2866.06
2886.59
2908.89
2932.93
2958.65
2985.92
3014.65
3044.69
3075.87
3108.06
3141.2
3174.59
3208.01
3241.17
3273.77
3305.46
3335.87
3364.66
3391.48
3415.93
3437.69
3456.42
3471.81
3483.6
3491.57
3495.55
3495.45
3491.24
3482.98
3470.76
3454.71
3435.06
3412.05
3386
3357.26
3326.2
3293.25
3258.83
3223.42
3187.46
3151.41
3115.71
3080.78
3046.97
3014.6
2983.92
2955.12
2928.33
2903.63
2881.05
2860.59
2842.22
2825.9
2811.57
2799.15
2788.58
2779.78
2772.68
2767.23
2763.34
2760.96
2760.02
2760.48
2762.28
2765.38
2769.76
2775.4
2782.3
2790.47
2799.94
2810.73
2822.87
2836.41
2851.41
2867.91
2885.96
2905.61
2926.88
2949.8
2974.33
3000.43
3028.03
3057.01
3087.22
3118.48
3150.63
3183.24
3216.08
3248.79
3281.01
3312.32
3342.32
3370.57
3396.65
3420.15
3440.68
3457.87
3471.41
3481.02
3486.51
3487.71
3484.58
3477.16
3465.53
3449.87
3430.45
3407.58
3381.65
3353.08
3322.34
3289.89
3256.22
3221.82
3187.12
3152.58
3118.59
3085.48
3053.54
3023.02
2994.11
2966.94
2941.62
2918.19
2896.67
2877.05
2859.33
2843.44
2829.35
2817
2806.32
2797.25
2789.72
2783.66
2779
2775.67
2773.62
2772.8
2773.18
2774.74
2777.47
2781.38
2786.49
2792.8
2800.35
2809.16
2819.27
2830.73
2843.58
2857.87
2873.65
2890.95
2909.8
2930.25
2952.27
2975.88
3001.02
3027.63
3055.62
3084.84
3115.13
3146.27
3178.04
3210.1
3242.13
3273.76
3304.6
3334.21
3362.16
3388.01
3411.32
3431.7
3448.76
3462.18
3471.68
3477.07
3478.21
3475.05
3467.65
3456.09
3440.57
3421.34
3398.76
3373.22
3345.16
3315.06
3283.41
3250.67
3217.32
3183.77
3150.43
3117.66
3085.75
3055
3025.61
2997.77
2971.61
2947.21
2924.63
2903.88
2884.96
2867.87
2852.54
2838.95
2827.03
2816.72
2807.94
2800.65
2794.75
2790.2
2786.95
2784.93
2784.13
2784.5
2786.02
2788.63
2792.34
2797.12
2802.99
2809.97
2818.06
2827.29
2837.7
2849.33
2862.25
2876.53
2892.26
2909.49
2928.31
2948.78
2970.96
2994.91
3020.61
3048.04
3077.13
3107.76
3135.7
3168.08
3200.85
3233.71
3266.14
3297.65
3327.8
3356.08
3381.98
3405.1
3425.05
3441.48
3454.13
3462.78
3467.32
3467.7
3463.79
3455.84
3443.98
3428.52
3409.78
3388.12
3363.97
3337.75
3309.88
3280.8
3250.92
3220.6
3190.18
3159.93
3130.14
3101.49
3073.23
3045.88
3019.56
2994.36
2970.33
2947.51
2925.93
2905.64
2886.66
2869.03
2852.79
2837.96
2824.6
2812.74
2802.42
2793.66
2786.51
2780.98
2777.1
2774.88
2774.34
2775.65
2778.71
2783.52
2790.04
2798.25
2808.17
2819.79
3131.83
3165.26
3198.24
3230.36
3261.25
3290.37
3317.29
3341.52
3362.62
3380.23
3394.05
3403.83
3409.41
3410.7
3407.6
3400.26
3388.78
3373.36
3354.19
3331.58
3305.93
3277.59
3246.99
3214.6
3180.85
3146.18
3111.03
3075.77
3040.84
3006.6
2973.62
2941.79
2911.24
2882.21
2854.84
2829.25
2805.5
2783.6
2763.56
2745.36
2728.96
2714.32
2701.4
2690.13
2680.47
2672.38
2665.82
2660.74
2657.13
2654.98
2654.27
2655.01
2657.27
2661.02
2666.28
2673.06
2681.44
2691.45
2703.11
2716.5
2731.63
2748.54
2767.26
2787.79
2810.08
2834.13
2859.86
2887.16
2915.92
2946.01
2977.24
3009.51
3042.74
3076.22
3109.75
3143.03
3175.75
3207.57
3238.13
3267.07
3294.03
3318.64
3340.54
3359.4
3374.9
3386.79
3394.83
3398.85
3398.77
3394.55
3386.24
3373.94
3357.8
3338.02
3314.87
3288.67
3259.76
3228.53
3195.4
3160.82
3125.23
3089.11
3052.91
3017.08
2982.04
2948.14
2915.7
2884.98
2856.15
2829.35
2804.66
2782.1
2761.66
2743.33
2727.04
2712.74
2700.36
2689.82
2681.05
2673.98
2668.56
2664.69
2662.33
2661.42
2661.89
2663.71
2666.82
2671.2
2676.84
2683.73
2691.89
2701.35
2712.12
2724.24
2737.76
2752.73
2769.2
2787.23
2806.85
2828.11
2851.02
2875.56
2901.67
2929.3
2958.31
2988.57
3019.89
3052.15
3084.85
3117.8
3150.65
3183.01
3214.48
3244.64
3273.06
3299.31
3322.98
3343.66
3360.98
3374.64
3384.34
3389.87
3391.1
3387.96
3380.49
3368.78
3353
3333.43
3310.4
3284.29
3255.54
3224.61
3191.98
3158.14
3123.57
3088.73
3054.05
3019.96
2986.76
2954.75
2924.18
2895.24
2868.06
2842.73
2819.31
2797.81
2778.21
2760.51
2744.65
2730.6
2718.27
2707.62
2698.58
2691.08
2685.05
2680.41
2677.11
2675.07
2674.26
2674.65
2676.21
2678.94
2682.85
2687.94
2694.25
2701.78
2710.58
2720.67
2732.11
2744.93
2759.2
2774.95
2792.23
2811.07
2831.5
2853.52
2877.12
2902.28
2928.91
2956.92
2986.19
3016.54
3047.77
3079.64
3111.81
3143.97
3175.75
3206.74
3236.52
3264.64
3290.66
3314.14
3334.68
3351.88
3365.41
3374.99
3380.43
3381.59
3378.42
3370.96
3359.31
3343.67
3324.3
3301.55
3275.83
3247.59
3217.3
3185.46
3152.56
3119.06
3085.38
3051.93
3019.05
2987.06
2956.25
2926.82
2898.95
2872.77
2848.37
2825.79
2805.06
2786.16
2769.09
2753.79
2740.23
2728.33
2718.05
2709.3
2702.03
2696.16
2691.64
2688.4
2686.4
2685.62
2686
2687.52
2690.14
2693.84
2698.62
2704.48
2711.45
2719.53
2728.74
2739.13
2750.73
2763.61
2777.87
2793.55
2810.75
2829.54
2849.97
2872.13
2896.06
2921.76
2949.19
2978.28
3008.86
3037.28
3069.68
3102.55
3135.54
3168.14
3199.83
3230.17
3258.63
3284.7
3307.99
3328.09
3344.64
3357.38
3366.09
3370.66
3371.02
3367.07
3359.04
3347.07
3331.49
3312.6
3290.77
3266.45
3240.07
3212.04
3182.81
3152.8
3122.36
3091.84
3061.51
3031.66
3002.93
2974.64
2947.27
2920.94
2895.73
2871.69
2848.87
2827.29
2806.99
2788.02
2770.39
2754.14
2739.31
2725.94
2714.07
2703.74
2694.98
2687.82
2682.29
2678.41
2676.19
2675.64
2676.95
2680.01
2684.82
2691.35
2699.56
2709.48
2721.1
3033.55
3067.13
3100.28
3132.56
3163.63
3192.94
3220.06
3244.48
3265.75
3283.51
3297.45
3307.31
3312.94
3314.25
3311.13
3303.73
3292.16
3276.61
3257.3
3234.52
3208.69
3180.16
3149.35
3116.77
3082.84
3048
3012.68
2977.28
2942.21
2907.88
2874.84
2842.95
2812.35
2783.28
2755.89
2730.3
2706.55
2684.67
2664.65
2646.47
2630.11
2615.5
2602.6
2591.36
2581.73
2573.66
2567.11
2562.05
2558.45
2556.3
2555.6
2556.33
2558.58
2562.32
2567.57
2574.33
2582.69
2592.67
2604.31
2617.67
2632.78
2649.67
2668.38
2688.9
2711.2
2735.25
2761
2788.32
2817.12
2847.26
2878.55
2910.9
2944.24
2977.82
3011.47
3044.88
3077.74
3109.71
3140.44
3169.53
3196.66
3221.43
3243.49
3262.5
3278.13
3290.12
3298.24
3302.31
3302.25
3298.01
3289.65
3277.27
3261.01
3241.1
3217.8
3191.42
3162.33
3130.91
3097.58
3062.81
3027.03
2990.73
2954.37
2918.39
2883.22
2849.23
2816.72
2785.94
2757.09
2730.28
2705.59
2683.05
2662.65
2644.35
2628.1
2613.83
2601.49
2590.98
2582.25
2575.22
2569.82
2565.99
2563.65
2562.76
2563.26
2565.08