/*--------------------------------*- C++ -*----------------------------------*\
| =========                 |                                                 |
| \\      /  F ield         | OpenFOAM: The Open Source CFD Toolbox           |
|  \\    /   O peration     | Version:  3.0.1                                 |
|   \\  /    A nd           | Web:      www.OpenFOAM.org                      |
|    \\/     M anipulation  |                                                 |
\*---------------------------------------------------------------------------*/
FoamFile
{
    version     2.0;
    format      ascii;
    class       volScalarField;
    location    "29.6";
    object      p;
}
// * * * * * * * * * * * * * * * * * * * * * * * * * * * * * * * * * * * * * //

dimensions      [1 -1 -2 0 0 0 0];

internalField   nonuniform List<scalar> 
21420
(
3524.29
3528.79
3534.71
3542.08
3550.91
3561.27
3573.2
3586.76
3601.99
3618.93
3637.6
3658.03
3680.21
3704.12
3729.72
3756.92
3785.63
3815.69
3846.8
3878.93
3911.78
3945.01
3978.27
4011.24
4043.52
4074.72
4104.42
4132.2
4157.71
4180.57
4200.41
4216.97
4229.98
4239.25
4244.64
4245.99
4242.83
4235.66
4224.63
4209.8
4191.39
4169.68
4144.94
4117.5
4087.78
4056.15
4023.02
3988.82
3953.96
3918.82
3883.78
3849.16
3815.25
3784.71
3753.21
3723.25
3694.94
3668.39
3643.68
3620.86
3599.92
3580.86
3563.64
3548.23
3534.57
3522.61
3512.29
3503.57
3496.4
3490.73
3486.51
3483.62
3482.03
3482.31
3484.1
3487.33
3491.98
3498.08
3505.63
3514.64
3525.13
3537.13
3550.64
3565.69
3582.28
3600.45
3620.17
3641.42
3664.19
3688.45
3714.11
3741.13
3769.3
3798.62
3828.91
3859.94
3891.44
3923.11
3954.62
3985.63
4015.75
4044.61
4071.79
4096.92
4119.6
4139.48
4156.23
4169.55
4179.2
4184.98
4186.69
4184.37
4177.94
4167.5
4153.13
4135.06
4113.54
4088.88
4061.46
4031.69
4000
3966.86
3932.71
3898.04
3863.27
3828.84
3795.12
3762.45
3731.15
3701.4
3673.4
3647.29
3623.14
3601
3580.88
3562.76
3546.61
3532.36
3519.93
3509.26
3500.24
3492.8
3486.84
3482.27
3479.03
3477.01
3476.19
3476.53
3477.97
3480.48
3484.07
3488.75
3494.52
3501.42
3509.48
3518.76
3529.31
3541.19
3554.47
3569.21
3585.46
3603.27
3622.67
3643.68
3666.3
3690.5
3716.24
3743.45
3772.1
3801.87
3832.65
3864.23
3896.32
3928.62
3960.76
3992.37
4023.04
4052.34
4079.84
4105.12
4127.77
4147.4
4163.71
4176.38
4185.21
4190.01
4190.66
4187.21
4179.73
4168.27
4153.07
4134.38
4112.53
4087.88
4060.84
4031.83
4001.3
3969.69
3937.47
3905.03
3872.78
3841.07
3810.21
3780.46
3752.02
3725.06
3699.69
3675.99
3653.99
3633.7
3615.12
3598.21
3582.94
3569.24
3557.07
3546.37
3537.08
3529.15
3522.54
3517.19
3513.07
3510.13
3508.37
3507.81
3508.37
3510.09
3512.99
3517.09
3522.44
3529.06
3537.01
3546.36
3557.14
3569.42
3583.25
3598.69
3615.75
3634.48
3654.87
3676.94
3700.64
3725.92
3752.69
3780.84
3810.32
3840.75
3872
3903.83
3935.93
3967.98
3999.62
4030.47
4060.12
4088.18
4114.23
4137.88
4158.75
4176.52
4190.87
4201.57
4208.43
4211.23
4210.07
4204.89
4195.71
4182.71
4166.1
4146.15
4123.19
4097.61
4069.8
4040.21
4009.26
3977.41
3945.16
3912.96
3881.24
3851.23
3823.86
3797.45
3772.08
3748.14
3725.8
3705.16
3686.22
3668.99
3653.39
3639.36
3626.8
3615.64
3605.77
3597.13
3589.66
3583.29
3578.01
3573.78
3570.62
3568.51
3567.55
3567.75
3569.32
3572.2
3576.48
3582.21
3589.43
3598.21
3608.58
3620.63
3634.41
3649.97
3667.35
3686.58
3707.63
3730.49
3755.1
3781.33
3809.08
3838.14
3868.21
3899.2
3930.87
3962.91
3995.05
4026.92
4058.21
4088.56
4117.61
4145.05
4170.56
4193.8
4214.52
4232.43
4247.3
4258.93
4267.17
4271.89
4272.89
4270.28
4264.08
4254.32
4241.16
4224.78
4205.41
4183.32
4158.79
4132.14
4103.73
4073.89
4042.99
4011.43
3979.61
3947.96
3916.99
3888.91
3862.18
3835.11
3809.12
3426.13
3430.63
3436.56
3443.92
3452.75
3463.11
3475.03
3488.59
3503.82
3520.75
3539.42
3559.85
3582.03
3605.94
3631.54
3658.74
3687.45
3717.52
3748.64
3780.78
3813.63
3846.88
3880.16
3913.14
3945.44
3976.65
4006.37
4034.17
4059.7
4082.57
4102.43
4119
4132.02
4141.3
4146.69
4148.06
4144.88
4137.71
4126.67
4111.83
4093.41
4071.69
4046.93
4019.48
3989.73
3958.08
3924.93
3890.72
3855.84
3820.69
3785.64
3751.01
3717.1
3686.52
3655.03
3625.06
3596.75
3570.2
3545.5
3522.67
3501.74
3482.68
3465.47
3450.05
3436.4
3424.44
3414.13
3405.41
3398.24
3392.57
3388.35
3385.46
3383.88
3384.16
3385.95
3389.18
3393.83
3399.93
3407.48
3416.48
3426.98
3438.97
3452.48
3467.53
3484.12
3502.29
3522
3543.25
3566.02
3590.28
3615.94
3642.96
3671.14
3700.46
3730.75
3761.79
3793.3
3824.99
3856.52
3887.54
3917.68
3946.55
3973.75
3998.89
4021.6
4041.49
4058.26
4071.59
4081.25
4087.04
4088.76
4086.43
4079.99
4069.55
4055.17
4037.08
4015.54
3990.87
3963.43
3933.64
3901.93
3868.77
3834.6
3799.91
3765.13
3730.68
3696.95
3664.28
3632.97
3603.21
3575.21
3549.09
3524.95
3502.81
3482.69
3464.58
3448.43
3434.18
3421.76
3411.09
3402.08
3394.64
3388.68
3384.12
3380.88
3378.86
3378.04
3378.39
3379.82
3382.33
3385.93
3390.61
3396.38
3403.27
3411.33
3420.61
3431.15
3443.03
3456.31
3471.04
3487.29
3505.1
3524.49
3545.5
3568.12
3592.33
3618.07
3645.28
3673.93
3703.7
3734.5
3766.09
3798.19
3830.5
3862.66
3894.28
3924.97
3954.29
3981.81
4007.11
4029.77
4049.43
4065.74
4078.43
4087.26
4092.07
4092.72
4089.27
4081.78
4070.31
4055.1
4036.39
4014.52
3989.85
3962.79
3933.76
3903.21
3871.59
3839.35
3806.9
3774.63
3742.91
3712.04
3682.29
3653.84
3626.88
3601.51
3577.81
3555.81
3535.53
3516.95
3500.04
3484.77
3471.08
3458.91
3448.21
3438.92
3431
3424.39
3419.04
3414.92
3411.98
3410.23
3409.66
3410.22
3411.94
3414.84
3418.94
3424.28
3430.9
3438.86
3448.2
3458.98
3471.26
3485.09
3500.51
3517.58
3536.3
3556.7
3578.76
3602.46
3627.74
3654.52
3682.68
3712.16
3742.59
3773.86
3805.69
3837.81
3869.87
3901.53
3932.39
3962.06
3990.14
4016.21
4039.87
4060.77
4078.54
4092.91
4103.62
4110.48
4113.29
4112.13
4106.94
4097.75
4084.74
4068.12
4048.15
4025.18
3999.57
3971.75
3942.14
3911.17
3879.31
3847.04
3814.81
3783.09
3753.09
3725.71
3699.29
3673.92
3649.97
3627.63
3606.98
3588.05
3570.82
3555.23
3541.2
3528.65
3517.48
3507.62
3498.99
3491.51
3485.15
3479.86
3475.64
3472.47
3470.37
3469.41
3469.6
3471.17
3474.05
3478.33
3484.05
3491.27
3500.04
3510.41
3522.46
3536.24
3551.79
3569.17
3588.4
3609.45
3632.31
3656.92
3683.16
3710.91
3739.98
3770.06
3801.05
3832.73
3864.78
3896.93
3928.82
3960.13
3990.49
4019.55
4047.01
4072.53
4095.79
4116.52
4134.45
4149.32
4160.96
4169.2
4173.93
4174.94
4172.32
4166.11
4156.35
4143.18
4126.78
4107.41
4085.3
4060.76
4034.09
4005.66
3975.81
3944.9
3913.32
3881.48
3849.83
3818.84
3790.76
3764.01
3736.93
3710.94
3327.92
3332.42
3338.34
3345.7
3354.53
3364.88
3376.8
3390.35
3405.58
3422.5
3441.16
3461.59
3483.77
3507.68
3533.28
3560.49
3589.21
3619.29
3650.42
3682.57
3715.45
3748.71
3782.02
3815.04
3847.37
3878.62
3908.37
3936.21
3961.77
3984.68
4004.57
4021.16
4034.21
4043.5
4048.9
4050.29
4047.08
4039.91
4028.86
4014
3995.55
3973.8
3949
3921.52
3891.73
3860.05
3826.86
3792.61
3757.71
3722.53
3687.45
3652.81
3618.9
3588.24
3556.76
3526.8
3498.48
3471.93
3447.23
3424.41
3403.48
3384.42
3367.21
3351.81
3338.16
3326.2
3315.9
3307.19
3300.02
3294.35
3290.14
3287.25
3285.69
3285.96
3287.75
3290.98
3295.63
3301.72
3309.28
3318.28
3328.77
3340.76
3354.27
3369.31
3385.89
3404.06
3423.77
3445.01
3467.78
3492.03
3517.7
3544.72
3572.91
3602.23
3632.55
3663.61
3695.14
3726.85
3758.41
3789.46
3819.63
3848.54
3875.77
3900.95
3923.69
3943.62
3960.41
3973.77
3983.45
3989.25
3991
3988.63
3982.2
3971.74
3957.35
3939.23
3917.66
3892.95
3865.48
3835.64
3803.89
3770.69
3736.48
3701.75
3666.94
3632.47
3598.72
3566.02
3534.7
3504.94
3476.93
3450.81
3426.66
3404.53
3384.42
3366.31
3350.17
3335.93
3323.51
3312.85
3303.85
3296.42
3290.47
3285.91
3282.67
3280.67
3279.86
3280.2
3281.63
3284.15
3287.74
3292.42
3298.18
3305.08
3313.13
3322.4
3332.94
3344.81
3358.08
3372.81
3389.05
3406.86
3426.25
3447.26
3469.87
3494.08
3519.83
3547.04
3575.69
3605.48
3636.29
3667.9
3700.03
3732.36
3764.55
3796.21
3826.94
3856.29
3883.85
3909.18
3931.88
3951.57
3967.92
3980.63
3989.48
3994.3
3994.94
3991.48
3983.98
3972.49
3957.25
3938.52
3916.61
3891.9
3864.8
3835.73
3805.14
3773.48
3741.21
3708.73
3676.44
3644.69
3613.81
3584.04
3555.59
3528.62
3503.25
3479.55
3457.55
3437.27
3418.7
3401.8
3386.53
3372.85
3360.69
3350
3340.71
3332.79
3326.18
3320.84
3316.72
3313.79
3312.04
3311.46
3312.03
3313.75
3316.64
3320.74
3326.08
3332.69
3340.64
3349.98
3360.75
3373.02
3386.85
3402.27
3419.33
3438.05
3458.45
3480.51
3504.21
3529.5
3556.28
3584.44
3613.93
3644.38
3675.67
3707.53
3739.66
3771.76
3803.44
3834.34
3864.05
3892.16
3918.27
3941.97
3962.89
3980.7
3995.09
4005.81
4012.69
4015.52
4014.33
4009.14
3999.94
3986.91
3970.26
3950.26
3927.25
3901.61
3873.74
3844.09
3813.09
3781.19
3748.89
3716.62
3684.87
3654.91
3627.52
3601.07
3575.68
3551.73
3529.38
3508.74
3489.81
3472.59
3457
3442.98
3430.43
3419.28
3409.42
3400.79
3393.32
3386.96
3381.68
3377.46
3374.29
3372.19
3371.22
3371.41
3372.97
3375.84
3380.12
3385.84
3393.05
3401.81
3412.18
3424.22
3437.99
3453.54
3470.92
3490.14
3511.19
3534.05
3558.67
3584.91
3612.67
3641.75
3671.85
3702.85
3734.56
3766.63
3798.81
3830.72
3862.05
3892.44
3921.54
3949.03
3974.58
3997.87
4018.62
4036.57
4051.47
4063.12
4071.37
4076.1
4077.13
4074.5
4068.28
4058.5
4045.31
4028.9
4009.49
3987.36
3962.79
3936.09
3907.63
3877.75
3846.8
3815.2
3783.33
3751.65
3720.64
3692.55
3665.78
3638.68
3612.67
3229.66
3234.15
3240.07
3247.42
3256.24
3266.59
3278.5
3292.04
3307.26
3324.17
3342.83
3363.25
3385.43
3409.34
3434.94
3462.16
3490.88
3520.98
3552.13
3584.31
3617.22
3650.52
3683.87
3716.94
3749.31
3780.61
3810.42
3838.32
3863.93
3886.89
3906.83
3923.46
3936.54
3945.85
3951.27
3952.68
3949.44
3942.26
3931.19
3916.3
3897.82
3876.01
3851.17
3823.63
3793.79
3762.05
3728.81
3694.51
3659.56
3624.33
3589.22
3554.55
3520.65
3489.88
3458.41
3428.45
3400.13
3373.57
3348.87
3326.05
3305.13
3286.08
3268.89
3253.49
3239.85
3227.9
3217.61
3208.9
3201.74
3196.08
3191.86
3188.99
3187.44
3187.72
3189.5
3192.73
3197.38
3203.47
3211.02
3220.02
3230.5
3242.49
3255.99
3271.02
3287.6
3305.76
3325.46
3346.7
3369.46
3393.72
3419.39
3446.42
3474.61
3503.95
3534.29
3565.37
3596.94
3628.68
3660.29
3691.39
3721.61
3750.57
3777.86
3803.09
3825.88
3845.86
3862.69
3876.09
3885.8
3891.62
3893.39
3891.01
3884.57
3874.09
3859.66
3841.5
3819.89
3795.12
3767.59
3737.69
3705.88
3672.62
3638.36
3603.57
3568.72
3534.2
3500.41
3467.69
3436.35
3406.57
3378.55
3352.43
3328.29
3306.16
3286.06
3267.96
3251.82
3237.6
3225.2
3214.55
3205.56
3198.14
3192.2
3187.65
3184.42
3182.43
3181.62
3181.97
3183.4
3185.92
3189.51
3194.19
3199.95
3206.84
3214.89
3224.15
3234.68
3246.54
3259.8
3274.52
3290.75
3308.54
3327.93
3348.93
3371.55
3395.75
3421.51
3448.73
3477.39
3507.2
3538.03
3569.67
3601.83
3634.2
3666.44
3698.15
3728.93
3758.34
3785.96
3811.35
3834.1
3853.84
3870.23
3882.97
3891.84
3896.69
3897.33
3893.85
3886.34
3874.82
3859.53
3840.75
3818.79
3794.02
3766.86
3737.73
3707.09
3675.38
3643.05
3610.52
3578.19
3546.42
3515.51
3485.72
3457.26
3430.28
3404.91
3381.21
3359.22
3338.94
3320.38
3303.49
3288.23
3274.56
3262.4
3251.72
3242.45
3234.53
3227.93
3222.59
3218.48
3215.55
3213.8
3213.23
3213.79
3215.51
3218.4
3222.49
3227.82
3234.43
3242.37
3251.7
3262.46
3274.73
3288.54
3303.96
3321.01
3339.73
3360.12
3382.18
3405.88
3431.17
3457.96
3486.14
3515.65
3546.12
3577.43
3609.32
3641.5
3673.63
3705.37
3736.32
3766.08
3794.25
3820.41
3844.16
3865.13
3882.98
3897.41
3908.16
3915.06
3917.9
3916.7
3911.5
3902.27
3889.21
3872.51
3852.46
3829.4
3803.71
3775.78
3746.08
3715.02
3683.07
3650.71
3618.39
3586.6
3556.7
3529.27
3502.79
3477.38
3453.42
3431.07
3410.42
3391.5
3374.29
3358.71
3344.7
3332.16
3321.02
3311.17
3302.55
3295.09
3288.73
3283.45
3279.23
3276.06
3273.96
3272.99
3273.17
3274.71
3277.59
3281.86
3287.56
3294.77
3303.52
3313.88
3325.91
3339.67
3355.21
3372.58
3391.8
3412.85
3435.72
3460.33
3486.59
3514.36
3543.46
3573.58
3604.61
3636.34
3668.45
3700.66
3732.62
3763.99
3794.43
3823.57
3851.1
3876.7
3900.03
3920.83
3938.81
3953.74
3965.42
3973.68
3978.42
3979.47
3976.83
3970.59
3960.79
3947.57
3931.12
3911.68
3889.5
3864.88
3838.14
3809.63
3779.7
3748.71
3717.06
3685.15
3653.43
3622.39
3594.3
3567.47
3540.36
3514.33
3131.34
3135.82
3141.74
3149.08
3157.89
3168.23
3180.13
3193.66
3208.87
3225.77
3244.42
3264.83
3287.01
3310.92
3336.53
3363.75
3392.49
3422.6
3453.79
3486
3518.95
3552.3
3585.71
3618.83
3651.27
3682.64
3712.53
3740.49
3766.18
3789.2
3809.2
3825.89
3839.01
3848.36
3853.79
3855.21
3851.97
3844.77
3833.66
3818.73
3800.2
3778.33
3753.43
3725.81
3695.9
3664.09
3630.77
3596.4
3561.39
3526.11
3490.95
3456.25
3422.34
3391.44
3359.98
3330.01
3301.69
3275.13
3250.43
3227.62
3206.7
3187.67
3170.48
3155.1
3141.47
3129.54
3119.25
3110.55
3103.41
3097.75
3093.53
3090.67
3089.14
3089.42
3091.2
3094.43
3099.08
3105.16
3112.71
3121.7
3132.18
3144.16
3157.66
3172.68
3189.25
3207.4
3227.09
3248.32
3271.08
3295.33
3321.01
3348.05
3376.25
3405.61
3435.97
3467.1
3498.7
3530.5
3562.16
3593.33
3623.61
3652.64
3680
3705.31
3728.16
3748.21
3765.1
3778.55
3788.3
3794.14
3795.94
3793.55
3787.1
3776.58
3762.12
3743.9
3722.22
3697.38
3669.77
3639.8
3607.9
3574.56
3540.22
3505.37
3470.45
3435.88
3402.04
3369.29
3337.91
3308.12
3280.09
3253.97
3229.82
3207.7
3187.61
3169.52
3153.4
3139.19
3126.81
3116.18
3107.2
3099.8
3093.88
3089.34
3086.13
3084.14
3083.35
3083.69
3085.13
3087.65
3091.24
3095.91
3101.67
3108.55
3116.59
3125.84
3136.36
3148.21
3161.45
3176.16
3192.38
3210.16
3229.54
3250.54
3273.15
3297.36
3323.12
3350.35
3379.02
3408.85
3439.72
3471.39
3503.6
3536.02
3568.32
3600.1
3630.95
3660.44
3688.14
3713.6
3736.43
3756.23
3772.68
3785.47
3794.37
3799.23
3799.89
3796.39
3788.84
3777.28
3761.94
3743.09
3721.06
3696.22
3668.98
3639.77
3609.05
3577.26
3544.87
3512.28
3479.9
3448.09
3417.14
3387.33
3358.85
3331.87
3306.49
3282.79
3260.8
3240.54
3221.99
3205.11
3189.86
3176.2
3164.06
3153.39
3144.13
3136.22
3129.63
3124.29
3120.18
3117.26
3115.52
3114.94
3115.5
3117.22
3120.11
3124.19
3129.52
3136.12
3144.04
3153.36
3164.11
3176.37
3190.17
3205.58
3222.62
3241.33
3261.71
3283.77
3307.48
3332.78
3359.58
3387.77
3417.31
3447.81
3479.15
3511.09
3543.31
3575.51
3607.3
3638.32
3668.16
3696.39
3722.63
3746.45
3767.49
3785.4
3799.87
3810.66
3817.57
3820.45
3819.23
3814.01
3804.75
3791.64
3774.89
3754.77
3731.64
3705.87
3677.87
3648.09
3616.96
3584.94
3552.51
3520.11
3488.27
3458.45
3430.98
3404.46
3379.01
3355.03
3332.68
3312.04
3293.12
3275.92
3260.35
3246.36
3233.84
3222.71
3212.87
3204.26
3196.81
3190.46
3185.18
3180.96
3177.8
3175.7
3174.71
3174.88
3176.41
3179.28
3183.54
3189.24
3196.43
3205.17
3215.51
3227.53
3241.27
3256.8
3274.16
3293.38
3314.42
3337.3
3361.92
3388.19
3415.98
3445.1
3475.25
3506.32
3538.09
3570.24
3602.51
3634.52
3665.95
3696.45
3725.64
3753.24
3778.89
3802.28
3823.13
3841.16
3856.13
3867.84
3876.13
3880.88
3881.95
3879.3
3873.04
3863.2
3849.95
3833.45
3813.95
3791.72
3767.04
3740.24
3711.67
3681.68
3650.63
3618.92
3586.95
3555.18
3524.1
3495.98
3469.09
3441.95
3415.91
3032.96
3037.44
3043.35
3050.68
3059.48
3069.8
3081.69
3095.21
3110.4
3127.3
3145.93
3166.34
3188.51
3212.42
3238.03
3265.26
3294.01
3324.15
3355.38
3387.63
3420.64
3454.05
3487.52
3520.72
3553.25
3584.71
3614.68
3642.74
3668.51
3691.62
3711.7
3728.45
3741.62
3751.01
3756.46
3757.89
3754.66
3747.44
3736.28
3721.3
3702.7
3680.76
3655.77
3628.06
3598.06
3566.15
3532.75
3498.29
3463.2
3427.85
3392.63
3357.89
3323.97
3292.92
3261.47
3231.49
3203.16
3176.61
3151.91
3129.1
3108.19
3089.17
3072
3056.63
3043.02
3031.1
3020.83
3012.15
3005.01
2999.36
2995.15
2992.3
2990.79
2991.07
2992.85
2996.08
3000.72
3006.81
3014.35
3023.34
3033.81
3045.78
3059.26
3074.28
3090.83
3108.97
3128.65
3149.87
3172.62
3196.87
3222.56
3249.61
3277.82
3307.2
3337.61
3368.78
3400.44
3432.3
3464.03
3495.27
3525.64
3554.76
3582.21
3607.6
3630.55
3650.67
3667.64
3681.15
3690.95
3696.83
3698.64
3696.26
3689.78
3679.23
3664.71
3646.43
3624.66
3599.74
3572.02
3541.95
3509.95
3476.51
3442.08
3407.14
3372.13
3337.49
3303.6
3270.8
3239.39
3209.57
3181.53
3155.4
3131.27
3109.15
3089.07
3071
3054.9
3040.71
3028.35
3017.74
3008.79
3001.4
2995.5
2990.98
2987.78
2985.8
2985.02
2985.37
2986.82
2989.34
2992.93
2997.59
3003.34
3010.21
3018.24
3027.48
3037.98
3049.81
3063.04
3077.73
3093.94
3111.71
3131.08
3152.07
3174.68
3198.89
3224.65
3251.9
3280.58
3310.44
3341.35
3373.07
3405.33
3437.83
3470.2
3502.07
3533.01
3562.59
3590.38
3615.94
3638.86
3658.75
3675.26
3688.11
3697.05
3701.93
3702.6
3699.09
3691.5
3679.89
3664.48
3645.55
3623.43
3598.49
3571.15
3541.84
3511.02
3479.15
3446.67
3414.01
3381.56
3349.69
3318.71
3288.87
3260.37
3233.37
3207.99
3184.29
3162.31
3142.06
3123.52
3106.66
3091.43
3077.78
3065.66
3055
3045.75
3037.86
3031.27
3025.95
3021.85
3018.93
3017.19
3016.61
3017.17
3018.89
3021.77
3025.84
3031.16
3037.75
3045.66
3054.96
3065.7
3077.94
3091.73
3107.12
3124.15
3142.85
3163.23
3185.29
3209
3234.31
3261.12
3289.33
3318.9
3349.44
3380.83
3412.82
3445.11
3477.37
3509.25
3540.35
3570.27
3598.6
3624.93
3648.84
3669.96
3687.94
3702.48
3713.31
3720.25
3723.14
3721.93
3716.67
3707.37
3694.2
3677.38
3657.18
3633.96
3608.1
3580.01
3550.14
3518.92
3486.81
3454.28
3421.78
3389.87
3360.16
3332.64
3306.06
3280.58
3256.58
3234.21
3213.58
3194.67
3177.48
3161.93
3147.96
3135.46
3124.34
3114.53
3105.93
3098.48
3092.14
3086.87
3082.65
3079.48
3077.39
3076.39
3076.54
3078.06
3080.92
3085.17
3090.85
3098.02
3106.75
3117.07
3129.07
3142.8
3158.32
3175.67
3194.88
3215.92
3238.8
3263.43
3289.72
3317.53
3346.68
3376.87
3407.98
3439.8
3472.01
3504.34
3536.41
3567.92
3598.49
3627.76
3655.43
3681.16
3704.62
3725.53
3743.63
3758.65
3770.4
3778.72
3783.48
3784.57
3781.91
3775.62
3765.75
3752.44
3735.89
3716.32
3694.02
3669.27
3642.38
3613.74
3583.67
3552.54
3520.76
3488.71
3456.88
3425.76
3397.61
3370.65
3343.48
3317.4
2934.53
2939.01
2944.9
2952.22
2961.01
2971.32
2983.19
2996.69
3011.86
3028.74
3047.37
3067.76
3089.92
3113.83
3139.45
3166.69
3195.47
3225.63
3256.91
3289.21
3322.28
3355.76
3389.32
3422.61
3455.24
3486.8
3516.88
3545.05
3570.93
3594.14
3614.31
3631.14
3644.38
3653.82
3659.3
3660.73
3657.5
3650.25
3639.04
3624
3605.33
3583.29
3558.2
3530.39
3500.27
3468.25
3434.74
3400.18
3364.99
3329.56
3294.27
3259.47
3225.54
3194.33
3162.88
3132.89
3104.55
3077.99
3053.29
3030.5
3009.6
2990.6
2973.44
2958.09
2944.5
2932.6
2922.34
2913.68
2906.55
2900.91
2896.72
2893.88
2892.38
2892.67
2894.45
2897.67
2902.32
2908.4
2915.93
2924.91
2935.38
2947.34
2960.81
2975.81
2992.36
3010.48
3030.14
3051.35
3074.09
3098.34
3124.04
3151.1
3179.32
3208.74
3239.19
3270.41
3302.14
3334.08
3365.89
3397.23
3427.7
3456.92
3484.48
3509.98
3533.03
3553.25
3570.31
3583.9
3593.75
3599.67
3601.5
3599.13
3592.63
3582.03
3567.44
3549.08
3527.22
3502.18
3474.35
3444.15
3412.03
3378.46
3343.92
3308.87
3273.78
3239.05
3205.1
3172.24
3140.79
3110.94
3082.89
3056.75
3032.62
3010.51
2990.45
2972.4
2956.32
2942.15
2929.82
2919.23
2910.31
2902.95
2897.06
2892.57
2889.38
2887.42
2886.65
2887.01
2888.46
2890.98
2894.57
2899.23
2904.97
2911.83
2919.85
2929.07
2939.55
2951.36
2964.57
2979.25
2995.44
3013.19
3032.55
3053.53
3076.13
3100.34
3126.11
3153.38
3182.08
3211.98
3242.93
3274.71
3307.04
3339.61
3372.08
3404.04
3435.1
3464.8
3492.7
3518.38
3541.4
3561.39
3577.99
3590.9
3599.9
3604.8
3605.48
3601.95
3594.31
3582.64
3567.15
3548.12
3525.89
3500.84
3473.38
3443.95
3413.01
3381.03
3348.44
3315.69
3283.17
3251.24
3220.2
3190.33
3161.8
3134.79
3109.41
3085.71
3063.74
3043.5
3024.98
3008.14
2992.92
2979.3
2967.19
2956.55
2947.32
2939.44
2932.87
2927.56
2923.46
2920.56
2918.82
2918.24
2918.8
2920.51
2923.38
2927.45
2932.75
2939.32
2947.22
2956.5
2967.23
2979.45
2993.22
3008.6
3025.61
3044.3
3064.68
3086.73
3110.45
3135.76
3162.59
3190.83
3220.44
3251.01
3282.46
3314.51
3346.88
3379.23
3411.2
3442.4
3472.43
3500.87
3527.31
3551.32
3572.54
3590.61
3605.22
3616.11
3623.09
3626
3624.78
3619.48
3610.14
3596.9
3579.99
3559.7
3536.37
3510.4
3482.19
3452.21
3420.88
3388.67
3356.03
3323.41
3291.4
3261.85
3234.26
3207.59
3182.07
3158.05
3135.68
3115.04
3096.15
3078.97
3063.45
3049.5
3037.02
3025.93
3016.13
3007.55
3000.11
2993.78
2988.51
2984.3
2981.13
2979.03
2978.02
2978.15
2979.66
2982.51
2986.74
2992.41
2999.56
3008.27
3018.57
3030.55
3044.26
3059.76
3077.1
3096.3
3117.34
3140.22
3164.86
3191.17
3219.01
3248.2
3278.43
3309.59
3341.47
3373.75
3406.15
3438.31
3469.9
3500.56
3529.92
3557.68
3583.5
3607.04
3628.04
3646.21
3661.29
3673.09
3681.44
3686.22
3687.32
3684.66
3678.34
3668.42
3655.05
3638.44
3618.79
3596.41
3571.56
3544.58
3515.84
3485.68
3454.46
3422.58
3390.45
3358.55
3327.37
3299.17
3272.13
3244.92
3218.82
2836.05
2840.51
2846.4
2853.71
2862.47
2872.76
2884.62
2898.1
2913.25
2930.12
2948.72
2969.1
2991.26
3015.17
3040.79
3068.05
3096.84
3127.04
3158.38
3190.73
3223.87
3257.45
3291.1
3324.5
3357.24
3388.93
3419.13
3447.43
3473.44
3496.77
3517.05
3533.97
3547.28
3556.77
3562.29
3563.72
3560.5
3553.22
3541.95
3526.83
3508.07
3485.93
3460.72
3432.78
3402.54
3370.39
3336.75
3302.07
3266.76
3231.23
3195.86
3161
3127.03
3095.66
3064.21
3034.21
3005.86
2979.29
2954.6
2931.81
2910.93
2891.94
2874.81
2859.48
2845.91
2834.03
2823.8
2815.15
2808.04
2802.41
2798.23
2795.41
2793.92
2794.22
2796
2799.22
2803.86
2809.94
2817.47
2826.44
2836.9
2848.85
2862.3
2877.29
2893.81
2911.92
2931.56
2952.76
2975.49
2999.74
3025.44
3052.52
3080.76
3110.21
3140.71
3172
3203.81
3235.83
3267.75
3299.19
3329.78
3359.13
3386.81
3412.44
3435.61
3455.95
3473.11
3486.78
3496.7
3502.67
3504.52
3502.16
3495.63
3484.98
3470.31
3451.86
3429.88
3404.71
3376.74
3346.4
3314.14
3280.43
3245.76
3210.59
3175.38
3140.56
3106.52
3073.6
3042.1
3012.22
2984.15
2958.01
2933.87
2911.78
2891.74
2873.71
2857.66
2843.52
2831.21
2820.66
2811.76
2804.43
2798.57
2794.1
2790.94
2789
2788.24
2788.6
2790.06
2792.58
2796.17
2800.82
2806.56
2813.4
2821.4
2830.6
2841.07
2852.86
2866.04
2880.69
2896.86
2914.6
2933.95
2954.91
2977.51
3001.72
3027.5
3054.79
3083.51
3113.44
3144.45
3176.29
3208.71
3241.38
3273.95
3306.03
3337.21
3367.05
3395.09
3420.9
3444.05
3464.15
3480.85
3493.85
3502.9
3507.83
3508.52
3504.98
3497.28
3485.53
3469.94
3450.8
3428.45
3403.26
3375.66
3346.09
3315.01
3282.9
3250.2
3217.35
3184.74
3152.73
3121.64
3091.71
3063.16
3036.14
3010.74
2987.05
2965.09
2944.87
2926.37
2909.54
2894.35
2880.75
2868.66
2858.04
2848.83
2840.97
2834.41
2829.11
2825.03
2822.13
2820.4
2819.82
2820.38
2822.08
2824.95
2829
2834.28
2840.84
2848.72
2857.99
2868.69
2880.89
2894.65
2910
2927
2945.68
2966.05
2988.1
3011.82
3037.14
3063.99
3092.25
3121.91
3152.53
3184.05
3216.17
3248.63
3281.08
3313.16
3344.48
3374.64
3403.2
3429.77
3453.91
3475.24
3493.41
3508.11
3519.07
3526.08
3529.01
3527.79
3522.46
3513.05
3499.74
3482.73
3462.32
3438.86
3412.76
3384.43
3354.31
3322.86
3290.52
3257.75
3224.99
3192.86
3163.52
3135.82
3109.07
3083.49
3059.44
3037.07
3016.44
2997.56
2980.4
2964.9
2950.98
2938.52
2927.46
2917.68
2909.12
2901.7
2895.37
2890.11
2885.9
2882.73
2880.63
2879.61
2879.72
2881.21
2884.05
2888.27
2893.9
2901.04
2909.72
2920
2931.95
2945.64
2961.12
2978.45
2997.63
3018.67
3041.56
3066.22
3092.54
3120.41
3149.64
3179.94
3211.16
3243.11
3275.46
3307.95
3340.2
3371.9
3402.66
3432.13
3459.99
3485.91
3509.56
3530.65
3548.9
3564.05
3575.91
3584.31
3589.11
3590.22
3587.56
3581.2
3571.23
3557.79
3541.09
3521.35
3498.87
3473.92
3446.83
3417.98
3387.71
3356.38
3324.4
3292.17
3260.17
3228.94
3200.68
3173.55
3146.3
3120.15
2737.51
2741.96
2747.83
2755.13
2763.88
2774.15
2785.98
2799.44
2814.57
2831.41
2850
2870.37
2892.52
2916.42
2942.05
2969.32
2998.15
3028.38
3059.78
3092.2
3125.43
3159.1
3192.86
3226.38
3259.26
3291.08
3321.44
3349.88
3376.03
3399.5
3419.9
3436.93
3450.33
3459.88
3465.43
3466.88
3463.66
3456.34
3445.01
3429.81
3410.94
3388.68
3363.33
3335.25
3304.85
3272.55
3238.77
3203.95
3168.52
3132.87
3097.4
3062.47
3028.46
2996.92
2965.45
2935.44
2907.08
2880.51
2855.81
2833.04
2812.18
2793.21
2776.1
2760.8
2747.25
2735.4
2725.18
2716.55
2709.46
2703.86
2699.68
2696.88
2695.41
2695.72
2697.5
2700.72
2705.35
2711.42
2718.95
2727.91
2738.36
2750.3
2763.74
2778.7
2795.21
2813.29
2832.92
2854.1
2876.82
2901.07
2926.78
2953.87
2982.13
3011.62
3042.18
3073.54
3105.44
3137.57
3169.6
3201.17
3231.89
3261.37
3289.2
3314.97
3338.28
3358.75
3376.03
3389.81
3399.81
3405.83
3407.71
3405.36
3398.8
3388.08
3373.33
3354.76
3332.65
3307.34
3279.21
3248.7
3216.28
3182.41
3147.58
3112.27
3076.93
3042
3007.87
2974.88
2943.32
2913.41
2885.31
2859.17
2835.04
2812.96
2792.94
2774.94
2758.92
2744.81
2732.54
2722.02
2713.15
2705.86
2700.03
2695.59
2692.44
2690.53
2689.78
2690.16
2691.62
2694.14
2697.73
2702.37
2708.1
2714.93
2722.91
2732.09
2742.53
2754.29
2767.45
2782.08
2798.22
2815.94
2835.27
2856.22
2878.81
2903.02
2928.81
2956.12
2984.87
3014.85
3045.92
3077.84
3110.34
3143.12
3175.81
3208.03
3239.36
3269.35
3297.54
3323.5
3346.8
3367.04
3383.86
3396.94
3406.06
3411.02
3411.72
3408.16
3400.4
3388.56
3372.87
3353.6
3331.09
3305.75
3277.99
3248.26
3217.03
3184.77
3151.94
3118.96
3086.25
3054.16
3023
2993.03
2964.44
2937.4
2912
2888.31
2866.37
2846.16
2827.68
2810.88
2795.72
2782.14
2770.08
2759.48
2750.29
2742.45
2735.91
2730.62
2726.55
2723.66
2721.94
2721.36
2721.91
2723.61
2726.47
2730.5
2735.77
2742.31
2750.17
2759.41
2770.09
2782.27
2796
2811.34
2828.32
2846.98
2867.34
2889.39
2913.11
2938.45
2965.32
2993.61
3023.32
3054
3085.58
3117.8
3150.35
3182.91
3215.12
3246.58
3276.88
3305.6
3332.31
3356.59
3378.06
3396.35
3411.14
3422.17
3429.24
3432.19
3430.96
3425.59
3416.11
3402.7
3385.58
3365.04
3341.44
3315.19
3286.7
3256.44
3224.84
3192.36
3159.45
3126.52
3094.21
3065.18
3037.35
3010.48
2984.84
2960.77
2938.38
2917.76
2898.9
2881.76
2866.29
2852.39
2839.97
2828.94
2819.19
2810.65
2803.24
2796.93
2791.67
2787.46
2784.29
2782.18
2781.15
2781.25
2782.72
2785.53
2789.73
2795.35
2802.46
2811.11
2821.36
2833.29
2846.95
2862.4
2879.71
2898.89
2919.93
2942.82
2967.49
2993.84
3021.75
3051.03
3081.38
3112.67
3144.7
3177.14
3209.73
3242.09
3273.9
3304.79
3334.37
3362.36
3388.4
3412.16
3433.36
3451.7
3466.94
3478.87
3487.31
3492.14
3493.27
3490.59
3484.19
3474.16
3460.64
3443.86
3424.01
3401.41
3376.34
3349.12
3320.15
3289.76
3258.31
3226.2
3193.85
3161.75
3130.47
3102.12
3074.9
3047.59
3021.4
2638.91
2643.36
2649.21
2656.49
2665.22
2675.46
2687.28
2700.71
2715.82
2732.63
2751.2
2771.55
2793.69
2817.59
2843.23
2870.52
2899.37
2929.65
2961.11
2993.61
3026.93
3060.71
3094.6
3128.26
3161.28
3193.27
3223.79
3252.4
3278.71
3302.34
3322.88
3340.03
3353.52
3363.15
3368.74
3370.19
3366.97
3359.62
3348.21
3332.92
3313.93
3291.53
3266.03
3237.78
3207.22
3174.75
3140.8
3105.83
3070.25
3034.48
2998.9
2963.88
2929.81
2898.1
2866.62
2836.58
2808.21
2781.63
2756.94
2734.18
2713.34
2694.4
2677.31
2662.04
2648.52
2636.69
2626.51
2617.9
2610.83
2605.24
2601.09
2598.3
2596.85
2597.17
2598.95
2602.17
2606.8
2612.86
2620.38
2629.33
2639.76
2651.69
2665.11
2680.06
2696.54
2714.6
2734.21
2755.36
2778.08
2802.32
2828.04
2855.15
2883.44
2912.97
2943.6
2975.04
3007.03
3039.28
3071.44
3103.15
3134.02
3163.66
3191.66
3217.59
3241.06
3261.67
3279.09
3292.98
3303.07
3309.16
3311.07
3308.72
3302.12
3291.33
3276.48
3257.79
3235.53
3210.05
3181.75
3151.06
3118.44
3084.39
3049.39
3013.92
2978.44
2943.38
2909.15
2876.08
2844.46
2814.5
2786.39
2760.23
2736.11
2714.05
2694.05
2676.08
2660.09
2646.02
2633.79
2623.31
2614.48
2607.22
2601.43
2597.02
2593.9
2592.01
2591.28
2591.67
2593.13
2595.66
2599.24
2603.88
2609.59
2616.41
2624.37
2633.52
2643.93
2655.67
2668.8
2683.39
2699.51
2717.21
2736.52
2757.46
2780.04
2804.25
2830.05
2857.38
2886.16
2916.19
2947.33
2979.33
3011.94
3044.84
3077.67
3110.05
3141.54
3171.69
3200.07
3226.2
3249.66
3270.05
3287
3300.19
3309.38
3314.39
3315.1
3311.5
3303.67
3291.74
3275.92
3256.5
3233.84
3208.32
3180.38
3150.47
3119.06
3086.64
3053.65
3020.54
2987.71
2955.52
2924.29
2894.26
2865.64
2838.58
2813.17
2789.49
2767.56
2747.38
2728.92
2712.15
2697.01
2683.46
2671.43
2660.86
2651.69
2643.87
2637.35
2632.08
2628.03
2625.15
2623.43
2622.85
2623.4
2625.09
2627.94
2631.96
2637.21
2643.73
2651.56
2660.77
2671.43
2683.58
2697.29
2712.6
2729.56
2748.2
2768.55
2790.6
2814.32
2839.68
2866.58
2894.91
2924.65
2955.41
2987.07
3019.39
3052.05
3084.74
3117.09
3148.71
3179.17
3208.05
3234.93
3259.37
3280.99
3299.41
3314.31
3325.43
3332.55
3335.53
3334.3
3328.87
3319.32
3305.81
3288.55
3267.86
3244.11
3217.68
3189.03
3158.59
3126.83
3094.2
3061.12
3028
2995.47
2966.84
2938.82
2911.82
2886.12
2862.02
2839.62
2819
2800.16
2783.05
2767.61
2753.75
2741.37
2730.36
2720.64
2712.13
2704.74
2698.44
2693.19
2688.98
2685.81
2683.69
2682.65
2682.72
2684.18
2686.97
2691.14
2696.73
2703.81
2712.44
2722.65
2734.55
2748.18
2763.61
2780.9
2800.07
2821.1
2844
2868.68
2895.06
2923.01
2952.34
2982.77
3014.13
3046.25
3078.8
3111.5
3143.98
3175.92
3206.94
3236.67
3264.79
3290.96
3314.85
3336.17
3354.62
3369.96
3381.95
3390.45
3395.32
3396.46
3393.77
3387.32
3377.22
3363.62
3346.73
3326.76
3304.03
3278.82
3251.47
3222.35
3191.82
3160.23
3127.99
3095.51
3063.29
3031.92
3003.52
2976.19
2948.81
2922.57
2540.26
2544.7
2550.54
2557.79
2566.5
2576.72
2588.5
2601.91
2616.99
2633.77
2652.32
2672.65
2694.78
2718.68
2744.32
2771.63
2800.52
2830.85
2862.38
2894.97
2928.39
2962.29
2996.32
3030.14
3063.33
3095.49
3126.19
3154.98
3181.48
3205.28
3225.97
3243.26
3256.86
3266.57
3272.21
3273.67
3270.45
3263.05
3251.56
3236.16
3217.04
3194.48
3168.82
3140.38
3109.63
3076.98
3042.85
3007.7
2971.96
2936.05
2900.35
2865.23
2831.09
2799.22
2767.7
2737.64
2709.25
2682.67
2657.99
2635.24
2614.42
2595.5
2578.45
2563.21
2549.72
2537.92
2527.76
2519.19
2512.14
2506.57
2502.43
2499.67
2498.23
2498.57
2500.35
2503.56
2508.19
2514.25
2521.75
2530.7
2541.12
2553.02
2566.43
2581.35
2597.81
2615.85
2635.43
2656.56
2679.26
2703.5
2729.22
2756.36
2784.68
2814.26
2844.96
2876.49
2908.59
2940.96
2973.27
3005.13
3036.18
3066
3094.17
3120.28
3143.93
3164.71
3182.27
3196.29
3206.49
3212.64
3214.59
3212.24
3205.6
3194.74
3179.78
3160.95
3138.53
3112.86
3084.36
3053.46
3020.64
2986.39
2951.19
2915.54
2879.9
2844.71
2810.36
2777.2
2745.51
2715.5
2687.36
2661.2