/*--------------------------------*- C++ -*----------------------------------*\
| =========                 |                                                 |
| \\      /  F ield         | OpenFOAM: The Open Source CFD Toolbox           |
|  \\    /   O peration     | Version:  3.0.1                                 |
|   \\  /    A nd           | Web:      www.OpenFOAM.org                      |
|    \\/     M anipulation  |                                                 |
\*---------------------------------------------------------------------------*/
FoamFile
{
    version     2.0;
    format      ascii;
    class       surfaceScalarField;
    location    "52.6";
    object      alphaPhi;
}
// * * * * * * * * * * * * * * * * * * * * * * * * * * * * * * * * * * * * * //

dimensions      [0 3 -1 0 0 0 0];

internalField   nonuniform List<scalar> 
42423
(
0.0002038
6.91412e-06
0.000195022
8.77788e-06
0.000184126
1.08961e-05
0.000171211
1.29149e-05
0.000156783
1.44283e-05
0.000140834
1.59489e-05
0.000123808
1.70255e-05
0.000105847
1.79609e-05
8.72156e-05
1.86317e-05
6.82464e-05
1.89692e-05
4.9153e-05
1.90934e-05
3.00911e-05
1.90619e-05
1.13555e-05
1.87357e-05
-6.78379e-06
1.81393e-05
-2.42812e-05
1.74974e-05
-4.10489e-05
1.67677e-05
-5.6942e-05
1.58931e-05
-7.1887e-05
1.49449e-05
-8.58838e-05
1.39969e-05
-9.88676e-05
1.29837e-05
-0.000110827
1.19599e-05
-0.0001218
1.09721e-05
-0.000131782
9.9827e-06
-0.000140792
9.00989e-06
-0.000148871
8.07836e-06
-0.000156047
7.17604e-06
-0.000162362
6.31565e-06
-0.000167847
5.48475e-06
-0.000172535
4.68822e-06
-0.00017645
3.91524e-06
-0.000179626
3.176e-06
-0.000182064
2.43731e-06
-0.000183799
1.73571e-06
-0.000184831
1.03194e-06
-0.000185177
3.45509e-07
-0.000184796
-3.80554e-07
-0.000183657
-1.13921e-06
-0.000181783
-1.87389e-06
-0.000179234
-2.54902e-06
-0.000175836
-3.39809e-06
-0.000171686
-4.15066e-06
-0.000166653
-5.0321e-06
-0.000160804
-5.84925e-06
-0.000154137
-6.66748e-06
-0.000146436
-7.70057e-06
-0.000137828
-8.60829e-06
-0.000128377
-9.45131e-06
-0.000117815
-1.05615e-05
-0.000106279
-1.15359e-05
-9.38352e-05
-1.2444e-05
-8.03205e-05
-1.35148e-05
-6.59224e-05
-1.43981e-05
-5.06378e-05
-1.52846e-05
-3.43006e-05
-1.63373e-05
-1.74695e-05
-1.68311e-05
-9.9321e-09
-1.74596e-05
1.80222e-05
-1.80322e-05
3.62713e-05
-1.82491e-05
5.47296e-05
-1.84583e-05
7.31213e-05
-1.83918e-05
9.12893e-05
-1.81681e-05
0.000109087
-1.77975e-05
0.000126081
-1.69939e-05
0.000142189
-1.61086e-05
0.00015721
-1.50213e-05
0.000170787
-1.3577e-05
0.000182793
-1.20053e-05
0.000193062
-1.02698e-05
0.000201448
-8.38601e-06
0.00020773
-6.28197e-06
0.000211807
-4.07647e-06
0.000213658
-1.85102e-06
0.000213091
5.66685e-07
0.000210199
2.89237e-06
0.000204923
5.27531e-06
0.00019753
7.39309e-06
0.000188067
9.46315e-06
0.000176587
1.14802e-05
0.000163439
1.31476e-05
0.000148732
1.47072e-05
0.000132612
1.61202e-05
0.000115415
1.71972e-05
9.75451e-05
1.78702e-05
7.90185e-05
1.85268e-05
6.03069e-05
1.87117e-05
4.14198e-05
1.88872e-05
2.26964e-05
1.87235e-05
4.25355e-06
1.84429e-05
-1.38075e-05
1.80611e-05
-3.1326e-05
1.75185e-05
-4.81258e-05
1.67997e-05
-6.41331e-05
1.60072e-05
-7.92286e-05
1.50955e-05
-9.33048e-05
1.40761e-05
-0.00010631
1.30047e-05
-0.000118278
1.19682e-05
-0.000129077
1.07987e-05
-0.000138764
9.68698e-06
-0.00014731
8.54649e-06
-0.000154756
7.44563e-06
-0.000161164
6.40764e-06
-0.000166585
5.42109e-06
-0.000171068
4.48332e-06
-0.000174697
3.62919e-06
-0.000177489
2.79147e-06
-0.000179519
2.03009e-06
-0.000180818
1.29866e-06
-0.000181442
6.24762e-07
-0.000181407
-3.5753e-08
-0.000180687
-7.19524e-07
-0.000179312
-1.37542e-06
-0.000177289
-2.02228e-06
-0.00017462
-2.66915e-06
-0.000171327
-3.29329e-06
-0.000167348
-3.97884e-06
-0.00016274
-4.60777e-06
-0.000157418
-5.32223e-06
-0.000151508
-5.91001e-06
-0.000144824
-6.6844e-06
-0.000137485
-7.33926e-06
-0.000129376
-8.10901e-06
-0.000120534
-8.84146e-06
-0.000110932
-9.60192e-06
-0.000100561
-1.03717e-05
-8.93818e-05
-1.11788e-05
-7.74423e-05
-1.19396e-05
-6.46797e-05
-1.27627e-05
-5.11258e-05
-1.3554e-05
-3.68447e-05
-1.42812e-05
-2.18012e-05
-1.50436e-05
-6.15019e-06
-1.56511e-05
1.01119e-05
-1.62622e-05
2.68434e-05
-1.67316e-05
4.39069e-05
-1.70637e-05
6.11346e-05
-1.72278e-05
7.83513e-05
-1.72169e-05
9.5312e-05
-1.69608e-05
0.000111826
-1.65137e-05
0.000127575
-1.57498e-05
0.000142392
-1.48169e-05
0.000155957
-1.35651e-05
0.000168033
-1.20764e-05
0.000178354
-1.03203e-05
0.000186704
-8.35079e-06
0.00019291
-6.20572e-06
0.000196814
-3.90395e-06
0.00019832
-1.50587e-06
0.00019741
9.10009e-07
0.000193999
3.41046e-06
0.000188156
5.84357e-06
0.000180034
8.12122e-06
0.000169783
1.02512e-05
0.000157589
1.21943e-05
0.000143604
1.39851e-05
0.000128177
1.54269e-05
0.000111523
1.66534e-05
9.39775e-05
1.75458e-05
7.58094e-05
1.81681e-05
5.73001e-05
1.85093e-05
3.87064e-05
1.85936e-05
2.0222e-05
1.84845e-05
2.11851e-06
1.81034e-05
-1.5468e-05
1.75865e-05
-3.23938e-05
1.69258e-05
-4.84995e-05
1.61057e-05
-6.36802e-05
1.51807e-05
-7.78999e-05
1.42197e-05
-9.10988e-05
1.3199e-05
-0.000103284
1.21856e-05
-0.000114481
1.11965e-05
-0.000124717
1.02357e-05
-0.000134026
9.30917e-06
-0.000142413
8.38673e-06
-0.000149918
7.50527e-06
-0.000156582
6.66419e-06
-0.000162409
5.82695e-06
-0.000167473
5.06421e-06
-0.00017181
4.3366e-06
-0.000175405
3.59524e-06
-0.000178301
2.89602e-06
-0.000180524
2.22308e-06
-0.000182064
1.53982e-06
-0.000183024
9.6048e-07
-0.000183382
3.58314e-07
-0.000183186
-1.95895e-07
-0.00018237
-8.1628e-07
-0.000181023
-1.34745e-06
-0.000178963
-2.05922e-06
-0.000176225
-2.73794e-06
-0.00017281
-3.41564e-06
-0.000168766
-4.04369e-06
-0.00016409
-4.67564e-06
-0.00015876
-5.3303e-06
-0.00015294
-5.82004e-06
-0.000146324
-6.61644e-06
-0.000139127
-7.19715e-06
-0.000131061
-8.06572e-06
-0.000122334
-8.72677e-06
-0.000112748
-9.58623e-06
-0.000102364
-1.03841e-05
-9.1183e-05
-1.11809e-05
-7.92003e-05
-1.19828e-05
-6.64542e-05
-1.27461e-05
-5.29285e-05
-1.35258e-05
-3.86361e-05
-1.42924e-05
-2.36357e-05
-1.50005e-05
-7.97757e-06
-1.56582e-05
8.29565e-06
-1.62733e-05
2.49667e-05
-1.66712e-05
4.19371e-05
-1.69705e-05
5.89667e-05
-1.70296e-05
7.58709e-05
-1.69043e-05
9.2401e-05
-1.65301e-05
0.000108351
-1.59498e-05
0.000123509
-1.51585e-05
0.000137576
-1.40664e-05
0.000150352
-1.27764e-05
0.000161551
-1.11996e-05
0.000170948
-9.39664e-06
0.000178319
-7.37056e-06
0.000183472
-5.1533e-06
0.000186281
-2.80949e-06
0.000186679
-3.97318e-07
0.000184639
2.03933e-06
0.000180114
4.52478e-06
0.000173291
6.82341e-06
0.000164288
9.00336e-06
0.000153278
1.101e-05
0.000140488
1.27894e-05
0.000126209
1.42788e-05
0.000110688
1.55215e-05
9.42212e-05
1.64667e-05
7.70573e-05
1.71639e-05
5.95126e-05
1.75447e-05
4.17932e-05
1.77194e-05
2.41513e-05
1.76419e-05
6.7944e-06
1.73569e-05
-1.01148e-05
1.69092e-05
-2.63829e-05
1.62681e-05
-4.20016e-05
1.56186e-05
-5.673e-05
1.47284e-05
-7.06236e-05
1.38936e-05
-8.35462e-05
1.29226e-05
-9.55375e-05
1.19912e-05
-0.000106595
1.10575e-05
-0.000116724
1.01294e-05
-0.000125948
9.22329e-06
-0.000134272
8.32484e-06
-0.000141784
7.51214e-06
-0.000148461
6.67662e-06
-0.000154365
5.90368e-06
-0.000159513
5.14812e-06
-0.000163943
4.42991e-06
-0.000167676
3.73387e-06
-0.000170776
3.09971e-06
-0.000173227
2.45101e-06
-0.00017511
1.88305e-06
-0.000176432
1.32195e-06
-0.000177201
7.69527e-07
-0.000177451
2.50163e-07
-0.000177192
-2.59014e-07
-0.000176399
-7.93017e-07
-0.000175092
-1.30687e-06
-0.000173249
-1.84264e-06
-0.000170825
-2.42397e-06
-0.00016783
-2.99445e-06
-0.000164219
-3.61077e-06
-0.000159965
-4.25423e-06
-0.000155065
-4.89956e-06
-0.000149402
-5.66305e-06
-0.000143158
-6.24364e-06
-0.000135997
-7.16079e-06
-0.000128216
-7.78135e-06
-0.000119501
-8.7148e-06
-0.000109976
-9.52459e-06
-9.95744e-05
-1.04018e-05
-8.82645e-05
-1.13099e-05
-7.59853e-05
-1.22792e-05
-6.27156e-05
-1.32697e-05
-4.81882e-05
-1.45274e-05
-3.2757e-05
-1.54312e-05
-1.62372e-05
-1.65198e-05
1.23459e-06
-1.74718e-05
1.95151e-05
-1.82806e-05
3.83639e-05
-1.88488e-05
5.76215e-05
-1.92577e-05
7.70399e-05
-1.94184e-05
9.63316e-05
-1.92918e-05
0.000115185
-1.88536e-05
0.000133386
-1.82008e-05
0.000150683
-1.72977e-05
0.000166691
-1.60077e-05
0.000181156
-1.4465e-05
0.000193857
-1.27011e-05
0.000204382
-1.05247e-05
0.000212604
-8.22246e-06
0.000218335
-5.7308e-06
0.00022136
-3.02547e-06
0.000221805
-4.45196e-07
0.000219366
2.43957e-06
0.000214377
4.98862e-06
0.000207008
7.36967e-06
0.000197343
9.664e-06
0.000185794
1.15491e-05
0.000172517
1.32774e-05
0.000157789
1.47276e-05
0.000142007
1.57826e-05
0.000125451
1.65553e-05
0.000108479
1.69721e-05
9.11449e-05
1.73343e-05
7.39694e-05
1.71755e-05
5.69805e-05
1.69889e-05
4.03595e-05
1.6621e-05
2.4417e-05
1.59425e-05
9.01121e-06
1.54058e-05
-5.51611e-06
1.45273e-05
-1.92942e-05
1.37781e-05
-3.22591e-05
1.29649e-05
-4.43886e-05
1.21295e-05
-5.56802e-05
1.12916e-05
-6.61716e-05
1.04914e-05
-7.58905e-05
9.71891e-06
-8.48584e-05
8.96788e-06
-9.31306e-05
8.27221e-06
-0.000100731
7.60056e-06
-0.000107692
6.96088e-06
-0.000114033
6.34129e-06
-0.000119783
5.7492e-06
-0.000124952
5.16901e-06
-0.000129527
4.57572e-06
-0.000133497
3.97022e-06
-0.00013686
3.36253e-06
-0.000139572
2.71229e-06
-0.000141643
2.07074e-06
-0.000143007
1.36352e-06
-0.000143665
6.58284e-07
-0.000143545
-1.19548e-07
-0.000142621
-9.24475e-07
-0.000140879
-1.74214e-06
-0.000138344
-2.5344e-06
-0.000135008
-3.33639e-06
-0.000130788
-4.2195e-06
-0.000125795
-4.99321e-06
-0.000119883
-5.91266e-06
-0.00011316
-6.72282e-06
-0.000105707
-7.45236e-06
-9.72845e-05
-8.4229e-06
-8.8016e-05
-9.2685e-06
-7.79624e-05
-1.00535e-05
-6.69908e-05
-1.09716e-05
-5.5237e-05
-1.17538e-05
-4.26251e-05
-1.26119e-05
-2.92773e-05
-1.33477e-05
-1.52774e-05
-1.4e-05
-4.05628e-07
-1.48718e-05
1.46631e-05
-1.50687e-05
-1.5478e-05
0.00020389
1.383e-05
0.000195109
1.75588e-05
0.000184208
2.17976e-05
0.000171285
2.58372e-05
0.000156849
2.88646e-05
0.00014089
3.19076e-05
0.000123851
3.40645e-05
0.000105881
3.59317e-05
8.72353e-05
3.7277e-05
6.82637e-05
3.79408e-05
4.9155e-05
3.82022e-05
3.00859e-05
3.8131e-05
1.13371e-05
3.74845e-05
-6.80584e-06
3.62822e-05
-2.43086e-05
3.50002e-05
-4.10816e-05
3.35407e-05
-5.69804e-05
3.17918e-05
-7.19284e-05
2.9893e-05
-8.59275e-05
2.7996e-05
-9.8916e-05
2.59722e-05
-0.000110876
2.39201e-05
-0.000121848
2.19436e-05
-0.000131832
1.99674e-05
-0.000140844
1.80216e-05
-0.000148926
1.61599e-05
-0.0001561
1.43501e-05
-0.000162411
1.26274e-05
-0.000167895
1.09688e-05
-0.000172584
9.37718e-06
-0.000176499
7.82962e-06
-0.000179678
6.35574e-06
-0.00018212
4.87923e-06
-0.000183854
3.46986e-06
-0.000184884
2.06173e-06
-0.000185228
6.89622e-07
-0.000184847
-7.62338e-07
-0.00018371
-2.27614e-06
-0.000181843
-3.74098e-06
-0.000179289
-5.10265e-06
-0.000175892
-6.79463e-06
-0.000171743
-8.30035e-06
-0.000166711
-1.00642e-05
-0.000160862
-1.16984e-05
-0.000154197
-1.33324e-05
-0.000146494
-1.5403e-05
-0.000137889
-1.72136e-05
-0.000128435
-1.89052e-05
-0.000117873
-2.11238e-05
-0.000106335
-2.30737e-05
-9.38933e-05
-2.48859e-05
-8.03785e-05
-2.70297e-05
-6.59759e-05
-2.88007e-05
-5.06776e-05
-3.0583e-05
-3.43479e-05
-3.26671e-05
-1.75174e-05
-3.36617e-05
-4.46496e-08
-3.49325e-05
1.79983e-05
-3.60753e-05
3.62569e-05
-3.65078e-05
5.47233e-05
-3.69247e-05
7.3125e-05
-3.67936e-05
9.13055e-05
-3.63487e-05
0.000109115
-3.56066e-05
0.000126124
-3.40035e-05
0.000142242
-3.22268e-05
0.000157275
-3.00546e-05
0.000170857
-2.71585e-05
0.000182872
-2.40203e-05
0.000193158
-2.05559e-05
0.000201546
-1.67743e-05
0.000207832
-1.25674e-05
0.000211913
-8.15805e-06
0.000213775
-3.71281e-06
0.000213201
1.14079e-06
0.000210303
5.78973e-06
0.000205038
1.05404e-05
0.000197637
1.47943e-05
0.000188169
1.89316e-05
0.000176675
2.29741e-05
0.000163519
2.63034e-05
0.000148791
2.94358e-05
0.000132669
3.22418e-05
0.000115469
3.4398e-05
9.75804e-05
3.57586e-05
7.90443e-05
3.70631e-05
6.03209e-05
3.74352e-05
4.14198e-05
3.77883e-05
2.26871e-05
3.74564e-05
4.23584e-06
3.68942e-05
-1.38388e-05
3.61358e-05
-3.13714e-05
3.5051e-05
-4.81798e-05
3.3608e-05
-6.41889e-05
3.20163e-05
-7.92952e-05
3.02017e-05
-9.33861e-05
2.81669e-05
-0.000106394
2.6013e-05
-0.000118376
2.39502e-05
-0.00012918
2.16025e-05
-0.000138864
1.93706e-05
-0.000147411
1.70938e-05
-0.00015486
1.48948e-05
-0.000161269
1.28161e-05
-0.000166688
1.08399e-05
-0.000171168
8.96328e-06
-0.000174794
7.25568e-06
-0.000177578
5.57497e-06
-0.000179605
4.05745e-06
-0.000180906
2.6e-06
-0.000181527
1.2458e-06
-0.000181488
-7.53357e-08
-0.000180768
-1.43915e-06
-0.000179399
-2.74494e-06
-0.000177379
-4.04184e-06
-0.000174704
-5.34444e-06
-0.000171408
-6.58935e-06
-0.000167436
-7.95119e-06
-0.000162818
-9.22485e-06
-0.000157523
-1.06181e-05
-0.000151598
-1.18349e-05
-0.000144924
-1.33584e-05
-0.000137572
-1.46915e-05
-0.000129467
-1.62142e-05
-0.000120624
-1.76838e-05
-0.000111028
-1.91985e-05
-0.000100659
-2.07406e-05
-8.94807e-05
-2.23571e-05
-7.75387e-05
-2.38817e-05
-6.47761e-05
-2.55253e-05
-5.12316e-05
-2.70986e-05
-3.69509e-05
-2.8562e-05
-2.19106e-05
-3.00841e-05
-6.24886e-06
-3.1313e-05
1.00193e-05
-3.25305e-05
2.67555e-05
-3.3468e-05
4.38203e-05
-3.41286e-05
6.10557e-05
-3.44632e-05
7.8271e-05
-3.44323e-05
9.52454e-05
-3.39354e-05
0.000111772
-3.30407e-05
0.00012754
-3.15175e-05
0.000142377
-2.96546e-05
0.000155941
-2.71285e-05
0.000168028
-2.4164e-05
0.000178356
-2.06485e-05
0.000186723
-1.67174e-05
0.000192927
-1.241e-05
0.000196836
-7.81282e-06
0.000198345
-3.01545e-06
0.00019743
1.8252e-06
0.000194022
6.81871e-06
0.000188175
1.16904e-05
0.000180048
1.62482e-05
0.000169788
2.05106e-05
0.000157585
2.43973e-05
0.000143593
2.79777e-05
0.000128157
3.08623e-05
0.0001115
3.33105e-05
9.39431e-05
3.51029e-05
7.57622e-05
3.6349e-05
5.72373e-05
3.70342e-05
3.86321e-05
3.71989e-05
2.01462e-05
3.69704e-05
2.03324e-06
3.62165e-05
-1.55681e-05
3.51878e-05
-3.24973e-05
3.38551e-05
-4.86046e-05
3.2213e-05
-6.37883e-05
3.03645e-05
-7.80111e-05
2.84425e-05
-9.12132e-05
2.64011e-05
-0.000103395
2.43675e-05
-0.00011459
2.23912e-05
-0.000124824
2.04707e-05
-0.000134126
1.86111e-05
-0.00014251
1.67701e-05
-0.000150016
1.50119e-05
-0.000156681
1.33289e-05
-0.000162504
1.165e-05
-0.000167557
1.01174e-05
-0.000171907
8.68684e-06
-0.000175498
7.18645e-06
-0.000178395
5.7922e-06
-0.000180614
4.44231e-06
-0.000182153
3.07876e-06
-0.000183118
1.92558e-06
-0.000183472
7.12201e-07
-0.000183277
-3.90038e-07
-0.000182455
-1.63854e-06
-0.000181097
-2.70579e-06
-0.000179053
-4.10282e-06
-0.000176316
-5.47534e-06
-0.000172898
-6.83288e-06
-0.000168858
-8.08397e-06
-0.000164186
-9.34781e-06
-0.000158883
-1.06337e-05
-0.000153039
-1.16637e-05
-0.000146424
-1.32314e-05
-0.000139233
-1.43884e-05
-0.000131166
-1.61323e-05
-0.000122445
-1.74484e-05
-0.00011286
-1.91704e-05
-0.000102474
-2.07701e-05
-9.12924e-05
-2.2363e-05
-7.93089e-05
-2.39664e-05
-6.65619e-05
-2.54932e-05
-5.3044e-05
-2.70438e-05
-3.8753e-05
-2.85834e-05
-2.37509e-05
-3.00027e-05
-8.08408e-06
-3.13251e-05
8.19198e-06
-3.25494e-05
2.48701e-05
-3.33494e-05
4.18511e-05
-3.39516e-05
5.88833e-05
-3.40619e-05
7.57973e-05
-3.38184e-05
9.23352e-05
-3.30682e-05
0.000108297
-3.19116e-05
0.000123469
-3.03303e-05
0.000137551
-2.81491e-05
0.00015034
-2.55654e-05
0.000161551
-2.24105e-05
0.000170951
-1.87965e-05
0.000178333
-1.47528e-05
0.000183495
-1.03156e-05
0.000186298
-5.61279e-06
0.000186697
-7.96611e-07
0.000184657
4.08016e-06
0.000180138
9.04319e-06
0.00017331
1.36515e-05
0.000164304
1.80097e-05
0.000153263
2.20503e-05
0.000140482
2.55713e-05
0.000126192
2.8568e-05
0.000110669
3.10452e-05
9.4189e-05
3.29463e-05
7.70119e-05
3.43411e-05
5.94525e-05
3.51042e-05
4.17357e-05
3.54362e-05
2.40852e-05
3.52924e-05
6.71858e-06
3.47235e-05
-1.0203e-05
3.38308e-05
-2.6494e-05
3.25592e-05
-4.20998e-05
3.12244e-05
-5.68331e-05
2.94618e-05
-7.07238e-05
2.77844e-05
-8.3651e-05
2.58498e-05
-9.56374e-05
2.39777e-05
-0.0001067
2.21197e-05
-0.000116825
2.02548e-05
-0.000126042
1.84408e-05
-0.000134373
1.66551e-05
-0.00014188
1.50193e-05
-0.000148555
1.33519e-05
-0.00015446
1.18089e-05
-0.000159613
1.03005e-05
-0.000164041
8.85845e-06
-0.000167769
7.46205e-06
-0.000170873
6.20389e-06
-0.000173328
4.9063e-06
-0.000175206
3.76049e-06
-0.000176526
2.64211e-06
-0.000177298
1.54202e-06
-0.00017755
5.0284e-07
-0.000177293
-5.16197e-07
-0.000176497
-1.58882e-06
-0.000175192
-2.61223e-06
-0.000173349
-3.68483e-06
-0.000170922
-4.85063e-06
-0.000167913
-6.00308e-06
-0.000164306
-7.21829e-06
-0.000160041
-8.51835e-06
-0.000155146
-9.79497e-06
-0.000149481
-1.13279e-05
-0.000143221
-1.25035e-05
-0.000136068
-1.43141e-05
-0.000128277
-1.55723e-05
-0.000119563
-1.74286e-05
-0.000110037
-1.90505e-05
-9.96325e-05
-2.0806e-05
-8.83369e-05
-2.26056e-05
-7.60441e-05
-2.45721e-05
-6.2772e-05
-2.65418e-05
-4.8239e-05
-2.90605e-05
-3.28154e-05
-3.08549e-05
-1.6284e-05
-3.30513e-05
1.19652e-06
-3.49524e-05
1.94853e-05
-3.65694e-05
3.83476e-05
-3.77113e-05
5.76175e-05
-3.85276e-05
7.70526e-05
-3.88536e-05
9.63564e-05
-3.85956e-05
0.000115227
-3.77241e-05
0.000133447
-3.64215e-05
0.000150755
-3.46053e-05
0.000166775
-3.2028e-05
0.000181253
-2.89433e-05
0.000193966
-2.54134e-05
0.000204494
-2.10535e-05
0.000212729
-1.64575e-05
0.000218467
-1.14685e-05
0.000221495
-6.05319e-06
0.000221942
-8.92964e-07
0.000219484
4.89765e-06
0.000214497
9.9758e-06
0.000207121
1.47457e-05
0.000197449
1.9336e-05
0.000185888
2.31093e-05
0.000172596
2.65698e-05
0.000157857
2.94665e-05
0.00014206
3.15798e-05
0.00012549
3.31248e-05
0.0001085
3.3962e-05
9.11616e-05
3.4673e-05
7.39744e-05
3.43627e-05
5.69716e-05
3.39916e-05
4.03465e-05
3.32461e-05
2.44022e-05
3.18868e-05
8.99783e-06
3.08102e-05
-5.54065e-06
2.90658e-05
-1.93232e-05
2.75607e-05
-3.22915e-05
2.59331e-05
-4.44225e-05
2.42605e-05
-5.57143e-05
2.25834e-05
-6.62058e-05
2.09829e-05
-7.59254e-05
1.94385e-05
-8.48949e-05
1.79374e-05
-9.31666e-05
1.65439e-05
-0.000100764
1.51975e-05
-0.000107728
1.39252e-05
-0.000114076
1.26899e-05
-0.000119821
1.14936e-05
-0.000124988
1.03361e-05
-0.000129565
9.15251e-06
-0.000133536
7.94188e-06
-0.000136901
6.72672e-06
-0.000139615
5.42657e-06
-0.000141687
4.1424e-06
-0.000143053
2.73048e-06
-0.000143713
1.31771e-06
-0.000143594
-2.3872e-07
-0.000142667
-1.85154e-06
-0.000140927
-3.48211e-06
-0.000138392
-5.06917e-06
-0.000135054
-6.67397e-06
-0.000130822
-8.45231e-06
-0.000125841
-9.97345e-06
-0.000119927
-1.18266e-05
-0.000113204
-1.34465e-05
-0.000105748
-1.49084e-05
-9.73255e-05
-1.68451e-05
-8.80547e-05
-1.85392e-05
-7.79998e-05
-2.01085e-05
-6.70243e-05
-2.19471e-05
-5.52692e-05
-2.3509e-05
-4.26531e-05
-2.5228e-05
-2.93043e-05
-2.66966e-05
-1.5303e-05
-2.80012e-05
-4.30501e-07
-2.97443e-05
1.46444e-05
-3.01436e-05
-3.09642e-05
0.000204064
2.07559e-05
0.000195271
2.63521e-05
0.000184354
3.2714e-05
0.000171414
3.87771e-05
0.00015696
4.3319e-05
0.000140981
4.78864e-05
0.000123916
5.11298e-05
0.000105927
5.3921e-05
8.72572e-05
5.59465e-05
6.828e-05
5.6918e-05
4.91475e-05
5.73347e-05
3.00621e-05
5.72164e-05
1.12977e-05
5.62489e-05
-6.85721e-06
5.44371e-05
-2.43726e-05
5.25156e-05
-4.11559e-05
5.0324e-05
-5.70614e-05
4.76973e-05
-7.20138e-05
4.48454e-05
-8.60159e-05
4.1998e-05
-9.90059e-05
3.89623e-05
-0.000110968
3.58819e-05
-0.000121939
3.29152e-05
-0.000131924
2.99522e-05
-0.000140935
2.70326e-05
-0.000149012
2.4237e-05
-0.000156185
2.15229e-05
-0.000162498
1.89398e-05
-0.000167981
1.64524e-05
-0.000172672
1.40675e-05
-0.000176585
1.17426e-05
-0.000179764
9.53558e-06
-0.000182205
7.31942e-06
-0.000183939
5.20429e-06
-0.000184967
3.08989e-06
-0.000185297
1.01972e-06
-0.000184903
-1.15658e-06
-0.000183768
-3.41115e-06
-0.000181916
-5.59266e-06
-0.000179349
-7.67053e-06
-0.000175953
-1.01901e-05
-0.000171804
-1.24493e-05
-0.000166775
-1.5093e-05
-0.000160929
-1.75446e-05
-0.000154272
-1.999e-05
-0.000146569
-2.31053e-05
-0.000137971
-2.58121e-05
-0.000128512
-2.83639e-05
-0.00011795
-3.16863e-05
-0.000106411
-3.46129e-05
-9.39694e-05
-3.73272e-05
-8.04555e-05
-4.05437e-05
-6.60439e-05
-4.32125e-05
-5.07323e-05
-4.58946e-05
-3.44069e-05
-4.89925e-05
-1.75734e-05
-5.04953e-05
-8.88081e-08
-5.24171e-05
1.79683e-05
-5.41325e-05
3.62353e-05
-5.47749e-05
5.47185e-05
-5.5408e-05
7.31312e-05
-5.52064e-05
9.13281e-05
-5.45457e-05
0.000109156
-5.34346e-05
0.00012618
-5.10277e-05
0.000142317
-4.83634e-05
0.000157367
-4.51048e-05
0.00017096
-4.07519e-05
0.000182991
-3.60512e-05
0.000193294
-3.0859e-05
0.000201684
-2.51648e-05
0.000207977
-1.88604e-05
0.00021207
-1.22511e-05
0.000213949
-5.59174e-06
0.000213363
1.72689e-06
0.00021046
8.69298e-06
0.000205215
1.57846e-05
0.000197797
2.22125e-05
0.000188318
2.84104e-05
0.000176802
3.44903e-05
0.000163635
3.94711e-05
0.000148873
4.41979e-05
0.000132743
4.83716e-05
0.00011554
5.16016e-05
9.7616e-05
5.36826e-05
7.90599e-05
5.56193e-05
6.03062e-05
5.61891e-05
4.13831e-05
5.67115e-05
2.26301e-05
5.62096e-05
4.16461e-06
5.53597e-05
-1.39262e-05
5.42265e-05
-3.14772e-05
5.2602e-05
-4.83056e-05
5.04364e-05
-6.43359e-05
4.80465e-05
-7.94427e-05
4.53084e-05
-9.35598e-05
4.22839e-05
-0.000106573
3.90263e-05
-0.000118566
3.59429e-05
-0.000129371
3.24072e-05
-0.000139055
2.90544e-05
-0.000147613
2.5652e-05
-0.000155064
2.2346e-05
-0.000161473
1.92255e-05
-0.000166893
1.62596e-05
-0.000171369
1.34389e-05
-0.000174987
1.08737e-05
-0.000177755
8.34338e-06
-0.000179787
6.08939e-06
-0.000181088
3.90015e-06
-0.000181701
1.85897e-06
-0.000181653
-1.22559e-07
-0.00018094
-2.15301e-06
-0.000179572
-4.11276e-06
-0.000177552
-6.06173e-06
-0.000174885
-8.01156e-06
-0.000171589
-9.88538e-06
-0.000167623
-1.19166e-05
-0.000162994
-1.38546e-05
-0.000157727
-1.58847e-05
-0.000151778
-1.77837e-05
-0.000145114
-2.00229e-05
-0.000137749
-2.20561e-05
-0.000129652
-2.43111e-05
-0.000120776
-2.65603e-05
-0.000111198
-2.87764e-05
-0.00010083
-3.11089e-05
-8.96573e-05
-3.35296e-05
-7.77131e-05
-3.58259e-05
-6.49449e-05
-3.82936e-05
-5.14133e-05
-4.06303e-05
-3.71195e-05
-4.28559e-05
-2.20911e-05
-4.51126e-05
-6.41003e-06
-4.69942e-05
9.87024e-06
-4.88108e-05
2.66177e-05
-5.02155e-05
4.36949e-05
-5.12059e-05
6.09496e-05
-5.17181e-05
7.81812e-05
-5.1664e-05
9.51798e-05
-5.09341e-05
0.000111712
-4.95726e-05
0.000127507
-4.73134e-05
0.00014237
-4.45177e-05
0.00015595
-4.07079e-05
0.000168058
-3.62726e-05
0.000178401
-3.0991e-05
0.00018679
-2.51073e-05
0.000193007
-1.86265e-05
0.000196919
-1.17247e-05
0.000198438
-4.53519e-06
0.000197507
2.75636e-06
0.000194095
1.02304e-05
0.000188236
1.755e-05
0.0001801
2.43835e-05
0.000169821
3.07902e-05
0.000157571
3.66469e-05
0.000143586
4.19628e-05
0.000128137
4.63116e-05
0.00011147
4.99773e-05
9.38806e-05
5.26922e-05
7.56797e-05
5.45499e-05
5.71315e-05
5.55824e-05
3.84931e-05
5.58373e-05
1.99997e-05
5.54638e-05
1.87444e-06
5.43417e-05
-1.57425e-05
5.28048e-05
-3.26782e-05
5.07908e-05
-4.8803e-05
4.83379e-05
-6.40015e-05
4.55631e-05
-7.82237e-05
4.26647e-05
-9.14258e-05
3.96032e-05
-0.000103603
3.65448e-05
-0.0001148
3.35884e-05
-0.000125039
3.07093e-05
-0.000134326
2.78981e-05
-0.00014271
2.51545e-05
-0.000150218
2.25196e-05
-0.000156874
1.99851e-05
-0.000162668
1.74439e-05
-0.000167751
1.52002e-05
-0.000172111
1.30475e-05
-0.000175697
1.07721e-05
-0.000178586
8.68149e-06
-0.000180807
6.66303e-06
-0.000182343
4.61514e-06
-0.000183304
2.88611e-06
-0.000183652
1.0607e-06
-0.000183462
-5.79706e-07
-0.000182688
-2.41251e-06
-0.000181242
-4.15225e-06
-0.000179236
-6.10863e-06
-0.000176499
-8.21207e-06
-0.000173077
-1.02555e-05
-0.000169034
-1.21263e-05
-0.000164357
-1.40254e-05
-0.000159071
-1.59189e-05
-0.000153208
-1.75274e-05
-0.000146623
-1.98162e-05
-0.000139413
-2.15985e-05
-0.000131399
-2.41468e-05
-0.000122624
-2.62229e-05
-0.000113043
-2.87515e-05
-0.000102661
-3.11518e-05
-9.14813e-05
-3.3543e-05
-7.94909e-05
-3.59569e-05
-6.67376e-05
-3.82465e-05
-5.32174e-05
-4.05641e-05
-3.89243e-05
-4.28765e-05
-2.39162e-05
-4.50109e-05
-8.23001e-06
-4.70114e-05
8.02797e-06
-4.88075e-05
2.47266e-05
-5.00481e-05
4.17366e-05
-5.09616e-05
5.8776e-05
-5.11014e-05
7.57131e-05
-5.07556e-05
9.22702e-05
-4.96253e-05
0.000108254
-4.78957e-05
0.000123435
-4.55111e-05
0.00013755
-4.22646e-05
0.000150358
-3.83729e-05
0.000161588
-3.36407e-05
0.000171016
-2.82248e-05
0.000178409
-2.21459e-05
0.000183578
-1.54841e-05
0.000186387
-8.42166e-06
0.000186776
-1.1859e-06
0.000184714
6.14217e-06
0.000180204
1.35529e-05
0.000173368
2.04876e-05
0.000164333
2.70442e-05
0.000153279
3.31048e-05
0.000140481
3.83687e-05
0.000126179
4.28706e-05
0.000110647
4.65768e-05
9.4134e-05
4.94596e-05
7.69332e-05
5.15419e-05
5.93528e-05
5.26846e-05
4.16442e-05
5.31447e-05
2.39458e-05
5.29909e-05
6.56433e-06
5.21049e-05
-1.03772e-05
5.07723e-05
-2.66933e-05
4.88753e-05
-4.22926e-05
4.68238e-05
-5.70286e-05
4.41978e-05
-7.09136e-05
4.16694e-05
-8.38626e-05
3.87988e-05
-9.58518e-05
3.59669e-05
-0.00010691
3.31778e-05
-0.000117016
3.0361e-05
-0.000126212
2.76369e-05
-0.000134566
2.5009e-05
-0.000142071
2.25248e-05
-0.000148749
2.003e-05
-0.000154663
1.77224e-05
-0.000159807
1.54447e-05
-0.000164225
1.32765e-05
-0.000167966
1.12037e-05
-0.000171071
9.30808e-06
-0.000173516
7.35215e-06
-0.000175385
5.62925e-06
-0.000176705
3.96205e-06
-0.000177476
2.31385e-06
-0.00017772
7.46905e-07
-0.000177461
-7.75407e-07
-0.000176662
-2.38792e-06
-0.000175347
-3.9264e-06
-0.000173499
-5.53241e-06
-0.000171062
-7.28763e-06
-0.000168005
-9.06035e-06
-0.000164431
-1.07919e-05
-0.000160156
-1.27933e-05
-0.000155261
-1.46892e-05
-0.000149593
-1.69956e-05
-0.000143315
-1.87815e-05
-0.000136163
-2.14663e-05
-0.000128351
-2.33846e-05
-0.000119656
-2.61238e-05
-0.000110134
-2.85718e-05
-9.97193e-05
-3.12209e-05
-8.8439e-05
-3.38859e-05
-7.61365e-05
-3.68746e-05
-6.28615e-05
-3.98169e-05
-4.83211e-05
-4.36009e-05
-3.29108e-05
-4.62653e-05
-1.63595e-05
-4.96027e-05
1.12451e-06
-5.24364e-05
1.94172e-05
-5.48622e-05
3.83015e-05
-5.65956e-05
5.76017e-05
-5.78279e-05
7.70638e-05
-5.83158e-05
9.63858e-05
-5.79177e-05
0.000115278
-5.66164e-05
0.000133527
-5.46708e-05
0.000150857
-5.19347e-05
0.000166897
-4.80687e-05
0.000181401
-4.34469e-05
0.000194131
-3.81436e-05
0.000204676
-3.15983e-05
0.000212933
-2.47146e-05
0.000218654
-1.71899e-05
0.000221704
-9.10377e-06
0.000222151
-1.3395e-06
0.000219663
7.38535e-06
0.000214678
1.4961e-05
0.000207289
2.21346e-05
0.000197606
2.90194e-05
0.000186023
3.4692e-05
0.000172704
3.98887e-05
0.000157948
4.42223e-05
0.000142125
4.74028e-05
0.00012553
4.97193e-05
0.000108505
5.09868e-05
9.1166e-05
5.20125e-05
7.39563e-05
5.15723e-05
5.69285e-05
5.10194e-05
4.03017e-05
4.98729e-05
2.43563e-05
4.78321e-05
8.97264e-06
4.61938e-05
-5.60208e-06
4.36405e-05
-1.93909e-05
4.13495e-05
-3.23645e-05
3.89067e-05
-4.44958e-05
3.63918e-05
-5.57843e-05
3.38719e-05
-6.62739e-05
3.14725e-05
-7.59917e-05
2.91563e-05
-8.49586e-05
2.69042e-05
-9.32289e-05
2.48143e-05
-0.000100827
2.27952e-05
-0.000107789
2.08878e-05
-0.000114136
1.90364e-05
-0.00011988
1.7238e-05
-0.000125048
1.55044e-05
-0.000129625
1.3729e-05
-0.000133595
1.19122e-05
-0.000136962
1.00939e-05
-0.000139681
8.145e-06
-0.000141749
6.21021e-06
-0.00014312
4.10221e-06
-0.000143778
1.97512e-06
-0.000143655
-3.61681e-07
-0.000142727
-2.77907e-06
-0.000140991
-5.21815e-06
-0.000138454
-7.60646e-06
-0.000135116
-1.00121e-05
-0.000130884
-1.26844e-05
-0.000125903
-1.49543e-05
-0.000119988
-1.77418e-05
-0.000113273
-2.0161e-05
-0.00010581
-2.23722e-05
-9.73899e-05
-2.52648e-05
-8.81169e-05
-2.78123e-05
-7.80608e-05
-3.01645e-05
-6.7081e-05
-3.2927e-05
-5.53256e-05
-3.52643e-05
-4.27045e-05
-3.78491e-05
-2.93554e-05
-4.00457e-05
-1.53532e-05
-4.20034e-05
-4.80304e-07
-4.46172e-05
1.4608e-05
-4.52319e-05
-4.64656e-05
0.000204325
2.76967e-05
0.000195513
3.5164e-05
0.000184574
4.36529e-05
0.000171608
5.17431e-05
0.000157127
5.78004e-05
0.000141118
6.38952e-05
0.000124014
6.82342e-05
0.000105996
7.19385e-05
8.72903e-05
7.46523e-05
6.82898e-05
7.59186e-05
4.91361e-05
7.64883e-05
3.00266e-05
7.63259e-05
1.12397e-05
7.50357e-05
-6.93556e-06
7.26124e-05
-2.447e-05
7.00501e-05
-4.12681e-05
6.71221e-05
-5.71844e-05
6.36137e-05
-7.21437e-05
5.98047e-05
-8.6151e-05
5.60053e-05
-9.91447e-05
5.1956e-05
-0.000111108
4.78451e-05
-0.000122081
4.3888e-05
-0.000132066
3.99372e-05
-0.000141076
3.60427e-05
-0.000149151
3.23127e-05
-0.000156323
2.86946e-05
-0.000162634
2.52511e-05
-0.000168115
2.19331e-05
-0.000172804
1.87568e-05
-0.000176718
1.5656e-05
-0.000179897
1.27143e-05
-0.000182335
9.75827e-06
-0.000184073
6.94167e-06
-0.000185098
4.11503e-06
-0.000185408
1.32937e-06
-0.000184988
-1.57661e-06
-0.000183855
-4.54371e-06
-0.000182018
-7.42951e-06
-0.000179437
-1.02513e-05
-0.000176044
-1.35834e-05
-0.000171898
-1.65959e-05
-0.000166873
-2.01174e-05
-0.000161031
-2.33864e-05
-0.000154385
-2.66368e-05
-0.000146681
-3.08087e-05
-0.000138097
-3.4396e-05
-0.000128628
-3.78332e-05
-0.000118066
-4.22487e-05
-0.000106525
-4.61542e-05
-9.40844e-05
-4.97674e-05
-8.05721e-05
-5.40561e-05
-6.61474e-05
-5.76373e-05
-5.0818e-05
-6.12241e-05
-3.44964e-05
-6.53142e-05
-1.76607e-05
-6.73311e-05
-1.55604e-07
-6.99224e-05
1.79199e-05
-7.22081e-05
3.62011e-05
-7.30562e-05
5.47053e-05
-7.39123e-05
7.31375e-05
-7.36387e-05
9.13565e-05
-7.27648e-05
0.000109214
-7.12921e-05
0.000126262
-6.80755e-05
0.000142421
-6.45232e-05
0.0001575
-6.0184e-05
0.000171115
-5.43662e-05
0.000183169
-4.81056e-05
0.000193488
-4.11782e-05
0.000201887
-3.35637e-05
0.000208197
-2.51708e-05
0.000212296
-1.63505e-05
0.000214191
-7.48651e-06
0.000213604
2.31429e-06
0.000210701
1.15956e-05
0.000205489
2.0997e-05
0.000198035
2.96663e-05
0.000188543
3.79023e-05
0.000176991
4.60425e-05
0.000163802
5.26602e-05
0.00014899
5.901e-05
0.000132848
6.45131e-05
0.000115656
6.87947e-05
9.76562e-05
7.16821e-05
7.90719e-05
7.42038e-05
6.02669e-05
7.49942e-05
4.13121e-05
7.56664e-05
2.25278e-05
7.4994e-05
4.03107e-06
7.38564e-05
-1.40873e-05
7.23449e-05
-3.16678e-05
7.01825e-05
-4.85233e-05
6.72918e-05
-6.45773e-05
6.41004e-05
-7.96799e-05
6.04109e-05
-9.38433e-05
5.64473e-05
-0.00010689
5.20732e-05
-0.000118861
4.79137e-05
-0.000129674
4.32202e-05
-0.000139358
3.87377e-05
-0.000147922
3.42163e-05
-0.00015537
2.97937e-05
-0.000161779
2.5635e-05
-0.000167202