/*--------------------------------*- C++ -*----------------------------------*\
| =========                 |                                                 |
| \\      /  F ield         | OpenFOAM: The Open Source CFD Toolbox           |
|  \\    /   O peration     | Version:  3.0.1                                 |
|   \\  /    A nd           | Web:      www.OpenFOAM.org                      |
|    \\/     M anipulation  |                                                 |
\*---------------------------------------------------------------------------*/
FoamFile
{
    version     2.0;
    format      ascii;
    class       volScalarField;
    location    "74.4";
    object      p_rgh;
}
// * * * * * * * * * * * * * * * * * * * * * * * * * * * * * * * * * * * * * //

dimensions      [1 -1 -2 0 0 0 0];

internalField   nonuniform List<scalar> 
21420
(
217.189
185.198
152.238
118.723
85.1815
52.6227
21.5299
-10.8729
-42.4407
-72.7806
-101.676
-128.961
-154.54
-178.354
-200.368
-220.578
-238.992
-255.64
-270.564
-283.804
-295.408
-305.424
-313.892
-320.849
-326.33
-330.359
-332.901
-333.959
-333.586
-331.742
-328.38
-323.479
-316.985
-308.863
-299.054
-287.509
-274.184
-259.032
-242.008
-223.1
-202.291
-179.587
-155.031
-128.67
-100.604
-70.9788
-39.9561
-7.72136
25.3816
58.873
92.9671
127.192
161.173
194.493
226.753
257.591
286.622
313.476
337.824
359.357
377.797
392.909
404.489
412.382
416.491
416.663
412.94
405.332
393.901
378.831
360.286
338.524
313.83
286.521
256.98
225.595
192.758
158.887
124.394
89.684
55.2038
21.2524
-12.0471
-44.3507
-75.3935
-104.949
-132.842
-158.923
-183.093
-205.278
-225.431
-243.537
-259.603
-273.656
-285.739
-295.915
-304.254
-310.834
-315.746
-319.074
-320.872
-321.179
-320.112
-317.684
-313.922
-308.839
-302.436
-294.703
-285.616
-275.153
-263.29
-249.994
-235.235
-218.988
-201.237
-181.97
-161.181
-138.882
-115.097
-89.8715
-63.2644
-35.3609
-6.26959
23.8744
54.9073
86.5699
118.633
150.812
182.787
214.204
244.685
273.837
301.256
326.542
349.307
369.185
385.844
398.995
408.401
413.892
415.273
412.635
405.948
395.26
380.752
362.64
341.194
316.738
289.639
260.303
229.16
196.658
163.248
129.372
95.4587
61.9041
29.0668
-2.74251
-33.2603
-62.2749
-89.6261
-115.202
-138.937
-160.807
-180.821
-199.015
-215.444
-230.171
-243.264
-254.79
-264.808
-273.376
-280.548
-286.367
-290.871
-294.106
-296.094
-296.843
-296.376
-294.722
-291.874
-287.826
-282.575
-276.113
-268.425
-259.493
-249.294
-237.794
-224.956
-210.746
-195.122
-178.053
-159.506
-139.462
-117.918
-94.8856
-70.3961
-44.5097
-17.3185
11.0517
40.4403
70.6832
101.487
132.618
163.781
194.652
224.881
254.096
281.914
307.948
331.814
353.143
371.595
386.862
398.682
406.841
411.186
411.58
408.067
400.688
389.501
374.707
356.548
335.318
311.362
285.066
256.842
227.124
196.343
164.918
133.244
101.684
70.5753
40.1681
10.7163
-17.5795
-44.5631
-70.1177
-94.1605
-116.641
-137.531
-156.825
-174.533
-190.674
-205.28
-218.384
-230.024
-240.245
-249.094
-256.618
-262.86
-267.867
-271.677
-274.33
-275.86
-276.265
-275.555
-273.78
-270.916
-266.964
-261.924
-255.791
-248.556
-240.211
-230.743
-220.123
-208.325
-195.331
-181.108
-165.624
-148.852
-130.766
-111.347
-90.5807
-68.4625
-45.0075
-20.2434
5.78347
32.9861
61.2787
90.5649
120.703
151.031
181.334
211.34
240.712
269.067
296.032
321.204
344.202
364.65
382.187
396.494
407.286
414.324
417.457
416.524
411.557
402.567
389.718
373.307
353.614
330.976
305.809
278.541
249.601
219.463
188.57
157.339
126.16
95.3889
65.3553
36.4416
9.07088
-17.4099
-42.7304
-66.7574
-89.4424
-110.769
-130.753
-149.43
-166.839
-183.023
-198.023
-211.868
-224.579
-236.156
-246.591
-255.86
-263.927
-270.742
-276.25
-280.388
-283.092
-284.269
-283.841
-281.741
-277.889
-272.266
-264.824
-255.549
-244.442
-231.5
-216.751
-200.23
-181.986
-162.085
-140.614
-117.66
-93.3375
-67.8142
-41.2948
-14.2328
10.4114
35.2362
62.0772
89.6053
217.221
185.214
152.236
118.705
85.1522
52.5792
21.4686
-10.9411
-42.5148
-72.859
-101.757
-129.044
-154.622
-178.435
-200.448
-220.656
-239.067
-255.713
-270.634
-283.871
-295.473
-305.486
-313.952
-320.908
-326.387
-330.415
-332.957
-334.016
-333.646
-331.801
-328.44
-323.542
-317.051
-308.931
-299.124
-287.582
-274.26
-259.111
-242.089
-223.182
-202.374
-179.671
-155.115
-128.752
-100.683
-71.0536
-40.0247
-7.78293
25.3313
58.8314
92.9378
127.177
161.173
194.509
226.785
257.64
286.688
313.558
337.922
359.468
377.921
393.043
404.631
412.531
416.649
416.812
413.086
405.475
394.037
378.957
360.399
338.622
313.912
286.585
257.027
225.623
192.768
158.88
124.371
89.6461
55.1543
21.192
-12.1173
-44.4293
-75.4788
-105.04
-132.936
-159.02
-183.19
-205.376
-225.528
-243.633
-259.697
-273.748
-285.829
-296.001
-304.336
-310.913
-315.822
-319.147
-320.941
-321.247
-320.178
-317.75
-313.988
-308.904
-302.502
-294.77
-285.685
-275.223
-263.361
-250.067
-235.31
-219.065
-201.316
-182.049
-161.261
-138.962
-115.178
-89.9509
-63.3419
-35.4355
-6.34025
23.8094
54.8495
86.5211
118.594
150.786
182.775
214.208
244.706
273.875
301.313
326.616
349.399
369.292
385.965
399.128
408.543
414.04
415.426
412.78
406.09
395.394
380.875
362.749
341.287
316.813
289.695
260.34
229.177
196.656
163.227
129.335
95.4064
61.839
28.9909
-2.82692
-33.351
-62.3698
-89.7232
-115.3
-139.034
-160.902
-180.913
-199.104
-215.529
-230.252
-243.342
-254.865
-264.88
-273.446
-280.616
-286.433
-290.935
-294.169
-296.156
-296.903
-296.436
-294.782
-291.934
-287.886
-282.636
-276.174
-268.487
-259.556
-249.359
-237.861
-225.025
-210.817
-195.196
-178.128
-159.583
-139.541
-117.997
-94.9646
-70.4743
-44.5855
-17.391
10.9842
40.3797
70.6297
101.443
132.586
163.762
194.647
224.891
254.123
281.958
308.009
331.892
353.237
371.704
386.984
398.814
406.981
411.335
411.723
408.208
400.824
389.629
374.823
356.65
335.403
311.429
285.114
256.872
227.135
196.336
164.895
133.207
101.635
70.5165
40.1005
10.6423
-17.6583
-44.6451
-70.2014
-94.2447
-116.725
-137.614
-156.906
-174.612
-190.751
-205.355
-218.457
-230.095
-240.313
-249.16
-256.681
-262.922
-267.927
-271.735
-274.387
-275.916
-276.319
-275.61
-273.835
-270.97
-267.019
-261.979
-255.846
-248.611
-240.267
-230.799
-220.18
-208.384
-195.391
-181.17
-165.687
-148.917
-130.832
-111.413
-90.648
-68.5302
-45.0752
-20.3101
5.71773
32.9226
61.2187
90.5124
120.663
151.002
181.316
211.335
240.722
269.093
296.077
321.267
344.283
364.75
382.303
396.625
407.429
414.475
417.612
416.69
411.704
402.71
389.852
373.427
353.718
331.061
305.874
278.586
249.627
219.471
188.561
157.314
126.122
95.3405
65.2974
36.3849
9.00882
-17.4749
-42.7963
-66.8229
-89.5064
-110.831
-130.812
-149.487
-166.893
-183.075
-198.073
-211.917
-224.626
-236.203
-246.638
-255.909
-263.977
-270.794
-276.304
-280.445
-283.152
-284.33
-283.907
-281.809
-277.959
-272.337
-264.897
-255.623
-244.517
-231.575
-216.826
-200.303
-182.058
-162.156
-140.683
-117.726
-93.4
-67.8723
-41.348
-14.2848
10.3815
35.201
62.049
89.5862
217.286
185.244
152.233
118.671
85.0933
52.4919
21.3462
-11.0777
-42.663
-73.0158
-101.92
-129.209
-154.788
-178.599
-200.609
-220.812
-239.219
-255.859
-270.774
-284.006
-295.602
-305.611
-314.073
-321.026
-326.502
-330.527
-333.069
-334.134
-333.766
-331.921
-328.562
-323.667
-317.181
-309.066
-299.265
-287.728
-274.412
-259.267
-242.25
-223.347
-202.542
-179.84
-155.283
-128.916
-100.841
-71.2027
-40.1617
-7.90535
25.2307
58.7487
92.8798
127.146
161.173
194.542
226.851
257.74
286.821
313.723
338.117
359.692
378.169
393.312
404.917
412.83
416.966
417.109
413.38
405.763
394.312
379.212
360.628
338.822
314.079
286.718
257.124
225.684
192.794
158.872
124.332
89.5797
55.0658
21.0828
-12.2445
-44.572
-75.6336
-105.203
-133.105
-159.193
-183.366
-205.551
-225.702
-243.803
-259.863
-273.908
-285.983
-296.149
-304.477
-311.047
-315.95
-319.268
-321.054
-321.359
-320.287
-317.856
-314.093
-309.01
-302.61
-294.879
-285.797
-275.34
-263.481
-250.191
-235.438
-219.196
-201.45
-182.186
-161.399
-139.101
-115.316
-90.0876
-63.475
-35.5631
-6.45983
23.701
54.7553
86.4447
118.539
150.756
182.773
214.237
244.768
273.973
301.446
326.786
349.602
369.528
386.229
399.415
408.846
414.353
415.754
413.091
406.393
395.682
381.141
362.987
341.493
316.983
289.827
260.433
229.232
196.673
163.208
129.282
95.3246
61.7319
28.8627
-2.97162
-33.5078
-62.5346
-89.8923
-115.47
-139.202
-161.065
-181.071
-199.255
-215.672
-230.388
-243.472
-254.988
-264.997
-273.559
-280.724
-286.537
-291.037
-294.268
-296.254
-296.996
-296.531
-294.878
-292.029
-287.982
-282.733
-276.273
-268.588
-259.66
-249.466
-237.971
-225.141
-210.937
-195.32
-178.256
-159.715
-139.676
-118.134
-95.1016
-70.6096
-44.7165
-17.5154
10.8696
40.2784
70.5426
101.376
132.541
163.742
194.656
224.931
254.195
282.065
308.15
332.067
353.444
371.94
387.245
399.096
407.278
411.643
412.032
408.509
401.114
389.901
375.072
356.87
335.591
311.581
285.228
256.948
227.175
196.342
164.869
133.153
101.556
70.4196
39.9863
10.5156
-17.7941
-44.7867
-70.346
-94.3902
-116.869
-137.756
-157.045
-174.747
-190.882
-205.481
-218.578
-230.211
-240.425
-249.268
-256.784
-263.021
-268.022
-271.828
-274.478
-276.004
-276.404
-275.698
-273.921
-271.057
-267.105
-262.067
-255.934
-248.701
-240.359
-230.893
-220.277
-208.484
-195.494
-181.276
-165.797
-149.03
-130.948
-111.533
-90.7703
-68.6541
-45.2001
-20.434
5.59498
32.8036
61.1061
90.4134
120.589
150.948
181.284
211.329
240.746
269.15
296.169
321.396
344.448
364.95
382.537
396.888
407.716
414.779
417.925
417.018
412.003
402.999
390.122
373.668
353.925
331.231
306.005
278.677
249.679
219.486
188.542
157.265
126.048
95.2436
65.1818
36.2713
8.88461
-17.6048
-42.9281
-66.9539
-89.6345
-110.954
-130.93
-149.599
-167.001
-183.177
-198.172
-212.013
-224.721
-236.298
-246.734
-256.007
-264.078
-270.898
-276.413
-280.559
-283.272
-284.451
-284.04
-281.944
-278.097
-272.479
-265.043
-255.771
-244.666
-231.725
-216.975
-200.451
-182.204
-162.298
-140.82
-117.858
-93.5249
-67.9885
-41.4543
-14.3878
10.3205
35.1303
61.9926
89.548
217.383
185.289
152.228
118.618
85.0037
52.3614
21.1629
-11.2825
-42.8855
-73.2512
-102.163
-129.457
-155.036
-178.845
-200.85
-221.047
-239.446
-256.077
-270.984
-284.208
-295.797
-305.799
-314.255
-321.203
-326.675
-330.695
-333.235
-334.311
-333.945
-332.1
-328.745
-323.855
-317.377
-309.269
-299.476
-287.948
-274.639
-259.503
-242.492
-223.595
-202.794
-180.093
-155.534
-129.162
-101.078
-71.4266
-40.3673
-8.08858
25.079
58.6241
92.7925
127.101
161.174
194.59
226.95
257.889
287.02
313.971
338.411
360.027
378.541
393.716
405.345
413.277
417.431
417.564
413.825
406.195
394.725
379.594
360.972
339.122
314.33
286.917
257.27
225.776
192.834
158.862
124.275
89.4807
54.9338
20.9196
-12.4345
-44.7852
-75.8648
-105.448
-133.359
-159.452
-183.627
-205.812
-225.96
-244.057
-260.111
-274.148
-286.213
-296.368
-304.685
-311.245
-316.138
-319.448
-321.222
-321.524
-320.447
-318.014
-314.25
-309.168
-302.769
-295.041
-285.964
-275.512
-263.659
-250.374
-235.626
-219.39
-201.648
-182.388
-161.603
-139.306
-115.521
-90.29
-63.6719
-35.7517
-6.6364
23.541
54.6171
86.3331
118.46
150.713
182.773
214.283
244.865
274.123
301.65
327.043
349.912
369.885
386.628
399.848
409.306
414.825
416.245
413.565
406.852
396.118
381.543
363.347
341.805
317.241
290.029
260.577
229.317
196.701
163.182
129.207
95.2051
61.5744
28.6735
-3.1857
-33.7402
-62.779
-90.143
-115.722
-139.451
-161.308
-181.305
-199.478
-215.884
-230.59
-243.663
-255.169
-265.17
-273.725
-280.884
-286.692
-291.187
-294.415
-296.396
-297.134
-296.672
-295.018
-292.17
-288.124
-282.876
-276.418
-268.737
-259.813
-249.624
-238.135
-225.311
-211.114
-195.505
-178.447
-159.91
-139.876
-118.337
-95.3048
-70.8102
-44.9109
-17.6998
10.7002
40.1289
70.4146
101.277
132.475
163.716
194.672
224.993
254.307
282.227
308.364
332.331
353.757
372.296
387.64
399.522
407.726
412.101
412.504
408.965
401.553
390.313
375.449
357.203
335.875
311.811
285.403
257.066
227.238
196.353
164.833
133.075
101.44
70.2769
39.8176
10.328
-17.9954
-44.9967
-70.5607
-94.606
-117.083
-137.967
-157.251
-174.947
-191.076
-205.668
-218.758
-230.384
-240.59
-249.426
-256.937
-263.168
-268.164
-271.965
-274.612
-276.134
-276.53
-275.827
-274.049
-271.184
-267.234
-262.196
-256.065
-248.834
-240.495
-231.032
-220.42
-208.633
-195.648
-181.435
-165.961
-149.199
-131.123
-111.713
-90.9534
-68.8398
-45.3872
-20.6196
5.41094
32.6253
60.9375
90.2641
120.477
150.866
181.236
211.32
240.782
269.236
296.307
321.588
344.696
365.251
382.887
397.283
408.146
415.235
418.394
417.508
412.453
403.432
390.525
374.029
354.236
331.486
306.201
278.813
249.756
219.508
188.514
157.191
125.935
95.0981
65.0086
36.1006
8.69783
-17.7999
-43.1259
-67.1506
-89.8267
-111.14
-131.108
-149.769
-167.162
-183.332
-198.32
-212.157
-224.863
-236.439
-246.877
-256.153
-264.228
-271.055
-276.577
-280.729
-283.45
-284.635
-284.238
-282.147
-278.305
-272.693
-265.261
-255.993
-244.89
-231.95
-217.199
-200.673
-182.422
-162.511
-141.027
-118.056
-93.7124
-68.1629
-41.6134
-14.5392
10.2262
35.0234
61.9078
89.4906
217.512
185.35
152.22
118.548
84.8815
52.1888
20.9189
-11.5558
-43.1824
-73.5653
-102.488
-129.787
-155.367
-179.173
-201.171
-221.36
-239.748
-256.369
-271.264
-284.477
-296.055
-306.048
-314.497
-321.438
-326.905
-330.919
-333.459
-334.546
-334.181
-332.338
-328.988
-324.106
-317.637
-309.541
-299.758
-288.24
-274.943
-259.816
-242.815
-223.925
-203.129
-180.431
-155.87
-129.491
-101.394
-71.7254
-40.6416
-8.33219
24.8752
58.4575
92.6757
127.04
161.174
194.655
227.081
258.087
287.286
314.301
338.802
360.474
379.037
394.254
405.916
413.873
418.037
418.179
414.424
406.773
395.275
380.103
361.43
339.522
314.665
287.183
257.464
225.898
192.886
158.848
124.198
89.3482
54.7577
20.7015
-12.6884
-45.0699
-76.1734
-105.774
-133.697
-159.798
-183.976
-206.161
-226.306
-244.396
-260.441
-274.467
-286.52
-296.661
-304.963
-311.51
-316.389
-319.685
-321.447
-321.744
-320.66
-318.223
-314.458
-309.377
-302.981
-295.257
-286.186
-275.741
-263.895
-250.617
-235.877
-219.648
-201.912
-182.656
-161.876
-139.58
-115.794
-90.5596
-63.9343
-36.0032
-6.87143
23.3275
54.4333
86.1845
118.354
150.657
182.773
214.346
244.995
274.323
301.923
327.388
350.325
370.362
387.161
400.428
409.92
415.457
416.896
414.203
407.467
396.7
382.081
363.829
342.222
317.587
290.3
260.769
229.432
196.74
163.149
129.107
95.0458
61.3644
28.4213
-3.47119
-34.0501
-63.105
-90.4775
-116.058
-139.783
-161.632
-181.616
-199.776
-216.167
-230.859
-243.918
-255.411
-265.402
-273.947
-281.098
-286.898
-291.387
-294.61
-296.585
-297.322
-296.859
-295.205
-292.357
-288.313
-283.067
-276.612
-268.935
-260.017
-249.834
-238.354
-225.539
-211.351
-195.75
-178.7
-160.171
-140.143
-118.608
-95.5756
-71.0776
-45.1701
-17.9456
10.4745
39.9294
70.2439
101.145
132.389
163.68
194.694
225.077
254.457
282.445
308.651
332.685
354.175
372.773
388.168
400.09
408.324
412.714
413.13
409.577
402.139
390.864
375.952
357.649
336.254
312.119
285.636
257.224
227.322
196.368
164.785
132.971
101.285
70.0867
39.5924
10.0776
-18.2638
-45.2769
-70.8469
-94.8939
-117.369
-138.248
-157.525
-175.213
-191.334
-205.917
-218.997
-230.613
-240.811
-249.638
-257.14
-263.363
-268.352
-272.147
-274.789
-276.305
-276.701
-275.998
-274.219
-271.354
-267.405
-262.369
-256.24
-249.012
-240.676
-231.217
-220.611
-208.831
-195.852
-181.646
-166.18
-149.425
-131.356
-111.952
-91.1977
-69.0877
-45.6368
-20.8676
5.16528
32.3877
60.7124
90.0633
120.327
150.757
181.171
211.307
240.829
269.349
296.491
321.844
345.025
365.652
383.355
397.809
408.721
415.844
419.021
418.15
413.066
404.013
391.065
374.512
354.651
331.826
306.462
278.995
249.86
219.538
188.476
157.091
125.785
94.9039
64.778
35.872
8.448
-18.0604
-43.39
-67.4129
-90.0832
-111.387
-131.345
-149.995
-167.377
-183.537
-198.518
-212.35
-225.052
-236.628
-247.068
-256.348
-264.429
-271.264
-276.794
-280.957
-283.686
-284.882
-284.502
-282.417
-278.582
-272.978
-265.553
-256.289
-245.189
-232.249
-217.498
-200.969
-182.713
-162.795
-141.302
-118.32
-93.9626
-68.3955
-41.8249
-14.7351
10.0946
34.8794
61.7944
89.414
217.674
185.425
152.211
118.458
84.7237
51.9761
20.6146
-11.8977
-43.5542
-73.9585
-102.895
-130.201
-155.781
-179.583
-201.573
-221.751
-240.126
-256.733
-271.615
-284.813
-296.379
-306.36
-314.799
-321.733
-327.193
-331.2
-333.742
-334.837
-334.474
-332.635
-329.293
-324.419
-317.963
-309.879
-300.111
-288.606
-275.322
-260.208
-243.219
-224.338
-203.549
-180.853
-156.29
-129.902
-101.79
-72.0995
-40.985
-8.6366
24.6191
58.2485
92.5292
126.964
161.174
194.736
227.245
258.335
287.618
314.714
339.291
361.032
379.658
394.927
406.63
414.616
418.793
418.946
415.178
407.498
395.964
380.741
362.003
340.022
315.084
287.515
257.707
226.05
192.951
158.83
124.102
89.1821
54.5371
20.4278
-13.0067
-45.4267
-76.56
-106.183
-134.12
-160.23
-184.413
-206.597
-226.738
-244.82
-260.854
-274.866
-286.903
-297.027
-305.311
-311.84
-316.701
-319.98
-321.722
-322.018
-320.926
-318.485
-314.718
-309.638
-303.246
-295.528
-286.464
-276.028
-264.19
-250.922
-236.191
-219.971
-202.243
-182.993
-162.216
-139.923
-116.136
-90.8969
-64.2629
-36.3179
-7.16592
23.0595
54.2033
85.9982
118.22
150.586
182.772
214.423
245.157
274.574
302.263
327.818
350.842
370.959
387.829
401.154
410.688
416.251
417.703
415.005
408.238
397.43
382.753
364.431
342.743
318.02
290.638
261.01
229.574
196.787
163.106
128.981
94.8457
61.1009
28.1051
-3.82905
-34.4384
-63.5133
-90.8964
-116.479
-140.199
-162.037
-182.007
-200.148
-216.521
-231.195
-244.237
-255.714
-265.691
-274.224
-281.364
-287.156
-291.638
-294.853
-296.821
-297.558
-297.094
-295.438
-292.592
-288.549
-283.306
-276.855
-269.184
-260.273
-250.097
-238.627
-225.823
-211.647
-196.057
-179.018
-160.498
-140.476
-118.946
-95.9149
-71.4127
-45.4948
-18.2535
10.1915
39.6789
70.0302
100.98
132.28
163.636
194.72
225.181
254.643
282.717
309.009
333.128
354.698
373.369
388.828
400.802
409.073
413.482
413.909
410.346
402.874
391.554
376.582
358.206
336.729
312.505
285.927
257.42
227.426
196.385
164.724
132.84
101.091
69.848
39.31
9.76381
-18.6002
-45.6279
-71.2053
-95.2543
-117.727
-138.599
-157.868
-175.547
-191.656
-206.228
-219.297
-230.901
-241.088
-249.903
-257.394
-263.607
-268.587
-272.375
-275.011
-276.519
-276.915
-276.212
-274.431
-271.567
-267.619
-262.585
-256.458
-249.233
-240.903
-231.449
-220.849
-209.079
-196.108
-181.911
-166.453
-149.707
-131.647
-112.252
-91.5033
-69.398
-45.9491
-21.1783
4.85785
32.091
60.4307
89.8102
120.139
150.62
181.089
211.29
240.887
269.489
296.72
322.164
345.437
366.153
383.939
398.467
409.44
416.606
419.805
418.944
413.837
404.741
391.74
375.115
355.169
332.25
306.788
279.221
249.989
219.574
188.427
156.967
125.596
94.6606
64.4904
35.5849
8.13456
-18.3865
-43.7206
-67.7413
-90.404
-111.697
-131.641
-150.277
-167.646
-183.794
-198.765
-212.59
-225.289
-236.864
-247.306
-256.591
-264.68
-271.525
-277.066
-281.241
-283.981
-285.194
-284.83
-282.755
-278.929
-273.335
-265.917
-256.659
-245.563
-232.624
-217.872
-201.338
-183.076
-163.151
-141.647
-118.651
-94.2757
-68.6866
-42.0885
-14.9699
9.92011
34.6973
61.6521
89.3181
217.867
185.514
152.198
118.35
84.5303
51.7217
20.2497
-12.3085
-44.001
-74.4311
-103.384
-130.698
-156.279
-180.075
-202.055
-222.22
-240.58
-257.171
-272.035
-285.217
-296.767
-306.735
-315.161
-322.086
-327.538
-331.539
-334.083
-335.183
-334.825
-332.991
-329.658
-324.795
-318.354
-310.286
-300.533
-289.045
-275.778
-260.679
-243.704
-224.834
-204.052
-181.36
-156.794
-130.396
-102.265
-72.5492
-41.3976
-9.00223
24.3105
57.9964
92.3523
126.871
161.173
194.833
227.441
258.633
288.016
315.21
339.878
361.703
380.404
395.735
407.488
415.51
419.701
419.865
416.085
408.37
396.792
381.507
362.692
340.623
315.586
287.914
257.998
226.233
193.028
158.807
123.985
88.9817
54.2716
20.0983
-13.3899
-45.856
-77.0251
-106.675
-134.629
-160.75
-184.938
-207.121
-227.257
-245.329
-261.35
-275.346
-287.364
-297.467
-305.729
-312.237
-317.077
-320.334
-322.063
-322.346
-321.246
-318.799
-315.031
-309.952
-303.564
-295.853
-286.797
-276.372
-264.545
-251.287
-236.568
-220.359
-202.64
-183.397
-162.626
-140.335
-116.547
-91.3023
-64.6581
-36.6963
-7.52043
22.7364
53.9265
85.7736
118.059
150.499
182.771
214.516
245.351
274.874
302.672
328.335
351.462
371.676
388.631
402.025
411.612
417.205
418.67
415.969
409.166
398.306
383.561
365.155
343.37
318.539
291.043
261.298
229.745
196.843
163.053
128.829
94.6042
60.7833
27.724
-4.25992
-34.9057
-64.0047
-91.4004
-116.986
-140.7
-162.524
-182.475
-200.596
-216.947
-231.598
-244.62
-256.078
-266.038
-274.558
-281.685
-287.465
-291.938
-295.145
-297.106
-297.84
-297.375
-295.719
-292.873
-288.833
-283.593
-277.147
-269.482
-260.579
-250.413
-238.955
-226.165
-212.002
-196.426
-179.4
-160.89
-140.877
-119.353
-96.3229
-71.8156
-45.8855
-18.6239
9.85058
39.3766
69.773
100.781
132.149
163.581
194.751
225.305
254.866
283.043
309.438
333.659
355.326
374.085
389.62
401.657
409.973
414.406
414.842
411.27
403.757
392.383
377.339
358.876
337.299
312.967
286.276
257.655
227.55
196.405
164.649
132.682
100.864
69.5529
38.9695
9.386
-19.005
-46.0501
-71.6365
-95.6876
-118.157
-139.022
-158.281
-175.948
-192.044
-206.603
-219.657
-231.247
-241.42
-250.221
-257.699
-263.901
-268.869
-272.649
-275.276
-276.778
-277.173
-276.469
-274.686
-271.823
-267.877
-262.844
-256.72
-249.5
-241.175
-231.727
-221.136
-209.376
-196.415
-182.229
-166.781
-150.047
-131.997
-112.612
-91.87
-69.7708
-46.3243
-21.5519
4.48863
31.7349
60.0921
89.5036
119.913
150.454
180.99
211.269
240.955
269.657
296.994
322.547
345.932
366.755
384.641
399.258
410.303
417.522
420.75
419.896
414.766
405.619
392.551
375.84
355.792
332.76
307.18
279.492
250.142
219.617
188.368
156.816
125.367
94.3678
64.1458
35.2382
7.75703
-18.7785
-44.1179
-68.1358
-90.7894
-112.069
-131.997
-150.615
-167.968
-184.102
-199.062
-212.878
-225.572
-237.147
-247.592
-256.883
-264.982
-271.837
-277.393
-281.582
-284.335
-285.567
-285.223
-283.16
-279.346
-273.763
-266.354
-257.104
-246.012
-233.074
-218.32
-201.783
-183.513
-163.578
-142.061
-119.048
-94.6519
-69.0362
-42.4043
-15.2415
9.70035
34.4767
61.4807
89.203
218.093
185.618
152.182
118.221
84.3013
51.4241
19.8241
-12.7886
-44.5234
-74.9836
-103.955
-131.278
-156.86
-180.65
-202.619
-222.768
-241.11
-257.681
-272.525
-285.688
-297.22
-307.171
-315.584
-322.497
-327.941
-331.935
-334.48
-335.585
-335.232
-333.406
-330.084
-325.234
-318.809
-310.76
-301.026
-289.557
-276.31
-261.228
-244.27
-225.414
-204.641
-181.953
-157.384
-130.974
-102.822
-73.0749
-41.8801
-9.42952
23.9488
57.7007
92.1449
126.763
161.171
194.944
227.669
258.98
288.481
315.788
340.563
362.487
381.274
396.679
408.489
416.552
420.764
420.938
417.142
409.39
397.759
382.401
363.496
341.324
316.172
288.378
258.337
226.445
193.118
158.778
123.847
88.7467
53.9606
19.7125
-13.8384
-46.3583
-77.5689
-107.249
-135.225
-161.358
-185.551
-207.734
-227.863
-245.925
-261.93
-275.906
-287.902
-297.98
-306.218
-312.699
-317.515
-320.748
-322.46
-322.73
-321.618
-319.165
-315.395
-310.318
-303.935
-296.232
-287.187
-276.773
-264.959
-251.715
-237.008
-220.812
-203.104
-183.87
-163.104
-140.816
-117.027
-91.7763
-65.1202
-37.1387
-7.93542
22.3573
53.6029
85.5101
117.87
150.397
182.767
214.622
245.576
275.223
303.149
328.938
352.187
372.513
389.567
403.044
412.691
418.321
419.801
417.093
410.249
399.331
384.505
366
344.101
319.145
291.516
261.633
229.943
196.907
162.99
128.649
94.3204
60.4109
27.2774
-4.76452
-35.4528
-64.5797
-91.99
-117.578
-141.285
-163.094
-183.023
-201.119
-217.444
-232.069
-245.067
-256.503
-266.444
-274.947
-282.058
-287.826
-292.289
-295.486
-297.44
-298.17
-297.703
-296.047
-293.202
-289.164
-283.928
-277.487
-269.83
-260.937
-250.783
-239.338
-226.564
-212.418
-196.858
-179.845
-161.349
-141.346
-119.828
-96.8
-72.2868
-46.3429
-19.0572
9.45114
39.0216
69.4724
100.548
131.994
163.516
194.786
225.448
255.125
283.422
309.939
334.279
356.059
374.921
390.546
402.656
411.025
415.487
415.934
412.347
404.789
393.351
378.223
359.657
337.964
313.506
286.683
257.929
227.694
196.427
164.56
132.495
100.596
69.2085
38.5706
8.94353
-19.4787
-46.5442
-72.1407
-96.1942
-118.66
-139.516
-158.763
-176.416
-192.497
-207.039
-220.077
-231.651
-241.807
-250.593
-258.056
-264.243
-269.199
-272.968
-275.586
-277.08
-277.474
-276.767
-274.984
-272.121
-268.177
-263.147
-257.026
-249.81
-241.492
-232.052
-221.471
-209.723
-196.774
-182.6
-167.164
-150.442
-132.405
-113.031
-92.2981
-70.2062
-46.7625
-21.9884
4.05769
31.3192
59.6961
89.142
119.648
150.259
180.872
211.241
241.034
269.852
297.313
322.994
346.508
367.457
385.461
400.181
411.312
418.593
421.854
421.006
415.856
406.647
393.499
376.686
356.519
333.355
307.636
279.807
250.321
219.665
188.298
156.639
125.099
94.0248
63.7442
34.8308
7.31505
-19.2367
-44.5823
-68.5968
-91.2394
-112.503
-132.412
-151.01
-168.344
-184.461
-199.407
-213.214
-225.903
-237.476
-247.925
-257.224
-265.333
-272.202
-277.773
-281.979
-284.75
-286.003
-285.68
-283.632
-279.832
-274.262
-266.864
-257.623
-246.536
-233.6
-218.844
-202.301
-184.023
-164.076
-142.544
-119.512
-95.0914
-69.4448
-42.7728
-15.5565
9.44108
34.2172
61.28
89.0685
218.35
185.736
152.163
118.072
84.0364
51.0816
19.3374
-13.3385
-45.1218
-75.6163
-104.609
-131.943
-157.525
-181.308
-203.263
-223.395
-241.716
-258.264
-273.085
-286.226
-297.737
-307.67
-316.067
-322.967
-328.401
-332.389
-334.934
-336.043
-335.698
-333.88
-330.571
-325.736
-319.329
-311.302
-301.59
-290.143
-276.918
-261.857
-244.917
-226.076
-205.313
-182.631
-158.059
-131.635
-103.46
-73.6772
-42.4327
-9.91892
23.5335
57.3607
91.9061
126.637
161.168
195.071
227.929
259.376
289.011
316.449
341.347
363.383
382.269
397.759
409.635
417.745
421.981
422.164
418.353
410.557
398.866
383.424
364.416
342.126
316.842
288.909
258.724
226.686
193.218
158.744
123.688
88.4763
53.6034
19.2701
-14.353
-46.9343
-78.1921
-107.908
-135.907
-162.054
-186.254
-208.435
-228.557
-246.606
-262.593
-276.548
-288.518
-298.568
-306.776
-313.229
-318.015
-321.222
-322.916
-323.168
-322.044
-319.584
-315.811
-310.736
-304.359
-296.665
-287.632
-277.232
-265.433
-252.204
-237.512
-221.33
-203.634
-184.41
-163.652
-141.367
-117.577
-92.3194
-65.6495
-37.6459
-8.41129
21.9217
53.2317
85.207
117.651
150.278
182.762
214.742
245.831
275.621
303.693
329.627
353.015
373.471
390.639
404.209
413.927
419.6
421.097
418.379
411.49
400.503
385.585
366.968
344.938
319.838
292.057
262.016
230.168
196.979
162.917
128.442
93.9936
59.9828
26.7643
-5.34363
-36.0804
-65.2389
-92.6658
-118.257
-141.955
-163.745
-183.651
-201.717
-218.012
-232.608
-245.578
-256.989
-266.908
-275.391
-282.486
-288.24
-292.69
-295.875
-297.821
-298.548
-298.078
-296.421
-293.578
-289.543
-284.311
-277.876
-270.228
-261.345
-251.205
-239.776
-227.02
-212.892
-197.351
-180.356
-161.874
-141.883
-120.373
-97.3464
-72.8267
-46.8671
-19.5541
8.99263
38.6142
69.1269
100.28
131.815
163.439
194.824
225.611
255.42
283.855
310.511
334.987
356.897
375.878
391.606
403.799
412.229
416.726
417.183
413.579
405.972
394.46
379.235
360.552
338.725
314.122
287.148
258.241
227.857
196.451
164.457
132.28
100.286
68.814
38.1126
8.43578
-20.0219
-47.1104
-72.7187
-96.7744
-119.235
-140.081
-159.315
-176.951
-193.015
-207.539
-220.558
-232.113
-242.25
-251.018
-258.463
-264.634
-269.576
-273.333
-275.939
-277.426
-277.819
-277.108
-275.324
-272.463
-268.521
-263.494
-257.376
-250.165
-241.854
-232.423
-221.855
-210.119
-197.184
-183.024
-167.603
-150.895
-132.873
-113.511
-92.7877
-70.7044
-47.264
-22.4883
3.56525
30.8433
59.2423
88.7237
119.345
150.035
180.734
211.208
241.121
270.073
297.676
323.503
347.166
368.26
386.398
401.237
412.467
419.819
423.119
422.275
417.105
407.826
394.585
377.654
357.351
334.035
308.156
280.166
250.523
219.719
188.215
156.435
124.79
93.6304
63.2858
34.3617
6.80832
-19.7617
-45.1141
-69.1246
-91.7544
-112.999
-132.886
-151.462
-168.773
-184.871
-199.801
-213.597
-226.28
-237.853
-248.305
-257.612
-265.734
-272.619
-278.208
-282.434
-285.224
-286.501
-286.202
-284.171
-280.388
-274.834
-267.448
-258.216
-247.136
-234.201
-219.442
-202.894
-184.606
-164.646
-143.097
-120.043
-95.5946
-69.9127
-43.1944
-15.9174
9.14397
33.9188
61.0497
88.9148
218.639
185.868
152.139
117.902
83.7349
50.6928
18.7891
-13.9586
-45.7967
-76.3298
-105.347
-132.692
-158.275
-182.049
-203.989
-224.1
-242.398
-258.921
-273.716
-286.831
-298.319
-308.231
-316.61
-323.496
-328.919
-332.9
-335.444
-336.558
-336.22
-334.413
-331.118
-326.301
-319.914
-311.912
-302.224
-290.802
-277.602
-262.564
-245.645
-226.823
-206.071
-183.395
-158.819
-132.381
-104.179
-74.3566
-43.0561
-10.471
23.0637
56.9756
91.6356
126.494
161.163
195.212
228.221
259.82
289.608
317.193
342.23
364.391
383.39
398.974
410.926
419.089
423.353
423.546
419.716
411.873
400.113
384.576
365.452
343.028
317.595
289.506
259.158
226.957
193.33
158.704
123.506
88.1697
53.1991
18.7708
-14.9345
-47.5846
-78.8953
-108.65
-136.676
-162.839
-187.046
-209.225
-229.338
-247.374
-263.341
-277.271
-289.211
-299.23
-307.405
-313.824
-318.579
-321.756
-323.429
-323.66
-322.522
-320.054
-316.279
-311.206
-304.836
-297.152
-288.133
-277.749
-265.966
-252.754
-238.079
-221.913
-204.232
-185.019
-164.269
-141.988
-118.197
-92.9318
-66.2464
-38.2184
-8.94861
21.4289
52.8123
84.8635
117.403
150.142
182.754
214.876
246.117
276.068
304.304
330.402
353.948
374.549
391.847
405.523
415.32
421.042
422.558
419.826
412.889
401.824
386.803
368.057
345.88
320.618
292.664
262.446
230.42
197.057
162.831
128.206
93.6228
59.4979
26.184
-5.99823
-36.7895
-65.9833
-93.4286
-119.023
-142.71
-164.48
-184.357
-202.391
-218.652
-233.214
-246.153
-257.536
-267.43
-275.891
-282.967
-288.705
-293.142
-296.314
-298.251
-298.973
-298.499
-296.843
-294.001
-289.97
-284.743
-278.314
-270.675
-261.805
-251.68
-240.27
-227.534
-213.427
-197.906
-180.93
-162.466
-142.488
-120.987
-97.9624
-73.436
-47.4589
-20.1155
8.47441
38.1536
68.736
99.9755
131.612
163.351
194.865
225.793
255.752
284.341
311.154
335.785
357.841
376.956
392.8
405.088
413.586
418.123
418.591
414.967
407.305
395.71
380.375
361.559
339.582
314.815
287.67
258.59
228.039