/*--------------------------------*- C++ -*----------------------------------*\
| =========                 |                                                 |
| \\      /  F ield         | OpenFOAM: The Open Source CFD Toolbox           |
|  \\    /   O peration     | Version:  3.0.1                                 |
|   \\  /    A nd           | Web:      www.OpenFOAM.org                      |
|    \\/     M anipulation  |                                                 |
\*---------------------------------------------------------------------------*/
FoamFile
{
    version     2.0;
    format      ascii;
    class       surfaceScalarField;
    location    "25.6";
    object      alphaPhi;
}
// * * * * * * * * * * * * * * * * * * * * * * * * * * * * * * * * * * * * * //

dimensions      [0 3 -1 0 0 0 0];

internalField   nonuniform List<scalar> 
42423
(
-0.000177432
-1.7805e-06
-0.000174846
-2.58596e-06
-0.000171554
-3.29236e-06
-0.000167523
-4.03028e-06
-0.00016263
-4.89338e-06
-0.000156909
-5.72099e-06
-0.000150165
-6.74375e-06
-0.00014269
-7.47501e-06
-0.00013436
-8.33017e-06
-0.000124963
-9.3975e-06
-0.000114653
-1.03095e-05
-0.000103392
-1.12618e-05
-9.1026e-05
-1.23655e-05
-7.77004e-05
-1.33256e-05
-6.328e-05
-1.44205e-05
-4.79314e-05
-1.53486e-05
-3.18838e-05
-1.60477e-05
-1.48681e-05
-1.70158e-05
2.76612e-06
-1.76342e-05
2.09374e-05
-1.81713e-05
3.96171e-05
-1.86797e-05
5.86184e-05
-1.90013e-05
7.76147e-05
-1.89963e-05
9.64593e-05
-1.88446e-05
0.000114867
-1.84078e-05
0.000132684
-1.78168e-05
0.000149589
-1.69054e-05
0.000165239
-1.56502e-05
0.000179483
-1.42442e-05
0.000192026
-1.25428e-05
0.000202649
-1.06229e-05
0.000211197
-8.54818e-06
0.000217436
-6.23917e-06
0.00022132
-3.8835e-06
0.000222768
-1.44785e-06
0.000221624
1.14328e-06
0.000217979
3.64543e-06
0.000211908
6.07127e-06
0.000203549
8.35846e-06
0.000193067
1.04826e-05
0.00018063
1.24364e-05
0.000166609
1.40215e-05
0.000151081
1.55275e-05
0.000134321
1.67604e-05
0.000116704
1.76163e-05
9.8322e-05
1.83824e-05
7.9539e-05
1.8783e-05
6.0652e-05
1.8887e-05
4.1693e-05
1.8959e-05
2.30376e-05
1.86553e-05
4.90319e-06
1.81345e-05
-1.28207e-05
1.77239e-05
-2.98333e-05
1.70126e-05
-4.60459e-05
1.62126e-05
-6.13562e-05
1.53103e-05
-7.57215e-05
1.43653e-05
-8.91276e-05
1.34061e-05
-0.000101535
1.24075e-05
-0.000112933
1.13975e-05
-0.000123367
1.04341e-05
-0.000132815
9.44808e-06
-0.000141369
8.5545e-06
-0.000148998
7.62872e-06
-0.000155737
6.73857e-06
-0.000161715
5.97869e-06
-0.000166868
5.15251e-06
-0.000171129
4.26156e-06
-0.00017475
3.62102e-06
-0.000177539
2.78875e-06
-0.000179625
2.08552e-06
-0.000181059
1.43464e-06
-0.000181699
6.40034e-07
-0.000181643
-5.65031e-08
-0.000181005
-6.37749e-07
-0.000179351
-1.65382e-06
-0.000177091
-2.2603e-06
-0.000173924
-3.16695e-06
-0.000169942
-3.98186e-06
-0.000165157
-4.78512e-06
-0.000159443
-5.71432e-06
-0.000152808
-6.63501e-06
-0.000145439
-7.36974e-06
-0.000137103
-8.3352e-06
-0.000127873
-9.23049e-06
-0.000117806
-1.00674e-05
-0.000106944
-1.08616e-05
-9.5165e-05
-1.17793e-05
-8.25959e-05
-1.25691e-05
-6.92372e-05
-1.33588e-05
-5.50463e-05
-1.4191e-05
-4.01466e-05
-1.48998e-05
-2.45425e-05
-1.56041e-05
-8.37303e-06
-1.61696e-05
8.39842e-06
-1.67715e-05
2.56009e-05
-1.72025e-05
4.31562e-05
-1.75554e-05
6.08369e-05
-1.76808e-05
7.84977e-05
-1.76609e-05
9.59251e-05
-1.74275e-05
0.000112862
-1.69368e-05
0.000129158
-1.6296e-05
0.00014455
-1.53921e-05
0.000158822
-1.42721e-05
0.000171792
-1.297e-05
0.000183199
-1.14075e-05
0.000192868
-9.66939e-06
0.000200608
-7.73964e-06
0.000206251
-5.64299e-06
0.000209698
-3.44714e-06
0.000210854
-1.15558e-06
0.000209727
1.12633e-06
0.000206223
3.50405e-06
0.000200336
5.88716e-06
0.000192252
8.08382e-06
0.000182041
1.0211e-05
0.000169843
1.21979e-05
0.000155887
1.39561e-05
0.000140404
1.5483e-05
0.00012366
1.67444e-05
0.000105912
1.77477e-05
8.74196e-05
1.84923e-05
6.84911e-05
1.89285e-05
4.93274e-05
1.91637e-05
3.02408e-05
1.90866e-05
1.14184e-05
1.88225e-05
-6.95526e-06
1.83736e-05
-2.46813e-05
1.77261e-05
-4.16389e-05
1.69575e-05
-5.77269e-05
1.6088e-05
-7.27881e-05
1.50612e-05
-8.67794e-05
1.39913e-05
-9.97317e-05
1.29523e-05
-0.000111594
1.18627e-05
-0.00012226
1.06658e-05
-0.000131847
9.58668e-06
-0.000140312
8.46475e-06
-0.000147689
7.37694e-06
-0.000154113
6.42397e-06
-0.000159494
5.38124e-06
-0.000163979
4.48508e-06
-0.000167603
3.62417e-06
-0.000170424
2.82116e-06
-0.000172476
2.05188e-06
-0.000173859
1.38317e-06
-0.000174541
6.81813e-07
-0.000174573
3.1719e-08
-0.000174077
-4.96261e-07
-0.000172996
-1.08037e-06
-0.000171434
-1.56226e-06
-0.00016936
-2.07378e-06
-0.000166797
-2.56334e-06
-0.000163725
-3.07168e-06
-0.000160115
-3.61041e-06
-0.000155853
-4.26201e-06
-0.000150927
-4.92618e-06
-0.000145224
-5.70268e-06
-0.000138766
-6.45835e-06
-0.000131465
-7.30093e-06
-0.000123369
-8.09628e-06
-0.000114285
-9.08316e-06
-0.000104426
-9.85949e-06
-9.36622e-05
-1.07638e-05
-8.19535e-05
-1.17088e-05
-6.94239e-05
-1.25297e-05
-5.59465e-05
-1.34774e-05
-4.16029e-05
-1.43436e-05
-2.64232e-05
-1.51798e-05
-1.04542e-05
-1.59691e-05
6.21493e-06
-1.66691e-05
2.35321e-05
-1.73172e-05
4.13115e-05
-1.77794e-05
5.94591e-05
-1.81477e-05
7.77077e-05
-1.82487e-05
9.58866e-05
-1.81789e-05
0.000113768
-1.78819e-05
0.00013112
-1.73514e-05
0.000147687
-1.65675e-05
0.000163052
-1.53648e-05
0.000177041
-1.39887e-05
0.000189331
-1.22901e-05
0.000199671
-1.03407e-05
0.000207923
-8.25158e-06
0.000213878
-5.95506e-06
0.000217461
-3.58356e-06
0.000218623
-1.16128e-06
0.000217336
1.28681e-06
0.000213596
3.73961e-06
0.000207477
6.11951e-06
0.000199181
8.29559e-06
0.000188879
1.03014e-05
0.00017673
1.21496e-05
0.000162994
1.37353e-05
0.00014791
1.50848e-05
0.000131716
1.61936e-05
0.000114745
1.69706e-05
9.71746e-05
1.75708e-05
7.92565e-05
1.79181e-05
6.12601e-05
1.79964e-05
4.33436e-05
1.79165e-05
2.57777e-05
1.75659e-05
8.63109e-06
1.71467e-05
-7.8562e-06
1.64873e-05
-2.36514e-05
1.57952e-05
-3.86457e-05
1.49943e-05
-5.2736e-05
1.40903e-05
-6.59255e-05
1.31895e-05
-7.82295e-05
1.23041e-05
-8.95526e-05
1.13231e-05
-9.99786e-05
1.0426e-05
-0.000109486
9.50727e-06
-0.000118065
8.57896e-06
-0.000125757
7.69176e-06
-0.000132703
6.94618e-06
-0.000138769
6.06669e-06
-0.000143978
5.20891e-06
-0.000148378
4.39934e-06
-0.000151964
3.58628e-06
-0.000154806
2.84166e-06
-0.000156896
2.08988e-06
-0.000158207
1.31145e-06
-0.0001589
6.92892e-07
-0.000158809
-9.08068e-08
-0.000158139
-6.70639e-07
-0.000156779
-1.35993e-06
-0.000154593
-2.18611e-06
-0.000151843
-2.74994e-06
-0.000148344
-3.49867e-06
-0.000144253
-4.09141e-06
-0.000139448
-4.80467e-06
-0.0001339
-5.54817e-06
-0.000127781
-6.11906e-06
-0.000120864
-6.9166e-06
-0.000113192
-7.6725e-06
-0.000104739
-8.45254e-06
-9.54311e-05
-9.30811e-06
-8.53243e-05
-1.01069e-05
-7.43582e-05
-1.09661e-05
-6.24958e-05
-1.18624e-05
-4.98721e-05
-1.26238e-05
-3.63524e-05
-1.35198e-05
-2.2053e-05
-1.42994e-05
-6.93043e-06
-1.51226e-05
8.82916e-06
-1.57596e-05
2.51822e-05
-1.63531e-05
4.20964e-05
-1.69143e-05
5.93531e-05
-1.72567e-05
7.69186e-05
-1.75655e-05
9.45483e-05
-1.76298e-05
0.000112053
-1.7505e-05
0.00012925
-1.71966e-05
0.00014593
-1.66798e-05
0.000161759
-1.58298e-05
0.000176544
-1.47852e-05
0.00019008
-1.35355e-05
0.000202127
-1.20473e-05
0.000212426
-1.02986e-05
0.000220744
-8.31805e-06
0.000226944
-6.20022e-06
0.000230887
-3.94317e-06
0.000232474
-1.58749e-06
0.000231723
7.51287e-07
0.000228541
3.18149e-06
0.000222996
5.545e-06
0.000215158
7.83884e-06
0.000205245
9.91214e-06
0.000193391
1.18541e-05
0.000179805
1.35861e-05
0.000164775
1.503e-05
0.00014847
1.63052e-05
0.000131258
1.72114e-05
0.000113465
1.77933e-05
9.52618e-05
1.82033e-05
7.70283e-05
1.82335e-05
5.88408e-05
1.81874e-05
4.11815e-05
1.76594e-05
2.39087e-05
1.72727e-05
7.46671e-06
1.6442e-05
-8.31734e-06
1.57841e-05
-2.30852e-05
1.47679e-05
-3.69787e-05
1.38936e-05
-4.98365e-05
1.28578e-05
-6.17533e-05
1.19168e-05
-7.26767e-05
1.09233e-05
-8.27261e-05
1.00495e-05
-9.18075e-05
9.08136e-06
-0.00010012
8.31296e-06
-0.000107621
7.50008e-06
-0.000114337
6.71617e-06
-0.000120402
6.06507e-06
-0.000125757
5.35528e-06
-0.000130505
4.74819e-06
-0.000134625
4.11993e-06
-0.000138049
3.42435e-06
-0.000140904
2.85423e-06
-0.000143032
2.1287e-06
-0.000144455
1.42266e-06
-0.000145133
6.77462e-07
-0.000145118
-1.48928e-08
-0.000144404
-7.13944e-07
-0.000142979
-1.42502e-06
-0.000140725
-2.25352e-06
-0.000137769
-2.95631e-06
-0.000134006
-3.76243e-06
-0.000129334
-4.67257e-06
-0.00012388
-5.45372e-06
-0.000117645
-6.23514e-06
-0.000110444
-7.20072e-06
-0.000102504
-7.94036e-06
-9.34874e-05
-9.01653e-06
-8.36731e-05
-9.81433e-06
-7.31732e-05
-1.05e-05
-6.17233e-05
-1.14498e-05
-4.93439e-05
-1.23795e-05
-3.62837e-05
-1.30602e-05
-2.22245e-05
-1.40592e-05
-7.57833e-06
-1.46461e-05
7.9526e-06
-1.5531e-05
2.41949e-05
-1.62424e-05
4.08372e-05
-1.66423e-05
5.80851e-05
-1.72479e-05
7.5796e-05
-1.7711e-05
9.35939e-05
-1.7798e-05
0.000111561
-1.79669e-05
0.000129377
-1.78158e-05
0.000146978
-1.76017e-05
0.000164073
-1.70944e-05
0.000180246
-1.61736e-05
0.000195351
-1.51046e-05
0.000209092
-1.37414e-05
0.00022115
-1.20576e-05
0.000231243
-1.00933e-05
0.000239191
-7.94757e-06
0.000244734
-5.5435e-06
0.000247673
-2.93907e-06
0.000247931
-2.57498e-07
0.000245412
2.51826e-06
0.000240249
5.16279e-06
0.000232219
8.03072e-06
0.000221831
1.03877e-05
0.000209187
1.26438e-05
0.000194439
1.47484e-05
0.00017798
1.64584e-05
0.000160072
1.79078e-05
0.00014126
1.88119e-05
0.00012167
1.95901e-05
0.000101771
1.98992e-05
8.17784e-05
1.99927e-05
6.19707e-05
1.98077e-05
4.27029e-05
1.92678e-05
2.40239e-05
1.8679e-05
6.24163e-06
1.77822e-05
-1.07665e-05
1.70081e-05
-2.68087e-05
1.60422e-05
-4.17927e-05
1.4984e-05
-5.56668e-05
1.38741e-05
-6.84911e-05
1.28243e-05
1.16641e-05
-0.000177466
-3.5549e-06
-0.000174883
-5.16885e-06
-0.000171595
-6.581e-06
-0.000167568
-8.05669e-06
-0.00016268
-9.78189e-06
-0.000156961
-1.14395e-05
-0.000150217
-1.34883e-05
-0.000142741
-1.49506e-05
-0.000134415
-1.6656e-05
-0.000125018
-1.87953e-05
-0.000114707
-2.06202e-05
-0.000103447
-2.25222e-05
-9.108e-05
-2.47321e-05
-7.77497e-05
-2.6656e-05
-6.33261e-05
-2.8844e-05
-4.79732e-05
-3.07016e-05
-3.19164e-05
-3.21045e-05
-1.49045e-05
-3.40277e-05
2.73937e-06
-3.52782e-05
2.09213e-05
-3.63533e-05
3.96037e-05
-3.73622e-05
5.8626e-05
-3.80237e-05
7.76333e-05
-3.80036e-05
9.64807e-05
-3.76922e-05
0.000114912
-3.68394e-05
0.000132743
-3.56476e-05
0.00014965
-3.38124e-05
0.000165326
-3.13264e-05
0.000179581
-2.84989e-05
0.000192122
-2.5084e-05
0.000202766
-2.12668e-05
0.000211322
-1.71045e-05
0.000217554
-1.24715e-05
0.000221451
-7.7804e-06
0.000222905
-2.90162e-06
0.000221744
2.30398e-06
0.000218096
7.2937e-06
0.000212024
1.21427e-05
0.00020366
1.67225e-05
0.000193168
2.09748e-05
0.000180723
2.48811e-05
0.000166692
2.80526e-05
0.000151152
3.10677e-05
0.000134382
3.35303e-05
0.000116755
3.52438e-05
9.83588e-05
3.67782e-05
7.95673e-05
3.75745e-05
6.06699e-05
3.77844e-05
4.16981e-05
3.79308e-05
2.30368e-05
3.73167e-05
4.89748e-06
3.62737e-05
-1.28424e-05
3.54637e-05
-2.98628e-05
3.4033e-05
-4.60827e-05
3.24325e-05
-6.13979e-05
3.06255e-05
-7.57699e-05
2.87373e-05
-8.91861e-05
2.68223e-05
-0.000101594
2.48154e-05
-0.000112995
2.27981e-05
-0.000123429
2.0869e-05
-0.000132885
1.8904e-05
-0.000141443
1.71119e-05
-0.000149068
1.52544e-05
-0.000155808
1.34778e-05
-0.00016178
1.19507e-05
-0.000166941
1.03142e-05
-0.000171198
8.51798e-06
-0.000174816
7.23907e-06
-0.000177609
5.58155e-06
-0.000179692
4.1685e-06
-0.000181125
2.86818e-06
-0.00018177
1.28431e-06
-0.000181717
-1.09155e-07
-0.000181071
-1.28354e-06
-0.000179424
-3.30133e-06
-0.000177157
-4.52747e-06
-0.000173999
-6.32467e-06
-0.000170014
-7.9675e-06
-0.000165211
-9.58797e-06
-0.000159518
-1.1407e-05
-0.000152884
-1.32694e-05
-0.000145501
-1.47523e-05
-0.000137175
-1.66619e-05
-0.000127952
-1.84529e-05
-0.000117883
-2.01365e-05
-0.000107019
-2.17262e-05
-9.5244e-05
-2.35542e-05
-8.26768e-05
-2.51365e-05
-6.93118e-05
-2.67239e-05
-5.51235e-05
-2.83793e-05
-4.02116e-05
-2.98118e-05
-2.46092e-05
-3.12066e-05
-8.43639e-06
-3.23425e-05
8.34897e-06
-3.35569e-05
2.55589e-05
-3.44125e-05
4.31304e-05
-3.51269e-05
6.08255e-05
-3.5376e-05
7.85019e-05
-3.53374e-05
9.59364e-05
-3.4862e-05
0.000112883
-3.38831e-05
0.000129205
-3.26181e-05
0.000144605
-3.07927e-05
0.000158882
-2.85494e-05
0.000171882
-2.59698e-05
0.000183311
-2.28362e-05
0.000192975
-1.93338e-05
0.00020074
-1.55047e-05
0.000206385
-1.12883e-05
0.000209827
-6.88864e-06
0.000210992
-2.32064e-06
0.000209859
2.25851e-06
0.000206355
7.00828e-06
0.000200468
1.17744e-05
0.000192377
1.61743e-05
0.000182149
2.0439e-05
0.000169942
2.44052e-05
0.000155985
2.7913e-05
0.000140492
3.0976e-05
0.00012373
3.35069e-05
0.000105958
3.55197e-05
8.74511e-05
3.6999e-05
6.85161e-05
3.78634e-05
4.93352e-05
3.83446e-05
3.02424e-05
3.81795e-05
1.14076e-05
3.76573e-05
-6.98925e-06
3.67705e-05
-2.47232e-05
3.54601e-05
-4.16829e-05
3.39173e-05
-5.77845e-05
3.21897e-05
-7.28549e-05
3.01316e-05
-8.68473e-05
2.79837e-05
-9.98058e-05
2.59109e-05
-0.000111677
2.37338e-05
-0.000122342
2.13313e-05
-0.000131925
1.91696e-05
-0.000140393
1.69328e-05
-0.00014777
1.4754e-05
-0.000154196
1.28495e-05
-0.000159586
1.07712e-05
-0.000164072
8.97111e-06
-0.000167689
7.24105e-06
-0.000170508
5.64019e-06
-0.00017256
4.10437e-06
-0.000173944
2.76667e-06
-0.000174631
1.36953e-06
-0.00017466
6.01542e-08
-0.000174165
-9.91485e-07
-0.000173093
-2.15194e-06
-0.00017152
-3.13533e-06
-0.000169445
-4.14896e-06
-0.000166894
-5.11414e-06
-0.000163811
-6.155e-06
-0.000160209
-7.21261e-06
-0.000155958
-8.5126e-06
-0.000151027
-9.85768e-06
-0.000145319
-1.14098e-05
-0.000138872
-1.29061e-05
-0.000131572
-1.46007e-05
-0.000123473
-1.61954e-05
-0.000114409
-1.81465e-05
-0.000104529
-1.97398e-05
-9.3748e-05
-2.1545e-05
-8.20384e-05
-2.34184e-05
-6.95088e-05
-2.50594e-05
-5.60337e-05
-2.69525e-05
-4.16857e-05
-2.86918e-05
-2.65005e-05
-3.0365e-05
-1.05216e-05
-3.1948e-05
6.161e-06
-3.33518e-05
2.34771e-05
-3.46334e-05
4.12761e-05
-3.55785e-05
5.94339e-05
-3.63056e-05
7.77013e-05
-3.65161e-05
9.58975e-05
-3.63752e-05
0.000113783
-3.57675e-05
0.000131148
-3.47164e-05
0.000147748
-3.31676e-05
0.000163123
-3.07395e-05
0.000177121
-2.79873e-05
0.000189434
-2.46033e-05
0.000199792
-2.0698e-05
0.00020806
-1.65201e-05
0.000214026
-1.19213e-05
0.000217601
-7.15878e-06
0.000218771
-2.33049e-06
0.00021748
2.5778e-06
0.000213735
7.48367e-06
0.000207606
1.22487e-05
0.000199301
1.66003e-05
0.000188994
2.06089e-05
0.000176832
2.43118e-05
0.000163082
2.74848e-05
0.000147986
3.01815e-05
0.000131783
3.23966e-05
0.000114794
3.39589e-05
9.72103e-05
3.51547e-05
7.92825e-05
3.58459e-05
6.12659e-05
3.60131e-05
4.33397e-05
3.58427e-05
2.57654e-05
3.51402e-05
8.60113e-06
3.43109e-05
-7.90057e-06
3.2989e-05
-2.36962e-05
3.15909e-05
-3.86945e-05
2.99926e-05
-5.27899e-05
2.81857e-05
-6.5975e-05
2.63746e-05
-7.82883e-05
2.46174e-05
-8.9622e-05
2.26567e-05
-0.000100042
2.0846e-05
-0.000109551
1.9016e-05
-0.000118143
1.71715e-05
-0.000125849
1.5397e-05
-0.000132774
1.38717e-05
-0.000138846
1.2139e-05
-0.000144066
1.04283e-05
-0.000148455
8.7883e-06
-0.00015204
7.17177e-06
-0.000154888
5.68914e-06
-0.000156986
4.18859e-06
-0.000158302
2.62697e-06
-0.000158988
1.37902e-06
-0.000158899
-1.80016e-07
-0.000158228
-1.34193e-06
-0.000156867
-2.72102e-06
-0.00015469
-4.36241e-06
-0.000151939
-5.50152e-06
-0.000148438
-6.99919e-06
-0.000144341
-8.18859e-06
-0.000139555
-9.59071e-06
-0.000134026
-1.1077e-05
-0.000127874
-1.2271e-05
-0.00012097
-1.38212e-05
-0.000113297
-1.53449e-05
-0.000104836
-1.69143e-05
-9.5543e-05
-1.86007e-05
-8.54179e-05
-2.0232e-05
-7.44418e-05
-2.19423e-05
-6.25786e-05
-2.37256e-05
-4.99577e-05
-2.52446e-05
-3.6438e-05
-2.70395e-05
-2.21244e-05
-2.8613e-05
-7.00153e-06
-3.02455e-05
8.76925e-06
-3.15304e-05
2.51367e-05
-3.27206e-05
4.20589e-05
-3.38364e-05
5.93228e-05
-3.45208e-05
7.69031e-05
-3.51457e-05
9.45455e-05
-3.52723e-05
0.000112051
-3.50109e-05
0.000129271
-3.4416e-05
0.000145981
-3.33898e-05
0.00016182
-3.16695e-05
0.000176607
-2.95719e-05
0.000190158
-2.70863e-05
0.000202224
-2.41138e-05
0.000212523
-2.0597e-05
0.000220865
-1.66605e-05
0.000227074
-1.24089e-05
0.000231041
-7.9105e-06
0.00023264
-3.18677e-06
0.00023186
1.53161e-06
0.000228669
6.37197e-06
0.000223125
1.10886e-05
0.000215285
1.56791e-05
0.000205362
1.98349e-05
0.000193497
2.37195e-05
0.000179892
2.71915e-05
0.000164848
3.00734e-05
0.000148536
3.26175e-05
0.000131308
3.44392e-05
0.000113498
3.5603e-05
9.52766e-05
3.64247e-05
7.70323e-05
3.64778e-05
5.88404e-05
3.63793e-05
4.11539e-05
3.53458e-05
2.38804e-05
3.45463e-05
7.42241e-06
3.29e-05
-8.34937e-06
3.15559e-05
-2.31392e-05
2.95577e-05
-3.70184e-05
2.77727e-05
-4.98826e-05
2.5722e-05
-6.17961e-05
2.38303e-05
-7.2722e-05
2.18493e-05
-8.27724e-05
2.00999e-05
-9.18496e-05
1.81585e-05
-0.000100159
1.66219e-05
-0.000107657
1.49988e-05
-0.000114371
1.34301e-05
-0.000120434
1.2128e-05
-0.000125781
1.07017e-05
-0.000130524
9.49152e-06
-0.000134652
8.24806e-06
-0.000138077
6.84961e-06
-0.000140933
5.70993e-06
-0.000143059
4.25489e-06
-0.000144476
2.83924e-06
-0.000145156
1.35821e-06
-0.00014515
-2.14766e-08
-0.000144447
-1.4171e-06
-0.000143026
-2.84612e-06
-0.000140771
-4.50823e-06
-0.000137819
-5.90875e-06
-0.000134058
-7.52275e-06
-0.000129387
-9.34379e-06
-0.000123936
-1.09048e-05
-0.000117701
-1.24699e-05
-0.000110497
-1.44044e-05
-0.000102542
-1.58956e-05
-9.35458e-05
-1.80129e-05
-8.37223e-05
-1.96379e-05
-7.32204e-05
-2.10019e-05
-6.17579e-05
-2.29123e-05
-4.93911e-05
-2.47463e-05
-3.6329e-05
-2.61224e-05
-2.22687e-05
-2.81196e-05
-7.6175e-06
-2.92974e-05
7.90403e-06
-3.10525e-05
2.41487e-05
-3.24871e-05
4.07881e-05
-3.32817e-05
5.80394e-05
-3.44993e-05
7.57684e-05
-3.544e-05
9.35599e-05
-3.55896e-05
0.000111538
-3.59453e-05
0.000129381
-3.56584e-05
0.000146985
-3.52064e-05
0.0001641
-3.42096e-05
0.0001803
-3.23731e-05
0.000195407
-3.02114e-05
0.000209176
-2.75105e-05
0.000221255
-2.41369e-05
0.000231347
-2.01855e-05
0.000239318
-1.59187e-05
0.00024487
-1.10953e-05
0.000247815
-5.88402e-06
0.000248066
-5.08684e-07
0.000245541
5.04278e-06
0.00024038
1.03243e-05
0.000232343
1.60669e-05
0.000221947
2.07836e-05
0.00020929
2.53013e-05
0.000194529
2.95094e-05
0.00017805
3.2937e-05
0.000160134
3.58237e-05
0.000141304
3.76421e-05
0.000121697
3.91965e-05
0.000101784
3.98128e-05
8.17731e-05
4.00033e-05
6.19636e-05
3.96171e-05
4.26807e-05
3.85507e-05
2.39917e-05
3.7368e-05
6.20659e-06
3.55673e-05
-1.08031e-05
3.40177e-05
-2.68473e-05
3.20864e-05
-4.18321e-05
2.99688e-05
-5.5706e-05
2.7748e-05
-6.85307e-05
2.56489e-05
2.33275e-05
-0.000177522
-5.3288e-06
-0.000174941
-7.75052e-06
-0.000171653
-9.86834e-06
-0.000167628
-1.2082e-05
-0.000162738
-1.46716e-05
-0.00015703
-1.71482e-05
-0.000150286
-2.02326e-05
-0.000142811
-2.24256e-05
-0.000134491
-2.49756e-05
-0.00012509
-2.8196e-05
-0.000114782
-3.09289e-05
-0.000103527
-3.37764e-05
-9.11523e-05
-3.71072e-05
-7.78224e-05
-3.99859e-05
-6.34006e-05
-4.32659e-05
-4.8039e-05
-4.60633e-05
-3.19813e-05
-4.81622e-05
-1.49702e-05
-5.10389e-05
2.69844e-06
-5.29468e-05
2.09052e-05
-5.45601e-05
3.96056e-05
-5.60627e-05
5.86385e-05
-5.70566e-05
7.76685e-05
-5.70337e-05
9.65381e-05
-5.65619e-05
0.000114982
-5.52831e-05
0.000132839
-5.35054e-05
0.00014977
-5.07428e-05
0.000165458
-4.70143e-05
0.000179734
-4.27758e-05
0.000192296
-3.7646e-05
0.000202944
-3.19142e-05
0.000211516
-2.56771e-05
0.00021776
-1.8715e-05
0.000221656
-1.16764e-05
0.000223119
-4.36526e-06
0.000221934
3.48901e-06
0.000218273
1.09549e-05
0.000212204
1.82119e-05
0.000203827
2.50993e-05
0.000193317
3.14842e-05
0.000180861
3.7337e-05
0.000166809
4.21052e-05
0.000151245
4.6631e-05
0.000134464
5.03114e-05
0.000116811
5.28976e-05
9.8391e-05
5.51977e-05
7.95946e-05
5.63708e-05
6.06701e-05
5.67088e-05
4.16769e-05
5.6924e-05
2.30211e-05
5.59725e-05
4.86216e-06
5.44326e-05
-1.29017e-05
5.32276e-05
-2.99316e-05
5.10628e-05
-4.61602e-05
4.86611e-05
-6.14772e-05
4.59425e-05
-7.58531e-05
4.31132e-05
-8.92776e-05
4.02467e-05
-0.00010168
3.72177e-05
-0.000113083
3.42008e-05
-0.000123519
3.13054e-05
-0.000132969
2.83536e-05
-0.000141524
2.5667e-05
-0.00014914
2.2871e-05
-0.000155884
2.02215e-05
-0.000161841
1.79075e-05
-0.000167013
1.54859e-05
-0.000171262
1.27673e-05
-0.000174873
1.08498e-05
-0.000177674
8.38281e-06
-0.000179752
6.24678e-06
-0.000181184
4.29939e-06
-0.000181839
1.93942e-06
-0.000181787
-1.60968e-07
-0.000181134
-1.93659e-06
-0.000179492
-4.94311e-06
-0.000177219
-6.80056e-06
-0.000174074
-9.46959e-06
-0.000170085
-1.19565e-05
-0.000165263
-1.44107e-05
-0.000159602
-1.70682e-05
-0.000152962
-1.99094e-05
-0.000145569
-2.21456e-05
-0.000137263
-2.49673e-05
-0.000128037
-2.76797e-05
-0.000117966
-3.02069e-05
-0.000107103
-3.25895e-05
-9.53273e-05
-3.53302e-05
-8.27642e-05
-3.76996e-05
-6.93823e-05
-4.01059e-05
-5.51958e-05
-4.25659e-05
-4.02876e-05
-4.47201e-05
-2.46776e-05
-4.68167e-05
-8.50727e-06
-4.85128e-05
8.28849e-06
-5.03528e-05
2.55182e-05
-5.16423e-05
4.31056e-05
-5.27143e-05
6.08017e-05
-5.30722e-05
7.84917e-05
-5.30275e-05
9.59554e-05
-5.23257e-05
0.000112905
-5.08324e-05
0.000129246
-4.89598e-05
0.000144671
-4.62175e-05
0.00015896
-4.28383e-05
0.000171992
-3.90025e-05
0.000183433
-3.4277e-05
0.000193119
-2.90198e-05
0.000200876
-2.32617e-05
0.000206537
-1.69495e-05
0.00020999
-1.03418e-05
0.000211148
-3.47844e-06
0.000210003
3.4033e-06
0.000206494
1.05178e-05
0.000200608
1.76603e-05
0.000192505
2.42773e-05
0.000182272
3.06716e-05
0.00017005
3.66268e-05
0.000156068
4.18956e-05
0.000140552
4.64918e-05
0.000123775
5.02839e-05
0.000105989
5.33052e-05
8.74491e-05
5.55392e-05
6.84903e-05
5.68223e-05
4.92986e-05
5.75363e-05
3.01865e-05
5.72916e-05
1.13378e-05
5.6506e-05
-7.07842e-06
5.51868e-05
-2.48293e-05
5.3211e-05
-4.17838e-05
5.08718e-05
-5.78835e-05
4.82893e-05
-7.29751e-05
4.52232e-05
-8.69712e-05
4.19799e-05
-9.99287e-05
3.88683e-05
-0.000111809
3.56141e-05
-0.000122477
3.19994e-05
-0.000132045
2.87376e-05
-0.000140509
2.53971e-05
-0.000147885
2.21299e-05
-0.00015431
1.92744e-05
-0.000159698
1.61589e-05
-0.000164182
1.34555e-05
-0.000167794
1.08523e-05
-0.000170604
8.45101e-06
-0.00017266
6.15949e-06
-0.000174038
4.14466e-06
-0.000174723
2.05532e-06
-0.000174747
8.39471e-08
-0.000174239
-1.50005e-06
-0.000173163
-3.22774e-06
-0.00017159
-4.70792e-06
-0.000169517
-6.22207e-06
-0.000166971
-7.66071e-06
-0.000163889
-9.23656e-06
-0.000160301
-1.08003e-05
-0.000156047
-1.27667e-05
-0.000151118
-1.47868e-05
-0.000145424
-1.71046e-05
-0.000138967
-1.9363e-05
-0.000131671
-2.18962e-05
-0.000123583
-2.42833e-05
-0.000114521
-2.72093e-05
-0.000104638
-2.96221e-05
-9.38505e-05
-3.2333e-05
-8.21279e-05
-3.5141e-05
-6.9594e-05
-3.75933e-05
-5.61186e-05
-4.0428e-05
-4.17746e-05
-4.30358e-05
-2.65923e-05
-4.55473e-05
-1.06028e-05
-4.79375e-05
6.09493e-06
-5.00496e-05
2.34026e-05
-5.19411e-05
4.12265e-05
-5.34023e-05
5.94087e-05
-5.4488e-05
7.76888e-05
-5.47962e-05
9.59041e-05
-5.45905e-05
0.000113811
-5.36741e-05
0.000131185
-5.20908e-05
0.000147818
-4.98004e-05
0.00016322
-4.61422e-05
0.000177236
-4.20032e-05
0.000189562
-3.69295e-05
0.000199948
-3.1084e-05
0.000208221
-2.47929e-05
0.000214204
-1.79043e-05
0.000217782
-1.07369e-05
0.000218946
-3.49417e-06
0.000217628
3.89502e-06
0.000213888
1.12244e-05
0.000207757
1.83797e-05
0.000199428
2.49288e-05
0.000189091
3.09456e-05
0.000176918
3.64853e-05
0.000163158
4.1245e-05
0.000148043
4.52958e-05
0.000131832
4.86084e-05
0.000114809
5.0982e-05
9.72042e-05
5.27591e-05
7.92518e-05
5.37984e-05
6.12209e-05
5.40439e-05
4.32865e-05
5.37772e-05
2.56944e-05
5.27323e-05
8.52267e-06
5.14827e-05
-7.99522e-06
4.95069e-05
-2.37981e-05
4.73938e-05
-3.88032e-05
4.49978e-05
-5.29094e-05
4.22919e-05
-6.60941e-05
3.95593e-05
-7.83972e-05
3.69204e-05
-8.97284e-05
3.39879e-05
-0.000100148
3.12655e-05
-0.000109656
2.85245e-05
-0.000118237
2.57521e-05
-0.000125966
2.3126e-05
-0.000132881
2.07865e-05
-0.000138964
1.82217e-05
-0.000144175
1.56401e-05
-0.000148535
1.31483e-05
-0.000152142
1.07784e-05
-0.000154996
8.54291e-06
-0.000157087
6.28014e-06
-0.0001584
3.9395e-06
-0.000159071
2.05023e-06
-0.000158984
-2.66668e-07
-0.000158329
-1.997e-06
-0.000156963
-4.08755e-06
-0.000154775
-6.55065e-06
-0.000152025
-8.25102e-06
-0.000148525
-1.04993e-05
-0.000144429
-1.2285e-05
-0.000139651
-1.43688e-05
-0.000134125
-1.66031e-05
-0.000127968
-1.8428e-05
-0.000121064
-2.07245e-05
-0.0001134
-2.3009e-05
-0.000104949
-2.53656e-05
-9.56535e-05
-2.7896e-05
-8.55078e-05
-3.03777e-05
-7.45381e-05
-3.2912e-05
-6.26602e-05
-3.56036e-05
-5.0047e-05
-3.78579e-05
-3.6535e-05
-4.05515e-05
-2.22024e-05
-4.29456e-05
-7.06418e-06
-4.53838e-05
8.70707e-06
-4.73017e-05
2.50756e-05
-4.90891e-05
4.20065e-05
-5.07674e-05
5.92743e-05
-5.17887e-05
7.68789e-05
-5.27503e-05
9.45429e-05
-5.29363e-05
0.000112055
-5.25235e-05
0.000129284
-5.16443e-05
0.000146012
-5.01177e-05
0.000161884
-4.75415e-05
0.000176685
-4.43731e-05
0.000190241
-4.06423e-05
0.000202335
-3.62086e-05
0.000212651
-3.09126e-05
0.000221016
-2.50253e-05
0.000227228
-1.86213e-05
0.000231207
-1.18899e-05
0.000232815
-4.79391e-06
0.000232026
2.31987e-06
0.000228817
9.58095e-06
0.000223289
1.66169e-05
0.000215419
2.35493e-05
0.000205485
2.9768e-05
0.000193612
3.55932e-05
0.00017997
4.08333e-05
0.000164905
4.51383e-05
0.000148584
4.89387e-05
0.000131351
5.16721e-05
0.000113512
5.34415e-05
9.52599e-05
5.46771e-05
7.70137e-05
5.4724e-05
5.8828e-05
5.4565e-05
4.10924e-05
5.30814e-05
2.38268e-05
5.18119e-05
7.33753e-06
4.93892e-05
-8.39891e-06
4.72923e-05
-2.32288e-05
4.43876e-05
-3.70857e-05
4.16297e-05
-4.99551e-05
3.85914e-05
-6.18611e-05
3.57364e-05
-7.27881e-05
3.27763e-05
-8.2832e-05
3.01439e-05
-9.19052e-05
2.72317e-05
-0.000100208
2.49244e-05
-0.000107703
2.24943e-05
-0.000114417
2.01442e-05
-0.000120476
1.8187e-05
-0.000125819
1.6045e-05
-0.000130557
1.42291e-05
-0.000134682
1.23734e-05
-0.000138095
1.02626e-05
-0.000140947
8.56171e-06
-0.000143074
6.38216e-06
-0.000144498
4.26322e-06
-0.000145207
2.06651e-06
-0.000145195
-3.28114e-08
-0.000144503
-2.10921e-06
-0.000143085
-4.26386e-06
-0.000140829
-6.76431e-06
-0.000137882
-8.85665e-06
-0.000134123
-1.12809e-05
-0.000129453
-1.40139e-05
-0.000124004
-1.63541e-05
-0.000117771
-1.87028e-05
-0.000110565
-2.16111e-05
-0.0001026
-2.38605e-05
-9.36237e-05
-2.6989e-05
-8.37865e-05
-2.94751e-05
-7.32828e-05
-3.15057e-05
-6.18071e-05
-3.43881e-05
-4.94572e-05
-3.70962e-05
-3.63945e-05
-3.91851e-05
-2.23351e-05
-4.2179e-05
-7.67813e-06
-4.39545e-05
7.82711e-06
-4.65578e-05
2.40649e-05
-4.8725e-05
4.0714e-05
-4.99309e-05
5.79684e-05
-5.17537e-05
7.57072e-05
-5.31789e-05
9.35189e-05
-5.34013e-05
0.000111513
-5.39391e-05
0.000129373
-5.35186e-05
0.000147012
-5.28453e-05
0.000164148
-5.13463e-05
0.000180373
-4.8598e-05
0.000195513
-4.53512e-05
0.000209309
-4.13064e-05
0.000221417
-3.62451e-05
0.000231534
-3.03023e-05
0.000239521
-2.39058e-05
0.000245093
-1.66675e-05
0.000248054
-8.84561e-06
0.000248284
-7.38307e-07
0.000245745
7.58205e-06
0.000240583
1.54856e-05
0.000232538
2.41124e-05
0.000222127
3.11947e-05
0.000209445
3.79826e-05
0.000194663
4.42912e-05
0.00017815
4.94502e-05
0.000160225
5.37492e-05
0.00014136
5.65066e-05
0.000121727
5.883e-05
0.000101788
5.97514e-05
8.17471e-05
6.00442e-05
6.194e-05
5.94243e-05
4.26282e-05
5.78624e-05
2.39238e-05
5.60723e-05
6.13471e-06
5.33564e-05
-1.08827e-05
5.10351e-05
-2.69308e-05
4.81345e-05
-4.19166e-05
4.49546e-05
-5.57897e-05
4.1621e-05
-6.86124e-05
3.84716e-05
3.49869e-05
-0.000177607
-7.10169e-06
-0.000175027
-1.03306e-05
-0.000171742
-1.31537e-05
-0.000167718
-1.61055e-05
-0.000162828
-1.95623e-05
-0.000157133
-2.28431e-05
-0.000150389
-2.69764e-05
-0.000142915
-2.99e-05
-0.000134605
-3.32854e-05
-0.000125199
-3.76017e-05
-0.000114893
-4.1235e-05
-0.000103649
-4.50201e-05
-9.12599e-05
-4.94968e-05
-7.79315e-05
-5.33144e-05
-6.35131e-05
-5.76843e-05
-4.8137e-05
-6.14395e-05
-3.20783e-05
-6.42209e-05
-1.50754e-05
-6.80419e-05
2.64233e-06
-7.06646e-05
2.08794e-05
-7.27972e-05
3.9606e-05
-7.47894e-05
5.86667e-05
-7.61173e-05
7.77203e-05
-7.60874e-05
9.66217e-05
-7.54633e-05
0.000115099
-7.37603e-05
0.000132983
-7.13897e-05
0.000149946
-6.77059e-05
0.000165662
-6.27297e-05
0.000179966
-5.70799e-05
0.000192555
-5.02355e-05
0.000203225
-4.25842e-05
0.000211809
-3.42615e-05
0.000218066
-2.49717e-05
0.000221972
-1.55827e-05
0.00022343
-5.8232e-06
0.000222215
4.70432e-06
0.000218542
1.46277e-05
0.000212474
2.42798e-05
0.000204076
3.3497e-05
0.000193541
4.20195e-05
0.00018107
4.98081e-05
0.000166983
5.61919e-05
0.000151385
6.22291e-05
0.00013459
6.71066e-05
0.000116894
7.05937e-05
9.84386e-05
7.36528e-05
7.96397e-05
7.51698e-05
6.06701e-05
7.56784e-05
4.16444e-05
7.59497e-05
2.30036e-05
7.46133e-05
4.80991e-06
7.26263e-05
-1.29938e-05
7.10313e-05
-3.00373e-05
6.81062e-05
-4.62776e-05
6.49014e-05
-6.16004e-05
6.12653e-05
-7.59818e-05
5.74946e-05
-8.94121e-05
5.3677e-05
-0.000101817
4.96225e-05
-0.000113218
4.56015e-05
-0.000123657
4.17445e-05
-0.000133102
3.77986e-05
-0.000141657
3.42219e-05
-0.000149249
3.0464e-05
-0.000156
2.69716e-05
-0.000161966
2.38744e-05
-0.000167122
2.06416e-05
-0.000171362
1.70067e-05
-0.00017496
1.44481e-05
-0.000177768
1.11911e-05
-0.000179849
8.32715e-06
-0.000181276
5.72664e-06
-0.000181939
2.60282e-06
-0.000181891
-2.09079e-07
-0.00018123
-2.59781e-06
-0.0001796
-6.57311e-06
-0.000177317
-9.08367e-06
-0.000174191
-1.25961e-05
-0.000170198
-1.59494e-05
-0.00016538
-1.92288e-05
-0.000159727
-2.27208e-05
-0.000153092
-2.65452e-05
-0.000145654
-2.95832e-05
-0.000137392
-3.32291e-05
-0.000128178
-3.68942e-05
-0.000118095
-4.02898e-05
-0.00010723
-4.34548e-05
-9.54576e-05
-4.71026e-05
-8.29019e-05
-5.02554e-05
-6.95076e-05
-5.35003e-05
-5.5314e-05
-5.67596e-05
-4.03972e-05
-5.96368e-05
-2.47877e-05
-6.24262e-05
-8.61568e-06
-6.46849e-05
8.19967e-06
-6.71682e-05
2.54541e-05
-6.88968e-05
4.30634e-05
-7.03237e-05
6.07687e-05
-7.07776e-05
7.84991e-05
-7.07579e-05
9.59939e-05
-6.98206e-05
0.000112937
-6.77753e-05
0.000129302
-6.53253e-05
0.000144766
-6.16811e-05
0.00015908
-5.71525e-05