/*--------------------------------*- C++ -*----------------------------------*\
| =========                 |                                                 |
| \\      /  F ield         | OpenFOAM: The Open Source CFD Toolbox           |
|  \\    /   O peration     | Version:  3.0.1                                 |
|   \\  /    A nd           | Web:      www.OpenFOAM.org                      |
|    \\/     M anipulation  |                                                 |
\*---------------------------------------------------------------------------*/
FoamFile
{
    version     2.0;
    format      ascii;
    class       volScalarField;
    location    "17";
    object      p;
}
// * * * * * * * * * * * * * * * * * * * * * * * * * * * * * * * * * * * * * //

dimensions      [1 -1 -2 0 0 0 0];

internalField   nonuniform List<scalar> 
21420
(
4044.41
4076.43
4107.93
4138.38
4167.36
4194.31
4218.81
4240.42
4258.82
4273.72
4284.87
4292.09
4295.15
4293.78
4288.17
4278.54
4264.91
4247.48
4226.52
4202.32
4175.26
4145.69
4114.03
4080.74
4046.24
4010.97
3975.32
3939.65
3904.51
3873.64
3840.59
3808.66
3778.15
3749.24
3722.06
3696.69
3673.2
3651.61
3631.93
3614.14
3598.21
3584.09
3571.75
3561.12
3552.17
3544.84
3539.08
3534.87
3532.16
3530.94
3531.23
3533.3
3536.85
3541.94
3548.6
3556.85
3566.72
3578.25
3591.47
3606.41
3623.07
3641.47
3661.6
3683.46
3707.01
3732.18
3758.91
3787.09
3816.58
3847.23
3878.85
3910.77
3943.64
3976.78
4009.89
4042.66
4074.78
4105.89
4135.62
4163.62
4189.51
4212.94
4233.54
4250.99
4265
4275.33
4281.78
4284.2
4282.56
4276.84
4267.16
4253.59
4236.33
4215.63
4191.75
4165.03
4135.86
4104.62
4071.73
4037.61
4002.68
3967.36
3932.04
3897.05
3862.77
3829.44
3797.33
3766.64
3737.56
3710.25
3684.83
3661.39
3640
3620.69
3603.46
3588.3
3575.15
3563.95
3554.65
3547.17
3541.46
3537.44
3535.04
3534.24
3535.04
3537.33
3541.12
3546.39
3553.15
3561.42
3571.25
3582.65
3595.65
3610.28
3626.59
3644.6
3664.32
3685.74
3708.84
3733.58
3759.91
3787.71
3816.87
3847.23
3878.6
3910.79
3943.48
3976.44
4009.34
4041.86
4073.64
4104.33
4133.57
4161.02
4186.32
4209.17
4229.24
4246.28
4260.06
4270.38
4277.09
4280.07
4279.22
4274.55
4266.13
4253.96
4238.17
4218.9
4196.36
4170.79
4142.48
4111.76
4079.01
4044.61
4009.01
3972.66
3936.04
3899.6
3863.79
3829
3795.62
3763.93
3734.21
3706.64
3681.36
3658.45
3637.92
3619.78
3603.96
3590.38
3578.92
3569.45
3561.84
3555.95
3551.65
3548.82
3547.32
3547.09
3548.05
3550.11
3553.27
3557.51
3562.84
3569.26
3576.83
3585.62
3595.7
3607.15
3620.07
3634.56
3650.71
3668.6
3688.31
3709.9
3733.39
3758.77
3786
3814.99
3845.58
3877.59
3910.77
3944.79
3979.33
4014
4048.38
4082.04
4114.5
4145.32
4174.05
4200.25
4223.54
4243.56
4260.01
4272.66
4281.3
4285.85
4286.15
4282.31
4274.41
4262.54
4246.89
4227.71
4205.28
4179.95
4152.08
4122.05
4090.31
4057.26
4023.31
3988.87
3954.34
3920.01
3885.04
3852.06
3820.12
3789.4
3760.08
3732.31
3706.2
3681.83
3659.28
3638.59
3619.8
3602.89
3587.87
3574.72
3563.4
3553.89
3546.16
3540.19
3535.95
3533.39
3532.52
3533.37
3535.84
3539.94
3545.66
3553
3561.95
3572.5
3584.66
3598.43
3613.81
3630.78
3649.36
3669.52
3691.23
3714.46
3739.14
3765.2
3792.51
3820.96
3850.39
3880.56
3910.9
3941.98
3973.23
4004.35
4035.05
4065.01
4093.93
4121.49
4147.35
4171.22
4192.82
4211.86
4228.1
4241.33
4251.35
4258.04
4261.26
4260.73
4256.62
4249.06
4238.1
4223.9
4206.68
4186.69
4164.21
4139.56
4113.09
4085.14
4056.07
4026.25
3996.03
3965.72
3935.59
3906.14
3879.36
3851.91
3825.43
3800.17
3776.31
3753.95
3733.17
3714.02
3696.53
3680.72
3666.58
3654.11
3643.27
3634.04
3626.39
3620.26
3615.62
3612.41
3610.62
3610.62
3612.06
3614.89
3619.09
3624.6
3631.39
3639.41
3648.64
3659.05
3670.66
3946.3
3978.34
4009.86
4040.33
4069.33
4096.29
4120.8
4142.44
4160.85
4175.76
4186.93
4194.15
4197.22
4195.85
4190.23
4180.6
4166.95
4149.51
4128.53
4104.31
4077.23
4047.65
4015.97
3982.66
3948.14
3912.86
3877.19
3841.52
3806.37
3775.46
3742.41
3710.48
3679.97
3651.06
3623.87
3598.51
3575.02
3553.43
3533.75
3515.96
3500.03
3485.92
3473.58
3462.95
3454
3446.67
3440.92
3436.71
3434
3432.78
3433.07
3435.14
3438.69
3443.78
3450.44
3458.68
3468.55
3480.09
3493.3
3508.23
3524.9
3543.29
3563.43
3585.29
3608.83
3634.01
3660.74
3688.92
3718.42
3749.07
3780.7
3812.62
3845.51
3878.66
3911.78
3944.56
3976.69
4007.82
4037.57
4065.59
4091.5
4114.94
4135.55
4153.02
4167.05
4177.38
4183.84
4186.27
4184.61
4178.89
4169.21
4155.63
4138.36
4117.64
4093.75
4067.01
4037.82
4006.56
3973.65
3939.51
3904.57
3869.23
3833.9
3798.9
3764.61
3731.27
3699.15
3668.46
3639.38
3612.06
3586.64
3563.2
3541.81
3522.5
3505.28
3490.11
3476.97
3465.78
3456.47
3449
3443.29
3439.27
3436.87
3436.08
3436.88
3439.17
3442.96
3448.23
3454.99
3463.26
3473.08
3484.48
3497.48
3512.11
3528.42
3546.43
3566.14
3587.56
3610.66
3635.41
3661.73
3689.54
3718.71
3749.07
3780.45
3812.64
3845.35
3878.32
3911.23
3943.77
3975.56
4006.26
4035.52
4062.99
4088.31
4111.16
4131.25
4148.31
4162.1
4172.42
4179.14
4182.12
4181.26
4176.6
4168.18
4156
4140.19
4120.92
4098.36
4072.78
4044.45
4013.71
3980.94
3946.53
3910.91
3874.54
3837.91
3801.45
3765.62
3730.82
3697.43
3665.74
3636.01
3608.44
3583.16
3560.24
3539.72
3521.58
3505.77
3492.19
3480.74
3471.27
3463.67
3457.79
3453.49
3450.66
3449.17
3448.94
3449.9
3451.97
3455.13
3459.37
3464.69
3471.12
3478.68
3487.47
3497.55
3508.99
3521.91
3536.39
3552.54
3570.43
3590.13
3611.72
3635.2
3660.58
3687.81
3716.8
3747.4
3779.42
3812.61
3846.64
3881.2
3915.88
3950.28
3983.95
4016.44
4047.28
4076.03
4102.25
4125.56
4145.59
4162.06
4174.71
4183.36
4187.92
4188.21
4184.37
4176.47
4164.59
4148.92
4129.72
4107.28
4081.93
4054.04
4024
3992.23
3959.17
3925.21
3890.75
3856.2
3821.88
3786.87
3753.9
3721.95
3691.23
3661.91
3634.13
3608.02
3583.65
3561.1
3540.41
3521.62
3504.71
3489.7
3476.54
3465.23
3455.72
3447.99
3442.02
3437.78
3435.22
3434.36
3435.21
3437.67
3441.78
3447.5
3454.84
3463.78
3474.33
3486.49
3500.27
3515.64
3532.62
3551.19
3571.35
3593.06
3616.29
3640.97
3667.03
3694.35
3722.81
3752.24
3782.41
3812.76
3843.85
3875.11
3906.24
3936.96
3966.93
3995.87
4023.44
4049.31
4073.2
4094.81
4113.86
4130.12
4143.35
4153.38
4160.08
4163.3
4162.77
4158.66
4151.09
4140.12
4125.91
4108.68
4088.68
4066.18
4041.52
4015.03
3987.06
3957.98
3928.15
3897.91
3867.59
3837.46
3807.99
3781.2
3753.75
3727.26
3702
3678.14
3655.78
3634.99
3615.84
3598.36
3582.55
3568.42
3555.94
3545.11
3535.88
3528.22
3522.1
3517.46
3514.26
3512.46
3512.47
3513.91
3516.74
3520.94
3526.45
3533.24
3541.27
3550.49
3560.91
3572.52
3848.18
3880.26
3911.81
3942.32
3971.36
3998.35
4022.9
4044.57
4063.01
4077.95
4089.13
4096.36
4099.46
4098.07
4092.45
4082.8
4069.14
4051.67
4030.65
4006.41
3979.29
3949.67
3917.95
3884.6
3850.05
3814.74
3779.04
3743.34
3708.18
3677.22
3644.16
3612.22
3581.7
3552.79
3525.6
3500.23
3476.75
3455.16
3435.49
3417.7
3401.78
3387.67
3375.33
3364.72
3355.77
3348.45
3342.7
3338.49
3335.78
3334.56
3334.86
3336.92
3340.47
3345.56
3352.22
3360.46
3370.32
3381.85
3395.06
3409.99
3426.65
3445.04
3465.18
3487.03
3510.58
3535.76
3562.5
3590.68
3620.19
3650.85
3682.5
3714.43
3747.34
3780.51
3813.66
3846.47
3878.63
3909.78
3939.56
3967.61
3993.56
4017.03
4037.68
4055.18
4069.23
4079.58
4086.05
4088.5
4086.82
4081.1
4071.41
4057.81
4040.51
4019.76
3995.84
3969.07
3939.84
3908.54
3875.59
3841.42
3806.44
3771.08
3735.72
3700.69
3666.38
3633.04
3600.9
3570.2
3541.11
3513.79
3488.36
3464.92
3443.53
3424.22
3407
3391.85
3378.71
3367.52
3358.23
3350.76
3345.05
3341.04
3338.65
3337.87
3338.66
3340.95
3344.74
3350.01
3356.77
3365.04
3374.86
3386.25
3399.24
3413.87
3430.18
3448.18
3467.89
3489.31
3512.41
3537.16
3563.49
3591.3
3620.47
3650.85
3682.25
3714.45
3747.18
3780.17
3813.11
3845.67
3877.5
3908.23
3937.53
3965.02
3990.37
4013.26
4033.37
4050.45
4064.26
4074.6
4081.33
4084.33
4083.46
4078.79
4070.36
4058.17
4042.35
4023.05
4000.47
3974.86
3946.5
3915.73
3882.92
3848.47
3812.81
3776.41
3739.73
3703.25
3667.39
3632.57
3599.15
3567.45
3537.71
3510.13
3484.85
3461.94
3441.42
3423.29
3407.48
3393.92
3382.48
3373.03
3365.43
3359.56
3355.27
3352.45
3350.97
3350.75
3351.71
3353.78
3356.94
3361.18
3366.5
3372.93
3380.49
3389.26
3399.34
3410.77
3423.68
3438.16
3454.29
3472.17
3491.87
3513.45
3536.93
3562.31
3589.54
3618.54
3649.15
3681.18
3714.39
3748.45
3783.03
3817.75
3852.18
3885.89
3918.42
3949.3
3978.09
4004.35
4027.69
4047.75
4064.25
4076.92
4085.58
4090.15
4090.45
4086.58
4078.67
4066.77
4051.09
4031.85
4009.38
3983.99
3956.07
3925.99
3894.19
3861.09
3827.09
3792.61
3758.03
3723.7
3688.65
3655.67
3623.72
3592.98
3563.65
3535.87
3509.75
3485.39
3462.83
3442.15
3423.35
3406.45
3391.44
3378.29
3366.98
3357.48
3349.75
3343.78
3339.55
3336.99
3336.13
3336.98
3339.44
3343.55
3349.27
3356.61
3365.55
3376.1
3388.26
3402.03
3417.4
3434.38
3452.95
3473.1
3494.82
3518.05
3542.74
3568.8
3596.13
3624.59
3654.03
3684.22
3714.59
3745.69
3776.98
3808.13
3838.87
3868.87
3897.84
3925.43
3951.34
3975.25
3996.89
4015.97
4032.24
4045.49
4055.54
4062.25
4065.48
4064.94
4060.82
4053.24
4042.26
4028.03
4010.78
3990.75
3968.22
3943.53
3917.01
3889.01
3859.9
3830.04
3799.78
3769.43
3739.28
3709.81
3682.98
3655.52
3629.03
3603.76
3579.89
3557.53
3536.75
3517.6
3500.11
3484.31
3470.18
3457.71
3446.88
3437.65
3430
3423.88
3419.25
3416.05
3414.26
3414.27
3415.71
3418.55
3422.75
3428.26
3435.05
3443.08
3452.3
3462.72
3474.33
3750.06
3782.19
3813.79
3844.35
3873.45
3900.5
3925.1
3946.82
3965.3
3980.28
3991.49
3998.73
4001.85
4000.47
3994.84
3985.16
3971.46
3953.95
3932.89
3908.59
3881.43
3851.75
3819.97
3786.57
3751.97
3716.6
3680.87
3645.14
3609.95
3578.89
3545.83
3513.88
3483.35
3454.43
3427.24
3401.87
3378.39
3356.81
3337.14
3319.36
3303.45
3289.35
3277.02
3266.41
3257.47
3250.15
3244.41
3240.21
3237.5
3236.29
3236.58
3238.64
3242.19
3247.28
3253.93
3262.17
3272.02
3283.55
3296.75
3311.67
3328.33
3346.72
3366.85
3388.71
3412.25
3437.44
3464.18
3492.37
3521.89
3552.57
3584.24
3616.2
3649.14
3682.34
3715.52
3748.37
3780.57
3811.77
3841.61
3869.71
3895.71
3919.23
3939.92
3957.46
3971.55
3981.93
3988.42
3990.89
3989.19
3983.47
3973.75
3960.13
3942.79
3922
3898.02
3871.2
3841.92
3810.56
3777.56
3743.34
3708.31
3672.9
3637.5
3602.44
3568.1
3534.73
3502.58
3471.86
3442.76
3415.42
3389.99
3366.54
3345.16
3325.86
3308.65
3293.5
3280.37
3269.19
3259.91
3252.45
3246.75
3242.74
3240.36
3239.59
3240.38
3242.68
3246.46
3251.73
3258.49
3266.75
3276.57
3287.95
3300.94
3315.56
3331.86
3349.86
3369.57
3390.98
3414.08
3438.83
3465.17
3492.99
3522.18
3552.57
3583.99
3616.22
3648.97
3682
3714.98
3747.59
3779.46
3810.24
3839.58
3867.12
3892.52
3915.45
3935.6
3952.72
3966.56
3976.92
3983.67
3986.68
3985.81
3981.14
3972.7
3960.48
3944.64
3925.3
3902.68
3877.03
3848.62
3817.79
3784.93
3750.42
3714.71
3678.25
3641.53
3604.99
3569.09
3534.23
3500.79
3469.06
3439.31
3411.72
3386.44
3363.53
3343.02
3324.9
3309.11
3295.56
3284.13
3274.7
3267.13
3261.27
3257
3254.19
3252.72
3252.52
3253.48
3255.55
3258.71
3262.95
3268.27
3274.69
3282.24
3291.01
3301.07
3312.49
3325.39
3339.85
3355.97
3373.84
3393.52
3415.09
3438.57
3463.95
3491.19
3520.19
3550.82
3582.87
3616.11
3650.2
3684.83
3719.6
3754.08
3787.85
3820.44
3851.38
3880.23
3906.54
3929.94
3950.05
3966.58
3979.28
3987.97
3992.53
3992.85
3988.96
3981.03
3969.1
3953.38
3934.1
3911.58
3886.14
3858.16
3828.03
3796.17
3763.02
3728.97
3694.44
3659.83
3625.49
3590.37
3557.39
3525.41
3494.67
3465.33
3437.53
3411.41
3387.04
3364.49
3343.8
3325.01
3308.12
3293.11
3279.97
3268.66
3259.16
3251.44
3245.48
3241.24
3238.69
3237.84
3238.68
3241.15
3245.25
3250.98
3258.31
3267.26
3277.81
3289.96
3303.73
3319.1
3336.07
3354.64
3374.79
3396.51
3419.75
3444.43
3470.5
3497.84
3526.32
3555.78
3585.99
3616.37
3647.5
3678.82
3710.01
3740.79
3770.83
3799.84
3827.48
3853.42
3877.38
3899.06
3918.17
3934.48
3947.76
3957.83
3964.55
3967.8
3967.25
3963.13
3955.53
3944.52
3930.26
3912.98
3892.91
3870.33
3845.6
3819.03
3790.98
3761.83
3731.93
3701.63
3671.25
3641.08
3611.57
3584.7
3557.23
3530.73
3505.45
3481.58
3459.21
3438.43
3419.28
3401.8
3386
3371.87
3359.41
3348.58
3339.37
3331.72
3325.61
3320.98
3317.79
3316
3316.01
3317.46
3320.3
3324.5
3330.02
3336.81
3344.84
3354.06
3364.48
3376.09
3651.93
3684.12
3715.8
3746.43
3775.6
3802.73
3827.4
3849.18
3867.72
3882.75
3894
3901.27
3904.4
3903.04
3897.39
3887.67
3873.93
3856.37
3835.25
3810.88
3783.64
3753.89
3722.04
3688.56
3653.88
3618.46
3582.67
3546.89
3511.68
3480.5
3447.43
3415.46
3384.92
3355.99
3328.79
3303.43
3279.95
3258.38
3238.71
3220.95
3205.04
3190.95
3178.64
3168.04
3159.11
3151.8
3146.07
3141.87
3139.17
3137.96
3138.25
3140.31
3143.85
3148.94
3155.58
3163.81
3173.66
3185.17
3198.37
3213.29
3229.93
3248.31
3268.44
3290.3
3313.85
3339.04
3365.79
3393.99
3423.53
3454.23
3485.93
3517.93
3550.9
3584.14
3617.38
3650.28
3682.54
3713.8
3743.7
3771.87
3797.93
3821.52
3842.28
3859.88
3874.01
3884.43
3890.95
3893.43
3891.74
3885.99
3876.24
3862.58
3845.2
3824.35
3800.31
3773.42
3744.06
3712.63
3679.55
3645.26
3610.16
3574.69
3539.24
3504.13
3469.76
3436.35
3404.17
3373.43
3344.32
3316.97
3291.53
3268.08
3246.7
3227.4
3210.2
3195.06
3181.95
3170.79
3161.51
3154.07
3148.38
3144.38
3142.01
3141.25
3142.04
3144.34
3148.13
3153.39
3160.15
3168.41
3178.21
3189.59
3202.57
3217.18
3233.48
3251.47
3271.17
3292.58
3315.68
3340.43
3366.77
3394.61
3423.81
3454.23
3485.67
3517.93
3550.73
3583.81
3616.84
3649.5
3681.43
3712.28
3741.68
3769.29
3794.74
3817.73
3837.94
3855.11
3868.98
3879.38
3886.15
3889.17
3888.32
3883.63
3875.17
3862.93
3847.05
3827.68
3805
3779.29
3750.82
3719.92
3686.98
3652.4
3616.61
3580.08
3543.28
3506.68
3470.72
3435.82
3402.33
3370.58
3340.8
3313.21
3287.92
3265.02
3244.52
3226.41
3210.64
3197.11
3185.71
3176.31
3168.75
3162.92
3158.67
3155.88
3154.43
3154.23
3155.2
3157.28
3160.44
3164.68
3170
3176.4
3183.95
3192.7
3202.75
3214.15
3227.03
3241.47
3257.58
3275.43
3295.1
3316.65
3340.12
3365.5
3392.75
3421.76
3452.41
3484.5
3517.77
3551.91
3586.6
3621.43
3655.99
3689.83
3722.5
3753.52
3782.44
3808.84
3832.3
3852.47
3869.06
3881.8
3890.51
3895.08
3895.41
3891.51
3883.54
3871.58
3855.8
3836.47
3813.88
3788.37
3760.31
3730.11
3698.18
3664.96
3630.85
3596.25
3561.59
3527.22
3492.03
3459.04
3427.04
3396.27
3366.92
3339.12
3312.99
3288.61
3266.06
3245.38
3226.59
3209.7
3194.7
3181.56
3170.27
3160.78
3153.06
3147.1
3142.87
3140.32
3139.48
3140.32
3142.79
3146.9
3152.62
3159.96
3168.9
3179.44
3191.6
3205.36
3220.73
3237.69
3256.26
3276.41
3298.13
3321.37
3346.06
3372.14
3399.49
3427.99
3457.47
3487.71
3518.12
3549.29
3580.65
3611.89
3642.72
3672.81
3701.87
3729.57
3755.57
3779.59
3801.32
3820.48
3836.83
3850.15
3860.25
3866.99
3870.25
3869.71
3865.57
3857.94
3846.91
3832.61
3815.28
3795.15
3772.52
3747.72
3721.09
3692.98
3663.77
3633.81
3603.46
3573.04
3542.83
3513.29
3486.36
3458.88
3432.36
3407.07
3383.19
3360.82
3340.03
3320.89
3303.41
3287.61
3273.5
3261.04
3250.22
3241.01
3233.38
3227.27
3222.65
3219.47
3217.68
3217.7
3219.16
3222
3226.21
3231.73
3238.52
3246.55
3255.78
3266.2
3277.81
3553.79
3586.07
3617.83
3648.56
3677.82
3705.04
3729.8
3751.66
3770.28
3785.36
3796.66
3803.96
3807.12
3805.77
3800.1
3790.33
3776.54
3758.91
3737.71
3713.26
3685.93
3656.08
3624.14
3590.57
3555.81
3520.3
3484.44
3448.61
3413.36
3382.03
3348.95
3316.96
3286.4
3257.46
3230.26
3204.9
3181.42
3159.86
3140.21
3122.45
3106.56
3092.49
3080.18
3069.6
3060.68
3053.38
3047.66
3043.47
3040.78
3039.57
3039.85
3041.91
3045.45
3050.53
3057.17
3065.39
3075.23
3086.73
3099.92
3114.83
3131.47
3149.84
3169.96
3191.82
3215.37
3240.56
3267.33
3295.55
3325.11
3355.83
3387.56
3419.61
3452.63
3485.93
3519.22
3552.19
3584.52
3615.86
3645.84
3674.09
3700.24
3723.92
3744.76
3762.42
3776.62
3787.08
3793.63
3796.12
3794.44
3788.67
3778.89
3765.18
3747.73
3726.81
3702.69
3675.71
3646.26
3614.73
3581.56
3547.18
3512
3476.46
3440.94
3405.77
3371.35
3337.91
3305.69
3274.93
3245.79
3218.43
3192.98
3169.53
3148.15
3128.86
3111.67
3096.55
3083.45
3072.3
3063.05
3055.62
3049.94
3045.95
3043.6
3042.84
3043.64
3045.95
3049.73
3055
3061.74
3070
3079.8
3091.16
3104.13
3118.73
3135.02
3153
3172.69
3194.1
3217.2
3241.96
3268.31
3296.16
3325.38
3355.82
3387.31
3419.61
3452.46
3485.59
3518.69
3551.42
3583.43
3614.35
3643.83
3671.52
3697.06
3720.12
3740.4
3757.62
3771.55
3781.98
3788.78
3791.81
3790.97
3786.28
3777.79
3765.52
3749.6
3730.17
3707.43
3681.64
3653.09
3622.1
3589.07
3554.4
3518.51
3481.89
3445
3408.32
3372.29
3337.32
3303.79
3272
3242.2
3214.59
3189.3
3166.4
3145.92
3127.83
3112.08
3098.58
3087.21
3077.83
3070.31
3064.5
3060.28
3057.51
3056.08
3055.9
3056.88
3058.96
3062.13
3066.37
3071.68
3078.07
3085.6
3094.34
3104.37
3115.75
3128.61
3143.03
3159.11
3176.94
3196.59
3218.13
3241.59
3266.96
3294.22
3323.25
3353.93
3386.05
3419.37
3453.57
3488.33
3523.24
3557.89
3591.83
3624.59
3655.72
3684.74
3711.23
3734.78
3755.03
3771.68
3784.47
3793.21
3797.8
3798.13
3794.21
3786.21
3774.19
3758.36
3738.95
3716.28
3690.68
3662.53
3632.23
3600.21
3566.91
3532.71
3498.04
3463.31
3428.89
3393.66
3360.64
3328.61
3297.81
3268.44
3240.62
3214.48
3190.1
3167.55
3146.87
3128.09
3111.2
3096.21
3083.09
3071.8
3062.32
3054.61
3048.66
3044.43
3041.89
3041.06
3041.89
3044.37
3048.48
3054.2
3061.53
3070.47
3081.02
3093.17
3106.93
3122.29
3139.25
3157.81
3177.96
3199.68
3222.92
3247.62
3273.71
3301.08
3329.6
3359.11
3389.38
3419.83
3451.05
3482.46
3513.76
3544.65
3574.81
3603.94
3631.71
3657.78
3681.87
3703.67
3722.89
3739.3
3752.66
3762.8
3769.56
3772.84
3772.3
3768.14
3760.49
3749.41
3735.06
3717.67
3697.48
3674.77
3649.9
3623.19
3595
3565.71
3535.69
3505.27
3474.8
3444.55
3414.97
3387.96
3360.46
3333.92
3308.62
3284.73
3262.35
3241.56
3222.42
3204.95
3189.16
3175.05
3162.6
3151.8
3142.6
3134.97
3128.88
3124.27
3121.1
3119.32
3119.35
3120.81
3123.66
3127.87
3133.39
3140.19
3148.22
3157.45
3167.87
3179.49
3455.65
3488.02
3519.89
3550.73
3580.11
3607.43
3632.3
3654.26
3672.96
3688.12
3699.48
3706.82
3710
3708.66
3702.97
3693.15
3679.29
3661.58
3640.29
3615.74
3588.3
3558.34
3526.28
3492.6
3457.73
3422.13
3386.19
3350.29
3314.99
3283.5
3250.39
3218.38
3187.8
3158.85
3131.64
3106.28
3082.81
3061.25
3041.61
3023.88
3008
2993.94
2981.66
2971.09
2962.19
2954.9
2949.19
2945.01
2942.33
2941.13
2941.4
2943.46
2947
2952.07
2958.7
2966.91
2976.73
2988.23
3001.4
3016.29
3032.92
3051.28
3071.4
3093.26
3116.81
3142.01
3168.79
3197.03
3226.61
3257.37
3289.14
3321.25
3354.32
3387.68
3421.05
3454.1
3486.51
3517.94
3548.02
3576.38
3602.63
3626.41
3647.35
3665.1
3679.36
3689.89
3696.47
3698.98
3697.3
3691.51
3681.68
3667.91
3650.39
3629.38
3605.16
3578.08
3548.52
3516.88
3483.6
3449.11
3413.83
3378.2
3342.6
3307.36
3272.88
3239.39
3207.14
3176.34
3147.18
3119.8
3094.34
3070.89
3049.51
3030.23
3013.06
2997.95
2984.87
2973.74
2964.51
2957.1
2951.44
2947.46
2945.12
2944.38
2945.18
2947.49
2951.28
2956.54
2963.28
2971.53
2981.32
2992.67
3005.62
3020.22
3036.49
3054.46
3074.15
3095.55
3118.65
3143.41
3169.77
3197.63
3226.88
3257.36
3288.89
3321.24
3354.15
3387.35
3420.53
3453.34
3485.44
3516.46
3546.04
3573.82
3599.45
3622.6
3642.96
3660.25
3674.24
3684.72
3691.55
3694.6
3693.77
3689.08
3680.56
3668.25
3652.27
3632.77
3609.96
3584.09
3555.43
3524.34
3491.2
3456.41
3420.41
3383.68
3346.69
3309.91
3273.79
3238.75
3205.15
3173.32
3143.49
3115.87
3090.57
3067.68
3047.21
3029.15
3013.43
2999.96
2988.62
2979.29
2971.8
2966.03
2961.83
2959.09
2957.69
2957.52
2958.51
2960.61
2963.78
2968.01
2973.32
2979.7
2987.21
2995.94
3005.93
3017.29
3030.12
3044.51
3060.57
3078.37
3098
3119.52
3142.97
3168.34
3195.6
3224.66
3255.36
3287.53
3320.91
3355.19
3390.03
3425.04
3459.79
3493.85
3526.73
3557.98
3587.12
3613.72
3637.38
3657.72
3674.45
3687.29
3696.08
3700.68
3701.01
3697.08
3689.03
3676.95
3661.04
3641.55
3618.78
3593.07
3564.81
3534.41
3502.28
3468.87
3434.57
3399.81
3365
3330.51
3295.24
3262.17
3230.1
3199.27
3169.87
3142.04
3115.89
3091.51
3068.95
3048.28
3029.5
3012.63
2997.65
2984.54
2973.26
2963.79
2956.09
2950.15
2945.92
2943.39
2942.56
2943.4
2945.89
2949.99
2955.72
2963.05
2971.98
2982.52
2994.67
3008.42
3023.78
3040.73
3059.3
3079.44
3101.16
3124.4
3149.11
3175.21
3202.61
3231.15
3260.7
3291.01
3321.5
3352.77
3384.25
3415.62
3446.59
3476.83
3506.05
3533.9
3560.06
3584.23
3606.11
3625.4
3641.88
3655.3
3665.48
3672.27
3675.56
3675.03
3670.86
3663.17
3652.04
3637.63
3620.17
3599.89
3577.1
3552.13
3525.33
3497.05
3467.67
3437.56
3407.07
3376.52
3346.22
3316.6
3289.51
3261.98
3235.42
3210.1
3186.19
3163.81
3143.02
3123.88
3106.42
3090.64
3076.54
3064.1
3053.31
3044.12
3036.51
3030.43
3025.83
3022.68
3020.91
3020.94
3022.41
3025.27
3029.48
3035.01
3041.81
3049.85
3059.08
3069.5
3081.12
3357.49
3389.98
3421.98
3452.94
3482.45
3509.91
3534.9
3556.97
3575.78
3591.02
3602.45
3609.84
3613.04
3611.71
3606
3596.12
3582.18
3564.38
3542.99
3518.31
3490.74
3460.65
3428.46
3394.65
3359.66
3323.94
3287.91
3251.93
3216.58
3184.89
3151.76
3119.72
3089.12
3060.15
3032.93
3007.57
2984.11
2962.56
2942.94
2925.22
2909.36
2895.33
2883.06
2872.51
2863.63
2856.36
2850.66
2846.49
2843.82
2842.62
2842.9
2844.94
2848.48
2853.55
2860.17
2868.36
2878.17
2889.65
2902.81
2917.69
2934.3
2952.66
2972.77
2994.62
3018.18
3043.39
3070.18
3098.45
3128.06
3158.85
3190.66
3222.85
3255.98
3289.42
3322.86
3356.01
3388.52
3420.06
3450.25
3478.73
3505.1
3529
3550.05
3567.9
3582.25
3592.84
3599.47
3602
3600.32
3594.51
3584.63
3570.79
3553.18
3532.07
3507.73
3480.52
3450.83
3419.07
3385.65
3351.04
3315.65
3279.91
3244.21
3208.9
3174.35
3140.8
3108.51
3077.67
3048.48
3021.09
2995.61
2972.15
2950.78
2931.51
2914.35
2899.27
2886.21
2875.11
2865.9
2858.51
2852.86
2848.91
2846.58
2845.85
2846.67
2848.98
2852.77
2858.03
2864.76
2873
2882.77
2894.11
2907.05
2921.63
2937.89
2955.85
2975.52
2996.92
3020.02
3044.78
3071.15
3099.04
3128.32
3158.83
3190.41
3222.82
3255.8
3289.08
3322.35
3355.27
3387.47
3418.6
3448.29
3476.19
3501.93
3525.18
3545.63
3563.01
3577.07
3587.61
3594.47
3597.55
3596.73
3592.02
3583.47
3571.12
3555.08
3535.5
3512.6
3486.62
3457.85
3426.64
3393.37
3358.44
3322.31
3285.45
3248.33
3211.44
3175.22
3140.09
3106.43
3074.55
3044.68
3017.04
2991.74
2968.85
2948.41
2930.37
2914.68
2901.25
2889.96
2880.67
2873.22
2867.49
2863.33
2860.62
2859.24
2859.1
2860.11
2862.21
2865.38
2869.62
2874.91
2881.28
2888.77
2897.47
2907.44
2918.77
2931.57
2945.93
2961.95
2979.72
2999.33
3020.83
3044.26
3069.63
3096.9
3125.98
3156.72
3188.95
3222.39
3256.75
3291.69
3326.81
3361.69
3395.88
3428.91
3460.29
3489.57
3516.31
3540.09
3560.54
3577.36
3590.28
3599.1
3603.73
3604.06
3600.11
3592.01
3579.86
3563.86
3544.26
3521.38
3495.55
3467.16
3436.62
3404.37
3370.83
3336.42
3301.56
3266.64
3232.07
3196.77
3163.65
3131.52
3100.66
3071.24
3043.39
3017.22
2992.83
2970.28
2949.6
2930.83
2913.97
2899.01
2885.91
2874.65
2865.19
2857.5
2851.56
2847.35
2844.83
2844.01
2844.85
2847.34
2851.45
2857.17
2864.5
2873.43
2883.97
2896.11
2909.85
2925.2
2942.15
2960.71
2980.85
3002.57
3025.82
3050.53
3076.65
3104.07
3132.65
3162.24
3192.6
3223.13
3254.47
3286.03
3317.47
3348.53
3378.87
3408.18
3436.13
3462.39
3486.66
3508.63
3528.02
3544.57
3558.06
3568.29
3575.12
3578.43
3577.89
3573.71
3565.97
3554.79
3540.31
3522.76
3502.39
3479.49
3454.42
3427.51
3399.12
3369.63
3339.42
3308.84
3278.22
3247.86
3218.19
3190.99
3163.43
3136.85
3111.51
3087.59
3065.2
3044.41
3025.27
3007.81
2992.04
2977.95
2965.53
2954.75
2945.58
2937.98
2931.92
2927.34
2924.2
2922.44
2922.48
2923.96
2926.82
2931.04
2936.58
2943.38
2951.42
2960.66
2971.08
2982.7
3259.33
3291.94
3324.09
3355.2
3384.86
3412.47
3437.59
3459.81
3478.73
3494.07
3505.58
3513.02
3516.25
3514.92
3509.18
3499.24
3485.22
3467.31
3445.79
3420.98
3393.27
3363.03
3330.68
3296.72
3261.59
3225.74
3189.6
3153.53
3118.11
3086.22
3053.05
3020.98
2990.35
2961.36
2934.14
2908.78
2885.32
2863.79
2844.19
2826.48
2810.65
2796.64
2784.39
2773.87
2765
2757.75
2752.06
2747.91
2745.25
2744.06
2744.33
2746.38
2749.91
2754.97
2761.57
2769.75
2779.54
2791.01
2804.15
2819.01
2835.61
2853.95
2874.06
2895.91
2919.47
2944.69
2971.5
2999.79
3029.43
3060.27
3092.12
3124.41
3157.61
3191.12
3224.66
3257.91
3290.55
3322.21
3352.53
3381.14
3407.66
3431.69
3452.87
3470.84
3485.28
3495.95
3502.63
3505.19
3503.51
3497.66
3487.72
3473.8
3456.1
3434.87
3410.4
3383.05
3353.21
3321.29
3287.73
3252.98
3217.45
3181.59
3145.79
3110.38
3075.76
3042.14
3009.8
2978.92
2949.7
2922.28
2896.79
2873.33
2851.96
2832.7
2815.56
2800.51
2787.47
2776.4
2767.21
2759.85
2754.23
2750.29
2747.99
2747.27
2748.09
2750.41
2754.2
2759.45
2766.18
2774.41
2784.17
2795.49
2808.4
2822.97
2839.21
2857.16
2876.82
2898.21
2921.31
2946.08
2972.46
3000.37
3029.68
3060.25
3091.88
3124.35
3157.42
3190.79
3224.17
3257.2
3289.52
3320.77
3350.6
3378.62
3404.48
3427.86
3448.42
3465.89
3480.03
3490.63
3497.54
3500.64
3499.83
3495.11
3486.53
3474.12
3458.01
3438.35
3415.34
3389.25
3360.35
3328.99
3295.57
3260.49
3224.21
3187.2
3149.94
3112.92
3076.58
3041.35
3007.61
2975.67
2945.77
2918.11
2892.8
2869.93
2849.5
2831.49
2815.84
2802.46
2791.21
2781.97
2774.57
2768.88
2764.77
2762.1
2760.75
2760.63
2761.65
2763.77
2766.95
2771.18
2776.46
2782.81
2790.29
2798.96
2808.9
2820.19
2832.95
2847.28
2863.26
2881
2900.57
2922.05
2945.47
2970.83
2998.11
3027.22
3058
3090.28
3123.8
3158.26
3193.32
3228.57
3263.59
3297.94
3331.12
3362.67
3392.11
3419
3442.92
3463.5
3480.42
3493.42
3502.3
3506.95
3507.28
3503.3
3495.14
3482.91
3466.81
3447.09
3424.08
3398.11
3369.57
3338.88
3306.48
3272.81
3238.26
3203.28
3168.25
3133.56
3098.27
3065.06
3032.88
3001.97
2972.52
2944.65
2918.47
2894.07
2871.52
2850.85
2832.09
2815.24
2800.29
2787.21
2775.96
2766.51
2758.84
2752.91
2748.71
2746.2
2745.38
2746.23
2748.72
2752.84
2758.56
2765.88
2774.81
2785.34
2797.48
2811.22
2826.55
2843.5
2862.05
2882.19
2903.9
2927.16
2951.88
2978.02
3005.47
3034.08
3063.72
3094.14
3124.71
3156.14
3187.78
3219.32
3250.48
3280.93
3310.35
3338.42
3364.79
3389.17
3411.25
3430.74
3447.38
3460.94
3471.23
3478.1
3481.44
3480.9
3476.69
3468.91
3457.66
3443.1
3425.46
3404.98
3381.96
3356.76
3329.72
3301.21
3271.6
3241.28
3210.6
3179.89
3149.45
3119.73
3092.42
3064.82
3038.2
3012.84
2988.91
2966.51
2945.72
2926.58
2909.13
2893.37
2879.3
2866.89
2856.13
2846.98
2839.4
2833.35
2828.79
2825.67
2823.93
2823.98
2825.46
2828.33
2832.56
2838.1
2844.91
2852.95
2862.19
2872.62
2884.24
3161.15
3193.92
3226.22
3257.51
3287.34
3315.1
3340.39
3362.75
3381.81
3397.26
3408.86
3416.36
3419.62
3418.3
3412.53
3402.52
3388.4
3370.38
3348.72
3323.74
3295.87
3265.46
3232.94
3198.81
3163.52
3127.53
3091.25
3055.08
3019.58
2987.47
2954.27
2922.16
2891.5
2862.49
2835.26
2809.9
2786.45
2764.93
2745.35
2727.67
2711.86
2697.87
2685.66
2675.15
2666.31
2659.08
2653.41
2649.27
2646.62
2645.44
2645.71
2647.75
2651.28
2656.32
2662.92
2671.08
2680.85
2692.29
2705.42
2720.26
2736.84
2755.17
2775.27
2797.12
2820.68
2845.91
2872.74
2901.06
2930.74
2961.63
2993.53
3025.91
3059.2
3092.81
3126.45
3159.82
3192.58
3224.39
3254.86
3283.62
3310.29
3334.48
3355.8
3373.9
3388.46
3399.21
3405.95
3408.53
3406.85
3400.97
3390.97
3376.96
3359.14
3337.78
3313.16
3285.65
3255.65
3223.56
3189.83
3154.91
3119.24
3083.24
3047.32
3011.81
2977.1
2943.42
2911.01
2880.09
2850.83
2823.39
2797.88
2774.41
2753.04
2733.8
2716.69
2701.66
2688.66
2677.61
2668.45
2661.11
2655.52
2651.61
2649.32
2648.62
2649.46
2651.78
2655.57
2660.82
2667.54
2675.75
2685.5
2696.8
2709.7
2724.24
2740.47
2758.4
2778.05
2799.43
2822.52
2847.3
2873.7
2901.64
2930.98
2961.59
2993.29
3025.84
3058.99
3092.48
3125.97
3159.13
3191.59
3222.98
3252.95
3281.12
3307.12
3330.63
3351.32
3368.9
3383.13
3393.8
3400.76
3403.89
3403.09
3398.36
3389.73
3377.27
3361.07
3341.31
3318.19
3291.96
3262.92
3231.4
3197.81
3162.56
3126.11
3088.93
3051.51
3014.34
2977.87
2942.53
2908.71
2876.7
2846.76
2819.07
2793.76
2770.89
2750.49
2732.52
2716.91
2703.58
2692.39
2683.2
2675.86
2670.22
2666.15
2663.52
2662.21
2662.12
2663.16
2665.29
2668.47
2672.7
2677.97
2684.3
2691.75
2700.4
2710.3
2721.55
2734.27
2748.56
2764.5
2782.2
2801.74
2823.19
2846.59
2871.95
2899.24
2928.37
2959.2
2991.55
3025.16
3059.73
3094.91
3130.3
3165.49
3200.01
3233.37
3265.1
3294.73
3321.79
3345.87
3366.59
3383.63
3396.71
3405.65
3410.33
3410.66
3406.66
3398.43
3386.11
3369.89
3350.04
3326.88
3300.74
3272.04
3241.19
3208.62
3174.79
3140.1
3104.97
3069.82
3034.99
2999.73
2966.41
2934.17
2903.21
2873.73
2845.83
2819.64
2795.23
2772.67
2752.01
2733.26
2716.43
2701.49
2688.43
2677.2
2667.77
2660.11
2654.19
2650
2647.5
2646.69
2647.55
2650.04
2654.16
2659.88
2667.2
2676.13
2686.65
2698.78
2712.51
2727.84
2744.78
2763.32
2783.45
2805.17
2828.43
2853.17
2879.33
2906.8
2935.46
2965.15
2995.63
3026.26
3057.77
3089.52
3121.16
3152.44
3183.01
3212.55
3240.75
3267.25
3291.76
3313.96
3333.56
3350.3
3363.94
3374.3
3381.22
3384.58
3384.05
3379.81
3371.98
3360.66
3346.01
3328.25
3307.65
3284.5
3259.16
3231.98
3203.32
3173.58
3143.13
3112.33
3081.52
3051
3021.22
2993.79
2966.15
2939.5
2914.11
2890.15
2867.74
2846.95
2827.82
2810.38
2794.64
2780.58
2768.19
2757.44
2748.31
2740.75
2734.72
2730.18
2727.08
2725.36
2725.42
2726.91
2729.79
2734.03
2739.57
2746.39
2754.44
2763.68
2774.11
2785.74
3062.96
3095.9
3128.38
3159.85
3189.87
3217.83
3243.29
3265.82
3285.02
3300.6
3312.3
3319.87
3323.17
3321.85
3316.04
3305.95
3291.72
3273.57
3251.75
3226.61
3198.54
3167.94
3135.24
3100.92
3065.45
3029.3
2992.88
2956.6
2921
2888.67
2855.41
2823.25
2792.56
2763.53
2736.29
2710.93
2687.49
2665.99
2646.43
2628.78
2612.99
2599.04
2586.85
2576.37
2567.55
2560.34
2554.69
2550.57
2547.93
2546.76
2547.03
2549.07
2552.58
2557.62
2564.2
2572.34
2582.09
2593.51
2606.62
2621.44
2638
2656.32
2676.41
2698.25
2721.81
2747.06
2773.91
2802.26
2831.98
2862.92
2894.89
2927.38
2960.75
2994.46
3028.23
3061.73
3094.63
3126.59
3157.23
3186.16
3213.01
3237.37
3258.85
3277.1
3291.78
3302.62
3309.43
3312.05
3310.36
3304.44
3294.37
3280.26
3262.32
3240.81
3216.02
3188.34
3158.14
3125.86
3091.95
3056.85
3021.01
2984.87
2948.81
2913.18
2878.38
2844.61
2812.14
2781.17
2751.87
2724.4
2698.88
2675.4
2654.04
2634.82
2617.72
2602.72
2589.76
2578.75
2569.62
2562.31
2556.74
2552.86
2550.6
2549.92
2550.76
2553.1
2556.89
2562.13
2568.84
2577.04
2586.76