/*--------------------------------*- C++ -*----------------------------------*\
| =========                 |                                                 |
| \\      /  F ield         | OpenFOAM: The Open Source CFD Toolbox           |
|  \\    /   O peration     | Version:  3.0.1                                 |
|   \\  /    A nd           | Web:      www.OpenFOAM.org                      |
|    \\/     M anipulation  |                                                 |
\*---------------------------------------------------------------------------*/
FoamFile
{
    version     2.0;
    format      ascii;
    class       volScalarField;
    location    "17";
    object      p_rgh;
}
// * * * * * * * * * * * * * * * * * * * * * * * * * * * * * * * * * * * * * //

dimensions      [1 -1 -2 0 0 0 0];

internalField   nonuniform List<scalar> 
21420
(
169.456
201.482
232.979
263.43
292.415
319.359
343.855
365.472
383.869
398.769
409.923
417.139
420.199
418.833
413.219
403.593
389.961
372.53
351.565
327.367
300.307
270.743
239.081
205.788
171.287
136.02
100.366
64.7031
29.5587
-1.31116
-34.3595
-66.2869
-96.7982
-125.709
-152.895
-178.257
-201.747
-223.336
-243.018
-260.81
-276.743
-290.859
-303.204
-313.828
-322.782
-330.114
-335.866
-340.081
-342.795
-344.012
-343.721
-341.646
-338.102
-333.008
-326.347
-318.103
-308.235
-296.697
-283.478
-268.545
-251.879
-233.484
-213.347
-191.488
-167.945
-142.769
-116.039
-87.8661
-58.3723
-27.7219
3.89758
35.8156
68.6905
101.827
134.939
167.71
199.824
230.931
260.667
288.666
314.56
337.983
358.582
376.034
390.049
400.376
406.827
409.244
407.599
401.883
392.206
378.637
361.376
340.668
316.794
290.077
260.9
229.661
196.769
162.649
127.719
92.403
57.0796
22.0919
-12.1905
-45.5133
-77.6262
-108.313
-137.391
-164.706
-190.13
-213.569
-234.96
-254.268
-271.494
-286.66
-299.806
-311.003
-320.308
-327.782
-333.499
-337.517
-339.917
-340.711
-339.912
-337.623
-333.836
-328.566
-321.804
-313.53
-303.708
-292.306
-279.307
-264.674
-248.361
-230.351
-210.637
-189.218
-166.116
-141.371
-115.049
-87.244
-58.082
-27.7213
3.64943
35.8332
68.5289
101.485
134.388
166.907
198.686
229.374
258.619
286.065
311.368
334.21
354.285
371.328
385.108
395.424
402.138
405.113
404.259
399.598
391.178
379.004
363.209
343.942
321.399
295.833
267.521
236.8
204.049
169.653
134.05
97.7059
61.0845
24.6487
-11.1683
-45.9537
-79.3399
-111.021
-140.744
-168.313
-193.593
-216.509
-237.03
-255.174
-270.995
-284.578
-296.038
-305.506
-313.115
-319.005
-323.307
-326.139
-327.632
-327.866
-326.907
-324.844
-321.686
-317.445
-312.119
-305.69
-298.121
-289.334
-279.25
-267.8
-254.881
-240.391
-224.243
-206.351
-186.641
-165.055
-141.569
-116.189
-88.956
-59.9692
-29.3774
2.63077
35.8108
69.8335
104.377
139.046
173.423
207.079
239.545
270.366
299.092
325.294
348.582
368.603
385.056
397.698
406.345
410.893
411.195
407.352
399.457
387.586
371.936
352.748
330.324
304.991
277.117
247.096
215.348
182.305
148.356
113.913
79.3784
45.0577
10.0798
-22.8982
-54.8364
-85.5533
-114.872
-142.646
-168.758
-193.123
-215.674
-236.361
-255.158
-272.063
-287.082
-300.237
-311.55
-321.06
-328.792
-334.762
-339.002
-341.565
-342.431
-341.58
-339.116
-335.014
-329.289
-321.952
-313.006
-302.454
-290.292
-276.519
-261.145
-244.168
-225.592
-205.437
-183.722
-160.491
-135.809
-109.756
-82.4391
-53.988
-24.5622
5.60455
35.9496
67.024
98.2776
129.397
160.099
190.062
218.983
246.537
272.397
296.273
317.873
336.912
353.153
366.377
376.403
383.092
386.305
385.784
381.674
374.11
363.147
348.947
331.734
311.742
289.257
264.614
238.142
210.187
181.122
151.304
121.081
90.7673
60.643
31.1874
4.41256
-23.038
-49.5201
-74.7759
-98.6399
-121.001
-141.784
-160.933
-178.421
-194.231
-208.365
-220.841
-231.678
-240.907
-248.565
-254.69
-259.334
-262.537
-264.335
-264.326
-262.891
-260.056
-255.861
-250.351
-243.561
-235.535
-226.314
-215.895
-204.288
169.448
201.491
233.006
263.475
292.478
319.441
343.955
365.588
383.999
398.912
410.075
417.296
420.369
418.996
413.38
403.745
390.102
372.659
351.678
327.463
300.385
270.803
239.122
205.81
171.292
136.009
100.341
64.6668
29.5166
-1.38562
-34.4359
-66.3668
-96.8813
-125.794
-152.981
-178.344
-201.832
-223.42
-243.1
-260.889
-276.82
-290.932
-303.275
-313.896
-322.848
-330.178
-335.928
-340.142
-342.854
-344.07
-343.779
-341.707
-338.162
-333.069
-326.409
-318.167
-308.301
-296.766
-283.549
-268.618
-251.954
-233.56
-213.425
-191.566
-168.022
-142.845
-116.112
-87.9367
-58.4387
-27.783
3.84494
35.7687
68.6544
101.801
134.925
167.709
199.838
230.96
260.713
288.728
314.639
338.078
358.693
376.159
390.185
400.522
406.979
409.405
407.751
402.032
392.35
378.771
361.498
340.776
316.885
290.151
260.956
229.698
196.788
162.65
127.704
92.3725
57.0359
22.0365
-12.2552
-45.586
-77.7056
-108.398
-137.48
-164.797
-190.223
-213.663
-235.053
-254.36
-271.583
-286.746
-299.889
-311.082
-320.384
-327.855
-333.569
-337.586
-339.983
-340.772
-339.975
-337.684
-333.898
-328.628
-321.867
-313.594
-303.774
-292.374
-279.378
-264.746
-248.435
-230.427
-210.714
-189.297
-166.194
-141.449
-115.125
-87.3169
-58.1508
-27.7845
3.59388
35.7849
68.491
101.459
134.375
166.908
198.702
229.406
258.666
286.128
311.447
334.303
354.391
371.446
385.236
395.56
402.28
405.264
404.403
399.741
391.318
379.137
363.334
344.056
321.5
295.92
267.591
236.852
204.083
169.669
134.047
97.6841
61.0451
24.5931
-11.2383
-46.0359
-79.4318
-111.12
-140.849
-168.419
-193.7
-216.615
-237.134
-255.274
-271.09
-284.668
-296.122
-305.583
-313.187
-319.071
-323.368
-326.195
-327.685
-327.914
-326.954
-324.89
-321.732
-317.49
-312.166
-305.739
-298.173
-289.389
-279.308
-267.863
-254.948
-240.464
-224.32
-206.432
-186.726
-165.143
-141.659
-116.279
-89.045
-60.055
-29.4578
2.55837
35.7471
69.7819
104.34
139.024
173.419
207.094
239.58
270.421
299.167
325.388
348.694
368.729
385.195
397.847
406.501
411.058
411.352
407.505
399.604
387.724
372.062
352.859
330.419
305.068
277.177
247.137
215.371
182.311
148.346
113.887
79.3405
45.0178
10.0122
-22.9638
-54.9076
-85.6296
-114.952
-142.728
-168.843
-193.208
-215.759
-236.446
-255.242
-272.145
-287.162
-300.315
-311.626
-321.134
-328.864
-334.833
-339.072
-341.635
-342.497
-341.648
-339.183
-335.08
-329.355
-322.018
-313.073
-302.521
-290.36
-276.588
-261.215
-244.239
-225.664
-205.509
-183.794
-160.561
-135.879
-109.823
-82.5027
-54.0469
-24.6151
5.5586
35.9099
66.9944
98.2588
129.39
160.105
190.082
219.016
246.584
272.459
296.349
317.962
337.013
353.265
366.498
376.532
383.226
386.448
385.918
381.806
374.238
363.268
349.058
331.833
311.828
289.327
264.669
238.182
210.211
181.132
151.299
121.064
90.7394
60.6068
31.1434
4.35203
-23.1016
-49.5873
-74.8459
-98.7119
-121.074
-141.857
-161.006
-178.493
-194.301
-208.434
-220.908
-231.743
-240.97
-248.626
-254.749
-259.39
-262.591
-264.388
-264.378
-262.941
-260.105
-255.909
-250.398
-243.608
-235.581
-226.36
-215.941
-204.333
169.434
201.509
233.06
263.566
292.606
319.605
344.154
365.82
384.26
399.197
410.379
417.611
420.706
419.323
413.704
404.051
390.385
372.916
351.905
327.656
300.541
270.921
239.203
205.854
171.301
135.986
100.292
64.5943
29.4318
-1.53391
-34.5886
-66.5266
-97.0474
-125.965
-153.153
-178.516
-202.003
-223.588
-243.263
-261.048
-276.973
-291.08
-303.417
-314.033
-322.98
-330.305
-336.051
-340.262
-342.971
-344.187
-343.893
-341.826
-338.282
-333.19
-326.533
-318.295
-308.433
-296.902
-283.689
-268.762
-252.101
-233.711
-213.577
-191.718
-168.174
-142.994
-116.257
-88.0747
-58.568
-27.9017
3.74183
35.68
68.5863
101.755
134.902
167.713
199.87
231.024
260.808
288.857
314.803
338.276
358.922
376.416
390.467
400.822
407.292
409.736
408.062
402.341
392.645
379.049
361.751
341
317.076
290.307
261.076
229.78
196.833
162.66
127.681
92.3198
56.9567
21.9337
-12.3766
-45.7237
-77.8564
-108.559
-137.649
-164.972
-190.402
-213.843
-235.232
-254.536
-271.754
-286.912
-300.048
-311.235
-320.53
-327.995
-333.704
-337.717
-340.108
-340.89
-340.095
-337.802
-334.015
-328.747
-321.987
-313.717
-303.9
-292.505
-279.513
-264.885
-248.578
-230.573
-210.863
-189.447
-166.345
-141.598
-115.27
-87.4569
-58.2825
-27.905
3.48856
35.6945
68.4215
101.413
134.355
166.916
198.741
229.475
258.768
286.262
311.611
334.497
354.612
371.691
385.5
395.84
402.571
405.57
404.698
400.035
391.604
379.412
363.592
344.291
321.71
296.1
267.739
236.965
204.159
169.707
134.048
97.6483
60.9741
24.4895
-11.3707
-46.1927
-79.6081
-111.311
-141.049
-168.625
-193.908
-216.821
-237.335
-255.467
-271.273
-284.84
-296.282
-305.731
-313.324
-319.197
-323.483
-326.302
-327.784
-328.003
-327.043
-324.976
-321.816
-317.575
-312.253
-305.831
-298.27
-289.492
-279.419
-267.983
-255.077
-240.601
-224.466
-206.587
-186.888
-165.312
-141.831
-116.452
-89.2153
-60.2187
-29.6107
2.42159
35.628
69.6872
104.274
138.99
173.421
207.134
239.659
270.541
299.326
325.585
348.926
368.992
385.483
398.155
406.822
411.386
411.683
407.822
399.909
388.01
372.323
353.092
330.619
305.233
277.304
247.228
215.426
182.331
148.333
113.844
79.2725
44.9434
9.8877
-23.087
-55.0423
-85.7746
-115.104
-142.886
-169.004
-193.371
-215.923
-236.609
-255.403
-272.303
-287.316
-300.465
-311.773
-321.277
-329.004
-334.971
-339.209
-341.769
-342.623
-341.779
-339.311
-335.208
-329.483
-322.147
-313.202
-302.652
-290.492
-276.722
-261.351
-244.377
-225.803
-205.649
-183.934
-160.7
-136.015
-109.954
-82.6267
-54.1615
-24.718
5.46885
35.8338
66.9377
98.2235
129.378
160.118
190.122
219.084
246.681
272.584
296.501
318.141
337.217
353.491
366.743
376.791
383.495
386.734
386.188
382.073
374.494
363.51
349.28
332.031
311.999
289.469
264.78
238.262
210.26
181.151
151.291
121.03
90.6837
60.5346
31.055
4.23137
-23.2288
-49.7216
-74.9859
-98.856
-121.221
-142.004
-161.152
-178.637
-194.442
-208.572
-221.042
-231.873
-241.096
-248.747
-254.866
-259.503
-262.701
-264.493
-264.482
-263.041
-260.203
-256.005
-250.493
-243.701
-235.674
-226.451
-216.031
-204.423
169.412
201.536
233.14
263.701
292.797
319.851
344.452
366.168
384.652
399.625
410.836
418.083
421.2
419.825
414.191
404.508
390.81
373.301
352.244
327.944
300.775
271.1
239.324
205.92
171.315
135.952
100.218
64.4851
29.3035
-1.75565
-34.8174
-66.7663
-97.2967
-126.22
-153.412
-178.775
-202.26
-223.839
-243.508
-261.285
-277.203
-291.301
-303.63
-314.238
-323.177
-330.496
-336.236
-340.442
-343.146
-344.361
-344.068
-342.006
-338.461
-333.372
-326.719
-318.486
-308.63
-297.106
-283.899
-268.978
-252.323
-233.937
-213.805
-191.947
-168.402
-143.218
-116.474
-88.2818
-58.7623
-28.0803
3.58509
35.5484
68.4841
101.684
134.868
167.718
199.919
231.118
260.952
289.052
315.048
338.572
359.266
376.803
390.889
401.273
407.761
410.227
408.534
402.806
393.09
379.466
362.131
341.337
317.364
290.542
261.257
229.904
196.902
162.676
127.648
92.2407
56.8378
21.7797
-12.5588
-45.9304
-78.0828
-108.801
-137.903
-165.235
-190.67
-214.113
-235.501
-254.8
-272.012
-287.16
-300.287
-311.464
-320.75
-328.205
-333.906
-337.913
-340.297
-341.068
-340.275
-337.978
-334.191
-328.925
-322.168
-313.902
-304.089
-292.701
-279.716
-265.093
-248.792
-230.793
-211.087
-189.674
-166.572
-141.823
-115.49
-87.6671
-58.4802
-28.0861
3.33009
35.559
68.317
101.344
134.325
166.928
198.798
229.58
258.921
286.462
311.858
334.788
354.943
372.058
385.897
396.26
403.008
406.019
405.151
400.479
392.035
379.825
363.978
344.645
322.025
296.372
267.962
237.135
204.274
169.765
134.049
97.5946
60.8675
24.3338
-11.5695
-46.4282
-79.8728
-111.598
-141.35
-168.935
-194.22
-217.13
-237.636
-255.757
-271.549
-285.099
-296.523
-305.954
-313.529
-319.386
-323.657
-326.463
-327.932
-328.139
-327.177
-325.105
-321.943
-317.703
-312.384
-305.968
-298.416
-289.647
-279.586
-268.163
-255.27
-240.808
-224.687
-206.82
-187.133
-165.565
-142.089
-116.711
-89.471
-60.4645
-29.8402
2.21595
35.4492
69.5449
104.174
138.939
173.424
207.194
239.778
270.72
299.565
325.881
349.274
369.386
385.917
398.618
407.304
411.872
412.185
408.301
400.368
388.441
372.716
353.441
330.919
305.479
277.496
247.365
215.509
182.361
148.314
113.78
79.1696
44.8265
9.70605
-23.271
-55.2445
-85.9924
-115.333
-143.124
-169.247
-193.617
-216.169
-236.854
-255.644
-272.54
-287.548
-300.69
-311.993
-321.492
-329.214
-335.177
-339.413
-341.969
-342.815
-341.975
-339.504
-335.399
-329.675
-322.34
-313.397
-302.848
-290.691
-276.923
-261.555
-244.583
-226.012
-205.859
-184.144
-160.907
-136.219
-110.151
-82.813
-54.3338
-24.8727
5.33397
35.7193
66.8523
98.1705
129.36
160.138
190.182
219.186
246.825
272.771
296.73
318.41
337.523
353.83
367.11
377.18
383.899
387.153
386.601
382.476
374.88
363.872
349.614
332.329
312.256
289.682
264.947
238.381
210.333
181.179
151.277
120.978
90.5996
60.4258
30.9218
4.05085
-23.4196
-49.9232
-75.1961
-99.0723
-121.44
-142.225
-161.371
-178.853
-194.654
-208.778
-221.243
-232.068
-241.285
-248.93
-255.042
-259.672
-262.864
-264.653
-264.638
-263.192
-260.35
-256.149
-250.635
-243.841
-235.812
-226.589
-216.167
-204.558
169.382
201.572
233.247
263.882
293.053
320.179
344.851
366.632
385.174
400.197
411.446
418.716
421.851
420.494
414.84
405.119
391.376
373.815
352.697
328.329
301.088
271.337
239.486
206.008
171.333
135.907
100.118
64.3392
29.1307
-2.05024
-35.1224
-67.086
-97.6292
-126.562
-153.758
-179.121
-202.602
-224.175
-243.835
-261.602
-277.509
-291.596
-303.913
-314.51
-323.44
-330.75
-336.483
-340.682
-343.38
-344.591
-344.302
-342.245
-338.699
-333.614
-326.967
-318.741
-308.894
-297.378
-284.179
-269.266
-252.618
-234.238
-214.11
-192.253
-168.706
-143.516
-116.764
-88.5582
-59.0219
-28.319
3.37345
35.3745
68.3477
101.59
134.821
167.725
199.984
231.244
261.142
289.311
315.376
338.966
359.726
377.32
391.453
401.874
408.387
410.867
409.175
403.431
393.684
380.022
362.638
341.786
317.747
290.855
261.497
230.069
196.992
162.696
127.602
92.1348
56.6786
21.5737
-12.8023
-46.2065
-78.3852
-109.124
-138.242
-165.586
-191.028
-214.474
-235.859
-255.153
-272.355
-287.492
-300.606
-311.77
-321.042
-328.485
-334.176
-338.175
-340.547
-341.308
-340.514
-338.214
-334.427
-329.162
-322.409
-314.148
-304.342
-292.963
-279.988
-265.372
-249.078
-231.087
-211.386
-189.976
-166.874
-142.122
-115.782
-87.9479
-58.7444
-28.3278
3.11775
35.3785
68.1774
101.251
134.284
166.944
198.874
229.719
259.124
286.73
312.187
335.176
355.386
372.547
386.427
396.821
403.591
406.61
405.758
401.075
392.611
380.375
364.494
345.117
322.446
296.733
268.259
237.362
204.426
169.841
134.051
97.5224
60.7248
24.1257
-11.8353
-46.743
-80.2266
-111.981
-141.753
-169.348
-194.636
-217.542
-238.037
-256.143
-271.916
-285.445
-296.845
-306.251
-313.803
-319.638
-323.888
-326.676
-328.129
-328.322
-327.354
-325.277
-322.112
-317.873
-312.559
-306.152
-298.61
-289.853
-279.809
-268.403
-255.527
-241.084
-224.98
-207.131
-187.458
-165.902
-142.434
-117.058
-89.8124
-60.7928
-30.1468
1.9406
35.2105
69.3548
104.041
138.87
173.426
207.273
239.937
270.96
299.883
326.276
349.739
369.913
386.495
399.235
407.946
412.522
412.845
408.946
400.981
389.014
373.24
353.906
331.319
305.808
277.752
247.547
215.618
182.4
148.287
113.694
79.0306
44.6601
9.4733
-23.5157
-55.5145
-86.2833
-115.639
-143.441
-169.571
-193.945
-216.498
-237.181
-255.967
-272.856
-287.856
-300.991
-312.286
-321.778
-329.493
-335.452
-339.685
-342.234
-343.073
-342.235
-339.761
-335.655
-329.931
-322.597
-313.656
-303.11
-290.955
-277.191
-261.828
-244.859
-226.291
-206.139
-184.424
-161.185
-136.491
-110.414
-83.0617
-54.564
-25.0793
5.15416
35.5663
66.738
98.0995
129.335
160.165
190.263
219.322
247.018
273.02
297.035
318.769
337.931
354.282
367.599
377.699
384.438
387.702
387.157
383.017
375.394
364.356
350.058
332.726
312.598
289.965
265.169
238.541
210.43
181.217
151.259
120.909
90.4869
60.2799
30.7438
3.81087
-23.6739
-50.1921
-75.4766
-99.3609
-121.733
-142.519
-161.663
-179.141
-194.937
-209.054
-221.511
-232.328
-241.537
-249.173
-255.277
-259.897
-263.079
-264.865
-264.845
-263.392
-260.546
-256.341
-250.824
-244.027
-235.997
-226.772
-216.349
-204.738
169.343
201.616
233.381
264.108
293.372
320.59
345.349
367.213
385.827
400.912
412.21
419.511
422.665
421.32
415.651
405.882
392.085
374.458
353.263
328.81
301.478
271.634
239.688
206.118
171.355
135.849
99.9912
64.1563
28.9119
-2.41671
-35.5033
-67.486
-98.0453
-126.989
-154.19
-179.553
-203.029
-224.595
-244.244
-261.999
-277.891
-291.964
-304.268
-314.852
-323.769
-331.068
-336.792
-340.983
-343.673
-344.879
-344.595
-342.541
-338.997
-333.917
-327.276
-319.06
-309.223
-297.718
-284.53
-269.626
-252.987
-234.615
-214.491
-192.635
-169.086
-143.89
-117.126
-88.9041
-59.347
-28.6183
3.10594
35.1587
68.1769
101.472
134.763
167.733
200.064
231.401
261.381
289.634
315.785
339.46
360.3
377.965
392.158
402.625
409.171
411.663
409.979
404.214
394.428
380.717
363.272
342.347
318.226
291.246
261.797
230.274
197.105
162.721
127.544
92.0015
56.4788
21.3156
-13.1076
-46.5525
-78.7638
-109.529
-138.667
-166.025
-191.477
-214.925
-236.308
-255.594
-272.785
-287.906
-301.005
-312.152
-321.408
-328.836
-334.513
-338.5
-340.859
-341.611
-340.813
-338.508
-334.721
-329.458
-322.71
-314.456
-304.659
-293.291
-280.327
-265.72
-249.436
-231.454
-211.76
-190.354
-167.253
-142.497
-116.148
-88.2995
-59.0752
-28.6306
2.85105
35.1527
68.0023
101.134
134.233
166.964
198.969
229.893
259.378
287.064
312.599
335.662
355.938
373.16
387.089
397.522
404.32
407.352
406.512
401.822
393.332
381.064
365.139
345.707
322.971
297.186
268.63
237.645
204.616
169.937
134.052
97.4315
60.5457
23.8648
-12.1684
-47.1375
-80.6699
-112.46
-142.257
-169.865
-195.157
-218.058
-238.54
-256.627
-272.376
-285.877
-297.248
-306.623
-314.145
-319.953
-324.176
-326.942
-328.374
-328.553
-327.576
-325.491
-322.323
-318.086
-312.777
-306.382
-298.852
-290.111
-280.087
-268.703
-255.849
-241.428
-225.348
-207.52
-187.866
-166.325
-142.866
-117.492
-90.24
-61.204
-30.531
1.59463
34.9117
69.1165
103.874
138.783
173.429
207.371
240.135
271.258
300.281
326.769
350.32
370.571
387.218
400.007
408.75
413.339
413.666
409.754
401.749
389.732
373.895
354.488
331.819
306.22
278.071
247.774
215.755
182.449
148.254
113.585
78.8542
44.436
9.19698
-23.8205
-55.8525
-86.6475
-116.022
-143.837
-169.977
-194.356
-216.909
-237.59
-256.37
-273.251
-288.242
-301.367
-312.654
-322.136
-329.843
-335.796
-340.025
-342.565
-343.399
-342.561
-340.083
-335.975
-330.251
-322.919
-313.98
-303.437
-291.286
-277.526
-262.168
-245.204
-226.639
-206.49
-184.774
-161.532
-136.832
-110.743
-83.3732
-54.8522
-25.3381
4.92939
35.3745
66.5946
98.0102
129.304
160.197
190.363
219.492
247.259
273.332
297.417
319.217
338.441
354.847
368.211
378.347
385.112
388.388
387.849
383.694
376.039
364.962
350.615
333.222
313.027
290.32
265.446
238.739
210.552
181.263
151.235
120.822
90.345
60.0957
30.5205
3.51206
-23.9919
-50.5286
-75.8276
-99.722
-122.1
-142.886
-162.028
-179.501
-195.29
-209.399
-221.846
-232.654
-241.851
-249.477
-255.57
-260.178
-263.349
-265.13
-265.102
-263.642
-260.791
-256.581
-251.06
-244.26
-236.227
-227
-216.576
-204.963
169.297
201.668
233.54
264.378
293.755
321.083
345.947
367.91
386.612
401.77
413.127
420.467
423.645
422.307
416.62
406.799
392.936
375.231
353.943
329.387
301.946
271.989
239.93
206.248
171.38
135.778
99.8375
63.9355
28.6448
-2.85382
-35.9599
-67.9662
-98.5452
-127.502
-154.709
-180.072
-203.543
-225.099
-244.736
-262.475
-278.351
-292.407
-304.693
-315.261
-324.163
-331.449
-337.162
-341.343
-344.024
-345.224
-344.946
-342.895
-339.354
-334.279
-327.648
-319.443
-309.618
-298.126
-284.95
-270.058
-253.43
-235.067
-214.949
-193.094
-169.542
-144.339
-117.561
-89.3198
-59.7381
-28.9782
2.78259
34.9005
67.9715
101.33
134.692
167.743
200.159
231.589
261.666
290.022
316.276
340.053
360.989
378.74
393.005
403.528
410.112
412.621
410.941
405.153
395.322
381.553
364.034
343.021
318.802
291.716
262.156
230.521
197.24
162.75
127.474
91.8404
56.2382
21.005
-13.475
-46.9685
-79.2188
-110.015
-139.177
-166.553
-192.016
-215.468
-236.848
-256.124
-273.3
-288.404
-301.484
-312.611
-321.847
-329.257
-334.918
-338.891
-341.233
-341.975
-341.17
-338.861
-335.073
-329.814
-323.071
-314.825
-305.039
-293.684
-280.733
-266.138
-249.866
-231.894
-212.209
-190.808
-167.708
-142.948
-116.588
-88.722
-59.4728
-28.9949
2.52983
34.881
67.7914
100.994
134.17
166.987
199.083
230.101
259.682
287.464
313.093
336.244
356.602
373.895
387.884
398.365
405.195
408.245
407.415
402.717
394.199
381.891
365.913
346.416
323.602
297.729
269.075
237.984
204.843
170.051
134.053
97.3215
60.3299
23.5505
-12.5695
-47.6123
-81.2032
-113.037
-142.863
-170.487
-195.783
-218.678
-239.144
-257.208
-272.928
-286.396
-297.732
-307.069
-314.555
-320.33
-324.522
-327.261
-328.668
-328.83
-327.841
-325.747
-322.576
-318.34
-313.04
-306.657
-299.143
-290.42
-280.421
-269.063
-256.235
-241.842
-225.789
-207.986
-188.356
-166.833
-143.385
-118.014
-90.754
-61.6985
-30.9933
1.17759
34.5521
68.8294
103.672
138.678
173.432
207.488
240.372
271.616
300.759
327.361
351.017
371.361
388.086
400.934
409.716
414.322
414.65
410.722
402.671
390.594
374.681
355.187
332.419
306.713
278.454
248.046
215.918
182.506
148.213
113.453
78.6397
44.1539
8.87692
-24.1854
-56.2587
-87.0853
-116.482
-144.314
-170.464
-194.849
-217.403
-238.08
-256.855
-273.726
-288.705
-301.818
-313.095
-322.566
-330.263
-336.209
-340.431
-342.961
-343.791
-342.95
-340.469
-336.359
-330.635
-323.305
-314.369
-303.83
-291.683
-277.929
-262.577
-245.618
-227.058
-206.911
-185.194
-161.95
-137.242
-111.139
-83.7475
-55.1987
-25.6493
4.65949
35.1436
66.4218
97.9023
129.267
160.236
190.482
219.695
247.548
273.706
297.875
319.755
339.054
355.526
368.946
379.127
385.921
389.214
388.676
384.507
376.815
365.689
351.282
333.818
313.541
290.745
265.778
238.978
210.697
181.319
151.206
120.716
90.1733
59.8715
30.2522
3.15513
-24.3735
-50.9328
-76.2493
-100.156
-122.54
-143.328
-162.467
-179.934
-195.715
-209.813
-222.249
-233.044
-242.229
-249.842
-255.922
-260.516
-263.672
-265.444
-265.408
-263.942
-261.084
-256.869
-251.344
-244.54
-236.504
-227.274
-216.848
-205.233
169.241
201.728
233.726
264.693
294.202
321.658
346.646
368.724
387.528
402.773
414.199
421.586
424.789
423.458
417.747
407.868
393.93
376.132
354.736
330.06
302.492
272.403
240.211
206.4
171.408
135.693
99.6558
63.6757
28.327
-3.36034
-36.4921
-68.527
-99.1292
-128.101
-155.315
-180.679
-204.143
-225.687
-245.309
-263.03
-278.887
-292.922
-305.19
-315.739
-324.623
-331.894
-337.594
-341.764
-344.435
-345.629
-345.354
-343.306
-339.769
-334.702
-328.081
-319.889
-310.08
-298.602
-285.441
-270.563
-253.948
-235.596
-215.483
-193.63
-170.076
-144.863
-118.07
-89.8057
-60.1954
-29.3992
2.40372
34.5987
67.7309
101.163
134.608
167.752
200.268
231.806
261.999
290.473
316.849
340.745
361.792
379.644
393.995
404.582
411.213
413.742
412.064
406.249
396.366
382.528
364.923
343.808
319.473
292.264
262.575
230.807
197.396
162.782
127.39
91.6511
55.9561
20.6414
-13.9051
-47.455
-79.7507
-110.583
-139.773
-167.17
-192.645
-216.101
-237.478
-256.744
-273.903
-288.985
-302.043
-313.146
-322.359
-329.748
-335.39
-339.345
-341.67
-342.401
-341.587
-339.272
-335.484
-330.228
-323.492
-315.256
-305.482
-294.143
-281.208
-266.626
-250.368
-232.409
-212.733
-191.338
-168.239
-143.474
-117.102
-89.2158
-59.9379
-29.4211
2.15355
34.563
67.5443
100.828
134.096
167.012
199.214
230.343
260.037
287.932
313.669
336.923
357.377
374.753
388.812
399.349
406.217
409.289
408.47
403.762
395.211
382.858
366.817
347.243
324.339
298.362
269.595
238.38
205.109
170.184
134.054
97.192
60.0769
23.1822
-13.0391
-48.1682
-81.8272
-113.712
-143.572
-171.215
-196.515
-219.402
-239.85
-257.887
-273.573
-287.002
-298.296
-307.589
-315.034
-320.769
-324.925
-327.632
-329.011
-329.154
-328.15
-326.046
-322.871
-318.637
-313.346
-306.977
-299.481
-290.781
-280.811
-269.482
-256.686
-242.325
-226.304
-208.531
-188.928
-167.426
-143.992
-118.624
-91.3549
-62.277
-31.5343
0.688869
34.1311
68.493
103.436
138.554
173.433
207.624
240.647
272.033
301.316
328.051
351.832
372.285
389.1
402.017
410.844
415.471
415.801
411.852
403.749
391.601
375.6
356.003
333.119
307.288
278.9
248.363
216.107
182.572
148.164
113.298
78.3862
43.8112
8.5146
-24.6107
-56.7336
-87.5971
-117.02
-144.87
-171.034
-195.425
-217.98
-238.654
-257.421
-274.281
-289.246
-302.345
-313.609
-323.067
-330.753
-336.69
-340.905
-343.425
-344.249
-343.404
-340.918
-336.807
-331.083
-323.756
-314.823
-304.288
-292.146
-278.399
-263.054
-246.102
-227.546
-207.403
-185.686
-162.438
-137.721
-111.601
-84.1852
-55.6039
-26.0133
4.34416
34.8732
66.2191
97.775
129.223
160.281
190.621
219.931
247.884
274.142
298.409
320.383
339.768
356.319
369.804
380.037
386.867
390.18
389.643
385.455
377.721
366.539
352.061
334.514
314.141
291.241
266.166
239.255
210.865
181.382
151.171
120.592
89.971
59.6055
29.9383
2.74067
-24.8188
-51.4049
-76.742
-100.663
-123.054
-143.844
-162.98
-180.439
-196.21
-210.296
-222.718
-233.499
-242.669
-250.267
-256.332
-260.91
-264.05
-265.809
-265.765
-264.291
-261.427
-257.206
-251.674
-244.866
-236.827
-227.594
-217.165
-205.548
169.175
201.795
233.937
265.052
294.712
322.315
347.444
369.655
388.576
403.921
415.425
422.866
426.099
424.772
419.034
409.091
395.067
377.163
355.644
330.829
303.115
272.876
240.531
206.572
171.439
135.595
99.4452
63.3755
27.9561
-3.93493
-37.0999
-69.1686
-99.7977
-128.787
-156.009
-181.373
-204.829
-226.36
-245.964
-263.665
-279.499
-293.512
-305.757
-316.284
-325.149
-332.402
-338.087
-342.244
-344.905
-346.092
-345.819
-343.775
-340.243
-335.185
-328.577
-320.4
-310.607
-299.146
-286.002
-271.14
-254.54
-236.2
-216.094
-194.243
-170.686
-145.464
-118.652
-90.3625
-60.7195
-29.8815
1.96954
34.2525
67.4547
100.97
134.511
167.761
200.392
232.054
262.378
290.988
317.503
341.535
362.711
380.679
395.127
405.79
412.473
415.027
413.348
407.503
397.561
383.645
365.941
344.708
320.241
292.89
263.053
231.134
197.573
162.817
127.293
91.433
55.6319
20.2243
-14.3984
-48.0123
-80.3599
-111.233
-140.456
-167.875
-193.365
-216.827
-238.199
-257.452
-274.592
-289.65
-302.681
-313.758
-322.944
-330.309
-335.929
-339.864
-342.169
-342.886
-342.063
-339.742
-335.954
-330.701
-323.973
-315.748
-305.989
-294.668
-281.749
-267.184
-250.942
-232.997
-213.333
-191.945
-168.848
-144.077
-117.691
-89.7814
-60.4707
-29.9097
1.72154
34.1982
67.2605
100.638
134.01
167.04
199.364
230.619
260.442
288.465
314.328
337.7
358.262
375.735
389.874
400.475
407.387
410.485
409.676
404.956
396.369
383.963
367.852
348.19
325.183
299.087
270.189
238.833
205.412
170.335
134.054
97.0426
59.7863
22.7591
-13.578
-48.8057
-82.5427
-114.485
-144.384
-172.048
-197.353
-220.23
-240.658
-258.663
-274.311
-287.695
-298.941
-308.184
-315.581
-321.271
-325.385
-328.056
-329.404
-329.523
-328.502
-326.387
-323.206
-318.976
-313.695
-307.343
-299.867
-291.194
-281.257
-269.961
-257.201
-242.878
-226.893
-209.155
-189.582
-168.105
-144.686
-119.322
-92.0433
-62.9402
-32.1549
0.127729
33.6478
68.1064
103.163
138.411
173.433
207.778
240.961
272.51
301.953
328.841
352.763
373.341
390.26
403.257
412.137
416.787
417.117
413.143
404.982
392.754
376.651
356.936
333.919
307.946
279.41
248.724
216.321
182.646
148.106
113.118
78.0933
43.4038
8.11286
-25.0971
-57.2775
-88.1834
-117.636
-145.507
-171.685
-196.084
-218.64
-239.31
-258.068
-274.915
-289.864
-302.946
-314.196
-323.641
-331.312
-337.24
-341.446
-343.956
-344.772
-343.922
-341.432
-337.318
-331.596
-324.271
-315.342
-304.811
-292.675
-278.936
-263.599
-246.654
-228.105
-207.965
-186.248
-162.996
-138.269
-112.13
-84.6867
-56.0683
-26.4305
3.98316
34.5629
65.9858
97.6288
129.17
160.331
190.778
220.2
248.267
274.64
299.019
321.101
340.586
357.225
370.786
381.078
387.95
391.287
390.749
386.538
378.758
367.513
352.953
335.309
314.827
291.808
266.609
239.572
211.057
181.454
151.13
120.448
89.7374
59.2977
29.5775
2.26893
-25.328
-51.9453
-77.306
-101.243
-123.643
-144.434
-163.566
-181.017
-196.776
-210.849
-223.255
-234.02
-243.173
-250.754
-256.801
-261.361
-264.483
-266.224
-266.172
-264.69
-261.818
-257.59
-252.052
-245.239
-237.195
-227.96
-217.528
-205.908
169.1
201.868
234.172
265.456
295.285
323.055
348.342
370.703
389.757
405.214
416.808
424.31
427.575
426.251
420.481
410.468
396.348
378.325
356.665
331.694
303.816
273.406
240.89
206.763
171.471
135.481
99.2044
63.0332
27.53
-4.57621
-37.7831
-69.8914
-100.551
-129.56
-156.791
-182.155
-205.602
-227.118
-246.702
-264.38
-280.189
-294.176
-306.395
-316.898
-325.74
-332.973
-338.642
-342.785
-345.433
-346.612
-346.342
-344.301
-340.775
-335.728
-329.134
-320.973
-311.2
-299.758
-286.634
-271.79
-255.207
-236.88
-216.782
-194.934
-171.374
-146.14
-119.308
-90.9906
-61.3108
-30.4255
1.48004
33.8608
67.1421
100.752
134.4
167.769
200.53
232.331
262.803
291.567
318.239
342.425
363.746
381.845
396.403
407.15
413.893
416.476
414.795
408.915
398.908
384.902
367.086
345.721
321.105
293.595
263.59
231.5
197.772
162.855
127.181
91.1856
55.2643
19.7531
-14.9556
-48.6411
-81.0469
-111.966
-141.225
-168.671
-194.177
-217.644
-239.012
-258.251
-275.368
-290.398
-303.4
-314.446
-323.603
-330.94
-336.536
-340.448
-342.731
-343.432
-342.597
-340.27
-336.481
-331.232
-324.513
-316.302
-306.559
-295.258
-282.359
-267.812
-251.588
-233.659
-214.008
-192.629
-169.533
-144.756
-118.355
-90.4191
-61.0719
-30.4611
1.23317
33.7861
66.9393
100.422
133.912
167.07
199.53
230.928
260.897
289.065
315.069
338.575
359.26
376.841
391.071
401.743
408.705
411.833
411.034
406.3
397.674
385.208
369.017
349.256
326.132
299.904
270.858
239.342
205.754
170.505
134.052
96.8731
59.4573
22.2804
-14.1871
-49.5259
-83.3508
-115.358
-145.3
-172.987
-198.298
-221.165
-241.567
-259.538
-275.141
-288.476
-299.667
-308.854
-316.196
-321.835
-325.902
-328.532
-329.845
-329.937
-328.898
-326.769
-323.583
-319.357
-314.087
-307.753
-300.3
-291.658
-281.757
-270.5
-257.781
-243.499
-227.555
-209.857
-190.32
-168.87
-145.469
-120.109
-92.8201
-63.6887
-32.8559
-0.506664
33.1015
67.6687
102.853
138.247
173.431
207.949
241.314
273.045
302.669
329.729
353.811
374.531
391.567
404.654
413.594
418.271
418.601
414.598
406.371
394.052
377.835
357.986
334.82
308.686
279.982
249.128
216.561
182.728
148.04