/*--------------------------------*- C++ -*----------------------------------*\
| =========                 |                                                 |
| \\      /  F ield         | OpenFOAM: The Open Source CFD Toolbox           |
|  \\    /   O peration     | Version:  3.0.1                                 |
|   \\  /    A nd           | Web:      www.OpenFOAM.org                      |
|    \\/     M anipulation  |                                                 |
\*---------------------------------------------------------------------------*/
FoamFile
{
    version     2.0;
    format      ascii;
    class       surfaceScalarField;
    location    "96.2";
    object      alphaPhi;
}
// * * * * * * * * * * * * * * * * * * * * * * * * * * * * * * * * * * * * * //

dimensions      [0 3 -1 0 0 0 0];

internalField   nonuniform List<scalar> 
42423
(
0.000370417
1.70674e-05
0.00035309
1.73267e-05
0.000335606
1.74836e-05
0.000318014
1.75925e-05
0.000300721
1.72929e-05
0.000283794
1.69269e-05
0.00026748
1.63137e-05
0.000251872
1.56077e-05
0.000237014
1.48587e-05
0.000223082
1.39317e-05
0.000210114
1.29676e-05
0.000198114
1.20001e-05
0.000187148
1.09655e-05
0.000177198
9.95032e-06
0.000168265
8.93353e-06
0.000160318
7.94695e-06
0.000153311
7.0068e-06
0.000147215
6.09545e-06
0.00014198
5.2352e-06
0.000137549
4.43104e-06
0.00013387
3.67892e-06
0.000130881
2.98906e-06
0.000128532
2.34865e-06
0.000126772
1.75991e-06
0.000125539
1.2329e-06
0.000124788
7.5134e-07
0.000124453
3.34716e-07
0.00012452
-6.72055e-08
0.000124968
-4.47059e-07
0.000125746
-7.78395e-07
0.000126772
-1.02568e-06
0.000128087
-1.31529e-06
0.000129604
-1.51695e-06
0.000131347
-1.74332e-06
0.000133276
-1.92853e-06
0.000135338
-2.06187e-06
0.000137514
-2.17688e-06
0.000139779
-2.26497e-06
0.000142102
-2.32215e-06
0.000144508
-2.40655e-06
0.000146981
-2.47253e-06
0.000149576
-2.59537e-06
0.000152358
-2.78227e-06
0.000155324
-2.96628e-06
0.000158606
-3.28162e-06
0.000162333
-3.72709e-06
0.00016649
-4.15732e-06
0.000171269
-4.77855e-06
0.000176822
-5.55271e-06
0.000183041
-6.21914e-06
0.000190206
-7.16509e-06
0.000198239
-8.03351e-06
0.000207258
-9.01891e-06
0.000217339
-1.00807e-05
0.000228277
-1.0938e-05
0.000240133
-1.18561e-05
0.000252903
-1.27706e-05
0.000266315
-1.34113e-05
0.000280399
-1.40848e-05
0.000294997
-1.45975e-05
0.000309985
-1.49887e-05
0.000325234
-1.52492e-05
0.000340604
-1.537e-05
0.000355923
-1.53187e-05
0.00037116
-1.52369e-05
0.000386133
-1.49735e-05
0.000400789
-1.46563e-05
0.000414921
-1.41313e-05
0.000428217
-1.32966e-05
0.000440401
-1.21838e-05
0.000450802
-1.04016e-05
0.000458921
-8.11839e-06
0.0004644
-5.47896e-06
0.000467184
-2.78432e-06
0.000467261
-7.74609e-08
0.0004643
2.96115e-06
0.000458023
6.27659e-06
0.000448943
9.08047e-06
0.000437586
1.13564e-05
0.000424587
1.29991e-05
0.00041065
1.3937e-05
0.000396062
1.45878e-05
0.000381312
1.47508e-05
0.000366623
1.46885e-05
0.000351898
1.47248e-05
0.000337163
1.47354e-05
0.000322366
1.47972e-05
0.000307487
1.4879e-05
0.000292537
1.49495e-05
0.000277556
1.49811e-05
0.0002626
1.49556e-05
0.000247792
1.48085e-05
0.000233254
1.45377e-05
0.000219092
1.41623e-05
0.000205384
1.3708e-05
0.000192136
1.32485e-05
0.00017933
1.28059e-05
0.000167045
1.22847e-05
0.000155196
1.18492e-05
0.000143806
1.13899e-05
0.00013287
1.09363e-05
0.000122345
1.05243e-05
0.000112285
1.00607e-05
0.000102647
9.6382e-06
9.34009e-05
9.24574e-06
8.46402e-05
8.76074e-06
7.63597e-05
8.28051e-06
6.85975e-05
7.76219e-06
6.14076e-05
7.19e-06
5.47807e-05
6.62682e-06
4.87751e-05
6.00562e-06
4.3382e-05
5.39316e-06
3.85917e-05
4.79032e-06
3.44039e-05
4.18775e-06
3.08531e-05
3.55083e-06
2.79216e-05
2.93146e-06
2.56278e-05
2.29383e-06
2.39656e-05
1.66222e-06
2.2934e-05
1.0316e-06
2.2618e-05
3.16044e-07
2.29642e-05
-3.46176e-07
2.40598e-05
-1.09568e-06
2.59312e-05
-1.87132e-06
2.85503e-05
-2.61918e-06
3.19482e-05
-3.39791e-06
3.61392e-05
-4.19099e-06
4.10909e-05
-4.95167e-06
4.68453e-05
-5.75444e-06
5.33287e-05
-6.48342e-06
6.05108e-05
-7.18213e-06
6.84385e-05
-7.92768e-06
7.70204e-05
-8.58195e-06
8.62548e-05
-9.23434e-06
9.62013e-05
-9.94653e-06
0.000106726
-1.05244e-05
0.000117907
-1.11815e-05
0.000129768
-1.18609e-05
0.000142165
-1.23966e-05
0.000155278
-1.31134e-05
0.000168962
-1.36842e-05
0.000183179
-1.4217e-05
0.000197992
-1.48128e-05
0.000213199
-1.52075e-05
0.000228763
-1.55634e-05
0.000244626
-1.58628e-05
0.000260606
-1.59799e-05
0.000276586
-1.59803e-05
0.000292463
-1.5877e-05
0.000308063
-1.56008e-05
0.000323227
-1.51634e-05
0.000337817
-1.45901e-05
0.000351602
-1.37849e-05
0.000364403
-1.28009e-05
0.000376119
-1.17167e-05
0.000386492
-1.03723e-05
0.000395294
-8.8023e-06
0.000402361
-7.06649e-06
0.000407587
-5.22621e-06
0.00041079
-3.20282e-06
0.000411854
-1.06411e-06
0.000410792
1.06228e-06
0.000407437
3.35521e-06
0.000401862
5.57456e-06
0.000394211
7.65086e-06
0.000384611
9.60028e-06
0.000373187
1.14241e-05
0.000360139
1.3048e-05
0.000345659
1.44805e-05
0.000329944
1.57153e-05
0.000313236
1.67081e-05
0.000295739
1.74974e-05
0.000277747
1.79917e-05
0.000259456
1.82916e-05
0.000241097
1.83582e-05
0.00022297
1.8128e-05
0.000205224
1.77455e-05
0.000188115
1.71091e-05
0.000171878
1.62374e-05
0.000156537
1.53413e-05
0.000142241
1.4296e-05
0.000129089
1.31524e-05
0.000117067
1.20214e-05
0.00010618
1.08872e-05
9.64652e-05
9.71492e-06
8.78803e-05
8.58502e-06
8.03446e-05
7.53572e-06
7.38282e-05
6.51646e-06
6.82549e-05
5.57336e-06
6.35371e-05
4.71784e-06
5.9661e-05
3.87622e-06
5.65706e-05
3.09037e-06
5.41681e-05
2.40255e-06
5.24621e-05
1.70612e-06
5.13496e-05
1.11252e-06
5.08228e-05
5.2683e-07
5.08189e-05
3.93911e-09
5.12818e-05
-4.62821e-07
5.21571e-05
-8.75247e-07
5.336e-05
-1.20285e-06
5.49192e-05
-1.55915e-06
5.67077e-05
-1.78851e-06
5.87672e-05
-2.05945e-06
6.10345e-05
-2.26724e-06
6.34658e-05
-2.43125e-06
6.60661e-05
-2.6003e-06
6.87951e-05
-2.72891e-06
7.16643e-05
-2.86921e-06
7.47175e-05
-3.05309e-06
7.79245e-05
-3.20703e-06
8.13587e-05
-3.43411e-06
8.50139e-05
-3.65517e-06
8.89001e-05
-3.88614e-06
9.30503e-05
-4.15021e-06
9.74606e-05
-4.41026e-06
0.000102182
-4.72111e-06
0.000107161
-4.97872e-06
0.000112515
-5.35453e-06
0.000118276
-5.76081e-06
0.000124464
-6.18831e-06
0.000131167
-6.70272e-06
0.000138447
-7.28044e-06
0.000146397
-7.94995e-06
0.00015499
-8.59289e-06
0.00016439
-9.39968e-06
0.000174561
-1.01717e-05
0.000185565
-1.10039e-05
0.000197443
-1.18773e-05
0.000210079
-1.26368e-05
0.000223428
-1.33486e-05
0.000237445
-1.40168e-05
0.000251968
-1.45237e-05
0.000266896
-1.49282e-05
0.000282067
-1.51705e-05
0.000297318
-1.52518e-05
0.000312476
-1.51581e-05
0.000327301
-1.48247e-05
0.000341588
-1.4287e-05
0.000355082
-1.34939e-05
0.000367568
-1.24864e-05
0.000378836
-1.12675e-05
0.000388669
-9.83356e-06
0.000396879
-8.21021e-06
0.000403274
-6.39415e-06
0.000407785
-4.51173e-06
0.000410223
-2.43746e-06
0.000410594
-3.71649e-07
0.000408891
1.70316e-06
0.000404983
3.90887e-06
0.00039914
5.8424e-06
0.000391416
7.72376e-06
0.000381987
9.42924e-06
0.000371163
1.08246e-05
0.000359127
1.20357e-05
0.000346203
1.29241e-05
0.0003326
1.36026e-05
0.000318637
1.39637e-05
0.000304492
1.41443e-05
0.00029035
1.4142e-05
0.000276393
1.39574e-05
0.000262807
1.35858e-05
0.000249626
1.31808e-05
0.000236976
1.26502e-05
0.000224799
1.21773e-05
0.00021307
1.17294e-05
0.000201713
1.13568e-05
0.000190891
1.08218e-05
0.000180486
1.04051e-05
0.000170541
9.94478e-06
0.000161231
9.30944e-06
0.000152528
8.70336e-06
0.000144342
8.18495e-06
0.000136804
7.53794e-06
0.000129991
6.81333e-06
0.000123748
6.2425e-06
0.000118102
5.64559e-06
0.000113092
5.00928e-06
0.000108654
4.43799e-06
0.000104915
3.73825e-06
0.0001018
3.11427e-06
9.93133e-05
2.48663e-06
9.75522e-05
1.76064e-06
9.65243e-05
1.02742e-06
9.60312e-05
4.92646e-07
9.60199e-05
1.09106e-08
9.66368e-05
-6.1726e-07
9.78219e-05
-1.18546e-06
9.95356e-05
-1.71406e-06
0.000101538
-2.00302e-06
0.000103882
-2.34406e-06
0.000106443
-2.56088e-06
0.000109135
-2.69284e-06
0.000112016
-2.88077e-06
0.000115056
-3.04033e-06
0.000118242
-3.18587e-06
0.000121645
-3.4031e-06
0.000125295
-3.65029e-06
0.000129276
-3.98038e-06
0.000133609
-4.33378e-06
0.000138436
-4.82642e-06
0.000143765
-5.32896e-06
0.000149725
-5.95996e-06
0.000156388
-6.66323e-06
0.000163725
-7.33729e-06
0.00017192
-8.1949e-06
0.000181048
-9.12779e-06
0.000190973
-9.92573e-06
0.000202001
-1.10278e-05
0.000213962
-1.19616e-05
0.000227049
-1.30865e-05
0.000241199
-1.41503e-05
0.000256101
-1.49023e-05
0.000271911
-1.58101e-05
0.000288503
-1.65916e-05
0.000305393
-1.68905e-05
0.00032267
-1.72769e-05
0.000340015
-1.73451e-05
0.000357258
-1.72436e-05
0.00037419
-1.6932e-05
0.000390361
-1.61711e-05
0.000405615
-1.52539e-05
0.00041981
-1.41956e-05
0.000432591
-1.27811e-05
0.000443845
-1.12539e-05
0.000453389
-9.54457e-06
0.00046102
-7.63135e-06
0.000466703
-5.68255e-06
0.000470327
-3.62421e-06
0.000471804
-1.47696e-06
0.000471128
6.75282e-07
0.000468171
2.9574e-06
0.000463153
5.01739e-06
0.00045637
6.78275e-06
0.000447674
8.69616e-06
0.000437471
1.02027e-05
0.00042586
1.16114e-05
0.000413135
1.27243e-05
0.000399589
1.3546e-05
0.000385136
1.4453e-05
0.000370188
1.49487e-05
0.000354999
1.51888e-05
0.000339563
1.54356e-05
0.000324218
1.53445e-05
0.000309072
1.51468e-05
0.000294309
1.47624e-05
0.00028004
1.42693e-05
0.000266269
1.37704e-05
0.00025314
1.31297e-05
0.000240681
1.24582e-05
0.000228868
1.18128e-05
0.000217742
1.11266e-05
0.000207264
1.04782e-05
0.00019741
9.85374e-06
0.000188164
9.24535e-06
0.000179457
8.70786e-06
0.00017128
8.17666e-06
0.000163603
7.67647e-06
7.32305e-06
0.000370434
3.41414e-05
0.0003531
3.46603e-05
0.000335609
3.49748e-05
0.000318009
3.51928e-05
0.000300709
3.45925e-05
0.000283776
3.38597e-05
0.000267458
3.26316e-05
0.000251846
3.12195e-05
0.000236984
2.9721e-05
0.000223048
2.78676e-05
0.000210077
2.59385e-05
0.000198078
2.39987e-05
0.000187116
2.19277e-05
0.000177166
1.98996e-05
0.000168232
1.78678e-05
0.000160284
1.58947e-05
0.000153277
1.40144e-05
0.000147181
1.2191e-05
0.000141945
1.0471e-05
0.000137513
8.8629e-06
0.000133835
7.35685e-06
0.000130849
5.97537e-06
0.000128498
4.69954e-06
0.000126736
3.52168e-06
0.000125505
2.46397e-06
0.000124754
1.50272e-06
0.000124424
6.64045e-07
0.000124494
-1.37106e-07
0.000124939
-8.91736e-07
0.000125717
-1.55637e-06
0.00012674
-2.04852e-06
0.000128057
-2.63267e-06
0.00012957
-3.02988e-06
0.000131312
-3.48509e-06
0.000133239
-3.85538e-06
0.000135287
-4.11031e-06
0.000137453
-4.34266e-06
0.000139732
-4.54421e-06
0.00014206
-4.65016e-06
0.000144478
-4.82475e-06
0.000146955
-4.94974e-06
0.00014955
-5.18949e-06
0.000152332
-5.56501e-06
0.000155298
-5.93166e-06
0.000158575
-6.55955e-06
0.000162301
-7.45285e-06
0.000166452
-8.30788e-06
0.000171224
-9.55134e-06
0.000176779
-1.11071e-05
0.000182998
-1.24382e-05
0.000190161
-1.43282e-05
0.000198195
-1.60675e-05
0.000207214
-1.80381e-05
0.0002173
-2.01669e-05
0.000228244
-2.1882e-05
0.000240104
-2.37161e-05
0.00025288
-2.55466e-05
0.000266307
-2.68384e-05
0.000280408
-2.81859e-05
0.000295016
-2.9206e-05
0.000310006
-2.99784e-05
0.000325256
-3.05001e-05
0.000340639
-3.07525e-05
0.000355979
-3.06594e-05
0.000371248
-3.05055e-05
0.000386229
-2.99549e-05
0.000400874
-2.93017e-05
0.000415004
-2.82608e-05
0.000428314
-2.66071e-05
0.000440538
-2.4408e-05
0.000450959
-2.08233e-05
0.000459098
-1.62569e-05
0.000464612
-1.09935e-05
0.000467432
-5.60464e-06
0.000467518
-1.63002e-07
0.00046454
5.93847e-06
0.000458257
1.25602e-05
0.000449182
1.81548e-05
0.000437831
2.27079e-05
0.000424838
2.59917e-05
0.000410911
2.7864e-05
0.000396334
2.91646e-05
0.000381585
2.94994e-05
0.000366899
2.93744e-05
0.000352181
2.94428e-05
0.000337444
2.94732e-05
0.000322649
2.95923e-05
0.000307772
2.97556e-05
0.000292824
2.98972e-05
0.000277835
2.99706e-05
0.00026287
2.9921e-05
0.000248061
2.96169e-05
0.000233521
2.90782e-05
0.000219359
2.83244e-05
0.000205645
2.74217e-05
0.000192396
2.64979e-05
0.000179583
2.56192e-05
0.000167294
2.45732e-05
0.000155446
2.36969e-05
0.000144057
2.27795e-05
0.000133121
2.18721e-05
0.000122594
2.10511e-05
0.000112531
2.01236e-05
0.000102891
1.92786e-05
9.36532e-05
1.84835e-05
8.48987e-05
1.75152e-05
7.66067e-05
1.65726e-05
6.88392e-05
1.55296e-05
6.1653e-05
1.43762e-05
5.50321e-05
1.32478e-05
4.90249e-05
1.20128e-05
4.36239e-05
1.07942e-05
3.88385e-05
9.57579e-06
3.46502e-05
8.37605e-06
3.10937e-05
7.10736e-06
2.81607e-05
5.86445e-06
2.58702e-05
4.5844e-06
2.42073e-05
3.32512e-06
2.31661e-05
2.0728e-06
2.28431e-05
6.39086e-07
2.31898e-05
-6.92894e-07
2.42834e-05
-2.1893e-06
2.61533e-05
-3.74121e-06
2.87718e-05
-5.23771e-06
3.21735e-05
-6.79953e-06
3.63677e-05
-8.38518e-06
4.13143e-05
-9.8983e-06
4.70609e-05
-1.1501e-05
5.35452e-05
-1.29676e-05
6.07295e-05
-1.43664e-05
6.86544e-05
-1.58526e-05
7.72364e-05
-1.71639e-05
8.64751e-05
-1.8473e-05
9.64231e-05
-1.98945e-05
0.000106948
-2.10495e-05
0.000118131
-2.23639e-05
0.000129987
-2.37171e-05
0.000142387
-2.47971e-05
0.000155503
-2.62294e-05
0.000169189
-2.737e-05
0.000183415
-2.84431e-05
0.00019823
-2.9628e-05
0.000213433
-3.04109e-05
0.000229006
-3.11361e-05
0.000244876
-3.17327e-05
0.000260865
-3.19691e-05
0.000276853
-3.19681e-05
0.000292729
-3.17534e-05
0.000308334
-3.12061e-05
0.000323505
-3.03341e-05
0.000338109
-2.9194e-05
0.000351905
-2.75814e-05
0.000364715
-2.56103e-05
0.000376438
-2.34405e-05
0.000386814
-2.07479e-05
0.000395623
-1.76113e-05
0.000402698
-1.4141e-05
0.000407931
-1.04601e-05
0.000411139
-6.41015e-06
0.000412208
-2.13302e-06
0.000411125
2.14481e-06
0.000407769
6.71151e-06
0.000402203
1.11403e-05
0.000394547
1.53075e-05
0.000384942
1.92055e-05
0.000373514
2.28517e-05
0.000360451
2.61107e-05
0.000345952
2.89798e-05
0.000330221
3.1447e-05
0.000313506
3.34233e-05
0.000296002
3.50009e-05
0.000278004
3.59898e-05
0.000259701
3.65951e-05
0.000241328
3.67314e-05
0.000223189
3.62668e-05
0.000205437
3.54985e-05
0.000188319
3.42269e-05
0.000172064
3.24929e-05
0.000156727
3.0678e-05
0.00014244
2.85833e-05
0.000129289
2.63036e-05
0.000117264
2.40461e-05
0.000106376
2.17758e-05
9.66685e-05
1.94224e-05
8.8086e-05
1.71676e-05
8.05484e-05
1.50735e-05
7.40291e-05
1.30359e-05
6.84596e-05
1.11429e-05
6.37548e-05
9.42275e-06
5.98825e-05
7.74861e-06
5.67896e-05
6.18333e-06
5.43855e-05
4.80668e-06
5.26812e-05
3.41047e-06
5.15721e-05
2.2217e-06
5.1045e-05
1.05399e-06
5.10401e-05
8.89227e-09
5.15117e-05
-9.34366e-07
5.23922e-05
-1.7557e-06
5.35871e-05
-2.39769e-06
5.51431e-05
-3.11513e-06
5.69226e-05
-3.56792e-06
5.8974e-05
-4.11083e-06
6.12335e-05
-4.5267e-06
6.36547e-05
-4.85235e-06
6.62431e-05
-5.1887e-06
6.89606e-05
-5.44633e-06
7.18148e-05
-5.72333e-06
7.48533e-05
-6.09156e-06
7.80519e-05
-6.4055e-06
8.14679e-05
-6.85008e-06
8.51041e-05
-7.29136e-06
8.89797e-05
-7.76167e-06
9.31153e-05
-8.2858e-06
9.75083e-05
-8.80317e-06
0.000102203
-9.41596e-06
0.000107157
-9.9322e-06
0.0001125
-1.06975e-05
0.000118241
-1.15021e-05
0.000124407
-1.23541e-05
0.000131093
-1.33886e-05
0.000138357
-1.45442e-05
0.000146282
-1.58759e-05
0.00015485
-1.71607e-05
0.000164236
-1.87855e-05
0.000174395
-2.03307e-05
0.000185385
-2.19942e-05
0.00019725
-2.3742e-05
0.000209873
-2.52598e-05
0.000223214
-2.66899e-05
0.000237229
-2.80323e-05
0.000251747
-2.90412e-05
0.000266678
-2.98589e-05
0.000281844
-3.03366e-05
0.000297102
-3.05106e-05
0.000312262
-3.03177e-05
0.000327091
-2.96544e-05
0.000341387
-2.85822e-05
0.000354899
-2.70065e-05
0.000367401
-2.49883e-05
0.000378674
-2.25408e-05
0.000388513
-1.96728e-05
0.000396729
-1.64261e-05
0.000403133
-1.27977e-05
0.000407649
-9.02827e-06
0.000410104
-4.89264e-06
0.000410484
-7.51391e-07
0.000408768
3.41877e-06
0.000404865
7.81201e-06
0.000399037
1.16708e-05
0.000391304
1.54565e-05
0.000381865
1.88686e-05
0.000371041
2.16486e-05
0.000359002
2.40744e-05
0.000346075
2.58508e-05
0.000332463
2.72156e-05
0.000318498
2.79287e-05
0.00030435
2.82921e-05
0.000290206
2.82864e-05
0.000276245
2.79185e-05
0.000262653
2.71771e-05
0.000249491
2.63428e-05
0.000236838
2.53034e-05
0.000224645
2.43704e-05
0.000212912
2.34622e-05
0.000201557
2.2712e-05
0.000190735
2.16436e-05
0.000180343
2.07978e-05
0.000170408
1.98793e-05
0.000161094
1.86234e-05
0.000152387
1.74097e-05
0.000144197
1.63756e-05
0.000136673
1.50616e-05
0.000129871
1.36143e-05
0.000123637
1.24768e-05
0.000118003
1.12793e-05
0.000113009
1.00024e-05
0.000108577
8.86958e-06
0.000104839
7.4763e-06
0.000101723
6.2298e-06
9.9229e-05
4.97976e-06
9.74637e-05
3.52544e-06
9.64356e-05
2.05503e-06
9.59397e-05
9.88164e-07
9.59258e-05
2.43173e-08
9.6539e-05
-1.23092e-06
9.77215e-05
-2.3683e-06
9.94345e-05
-3.42743e-06
0.000101435
-4.00414e-06
0.00010378
-4.68869e-06
0.000106343
-5.12455e-06
0.000109039
-5.38908e-06
0.000111924
-5.76591e-06
0.000114971
-6.08695e-06
0.000118161
-6.37614e-06
0.000121569
-6.81144e-06
0.000125225
-7.30631e-06
0.00012921
-7.96571e-06
0.000133546
-8.67018e-06
0.000138375
-9.65469e-06
0.000143704
-1.06583e-05
0.000149664
-1.19198e-05
0.000156325
-1.33242e-05
0.000163655
-1.46678e-05
0.000171841
-1.63811e-05
0.000180955
-1.82423e-05
0.000190873
-1.98436e-05
0.000201906
-2.20614e-05
0.000213853
-2.3908e-05
0.000226912
-2.61461e-05
0.000241077
-2.83154e-05
0.000255998
-2.98235e-05
0.000271783
-3.15954e-05
0.000288356
-3.31651e-05
0.000305287
-3.38212e-05
0.000322606
-3.45962e-05
0.000339959
-3.46982e-05
0.000357189
-3.44748e-05
0.000374121
-3.38642e-05
0.000390345
-3.23953e-05
0.000405623
-3.05317e-05
0.000419838
-2.84109e-05
0.000432632
-2.55757e-05
0.000443889
-2.25113e-05
0.000453443
-1.90981e-05
0.000461087
-1.52759e-05
0.000466773
-1.13686e-05
0.000470402
-7.25353e-06
0.000471897
-2.97187e-06
0.000471208
1.36356e-06
0.000468241
5.92408e-06
0.000463231
1.0027e-05
0.000456447
1.35668e-05
0.000447744
1.73992e-05
0.000437533
2.04139e-05
0.000425912
2.32319e-05
0.000413178
2.54582e-05
0.000399622
2.7102e-05
0.000385158
2.89169e-05
0.0003702
2.99062e-05
0.000355006
3.03829e-05
0.000339563
3.08782e-05
0.000324214
3.06937e-05
0.000309064
3.02966e-05
0.000294298
2.95286e-05
0.000280024
2.85423e-05
0.000266251
2.75436e-05
0.00025312
2.62606e-05
0.000240662
2.49167e-05
0.000228849
2.36256e-05
0.000217723
2.22527e-05
0.000207245
2.09561e-05
0.000197392
1.97068e-05
0.000188147
1.84899e-05
0.000179439
1.74155e-05
0.000171263
1.63534e-05
0.000163586
1.53531e-05
1.46457e-05
0.000370464
5.12324e-05
0.000353115
5.20095e-05
0.000335608
5.24814e-05
0.000317993
5.28077e-05
0.000300681
5.19046e-05
0.000283737
5.08036e-05
0.000267409
4.89593e-05
0.00025179
4.68384e-05
0.000236922
4.45887e-05
0.000222984
4.18062e-05
0.000210012
3.89097e-05
0.000198011
3.6e-05
0.000187045
3.28931e-05
0.000177096
2.98493e-05
0.000168164
2.67999e-05
0.000160219
2.38391e-05
0.000153212
2.1021e-05
0.000147118
1.82856e-05
0.000141884
1.57048e-05
0.000137452
1.32949e-05
0.000133775
1.10336e-05
0.000130791
8.9594e-06
0.000128444
7.04582e-06
0.00012669
5.27597e-06
0.000125462
3.69168e-06
0.000124716
2.2492e-06
0.000124391
9.88566e-07
0.000124465
-2.10756e-07
0.000124914
-1.34052e-06
0.0001257
-2.34216e-06
0.000126718
-3.06691e-06
0.000128033
-3.94731e-06
0.000129544
-4.54148e-06
0.000131283
-5.2244e-06
0.000133207
-5.77931e-06
0.000135257
-6.16029e-06
0.000137427
-6.51261e-06
0.000139709
-6.82555e-06
0.000142032
-6.97362e-06
0.000144442
-7.23485e-06
0.000146916
-7.42356e-06
0.000149511
-7.78419e-06
0.000152294
-8.34788e-06
0.00015525
-8.88856e-06
0.00015852
-9.82881e-06
0.000162245
-1.11781e-05
0.000166391
-1.24536e-05
0.000171155
-1.43161e-05
0.000176707
-1.6659e-05
0.000182922
-1.8653e-05
0.000190083
-2.14898e-05
0.00019812
-2.41037e-05
0.000207141
-2.70596e-05
0.000217234
-3.02604e-05
0.00022819
-3.28376e-05
0.000240062
-3.55882e-05
0.000252852
-3.83375e-05
0.000266293
-4.02792e-05
0.000280406
-4.22992e-05
0.000295026
-4.38262e-05
0.000310039
-4.4991e-05
0.000325312
-4.57741e-05
0.000340703
-4.61436e-05
0.000356045
-4.60008e-05
0.000371321
-4.57822e-05
0.000386326
-4.49597e-05
0.000400996
-4.39722e-05
0.000415148
-4.24129e-05
0.000428485
-3.99437e-05
0.00044077
-3.66932e-05
0.000451316
-3.137e-05
0.000459633
-2.45735e-05
0.000465225
-1.65859e-05
0.000467954
-8.33379e-06
0.000467911
-1.19917e-07
0.000464887
8.96257e-06
0.000458586
1.8861e-05
0.000449524
2.72161e-05
0.000438188
3.40444e-05
0.000425209
3.89705e-05
0.000411299
4.17733e-05
0.000396738
4.37263e-05
0.000381998
4.42394e-05
0.00036732
4.40522e-05
0.000352611
4.41519e-05
0.000337884
4.41996e-05
0.000323098
4.43787e-05
0.000308227
4.46269e-05
0.000293278
4.48461e-05
0.000278282
4.49662e-05
0.00026331
4.48926e-05
0.000248502
4.44251e-05
0.000233966
4.36148e-05
0.000219803
4.24868e-05
0.000206093
4.11321e-05
0.000192845
3.97459e-05
0.000180037
3.8427e-05
0.000167737
3.68732e-05
0.000155892
3.55425e-05
0.000144508
3.41629e-05
0.000133579
3.28018e-05
0.00012306
3.15694e-05
0.000112999
3.0185e-05
0.000103353
2.89248e-05
9.41064e-05
2.773e-05
8.53527e-05
2.62689e-05
7.7075e-05
2.48503e-05
6.93121e-05
2.32926e-05
6.21273e-05
2.15611e-05
5.55106e-05
1.98645e-05
4.95058e-05
1.80176e-05
4.41002e-05
1.61998e-05
3.93152e-05
1.43608e-05
3.51236e-05
1.25677e-05
3.1572e-05
1.0659e-05
2.86397e-05
8.79676e-06
2.6345e-05
6.87906e-06
2.46791e-05
4.99107e-06
2.36371e-05
3.11476e-06
2.33098e-05
9.66447e-07
2.36502e-05
-1.0333e-06
2.47424e-05
-3.28144e-06
2.66049e-05
-5.60379e-06
2.92265e-05
-7.85927e-06
3.2626e-05
-1.0199e-05
3.68162e-05
-1.25753e-05
4.17591e-05
-1.48412e-05
4.74938e-05
-1.72356e-05
5.39746e-05
-1.94485e-05
6.11619e-05
-2.15537e-05
6.90847e-05
-2.37754e-05
7.76695e-05
-2.57486e-05
8.691e-05
-2.77135e-05
9.68497e-05
-2.98342e-05
0.000107372
-3.15714e-05
0.000118557
-3.35489e-05
0.000130408
-3.55688e-05
0.000142812
-3.72004e-05
0.000155923
-3.93409e-05
0.0001696
-4.10463e-05
0.000183833
-4.26763e-05
0.00019865
-4.4445e-05
0.000213858
-4.56195e-05
0.000229445
-4.67227e-05
0.000245324
-4.76114e-05
0.000261321
-4.79665e-05
0.000277326
-4.79736e-05
0.000293215
-4.76424e-05
0.000308823
-4.68137e-05
0.000324
-4.55108e-05
0.000338611
-4.38051e-05
0.000352416
-4.13862e-05
0.000365244
-3.84384e-05
0.000376977
-3.51736e-05
0.000387357
-3.11279e-05
0.000396179
-2.64339e-05
0.000403265
-2.12265e-05
0.000408504
-1.56994e-05
0.000411706
-9.61242e-06
0.000412778
-3.20418e-06
0.000411668
3.25501e-06
0.000408312
1.00672e-05
0.000402752
1.67006e-05
0.000395084
2.29751e-05
0.000385457
2.88324e-05
0.000374011
3.42976e-05
0.000360932
3.91905e-05
0.000346419
4.34929e-05
0.000330675
4.71909e-05
0.000313944
5.01542e-05
0.00029643
5.25157e-05
0.000278414
5.40057e-05
0.000260088
5.49208e-05
0.000241698
5.5122e-05
0.000223545
5.44194e-05
0.000205782
5.32619e-05
0.000188664
5.13457e-05
0.000172403
4.87534e-05
0.000157056
4.60254e-05
0.000142764
4.28754e-05
0.000129608
3.94597e-05
0.000117586
3.60679e-05
0.000106703
3.26594e-05
9.70002e-05
2.9125e-05
8.84234e-05
2.57444e-05
8.0893e-05
2.26039e-05
7.43783e-05
1.95507e-05
6.88069e-05
1.67144e-05
6.41044e-05
1.41253e-05
6.0244e-05
1.16091e-05
5.71602e-05
9.26711e-06
5.47615e-05
7.20546e-06
5.30644e-05
5.10761e-06
5.19612e-05
3.32494e-06
5.14409e-05
1.57437e-06
5.1442e-05
7.85052e-09
5.1912e-05
-1.40433e-06
5.2787e-05
-2.6306e-06
5.39752e-05
-3.58589e-06
5.5525e-05
-4.66487e-06
5.7305e-05
-5.34788e-06
5.93467e-05
-6.15243e-06
6.15913e-05
-6.77127e-06
6.3999e-05
-7.25997e-06
6.65686e-05
-7.75823e-06
6.92685e-05
-8.14613e-06
7.21087e-05
-8.56351e-06
7.51277e-05
-9.11048e-06
7.82971e-05
-9.57487e-06
8.16858e-05
-1.02386e-05
8.52894e-05
-1.08949e-05
8.91438e-05
-1.1616e-05
9.32496e-05
-1.23915e-05
9.76025e-05
-1.3156e-05
0.000102268
-1.4081e-05
0.000107191
-1.48561e-05
0.000112506
-1.60118e-05
0.000118206
-1.72025e-05
0.000124332
-1.84797e-05
0.000130984
-2.0041e-05
0.000138214
-2.17738e-05
0.000146099
-2.37613e-05
0.000154629
-2.56907e-05
0.000163971
-2.81266e-05
0.000174093
-3.04531e-05
0.000185057
-3.29587e-05
0.000196887
-3.55716e-05
0.000209485
-3.78584e-05
0.000222803
-4.00078e-05
0.000236805
-4.20336e-05
0.000251308
-4.35446e-05
0.000266231
-4.47823e-05
0.000281394
-4.54998e-05
0.000296654
-4.57704e-05
0.000311821
-4.5485e-05
0.000326658
-4.44912e-05
0.000340968
-4.2892e-05
0.000354494
-4.05324e-05
0.000367008
-3.75024e-05
0.000378303
-3.38358e-05
0.000388158
-2.95277e-05
0.000396395
-2.46629e-05
0.00040283
-1.9233e-05
0.000407369
-1.35677e-05
0.000409845
-7.36817e-06
0.000410235
-1.14148e-06
0.000408508
5.14574e-06
0.000404617
1.17029e-05
0.000398788
1.74996e-05
0.000391049
2.31952e-05
0.000381609
2.83087e-05
0.000370783
3.24747e-05
0.000358728
3.61297e-05
0.000345777
3.88018e-05
0.000332155
4.08381e-05
0.000318175
4.19079e-05
0.000304011
4.24567e-05
0.00028987
4.24276e-05
0.000275911
4.18772e-05
0.000262324
4.07645e-05
0.000249178
3.94887e-05
0.000236498
3.7983e-05
0.000224297
3.6572e-05
0.000212561
3.51982e-05
0.000201208
3.40649e-05
0.000190389
3.24625e-05
0.000180012
3.11744e-05
0.000170093
2.97978e-05
0.00016078
2.79366e-05
0.000152095
2.60945e-05
0.000143909
2.45615e-05
0.000136416
2.25549e-05
0.000129641
2.03889e-05
0.000123433
1.86836e-05
0.000117831
1.68812e-05
0.00011287
1.49627e-05
0.000108462
1.3278e-05
0.000104735
1.12024e-05
0.000101624
9.34024e-06
9.91286e-05
7.47467e-06
9.73509e-05
5.3026e-06
9.63096e-05
3.09591e-06
9.58174e-05
1.4799e-06
9.58143e-05
2.69541e-08
9.64295e-05
-1.84659e-06
9.76068e-05
-3.54593e-06
9.93147e-05
-5.13569e-06
0.00010131
-5.99943e-06
0.000103651
-7.02987e-06
0.000106218
-7.692e-06
0.000108917
-8.0885e-06
0.000111806
-8.65546e-06
0.00011486
-9.14064e-06
0.000118058
-9.57464e-06
0.000121475
-1.02283e-05
0.000125139
-1.09706e-05
0.000129129
-1.19555e-05
0.000133472
-1.3013e-05
0.000138305
-1.44878e-05
0.000143636
-1.59897e-05
0.000149595
-1.78792e-05
0.000156253
-1.99822e-05
0.000163577
-2.19916e-05
0.000171751
-2.45557e-05
0.000180849
-2.73399e-05
0.000190738
-2.97334e-05
0.000201732
-3.30553e-05
0.000213658
-3.58336e-05
0.000226705
-3.91937e-05
0.000240838
-4.24483e-05
0.000255719
-4.47052e-05
0.000271494
-4.73702e-05
0.00028809
-4.97617e-05
0.000305021
-5.07528e-05
0.000322362
-5.19368e-05
0.00033975
-5.20869e-05
0.00035703
-5.17546e-05
0.000374009
-5.08439e-05
0.000390274
-4.86601e-05
0.00040559
-4.58481e-05
0.000419841
-4.26625e-05
0.000432669
-3.84039e-05
0.000443962
-3.38047e-05
0.000453537
-2.86731e-05
0.000461198
-2.2937e-05
0.000466902
-1.7073e-05
0.00047054
-1.08917e-05
0.000472052
-4.48383e-06
0.000471339
2.07595e-06
0.000468365
8.89827e-06
0.000463369
1.50222e-05
0.000456578
2.03582e-05
0.000447862
2.61151e-05
0.000437636
3.06397e-05
0.000425999
3.48687e-05
0.000413248
3.82092e-05
0.000399674
4.06752e-05
0.000385193
4.33975e-05
0.000370219
4.48801e-05
0.000355009
4.55935e-05
0.000339553
4.6334e-05
0.000324192
4.60545e-05
0.000309031
4.54574e-05
0.000294258
4.43019e-05
0.000279979
4.28212e-05
0.000266201
4.13212e-05
0.000253068
3.93934e-05
0.000240608
3.73765e-05
0.000228795
3.54384e-05
0.000217672
3.33762e-05
0.000207197
3.14312e-05
0.000197346
2.95576e-05
0.000188105
2.7731e-05
0.0001794
2.612e-05
0.000171226
2.45277e-05
0.000163551
2.30279e-05
2.19674e-05
0.00037051
6.8349e-05
0.000353137
6.93823e-05
0.000335608
7.00109e-05
0.000317971
7.0444e-05
0.00030064
6.92359e-05
0.000283679
6.7764e-05
0.000267338
6.53004e-05
0.000251708
6.24686e-05
0.000236833
5.94633e-05
0.00022289
5.57494e-05
0.000209914
5.18851e-05
0.000197913
4.80008e-05
0.00018695
4.38568e-05
0.000177003
3.97957e-05
0.000168073
3.57306e-05
0.00016013
3.17819e-05
0.000153124
2.80268e-05
0.00014703
2.43795e-05
0.000141797
2.09372e-05
0.000137364
1.77287e-05
0.000133688
1.47095e-05
0.000130708
1.19395e-05
0.000128364
9.38978e-06
0.000126614
7.02501e-06
0.000125392
4.91406e-06
0.000124651
2.99019e-06
0.000124338
1.3017e-06
0.00012442
-2.9309e-07
0.000124878
-1.79823e-06
0.000125668
-3.13174e-06
0.000126682
-4.08158e-06
0.000127995
-5.26019e-06
0.000129499
-6.04572e-06
0.000131236
-6.96127e-06
0.000133164
-7.70681e-06
0.000135206
-8.20253e-06
0.00013737
-8.67668e-06
0.000139655
-9.11033e-06
0.000141974
-9.29329e-06
0.000144384
-9.6447e-06
0.000146852
-9.89092e-06
0.000149439
-1.03713e-05
0.000152225
-1.11343e-05
0.000155176
-1.18395e-05
0.000158434
-1.30871e-05
0.000162155
-1.48987e-05
0.000166291
-1.65901e-05
0.000171045
-1.90697e-05
0.000176594
-2.22084e-05
0.000182804
-2.48633e-05
0.000189965
-2.86501e-05
0.000198003
-3.21423e-05
0.00020703
-3.60863e-05
0.000217137
-4.0368e-05
0.000228108
-4.38088e-05
0.000239998
-4.74776e-05
0.000252814
-5.11538e-05
0.000266279
-5.3744e-05
0.000280419
-5.64394e-05
0.000295068
-5.84754e-05
0.000310106
-6.00291e-05
0.000325404
-6.1072e-05
0.000340825
-6.15655e-05
0.000356191
-6.13669e-05
0.000371478
-6.10697e-05
0.00038649
-5.99715e-05
0.000401169
-5.86514e-05
0.000415342
-5.65862e-05
0.000428731
-5.33331e-05
0.000441119
-4.90814e-05
0.000451826
-4.20765e-05
0.000460334
-3.30821e-05
0.000466146
-2.2398e-05
0.000468969
-1.11564e-05
0.000468654
1.95137e-07
0.000465395
1.22207e-05
0.000459071
2.51852e-05
0.000450032
3.62548e-05
0.000438721
4.53552e-05
0.000425762
5.19303e-05
0.00041187
5.56649e-05
0.000397325
5.82713e-05
0.000382597
5.89669e-05
0.000367933
5.87161e-05
0.000353243
5.8842e-05
0.000338542
5.89014e-05
0.000323777
5.91431e-05
0.000308908
5.94965e-05
0.000293948
5.98062e-05
0.00027894
5.99735e-05
0.000263966
5.98671e-05
0.000249162
5.92294e-05
0.000234629
5.81476e-05
0.000220467
5.66486e-05
0.000206749
5.48505e-05
0.000193496
5.29984e-05
0.000180717
5.12059e-05
0.000168398
4.91927e-05
0.000156551
4.73895e-05
0.000145173
4.55406e-05
0.000134254
4.37209e-05
0.000123748
4.20751e-05
0.000113683
4.02506e-05
0.000104038
3.85697e-05
9.47994e-05
3.69685e-05
8.60473e-05
3.50209e-05
7.77786e-05
3.3119e-05
7.00298e-05
3.10413e-05
6.2849e-05
2.87419e-05
5.62343e-05
2.64792e-05
5.02294e-05
2.40225e-05
4.48193e-05
2.161e-05
4.00356e-05
1.91445e-05
3.58494e-05
1.67539e-05
3.23072e-05
1.42011e-05
2.93714e-05
1.17326e-05
2.70682e-05
9.18226e-06
2.53903e-05
6.66899e-06
2.43367e-05
4.16839e-06
2.39997e-05
1.30339e-06
2.43353e-05
-1.36882e-06
2.5426e-05
-4.37213e-06
2.72768e-05
-7.45459e-06
2.98983e-05
-1.04808e-05
3.32878e-05
-1.35885e-05
3.74725e-05
-1.676e-05
4.24162e-05
-1.9785e-05
4.81412e-05
-2.29606e-05
5.46164e-05
-2.59237e-05
6.18036e-05
-2.87408e-05