/*--------------------------------*- C++ -*----------------------------------*\
| =========                 |                                                 |
| \\      /  F ield         | OpenFOAM: The Open Source CFD Toolbox           |
|  \\    /   O peration     | Version:  3.0.1                                 |
|   \\  /    A nd           | Web:      www.OpenFOAM.org                      |
|    \\/     M anipulation  |                                                 |
\*---------------------------------------------------------------------------*/
FoamFile
{
    version     2.0;
    format      ascii;
    class       volScalarField;
    location    "64";
    object      p;
}
// * * * * * * * * * * * * * * * * * * * * * * * * * * * * * * * * * * * * * //

dimensions      [1 -1 -2 0 0 0 0];

internalField   nonuniform List<scalar> 
21420
(
3681.97
3662.94
3645.48
3629.63
3615.39
3602.74
3591.62
3582
3573.84
3567.1
3561.75
3557.76
3555.12
3553.82
3553.86
3555.24
3557.95
3562.05
3567.57
3574.54
3583.03
3593.07
3604.74
3618.09
3633.17
3650.03
3668.7
3689.22
3711.58
3735.76
3761.72
3789.38
3818.61
3849.28
3881.21
3914.08
3947.68
3981.68
4015.72
4049.44
4082.43
4114.27
4144.53
4172.8
4198.71
4221.91
4242.05
4258.86
4272.11
4281.6
4287.21
4288.81
4286.27
4279.72
4269.26
4255.05
4237.3
4216.23
4192.17
4165.45
4136.42
4105.47
4073.01
4039.45
4005.21
3970.66
3936.18
3902.1
3868.83
3837.15
3806.35
3776.81
3748.74
3722.32
3697.66
3674.82
3653.86
3634.79
3617.63
3602.37
3589
3577.48
3567.79
3559.89
3553.76
3549.34
3546.57
3545.46
3545.95
3547.94
3551.43
3556.36
3562.71
3570.47
3579.64
3590.22
3602.23
3615.7
3630.68
3647.19
3665.26
3684.94
3706.21
3729.08
3753.52
3779.46
3806.83
3835.51
3865.35
3896.2
3927.79
3959.88
3992.2
4024.44
4056.27
4087.32
4117.24
4145.63
4172.12
4196.3
4217.83
4236.34
4251.51
4263.08
4270.81
4274.57
4274.13
4269.68
4261.17
4248.65
4232.36
4212.52
4189.45
4163.47
4134.98
4104.4
4072.15
4038.69
4004.46
3969.9
3935.42
3901.42
3868.25
3836.23
3805.62
3776.63
3749.43
3724.12
3700.78
3679.43
3660.05
3642.61
3627.06
3613.32
3601.31
3590.97
3582.21
3574.96
3569.16
3564.75
3561.68
3559.9
3559.39
3560.17
3562.16
3565.39
3569.86
3575.61
3582.64
3590.97
3600.64
3611.68
3624.11
3637.98
3653.31
3670.14
3688.49
3708.39
3729.84
3752.82
3777.32
3803.27
3830.6
3859.19
3888.88
3919.5
3950.83
3982.53
4014.32
4045.88
4076.83
4106.76
4135.25
4161.89
4186.23
4207.88
4226.45
4241.63
4253.14
4260.76
4264.32
4263.73
4259.02
4250.26
4237.54
4221.08
4201.15
4178.08
4152.25
4124.06
4093.96
4062.41
4029.86
3996.76
3963.54
3930.59
3898.26
3866.87
3836.67
3807.87
3780.62
3755.04
3731.21
3709.15
3688.86
3670.35
3653.55
3638.44
3624.94
3613
3602.55
3593.54
3585.92
3579.65
3574.69
3571.02
3568.6
3567.42
3567.5
3568.79
3571.3
3575.04
3580.01
3586.22
3593.68
3602.41
3612.44
3623.8
3636.53
3650.69
3666.31
3683.43
3702.07
3722.24
3743.9
3767.03
3791.57
3817.43
3844.5
3872.65
3901.73
3931.55
3961.92
3992.51
4023.07
4053.28
4082.79
4111.23
4138.21
4163.32
4186.15
4206.32
4223.48
4237.29
4247.48
4253.81
4256.15
4254.33
4248.47
4238.54
4224.72
4207.27
4186.47
4162.64
4136.21
4107.59
4077.19
4045.47
4012.85
3979.75
3946.52
3913.59
3888.51
3857.9
3828.6
3800.84
3774.73
3750.38
3727.84
3707.11
3688.19
3671.02
3655.55
3641.69
3629.34
3618.41
3608.79
3600.39
3593.14
3586.97
3581.85
3577.74
3574.66
3572.63
3571.71
3571.97
3573.48
3576.32
3580.59
3586.4
3593.85
3603.01
3613.96
3626.76
3641.44
3658
3676.45
3696.73
3718.76
3742.46
3767.7
3794.3
3822.12
3851.04
3880.98
3914.29
3944.87
3975.03
4004.7
4033.58
4061.39
4087.87
4112.71
4135.64
4156.4
4174.72
4190.39
4203.19
4212.98
4219.64
4223.11
4223.34
4220.36
4214.09
4204.57
4192.02
4176.62
3583.79
3564.77
3547.31
3531.46
3517.23
3504.57
3493.46
3483.84
3475.68
3468.95
3463.6
3459.61
3456.96
3455.66
3455.71
3457.09
3459.79
3463.89
3469.41
3476.38
3484.87
3494.91
3506.57
3519.92
3534.99
3551.85
3570.53
3591.04
3613.4
3637.58
3663.53
3691.2
3720.43
3751.11
3783.05
3815.92
3849.54
3883.55
3917.6
3951.34
3984.35
4016.2
4046.48
4074.77
4100.7
4123.91
4144.07
4160.9
4174.16
4183.65
4189.26
4190.87
4188.32
4181.77
4171.3
4157.09
4139.32
4118.23
4094.16
4067.42
4038.37
4007.41
3974.92
3941.35
3907.09
3872.53
3838.03
3803.95
3770.67
3738.98
3708.17
3678.63
3650.56
3624.14
3599.47
3576.63
3555.68
3536.61
3519.45
3504.19
3490.82
3479.31
3469.61
3461.72
3455.59
3451.17
3448.41
3447.3
3447.79
3449.78
3453.27
3458.2
3464.55
3472.31
3481.48
3492.06
3504.07
3517.54
3532.51
3549.01
3567.09
3586.76
3608.04
3630.9
3655.34
3681.29
3708.66
3737.34
3767.19
3798.04
3829.64
3861.75
3894.08
3926.33
3958.17
3989.24
4019.17
4047.58
4074.09
4098.29
4119.83
4138.35
4153.54
4165.12
4172.87
4176.62
4176.2
4171.73
4163.21
4150.69
4134.38
4114.54
4091.44
4065.45
4036.94
4006.34
3974.07
3940.59
3906.34
3871.76
3837.27
3803.26
3770.08
3738.05
3707.43
3678.44
3651.23
3625.93
3602.59
3581.24
3561.86
3544.43
3528.88
3515.14
3503.14
3492.8
3484.05
3476.8
3471
3466.59
3463.53
3461.75
3461.24
3462.01
3464.01
3467.24
3471.71
3477.45
3484.48
3492.81
3502.48
3513.52
3525.95
3539.81
3555.14
3571.97
3590.32
3610.22
3631.66
3654.65
3679.14
3705.1
3732.43
3761.02
3790.72
3821.35
3852.68
3884.4
3916.21
3947.78
3978.74
4008.69
4037.21
4063.86
4088.22
4109.89
4128.48
4143.67
4155.19
4162.81
4166.38
4165.79
4161.07
4152.31
4139.57
4123.1
4103.16
4080.07
4054.22
4026.01
3995.9
3964.32
3931.76
3898.64
3865.4
3832.44
3800.1
3768.7
3738.49
3709.69
3682.44
3656.86
3633.02
3610.96
3590.68
3572.17
3555.38
3540.27
3526.77
3514.83
3504.39
3495.38
3487.76
3481.49
3476.54
3472.87
3470.45
3469.27
3469.35
3470.64
3473.15
3476.89
3481.86
3488.06
3495.52
3504.25
3514.28
3525.64
3538.37
3552.53
3568.15
3585.26
3603.9
3624.07
3645.73
3668.87
3693.4
3719.26
3746.34
3774.5
3803.58
3833.41
3863.79
3894.39
3924.96
3955.18
3984.71
4013.17
4040.16
4065.29
4088.15
4108.33
4125.5
4139.33
4149.52
4155.87
4158.21
4156.4
4150.52
4140.59
4126.76
4109.3
4088.48
4064.63
4038.19
4009.54
3979.12
3947.38
3914.75
3881.64
3848.39
3815.45
3790.35
3759.72
3730.42
3702.65
3676.55
3652.2
3629.65
3608.93
3590.01
3572.85
3557.38
3543.53
3531.18
3520.25
3510.64
3502.25
3495
3488.83
3483.71
3479.6
3476.52
3474.49
3473.56
3473.82
3475.33
3478.16
3482.43
3488.24
3495.68
3504.84
3515.79
3528.58
3543.26
3559.82
3578.27
3598.55
3620.58
3644.29
3669.53
3696.14
3723.96
3752.88
3782.84
3816.16
3846.75
3876.93
3906.61
3935.5
3963.33
3989.81
4014.67
4037.62
4058.38
4076.72
4092.39
4105.21
4115
4121.66
4125.14
4125.37
4122.38
4116.11
4106.58
4094.03
4078.62
3485.54
3466.52
3449.07
3433.22
3418.99
3406.34
3395.23
3385.62
3377.47
3370.73
3365.39
3361.4
3358.76
3357.46
3357.5
3358.88
3361.58
3365.68
3371.19
3378.16
3386.64
3396.68
3408.34
3421.67
3436.74
3453.6
3472.27
3492.78
3515.14
3539.31
3565.27
3592.94
3622.18
3652.87
3684.82
3717.72
3751.35
3785.39
3819.47
3853.24
3886.28
3918.18
3948.49
3976.81
4002.78
4026.02
4046.21
4063.06
4076.34
4085.85
4091.47
4093.1
4090.52
4083.96
4073.48
4059.25
4041.45
4020.34
3996.23
3969.46
3940.38
3909.37
3876.85
3843.25
3808.96
3774.37
3739.84
3705.74
3672.44
3640.73
3609.92
3580.37
3552.29
3525.87
3501.2
3478.36
3457.41
3438.34
3421.19
3405.93
3392.56
3381.06
3371.37
3363.48
3357.35
3352.94
3350.18
3349.08
3349.57
3351.56
3355.05
3359.98
3366.34
3374.1
3383.26
3393.84
3405.84
3419.31
3434.28
3450.78
3468.85
3488.52
3509.79
3532.66
3557.09
3583.04
3610.42
3639.11
3668.97
3699.84
3731.45
3763.58
3795.93
3828.21
3860.08
3891.18
3921.15
3949.59
3976.13
4000.37
4021.94
4040.5
4055.71
4067.31
4075.07
4078.84
4078.43
4073.94
4065.41
4052.87
4036.54
4016.66
3993.53
3967.5
3938.96
3908.31
3876.01
3842.49
3808.2
3773.59
3739.07
3705.03
3671.83
3639.79
3609.16
3580.16
3552.95
3527.64
3504.31
3482.96
3463.59
3446.17
3430.62
3416.89
3404.9
3394.57
3385.82
3378.58
3372.79
3368.38
3365.32
3363.54
3363.04
3363.81
3365.81
3369.03
3373.51
3379.25
3386.27
3394.6
3404.27
3415.3
3427.73
3441.59
3456.91
3473.73
3492.08
3511.98
3533.42
3556.4
3580.9
3606.86
3634.2
3662.8
3692.51
3723.15
3754.5
3786.24
3818.08
3849.68
3880.67
3910.66
3939.21
3965.9
3990.3
4012
4030.63
4045.85
4057.38
4065.03
4068.61
4068
4063.29
4054.51
4041.75
4025.25
4005.28
3982.16
3956.27
3928.02
3897.86
3866.25
3833.64
3800.49
3767.23
3734.23
3701.88
3670.46
3640.24
3611.43
3584.17
3558.59
3534.76
3512.7
3492.42
3473.92
3457.13
3442.03
3428.54
3416.61
3406.17
3397.17
3389.55
3383.29
3378.33
3374.66
3372.24
3371.07
3371.15
3372.44
3374.95
3378.69
3383.66
3389.86
3397.32
3406.04
3416.07
3427.42
3440.15
3454.3
3469.92
3487.03
3505.67
3525.83
3547.5
3570.63
3595.17
3621.04
3648.12
3676.29
3705.39
3735.23
3765.62
3796.25
3826.85
3857.1
3886.66
3915.15
3942.18
3967.35
3990.23
4010.45
4027.66
4041.51
4051.72
4058.08
4060.43
4058.63
4052.73
4042.79
4028.95
4011.46
3990.6
3966.72
3940.24
3911.55
3881.09
3849.31
3816.65
3783.5
3750.24
3717.26
3692.11
3661.47
3632.16
3604.39
3578.28
3553.93
3531.39
3510.67
3491.76
3474.6
3459.15
3445.3
3432.96
3422.04
3412.44
3404.05
3396.81
3390.65
3385.53
3381.42
3378.34
3376.3
3375.37
3375.63
3377.12
3379.95
3384.21
3390.01
3397.44
3406.59
3417.54
3430.33
3445
3461.56
3480.01
3500.29
3522.33
3546.04
3571.29
3597.91
3625.75
3654.68
3684.65
3718.01
3748.62
3778.82
3808.52
3837.44
3865.29
3891.81
3916.68
3939.66
3960.45
3978.81
3994.51
4007.34
4017.15
4023.82
4027.3
4027.54
4024.53
4018.25
4008.72
3996.14
3980.72
3387.21
3368.2
3350.75
3334.91
3320.69
3308.05
3296.95
3287.34
3279.2
3272.47
3267.12
3263.14
3260.5
3259.2
3259.24
3260.61
3263.32
3267.41
3272.92
3279.88
3288.35
3298.38
3310.03
3323.36
3338.42
3355.27
3373.93
3394.43
3416.79
3440.97
3466.93
3494.6
3523.85
3554.56
3586.53
3619.45
3653.12
3687.19
3721.32
3755.14
3788.23
3820.18
3850.55
3878.93
3904.95
3928.24
3948.47
3965.36
3978.67
3988.21
3993.84
3995.49
3992.88
3986.31
3975.81
3961.54
3943.71
3922.55
3898.4
3871.57
3842.43
3811.37
3778.8
3745.14
3710.81
3676.17
3641.61
3607.47
3574.15
3542.42
3511.59
3482.02
3453.94
3427.51
3402.84
3380.01
3359.06
3339.99
3322.84
3307.59
3294.23
3282.73
3273.05
3265.16
3259.04
3254.63
3251.88
3250.79
3251.28
3253.29
3256.78
3261.71
3268.07
3275.83
3284.99
3295.56
3307.56
3321.02
3335.98
3352.47
3370.54
3390.2
3411.47
3434.33
3458.77
3484.73
3512.11
3540.82
3570.69
3601.58
3633.22
3665.37
3697.76
3730.08
3761.99
3793.14
3823.16
3851.65
3878.24
3902.54
3924.16
3942.76
3958.02
3969.65
3977.44
3981.21
3980.82
3976.31
3967.77
3955.2
3938.83
3918.9
3895.72
3869.64
3841.03
3810.33
3777.96
3744.39
3710.05
3675.39
3640.82
3606.75
3573.52
3541.45
3510.8
3481.79
3454.57
3429.27
3405.93
3384.59
3365.23
3347.82
3332.29
3318.57
3306.59
3296.27
3287.53
3280.3
3274.52
3270.12
3267.06
3265.29
3264.8
3265.56
3267.55
3270.78
3275.26
3280.99
3288.01
3296.34
3306
3317.02
3329.45
3343.3
3358.62
3375.43
3393.77
3413.66
3435.1
3458.09
3482.58
3508.55
3535.89
3564.51
3594.24
3624.9
3656.28
3688.05
3719.93
3751.58
3782.62
3812.66
3841.27
3868.02
3892.48
3914.23
3932.9
3948.16
3959.73
3967.4
3971
3970.39
3965.66
3956.86
3944.08
3927.53
3907.51
3884.34
3858.39
3830.08
3799.86
3768.19
3735.53
3702.33
3669.01
3635.98
3603.59
3572.15
3541.91
3513.09
3485.83
3460.24
3436.41
3414.36
3394.09
3375.59
3358.82
3343.72
3330.24
3318.32
3307.89
3298.89
3291.29
3285.03
3280.08
3276.41
3273.99
3272.83
3272.9
3274.19
3276.7
3280.44
3285.41
3291.61
3299.06
3307.78
3317.8
3329.15
3341.87
3356.02
3371.62
3388.73
3407.37
3427.53
3449.19
3472.33
3496.88
3522.75
3549.84
3578.03
3607.14
3637.01
3667.43
3698.09
3728.72
3759.02
3788.63
3817.17
3844.25
3869.47
3892.41
3912.68
3929.93
3943.82
3954.07
3960.45
3962.81
3961.02
3955.1
3945.14
3931.27
3913.74
3892.83
3868.9
3842.36
3813.62
3783.1
3751.26
3718.54
3685.35
3652.05
3619.03
3593.81
3563.14
3533.82
3506.04
3479.93
3455.58
3433.04
3412.33
3393.43
3376.29
3360.84
3347.01
3334.69
3323.78
3314.19
3305.81
3298.58
3292.42
3287.3
3283.2
3280.11
3278.07
3277.14
3277.38
3278.86
3281.68
3285.93
3291.72
3299.14
3308.28
3319.21
3331.99
3346.66
3363.22
3381.67
3401.96
3424
3447.72
3472.98
3499.62
3527.47
3556.42
3586.42
3619.84
3650.48
3680.71
3710.45
3739.4
3767.29
3793.85
3818.76
3841.78
3862.61
3881
3896.73
3909.59
3919.41
3926.1
3929.58
3929.83
3926.8
3920.51
3910.96
3898.37
3882.91
3288.81
3269.8
3252.36
3236.54
3222.33
3209.69
3198.6
3189.01
3180.87
3174.14
3168.81
3164.83
3162.19
3160.89
3160.93
3162.29
3165
3169.09
3174.59
3181.54
3190
3200.02
3211.65
3224.97
3240.02
3256.86
3275.51
3296.01
3318.36
3342.54
3368.5
3396.18
3425.45
3456.18
3488.18
3521.13
3554.84
3588.97
3623.16
3657.05
3690.2
3722.22
3752.67
3781.12
3807.2
3830.56
3850.85
3867.79
3881.15
3890.71
3896.36
3898.02
3895.4
3888.81
3878.27
3863.97
3846.09
3824.87
3800.65
3773.75
3744.54
3713.41
3680.76
3647.04
3612.64
3577.94
3543.33
3509.15
3475.8
3444.04
3413.19
3383.6
3355.51
3329.07
3304.4
3281.56
3260.62
3241.56
3224.42
3209.18
3195.82
3184.33
3174.66
3166.78
3160.67
3156.27
3153.53
3152.44
3152.94
3154.95
3158.44
3163.38
3169.74
3177.5
3186.66
3197.22
3209.21
3222.67
3237.62
3254.1
3272.16
3291.81
3313.07
3335.94
3360.38
3386.34
3413.74
3442.46
3472.35
3503.26
3534.94
3567.14
3599.57
3631.94
3663.91
3695.12
3725.2
3753.77
3780.43
3804.79
3826.49
3845.15
3860.46
3872.14
3879.95
3883.74
3883.38
3878.85
3870.27
3857.67
3841.25
3821.26
3798.01
3771.85
3743.16
3712.38
3679.94
3646.29
3611.88
3577.15
3542.53
3508.4
3475.13
3443.03
3412.35
3383.33
3356.11
3330.8
3307.47
3286.14
3266.8
3249.4
3233.88
3220.18
3208.22
3197.91
3189.19
3181.97
3176.19
3171.8
3168.75
3166.98
3166.5
3167.26
3169.26
3172.48
3176.95
3182.68
3189.7
3198.02
3207.67
3218.69
3231.11
3244.95
3260.26
3277.07
3295.4
3315.28
3336.72
3359.7
3384.2
3410.17
3437.52
3466.15
3495.91
3526.6
3558.02
3589.84
3621.77
3653.48
3684.59
3714.7
3743.38
3770.21
3794.74
3816.57
3835.3
3850.62
3862.23
3869.93
3873.54
3872.95
3868.2
3859.37
3846.54
3829.94
3809.86
3786.61
3760.58
3732.19
3701.89
3670.14
3637.41
3604.14
3570.76
3537.68
3505.25
3473.77
3443.51
3414.67
3387.4
3361.81
3337.98
3315.93
3295.67
3277.19
3260.43
3245.35
3231.88
3219.97
3209.55
3200.57
3192.97
3186.72
3181.77
3178.11
3175.7
3174.53
3174.61
3175.9
3178.41
3182.14
3187.11
3193.3
3200.75
3209.47
3219.48
3230.82
3243.53
3257.67
3273.27
3290.37
3309
3329.15
3350.82
3373.96
3398.52
3424.4
3451.51
3479.71
3508.85
3538.75
3569.2
3599.91
3630.6
3660.95
3690.62
3719.23
3746.38
3771.68
3794.69
3815.03
3832.33
3846.28
3856.57
3862.98
3865.35
3863.58
3857.63
3847.64
3833.73
3816.15
3795.18
3771.18
3744.56
3715.74
3685.14
3653.23
3620.44
3587.19
3553.83
3520.75
3495.44
3464.73
3435.4
3407.61
3381.49
3357.15
3334.61
3313.91
3295.02
3277.9
3262.47
3248.66
3236.35
3225.47
3215.89
3207.53
3200.31
3194.16
3189.04
3184.94
3181.85
3179.8
3178.86
3179.08
3180.55
3183.35
3187.59
3193.36
3200.76
3209.89
3220.81
3233.58
3248.24
3264.8
3283.25
3303.54
3325.59
3349.32
3374.61
3401.26
3429.14
3458.1
3488.14
3521.64
3552.33
3582.6
3612.38
3641.38
3669.32
3695.93
3720.9
3743.97
3764.85
3783.28
3799.05
3811.95
3821.8
3828.51
3832
3832.26
3829.21
3822.9
3813.33
3800.71
3785.21
3190.33
3171.33
3153.9
3138.09
3123.89
3111.27
3100.19
3090.61
3082.48
3075.77
3070.44
3066.46
3063.83
3062.53
3062.57
3063.92
3066.63
3070.71
3076.2
3083.14
3091.59
3101.59
3113.21
3126.51
3141.55
3158.37
3177.01
3197.5
3219.85
3244.02
3269.99
3297.68
3326.97
3357.73
3389.76
3422.76
3456.52
3490.72
3524.98
3558.95
3592.19
3624.3
3654.84
3683.38
3709.55
3732.99
3753.36
3770.36
3783.77
3793.37
3799.03
3800.7
3798.08
3791.46
3780.89
3766.53
3748.59
3727.29
3702.99
3676
3646.7
3615.48
3582.74
3548.93
3514.45
3479.68
3445.01
3410.77
3377.38
3345.59
3314.7
3285.1
3256.99
3230.54
3205.87
3183.03
3162.09
3143.04
3125.91
3110.68
3097.34
3085.85
3076.19
3068.33
3062.23
3057.83
3055.11
3054.03
3054.53
3056.55
3060.05
3065
3071.36
3079.11
3088.27
3098.83
3110.81
3124.25
3139.19
3155.66
3173.71
3193.35
3214.61
3237.47
3261.91
3287.88
3315.29
3344.03
3373.95
3404.9
3436.62
3468.87
3501.36
3533.79
3565.83
3597.13
3627.29
3655.94
3682.69
3707.14
3728.92
3747.66
3763.04
3774.77
3782.63
3786.44
3786.09
3781.55
3772.93
3760.28
3743.8
3723.73
3700.4
3674.14
3645.36
3614.47
3581.93
3548.19
3513.69
3478.88
3444.19
3410
3376.68
3344.53
3313.82
3284.78
3257.55
3232.24
3208.92
3187.6
3168.27
3150.89
3135.4
3121.72
3109.77
3099.49
3090.78
3083.57
3077.81
3073.43
3070.39
3068.63
3068.15
3068.92
3070.91
3074.13
3078.6
3084.33
3091.33
3099.64
3109.29
3120.3
3132.71
3146.54
3161.84
3178.63
3196.96
3216.83
3238.26
3261.24
3285.74
3311.72
3339.09
3367.74
3397.52
3428.25
3459.73
3491.6
3523.59
3555.38
3586.57
3616.77
3645.55
3672.47
3697.1
3719.01
3737.83
3753.21
3764.88
3772.61
3776.25
3775.66
3770.9
3762.02
3749.14
3732.48
3712.31
3688.98
3662.85
3634.36
3603.96
3572.11
3539.28
3505.93
3472.48
3439.33
3406.84
3375.33
3345.03
3316.17
3288.89
3263.3
3239.47
3217.43
3197.18
3178.71
3161.97
3146.9
3133.45
3121.56
3111.15
3102.18
3094.6
3088.35
3083.41
3079.76
3077.35
3076.19
3076.26
3077.55
3080.06
3083.79
3088.76
3094.95
3102.39
3111.1
3121.1
3132.43
3145.14
3159.26
3174.84
3191.94
3210.56
3230.71
3252.38
3275.53
3300.09
3325.99
3353.11
3381.34
3410.52
3440.45
3470.95
3501.71
3532.46
3562.88
3592.63
3621.33
3648.57
3673.95
3697.06
3717.48
3734.86
3748.87
3759.21
3765.66
3768.06
3766.29
3760.32
3750.3
3736.33
3718.69
3697.63
3673.54
3646.83
3617.91
3587.22
3555.21
3522.33
3489.01
3455.59
3422.44
3397
3366.24
3336.89
3309.09
3282.97
3258.63
3236.1
3215.41
3196.54
3179.44
3164.03
3150.24
3137.96
3127.1
3117.54
3109.2
3101.99
3095.85
3090.74
3086.63
3083.54
3081.49
3080.53
3080.73
3082.18
3084.97
3089.19
3094.93
3102.32
3111.43
3122.33
3135.1
3149.75
3166.3
3184.75
3205.04
3227.11
3250.86
3276.16
3302.84
3330.74
3359.74
3389.8
3423.43
3454.16
3484.48
3514.31
3543.38
3571.39
3598.06
3623.1
3646.23
3667.17
3685.67
3701.49
3714.43
3724.31
3731.04
3734.55
3734.8
3731.75
3725.41
3715.82
3703.15
3687.61
3091.77
3072.78
3055.37
3039.57
3025.39
3012.78
3001.72
2992.15
2984.03
2977.33
2972.01
2968.04
2965.42
2964.12
2964.15
2965.5
2968.2
2972.27
2977.75
2984.68
2993.11
3003.09
3014.7
3027.98
3043
3059.8
3078.43
3098.91
3121.25
3145.43
3171.4
3199.1
3228.41
3259.2
3291.27
3324.33
3358.16
3392.43
3426.78
3460.85
3494.2
3526.42
3557.06
3585.71
3611.99
3635.53
3655.98
3673.06
3686.53
3696.17
3701.87
3703.54
3700.92
3694.26
3683.64
3669.23
3651.2
3629.82
3605.41
3578.32
3548.91
3517.58
3484.73
3450.82
3416.24
3381.39
3346.64
3312.34
3278.91
3247.07
3216.14
3186.51
3158.38
3131.93
3107.25
3084.42
3063.48
3044.44
3027.32
3012.1
2998.77
2987.3
2977.65
2969.8
2963.71
2959.33
2956.62
2955.56
2956.07
2958.1
2961.61
2966.56
2972.92
2980.67
2989.82
3000.37
3012.34
3025.77
3040.69
3057.15
3075.19
3094.82
3116.07
3138.93
3163.37
3189.35
3216.78
3245.54
3275.5
3306.48
3338.26
3370.56
3403.13
3435.64
3467.76
3499.15
3529.41
3558.17
3585.02
3609.58
3631.46
3650.29
3665.76
3677.56
3685.46
3689.3
3688.96
3684.41
3675.75
3663.04
3646.48
3626.32
3602.88
3576.51
3547.61
3516.61
3483.95
3450.09
3415.48
3380.58
3345.79
3311.53
3278.15
3245.95
3215.21
3186.14
3158.9
3133.59
3110.28
3088.97
3069.66
3052.3
3036.83
3023.18
3011.26
3001
2992.31
2985.12
2979.38
2975.01
2971.98
2970.23
2969.75
2970.52
2972.51
2975.73
2980.2
2985.92
2992.91
3001.22
3010.86
3021.85
3034.25
3048.07
3063.35
3080.14
3098.45
3118.31
3139.73
3162.71
3187.21
3213.2
3240.58
3269.26
3299.08
3329.85
3361.39
3393.33
3425.4
3457.27
3488.57
3518.88
3547.77
3574.81
3599.55
3621.57
3640.48
3655.95
3667.69
3675.46
3679.12
3678.54
3673.76
3664.83
3651.89
3635.15
3614.88
3591.44
3565.19
3536.58
3506.06
3474.09
3441.15
3407.69
3374.15
3340.93
3308.38
3276.81
3246.48
3217.59
3190.3
3164.7
3140.88
3118.85
3098.61
3080.16
3063.44
3048.39
3034.96
3023.09
3012.7
3003.74
2996.17
2989.93
2985.01
2981.36
2978.96
2977.8
2977.87
2979.16
2981.67
2985.4
2990.36
2996.55
3003.98
3012.68
3022.67
3033.99
3046.68
3060.78
3076.36
3093.44
3112.06
3132.21
3153.88
3177.03
3201.6
3227.51
3254.66
3282.92
3312.13
3342.11
3372.66
3403.49
3434.31
3464.82
3494.67
3523.47
3550.82
3576.31
3599.52
3620.04
3637.51
3651.6
3662.01
3668.51
3670.93
3669.16
3663.18
3653.1
3639.08
3621.35
3600.2
3576.01
3549.18
3520.14
3489.33
3457.2
3424.22
3390.81
3357.32
3324.1
3298.47
3267.67
3238.3
3210.5
3184.37
3160.02
3137.51
3116.83
3097.98
3080.9
3065.52
3051.76
3039.51
3028.67
3019.14
3010.82
3003.63
2997.5
2992.39
2988.29
2985.2
2983.13
2982.16
2982.34
2983.77
2986.53
2990.72
2996.45
3003.81
3012.9
3023.78
3036.53
3051.17
3067.72
3086.17
3106.47
3128.55
3152.31
3177.64
3204.36
3232.29
3261.31
3291.4
3325.2
3355.98
3386.35
3416.26
3445.4
3473.49
3500.24
3525.36
3548.56
3569.58
3588.15
3604.03
3617.02
3626.95
3633.7
3637.22
3637.48
3634.41
3628.05
3618.42
3605.71
3590.11
2993.14
2974.16
2956.77
2940.98
2926.82
2914.23
2903.19
2893.64
2885.53
2878.84
2873.53
2869.57
2866.95
2865.65
2865.68
2867.02
2869.72
2873.78
2879.24
2886.16
2894.57
2904.54
2916.12
2929.38
2944.38
2961.16
2979.77
3000.24
3022.57
3046.74
3072.72
3100.44
3129.77
3160.6
3192.72
3225.84
3259.75
3294.11
3328.56
3362.74
3396.22
3428.56
3459.34
3488.11
3514.51
3538.17
3558.73
3575.9
3589.44
3599.13
3604.86
3606.53
3603.91
3597.22
3586.54
3572.05
3553.94
3532.45
3507.93
3480.71
3451.17
3419.71
3386.74
3352.71
3318.02
3283.06
3248.22
3213.85
3180.37
3148.47
3117.51
3087.84
3059.69
3033.23
3008.55
2985.72
2964.79
2945.76
2928.65
2913.45
2900.13
2888.68
2879.04
2871.21
2865.13
2860.77
2858.07
2857.02
2857.55
2859.59
2863.1
2868.06
2874.42
2882.18
2891.32
2901.86
2913.82
2927.23
2942.14
2958.58
2976.6
2996.22
3017.46
3040.31
3064.76
3090.75
3118.19
3146.98
3176.98
3208.01
3239.85
3272.23
3304.87
3337.47
3369.7
3401.19
3431.57
3460.45
3487.43
3512.11
3534.11
3553.05
3568.61
3580.49
3588.46
3592.33
3591.99
3587.43
3578.72
3565.94
3549.29
3529.03
3505.46
3478.96
3449.92
3418.78
3385.98
3351.99
3317.26
3282.24
3247.35
3213
3179.54
3147.29
3116.51
3087.41
3060.15
3034.85
3011.54
2990.25
2970.97
2953.64
2938.2
2924.57
2912.68
2902.44
2893.78
2886.61
2880.89
2876.54
2873.51
2871.78
2871.31
2872.08
2874.07
2877.29
2881.74
2887.45
2894.44
2902.74
2912.36
2923.35
2935.73
2949.53
2964.8
2981.57
2999.87
3019.72
3041.13
3064.11
3088.61
3114.61
3142.01
3170.72
3200.57
3231.4
3263.01
3295.03
3327.2
3359.17
3390.58
3421.02
3450.04
3477.22
3502.09
3524.24
3543.27
3558.83
3570.64
3578.47
3582.15
3581.59
3576.78
3567.8
3554.78
3537.94
3517.57
3493.99
3467.61
3438.86
3408.19
3376.09
3343.02
3309.44
3275.79
3242.47
3209.85
3178.22
3147.85
3118.93
3091.62
3066.02
3042.2
3020.18
2999.97
2981.53
2964.83
2949.81
2936.41
2924.55
2914.19
2905.25
2897.69
2891.47
2886.55
2882.9
2880.51
2879.36
2879.43
2880.72
2883.23
2886.96
2891.91
2898.09
2905.52
2914.21
2924.19
2935.49
2948.16
2962.25
2977.81
2994.88
3013.49
3033.63
3055.3
3078.46
3103.05
3128.98
3156.15
3184.44
3213.69
3243.72
3274.34
3305.25
3336.16
3366.77
3396.72
3425.64
3453.12
3478.74
3502.07
3522.72
3540.3
3554.48
3564.96
3571.51
3573.96
3572.2
3566.19
3556.07
3541.97
3524.15
3502.88
3478.56
3451.61
3422.43
3391.47
3359.21
3326.11
3292.59
3259.01
3225.72
3199.86
3169.02
3139.64
3111.81
3085.68
3061.34
3038.83
3018.17
2999.35
2982.29
2966.95
2953.22
2941
2930.2
2920.69
2912.4
2905.22
2899.11
2894.01
2889.91
2886.81
2884.74
2883.74
2883.9
2885.3
2888.04
2892.2
2897.89
2905.23
2914.29
2925.15
2937.89
2952.51
2969.05
2987.5
3007.81
3029.91
3053.7
3079.06
3105.81
3133.78
3162.84
3192.95
3226.96
3257.79
3288.22
3318.2
3347.44
3375.62
3402.47
3427.68
3450.97
3472.08
3490.72
3506.68
3519.73
3529.7
3536.49
3540.03
3540.29
3537.21
3530.81
3521.14
3508.37
3492.71
2894.43
2875.47
2858.09
2842.33
2828.18
2815.62
2804.6
2795.06
2786.97
2780.3
2775
2771.05
2768.43
2767.13
2767.16
2768.5
2771.18
2775.23
2780.68
2787.58
2795.97
2805.91
2817.47
2830.7
2845.68
2862.44
2881.03
2901.48
2923.81
2947.98
2973.97
3001.7
3031.06
3061.93
3094.11
3127.3
3161.3
3195.76
3230.33
3264.64
3298.25
3330.75
3361.67
3390.59
3417.13
3440.92
3461.59
3478.87
3492.49
3502.24
3508.01
3509.7
3507.06
3500.33
3489.59
3475.01
3456.8
3435.19
3410.53
3383.17
3353.48
3321.88
3288.76
3254.59
3219.77
3184.7
3149.76
3115.3
3081.76
3049.8
3018.79
2989.09
2960.92
2934.44
2909.76
2886.93
2866.01
2846.99
2829.9
2814.71
2801.42
2789.98
2780.36
2772.54
2766.48
2762.13
2759.46
2758.42
2758.96
2761.02
2764.54
2769.5
2775.87
2783.63
2792.76
2803.29
2815.23
2828.63
2843.51
2859.94
2877.94
2897.54
2918.77
2941.62
2966.07
2992.07
3019.54
3048.36
3078.4
3109.49
3141.4
3173.85
3206.59
3239.29
3271.64
3303.26
3333.77
3362.79
3389.91
3414.73
3436.86
3455.94
3471.61
3483.58
3491.61
3495.52
3495.19
3490.61
3481.85
3468.99
3452.24
3431.85
3408.14
3381.49
3352.29
3320.99
3288.03
3253.89
3219.01
3183.86
3148.86
3114.41
3080.87
3048.54
3017.71
2988.59
2961.32
2936.01
2912.72
2891.45
2872.19
2854.89
2839.48
2825.89
2814.03
2803.82
2795.19
2788.05
2782.34
2778.01
2775
2773.28
2772.81
2773.58
2775.57
2778.79
2783.24
2788.94
2795.92
2804.21
2813.82
2824.79
2837.15
2850.94
2866.19
2882.94
2901.22
2921.06
2942.46
2965.43
2989.94
3015.95
3043.37
3072.11
3102.01
3132.89
3164.59
3196.7
3228.97
3261.07
3292.61
3323.19
3352.37
3379.7
3404.73
3427.02
3446.18
3461.85
3473.75
3481.64
3485.36
3484.8
3479.96
3470.92
3457.82
3440.87
3420.36
3396.64
3370.1
3341.19
3310.36
3278.09
3244.87
3211.16
3177.38
3143.96
3111.25
3079.56
3049.14
3020.19
2992.86
2967.26
2943.44
2921.43
2901.24
2882.83
2866.16
2851.16
2837.79
2825.96
2815.62
2806.7
2799.15
2792.95
2788.04
2784.4
2782.02
2780.87
2780.94
2782.23
2784.74
2788.46
2793.41
2799.59
2807.01
2815.69
2825.65
2836.94
2849.59
2863.65
2879.2
2896.25
2914.85
2934.99
2956.66
2979.83
3004.42
3030.37
3057.58
3085.9
3115.21
3145.3
3175.99
3206.98
3238
3268.72
3298.8
3327.86
3355.48
3381.24
3404.72
3425.5
3443.2
3457.49
3468.06
3474.67
3477.15
3475.4
3469.37
3459.18
3445
3427.07
3405.68
3381.22
3354.11
3324.77
3293.65
3261.24
3227.99
3194.35
3160.68
3127.33
3101.15
3070.29
3040.89
3013.05
2986.91
2962.57
2940.07
2919.43
2900.63
2883.61
2868.3
2854.61
2842.43
2831.66
2822.2
2813.93
2806.78
2800.68
2795.59
2791.49
2788.38
2786.29
2785.28
2785.4
2786.78
2789.49
2793.62
2799.28
2806.58
2815.61
2826.45
2839.16
2853.77
2870.31
2888.76
2909.08
2931.19
2955.01
2980.4
3007.19
3035.21
3064.3
3094.44
3128.71
3159.58
3190.09
3220.16
3249.49
3277.78
3304.74
3330.05
3353.45
3374.66
3393.4
3409.43
3422.55
3432.58
3439.41
3442.96
3443.23
3440.13
3433.69
3423.97
3411.15
3395.41
2795.64
2776.7
2759.34
2743.6
2729.48
2716.94
2705.94
2696.43
2688.36
2681.7
2676.41
2672.47
2669.86
2668.56
2668.58
2669.92
2672.59
2676.63
2682.06
2688.94
2697.3
2707.22
2718.75
2731.96
2746.9
2763.64
2782.21
2802.64
2824.96
2849.13
2875.12
2902.88
2932.27
2963.19
2995.43
3028.7
3062.79
3097.37
3132.08
3166.54
3200.31
3232.96
3264.05
3293.14
3319.83
3343.77
3364.58
3381.97
3395.69
3405.51
3411.31
3413.02
3410.36
3403.59
3392.78
3378.11
3359.78
3338.03
3313.23
3285.7
3255.85
3224.07
3190.8
3156.47
3121.51
3086.3
3051.25
3016.69
2983.1
2951.06
2920
2890.26
2862.06
2835.57
2810.88
2788.06
2767.15
2748.14
2731.06
2715.9
2702.62
2691.2
2681.6
2673.8
2667.77
2663.43
2660.78
2659.76
2660.32
2662.39
2665.93
2670.89
2677.27
2685.02
2694.15
2704.66
2716.59
2729.96
2744.83
2761.23
2779.2
2798.79
2820.01
2842.86
2867.31
2893.32
2920.82
2949.67
2979.76
3010.91
3042.9
3075.44
3108.28
3141.11
3173.58
3205.34
3236
3265.18
3292.46
3317.44
3339.73
3358.94
3374.74
3386.81
3394.92
3398.87
3398.56
3393.96
3385.13
3372.19
3355.32
3334.79
3310.92
3284.09
3254.72
3223.23
3190.1
3155.78
3120.75
3085.45
3050.32
3015.75
2982.11
2949.72
2918.84
2889.67
2862.39
2837.08
2813.8
2792.56
2773.33
2756.06
2740.69
2727.14
2715.32
2705.14
2696.54
2689.42
2683.74
2679.43
2676.44
2674.72
2674.27
2675.04
2677.03
2680.24
2684.69
2690.38
2697.35
2705.62
2715.21
2726.17
2738.51
2752.28
2767.51
2784.24
2802.51
2822.33
2843.72
2866.69
2891.2
2917.21
2944.66
2973.44
3003.39
3034.33
3066.14
3098.34
3130.73
3162.96
3194.66
3225.4
3254.75
3282.26
3307.46
3329.91
3349.22
3365.02
3377.01
3384.98
3388.73
3388.17
3383.3
3374.2
3361
3343.93
3323.27
3299.39
3272.67
3243.57
3212.56
3180.11
3146.72
3112.85
3078.94
3045.4
3012.59
2980.83
2950.35
2921.37
2894.02
2868.41
2844.6
2822.61
2802.43
2784.05
2767.41
2752.45
2739.1
2727.3
2716.99
2708.09
2700.57
2694.37
2689.48
2685.85
2683.48
2682.33
2682.41
2683.7
2686.2
2689.92
2694.86
2701.04
2708.45
2717.11
2727.06
2738.32
2750.95
2765
2780.52
2797.56
2816.14
2836.28
2857.95
2881.12
2905.74
2931.71
2958.94
2987.31
3016.67
3046.83
3077.6
3108.7
3139.82
3170.68
3200.9
3230.11
3257.9
3283.82
3307.47
3328.4
3346.24
3360.65
3371.31
3377.99
3380.51
3378.76
3372.7
3362.45
3348.18
3330.12
3308.59
3283.96
3256.68
3227.16
3195.86
3163.27
3129.86
3096.09
3062.32
3028.93
3002.33
2971.48
2942.05
2914.2
2888.05
2863.71
2841.23
2820.61
2801.84
2784.86
2769.59
2755.94
2743.81
2733.08
2723.65
2715.41
2708.29
2702.21
2697.12
2693.02
2689.91
2687.81
2686.78
2686.87
2688.21
2690.88
2694.97
2700.59
2707.86
2716.86
2727.67
2740.36
2754.96
2771.48
2789.93
2810.26
2832.39
2856.24
2881.67
2908.51
2936.58
2965.71
2995.86
3030.44
3061.36
3091.94
3122.12
3151.57
3179.97
3207.05
3232.49
3256
3277.32
3296.17
3312.3
3325.5
3335.59
3342.45
3346.03
3346.3
3343.18
3336.71
3326.93
3314.03
3298.21
2696.78
2677.85
2660.52
2644.8
2630.71
2618.2
2607.22
2597.73
2589.69
2583.04
2577.77
2573.84
2571.23
2569.94
2569.95
2571.28
2573.95
2577.97
2583.38
2590.24
2598.58
2608.46
2619.96
2633.14
2648.05
2664.76
2683.3
2703.72
2726.03
2750.2
2776.2
2803.97
2833.4
2864.37
2896.68
2930.04
2964.24
2998.95
3033.8
3068.43
3102.37
3135.21
3166.49
3195.75
3222.63
3246.73
3267.69
3285.21
3299.03
3308.93
3314.78
3316.5
3313.83
3307
3296.12
3281.34
3262.88
3240.98
3216.01
3188.3
3158.26
3126.3
3092.85
3058.34
3023.22
2987.87
2952.69
2918.02
2884.37
2852.25
2821.13
2791.34
2763.11
2736.6
2711.91
2689.1
2668.19
2649.21
2632.15
2617
2603.75
2592.35
2582.77
2575
2568.98
2564.67
2562.03
2561.04
2561.61
2563.7
2567.25
2572.23
2578.6
2586.35
2595.47
2605.98
2617.88
2631.23
2646.07
2662.45
2680.4
2699.97
2721.18
2744.02
2768.48
2794.5
2822.02
2850.92
2881.06
2912.27
2944.35
2977
3009.95
3042.91
3075.52
3107.44
3138.27
3167.62
3195.08
3220.24
3242.7
3262.08
3278.01
3290.2
3298.39
3302.39
3302.09
3297.47
3288.58
3275.53