/*--------------------------------*- C++ -*----------------------------------*\
| =========                 |                                                 |
| \\      /  F ield         | OpenFOAM: The Open Source CFD Toolbox           |
|  \\    /   O peration     | Version:  3.0.1                                 |
|   \\  /    A nd           | Web:      www.OpenFOAM.org                      |
|    \\/     M anipulation  |                                                 |
\*---------------------------------------------------------------------------*/
FoamFile
{
    version     2.0;
    format      ascii;
    class       surfaceScalarField;
    location    "59.2";
    object      phi;
}
// * * * * * * * * * * * * * * * * * * * * * * * * * * * * * * * * * * * * * //

dimensions      [0 3 -1 0 0 0 0];

internalField   nonuniform List<scalar> 
42423
(
-4.27159e-05
-1.4117e-05
-2.73242e-05
-1.53917e-05
-1.09512e-05
-1.63731e-05
6.34878e-06
-1.73e-05
2.44699e-05
-1.81212e-05
4.2979e-05
-1.85091e-05
6.20258e-05
-1.90469e-05
8.12449e-05
-1.92191e-05
0.000100266
-1.90212e-05
0.000119134
-1.88677e-05
0.000137497
-1.83631e-05
0.000155001
-1.75042e-05
0.000171449
-1.64481e-05
0.000186574
-1.5125e-05
0.000200112
-1.3538e-05
0.000211821
-1.17095e-05
0.000221465
-9.64394e-06
0.000228885
-7.41961e-06
0.000233941
-5.05658e-06
0.000236523
-2.58127e-06
0.000236588
-6.54765e-08
0.000234158
2.43057e-06
0.000228975
5.18215e-06
0.000221568
7.40744e-06
0.000211822
9.74646e-06
0.000200146
1.16752e-05
0.000186647
1.34992e-05
0.000171424
1.52227e-05
0.000154915
1.65093e-05
0.000137349
1.75656e-05
0.000119012
1.83371e-05
0.000100181
1.88311e-05
8.10505e-05
1.91307e-05
6.1891e-05
1.91594e-05
4.28778e-05
1.90132e-05
2.41777e-05
1.87001e-05
6.05498e-06
1.81228e-05
-1.13399e-05
1.73948e-05
-2.79977e-05
1.66578e-05
-4.38033e-05
1.58056e-05
-5.86934e-05
1.48901e-05
-7.25944e-05
1.39011e-05
-8.55111e-05
1.29167e-05
-9.74108e-05
1.18997e-05
-0.000108305
1.08947e-05
-0.00011822
9.91467e-06
-0.00012715
8.92982e-06
-0.000135139
7.989e-06
-0.000142232
7.09324e-06
-0.000148423
6.19114e-06
-0.000153758
5.335e-06
-0.000158297
4.53912e-06
-0.000161983
3.68602e-06
-0.000164925
2.94172e-06
-0.000167123
2.19767e-06
-0.000168548
1.42522e-06
-0.00016929
7.41956e-07
-0.000169256
-3.3788e-08
-0.000168436
-8.20609e-07
-0.000166851
-1.58482e-06
-0.000164428
-2.42286e-06
-0.000161307
-3.12052e-06
-0.000157384
-3.92312e-06
-0.000152614
-4.7703e-06
-0.000146996
-5.61822e-06
-0.000140672
-6.32404e-06
-0.000133397
-7.27517e-06
-0.000125308
-8.08849e-06
-0.000116259
-9.04882e-06
-0.00010624
-1.00197e-05
-9.5413e-05
-1.08266e-05
-8.36927e-05
-1.17204e-05
-7.10556e-05
-1.2637e-05
-5.77105e-05
-1.33452e-05
-4.3473e-05
-1.42375e-05
-2.85081e-05
-1.4965e-05
-1.28259e-05
-1.56822e-05
3.49225e-06
-1.63182e-05
2.03553e-05
-1.6863e-05
3.76946e-05
-1.73393e-05
5.5465e-05
-1.77704e-05
7.338e-05
-1.7915e-05
9.14535e-05
-1.80736e-05
0.000109363
-1.79093e-05
0.000127086
-1.7723e-05
0.000144325
-1.72392e-05
0.000160936
-1.66111e-05
0.0001766
-1.5664e-05
0.000191099
-1.44989e-05
0.0002041
-1.30006e-05
0.000215373
-1.12731e-05
0.000224671
-9.29835e-06
0.000231787
-7.11626e-06
0.000236561
-4.77414e-06
0.000238891
-2.32999e-06
0.000238763
1.2789e-07
0.000236141
2.62252e-06
0.000230969
5.17195e-06
0.000223433
7.53598e-06
0.000213662
9.7711e-06
0.000201818
1.18436e-05
0.00018801
1.38084e-05
0.000172521
1.54883e-05
0.000155588
1.69338e-05
0.000137476
1.81115e-05
0.000118447
1.90295e-05
9.88107e-05
1.9636e-05
7.88393e-05
1.99714e-05
5.8832e-05
2.00073e-05
3.90057e-05
1.98263e-05
1.95855e-05
1.94202e-05
8.64811e-07
1.87207e-05
-1.70741e-05
1.79389e-05
-3.41018e-05
1.70277e-05
-5.00571e-05
1.59553e-05
-6.49161e-05
1.48591e-05
-7.86593e-05
1.37432e-05
-9.12326e-05
1.25734e-05
-0.000102661
1.14286e-05
-0.000113012
1.03505e-05
-0.000122226
9.2139e-06
-0.000130378
8.15232e-06
-0.000137504
7.12645e-06
-0.000143722
6.21753e-06
-0.00014893
5.20772e-06
-0.000153367
4.43711e-06
-0.000156874
3.50709e-06
-0.000159642
2.7682e-06
-0.000161585
1.94289e-06
-0.000162853
1.26765e-06
-0.000163414
5.61935e-07
-0.000163351
-6.38998e-08
-0.000162676
-6.74117e-07
-0.00016141
-1.26611e-06
-0.000159574
-1.83603e-06
-0.000157171
-2.40328e-06
-0.000154217
-2.9543e-06
-0.000150643
-3.57346e-06
-0.000146551
-4.09242e-06
-0.000141745
-4.80588e-06
-0.00013644
-5.30473e-06
-0.0001304
-6.04033e-06
-0.00012383
-6.57022e-06
-0.000116495
-7.33433e-06
-0.000108423
-8.07256e-06
-9.95322e-05
-8.8907e-06
-8.99537e-05
-9.57844e-06
-7.95125e-05
-1.04412e-05
-6.82355e-05
-1.1277e-05
-5.60473e-05
-1.21882e-05
-4.31517e-05
-1.28956e-05
-2.93751e-05
-1.37766e-05
-1.48172e-05
-1.45579e-05
4.73141e-07
-1.52904e-05
1.64039e-05
-1.59308e-05
3.28467e-05
-1.64427e-05
4.97109e-05
-1.68642e-05
6.6785e-05
-1.70741e-05
8.39237e-05
-1.71387e-05
0.000100895
-1.69711e-05
0.000117501
-1.66059e-05
0.000133413
-1.59125e-05
0.000148437
-1.50241e-05
0.000162361
-1.39243e-05
0.000174864
-1.2503e-05
0.000185775
-1.09109e-05
0.000194809
-9.03338e-06
0.000201767
-6.95824e-06
0.000206473
-4.70632e-06
0.000208765
-2.29181e-06
0.000208603
1.62197e-07
0.000205902
2.70039e-06
0.000200659
5.24307e-06
0.00019304
7.61902e-06
0.000183187
9.85374e-06
0.000171291
1.18953e-05
0.000157539
1.3752e-05
0.00014223
1.53088e-05
0.000125619
1.66111e-05
0.000107973
1.76462e-05
8.95967e-05
1.83765e-05
7.07469e-05
1.88498e-05
5.17467e-05
1.90002e-05
3.28315e-05
1.89152e-05
1.42359e-05
1.85956e-05
-3.83004e-06
1.80659e-05
-2.1224e-05
1.73939e-05
-3.78034e-05
1.65795e-05
-5.36061e-05
1.58027e-05
-6.83597e-05
1.47536e-05
-8.21207e-05
1.3761e-05
-9.487e-05
1.27493e-05
-0.000106553
1.16828e-05
-0.00011718
1.06275e-05
-0.000126877
9.69687e-06
-0.000135537
8.66024e-06
-0.000143235
7.69734e-06
-0.000150015
6.78005e-06
-0.000155902
5.8873e-06
-0.000160993
5.09039e-06
-0.000165238
4.24551e-06
-0.000168771
3.53305e-06
-0.000171667
2.89561e-06
-0.000173846
2.17967e-06
-0.000175443
1.59667e-06
-0.000176423
9.79723e-07
-0.000176836
4.13379e-07
-0.000176839
2.74067e-09
-0.000176269
-5.69693e-07
-0.000175211
-1.05774e-06
-0.00017363
-1.58099e-06
-0.000171513
-2.11704e-06
-0.000168815
-2.69813e-06
-0.000165497
-3.31816e-06
-0.00016157
-3.92666e-06
-0.000156946
-4.62444e-06
-0.000151756
-5.18999e-06
-0.000145787
-5.96902e-06
-0.000139106
-6.68129e-06
-0.000131647
-7.45874e-06
-0.000123408
-8.23915e-06
-0.000114365
-9.04311e-06
-0.000104446
-9.91839e-06
-9.3797e-05
-1.06493e-05
-8.22658e-05
-1.15312e-05
-6.99079e-05
-1.23579e-05
-5.67316e-05
-1.31763e-05
-4.27419e-05
-1.39897e-05
-2.7998e-05
-1.47439e-05
-1.25487e-05
-1.54493e-05
3.40463e-06
-1.59533e-05
1.98988e-05
-1.64941e-05
3.67242e-05
-1.68255e-05
5.37255e-05
-1.70013e-05
7.07077e-05
-1.69822e-05
8.7434e-05
-1.67263e-05
0.000103673
-1.62387e-05
0.000119177
-1.5504e-05
0.00013372
-1.45437e-05
0.000146954
-1.32338e-05
0.000158728
-1.17741e-05
0.00016876
-1.00321e-05
0.000176833
-8.07309e-06
0.000182769
-5.93569e-06
0.000186367
-3.59804e-06
0.00018756
-1.19274e-06
0.000186324
1.23624e-06
0.00018257
3.75327e-06
0.000176399
6.17185e-06
0.000167937
8.46165e-06
0.000157305
1.06322e-05
0.000144757
1.2548e-05
0.000130512
1.4245e-05
0.00011485
1.56612e-05
9.80367e-05
1.68137e-05
8.03122e-05
1.77246e-05
6.20559e-05
1.82563e-05
4.34797e-05
1.85762e-05
2.48427e-05
1.8637e-05
6.38253e-06
1.84601e-05
-1.1703e-05
1.80855e-05
-2.92341e-05
1.75311e-05
-4.6059e-05
1.6825e-05
-6.20406e-05
1.59815e-05
-7.71385e-05
1.50979e-05
-9.13e-05
1.41615e-05
-0.00010438
1.30799e-05
-0.000116425
1.20448e-05
-0.00012742
1.09951e-05
-0.000137308
9.8885e-06
-0.000146099
8.79095e-06
-0.000153852
7.7524e-06
-0.000160669
6.81756e-06
-0.000166413
5.74375e-06
-0.000171187
4.77352e-06
-0.000175036
3.8499e-06
-0.000177911
2.87473e-06
-0.000179906
1.99506e-06
-0.000181017
1.11095e-06
-0.000181231
2.13808e-07
-0.000180651
-5.80381e-07
-0.000179178
-1.4729e-06
-0.000177136
-2.04157e-06
-0.000174448
-2.68795e-06
-0.000171216
-3.23206e-06
-0.000167722
-3.49414e-06
-0.000163788
-3.93447e-06
-0.000159561
-4.22667e-06
-0.000155117
-4.44346e-06
-0.00015028
-4.83716e-06
-0.000145209
-5.07091e-06
-0.00013986
-5.3492e-06
-0.00013411
-5.75035e-06
-0.000127824
-6.2856e-06
-0.000121144
-6.67981e-06
-0.000113625
-7.51943e-06
-0.000105342
-8.28284e-06
-9.63394e-05
-9.00275e-06
-8.63202e-05
-1.00192e-05
-7.53793e-05
-1.09409e-05
-6.3299e-05
-1.20803e-05
-5.00809e-05
-1.32181e-05
-3.59768e-05
-1.41041e-05
-2.0743e-05
-1.52339e-05
-4.52481e-06
-1.62182e-05
1.2365e-05
-1.68898e-05
2.99618e-05
-1.75968e-05
4.79284e-05
-1.79666e-05
6.61364e-05
-1.8208e-05
8.43658e-05
-1.82294e-05
0.000102182
-1.78167e-05
0.000119417
-1.72347e-05
0.000135794
-1.6377e-05
0.000150912
-1.51182e-05
0.000164643
-1.37306e-05
0.000176676
-1.20331e-05
0.000186828
-1.01523e-05
0.000194934
-8.10524e-06
0.000200779
-5.8453e-06
0.000204375
-3.59608e-06
0.000205635
-1.25976e-06
0.000204415
1.2195e-06
0.000200845
3.56964e-06
0.000194973
5.87198e-06
0.000187156
7.81745e-06
0.000177465
9.69051e-06
0.000166176
1.12897e-05
0.00015348
1.26963e-05
0.000139645
1.38348e-05
0.000124872
1.47725e-05
0.000109447
1.54256e-05
9.35323e-05
1.59143e-05
7.73829e-05
1.61494e-05
6.11668e-05
1.62161e-05
4.50191e-05
1.61476e-05
2.90973e-05
1.59218e-05
1.34719e-05
1.56255e-05
-1.73849e-06
1.52103e-05
-1.65036e-05
1.47651e-05
-3.07959e-05
1.42923e-05
-4.45359e-05
1.374e-05
-5.76655e-05
1.31296e-05
-7.01842e-05
1.25187e-05
-8.2034e-05
1.18498e-05
-9.32289e-05
1.11949e-05
-0.00010372
1.04908e-05
-0.000113475
9.75525e-06
-0.000122503
9.02803e-06
-0.000130759
8.25634e-06
-0.000138221
7.46163e-06
-0.000144883
6.66199e-06
-0.000150731
5.84789e-06
-0.00015576
5.02887e-06
-0.000159951
4.19171e-06
-0.000163295
3.34381e-06
-0.000165801
2.50608e-06
1.66725e-06
-4.27512e-05
-2.82366e-05
-2.73581e-05
-3.07848e-05
-1.09909e-05
-3.27404e-05
6.32309e-06
-3.46141e-05
2.44486e-05
-3.62468e-05
4.29635e-05
-3.70241e-05
6.2019e-05
-3.81023e-05
8.12554e-05
-3.84555e-05
0.000100299
-3.80649e-05
0.000119175
-3.7744e-05
0.00013754
-3.67282e-05
0.000155059
-3.50232e-05
0.000171518
-3.29075e-05
0.00018666
-3.02668e-05
0.000200218
-2.70959e-05
0.000211949
-2.34406e-05
0.000221614
-1.93086e-05
0.000229042
-1.48478e-05
0.000234085
-1.00999e-05
0.00023666
-5.15615e-06
0.000236719
-1.24419e-07
0.000234277
4.87263e-06
0.000229097
1.03621e-05
0.000221682
1.48228e-05
0.000211928
1.94998e-05
0.000200242
2.33617e-05
0.000186734
2.70067e-05
0.000171499
3.04579e-05
0.000154981
3.30273e-05
0.000137397
3.51498e-05
0.000119045
3.66889e-05
0.000100201
3.76753e-05
8.10637e-05
3.82678e-05
6.18942e-05
3.83289e-05
4.28733e-05
3.80341e-05
2.41728e-05
3.74006e-05
6.03373e-06
3.62618e-05
-1.13634e-05
3.4792e-05
-2.80284e-05
3.33228e-05
-4.384e-05
3.16172e-05
-5.87348e-05
2.97849e-05
-7.26406e-05
2.78069e-05
-8.55574e-05
2.58335e-05
-9.74575e-05
2.37997e-05
-0.000108353
2.17906e-05
-0.000118271
1.98324e-05
-0.000127203
1.7862e-05
-0.000135195
1.59804e-05
-0.000142286
1.41849e-05
-0.000148478
1.23833e-05
-0.000153815
1.06712e-05
-0.000158348
9.0723e-06
-0.000162043
7.38093e-06
-0.000164993
5.89215e-06
-0.000167184
4.38845e-06
-0.00016861
2.85161e-06
-0.000169352
1.48405e-06
-0.000169322
-6.41024e-08
-0.000168498
-1.6446e-06
-0.000166917
-3.16644e-06
-0.000164495
-4.84451e-06
-0.000161373
-6.2423e-06
-0.000157451
-7.84538e-06
-0.000152684
-9.53708e-06
-0.000147071
-1.1231e-05
-0.000140744
-1.26518e-05
-0.000133466
-1.45533e-05
-0.00012537
-1.61843e-05
-0.000116318
-1.81003e-05
-0.000106301
-2.00372e-05
-9.54755e-05
-2.1652e-05
-8.37522e-05
-2.34437e-05
-7.11097e-05
-2.52795e-05
-5.77647e-05
-2.66902e-05
-4.35242e-05
-2.84779e-05
-2.85526e-05
-2.99366e-05
-1.28846e-05
-3.13502e-05
3.45414e-06
-3.2657e-05
2.03219e-05
-3.37309e-05
3.76707e-05
-3.46881e-05
5.5449e-05
-3.55487e-05
7.33719e-05
-3.5838e-05
9.14607e-05
-3.61624e-05
0.000109384
-3.58328e-05
0.000127122
-3.5461e-05
0.000144373
-3.44901e-05
0.000160999
-3.32376e-05
0.00017668
-3.13442e-05
0.000191215
-2.90338e-05
0.000204225
-2.60113e-05
0.000215501
-2.25493e-05
0.00022481
-1.86071e-05
0.000231934
-1.42404e-05
0.000236714
-9.55379e-06
0.000239057
-4.6732e-06
0.000238912
2.73297e-07
0.000236257
5.27756e-06
0.000231075
1.03538e-05
0.000223533
1.50782e-05
0.000213755
1.95489e-05
0.000201905
2.36937e-05
0.000188076
2.76372e-05
0.000172581
3.09833e-05
0.000155635
3.38795e-05
0.000137507
3.62393e-05
0.000118463
3.80736e-05
9.88152e-05
3.92839e-05
7.88229e-05
3.99637e-05
5.8799e-05
4.00312e-05
3.89712e-05
3.96542e-05
1.95327e-05
3.88587e-05
7.94844e-07
3.74585e-05
-1.71514e-05
3.58852e-05
-3.41784e-05
3.40547e-05
-5.01468e-05
3.19238e-05
-6.50178e-05
2.97301e-05
-7.87658e-05
2.74911e-05
-9.13474e-05
2.51549e-05
-0.00010278
2.28611e-05
-0.00011313
2.07008e-05
-0.000122346
1.84301e-05
-0.000130497
1.63027e-05
-0.000137625
1.42548e-05
-0.000143848
1.24406e-05
-0.000149057
1.04162e-05
-0.000153505
8.8859e-06
-0.000157017
7.01861e-06
-0.000159781
5.53268e-06
-0.000161733
3.89454e-06
-0.000162994
2.52822e-06
-0.000163566
1.13414e-06
-0.000163507
-1.22757e-07
-0.000162804
-1.37758e-06
-0.000161564
-2.50526e-06
-0.000159735
-3.66559e-06
-0.000157338
-4.79991e-06
-0.000154384
-5.9086e-06
-0.000150824
-7.13336e-06
-0.000146723
-8.19314e-06
-0.000141974
-9.55482e-06
-0.000136629
-1.06498e-05
-0.00013062
-1.20495e-05
-0.000124008
-1.31819e-05
-0.000116673
-1.46699e-05
-0.000108587
-1.61585e-05
-9.97457e-05
-1.77319e-05
-9.01233e-05
-1.92008e-05
-7.96803e-05
-2.08843e-05
-6.84039e-05
-2.25535e-05
-5.62132e-05
-2.43789e-05
-4.33123e-05
-2.57965e-05
-2.95312e-05
-2.75578e-05
-1.49624e-05
-2.91267e-05
3.29636e-07
-3.05825e-05
1.62778e-05
-3.1879e-05
3.27429e-05
-3.29079e-05
4.9619e-05
-3.37403e-05
6.67085e-05
-3.41637e-05
8.38703e-05
-3.43005e-05
0.000100854
-3.39548e-05
0.000117458
-3.32094e-05
0.000133399
-3.18543e-05
0.000148441
-3.0066e-05
0.000162381
-2.78646e-05
0.000174907
-2.50283e-05
0.000185818
-2.18224e-05
0.000194862
-1.80775e-05
0.000201835
-1.39306e-05
0.000206557
-9.42822e-06
0.000208865
-4.60004e-06
0.000208692
3.35065e-07
0.000205982
5.41036e-06
0.000200748
1.04766e-05
0.000193131
1.52361e-05
0.000183267
1.9718e-05
0.000171355
2.38068e-05
0.000157588
2.75198e-05
0.000142269
3.06278e-05
0.000125651
3.32291e-05
0.000107989
3.53081e-05
8.95929e-05
3.67723e-05
7.07304e-05
3.77123e-05
5.17168e-05
3.80138e-05
3.27882e-05
3.78438e-05
1.41848e-05
3.7199e-05
-3.89302e-06
3.61437e-05
-2.13062e-05
3.4807e-05
-3.79098e-05
3.31832e-05
-5.36926e-05
3.15855e-05
-6.8462e-05
2.95229e-05
-8.22318e-05
2.75309e-05
-9.49893e-05
2.55068e-05
-0.000106675
2.33687e-05
-0.000117314
2.12659e-05
-0.000127
1.93832e-05
-0.000135669
1.73293e-05
-0.000143366
1.53944e-05
-0.000150149
1.35636e-05
-0.000156045
1.17826e-05
-0.000161132
1.01779e-05
-0.000165381
8.49393e-06
-0.00016891
7.0622e-06
-0.000171815
5.80118e-06
-0.000174006
4.37057e-06
-0.000175605
3.19489e-06
-0.000176587
1.96238e-06
-0.000176994
8.19752e-07
-0.000176993
2.41934e-09
-0.00017643
-1.13295e-06
-0.000175377
-2.11073e-06
-0.000173796
-3.16212e-06
-0.000171685
-4.22825e-06
-0.000168983
-5.39986e-06
-0.000165673
-6.62804e-06
-0.000161748
-7.85215e-06
-0.000157131
-9.24084e-06
-0.000151935
-1.03866e-05
-0.000145963
-1.19411e-05
-0.000139281
-1.33629e-05
-0.000131827
-1.49131e-05
-0.000123583
-1.64832e-05
-0.000114535
-1.80912e-05
-0.000104613
-1.98397e-05
-9.39632e-05
-2.12994e-05
-8.24267e-05
-2.30677e-05
-7.00534e-05
-2.47313e-05
-5.6878e-05
-2.63517e-05
-4.28794e-05
-2.79883e-05
-2.80928e-05
-2.95306e-05
-1.26962e-05
-3.08459e-05
3.30139e-06
-3.19509e-05
1.97954e-05
-3.29881e-05
3.66392e-05
-3.36693e-05
5.36583e-05
-3.40204e-05
7.06611e-05
-3.39851e-05
8.74029e-05
-3.34681e-05
0.000103658
-3.24941e-05
0.000119177
-3.10233e-05
0.000133721
-2.90868e-05
0.00014698
-2.64933e-05
0.000158771
-2.35648e-05
0.000168823
-2.00842e-05
0.00017691
-1.616e-05
0.000182863
-1.18896e-05
0.000186465
-7.20009e-06
0.000187661
-2.38831e-06
0.000186409
2.4884e-06
0.000182653
7.50882e-06
0.000176478
1.23467e-05
0.000167999
1.69411e-05
0.000157364
2.12675e-05
0.000144813
2.50986e-05
0.000130541
2.85168e-05
0.000114862
3.13402e-05
9.80374e-05
3.36384e-05
8.02975e-05
3.54644e-05
6.20193e-05
3.65346e-05
4.34228e-05
3.71727e-05
2.47758e-05
3.7284e-05
6.31156e-06
3.69243e-05
-1.17844e-05
3.61815e-05
-2.93254e-05
3.5072e-05
-4.61533e-05
3.36529e-05
-6.21363e-05
3.19646e-05
-7.72222e-05
3.01838e-05
-9.13829e-05
2.83223e-05
-0.000104468
2.61647e-05
-0.000116511
2.40882e-05
-0.000127499
2.19833e-05
-0.000137387
1.97764e-05
-0.000146181
1.75849e-05
-0.000153927
1.54984e-05
-0.000160739
1.36298e-05
-0.000166487
1.14909e-05
-0.000171255
9.54221e-06
-0.000175103
7.69751e-06
-0.000177976
5.74757e-06
-0.000179981
4.00084e-06
-0.000181093
2.22257e-06
-0.000181301
4.2208e-07
-0.000180716
-1.16542e-06
-0.000179242
-2.94716e-06
-0.000177194
-4.0892e-06
-0.0001745
-5.38213e-06
-0.000171264
-6.46806e-06
-0.000167771
-6.9876e-06
-0.000163839
-7.86633e-06
-0.000159602
-8.46326e-06
-0.000155158
-8.88752e-06
-0.00015032
-9.67555e-06
-0.00014525
-1.01412e-05
-0.000139905
-1.06937e-05
-0.000134156
-1.14994e-05
-0.000127873
-1.25684e-05
-0.000121201
-1.33524e-05
-0.000113683
-1.50368e-05
-0.000105402
-1.65643e-05
-9.64013e-05
-1.80034e-05
-8.63838e-05
-2.00367e-05
-7.54447e-05
-2.18801e-05
-6.33625e-05
-2.41625e-05
-5.01409e-05
-2.64398e-05
-3.60343e-05
-2.82107e-05
-2.07955e-05
-3.04727e-05
-4.57121e-06
-3.24425e-05
1.23305e-05
-3.37916e-05
2.99384e-05
-3.52048e-05
4.79152e-05
-3.59434e-05
6.61386e-05
-3.64315e-05
8.4384e-05
-3.64747e-05
0.00010221
-3.56426e-05
0.000119459
-3.44835e-05
0.00013585
-3.27688e-05
0.000150985
-3.02528e-05
0.000164725
-2.74708e-05
0.00017677
-2.40782e-05
0.00018693
-2.03117e-05
0.000195043
-1.62192e-05
0.000200895
-1.16964e-05
0.000204494
-7.19539e-06
0.00020576
-2.52611e-06
0.000204528
2.45135e-06
0.000200954
7.1441e-06
0.000195076
1.17497e-05
0.000187253
1.56409e-05
0.00017755
1.93928e-05
0.000166248
2.25922e-05
0.000153544
2.53996e-05
0.000139698
2.76812e-05
0.000124915
2.9556e-05
0.000109479
3.08613e-05
9.35564e-05
3.18367e-05
7.73971e-05
3.23088e-05
6.11728e-05
3.24404e-05
4.50179e-05
3.23025e-05
2.90898e-05
3.18499e-05
1.34587e-05
3.12566e-05
-1.7531e-06
3.04221e-05
-1.65207e-05
2.95327e-05
-3.0816e-05
2.85876e-05
-4.4558e-05
2.7482e-05
-5.76903e-05
2.62618e-05
-7.02116e-05
2.504e-05
-8.20637e-05
2.3702e-05
-9.32607e-05
2.23918e-05
-0.000103752
2.09819e-05
-0.000113506
1.95097e-05
-0.000122535
1.80566e-05
-0.000130794
1.65154e-05
-0.000138256
1.49241e-05
-0.000144918
1.33231e-05
-0.000150763
1.16937e-05
-0.000155791
1.0056e-05
-0.000159985
8.38642e-06
-0.00016333
6.6888e-06
-0.000165837
5.01321e-06
3.33153e-06
-4.28201e-05
-4.23631e-05
-2.74236e-05
-4.61814e-05
-1.10678e-05
-4.90962e-05
6.27753e-06
-5.19595e-05
2.44162e-05
-5.43855e-05
4.29524e-05
-5.55603e-05
6.20283e-05
-5.71782e-05
8.12909e-05
-5.77182e-05
0.000100353
-5.71271e-05
0.000119254
-5.66447e-05
0.000137648
-5.51225e-05
0.000155198
-5.25735e-05
0.000171683
-4.93921e-05
0.00018685
-4.54346e-05
0.000200427
-4.06721e-05
0.000212163
-3.51771e-05
0.000221829
-2.89744e-05
0.000229263
-2.22825e-05
0.000234317
-1.51531e-05
0.000236902
-7.74183e-06
0.000236937
-1.59133e-07
0.000234461
7.34859e-06
0.000229288
1.55353e-05
0.000221852
2.22586e-05
0.000212087
2.92642e-05
0.000200381
3.5068e-05
0.000186861
4.05266e-05
0.000171607
4.57122e-05
0.000155083
4.9551e-05
0.000137462
5.27712e-05
0.000119083
5.50676e-05
0.000100215
5.65432e-05
8.10685e-05
5.74143e-05
6.18821e-05
5.75153e-05
4.28487e-05
5.70675e-05
2.4161e-05
5.60882e-05
5.98685e-06
5.4436e-05
-1.14237e-05
5.22025e-05
-2.81003e-05
4.99994e-05
-4.39187e-05
4.74356e-05
-5.88182e-05
4.46844e-05
-7.27263e-05
4.17151e-05
-8.56463e-05
3.87534e-05
-9.75488e-05
3.57022e-05
-0.000108444
3.26858e-05
-0.000118364
2.97527e-05
-0.000127296
2.67934e-05
-0.000135292
2.39766e-05
-0.00014238
2.12736e-05
-0.00014857
1.85726e-05
-0.000153902
1.6003e-05
-0.000158427
1.35979e-05
-0.000162126
1.10797e-05
-0.000165087
8.8532e-06
-0.000167271
6.57203e-06
-0.000168695
4.27649e-06
-0.000169431
2.21922e-06
-0.000169388
-1.06388e-07
-0.000168554
-2.47898e-06
-0.000166978
-4.74268e-06
-0.000164557
-7.2649e-06
-0.000161434
-9.36611e-06
-0.000157523
-1.17558e-05
-0.000152755
-1.43049e-05
-0.000147145
-1.68417e-05
-0.000140815
-1.89813e-05
-0.000133534
-2.18346e-05
-0.000125431
-2.42866e-05
-0.000116377
-2.71549e-05
-0.000106368
-3.00465e-05
-9.55448e-05
-3.24748e-05
-8.38183e-05
-3.51702e-05
-7.11777e-05
-3.79201e-05
-5.78303e-05
-4.00377e-05
-4.35829e-05
-4.27253e-05
-2.86151e-05
-4.49045e-05
-1.29671e-05
-4.69982e-05
3.39519e-06
-4.90193e-05
2.02697e-05
-5.06054e-05
3.76326e-05
-5.20511e-05
5.54216e-05
-5.33377e-05
7.3357e-05
-5.37734e-05
9.14553e-05
-5.42608e-05
0.000109394
-5.37719e-05
0.000127153
-5.32196e-05
0.000144418
-5.1755e-05
0.000161063
-4.98823e-05
0.00017677
-4.70515e-05
0.000191335
-4.35989e-05
0.000204349
-3.90255e-05
0.000215646
-3.38461e-05
0.000224962
-2.79231e-05
0.000232103
-2.13821e-05
0.000236872
-1.43223e-05
0.00023921
-7.0113e-06
0.000239041
4.42194e-07
0.000236355
7.96306e-06
0.000231171
1.55381e-05
0.000223613
2.26366e-05
0.000213813
2.93485e-05
0.000201907
3.55994e-05
0.000188092
4.14524e-05
0.000172581
4.64946e-05
0.000155615
5.08458e-05
0.000137469
5.43853e-05
0.000118398
5.71439e-05
9.87165e-05
5.89658e-05
7.87006e-05
5.99796e-05
5.86545e-05
6.00773e-05
3.88159e-05
5.94928e-05
1.93564e-05
5.83182e-05
5.97016e-07
5.62179e-05
-1.73671e-05
5.38493e-05
-3.4397e-05
5.10845e-05
-5.03735e-05
4.79003e-05
-6.52493e-05
4.46059e-05
-7.89927e-05
4.12345e-05
-9.15895e-05
3.77517e-05
-0.000103018
3.42892e-05
-0.00011336
3.10433e-05
-0.000122573
2.7643e-05
-0.000130695
2.44248e-05
-0.000137836
2.13953e-05
-0.000144063
1.86678e-05
-0.000149317
1.56705e-05
-0.000153719
1.32878e-05
-0.000157238
1.05377e-05
-0.000159994
8.28906e-06
-0.000161943
5.84284e-06
-0.000163196
3.78098e-06
-0.000163779
1.71722e-06
-0.00016371
-1.90998e-07
-0.000162973
-2.11538e-06
-0.00016176
-3.71796e-06
-0.000159921
-5.50458e-06
-0.000157534
-7.18678e-06
-0.000154579
-8.86324e-06
-0.000151039
-1.06735e-05
-0.000146935
-1.22974e-05
-0.000142212
-1.42782e-05
-0.000136851
-1.60105e-05
-0.000130881
-1.80198e-05
-0.000124226
-1.98364e-05
-0.000116887
-2.20091e-05
-0.000108752
-2.42932e-05
-9.9976e-05
-2.65083e-05
-9.03219e-05
-2.88549e-05
-7.98948e-05
-3.13114e-05
-6.86131e-05
-3.38352e-05
-5.64826e-05
-3.65094e-05
-4.35273e-05
-3.87518e-05
-2.97433e-05
-4.13418e-05
-1.51701e-05
-4.36999e-05
1.32397e-07
-4.5885e-05
1.6101e-05
-4.78476e-05
3.2584e-05
-4.93909e-05
4.9481e-05
-5.06373e-05
6.659e-05
-5.12727e-05
8.37637e-05
-5.14743e-05
0.000100776
-5.09676e-05
0.00011738
-4.98134e-05
0.00013336
-4.78334e-05
0.000148425
-4.51313e-05
0.000162361
-4.18005e-05
0.000174914
-3.75813e-05
0.000185834
-3.27428e-05
0.000194908
-2.71514e-05
0.000201913
-2.09354e-05
0.000206639
-1.41546e-05
0.000208956
-6.91693e-06
0.000208773
5.17598e-07
0.000206045
8.13839e-06
0.000200809
1.57131e-05
0.000193186
2.28587e-05
0.000183331
2.95729e-05
0.000171375
3.57636e-05
0.000157575
4.13192e-05
0.000142239
4.59638e-05
0.000125602
4.98666e-05
0.00010792
5.299e-05
8.9505e-05
5.5187e-05
7.06151e-05
5.66023e-05
5.15705e-05
5.70583e-05
3.26211e-05
5.67933e-05
1.39992e-05
5.58209e-05
-4.08456e-06
5.42275e-05
-2.15144e-05
5.22369e-05
-3.8142e-05
4.98107e-05
-5.38933e-05
4.73368e-05
-6.86804e-05
4.431e-05
-8.24488e-05
4.12992e-05
-9.52114e-05
3.82694e-05
-0.000106902
3.50593e-05
-0.000117546
3.191e-05
-0.00012719
2.9027e-05
-0.000135895
2.60344e-05
-0.000143592
2.30915e-05
-0.000150371
2.03428e-05
-0.000156261
1.76721e-05
-0.000161335
1.52525e-05
-0.000165591
1.27491e-05
-0.000169106
1.05772e-05
-0.000172017
8.71228e-06
-0.000174209
6.5628e-06
-0.000175802
4.78829e-06
-0.00017679
2.95005e-06
-0.000177248
1.27821e-06
-0.000177196
-5.0348e-08
-0.00017662
-1.70831e-06
-0.000175571
-3.1598e-06
-0.000173983
-4.75048e-06
-0.000171886
-6.32479e-06
-0.00016917
-8.11609e-06
-0.000165867
-9.93096e-06
-0.000161954
-1.17649e-05
-0.000157395
-1.37999e-05
-0.000152144
-1.56384e-05
-0.000146162
-1.79224e-05
-0.000139486
-2.0039e-05
-0.000132036
-2.23634e-05
-0.000123788
-2.47311e-05
-0.000114736
-2.71431e-05
-0.000104865
-2.97112e-05
-9.41751e-05
-3.19889e-05
-8.26361e-05
-3.46067e-05
-7.02579e-05
-3.71095e-05
-5.7083e-05
-3.95267e-05
-4.30753e-05
-4.19961e-05
-2.82586e-05
-4.43473e-05
-1.28897e-05
-4.62148e-05
3.1414e-06
-4.7982e-05
1.9646e-05
-4.94927e-05
3.65018e-05
-5.05252e-05
5.35352e-05
-5.10538e-05
7.05753e-05
-5.10253e-05
8.73209e-05
-5.02138e-05
0.0001036
-4.87731e-05
0.000119158
-4.65815e-05
0.000133698
-4.36268e-05
0.000146982
-3.97771e-05
0.00015879
-3.53731e-05
0.000168875
-3.01685e-05
0.000176958
-2.42431e-05
0.000182902
-1.78337e-05
0.000186535
-1.08338e-05
0.000187746
-3.59888e-06
0.000186478
3.75653e-06
0.000182714
1.12726e-05
0.00017653
1.85309e-05
0.000168027
2.54438e-05
0.000157387
3.19075e-05
0.000144815
3.76706e-05
0.000130511
4.28204e-05
0.000114816
4.70361e-05
9.79725e-05
5.04816e-05
8.02035e-05
5.32334e-05
6.19e-05
5.48381e-05
4.32878e-05
5.57848e-05
2.46249e-05
5.59469e-05
6.15252e-06
5.53967e-05
-1.19489e-05
5.42829e-05
-2.94876e-05
5.26108e-05
-4.63163e-05
5.04815e-05
-6.23019e-05
4.79501e-05
-7.73702e-05
4.52521e-05
-9.15264e-05
4.24785e-05
-0.000104614
3.92527e-05
-0.000116652
3.61257e-05
-0.000127633
3.29642e-05
-0.000137518
2.96619e-05
-0.000146305
2.63718e-05
-0.000154037
2.32297e-05
-0.000160831
2.0424e-05
-0.000166596
1.72563e-05
-0.000171353
1.42995e-05
-0.0001752
1.15441e-05
-0.000178066
8.61377e-06
-0.000180095
6.02933e-06
-0.000181191
3.31883e-06
-0.000181379
6.10641e-07
-0.000180787
-1.75812e-06
-0.000179305
-4.42895e-06
-0.00017725
-6.14417e-06
-0.000174543
-8.08866e-06
-0.0001713
-9.71123e-06
-0.000167806
-1.04818e-05
-0.000163883
-1.17893e-05
-0.000159629
-1.27173e-05
-0.000155184
-1.33328e-05
-0.000150346
-1.45134e-05
-0.000145279
-1.52086e-05
-0.00013994
-1.60324e-05
-0.000134194
-1.7245e-05
-0.000127918
-1.88449e-05
-0.000121258
-2.00124e-05
-0.000113747
-2.25481e-05
-0.000105467
-2.4844e-05
-9.64744e-05
-2.69958e-05
-8.64636e-05
-3.00475e-05
-7.55285e-05
-3.28151e-05
-6.34476e-05
-3.62434e-05
-5.02241e-05
-3.96633e-05
-3.61168e-05
-4.2318e-05
-2.08727e-05
-4.57169e-05
-4.64099e-06
-4.86742e-05
1.22826e-05
-5.07152e-05
2.99057e-05
-5.28279e-05
4.79035e-05
-5.39412e-05
6.61475e-05
-5.46755e-05
8.44179e-05
-5.47451e-05
0.000102267
-5.34922e-05
0.000119544
-5.17605e-05
0.000135962
-4.91862e-05
0.000151122
-4.54131e-05
0.000164887
-4.12358e-05
0.000176953
-3.61446e-05
0.000187131
-3.04892e-05
0.00019526
-2.43487e-05
0.000201126
-1.75619e-05
0.00020473
-1.08e-05
0.000205998
-3.79347e-06
0.000204719
3.72994e-06
0.000201123
1.07406e-05
0.000195233
1.76392e-05
0.000187398
2.34759e-05
0.000177676
2.91147e-05
0.000166348
3.39203e-05
0.000153635
3.8113e-05
0.000139769
4.15464e-05
0.000124968
4.43569e-05
0.000109517
4.63126e-05
9.3586e-05
4.77678e-05
7.74094e-05
4.84853e-05
6.11716e-05
4.86782e-05
4.50053e-05
4.84688e-05
2.90673e-05
4.77879e-05
1.34276e-05
4.68963e-05
-1.78942e-06
4.56391e-05
-1.65635e-05
4.43068e-05
-3.08642e-05
4.28882e-05
-4.46105e-05
4.12284e-05
-5.77454e-05
3.93967e-05
-7.0268e-05
3.75626e-05
-8.21209e-05
3.55549e-05
-9.33181e-05
3.35891e-05
-0.00010381
3.14739e-05
-0.000113565
2.92646e-05
-0.000122594
2.70852e-05
-0.000130852
2.47736e-05
-0.000138314
2.23859e-05
-0.000144975
1.9984e-05
-0.000150823
1.75418e-05
-0.000155852
1.50859e-05
-0.000160048
1.25825e-05
-0.000163395
1.00348e-05
-0.000165909
7.52793e-06
4.9904e-06
-4.29237e-05
-5.64995e-05
-2.75213e-05
-6.15839e-05
-1.11159e-05
-6.55016e-05
6.21016e-06
-6.92856e-05
2.43688e-05
-7.25443e-05
4.29351e-05
-7.41266e-05
6.20434e-05
-7.62866e-05
8.13442e-05
-7.70191e-05
0.000100445
-7.62275e-05
0.000119384
-7.55844e-05
0.000137815
-7.35536e-05
0.000155404
-7.01627e-05
0.00017192
-6.59073e-05
0.000187122
-6.0637e-05
0.000200725
-5.42757e-05
0.000212498
-4.69502e-05
0.000222184
-3.86596e-05
0.000229634
-2.9733e-05
0.000234694
-2.0213e-05
0.00023728
-1.03277e-05
0.000237269
-1.48502e-07
0.000234742
9.8757e-06
0.00022958
2.06974e-05
0.000222109
2.97295e-05
0.000212327
3.90464e-05
0.000200591
4.68041e-05
0.000187051
5.40657e-05
0.000171767
6.09963e-05
0.000155221
6.60975e-05
0.00013756
7.04322e-05
0.00011914
7.34871e-05
0.000100238
7.54459e-05
8.10754e-05
7.65765e-05
6.18636e-05
7.67272e-05
4.28107e-05
7.61203e-05
2.41425e-05
7.47564e-05
5.9201e-06
7.26583e-05
-1.15144e-05
6.9637e-05
-2.8209e-05
6.6694e-05
-4.40387e-05
6.32653e-05
-5.89451e-05
5.95907e-05
-7.2857e-05
5.5627e-05
-8.5781e-05
5.16774e-05
-9.76867e-05
4.7608e-05
-0.00010858
4.35793e-05
-0.000118505
3.96771e-05
-0.000127434
3.57224e-05
-0.00013543
3.19733e-05
-0.000142517
2.836e-05
-0.000148704
2.476e-05
-0.000154034
2.13322e-05
-0.000158551
1.81157e-05
-0.000162256
1.47842e-05
-0.000165215
1.18127e-05
-0.000167398
8.75454e-06
-0.000168819
5.69778e-06
-0.000169543
2.94295e-06
-0.000169488
-1.6132e-07
-0.000168641
-3.32608e-06
-0.000167073
-6.31073e-06
-0.000164655
-9.68319e-06
-0.000161531
-1.24901e-05
-0.000157636
-1.56502e-05
-0.000152866
-1.90751e-05
-0.000147256
-2.24519e-05
-0.000140924
-2.53136e-05
-0.000133638
-2.91203e-05
-0.000125521
-3.24033e-05
-0.000116459
-3.62171e-05
-0.000106464
-4.00411e-05
-9.5649e-05
-4.32901e-05
-8.39224e-05
-4.68969e-05
-7.12806e-05
-5.05618e-05
-5.79282e-05
-5.33902e-05
-4.36768e-05
-5.69767e-05
-2.87083e-05
-5.98731e-05
-1.30801e-05
-6.26264e-05
3.30593e-06
-6.54053e-05
2.01899e-05
-6.74894e-05
3.75714e-05
-6.94327e-05
5.53719e-05
-7.11383e-05
7.33231e-05
-7.17246e-05
9.14444e-05
-7.23821e-05
0.000109406
-7.17337e-05
0.000127186
-7.09989e-05
0.000144475
-6.90443e-05
0.000161136
-6.65436e-05
0.000176878
-6.27933e-05
0.000191433
-5.81543e-05
0.000204503
-5.20954e-05
0.000215834
-4.51767e-05
0.00022516
-3.725e-05
0.000232307
-2.85288e-05
0.000237077
-1.9092e-05
0.000239403
-9.33766e-06
0.000239199
6.46366e-07
0.000236475
1.06871e-05
0.000231282
2.07311e-05
0.000223703
3.0215e-05
0.000213882
3.91697e-05
0.000201944
4.75372e-05
0.000188101
5.5296e-05
0.000172559
6.20364e-05
0.000155562
6.7843e-05
0.000137384
7.25631e-05
0.000118278
7.62502e-05