/*--------------------------------*- C++ -*----------------------------------*\
| =========                 |                                                 |
| \\      /  F ield         | OpenFOAM: The Open Source CFD Toolbox           |
|  \\    /   O peration     | Version:  3.0.1                                 |
|   \\  /    A nd           | Web:      www.OpenFOAM.org                      |
|    \\/     M anipulation  |                                                 |
\*---------------------------------------------------------------------------*/
FoamFile
{
    version     2.0;
    format      ascii;
    class       volScalarField;
    location    "76.4";
    object      p;
}
// * * * * * * * * * * * * * * * * * * * * * * * * * * * * * * * * * * * * * //

dimensions      [1 -1 -2 0 0 0 0];

internalField   nonuniform List<scalar> 
21420
(
4090.15
4058.17
4025.22
3991.7
3958.19
3925.74
3894.85
3862.41
3830.76
3800.31
3771.3
3743.89
3718.19
3694.25
3672.12
3651.79
3633.27
3616.51
3601.49
3588.16
3576.47
3566.37
3557.83
3550.81
3545.27
3541.2
3538.63
3537.55
3537.89
3539.72
3543.07
3547.97
3554.47
3562.6
3572.41
3583.97
3597.31
3612.48
3629.52
3648.45
3669.29
3692.03
3716.62
3743.04
3771.16
3800.84
3831.94
3864.26
3897.34
3930.94
3965.14
3999.44
4033.45
4066.78
4099.03
4129.84
4158.81
4185.59
4209.85
4231.28
4249.61
4264.6
4276.05
4283.81
4287.77
4287.67
4283.65
4275.75
4264.02
4248.64
4229.79
4207.71
4182.68
4155.03
4125.14
4093.42
4060.26
4026.08
3991.29
3956.31
3921.56
3887.27
3853.74
3821.27
3790.12
3760.51
3732.62
3706.59
3682.52
3660.49
3640.54
3622.67
3606.89
3593.16
3581.41
3571.58
3563.6
3557.36
3552.78
3549.77
3548.27
3548.21
3549.5
3552.13
3556.09
3561.37
3567.97
3575.92
3585.23
3595.95
3608.1
3621.71
3636.81
3653.44
3671.6
3691.31
3712.57
3735.38
3759.7
3785.49
3812.68
3841.17
3870.84
3901.56
3933.1
3965.24
3997.71
4030.19
4062.35
4093.82
4124.2
4153.08
4180.05
4204.7
4226.65
4245.52
4261.01
4272.83
4280.76
4284.63
4284.38
4279.97
4271.49
4259.01
4242.75
4222.93
4199.87
4173.93
4145.49
4114.99
4082.87
4049.58
4015.6
3981.34
3947.24
3913.68
3880.97
3849.43
3819.29
3790.74
3763.92
3738.92
3715.79
3694.52
3675.11
3657.51
3641.67
3627.52
3615.02
3604.09
3594.69
3586.76
3580.25
3575.12
3571.33
3568.84
3567.63
3567.7
3568.98
3571.5
3575.25
3580.23
3586.46
3593.95
3602.72
3612.8
3624.24
3637.05
3651.27
3666.96
3684.14
3702.84
3723.09
3744.88
3768.2
3793.01
3819.24
3846.8
3875.56
3905.35
3935.98
3967.21
3998.76
4030.34
4061.6
4092.18
4121.7
4149.76
4175.96
4199.9
4221.22
4239.58
4254.69
4266.28
4274.15
4278.12
4278.1
4274.06
4266.09
4254.22
4238.67
4219.68
4197.57
4172.71
4145.5
4116.38
4085.8
4054.18
4021.97
3989.55
3957.29
3925.54
3894.57
3864.64
3835.95
3808.66
3782.9
3758.76
3736.29
3715.52
3696.44
3679.06
3663.33
3649.21
3636.67
3625.65
3616.09
3607.96
3601.19
3595.73
3591.54
3588.57
3586.77
3586.12
3586.63
3588.22
3590.9
3594.68
3599.56
3605.54
3612.63
3620.87
3630.26
3640.85
3652.67
3665.74
3680.11
3695.8
3712.83
3731.2
3750.92
3771.98
3794.35
3817.98
3842.82
3868.77
3895.76
3923.66
3952.42
3982.33
4012.14
4041.85
4071.21
4099.88
4127.52
4153.77
4178.25
4200.61
4220.49
4237.56
4251.53
4262.13
4269.16
4272.46
4271.88
4267.42
4259.08
4247.05
4231.59
4212.95
4191.46
4167.49
4141.4
4113.62
4084.57
4054.65
4024.27
3993.81
3963.61
3934
3905.38
3878.49
3852.37
3827.39
3803.74
3781.5
3760.72
3741.39
3723.48
3706.94
3691.69
3677.68
3664.84
3653.09
3642.39
3632.7
3624
3616.27
3609.54
3603.83
3599.17
3595.62
3593.22
3592.07
3592.24
3593.78
3596.81
3601.37
3607.48
3615.2
3624.56
3635.58
3648.26
3662.6
3678.58
3696.17
3715.33
3735.99
3758.08
3781.54
3806.23
3832.02
3858.47
3877.05
3902.16
3928.38
3954.92
3992.08
3960.09
3927.12
3893.58
3860.06
3827.6
3796.69
3764.24
3732.58
3702.13
3673.11
3645.71
3620
3596.07
3573.94
3553.61
3535.09
3518.34
3503.32
3489.99
3478.3
3468.21
3459.67
3452.65
3447.11
3443.04
3440.47
3439.39
3439.73
3441.56
3444.91
3449.81
3456.3
3464.43
3474.24
3485.8
3499.14
3514.3
3531.34
3550.27
3571.11
3593.84
3618.44
3644.85
3672.98
3702.67
3733.77
3766.1
3799.19
3832.8
3867.01
3901.32
3935.35
3968.7
4000.97
4031.79
4060.78
4087.58
4111.85
4133.29
4151.63
4166.63
4178.09
4185.86
4189.82
4189.72
4185.7
4177.79
4166.06
4150.67
4131.81
4109.71
4084.66
4056.99
4027.09
3995.35
3962.17
3927.97
3893.17
3858.17
3823.41
3789.11
3755.57
3723.09
3691.94
3662.33
3634.43
3608.4
3584.33
3562.3
3542.35
3524.48
3508.7
3494.97
3483.23
3473.4
3465.42
3459.19
3454.61
3451.61
3450.11
3450.05
3451.34
3453.98
3457.94
3463.21
3469.81
3477.76
3487.07
3497.79
3509.93
3523.54
3538.64
3555.27
3573.42
3593.14
3614.4
3637.21
3661.53
3687.31
3714.5
3743
3772.68
3803.4
3834.95
3867.1
3899.58
3932.08
3964.25
3995.74
4026.13
4055.03
4082.02
4106.69
4128.65
4147.54
4163.04
4174.87
4182.82
4186.7
4186.43
4182.02
4173.54
4161.05
4144.77
4124.94
4101.87
4075.9
4047.45
4016.92
3984.78
3951.48
3917.48
3883.21
3849.09
3815.51
3782.8
3751.25
3721.11
3692.55
3665.73
3640.73
3617.6
3596.34
3576.93
3559.33
3543.49
3529.35
3516.85
3505.92
3496.52
3488.6
3482.09
3476.96
3473.18
3470.68
3469.48
3469.55
3470.83
3473.35
3477.09
3482.08
3488.3
3495.79
3504.56
3514.65
3526.07
3538.88
3553.11
3568.79
3585.97
3604.67
3624.92
3646.71
3670.02
3694.84
3721.07
3748.64
3777.4
3807.2
3837.84
3869.07
3900.64
3932.22
3963.5
3994.1
4023.64
4051.71
4077.93
4101.88
4123.22
4141.6
4156.72
4168.32
4176.2
4180.17
4180.15
4176.11
4168.13
4156.25
4140.69
4121.69
4099.56
4074.68
4047.45
4018.32
3987.71
3956.08
3923.85
3891.41
3859.15
3827.38
3796.4
3766.47
3737.77
3710.48
3684.72
3660.58
3638.11
3617.34
3598.27
3580.88
3565.16
3551.05
3538.51
3527.48
3517.93
3509.8
3503.03
3497.57
3493.39
3490.42
3488.62
3487.98
3488.49
3490.07
3492.76
3496.54
3501.41
3507.39
3514.49
3522.72
3532.11
3542.7
3554.52
3567.59
3581.95
3597.64
3614.67
3633.04
3652.76
3673.82
3696.19
3719.82
3744.66
3770.62
3797.61
3825.51
3854.28
3884.2
3914.02
3943.74
3973.11
4001.8
4029.45
4055.72
4080.22
4102.59
4122.49
4139.57
4153.55
4164.17
4171.2
4174.51
4173.94
4169.46
4161.12
4149.08
4133.6
4114.95
4093.45
4069.45
4043.35
4015.55
3986.48
3956.55
3926.15
3895.68
3865.46
3835.85
3807.22
3780.33
3754.2
3729.22
3705.57
3683.34
3662.56
3643.23
3625.32
3608.78
3593.54
3579.53
3566.69
3554.95
3544.25
3534.56
3525.86
3518.13
3511.4
3505.69
3501.03
3497.47
3495.07
3493.92
3494.08
3495.63
3498.65
3503.21
3509.32
3517.04
3526.4
3537.41
3550.09
3564.43
3580.41
3598
3617.16
3637.82
3659.92
3683.37
3708.06
3733.85
3760.3
3778.94
3804.04
3830.26
3856.81
3894.05
3862.02
3829.01
3795.45
3761.89
3729.42
3698.47
3666.01
3634.34
3603.87
3574.85
3547.44
3521.74
3497.8
3475.67
3455.36
3436.84
3420.09
3405.08
3391.75
3380.07
3369.98
3361.45
3354.43
3348.9
3344.83
3342.26
3341.17
3341.51
3343.34
3346.69
3351.58
3358.07
3366.19
3376
3387.55
3400.88
3416.05
3433.08
3452.01
3472.84
3495.57
3520.17
3546.59
3574.72
3604.42
3635.54
3667.88
3700.99
3734.62
3768.86
3803.19
3837.25
3870.63
3902.93
3933.79
3962.81
3989.64
4013.95
4035.42
4053.78
4068.8
4080.28
4088.05
4092.04
4091.92
4087.9
4079.98
4068.23
4052.83
4033.94
4011.81
3986.73
3959.03
3929.09
3897.31
3864.1
3829.86
3795.03
3760
3725.22
3690.9
3657.34
3624.85
3593.68
3564.06
3536.16
3510.12
3486.05
3464.02
3444.07
3426.21
3410.43
3396.71
3384.97
3375.15
3367.18
3360.96
3356.38
3353.38
3351.9
3351.84
3353.13
3355.77
3359.73
3365
3371.6
3379.54
3388.85
3399.56
3411.71
3425.31
3440.41
3457.03
3475.18
3494.89
3516.16
3538.96
3563.28
3589.07
3616.27
3644.77
3674.46
3705.19
3736.76
3768.93
3801.43
3833.95
3866.16
3897.68
3928.11
3957.04
3984.07
4008.77
4030.77
4049.69
4065.22
4077.07
4085.03
4088.93
4088.65
4084.23
4075.74
4063.23
4046.93
4027.07
4003.96
3977.96
3949.46
3918.9
3886.72
3853.38
3819.34
3785.04
3750.89
3717.29
3684.56
3652.99
3622.84
3594.28
3567.46
3542.46
3519.33
3498.07
3478.67
3461.08
3445.24
3431.11
3418.61
3407.7
3398.3
3390.38
3383.88
3378.75
3374.97
3372.48
3371.28
3371.34
3372.63
3375.15
3378.89
3383.87
3390.1
3397.58
3406.35
3416.43
3427.86
3440.66
3454.88
3470.56
3487.74
3506.43
3526.67
3548.46
3571.78
3596.59
3622.83
3650.41
3679.18
3708.99
3739.65
3770.9
3802.49
3834.1
3865.41
3896.04
3925.61
3953.72
3979.97
4003.96
4025.33
4043.74
4058.88
4070.51
4078.4
4082.39
4082.35
4078.32
4070.32
4058.43
4042.84
4023.8
4001.65
3976.73
3949.46
3920.29
3889.64
3857.98
3825.71
3793.25
3760.96
3729.17
3698.18
3668.23
3639.53
3612.23
3586.47
3562.32
3539.85
3519.09
3500.02
3482.64
3466.92
3452.81
3440.28
3429.26
3419.72
3411.59
3404.82
3399.37
3395.19
3392.22
3390.43
3389.79
3390.3
3391.88
3394.57
3398.35
3403.22
3409.2
3416.29
3424.52
3433.91
3444.5
3456.31
3469.38
3483.74
3499.43
3516.45
3534.82
3554.54
3575.6
3597.97
3621.6
3646.44
3672.41
3699.4
3727.31
3756.09
3786.03
3815.87
3845.62
3875.01
3903.73
3931.42
3957.71
3982.25
4004.66
4024.58
4041.7
4055.7
4066.34
4073.39
4076.7
4076.15
4071.65
4063.29
4051.24
4035.74
4017.05
3995.52
3971.49
3945.34
3917.52
3888.41
3858.44
3828.01
3797.51
3767.28
3737.64
3709.01
3682.11
3655.97
3630.98
3607.33
3585.1
3564.33
3545
3527.1
3510.57
3495.34
3481.34
3468.5
3456.76
3446.06
3436.38
3427.68
3419.95
3413.22
3407.51
3402.84
3399.28
3396.88
3395.72
3395.87
3397.41
3400.44
3404.99
3411.09
3418.81
3428.16
3439.17
3451.85
3466.19
3482.17
3499.77
3518.93
3539.59
3561.69
3585.15
3609.84
3635.63
3662.07
3680.81
3705.9
3732.13
3758.69
3796.04
3763.96
3730.91
3697.3
3663.7
3631.19
3600.19
3567.7
3536.01
3505.54
3476.51
3449.09
3423.39
3399.46
3377.33
3357.02
3338.51
3321.77
3306.77
3293.45
3281.78
3271.69
3263.17
3256.15
3250.63
3246.56
3243.99
3242.89
3243.23
3245.06
3248.4
3253.3
3259.78
3267.89
3277.69
3289.23
3302.56
3317.71
3334.74
3353.66
3374.49
3397.22
3421.82
3448.24
3476.38
3506.09
3537.23
3569.59
3602.73
3636.39
3670.67
3705.05
3739.16
3772.58
3804.93
3835.84
3864.92
3891.79
3916.14
3937.65
3956.05
3971.11
3982.61
3990.4
3994.41
3994.27
3990.24
3982.31
3970.55
3955.11
3936.18
3914.01
3888.88
3861.12
3831.13
3799.3
3766.03
3731.75
3696.87
3661.8
3626.98
3592.63
3559.04
3526.53
3495.34
3465.71
3437.8
3411.75
3387.68
3365.65
3345.7
3327.85
3312.08
3298.36
3286.64
3276.83
3268.87
3262.66
3258.09
3255.1
3253.63
3253.57
3254.87
3257.51
3261.46
3266.74
3273.33
3281.27
3290.58
3301.28
3313.42
3327.02
3342.11
3358.72
3376.88
3396.58
3417.84
3440.64
3464.97
3490.76
3517.96
3546.47
3576.17
3606.93
3638.52
3670.72
3703.25
3735.81
3768.07
3799.63
3830.12
3859.11
3886.19
3910.95
3933
3951.97
3967.53
3979.42
3987.4
3991.32
3991.03
3986.61
3978.09
3965.56
3949.21
3929.3
3906.14
3880.09
3851.53
3820.91
3788.67
3755.27
3721.18
3686.83
3652.65
3619.01
3586.25
3554.66
3524.49
3495.93
3469.1
3444.1
3420.97
3399.72
3380.33
3362.75
3346.93
3332.8
3320.32
3309.41
3300.02
3292.1
3285.61
3280.49
3276.71
3274.22
3273.03
3273.09
3274.38
3276.9
3280.64
3285.62
3291.84
3299.32
3308.09
3318.16
3329.58
3342.38
3356.59
3372.27
3389.43
3408.13
3428.36
3450.15
3473.47
3498.28
3524.53
3552.11
3580.9
3610.73
3641.41
3672.7
3704.32
3735.97
3767.32
3798
3827.62
3855.79
3882.09
3906.13
3927.55
3946
3961.18
3972.84
3980.75
3984.76
3984.72
3980.68
3972.67
3960.74
3945.12
3926.04
3903.83
3878.85
3851.53
3822.29
3791.59
3759.88
3727.56
3695.06
3662.73
3630.91
3599.89
3569.92
3541.21
3513.9
3488.13
3463.99
3441.52
3420.76
3401.7
3384.33
3368.61
3354.51
3341.99
3330.98
3321.44
3313.32
3306.56
3301.12
3296.94
3293.98
3292.19
3291.56
3292.06
3293.65
3296.34
3300.12
3304.99
3310.96
3318.06
3326.28
3335.67
3346.25
3358.05
3371.12
3385.48
3401.16
3418.17
3436.54
3456.26
3477.32
3499.69
3523.33
3548.17
3574.14
3601.15
3629.06
3657.87
3687.84
3717.7
3747.48
3776.91
3805.67
3833.41
3859.75
3884.34
3906.8
3926.78
3943.93
3957.98
3968.65
3975.73
3979.05
3978.52
3973.98
3965.61
3953.53
3937.99
3919.26
3897.67
3873.59
3847.39
3819.51
3790.35
3760.33
3729.86
3699.32
3669.05
3639.39
3610.75
3583.83
3557.67
3532.68
3509.03
3486.8
3466.03
3446.71
3428.82
3412.3
3397.08
3383.09
3370.26
3358.53
3347.84
3338.16
3329.46
3321.73
3315
3309.28
3304.61
3301.04
3298.63
3297.47
3297.6
3299.14
3302.16
3306.7
3312.8
3320.51
3329.86
3340.87
3353.55
3367.88
3383.87
3401.46
3420.62
3441.29
3463.4
3486.86
3511.56
3537.34
3563.77
3582.67
3607.75
3633.98
3660.57
3698.08
3665.93
3632.8
3599.13
3565.47
3532.93
3501.84
3469.33
3437.61
3407.12
3378.08
3350.66
3324.96
3301.03
3278.91
3258.61
3240.11
3223.38
3208.39
3195.08
3183.42
3173.34
3164.82
3157.82
3152.3
3148.24
3145.67
3144.55
3144.89
3146.72
3150.06
3154.94
3161.42
3169.52
3179.31
3190.84
3204.15
3219.3
3236.32
3255.23
3276.05
3298.78
3323.38
3349.81
3377.96
3407.69
3438.85
3471.25
3504.42
3538.13
3572.46
3606.89
3641.06
3674.55
3706.97
3737.94
3767.08
3794.03
3818.44
3840
3858.45
3873.54
3885.08
3892.9
3896.92
3896.78
3892.74
3884.79
3873
3857.52
3838.54
3816.31
3791.11
3763.29
3733.22
3701.32
3667.98
3633.63
3598.69
3563.56
3528.69
3494.3
3460.68
3428.13
3396.92
3367.27
3339.35
3313.3
3289.22
3267.19
3247.25
3229.4
3213.64
3199.94
3188.22
3178.43
3170.49
3164.29
3159.74
3156.77
3155.3
3155.25
3156.55
3159.2
3163.15
3168.42
3175.01
3182.94
3192.24
3202.94
3215.07
3228.66
3243.75
3260.35
3278.5
3298.2
3319.46
3342.26
3366.58
3392.38
3419.59
3448.11
3477.83
3508.61
3540.23
3572.47
3605.05
3637.67
3669.98
3701.61
3732.17
3761.23
3788.38
3813.22
3835.33
3854.37
3869.99
3881.92
3889.93
3893.86
3893.58
3889.14
3880.6
3868.02
3851.63
3831.66
3808.43
3782.3
3753.66
3722.96
3690.64
3657.17
3623
3588.59
3554.35
3520.67
3487.87
3456.26
3426.07
3397.49
3370.66
3345.66
3322.54
3301.3
3281.91
3264.35
3248.54
3234.43
3221.95
3211.06
3201.68
3193.77
3187.28
3182.17
3178.4
3175.92
3174.73
3174.79
3176.08
3178.6
3182.34
3187.32
3193.53
3201.01
3209.77
3219.84
3231.25
3244.04
3258.24
3273.91
3291.07
3309.75
3329.98
3351.76
3375.08
3399.9
3426.16
3453.76
3482.57
3512.42
3543.14
3574.46
3606.13
3637.83
3669.24
3699.98
3729.67
3757.91
3784.28
3808.39
3829.87
3848.38
3863.62
3875.31
3883.25
3887.28
3887.26
3883.2
3875.16
3863.2
3847.52
3828.38
3806.1
3781.05
3753.65
3724.34
3693.56
3661.77
3629.4
3596.83
3564.45
3532.59
3501.54
3471.55
3442.82
3415.5
3389.73
3365.58
3343.12
3322.36
3303.31
3285.94
3270.24
3256.15
3243.63
3232.64
3223.11
3215
3208.25
3202.81
3198.64
3195.69
3193.91
3193.28
3193.78
3195.38
3198.06
3201.84
3206.71
3212.68
3219.77
3227.99
3237.37
3247.94
3259.74
3272.8
3287.15
3302.83
3319.84
3338.21
3357.92
3378.98
3401.35
3424.99
3449.84
3475.82
3502.84
3530.77
3559.59
3589.61
3619.51
3649.34
3678.82
3707.63
3735.43
3761.84
3786.49
3809.02
3829.06
3846.28
3860.38
3871.1
3878.2
3881.55
3881.04
3876.47
3868.08
3855.95
3840.36
3821.57
3799.91
3775.76
3749.49
3721.53
3692.3
3662.22
3631.69
3601.09
3570.78
3541.08
3512.43
3485.48
3459.31
3434.31
3410.65
3388.42
3367.66
3348.36
3330.48
3313.97
3298.77
3284.79
3271.98
3260.25
3249.57
3239.89
3231.2
3223.47
3216.74
3211.01
3206.34
3202.76
3200.34
3199.17
3199.29
3200.82
3203.82
3208.36
3214.45
3222.15
3231.5
3242.5
3255.17
3269.51
3285.49
3303.09
3322.25
3342.92
3365.04
3388.51
3413.21
3438.99
3465.4
3484.52
3509.57
3535.82
3562.43
3600.14
3567.9
3534.7
3500.94
3467.21
3434.62
3403.44
3370.89
3339.14
3308.63
3279.57
3252.15
3226.44
3202.52
3180.41
3160.11
3141.63
3124.92
3109.94
3096.64
3084.99
3074.93
3066.42
3059.42
3053.91
3049.85
3047.28
3046.16
3046.5
3048.32
3051.65
3056.53
3062.99
3071.08
3080.86
3092.37
3105.67
3120.8
3137.81
3156.71
3177.53
3200.26
3224.86
3251.3
3279.46
3309.22
3340.41
3372.84
3406.07
3439.83
3474.22
3508.72
3542.96
3576.54
3609.04
3640.09
3669.32
3696.34
3720.83
3742.46
3760.97
3776.12
3787.7
3795.55
3799.58
3799.44
3795.4
3787.42
3775.59
3760.06
3741.01
3718.7
3693.43
3665.52
3635.36
3603.36
3569.94
3535.5
3500.48
3465.29
3430.36
3395.92
3362.25
3329.66
3298.42
3268.75
3240.81
3214.75
3190.67
3168.64
3148.7
3130.87
3115.12
3101.43
3089.73
3079.96
3072.03
3065.86
3061.33
3058.37
3056.92
3056.87
3058.19
3060.83
3064.79
3070.05
3076.64
3084.56
3093.86
3104.54
3116.66
3130.24
3145.32
3161.92
3180.05
3199.75
3221
3243.8
3268.13
3293.93
3321.15
3349.69
3379.43
3410.24
3441.9
3474.19
3506.82
3539.51
3571.9
3603.61
3634.26
3663.41
3690.66
3715.58
3737.78
3756.9
3772.58
3784.57
3792.61
3796.57
3796.3
3791.84
3783.26
3770.64
3754.17
3734.13
3710.81
3684.58
3655.85
3625.05
3592.63
3559.06
3524.81
3490.32
3456.01
3422.27
3389.43
3357.77
3327.56
3298.96
3272.13
3247.13
3224.02
3202.79
3183.42
3165.87
3150.08
3135.98
3123.53
3112.64
3103.28
3095.38
3088.9
3083.8
3080.03
3077.57
3076.38
3076.44
3077.73
3080.25
3083.99
3088.96
3095.18
3102.65
3111.4
3121.46
3132.86
3145.64
3159.83
3175.48
3192.63
3211.31
3231.53
3253.31
3276.63
3301.45
3327.72
3355.34
3384.17
3414.06
3444.81
3476.19
3507.91
3539.68
3571.16
3601.99
3631.76
3660.09
3686.54
3710.74
3732.31
3750.89
3766.18
3777.93
3785.91
3789.96
3789.95
3785.88
3777.8
3765.8
3750.06
3730.84
3708.47
3683.32
3655.83
3626.42
3595.55
3563.67
3531.21
3498.58
3466.14
3434.22
3403.13
3373.11
3344.35
3317.02
3291.24
3267.09
3244.63
3223.88
3204.84
3187.49
3171.8
3157.72
3145.22
3134.24
3124.72
3116.62
3109.88
3104.46
3100.3
3097.35
3095.58
3094.96
3095.46
3097.06
3099.74
3103.52
3108.39
3114.36
3121.44
3129.66
3139.03
3149.59
3161.38
3174.43
3188.78
3204.44
3221.45
3239.81
3259.52
3280.58
3302.95
3326.6
3351.46
3377.45
3404.48
3432.42
3461.28
3491.36
3521.3
3551.18
3580.72
3609.6
3637.48
3663.97
3688.71
3711.32
3731.45
3748.74
3762.91
3773.68
3780.83
3784.2
3783.7
3779.11
3770.68
3758.51
3742.85
3723.98
3702.24
3678
3651.63
3623.58
3594.27
3564.1
3533.5
3502.83
3472.47
3442.71
3414.05
3387.07
3360.88
3335.87
3312.21
3289.98
3269.23
3249.94
3232.08
3215.59
3200.4
3186.45
3173.65
3161.94
3151.27
3141.59
3132.9
3125.18
3118.43
3112.7
3108.02
3104.43
3102
3100.81
3100.91
3102.43
3105.43
3109.95
3116.03
3123.72
3133.06
3144.06
3156.73
3171.06
3187.04
3204.64
3223.81
3244.49
3266.61
3290.09
3314.8
3340.58
3366.98
3386.34
3411.37
3437.64
3464.28
3502.24
3469.9
3436.59
3402.74
3368.92
3336.27
3304.98
3272.38
3240.59
3210.06
3180.98
3153.55
3127.84
3103.92
3081.82
3061.54
3043.07
3026.38
3011.41
2998.14
2986.5
2976.46
2967.96
2960.97
2955.46
2951.41
2948.84
2947.71
2948.05
2949.86
2953.18
2958.05
2964.5
2972.57
2982.33
2993.84
3007.12
3022.23
3039.23
3058.12
3078.93
3101.65
3126.26
3152.7
3180.89
3210.66
3241.89
3274.36
3307.65
3341.48
3375.94
3410.53
3444.87
3478.54
3511.14
3542.29
3571.62
3598.74
3623.32
3645.04
3663.62
3678.83
3690.46
3698.34
3702.38
3702.26
3698.21
3690.2
3678.32
3662.73
3643.6
3621.2
3595.83
3567.81
3537.55
3505.44
3471.91
3437.37
3402.25
3366.98
3331.98
3297.48
3263.75
3231.12
3199.84
3170.14
3142.19
3116.12
3092.04
3070.01
3050.07
3032.25
3016.52
3002.84
2991.17
2981.42
2973.51
2967.36
2962.86
2959.92
2958.48
2958.44
2959.77
2962.41
2966.37
2971.63
2978.21
2986.13
2995.41
3006.09
3018.19
3031.76
3046.83
3063.41
3081.54
3101.23
3122.47
3145.27
3169.6
3195.41
3222.64
3251.2
3280.97
3311.81
3343.53
3375.87
3408.58
3441.34
3473.82
3505.63
3536.38
3565.65
3593
3618.04
3640.35
3659.55
3675.32
3687.37
3695.46
3699.44
3699.18
3694.71
3686.08
3673.39
3656.85
3636.71
3613.29
3586.95
3558.1
3527.17
3494.64
3460.96
3426.6
3392.02
3357.63
3323.81
3290.91
3259.21
3228.97
3200.35
3173.51
3148.51
3125.41
3104.2
3084.85
3067.32
3051.55
3037.47
3025.03
3014.17
3004.82
2996.94
2990.47
2985.38
2981.62
2979.16
2977.98
2978.04
2979.34
2981.85
2985.59
2990.56
2996.77
3004.24
3012.98
3023.03
3034.41
3047.18
3061.36
3077
3094.13
3112.8
3133.01
3154.79
3178.11
3202.94
3229.22
3256.85
3285.72
3315.65
3346.45
3377.88
3409.68
3441.52
3473.09
3504.01
3533.89
3562.32
3588.88
3613.19
3634.85
3653.52
3668.89
3680.7
3688.72
3692.79
3692.79
3688.71
3680.6
3668.54
3652.72
3633.41
3610.93
3585.68
3558.06
3528.53
3497.55
3465.57
3433.01
3400.29
3367.77
3335.8
3304.66
3274.6
3245.82
3218.47
3192.68
3168.53
3146.07
3125.33
3106.3
3088.96
3073.29
3059.23
3046.74
3035.78
3026.28
3018.19
3011.47
3006.05
3001.9
2998.97
2997.21
2996.59
2997.1
2998.7
3001.38
3005.16
3010.02
3015.99
3023.07
3031.27
3040.64
3051.19
3062.97
3076.01
3090.34
3106
3123
3141.35
3161.06
3182.11
3204.49
3228.14
3253.01
3279.01
3306.06
3334.03
3362.92
3393.07
3423.07
3453
3482.62
3511.59
3539.56
3566.15
3590.99
3613.7
3633.93
3651.31
3665.56
3676.4
3683.6
3687
3686.51
3681.91
3673.43
3661.19
3645.45
3626.49
3604.65
3580.3
3553.82
3525.67
3496.25
3465.98
3435.29
3404.54
3374.11
3344.29
3315.62
3288.6
3262.39
3237.36
3213.69
3191.48
3170.74
3151.46
3133.62
3117.15
3101.99
3088.05
3075.27
3063.58
3052.92
3043.25
3034.56
3026.84
3020.09
3014.35
3009.66
3006.06
3003.61
3002.4
3002.49
3003.99
3006.97
3011.48
3017.55
3025.23
3034.56
3045.55
3058.21
3072.54
3088.53
3106.13
3125.31
3145.99
3168.12
3191.61
3216.33
3242.11
3268.49
3288.15
3313.15
3339.44
3366.12
3404.37
3371.9
3338.47
3304.51
3270.59
3237.88
3206.45
3173.79
3141.97
3111.4
3082.31
3054.87
3029.16
3005.25
2983.16
2962.9
2944.44
2927.77
2912.82
2899.57
2887.95
2877.92
2869.43
2862.45
2856.95
2852.91
2850.34
2849.21
2849.54
2851.34
2854.66
2859.51
2865.94
2874
2883.74
2895.22
2908.49
2923.58
2940.56
2959.44
2980.24
3002.96
3027.57
3054.02
3082.23
3112.03
3143.31
3175.83
3209.19
3243.09
3277.64
3312.33
3346.77
3380.55
3413.27
3444.54
3473.99
3501.22
3525.91
3547.73
3566.4
3581.68
3593.36
3601.28
3605.35
3605.24
3601.17
3593.12
3581.19
3565.52
3546.31
3523.8
3498.31
3470.17
3439.78
3407.54
3373.89
3339.23
3304
3268.63
3233.55
3198.98
3165.19
3132.5
3101.18
3071.45
3043.48
3017.39
2993.31
2971.28
2951.35
2933.54
2917.83
2904.17
2892.52
2882.8
2874.92
2868.79
2864.32
2861.41
2859.98
2859.96
2861.29
2863.94
2867.9
2873.16
2879.73
2887.63
2896.9
2907.57
2919.66
2933.22
2948.27
2964.84
2982.96
3002.64
3023.88
3046.67
3071
3096.82
3124.07
3152.65
3182.45
3213.33
3245.1
3277.51
3310.3
3343.16
3375.74
3407.67
3438.55
3467.94
3495.43
3520.59
3543.02
3562.34
3578.2
3590.32
3598.47
3602.47
3602.22
3597.73
3589.05
3576.29
3559.66
3539.41
3515.87
3489.39
3460.4
3429.34
3396.66
3362.85
3328.37
3293.68
3259.19
3225.29
3192.32
3160.58
3130.29
3101.66
3074.81
3049.81
3026.72
3005.53
2986.2
2968.69
2952.95
2938.9
2926.48
2915.63
2906.3
2898.43
2891.98
2886.9
2883.16
2880.71
2879.53
2879.6
2880.9
2883.41
2887.15
2892.11
2898.31
2905.77
2914.5
2924.54
2935.91
2948.66
2962.83
2978.45
2995.57
3014.22
3034.42
3056.19
3079.51
3104.35
3130.64
3158.31
3187.2
3217.18
3248.04
3279.54
3311.42
3343.35
3375.02
3406.06
3436.05
3464.61
3491.3
3515.72
3537.49
3556.27
3571.73
3583.61
3591.69
3595.79
3595.8
3591.71
3583.55
3571.42
3555.51
3536.09
3513.49
3488.1
3460.35
3430.69
3399.57
3367.46
3334.79
3301.97
3269.37
3237.32
3206.13
3176.02
3147.21
3119.84
3094.04
3069.89
3047.44
3026.7
3007.69
2990.37
2974.71
2960.67
2948.2
2937.26
2927.78
2919.71
2913
2907.6
2903.46
2900.54
2898.79
2898.18
2898.69
2900.29
2902.98
2906.75
2911.62
2917.58
2924.65
2932.84
2942.2
2952.74
2964.5
2977.53
2991.85
3007.5
3024.49
3042.84
3062.54
3083.59
3105.97
3129.63
3154.51
3180.53
3207.59
3235.59
3264.52
3294.75
3324.81
3354.82
3384.52
3413.59
3441.67
3468.38
3493.34
3516.17
3536.5
3554
3568.34
3579.25
3586.51
3589.95
3589.47
3584.85
3576.32
3564.01
3548.18
3529.11
3507.15
3482.67
3456.06
3427.78
3398.24
3367.86
3337.06
3306.22
3275.7
3245.82
3217.14
3190.06
3163.82
3138.78
3115.11
3092.9
3072.17
3052.92
3035.1
3018.66
3003.52
2989.61
2976.85
2965.17
2954.53
2944.87
2936.18
2928.46
2921.71
2915.96
2911.25
2907.64
2905.18
2903.95
2904.01
2905.5
2908.46
2912.95
2919
2926.67
2935.99
2946.97
2959.63
2973.96
2989.94
3007.55
3026.73
3047.43
3069.57
3093.07
3117.8
3143.59
3169.95
3189.93
3214.91
3241.22
3267.96
3306.53
3273.93
3240.36
3206.27
3172.23
3139.44
3107.86
3075.14
3043.27
3012.67
2983.56
2956.1
2930.39
2906.49
2884.41
2864.17
2845.73
2829.08
2814.16
2800.93
2789.33
2779.32
2770.85
2763.88
2758.39
2754.36
2751.78
2750.64
2750.97
2752.76
2756.07
2760.9
2767.32
2775.35
2785.08
2796.54
2809.78
2824.85
2841.81
2860.67
2881.46
2904.18
2928.79
2955.26
2983.48
3013.33
3044.65
3077.23
3110.67
3144.66
3179.31
3214.11
3248.67
3282.58
3315.43
3346.84
3376.43
3403.79
3428.6
3450.53
3469.3
3484.66
3496.41
3504.38
3508.47
3508.37
3504.28
3496.19
3484.2
3468.45
3449.13
3426.5
3400.88
3372.6
3342.06
3309.68
3275.88
3241.08
3205.73
3170.25
3135.08
3100.42
3066.55
3033.81
3002.44
2972.67
2944.68
2918.58
2894.49
2872.46
2852.55
2834.75
2819.05
2805.42
2793.8
2784.11
2776.26
2770.17
2765.72
2762.83
2761.43
2761.42
2762.77
2765.42
2769.38
2774.63
2781.19
2789.09
2798.34
2808.99
2821.07
2834.61
2849.65
2866.21
2884.31
2903.98
2925.21
2948
2972.33
2998.16
3025.42
3054.03
3083.87
3114.8
3146.63
3179.12
3212
3244.97
3277.67
3309.73
3340.75
3370.29
3397.93
3423.24
3445.8
3465.25
3481.22
3493.43
3501.64
3505.68
3505.43
3500.91
3492.18
3479.34
3462.61
3442.23
3418.55
3391.92
3362.77
3331.54
3298.71
3264.74
3230.12
3195.3
3160.7
3126.71
3093.67
3061.86
3031.54
3002.88
2976.02
2951.03
2927.95
2906.77
2887.47
2869.99
2854.27
2840.25
2827.86
2817.03
2807.72
2799.87
2793.44
2788.38
2784.64
2782.2
2781.03
2781.1
2782.4
2784.92
2788.65
2793.61
2799.81
2807.25
2815.97
2825.99
2837.35
2850.08
2864.23
2879.83
2896.94
2915.57
2935.76
2957.52
2980.84
3005.69
3032
3059.69
3088.63
3118.66
3149.58
3181.17
3213.13
3245.17
3276.96
3308.12
3338.26
3366.95
3393.78
3418.35
3440.25
3459.14
3474.7
3486.67
3494.81
3498.95
3498.97
3494.86
3486.65
3474.44
3458.43
3438.89
3416.15
3390.61
3362.69
3332.87
3301.61
3269.36
3236.56
3203.62
3170.92
3138.79
3107.53
3077.37
3048.52
3021.13
2995.32
2971.17
2948.72
2928
2909
2891.7
2876.07
2862.05
2849.6
2838.68
2829.22
2821.17
2814.48
2809.1
2804.97
2802.07
2800.33
2799.73
2800.24
2801.85
2804.53
2808.3
2813.16
2819.12
2826.18
2834.37
2843.71
2854.24
2865.99
2879
2893.31
2908.94
2925.92
2944.26
2963.96
2985.01
3007.39
3031.06
3055.95
3081.99
3109.07
3137.1
3166.07
3196.39
3226.52
3256.61
3286.42
3315.6
3343.81
3370.65
3395.74
3418.71
3439.18
3456.79
3471.24
3482.25
3489.57
3493.05
3492.58
3487.95
3479.35
3466.96
3451.03
3431.83
3409.73
3385.1
3358.35
3329.92
3300.24
3269.73
3238.81
3207.86
3177.25
3147.29
3118.59
3091.47
3065.19
3040.13
3016.46
2994.25
2973.54
2954.31
2936.52
2920.11
2905
2891.12
2878.38
2866.72
2856.09
2846.45
2837.76
2830.04
2823.28
2817.52
2812.8
2809.17
2806.69
2805.44
2805.48
2806.94
2809.89
2814.35
2820.39
2828.04
2837.35
2848.32
2860.98
2875.3
2891.29
2908.9
2928.09
2948.8
2970.95
2994.47
3019.21
3045
3071.35
3091.69
3116.64
3142.98
3169.78
3208.72
3175.96
3142.24
3108
3073.83
3040.96
3009.22
2976.42
2944.49
2913.85
2884.72
2857.25
2831.54
2807.64
2785.59
2765.36
2746.95
2730.32
2715.43
2702.22
2690.65
2680.65
2672.2
2665.25
2659.77
2655.74
2653.17
2652.03
2652.34
2654.13
2657.42
2662.23
2668.63
2676.64
2686.34
2697.78
2710.99
2726.04
2742.98
2761.83
2782.61
2805.31
2829.93
2856.41
2884.66
2914.55
2945.92
2978.56
3012.11
3046.18
3080.95
3115.87
3150.57
3184.63
3217.63
3249.2
3278.93
3306.44
3331.38
3353.44
3372.32
3387.78
3399.6
3407.62
3411.74
3411.65
3407.54
3399.42
3387.35
3371.5
3352.06
3329.3
3303.53
3275.09
3244.39
3211.84
3177.88
3142.93
3107.43
3071.82
3036.56
3001.81
2967.85
2935.04
2903.62
2873.81
2845.79
2819.68
2795.58
2773.56
2753.65
2735.86
2720.19
2706.59
2695
2685.34
2677.53
2671.47
2667.06
2664.2
2662.82
2662.84
2664.19
2666.85
2670.8
2676.05
2682.6
2690.49
2699.73
2710.36
2722.42
2735.94
2750.96
2767.5
2785.59
2805.25
2826.47
2849.26
2873.59
2899.43
2926.71
2955.35
2985.23
3016.21
3048.12
3080.69
3113.67
3146.76
3179.6
3211.81
3242.99
3272.69
3300.5
3325.98
3348.7
3368.29
3384.39
3396.69
3404.97
3409.05
3408.81
3404.26
3395.46
3382.54
3365.68
3345.17
3321.32
3294.52
3265.19
3233.78
3200.77
3166.63
3131.85
3096.88
3062.16
3028.07
2994.94
2963.07
2932.7
2904.01
2877.14
2852.15
2829.09
2807.94
2788.67
2771.22
2755.53
2741.54
2729.17
2718.37
2709.09
2701.26
2694.84
2689.79
2686.07
2683.65
2682.48
2682.56
2683.86
2686.38
2690.11
2695.06
2701.25
2708.68
2717.39
2727.4
2738.74
2751.45
2765.57
2781.16
2798.24
2816.85
2837.03
2858.79
2882.11
2906.96
2933.29
2961.01
2990
3020.08
3051.08
3082.76
3114.82
3146.98
3178.9
3210.21
3240.5
3269.35
3296.34
3321.06
3343.11
3362.14
3377.82
3389.88
3398.08
3402.26
3402.3
3398.17
3389.9
3377.61
3361.48
3341.8
3318.9
3293.19
3265.1
3235.1
3203.66
3171.25
3138.3
3105.23
3072.42
3040.2
3008.87
2978.66
2949.77
2922.35
2896.53
2872.37
2849.93
2829.23
2810.25
2792.97
2777.35
2763.36
2750.94
2740.04
2730.6
2722.57
2715.9
2710.54
2706.44
2703.55
2701.82
2701.23
2701.75
2703.36
2706.04
2709.81
2714.67
2720.62
2727.67
2735.85
2745.17
2755.68
2767.42
2780.41
2794.71
2810.33
2827.3
2845.62
2865.31
2886.36
2908.74
2932.42
2957.33
2983.39
3010.5
3038.56
3067.57
3098
3128.22
3158.4
3188.31
3217.62
3245.97
3272.97
3298.21
3321.33
3341.95
3359.7
3374.28
3385.38
3392.78
3396.31
3395.85
3391.19
3382.53
3370.04
3353.99
3334.66
3312.4
3287.61
3260.68
3232.09
3202.25
3171.59
3140.54
3109.46
3078.76
3048.71
3019.99
2992.8
2966.5
2941.41
2917.73
2895.53
2874.84
2855.64
2837.88
2821.5
2806.43
2792.57
2779.87
2768.24
2757.62
2747.99
2739.31
2731.58
2724.82
2719.05
2714.31
2710.66
2708.16
2706.88
2706.9
2708.34
2711.26
2715.7
2721.72
2729.35
2738.65
2749.61
2762.26
2776.58
2792.56
2810.18
2829.38
2850.1
2872.27
2895.8
2920.56
2946.36
2972.69
2993.42
3018.34
3044.73
3071.58
3110.95
3078.01
3044.12
3009.72
2975.39
2942.42
2910.5
2877.63
2845.64
2814.95
2785.79
2758.31
2732.6
2708.72
2686.68
2666.47
2648.09
2631.49
2616.63
2603.45
2591.9
2581.93
2573.49
2566.56
2561.09
2557.07
2554.49
2553.35
2553.66
2555.43
2558.71
2563.5
2569.88
2577.87
2587.54
2598.94
2612.13
2627.15
2644.07
2662.9
2683.66
2706.36
2730.98
2757.48
2785.76
2815.68
2847.12
2879.83
2913.48
2947.66
2982.55
3017.61
3052.47
3086.69
3119.86
3151.59
3181.5
3209.17
3234.27
3256.47
3275.47
3291.04
3302.94
3311.02
3315.17
3315.09
3310.96
3302.79
3290.64
3274.69
3255.12
3232.2
3206.26
3177.65
3146.76
3114.03
3079.89
3044.76
3009.1
2973.35
2937.99
2903.13
2869.08
2836.19
2804.71
2774.86
2746.81
2720.68
2696.58
2674.56
2654.66
2636.89
2621.25
2607.67
2596.12
2586.5
2578.73
2572.71
2568.34
2565.52
2564.16
2564.19
2565.56
2568.23
2572.18
2577.42
2583.96
2591.83
2601.05
2611.66
2623.7
2637.21
2652.21
2668.73
2686.8
2706.44
2727.66
2750.45
2774.78
2800.63
2827.93
2856.6
2886.52
2917.56
2949.55
2982.22
3015.32
3048.54
3081.53
3113.91
3145.26