/*--------------------------------*- C++ -*----------------------------------*\
| =========                 |                                                 |
| \\      /  F ield         | OpenFOAM: The Open Source CFD Toolbox           |
|  \\    /   O peration     | Version:  3.0.1                                 |
|   \\  /    A nd           | Web:      www.OpenFOAM.org                      |
|    \\/     M anipulation  |                                                 |
\*---------------------------------------------------------------------------*/
FoamFile
{
    version     2.0;
    format      ascii;
    class       volScalarField;
    location    "31.8";
    object      p;
}
// * * * * * * * * * * * * * * * * * * * * * * * * * * * * * * * * * * * * * //

dimensions      [1 -1 -2 0 0 0 0];

internalField   nonuniform List<scalar> 
21420
(
3508.84
3501.7
3495.95
3491.54
3488.51
3486.83
3486.56
3487.64
3490.08
3493.87
3499.04
3505.63
3513.67
3523.22
3534.34
3547.07
3561.48
3577.61
3595.49
3615.18
3636.67
3659.98
3685.06
3711.85
3740.15
3769.69
3800.77
3832.99
3866.12
3899.79
3933.65
3967.35
4000.48
4032.63
4063.36
4092.23
4118.88
4142.91
4163.97
4181.76
4196.01
4206.5
4213.07
4215.55
4213.8
4207.92
4198.05
4184.32
4166.93
4146.13
4122.23
4095.57
4066.54
4035.55
4002.98
3969.31
3934.95
3900.31
3865.81
3831.78
3798.58
3766.44
3735.43
3706.02
3678.27
3652.27
3628.09
3605.78
3585.34
3566.76
3550.02
3535.08
3521.9
3510.41
3500.58
3492.33
3485.63
3480.42
3476.67
3474.3
3473.21
3473.45
3475.39
3478.82
3483.69
3489.97
3497.67
3506.79
3517.33
3529.3
3542.69
3557.52
3573.83
3591.65
3611.03
3631.99
3654.56
3678.72
3704.45
3731.69
3760.37
3790.36
3821.45
3853.45
3886.11
3919.15
3952.25
3985.05
4017.18
4048.23
4077.8
4105.48
4130.85
4153.53
4173.15
4189.38
4201.94
4210.59
4215.09
4215.45
4211.55
4203.47
4191.27
4175.15
4155.38
4132.25
4106.13
4077.44
4046.63
4014.15
3980.5
3946.13
3911.51
3877.07
3843.2
3810.26
3778.54
3748.28
3719.66
3692.83
3667.86
3644.83
3623.76
3604.63
3587.43
3572.09
3558.57
3546.79
3536.65
3528.09
3521.02
3515.34
3510.99
3507.89
3506.02
3505.33
3505.75
3507.31
3510.01
3513.87
3518.91
3525.18
3532.71
3541.56
3551.78
3563.43
3576.57
3591.28
3607.6
3625.58
3645.27
3666.68
3689.82
3714.67
3741.18
3769.28
3798.83
3829.74
3861.7
3894.51
3927.87
3961.43
3994.81
4027.58
4059.32
4089.54
4117.81
4143.66
4166.68
4186.48
4202.74
4215.16
4223.54
4227.68
4227.61
4223.28
4214.81
4202.3
4186.01
4166.21
4143.25
4117.5
4089.39
4059.36
4027.84
3995.31
3962.19
3928.9
3895.83
3863.32
3831.66
3801.11
3771.87
3744.09
3717.89
3693.34
3670.48
3649.32
3629.85
3612.05
3595.89
3581.31
3568.28
3556.74
3546.65
3537.98
3530.69
3524.76
3520.18
3516.91
3514.98
3514.38
3515.07
3517.08
3520.42
3525.1
3531.14
3538.56
3547.4
3557.68
3569.47
3582.81
3597.76
3614.36
3632.65
3652.65
3674.35
3697.72
3722.73
3749.3
3777.33
3806.67
3837.17
3868.61
3900.74
3933.28
3965.91
3998.29
4030.03
4060.75
4090.02
4117.45
4142.62
4165.18
4184.76
4201.07
4213.84
4222.9
4228.1
4229.31
4226.67
4220.1
4209.71
4195.77
4178.5
4158.21
4135.23
4109.91
4082.66
4053.84
4023.82
3992.99
3961.63
3930
3898.18
3866.75
3847.61
3820.86
3795.03
3770.35
3746.92
3724.87
3704.26
3685.14
3667.53
3651.42
3636.8
3623.64
3611.92
3601.61
3592.66
3585.05
3578.75
3573.75
3570.02
3567.58
3566.47
3566.66
3568.22
3571.25
3575.77
3581.82
3589.48
3598.83
3609.91
3622.79
3637.5
3654.08
3672.54
3692.85
3714.97
3738.84
3764.38
3791.46
3820
3849.82
3876.62
3907.9
3939.52
3971.21
4002.76
4033.86
4064.19
4093.48
4121.41
4147.67
4171.98
4194.03
4213.59
4230.41
4244.28
4255.03
4262.53
4266.68
4267.3
4264.44
4258.07
4248.29
4235.24
4219.08
4200.02
4178.32
4154.25
4128.12
4100.34
4071.31
4041.59
3410.68
3403.55
3397.79
3393.39
3390.35
3388.68
3388.4
3389.49
3391.93
3395.72
3400.88
3407.47
3415.51
3425.06
3436.17
3448.9
3463.31
3479.43
3497.31
3516.99
3538.49
3561.79
3586.88
3613.67
3641.97
3671.51
3702.6
3734.83
3767.97
3801.66
3835.53
3869.25
3902.39
3934.56
3965.31
3994.2
4020.86
4044.91
4065.99
4083.79
4098.05
4108.55
4115.13
4117.62
4115.86
4109.97
4100.1
4086.36
4068.96
4048.13
4024.22
3997.54
3968.5
3937.48
3904.9
3871.21
3836.83
3802.18
3767.66
3733.62
3700.41
3668.26
3637.25
3607.84
3580.08
3554.08
3529.91
3507.59
3487.16
3468.58
3451.85
3436.91
3423.73
3412.25
3402.42
3394.17
3387.47
3382.26
3378.51
3376.14
3375.06
3375.3
3377.24
3380.67
3385.54
3391.81
3399.52
3408.64
3419.17
3431.14
3444.53
3459.36
3475.67
3493.48
3512.86
3533.82
3556.38
3580.54
3606.27
3633.52
3662.2
3692.19
3723.29
3755.3
3787.97
3821.03
3854.14
3886.96
3919.1
3950.17
3979.76
4007.45
4032.84
4055.54
4075.18
4091.42
4103.99
4112.65
4117.17
4117.51
4113.61
4105.52
4093.31
4077.19
4057.39
4034.24
4008.11
3979.4
3948.56
3916.07
3882.39
3848.01
3813.37
3778.92
3745.03
3712.09
3680.36
3650.09
3621.47
3594.64
3569.68
3546.65
3525.57
3506.45
3489.25
3473.92
3460.4
3448.62
3438.49
3429.93
3422.86
3417.19
3412.84
3409.74
3407.87
3407.18
3407.61
3409.17
3411.87
3415.72
3420.76
3427.02
3434.55
3443.4
3453.62
3465.26
3478.41
3493.11
3509.43
3527.41
3547.09
3568.51
3591.65
3616.49
3643.01
3671.1
3700.66
3731.58
3763.55
3796.37
3829.73
3863.31
3896.71
3929.5
3961.26
3991.5
4019.78
4045.65
4068.69
4088.52
4104.78
4117.21
4125.6
4129.76
4129.68
4125.34
4116.86
4104.34
4088.04
4068.22
4045.24
4019.48
3991.35
3961.29
3929.76
3897.21
3864.07
3830.77
3797.69
3765.16
3733.5
3702.94
3673.7
3645.92
3619.71
3595.16
3572.3
3551.14
3531.68
3513.88
3497.72
3483.15
3470.12
3458.58
3448.49
3439.83
3432.54
3426.61
3422.02
3418.76
3416.82
3416.22
3416.92
3418.93
3422.26
3426.94
3432.99
3440.41
3449.24
3459.52
3471.31
3484.64
3499.59
3516.19
3534.48
3554.47
3576.17
3599.54
3624.56
3651.13
3679.16
3708.51
3739.01
3770.46
3802.6
3835.15
3867.8
3900.19
3931.95
3962.68
3991.97
4019.42
4044.61
4067.18
4086.79
4103.11
4115.89
4124.95
4130.16
4131.37
4128.72
4122.14
4111.75
4097.8
4080.52
4060.21
4037.21
4011.88
3984.61
3955.78
3925.74
3894.89
3863.53
3831.88
3800.07
3768.67
3749.41
3722.69
3696.86
3672.18
3648.75
3626.7
3606.09
3586.97
3569.36
3553.25
3538.63
3525.48
3513.77
3503.45
3494.5
3486.9
3480.6
3475.6
3471.87
3469.43
3468.32
3468.5
3470.07
3473.09
3477.61
3483.65
3491.32
3500.66
3511.74
3524.61
3539.33
3555.9
3574.36
3594.67
3616.79
3640.66
3666.2
3693.29
3721.82
3751.65
3778.48
3809.77
3841.39
3873.09
3904.66
3935.77
3966.11
3995.42
4023.35
4049.63
4073.95
4096.02
4115.59
4132.42
4146.3
4157.06
4164.56
4168.71
4169.34
4166.47
4160.1
4150.31
4137.26
4121.08
4102.01
4080.3
4056.21
4030.07
4002.28
3973.24
3943.5
3312.47
3305.34
3299.58
3295.18
3292.15
3290.47
3290.2
3291.28
3293.72
3297.51
3302.67
3309.25
3317.29
3326.83
3337.94
3350.66
3365.06
3381.18
3399.05
3418.73
3440.23
3463.53
3488.61
3515.41
3543.72
3573.26
3604.36
3636.62
3669.78
3703.49
3737.39
3771.14
3804.32
3836.52
3867.3
3896.23
3922.93
3947.02
3968.13
3985.96
4000.24
4010.75
4017.34
4019.86
4018.06
4012.17
4002.29
3988.53
3971.1
3950.25
3926.3
3899.59
3870.5
3839.45
3806.83
3773.1
3738.69
3704.01
3669.46
3635.41
3602.17
3570.01
3538.99
3509.57
3481.81
3455.81
3431.64
3409.33
3388.9
3370.33
3353.6
3338.67
3325.49
3314.01
3304.19
3295.95
3289.25
3284.05
3280.3
3277.93
3276.85
3277.11
3279.05
3282.48
3287.34
3293.61
3301.31
3310.43
3320.96
3332.92
3346.3
3361.13
3377.43
3395.24
3414.61
3435.57
3458.13
3482.29
3508.02
3535.27
3563.97
3593.96
3625.07
3657.1
3689.79
3722.87
3756.01
3788.86
3821.04
3852.14
3881.77
3909.5
3934.93
3957.66
3977.33
3993.6
4006.19
4014.87
4019.41
4019.73
4015.83
4007.73
3995.5
3979.35
3959.53
3936.34
3910.17
3881.42
3850.54
3818
3784.29
3749.86
3715.2
3680.71
3646.81
3613.85
3582.1
3551.83
3523.2
3496.36
3471.4
3448.37
3427.3
3408.18
3390.99
3375.67
3362.16
3350.38
3340.26
3331.71
3324.65
3318.98
3314.64
3311.55
3309.68
3308.99
3309.42
3310.98
3313.68
3317.53
3322.56
3328.82
3336.35
3345.19
3355.4
3367.04
3380.18
3394.87
3411.18
3429.16
3448.84
3470.25
3493.39
3518.24
3544.75
3572.85
3602.43
3633.35
3665.34
3698.18
3731.57
3765.17
3798.61
3831.44
3863.23
3893.52
3921.84
3947.75
3970.83
3990.68
4006.97
4019.43
4027.83
4032
4031.9
4027.56
4019.06
4006.53
3990.19
3970.35
3947.33
3921.52
3893.35
3863.26
3831.69
3799.1
3765.94
3732.6
3699.49
3666.95
3635.27
3604.7
3575.45
3547.66
3521.46
3496.91
3474.05
3452.89
3433.43
3415.64
3399.49
3384.92
3371.89
3360.36
3350.28
3341.61
3334.33
3328.4
3323.82
3320.55
3318.62
3318.02
3318.71
3320.72
3324.06
3328.74
3334.77
3342.19
3351.02
3361.3
3373.08
3386.41
3401.35
3417.95
3436.23
3456.22
3477.92
3501.29
3526.31
3552.88
3580.92
3610.28
3640.8
3672.26
3704.42
3737
3769.67
3802.1
3833.89
3864.66
3893.98
3921.46
3946.7
3969.3
3988.93
4005.27
4018.08
4027.15
4032.37
4033.59
4030.92
4024.34
4013.94
3999.96
3982.66
3962.32
3939.29
3913.93
3886.62
3857.76
3827.69
3796.81
3765.42
3733.76
3701.94
3670.61
3651.11
3624.43
3598.62
3573.94
3550.51
3528.46
3507.85
3488.73
3471.12
3455.02
3440.41
3427.26
3415.55
3405.24
3396.3
3388.69
3382.4
3377.39
3373.67
3371.23
3370.11
3370.29
3371.86
3374.88
3379.39
3385.43
3393.08
3402.42
3413.49
3426.36
3441.07
3457.64
3476.1
3496.41
3518.53
3542.41
3567.95
3595.04
3623.58
3653.42
3680.31
3711.61
3743.24
3774.96
3806.55
3837.68
3868.06
3897.39
3925.35
3951.66
3976
3998.09
4017.68
4034.54
4048.44
4059.21
4066.72
4070.88
4071.52
4068.63
4062.26
4052.46
4039.38
4023.19
4004.09
3982.35
3958.24
3932.07
3904.25
3875.18
3845.42
3214.19
3207.07
3201.32
3196.93
3193.89
3192.21
3191.94
3193.02
3195.46
3199.24
3204.4
3210.97
3219
3228.54
3239.64
3252.35
3266.75
3282.85
3300.72
3320.39
3341.88
3365.18
3390.27
3417.07
3445.39
3474.94
3506.06
3538.34
3571.53
3605.28
3639.22
3673.02
3706.25
3738.51
3769.35
3798.33
3825.09
3849.23
3870.38
3888.25
3902.57
3913.11
3919.72
3922.26
3920.43
3914.53
3904.63
3890.84
3873.37
3852.47
3828.47
3801.7
3772.56
3741.45
3708.77
3674.99
3640.53
3605.81
3571.22
3537.13
3503.87
3471.69
3440.65
3411.22
3383.46
3357.45
3333.28
3310.98
3290.55
3271.99
3255.27
3240.35
3227.18
3215.72
3205.9
3197.66
3190.98
3185.78
3182.03
3179.66
3178.6
3178.87
3180.81
3184.23
3189.08
3195.36
3203.05
3212.17
3222.69
3234.64
3248.02
3262.84
3279.13
3296.94
3316.3
3337.25
3359.8
3383.96
3409.7
3436.96
3465.66
3495.67
3526.8
3558.85
3591.58
3624.69
3657.88
3690.77
3723
3754.16
3783.84
3811.62
3837.11
3859.89
3879.61
3895.92
3908.55
3917.24
3921.82
3922.12
3918.22
3910.1
3897.84
3881.65
3861.77
3838.53
3812.3
3783.49
3752.55
3719.95
3686.18
3651.7
3616.98
3582.46
3548.52
3515.53
3483.76
3453.47
3424.84
3398
3373.04
3350.01
3328.95
3309.84
3292.65
3277.34
3263.84
3252.08
3241.97
3233.43
3226.38
3220.72
3216.38
3213.3
3211.45
3210.75
3211.18
3212.74
3215.44
3219.29
3224.32
3230.57
3238.08
3246.92
3257.12
3268.75
3281.88
3296.57
3312.87
3330.84
3350.51
3371.92
3395.05
3419.9
3446.42
3474.53
3504.12
3535.06
3567.07
3599.94
3633.37
3667.02
3700.5
3733.39
3765.24
3795.59
3823.98
3849.94
3873.07
3892.98
3909.31
3921.8
3930.22
3934.42
3934.29
3929.95
3921.42
3908.85
3892.48
3872.58
3849.51
3823.64
3795.41
3765.26
3733.64
3700.99
3667.78
3634.4
3601.26
3568.68
3536.98
3506.39
3477.13
3449.33
3423.13
3398.58
3375.72
3354.57
3335.12
3317.34
3301.19
3286.63
3273.61
3262.08
3252.01
3243.35
3236.06
3230.14
3225.56
3222.3
3220.37
3219.76
3220.45
3222.46
3225.8
3230.47
3236.51
3243.92
3252.74
3263.01
3274.78
3288.11
3303.04
3319.63
3337.91
3357.89
3379.59
3402.96
3427.98
3454.56
3482.61
3511.99
3542.53
3574.02
3606.21
3638.82
3671.54
3704.01
3735.85
3766.67
3796.05
3823.58
3848.87
3871.52
3891.2
3907.58
3920.41
3929.51
3934.74
3935.97
3933.28
3926.68
3916.26
3902.25
3884.91
3864.53
3841.46
3816.05
3788.69
3759.77
3729.66
3698.74
3667.31
3635.61
3603.8
3572.55
3552.71
3526.11
3500.31
3475.62
3452.19
3430.14
3409.54
3390.43
3372.82
3356.73
3342.12
3328.98
3317.28
3306.97
3298.03
3290.43
3284.14
3279.14
3275.42
3272.98
3271.86
3272.03
3273.59
3276.61
3281.11
3287.14
3294.78
3304.11
3315.18
3328.04
3342.74
3359.31
3377.76
3398.07
3420.19
3444.07
3469.62
3496.72
3525.26
3555.11
3582.11
3613.41
3645.06
3676.81
3708.43
3739.61
3770.02
3799.39
3827.39
3853.74
3878.13
3900.25
3919.88
3936.77
3950.69
3961.49
3969.01
3973.17
3973.84
3970.93
3964.54
3954.72
3941.62
3925.39
3906.27
3884.49
3860.33
3834.12
3806.26
3777.15
3747.35
3115.86
3108.75
3103.01
3098.62
3095.59
3093.9
3093.63
3094.71
3097.15
3100.92
3106.08
3112.64
3120.66
3130.19
3141.27
3153.97
3168.35
3184.45
3202.3
3221.97
3243.45
3266.74
3291.84
3318.65
3346.99
3376.54
3407.69
3440
3473.24
3507.04
3541.04
3574.9
3608.2
3640.53
3671.44
3700.5
3727.33
3751.54
3772.75
3790.68
3805.04
3815.62
3822.25
3824.81
3822.97
3817.05
3807.11
3793.28
3775.76
3754.8
3730.73
3703.89
3674.67
3643.48
3610.73
3576.88
3542.35
3507.57
3472.93
3438.79
3405.49
3373.28
3342.23
3312.79
3285.02
3259.01
3234.84
3212.54
3192.13
3173.58
3156.87
3141.96
3128.81
3117.35
3107.55
3099.32
3092.65
3087.45
3083.71
3081.34
3080.29
3080.58
3082.51
3085.93
3090.78
3097.05
3104.74
3113.85
3124.37
3136.31
3149.68
3164.48
3180.76
3198.56
3217.91
3238.85
3261.4
3285.56
3311.3
3338.57
3367.28
3397.32
3428.47
3460.56
3493.33
3526.49
3559.73
3592.68
3624.98
3656.21
3685.96
3713.82
3739.38
3762.23
3782.01
3798.38
3811.05
3819.78
3824.38
3824.68
3820.77
3812.62
3800.33
3784.08
3764.14
3740.83
3714.51
3685.62
3654.6
3621.92
3588.06
3553.52
3518.74
3484.15
3450.17
3417.14
3385.35
3355.04
3326.39
3299.54
3274.58
3251.56
3230.51
3211.41
3194.24
3178.94
3165.46
3153.71
3143.62
3135.09
3128.05
3122.41
3118.08
3115.01
3113.16
3112.47
3112.9
3114.46
3117.15
3121
3126.02
3132.26
3139.77
3148.59
3158.78
3170.4
3183.52
3198.19
3214.48
3232.44
3252.11
3273.51
3296.64
3321.49
3348.02
3376.14
3405.74
3436.7
3468.75
3501.67
3535.15
3568.86
3602.4
3635.37
3667.3
3697.73
3726.19
3752.24
3775.44
3795.41
3811.8
3824.32
3832.77
3836.99
3836.86
3832.49
3823.94
3811.32
3794.89
3774.93
3751.78
3725.84
3697.53
3667.3
3635.6
3602.88
3569.6
3536.17
3502.98
3470.36
3438.62
3408.01
3378.73
3350.93
3324.72
3300.17
3277.32
3256.17
3236.73
3218.96
3202.82
3188.27
3175.26
3163.75
3153.68
3145.02
3137.75
3131.83
3127.25
3123.99
3122.06
3121.45
3122.14
3124.15
3127.48
3132.16
3138.19
3145.59
3154.4
3164.67
3176.43
3189.74
3204.66
3221.24
3239.51
3259.49
3281.18
3304.56
3329.58
3356.18
3384.24
3413.63
3444.2
3475.72
3507.96
3540.62
3573.39
3605.92
3637.83
3668.72
3698.17
3725.78
3751.13
3773.85
3793.58
3810.02
3822.89
3832.02
3837.27
3838.51
3835.79
3829.17
3818.72
3804.68
3787.28
3766.85
3743.71
3718.24
3690.81
3661.83
3631.65
3600.67
3569.19
3537.46
3505.64
3474.49
3454.23
3427.71
3401.92
3377.24
3353.81
3331.76
3311.16
3292.05
3274.45
3258.37
3243.77
3230.64
3218.94
3208.65
3199.72
3192.12
3185.83
3180.84
3177.12
3174.68
3173.55
3173.72
3175.27
3178.28
3182.76
3188.78
3196.42
3205.73
3216.78
3229.63
3244.33
3260.89
3279.34
3299.65
3321.77
3345.66
3371.22
3398.33
3426.88
3456.73
3483.87
3515.19
3546.86
3578.65
3610.31
3641.54
3672
3701.42
3729.48
3755.89
3780.33
3802.51
3822.18
3839.11
3853.07
3863.89
3871.44
3875.61
3876.29
3873.36
3866.95
3857.1
3843.97
3827.7
3808.53
3786.7
3762.49
3736.22
3708.3
3679.14
3649.28
3017.47
3010.37
3004.64
3000.26
2997.23
2995.53
2995.27
2996.35
2998.78
3002.55
3007.69
3014.25
3022.25
3031.77
3042.84
3055.52
3069.89
3085.97
3103.81
3123.46
3144.94
3168.23
3193.32
3220.14
3248.51
3278.06
3309.24
3341.61
3374.9
3408.76
3442.83
3476.77
3510.16
3542.58
3573.59
3602.74
3629.65
3653.95
3675.24
3693.24
3707.66
3718.28
3724.94
3727.52
3725.67
3719.72
3709.74
3695.86
3678.28
3657.24
3633.08
3606.15
3576.84
3545.55
3512.71
3478.76
3444.16
3409.29
3374.59
3340.4
3307.05
3274.8
3243.73
3214.28
3186.49
3160.48
3136.32
3114.02
3093.62
3075.08
3058.39
3043.5
3030.36
3018.92
3009.13
3000.92
2994.25
2989.07
2985.33
2982.97
2981.93
2982.23
2984.17
2987.58
2992.43
2998.69
3006.38
3015.48
3025.99
3037.92
3051.27
3066.06
3082.33
3100.11
3119.45
3140.39
3162.93
3187.09
3212.83
3240.1
3268.84
3298.9
3330.09
3362.22
3395.03
3428.26
3461.56
3494.6
3526.97
3558.29
3588.14
3616.09
3641.74
3664.68
3684.54
3700.99
3713.71
3722.48
3727.1
3727.42
3723.49
3715.31
3702.96
3686.65
3666.62
3643.22
3616.81
3587.81
3556.68
3523.9
3489.95
3455.31
3420.45
3385.79
3351.75
3318.68
3286.85
3256.52
3227.86
3201
3176.04
3153.03
3131.98
3112.9
3095.74
3080.46
3067
3055.27
3045.2
3036.7
3029.67
3024.04
3019.73
3016.68
3014.83
3014.14
3014.58
3016.13
3018.82
3022.66
3027.67
3033.91
3041.4
3050.21
3060.39
3071.99
3085.09
3099.75
3116.03
3133.97
3153.63
3175.02
3198.15
3223
3249.53
3277.67
3307.3
3338.29
3370.38
3403.34
3436.89
3470.67
3504.3
3537.36
3569.39
3599.92
3628.48
3654.63
3677.92
3697.97
3714.43
3727.01
3735.49
3739.72
3739.6
3735.21
3726.61
3713.94
3697.43
3677.38
3654.14
3628.11
3599.7
3569.37
3537.57
3504.77
3471.41
3437.91
3404.65
3371.98
3340.2
3309.56
3280.26
3252.45
3226.23
3201.68
3178.84
3157.7
3138.27
3120.51
3104.39
3089.85
3076.86
3065.35
3055.29
3046.65
3039.38
3033.46
3028.88
3025.63
3023.7
3023.09
3023.78
3025.79
3029.12
3033.78
3039.81
3047.21
3056.01
3066.26
3078.01
3091.31
3106.21
3122.78
3141.04
3161.02
3182.7
3206.08
3231.11
3257.71
3285.79
3315.21
3345.81
3377.38
3409.67
3442.38
3475.22
3507.83
3539.83
3570.8
3600.35
3628.04
3653.49
3676.28
3696.09
3712.59
3725.51
3734.68
3739.95
3741.2
3738.47
3731.81
3721.33
3707.23
3689.77
3669.27
3646.05
3620.5
3592.99
3563.92
3533.66
3502.61
3471.06
3439.28
3407.47
3376.42
3355.68
3329.24
3303.47
3278.79
3255.35
3233.3
3212.71
3193.61
3176.02
3159.94
3145.36
3132.24
3120.55
3110.27
3101.34
3093.76
3087.48
3082.48
3078.77
3076.33
3075.2
3075.35
3076.9
3079.89
3084.36
3090.37
3097.98
3107.28
3118.32
3131.16
3145.84
3162.39
3180.84
3201.15
3223.27
3247.17
3272.74
3299.86
3328.42
3358.26
3385.61
3416.93
3448.64
3480.47
3512.19
3543.47
3574
3603.5
3631.62
3658.09
3682.6
3704.84
3724.58
3741.56
3755.57
3766.42
3773.99
3778.17
3778.87
3775.93
3769.49
3759.61
3746.43
3730.12
3710.88
3688.99
3664.71
3638.38
3610.39
3581.15
3551.23
2919.02
2911.93
2906.21
2901.84
2898.82
2897.12
2896.86
2897.94
2900.36
2904.12
2909.25
2915.79
2923.79
2933.28
2944.34
2957.01
2971.35
2987.42
3005.24
3024.88
3046.34
3069.63
3094.73
3121.56
3149.95
3179.51
3210.73
3243.15
3276.51
3310.45
3344.6
3378.64
3412.13
3444.66
3475.78
3505.04
3532.06
3556.46
3577.85
3595.93
3610.42
3621.09
3627.78
3630.38
3628.53
3622.56
3612.52
3598.58
3580.92
3559.79
3535.53
3508.48
3479.05
3447.65
3414.69
3380.64
3345.94
3310.98
3276.2
3241.94
3208.54
3176.25
3145.15
3115.67
3087.88
3061.87
3037.71
3015.42
2995.03
2976.51
2959.84
2944.96
2931.84
2920.42
2910.65
2902.46
2895.81
2890.64
2886.9
2884.54
2883.53
2883.84
2885.78
2889.18
2894.03
2900.28
2907.96
2917.05
2927.55
2939.47
2952.81
2967.58
2983.83
3001.59
3020.92
3041.84
3064.38
3088.53
3114.28
3141.57
3170.32
3200.41
3231.64
3263.82
3296.7
3330
3363.39
3396.51
3428.99
3460.42
3490.38
3518.44
3544.2
3567.24
3587.2
3603.73
3616.52
3625.34
3629.99
3630.33
3626.38
3618.15
3605.74
3589.34
3569.23
3545.71
3519.18
3490.05
3458.8
3425.89
3391.83
3357.08
3322.12
3287.38
3253.27
3220.14
3188.27
3157.91
3129.23
3102.37
3077.41
3054.41
3033.37
3014.31
2997.17
2981.91
2968.47
2956.77
2946.72
2938.24
2931.24
2925.63
2921.34
2918.29
2916.45
2915.77
2916.21
2917.76
2920.45
2924.28
2929.28
2935.5
2942.98
2951.78
2961.93
2973.52
2986.6
3001.24
3017.5
3035.43
3055.07
3076.46
3099.58
3124.43
3150.97
3179.13
3208.78
3239.81
3271.95
3304.97
3338.6
3372.47
3406.2
3439.37
3471.51
3502.17
3530.85
3557.12
3580.52
3600.67
3617.21
3629.85
3638.38
3642.62
3642.5
3638.09
3629.43
3616.69
3600.1
3579.95
3556.6
3530.45
3501.92
3471.47
3439.56
3406.66
3373.2
3339.61
3306.27
3273.55
3241.72
3211.04
3181.72
3153.89
3127.67
3103.12
3080.28
3059.16
3039.74
3022
3005.89
2991.37
2978.39
2966.9
2956.85
2948.21
2940.95
2935.04
2930.47
2927.22
2925.29
2924.68
2925.37
2927.37
2930.7
2935.36
2941.38
2948.77
2957.56
2967.79
2979.52
2992.8
3007.7
3024.25
3042.5
3062.46
3084.15
3107.53
3132.56
3159.18
3187.28
3216.73
3247.37
3278.99
3311.34
3344.13
3377.05
3409.75
3441.84
3472.92
3502.58
3530.38
3555.93
3578.83
3598.73
3615.3
3628.28
3637.5
3642.79
3644.04
3641.3
3634.61
3624.07
3609.92
3592.39
3571.8
3548.48
3522.83
3495.22
3466.05
3435.7
3404.55
3372.92
3341.08
3309.26
3278.33
3257.07
3230.71
3204.95
3180.26
3156.83
3134.78
3114.19
3095.09
3077.52
3061.45
3046.88
3033.78
3022.1
3011.83
3002.92
2995.34
2989.07
2984.08
2980.37
2977.93
2976.79
2976.93
2978.47
2981.45
2985.9
2991.89
2999.48
3008.76
3019.78
3032.6
3047.27
3063.82
3082.26
3102.56
3124.69
3148.6
3174.18
3201.32
3229.88
3259.71
3287.33
3318.64
3350.38
3382.27
3414.06
3445.42
3476.03
3505.6
3533.81
3560.36
3584.95
3607.27
3627.08
3644.12
3658.18
3669.08
3676.68
3680.88
3681.58
3678.63
3672.16
3662.24
3649.01
3632.63
3613.33
3591.36
3567
3540.58
3512.5
3483.18
3453.18
2820.52
2813.44
2807.73
2803.37
2800.36
2798.66
2798.4
2799.47
2801.89
2805.64
2810.76
2817.28
2825.26
2834.74
2845.77
2858.42
2872.74
2888.78
2906.59
2926.21
2947.66
2970.94
2996.05
3022.89
3051.32
3080.87
3112.15
3144.63
3178.07
3212.1
3246.35
3280.49
3314.11
3346.76
3378.01
3407.41
3434.56
3459.08
3480.58
3498.76
3513.33
3524.06
3530.79
3533.41
3531.55
3525.54
3515.45
3501.44
3483.68
3462.44
3438.06
3410.89
3381.32
3349.79
3316.7
3282.52
3247.69
3212.64
3177.76
3143.42
3109.95
3077.61
3046.49
3016.99
2989.18
2963.17
2939.01
2916.74
2896.36
2877.86
2861.21
2846.36
2833.26
2821.86
2812.11
2803.94
2797.3
2792.14
2788.42
2786.07
2785.07
2785.4
2787.33
2790.73
2795.57
2801.83
2809.49
2818.57
2829.06
2840.96
2854.28
2869.04
2885.26
2903.01
2922.32
2943.23
2965.75
2989.9
3015.66
3042.96
3071.73
3101.86
3133.14
3165.38
3198.33
3231.71
3265.2
3298.43
3331.03
3362.58
3392.67
3420.86
3446.75
3469.92
3489.99
3506.61
3519.49
3528.37
3533.05
3533.4
3529.43
3521.15
3508.67
3492.18
3471.95
3448.3
3421.63
3392.36
3360.96
3327.91
3293.7
3258.83
3223.76
3188.92
3154.72
3121.53
3089.61
3059.22
3030.52
3003.65
2978.7
2955.7
2934.68
2915.63
2898.52
2883.29
2869.88
2858.2
2848.18
2839.72
2832.74
2827.16
2822.89
2819.86
2818.03
2817.36
2817.8
2819.35
2822.03
2825.84
2830.84
2837.04
2844.51
2853.28
2863.42
2874.98
2888.04
2902.66
2918.9
2936.81
2956.44
2977.81
3000.93
3025.79
3052.34
3080.51
3110.2
3141.26
3173.46
3206.56
3240.27
3274.25
3308.1
3341.4
3373.68
3404.47
3433.3
3459.7
3483.24
3503.5
3520.14
3532.86
3541.43
3545.7
3545.58
3541.13
3532.41
3519.59
3502.9
3482.63
3459.16
3432.87
3404.2
3373.61
3341.57
3308.54
3274.96
3241.27
3207.85
3175.05
3143.17
3112.45
3083.1
3055.25
3029.02
3004.48
2981.65
2960.54
2941.14
2923.42
2907.33
2892.83
2879.86
2868.39
2858.35
2849.73
2842.47
2836.57
2832
2828.75
2826.83
2826.22
2826.91
2828.9
2832.23
2836.88
2842.89
2850.27
2859.04
2869.26
2880.97
2894.24
2909.11
2925.64
2943.88
2963.84
2985.51
3008.89
3033.94
3060.57
3088.7
3118.18
3148.87
3180.55
3212.97
3245.84
3278.86
3311.67
3343.88
3375.08
3404.86
3432.8
3458.47
3481.48
3501.48
3518.15
3531.2
3540.46
3545.78
3547.05
3544.29
3537.56
3526.97
3512.74
3495.12
3474.43
3451
3425.24
3397.51
3368.22
3337.76
3306.5
3274.78
3242.87
3211.03
3180.2
3158.4
3132.11
3106.36
3081.67
3058.23
3036.18
3015.59
2996.51
2978.95
2962.9
2948.34
2935.25
2923.6
2913.34
2904.44
2896.87
2890.6
2885.62
2881.91
2879.48
2878.32
2878.46
2879.98
2882.95
2887.38
2893.34
2900.92
2910.17
2921.17
2933.97
2948.62
2965.16
2983.59
3003.9
3026.03
3049.95
3075.55
3102.71
3131.28
3161.09
3189.01
3220.31
3252.1
3284.05
3315.92
3347.37
3378.07
3407.74
3436.05
3462.69
3487.37
3509.79
3529.67
3546.79
3560.92
3571.87
3579.5
3583.71
3584.42
3581.47
3574.96
3564.99
3551.7
3535.25
3515.86
3493.8
3469.35
3442.83
3414.66
3385.24
3355.14
2721.95
2714.89
2709.2
2704.85
2701.85
2700.15
2699.89
2700.96
2703.37
2707.1
2712.21
2718.71
2726.67
2736.13
2747.13
2759.76
2774.06
2790.08
2807.86
2827.46
2848.9
2872.18
2897.28
2924.15
2952.61
2982.16
3013.5
3046.06
3079.58
3113.71
3148.07
3182.34
3216.09
3248.9
3280.3
3309.84
3337.14
3361.8
3383.43
3401.72
3416.38
3427.18
3433.96
3436.6
3434.73
3428.68
3418.53
3404.43
3386.57
3365.21
3340.68
3313.36
3283.64
3251.95
3218.71
3184.39
3149.43
3114.25
3079.27
3044.84
3011.3
2978.9
2947.75
2918.22
2890.4
2864.38
2840.23
2817.97
2797.61
2779.13
2762.5
2747.68
2734.61
2723.23
2713.5
2705.35
2698.74
2693.6
2689.89
2687.55
2686.56
2686.91
2688.84
2692.24
2697.07
2703.32
2710.97
2720.04
2730.51
2742.39
2755.69
2770.43
2786.63
2804.35
2823.64
2844.54
2867.05
2891.2
2916.96
2944.27
2973.08
3003.25
3034.58
3066.89
3099.92
3133.4
3167
3200.35
3233.08
3264.78
3295.01
3323.36
3349.39
3372.7
3392.9
3409.64
3422.61
3431.55
3436.27
3436.64
3432.64
3424.31
3411.75
3395.15
3374.78
3350.99
3324.15
3294.72
3263.15
3229.93
3195.57
3160.56
3125.35
3090.4
3056.11
3022.84
2990.87
2960.44
2931.72
2904.85
2879.89
2856.9
2835.9
2816.87
2799.79
2784.59
2771.21
2759.56
2749.57
2741.15
2734.2
2728.64
2724.39
2721.38
2719.57
2718.9
2719.34
2720.89
2723.56
2727.37
2732.35
2738.54
2745.98
2754.74
2764.85
2776.39
2789.42
2804.01
2820.23
2838.12
2857.73
2879.09
2902.21
2927.06
2953.62
2981.82
3011.54
3042.65
3074.91
3108.1
3141.91
3176.01
3209.99
3243.44
3275.88
3306.84
3335.83
3362.39
3386.07
3406.47
3423.22
3436.02
3444.65
3448.94
3448.82
3444.33
3435.55
3422.64
3405.83
3385.43
3361.8
3335.36
3306.53
3275.78
3243.59
3210.41
3176.71
3142.9
3109.38
3076.5
3044.56
3013.79
2984.4
2956.54
2930.3
2905.76
2882.94
2861.85
2842.47
2824.76
2808.69
2794.22
2781.27
2769.82
2759.8
2751.18
2743.94
2738.04
2733.48
2730.24
2728.31
2727.7
2728.39
2730.39
2733.7
2738.35
2744.35
2751.71
2760.47
2770.67
2782.36
2795.6
2810.45
2826.97
2845.19
2865.13
2886.81
2910.18
2935.24
2961.89
2990.04
3019.57
3050.31
3082.06
3114.56
3147.53
3180.65
3213.58
3245.93
3277.28
3307.21
3335.29
3361.1
3384.25
3404.36
3421.13
3434.27
3443.58
3448.94
3450.21
3447.43
3440.66
3430
3415.69
3397.97
3377.16
3353.61
3327.71
3299.85
3270.43
3239.84
3208.46
3176.63
3144.63
3112.77
3082.03
3059.69
3033.45
3007.71
2983.01
2959.56
2937.51
2916.93
2897.86
2880.31
2864.28
2849.74
2836.67
2825.03
2814.79
2805.9
2798.35
2792.09
2787.11
2783.41
2780.97
2779.81
2779.93
2781.45
2784.39
2788.8
2794.74
2802.28
2811.51
2822.48
2835.27
2849.9
2866.42
2884.85
2905.15
2927.29
2951.23
2976.84
3004.02
3032.62
3062.41
3090.64
3121.94
3153.79
3185.82
3217.78
3249.33
3280.13
3309.91
3338.33
3365.08
3389.87
3412.39
3432.37
3449.58
3463.77
3474.78
3482.45
3486.69
3487.4
3484.44
3477.89
3467.87
3454.5
3437.98
3418.49
3396.32
3371.76
3345.13
3316.85
3287.32
3257.11
2623.33
2616.29
2610.61
2606.28
2603.28
2601.59
2601.32
2602.39
2604.79
2608.51
2613.6
2620.09
2628.02
2637.45
2648.43
2661.03
2675.3
2691.29
2709.05
2728.63
2750.05
2773.32
2798.44
2825.32
2853.82
2883.37
2914.77
2947.42
2981.04
3015.28
3049.77
3084.19
3118.09
3151.06
3182.63
3212.34
3239.8
3264.62
3286.4
3304.81
3319.58
3330.45
3337.28
3339.95
3338.07
3331.99
3321.76
3307.56
3289.59
3268.08
3243.4
3215.91
3186.02
3154.15
3120.74
3086.25
3051.15
3015.83
2980.73
2946.2
2912.58
2880.12
2848.92
2819.36
2791.52
2765.5
2741.36
2719.11
2698.78
2680.32
2663.72
2648.93
2635.88
2624.54
2614.83
2606.71
2600.11
2594.99
2591.3
2588.97
2588
2588.36
2590.3
2593.69
2598.52
2604.75
2612.4
2621.45
2631.9
2643.77
2657.05
2671.75
2687.93
2705.63
2724.9
2745.77
2768.28
2792.42
2818.18
2845.52
2874.35
2904.57
2935.96
2968.34
3001.47
3035.06
3068.78
3102.27
3135.16
3167.01
3197.41
3225.93
3252.13
3275.6
3295.95
3312.81
3325.88
3334.9
3339.67
3340.05
3336.03
3327.63
3314.98
3298.25
3277.74
3253.78
3226.76
3197.14
3165.38
3131.98
3097.44
3062.26
3026.91
2991.83
2957.43
2924.08
2892.05
2861.58
2832.83
2805.95
2781
2758.02
2737.03
2718.03
2700.98
2685.81
2672.47
2660.86
2650.91
2642.51
2635.6
2630.07
2625.84
2622.86
2621.06
2620.39
2620.84
2622.39
2625.05
2628.84
2633.81
2639.98
2647.4
2656.13
2666.22
2677.73
2690.73
2705.3
2721.48
2739.35
2758.95
2780.29
2803.4
2828.26
2854.83
2883.05
2912.81
2943.97
2976.31
3009.59
3043.52
3077.75
3111.89
3145.5
3178.12
3209.26
3238.44
3265.18
3289.02
3309.57
3326.44
3339.35
3348.04
3352.36
3352.24
3347.7
3338.85
3325.82
3308.88
3288.34
3264.54
3237.92
3208.91
3177.99
3145.62
3112.28
3078.43
3044.49
3010.86
2977.9
2945.88
2915.05
2885.63
2857.74
2831.5
2806.96
2784.16
2763.08
2743.72
2726.04
2710
2695.54
2682.62
2671.19
2661.19
2652.59
2645.35
2639.47
2634.91
2631.67
2629.75
2629.13
2629.82
2631.81
2635.12
2639.76
2645.75
2653.1
2661.84
2672.02
2683.69
2696.9
2711.72
2728.22
2746.42
2766.35
2788.02
2811.4
2836.46
2863.13
2891.32
2920.89
2951.68
2983.52
3016.11
3049.18
3082.44
3115.5
3148
3179.51
3209.6
3237.85
3263.82
3287.12
3307.37
3324.25
3337.48
3346.86
3352.25
3353.53
3350.73
3343.91
3333.18
3318.77
3300.94
3280
3256.31
3230.26
3202.24
3172.67
3141.94
3110.42
3078.46
3046.37
3014.48
2983.82
2960.94
2934.73
2908.99
2884.27
2860.82
2838.76
2818.19
2799.14
2781.61
2765.6
2751.08
2738.03
2726.41
2716.18
2707.32
2699.77
2693.53
2688.56
2684.85
2682.42
2681.25
2681.36
2682.85
2685.78
2690.16
2696.07
2703.58
2712.78
2723.72
2736.48
2751.1
2767.6
2786.02
2806.32
2828.47
2852.42
2878.06
2905.26
2933.88
2963.68
2992.21
3023.54
3055.45
3087.57
3119.63
3151.29
3182.22
3212.12
3240.66
3267.54
3292.45
3315.08
3335.17
3352.47
3366.75
3377.82
3385.54
3389.8
3390.52
3387.54
3380.95
3370.86
3357.42
3340.8
3321.21
3298.93
3274.23
3247.48
3219.07
3189.42
3159.09
2524.65
2517.63
2511.97
2507.65
2504.67
2502.98
2502.71
2503.77
2506.16
2509.87
2514.93
2521.4
2529.31
2538.71
2549.67
2562.23
2576.48
2592.43
2610.16
2629.71
2651.12
2674.39
2699.5
2726.41
2754.96
2784.49
2815.98
2848.72
2882.45
2916.81
2951.44
2986.02
3020.1
3053.25
3085.01
3114.91
3142.55
3167.55
3189.48
3208.04
3222.92
3233.88
3240.77
3243.46
3241.57
3235.44
3225.14
3210.84
3192.73
3171.06
3146.2
3118.53
3088.44
3056.38
3022.78
2988.11
2952.84
2917.37
2882.14
2847.5
2813.78
2781.25
2750.01
2720.42
2692.56
2666.54
2642.4
2620.17
2599.86
2581.44
2564.87
2550.1
2537.09
2525.78
2516.1
2508.01
2501.43
2496.34
2492.66
2490.35
2489.39
2489.77
2491.7
2495.09
2499.91
2506.14
2513.78
2522.81
2533.25
2545.09
2558.34
2573.02
2589.16
2606.84
2626.08
2646.93
2669.42
2693.56
2719.33
2746.68
2775.55
2805.82
2837.28
2869.75
2902.97
2936.68
2970.54
3004.19
3037.25
3069.28
3099.87
3128.58
3154.96
3178.61
3199.12
3216.13
3229.32
3238.42
3243.24
3243.63
3239.58
3231.12
3218.35