/*--------------------------------*- C++ -*----------------------------------*\
| =========                 |                                                 |
| \\      /  F ield         | OpenFOAM: The Open Source CFD Toolbox           |
|  \\    /   O peration     | Version:  3.0.1                                 |
|   \\  /    A nd           | Web:      www.OpenFOAM.org                      |
|    \\/     M anipulation  |                                                 |
\*---------------------------------------------------------------------------*/
FoamFile
{
    version     2.0;
    format      ascii;
    class       volVectorField;
    location    "80.6";
    object      U;
}
// * * * * * * * * * * * * * * * * * * * * * * * * * * * * * * * * * * * * * //

dimensions      [0 1 -1 0 0 0 0];

internalField   nonuniform List<vector> 
21420
(
(0.2124 0.000618539 0)
(0.20584 0.000836161 0)
(0.196316 0.00104884 0)
(0.184773 0.00124686 0)
(0.171432 0.00139975 0)
(0.156529 0.00155259 0)
(0.140313 0.00164984 0)
(0.123053 0.00175177 0)
(0.105008 0.00182982 0)
(0.0864352 0.00184686 0)
(0.067583 0.00187516 0)
(0.0486684 0.00188064 0)
(0.0298223 0.00183416 0)
(0.011266 0.00179856 0)
(-0.00648546 0.00172692 0)
(-0.0234912 0.00166624 0)
(-0.0398911 0.00159353 0)
(-0.0554569 0.00149452 0)
(-0.0701197 0.00140848 0)
(-0.0838338 0.00131679 0)
(-0.0965704 0.00121204 0)
(-0.108323 0.00111802 0)
(-0.119094 0.00102306 0)
(-0.128895 0.000923835 0)
(-0.137748 0.000832747 0)
(-0.14568 0.00074036 0)
(-0.152721 0.000654788 0)
(-0.158902 0.000571527 0)
(-0.164254 0.000489743 0)
(-0.168808 0.000412182 0)
(-0.172592 0.000336688 0)
(-0.175632 0.000262756 0)
(-0.177953 0.000190905 0)
(-0.179571 0.000120394 0)
(-0.180475 5.3225e-05 0)
(-0.180709 -1.37473e-05 0)
(-0.180223 -8.58334e-05 0)
(-0.179039 -0.000156848 0)
(-0.177127 -0.000228148 0)
(-0.174492 -0.00030269 0)
(-0.17111 -0.000376942 0)
(-0.166963 -0.000456657 0)
(-0.162027 -0.000534941 0)
(-0.156252 -0.000616277 0)
(-0.149602 -0.000706944 0)
(-0.142057 -0.000790726 0)
(-0.133595 -0.000878381 0)
(-0.12414 -0.000981944 0)
(-0.113677 -0.00107072 0)
(-0.102299 -0.00116144 0)
(-0.0898181 -0.00127264 0)
(-0.0763742 -0.00136389 0)
(-0.061926 -0.00146974 0)
(-0.0464378 -0.00156402 0)
(-0.030258 -0.0016209 0)
(-0.0132361 -0.00173049 0)
(0.00403186 -0.00176822 0)
(0.0217082 -0.00180808 0)
(0.0401791 -0.00185457 0)
(0.0589342 -0.00185564 0)
(0.0776928 -0.00185372 0)
(0.096238 -0.00181943 0)
(0.114306 -0.00174934 0)
(0.131596 -0.00167034 0)
(0.147898 -0.00156462 0)
(0.162967 -0.0014204 0)
(0.176545 -0.00127264 0)
(0.188451 -0.00108892 0)
(0.19849 -0.000908223 0)
(0.206529 -0.000699148 0)
(0.212411 -0.000477172 0)
(0.216049 -0.000250574 0)
(0.2173 -2.33753e-05 0)
(0.216267 0.000215638 0)
(0.212762 0.000446695 0)
(0.207023 0.000672878 0)
(0.199092 0.000879995 0)
(0.189055 0.0010824 0)
(0.177106 0.0012585 0)
(0.163514 0.00141555 0)
(0.148438 0.00155463 0)
(0.13212 0.00166323 0)
(0.114872 0.00174276 0)
(0.0969343 0.00180737 0)
(0.0785178 0.00183198 0)
(0.0599303 0.0018453 0)
(0.04137 0.00182773 0)
(0.0230592 0.0017955 0)
(0.00522771 0.00174561 0)
(-0.0119981 0.00167801 0)
(-0.0285391 0.00160564 0)
(-0.0443112 0.00152977 0)
(-0.0592813 0.00144764 0)
(-0.0734117 0.00136353 0)
(-0.0866675 0.00127386 0)
(-0.0990214 0.00117998 0)
(-0.110412 0.00108061 0)
(-0.120811 0.000984364 0)
(-0.13022 0.000881772 0)
(-0.138626 0.00078062 0)
(-0.146015 0.0006848 0)
(-0.152399 0.000582801 0)
(-0.157817 0.000500192 0)
(-0.162347 0.000408084 0)
(-0.166028 0.000322234 0)
(-0.168891 0.000242951 0)
(-0.171007 0.000175817 0)
(-0.172369 0.000105034 0)
(-0.173062 3.05752e-05 0)
(-0.173085 -2.77858e-05 0)
(-0.172433 -9.93886e-05 0)
(-0.171113 -0.000162366 0)
(-0.169132 -0.000225967 0)
(-0.166488 -0.000295585 0)
(-0.163158 -0.000362846 0)
(-0.159185 -0.000433553 0)
(-0.154465 -0.000494142 0)
(-0.14903 -0.000569079 0)
(-0.142923 -0.000647777 0)
(-0.136056 -0.000719324 0)
(-0.128429 -0.000787561 0)
(-0.12006 -0.000867034 0)
(-0.11095 -0.000941704 0)
(-0.10107 -0.0010168 0)
(-0.0904402 -0.00108959 0)
(-0.0790377 -0.00117056 0)
(-0.0669136 -0.00124977 0)
(-0.0539832 -0.00130803 0)
(-0.0402994 -0.00139209 0)
(-0.0259732 -0.00146471 0)
(-0.0109294 -0.00151653 0)
(0.00478266 -0.00158621 0)
(0.0210191 -0.0016288 0)
(0.037674 -0.00167042 0)
(0.0546215 -0.00169144 0)
(0.0717258 -0.00170162 0)
(0.0888005 -0.00168401 0)
(0.105627 -0.00165139 0)
(0.121987 -0.00159173 0)
(0.137635 -0.00150851 0)
(0.152301 -0.00139687 0)
(0.165755 -0.00126711 0)
(0.177741 -0.00111047 0)
(0.188041 -0.000927763 0)
(0.196417 -0.000730937 0)
(0.202727 -0.00051571 0)
(0.206796 -0.000290091 0)
(0.208509 -5.4814e-05 0)
(0.207894 0.0001793 0)
(0.204769 0.000429716 0)
(0.199264 0.000660722 0)
(0.191467 0.000884196 0)
(0.18147 0.00109366 0)
(0.169483 0.001282 0)
(0.155685 0.00145323 0)
(0.140323 0.00159308 0)
(0.1237 0.00170572 0)
(0.106084 0.00178671 0)
(0.0877724 0.00184094 0)
(0.0690502 0.00187371 0)
(0.0501898 0.00187278 0)
(0.0314534 0.00184619 0)
(0.0130706 0.00180365 0)
(-0.00478044 0.00174114 0)
(-0.0219283 0.00166 0)
(-0.0382462 0.00157667 0)
(-0.0536326 0.00148065 0)
(-0.0680633 0.00138567 0)
(-0.0814869 0.00127833 0)
(-0.0938348 0.00117577 0)
(-0.105132 0.00107299 0)
(-0.115421 0.000972913 0)
(-0.124715 0.000872199 0)
(-0.133049 0.000783574 0)
(-0.140489 0.000692297 0)
(-0.147065 0.00060865 0)
(-0.152803 0.000531919 0)
(-0.157772 0.000453798 0)
(-0.161981 0.000375163 0)
(-0.165427 0.000315113 0)
(-0.168197 0.000241157 0)
(-0.170312 0.000179361 0)
(-0.171802 0.000117062 0)
(-0.17268 6.16606e-05 0)
(-0.173004 -2.98086e-07 0)
(-0.172744 -6.04528e-05 0)
(-0.171876 -0.000108429 0)
(-0.170446 -0.000167764 0)
(-0.16844 -0.000228474 0)
(-0.165814 -0.000288825 0)
(-0.162621 -0.000355124 0)
(-0.158778 -0.000400612 0)
(-0.154387 -0.000464445 0)
(-0.149418 -0.000520357 0)
(-0.143818 -0.000584916 0)
(-0.137621 -0.000646813 0)
(-0.130764 -0.000712249 0)
(-0.123203 -0.000784805 0)
(-0.114933 -0.00085799 0)
(-0.105892 -0.000934656 0)
(-0.096063 -0.00101043 0)
(-0.0854427 -0.00109619 0)
(-0.0740493 -0.00117655 0)
(-0.0618211 -0.00124845 0)
(-0.0487468 -0.00133309 0)
(-0.0349506 -0.00141248 0)
(-0.0204211 -0.00146849 0)
(-0.00516772 -0.00153902 0)
(0.0106502 -0.00159259 0)
(0.0269367 -0.001633 0)
(0.043543 -0.00165726 0)
(0.0602868 -0.00166673 0)
(0.0769945 -0.00165647 0)
(0.0934581 -0.00160633 0)
(0.109409 -0.0015507 0)
(0.124641 -0.00147077 0)
(0.1389 -0.00135809 0)
(0.151945 -0.00121937 0)
(0.163485 -0.00106194 0)
(0.17331 -0.000880791 0)
(0.181169 -0.000677932 0)
(0.186923 -0.00046381 0)
(0.190433 -0.000229824 0)
(0.191554 4.28383e-06 0)
(0.19034 0.000242302 0)
(0.186597 0.000484635 0)
(0.180581 0.00070233 0)
(0.172421 0.000919565 0)
(0.162217 0.00110384 0)
(0.150224 0.0012728 0)
(0.136686 0.00141172 0)
(0.12186 0.00152772 0)
(0.106023 0.0016176 0)
(0.0894213 0.00167488 0)
(0.0723151 0.00171905 0)
(0.0549436 0.00172709 0)
(0.037557 0.00172145 0)
(0.0203336 0.0016992 0)
(0.00344552 0.00165043 0)
(-0.0129173 0.00159953 0)
(-0.0286631 0.00153252 0)
(-0.0436937 0.00145559 0)
(-0.0579366 0.00137325 0)
(-0.0713878 0.00129038 0)
(-0.0839944 0.00120983 0)
(-0.095768 0.00112655 0)
(-0.106708 0.00104367 0)
(-0.116824 0.000961477 0)
(-0.12614 0.000881504 0)
(-0.134638 0.000809022 0)
(-0.14234 0.000726607 0)
(-0.149263 0.000645114 0)
(-0.15535 0.000562967 0)
(-0.160623 0.000483896 0)
(-0.165115 0.00040646 0)
(-0.168834 0.000332058 0)
(-0.171833 0.000268924 0)
(-0.174181 0.000197382 0)
(-0.175931 0.000145244 0)
(-0.177142 9.58872e-05 0)
(-0.177823 4.25224e-05 0)
(-0.178032 -1.09858e-05 0)
(-0.17761 -5.58008e-05 0)
(-0.176633 -0.000121291 0)
(-0.175178 -0.000172248 0)
(-0.172944 -0.000243096 0)
(-0.170115 -0.000308881 0)
(-0.166666 -0.000376935 0)
(-0.16236 -0.000442952 0)
(-0.157426 -0.000514067 0)
(-0.151799 -0.000592232 0)
(-0.145295 -0.000665136 0)
(-0.138063 -0.000743739 0)
(-0.130154 -0.000814787 0)
(-0.1214 -0.000894088 0)
(-0.111899 -0.000974032 0)
(-0.101572 -0.00106139 0)
(-0.0903248 -0.00115618 0)
(-0.0781993 -0.00124622 0)
(-0.0650795 -0.00135311 0)
(-0.0510487 -0.00145482 0)
(-0.0361433 -0.00156204 0)
(-0.0202006 -0.00166919 0)
(-0.00163618 -0.00176688 0)
(0.0190207 -0.00187294 0)
(0.0399364 -0.00193338 0)
(0.0609971 -0.00193802 0)
(0.0818297 -0.00192752 0)
(0.102158 -0.00187243 0)
(0.121607 -0.0018 0)
(0.140022 -0.00170422 0)
(0.157089 -0.00157332 0)
(0.172532 -0.00142915 0)
(0.186223 -0.0012629 0)
(0.197906 -0.00106348 0)
(0.207355 -0.000852992 0)
(0.214466 -0.000625976 0)
(0.21904 -0.000371524 0)
(0.220986 -0.000124182 0)
(0.220573 0.000129448 0)
(0.217783 0.000373081 0)
(0.212728 0.000613655 0)
(0.205368 0.000853108 0)
(0.195814 0.00104821 0)
(0.184311 0.00123821 0)
(0.171021 0.00141092 0)
(0.156238 0.00152773 0)
(0.140271 0.00164164 0)
(0.123344 0.00170181 0)
(0.105844 0.0017608 0)
(0.0879038 0.00179487 0)
(0.0698778 0.00178211 0)
(0.0519126 0.00177087 0)
(0.0341695 0.00173872 0)
(0.0169245 0.00168202 0)
(0.000141291 0.00161785 0)
(-0.0158888 0.00153396 0)
(-0.031017 0.0014578 0)
(-0.0452811 0.00137433 0)
(-0.0586404 0.00127735 0)
(-0.0710776 0.00118899 0)
(-0.0825839 0.00109863 0)
(-0.0931602 0.00100297 0)
(-0.102822 0.000915056 0)
(-0.111589 0.000824819 0)
(-0.119488 0.000741684 0)
(-0.126547 0.000660637 0)
(-0.132796 0.000580438 0)
(-0.138267 0.00050534 0)
(-0.142987 0.000432575 0)
(-0.146984 0.0003615 0)
(-0.150281 0.000293439 0)
(-0.152898 0.000226808 0)
(-0.154854 0.000161163 0)
(-0.156151 9.63826e-05 0)
(-0.156818 3.3552e-05 0)
(-0.156866 -3.00642e-05 0)
(-0.156238 -9.41739e-05 0)
(-0.154963 -0.000159323 0)
(-0.153029 -0.000225201 0)
(-0.150416 -0.000292696 0)
(-0.147108 -0.000363131 0)
(-0.143084 -0.00043479 0)
(-0.13832 -0.000510874 0)
(-0.132789 -0.000587567 0)
(-0.126461 -0.00066661 0)
(-0.119308 -0.000752548 0)
(-0.111303 -0.00083657 0)
(-0.102419 -0.000922035 0)
(-0.0926354 -0.00101713 0)
(-0.0819345 -0.00110488 0)
(-0.0703032 -0.00120385 0)
(-0.0577334 -0.00129045 0)
(-0.0442171 -0.00137369 0)
(-0.0295649 -0.00147147 0)
(-0.0123732 -0.00155321 0)
(0.00571582 -0.00162139 0)
(0.212492 0.00185604 0)
(0.205926 0.00250904 0)
(0.196396 0.00314725 0)
(0.184845 0.00374144 0)
(0.171494 0.00420016 0)
(0.156581 0.00465876 0)
(0.140355 0.00495051 0)
(0.123085 0.00525631 0)
(0.10503 0.00549046 0)
(0.0864472 0.00554148 0)
(0.067586 0.00562632 0)
(0.048663 0.00564272 0)
(0.0298094 0.00550321 0)
(0.0112472 0.00539636 0)
(-0.00650858 0.00518107 0)
(-0.0235196 0.0049991 0)
(-0.0399231 0.0047809 0)
(-0.0554908 0.00448376 0)
(-0.0701557 0.00422562 0)
(-0.0838711 0.00395047 0)
(-0.0966076 0.00363617 0)
(-0.10836 0.00335406 0)
(-0.119131 0.00306916 0)
(-0.128931 0.00277147 0)
(-0.137783 0.00249819 0)
(-0.145714 0.00222103 0)
(-0.152754 0.00196432 0)
(-0.158934 0.00171452 0)
(-0.164285 0.00146919 0)
(-0.168838 0.00123654 0)
(-0.17262 0.00101009 0)
(-0.175659 0.000788332 0)
(-0.177981 0.000572927 0)
(-0.179599 0.000361637 0)
(-0.180501 0.000163124 0)
(-0.18074 -4.38689e-05 0)
(-0.180252 -0.000258175 0)
(-0.179069 -0.000470402 0)
(-0.177158 -0.000684281 0)
(-0.174524 -0.000907918 0)
(-0.171143 -0.00113061 0)
(-0.166997 -0.00136987 0)
(-0.162064 -0.00160461 0)
(-0.15629 -0.00184862 0)
(-0.149642 -0.00212062 0)
(-0.1421 -0.00237191 0)
(-0.133639 -0.00263481 0)
(-0.124187 -0.0029456 0)
(-0.113726 -0.00321192 0)
(-0.102348 -0.00348406 0)
(-0.0898699 -0.00381779 0)
(-0.0764256 -0.00409142 0)
(-0.0619789 -0.00440921 0)
(-0.046488 -0.00469223 0)
(-0.030307 -0.00486306 0)
(-0.0132817 -0.00518983 0)
(0.00399451 -0.00530763 0)
(0.0216729 -0.00542532 0)
(0.040154 -0.00556353 0)
(0.0589161 -0.00557066 0)
(0.0776863 -0.00556464 0)
(0.0962436 -0.00546079 0)
(0.114322 -0.00525242 0)
(0.131632 -0.00500862 0)
(0.147947 -0.00468986 0)
(0.163024 -0.0042637 0)
(0.176619 -0.00381717 0)
(0.18853 -0.00327411 0)
(0.198587 -0.00271961 0)
(0.206623 -0.00210746 0)
(0.21253 -0.00142446 0)
(0.216156 -0.000760418 0)
(0.21743 -6.25237e-05 0)
(0.216378 0.000647008 0)
(0.212876 0.00134149 0)
(0.207135 0.00201725 0)
(0.199198 0.00264047 0)
(0.189153 0.00324638 0)
(0.177198 0.00377944 0)
(0.163592 0.00424639 0)
(0.148503 0.0046625 0)
(0.132177 0.00498985 0)
(0.114921 0.00523289 0)
(0.0969672 0.00542173 0)
(0.0785428 0.00549521 0)
(0.0599529 0.00553552 0)
(0.041384 0.00548739 0)
(0.0230694 0.0053841 0)
(0.00523431 0.00524242 0)
(-0.0119962 0.0050293 0)
(-0.0285332 0.00482005 0)
(-0.0443111 0.00458232 0)
(-0.0592752 0.00433587 0)
(-0.0734066 0.00408183 0)
(-0.0866598 0.00381313 0)
(-0.0990084 0.00353824 0)
(-0.110402 0.00324666 0)
(-0.120813 0.0029504 0)
(-0.130224 0.00264168 0)
(-0.13863 0.00233497 0)
(-0.146016 0.00205155 0)
(-0.1524 0.00175598 0)
(-0.157838 0.00149179 0)
(-0.162362 0.0012145 0)
(-0.166039 0.00097725 0)
(-0.168915 0.00073346 0)
(-0.171036 0.000517063 0)
(-0.172399 0.000306752 0)
(-0.17308 0.000104859 0)
(-0.173114 -8.56358e-05 0)
(-0.17246 -0.000293153 0)
(-0.171143 -0.000484909 0)
(-0.169165 -0.000684137 0)
(-0.16652 -0.000885625 0)
(-0.163194 -0.00108948 0)
(-0.159225 -0.00130356 0)
(-0.154519 -0.00148861 0)
(-0.149097 -0.00171992 0)
(-0.142978 -0.00193539 0)
(-0.13612 -0.00215503 0)
(-0.128508 -0.00236126 0)
(-0.120151 -0.00259541 0)
(-0.111045 -0.00282184 0)
(-0.101174 -0.00305509 0)
(-0.0905489 -0.00326766 0)
(-0.0791599 -0.00351051 0)
(-0.0670355 -0.0037417 0)
(-0.0541314 -0.00394105 0)
(-0.040448 -0.00416904 0)
(-0.0261286 -0.00439702 0)
(-0.0110863 -0.00454566 0)
(0.00461963 -0.00474831 0)
(0.0208303 -0.00489272 0)
(0.037488 -0.00500849 0)
(0.0544404 -0.00507522 0)
(0.0715498 -0.00510209 0)
(0.0886229 -0.00505886 0)
(0.105444 -0.0049555 0)
(0.121798 -0.00477694 0)
(0.137452 -0.00451871 0)
(0.152129 -0.00420556 0)
(0.165607 -0.00379628 0)
(0.177603 -0.00333191 0)
(0.187908 -0.0027885 0)
(0.196302 -0.00219616 0)
(0.202615 -0.00155567 0)
(0.206704 -0.00086897 0)
(0.208418 -0.000173713 0)
(0.20781 0.000541343 0)
(0.204685 0.0012828 0)
(0.19919 0.00198212 0)
(0.191398 0.00265317 0)
(0.181408 0.00327628 0)
(0.169416 0.00384866 0)
(0.155618 0.00435496 0)
(0.140256 0.00477492 0)
(0.123638 0.00510771 0)
(0.106021 0.00536317 0)
(0.0876976 0.00552558 0)
(0.068968 0.00561962 0)
(0.0501 0.00560715 0)
(0.0313682 0.00554068 0)
(0.0129759 0.00540473 0)
(-0.00486702 0.00521637 0)
(-0.0220133 0.00499308 0)
(-0.0383392 0.0047328 0)
(-0.0537335 0.00444109 0)
(-0.0681673 0.00413711 0)
(-0.081572 0.00382852 0)
(-0.0939166 0.0035325 0)
(-0.105219 0.00321493 0)
(-0.115495 0.00291042 0)
(-0.124782 0.00262311 0)
(-0.133119 0.00234481 0)
(-0.140549 0.00208302 0)
(-0.147121 0.00183652 0)
(-0.152869 0.00158858 0)
(-0.157829 0.00135062 0)
(-0.162034 0.00113254 0)
(-0.165489 0.000940471 0)
(-0.168252 0.000722938 0)
(-0.170372 0.000536202 0)
(-0.171863 0.000348453 0)
(-0.17274 0.000183181 0)
(-0.173058 3.35184e-06 0)
(-0.172808 -0.000176608 0)
(-0.171945 -0.000320256 0)
(-0.170528 -0.000509713 0)
(-0.168523 -0.000684883 0)
(-0.165906 -0.000865615 0)
(-0.162718 -0.00106318 0)
(-0.158885 -0.00120386 0)
(-0.154509 -0.00140082 0)
(-0.149548 -0.00155634 0)
(-0.143956 -0.00174723 0)
(-0.137773 -0.00193475 0)
(-0.130929 -0.002142 0)
(-0.123376 -0.00235171 0)
(-0.115114 -0.00257552 0)
(-0.106082 -0.00280846 0)
(-0.0962605 -0.00302762 0)
(-0.0856541 -0.00328367 0)
(-0.0742693 -0.00353291 0)
(-0.0620495 -0.00374033 0)
(-0.0489846 -0.00399146 0)
(-0.0351987 -0.00424121 0)
(-0.0206569 -0.00440961 0)
(-0.00540809 -0.004626 0)
(0.0104184 -0.004775 0)
(0.0266913 -0.00490771 0)
(0.0432981 -0.00497499 0)
(0.0600581 -0.00499021 0)
(0.0767851 -0.00495534 0)
(0.0932436 -0.00483402 0)
(0.109215 -0.00466051 0)
(0.124465 -0.00440738 0)
(0.138742 -0.00407385 0)
(0.151796 -0.00367249 0)
(0.163366 -0.00319045 0)
(0.1732 -0.00264917 0)
(0.181091 -0.00203302 0)
(0.18685 -0.00139046 0)
(0.190363 -0.000700594 0)
(0.191505 2.7958e-06 0)
(0.190298 0.000727257 0)
(0.186566 0.00143896 0)
(0.180565 0.00211229 0)
(0.172402 0.00275295 0)
(0.1622 0.00331726 0)
(0.150198 0.00381193 0)
(0.136658 0.00423385 0)
(0.121829 0.00457767 0)
(0.105991 0.00485236 0)
(0.089384 0.00503009 0)
(0.0722702 0.0051458 0)
(0.0548998 0.00518508 0)
(0.0375042 0.00516436 0)
(0.0202745 0.00508638 0)
(0.00339289 0.00495372 0)
(-0.0129752 0.00480357 0)
(-0.0287312 0.00458561 0)
(-0.0437557 0.00436234 0)
(-0.0579976 0.0041189 0)
(-0.0714494 0.00388272 0)
(-0.0840644 0.00362792 0)
(-0.095841 0.00337466 0)
(-0.106781 0.00313342 0)
(-0.116903 0.00287842 0)
(-0.126222 0.00264227 0)
(-0.134729 0.00242732 0)
(-0.14244 0.0021768 0)
(-0.149362 0.0019414 0)
(-0.155456 0.00169645 0)
(-0.160732 0.00144972 0)
(-0.165225 0.00121903 0)
(-0.168946 0.000984622 0)
(-0.171932 0.000808038 0)
(-0.174272 0.000604961 0)
(-0.176026 0.000437138 0)
(-0.177231 0.000283103 0)
(-0.177914 0.000126338 0)
(-0.178116 -3.52399e-05 0)
(-0.177695 -0.000167217 0)
(-0.176717 -0.000368511 0)
(-0.175261 -0.000527328 0)
(-0.173016 -0.0007236 0)
(-0.170182 -0.000914663 0)
(-0.166742 -0.00112942 0)
(-0.162432 -0.0013324 0)
(-0.157497 -0.00154245 0)
(-0.151869 -0.00177465 0)
(-0.145365 -0.00198822 0)
(-0.138138 -0.00223971 0)
(-0.130217 -0.00244328 0)
(-0.121468 -0.00268211 0)
(-0.111968 -0.00292002 0)
(-0.101643 -0.00318526 0)
(-0.0903969 -0.00346802 0)
(-0.078274 -0.00374057 0)
(-0.0651551 -0.00406287 0)
(-0.0511215 -0.00435871 0)
(-0.036222 -0.00469083 0)
(-0.0202756 -0.00500984 0)
(-0.00170881 -0.00529961 0)
(0.0189573 -0.00561783 0)
(0.0398935 -0.00580131 0)
(0.0609737 -0.00581607 0)
(0.0818224 -0.00578524 0)
(0.102167 -0.0056151 0)
(0.121628 -0.00540214 0)
(0.140057 -0.00511525 0)
(0.157137 -0.00472132 0)
(0.172593 -0.00428922 0)
(0.186295 -0.0037897 0)
(0.19799 -0.00318779 0)
(0.207447 -0.00256544 0)
(0.214563 -0.00187126 0)
(0.219158 -0.00113907 0)
(0.221104 -0.000399786 0)
(0.22068 0.000379813 0)
(0.217884 0.00111771 0)
(0.212835 0.00184065 0)
(0.20547 0.00255973 0)
(0.195908 0.00314527 0)
(0.184394 0.00371542 0)
(0.171094 0.0042337 0)
(0.1563 0.00458422 0)
(0.14032 0.004926 0)
(0.123382 0.00510648 0)
(0.10587 0.00528356 0)
(0.0879198 0.00538566 0)
(0.0698844 0.00534787 0)
(0.0519099 0.0053132 0)
(0.0341608 0.00521709 0)
(0.0169093 0.00504718 0)
(0.000119227 0.00485298 0)
(-0.0159134 0.00460211 0)
(-0.0310453 0.00437367 0)
(-0.0453119 0.00412321 0)
(-0.0586724 0.00383221 0)
(-0.0711107 0.00356707 0)
(-0.0826175 0.00329595 0)
(-0.0931934 0.00300895 0)
(-0.102855 0.00274517 0)
(-0.111621 0.00247444 0)
(-0.119519 0.00222504 0)
(-0.126578 0.00198189 0)
(-0.132826 0.0017413 0)
(-0.138296 0.001516 0)
(-0.143015 0.0012977 0)
(-0.147011 0.00108448 0)
(-0.150307 0.000880244 0)
(-0.152923 0.000680465 0)
(-0.154879 0.000483497 0)
(-0.156178 0.000288935 0)
(-0.156843 0.000100989 0)
(-0.156891 -9.01565e-05 0)
(-0.156264 -0.000282539 0)
(-0.154989 -0.000477881 0)
(-0.153056 -0.000675595 0)
(-0.150443 -0.000878059 0)
(-0.147136 -0.00108936 0)
(-0.143114 -0.00130431 0)
(-0.138351 -0.00153256 0)
(-0.132821 -0.00176261 0)
(-0.126494 -0.00199973 0)
(-0.119342 -0.00225755 0)
(-0.111338 -0.00250962 0)
(-0.102455 -0.00276603 0)
(-0.0926723 -0.00305134 0)
(-0.0819715 -0.00331462 0)
(-0.0703405 -0.00361156 0)
(-0.0577701 -0.0038714 0)
(-0.0442526 -0.00412116 0)
(-0.029601 -0.00441448 0)
(-0.0124066 -0.00465973 0)
(0.00568827 -0.00486484 0)
(0.212676 0.00309496 0)
(0.206098 0.00418377 0)
(0.196554 0.00524794 0)
(0.184989 0.00623871 0)
(0.171617 0.00700343 0)
(0.156685 0.007768 0)
(0.140436 0.0082542 0)
(0.123146 0.00876394 0)
(0.105071 0.00915415 0)
(0.0864684 0.00923888 0)
(0.067589 0.00938006 0)
(0.0486491 0.0094072 0)
(0.0297801 0.00917434 0)
(0.0112061 0.00899583 0)
(-0.00655821 0.00863657 0)
(-0.0235797 0.00833307 0)
(-0.0399905 0.00796912 0)
(-0.055562 0.00747358 0)
(-0.0702309 0.00704311 0)
(-0.0839487 0.00658435 0)
(-0.0966851 0.00606035 0)
(-0.108438 0.00558999 0)
(-0.119208 0.00511504 0)
(-0.129006 0.00461883 0)
(-0.137856 0.00416332 0)
(-0.145784 0.00370135 0)
(-0.152821 0.0032735 0)
(-0.158999 0.00285717 0)
(-0.164348 0.00244832 0)
(-0.168898 0.00206069 0)
(-0.172679 0.00168333 0)
(-0.175716 0.00131411 0)
(-0.178035 0.00095498 0)
(-0.179655 0.000604037 0)
(-0.18056 0.00027171 0)
(-0.180795 -7.36178e-05 0)
(-0.180308 -0.000431388 0)
(-0.179125 -0.000783821 0)
(-0.177215 -0.00114029 0)
(-0.174583 -0.00151299 0)
(-0.171204 -0.00188398 0)
(-0.16706 -0.00228295 0)
(-0.162128 -0.00267398 0)
(-0.156356 -0.00308075 0)
(-0.149712 -0.00353405 0)
(-0.142171 -0.00395278 0)
(-0.133712 -0.00439089 0)
(-0.124262 -0.00490907 0)
(-0.113803 -0.0053528 0)
(-0.102425 -0.00580679 0)
(-0.0899482 -0.00636266 0)
(-0.076501 -0.00681949 0)
(-0.0620545 -0.00734811 0)
(-0.0465565 -0.00782137 0)
(-0.0303719 -0.00810784 0)
(-0.0133367 -0.00864355 0)
(0.0039549 -0.0088536 0)
(0.0216376 -0.00904635 0)
(0.0401356 -0.00927621 0)
(0.0589154 -0.00928641 0)
(0.0777035 -0.00927722 0)
(0.0962799 -0.00910458 0)
(0.114379 -0.00875598 0)
(0.131707 -0.00835191 0)
(0.14804 -0.00782185 0)
(0.163134 -0.00711087 0)
(0.176749 -0.00636445 0)
(0.188673 -0.00546205 0)
(0.198743 -0.00453508 0)
(0.206796 -0.00351021 0)
(0.212704 -0.00238207 0)
(0.216342 -0.00126245 0)
(0.217617 -0.000110818 0)
(0.216545 0.00107894 0)
(0.213049 0.00223578 0)
(0.207307 0.00336509 0)
(0.19936 0.00440248 0)
(0.189299 0.00541398 0)
(0.177327 0.00630115 0)
(0.163709 0.00708178 0)
(0.148598 0.00777414 0)
(0.132244 0.00831794 0)
(0.114975 0.00872392 0)
(0.0969959 0.00903977 0)
(0.0785549 0.00916079 0)
(0.0599507 0.0092296 0)
(0.0413572 0.00914703 0)
(0.0230283 0.00897652 0)
(0.00517773 0.00873669 0)
(-0.0120616 0.00838812 0)
(-0.0286111 0.00803226 0)
(-0.0443949 0.00763834 0)
(-0.0593623 0.00723146 0)
(-0.0734963 0.00680893 0)
(-0.0867562 0.00636216 0)
(-0.0991171 0.00590118 0)
(-0.110523 0.00540789 0)
(-0.120947 0.00491979 0)
(-0.130372 0.00440331 0)
(-0.138783 0.00389874 0)
(-0.146181 0.00342139 0)
(-0.152573 0.0029217 0)
(-0.158011 0.00249418 0)
(-0.162546 0.00203076 0)
(-0.166237 0.00162657 0)
(-0.169122 0.00121598 0)
(-0.171241 0.000866957 0)
(-0.172614 0.000519505 0)
(-0.173298 0.000166346 0)
(-0.173329 -0.000145744 0)
(-0.172684 -0.00048951 0)
(-0.171367 -0.000813167 0)
(-0.169386 -0.00113821 0)
(-0.166738 -0.00147515 0)
(-0.163411 -0.00181479 0)
(-0.159441 -0.0021658 0)
(-0.154739 -0.00247666 0)
(-0.149322 -0.00285816 0)
(-0.143204 -0.00322591 0)
(-0.136345 -0.00358803 0)
(-0.128742 -0.0039446 0)
(-0.120387 -0.00432918 0)
(-0.111275 -0.00469914 0)
(-0.101403 -0.00508559 0)
(-0.0907859 -0.00545206 0)
(-0.0793955 -0.00584747 0)
(-0.0672706 -0.0062328 0)
(-0.0543614 -0.00655445 0)
(-0.040686 -0.00695363 0)
(-0.026351 -0.0073211 0)
(-0.0113117 -0.00757776 0)
(0.00438313 -0.00792114 0)
(0.0206052 -0.00814578 0)
(0.0372622 -0.00835344 0)
(0.0542296 -0.00845414 0)
(0.0713555 -0.00850219 0)
(0.0884379 -0.00842333 0)
(0.105265 -0.00825855 0)
(0.121636 -0.00796486 0)
(0.137303 -0.00753574 0)
(0.152005 -0.00700203 0)
(0.165497 -0.00634308 0)
(0.177517 -0.00554547 0)
(0.187824 -0.00465926 0)
(0.196239 -0.00366118 0)
(0.202575 -0.00259108 0)
(0.206669 -0.00145582 0)
(0.208397 -0.000282825 0)
(0.207771 0.000903112 0)
(0.204644 0.00213652 0)
(0.199146 0.00330498 0)
(0.191344 0.004417 0)
(0.181355 0.00546457 0)
(0.169353 0.00641835 0)
(0.155533 0.00725711 0)
(0.140162 0.00795598 0)
(0.123525 0.00852547 0)
(0.105872 0.00893589 0)
(0.0875346 0.00920968 0)
(0.0687905 0.00937092 0)
(0.04991 0.00935237 0)
(0.0311617 0.00923839 0)
(0.0127544 0.00901107 0)
(-0.00510579 0.00870523 0)
(-0.0222761 0.00831106 0)
(-0.0386152 0.00788189 0)
(-0.0540094 0.00740224 0)
(-0.0684376 0.00690895 0)
(-0.0818427 0.0063884 0)
(-0.0941933 0.00587958 0)
(-0.105494 0.00535407 0)
(-0.115768 0.00485458 0)
(-0.125055 0.00436822 0)
(-0.133387 0.00390966 0)
(-0.140817 0.00346834 0)
(-0.147391 0.003047 0)
(-0.15313 0.00264567 0)
(-0.158087 0.00225884 0)
(-0.162283 0.00188789 0)
(-0.165737 0.00156796 0)
(-0.168505 0.00120919 0)
(-0.170624 0.00089329 0)
(-0.172112 0.000583107 0)
(-0.172989 0.000306816 0)
(-0.173307 1.56273e-06 0)
(-0.173048 -0.000296484 0)
(-0.17219 -0.000538104 0)
(-0.170773 -0.000848556 0)
(-0.16876 -0.00113532 0)
(-0.166146 -0.00144364 0)
(-0.162956 -0.00176163 0)
(-0.159131 -0.00200902 0)
(-0.154763 -0.00233066 0)
(-0.149803 -0.00258511 0)
(-0.144221 -0.00291463 0)
(-0.138041 -0.00322907 0)
(-0.131196 -0.00356565 0)
(-0.123644 -0.00391609 0)
(-0.115384 -0.00429608 0)
(-0.106353 -0.0046682 0)
(-0.0965403 -0.00504566 0)
(-0.0859353 -0.00546663 0)
(-0.0745469 -0.00588071 0)
(-0.062331 -0.00623629 0)
(-0.0492846 -0.00665989 0)
(-0.0354864 -0.00705073 0)
(-0.0209457 -0.00736196 0)
(-0.00569323 -0.00770343 0)
(0.0101441 -0.0079559 0)
(0.0264233 -0.0081746 0)
(0.043039 -0.00829928 0)
(0.0598136 -0.00832035 0)
(0.0765593 -0.00827135 0)
(0.0930477 -0.00805506 0)
(0.109042 -0.00776225 0)
(0.124301 -0.00735634 0)
(0.138603 -0.00679758 0)
(0.15169 -0.00612419 0)
(0.163284 -0.0053174 0)
(0.173141 -0.00441481 0)
(0.181043 -0.00340027 0)
(0.186822 -0.00231363 0)
(0.190344 -0.00117396 0)
(0.1915 1.34868e-05 0)
(0.190273 0.00120663 0)
(0.186552 0.00240343 0)
(0.180557 0.00351993 0)
(0.172375 0.0045921 0)
(0.162153 0.00552397 0)
(0.150133 0.00636322 0)
(0.136573 0.00705225 0)
(0.121724 0.00763988 0)
(0.105861 0.0080821 0)
(0.0892442 0.00838522 0)
(0.0721191 0.00858436 0)
(0.0547262 0.0086422 0)
(0.037311 0.00860954 0)
(0.0200675 0.00848289 0)
(0.0031737 0.00826172 0)
(-0.0132081 0.00799832 0)
(-0.0289661 0.00764332 0)
(-0.0439967 0.00727587 0)
(-0.0582534 0.00687204 0)
(-0.0717094 0.0064655 0)
(-0.0843166 0.00604618 0)
(-0.0960878 0.00562776 0)
(-0.107028 0.00522309 0)
(-0.117154 0.00480262 0)
(-0.126473 0.00440974 0)
(-0.134986 0.00404594 0)
(-0.142704 0.00362898 0)
(-0.149622 0.00323418 0)
(-0.15571 0.0028206 0)
(-0.160974 0.00242124 0)
(-0.16546 0.00203318 0)
(-0.169159 0.00164555 0)
(-0.172142 0.00134119 0)
(-0.174473 0.000998214 0)
(-0.176204 0.000725499 0)
(-0.177397 0.000476803 0)
(-0.17807 0.000209981 0)
(-0.178257 -5.64789e-05 0)
(-0.177835 -0.000286444 0)
(-0.176851 -0.000614309 0)
(-0.175382 -0.000875435 0)
(-0.173136 -0.00120218 0)
(-0.170297 -0.00153563 0)
(-0.166845 -0.00187908 0)
(-0.162532 -0.00221781 0)
(-0.157596 -0.0025745 0)
(-0.151969 -0.00295752 0)
(-0.145467 -0.0033187 0)
(-0.138229 -0.00372453 0)
(-0.130307 -0.00407769 0)
(-0.121563 -0.00447065 0)
(-0.112065 -0.00486783 0)
(-0.101743 -0.00530714 0)
(-0.0905033 -0.00577849 0)
(-0.0783807 -0.006229 0)
(-0.0652692 -0.00677173 0)
(-0.0512431 -0.00726659 0)
(-0.0363424 -0.00781466 0)
(-0.0203972 -0.0083494 0)
(-0.00183259 -0.00883626 0)
(0.0188496 -0.0093686 0)
(0.0398261 -0.00967346 0)
(0.0609409 -0.00969717 0)
(0.0818184 -0.00964514 0)
(0.102186 -0.00936474 0)
(0.121673 -0.00900572 0)
(0.14012 -0.00853074 0)
(0.157227 -0.00787321 0)
(0.1727 -0.00715255 0)
(0.186423 -0.00632073 0)
(0.198137 -0.00531957 0)
(0.207612 -0.00426926 0)
(0.214743 -0.00313822 0)
(0.219345 -0.0018639 0)
(0.221306 -0.000632185 0)
(0.220864 0.000642302 0)
(0.21806 0.00186465 0)
(0.213016 0.00306881 0)
(0.20564 0.0042686 0)
(0.196061 0.00524501 0)
(0.184529 0.00619561 0)
(0.171208 0.00705969 0)
(0.156392 0.00764394 0)
(0.140391 0.00821365 0)
(0.123432 0.00851417 0)
(0.1059 0.00880949 0)
(0.0879293 0.00897913 0)
(0.0698772 0.00891727 0)
(0.0518859 0.00885699 0)
(0.0341266 0.00869771 0)
(0.0168632 0.00841373 0)
(6.11614e-05 0.00808848 0)
(-0.0159748 0.0076709 0)
(-0.0311124 0.00728999 0)
(-0.0453829 0.00687238 0)
(-0.0587445 0.00638722 0)
(-0.0711841 0.00594514 0)
(-0.0826909 0.00549314 0)
(-0.0932653 0.00501472 0)
(-0.102925 0.004575 0)
(-0.111689 0.00412374 0)
(-0.119585 0.00370804 0)
(-0.126642 0.00330279 0)
(-0.132887 0.00290182 0)
(-0.138355 0.00252632 0)
(-0.143072 0.00216251 0)
(-0.147065 0.00180714 0)
(-0.15036 0.00146674 0)
(-0.152974 0.00113397 0)
(-0.154929 0.000805923 0)
(-0.156231 0.00048195 0)
(-0.156896 0.000168542 0)
(-0.156941 -0.000150144 0)
(-0.156315 -0.000470878 0)
(-0.155041 -0.000796152 0)
(-0.153109 -0.00112582 0)
(-0.150498 -0.00146321 0)
(-0.147193 -0.00181535 0)
(-0.143172 -0.00217353 0)
(-0.138411 -0.00255393 0)
(-0.132883 -0.00293733 0)
(-0.126558 -0.00333251 0)
(-0.11941 -0.00376224 0)
(-0.111407 -0.00418241 0)
(-0.102526 -0.00460982 0)
(-0.0927446 -0.00508544 0)
(-0.082044 -0.00552432 0)
(-0.0704138 -0.00601938 0)
(-0.0578419 -0.00645258 0)
(-0.0443221 -0.00686892 0)
(-0.0296717 -0.00735778 0)
(-0.0124727 -0.00776657 0)
(0.00563318 -0.00811037 0)
(0.212951 0.00433626 0)
(0.206355 0.0058616 0)
(0.196792 0.00735248 0)
(0.185204 0.00874047 0)
(0.1718 0.00981145 0)
(0.15684 0.0108824 0)
(0.140558 0.0115629 0)
(0.123238 0.0122767 0)
(0.105133 0.0128229 0)
(0.0865001 0.0129409 0)
(0.0675934 0.0131381 0)
(0.048628 0.0131757 0)
(0.0297362 0.0128488 0)
(0.0111444 0.0125979 0)
(-0.00663272 0.0120946 0)
(-0.02367 0.011669 0)
(-0.0400918 0.0111588 0)
(-0.055669 0.0104644 0)
(-0.0703438 0.00986125 0)
(-0.0840653 0.00921856 0)
(-0.0968013 0.00848456 0)
(-0.108554 0.00782574 0)
(-0.119323 0.0071606 0)
(-0.129118 0.00646573 0)
(-0.137966 0.0058279 0)
(-0.145889 0.00518109 0)
(-0.152923 0.00458209 0)
(-0.159097 0.00399928 0)
(-0.164442 0.00342698 0)
(-0.168989 0.00288449 0)
(-0.172767 0.00235661 0)
(-0.1758 0.00184005 0)
(-0.178115 0.00133854 0)
(-0.179736 0.000847284 0)
(-0.180651 0.000375257 0)
(-0.180877 -0.0001052 0)
(-0.180393 -0.000604681 0)
(-0.17921 -0.00109687 0)
(-0.177301 -0.0015961 0)
(-0.174671 -0.0021177 0)
(-0.171294 -0.00263677 0)
(-0.167155 -0.00319561 0)
(-0.162226 -0.0037427 0)
(-0.156456 -0.00431241 0)
(-0.149816 -0.00494692 0)
(-0.142278 -0.00553306 0)
(-0.133822 -0.00614637 0)
(-0.124376 -0.00687215 0)
(-0.113919 -0.00749315 0)
(-0.102541 -0.00812971 0)
(-0.090066 -0.0089075 0)
(-0.0766143 -0.0095481 0)
(-0.0621684 -0.0102866 0)
(-0.0466602 -0.0109528 0)
(-0.0304683 -0.0113542 0)
(-0.0134205 -0.0120917 0)
(0.00389305 -0.0124104 0)
(0.0215859 -0.0126715 0)
(0.0401078 -0.0129933 0)
(0.0589124 -0.0130088 0)
(0.077729 -0.0129961 0)
(0.0963327 -0.0127548 0)
(0.114463 -0.0122668 0)
(0.131818 -0.0117013 0)
(0.14818 -0.0109579 0)
(0.163305 -0.00995945 0)
(0.17694 -0.00892048 0)
(0.18889 -0.00765427 0)
(0.198974 -0.00635615 0)
(0.207048 -0.00492272 0)
(0.212968 -0.00333752 0)
(0.216614 -0.0017776 0)
(0.217891 -0.000146759 0)
(0.216793 0.00151656 0)
(0.213312 0.00312972 0)