/*--------------------------------*- C++ -*----------------------------------*\
| =========                 |                                                 |
| \\      /  F ield         | OpenFOAM: The Open Source CFD Toolbox           |
|  \\    /   O peration     | Version:  3.0.1                                 |
|   \\  /    A nd           | Web:      www.OpenFOAM.org                      |
|    \\/     M anipulation  |                                                 |
\*---------------------------------------------------------------------------*/
FoamFile
{
    version     2.0;
    format      ascii;
    class       surfaceScalarField;
    location    "21.4";
    object      alphaPhi;
}
// * * * * * * * * * * * * * * * * * * * * * * * * * * * * * * * * * * * * * //

dimensions      [0 3 -1 0 0 0 0];

internalField   nonuniform List<scalar> 
44922
(
-0.000396321
-2.12555e-05
-0.000374454
-2.18672e-05
-0.000353081
-2.1373e-05
-0.000331898
-2.11832e-05
-0.000311695
-2.02035e-05
-0.000292294
-1.94005e-05
-0.000274326
-1.79684e-05
-0.000257716
-1.66098e-05
-0.000242923
-1.47937e-05
-0.000229942
-1.29812e-05
-0.000219042
-1.08997e-05
-0.000210277
-8.76513e-06
-0.000203764
-6.51281e-06
-0.00019947
-4.29399e-06
-0.000197253
-2.21699e-06
-0.000197249
-4.63523e-09
-0.000199084
1.83502e-06
-0.000202922
3.83825e-06
-0.000208592
5.67008e-06
-0.000216095
7.50232e-06
-0.000225215
9.12077e-06
-0.000236023
1.08077e-05
-0.000248206
1.21832e-05
-0.000261897
1.36908e-05
-0.000276681
1.47841e-05
-0.00029275
1.60681e-05
-0.000309592
1.68419e-05
-0.000327445
1.78539e-05
-0.000345726
1.82807e-05
-0.000364703
1.89766e-05
-0.000383749
1.90457e-05
-0.000403144
1.93953e-05
-0.000422265
1.91207e-05
-0.000441454
1.91896e-05
-0.000460343
1.88891e-05
-0.000478473
1.81294e-05
-0.000496047
1.75747e-05
-0.000512574
1.65262e-05
-0.000528228
1.56541e-05
-0.000542607
1.43793e-05
-0.000555852
1.32449e-05
-0.000567665
1.1813e-05
-0.000578166
1.05013e-05
-0.000587177
9.01127e-06
-0.000594867
7.68935e-06
-0.000601312
6.44556e-06
-0.000606684
5.37221e-06
-0.000611285
4.60117e-06
-0.000613935
2.64955e-06
-0.000613146
-7.8835e-07
-0.000609356
-3.79067e-06
-0.000604956
-4.39953e-06
-0.000599636
-5.31968e-06
-0.000592886
-6.74982e-06
-0.000584661
-8.22518e-06
-0.000574983
-9.67821e-06
-0.000563888
-1.10948e-05
-0.000551463
-1.24249e-05
-0.000537721
-1.3742e-05
-0.000522815
-1.4905e-05
-0.000506722
-1.60932e-05
-0.000489659
-1.70627e-05
-0.000471565
-1.80934e-05
-0.00045273
-1.88357e-05
-0.000433123
-1.96063e-05
-0.000413354
-1.97689e-05
-0.000393224
-2.01296e-05
-0.000372909
-2.03151e-05
-0.000352257
-2.06519e-05
-0.000331639
-2.06175e-05
-0.000310964
-2.06746e-05
-0.000290253
-2.07106e-05
-0.000269745
-2.05079e-05
-0.000249308
-2.04373e-05
-0.000229159
-2.01485e-05
-0.000209096
-2.00628e-05
-0.000189371
-1.97252e-05
-0.000169699
-1.96714e-05
-0.000150497
-1.92015e-05
-0.000131474
-1.90236e-05
-0.000113327
-1.81463e-05
-9.58603e-05
-1.74666e-05
-7.99912e-05
-1.58689e-05
-6.56529e-05
-1.43381e-05
-5.39179e-05
-1.17349e-05
-4.48173e-05
-9.10043e-06
-3.93133e-05
-5.50378e-06
-3.73138e-05
-1.99941e-06
-4.01434e-05
2.82975e-06
-4.71779e-05
7.0347e-06
-5.80986e-05
1.09207e-05
-7.2656e-05
1.45576e-05
-9.02928e-05
1.76369e-05
-0.000110579
2.02863e-05
-0.000132751
2.21719e-05
-0.000156187
2.34362e-05
-0.000180175
2.39883e-05
-0.000204171
2.39957e-05
-0.000227665
2.34948e-05
-0.000250253
2.25877e-05
-0.000271681
2.14279e-05
-0.000291604
1.99235e-05
-0.000309961
1.83565e-05
-0.000326513
1.65518e-05
-0.000341284
1.47709e-05
-0.000354135
1.28511e-05
-0.000365082
1.09476e-05
-0.000374196
9.11397e-06
-0.000381315
7.11918e-06
-0.000386711
5.39571e-06
-0.000390211
3.5002e-06
-0.000392263
2.0514e-06
-0.000392741
4.78494e-07
-0.000392011
-7.29934e-07
-0.000389929
-2.0825e-06
-0.000386997
-2.93157e-06
-0.000383022
-3.9748e-06
-0.000378517
-4.50559e-06
-0.000373299
-5.2173e-06
-0.000367898
-5.40168e-06
-0.000362152
-5.74521e-06
-0.000356403
-5.74906e-06
-0.000350379
-6.02399e-06
-0.000344636
-5.74353e-06
-0.000338793
-5.84235e-06
-0.000333345
-5.44807e-06
-0.000327868
-5.47686e-06
-0.000322759
-5.10951e-06
-0.000317763
-4.9963e-06
-0.000313148
-4.61453e-06
-0.000308678
-4.47053e-06
-0.000304458
-4.21954e-06
-0.000300525
-3.93276e-06
-0.000296802
-3.72352e-06
-0.000293285
-3.51701e-06
-0.000289934
-3.35048e-06
-0.000286838
-3.09586e-06
-0.000283795
-3.04369e-06
-0.000280979
-2.81544e-06
-0.00027817
-2.80971e-06
-0.000275555
-2.6143e-06
-0.000272854
-2.70075e-06
-0.000270296
-2.55835e-06
-0.000267604
-2.69218e-06
-0.000264872
-2.73147e-06
-0.000261994
-2.87851e-06
-0.000258882
-3.11162e-06
-0.000255538
-3.34432e-06
-0.000251771
-3.76636e-06
-0.000247637
-4.13447e-06
-0.000242949
-4.68838e-06
-0.000237734
-5.21481e-06
-0.000231862
-5.8716e-06
-0.000225331
-6.5306e-06
-0.000218059
-7.27252e-06
-0.000210027
-8.03205e-06
-0.00020118
-8.84647e-06
-0.00019153
-9.65045e-06
-0.000181065
-1.04647e-05
-0.000169837
-1.12275e-05
-0.000157866
-1.19714e-05
-0.000145237
-1.26291e-05
-0.000132039
-1.31977e-05
-0.000118351
-1.36884e-05
-0.000104301
-1.40492e-05
-9.00135e-05
-1.42879e-05
-7.5608e-05
-1.44053e-05
-6.12392e-05
-1.43688e-05
-4.70525e-05
-1.41866e-05
-3.31869e-05
-1.38655e-05
-1.97941e-05
-1.33927e-05
-7.06437e-06
-1.27296e-05
4.83191e-06
-1.18962e-05
1.57782e-05
-1.09462e-05
2.5674e-05
-9.89574e-06
3.44616e-05
-8.78754e-06
4.20721e-05
-7.61041e-06
4.83879e-05
-6.31581e-06
5.33486e-05
-4.96058e-06
5.69052e-05
-3.55661e-06
5.91061e-05
-2.20083e-06
5.99018e-05
-7.95711e-07
5.92925e-05
6.09359e-07
5.73735e-05
1.91901e-06
5.41705e-05
3.20307e-06
4.96868e-05
4.48366e-06
4.41032e-05
5.58367e-06
3.73979e-05
6.70526e-06
2.97558e-05
7.64209e-06
2.11903e-05
8.56551e-06
1.18641e-05
9.32621e-06
1.82055e-06
1.00436e-05
-8.72961e-06
1.05501e-05
-1.97404e-05
1.10108e-05
-3.10921e-05
1.13517e-05
-4.26365e-05
1.15444e-05
-5.43296e-05
1.16931e-05
-6.58855e-05
1.15559e-05
-7.7376e-05
1.14904e-05
-8.85734e-05
1.11974e-05
-9.95642e-05
1.09908e-05
-0.000110202
1.06374e-05
-0.000120411
1.0209e-05
-0.000130204
9.7936e-06
-0.000139512
9.30798e-06
-0.000148277
8.76483e-06
-0.000156588
8.31057e-06
-0.000164315
7.72746e-06
-0.000171415
7.0994e-06
-0.000177874
6.45942e-06
-0.00018344
5.5661e-06
-0.000188242
4.80193e-06
-0.000192086
3.84448e-06
-0.000195025
2.93905e-06
-0.0001967
1.67494e-06
-0.000197327
6.26206e-07
-0.000196468
-8.58712e-07
-0.000194964
-1.50356e-06
-0.000193278
-1.68663e-06
-0.000192815
-4.62352e-07
-0.000192774
-4.14231e-08
-0.000191043
-1.73085e-06
-0.000183049
-7.99426e-06
-0.000170585
-1.24639e-05
-2.29413e-05
-0.000147643
-0.000396328
-4.2526e-05
-0.000374441
-4.37539e-05
-0.00035305
-4.27643e-05
-0.000331849
-4.23838e-05
-0.00031163
-4.04229e-05
-0.000292215
-3.88161e-05
-0.000274233
-3.59502e-05
-0.00025761
-3.32329e-05
-0.000242804
-2.95999e-05
-0.000229812
-2.59726e-05
-0.000218905
-2.18078e-05
-0.000210122
-1.75474e-05
-0.000203583
-1.30525e-05
-0.000199261
-8.61607e-06
-0.000197054
-4.42411e-06
-0.00019708
2.18523e-08
-0.000198956
3.71076e-06
-0.000202805
7.6874e-06
-0.000208481
1.13457e-05
-0.000215989
1.50096e-05
-0.000225114
1.82466e-05
-0.000235928
2.16211e-05
-0.000248117
2.43723e-05
-0.000261815
2.73882e-05
-0.000276606
2.95752e-05
-0.000292682
3.21439e-05
-0.000309532
3.3692e-05
-0.000327394
3.57165e-05
-0.000345684
3.65703e-05
-0.00036467
3.79626e-05
-0.000383725
3.81007e-05
-0.00040313
3.88e-05
-0.00042226
3.82506e-05
-0.000441459
3.83886e-05
-0.000460357
3.77873e-05
-0.000478495
3.62673e-05
-0.000496077
3.51575e-05
-0.000512611
3.30596e-05
-0.000528271
3.13147e-05
-0.000542656
2.87637e-05
-0.000555904
2.64935e-05
-0.000567718
2.36271e-05
-0.000578215
2.0998e-05
-0.000587205
1.8001e-05
-0.000594809
1.52932e-05
-0.000600961
1.25977e-05
-0.000605951
1.03629e-05
-0.000610157
8.80685e-06
-0.00061252
5.013e-06
-0.000612006
-1.30205e-06
-0.000608972
-6.82522e-06
-0.000604958
-8.41322e-06
-0.000599682
-1.05956e-05
-0.000592937
-1.34937e-05
-0.000584713
-1.64499e-05
-0.000575033
-1.93571e-05
-0.000563937
-2.2191e-05
-0.00055151
-2.48516e-05
-0.000537766
-2.7486e-05
-0.000522858
-2.98123e-05
-0.000506762
-3.21888e-05
-0.000489697
-3.41278e-05
-0.000471601
-3.61889e-05
-0.000452762
-3.76738e-05
-0.000433153
-3.92153e-05
-0.000413379
-3.95423e-05
-0.000393246
-4.02622e-05
-0.000372927
-4.06335e-05
-0.000352272
-4.13066e-05
-0.000331652
-4.12375e-05
-0.000310975
-4.13505e-05
-0.000290264
-4.14215e-05
-0.000269756
-4.10152e-05
-0.000249321
-4.08727e-05
-0.000229174
-4.02948e-05
-0.000209112
-4.0124e-05
-0.000189386
-3.94507e-05
-0.000169711
-3.93461e-05
-0.000150503
-3.84099e-05
-0.000131468
-3.80579e-05
-0.000113305
-3.63089e-05
-9.58094e-05
-3.49619e-05
-7.99091e-05
-3.17689e-05
-6.55323e-05
-2.87145e-05
-5.3761e-05
-2.35059e-05
-4.46208e-05
-1.82403e-05
-3.90895e-05
-1.10348e-05
-3.70801e-05
-4.00848e-06
-3.99072e-05
5.65704e-06
-4.69499e-05
1.40776e-05
-5.78894e-05
2.18605e-05
-7.24797e-05
2.91481e-05
-9.01562e-05
3.53136e-05
-0.000110485
4.06152e-05
-0.000132705
4.43916e-05
-0.000156186
4.69176e-05
-0.000180217
4.80197e-05
-0.000204252
4.80309e-05
-0.000227781
4.70234e-05
-0.000250396
4.52031e-05
-0.000271844
4.28764e-05
-0.000291775
3.98541e-05
-0.000310148
3.67297e-05
-0.000326707
3.31108e-05
-0.000341483
2.95468e-05
-0.000354335
2.5703e-05
-0.000365274
2.18867e-05
-0.000374368
1.82089e-05
-0.000381481
1.42317e-05
-0.00038687
1.07848e-05
-0.000390363
6.9925e-06
-0.000392403
4.09169e-06
-0.000392844
9.19986e-07
-0.000392105
-1.46914e-06
-0.000390006
-4.18141e-06
-0.000387062
-5.87554e-06
-0.000383076
-7.96117e-06
-0.000378563
-9.01794e-06
-0.000373336
-1.0444e-05
-0.000367929
-1.08092e-05
-0.000362173
-1.15019e-05
-0.000356418
-1.15041e-05
-0.000350389
-1.20523e-05
-0.000344647
-1.14851e-05
-0.000338799
-1.16903e-05
-0.000333348
-1.08989e-05
-0.000327871
-1.09547e-05
-0.000322764
-1.02156e-05
-0.000317768
-9.99303e-06
-0.000313151
-9.2317e-06
-0.000308678
-8.94286e-06
-0.000304472
-8.42613e-06
-0.000300526
-7.8788e-06
-0.000296808
-7.44107e-06
-0.000293296
-7.02868e-06
-0.000289936
-6.71077e-06
-0.000286847
-6.18493e-06
-0.000283799
-6.09136e-06
-0.000280989
-5.62567e-06
-0.000278179
-5.61936e-06
-0.000275572
-5.22128e-06
-0.000272869
-5.40437e-06
-0.000270318
-5.10924e-06
-0.000267624
-5.38567e-06
-0.0002649
-5.4559e-06
-0.000262025
-5.75334e-06
-0.000258917
-6.21892e-06
-0.00025558
-6.68144e-06
-0.00025182
-7.5267e-06
-0.000247692
-8.26261e-06
-0.000243004
-9.37609e-06
-0.000237793
-1.04254e-05
-0.000231922
-1.17422e-05
-0.000225394
-1.30589e-05
-0.000218123
-1.45441e-05
-0.000210091
-1.6064e-05
-0.000201244
-1.76925e-05
-0.000191595
-1.93e-05
-0.000181129
-2.09303e-05
-0.000169895
-2.24617e-05
-0.000157922
-2.39441e-05
-0.000145291
-2.52601e-05
-0.000132087
-2.64018e-05
-0.000118389
-2.7386e-05
-0.000104332
-2.81059e-05
-9.00382e-05
-2.85814e-05
-7.56413e-05
-2.88021e-05
-6.12458e-05
-2.87641e-05
-4.70503e-05
-2.83819e-05
-3.31776e-05
-2.77382e-05
-1.97745e-05
-2.67956e-05
-7.03621e-06
-2.54677e-05
4.86482e-06
-2.37971e-05
1.58148e-05
-2.18961e-05
2.57146e-05
-1.97954e-05
3.45093e-05
-1.7582e-05
4.21274e-05
-1.52284e-05
4.84482e-05
-1.26365e-05
5.34116e-05
-9.92392e-06
5.69674e-05
-7.11245e-06
5.91718e-05
-4.40513e-06
5.99686e-05
-1.59245e-06
5.93553e-05
1.22275e-06
5.74366e-05
3.83774e-06
5.42316e-05
6.40808e-06
4.97477e-05
8.96757e-06
4.41646e-05
1.11667e-05
3.74555e-05
1.34143e-05
2.98053e-05
1.52922e-05
2.12296e-05
1.71412e-05
1.1896e-05
1.86597e-05
1.84426e-06
2.00953e-05
-8.71084e-06
2.11052e-05
-1.97261e-05
2.2026e-05
-3.10871e-05
2.27127e-05
-4.26364e-05
2.30936e-05
-5.43387e-05
2.33954e-05
-6.5897e-05
2.31141e-05
-7.73896e-05
2.29829e-05
-8.85945e-05
2.24023e-05
-9.95895e-05
2.19858e-05
-0.000110226
2.12737e-05
-0.000120439
2.04226e-05
-0.000130235
1.95894e-05
-0.000139551
1.86237e-05
-0.000148318
1.75316e-05
-0.000156625
1.66178e-05
-0.000164351
1.54535e-05
-0.000171448
1.4196e-05
-0.000177913
1.29243e-05
-0.000183476
1.11295e-05
-0.000188289
9.61454e-06
-0.000192133
7.68877e-06
-0.000195112
5.91761e-06
-0.000196803
3.36661e-06
-0.000197453
1.27633e-06
-0.000196498
-1.81361e-06
-0.00019427
-3.73191e-06
-0.000190435
-5.52116e-06
-0.000185858
-5.04018e-06
-0.000180109
-5.78965e-06
-0.000172416
-9.4244e-06
-0.000159547
-2.08637e-05
-0.000145727
-2.62826e-05
-4.3317e-05
-0.000125351
-0.000396339
-6.38279e-05
-0.000374416
-6.56762e-05
-0.00035299
-6.41908e-05
-0.000331755
-6.36193e-05
-0.000311503
-6.06746e-05
-0.000292056
-5.82635e-05
-0.000274046
-5.39598e-05
-0.000257396
-4.98834e-05
-0.000242564
-4.44318e-05
-0.000229546
-3.89905e-05
-0.000218607
-3.27469e-05
-0.000209782
-2.63728e-05
-0.000203177
-1.96579e-05
-0.000198789
-1.30036e-05
-0.000196636
-6.57766e-06
-0.000196757
1.43124e-07
-0.00019872
5.67384e-06
-0.00020259
1.15564e-05
-0.000208277
1.70329e-05
-0.000215795
2.25278e-05
-0.000224932
2.73836e-05
-0.000235758
3.24467e-05
-0.00024796
3.65744e-05
-0.000261672
4.11001e-05
-0.000276478
4.43815e-05
-0.000292571
4.82365e-05
-0.000309439
5.05593e-05
-0.00032732
5.35979e-05
-0.000345629
5.48789e-05
-0.000364635
5.69687e-05
-0.000383709
5.71754e-05
-0.000403134
5.8225e-05
-0.000422284
5.73999e-05
-0.000441502
5.76071e-05
-0.000460419
5.67045e-05
-0.000478575
5.44229e-05
-0.000496175
5.27573e-05
-0.000512723
4.96081e-05
-0.000528398
4.6989e-05
-0.000542793
4.31594e-05
-0.00055605
3.97507e-05
-0.000567869
3.54454e-05
-0.000578363
3.14922e-05
-0.000587336
2.69743e-05
-0.000594885
2.28426e-05
-0.000600879
1.85914e-05
-0.000605489
1.49731e-05
-0.000608688
1.20056e-05
-0.000610208
6.53325e-06
-0.000610141
-1.36902e-06
-0.000608433
-8.53233e-06
-0.000605024
-1.18228e-05
-0.000599813
-1.58059e-05
-0.000593077
-2.02301e-05
-0.000584851
-2.46748e-05
-0.000575169
-2.90389e-05
-0.000564069
-3.32913e-05
-0.000551637
-3.72835e-05
-0.000537886
-4.12359e-05
-0.000522972
-4.4726e-05
-0.00050687
-4.82907e-05
-0.000489798
-5.11996e-05
-0.000471696
-5.42907e-05
-0.00045285
-5.65189e-05
-0.000433233
-5.88318e-05
-0.000413448
-5.93272e-05
-0.000393306
-6.0403e-05
-0.000372979
-6.09607e-05
-0.000352317
-6.19685e-05
-0.000331689
-6.18643e-05
-0.000311008
-6.20311e-05
-0.000290295
-6.21344e-05
-0.000269787
-6.15223e-05
-0.000249354
-6.13059e-05
-0.00022921
-6.04382e-05
-0.000209152
-6.01819e-05
-0.000189426
-5.91755e-05
-0.000169746
-5.90264e-05
-0.000150526
-5.76298e-05
-0.000131471
-5.71119e-05
-0.000113269
-5.45104e-05
-9.57159e-05
-5.25148e-05
-7.97523e-05
-4.77322e-05
-6.53036e-05
-4.31629e-05
-5.34636e-05
-3.53456e-05
-4.4253e-05
-2.74506e-05
-3.86683e-05
-1.66191e-05
-3.66244e-05
-6.0521e-06
-3.94466e-05
8.47943e-06
-4.65089e-05
2.11402e-05
-5.74889e-05
3.28408e-05
-7.21393e-05
4.37988e-05
-8.98932e-05
5.30679e-05
-0.000110308
6.10307e-05
-0.000132619
6.6702e-05
-0.000156193
7.04922e-05
-0.000180313
7.21398e-05
-0.000204433
7.2151e-05
-0.00022804
7.0631e-05
-0.00025072
6.78832e-05
-0.000272228
6.4384e-05
-0.000292196
5.98226e-05
-0.00031059
5.51237e-05
-0.000327155
4.96756e-05
-0.00034193
4.4322e-05
-0.000354749
3.85211e-05
-0.000365675
3.2814e-05
-0.000374739
2.72728e-05
-0.000381823
2.13163e-05
-0.000387206
1.61676e-05
-0.000390669
1.04554e-05
-0.000392681
6.10424e-06
-0.000393045
1.28413e-06
-0.000392266
-2.24862e-06
-0.000390138
-6.30947e-06
-0.000387169
-8.84429e-06
-0.00038316
-1.19701e-05
-0.000378639
-1.35388e-05
-0.00037339
-1.56931e-05
-0.00036797
-1.62289e-05
-0.000362195
-1.72778e-05
-0.000356422
-1.72764e-05
-0.000350389
-1.80854e-05
-0.000344651
-1.72234e-05
-0.000338789
-1.75521e-05
-0.00033333
-1.63577e-05
-0.000327853
-1.64323e-05
-0.000322752
-1.53164e-05
-0.00031775
-1.49946e-05
-0.00031313
-1.3852e-05
-0.000308658
-1.3414e-05
-0.000304472
-1.26125e-05
-0.000300508
-1.18424e-05
-0.000296803
-1.11462e-05
-0.000293296
-1.05352e-05
-0.000289928
-1.00795e-05
-0.000286844
-9.26803e-06
-0.000283795
-9.1406e-06
-0.00028099
-8.43116e-06
-0.000278179
-8.43007e-06
-0.000275585
-7.8152e-06
-0.000272873
-8.11639e-06
-0.000270338
-7.64368e-06
-0.000267643
-8.08102e-06
-0.000264929
-8.16931e-06
-0.000262071
-8.61191e-06
-0.000258964
-9.32582e-06
-0.000255639
-1.00058e-05
-0.00025189
-1.12764e-05
-0.000247776
-1.2376e-05
-0.00024309
-1.40616e-05
-0.000237889
-1.56265e-05
-0.000232019
-1.76126e-05
-0.000225493
-1.95844e-05
-0.000218223
-2.1814e-05
-0.000210193
-2.40936e-05
-0.000201346
-2.65394e-05
-0.000191693
-2.8953e-05
-0.000181223
-3.14001e-05
-0.000169979
-3.3706e-05
-0.000158003
-3.59197e-05
-0.000145367
-3.78955e-05
-0.000132148
-3.96203e-05
-0.000118437
-4.10969e-05
-0.000104364
-4.21787e-05
-9.00533e-05
-4.28921e-05
-7.56484e-05
-4.32068e-05
-6.12295e-05
-4.31829e-05
-4.70173e-05
-4.25939e-05
-3.3129e-05
-4.16262e-05
-1.97068e-05
-4.02177e-05
-6.95023e-06
-3.82242e-05
4.96082e-06
-3.5708e-05
1.59167e-05
-3.28519e-05
2.58228e-05
-2.97013e-05
3.46257e-05
-2.63849e-05
4.22531e-05
-2.28556e-05
4.85877e-05
-1.8971e-05
5.35554e-05
-1.48915e-05
5.71082e-05
-1.06651e-05
5.932e-05
-6.61687e-06
6.01203e-05
-2.39263e-06
5.95075e-05
1.83562e-06
5.75759e-05
5.76932e-06
5.43708e-05
9.6133e-06
4.98794e-05
1.3459e-05
4.42887e-05
1.67575e-05
3.75685e-05
2.01346e-05
2.99042e-05
2.29566e-05
2.13097e-05
2.57357e-05
1.19612e-05
2.80083e-05
1.88951e-06
3.0167e-05
-8.67436e-06
3.16692e-05
-1.96927e-05
3.30444e-05
-3.10722e-05
3.40923e-05
-4.26365e-05
3.4658e-05
-5.43586e-05
3.51176e-05
-6.59253e-05
3.46809e-05
-7.74217e-05
3.44794e-05
-8.86338e-05
3.36143e-05
-9.96455e-05
3.29974e-05
-0.000110278
3.19068e-05
-0.0001205
3.06442e-05
-0.000130309
2.9399e-05
-0.000139655
2.79689e-05
-0.000148441
2.63182e-05
-0.000156739
2.49156e-05
-0.00016445
2.31647e-05
-0.000171525
2.12714e-05
-0.000178008
1.94074e-05
-0.000183564
1.6685e-05
-0.00018841
1.44602e-05
-0.000192251
1.15299e-05
-0.000195262
8.92923e-06
-0.000196948
5.052e-06
-0.000197592
1.92087e-06
-0.000196663
-2.74247e-06
-0.000194531
-5.86399e-06
-0.000190639
-9.41284e-06
-0.000185553
-1.01262e-05
-0.000178874
-1.24693e-05
-0.000170926
-1.73719e-05
-0.000159193
-3.25968e-05
-0.000141076
-4.44001e-05
-6.89905e-05
-0.000115402
-0.000396359
-8.51727e-05
-0.000374382
-8.76535e-05
-0.000352906
-8.56676e-05
-0.00033162
-8.49051e-05
-0.000311322
-8.09724e-05
-0.000291829
-7.77563e-05
-0.00027378
-7.20096e-05
-0.000257091
-6.65722e-05
-0.000242225
-5.92976e-05
-0.000229175
-5.20415e-05
-0.000218201
-4.37207e-05
-0.00020933
-3.52439e-05
-0.000202661
-2.63262e-05
-0.000198243
-1.74221e-05
-0.000196184
-8.63687e-06
-0.000196368
3.26788e-07
-0.000198374
7.6803e-06
-0.000202267
1.54486e-05
-0.00020797
2.27366e-05
-0.000215505
3.00623e-05
-0.000224659
3.65373e-05
-0.000235503
4.32908e-05
-0.000247725
4.8796e-05
-0.000261458
5.48337e-05
-0.000276287
5.92106e-05
-0.000292405
6.43544e-05
-0.000309299
6.74528e-05
-0.000327209
7.15075e-05
-0.000345546
7.32159e-05
-0.000364582
7.60047e-05
-0.000383686
7.62796e-05
-0.000403141
7.76803e-05
-0.00042232
7.65783e-05
-0.000441568
7.68552e-05
-0.000460514
7.56504e-05
-0.000478696
7.26051e-05
-0.000496321
7.03826e-05
-0.000512893
6.61794e-05
-0.000528587
6.26839e-05
-0.000543
5.7572e-05
-0.000556271
5.30212e-05
-0.000568097
4.72713e-05
-0.000578591
4.19866e-05
-0.000587551
3.59349e-05
-0.000595066
3.03575e-05
-0.000600983
2.45082e-05
-0.000605332
1.93229e-05
-0.000607757
1.44308e-05
-0.000608926
7.70205e-06
-0.000609662
-6.33018e-07
-0.000608543
-9.65079e-06
-0.000605174
-1.51916e-05
-0.000600014
-2.09662e-05
-0.000593286
-2.69583e-05
-0.00058506
-3.29005e-05
-0.000575373
-3.87248e-05
-0.000564267
-4.43979e-05
-0.000551827
-4.97232e-05
-0.000538068
-5.49948e-05
-0.000523144
-5.96493e-05
-0.000507032
-6.44025e-05
-0.00048995
-6.82812e-05
-0.000471838
-7.2402e-05
-0.000452982
-7.53747e-05
-0.000433354
-7.84596e-05
-0.000413551
-7.91293e-05
-0.000393398
-8.05563e-05
-0.000373057
-8.13009e-05
-0.000352384
-8.26413e-05
-0.000331746
-8.25014e-05
-0.000311058
-8.27192e-05
-0.00029034
-8.28512e-05
-0.000269833
-8.20295e-05
-0.000249403
-8.17353e-05
-0.000229263
-8.05775e-05
-0.000209211
-8.02342e-05
-0.000189486
-7.89001e-05
-0.000169797
-7.87143e-05
-0.000150559
-7.68682e-05
-0.000131469
-7.62008e-05
-0.000113209
-7.27706e-05
-9.55667e-05
-7.01566e-05
-7.95092e-05
-6.37894e-05
-6.49504e-05
-5.77214e-05
-5.30091e-05
-4.72865e-05
-4.36944e-05
-3.6765e-05
-3.80335e-05
-2.22798e-05
-3.59337e-05
-8.15162e-06
-3.87393e-05
1.12853e-05
-4.58265e-05
2.82276e-05
-5.68748e-05
4.38893e-05
-7.16152e-05
5.85396e-05
-8.94698e-05
7.09228e-05
-0.000110016
8.15768e-05
-0.000132453
8.91393e-05
-0.000156154
9.4194e-05
-0.000180392
9.63777e-05
-0.000204618
9.63769e-05
-0.000228325
9.43393e-05
-0.000251076
9.06343e-05
-0.000272652
8.59594e-05
-0.000292681
7.98524e-05
-0.000311087
7.35296e-05
-0.000327661
6.62504e-05
-0.000342458
5.91185e-05
-0.000355237
5.13004e-05
-0.000366179
4.37557e-05
-0.000375198
3.62933e-05
-0.00038226
2.83782e-05
-0.000387652
2.15593e-05
-0.000391071
1.38736e-05
-0.00039305
8.08327e-06
-0.000393334
1.56884e-06
-0.000392497
-3.08495e-06
-0.00039033
-8.47747e-06
-0.000387325
-1.18494e-05
-0.000383287
-1.60078e-05
-0.000378761
-1.80646e-05
-0.000373469
-2.09849e-05
-0.000368025
-2.16726e-05
-0.000362233
-2.307e-05
-0.000356433
-2.30769e-05
-0.000350389
-2.41297e-05
-0.00034466
-2.29513e-05
-0.000338775
-2.34372e-05
-0.000333302
-2.18304e-05
-0.000327827
-2.19085e-05
-0.00032273
-2.04134e-05
-0.000317723
-2.00007e-05
-0.000313101
-1.84743e-05
-0.000308621
-1.78935e-05
-0.000304457
-1.67775e-05
-0.000300483
-1.58161e-05
-0.000296788
-1.48406e-05
-0.000293301
-1.4023e-05
-0.000289915
-1.34656e-05
-0.000286843
-1.23402e-05
-0.000283801
-1.21819e-05
-0.000280982
-1.12508e-05
-0.000278179
-1.12322e-05
-0.000275599
-1.03952e-05
-0.000272874
-1.0841e-05
-0.000270371
-1.01473e-05
-0.000267667
-1.07849e-05
-0.000264973
-1.08638e-05
-0.000262124
-1.14601e-05
-0.000259026
-1.24234e-05
-0.000255723
-1.33087e-05
-0.000251985
-1.50156e-05
-0.000247893
-1.64681e-05
-0.000243213
-1.87408e-05
-0.000238025
-2.08149e-05
-0.000232159
-2.34783e-05
-0.000225638
-2.61053e-05
-0.00021837
-2.90812e-05
-0.000210346
-3.21177e-05
-0.000201501
-3.53848e-05
-0.000191842
-3.86118e-05
-0.000181364
-4.1878e-05
-0.000170105
-4.49648e-05
-0.000158123
-4.79016e-05
-0.000145486
-5.0532e-05
-0.000132241
-5.28654e-05
-0.000118512
-5.4825e-05
-0.000104417
-5.62737e-05
-9.00804e-05
-5.72288e-05
-7.56216e-05
-5.76656e-05
-6.12057e-05
-5.75987e-05
-4.69708e-05
-5.68287e-05
-3.30563e-05
-5.55405e-05
-1.9606e-05
-5.36681e-05
-6.82433e-06
-5.10059e-05
5.11143e-06
-4.76438e-05
1.6076e-05
-4.38164e-05
2.59842e-05
-3.96096e-05
3.47981e-05
-3.51987e-05
4.24372e-05
-3.04945e-05
4.88047e-05
-2.53384e-05
5.37771e-05
-1.98639e-05
5.73177e-05
-1.42056e-05
5.95399e-05
-8.83904e-06
6.03487e-05
-3.20133e-06
5.97331e-05
2.4513e-06
5.77798e-05
7.72263e-06
5.4581e-05
1.28122e-05
5.00689e-05
1.79712e-05
4.44572e-05
2.23693e-05
3.7725e-05
2.68669e-05
3.00464e-05
3.06353e-05
2.14295e-05
3.43527e-05
1.20616e-05
3.73763e-05
1.96084e-06
4.02678e-05
-8.61334e-06
4.22434e-05
-1.96472e-05
4.40783e-05
-3.10467e-05
4.54919e-05
-4.26285e-05
4.62399e-05
-5.43809e-05
4.68702e-05
-6.59539e-05
4.6254e-05
-7.74593e-05
4.59849e-05
-8.86778e-05
4.48328e-05
-9.97236e-05
4.40432e-05
-0.000110364
4.2547e-05
-0.000120574
4.0855e-05
-0.000130402
3.92263e-05
-0.00013977
3.73375e-05
-0.000148591
3.51391e-05
-0.000156905
3.32296e-05
-0.000164581
3.08403e-05
-0.000171658
2.83486e-05
-0.000178136
2.58859e-05
-0.000183715
2.22634e-05
-0.000188602
1.93472e-05
-0.000192434
1.53626e-05
-0.000195478
1.19731e-05
-0.000197178
6.75161e-06
-0.000197835
2.57827e-06
-0.000196825
-3.75261e-06
-0.000194514
-8.17512e-06
-0.000190301
-1.36251e-05
-0.000184912
-1.5516e-05
-0.000178081
-1.93005e-05
-0.000170603
-2.48492e-05
-0.000160646
-4.25536e-05
-0.00014567
-5.93761e-05
-9.09765e-05
-0.000123684
-0.000396391
-0.000106572
-0.000374343
-0.000109701
-0.000352803
-0.000107208
-0.000331453
-0.000106255
-0.000311096
-0.000101329
-0.000291546
-9.73064e-05
-0.000273446
-9.01103e-05
-0.000256711
-8.33073e-05
-0.000241807
-7.42017e-05
-0.000228722
-6.51264e-05
-0.00021772
-5.47221e-05
-0.000208823
-4.41412e-05
-0.000202133
-3.30163e-05
-0.000197712
-2.18438e-05
-0.000195686
-1.06625e-05
-0.000195888
5.29052e-07
-0.00019792
9.71182e-06
-0.000201837
1.93657e-05
-0.000207562
2.84613e-05
-0.000215118
3.76181e-05
-0.000224294
4.57132e-05
-0.000235163
5.41595e-05
-0.00024741
6.10435e-05
-0.000261173
6.85963e-05
-0.000276033
7.40701e-05
-0.000292184
8.05059e-05
-0.000309113
8.4381e-05
-0.00032706
8.94549e-05
-0.000345435
9.1591e-05
-0.000364511
9.5081e-05
-0.000383655
9.54233e-05
-0.000403151
9.71761e-05
-0.000422368
9.57956e-05
-0.000441656
9.61426e-05
-0.00046064
9.46346e-05
-0.000478858
9.0823e-05
-0.000496517
8.80421e-05
-0.000513119
8.27814e-05
-0.000528842
7.84069e-05
-0.000543278
7.20082e-05
-0.000556568
6.63109e-05
-0.000568407
5.91103e-05
-0.000578908
5.24873e-05
-0.000587866
4.48927e-05
-0.000595368
3.78602e-05
-0.000601268
3.04077e-05
-0.000605586
2.36411e-05
-0.000608047
1.68922e-05
-0.000609268
8.92247e-06
-0.000609969
6.82795e-08
-0.000608771
-1.08486e-05
-0.000605414
-1.8548e-05
-0.000600286
-2.60941e-05
-0.000593565
-3.36791e-05
-0.000585338
-4.11278e-05
-0.000575646
-4.84165e-05
-0.000564531
-5.55129e-05
-0.00055208
-6.21734e-05
-0.000538309
-6.87655e-05
-0.000523373
-7.45853e-05
-0.000507248
-8.0527e-05
-0.000490152
-8.53763e-05
-0.000472028
-9.0526e-05
-0.000453158
-9.42446e-05
-0.000433515
-9.81022e-05
-0.000413689
-9.89546e-05
-0.000393519
-0.000100726
-0.000373161
-0.000101659
-0.000352473
-0.000103329
-0.000331821
-0.000103152
-0.000311123
-0.000103417
-0.0002904
-0.000103574
-0.000269892
-0.000102537
-0.000249469
-0.000102159
-0.000229335
-0.000100711
-0.000209289
-0.000100279
-0.000189566
-9.86233e-05
-0.000169866
-9.84138e-05
-0.000150602
-9.61318e-05
-0.000131457
-9.53451e-05
-0.000113121
-9.11069e-05
-9.53642e-05
-8.7913e-05
-7.91822e-05
-7.99709e-05
-6.44783e-05
-7.24249e-05
-5.24002e-05
-5.93643e-05
-4.29508e-05
-4.62142e-05
-3.71767e-05
-2.80537e-05
-3.49985e-05
-1.03296e-05
-3.7785e-05
1.4072e-05
-4.49111e-05
3.53539e-05
-5.60372e-05
5.50155e-05
-7.08946e-05
7.33971e-05
-8.88968e-05
8.89252e-05
-0.000109601
0.000102281
-0.000132195
0.000111734
-0.00015605
0.00011805
-0.000180438
0.000120765
-0.000204772
0.000120711
-0.000228593
0.000118161
-0.00025144
0.000113482
-0.000273049
0.000107568
-0.000293155
9.99589e-05
-0.000311594
9.19686e-05
-0.000328146
8.28028e-05
-0.00034298
7.39529e-05
-0.000355741
6.40611e-05
-0.000366702
5.47166e-05
-0.000375717
4.53096e-05
-0.000382728
3.53894e-05
-0.000388133
2.69635e-05
-0.000391507
1.72477e-05
-0.00039344
1.00154e-05
-0.000393677
1.80655e-06
-0.000392788
-3.97417e-06
-0.000390583
-1.06829e-05
-0.000387541
-1.48911e-05
-0.00038346
-2.00886e-05
-0.000378917
-2.26083e-05
-0.000373574
-2.63275e-05
-0.000368093
-2.71537e-05
-0.000362287
-2.88762e-05
-0.00035647
-2.88938e-05
-0.000350391
-3.02088e-05
-0.000344661
-2.86812e-05
-0.000338761
-2.93375e-05
-0.000333281
-2.73105e-05
-0.000327806
-2.73835e-05
-0.000322699
-2.55197e-05
-0.000317691
-2.50092e-05
-0.000313076
-2.30889e-05
-0.000308582
-2.23881e-05
-0.00030443
-2.09291e-05
-0.000300452
-1.97941e-05
-0.00029677
-1.85231e-05
-0.000293275
-1.75175e-05
-0.000289902
-1.68385e-05
-0.000286832
-1.54106e-05
-0.000283786
-1.5228e-05
-0.00028097
-1.40664e-05
-0.00027818
-1.40222e-05
-0.000275612
-1.29632e-05
-0.000272885
-1.35679e-05
-0.000270414
-1.26189e-05
-0.000267693
-1.35055e-05
-0.00026503
-1.35273e-05
-0.00026219
-1.43e-05
-0.000259102
-1.55104e-05
-0.000255829
-1.65823e-05
-0.0002521
-1.87447e-05
-0.000248032
-2.05354e-05
-0.000243358
-2.34153e-05
-0.000238192
-2.59812e-05
-0.000232333
-2.93369e-05
-0.000225822
-3.26164e-05
-0.00021856
-3.63424e-05
-0.00021054
-4.01376e-05
-0.000201703
-4.42219e-05
-0.000192039
-4.82762e-05
-0.000181559
-5.23577e-05
-0.000170289
-5.62345e-05
-0.000158295
-5.98959e-05
-0.000145663
-6.31638e-05
-0.00013237
-6.61585e-05
-0.000118608
-6.85861e-05
-0.000104484
-7.03988e-05
-9.01225e-05
-7.15898e-05
-7.56192e-05
-7.21687e-05
-6.11758e-05
-7.2042e-05
-4.6914e-05
-7.10905e-05
-3.29607e-05
-6.94939e-05
-1.94742e-05
-6.71544e-05
-6.66701e-06
-6.3813e-05
5.30604e-06
-5.96167e-05
1.62987e-05
-5.4809e-05
2.62053e-05
-4.9516e-05
3.50366e-05
-4.40299e-05
4.26958e-05
-3.81539e-05
4.90989e-05
-3.17414e-05
5.40771e-05
-2.48418e-05
5.76126e-05
-1.7741e-05
5.98377e-05
-1.10643e-05
6.06453e-05
-4.00901e-06
6.00272e-05
3.0695e-06
5.80446e-05
9.70536e-06
5.4853e-05
1.60039e-05
5.03148e-05
2.25095e-05
4.46772e-05
2.80071e-05
3.79248e-05
3.36194e-05
3.0224e-05
3.83363e-05
2.15913e-05
4.29855e-05
1.22042e-05
4.67636e-05
2.05847e-06
5.04137e-05
-8.52056e-06
5.28226e-05
-1.95955e-05
5.51534e-05
-3.10105e-05
5.6907e-05
-4.26222e-05
5.78515e-05
-5.44127e-05
5.86607e-05
-6.59877e-05
5.78289e-05
-7.75188e-05
5.75161e-05
-8.874e-05
5.60539e-05
-9.98268e-05
5.513e-05
-0.000110474
5.3194e-05
-0.000120665
5.10461e-05
-0.000130523
4.90845e-05
-0.000139895
4.6709e-05
-0.000148705
4.39499e-05
-0.000157085
4.1609e-05
-0.000164739
3.84946e-05
-0.000171839
3.54486e-05
-0.0001783
3.23466e-05
-0.000183919
2.78823e-05
-0.000188843
2.42715e-05
-0.000192674
1.9194e-05
-0.000195722
1.50212e-05
-0.000197455
8.48414e-06
-0.000198152
3.27551e-06
-0.000197176
-4.728e-06
-0.000194841
-1.05105e-05
-0.000190433
-1.80328e-05
-0.000184772
-2.1177e-05
-0.000177893
-2.618e-05
-0.000170993
-3.17488e-05
-0.000162897
-5.06495e-05
-0.000150116
-7.21579e-05
-0.000110023
-0.000131069
-0.000396426
-0.000128042
-0.000374297
-0.00013183
-0.000352678
-0.000128827
-0.000331252
-0.000127681
-0.000310822
-0.000121759
-0.000291202
-0.000116927
-0.000273039
-0.000108273
-0.000256249
-0.000100098
-0.0002413
-8.91506e-05
-0.000228179
-7.82472e-05
-0.000217153
-6.57481e-05
-0.000208243
-5.3051e-05
-0.000201558
-3.97017e-05
-0.00019715
-2.6252e-05
-0.000195116
-1.26969e-05
-0.000195308
7.20955e-07
-0.000197358
1.17625e-05
-0.000201302
2.33091e-05
-0.000207052
3.42112e-05
-0.000214634
4.52005e-05
-0.000223838
5.49167e-05
-0.000234737
6.5059e-05
-0.000247017
7.33235e-05
-0.000260816
8.23951e-05
-0.000275714
8.89677e-05
-0.000291908
9.66995e-05
-0.000308879
0.000101353