/*--------------------------------*- C++ -*----------------------------------*\
| =========                 |                                                 |
| \\      /  F ield         | OpenFOAM: The Open Source CFD Toolbox           |
|  \\    /   O peration     | Version:  3.0.1                                 |
|   \\  /    A nd           | Web:      www.OpenFOAM.org                      |
|    \\/     M anipulation  |                                                 |
\*---------------------------------------------------------------------------*/
FoamFile
{
    version     2.0;
    format      ascii;
    class       surfaceScalarField;
    location    "69.2";
    object      alphaPhi;
}
// * * * * * * * * * * * * * * * * * * * * * * * * * * * * * * * * * * * * * //

dimensions      [0 3 -1 0 0 0 0];

internalField   nonuniform List<scalar> 
42423
(
3.6456e-05
-6.74378e-06
4.40009e-05
-7.54492e-06
5.23814e-05
-8.38055e-06
6.15679e-05
-9.18656e-06
7.18142e-05
-1.02463e-05
8.29032e-05
-1.10891e-05
9.50676e-05
-1.21644e-05
0.000108143
-1.30758e-05
0.000121878
-1.37351e-05
0.000136514
-1.46362e-05
0.000151884
-1.53692e-05
0.000167647
-1.57632e-05
0.000183912
-1.62654e-05
0.000200422
-1.65102e-05
0.000217108
-1.66858e-05
0.000233815
-1.67066e-05
0.000250172
-1.63575e-05
0.000266074
-1.59022e-05
0.000281387
-1.5313e-05
0.000295798
-1.44108e-05
0.00030916
-1.33624e-05
0.000321331
-1.21711e-05
0.000332091
-1.07594e-05
0.000341226
-9.13557e-06
0.000348647
-7.42052e-06
0.000354161
-5.51453e-06
0.000357708
-3.54639e-06
0.000359154
-1.44641e-06
0.000358547
6.07327e-07
0.000355913
2.63373e-06
0.000351015
4.89765e-06
0.000344214
6.80168e-06
0.000335537
8.67687e-06
0.000325215
1.03218e-05
0.000313476
1.17392e-05
0.000300288
1.31881e-05
0.000285977
1.431e-05
0.000270904
1.50733e-05
0.000255057
1.58471e-05
0.000238842
1.62149e-05
0.000222426
1.64161e-05
0.000206064
1.63622e-05
0.000189978
1.60862e-05
0.00017427
1.57072e-05
0.000159086
1.5184e-05
0.000144595
1.44911e-05
0.000130796
1.37988e-05
0.000117793
1.30031e-05
0.000105595
1.2198e-05
9.41437e-05
1.14516e-05
8.34568e-05
1.06869e-05
7.34575e-05
9.99926e-06
6.41033e-05
9.35419e-06
5.53377e-05
8.76559e-06
4.70999e-05
8.23785e-06
3.93571e-05
7.74273e-06
3.20452e-05
7.31189e-06
2.51535e-05
6.89176e-06
1.87067e-05
6.44674e-06
1.2688e-05
6.01873e-06
7.13189e-06
5.55612e-06
2.03306e-06
5.09883e-06
-2.63536e-06
4.66843e-06
-6.81895e-06
4.18359e-06
-1.0558e-05
3.73901e-06
-1.39026e-05
3.34464e-06
-1.67611e-05
2.85852e-06
-1.92312e-05
2.47005e-06
-2.13474e-05
2.11617e-06
-2.32021e-05
1.85473e-06
-2.499e-05
1.78791e-06
-2.67226e-05
1.73262e-06
-2.83959e-05
1.67328e-06
-2.99577e-05
1.56175e-06
-3.14246e-05
1.46694e-06
-3.25182e-05
1.09361e-06
-3.33694e-05
8.51192e-07
-3.37123e-05
3.42837e-07
-3.29819e-05
-7.30373e-07
-3.15823e-05
-1.39959e-06
-2.91148e-05
-2.46758e-06
-2.54587e-05
-3.6561e-06
-2.06436e-05
-4.81512e-06
-1.45682e-05
-6.07538e-06
-7.14271e-06
-7.42552e-06
1.69965e-06
-8.84239e-06
1.23465e-05
-1.06468e-05
2.4243e-05
-1.18966e-05
3.72294e-05
-1.29863e-05
5.11698e-05
-1.39404e-05
6.59437e-05
-1.47739e-05
8.14341e-05
-1.54904e-05
9.75602e-05
-1.61261e-05
0.000114194
-1.66342e-05
0.000131263
-1.7069e-05
0.000148589
-1.73253e-05
0.000166061
-1.74721e-05
0.000183564
-1.75027e-05
0.000200863
-1.72992e-05
0.000217806
-1.69435e-05
0.000234196
-1.63895e-05
0.000249829
-1.56327e-05
0.000264529
-1.46998e-05
0.000278105
-1.35766e-05
0.000290355
-1.225e-05
0.000301143
-1.07876e-05
0.000310295
-9.15135e-06
0.000317666
-7.37122e-06
0.000323162
-5.49526e-06
0.000326642
-3.48008e-06
0.000328116
-1.47414e-06
0.000327577
5.40026e-07
0.000324923
2.65424e-06
0.00032021
4.71274e-06
0.000313578
6.63322e-06
0.000305186
8.39187e-06
0.000294991
1.01958e-05
0.000283288
1.17024e-05
0.000270258
1.30307e-05
0.000256069
1.41891e-05
0.00024083
1.52394e-05
0.000224872
1.5958e-05
0.000208276
1.65962e-05
0.000191282
1.6995e-05
0.000174113
1.71689e-05
0.000156945
1.71676e-05
0.000139934
1.70111e-05
0.000123324
1.66105e-05
0.000107257
1.60667e-05
9.18169e-05
1.54405e-05
7.71596e-05
1.46574e-05
6.33791e-05
1.37805e-05
5.04748e-05
1.29043e-05
3.85586e-05
1.19163e-05
2.75876e-05
1.0971e-05
1.76907e-05
9.89695e-06
8.73413e-06
8.95657e-06
8.36977e-07
7.89715e-06
-6.04913e-06
6.88611e-06
-1.19248e-05
5.87568e-06
-1.68188e-05
4.89399e-06
-2.08353e-05
4.01644e-06
-2.40192e-05
3.18392e-06
-2.64392e-05
2.41998e-06
-2.81703e-05
1.73108e-06
-2.92673e-05
1.09702e-06
-2.98715e-05
6.04194e-07
-2.99253e-05
5.37269e-08
-2.94838e-05
-4.41496e-07
-2.85807e-05
-9.03071e-07
-2.72264e-05
-1.35434e-06
-2.5404e-05
-1.8224e-06
-2.31352e-05
-2.26887e-06
-2.04353e-05
-2.69988e-06
-1.72434e-05
-3.19188e-06
-1.35367e-05
-3.7068e-06
-9.38353e-06
-4.15315e-06
-4.6646e-06
-4.71895e-06
5.16983e-07
-5.18161e-06
6.28911e-06
-5.77216e-06
1.26456e-05
-6.35654e-06
1.9587e-05
-6.94142e-06
2.71176e-05
-7.53059e-06
3.52498e-05
-8.13227e-06
4.39789e-05
-8.72913e-06
5.33119e-05
-9.33302e-06
6.32671e-05
-9.95522e-06
7.38364e-05
-1.05693e-05
8.50601e-05
-1.12237e-05
9.69378e-05
-1.18778e-05
0.00010951
-1.25725e-05
0.000122738
-1.32278e-05
0.000136655
-1.39175e-05
0.000151176
-1.45206e-05
0.000166375
-1.51995e-05
0.000182187
-1.58115e-05
0.000198571
-1.63847e-05
0.000215424
-1.68524e-05
0.000232695
-1.72711e-05
0.000250142
-1.74476e-05
0.000267555
-1.7413e-05
0.000284695
-1.71406e-05
0.000301254
-1.65587e-05
0.000316932
-1.56789e-05
0.000331486
-1.45533e-05
0.000344628
-1.31423e-05
0.00035612
-1.14929e-05
0.000365748
-9.62815e-06
0.000373297
-7.54878e-06
0.00037862
-5.32356e-06
0.00038153
-2.90956e-06
0.000381979
-4.49812e-07
0.00037994
2.03874e-06
0.000375153
4.78745e-06
0.000367828
7.32495e-06
0.000357993
9.83405e-06
0.000345848
1.21456e-05
0.000331558
1.42891e-05
0.000315455
1.61028e-05
0.000297879
1.75769e-05
0.000279171
1.8707e-05
0.000259619
1.95522e-05
0.00023965
1.99692e-05
0.000219573
2.00766e-05
0.000199655
1.99185e-05
0.000180148
1.95067e-05
0.000161216
1.89321e-05
0.000143057
1.81586e-05
0.000125748
1.73093e-05
0.000109414
1.63342e-05
9.40878e-05
1.53262e-05
7.99039e-05
1.41839e-05
6.683e-05
1.30739e-05
5.48851e-05
1.19449e-05
4.40439e-05
1.08412e-05
3.4248e-05
9.79597e-06
2.55473e-05
8.70069e-06
1.78917e-05
7.65557e-06
1.12081e-05
6.68359e-06
5.46005e-06
5.74808e-06
6.30157e-07
4.82989e-06
-3.34979e-06
3.97995e-06
-6.58244e-06
3.23265e-06
-9.08895e-06
2.50651e-06
-1.09263e-05
1.83739e-06
-1.22495e-05
1.32315e-06
-1.30002e-05
7.50654e-07
-1.33561e-05
3.55917e-07
-1.31748e-05
-1.81267e-07
-1.26183e-05
-5.56562e-07
-1.15792e-05
-1.0391e-06
-1.01142e-05
-1.46499e-06
-8.11592e-06
-1.99827e-06
-5.66565e-06
-2.45028e-06
-2.72054e-06
-2.94513e-06
7.39812e-07
-3.46036e-06
4.75411e-06
-4.01431e-06
9.33513e-06
-4.58104e-06
1.44833e-05
-5.14815e-06
2.02796e-05
-5.79635e-06
2.67271e-05
-6.44753e-06
3.38428e-05
-7.1157e-06
4.16077e-05
-7.76499e-06
5.00102e-05
-8.40252e-06
5.90626e-05
-9.05245e-06
6.8739e-05
-9.67648e-06
7.90152e-05
-1.02762e-05
8.99083e-05
-1.08931e-05
0.000101417
-1.15086e-05
0.000113516
-1.20993e-05
0.00012622
-1.27042e-05
0.000139529
-1.33086e-05
0.000153391
-1.38626e-05
0.000167785
-1.43938e-05
0.000182635
-1.48505e-05
0.000197844
-1.52093e-05
0.000213246
-1.54015e-05
0.00022867
-1.54243e-05
0.000243913
-1.52435e-05
0.000258765
-1.48522e-05
0.000272955
-1.41899e-05
0.00028627
-1.33147e-05
0.000298427
-1.21576e-05
0.000309157
-1.07298e-05
0.000318229
-9.07266e-06
0.000325428
-7.19886e-06
0.000330576
-5.1483e-06
0.000333491
-2.91524e-06
0.000334055
-5.64625e-07
0.000332023
2.03205e-06
0.000327535
4.48784e-06
0.000320917
6.61725e-06
0.00031242
8.49614e-06
0.000302251
1.01687e-05
0.00029073
1.15203e-05
0.000278214
1.25159e-05
0.000265147
1.30662e-05
0.000251827
1.33195e-05
0.000238274
1.35516e-05
0.000224682
1.35916e-05
0.000211128
1.35541e-05
0.000197638
1.34893e-05
0.000184215
1.34224e-05
0.000170834
1.33811e-05
0.000157451
1.33826e-05
0.000144081
1.33699e-05
0.000130731
1.33503e-05
0.000117498
1.32322e-05
0.000104487
1.30113e-05
9.18254e-05
1.26615e-05
7.96317e-05
1.21937e-05
6.8044e-05
1.15876e-05
5.7196e-05
1.0848e-05
4.71588e-05
1.00372e-05
3.80002e-05
9.15861e-06
2.97866e-05
8.21367e-06
2.2517e-05
7.26956e-06
1.61957e-05
6.32129e-06
1.08146e-05
5.38115e-06
6.33482e-06
4.47975e-06
2.7327e-06
3.60212e-06
-6.50401e-08
2.79774e-06
-2.30417e-06
2.23913e-06
-3.87269e-06
1.56852e-06
-4.84176e-06
9.6907e-07
-5.28207e-06
4.40306e-07
-5.17636e-06
-1.05706e-07
-4.59861e-06
-5.77756e-07
-3.6266e-06
-9.72013e-07
-2.32047e-06
-1.30613e-06
-7.89416e-07
-1.53106e-06
1.07227e-06
-1.86169e-06
3.3709e-06
-2.29864e-06
5.92731e-06
-2.55641e-06
9.02441e-06
-3.0971e-06
1.25624e-05
-3.53796e-06
1.68051e-05
-4.2427e-06
2.17755e-05
-4.97044e-06
2.72906e-05
-5.51507e-06
3.37163e-05
-6.42577e-06
4.11476e-05
-7.43131e-06
4.92923e-05
-8.14469e-06
5.85201e-05
-9.22779e-06
6.87012e-05
-1.01811e-05
7.99838e-05
-1.12826e-05
9.2356e-05
-1.23723e-05
0.000105419
-1.30627e-05
0.000119419
-1.40004e-05
0.000134334
-1.49145e-05
0.000149743
-1.54092e-05
0.000165821
-1.60779e-05
0.000182465
-1.66442e-05
0.000199272
-1.68077e-05
0.000216241
-1.69687e-05
0.000233123
-1.68824e-05
0.00024979
-1.6667e-05
0.000266098
-1.63072e-05
0.00028163
-1.55329e-05
0.000296252
-1.4622e-05
0.000309828
-1.35761e-05
0.000322106
-1.22782e-05
0.0003329
-1.0794e-05
0.000342045
-9.14469e-06
0.000349383
-7.33817e-06
0.000354794
-5.41043e-06
0.000358202
-3.40824e-06
0.000359516
-1.31443e-06
0.000358683
8.33575e-07
0.000355626
3.05674e-06
0.000350572
5.05367e-06
0.00034358
6.99197e-06
0.000334886
8.69369e-06
0.000324578
1.03088e-05
0.000312673
1.19042e-05
0.000299638
1.30353e-05
0.000285584
1.40542e-05
1.50613e-05
3.64223e-05
-1.34841e-05
4.39648e-05
-1.50874e-05
5.23442e-05
-1.676e-05
6.15284e-05
-1.83709e-05
7.1776e-05
-2.04939e-05
8.28773e-05
-2.21905e-05
9.50558e-05
-2.43429e-05
0.000108136
-2.61563e-05
0.000121862
-2.7461e-05
0.000136494
-2.9268e-05
0.000151871
-3.07459e-05
0.000167642
-3.15343e-05
0.000183919
-3.25432e-05
0.000200435
-3.30263e-05
0.000217132
-3.33826e-05
0.000233862
-3.3437e-05
0.000250226
-3.27212e-05
0.000266122
-3.17981e-05
0.000281444
-3.06352e-05
0.000295865
-2.88318e-05
0.000309236
-2.67339e-05
0.000321425
-2.43603e-05
0.000332191
-2.1525e-05
0.000341333
-1.82777e-05
0.000348761
-1.48489e-05
0.000354269
-1.10221e-05
0.000357815
-7.09311e-06
0.000359275
-2.90605e-06
0.000358663
1.21912e-06
0.000356017
5.27949e-06
0.000351121
9.79381e-06
0.000344315
1.36079e-05
0.000335631
1.73609e-05
0.000325304
2.06481e-05
0.000313555
2.34883e-05
0.000300356
2.63868e-05
0.000286035
2.86312e-05
0.000270954
3.01549e-05
0.000255097
3.17037e-05
0.00023887
3.24413e-05
0.000222444
3.28426e-05
0.000206073
3.2733e-05
0.00018998
3.21795e-05
0.000174266
3.14215e-05
0.000159076
3.03737e-05
0.000144581
2.89859e-05
0.000130778
2.76015e-05
0.000117773
2.60081e-05
0.000105571
2.44e-05
9.41232e-05
2.28998e-05
8.34346e-05
2.13755e-05
7.34438e-05
1.999e-05
6.40943e-05
1.87037e-05
5.53227e-05
1.75373e-05
4.70857e-05
1.64748e-05
3.93417e-05
1.54868e-05
3.20292e-05
1.46244e-05
2.51381e-05
1.37829e-05
1.86899e-05
1.2895e-05
1.26686e-05
1.204e-05
7.10873e-06
1.1116e-05
2.01209e-06
1.01955e-05
-2.65971e-06
9.34023e-06
-6.8456e-06
8.36947e-06
-1.05856e-05
7.47902e-06
-1.39329e-05
6.69192e-06
-1.67935e-05
5.71914e-06
-1.92613e-05
4.93785e-06
-2.13765e-05
4.23134e-06
-2.32223e-05
3.7005e-06
-2.50047e-05
3.57033e-06
-2.67234e-05
3.45138e-06
-2.83824e-05
3.33221e-06
-2.99267e-05
3.10605e-06
-3.13788e-05
2.91901e-06
-3.24617e-05
2.17657e-06
-3.32947e-05
1.68415e-06
-3.36208e-05
6.68898e-07
-3.28703e-05
-1.4809e-06
-3.14547e-05
-2.81518e-06
-2.89698e-05
-4.95248e-06
-2.52993e-05
-7.32669e-06
-2.04712e-05
-9.64323e-06
-1.43835e-05
-1.21631e-05
-6.95037e-06
-1.48587e-05
1.93179e-06
-1.77246e-05
1.2579e-05
-2.12941e-05
2.44775e-05
-2.37951e-05
3.74708e-05
-2.59797e-05
5.14166e-05
-2.78863e-05
6.61836e-05
-2.9541e-05
8.1672e-05
-3.09788e-05
9.78055e-05
-3.22597e-05
0.000114441
-3.32694e-05
0.000131525
-3.41533e-05
0.000148841
-3.46409e-05
0.000166326
-3.49581e-05
0.000183808
-3.49848e-05
0.000201128
-3.46188e-05
0.00021812
-3.39354e-05
0.000234487
-3.27564e-05
0.000250164
-3.13094e-05
0.00026486
-2.93964e-05
0.00027843
-2.71467e-05
0.000290691
-2.45103e-05
0.000301531
-2.16273e-05
0.000310653
-1.82739e-05
0.000318064
-1.47813e-05
0.000323512
-1.09435e-05
0.000327011
-6.97912e-06
0.000328492
-2.95447e-06
0.000327934
1.09815e-06
0.000325295
5.29338e-06
0.000320568
9.44022e-06
0.000313928
1.32734e-05
0.000305486
1.68348e-05
0.000295306
2.03758e-05
0.0002836
2.34086e-05
0.000270594
2.60369e-05
0.000256344
2.84404e-05
0.000241098
3.04853e-05
0.000225126
3.19298e-05
0.000208473
3.32496e-05
0.000191454
3.40141e-05
0.000174254
3.43698e-05
0.000157071
3.43506e-05
0.00014004
3.40423e-05
0.000123383
3.3268e-05
0.000107294
3.21556e-05
9.1829e-05
3.09057e-05
7.71463e-05
2.93402e-05
6.33361e-05
2.75909e-05
5.04166e-05
2.58238e-05
3.84904e-05
2.38426e-05
2.75009e-05
2.19606e-05
1.75848e-05
1.98131e-05
8.60578e-06
1.79356e-05
6.92421e-07
1.58105e-05
-6.18748e-06
1.3766e-05
-1.20676e-05
1.17558e-05
-1.69756e-05
9.80192e-06
-2.09934e-05
8.03432e-06
-2.41767e-05
6.36718e-06
-2.66027e-05
4.846e-06
-2.83241e-05
3.4524e-06
-2.94554e-05
2.2283e-06
-3.003e-05
1.17884e-06
-3.00766e-05
1.00263e-07
-2.96504e-05
-8.67721e-07
-2.87428e-05
-1.81066e-06
-2.73824e-05
-2.71477e-06
-2.5537e-05
-3.66779e-06
-2.33174e-05
-4.48847e-06
-2.05894e-05
-5.42786e-06
-1.73963e-05
-6.38506e-06
-1.36658e-05
-7.43722e-06
-9.52906e-06
-8.28994e-06
-4.83833e-06
-9.40969e-06
3.84409e-07
-1.04044e-05
6.1703e-06
-1.15581e-05
1.25312e-05
-1.27174e-05
1.94668e-05
-1.3877e-05
2.70035e-05
-1.50674e-05
3.51401e-05
-1.62689e-05
4.38716e-05
-1.74606e-05
5.3207e-05
-1.86684e-05
6.31658e-05
-1.9914e-05
7.37317e-05
-2.11353e-05
8.49533e-05
-2.24453e-05
9.68405e-05
-2.37652e-05
0.000109404
-2.51361e-05
0.000122648
-2.64717e-05
0.000136539
-2.78083e-05
0.000151073
-2.90553e-05
0.000166286
-3.04126e-05
0.000182073
-3.15979e-05
0.000198456
-3.27687e-05
0.000215337
-3.37327e-05
0.000232595
-3.45297e-05
0.000250058
-3.49102e-05
0.000267519
-3.48747e-05
0.000284652
-3.42734e-05
0.00030121
-3.3117e-05
0.000316932
-3.14014e-05
0.000331488
-2.9109e-05
0.000344632
-2.62868e-05
0.000356133
-2.29939e-05
0.000365774
-1.92699e-05
0.00037334
-1.51149e-05
0.000378673
-1.06564e-05
0.000381618
-5.85512e-06
0.000382061
-8.93164e-07
0.000379972
4.1277e-06
0.000375179
9.58003e-06
0.000367862
1.46417e-05
0.000358006
1.96903e-05
0.000345841
2.43103e-05
0.000331563
2.85678e-05
0.000315466
3.21994e-05
0.000297864
3.51792e-05
0.000279111
3.74597e-05
0.000259554
3.91089e-05
0.000239573
3.99509e-05
0.000219482
4.01676e-05
0.000199548
3.98522e-05
0.000180042
3.90132e-05
0.000161123
3.78503e-05
0.000142945
3.63369e-05
0.000125612
3.46425e-05
0.000109256
3.26902e-05
9.39703e-05
3.06122e-05
7.97708e-05
2.83834e-05
6.66916e-05
2.61532e-05
5.47313e-05
2.39053e-05
4.38803e-05
2.16923e-05
3.41127e-05
1.95636e-05
2.54173e-05
1.73962e-05
1.7762e-05
1.53109e-05
1.10845e-05
1.33611e-05
5.3413e-06
1.14913e-05
5.0162e-07
9.66959e-06
-3.46553e-06
7.94711e-06
-6.69982e-06
6.46695e-06
-9.20667e-06
5.01336e-06
-1.10525e-05
3.6832e-06
-1.23441e-05
2.61475e-06
-1.31042e-05
1.51081e-06
-1.34543e-05
7.05964e-07
-1.32752e-05
-3.60332e-07
-1.2699e-05
-1.13274e-06
-1.16801e-05
-2.05799e-06
-1.02088e-05
-2.93634e-06
-8.24854e-06
-3.95854e-06
-5.80056e-06
-4.89826e-06
-2.79968e-06
-5.94602e-06
6.38824e-07
-6.89887e-06
4.63793e-06
-8.01343e-06
9.22149e-06
-9.16461e-06
1.43691e-05
-1.02958e-05
2.01639e-05
-1.15912e-05
2.66134e-05
-1.2897e-05
3.37121e-05
-1.42144e-05
4.1489e-05
-1.55418e-05
4.98956e-05
-1.68092e-05
5.89342e-05
-1.80911e-05
6.86107e-05
-1.9353e-05
7.88901e-05
-2.05556e-05
8.97854e-05
-2.17885e-05
0.000101304
-2.30269e-05
0.000113403
-2.41983e-05
0.000126091
-2.53929e-05
0.0001394
-2.6618e-05
0.00015327
-2.77322e-05
0.000167697
-2.88207e-05
0.000182533
-2.96867e-05
0.000197741
-3.04177e-05
0.000213149
-3.08093e-05
0.000228584
-3.08591e-05
0.000243858
-3.0518e-05
0.000258701
-2.96957e-05
0.000272917
-2.8406e-05
0.00028624
-2.66381e-05
0.000298433
-2.43504e-05
0.000309165
-2.14615e-05
0.000318244
-1.81519e-05
0.000325441
-1.4396e-05
0.000330606
-1.03139e-05
0.000333529
-5.83875e-06
0.0003341
-1.13607e-06
0.000332046
4.08621e-06
0.000327571
8.96234e-06
0.000320978
1.32099e-05
0.000312478
1.69956e-05
0.000302304
2.03424e-05
0.000290776
2.30476e-05
0.000278248
2.5043e-05
0.000265169
2.61441e-05
0.000251832
2.66564e-05
0.000238261
2.71216e-05
0.000224651
2.7201e-05
0.000211081
2.71238e-05
0.000197577
2.69927e-05
0.000184142
2.6857e-05
0.000170753
2.67701e-05
0.000157364
2.67712e-05
0.000143991
2.67432e-05
0.00013064
2.67007e-05
0.00011741
2.6463e-05
0.0001044
2.6021e-05
9.17417e-05
2.53197e-05
7.95524e-05
2.4383e-05
6.79697e-05
2.31703e-05
5.71268e-05
2.16909e-05
4.70946e-05
2.00693e-05
3.7941e-05
1.83122e-05
2.9732e-05
1.64227e-05
2.24669e-05
1.45347e-05
1.61495e-05
1.26386e-05
1.07724e-05
1.07583e-05
6.2963e-06
8.95582e-06
2.69847e-06
7.19995e-06
-1.06442e-07
5.60266e-06
-2.33785e-06
4.47054e-06
-3.90258e-06
3.13325e-06
-4.86836e-06
1.93485e-06
-5.30549e-06
8.77437e-07
-5.19662e-06
-2.14574e-07
-4.61719e-06
-1.15719e-06
-3.64227e-06
-1.94694e-06
-2.33549e-06
-2.61291e-06
-8.04422e-07
-3.06214e-06
1.05539e-06
-3.7215e-06
3.34908e-06
-4.59234e-06
5.90209e-06
-5.10943e-06
8.99288e-06
-6.1879e-06
1.25218e-05
-7.06694e-06
1.67528e-05
-8.47368e-06
2.17123e-05
-9.92997e-06
2.72238e-05
-1.10266e-05
3.36454e-05
-1.28473e-05
4.10698e-05
-1.48558e-05
4.92156e-05
-1.62905e-05
5.84448e-05
-1.8457e-05
6.86238e-05
-2.03602e-05
7.98978e-05
-2.25566e-05
9.2265e-05
-2.47395e-05
0.000105343
-2.61409e-05
0.00011935
-2.80075e-05
0.00013427
-2.98346e-05
0.00014969
-3.08293e-05
0.000165771
-3.21587e-05
0.000182427
-3.33002e-05
0.000199252
-3.36332e-05
0.000216225
-3.39418e-05
0.000233121
-3.37783e-05
0.000249806
-3.33516e-05
0.000266123
-3.26248e-05
0.00028166
-3.10692e-05
0.000296299
-2.9261e-05
0.000309889
-2.71662e-05
0.000322171
-2.45606e-05
0.000332972
-2.1595e-05
0.000342122
-1.82952e-05
0.000349466
-1.46813e-05
0.00035488
-1.08253e-05
0.000358288
-6.8159e-06
0.000359606
-2.6322e-06
0.000358762
1.67707e-06
0.000355706
6.11323e-06
0.000350657
1.01019e-05
0.00034366
1.39894e-05
0.000334959
1.73947e-05
0.000324641
2.06262e-05
0.000312727
2.38181e-05
0.000299683
2.608e-05
0.000285619
2.81175e-05
3.01339e-05
3.63573e-05
-2.02196e-05
4.3896e-05
-2.26261e-05
5.22735e-05
-2.51376e-05
6.1459e-05
-2.75565e-05
7.17118e-05
-3.07468e-05
8.28195e-05
-3.32983e-05
9.50049e-05
-3.65284e-05
0.000108096
-3.92477e-05
0.00012184
-4.12046e-05
0.000136495
-4.39233e-05
0.000151888
-4.61393e-05
0.000167667
-4.73126e-05
0.000183953
-4.88291e-05
0.000200482
-4.95562e-05
0.000217196
-5.00965e-05
0.000233931
-5.01719e-05
0.000250312
-4.91023e-05
0.000266224
-4.77099e-05
0.000281556
-4.59676e-05
0.000295994
-4.32702e-05
0.000309384
-4.01231e-05
0.000321573
-3.65502e-05
0.000332348
-3.22994e-05
0.000341493
-2.74232e-05
0.000348929
-2.22851e-05
0.000354443
-1.65355e-05
0.000357995
-1.06459e-05
0.00035946
-4.37088e-06
0.00035882
1.85955e-06
0.000356165
7.93407e-06
0.000351272
1.46867e-05
0.00034446
2.04199e-05
0.000335764
2.60571e-05
0.000325424
3.09881e-05
0.000313662
3.525e-05
0.000300443
3.96053e-05
0.000286103
4.29719e-05
0.000271002
4.52555e-05
0.000255134
4.75721e-05
0.000238885
4.86901e-05
0.00022244
4.92872e-05
0.000206055
4.91181e-05
0.00018995
4.82843e-05
0.000174223
4.71486e-05
0.000159024
4.55723e-05
0.000144524
4.34862e-05
0.000130717
4.14085e-05
0.000117713
3.90127e-05
0.000105505
3.66072e-05
9.40674e-05
3.43376e-05
8.33856e-05
3.20574e-05
7.33972e-05
2.99784e-05
6.40563e-05
2.80446e-05
5.52795e-05
2.63141e-05
4.7047e-05
2.47072e-05
3.93024e-05
2.32314e-05
3.19922e-05
2.19346e-05
2.51057e-05
2.06694e-05
1.86577e-05
1.93429e-05
1.26346e-05
1.80631e-05
7.07169e-06
1.66789e-05
1.97655e-06
1.52906e-05
-2.69452e-06
1.40113e-05
-6.87811e-06
1.25531e-05
-1.06164e-05
1.12174e-05
-1.39617e-05
1.00371e-05
-1.68182e-05
8.57572e-06
-1.92795e-05
7.39909e-06
-2.13905e-05
6.34233e-06
-2.32214e-05
5.53144e-06
-2.49807e-05
5.32959e-06
-2.66763e-05
5.147e-06
-2.83094e-05
4.96526e-06
-2.98302e-05
4.62683e-06
-3.12524e-05
4.34127e-06
-3.23048e-05
3.22891e-06
-3.31159e-05
2.49531e-06
-3.34205e-05
9.73479e-07
-3.26391e-05
-2.26236e-06
-3.11973e-05
-4.25697e-06
-2.86846e-05
-7.46522e-06
-2.49886e-05
-1.10227e-05
-2.01382e-05
-1.44937e-05
-1.40393e-05
-1.8262e-05
-6.60581e-06
-2.22922e-05
2.34367e-06
-2.66741e-05
1.29939e-05
-3.19444e-05
2.48963e-05
-3.56976e-05
3.78856e-05
-3.8969e-05
5.18287e-05
-4.18294e-05
6.6601e-05
-4.43133e-05
8.20872e-05
-4.64651e-05
9.82196e-05
-4.83921e-05
0.000114859
-4.99091e-05
0.00013194
-5.12341e-05
0.000149293
-5.19939e-05
0.000166763
-5.24279e-05
0.00018425
-5.24716e-05
0.000201572
-5.19412e-05
0.000218534
-5.0897e-05
0.000234944
-4.91663e-05
0.000250599
-4.69646e-05
0.000265329
-4.41267e-05
0.000278929
-4.07463e-05
0.000291209
-3.67898e-05
0.000302025
-3.24434e-05
0.00031118
-2.74285e-05
0.000318565
-2.21663e-05
0.000324053
-1.64314e-05
0.000327591
-1.05166e-05
0.000329062
-4.42542e-06
0.000328474
1.68684e-06
0.000325832
7.93571e-06
0.000321133
1.41396e-05
0.000314505
1.99014e-05
0.000305967
2.53737e-05
0.000295789
3.05541e-05
0.000284065
3.51323e-05
0.00027099
3.9113e-05
0.00025672
4.27105e-05
0.000241495
4.57106e-05
0.00022543
4.79946e-05
0.000208769
4.99114e-05
0.000191716
5.10667e-05
0.000174467
5.16188e-05
0.000157212
5.16063e-05
0.000140176
5.10781e-05
0.00012347
4.99741e-05
0.000107313
4.8313e-05
9.18071e-05
4.64114e-05
7.70947e-05
4.40527e-05
6.32466e-05
4.1439e-05
5.03115e-05
3.87589e-05
3.83375e-05
3.58165e-05
2.7328e-05
3.29701e-05
1.73401e-05
2.9801e-05
8.37677e-06
2.68989e-05
4.44079e-07
2.37432e-05
-6.43611e-06
2.06462e-05
-1.2336e-05
1.76557e-05
-1.72602e-05
1.47262e-05
-2.12789e-05
1.2053e-05
-2.44673e-05
9.55553e-06
-2.68826e-05
7.26129e-06
-2.86283e-05
5.19809e-06
-2.97452e-05
3.34519e-06
-3.03101e-05
1.74365e-06
-3.03386e-05
1.28793e-07
-2.99273e-05
-1.27903e-06
-2.90189e-05
-2.71911e-06
-2.76314e-05
-4.10222e-06
-2.58624e-05
-5.43686e-06
-2.36129e-05
-6.73799e-06
-2.08729e-05
-8.16783e-06
-1.7679e-05
-9.57893e-06
-1.39797e-05
-1.11365e-05
-9.7883e-06
-1.24814e-05
-5.09115e-06
-1.41068e-05
1.45666e-07
-1.56412e-05
5.93323e-06
-1.73456e-05
1.22985e-05
-1.90827e-05
1.92253e-05
-2.08039e-05
2.67807e-05
-2.26228e-05
3.49041e-05
-2.43923e-05
4.36428e-05
-2.61994e-05
5.29878e-05
-2.80134e-05
6.29462e-05
-2.98725e-05
7.35071e-05
-3.16963e-05
8.47396e-05
-3.36778e-05
9.66429e-05
-3.56685e-05
0.000109217
-3.77106e-05
0.000122413
-3.96676e-05
0.000136316
-4.17115e-05
0.000150886
-4.36248e-05
0.000166051
-4.55783e-05
0.000181862
-4.74087e-05
0.000198245
-4.91522e-05
0.000215176
-5.06633e-05
0.000232413
-5.17673e-05
0.000249895
-5.23923e-05
0.000267358
-5.23378e-05
0.000284526
-5.14409e-05
0.000301127
-4.97184e-05
0.000316833
-4.71075e-05
0.000331437
-4.37134e-05
0.000344621
-3.94712e-05
0.000356125
-3.4498e-05
0.000365794
-2.89396e-05
0.000373374
-2.26951e-05
0.000378686
-1.59679e-05
0.000381621
-8.79051e-06
0.00038208
-1.35264e-06
0.000379968
6.2401e-06
0.000375182
1.43651e-05
0.000367824
2.19996e-05
0.000357991
2.95235e-05
0.000345801
3.65003e-05
0.000331547
4.28215e-05
0.000315422
4.83244e-05
0.000297782
5.28187e-05
0.000278974
5.62677e-05
0.000259404
5.86794e-05
0.000239392
5.99629e-05
0.000219254
6.0305e-05
0.000199314
5.9793e-05
0.000179788
5.85386e-05
0.000160848
5.67906e-05
0.000142665
5.45198e-05
0.000125323
5.19851e-05
0.000108974
4.9039e-05
9.36625e-05
4.59235e-05
7.94805e-05
4.25655e-05
6.64188e-05
3.92149e-05
5.44396e-05
3.58845e-05
4.35964e-05
3.25355e-05
3.38647e-05
2.92953e-05
2.51881e-05
2.60728e-05
1.75223e-05
2.29767e-05
1.08518e-05
2.00315e-05
5.12389e-06
1.72193e-05
2.46685e-07
1.45468e-05
-3.74888e-06
1.19427e-05
-6.93869e-06
9.65675e-06
-9.44074e-06
7.51541e-06
-1.12935e-05
5.53596e-06
-1.25271e-05
3.84829e-06
-1.3349e-05
2.33278e-06
-1.36375e-05
9.94399e-07
-1.35343e-05
-4.63461e-07
-1.29338e-05
-1.73331e-06
-1.19381e-05
-3.05366e-06
-1.04052e-05
-4.4693e-06
-8.49079e-06
-5.87291e-06
-6.0274e-06
-7.36165e-06
-3.06752e-06
-8.9059e-06
4.00236e-07
-1.03666e-05
4.41369e-06
-1.20269e-05
8.98244e-06
-1.37334e-05
1.41435e-05
-1.54569e-05
1.99299e-05
-1.73775e-05
2.63743e-05
-1.93414e-05
3.3498e-05
-2.13382e-05
4.1268e-05
-2.33118e-05
4.96701e-05
-2.52112e-05
5.87374e-05
-2.71585e-05
6.83871e-05
-2.90027e-05
7.86731e-05
-3.08417e-05
8.95893e-05
-3.27047e-05
0.000101062
-3.44994e-05
0.000113159
-3.62956e-05
0.000125893
-3.81268e-05
0.00013918
-3.99057e-05
0.00015307
-4.1622e-05
0.000167476
-4.32264e-05
0.000182359
-4.457e-05
0.000197569
-4.56284e-05
0.000213002
-4.62417e-05
0.000228462
-4.63192e-05
0.000243731
-4.57871e-05
0.000258592
-4.45574e-05
0.000272827
-4.26412e-05
0.00028614
-3.99507e-05
0.000298382
-3.65927e-05
0.000309139
-3.22192e-05
0.000318211
-2.72234e-05
0.000325455
-2.16406e-05
0.000330569
-1.54279e-05
0.000333447
-8.7173e-06
0.000334024
-1.71355e-06
0.000332002
6.10793e-06
0.000327601
1.33629e-05
0.000321052
1.97592e-05
0.000312563
2.5484e-05
0.000302383
3.05213e-05
0.000290844
3.45857e-05
0.000278302
3.75848e-05
0.000265204
3.92407e-05
0.000251845
4.0015e-05
0.00023825
4.07164e-05
0.000224614
4.08362e-05
0.000211018
4.07192e-05
0.00019749
4.05201e-05
0.000184035
4.0312e-05
0.00017063
4.01749e-05
0.000157229
4.01718e-05
0.000143847
4.01252e-05
0.000130491
4.00557e-05
0.000117259
3.96956e-05
0.000104251
3.90285e-05
9.15962e-05
3.79747e-05
7.94111e-05
3.6568e-05
6.78356e-05
3.47458e-05
5.70005e-05
3.2526e-05
4.6976e-05
3.00938e-05
3.78303e-05
2.7458e-05
2.96287e-05
2.46243e-05
2.23708e-05
2.17926e-05
1.60617e-05
1.89477e-05
1.06923e-05
1.61277e-05
6.22303e-06
1.34251e-05
2.63859e-06
1.07844e-05
-1.83003e-07
8.42425e-06
-2.40104e-06
6.68858e-06
-3.95818e-06
4.69038e-06
-4.91731e-06
2.89398e-06
-5.34802e-06
1.30815e-06
-5.23262e-06
-3.29973e-07
-4.64933e-06
-1.74049e-06
-3.66917e-06
-2.92709e-06
-2.36107e-06
-3.92101e-06
-8.29914e-07
-4.5933e-06
1.02639e-06
-5.57781e-06
3.3136e-06
-6.87955e-06
5.86177e-06
-7.65761e-06
8.9419e-06
-9.26803e-06
1.24629e-05
-1.05879e-05
1.66835e-05
-1.26943e-05
2.1631e-05
-1.48775e-05
2.71358e-05
-1.65314e-05
3.35499e-05
-1.92615e-05
4.09653e-05
-2.22712e-05
4.91035e-05
-2.44287e-05
5.83268e-05
-2.76803e-05
6.85022e-05
-3.05357e-05
7.97783e-05
-3.38327e-05
9.2151e-05
-3.71122e-05
0.000105229
-3.92185e-05
0.000119239
-4.20183e-05
0.000134178
-4.47732e-05
0.000149609
-4.626e-05
0.000165707
-4.82577e-05
0.000182384
-4.99768e-05
0.00019922
-5.04687e-05
0.000216218
-5.09407e-05
0.000233133
-5.06927e-05
0.000249833
-5.00519e-05
0.000266173
-4.89646e-05
0.000281729
-4.66253e-05
0.000296383
-4.39151e-05
0.000309987
-4.07701e-05
0.000322279
-3.68535e-05
0.000333089
-3.24043e-05
0.000342244
-2.74509e-05
0.000349589
-2.20259e-05
0.000355001
-1.62374e-05
0.000358406
-1.02211e-05
0.000359737
-3.96375e-06
0.000358889
2.52581e-06
0.000355841
9.16042e-06
0.000350804
1.51393e-05
0.000343798
2.09948e-05
0.000335085
2.61078e-05
0.000324754
3.09578e-05
0.000312824
3.57479e-05
0.000299763
3.91411e-05
0.000285683
4.21972e-05
4.52228e-05
3.62598e-05
-2.69481e-05
4.37935e-05
-3.01599e-05
5.21697e-05
-3.35138e-05
6.13599e-05
-3.67468e-05
7.1624e-05
-4.1011e-05
8.27498e-05
-4.44241e-05
9.49547e-05
-4.87334e-05
0.000108067
-5.23599e-05
0.000121833
-5.49705e-05
0.000136505
-5.85955e-05
0.00015191
-6.15446e-05
0.000167707
-6.31097e-05
0.00018401
-6.51323e-05
0.00020056
-6.61061e-05
0.000217292
-6.68293e-05
0.000234045
-6.69243e-05
0.000250453
-6.55103e-05
0.000266384
-6.3641e-05
0.000281733
-6.13166e-05
0.000296189
-5.77268e-05
0.000309595
-5.35291e-05
0.000321798
-4.87532e-05
0.000332583
-4.30847e-05
0.000341738
-3.65782e-05
0.00034918
-2.97275e-05
0.000354704
-2.20592e-05
0.000358262
-1.4204e-05
0.000359726
-5.8344e-06
0.000359056
2.52902e-06
0.000356392
1.05985e-05
0.000351498
1.95801e-05
0.000344678
2.724e-05
0.000335964
3.47711e-05
0.000325603
4.13495e-05
0.000313824
4.70284e-05
0.000300567
5.28621e-05
0.000286205
5.73346e-05
0.00027107
6.03903e-05
0.000255194
6.34481e-05
0.000238901
6.49831e-05
0.000222435
6.57534e-05
0.000206028
6.5525e-05
0.000189908
6.44039e-05
0.000174157
6.29003e-05
0.000158947
6.07822e-05
0.000144438
5.79944e-05
0.000130625
5.52218e-05
0.00011762
5.20175e-05
0.000105413
4.88145e-05
9.39824e-05
4.57683e-05
8.33075e-05
4.27322e-05
7.33248e-05
3.9961e-05
6.39945e-05
3.73749e-05
5.52356e-05
3.5073e-05
4.69891e-05
3.29537e-05
3.92389e-05
3.09816e-05
3.19395e-05
2.92339e-05
2.5057e-05
2.75519e-05
1.86094e-05
2.57906e-05
1.25826e-05
2.40899e-05
7.02166e-06
2.22399e-05
1.91493e-06
2.03973e-05
-2.7469e-06
1.86731e-05
-6.92754e-06
1.67337e-05
-1.06631e-05
1.49529e-05
-1.40054e-05
1.33795e-05
-1.68576e-05
1.14279e-05
-1.93092e-05
9.85071e-06
-2.14104e-05
8.4435e-06
-2.32178e-05
7.33887e-06
-2.49458e-05
7.05758e-06
-2.66083e-05
6.80947e-06
-2.81996e-05
6.55657e-06
-2.96843e-05
6.11157e-06
-3.1067e-05
5.72393e-06
-3.20824e-05
4.24429e-06
-3.28611e-05
3.27399e-06
-3.31331e-05
1.24547e-06
-3.23008e-05
-3.09468e-06
-3.08107e-05
-5.74707e-06
-2.82547e-05
-1.00213e-05
-2.45198e-05
-1.47576e-05
-1.96461e-05
-1.93673e-05
-1.35321e-05
-2.43761e-05
-6.10416e-06
-2.97202e-05
2.95611e-06
-3.57344e-05
1.36098e-05
-4.25981e-05
2.55069e-05
-4.75948e-05
3.84908e-05
-5.19529e-05
5.24356e-05
-5.57743e-05
6.72111e-05
-5.90888e-05
8.2703e-05
-6.19571e-05
9.88466e-05
-6.45357e-05
0.000115501
-6.65632e-05
0.000132542
-6.82759e-05
0.000149929
-6.93802e-05
0.000167405
-6.99038e-05
0.000184893
-6.99593e-05
0.000202245
-6.92932e-05
0.000219194
-6.78464e-05
0.000235637
-6.56095e-05
0.000251304
-6.26313e-05
0.000266086
-5.89088e-05
0.00027967
-5.43296e-05
0.000291991
-4.91107e-05
0.000302784
-4.32361e-05
0.000311966
-3.6611e-05
0.000319358
-2.9558e-05
0.000324911
-2.19841e-05
0.000328391
-1.39958e-05
0.000329874
-5.9082e-06
0.000329239
2.32144e-06
0.000326573
1.06025e-05
0.000321909
1.88039e-05
0.000315191
2.66201e-05
0.00030668
3.38849e-05
0.000296484
4.07499e-05
0.000284778
4.68383e-05
0.000271601
5.22904e-05
0.000257287