/*--------------------------------*- C++ -*----------------------------------*\
| =========                 |                                                 |
| \\      /  F ield         | OpenFOAM: The Open Source CFD Toolbox           |
|  \\    /   O peration     | Version:  3.0.1                                 |
|   \\  /    A nd           | Web:      www.OpenFOAM.org                      |
|    \\/     M anipulation  |                                                 |
\*---------------------------------------------------------------------------*/
FoamFile
{
    version     2.0;
    format      ascii;
    class       surfaceScalarField;
    location    "69.2";
    object      phi;
}
// * * * * * * * * * * * * * * * * * * * * * * * * * * * * * * * * * * * * * //

dimensions      [0 3 -1 0 0 0 0];

internalField   nonuniform List<scalar> 
42423
(
3.38873e-05
-6.55721e-06
4.12452e-05
-7.35786e-06
4.94395e-05
-8.1944e-06
5.84447e-05
-9.00524e-06
6.8511e-05
-1.00663e-05
7.94259e-05
-1.09149e-05
9.1421e-05
-1.19952e-05
0.000104336
-1.29146e-05
0.000117921
-1.3585e-05
0.000132421
-1.45007e-05
0.000147673
-1.5252e-05
0.000163339
-1.56663e-05
0.000179538
-1.61985e-05
0.000196013
-1.64753e-05
0.000212707
-1.66937e-05
0.000229469
-1.67624e-05
0.00024593
-1.64606e-05
0.000261994
-1.60643e-05
0.000277531
-1.5537e-05
0.000292222
-1.46909e-05
0.000305925
-1.37031e-05
0.000318496
-1.25708e-05
0.000329703
-1.12078e-05
0.000339331
-9.62786e-06
0.00034728
-7.94868e-06
0.000353348
-6.06792e-06
0.000357462
-4.11438e-06
0.000359481
-2.01845e-06
0.000359431
4.91488e-08
0.000357363
2.06876e-06
0.000352983
4.37914e-06
0.000346657
6.32627e-06
0.000338413
8.24429e-06
0.000328476
9.93704e-06
0.00031707
1.14056e-05
0.000304157
1.29127e-05
0.000290068
1.40891e-05
0.000275165
1.49037e-05
0.000259432
1.57328e-05
0.000243281
1.61507e-05
0.000226883
1.63976e-05
0.000210497
1.63865e-05
0.00019435
1.61472e-05
0.000178544
1.58053e-05
0.000163231
1.53136e-05
0.000148584
1.46469e-05
0.000134604
1.39795e-05
0.0001214
1.32039e-05
0.000108986
1.24148e-05
9.73043e-05
1.16814e-05
8.63789e-05
1.09254e-05
7.6136e-05
1.02429e-05
6.6537e-05
9.59898e-06
5.75287e-05
9.00834e-06
4.90534e-05
8.47531e-06
4.10817e-05
7.97167e-06
3.3552e-05
7.52966e-06
2.6456e-05
7.09607e-06
1.98198e-05
6.63614e-06
1.3628e-05
6.19177e-06
7.91525e-06
5.71279e-06
2.67473e-06
5.24052e-06
-2.12546e-06
4.80019e-06
-6.42858e-06
4.30312e-06
-1.02796e-05
3.85106e-06
-1.37292e-05
3.44953e-06
-1.6689e-05
2.9598e-06
-1.92589e-05
2.56997e-06
-2.14758e-05
2.21685e-06
-2.34366e-05
1.96075e-06
-2.53373e-05
1.90071e-06
-2.71905e-05
1.85319e-06
-2.89896e-05
1.79917e-06
-3.06843e-05
1.69466e-06
-3.22889e-05
1.6046e-06
-3.35246e-05
1.23566e-06
-3.45242e-05
9.99644e-07
-3.49903e-05
4.66087e-07
-3.44571e-05
-5.33173e-07
-3.32278e-05
-1.22938e-06
-3.09175e-05
-2.31024e-06
-2.74128e-05
-3.50471e-06
-2.27446e-05
-4.66829e-06
-1.68147e-05
-5.92986e-06
-9.58565e-06
-7.22907e-06
-1.30108e-06
-8.28459e-06
9.41657e-06
-1.07177e-05
2.12007e-05
-1.17841e-05
3.40542e-05
-1.28536e-05
4.78618e-05
-1.38076e-05
6.25076e-05
-1.46458e-05
7.78781e-05
-1.53706e-05
9.38968e-05
-1.60187e-05
0.00011044
-1.65433e-05
0.00012744
-1.69998e-05
0.000144723
-1.72829e-05
0.000162183
-1.74605e-05
0.000179709
-1.75263e-05
0.000197072
-1.73622e-05
0.000214121
-1.70496e-05
0.000230662
-1.65412e-05
0.000246493
-1.58312e-05
0.000261439
-1.49457e-05
0.000275308
-1.38691e-05
0.000287895
-1.25872e-05
0.000299062
-1.11668e-05
0.00030863
-9.56789e-06
0.00031645
-7.8199e-06
0.00032242
-5.96971e-06
0.000326391
-3.97185e-06
0.000328365
-1.9737e-06
0.000328314
5.12889e-08
0.000326175
2.13889e-06
0.000321941
4.23419e-06
0.000315755
6.18545e-06
0.000307781
7.97396e-06
0.000297965
9.81574e-06
0.000286599
1.13666e-05
0.000273857
1.27418e-05
0.000259907
1.39495e-05
0.000244856
1.50509e-05
0.000229036
1.58205e-05
0.000212527
1.6509e-05
0.000195569
1.69578e-05
0.00017839
1.71795e-05
0.000161166
1.72235e-05
0.000144057
1.71095e-05
0.00012731
1.67467e-05
0.000111075
1.62349e-05
9.54405e-05
1.56345e-05
8.05695e-05
1.4871e-05
6.6562e-05
1.40075e-05
5.34232e-05
1.31389e-05
4.12695e-05
1.21537e-05
3.00625e-05
1.1207e-05
1.99339e-05
1.01286e-05
1.07531e-05
9.18089e-06
2.63339e-06
8.11966e-06
-4.4546e-06
7.08799e-06
-1.05292e-05
6.07461e-06
-1.56115e-05
5.08227e-06
-1.98052e-05
4.19368e-06
-2.31557e-05
3.35056e-06
-2.57323e-05
2.57654e-06
-2.76104e-05
1.87815e-06
-2.88455e-05
1.23506e-06
-2.95785e-05
7.33034e-07
-2.97549e-05
1.7642e-07
-2.94288e-05
-3.26096e-07
-2.8635e-05
-7.93858e-07
-2.73846e-05
-1.25042e-06
-2.56616e-05
-1.723e-06
-2.34882e-05
-2.1734e-06
-2.08804e-05
-2.6078e-06
-1.77783e-05
-3.1021e-06
-1.41597e-05
-3.61853e-06
-1.00941e-05
-4.06564e-06
-5.46282e-06
-4.63128e-06
-3.76648e-07
-5.08617e-06
5.30008e-06
-5.67673e-06
1.1549e-05
-6.24896e-06
1.83749e-05
-6.82588e-06
2.57799e-05
-7.40502e-06
3.37745e-05
-7.99459e-06
4.2353e-05
-8.57846e-06
5.15217e-05
-9.16877e-06
6.12993e-05
-9.77758e-06
7.16785e-05
-1.03792e-05
8.27016e-05
-1.10232e-05
9.43711e-05
-1.16695e-05
0.000106731
-1.23597e-05
0.000119745
-1.30141e-05
0.000133451
-1.37062e-05
0.000147766
-1.43153e-05
0.000162771
-1.50046e-05
0.000178403
-1.56317e-05
0.000194628
-1.62259e-05
0.00021135
-1.67215e-05
0.000228525
-1.71753e-05
0.00024592
-1.73945e-05
0.000263329
-1.74098e-05
0.000280523
-1.71937e-05
0.000297196
-1.66734e-05
0.000313055
-1.58586e-05
0.000327854
-1.47996e-05
0.000341311
-1.34561e-05
0.000353183
-1.18729e-05
0.000363254
-1.00708e-05
0.000371302
-8.04762e-06
0.000377172
-5.87048e-06
0.000380668
-3.49563e-06
0.000381705
-1.03737e-06
0.000380307
1.39797e-06
0.000376168
4.13909e-06
0.000369447
6.72142e-06
0.000360191
9.25583e-06
0.00034858
1.16108e-05
0.000334769
1.38107e-05
0.000319078
1.56912e-05
0.00030184
1.72383e-05
0.000283396
1.84439e-05
0.00026403
1.93654e-05
0.000244174
1.98569e-05
0.00022414
2.00334e-05
0.000204202
1.99381e-05
0.000184622
1.95804e-05
0.00016557
1.90511e-05
0.000147257
1.83134e-05
0.000129766
1.7491e-05
0.000113231
1.65347e-05
9.76932e-05
1.5538e-05
8.32927e-05
1.44005e-05
7.00027e-05
1.329e-05
5.78452e-05
1.21575e-05
4.67969e-05
1.10483e-05
3.68002e-05
9.99667e-06
2.79054e-05
8.89485e-06
2.00623e-05
7.84303e-06
1.31981e-05
6.8642e-06
7.27647e-06
5.92167e-06
2.27655e-06
4.99991e-06
-1.8631e-06
4.13965e-06
-5.25185e-06
3.38875e-06
-7.90907e-06
2.65722e-06
-9.8919e-06
1.98283e-06
-1.13553e-05
1.46344e-06
-1.22416e-05
8.86285e-07
-1.27288e-05
4.87169e-07
-1.26761e-05
-5.2682e-08
-1.22459e-05
-4.30223e-07
-1.13328e-05
-9.13145e-07
-9.99471e-06
-1.33804e-06
-8.12629e-06
-1.86842e-06
-5.80976e-06
-2.31654e-06
-3.00317e-06
-2.80659e-06
3.07615e-07
-3.31078e-06
4.17378e-06
-3.86616e-06
8.59353e-06
-4.41976e-06
1.35726e-05
-4.97904e-06
1.91912e-05
-5.61863e-06
2.54516e-05
-6.26043e-06
3.23706e-05
-6.91898e-06
3.9929e-05
-7.55844e-06
4.8115e-05
-8.18596e-06
5.69413e-05
-8.82635e-06
6.63833e-05
-9.44193e-06
7.64182e-05
-1.00349e-05
8.70659e-05
-1.06478e-05
9.83285e-05
-1.12626e-05
0.000110185
-1.18568e-05
0.000122655
-1.24699e-05
0.000135743
-1.30881e-05
0.000149405
-1.36615e-05
0.000163623
-1.42184e-05
0.00017833
-1.4707e-05
0.000193434
-1.51043e-05
0.000208775
-1.53407e-05
0.000224188
-1.54129e-05
0.000239474
-1.52858e-05
0.000254426
-1.49521e-05
0.000268776
-1.43504e-05
0.000282314
-1.35382e-05
0.00029476
-1.24456e-05
0.000305842
-1.10815e-05
0.000315328
-9.48639e-06
0.000322998
-7.67018e-06
0.000328668
-5.67031e-06
0.000332148
-3.47993e-06
0.000333318
-1.16978e-06
0.000331936
1.38169e-06
0.000328103
3.83327e-06
0.000322079
6.02407e-06
0.000314165
7.91439e-06
0.000304549
9.61503e-06
0.000293534
1.10152e-05
0.000281465
1.2069e-05
0.000268784
1.2681e-05
0.000255777
1.30074e-05
0.000242467
1.331e-05
0.000229049
1.34178e-05
0.000215604
1.3445e-05
0.000202165
1.34391e-05
0.000188737
1.3428e-05
0.000175299
1.34377e-05
0.000161817
1.34824e-05
0.000148307
1.35099e-05
0.000134782
1.35249e-05
0.000121349
1.34327e-05
0.000108115
1.32338e-05
9.52186e-05
1.28968e-05
8.27806e-05
1.2438e-05
7.09444e-05
1.18363e-05
5.98498e-05
1.10946e-05
4.95695e-05
1.02802e-05
4.0173e-05
9.39654e-06
3.17288e-05
8.44424e-06
2.42358e-05
7.49295e-06
1.76988e-05
6.53698e-06
1.21109e-05
5.58798e-06
7.43484e-06
4.67603e-06
3.65419e-06
3.78064e-06
7.04769e-07
2.94942e-06
-1.68916e-06
2.39393e-06
-3.4173e-06
1.72814e-06
-4.53205e-06
1.11475e-06
-5.1008e-06
5.68748e-07
-5.15145e-06
5.06436e-08
-4.69719e-06
-4.5426e-07
-3.83776e-06
-8.59433e-07
-2.63843e-06
-1.19933e-06
-1.20968e-06
-1.42875e-06
5.31889e-07
-1.74157e-06
2.7225e-06
-2.19061e-06
5.15907e-06
-2.43658e-06
8.11994e-06
-2.96087e-06
1.15087e-05
-3.38877e-06
1.55869e-05
-4.07817e-06
2.03773e-05
-4.79043e-06
2.57013e-05
-5.32401e-06
3.19226e-05
-6.22134e-06
3.9137e-05
-7.21434e-06
4.70573e-05
-7.92036e-06
5.60548e-05
-8.99754e-06
6.60025e-05
-9.9477e-06
7.70531e-05
-1.10506e-05
8.91968e-05
-1.21437e-05
0.00010204
-1.28435e-05
0.000115836
-1.37954e-05
0.000130564
-1.47283e-05
0.000145808
-1.52438e-05
0.00016175
-1.59418e-05
0.000178292
-1.65427e-05
0.000195033
-1.67406e-05
0.000211979
-1.69457e-05
0.000228884
-1.69052e-05
0.000245626
-1.67427e-05
0.000262065
-1.64383e-05
0.000277778
-1.57131e-05
0.000292635
-1.48572e-05
0.000306502
-1.38669e-05
0.000319118
-1.26162e-05
0.000330297
-1.11789e-05
0.000339869
-9.57241e-06
0.000347671
-7.80202e-06
0.000353576
-5.90455e-06
0.000357499
-3.92377e-06
0.000359347
-1.84747e-06
0.00035906
2.86282e-07
0.000356566
2.49421e-06
0.00035202
4.54658e-06
0.000345513
6.50651e-06
0.000337272
8.24129e-06
0.000327373
9.89834e-06
0.000315833
1.154e-05
0.00030311
1.27236e-05
0.000289314
1.37957e-05
1.48537e-05
3.38537e-05
-1.31109e-05
4.1209e-05
-1.47132e-05
4.94021e-05
-1.63876e-05
5.84049e-05
-1.80082e-05
6.84724e-05
-2.01338e-05
7.93991e-05
-2.18417e-05
9.1408e-05
-2.40041e-05
0.000104327
-2.58338e-05
0.000117903
-2.71609e-05
0.000132399
-2.8997e-05
0.000147659
-3.05113e-05
0.000163332
-3.13402e-05
0.000179543
-3.24092e-05
0.000196024
-3.29562e-05
0.000212728
-3.3398e-05
0.000229514
-3.35482e-05
0.00024598
-3.29272e-05
0.000262038
-3.21223e-05
0.000277585
-3.10831e-05
0.000292286
-2.93922e-05
0.000305998
-2.74155e-05
0.000318587
-2.51599e-05
0.000329801
-2.24221e-05
0.000339436
-1.92626e-05
0.000347393
-1.59056e-05
0.000353455
-1.21295e-05
0.00035757
-8.22943e-06
0.0003596
-4.04862e-06
0.000359552
9.71787e-08
0.000357468
4.15225e-06
0.000353089
8.75772e-06
0.00034676
1.26554e-05
0.000338509
1.64954e-05
0.000328568
1.98785e-05
0.000317152
2.28212e-05
0.000304229
2.5836e-05
0.000290128
2.81894e-05
0.000275216
2.98159e-05
0.000259474
3.14752e-05
0.000243312
3.23129e-05
0.000226903
3.28059e-05
0.000210508
3.27816e-05
0.000194354
3.23016e-05
0.000178541
3.16179e-05
0.000163222
3.0633e-05
0.000148571
2.92978e-05
0.000134587
2.7963e-05
0.000121381
2.64098e-05
0.000108963
2.48336e-05
9.72844e-05
2.33595e-05
8.63572e-05
2.18526e-05
7.61226e-05
2.04775e-05
6.65282e-05
1.91934e-05
5.75137e-05
1.80228e-05
4.90391e-05
1.69498e-05
4.10661e-05
1.59447e-05
3.35357e-05
1.506e-05
2.64402e-05
1.41916e-05
1.98025e-05
1.32738e-05
1.36082e-05
1.23861e-05
7.89176e-06
1.14292e-05
2.65324e-06
1.0479e-05
-2.14996e-06
9.60339e-06
-6.45541e-06
8.60856e-06
-1.03074e-05
7.70308e-06
-1.37595e-05
6.90158e-06
-1.67213e-05
5.92164e-06
-1.9289e-05
5.13768e-06
-2.15048e-05
4.43262e-06
-2.34565e-05
3.91241e-06
-2.53514e-05
3.7957e-06
-2.71908e-05
3.6925e-06
-2.89755e-05
3.58388e-06
-3.06526e-05
3.37181e-06
-3.22423e-05
3.19425e-06
-3.34671e-05
2.46043e-06
-3.44486e-05
1.98122e-06
-3.48989e-05
9.16375e-07
-3.43452e-05
-1.08688e-06
-3.30995e-05
-2.47511e-06
-3.07719e-05
-4.63787e-06
-2.72526e-05
-7.02405e-06
-2.2571e-05
-9.34993e-06
-1.6627e-05
-1.18739e-05
-9.38134e-06
-1.44747e-05
-9.80014e-07
-1.6686e-05
9.6572e-06
-2.13549e-05
2.14363e-05
-2.35632e-05
3.42956e-05
-2.57129e-05
4.8108e-05
-2.76201e-05
6.27466e-05
-2.92845e-05
7.81149e-05
-3.07389e-05
9.41408e-05
-3.20448e-05
0.000110685
-3.30878e-05
0.0001277
-3.40147e-05
0.000144973
-3.45559e-05
0.000162447
-3.49345e-05
0.000179952
-3.50318e-05
0.000197335
-3.47446e-05
0.000214432
-3.41472e-05
0.000230951
-3.30597e-05
0.000246826
-3.17061e-05
0.000261768
-2.98882e-05
0.000275631
-2.77321e-05
0.000288228
-2.51848e-05
0.000299447
-2.23856e-05
0.000308987
-1.91074e-05
0.000316845
-1.56789e-05
0.000322769
-1.1893e-05
0.00032676
-7.96311e-06
0.000328739
-3.95255e-06
0.000328674
1.15488e-07
0.000326547
4.26586e-06
0.000322298
8.48364e-06
0.000316107
1.23763e-05
0.000308082
1.59986e-05
0.000298282
1.96156e-05
0.000286912
2.27366e-05
0.000274195
2.5459e-05
0.000260184
2.79609e-05
0.000245126
3.01081e-05
0.000229292
3.16547e-05
0.000212726
3.30751e-05
0.000195744
3.39397e-05
0.000178533
3.4391e-05
0.000161294
3.44627e-05
0.000144164
3.42391e-05
0.00012737
3.35405e-05
0.000111113
3.24921e-05
9.54538e-05
3.12938e-05
8.05572e-05
2.97676e-05
6.65197e-05
2.8045e-05
5.33654e-05
2.62932e-05
4.12016e-05
2.43175e-05
2.99759e-05
2.24326e-05
1.98281e-05
2.02764e-05
1.0625e-05
1.8384e-05
2.49268e-06
1.6252e-05
-4.59286e-06
1.41735e-05
-1.06723e-05
1.2154e-05
-1.57685e-05
1.01785e-05
-1.99635e-05
8.38872e-06
-2.33134e-05
6.70047e-06
-2.58961e-05
5.15916e-06
-2.77645e-05
3.74655e-06
-2.90335e-05
2.50411e-06
-2.97372e-05
1.43666e-06
-2.99065e-05
3.45807e-07
-2.95956e-05
-6.37079e-07
-2.87972e-05
-1.59225e-06
-2.75407e-05
-2.50689e-06
-2.57947e-05
-3.46897e-06
-2.36704e-05
-4.29779e-06
-2.10345e-05
-5.24364e-06
-1.79311e-05
-6.20553e-06
-1.4289e-05
-7.2606e-06
-1.02396e-05
-8.11503e-06
-5.63581e-06
-9.23513e-06
-5.03331e-07
-1.02187e-05
5.18155e-06
-1.13616e-05
1.14345e-05
-1.25019e-05
1.82547e-05
-1.36461e-05
2.56659e-05
-1.48162e-05
3.36647e-05
-1.59935e-05
4.22456e-05
-1.71594e-05
5.14167e-05
-1.83398e-05
6.11978e-05
-1.95587e-05
7.15735e-05
-2.07549e-05
8.25944e-05
-2.20441e-05
9.42732e-05
-2.33483e-05
0.000106624
-2.47102e-05
0.000119653
-2.60439e-05
0.000133333
-2.73857e-05
0.000147662
-2.86447e-05
0.00016268
-3.00225e-05
0.000178287
-3.12383e-05
0.000194511
-3.24506e-05
0.00021126
-3.34704e-05
0.000228422
-3.43376e-05
0.000245832
-3.48038e-05
0.00026329
-3.48681e-05
0.000280476
-3.43796e-05
0.000297148
-3.33459e-05
0.00031305
-3.17603e-05
0.000327852
-2.96017e-05
0.000341311
-2.69149e-05
0.000353192
-2.37541e-05
0.000363276
-2.01554e-05
0.000371342
-1.61131e-05
0.000377222
-1.17504e-05
0.000380752
-7.02566e-06
0.00038179
-2.07572e-06
0.00038034
2.84761e-06
0.000376192
8.28692e-06
0.000369482
1.34321e-05
0.000360205
1.85325e-05
0.000348576
2.32402e-05
0.000334776
2.76107e-05
0.000319091
3.13756e-05
0.000301828
3.45013e-05
0.000283339
3.69332e-05
0.000263969
3.87356e-05
0.000244099
3.97263e-05
0.000224051
4.00814e-05
0.000204098
3.98917e-05
0.000184517
3.91611e-05
0.00016548
3.80885e-05
0.000147146
3.66468e-05
0.000129631
3.50061e-05
0.000113074
3.30916e-05
9.75761e-05
3.1036e-05
8.31599e-05
2.88167e-05
6.98644e-05
2.65855e-05
5.76915e-05
2.43304e-05
4.66334e-05
2.21065e-05
3.6665e-05
1.99651e-05
2.77753e-05
1.77845e-05
1.99326e-05
1.56857e-05
1.30745e-05
1.37224e-05
7.15758e-06
1.18385e-05
2.14965e-06
1.00078e-05
-1.97877e-06
8.26807e-06
-5.36917e-06
6.77914e-06
-8.02677e-06
5.31482e-06
-1.0018e-05
3.97406e-06
-1.14499e-05
2.89534e-06
-1.23457e-05
1.78209e-06
-1.2827e-05
9.68443e-07
-1.27765e-05
-1.03179e-07
-1.23267e-05
-8.79999e-07
-1.14337e-05
-1.80623e-06
-1.00892e-05
-2.6825e-06
-8.25868e-06
-3.69894e-06
-5.94446e-06
-4.63077e-06
-3.08232e-06
-5.66873e-06
2.06704e-07
-6.59981e-06
4.05768e-06
-7.71714e-06
8.47983e-06
-8.84191e-06
1.34585e-05
-9.95767e-06
1.90754e-05
-1.12356e-05
2.53379e-05
-1.25229e-05
3.22399e-05
-1.3821e-05
3.98101e-05
-1.51287e-05
4.80002e-05
-1.63761e-05
5.68127e-05
-1.76388e-05
6.62545e-05
-1.88837e-05
7.62925e-05
-2.0073e-05
8.69423e-05
-2.12976e-05
9.82145e-05
-2.25347e-05
0.000110071
-2.37129e-05
0.000122525
-2.4924e-05
0.000135613
-2.61767e-05
0.000149281
-2.73298e-05
0.000163533
-2.84696e-05
0.000178225
-2.93996e-05
0.000193328
-3.02075e-05
0.000208675
-3.06875e-05
0.000224098
-3.08362e-05
0.000239415
-3.06024e-05
0.000254358
-2.98952e-05
0.000268734
-2.87269e-05
0.000282281
-2.70851e-05
0.000294762
-2.49261e-05
0.000305845
-2.21654e-05
0.000315339
-1.89796e-05
0.000323007
-1.53387e-05
0.000328695
-1.13583e-05
0.000332184
-6.96846e-06
0.00033336
-2.34601e-06
0.000331963
2.77839e-06
0.000328136
7.66074e-06
0.000322135
1.20245e-05
0.000314222
1.58272e-05
0.000304603
1.92341e-05
0.000293581
2.20369e-05
0.000281502
2.41488e-05
0.000268809
2.53733e-05
0.000255785
2.6032e-05
0.000242456
2.66384e-05
0.000229021
2.68535e-05
0.00021556
2.69056e-05
0.000202107
2.68924e-05
0.000188666
2.68684e-05
0.00017522
2.68836e-05
0.000161732
2.6971e-05
0.000148218
2.70235e-05
0.000134693
2.70502e-05
0.000121261
2.68642e-05
0.000108029
2.64662e-05
9.51354e-05
2.57903e-05
8.27017e-05
2.48717e-05
7.08703e-05
2.36678e-05
5.97806e-05
2.21842e-05
4.95053e-05
2.05555e-05
4.01137e-05
1.87881e-05
3.16741e-05
1.68839e-05
2.41855e-05
1.49815e-05
1.76524e-05
1.30701e-05
1.20682e-05
1.11722e-05
7.39551e-06
9.34872e-06
3.61921e-06
7.55694e-06
6.73793e-07
5.89484e-06
-1.72253e-06
4.79025e-06
-3.44779e-06
3.4534e-06
-4.55921e-06
2.22617e-06
-5.12488e-06
1.13441e-06
-5.17188e-06
9.76394e-08
-4.71582e-06
-9.10317e-07
-3.85356e-06
-1.7217e-06
-2.65335e-06
-2.39955e-06
-1.22429e-06
-2.85782e-06
5.16054e-07
-3.48192e-06
2.70242e-06
-4.37699e-06
5.1355e-06
-4.86966e-06
8.09011e-06
-5.91549e-06
1.14704e-05
-6.76903e-06
1.5537e-05
-8.14488e-06
2.03164e-05
-9.56983e-06
2.56367e-05
-1.06443e-05
3.18535e-05
-1.24382e-05
3.90606e-05
-1.44215e-05
4.69818e-05
-1.58416e-05
5.59803e-05
-1.79961e-05
6.59257e-05
-1.98931e-05
7.69674e-05
-2.20924e-05
8.91057e-05
-2.42821e-05
0.000101964
-2.57022e-05
0.000115766
-2.75973e-05
0.0001305
-2.9462e-05
0.000145754
-3.04982e-05
0.000161698
-3.18862e-05
0.000178253
-3.30969e-05
0.000195011
-3.34986e-05
0.000211961
-3.38958e-05
0.000228879
-3.38238e-05
0.000245639
-3.35028e-05
0.000262088
-3.28869e-05
0.000277804
-3.14298e-05
0.000292678
-2.97314e-05
0.000306559
-2.77479e-05
0.00031918
-2.52368e-05
0.000330366
-2.23651e-05
0.000339945
-1.9151e-05
0.000347752
-1.56093e-05
0.000353661
-1.1814e-05
0.000357585
-7.84722e-06
0.000359434
-3.69736e-06
0.000359144
5.76859e-07
0.000356645
4.99278e-06
0.000352104
9.08805e-06
0.000345594
1.30164e-05
0.000337346
1.64894e-05
0.000327439
1.98049e-05
0.000315889
2.30896e-05
0.000303156
2.54565e-05
0.000289351
2.76005e-05
2.97189e-05
3.37886e-05
-1.96598e-05
4.114e-05
-2.20646e-05
4.93311e-05
-2.45787e-05
5.8335e-05
-2.70122e-05
6.84074e-05
-3.02062e-05
7.93403e-05
-3.27746e-05
9.13559e-05
-3.60198e-05
0.000104286
-3.87638e-05
0.000117879
-4.07543e-05
0.000132398
-4.35163e-05
0.000147674
-4.57869e-05
0.000163355
-4.70212e-05
0.000179573
-4.86276e-05
0.000196067
-4.94506e-05
0.000212788
-5.01191e-05
0.000229578
-5.03382e-05
0.000246062
-4.94108e-05
0.000262136
-4.81961e-05
0.000277692
-4.66395e-05
0.00029241
-4.41108e-05
0.000306141
-4.11459e-05
0.000318731
-3.77501e-05
0.000329954
-3.36458e-05
0.000339593
-2.89016e-05
0.000347559
-2.38714e-05
0.000353627
-1.81977e-05
0.000357749
-1.23512e-05
0.000359784
-6.08375e-06
0.000359717
1.6405e-07
0.000357617
6.25249e-06
0.000353241
1.31338e-05
0.000346908
1.89875e-05
0.000338646
2.47579e-05
0.000328691
2.98333e-05
0.000317263
3.4249e-05
0.00030432
3.8779e-05
0.0002902
4.23092e-05
0.000275269
4.4747e-05
0.000259514
4.72297e-05
0.00024333
4.84978e-05
0.000226903
4.92325e-05
0.000210493
4.91916e-05
0.000194327
4.84678e-05
0.000178501
4.74435e-05
0.000163172
4.59617e-05
0.000148516
4.39544e-05
0.000134528
4.19512e-05
0.000121322
3.96156e-05
0.000108898
3.72579e-05
9.72293e-05
3.50277e-05
8.63086e-05
3.27733e-05
7.60761e-05
3.071e-05
6.64899e-05
2.87796e-05
5.747e-05
2.70427e-05
4.89997e-05
2.54201e-05
4.10259e-05
2.39186e-05
3.34976e-05
2.25883e-05
2.64065e-05
2.12827e-05
1.9769e-05
1.99113e-05
1.35729e-05
1.85822e-05
7.85372e-06
1.71484e-05
2.61688e-06
1.57159e-05
-2.18557e-06
1.44059e-05
-6.48878e-06
1.29118e-05
-1.03389e-05
1.15532e-05
-1.37886e-05
1.03513e-05
-1.67462e-05
8.87923e-06
-1.93072e-05
7.69861e-06
-2.15187e-05
6.64415e-06
-2.34553e-05
5.84903e-06
-2.53269e-05
5.66728e-06
-2.71427e-05
5.50831e-06
-2.89015e-05
5.34261e-06
-3.05549e-05
5.02522e-06
-3.21146e-05
4.75398e-06
-3.33085e-05
3.65435e-06
-3.42682e-05
2.94083e-06
-3.46994e-05
1.34762e-06
-3.41135e-05
-1.67282e-06
-3.28408e-05
-3.74781e-06
-3.04851e-05
-6.9936e-06
-2.69397e-05
-1.05694e-05
-2.22353e-05
-1.40543e-05
-1.62764e-05
-1.78329e-05
-9.01399e-06
-2.17371e-05
-4.58562e-07
-2.52414e-05
1.0086e-05
-3.18995e-05
2.18584e-05
-3.53356e-05
3.47117e-05
-3.85663e-05
4.85207e-05
-4.14291e-05
6.31639e-05
-4.39278e-05
7.85295e-05
-4.61046e-05
9.45539e-05
-4.80692e-05
0.000111103
-4.96367e-05
0.000128114
-5.10258e-05
0.000145424
-5.18658e-05
0.000162881
-5.23921e-05
0.000180391
-5.25418e-05
0.000197776
-5.21297e-05
0.000214844
-5.12146e-05
0.000231405
-4.96208e-05
0.000247258
-4.75596e-05
0.000262234
-4.48644e-05
0.000276126
-4.16244e-05
0.000288743
-3.78018e-05
0.000299939
-3.35813e-05
0.000309511
-2.86793e-05
0.000317345
-2.35134e-05
0.000323308
-1.78562e-05
0.000327338
-1.19933e-05
0.000329308
-5.92232e-06
0.000329222
2.01292e-07
0.000327084
6.40388e-06
0.000322862
1.27059e-05
0.000316686
1.85525e-05
0.000308566
2.41181e-05
0.000298768
2.94135e-05
0.000287381
3.41239e-05
0.000274594
3.82458e-05
0.000260564
4.19912e-05
0.000245527
4.51447e-05
0.0002296
4.75817e-05
0.000213025
4.96499e-05
0.00019601
5.09551e-05
0.00017875
5.16509e-05
0.000161438
5.17748e-05
0.000144303
5.13737e-05
0.000127461
5.03832e-05
0.000111134
4.88184e-05
9.54337e-05
4.69943e-05
8.05069e-05
4.46944e-05
6.64311e-05
4.21208e-05
5.32606e-05
3.94636e-05
4.10488e-05
3.65293e-05
2.98029e-05
3.36786e-05
1.95832e-05
3.04961e-05
1.03959e-05
2.75713e-05
2.25028e-06
2.43976e-05
-4.84244e-06
2.12662e-05
-1.09416e-05
1.82531e-05
-1.60539e-05
1.52908e-05
-2.02499e-05
1.25847e-05
-2.36049e-05
1.00555e-05
-2.61768e-05
7.73105e-06
-2.80693e-05
5.63909e-06
-2.93241e-05
3.75886e-06
-3.0018e-05
2.13056e-06
-3.01693e-05
4.97125e-07
-2.98731e-05
-9.33215e-07
-2.90738e-05
-2.3916e-06
-2.77903e-05
-3.79036e-06
-2.61204e-05
-5.13893e-06
-2.39661e-05
-6.45205e-06
-2.13183e-05
-7.89148e-06
-1.8214e-05
-9.3098e-06
-1.46029e-05
-1.08718e-05
-1.0499e-05
-1.22189e-05
-5.88817e-06
-1.38459e-05
-7.02369e-07
-1.54045e-05
4.94466e-06
-1.70087e-05
1.12017e-05
-1.8759e-05
1.80136e-05
-2.0458e-05
2.54434e-05
-2.22459e-05
3.34293e-05
-2.39794e-05
4.20174e-05
-2.57475e-05
5.1198e-05
-2.75204e-05
6.09787e-05
-2.93395e-05
7.13492e-05
-3.11254e-05
8.23807e-05
-3.30756e-05
9.40753e-05
-3.50429e-05
0.000106437
-3.70717e-05
0.000119418
-3.90254e-05
0.000133109
-4.10769e-05
0.000147473
-4.30086e-05
0.000162443
-4.49927e-05
0.000178074
-4.68687e-05
0.000194297
-4.86744e-05
0.000211096
-5.0269e-05
0.000228237
-5.14785e-05
0.000245665
-5.22318e-05
0.000263124
-5.23275e-05
0.000280344
-5.15998e-05
0.00029706
-5.00613e-05
0.000312944
-4.76453e-05
0.000327795
-4.44523e-05
0.000341294
-4.0414e-05
0.000353179
-3.5639e-05
0.000363291
-3.02681e-05
0.000371372
-2.41933e-05
0.000377231
-1.76102e-05
0.000380751
-1.05449e-05
0.000381818
-3.14275e-06
0.000380338
4.3268e-06
0.000376193
1.24327e-05
0.000369445
2.01795e-05
0.000360193
2.77845e-05
0.00034854
3.48937e-05
0.000334765
4.13852e-05
0.000319053
4.70876e-05
0.000301753
5.18011e-05
0.000283209
5.5478e-05
0.000263825
5.81197e-05
0.000243924
5.96266e-05
0.000223829
6.01766e-05
0.000203868
5.98529e-05
0.000184268
5.87613e-05
0.000165207
5.71489e-05
0.000146869
5.49855e-05
0.000129343
5.25314e-05
0.000112793
4.9642e-05
9.72691e-05
4.65599e-05
8.28698e-05
4.3216e-05
6.95915e-05
3.98638e-05
5.73996e-05
3.65223e-05
4.63492e-05
3.31569e-05
3.64165e-05
2.98978e-05
2.75456e-05
2.66554e-05
1.96924e-05
2.3539e-05
1.28411e-05
2.05737e-05
6.93927e-06
1.77403e-05
1.90096e-06
1.50462e-05
-2.26163e-06
1.24307e-05
-5.60843e-06
1.01259e-05
-8.26122e-06
7.96761e-06
-1.02594e-05
5.97221e-06
-1.16334e-05
4.2694e-06
-1.25906e-05
2.73926e-06
-1.30106e-05
1.3884e-06
-1.30356e-05
-7.80918e-08
-1.25614e-05
-1.35425e-06
-1.16914e-05
-2.67622e-06
-1.02855e-05
-4.08836e-06
-8.50065e-06
-5.48383e-06
-6.171e-06
-6.96042e-06
-3.34913e-06
-8.49061e-06
-2.84351e-08
-9.92051e-06
3.83397e-06
-1.15796e-05
8.24112e-06
-1.32491e-05
1.3233e-05
-1.49495e-05
1.88417e-05
-1.68444e-05
2.50991e-05
-1.87803e-05
3.20262e-05
-2.07481e-05
3.95896e-05
-2.26921e-05
4.77751e-05
-2.45616e-05
5.66161e-05
-2.64798e-05
6.6031e-05
-2.82987e-05
7.60754e-05
-3.01174e-05
8.67458e-05
-3.1968e-05
9.79718e-05
-3.37608e-05
0.000109826
-3.5567e-05
0.000122325
-3.74228e-05
0.000135391
-3.9243e-05
0.000149079
-4.10176e-05
0.000163308
-4.26991e-05
0.000178047
-4.41386e-05
0.000193152
-4.53126e-05
0.000208523
-4.60583e-05
0.000223971
-4.62844e-05
0.000239282
-4.59134e-05
0.000254244
-4.48566e-05
0.000268639
-4.31225e-05
0.000282175
-4.0621e-05
0.000294705
-3.74559e-05
0.000305815
-3.32753e-05
0.000315301
-2.84657e-05
0.000323017
-2.30552e-05
0.000328654
-1.69954e-05
0.000332098
-1.04126e-05
0.000333278
-3.52562e-06
0.000331912
4.14458e-06
0.000328147
1.14255e-05
0.000322202
1.79692e-05
0.000314308
2.37212e-05
0.000304686
2.88566e-05
0.000293654
3.30685e-05
0.00028156
3.62426e-05
0.000268849
3.8084e-05
0.000255803
3.90781e-05
0.00024245
3.99917e-05
0.000228988
4.03152e-05
0.000215501
4.03923e-05
0.000202024
4.03701e-05
0.000188562
4.03297e-05
0.0001751
4.03456e-05
0.000161599
4.04722e-05
0.000148076
4.05463e-05
0.000134546
4.05807e-05
0.000121112
4.02981e-05
0.000107881
3.96969e-05
9.49905e-05
3.86812e-05
8.25607e-05
3.73015e-05
7.07361e-05
3.54924e-05
5.96541e-05
3.32662e-05
4.93863e-05
3.08233e-05
4.00025e-05
2.81719e-05
3.15703e-05
2.53161e-05
2.40888e-05
2.2463e-05
1.75638e-05
1.95951e-05
1.19869e-05
1.6749e-05
7.32031e-06
1.40153e-05
3.55516e-06
1.13221e-05
6.154e-07
8.8346e-06
-1.78583e-06
7.19148e-06
-3.5049e-06
5.17247e-06
-4.60952e-06
3.33079e-06
-5.16891e-06
1.6938e-06
-5.20843e-06
1.37153e-07
-4.74831e-06
-1.37044e-06
-3.88085e-06
-2.58916e-06
-2.6788e-06
-3.6016e-06
-1.24915e-06
-4.28747e-06
4.88254e-07
-5.21932e-06
2.6695e-06
-6.55824e-06
5.09749e-06
-7.29766e-06
8.04175e-06
-8.85975e-06
1.14141e-05
-1.01414e-05
1.54704e-05
-1.22012e-05
2.02377e-05
-1.43371e-05
2.55511e-05
-1.59577e-05
3.17603e-05
-1.86474e-05
3.89581e-05
-2.16193e-05
4.68714e-05
-2.37549e-05
5.58638e-05
-2.69885e-05
6.58052e-05
-2.98345e-05
7.68486e-05
-3.31357e-05
8.89917e-05
-3.64253e-05
0.000101849
-3.85598e-05
0.000115654
-4.14025e-05
0.000130406
-4.42135e-05
0.000145671
-4.57629e-05
0.000161633
-4.78483e-05
0.000178207
-4.96711e-05
0.000194975
-5.02663e-05
0.00021195
-5.08711e-05
0.000228887
-5.07607e-05
0.000245662
-5.02784e-05
0.000262133
-4.93577e-05
0.000277869
-4.71662e-05
0.000292759
-4.46207e-05
0.000306653
-4.16429e-05
0.000319285
-3.78681e-05
0.00033048
-3.356e-05
0.000340064
-2.87351e-05
0.000347873
-2.34187e-05
0.00035378
-1.77212e-05
0.000357702
-1.17686e-05
0.000359564
-5.55972e-06
0.000359273
8.67708e-07
0.000356775
7.49115e-06
0.000352249
1.36139e-05
0.000345735
1.95304e-05
0.000337475
2.47486e-05
0.000327555
2.97252e-05
0.00031599
3.46547e-05
0.000303241
3.82056e-05
0.00028942
4.14216e-05
4.46003e-05
3.36911e-05
-2.62015e-05
4.10372e-05
-2.94108e-05
4.92266e-05
-3.27681e-05
5.82348e-05
-3.60205e-05
6.83181e-05
-4.02895e-05
7.92684e-05
-4.3725e-05
9.13031e-05
-4.80546e-05
0.000104253
-5.1714e-05
0.000117868
-5.43696e-05
0.000132404
-5.80522e-05
0.000147691
-6.1074e-05
0.000163391
-6.27205e-05
0.000179626
-6.48627e-05
0.000196139
-6.59644e-05
0.000212878
-6.68583e-05
0.000229685
-6.71451e-05
0.000246195
-6.59209e-05
0.000262288
-6.42888e-05
0.000277861
-6.22123e-05
0.000292598
-5.88478e-05
0.000306345
-5.48934e-05
0.000318949
-5.03542e-05
0.000330185
-4.48813e-05
0.000339834
-3.85511e-05
0.000347807
-3.18444e-05
0.000353887
-2.42776e-05
0.000358015
-1.64797e-05
0.000360052
-8.12073e-06
0.000359965
2.51356e-07
0.000357844
8.3734e-06
0.000353469
1.75089e-05
0.000347131
2.53248e-05
0.000338852
3.30373e-05
0.000328876
3.98089e-05
0.000317432
4.56934e-05
0.000304451
5.17602e-05
0.000290309
5.64512e-05
0.000275343
5.97126e-05
0.00025958
6.29921e-05
0.000243351
6.47272e-05
0.000226902
6.56811e-05
0.00021047
6.56236e-05
0.000194289
6.46493e-05
0.000178438
6.32941e-05
0.000163098
6.1302e-05
0.000148433
5.86194e-05
0.000134438
5.5946e-05
0.000121232
5.28221e-05
0.000108807
4.96826e-05
9.71452e-05
4.66892e-05
8.6231e-05
4.36875e-05
7.60038e-05
4.09372e-05
6.64278e-05
3.83557e-05
5.74254e-05
3.60451e-05
4.89408e-05
3.39046e-05
4.0961e-05
3.18984e-05
3.34434e-05
3.0106e-05
2.63561e-05
2.837e-05
1.97187e-05
2.65487e-05
1.3519e-05
2.47819e-05
7.80197e-06
2.28654e-05
2.55524e-06
2.09626e-05
-2.23916e-06
1.92003e-05
-6.53949e-06
1.72121e-05
-1.03865e-05
1.54002e-05
-1.3833e-05
1.37978e-05
-1.67858e-05
1.18321e-05
-1.93368e-05
1.02496e-05
-2.15385e-05
8.8458e-06
-2.34513e-05
7.76182e-06
-2.52912e-05
7.50719e-06
-2.70732e-05
7.29036e-06
-2.87902e-05
7.05955e-06
-3.04073e-05
6.64229e-06
-3.1927e-05
6.27376e-06
-3.30832e-05
4.81045e-06
-3.40092e-05
3.86687e-06
-3.44139e-05
1.75229e-06
-3.37744e-05
-2.31229e-06
-3.24521e-05
-5.07016e-06
-3.00527e-05
-9.39302e-06
-2.6469e-05
-1.41532e-05
-2.17391e-05
-1.87842e-05
-1.57591e-05
-2.3813e-05
-8.47732e-06
-2.90189e-05
2.53798e-07
-3.39726e-05
1.07181e-05
-4.23639e-05
2.24733e-05
-4.70909e-05
3.53187e-05
-5.14117e-05
4.91282e-05
-5.52387e-05
6.37737e-05
-5.85732e-05
7.91441e-05
-6.14751e-05
9.5179e-05
-6.41042e-05
0.000111742
-6.61996e-05
0.000128714
-6.79984e-05
0.000146057
-6.92086e-05
0.000163521
-6.98557e-05
0.000181031
-7.00523e-05
0.000198445
-6.95439e-05
0.000215499
-6.82691e-05
0.000232094
-6.62151e-05
0.000247959
-6.34246e-05
0.000262986
-5.98923e-05
0.000276862
-5.55004e-05
0.000289521
-5.04602e-05
0.000300694
-4.47541e-05
0.000310294
-3.82796e-05
0.000318135
-3.13551e-05
0.000324164
-2.38847e-05
0.000328137
-1.59667e-05
0.000330123
-7.90759e-06
0.000329998
3.26154e-07
0.000327825
8.5768e-06
0.000323639
1.68916e-05
0.000317374
2.48169e-05
0.000309283
3.22094e-05
0.000299468
3.92284e-05
0.000288099
4.5493e-05
0.000275212
5.11332e-05
0.000261137