/*--------------------------------*- C++ -*----------------------------------*\
| =========                 |                                                 |
| \\      /  F ield         | OpenFOAM: The Open Source CFD Toolbox           |
|  \\    /   O peration     | Version:  3.0.1                                 |
|   \\  /    A nd           | Web:      www.OpenFOAM.org                      |
|    \\/     M anipulation  |                                                 |
\*---------------------------------------------------------------------------*/
FoamFile
{
    version     2.0;
    format      ascii;
    class       surfaceScalarField;
    location    "18.2";
    object      phi;
}
// * * * * * * * * * * * * * * * * * * * * * * * * * * * * * * * * * * * * * //

dimensions      [0 3 -1 0 0 0 0];

internalField   nonuniform List<scalar> 
42423
(
-2.93354e-05
1.66424e-05
-4.51732e-05
1.58379e-05
-6.02912e-05
1.5118e-05
-7.45956e-05
1.43043e-05
-8.79776e-05
1.33821e-05
-0.000100479
1.25017e-05
-0.000112033
1.15534e-05
-0.000122684
1.06518e-05
-0.000132427
9.74241e-06
-0.000141267
8.84006e-06
-0.00014923
7.9626e-06
-0.000156329
7.09939e-06
-0.000162587
6.25773e-06
-0.000168047
5.46012e-06
-0.000172721
4.67435e-06
-0.000176627
3.90628e-06
-0.000179772
3.14507e-06
-0.000182184
2.41198e-06
-0.000183866
1.68154e-06
-0.000184866
1.00029e-06
-0.000185181
3.14363e-07
-0.000184689
-4.91763e-07
-0.000183434
-1.25503e-06
-0.000181381
-2.05314e-06
-0.000178571
-2.80939e-06
-0.000174932
-3.63898e-06
-0.000170511
-4.42099e-06
-0.000165298
-5.21384e-06
-0.000159129
-6.1683e-06
-0.000152096
-7.03327e-06
-0.000144225
-7.87121e-06
-0.000135281
-8.94358e-06
-0.000125351
-9.92996e-06
-0.000114322
-1.10293e-05
-0.000102365
-1.19567e-05
-8.95171e-05
-1.28483e-05
-7.56e-05
-1.3917e-05
-6.07369e-05
-1.48632e-05
-4.5046e-05
-1.56909e-05
-2.83485e-05
-1.66975e-05
-1.09849e-05
-1.73636e-05
7.0927e-06
-1.80777e-05
2.56924e-05
-1.85998e-05
4.44177e-05
-1.87253e-05
6.32955e-05
-1.88779e-05
8.21166e-05
-1.88211e-05
0.000100545
-1.8428e-05
0.000118439
-1.78946e-05
0.000135568
-1.71293e-05
0.00015158
-1.60119e-05
0.000166403
-1.48227e-05
0.000179739
-1.33358e-05
0.000191434
-1.16953e-05
0.0002013
-9.86625e-06
0.000209073
-7.77242e-06
0.000214707
-5.63461e-06
0.000218101
-3.39389e-06
0.000219108
-1.00739e-06
0.000217708
1.40063e-06
0.0002139
3.80812e-06
0.000207904
5.99523e-06
0.000199839
8.06501e-06
0.000189723
1.01166e-05
0.000177712
1.20109e-05
0.000164013
1.36989e-05
0.000148829
1.51835e-05
0.000132446
1.63834e-05
0.000115078
1.73685e-05
9.70099e-05
1.80676e-05
7.83965e-05
1.86135e-05
5.95635e-05
1.8833e-05
4.06625e-05
1.8901e-05
2.18993e-05
1.87632e-05
3.51608e-06
1.83832e-05
-1.4377e-05
1.7893e-05
-3.17278e-05
1.73509e-05
-4.83109e-05
1.6583e-05
-6.41389e-05
1.5828e-05
-7.89775e-05
1.48386e-05
-9.29977e-05
1.40202e-05
-0.000106029
1.30309e-05
-0.000118005
1.19764e-05
-0.000129024
1.10194e-05
-0.000139006
9.98147e-06
-0.00014789
8.88441e-06
-0.00015574
7.85024e-06
-0.000162625
6.88442e-06
-0.000168479
5.85379e-06
-0.000173307
4.82856e-06
-0.000177167
3.8598e-06
-0.000180124
2.95688e-06
-0.000182285
2.16138e-06
-0.000183731
1.44596e-06
-0.000184303
5.7152e-07
-0.000184249
-5.37265e-08
-0.000183283
-9.6647e-07
-0.000181811
-1.47115e-06
-0.000179745
-2.06608e-06
-0.000176879
-2.86616e-06
-0.000173426
-3.45345e-06
-0.000169456
-3.96953e-06
-0.000164669
-4.78729e-06
-0.000159053
-5.61562e-06
-0.00015272
-6.33337e-06
-0.000145523
-7.19747e-06
-0.000137426
-8.09649e-06
-0.000128445
-8.98065e-06
-0.000118535
-9.91063e-06
-0.000107747
-1.07883e-05
-9.60534e-05
-1.16932e-05
-8.33868e-05
-1.26667e-05
-6.9798e-05
-1.35888e-05
-5.53089e-05
-1.44891e-05
-3.99966e-05
-1.53124e-05
-2.39178e-05
-1.60788e-05
-7.1199e-06
-1.6798e-05
1.01662e-05
-1.72861e-05
2.79209e-05
-1.77547e-05
4.59117e-05
-1.79909e-05
6.39649e-05
-1.80532e-05
8.19145e-05
-1.79497e-05
9.95635e-05
-1.76491e-05
0.000116684
-1.71209e-05
0.000133036
-1.63518e-05
0.000148414
-1.5378e-05
0.000162578
-1.41638e-05
0.000175342
-1.27639e-05
0.000186472
-1.11301e-05
0.000195805
-9.333e-06
0.000203138
-7.33329e-06
0.000208306
-5.16798e-06
0.000211201
-2.89516e-06
0.000211827
-6.25371e-07
0.000210069
1.7577e-06
0.000205867
4.20156e-06
0.000199382
6.485e-06
0.000190712
8.66992e-06
0.00017997
1.07426e-05
0.000167346
1.2624e-05
0.000153055
1.4291e-05
0.000137375
1.56797e-05
0.000120526
1.68489e-05
0.000102801
1.77251e-05
8.44428e-05
1.83584e-05
6.56882e-05
1.87546e-05
4.68552e-05
1.8833e-05
2.82072e-05
1.8648e-05
9.85536e-06
1.83518e-05
-8.09314e-06
1.79485e-05
-2.54991e-05
1.74059e-05
-4.21755e-05
1.66765e-05
-5.79433e-05
1.57678e-05
-7.29409e-05
1.49976e-05
-8.69999e-05
1.4059e-05
-9.99609e-05
1.2961e-05
-0.000111969
1.20083e-05
-0.00012301
1.10411e-05
-0.000132973
9.96245e-06
-0.000142107
9.13403e-06
-0.000150236
8.12884e-06
-0.000157349
7.11343e-06
-0.000163659
6.31023e-06
-0.000168983
5.3238e-06
-0.000173432
4.44941e-06
-0.000176994
3.56159e-06
-0.000179674
2.67967e-06
-0.000181533
1.85946e-06
-0.000182581
1.04743e-06
-0.000182693
1.12208e-07
-0.000182099
-5.94031e-07
-0.000180797
-1.30213e-06
-0.000178467
-2.32931e-06
-0.000175402
-3.06536e-06
-0.000171787
-3.61502e-06
-0.000167276
-4.51075e-06
-0.000162137
-5.13942e-06
-0.000155952
-6.18459e-06
-0.000148923
-7.02954e-06
-0.000141295
-7.62791e-06
-0.00013288
-8.41518e-06
-0.000123644
-9.23594e-06
-0.000113679
-9.96477e-06
-0.000103019
-1.06603e-05
-9.16139e-05
-1.14049e-05
-7.94337e-05
-1.21802e-05
-6.6479e-05
-1.29547e-05
-5.28342e-05
-1.36449e-05
-3.84549e-05
-1.43793e-05
-2.34035e-05
-1.50514e-05
-7.72148e-06
-1.56821e-05
8.48535e-06
-1.62069e-05
2.52188e-05
-1.67335e-05
4.23005e-05
-1.70818e-05
5.96843e-05
-1.73838e-05
7.71642e-05
-1.74799e-05
9.45524e-05
-1.73883e-05
0.000111617
-1.70642e-05
0.000128181
-1.6565e-05
0.000143959
-1.57776e-05
0.000158713
-1.47538e-05
0.00017214
-1.34271e-05
0.000183981
-1.18413e-05
0.000193977
-9.9963e-06
0.000201916
-7.93883e-06
0.000207644
-5.72757e-06
0.000210887
-3.24362e-06
0.000211667
-7.79554e-07
0.000209936
1.73058e-06
0.000205599
4.33719e-06
0.000198783
6.81535e-06
0.000189637
9.14669e-06
0.000178357
1.12801e-05
0.000165178
1.31781e-05
0.000150365
1.48134e-05
0.000134182
1.61826e-05
0.00011701
1.7172e-05
9.91906e-05
1.78197e-05
8.08615e-05
1.83291e-05
6.23665e-05
1.84949e-05
4.39454e-05
1.84211e-05
2.58309e-05
1.81145e-05
8.29893e-06
1.7532e-05
-8.80177e-06
1.71007e-05
-2.50225e-05
1.62207e-05
-4.02875e-05
1.52651e-05
-5.47305e-05
1.44429e-05
-6.83088e-05
1.35783e-05
-8.09412e-05
1.26325e-05
-9.28417e-05
1.19004e-05
-0.000103721
1.0879e-05
-0.000113884
1.01633e-05
-0.000123333
9.44946e-06
-0.000131915
8.58127e-06
-0.000139772
7.85744e-06
-0.000146942
7.17008e-06
-0.00015343
6.4882e-06
-0.000159304
5.87362e-06
-0.000164436
5.13175e-06
-0.000168934
4.49852e-06
-0.000172801
3.86641e-06
-0.000176074
3.27343e-06
-0.000178566
2.49173e-06
-0.000180476
1.91064e-06
-0.000181737
1.26084e-06
-0.000182159
4.22237e-07
-0.000181965
-1.94567e-07
-0.000180682
-1.28284e-06
-0.000178573
-2.10887e-06
-0.00017578
-2.79283e-06
-0.000171962
-3.81809e-06
-0.000167165
-4.79776e-06
-0.00016141
-5.75411e-06
-0.000154794
-6.61644e-06
-0.000147229
-7.56529e-06
-0.00013844
-8.78925e-06
-0.000128598
-9.84118e-06
-0.000117786
-1.08122e-05
-0.000105944
-1.18426e-05
-9.30742e-05
-1.28695e-05
-7.92746e-05
-1.37996e-05
-6.45146e-05
-1.47601e-05
-4.89185e-05
-1.55961e-05
-3.25868e-05
-1.63318e-05
-1.55631e-05
-1.70237e-05
1.98245e-06
-1.75455e-05
1.99711e-05
-1.79886e-05
3.81461e-05
-1.81751e-05
5.64493e-05
-1.83033e-05
7.46295e-05
-1.81802e-05
9.24778e-05
-1.78483e-05
0.000109789
-1.73113e-05
0.000126373
-1.65841e-05
0.000142034
-1.56612e-05
0.000156533
-1.4499e-05
0.000169684
-1.31508e-05
0.000181266
-1.15821e-05
0.000191112
-9.84582e-06
0.000199152
-8.03985e-06
0.000205101
-5.94908e-06
0.000208963
-3.86218e-06
0.00021063
-1.66699e-06
0.000210088
5.41519e-07
0.000207307
2.78096e-06
0.000202256
5.05176e-06
0.000195125
7.13022e-06
0.000185825
9.30027e-06
0.000174585
1.124e-05
0.000161573
1.30119e-05
0.000147026
1.45472e-05
0.00013106
1.59655e-05
0.000113899
1.71612e-05
9.58891e-05
1.801e-05
7.72648e-05
1.86243e-05
5.82635e-05
1.90013e-05
3.91946e-05
1.90689e-05
2.02754e-05
1.89192e-05
1.73346e-06
1.8542e-05
-1.63319e-05
1.80654e-05
-3.37384e-05
1.74064e-05
-5.03399e-05
1.66015e-05
-6.60103e-05
1.56704e-05
-8.07397e-05
1.47294e-05
-9.43943e-05
1.36547e-05
-0.000106963
1.25686e-05
-0.000118458
1.14949e-05
-0.000128835
1.03775e-05
-0.000138112
9.27642e-06
-0.000146313
8.20135e-06
-0.000153437
7.12405e-06
-0.000159547
6.10954e-06
-0.000164647
5.09982e-06
-0.000168794
4.14736e-06
-0.000172058
3.26437e-06
-0.000174445
2.38633e-06
-0.000175999
1.55428e-06
-0.000176789
7.89719e-07
-0.000176744
-4.50144e-08
-0.000175916
-8.27118e-07
-0.000174364
-1.55287e-06
-0.000172045
-2.31856e-06
-0.000169026
-3.01915e-06
-0.000165349
-3.6764e-06
-0.000160912
-4.43711e-06
-0.000155843
-5.06889e-06
-0.000150048
-5.79526e-06
-0.000143595
-6.45298e-06
-0.000136463
-7.1326e-06
-0.000128544
-7.9189e-06
-0.000119977
-8.56675e-06
-0.000110753
-9.22384e-06
-0.000100711
-1.00426e-05
-8.98988e-05
-1.08118e-05
-7.84827e-05
-1.14161e-05
-6.63225e-05
-1.21602e-05
-5.35615e-05
-1.2761e-05
-4.01435e-05
-1.3418e-05
-2.61141e-05
-1.40295e-05
-1.16664e-05
-1.44477e-05
3.24855e-06
-1.4915e-05
1.85567e-05
-1.53082e-05
3.40219e-05
-1.54653e-05
4.96426e-05
-1.56208e-05
6.5213e-05
-1.55704e-05
8.07247e-05
-1.55117e-05
9.5967e-05
-1.52423e-05
0.000110722
-1.47552e-05
0.000124917
-1.41952e-05
0.000138337
-1.34197e-05
0.000150798
-1.24616e-05
0.000162167
-1.13684e-05
0.000172287
-1.01201e-05
0.000180951
-8.6637e-06
0.000187997
-7.04623e-06
0.000193273
-5.2766e-06
0.000196653
-3.3799e-06
0.000198069
-1.4157e-06
6.29162e-07
-2.9365e-05
3.3288e-05
-4.52055e-05
3.16784e-05
-6.03279e-05
3.02403e-05
-7.46379e-05
2.86144e-05
-8.80249e-05
2.6769e-05
-0.000100531
2.50073e-05
-0.000112084
2.31065e-05
-0.000122733
2.13015e-05
-0.000132475
1.94839e-05
-0.000141317
1.76817e-05
-0.000149285
1.59312e-05
-0.000156388
1.42025e-05
-0.000162644
1.25134e-05
-0.000168099
1.09152e-05
-0.000172773
9.34875e-06
-0.00017668
7.8126e-06
-0.000179828
6.29285e-06
-0.000182241
4.82564e-06
-0.000183932
3.37189e-06
-0.000184942
2.01042e-06
-0.000185248
6.20862e-07
-0.000184745
-9.95153e-07
-0.00018349
-2.5094e-06
-0.000181438
-4.1056e-06
-0.00017863
-5.61744e-06
-0.000174993
-7.27627e-06
-0.000170573
-8.84108e-06
-0.000165359
-1.04275e-05
-0.000159191
-1.23368e-05
-0.000152157
-1.4067e-05
-0.000144285
-1.5743e-05
-0.000135348
-1.78806e-05
-0.000125415
-1.9863e-05
-0.000114383
-2.2062e-05
-0.000102423
-2.39166e-05
-8.95724e-05
-2.56986e-05
-7.56514e-05
-2.78381e-05
-6.07809e-05
-2.97338e-05
-4.50977e-05
-3.13742e-05
-2.83916e-05
-3.34036e-05
-1.10215e-05
-3.47337e-05
7.06408e-06
-3.61633e-05
2.56738e-05
-3.72096e-05
4.44093e-05
-3.74608e-05
6.32965e-05
-3.77652e-05
8.21268e-05
-3.76514e-05
0.000100569
-3.68703e-05
0.000118482
-3.58075e-05
0.000135621
-3.42685e-05
0.000151644
-3.20349e-05
0.000166475
-2.96543e-05
0.000179822
-2.66824e-05
0.00019152
-2.3393e-05
0.000201404
-1.97508e-05
0.000209192
-1.55598e-05
0.000214829
-1.12717e-05
0.000218226
-6.79096e-06
0.000219237
-2.01882e-06
0.000217829
2.80907e-06
0.000214023
7.61332e-06
0.00020803
1.19888e-05
0.00019997
1.61249e-05
0.000189839
2.0248e-05
0.000177819
2.40309e-05
0.000164104
2.74131e-05
0.000148909
3.03782e-05
0.000132513
3.27798e-05
0.000115129
3.47525e-05
9.70475e-05
3.61492e-05
7.84216e-05
3.72393e-05
5.95775e-05
3.76772e-05
4.06636e-05
3.78148e-05
2.18869e-05
3.75399e-05
3.48889e-06
3.67812e-05
-1.44287e-05
3.58106e-05
-3.17746e-05
3.46968e-05
-4.83656e-05
3.31741e-05
-6.42053e-05
3.16676e-05
-7.90474e-05
2.96808e-05
-9.3066e-05
2.80388e-05
-0.000106112
2.60765e-05
-0.000118096
2.39604e-05
-0.000129123
2.2047e-05
-0.000139103
1.99616e-05
-0.000147989
1.77698e-05
-0.00015584
1.57012e-05
-0.000162715
1.37595e-05
-0.00016857
1.17093e-05
-0.000173397
9.65572e-06
-0.000177259
7.72132e-06
-0.000180215
5.91317e-06
-0.000182396
4.34213e-06
-0.000183821
2.87055e-06
-0.000184377
1.12829e-06
-0.00018432
-1.11014e-07
-0.000183352
-1.93468e-06
-0.00018188
-2.94312e-06
-0.000179821
-4.12464e-06
-0.000176953
-5.73456e-06
-0.000173488
-6.91834e-06
-0.000169522
-7.93592e-06
-0.000164734
-9.57454e-06
-0.000159106
-1.12446e-05
-0.000152786
-1.26526e-05
-0.000145578
-1.4406e-05
-0.00013748
-1.61944e-05
-0.0001285
-1.79607e-05
-0.000118585
-1.98256e-05
-0.00010779
-2.15833e-05
-9.60996e-05
-2.33838e-05
-8.34286e-05
-2.53378e-05
-6.98266e-05
-2.71909e-05
-5.5327e-05
-2.89888e-05
-4.00084e-05
-3.06311e-05
-2.39162e-05
-3.2171e-05
-7.10313e-06
-3.36111e-05
1.01804e-05
-3.45697e-05
2.79438e-05
-3.55182e-05
4.59534e-05
-3.60007e-05
6.4018e-05
-3.61179e-05
8.19728e-05
-3.59046e-05
9.96335e-05
-3.53098e-05
0.000116764
-3.42511e-05
0.000133138
-3.27261e-05
0.000148529
-3.07696e-05
0.000162693
-2.83278e-05
0.000175468
-2.55385e-05
0.000186605
-2.22672e-05
0.000195947
-1.86758e-05
0.000203292
-1.46776e-05
0.000208462
-1.03384e-05
0.000211352
-5.78566e-06
0.000211979
-1.25189e-06
0.000210215
3.52167e-06
0.000206021
8.39547e-06
0.000199532
1.29742e-05
0.00019084
1.73616e-05
0.000180082
2.15007e-05
0.000167446
2.52595e-05
0.00015315
2.85876e-05
0.000137447
3.13821e-05
0.000120578
3.37181e-05
0.000102835
3.54682e-05
8.44544e-05
3.67389e-05
6.56883e-05
3.75207e-05
4.68397e-05
3.76816e-05
2.81781e-05
3.73096e-05
9.81012e-06
3.67198e-05
-8.16277e-06
3.59214e-05
-2.55576e-05
3.48008e-05
-4.22388e-05
3.33577e-05
-5.80135e-05
3.15425e-05
-7.30234e-05
3.00075e-05
-8.70865e-05
2.81222e-05
-0.00010005
2.59245e-05
-0.000112068
2.4026e-05
-0.00012311
2.20835e-05
-0.000133071
1.99233e-05
-0.000142214
1.82766e-05
-0.000150328
1.62431e-05
-0.000157442
1.42273e-05
-0.00016375
1.2619e-05
-0.000169075
1.06487e-05
-0.000173531
8.90539e-06
-0.00017708
7.11013e-06
-0.000179762
5.36202e-06
-0.00018163
3.72758e-06
-0.000182668
2.08559e-06
-0.000182769
2.12542e-07
-0.000182178
-1.18469e-06
-0.000180881
-2.59907e-06
-0.000178555
-4.65601e-06
-0.000175472
-6.14777e-06
-0.000171851
-7.23615e-06
-0.000167333
-9.02916e-06
-0.000162205
-1.02668e-05
-0.000156024
-1.23659e-05
-0.000148981
-1.4073e-05
-0.000141345
-1.52631e-05
-0.000132928
-1.68322e-05
-0.000123693
-1.84719e-05
-0.000113721
-1.99368e-05
-0.000103055
-2.13256e-05
-9.16467e-05
-2.28136e-05
-7.94656e-05
-2.43613e-05
-6.65029e-05
-2.59176e-05
-5.28434e-05
-2.73044e-05
-3.84696e-05
-2.87532e-05
-2.34101e-05
-3.01111e-05
-7.71381e-06
-3.13784e-05
8.49862e-06
-3.24194e-05
2.52491e-05
-3.34841e-05
4.23374e-05
-3.41701e-05
5.97258e-05
-3.47724e-05
7.72131e-05
-3.49673e-05
9.46145e-05
-3.47898e-05
0.000111694
-3.41435e-05
0.000128266
-3.31375e-05
0.000144053
-3.1565e-05
0.000158828
-2.95279e-05
0.000172281
-2.68807e-05
0.000184131
-2.3691e-05
0.000194126
-1.9992e-05
0.000202063
-1.58755e-05
0.000207802
-1.14671e-05
0.000211055
-6.49639e-06
0.000211837
-1.56161e-06
0.000210094
3.47311e-06
0.000205751
8.68092e-06
0.000198929
1.36372e-05
0.000189775
1.83005e-05
0.000178472
2.25833e-05
0.000165271
2.63783e-05
0.000150448
2.96372e-05
0.000134253
3.23771e-05
0.00011706
3.43646e-05
9.92226e-05
3.56576e-05
8.0879e-05
3.66728e-05
6.23576e-05
3.70163e-05
4.3923e-05
3.68557e-05
2.57915e-05
3.6246e-05
8.2554e-06
3.50681e-05
-8.84714e-06
3.42033e-05
-2.50909e-05
3.24645e-05
-4.03584e-05
3.05326e-05
-5.4807e-05
2.88916e-05
-6.83926e-05
2.71639e-05
-8.10328e-05
2.52727e-05
-9.29341e-05
2.38017e-05
-0.000103805
2.17496e-05
-0.000113972
2.03301e-05
-0.00012342
1.88977e-05
-0.000132004
1.7166e-05
-0.000139863
1.5716e-05
-0.000147029
1.4336e-05
-0.000153505
1.29645e-05
-0.000159385
1.17538e-05
-0.000164519
1.02652e-05
-0.000169023
9.00281e-06
-0.000172903
7.7465e-06
-0.00017615
6.52039e-06
-0.000178639
4.98026e-06
-0.000180555
3.82707e-06
-0.000181821
2.52639e-06
-0.000182241
8.42428e-07
-0.000182047
-3.8824e-07
-0.000180756
-2.5742e-06
-0.000178642
-4.22228e-06
-0.00017586
-5.57502e-06
-0.000172053
-7.62493e-06
-0.000167239
-9.61216e-06
-0.000161475
-1.15186e-05
-0.000154866
-1.32247e-05
-0.000147303
-1.51291e-05
-0.0001385
-1.75922e-05
-0.000128655
-1.96859e-05
-0.000117838
-2.16296e-05
-0.000105995
-2.36856e-05
-9.31177e-05
-2.57466e-05
-7.93107e-05
-2.76067e-05
-6.45431e-05
-2.95277e-05
-4.89453e-05
-3.1194e-05
-3.26071e-05
-3.26701e-05
-1.55693e-05
-3.40616e-05
1.99235e-06
-3.51073e-05
1.99897e-05
-3.59861e-05
3.81649e-05
-3.63503e-05
5.6491e-05
-3.66295e-05
7.46799e-05
-3.63692e-05
9.25346e-05
-3.57032e-05
0.000109866
-3.46424e-05
0.000126461
-3.31797e-05
0.000142135
-3.1335e-05
0.000156636
-2.89999e-05
0.00016979
-2.63055e-05
0.000181385
-2.31773e-05
0.000191236
-1.96963e-05
0.00019928
-1.60841e-05
0.000205225
-1.18946e-05
0.000209089
-7.72555e-06
0.000210765
-3.34351e-06
0.000210222
1.08478e-06
0.000207432
5.57051e-06
0.000202385
1.00985e-05
0.00019525
1.42657e-05
0.00018594
1.86104e-05
0.00017469
2.24901e-05
0.000161672
2.60292e-05
0.000147115
2.9105e-05
0.000131136
3.19435e-05
0.000113963
3.43345e-05
9.59404e-05
3.60327e-05
7.7304e-05
3.72607e-05
5.82902e-05
3.80151e-05
3.92094e-05
3.81497e-05
2.02783e-05
3.78502e-05
1.72802e-06
3.70923e-05
-1.63517e-05
3.61452e-05
-3.37688e-05
3.48235e-05
-5.03824e-05
3.32152e-05
-6.6063e-05
3.1351e-05
-8.0792e-05
2.94584e-05
-9.44487e-05
2.73114e-05
-0.000107021
2.51407e-05
-0.000118517
2.29914e-05
-0.0001289
2.07603e-05
-0.000138181
1.85576e-05
-0.000146379
1.63994e-05
-0.000153503
1.42476e-05
-0.000159615
1.22217e-05
-0.000164724
1.02089e-05
-0.000168878
8.30154e-06
-0.000172133
6.51873e-06
-0.00017451
4.76347e-06
-0.00017606
3.10465e-06
-0.000176846
1.57596e-06
-0.0001768
-9.1301e-08
-0.000175971
-1.65589e-06
-0.000174416
-3.10785e-06
-0.000172104
-4.631e-06
-0.000169081
-6.04162e-06
-0.000165405
-7.35243e-06
-0.000160975
-8.86739e-06
-0.000155898
-1.01463e-05
-0.000150101
-1.15918e-05
-0.000143645
-1.29095e-05
-0.000136515
-1.42625e-05
-0.000128594
-1.58401e-05
-0.000120025
-1.71353e-05
-0.0001108
-1.84493e-05
-0.000100758
-2.00842e-05
-8.99466e-05
-2.16231e-05
-7.8524e-05
-2.28387e-05
-6.63606e-05
-2.43237e-05
-5.35949e-05
-2.55268e-05
-4.01718e-05
-2.68411e-05
-2.61379e-05
-2.80634e-05
-1.1685e-05
-2.89007e-05
3.2303e-06
-2.98304e-05
1.85416e-05
-3.06195e-05
3.40141e-05
-3.09378e-05
4.96424e-05
-3.12492e-05
6.52253e-05
-3.11533e-05
8.07603e-05
-3.10469e-05
9.60129e-05
-3.04949e-05
0.000110762
-2.9504e-05
0.000124958
-2.83921e-05
0.000138385
-2.68468e-05
0.000150844
-2.49204e-05
0.000162208
-2.27325e-05
0.000172327
-2.02386e-05
0.000180992
-1.73291e-05
0.000188047
-1.41012e-05
0.000193334
-1.05642e-05
0.000196724
-6.77009e-06
0.000198147
-2.83842e-06
1.25926e-06
-2.94251e-05
4.99409e-05
-4.52717e-05
4.75249e-05
-6.03987e-05
4.53674e-05
-7.47121e-05
4.29278e-05
-8.81014e-05
4.01583e-05
-0.00010061
3.75159e-05
-0.000112169
3.46657e-05
-0.000122825
3.19577e-05
-0.000132567
2.92257e-05
-0.000141403
2.65176e-05
-0.000149368
2.38963e-05
-0.000156473
2.13073e-05
-0.000162737
1.8778e-05
-0.000168195
1.63729e-05
-0.000172867
1.4021e-05
-0.000176775
1.17204e-05
-0.000179927
9.44443e-06
-0.000182347
7.24627e-06
-0.000184037
5.06139e-06
-0.000185023
2.99633e-06
-0.000185312
9.10081e-07
-0.000184806
-1.50131e-06
-0.000183551
-3.76442e-06
-0.0001815
-6.1568e-06
-0.000178693
-8.42452e-06
-0.000175057
-1.09122e-05
-0.000170639
-1.32592e-05
-0.000165427
-1.56392e-05
-0.000159259
-1.8505e-05
-0.000152227
-2.10992e-05
-0.000144357
-2.36128e-05
-0.000135433
-2.68042e-05
-0.000125497
-2.97996e-05
-0.000114462
-3.30968e-05
-0.000102501
-3.5878e-05
-8.96486e-05
-3.85506e-05
-7.57226e-05
-4.17642e-05
-6.08439e-05
-4.46124e-05
-4.51724e-05
-4.70458e-05
-2.84528e-05
-5.01232e-05
-1.1073e-05
-5.21136e-05
7.02541e-06
-5.42618e-05
2.56507e-05
-5.58349e-05
4.44087e-05
-5.62189e-05
6.33084e-05
-5.66649e-05
8.2157e-05
-5.65001e-05
0.000100605
-5.5318e-05
0.000118535
-5.37382e-05
0.000135701
-5.14339e-05
0.00015174
-4.8074e-05
0.000166587
-4.45018e-05
0.000179947
-4.00426e-05
0.000191662
-3.5108e-05
0.000201559
-2.96474e-05
0.000209353
-2.33543e-05
0.000214996
-1.69149e-05
0.000218399
-1.01935e-05
0.000219409
-3.02934e-06
0.000217987
4.23088e-06
0.000214189
1.14115e-05
0.000208198
1.79799e-05
0.000200137
2.41857e-05
0.000189986
3.03996e-05
0.000177952
3.60649e-05
0.00016421
4.11545e-05
0.000149002
4.55864e-05
0.000132587
4.9195e-05
0.000115183
5.21565e-05
9.70836e-05
5.42484e-05
7.84386e-05
5.58843e-05
5.95782e-05
5.65376e-05
4.06463e-05
5.67468e-05
2.1854e-05
5.63322e-05
3.44801e-06
5.51872e-05
-1.44822e-05
5.37408e-05
-3.1829e-05
5.20437e-05
-4.8422e-05
4.97671e-05
-6.42724e-05
4.7518e-05
-7.91174e-05
4.45258e-05
-9.31426e-05
4.2064e-05
-0.000106195
3.91293e-05
-0.000118181
3.59461e-05
-0.000129218
3.30839e-05
-0.000139203
2.99464e-05
-0.000148082
2.66488e-05
-0.000155925
2.35448e-05
-0.000162791
2.06254e-05
-0.000168643
1.75612e-05
-0.000173467
1.44799e-05
-0.000177328
1.15819e-05
-0.000180281
8.86617e-06
-0.000182465
6.52571e-06
-0.000183877
4.28316e-06
-0.000184436
1.68734e-06
-0.000184386
-1.61e-07
-0.000183393
-2.92795e-06
-0.000181919
-4.41686e-06
-0.000179881
-6.16291e-06
-0.000176999
-8.61682e-06
-0.000173543
-1.03741e-05
-0.000169592
-1.18866e-05
-0.000164798
-1.43693e-05
-0.000159185
-1.6857e-05
-0.000152874
-1.89637e-05
-0.000145641
-2.16391e-05
-0.000137543
-2.42927e-05
-0.000128571
-2.69327e-05
-0.000118664
-2.97323e-05
-0.000107874
-3.23737e-05
-9.61854e-05
-3.50725e-05
-8.35096e-05
-3.80136e-05
-6.99054e-05
-4.07952e-05
-5.54008e-05
-4.34934e-05
-4.00773e-05
-4.59547e-05
-2.39752e-05
-4.82732e-05
-7.14927e-06
-5.04371e-05
1.01426e-05
-5.18617e-05
2.79228e-05
-5.32985e-05
4.59434e-05
-5.40213e-05
6.40309e-05
-5.42054e-05
8.20097e-05
-5.38835e-05
9.96913e-05
-5.29915e-05
0.000116826
-5.13863e-05
0.000133223
-4.91224e-05
0.00014864
-4.61873e-05
0.000162824
-4.25117e-05
0.000175615
-3.83291e-05
0.000186765
-3.34179e-05
0.000196122
-2.80323e-05
0.000203484
-2.20397e-05
0.000208661
-1.55157e-05
0.000211557
-8.68178e-06
0.000212177
-1.87235e-06
0.000210393
5.30623e-06
0.000206194
1.2594e-05
0.000199707
1.94613e-05
0.000191015
2.60532e-05
0.000180237
3.2279e-05
0.000167579
3.79175e-05
0.000153255
4.2912e-05
0.000137528
4.71089e-05
0.000120645
5.06006e-05
0.000102886
5.32273e-05
8.44691e-05
5.5156e-05
6.56856e-05
5.63043e-05
4.6828e-05
5.65392e-05
2.81522e-05
5.59854e-05
9.76163e-06
5.51104e-05
-8.22704e-06
5.39101e-05
-2.56141e-05
5.21879e-05
-4.23147e-05
5.00583e-05
-5.80909e-05
4.73188e-05
-7.31089e-05
4.50254e-05
-8.71759e-05
4.21893e-05
-0.000100135
3.88839e-05
-0.000112153
3.60438e-05
-0.000123195
3.31254e-05
-0.000133155
2.98836e-05
-0.000142302
2.74237e-05
-0.000150405
2.43462e-05
-0.000157512
2.13336e-05
-0.000163822
1.89296e-05
-0.00016914
1.59663e-05
-0.00017359
1.33559e-05
-0.00017714
1.06596e-05
-0.000179836
8.0578e-06
-0.000181711
5.60281e-06
-0.000182748
3.1231e-06
-0.000182822
2.86242e-07
-0.00018223
-1.77724e-06
-0.000180954
-3.87476e-06
-0.000178613
-6.99672e-06
-0.000175517
-9.244e-06
-0.000171921
-1.08322e-05
-0.000167388
-1.35618e-05
-0.00016227
-1.53851e-05
-0.000156099
-1.85369e-05
-0.000149049
-2.11231e-05
-0.000141411
-2.29015e-05
-0.000132994
-2.52492e-05
-0.000123754
-2.77113e-05
-0.000113783
-2.99077e-05
-0.000103122
-3.19871e-05
-9.17212e-05
-3.42145e-05
-7.95399e-05
-3.65427e-05
-6.65713e-05
-3.88863e-05
-5.29058e-05
-4.097e-05
-3.85282e-05
-4.31309e-05
-2.34626e-05
-4.51767e-05
-7.77418e-06
-4.7067e-05
8.45372e-06
-4.86474e-05
2.52113e-05
-5.02418e-05
4.23191e-05
-5.1278e-05
5.97327e-05
-5.21862e-05
7.72405e-05
-5.24751e-05
9.46543e-05
-5.22037e-05
0.000111748
-5.1237e-05
0.000128348
-4.97376e-05
0.000144153
-4.73705e-05
0.000158941
-4.43162e-05
0.000172415
-4.03544e-05
0.000184294
-3.55708e-05
0.000194316
-3.00134e-05
0.000202265
-2.38247e-05
0.000208024
-1.7226e-05
0.000211277
-9.74943e-06
0.000212058
-2.34272e-06
0.000210299
5.23199e-06
0.000205952
1.30276e-05
0.000199116
2.04736e-05
0.00018995
2.74656e-05
0.000178634
3.38999e-05
0.000165397
3.96151e-05
0.000150543
4.44908e-05
0.000134321
4.85997e-05
0.000117108
5.1577e-05
9.92629e-05
5.35031e-05
8.09048e-05
5.50308e-05
6.23478e-05
5.55734e-05
4.39002e-05
5.53032e-05
2.57535e-05
5.43927e-05
8.21207e-06
5.26096e-05
-8.91229e-06
5.13276e-05
-2.51785e-05
4.87307e-05
-4.04357e-05
4.57898e-05
-5.48871e-05
4.3343e-05
-6.84651e-05
4.07419e-05
-8.11115e-05
3.79191e-05
-9.30154e-05
3.57056e-05
-0.000103868
3.2602e-05
-0.000114041
3.05028e-05
-0.000123493
2.835e-05
-0.000132068
2.57413e-05
-0.000139927
2.35743e-05
-0.000147082
2.14917e-05
-0.000153534
1.94163e-05
-0.000159428
1.76479e-05
-0.000164569
1.54063e-05
-0.000169075
1.35085e-05
-0.000172962
1.16336e-05
-0.000176198
9.75638e-06
-0.000178686
7.46873e-06
-0.000180607
5.74781e-06
-0.000181883
3.80241e-06
-0.000182299
1.25804e-06
-0.000182121
-5.65971e-07
-0.000180824
-3.87149e-06
-0.000178703
-6.34303e-06
-0.000175945
-8.33301e-06
-0.000172143
-1.14269e-05
-0.000167321
-1.4434e-05
-0.00016159
-1.72495e-05
-0.000154951
-1.98639e-05
-0.000147386
-2.2695e-05
-0.000138583
-2.63947e-05
-0.000128736
-2.9533e-05
-0.000117922
-3.2444e-05
-0.000106076
-3.55311e-05
-9.32005e-05
-3.86223e-05
-7.93945e-05
-4.14127e-05
-6.46185e-05
-4.43038e-05
-4.90279e-05
-4.67847e-05
-3.2663e-05
-4.90349e-05
-1.56078e-05
-5.11169e-05
1.96718e-06
-5.26823e-05
1.99825e-05
-5.40015e-05
3.81657e-05
-5.45336e-05
5.65077e-05
-5.49716e-05
7.47103e-05
-5.45718e-05
9.25763e-05
-5.35693e-05
0.00010992
-5.19864e-05
0.000126545
-4.98048e-05
0.000142237
-4.70263e-05
0.000156748
-4.35117e-05
0.000169909
-3.94659e-05
0.000181515
-3.4784e-05
0.000191391
-2.95716e-05
0.000199436
-2.41298e-05
0.000205388
-1.78462e-05
0.000209258
-1.1596e-05
0.000210938
-5.02328e-06
0.000210385
1.63802e-06
0.000207596
8.35901e-06
0.000202559
1.51351e-05
0.000195409
2.14159e-05
0.000186093
2.79261e-05
0.000174829
3.37548e-05
0.0001618
3.90573e-05
0.000147225
4.36806e-05
0.000131222
4.7946e-05
0.00011403
5.1527e-05
9.59871e-05
5.40755e-05
7.73304e-05
5.59174e-05
5.82976e-05
5.70478e-05
3.92004e-05
5.7247e-05
2.02525e-05
5.67981e-05
1.68528e-06
5.56595e-05
-1.6411e-05
5.42414e-05
-3.38411e-05
5.22536e-05
-5.04605e-05
4.98346e-05
-6.61472e-05
4.70377e-05
-8.08829e-05
4.4194e-05
-9.45474e-05
4.09759e-05
-0.000107123
3.77165e-05
-0.000118621
3.4489e-05
-0.000129007
3.1146e-05
-0.000138286
2.78368e-05
-0.000146483
2.45967e-05
-0.000153611
2.13758e-05
-0.000159728
1.8338e-05
-0.000164833
1.53146e-05
-0.000168977
1.24447e-05
-0.000172226
9.76804e-06
-0.000174605
7.14268e-06
-0.000176154
4.65382e-06
-0.000176929
2.3505e-06
-0.000176866
-1.53814e-07
-0.000176027
-2.49478e-06
-0.00017447
-4.66569e-06
-0.000172157
-6.94349e-06
-0.000169137
-9.062e-06
-0.000165461
-1.10277e-05
-0.000161038
-1.32903e-05
-0.000155951
-1.52335e-05
-0.000150154
-1.7389e-05
-0.0001437
-1.93639e-05
-0.000136573
-2.13891e-05
-0.000128649
-2.37639e-05
-0.000120081
-2.57039e-05
-0.000110856
-2.7674e-05
-0.00010082
-3.01207e-05
-9.00139e-05
-3.24291e-05
-7.85797e-05
-3.42729e-05
-6.64135e-05
-3.649e-05
-5.36438e-05
-3.82965e-05
-4.02167e-05
-4.02683e-05
-2.61761e-05
-4.21041e-05
-1.17113e-05
-4.33655e-05
3.22966e-06
-4.47713e-05
1.85597e-05
-4.59497e-05
3.40471e-05
-4.64252e-05
4.96832e-05
-4.68853e-05
6.52669e-05
-4.67371e-05
8.0806e-05
-4.65861e-05
9.60745e-05
-4.57635e-05
0.000110842
-4.42712e-05
0.000125046
-4.25968e-05
0.000138474
-4.02751e-05
0.000150937
-3.73827e-05
0.000162308
-3.41043e-05
0.000172435
-3.03651e-05
0.000181104
-2.59981e-05
0.000188158
-2.11557e-05
0.000193446
-1.58519e-05
0.000196845
-1.01701e-05
0.000198289
-4.28199e-06
1.87666e-06
-2.95152e-05
6.66045e-05
-4.53708e-05
6.33805e-05
-6.05064e-05
6.0503e-05
-7.48273e-05
5.72487e-05
-8.82228e-05
5.35538e-05
-0.000100736
5.00293e-05
-0.000112299
4.62284e-05
-0.000122957
4.26158e-05
-0.000132703
3.89714e-05
-0.000141539
3.53537e-05
-0.000149507
3.18643e-05
-0.000156612
2.84131e-05
-0.000162871
2.50362e-05
-0.000168328
2.18301e-05
-0.000173007
1.87002e-05
-0.000176924
1.56373e-05
-0.000180081
1.26016e-05
-0.000182505
9.66976e-06
-0.000184194
6.75124e-06
-0.000185165
3.96709e-06
-0.000185425
1.16989e-06
-0.000184897
-2.02967e-06
-0.000183641
-5.0202e-06
-0.000181592
-8.20601e-06
-0.000178787
-1.12291e-05
-0.000175154
-1.45456e-05
-0.000170738
-1.76752e-05
-0.000165528
-2.08493e-05
-0.000159362
-2.46708e-05
-0.000152332
-2.81287e-05
-0.000144464
-3.14807e-05
-0.000135562
-3.57062e-05
-0.00012562
-3.97423e-05
-0.000114581
-4.41355e-05
-0.000102617
-4.7842e-05
-8.97631e-05
-5.14049e-05
-7.58302e-05
-5.56971e-05
-6.09405e-05
-5.95022e-05
-4.52856e-05
-6.27007e-05
-2.85455e-05
-6.68634e-05
-1.11507e-05
-6.95084e-05
6.96877e-06
-7.23813e-05
2.56167e-05
-7.4483e-05
4.43955e-05
-7.49977e-05
6.332e-05
-7.55895e-05
8.21984e-05
-7.53785e-05
0.000100665
-7.37846e-05
0.000118619
-7.16925e-05
0.000135812
-6.86266e-05
0.000151872
-6.41339e-05
0.000166746
-5.93765e-05
0.000180126
-5.34228e-05
0.000191866
-4.68475e-05
0.000201778
-3.95597e-05
0.00020958
-3.11558e-05
0.000215231
-2.2566e-05
0.000218641
-1.36035e-05
0.000219647
-4.03541e-06
0.000218222
5.6553e-06
0.000214438
1.51956e-05
0.000208448
2.39696e-05
0.000200374
3.226e-05
0.000190205
4.05691e-05
0.000178151
4.8119e-05
0.000164368
5.49371e-05
0.000149139
6.08156e-05
0.000132696
6.56376e-05
0.000115263
6.95898e-05
9.71353e-05
7.23759e-05
7.84603e-05
7.45593e-05
5.95768e-05
7.54211e-05
4.0622e-05
7.57016e-05
2.18075e-05
7.51468e-05
3.38663e-06
7.3608e-05
-1.45677e-05
7.16952e-05
-3.19206e-05
6.93966e-05
-4.85184e-05
6.63649e-05
-6.43863e-05
6.3386e-05
-7.92196e-05
5.93591e-05
-9.32557e-05
5.61001e-05
-0.00010634
5.22138e-05
-0.000118309
4.79147e-05
-0.000129346
4.41213e-05
-0.00013935
3.995e-05
-0.000148216
3.55151e-05
-0.000156047
3.1376e-05
-0.000162911
2.74894e-05
-0.000168765
2.3415e-05
-0.000173598
1.93131e-05
-0.000177444
1.54273e-05
-0.000180378
1.18008e-05
-0.00018258
8.7278e-06
-0.000183973
5.67608e-06
-0.000184517
2.23117e-06
-0.000184484
-1.94273e-07
-0.000183461
-3.95105e-06
-0.000181975
-5.90247e-06
-0.000179978
-8.16064e-06
-0.000177072
-1.15221e-05
-0.000173612
-1.38346e-05
-0.000169691
-1.58069e-05
-0.000164895