/*--------------------------------*- C++ -*----------------------------------*\
| =========                 |                                                 |
| \\      /  F ield         | OpenFOAM: The Open Source CFD Toolbox           |
|  \\    /   O peration     | Version:  3.0.1                                 |
|   \\  /    A nd           | Web:      www.OpenFOAM.org                      |
|    \\/     M anipulation  |                                                 |
\*---------------------------------------------------------------------------*/
FoamFile
{
    version     2.0;
    format      ascii;
    class       surfaceScalarField;
    location    "31.8";
    object      alphaPhi;
}
// * * * * * * * * * * * * * * * * * * * * * * * * * * * * * * * * * * * * * //

dimensions      [0 3 -1 0 0 0 0];

internalField   nonuniform List<scalar> 
42423
(
-0.000142812
3.60698e-06
-0.000145642
2.8296e-06
-0.000147771
2.12882e-06
-0.000149216
1.44523e-06
-0.000149993
7.77271e-07
-0.000150109
1.15606e-07
-0.000149468
-6.41331e-07
-0.000148169
-1.29879e-06
-0.000146246
-1.92246e-06
-0.000143538
-2.7089e-06
-0.000140166
-3.37131e-06
-0.000136012
-4.15471e-06
-0.000131098
-4.91364e-06
-0.000125351
-5.747e-06
-0.000118768
-6.58277e-06
-0.00011127
-7.49805e-06
-0.000103094
-8.17592e-06
-9.39361e-05
-9.15813e-06
-8.37705e-05
-1.01656e-05
-7.26781e-05
-1.10924e-05
-6.05499e-05
-1.21283e-05
-4.73563e-05
-1.31935e-05
-3.34629e-05
-1.38935e-05
-1.83496e-05
-1.51132e-05
-2.5038e-06
-1.58458e-05
1.42078e-05
-1.67116e-05
3.17374e-05
-1.75296e-05
4.97086e-05
-1.79712e-05
6.82619e-05
-1.85533e-05
8.72073e-05
-1.89454e-05
0.000106178
-1.89705e-05
0.000125089
-1.89116e-05
0.000143659
-1.85692e-05
0.000161723
-1.80642e-05
0.000178939
-1.72163e-05
0.000194973
-1.60341e-05
0.000209631
-1.46578e-05
0.000222706
-1.30753e-05
0.00023392
-1.12136e-05
0.000243096
-9.17603e-06
0.000250003
-6.90694e-06
0.000254659
-4.65664e-06
0.000256824
-2.16464e-06
0.000256416
4.07601e-07
0.000253531
2.88571e-06
0.000248173
5.3579e-06
0.000240462
7.71081e-06
0.000230508
9.95379e-06
0.000218656
1.18523e-05
0.000204903
1.37524e-05
0.000189486
1.5417e-05
0.000172869
1.66173e-05
0.00015514
1.77287e-05
0.000136654
1.84866e-05
0.000117676
1.89779e-05
9.8445e-05
1.92309e-05
7.90612e-05
1.93837e-05
5.99119e-05
1.91493e-05
4.12248e-05
1.86871e-05
2.29922e-05
1.82326e-05
5.37626e-06
1.76159e-05
-1.13697e-05
1.6746e-05
-2.73085e-05
1.59388e-05
-4.23071e-05
1.49986e-05
-5.63923e-05
1.40851e-05
-6.94646e-05
1.30723e-05
-8.14688e-05
1.20042e-05
-9.25847e-05
1.1116e-05
-0.000102596
1.00109e-05
-0.000111701
9.10566e-06
-0.000119909
8.20734e-06
-0.000127156
7.24759e-06
-0.000133533
6.37715e-06
-0.00013907
5.53627e-06
-0.000143697
4.62711e-06
-0.00014756
3.86342e-06
-0.000150536
2.97592e-06
-0.000152753
2.21708e-06
-0.000154176
1.42227e-06
-0.000154899
7.23654e-07
-0.000154774
-1.25138e-07
-0.000154034
-7.40726e-07
-0.00015241
-1.62366e-06
-0.000150165
-2.24556e-06
-0.000147088
-3.07645e-06
-0.000143365
-3.72308e-06
-0.000138954
-4.41081e-06
-0.000133836
-5.11875e-06
-0.000127997
-5.83876e-06
-0.000121545
-6.4517e-06
-0.000114394
-7.15136e-06
-0.000106546
-7.84871e-06
-9.80137e-05
-8.53196e-06
-8.87313e-05
-9.28248e-06
-7.86898e-05
-1.00415e-05
-6.78372e-05
-1.08527e-05
-5.61495e-05
-1.16877e-05
-4.36664e-05
-1.24831e-05
-3.03584e-05
-1.33081e-05
-1.62972e-05
-1.40612e-05
-1.5019e-06
-1.47954e-05
1.39964e-05
-1.54984e-05
3.00606e-05
-1.60642e-05
4.6594e-05
-1.65335e-05
6.34795e-05
-1.68855e-05
8.05215e-05
-1.70421e-05
9.75628e-05
-1.70414e-05
0.000114379
-1.68162e-05
0.00013075
-1.63715e-05
0.000146462
-1.57121e-05
0.000161278
-1.48153e-05
0.000174966
-1.36887e-05
0.000187276
-1.23097e-05
0.000197979
-1.07035e-05
0.000206832
-8.85258e-06
0.00021366
-6.8284e-06
0.000218282
-4.62127e-06
0.000220562
-2.28095e-06
0.000220456
1.06196e-07
0.000217894
2.56266e-06
0.000212746
5.14773e-06
0.000205285
7.46045e-06
0.000195544
9.74177e-06
0.000183736
1.18072e-05
0.000170067
1.36693e-05
0.000154718
1.53489e-05
0.000138021
1.66972e-05
0.000120222
1.77993e-05
0.000101646
1.85757e-05
8.25604e-05
1.90856e-05
6.3183e-05
1.93774e-05
4.38628e-05
1.93202e-05
2.479e-05
1.90728e-05
6.16808e-06
1.86219e-05
-1.1894e-05
1.80621e-05
-2.91036e-05
1.72096e-05
-4.54332e-05
1.63296e-05
-6.07402e-05
1.53069e-05
-7.50243e-05
1.42841e-05
-8.8233e-05
1.32088e-05
-0.000100292
1.20587e-05
-0.000111267
1.09753e-05
-0.000121054
9.7869e-06
-0.000129731
8.67758e-06
-0.000137275
7.54371e-06
-0.000143809
6.53413e-06
-0.000149403
5.59394e-06
-0.000154171
4.76801e-06
-0.000158124
3.95285e-06
-0.000161439
3.3153e-06
-0.000164068
2.62821e-06
-0.000166212
2.14482e-06
-0.000167738
1.52613e-06
-0.000168815
1.07605e-06
-0.000169301
4.86587e-07
-0.000169295
-6.14232e-09
-0.000168701
-5.94102e-07
-0.00016754
-1.16131e-06
-0.00016591
-1.62907e-06
-0.000163703
-2.20702e-06
-0.000161025
-2.67797e-06
-0.000157683
-3.34211e-06
-0.000153814
-3.86973e-06
-0.000149177
-4.63668e-06
-0.000143857
-5.31947e-06
-0.000137739
-6.11853e-06
-0.00013081
-6.9285e-06
-0.000123185
-7.62592e-06
-0.000114646
-8.53895e-06
-0.000105323
-9.32255e-06
-9.51044e-05
-1.02187e-05
-8.40446e-05
-1.10599e-05
-7.20914e-05
-1.19532e-05
-5.93833e-05
-1.27082e-05
-4.57009e-05
-1.36824e-05
-3.1125e-05
-1.45759e-05
-1.57395e-05
-1.53855e-05
3.75467e-07
-1.6115e-05
1.71115e-05
-1.6736e-05
3.4369e-05
-1.72576e-05
5.18897e-05
-1.75207e-05
6.95745e-05
-1.76848e-05
8.71081e-05
-1.75337e-05
0.000104326
-1.72176e-05
0.000120895
-1.65697e-05
0.000136592
-1.56972e-05
0.000151051
-1.44586e-05
0.000164056
-1.30048e-05
0.000175305
-1.12491e-05
0.00018456
-9.25555e-06
0.000191654
-7.09363e-06
0.000196419
-4.76545e-06
0.000198727
-2.30746e-06
0.000198598
1.28795e-07
0.00019599
2.60797e-06
0.000190918
5.07156e-06
0.000183515
7.40331e-06
0.000174012
9.50326e-06
0.000162547
1.14651e-05
0.000149399
1.31475e-05
0.000134793
1.46065e-05
0.000118993
1.57993e-05
0.000102305
1.66887e-05
8.49709e-05
1.73337e-05
6.72906e-05
1.76803e-05
4.94611e-05
1.78295e-05
3.1778e-05
1.76832e-05
1.43316e-05
1.74464e-05
-2.61105e-06
1.69426e-05
-1.89598e-05
1.63488e-05
-3.46246e-05
1.56648e-05
-4.95899e-05
1.49652e-05
-6.36866e-05
1.40967e-05
-7.69509e-05
1.32644e-05
-8.9321e-05
1.23701e-05
-0.000100863
1.15421e-05
-0.000111515
1.06515e-05
-0.000121312
9.79785e-06
-0.000130258
8.94588e-06
-0.000138447
8.18865e-06
-0.000145847
7.39956e-06
-0.000152453
6.60689e-06
-0.000158323
5.8691e-06
-0.000163397
5.07454e-06
-0.000167801
4.40415e-06
-0.0001715
3.69908e-06
-0.000174524
3.02361e-06
-0.000176877
2.35346e-06
-0.000178638
1.7602e-06
-0.000179716
1.07874e-06
-0.000180161
4.44825e-07
-0.000179928
-2.32838e-07
-0.000179039
-8.89705e-07
-0.000177458
-1.58081e-06
-0.000175193
-2.26447e-06
-0.000172247
-2.94683e-06
-0.000168562
-3.68453e-06
-0.000164228
-4.33377e-06
-0.000159118
-5.11052e-06
-0.000153233
-5.88431e-06
-0.000146575
-6.65799e-06
-0.000139198
-7.377e-06
-0.000131016
-8.1823e-06
-0.000122001
-9.01518e-06
-0.000112073
-9.92832e-06
-0.000101371
-1.07021e-05
-8.971e-05
-1.16607e-05
-7.73042e-05
-1.24058e-05
-6.39943e-05
-1.33099e-05
-4.98827e-05
-1.41116e-05
-3.50308e-05
-1.48519e-05
-1.95844e-05
-1.54464e-05
-3.57332e-06
-1.60111e-05
1.28843e-05
-1.64577e-05
2.96677e-05
-1.67834e-05
4.65821e-05
-1.69144e-05
6.3476e-05
-1.68939e-05
8.0118e-05
-1.6642e-05
9.62808e-05
-1.61629e-05
0.000111791
-1.551e-05
0.000126364
-1.45732e-05
0.000139855
-1.34915e-05
0.000151952
-1.20971e-05
0.000162525
-1.05727e-05
0.000171318
-8.79361e-06
0.000178156
-6.83782e-06
0.00018296
-4.80348e-06
0.000185548
-2.58809e-06
0.000185935
-3.87177e-07
0.000184041
1.89365e-06
0.000179908
4.13248e-06
0.000173739
6.16956e-06
0.000165596
8.14276e-06
0.000155809
9.7865e-06
0.000144319
1.14899e-05
0.000131547
1.27723e-05
0.000117622
1.39246e-05
0.000102746
1.48759e-05
8.71839e-05
1.55624e-05
7.115e-05
1.60339e-05
5.47934e-05
1.63565e-05
3.83268e-05
1.64666e-05
2.1994e-05
1.63328e-05
5.81797e-06
1.6176e-05
-9.82348e-06
1.56414e-05
-2.49896e-05
1.51662e-05
-3.95121e-05
1.45225e-05
-5.32641e-05
1.3752e-05
-6.62393e-05
1.29752e-05
-7.83216e-05
1.20823e-05
-8.95864e-05
1.12648e-05
-9.99365e-05
1.035e-05
-0.000109404
9.46757e-06
-0.000118073
8.66864e-06
-0.000125863
7.79022e-06
-0.000132831
6.96833e-06
-0.000139077
6.24628e-06
-0.00014456
5.48253e-06
-0.000149293
4.73273e-06
-0.000153372
4.07963e-06
-0.000156769
3.39634e-06
-0.000159572
2.80316e-06
-0.000161793
2.22089e-06
-0.00016335
1.55733e-06
-0.000164375
1.02465e-06
-0.000164862
4.86962e-07
-0.00016468
-1.81342e-07
-0.00016396
-7.2006e-07
-0.000162529
-1.43118e-06
-0.000160483
-2.04595e-06
-0.000157821
-2.66201e-06
-0.000154377
-3.44439e-06
-0.000150135
-4.24209e-06
-0.000145181
-4.95366e-06
-0.000139241
-5.94038e-06
-0.000132463
-6.77814e-06
-0.00012465
-7.8123e-06
-0.00011587
-8.77978e-06
-0.000106195
-9.67569e-06
-9.54732e-05
-1.07217e-05
-8.37338e-05
-1.17394e-05
-7.1207e-05
-1.25268e-05
-5.75833e-05
-1.36237e-05
-4.31656e-05
-1.44178e-05
-2.79533e-05
-1.52123e-05
-1.20289e-05
-1.59244e-05
4.23056e-06
-1.62595e-05
2.09387e-05
-1.67081e-05
3.79644e-05
-1.70258e-05
5.49467e-05
-1.69823e-05
7.19022e-05
-1.69555e-05
8.85393e-05
-1.66371e-05
0.00010463
-1.60912e-05
0.000120009
-1.53787e-05
0.000134486
-1.44769e-05
0.000147787
-1.33012e-05
0.000159809
-1.20221e-05
0.000170396
-1.05866e-05
0.000179315
-8.91925e-06
0.000186475
-7.15981e-06
0.000191781
-5.30631e-06
0.00019516
-3.37909e-06
0.000196514
-1.35329e-06
0.000195847
6.66531e-07
0.000193092
2.75502e-06
0.00018828
4.81197e-06
0.000181572
6.70774e-06
0.000173076
8.49616e-06
0.000162789
1.02874e-05
0.000151077
1.17119e-05
0.000137925
1.31515e-05
0.000123709
1.42165e-05
0.000108439
1.52694e-05
9.22796e-05
1.61597e-05
7.56429e-05
1.66367e-05
5.85205e-05
1.71223e-05
1.73472e-05
-0.00014285
7.221e-06
-0.000145681
5.66074e-06
-0.000147811
4.25939e-06
-0.000149261
2.89477e-06
-0.000150038
1.55403e-06
-0.00015015
2.28223e-07
-0.000149509
-1.28209e-06
-0.000148212
-2.59625e-06
-0.000146289
-3.84544e-06
-0.000143582
-5.41574e-06
-0.000140215
-6.73892e-06
-0.000136058
-8.31112e-06
-0.000131144
-9.82741e-06
-0.0001254
-1.14915e-05
-0.000118819
-1.31641e-05
-0.000111324
-1.49925e-05
-0.000103147
-1.63535e-05
-9.39814e-05
-1.83234e-05
-8.38023e-05
-2.03446e-05
-7.27289e-05
-2.21659e-05
-6.0598e-05
-2.42592e-05
-4.74039e-05
-2.63876e-05
-3.34824e-05
-2.78151e-05
-1.83881e-05
-3.02076e-05
-2.53792e-06
-3.16961e-05
1.41771e-05
-3.34267e-05
3.17076e-05
-3.50602e-05
4.9685e-05
-3.59486e-05
6.82493e-05
-3.71177e-05
8.72023e-05
-3.78984e-05
0.00010619
-3.79579e-05
0.000125111
-3.78329e-05
0.000143694
-3.71528e-05
0.000161776
-3.61459e-05
0.000179001
-3.44409e-05
0.000195047
-3.20809e-05
0.000209715
-2.93254e-05
0.000222801
-2.61614e-05
0.000234022
-2.24348e-05
0.000243209
-1.83629e-05
0.000250121
-1.38185e-05
0.000254782
-9.31815e-06
0.000256955
-4.33729e-06
0.000256539
8.23703e-07
0.00025365
5.77384e-06
0.000248293
1.07151e-05
0.000240581
1.54233e-05
0.000230617
1.99172e-05
0.000218758
2.37115e-05
0.000204991
2.75196e-05
0.000189566
3.08414e-05
0.00017294
3.32437e-05
0.000155197
3.54714e-05
0.0001367
3.69837e-05
0.000117708
3.79695e-05
9.84715e-05
3.84678e-05
7.90853e-05
3.87699e-05
5.99123e-05
3.83222e-05
4.1215e-05
3.73844e-05
2.29825e-05
3.64651e-05
5.36956e-06
3.52289e-05
-1.14017e-05
3.35172e-05
-2.73512e-05
3.18883e-05
-4.23592e-05
3.00065e-05
-5.645e-05
2.8176e-05
-6.95276e-05
2.61499e-05
-8.15424e-05
2.4019e-05
-9.26514e-05
2.22249e-05
-0.000102664
2.00239e-05
-0.000111771
1.82127e-05
-0.000119979
1.64154e-05
-0.000127224
1.44926e-05
-0.000133607
1.27599e-05
-0.000139136
1.10651e-05
-0.000143762
9.25287e-06
-0.000147631
7.73224e-06
-0.000150602
5.94674e-06
-0.000152822
4.43724e-06
-0.000154241
2.84154e-06
-0.000154963
1.44532e-06
-0.000154841
-2.46999e-07
-0.000154094
-1.48751e-06
-0.000152475
-3.24271e-06
-0.000150226
-4.49509e-06
-0.000147148
-6.15485e-06
-0.000143422
-7.44905e-06
-0.000139022
-8.81111e-06
-0.000133903
-1.02374e-05
-0.000128074
-1.16678e-05
-0.000121613
-1.29132e-05
-0.00011446
-1.43044e-05
-0.000106618
-1.56905e-05
-9.80948e-05
-1.70552e-05
-8.88039e-05
-1.85735e-05
-7.8771e-05
-2.00745e-05
-6.7913e-05
-2.17107e-05
-5.62256e-05
-2.33752e-05
-4.37435e-05
-2.49653e-05
-3.04259e-05
-2.66257e-05
-1.63613e-05
-2.81259e-05
-1.55865e-06
-2.9598e-05
1.39434e-05
-3.10004e-05
3.00235e-05
-3.21444e-05
4.65699e-05
-3.308e-05
6.34673e-05
-3.3783e-05
8.053e-05
-3.41049e-05
9.75748e-05
-3.40863e-05
0.000114407
-3.36481e-05
0.000130783
-3.27483e-05
0.000146509
-3.14379e-05
0.000161342
-2.96485e-05
0.000175044
-2.73906e-05
0.000187388
-2.4654e-05
0.000198078
-2.1393e-05
0.000206948
-1.77225e-05
0.000213788
-1.36687e-05
0.000218411
-9.24396e-06
0.000220695
-4.56486e-06
0.00022059
2.10792e-07
0.000218021
5.13169e-06
0.000212866
1.03026e-05
0.000205391
1.49353e-05
0.000195639
1.9494e-05
0.000183826
2.36205e-05
0.00017015
2.73454e-05
0.000154783
3.07155e-05
0.000138066
3.34137e-05
0.000120251
3.5615e-05
0.000101661
3.71651e-05
8.25618e-05
3.81852e-05
6.31702e-05
3.87691e-05
4.3835e-05
3.86554e-05
2.47414e-05
3.81664e-05
6.09386e-06
3.72695e-05
-1.19572e-05
3.61132e-05
-2.91717e-05
3.44241e-05
-4.55171e-05
3.2675e-05
-6.08307e-05
3.06207e-05
-7.50936e-05
2.8547e-05
-8.83295e-05
2.64446e-05
-0.000100396
2.4125e-05
-0.000111362
2.19418e-05
-0.000121158
1.95824e-05
-0.000129844
1.73638e-05
-0.000137391
1.5091e-05
-0.000143923
1.30665e-05
-0.000149516
1.11868e-05
-0.000154282
9.53386e-06
-0.000158244
7.91517e-06
-0.000161539
6.60998e-06
-0.000164184
5.27304e-06
-0.000166307
4.26845e-06
-0.000167856
3.07459e-06
-0.000168915
2.13514e-06
-0.000169409
9.80138e-07
-0.000169396
-1.88562e-08
-0.000168804
-1.18586e-06
-0.000167645
-2.32049e-06
-0.000166018
-3.25608e-06
-0.000163791
-4.43422e-06
-0.000161126
-5.34247e-06
-0.000157751
-6.71717e-06
-0.000153912
-7.7092e-06
-0.000149276
-9.2725e-06
-0.000143959
-1.06361e-05
-0.000137841
-1.22368e-05
-0.000130916
-1.38532e-05
-0.000123274
-1.52686e-05
-0.000114736
-1.70764e-05
-0.000105421
-1.86374e-05
-9.5195e-05
-2.04449e-05
-8.41274e-05
-2.21275e-05
-7.21729e-05
-2.39077e-05
-5.94583e-05
-2.54228e-05
-4.57836e-05
-2.73571e-05
-3.11952e-05
-2.91644e-05
-1.58051e-05
-3.07757e-05
3.23116e-07
-3.22433e-05
1.70755e-05
-3.34884e-05
3.43437e-05
-3.45259e-05
5.18761e-05
-3.50531e-05
6.958e-05
-3.53888e-05
8.71295e-05
-3.50832e-05
0.000104367
-3.44554e-05
0.000120943
-3.31457e-05
0.000136652
-3.14062e-05
0.000151129
-2.89351e-05
0.000164148
-2.60238e-05
0.000175406
-2.2508e-05
0.00018468
-1.85288e-05
0.000191781
-1.41954e-05
0.000196542
-9.52591e-06
0.000198858
-4.62403e-06
0.000198726
2.60953e-07
0.000196105
5.22915e-06
0.000191021
1.01551e-05
0.000183616
1.48091e-05
0.000174102
1.90167e-05
0.000162623
2.29447e-05
0.000149463
2.63073e-05
0.000134846
2.92233e-05
0.000119036
3.1609e-05
0.000102326
3.33989e-05
8.49717e-05
3.46881e-05
6.72724e-05
3.53796e-05
4.94401e-05
3.56618e-05
3.17464e-05
3.53769e-05
1.42944e-05
3.48985e-05
-2.6664e-06
3.39034e-05
-1.9026e-05
3.27083e-05
-3.4698e-05
3.13369e-05
-4.96643e-05
2.99316e-05
-6.37657e-05
2.81981e-05
-7.70336e-05
2.65323e-05
-8.94052e-05
2.47416e-05
-0.000100946
2.30831e-05
-0.000111602
2.13078e-05
-0.000121411
1.96062e-05
-0.000130361
1.78962e-05
-0.000138544
1.63716e-05
-0.000145942
1.47975e-05
-0.000152548
1.32127e-05
-0.000158421
1.17426e-05
-0.000163498
1.01516e-05
-0.000167905
8.81102e-06
-0.000171608
7.40223e-06
-0.000174629
6.04377e-06
-0.000176985
4.71029e-06
-0.000178748
3.52329e-06
-0.000179822
2.15244e-06
-0.000180262
8.84501e-07
-0.000180032
-4.63187e-07
-0.000179146
-1.77531e-06
-0.000177564
-3.16245e-06
-0.000175302
-4.52644e-06
-0.000172344
-5.90541e-06
-0.000168659
-7.36934e-06
-0.00016433
-8.66286e-06
-0.000159225
-1.02153e-05
-0.000153337
-1.17722e-05
-0.000146668
-1.33275e-05
-0.000139293
-1.47521e-05
-0.000131112
-1.63631e-05
-0.000122094
-1.80325e-05
-0.000112185
-1.98377e-05
-0.000101459
-2.14279e-05
-8.97978e-05
-2.33223e-05
-7.73835e-05
-2.48201e-05
-6.40727e-05
-2.66207e-05
-4.99503e-05
-2.8234e-05
-3.50912e-05
-2.97111e-05
-1.96389e-05
-3.08988e-05
-3.62505e-06
-3.2025e-05
1.2844e-05
-3.29268e-05
2.96407e-05
-3.35802e-05
4.65702e-05
-3.38439e-05
6.34799e-05
-3.38037e-05
8.01374e-05
-3.32996e-05
9.63102e-05
-3.23358e-05
0.000111831
-3.10311e-05
0.000126416
-2.9158e-05
0.000139918
-2.69931e-05
0.000152033
-2.42123e-05
0.000162618
-2.11584e-05
0.000171409
-1.75845e-05
0.000178263
-1.36916e-05
0.000183062
-9.60247e-06
0.00018565
-5.17653e-06
0.00018604
-7.77498e-07
0.000184134
3.79974e-06
0.000180033
8.23316e-06
0.000173824
1.23788e-05
0.000165673
1.62932e-05
0.000155877
1.95832e-05
0.000144382
2.29845e-05
0.000131601
2.55528e-05
0.000117666
2.786e-05
0.000102785
2.97566e-05
8.72129e-05
3.11345e-05
7.11712e-05
3.20756e-05
5.48023e-05
3.27254e-05
3.83361e-05
3.29328e-05
2.19894e-05
3.26795e-05
5.8074e-06
3.2358e-05
-9.84477e-06
3.12936e-05
-2.50206e-05
3.0342e-05
-3.95489e-05
2.90508e-05
-5.33064e-05
2.75096e-05
-6.62855e-05
2.59543e-05
-7.83707e-05
2.41675e-05
-8.96351e-05
2.25292e-05
-9.99977e-05
2.07126e-05
-0.000109458
1.89276e-05
-0.000118126
1.73367e-05
-0.000125919
1.55833e-05
-0.000132888
1.39372e-05
-0.000139133
1.24918e-05
-0.000144606
1.09552e-05
-0.000149347
9.47332e-06
-0.000153432
8.16464e-06
-0.000156826
6.79117e-06
-0.000159631
5.60749e-06
-0.00016184
4.43023e-06
-0.000163404
3.12145e-06
-0.000164437
2.05715e-06
-0.000164913
9.63166e-07
-0.000164738
-3.5627e-07
-0.000164015
-1.4432e-06
-0.000162581
-2.86513e-06
-0.000160536
-4.09086e-06
-0.000157876
-5.32203e-06
-0.000154424
-6.89609e-06
-0.000150191
-8.47563e-06
-0.00014524
-9.9044e-06
-0.000139299
-1.18812e-05
-0.000132523
-1.35544e-05
-0.00012471
-1.56255e-05
-0.000115946
-1.75439e-05
-0.00010627
-1.93515e-05
-9.55305e-05
-2.1461e-05
-8.37871e-05
-2.34828e-05
-7.12574e-05
-2.50566e-05
-5.76259e-05
-2.72552e-05
-4.32043e-05
-2.88393e-05
-2.79859e-05
-3.04307e-05
-1.20567e-05
-3.18537e-05
4.20944e-06
-3.25257e-05
2.09305e-05
-3.34292e-05
3.79662e-05
-3.40616e-05
5.49593e-05
-3.39755e-05
7.19257e-05
-3.39219e-05
8.85753e-05
-3.32867e-05
0.000104676
-3.21924e-05
0.000120067
-3.07697e-05
0.000134552
-2.89617e-05
0.000147861
-2.66104e-05
0.000159901
-2.40619e-05
0.000170491
-2.11765e-05
0.000179412
-1.78409e-05
0.000186589
-1.43363e-05
0.000191894
-1.06116e-05
0.000195269
-6.75366e-06
0.000196633
-2.71733e-06
0.000195957
1.34158e-06
0.000193191
5.52188e-06
0.000188376
9.62656e-06
0.000181666
1.34171e-05
0.000173161
1.70017e-05
0.000162865
2.05829e-05
0.000151143
2.34343e-05
0.000137982
2.63123e-05
0.000123756
2.8443e-05
0.000108476
3.05491e-05
9.2306e-05
3.23296e-05
7.56597e-05
3.3283e-05
5.85279e-05
3.4254e-05
3.47035e-05
-0.000142911
1.08368e-05
-0.000145746
8.49538e-06
-0.000147879
6.39247e-06
-0.000149331
4.34644e-06
-0.000150107
2.3304e-06
-0.000150209
3.29925e-07
-0.000149562
-1.92853e-06
-0.000148267
-3.89141e-06
-0.000146342
-5.77109e-06
-0.000143636
-8.12163e-06
-0.000140278
-1.00962e-05
-0.000136115
-1.24747e-05
-0.000131206
-1.47364e-05
-0.000125464
-1.72335e-05
-0.000118886
-1.9742e-05
-0.000111404
-2.24744e-05
-0.000103209
-2.45485e-05
-9.40466e-05
-2.7486e-05
-8.38696e-05
-3.05216e-05
-7.27975e-05
-3.32379e-05
-6.06717e-05
-3.6385e-05
-4.7487e-05
-3.95723e-05
-3.35435e-05
-4.17586e-05
-1.84523e-05
-4.52987e-05
-2.59412e-06
-4.75543e-05
1.41303e-05
-5.01511e-05
3.16728e-05
-5.26027e-05
4.96603e-05
-5.39361e-05
6.82406e-05
-5.5698e-05
8.72096e-05
-5.68675e-05
0.000106207
-5.6955e-05
0.000125152
-5.67779e-05
0.000143747
-5.57487e-05
0.000161857
-5.42553e-05
0.000179102
-5.16861e-05
0.000195163
-4.8142e-05
0.000209857
-4.40191e-05
0.000222958
-3.92624e-05
0.00023419
-3.36676e-05
0.000243395
-2.75677e-05
0.000250314
-2.07375e-05
0.000254977
-1.3981e-05
0.000257168
-6.52801e-06
0.00025673
1.26146e-06
0.000253827
8.67623e-06
0.000248473
1.60698e-05
0.000240754
2.31416e-05
0.000230773
2.98983e-05
0.0002189
3.55852e-05
0.000205101
4.13186e-05
0.000189669
4.62727e-05
0.000173025
4.98883e-05
0.000155257
5.32389e-05
0.000136745
5.54953e-05
0.000117727
5.69881e-05
9.84809e-05
5.77138e-05
7.91008e-05
5.81501e-05
5.98802e-05
5.75428e-05
4.11636e-05
5.61009e-05
2.29384e-05
5.46903e-05
5.35206e-06
5.28152e-05
-1.14678e-05
5.03371e-05
-2.7428e-05
4.78485e-05
-4.24419e-05
4.50204e-05
-5.65341e-05
4.22681e-05
-6.96135e-05
3.92293e-05
-8.1631e-05
3.60366e-05
-9.27357e-05
3.33296e-05
-0.000102748
3.00363e-05
-0.000111845
2.73094e-05
-0.000120057
2.46275e-05
-0.0001273
2.17351e-05
-0.000133688
1.91484e-05
-0.000139212
1.65893e-05
-0.000143831
1.38719e-05
-0.000147708
1.16086e-05
-0.000150669
8.90837e-06
-0.000152905
6.67248e-06
-0.000154335
4.27159e-06
-0.000155035
2.14563e-06
-0.000154916
-3.66124e-07
-0.00015416
-2.24404e-06
-0.000152554
-4.84878e-06
-0.0001503
-6.749e-06
-0.000147221
-9.23424e-06
-0.000143496
-1.11737e-05
-0.000139097
-1.32098e-05
-0.000133984
-1.53514e-05
-0.000128158
-1.74934e-05
-0.000121684
-1.93872e-05
-0.000114546
-2.1443e-05
-0.000106709
-2.35269e-05
-9.81893e-05
-2.55754e-05
-8.89093e-05
-2.78535e-05
-7.88829e-05
-3.01009e-05
-6.80232e-05
-3.25705e-05
-5.63335e-05
-3.50649e-05
-4.38482e-05
-3.74507e-05
-3.05306e-05
-3.99433e-05
-1.64627e-05
-4.21939e-05
-1.66456e-06
-4.43963e-05
1.38458e-05
-4.65109e-05
2.99433e-05
-4.82419e-05
4.64943e-05
-4.96311e-05
6.34083e-05
-5.06969e-05
8.04898e-05
-5.11865e-05
9.75548e-05
-5.11513e-05
0.000114417
-5.05104e-05
0.000130805
-4.91365e-05
0.000146538
-4.71704e-05
0.000161395
-4.45058e-05
0.000175116
-4.11118e-05
0.000187482
-3.702e-05
0.000198188
-3.20988e-05
0.000207082
-2.66169e-05
0.000213927
-2.05141e-05
0.000218565
-1.38817e-05
0.000220864
-6.86355e-06
0.00022075
3.25054e-07
0.00021814
7.74089e-06
0.000213003
1.54396e-05
0.000205518
2.24206e-05
0.000195756
2.92563e-05
0.00018392
3.54564e-05
0.000170211
4.10541e-05
0.000154836
4.60902e-05
0.000138102
5.01481e-05
0.00012027
5.34472e-05
0.00010165
5.57848e-05
8.25312e-05
5.73042e-05
6.31188e-05
5.81815e-05
4.37601e-05
5.80141e-05
2.4646e-05
5.72805e-05
5.96369e-06
5.59518e-05
-1.20787e-05
5.41556e-05
-2.93031e-05
5.16486e-05
-4.56534e-05
4.90254e-05
-6.0975e-05
4.59422e-05
-7.52401e-05
4.28122e-05
-8.84786e-05
3.96831e-05
-0.000100552
3.61987e-05
-0.000111514
3.29039e-05
-0.00012131
2.93782e-05
-0.000129993
2.60467e-05
-0.000137542
2.26394e-05
-0.000144067
1.95925e-05
-0.000149646
1.67655e-05
-0.000154409
1.42967e-05
-0.00015838
1.18863e-05
-0.000161658
9.8879e-06
-0.000164309
7.92421e-06
-0.000166413
6.37239e-06
-0.000167979
4.64093e-06
-0.000169021
3.17687e-06
-0.000169522
1.48082e-06
-0.000169492
-4.84852e-08
-0.000168904
-1.77366e-06
-0.000167747
-3.47741e-06
-0.000166124
-4.88001e-06
-0.000163901
-6.65689e-06
-0.000161239
-8.00459e-06
-0.000157863
-1.00924e-05
-0.000154014
-1.15588e-05
-0.00014938
-1.39063e-05
-0.000144063
-1.59531e-05
-0.00013795
-1.83498e-05
-0.00013104
-2.07637e-05
-0.000123386
-2.29224e-05
-0.000114857
-2.56054e-05
-0.00010555
-2.79439e-05
-9.53234e-05
-3.06718e-05
-8.42422e-05
-3.32088e-05
-7.23289e-05
-3.5821e-05
-5.95768e-05
-3.81749e-05
-4.59107e-05
-4.10233e-05
-3.13243e-05
-4.37508e-05
-1.59213e-05
-4.61787e-05
2.21011e-07
-4.83857e-05
1.69882e-05
-5.02556e-05
3.42752e-05
-5.1813e-05
5.18207e-05
-5.25987e-05
6.95436e-05
-5.31118e-05
8.71292e-05
-5.26689e-05
0.000104373
-5.1699e-05
0.000120973
-4.97457e-05
0.000136707
-4.71403e-05
0.000151203
-4.34319e-05
0.000164256
-3.90766e-05
0.000175531
-3.37832e-05
0.000184818
-2.78155e-05
0.000191926
-2.13036e-05
0.000196704
-1.43036e-05
0.000199028
-6.94772e-06
0.000198882
4.06609e-07
0.00019624
7.87118e-06
0.000191142
1.52527e-05
0.000183738
2.22131e-05
0.000174207
2.85478e-05
0.000162711
3.44404e-05
0.000149524
3.94943e-05
0.00013488
4.38673e-05
0.000119054
4.74352e-05
0.000102321
5.01319e-05
8.49541e-05
5.20552e-05
6.72247e-05
5.31091e-05
4.9376e-05
5.35104e-05
3.16589e-05
5.3094e-05
1.42094e-05
5.2348e-05
-2.7595e-06
5.08723e-05
-1.91316e-05
4.90804e-05
-3.48169e-05
4.70221e-05
-4.97852e-05
4.48999e-05
-6.38916e-05
4.23046e-05
-7.71591e-05
3.97997e-05
-8.95365e-05
3.71191e-05
-0.000101079
3.46256e-05
-0.000111733
3.19621e-05
-0.000121536
2.94089e-05
-0.000130488
2.68485e-05
-0.000138663
2.45459e-05
-0.000146063
2.21984e-05
-0.000152674
1.98233e-05
-0.000158549
1.76175e-05
-0.000163614
1.52166e-05
-0.000168016
1.32126e-05
-0.000171719
1.11056e-05
-0.000174749
9.0736e-06
-0.00017713
7.09184e-06
-0.000178863
5.25558e-06
-0.000179941
3.23096e-06
-0.000180383
1.32655e-06
-0.000180137
-7.09835e-07
-0.000179265
-2.64732e-06
-0.000177677
-4.74965e-06
-0.000175409
-6.79527e-06
-0.000172451
-8.86294e-06
-0.000168795
-1.10253e-05
-0.000164425
-1.3033e-05
-0.000159327
-1.53136e-05
-0.00015345
-1.76492e-05
-0.000146782
-1.99953e-05
-0.000139401
-2.21333e-05
-0.000131232
-2.4532e-05
-0.000122218
-2.70458e-05
-0.000112331
-2.97255e-05
-0.000101579
-3.21791e-05
-8.99151e-05
-3.49866e-05
-7.75036e-05
-3.72316e-05
-6.41904e-05
-3.9934e-05
-5.0063e-05
-4.23615e-05
-3.52048e-05
-4.45692e-05
-1.97432e-05
-4.63605e-05
-3.71661e-06
-4.80516e-05
1.27737e-05
-4.94172e-05
2.95915e-05
-5.0398e-05
4.65304e-05
-5.07829e-05
6.34538e-05
-5.07271e-05
8.01294e-05
-4.99752e-05
9.63167e-05
-4.85231e-05
0.000111857
-4.65719e-05
0.000126463
-4.37633e-05
0.000139981
-4.0511e-05
0.000152135
-3.63667e-05
0.000162723
-3.17466e-05
0.000171526
-2.63877e-05
0.000178432
-2.05977e-05
0.000183195
-1.43657e-05
0.00018579
-7.77117e-06
0.000186183
-1.17077e-06
0.000184255
5.72727e-06
0.000180169
1.23192e-05
0.000173944
1.8604e-05
0.000165787
2.44503e-05
0.000155977
2.93931e-05
0.000144468
3.44928e-05
0.000131675
3.83455e-05
0.000117723
4.18122e-05
0.00010283
4.46495e-05
8.72397e-05
4.67251e-05
7.11901e-05
4.81251e-05
5.48035e-05
4.9112e-05
3.83388e-05
4.93975e-05
2.19622e-05
4.90561e-05
5.77611e-06
4.85441e-05
-9.89014e-06
4.69599e-05
-2.50791e-05
4.55309e-05
-3.96137e-05
4.35854e-05
-5.33797e-05
4.12755e-05
-6.63604e-05
3.8935e-05
-7.84467e-05
3.62538e-05
-8.97172e-05
3.37998e-05
-0.000100074
3.10691e-05
-0.000109531
2.83846e-05
-0.000118199
2.60047e-05
-0.000125993
2.3378e-05
-0.000132955
2.08985e-05
-0.000139198
1.8735e-05
-0.000144665
1.64224e-05
-0.000149413
1.4221e-05
-0.000153494
1.22464e-05
-0.000156885
1.01821e-05
-0.000159688
8.41054e-06
-0.000161894
6.63578e-06
-0.000163467
4.69407e-06
-0.000164509
3.09921e-06
-0.000164967
1.42155e-06
-0.000164793
-5.29929e-07
-0.000164068
-2.16879e-06
-0.000162631
-4.30236e-06
-0.000160588
-6.13306e-06
-0.000157933
-7.9773e-06
-0.000154479
-1.03506e-05
-0.000150253
-1.27009e-05
-0.00014531
-1.48477e-05
-0.000139369
-1.78219e-05
-0.000132599
-2.0325e-05
-0.000124785
-2.34392e-05
-0.000116032
-2.62973e-05
-0.000106358
-2.9025e-05
-9.56065e-05
-3.22128e-05
-8.38635e-05
-3.52259e-05
-7.13328e-05
-3.75873e-05
-5.76902e-05
-4.08978e-05
-4.32621e-05
-4.32675e-05
-2.80371e-05
-4.56558e-05
-1.21021e-05
-4.77886e-05
4.18689e-06
-4.88147e-05
2.09232e-05
-5.01656e-05
3.79749e-05
-5.11132e-05
5.49827e-05
-5.09833e-05
7.19672e-05
-5.09064e-05
8.8637e-05
-4.99565e-05
0.000104754
-4.83091e-05
0.000120161
-4.61769e-05
0.000134667
-4.34676e-05
0.000147999
-3.99424e-05
0.000160049
-3.61121e-05
0.000170657
-3.17842e-05
0.000179597
-2.67819e-05
0.000186773
-2.15115e-05
0.000192083
-1.5922e-05
0.000195472
-1.01422e-05
0.000196835
-4.08087e-06
0.00019613
2.04707e-06
0.000193345
8.30592e-06
0.000188522
1.44496e-05
0.000181813
2.01262e-05
0.000173288
2.5527e-05
0.000162983
3.08875e-05
0.000151246
3.51711e-05
0.000138074
3.94845e-05
0.000123833
4.26841e-05
0.000108538
4.58441e-05
9.23521e-05
4.85155e-05
7.56894e-05
4.99457e-05
5.85411e-05
5.14022e-05
5.20767e-05
-0.000143005
1.44562e-05
-0.000145847
1.13372e-05
-0.000147985
8.53054e-06
-0.000149439
5.8007e-06
-0.000150209
3.10048e-06
-0.000150294
4.15125e-07
-0.000149642
-2.58112e-06
-0.00014835
-5.18306e-06
-0.00014642
-7.70083e-06
-0.000143717
-1.08254e-05
-0.000140375
-1.34383e-05
-0.000136201
-1.66482e-05
-0.000131298
-1.96393e-05
-0.000125562
-2.29699e-05
-0.000118987
-2.63171e-05
-0.000111532
-2.9929e-05
-0.000103302
-3.27789e-05
-9.41446e-05
-3.66431e-05
-8.39744e-05
-4.06918e-05
-7.29022e-05
-4.43102e-05
-6.07823e-05
-4.8505e-05
-4.762e-05
-5.27347e-05
-3.36392e-05
-5.57394e-05
-1.85497e-05
-6.03883e-05
-2.67897e-06
-6.34251e-05
1.40654e-05
-6.68955e-05
3.16177e-05
-7.01551e-05
4.9625e-05
-7.19434e-05
6.82248e-05
-7.42978e-05
8.72198e-05
-7.58625e-05
0.000106237
-7.59719e-05
0.000125213
-7.57544e-05
0.000143835
-7.43702e-05
0.000161973
-7.23936e-05
0.000179261
-6.89745e-05
0.000195339
-6.42194e-05
0.000210063
-5.87437e-05
0.000223193
-5.2392e-05
0.000234448
-4.49229e-05
0.000243672
-3.67914e-05
0.000250607
-2.76727e-05
0.000255275
-1.86489e-05
0.000257473
-8.72624e-06
0.000257006
1.72837e-06
0.000254097
1.15849e-05
0.000248746
2.14214e-05
0.000241014
3.08728e-05
0.000231007
3.99059e-05
0.000219111
4.74807e-05
0.000205269
5.51607e-05
0.000189824
6.17182e-05
0.000173151
6.65609e-05
0.000155347
7.10426e-05
0.000136815
7.40274e-05
0.000117754
7.60495e-05
9.84928e-05
7.69748e-05
7.90805e-05
7.75623e-05
5.98321e-05
7.67912e-05
4.10871e-05
7.4846e-05
2.28701e-05
7.29073e-05
5.33143e-06
7.03539e-05
-1.15726e-05
6.72411e-05
-2.75474e-05
6.38232e-05
-4.25669e-05
6.00399e-05
-5.66632e-05
5.63645e-05
-6.97461e-05
5.23122e-05
-8.17674e-05
4.80579e-05
-9.28656e-05
4.44278e-05
-0.000102876
4.00466e-05
-0.000111985
3.6418e-05
-0.00012018
3.2823e-05
-0.000127414
2.8969e-05
-0.000133811
2.55455e-05
-0.000139331
2.2109e-05
-0.000143937
1.84775e-05
-0.000147829
1.55014e-05
-0.000150775
1.18545e-05
-0.000153026
8.92324e-06
-0.000154474
5.71894e-06
-0.000155148
2.81962e-06
-0.000155031
-4.82373e-07
-0.000154264
-3.01155e-06
-0.000152665
-6.44771e-06
-0.00015041
-9.00473e-06
-0.000147335
-1.23088e-05
-0.000143605
-1.49042e-05
-0.000139215
-1.76001e-05
-0.000134114
-2.04521e-05
-0.000128295
-2.33123e-05
-0.000121793
-2.58892e-05
-0.00011467
-2.85662e-05
-0.000106853
-3.13443e-05
-9.83433e-05
-3.40849e-05
-8.90704e-05
-3.71265e-05
-7.90482e-05
-4.01232e-05
-6.81927e-05
-4.3426e-05
-5.65106e-05
-4.6747e-05
-4.40114e-05
-4.99499e-05
-3.06839e-05
-5.32708e-05
-1.66178e-05
-5.626e-05
-1.81815e-06
-5.9196e-05
1.37102e-05