/*--------------------------------*- C++ -*----------------------------------*\
| =========                 |                                                 |
| \\      /  F ield         | OpenFOAM: The Open Source CFD Toolbox           |
|  \\    /   O peration     | Version:  3.0.1                                 |
|   \\  /    A nd           | Web:      www.OpenFOAM.org                      |
|    \\/     M anipulation  |                                                 |
\*---------------------------------------------------------------------------*/
FoamFile
{
    version     2.0;
    format      ascii;
    class       volScalarField;
    location    "85.4";
    object      p;
}
// * * * * * * * * * * * * * * * * * * * * * * * * * * * * * * * * * * * * * //

dimensions      [1 -1 -2 0 0 0 0];

internalField   nonuniform List<scalar> 
21420
(
3610.35
3626.72
3644.94
3665.01
3686.9
3710.6
3736.06
3763.21
3791.93
3822.12
3853.56
3885.9
3919.28
3953.2
3987.34
4021.34
4054.8
4087.36
4118.61
4148.1
4175.47
4200.3
4222.19
4240.82
4255.91
4267.2
4274.54
4277.75
4276.62
4271.37
4262.15
4249.03
4232.21
4211.97
4188.59
4162.4
4133.8
4103.18
4070.93
4037.48
4003.21
3968.5
3933.63
3898.95
3871.24
3838.63
3807.2
3777.19
3748.74
3721.96
3696.92
3673.66
3652.2
3632.54
3614.68
3598.58
3584.2
3571.51
3560.45
3550.98
3543.06
3536.64
3531.7
3528.2
3526.17
3525.74
3526.74
3529.2
3533.15
3538.61
3545.63
3554.24
3564.5
3576.46
3590.15
3605.62
3622.88
3641.92
3662.74
3685.29
3709.53
3735.38
3762.74
3791.49
3821.51
3852.65
3884.63
3917.24
3950.2
3983.24
4016.01
4048.16
4079.3
4109.06
4137.04
4162.89
4186.24
4206.77
4224.18
4238.22
4248.67
4255.38
4258.17
4257.08
4252.03
4243.11
4230.36
4213.94
4194.07
4170.99
4145.01
4116.47
4085.76
4053.31
4019.55
3984.92
3949.86
3914.79
3880.1
3846.22
3813.32
3781.75
3751.71
3723.38
3696.89
3672.32
3649.73
3629.14
3610.54
3593.92
3579.23
3566.43
3555.46
3546.26
3538.75
3532.86
3528.5
3525.63
3524.19
3524.05
3525.21
3527.61
3531.23
3536.04
3542.06
3549.29
3557.76
3567.49
3578.55
3590.96
3604.78
3620.05
3636.82
3655.12
3674.98
3696.4
3719.37
3743.86
3769.81
3797.13
3825.71
3855.43
3886.02
3917.29
3948.98
3980.81
4012.46
4043.57
4073.76
4102.64
4129.79
4154.8
4177.27
4196.79
4213
4225.6
4234.32
4238.93
4239.31
4235.46
4227.42
4215.24
4199.14
4179.38
4156.29
4130.25
4101.67
4071
4038.71
4005.28
3971.18
3936.87
3902.77
3869.26
3836.7
3805.35
3775.43
3747.13
3720.57
3695.85
3673.02
3652.08
3633.04
3615.84
3600.44
3586.75
3574.69
3564.18
3555.13
3547.49
3541.17
3536.12
3532.28
3529.62
3528.13
3527.78
3528.55
3530.44
3533.47
3537.65
3543
3549.56
3557.37
3566.45
3576.86
3588.65
3601.86
3616.53
3632.73
3650.48
3669.81
3690.74
3713.28
3737.4
3763.06
3790.18
3818.64
3848.32
3878.99
3910.41
3942.31
3974.38
4006.27
4037.62
4068.04
4097.09
4124.38
4149.46
4171.94
4191.42
4207.56
4220.05
4228.64
4233.09
4233.37
4229.39
4221.21
4208.94
4192.8
4173.07
4150.1
4124.3
4096.09
4065.96
4034.37
4001.8
3968.72
3935.55
3902.76
3870.62
3839.38
3809.32
3780.67
3753.59
3728.21
3704.6
3682.79
3662.77
3644.52
3627.98
3613.1
3599.79
3587.98
3577.57
3568.5
3560.7
3554.16
3548.87
3544.8
3541.94
3540.46
3540.19
3541.18
3543.5
3547.21
3552.39
3559.12
3567.47
3577.54
3589.44
3603.26
3619.08
3636.97
3656.93
3678.95
3702.98
3728.95
3756.71
3786.11
3816.89
3851.68
3885.25
3919.55
3954.23
3988.99
4023.39
4057.02
4089.45
4120.24
4148.99
4175.31
4198.8
4219.14
4236.04
4249.26
4258.6
4263.92
4265.1
4262.34
4255.53
4244.74
4230.19
4212.11
4190.77
4166.49
4139.63
4110.56
4079.67
4047.38
4014.1
3980.2
3946.06
3912.02
3878.47
3851.75
3820.12
3789.67
3760.68
3733.29
3707.58
3683.61
3661.43
3641.03
3622.42
3605.59
3590.47
3577.01
3512.18
3528.54
3546.76
3566.83
3588.72
3612.41
3637.88
3665.03
3693.75
3723.94
3755.4
3787.75
3821.13
3855.06
3889.22
3923.23
3956.71
3989.29
4020.55
4050.07
4077.45
4102.3
4124.21
4142.85
4157.95
4169.25
4176.6
4179.82
4178.68
4173.43
4164.2
4151.07
4134.24
4113.98
4090.58
4064.37
4035.76
4005.11
3972.85
3939.38
3905.1
3870.38
3835.5
3800.8
3773.07
3740.45
3709.02
3679.01
3650.56
3623.78
3598.74
3575.47
3554.02
3534.37
3516.51
3500.41
3486.03
3473.34
3462.28
3452.82
3444.9
3438.48
3433.54
3430.05
3428.02
3427.59
3428.58
3431.04
3434.99
3440.44
3447.46
3456.08
3466.33
3478.29
3491.98
3507.44
3524.7
3543.74
3564.56
3587.11
3611.35
3637.2
3664.56
3693.32
3723.34
3754.49
3786.48
3819.09
3852.07
3885.12
3917.9
3950.07
3981.23
4011
4039.01
4064.87
4088.23
4108.78
4126.2
4140.25
4150.71
4157.43
4160.22
4159.12
4154.08
4145.15
4132.39
4115.96
4096.08
4072.98
4046.98
4018.42
3987.7
3955.23
3921.45
3886.8
3851.73
3816.64
3781.94
3748.05
3715.15
3683.56
3653.52
3625.19
3598.7
3574.13
3551.54
3530.95
3512.35
3495.73
3481.05
3468.25
3457.29
3448.09
3440.58
3434.69
3430.34
3427.47
3426.03
3425.9
3427.06
3429.46
3433.08
3437.89
3443.9
3451.13
3459.6
3469.33
3480.38
3492.79
3506.61
3521.88
3538.65
3556.95
3576.8
3598.22
3621.19
3645.68
3671.63
3698.96
3727.54
3757.27
3787.87
3819.14
3850.85
3882.69
3914.35
3945.48
3975.69
4004.58
4031.75
4056.79
4079.27
4098.8
4115.04
4127.64
4136.37
4141
4141.37
4137.51
4129.47
4117.28
4101.17
4081.4
4058.29
4032.23
4003.62
3972.94
3940.63
3907.18
3873.06
3838.73
3804.61
3771.1
3738.53
3707.17
3677.25
3648.94
3622.38
3597.66
3574.83
3553.9
3534.86
3517.66
3502.26
3488.58
3476.52
3466.01
3456.97
3449.33
3443.01
3437.96
3434.13
3431.47
3429.98
3429.63
3430.4
3432.29
3435.32
3439.49
3444.85
3451.41
3459.21
3468.29
3478.7
3490.49
3503.69
3518.37
3534.56
3552.3
3571.63
3592.56
3615.1
3639.23
3664.89
3692.01
3720.47
3750.16
3780.84
3812.27
3844.18
3876.26
3908.17
3939.54
3969.97
3999.04
4026.34
4051.45
4073.94
4093.44
4109.59
4122.1
4130.7
4135.16
4135.43
4131.45
4123.27
4110.99
4094.83
4075.08
4052.1
4026.27
3998.04
3967.89
3936.29
3903.7
3870.59
3837.41
3804.62
3772.46
3741.22
3711.15
3682.49
3655.42
3630.03
3606.42
3584.61
3564.6
3546.35
3529.82
3514.93
3501.63
3489.82
3479.42
3470.35
3462.55
3456.01
3450.72
3446.65
3443.79
3442.31
3442.04
3443.02
3445.34
3449.05
3454.22
3460.94
3469.3
3479.36
3491.26
3505.08
3520.89
3538.78
3558.74
3580.76
3604.79
3630.77
3658.53
3687.93
3718.73
3753.5
3787.09
3821.4
3856.1
3890.88
3925.29
3958.94
3991.39
4022.19
4050.97
4077.3
4100.81
4121.17
4138.08
4151.31
4160.66
4165.98
4167.17
4164.4
4157.58
4146.78
4132.23
4114.13
4092.77
4068.48
4041.6
4012.51
3981.6
3949.29
3916
3882.08
3847.93
3813.89
3780.32
3753.58
3721.94
3691.49
3662.5
3635.11
3609.4
3585.43
3563.25
3542.85
3524.24
3507.42
3492.3
3478.84
3413.93
3430.29
3448.5
3468.57
3490.45
3514.15
3539.62
3566.77
3595.5
3625.7
3657.16
3689.53
3722.94
3756.89
3791.07
3825.12
3858.62
3891.24
3922.54
3952.09
3979.52
4004.4
4026.34
4045.02
4060.14
4071.46
4078.82
4082.07
4080.89
4075.64
4066.4
4053.24
4036.39
4016.1
3992.67
3966.42
3937.77
3907.09
3874.79
3841.29
3806.98
3772.23
3737.33
3702.61
3674.84
3642.2
3610.76
3580.75
3552.3
3525.51
3500.47
3477.21
3455.76
3436.11
3418.26
3402.16
3387.79
3375.1
3364.05
3354.59
3346.68
3340.26
3335.33
3331.83
3329.8
3329.37
3330.37
3332.82
3336.77
3342.22
3349.23
3357.84
3368.09
3380.04
3393.73
3409.19
3426.44
3445.48
3466.3
3488.85
3513.09
3538.95
3566.32
3595.09
3625.11
3656.27
3688.28
3720.91
3753.91
3786.98
3819.8
3851.99
3883.18
3912.99
3941.03
3966.93
3990.32
4010.9
4028.35
4042.42
4052.9
4059.63
4062.44
4061.32
4056.27
4047.34
4034.56
4018.11
3998.2
3975.07
3949.04
3920.44
3889.68
3857.17
3823.35
3788.67
3753.56
3718.45
3683.72
3649.82
3616.89
3585.3
3555.25
3526.91
3500.41
3475.84
3453.26
3432.67
3414.08
3397.47
3382.79
3370
3359.04
3349.84
3342.34
3336.46
3332.12
3329.26
3327.82
3327.69
3328.85
3331.26
3334.88
3339.69
3345.7
3352.93
3361.39
3371.12
3382.17
3394.57
3408.38
3423.65
3440.41
3458.71
3478.56
3499.97
3522.94
3547.44
3573.39
3600.72
3629.31
3659.05
3689.66
3720.96
3752.69
3784.56
3816.24
3847.4
3877.64
3906.58
3933.78
3958.85
3981.37
4000.94
4017.21
4029.84
4038.58
4043.24
4043.6
4039.74
4031.68
4019.47
4003.33
3983.53
3960.38
3934.28
3905.64
3874.91
3842.56
3809.07
3774.92
3740.55
3706.41
3672.87
3640.29
3608.91
3578.98
3550.67
3524.11
3499.39
3476.55
3455.63
3436.59
3419.41
3404.02
3390.34
3378.29
3367.79
3358.76
3351.12
3344.81
3339.76
3335.93
3333.28
3331.79
3331.44
3332.2
3334.09
3337.12
3341.3
3346.65
3353.21
3361
3370.08
3380.48
3392.26
3405.46
3420.13
3436.32
3454.06
3473.39
3494.32
3516.85
3540.98
3566.64
3593.77
3622.24
3651.94
3682.64
3714.08
3746.02
3778.12
3810.07
3841.47
3871.93
3901.04
3928.38
3953.52
3976.05
3995.59
4011.77
4024.29
4032.91
4037.4
4037.65
4033.67
4025.48
4013.17
3996.99
3977.21
3954.18
3928.31
3900.05
3869.86
3838.21
3805.58
3772.45
3739.24
3706.42
3674.25
3642.98
3612.91
3584.24
3557.16
3531.78
3508.16
3486.36
3466.35
3448.11
3431.58
3416.7
3403.41
3391.61
3381.21
3372.15
3364.35
3357.81
3352.52
3348.45
3345.59
3344.11
3343.83
3344.81
3347.12
3350.82
3355.99
3362.7
3371.05
3381.11
3393
3406.81
3422.62
3440.5
3460.46
3482.48
3506.51
3532.49
3560.27
3589.69
3620.52
3655.23
3688.86
3723.21
3757.94
3792.75
3827.19
3860.88
3893.37
3924.21
3953.02
3979.39
4002.93
4023.32
4040.26
4053.51
4062.87
4068.2
4069.4
4066.6
4059.78
4048.96
4034.39
4016.26
3994.88
3970.55
3943.63
3914.51
3883.56
3851.22
3817.89
3783.95
3749.78
3715.71
3682.12
3655.35
3623.69
3593.24
3564.24
3536.85
3511.14
3487.17
3464.99
3444.59
3425.99
3409.17
3394.06
3380.61
3315.6
3331.96
3350.17
3370.22
3392.1
3415.8
3441.27
3468.43
3497.17
3527.38
3558.87
3591.26
3624.69
3658.68
3692.9
3726.99
3760.55
3793.22
3824.57
3854.18
3881.66
3906.6
3928.59
3947.31
3962.47
3973.82
3981.19
3984.47
3983.28
3978.01
3968.74
3955.55
3938.66
3918.33
3894.85
3868.55
3839.84
3809.11
3776.75
3743.2
3708.85
3674.06
3639.13
3604.38
3576.53
3543.87
3512.42
3482.4
3453.95
3427.16
3402.12
3378.87
3357.42
3337.78
3319.93
3303.84
3289.48
3276.8
3265.76
3256.3
3248.39
3241.99
3237.06
3233.56
3231.53
3231.1
3232.09
3234.55
3238.49
3243.93
3250.94
3259.54
3269.78
3281.72
3295.41
3310.86
3328.11
3347.15
3367.96
3390.52
3414.76
3440.62
3468
3496.78
3526.82
3558
3590.03
3622.69
3655.72
3688.83
3721.69
3753.92
3785.17
3815.03
3843.12
3869.07
3892.51
3913.13
3930.62
3944.73
3955.23
3961.97
3964.82
3963.67
3958.62
3949.67
3936.87
3920.39
3900.43
3877.26
3851.17
3822.52
3791.7
3759.13
3725.26
3690.53
3655.37
3620.22
3585.44
3551.51
3518.56
3486.95
3456.88
3428.54
3402.04
3377.47
3354.89
3334.31
3315.72
3299.12
3284.45
3271.67
3260.72
3251.54
3244.05
3238.17
3233.84
3230.99
3229.55
3229.43
3230.6
3233.01
3236.63
3241.44
3247.45
3254.67
3263.13
3272.85
3283.89
3296.29
3310.09
3325.35
3342.11
3360.4
3380.24
3401.65
3424.62
3449.12
3475.08
3502.42
3531.02
3560.78
3591.41
3622.74
3654.5
3686.4
3718.13
3749.34
3779.63
3808.62
3835.88
3861.01
3883.58
3903.2
3919.51
3932.19
3940.96
3945.63
3946
3942.12
3934.05
3921.81
3905.63
3885.78
3862.58
3836.41
3807.71
3776.92
3744.51
3710.96
3676.75
3642.34
3608.16
3574.58
3541.97
3510.57
3480.63
3452.31
3425.75
3401.03
3378.2
3357.28
3338.25
3321.08
3305.7
3292.03
3280
3269.51
3260.49
3252.85
3246.55
3241.51
3237.68
3235.03
3233.56
3233.2
3233.97
3235.86
3238.88
3243.05
3248.4
3254.95
3262.74
3271.81
3282.21
3293.98
3307.17
3321.84
3338.01
3355.75
3375.07
3396
3418.53
3442.66
3468.32
3495.46
3523.95
3553.66
3584.38
3615.86
3647.83
3679.98
3711.96
3743.41
3773.93
3803.1
3830.49
3855.69
3878.27
3897.86
3914.08
3926.65
3935.29
3939.8
3940.04
3936.05
3927.84
3915.51
3899.28
3879.45
3856.36
3830.43
3802.11
3771.85
3740.15
3707.47
3674.28
3641.03
3608.17
3575.97
3544.68
3514.59
3485.91
3458.82
3433.44
3409.83
3388.03
3368.03
3349.79
3333.28
3318.41
3305.13
3293.34
3282.95
3273.89
3266.11
3259.57
3254.27
3250.2
3247.35
3245.86
3245.57
3246.54
3248.84
3252.53
3257.69
3264.39
3272.72
3282.77
3294.65
3308.46
3324.26
3342.13
3362.09
3384.11
3408.14
3434.14
3461.92
3491.37
3522.25
3556.89
3590.58
3624.97
3659.75
3694.6
3729.1
3762.84
3795.39
3826.28
3855.15
3881.57
3905.16
3925.6
3942.58
3955.86
3965.24
3970.58
3971.8
3968.97
3962.13
3951.29
3936.68
3918.51
3897.08
3872.7
3845.73
3816.55
3785.55
3753.16
3719.79
3685.8
3651.59
3617.49
3583.87
3557.06
3525.37
3494.9
3465.9
3438.5
3412.79
3388.83
3366.65
3346.26
3327.67
3310.85
3295.75
3282.3
3217.2
3233.55
3251.75
3271.8
3293.68
3317.37
3342.85
3370.01
3398.77
3429
3460.5
3492.93
3526.4
3560.43
3594.71
3628.86
3662.48
3695.22
3726.65
3756.33
3783.89
3808.9
3830.96
3849.74
3864.95
3876.33
3883.73
3887.02
3885.83
3880.53
3871.23
3858
3841.06
3820.67
3797.12
3770.75
3741.97
3711.16
3678.73
3645.12
3610.71
3575.87
3540.91
3506.12
3478.14
3445.46
3414
3383.98
3355.51
3328.73
3303.69
3280.44
3259
3239.36
3221.53
3205.45
3191.1
3178.43
3167.4
3157.95
3150.05
3143.65
3138.73
3135.23
3133.2
3132.77
3133.77
3136.22
3140.15
3145.59
3152.58
3161.17
3171.41
3183.34
3197.01
3212.45
3229.7
3248.73
3269.54
3292.1
3316.35
3342.22
3369.61
3398.4
3428.46
3459.66
3491.73
3524.43
3557.5
3590.66
3623.57
3655.87
3687.18
3717.11
3745.27
3771.29
3794.8
3815.48
3833.02
3847.17
3857.71
3864.47
3867.33
3866.19
3861.13
3852.14
3839.31
3822.79
3802.78
3779.54
3753.38
3724.66
3693.76
3661.12
3627.17
3592.37
3557.15
3521.94
3487.12
3453.13
3420.15
3388.52
3358.44
3330.08
3303.58
3279.01
3256.43
3235.86
3217.28
3200.69
3186.04
3173.27
3162.33
3153.16
3145.68
3139.82
3135.5
3132.67
3131.23
3131.13
3132.3
3134.71
3138.33
3143.14
3149.15
3156.37
3164.81
3174.53
3185.56
3197.95
3211.74
3226.99
3243.74
3262.02
3281.86
3303.26
3326.23
3350.73
3376.7
3404.05
3432.67
3462.45
3493.12
3524.47
3556.27
3588.23
3620.02
3651.28
3681.65
3710.71
3738.05
3763.25
3785.89
3805.59
3821.96
3834.68
3843.49
3848.18
3848.57
3844.68
3836.58
3824.3
3808.06
3788.14
3764.87
3738.63
3709.84
3678.96
3646.47
3612.85
3578.57
3544.1
3509.85
3476.24
3443.58
3412.16
3382.2
3353.86
3327.3
3302.58
3279.75
3258.84
3239.83
3222.67
3207.31
3193.66
3181.64
3171.17
3162.16
3154.54
3148.24
3143.21
3139.39
3136.75
3135.27
3134.92
3135.68
3137.57
3140.59
3144.76
3150.1
3156.65
3164.43
3173.49
3183.88
3195.64
3208.82
3223.47
3239.64
3257.37
3276.68
3297.6
3320.14
3344.26
3369.94
3397.08
3425.59
3455.33
3486.08
3517.6
3549.61
3581.81
3613.86
3645.37
3675.96
3705.2
3732.68
3757.95
3780.6
3800.25
3816.54
3829.15
3837.83
3842.37
3842.61
3838.61
3830.36
3817.98
3801.7
3781.8
3758.64
3732.63
3704.22
3673.88
3642.09
3609.34
3576.09
3542.78
3509.88
3477.64
3446.32
3416.2
3387.5
3360.41
3335.02
3311.41
3289.62
3269.63
3251.41
3234.91
3220.06
3206.79
3195.01
3184.64
3175.59
3167.81
3161.27
3155.98
3151.9
3149.05
3147.56
3147.26
3148.21
3150.5
3154.18
3159.32
3166.01
3174.33
3184.36
3196.23
3210.02
3225.81
3243.68
3263.63
3285.65
3309.69
3335.69
3363.5
3392.98
3423.92
3458.46
3492.23
3526.69
3561.52
3596.44
3631.01
3664.83
3697.44
3728.42
3757.36
3783.85
3807.51
3828
3845.04
3858.36
3867.76
3873.12
3874.35
3871.5
3864.63
3853.76
3839.11
3820.88
3799.39
3774.94
3747.89
3718.64
3687.57
3655.11
3621.68
3587.64
3553.38
3519.24
3485.57
3458.7
3426.97
3396.49
3367.48
3340.08
3314.37
3290.41
3268.23
3247.85
3229.26
3212.45
3197.36
3183.92
3118.73
3135.06
3153.25
3173.29
3195.16
3218.86
3244.34
3271.51
3300.28
3330.54
3362.07
3394.55
3428.06
3462.15
3496.49
3530.72
3564.42
3597.24
3628.76
3658.54
3686.2
3711.3
3733.45
3752.3
3767.57
3779
3786.42
3789.72
3788.54
3783.22
3773.87
3760.59
3743.59
3723.12
3699.48
3673.02
3644.15
3613.25
3580.74
3547.04
3512.55
3477.65
3442.64
3407.82
3379.68
3346.97
3315.5
3285.47
3257
3230.21
3205.17
3181.93
3160.5
3140.87
3123.05
3106.99
3092.65
3080
3068.98
3059.54
3051.65
3045.26
3040.34
3036.85
3034.81
3034.39
3035.38
3037.83
3041.75
3047.18
3054.16
3062.74
3072.96
3084.88
3098.54
3113.97
3131.21
3150.23
3171.05
3193.61
3217.86
3243.74
3271.14
3299.96
3330.04
3361.27
3393.37
3426.12
3459.25
3492.47
3525.45
3557.83
3589.22
3619.24
3647.49
3673.59
3697.19
3717.94
3735.55
3749.76
3760.34
3767.13
3770
3768.86
3763.79
3754.77
3741.89
3725.31
3705.24
3681.92
3655.68
3626.86
3595.87
3563.13
3529.09
3494.19
3458.89
3423.61
3388.74
3354.69
3321.67
3290.01
3259.9
3231.54
3205.03
3180.46
3157.88
3137.32
3118.76
3102.18
3087.54
3074.79
3063.87
3054.72
3047.25
3041.41
3037.11
3034.29
3032.86
3032.77
3033.95
3036.36
3039.99
3044.8
3050.8
3058.01
3066.45
3076.15
3087.17
3099.55
3113.33
3128.56
3145.3
3163.57
3183.4
3204.8
3227.77
3252.27
3278.25
3305.61
3334.25
3364.07
3394.77
3426.17
3458.02
3490.04
3521.9
3553.24
3583.69
3612.84
3640.28
3665.57
3688.31
3708.09
3724.54
3737.33
3746.18
3750.9
3751.31
3747.41
3739.26
3726.93
3710.63
3690.63
3667.26
3640.92
3612.03
3581.05
3548.45
3514.73
3480.37
3445.81
3411.5
3377.83
3345.13
3313.67
3283.68
3255.34
3228.76
3204.04
3181.22
3160.33
3141.33
3124.19
3108.85
3095.22
3083.22
3072.76
3063.77
3056.17
3049.89
3044.87
3041.06
3038.42
3036.95
3036.59
3037.36
3039.24
3042.26
3046.42
3051.76
3058.29
3066.07
3075.12
3085.49
3097.24
3110.41
3125.05
3141.2
3158.92
3178.22
3199.14
3221.67
3245.79
3271.48
3298.64
3327.17
3356.93
3387.73
3419.29
3451.37
3483.63
3515.75
3547.35
3578.03
3607.36
3634.93
3660.29
3683.04
3702.78
3719.14
3731.81
3740.53
3745.09
3745.35
3741.33
3733.04
3720.61
3704.25
3684.26
3661
3634.89
3606.38
3575.94
3544.05
3511.21
3477.87
3444.49
3411.54
3379.25
3347.89
3317.74
3289.02
3261.91
3236.52
3212.92
3191.13
3171.16
3152.95
3136.47
3121.64
3108.39
3096.63
3086.27
3077.23
3069.46
3062.93
3057.63
3053.56
3050.71
3049.21
3048.89
3049.83
3052.1
3055.77
3060.89
3067.55
3075.85
3085.87
3097.72
3111.49
3127.28
3145.13
3165.08
3187.1
3211.14
3237.16
3264.99
3294.51
3325.52
3359.96
3393.82
3428.36
3463.27
3498.27
3532.92
3566.83
3599.54
3630.61
3659.64
3686.23
3709.97
3730.54
3747.63
3761
3770.45
3775.83
3777.06
3774.19
3767.29
3756.38
3741.66
3723.37
3701.79
3677.26
3650.12
3620.78
3589.62
3557.08
3523.56
3489.45
3455.14
3420.95
3387.22
3360.26
3328.49
3297.99
3268.97
3241.57
3215.86
3191.9
3169.73
3149.36
3130.78
3113.99
3098.91
3085.48
3020.18
3036.5
3054.67
3074.7
3096.57
3120.26
3145.75
3172.93
3201.72
3232
3263.57
3296.1
3329.67
3363.82
3398.25
3432.56
3466.37
3499.29
3530.93
3560.82
3588.59
3613.8
3636.05
3655
3670.33
3681.82
3689.28
3692.59
3691.41
3686.07
3676.66
3663.32
3646.24
3625.68
3601.94
3575.37
3546.39
3515.38
3482.76
3448.96
3414.39
3379.41
3344.35
3309.49
3281.12
3248.4
3216.92
3186.88
3158.4
3131.61
3106.58
3083.34
3061.91
3042.31
3024.5
3008.45
2994.13
2981.49
2970.49
2961.07
2953.19
2946.81
2941.9
2938.42
2936.37
2935.95
2936.94
2939.38
2943.29
2948.7
2955.67
2964.24
2974.44
2986.34
2999.99
3015.41
3032.64
3051.66
3072.47
3095.03
3119.3
3145.18
3172.61
3201.44
3231.56
3262.82
3294.97
3327.77
3360.97
3394.27
3427.33
3459.8
3491.29
3521.41
3549.77
3575.97
3599.67
3620.51
3638.21
3652.48
3663.11
3669.93
3672.82
3671.69
3666.6
3657.54
3644.61
3627.97
3607.81
3584.4
3558.05
3529.12
3498.01
3465.16
3431.01
3396.01
3360.61
3325.24
3290.3
3256.18
3223.11
3191.41
3161.28
3132.9
3106.39
3081.82
3059.25
3038.7
3020.15
3003.59
2988.97
2976.24
2965.34
2956.2
2948.76
2942.94
2938.66
2935.85
2934.44
2934.36
2935.55
2937.97
2941.59
2946.41
2952.4
2959.6
2968.03
2977.73
2988.73
3001.09
3014.85
3030.07
3046.79
3065.05
3084.87
3106.27
3129.23
3153.74
3179.72
3207.11
3235.77
3265.63
3296.37
3327.83
3359.75
3391.84
3423.78
3455.22
3485.77
3515.03
3542.58
3567.99
3590.84
3610.72
3627.26
3640.13
3649.04
3653.79
3654.21
3650.3
3642.11
3629.72
3613.33
3593.23
3569.75
3543.29
3514.28
3483.17
3450.45
3416.62
3382.14
3347.49
3313.1
3279.35
3246.6
3215.1
3185.08
3156.72
3130.14
3105.42
3082.61
3061.73
3042.75
3025.63
3010.31
2996.71
2984.74
2974.3
2965.33
2957.75
2951.48
2946.47
2942.67
2940.05
2938.57
2938.22
2938.99
2940.87
2943.88
2948.04
2953.36
2959.89
2967.65
2976.69
2987.05
2998.78
3011.94
3026.56
3042.7
3060.4
3079.69
3100.6
3123.12
3147.25
3172.95
3200.12
3228.68
3258.48
3289.33
3320.95
3353.09
3385.44
3417.65
3449.35
3480.13
3509.57
3537.25
3562.73
3585.59
3605.42
3621.87
3634.61
3643.39
3647.98
3648.25
3644.21
3635.88
3623.38
3606.93
3586.84
3563.47
3537.23
3508.59
3478.03
3446.03
3413.07
3379.63
3346.16
3313.15
3280.8
3249.39
3219.2
3190.46
3163.34
3137.94
3114.35
3092.57
3072.61
3054.42
3037.96
3023.15
3009.92
2998.19
2987.85
2978.83
2971.06
2964.54
2959.24
2955.16
2952.32
2950.8
2950.47
2951.39
2953.64
2957.29
2962.38
2969.03
2977.3
2987.3
2999.13
3012.89
3028.65
3046.5
3066.44
3088.46
3112.51
3138.54
3166.4
3195.96
3227.06
3261.39
3295.35
3329.98
3364.98
3400.08
3434.83
3468.85
3501.67
3532.85
3562
3588.7
3612.54
3633.2
3650.37
3663.8
3673.29
3678.69
3679.92
3677.04
3670.1
3659.14
3644.35
3625.97
3604.3
3579.66
3552.42
3522.97
3491.7
3459.06
3425.45
3391.25
3356.86
3322.61
3288.82
3261.76
3229.94
3199.42
3170.39
3142.98
3117.27
3093.32
3071.16
3050.79
3032.23
3015.44
3000.38
2986.97
2921.56
2937.86
2956.02
2976.03
2997.89
3021.58
3047.07
3074.27
3103.09
3133.4
3165
3197.6
3231.23
3265.46
3299.98
3334.4
3368.32
3401.37
3433.13
3463.16
3491.06
3516.41
3538.77
3557.82
3573.25
3584.8
3592.3
3595.61
3594.44
3589.07
3579.61
3566.19
3549.01
3528.34
3504.49
3477.8
3448.69
3417.55
3384.8
3350.89
3316.21
3281.15
3246.02
3211.15
3182.47
3149.75
3118.26
3088.2
3059.72
3032.92
3007.89
2984.66
2963.25
2943.66
2925.87
2909.84
2895.54
2882.92
2871.93
2862.53
2854.66
2848.3
2843.39
2839.92
2837.87
2837.45
2838.44
2840.87
2844.78
2850.17
2857.12
2865.67
2875.85
2887.74
2901.37
2916.78
2933.99
2953
2973.81
2996.38
3020.65
3046.55
3073.99
3102.86
3133.01
3164.31
3196.52
3229.39
3262.66
3296.04
3329.2
3361.78
3393.39
3423.63
3452.11
3478.44
3502.25
3523.2
3540.99
3555.34
3566.03
3572.89
3575.8
3574.68
3569.56
3560.46
3547.47
3530.75
3510.5
3486.97
3460.5
3431.44
3400.2
3367.21
3332.93
3297.81
3262.3
3226.83
3191.8
3157.6
3124.48
3092.73
3062.58
3034.18
3007.65
2983.09
2960.53
2939.99
2921.46
2904.92
2890.32
2877.61
2866.74
2857.62
2850.21
2844.41
2840.15
2837.36
2835.97
2835.9
2837.1
2839.53
2843.16
2847.97
2853.96
2861.15
2869.56
2879.24
2890.23
2902.57
2916.32
2931.52
2948.22
2966.46
2986.27
3007.66
3030.62
3055.13
3081.13
3108.53
3137.22
3167.13
3197.92
3229.44
3261.44
3293.61
3325.66
3357.2
3387.88
3417.26
3444.94
3470.49
3493.47
3513.47
3530.12
3543.08
3552.06
3556.84
3557.29
3553.36
3545.12
3532.65
3516.17
3495.95
3472.35
3445.74
3416.58
3385.33
3352.47
3318.5
3283.9
3249.13
3214.64
3180.82
3148
3116.45
3086.4
3058.02
3031.43
3006.71
2983.91
2963.04
2944.09
2927
2911.71
2898.14
2886.19
2875.79
2866.84
2859.27
2853.02
2848.03
2844.24
2841.63
2840.16
2839.81
2840.57
2842.45
2845.46
2849.6
2854.92
2861.43
2869.18
2878.21
2888.55
2900.26
2913.4
2928
2944.13
2961.81
2981.09
3001.99
3024.51
3048.64
3074.34
3101.54
3130.13
3159.97
3190.88
3222.57
3254.79
3287.23
3319.54
3351.35
3382.26
3411.83
3439.65
3465.26
3488.25
3508.2
3524.75
3537.58
3546.41
3551.04
3551.33
3547.26
3538.88
3526.3
3509.75
3489.53
3466.02
3439.64
3410.86
3380.15
3348.01
3314.92
3281.36
3247.79
3214.71
3182.29
3150.82
3120.59
3091.82
3064.68
3039.28
3015.69
2993.93
2973.99
2955.82
2939.38
2924.6
2911.4
2899.69
2889.38
2880.37
2872.62
2866.09
2860.8
2856.72
2853.89
2852.35
2852
2852.9
2855.12
2858.74
2863.81
2870.43
2878.68
2888.65
2900.46
2914.19
2929.94
2947.78
2967.71
2989.72
3013.79
3039.83
3067.72
3097.34
3128.52
3162.75
3196.83
3231.56
3266.66
3301.87
3336.74
3370.89
3403.85
3435.16
3464.44
3491.26
3515.22
3535.98
3553.25
3566.75
3576.29
3581.72
3582.96
3580.05
3573.06
3562.04
3547.18
3528.7
3506.91
3482.15
3454.78
3425.2
3393.81
3361.04
3327.32
3293.03
3258.56
3224.25
3190.39
3163.18
3131.31
3100.77
3071.73
3044.31
3018.6
2994.65
2972.5
2952.15
2933.6
2916.83
2901.78
2888.38
2822.86
2839.14
2857.28
2877.28
2899.13
2922.82
2948.32
2975.53
3004.37
3034.72
3066.36
3099.04
3132.73
3167.06
3201.69
3236.23
3270.28
3303.47
3335.37
3365.56
3393.61
3419.11
3441.61
3460.78
3476.31
3487.93
3495.48
3498.8
3497.63
3492.23
3482.7
3469.2
3451.91
3431.12
3407.14
3380.3
3351.04
3319.75
3286.86
3252.81
3218.01
3182.85
3147.66
3112.8
3083.71
3051.02
3019.52
2989.45
2960.95
2934.15
2909.13
2885.9
2864.51
2844.94
2827.16
2811.16
2796.88
2784.28
2773.31
2763.93
2756.08
2749.73
2744.84
2741.37
2739.32
2738.9
2739.88
2742.31
2746.2
2751.58
2758.51
2767.03
2777.19
2789.06
2802.67
2818.06
2835.26
2854.27
2875.08
2897.65
2921.93
2947.85
2975.31
3004.2
3034.39
3065.74
3098.02
3130.96
3164.31
3197.8
3231.07
3263.78
3295.52
3325.9
3354.52
3380.98
3404.93
3426
3443.9
3458.34
3469.1
3476.01
3478.94
3477.82
3472.68
3463.53
3450.47
3433.66
3413.3
3389.65
3363.04
3333.83
3302.43
3269.29
3234.85
3199.59
3163.95
3128.36
3093.24
3058.95
3025.77
2993.97
2963.78
2935.36
2908.83
2884.27
2861.72
2841.19
2822.68
2806.17
2791.59
2778.91
2768.06
2758.98
2751.58
2745.81
2741.58
2738.81
2737.44
2737.39
2738.6
2741.04
2744.67
2749.48
2755.46
2762.64
2771.04
2780.7
2791.67
2803.99
2817.72
2832.9
2849.58
2867.8
2887.6
2908.98
2931.94
2956.46
2982.47
3009.89
3038.61
3068.58
3099.42
3131.01
3163.09
3195.37
3227.53
3259.2
3290.01
3319.54
3347.37
3373.07
3396.2
3416.35
3433.13
3446.18
3455.24
3460.07
3460.53
3456.59
3448.29
3435.74
3419.15
3398.8
3375.04
3348.27
3318.95
3287.53
3254.5
3220.37
3185.63
3150.74
3116.14
3082.22
3049.33
3017.73
2987.64
2959.23
2932.63
2907.91
2885.13
2864.28
2845.35
2828.29
2813.03
2799.49
2787.58
2777.21
2768.29
2760.75
2754.52
2749.54
2745.77
2743.16
2741.7
2741.35
2742.11
2743.99
2746.99
2751.13
2756.43
2762.93
2770.66
2779.67
2789.99
2801.69
2814.8
2829.38
2845.49
2863.16
2882.42
2903.3
2925.82
2949.95
2975.67
3002.89
3031.51
3061.39
3092.37
3124.14
3156.45
3189
3221.43
3253.38
3284.42
3314.15
3342.11
3367.88
3391.01
3411.1
3427.77
3440.69
3449.6
3454.27
3454.57
3450.48
3442.04
3429.37
3412.7
3392.34
3368.67
3342.13
3313.18
3282.3
3250
3216.77
3183.07
3149.38
3116.23
3083.72
3052.19
3021.91
2993.1
2965.95
2940.54
2916.96
2895.21
2875.29
2857.15
2840.74
2825.99
2812.82
2801.14
2790.85
2781.86
2774.12
2767.6
2762.31
2758.23
2755.4
2753.84
2753.47
2754.34
2756.55
2760.14
2765.18
2771.76
2779.99
2789.92
2801.7
2815.41
2831.14
2848.96
2868.89
2890.9
2914.97
2941.03
2968.96
2998.63
3029.91
3064.03
3098.24
3133.09
3168.31
3203.64
3238.66
3272.95
3306.06
3337.52
3366.95
3393.92
3418.01
3438.9
3456.27
3469.85
3479.45
3484.91
3486.15
3483.23
3476.18
3465.09
3450.13
3431.54
3409.63
3384.72
3357.21
3327.49
3295.95
3263.04
3229.2
3194.79
3160.23
3125.84
3091.91
3064.52
3032.59
3002.04
2972.98
2945.56
2919.85
2895.9
2873.76
2853.42
2834.89
2818.14
2803.11
2789.73
2724.09
2740.34
2758.46
2778.45
2800.29
2823.97
2849.48
2876.71
2905.58
2935.96
2967.65
3000.42
3034.19
3068.62
3103.37
3138.05
3172.24
3205.59
3237.66
3268.02
3296.25
3321.91
3344.57
3363.88
3379.51
3391.22
3398.82
3402.16
3400.99
3395.54
3385.94
3372.34
3354.94
3334.01
3309.88
3282.87
3253.45
3221.99
3188.94
3154.74
3119.81
3084.53
3049.26
3014.4
2984.87
2952.21
2920.7
2890.61
2862.1
2835.3
2810.27
2787.06
2765.69
2746.13
2728.38
2712.4
2698.15
2685.58
2674.63
2665.27
2657.44
2651.1
2646.22
2642.76
2640.72
2640.29
2641.27
2643.69
2647.56
2652.92
2659.83
2668.33
2678.46
2690.31
2703.9
2719.27
2736.46
2755.46
2776.26
2798.84
2823.12
2849.06
2876.55
2905.47
2935.7
2967.11
2999.46
3032.48
3065.94
3099.53
3132.93
3165.78
3197.67
3228.21
3256.99
3283.61
3307.71
3328.92
3346.93
3361.48
3372.32
3379.28
3382.24
3381.12
3375.95
3366.75
3353.61
3336.7
3316.21
3292.42
3265.65
3236.27
3204.7
3171.38
3136.78
3101.35
3065.57
3029.85
2994.61
2960.23
2926.97
2895.13
2864.9
2836.46
2809.92
2785.36
2762.82
2742.31
2723.82
2707.33
2692.79
2680.13
2669.32
2660.26
2652.9
2647.15
2642.95
2640.21
2638.86
2638.83
2640.06
2642.51
2646.14
2650.94
2656.92
2664.09
2672.47
2682.11
2693.06
2705.35
2719.06
2734.21
2750.87
2769.08
2788.86
2810.23
2833.19
2857.71
2883.74
2911.19
2939.94
2969.96
3000.87
3032.54
3064.72
3097.11
3129.39
3161.21
3192.17
3221.87
3249.87
3275.74
3299.04
3319.35
3336.27
3349.44
3358.59
3363.47
3363.95
3359.99
3351.63
3338.98
3322.26
3301.76
3277.83
3250.88
3221.37
3189.76
3156.55
3122.25
3087.34
3052.3
3017.57
2983.56
2950.58
2918.92
2888.79
2860.36
2833.74
2809.03
2786.25
2765.43
2746.53
2729.51
2714.29
2700.78
2688.91
2678.57
2669.68
2662.17
2655.96
2651
2647.24
2644.65
2643.19
2642.85
2643.61
2645.48
2648.47
2652.6
2657.89
2664.38
2672.09
2681.08
2691.38
2703.05
2716.14
2730.7
2746.78
2764.43
2783.67
2804.55
2827.06
2851.19
2876.92
2904.16
2932.82
2962.76
2993.82
3025.67
3058.09
3090.75
3123.32
3155.41
3186.62
3216.51
3244.65
3270.59
3293.89
3314.13
3330.93
3343.97
3352.95
3357.67
3357.99
3353.87
3345.36
3332.58
3315.78
3295.26
3271.42
3244.69
3215.54
3184.48
3152.01
3118.6
3084.75
3050.92
3017.7
2985.1
2953.48
2923.15
2894.3
2867.13
2841.72
2818.15
2796.42
2776.52
2758.41
2742.03
2727.31
2714.18
2702.53
2692.27
2683.3
2675.58
2669.07
2663.78
2659.69
2656.86
2655.29
2654.89
2655.73
2657.91
2661.47
2666.47
2673.03
2681.21
2691.11
2702.86
2716.55
2732.26
2750.06
2769.97
2791.98
2816.06
2842.15
2870.11
2899.85
2931.22
2965.25
2999.59
3034.57
3069.93
3105.4
3140.57
3175.02
3208.3
3239.94
3269.54
3296.67
3320.92
3341.94
3359.43
3373.11
3382.77
3388.26
3389.51
3386.56
3379.46
3368.29
3353.22
3334.5
3312.44
3287.38
3259.71
3229.82
3198.11
3165.05
3131.07
3096.54
3061.87
3027.39
2993.41
2965.76
2933.8
2903.22
2874.15
2846.72
2821.01
2797.07
2774.94
2754.62
2736.11
2719.38
2704.37
2691.01
2625.25
2641.47
2659.56
2679.53
2701.36
2725.04
2750.55
2777.8
2806.71
2837.14
2868.88
2901.73
2935.59
2970.13
3005.03
3039.85
3074.21
3107.73
3139.99
3170.54
3198.96
3224.82
3247.65
3267.11
3282.87
3294.67
3302.32
3305.69
3304.51
3299.02
3289.34
3275.63
3258.09
3237.02
3212.71
3185.52
3155.91
3124.27
3091.04
3056.67
3021.58
2986.18
2950.81
2915.95
2885.97
2853.33
2821.8
2791.68
2763.17
2736.36
2711.34
2688.14
2666.78
2647.25
2629.53
2613.58
2599.35
2586.8
2575.88
2566.54
2558.73
2552.41
2547.55
2544.1
2542.07
2541.63
2542.61
2545.01
2548.87
2554.2
2561.09
2569.55
2579.66
2591.48
2605.05
2620.4
2637.57
2656.56
2677.36
2699.94
2724.24
2750.2
2777.72
2806.68
2836.95
2868.42
2900.85
2933.96
2967.53
3001.24
3034.79
3067.79
3099.85
3130.56
3159.52
3186.32
3210.58
3231.95
3250.1
3264.76
3275.68
3282.7
3285.69
3284.58
3279.38
3270.12
3256.9
3239.86
3219.24
3195.29
3168.34
3138.78
3107.01
3073.5
3038.7
3003.1
2967.15
2931.29
2895.93
2861.44
2828.1
2796.19
2765.93
2737.46
2710.91
2686.35
2663.82
2643.34
2624.88
2608.42
2593.9