/*--------------------------------*- C++ -*----------------------------------*\
| =========                 |                                                 |
| \\      /  F ield         | OpenFOAM: The Open Source CFD Toolbox           |
|  \\    /   O peration     | Version:  3.0.1                                 |
|   \\  /    A nd           | Web:      www.OpenFOAM.org                      |
|    \\/     M anipulation  |                                                 |
\*---------------------------------------------------------------------------*/
FoamFile
{
    version     2.0;
    format      ascii;
    class       volScalarField;
    location    "16.4";
    object      p;
}
// * * * * * * * * * * * * * * * * * * * * * * * * * * * * * * * * * * * * * //

dimensions      [1 -1 -2 0 0 0 0];

internalField   nonuniform List<scalar> 
21420
(
4090.35
4058.64
4025.95
3992.68
3959.33
3926.29
3895.56
3864.4
3833.2
3802.93
3773.95
3746.53
3720.79
3696.83
3674.7
3654.42
3636
3619.39
3604.57
3591.49
3580.11
3570.36
3562.2
3555.59
3550.47
3546.82
3544.62
3543.89
3544.57
3546.64
3550.16
3555.12
3561.57
3569.52
3579.03
3590.13
3602.87
3617.29
3633.46
3651.38
3671.09
3692.6
3715.88
3740.92
3767.64
3795.9
3825.58
3856.5
3888.34
3920.41
3953.34
3986.55
4019.66
4052.27
4083.97
4114.39
4143.17
4169.91
4194.31
4216.03
4234.79
4250.35
4262.47
4270.99
4275.77
4276.64
4273.66
4266.81
4256.1
4241.68
4223.71
4202.45
4178.17
4151.2
4121.93
4090.78
4058.17
4024.51
3990.22
3955.73
3921.37
3886.76
3853.79
3821.96
3791.48
3762.56
3735.34
3709.95
3686.42
3664.78
3645.04
3627.16
3611.11
3596.84
3584.31
3573.5
3564.37
3556.89
3551.03
3546.81
3544.23
3543.23
3543.76
3546
3549.85
3555.26
3562.21
3570.72
3580.78
3592.38
3605.55
3620.29
3636.63
3654.6
3674.22
3695.49
3718.4
3742.93
3769.02
3796.59
3825.53
3855.68
3886.86
3918.82
3951.31
3984.03
4016.65
4048.79
4080.1
4110.17
4138.62
4165.09
4189.26
4210.79
4229.36
4244.75
4256.74
4265.18
4269.96
4270.93
4268.24
4261.85
4251.84
4238.35
4221.55
4201.66
4178.9
4153.56
4125.97
4096.41
4065.23
4032.77
3999.39
3965.43
3931.26
3897.22
3863.65
3830.83
3799.06
3768.59
3739.62
3712.36
3686.98
3663.57
3642.24
3623.04
3606
3591.14
3578.45
3567.88
3559.39
3552.9
3548.3
3545.53
3544.49
3545.15
3547.25
3550.72
3555.54
3561.66
3569
3577.48
3587.11
3597.87
3609.77
3622.83
3637.09
3652.61
3669.46
3687.7
3707.42
3728.65
3751.44
3775.82
3801.77
3829.24
3858.15
3888.34
3919.66
3951.81
3984.54
4017.48
4050.27
4082.48
4113.68
4143.4
4171.19
4196.62
4219.27
4238.75
4254.74
4266.96
4275.2
4279.3
4279.17
4274.82
4266.36
4253.83
4237.43
4217.43
4194.15
4167.94
4139.21
4108.38
4075.91
4042.28
4007.94
3973.33
3938.85
3904.89
3871.78
3839.8
3809.19
3780.11
3752.69
3727
3703.1
3680.98
3660.63
3642.02
3625.12
3609.88
3596.28
3584.28
3573.84
3564.95
3557.58
3551.71
3547.36
3544.57
3543.24
3543.4
3545.25
3548.73
3553.81
3560.46
3568.78
3578.79
3590.49
3603.92
3619.09
3636
3654.68
3675.1
3697.23
3721.02
3746.4
3773.26
3801.47
3830.88
3861.31
3892.53
3924.31
3956.37
3988.44
4020.19
4051.31
4081.46
4110.31
4137.51
4162.74
4185.69
4206.1
4223.7
4238.25
4249.57
4257.52
4261.97
4262.82
4260.18
4253.95
4244.21
4231.12
4214.88
4195.69
4173.83
4149.6
4123.33
4095.36
4066.06
4035.8
4004.94
3973.79
3942.7
3912.14
3887.14
3858.91
3831.49
3805.31
3780.55
3757.34
3735.77
3715.86
3697.64
3681.11
3666.25
3653.03
3641.43
3631.41
3622.94
3615.97
3610.46
3606.4
3603.76
3602.55
3603
3604.83
3608.03
3612.6
3618.5
3625.72
3634.25
3644.06
3655.15
3667.48
3681.03
3695.77
3711.67
3728.69
3746.76
3765.84
3785.84
3806.69
3828.28
3850.48
3873.15
3896.03
3919.33
3942.73
3966.06
3989.07
4011.57
4033.31
4054.09
4073.71
4091.91
4108.43
3992.28
3960.55
3927.85
3894.56
3861.19
3828.14
3797.41
3766.24
3735.03
3704.75
3675.77
3648.34
3622.6
3598.65
3576.52
3556.24
3537.82
3521.22
3506.4
3493.32
3481.94
3472.19
3464.04
3457.43
3452.31
3448.66
3446.46
3445.73
3446.41
3448.48
3452
3456.96
3463.41
3471.36
3480.86
3491.96
3504.7
3519.12
3535.28
3553.2
3572.91
3594.42
3617.7
3642.74
3669.46
3697.73
3727.41
3758.33
3790.19
3822.26
3855.2
3888.43
3921.56
3954.18
3985.89
4016.33
4045.12
4071.89
4096.3
4118.03
4136.81
4152.38
4164.51
4173.03
4177.83
4178.69
4175.71
4168.86
4158.14
4143.71
4125.73
4104.46
4080.15
4053.17
4023.88
3992.71
3960.08
3926.41
3892.1
3857.59
3823.23
3788.6
3755.62
3723.79
3693.3
3664.37
3637.16
3611.76
3588.24
3566.6
3546.86
3528.98
3512.93
3498.66
3486.14
3475.33
3466.2
3458.72
3452.87
3448.64
3446.06
3445.06
3445.6
3447.83
3451.69
3457.1
3464.05
3472.56
3482.61
3494.22
3507.38
3522.12
3538.46
3556.43
3576.05
3597.31
3620.22
3644.75
3670.84
3698.42
3727.36
3757.52
3788.7
3820.67
3853.18
3885.91
3918.54
3950.7
3982.02
4012.11
4040.58
4067.07
4091.25
4112.79
4131.38
4146.78
4158.78
4167.22
4172
4172.99
4170.28
4163.89
4153.87
4140.37
4123.56
4103.65
4080.88
4055.53
4027.92
3998.35
3967.16
3934.68
3901.28
3867.31
3833.13
3799.08
3765.49
3732.67
3700.89
3670.41
3641.44
3614.18
3588.79
3565.38
3544.04
3524.84
3507.81
3492.95
3480.26
3469.69
3461.21
3454.72
3450.13
3447.36
3446.34
3446.99
3449.09
3452.56
3457.39
3463.52
3470.85
3479.34
3488.96
3499.72
3511.63
3524.68
3538.94
3554.45
3571.3
3589.54
3609.25
3630.48
3653.27
3677.65
3703.6
3731.07
3759.97
3790.18
3821.5
3853.66
3886.4
3919.36
3952.16
3984.39
4015.62
4045.35
4073.16
4098.61
4121.28
4140.78
4156.78
4169.01
4177.26
4181.37
4181.23
4176.88
4168.42
4155.88
4139.46
4119.45
4096.15
4069.91
4041.17
4010.32
3977.83
3944.18
3909.82
3875.19
3840.7
3806.73
3773.61
3741.63
3711.01
3681.93
3654.51
3628.82
3604.91
3582.8
3562.46
3543.85
3526.94
3511.72
3498.12
3486.11
3475.67
3466.79
3459.42
3453.55
3449.2
3446.41
3445.08
3445.24
3447.09
3450.57
3455.64
3462.3
3470.61
3480.62
3492.32
3505.75
3520.92
3537.83
3556.5
3576.92
3599.05
3622.84
3648.22
3675.09
3703.31
3732.72
3763.15
3794.38
3826.17
3858.25
3890.32
3922.09
3953.22
3983.39
4012.25
4039.47
4064.72
4087.68
4108.1
4125.71
4140.28
4151.6
4159.55
4164.01
4164.87
4162.21
4155.98
4146.23
4133.14
4116.89
4097.68
4075.81
4051.57
4025.27
3997.29
3967.98
3937.7
3906.83
3875.67
3844.57
3813.97
3789
3760.75
3733.32
3707.13
3682.37
3659.17
3637.59
3617.68
3599.46
3582.93
3568.08
3554.87
3543.27
3533.25
3524.78
3517.81
3512.31
3508.24
3505.6
3504.39
3504.85
3506.67
3509.88
3514.44
3520.35
3527.57
3536.09
3545.91
3556.99
3569.33
3582.88
3597.62
3613.52
3630.54
3648.62
3667.69
3687.7
3708.55
3730.14
3752.35
3775.02
3797.91
3821.21
3844.63
3867.96
3890.98
3913.48
3935.24
3956.02
3975.65
3993.86
4010.4
3894.25
3862.49
3829.75
3796.43
3763.03
3729.94
3699.21
3668.01
3636.79
3606.5
3577.51
3550.07
3524.33
3500.38
3478.25
3457.98
3439.56
3422.96
3408.15
3395.08
3383.7
3373.96
3365.81
3359.21
3354.1
3350.45
3348.25
3347.52
3348.2
3350.27
3353.78
3358.75
3365.19
3373.13
3382.63
3393.73
3406.46
3420.88
3437.03
3454.95
3474.65
3496.15
3519.44
3544.48
3571.21
3599.48
3629.17
3660.11
3691.98
3724.07
3757.03
3790.28
3823.44
3856.1
3887.84
3918.32
3947.14
3973.94
3998.38
4020.14
4038.95
4054.54
4066.69
4075.23
4080.03
4080.9
4077.91
4071.05
4060.32
4045.87
4027.87
4006.56
3982.23
3955.2
3925.88
3894.67
3862.01
3828.3
3793.96
3759.42
3725.05
3690.36
3657.38
3625.54
3595.04
3566.1
3538.88
3513.49
3489.96
3468.33
3448.59
3430.72
3414.68
3400.42
3387.9
3377.09
3367.97
3360.49
3354.64
3350.41
3347.84
3346.83
3347.37
3349.61
3353.47
3358.87
3365.82
3374.33
3384.39
3395.99
3409.15
3423.88
3440.22
3458.19
3477.8
3499.06
3521.97
3546.5
3572.59
3600.17
3629.12
3659.29
3690.49
3722.48
3755.01
3787.76
3820.42
3852.61
3883.96
3914.09
3942.59
3969.11
3993.33
4014.9
4033.51
4048.93
4060.95
4069.41
4074.19
4075.19
4072.47
4066.06
4056.03
4042.51
4025.68
4005.75
3982.95
3957.57
3929.93
3900.33
3869.1
3836.6
3803.17
3769.18
3734.97
3700.89
3667.28
3634.44
3602.65
3572.15
3543.17
3515.9
3490.5
3467.09
3445.76
3426.56
3409.53
3394.67
3381.99
3371.42
3362.94
3356.47
3351.88
3349.13
3348.12
3348.77
3350.88
3354.36
3359.19
3365.32
3372.66
3381.15
3390.77
3401.53
3413.43
3426.48
3440.73
3456.24
3473.08
3491.31
3511.01
3532.23
3555.02
3579.4
3605.34
3632.82
3661.73
3691.95
3723.28
3755.47
3788.23
3821.22
3854.05
3886.32
3917.58
3947.36
3975.21
4000.7
4023.4
4042.93
4058.96
4071.22
4079.49
4083.62
4083.46
4079.1
4070.62
4058.07
4041.62
4021.58
3998.24
3971.97
3943.18
3912.3
3879.77
3846.08
3811.69
3777.03
3742.51
3708.51
3675.37
3643.38
3612.75
3583.66
3556.24
3530.55
3506.65
3484.55
3464.2
3445.6
3428.7
3413.48
3399.88
3387.89
3377.45
3368.56
3361.2
3355.33
3350.98
3348.19
3346.85
3347.02
3348.86
3352.34
3357.41
3364.07
3372.38
3382.38
3394.08
3407.51
3422.67
3439.58
3458.25
3478.66
3500.8
3524.59
3549.98
3576.85
3605.07
3634.5
3664.94
3696.19
3728
3760.1
3792.2
3823.99
3855.15
3885.34
3914.24
3941.49
3966.76
3989.76
4010.2
4027.84
4042.42
4053.77
4061.72
4066.19
4067.06
4064.38
4058.15
4048.39
4035.28
4019
3999.77
3977.87
3953.59
3927.27
3899.25
3869.91
3839.61
3808.7
3777.52
3746.39
3715.74
3690.83
3662.53
3635.08
3608.89
3584.12
3560.92
3539.34
3519.43
3501.22
3484.69
3469.84
3456.63
3445.04
3435.03
3426.55
3419.59
3414.09
3410.03
3407.39
3406.18
3406.64
3408.47
3411.67
3416.24
3422.14
3429.36
3437.89
3447.71
3458.79
3471.12
3484.68
3499.42
3515.32
3532.34
3550.42
3569.51
3589.52
3610.37
3631.97
3654.19
3676.87
3699.76
3723.08
3746.51
3769.86
3792.89
3815.42
3837.19
3857.99
3877.64
3895.87
3912.42
3796.26
3764.44
3731.65
3698.27
3664.82
3631.7
3600.96
3569.73
3538.48
3508.17
3479.16
3451.72
3425.98
3402.02
3379.9
3359.64
3341.22
3324.64
3309.83
3296.77
3285.4
3275.67
3267.53
3260.93
3255.82
3252.18
3249.98
3249.26
3249.92
3252
3255.51
3260.47
3266.91
3274.85
3284.34
3295.43
3308.15
3322.56
3338.71
3356.61
3376.31
3397.81
3421.09
3446.14
3472.87
3501.15
3530.86
3561.82
3593.71
3625.82
3658.82
3692.11
3725.32
3758.02
3789.82
3820.34
3849.21
3876.06
3900.55
3922.36
3941.2
3956.83
3969.01
3977.57
3982.38
3983.27
3980.26
3973.4
3962.64
3948.16
3930.12
3908.77
3884.39
3857.31
3827.93
3796.67
3763.95
3730.18
3695.8
3661.22
3626.82
3592.07
3559.08
3527.21
3496.7
3467.75
3440.53
3415.13
3391.61
3369.98
3350.25
3332.39
3316.36
3302.1
3289.59
3278.79
3269.67
3262.2
3256.35
3252.12
3249.54
3248.54
3249.09
3251.32
3255.18
3260.59
3267.53
3276.04
3286.1
3297.7
3310.85
3325.58
3341.91
3359.87
3379.48
3400.73
3423.64
3448.17
3474.27
3501.85
3530.82
3561
3592.22
3624.24
3656.8
3689.59
3722.29
3754.53
3785.93
3816.1
3844.66
3871.23
3895.5
3917.11
3935.77
3951.22
3963.26
3971.74
3976.53
3977.54
3974.79
3968.38
3958.33
3944.78
3927.92
3907.95
3885.1
3859.68
3832
3802.35
3771.08
3738.52
3705.05
3671.02
3636.77
3602.66
3569.01
3536.14
3504.33
3473.82
3444.82
3417.54
3392.13
3368.72
3347.38
3328.18
3311.15
3296.31
3283.63
3273.07
3264.6
3258.14
3253.57
3250.83
3249.84
3250.49
3252.61
3256.1
3260.93
3267.07
3274.42
3282.91
3292.53
3303.29
3315.18
3328.23
3342.47
3357.97
3374.79
3393.01
3412.7
3433.92
3456.7
3481.07
3507.01
3534.49
3563.42
3593.65
3625
3657.22
3690.02
3723.05
3755.94
3788.26
3819.58
3849.42
3877.33
3902.88
3925.63
3945.22
3961.29
3973.58
3981.87
3986.02
3985.85
3981.49
3972.99
3960.4
3943.92
3923.83
3900.44
3874.1
3845.25
3814.31
3781.72
3747.98
3713.53
3678.82
3644.27
3610.23
3577.07
3545.05
3514.41
3485.32
3457.89
3432.2
3408.31
3386.21
3365.87
3347.28
3330.39
3315.17
3301.58
3289.59
3279.16
3270.28
3262.92
3257.05
3252.7
3249.9
3248.57
3248.74
3250.57
3254.05
3259.12
3265.77
3274.07
3284.07
3295.77
3309.19
3324.34
3341.25
3359.92
3380.33
3402.46
3426.26
3451.65
3478.54
3506.77
3536.22
3566.68
3597.95
3629.79
3661.92
3694.05
3725.89
3757.09
3787.33
3816.27
3843.56
3868.88
3891.92
3912.41
3930.07
3944.69
3956.06
3964.03
3968.51
3969.39
3966.69
3960.45
3950.67
3937.53
3921.22
3901.95
3880.01
3855.69
3829.31
3801.25
3771.86
3741.52
3710.57
3679.35
3648.18
3617.45
3592.61
3564.24
3536.78
3510.57
3485.8
3462.59
3441.01
3421.11
3402.9
3386.38
3371.53
3358.33
3346.75
3336.74
3328.27
3321.31
3315.82
3311.77
3309.13
3307.91
3308.37
3310.21
3313.41
3317.98
3323.89
3331.11
3339.63
3349.45
3360.54
3372.87
3386.42
3401.17
3417.07
3434.1
3452.18
3471.27
3491.29
3512.15
3533.76
3556
3578.69
3601.59
3624.93
3648.38
3671.75
3694.82
3717.37
3739.17
3760
3779.68
3797.93
3814.5
3698.3
3666.42
3633.55
3600.1
3566.58
3533.41
3502.67
3471.38
3440.1
3409.76
3380.74
3353.29
3327.54
3303.58
3281.47
3261.21
3242.81
3226.23
3211.44
3198.39
3187.03
3177.31
3169.18
3162.59
3157.49
3153.86
3151.66
3150.93
3151.59
3153.67
3157.18
3162.14
3168.57
3176.5
3185.98
3197.06
3209.77
3224.17
3240.31
3258.2
3277.9
3299.39
3322.67
3347.72
3374.45
3402.75
3432.48
3463.46
3495.39
3527.53
3560.58
3593.92
3627.19
3659.96
3691.81
3722.41
3751.35
3778.26
3802.81
3824.68
3843.57
3859.25
3871.47
3880.05
3884.88
3885.79
3882.77
3875.89
3865.11
3850.59
3832.5
3811.09
3786.63
3759.48
3730.03
3698.69
3665.9
3632.06
3597.62
3562.98
3528.56
3493.71
3460.71
3428.81
3398.28
3369.32
3342.08
3316.68
3293.17
3271.55
3251.83
3233.98
3217.96
3203.71
3191.21
3180.42
3171.3
3163.84
3157.99
3153.77
3151.19
3150.18
3150.74
3152.97
3156.83
3162.24
3169.18
3177.69
3187.74
3199.34
3212.48
3227.21
3243.53
3261.48
3281.08
3302.33
3325.24
3349.77
3375.87
3403.47
3432.44
3462.65
3493.9
3525.95
3558.55
3591.4
3624.16
3656.46
3687.92
3718.16
3746.78
3773.43
3797.75
3819.42
3838.13
3853.63
3865.71
3874.21
3879.01
3880.04
3877.27
3870.84
3860.76
3847.17
3830.27
3810.25
3787.34
3761.86
3734.12
3704.41
3673.07
3640.46
3606.93
3572.84
3538.54
3504.38
3470.69
3437.79
3405.94
3375.4
3346.38
3319.08
3293.67
3270.25
3248.91
3229.71
3212.69
3197.85
3185.18
3174.64
3166.18
3159.73
3155.18
3152.46
3151.49
3152.15
3154.28
3157.79
3162.63
3168.78
3176.13
3184.62
3194.25
3205
3216.89
3229.92
3244.15
3259.64
3276.45
3294.65
3314.33
3335.53
3358.3
3382.66
3408.61
3436.09
3465.03
3495.28
3526.66
3558.92
3591.77
3624.86
3657.81
3690.21
3721.61
3751.53
3779.52
3805.15
3827.98
3847.63
3863.76
3876.09
3884.42
3888.57
3888.43
3884.04
3875.51
3862.88
3846.34
3826.19
3802.73
3776.31
3747.38
3716.36
3683.69
3649.87
3615.36
3580.59
3545.97
3511.9
3478.7
3446.65
3415.99
3386.89
3359.46
3333.78
3309.88
3287.79
3267.47
3248.88
3232.01
3216.8
3203.22
3191.24
3180.81
3171.93
3164.58
3158.71
3154.36
3151.56
3150.22
3150.4
3152.22
3155.69
3160.76
3167.4
3175.7
3185.7
3197.39
3210.8
3225.95
3242.85
3261.51
3281.92
3304.06
3327.86
3353.26
3380.15
3408.41
3437.87
3468.36
3499.67
3531.54
3563.71
3595.9
3627.78
3659.04
3689.34
3718.34
3745.69
3771.07
3794.17
3814.71
3832.42
3847.07
3858.48
3866.48
3870.97
3871.86
3869.15
3862.89
3853.08
3839.91
3823.55
3804.23
3782.22
3757.84
3731.4
3703.28
3673.83
3643.42
3612.42
3581.15
3549.93
3519.11
3494.34
3465.9
3438.4
3412.18
3387.4
3364.19
3342.61
3322.71
3304.5
3287.99
3273.16
3259.97
3248.39
3238.39
3229.93
3222.98
3217.49
3213.45
3210.81
3209.59
3210.05
3211.89
3215.1
3219.67
3225.58
3232.8
3241.33
3251.14
3262.23
3274.56
3288.12
3302.87
3318.78
3335.81
3353.9
3372.99
3393.02
3413.89
3435.52
3457.77
3480.49
3503.4
3526.76
3550.24
3573.65
3596.75
3619.33
3641.17
3662.04
3681.75
3700.04
3716.64
3600.38
3568.4
3535.45
3501.91
3468.31
3435.07
3404.32
3372.98
3341.65
3311.27
3282.23
3254.76
3229.01
3205.06
3182.95
3162.7
3144.31
3127.75
3112.97
3099.94
3088.6
3078.89
3070.77
3064.18
3059.1
3055.47
3053.29
3052.55
3053.21
3055.29
3058.8
3063.75
3070.17
3078.09
3087.56
3098.63
3111.32
3125.71
3141.83
3159.72
3179.4
3200.88
3224.16
3249.21
3275.96
3304.27
3334.02
3365.04
3397.02
3429.19
3462.29
3495.71
3529.05
3561.9
3593.84
3624.51
3653.54
3680.53
3705.16
3727.1
3746.06
3761.79
3774.06
3782.69
3787.53
3788.46
3785.44
3778.53
3767.71
3753.14
3734.99
3713.5
3688.96
3661.72
3632.18
3600.75
3567.86
3533.94
3499.41
3464.71
3430.25
3395.29
3362.27
3330.34
3299.78
3270.8
3243.55
3218.15
3194.64
3173.03
3153.32
3135.49
3119.48
3105.25
3092.76
3081.98
3072.86
3065.41
3059.57
3055.34
3052.77
3051.77
3052.33
3054.55
3058.42
3063.82
3070.77
3079.28
3089.33
3100.92
3114.05
3128.77
3145.08
3163.02
3182.61
3203.86
3226.76
3251.29
3277.4
3305
3334
3364.23
3395.52
3427.61
3460.27
3493.19
3526.01
3558.39
3589.93
3620.26
3648.97
3675.69
3700.1
3721.84
3740.62
3756.17
3768.3
3776.82
3781.64
3782.67
3779.9
3773.44
3763.32
3749.69
3732.72
3712.64
3689.67
3664.11
3636.29
3606.5
3575.09
3542.4
3508.8
3474.64
3440.27
3406.05
3372.32
3339.36
3307.48
3276.9
3247.86
3220.54
3195.11
3171.68
3150.34
3131.15
3114.14
3099.31
3086.65
3076.12
3067.68
3061.25
3056.72
3054.02
3053.08
3053.75
3055.9
3059.42
3064.28
3070.44
3077.79
3086.29
3095.92
3106.67
3118.54
3131.57
3145.78
3161.25
3178.04
3196.23
3215.88
3237.07
3259.83
3284.18
3310.13
3337.62
3366.57
3396.85
3428.27
3460.58
3493.48
3526.65
3559.69
3592.17
3623.67
3653.69
3681.78
3707.51
3730.44
3750.17
3766.37
3778.76
3787.12
3791.3
3791.16
3786.76
3778.18
3765.5
3748.9
3728.66
3705.11
3678.6
3649.57
3618.44
3585.68
3551.77
3517.16
3482.32
3447.64
3413.5
3380.25
3348.18
3317.49
3288.38
3260.95
3235.26
3211.38
3189.3
3168.99
3150.42
3133.55
3118.35
3104.79
3092.81
3082.4
3073.52
3066.17
3060.31
3055.96
3053.15
3051.81
3051.99
3053.81
3057.28
3062.33
3068.97
3077.27
3087.25
3098.93
3112.34
3127.48
3144.37
3163.03
3183.44
3205.57
3229.38
3254.79
3281.7
3309.97
3339.47
3369.99
3401.33
3433.25
3465.48
3497.73
3529.68
3561.01
3591.38
3620.45
3647.89
3673.34
3696.5
3717.11
3734.88
3749.59
3761.03
3769.06
3773.57
3774.47
3771.74
3765.46
3755.62
3742.4
3725.98
3706.6
3684.52
3660.06
3633.54
3605.33
3575.81
3545.33
3514.27
3482.94
3451.64
3420.73
3396
3367.48
3339.95
3313.71
3288.92
3265.71
3244.13
3224.24
3206.04
3189.54
3174.71
3161.53
3149.96
3139.98
3131.53
3124.58
3119.11
3115.07
3112.44
3111.22
3111.68
3113.53
3116.74
3121.31
3127.22
3134.44
3142.97
3152.78
3163.87
3176.21
3189.77
3204.52
3220.43
3237.46
3255.56
3274.67
3294.71
3315.6
3337.24
3359.51
3382.25
3405.19
3428.58
3452.1
3475.55
3498.69
3521.32
3543.2
3564.12
3583.87
3602.2
3618.85
3502.49
3470.41
3437.35
3403.7
3370
3336.68
3305.92
3274.51
3243.13
3212.71
3183.64
3156.16
3130.4
3106.45
3084.35
3064.11
3045.74
3029.19
3014.44
3001.42
2990.09
2980.4
2972.29
2965.72
2960.65
2957.03
2954.86
2954.12
2954.77
2956.85
2960.36
2965.3
2971.71
2979.62
2989.07
3000.13
3012.81
3027.17
3043.28
3061.15
3080.82
3102.3
3125.57
3150.63
3177.38
3205.72
3235.5
3266.56
3298.59
3330.8
3363.97
3397.47
3430.9
3463.84
3495.88
3526.66
3555.79
3582.88
3607.61
3629.63
3648.67
3664.47
3676.8
3685.46
3690.34
3691.28
3688.26
3681.32
3670.46
3655.83
3637.6
3616.02
3591.38
3564.03
3534.38
3502.83
3469.84
3435.81
3401.18
3366.39
3331.87
3296.83
3263.76
3231.79
3201.2
3172.19
3144.93
3119.53
3096.02
3074.43
3054.74
3036.92
3020.93
3006.71
2994.24
2983.47
2974.36
2966.92
2961.08
2956.86
2954.29
2953.28
2953.85
2956.08
2959.95
2965.35
2972.3
2980.8
2990.85
3002.43
3015.56
3030.26
3046.56
3064.49
3084.07
3105.3
3128.2
3152.73
3178.85
3206.47
3235.49
3265.75
3297.08
3329.23
3361.96
3394.94
3427.86
3460.33
3491.97
3522.39
3551.2
3578.03
3602.54
3624.37
3643.22
3658.84
3671.02
3679.58
3684.42
3685.45
3682.68
3676.18
3666.02
3652.33
3635.29
3615.13
3592.08
3566.43
3538.52
3508.64
3477.13
3444.35
3410.66
3376.42
3341.97
3307.68
3273.88
3240.87
3208.94
3178.33
3149.25
3121.91
3096.47
3073.03
3051.69
3032.5
3015.49
3000.67
2988.03
2977.51
2969.09
2962.69
2958.19
2955.52
2954.6
2955.3
2957.47
2961
2965.88
2972.05
2979.41
2987.91
2997.54
3008.29
3020.15
3033.16
3047.36
3062.81
3079.57
3097.74
3117.37
3138.53
3161.28
3185.62
3211.57
3239.07
3268.04
3298.35
3329.81
3362.18
3395.16
3428.41
3461.55
3494.15
3525.76
3555.9
3584.12
3609.97
3633
3652.84
3669.13
3681.59
3689.99
3694.19
3694.06
3689.64
3681.01
3668.27
3651.58
3631.26
3607.6
3580.97
3551.81
3520.56
3487.68
3453.66
3418.95
3384.01
3349.25
3315.04
3281.74
3249.63
3218.91
3189.78
3162.35
3136.67
3112.79
3090.72
3070.43
3051.87
3035.03
3019.84
3006.29
2994.33
2983.92
2975.05
2967.71
2961.85
2957.5
2954.69
2953.34
2953.52
2955.33
2958.79
2963.85
2970.47
2978.76
2988.74
3000.41
3013.8
3028.93
3045.81
3064.46
3084.87
3107.01
3130.82
3156.24
3183.17
3211.47
3241
3271.56
3302.95
3334.93
3367.22
3399.54
3431.57
3462.99
3493.45
3522.61
3550.14
3575.68
3598.93
3619.62
3637.46
3652.22
3663.71
3671.78
3676.31
3677.21
3674.48
3668.16
3658.29
3645.01
3628.53
3609.06
3586.89
3562.34
3535.73
3507.42
3477.81
3447.25
3416.1
3384.69
3353.33
3322.32
3297.6
3269
3241.43
3215.17
3190.37
3167.15
3145.58
3125.69
3107.5
3091.01
3076.2
3063.03
3051.48
3041.5
3033.06
3026.13
3020.67
3016.64
3014.02
3012.79
3013.26
3015.11
3018.33
3022.9
3028.8
3036.02
3044.55
3054.37
3065.46
3077.8
3091.36
3106.12
3122.03
3139.07
3157.18
3176.3
3196.36
3217.26
3238.93
3261.22
3283.99
3306.95
3330.38
3353.95
3377.44
3400.63
3423.32
3445.26
3466.23
3486.04
3504.42
3521.12
3404.64
3372.44
3339.24
3305.47
3271.65
3238.24
3207.48
3175.98
3144.53
3114.07
3084.97
3057.47
3031.7
3007.75
2985.66
2965.44
2947.09
2930.56
2915.82
2902.83
2891.52
2881.85
2873.76
2867.2
2862.14
2858.54
2856.37
2855.63
2856.28
2858.36
2861.86
2866.79
2873.19
2881.08
2890.52
2901.56
2914.22
2928.56
2944.65
2962.51
2982.16
3003.63
3026.9
3051.96
3078.73
3107.09
3136.91
3168.01
3200.1
3232.36
3265.62
3299.21
3332.75
3365.8
3397.95
3428.85
3458.1
3485.3
3510.14
3532.27
3551.4
3567.28
3579.67
3588.39
3593.29
3594.25
3591.23
3584.26
3573.35
3558.65
3540.33
3518.65
3493.89
3466.41
3436.62
3404.95
3371.83
3337.68
3302.93
3268.03
3233.42
3198.32
3165.19
3133.17
3102.53
3073.5
3046.23
3020.82
2997.32
2975.75
2956.07
2938.27
2922.3
2908.11
2895.65
2884.89
2875.8
2868.36
2862.53
2858.31
2855.74
2854.74
2855.31
2857.54
2861.41
2866.81
2873.76
2882.27
2892.31
2903.88
2917
2931.68
2947.97
2965.88
2985.45
3006.67
3029.57
3054.1
3080.22
3107.86
3136.91
3167.21
3198.59
3230.8
3263.6
3296.68
3329.69
3362.27
3394.03
3424.57
3453.5
3480.45
3505.06
3526.99
3545.94
3561.64
3573.88
3582.49
3587.34
3588.39
3585.6
3579.06
3568.84
3555.09
3537.98
3517.73
3494.57
3468.82
3440.8
3410.81
3379.2
3346.31
3312.52
3278.18
3243.64
3209.27
3175.39
3142.32
3110.33
3079.67
3050.56
3023.19
2997.73
2974.28
2952.94
2933.75
2916.75
2901.95
2889.32
2878.83
2870.43
2864.05
2859.59
2856.95
2856.05
2856.78
2858.98
2862.53
2867.43
2873.61
2880.98
2889.49
2899.12
2909.86
2921.71
2934.71
2948.88
2964.3
2981.04
2999.18
3018.78
3039.93
3062.65
3086.99
3112.93
3140.44
3169.44
3199.78
3231.29
3263.73
3296.8
3330.15
3363.41
3396.14
3427.88
3458.16
3486.53
3512.52
3535.68
3555.64
3572.03
3584.57
3593.03
3597.25
3597.13
3592.69
3584
3571.18
3554.4
3533.96
3510.18
3483.41
3454.11
3422.72
3389.7
3355.55
3320.72
3285.67
3250.81
3216.53
3183.16
3151
3120.25
3091.11
3063.67
3037.99
3014.13
2992.07
2971.79
2953.26
2936.43
2921.26
2907.72
2895.78
2885.38
2876.52
2869.18
2863.33
2858.98
2856.16
2854.81
2854.99
2856.79
2860.25
2865.29
2871.91
2880.19
2890.15
2901.81
2915.19
2930.31
2947.18
2965.83
2986.23
3008.37
3032.19
3057.62
3084.57
3112.9
3142.47
3173.08
3204.53
3236.57
3268.94
3301.34
3333.46
3364.98
3395.55
3424.81
3452.44
3478.09
3501.44
3522.22
3540.14
3554.98
3566.53
3574.63
3579.19
3580.1
3577.36
3571.01
3561.08
3547.74
3531.18
3511.61
3489.35
3464.69
3437.96
3409.55
3379.82
3349.16
3317.92
3286.43
3254.98
3223.87
3199.13
3170.45
3142.84
3116.56
3091.75
3068.52
3046.95
3027.07
3008.89
2992.41
2977.61
2964.46
2952.92
2942.96
2934.54
2927.62
2922.17
2918.15
2915.54
2914.31
2914.78
2916.64
2919.86
2924.43
2930.34
2937.56
2946.09
2955.91
2967
2979.34
2992.9
3007.66
3023.59
3040.64
3058.75
3077.89
3097.96
3118.89
3140.58
3162.9
3185.7
3208.69
3232.17
3255.78
3279.33
3302.59
3325.34
3347.34
3368.38
3388.25
3406.69
3423.44
3306.83
3274.48
3241.14
3207.22
3173.26
3139.74
3108.98
3077.39
3045.87
3015.35
2986.21
2958.69
2932.92
2908.97
2886.9
2866.69
2848.35
2831.85
2817.14
2804.17
2792.88
2783.23
2775.16
2768.62
2763.58
2759.98
2757.82
2757.08
2757.73
2759.81
2763.3
2768.22
2774.61
2782.49
2791.91
2802.92
2815.56
2829.88
2845.95
2863.79
2883.42
2904.88
2928.14
2953.21
2979.99
3008.38
3038.24
3069.4
3101.55
3133.86
3167.22
3200.93
3234.58
3267.76
3300.05
3331.08
3360.46
3387.8
3412.76
3435.01
3454.25
3470.22
3482.69
3491.47
3496.41
3497.38
3494.35
3487.35
3476.39
3461.61
3443.18
3421.37
3396.48
3368.86
3338.92
3307.1
3273.83
3239.54
3204.66
3169.64
3134.91
3099.77
3066.55
3034.47
3003.79
2974.73
2947.44
2922.02
2898.54
2876.98
2857.33
2839.55
2823.6
2809.43
2796.99
2786.24
2777.16
2769.73
2763.92
2759.7
2757.13
2756.14
2756.71
2758.93
2762.81
2768.22
2775.16
2783.67
2793.7
2805.27
2818.37
2833.04
2849.31
2867.2
2886.75
2907.97
2930.86
2955.39
2981.52
3009.18
3038.25
3068.6
3100.04
3132.32
3165.21
3198.39
3231.51
3264.22
3296.1
3326.78
3355.85
3382.93
3407.67
3429.72
3448.78
3464.57
3476.88
3485.53
3490.42
3491.47
3488.66
3482.08
3471.81
3457.97
3440.77
3420.42
3397.15
3371.28
3343.14
3313.03
3281.29
3248.28
3214.37
3179.92
3145.28
3110.81
3076.85
3043.7
3011.64
2980.94
2951.78
2924.38
2898.9
2875.44
2854.09
2834.91
2817.92
2803.13
2790.52
2780.05
2771.69
2765.34
2760.91
2758.31
2757.45
2758.21
2760.43
2764.01
2768.93
2775.13
2782.5
2791.02
2800.65
2811.38
2823.23
2836.2
2850.35
2865.75
2882.45
2900.56
2920.13
2941.25
2963.95
2988.27
3014.21
3041.74
3070.76
3101.14
3132.72
3165.23
3198.4
3231.87
3265.26
3298.13
3330.03
3360.48
3389.01
3415.16
3438.48
3458.56
3475.07
3487.7
3496.22
3500.48
3500.37
3495.9
3487.15
3474.24
3457.36
3436.79
3412.86
3385.93
3356.47
3324.92
3291.74
3257.43
3222.46
3187.29
3152.32
3117.95
3084.51
3052.29
3021.51
2992.34
2964.9
2939.23
2915.38
2893.34
2873.08
2854.57
2837.76
2822.62
2809.09
2797.16
2786.78
2777.93
2770.6
2764.75
2760.4
2757.58
2756.22
2756.4
2758.18
2761.64
2766.68
2773.28
2781.55
2791.5
2803.15
2816.51
2831.61
2848.48
2867.11
2887.51
2909.65
2933.48
2958.93
2985.9
3014.27
3043.87
3074.54
3106.05
3138.16
3170.62
3203.12
3235.35
3266.98
3297.67
3327.06
3354.81
3380.57
3404.04
3424.93
3442.94
3457.86
3469.47
3477.63
3482.21
3483.13
3480.38
3473.99
3464.01
3450.59
3433.93
3414.27
3391.88
3367.09
3340.24
3311.7
3281.85
3251.07
3219.72
3188.13
3156.59
3125.39
3100.59
3071.83
3044.18
3017.87
2993.04
2969.81
2948.24
2928.37
2910.2
2893.74
2878.96
2865.83
2854.31
2844.36
2835.96
2829.05
2823.61
2819.6
2817
2815.78
2816.26
2818.12
2821.34
2825.91
2831.82
2839.04
2847.57
2857.39
2868.49
2880.83
2894.4
2909.16
2925.09
2942.15
2960.28
2979.43
2999.52
3020.47
3042.19
3064.55
3087.39
3110.41
3133.93
3157.61
3181.23
3204.55
3227.37
3249.45
3270.56
3290.51
3309.02
3325.83
3209.05
3176.54
3143.03
3108.95
3074.83
3041.19
3010.44
2978.74
2947.13
2916.55
2887.37
2859.83
2834.05
2810.11
2788.04
2767.86
2749.54
2733.07
2718.38
2705.44
2694.18
2684.55
2676.5
2669.98
2664.95
2661.37
2659.22
2658.48
2659.13
2661.21
2664.69
2669.6
2675.97
2683.83
2693.23
2704.22
2716.83
2731.13
2747.17
2764.99
2784.61
2806.05
2829.31
2854.38
2881.17
2909.59
2939.5
2970.73
3002.95
3035.32
3068.79
3102.62
3136.41
3169.73
3202.17
3233.35
3262.88
3290.37
3315.48
3337.86
3357.22
3373.3
3385.85
3394.69
3399.67
3400.66
3397.63
3390.59
3379.57
3364.69
3346.15
3324.21
3299.16
3271.37
3241.26
3209.27
3175.84
3141.39
3106.36
3071.2
3036.33
3001.18
2967.85
2935.69
2904.96
2875.87
2848.56
2823.14
2799.66
2778.12
2758.5
2740.75
2724.83
2710.67
2698.26
2687.53
2678.46
2671.05
2665.24
2661.03
2658.46
2657.47
2658.04
2660.27
2664.15
2669.56
2676.5
2685.01
2695.04
2706.59
2719.68
2734.33
2750.58
2768.45
2787.98
2809.19
2832.07
2856.6
2882.74
2910.42
2939.53
2969.92
3001.42
3033.79
3066.78
3100.07
3133.32
3166.17
3198.2
3229.03
3258.25
3285.49
3310.38
3332.56
3351.73
3367.62
3380.02
3388.73
3393.64
3394.7
3391.87
3385.25
3374.91
3360.99
3343.68
3323.21
3299.81
3273.81
3245.53
3215.28
3183.4
3150.25
3116.21
3081.63
3046.87
3012.3
2978.24
2945.01
2912.89
2882.12
2852.92
2825.48
2799.97
2776.5
2755.15
2735.98
2719
2704.23
2691.64
2681.2
2672.86
2666.55
2662.16
2659.61
2658.78
2659.57
2661.83
2665.43
2670.38
2676.6
2683.98
2692.5
2702.14
2712.86
2724.69
2737.64
2751.77
2767.13
2783.8
2801.87
2821.41
2842.49
2865.18
2889.48
2915.42
2942.95
2972
3002.44
3034.07
3066.68
3099.96
3133.56
3167.1
3200.14
3232.22
3262.85
3291.57
3317.89
3341.38
3361.62
3378.26
3390.99
3399.59
3403.88
3403.77
3399.27
3390.46
3377.45
3360.44
3339.73
3315.63
3288.53
3258.89
3227.14
3193.79
3159.31
3124.19
3088.87
3053.78
3019.3
2985.78
2953.5
2922.69
2893.5
2866.05
2840.39
2816.54
2794.53
2774.29
2755.81
2739.03
2723.9
2710.4
2698.49
2688.12
2679.28
2671.95
2666.11
2661.76
2658.93
2657.58
2657.74
2659.52
2662.97
2667.99
2674.58
2682.84
2692.78
2704.41
2717.76
2732.84
2749.69
2768.32
2788.71
2810.85
2834.69
2860.16
2887.16
2915.56
2945.22
2975.94
3007.52
3039.72
3072.28
3104.89
3137.24
3169
3199.82
3229.34
3257.23
3283.13
3306.73
3327.73
3345.86
3360.86
3372.55
3380.76
3385.37
3386.31
3383.54
3377.1
3367.06
3353.56
3336.8
3317.01
3294.5
3269.57
3242.57
3213.88
3183.89
3152.98
3121.52
3089.82
3058.18
3026.87
3001.98
2973.14
2945.44
2919.11
2894.27
2871.03
2849.46
2829.59
2811.44
2795
2780.24
2767.12
2755.62
2745.7
2737.31
2730.42
2725
2721
2718.41
2717.19
2717.68
2719.55
2722.77
2727.34
2733.25
2740.47
2749
2758.83
2769.92
2782.27
2795.84
2810.61
2826.55
2843.61
2861.76
2880.92
2901.04
2922.01
2943.76
2966.17
2989.04
3012.1
3035.68
3059.43
3083.12
3106.52
3129.42
3151.58
3172.77
3192.81
3211.4
3228.28
3111.31
3078.61
3044.93
3010.66
2976.36
2942.59
2911.84
2880.02
2848.32
2817.66
2788.44
2760.87
2735.09
2711.15
2689.1
2668.94
2650.65
2634.2
2619.55
2606.63
2595.41
2585.81
2577.78
2571.29
2566.27
2562.7
2560.56
2559.83
2560.48
2562.55
2566.02
2570.92
2577.27
2585.11
2594.49
2605.45
2618.04
2632.31
2648.32
2666.11
2685.71
2707.13
2730.39
2755.46
2782.28
2810.73
2840.69
2871.99
2904.28
2936.72
2970.32
3004.28
3038.22
3071.7
3104.31
3135.66
3165.37
3193.02
3218.28
3240.81
3260.3
3276.5
3289.15
3298.06
3303.09
3304.11
3301.07
3293.98
3282.89
3267.92
3249.24
3227.14
3201.92
3173.95
3143.65
3111.48
3077.86
3043.23
3008.04
2972.72
2937.69
2902.54
2869.07
2836.83
2806.04
2776.92
2749.59
2724.17
2700.7
2679.19
2659.59
2641.87
2625.98
2611.85
2599.46
2588.75
2579.7
2572.29
2566.5
2562.29
2559.72
2558.74
2559.3
2561.54
2565.43
2570.83
2577.78
2586.28
2596.31
2607.85
2620.92
2635.55
2651.77
2669.63
2689.14
2710.33
2733.2
2757.73
2783.88
2811.59
2840.73
2871.18
2902.75
2935.21
2968.31
3001.73