/*--------------------------------*- C++ -*----------------------------------*\
| =========                 |                                                 |
| \\      /  F ield         | OpenFOAM: The Open Source CFD Toolbox           |
|  \\    /   O peration     | Version:  3.0.1                                 |
|   \\  /    A nd           | Web:      www.OpenFOAM.org                      |
|    \\/     M anipulation  |                                                 |
\*---------------------------------------------------------------------------*/
FoamFile
{
    version     2.0;
    format      ascii;
    class       volVectorField;
    location    "56.8";
    object      U;
}
// * * * * * * * * * * * * * * * * * * * * * * * * * * * * * * * * * * * * * //

dimensions      [0 1 -1 0 0 0 0];

internalField   nonuniform List<vector> 
21420
(
(0.193329 -0.00112828 0)
(0.202342 -0.00093497 0)
(0.210647 -0.000711992 0)
(0.216678 -0.000478132 0)
(0.220321 -0.000235498 0)
(0.22147 9.28635e-06 0)
(0.220199 0.000250647 0)
(0.216389 0.000494762 0)
(0.210207 0.000730519 0)
(0.201769 0.000940612 0)
(0.191225 0.00114505 0)
(0.178767 0.00133375 0)
(0.164623 0.00147214 0)
(0.149042 0.00161326 0)
(0.132285 0.00169558 0)
(0.11462 0.00178498 0)
(0.0962957 0.00185074 0)
(0.0775673 0.00185552 0)
(0.0586671 0.00187285 0)
(0.0397483 0.00186828 0)
(0.0208953 0.00181656 0)
(0.00280259 0.00176496 0)
(-0.014435 0.00171145 0)
(-0.031163 0.00162232 0)
(-0.0471094 0.00154462 0)
(-0.0621777 0.00144357 0)
(-0.0763107 0.00135431 0)
(-0.0894737 0.0012603 0)
(-0.101648 0.00115606 0)
(-0.112835 0.00106161 0)
(-0.123046 0.00096704 0)
(-0.132298 0.00087009 0)
(-0.140619 0.000780461 0)
(-0.148038 0.000690662 0)
(-0.154587 0.000606802 0)
(-0.160297 0.000525255 0)
(-0.1652 0.000445467 0)
(-0.169322 0.000369073 0)
(-0.172689 0.000294328 0)
(-0.175325 0.000221083 0)
(-0.177253 0.00015107 0)
(-0.178455 8.30929e-05 0)
(-0.178988 1.41028e-05 0)
(-0.178793 -5.82621e-05 0)
(-0.177888 -0.000128958 0)
(-0.17627 -0.000200932 0)
(-0.173908 -0.000275278 0)
(-0.17079 -0.000352362 0)
(-0.166901 -0.000427785 0)
(-0.162197 -0.000507849 0)
(-0.156624 -0.00059751 0)
(-0.150193 -0.000682074 0)
(-0.142832 -0.000782063 0)
(-0.134509 -0.000866023 0)
(-0.125284 -0.000960152 0)
(-0.114997 -0.00106842 0)
(-0.103723 -0.00116208 0)
(-0.0915479 -0.00124921 0)
(-0.0783062 -0.00136127 0)
(-0.0641099 -0.00143615 0)
(-0.0491025 -0.00154869 0)
(-0.0331996 -0.0016202 0)
(-0.0164926 -0.00167902 0)
(0.000845196 -0.00174386 0)
(0.0187221 -0.00178931 0)
(0.0369514 -0.00180541 0)
(0.0553554 -0.00182764 0)
(0.073786 -0.00181593 0)
(0.0920146 -0.0017943 0)
(0.109933 -0.00175056 0)
(0.127212 -0.00167711 0)
(0.143666 -0.00159247 0)
(0.159164 -0.00147784 0)
(0.173343 -0.00134865 0)
(0.186158 -0.00119422 0)
(0.197241 -0.00102151 0)
(0.206487 -0.000842361 0)
(0.213886 -0.000630432 0)
(0.21909 -0.000413636 0)
(0.221986 -0.000199809 0)
(0.222667 3.59243e-05 0)
(0.221122 0.000265799 0)
(0.217093 0.000499086 0)
(0.210884 0.00071018 0)
(0.202568 0.000914318 0)
(0.192302 0.00109987 0)
(0.180226 0.00128048 0)
(0.166493 0.00142716 0)
(0.151281 0.00157407 0)
(0.134806 0.00168346 0)
(0.117282 0.00177782 0)
(0.0989978 0.00184698 0)
(0.0801518 0.00188507 0)
(0.06099 0.00190708 0)
(0.0417754 0.00189858 0)
(0.022751 0.00187099 0)
(0.00412438 0.0018238 0)
(-0.0139167 0.00175799 0)
(-0.0311778 0.00167154 0)
(-0.0475235 0.00157282 0)
(-0.0628666 0.0014692 0)
(-0.0771095 0.00135747 0)
(-0.0902268 0.00125155 0)
(-0.102213 0.00113045 0)
(-0.113045 0.00101954 0)
(-0.122774 0.000909331 0)
(-0.131423 0.000800199 0)
(-0.139022 0.000705073 0)
(-0.145616 0.000607713 0)
(-0.151248 0.000520624 0)
(-0.156006 0.000429627 0)
(-0.159934 0.000349502 0)
(-0.163081 0.000266897 0)
(-0.165444 0.00020443 0)
(-0.16708 0.000127249 0)
(-0.168017 6.23744e-05 0)
(-0.16828 -6.68042e-06 0)
(-0.167861 -7.22039e-05 0)
(-0.166812 -0.000135359 0)
(-0.165076 -0.000200755 0)
(-0.162681 -0.000269373 0)
(-0.15966 -0.000333884 0)
(-0.15601 -0.000400277 0)
(-0.151668 -0.000455654 0)
(-0.146661 -0.000527165 0)
(-0.141033 -0.000593629 0)
(-0.134717 -0.000659761 0)
(-0.127704 -0.000724811 0)
(-0.119992 -0.000797527 0)
(-0.111555 -0.000878023 0)
(-0.10236 -0.000944798 0)
(-0.0924043 -0.0010288 0)
(-0.0816575 -0.00110526 0)
(-0.0701028 -0.0011841 0)
(-0.0577601 -0.0012716 0)
(-0.0445817 -0.00133804 0)
(-0.0306152 -0.00142444 0)
(-0.0159292 -0.00150044 0)
(-0.000453183 -0.00155786 0)
(0.0157163 -0.00162886 0)
(0.0323826 -0.00167504 0)
(0.0494615 -0.00171116 0)
(0.0668062 -0.00172863 0)
(0.0842365 -0.0017247 0)
(0.101532 -0.00170446 0)
(0.11851 -0.00165697 0)
(0.134888 -0.0015929 0)
(0.150464 -0.00148917 0)
(0.164914 -0.00137129 0)
(0.177997 -0.00122204 0)
(0.189494 -0.00105333 0)
(0.199146 -0.000857247 0)
(0.206752 -0.000650978 0)
(0.212136 -0.000413924 0)
(0.215116 -0.000172183 0)
(0.215649 6.14084e-05 0)
(0.213744 0.00031648 0)
(0.209234 0.000563691 0)
(0.202407 0.000793374 0)
(0.193268 0.00101714 0)
(0.182006 0.00121435 0)
(0.168853 0.00139136 0)
(0.154051 0.00154093 0)
(0.137869 0.00166527 0)
(0.120602 0.00175316 0)
(0.102604 0.0018196 0)
(0.0840755 0.00185616 0)
(0.0653092 0.00186894 0)
(0.0466089 0.00184549 0)
(0.0281156 0.00180975 0)
(0.0100989 0.00176663 0)
(-0.00726974 0.00169327 0)
(-0.0239008 0.0016095 0)
(-0.0396335 0.00151225 0)
(-0.0544215 0.00142256 0)
(-0.0682398 0.00132272 0)
(-0.0810365 0.00121894 0)
(-0.0928133 0.0011167 0)
(-0.103578 0.00101727 0)
(-0.113336 0.000924246 0)
(-0.122132 0.000823815 0)
(-0.130037 0.000743526 0)
(-0.137102 0.000661291 0)
(-0.143347 0.00057488 0)
(-0.148788 0.000503731 0)
(-0.153438 0.000421836 0)
(-0.157335 0.000346185 0)
(-0.160496 0.000277077 0)
(-0.162932 0.000214898 0)
(-0.16475 0.000145446 0)
(-0.165965 8.91398e-05 0)
(-0.166541 3.6361e-05 0)
(-0.166534 -2.55403e-05 0)
(-0.165977 -8.48364e-05 0)
(-0.164879 -0.00013975 0)
(-0.163254 -0.00017947 0)
(-0.161079 -0.00023705 0)
(-0.158442 -0.000284544 0)
(-0.155285 -0.000341554 0)
(-0.15155 -0.000399102 0)
(-0.147217 -0.000462971 0)
(-0.142223 -0.000525654 0)
(-0.136525 -0.000602989 0)
(-0.130096 -0.000674091 0)
(-0.122858 -0.000758001 0)
(-0.114821 -0.000837135 0)
(-0.105896 -0.000930791 0)
(-0.0960885 -0.00101561 0)
(-0.0853734 -0.00110952 0)
(-0.0737155 -0.00119603 0)
(-0.0612621 -0.0012806 0)
(-0.0479327 -0.00136041 0)
(-0.0338129 -0.00143384 0)
(-0.0189883 -0.00150627 0)
(-0.00347435 -0.00156424 0)
(0.0125856 -0.00161304 0)
(0.0290507 -0.00165039 0)
(0.0457959 -0.00167446 0)
(0.0627117 -0.00167709 0)
(0.0795872 -0.00166719 0)
(0.0962501 -0.00163496 0)
(0.112476 -0.0015825 0)
(0.128081 -0.00150676 0)
(0.14278 -0.00140282 0)
(0.156318 -0.00127828 0)
(0.168451 -0.00112433 0)
(0.178904 -0.000946044 0)
(0.18747 -0.000746799 0)
(0.193927 -0.000532475 0)
(0.198135 -0.000296271 0)
(0.199934 -6.22485e-05 0)
(0.199353 0.00017687 0)
(0.196255 0.000419081 0)
(0.190829 0.000656929 0)
(0.183154 0.00086881 0)
(0.173391 0.00106693 0)
(0.161712 0.00124718 0)
(0.148327 0.00140538 0)
(0.133523 0.00153542 0)
(0.117458 0.00164099 0)
(0.100451 0.00173065 0)
(0.0827617 0.00177955 0)
(0.0646432 0.00180806 0)
(0.0463709 0.00181957 0)
(0.0281508 0.00179513 0)
(0.0102402 0.00176124 0)
(-0.0071928 0.00170234 0)
(-0.0239641 0.00162475 0)
(-0.0399161 0.00154266 0)
(-0.0549763 0.00145064 0)
(-0.069085 0.00135232 0)
(-0.0822181 0.00125627 0)
(-0.0944152 0.00116625 0)
(-0.105725 0.00107149 0)
(-0.116143 0.000986415 0)
(-0.125675 0.000908808 0)
(-0.134376 0.000822522 0)
(-0.142226 0.000734245 0)
(-0.149227 0.000656637 0)
(-0.155434 0.000576666 0)
(-0.160836 0.000498985 0)
(-0.165473 0.00042098 0)
(-0.169363 0.000353891 0)
(-0.172545 0.00028336 0)
(-0.175049 0.000220587 0)
(-0.176902 0.000154132 0)
(-0.178124 9.42203e-05 0)
(-0.178775 3.93038e-05 0)
(-0.178858 -1.63179e-05 0)
(-0.178366 -6.97769e-05 0)
(-0.177333 -0.000127146 0)
(-0.175685 -0.000181021 0)
(-0.173535 -0.000242166 0)
(-0.170764 -0.000298215 0)
(-0.167408 -0.000364805 0)
(-0.163453 -0.000422273 0)
(-0.158739 -0.000498793 0)
(-0.153319 -0.000566496 0)
(-0.147211 -0.000657832 0)
(-0.140095 -0.000735095 0)
(-0.132079 -0.000831773 0)
(-0.123173 -0.000934222 0)
(-0.11318 -0.00103783 0)
(-0.102191 -0.00112123 0)
(-0.0902582 -0.00122192 0)
(-0.0774153 -0.00131724 0)
(-0.0637458 -0.00138973 0)
(-0.0491529 -0.00147831 0)
(-0.0337333 -0.00154501 0)
(-0.0175047 -0.00162121 0)
(-0.000945534 -0.00169652 0)
(0.0159405 -0.00173556 0)
(0.0335435 -0.00178743 0)
(0.0516066 -0.00181905 0)
(0.0699028 -0.00181974 0)
(0.0881889 -0.00181875 0)
(0.10629 -0.00178473 0)
(0.123923 -0.00171382 0)
(0.140791 -0.00163022 0)
(0.156608 -0.00150364 0)
(0.171078 -0.00135862 0)
(0.183904 -0.00118293 0)
(0.19483 -0.000972555 0)
(0.203615 -0.000751857 0)
(0.210072 -0.000515589 0)
(0.214093 -0.000258466 0)
(0.215566 -1.24127e-05 0)
(0.214514 0.000243923 0)
(0.210753 0.000483059 0)
(0.204655 0.000713984 0)
(0.196316 0.000936384 0)
(0.185942 0.00111122 0)
(0.173808 0.00127996 0)
(0.160173 0.00142714 0)
(0.145315 0.00151605 0)
(0.129537 0.00160255 0)
(0.11313 0.00163576 0)
(0.0963618 0.00166839 0)
(0.0794367 0.00167921 0)
(0.0626007 0.00164823 0)
(0.0459854 0.00161985 0)
(0.0296625 0.00158301 0)
(0.0139362 0.00151687 0)
(-0.000814163 0.00145182 0)
(-0.0148309 0.00137829 0)
(-0.0283718 0.00131448 0)
(-0.0412439 0.00124763 0)
(-0.053418 0.00117175 0)
(-0.0648987 0.00110619 0)
(-0.0757004 0.00104149 0)
(-0.0858393 0.000972658 0)
(-0.0953368 0.000911922 0)
(-0.10421 0.000851918 0)
(-0.112469 0.000788569 0)
(-0.120119 0.00072951 0)
(-0.127158 0.000666532 0)
(-0.133577 0.000605515 0)
(-0.139361 0.000542098 0)
(-0.144489 0.000474717 0)
(-0.148937 0.00040646 0)
(-0.152678 0.000335206 0)
(-0.155684 0.000260787 0)
(-0.157938 0.000183526 0)
(-0.159391 0.000104349 0)
(-0.160075 2.53199e-05 0)
(-0.159956 -5.82456e-05 0)
(-0.15896 -0.000142332 0)
(-0.157113 -0.00022703 0)
(-0.154404 -0.000311907 0)
(-0.150832 -0.000398385 0)
(-0.146396 -0.00048329 0)
(-0.141095 -0.000570624 0)
(-0.134931 -0.000654726 0)
(-0.127907 -0.000737647 0)
(-0.120032 -0.000825369 0)
(-0.111303 -0.000906155 0)
(-0.100212 -0.000984982 0)
(0.193406 -0.00338569 0)
(0.202427 -0.00280565 0)
(0.210737 -0.00213655 0)
(0.216772 -0.0014349 0)
(0.220416 -0.00070768 0)
(0.22157 2.92976e-05 0)
(0.220297 0.000752003 0)
(0.216482 0.00148468 0)
(0.210297 0.00219205 0)
(0.201852 0.00282248 0)
(0.191301 0.00343593 0)
(0.178835 0.00400214 0)
(0.16468 0.00441736 0)
(0.14909 0.00484078 0)
(0.132322 0.00508775 0)
(0.114647 0.00535595 0)
(0.0963131 0.00555322 0)
(0.0775753 0.00556747 0)
(0.0586665 0.00561937 0)
(0.0397402 0.00560557 0)
(0.0208786 0.00545048 0)
(0.00277986 0.00529528 0)
(-0.0144605 0.00513484 0)
(-0.0311926 0.00486733 0)
(-0.0471425 0.00463415 0)
(-0.0622124 0.00433092 0)
(-0.0763471 0.00406304 0)
(-0.089511 0.00378095 0)
(-0.101685 0.0034682 0)
(-0.112872 0.00318481 0)
(-0.123082 0.00290106 0)
(-0.132333 0.00261018 0)
(-0.140653 0.00234128 0)
(-0.148071 0.00207188 0)
(-0.154619 0.00182026 0)
(-0.160328 0.00157564 0)
(-0.165229 0.00133613 0)
(-0.169351 0.00110716 0)
(-0.172717 0.000883237 0)
(-0.175353 0.00066384 0)
(-0.177281 0.000451353 0)
(-0.178485 0.000249568 0)
(-0.179017 4.29058e-05 0)
(-0.178822 -0.000174558 0)
(-0.177918 -0.000386874 0)
(-0.176302 -0.000602535 0)
(-0.173941 -0.000825867 0)
(-0.170825 -0.0010569 0)
(-0.166939 -0.00128314 0)
(-0.162236 -0.00152323 0)
(-0.156666 -0.0017922 0)
(-0.150237 -0.002046 0)
(-0.142878 -0.0023458 0)
(-0.134559 -0.00259828 0)
(-0.125337 -0.00288005 0)
(-0.115051 -0.00320484 0)
(-0.103779 -0.00348637 0)
(-0.0916039 -0.00374738 0)
(-0.0783606 -0.00408327 0)
(-0.0641669 -0.00431056 0)
(-0.0491575 -0.00464667 0)
(-0.0332481 -0.00486061 0)
(-0.0165354 -0.00503514 0)
(0.000803894 -0.00523666 0)
(0.0186934 -0.00536527 0)
(0.0369257 -0.00542017 0)
(0.0553444 -0.00548384 0)
(0.073784 -0.00544653 0)
(0.0920239 -0.005385 0)
(0.109957 -0.00524774 0)
(0.127236 -0.00504101 0)
(0.143718 -0.00477318 0)
(0.159218 -0.00444102 0)
(0.173415 -0.004044 0)
(0.186242 -0.00357757 0)
(0.197324 -0.00307623 0)
(0.206592 -0.00252185 0)
(0.213994 -0.00189272 0)
(0.219202 -0.00123912 0)
(0.222105 -0.00060072 0)
(0.222791 0.000101213 0)
(0.221233 0.000799675 0)
(0.217206 0.00149436 0)
(0.211002 0.00212428 0)
(0.202685 0.00274911 0)
(0.192407 0.00330055 0)
(0.180328 0.00383959 0)
(0.166589 0.00428795 0)
(0.151362 0.00472288 0)
(0.134873 0.00504708 0)
(0.117337 0.00533362 0)
(0.0990341 0.00553858 0)
(0.0801716 0.00565595 0)
(0.0609948 0.00572104 0)
(0.0417644 0.00570172 0)
(0.0227175 0.00561951 0)
(0.0040713 0.00546582 0)
(-0.0139839 0.00526511 0)
(-0.0312502 0.00501024 0)
(-0.0476017 0.00472452 0)
(-0.0629549 0.00440737 0)
(-0.0772038 0.00406975 0)
(-0.0903215 0.00374968 0)
(-0.102301 0.00339615 0)
(-0.113138 0.00305674 0)
(-0.122865 0.0027252 0)
(-0.131512 0.00240096 0)
(-0.139113 0.0021127 0)
(-0.145712 0.00182094 0)
(-0.15134 0.00155653 0)
(-0.156092 0.00129087 0)
(-0.160025 0.0010451 0)
(-0.163167 0.000805102 0)
(-0.16553 0.000609773 0)
(-0.167168 0.000378511 0)
(-0.168107 0.000187497 0)
(-0.168375 -2.43959e-05 0)
(-0.16796 -0.000223467 0)
(-0.166915 -0.000415231 0)
(-0.165181 -0.000603187 0)
(-0.162785 -0.00080294 0)
(-0.159767 -0.00100098 0)
(-0.156119 -0.00120193 0)
(-0.151777 -0.00136333 0)
(-0.146772 -0.001577 0)
(-0.141144 -0.00177737 0)
(-0.134833 -0.00197752 0)
(-0.127838 -0.00219065 0)
(-0.12012 -0.0023985 0)
(-0.111681 -0.00261953 0)
(-0.102503 -0.00284694 0)
(-0.0925422 -0.00308143 0)
(-0.0817984 -0.00330732 0)
(-0.0702517 -0.00355658 0)
(-0.0579082 -0.00380882 0)
(-0.0447346 -0.0040244 0)
(-0.0307634 -0.00426955 0)
(-0.0160816 -0.00451645 0)
(-0.000597448 -0.00467584 0)
(0.015575 -0.00487677 0)
(0.0322427 -0.00503116 0)
(0.0493289 -0.00513615 0)
(0.0666888 -0.00518508 0)
(0.0841175 -0.00518524 0)
(0.101443 -0.00511148 0)
(0.118417 -0.00498408 0)
(0.134826 -0.00477477 0)
(0.150411 -0.0044766 0)
(0.164875 -0.00411351 0)
(0.177974 -0.00367257 0)
(0.189481 -0.00315593 0)
(0.199148 -0.0025863 0)
(0.206772 -0.00194614 0)
(0.212152 -0.00124826 0)
(0.215143 -0.000537894 0)
(0.215709 0.000203014 0)
(0.213781 0.000938774 0)
(0.209281 0.00168621 0)
(0.202453 0.00237901 0)
(0.193309 0.00304614 0)
(0.182045 0.00364061 0)
(0.168886 0.00417644 0)
(0.154065 0.00463231 0)
(0.137863 0.00498781 0)
(0.120594 0.00526263 0)
(0.102584 0.00546588 0)
(0.0840352 0.00556342 0)
(0.0652597 0.00559082 0)
(0.0465625 0.00554553 0)
(0.0280589 0.00543975 0)
(0.0100228 0.00529467 0)
(-0.00735034 0.00506638 0)
(-0.0239786 0.00482766 0)
(-0.0397145 0.00454961 0)
(-0.0545159 0.00426249 0)
(-0.068334 0.00396165 0)
(-0.0811295 0.00365705 0)
(-0.0929091 0.00334978 0)
(-0.103678 0.00304238 0)
(-0.113428 0.00276687 0)
(-0.122217 0.00248581 0)
(-0.130136 0.002227 0)
(-0.137193 0.00197539 0)
(-0.143433 0.00173718 0)
(-0.148885 0.00150621 0)
(-0.153527 0.00126581 0)
(-0.157421 0.00104762 0)
(-0.160587 0.00082563 0)
(-0.163024 0.000645647 0)
(-0.164849 0.000435418 0)
(-0.166062 0.000260938 0)
(-0.166638 0.000101846 0)
(-0.166635 -8.12606e-05 0)
(-0.166079 -0.000254596 0)
(-0.164983 -0.00042081 0)
(-0.163362 -0.000541166 0)
(-0.16119 -0.000714534 0)
(-0.158557 -0.000857526 0)
(-0.155404 -0.0010233 0)
(-0.151672 -0.00119006 0)
(-0.147344 -0.00138916 0)
(-0.142354 -0.00157889 0)
(-0.136654 -0.0018057 0)
(-0.130231 -0.00201689 0)
(-0.123009 -0.00227936 0)
(-0.114974 -0.00251197 0)
(-0.106052 -0.00279091 0)
(-0.0962521 -0.00305969 0)
(-0.0855274 -0.00331279 0)
(-0.0738739 -0.00358322 0)
(-0.0614204 -0.00384416 0)
(-0.0480918 -0.00408984 0)
(-0.0339635 -0.00430041 0)
(-0.0191357 -0.00451566 0)
(-0.00361959 -0.00470174 0)
(0.0124519 -0.00484397 0)
(0.0289236 -0.00494924 0)
(0.045677 -0.00502046 0)
(0.0625934 -0.00503777 0)
(0.0794838 -0.00500847 0)
(0.0961543 -0.00490607 0)
(0.112394 -0.00475497 0)
(0.128015 -0.00452014 0)
(0.14273 -0.004218 0)
(0.156292 -0.00383292 0)
(0.168436 -0.0033808 0)
(0.178908 -0.00284146 0)
(0.187485 -0.00224674 0)
(0.193952 -0.00159334 0)
(0.198163 -0.000906854 0)
(0.199988 -0.000183035 0)
(0.1994 0.000528533 0)
(0.196296 0.00125954 0)
(0.190871 0.00196516 0)
(0.1832 0.00260451 0)
(0.173435 0.00320782 0)
(0.161743 0.00373754 0)
(0.148346 0.00420469 0)
(0.133533 0.00461006 0)
(0.11746 0.00492956 0)
(0.100437 0.00518096 0)
(0.0827411 0.00534248 0)
(0.0646084 0.00542247 0)
(0.0463293 0.00545668 0)
(0.0280984 0.00539449 0)
(0.0101715 0.00527311 0)
(-0.00726045 0.00510514 0)
(-0.0240387 0.00488298 0)
(-0.0400052 0.00462682 0)
(-0.0550691 0.00434508 0)
(-0.0691815 0.00405754 0)
(-0.082319 0.00376936 0)
(-0.0945141 0.00349484 0)
(-0.105826 0.0032243 0)
(-0.116249 0.00295883 0)
(-0.12578 0.00272276 0)
(-0.134481 0.0024631 0)
(-0.142331 0.00221498 0)
(-0.149345 0.00196617 0)
(-0.155552 0.00172518 0)
(-0.160947 0.00149229 0)
(-0.16558 0.00127311 0)
(-0.169475 0.00105652 0)
(-0.17265 0.00085049 0)
(-0.175149 0.000657694 0)
(-0.176992 0.000460848 0)
(-0.17821 0.000284203 0)
(-0.178853 0.000116991 0)
(-0.178926 -5.45222e-05 0)
(-0.178435 -0.000214619 0)
(-0.177393 -0.000375028 0)
(-0.175747 -0.000547997 0)
(-0.173589 -0.000722692 0)
(-0.170819 -0.000894231 0)
(-0.167461 -0.00109393 0)
(-0.163511 -0.00127211 0)
(-0.158789 -0.0014931 0)
(-0.153377 -0.00169793 0)
(-0.147269 -0.00197526 0)
(-0.140151 -0.00220207 0)
(-0.132149 -0.0025 0)
(-0.123235 -0.0028046 0)
(-0.11324 -0.00311032 0)
(-0.102253 -0.00336748 0)
(-0.090317 -0.00366325 0)
(-0.0774727 -0.00395135 0)
(-0.0637963 -0.00416516 0)
(-0.0492073 -0.00444189 0)
(-0.0337765 -0.00463251 0)
(-0.0175522 -0.00486605 0)
(-0.000985054 -0.00509099 0)
(0.0159095 -0.00520526 0)
(0.0335163 -0.00536198 0)
(0.0515877 -0.00545819 0)
(0.0698926 -0.00545903 0)
(0.0881908 -0.00545863 0)
(0.1063 -0.00535391 0)
(0.12395 -0.00514401 0)
(0.140833 -0.00489974 0)
(0.156661 -0.00451582 0)
(0.171143 -0.00407755 0)
(0.183982 -0.00355205 0)
(0.194915 -0.00292555 0)
(0.203713 -0.00225714 0)
(0.21018 -0.00154248 0)
(0.214204 -0.000771029 0)
(0.215676 -3.78685e-05 0)
(0.214617 0.000731033 0)
(0.21085 0.00144909 0)
(0.204751 0.00214227 0)
(0.196405 0.00280987 0)
(0.18602 0.00333459 0)
(0.173875 0.00384088 0)
(0.160229 0.00428255 0)
(0.145359 0.00454923 0)
(0.129569 0.00480876 0)
(0.113151 0.00490828 0)
(0.0963726 0.00500613 0)
(0.0794388 0.00503842 0)
(0.0625952 0.0049454 0)
(0.0459741 0.00486007 0)
(0.0296466 0.00474942 0)
(0.0139148 0.00455124 0)
(-0.000838037 0.00435529 0)
(-0.0148544 0.00413504 0)
(-0.0283968 0.00394356 0)
(-0.0412697 0.00374293 0)
(-0.0534434 0.00351524 0)
(-0.0649239 0.00331854 0)
(-0.0757251 0.00312442 0)
(-0.0858632 0.00291792 0)
(-0.0953603 0.00273575 0)
(-0.104233 0.00255575 0)
(-0.112492 0.00236572 0)
(-0.120142 0.00218857 0)
(-0.127181 0.00199965 0)
(-0.133601 0.00181662 0)
(-0.139387 0.00162636 0)
(-0.144516 0.00142423 0)
(-0.148964 0.00121945 0)
(-0.152706 0.00100565 0)
(-0.155713 0.000782325 0)
(-0.157968 0.000550651 0)
(-0.159424 0.000312893 0)
(-0.160107 7.54444e-05 0)
(-0.159989 -0.000174591 0)
(-0.158994 -0.000427103 0)
(-0.157147 -0.000681153 0)
(-0.154438 -0.000935781 0)
(-0.150866 -0.00119522 0)
(-0.14643 -0.00144993 0)
(-0.141129 -0.00171193 0)
(-0.134965 -0.00196422 0)
(-0.127941 -0.00221298 0)
(-0.120065 -0.00247615 0)
(-0.111336 -0.00271852 0)
(-0.100244 -0.00295502 0)
(0.19356 -0.00564554 0)
(0.202596 -0.00467842 0)
(0.210917 -0.00356273 0)
(0.216961 -0.00239306 0)
(0.220608 -0.00118135 0)
(0.221772 4.91649e-05 0)
(0.220489 0.00125568 0)
(0.216666 0.0024764 0)
(0.210477 0.00365526 0)
(0.202016 0.00470645 0)
(0.191452 0.00572931 0)
(0.178969 0.00667336 0)
(0.164793 0.00736553 0)
(0.149183 0.00807142 0)
(0.132392 0.008483 0)
(0.114697 0.00892995 0)
(0.0963443 0.00925865 0)
(0.0775874 0.00928209 0)
(0.0586612 0.0093683 0)
(0.0397198 0.0093449 0)
(0.0208409 0.00908616 0)
(0.0027301 0.00882728 0)
(-0.0145161 0.0085597 0)
(-0.0312562 0.0081134 0)
(-0.047213 0.00772444 0)
(-0.0622861 0.00721876 0)
(-0.076424 0.00677203 0)
(-0.0895895 0.00630168 0)
(-0.101762 0.00578023 0)
(-0.112949 0.00530781 0)
(-0.123158 0.0048348 0)
(-0.132407 0.00434993 0)
(-0.140724 0.00390172 0)
(-0.148139 0.00345273 0)
(-0.154685 0.00303333 0)
(-0.160392 0.0026257 0)
(-0.165291 0.00222669 0)
(-0.169411 0.00184506 0)
(-0.172775 0.00147215 0)
(-0.175408 0.00110693 0)
(-0.177334 0.000753318 0)
(-0.178546 0.000414589 0)
(-0.179074 7.12318e-05 0)
(-0.178878 -0.000290914 0)
(-0.177975 -0.000644869 0)
(-0.17636 -0.0010036 0)
(-0.174 -0.00137678 0)
(-0.170886 -0.00176112 0)
(-0.167002 -0.00213818 0)
(-0.162301 -0.00253825 0)
(-0.156734 -0.00298638 0)
(-0.150308 -0.00340981 0)
(-0.142951 -0.00390914 0)
(-0.134634 -0.00433132 0)
(-0.125414 -0.00479896 0)
(-0.115129 -0.00534134 0)
(-0.103857 -0.00581111 0)
(-0.0916798 -0.00624587 0)
(-0.0784326 -0.00680636 0)
(-0.0642389 -0.00718738 0)
(-0.0492261 -0.00774215 0)
(-0.0333057 -0.00810339 0)
(-0.0165845 -0.00839472 0)
(0.000765671 -0.00872597 0)
(0.0186622 -0.0089476 0)
(0.0369095 -0.00903404 0)
(0.0553424 -0.0091419 0)
(0.0737936 -0.00908298 0)
(0.0920523 -0.00897671 0)
(0.109997 -0.00875286 0)
(0.127299 -0.00839897 0)
(0.143793 -0.00796455 0)
(0.159311 -0.00740281 0)
(0.173524 -0.00674549 0)
(0.186366 -0.00596955 0)
(0.197463 -0.00512286 0)
(0.206746 -0.00421022 0)
(0.214156 -0.00315847 0)
(0.219364 -0.00207085 0)
(0.222286 -0.00100312 0)
(0.222978 0.000171718 0)
(0.221388 0.00133425 0)
(0.217375 0.00249106 0)
(0.211164 0.00354558 0)
(0.20283 0.00458097 0)
(0.192543 0.00550331 0)
(0.180443 0.0064076 0)
(0.166683 0.00714624 0)
(0.151436 0.00787512 0)
(0.13492 0.00841832 0)
(0.117361 0.00889445 0)
(0.0990223 0.00923808 0)
(0.0801295 0.0094335 0)
(0.0609249 0.00954198 0)
(0.041661 0.00950669 0)
(0.0225886 0.00936372 0)
(0.0039246 0.00911566 0)
(-0.014148 0.00878579 0)
(-0.0314356 0.00835948 0)
(-0.0478055 0.00786966 0)
(-0.0631688 0.00734634 0)
(-0.0774232 0.00679219 0)
(-0.0905466 0.00624673 0)
(-0.102528 0.0056589 0)
(-0.113356 0.00509389 0)
(-0.123082 0.00454686 0)
(-0.131722 0.00400351 0)
(-0.139326 0.00351253 0)
(-0.145916 0.0030381 0)
(-0.151547 0.0025971 0)
(-0.156299 0.00215017 0)
(-0.160232 0.00174727 0)
(-0.163363 0.00134191 0)
(-0.165728 0.00101012 0)
(-0.16737 0.000636274 0)
(-0.168306 0.000313048 0)
(-0.168573 -4.10058e-05 0)
(-0.168155 -0.000366796 0)
(-0.167112 -0.000696332 0)
(-0.165381 -0.000996169 0)
(-0.162987 -0.00134347 0)
(-0.159964 -0.00166772 0)
(-0.156306 -0.00199953 0)
(-0.151965 -0.00227878 0)
(-0.146962 -0.00263051 0)
(-0.14133 -0.00296263 0)
(-0.135019 -0.00329294 0)
(-0.128029 -0.00363813 0)
(-0.120324 -0.00399765 0)
(-0.111883 -0.00437058 0)
(-0.102702 -0.00473784 0)
(-0.0927518 -0.00513877 0)
(-0.0820068 -0.00551405 0)
(-0.0704667 -0.00592758 0)
(-0.058115 -0.00634401 0)
(-0.0449346 -0.0067096 0)
(-0.0309658 -0.00711337 0)
(-0.0162726 -0.00751679 0)
(-0.000797375 -0.00780389 0)
(0.015378 -0.00813571 0)
(0.0320576 -0.00838487 0)
(0.0491591 -0.00855621 0)
(0.0665274 -0.00865563 0)
(0.0839854 -0.00863751 0)
(0.101325 -0.00852828 0)
(0.118328 -0.00830276 0)
(0.134763 -0.00795577 0)
(0.150362 -0.00747031 0)
(0.164851 -0.00686059 0)
(0.177969 -0.00612235 0)
(0.189493 -0.00527319 0)
(0.199186 -0.00429909 0)
(0.206809 -0.00324458 0)
(0.212196 -0.00209419 0)
(0.215215 -0.000887669 0)
(0.215784 0.000329625 0)
(0.213841 0.00157345 0)
(0.209357 0.00281364 0)
(0.202511 0.0039674 0)
(0.193344 0.00508227 0)
(0.182073 0.00606912 0)
(0.168904 0.00697103 0)
(0.15405 0.00771937 0)
(0.137821 0.00831803 0)
(0.120525 0.00877645 0)
(0.102482 0.00910962 0)
(0.0839147 0.00927517 0)
(0.0651295 0.00932985 0)
(0.0464073 0.00924884 0)
(0.0278823 0.00906474 0)
(0.0098364 0.00882356 0)
(-0.00754429 0.00845653 0)
(-0.0241887 0.00805007 0)
(-0.0399344 0.00757692 0)
(-0.0547329 0.00710577 0)
(-0.0685542 0.00660543 0)
(-0.0813606 0.00609822 0)
(-0.0931461 0.00557679 0)
(-0.103898 0.00506778 0)
(-0.11365 0.00462394 0)
(-0.122441 0.00413268 0)
(-0.130346 0.00371255 0)
(-0.137402 0.00330039 0)
(-0.143646 0.00288754 0)
(-0.149101 0.00250974 0)
(-0.15374 0.00210948 0)
(-0.157631 0.00174043 0)
(-0.160787 0.00138419 0)
(-0.163226 0.00107508 0)
(-0.165049 0.000724157 0)
(-0.166251 0.000434194 0)
(-0.166821 0.00017895 0)
(-0.166819 -0.000131791 0)
(-0.16626 -0.000425143 0)
(-0.165156 -0.000698465 0)
(-0.163538 -0.000907878 0)
(-0.161373 -0.00118297 0)
(-0.158749 -0.00142591 0)
(-0.155599 -0.00170821 0)
(-0.151868 -0.00198256 0)
(-0.147542 -0.00231598 0)
(-0.142552 -0.0026331 0)
(-0.136851 -0.00300602 0)
(-0.130433 -0.00336263 0)
(-0.123212 -0.00379292 0)
(-0.115185 -0.00419936 0)
(-0.106268 -0.00464284 0)
(-0.0964704 -0.00510162 0)
(-0.0857571 -0.00552306 0)
(-0.0740997 -0.00597031 0)
(-0.0616395 -0.00641448 0)
(-0.0482943 -0.00680618 0)
(-0.0341668 -0.0071722 0)
(-0.0193349 -0.00753446 0)
(-0.0037982 -0.00782894 0)
(0.0122806 -0.00807075 0)
(0.0287505 -0.0082613 0)
(0.0455234 -0.00837109 0)
(0.0624571 -0.00840057 0)
(0.0793713 -0.00834111 0)
(0.0960536 -0.00819162 0)
(0.112314 -0.00791397 0)
(0.127943 -0.00754159 0)
(0.142684 -0.00702788 0)
(0.156268 -0.00639823 0)
(0.168439 -0.00564096 0)
(0.178938 -0.0047372 0)
(0.187522 -0.00374234 0)
(0.194 -0.00266963 0)
(0.198239 -0.00150009 0)
(0.200074 -0.000309081 0)
(0.199467 0.00088508 0)
(0.196357 0.0020998 0)
(0.19093 0.00327666 0)
(0.183246 0.00434092 0)
(0.173463 0.00534611 0)
(0.161753 0.00623184 0)
(0.148344 0.0070216 0)
(0.133501 0.00768929 0)
(0.117403 0.00821442 0)
(0.10036 0.0086423 0)
(0.0826359 0.00890648 0)
(0.0644888 0.00904633 0)
(0.0461889 0.00909382 0)
(0.0279402 0.00899101 0)
(0.0100079 0.00879324 0)
(-0.00744093 0.00851365 0)
(-0.0242396 0.00814089 0)
(-0.0402163 0.00771018 0)
(-0.0552865 0.00724803 0)
(-0.0694046 0.00676564 0)
(-0.0825436 0.00628252 0)
(-0.0947427 0.00582418 0)
(-0.106058 0.00537003 0)
(-0.116466 0.00493031 0)
(-0.125992 0.00454192 0)
(-0.134698 0.00410729 0)
(-0.142549 0.00368681 0)
(-0.149559 0.00327861 0)
(-0.155759 0.00287781 0)
(-0.161148 0.00248799 0)
(-0.165773 0.00211613 0)
(-0.169653 0.00176369 0)
(-0.17281 0.00141511 0)
(-0.175297 0.00109535 0)
(-0.177129 0.000769404 0)
(-0.178338 0.000471375 0)
(-0.178968 0.000194673 0)
(-0.179022 -8.8863e-05 0)
(-0.178522 -0.000356339 0)
(-0.17748 -0.000632019 0)
(-0.175823 -0.000910594 0)
(-0.173663 -0.00121036 0)
(-0.170886 -0.00148759 0)
(-0.16753 -0.00182543 0)
(-0.16357 -0.00211445 0)
(-0.158858 -0.00249514 0)
(-0.153451 -0.00283069 0)
(-0.147342 -0.0032934 0)
(-0.140225 -0.00366942 0)
(-0.132233 -0.00416316 0)
(-0.123321 -0.00467884 0)
(-0.113324 -0.00517868 0)
(-0.102332 -0.0056116 0)
(-0.0904012 -0.00611079 0)
(-0.0775474 -0.00658296 0)
(-0.0638673 -0.0069457 0)
(-0.0492708 -0.00739958 0)
(-0.033836 -0.00772555 0)
(-0.0176104 -0.00810983 0)
(-0.00103635 -0.00848625 0)
(0.0158704 -0.00867965 0)
(0.0334863 -0.00893932 0)
(0.0515704 -0.00909946 0)
(0.069891 -0.00910427 0)
(0.0882067 -0.00909754 0)
(0.106338 -0.00893856 0)
(0.124011 -0.00857007 0)
(0.140919 -0.00815435 0)
(0.156771 -0.00752469 0)
(0.171273 -0.00679968 0)
(0.184134 -0.00592391 0)
(0.195091 -0.0048741 0)
(0.2039 -0.00376339 0)
(0.210378 -0.00257435 0)
(0.214409 -0.00128885 0)
(0.215886 -6.21068e-05 0)
(0.214801 0.00121899 0)
(0.21103 0.0024154 0)
(0.204925 0.00357237 0)
(0.196565 0.00468615 0)
(0.186159 0.00556119 0)
(0.173993 0.00640519 0)
(0.160325 0.00714151 0)
(0.145431 0.00758571 0)
(0.129619 0.0080183 0)
(0.113179 0.00818367 0)
(0.0963822 0.00834655 0)
(0.0794319 0.00839983 0)
(0.0625739 0.00824446 0)
(0.0459422 0.00810165 0)
(0.0296065 0.00791667 0)
(0.0138647 0.00758704 0)
(-0.000892465 0.00725861 0)
(-0.0149072 0.00689221 0)
(-0.0284521 0.00657285 0)
(-0.0413258 0.00623821 0)
(-0.0534984 0.00585858 0)
(-0.0649778 0.00553069 0)
(-0.0757777 0.00520712 0)
(-0.0859138 0.00486297 0)
(-0.0954097 0.00455941 0)
(-0.104282 0.00425948 0)
(-0.112539 0.00394285 0)
(-0.12019 0.00364771 0)
(-0.12723 0.00333292 0)
(-0.133652 0.00302793 0)
(-0.139439 0.00271089 0)
(-0.144569 0.00237405 0)
(-0.14902 0.00203275 0)
(-0.152764 0.00167633 0)
(-0.155773 0.001304 0)
(-0.158027 0.000918334 0)
(-0.15949 0.000521199 0)
(-0.160173 0.000125434 0)
(-0.160055 -0.000290746 0)
(-0.159061 -0.000711846 0)
(-0.157214 -0.00113523 0)
(-0.154505 -0.00155967 0)
(-0.150935 -0.00199208 0)
(-0.146498 -0.00241664 0)
(-0.141197 -0.00285331 0)
(-0.135033 -0.00327379 0)
(-0.128007 -0.0036884 0)
(-0.120132 -0.00412705 0)
(-0.111402 -0.00453105 0)
(-0.100308 -0.00492528 0)
(0.19379 -0.00790942 0)
(0.202849 -0.0065547 0)
(0.211187 -0.00499163 0)
(0.217244 -0.00335337 0)
(0.220899 -0.0016569 0)
(0.222075 6.60345e-05 0)
(0.220772 0.0017659 0)
(0.216946 0.00347098 0)
(0.210747 0.00512131 0)
(0.202263 0.00659393 0)
(0.191677 0.00802685 0)
(0.179171 0.00934932 0)
(0.164961 0.0103186 0)
(0.149323 0.0113073 0)
(0.132498 0.0118834 0)
(0.114773 0.012509 0)
(0.0963909 0.012969 0)
(0.0776054 0.0130011 0)
(0.0586532 0.0131212 0)
(0.0396891 0.0130876 0)
(0.0207843 0.0127242 0)
(0.0026554 0.0123627 0)
(-0.0145995 0.0119872 0)
(-0.0313519 0.0113613 0)
(-0.0473189 0.010816 0)
(-0.0623967 0.0101074 0)
(-0.0765394 0.0094815 0)
(-0.0897073 0.00882256 0)
(-0.101879 0.00809215 0)
(-0.113065 0.00743049 0)
(-0.123272 0.00676807 0)
(-0.132517 0.00608912 0)
(-0.140831 0.00546153 0)
(-0.148242 0.00483301 0)
(-0.154784 0.00424587 0)
(-0.160488 0.00367537 0)
(-0.165383 0.0031169 0)
(-0.1695 0.00258292 0)
(-0.172861 0.00206177 0)
(-0.175491 0.00155151 0)
(-0.177415 0.00105537 0)
(-0.178633 0.000578202 0)
(-0.179164 9.39212e-05 0)
(-0.178962 -0.000408193 0)
(-0.17806 -0.000903157 0)
(-0.176448 -0.00140447 0)
(-0.174089 -0.00192711 0)
(-0.170978 -0.00246485 0)
(-0.167097 -0.00299262 0)
(-0.162399 -0.00355273 0)
(-0.156837 -0.00417966 0)
(-0.150415 -0.00477336 0)
(-0.14306 -0.00547164 0)
(-0.134748 -0.00606488 0)
(-0.12553 -0.00671742 0)
(-0.115247 -0.00747751 0)
(-0.103975 -0.00813694 0)
(-0.0917939 -0.00874453 0)
(-0.0785415 -0.00953012 0)
(-0.0643479 -0.0100705 0)
(-0.0493288 -0.0108359 0)
(-0.0333919 -0.0113471 0)
(-0.0166594 -0.0117551 0)
(0.00070499 -0.0122222 0)
(0.0186185 -0.0125309 0)
(0.0368854 -0.0126537 0)
(0.0553349 -0.0128076 0)
(0.0738118 -0.0127184 0)
(0.09209 -0.0125773 0)
(0.110062 -0.0122608 0)
(0.127388 -0.0117718 0)
(0.143904 -0.0111537 0)
(0.159452 -0.0103805 0)
(0.173684 -0.00944662 0)
(0.186554 -0.00836243 0)