/*--------------------------------*- C++ -*----------------------------------*\
| =========                 |                                                 |
| \\      /  F ield         | OpenFOAM: The Open Source CFD Toolbox           |
|  \\    /   O peration     | Version:  3.0.1                                 |
|   \\  /    A nd           | Web:      www.OpenFOAM.org                      |
|    \\/     M anipulation  |                                                 |
\*---------------------------------------------------------------------------*/
FoamFile
{
    version     2.0;
    format      ascii;
    class       volVectorField;
    location    "21.6";
    object      U;
}
// * * * * * * * * * * * * * * * * * * * * * * * * * * * * * * * * * * * * * //

dimensions      [0 1 -1 0 0 0 0];

internalField   nonuniform List<vector> 
21420
(
(-0.17915 -0.000170214 0)
(-0.177332 -0.000241788 0)
(-0.17453 -0.000314083 0)
(-0.170986 -0.000388188 0)
(-0.166679 -0.000466201 0)
(-0.161582 -0.000545343 0)
(-0.155664 -0.000630241 0)
(-0.148894 -0.000715319 0)
(-0.141237 -0.00080286 0)
(-0.132663 -0.000899202 0)
(-0.123143 -0.000991776 0)
(-0.112652 -0.00108522 0)
(-0.101171 -0.00119083 0)
(-0.0886942 -0.00128465 0)
(-0.0752264 -0.00139261 0)
(-0.0607892 -0.00148114 0)
(-0.0454183 -0.00156317 0)
(-0.0291428 -0.00166194 0)
(-0.0120616 -0.00173023 0)
(0.00566436 -0.00177838 0)
(0.0239575 -0.00184891 0)
(0.0426908 -0.00186947 0)
(0.061652 -0.00186817 0)
(0.0806341 -0.0018825 0)
(0.0994139 -0.00183708 0)
(0.117744 -0.00180066 0)
(0.135373 -0.00170631 0)
(0.152025 -0.00158627 0)
(0.167432 -0.00146393 0)
(0.18135 -0.00129742 0)
(0.193539 -0.00111066 0)
(0.203781 -0.000911707 0)
(0.211899 -0.000689412 0)
(0.217747 -0.000454673 0)
(0.221197 -0.000215236 0)
(0.222189 3.10801e-05 0)
(0.220766 0.000272943 0)
(0.216737 0.000519429 0)
(0.210356 0.000758079 0)
(0.201694 0.000961652 0)
(0.190925 0.00116863 0)
(0.178253 0.00132887 0)
(0.163913 0.00149001 0)
(0.148103 0.00163241 0)
(0.131083 0.00171576 0)
(0.113148 0.00180252 0)
(0.0945298 0.00186518 0)
(0.0754861 0.00187516 0)
(0.0562889 0.00189117 0)
(0.03695 0.00187895 0)
(0.018017 0.00183314 0)
(0.000113509 0.00178833 0)
(-0.0172236 0.00171562 0)
(-0.0341545 0.00164635 0)
(-0.0503556 0.0015654 0)
(-0.0657084 0.00147056 0)
(-0.0801577 0.00137835 0)
(-0.0936483 0.00128086 0)
(-0.106152 0.00117975 0)
(-0.117657 0.00108117 0)
(-0.128183 0.000980775 0)
(-0.137758 0.000888238 0)
(-0.146345 0.000791434 0)
(-0.153977 0.000700701 0)
(-0.160728 0.000613687 0)
(-0.166584 0.000523577 0)
(-0.171568 0.00044156 0)
(-0.175719 0.000362081 0)
(-0.179032 0.000279283 0)
(-0.18158 0.00021144 0)
(-0.183386 0.000131979 0)
(-0.184438 6.1037e-05 0)
(-0.184818 -2.03256e-06 0)
(-0.184421 -8.27943e-05 0)
(-0.183241 -0.000165012 0)
(-0.181309 -0.00023713 0)
(-0.178534 -0.000329625 0)
(-0.174997 -0.000403449 0)
(-0.170746 -0.000478916 0)
(-0.165459 -0.000564547 0)
(-0.159258 -0.000650277 0)
(-0.152386 -0.000733077 0)
(-0.144749 -0.000815472 0)
(-0.136088 -0.000890947 0)
(-0.126585 -0.000978987 0)
(-0.116468 -0.00106227 0)
(-0.105446 -0.00112628 0)
(-0.09358 -0.00121344 0)
(-0.0809845 -0.00129076 0)
(-0.067598 -0.00136205 0)
(-0.0534461 -0.00144559 0)
(-0.0385649 -0.00151252 0)
(-0.0230382 -0.00157504 0)
(-0.00687066 -0.00163338 0)
(0.00990294 -0.00168304 0)
(0.0271681 -0.00172654 0)
(0.0447117 -0.00175189 0)
(0.0623785 -0.00176091 0)
(0.0801223 -0.00174793 0)
(0.0975523 -0.00170872 0)
(0.114462 -0.00164523 0)
(0.130748 -0.00157585 0)
(0.146073 -0.00146642 0)
(0.160233 -0.00133962 0)
(0.173054 -0.0011954 0)
(0.184253 -0.00102227 0)
(0.193653 -0.000837738 0)
(0.201071 -0.000625617 0)
(0.206301 -0.00040988 0)
(0.209282 -0.000183441 0)
(0.209947 5.19931e-05 0)
(0.208265 0.000286829 0)
(0.204068 0.000526708 0)
(0.197602 0.000755069 0)
(0.188883 0.000969788 0)
(0.178027 0.00117847 0)
(0.165245 0.00136026 0)
(0.150702 0.00151697 0)
(0.134676 0.00165364 0)
(0.117483 0.00175731 0)
(0.0993536 0.00183461 0)
(0.0805616 0.001885 0)
(0.061399 0.00191195 0)
(0.042119 0.00191213 0)
(0.0229675 0.00189072 0)
(0.00412611 0.00184985 0)
(-0.0141958 0.0017874 0)
(-0.0318722 0.00171781 0)
(-0.0487667 0.00163313 0)
(-0.0647232 0.00153505 0)
(-0.0796386 0.00143256 0)
(-0.0934895 0.00132179 0)
(-0.106278 0.00121066 0)
(-0.117953 0.00109713 0)
(-0.128435 0.000991693 0)
(-0.13781 0.000876051 0)
(-0.146132 0.000774844 0)
(-0.153421 0.000669088 0)
(-0.159725 0.000578417 0)
(-0.165085 0.000487477 0)
(-0.169562 0.000406584 0)
(-0.173261 0.000329191 0)
(-0.176221 0.000253317 0)
(-0.178448 0.000188652 0)
(-0.180036 0.000123793 0)
(-0.18098 6.56477e-05 0)
(-0.181276 -1.87595e-07 0)
(-0.180926 -6.67755e-05 0)
(-0.180037 -0.000122348 0)
(-0.178533 -0.000166797 0)
(-0.176484 -0.000226357 0)
(-0.173775 -0.000304654 0)
(-0.170466 -0.000358789 0)
(-0.16664 -0.00042105 0)
(-0.161986 -0.00048861 0)
(-0.156581 -0.000572123 0)
(-0.150467 -0.000646235 0)
(-0.143484 -0.000738065 0)
(-0.135696 -0.000810792 0)
(-0.127033 -0.000904948 0)
(-0.11739 -0.00099639 0)
(-0.10685 -0.00109143 0)
(-0.0953718 -0.00118783 0)
(-0.0829424 -0.00128142 0)
(-0.0695699 -0.00137611 0)
(-0.0552869 -0.00146326 0)
(-0.0401285 -0.00153257 0)
(-0.0241814 -0.00161695 0)
(-0.00749862 -0.00168354 0)
(0.00974666 -0.0017351 0)
(0.0274212 -0.00177381 0)
(0.0454858 -0.00179992 0)
(0.0636497 -0.00180434 0)
(0.0816993 -0.00177161 0)
(0.0994162 -0.00174031 0)
(0.116622 -0.00167514 0)
(0.133182 -0.00159524 0)
(0.148703 -0.00147527 0)
(0.162857 -0.00133627 0)
(0.175527 -0.00116647 0)
(0.18637 -0.000979306 0)
(0.195227 -0.000771549 0)
(0.201894 -0.000551425 0)
(0.206231 -0.000308615 0)
(0.208167 -7.69882e-05 0)
(0.207748 0.000166596 0)
(0.204753 0.000406654 0)
(0.199418 0.000640946 0)
(0.191861 0.000861732 0)
(0.182193 0.00105731 0)
(0.170614 0.00123878 0)
(0.157307 0.00139382 0)
(0.142516 0.00153021 0)
(0.126534 0.00164127 0)
(0.109572 0.00172376 0)
(0.0918901 0.00178036 0)
(0.0737588 0.0018142 0)
(0.0554091 0.0018261 0)
(0.0370586 0.00181933 0)
(0.018891 0.00178775 0)
(0.00107662 0.00174511 0)
(-0.0162074 0.00168366 0)
(-0.0328319 0.00161454 0)
(-0.048696 0.00154039 0)
(-0.0637407 0.00144735 0)
(-0.0778659 0.00135333 0)
(-0.0910535 0.00125743 0)
(-0.103297 0.00116579 0)
(-0.114486 0.00106702 0)
(-0.124712 0.000968514 0)
(-0.133997 0.000870206 0)
(-0.142316 0.000777347 0)
(-0.14969 0.000690537 0)
(-0.156169 0.000603013 0)
(-0.161839 0.000516937 0)
(-0.166618 0.000429751 0)
(-0.170545 0.000346987 0)
(-0.173722 0.000280333 0)
(-0.17613 0.000208185 0)
(-0.177853 0.000131097 0)
(-0.178908 7.43728e-05 0)
(-0.179293 -2.2539e-06 0)
(-0.179026 -4.41685e-05 0)
(-0.17822 -0.000112796 0)
(-0.176622 -0.00019518 0)
(-0.174367 -0.000257199 0)
(-0.171499 -0.000316739 0)
(-0.167887 -0.000388028 0)
(-0.163662 -0.000450443 0)
(-0.158713 -0.000531836 0)
(-0.152965 -0.000599251 0)
(-0.146585 -0.000674729 0)
(-0.13932 -0.000764377 0)
(-0.131161 -0.000848653 0)
(-0.122129 -0.000938348 0)
(-0.112204 -0.00104065 0)
(-0.101311 -0.00112433 0)
(-0.0893842 -0.0012295 0)
(-0.0764835 -0.00132893 0)
(-0.0626166 -0.00142056 0)
(-0.0478125 -0.00151438 0)
(-0.0321091 -0.00160085 0)
(-0.0155839 -0.00167879 0)
(0.00167747 -0.00173376 0)
(0.0194692 -0.00179113 0)
(0.0376551 -0.00181955 0)
(0.0561556 -0.00183805 0)
(0.0746708 -0.00183307 0)
(0.0928945 -0.00178464 0)
(0.110666 -0.00172918 0)
(0.12772 -0.00164309 0)
(0.14366 -0.0015232 0)
(0.15822 -0.00137186 0)
(0.17127 -0.00121135 0)
(0.182644 -0.00102586 0)
(0.191987 -0.000820121 0)
(0.199197 -0.000607218 0)
(0.204193 -0.000382225 0)
(0.206862 -0.000156309 0)
(0.207251 7.25224e-05 0)
(0.205371 0.0002986 0)
(0.201186 0.00051709 0)
(0.194967 0.000718369 0)
(0.18677 0.000908156 0)
(0.176782 0.00107579 0)
(0.165166 0.00122841 0)
(0.152108 0.00135903 0)
(0.137867 0.00147138 0)
(0.122625 0.00155854 0)
(0.106516 0.00162612 0)
(0.0897946 0.00167678 0)
(0.0727679 0.00171083 0)
(0.0555385 0.00171623 0)
(0.0382757 0.00171779 0)
(0.021015 0.00169381 0)
(0.00396439 0.00166547 0)
(-0.0126614 0.00161385 0)
(-0.0289057 0.00157038 0)
(-0.0444564 0.00150529 0)
(-0.0592692 0.00142823 0)
(-0.0734604 0.00135457 0)
(-0.0868128 0.0012739 0)
(-0.0993101 0.00119102 0)
(-0.111 0.00109572 0)
(-0.121727 0.00100681 0)
(-0.131535 0.00091639 0)
(-0.140401 0.000815031 0)
(-0.148241 0.000716477 0)
(-0.155111 0.000620694 0)
(-0.16097 0.00051854 0)
(-0.165859 0.000427431 0)
(-0.169772 0.000331049 0)
(-0.172649 0.000232529 0)
(-0.174612 0.000138563 0)
(-0.175708 4.86809e-05 0)
(-0.175927 -3.9059e-05 0)
(-0.175263 -0.000111301 0)
(-0.173816 -0.000191812 0)
(-0.171542 -0.000272029 0)
(-0.168542 -0.000340996 0)
(-0.164788 -0.000419491 0)
(-0.16032 -0.000481184 0)
(-0.155221 -0.000547104 0)
(-0.149385 -0.000620085 0)
(-0.142884 -0.000679629 0)
(-0.135784 -0.000741515 0)
(-0.127953 -0.000816329 0)
(-0.119455 -0.000877892 0)
(-0.110247 -0.000955997 0)
(-0.100271 -0.00102038 0)
(-0.0896345 -0.00108797 0)
(-0.0781857 -0.00117442 0)
(-0.0658721 -0.00124616 0)
(-0.0528199 -0.00131708 0)
(-0.0388721 -0.00141535 0)
(-0.0241665 -0.00148459 0)
(-0.00897737 -0.00157571 0)
(0.00675701 -0.00163285 0)
(0.0231953 -0.00168264 0)
(0.0403825 -0.00175471 0)
(0.0581306 -0.00178571 0)
(0.076209 -0.00179599 0)
(0.0944463 -0.00182126 0)
(0.11265 -0.00179344 0)
(0.130584 -0.00177228 0)
(0.148007 -0.00169747 0)
(0.164627 -0.00159411 0)
(0.18017 -0.00148738 0)
(0.194371 -0.00133365 0)
(0.206956 -0.00115564 0)
(0.217669 -0.000964361 0)
(0.226289 -0.000743364 0)
(0.232631 -0.000507976 0)
(0.236553 -0.000256601 0)
(0.237882 -8.10558e-06 0)
(0.236732 0.000244694 0)
(0.232859 0.000505066 0)
(0.226488 0.000756372 0)
(0.217719 0.000978175 0)
(0.206713 0.00119684 0)
(0.193669 0.00139934 0)
(0.178835 0.00154467 0)
(0.162486 0.00169367 0)
(0.144913 0.00177673 0)
(0.126416 0.00186751 0)
(0.107284 0.0019311 0)
(0.0878031 0.00192714 0)
(0.0682435 0.00193609 0)
(0.0488403 0.00192046 0)
(0.0297489 0.00185081 0)
(0.0110805 0.00179215 0)
(-0.0065718 0.00170453 0)
(-0.0231721 0.00162309 0)
(-0.0390314 0.00153152 0)
(-0.0538799 0.00141678 0)
(-0.0676742 0.0013162 0)
(-0.0821767 0.00121215 0)
(-0.179178 -0.000510394 0)
(-0.177361 -0.000725192 0)
(-0.174559 -0.000942058 0)
(-0.171017 -0.00116437 0)
(-0.166711 -0.00139842 0)
(-0.161615 -0.00163584 0)
(-0.155698 -0.00189053 0)
(-0.148929 -0.00214578 0)
(-0.141274 -0.00240842 0)
(-0.132701 -0.00269746 0)
(-0.123182 -0.00297521 0)
(-0.112691 -0.0032556 0)
(-0.101211 -0.00357247 0)
(-0.0887343 -0.00385396 0)
(-0.0752664 -0.00417789 0)
(-0.0608277 -0.00444365 0)
(-0.0454544 -0.00468977 0)
(-0.0291773 -0.0049867 0)
(-0.0120914 -0.00519049 0)
(0.00564017 -0.0053356 0)
(0.0239383 -0.00554741 0)
(0.0426788 -0.00560915 0)
(0.0616479 -0.00560534 0)
(0.080639 -0.00564844 0)
(0.099428 -0.00551225 0)
(0.11777 -0.00540308 0)
(0.135408 -0.00512004 0)
(0.15207 -0.0047599 0)
(0.167488 -0.00439301 0)
(0.181416 -0.00389335 0)
(0.193613 -0.00333285 0)
(0.203864 -0.00273531 0)
(0.211989 -0.00206771 0)
(0.217836 -0.00137139 0)
(0.221303 -0.000639554 0)
(0.222294 9.18208e-05 0)
(0.22086 0.000817731 0)
(0.216832 0.00155818 0)
(0.21045 0.00227445 0)
(0.201782 0.00288539 0)
(0.191007 0.00350653 0)
(0.178327 0.00398739 0)
(0.163979 0.00447086 0)
(0.14816 0.00489809 0)
(0.13113 0.00514829 0)
(0.113186 0.00540857 0)
(0.0945577 0.00559654 0)
(0.0755057 0.00562651 0)
(0.0562994 0.00567439 0)
(0.036952 0.00563759 0)
(0.018013 0.00550041 0)
(0.000102697 0.00536551 0)
(-0.0172394 0.00514768 0)
(-0.0341752 0.00493981 0)
(-0.0503807 0.00469675 0)
(-0.0657369 0.00441245 0)
(-0.0801894 0.00413575 0)
(-0.0936832 0.00384345 0)
(-0.10619 0.00353901 0)
(-0.117697 0.0032447 0)
(-0.128224 0.00294248 0)
(-0.137801 0.00266441 0)
(-0.146391 0.00237497 0)
(-0.154025 0.00210219 0)
(-0.160777 0.00184231 0)
(-0.166634 0.00157079 0)
(-0.171621 0.00132364 0)
(-0.175776 0.0010854 0)
(-0.179088 0.000837181 0)
(-0.181633 0.000636124 0)
(-0.183445 0.000398328 0)
(-0.184498 0.000182498 0)
(-0.18488 -5.72154e-06 0)
(-0.184484 -0.000245475 0)
(-0.183304 -0.000496154 0)
(-0.181375 -0.000714345 0)
(-0.178601 -0.000986939 0)
(-0.175063 -0.00120921 0)
(-0.170814 -0.00143921 0)
(-0.165528 -0.00169422 0)
(-0.159338 -0.00195552 0)
(-0.15246 -0.00219914 0)
(-0.14482 -0.0024427 0)
(-0.136161 -0.00266945 0)
(-0.126663 -0.00293914 0)
(-0.116544 -0.00318838 0)
(-0.105524 -0.00337769 0)
(-0.0936627 -0.0036398 0)
(-0.0810575 -0.00386844 0)
(-0.0676828 -0.00410635 0)
(-0.0535114 -0.00433216 0)
(-0.0386234 -0.0045309 0)
(-0.0231042 -0.00472571 0)
(-0.00692786 -0.00490672 0)
(0.00984041 -0.00506315 0)
(0.0271244 -0.00519147 0)
(0.04469 -0.00525416 0)
(0.0623731 -0.0052719 0)
(0.0801197 -0.00525181 0)
(0.0975647 -0.00512687 0)
(0.114484 -0.00493754 0)
(0.130788 -0.00473022 0)
(0.14613 -0.00440161 0)
(0.160308 -0.00401958 0)
(0.173141 -0.00359251 0)
(0.184355 -0.00307795 0)
(0.193776 -0.00250842 0)
(0.201189 -0.00189274 0)
(0.206435 -0.00122574 0)
(0.209418 -0.00055611 0)
(0.210088 0.000148789 0)
(0.208396 0.000860391 0)
(0.204212 0.00158581 0)
(0.197744 0.00226352 0)
(0.189023 0.0029166 0)
(0.178144 0.00353146 0)
(0.165351 0.00407802 0)
(0.150807 0.00455988 0)
(0.134765 0.00496476 0)
(0.117559 0.00527541 0)
(0.0994157 0.0055139 0)
(0.0806038 0.00566124 0)
(0.06143 0.0057399 0)
(0.0421373 0.00574186 0)
(0.0229686 0.00566724 0)
(0.0041211 0.00554753 0)
(-0.0142201 0.00536911 0)
(-0.031909 0.00514826 0)
(-0.0487967 0.00490621 0)
(-0.0647633 0.00460937 0)
(-0.0796976 0.00428433 0)
(-0.0935507 0.00396751 0)
(-0.106342 0.00363062 0)
(-0.118016 0.00329576 0)
(-0.128504 0.00297374 0)
(-0.137881 0.00262975 0)
(-0.146202 0.00231929 0)
(-0.153486 0.00201587 0)
(-0.159795 0.0017356 0)
(-0.165158 0.00146341 0)
(-0.169643 0.00121193 0)
(-0.173337 0.000981893 0)
(-0.176283 0.000770783 0)
(-0.178516 0.000570494 0)
(-0.180113 0.000372386 0)
(-0.18106 0.000198876 0)
(-0.181362 -1.29689e-05 0)
(-0.180997 -0.000187861 0)
(-0.180118 -0.00036893 0)
(-0.17863 -0.000518101 0)
(-0.176578 -0.000687967 0)
(-0.17385 -0.000896577 0)
(-0.170547 -0.0010681 0)
(-0.166732 -0.00126868 0)
(-0.162085 -0.00147246 0)
(-0.156673 -0.00170896 0)
(-0.150561 -0.00193365 0)
(-0.143576 -0.00220967 0)
(-0.135797 -0.00243412 0)
(-0.12714 -0.00272108 0)
(-0.117504 -0.00300308 0)
(-0.106945 -0.00327014 0)
(-0.0954602 -0.00355633 0)
(-0.083029 -0.00383962 0)
(-0.0696488 -0.00413172 0)
(-0.0553633 -0.00439727 0)
(-0.0402104 -0.00461159 0)
(-0.0242486 -0.0048496 0)
(-0.00755807 -0.00505548 0)
(0.00970831 -0.00520631 0)
(0.0273878 -0.00531408 0)
(0.045455 -0.00540143 0)
(0.0636361 -0.00541714 0)
(0.0816967 -0.00532833 0)
(0.0994411 -0.00521663 0)
(0.116657 -0.00502351 0)
(0.133223 -0.00479732 0)
(0.148762 -0.00443727 0)
(0.162946 -0.00400087 0)
(0.175616 -0.00351742 0)
(0.186479 -0.00295084 0)
(0.19536 -0.00230726 0)
(0.202037 -0.00164565 0)
(0.206362 -0.000939256 0)
(0.208321 -0.000227309 0)
(0.20789 0.00049715 0)
(0.204901 0.00122843 0)
(0.199562 0.00192388 0)
(0.191993 0.00257997 0)
(0.182316 0.00317194 0)
(0.170724 0.00371789 0)
(0.157413 0.00419085 0)
(0.14261 0.00459897 0)
(0.126611 0.00492092 0)
(0.109636 0.00517205 0)
(0.0919383 0.00533548 0)
(0.0737941 0.00544163 0)
(0.0554294 0.00547851 0)
(0.0370654 0.00546082 0)
(0.0188894 0.00536523 0)
(0.00106941 0.0052399 0)
(-0.0162338 0.00504464 0)
(-0.0328706 0.00483916 0)
(-0.0487351 0.00462013 0)
(-0.0637745 0.00434844 0)
(-0.0779039 0.00407341 0)
(-0.0911081 0.0037695 0)
(-0.103354 0.00349098 0)
(-0.114551 0.00320152 0)
(-0.124772 0.00290424 0)
(-0.134054 0.00261902 0)
(-0.142382 0.00232731 0)
(-0.149766 0.00206475 0)
(-0.156247 0.00180102 0)
(-0.161908 0.00156231 0)
(-0.166691 0.00129992 0)
(-0.170616 0.00103967 0)
(-0.173795 0.000837927 0)
(-0.176205 0.00062132 0)
(-0.177925 0.000401509 0)
(-0.178994 0.000223601 0)
(-0.179373 -1.25744e-05 0)
(-0.179105 -0.000131479 0)
(-0.178311 -0.000340555 0)
(-0.176708 -0.000578817 0)
(-0.174454 -0.00076954 0)
(-0.171599 -0.000967465 0)
(-0.167968 -0.00115646 0)
(-0.163757 -0.00134419 0)
(-0.15881 -0.00159521 0)
(-0.153072 -0.00181439 0)
(-0.146677 -0.00201931 0)
(-0.139419 -0.00228905 0)
(-0.13126 -0.00254699 0)
(-0.122244 -0.00282127 0)
(-0.112297 -0.00311991 0)
(-0.101399 -0.00336842 0)
(-0.0894716 -0.00368527 0)
(-0.0765658 -0.00398416 0)
(-0.0627089 -0.00426903 0)
(-0.0479009 -0.00454058 0)
(-0.0321915 -0.0048123 0)
(-0.015641 -0.00502927 0)
(0.00162254 -0.00521129 0)
(0.0194313 -0.00537506 0)
(0.0376239 -0.00545655 0)
(0.0561327 -0.00552504 0)
(0.0746789 -0.00549145 0)
(0.0928986 -0.00537104 0)
(0.110697 -0.00518639 0)
(0.12777 -0.00493322 0)
(0.143729 -0.00456575 0)
(0.158302 -0.00411948 0)
(0.171363 -0.00363317 0)
(0.182733 -0.00309961 0)
(0.192093 -0.00246971 0)
(0.199317 -0.00182104 0)
(0.204326 -0.00114769 0)
(0.207015 -0.000446299 0)
(0.207391 0.000217449 0)
(0.205496 0.000894876 0)
(0.201312 0.00154907 0)
(0.195088 0.00214631 0)
(0.18689 0.00273035 0)
(0.176888 0.00322956 0)
(0.165262 0.00367787 0)
(0.152193 0.0040782 0)
(0.137942 0.00441439 0)
(0.122691 0.00468021 0)
(0.106565 0.0048778 0)
(0.0898327 0.00502757 0)
(0.0727954 0.00513547 0)
(0.0555534 0.00515374 0)
(0.0382771 0.00515341 0)
(0.0210093 0.0050798 0)
(0.00395384 0.00500307 0)
(-0.0126797 0.00484393 0)
(-0.0289317 0.00470831 0)
(-0.0444871 0.0045152 0)
(-0.0593046 0.00428631 0)
(-0.0734991 0.00406294 0)
(-0.0868558 0.0038202 0)
(-0.0993559 0.00357401 0)
(-0.111043 0.00329081 0)
(-0.121774 0.00302197 0)
(-0.131589 0.00274954 0)
(-0.140453 0.00244434 0)
(-0.148291 0.00214872 0)
(-0.155163 0.00186366 0)
(-0.161024 0.001555 0)
(-0.16591 0.00128343 0)
(-0.169824 0.000992152 0)
(-0.172702 0.000697741 0)
(-0.174666 0.000415319 0)
(-0.175757 0.000144515 0)
(-0.175973 -0.000119834 0)
(-0.175307 -0.000336322 0)
(-0.173859 -0.000579558 0)
(-0.171584 -0.000814074 0)
(-0.168583 -0.00102416 0)
(-0.164827 -0.00125832 0)
(-0.160359 -0.00144382 0)
(-0.155258 -0.00164126 0)
(-0.149422 -0.00185993 0)
(-0.142921 -0.00203874 0)
(-0.135821 -0.00222443 0)
(-0.12799 -0.0024489 0)
(-0.119492 -0.00263363 0)
(-0.110285 -0.00286791 0)
(-0.10031 -0.00306086 0)
(-0.0896736 -0.00326379 0)
(-0.078226 -0.00352338 0)
(-0.0659126 -0.00373834 0)
(-0.0528609 -0.00395129 0)
(-0.038913 -0.00424606 0)
(-0.0242052 -0.00445421 0)
(-0.00901342 -0.00472704 0)
(0.00672412 -0.00489868 0)
(0.0231651 -0.00504812 0)
(0.0403569 -0.00526453 0)
(0.0581112 -0.00535773 0)
(0.0761967 -0.00538873 0)
(0.0944429 -0.00546468 0)
(0.112656 -0.00538136 0)
(0.130601 -0.00531804 0)
(0.148034 -0.00509358 0)
(0.164665 -0.0047835 0)
(0.18022 -0.00446339 0)
(0.194432 -0.00400212 0)
(0.207027 -0.00346803 0)
(0.217751 -0.00289386 0)
(0.226377 -0.00223233 0)
(0.232728 -0.00152262 0)
(0.236646 -0.000779095 0)
(0.237997 -1.70385e-05 0)
(0.236833 0.000735545 0)
(0.232956 0.00151546 0)
(0.226584 0.00226945 0)
(0.217809 0.00293512 0)
(0.206795 0.00359132 0)
(0.193743 0.00419898 0)
(0.178896 0.00463505 0)
(0.162537 0.00508213 0)
(0.144951 0.0053313 0)
(0.126443 0.00560366 0)
(0.1073 0.00579442 0)
(0.0878078 0.00578243 0)
(0.0682382 0.00580925 0)
(0.048826 0.00576216 0)
(0.0297266 0.00555313 0)
(0.0110533 0.00537737 0)
(-0.00660272 0.0051138 0)
(-0.0232089 0.00486953 0)
(-0.0390711 0.00459477 0)
(-0.0539207 0.00425047 0)
(-0.0677162 0.00394866 0)
(-0.0822192 0.00363643 0)
(-0.179234 -0.00085031 0)
(-0.177418 -0.00120836 0)
(-0.174617 -0.00156974 0)
(-0.171077 -0.00194023 0)
(-0.166773 -0.0023303 0)
(-0.161679 -0.00272597 0)
(-0.155765 -0.00315042 0)
(-0.148999 -0.00357586 0)
(-0.141346 -0.00401362 0)
(-0.132776 -0.0044954 0)
(-0.123258 -0.0049584 0)
(-0.112768 -0.00542583 0)
(-0.10129 -0.00595408 0)
(-0.0888121 -0.00642341 0)
(-0.0753438 -0.00696339 0)
(-0.0609015 -0.00740692 0)
(-0.0455233 -0.00781712 0)
(-0.0292421 -0.00831299 0)
(-0.0121466 -0.00865137 0)
(0.00559626 -0.00889448 0)
(0.0239047 -0.00924804 0)
(0.0426601 -0.00935115 0)
(0.0616453 -0.00934501 0)
(0.080655 -0.00941722 0)
(0.0994626 -0.00919034 0)
(0.117826 -0.00900866 0)
(0.135485 -0.00853692 0)
(0.152166 -0.00793652 0)
(0.167607 -0.00732498 0)
(0.181552 -0.00649195 0)
(0.193765 -0.00555749 0)
(0.204032 -0.00456202 0)
(0.212169 -0.00344902 0)
(0.218028 -0.00228256 0)
(0.221499 -0.0010747 0)
(0.222505 0.000156173 0)
(0.221039 0.00136594 0)
(0.217013 0.00259769 0)
(0.210628 0.00379225 0)
(0.201946 0.00481118 0)
(0.191156 0.00584699 0)
(0.178457 0.00664875 0)
(0.16409 0.00745466 0)
(0.148251 0.0081668 0)
(0.131201 0.00858403 0)
(0.113236 0.00901755 0)
(0.0945877 0.00933069 0)
(0.0755183 0.0093811 0)
(0.0562935 0.00945978 0)
(0.0369297 0.00939812 0)
(0.017979 0.00917028 0)
(5.61795e-05 0.00894348 0)
(-0.0172945 0.00858096 0)
(-0.0342381 0.00823428 0)
(-0.05045 0.00782912 0)
(-0.0658105 0.00735469 0)
(-0.0802662 0.00689345 0)
(-0.093762 0.00640559 0)
(-0.106268 0.00589898 0)
(-0.117776 0.00540837 0)
(-0.128301 0.00490423 0)
(-0.137876 0.00444038 0)
(-0.146465 0.00395909 0)
(-0.154096 0.00350321 0)
(-0.160848 0.00307149 0)
(-0.166701 0.00262122 0)
(-0.171685 0.00220468 0)
(-0.175842 0.00181182 0)
(-0.179151 0.00139339 0)
(-0.181694 0.00106178 0)
(-0.18351 0.000667051 0)
(-0.184564 0.00029967 0)
(-0.184947 -1.47231e-05 0)
(-0.184554 -0.000409929 0)
(-0.183369 -0.000826161 0)
(-0.181442 -0.00118617 0)
(-0.178676 -0.00164899 0)
(-0.175132 -0.00201722 0)
(-0.170883 -0.00239796 0)
(-0.165602 -0.0028187 0)
(-0.159422 -0.0032573 0)
(-0.152542 -0.00367016 0)
(-0.144898 -0.0040786 0)
(-0.13624 -0.0044507 0)
(-0.126743 -0.00489599 0)
(-0.116619 -0.00531815 0)
(-0.105598 -0.00562945 0)
(-0.0937395 -0.00606681 0)
(-0.0811259 -0.0064486 0)
(-0.0677431 -0.00682938 0)
(-0.0535813 -0.00722758 0)
(-0.0386901 -0.00755686 0)
(-0.0231619 -0.00787067 0)
(-0.00698339 -0.0081734 0)
(0.00978675 -0.00843188 0)
(0.0270831 -0.00865676 0)
(0.0446619 -0.00876445 0)
(0.0623562 -0.00879052 0)
(0.0801159 -0.00875217 0)
(0.0975798 -0.0085581 0)
(0.114515 -0.00823602 0)
(0.130832 -0.00788132 0)
(0.146189 -0.00734163 0)
(0.160386 -0.00670569 0)
(0.173251 -0.00598673 0)
(0.184484 -0.00512856 0)
(0.193917 -0.00418702 0)
(0.201338 -0.00315003 0)
(0.206588 -0.00205085 0)
(0.209593 -0.000916674 0)
(0.210255 0.000248097 0)
(0.208536 0.00143083 0)
(0.204375 0.00264057 0)
(0.197905 0.00377984 0)
(0.189171 0.00486321 0)
(0.178274 0.00589192 0)
(0.165462 0.00679986 0)
(0.150902 0.00759774 0)
(0.134842 0.00827839 0)
(0.117617 0.00880237 0)
(0.0994422 0.00919018 0)
(0.0806066 0.00943539 0)
(0.0614141 0.00956352 0)
(0.0421108 0.00957189 0)
(0.0229249 0.00944874 0)
(0.00406427 0.00925429 0)
(-0.0142983 0.00895167 0)
(-0.0320029 0.00857687 0)
(-0.0488944 0.0081617 0)
(-0.0648517 0.0076853 0)
(-0.0797925 0.00716052 0)
(-0.093661 0.00661218 0)
(-0.106458 0.00604363 0)
(-0.118127 0.00548989 0)
(-0.128616 0.00495835 0)
(-0.137992 0.00437724 0)
(-0.146302 0.0038677 0)
(-0.153582 0.00335711 0)
(-0.159889 0.00289179 0)
(-0.165244 0.00244002 0)
(-0.169732 0.00202655 0)
(-0.173435 0.00163263 0)
(-0.176362 0.00127438 0)
(-0.178584 0.000951747 0)
(-0.180189 0.000626342 0)
(-0.181144 0.000326931 0)
(-0.181436 -1.46025e-05 0)
(-0.181075 -0.00032602 0)
(-0.180174 -0.000604785 0)
(-0.178686 -0.000861545 0)
(-0.176658 -0.00114309 0)
(-0.173934 -0.00150586 0)
(-0.170617 -0.00178317 0)
(-0.16681 -0.00210795 0)
(-0.16217 -0.00245225 0)
(-0.156764 -0.00285466 0)
(-0.150656 -0.00323066 0)
(-0.14366 -0.00368179 0)
(-0.135883 -0.00405574 0)
(-0.127242 -0.00453103 0)
(-0.117604 -0.00499799 0)
(-0.107052 -0.00546287 0)
(-0.0955564 -0.00593425 0)
(-0.0831149 -0.00640142 0)
(-0.0697188 -0.00687602 0)
(-0.0554289 -0.007318 0)
(-0.0402863 -0.00769427 0)
(-0.0243321 -0.00808462 0)
(-0.00761533 -0.00842929 0)
(0.00965972 -0.00868257 0)
(0.027334 -0.0088671 0)
(0.0454191 -0.00900415 0)
(0.0636356 -0.00902363 0)
(0.0817097 -0.00888611 0)
(0.0994603 -0.00870875 0)
(0.116689 -0.00837758 0)
(0.133282 -0.00798586 0)
(0.148846 -0.00739644 0)
(0.163038 -0.00668199 0)
(0.175731 -0.00586233 0)
(0.186629 -0.0049101 0)
(0.195508 -0.00385731 0)
(0.202195 -0.00275074 0)
(0.206537 -0.0015603 0)
(0.208495 -0.000375361 0)
(0.208048 0.000825725 0)
(0.205054 0.00204262 0)
(0.199725 0.0032082 0)
(0.192147 0.00431057 0)
(0.182443 0.00529043 0)
(0.170829 0.00619605 0)
(0.157498 0.00697656 0)
(0.142689 0.00766257 0)
(0.126674 0.00820757 0)
(0.109674 0.00862739 0)
(0.0919586 0.00889941 0)
(0.0737926 0.00907799 0)
(0.0554077 0.00913279 0)
(0.0370252 0.00909825 0)
(0.0188373 0.00894246 0)
(0.00101121 0.0087314 0)
(-0.0162999 0.00842127 0)
(-0.0329508 0.00807034 0)
(-0.0488309 0.007694 0)
(-0.063877 0.00724194 0)
(-0.0780058 0.00678581 0)
(-0.0912018 0.00628604 0)
(-0.10345 0.00582303 0)
(-0.114657 0.00533289 0)
(-0.124875 0.00483326 0)
(-0.134146 0.00436005 0)
(-0.142466 0.00388795 0)
(-0.14985 0.00345041 0)
(-0.156344 0.00300396 0)
(-0.162019 0.00258765 0)
(-0.166792 0.00215898 0)
(-0.170701 0.00173586 0)
(-0.173873 0.00139669 0)
(-0.176288 0.00104022 0)
(-0.178011 0.000664867 0)
(-0.179078 0.000374648 0)
(-0.179435 -1.39554e-05 0)
(-0.179175 -0.000233201 0)
(-0.178395 -0.000568334 0)
(-0.176794 -0.000967918 0)
(-0.174533 -0.00128202 0)
(-0.171673 -0.00160921 0)
(-0.168046 -0.00192738 0)
(-0.163847 -0.00224548 0)
(-0.158895 -0.00265808 0)
(-0.153143 -0.00301153 0)
(-0.146775 -0.00338113 0)
(-0.139514 -0.00381103 0)
(-0.131359 -0.00424467 0)
(-0.12235 -0.00469912 0)
(-0.1124 -0.00521189 0)
(-0.101487 -0.00562178 0)
(-0.0895565 -0.00613893 0)
(-0.07664 -0.00663192 0)
(-0.0627965 -0.00711454 0)
(-0.0479958 -0.00757748 0)
(-0.0322657 -0.00801821 0)
(-0.0157019 -0.00838126 0)
(0.00156513 -0.00868287 0)
(0.0193784 -0.00896568 0)
(0.03758 -0.00910087 0)
(0.0561076 -0.00920575 0)
(0.0746802 -0.0091623 0)
(0.0929217 -0.00895186 0)
(0.110727 -0.00865543 0)
(0.127824 -0.00822157 0)
(0.143809 -0.00761356 0)
(0.158401 -0.00687231 0)
(0.171477 -0.00605485 0)
(0.182871 -0.00516423 0)
(0.192249 -0.00411492 0)
(0.199476 -0.00304092 0)
(0.204481 -0.00190917 0)
(0.207158 -0.000769874 0)
(0.207548 0.000368763 0)
(0.205638 0.00149795 0)
(0.201462 0.00258555 0)
(0.195227 0.0035852 0)
(0.18701 0.00454403 0)
(0.177004 0.00538451 0)
(0.165364 0.00614017 0)
(0.152272 0.00680015 0)
(0.138006 0.00736002 0)
(0.122732 0.00779864 0)
(0.1066 0.00813392 0)
(0.0898635 0.00838698 0)
(0.0728018 0.00856399 0)
(0.0555413 0.00858846 0)
(0.0382611 0.00859134 0)
(0.0209892 0.00846982 0)
(0.00391637 0.0083384 0)
(-0.0127203 0.00807323 0)
(-0.0289737 0.00784987 0)
(-0.0445394 0.00752909 0)
(-0.0593681 0.00714407 0)
(-0.0735618 0.00677154 0)
(-0.0869167 0.00636889 0)
(-0.0994312 0.00595566 0)
(-0.111116 0.00548019 0)
(-0.121841 0.00503484 0)
(-0.131662 0.00458409 0)
(-0.140527 0.00407531 0)
(-0.148364 0.00358145 0)
(-0.155242 0.00310412 0)
(-0.161098 0.00259177 0)
(-0.165982 0.00213787 0)
(-0.169894 0.0016507 0)
(-0.172777 0.00116076 0)
(-0.174744 0.000694471 0)
(-0.175829 0.000242989 0)
(-0.176033 -0.000195341 0)
(-0.175368 -0.000553697 0)
(-0.173917 -0.000951616 0)
(-0.17164 -0.001363 0)
(-0.168638 -0.00170516 0)
(-0.164881 -0.00209775 0)
(-0.160411 -0.00240652 0)
(-0.15531 -0.00273566 0)
(-0.149473 -0.00309988 0)
(-0.142971 -0.00339792 0)
(-0.135871 -0.00370734 0)
(-0.128042 -0.00408147 0)
(-0.119544 -0.00438923 0)
(-0.11034 -0.00477979 0)
(-0.100367 -0.00510128 0)
(-0.089732 -0.00543954 0)
(-0.0782873 -0.00587258 0)
(-0.0659751 -0.00623012 0)
(-0.0529255 -0.00658564 0)
(-0.0389779 -0.00707733 0)
(-0.0242662 -0.00742502 0)
(-0.00906972 -0.00787839 0)
(0.0066732 -0.00816488 0)
(0.0231189 -0.00841453 0)
(0.0403191 -0.00877571 0)
(0.0580852 -0.00893141 0)
(0.076184 -0.00898363 0)
(0.0944469 -0.0091107 0)
(0.112677 -0.00897201 0)
(0.130644 -0.00886704 0)
(0.148097 -0.00849297 0)
(0.164748 -0.00797613 0)
(0.180328 -0.00744266 0)
(0.194559 -0.00667367 0)
(0.207172 -0.00578318 0)
(0.217917 -0.00482586 0)
(0.226557 -0.00372241 0)
(0.232918 -0.00254099 0)
(0.236848 -0.00129641 0)
(0.238213 -3.16051e-05 0)
(0.23703 0.00122839 0)
(0.23315 0.00252696 0)
(0.226776 0.00378396 0)
(0.217984 0.00489423 0)
(0.206955 0.00598851 0)
(0.193886 0.00700176 0)
(0.179015 0.00772872 0)
(0.162634 0.00847412 0)
(0.145023 0.00888932 0)
(0.126492 0.00934324 0)
(0.107327 0.00966112 0)
(0.0878137 0.00964074 0)
(0.0682246 0.00968519 0)
(0.0487944 0.00960628 0)
(0.0296795 0.00925745 0)
(0.0109967 0.00896486 0)
(-0.00666671 0.00852396 0)
(-0.0232845 0.00811676 0)
(-0.0391523 0.00765859 0)
(-0.0540037 0.00708447 0)
(-0.0678014 0.00658122 0)
(-0.0823047 0.00606062 0)
(-0.179317 -0.00118999 0)
(-0.177503 -0.00169117 0)
(-0.174705 -0.00219699 0)
(-0.171166 -0.00271559 0)
(-0.166866 -0.00326161 0)
(-0.161776 -0.00381549 0)
(-0.155866 -0.00440964 0)
(-0.149103 -0.0050053 0)
(-0.141453 -0.00561823 0)
(-0.132888 -0.0062928 0)
(-0.123373 -0.00694116 0)
(-0.112884 -0.00759579 0)
(-0.101408 -0.00833565 0)
(-0.0889289 -0.00899308 0)
(-0.0754599 -0.00974937 0)
(-0.0610124 -0.0103712 0)
(-0.0456267 -0.0109456 0)
(-0.0293393 -0.0116404 0)
(-0.0122294 -0.0121143 0)
(0.00553017 -0.0124566 0)
(0.0238542 -0.0129522 0)
(0.0426319 -0.013097 0)
(0.0616412 -0.0130889 0)
(0.0806787 -0.0131907 0)
(0.0995144 -0.0128733 0)
(0.117911 -0.0126196 0)
(0.1356 -0.0119591 0)
(0.15231 -0.0111183 0)
(0.167785 -0.010262 0)
(0.181757 -0.00909518 0)
(0.193994 -0.00778614 0)
(0.204287 -0.00639186 0)
(0.212441 -0.00483211 0)
(0.218315 -0.00320316 0)
(0.221799 -0.00150917 0)
(0.222807 0.000225582 0)
(0.221307 0.00192 0)
(0.217292 0.00363719 0)
(0.210895 0.00531249 0)
(0.202191 0.00674031 0)
(0.19138 0.0081916 0)
(0.178651 0.00931476 0)
(0.164256 0.0104433 0)
(0.148388 0.0114406 0)
(0.131306 0.0120252 0)
(0.113311 0.0126315 0)
(0.0946323 0.0130696 0)
(0.0755367 0.0131415 0)
(0.0562841 0.0132488 0)
(0.0368957 0.0131619 0)
(0.0179275 0.0128449 0)
(-1.41489e-05 0.012523 0)
(-0.0173773 0.0120167 0)
(-0.0343327 0.0115309 0)
(-0.0505545 0.0109626 0)
(-0.0659206 0.0102982 0)
(-0.0803814 0.00965189 0)
(-0.0938794 0.00896876 0)
(-0.106386 0.00825916 0)
(-0.117896 0.00757253 0)
(-0.128416 0.00686548 0)
(-0.137991 0.00621633 0)
(-0.146577 0.00554271 0)
(-0.154202 0.00490572 0)
(-0.160954 0.00430336 0)
(-0.166805 0.00367013 0)
(-0.171781 0.00308403 0)
(-0.175946 0.00253716 0)
(-0.179245 0.00195208 0)
(-0.181787 0.00148787 0)
(-0.183608 0.000932999 0)
(-0.184663 0.000411165 0)
(-0.185045 -2.58749e-05 0)
(-0.18466 -0.000568976 0)