/*--------------------------------*- C++ -*----------------------------------*\
| =========                 |                                                 |
| \\      /  F ield         | OpenFOAM: The Open Source CFD Toolbox           |
|  \\    /   O peration     | Version:  3.0.1                                 |
|   \\  /    A nd           | Web:      www.OpenFOAM.org                      |
|    \\/     M anipulation  |                                                 |
\*---------------------------------------------------------------------------*/
FoamFile
{
    version     2.0;
    format      ascii;
    class       surfaceScalarField;
    location    "24.6";
    object      phi;
}
// * * * * * * * * * * * * * * * * * * * * * * * * * * * * * * * * * * * * * //

dimensions      [0 3 -1 0 0 0 0];

internalField   nonuniform List<scalar> 
42423
(
0.000209945
6.37217e-06
0.000201763
8.18197e-06
0.000191467
1.02956e-05
0.00017914
1.2327e-05
0.000165276
1.38637e-05
0.000149836
1.54403e-05
0.000133201
1.66355e-05
0.000115642
1.75583e-05
9.72843e-05
1.8358e-05
7.85655e-05
1.87188e-05
5.96304e-05
1.89351e-05
4.06415e-05
1.89889e-05
2.20855e-05
1.8556e-05
3.91176e-06
1.81737e-05
-1.38327e-05
1.77444e-05
-3.08731e-05
1.70405e-05
-4.70792e-05
1.6206e-05
-6.23821e-05
1.5303e-05
-7.67898e-05
1.44077e-05
-9.02186e-05
1.34287e-05
-0.000102654
1.24351e-05
-0.00011413
1.14768e-05
-0.000124637
1.05069e-05
-0.000134189
9.55156e-06
-0.000142819
8.63032e-06
-0.000150537
7.71746e-06
-0.000157393
6.85624e-06
-0.000163392
5.99881e-06
-0.000168565
5.1734e-06
-0.000172938
4.37278e-06
-0.000176538
3.60034e-06
-0.00017939
2.8517e-06
-0.000181521
2.13094e-06
-0.00018291
1.38953e-06
-0.000183631
7.20106e-07
-0.000183608
-2.28046e-08
-0.000182777
-8.30589e-07
-0.000181212
-1.56493e-06
-0.00017894
-2.27245e-06
-0.00017579
-3.14971e-06
-0.000171886
-3.904e-06
-0.000167091
-4.79465e-06
-0.000161447
-5.64458e-06
-0.000154994
-6.45266e-06
-0.000147577
-7.41765e-06
-0.0001392
-8.37707e-06
-0.000129977
-9.22245e-06
-0.000119703
-1.02743e-05
-0.000108371
-1.13321e-05
-9.62928e-05
-1.2078e-05
-8.30668e-05
-1.32261e-05
-6.89773e-05
-1.40895e-05
-5.39782e-05
-1.49992e-05
-3.79672e-05
-1.60111e-05
-2.14347e-05
-1.65325e-05
-4.16106e-06
-1.72737e-05
1.36244e-05
-1.77856e-05
3.16977e-05
-1.80733e-05
5.00579e-05
-1.83603e-05
6.83285e-05
-1.82707e-05
8.64291e-05
-1.81006e-05
0.000104318
-1.78886e-05
0.000121411
-1.70932e-05
0.000137697
-1.62863e-05
0.000153071
-1.53741e-05
0.00016702
-1.39496e-05
0.00017956
-1.25392e-05
0.000190479
-1.09196e-05
0.000199598
-9.1191e-06
0.000206743
-7.14484e-06
0.000211769
-5.026e-06
0.000214662
-2.89371e-06
0.000215183
-5.20313e-07
0.00021338
1.80267e-06
0.000209294
4.08558e-06
0.000202903
6.39175e-06
0.000194499
8.404e-06
0.000183917
1.05815e-05
0.000171574
1.23426e-05
0.000157521
1.40536e-05
0.000141998
1.55225e-05
0.000125215
1.67831e-05
0.000107452
1.77629e-05
8.90272e-05
1.84251e-05
7.00731e-05
1.89541e-05
5.09455e-05
1.91276e-05
3.16047e-05
1.93409e-05
1.25383e-05
1.90664e-05
-6.11108e-06
1.86494e-05
-2.42524e-05
1.81413e-05
-4.17287e-05
1.74763e-05
-5.8359e-05
1.66303e-05
-7.39523e-05
1.55933e-05
-8.85528e-05
1.46005e-05
-0.000102016
1.34635e-05
-0.000114322
1.23059e-05
-0.000125496
1.1174e-05
-0.000135554
1.00578e-05
-0.000144482
8.92794e-06
-0.000152312
7.82996e-06
-0.000159009
6.6971e-06
-0.000164766
5.75683e-06
-0.000169611
4.84503e-06
-0.000173458
3.84714e-06
-0.000176612
3.15417e-06
-0.000178998
2.38607e-06
-0.000180618
1.61947e-06
-0.000181643
1.02529e-06
-0.000181949
3.05672e-07
-0.000181607
-3.41953e-07
-0.000180708
-8.99134e-07
-0.000179106
-1.60201e-06
-0.000176891
-2.21492e-06
-0.000173995
-2.89628e-06
-0.000170478
-3.51606e-06
-0.000166311
-4.16745e-06
-0.000161445
-4.86619e-06
-0.000155887
-5.558e-06
-0.000149635
-6.25182e-06
-0.000142662
-6.97317e-06
-0.000134953
-7.70918e-06
-0.000126426
-8.5265e-06
-0.000117099
-9.32777e-06
-0.000107026
-1.00725e-05
-9.60863e-05
-1.09399e-05
-8.42669e-05
-1.18195e-05
-7.16197e-05
-1.26472e-05
-5.80956e-05
-1.35242e-05
-4.3724e-05
-1.43717e-05
-2.85564e-05
-1.51677e-05
-1.26382e-05
-1.59183e-05
3.97537e-06
-1.66137e-05
2.11638e-05
-1.71885e-05
3.87924e-05
-1.76287e-05
5.66925e-05
-1.79002e-05
7.46946e-05
-1.80022e-05
9.25461e-05
-1.78517e-05
0.000110021
-1.74754e-05
0.000126863
-1.68412e-05
0.000142758
-1.58956e-05
0.000157491
-1.47333e-05
0.000170747
-1.3256e-05
0.000182263
-1.15159e-05
0.000191845
-9.58245e-06
0.000199268
-7.4226e-06
0.000204369
-5.10108e-06
0.000207065
-2.69617e-06
0.000207264
-1.99161e-07
0.000204918
2.34631e-06
0.000200039
4.87863e-06
0.000192771
7.26803e-06
0.000183277
9.49417e-06
0.000171759
1.1518e-05
0.000158496
1.32625e-05
0.000143749
1.47471e-05
0.00012777
1.59793e-05
0.000110837
1.6933e-05
9.32325e-05
1.76042e-05
7.52481e-05
1.79843e-05
5.71333e-05
1.81148e-05
3.90682e-05
1.80651e-05
2.13203e-05
1.77479e-05
3.94593e-06
1.73744e-05
-1.28541e-05
1.68e-05
-2.89836e-05
1.61295e-05
-4.43335e-05
1.53499e-05
-5.88655e-05
1.4532e-05
-7.24755e-05
1.361e-05
-8.51451e-05
1.26696e-05
-9.6881e-05
1.17359e-05
-0.000107735
1.08536e-05
-0.000117695
9.96026e-06
-0.000126777
9.08253e-06
-0.000134913
8.13592e-06
-0.000142258
7.34425e-06
-0.000148739
6.48194e-06
-0.00015447
5.73071e-06
-0.000159551
5.08037e-06
-0.000163754
4.20339e-06
-0.000167329
3.57524e-06
-0.000170245
2.91552e-06
-0.000172451
2.2061e-06
-0.000174031
1.58047e-06
-0.000174924
8.92362e-07
-0.000175184
2.60812e-07
-0.000174788
-3.96619e-07
-0.000173667
-1.12101e-06
-0.000171944
-1.72327e-06
-0.000169461
-2.48287e-06
-0.000166244
-3.21714e-06
-0.000162242
-4.00147e-06
-0.000157443
-4.79881e-06
-0.0001518
-5.64336e-06
-0.000145307
-6.49349e-06
-0.000137922
-7.38442e-06
-0.000129669
-8.25319e-06
-0.000120511
-9.15821e-06
-0.00011043
-1.00805e-05
-9.94971e-05
-1.09332e-05
-8.76324e-05
-1.18647e-05
-7.49123e-05
-1.27201e-05
-6.14191e-05
-1.34933e-05
-4.71009e-05
-1.43182e-05
-3.20367e-05
-1.50643e-05
-1.63052e-05
-1.57315e-05
1.8774e-08
-1.6324e-05
1.68729e-05
-1.68542e-05
3.41094e-05
-1.72365e-05
5.16205e-05
-1.75111e-05
6.92393e-05
-1.76189e-05
8.6819e-05
-1.75797e-05
0.000104141
-1.73221e-05
0.000120983
-1.68419e-05
0.000137137
-1.61546e-05
0.000152356
-1.52189e-05
0.000166423
-1.40666e-05
0.000179139
-1.27167e-05
0.000190195
-1.10554e-05
0.000199379
-9.18377e-06
0.000206564
-7.18558e-06
0.000211517
-4.95255e-06
0.000214221
-2.70419e-06
0.000214588
-3.67266e-07
0.000212692
1.89573e-06
0.000208486
4.20629e-06
0.000202008
6.47812e-06
0.000193515
8.49292e-06
0.000183035
1.04797e-05
0.000170843
1.21917e-05
0.000157106
1.37369e-05
0.000142046
1.50605e-05
0.000125961
1.60851e-05
0.000109071
1.68895e-05
9.15936e-05
1.74777e-05
7.37185e-05
1.78751e-05
5.57371e-05
1.79814e-05
3.78353e-05
1.79018e-05
2.02551e-05
1.75802e-05
3.08689e-06
1.71682e-05
-1.34181e-05
1.6505e-05
-2.92086e-05
1.57905e-05
-4.4128e-05
1.49193e-05
-5.81966e-05
1.40686e-05
-7.11745e-05
1.29779e-05
-8.31757e-05
1.20011e-05
-9.41463e-05
1.09706e-05
-0.00010408
9.93402e-06
-0.000113106
9.02517e-06
-0.000121108
8.00218e-06
-0.000128172
7.06411e-06
-0.000134424
6.25252e-06
-0.000139864
5.43972e-06
-0.000144385
4.52131e-06
-0.000148058
3.67312e-06
-0.000151065
3.00628e-06
-0.000153342
2.27712e-06
-0.000154907
1.56513e-06
-0.000155833
9.26369e-07
-0.000156129
2.9595e-07
-0.000155779
-3.50384e-07
-0.000154791
-9.88261e-07
-0.000153172
-1.61917e-06
-0.000150884
-2.28718e-06
-0.000148006
-2.87833e-06
-0.00014442
-3.58612e-06
-0.000140131
-4.2887e-06
-0.000135211
-4.92064e-06
-0.000129473
-5.73711e-06
-0.000123061
-6.41235e-06
-0.000115814
-7.24758e-06
-0.000107802
-8.01208e-06
-9.89757e-05
-8.82584e-06
-8.92549e-05
-9.72082e-06
-7.86261e-05
-1.06288e-05
-6.72331e-05
-1.1393e-05
-5.48237e-05
-1.24094e-05
-4.16344e-05
-1.31893e-05
-2.74405e-05
-1.41939e-05
-1.25788e-05
-1.48617e-05
3.26237e-06
-1.58412e-05
1.97327e-05
-1.64704e-05
3.68204e-05
-1.70878e-05
5.44118e-05
-1.75914e-05
7.22546e-05
-1.78428e-05
9.01877e-05
-1.79332e-05
0.000108152
-1.79643e-05
0.000125715
-1.75633e-05
0.000142798
-1.70828e-05
0.000159117
-1.63187e-05
0.000174502
-1.53855e-05
0.000188778
-1.42759e-05
0.000201532
-1.27537e-05
0.0002127
-1.11685e-05
0.000222113
-9.41282e-06
0.000229533
-7.42045e-06
0.000234904
-5.37091e-06
0.000238036
-3.13231e-06
0.000238889
-8.52279e-07
0.000237548
1.3403e-06
0.000233822
3.72608e-06
0.00022785
5.97238e-06
0.000219854
7.99537e-06
0.000209856
9.99837e-06
0.000197971
1.18854e-05
0.000184429
1.3542e-05
0.000169401
1.50274e-05
0.000153251
1.61501e-05
0.000136077
1.71739e-05
0.000118143
1.79343e-05
9.97764e-05
1.83663e-05
8.12465e-05
1.85298e-05
6.26614e-05
1.85851e-05
4.42442e-05
1.84171e-05
2.63747e-05
1.78695e-05
9.08893e-06
1.72858e-05
-7.60723e-06
1.66962e-05
-2.33607e-05
1.57535e-05
-3.81526e-05
1.47919e-05
-5.19018e-05
1.37492e-05
-6.45345e-05
1.26327e-05
-7.60358e-05
1.15012e-05
-8.64047e-05
1.03689e-05
-9.56517e-05
9.24694e-06
-0.000103798
8.14609e-06
-0.000110868
7.0706e-06
-0.000116943
6.07423e-06
-0.000122057
5.11417e-06
-0.000126269
4.21229e-06
-0.000129623
3.35418e-06
-0.000132175
2.55133e-06
-0.000133991
1.81664e-06
-0.000135115
1.12335e-06
-0.000135599
4.8415e-07
-0.000135412
-1.87012e-07
-0.000134573
-8.39073e-07
-0.000133108
-1.46477e-06
-0.000131079
-2.02883e-06
-0.000128548
-2.53145e-06
-0.000125386
-3.16172e-06
-0.000121642
-3.74357e-06
-0.000117436
-4.20675e-06
-0.00011256
-4.87505e-06
-0.000107153
-5.40726e-06
-0.000100955
-6.19817e-06
-9.41826e-05
-6.77238e-06
-8.68137e-05
-7.36899e-06
-7.85793e-05
-8.2344e-06
-6.95664e-05
-9.01281e-06
-5.98082e-05
-9.75819e-06
-4.91584e-05
-1.06499e-05
-3.76004e-05
-1.1558e-05
-2.50723e-05
-1.25281e-05
-1.17141e-05
-1.33582e-05
2.56597e-06
-1.428e-05
1.74865e-05
-1.49205e-05
3.29593e-05
-1.54728e-05
-1.60181e-05
0.000210035
1.27454e-05
0.000201851
1.6366e-05
0.000191551
2.05957e-05
0.000179217
2.46608e-05
0.000165345
2.77352e-05
0.000149896
3.08897e-05
0.00013325
3.32808e-05
0.00011568
3.51287e-05
9.7309e-05
3.67291e-05
7.85803e-05
3.74475e-05
5.96354e-05
3.78799e-05
4.06364e-05
3.7988e-05
2.20707e-05
3.71217e-05
3.88489e-06
3.63595e-05
-1.38592e-05
3.54885e-05
-3.0903e-05
3.40843e-05
-4.71132e-05
3.24162e-05
-6.24211e-05
3.06109e-05
-7.6833e-05
2.88196e-05
-9.02637e-05
2.68595e-05
-0.000102703
2.48747e-05
-0.000114185
2.29584e-05
-0.000124691
2.10129e-05
-0.000134239
1.90997e-05
-0.000142875
1.72662e-05
-0.000150599
1.54415e-05
-0.000157451
1.3708e-05
-0.000163446
1.19937e-05
-0.000168621
1.03486e-05
-0.000173006
8.75754e-06
-0.000176612
7.20717e-06
-0.000179455
5.69409e-06
-0.000181585
4.26157e-06
-0.000182986
2.7906e-06
-0.000183695
1.42841e-06
-0.000183663
-5.45954e-08
-0.000182834
-1.65953e-06
-0.000181269
-3.12983e-06
-0.000178997
-4.54461e-06
-0.000175851
-6.29589e-06
-0.000171948
-7.80683e-06
-0.000167153
-9.58996e-06
-0.000161512
-1.12856e-05
-0.000155059
-1.29052e-05
-0.00014764
-1.48366e-05
-0.000139267
-1.67507e-05
-0.000130044
-1.84453e-05
-0.000119765
-2.05532e-05
-0.000108441
-2.26566e-05
-9.63563e-05
-2.41626e-05
-8.31313e-05
-2.64512e-05
-6.9035e-05
-2.81859e-05
-5.4026e-05
-3.00084e-05
-3.8018e-05
-3.20192e-05
-2.14773e-05
-3.30734e-05
-4.20596e-06
-3.45452e-05
1.35908e-05
-3.55825e-05
3.16862e-05
-3.61689e-05
5.00595e-05
-3.67337e-05
6.833e-05
-3.65413e-05
8.64427e-05
-3.62136e-05
0.000104351
-3.57967e-05
0.000121448
-3.41908e-05
0.000137752
-3.25901e-05
0.000153126
-3.07487e-05
0.000167082
-2.79055e-05
0.00017965
-2.51069e-05
0.000190572
-2.18423e-05
0.000199697
-1.82442e-05
0.000206851
-1.42984e-05
0.000211883
-1.00587e-05
0.000214782
-5.79263e-06
0.000215303
-1.04176e-06
0.000213511
3.59502e-06
0.000209411
8.18562e-06
0.000203015
1.2788e-05
0.000194611
1.68076e-05
0.000184013
2.11795e-05
0.000171663
2.46925e-05
0.000157589
2.81275e-05
0.000142056
3.10555e-05
0.000125251
3.35883e-05
0.000107472
3.55417e-05
8.90207e-05
3.68762e-05
7.0047e-05
3.79277e-05
5.09125e-05
3.82621e-05
3.15781e-05
3.86753e-05
1.24882e-05
3.81563e-05
-6.17944e-06
3.7317e-05
-2.43295e-05
3.62914e-05
-4.18002e-05
3.49471e-05
-5.84479e-05
3.3278e-05
-7.40407e-05
3.11862e-05
-8.8642e-05
2.92018e-05
-0.000102105
2.69261e-05
-0.00011442
2.46218e-05
-0.000125616
2.23693e-05
-0.000135646
2.00881e-05
-0.000144578
1.78601e-05
-0.000152402
1.56534e-05
-0.000159093
1.33882e-05
-0.000164842
1.15059e-05
-0.000169685
9.68802e-06
-0.000173525
7.68753e-06
-0.00017668
6.30887e-06
-0.000179067
4.77291e-06
-0.000180683
3.23572e-06
-0.000181704
2.04663e-06
-0.000182012
6.13401e-07
-0.000181679
-6.74598e-07
-0.000180764
-1.81485e-06
-0.00017916
-3.20589e-06
-0.000176941
-4.43323e-06
-0.000174043
-5.79448e-06
-0.000170526
-7.03344e-06
-0.000166359
-8.33398e-06
-0.000161495
-9.73059e-06
-0.00015593
-1.11235e-05
-0.000149672
-1.25093e-05
-0.000142701
-1.39443e-05
-0.000134998
-1.54123e-05
-0.000126471
-1.70532e-05
-0.000117151
-1.8648e-05
-0.000107078
-2.01461e-05
-9.61249e-05
-2.18929e-05
-8.43052e-05
-2.36393e-05
-7.16553e-05
-2.52972e-05
-5.81377e-05
-2.70419e-05
-4.37649e-05
-2.87446e-05
-2.85854e-05
-3.03473e-05
-1.26667e-05
-3.18372e-05
3.95428e-06
-3.32348e-05
2.11567e-05
-3.43911e-05
3.8791e-05
-3.52632e-05
5.66946e-05
-3.58039e-05
7.47088e-05
-3.60165e-05
9.25764e-05
-3.57195e-05
0.00011006
-3.49588e-05
0.000126916
-3.36979e-05
0.00014283
-3.18093e-05
0.00015756
-2.94633e-05
0.000170836
-2.65324e-05
0.000182369
-2.30491e-05
0.000191946
-1.91598e-05
0.000199372
-1.48491e-05
0.000204466
-1.01949e-05
0.000207172
-5.40207e-06
0.000207382
-4.09915e-07
0.000205006
4.72301e-06
0.000200123
9.76095e-06
0.000192847
1.45446e-05
0.000183346
1.89948e-05
0.000171808
2.30552e-05
0.000158529
2.65415e-05
0.000143772
2.95042e-05
0.000127782
3.197e-05
0.000110841
3.38732e-05
9.32107e-05
3.52349e-05
7.52111e-05
3.59839e-05
5.70965e-05
3.62294e-05
3.90236e-05
3.6138e-05
2.12824e-05
3.54891e-05
3.87732e-06
3.47795e-05
-1.29317e-05
3.3609e-05
-2.90623e-05
3.22602e-05
-4.44139e-05
3.07015e-05
-5.89445e-05
2.90626e-05
-7.25666e-05
2.7232e-05
-8.52358e-05
2.53389e-05
-9.69597e-05
2.34598e-05
-0.00010781
2.17042e-05
-0.000117776
1.99256e-05
-0.000126859
1.81662e-05
-0.000134995
1.62716e-05
-0.00014234
1.46888e-05
-0.000148813
1.29551e-05
-0.000154535
1.14527e-05
-0.000159621
1.01663e-05
-0.000163819
8.40134e-06
-0.000167383
7.14007e-06
-0.000170305
5.83686e-06
-0.000172516
4.41688e-06
-0.000174094
3.15862e-06
-0.000174985
1.78338e-06
-0.000175233
5.09266e-07
-0.000174836
-7.94301e-07
-0.00017372
-2.23665e-06
-0.000171998
-3.44498e-06
-0.000169516
-4.96529e-06
-0.000166301
-6.43179e-06
-0.000162295
-8.00731e-06
-0.000157488
-9.60636e-06
-0.000151847
-1.1284e-05
-0.000145357
-1.29841e-05
-0.00013797
-1.47708e-05
-0.000129715
-1.65086e-05
-0.000120558
-1.83152e-05
-0.00011048
-2.01591e-05
-9.95513e-05
-2.18616e-05
-8.76822e-05
-2.37338e-05
-7.49531e-05
-2.54493e-05
-6.14552e-05
-2.69914e-05
-4.71337e-05
-2.86397e-05
-3.20676e-05
-3.01305e-05
-1.63274e-05
-3.14718e-05
-8.92524e-11
-3.26515e-05
1.68611e-05
-3.37155e-05
3.41113e-05
-3.44868e-05
5.16301e-05
-3.50301e-05
6.92514e-05
-3.52403e-05
8.68372e-05
-3.51656e-05
0.000104174
-3.46594e-05
0.000121019
-3.36869e-05
0.000137194
-3.23293e-05
0.000152432
-3.04567e-05
0.000166493
-2.81282e-05
0.000179219
-2.54428e-05
0.000190289
-2.21256e-05
0.00019947
-1.83646e-05
0.000206662
-1.43779e-05
0.000211623
-9.91399e-06
0.000214326
-5.40644e-06
0.000214686
-7.27516e-07
0.000212788
3.79363e-06
0.000208568
8.42622e-06
0.000202079
1.29671e-05
0.000193573
1.6999e-05
0.000183087
2.09655e-05
0.000170881
2.43977e-05
0.000157136
2.74813e-05
0.00014206
3.01366e-05
0.000125966
3.21796e-05
0.000109055
3.37997e-05
9.15647e-05
3.49684e-05
7.36947e-05
3.5745e-05
5.56984e-05
3.59777e-05
3.77861e-05
3.58142e-05
2.01908e-05
3.51755e-05
3.01816e-06
3.43408e-05
-1.34864e-05
3.30095e-05
-2.92854e-05
3.15895e-05
-4.42285e-05
2.98624e-05
-5.82776e-05
2.81178e-05
-7.12515e-05
2.59519e-05
-8.32556e-05
2.40052e-05
-9.4228e-05
2.19431e-05
-0.000104161
1.98674e-05
-0.000113191
1.80548e-05
-0.000121188
1.59995e-05
-0.00012825
1.41254e-05
-0.000134501
1.25036e-05
-0.000139941
1.08796e-05
-0.000144457
9.03731e-06
-0.000148123
7.3395e-06
-0.000151131
6.0142e-06
-0.000153413
4.55908e-06
-0.00015497
3.12185e-06
-0.000155898
1.85504e-06
-0.000156184
5.81624e-07
-0.000155828
-7.06433e-07
-0.000154839
-1.97705e-06
-0.000153226
-3.23241e-06
-0.000150947
-4.56619e-06
-0.00014806
-5.76522e-06
-0.000144464
-7.18243e-06
-0.000140169
-8.58356e-06
-0.00013526
-9.82942e-06
-0.000129531
-1.14661e-05
-0.000123114
-1.28292e-05
-0.000115866
-1.44955e-05
-0.00010786
-1.60189e-05
-9.90288e-05
-1.76567e-05
-8.93081e-05
-1.94416e-05
-7.86785e-05
-2.12585e-05
-6.72863e-05
-2.27854e-05
-5.48814e-05
-2.48143e-05
-4.16896e-05
-2.63812e-05
-2.74888e-05
-2.83948e-05
-1.26139e-05
-2.97367e-05
3.22886e-06
-3.16841e-05
1.97053e-05
-3.29469e-05
3.67945e-05
-3.4177e-05
5.43926e-05
-3.51896e-05
7.22543e-05
-3.57046e-05
9.02003e-05
-3.58793e-05
0.000108169
-3.59333e-05
0.00012574
-3.51342e-05
0.000142832
-3.41747e-05
0.000159161
-3.26478e-05
0.000174576
-3.08009e-05
0.000188864
-2.85639e-05
0.000201621
-2.55107e-05
0.000212801
-2.23491e-05
0.000222212
-1.88231e-05
0.00022964
-1.48486e-05
0.000235027
-1.07585e-05
0.000238158
-6.26363e-06
0.000239016
-1.7097e-06
0.00023767
2.6858e-06
0.000233947
7.44908e-06
0.000227971
1.1948e-05
0.000219971
1.59957e-05
0.000209967
2.00027e-05
0.000198073
2.37791e-05
0.000184517
2.70977e-05
0.000169479
3.00657e-05
0.000153318
3.23112e-05
0.000136133
3.43589e-05
0.000118183
3.58838e-05
9.9807e-05
3.67425e-05
8.12649e-05
3.7072e-05
6.2665e-05
3.7185e-05
4.42393e-05
3.68429e-05
2.63597e-05
3.57491e-05
9.05612e-06
3.45893e-05
-7.63727e-06
3.33895e-05
-2.33971e-05
3.15133e-05
-3.81961e-05
2.95909e-05
-5.19488e-05
2.75019e-05
-6.45831e-05
2.5267e-05
-7.60892e-05
2.30074e-05
-8.6463e-05
2.07427e-05
-9.57089e-05
1.84929e-05
-0.000103852
1.62892e-05
-0.000110926
1.41449e-05
-0.000117004
1.21514e-05
-0.000122114
1.02246e-05
-0.00012632
8.41873e-06
-0.000129672
6.70549e-06
-0.000132222
5.10171e-06
-0.000134041
3.63574e-06
-0.00013517
2.25167e-06
-0.000135657
9.71655e-07
-0.000135459
-3.85401e-07
-0.000134615
-1.68283e-06
-0.000133148
-2.93133e-06
-0.000131119
-4.05848e-06
-0.000128583
-5.06668e-06
-0.000125422
-6.32272e-06
-0.000121679
-7.48689e-06
-0.000117476
-8.40981e-06
-0.000112598
-9.7529e-06
-0.000107186
-1.08195e-05
-0.000100992
-1.23918e-05
-9.42196e-05
-1.3545e-05
-8.68491e-05
-1.47395e-05
-7.86172e-05
-1.64663e-05
-6.96027e-05
-1.80273e-05
-5.98432e-05
-1.95176e-05
-4.91953e-05
-2.12978e-05
-3.76355e-05
-2.31177e-05
-2.51042e-05
-2.50595e-05
-1.17414e-05
-2.6721e-05
2.53775e-06
-2.85592e-05
1.74586e-05
-2.98414e-05
3.29358e-05
-3.095e-05
-3.20432e-05
0.000210208
1.91281e-05
0.000202012
2.45618e-05
0.000191698
3.09101e-05
0.000179348
3.70113e-05
0.000165457
4.16255e-05
0.000149989
4.63578e-05
0.000133325
4.99446e-05
0.000115732
5.2722e-05
9.73385e-05
5.51226e-05
7.85929e-05
5.61931e-05
5.96319e-05
5.6841e-05
4.06182e-05
5.70017e-05
2.20351e-05
5.57048e-05
3.82705e-06
5.45675e-05
-1.39207e-05
5.32363e-05
-3.09732e-05
5.11368e-05
-4.71925e-05
4.86354e-05
-6.25066e-05
4.5925e-05
-7.69224e-05
4.32353e-05
-9.03569e-05
4.02941e-05
-0.000102798
3.73159e-05
-0.000114278
3.44387e-05
-0.000124787
3.15219e-05
-0.000134336
2.86483e-05
-0.000142971
2.59017e-05
-0.00015069
2.31598e-05
-0.000157541
2.05597e-05
-0.000163546
1.79978e-05
-0.000168719
1.55225e-05
-0.0001731
1.31385e-05
-0.000176701
1.08077e-05
-0.000179548
8.54127e-06
-0.000181684
6.39758e-06
-0.000183076
4.18198e-06
-0.000183773
2.12598e-06
-0.000183731
-9.68339e-08
-0.000182895
-2.49558e-06
-0.000181328
-4.69633e-06
-0.000179058
-6.81502e-06
-0.000175915
-9.43854e-06
-0.000172012
-1.17103e-05
-0.000167219
-1.43828e-05
-0.000161583
-1.69217e-05
-0.00015513
-1.93582e-05
-0.000147713
-2.22539e-05
-0.000139344
-2.5119e-05
-0.000130119
-2.76703e-05
-0.000119841
-3.08321e-05
-0.000108525
-3.39724e-05
-9.64318e-05
-3.62559e-05
-8.32106e-05
-3.96724e-05
-6.91046e-05
-4.22919e-05
-5.40853e-05
-4.50278e-05
-3.80774e-05
-4.80273e-05
-2.15303e-05
-4.96206e-05
-4.25277e-06
-5.18229e-05
1.35498e-05
-5.33852e-05
3.16502e-05
-5.42695e-05
5.00486e-05
-5.51322e-05
6.83279e-05
-5.48207e-05
8.64559e-05
-5.43418e-05
0.000104375
-5.37156e-05
0.000121489
-5.13052e-05
0.000137808
-4.89089e-05
0.000153205
-4.61456e-05
0.000167178
-4.18789e-05
0.000179766
-3.76956e-05
0.000190699
-3.27747e-05
0.000199828
-2.73734e-05
0.000206994
-2.14644e-05
0.000212028
-1.50933e-05
0.000214938
-8.70217e-06
0.000215472
-1.57593e-06
0.000213691
5.37601e-06
0.000209578
1.22982e-05
0.000203176
1.919e-05
0.000194772
2.52116e-05
0.000184145
3.18058e-05
0.000171789
3.7049e-05
0.000157688
4.22284e-05
0.000142141
4.66029e-05
0.000125313
5.04158e-05
0.000107514
5.33411e-05
8.90377e-05
5.53521e-05
7.00411e-05
5.69243e-05
5.08642e-05
5.74391e-05
3.15411e-05
5.79983e-05
1.2433e-05
5.72644e-05
-6.24412e-06
5.59942e-05
-2.44075e-05
5.44548e-05
-4.18957e-05
5.24353e-05
-5.85607e-05
4.99431e-05
-7.41505e-05
4.6776e-05
-8.87573e-05
4.38086e-05
-0.000102228
4.03971e-05
-0.000114542
3.69357e-05
-0.000125748
3.35749e-05
-0.000135761
3.01008e-05
-0.000144715
2.68145e-05
-0.000152539
2.34776e-05
-0.000159222
2.00715e-05
-0.00016496
1.72438e-05
-0.000169793
1.45211e-05
-0.00017361
1.15043e-05
-0.000176768
9.46627e-06
-0.000179165
7.17057e-06
-0.000180786
4.85586e-06
-0.000181805
3.06598e-06
-0.000182097
9.05703e-07
-0.000181779
-9.92323e-07
-0.000180854
-2.74056e-06
-0.00017925
-4.80962e-06
-0.00017703
-6.65358e-06
-0.000174131
-8.69362e-06
-0.000170615
-1.0549e-05
-0.000166452
-1.2497e-05
-0.000161578
-1.46043e-05
-0.00015602
-1.66823e-05
-0.00014977
-1.87591e-05
-0.00014279
-2.09242e-05
-0.000135088
-2.31142e-05
-0.000126571
-2.55709e-05
-0.000117247
-2.79717e-05
-0.00010718
-3.02137e-05
-9.62267e-05
-3.28459e-05
-8.44068e-05
-3.54593e-05
-7.17511e-05
-3.7953e-05
-5.82253e-05
-4.05678e-05
-4.38514e-05
-4.31187e-05
-2.8654e-05
-4.55449e-05
-1.27437e-05
-4.77476e-05
3.88516e-06
-4.98638e-05
2.10992e-05
-5.16053e-05
3.87583e-05
-5.29225e-05
5.66714e-05
-5.37172e-05
7.47005e-05
-5.40458e-05
9.25889e-05
-5.36081e-05
0.000110112
-5.24824e-05
0.000126974
-5.05595e-05
0.000142908
-4.77437e-05
0.000157661
-4.42163e-05
0.000170955
-3.98268e-05
0.00018251
-3.46045e-05
0.000192114
-2.87632e-05
0.000199545
-2.22807e-05
0.000204642
-1.52916e-05
0.00020735
-8.11066e-06
0.000207524
-5.83804e-07
0.000205163
7.08425e-06
0.000200288
1.46351e-05
0.00019297
2.18626e-05
0.000183468
2.84968e-05
0.000171919
3.46047e-05
0.000158623
3.98372e-05
0.000143838
4.42889e-05
0.000127825
4.79831e-05
0.000110864
5.08344e-05
9.32263e-05
5.28724e-05
7.51887e-05
5.40214e-05
5.70618e-05
5.43563e-05
3.89822e-05
5.42176e-05
2.12355e-05
5.32358e-05
3.81626e-06
5.21987e-05
-1.30049e-05
5.04302e-05
-2.91437e-05
4.83989e-05
-4.45039e-05
4.60617e-05
-5.9039e-05
4.35977e-05
-7.26704e-05
4.08634e-05
-8.53467e-05
3.80152e-05
-9.70737e-05
3.51868e-05
-0.000107903
3.25331e-05
-0.000117872
2.98953e-05
-0.000126969
2.72627e-05
-0.000135101
2.44037e-05
-0.000142443
2.20311e-05
-0.000148924
1.94358e-05
-0.000154632
1.71605e-05
-0.000159715
1.52501e-05
-0.000163904
1.25897e-05
-0.000167453
1.06889e-05
-0.000170404
8.7878e-06
-0.000172622
6.63495e-06
-0.000174191
4.72792e-06
-0.000175085
2.677e-06
-0.000175322
7.4643e-07
-0.000174926
-1.18971e-06
-0.000173808
-3.35452e-06
-0.000172083
-5.17038e-06
-0.000169609
-7.43962e-06
-0.0001664
-9.64053e-06
-0.000162404
-1.20035e-05
-0.000157598
-1.44125e-05
-0.000151946
-1.69361e-05
-0.000145454
-1.94752e-05
-0.000138078
-2.21472e-05
-0.000129816
-2.47704e-05
-0.000120657
-2.74743e-05
-0.000110585
-3.02311e-05
-9.9646e-05
-3.28008e-05
-8.77863e-05
-3.55936e-05
-7.50573e-05
-3.81783e-05
-6.15462e-05
-4.05026e-05
-4.72236e-05
-4.29623e-05
-3.21525e-05
-4.52017e-05
-1.63991e-05
-4.72253e-05
-5.91382e-08
-4.89915e-05
1.68081e-05
-5.05829e-05
3.40632e-05
-5.17419e-05
5.16027e-05
-5.25697e-05
6.92435e-05
-5.28812e-05
8.68436e-05
-5.27659e-05
0.000104195
-5.20109e-05
0.000121062
-5.05535e-05
0.000137245
-4.85126e-05
0.000152498
-4.57103e-05
0.000166588
-4.22177e-05
0.000179332
-3.8187e-05
0.000190417
-3.32108e-05
0.000199619
-2.75671e-05
0.000206822
-2.1581e-05
0.000211791
-1.48824e-05
0.000214503
-8.11876e-06
0.000214846
-1.07061e-06
0.000212919
5.72048e-06
0.000208713
1.26318e-05
0.000202214
1.94659e-05
0.000193691
2.55224e-05
0.000183192
3.14645e-05
0.000170961
3.66286e-05
0.000157206
4.12359e-05
0.000142105
4.52385e-05
0.000125992
4.82926e-05
0.000109068
5.07233e-05
9.15689e-05
5.24673e-05
7.36963e-05
5.36176e-05
5.56809e-05
5.39931e-05
3.77548e-05
5.37403e-05
2.01271e-05
5.28032e-05
2.94491e-06
5.15231e-05
-1.35659e-05
4.95203e-05
-2.93771e-05
4.74007e-05
-4.4337e-05
4.48224e-05
-5.83923e-05
4.21731e-05
-7.13705e-05
3.89301e-05
-8.33551e-05
3.59897e-05
-9.43286e-05
3.29167e-05
-0.000104274
2.98126e-05
-0.000113314
2.70951e-05
-0.000121297
2.39828e-05
-0.000128359
2.11872e-05
-0.000134607
1.87514e-05
-0.000140046
1.63185e-05
-0.000144557
1.3548e-05
-0.000148225
1.10075e-05
-0.000151217
9.00684e-06
-0.000153515
6.85675e-06
-0.000155064
4.67138e-06
-0.000155993
2.78349e-06
-0.000156276
8.649e-07
-0.00015592
-1.06294e-06
-0.000154902
-2.99503e-06
-0.000153307
-4.82709e-06
-0.000151036
-6.83732e-06
-0.000148156
-8.64492e-06
-0.000144562
-1.07762e-05
-0.000140257
-1.28895e-05
-0.000135351
-1.47354e-05
-0.00012962
-1.71968e-05
-0.00012318
-1.92692e-05
-0.000115967
-2.17086e-05
-0.000107958
-2.40278e-05
-9.91129e-05
-2.65018e-05
-8.94082e-05
-2.91463e-05
-7.87644e-05
-3.19023e-05
-6.73775e-05
-3.41723e-05
-5.49741e-05
-3.72177e-05
-4.17684e-05
-3.9587e-05
-2.75734e-05
-4.25898e-05
-1.26765e-05
-4.46336e-05
3.16384e-06
-4.75245e-05
1.96453e-05
-4.94285e-05
3.67497e-05
-5.12815e-05
5.43549e-05
-5.2795e-05
7.22216e-05
-5.35714e-05
9.01905e-05
-5.38483e-05
0.000108183
-5.3926e-05
0.000125756
-5.27074e-05
0.000142871
-5.12892e-05
0.000159214
-4.89914e-05
0.000174641
-4.62281e-05
0.000188958
-4.28811e-05
0.000201722
-3.82741e-05
0.000212913
-3.35401e-05
0.000222357
-2.82675e-05
0.000229781
-2.22729e-05
0.000235176
-1.61539e-05
0.000238316
-9.40345e-06
0.00023919
-2.58388e-06
0.00023783
4.04619e-06
0.000234116
1.11628e-05
0.000228135
1.79287e-05
0.000220129
2.40015e-05
0.000210112
3.00197e-05
0.000198206
3.56853e-05
0.000184628
4.06751e-05
0.000169576
4.51181e-05
0.000153394
4.84927e-05
0.000136193
5.15605e-05
0.000118219
5.38578e-05
9.98324e-05
5.51288e-05
8.1266e-05
5.56384e-05
6.26405e-05
5.58104e-05
4.42071e-05
5.52763e-05
2.63103e-05
5.36458e-05
8.97069e-06
5.19289e-05
-7.71258e-06
5.00728e-05
-2.34806e-05
4.72813e-05
-3.82848e-05
4.43951e-05
-5.20424e-05
4.12595e-05
-6.46827e-05
3.79073e-05
-7.61914e-05
3.45161e-05
-8.65614e-05
3.11126e-05
-9.58062e-05
2.77377e-05
-0.000103952
2.44347e-05
-0.000111028
2.12215e-05
-0.000117094
1.82169e-05
-0.000122198
1.53293e-05
-0.0001264
1.26203e-05
-0.000129751
1.00568e-05
-0.000132301
7.65156e-06
-0.000134116
5.45075e-06
-0.000135238
3.37377e-06
-0.000135723
1.45608e-06
-0.000135506
-6.01823e-07
-0.000134658
-2.53118e-06
-0.000133193
-4.39607e-06
-0.000131157
-6.09425e-06
-0.00012862
-7.60395e-06
-0.000125462
-9.48131e-06
-0.000121714
-1.12346e-05
-0.000117507
-1.2617e-05
-0.000112638
-1.46214e-05
-0.000107237
-1.62208e-05
-0.000101043
-1.85861e-05
-9.42706e-05
-2.0317e-05
-8.69014e-05
-2.21087e-05
-7.86763e-05
-2.46914e-05
-6.96614e-05
-2.70421e-05
-5.99025e-05
-2.92766e-05
-4.92487e-05
-3.19516e-05
-3.77004e-05
-3.4666e-05
-2.51652e-05
-3.75947e-05
-1.17955e-05
-4.00907e-05
2.48292e-06
-4.28376e-05
1.74057e-05
-4.47641e-05
3.2891e-05
-4.64354e-05
-4.80802e-05
0.000210468
2.55249e-05
0.000202255
3.27749e-05
0.000191919
4.12457e-05
0.000179544
4.93869e-05
0.000165625
5.55439e-05
0.000150129
6.1854e-05
0.000133438
6.66356e-05
0.00011581
7.03501e-05
9.73834e-05
7.35491e-05
7.86117e-05
7.49647e-05
5.96156e-05
7.58371e-05
4.05919e-05
7.60254e-05
2.19818e-05
7.43149e-05
3.74168e-06
7.28076e-05
-1.40153e-05
7.09932e-05
-3.10802e-05
6.82017e-05
-4.7311e-05
6.48662e-05
-6.26359e-05
6.12499e-05
-7.70578e-05
5.76572e-05
-9.04971e-05
5.37335e-05
-0.000102946
4.97649e-05
-0.000114426
4.59186e-05
-0.000124935
4.20308e-05
-0.000134483
3.8196e-05
-0.000143117
3.45362e-05
-0.000150835
3.08776e-05
-0.000157688
2.74132e-05
-0.000163697
2.40061e-05
-0.000168861
2.06872e-05
-0.000173246
1.75228e-05
-0.000176853
1.44146e-05
-0.000179705
1.1394e-05
-0.000181837
8.52972e-06
-0.000183221
5.56565e-06
-0.000183893
2.79758e-06
-0.000183827
-1.62974e-07
-0.000182986
-3.33595e-06
-0.000181418
-6.26498e-06
-0.00017915
-9.0831e-06
-0.000176013
-1.25755e-05
-0.000172108
-1.56152e-05
-0.000167319
-1.91713e-05
-0.00016169
-2.25508e-05
-0.000155237
-2.58117e-05
-0.000147822
-2.96689e-05
-0.000139462
-3.34793e-05
-0.000130234
-3.68978e-05
-0.000119955
-4.11112e-05
-0.000108655
-4.52723e-05
-9.6546e-05
-4.83654e-05
-8.33301e-05
-5.28884e-05
-6.92112e-05
-5.64109e-05
-5.41767e-05
-6.00623e-05
-3.81668e-05
-6.40373e-05
-2.16106e-05
-6.61768e-05
-4.32841e-06
-6.91052e-05
1.34845e-05
-7.11982e-05
3.16022e-05
-7.23873e-05
5.00189e-05
-7.3549e-05
6.83116e-05
-7.31136e-05
8.6486e-05
-7.25164e-05
0.000104408
-7.16374e-05
0.000121548
-6.84454e-05
0.000137897
-6.52588e-05
0.000153312
-6.15603e-05
0.000167308
-5.58748e-05
0.000179931
-5.03193e-05
0.00019088
-4.37231e-05
0.000200014
-3.65081e-05
0.000207202
-2.86516e-05
0.000212253
-2.0145e-05
0.000215167
-1.16162e-05
0.000215714
-2.12247e-06
0.00021393
7.15991e-06
0.000209822
1.64056e-05
0.000203411
2.56008e-05
0.000194996
3.36271e-05
0.000184341
4.246e-05
0.000171972
4.94186e-05
0.000157831
5.63693e-05
0.000142265
6.21682e-05
0.000125408
6.72734e-05
0.00010758
7.11692e-05
8.9063e-05
7.38687e-05
7.00367e-05
7.59506e-05
5.08112e-05
7.66645e-05
3.14826e-05
7.7327e-05
1.23495e-05
7.63975e-05
-6.35232e-06
7.4696e-05
-2.45433e-05
7.26458e-05
-4.20493e-05
6.99414e-05
-5.87321e-05
6.66259e-05
-7.43159e-05
6.23599e-05
-8.89242e-05
5.84168e-05
-0.000102412
5.38852e-05
-0.000114738
4.92619e-05
-0.000125937
4.47731e-05
-0.000135903
4.00674e-05
-0.000144912
3.58231e-05
-0.000152744
3.13096e-05
-0.0001594
2.67281e-05
-0.000165115
2.29579e-05