/*--------------------------------*- C++ -*----------------------------------*\
| =========                 |                                                 |
| \\      /  F ield         | OpenFOAM: The Open Source CFD Toolbox           |
|  \\    /   O peration     | Version:  3.0.1                                 |
|   \\  /    A nd           | Web:      www.OpenFOAM.org                      |
|    \\/     M anipulation  |                                                 |
\*---------------------------------------------------------------------------*/
FoamFile
{
    version     2.0;
    format      ascii;
    class       volScalarField;
    location    "47";
    object      p;
}
// * * * * * * * * * * * * * * * * * * * * * * * * * * * * * * * * * * * * * //

dimensions      [1 -1 -2 0 0 0 0];

internalField   nonuniform List<scalar> 
21420
(
4041.35
4073.58
4105.11
4135.45
4164.21
4190.85
4215
4236.24
4254.26
4268.78
4279.58
4286.46
4289.25
4287.82
4282.29
4272.84
4259.46
4242.4
4221.88
4198.22
4171.78
4142.93
4112.04
4079.57
4045.92
4011.54
3976.83
3942.16
3908.01
3875.65
3843.44
3812.36
3782.65
3754.5
3728.02
3703.31
3680.4
3659.33
3640.09
3622.66
3607.01
3593.11
3580.9
3570.35
3561.4
3554.02
3548.18
3543.83
3540.95
3539.58
3539.7
3541.29
3544.35
3548.93
3555.07
3562.77
3572.09
3583.09
3595.77
3610.19
3626.36
3644.3
3664.02
3685.5
3708.68
3733.51
3759.9
3787.73
3816.84
3847.04
3878.05
3912.41
3944.8
3977.51
4010.24
4042.61
4074.28
4104.94
4134.2
4161.71
4187.15
4210.15
4230.4
4247.58
4261.42
4271.68
4278.18
4280.78
4279.41
4274.08
4264.87
4251.84
4235.17
4215.07
4191.82
4165.69
4137.04
4106.24
4073.69
4039.8
4005.02
3969.78
3934.51
3899.64
3865.56
3832.6
3801.06
3771.18
3743.13
3717.05
3693.01
3671.03
3651.13
3633.27
3617.4
3603.45
3591.34
3581.01
3572.38
3565.38
3559.93
3555.97
3553.44
3552.31
3552.56
3554.1
3556.93
3561.05
3566.44
3573.12
3581.08
3590.35
3600.97
3612.96
3626.35
3641.19
3657.51
3675.36
3694.74
3715.7
3738.21
3762.28
3787.86
3814.87
3843.23
3872.78
3903.37
3934.83
3966.77
3998.94
4031.05
4062.71
4093.57
4123.21
4151.24
4177.26
4200.86
4221.68
4239.37
4253.63
4264.2
4270.88
4273.48
4272.02
4266.43
4256.82
4243.3
4226.1
4205.49
4181.81
4155.44
4126.79
4096.31
4064.45
4031.65
3998.35
3964.97
3931.89
3899.46
3867.97
3837.69
3808.82
3781.53
3755.94
3732.12
3710.11
3689.93
3671.57
3655
3640.18
3627.05
3615.54
3605.59
3597.12
3590.04
3584.29
3579.82
3576.55
3574.45
3573.47
3573.62
3574.86
3577.19
3580.6
3585.12
3590.77
3597.55
3605.53
3614.73
3625.22
3637.05
3650.28
3664.97
3681.16
3698.88
3718.14
3738.94
3761.27
3785.07
3810.29
3836.82
3864.54
3893.28
3922.86
3953.09
3983.61
4014.16
4044.43
4074.08
4102.76
4130.11
4155.77
4179.38
4200.6
4219.09
4234.57
4246.76
4255.45
4260.49
4261.72
4259.23
4252.99
4243.1
4229.74
4213.15
4193.58
4171.36
4146.84
4120.39
4092.4
4063.25
4033.32
4002.99
3972.61
3942.49
3912.93
3884.2
3856.52
3830.07
3805
3781.41
3759.38
3738.93
3720.08
3702.81
3687.09
3672.87
3660.1
3648.72
3638.68
3629.93
3622.41
3616.07
3610.86
3606.74
3603.69
3601.69
3600.7
3600.66
3601.6
3603.51
3606.37
3610.17
3614.94
3620.7
3627.46
3635.26
3644.12
3654.1
3665.25
3677.64
3691.32
3706.37
3722.82
3740.75
3760.18
3781.13
3803.61
3827.57
3852.93
3879.46
3905.34
3933.64
3962.74
3992.2
4021.7
4050.94
4079.56
4107.22
4133.56
4158.24
4180.96
4201.42
4219.35
4234.54
4246.77
4255.91
4261.84
4264.42
4263.51
4259.29
4251.92
4241.48
4228.16
4212.18
4193.78
4173.22
4150.78
4126.77
4101.46
4075.18
4048.21
4020.82
3993.28
3965.83
3938.71
3912.09
3886.22
3861.2
3836.84
3813.38
3790.91
3769.52
3749.25
3730.16
3712.28
3695.64
3680.25
3666.14
3653.32
3641.81
3631.62
3622.76
3615.25
3609.09
3604.28
3600.82
3943.24
3975.49
4007.04
4037.4
4066.17
4092.83
4117
4138.26
4156.29
4170.83
4181.63
4188.52
4191.31
4189.88
4184.35
4174.89
4161.5
4144.42
4123.89
4100.21
4073.76
4044.88
4013.98
3981.49
3947.82
3913.43
3878.7
3844.02
3809.85
3777.49
3745.27
3714.18
3684.47
3656.31
3629.83
3605.12
3582.22
3561.15
3541.91
3524.48
3508.84
3494.94
3482.73
3472.18
3463.24
3455.86
3450.02
3445.67
3442.8
3441.42
3441.54
3443.13
3446.19
3450.77
3456.9
3464.61
3473.93
3484.92
3497.6
3512.02
3528.19
3546.13
3565.85
3587.32
3610.5
3635.33
3661.73
3689.56
3718.68
3748.89
3779.91
3814.25
3846.66
3879.39
3912.13
3944.51
3976.2
4006.87
4036.15
4063.68
4089.13
4112.15
4132.41
4149.6
4163.45
4173.73
4180.23
4182.84
4181.46
4176.13
4166.92
4153.87
4137.19
4117.08
4093.81
4067.67
4039
4008.19
3975.61
3941.71
3906.9
3871.64
3836.36
3801.48
3767.39
3734.42
3702.87
3672.98
3644.93
3618.85
3594.81
3572.84
3552.94
3535.08
3519.21
3505.27
3493.17
3482.84
3474.22
3467.21
3461.77
3457.81
3455.28
3454.16
3454.41
3455.95
3458.78
3462.9
3468.29
3474.96
3482.92
3492.2
3502.81
3514.8
3528.19
3543.03
3559.35
3577.19
3596.57
3617.52
3640.04
3664.11
3689.68
3716.7
3745.06
3774.62
3805.21
3836.69
3868.63
3900.82
3932.94
3964.62
3995.49
4025.15
4053.2
4079.24
4102.86
4123.69
4141.4
4155.67
4166.25
4172.94
4175.55
4174.08
4168.48
4158.87
4145.34
4128.12
4107.5
4083.8
4057.41
4028.74
3998.24
3966.36
3933.54
3900.23
3866.83
3833.74
3801.3
3769.8
3739.51
3710.64
3683.35
3657.76
3633.93
3611.92
3591.75
3573.39
3556.82
3542
3528.88
3517.38
3507.43
3498.96
3491.88
3486.14
3481.67
3478.4
3476.3
3475.33
3475.47
3476.72
3479.04
3482.46
3486.98
3492.62
3499.4
3507.38
3516.58
3527.06
3538.89
3552.12
3566.81
3582.99
3600.71
3619.97
3640.77
3663.1
3686.9
3712.12
3738.66
3766.38
3795.13
3824.72
3854.96
3885.48
3916.04
3946.33
3976
4004.69
4032.06
4057.73
4081.36
4102.59
4121.1
4136.59
4148.79
4157.49
4162.54
4163.77
4161.27
4155.02
4145.13
4131.76
4115.15
4095.57
4073.34
4048.8
4022.34
3994.33
3965.16
3935.22
3904.87
3874.47
3844.34
3814.78
3786.04
3758.35
3731.9
3706.83
3683.24
3661.21
3640.76
3621.91
3604.64
3588.92
3574.71
3561.94
3550.56
3540.53
3531.78
3524.26
3517.92
3512.72
3508.6
3505.55
3503.55
3502.56
3502.52
3503.46
3505.37
3508.23
3512.03
3516.8
3522.56
3529.32
3537.11
3545.97
3555.95
3567.1
3579.48
3593.17
3608.21
3624.66
3642.58
3662.01
3682.96
3705.44
3729.41
3754.76
3781.31
3807.17
3835.5
3864.6
3894.08
3923.59
3952.84
3981.48
4009.15
4035.51
4060.2
4082.94
4103.41
4121.35
4136.55
4148.79
4157.94
4163.87
4166.46
4165.54
4161.31
4153.94
4143.49
4130.16
4114.17
4095.76
4075.18
4052.73
4028.7
4003.39
3977.09
3950.11
3922.71
3895.16
3867.7
3840.57
3813.95
3788.08
3763.05
3738.7
3715.23
3692.76
3671.36
3651.1
3632.01
3614.13
3597.48
3582.1
3567.99
3555.17
3543.66
3533.47
3524.61
3517.09
3510.93
3506.13
3502.66
3845.13
3877.42
3909
3939.39
3968.2
3994.9
4019.1
4040.39
4058.45
4073.01
4083.83
4090.73
4093.54
4092.1
4086.57
4077.09
4063.68
4046.57
4026.01
4002.3
3975.81
3946.89
3915.95
3883.43
3849.72
3815.3
3780.54
3745.84
3711.65
3679.26
3647.03
3615.92
3586.2
3558.05
3531.57
3506.86
3483.95
3462.89
3443.65
3426.23
3410.59
3396.7
3384.5
3373.95
3365.01
3357.64
3351.8
3347.45
3344.58
3343.21
3343.33
3344.91
3347.97
3352.55
3358.68
3366.38
3375.69
3386.68
3399.36
3413.77
3429.94
3447.87
3467.59
3489.07
3512.25
3537.08
3563.48
3591.32
3620.46
3650.68
3681.74
3716.04
3748.48
3781.24
3814
3846.41
3878.13
3908.83
3938.14
3965.7
3991.19
4014.24
4034.53
4051.75
4065.62
4075.92
4082.43
4085.06
4083.67
4078.33
4069.11
4056.05
4039.34
4019.21
3995.9
3969.73
3941.02
3910.17
3877.56
3843.61
3808.78
3773.48
3738.17
3703.26
3669.14
3636.16
3604.59
3574.7
3546.64
3520.56
3496.52
3474.56
3454.66
3436.81
3420.95
3407.01
3394.92
3384.6
3375.98
3368.99
3363.54
3359.59
3357.07
3355.95
3356.2
3357.74
3360.58
3364.69
3370.08
3376.75
3384.71
3393.99
3404.6
3416.58
3429.97
3444.8
3461.11
3478.95
3498.33
3519.28
3541.79
3565.86
3591.44
3618.46
3646.83
3676.4
3707.01
3738.5
3770.46
3802.68
3834.82
3866.54
3897.44
3927.14
3955.22
3981.29
4004.95
4025.82
4043.56
4057.85
4068.45
4075.15
4077.78
4076.29
4070.69
4061.06
4047.51
4030.27
4009.61
3985.87
3959.44
3930.74
3900.2
3868.28
3835.43
3802.08
3768.66
3735.54
3703.07
3671.56
3641.26
3612.38
3585.09
3559.49
3535.67
3513.66
3493.49
3475.13
3458.57
3443.76
3430.64
3419.15
3409.21
3400.74
3393.68
3387.94
3383.47
3380.21
3378.11
3377.14
3377.29
3378.53
3380.85
3384.27
3388.78
3394.42
3401.21
3409.18
3418.37
3428.85
3440.67
3453.9
3468.58
3484.76
3502.47
3521.73
3542.53
3564.86
3588.67
3613.89
3640.43
3668.16
3696.92
3726.53
3756.79
3787.33
3817.92
3848.23
3877.93
3906.66
3934.06
3959.76
3983.42
4004.68
4023.22
4038.74
4050.96
4059.68
4064.73
4065.98
4063.46
4057.2
4047.29
4033.9
4017.26
3997.65
3975.39
3950.82
3924.32
3896.28
3867.08
3837.11
3806.73
3776.31
3746.16
3716.58
3687.82
3660.12
3633.66
3608.59
3585
3562.96
3542.52
3523.67
3506.41
3490.7
3476.48
3463.72
3452.35
3442.32
3433.58
3426.06
3419.73
3414.53
3410.42
3407.37
3405.38
3404.39
3404.35
3405.29
3407.2
3410.05
3413.85
3418.62
3424.38
3431.13
3438.92
3447.78
3457.75
3468.9
3481.27
3494.95
3509.98
3526.43
3544.35
3563.77
3584.72
3607.2
3631.17
3656.54
3683.11
3708.95
3737.31
3766.44
3795.93
3825.47
3854.75
3883.42
3911.12
3937.5
3962.23
3984.99
4005.49
4023.46
4038.67
4050.93
4060.08
4066.02
4068.63
4067.7
4063.46
4056.07
4045.61
4032.26
4016.25
3997.81
3977.2
3954.73
3930.68
3905.33
3879.01
3852.01
3824.59
3797.02
3769.55
3742.4
3715.77
3689.89
3664.86
3640.5
3617.02
3594.55
3573.16
3552.89
3533.8
3515.92
3499.27
3483.89
3469.78
3456.96
3445.45
3435.26
3426.4
3418.89
3412.73
3407.92
3404.46
3747.01
3779.35
3810.98
3841.43
3870.3
3897.04
3921.29
3942.64
3960.74
3975.33
3986.18
3993.1
3995.93
3994.49
3988.94
3979.44
3966
3948.85
3928.24
3904.48
3877.93
3848.96
3817.96
3785.38
3751.63
3717.15
3682.35
3647.61
3613.39
3580.96
3548.71
3517.59
3487.86
3459.7
3433.22
3408.5
3385.61
3364.54
3345.32
3327.9
3312.27
3298.38
3286.19
3275.65
3266.72
3259.36
3253.52
3249.18
3246.31
3244.94
3245.05
3246.63
3249.69
3254.27
3260.39
3268.08
3277.39
3288.37
3301.05
3315.45
3331.61
3349.54
3369.26
3390.73
3413.92
3438.76
3465.16
3493.02
3522.17
3552.42
3583.53
3617.76
3650.26
3683.06
3715.87
3748.32
3780.08
3810.83
3840.18
3867.8
3893.33
3916.43
3936.76
3954.02
3967.93
3978.25
3984.79
3987.43
3986.03
3980.68
3971.44
3958.35
3941.61
3921.44
3898.09
3871.86
3843.11
3812.19
3779.53
3745.53
3710.64
3675.29
3639.93
3604.99
3570.83
3537.81
3506.23
3476.32
3448.26
3422.18
3398.14
3376.18
3356.3
3338.46
3322.61
3308.68
3296.6
3286.29
3277.68
3270.7
3265.26
3261.32
3258.8
3257.7
3257.94
3259.48
3262.32
3266.44
3271.83
3278.5
3286.45
3295.72
3306.33
3318.3
3331.68
3346.51
3362.82
3380.65
3400.02
3420.96
3443.48
3467.54
3493.13
3520.16
3548.53
3578.12
3608.75
3640.27
3672.26
3704.51
3736.7
3768.46
3799.42
3829.17
3857.31
3883.43
3907.14
3928.06
3945.84
3960.17
3970.8
3977.52
3980.17
3978.66
3973.06
3963.41
3949.82
3932.54
3911.83
3888.04
3861.55
3832.79
3802.19
3770.21
3737.3
3703.91
3670.44
3637.29
3604.79
3573.26
3542.94
3514.05
3486.74
3461.14
3437.32
3415.32
3395.15
3376.8
3360.25
3345.45
3332.34
3320.86
3310.93
3302.47
3295.41
3289.68
3285.22
3281.97
3279.87
3278.9
3279.06
3280.3
3282.62
3286.03
3290.55
3296.18
3302.96
3310.92
3320.11
3330.58
3342.4
3355.61
3370.29
3386.46
3404.17
3423.42
3444.22
3466.55
3490.36
3515.59
3542.14
3569.89
3598.67
3628.3
3658.58
3689.16
3719.79
3750.14
3779.88
3808.66
3836.1
3861.86
3885.56
3906.87
3925.46
3941.01
3953.26
3962
3967.07
3968.33
3965.79
3959.52
3949.59
3936.17
3919.49
3899.83
3877.52
3852.9
3826.35
3798.25
3769.01
3738.99
3708.58
3678.12
3647.93
3618.32
3589.55
3561.83
3535.36
3510.27
3486.68
3464.65
3444.21
3425.37
3408.11
3392.4
3378.2
3365.45
3354.09
3344.06
3335.33
3327.82
3321.49
3316.3
3312.19
3309.15
3307.16
3306.17
3306.13
3307.08
3308.98
3311.84
3315.64
3320.4
3326.16
3332.91
3340.69
3349.54
3359.51
3370.64
3383.01
3396.68
3411.7
3428.14
3446.05
3465.47
3486.41
3508.89
3532.86
3558.25
3584.87
3610.66
3639.07
3668.24
3697.77
3727.35
3756.66
3785.37
3813.12
3839.55
3864.32
3887.12
3907.66
3925.66
3940.9
3953.19
3962.36
3968.31
3970.93
3969.98
3965.73
3958.32
3947.83
3934.45
3918.41
3899.93
3879.29
3856.77
3832.68
3807.3
3780.95
3753.91
3726.45
3698.86
3671.36
3644.2
3617.55
3591.66
3566.62
3542.25
3518.77
3496.29
3474.89
3454.63
3435.53
3417.65
3401.01
3385.62
3371.51
3358.7
3347.19
3337
3328.14
3320.62
3314.46
3309.66
3306.19
3648.89
3681.29
3712.99
3743.51
3772.45
3799.27
3823.59
3845
3863.16
3877.8
3888.69
3895.62
3898.46
3897.04
3891.48
3881.93
3868.45
3851.25
3830.58
3806.75
3780.13
3751.08
3720.01
3687.35
3653.53
3618.99
3584.13
3549.34
3515.08
3482.6
3450.32
3419.18
3389.44
3361.27
3334.78
3310.07
3287.18
3266.12
3246.9
3229.5
3213.88
3200
3187.82
3177.29
3168.37
3161.01
3155.18
3150.85
3147.98
3146.62
3146.71
3148.3
3151.35
3155.93
3162.04
3169.73
3179.03
3190
3202.66
3217.05
3233.21
3251.13
3270.85
3292.32
3315.51
3340.35
3366.77
3394.64
3423.82
3454.1
3485.28
3519.42
3552
3584.86
3617.72
3650.22
3682.05
3712.85
3742.27
3769.95
3795.55
3818.71
3839.1
3856.42
3870.38
3880.73
3887.3
3889.95
3888.56
3883.19
3873.92
3860.8
3844.02
3823.78
3800.37
3774.08
3745.25
3714.26
3681.52
3647.45
3612.48
3577.07
3541.65
3506.65
3472.45
3439.39
3407.78
3377.86
3349.79
3323.7
3299.67
3277.72
3257.85
3240.02
3224.18
3210.27
3198.21
3187.92
3179.32
3172.35
3166.92
3162.99
3160.48
3159.38
3159.63
3161.18
3164.02
3168.13
3173.52
3180.19
3188.14
3197.4
3208
3219.97
3233.34
3248.15
3264.45
3282.27
3301.64
3322.58
3345.09
3369.15
3394.74
3421.78
3450.17
3479.78
3510.43
3541.99
3574.03
3606.33
3638.57
3670.39
3701.42
3731.24
3759.45
3785.64
3809.42
3830.41
3848.25
3862.64
3873.31
3880.05
3882.72
3881.2
3875.59
3865.9
3852.27
3834.93
3814.16
3790.29
3763.73
3734.88
3704.21
3672.15
3639.18
3605.72
3572.19
3538.99
3506.45
3474.88
3444.54
3415.63
3388.31
3362.71
3338.89
3316.89
3296.73
3278.39
3261.85
3247.06
3233.97
3222.5
3212.59
3204.14
3197.1
3191.38
3186.93
3183.68
3181.59
3180.63
3180.78
3182.02
3184.34
3187.75
3192.27
3197.9
3204.67
3212.62
3221.8
3232.26
3244.06
3257.27
3271.93
3288.1
3305.8
3325.05
3345.84
3368.17
3391.99
3417.23
3443.79
3471.56
3500.36
3530.02
3560.35
3590.97
3621.64
3652.05
3681.85
3710.69
3738.2
3764.02
3787.79
3809.16
3827.8
3843.4
3855.7
3864.47
3869.55
3870.83
3868.27
3861.99
3852.02
3838.55
3821.82
3802.1
3779.72
3755.03
3728.41
3700.25
3670.94
3640.87
3610.4
3579.89
3549.67
3520.02
3491.22
3463.48
3436.99
3411.89
3388.29
3366.26
3345.82
3326.99
3309.74
3294.05
3279.86
3267.11
3255.77
3245.75
3237.03
3229.53
3223.21
3218.03
3213.92
3210.89
3208.9
3207.91
3207.88
3208.83
3210.73
3213.59
3217.38
3222.15
3227.89
3234.64
3242.42
3251.26
3261.21
3272.34
3284.69
3298.35
3313.36
3329.78
3347.68
3367.09
3388.03
3410.51
3434.49
3459.89
3486.57
3512.31
3540.79
3570
3599.58
3629.21
3658.58
3687.34
3715.15
3741.64
3766.47
3789.32
3809.92
3827.96
3843.24
3855.56
3864.76
3870.72
3873.35
3872.41
3868.13
3860.69
3850.17
3836.74
3820.65
3802.13
3781.43
3758.87
3734.72
3709.29
3682.89
3655.8
3628.31
3600.68
3573.15
3545.96
3519.28
3493.39
3468.34
3443.95
3420.46
3397.98
3376.58
3356.31
3337.21
3319.33
3302.69
3287.3
3273.19
3260.38
3248.87
3238.68
3229.82
3222.31
3216.15
3211.34
3207.88
3550.76
3583.24
3615.03
3645.64
3674.67
3701.58
3725.99
3747.48
3765.71
3780.41
3791.34
3798.31
3801.16
3799.76
3794.18
3784.58
3771.05
3753.78
3733.03
3709.11
3682.4
3653.26
3622.09
3589.35
3555.43
3520.81
3485.87
3451.02
3416.72
3384.18
3351.86
3320.7
3290.93
3262.75
3236.26
3211.55
3188.66
3167.62
3148.41
3131.02
3115.41
3101.55
3089.38
3078.86
3069.95
3062.6
3056.78
3052.45
3049.6
3048.23
3048.32
3049.9
3052.96
3057.52
3063.63
3071.3
3080.59
3091.55
3104.2
3118.59
3134.73
3152.65
3172.36
3193.83
3217.02
3241.88
3268.31
3296.2
3325.4
3355.73
3386.98
3421.03
3453.71
3486.63
3519.56
3552.13
3584.03
3614.91
3644.41
3672.17
3697.85
3721.09
3741.56
3758.94
3772.96
3783.36
3789.96
3792.62
3791.24
3785.86
3776.55
3763.39
3746.54
3726.24
3702.75
3676.37
3647.45
3616.38
3583.54
3549.37
3514.32
3478.82
3443.32
3408.25
3373.99
3340.89
3309.25
3279.3
3251.22
3225.13
3201.1
3179.16
3159.3
3141.5
3125.68
3111.79
3099.75
3089.47
3080.89
3073.93
3068.52
3064.6
3062.11
3061.01
3061.26
3062.82
3065.66
3069.78
3075.16
3081.82
3089.77
3099.03
3109.61
3121.57
3134.93
3149.74
3166.02
3183.83
3203.19
3224.12
3246.63
3270.69
3296.29
3323.34
3351.74
3381.38
3412.06
3443.68
3475.76
3508.12
3540.44
3572.34
3603.44
3633.35
3661.65
3687.94
3711.81
3732.87
3750.79
3765.24
3775.96
3782.74
3785.42
3783.91
3778.27
3768.55
3754.86
3737.45
3716.59
3692.64
3665.97
3637.03
3606.25
3574.1
3541.04
3507.5
3473.9
3440.63
3408.05
3376.44
3346.06
3317.13
3289.81
3264.2
3240.38
3218.38
3198.23
3179.91
3163.38
3148.61
3135.53
3124.08
3114.18
3105.76
3098.73
3093.03
3088.58
3085.35
3083.27
3082.31
3082.47
3083.71
3086.03
3089.43
3093.94
3099.56
3106.33
3114.27
3123.44
3133.88
3145.67
3158.86
3173.51
3189.67
3207.36
3226.6
3247.4
3269.73
3293.55
3318.8
3345.38
3373.17
3402
3431.7
3462.08
3492.75
3523.49
3553.97
3583.84
3612.76
3640.34
3666.24
3690.09
3711.54
3730.26
3745.92
3758.27
3767.08
3772.19
3773.47
3770.91
3764.59
3754.58
3741.06
3724.26
3704.46
3682
3657.23
3630.53
3602.28
3572.89
3542.74
3512.21
3481.63
3451.36
3421.67
3392.82
3365.06
3338.54
3313.44
3289.83
3267.8
3247.37
3228.54
3211.31
3195.63
3181.45
3168.72
3157.39
3147.39
3138.68
3131.19
3124.89
3119.71
3115.62
3112.59
3110.61
3109.61
3109.59
3110.54
3112.44
3115.3
3119.09
3123.85
3129.59
3136.33
3144.1
3152.93
3162.87
3173.98
3186.32
3199.96
3214.95
3231.36
3249.25
3268.65
3289.59
3312.06
3336.05
3361.47
3388.22
3413.9
3442.46
3471.73
3501.37
3531.06
3560.5
3589.33
3617.21
3643.78
3668.68
3691.61
3712.26
3730.37
3745.7
3758.06
3767.28
3773.26
3775.9
3774.96
3770.66
3763.18
3752.61
3739.14
3722.99
3704.4
3683.64
3661.01
3636.8
3611.3
3584.84
3557.7
3530.15
3502.48
3474.91
3447.68
3420.98
3395.08
3370.01
3345.61
3322.11
3299.62
3278.21
3257.93
3238.84
3220.95
3204.31
3188.93
3174.82
3162.01
3150.5
3140.31
3131.45
3123.93
3117.78
3112.97
3109.51
3452.62
3485.21
3517.1
3547.82
3576.96
3603.98
3628.48
3650.07
3668.39
3683.17
3694.15
3701.15
3704.03
3702.63
3697.03
3687.38
3673.78
3656.43
3635.59
3611.57
3584.75
3555.49
3524.21
3491.35
3457.34
3422.61
3387.59
3352.66
3318.3
3285.69
3253.33
3222.13
3192.35
3164.15
3137.65
3112.95
3090.07
3069.03
3049.84
3032.46
3016.87
3003.02
2990.87
2980.37
2971.47
2964.13
2958.32
2954
2951.15
2949.79
2949.88
2951.45
2954.5
2959.06
2965.16
2972.82
2982.09
2993.03
3005.67
3020.04
3036.18
3054.09
3073.79
3095.26
3118.46
3143.32
3169.77
3197.68
3226.92
3257.3
3288.64
3322.59
3355.37
3388.38
3421.38
3454.04
3486.03
3517
3546.6
3574.45
3600.23
3623.56
3644.12
3661.59
3675.68
3686.13
3692.77
3695.45
3694.08
3688.68
3679.33
3666.11
3649.19
3628.81
3605.22
3578.74
3549.72
3518.53
3485.58
3451.3
3416.14
3380.54
3344.95
3309.79
3275.46
3242.31
3210.63
3180.65
3152.55
3126.46
3102.44
3080.51
3060.67
3042.89
3027.1
3013.23
3001.21
2990.96
2982.4
2975.46
2970.07
2966.16
2963.68
2962.59
2962.85
2964.41
2967.25
2971.37
2976.75
2983.41
2991.35
3000.6
3011.17
3023.12
3036.46
3051.26
3067.53
3085.33
3104.67
3125.59
3148.09
3172.16
3197.76
3224.82
3253.25
3282.92
3313.64
3345.32
3377.46
3409.9
3442.29
3474.29
3505.49
3535.51
3563.92
3590.31
3614.29
3635.45
3653.46
3667.99
3678.77
3685.59
3688.29
3686.79
3681.12
3671.34
3657.59
3640.09
3619.14
3595.07
3568.29
3539.23
3508.33
3476.07
3442.9
3409.26
3375.57
3342.23
3309.58
3277.92
3247.51
3218.56
3191.22
3165.6
3141.78
3119.8
3099.66
3081.35
3064.84
3050.09
3037.03
3025.6
3015.72
3007.32
3000.31
2994.62
2990.19
2986.97
2984.9
2983.95
2984.11
2985.35
2987.66
2991.07
2995.57
3001.18
3007.94
3015.87
3025.02
3035.45
3047.22
3060.4
3075.03
3091.17
3108.86
3128.09
3148.88
3171.21
3195.04
3220.3
3246.9
3274.72
3303.59
3333.33
3363.78
3394.51
3425.32
3455.88
3485.85
3514.85
3542.54
3568.54
3592.48
3614.03
3632.83
3648.57
3660.98
3669.84
3674.97
3676.26
3673.69
3667.34
3657.27
3643.68
3626.8
3606.92
3584.36
3559.49
3532.68
3504.33
3474.85
3444.61
3413.99
3383.35
3353
3323.26
3294.37
3266.57
3240.04
3214.91
3191.3
3169.27
3148.84
3130.03
3112.81
3097.15
3082.99
3070.28
3058.96
3048.98
3040.28
3032.81
3026.52
3021.35
3017.27
3014.25
3012.27
3011.28
3011.26
3012.21
3014.12
3016.97
3020.76
3025.52
3031.25
3037.98
3045.73
3054.55
3064.48
3075.57
3087.89
3101.51
3116.49
3132.88
3150.75
3170.14
3191.07
3213.54
3237.54
3262.98
3289.82
3315.43
3344.1
3373.43
3403.13
3432.9
3462.42
3491.34
3519.31
3545.97
3570.96
3593.97
3614.7
3632.87
3648.26
3660.67
3669.94
3675.94
3678.59
3677.63
3673.31
3665.78
3655.16
3641.63
3625.41
3606.75
3585.91
3563.2
3538.91
3513.34
3486.8
3459.59
3431.99
3404.25
3376.64
3349.37
3322.63
3296.73
3271.63
3247.21
3223.7
3201.2
3179.78
3159.5
3140.41
3122.52
3105.88
3090.5
3076.39
3063.58
3052.07
3041.88
3033.02
3025.51
3019.35
3014.55
3011.09
3354.48
3387.18
3419.2
3450.04
3479.31
3506.45
3531.08
3552.78
3571.2
3586.06
3597.11
3604.16
3607.06
3605.66
3600.04
3590.33
3576.66
3559.22
3538.26
3514.12
3487.17
3457.78
3426.37
3393.38
3359.24
3324.4
3289.27
3254.26
3219.83
3187.13
3154.72
3123.49
3093.68
3065.47
3038.96
3014.26
2991.39
2970.36
2951.18
2933.83
2918.26
2904.43
2892.29
2881.81
2872.93
2865.6
2859.8
2855.49
2852.65
2851.28
2851.37
2852.94
2855.99
2860.53
2866.62
2874.26
2883.52
2894.45
2907.07
2921.43
2937.55
2955.45
2975.15
2996.62
3019.81
3044.69
3071.16
3099.1
3128.38
3158.81
3190.24
3224.11
3257
3290.1
3323.19
3355.95
3388.04
3419.12
3448.83
3476.8
3502.68
3526.13
3546.8
3564.36
3578.53
3589.06
3595.74
3598.44
3597.07
3591.65
3582.26
3568.97
3551.97
3531.49
3507.8
3481.2
3452.05
3420.73
3387.65
3353.24
3317.95
3282.23
3246.53
3211.28
3176.87
3143.65
3111.91
3081.9
3053.79
3027.7
3003.68
2981.77
2961.96
2944.2
2928.43
2914.59
2902.6
2892.38
2883.84
2876.92
2871.55
2867.66
2865.19
2864.12
2864.38
2865.95
2868.8
2872.91
2878.3
2884.95
2892.88
2902.11
2912.68
2924.61
2937.94
2952.71
2968.97
2986.75
3006.09
3027
3049.49
3073.56
3099.16
3126.24
3154.69
3184.39
3215.15
3246.92
3279.13
3311.65
3344.14
3376.25
3407.57
3437.71
3466.24
3492.77
3516.86
3538.15
3556.26
3570.88
3581.73
3588.6
3591.32
3589.82
3584.12
3574.29
3560.46
3542.86
3521.79
3497.59
3470.68
3441.47
3410.44
3378.04
3344.74
3310.99
3277.2
3243.78
3211.05
3179.34
3148.88
3119.9
3092.54
3066.92
3043.1
3021.13
3001
2982.71
2966.22
2951.49
2938.46
2927.05
2917.2
2908.82
2901.84
2896.17
2891.76
2888.55
2886.49
2885.55
2885.7
2886.94
2889.26
2892.66
2897.15
2902.76
2909.5
2917.42
2926.55
2936.96
2948.71
2961.87
2976.48
2992.61
3010.28
3029.51
3050.3
3072.63
3096.47
3121.74
3148.36
3176.21
3205.13
3234.92
3265.44
3296.25
3327.15
3357.8
3387.87
3416.99
3444.78
3470.89
3494.95
3516.61
3535.51
3551.34
3563.83
3572.74
3577.9
3579.21
3576.63
3570.23
3560.1
3546.43
3529.46
3509.47
3486.79
3461.8
3434.87
3406.41
3376.82
3346.47
3315.76
3285.03
3254.61
3224.8
3195.86
3168.02
3141.46
3116.32
3092.7
3070.66
3050.25
3031.45
3014.24
2998.6
2984.46
2971.77
2960.47
2950.51
2941.83
2934.38
2928.1
2922.95
2918.88
2915.87
2913.9
2912.91
2912.9
2913.85
2915.76
2918.6
2922.39
2927.14
2932.87
2939.58
2947.33
2956.13
2966.04
2977.11
2989.41
3003.01
3017.96
3034.33
3052.18
3071.56
3092.48
3114.95
3138.95
3164.42
3191.35
3216.91
3245.69
3275.1
3304.88
3334.73
3364.35
3393.37
3421.44
3448.2
3473.29
3496.4
3517.23
3535.48
3550.94
3563.4
3572.71
3578.74
3581.41
3580.44
3576.08
3568.5
3557.82
3544.22
3527.92
3509.17
3488.24
3465.44
3441.06
3415.39
3388.77
3361.48
3333.81
3306.01
3278.34
3251.02
3224.24
3198.33
3173.2
3148.76
3125.24
3102.73
3081.3
3061.02
3041.92
3024.04
3007.4
2992.01
2977.91
2965.1
2953.59
2943.4
2934.54
2927.03
2920.87
2916.07
2912.61
3256.32
3289.16
3321.32
3352.31
3381.73
3409.01
3433.78
3455.61
3474.14
3489.1
3500.23
3507.33
3510.25
3508.86
3503.2
3493.43
3479.67
3462.12
3441.05
3416.76
3389.66
3360.13
3328.56
3295.42
3261.14
3226.17
3190.92
3155.8
3121.3
3088.51
3056.04
3024.77
2994.93
2966.7
2940.19
2915.48
2892.62
2871.61
2852.45
2835.12
2819.57
2805.76
2793.65
2783.19
2774.32
2767.01
2761.22
2756.92
2754.09
2752.72
2752.81
2754.37
2757.41
2761.95
2768.02
2775.65
2784.89
2795.8
2808.4
2822.74
2838.84
2856.73
2876.42
2897.89
2921.09
2945.98
2972.47
3000.45
3029.77
3060.27
3091.78
3125.59
3158.59
3191.79
3224.99
3257.86
3290.07
3321.27
3351.11
3379.21
3405.22
3428.8
3449.59
3467.26
3481.52
3492.12
3498.86
3501.59
3500.22
3494.78
3485.33
3471.97
3454.88
3434.29
3410.47
3383.73
3354.43
3322.96
3289.73
3255.18
3219.74
3183.88
3148.06
3112.7
3078.19
3044.9
3013.11
2983.07
2954.94
2928.84
2904.83
2882.94
2863.15
2845.42
2829.68
2815.88
2803.92
2793.72
2785.22
2778.32
2772.97
2769.1
2766.66
2765.59
2765.87
2767.44
2770.29
2774.41
2779.79
2786.43
2794.35
2803.57
2814.12
2826.04
2839.35
2854.11
2870.35
2888.11
2907.43
2928.32
2950.81
2974.88
3000.49
3027.58
3056.07
3085.81
3116.62
3148.47
3180.76
3213.38
3245.98
3278.21
3309.67
3339.95
3368.63
3395.3
3419.54
3440.96
3459.19
3473.91
3484.84
3491.77
3494.52
3493.02
3487.29
3477.39
3463.47
3445.76
3424.55
3400.21
3373.13
3343.77
3312.57
3280.02
3246.58
3212.7
3178.8
3145.27
3112.46
3080.68
3050.18
3021.17
2993.79
2968.16
2944.34
2922.38
2902.27
2883.99
2867.53
2852.82
2839.82
2828.44
2818.62
2810.27
2803.31
2797.66
2793.27
2790.08
2788.03
2787.1
2787.26
2788.5
2790.81
2794.21
2798.69
2804.29
2811.02
2818.91
2828.03
2838.42
2850.14
2863.28
2877.87
2893.99
2911.64
2930.86
2951.64
2973.98
2997.82
3023.11
3049.76
3077.65
3106.62
3136.46
3167.07
3197.96
3228.96
3259.73
3289.91
3319.15
3347.08
3373.32
3397.51
3419.28
3438.3
3454.24
3466.81
3475.79
3480.99
3482.3
3479.71
3473.26
3463.07
3449.31
3432.22
3412.11
3389.31
3364.18
3337.11
3308.52
3278.79
3248.33
3217.5
3186.67
3156.17
3126.29
3097.29
3069.41
3042.81
3017.65
2994.02
2971.99
2951.58
2932.79
2915.61
2899.99
2885.87
2873.21
2861.93
2851.99
2843.33
2835.9
2829.64
2824.5
2820.45
2817.45
2815.48
2814.5
2814.5
2815.45
2817.36
2820.2
2823.98
2828.73
2834.44
2841.15
2848.88
2857.66
2867.55
2878.6
2890.87
2904.44
2919.37
2935.72
2953.54
2972.9
2993.81
3016.29
3040.3
3065.79
3092.78
3118.37
3147.24
3176.73
3206.6
3236.54
3266.27
3295.41
3323.6
3350.49
3375.69
3398.91
3419.84
3438.19
3453.73
3466.26
3475.62
3481.68
3484.36
3483.37
3478.98
3471.35
3460.59
3446.91
3430.52
3411.67
3390.63
3367.73
3343.24
3317.47
3290.75
3263.38
3235.62
3207.75
3180.01
3152.63
3125.81
3099.88
3074.73
3050.27
3026.72
3004.2
2982.77
2962.48
2943.38
2925.5
2908.86
2893.47
2879.37
2866.56
2855.05
2844.86
2836.01
2828.49
2822.34
2817.53
2814.08
3158.16
3191.15
3223.47
3254.62
3284.21
3311.65
3336.57
3358.55
3377.21
3392.28
3403.5
3410.65
3413.6
3412.22
3406.53
3396.69
3382.83
3365.16
3343.94
3319.5
3292.23
3262.52
3230.78
3197.48
3163.04
3127.92
3092.54
3057.3
3022.72
2989.82
2957.29
2925.96
2896.09
2867.85
2841.33
2816.63
2793.77
2772.78
2753.64
2736.33
2720.81
2707.03
2694.94
2684.5
2675.65
2668.36
2662.58
2658.29
2655.47
2654.11
2654.19
2655.75
2658.78
2663.3
2669.36
2676.97
2686.19
2697.07
2709.65
2723.97
2740.06
2757.94
2777.62
2799.09
2822.3
2847.2
2873.71
2901.72
2931.09
2961.66
2993.27
3027.02
3060.14
3093.46
3126.78
3159.78
3192.12
3223.45
3253.43
3281.68
3307.84
3331.56
3352.49
3370.29
3384.66
3395.34
3402.14
3404.9
3403.54
3398.06
3388.55
3375.11
3357.92
3337.2
3313.23
3286.34
3256.88
3225.25
3191.84
3157.12
3121.52
3085.51
3049.54
3014.05
2979.45
2946.07
2914.22
2884.14
2855.99
2829.88
2805.89
2784.02
2764.25
2746.56
2730.86
2717.09
2705.16
2695
2686.53
2679.66
2674.34
2670.49
2668.06
2667.01
2667.3
2668.88
2671.73
2675.85
2681.22
2687.86
2695.77
2704.98
2715.52
2727.41
2740.7
2755.44
2771.66
2789.4
2808.7
2829.58
2852.06
2876.13
2901.75
2928.86
2957.38
2987.17
3018.03
3049.97
3082.35
3115.08
3147.81
3180.18
3211.79
3242.23
3271.08
3297.91
3322.31
3343.88
3362.25
3377.09
3388.11
3395.1
3397.88
3396.38
3390.61
3380.64
3366.62
3348.78
3327.42
3302.91
3275.66
3246.11
3214.74
3182.02
3148.41
3114.38
3080.35
3046.71
3013.81
2981.96
2951.4
2922.35
2894.95
2869.31
2845.5
2823.54
2803.45
2785.2
2768.76
2754.09
2741.11
2729.77
2719.98
2711.66
2704.73
2699.11
2694.74
2691.56
2689.53
2688.61
2688.77
2690.01
2692.32
2695.71
2700.19
2705.77
2712.49
2720.36
2729.46
2739.82
2751.52
2764.63
2779.2
2795.29
2812.93
2832.14
2852.92
2875.25
2899.11
2924.42
2951.1
2979.02
3008.05
3037.96
3068.65
3099.65
3130.76
3161.65
3191.97
3221.35
3249.42
3275.81
3300.14
3322.06
3341.21
3357.27
3369.94
3378.98
3384.22
3385.55
3382.94
3376.44
3366.17
3352.31
3335.1
3314.85
3291.89
3266.61
3239.39
3210.64
3180.77
3150.18
3119.23
3088.29
3057.69
3027.73
2998.66
2970.72
2944.09
2918.91
2895.27
2873.24
2852.84
2834.07
2816.91
2801.31
2787.23
2774.59
2763.34
2753.42
2744.78
2737.37
2731.13
2726.01
2721.97
2718.99
2717.03
2716.05
2716.06
2717.02
2718.92
2721.76
2725.54
2730.27
2735.98
2742.67
2750.38
2759.15
2769.01
2780.04
2792.28
2805.82
2820.72
2837.04
2854.84
2874.18
2895.08
2917.55
2941.57
2967.09
2994.12
3019.81
3048.75
3078.32
3108.29
3138.35
3168.2
3197.47
3225.8
3252.82
3278.16
3301.5
3322.55
3341
3356.63
3369.23
3378.65
3384.75
3387.45
3386.43
3382
3374.3
3363.47
3349.7
3333.21
3314.24
3293.09
3270.06
3245.45
3219.57
3192.74
3165.26
3137.41
3109.46
3081.66
3054.21
3027.34
3001.39
2976.21
2951.72
2928.15
2905.62
2884.18
2863.89
2844.78
2826.9
2810.26
2794.88
2780.78
2767.97
2756.46
2746.27
2737.42
2729.9
2723.75
2718.95
2715.49
3059.99
3093.14
3125.65
3156.98
3186.75
3214.37
3239.47
3261.61
3280.42
3295.61
3306.93
3314.15
3317.13
3315.74
3310.01
3300.09
3286.12
3268.32
3246.94
3222.33
3194.88
3164.98
3133.04
3099.55
3064.93
3029.65
2994.12
2958.76
2924.08
2891.06
2858.46
2827.08
2797.17
2768.91
2742.38
2717.68
2694.84
2673.87
2654.75
2637.47
2621.97
2608.22
2596.16
2585.74
2576.92
2569.64
2563.88
2559.61
2556.79
2555.43
2555.51
2557.07
2560.09
2564.6
2570.64
2578.22
2587.42
2598.28
2610.83
2625.13
2641.2
2659.07
2678.74
2700.2
2723.42
2748.33
2774.87
2802.92
2832.35
2862.99
2894.7
2928.41
2961.66
2995.11
3028.55
3061.69
3094.17
3125.66
3155.8
3184.22
3210.54
3234.42
3255.5
3273.44
3287.93
3298.71
3305.57
3308.37
3307.01
3301.5
3291.93
3278.39
3261.08
3240.22
3216.1
3189.03
3159.39
3127.57
3093.98
3059.06
3023.28
2987.1
2950.97
2915.35
2880.62
2847.15
2815.24
2785.11
2756.94
2730.83
2706.85
2685
2665.27
2647.61
2631.95
2618.22
2606.34
2596.22
2587.77
2580.94
2575.64
2571.82
2569.41
2568.38
2568.68
2570.27
2573.13