/*--------------------------------*- C++ -*----------------------------------*\
| =========                 |                                                 |
| \\      /  F ield         | OpenFOAM: The Open Source CFD Toolbox           |
|  \\    /   O peration     | Version:  3.0.1                                 |
|   \\  /    A nd           | Web:      www.OpenFOAM.org                      |
|    \\/     M anipulation  |                                                 |
\*---------------------------------------------------------------------------*/
FoamFile
{
    version     2.0;
    format      ascii;
    class       volScalarField;
    location    "99";
    object      p;
}
// * * * * * * * * * * * * * * * * * * * * * * * * * * * * * * * * * * * * * //

dimensions      [1 -1 -2 0 0 0 0];

internalField   nonuniform List<scalar> 
21420
(
4026.65
4059.08
4091.1
4122.28
4152.26
4180.48
4206.55
4230.02
4250.51
4267.73
4281.38
4291.26
4297.21
4298.99
4296.24
4289.46
4278.84
4264.44
4246.53
4225.36
4201.27
4174.6
4145.71
4115.02
4082.93
4049.86
4016.19
3982.31
3948.6
3915.32
3882.84
3853.32
3823.31
3794.58
3767.33
3741.71
3717.77
3695.57
3675.13
3656.44
3639.48
3624.22
3610.63
3598.67
3588.3
3579.48
3572.19
3566.38
3562.03
3559.12
3557.63
3557.58
3558.95
3561.75
3565.99
3571.69
3578.85
3587.53
3597.73
3609.49
3622.86
3637.86
3654.54
3672.91
3692.98
3714.75
3738.21
3763.27
3789.86
3817.83
3847.04
3877.35
3911.13
3943.08
3975.46
4007.97
4040.32
4072.15
4103.14
4132.93
4161.21
4187.62
4211.84
4233.56
4252.48
4268.32
4280.85
4289.88
4295.24
4296.86
4294.62
4288.65
4279.03
4265.82
4249.24
4229.5
4206.87
4181.63
4154.09
4124.6
4093.49
4061.15
4027.94
3994.24
3960.44
3926.89
3893.94
3861.91
3831.07
3801.67
3773.88
3747.85
3723.68
3701.42
3681.1
3662.7
3646.21
3631.57
3618.74
3607.66
3598.27
3590.51
3584.32
3579.66
3576.47
3574.7
3574.33
3575.35
3577.67
3581.3
3586.2
3592.36
3599.75
3608.38
3618.24
3629.31
3641.62
3655.18
3670.01
3686.14
3703.61
3722.44
3742.67
3764.3
3787.33
3811.74
3837.48
3864.49
3892.67
3921.89
3951.93
3982.59
4013.64
4044.79
4075.74
4106.13
4135.62
4163.83
4190.38
4214.9
4237.01
4256.36
4272.61
4285.47
4294.67
4300.02
4301.29
4298.54
4291.66
4280.77
4265.96
4247.48
4225.6
4200.68
4173.09
4143.27
4111.68
4078.76
4044.99
4010.82
3976.65
3942.89
3909.89
3877.95
3847.32
3818.22
3790.8
3765.19
3741.46
3719.65
3699.76
3681.77
3665.62
3651.27
3638.65
3627.67
3618.26
3610.36
3603.87
3598.74
3594.9
3592.29
3590.85
3590.56
3591.43
3593.38
3596.46
3600.66
3606.01
3612.53
3620.25
3629.22
3639.48
3651.1
3664.12
3678.63
3694.66
3712.28
3731.49
3752.33
3774.78
3798.8
3824.35
3851.33
3879.64
3909.14
3939.74
3970.98
4002.68
4034.55
4066.22
4097.32
4127.46
4156.23
4183.22
4208.01
4230.21
4249.44
4265.33
4277.58
4285.91
4290.13
4290.06
4285.75
4277.24
4264.6
4248.09
4227.98
4204.62
4178.4
4149.76
4119.14
4087.01
4053.83
4020.05
3986.1
3952.41
3919.37
3887.28
3856.43
3827.03
3799.24
3773.17
3748.89
3726.42
3705.78
3686.96
3669.95
3654.71
3641.2
3629.39
3619.21
3610.6
3603.48
3597.76
3593.39
3590.37
3588.69
3588.23
3588.94
3590.93
3594.26
3598.96
3605.11
3612.77
3622.01
3632.95
3645.67
3660.24
3676.77
3695.26
3715.79
3738.32
3762.78
3789.01
3816.78
3845.68
3875.37
3916.72
3951.24
3986.59
4021.94
4056.79
4090.77
4123.35
4154.1
4182.66
4208.59
4231.55
4251.19
4267.21
4279.4
4287.55
4291.57
4291.48
4287.64
4279.7
4267.76
4252.11
4232.95
4210.52
4185.14
4157.21
4127.1
4095.24
4062.03
4027.91
3993.33
3958.71
3924.38
3890.93
3858.59
3826.99
3796.6
3767.66
3740.36
3714.8
3691.07
3669.21
3649.23
3631.12
3614.88
3600.45
3587.81
3576.9
3567.69
3560.13
3554.18
3549.82
3546.99
3545.71
3545.99
3547.89
3551.4
3556.5
3563.25
3571.68
3928.54
3960.97
3993.01
4024.21
4054.21
4082.45
4108.54
4132.03
4152.53
4169.76
4183.43
4193.31
4199.26
4201.07
4198.3
4191.51
4180.88
4166.48
4148.55
4127.36
4103.26
4076.57
4047.66
4016.95
3984.84
3951.75
3918.07
3884.18
3850.45
3817.17
3784.68
3755.14
3725.13
3696.4
3669.15
3643.53
3619.59
3597.39
3576.95
3558.26
3541.3
3526.05
3512.46
3500.5
3490.14
3481.32
3474.03
3468.22
3463.87
3460.96
3459.47
3459.42
3460.8
3463.59
3467.83
3473.53
3480.69
3489.37
3499.57
3511.33
3524.69
3539.69
3556.36
3574.73
3594.8
3616.58
3640.03
3665.09
3691.68
3719.66
3748.88
3779.18
3812.99
3844.94
3877.33
3909.86
3942.21
3974.06
4005.06
4034.87
4063.16
4089.58
4113.82
4135.55
4154.49
4170.34
4182.88
4191.92
4197.29
4198.91
4196.67
4190.69
4181.06
4167.84
4151.25
4131.5
4108.86
4083.6
4056.05
4026.53
3995.41
3963.05
3929.83
3896.12
3862.3
3828.73
3795.77
3763.73
3732.89
3703.48
3675.69
3649.65
3625.48
3603.23
3582.91
3564.52
3548.02
3533.39
3520.57
3509.49
3500.1
3492.34
3486.15
3481.49
3478.31
3476.54
3476.18
3477.2
3479.52
3483.14
3488.04
3494.2
3501.6
3510.23
3520.08
3531.16
3543.46
3557.02
3571.85
3587.98
3605.44
3624.27
3644.5
3666.13
3689.16
3713.57
3739.31
3766.32
3794.5
3823.73
3853.78
3884.45
3915.51
3946.67
3977.63
4008.04
4037.54
4065.77
4092.34
4116.87
4139
4158.36
4174.63
4187.5
4196.72
4202.07
4203.35
4200.59
4193.71
4182.81
4167.99
4149.5
4127.6
4102.66
4075.05
4045.22
4013.6
3980.67
3946.88
3912.68
3878.5
3844.73
3811.71
3779.77
3749.13
3720.03
3692.61
3667
3643.27
3621.46
3601.57
3583.58
3567.44
3553.1
3540.47
3529.5
3520.1
3512.19
3505.72
3500.59
3496.75
3494.14
3492.7
3492.42
3493.28
3495.23
3498.31
3502.51
3507.86
3514.38
3522.1
3531.06
3541.32
3552.93
3565.96
3580.46
3596.49
3614.1
3633.32
3654.15
3676.6
3700.62
3726.17
3753.16
3781.48
3810.98
3841.59
3872.83
3904.55
3936.43
3968.11
3999.23
4029.39
4058.17
4085.18
4109.99
4132.21
4151.46
4167.37
4179.63
4187.97
4192.2
4192.12
4187.8
4179.29
4166.65
4150.12
4129.99
4106.61
4080.37
4051.71
4021.08
3988.93
3955.72
3921.92
3887.96
3854.26
3821.21
3789.11
3758.25
3728.85
3701.06
3674.99
3650.7
3628.24
3607.6
3588.79
3571.77
3556.53
3543.03
3531.23
3521.05
3512.44
3505.32
3499.61
3495.24
3492.22
3490.54
3490.08
3490.79
3492.78
3496.1
3500.81
3506.95
3514.6
3523.85
3534.77
3547.49
3562.06
3578.58
3597.07
3617.6
3640.13
3664.59
3690.83
3718.61
3747.53
3777.24
3818.53
3853.07
3888.45
3923.82
3958.69
3992.68
4025.29
4056.06
4084.64
4110.59
4133.56
4153.22
4169.25
4181.46
4189.62
4193.65
4193.54
4189.69
4181.74
4169.8
4154.14
4134.97
4112.52
4087.12
4059.18
4029.04
3997.16
3963.94
3929.8
3895.21
3860.57
3826.23
3792.78
3760.42
3728.81
3698.42
3669.48
3642.18
3616.62
3592.89
3571.03
3551.05
3532.94
3516.7
3502.28
3489.64
3478.73
3469.52
3461.96
3456.02
3451.66
3448.83
3447.55
3447.83
3449.73
3453.24
3458.34
3465.08
3473.52
3830.4
3862.87
3894.94
3926.18
3956.21
3984.48
4010.61
4034.13
4054.67
4071.93
4085.62
4095.51
4101.48
4103.32
4100.51
4093.71
4083.07
4068.64
4050.68
4029.46
4005.33
3978.6
3949.66
3918.92
3886.77
3853.65
3819.94
3786.02
3752.27
3718.97
3686.47
3656.9
3626.88
3598.14
3570.89
3545.26
3521.33
3499.13
3478.7
3460.01
3443.06
3427.81
3414.23
3402.27
3391.91
3383.1
3375.81
3370
3365.65
3362.75
3361.26
3361.21
3362.58
3365.38
3369.62
3375.31
3382.47
3391.14
3401.34
3413.1
3426.46
3441.45
3458.12
3476.48
3496.55
3518.32
3541.78
3566.85
3593.44
3621.43
3650.66
3680.95
3714.81
3746.76
3779.16
3811.72
3844.1
3875.98
3907
3936.85
3965.16
3991.62
4015.89
4037.65
4056.61
4072.49
4085.05
4094.1
4099.48
4101.11
4098.87
4092.88
4083.23
4070
4053.38
4033.61
4010.93
3985.65
3958.06
3928.51
3897.36
3864.96
3831.71
3797.97
3764.12
3730.53
3697.55
3665.49
3634.63
3605.21
3577.41
3551.38
3527.2
3504.95
3484.63
3466.25
3449.76
3435.14
3422.32
3411.25
3401.86
3394.11
3387.93
3383.27
3380.09
3378.32
3377.97
3378.98
3381.31
3384.93
3389.84
3396
3403.39
3412.02
3421.87
3432.95
3445.25
3458.81
3473.63
3489.75
3507.22
3526.04
3546.26
3567.89
3590.92
3615.33
3641.08
3668.09
3696.28
3725.52
3755.58
3786.27
3817.35
3848.54
3879.52
3909.96
3939.49
3967.75
3994.36
4018.92
4041.09
4060.48
4076.78
4089.68
4098.91
4104.28
4105.58
4102.8
4095.92
4085
4070.16
4051.63
4029.71
4004.73
3977.08
3947.2
3915.54
3882.57
3848.75
3814.52
3780.31
3746.51
3713.48
3681.51
3650.87
3621.75
3594.33
3568.72
3544.99
3523.18
3503.3
3485.32
3469.19
3454.85
3442.23
3431.26
3421.87
3413.97
3407.5
3402.38
3398.54
3395.94
3394.5
3394.23
3395.08
3397.04
3400.11
3404.31
3409.66
3416.18
3423.89
3432.85
3443.11
3454.71
3467.73
3482.22
3498.25
3515.86
3535.07
3555.9
3578.35
3602.37
3627.93
3654.92
3683.24
3712.75
3743.38
3774.65
3806.39
3838.29
3870.01
3901.16
3931.35
3960.17
3987.21
4012.06
4034.32
4053.6
4069.54
4081.82
4090.18
4094.43
4094.35
4090.03
4081.5
4068.84
4052.28
4032.12
4008.7
3982.42
3953.72
3923.04
3890.85
3857.61
3823.78
3789.79
3756.06
3722.98
3690.87
3660
3630.59
3602.79
3576.72
3552.44
3529.97
3509.34
3490.53
3473.52
3458.29
3444.79
3432.99
3422.82
3414.22
3407.11
3401.4
3397.05
3394.03
3392.34
3391.87
3392.59
3394.58
3397.9
3402.59
3408.73
3416.37
3425.61
3436.53
3449.23
3463.79
3480.31
3498.8
3519.32
3541.86
3566.32
3592.57
3620.37
3649.32
3679.07
3720.25
3754.84
3790.26
3825.68
3860.59
3894.62
3927.27
3958.07
3986.69
4012.68
4035.69
4055.37
4071.44
4083.66
4091.85
4095.88
4095.77
4091.89
4083.94
4071.99
4056.31
4037.11
4014.63
3989.19
3961.21
3931.04
3899.11
3865.86
3831.68
3797.05
3762.38
3728.03
3694.56
3662.19
3630.56
3600.16
3571.21
3543.91
3518.35
3494.62
3472.76
3452.78
3434.69
3418.45
3404.03
3391.4
3380.5
3371.29
3363.74
3357.79
3353.43
3350.61
3349.33
3349.61
3351.51
3355.01
3360.11
3366.86
3375.29
3732.25
3764.77
3796.89
3828.17
3858.25
3886.58
3912.77
3936.34
3956.93
3974.23
3987.95
3997.87
4003.85
4005.74
4002.88
3996.07
3985.4
3970.93
3952.93
3931.67
3907.48
3880.7
3851.7
3820.91
3788.71
3755.54
3721.78
3687.82
3654.04
3620.71
3588.2
3558.57
3528.55
3499.8
3472.55
3446.92
3422.99
3400.79
3380.36
3361.68
3344.74
3329.5
3315.92
3303.98
3293.62
3284.81
3277.53
3271.72
3267.38
3264.48
3262.99
3262.95
3264.31
3267.11
3271.35
3277.04
3284.19
3292.86
3303.05
3314.8
3328.15
3343.14
3359.8
3378.16
3398.22
3420
3443.45
3468.52
3495.13
3523.13
3552.37
3582.66
3616.57
3648.53
3680.97
3713.56
3745.98
3777.9
3808.97
3838.86
3867.22
3893.72
3918.04
3939.84
3958.84
3974.76
3987.35
3996.42
4001.82
4003.45
4001.22
3995.21
3985.54
3972.28
3955.63
3935.82
3913.1
3887.77
3860.13
3830.53
3799.33
3766.88
3733.58
3699.79
3665.9
3632.28
3599.26
3567.18
3536.3
3506.86
3479.05
3453.01
3428.84
3406.58
3386.27
3367.9
3351.42
3336.8
3323.99
3312.93
3303.56
3295.81
3289.64
3284.99
3281.81
3280.05
3279.7
3280.72
3283.05
3286.68
3291.58
3297.74
3305.14
3313.77
3323.62
3334.69
3346.99
3360.54
3375.36
3391.48
3408.93
3427.75
3447.97
3469.59
3492.62
3517.03
3542.78
3569.8
3598
3627.26
3657.34
3688.05
3719.16
3750.38
3781.41
3811.89
3841.47
3869.78
3896.44
3921.06
3943.27
3962.71
3979.06
3991.99
4001.25
4006.64
4007.97
4005.16
3998.28
3987.34
3972.47
3953.9
3931.92
3906.88
3879.18
3849.24
3817.52
3784.49
3750.61
3716.33
3682.08
3648.24
3615.17
3583.19
3552.52
3523.39
3495.96
3470.35
3446.63
3424.82
3404.95
3386.97
3370.85
3356.53
3343.92
3332.97
3323.58
3315.7
3309.23
3304.12
3300.29
3297.7
3296.26
3295.99
3296.85
3298.8
3301.87
3306.07
3311.42
3317.93
3325.64
3334.59
3344.84
3356.43
3369.44
3383.92
3399.94
3417.54
3436.75
3457.58
3480.03
3504.05
3529.61
3556.61
3584.95
3614.47
3645.13
3676.42
3708.19
3740.14
3771.9
3803.1
3833.34
3862.22
3889.32
3914.22
3936.53
3955.86
3971.85
3984.17
3992.56
3996.82
3996.76
3992.42
3983.87
3971.17
3954.57
3934.36
3910.88
3884.55
3855.78
3825.04
3792.79
3759.5
3725.61
3691.57
3657.8
3624.69
3592.55
3561.66
3532.24
3504.44
3478.37
3454.08
3431.63
3411
3392.2
3375.19
3359.97
3346.48
3334.69
3324.54
3315.94
3308.84
3303.15
3298.8
3295.79
3294.09
3293.62
3294.34
3296.32
3299.63
3304.32
3310.45
3318.08
3327.3
3338.21
3350.9
3365.45
3381.95
3400.43
3420.95
3443.49
3467.96
3494.23
3522.06
3551.07
3580.87
3621.88
3656.53
3692.04
3727.52
3762.48
3796.58
3829.28
3860.15
3888.83
3914.87
3937.93
3957.66
3973.76
3986.02
3994.24
3998.29
3998.17
3994.25
3986.29
3974.32
3958.6
3939.36
3916.83
3891.34
3863.3
3833.07
3801.09
3767.78
3733.55
3698.88
3664.16
3629.77
3596.29
3563.88
3532.24
3501.82
3472.86
3445.55
3419.99
3396.26
3374.41
3354.44
3336.35
3320.12
3305.71
3293.09
3282.19
3272.99
3265.44
3259.5
3255.15
3252.33
3251.06
3251.33
3253.23
3256.73
3261.83
3268.57
3276.99
3634.09
3666.66
3698.84
3730.2
3760.35
3788.75
3815.01
3838.66
3859.31
3876.66
3890.43
3900.38
3906.37
3908.3
3905.42
3898.59
3887.87
3873.36
3855.3
3833.98
3809.72
3782.87
3753.8
3722.93
3690.67
3657.43
3623.61
3589.6
3555.77
3522.41
3489.87
3460.18
3430.14
3401.39
3374.13
3348.5
3324.56
3302.38
3281.95
3263.28
3246.34
3231.11
3217.55
3205.61
3195.27
3186.47
3179.19
3173.39
3169.05
3166.15
3164.67
3164.63
3165.99
3168.78
3173.02
3178.71
3185.86
3194.52
3204.69
3216.44
3229.78
3244.76
3261.41
3279.77
3299.82
3321.59
3345.05
3370.13
3396.74
3424.77
3454.03
3484.32
3518.28
3550.25
3582.74
3615.38
3647.86
3679.83
3710.96
3740.91
3769.33
3795.9
3820.27
3842.13
3861.19
3877.15
3889.79
3898.89
3904.3
3905.94
3903.72
3897.69
3887.99
3874.7
3858
3838.13
3815.36
3789.96
3762.26
3732.59
3701.32
3668.81
3635.44
3601.6
3567.65
3533.97
3500.91
3468.79
3437.88
3408.42
3380.6
3354.55
3330.38
3308.13
3287.83
3269.46
3253
3238.4
3225.6
3214.55
3205.19
3197.45
3191.29
3186.65
3183.48
3181.73
3181.39
3182.4
3184.74
3188.37
3193.28
3199.44
3206.84
3215.46
3225.31
3236.38
3248.68
3262.22
3277.03
3293.14
3310.58
3329.4
3349.6
3371.22
3394.25
3418.66
3444.42
3471.44
3499.66
3528.94
3559.05
3589.8
3620.95
3652.22
3683.3
3713.84
3743.48
3771.86
3798.58
3823.27
3845.55
3865.06
3881.46
3894.44
3903.75
3909.16
3910.52
3907.7
3900.81
3889.83
3874.91
3856.28
3834.24
3809.12
3781.34
3751.31
3719.51
3686.41
3652.45
3618.11
3583.8
3549.91
3516.81
3484.78
3454.09
3424.95
3397.51
3371.9
3348.17
3326.38
3306.51
3288.55
3272.45
3258.13
3245.54
3234.6
3225.23
3217.36
3210.91
3205.81
3201.99
3199.4
3197.98
3197.71
3198.56
3200.52
3203.59
3207.78
3213.12
3219.63
3227.33
3236.27
3246.51
3258.09
3271.09
3285.56
3301.57
3319.16
3338.36
3359.19
3381.63
3405.66
3431.22
3458.23
3486.58
3516.13
3546.83
3578.15
3609.97
3641.97
3673.79
3705.05
3735.37
3764.32
3791.49
3816.47
3838.85
3858.25
3874.3
3886.67
3895.1
3899.38
3899.34
3894.98
3886.4
3873.65
3857
3836.71
3813.16
3786.74
3757.9
3727.08
3694.75
3661.38
3627.42
3593.32
3559.49
3526.34
3494.16
3463.25
3433.81
3406
3379.93
3355.65
3333.2
3312.58
3293.78
3276.79
3261.58
3248.1
3236.33
3226.18
3217.61
3210.52
3204.84
3200.5
3197.49
3195.79
3195.32
3196.04
3198.02
3201.32
3205.99
3212.11
3219.72
3228.93
3239.81
3252.49
3267.02
3283.51
3301.98
3322.5
3345.04
3369.52
3395.81
3423.68
3452.76
3482.65
3523.41
3558.16
3593.77
3629.34
3664.38
3698.56
3731.34
3762.28
3791.04
3817.15
3840.28
3860.07
3876.23
3888.53
3896.78
3900.85
3900.73
3896.78
3888.79
3876.8
3861.03
3841.73
3819.14
3793.57
3765.46
3735.15
3703.1
3669.71
3635.42
3600.68
3565.9
3531.45
3497.96
3465.51
3433.84
3403.4
3374.43
3347.11
3321.55
3297.82
3275.98
3256.01
3237.93
3221.72
3207.32
3194.7
3183.82
3174.63
3167.09
3161.15
3156.8
3153.98
3152.72
3152.99
3154.89
3158.39
3163.48
3170.21
3178.63
3535.9
3568.55
3600.82
3632.25
3662.49
3690.99
3717.34
3741.07
3761.81
3779.23
3793.05
3803.04
3809.06
3811.01
3808.12
3801.25
3790.48
3775.91
3757.79
3736.39
3712.04
3685.11
3655.94
3624.98
3592.63
3559.31
3525.42
3491.34
3457.45
3424.05
3391.49
3361.71
3331.66
3302.89
3275.62
3249.99
3226.06
3203.88
3183.46
3164.8
3147.88
3132.66
3119.11
3107.18
3096.85
3088.06
3080.79
3075
3070.67
3067.77
3066.29
3066.25
3067.61
3070.4
3074.64
3080.32
3087.46
3096.11
3106.28
3118.01
3131.34
3146.3
3162.95
3181.29
3201.34
3223.11
3246.57
3271.66
3298.29
3326.33
3355.63
3385.94
3419.92
3451.93
3484.48
3517.18
3549.73
3581.77
3612.97
3642.99
3671.5
3698.14
3722.58
3744.52
3763.64
3779.67
3792.35
3801.5
3806.94
3808.58
3806.36
3800.31
3790.58
3777.24
3760.49
3740.55
3717.7
3692.23
3664.44
3634.7
3603.34
3570.75
3537.3
3503.38
3469.36
3435.62
3402.5
3370.34
3339.39
3309.9
3282.06
3256.01
3231.84
3209.59
3189.3
3170.95
3154.5
3139.91
3127.13
3116.1
3106.75
3099.03
3092.88
3088.25
3085.09
3083.35
3083.01
3084.04
3086.38
3090.01
3094.92
3101.08
3108.48
3117.11
3126.96
3138.02
3150.31
3163.84
3178.64
3194.74
3212.18
3230.98
3251.18
3272.79
3295.81
3320.23
3345.99
3373.03
3401.26
3430.57
3460.71
3491.5
3522.7
3554.04
3585.18
3615.8
3645.52
3673.98
3700.79
3725.57
3747.93
3767.52
3783.99
3797.04
3806.4
3811.84
3813.22
3810.41
3803.49
3792.47
3777.49
3758.79
3736.66
3711.45
3683.56
3653.44
3621.54
3588.33
3554.29
3519.86
3485.47
3451.53
3418.37
3386.31
3355.59
3326.42
3298.97
3273.35
3249.63
3227.85
3207.99
3190.05
3173.96
3159.67
3147.1
3136.17
3126.82
3118.97
3112.54
3107.45
3103.65
3101.06
3099.65
3099.39
3100.24
3102.2
3105.26
3109.45
3114.78
3121.28
3128.98
3137.91
3148.13
3159.69
3172.67
3187.13
3203.13
3220.71
3239.9
3260.72
3283.16
3307.19
3332.76
3359.79
3388.16
3417.72
3448.48
3479.84
3511.71
3543.78
3575.68
3607.02
3637.42
3666.46
3693.73
3718.8
3741.28
3760.76
3776.89
3789.32
3797.8
3802.1
3802.08
3797.7
3789.08
3776.29
3759.55
3739.18
3715.54
3689.02
3660.07
3629.14
3596.72
3563.25
3529.21
3495.03
3461.14
3427.92
3395.7
3364.76
3335.3
3307.48
3281.4
3257.13
3234.69
3214.08
3195.29
3178.31
3163.11
3149.65
3137.89
3127.77
3119.21
3112.14
3106.47
3102.15
3099.15
3097.45
3096.97
3097.69
3099.66
3102.95
3107.61
3113.71
3121.3
3130.48
3141.34
3154
3168.51
3184.98
3203.44
3223.95
3246.49
3270.99
3297.31
3325.23
3354.4
3384.41
3424.83
3459.71
3495.46
3531.14
3566.28
3600.55
3633.43
3664.47
3693.32
3719.53
3742.75
3762.62
3778.84
3791.2
3799.48
3803.58
3803.46
3799.47
3791.45
3779.42
3763.6
3744.22
3721.54
3695.89
3667.68
3637.28
3605.13
3571.65
3537.27
3502.45
3467.6
3433.09
3399.57
3367.08
3335.37
3304.9
3275.92
3248.59
3223.02
3199.3
3177.46
3157.5
3139.44
3123.23
3108.85
3096.25
3085.38
3076.2
3068.67
3062.74
3058.39
3055.58
3054.32
3054.59
3056.49
3059.98
3065.07
3071.8
3080.21
3437.7
3470.44
3502.8
3534.34
3564.69
3593.29
3619.75
3643.59
3664.42
3681.93
3695.82
3705.86
3711.9
3713.86
3710.97
3704.07
3693.24
3678.6
3660.4
3638.9
3614.45
3587.41
3558.13
3527.07
3494.61
3461.19
3427.21
3393.05
3359.09
3325.64
3293.04
3263.17
3233.1
3204.32
3177.04
3151.4
3127.47
3105.3
3084.89
3066.25
3049.34
3034.14
3020.6
3008.69
2998.37
2989.59
2982.33
2976.55
2972.22
2969.33
2967.86
2967.81
2969.17
2971.96
2976.2
2981.87
2989
2997.64
3007.8
3019.52
3032.83
3047.78
3064.42
3082.75
3102.79
3124.55
3148.01
3173.11
3199.76
3227.83
3257.16
3287.51
3321.5
3353.57
3386.18
3418.96
3451.59
3483.72
3515
3545.12
3573.71
3600.44
3624.98
3647.01
3666.21
3682.31
3695.06
3704.25
3709.72
3711.37
3709.15
3703.09
3693.31
3679.91
3663.09
3643.08
3620.14
3594.57
3566.69
3536.84
3505.38
3472.69
3439.15
3405.13
3371.03
3337.21
3304.03
3271.81
3240.82
3211.3
3183.44
3157.38
3133.2
3110.97
3090.69
3072.35
3055.92
3041.35
3028.59
3017.58
3008.25
3000.55
2994.41
2989.79
2986.64
2984.92
2984.59
2985.62
2987.96
2991.6
2996.52
3002.68
3010.08
3018.71
3028.55
3039.61
3051.89
3065.42
3080.21
3096.29
3113.71
3132.5
3152.69
3174.29
3197.31
3221.72
3247.49
3274.55
3302.79
3332.15
3362.33
3393.17
3424.43
3455.84
3487.06
3517.77
3547.59
3576.15
3603.06
3627.94
3650.41
3670.09
3686.65
3699.78
3709.2
3714.68
3716.08
3713.28
3706.33
3695.26
3680.21
3661.43
3639.19
3613.87
3585.86
3555.61
3523.59
3490.26
3456.11
3421.58
3387.11
3353.09
3319.87
3287.75
3257
3227.81
3200.34
3174.72
3151
3129.23
3109.39
3091.47
3075.4
3061.13
3048.58
3037.68
3028.35
3020.52
3014.11
3009.04
3005.25
3002.68
3001.28
3001.02
3001.87
3003.83
3006.89
3011.07
3016.4
3022.89
3030.57
3039.49
3049.69
3061.24
3074.2
3088.64
3104.62
3122.18
3141.36
3162.18
3184.62
3208.65
3234.23
3261.27
3289.67
3319.26
3350.07
3381.48
3413.43
3445.57
3477.56
3509.01
3539.51
3568.66
3596.04
3621.23
3643.81
3663.4
3679.61
3692.13
3700.66
3705
3704.99
3700.6
3691.93
3679.07
3662.24
3641.77
3618.01
3591.37
3562.29
3531.25
3498.7
3465.12
3430.97
3396.7
3362.72
3329.44
3297.17
3266.19
3236.71
3208.88
3182.8
3158.53
3136.09
3115.49
3096.72
3079.76
3064.58
3051.13
3039.39
3029.29
3020.75
3013.7
3008.06
3003.75
3000.76
2999.05
2998.57
2999.29
3001.25
3004.53
3009.17
3015.24
3022.82
3031.97
3042.8
3055.43
3069.91
3086.36
3104.81
3125.31
3147.86
3172.37
3198.72
3226.7
3255.98
3286.16
3326.14
3361.2
3397.12
3432.92
3468.18
3502.57
3535.57
3566.72
3595.69
3622.01
3645.33
3665.29
3681.6
3694.01
3702.35
3706.47
3706.34
3702.34
3694.27
3682.19
3666.29
3646.83
3624.05
3598.29
3569.97
3539.45
3507.18
3473.6
3439.11
3404.19
3369.25
3334.67
3301.12
3268.57
3236.82
3206.32
3177.32
3149.98
3124.41
3100.69
3078.86
3058.92
3040.86
3024.68
3010.31
2997.72
2986.87
2977.7
2970.18
2964.26
2959.92
2957.12
2955.86
2956.13
2958.03
2961.52
2966.6
2973.32
2981.71
3339.48
3372.32
3404.8
3436.46
3466.93
3495.66
3522.25
3546.22
3567.16
3584.77
3598.73
3608.83
3614.9
3616.88
3613.98
3607.04
3596.14
3581.42
3563.12
3541.51
3516.95
3489.78
3460.38
3429.18
3396.6
3363.07
3328.98
3294.73
3260.69
3227.17
3194.54
3164.56
3134.47
3105.66
3078.38
3052.73
3028.81
3006.64
2986.25
2967.62
2950.73
2935.54
2922.02
2910.13
2899.82
2891.06
2883.81
2878.04
2873.72
2870.84
2869.37
2869.32
2870.68
2873.47
2877.7
2883.36
2890.49
2899.11
2909.25
2920.96
2934.26
2949.19
2965.81
2984.13
3004.16
3025.92
3049.38
3074.49
3101.16
3129.27
3158.64
3189.04
3223.01
3255.15
3287.85
3320.73
3353.44
3385.67
3417.06
3447.28
3475.98
3502.82
3527.47
3549.59
3568.89
3585.08
3597.9
3607.14
3612.65
3614.31
3612.09
3606
3596.17
3582.71
3565.81
3545.71
3522.66
3496.98
3468.99
3439.02
3407.45
3374.64
3340.98
3306.86
3272.66
3238.75
3205.49
3173.21
3142.17
3112.61
3084.73
3058.65
3034.48
3012.26
2991.99
2973.67
2957.26
2942.72
2929.98
2918.99
2909.68
2902
2895.88
2891.28
2888.14
2886.43
2886.11
2887.14
2889.5
2893.14
2898.06
2904.23
2911.63
2920.26
2930.1
2941.15
2953.43
2966.94
2981.71
2997.78
3015.19
3033.96
3054.13
3075.73
3098.74
3123.16
3148.93
3176
3204.27
3233.67
3263.89
3294.8
3326.13
3357.62
3388.94
3419.75
3449.68
3478.36
3505.39
3530.39
3552.98
3572.78
3589.44
3602.66
3612.15
3617.69
3619.11
3616.31
3609.33
3598.2
3583.07
3564.18
3541.83
3516.37
3488.22
3457.83
3425.66
3392.2
3357.92
3323.27
3288.7
3254.59
3221.3
3189.13
3158.33
3129.11
3101.63
3076
3052.29
3030.52
3010.71
2992.8
2976.76
2962.52
2950
2939.13
2929.82
2922.01
2915.62
2910.57
2906.8
2904.25
2902.86
2902.6
2903.46
2905.41
2908.47
2912.65
2917.97
2924.44
2932.11
2941.01
2951.2
2962.72
2975.66
2990.08
3006.04
3023.59
3042.76
3063.56
3086
3110.04
3135.63
3162.69
3191.12
3220.76
3251.59
3283.08
3315.11
3347.35
3379.44
3411.01
3441.63
3470.91
3498.42
3523.74
3546.45
3566.16
3582.48
3595.09
3603.69
3608.07
3608.07
3603.67
3594.94
3581.99
3565.07
3544.48
3520.58
3493.79
3464.57
3433.38
3400.7
3366.99
3332.71
3298.33
3264.26
3230.9
3198.56
3167.54
3138.03
3110.19
3084.1
3059.84
3037.41
3016.83
2998.08
2981.13
2965.97
2952.54
2940.83
2930.75
2922.24
2915.21
2909.59
2905.3
2902.32
2900.61
2900.13
2900.84
2902.79
2906.05
2910.67
2916.72
2924.27
2933.39
2944.19
2956.78
2971.23
2987.66
3006.09
3026.58
3049.14
3073.67
3100.05
3128.1
3157.5
3187.92
3227.31
3262.63
3298.73
3334.68
3370.08
3404.6
3437.74
3469.03
3498.13
3524.58
3548.02
3568.1
3584.49
3596.99
3605.37
3609.52
3609.39
3605.36
3597.25
3585.1
3569.12
3549.56
3526.66
3500.77
3472.32
3441.67
3409.27
3375.55
3340.94
3305.91
3270.87
3236.19
3202.61
3169.99
3138.19
3107.66
3078.63
3051.28
3025.71
3002
2980.17
2960.24
2942.21
2926.04
2911.69
2899.13
2888.29
2879.14
2871.63
2865.73
2861.39
2858.6
2857.34
2857.61
2859.5
2862.99
2868.06
2874.77
2883.16
3241.24
3274.2
3306.81
3338.6
3369.22
3398.1
3424.83
3448.95
3470.02
3487.74
3501.8
3511.96
3518.07
3520.05
3517.15
3510.16
3499.19
3484.38
3465.96
3444.23
3419.53
3392.21
3362.66
3331.32
3298.61
3264.94
3230.73
3196.37
3162.24
3128.65
3095.97
3065.87
3035.75
3006.93
2979.63
2953.98
2930.06
2907.9
2887.52
2868.91
2852.04
2836.88
2823.38
2811.5
2801.21
2792.47
2785.23
2779.47
2775.16
2772.29
2770.83
2770.78
2772.13
2774.92
2779.15
2784.8
2791.91
2800.52
2810.65
2822.33
2835.61
2850.53
2867.13
2885.43
2905.45
2927.21
2950.67
2975.79
3002.48
3030.63
3060.06
3090.54
3124.44
3156.69
3189.49
3222.47
3255.29
3287.63
3319.13
3349.47
3378.3
3405.26
3430.03
3452.28
3471.68
3487.97
3500.87
3510.18
3515.73
3517.41
3515.18
3509.07
3499.18
3485.64
3468.65
3448.44
3425.28
3399.47
3371.34
3341.24
3309.53
3276.6
3242.81
3208.57
3174.26
3140.24
3106.89
3074.54
3043.44
3013.84
2985.93
2959.84
2935.67
2913.45
2893.21
2874.91
2858.52
2844.01
2831.3
2820.33
2811.05
2803.39
2797.29
2792.7
2789.58
2787.88
2787.58
2788.62
2790.98
2794.64
2799.56
2805.73
2813.13
2821.76
2831.59
2842.64
2854.9
2868.4
2883.16
2899.21
2916.6
2935.36
2955.52
2977.1
3000.11
3024.52
3050.31
3077.39
3105.68
3135.14
3165.41
3196.39
3227.81
3259.39
3290.82
3321.74
3351.81
3380.62
3407.79
3432.93
3455.65
3475.58
3492.36
3505.68
3515.25
3520.85
3522.3
3519.5
3512.48
3501.29
3486.07
3467.07
3444.57
3418.96
3390.65
3360.09
3327.76
3294.14
3259.71
3224.93
3190.24
3156.03
3122.66
3090.42
3059.57
3030.32
3002.82
2977.19
2953.48
2931.73
2911.94
2894.06
2878.05
2863.84
2851.35
2840.51
2831.23
2823.45
2817.08
2812.06
2808.31
2805.77
2804.39
2804.14
2805
2806.96
2810.01
2814.18
2819.49
2825.95
2833.61
2842.49
2852.65
2864.15
2877.07
2891.46
2907.39
2924.92
2944.08
2964.88
2987.31
3011.35
3036.95
3064.03
3092.49
3122.19
3153.06
3184.64
3216.76
3249.11
3281.32
3313.02
3343.78
3373.21
3400.87
3426.33
3449.19
3469.04
3485.49
3498.2
3506.88
3511.3
3511.32
3506.9
3498.11
3485.07
3468.03
3447.3
3423.24
3396.29
3366.91
3335.55
3302.7
3268.84
3234.43
3199.92
3165.74
3132.29
3099.88
3068.81
3039.27
3011.41
2985.33
2961.07
2938.65
2918.09
2899.35
2882.43
2867.28
2853.88
2842.19
2832.14
2823.66
2816.67
2811.07
2806.8
2803.83
2802.12
2801.64
2802.35
2804.28
2807.52
2812.12
2818.14
2825.65
2834.74
2845.5
2858.06
2872.47
2888.87
2907.28
2927.77
2950.32
2974.87
3001.3
3029.43
3058.95
3089.66
3128.37
3164
3200.31
3236.42
3271.97
3306.65
3339.95
3371.4
3400.65
3427.25
3450.83
3471.03
3487.54
3500.11
3508.56
3512.74
3512.61
3508.55
3500.38
3488.17
3472.09
3452.41
3429.37
3403.34
3374.73
3343.92
3311.37
3277.51
3242.76
3207.6
3172.44
3137.66
3104.03
3071.34
3039.49
3008.92
2979.87
2952.5
2926.93
2903.21
2881.4
2861.49
2843.48
2827.33
2813.01
2800.46
2789.64
2780.51
2773.02
2767.12
2762.8
2760.01
2758.76
2759.03
2760.92
2764.4
2769.47
2776.16
2784.54
3142.98
3176.08
3208.83
3240.78
3271.55
3300.6
3327.5
3351.78
3373
3390.84
3405
3415.24
3421.39
3423.37
3420.47
3413.43
3402.38
3387.47
3368.92
3347.05
3322.19
3294.71
3265
3233.49
3200.62
3166.81
3132.46
3097.98
3063.74
3030.07
2997.34
2967.12
2936.96
2908.11
2880.8
2855.15
2831.23
2809.08
2788.72
2770.13
2753.28
2738.14
2724.66
2712.81
2702.54
2693.81
2686.59
2680.84
2676.54
2673.68
2672.22
2672.18
2673.53
2676.32
2680.54
2686.18
2693.28
2701.87
2711.98
2723.64
2736.9
2751.8
2768.38
2786.66
2806.67
2828.42
2851.89
2877.02
2903.74
2931.92
2961.42
2992
3025.8
3058.18
3091.1
3124.18
3157.13
3189.59
3221.23
3251.7
3280.67
3307.77
3332.68
3355.06
3374.59
3390.99
3403.98
3413.36
3418.95
3420.66
3418.42
3412.27
3402.33
3388.71
3371.61
3351.28
3327.98
3302.03
3273.76
3243.5
3211.65
3178.56
3144.63
3110.25
3075.81
3041.68
3008.22
2975.8
2944.63
2914.98
2887.04
2860.94
2836.77
2814.56
2794.33
2776.06
2759.71
2745.22
2732.54
2721.6
2712.35
2704.71
2698.64
2694.07
2690.97
2689.28
2688.99
2690.04
2692.42
2696.08
2701
2707.18
2714.58
2723.2
2733.04
2744.08
2756.33
2769.82
2784.56
2800.59
2817.95
2836.69
2856.83
2878.4
2901.4
2925.82
2951.62
2978.72
3007.03
3036.56
3066.89
3097.93
3129.45
3161.14
3192.69
3223.75
3253.95
3282.92
3310.25
3335.54
3358.42
3378.5
3395.41
3408.85
3418.51
3424.17
3425.66
3422.86
3415.81
3404.54
3389.22
3370.07
3347.42
3321.64
3293.14
3262.39
3229.88
3196.08
3161.49
3126.56
3091.73
3057.41
3023.95
2991.64
2960.73
2931.45
2903.93
2878.29
2854.59
2832.86
2813.09
2795.24
2779.26
2765.08
2752.63
2741.82
2732.58
2724.83
2718.49
2713.49
2709.77
2707.25
2705.88
2705.64
2706.5
2708.46
2711.5
2715.67
2720.96
2727.41
2735.05
2743.91
2754.05
2765.52
2778.41
2792.77
2808.68
2826.19
2845.33
2866.12
2888.54
2912.59
2938.2
2965.31
2993.81
3023.56
3054.48
3086.15
3118.38
3150.85
3183.2
3215.04
3245.97
3275.56
3303.38
3329.02
3352.05
3372.05
3388.64
3401.47
3410.24
3414.71
3414.75
3410.3
3401.44
3388.3
3371.13
3350.23
3326
3298.87
3269.29
3237.75
3204.73
3170.69
3136.12
3101.47
3067.16
3033.61
3001.13
2970
2940.43
2912.55
2886.46
2862.21
2839.81
2819.26
2800.55
2783.65
2768.53
2755.15
2743.49
2733.48
2725.03
2718.07
2712.5
2708.25
2705.29
2703.58
2703.1
2703.8
2705.72
2708.94
2713.51
2719.5
2726.98
2736.02
2746.74
2759.25
2773.63
2789.99
2808.39
2828.86
2851.42
2875.99
2902.46
2930.67
2960.34
2991.34
3029.35
3065.31
3101.85
3138.15
3173.87
3208.72
3242.19
3273.82
3303.25
3330.01
3353.75
3374.1
3390.72
3403.39
3411.91
3416.12
3415.99
3411.9
3403.68
3391.38
3375.19
3355.37
3332.19
3305.99
3277.21
3246.23
3213.5
3179.47
3144.56
3109.26
3073.97
3039.08
3005.4
2972.62
2940.71
2910.09
2881.01
2853.63
2828.05
2804.35
2782.55
2762.66
2744.66
2728.54
2714.24
2701.72
2690.93
2681.82
2674.34
2668.46
2664.15
2661.37
2660.12
2660.39
2662.28
2665.76
2670.81
2677.49
2685.85
3044.71
3077.96
3110.87
3142.98
3173.94
3203.17
3230.26
3254.72
3276.11
3294.09
3308.36
3318.67
3324.87
3326.86
3323.95
3316.85
3305.72
3290.69
3272
3249.97
3224.94
3197.28
3167.38
3135.7
3102.64
3068.67
3034.17
2999.56
2965.2
2931.44
2898.65
2868.29
2838.09
2809.22
2781.89
2756.23
2732.32
2710.18
2689.84
2671.27
2654.45
2639.33
2625.88
2614.05
2603.81
2595.1
2587.89
2582.16
2577.87
2575.01
2573.57
2573.52
2574.87
2577.66
2581.87
2587.5
2594.58
2603.16
2613.24
2624.88
2638.12
2652.99
2669.55
2687.81
2707.81
2729.55
2753.02
2778.16
2804.92
2833.15
2862.71
2893.42
2927.08
2959.63
2992.67
3025.88
3058.96
3091.56
3123.35
3153.97
3183.09
3210.35
3235.41
3257.94
3277.61
3294.13
3307.23
3316.68
3322.33
3324.06
3321.81
3315.63
3305.61
3291.9
3274.69
3254.22
3230.78
3204.67
3176.23
3145.81
3113.78
3080.53
3046.44
3011.91
2977.32
2943.06
2909.49
2876.98
2845.73
2816.03
2788.06
2761.95
2737.78
2715.58
2695.38
2677.13
2660.81
2646.36
2633.71
2622.81
2613.58
2605.97
2599.92
2595.38
2592.3
2590.63
2590.35
2591.42