/*--------------------------------*- C++ -*----------------------------------*\
| =========                 |                                                 |
| \\      /  F ield         | OpenFOAM: The Open Source CFD Toolbox           |
|  \\    /   O peration     | Version:  3.0.1                                 |
|   \\  /    A nd           | Web:      www.OpenFOAM.org                      |
|    \\/     M anipulation  |                                                 |
\*---------------------------------------------------------------------------*/
FoamFile
{
    version     2.0;
    format      ascii;
    class       surfaceScalarField;
    location    "42.6";
    object      phi;
}
// * * * * * * * * * * * * * * * * * * * * * * * * * * * * * * * * * * * * * //

dimensions      [0 3 -1 0 0 0 0];

internalField   nonuniform List<scalar> 
42423
(
0.000208267
6.07184e-06
0.000200322
7.94582e-06
0.000190228
1.00935e-05
0.000178072
1.21564e-05
0.000164353
1.37184e-05
0.000149042
1.53112e-05
0.000132564
1.64778e-05
0.000115058
1.75064e-05
9.67635e-05
1.82943e-05
7.81578e-05
1.86057e-05
5.9278e-05
1.88798e-05
4.03971e-05
1.88809e-05
2.18654e-05
1.85317e-05
3.84266e-06
1.80227e-05
-1.38163e-05
1.76589e-05
-3.07494e-05
1.69331e-05
-4.68412e-05
1.60918e-05
-6.20277e-05
1.51865e-05
-7.62952e-05
1.42675e-05
-8.95826e-05
1.32874e-05
-0.000101881
1.22983e-05
-0.000113215
1.13338e-05
-0.000123569
1.03546e-05
-0.000132958
9.38816e-06
-0.000141421
8.46383e-06
-0.000148968
7.54623e-06
-0.000155657
6.68969e-06
-0.000161497
5.83997e-06
-0.000166522
5.02422e-06
-0.000170767
4.24552e-06
-0.000174252
3.48481e-06
-0.000176996
2.74443e-06
-0.000179044
2.04805e-06
-0.000180398
1.35394e-06
-0.000181072
6.74009e-07
-0.000181032
-4.02822e-08
-0.000180269
-7.63457e-07
-0.000178782
-1.48658e-06
-0.000176598
-2.1839e-06
-0.000173609
-2.98895e-06
-0.000169861
-3.74782e-06
-0.000165228
-4.63345e-06
-0.000159833
-5.39445e-06
-0.000153669
-6.16448e-06
-0.00014647
-7.19872e-06
-0.000138405
-8.0653e-06
-0.00012958
-8.8251e-06
-0.00011958
-9.99991e-06
-0.000108703
-1.08773e-05
-9.6961e-05
-1.17417e-05
-8.41546e-05
-1.28064e-05
-7.05358e-05
-1.36188e-05
-5.59904e-05
-1.45455e-05
-4.05158e-05
-1.54746e-05
-2.44056e-05
-1.61102e-05
-7.58195e-06
-1.68237e-05
9.77746e-06
-1.73595e-05
2.74446e-05
-1.76672e-05
4.54398e-05
-1.79953e-05
6.34577e-05
-1.80179e-05
8.14042e-05
-1.79465e-05
9.91622e-05
-1.77581e-05
0.000116287
-1.71251e-05
0.000132693
-1.64053e-05
0.000148192
-1.54996e-05
0.000162473
-1.42805e-05
0.000175464
-1.2991e-05
0.000186866
-1.14025e-05
0.000196583
-9.71669e-06
0.000204515
-7.93252e-06
0.000210422
-5.90737e-06
0.000214209
-3.7871e-06
0.000215839
-1.62939e-06
0.000215271
5.68286e-07
0.000212336
2.9344e-06
0.000207324
5.01249e-06
0.00020018
7.14387e-06
0.000191069
9.11017e-06
0.000180157
1.09121e-05
0.000167431
1.27267e-05
0.000153318
1.41129e-05
0.000137966
1.53519e-05
0.000121502
1.64641e-05
0.000104283
1.72187e-05
8.656e-05
1.77229e-05
6.83955e-05
1.81646e-05
5.01864e-05
1.8209e-05
3.20855e-05
1.81009e-05
1.42216e-05
1.78639e-05
-3.30091e-06
1.75225e-05
-2.02724e-05
1.69715e-05
-3.65817e-05
1.63093e-05
-5.2114e-05
1.55323e-05
-6.67833e-05
1.46694e-05
-8.05036e-05
1.37203e-05
-9.3223e-05
1.27194e-05
-0.000104913
1.16896e-05
-0.000115563
1.06502e-05
-0.000125142
9.57945e-06
-0.000133677
8.53507e-06
-0.000141159
7.48199e-06
-0.000147606
6.44637e-06
-0.000153111
5.50548e-06
-0.000157689
4.57802e-06
-0.000161438
3.7484e-06
-0.000164397
2.95937e-06
-0.000166545
2.14824e-06
-0.000167985
1.4398e-06
-0.000168741
7.55651e-07
-0.000168853
1.1221e-07
-0.000168389
-4.63911e-07
-0.000167243
-1.14566e-06
-0.000165593
-1.65067e-06
-0.000163293
-2.29973e-06
-0.000160499
-2.79442e-06
-0.000157104
-3.39425e-06
-0.000153155
-3.94885e-06
-0.000148598
-4.557e-06
-0.000143524
-5.07425e-06
-0.000137864
-5.66067e-06
-0.000131602
-6.26128e-06
-0.00012471
-6.89255e-06
-0.000117217
-7.49249e-06
-0.000109061
-8.15604e-06
-0.00010029
-8.7709e-06
-9.08314e-05
-9.45901e-06
-8.06948e-05
-1.01366e-05
-6.99433e-05
-1.07515e-05
-5.84939e-05
-1.14494e-05
-4.63373e-05
-1.21567e-05
-3.35751e-05
-1.27622e-05
-2.01116e-05
-1.34636e-05
-6.12945e-06
-1.39822e-05
8.42937e-06
-1.45589e-05
2.34547e-05
-1.50254e-05
3.88531e-05
-1.53985e-05
5.45712e-05
-1.57181e-05
7.03537e-05
-1.57826e-05
8.61737e-05
-1.58201e-05
0.000101798
-1.56243e-05
0.000116984
-1.51858e-05
0.000131616
-1.46319e-05
0.000145446
-1.38307e-05
0.000158236
-1.279e-05
0.000169795
-1.15591e-05
0.00017992
-1.01246e-05
0.000188357
-8.4372e-06
0.000194959
-6.60251e-06
0.000199577
-4.61781e-06
0.000202104
-2.5271e-06
0.000202436
-3.32023e-07
0.000200575
1.861e-06
0.000196462
4.11353e-06
0.00019026
6.202e-06
0.000181965
8.29496e-06
0.000171786
1.01784e-05
0.000159898
1.18886e-05
0.000146481
1.34166e-05
0.000131788
1.46931e-05
0.000115998
1.57899e-05
9.94834e-05
1.65144e-05
8.24473e-05
1.70361e-05
6.50545e-05
1.73928e-05
4.77097e-05
1.73448e-05
3.04926e-05
1.72171e-05
1.36663e-05
1.68263e-05
-2.63804e-06
1.63043e-05
-1.82891e-05
1.56511e-05
-3.31527e-05
1.48635e-05
-4.72289e-05
1.40763e-05
-6.03251e-05
1.30962e-05
-7.24905e-05
1.21653e-05
-8.37556e-05
1.12652e-05
-9.40392e-05
1.02836e-05
-0.000103425
9.38604e-06
-0.000111906
8.48089e-06
-0.00011966
7.75353e-06
-0.000126568
6.90812e-06
-0.000132759
6.19083e-06
-0.000138273
5.51451e-06
-0.000143121
4.84823e-06
-0.000147359
4.23806e-06
-0.000151012
3.65301e-06
-0.00015407
3.05728e-06
-0.000156566
2.49636e-06
-0.000158535
1.96916e-06
-0.000159985
1.45017e-06
-0.000160932
9.4611e-07
-0.000161338
4.06248e-07
-0.000161374
3.67025e-08
-0.000160855
-5.1957e-07
-0.000159864
-9.90675e-07
-0.000158421
-1.44341e-06
-0.000156461
-1.95959e-06
-0.00015406
-2.4014e-06
-0.000151202
-2.85759e-06
-0.000147903
-3.29925e-06
-0.000144125
-3.77764e-06
-0.00013987
-4.25521e-06
-0.000135099
-4.77156e-06
-0.000129735
-5.36407e-06
-0.0001238
-5.93445e-06
-0.000117181
-6.61888e-06
-0.00010988
-7.3014e-06
-0.00010178
-8.10018e-06
-9.2885e-05
-8.8948e-06
-8.30853e-05
-9.79977e-06
-7.24275e-05
-1.06578e-05
-6.0789e-05
-1.16386e-05
-4.83532e-05
-1.24358e-05
-3.49816e-05
-1.33717e-05
-2.06957e-05
-1.4286e-05
-5.72588e-06
-1.49698e-05
9.95474e-06
-1.56807e-05
2.62036e-05
-1.62489e-05
4.28551e-05
-1.66516e-05
5.9755e-05
-1.68999e-05
7.66832e-05
-1.69283e-05
9.3491e-05
-1.68079e-05
0.000110006
-1.65155e-05
0.000126036
-1.60294e-05
0.000141267
-1.52317e-05
0.000155585
-1.43178e-05
0.000168696
-1.31111e-05
0.000180292
-1.15962e-05
0.000190204
-9.91166e-06
0.000198207
-8.00311e-06
0.000204105
-5.89803e-06
0.000207822
-3.71732e-06
0.000209209
-1.38705e-06
0.000208295
9.14075e-07
0.00020497
3.32464e-06
0.000199264
5.7061e-06
0.000191378
7.88629e-06
0.000181393
9.98481e-06
0.000169529
1.18639e-05
0.000155957
1.35715e-05
0.000141036
1.49213e-05
0.000125019
1.60168e-05
0.000108205
1.68144e-05
9.08052e-05
1.73997e-05
7.31182e-05
1.7687e-05
5.53897e-05
1.77284e-05
3.78569e-05
1.75328e-05
2.06622e-05
1.71948e-05
3.9582e-06
1.6704e-05
-1.21645e-05
1.61227e-05
-2.75545e-05
1.539e-05
-4.21778e-05
1.46233e-05
-5.59611e-05
1.37833e-05
-6.88803e-05
1.29192e-05
-8.09502e-05
1.20699e-05
-9.21425e-05
1.11923e-05
-0.000102479
1.03369e-05
-0.000111981
9.50148e-06
-0.000120657
8.67593e-06
-0.000128512
7.85468e-06
-0.000135571
7.0598e-06
-0.000141947
6.37538e-06
-0.000147628
5.68096e-06
-0.000152567
4.93889e-06
-0.000156832
4.26561e-06
-0.000160404
3.57187e-06
-0.000163322
2.91798e-06
-0.00016561
2.28765e-06
-0.000167229
1.61932e-06
-0.000168136
9.06892e-07
-0.000168419
2.82972e-07
-0.000168012
-4.07071e-07
-0.000166808
-1.20333e-06
-0.000165026
-1.78211e-06
-0.000162397
-2.62978e-06
-0.000159217
-3.1797e-06
-0.000155063
-4.15435e-06
-0.000150276
-4.78667e-06
-0.00014473
-5.54596e-06
-0.00013821
-6.52035e-06
-0.000130821
-7.38831e-06
-0.000122535
-8.28667e-06
-0.000113188
-9.34713e-06
-0.000102835
-1.03524e-05
-9.13048e-05
-1.15305e-05
-7.87151e-05
-1.25898e-05
-6.50947e-05
-1.36204e-05
-5.04517e-05
-1.46431e-05
-3.4814e-05
-1.56377e-05
-1.84491e-05
-1.6365e-05
-1.23962e-06
-1.72095e-05
1.65021e-05
-1.77418e-05
3.48109e-05
-1.83088e-05
5.3623e-05
-1.88122e-05
7.25715e-05
-1.89486e-05
9.15649e-05
-1.89934e-05
0.000110456
-1.88913e-05
0.000128808
-1.8352e-05
0.00014649
-1.76823e-05
0.000163235
-1.67446e-05
0.000178661
-1.54262e-05
0.000192563
-1.39019e-05
0.000204577
-1.20143e-05
0.00021454
-9.96339e-06
0.000222277
-7.73668e-06
0.000227503
-5.22612e-06
0.000230264
-2.76073e-06
0.000230398
-1.34366e-07
0.000227758
2.64001e-06
0.000222568
5.18986e-06
0.000214954
7.61404e-06
0.000205184
9.76944e-06
0.000193551
1.16338e-05
0.000180064
1.34868e-05
0.000165246
1.4818e-05
0.000149206
1.604e-05
0.000132395
1.68104e-05
0.000114858
1.75377e-05
9.71156e-05
1.77419e-05
7.92684e-05
1.78471e-05
6.1453e-05
1.78154e-05
4.40329e-05
1.742e-05
2.6991e-05
1.7042e-05
1.04319e-05
1.6559e-05
-5.38544e-06
1.58174e-05
-2.0535e-05
1.51495e-05
-3.49633e-05
1.44283e-05
-4.86048e-05
1.36415e-05
-6.14675e-05
1.28627e-05
-7.35208e-05
1.20532e-05
-8.47559e-05
1.12352e-05
-9.51881e-05
1.04322e-05
-0.000104801
9.61324e-06
-0.000113599
8.79746e-06
-0.000121584
7.98528e-06
-0.00012874
7.15635e-06
-0.000135041
6.30101e-06
-0.000140484
5.44297e-06
-0.000145061
4.57609e-06
-0.000148767
3.70594e-06
-0.000151581
2.81449e-06
-0.000153488
1.90678e-06
-0.000154499
1.01155e-06
-0.000154535
3.56564e-08
-0.000153574
-9.61476e-07
-0.000151655
-1.91846e-06
-0.000148722
-2.93346e-06
-0.000144877
-3.84478e-06
-0.000140146
-4.73066e-06
-0.000134337
-5.80892e-06
-0.00012763
-6.7071e-06
-0.000120018
-7.61206e-06
-0.000111397
-8.62101e-06
-0.000101925
-9.47226e-06
-9.14808e-05
-1.04439e-05
-8.02576e-05
-1.12233e-05
-6.82611e-05
-1.19965e-05
-5.53135e-05
-1.29476e-05
-4.1591e-05
-1.37225e-05
-1.44713e-05
0.000208358
1.21448e-05
0.00020041
1.58939e-05
0.000190312
2.01917e-05
0.000178149
2.432e-05
0.000164423
2.74445e-05
0.000149103
3.06304e-05
0.000132613
3.29686e-05
0.000115096
3.50234e-05
9.67888e-05
3.6601e-05
7.81691e-05
3.72255e-05
5.92832e-05
3.77658e-05
4.0396e-05
3.77681e-05
2.18475e-05
3.70802e-05
3.81176e-06
3.60584e-05
-1.38428e-05
3.53135e-05
-3.0779e-05
3.38693e-05
-4.68751e-05
3.21879e-05
-6.20664e-05
3.03778e-05
-7.63384e-05
2.85396e-05
-8.96278e-05
2.65769e-05
-0.000101928
2.45986e-05
-0.000113262
2.26677e-05
-0.000123618
2.07108e-05
-0.000133012
1.87818e-05
-0.000141475
1.69267e-05
-0.000149016
1.50875e-05
-0.000155706
1.33798e-05
-0.000161547
1.16811e-05
-0.000166574
1.00511e-05
-0.000170818
8.48999e-06
-0.000174304
6.97076e-06
-0.000177055
5.49508e-06
-0.000179101
4.09434e-06
-0.000180452
2.70464e-06
-0.000181123
1.34484e-06
-0.000181083
-8.02915e-08
-0.000180319
-1.52726e-06
-0.000178832
-2.9734e-06
-0.00017665
-4.36635e-06
-0.000173663
-5.97588e-06
-0.000169916
-7.49497e-06
-0.000165284
-9.2655e-06
-0.000159891
-1.07872e-05
-0.000153728
-1.23272e-05
-0.000146528
-1.43988e-05
-0.000138466
-1.61276e-05
-0.000129644
-1.76473e-05
-0.00011964
-2.0004e-05
-0.000108763
-2.17542e-05
-9.70175e-05
-2.34871e-05
-8.42122e-05
-2.56118e-05
-7.05955e-05
-2.72356e-05
-5.60443e-05
-2.90967e-05
-4.05598e-05
-3.09592e-05
-2.4449e-05
-3.22211e-05
-7.6197e-06
-3.3653e-05
9.74721e-06
-3.47265e-05
2.74233e-05
-3.53434e-05
4.54297e-05
-3.60018e-05
6.34544e-05
-3.60427e-05
8.14165e-05
-3.59087e-05
9.91819e-05
-3.55235e-05
0.000116313
-3.42563e-05
0.000132736
-3.28286e-05
0.000148239
-3.1002e-05
0.000162526
-2.85679e-05
0.000175538
-2.60031e-05
0.000186942
-2.28064e-05
0.000196663
-1.94381e-05
0.000204614
-1.58833e-05
0.000210526
-1.18198e-05
0.000214307
-7.56788e-06
0.000215944
-3.26703e-06
0.000215377
1.13524e-06
0.000212444
5.86808e-06
0.000207432
1.00245e-05
0.000200281
1.42948e-05
0.000191162
1.82282e-05
0.000180248
2.18262e-05
0.000167505
2.54704e-05
0.000153381
2.82362e-05
0.000138026
3.07073e-05
0.000121539
3.29511e-05
0.000104308
3.44501e-05
8.65705e-05
3.54599e-05
6.83975e-05
3.63376e-05
5.01749e-05
3.64317e-05
3.20669e-05
3.62089e-05
1.41937e-05
3.57371e-05
-3.34911e-06
3.50653e-05
-2.03239e-05
3.39462e-05
-3.66428e-05
3.26282e-05
-5.21869e-05
3.10764e-05
-6.68624e-05
2.93448e-05
-8.05903e-05
2.74482e-05
-9.33172e-05
2.54463e-05
-0.000105015
2.33876e-05
-0.000115668
2.13031e-05
-0.000125244
1.91549e-05
-0.000133769
1.70606e-05
-0.000141255
1.49682e-05
-0.000147708
1.28994e-05
-0.000153214
1.10113e-05
-0.000157781
9.14501e-06
-0.000161526
7.49325e-06
-0.000164476
5.90898e-06
-0.000166618
4.29055e-06
-0.000168061
2.88276e-06
-0.000168815
1.51002e-06
-0.000168912
2.09107e-07
-0.000168458
-9.1825e-07
-0.00016731
-2.29402e-06
-0.000165662
-3.29822e-06
-0.000163362
-4.5998e-06
-0.00016056
-5.59606e-06
-0.000157161
-6.79351e-06
-0.000153219
-7.89098e-06
-0.000148659
-9.11727e-06
-0.000143593
-1.01397e-05
-0.000137927
-1.13275e-05
-0.000131662
-1.25262e-05
-0.000124773
-1.37807e-05
-0.000117286
-1.49802e-05
-0.000109135
-1.63073e-05
-0.000100355
-1.75504e-05
-9.08979e-05
-1.89162e-05
-8.0767e-05
-2.02676e-05
-7.00149e-05
-2.15037e-05
-5.85629e-05
-2.29015e-05
-4.64089e-05
-2.43109e-05
-3.36467e-05
-2.55245e-05
-2.01896e-05
-2.69208e-05
-6.19835e-06
-2.79735e-05
8.36102e-06
-2.91183e-05
2.33859e-05
-3.00503e-05
3.87951e-05
-3.08078e-05
5.4502e-05
-3.14251e-05
7.03026e-05
-3.15833e-05
8.61233e-05
-3.16409e-05
0.000101757
-3.12577e-05
0.000116961
-3.03902e-05
0.000131596
-2.92671e-05
0.000145441
-2.76764e-05
0.000158229
-2.55773e-05
0.0001698
-2.31307e-05
0.000179914
-2.02388e-05
0.000188372
-1.68954e-05
0.000194988
-1.32185e-05
0.000199616
-9.24534e-06
0.000202131
-5.0425e-06
0.000202474
-6.75414e-07
0.000200616
3.71935e-06
0.000196492
8.23779e-06
0.000190267
1.24269e-05
0.000181981
1.65804e-05
0.000171805
2.03548e-05
0.000159906
2.37872e-05
0.000146474
2.68487e-05
0.000131779
2.93877e-05
0.000115983
3.15862e-05
9.94502e-05
3.3047e-05
8.24071e-05
3.40792e-05
6.50097e-05
3.47902e-05
4.7649e-05
3.47054e-05
3.0421e-05
3.44451e-05
1.35909e-05
3.36564e-05
-2.72108e-06
3.26163e-05
-1.83791e-05
3.13091e-05
-3.32621e-05
2.97466e-05
-4.73219e-05
2.8136e-05
-6.04245e-05
2.61987e-05
-7.25773e-05
2.43182e-05
-8.38464e-05
2.25343e-05
-9.4132e-05
2.05691e-05
-0.000103513
1.87666e-05
-0.000112011
1.6979e-05
-0.000119739
1.5482e-05
-0.000126641
1.38096e-05
-0.000132833
1.23833e-05
-0.000138353
1.10342e-05
-0.000143201
9.69612e-06
-0.000147436
8.47364e-06
-0.00015108
7.29637e-06
-0.000154133
6.11026e-06
-0.000156636
4.99931e-06
-0.000158605
3.93813e-06
-0.000160046
2.89149e-06
-0.000161001
1.90091e-06
-0.000161397
8.02625e-07
-0.000161434
7.40588e-08
-0.000160918
-1.03596e-06
-0.000159927
-1.9816e-06
-0.00015848
-2.89073e-06
-0.000156525
-3.9148e-06
-0.000154126
-4.80042e-06
-0.000151274
-5.70917e-06
-0.000147977
-6.5961e-06
-0.000144204
-7.55111e-06
-0.000139945
-8.51351e-06
-0.000135174
-9.54337e-06
-0.000129815
-1.07226e-05
-0.000123881
-1.18689e-05
-0.000117272
-1.3228e-05
-0.000109965
-1.46077e-05
-0.000101876
-1.61897e-05
-9.29835e-05
-1.77874e-05
-8.31869e-05
-1.95965e-05
-7.25315e-05
-2.13132e-05
-6.08859e-05
-2.32843e-05
-4.84598e-05
-2.4862e-05
-3.50835e-05
-2.6748e-05
-2.08141e-05
-2.85555e-05
-5.81917e-06
-2.99649e-05
9.86489e-06
-3.13648e-05
2.61195e-05
-3.25037e-05
4.2777e-05
-3.33092e-05
5.96824e-05
-3.38054e-05
7.66246e-05
-3.38706e-05
9.34443e-05
-3.36277e-05
0.000109967
-3.30379e-05
0.000126001
-3.20636e-05
0.000141249
-3.04802e-05
0.000155574
-2.86425e-05
0.000168694
-2.62318e-05
0.00018029
-2.31922e-05
0.000190227
-1.98488e-05
0.000198245
-1.60209e-05
0.000204138
-1.17917e-05
0.000207873
-7.45198e-06
0.000209279
-2.79297e-06
0.000208358
1.83443e-06
0.000205016
6.66707e-06
0.000199309
1.14126e-05
0.000191414
1.57819e-05
0.000181428
1.99701e-05
0.000169559
2.37331e-05
0.000155979
2.71511e-05
0.000141046
2.98549e-05
0.000125006
3.2056e-05
0.000108162
3.36585e-05
9.07824e-05
3.47795e-05
7.30734e-05
3.53959e-05
5.53402e-05
3.54616e-05
3.78058e-05
3.50671e-05
2.05932e-05
3.44073e-05
3.89125e-06
3.34059e-05
-1.22351e-05
3.2249e-05
-2.7635e-05
3.07899e-05
-4.22581e-05
2.92464e-05
-5.60346e-05
2.75598e-05
-6.89596e-05
2.58441e-05
-8.10297e-05
2.414e-05
-9.22196e-05
2.23823e-05
-0.000102558
2.06753e-05
-0.000112062
1.90056e-05
-0.000120733
1.73462e-05
-0.000128592
1.57144e-05
-0.000135664
1.41318e-05
-0.000142024
1.27349e-05
-0.000147706
1.13628e-05
-0.000152648
9.88175e-06
-0.000156913
8.5301e-06
-0.000160486
7.14492e-06
-0.00016341
5.84158e-06
-0.000165691
4.56942e-06
-0.000167313
3.2407e-06
-0.000168222
1.81566e-06
-0.000168499
5.5996e-07
-0.000168092
-8.14066e-07
-0.000166882
-2.41286e-06
-0.000165101
-3.56339e-06
-0.000162484
-5.24686e-06
-0.000159282
-6.38122e-06
-0.000155134
-8.30296e-06
-0.000150341
-9.57887e-06
-0.000144795
-1.10924e-05
-0.000138274
-1.30411e-05
-0.000130886
-1.47769e-05
-0.000122604
-1.65689e-05
-0.000113254
-1.86964e-05
-0.000102903
-2.07035e-05
-9.13695e-05
-2.30644e-05
-7.87782e-05
-2.51811e-05
-6.51545e-05
-2.72442e-05
-5.05086e-05
-2.92891e-05
-3.48654e-05
-3.1281e-05
-1.84934e-05
-3.27371e-05
-1.27798e-06
-3.4425e-05
1.64737e-05
-3.54936e-05
3.47893e-05
-3.66244e-05
5.36126e-05
-3.76357e-05
7.25747e-05
-3.79108e-05
9.15754e-05
-3.79943e-05
0.000110478
-3.77938e-05
0.000128848
-3.67222e-05
0.000146546
-3.53805e-05
0.000163298
-3.34972e-05
0.000178737
-3.08647e-05
0.00019265
-2.78153e-05
0.000204673
-2.40377e-05
0.000214657
-1.99469e-05
0.000222403
-1.54833e-05
0.000227631
-1.04541e-05
0.000230392
-5.52182e-06
0.000230525
-2.67177e-07
0.000227878
5.28648e-06
0.000222688
1.038e-05
0.000215068
1.52335e-05
0.000205288
1.955e-05
0.000193645
2.32764e-05
0.000180144
2.69876e-05
0.000165315
2.96469e-05
0.000149261
3.20941e-05
0.000132433
3.3638e-05
0.000114891
3.50804e-05
9.71323e-05
3.55001e-05
7.92791e-05
3.57003e-05
6.14533e-05
3.56411e-05
4.40227e-05
3.48506e-05
2.69787e-05
3.40859e-05
1.0411e-05
3.31267e-05
-5.40722e-06
3.16356e-05
-2.05603e-05
3.03027e-05
-3.49919e-05
2.88599e-05
-4.86362e-05
2.72857e-05
-6.15011e-05
2.57276e-05
-7.35561e-05
2.41082e-05
-8.47932e-05
2.24723e-05
-9.5228e-05
2.0867e-05
-0.000104844
1.92288e-05
-0.000113647
1.7601e-05
-0.000121633
1.59715e-05
-0.000128789
1.43115e-05
-0.000135092
1.26048e-05
-0.000140535
1.08853e-05
-0.000145112
9.15371e-06
-0.000148824
7.41758e-06
-0.000151642
5.63257e-06
-0.000153546
3.81069e-06
-0.000154553
2.01856e-06
-0.000154588
7.08194e-08
-0.000153627
-1.92301e-06
-0.000151708
-3.83741e-06
-0.000148773
-5.86784e-06
-0.000144926
-7.69202e-06
-0.000140195
-9.46182e-06
-0.000134386
-1.16181e-05
-0.000127677
-1.34159e-05
-0.000120063
-1.52257e-05
-0.000111438
-1.72458e-05
-0.000101964
-1.89465e-05
-9.15174e-05
-2.08907e-05
-8.02918e-05
-2.24488e-05
-6.82927e-05
-2.39955e-05
-5.53426e-05
-2.58977e-05
-4.16173e-05
-2.74478e-05
-2.89461e-05
0.000208534
1.82264e-05
0.000200575
2.38533e-05
0.000190462
3.03039e-05
0.000178283
3.64999e-05
0.000164538
4.11894e-05
0.000149203
4.59654e-05
0.000132685
4.94859e-05
0.000115149
5.25594e-05
9.6822e-05
5.49284e-05
7.81765e-05
5.5871e-05
5.92815e-05
5.66608e-05
4.03897e-05
5.66599e-05
2.18068e-05
5.56631e-05
3.74746e-06
5.41177e-05
-1.39069e-05
5.29679e-05
-3.08501e-05
5.08125e-05
-4.69512e-05
4.8289e-05
-6.21473e-05
4.55739e-05
-7.64232e-05
4.28155e-05
-8.97162e-05
3.98698e-05
-0.000102019
3.69014e-05
-0.000113355
3.40035e-05
-0.000123709
3.10648e-05
-0.000133099
2.8172e-05
-0.000141563
2.53909e-05
-0.000149103
2.26272e-05
-0.000155793
2.00698e-05
-0.000161631
1.75198e-05
-0.000166657
1.50765e-05
-0.000170905
1.27378e-05
-0.000174386
1.04523e-05
-0.000177133
8.24181e-06
-0.000179183
6.14461e-06
-0.000180535
4.05606e-06
-0.000181193
2.00375e-06
-0.000181145
-1.28614e-07
-0.000180374
-2.29837e-06
-0.000178887
-4.46052e-06
-0.000176706
-6.54689e-06
-0.000173726
-8.95642e-06
-0.000169979
-1.12422e-05
-0.000165351
-1.38933e-05
-0.000159962
-1.61765e-05
-0.000153801
-1.84878e-05
-0.000146599
-2.16004e-05
-0.000138542
-2.41849e-05
-0.000129725
-2.64644e-05
-0.000119715
-3.00144e-05
-0.000108839
-3.26297e-05
-9.70906e-05
-3.52359e-05
-8.42859e-05
-3.84165e-05
-7.06698e-05
-4.08518e-05
-5.61132e-05
-4.36534e-05
-4.06164e-05
-4.64561e-05
-2.45009e-05
-4.83367e-05
-7.66356e-06
-5.04904e-05
9.71456e-06
-5.21047e-05
2.74002e-05
-5.30291e-05
4.54186e-05
-5.40203e-05
6.34566e-05
-5.40808e-05
8.14294e-05
-5.38816e-05
9.92162e-05
-5.33104e-05
0.000116363
-5.14036e-05
0.000132791
-4.92565e-05
0.000148314
-4.65246e-05
0.000162618
-4.28719e-05
0.000175637
-3.90226e-05
0.000187057
-3.42264e-05
0.000196792
-2.91735e-05
0.000204753
-2.3844e-05
0.00021067
-1.77371e-05
0.000214455
-1.1353e-05
0.00021611
-4.92243e-06
0.000215523
1.72278e-06
0.000212604
8.78717e-06
0.000207595
1.50329e-05
0.000200433
2.14566e-05
0.000191299
2.73628e-05
0.000180375
3.27503e-05
0.000167615
3.82296e-05
0.000153473
4.2379e-05
0.000138107
4.60724e-05
0.000121586
4.9472e-05
0.000104336
5.17002e-05
8.65606e-05
5.32356e-05
6.83851e-05
5.4513e-05
5.01443e-05
5.46725e-05
3.20107e-05
5.43425e-05
1.41327e-05
5.36151e-05
-3.43162e-06
5.26296e-05
-2.04231e-05
5.09377e-05
-3.67593e-05
4.89645e-05
-5.23123e-05
4.66294e-05
-6.70012e-05
4.40337e-05
-8.0748e-05
4.1195e-05
-9.34786e-05
3.81768e-05
-0.000105174
3.5083e-05
-0.000115823
3.19518e-05
-0.000125406
2.87386e-05
-0.000133942
2.55962e-05
-0.000141432
2.24587e-05
-0.000147893
1.93603e-05
-0.000153423
1.65408e-05
-0.000157987
1.37091e-05
-0.000161711
1.12179e-05
-0.000164626
8.82401e-06
-0.000166771
6.43522e-06
-0.00016821
4.3218e-06
-0.00016896
2.25955e-06
-0.000169052
3.0166e-07
-0.0001686
-1.37027e-06
-0.000167488
-3.40635e-06
-0.000165803
-4.98317e-06
-0.000163502
-6.90062e-06
-0.000160703
-8.39516e-06
-0.000157265
-1.02316e-05
-0.000153357
-1.17987e-05
-0.000148799
-1.36757e-05
-0.000143743
-1.51952e-05
-0.000138065
-1.70064e-05
-0.000131794
-1.87973e-05
-0.000124915
-2.06594e-05
-0.000117421
-2.24745e-05
-0.000109276
-2.44523e-05
-0.000100466
-2.63602e-05
-9.10428e-05
-2.83395e-05
-8.08991e-05
-3.04113e-05
-7.01598e-05
-3.22431e-05
-5.8694e-05
-3.43673e-05
-4.65436e-05
-3.64614e-05
-3.37823e-05
-3.82859e-05
-2.03309e-05
-4.03723e-05
-6.32326e-06
-4.19812e-05
8.25116e-06
-4.36929e-05
2.32803e-05
-4.50795e-05
3.87005e-05
-4.62281e-05
5.44083e-05
-4.71331e-05
7.02238e-05
-4.73989e-05
8.60543e-05
-4.74716e-05
0.000101696
-4.68994e-05
0.000116928
-4.56222e-05
0.000131577
-4.39164e-05
0.000145437
-4.1536e-05
0.000158248
-3.83886e-05
0.00016985
-3.47325e-05
0.00017996
-3.03491e-05
0.000188447
-2.53825e-05
0.00019507
-1.98418e-05
0.000199701
-1.38763e-05
0.000202225
-7.56646e-06
0.00020257
-1.02097e-06
0.000200714
5.57525e-06
0.000196568
1.23837e-05
0.000190328
1.86665e-05
0.000182038
2.48706e-05
0.000171848
3.0545e-05
0.00015996
3.56755e-05
0.000146487
4.03212e-05
0.000131783
4.40924e-05
0.000115961
4.7408e-05
9.94084e-05
4.95993e-05
8.23224e-05
5.11652e-05
6.49274e-05
5.21852e-05
4.75524e-05
5.20804e-05
3.03141e-05
5.16834e-05
1.34733e-05
5.04972e-05
-2.8514e-06
4.8941e-05
-1.85331e-05
4.69908e-05
-3.34438e-05
4.46573e-05
-4.74844e-05
4.21766e-05
-6.06049e-05
3.93192e-05
-7.27532e-05
3.64665e-05
-8.4006e-05
3.37871e-05
-9.4298e-05
3.08612e-05
-0.000103672
2.81408e-05
-0.000112192
2.54989e-05
-0.000119897
2.31871e-05
-0.000126802
2.07142e-05
-0.000132989
1.8571e-05
-0.000138509
1.65539e-05
-0.000143357
1.45444e-05
-0.00014759
1.27063e-05
-0.000151233
1.09397e-05
-0.000154274
9.15055e-06
-0.00015678
7.50591e-06
-0.000158752
5.91001e-06
-0.000160151
4.29066e-06
-0.00016115
2.89964e-06
-0.000161538
1.19073e-06
-0.000161575
1.11231e-07
-0.000161048
-1.56361e-06
-0.000160064
-2.96549e-06
-0.000158611
-4.34373e-06
-0.000156664
-5.86137e-06
-0.000154261
-7.20366e-06
-0.000151405
-8.56527e-06
-0.0001481
-9.90123e-06
-0.000144331
-1.13203e-05
-0.000140076
-1.27683e-05
-0.000135312
-1.4307e-05
-0.000129955
-1.60804e-05
-0.000124027
-1.77961e-05
-0.00011743
-1.98255e-05
-0.000110125
-2.19129e-05
-0.000102039
-2.42753e-05
-9.31427e-05
-2.66841e-05
-8.33622e-05
-2.9377e-05
-7.26946e-05
-3.1981e-05
-6.10885e-05
-3.48904e-05
-4.86163e-05
-3.73343e-05
-3.52334e-05
-4.0131e-05
-2.09884e-05
-4.28006e-05
-5.9651e-06
-4.49883e-05
9.73124e-06
-4.70613e-05
2.60016e-05
-4.87742e-05
4.26822e-05
-4.99898e-05
5.95972e-05
-5.07206e-05
7.65578e-05
-5.08313e-05
9.34019e-05
-5.0472e-05
0.000109931
-4.95675e-05
0.000125974
-4.81059e-05
0.000141248
-4.57545e-05
0.000155595
-4.29901e-05
0.000168731
-3.93677e-05
0.000180346
-3.48068e-05
0.000190301
-2.98044e-05
0.000198332
-2.40521e-05
0.000204235
-1.76947e-05
0.000207977
-1.11936e-05
0.000209397
-4.21311e-06
0.000208492
2.73955e-06
0.000205115
1.00437e-05
0.00019941
1.71169e-05
0.000191474
2.37178e-05
0.000181496
2.99481e-05
0.000169611
3.56183e-05
0.000156011
4.07507e-05
0.000141048
4.48181e-05
0.00012499
4.81147e-05
0.000108109
5.05395e-05
9.06871e-05
5.22008e-05
7.29832e-05
5.30997e-05
5.52348e-05
5.32101e-05
3.7693e-05
5.26088e-05
2.04579e-05
5.16424e-05
3.75058e-06
5.01132e-05
-1.23959e-05
4.83955e-05
-2.77949e-05
4.61889e-05
-4.24205e-05
4.38719e-05
-5.61995e-05
4.13388e-05
-6.91197e-05
3.87643e-05
-8.11858e-05
3.6206e-05
-9.23908e-05
3.35873e-05
-0.000102729
3.10138e-05
-0.000112235
2.85112e-05
-0.000120897
2.60087e-05
-0.000128759
2.35764e-05
-0.000135865
2.1237e-05
-0.000142181
1.90517e-05
-0.000147826
1.70075e-05
-0.000152797
1.4853e-05
-0.000157063
1.2796e-05
-0.000160636
1.07181e-05
-0.000163569
8.77381e-06
-0.000165838
6.839e-06
-0.000167459
4.86167e-06
-0.000168365
2.72166e-06
-0.000168617
8.11445e-07
-0.000168207
-1.22422e-06
-0.000166983
-3.63623e-06
-0.000165194
-5.35299e-06
-0.000162597
-7.8441e-06
-0.000159369
-9.60888e-06
-0.00015524
-1.2432e-05
-0.000150438
-1.43812e-05
-0.000144883
-1.66473e-05
-0.000138359
-1.95648e-05
-0.000130969
-2.21673e-05
-0.000122699
-2.48391e-05
-0.000113347
-2.80481e-05
-0.000102995
-3.10553e-05
-9.14571e-05
-3.46025e-05
-7.88663e-05
-3.7772e-05
-6.5242e-05
-4.08685e-05
-5.05939e-05
-4.39373e-05
-3.49362e-05
-4.69388e-05
-1.85575e-05
-4.9116e-05
-1.33393e-06
-5.16486e-05
1.64289e-05
-5.32566e-05
3.47568e-05
-5.49524e-05
5.35947e-05
-5.64737e-05
7.2578e-05
-5.68942e-05
9.15908e-05
-5.70072e-05
0.000110515
-5.67178e-05
0.000128903
-5.51107e-05
0.000146627
-5.31045e-05
0.00016338
-5.02499e-05
0.000178845
-4.63303e-05
0.000192792
-4.17628e-05
0.000204833
-3.60785e-05
0.000214833
-2.99474e-05
0.000222594
-2.32435e-05
0.000227835
-1.56954e-05
0.000230602
-8.28953e-06
0.000230724
-3.89409e-07
0.000228058
7.95246e-06
0.00022287
1.55681e-05
0.00021524
2.28632e-05
0.00020544
2.935e-05
0.000193782
3.4935e-05
0.000180258
4.05116e-05
0.000165408
4.44962e-05
0.000149333
4.81694e-05
0.00013247
5.05012e-05
0.000114927
5.26227e-05
9.71363e-05
5.3291e-05
7.92751e-05
5.35615e-05
6.14357e-05
5.34804e-05
4.39846e-05
5.23017e-05
2.6941e-05
5.11295e-05
1.03617e-05
4.97059e-05
-5.4624e-06
4.74597e-05
-2.06226e-05
4.54628e-05
-3.5058e-05
4.32953e-05
-4.87051e-05
4.09327e-05
-6.15727e-05
3.85953e-05
-7.36306e-05
3.6166e-05
-8.48693e-05
3.3711e-05
-9.53042e-05
3.13019e-05
-0.000104917
2.88419e-05
-0.000113719
2.64031e-05
-0.000121708
2.39599e-05
-0.000128864
2.1468e-05
-0.000135167
1.89075e-05
-0.000140614
1.6332e-05
-0.000145193
1.37326e-05
-0.000148904
1.11287e-05
-0.000151725
8.45358e-06
-0.000153636
5.72197e-06
-0.000154641
3.02381e-06
-0.000154671
1.00647e-07
-0.000153701
-2.89263e-06
-0.00015178
-5.75835e-06
-0.000148845
-8.80291e-06
-0.000144998
-1.15392e-05
-0.000140266
-1.4194e-05
-0.000134458
-1.74264e-05
-0.000127748
-2.01259e-05
-0.000120133
-2.28402e-05
-0.000111505
-2.58741e-05
-0.00010203
-2.84216e-05
-9.15809e-05
-3.13396e-05
-8.03533e-05
-3.36764e-05
-6.83511e-05
-3.59977e-05
-5.53981e-05
-3.88507e-05
-4.16688e-05
-4.11771e-05
-4.34269e-05
0.000208798
2.43212e-05
0.000200821
3.18298e-05
0.000190688
4.04372e-05
0.000178484
4.8704e-05
0.00016471
5.49629e-05
0.000149352
6.13235e-05
0.000132795
6.60434e-05
0.00011523
7.0124e-05
9.68723e-05
7.32864e-05
7.81885e-05
7.45548e-05
5.92785e-05
7.55708e-05
4.03851e-05
7.55533e-05
2.17467e-05
7.43016e-05
3.65441e-06
7.221e-05
-1.40024e-05
7.06248e-05
-3.09561e-05
6.77663e-05
-4.70663e-05
6.43992e-05
-6.22714e-05
6.0779e-05
-7.65537e-05
5.70978e-05
-8.98504e-05
5.31666e-05
-0.000102156
4.9207e-05
-0.000113493
4.53408e-05
-0.000123846
4.14175e-05
-0.000133235
3.75612e-05
-0.000141699
3.38547e-05
-0.000149238
3.01667e-05
-0.000155924
2.67555e-05
-0.00016176
2.33558e-05
-0.000166785
2.0101e-05
-0.000171035
1.69876e-05
-0.000174512
1.39297e-05
-0.000177259
1.0989e-05
-0.000179306
8.19185e-06
-0.000180656
5.40603e-06
-0.000181299
2.64649e-06
-0.000181245
-1.82733e-07
-0.000180457
-3.08625e-06
-0.00017897
-5.94807e-06
-0.000176792
-8.72486e-06
-0.000173821
-1.1927e-05
-0.000170074
-1.49898e-05
-0.000165453
-1.85142e-05
-0.000160069
-2.156e-05
-0.000153911
-2.46461e-05
-0.000146707
-2.88042e-05
-0.000138659
-3.22332e-05
-0.000129824
-3.52993e-05
-0.000119829
-4.00097e-05
-0.000108955
-4.35035e-05
-9.72012e-05
-4.69897e-05
-8.43973e-05
-5.12204e-05
-7.07841e-05
-5.44651e-05
-5.62175e-05
-5.82201e-05
-4.07022e-05
-6.19714e-05
-2.45799e-05
-6.4459e-05
-7.72972e-06
-6.73407e-05
9.66293e-06
-6.94974e-05
2.73649e-05
-7.07311e-05
4.53992e-05
-7.20548e-05
6.3452e-05
-7.21336e-05
8.14473e-05
-7.1877e-05
9.92644e-05
-7.11275e-05
0.00011643
-6.85696e-05
0.000132875
-6.57013e-05
0.000148426
-6.20754e-05
0.000162743
-5.71896e-05
0.000175784
-5.20633e-05
0.000187226
-4.56685e-05
0.000196972
-3.89194e-05
0.00020495
-3.18224e-05
0.000210886
-2.36727e-05
0.000214673
-1.51398e-05
0.000216343
-6.59252e-06
0.000215741
2.32428e-06
0.000212853
1.16755e-05
0.00020784
2.00458e-05
0.000200661
2.86352e-05
0.000191503
3.65211e-05
0.000180531
4.3722e-05
0.000167777
5.09836e-05
0.000153601
5.65548e-05
0.000138203
6.14708e-05
0.000121652
6.60224e-05
0.000104371
6.8982e-05
8.65523e-05
7.10539e-05
6.83632e-05
7.27021e-05
5.00862e-05
7.29496e-05
3.19193e-05
7.25094e-05
1.4029e-05
7.15055e-05
-3.58037e-06
7.0239e-05
-2.05874e-05
6.79447e-05
-3.69454e-05
6.53225e-05
-5.25181e-05
6.22022e-05
-6.72266e-05
5.87422e-05
-8.09929e-05
5.49613e-05
-9.37265e-05
5.09105e-05
-0.000105424
4.67808e-05
-0.000116074
4.26016e-05
-0.000125659
3.8323e-05
-0.000134197
3.41343e-05
-0.00014169
2.99515e-05
-0.000148167
2.58379e-05
-0.000153698
2.20719e-05