/*--------------------------------*- C++ -*----------------------------------*\
| =========                 |                                                 |
| \\      /  F ield         | OpenFOAM: The Open Source CFD Toolbox           |
|  \\    /   O peration     | Version:  3.0.1                                 |
|   \\  /    A nd           | Web:      www.OpenFOAM.org                      |
|    \\/     M anipulation  |                                                 |
\*---------------------------------------------------------------------------*/
FoamFile
{
    version     2.0;
    format      ascii;
    class       volScalarField;
    location    "77.6";
    object      p;
}
// * * * * * * * * * * * * * * * * * * * * * * * * * * * * * * * * * * * * * //

dimensions      [1 -1 -2 0 0 0 0];

internalField   nonuniform List<scalar> 
21420
(
3536.22
3541.41
3548.14
3556.43
3566.32
3577.86
3591.12
3606.16
3623.02
3641.74
3662.33
3684.81
3709.15
3735.32
3763.27
3792.88
3824.05
3856.59
3890.22
3924.03
3959.11
3994.45
4029.61
4064.22
4097.83
4130.02
4160.36
4188.39
4213.76
4236.09
4255.06
4270.4
4281.9
4289.4
4292.76
4291.92
4286.92
4277.88
4264.89
4248.17
4227.97
4204.61
4178.39
4149.69
4118.94
4086.54
4052.88
4018.41
3983.53
3948.63
3914.21
3880.91
3848.21
3816.48
3786.03
3757.03
3729.65
3703.99
3680.12
3658.08
3637.89
3619.56
3603.07
3588.41
3575.55
3564.46
3555.11
3547.49
3541.57
3537.31
3534.74
3533.83
3534.59
3536.96
3540.95
3546.57
3553.82
3562.68
3573.17
3585.25
3598.93
3614.2
3631.04
3649.44
3669.39
3690.86
3713.83
3738.28
3764.14
3791.37
3819.89
3849.58
3880.3
3911.93
3944.17
3976.8
4009.54
4042.08
4074.06
4105.12
4134.88
4162.95
4188.97
4212.54
4233.34
4251.03
4265.33
4275.98
4282.79
4285.57
4284.28
4278.88
4269.42
4255.96
4238.71
4217.89
4193.83
4166.86
4137.4
4105.88
4072.75
4038.48
4003.53
3968.35
3933.34
3898.91
3865.38
3833.05
3802.16
3772.92
3745.48
3719.95
3696.4
3674.86
3655.34
3637.83
3622.28
3608.62
3596.79
3586.7
3578.26
3571.4
3566.03
3562.09
3559.49
3558.19
3558.17
3559.38
3561.79
3565.4
3570.24
3576.32
3583.67
3592.32
3602.33
3613.73
3626.58
3640.92
3656.78
3674.2
3693.2
3713.79
3735.98
3759.74
3785.03
3811.78
3839.9
3869.25
3899.66
3930.97
3962.88
3995.14
4027.42
4059.38
4090.64
4120.81
4149.48
4176.22
4200.64
4222.35
4240.99
4256.23
4267.81
4275.52
4279.2
4278.75
4274.2
4265.63
4253.12
4236.89
4217.19
4194.35
4168.71
4140.69
4110.69
4079.17
4046.55
4013.29
3979.79
3946.45
3913.62
3881.61
3850.69
3821.1
3793.02
3766.6
3741.95
3719.12
3698.13
3678.96
3661.55
3645.85
3631.8
3619.32
3608.35
3598.85
3590.77
3584.08
3578.75
3574.75
3572.06
3570.67
3570.56
3571.71
3574.08
3577.69
3582.51
3588.56
3595.83
3604.34
3614.12
3625.17
3637.53
3651.21
3666.25
3682.65
3700.44
3719.62
3740.17
3762.08
3785.33
3809.89
3835.68
3862.62
3890.6
3919.48
3949.07
3979.16
4009.49
4039.77
4069.7
4098.91
4127.04
4153.69
4178.45
4200.94
4220.79
4237.65
4251.2
4261.18
4267.39
4269.63
4267.91
4262.16
4252.49
4239.01
4221.97
4201.63
4178.33
4152.48
4124.48
4094.78
4063.84
4032.1
3999.99
3967.96
3936.67
3905.89
3876.05
3847.37
3820.05
3794.23
3770
3747.42
3726.51
3707.28
3689.72
3673.79
3659.46
3646.69
3635.43
3625.63
3617.21
3610.11
3604.26
3599.56
3595.97
3593.39
3591.81
3591.17
3591.45
3592.64
3594.74
3597.77
3601.79
3606.84
3612.99
3620.33
3628.94
3638.92
3650.37
3663.37
3677.99
3694.31
3712.34
3732.11
3753.59
3776.72
3801.42
3827.56
3854.97
3883.41
3912.65
3942.5
3972.66
4002.77
4032.5
4061.53
4089.5
4116.05
4140.87
4163.66
4184.1
4201.96
4217.02
4229.11
4238.09
4243.89
4246.36
4245.16
4240.73
4233.24
4222.75
4209.47
4193.61
4175.39
4155.08
4132.93
4109.23
4084.25
4058.27
4031.58
4004.44
3977.18
3950.25
3924.45
3903.75
3438.06
3443.25
3449.98
3458.27
3468.15
3479.69
3492.95
3507.99
3524.85
3543.56
3564.15
3586.62
3610.97
3637.14
3665.09
3694.7
3725.88
3758.42
3792.07
3825.88
3860.98
3896.33
3931.51
3966.13
3999.76
4031.97
4062.32
4090.38
4115.76
4138.11
4157.1
4172.45
4183.96
4191.46
4194.83
4193.98
4188.97
4179.93
4166.93
4150.2
4129.98
4106.6
4080.37
4051.65
4020.88
3988.46
3954.78
3920.3
3885.4
3850.49
3816.06
3782.76
3750.04
3718.31
3687.85
3658.85
3631.47
3605.8
3581.93
3559.9
3539.71
3521.38
3504.9
3490.24
3477.37
3466.29
3456.94
3449.32
3443.4
3439.15
3436.57
3435.67
3436.43
3438.8
3442.78
3448.4
3455.65
3464.51
3475
3487.09
3500.76
3516.03
3532.87
3551.28
3571.22
3592.69
3615.66
3640.1
3665.97
3693.2
3721.72
3751.42
3782.15
3813.78
3846.02
3878.67
3911.42
3943.97
3975.97
4007.04
4036.82
4064.91
4090.94
4114.54
4135.35
4153.05
4167.36
4178.03
4184.84
4187.63
4186.34
4180.93
4171.46
4158
4140.73
4119.9
4095.82
4068.84
4039.35
4007.81
3974.66
3940.38
3905.41
3870.21
3835.19
3800.75
3767.21
3734.87
3703.97
3674.73
3647.29
3621.76
3598.2
3576.67
3557.15
3539.64
3524.09
3510.44
3498.61
3488.52
3480.1
3473.24
3467.87
3463.93
3461.33
3460.03
3460.02
3461.23
3463.63
3467.25
3472.09
3478.17
3485.51
3494.16
3504.17
3515.57
3528.42
3542.75
3558.61
3576.02
3595.02
3615.62
3637.8
3661.57
3686.86
3713.61
3741.73
3771.08
3801.51
3832.82
3864.74
3897.01
3929.3
3961.28
3992.56
4022.75
4051.43
4078.19
4102.63
4124.36
4143.01
4158.27
4169.86
4177.58
4181.26
4180.8
4176.25
4167.68
4155.16
4138.91
4119.2
4096.34
4070.69
4042.64
4012.63
3981.08
3948.45
3915.17
3881.66
3848.31
3815.46
3783.44
3752.52
3722.92
3694.84
3668.42
3643.77
3620.94
3599.95
3580.78
3563.37
3547.68
3533.63
3521.15
3510.19
3500.68
3492.61
3485.92
3480.59
3476.6
3473.91
3472.51
3472.41
3473.55
3475.93
3479.53
3484.36
3490.4
3497.68
3506.19
3515.96
3527.01
3539.37
3553.05
3568.09
3584.49
3602.28
3621.45
3642
3663.92
3687.17
3711.72
3737.52
3764.46
3792.45
3821.33
3850.93
3881.03
3911.37
3941.66
3971.6
4000.84
4028.98
4055.64
4080.43
4102.94
4122.8
4139.67
4153.23
4163.23
4169.44
4171.69
4169.96
4164.21
4154.53
4141.04
4123.99
4103.63
4080.32
4054.45
4026.43
3996.71
3965.75
3933.99
3901.87
3869.82
3838.52
3807.74
3777.89
3749.2
3721.88
3696.06
3671.83
3649.25
3628.34
3609.11
3591.55
3575.62
3561.3
3548.53
3537.28
3527.48
3519.06
3511.96
3506.11
3501.42
3497.83
3495.26
3493.67
3493.04
3493.32
3494.5
3496.6
3499.63
3503.65
3508.7
3514.84
3522.18
3530.78
3540.76
3552.21
3565.2
3579.82
3596.13
3614.17
3633.93
3655.41
3678.55
3703.25
3729.4
3756.81
3785.26
3814.5
3844.37
3874.54
3904.66
3934.41
3963.45
3991.43
4018
4042.84
4065.64
4086.09
4103.96
4119.03
4131.13
4140.12
4145.92
4148.4
4147.19
4142.75
4135.25
4124.76
4111.47
4095.59
4077.36
4057.04
4034.88
4011.16
3986.17
3960.19
3933.49
3906.34
3879.06
3852.13
3826.31
3805.62
3339.84
3345.03
3351.75
3360.04
3369.91
3381.45
3394.7
3409.74
3426.59
3445.3
3465.88
3488.36
3512.7
3538.87
3566.82
3596.45
3627.63
3660.19
3693.86
3727.67
3762.8
3798.19
3833.4
3868.05
3901.72
3933.97
3964.36
3992.45
4017.87
4040.26
4059.27
4074.64
4086.16
4093.68
4097.07
4096.2
4091.19
4082.13
4069.11
4052.35
4032.11
4008.69
3982.42
3953.67
3922.87
3890.4
3856.7
3822.18
3787.25
3752.3
3717.87
3684.54
3651.81
3620.06
3589.59
3560.59
3533.2
3507.54
3483.67
3461.63
3441.45
3423.12
3406.64
3391.99
3379.13
3368.05
3358.7
3351.09
3345.16
3340.91
3338.34
3337.44
3338.2
3340.57
3344.55
3350.17
3357.42
3366.28
3376.77
3388.85
3402.53
3417.79
3434.64
3453.04
3472.99
3494.45
3517.42
3541.87
3567.73
3594.97
3623.49
3653.19
3683.93
3715.58
3747.84
3780.51
3813.29
3845.86
3877.89
3909
3938.81
3966.94
3993
4016.63
4037.47
4055.2
4069.54
4080.22
4087.05
4089.86
4088.55
4083.14
4073.66
4060.18
4042.89
4022.03
3997.91
3970.89
3941.36
3909.78
3876.59
3842.27
3807.27
3772.03
3736.98
3702.52
3668.96
3636.6
3605.7
3576.45
3549.01
3523.47
3499.92
3478.39
3458.88
3441.37
3425.83
3412.18
3400.36
3390.29
3381.87
3375.01
3369.65
3365.72
3363.12
3361.83
3361.82
3363.03
3365.43
3369.05
3373.88
3379.96
3387.3
3395.95
3405.95
3417.35
3430.19
3444.52
3460.37
3477.78
3496.78
3517.37
3539.56
3563.32
3588.61
3615.37
3643.49
3672.86
3703.3
3734.62
3766.57
3798.86
3831.18
3863.19
3894.5
3924.72
3953.44
3980.24
4004.71
4026.47
4045.16
4060.44
4072.05
4079.79
4083.49
4083.02
4078.46
4069.88
4057.34
4041.06
4021.32
3998.42
3972.73
3944.65
3914.6
3883.02
3850.35
3817.03
3783.49
3750.11
3717.25
3685.21
3654.27
3624.66
3596.57
3570.15
3545.5
3522.67
3501.69
3482.52
3465.13
3449.44
3435.4
3422.92
3411.96
3402.47
3394.39
3387.71
3382.38
3378.39
3375.7
3374.31
3374.21
3375.35
3377.73
3381.33
3386.16
3392.2
3399.47
3407.98
3417.75
3428.8
3441.16
3454.84
3469.87
3486.27
3504.05
3523.22
3543.77
3565.69
3588.94
3613.5
3639.29
3666.25
3694.24
3723.14
3752.75
3782.87
3813.23
3843.55
3873.52
3902.78
3930.96
3957.66
3982.48
4005.02
4024.92
4041.82
4055.41
4065.42
4071.65
4073.92
4072.17
4066.42
4056.72
4043.21
4026.13
4005.74
3982.39
3956.48
3928.42
3898.67
3867.67
3835.88
3803.73
3771.65
3740.33
3709.53
3679.67
3650.97
3623.64
3597.82
3573.59
3551.01
3530.1
3510.87
3493.31
3477.39
3463.07
3450.31
3439.06
3429.27
3420.86
3413.76
3407.92
3403.24
3399.65
3397.08
3395.5
3394.87
3395.14
3396.33
3398.43
3401.46
3405.47
3410.51
3416.65
3423.97
3432.57
3442.54
3453.98
3466.97
3481.58
3497.89
3515.92
3535.68
3557.16
3580.3
3605.01
3631.17
3658.59
3687.05
3716.32
3746.21
3776.4
3806.55
3836.32
3865.39
3893.41
3920
3944.87
3967.7
3988.18
4006.07
4021.16
4033.27
4042.27
4048.07
4050.59
4049.33
4044.9
4037.38
4026.87
4013.56
3997.66
3979.4
3959.06
3936.88
3913.13
3888.12
3862.11
3835.39
3808.22
3780.92
3753.97
3728.14
3707.45
3241.57
3246.75
3253.47
3261.74
3271.61
3283.14
3296.38
3311.41
3328.25
3346.95
3367.53
3390
3414.35
3440.52
3468.47
3498.11
3529.3
3561.89
3595.6
3629.4
3664.59
3700.02
3735.28
3769.99
3803.71
3836.02
3866.47
3894.61
3920.09
3942.52
3961.57
3976.98
3988.53
3996.06
3999.46
3998.59
3993.56
3984.48
3971.43
3954.63
3934.35
3910.88
3884.56
3855.75
3824.89
3792.37
3758.61
3724.04
3689.07
3654.08
3619.63
3586.27
3553.51
3521.74
3491.26
3462.25
3434.85
3409.19
3385.32
3363.28
3343.11
3324.79
3308.31
3293.66
3280.81
3269.73
3260.4
3252.78
3246.86
3242.62
3240.04
3239.15
3239.9
3242.27
3246.26
3251.88
3259.13
3267.99
3278.47
3290.56
3304.23
3319.49
3336.34
3354.73
3374.68
3396.15
3419.11
3443.56
3469.43
3496.66
3525.19
3554.91
3585.66
3617.33
3649.62
3682.32
3715.13
3747.75
3779.83
3810.98
3840.84
3869.02
3895.14
3918.81
3939.7
3957.48
3971.85
3982.56
3989.42
3992.25
3990.92
3985.51
3976.01
3962.5
3945.17
3924.27
3900.09
3873.01
3843.43
3811.79
3778.54
3744.16
3709.1
3673.82
3638.73
3604.23
3570.64
3538.26
3507.35
3478.09
3450.63
3425.1
3401.55
3380.02
3360.52
3343.02
3327.49
3313.86
3302.05
3291.98
3283.57
3276.73
3271.38
3267.45
3264.86
3263.58
3263.57
3264.78
3267.19
3270.8
3275.63
3281.7
3289.04
3297.68
3307.67
3319.06
3331.9
3346.22
3362.07
3379.47
3398.46
3419.05
3441.24
3465
3490.29
3517.06
3545.19
3574.57
3605.03
3636.38
3668.35
3700.68
3733.04
3765.1
3796.46
3826.73
3855.51
3882.36
3906.89
3928.7
3947.43
3962.75
3974.4
3982.15
3985.87
3985.4
3980.83
3972.22
3959.65
3943.34
3923.55
3900.6
3874.86
3846.72
3816.61
3784.97
3752.25
3718.88
3685.3
3651.88
3618.98
3586.92
3555.95
3526.33
3498.22
3471.8
3447.14
3424.32
3403.35
3384.19
3366.8
3351.13
3337.1
3324.63
3313.68
3304.19
3296.12
3289.44
3284.12
3280.13
3277.44
3276.06
3275.95
3277.1
3279.48
3283.08
3287.91
3293.95
3301.22
3309.73
3319.49
3330.54
3342.89
3356.56
3371.59
3387.99
3405.77
3424.94
3445.49
3467.4
3490.66
3515.21
3541.02
3567.98
3595.99
3624.9
3654.53
3684.68
3715.07
3745.43
3775.44
3804.75
3832.98
3859.73
3884.6
3907.2
3927.14
3944.09
3957.72
3967.76
3974.01
3976.3
3974.53
3968.77
3959.05
3945.51
3928.39
3907.95
3884.55
3858.58
3830.46
3800.65
3769.6
3737.76
3705.56
3673.45
3642.1
3611.27
3581.39
3552.68
3525.34
3499.51
3475.27
3452.69
3431.79
3412.56
3395.01
3379.09
3364.78
3352.02
3340.78
3331
3322.6
3315.52
3309.68
3305.01
3301.42
3298.87
3297.29
3296.66
3296.94
3298.12
3300.22
3303.24
3307.25
3312.28
3318.41
3325.72
3334.31
3344.27
3355.69
3368.67
3383.27
3399.57
3417.59
3437.35
3458.84
3481.98
3506.7
3532.87
3560.31
3588.8
3618.09
3648.01
3678.24
3708.43
3738.24
3767.36
3795.41
3822.06
3846.97
3869.84
3890.35
3908.28
3923.4
3935.52
3944.54
3950.35
3952.9
3951.61
3947.16
3939.62
3929.09
3915.74
3899.81
3881.52
3861.14
3838.92
3815.14
3790.09
3764.05
3737.3
3710.09
3682.77
3655.79
3629.93
3609.24
3143.23
3148.4
3155.12
3163.38
3173.24
3184.76
3197.99
3213
3229.84
3248.53
3269.1
3291.57
3315.91
3342.09
3370.04
3399.69
3430.9
3463.52
3497.29
3531.08
3566.34
3601.84
3637.16
3671.94
3705.73
3738.11
3768.64
3796.86
3822.41
3844.9
3864.01
3879.47
3891.05
3898.6
3902.01
3901.15
3896.1
3886.98
3873.89
3857.04
3836.69
3813.16
3786.77
3757.89
3726.95
3694.36
3660.53
3625.9
3590.87
3555.82
3521.33
3487.94
3455.15
3423.35
3392.85
3363.82
3336.42
3310.75
3286.88
3264.85
3244.68
3226.37
3209.91
3195.26
3182.42
3171.35
3162.02
3154.41
3148.5
3144.25
3141.68
3140.8
3141.54
3143.91
3147.9
3153.52
3160.77
3169.63
3180.11
3192.19
3205.86
3221.12
3237.97
3256.36
3276.31
3297.77
3320.74
3345.18
3371.05
3398.29
3426.83
3456.56
3487.34
3519.03
3551.36
3584.1
3616.97
3649.64
3681.77
3712.99
3742.92
3771.17
3797.35
3821.1
3842.05
3859.88
3874.3
3885.06
3891.94
3894.79
3893.47
3888.04
3878.52
3864.97
3847.59
3826.62
3802.37
3775.22
3745.55
3713.83
3680.5
3646.04
3610.92
3575.57
3540.43
3505.88
3472.25
3439.85
3408.91
3379.63
3352.17
3326.63
3303.09
3281.56
3262.07
3244.59
3229.07
3215.45
3203.66
3193.61
3185.21
3178.39
3173.05
3169.13
3166.55
3165.28
3165.27
3166.48
3168.89
3172.5
3177.33
3183.39
3190.72
3199.36
3209.34
3220.72
3233.55
3247.86
3263.7
3281.09
3300.08
3320.66
3342.84
3366.61
3391.91
3418.68
3446.83
3476.23
3506.71
3538.09
3570.11
3602.48
3634.9
3667.01
3698.44
3728.79
3757.63
3784.56
3809.16
3831.04
3849.83
3865.21
3876.9
3884.68
3888.41
3887.95
3883.36
3874.72
3862.11
3845.75
3825.9
3802.88
3777.06
3748.84
3718.65
3686.94
3654.15
3620.72
3587.07
3553.6
3520.66
3488.56
3457.56
3427.91
3399.8
3373.36
3348.71
3325.89
3304.92
3285.78
3268.41
3252.75
3238.73
3226.28
3215.34
3205.86
3197.8
3191.12
3185.8
3181.82
3179.14
3177.75
3177.65
3178.8
3181.18
3184.79
3189.61
3195.65
3202.92
3211.42
3221.18
3232.22
3244.56
3258.23
3273.25
3289.65
3307.42
3326.59
3347.14
3369.05
3392.31
3416.87
3442.68
3469.65
3497.68
3526.61
3556.28
3586.46
3616.9
3647.31
3677.37
3706.75
3735.04
3761.86
3786.8
3809.47
3829.48
3846.48
3860.16
3870.25
3876.52
3878.83
3877.06
3871.29
3861.53
3847.95
3830.77
3810.26
3786.79
3760.75
3732.55
3702.66
3671.54
3639.63
3607.38
3575.22
3543.82
3512.96
3483.05
3454.32
3426.96
3401.12
3376.88
3354.31
3333.4
3314.18
3296.63
3280.73
3266.42
3253.68
3242.45
3232.68
3224.29
3217.22
3211.4
3206.73
3203.16
3200.62
3199.05
3198.42
3198.7
3199.88
3201.97
3204.99
3208.98
3214
3220.12
3227.42
3235.99
3245.93
3257.34
3270.3
3284.89
3301.17
3319.19
3338.95
3360.43
3383.58
3408.32
3434.51
3461.97
3490.49
3519.82
3549.78
3580.06
3610.3
3640.17
3669.34
3697.46
3724.16
3749.14
3772.06
3792.62
3810.59
3825.75
3837.9
3846.93
3852.76
3855.32
3854.02
3849.55
3841.98
3831.41
3818.03
3802.05
3783.71
3763.28
3741.01
3717.18
3692.09
3666
3639.2
3611.96
3584.6
3557.58
3531.69
3510.99
3044.83
3050
3056.7
3064.96
3074.8
3086.31
3099.52
3114.52
3131.35
3150.02
3170.59
3193.05
3217.39
3243.57
3271.53
3301.19
3332.43
3365.08
3398.91
3432.71
3468.06
3503.63
3539.03
3573.89
3607.78
3640.26
3670.88
3699.2
3724.83
3747.41
3766.58
3782.1
3793.73
3801.3
3804.72
3803.86
3798.79
3789.63
3776.49
3759.58
3739.16
3715.54
3689.06
3660.09
3629.06
3596.38
3562.46
3527.74
3492.63
3457.52
3423
3389.55
3356.71
3324.89
3294.36
3265.32
3237.91
3212.23
3188.37
3166.34
3146.18
3127.88
3111.42
3096.79
3083.96
3072.9
3063.58
3055.97
3050.06
3045.82
3043.26
3042.37
3043.12
3045.49
3049.48
3055.1
3062.34
3071.2
3081.68
3093.76
3107.43
3122.69
3139.53
3157.92
3177.86
3199.33
3222.29
3246.73
3272.6
3299.85
3328.4
3358.15
3388.96
3420.68
3453.05
3485.85
3518.78
3551.52
3583.73
3615.04
3645.05
3673.38
3699.65
3723.48
3744.51
3762.41
3776.9
3787.7
3794.61
3797.48
3796.18
3790.74
3781.18
3767.58
3750.13
3729.09
3704.75
3677.5
3647.73
3615.91
3582.48
3547.92
3512.71
3477.29
3442.07
3407.47
3373.79
3341.35
3310.38
3281.09
3253.62
3228.08
3204.53
3183.02
3163.54
3146.07
3130.57
3116.97
3105.2
3095.17
3086.8
3079.99
3074.67
3070.76
3068.19
3066.93
3066.92
3068.14
3070.55
3074.16
3078.98
3085.04
3092.36
3100.98
3110.95
3122.32
3135.13
3149.43
3165.26
3182.65
3201.62
3222.2
3244.38
3268.14
3293.45
3320.23
3348.4
3377.82
3408.34
3439.76
3471.82
3504.26
3536.74
3568.93
3600.44
3630.88
3659.81
3686.83
3711.53
3733.49
3752.36
3767.8
3779.54
3787.36
3791.11
3790.66
3786.06
3777.38
3764.71
3748.29
3728.36
3705.25
3679.34
3651.02
3620.74
3588.93
3556.05
3522.53
3488.81
3455.28
3422.28
3390.13
3359.1
3329.42
3301.29
3274.84
3250.19
3227.38
3206.42
3187.3
3169.95
3154.31
3140.3
3127.87
3116.94
3107.47
3099.41
3092.74
3087.43
3083.45
3080.78
3079.4
3079.3
3080.45
3082.84
3086.44
3091.26
3097.3
3104.56
3113.06
3122.81
3133.85
3146.18
3159.84
3174.86
3191.25
3209.02
3228.18
3248.72
3270.64
3293.89
3318.46
3344.28
3371.27
3399.32
3428.28
3457.99
3488.22
3518.7
3549.18
3579.32
3608.77
3637.15
3664.05
3689.08
3711.84
3731.93
3749.01
3762.75
3772.88
3779.19
3781.52
3779.75
3773.95
3764.16
3750.52
3733.27
3712.68
3689.12
3662.98
3634.69
3604.7
3573.49
3541.5
3509.18
3476.95
3445.49
3414.59
3384.65
3355.89
3328.52
3302.67
3278.43
3255.85
3234.95
3215.73
3198.19
3182.29
3168
3155.27
3144.06
3134.3
3125.93
3118.87
3113.07
3108.42
3104.86
3102.33
3100.77
3100.14
3100.42
3101.6
3103.69
3106.7
3110.68
3115.69
3121.78
3129.06
3137.61
3147.53
3158.92
3171.86
3186.43
3202.71
3220.72
3240.47
3261.96
3285.12
3309.86
3336.08
3363.57
3392.13
3421.5
3451.52
3481.85
3512.16
3542.1
3571.35
3599.54
3626.32
3651.37
3674.36
3694.98
3713.01
3728.21
3740.4
3749.45
3755.29
3757.87
3756.56
3752.06
3744.45
3733.83
3720.4
3704.37
3685.98
3665.49
3643.15
3619.26
3594.11
3567.96
3541.11
3513.82
3486.41
3459.34
3433.41
3412.71
2946.38
2951.54
2958.23
2966.47
2976.3
2987.79
3000.99
3015.97
3032.77
3051.44
3071.99
3094.45
3118.79
3144.96
3172.94
3202.61
3233.87
3266.58
3300.49
3334.29
3369.74
3405.4
3440.89
3475.86
3509.85
3542.45
3573.19
3601.62
3627.36
3650.03
3669.3
3684.88
3696.56
3704.17
3707.6
3706.74
3701.65
3692.44
3679.23
3662.25
3641.73
3618.01
3591.43
3562.34
3531.2
3498.41
3464.39
3429.57
3394.37
3359.18
3324.61
3291.1
3258.21
3226.35
3195.8
3166.73
3139.31
3113.63
3089.76
3067.75
3047.59
3029.3
3012.86
2998.24
2985.42
2974.37
2965.06
2957.47
2951.56
2947.33
2944.77
2943.89
2944.63
2947
2950.99
2956.61
2963.85
2972.71
2983.19
2995.27
3008.93
3024.19
3041.03
3059.42
3079.35
3100.81
3123.78
3148.21
3174.09
3201.35
3229.91
3259.68
3290.52
3322.28
3354.71
3387.57
3420.57
3453.4
3485.7
3517.11
3547.22
3575.66
3602.03
3625.96
3647.08
3665.07
3679.63
3690.49
3697.45
3700.34
3699.05
3693.59
3683.99
3670.33
3652.81
3631.67
3607.23
3579.86
3549.97
3518.02
3484.47
3449.8
3414.48
3378.97
3343.67
3308.99
3275.26
3242.77
3211.77
3182.46
3154.98
3129.43
3105.89
3084.39
3064.92
3047.47
3031.99
3018.42
3006.67
2996.66
2988.31
2981.53
2976.22
2972.33
2969.78
2968.53
2968.53
2969.74
2972.16
2975.76
2980.58
2986.63
2993.94
3002.55
3012.51
3023.86
3036.66
3050.94
3066.76
3084.13
3103.1
3123.67
3145.84
3169.61
3194.92
3221.71
3249.9
3279.35
3309.91
3341.37
3373.5
3406.01
3438.58
3470.86
3502.47
3533.01
3562.05
3589.18
3613.98
3636.05
3655.01
3670.54
3682.34
3690.21
3693.97
3693.53
3688.91
3680.18
3667.46
3650.95
3630.93
3607.72
3581.69
3553.26
3522.86
3490.94
3457.95
3424.33
3390.52
3356.91
3323.85
3291.64
3260.57
3230.85
3202.7
3176.24
3151.59
3128.78
3107.84
3088.74
3071.41
3055.79
3041.81
3029.39
3018.48
3009.02
3000.98
2994.32
2989.01
2985.04
2982.37
2981
2980.9
2982.06
2984.44
2988.05
2992.87
2998.9
3006.16
3014.65
3024.4
3035.42
3047.74
3061.4
3076.4
3092.78
3110.55
3129.71
3150.25
3172.16
3195.42
3219.99
3245.82
3272.83
3300.91
3329.91
3359.65
3389.94
3420.49
3451.04
3481.26
3510.81
3539.29
3566.3
3591.44
3614.3
3634.49
3651.65
3665.47
3675.67
3682.02
3684.36
3682.6
3676.78
3666.94
3653.23
3635.89
3615.21
3591.54
3565.28
3536.87
3506.77
3475.45
3443.36
3410.95
3378.65
3347.12
3316.17
3286.19
3257.4
3230.01
3204.14
3179.89
3157.31
3136.42
3117.21
3099.68
3083.79
3069.52
3056.8
3045.6
3035.87
3027.51
3020.48
3014.69
3010.06
3006.52
3004
3002.45
3001.83
3002.11
3003.29
3005.38
3008.37
3012.34
3017.32
3023.4
3030.66
3039.18
3049.08
3060.44
3073.36
3087.91
3104.16
3122.16
3141.91
3163.4
3186.57
3211.34
3237.58
3265.12
3293.72
3323.14
3353.22
3383.63
3414.02
3444.04
3473.38
3501.66
3528.53
3553.66
3576.73
3597.44
3615.53
3630.78
3643.02
3652.1
3657.95
3660.54
3659.21
3654.68
3647.03
3636.37
3622.88
3606.78
3588.31
3567.75
3545.34
3521.38
3496.15
3469.93
3443.02
3415.67
3388.2
3361.08
3335.09
3314.39
2847.87
2853.01
2859.69
2867.92
2877.73
2889.2
2902.38
2917.34
2934.12
2952.77
2973.31
2995.76
3020.1
3046.28
3074.26
3103.95
3135.24
3168
3202
3235.81
3271.38
3307.15
3342.75
3377.84
3411.96
3444.69
3475.56
3504.13
3529.99
3552.78
3572.14
3587.8
3599.55
3607.2
3610.64
3609.79
3604.66
3595.4
3582.11
3565.04
3544.42
3520.58
3493.87
3464.66
3433.39
3400.47
3366.32
3331.39
3296.09
3260.8
3226.17
3192.59
3159.65
3127.74
3097.15
3068.06
3040.63
3014.94
2991.08
2969.07
2948.93
2930.65
2914.22
2899.62
2886.81
2875.78
2866.48
2858.89
2852.99
2848.77
2846.22
2845.33
2846.08
2848.45
2852.44
2858.06
2865.3
2874.15
2884.63
2896.7
2910.36
2925.62
2942.45
2960.84
2980.77
3002.23
3025.19
3049.63
3075.51
3102.77
3131.35
3161.14
3192.02
3223.83
3256.32
3289.26
3322.35
3355.28
3387.69
3419.2
3449.44
3478
3504.49
3528.53
3549.77
3567.86
3582.5
3593.44
3600.45
3603.37
3602.09
3596.61
3586.96
3573.23
3555.62
3534.37
3509.8
3482.3
3452.27
3420.17
3386.48
3351.68
3316.24
3280.61
3245.21
3210.45
3176.65
3144.11
3113.08
3083.74
3056.24
3030.7
3007.16
2985.67
2966.22
2948.79
2933.34
2919.79
2908.07
2898.09
2889.77
2883.01
2877.73
2873.85
2871.32
2870.08
2870.09
2871.31
2873.72
2877.32
2882.13
2888.17
2895.46
2904.06
2914
2925.34
2938.12
2952.39
2968.19
2985.55
3004.5
3025.06
3047.23
3071
3096.32
3123.13
3151.34
3180.82
3211.42
3242.95
3275.15
3307.73
3340.4
3372.78
3404.51
3435.17
3464.35
3491.61
3516.54
3538.73
3557.8
3573.42
3585.3
3593.21
3597
3596.56
3591.92
3583.14
3570.35
3553.74
3533.61
3510.28
3484.12
3455.55
3425.02
3392.96
3359.84
3326.11
3292.2
3258.5
3225.35
3193.08
3161.96
3132.21
3104.02
3077.55
3052.9
3030.11
3009.18
2990.1
2972.8
2957.21
2943.25
2930.85
2919.96
2910.52
2902.49
2895.83
2890.54
2886.57
2883.91
2882.54
2882.45
2883.61
2886
2889.61
2894.43
2900.46
2907.71
2916.19
2925.93
2936.94
2949.25
2962.9
2977.89
2994.26
3012.03
3031.18
3051.72
3073.63
3096.89
3121.46
3147.31
3174.34
3202.44
3231.48
3261.28
3291.63
3322.26
3352.9
3383.22
3412.88
3441.47
3468.61
3493.87
3516.85
3537.16
3554.42
3568.33
3578.6
3585
3587.37
3585.61
3579.75
3569.86
3556.08
3538.64
3517.84
3494.04
3467.65
3439.1
3408.87
3377.41
3345.21
3312.7
3280.32
3248.71
3217.69
3187.66
3158.84
3131.42
3105.55
3081.29
3058.71
3037.82
3018.62
3001.1
2985.23
2970.97
2958.27
2947.09
2937.38
2929.05
2922.04
2916.27
2911.66
2908.14
2905.63
2904.1
2903.48
2903.77
2904.94
2907.02
2910.01
2913.95
2918.92
2924.97
2932.2
2940.7
2950.56
2961.9
2974.79
2989.31
3005.55
3023.54
3043.28
3064.77
3087.95
3112.74
3139.02
3166.59
3195.25
3224.74
3254.89
3285.39
3315.87
3345.99
3375.43
3403.82
3430.79
3456.02
3479.19
3499.99
3518.15
3533.47
3545.75
3554.87
3560.74
3563.33
3561.99
3557.43
3549.73
3539.01
3525.45
3509.27
3490.72
3470.07
3447.58
3423.52
3398.22
3371.92
3344.93
3317.51
3289.97
3262.79
3236.74
3216.03
2749.3
2754.43
2761.09
2769.3
2779.09
2790.53
2803.69
2818.63
2835.39
2854.02
2874.55
2896.99
2921.32
2947.5
2975.49
3005.2
3036.53
3069.34
3103.45
3137.28
3172.99
3208.87
3244.6
3279.83
3314.09
3346.98
3378.01
3406.72
3432.73
3455.65
3475.12
3490.88
3502.69
3510.39
3513.85
3512.99
3507.84
3498.51
3485.14
3467.96
3447.22
3423.25
3396.39
3367.03
3335.61
3302.54
3268.26
3233.2
3197.77
3162.38
3127.68
3094.02
3061.01
3029.05
2998.42
2969.31
2941.86
2916.17
2892.31
2870.31
2850.18
2831.91
2815.51
2800.92
2788.13
2777.11
2767.82
2760.25
2754.36
2750.14
2747.6
2746.72
2747.46
2749.83
2753.82
2759.44
2766.68
2775.53
2786
2798.07
2811.73
2826.99
2843.81
2862.2
2882.13
2903.58
2926.54
2950.97
2976.85
3004.13
3032.72
3062.55
3093.46
3125.33
3157.89
3190.92
3224.11
3257.15
3289.68
3321.33
3351.7
3380.4
3407.03
3431.21
3452.57
3470.77
3485.52
3496.53
3503.6
3506.55
3505.29
3499.78
3490.08
3476.28
3458.56
3437.18
3412.48
3384.81
3354.62
3322.36
3288.51
3253.55
3217.97
3182.21
3146.7
3111.85
3077.97
3045.37
3014.3
2984.93
2957.42
2931.87
2908.34
2886.86
2867.43
2850.03
2834.6
2821.09
2809.4
2799.45
2791.16
2784.43
2779.17
2775.32
2772.81
2771.58
2771.6
2772.82
2775.23
2778.83
2783.64
2789.66
2796.94
2805.52
2815.44
2826.76
2839.52
2853.77
2869.55
2886.9
2905.84
2926.39
2948.55
2972.31
2997.64
3024.47
3052.71
3082.23
3112.88
3144.47
3176.75
3209.43
3242.2
3274.71
3306.57
3337.38
3366.7
3394.11
3419.19
3441.51
3460.71
3476.44
3488.4
3496.37
3500.19
3499.76
3495.09
3486.26
3473.38
3456.67
3436.41
3412.93
3386.63
3357.9
3327.21
3295
3261.74
3227.88
3193.84
3160.04
3126.8
3094.46
3063.27
3033.48
3005.27
2978.78
2954.13
2931.34
2910.44
2891.39
2874.12
2858.55
2844.63
2832.26
2821.38
2811.96
2803.94
2797.3
2792.01
2788.05
2785.4
2784.04
2783.95
2785.12
2787.51
2791.12
2795.94
2801.96
2809.2
2817.68
2827.4
2838.41
2850.71
2864.34
2879.32
2895.68
2913.44
2932.58
2953.12
2975.03
2998.29
3022.87
3048.73
3075.78
3103.93
3133.01
3162.87
3193.3
3224.01
3254.74
3285.18
3314.96
3343.7
3370.98
3396.38
3419.5
3439.93
3457.32
3471.33
3481.68
3488.14
3490.53
3488.78
3482.89
3472.93
3459.06
3441.5
3420.58
3396.63
3370.08
3341.38
3310.99
3279.39
3247.05
3214.42
3181.95
3150.24
3119.16
3089.07
3060.21
3032.77
3006.88
2982.61
2960.03
2939.15
2919.96
2902.45
2886.6
2872.35
2859.68
2848.53
2838.83
2830.53
2823.54
2817.8
2813.21
2809.71
2807.23
2805.71
2805.1
2805.39
2806.56
2808.63
2811.6
2815.53
2820.47
2826.49
2833.69
2842.16
2851.99
2863.29
2876.15
2890.64
2906.86
2924.83
2944.57
2966.07
2989.26
3014.08
3040.39
3068.01
3096.73
3126.29
3156.53
3187.12
3217.71
3247.94
3277.5
3306.01
3333.1
3358.45
3381.73
3402.63
3420.88
3436.27
3448.61
3457.77
3463.65
3466.25
3464.9
3460.3
3452.54
3441.75
3428.12
3411.85
3393.2
3372.45
3349.86
3325.71
3300.3
3273.92
3246.84
3219.34
3191.72
3164.47
3138.34
3117.64
2650.67
2655.78
2662.43
2670.62
2680.38
2691.8
2704.93
2719.84
2736.58
2755.19
2775.71
2798.14
2822.46
2848.65
2876.65
2906.38
2937.74
2970.61
3004.84
3038.71
3074.56
3110.57
3146.44
3181.82
3216.26
3249.31
3280.52
3309.41
3335.57
3358.64
3378.24
3394.1
3405.99
3413.74
3417.23
3416.36
3411.17
3401.77
3388.31
3371.01
3350.13
3326.01
3298.99
3269.46
3237.87
3204.64
3170.2
3134.99
3099.43
3063.91
3029.14
2995.39
2962.31
2930.29
2899.62
2870.48
2843.01
2817.32
2793.46
2771.46
2751.35
2733.1
2716.71
2702.15
2689.38
2678.37
2669.1
2661.54
2655.66
2651.45
2648.91
2648.03
2648.78
2651.15
2655.14
2660.76
2667.99
2676.85
2687.31
2699.38
2713.03
2728.28
2745.11
2763.49
2783.41
2804.86
2827.81
2852.25
2878.13
2905.41
2934.03
2963.88
2994.85
3026.77
3059.42
3092.55
3125.85
3159.02
3191.69
3223.48
3254.01
3282.86
3309.65
3333.98
3355.48
3373.82
3388.68
3399.78
3406.92
3409.91
3408.65
3403.12
3393.36
3379.47
3361.63
3340.12
3315.24
3287.4
3257.03
3224.58
3190.55
3155.42
3119.67
3083.77
3048.14
3013.18
2979.22
2946.55
2915.43
2886.03
2858.5
2832.95
2809.42
2787.96
2768.55
2751.18
2735.79
2722.31
2710.66
2700.75
2692.49
2685.79
2680.56
2676.74
2674.24
2673.03
2673.06
2674.29
2676.7
2680.3
2685.09
2691.1
2698.36
2706.92
2716.83
2728.12
2740.86
2755.09
2770.85
2788.18
2807.1
2827.64
2849.79
2873.56
2898.89
2925.74
2954.01
2983.58
3014.29
3045.94
3078.32
3111.11
3144
3176.65
3208.66
3239.62
3269.11
3296.69
3321.93
3344.41
3363.75
3379.6
3391.66
3399.7
3403.55
3403.13
3398.43
3389.52
3376.55
3359.72
3339.32
3315.69
3289.21
3260.31
3229.44
3197.06
3163.64
3129.62
3095.45
3061.53
3028.2
2995.77
2964.52
2934.67
2906.43
2879.93
2855.27
2832.5
2811.62
2792.6
2775.36
2759.83
2745.94
2733.6
2722.75
2713.34
2705.33
2698.71
2693.43
2689.48
2686.84
2685.49
2685.41
2686.57
2688.97
2692.58
2697.4
2703.42
2710.65
2719.12
2728.83
2739.82
2752.11
2765.72
2780.69
2797.04
2814.79
2833.93
2854.46
2876.36
2899.63
2924.22
2950.09
2977.17
3005.36
3034.5
3064.42
3094.93
3125.74
3156.58
3187.15
3217.08
3245.96
3273.4
3298.96
3322.24
3342.82
3360.35
3374.47
3384.91
3391.43
3393.86
3392.11
3386.18
3376.15
3362.18
3344.49
3323.42
3299.31
3272.58
3243.7
3213.14
3181.37
3148.88
3116.12
3083.54
3051.73
3020.58
2990.43
2961.52
2934.05
2908.14
2883.86
2861.28
2840.4
2821.23
2803.74
2787.9
2773.68
2761.03
2749.9
2740.23
2731.96
2725
2719.28
2714.73
2711.25
2708.79
2707.28
2706.69
2706.97
2708.15
2710.21
2713.16
2717.07
2721.98
2727.97
2735.14
2743.56
2753.35
2764.61
2777.44
2791.9
2808.1
2826.05
2845.78
2867.28
2890.49
2915.34
2941.69
2969.37
2998.16
3027.8
3058.13
3088.83
3119.54
3149.9
3179.59
3208.24
3235.46
3260.95
3284.36
3305.36
3323.72
3339.19
3351.59
3360.79
3366.69
3369.3
3367.93
3363.29
3355.47
3344.6
3330.88
3314.51
3295.76
3274.89
3252.19
3227.93
3202.42
3175.93
3148.75
3121.16
3093.46
3066.12
3039.91
3019.21
2551.98
2557.08
2563.7
2571.87
2581.61
2593
2606.1
2620.98
2637.69
2656.28
2676.78
2699.19
2723.51
2749.7
2777.71
2807.47
2838.87
2871.81
2906.13
2940.1
2976.1
3012.25
3048.28
3083.83
3118.45
3151.7
3183.1
3212.18
3238.52
3261.75
3281.5
3297.48
3309.46
3317.26
3320.77
3319.9
3314.67
3305.19
3291.62
3274.19
3253.16
3228.87
3201.67
3171.95
3140.17
3106.76
3072.14
3036.77
3001.05
2965.41
2930.55
2896.69
2863.53
2831.45
2800.73
2771.56
2744.07
2718.37
2694.52
2672.54
2652.44
2634.21
2617.84
2603.3
2590.55
2579.57
2570.31
2562.76
2556.89
2552.69
2550.16
2549.29
2550.03
2552.4
2556.39
2562.01
2569.25
2578.09
2588.56
2600.62
2614.27
2629.52
2646.33
2664.71
2684.63
2706.07
2729.02
2753.45
2779.34
2806.63
2835.27
2865.16
2896.17
2928.17
2960.91
2994.14
3027.57
3060.88
3093.71
3125.66
3156.36
3185.39
3212.35
3236.85
3258.51
3276.99
3291.98
3303.19
3310.39
3313.43
3312.18
3306.63
3296.8
3282.81
3264.84
3243.17
3218.11
3190.07
3159.49
3126.84
3092.6
3057.28
3021.35
2985.29
2949.52
2914.44
2880.39