/*--------------------------------*- C++ -*----------------------------------*\
| =========                 |                                                 |
| \\      /  F ield         | OpenFOAM: The Open Source CFD Toolbox           |
|  \\    /   O peration     | Version:  3.0.1                                 |
|   \\  /    A nd           | Web:      www.OpenFOAM.org                      |
|    \\/     M anipulation  |                                                 |
\*---------------------------------------------------------------------------*/
FoamFile
{
    version     2.0;
    format      ascii;
    class       surfaceScalarField;
    location    "81.2";
    object      phi;
}
// * * * * * * * * * * * * * * * * * * * * * * * * * * * * * * * * * * * * * //

dimensions      [0 3 -1 0 0 0 0];

internalField   nonuniform List<scalar> 
42423
(
-5.40361e-05
-1.44949e-05
-3.83146e-05
-1.57216e-05
-2.1581e-05
-1.67338e-05
-4.04394e-06
-1.75371e-05
1.43412e-05
-1.83853e-05
3.30899e-05
-1.87488e-05
5.2305e-05
-1.92152e-05
7.15605e-05
-1.92556e-05
9.05355e-05
-1.89751e-05
0.000109165
-1.86292e-05
0.000127104
-1.79393e-05
0.00014404
-1.6936e-05
0.00015978
-1.57402e-05
0.000173977
-1.41978e-05
0.000186431
-1.24532e-05
0.000196966
-1.05359e-05
0.00020525
-8.28328e-06
0.000211168
-5.91823e-06
0.000214669
-3.5013e-06
0.000215627
-9.58205e-07
0.000214046
1.58158e-06
0.000209839
4.2064e-06
0.000203113
6.72579e-06
0.000194089
9.02386e-06
0.000182882
1.12073e-05
0.000169907
1.29751e-05
0.000155183
1.47237e-05
0.000138929
1.62542e-05
0.000121644
1.72854e-05
0.000103415
1.82282e-05
8.44825e-05
1.89328e-05
6.5273e-05
1.92095e-05
4.59295e-05
1.93435e-05
2.66549e-05
1.92747e-05
7.64889e-06
1.9006e-05
-1.08295e-05
1.84783e-05
-2.87042e-05
1.78748e-05
-4.58698e-05
1.71656e-05
-6.21819e-05
1.63121e-05
-7.75939e-05
1.5412e-05
-9.20509e-05
1.4457e-05
-0.000105509
1.3458e-05
-0.000117972
1.24629e-05
-0.000129436
1.1464e-05
-0.000139899
1.04634e-05
-0.00014939
9.49077e-06
-0.000157943
8.55299e-06
-0.000165559
7.61593e-06
-0.000172276
6.7174e-06
-0.0001781
5.82358e-06
-0.000183075
4.97521e-06
-0.000187229
4.15373e-06
-0.000190548
3.31908e-06
-0.000193113
2.5652e-06
-0.00019486
1.74724e-06
-0.000195866
1.00572e-06
-0.000196145
2.79468e-07
-0.000195558
-5.87518e-07
-0.000194093
-1.46467e-06
-0.000191877
-2.21633e-06
-0.000188781
-3.09602e-06
-0.000184886
-3.89481e-06
-0.000180196
-4.68988e-06
-0.000174585
-5.61166e-06
-0.000168121
-6.46374e-06
-0.000160858
-7.26249e-06
-0.000152616
-8.2428e-06
-0.000143488
-9.12722e-06
-0.000133402
-1.00867e-05
-0.000122422
-1.09796e-05
-0.000110544
-1.18777e-05
-9.78103e-05
-1.27342e-05
-8.42372e-05
-1.35732e-05
-6.99177e-05
-1.43195e-05
-5.47364e-05
-1.51813e-05
-3.89961e-05
-1.57403e-05
-2.25723e-05
-1.6424e-05
-5.47509e-06
-1.70972e-05
1.18932e-05
-1.73684e-05
2.96843e-05
-1.77912e-05
4.7641e-05
-1.79568e-05
6.56652e-05
-1.80243e-05
8.35948e-05
-1.79297e-05
0.000101281
-1.76863e-05
0.00011856
-1.72791e-05
0.000135129
-1.65693e-05
0.000150881
-1.57517e-05
0.000165518
-1.46375e-05
0.000178695
-1.31771e-05
0.000190151
-1.14555e-05
0.000199622
-9.47107e-06
0.000206845
-7.22352e-06
0.000211687
-4.84141e-06
0.000214049
-2.36253e-06
0.000213928
1.21004e-07
0.000211262
2.66641e-06
0.000206067
5.19432e-06
0.000198504
7.56334e-06
0.000188696
9.80795e-06
0.000176811
1.18844e-05
0.000163039
1.3772e-05
0.000147597
1.54428e-05
0.000130681
1.69154e-05
0.000112608
1.80735e-05
9.36257e-05
1.89819e-05
7.40437e-05
1.9582e-05
5.41539e-05
1.98898e-05
3.42274e-05
1.99265e-05
1.44968e-05
1.97306e-05
-4.78432e-06
1.92811e-05
-2.34318e-05
1.86474e-05
-4.12487e-05
1.78169e-05
-5.8115e-05
1.68663e-05
-7.39484e-05
1.58334e-05
-8.87634e-05
1.4815e-05
-0.00010238
1.36168e-05
-0.000114857
1.24772e-05
-0.000126223
1.13656e-05
-0.000136453
1.02305e-05
-0.000145585
9.13185e-06
-0.000153697
8.112e-06
-0.000160761
7.06344e-06
-0.000166834
6.07322e-06
-0.000171992
5.15776e-06
-0.000176283
4.29094e-06
-0.000179747
3.46447e-06
-0.000182366
2.61848e-06
-0.000184302
1.93631e-06
-0.000185479
1.17686e-06
-0.000185983
5.04668e-07
-0.000185891
-9.27104e-08
-0.000185151
-7.39693e-07
-0.000183789
-1.36181e-06
-0.000181786
-2.00315e-06
-0.000179257
-2.52963e-06
-0.000176118
-3.13823e-06
-0.000172276
-3.8425e-06
-0.000167956
-4.32005e-06
-0.000162931
-5.02479e-06
-0.00015722
-5.71059e-06
-0.000150808
-6.41213e-06
-0.00014361
-7.19826e-06
-0.000135696
-7.91372e-06
-0.000126931
-8.76514e-06
-0.000117287
-9.64417e-06
-0.000106793
-1.04938e-05
-9.53875e-05
-1.14059e-05
-8.30861e-05
-1.23015e-05
-6.99308e-05
-1.31553e-05
-5.58756e-05
-1.40553e-05
-4.11201e-05
-1.47556e-05
-2.56154e-05
-1.55048e-05
-9.40603e-06
-1.62094e-05
7.26492e-06
-1.6671e-05
2.43995e-05
-1.71347e-05
4.18241e-05
-1.74247e-05
5.93217e-05
-1.74977e-05
7.67271e-05
-1.74055e-05
9.38204e-05
-1.70934e-05
0.000110328
-1.65075e-05
0.000126063
-1.57352e-05
0.000140739
-1.46759e-05
0.000154076
-1.3337e-05
0.00016587
-1.17944e-05
0.000175855
-9.98511e-06
0.000183867
-8.01162e-06
0.000189715
-5.84856e-06
0.000193216
-3.50063e-06
0.000194344
-1.12877e-06
0.000193063
1.28146e-06
0.000189302
3.76096e-06
0.000183124
6.17786e-06
0.000174714
8.41006e-06
0.000164236
1.04783e-05
0.000151828
1.24075e-05
0.000137779
1.40494e-05
0.000122299
1.54798e-05
0.000105662
1.66362e-05
8.8172e-05
1.74905e-05
7.01081e-05
1.80638e-05
5.17153e-05
1.83928e-05
3.32666e-05
1.84487e-05
1.49523e-05
1.83144e-05
-3.01764e-06
1.79699e-05
-2.04946e-05
1.74769e-05
-3.73215e-05
1.68269e-05
-5.34006e-05
1.60792e-05
-6.86599e-05
1.52592e-05
-8.30419e-05
1.43821e-05
-9.64787e-05
1.34368e-05
-0.00010892
1.24413e-05
-0.000120335
1.14154e-05
-0.0001307
1.03647e-05
-0.000139996
9.29609e-06
-0.000148316
8.32035e-06
-0.000155638
7.32168e-06
-0.000162041
6.40297e-06
-0.000167645
5.60413e-06
-0.000172467
4.82219e-06
-0.00017662
4.1528e-06
-0.000180104
3.48374e-06
-0.00018307
2.96571e-06
-0.00018534
2.27037e-06
-0.000186969
1.62903e-06
-0.000187981
1.01206e-06
-0.00018827
2.88494e-07
-0.00018783
-4.39345e-07
-0.000186776
-1.05435e-06
-0.000184995
-1.78056e-06
-0.000182535
-2.45994e-06
-0.000179551
-2.98478e-06
-0.000175942
-3.60842e-06
-0.000171744
-4.19835e-06
-0.000166954
-4.79013e-06
-0.000161606
-5.34782e-06
-0.000155571
-6.03495e-06
-0.000148953
-6.61843e-06
-0.000141576
-7.37644e-06
-0.000133443
-8.13307e-06
-0.000124562
-8.88115e-06
-0.000114881
-9.68117e-06
-0.000104441
-1.04402e-05
-9.32201e-05
-1.12207e-05
-8.12044e-05
-1.20157e-05
-6.84954e-05
-1.2709e-05
-5.50289e-05
-1.34666e-05
-4.08944e-05
-1.41345e-05
-2.60276e-05
-1.48668e-05
-1.06284e-05
-1.53993e-05
5.31686e-06
-1.59453e-05
2.17092e-05
-1.63924e-05
3.83689e-05
-1.66597e-05
5.51192e-05
-1.67504e-05
7.1747e-05
-1.66278e-05
8.80429e-05
-1.6296e-05
0.000103736
-1.56928e-05
0.000118623
-1.48875e-05
0.000132406
-1.37825e-05
0.000144876
-1.24708e-05
0.000155746
-1.08696e-05
0.00016478
-9.03428e-06
0.000171822
-7.04181e-06
0.000176648
-4.82671e-06
0.000179183
-2.53447e-06
0.000179323
-1.40474e-07
0.000177049
2.27384e-06
0.000172325
4.72428e-06
0.000165294
7.03124e-06
0.000156006
9.28733e-06
0.000144741
1.12655e-05
0.000131652
1.30889e-05
0.000117003
1.46486e-05
0.000101027
1.59764e-05
8.40209e-05
1.70061e-05
6.62661e-05
1.77549e-05
4.80376e-05
1.82285e-05
2.96164e-05
1.84211e-05
1.12867e-05
1.83297e-05
-6.80044e-06
1.80871e-05
-2.43472e-05
1.75467e-05
-4.12439e-05
1.68967e-05
-5.73254e-05
1.60815e-05
-7.24893e-05
1.51639e-05
-8.66956e-05
1.42063e-05
-9.98716e-05
1.3176e-05
-0.00011202
1.2148e-05
-0.000123165
1.11453e-05
-0.000133252
1.00873e-05
-0.000142343
9.09054e-06
-0.000150486
8.14318e-06
-0.000157558
7.07185e-06
-0.000163765
6.20757e-06
-0.000169085
5.31964e-06
-0.000173394
4.30928e-06
-0.000176933
3.53869e-06
-0.000179615
2.6816e-06
-0.0001814
1.78519e-06
-0.00018244
1.04003e-06
-0.000182569
1.29618e-07
-0.000181912
-6.5752e-07
-0.000180409
-1.50261e-06
-0.000177997
-2.41209e-06
-0.000174989
-3.00804e-06
-0.000171327
-3.66257e-06
-0.000167208
-4.11856e-06
-0.000162792
-4.41558e-06
-0.000158099
-4.69381e-06
-0.000153012
-5.08692e-06
-0.000147838
-5.17333e-06
-0.000142253
-5.58575e-06
-0.000136409
-5.8435e-06
-0.00013033
-6.07918e-06
-0.000123776
-6.55399e-06
-0.000116722
-7.05365e-06
-0.000109268
-7.4545e-06
-0.000101016
-8.25153e-06
-9.19005e-05
-9.1159e-06
-8.20549e-05
-9.84568e-06
-7.12689e-05
-1.0786e-05
-5.95315e-05
-1.17375e-05
-4.66729e-05
-1.28586e-05
-3.27931e-05
-1.38798e-05
-1.80404e-05
-1.47527e-05
-2.2293e-06
-1.58111e-05
1.43352e-05
-1.65646e-05
3.14386e-05
-1.71034e-05
4.90872e-05
-1.76486e-05
6.69826e-05
-1.78955e-05
8.49348e-05
-1.79522e-05
0.000102733
-1.77981e-05
0.000119943
-1.721e-05
0.000136349
-1.64064e-05
0.00015172
-1.53712e-05
0.000165732
-1.40113e-05
0.000178151
-1.24193e-05
0.000188746
-1.05954e-05
0.000197433
-8.68689e-06
0.000203921
-6.48841e-06
0.000208153
-4.23153e-06
0.000210156
-2.0028e-06
0.00020976
3.96026e-07
0.000206983
2.77675e-06
0.000201928
5.05458e-06
0.000194848
7.08002e-06
0.000185942
8.90628e-06
0.000175426
1.0516e-05
0.0001634
1.20255e-05
0.00015027
1.31308e-05
0.000136182
1.40872e-05
0.000121408
1.4774e-05
0.00010612
1.52882e-05
9.06061e-05
1.55141e-05
7.49087e-05
1.56973e-05
5.93314e-05
1.55773e-05
4.38697e-05
1.54617e-05
2.87761e-05
1.50935e-05
1.39882e-05
1.4788e-05
-2.77322e-07
1.42655e-05
-1.40581e-05
1.37807e-05
-2.73279e-05
1.32698e-05
-4.00308e-05
1.27029e-05
-5.21224e-05
1.20915e-05
-6.36082e-05
1.14859e-05
-7.44451e-05
1.08369e-05
-8.46525e-05
1.02073e-05
-9.41901e-05
9.5376e-06
-0.000103034
8.84403e-06
-0.000111193
8.15877e-06
-0.000118639
7.4465e-06
-0.000125356
6.71634e-06
-0.000131335
5.97972e-06
-0.000136567
5.23202e-06
-0.000141048
4.48076e-06
-0.000144769
3.72039e-06
-0.000147709
2.94053e-06
-0.000149885
2.17579e-06
1.40402e-06
-5.40726e-05
-2.89909e-05
-3.83481e-05
-3.14463e-05
-2.16143e-05
-3.34678e-05
-4.06888e-06
-3.50828e-05
1.43192e-05
-3.67735e-05
3.30753e-05
-3.75052e-05
5.23046e-05
-3.84447e-05
7.15785e-05
-3.85298e-05
9.05639e-05
-3.79606e-05
0.000109203
-3.72689e-05
0.00012716
-3.58965e-05
0.000144108
-3.38838e-05
0.000159859
-3.14915e-05
0.000174077
-2.84153e-05
0.000186554
-2.49307e-05
0.000197093
-2.10747e-05
0.000205374
-1.65648e-05
0.000211312
-1.18562e-05
0.000214814
-7.00388e-06
0.000215762
-1.90638e-06
0.00021417
3.17387e-06
0.000209958
8.41812e-06
0.000203227
1.34566e-05
0.000194198
1.80531e-05
0.000182979
2.24257e-05
0.000169993
2.5961e-05
0.00015526
2.94572e-05
0.000138992
3.25221e-05
0.000121693
3.45842e-05
0.000103455
3.64661e-05
8.45114e-05
3.78764e-05
6.52869e-05
3.8434e-05
4.59362e-05
3.86942e-05
2.66506e-05
3.85602e-05
7.63359e-06
3.8023e-05
-1.0848e-05
3.69599e-05
-2.87289e-05
3.57557e-05
-4.59013e-05
3.43379e-05
-6.22213e-05
3.2632e-05
-7.76365e-05
3.08272e-05
-9.20952e-05
2.89157e-05
-0.000105559
2.69214e-05
-0.000118027
2.49307e-05
-0.00012949
2.29275e-05
-0.000139955
2.09285e-05
-0.000149451
1.89866e-05
-0.000158002
1.71045e-05
-0.000165616
1.52295e-05
-0.000172339
1.34401e-05
-0.000178171
1.16554e-05
-0.000183141
9.94533e-06
-0.000187296
8.30923e-06
-0.000190629
6.65171e-06
-0.000193197
5.13383e-06
-0.000194939
3.48901e-06
-0.000195936
2.00201e-06
-0.000196215
5.58911e-07
-0.000195628
-1.17404e-06
-0.000194164
-2.9296e-06
-0.000191949
-4.43072e-06
-0.000188857
-6.18838e-06
-0.000184958
-7.79348e-06
-0.000180266
-9.38165e-06
-0.000174655
-1.12227e-05
-0.000168191
-1.29285e-05
-0.00016093
-1.45232e-05
-0.000152683
-1.64896e-05
-0.000143562
-1.82481e-05
-0.000133473
-2.01762e-05
-0.000122489
-2.19637e-05
-0.000110606
-2.3761e-05
-9.7872e-05
-2.54682e-05
-8.42942e-05
-2.71511e-05
-6.99564e-05
-2.86574e-05
-5.47889e-05
-3.03489e-05
-3.90391e-05
-3.14903e-05
-2.25949e-05
-3.28683e-05
-5.51253e-06
-3.41798e-05
1.18688e-05
-3.47499e-05
2.96731e-05
-3.55956e-05
4.76319e-05
-3.59158e-05
6.56669e-05
-3.60594e-05
8.36112e-05
-3.58741e-05
0.000101318
-3.53931e-05
0.000118603
-3.45644e-05
0.000135191
-3.31572e-05
0.000150965
-3.15258e-05
0.000165625
-2.92974e-05
0.000178827
-2.63801e-05
0.000190306
-2.29345e-05
0.000199788
-1.89526e-05
0.00020702
-1.44555e-05
0.000211871
-9.69252e-06
0.00021424
-4.73181e-06
0.000214109
2.51281e-07
0.000211432
5.34344e-06
0.000206232
1.03946e-05
0.000198659
1.51367e-05
0.000188837
1.96296e-05
0.000176933
2.37879e-05
0.000163138
2.75673e-05
0.000147681
3.08993e-05
0.000130746
3.38504e-05
0.000112653
3.61664e-05
9.36532e-05
3.79821e-05
7.40561e-05
3.91791e-05
5.41416e-05
3.98043e-05
3.41925e-05
3.98756e-05
1.44478e-05
3.94752e-05
-4.84098e-06
3.85699e-05
-2.34978e-05
3.73043e-05
-4.13294e-05
3.56484e-05
-5.82129e-05
3.37499e-05
-7.40658e-05
3.16863e-05
-8.88695e-05
2.96187e-05
-0.000102502
2.7249e-05
-0.000114986
2.49611e-05
-0.000126356
2.27362e-05
-0.000136602
2.04759e-05
-0.000145735
1.82651e-05
-0.000153845
1.62216e-05
-0.000160912
1.41308e-05
-0.000166992
1.21537e-05
-0.000172154
1.03189e-05
-0.000176435
8.57284e-06
-0.00017992
6.94887e-06
-0.000182539
5.23783e-06
-0.000184451
3.84791e-06
-0.000185672
2.39798e-06
-0.000186188
1.02106e-06
-0.00018605
-2.31563e-07
-0.000185359
-1.43057e-06
-0.000183999
-2.72156e-06
-0.000182036
-3.96584e-06
-0.000179482
-5.08388e-06
-0.000176346
-6.27395e-06
-0.000172566
-7.62288e-06
-0.000168202
-8.68446e-06
-0.000163174
-1.00519e-05
-0.000157474
-1.14113e-05
-0.000151055
-1.28307e-05
-0.000143864
-1.43897e-05
-0.000135939
-1.5839e-05
-0.000127162
-1.75413e-05
-0.000117524
-1.92824e-05
-0.000107026
-2.09922e-05
-9.55818e-05
-2.28501e-05
-8.33154e-05
-2.4568e-05
-7.01477e-05
-2.63231e-05
-5.60644e-05
-2.81387e-05
-4.13254e-05
-2.94947e-05
-2.58078e-05
-3.10225e-05
-9.6064e-06
-3.24109e-05
7.11043e-06
-3.3388e-05
2.42692e-05
-3.42936e-05
4.17119e-05
-3.48675e-05
5.92238e-05
-3.50097e-05
7.66485e-05
-3.48303e-05
9.37629e-05
-3.4208e-05
0.000110298
-3.30423e-05
0.000126034
-3.14716e-05
0.000140739
-2.93806e-05
0.000154088
-2.6686e-05
0.000165908
-2.36149e-05
0.000175905
-1.99824e-05
0.000183922
-1.60286e-05
0.000189785
-1.1712e-05
0.000193292
-7.00765e-06
0.000194423
-2.25932e-06
0.000193131
2.57277e-06
0.000189386
7.50563e-06
0.000183198
1.2366e-05
0.000174785
1.68232e-05
0.000164274
2.09889e-05
0.000151867
2.48151e-05
0.000137809
2.81067e-05
0.00012232
3.0969e-05
0.000105664
3.32925e-05
8.81644e-05
3.49898e-05
7.00904e-05
3.61378e-05
5.16737e-05
3.68095e-05
3.32069e-05
3.69154e-05
1.48884e-05
3.66329e-05
-3.09182e-06
3.59501e-05
-2.05859e-05
3.4971e-05
-3.74273e-05
3.36684e-05
-5.35151e-05
3.21669e-05
-6.87867e-05
3.05309e-05
-8.31801e-05
2.87755e-05
-9.66254e-05
2.68821e-05
-0.000109071
2.48872e-05
-0.000120476
2.28201e-05
-0.000130871
2.07597e-05
-0.000140176
1.86013e-05
-0.000148494
1.66383e-05
-0.000155823
1.46504e-05
-0.000162238
1.28176e-05
-0.000167836
1.12021e-05
-0.000172665
9.65211e-06
-0.000176827
8.31436e-06
-0.000180351
7.00819e-06
-0.000183282
5.89654e-06
-0.00018556
4.54777e-06
-0.000187202
3.27171e-06
-0.000188202
2.01124e-06
-0.000188504
5.90957e-07
-0.000188109
-8.34433e-07
-0.000187006
-2.15713e-06
-0.000185222
-3.56454e-06
-0.000182767
-4.9151e-06
-0.00017978
-5.97193e-06
-0.000176166
-7.22268e-06
-0.000171975
-8.38942e-06
-0.0001672
-9.56446e-06
-0.000161837
-1.07109e-05
-0.000155823
-1.20495e-05
-0.000149171
-1.327e-05
-0.000141794
-1.47542e-05
-0.000133659
-1.62675e-05
-0.000124762
-1.77788e-05
-0.000115038
-1.94045e-05
-0.000104635
-2.08438e-05
-9.34045e-05
-2.2451e-05
-8.13893e-05
-2.40309e-05
-6.86617e-05
-2.54367e-05
-5.52016e-05
-2.69268e-05
-4.1037e-05
-2.82992e-05
-2.61653e-05
-2.97386e-05
-1.07694e-05
-3.07952e-05
5.19725e-06
-3.19121e-05
2.1606e-05
-3.28012e-05
3.82721e-05
-3.3326e-05
5.50375e-05
-3.35159e-05
7.16858e-05
-3.32763e-05
8.80157e-05
-3.2626e-05
0.000103709
-3.13857e-05
0.000118616
-2.97953e-05
0.000132421
-2.75872e-05
0.000144893
-2.49427e-05
0.000155782
-2.17592e-05
0.000164817
-1.80686e-05
0.000171859
-1.40843e-05
0.000176698
-9.66616e-06
0.000179235
-5.07114e-06
0.000179375
-2.80182e-07
0.000177093
4.55481e-06
0.000172355
9.46251e-06
0.000165307
1.40794e-05
0.000156021
1.85733e-05
0.000144748
2.25385e-05
0.000131653
2.61836e-05
0.000116998
2.93033e-05
0.000101021
3.19537e-05
8.40048e-05
3.40223e-05
6.62372e-05
3.55224e-05
4.80016e-05
3.6464e-05
2.95808e-05
3.6842e-05
1.12237e-05
3.66868e-05
-6.86004e-06
3.61708e-05
-2.44182e-05
3.51049e-05
-4.13176e-05
3.37961e-05
-5.74037e-05
3.21676e-05
-7.25713e-05
3.03315e-05
-8.67812e-05
2.84161e-05
-9.99579e-05
2.63527e-05
-0.000112104
2.42938e-05
-0.000123246
2.22873e-05
-0.000133326
2.01678e-05
-0.000142412
1.81763e-05
-0.000150555
1.62863e-05
-0.000157627
1.41441e-05
-0.000163835
1.24153e-05
-0.000169153
1.06378e-05
-0.000173457
8.61311e-06
-0.000176996
7.07706e-06
-0.000179686
5.37224e-06
-0.000181464
3.56259e-06
-0.000182501
2.0779e-06
-0.000182634
2.62594e-07
-0.000181979
-1.31274e-06
-0.000180471
-3.01044e-06
-0.000178058
-4.82581e-06
-0.000175048
-6.01739e-06
-0.000171381
-7.3304e-06
-0.000167251
-8.24764e-06
-0.000162834
-8.8332e-06
-0.000158142
-9.38567e-06
-0.000153049
-1.01798e-05
-0.000147876
-1.03462e-05
-0.000142289
-1.11726e-05
-0.000136448
-1.16855e-05
-0.000130371
-1.21554e-05
-0.000123822
-1.31037e-05
-0.000116774
-1.41009e-05
-0.000109322
-1.49066e-05
-0.000101075
-1.64991e-05
-9.19543e-05
-1.82364e-05
-8.21168e-05
-1.96833e-05
-7.13319e-05
-2.15709e-05
-5.95874e-05
-2.34821e-05
-4.67317e-05
-2.57143e-05
-3.28495e-05
-2.77621e-05
-1.8083e-05
-2.95193e-05
-2.27564e-06
-3.16185e-05
1.42967e-05
-3.3137e-05
3.14123e-05
-3.42191e-05
4.90728e-05
-3.53092e-05
6.69804e-05
-3.58032e-05
8.49457e-05
-3.59175e-05
0.000102758
-3.56104e-05
0.000119983
-3.44351e-05
0.000136406
-3.28297e-05
0.00015179
-3.07551e-05
0.000165813
-2.80342e-05
0.000178253
-2.48595e-05
0.000188857
-2.11998e-05
0.000197548
-1.7378e-05
0.000204055
-1.29955e-05
0.000208284
-8.46067e-06
0.000210281
-3.9999e-06
0.000209875
8.01802e-07
0.00020709
5.56254e-06
0.000202032
1.01122e-05
0.000194946
1.41661e-05
0.000186029
1.7823e-05
0.000175504
2.10408e-05
0.000163466
2.40636e-05
0.000150326
2.62713e-05
0.000136226
2.81868e-05
0.000121443
2.95568e-05
0.000106144
3.05876e-05
9.06224e-05
3.10353e-05
7.49155e-05
3.14042e-05
5.93331e-05
3.11597e-05
4.38637e-05
3.0931e-05
2.87672e-05
3.019e-05
1.39725e-05
2.95827e-05
-2.93306e-07
2.85312e-05
-1.40761e-05
2.75636e-05
-2.73487e-05
2.65424e-05
-4.00554e-05
2.54096e-05
-5.21491e-05
2.41852e-05
-6.36392e-05
2.2976e-05
-7.44775e-05
2.16752e-05
-8.46852e-05
2.0415e-05
-9.42222e-05
1.90746e-05
-0.000103065
1.76872e-05
-0.000111225
1.63189e-05
-0.000118673
1.48945e-05
-0.000125388
1.34312e-05
-0.000131365
1.19568e-05
-0.000136598
1.04643e-05
-0.00014108
8.96352e-06
-0.000144801
7.44067e-06
-0.000147741
5.88089e-06
-0.000149918
4.35281e-06
2.80539e-06
-5.41431e-05
-4.34913e-05
-3.84122e-05
-4.71774e-05
-2.16787e-05
-5.02015e-05
-4.11729e-06
-5.26444e-05
1.42884e-05
-5.51794e-05
3.30659e-05
-5.62828e-05
5.232e-05
-5.7699e-05
7.16159e-05
-5.78258e-05
9.06267e-05
-5.69715e-05
0.0001093
-5.59424e-05
0.000127281
-5.38774e-05
0.000144247
-5.08498e-05
0.000160027
-4.72717e-05
0.000174271
-4.26594e-05
0.000186757
-3.7417e-05
0.000197313
-3.16315e-05
0.000205616
-2.48672e-05
0.000211551
-1.77915e-05
0.000215053
-1.05065e-05
0.000215997
-2.84968e-06
0.000214367
4.80313e-06
0.000210144
1.26413e-05
0.000203401
2.01995e-05
0.000194364
2.70899e-05
0.000183128
3.36616e-05
0.000170122
3.89667e-05
0.000155375
4.42049e-05
0.000139086
4.88101e-05
0.000121762
5.19088e-05
0.000103508
5.47199e-05
8.45509e-05
5.68334e-05
6.5295e-05
5.76898e-05
4.59326e-05
5.80566e-05
2.66289e-05
5.78639e-05
7.59325e-06
5.70586e-05
-1.08985e-05
5.54516e-05
-2.87914e-05
5.36486e-05
-4.59738e-05
5.15202e-05
-6.23015e-05
4.89598e-05
-7.77235e-05
4.62491e-05
-9.2187e-05
4.33792e-05
-0.000105651
4.03853e-05
-0.000118118
3.73982e-05
-0.000129583
3.43924e-05
-0.000140048
3.1393e-05
-0.000149542
2.84804e-05
-0.000158097
2.56601e-05
-0.00016571
2.28422e-05
-0.000172428
2.01586e-05
-0.000178264
1.74911e-05
-0.000183234
1.49154e-05
-0.000187388
1.24626e-05
-0.00019071
9.97408e-06
-0.000193281
7.70486e-06
-0.000195032
5.23969e-06
-0.000196018
2.98812e-06
-0.000196284
8.24799e-07
-0.000195692
-1.76618e-06
-0.000194227
-4.39407e-06
-0.000192014
-6.64427e-06
-0.000188925
-9.27745e-06
-0.000185025
-1.16932e-05
-0.00018034
-1.4067e-05
-0.000174731
-1.68314e-05
-0.000168261
-1.93985e-05
-0.000161004
-2.178e-05
-0.000152748
-2.47456e-05
-0.00014364
-2.73559e-05
-0.000133547
-3.02695e-05
-0.00012256
-3.29511e-05
-0.000110674
-3.5647e-05
-9.79439e-05
-3.81984e-05
-8.43605e-05
-4.07346e-05
-6.99973e-05
-4.30207e-05
-5.48514e-05
-4.54949e-05
-3.90966e-05
-4.72452e-05
-2.26217e-05
-4.93433e-05
-5.55987e-06
-5.12418e-05
1.18301e-05
-5.21399e-05
2.9648e-05
-5.34138e-05
4.76158e-05
-5.38837e-05
6.56664e-05
-5.41102e-05
8.3617e-05
-5.38248e-05
0.000101352
-5.31287e-05
0.00011865
-5.1862e-05
0.000135255
-4.97624e-05
0.000151051
-4.73223e-05
0.000165747
-4.39932e-05
0.000178968
-3.96015e-05
0.00019047
-3.44359e-05
0.00019997
-2.8453e-05
0.000207217
-2.17024e-05
0.000212075
-1.4551e-05
0.000214446
-7.10275e-06
0.000214288
4.09307e-07
0.000211577
8.05401e-06
0.000206367
1.56047e-05
0.000198773
2.27308e-05
0.000188923
2.94795e-05
0.000176987
3.57233e-05
0.000163164
4.13906e-05
0.000147687
4.63764e-05
0.000130705
5.0832e-05
0.000112581
5.42903e-05
9.35589e-05
5.70045e-05
7.39654e-05
5.87726e-05
5.39889e-05
5.97808e-05
3.40167e-05
5.98478e-05
1.42525e-05
5.92394e-05
-5.05129e-06
5.78738e-05
-2.37273e-05
5.59804e-05
-4.15751e-05
5.34962e-05
-5.84753e-05
5.06501e-05
-7.43609e-05
4.75719e-05
-8.91443e-05
4.44021e-05
-0.000102787
4.08915e-05
-0.000115274
3.74482e-05
-0.000126616
3.40785e-05
-0.000136889
3.0749e-05
-0.000146019
2.73947e-05
-0.00015409
2.42927e-05
-0.000161184
2.12245e-05
-0.000167262
1.82319e-05
-0.000172435
1.54927e-05
-0.000176667
1.28044e-05
-0.000180192
1.0474e-05
-0.000182813
7.85868e-06
-0.000184716
5.75045e-06
-0.000185948
3.62998e-06
-0.00018647
1.5438e-06
-0.000186311
-3.90489e-07
-0.000185621
-2.12108e-06
-0.000184265
-4.07787e-06
-0.000182322
-5.90832e-06
-0.000179773
-7.63312e-06
-0.000176636
-9.4112e-06
-0.000172884
-1.13751e-05
-0.000168499
-1.30688e-05
-0.00016347
-1.5081e-05
-0.000157773
-1.71088e-05
-0.000151353
-1.92511e-05
-0.000144168
-2.15746e-05
-0.000136233
-2.37735e-05
-0.000127441
-2.63338e-05
-0.000117803
-2.89207e-05
-0.000107311
-3.14836e-05
-9.58263e-05
-3.43353e-05
-8.36054e-05
-3.67889e-05
-7.04346e-05
-3.9494e-05
-5.63973e-05
-4.21761e-05
-4.16087e-05
-4.42835e-05
-2.60711e-05
-4.65601e-05
-9.86475e-06
-4.86175e-05
6.87755e-06
-5.01304e-05
2.40565e-05
-5.14727e-05
4.15142e-05
-5.23253e-05
5.90606e-05
-5.25563e-05
7.65072e-05
-5.2277e-05
9.36158e-05
-5.13167e-05
0.00011017
-4.95967e-05
0.000125956
-4.72575e-05
0.000140655
-4.40802e-05
0.00015404
-4.0071e-05
0.000165904
-3.54788e-05
0.000175909
-2.99872e-05
0.000183937
-2.40572e-05
0.000189797
-1.75719e-05
0.000193319
-1.05304e-05
0.000194462
-3.40232e-06
0.000193141
3.89389e-06
0.000189358
1.1289e-05
0.000183199
1.85247e-05
0.00017478
2.52426e-05
0.000164241
3.15278e-05
0.000151831
3.72241e-05
0.000137734
4.2204e-05
0.000122195
4.65082e-05
0.000105546
4.99411e-05
8.8029e-05
5.2507e-05
6.99297e-05
5.4237e-05
5.14935e-05
5.52456e-05
3.30093e-05
5.53996e-05
1.46733e-05
5.4969e-05
-3.30297e-06
5.39264e-05
-2.07918e-05
5.24598e-05
-3.76556e-05
5.05322e-05
-5.3764e-05
4.82754e-05
-6.90556e-05
4.58225e-05
-8.34485e-05
4.31684e-05
-9.69039e-05
4.03375e-05
-0.000109343
3.73267e-05
-0.00012076
3.42362e-05
-0.00013116
3.11603e-05
-0.000140474
2.79153e-05
-0.00014878
2.49445e-05
-0.000156119
2.19895e-05
-0.000162527
1.92247e-05
-0.000168113
1.67883e-05
-0.000172962
1.45009e-05
-0.000177115
1.24676e-05
-0.00018065
1.05438e-05
-0.000183554
8.79976e-06
-0.00018583
6.82425e-06
-0.000187488
4.92912e-06
-0.000188484
3.00763e-06
-0.000188791
8.98094e-07
-0.000188409
-1.21664e-06
-0.000187287
-3.27857e-06
-0.000185493
-5.35897e-06
-0.000183096
-7.31216e-06
-0.000180062
-9.00578e-06
-0.000176444
-1.08404e-05
-0.000172245
-1.25889e-05
-0.000167482
-1.43271e-05
-0.000162109
-1.60846e-05
-0.000156106
-1.8052e-05
-0.000149446
-1.99303e-05
-0.00014205
-2.21497e-05
-0.000133933
-2.43848e-05
-0.000125024
-2.66876e-05
-0.000115299
-2.91301e-05
-0.000104889
-3.12537e-05
-9.36604e-05
-3.36796e-05
-8.16589e-05
-3.60325e-05
-6.8922e-05
-3.81736e-05
-5.5478e-05
-4.03709e-05
-4.13039e-05
-4.24734e-05
-2.64442e-05
-4.45984e-05
-1.10129e-05
-4.62266e-05
4.97571e-06
-4.79008e-05
2.1401e-05
-4.92266e-05
3.80805e-05
-5.00056e-05
5.48669e-05
-5.03023e-05
7.15293e-05
-4.99387e-05
8.7872e-05
-4.89687e-05
0.000103598
-4.71123e-05
0.00011853
-4.47272e-05
0.000132356
-4.14127e-05
0.000144833
-3.74202e-05
0.000155747
-3.26736e-05
0.000164796
-2.7117e-05
0.000171851
-2.11401e-05
0.000176706
-1.45208e-05
0.000179247
-7.61271e-06
0.000179403
-4.36263e-07
0.000177084
6.87411e-06
0.000172333
1.42134e-05
0.000165266
2.11463e-05
0.000155994
2.78451e-05
0.000144742
3.37902e-05
0.000131615
3.93114e-05
0.000116947
4.39706e-05
0.000100967
4.79342e-05
8.39392e-05
5.10497e-05
6.61568e-05
5.33047e-05
4.79086e-05
5.47122e-05
2.94717e-05
5.52788e-05
1.10808e-05
5.50777e-05
-6.99067e-06
5.42423e-05
-2.45596e-05
5.26738e-05
-4.14579e-05
5.06944e-05
-5.75526e-05
4.82623e-05
-7.27236e-05
4.55025e-05
-8.69287e-05
4.26212e-05
-0.000100101
3.95247e-05
-0.000112237
3.64306e-05
-0.000123373
3.34228e-05
-0.000133446
3.02405e-05
-0.000142525
2.72554e-05
-0.000150666
2.44274e-05
-0.000157732
2.121e-05
-0.000163929
1.86125e-05
-0.000169241
1.59499e-05
-0.000173541
1.29126e-05
-0.000177067
1.06032e-05
-0.000179774
8.07979e-06
-0.000181552
5.34031e-06
-0.000182594
3.11956e-06
-0.000182719
3.88042e-07
-0.000182051
-1.98112e-06
-0.000180537
-4.52433e-06
-0.000178122
-7.24037e-06
-0.000175105
-9.03465e-06
-0.000171424
-1.1011e-05
-0.000167285
-1.23866e-05
-0.000162862
-1.3257e-05
-0.000158169
-1.4078e-05
-0.000153069
-1.52798e-05
-0.000147896
-1.55199e-05
-0.000142311
-1.67576e-05
-0.000136474
-1.75219e-05
-0.000130404
-1.82256e-05
-0.000123863
-1.96445e-05
-0.000116824
-2.11404e-05
-0.000109375
-2.23553e-05
-0.00010114
-2.47343e-05
-9.20166e-05
-2.73598e-05
-8.21908e-05
-2.95092e-05
-7.14102e-05
-3.23515e-05
-5.96613e-05
-3.5231e-05
-4.68101e-05
-3.85656e-05
-3.29274e-05
-4.16448e-05
-1.81473e-05
-4.42995e-05
-2.33897e-06
-4.74269e-05
1.42459e-05
-4.97219e-05
3.13769e-05
-5.13502e-05
4.9054e-05
-5.29864e-05
6.69835e-05
-5.37327e-05
8.497e-05
-5.39041e-05
0.000102809
-5.34494e-05
0.000120058
-5.16846e-05
0.000136503
-4.92744e-05
0.000151911
-4.61636e-05
0.000165959
-4.20817e-05
0.000178418
-3.73183e-05
0.000189045
-3.18278e-05
0.000197753
-2.60856e-05
0.000204267
-1.95096e-05
0.000208502
-1.26961e-05
0.000210518
-6.01591e-06
0.000210079
1.24147e-06
0.000207251
8.3906e-06
0.00020219
1.51727e-05
0.000195091
2.12653e-05
0.000186156
2.67581e-05
0.000175616
3.15806e-05
0.000163557
3.61228e-05
0.0001504
3.94276e-05
0.00013628
4.23071e-05
0.000121483
4.43538e-05
0.000106165
4.59054e-05
9.06329e-05
4.65675e-05
7.4911e-05
4.7126e-05
5.93217e-05
4.67491e-05
4.38407e-05
4.6412e-05
2.87411e-05
4.52896e-05
1.39362e-05
4.43875e-05
-3.33504e-07
4.28009e-05
-1.41209e-05
4.13509e-05
-2.73966e-05
3.98181e-05
-4.01057e-05
3.81187e-05
-5.21994e-05
3.6279e-05
-6.36917e-05
3.44683e-05
-7.45307e-05
3.25142e-05
-8.47396e-05
3.06239e-05
-9.4278e-05
2.8613e-05
-0.000103121
2.65299e-05
-0.000111279
2.44775e-05
-0.000118728
2.23429e-05
-0.000125445
2.01482e-05
-0.000131423
1.79349e-05
-0.000136653
1.56949e-05
-0.000141136
1.3446e-05
-0.000144859
1.11637e-05
-0.000147801
8.82278e-06
-0.000149984
6.53556e-06
4.20246e-06
-5.4249e-05
-5.79982e-05
-3.85084e-05
-6.29182e-05
-2.17758e-05
-6.69343e-05
-4.19011e-06
-7.02303e-05
1.42411e-05
-7.36107e-05
3.30516e-05
-7.50936e-05
5.23434e-05
-7.69909e-05
7.16789e-05
-7.71615e-05
9.07308e-05
-7.60236e-05
0.000109444
-7.4656e-05
0.000127464
-7.18971e-05
0.000144469
-6.78554e-05
0.000160283
-6.30854e-05
0.000174561
-5.69373e-05
0.000187077
-4.99335e-05
0.000197656
-4.22104e-05
0.000205973
-3.31851e-05
0.000211922
-2.37401e-05
0.00021543
-1.40147e-05
0.00021636
-3.77938e-06
0.000214674
6.48898e-06
0.000210425
1.68901e-05
0.000203663
2.6961e-05
0.000194614
3.61393e-05
0.000183351
4.49239e-05
0.000170316
5.20019e-05
0.000155546
5.89746e-05
0.000139229
6.51274e-05
0.000121865
6.92731e-05
0.000103587
7.29979e-05
8.46131e-05
7.58069e-05
6.53071e-05
7.69957e-05
4.5927e-05
7.74367e-05
2.65963e-05
7.71945e-05
7.53297e-06
7.61219e-05
-1.09752e-05
7.39598e-05
-2.88861e-05
7.15594e-05
-4.60845e-05
6.87186e-05
-6.24266e-05
6.53019e-05
-7.78544e-05
6.16769e-05
-9.23227e-05
5.78476e-05
-0.000105792
5.38545e-05
-0.000118263
4.9869e-05
-0.000129728
4.58572e-05
-0.000140195
4.18604e-05
-0.000149688
3.79733e-05
-0.000158242
3.42143e-05
-0.000165857
3.04568e-05
-0.000172574
2.68758e-05
-0.000178415
2.33322e-05
-0.000183377
1.98774e-05
-0.000187532
1.66178e-05
-0.000190856
1.32981e-05
-0.000193427
1.02757e-05
-0.000195176
6.98904e-06
-0.000196146
3.95727e-06
-0.000196394
1.07294e-06
-0.000195788
-2.37207e-06
-0.000194325
-5.85705e-06
-0.000192112
-8.85689e-06
-0.000189028
-1.23621e-05
-0.00018513
-1.55911e-05
-0.000180454
-1.87424e-05
-0.000174848
-2.24377e-05
-0.000168377
-2.58702e-05
-0.000161118
-2.90387e-05
-0.000152841
-3.30227e-05
-0.000143759
-3.64383e-05
-0.000133661
-4.03672e-05
-0.000122668
-4.39444e-05
-0.000110781
-4.75341e-05
-9.80544e-05
-5.09247e-05
-8.44604e-05
-5.43287e-05
-7.00935e-05
-5.73877e-05
-5.49493e-05
-6.06392e-05
-3.91843e-05
-6.30103e-05
-2.26776e-05
-6.58501e-05
-5.6384e-06
-6.82812e-05
1.17717e-05
-6.95502e-05
2.96026e-05
-7.12448e-05
4.75836e-05
-7.18648e-05
6.56523e-05
-7.2179e-05
8.3626e-05
-7.17987e-05
0.000101396
-7.08986e-05
0.0001187
-6.91667e-05
0.000135333
-6.63949e-05
0.000151153
-6.3143e-05
0.00016589
-5.87303e-05
0.00017914
-5.2851e-05
0.000190679
-4.59749e-05
0.000200194
-3.79683e-05
0.00020745
-2.89586e-05
0.000212306
-1.94075e-05
0.000214664
-9.46026e-06
0.000214475
5.98226e-07
0.000211716
1.08123e-05
0.000206484
2.08376e-05
0.000198858
3.03566e-05
0.000188976
3.93608e-05
0.000177007
4.76928e-05
0.000163145
5.5252e-05
0.000147602
6.19199e-05
0.0001306
6.78336e-05