/*--------------------------------*- C++ -*----------------------------------*\
| =========                 |                                                 |
| \\      /  F ield         | OpenFOAM: The Open Source CFD Toolbox           |
|  \\    /   O peration     | Version:  3.0.1                                 |
|   \\  /    A nd           | Web:      www.OpenFOAM.org                      |
|    \\/     M anipulation  |                                                 |
\*---------------------------------------------------------------------------*/
FoamFile
{
    version     2.0;
    format      ascii;
    class       surfaceScalarField;
    location    "24";
    object      alphaPhi;
}
// * * * * * * * * * * * * * * * * * * * * * * * * * * * * * * * * * * * * * //

dimensions      [0 3 -1 0 0 0 0];

internalField   nonuniform List<scalar> 
42423
(
-0.000130807
9.1808e-06
-0.000139013
8.20616e-06
-0.000146381
7.3681e-06
-0.000152939
6.55791e-06
-0.000158706
5.76694e-06
-0.00016373
5.02452e-06
-0.000168029
4.29824e-06
-0.000171634
3.60485e-06
-0.000174562
2.92809e-06
-0.000176807
2.24544e-06
-0.000178426
1.61911e-06
-0.000179403
9.76894e-07
-0.00017969
2.8675e-07
-0.000179278
-4.11546e-07
-0.00017813
-1.14833e-06
-0.000176284
-1.84576e-06
-0.000173753
-2.53156e-06
-0.000170479
-3.27378e-06
-0.000166407
-4.07199e-06
-0.000161606
-4.80084e-06
-0.000155855
-5.75085e-06
-0.000149259
-6.59666e-06
-0.000141871
-7.38747e-06
-0.000133418
-8.45357e-06
-0.000124038
-9.37908e-06
-0.000113651
-1.03877e-05
-0.000102242
-1.14086e-05
-8.98261e-05
-1.24161e-05
-7.64121e-05
-1.3414e-05
-6.20013e-05
-1.44108e-05
-4.66746e-05
-1.53267e-05
-3.03545e-05
-1.63201e-05
-1.33897e-05
-1.69649e-05
4.32921e-06
-1.77189e-05
2.26095e-05
-1.82803e-05
4.11743e-05
-1.85648e-05
5.99468e-05
-1.87725e-05
7.87349e-05
-1.87882e-05
9.71934e-05
-1.84585e-05
0.000115182
-1.79889e-05
0.000132394
-1.72116e-05
0.00014868
-1.62863e-05
0.000163716
-1.50359e-05
0.00017722
-1.35041e-05
0.00018908
-1.18604e-05
0.000198997
-9.91668e-06
0.000206816
-7.81917e-06
0.000212456
-5.6393e-06
0.000215798
-3.34235e-06
0.000216692
-8.94272e-07
0.000215226
1.46655e-06
0.000211285
3.94087e-06
0.000205174
6.11019e-06
0.000196909
8.26529e-06
0.00018658
1.03289e-05
0.000174399
1.21811e-05
0.000160581
1.38182e-05
0.000145382
1.51989e-05
0.000128973
1.64089e-05
0.000111648
1.73255e-05
9.3594e-05
1.80536e-05
7.50633e-05
1.85307e-05
5.62854e-05
1.87778e-05
3.75697e-05
1.87157e-05
1.90179e-05
1.85518e-05
7.83791e-07
1.82341e-05
-1.68512e-05
1.76349e-05
-3.38335e-05
1.69824e-05
-5.00314e-05
1.61979e-05
-6.54386e-05
1.54072e-05
-7.99172e-05
1.44786e-05
-9.34645e-05
1.35473e-05
-0.00010608
1.26157e-05
-0.000117677
1.15969e-05
-0.000128268
1.05911e-05
-0.000137893
9.62477e-06
-0.000146506
8.6132e-06
-0.000154234
7.72725e-06
-0.000160957
6.72288e-06
-0.000166776
5.81976e-06
-0.00017169
4.91376e-06
-0.000175713
4.02273e-06
-0.000178815
3.10223e-06
-0.000181095
2.27958e-06
-0.000182463
1.36824e-06
-0.000183093
6.29266e-07
-0.000182941
-1.51798e-07
-0.000181905
-1.03558e-06
-0.000180311
-1.59443e-06
-0.000177973
-2.33815e-06
-0.000174944
-3.02846e-06
-0.000171463
-3.48162e-06
-0.000167237
-4.22596e-06
-0.00016235
-4.88711e-06
-0.000156818
-5.53193e-06
-0.000150543
-6.2751e-06
-0.000143574
-6.96867e-06
-0.000135855
-7.71954e-06
-0.000127334
-8.52116e-06
-0.000118069
-9.26454e-06
-0.000107921
-1.01485e-05
-9.67851e-05
-1.11355e-05
-8.49091e-05
-1.1876e-05
-7.20782e-05
-1.2831e-05
-5.83162e-05
-1.3762e-05
-4.3777e-05
-1.45392e-05
-2.84706e-05
-1.53065e-05
-1.24746e-05
-1.5996e-05
4.11522e-06
-1.65899e-05
2.12091e-05
-1.70939e-05
3.86564e-05
-1.74474e-05
5.63195e-05
-1.76632e-05
7.39963e-05
-1.76768e-05
9.15532e-05
-1.7557e-05
0.000108753
-1.71995e-05
0.000125279
-1.65265e-05
0.000140989
-1.57099e-05
0.000155597
-1.46077e-05
0.000168823
-1.32266e-05
0.000180442
-1.16187e-05
0.000190233
-9.79176e-06
0.000197962
-7.72836e-06
0.000203449
-5.48736e-06
0.000206571
-3.12248e-06
0.000207291
-7.1962e-07
0.000205536
1.75456e-06
0.000201216
4.32045e-06
0.000194505
6.71097e-06
0.000185505
8.99978e-06
0.000174451
1.10539e-05
0.000161518
1.29335e-05
0.000146907
1.46108e-05
0.000130938
1.5969e-05
0.000113847
1.70909e-05
9.59792e-05
1.78679e-05
7.75775e-05
1.84017e-05
5.88573e-05
1.87202e-05
4.01184e-05
1.87388e-05
2.16264e-05
1.84921e-05
3.5173e-06
1.81091e-05
-1.39967e-05
1.7514e-05
-3.08292e-05
1.68325e-05
-4.6754e-05
1.59247e-05
-6.17195e-05
1.49656e-05
-7.5656e-05
1.39364e-05
-8.85366e-05
1.28806e-05
-0.000100278
1.17416e-05
-0.000111004
1.07259e-05
-0.000120695
9.69084e-06
-0.000129486
8.79097e-06
-0.000137336
7.85009e-06
-0.000144319
6.98274e-06
-0.000150529
6.21006e-06
-0.000155858
5.32926e-06
-0.000160485
4.62632e-06
-0.000164473
3.98819e-06
-0.000167726
3.25323e-06
-0.000170365
2.63926e-06
-0.000172446
2.08088e-06
-0.000173835
1.38864e-06
-0.000174736
9.01054e-07
-0.000174982
2.46022e-07
-0.000174598
-3.83762e-07
-0.000173572
-1.02659e-06
-0.000171977
-1.59411e-06
-0.000169691
-2.28677e-06
-0.000166748
-2.94233e-06
-0.000163047
-3.70162e-06
-0.000158661
-4.38629e-06
-0.000153506
-5.15428e-06
-0.000147542
-5.96407e-06
-0.000140699
-6.84367e-06
-0.000133065
-7.63353e-06
-0.000124587
-8.4777e-06
-0.000115133
-9.45396e-06
-0.00010477
-1.03633e-05
-9.32853e-05
-1.14848e-05
-8.09388e-05
-1.23466e-05
-6.76403e-05
-1.32985e-05
-5.34297e-05
-1.42106e-05
-3.84198e-05
-1.501e-05
-2.26062e-05
-1.58136e-05
-6.0928e-06
-1.65134e-05
1.09894e-05
-1.70823e-05
2.85009e-05
-1.75115e-05
4.63123e-05
-1.78115e-05
6.424e-05
-1.79277e-05
8.20847e-05
-1.78448e-05
9.96279e-05
-1.75432e-05
0.00011667
-1.70422e-05
0.000132953
-1.62833e-05
0.000148278
-1.53253e-05
0.000162429
-1.41502e-05
0.000175129
-1.27001e-05
0.000186159
-1.10302e-05
0.000195365
-9.20657e-06
0.000202563
-7.19759e-06
0.00020762
-5.05705e-06
0.000210436
-2.81567e-06
0.000210982
-5.46525e-07
0.000209241
1.74148e-06
0.000205166
4.07411e-06
0.000198876
6.29047e-06
0.000190514
8.36214e-06
0.000180204
1.03103e-05
0.000168106
1.20973e-05
0.000154449
1.36571e-05
0.000139483
1.49664e-05
0.000123449
1.60334e-05
0.000106564
1.68856e-05
8.90772e-05
1.74866e-05
7.12965e-05
1.77808e-05
5.33672e-05
1.79293e-05
3.55328e-05
1.78344e-05
1.79772e-05
1.75555e-05
9.27235e-07
1.705e-05
-1.55607e-05
1.64879e-05
-3.14159e-05
1.58552e-05
-4.64657e-05
1.50498e-05
-6.0685e-05
1.42193e-05
-7.40073e-05
1.33223e-05
-8.63344e-05
1.23271e-05
-9.77832e-05
1.14488e-05
-0.000108104
1.0321e-05
-0.000117382
9.27766e-06
-0.000125755
8.37291e-06
-0.000133091
7.33663e-06
-0.000139533
6.4413e-06
-0.000145156
5.62275e-06
-0.000149793
4.63732e-06
-0.000153721
3.92811e-06
-0.00015683
3.10865e-06
-0.000159212
2.38196e-06
-0.000160824
1.61243e-06
-0.000161726
9.02383e-07
-0.000161992
2.652e-07
-0.000161561
-4.305e-07
-0.000160411
-1.14972e-06
-0.000158657
-1.75417e-06
-0.000156309
-2.34855e-06
-0.000153264
-3.04516e-06
-0.000149551
-3.71291e-06
-0.000145273
-4.27808e-06
-0.000140307
-4.96542e-06
-0.0001346
-5.70688e-06
-0.000128202
-6.3987e-06
-0.000120952
-7.2497e-06
-0.00011305
-7.90207e-06
-0.000104331
-8.71919e-06
-9.487e-05
-9.46067e-06
-8.44895e-05
-1.03806e-05
-7.33527e-05
-1.11368e-05
-6.14522e-05
-1.19005e-05
-4.86718e-05
-1.27804e-05
-3.50958e-05
-1.3576e-05
-2.0726e-05
-1.43699e-05
-5.62129e-06
-1.51047e-05
1.01585e-05
-1.57798e-05
2.65106e-05
-1.63522e-05
4.33348e-05
-1.68242e-05
6.04843e-05
-1.71496e-05
7.78098e-05
-1.73255e-05
9.51482e-05
-1.73385e-05
0.000112242
-1.7094e-05
0.00012894
-1.66977e-05
0.000144937
-1.59968e-05
0.000160075
-1.51384e-05
0.000174096
-1.40211e-05
0.000186667
-1.25708e-05
0.000197693
-1.10268e-05
0.00020699
-9.29666e-06
0.000214376
-7.38583e-06
0.000219781
-5.40487e-06
0.00022314
-3.35955e-06
0.000224287
-1.14687e-06
0.000223214
1.07255e-06
0.000220108
3.10656e-06
0.000214931
5.1763e-06
0.000207852
7.07901e-06
0.000198984
8.86788e-06
0.000188362
1.06222e-05
0.000176236
1.21263e-05
0.000162678
1.35573e-05
0.000147908
1.47699e-05
0.000132183
1.57259e-05
0.000115644
1.6538e-05
9.85856e-05
1.70588e-05
8.1228e-05
1.73576e-05
6.37101e-05
1.75179e-05
4.6326e-05
1.73841e-05
2.90801e-05
1.72459e-05
1.23591e-05
1.67209e-05
-3.88839e-06
1.62475e-05
-1.95601e-05
1.56717e-05
-3.45014e-05
1.49413e-05
-4.86047e-05
1.41033e-05
-6.18522e-05
1.32474e-05
-7.41473e-05
1.22951e-05
-8.54923e-05
1.1345e-05
-9.58498e-05
1.03575e-05
-0.000105154
9.304e-06
-0.000113466
8.31227e-06
-0.000120721
7.25478e-06
-0.000126938
6.21689e-06
-0.000132144
5.20631e-06
-0.000136319
4.17485e-06
-0.00013951
3.19151e-06
-0.000141701
2.19033e-06
-0.000142997
1.2967e-06
-0.000143465
4.67867e-07
-0.000143036
-4.29365e-07
-0.000141733
-1.30267e-06
-0.000139676
-2.05706e-06
-0.000137021
-2.65526e-06
-0.000133494
-3.52677e-06
-0.00012944
-4.05398e-06
-0.000124592
-4.84841e-06
-0.000119162
-5.43015e-06
-0.000113251
-5.91022e-06
-0.000106532
-6.71997e-06
-9.93229e-05
-7.2086e-06
-9.15262e-05
-7.79667e-06
-8.30116e-05
-8.51467e-06
-7.39252e-05
-9.0864e-06
-6.40319e-05
-9.89324e-06
-5.35542e-05
-1.04777e-05
-4.24758e-05
-1.10784e-05
-3.06287e-05
-1.18471e-05
-1.80933e-05
-1.25355e-05
-4.93169e-06
-1.31616e-05
8.90941e-06
-1.38411e-05
2.34206e-05
-1.45112e-05
3.8379e-05
-1.49584e-05
5.38309e-05
-1.54519e-05
6.97011e-05
-1.58702e-05
8.59124e-05
-1.62113e-05
0.000102346
-1.64338e-05
0.000118731
-1.63847e-05
0.000134967
-1.62366e-05
0.000150875
-1.59076e-05
0.000166214
-1.53395e-05
0.000180762
-1.45477e-05
0.000194291
-1.35286e-05
0.000206622
-1.23311e-05
0.000217468
-1.08461e-05
0.000226641
-9.17349e-06
0.000233955
-7.31377e-06
0.000239212
-5.25734e-06
0.000242318
-3.10562e-06
0.00024295
-6.32209e-07
0.000241099
1.85095e-06
0.000236776
4.32355e-06
0.000230081
6.69508e-06
0.000221032
9.0481e-06
0.000210023
1.10096e-05
0.000197074
1.29488e-05
1.46982e-05
-0.000130848
1.83662e-05
-0.000139054
1.6412e-05
-0.000146424
1.47383e-05
-0.000152983
1.3117e-05
-0.000158751
1.15351e-05
-0.000163778
1.00513e-05
-0.00016808
8.59971e-06
-0.000171684
7.20975e-06
-0.00017461
5.85333e-06
-0.000176856
4.49193e-06
-0.000178476
3.23891e-06
-0.000179452
1.95277e-06
-0.000179738
5.72811e-07
-0.00017933
-8.19684e-07
-0.000178181
-2.29739e-06
-0.000176336
-3.69024e-06
-0.000173805
-5.06259e-06
-0.00017053
-6.54867e-06
-0.000166461
-8.1411e-06
-0.000161661
-9.60117e-06
-0.000155912
-1.14998e-05
-0.000149315
-1.31937e-05
-0.000141927
-1.47756e-05
-0.000133476
-1.69049e-05
-0.000124095
-1.87599e-05
-0.000113707
-2.07757e-05
-0.000102301
-2.28145e-05
-8.98827e-05
-2.48344e-05
-7.64635e-05
-2.68333e-05
-6.20471e-05
-2.88273e-05
-4.6721e-05
-3.06529e-05
-3.03937e-05
-3.26474e-05
-1.34216e-05
-3.39371e-05
4.30155e-06
-3.54421e-05
2.25901e-05
-3.65689e-05
4.11651e-05
-3.71399e-05
5.99458e-05
-3.75534e-05
7.87457e-05
-3.75881e-05
9.72208e-05
-3.69337e-05
0.000115224
-3.59926e-05
0.000132444
-3.44313e-05
0.000148747
-3.25897e-05
0.000163791
-3.00791e-05
0.000177313
-2.70265e-05
0.00018919
-2.37374e-05
0.000199103
-1.983e-05
0.000206933
-1.56492e-05
0.000212583
-1.1289e-05
0.000215925
-6.68448e-06
0.000216823
-1.79203e-06
0.000215346
2.9428e-06
0.000211406
7.88134e-06
0.000205298
1.2218e-05
0.000197025
1.65379e-05
0.000186691
2.06629e-05
0.0001745
2.43722e-05
0.000160671
2.76477e-05
0.000145461
3.04084e-05
0.000129038
3.28324e-05
0.000111708
3.46552e-05
9.36358e-05
3.61257e-05
7.50968e-05
3.70697e-05
5.63089e-05
3.75656e-05
3.75815e-05
3.74431e-05
1.9021e-05
3.71123e-05
7.7675e-07
3.64784e-05
-1.68646e-05
3.52763e-05
-3.38548e-05
3.39726e-05
-5.00592e-05
3.24023e-05
-6.54698e-05
3.08177e-05
-7.99497e-05
2.89585e-05
-9.35003e-05
2.70979e-05
-0.00010612
2.52353e-05
-0.000117718
2.31951e-05
-0.000128309
2.11823e-05
-0.000137932
1.92471e-05
-0.000146547
1.72278e-05
-0.000154276
1.54562e-05
-0.000160997
1.34442e-05
-0.000166817
1.16393e-05
-0.000171734
9.8314e-06
-0.000175759
8.04714e-06
-0.000178855
6.19876e-06
-0.00018114
4.56374e-06
-0.00018253
2.75808e-06
-0.000183168
1.26741e-06
-0.00018301
-3.09607e-07
-0.00018199
-2.05566e-06
-0.000180377
-3.20784e-06
-0.000178042
-4.67275e-06
-0.000175023
-6.04798e-06
-0.000171545
-6.95985e-06
-0.000167318
-8.45279e-06
-0.000162421
-9.78384e-06
-0.000156883
-1.10701e-05
-0.000150611
-1.25468e-05
-0.000143656
-1.39236e-05
-0.000135936
-1.54398e-05
-0.000127402
-1.7055e-05
-0.000118138
-1.85285e-05
-0.000108
-2.02869e-05
-9.68663e-05
-2.22693e-05
-8.49721e-05
-2.37703e-05
-7.21305e-05
-2.56726e-05
-5.83615e-05
-2.75311e-05
-4.38073e-05
-2.90935e-05
-2.84988e-05
-3.0615e-05
-1.25011e-05
-3.19938e-05
4.09499e-06
-3.31861e-05
2.12011e-05
-3.42001e-05
3.86555e-05
-3.4902e-05
5.6337e-05
-3.53448e-05
7.40402e-05
-3.538e-05
9.16091e-05
-3.51259e-05
0.000108815
-3.44054e-05
0.000125356
-3.30674e-05
0.000141068
-3.14224e-05
0.000155695
-2.92351e-05
0.000168936
-2.6467e-05
0.00018056
-2.3243e-05
0.000190361
-1.95928e-05
0.000198098
-1.54658e-05
0.000203607
-1.0996e-05
0.000206734
-6.24997e-06
0.000207441
-1.42666e-06
0.000205671
3.52459e-06
0.000201341
8.65078e-06
0.000194632
1.34194e-05
0.000185631
1.80009e-05
0.000174557
2.21282e-05
0.000161604
2.58856e-05
0.000146976
2.92388e-05
0.000130994
3.1951e-05
0.000113893
3.41928e-05
9.59988e-05
3.57617e-05
7.75827e-05
3.68178e-05
5.88597e-05
3.74432e-05
4.01079e-05
3.74907e-05
2.15941e-05
3.70059e-05
3.47089e-06
3.62323e-05
-1.40516e-05
3.50366e-05
-3.0892e-05
3.36729e-05
-4.68341e-05
3.18668e-05
-6.18141e-05
2.99456e-05
-7.57606e-05
2.7883e-05
-8.863e-05
2.57499e-05
-0.000100369
2.34808e-05
-0.000111097
2.14542e-05
-0.000120804
1.93977e-05
-0.000129582
1.75692e-05
-0.000137433
1.57003e-05
-0.000144416
1.39658e-05
-0.000150636
1.24298e-05
-0.000155965
1.0659e-05
-0.000160573
9.23415e-06
-0.000164564
7.97883e-06
-0.000167832
6.52157e-06
-0.000170474
5.28097e-06
-0.000172551
4.15768e-06
-0.000173936
2.77397e-06
-0.000174829
1.79358e-06
-0.000175071
4.88304e-07
-0.000174689
-7.66106e-07
-0.000173672
-2.04321e-06
-0.000172066
-3.20007e-06
-0.000169778
-4.57457e-06
-0.000166835
-5.88561e-06
-0.000163135
-7.4016e-06
-0.000158744
-8.77722e-06
-0.000153598
-1.03007e-05
-0.000147628
-1.19339e-05
-0.000140768
-1.37036e-05
-0.000133131
-1.52707e-05
-0.000124664
-1.69441e-05
-0.000115213
-1.89053e-05
-0.000104846
-2.073e-05
-9.3359e-05
-2.29721e-05
-8.10052e-05
-2.47004e-05
-6.77025e-05
-2.66013e-05
-5.34847e-05
-2.84284e-05
-3.84503e-05
-3.00445e-05
-2.26344e-05
-3.16295e-05
-6.11272e-06
-3.30352e-05
1.09805e-05
-3.41756e-05
2.85038e-05
-3.50347e-05
4.63398e-05
-3.56476e-05
6.42687e-05
-3.58566e-05
8.21189e-05
-3.56951e-05
9.9679e-05
-3.51034e-05
0.00011673
-3.40929e-05
0.000133033
-3.25866e-05
0.000148384
-3.06765e-05
0.000162534
-2.83e-05
0.000175245
-2.54113e-05
0.000186294
-2.20791e-05
0.000195498
-1.84109e-05
0.000202702
-1.44011e-05
0.000207763
-1.01181e-05
0.000210569
-5.62244e-06
0.000211116
-1.0931e-06
0.000209376
3.48078e-06
0.000205302
8.14852e-06
0.000198994
1.25985e-05
0.000190617
1.67394e-05
0.000180308
2.06191e-05
0.000168194
2.42111e-05
0.000154519
2.73323e-05
0.000139537
2.99483e-05
0.000123497
3.20739e-05
0.000106596
3.37865e-05
8.90915e-05
3.49907e-05
7.12948e-05
3.55775e-05
5.33508e-05
3.58733e-05
3.55026e-05
3.56826e-05
1.79379e-05
3.51202e-05
8.76196e-07
3.41117e-05
-1.56178e-05
3.29819e-05
-3.14791e-05
3.17165e-05
-4.65382e-05
3.01089e-05
-6.07673e-05
2.84485e-05
-7.40972e-05
2.66522e-05
-8.64271e-05
2.4657e-05
-9.78741e-05
2.28957e-05
-0.000108201
2.06481e-05
-0.000117479
1.85557e-05
-0.000125859
1.67529e-05
-0.000133202
1.4679e-05
-0.000139653
1.28927e-05
-0.000145256
1.12253e-05
-0.000149887
9.26849e-06
-0.000153825
7.86624e-06
-0.000156947
6.23069e-06
-0.000159316
4.75138e-06
-0.000160925
3.22065e-06
-0.000161821
1.79836e-06
-0.000162071
5.15729e-07
-0.000161649
-8.52206e-07
-0.000160505
-2.29384e-06
-0.000158752
-3.50716e-06
-0.000156386
-4.71519e-06
-0.000153346
-6.08507e-06
-0.000149633
-7.42548e-06
-0.000145351
-8.56012e-06
-0.000140388
-9.92836e-06
-0.000134673
-1.14225e-05
-0.000128283
-1.27878e-05
-0.000121012
-1.45215e-05
-0.000113115
-1.57991e-05
-0.000104394
-1.74394e-05
-9.49421e-05
-1.8913e-05
-8.45594e-05
-2.07633e-05
-7.34057e-05
-2.22905e-05
-6.15153e-05
-2.37909e-05
-4.87286e-05
-2.55671e-05
-3.51417e-05
-2.7163e-05
-2.07618e-05
-2.87498e-05
-5.64943e-06
-3.02171e-05
1.01397e-05
-3.1569e-05
2.65051e-05
-3.27175e-05
4.33358e-05
-3.3655e-05
6.05027e-05
-3.43166e-05
7.78283e-05
-3.46512e-05
9.51755e-05
-3.46857e-05
0.000112296
-3.42142e-05
0.000129002
-3.34041e-05
0.000145007
-3.20019e-05
0.000160161
-3.02928e-05
0.000174184
-2.8044e-05
0.000186763
-2.515e-05
0.000197785
-2.20492e-05
0.000207078
-1.85895e-05
0.000214473
-1.47802e-05
0.000219885
-1.08173e-05
0.000223248
-6.72312e-06
0.000224385
-2.28391e-06
0.000223301
2.15661e-06
0.000220199
6.20895e-06
0.000215027
1.03482e-05
0.000207944
1.41617e-05
0.000199065
1.7747e-05
0.000188434
2.12526e-05
0.000176299
2.42619e-05
0.000162732
2.71242e-05
0.000147953
2.95489e-05
0.000132217
3.14621e-05
0.000115671
3.30833e-05
9.86092e-05
3.41208e-05
8.12378e-05
3.47291e-05
6.37123e-05
3.50433e-05
4.63167e-05
3.47797e-05
2.90684e-05
3.44942e-05
1.23414e-05
3.3448e-05
-3.91194e-06
3.25009e-05
-1.95906e-05
3.13504e-05
-3.45367e-05
2.98875e-05
-4.86449e-05
2.82115e-05
-6.1898e-05
2.65005e-05
-7.41969e-05
2.4594e-05
-8.55459e-05
2.2694e-05
-9.59109e-05
2.07225e-05
-0.000105218
1.8611e-05
-0.000113534
1.66286e-05
-0.000120795
1.45155e-05
-0.000127009
1.24308e-05
-0.000132213
1.04105e-05
-0.000136392
8.35427e-06
-0.000139572
6.37079e-06
-0.000141766
4.38462e-06
-0.000143058
2.58883e-06
-0.000143522
9.31715e-07
-0.00014309
-8.61059e-07
-0.000141792
-2.60146e-06
-0.000139728
-4.12017e-06
-0.000137056
-5.32743e-06
-0.000133544
-7.03943e-06
-0.000129479
-8.11845e-06
-0.000124639
-9.68855e-06
-0.000119205
-1.0864e-05
-0.000113292
-1.18239e-05
-0.000106574
-1.34376e-05
-9.93614e-05
-1.44211e-05
-9.1568e-05
-1.55901e-05
-8.30509e-05
-1.70317e-05
-7.39675e-05
-1.81698e-05
-6.40698e-05
-1.9791e-05
-5.35878e-05
-2.09597e-05
-4.2513e-05
-2.21532e-05
-3.06621e-05
-2.3698e-05
-1.8121e-05
-2.50767e-05
-4.96512e-06
-2.63174e-05
8.87466e-06
-2.76809e-05
2.33897e-05
-2.90263e-05
3.83557e-05
-2.99245e-05
5.38205e-05
-3.09167e-05
6.96947e-05
-3.17445e-05
8.59046e-05
-3.24211e-05
0.000102348
-3.28768e-05
0.000118745
-3.27824e-05
0.000134995
-3.24861e-05
0.000150929
-3.1842e-05
0.000166276
-3.06866e-05
0.000180823
-2.90944e-05
0.000194369
-2.70752e-05
0.000206707
-2.4669e-05
0.00021756
-2.16985e-05
0.000226746
-1.83604e-05
0.000234063
-1.46309e-05
0.000239322
-1.05159e-05
0.000242431
-6.21505e-06
0.000243062
-1.26256e-06
0.000241199
3.71335e-06
0.000236875
8.64781e-06
0.000230176
1.33937e-05
0.000221119
1.81051e-05
0.0002101
2.20291e-05
0.00019714
2.59086e-05
2.94102e-05
-0.000130925
2.75563e-05
-0.000139132
2.46189e-05
-0.000146505
2.21111e-05
-0.000153066
1.96778e-05
-0.000158837
1.73063e-05
-0.000163866
1.50799e-05
-0.000168167
1.29008e-05
-0.000171774
1.08175e-05
-0.000174706
8.78476e-06
-0.00017695
6.73611e-06
-0.000178562
4.85125e-06
-0.000179528
2.91827e-06
-0.000179796
8.4122e-07
-0.000179383
-1.23282e-06
-0.000178237
-3.44391e-06
-0.000176391
-5.53592e-06
-0.000173862
-7.59152e-06
-0.000170589
-9.82139e-06
-0.000166523
-1.22077e-05
-0.000161726
-1.43983e-05
-0.000155982
-1.72439e-05
-0.000149384
-1.97914e-05
-0.000142
-2.216e-05
-0.000133553
-2.53514e-05
-0.00012417
-2.81431e-05
-0.000113785
-3.11611e-05
-0.000102388
-3.42114e-05
-8.99678e-05
-3.72542e-05
-7.65387e-05
-4.02624e-05
-6.2119e-05
-4.3247e-05
-4.67947e-05
-4.59772e-05
-3.04544e-05
-4.89878e-05
-1.34725e-05
-5.0919e-05
4.26364e-06
-5.31783e-05
2.25682e-05
-5.48735e-05
4.11621e-05
-5.57338e-05
5.99614e-05
-5.63528e-05
7.8775e-05
-5.64017e-05
9.72644e-05
-5.54231e-05
0.000115293
-5.40215e-05
0.000132533
-5.16712e-05
0.000148853
-4.89097e-05
0.000163919
-4.51454e-05
0.000177453
-4.05605e-05
0.000189345
-3.56292e-05
0.000199278
-2.97637e-05
0.000207109
-2.34799e-05
0.00021277
-1.69501e-05
0.000216119
-1.00335e-05
0.000217014
-2.687e-06
0.000215517
4.43969e-06
0.000211579
1.18196e-05
0.000205469
1.83277e-05
0.000197183
2.48235e-05
0.000186838
3.10079e-05
0.00017463
3.65809e-05
0.000160783
4.14941e-05
0.000145554
4.56381e-05
0.000129112
4.92738e-05
0.000111769
5.1998e-05
9.36777e-05
5.42173e-05
7.51189e-05
5.56285e-05
5.63182e-05
5.63663e-05
3.75692e-05
5.61922e-05
1.8994e-05
5.56874e-05
7.40307e-07
5.47321e-05
-1.69094e-05
5.2926e-05
-3.39042e-05
5.09673e-05
-5.01135e-05
4.86115e-05
-6.55305e-05
4.62347e-05
-8.00111e-05
4.34391e-05
-9.35585e-05
4.06453e-05
-0.000106177
3.78534e-05
-0.000117772
3.47901e-05
-0.000128365
3.17754e-05
-0.00013799
2.88719e-05
-0.000146595
2.58329e-05
-0.000154308
2.31691e-05
-0.000161024
2.01602e-05
-0.000166843
1.74588e-05
-0.000171754
1.47423e-05
-0.000175772
1.20643e-05
-0.000178881
9.30818e-06
-0.000181176
6.85867e-06
-0.000182564
4.14622e-06
-0.000183207
1.90983e-06
-0.000183066
-4.51122e-07
-0.000182066
-3.05523e-06
-0.000180436
-4.83749e-06
-0.000178102
-7.00754e-06
-0.000175085
-9.06488e-06
-0.000171612
-1.04333e-05
-0.00016738
-1.26839e-05
-0.000162488
-1.46765e-05
-0.000156955
-1.66031e-05
-0.00015068
-1.88216e-05
-0.000143732
-2.08714e-05
-0.000136021
-2.31507e-05
-0.000127487
-2.55893e-05
-0.000118233
-2.77823e-05
-0.00010811
-3.04103e-05
-9.6983e-05
-3.33961e-05
-8.50892e-05
-3.56641e-05
-7.22295e-05
-3.85323e-05
-5.84424e-05
-4.13183e-05
-4.3861e-05
-4.36749e-05
-2.85755e-05
-4.59006e-05
-1.25698e-05
-4.79996e-05
4.03247e-06
-4.97884e-05
2.11547e-05
-5.13224e-05
3.86158e-05
-5.23631e-05
5.6305e-05
-5.30341e-05
7.40261e-05
-5.31012e-05
9.16226e-05
-5.27225e-05
0.000108834
-5.16166e-05
0.000125403
-4.96365e-05
0.000141133
-4.71532e-05
0.000155784
-4.38854e-05
0.000169062
-3.97455e-05
0.0001807
-3.48806e-05
0.000190512
-2.9405e-05
0.000198263
-2.32176e-05
0.000203778
-1.65103e-05
0.000206923
-9.39576e-06
0.00020763
-2.13322e-06
0.000205831
5.32348e-06
0.000201498
1.29833e-05
0.000194779
2.01383e-05
0.000185772
2.70085e-05
0.000174682
3.32179e-05
0.000161711
3.88568e-05
0.000147057
4.38928e-05
0.000131048
4.79601e-05
0.000113928
5.13123e-05
9.60202e-05
5.36696e-05
7.75834e-05
5.52545e-05
5.88514e-05
5.61752e-05
4.00964e-05
5.62457e-05
2.15304e-05
5.55719e-05
3.38785e-06
5.43749e-05
-1.41425e-05
5.2567e-05
-3.09822e-05
5.05126e-05
-4.69365e-05
4.78211e-05
-6.19296e-05
4.49388e-05
-7.58841e-05
4.18375e-05
-8.87469e-05
3.86127e-05
-0.000100483
3.52168e-05
-0.000111211
3.21822e-05
-0.000120924
2.91103e-05
-0.000129686
2.6332e-05
-0.000137529
2.35433e-05
-0.000144508
2.09446e-05
-0.000150728
1.86501e-05
-0.00015606
1.59909e-05
-0.000160658
1.38313e-05
-0.00016464
1.19608e-05
-0.000167909
9.7909e-06
-0.000170556
7.92856e-06
-0.000172648
6.24934e-06
-0.000174024
4.15016e-06
-0.000174903
2.67269e-06
-0.000175135
7.19614e-07
-0.000174748
-1.15339e-06
-0.000173738
-3.05228e-06
-0.000172127
-4.81189e-06
-0.000169846
-6.85499e-06
-0.00016691
-8.82152e-06
-0.000163216
-1.1096e-05
-0.000158821
-1.31722e-05
-0.00015369
-1.54314e-05
-0.000147728
-1.78965e-05
-0.000140857
-2.05743e-05
-0.000133206
-2.29212e-05
-0.000124753
-2.53978e-05
-0.00011532
-2.83378e-05
-0.000104961
-3.10892e-05
-9.34646e-05
-3.44684e-05
-8.11134e-05
-3.70516e-05
-6.78052e-05
-3.99095e-05
-5.35837e-05
-4.265e-05
-3.85406e-05
-4.50876e-05
-2.27103e-05
-4.74598e-05
-6.17788e-06
-4.95676e-05
1.09035e-05
-5.12569e-05
2.84544e-05
-5.25857e-05
4.63002e-05
-5.34935e-05
6.42626e-05
-5.3819e-05
8.21289e-05
-5.35614e-05
9.97027e-05
-5.26773e-05
0.000116771
-5.11613e-05
0.000133086
-4.89015e-05
0.000148457
-4.60478e-05
0.00016264
-4.24824e-05
0.000175361
-3.81327e-05
0.000186425
-3.31429e-05
0.000195648
-2.76346e-05
0.000202863
-2.1616e-05
0.000207936
-1.51908e-05
0.000210744
-8.43049e-06
0.00021128
-1.62885e-06
0.000209519
5.24173e-06
0.000205448
1.2219e-05
0.000199137
1.89095e-05
0.000190745
2.51315e-05
0.000180406
3.09583e-05
0.000168291
3.63255e-05
0.000154602
4.10218e-05
0.000139585
4.49654e-05
0.000123528
4.81304e-05
0.000106625
5.06902e-05
8.91033e-05
5.25121e-05
7.12721e-05
5.34087e-05
5.33048e-05
5.38406e-05
3.5441e-05
5.35464e-05
1.78713e-05
5.26899e-05
8.00698e-07
5.11824e-05
-1.57071e-05
4.94897e-05
-3.15762e-05
4.75856e-05
-4.66295e-05
4.51622e-05
-6.08575e-05
4.26765e-05
-7.42033e-05
3.9998e-05
-8.65381e-05
3.69918e-05
-9.79824e-05
3.434e-05
-0.000108319
3.09849e-05
-0.000117583
2.78191e-05
-0.000125962
2.51326e-05
-0.000133309
2.20257e-05
-0.000139783
1.93667e-05
-0.000145362
1.68046e-05
-0.000149981
1.38875e-05
-0.000153916
1.18004e-05
-0.000157052
9.36749e-06
-0.00015942
7.11872e-06
-0.000161023
4.82418e-06
-0.000161897
2.67171e-06
-0.000162129
7.48621e-07
-0.000161708
-1.27413e-06
-0.000160565
-3.43615e-06
-0.000158821
-5.25191e-06
-0.000156462
-7.07386e-06
-0.000153411
-9.13554e-06
-0.00014969
-1.11466e-05
-0.000145419
-1.28313e-05
-0.000140469
-1.48781e-05
-0.000134748
-1.71442e-05
-0.000128379
-1.91564e-05
-0.000121096
-2.18045e-05
-0.000113195
-2.37005e-05
-0.000104496
-2.61377e-05
-9.50361e-05
-2.83733e-05
-8.46627e-05
-3.11367e-05
-7.35062e-05
-3.3447e-05
-6.16127e-05
-3.56844e-05
-4.8872e-05
-3.83078e-05
-3.5218e-05
-4.0817e-05
-2.08485e-05
-4.31193e-05
-5.72608e-06
-4.53396e-05
1.00671e-05
-4.73622e-05
2.64449e-05
-4.90953e-05
4.3286e-05
-5.04961e-05
6.04683e-05
-5.1499e-05
7.78145e-05
-5.19974e-05
9.51738e-05
-5.20451e-05
0.000112304
-5.13448e-05
0.000129035
-5.01348e-05
0.000145061
-4.80275e-05
0.000160237
-4.54693e-05
0.000174268
-4.20749e-05
0.000186857
-3.77395e-05
0.000197886
-3.30779e-05
0.000207183
-2.78865e-05
0.000214565
-2.21624e-05
0.000219955
-1.62076e-05
0.000223305
-1.00733e-05
0.000224438
-3.41732e-06
0.000223386
3.20882e-06
0.000220333
9.26151e-06
0.000215176
1.55057e-05
0.000208084
2.12538e-05
0.000199182
2.66488e-05
0.000188537
3.18977e-05
0.000176385
3.64133e-05
0.000162802
4.0707e-05
0.000148008
4.43427e-05
0.000132252
4.72186e-05
0.000115694
4.96414e-05
9.86243e-05
5.11902e-05
8.12281e-05
5.21253e-05
6.36901e-05
5.25813e-05
4.62724e-05
5.21974e-05
2.90252e-05
5.17413e-05
1.22862e-05
5.0187e-05
-3.97453e-06
4.87616e-05
-1.96606e-05
4.70364e-05
-3.46121e-05
4.4839e-05
-4.8725e-05
4.23244e-05
-6.19852e-05
3.97607e-05
-7.42829e-05
3.68917e-05
-8.56334e-05
3.40446e-05
-9.60007e-05
3.10897e-05
-0.000105312
2.79218e-05
-0.000113631
2.49483e-05
-0.000120895
2.17796e-05
-0.000127108
1.8644e-05
-0.00013231
1.56118e-05
-0.000136484
1.25284e-05
-0.000139661
9.54834e-06
-0.00014186
6.58323e-06
-0.00014314
3.86887e-06
-0.000143592
1.38333e-06
-0.00014315
-1.30283e-06
-0.000141856
-3.89537e-06
-0.000139783
-6.1936e-06
-0.000137098
-8.01194e-06
-0.000133594
-1.05441e-05
-0.000129521
-1.21906e-05
-0.00012469
-1.45202e-05
-0.000119251
-1.63023e-05
-0.000113323
-1.77527e-05
-0.000106621
-2.01387e-05
-9.94067e-05
-2.16359e-05
-9.16194e-05
-2.33774e-05
-8.30994e-05
-2.55518e-05
-7.40265e-05
-2.72426e-05
-6.41213e-05
-2.96963e-05
-5.36385e-05
-3.14425e-05
-4.25712e-05
-3.32206e-05
-3.07149e-05
-3.55542e-05
-1.81702e-05
-3.76214e-05
-5.01069e-06
-3.9477e-05
8.83717e-06
-4.15288e-05
2.33574e-05
-4.35466e-05
3.83345e-05
-4.49016e-05
5.38086e-05
-4.63909e-05
6.96956e-05
-4.76315e-05
8.592e-05
-4.86456e-05
0.000102373
-4.93299e-05
0.000118796
-4.92056e-05
0.000135063
-4.87525e-05
0.000151006
-4.77854e-05
0.000166381
-4.60614e-05
0.000180947
-4.36607e-05
0.000194511
-4.06395e-05
0.000206869
-3.70264e-05
0.000217724
-3.25539e-05
0.000226922
-2.75589e-05
0.00023425
-2.19584e-05
0.000239492
-1.57581e-05
0.000242605
-9.32848e-06
0.000243252
-1.90906e-06
0.000241368
5.59747e-06
0.000237051
1.2965e-05
0.00023035
2.00946e-05
0.00022128
2.71742e-05
0.000210245
3.30649e-05
0.000197266
3.88873e-05
4.41442e-05
-0.000131041
3.67531e-05
-0.000139253
3.28308e-05
-0.000146629
2.9487e-05
-0.000153192
2.624e-05
-0.000158962
2.30772e-05
-0.000163988
2.01051e-05
-0.000168289
1.72025e-05
-0.000171897
1.44253e-05
-0.00017483
1.17172e-05
-0.000177083
8.98971e-06
-0.000178692
6.46047e-06
-0.000179654
3.87948e-06
-0.000179893
1.08069e-06
-0.000179465
-1.66117e-06
-0.000178321
-4.58738e-06
-0.000176473
-7.38386e-06
-0.000173948
-1.01167e-05
-0.000170678
-1.30913e-05
-0.000166614
-1.62722e-05
-0.000161823
-1.91892e-05
-0.000156087
-2.29801e-05
-0.000149488
-2.639e-05
-0.000142109
-2.95397e-05
-0.00013367
-3.37905e-05
-0.000124283
-3.75298e-05
-0.000113901
-4.15428e-05
-0.000102518
-4.55945e-05
-9.00984e-05
-4.96739e-05
-7.66522e-05
-5.37087e-05
-6.22277e-05
-5.76716e-05
-4.6906e-05
-6.12988e-05
-3.05463e-05
-6.53477e-05
-1.35489e-05
-6.79164e-05
4.20824e-06
-7.09355e-05
2.25364e-05
-7.32017e-05
4.11523e-05
-7.43497e-05
5.99785e-05
-7.51791e-05
7.88211e-05
-7.52444e-05
9.73373e-05
-7.39394e-05
0.000115397
-7.20811e-05
0.00013267
-6.89439e-05
0.000149016
-6.52559e-05
0.00016411
-6.02401e-05
0.000177672
-5.41218e-05
0.000189579
-4.75364e-05
0.000199536
-3.97211e-05
0.000207379
-3.13229e-05
0.000213051
-2.26216e-05
0.00021641
-1.33929e-05
0.000217298
-3.57517e-06
0.000215774
5.96316e-06
0.000211841
1.57529e-05
0.000205724
2.44445e-05
0.000197418
3.31298e-05
0.000187057
4.13685e-05
0.000174823
4.88156e-05
0.000160951
5.53653e-05
0.000145691
6.08982e-05
0.000129222
6.57425e-05
0.000111862
6.93586e-05
9.375e-05
7.23289e-05
7.51586e-05
7.42199e-05
5.63289e-05
7.51959e-05
3.75542e-05
7.49669e-05
1.89548e-05
7.42869e-05
6.88909e-07
7.29979e-05
-1.6971e-05
7.05859e-05
-3.39751e-05
6.79714e-05
-5.01896e-05
6.48261e-05
-6.56104e-05
6.16555e-05
-8.00885e-05
5.79172e-05
-9.36348e-05
5.41916e-05
-0.000106254
5.04721e-05
-0.000117839
4.6375e-05
-0.000128429
4.23658e-05
-0.000138047
3.84897e-05
-0.00014664
3.44258e-05
-0.000154356
3.08853e-05
-0.000161067
2.68716e-05
-0.00016688
2.32713e-05
-0.000171783
1.96456e-05
-0.000175793
1.60734e-05
-0.000178918
1.24333e-05
-0.00018123
9.17062e-06
-0.000182627
5.54317e-06
-0.000183282
2.56532e-06
-0.000183163
-5.70446e-07
-0.000182174
-4.04459e-06
-0.000180525
-6.48634e-06
-0.000178198
-9.3351e-06
-0.000175197
-1.20652e-05
-0.00017171
-1.39204e-05
-0.000167482
-1.6912e-05
-0.000162598
-1.95606e-05
-0.00015705
-2.21509e-05
-0.000150776
-2.50957e-05
-0.000143868
-2.77795e-05
-0.000136146
-3.08731e-05
-0.000127599
-3.41365e-05
-0.000118377
-3.70039e-05
-0.000108275
-4.05122e-05