/*--------------------------------*- C++ -*----------------------------------*\
| =========                 |                                                 |
| \\      /  F ield         | OpenFOAM: The Open Source CFD Toolbox           |
|  \\    /   O peration     | Version:  3.0.1                                 |
|   \\  /    A nd           | Web:      www.OpenFOAM.org                      |
|    \\/     M anipulation  |                                                 |
\*---------------------------------------------------------------------------*/
FoamFile
{
    version     2.0;
    format      ascii;
    class       volVectorField;
    location    "89.2";
    object      U;
}
// * * * * * * * * * * * * * * * * * * * * * * * * * * * * * * * * * * * * * //

dimensions      [0 1 -1 0 0 0 0];

internalField   nonuniform List<vector> 
21420
(
(-0.0476361 -0.0014343 0)
(-0.0344802 -0.00153861 0)
(-0.0181592 -0.00161642 0)
(-0.00136354 -0.00169972 0)
(0.0156897 -0.00178248 0)
(0.0338141 -0.00182563 0)
(0.0524669 -0.00188615 0)
(0.0714525 -0.00189628 0)
(0.0905587 -0.00188413 0)
(0.109569 -0.00188578 0)
(0.12825 -0.0018273 0)
(0.146337 -0.00174295 0)
(0.163564 -0.0016645 0)
(0.179669 -0.00152969 0)
(0.19439 -0.00139339 0)
(0.207479 -0.0012115 0)
(0.218704 -0.00101136 0)
(0.227858 -0.000801671 0)
(0.234777 -0.000570103 0)
(0.239351 -0.000330719 0)
(0.241465 -8.63387e-05 0)
(0.241145 0.00015707 0)
(0.2383 0.000407937 0)
(0.232984 0.000641932 0)
(0.225377 0.000870303 0)
(0.21559 0.00106628 0)
(0.203815 0.00125912 0)
(0.190255 0.00143633 0)
(0.175143 0.00155786 0)
(0.158747 0.00168275 0)
(0.141313 0.00178544 0)
(0.123099 0.00182641 0)
(0.104369 0.00187637 0)
(0.0853484 0.00186944 0)
(0.0662654 0.00187316 0)
(0.0473105 0.00185325 0)
(0.0285346 0.00179247 0)
(0.0105953 0.00174115 0)
(-0.0062647 0.00168037 0)
(-0.022522 0.00158874 0)
(-0.0380721 0.00150618 0)
(-0.0527424 0.00140623 0)
(-0.066476 0.0013148 0)
(-0.0792437 0.0012197 0)
(-0.0910299 0.00111814 0)
(-0.101842 0.00102351 0)
(-0.111691 0.000929012 0)
(-0.120596 0.000834237 0)
(-0.128583 0.000744635 0)
(-0.135678 0.000656991 0)
(-0.14191 0.000571541 0)
(-0.147314 0.000490174 0)
(-0.151929 0.000409611 0)
(-0.155768 0.000335255 0)
(-0.158849 0.000260208 0)
(-0.161205 0.000186069 0)
(-0.162838 0.000120034 0)
(-0.163743 5.11004e-05 0)
(-0.163945 -1.94313e-05 0)
(-0.163443 -8.91992e-05 0)
(-0.16221 -0.000165529 0)
(-0.160273 -0.000233291 0)
(-0.157646 -0.000304702 0)
(-0.154192 -0.000386373 0)
(-0.149973 -0.000461701 0)
(-0.144916 -0.000536746 0)
(-0.138973 -0.00063764 0)
(-0.132191 -0.000718207 0)
(-0.124484 -0.000818668 0)
(-0.115747 -0.000916093 0)
(-0.106095 -0.00100262 0)
(-0.0954442 -0.00111063 0)
(-0.0837446 -0.00120917 0)
(-0.07121 -0.001301 0)
(-0.0576659 -0.00140788 0)
(-0.043051 -0.00147522 0)
(-0.0276803 -0.00156635 0)
(-0.0115147 -0.00164656 0)
(0.00555287 -0.00171147 0)
(0.0231696 -0.00176259 0)
(0.0411151 -0.00180143 0)
(0.059328 -0.00182587 0)
(0.0777052 -0.0018348 0)
(0.0961025 -0.00183081 0)
(0.114379 -0.00180096 0)
(0.132296 -0.00176059 0)
(0.149677 -0.00169657 0)
(0.166315 -0.00160757 0)
(0.181967 -0.00150273 0)
(0.19646 -0.00137165 0)
(0.209529 -0.00121537 0)
(0.220925 -0.00103391 0)
(0.230383 -0.000828714 0)
(0.237649 -0.00059925 0)
(0.242508 -0.000356709 0)
(0.244797 -0.000103869 0)
(0.244596 0.000151186 0)
(0.241705 0.000414394 0)
(0.236241 0.00066019 0)
(0.228439 0.000894168 0)
(0.218385 0.00109981 0)
(0.206284 0.00129265 0)
(0.192349 0.0014657 0)
(0.176803 0.00161489 0)
(0.159882 0.00173913 0)
(0.141835 0.00183281 0)
(0.122966 0.00191206 0)
(0.103499 0.00195328 0)
(0.083674 0.0019765 0)
(0.0637679 0.00196715 0)
(0.0440484 0.00194001 0)
(0.0247376 0.0018938 0)
(0.00598501 0.00182576 0)
(-0.0120265 0.00175069 0)
(-0.0291646 0.00165903 0)
(-0.0453681 0.00155352 0)
(-0.0605299 0.00145171 0)
(-0.0745944 0.00134844 0)
(-0.087572 0.00123109 0)
(-0.0994837 0.00112495 0)
(-0.110293 0.00101376 0)
(-0.120025 0.000920218 0)
(-0.128746 0.000816469 0)
(-0.136487 0.000717061 0)
(-0.143237 0.000618228 0)
(-0.149051 0.000527263 0)
(-0.153933 0.00044763 0)
(-0.157934 0.00035 0)
(-0.161072 0.000272348 0)
(-0.163381 0.000187205 0)
(-0.164882 0.000110629 0)
(-0.165606 3.52996e-05 0)
(-0.165583 -4.16031e-05 0)
(-0.164828 -0.000106469 0)
(-0.16336 -0.000181766 0)
(-0.161258 -0.000245915 0)
(-0.158458 -0.000300628 0)
(-0.155007 -0.000375618 0)
(-0.150977 -0.000430142 0)
(-0.146283 -0.000497138 0)
(-0.140985 -0.000560586 0)
(-0.135038 -0.000619802 0)
(-0.128422 -0.000696921 0)
(-0.121124 -0.000742672 0)
(-0.113101 -0.000832499 0)
(-0.104342 -0.000903101 0)
(-0.0948296 -0.000986429 0)
(-0.0845196 -0.00106967 0)
(-0.0733783 -0.00113818 0)
(-0.0613729 -0.00122506 0)
(-0.0485833 -0.00131189 0)
(-0.0349751 -0.00139745 0)
(-0.0205599 -0.00146068 0)
(-0.00535539 -0.0015342 0)
(0.010479 -0.00160765 0)
(0.0269175 -0.00164742 0)
(0.0437932 -0.00169377 0)
(0.0610153 -0.0017184 0)
(0.0783973 -0.00172504 0)
(0.0957715 -0.00171639 0)
(0.112953 -0.00168644 0)
(0.129699 -0.00162927 0)
(0.145798 -0.00155455 0)
(0.161003 -0.00145464 0)
(0.175073 -0.00133126 0)
(0.187739 -0.00118118 0)
(0.198758 -0.00100166 0)
(0.20788 -0.000795286 0)
(0.214853 -0.000583482 0)
(0.219534 -0.000347992 0)
(0.221774 -0.000100799 0)
(0.221569 0.000146252 0)
(0.218717 0.000410899 0)
(0.21331 0.000659253 0)
(0.205462 0.00089211 0)
(0.195321 0.00111563 0)
(0.183082 0.00131455 0)
(0.168958 0.00148409 0)
(0.153225 0.00163213 0)
(0.136153 0.00174209 0)
(0.118056 0.00183802 0)
(0.0992317 0.0018997 0)
(0.0799879 0.00192561 0)
(0.0605678 0.00192354 0)
(0.0412299 0.00190846 0)
(0.0221856 0.00186426 0)
(0.00364665 0.00181862 0)
(-0.0142329 0.00173702 0)
(-0.0312987 0.00164816 0)
(-0.0474243 0.00154916 0)
(-0.0625278 0.00144324 0)
(-0.076514 0.00132835 0)
(-0.0893373 0.00122071 0)
(-0.101027 0.00110253 0)
(-0.111594 0.000988311 0)
(-0.121041 0.000895286 0)
(-0.129462 0.000785158 0)
(-0.136926 0.000691409 0)
(-0.143464 0.000597071 0)
(-0.149122 0.000514153 0)
(-0.153968 0.000451921 0)
(-0.158115 0.000374977 0)
(-0.161603 0.000314364 0)
(-0.164473 0.000250341 0)
(-0.166752 0.00018729 0)
(-0.168388 0.000143283 0)
(-0.169405 7.3741e-05 0)
(-0.1699 1.4637e-05 0)
(-0.169811 -2.63325e-05 0)
(-0.169174 -8.95567e-05 0)
(-0.168099 -0.000144075 0)
(-0.166466 -0.000176565 0)
(-0.164309 -0.000238612 0)
(-0.161646 -0.000293344 0)
(-0.158355 -0.000354152 0)
(-0.154465 -0.000418782 0)
(-0.149919 -0.00048137 0)
(-0.144665 -0.000558264 0)
(-0.138694 -0.00062536 0)
(-0.131939 -0.000708757 0)
(-0.124388 -0.000791734 0)
(-0.115977 -0.000872699 0)
(-0.106734 -0.00095729 0)
(-0.0966251 -0.00104237 0)
(-0.0856426 -0.00112921 0)
(-0.0737969 -0.0012175 0)
(-0.0610848 -0.00130185 0)
(-0.047532 -0.00139181 0)
(-0.0331372 -0.00145715 0)
(-0.0180049 -0.00153701 0)
(-0.00215929 -0.00159658 0)
(0.014255 -0.0016517 0)
(0.0311176 -0.00168936 0)
(0.0482751 -0.00171092 0)
(0.0655649 -0.00171613 0)
(0.0828148 -0.00169764 0)
(0.0997491 -0.00165677 0)
(0.116143 -0.00159074 0)
(0.131755 -0.0014953 0)
(0.146278 -0.00138016 0)
(0.159468 -0.00123291 0)
(0.171051 -0.00106095 0)
(0.180807 -0.000867406 0)
(0.188532 -0.00066008 0)
(0.194053 -0.000436505 0)
(0.19726 -0.000197094 0)
(0.198036 4.3262e-05 0)
(0.196339 0.000290836 0)
(0.192063 0.000541093 0)
(0.185429 0.000775713 0)
(0.176495 0.000991628 0)
(0.16545 0.00119474 0)
(0.152494 0.00137192 0)
(0.137886 0.00151943 0)
(0.121927 0.00164015 0)
(0.104913 0.00173096 0)
(0.0871283 0.00179359 0)
(0.0688396 0.00183146 0)
(0.0503214 0.00184851 0)
(0.0317924 0.00183002 0)
(0.013464 0.0017984 0)
(-0.0044155 0.0017576 0)
(-0.0217461 0.00168706 0)
(-0.0383747 0.00161415 0)
(-0.054126 0.00152301 0)
(-0.0689959 0.00143147 0)
(-0.0829335 0.00133931 0)
(-0.0958496 0.00124299 0)
(-0.107749 0.00113942 0)
(-0.118644 0.00103565 0)
(-0.128446 0.00093008 0)
(-0.137164 0.000826701 0)
(-0.14485 0.000725816 0)
(-0.151521 0.000631123 0)
(-0.157285 0.000536717 0)
(-0.162168 0.000454305 0)
(-0.166207 0.000372193 0)
(-0.169515 0.000296022 0)
(-0.171989 0.00021481 0)
(-0.173581 0.000133182 0)
(-0.174396 5.97233e-05 0)
(-0.174346 -4.05e-05 0)
(-0.173377 -0.000120896 0)
(-0.171762 -0.000193994 0)
(-0.169409 -0.000257074 0)
(-0.166618 -0.000291501 0)
(-0.163614 -0.000321912 0)
(-0.160082 -0.000371283 0)
(-0.156213 -0.000404515 0)
(-0.151901 -0.000471395 0)
(-0.146872 -0.00052811 0)
(-0.141328 -0.000599011 0)
(-0.134931 -0.000696947 0)
(-0.127532 -0.000785191 0)
(-0.119325 -0.000878572 0)
(-0.110084 -0.000996653 0)
(-0.0996136 -0.00110107 0)
(-0.0882129 -0.00120038 0)
(-0.075644 -0.00132376 0)
(-0.0620277 -0.00141725 0)
(-0.0474528 -0.00153342 0)
(-0.0317819 -0.0016189 0)
(-0.015411 -0.0016861 0)
(0.00305124 -0.00178174 0)
(0.0228699 -0.00183084 0)
(0.0422345 -0.0018555 0)
(0.0617301 -0.00189556 0)
(0.0812467 -0.00188352 0)
(0.100533 -0.00187678 0)
(0.119425 -0.00182213 0)
(0.137609 -0.00173726 0)
(0.154834 -0.00164879 0)
(0.170893 -0.00151879 0)
(0.185513 -0.00136307 0)
(0.198459 -0.00119571 0)
(0.209526 -0.000999188 0)
(0.218508 -0.000789864 0)
(0.225243 -0.000561954 0)
(0.229598 -0.000323099 0)
(0.231506 -7.75422e-05 0)
(0.231118 0.000163104 0)
(0.228293 0.00040978 0)
(0.223054 0.00063195 0)
(0.215556 0.000854689 0)
(0.205924 0.00104677 0)
(0.19434 0.0012373 0)
(0.180978 0.00141303 0)
(0.166067 0.00153606 0)
(0.149867 0.00166214 0)
(0.13261 0.00176715 0)
(0.114548 0.00181287 0)
(0.0959417 0.00186699 0)
(0.077014 0.0018989 0)
(0.0579775 0.0018767 0)
(0.03899 0.00186701 0)
(0.0200942 0.00181314 0)
(0.00207578 0.00176325 0)
(-0.0150675 0.00170939 0)
(-0.0318018 0.00162102 0)
(-0.0477645 0.00154521 0)
(-0.0628688 0.00146109 0)
(-0.0770531 0.00135839 0)
(-0.0902825 0.00126685 0)
(-0.102538 0.00116306 0)
(-0.113812 0.00106955 0)
(-0.124109 0.000975259 0)
(-0.133438 0.000876375 0)
(-0.141818 0.000785159 0)
(-0.14927 0.000695254 0)
(-0.155818 0.000604961 0)
(-0.161486 0.000519837 0)
(-0.166301 0.00043545 0)
(-0.170286 0.000354851 0)
(-0.173464 0.000276021 0)
(-0.175855 0.000198518 0)
(-0.177477 0.000122218 0)
(-0.178328 4.77629e-05 0)
(-0.0476736 -0.00430307 0)
(-0.0345166 -0.00461615 0)
(-0.0181955 -0.00484971 0)
(-0.00139559 -0.00509939 0)
(0.0156647 -0.00534783 0)
(0.0337944 -0.00547743 0)
(0.0524532 -0.00565916 0)
(0.0714466 -0.00568966 0)
(0.0905611 -0.00565328 0)
(0.109581 -0.00565835 0)
(0.128272 -0.00548294 0)
(0.146369 -0.0052299 0)
(0.163607 -0.00499459 0)
(0.179722 -0.00459008 0)
(0.194455 -0.00418118 0)
(0.207552 -0.00363543 0)
(0.218784 -0.00303488 0)
(0.227946 -0.00240557 0)
(0.234868 -0.00171155 0)
(0.239446 -0.000990831 0)
(0.241566 -0.000259782 0)
(0.241247 0.000471049 0)
(0.238392 0.00122426 0)
(0.233076 0.00192598 0)
(0.225465 0.00261146 0)
(0.215669 0.00319951 0)
(0.203887 0.00377819 0)
(0.190319 0.00430994 0)
(0.175196 0.00467457 0)
(0.158791 0.00504927 0)
(0.141347 0.00535742 0)
(0.123123 0.00548022 0)
(0.104384 0.00563005 0)
(0.0853541 0.00560916 0)
(0.0662626 0.00562029 0)
(0.0473 0.00556064 0)
(0.0285187 0.00537787 0)
(0.0105747 0.00522396 0)
(-0.00628972 0.00504139 0)
(-0.0225507 0.00476656 0)
(-0.0381036 0.00451884 0)
(-0.0527752 0.00421893 0)
(-0.0665102 0.0039446 0)
(-0.0792786 0.00365926 0)
(-0.0910648 0.00335454 0)
(-0.101877 0.00307068 0)
(-0.111725 0.00278711 0)
(-0.12063 0.00250293 0)
(-0.128617 0.00223395 0)
(-0.13571 0.00197109 0)
(-0.141942 0.001715 0)
(-0.147346 0.00147151 0)
(-0.15196 0.00122958 0)
(-0.155801 0.00100517 0)
(-0.158882 0.000780239 0)
(-0.161237 0.000559888 0)
(-0.162873 0.00036292 0)
(-0.16378 0.000154048 0)
(-0.163985 -6.05551e-05 0)
(-0.163484 -0.000268012 0)
(-0.162254 -0.000495996 0)
(-0.160319 -0.000699608 0)
(-0.157695 -0.0009143 0)
(-0.154246 -0.00116 0)
(-0.15003 -0.00138583 0)
(-0.144974 -0.00160907 0)
(-0.139033 -0.00190821 0)
(-0.132258 -0.00215807 0)
(-0.124547 -0.00245443 0)
(-0.115814 -0.00274711 0)
(-0.10616 -0.00301027 0)
(-0.095506 -0.00332604 0)
(-0.0838186 -0.00363605 0)
(-0.0712688 -0.00390069 0)
(-0.0577289 -0.00422641 0)
(-0.0430974 -0.00442365 0)
(-0.027736 -0.00470385 0)
(-0.0115555 -0.00493769 0)
(0.00551368 -0.0051361 0)
(0.0231448 -0.00528846 0)
(0.0410955 -0.00540603 0)
(0.0593222 -0.00547489 0)
(0.0776997 -0.00551514 0)
(0.096124 -0.00548614 0)
(0.114397 -0.00541338 0)
(0.132341 -0.00528449 0)
(0.149741 -0.00508257 0)
(0.16638 -0.00484122 0)
(0.182069 -0.0045086 0)
(0.196578 -0.00410826 0)
(0.209662 -0.00365363 0)
(0.221077 -0.00310749 0)
(0.230551 -0.00249126 0)
(0.237837 -0.00180818 0)
(0.242718 -0.00107655 0)
(0.245023 -0.000318887 0)
(0.244816 0.000443687 0)
(0.241917 0.00123601 0)
(0.236459 0.00197387 0)
(0.228651 0.00267012 0)
(0.218605 0.00330536 0)
(0.206494 0.00389227 0)
(0.192538 0.00440224 0)
(0.176966 0.00484474 0)
(0.160029 0.00520711 0)
(0.141976 0.00550316 0)
(0.123079 0.00573486 0)
(0.103589 0.00586036 0)
(0.083744 0.00592999 0)
(0.0638234 0.0059088 0)
(0.0440917 0.00582574 0)
(0.0247657 0.00568944 0)
(0.00599497 0.00547668 0)
(-0.0120342 0.00524562 0)
(-0.0291862 0.00497631 0)
(-0.0454004 0.00466784 0)
(-0.060582 0.00434437 0)
(-0.0746562 0.00404278 0)
(-0.087645 0.00369704 0)
(-0.0995703 0.00338389 0)
(-0.110392 0.00304903 0)
(-0.12014 0.00276476 0)
(-0.128872 0.00244476 0)
(-0.13662 0.00216015 0)
(-0.143387 0.00185815 0)
(-0.149215 0.00158393 0)
(-0.154111 0.00133358 0)
(-0.158114 0.00105872 0)
(-0.161269 0.000819225 0)
(-0.163592 0.000562322 0)
(-0.165103 0.000335699 0)
(-0.165836 0.000109306 0)
(-0.165824 -0.000128567 0)
(-0.165074 -0.000312362 0)
(-0.163617 -0.000544277 0)
(-0.16153 -0.00074803 0)
(-0.158732 -0.000902446 0)
(-0.155293 -0.00111616 0)
(-0.151276 -0.00128774 0)
(-0.146592 -0.0014923 0)
(-0.141295 -0.00168644 0)
(-0.135347 -0.00185208 0)
(-0.128723 -0.00208887 0)
(-0.121443 -0.00224827 0)
(-0.113403 -0.00249583 0)
(-0.10466 -0.00271792 0)
(-0.0951298 -0.00295011 0)
(-0.0848254 -0.00321691 0)
(-0.0736583 -0.00341412 0)
(-0.0616622 -0.00368691 0)
(-0.048851 -0.00393222 0)
(-0.0352492 -0.00420099 0)
(-0.0208086 -0.00438006 0)
(-0.00560482 -0.00461472 0)
(0.0102653 -0.00480676 0)
(0.0267068 -0.00496291 0)
(0.0436115 -0.00508194 0)
(0.0608502 -0.00515804 0)
(0.0782585 -0.00519015 0)
(0.0956696 -0.00515127 0)
(0.112862 -0.00506028 0)
(0.129626 -0.00490469 0)
(0.145749 -0.0046783 0)
(0.160995 -0.00437306 0)
(0.175092 -0.00399086 0)
(0.187781 -0.00353583 0)
(0.198815 -0.00301016 0)
(0.207945 -0.00240897 0)
(0.214949 -0.0017487 0)
(0.219647 -0.00104484 0)
(0.221904 -0.00030199 0)
(0.221699 0.000430631 0)
(0.218844 0.00122512 0)
(0.213448 0.00197293 0)
(0.205601 0.00267459 0)
(0.195454 0.00334346 0)
(0.183207 0.0039483 0)
(0.169069 0.0044611 0)
(0.153322 0.00489197 0)
(0.136239 0.00524439 0)
(0.118112 0.00551523 0)
(0.0992734 0.00568672 0)
(0.0800212 0.00578305 0)
(0.0605834 0.00578372 0)
(0.0412176 0.00572541 0)
(0.0221547 0.00559868 0)
(0.00359154 0.00544518 0)
(-0.0143021 0.00520323 0)
(-0.0313816 0.00495434 0)
(-0.047532 0.00465476 0)
(-0.0626577 0.00432983 0)
(-0.0766528 0.0039957 0)
(-0.0894942 0.00366477 0)
(-0.101205 0.00330583 0)
(-0.111781 0.00296441 0)
(-0.121241 0.00267674 0)
(-0.129664 0.00235336 0)
(-0.137126 0.00208723 0)
(-0.143679 0.00180775 0)
(-0.149349 0.00154683 0)
(-0.154211 0.00135107 0)
(-0.158369 0.00112956 0)
(-0.161864 0.000952887 0)
(-0.164746 0.000756337 0)
(-0.167025 0.000568752 0)
(-0.168674 0.0004205 0)
(-0.169705 0.000212782 0)
(-0.170195 4.20082e-05 0)
(-0.170111 -7.61855e-05 0)
(-0.16949 -0.000265688 0)
(-0.168398 -0.000416139 0)
(-0.166776 -0.000537298 0)
(-0.164617 -0.000714411 0)
(-0.161953 -0.000884273 0)
(-0.158673 -0.00106758 0)
(-0.154789 -0.00127209 0)
(-0.150221 -0.00143508 0)
(-0.144978 -0.001688 0)
(-0.138978 -0.00186489 0)
(-0.132227 -0.00213057 0)
(-0.124669 -0.0023701 0)
(-0.116255 -0.00262668 0)
(-0.107003 -0.00287611 0)
(-0.0968864 -0.0031366 0)
(-0.0858848 -0.00339576 0)
(-0.0740244 -0.00365889 0)
(-0.0613041 -0.00391461 0)
(-0.0477328 -0.00416966 0)
(-0.0333297 -0.00438412 0)
(-0.0181793 -0.00461475 0)
(-0.00232019 -0.00479658 0)
(0.0141201 -0.00495988 0)
(0.0310024 -0.00506782 0)
(0.0481721 -0.0051451 0)
(0.0654931 -0.00515041 0)
(0.0827506 -0.00510269 0)
(0.0997159 -0.00497729 0)
(0.116136 -0.00478299 0)
(0.131766 -0.00450155 0)
(0.14632 -0.00413554 0)
(0.159525 -0.00369969 0)
(0.171124 -0.00318926 0)
(0.180897 -0.00260878 0)
(0.188635 -0.00198215 0)
(0.194167 -0.00131204 0)
(0.197381 -0.000587012 0)
(0.198145 0.000122616 0)
(0.196438 0.000868155 0)
(0.192166 0.0016303 0)
(0.185513 0.00232072 0)
(0.17657 0.00298158 0)
(0.165509 0.0035854 0)
(0.152535 0.00411342 0)
(0.137914 0.00455672 0)
(0.121944 0.00492553 0)
(0.104925 0.00520071 0)
(0.0871236 0.00539117 0)
(0.06881 0.00548915 0)
(0.0502837 0.00553873 0)
(0.0317538 0.00549538 0)
(0.0134179 0.00540145 0)
(-0.00447282 0.00527242 0)
(-0.0218078 0.00506147 0)
(-0.0384419 0.00483467 0)
(-0.0541942 0.00457129 0)
(-0.0690647 0.00430038 0)
(-0.0830076 0.00401658 0)
(-0.0959227 0.00372805 0)
(-0.107823 0.00342428 0)
(-0.118719 0.00310737 0)
(-0.128523 0.00279524 0)
(-0.137245 0.00247442 0)
(-0.144925 0.00217381 0)
(-0.151596 0.00189314 0)
(-0.157357 0.00161011 0)
(-0.162236 0.00136561 0)
(-0.16628 0.00111896 0)
(-0.169588 0.000884127 0)
(-0.172059 0.000644783 0)
(-0.173658 0.000403271 0)
(-0.174473 0.000181342 0)
(-0.174421 -0.000120489 0)
(-0.17345 -0.000363156 0)
(-0.171829 -0.000585083 0)
(-0.169468 -0.000772852 0)
(-0.166667 -0.000872094 0)
(-0.163664 -0.000967511 0)
(-0.16013 -0.00111457 0)
(-0.156262 -0.00121447 0)
(-0.151951 -0.00141072 0)
(-0.146927 -0.00158516 0)
(-0.141384 -0.00179538 0)
(-0.13499 -0.00208967 0)
(-0.127593 -0.00235514 0)
(-0.119387 -0.0026347 0)
(-0.110148 -0.00299328 0)
(-0.0996768 -0.0032974 0)
(-0.0882744 -0.00360038 0)
(-0.0757045 -0.00397674 0)
(-0.0620854 -0.00425555 0)
(-0.0475069 -0.00460215 0)
(-0.0318322 -0.00485767 0)
(-0.0154572 -0.00505854 0)
(0.00300999 -0.005346 0)
(0.0228383 -0.00549292 0)
(0.0422105 -0.00556745 0)
(0.061716 -0.00568683 0)
(0.0812413 -0.00565194 0)
(0.10054 -0.00563132 0)
(0.119443 -0.0054673 0)
(0.137637 -0.0052127 0)
(0.154874 -0.00494738 0)
(0.170943 -0.00455721 0)
(0.185574 -0.00408994 0)
(0.19853 -0.00358765 0)
(0.209605 -0.00299685 0)
(0.218594 -0.00236915 0)
(0.225332 -0.0016898 0)
(0.229701 -0.000966999 0)
(0.231611 -0.000234525 0)
(0.231216 0.000488624 0)
(0.228381 0.00122914 0)
(0.223144 0.00189549 0)
(0.215643 0.00256446 0)
(0.206004 0.00314087 0)
(0.194412 0.00371262 0)
(0.181043 0.00423994 0)
(0.166121 0.00460905 0)
(0.149912 0.00498735 0)
(0.132645 0.00530242 0)
(0.114573 0.00543952 0)
(0.0959568 0.00560188 0)
(0.0770199 0.00569758 0)
(0.0579754 0.00563091 0)
(0.0389808 0.00560171 0)
(0.0200773 0.00544 0)
(0.00205336 0.00529034 0)
(-0.0150933 0.00512859 0)
(-0.0318314 0.00486336 0)
(-0.0477975 0.00463588 0)
(-0.0629042 0.00438346 0)
(-0.0770895 0.0040753 0)
(-0.0903201 0.00380062 0)
(-0.102575 0.00348921 0)
(-0.11385 0.00320865 0)
(-0.124146 0.00292575 0)
(-0.133475 0.00262908 0)
(-0.141854 0.00235543 0)
(-0.149305 0.00208571 0)
(-0.155852 0.00181484 0)
(-0.161519 0.00155949 0)
(-0.166333 0.00130635 0)
(-0.170317 0.00106457 0)
(-0.173494 0.000828081 0)
(-0.175884 0.000595595 0)
(-0.177506 0.000366932 0)
(-0.178359 0.000143259 0)
(-0.0477483 -0.00717242 0)
(-0.0345882 -0.00769474 0)
(-0.0182668 -0.00808432 0)
(-0.00145822 -0.00849981 0)
(0.0156165 -0.00891447 0)
(0.0337569 -0.00913095 0)
(0.052428 -0.00943433 0)
(0.0714368 -0.00948546 0)
(0.0905682 -0.00942506 0)
(0.109608 -0.0094339 0)
(0.128318 -0.00914164 0)
(0.146434 -0.00871991 0)
(0.163696 -0.00832785 0)
(0.179831 -0.00765346 0)
(0.194585 -0.00697188 0)
(0.207699 -0.00606197 0)
(0.218946 -0.00506059 0)
(0.228123 -0.00401143 0)
(0.235054 -0.00285371 0)
(0.239637 -0.00165201 0)
(0.24177 -0.000429098 0)
(0.241447 0.000781996 0)
(0.238576 0.00204183 0)
(0.233258 0.00321105 0)
(0.225637 0.00435459 0)
(0.215825 0.005335 0)
(0.204027 0.0063 0)
(0.190441 0.00718652 0)
(0.175296 0.00779436 0)
(0.158871 0.00841894 0)
(0.141407 0.00893265 0)
(0.123162 0.00913701 0)
(0.104403 0.0093865 0)
(0.0853561 0.00935131 0)
(0.0662471 0.00936967 0)
(0.047269 0.00927049 0)
(0.028477 0.00896436 0)
(0.0105237 0.0087084 0)
(-0.00634965 0.00840316 0)
(-0.0226178 0.0079452 0)
(-0.0381759 0.00753206 0)
(-0.0528499 0.00703199 0)
(-0.0665873 0.00657456 0)
(-0.0793566 0.00609881 0)
(-0.0911419 0.00559089 0)
(-0.101953 0.00511763 0)
(-0.1118 0.00464507 0)
(-0.120703 0.00417127 0)
(-0.128687 0.00372325 0)
(-0.135779 0.00328529 0)
(-0.142008 0.00285861 0)
(-0.14741 0.00245215 0)
(-0.152021 0.0020491 0)
(-0.155859 0.00167651 0)
(-0.15894 0.00130105 0)
(-0.161292 0.000933797 0)
(-0.162931 0.000605386 0)
(-0.163839 0.000257314 0)
(-0.164039 -0.000101324 0)
(-0.16354 -0.0004472 0)
(-0.162311 -0.000826266 0)
(-0.160378 -0.00116615 0)
(-0.157753 -0.0015225 0)
(-0.154308 -0.0019332 0)
(-0.150095 -0.00230929 0)
(-0.145041 -0.002682 0)
(-0.139107 -0.0031815 0)
(-0.13233 -0.00359408 0)
(-0.124624 -0.00408946 0)
(-0.115894 -0.00458007 0)
(-0.106237 -0.00501621 0)
(-0.0955916 -0.00554886 0)
(-0.0838985 -0.00605626 0)
(-0.0713524 -0.00651069 0)
(-0.0577988 -0.00703131 0)
(-0.0431658 -0.00738166 0)
(-0.0278063 -0.00784078 0)
(-0.0116176 -0.00823255 0)
(0.00545971 -0.00856549 0)
(0.0231073 -0.00881358 0)
(0.0410625 -0.00901878 0)
(0.0593028 -0.00912499 0)
(0.0776919 -0.00919518 0)
(0.0961285 -0.00915153 0)
(0.114422 -0.00902109 0)
(0.132382 -0.00881259 0)
(0.149798 -0.00848252 0)
(0.166461 -0.008064 0)
(0.182166 -0.0075203 0)
(0.196685 -0.0068628 0)
(0.209798 -0.00608472 0)
(0.22123 -0.00518399 0)
(0.230719 -0.00416031 0)
(0.238027 -0.00301193 0)
(0.242917 -0.00179497 0)
(0.245237 -0.000520534 0)
(0.24501 0.000741067 0)
(0.242094 0.00206562 0)
(0.236638 0.00329223 0)
(0.228806 0.00445585 0)
(0.218731 0.00550935 0)
(0.206599 0.00648352 0)
(0.192616 0.00733884 0)
(0.177014 0.00808093 0)
(0.160041 0.00869244 0)
(0.14196 0.00918106 0)
(0.123027 0.00956824 0)
(0.1035 0.00977182 0)
(0.0836292 0.0098878 0)
(0.0636771 0.00983874 0)
(0.0439227 0.00971459 0)
(0.0245721 0.00948622 0)
(0.0057851 0.00913293 0)
(-0.0122528 0.00875024 0)
(-0.0294243 0.00829981 0)
(-0.0456456 0.0077782 0)
(-0.0608195 0.00725676 0)
(-0.0749116 0.00674792 0)
(-0.0879169 0.00616004 0)
(-0.0998371 0.0056337 0)
(-0.110655 0.00509144 0)
(-0.120408 0.00460882 0)
(-0.129155 0.00407625 0)
(-0.136903 0.00359056 0)
(-0.143667 0.00311208 0)
(-0.149488 0.00264135 0)
(-0.154381 0.00223258 0)
(-0.158388 0.00176676 0)
(-0.161542 0.00136502 0)
(-0.163874 0.000939823 0)
(-0.165395 0.000551224 0)
(-0.166127 0.000195479 0)
(-0.166108 -0.000207109 0)
(-0.165362 -0.000523832 0)
(-0.163915 -0.000904283 0)
(-0.16182 -0.00123318 0)
(-0.159043 -0.0015043 0)
(-0.155612 -0.00185877 0)
(-0.151596 -0.00215486 0)
(-0.146918 -0.00248327 0)
(-0.141626 -0.00280552 0)
(-0.135681 -0.00308178 0)
(-0.129063 -0.00347603 0)
(-0.121769 -0.0037586 0)
(-0.113744 -0.00415829 0)
(-0.104998 -0.00452492 0)
(-0.0954787 -0.00492541 0)
(-0.085155 -0.00534367 0)
(-0.073989 -0.00570909 0)
(-0.0619955 -0.00613396 0)
(-0.0491945 -0.00656492 0)
(-0.0355769 -0.00698614 0)
(-0.0211438 -0.00731598 0)
(-0.00593403 -0.00769742 0)
(0.00995858 -0.00801694 0)
(0.0264256 -0.00826912 0)
(0.0433442 -0.00847615 0)
(0.0605932 -0.00861052 0)
(0.0780311 -0.00864078 0)
(0.0954514 -0.00860049 0)
(0.112673 -0.00844567 0)
(0.129472 -0.00817457 0)
(0.145624 -0.00779782 0)
(0.160898 -0.00728529 0)
(0.175015 -0.00666289 0)
(0.187719 -0.00591414 0)
(0.198779 -0.00502284 0)
(0.207934 -0.00400759 0)
(0.214948 -0.00291895 0)
(0.219663 -0.00175101 0)
(0.221946 -0.000494304 0)
(0.221731 0.000712824 0)
(0.21887 0.00204442 0)
(0.213472 0.00329107 0)
(0.205613 0.00446318 0)
(0.195452 0.00557791 0)
(0.183188 0.00658054 0)
(0.169033 0.00743097 0)
(0.153259 0.00816155 0)
(0.136145 0.00873782 0)
(0.11799 0.00919654 0)
(0.0991313 0.00949315 0)
(0.0798525 0.00963949 0)
(0.0603967 0.00963822 0)
(0.0410043 0.00955094 0)
(0.0219241 0.00933747 0)
(0.00335504 0.00907689 0)
(-0.0145538 0.00868612 0)
(-0.0316564 0.00826225 0)
(-0.047827 0.0077637 0)
(-0.0629728 0.00722763 0)
(-0.0769743 0.00665682 0)
(-0.0898163 0.00610546 0)
(-0.101532 0.00551765 0)
(-0.112095 0.00494651 0)
(-0.121555 0.00446692 0)
(-0.129979 0.00392733 0)
(-0.137441 0.00346959 0)
(-0.143993 0.00301429 0)
(-0.149657 0.00259272 0)
(-0.15452 0.00224551 0)
(-0.158682 0.0018907 0)
(-0.162183 0.00157933 0)
(-0.165071 0.00126158 0)
(-0.167347 0.000957854 0)
(-0.169 0.000699973 0)
(-0.170038 0.000365958 0)
(-0.170518 9.29024e-05 0)
(-0.170442 -0.000144797 0)
(-0.169823 -0.000438648 0)
(-0.168728 -0.000695158 0)
(-0.167101 -0.000908361 0)
(-0.164953 -0.00119431 0)
(-0.162295 -0.00148016 0)
(-0.159016 -0.00175602 0)
(-0.155125 -0.00211212 0)
(-0.150566 -0.00240128 0)
(-0.145311 -0.00280356 0)
(-0.139316 -0.00312662 0)
(-0.132562 -0.00355751 0)
(-0.125004 -0.00394854 0)
(-0.116579 -0.00436555 0)
(-0.107336 -0.00480124 0)
(-0.0972049 -0.00522615 0)
(-0.0862023 -0.00566295 0)
(-0.0743292 -0.00609741 0)
(-0.0616138 -0.00653839 0)
(-0.048031 -0.00693617 0)
(-0.0336232 -0.00732074 0)
(-0.0184561 -0.00769013 0)
(-0.00259027 -0.00800285 0)
(0.0138603 -0.00826393 0)
(0.0307502 -0.00846323 0)
(0.0479536 -0.00857048 0)
(0.0652912 -0.00859906 0)
(0.0825755 -0.00850403 0)
(0.099561 -0.00830236 0)
(0.11601 -0.00797114 0)
(0.131673 -0.00750012 0)
(0.146247 -0.00690212 0)
(0.159471 -0.006173 0)
(0.171097 -0.00532003 0)
(0.18089 -0.00435412 0)
(0.188641 -0.00330946 0)
(0.19419 -0.0021841 0)
(0.197403 -0.000983931 0)
(0.198167 0.000206121 0)
(0.196441 0.00145623 0)
(0.192176 0.00271682 0)
(0.185515 0.00387306 0)
(0.176562 0.00496987 0)
(0.165486 0.00598042 0)
(0.152496 0.00686343 0)
(0.13786 0.00760042 0)
(0.121869 0.00820725 0)
(0.104832 0.00867443 0)
(0.0870159 0.00898354 0)
(0.0687011 0.00915326 0)
(0.0501658 0.00923104 0)
(0.0316211 0.00916421 0)
(0.013285 0.00899904 0)
(-0.0046118 0.00878787 0)
(-0.0219464 0.00843152 0)
(-0.0385711 0.00806208 0)
(-0.0543282 0.00762412 0)
(-0.0691977 0.00716499 0)
(-0.0831307 0.00669246 0)
(-0.0960429 0.00621819 0)
(-0.107946 0.00570232 0)
(-0.118837 0.00517868 0)
(-0.128639 0.00466049 0)
(-0.137356 0.0041285 0)
(-0.145028 0.0036253 0)
(-0.151702 0.00315635 0)
(-0.157453 0.00268365 0)
(-0.162324 0.00227802 0)
(-0.166369 0.00186787 0)
(-0.169677 0.00147703 0)
(-0.172147 0.00107863 0)
(-0.173762 0.000667481 0)
(-0.174576 0.000297288 0)
(-0.174523 -0.000202469 0)
(-0.173545 -0.000606846 0)
(-0.171912 -0.000975878 0)
(-0.169534 -0.0012905 0)
(-0.16672 -0.0014563 0)
(-0.163712 -0.00161215 0)
(-0.160179 -0.00185662 0)
(-0.156313 -0.00202284 0)
(-0.15201 -0.00235204 0)
(-0.14699 -0.00263986 0)
(-0.141454 -0.00299218 0)
(-0.135067 -0.00348249 0)
(-0.127674 -0.00392478 0)
(-0.11947 -0.0043913 0)
(-0.110235 -0.00498578 0)
(-0.0997647 -0.00549976 0)
(-0.0883622 -0.00599551 0)
(-0.0757899 -0.0066241 0)
(-0.062166 -0.00709043 0)
(-0.0475831 -0.00767108 0)
(-0.0319014 -0.00809734 0)
(-0.0155209 -0.00843412 0)
(0.0029568 -0.00891032 0)
(0.0228 -0.0091566 0)
(0.0421859 -0.00928123 0)
(0.0617083 -0.00948149 0)
(0.0812511 -0.00942234 0)
(0.10057 -0.0093883 0)
(0.119493 -0.00911559 0)
(0.137706 -0.008691 0)
(0.154966 -0.00824852 0)
(0.171055 -0.00759804 0)
(0.185703 -0.00681866 0)
(0.198678 -0.00598162 0)
(0.209767 -0.00499689 0)
(0.218771 -0.00394975 0)
(0.22552 -0.00281445 0)
(0.229897 -0.00161792 0)
(0.231817 -0.000391599 0)
(0.231404 0.0008115 0)
(0.228556 0.00204737 0)
(0.223319 0.00315875 0)
(0.215811 0.00427588 0)
(0.206157 0.0052371 0)
(0.19455 0.00619042 0)
(0.181165 0.00706966 0)
(0.166222 0.00768491 0)
(0.149994 0.00831555 0)
(0.132708 0.0088407 0)
(0.114615 0.00906896 0)
(0.095981 0.00933946 0)
(0.0770263 0.00949882 0)
(0.0579661 0.00938752 0)
(0.0389576 0.00933828 0)
(0.0200392 0.00906759 0)
(0.00200462 0.00882 0)
(-0.0151486 0.00854904 0)
(-0.0318939 0.00810662 0)
(-0.0478663 0.00772723 0)
(-0.0629777 0.00730632 0)
(-0.0771646 0.00679249 0)
(-0.0903972 0.00633452 0)
(-0.102652 0.00581536 0)
(-0.113927 0.00534766 0)
(-0.124223 0.00487607 0)
(-0.133549 0.00438156 0)
(-0.141927 0.00392542 0)
(-0.149377 0.00347588 0)
(-0.155921 0.00302444 0)
(-0.161587 0.00259887 0)
(-0.166398 0.002177 0)
(-0.170381 0.00177408 0)
(-0.173556 0.00137989 0)
(-0.175944 0.000992545 0)
(-0.177564 0.000612039 0)
(-0.178421 0.00023836 0)
(-0.0478603 -0.0100427 0)
(-0.0346956 -0.010775 0)
(-0.0183737 -0.011321 0)
(-0.00155219 -0.0119015 0)
(0.015544 -0.0124833 0)
(0.0337004 -0.0127873 0)
(0.05239 -0.0132131 0)
(0.0714219 -0.0132853 0)
(0.0905788 -0.0132013 0)
(0.109647 -0.0132144 0)
(0.128387 -0.0128054 0)
(0.146533 -0.012215 0)
(0.16383 -0.0116664 0)
(0.179993 -0.0107218 0)
(0.194782 -0.00976743 0)
(0.20792 -0.00849284 0)
(0.219189 -0.00708998 0)
(0.228389 -0.00562027 0)
(0.235334 -0.00399902 0)
(0.239924 -0.00231632 0)
(0.242079 -0.0006107 0)
(0.241738 0.00111222 0)
(0.238855 0.00286331 0)
(0.233531 0.00449803 0)
(0.225895 0.00610098 0)
(0.216057 0.00747423 0)
(0.204236 0.0088263 0)
(0.190625 0.010068 0)
(0.175447 0.0109192 0)
(0.158991 0.0117938 0)
(0.141497 0.0125131 0)
(0.123221 0.0127987 0)
(0.104432 0.0131476 0)
(0.0853589 0.0130975 0)
(0.0662239 0.0131227 0)
(0.0472223 0.0129844 0)
(0.0284142 0.0125527 0)
(0.0104469 0.0121958 0)
(-0.00643979 0.0117664 0)
(-0.0227187 0.0111254 0)
(-0.0382847 0.0105463 0)
(-0.0529621 0.00984574 0)
(-0.066703 0.00920489 0)
(-0.0794737 0.00853847 0)
(-0.0912577 0.00782716 0)
(-0.102068 0.00716437 0)
(-0.111913 0.0065027 0)
(-0.120812 0.00583932 0)
(-0.128793 0.00521221 0)
(-0.135881 0.00459921 0)
(-0.142106 0.00400199 0)
(-0.147506 0.00343211 0)
(-0.152112 0.00286945 0)
(-0.155947 0.00234799 0)
(-0.159028 0.00182171 0)
(-0.161374 0.00130934 0)
(-0.163015 0.000850105 0)
(-0.163932 0.000353323 0)
(-0.164122 -0.000143014 0)
(-0.163625 -0.000626832 0)
(-0.162398 -0.0011558 0)
(-0.160467 -0.00163284 0)
(-0.157843 -0.00213042 0)
(-0.154403 -0.00270695 0)
(-0.150195 -0.00323327 0)
(-0.145145 -0.0037557 0)
(-0.139217 -0.00445026 0)
(-0.13244 -0.00503265 0)
(-0.124742 -0.00572035 0)
(-0.116014 -0.00641045 0)
(-0.106357 -0.00702756 0)
(-0.0957167 -0.00776604 0)
(-0.0840242 -0.00848531 0)
(-0.0714767 -0.00912089 0)
(-0.0579069 -0.00983671 0)
(-0.0432706 -0.010344 0)
(-0.0279119 -0.0109819 0)
(-0.0117145 -0.0115357 0)