/*--------------------------------*- C++ -*----------------------------------*\
| =========                 |                                                 |
| \\      /  F ield         | OpenFOAM: The Open Source CFD Toolbox           |
|  \\    /   O peration     | Version:  3.0.1                                 |
|   \\  /    A nd           | Web:      www.OpenFOAM.org                      |
|    \\/     M anipulation  |                                                 |
\*---------------------------------------------------------------------------*/
FoamFile
{
    version     2.0;
    format      ascii;
    class       surfaceScalarField;
    location    "64.4";
    object      alphaPhi;
}
// * * * * * * * * * * * * * * * * * * * * * * * * * * * * * * * * * * * * * //

dimensions      [0 3 -1 0 0 0 0];

internalField   nonuniform List<scalar> 
42423
(
8.91521e-05
1.76546e-05
7.1321e-05
1.78311e-05
5.3113e-05
1.8208e-05
3.47193e-05
1.83937e-05
1.65023e-05
1.8217e-05
-1.53287e-06
1.80352e-05
-1.9059e-05
1.75261e-05
-3.59631e-05
1.69041e-05
-5.20799e-05
1.61167e-05
-6.72849e-05
1.52051e-05
-8.15802e-05
1.42952e-05
-9.48892e-05
1.3309e-05
-0.000107177
1.22878e-05
-0.000118472
1.12951e-05
-0.000128756
1.02841e-05
-0.000138071
9.31473e-06
-0.000146421
8.35037e-06
-0.000153842
7.42112e-06
-0.000160378
6.53535e-06
-0.000166055
5.6778e-06
-0.000170897
4.84104e-06
-0.000174953
4.05646e-06
-0.000178259
3.30596e-06
-0.000180831
2.57229e-06
-0.000182713
1.88176e-06
-0.000183908
1.19542e-06
-0.000184433
5.24783e-07
-0.000184267
-1.66415e-07
-0.000183353
-9.13874e-07
-0.000181754
-1.59851e-06
-0.000179498
-2.25645e-06
-0.000176457
-3.04116e-06
-0.000172686
-3.77121e-06
-0.000168111
-4.57439e-06
-0.000162749
-5.36255e-06
-0.000156595
-6.15333e-06
-0.000149571
-7.02408e-06
-0.000141705
-7.8662e-06
-0.000133017
-8.68837e-06
-0.000123145
-9.87181e-06
-0.000112474
-1.0671e-05
-0.000100697
-1.17774e-05
-8.79608e-05
-1.27358e-05
-7.44442e-05
-1.35167e-05
-5.98083e-05
-1.46359e-05
-4.43031e-05
-1.55053e-05
-2.80637e-05
-1.62394e-05
-1.11586e-05
-1.69051e-05
6.61466e-06
-1.77733e-05
2.46188e-05
-1.80042e-05
4.29944e-05
-1.83756e-05
6.14543e-05
-1.84599e-05
7.98569e-05
-1.84027e-05
9.80204e-05
-1.81635e-05
0.000115495
-1.74744e-05
0.000132181
-1.66861e-05
0.000147894
-1.57132e-05
0.000162286
-1.43925e-05
0.000175223
-1.2937e-05
0.000186432
-1.12089e-05
0.000195874
-9.44204e-06
0.000203298
-7.42391e-06
0.000208512
-5.21422e-06
0.000211502
-2.98938e-06
0.00021226
-7.58524e-07
0.000210546
1.71381e-06
0.000206516
4.03071e-06
0.000200232
6.28401e-06
0.000191842
8.3897e-06
0.000181427
1.04151e-05
0.000169251
1.21763e-05
0.000155435
1.38152e-05
0.000140082
1.53535e-05
0.000123644
1.64375e-05
0.000106322
1.73221e-05
8.8321e-05
1.80014e-05
6.98313e-05
1.84897e-05
5.12113e-05
1.862e-05
3.25356e-05
1.86758e-05
1.41932e-05
1.83423e-05
-3.83852e-06
1.80317e-05
-2.12742e-05
1.74357e-05
-3.80484e-05
1.67741e-05
-5.40078e-05
1.59593e-05
-6.90371e-05
1.50292e-05
-8.31197e-05
1.40824e-05
-9.61227e-05
1.30029e-05
-0.000108042
1.19195e-05
-0.000118885
1.08428e-05
-0.000128666
9.78072e-06
-0.000137445
8.77814e-06
-0.000145246
7.80108e-06
-0.000152078
6.83185e-06
-0.000157982
5.90331e-06
-0.000162971
4.9888e-06
-0.000167093
4.1226e-06
-0.000170385
3.2914e-06
-0.000172894
2.50888e-06
-0.000174663
1.76851e-06
-0.000175713
1.0498e-06
-0.000176112
3.99013e-07
-0.000175853
-2.59097e-07
-0.000174957
-8.95712e-07
-0.000173427
-1.5306e-06
-0.000171268
-2.1589e-06
-0.000168481
-2.78735e-06
-0.00016508
-3.40104e-06
-0.000161025
-4.05496e-06
-0.000156307
-4.71755e-06
-0.000150933
-5.37403e-06
-0.000144841
-6.09276e-06
-0.000138069
-6.77218e-06
-0.000130509
-7.55998e-06
-0.000122175
-8.33321e-06
-0.000113078
-9.09741e-06
-0.000103192
-9.88612e-06
-9.25225e-05
-1.06696e-05
-8.10841e-05
-1.14385e-05
-6.88716e-05
-1.22125e-05
-5.59215e-05
-1.29502e-05
-4.22409e-05
-1.36807e-05
-2.78798e-05
-1.43611e-05
-1.29338e-05
-1.49461e-05
2.61189e-06
-1.55457e-05
1.861e-05
-1.59982e-05
3.50163e-05
-1.64064e-05
5.16664e-05
-1.66502e-05
6.83906e-05
-1.67243e-05
8.506e-05
-1.66694e-05
0.000101454
-1.63943e-05
0.000117378
-1.59234e-05
0.000132574
-1.51966e-05
0.000146832
-1.42577e-05
0.000159871
-1.30389e-05
0.000171496
-1.16258e-05
0.000181424
-9.92778e-06
0.000189515
-8.09144e-06
0.00019553
-6.01465e-06
0.000199411
-3.88088e-06
0.000201006
-1.59531e-06
0.000200341
6.65192e-07
0.000197327
3.0136e-06
0.000191931
5.39597e-06
0.000184333
7.59876e-06
0.000174626
9.70649e-06
0.000163022
1.16041e-05
0.000149693
1.33287e-05
0.000134877
1.48163e-05
0.000118788
1.60889e-05
0.000101733
1.7055e-05
8.39503e-05
1.77829e-05
6.56908e-05
1.82595e-05
4.72617e-05
1.84291e-05
2.88468e-05
1.84149e-05
1.07311e-05
1.81157e-05
-6.88464e-06
1.76157e-05
-2.38427e-05
1.69581e-05
-4.00197e-05
1.61769e-05
-5.53e-05
1.52804e-05
-6.95955e-05
1.42955e-05
-8.29035e-05
1.3308e-05
-9.51524e-05
1.22489e-05
-0.000106349
1.11971e-05
-0.000116524
1.01742e-05
-0.000125763
9.23919e-06
-0.000133989
8.22595e-06
-0.00014131
7.32097e-06
-0.000147849
6.53905e-06
-0.000153558
5.7097e-06
-0.000158523
4.96426e-06
-0.000162747
4.22429e-06
-0.000166272
3.5253e-06
-0.00016922
2.948e-06
-0.000171522
2.30172e-06
-0.000173227
1.70515e-06
-0.000174364
1.13709e-06
-0.000174963
5.99448e-07
-0.000175016
5.21066e-08
-0.000174527
-4.88282e-07
-0.000173471
-1.05637e-06
-0.000171872
-1.59909e-06
-0.000169729
-2.14305e-06
-0.000167034
-2.6945e-06
-0.000163768
-3.26581e-06
-0.000160034
-3.73426e-06
-0.000155693
-4.34125e-06
-0.000150823
-4.86966e-06
-0.000145321
-5.50197e-06
-0.000139201
-6.12026e-06
-0.000132377
-6.82345e-06
-0.000124854
-7.52338e-06
-0.000116561
-8.29353e-06
-0.000107491
-9.06971e-06
-9.76238e-05
-9.86714e-06
-8.69548e-05
-1.0669e-05
-7.5474e-05
-1.14809e-05
-6.32176e-05
-1.22565e-05
-5.015e-05
-1.30677e-05
-3.63012e-05
-1.38488e-05
-2.18145e-05
-1.44867e-05
-6.65029e-06
-1.51643e-05
9.0837e-06
-1.57341e-05
2.5259e-05
-1.61754e-05
4.17419e-05
-1.6483e-05
5.83505e-05
-1.66087e-05
7.48518e-05
-1.65014e-05
9.09496e-05
-1.60979e-05
0.000106471
-1.55211e-05
0.000121123
-1.46525e-05
0.000134719
-1.35961e-05
0.00014705
-1.2331e-05
0.00015794
-1.08897e-05
0.000167119
-9.17896e-06
0.000174474
-7.3554e-06
0.000179829
-5.35527e-06
0.000183054
-3.22537e-06
0.000184067
-1.01304e-06
0.000182895
1.17246e-06
0.000179491
3.40374e-06
0.000173861
5.63006e-06
0.000166188
7.67336e-06
0.0001566
9.58781e-06
0.000145266
1.13335e-05
0.00013237
1.28966e-05
0.000118135
1.42344e-05
0.000102721
1.54142e-05
8.64522e-05
1.62689e-05
6.95532e-05
1.6899e-05
5.22772e-05
1.7276e-05
3.49112e-05
1.7366e-05
1.7678e-05
1.72332e-05
8.0625e-07
1.68717e-05
-1.55585e-05
1.63647e-05
-3.12331e-05
1.56746e-05
-4.60823e-05
1.48493e-05
-6.00716e-05
1.39893e-05
-7.3126e-05
1.30544e-05
-8.52691e-05
1.21431e-05
-9.65728e-05
1.13037e-05
-0.000106923
1.035e-05
-0.000116396
9.47344e-06
-0.000124962
8.56545e-06
-0.000132642
7.68023e-06
-0.000139466
6.82412e-06
-0.000145472
6.00646e-06
-0.000150706
5.2337e-06
-0.000155245
4.53941e-06
-0.000159147
3.90226e-06
-0.000162483
3.33616e-06
-0.000165308
2.82479e-06
-0.000167649
2.34077e-06
-0.000169524
1.87557e-06
-0.000170981
1.45724e-06
-0.000171997
1.01598e-06
-0.000172567
5.69554e-07
-0.000172674
1.07583e-07
-0.000172265
-4.09009e-07
-0.000171386
-8.78061e-07
-0.000170065
-1.3209e-06
-0.000168323
-1.74172e-06
-0.000166243
-2.08027e-06
-0.000163761
-2.48148e-06
-0.000160923
-2.83786e-06
-0.000157624
-3.29959e-06
-0.000153738
-3.88572e-06
-0.000149122
-4.61538e-06
-0.000143786
-5.3364e-06
-0.00013756
-6.22576e-06
-0.000130445
-7.1146e-06
-0.000122445
-7.99991e-06
-0.000113564
-8.88075e-06
-0.000103835
-9.72904e-06
-9.32468e-05
-1.05884e-05
-8.19293e-05
-1.13175e-05
-6.96553e-05
-1.2274e-05
-5.6516e-05
-1.31394e-05
-4.25013e-05
-1.40147e-05
-2.75111e-05
-1.49903e-05
-1.16941e-05
-1.58171e-05
5.1559e-06
-1.685e-05
2.27441e-05
-1.75882e-05
4.113e-05
-1.83859e-05
5.99766e-05
-1.88466e-05
7.89931e-05
-1.90166e-05
9.79936e-05
-1.90006e-05
0.000116679
-1.86851e-05
0.000134461
-1.77826e-05
0.000151216
-1.67544e-05
0.000166507
-1.52915e-05
0.000180067
-1.35605e-05
0.000191696
-1.16289e-05
0.000201007
-9.31103e-06
0.000207982
-6.97499e-06
0.000212385
-4.40318e-06
0.000214086
-1.70035e-06
0.000213174
9.1198e-07
0.000209599
3.57486e-06
0.000203456
6.14319e-06
0.000195046
8.40932e-06
0.000184604
1.04422e-05
0.000172404
1.22003e-05
0.000158719
1.36847e-05
0.000143778
1.49409e-05
0.000127912
1.5866e-05
0.000111377
1.65354e-05
9.45425e-05
1.6834e-05
7.75093e-05
1.70332e-05
6.06552e-05
1.68541e-05
4.3979e-05
1.66761e-05
2.79206e-05
1.60584e-05
1.24475e-05
1.54731e-05
-2.42139e-06
1.48689e-05
-1.64746e-05
1.40532e-05
-2.96981e-05
1.32235e-05
-4.20604e-05
1.23623e-05
-5.35884e-05
1.1528e-05
-6.4295e-05
1.07066e-05
-7.42487e-05
9.95371e-06
-8.34932e-05
9.2445e-06
-9.20792e-05
8.58598e-06
-0.000100078
7.99929e-06
-0.000107526
7.44801e-06
-0.000114444
6.91771e-06
-0.00012086
6.41603e-06
-0.000126774
5.91418e-06
-0.00013218
5.40522e-06
-0.000137072
4.89204e-06
-0.000141426
4.35437e-06
-0.000145229
3.80261e-06
-0.000148416
3.1876e-06
-0.000150947
2.53115e-06
-0.000152797
1.85002e-06
-0.000153922
1.12506e-06
-0.000154292
3.69552e-07
-0.0001538
-4.9226e-07
-0.000152414
-1.38584e-06
-0.000150138
-2.27628e-06
-0.000147023
-3.11471e-06
-0.000142884
-4.13943e-06
-0.000137811
-5.07267e-06
-0.000131816
-5.99465e-06
-0.000124798
-7.01777e-06
-0.000116936
-7.86236e-06
-0.000107991
-8.94498e-06
-9.81661e-05
-9.82503e-06
-8.75453e-05
-1.06207e-05
-7.58864e-05
-1.16589e-05
-6.33707e-05
-1.25157e-05
-5.01182e-05
-1.32525e-05
-3.59647e-05
-1.41535e-05
-2.10878e-05
-1.48769e-05
-5.42159e-06
-1.56662e-05
1.0614e-05
-1.60356e-05
2.69137e-05
-1.62997e-05
4.35561e-05
-1.66424e-05
6.02377e-05
-1.66816e-05
-1.66677e-05
8.91696e-05
3.53162e-05
7.1331e-05
3.56697e-05
5.31157e-05
3.64233e-05
3.47147e-05
3.67947e-05
1.64875e-05
3.64442e-05
-1.55339e-06
3.60761e-05
-1.90838e-05
3.50565e-05
-3.59928e-05
3.38132e-05
-5.21141e-05
3.2238e-05
-6.73241e-05
3.0415e-05
-8.16249e-05
2.85961e-05
-9.4937e-05
2.66211e-05
-0.000107224
2.4575e-05
-0.00011852
2.25913e-05
-0.000128807
2.05707e-05
-0.000138121
1.8629e-05
-0.000146473
1.67022e-05
-0.000153899
1.48473e-05
-0.000160432
1.30685e-05
-0.000166105
1.13505e-05
-0.00017095
9.68624e-06
-0.000175011
8.11737e-06
-0.000178319
6.61334e-06
-0.000180892
5.14549e-06
-0.000182769
3.75928e-06
-0.000183956
2.38171e-06
-0.000184481
1.05009e-06
-0.000184315
-3.32276e-07
-0.000183402
-1.82725e-06
-0.000181804
-3.19638e-06
-0.000179549
-4.51093e-06
-0.000176502
-6.0888e-06
-0.000172738
-7.53544e-06
-0.000168163
-9.14927e-06
-0.000162806
-1.07189e-05
-0.000156656
-1.23041e-05
-0.000149628
-1.40514e-05
-0.00014176
-1.57342e-05
-0.000133058
-1.73904e-05
-0.000123202
-1.97279e-05
-0.000112531
-2.13426e-05
-0.000100752
-2.35562e-05
-8.80151e-05
-2.54728e-05
-7.44983e-05
-2.70335e-05
-5.98578e-05
-2.92764e-05
-4.43513e-05
-3.10118e-05
-2.81036e-05
-3.24872e-05
-1.11769e-05
-3.38318e-05
6.58611e-06
-3.55364e-05
2.45965e-05
-3.60146e-05
4.29835e-05
-3.67627e-05
6.14534e-05
-3.69299e-05
7.98682e-05
-3.68175e-05
9.80419e-05
-3.63372e-05
0.000115527
-3.49595e-05
0.00013223
-3.33892e-05
0.000147959
-3.14422e-05
0.000162358
-2.87918e-05
0.000175298
-2.58769e-05
0.000186515
-2.24262e-05
0.000195967
-1.8894e-05
0.000203402
-1.48588e-05
0.000208618
-1.04306e-05
0.000211612
-5.98274e-06
0.000212381
-1.52796e-06
0.000210661
3.43398e-06
0.000206632
8.05969e-06
0.000200348
1.25676e-05
0.00019195
1.67878e-05
0.000181525
2.08399e-05
0.000169342
2.436e-05
0.000155512
2.76451e-05
0.000140148
3.07176e-05
0.000123697
3.28878e-05
0.000106362
3.46577e-05
8.83479e-05
3.60151e-05
6.9857e-05
3.69806e-05
5.12158e-05
3.72613e-05
3.25355e-05
3.73562e-05
1.41724e-05
3.67054e-05
-3.86884e-06
3.6073e-05
-2.13135e-05
3.48803e-05
-3.80966e-05
3.35571e-05
-5.40549e-05
3.19176e-05
-6.9089e-05
3.00632e-05
-8.31737e-05
2.81671e-05
-9.61782e-05
2.60072e-05
-0.000108097
2.38385e-05
-0.000118934
2.16794e-05
-0.000128712
1.95579e-05
-0.00013749
1.75562e-05
-0.000145289
1.55998e-05
-0.000152123
1.36655e-05
-0.000158025
1.18053e-05
-0.000163019
9.98299e-06
-0.000167151
8.25409e-06
-0.000170456
6.59586e-06
-0.000172972
5.02489e-06
-0.000174743
3.53987e-06
-0.000175794
2.10063e-06
-0.000176194
7.98601e-07
-0.000175938
-5.1544e-07
-0.000175045
-1.78841e-06
-0.000173506
-3.0699e-06
-0.00017135
-4.31507e-06
-0.00016857
-5.56714e-06
-0.00016517
-6.80118e-06
-0.000161123
-8.10224e-06
-0.00015638
-9.4608e-06
-0.000151014
-1.07397e-05
-0.000144909
-1.21976e-05
-0.000138153
-1.3529e-05
-0.000130593
-1.51199e-05
-0.000122249
-1.66773e-05
-0.000113155
-1.81917e-05
-0.000103269
-1.97714e-05
-9.26025e-05
-2.13364e-05
-8.11618e-05
-2.28792e-05
-6.89489e-05
-2.44254e-05
-5.59948e-05
-2.59044e-05
-4.2314e-05
-2.73615e-05
-2.79584e-05
-2.87169e-05
-1.30074e-05
-2.98972e-05
2.55438e-06
-3.11075e-05
1.85486e-05
-3.19925e-05
3.49578e-05
-3.28156e-05
5.16076e-05
-3.33001e-05
6.83395e-05
-3.34562e-05
8.50096e-05
-3.33396e-05
0.000101408
-3.27926e-05
0.000117334
-3.18499e-05
0.000132541
-3.04039e-05
0.000146804
-2.85204e-05
0.00015984
-2.60745e-05
0.00017147
-2.32561e-05
0.000181405
-1.98628e-05
0.0001895
-1.61872e-05
0.000195528
-1.20422e-05
0.000199406
-7.75919e-06
0.000200994
-3.18276e-06
0.000200322
1.33687e-06
0.000197303
6.0326e-06
0.000191913
1.07861e-05
0.000184297
1.52146e-05
0.000174593
1.94104e-05
0.000162981
2.32158e-05
0.000149642
2.66684e-05
0.00013482
2.9638e-05
0.000118721
3.21881e-05
0.000101641
3.41347e-05
8.38734e-05
3.55507e-05
6.5591e-05
3.6542e-05
4.71466e-05
3.68735e-05
2.8729e-05
3.68326e-05
1.06072e-05
3.62375e-05
-7.0198e-06
3.52429e-05
-2.39762e-05
3.39145e-05
-4.0136e-05
3.23368e-05
-5.54404e-05
3.05848e-05
-6.97337e-05
2.85888e-05
-8.30346e-05
2.66089e-05
-9.52866e-05
2.4501e-05
-0.000106485
2.23958e-05
-0.000116656
2.03454e-05
-0.000125898
1.84809e-05
-0.000134126
1.64537e-05
-0.000141447
1.46422e-05
-0.000147973
1.3065e-05
-0.000153681
1.14176e-05
-0.000158637
9.92115e-06
-0.000162864
8.45094e-06
-0.000166387
7.04871e-06
-0.000169334
5.89417e-06
-0.000171624
4.59252e-06
-0.00017333
3.41038e-06
-0.000174471
2.27899e-06
-0.000175065
1.19321e-06
-0.000175114
1.00539e-07
-0.000174623
-9.78524e-07
-0.000173564
-2.11595e-06
-0.000171966
-3.19716e-06
-0.000169819
-4.28982e-06
-0.000167118
-5.39526e-06
-0.000163849
-6.53443e-06
-0.00016012
-7.46368e-06
-0.000155782
-8.67901e-06
-0.000150913
-9.73919e-06
-0.00014541
-1.10049e-05
-0.000139289
-1.22407e-05
-0.000132474
-1.3639e-05
-0.000124952
-1.50447e-05
-0.000116662
-1.65837e-05
-0.000107591
-1.81409e-05
-9.77248e-05
-1.97334e-05
-8.70603e-05
-2.13335e-05
-7.55825e-05
-2.29587e-05
-6.33221e-05
-2.4517e-05
-5.02614e-05
-2.61285e-05
-3.64186e-05
-2.76917e-05
-2.19227e-05
-2.89826e-05
-6.75858e-06
-3.03286e-05
8.98094e-06
-3.14736e-05
2.51595e-05
-3.2354e-05
4.16459e-05
-3.29694e-05
5.8266e-05
-3.32289e-05
7.47672e-05
-3.30027e-05
9.0872e-05
-3.22027e-05
0.0001064
-3.10496e-05
0.000121056
-2.9308e-05
0.000134662
-2.72025e-05
0.000146998
-2.46666e-05
0.000157873
-2.17648e-05
0.000167083
-1.83894e-05
0.000174439
-1.47112e-05
0.000179799
-1.07153e-05
0.000183045
-6.47145e-06
0.000184052
-2.02054e-06
0.000182876
2.34867e-06
0.000179447
6.83297e-06
0.000173832
1.12452e-05
0.000166156
1.53494e-05
0.000156568
1.91754e-05
0.000145253
2.26488e-05
0.00013234
2.58091e-05
0.000118063
2.85122e-05
0.000102671
3.08061e-05
8.63921e-05
3.25478e-05
6.9478e-05
3.38131e-05
5.21953e-05
3.45588e-05
3.48222e-05
3.47391e-05
1.75814e-05
3.4474e-05
6.99807e-07
3.37534e-05
-1.56539e-05
3.27185e-05
-3.13407e-05
3.13615e-05
-4.62073e-05
2.97158e-05
-6.01874e-05
2.79694e-05
-7.32395e-05
2.61066e-05
-8.53831e-05
2.42867e-05
-9.66929e-05
2.26136e-05
-0.000107042
2.06993e-05
-0.000116508
1.89394e-05
-0.000125069
1.71259e-05
-0.000132758
1.53702e-05
-0.000139575
1.36406e-05
-0.000145581
1.20128e-05
-0.000150812
1.0465e-05
-0.000155355
9.08198e-06
-0.00015926
7.80774e-06
-0.000162587
6.66343e-06
-0.000165404
5.64133e-06
-0.000167749
4.68613e-06
-0.000169617
3.74315e-06
-0.000171094
2.93518e-06
-0.000172115
2.03671e-06
-0.00017269
1.14444e-06
-0.000172796
2.14161e-07
-0.000172385
-8.19353e-07
-0.000171506
-1.75761e-06
-0.000170178
-2.64821e-06
-0.000168418
-3.50162e-06
-0.000166323
-4.1751e-06
-0.000163856
-4.94839e-06
-0.000161008
-5.68511e-06
-0.000157702
-6.60579e-06
-0.000153821
-7.76692e-06
-0.000149215
-9.22138e-06
-0.000143859
-1.06917e-05
-0.000137632
-1.24525e-05
-0.00013052
-1.42271e-05
-0.000122513
-1.60067e-05
-0.000113613
-1.77804e-05
-0.000103898
-1.94443e-05
-9.33064e-05
-2.11797e-05
-8.19838e-05
-2.26401e-05
-6.96935e-05
-2.45643e-05
-5.65695e-05
-2.62634e-05
-4.25395e-05
-2.80447e-05
-2.75653e-05
-2.99645e-05
-1.17421e-05
-3.16404e-05
5.11312e-06
-3.37053e-05
2.27051e-05
-3.51803e-05
4.11006e-05
-3.67815e-05
5.99645e-05
-3.77106e-05
7.89973e-05
-3.80495e-05
9.8014e-05
-3.80173e-05
0.00011672
-3.73913e-05
0.00013452
-3.55825e-05
0.000151293
-3.35272e-05
0.000166604
-3.06031e-05
0.000180175
-2.71316e-05
0.000191818
-2.32714e-05
0.000201134
-1.86275e-05
0.000208117
-1.39583e-05
0.000212527
-8.81273e-06
0.000214239
-3.41236e-06
0.000213317
1.83316e-06
0.000209727
7.16517e-06
0.000203582
1.22886e-05
0.000195163
1.68278e-05
0.00018471
2.08956e-05
0.000172497
2.44128e-05
0.0001588
2.73815e-05
0.000143848
2.98935e-05
0.000127971
3.17431e-05
0.000111411
3.30945e-05
9.45628e-05
3.36827e-05
7.75315e-05
3.40645e-05
6.06509e-05
3.37348e-05
4.39715e-05
3.33555e-05
2.79055e-05
3.21243e-05
1.24171e-05
3.09615e-05
-2.44759e-06
2.97336e-05
-1.65037e-05
2.81093e-05
-2.97297e-05
2.64494e-05
-4.20936e-05
2.47262e-05
-5.36244e-05
2.30589e-05
-6.43299e-05
2.14121e-05
-7.4283e-05
1.99068e-05
-8.35259e-05
1.84873e-05
-9.21097e-05
1.71698e-05
-0.000100108
1.5998e-05
-0.000107556
1.48959e-05
-0.000114475
1.38361e-05
-0.000120893
1.28347e-05
-0.000126812
1.18327e-05
-0.000132216
1.08091e-05
-0.000137114
9.78993e-06
-0.00014147
8.71099e-06
-0.000145272
7.60379e-06
-0.000148459
6.37547e-06
-0.000150992
5.06402e-06
-0.000152845
3.70279e-06
-0.000153972
2.25185e-06
-0.000154342
7.4003e-07
-0.000153852
-9.82356e-07
-0.000152465
-2.77274e-06
-0.00015019
-4.55122e-06
-0.000147078
-6.22688e-06
-0.000142941
-8.27692e-06
-0.000137868
-1.01456e-05
-0.00013187
-1.19923e-05
-0.000124848
-1.40402e-05
-0.000116987
-1.57231e-05
-0.000108041
-1.78912e-05
-9.82131e-05
-1.96526e-05
-8.75833e-05
-2.12506e-05
-7.59237e-05
-2.33185e-05
-6.34058e-05
-2.50336e-05
-5.01504e-05
-2.6508e-05
-3.59906e-05
-2.83133e-05
-2.11127e-05
-2.97548e-05
-5.4439e-06
-3.1335e-05
1.05956e-05
-3.2075e-05
2.69005e-05
-3.26047e-05
4.35496e-05
-3.32915e-05
6.02388e-05
-3.33708e-05
-3.33433e-05
8.92021e-05
5.29941e-05
7.13471e-05
5.35246e-05
5.31166e-05
5.46539e-05
3.4702e-05
5.52092e-05
1.64556e-05
5.46906e-05
-1.59884e-06
5.41306e-05
-1.91414e-05
5.2599e-05
-3.6061e-05
5.07328e-05
-5.21908e-05
4.83678e-05
-6.7407e-05
4.56312e-05
-8.17114e-05
4.29005e-05
-9.50258e-05
3.99354e-05
-0.000107317
3.68661e-05
-0.000118613
3.38878e-05
-0.0001289
3.08576e-05
-0.000138214
2.79423e-05
-0.000146565
2.50533e-05
-0.000153989
2.22721e-05
-0.000160523
1.96021e-05
-0.000166193
1.70204e-05
-0.000171035
1.4528e-05
-0.000175093
1.21756e-05
-0.000178403
9.92357e-06
-0.000180974
7.71611e-06
-0.000182852
5.63727e-06
-0.000184039
3.56858e-06
-0.000184546
1.55793e-06
-0.000184372
-5.06764e-07
-0.000183458
-2.74132e-06
-0.00018186
-4.79454e-06
-0.000179609
-6.76157e-06
-0.000176552
-9.14626e-06
-0.000172794
-1.12935e-05
-0.000168223
-1.37197e-05
-0.000162876
-1.60662e-05
-0.00015673
-1.84497e-05
-0.000149697
-2.10852e-05
-0.000141829
-2.36016e-05
-0.000133123
-2.60968e-05
-0.00012328
-2.95712e-05
-0.000112607
-3.20148e-05
-0.000100829
-3.53345e-05
-8.80919e-05
-3.82101e-05
-7.45759e-05
-4.05495e-05
-5.99272e-05
-4.39252e-05
-4.44202e-05
-4.65188e-05
-2.81575e-05
-4.875e-05
-1.12113e-05
-5.07781e-05
6.55542e-06
-5.33031e-05
2.45708e-05
-5.403e-05
4.29714e-05
-5.51634e-05
6.14566e-05
-5.54152e-05
7.98879e-05
-5.52488e-05
9.80819e-05
-5.45313e-05
0.000115581
-5.24588e-05
0.000132301
-5.01095e-05
0.000148051
-4.71914e-05
0.000162456
-4.31969e-05
0.000175417
-3.88382e-05
0.000186646
-3.36556e-05
0.000196108
-2.83562e-05
0.00020356
-2.23104e-05
0.000208781
-1.56521e-05
0.000211782
-8.98333e-06
0.000212553
-2.29878e-06
0.000210821
5.16511e-06
0.000206799
1.20819e-05
0.000200516
1.88504e-05
0.000192101
2.5203e-05
0.000181665
3.12758e-05
0.000169469
3.65565e-05
0.000155607
4.15072e-05
0.000140233
4.60908e-05
0.000123766
4.93549e-05
0.000106411
5.20134e-05
8.8374e-05
5.40518e-05
6.98834e-05
5.54712e-05
5.12102e-05
5.59345e-05
3.25254e-05
5.6041e-05
1.41256e-05
5.51051e-05
-3.92838e-06
5.4127e-05
-2.13849e-05
5.23368e-05
-3.81789e-05
5.03511e-05
-5.41388e-05
4.78773e-05
-6.91884e-05
4.51128e-05
-8.32898e-05
4.22683e-05
-9.62992e-05
3.90165e-05
-0.000108218
3.57571e-05
-0.00011905
3.25113e-05
-0.000128825
2.93324e-05
-0.000137627
2.63587e-05
-0.000145421
2.33928e-05
-0.00015226
2.05042e-05
-0.000158164
1.77099e-05
-0.000163164
1.49824e-05
-0.000167308
1.23974e-05
-0.000170626
9.91346e-06
-0.000173143
7.54191e-06
-0.000174922
5.3187e-06
-0.000175975
3.15387e-06
-0.000176375
1.19787e-06
-0.000176118
-7.71824e-07
-0.000175225
-2.68226e-06
-0.000173698
-4.59633e-06
-0.000171536
-6.47722e-06
-0.000168766
-8.33696e-06
-0.000165368
-1.01995e-05
-0.00016133
-1.21406e-05
-0.000156586
-1.42044e-05
-0.000151187
-1.61388e-05
-0.000145107
-1.82778e-05
-0.00013834
-2.0296e-05
-0.00013079
-2.26701e-05
-0.000122458
-2.50097e-05
-0.000113356
-2.72936e-05
-0.000103467
-2.96604e-05
-9.27941e-05
-3.20091e-05
-8.13422e-05
-3.43312e-05
-6.91374e-05
-3.66303e-05
-5.61821e-05
-3.88597e-05
-4.24989e-05
-4.10448e-05
-2.81437e-05
-4.30721e-05
-1.31803e-05
-4.48607e-05
2.39601e-06
-4.66839e-05
1.83959e-05
-4.79925e-05
3.48131e-05
-4.92328e-05
5.14699e-05
-4.9957e-05
6.82138e-05
-5.02002e-05
8.49023e-05
-5.00281e-05
0.00010133
-4.92205e-05
0.000117273
-4.77924e-05
0.000132491
-4.5622e-05
0.000146774
-4.28036e-05
0.000159832
-3.91328e-05
0.000171465
-3.48893e-05
0.000181415
-2.98128e-05
0.000189514
-2.42864e-05
0.000195556
-1.80843e-05
0.000199461
-1.16644e-05
0.000201046
-4.7679e-06
0.000200358
2.02519e-06
0.000197299
9.09194e-06
0.000191908
1.61771e-05
0.000184306
2.28157e-05
0.000174593
2.91236e-05
0.000162976
3.48332e-05
0.000149606
4.00378e-05
0.000134756
4.44881e-05
0.000118669
4.8275e-05
0.000101533
5.12712e-05
8.37265e-05
5.33571e-05
6.54534e-05
5.48152e-05
4.69571e-05
5.53698e-05
2.85432e-05
5.52466e-05
1.04263e-05
5.43544e-05
-7.23058e-06
5.28998e-05
-2.41964e-05
5.08803e-05
-4.03434e-05
4.84838e-05
-5.56795e-05
4.5921e-05
-6.99725e-05
4.28818e-05
-8.32607e-05
3.98972e-05
-9.55326e-05
3.67729e-05
-0.000106738
3.36008e-05
-0.000116905
3.05131e-05
-0.000126138
2.77134e-05
-0.000134373
2.46892e-05
-0.000141725
2.19938e-05
-0.000148212
1.95522e-05
-0.000153914
1.712e-05
-0.000158858
1.48653e-05
-0.000163084
1.26769e-05
-0.000166649
1.06137e-05
-0.000169552
8.79713e-06
-0.000171855
6.89551e-06
-0.000173554
5.10932e-06
-0.000174688
3.4131e-06
-0.000175276
1.78153e-06
-0.000175318
1.41812e-07
-0.000174826
-1.47017e-06
-0.000173769
-3.17273e-06
-0.000172169
-4.7977e-06
-0.000170015
-6.44321e-06
-0.000167308
-8.10237e-06
-0.000164103
-9.7397e-06
-0.000160322
-1.12439e-05
-0.000155985
-1.30169e-05
-0.000151108
-1.46154e-05
-0.000145606
-1.65072e-05
-0.000139488
-1.83592e-05
-0.000132683
-2.04438e-05
-0.00012516
-2.25678e-05
-0.000116873
-2.48704e-05
-0.000107803
-2.72105e-05
-9.79359e-05
-2.96008e-05
-8.72667e-05
-3.20027e-05
-7.58012e-05
-3.44243e-05
-6.35359e-05
-3.67823e-05
-5.04735e-05
-3.91909e-05
-3.6631e-05
-4.15343e-05
-2.21133e-05
-4.35003e-05
-6.95264e-06
-4.54893e-05
8.79876e-06
-4.72251e-05
2.5003e-05
-4.85584e-05
4.15022e-05
-4.94687e-05
5.81207e-05
-4.98474e-05
7.46491e-05
-4.95312e-05
9.07983e-05
-4.83521e-05
0.000106341
-4.65927e-05
0.000121
-4.39668e-05
0.000134615
-4.08173e-05
0.000146981
-3.70332e-05
0.000157856
-3.26392e-05
0.000167093
-2.76265e-05
0.000174447
-2.20658e-05
0.000179824
-1.60922e-05
0.000183092
-9.73964e-06
0.000184099
-3.02696e-06
0.000182897
3.55048e-06
0.000179453
1.02767e-05
0.00017384
1.68582e-05
0.000166156
2.30336e-05
0.000156558
2.87733e-05
0.000145221
3.39858e-05
0.000132283
3.8747e-05
0.000117987
4.28082e-05
0.000102593
4.62004e-05
8.62995e-05
4.88409e-05
6.93641e-05
5.07485e-05
5.20598e-05
5.1863e-05
3.466e-05
5.21389e-05
1.73978e-05
5.17362e-05
4.93139e-07
5.06581e-05
-1.58382e-05
4.90498e-05
-3.15373e-05
4.70605e-05
-4.64325e-05
4.46111e-05
-6.04163e-05
4.19533e-05
-7.34776e-05
3.91678e-05
-8.56182e-05
3.64274e-05
-9.69299e-05
3.39253e-05
-0.000107283
3.10526e-05
-0.000116755
2.84109e-05
-0.000125271
2.56425e-05
-0.000132998
2.30967e-05
-0.0001398
2.0443e-05
-0.000145798
1.80104e-05
-0.000151025
1.56918e-05
-0.000155575
1.36329e-05
-0.00015948
1.17122e-05
-0.000162794
9.97803e-06
-0.000165607
8.45381e-06
-0.000167936
7.01568e-06
-0.000169802
5.60943e-06
-0.000171309
4.44221e-06
-0.00017232
3.04783e-06
-0.000172896
1.72091e-06
-0.000173006
3.24272e-07
-0.000172584
-1.24119e-06
-0.000171686
-2.6561e-06
-0.000170355
-3.97848e-06
-0.000168584
-5.27274e-06
-0.000166445
-6.31334e-06
-0.000163997
-7.39599e-06
-0.000161141
-8.54126e-06
-0.000157833
-9.91369e-06
-0.000153949
-1.16505e-05
-0.000149358
-1.38128e-05
-0.000143982
-1.60671e-05
-0.000137752
-1.86821e-05
-0.000130631
-2.13482e-05
-0.000122606
-2.40317e-05
-0.000113699
-2.66876e-05
-0.000103993
-2.91499e-05
-9.34318e-05
-3.17413e-05
-8.20768e-05
-3.39951e-05
-6.97826e-05
-3.68586e-05
-5.66566e-05
-3.93894e-05
-4.25936e-05
-4.21077e-05
-2.76566e-05
-4.49016e-05
-1.18256e-05
-4.74714e-05
5.03432e-06
-5.05653e-05
2.26409e-05
-5.27869e-05
4.10477e-05
-5.51884e-05
5.99243e-05
-5.65872e-05
7.89821e-05
-5.71074e-05
9.80417e-05
-5.70771e-05
0.000116767
-5.61162e-05
0.000134597
-5.34126e-05
0.000151403
-5.03332e-05
0.000166743
-4.59432e-05
0.00018034
-4.07289e-05
0.000192005
-3.49361e-05
0.000201328
-2.79512e-05
0.000208326
-2.09567e-05
0.000212755
-1.3241e-05
0.000214468
-5.12568e-06
0.000213519
2.78187e-06
0.000209908
1.07767e-05
0.000203762
1.84341e-05
0.000195334
2.52555e-05
0.000184863
3.13666e-05
0.000172631
3.66448e-05
0.000158916
4.10965e-05
0.000143947
4.48628e-05
0.000128026
4.76633e-05
0.000111442
4.96791e-05
9.45648e-05
5.05596e-05
7.75369e-05
5.10923e-05
6.06112e-05
5.06605e-05
4.39338e-05
5.00328e-05
2.78556e-05
4.82025e-05
1.23362e-05
4.64809e-05
-2.51419e-06
4.4584e-05
-1.65722e-05
4.21673e-05
-2.9801e-05
3.96783e-05
-4.21652e-05
3.70903e-05
-5.36948e-05
3.45884e-05
-6.43956e-05
3.21128e-05
-7.43443e-05
2.98555e-05
-8.35835e-05
2.77265e-05
-9.21645e-05
2.57509e-05
-0.00010016
2.39938e-05
-0.000107606
2.2342e-05
-0.000114525
2.07545e-05
-0.000120944
1.92533e-05
-0.000126863
1.77519e-05
-0.000132271
1.62174e-05
-0.000137169
1.46881e-05
-0.000141527
1.30687e-05
-0.000145334
1.14106e-05
-0.000148525
9.5665e-06
-0.000151058
7.59713e-06
-0.000152917
5.56182e-06
-0.000154045
3.37951e-06
-0.000154407
1.10226e-06
-0.000153915
-1.47447e-06
-0.00015253
-4.15741e-06
-0.000150259
-6.82237e-06
-0.000147148
-9.33745e-06
-0.00014301
-1.24153e-05
-0.000137937
-1.52184e-05
-0.000131944
-1.79853e-05
-0.00012492
-2.10641e-05
-0.000117059
-2.35848e-05
-0.000108108
-2.68418e-05
-9.82806e-05
-2.94801e-05
-8.76471e-05
-3.18841e-05
-7.59862e-05
-3.49793e-05
-6.34654e-05
-3.75544e-05
-5.02062e-05
-3.97672e-05
-3.6038e-05
-4.24815e-05
-2.11596e-05
-4.46332e-05
-5.48753e-06
-4.70071e-05
1.05639e-05
-4.81265e-05
2.68794e-05
-4.89201e-05
4.35402e-05
-4.99523e-05
6.02428e-05
-5.00735e-05
-5.00327e-05
8.92508e-05
7.06967e-05
7.13712e-05
7.14043e-05
5.31178e-05
7.29073e-05
3.46834e-05
7.36437e-05
1.64077e-05
7.29663e-05
-1.66697e-06
7.22052e-05
-1.92275e-05
7.01596e-05
-3.61624e-05
6.76677e-05
-5.23048e-05
6.45102e-05
-6.7531e-05
6.08574e-05
-8.18431e-05
5.72126e-05
-9.51623e-05
5.32545e-05
-0.000107458
4.91621e-05
-0.000118753
4.51822e-05
-0.000129041
4.1146e-05
-0.000138355
3.7256e-05
-0.000146704
3.34029e-05
-0.000154132
2.96996e-05
-0.000160667
2.61373e-05
-0.000166328
2.26809e-05
-0.000171168
1.9369e-05
-0.000175226
1.62333e-05
-0.000178534
1.32317e-05
-0.000181105
1.02866e-05
-0.000182982
7.51406e-06
-0.00018416
4.74744e-06
-0.000184645
2.0428e-06
-0.000184457
-6.95268e-07
-0.000183542
-3.65576e-06
-0.000181944
-6.39305e-06
-0.000179687
-9.01833e-06
-0.000176631
-1.22028e-05
-0.000172877
-1.50476e-05
-0.000168314
-1.82819e-05
-0.000162981
-2.13998e-05
-0.000156848
-2.45819e-05
-0.0001498
-2.8134e-05
-0.000141933
-3.14679e-05
-0.000133224
-3.48061e-05
-0.000123398
-3.93976e-05
-0.000112723
-4.26896e-05
-0.000100945
-4.71123e-05
-8.82079e-05
-5.09476e-05
-7.46929e-05
-5.40645e-05
-6.00317e-05
-5.85865e-05
-4.45244e-05
-6.20262e-05
-2.82396e-05
-6.50348e-05
-1.1265e-05
-6.77528e-05
6.50753e-06
-7.10757e-05
2.45329e-05
-7.20554e-05
4.2953e-05
-7.35836e-05
6.14595e-05
-7.39217e-05
7.99134e-05
-7.37027e-05
9.81356e-05
-7.27536e-05
0.000115659
-6.99827e-05
0.000132411
-6.68609e-05
0.000148189
-6.29694e-05
0.000162605
-5.76129e-05
0.000175587
-5.1821e-05
0.000186832
-4.49e-05
0.000196309
-3.78337e-05
0.000203781
-2.97827e-05
0.000209015
-2.08855e-05
0.00021202
-1.19889e-05
0.000212795
-3.07395e-06
0.000211062
6.89895e-06
0.00020705
1.60929e-05
0.000200767
2.51341e-05
0.000192328
3.36419e-05
0.000181873
4.17305e-05
0.000169657
4.87732e-05
0.000155754
5.54101e-05
0.000140362
6.14829e-05
0.000123867
6.58497e-05
0.00010648
6.93999e-05
8.84141e-05
7.21181e-05
6.99325e-05
7.39528e-05
5.11942e-05
7.46728e-05
3.25153e-05
7.47199e-05
1.40563e-05
7.35642e-05
-4.02372e-06
7.2207e-05
-2.14954e-05
6.98084e-05
-3.83104e-05
6.71662e-05
-5.429e-05
6.38568e-05
-6.93527e-05
6.01754e-05
-8.34768e-05
5.63922e-05
-9.64948e-05
5.20343e-05
-0.000108419
4.76808e-05
-0.000119254
4.33467e-05
-0.00012904
3.91182e-05
-0.000137861
3.51789e-05
-0.000145649
3.11808e-05
-0.000152498
2.73527e-05
-0.00015841
2.3622e-05
-0.000163418
1.99899e-05
-0.00016757
1.65491e-05
-0.000170898
1.32412e-05
-0.000173422
1.00664e-05
-0.000175215
7.11111e-06
-0.000176269
4.20753e-06
-0.000176667