/*--------------------------------*- C++ -*----------------------------------*\
| =========                 |                                                 |
| \\      /  F ield         | OpenFOAM: The Open Source CFD Toolbox           |
|  \\    /   O peration     | Version:  3.0.1                                 |
|   \\  /    A nd           | Web:      www.OpenFOAM.org                      |
|    \\/     M anipulation  |                                                 |
\*---------------------------------------------------------------------------*/
FoamFile
{
    version     2.0;
    format      ascii;
    class       surfaceScalarField;
    location    "29.4";
    object      alphaPhi;
}
// * * * * * * * * * * * * * * * * * * * * * * * * * * * * * * * * * * * * * //

dimensions      [0 3 -1 0 0 0 0];

internalField   nonuniform List<scalar> 
44922
(
-0.000108137
-1.77249e-05
-8.94533e-05
-1.86832e-05
-6.98007e-05
-1.96525e-05
-4.91015e-05
-2.06991e-05
-2.74702e-05
-2.16312e-05
-4.61904e-06
-2.28511e-05
1.95656e-05
-2.41845e-05
4.47099e-05
-2.51442e-05
7.06629e-05
-2.5953e-05
9.78941e-05
-2.7231e-05
0.000125937
-2.80431e-05
0.00015504
-2.91025e-05
0.00018455
-2.951e-05
0.000214691
-3.01413e-05
0.00024466
-2.99686e-05
0.000273913
-2.92526e-05
0.000302587
-2.86739e-05
0.000329704
-2.71178e-05
0.000355161
-2.54566e-05
0.00037814
-2.29787e-05
0.000398356
-2.02161e-05
0.000415285
-1.69286e-05
0.000428552
-1.32669e-05
0.000437878
-9.32686e-06
0.000442997
-5.11846e-06
0.000444102
-1.10546e-06
0.000441742
2.35997e-06
0.000435683
6.05932e-06
0.000426026
9.65738e-06
0.000412781
1.32444e-05
0.0003967
1.60815e-05
0.000377546
1.91536e-05
0.000356141
2.14053e-05
0.000332249
2.3892e-05
0.00030605
2.61995e-05
0.000278329
2.77211e-05
0.000248739
2.95894e-05
0.000217869
3.08705e-05
0.000185423
3.24462e-05
0.000151992
3.34307e-05
0.000117442
3.45501e-05
8.24233e-05
3.50187e-05
4.70808e-05
3.53424e-05
1.19604e-05
3.51204e-05
-2.28283e-05
3.47887e-05
-5.62696e-05
3.34413e-05
-8.92037e-05
3.29341e-05
-0.000120192
3.09881e-05
-0.000149922
2.97303e-05
-0.000177133
2.72104e-05
-0.000202335
2.52029e-05
-0.000225144
2.28087e-05
-0.000244875
1.97306e-05
-0.000261717
1.68426e-05
-0.000275324
1.36071e-05
-0.000285826
1.05018e-05
-0.00029313
7.30334e-06
-0.000297118
3.988e-06
-0.000297983
8.65697e-07
-0.000295629
-2.35441e-06
-0.000290373
-5.25589e-06
-0.00028246
-7.91342e-06
-0.000272084
-1.03757e-05
-0.000259617
-1.24673e-05
-0.000245249
-1.43672e-05
-0.000229479
-1.57701e-05
-0.000212407
-1.70725e-05
-0.000194436
-1.79709e-05
-0.000175474
-1.89613e-05
-0.000156065
-1.94096e-05
-0.000136363
-1.97021e-05
-0.000116135
-2.02272e-05
-9.58682e-05
-2.02672e-05
-7.52362e-05
-2.0632e-05
-5.4617e-05
-2.06192e-05
-3.37089e-05
-2.09081e-05
-1.26391e-05
-2.10698e-05
8.70689e-06
-2.1346e-05
3.02809e-05
-2.1574e-05
5.26009e-05
-2.23201e-05
7.53024e-05
-2.27015e-05
9.92765e-05
-2.3974e-05
0.000123687
-2.44107e-05
0.00014968
-2.59924e-05
0.000175287
-2.56076e-05
0.000202199
-2.69118e-05
0.00022715
-2.49509e-05
0.00025155
-2.43998e-05
0.000272533
-2.0983e-05
0.000287855
-1.53219e-05
0.000297808
-9.95345e-06
0.000300284
-2.47548e-06
0.000293734
6.54974e-06
0.000274901
1.88327e-05
0.000244641
3.02591e-05
0.000201081
4.35607e-05
0.000145963
5.5117e-05
7.9375e-05
6.65882e-05
4.41363e-06
7.49611e-05
-7.80961e-05
8.25094e-05
-0.000162912
8.48152e-05
-0.000247452
8.45397e-05
-0.0003278
8.03481e-05
-0.000401607
7.38059e-05
-0.000466879
6.52732e-05
-0.000523322
5.64429e-05
-0.000570037
4.67149e-05
-0.000607728
3.76914e-05
-0.000636418
2.86902e-05
-0.000656909
2.04909e-05
-0.000670253
1.33433e-05
-0.000676946
6.69325e-06
-0.000679607
2.66152e-06
-0.00067658
-3.02758e-06
-0.00067011
-6.46976e-06
-0.000661832
-8.27822e-06
-0.000654011
-7.82056e-06
-0.000645526
-8.48481e-06
-0.000637403
-8.123e-06
-0.000629124
-8.27902e-06
-0.000619695
-9.42866e-06
-0.000608344
-1.13518e-05
-0.000595919
-1.24245e-05
-0.000583016
-1.29038e-05
-0.000569385
-1.36302e-05
-0.000552656
-1.67293e-05
-0.000532132
-2.05242e-05
-0.000509473
-2.26579e-05
-0.000484978
-2.44939e-05
-0.000460288
-2.46903e-05
-0.000437816
-2.24722e-05
-0.000417217
-2.05994e-05
-0.000399179
-1.80378e-05
-0.000384248
-1.49315e-05
-0.000371831
-1.24165e-05
-0.000362099
-9.73151e-06
-0.000354633
-7.4659e-06
-0.000349086
-5.54775e-06
-0.000344874
-4.21134e-06
-0.00034246
-2.41391e-06
-0.000342041
-4.19231e-07
-0.00034417
2.12843e-06
-0.000348659
4.48908e-06
-0.000354972
6.31299e-06
-0.000362158
7.18577e-06
-0.000370172
8.01386e-06
-0.000378287
8.11515e-06
-0.000384998
6.71082e-06
-0.000392888
7.89023e-06
-0.000401096
8.20793e-06
-0.000408965
7.86922e-06
-0.00041645
7.48506e-06
-0.000424044
7.59399e-06
-0.000432373
8.32839e-06
-0.000441903
9.53074e-06
-0.000452266
1.03626e-05
-0.000462595
1.03284e-05
-0.000473484
1.08887e-05
-0.000484298
1.08148e-05
-0.000494933
1.06349e-05
-0.000505932
1.09989e-05
-0.000516231
1.02984e-05
-0.000526816
1.05857e-05
-0.00053733
1.05139e-05
-0.000547788
1.04578e-05
-0.000558515
1.07272e-05
-0.000569553
1.10371e-05
-0.000580933
1.13803e-05
-0.000592525
1.15916e-05
-0.000604095
1.15704e-05
-0.000615838
1.17439e-05
-0.000627859
1.20198e-05
-0.000639791
1.19317e-05
-0.000651824
1.20333e-05
-0.000663564
1.17401e-05
-0.000674259
1.06952e-05
-0.000682627
8.36813e-06
-0.000687429
4.8019e-06
-0.000688606
1.17864e-06
-0.000687157
-1.44862e-06
-0.000683693
-3.46349e-06
-0.000680314
-3.37947e-06
-0.000678849
-1.46521e-06
-0.000680868
2.01846e-06
-0.000684113
3.24397e-06
-0.000683905
-2.08107e-07
-0.000676229
-7.67638e-06
-0.000657748
-1.84808e-05
-0.000627311
-3.0437e-05
-0.000587345
-3.99658e-05
-0.000542752
-4.45934e-05
-0.000498245
-4.45073e-05
-0.000458017
-4.02279e-05
-0.000424986
-3.30274e-05
-0.000400285
-2.4701e-05
-0.000381688
-1.85982e-05
-0.000365752
-1.59359e-05
-0.000350221
-1.553e-05
-0.000332906
-1.73131e-05
-0.00031266
-2.02465e-05
-0.000292086
-2.05738e-05
-0.000271501
-2.05848e-05
-0.000249352
-2.21496e-05
-0.000220146
-2.9206e-05
-0.000178273
-4.18734e-05
-0.000119014
-5.92615e-05
-4.45539e-05
-7.44616e-05
3.00491e-05
-7.46041e-05
8.53738e-05
-5.53257e-05
0.000102393
-1.70203e-05
8.07807e-05
2.16125e-05
3.73378e-05
4.34431e-05
-1.71191e-05
5.44575e-05
-7.21834e-05
5.50648e-05
-0.000116752
4.45712e-05
-0.000135841
1.9089e-05
-0.000125322
-1.05195e-05
-8.31624e-05
-4.21591e-05
-1.32339e-05
-6.99285e-05
7.65996e-05
-8.98335e-05
0.000176848
-0.000100248
0.000281907
-0.00010506
0.000378001
-9.60943e-05
0.000399043
-2.10435e-05
6.54912e-05
0.000333552
-0.000108191
-3.54461e-05
-8.95086e-05
-3.73656e-05
-6.98572e-05
-3.93037e-05
-4.9159e-05
-4.13972e-05
-2.75273e-05
-4.32627e-05
-4.67722e-06
-4.57011e-05
1.95099e-05
-4.83715e-05
4.46523e-05
-5.02865e-05
7.06057e-05
-5.19062e-05
9.78411e-05
-5.44663e-05
0.000125892
-5.60938e-05
0.000155007
-5.8217e-05
0.000184532
-5.90352e-05
0.000214693
-6.03022e-05
0.000244684
-5.99601e-05
0.000273962
-5.85303e-05
0.000302664
-5.73759e-05
0.000329811
-5.42641e-05
0.000355296
-5.09422e-05
0.000378302
-4.59843e-05
0.000398543
-4.04574e-05
0.000415495
-3.388e-05
0.000428785
-2.65571e-05
0.000438149
-1.86904e-05
0.000443274
-1.02441e-05
0.000444402
-2.23279e-06
0.000442027
4.73447e-06
0.000435917
1.21693e-05
0.000426228
1.93465e-05
0.000412963
2.65092e-05
0.000396865
3.21804e-05
0.000377694
3.83245e-05
0.000356272
4.28267e-05
0.000332366
4.77984e-05
0.000306154
5.24117e-05
0.000278421
5.54534e-05
0.000248823
5.9188e-05
0.000217942
6.17514e-05
0.000185488
6.49003e-05
0.000152046
6.68729e-05
0.000117485
6.91107e-05
8.24496e-05
7.00541e-05
4.70898e-05
7.07022e-05
1.19463e-05
7.0264e-05
-2.2859e-05
6.9594e-05
-5.63204e-05
6.69027e-05
-8.92752e-05
6.58889e-05
-0.000120283
6.19962e-05
-0.000150033
5.94799e-05
-0.00017726
5.44377e-05
-0.000202478
5.0421e-05
-0.000225299
4.56299e-05
-0.000245039
3.94704e-05
-0.000261887
3.36908e-05
-0.000275494
2.7214e-05
-0.000285978
2.09853e-05
-0.000293286
1.46119e-05
-0.000297299
8.00079e-06
-0.000298136
1.70268e-06
-0.000295774
-4.71654e-06
-0.000290511
-1.05194e-05
-0.000282587
-1.58374e-05
-0.000272199
-2.07632e-05
-0.000259719
-2.49472e-05
-0.000245339
-2.87471e-05
-0.000229555
-3.1554e-05
-0.00021247
-3.41574e-05
-0.000194487
-3.59544e-05
-0.000175514
-3.7934e-05
-0.000156095
-3.88285e-05
-0.000136387
-3.94108e-05
-0.000116156
-4.04584e-05
-9.58868e-05
-4.05359e-05
-7.52566e-05
-4.12622e-05
-5.46411e-05
-4.12347e-05
-3.37413e-05
-4.18079e-05
-1.26823e-05
-4.21288e-05
8.64904e-06
-4.26773e-05
3.02051e-05
-4.313e-05
5.25028e-05
-4.46177e-05
7.51835e-05
-4.53822e-05
9.91374e-05
-4.7928e-05
0.000123538
-4.8811e-05
0.000149533
-5.19877e-05
0.000175152
-5.12267e-05
0.000202102
-5.38622e-05
0.0002271
-4.9949e-05
0.000251565
-4.88642e-05
0.000272643
-4.20615e-05
0.000288054
-3.07325e-05
0.000298102
-2.00013e-05
0.000300676
-5.05015e-06
0.000294114
1.31116e-05
0.000275346
3.7601e-05
0.000245184
6.04202e-05
0.000201653
8.70912e-05
0.000146526
0.000110243
7.98519e-05
0.000133262
4.669e-06
0.000150143
-7.80369e-05
0.000165214
-0.000163057
0.000169834
-0.000247726
0.000169209
-0.00032821
0.000160832
-0.000402126
0.000147721
-0.000467464
0.000130615
-0.000523928
0.000112911
-0.000570646
9.34343e-05
-0.000608246
7.52869e-05
-0.000636931
5.73686e-05
-0.000657536
4.10946e-05
-0.000670943
2.67499e-05
-0.000677495
1.32503e-05
-0.000679864
5.03738e-06
-0.000676838
-6.05407e-06
-0.000670249
-1.3061e-05
-0.000661863
-1.66719e-05
-0.000654018
-1.56658e-05
-0.000645588
-1.69123e-05
-0.000637488
-1.6217e-05
-0.000629244
-1.65232e-05
-0.000619783
-1.88905e-05
-0.000608421
-2.27147e-05
-0.000596002
-2.48492e-05
-0.000583126
-2.57809e-05
-0.000569554
-2.72015e-05
-0.000552866
-3.3416e-05
-0.000532359
-4.1025e-05
-0.000509674
-4.53425e-05
-0.000485068
-4.90998e-05
-0.000460208
-4.95501e-05
-0.000437631
-4.50522e-05
-0.000417075
-4.11575e-05
-0.000399003
-3.6111e-05
-0.000384101
-2.98315e-05
-0.000371673
-2.48404e-05
-0.000361961
-1.94442e-05
-0.000354525
-1.49019e-05
-0.000348987
-1.10852e-05
-0.000344758
-8.44275e-06
-0.000342308
-4.86478e-06
-0.000341935
-7.89591e-07
-0.000344073
4.26728e-06
-0.000348585
9.00094e-06
-0.000354924
1.26517e-05
-0.000362178
1.44369e-05
-0.000370185
1.60192e-05
-0.000378293
1.62235e-05
-0.000385066
1.34839e-05
-0.000392923
1.57477e-05
-0.000401145
1.64295e-05
-0.000409016
1.57388e-05
-0.000416495
1.49642e-05
-0.000424048
1.5149e-05
-0.00043236
1.66426e-05
-0.00044187
1.90399e-05
-0.000452235
2.07284e-05
-0.000462613
2.07037e-05
-0.000473471
2.17436e-05
-0.000484296
2.16395e-05
-0.000494959
2.1297e-05
-0.000505966
2.20084e-05
-0.000516284
2.06184e-05
-0.000526862
2.11635e-05
-0.000537367
2.10185e-05
-0.000547788
2.08794e-05
-0.000558507
2.1442e-05
-0.000569523
2.20513e-05
-0.000580911
2.27692e-05
-0.000592522
2.32072e-05
-0.000604123
2.31712e-05
-0.000615856
2.34771e-05
-0.000627866
2.40296e-05
-0.000639784
2.38454e-05
-0.000651806
2.40529e-05
-0.000663563
2.34976e-05
-0.000674328
2.14624e-05
-0.000682842
1.68854e-05
-0.000688025
9.98526e-06
-0.000689509
2.66216e-06
-0.000688185
-2.77251e-06
-0.000684869
-6.77933e-06
-0.000681121
-7.1312e-06
-0.000678861
-3.72503e-06
-0.000679377
2.53596e-06
-0.000680408
4.27456e-06
-0.000678631
-1.98835e-06
-0.000669687
-1.66207e-05
-0.000650399
-3.77688e-05
-0.000619754
-6.10823e-05
-0.000580086
-7.96333e-05
-0.000536171
-8.85091e-05
-0.000492541
-8.81374e-05
-0.000453259
-7.95095e-05
-0.00042118
-6.51066e-05
-0.000397405
-4.84758e-05
-0.000379617
-3.6386e-05
-0.000364284
-3.12683e-05
-0.000349199
-3.06152e-05
-0.000332204
-3.43079e-05
-0.000312563
-3.98846e-05
-0.000292496
-4.0639e-05
-0.000272995
-4.0085e-05
-0.000251744
-4.34026e-05
-0.000223487
-5.74659e-05
-0.000182471
-8.28878e-05
-0.000123678
-0.000118053
-4.94376e-05
-0.0001487
2.50822e-05
-0.000149119
8.05987e-05
-0.000110839
9.7802e-05
-3.42229e-05
7.6183e-05
4.32319e-05
3.28699e-05
8.67566e-05
-2.05535e-05
0.000107882
-7.37659e-05
0.000108278
-0.000115028
8.58347e-05
-0.000130647
3.47098e-05
-0.00011667
-2.44952e-05
-7.18092e-05
-8.70206e-05
-8.63546e-07
-0.000140878
8.67937e-05
-0.000177493
0.000183355
-0.00019681
0.000287325
-0.00020903
0.00037553
-0.000184299
0.00040108
-4.65937e-05
0.000133798
0.000332772
-0.000108297
-5.31634e-05
-8.96187e-05
-5.60437e-05
-6.99705e-05
-5.89517e-05
-4.92744e-05
-6.20931e-05
-2.76418e-05
-6.48952e-05
-4.79375e-06
-6.8549e-05
1.93981e-05
-7.25632e-05
4.45364e-05
-7.54247e-05
7.04903e-05
-7.78599e-05
9.7734e-05
-8.17099e-05
0.000125799
-8.41591e-05
0.000154937
-8.73545e-05
0.000184492
-8.85904e-05
0.000214692
-9.05021e-05
0.000244729
-8.99967e-05
0.000274057
-8.78577e-05
0.000302815
-8.61338e-05
0.000330017
-8.14669e-05
0.000355561
-7.64853e-05
0.00037862
-6.90438e-05
0.000398912
-6.07492e-05
0.00041591
-5.08775e-05
0.000429251
-3.98989e-05
0.00043873
-2.81687e-05
0.000444045
-1.55596e-05
0.00044526
-3.44701e-06
0.000442689
7.30507e-06
0.000436376
1.84827e-05
0.000426624
2.90984e-05
0.000413319
3.98137e-05
0.000397186
4.83137e-05
0.000377981
5.75298e-05
0.000356528
6.42799e-05
0.000332593
7.17335e-05
0.000306356
7.86488e-05
0.000278601
8.32076e-05
0.000248985
8.88044e-05
0.000218084
9.26528e-05
0.000185615
9.73694e-05
0.00015215
0.000100337
0.000117569
0.000103692
8.25007e-05
0.000105123
4.71068e-05
0.000106096
1.19175e-05
0.000105453
-2.29212e-05
0.000104433
-5.64234e-05
0.000100405
-8.94201e-05
9.88856e-05
-0.000120468
9.30445e-05
-0.000150257
8.92686e-05
-0.000177519
8.16994e-05
-0.000202768
7.56699e-05
-0.000225614
6.84764e-05
-0.000245373
5.92289e-05
-0.000262233
5.05507e-05
-0.00027584
4.08214e-05
-0.000286284
3.14296e-05
-0.000293507
2.18346e-05
-0.000297515
1.20088e-05
-0.000298387
2.57465e-06
-0.000296067
-7.03648e-06
-0.00029079
-1.57968e-05
-0.000282845
-2.37824e-05
-0.000272433
-3.11746e-05
-0.000259928
-3.74527e-05
-0.000245522
-4.31529e-05
-0.00022971
-4.7366e-05
-0.0002126
-5.12673e-05
-0.000194591
-5.39634e-05
-0.000175596
-5.69296e-05
-0.000156158
-5.82664e-05
-0.000136435
-5.91333e-05
-0.000116195
-6.06981e-05
-9.5923e-05
-6.08083e-05
-7.5296e-05
-6.18891e-05
-5.46871e-05
-6.18436e-05
-3.38033e-05
-6.26917e-05
-1.27746e-05
-6.31575e-05
8.53775e-06
-6.39897e-05
3.00589e-05
-6.46512e-05
5.23128e-05
-6.68716e-05
7.49526e-05
-6.80219e-05
9.88683e-05
-7.18435e-05
0.000123246
-7.31892e-05
0.00014925
-7.79909e-05
0.00017489
-7.6867e-05
0.000201924
-8.08966e-05
0.00022701
-7.50345e-05
0.000251596
-7.34508e-05
0.000272893
-6.33587e-05
0.000288481
-4.63198e-05
0.000298577
-3.00975e-05
0.000301103
-7.576e-06
0.000294644
1.95701e-05
0.000276222
5.60214e-05
0.000246298
9.03424e-05
0.000202813
0.000130576
0.000147658
0.000165398
8.08135e-05
0.000200106
5.31105e-06
0.000225642
-7.78112e-05
0.000248332
-0.000163226
0.000255243
-0.000248247
0.000254228
-0.000329017
0.000241601
-0.000403162
0.000221866
-0.000468655
0.00019611
-0.000525139
0.000169394
-0.000571864
0.00014016
-0.000609251
0.000112673
-0.000637836
8.59534e-05
-0.000658467
6.17258e-05
-0.000671985
4.02673e-05
-0.000678546
1.98098e-05
-0.000680297
6.78832e-06
-0.000677291
-9.05828e-06
-0.000670486
-1.98659e-05
-0.000661852
-2.53064e-05
-0.000653945
-2.35728e-05
-0.000645619
-2.52386e-05
-0.000637631
-2.42132e-05
-0.000629461
-2.46907e-05
-0.0006199
-2.84493e-05
-0.000608503
-3.41124e-05
-0.000596117
-3.72348e-05
-0.000583363
-3.85346e-05
-0.000569879
-4.06862e-05
-0.000553197
-5.00974e-05
-0.000532732
-6.14901e-05
-0.00051004
-6.80342e-05
-0.000485218
-7.39216e-05
-0.000460083
-7.46856e-05
-0.000437248
-6.78871e-05
-0.000416766
-6.16391e-05
-0.000398603
-5.42741e-05
-0.00038371
-4.47247e-05
-0.000371283
-3.72669e-05
-0.000361614
-2.9114e-05
-0.000354287
-2.22287e-05
-0.000348762
-1.66099e-05
-0.000344546
-1.26594e-05
-0.000342012
-7.39829e-06
-0.000341718
-1.08415e-06
-0.000343898
6.44774e-06
-0.000348437
1.35394e-05
-0.000354815
1.90304e-05
-0.000362221
2.18431e-05
-0.000370206
2.40039e-05
-0.000378277
2.42941e-05
-0.000385201
2.04086e-05
-0.000393012
2.35587e-05
-0.000401258
2.46753e-05
-0.000409076
2.35569e-05
-0.000416545
2.2433e-05
-0.000423999
2.26032e-05
-0.000432301
2.4944e-05
-0.000441782
2.85218e-05
-0.000452139
3.1086e-05
-0.000462627
3.11915e-05
-0.000473424
3.25403e-05
-0.000484274
3.24894e-05
-0.000494976
3.1999e-05
-0.000505984
3.30163e-05
-0.000516341
3.09757e-05
-0.000526903
3.17232e-05
-0.000537392
3.15081e-05
-0.000547763
3.12517e-05
-0.000558487
3.21656e-05
-0.000569455
3.30194e-05
-0.000580843
3.41573e-05
-0.000592488
3.48509e-05
-0.00060415
3.48329e-05
-0.000615877
3.5205e-05
-0.000627872
3.60269e-05
-0.000639745
3.57186e-05
-0.000651699
3.60073e-05
-0.000663441
3.52391e-05
-0.000674343
3.23646e-05
-0.00068304
2.55821e-05
-0.000688616
1.55616e-05
-0.000690442
4.48818e-06
-0.000689161
-4.05316e-06
-0.000685809
-1.01345e-05
-0.000681534
-1.14031e-05
-0.000678159
-7.09891e-06
-0.000677272
1.64953e-06
-0.000676817
3.82009e-06
-0.000674615
-4.19297e-06
-0.000665475
-2.57603e-05
-0.000646445
-5.67991e-05
-0.000616606
-9.09212e-05
-0.000578197
-0.000118044
-0.000535444
-0.000131262
-0.000492476
-0.000131105
-0.000453371
-0.000118614
-0.000421574
-9.69031e-05
-0.000398276
-7.17722e-05
-0.00038099
-5.36709e-05
-0.000366017
-4.62407e-05
-0.000351178
-4.54548e-05
-0.000334338
-5.11478e-05
-0.000315139
-5.90846e-05
-0.000295725
-6.00568e-05
-0.00027743
-5.83805e-05
-0.000257639
-6.31932e-05
-0.000231257
-8.38471e-05
-0.000192147
-0.000121976
-0.000134969
-0.000175201
-6.17694e-05
-0.000221864
1.19626e-05
-0.000222817
6.78019e-05
-0.000166657
8.5385e-05
-5.17994e-05
6.36378e-05
6.49792e-05
2.04983e-05
0.000129896
-3.11839e-05
0.000159564
-8.087e-05
0.000157964
-0.000119436
0.000124401
-0.00013511
5.03853e-05
-0.000119787
-3.9819e-05
-7.44567e-05
-0.000132354
-6.98049e-06
-0.000208354
7.30051e-05
-0.000257477
0.000158478
-0.000282281
0.000252028
-0.000302574
0.000324394
-0.000256662
0.000361945
-8.41449e-05
0.000181456
0.000314287
-0.000108456
-7.08745e-05
-8.97837e-05
-7.47159e-05
-7.01406e-05
-7.85947e-05
-4.94478e-05
-8.27858e-05
-2.78139e-05
-8.6529e-05
-4.96895e-06
-9.13938e-05
1.92294e-05
-9.67614e-05
4.43619e-05
-0.000100557
7.03169e-05
-0.000103815
9.7573e-05
-0.000108966
0.00012566
-0.000112246
0.000154832
-0.000116527
0.000184433
-0.000118191
0.000214691
-0.00012076
0.000244796
-0.000120101
0.000274198
-0.00011726
0.00030304
-0.000114976
0.000330327
-0.000108755
0.000355957
-0.000102114
0.000379097
-9.21837e-05
0.000399463
-8.11152e-05
0.000416526
-6.79407e-05
0.000429933
-5.33062e-05
0.000439504
-3.77389e-05
0.000445037
-2.10927e-05
0.000446356
-4.76645e-06
0.000443592
1.00698e-05
0.000437049
2.50258e-05
0.000427215
3.89323e-05
0.000413853
5.31757e-05
0.000397668
6.44983e-05
0.000378411
7.67865e-05
0.000356911
8.57808e-05
0.000332933
9.57114e-05
0.000306658
0.000104923
0.000278871
0.000110995
0.000249228
0.000118447
0.000218296
0.000123585
0.000185805
0.000129861
0.000152307
0.000133835
0.000117696
0.000138303
8.25777e-05
0.000140241
4.71327e-05
0.000141541
1.18744e-05
0.000140712
-2.30142e-05
0.000139321
-5.65778e-05
0.000133969
-8.96375e-05
0.000131945
-0.000120747
0.000124154
-0.000150594
0.000119116
-0.000177907
0.000109013
-0.000203202
0.000100965
-0.000226087
9.13612e-05
-0.000245874
7.90155e-05
-0.000262752
6.74291e-05
-0.000276364
5.44336e-05
-0.000286776
4.18411e-05
-0.000293892
2.89511e-05
-0.000297864
1.5981e-05
-0.000298794
3.50375e-06
-0.000296513
-9.31708e-06
-0.00029121
-2.11e-05
-0.000283232
-3.17601e-05
-0.000272785
-4.1622e-05
-0.000260241
-4.99964e-05
-0.000245796
-5.75973e-05
-0.000229942
-6.32202e-05
-0.000212795
-6.84148e-05
-0.000194747
-7.20109e-05
-0.000175717
-7.59598e-05
-0.00015625
-7.7733e-05
-0.000136507
-7.88766e-05
-0.000116255
-8.09503e-05
-9.59768e-05
-8.10864e-05
-7.53547e-05
-8.25112e-05
-5.47552e-05
-8.2443e-05
-3.38959e-05
-8.3551e-05
-1.28995e-05
-8.41538e-05
8.37052e-06
-8.52597e-05
2.98393e-05
-8.61199e-05
5.20264e-05
-8.90587e-05
7.46043e-05
-9.05999e-05
9.84613e-05
-9.57005e-05
0.000122802
-9.75294e-05
0.000148821
-0.00010401
0.000174477
-0.000102523
0.000201659
-0.000108078
0.000226848
-0.000100224
0.000251636
-9.82383e-05
0.000273247
-8.49716e-05
0.00028906
-6.21317e-05
0.000299391
-4.04282e-05
0.00030199
-1.01756e-05
0.000295733
2.5827e-05
0.000277654
7.40984e-05
0.000247993
0.000120004
0.000204566
0.000174004
0.000149309
0.000220655
8.22031e-05
0.000267209
6.25464e-06
0.000301587
-7.74711e-05
0.000332059
-0.000163505
0.000341278
-0.000249053
0.000339771
-0.000330215
0.000322758
-0.000404704
0.000296356
-0.000470431
0.000261838
-0.000526891
0.000225854
-0.00057361
0.000186879
-0.00061075
0.000149808
-0.000639243
0.000114445
-0.000659614
8.20981e-05
-0.00067327
5.39227e-05
-0.000680339
2.68795e-05
-0.000681251
7.70307e-06
-0.000677967
-1.23347e-05
-0.000670914
-2.69173e-05
-0.00066195
-3.42701e-05
-0.000653996
-3.15367e-05
-0.000645764
-3.34742e-05
-0.000637718
-3.2259e-05
-0.000629612
-3.27964e-05
-0.000620064
-3.7996e-05
-0.0006087
-4.54718e-05
-0.000596393
-4.95406e-05
-0.000583751
-5.11771e-05
-0.000570268
-5.4169e-05
-0.000553677
-6.66887e-05
-0.000533255
-8.19112e-05
-0.000510456
-9.08387e-05
-0.000485411
-9.89684e-05
-0.000459875
-0.000100222
-0.000436671
-9.10883e-05
-0.000416342
-8.19678e-05
-0.000398109
-7.25074e-05
-0.000383188
-5.96457e-05
-0.000370739
-4.97172e-05
-0.000361138
-3.87186e-05
-0.000354
-2.93676e-05
-0.000348452
-2.21565e-05
-0.000344292
-1.68167e-05
-0.000341654
-1.00361e-05
-0.000341363
-1.37502e-06
-0.000343614
8.69853e-06
-0.000348207
1.81315e-05
-0.000354695
2.55158e-05
-0.000362329
2.94774e-05
-0.000370215
3.1891e-05
-0.000378207
3.22867e-05
-0.000385318
2.752e-05
-0.000393091
3.13305e-05
-0.000401454
3.30378e-05
-0.000409186
3.12888e-05
-0.000416602
2.98494e-05
-0.000423919
2.99201e-05
-0.000432184
3.32097e-05
-0.000441636
3.79756e-05
-0.000451994
4.14447e-05
-0.00046265
4.18471e-05
-0.000473399
4.32887e-05
-0.000484274
4.33649e-05
-0.000495008
4.27337e-05
-0.000506005
4.40135e-05
-0.000516419
4.13891e-05
-0.000526951
4.22548e-05
-0.000537391
4.19492e-05
-0.000547699
4.15613e-05
-0.000558465
4.29321e-05
-0.000569391
4.39434e-05
-0.000580762
4.55281e-05
-0.00059243
4.65185e-05
-0.000604192
4.65953e-05
-0.000615913
4.69275e-05
-0.000627933
4.80499e-05
-0.000639828
4.76144e-05
-0.000651706
4.78813e-05
-0.000663412
4.69444e-05
-0.000674419
4.33713e-05
-0.000683314
3.4477e-05
-0.000689205
2.14589e-05
-0.000691238
6.52121e-06
-0.000689829
-5.46194e-06
-0.000686142
-1.38229e-05
-0.000681423
-1.61253e-05
-0.000677346
-1.11758e-05
-0.000675855
1.62653e-07
-0.000674923
2.89041e-06
-0.000672898
-6.21775e-06
-0.000664503
-3.41557e-05
-0.000646195
-7.51074e-05
-0.000616875
-0.00012024
-0.000578912
-0.000156007
-0.000536198
-0.000173976
-0.000492722
-0.000174579
-0.000452969
-0.000158367
-0.000420982
-0.00012889
-0.000398046
-9.47086e-05
-0.000381278
-7.04385e-05
-0.000366645
-6.08739e-05
-0.000352421
-5.96793e-05
-0.000336606
-6.69652e-05
-0.000318745
-7.69482e-05
-0.000300945
-7.78563e-05
-0.000284584
-7.47418e-05
-0.000267269
-8.04857e-05
-0.000244183
-0.00010687
-0.00020866
-0.000157417
-0.00015494
-0.000228897
-8.41538e-05
-0.000292555
-1.07568e-05
-0.000296149
4.59303e-05
-0.00022334
6.52446e-05
-7.11089e-05
4.39681e-05
8.62569e-05
1.33416e-06
0.00017253
-4.86373e-05
0.000209536
-9.31359e-05
0.000202463
-0.000126891
0.000158156
-0.0001418
6.52947e-05
-0.000127388
-5.42317e-05
-8.40895e-05
-0.000175652
-2.57436e-05
-0.000266696
3.72658e-05
-0.000320482
0.000102174
-0.00034719
0.000173648
-0.000374049
0.000238576
-0.000321582
0.000292483
-0.000138052
0.000221324
0.000252616
-0.000108668
-8.85772e-05
-9.0004e-05
-9.33798e-05
-7.03675e-05
-9.8231e-05
-4.96793e-05
-0.000103474
-2.8044e-05
-0.000108164
-5.20325e-06
-0.000114234
1.90029e-05
-0.000120967
4.41278e-05
-0.000125682
7.00852e-05
-0.000129772
9.73574e-05
-0.000136238
0.000125473
-0.000140361
0.000154692
-0.000145746
0.000184352
-0.000147851
0.000214688
-0.000151096
0.000244884
-0.000150296
0.000274385
-0.000146761
0.000303339
-0.000143929
0.00033074
-0.000136156
0.000356485
-0.000127859
0.000379731
-0.00011543
0.000400195
-0.000101579
0.000417341
-8.50866e-05
0.000430817
-6.67821e-05
0.000440432
-4.73535e-05
0.000446002
-2.66634e-05
0.000447307
-6.07082e-06
0.000444528
1.28481e-05
0.000437911
3.16428e-05
0.000427998
4.88456e-05
0.000414563
6.66108e-05
0.000398311
8.07508e-05
0.000378985
9.61119e-05
0.000357421
0.000107346
0.000333385
0.000119747
0.000307061
0.000131248
0.00027923
0.000138825
0.000249552
0.000148125
0.00021858
0.000154557
0.000186059
0.000162382
0.000152516
0.000167378
0.000117865
0.000172954
8.26811e-05
0.000175424
4.71681e-05
0.000177054
1.18174e-05
0.000176062
-2.31378e-05
0.000174276
-5.67837e-05
0.000167614
-8.99276e-05
0.000165089
-0.000121118
0.000155344
-0.000151044
0.000149042
-0.000178426
0.000136395
-0.000203782
0.000126321
-0.000226718
0.000114297
-0.000246543
9.88401e-05
-0.000263447
8.43334e-05
-0.000277071
6.80573e-05
-0.000287476
5.22464e-05
-0.000294557
3.60324e-05
-0.000298493
1.99171e-05
-0.000299418
4.42873e-06
-0.000297116
-1.16193e-05
-0.000291772
-2.64446e-05
-0.000283749
-3.97827e-05
-0.000273253
-5.21176e-05
-0.000260659
-6.25911e-05
-0.000246163
-7.20934e-05
-0.000230252
-7.91309e-05
-0.000213054
-8.56124e-05
-0.000194955
-9.011e-05
-0.000175879
-9.50363e-05
-0.000156374
-9.72379e-05
-0.000136603
-9.86477e-05
-0.000116333
-0.000101219
-9.60478e-05
-0.000101372
-7.5432e-05
-0.000103127
-5.48452e-05
-0.00010303
-3.40183e-05
-0.000104378
-1.30641e-05
-0.000105108
8.14789e-06
-0.000106472
2.95472e-05
-0.000107519
5.16425e-05
-0.000111154
7.41388e-05
-0.000113096
9.79134e-05
-0.000119475
0.000122203
-0.000121819
0.000148238
-0.000130044
0.000173922
-0.000128207
0.00020129
-0.000135447
0.000226627
-0.000125561
0.000251706
-0.000123318
0.000273674
-0.00010694
0.000289781
-7.82388e-05
0.000300501
-5.11506e-05
0.000303285
-1.29594e-05
0.000297359
3.17528e-05
0.000279634
9.18235e-05
0.000250292
0.000149348
0.000206971
0.000217325
0.000151552
0.000276076
8.40466e-05
0.000334706
7.49459e-06
0.000378141
-7.69578e-05
0.000416512
-0.000163829
0.00042815
-0.00025023
0.000426171
-0.000331774
0.000404303
-0.000406673
0.000371256
-0.000472741
0.000327905
-0.000529052
0.000282165
-0.000575797
0.00023362
-0.000612673
0.000186684
-0.000641208
0.00014298
-0.00066139
0.00010228
-0.000674825
6.73576e-05
-0.000682205
3.42602e-05
-0.00068247
7.96746e-06
-0.000678722
-1.60821e-05
-0.000671484
-3.41557e-05
-0.000662214
-4.35399e-05
-0.000654095
-3.96569e-05
-0.000646039
-4.15297e-05
-0.000637928
-4.03698e-05
-0.0006298
-4.09248e-05
-0.000620265
-4.75311e-05
-0.000609038
-5.66988e-05
-0.000596766
-6.18128e-05
-0.000584179
-6.37607e-05
-0.000570634
-6.77131e-05
-0.000554262
-8.30626e-05
-0.000534004
-0.000102173
-0.000511022
-0.000113821
-0.000485585
-0.000124405
-0.000459499
-0.000126308
-0.00043604
-0.000114548
-0.000415812
-0.000102194
-0.000397473
-9.08467e-05
-0.000382599
-7.45217e-05
-0.000370144
-6.21733e-05
-0.000360596
-4.82666e-05
-0.000353638
-3.63254e-05
-0.000348062
-2.77332e-05
-0.000343886
-2.09922e-05
-0.000341155
-1.27662e-05
-0.000340891
-1.63865e-06
-0.000343189
1.09962e-05
-0.000347853
2.2794e-05
-0.000354523
3.21859e-05
-0.000362502
3.74569e-05
-0.000370234
3.96231e-05
-0.000378071
4.01228e-05
-0.000385433
3.48826e-05
-0.00039311
3.90073e-05
-0.000401542
4.14701e-05
-0.000409337
3.90836e-05
-0.000416669
3.71816e-05
-0.000423834
3.70852e-05
-0.000432039
4.14148e-05
-0.000441431
4.73672e-05
-0.000451815
5.18289e-05
-0.000462669
5.27004e-05
-0.00047339
5.40105e-05
-0.000484328
5.43025e-05
-0.000495082
5.34874e-05
-0.000506014
5.49446e-05
-0.000516502
5.18764e-05
-0.00052703
5.27831e-05
-0.000537381
5.23001e-05
-0.000547632
5.18126e-05
-0.000558416
5.37154e-05
-0.000569316
5.48439e-05
-0.000580704
5.69161e-05
-0.000592418
5.82325e-05
-0.000604245
5.84217e-05
-0.000615942
5.86247e-05
-0.000627992
6.01002e-05
-0.000639981
5.96029e-05
-0.00065182
5.9721e-05
-0.000663601
5.87254e-05
-0.000674737
5.45079e-05
-0.000683846
4.35912e-05
-0.000690111
2.77238e-05
-0.000692305
8.71501e-06
-0.000690702
-7.06925e-06
-0.000686649
-1.78805e-05
-0.000681565
-2.12097e-05
-0.00067707
-1.56714e-05
-0.000675353
-1.54951e-06
-0.000674651
2.19569e-06
-0.000673195
-7.67442e-06
-0.000665381
-4.19698e-05
-0.000647686
-9.28016e-05
-0.000618741
-0.000149191
-0.000580406
-0.000194344
-0.000536824
-0.000217559
-0.000492584
-0.00021882
-0.000452307
-0.000198643
-0.000420199
-0.000160994
-0.00039802
-0.000116886
-0.000382454
-8.60041e-05
-0.000368784
-7.45454e-05
-0.000355634
-7.28331e-05
-0.000341235
-8.13655e-05
-0.000325294
-9.28888e-05
-0.000309874
-9.32582e-05
-0.00029619
-8.83602e-05
-0.000282222
-9.43663e-05
-0.000263803
-0.000125249
-0.00023419
-0.000187043
-0.000186525
-0.000276575
-0.000119735
-0.000359535
-4.53667e-05
-0.000370686
1.33507e-05
-0.000282106
3.68709e-05
-9.46338e-05
1.82359e-05
0.000104894
-2.47875e-05
0.000215553
-7.17478e-05
0.000256496
-0.000112739
0.000243454
-0.000142168
0.000187585
-0.000153776
7.69032e-05
-0.00013883
-6.9178e-05
-0.00010184
-0.000212637
-6.24359e-05
-0.000306096
-2.67944e-05
-0.000356124
1.4093e-05
-0.000388078
7.14405e-05
-0.000431405
0.000132448
-0.000382595
0.000183624
-0.000189228
0.000240105
0.000164843
-0.000108933
-0.000106269
-9.02796e-05
-0.000112033
-7.06513e-05
-0.000117859
-4.99693e-05
-0.000124156
-2.83325e-05
-0.000129801
-5.49723e-06
-0.00013707
1.87175e-05
-0.000145182
4.38331e-05
-0.000150797
6.97946e-05
-0.000155734
9.70869e-05
-0.00016353
0.000125237
-0.000168512
0.000154514
-0.000175023
0.00018425
-0.000177586
0.000214683
-0.000181529
0.000244992
-0.000180605
0.000274619
-0.000176388
0.000303713
-0.000173024
0.000331257
-0.000163699
0.000357145
-0.000153747
0.000380525
-0.00013881
0.00040111
-0.000122163
0.000418357
-0.000102333
0.00043191
-8.03349e-05
0.000441564
-5.70077e-05
0.000447109
-3.22083e-05
0.000448369
-7.33079e-06
0.000445612
1.56045e-05
0.000438966
3.82897e-05
0.000428973
5.8838e-05
0.00041545
8.01335e-05
0.000399114
9.70876e-05
0.000379702
0.000115523
0.000358057
0.00012899
0.000333951
0.000143854
0.000307564
0.000157634
0.000279679
0.000166711
0.000249957
0.000177847
0.000218934
0.000185581
0.000186377
0.000194939