/*--------------------------------*- C++ -*----------------------------------*\
| =========                 |                                                 |
| \\      /  F ield         | OpenFOAM: The Open Source CFD Toolbox           |
|  \\    /   O peration     | Version:  3.0.1                                 |
|   \\  /    A nd           | Web:      www.OpenFOAM.org                      |
|    \\/     M anipulation  |                                                 |
\*---------------------------------------------------------------------------*/
FoamFile
{
    version     2.0;
    format      ascii;
    class       volVectorField;
    location    "15.8";
    object      U;
}
// * * * * * * * * * * * * * * * * * * * * * * * * * * * * * * * * * * * * * //

dimensions      [0 1 -1 0 0 0 0];

internalField   nonuniform List<vector> 
22680
(
(-0.172377 0.000346331 0)
(-0.17488 0.000284272 0)
(-0.177028 0.000224112 0)
(-0.178671 0.000164644 0)
(-0.179818 0.000105911 0)
(-0.180467 4.78732e-05 0)
(-0.180632 -9.83652e-06 0)
(-0.180311 -6.79761e-05 0)
(-0.179496 -0.000126356 0)
(-0.178186 -0.000185474 0)
(-0.176373 -0.000245239 0)
(-0.17405 -0.000306601 0)
(-0.171205 -0.000368684 0)
(-0.167826 -0.000433389 0)
(-0.163898 -0.00049855 0)
(-0.159404 -0.000565126 0)
(-0.154328 -0.000636463 0)
(-0.148653 -0.00070669 0)
(-0.142358 -0.00078328 0)
(-0.135427 -0.000857022 0)
(-0.127841 -0.000938855 0)
(-0.119585 -0.00101521 0)
(-0.110646 -0.00110152 0)
(-0.101014 -0.00117868 0)
(-0.0906865 -0.00126774 0)
(-0.0796636 -0.0013428 0)
(-0.0679549 -0.0014319 0)
(-0.0555769 -0.00150098 0)
(-0.0425559 -0.00158619 0)
(-0.028933 -0.00164442 0)
(-0.0147849 -0.00172039 0)
(-0.000121202 -0.00176317 0)
(0.0150121 -0.00182474 0)
(0.0304679 -0.00184432 0)
(0.04614 -0.00184882 0)
(0.0619298 -0.00187437 0)
(0.0777147 -0.0018486 0)
(0.0933566 -0.0018422 0)
(0.108712 -0.00178282 0)
(0.123628 -0.00173959 0)
(0.137952 -0.00164573 0)
(0.15153 -0.00156314 0)
(0.164209 -0.0014364 0)
(0.175844 -0.00131518 0)
(0.186296 -0.00115956 0)
(0.195441 -0.00100406 0)
(0.203165 -0.000825595 0)
(0.209374 -0.000643685 0)
(0.213986 -0.000449822 0)
(0.216932 -0.000251217 0)
(0.218149 -4.95527e-05 0)
(0.217742 0.000151443 0)
(0.21561 0.000353375 0)
(0.211781 0.000552565 0)
(0.206342 0.000735316 0)
(0.199344 0.000921719 0)
(0.19088 0.00108023 0)
(0.181052 0.00124538 0)
(0.169985 0.00137118 0)
(0.157812 0.00150737 0)
(0.144681 0.00159574 0)
(0.130743 0.00169771 0)
(0.116152 0.00174793 0)
(0.10107 0.00181341 0)
(0.0856472 0.00182761 0)
(0.0700296 0.00185724 0)
(0.0543664 0.00184035 0)
(0.0387844 0.00183804 0)
(0.0233837 0.00179397 0)
(0.00827023 0.00176664 0)
(-0.00645503 0.00172481 0)
(-0.020705 0.00165501 0)
(-0.034423 0.00159611 0)
(-0.0475585 0.00151683 0)
(-0.0600719 0.00144691 0)
(-0.0719357 0.00136309 0)
(-0.0831313 0.00128731 0)
(-0.0936491 0.0012029 0)
(-0.103487 0.00112531 0)
(-0.112648 0.00104309 0)
(-0.121142 0.000966559 0)
(-0.128982 0.00088813 0)
(-0.136179 0.000814388 0)
(-0.142752 0.000740241 0)
(-0.148717 0.000670001 0)
(-0.154089 0.000600378 0)
(-0.158884 0.000534491 0)
(-0.163136 0.000470046 0)
(-0.166849 0.000409393 0)
(-0.170008 0.000344534 0)
(-0.172638 0.000284701 0)
(-0.174764 0.000228099 0)
(-0.176374 0.000163369 0)
(-0.177497 0.000111505 0)
(-0.178121 4.81132e-05 0)
(-0.178318 3.28258e-06 0)
(-0.178014 -6.90712e-05 0)
(-0.177252 -0.000110561 0)
(-0.176034 -0.000184544 0)
(-0.174262 -0.000230301 0)
(-0.172073 -0.000304102 0)
(-0.169258 -0.000360821 0)
(-0.165973 -0.000428118 0)
(-0.162064 -0.000497656 0)
(-0.157589 -0.00056918 0)
(-0.152485 -0.000638443 0)
(-0.146791 -0.000720301 0)
(-0.140298 -0.000796067 0)
(-0.133342 -0.000866671 0)
(-0.125573 -0.00096396 0)
(-0.117259 -0.00102131 0)
(-0.108098 -0.00112997 0)
(-0.0983249 -0.00118636 0)
(-0.0878314 -0.00130043 0)
(-0.0766059 -0.00135233 0)
(-0.0647303 -0.00145933 0)
(-0.0521619 -0.00151374 0)
(-0.0390117 -0.00160315 0)
(-0.0252748 -0.00164601 0)
(-0.0109736 -0.00172115 0)
(0.0039325 -0.0017638 0)
(0.0191852 -0.00180344 0)
(0.0345173 -0.00182909 0)
(0.0496335 -0.00186886 0)
(0.0656212 -0.00185098 0)
(0.0814473 -0.0018393 0)
(0.0968605 -0.00182449 0)
(0.111953 -0.00177351 0)
(0.126646 -0.00170564 0)
(0.140712 -0.00161602 0)
(0.153957 -0.00151847 0)
(0.166297 -0.00139952 0)
(0.177571 -0.00126949 0)
(0.187677 -0.00111861 0)
(0.196465 -0.000960213 0)
(0.203849 -0.000786083 0)
(0.209725 -0.000603332 0)
(0.21404 -0.000413871 0)
(0.21671 -0.00021882 0)
(0.217721 -2.41051e-05 0)
(0.217112 0.000173243 0)
(0.214743 0.000375536 0)
(0.210749 0.000567311 0)
(0.205179 0.00075248 0)
(0.198066 0.000928009 0)
(0.189501 0.00109324 0)
(0.179599 0.00124699 0)
(0.168478 0.00138313 0)
(0.156263 0.00150565 0)
(0.143081 0.00161183 0)
(0.1291 0.00169736 0)
(0.114447 0.00176662 0)
(0.0992971 0.00181592 0)
(0.0838179 0.00184796 0)
(0.0681434 0.00186437 0)
(0.0524344 0.00185924 0)
(0.036799 0.00183898 0)
(0.0213644 0.00180999 0)
(0.00618186 0.00176345 0)
(-0.00858735 0.00170894 0)
(-0.0228041 0.00164673 0)
(-0.0364323 0.00157648 0)
(-0.0494504 0.00150393 0)
(-0.0618246 0.0014255 0)
(-0.073544 0.00134567 0)
(-0.0845321 0.00125914 0)
(-0.0948179 0.00117868 0)
(-0.104438 0.00109713 0)
(-0.113333 0.00101351 0)
(-0.121564 0.000938331 0)
(-0.129142 0.000852903 0)
(-0.136086 0.000784228 0)
(-0.142201 0.000702349 0)
(-0.147815 0.000635503 0)
(-0.15302 0.000567321 0)
(-0.157289 0.000505214 0)
(-0.161296 0.000423907 0)
(-0.164757 0.000386058 0)
(-0.167542 0.000299989 0)
(-0.170039 0.000271502 0)
(-0.171912 0.000203333 0)
(-0.173695 0.00019293 0)
(-0.17503 0.000115153 0)
(-0.175603 5.41107e-05 0)
(-0.176058 2.41634e-05 0)
(-0.175869 -5.43127e-05 0)
(-0.175292 -8.47265e-05 0)
(-0.174306 -0.00015964 0)
(-0.172725 -0.000202799 0)
(-0.170817 -0.000269974 0)
(-0.168212 -0.000332692 0)
(-0.165211 -0.000396432 0)
(-0.161509 -0.000469219 0)
(-0.157244 -0.000539331 0)
(-0.152412 -0.000615809 0)
(-0.146828 -0.000696851 0)
(-0.140639 -0.000773622 0)
(-0.133717 -0.000864966 0)
(-0.126068 -0.000935437 0)
(-0.117903 -0.00102079 0)
(-0.108712 -0.00112371 0)
(-0.0990605 -0.00117488 0)
(-0.0886938 -0.00127178 0)
(-0.0777592 -0.00131429 0)
(-0.0662219 -0.00140918 0)
(-0.0541345 -0.00144589 0)
(-0.0416375 -0.00152054 0)
(-0.0286489 -0.00154379 0)
(-0.0153827 -0.00159773 0)
(-0.00163199 -0.00160502 0)
(0.0121484 -0.00162138 0)
(0.0255883 -0.00162919 0)
(0.0390561 -0.0016238 0)
(0.0529385 -0.00158563 0)
(0.0664729 -0.00155316 0)
(0.0792833 -0.00149656 0)
(0.0914943 -0.00143061 0)
(0.103152 -0.00132981 0)
(0.113913 -0.0011983 0)
(0.123337 -0.00104789 0)
(0.131396 -0.000805097 0)
(0.136972 -0.000470658 0)
(0.138994 -1.35697e-05 0)
(0.137556 0.0015597 0)
(0.113186 0.00102151 0)
(-0.172406 0.00103892 0)
(-0.174909 0.000852745 0)
(-0.177057 0.000672281 0)
(-0.178699 0.00049388 0)
(-0.179845 0.000317758 0)
(-0.180495 0.000143323 0)
(-0.18066 -2.92091e-05 0)
(-0.180338 -0.000203904 0)
(-0.179524 -0.000379032 0)
(-0.178214 -0.000556373 0)
(-0.176402 -0.000735649 0)
(-0.174079 -0.000919726 0)
(-0.171235 -0.00110596 0)
(-0.167857 -0.00130006 0)
(-0.163929 -0.00149554 0)
(-0.159436 -0.00169526 0)
(-0.154362 -0.00190926 0)
(-0.148687 -0.00211995 0)
(-0.142394 -0.00234972 0)
(-0.135463 -0.00257095 0)
(-0.127879 -0.00281647 0)
(-0.119623 -0.00304556 0)
(-0.110685 -0.00330452 0)
(-0.101053 -0.00353603 0)
(-0.0907258 -0.00380326 0)
(-0.0797021 -0.0040285 0)
(-0.0679929 -0.00429584 0)
(-0.0556129 -0.00450315 0)
(-0.0425904 -0.00475885 0)
(-0.0289643 -0.00493361 0)
(-0.0148135 -0.00516165 0)
(-0.000145427 -0.00529003 0)
(0.0149927 -0.00547485 0)
(0.0304544 -0.00553365 0)
(0.0461329 -0.00554723 0)
(0.0619298 -0.00562398 0)
(0.0777222 -0.00554672 0)
(0.0933725 -0.00552761 0)
(0.108735 -0.00534946 0)
(0.123661 -0.0052198 0)
(0.137994 -0.0049382 0)
(0.15158 -0.00469043 0)
(0.164267 -0.00431014 0)
(0.17591 -0.00394643 0)
(0.186369 -0.00347948 0)
(0.195521 -0.00301288 0)
(0.20325 -0.00247737 0)
(0.209464 -0.00193148 0)
(0.214079 -0.00134942 0)
(0.217027 -0.000754121 0)
(0.21825 -0.000147225 0)
(0.21784 0.000452273 0)
(0.215699 0.00106027 0)
(0.211873 0.00165766 0)
(0.206429 0.00220636 0)
(0.199428 0.0027658 0)
(0.190956 0.00324141 0)
(0.181123 0.00373699 0)
(0.170048 0.00411442 0)
(0.157868 0.0045231 0)
(0.144727 0.00478821 0)
(0.130781 0.00509417 0)
(0.116181 0.0052448 0)
(0.101091 0.0054413 0)
(0.0856593 0.0054837 0)
(0.070034 0.00557266 0)
(0.0543639 0.00552179 0)
(0.0387747 0.00551482 0)
(0.0233689 0.00538285 0)
(0.00825024 0.00530049 0)
(-0.0064801 0.00517479 0)
(-0.0207333 0.00496542 0)
(-0.0344544 0.00478864 0)
(-0.0475917 0.00455074 0)
(-0.060107 0.00434092 0)
(-0.0719715 0.00408938 0)
(-0.0831679 0.00386201 0)
(-0.0936857 0.00360871 0)
(-0.103523 0.00337592 0)
(-0.112684 0.00312922 0)
(-0.121178 0.0028996 0)
(-0.129016 0.0026643 0)
(-0.136214 0.00244306 0)
(-0.142785 0.0022207 0)
(-0.14875 0.00200993 0)
(-0.154121 0.00180104 0)
(-0.158916 0.00160369 0)
(-0.163167 0.00141006 0)
(-0.16688 0.00122859 0)
(-0.170039 0.00103425 0)
(-0.172668 0.00085445 0)
(-0.174796 0.000685031 0)
(-0.176405 0.000489921 0)
(-0.17753 0.000337218 0)
(-0.178154 0.000143435 0)
(-0.178351 1.06406e-05 0)
(-0.178047 -0.000207103 0)
(-0.177287 -0.000331599 0)
(-0.176069 -0.00055382 0)
(-0.174299 -0.000690816 0)
(-0.172112 -0.000913227 0)
(-0.169297 -0.00108043 0)
(-0.166013 -0.00128579 0)
(-0.162109 -0.00149378 0)
(-0.157637 -0.00170825 0)
(-0.15252 -0.00191504 0)
(-0.146824 -0.00215663 0)
(-0.140335 -0.00238345 0)
(-0.133384 -0.00259598 0)
(-0.125617 -0.00288878 0)
(-0.117303 -0.00306081 0)
(-0.108144 -0.00338851 0)
(-0.0983686 -0.00355894 0)
(-0.0878758 -0.00390002 0)
(-0.0766461 -0.00405857 0)
(-0.064772 -0.00437713 0)
(-0.0521973 -0.00454103 0)
(-0.0390446 -0.00480986 0)
(-0.0253034 -0.00493935 0)
(-0.011 -0.00516544 0)
(0.00391466 -0.00529051 0)
(0.0191666 -0.00541391 0)
(0.0345126 -0.00548199 0)
(0.0496282 -0.00562143 0)
(0.0656236 -0.00555475 0)
(0.0814598 -0.00551565 0)
(0.0968862 -0.00547281 0)
(0.111989 -0.00532019 0)
(0.12669 -0.00511721 0)
(0.140764 -0.00485077 0)
(0.154017 -0.00455795 0)
(0.166366 -0.00420167 0)
(0.177649 -0.00380901 0)
(0.187762 -0.00335853 0)
(0.196556 -0.00288165 0)
(0.203946 -0.00236022 0)
(0.209826 -0.00181143 0)
(0.214144 -0.00124311 0)
(0.216817 -0.000657992 0)
(0.217831 -7.24671e-05 0)
(0.217212 0.000518329 0)
(0.214842 0.00112667 0)
(0.210851 0.00170194 0)
(0.205278 0.00225775 0)
(0.19816 0.00278453 0)
(0.18959 0.00328042 0)
(0.179681 0.00374181 0)
(0.168551 0.00415081 0)
(0.156328 0.00451614 0)
(0.143136 0.00483602 0)
(0.129146 0.00509407 0)
(0.114484 0.00529957 0)
(0.099324 0.00544736 0)
(0.0838364 0.00554463 0)
(0.0681523 0.00559322 0)
(0.052434 0.00557783 0)
(0.036792 0.00551818 0)
(0.0213504 0.00542883 0)
(0.00616105 0.00529114 0)
(-0.0086127 0.00512725 0)
(-0.0228343 0.00494048 0)
(-0.036466 0.0047295 0)
(-0.049487 0.00451198 0)
(-0.0618631 0.00427695 0)
(-0.073585 0.00403703 0)
(-0.0845737 0.00377725 0)
(-0.09486 0.00353669 0)
(-0.104481 0.00329113 0)
(-0.113375 0.00304112 0)
(-0.121607 0.0028157 0)
(-0.129184 0.00255939 0)
(-0.13613 0.00235226 0)
(-0.142243 0.00210742 0)
(-0.147852 0.00190678 0)
(-0.15306 0.00170275 0)
(-0.157332 0.00151729 0)
(-0.161334 0.00127057 0)
(-0.164797 0.0011583 0)
(-0.167579 0.000899925 0)
(-0.170077 0.000814098 0)
(-0.171945 0.000610938 0)
(-0.173733 0.000577443 0)
(-0.17507 0.000345929 0)
(-0.175637 0.000162269 0)
(-0.176095 7.19845e-05 0)
(-0.175905 -0.000162837 0)
(-0.175329 -0.000254408 0)
(-0.174342 -0.000478218 0)
(-0.172764 -0.000609586 0)
(-0.170857 -0.00081077 0)
(-0.168253 -0.000996358 0)
(-0.165252 -0.00118971 0)
(-0.161555 -0.00140709 0)
(-0.157297 -0.00162025 0)
(-0.152446 -0.0018488 0)
(-0.146863 -0.00208761 0)
(-0.140679 -0.002315 0)
(-0.133761 -0.00259132 0)
(-0.126111 -0.00280352 0)
(-0.117951 -0.00305827 0)
(-0.108758 -0.00337045 0)
(-0.0991011 -0.00352314 0)
(-0.0887336 -0.00381457 0)
(-0.0777956 -0.0039453 0)
(-0.0662577 -0.00422649 0)
(-0.0541625 -0.00433897 0)
(-0.0416633 -0.00456097 0)
(-0.0286673 -0.00463373 0)
(-0.0153954 -0.00479342 0)
(-0.00163911 -0.00481234 0)
(0.0121424 -0.00486901 0)
(0.0255986 -0.00488929 0)
(0.0390699 -0.00488174 0)
(0.0529513 -0.00475559 0)
(0.0664964 -0.00466081 0)
(0.0793244 -0.00449062 0)
(0.0915461 -0.0042905 0)
(0.103216 -0.00398873 0)
(0.11399 -0.00360198 0)
(0.123446 -0.00314343 0)
(0.131531 -0.00243628 0)
(0.137222 -0.00136517 0)
(0.139365 -0.000302136 0)
(0.138943 0.00447652 0)
(0.11851 0.00652556 0)
(-0.172465 0.00173128 0)
(-0.174966 0.00142101 0)
(-0.177113 0.00112028 0)
(-0.178755 0.000822958 0)
(-0.1799 0.000529644 0)
(-0.18055 0.000239527 0)
(-0.180715 -4.94801e-05 0)
(-0.180393 -0.000339815 0)
(-0.179579 -0.000631617 0)
(-0.17827 -0.00092713 0)
(-0.176459 -0.00122587 0)
(-0.174138 -0.00153262 0)
(-0.171295 -0.00184297 0)
(-0.167918 -0.00216643 0)
(-0.163992 -0.00249221 0)
(-0.159501 -0.00282503 0)
(-0.154429 -0.00318169 0)
(-0.148756 -0.00353283 0)
(-0.142465 -0.00391579 0)
(-0.135536 -0.00428455 0)
(-0.127954 -0.00469379 0)
(-0.119699 -0.00507569 0)
(-0.110763 -0.00550737 0)
(-0.101131 -0.00589335 0)
(-0.0908042 -0.00633888 0)
(-0.0797787 -0.00671447 0)
(-0.0680685 -0.0071602 0)
(-0.0556847 -0.00750596 0)
(-0.042659 -0.00793235 0)
(-0.0290265 -0.00822386 0)
(-0.0148702 -0.00860427 0)
(-0.000193425 -0.00881846 0)
(0.0149542 -0.00912684 0)
(0.0304279 -0.00922514 0)
(0.0461194 -0.00924798 0)
(0.0619304 -0.00937624 0)
(0.0777377 -0.0092476 0)
(0.0934049 -0.00921598 0)
(0.108784 -0.0089191 0)
(0.123728 -0.00870313 0)
(0.138076 -0.00823369 0)
(0.151682 -0.00782072 0)
(0.164383 -0.00718669 0)
(0.176044 -0.00658034 0)
(0.186515 -0.00580176 0)
(0.195682 -0.00502379 0)
(0.20342 -0.00413084 0)
(0.209644 -0.00322056 0)
(0.214264 -0.00225 0)
(0.21722 -0.00125939 0)
(0.218454 -0.000247348 0)
(0.218026 0.000758198 0)
(0.215877 0.00176707 0)
(0.212055 0.00276283 0)
(0.206603 0.00367875 0)
(0.199594 0.00461189 0)
(0.191109 0.00540484 0)
(0.181264 0.00623122 0)
(0.170171 0.00686035 0)
(0.157976 0.00754183 0)
(0.144817 0.0079837 0)
(0.130854 0.00849384 0)
(0.116236 0.00874471 0)
(0.101129 0.00907235 0)
(0.0856811 0.00914245 0)
(0.0700401 0.00929086 0)
(0.054356 0.00920538 0)
(0.0387524 0.00919363 0)
(0.0233362 0.00897448 0)
(0.00820717 0.00883603 0)
(-0.00653328 0.00862592 0)
(-0.0207927 0.0082769 0)
(-0.0345203 0.00798204 0)
(-0.0476611 0.0075853 0)
(-0.0601801 0.00723538 0)
(-0.0720459 0.00681596 0)
(-0.083244 0.00643683 0)
(-0.0937614 0.00601453 0)
(-0.103599 0.00562643 0)
(-0.112759 0.00521518 0)
(-0.121251 0.00483244 0)
(-0.129088 0.00444025 0)
(-0.136283 0.00407157 0)
(-0.142852 0.00370092 0)
(-0.148816 0.0033497 0)
(-0.154185 0.0030018 0)
(-0.158979 0.00267256 0)
(-0.163227 0.00235001 0)
(-0.166939 0.00204876 0)
(-0.170097 0.00172455 0)
(-0.172724 0.00142428 0)
(-0.174855 0.00114239 0)
(-0.176458 0.000817131 0)
(-0.177587 0.000567405 0)
(-0.17821 0.000236912 0)
(-0.178406 1.82546e-05 0)
(-0.178101 -0.000345704 0)
(-0.177342 -0.000552742 0)
(-0.176124 -0.000922399 0)
(-0.174357 -0.00115093 0)
(-0.17217 -0.0015228 0)
(-0.169357 -0.00179754 0)
(-0.166075 -0.00214473 0)
(-0.162179 -0.00248687 0)
(-0.157705 -0.00285212 0)
(-0.152574 -0.00319741 0)
(-0.146878 -0.00359885 0)
(-0.140394 -0.00397896 0)
(-0.133454 -0.00432631 0)
(-0.125689 -0.0048182 0)
(-0.117374 -0.00510394 0)
(-0.108224 -0.00565111 0)
(-0.0984421 -0.00593596 0)
(-0.0879554 -0.00650562 0)
(-0.0767152 -0.00676805 0)
(-0.0648489 -0.00730263 0)
(-0.0522604 -0.00756759 0)
(-0.0391064 -0.00802293 0)
(-0.025359 -0.00823672 0)
(-0.0110502 -0.00861188 0)
(0.00387765 -0.00882614 0)
(0.019117 -0.00902289 0)
(0.0345137 -0.00914589 0)
(0.0495878 -0.00936409 0)
(0.0656175 -0.009264 0)
(0.0814824 -0.00919764 0)
(0.0969323 -0.00913128 0)
(0.112051 -0.00887733 0)
(0.126762 -0.00853495 0)
(0.140849 -0.00809165 0)
(0.154118 -0.00760372 0)
(0.166484 -0.00700951 0)
(0.177782 -0.00635414 0)
(0.187909 -0.00560328 0)
(0.196714 -0.00480692 0)
(0.204115 -0.00393881 0)
(0.210003 -0.00302323 0)
(0.214327 -0.00207483 0)
(0.217004 -0.0010999 0)
(0.218017 -0.000115285 0)
(0.217378 0.000869702 0)
(0.215017 0.0018779 0)
(0.211029 0.00283683 0)
(0.205449 0.00376414 0)
(0.198322 0.0046427 0)
(0.189742 0.00546972 0)
(0.179822 0.00623811 0)
(0.168675 0.00692261 0)
(0.156436 0.00752841 0)
(0.143228 0.00805904 0)
(0.12922 0.00849422 0)
(0.11454 0.00883373 0)
(0.0993634 0.00908476 0)
(0.0838594 0.0092429 0)
(0.0681578 0.00932257 0)
(0.0524228 0.00929918 0)
(0.036769 0.00920182 0)
(0.0213152 0.00904682 0)
(0.00611421 0.00882243 0)
(-0.00866759 0.00854752 0)
(-0.0228971 0.00823523 0)
(-0.036534 0.00788366 0)
(-0.0495593 0.00752169 0)
(-0.0619377 0.00712887 0)
(-0.0736636 0.00672894 0)
(-0.0846506 0.00629663 0)
(-0.0949376 0.0058942 0)
(-0.104559 0.00548692 0)
(-0.11345 0.00506837 0)
(-0.121685 0.00469427 0)
(-0.129258 0.00426343 0)
(-0.136205 0.0039221 0)
(-0.142311 0.00351177 0)
(-0.147912 0.00317857 0)
(-0.153124 0.0028388 0)
(-0.157399 0.00252834 0)
(-0.16139 0.0021169 0)
(-0.164857 0.00192788 0)
(-0.16763 0.00150086 0)
(-0.170132 0.00135553 0)
(-0.17199 0.00102087 0)
(-0.173784 0.000960612 0)
(-0.175127 0.000574634 0)
(-0.175682 0.000268545 0)
(-0.176146 0.000123018 0)
(-0.175952 -0.000274312 0)
(-0.175382 -0.000420177 0)
(-0.174392 -0.000796373 0)
(-0.172819 -0.00101686 0)
(-0.170914 -0.00135183 0)
(-0.168314 -0.00165851 0)
(-0.165313 -0.00198211 0)
(-0.161628 -0.00234267 0)
(-0.157362 -0.00270722 0)
(-0.152504 -0.00309091 0)
(-0.146922 -0.00348556 0)
(-0.140742 -0.00386586 0)
(-0.133833 -0.00432174 0)
(-0.126179 -0.00467596 0)
(-0.118033 -0.00510113 0)
(-0.108835 -0.00562037 0)
(-0.0991685 -0.00587257 0)
(-0.0888043 -0.00636162 0)
(-0.0778574 -0.00658155 0)
(-0.0663231 -0.00704787 0)
(-0.0542095 -0.00723692 0)
(-0.0417127 -0.00760715 0)
(-0.0286978 -0.00772579 0)
(-0.0154209 -0.00799574 0)
(-0.00165695 -0.00802566 0)
(0.0121321 -0.00811126 0)
(0.0256185 -0.00816225 0)
(0.0390593 -0.00813656 0)
(0.0529713 -0.00792948 0)
(0.0665458 -0.00777012 0)
(0.0794077 -0.00749269 0)
(0.0916377 -0.0071654 0)
(0.103327 -0.00665874 0)
(0.11413 -0.00601496 0)
(0.123637 -0.00526155 0)
(0.131783 -0.00408625 0)
(0.137735 -0.00235501 0)
(0.139858 -0.000436623 0)
(0.140642 0.00638302 0)
(0.124046 0.0095935 0)
(-0.172554 0.00242322 0)
(-0.175053 0.00198895 0)
(-0.177198 0.00156801 0)
(-0.178838 0.00115179 0)
(-0.179982 0.000741589 0)
(-0.180632 0.000335103 0)
(-0.180798 -6.94436e-05 0)
(-0.180476 -0.000475708 0)
(-0.179662 -0.000884045 0)
(-0.178354 -0.00129764 0)
(-0.176545 -0.00171577 0)
(-0.174225 -0.00214512 0)
(-0.171384 -0.00257953 0)
(-0.168011 -0.00303228 0)
(-0.164087 -0.00348833 0)
(-0.159599 -0.00395422 0)
(-0.15453 -0.0044535 0)
(-0.14886 -0.00494509 0)
(-0.142573 -0.00548126 0)
(-0.135646 -0.00599758 0)
(-0.128067 -0.00657063 0)
(-0.119814 -0.00710544 0)
(-0.11088 -0.00770999 0)
(-0.101248 -0.0082506 0)
(-0.0909219 -0.00887468 0)
(-0.0798937 -0.00940088 0)
(-0.068182 -0.0100253 0)
(-0.0557925 -0.0105099 0)
(-0.0427621 -0.0111072 0)
(-0.0291199 -0.0115159 0)
(-0.0149554 -0.0120491 0)
(-0.000265531 -0.0123495 0)
(0.0148965 -0.012782 0)
(0.030388 -0.0129202 0)
(0.046099 -0.0129527 0)
(0.0619312 -0.0131329 0)
(0.0777609 -0.0129531 0)
(0.0934535 -0.0129093 0)
(0.108856 -0.0124937 0)
(0.123829 -0.0121916 0)
(0.1382 -0.0115342 0)
(0.151835 -0.010956 0)
(0.164558 -0.0100679 0)
(0.176245 -0.0092187 0)
(0.186734 -0.00812797 0)
(0.195923 -0.0070382 0)
(0.203674 -0.00578713 0)
(0.209914 -0.00451178 0)
(0.214542 -0.00315177 0)
(0.217508 -0.00176495 0)
(0.218755 -0.000352364 0)
(0.218306 0.0010711 0)
(0.216151 0.00247357 0)
(0.21233 0.00386862 0)
(0.206864 0.00515347 0)
(0.199843 0.00646125 0)
(0.191337 0.00757209 0)
(0.181474 0.00872991 0)
(0.170356 0.00961073 0)
(0.158139 0.0105655 0)
(0.144952 0.0111842 0)
(0.130964 0.0118988 0)
(0.116319 0.0122497 0)
(0.101186 0.0127087 0)
(0.0857135 0.0128057 0)
(0.070049 0.0130136 0)
(0.054344 0.0128928 0)
(0.0387191 0.012876 0)
(0.0232871 0.0125702 0)
(0.00814215 0.0123744 0)
(-0.00661326 0.0120792 0)
(-0.0208821 0.0115902 0)
(-0.0346192 0.0111769 0)
(-0.0477653 0.010621 0)
(-0.06029 0.0101306 0)
(-0.0721578 0.00954303 0)
(-0.0833582 0.00901186 0)
(-0.0938752 0.00842036 0)
(-0.103713 0.00787675 0)
(-0.11287 0.00730087 0)
(-0.121361 0.00676481 0)
(-0.129195 0.00621578 0)
(-0.136388 0.00569945 0)
(-0.142954 0.00518074 0)
(-0.148915 0.004689 0)
(-0.154281 0.00420208 0)
(-0.159072 0.00374094 0)
(-0.163317 0.00328976 0)
(-0.167029 0.0028688 0)
(-0.170185 0.00241433 0)
(-0.172807 0.00199364 0)
(-0.174942 0.00159797 0)
(-0.176537 0.00114639 0)
(-0.177674 0.00079861 0)
(-0.178295 0.000327587 0)
(-0.178487 2.60484e-05 0)
(-0.178182 -0.000484221 0)
(-0.177424 -0.000772756 0)
(-0.176207 -0.00129115 0)
(-0.174445 -0.0016103 0)
(-0.172258 -0.00213194 0)
(-0.169448 -0.00251346 0)
(-0.16617 -0.00300518 0)
(-0.162281 -0.00347795 0)
(-0.157803 -0.00399288 0)
(-0.152675 -0.00447669 0)
(-0.146983 -0.00503639 0)
(-0.140498 -0.00557715 0)
(-0.133567 -0.00605385 0)
(-0.125798 -0.00674315 0)
(-0.117486 -0.0071476 0)
(-0.10834 -0.00791443 0)
(-0.0985577 -0.00831538 0)
(-0.0880723 -0.00911201 0)
(-0.0768237 -0.00947996 0)
(-0.0649616 -0.0102298 0)
(-0.0523581 -0.0105934 0)
(-0.0391981 -0.0112402 0)
(-0.0254508 -0.0115371 0)
(-0.011107 -0.0120631 0)
(0.00378978 -0.0123546 0)
(0.0190722 -0.0126466 0)
(0.034515 -0.0128225 0)
(0.0495255 -0.0130971 0)
(0.0656252 -0.0129883 0)
(0.0815283 -0.012891 0)
(0.0969945 -0.0127947 0)
(0.112122 -0.0124347 0)
(0.126858 -0.0119543 0)
(0.140977 -0.0113381 0)
(0.15427 -0.0106542 0)
(0.166663 -0.00982225 0)
(0.17798 -0.00890145 0)
(0.188129 -0.00785176 0)
(0.19695 -0.00673507 0)
(0.204368 -0.00551971 0)
(0.210267 -0.00423648 0)
(0.214601 -0.00290857 0)
(0.217281 -0.00154253 0)
(0.218297 -0.00015759 0)
(0.217633 0.00123253 0)
(0.215286 0.00262901 0)
(0.211297 0.00397255 0)
(0.205706 0.00527242 0)
(0.198564 0.0065035 0)
(0.18997 0.00766198 0)
(0.180032 0.0087371 0)
(0.168862 0.00969938 0)
(0.156597 0.0105479 0)
(0.143367 0.0112914 0)
(0.12933 0.0119014 0)
(0.114625 0.0123741 0)
(0.0994215 0.0127326 0)
(0.0838927 0.012949 0)
(0.0681659 0.0130559 0)
(0.0524066 0.0130279 0)
(0.0367334 0.0128919 0)
(0.0212622 0.0126671 0)
(0.00604387 0.012359 0)
(-0.00875044 0.0119707 0)
(-0.0229921 0.0115323 0)
(-0.0366361 0.0110407 0)
(-0.0496692 0.0105324 0)
(-0.062049 0.00998314 0)
(-0.0737809 0.009422 0)
(-0.0847687 0.00881557 0)
(-0.0950505 0.00825338 0)
(-0.104679 0.00768146 0)
(-0.113559 0.00709731 0)
(-0.121801 0.00657028 0)
(-0.129362 0.00597217 0)
(-0.136325 0.00549067 0)
(-0.142416 0.00491281 0)
(-0.148006 0.00445077 0)
(-0.153224 0.00397036 0)
(-0.157488 0.00354295 0)
(-0.161477 0.00296231 0)
(-0.164947 0.00269454 0)
(-0.167706 0.00210325 0)
(-0.170216 0.00189552 0)
(-0.17206 0.0014325 0)
(-0.17386 0.00134429 0)
(-0.175215 0.000800061 0)
(-0.175748 0.00037562 0)
(-0.176224 0.00017744 0)
(-0.176023 -0.000387438 0)
(-0.17546 -0.00058306 0)
(-0.17447 -0.00111354 0)
(-0.172904 -0.00142368 0)
(-0.170999 -0.00189174 0)
(-0.168407 -0.00232039 0)
(-0.165408 -0.00277319 0)
(-0.161733 -0.00327844 0)
(-0.157462 -0.00379062 0)
(-0.152613 -0.00432611 0)
(-0.14703 -0.00488352 0)
(-0.140852 -0.00540952 0)
(-0.133946 -0.00604845 0)
(-0.126284 -0.00654811 0)
(-0.118161 -0.00714795 0)
(-0.108943 -0.00786911 0)
(-0.099275 -0.00822432 0)
(-0.0889114 -0.00890692 0)
(-0.0779541 -0.00922473 0)
(-0.06642 -0.00986808 0)
(-0.0542792 -0.0101404 0)
(-0.0417938 -0.010654 0)
(-0.0287343 -0.0108247 0)
(-0.0154646 -0.0111978 0)
(-0.00169892 -0.0112405 0)
(0.0121608 -0.0113792 0)
(0.0256283 -0.0114182 0)
(0.0390364 -0.0113869 0)
(0.0530086 -0.0111144 0)
(0.0666494 -0.0108997 0)
(0.0795281 -0.010501 0)
(0.0917424 -0.0100404 0)
(0.103471 -0.00933123 0)
(0.114349 -0.00844366 0)
(0.123909 -0.00738417 0)
(0.132145 -0.00578477 0)
(0.138476 -0.00337038 0)
(0.140611 -0.000715191 0)
(0.142683 0.00781266 0)
(0.128537 0.0121162 0)
(-0.172672 0.00311456 0)
(-0.175168 0.00255639 0)
(-0.177312 0.00201533 0)
(-0.17895 0.0014803 0)
(-0.180092 0.000953447 0)
(-0.180743 0.000430575 0)
(-0.180907 -8.95758e-05 0)
(-0.180586 -0.000611506 0)
(-0.179773 -0.00113625 0)
(-0.178467 -0.00166782 0)
(-0.176659 -0.00220522 0)
(-0.174342 -0.00275707 0)
(-0.171504 -0.00331545 0)
(-0.168134 -0.00389742 0)
(-0.164214 -0.00448366 0)
(-0.159728 -0.00508257 0)
(-0.154665 -0.00572445 0)
(-0.148998 -0.00635649 0)
(-0.142716 -0.00704586 0)
(-0.135792 -0.00770983 0)
(-0.128218 -0.00844678 0)
(-0.119966 -0.00913467 0)
(-0.111036 -0.00991229 0)
(-0.101404 -0.0106078 0)
(-0.0910789 -0.0114107 0)
(-0.0800472 -0.0120879 0)
(-0.0683336 -0.0128914 0)
(-0.0559363 -0.0135152 0)
(-0.0428996 -0.0142841 0)
(-0.0292446 -0.0148104 0)
(-0.0150691 -0.0154973 0)
(-0.000361878 -0.015884 0)
(0.0148193 -0.0164416 0)
(0.0303346 -0.0166203 0)
(0.0460716 -0.0166628 0)
(0.061932 -0.0168958 0)
(0.0777918 -0.016665 0)
(0.0935181 -0.0166096 0)
(0.108953 -0.0160753 0)
(0.123962 -0.0156874 0)
(0.138366 -0.0148418 0)
(0.152038 -0.0140984 0)
(0.16479 -0.0129558 0)
(0.176514 -0.0118633 0)
(0.187027 -0.0104597 0)
(0.196245 -0.00905752 0)
(0.204014 -0.00744744 0)
(0.210274 -0.00580614 0)
(0.214914 -0.00405547 0)
(0.217891 -0.00227026 0)
(0.219142 -0.000451687 0)
(0.218687 0.00138027 0)
(0.216526 0.00317895 0)
(0.212697 0.00497631 0)
(0.207212 0.00663154 0)
(0.200176 0.00831511 0)
(0.191642 0.0097448 0)
(0.181756 0.0112347 0)
(0.170603 0.0123675 0)
(0.158356 0.0135961 0)
(0.145132 0.0143919 0)
(0.131112 0.0153111 0)
(0.11643 0.0157618 0)
(0.101263 0.0163519 0)
(0.0857568 0.0164756 0)
(0.0700608 0.0167427 0)
(0.0543276 0.0165856 0)
(0.0386746 0.0165636 0)
(0.0232213 0.016171 0)
(0.0080549 0.0159166 0)
(-0.00672024 0.0155356 0)
(-0.0210015 0.0149062 0)
(-0.0347515 0.0143738 0)
(-0.0479046 0.0136582 0)
(-0.0604369 0.0130268 0)
(-0.0723073 0.0122707 0)
(-0.083511 0.0115871 0)
(-0.0940273 0.0108261 0)
(-0.103865 0.0101267 0)
(-0.11302 0.00938597 0)
(-0.121508 0.00869648 0)
(-0.129338 0.0079904 0)
(-0.136528 0.00732634 0)
(-0.14309 0.00665936 0)
(-0.149046 0.00602767 0)
(-0.154411 0.00540061 0)
(-0.159196 0.00480909 0)
(-0.16344 0.0042275 0)
(-0.167146 0.00368928 0)
(-0.170303 0.00310301 0)
(-0.172921 0.00256032 0)
(-0.175054 0.00205628 0)
(-0.17665 0.00147256 0)
(-0.177782 0.00103314 0)
(-0.178404 0.000415494 0)
(-0.178594 3.56581e-05 0)
(-0.178289 -0.000622756 0)
(-0.177534 -0.000990338 0)
(-0.176318 -0.00166255 0)
(-0.174563 -0.00206881 0)
(-0.172376 -0.00273893 0)
(-0.16957 -0.00322851 0)
(-0.166296 -0.00386717 0)
(-0.162415 -0.00446681 0)
(-0.157936 -0.00513608 0)
(-0.152817 -0.00575559 0)
(-0.147129 -0.00646623 0)
(-0.140648 -0.00717196 0)
(-0.133724 -0.0077703 0)
(-0.125948 -0.00866201 0)
(-0.117644 -0.00918488 0)
(-0.108493 -0.0101762 0)
(-0.0987228 -0.0106864 0)
(-0.0882226 -0.0117203 0)
(-0.0769798 -0.0121846 0)
(-0.0651038 -0.0131574 0)
(-0.0524999 -0.0136116 0)
(-0.0393162 -0.0144586 0)
(-0.0255759 -0.0148387 0)
(-0.011185 -0.0155156 0)
(0.0036658 -0.0158772 0)
(0.0190376 -0.0162816 0)
(0.0344805 -0.0164916 0)
(0.0494697 -0.0168366 0)
(0.065658 -0.0167247 0)
(0.0815822 -0.0165906 0)
(0.0970632 -0.0164599 0)
(0.112207 -0.0159879 0)
(0.126991 -0.0153809 0)
(0.141149 -0.0145913 0)
(0.154474 -0.0137077 0)
(0.166901 -0.0126367 0)
(0.178245 -0.0114511 0)
(0.188423 -0.0101023 0)
(0.197265 -0.00866468 0)
(0.204707 -0.00710252 0)
(0.210618 -0.00544995 0)
(0.214967 -0.00374127 0)
(0.21765 -0.00198393 0)
(0.218672 -0.000199287 0)
(0.217996 0.00159348 0)
(0.215653 0.00337996 0)
(0.211654 0.00510978 0)
(0.206048 0.00678335 0)
(0.198887 0.00836823 0)
(0.190272 0.00985853 0)
(0.18031 0.0112398 0)
(0.169109 0.0124807 0)
(0.156815 0.0135775 0)
(0.143552 0.0145346 0)
(0.129476 0.0153219 0)
(0.114738 0.0159233 0)
(0.0994995 0.0163892 0)
(0.0839358 0.0166637 0)
(0.0681766 0.0167967 0)
(0.0523845 0.0167611 0)
(0.0366846 0.0165883 0)
(0.0211899 0.0162898 0)
(0.00595024 0.0159013 0)
(-0.00886298 0.0153962 0)
(-0.0231181 0.0148333 0)
(-0.0367744 0.0141988 0)
(-0.0498155 0.0135439 0)
(-0.0622016 0.0128369 0)
(-0.0739335 0.0121179 0)
(-0.0849312 0.0113313 0)
(-0.0952001 0.0106135 0)
(-0.104838 0.00987468 0)
(-0.113709 0.0091238 0)
(-0.121948 0.00844733 0)
(-0.129504 0.00768039 0)
(-0.136479 0.00705905 0)
(-0.142556 0.00631173 0)
(-0.148133 0.00572349 0)
(-0.153357 0.00509792 0)
(-0.157607 0.00455794 0)
(-0.161592 0.0038103 0)
(-0.165072 0.00345742 0)
(-0.167804 0.00270709 0)
(-0.170333 0.0024318 0)
(-0.172156 0.00184668 0)
(-0.173955 0.00173103 0)
(-0.175333 0.00102355 0)
(-0.175832 0.000483709 0)
(-0.176334 0.000230672 0)
(-0.176118 -0.000500259 0)
(-0.175565 -0.000746087 0)
(-0.174575 -0.00142931 0)
(-0.173016 -0.00183017 0)
(-0.171112 -0.00243109 0)
(-0.16853 -0.00298157 0)
(-0.165533 -0.00356216 0)
(-0.16187 -0.00421156 0)
(-0.157604 -0.00487077 0)
(-0.152758 -0.0055598 0)
(-0.147182 -0.0062782 0)
(-0.141005 -0.00694166 0)
(-0.134102 -0.00776948 0)
(-0.126437 -0.00841173 0)
(-0.118327 -0.0091915 0)
(-0.109088 -0.0101141 0)
(-0.09943 -0.0105717 0)
(-0.0890518 -0.0114514 0)
(-0.0780915 -0.011867 0)
(-0.0665398 -0.0126906 0)
(-0.0543852 -0.0130426 0)
(-0.0418913 -0.0137022 0)
(-0.0287955 -0.0139245 0)
(-0.0155197 -0.0143948 0)
(-0.00175345 -0.0144607 0)
(0.0121903 -0.0146543 0)
(0.0256429 -0.0146677 0)
(0.0390405 -0.0146444 0)
(0.0530636 -0.0143138 0)
(0.0667807 -0.0140332 0)
(0.0796477 -0.0135006 0)
(0.0918718 -0.012915 0)
(0.103668 -0.0120164 0)
(0.114639 -0.0108937 0)
(0.124261 -0.00951738 0)
(0.13264 -0.00751175 0)
(0.139337 -0.00450351 0)
(0.141725 -0.00104442 0)
(0.145066 0.0086787 0)
(0.133646 0.0139499 0)
(-0.172819 0.00380514 0)
(-0.175312 0.00312318 0)
(-0.177453 0.00246213 0)
(-0.179089 0.00180843 0)
(-0.18023 0.00116492 0)
(-0.18088 0.000526149 0)
(-0.181044 -0.000109718 0)
(-0.180724 -0.00074715 0)
(-0.179912 -0.00138815 0)
(-0.178608 -0.00203756 0)
(-0.176802 -0.00269411 0)
(-0.174488 -0.00336833 0)
(-0.171653 -0.00405055 0)
(-0.168288 -0.00476163 0)
(-0.164372 -0.00547797 0)
(-0.159891 -0.00620985 0)
(-0.154833 -0.00699429 0)
(-0.14917 -0.00776676 0)
(-0.142895 -0.00860937 0)
(-0.135975 -0.00942107 0)
(-0.128407 -0.010322 0)
(-0.120157 -0.0111632 0)
(-0.111231 -0.0121142 0)
(-0.101598 -0.0129648 0)
(-0.0912753 -0.0139471 0)