/*--------------------------------*- C++ -*----------------------------------*\
| =========                 |                                                 |
| \\      /  F ield         | OpenFOAM: The Open Source CFD Toolbox           |
|  \\    /   O peration     | Version:  3.0.1                                 |
|   \\  /    A nd           | Web:      www.OpenFOAM.org                      |
|    \\/     M anipulation  |                                                 |
\*---------------------------------------------------------------------------*/
FoamFile
{
    version     2.0;
    format      ascii;
    class       volScalarField;
    location    "84";
    object      p_rgh;
}
// * * * * * * * * * * * * * * * * * * * * * * * * * * * * * * * * * * * * * //

dimensions      [1 -1 -2 0 0 0 0];

internalField   nonuniform List<scalar> 
21420
(
-65.008
-92.0113
-117.751
-142.226
-165.411
-187.283
-207.793
-226.935
-244.692
-261.053
-276.034
-289.647
-301.912
-312.861
-322.526
-330.946
-338.163
-344.209
-349.049
-352.759
-355.403
-356.99
-357.522
-357.02
-355.481
-352.894
-349.239
-344.473
-338.568
-331.478
-323.135
-313.493
-302.493
-290.073
-276.178
-260.731
-243.707
-225.07
-204.774
-182.829
-159.244
-134.041
-107.271
-79.0042
-49.3549
-18.4763
13.4247
46.1371
79.3803
112.806
146.091
178.854
210.695
241.212
269.985
296.642
320.84
342.24
360.564
375.581
387.104
395.013
399.215
399.595
396.094
388.738
377.613
362.854
344.738
323.538
299.547
273.053
244.439
214.266
182.84
149.973
115.708
80.4467
44.5601
8.4339
-27.5069
-62.8294
-97.0655
-129.878
-160.958
-190.077
-217.129
-242.058
-264.899
-285.733
-304.678
-321.864
-337.423
-351.466
-364.075
-375.3
-385.161
-393.65
-400.753
-406.455
-410.748
-413.631
-415.119
-415.235
-414.019
-411.509
-407.749
-402.784
-396.656
-389.403
-381.033
-371.586
-361.108
-349.587
-337.032
-323.443
-308.82
-293.16
-276.457
-258.711
-239.921
-220.093
-199.237
-177.373
-154.528
-130.741
-106.066
-80.5786
-54.3788
-27.5983
-0.399908
27.0257
54.458
81.653
108.351
134.273
159.127
182.618
204.449
224.32
241.94
257.032
269.332
278.605
284.644
287.28
286.392
281.795
273.662
261.916
246.689
228.094
206.384
181.831
154.754
125.521
94.5358
62.2316
29.0587
-4.52558
-38.0725
-71.1616
-103.416
-134.508
-164.17
-192.194
-218.432
-242.79
-265.222
-285.725
-304.333
-321.108
-336.126
-349.472
-361.23
-371.478
-380.286
-387.723
-393.856
-398.754
-402.494
-405.161
-406.843
-407.631
-407.615
-406.883
-405.513
-403.577
-401.131
-398.223
-394.888
-391.146
-387.009
-382.462
-377.482
-372.02
-366.012
-359.379
-352.035
-343.885
-334.834
-324.786
-313.646
-301.32
-287.721
-272.768
-256.389
-238.532
-219.166
-198.286
-175.928
-152.169
-127.125
-100.957
-73.8675
-46.1051
-17.9631
10.2359
38.1382
65.3527
91.4683
116.065
138.72
159.019
176.555
190.97
201.952
209.246
212.49
211.95
207.355
198.756
186.333
170.33
151.034
128.796
104.014
77.1163
48.5516
18.7728
-11.7702
-42.6481
-73.4681
-103.88
-133.579
-162.318
-189.901
-216.178
-241.044
-264.45
-286.384
-306.861
-325.919
-343.615
-360.015
-375.193
-389.228
-402.199
-414.182
-425.243
-435.44
-444.816
-453.402
-461.219
-468.272
-474.59
-480.109
-484.756
-488.503
-491.317
-493.101
-493.776
-493.248
-491.38
-488.043
-483.096
-476.404
-467.825
-457.257
-444.565
-429.712
-412.543
-393.092
-371.255
-347.068
-320.517
-291.706
-260.72
-227.702
-192.864
-156.417
-118.616
-79.7832
-40.2323
-0.320723
39.5588
79.0206
117.624
154.989
190.66
224.252
255.353
283.59
308.634
330.171
347.93
361.7
371.274
376.789
378.465
376.188
369.619
359.105
345.068
327.736
307.362
284.28
258.822
231.324
202.231
171.907
140.716
109.099
77.3866
45.9342
15.0243
-15.0832
-44.1235
-71.9331
-98.3717
-123.32
-146.735
-168.594
-188.89
-207.667
-224.965
-240.849
-255.377
-268.603
-280.587
-291.376
-301.007
-309.513
-316.913
-323.224
-328.449
-332.588
-335.635
-337.576
-338.396
-338.087
-336.636
-333.943
-330.021
-324.887
-318.553
-311.026
-65.0616
-92.0669
-117.808
-142.284
-165.47
-187.341
-207.851
-226.993
-244.749
-261.109
-276.089
-289.7
-301.964
-312.911
-322.575
-330.993
-338.209
-344.253
-349.092
-352.801
-355.445
-357.031
-357.563
-357.061
-355.522
-352.937
-349.282
-344.518
-338.615
-331.527
-323.187
-313.547
-302.55
-290.133
-276.241
-260.797
-243.774
-225.14
-204.845
-182.901
-159.316
-134.112
-107.34
-79.071
-49.4172
-18.5325
13.3764
46.0985
79.3533
112.792
146.092
178.871
210.728
241.261
270.051
296.724
320.937
342.35
360.686
375.712
387.243
395.156
399.359
399.749
396.23
388.874
377.745
362.98
344.852
323.639
299.634
273.13
244.501
214.307
182.866
149.99
115.718
80.4487
44.5534
8.41816
-27.5322
-62.8646
-97.1102
-129.931
-161.019
-190.144
-217.2
-242.131
-264.972
-285.805
-304.748
-321.933
-337.49
-351.531
-364.14
-375.365
-385.226
-393.715
-400.82
-406.522
-410.814
-413.697
-415.184
-415.299
-414.082
-411.569
-407.808
-402.841
-396.713
-389.459
-381.086
-371.643
-361.163
-349.642
-337.088
-323.499
-308.878
-293.218
-276.517
-258.771
-239.982
-220.155
-199.3
-177.436
-154.591
-130.803
-106.127
-80.6369
-54.4336
-27.6481
-0.443329
26.9901
54.4314
81.6365
108.346
134.28
159.146
182.651
204.495
224.379
242.013
257.118
269.43
278.713
284.761
287.403
286.519
281.935
273.783
262.036
246.801
228.196
206.473
181.904
154.81
125.558
94.5536
62.2295
29.0372
-4.5652
-38.1289
-71.2325
-103.499
-134.6
-164.268
-192.296
-218.536
-242.893
-265.322
-285.822
-304.426
-321.196
-336.21
-349.551
-361.305
-371.549
-380.354
-387.787
-393.916
-398.81
-402.547
-405.211
-406.888
-407.672
-407.653
-406.919
-405.546
-403.608
-401.16
-398.252
-394.917
-391.175
-387.038
-382.494
-377.516
-372.058
-366.053
-359.425
-352.086
-343.94
-334.894
-324.851
-313.716
-301.395
-287.801
-272.852
-256.477
-238.622
-219.257
-198.378
-176.02
-152.257
-127.209
-101.035
-73.9369
-46.1641
-18.0098
10.2037
38.1224
65.3546
91.4892
116.106
138.781
159.098
176.651
191.082
202.076
209.378
212.645
212.076
207.485
198.88
186.445
170.427
151.114
128.856
104.054
77.136
48.5517
18.7546
-11.805
-42.6972
-73.5289
-103.95
-133.656
-162.4
-189.987
-216.264
-241.13
-264.535
-286.467
-306.941
-325.996
-343.688
-360.084
-375.259
-389.29
-402.257
-414.237
-425.295
-435.491
-444.865
-453.45
-461.269
-468.323
-474.642
-480.161
-484.811
-488.56
-491.375
-493.161
-493.838
-493.311
-491.445
-488.11
-483.164
-476.473
-467.893
-457.325
-444.632
-429.778
-412.607
-393.154
-371.315
-347.126
-320.571
-291.756
-260.767
-227.743
-192.9
-156.446
-118.639
-79.7976
-40.2379
-0.316242
39.574
79.048
117.664
155.043
190.73
224.337
255.454
283.705
308.762
330.312
348.08
361.858
371.451
376.987
378.614
376.313
369.751
359.239
345.191
327.846
307.456
284.358
258.883
231.368
202.258
171.918
140.712
109.08
77.3549
45.8914
14.9722
-15.1426
-44.1886
-72.002
-98.4427
-123.391
-146.806
-168.663
-188.957
-207.73
-225.026
-240.906
-255.431
-268.654
-280.636
-291.423
-301.053
-309.557
-316.957
-323.267
-328.492
-332.632
-335.678
-337.62
-338.441
-338.133
-336.681
-333.988
-330.067
-324.933
-318.6
-311.074
-65.1686
-92.1781
-117.922
-142.4
-165.587
-187.458
-207.968
-227.108
-244.863
-261.221
-276.199
-289.808
-302.069
-313.013
-322.673
-331.088
-338.3
-344.342
-349.178
-352.886
-355.528
-357.113
-357.645
-357.143
-355.605
-353.021
-349.369
-344.609
-338.71
-331.626
-323.291
-313.657
-302.666
-290.254
-276.367
-260.927
-243.909
-225.278
-204.986
-183.044
-159.46
-134.254
-107.479
-79.2033
-49.5405
-18.6436
13.2814
46.0231
79.301
112.766
146.095
178.906
210.796
241.362
270.185
296.89
321.133
342.573
360.932
375.977
387.522
395.444
399.65
400.058
396.502
389.151
378.013
363.234
345.083
323.842
299.81
273.284
244.627
214.393
182.92
150.028
115.742
80.4569
44.5451
8.39262
-27.5759
-62.9273
-97.1909
-130.028
-161.131
-190.266
-217.329
-242.263
-265.104
-285.935
-304.873
-322.053
-337.605
-351.644
-364.25
-375.475
-385.337
-393.827
-400.932
-406.635
-410.927
-413.808
-415.293
-415.405
-414.184
-411.668
-407.902
-402.933
-396.802
-389.548
-381.167
-371.729
-361.247
-349.726
-337.172
-323.585
-308.964
-293.306
-276.606
-258.862
-240.075
-220.249
-199.395
-177.532
-154.686
-130.897
-106.218
-80.7237
-54.5133
-27.7179
-0.50072
26.9479
54.4069
81.6319
108.363
134.321
159.212
182.743
204.614
224.525
242.185
257.315
269.651
278.956
285.021
287.676
286.8
282.238
274.051
262.304
247.053
228.429
206.679
182.08
154.95
125.661
94.6183
62.2547
29.024
-4.61485
-38.212
-71.3446
-103.635
-134.754
-164.435
-192.471
-218.714
-243.071
-265.496
-285.989
-304.585
-321.345
-336.349
-349.682
-361.427
-371.663
-380.462
-387.889
-394.01
-398.898
-402.627
-405.283
-406.953
-407.73
-407.704
-406.963
-405.585
-403.643
-401.192
-398.282
-394.945
-391.204
-387.068
-382.527
-377.554
-372.101
-366.105
-359.485
-352.155
-344.018
-334.982
-324.948
-313.822
-301.511
-287.926
-272.985
-256.616
-238.767
-219.406
-198.527
-176.166
-152.399
-127.341
-101.154
-74.0392
-46.2458
-18.0666
10.1759
38.1273
65.3953
91.5678
116.223
138.938
159.294
176.882
191.343
202.36
209.678
212.988
212.369
207.783
199.163
186.706
170.657
151.307
129.011
104.167
77.2091
48.5855
18.7513
-11.8412
-42.762
-73.6176
-104.057
-133.777
-162.531
-190.123
-216.403
-241.269
-264.671
-286.598
-307.066
-326.115
-343.8
-360.188
-375.355
-389.379
-402.339
-414.312
-425.366
-435.557
-444.929
-453.514
-461.334
-468.392
-474.712
-480.235
-484.889
-488.641
-491.461
-493.251
-493.932
-493.41
-491.548
-488.217
-483.273
-476.584
-468.006
-457.437
-444.744
-429.888
-412.716
-393.26
-371.418
-347.226
-320.666
-291.845
-260.848
-227.815
-192.963
-156.497
-118.676
-79.8195
-40.2425
-0.30204
39.6099
79.107
117.75
155.156
190.872
224.511
255.658
283.938
309.022
330.595
348.383
362.177
371.807
377.362
378.926
376.571
370.02
359.507
345.438
328.065
307.645
284.515
259.005
231.456
202.312
171.94
140.702
109.042
77.2916
45.8059
14.8682
-15.2615
-44.3187
-72.1396
-98.5846
-123.535
-146.948
-168.801
-189.091
-207.858
-225.147
-241.021
-255.539
-268.757
-280.734
-291.517
-301.143
-309.646
-317.044
-323.353
-328.579
-332.718
-335.766
-337.708
-338.531
-338.224
-336.772
-334.079
-330.159
-325.027
-318.695
-311.17
-65.3293
-92.345
-118.093
-142.573
-165.762
-187.634
-208.143
-227.282
-245.033
-261.389
-276.363
-289.969
-302.226
-313.165
-322.821
-331.23
-338.437
-344.474
-349.307
-353.013
-355.652
-357.236
-357.767
-357.266
-355.729
-353.148
-349.5
-344.744
-338.852
-331.775
-323.448
-313.821
-302.838
-290.434
-276.556
-261.124
-244.112
-225.487
-205.199
-183.259
-159.675
-134.467
-107.687
-79.402
-49.7256
-18.8105
13.1386
45.9096
79.2224
112.727
146.1
178.958
210.897
241.514
270.386
297.139
321.427
342.908
361.301
376.375
387.941
395.876
400.085
400.512
396.918
389.57
378.417
363.615
345.43
324.148
300.075
273.515
244.816
214.523
183.001
150.085
115.779
80.4695
44.533
8.35482
-27.641
-63.0207
-97.3114
-130.174
-161.297
-190.449
-217.522
-242.462
-265.302
-286.129
-305.06
-322.233
-337.778
-351.812
-364.416
-375.64
-385.503
-393.994
-401.1
-406.804
-411.094
-413.973
-415.455
-415.562
-414.336
-411.815
-408.043
-403.069
-396.933
-389.678
-381.29
-371.855
-361.372
-349.851
-337.297
-323.711
-309.092
-293.436
-276.739
-258.997
-240.212
-220.387
-199.535
-177.673
-154.827
-131.036
-106.353
-80.8511
-54.63
-27.8199
-0.583933
26.8876
54.3731
81.628
108.392
134.385
159.314
182.884
204.795
224.747
242.447
257.615
269.986
279.323
285.415
288.089
287.223
282.689
274.464
262.713
247.437
228.782
206.992
182.346
155.164
125.819
94.7182
62.2954
29.0067
-4.68711
-38.3346
-71.5108
-103.837
-134.984
-164.684
-192.732
-218.981
-243.336
-265.756
-286.239
-304.822
-321.568
-336.559
-349.878
-361.611
-371.836
-380.624
-388.041
-394.153
-399.029
-402.748
-405.392
-407.051
-407.817
-407.781
-407.031
-405.645
-403.697
-401.241
-398.327
-394.989
-391.247
-387.114
-382.577
-377.611
-372.167
-366.181
-359.574
-352.257
-344.134
-335.112
-325.092
-313.981
-301.683
-288.111
-273.182
-256.824
-238.982
-219.626
-198.748
-176.384
-152.607
-127.536
-101.329
-74.1893
-46.3647
-18.1484
10.1378
38.1385
65.4601
91.6897
116.405
139.179
159.592
177.232
191.739
202.792
210.132
213.491
212.827
208.237
199.594
187.102
171.006
151.602
129.247
104.343
77.3236
48.6408
18.7511
-11.8908
-42.8548
-73.7461
-104.213
-133.954
-162.722
-190.324
-216.607
-241.472
-264.87
-286.791
-307.25
-326.289
-343.963
-360.34
-375.496
-389.509
-402.458
-414.422
-425.467
-435.653
-445.021
-453.605
-461.427
-468.491
-474.813
-480.341
-485.001
-488.76
-491.585
-493.381
-494.07
-493.554
-491.698
-488.373
-483.434
-476.749
-468.172
-457.604
-444.91
-430.052
-412.878
-393.419
-371.573
-347.375
-320.808
-291.978
-260.97
-227.924
-193.056
-156.572
-118.731
-79.8521
-40.2501
-0.280134
39.6633
79.1963
117.876
155.325
191.086
224.77
255.963
284.287
309.412
331.019
348.836
362.653
372.319
377.88
379.417
376.99
370.431
359.911
345.808
328.395
307.928
284.749
259.189
231.588
202.393
171.972
140.688
108.985
77.1964
45.6774
14.712
-15.4401
-44.5141
-72.3463
-98.7977
-123.75
-147.161
-169.009
-189.291
-208.049
-225.328
-241.193
-255.702
-268.911
-280.881
-291.658
-301.279
-309.778
-317.174
-323.482
-328.708
-332.848
-335.896
-337.84
-338.664
-338.359
-336.91
-334.216
-330.297
-325.167
-318.837
-311.313
-65.5438
-92.5676
-118.321
-142.805
-165.995
-187.868
-208.375
-227.512
-245.261
-261.614
-276.583
-290.184
-302.435
-313.369
-323.017
-331.42
-338.62
-344.65
-349.479
-353.182
-355.818
-357.4
-357.93
-357.429
-355.895
-353.317
-349.674
-344.925
-339.041
-331.973
-323.656
-314.04
-303.068
-290.676
-276.808
-261.385
-244.383
-225.764
-205.482
-183.545
-159.962
-134.752
-107.965
-79.6673
-49.9729
-19.0333
12.9477
45.7579
79.1171
112.675
146.107
179.027
211.032
241.715
270.655
297.471
321.819
343.354
361.794
376.906
388.501
396.452
400.664
401.096
397.494
390.134
378.958
364.124
345.892
324.555
300.426
273.822
245.068
214.697
183.108
150.16
115.827
80.4862
44.517
8.30455
-27.7276
-63.145
-97.4719
-130.367
-161.519
-190.692
-217.78
-242.726
-265.566
-286.387
-305.31
-322.472
-338.009
-352.036
-364.636
-375.859
-385.724
-394.217
-401.325
-407.028
-411.318
-414.194
-415.671
-415.772
-414.539
-412.01
-408.232
-403.25
-397.109
-389.846
-381.461
-372.022
-361.538
-350.016
-337.463
-323.879
-309.263
-293.61
-276.915
-259.177
-240.394
-220.572
-199.722
-177.86
-155.014
-131.221
-106.532
-81.021
-54.7857
-27.956
-0.694836
26.8071
54.328
81.623
108.431
134.471
159.449
183.072
205.037
225.042
242.796
258.016
270.434
279.813
285.94
288.641
287.788
283.271
275.03
263.261
247.949
229.252
207.409
182.7
155.449
126.03
94.8507
62.3492
28.9827
-4.78479
-38.4993
-71.7339
-104.108
-135.292
-165.018
-193.082
-219.337
-243.692
-266.103
-286.573
-305.14
-321.868
-336.839
-350.14
-361.857
-372.067
-380.842
-388.246
-394.345
-399.208
-402.911
-405.54
-407.184
-407.936
-407.886
-407.124
-405.728
-403.771
-401.308
-398.39
-395.049
-391.308
-387.177
-382.646
-377.689
-372.257
-366.286
-359.695
-352.395
-344.29
-335.287
-325.286
-314.193
-301.913
-288.358
-273.445
-257.1
-239.27
-219.92
-199.043
-176.674
-152.886
-127.797
-101.564
-74.3898
-46.5236
-18.2576
10.087
38.1534
65.5466
91.8525
116.647
139.502
159.99
177.7
192.268
203.37
210.741
214.142
213.457
208.847
200.172
187.631
171.473
151.997
129.564
104.577
77.4769
48.715
18.7512
-11.957
-42.9787
-73.9176
-104.421
-134.189
-162.978
-190.591
-216.879
-241.744
-265.136
-287.047
-307.496
-326.521
-344.181
-360.543
-375.683
-389.681
-402.616
-414.567
-425.602
-435.78
-445.144
-453.727
-461.551
-468.622
-474.948
-480.482
-485.15
-488.917
-491.75
-493.555
-494.252
-493.745
-491.898
-488.58
-483.648
-476.968
-468.393
-457.826
-445.131
-430.27
-413.093
-393.63
-371.778
-347.573
-320.997
-292.155
-261.133
-228.069
-193.181
-156.674
-118.805
-79.8962
-40.2597
-0.251751
39.7351
79.315
118.046
155.552
191.372
225.117
256.371
284.753
309.931
331.585
349.44
363.287
372.987
378.555
380.064
377.577
370.988
360.45
346.302
328.834
308.306
285.062
259.433
231.763
202.502
172.015
140.669
108.909
77.0691
45.5057
14.5033
-15.6786
-44.7751
-72.6223
-99.0821
-124.036
-147.445
-169.286
-189.558
-208.305
-225.571
-241.422
-255.919
-269.117
-281.077
-291.846
-301.461
-309.955
-317.348
-323.655
-328.88
-333.021
-336.071
-338.017
-338.843
-338.54
-337.093
-334.399
-330.482
-325.355
-319.026
-311.505
-65.8122
-92.8461
-118.606
-143.095
-166.288
-188.16
-208.667
-227.801
-245.546
-261.894
-276.858
-290.452
-302.697
-313.623
-323.263
-331.658
-338.848
-344.87
-349.694
-353.393
-356.026
-357.605
-358.135
-357.634
-356.102
-353.529
-349.892
-345.151
-339.277
-332.221
-323.916
-314.314
-303.356
-290.977
-277.122
-261.713
-244.721
-226.112
-205.836
-183.904
-160.321
-135.107
-108.312
-79.9995
-50.2825
-19.3123
12.7084
45.5677
78.9849
112.61
146.115
179.113
211.2
241.968
270.99
297.886
322.309
343.913
362.411
377.571
389.2
397.173
401.39
401.813
398.222
390.839
379.636
364.76
346.47
325.063
300.865
274.203
245.382
214.918
183.243
150.251
115.886
80.5068
44.497
8.24189
-27.8355
-63.3001
-97.6722
-130.609
-161.797
-190.997
-218.102
-243.057
-265.896
-286.71
-305.621
-322.772
-338.297
-352.316
-364.912
-376.134
-386
-394.495
-401.606
-407.31
-411.598
-414.471
-415.942
-416.036
-414.793
-412.255
-408.467
-403.478
-397.329
-390.058
-381.673
-372.231
-361.745
-350.223
-337.671
-324.09
-309.477
-293.827
-277.136
-259.401
-240.622
-220.803
-199.955
-178.095
-155.249
-131.452
-106.757
-81.234
-54.9809
-28.1268
-0.834237
26.7059
54.2711
81.616
108.479
134.577
159.619
183.307
205.338
225.411
243.232
258.515
270.993
280.426
286.597
289.33
288.494
283.986
275.747
263.945
248.591
229.84
207.93
183.142
155.805
126.292
95.0149
62.4147
28.9509
-4.90884
-38.7074
-72.015
-104.449
-135.679
-165.437
-193.522
-219.786
-244.139
-266.54
-286.994
-305.539
-322.244
-337.192
-350.471
-362.167
-372.359
-381.117
-388.505
-394.587
-399.432
-403.118
-405.728
-407.353
-408.086
-408.02
-407.242
-405.834
-403.866
-401.395
-398.471
-395.127
-391.386
-387.259
-382.734
-377.788
-372.371
-366.418
-359.848
-352.569
-344.487
-335.507
-325.529
-314.459
-302.202
-288.669
-273.775
-257.448
-239.631
-220.288
-199.412
-177.038
-153.236
-128.124
-101.858
-74.6418
-46.7235
-18.3953
10.0224
38.1711
65.6539
92.0555
116.95
139.904
160.488
178.286
192.93
204.093
211.503
214.937
214.26
209.613
200.895
188.294
172.058
152.491
129.959
104.87
77.6679
48.8067
18.7502
-12.0411
-43.1349
-74.1333
-104.683
-134.485
-163.298
-190.926
-217.221
-242.083
-265.469
-287.369
-307.803
-326.812
-344.453
-360.797
-375.918
-389.897
-402.815
-414.75
-425.771
-435.939
-445.297
-453.879
-461.705
-468.785
-475.118
-480.66
-485.337
-489.114
-491.956
-493.772
-494.48
-493.984
-492.148
-488.84
-483.916
-477.242
-468.67
-458.104
-445.407
-430.543
-413.363
-393.893
-372.035
-347.821
-321.233
-292.377
-261.337
-228.25
-193.337
-156.8
-118.898
-79.9513
-40.2729
-0.216218
39.8238
79.4634
118.257
155.835
191.728
225.551
256.88
285.334
310.579
332.292
350.193
364.079
373.812
379.386
380.866
378.33
371.697
361.125
346.92
329.383
308.779
285.452
259.739
231.983
202.636
172.068
140.645
108.813
76.9093
45.2904
14.2418
-15.9773
-45.1018
-72.9679
-99.4381
-124.395
-147.8
-169.633
-189.892
-208.624
-225.874
-241.709
-256.19
-269.374
-281.322
-292.08
-301.687
-310.176
-317.565
-323.87
-329.095
-333.237
-336.288
-338.237
-339.066
-338.765
-337.321
-334.629
-330.714
-325.588
-319.262
-311.744
-66.1347
-93.1807
-118.948
-143.443
-166.638
-188.511
-209.017
-228.147
-245.888
-262.231
-277.188
-290.775
-303.011
-313.927
-323.558
-331.943
-339.122
-345.133
-349.952
-353.647
-356.275
-357.851
-358.379
-357.88
-356.35
-353.782
-350.153
-345.422
-339.56
-332.518
-324.229
-314.643
-303.701
-291.339
-277.5
-262.106
-245.127
-226.529
-206.261
-184.334
-160.752
-135.535
-108.73
-80.3987
-50.6548
-19.648
12.4203
45.3385
78.8255
112.53
146.123
179.216
211.402
242.27
271.392
298.385
322.898
344.583
363.152
378.369
390.041
398.039
402.263
402.675
399.09
391.687
380.451
365.524
347.163
325.673
301.39
274.657
245.758
215.187
183.406
150.359
115.957
80.5313
44.4731
8.16713
-27.9644
-63.4856
-97.9119
-130.898
-162.129
-191.362
-218.489
-243.454
-266.292
-287.098
-305.995
-323.131
-338.643
-352.651
-365.242
-376.464
-386.331
-394.83
-401.943
-407.648
-411.935
-414.802
-416.266
-416.351
-415.098
-412.549
-408.749
-403.751
-397.593
-390.313
-381.926
-372.482
-361.993
-350.471
-337.921
-324.342
-309.733
-294.088
-277.401
-259.671
-240.896
-221.081
-200.236
-178.377
-155.53
-131.73
-107.027
-81.4902
-55.2158
-28.3325
-1.00235
26.5836
54.2019
81.6067
108.535
134.704
159.821
183.587
205.699
225.853
243.754
259.114
271.663
281.159
287.384
290.157
289.344
284.842
276.606
264.766
249.361
230.545
208.554
183.671
156.23
126.604
95.2105
62.4916
28.9109
-5.05992
-38.9595
-72.355
-104.861
-136.146
-165.943
-194.052
-220.326
-244.677
-267.067
-287.5
-306.02
-322.697
-337.617
-350.869
-362.54
-372.711
-381.449
-388.818
-394.88
-399.704
-403.368
-405.956
-407.558
-408.269
-408.182
-407.387
-405.962
-403.982
-401.501
-398.571
-395.223
-391.482
-387.358
-382.841
-377.908
-372.509
-366.578
-360.033
-352.78
-344.725
-335.772
-325.822
-314.781
-302.551
-289.043
-274.173
-257.866
-240.065
-220.731
-199.858
-177.476
-153.658
-128.518
-102.213
-74.9459
-46.9651
-18.5622
9.94319
38.1908
65.7813
92.2979
117.312
140.387
161.085
178.989
193.726
204.962
212.423
215.885
215.225
210.535
201.765
189.09
172.759
153.083
130.432
105.221
77.8959
48.9154
18.7475
-12.1438
-43.3246
-74.3941
-104.999
-134.843
-163.685
-191.33
-217.631
-242.492
-265.869
-287.755
-308.172
-327.161
-344.781
-361.102
-376.2
-390.156
-403.053
-414.968
-425.974
-436.131
-445.482
-454.061
-461.889
-468.98
-475.322
-480.873
-485.561
-489.35
-492.204
-494.032
-494.754
-494.271
-492.448
-489.152
-484.238
-477.571
-469.003
-458.437
-445.739
-430.871
-413.686
-394.21
-372.344
-348.119
-321.517
-292.643
-261.581
-228.467
-193.525
-156.952
-119.01
-80.0181
-40.2886
-0.174475
39.9302
79.641
118.509
156.173
192.156
226.07
257.491
286.033
311.358
333.14
351.098
365.029
374.795
380.377
381.828
379.242
372.558
361.938
347.663
330.043
309.346
285.921
260.105
232.246
202.798
172.131
140.615
108.698
76.7167
45.0311
13.927
-16.3368
-45.4949
-73.3833
-99.866
-124.827
-148.227
-170.049
-190.294
-209.007
-226.238
-242.053
-256.515
-269.683
-281.615
-292.361
-301.959
-310.441
-317.825
-324.128
-329.353
-333.496
-336.55
-338.501
-339.333
-339.036
-337.595
-334.905
-330.992
-325.869
-319.546
-312.031
-66.5115
-93.5715
-119.348
-143.849
-167.048
-188.921
-209.425
-228.552
-246.288
-262.624
-277.573
-291.151
-303.377
-314.283
-323.903
-332.276
-339.442
-345.44
-350.253
-353.942
-356.565
-358.138
-358.665
-358.166
-356.639
-354.078
-350.458
-345.739
-339.891
-332.865
-324.593
-315.026
-304.104
-291.761
-277.941
-262.564
-245.601
-227.015
-206.758
-184.837
-161.256
-136.034
-109.217
-80.8655
-51.0902
-20.0407
12.083
45.0698
78.6383
112.436
146.132
179.336
211.636
242.622
271.862
298.966
323.585
345.366
364.017
379.301
391.023
399.051
403.283
403.684
400.101
392.677
381.403
366.417
347.973
326.385
302
275.183
246.194
215.507
183.596
150.482
116.037
80.5595
44.4455
8.08052
-28.114
-63.701
-98.1907
-131.235
-162.517
-191.789
-218.94
-243.917
-266.754
-287.55
-306.432
-323.549
-339.045
-353.042
-365.627
-376.847
-386.717
-395.22
-402.336
-408.043
-412.327
-415.19
-416.645
-416.72
-415.454
-412.891
-409.079
-404.069
-397.9
-390.611
-382.222
-372.773
-362.283
-350.761
-338.211
-324.636
-310.031
-294.391
-277.71
-259.985
-241.215
-221.404
-200.563
-178.706
-155.859
-132.055
-107.343
-81.7899
-55.4908
-28.5735
-1.1995
26.4399
54.12
81.5948
108.6
134.852
160.055
183.913
206.118
226.367
244.362
259.812
272.444
282.014
288.302
291.121
290.335
285.843
277.604
265.724
250.259
231.367
209.281
184.288
156.725
126.968
95.4372
62.5793
28.8619
-5.23879
-39.2566
-72.7548
-105.344
-136.694
-166.536
-194.673
-220.959
-245.308
-267.683
-288.093
-306.583
-323.227
-338.113
-351.334
-362.977
-373.122
-381.837
-389.184
-395.223
-400.023
-403.662
-406.223
-407.799
-408.485
-408.374
-407.557
-406.114
-404.119
-401.627
-398.688
-395.335
-391.594
-387.474
-382.967
-378.05
-372.672
-366.766
-360.25
-353.027
-345.004
-336.083
-326.166
-315.157
-302.959
-289.481
-274.639
-258.356
-240.573
-221.251
-200.379
-177.989
-154.151
-128.979
-102.629
-75.3028
-47.2493
-18.7592
9.84878
38.2118
65.9282
92.5796
117.734
140.95
161.782
179.81
194.655
205.978
213.499
216.995
216.347
211.615
202.783
190.02
173.579
153.774
130.985
105.629
78.1605
49.0404
18.7423
-12.2661
-43.5486
-74.701
-105.37
-135.262
-164.137
-191.803
-218.112
-242.971
-266.337
-288.207
-308.603
-327.569
-345.164
-361.459
-376.53
-390.459
-403.331
-415.224
-426.211
-436.354
-445.698
-454.274
-462.104
-469.207
-475.56
-481.122
-485.823
-489.626
-492.493
-494.336
-495.074
-494.606
-492.798
-489.516
-484.614
-477.955
-469.391
-458.826
-446.126
-431.253
-414.064
-394.579
-372.704
-348.467
-321.848
-292.953
-261.865
-228.72
-193.743
-157.13
-119.141
-80.0964
-40.3079
-0.126391
40.0533
79.8467
118.808
156.569
192.655
226.677
258.204
286.847
312.266
334.13
352.155
366.137
375.938
381.529
382.952
380.314
373.57
362.888
348.53
330.813
310.008
286.468
260.532
232.552
202.985
172.204
140.579
108.561
76.4907
44.7272
13.5585
-16.7574
-45.9546
-73.8692
-100.366
-125.331
-148.726
-170.536
-190.763
-209.455
-226.662
-242.454
-256.895
-270.042
-281.957
-292.689
-302.275
-310.749
-318.129
-324.429
-329.653
-333.798
-336.855
-338.809
-339.645
-339.351
-337.914
-335.227
-331.316
-326.196
-319.877
-312.366
-66.9429
-94.0188
-119.806
-144.314
-167.516
-189.39
-209.892
-229.014
-246.744
-263.073
-278.013
-291.581
-303.796
-314.69
-324.296
-332.656
-339.808
-345.792
-350.598
-354.28
-356.897
-358.465
-358.991
-358.493
-356.97
-354.416
-350.806
-346.1
-340.268
-333.261
-325.01
-315.464
-304.564
-292.243
-278.446
-263.089
-246.143
-227.572
-207.326
-185.411
-161.833
-136.605
-109.776
-81.4001
-51.5892
-20.4911
11.6959
44.7612
78.4228
112.327
146.141
179.471
211.904
243.025
272.398
299.632
324.371
346.262
365.007
380.368
392.147
400.209
404.451
404.838
401.255
393.808
382.493
367.438
348.899
327.197
302.697
275.779
246.69
215.876
183.818
150.619
116.128
80.5912
44.4143
7.98255
-28.2835
-63.9458
-98.5081
-131.619
-162.96
-192.276
-219.456
-244.447
-267.283
-288.066
-306.929
-324.026
-339.505
-353.488
-366.066
-377.286
-387.158
-395.665
-402.786
-408.494
-412.776
-415.633
-417.079
-417.141
-415.861
-413.283
-409.456
-404.432
-398.251
-390.952
-382.558
-373.106
-362.613
-351.091
-338.544
-324.972
-310.372
-294.738
-278.063
-260.344
-241.58
-221.774
-200.936
-179.082
-156.234
-132.426
-107.704
-82.1331
-55.806
-28.85
-1.42592
26.2745
54.0251
81.5798
108.673
135.018
160.322
184.284
206.596
226.954
245.055
260.607
273.336
282.991
289.35
292.223
291.469
286.988
278.741
266.818
251.286
232.306
210.111
184.993
157.289
127.382
95.6946
62.6775
28.8034
-5.44626
-39.5996
-73.2151
-105.901
-137.323
-167.217
-195.386
-221.685
-246.031
-268.389
-288.772
-307.228
-323.833
-338.682
-351.867
-363.478
-373.594
-382.283
-389.604
-395.617
-400.389
-403.999
-406.53
-408.076
-408.732
-408.594
-407.752
-406.289
-404.276
-401.771
-398.823
-395.465
-391.724
-387.609
-383.112
-378.213
-372.859
-366.982
-360.499
-353.311
-345.324
-336.44
-326.56
-315.588
-303.426
-289.983
-275.172
-258.917
-241.155
-221.846
-200.977
-178.578
-154.718
-129.509
-103.107
-75.7134
-47.5766
-18.9868
9.73845
38.2335
66.0941
92.9001
118.215
141.593
162.579
180.749
195.719
207.141
214.732
218.267
217.628
212.852
203.948
191.085
174.516
154.564
131.615
106.094
78.4613
49.181
18.7336
-12.4091
-43.808
-75.055
-105.797
-135.743
-164.657
-192.346
-218.664
-243.519
-266.873
-288.724
-309.097
-328.037
-345.603
-361.867
-376.907
-390.806
-403.649
-415.516
-426.482
-436.609
-445.944
-454.518
-462.349
-469.467
-475.832
-481.408
-486.122
-489.941
-492.824
-494.684
-495.439
-494.99
-493.199
-489.933
-485.044
-478.394
-469.836
-459.271
-446.569
-431.69
-414.495
-395
-373.115
-348.864
-322.226
-293.307
-262.191
-229.01
-193.993
-157.333
-119.291
-80.1864
-40.3308
-0.0725909
40.1929
80.0802
119.149
157.02
193.225
227.368
259.018
287.778
313.305
335.263
353.363
367.402
377.241
382.842
384.239
381.544
374.734
363.976
349.522
331.693
310.765
287.093
261.02
232.901
203.198
172.286
140.536
108.404
76.2308
44.3783
13.1355
-17.2398
-46.4817
-74.4259
-100.939
-125.908
-149.297
-171.092
-191.299
-209.966
-227.147
-242.913
-257.329
-270.453
-282.348
-293.063
-302.636
-311.101
-318.475
-324.773
-329.996
-334.143
-337.203
-339.161
-340.001
-339.712
-338.279
-335.595
-331.687
-326.57
-320.255
-312.749
-67.4293
-94.5228
-120.322
-144.837
-168.044
-189.918
-210.417
-229.534
-247.258
-263.579
-278.509
-292.065
-304.267
-315.147
-324.739
-333.084
-340.219
-346.187
-350.985
-354.66
-357.27
-358.834
-359.357
-358.86
-357.341
-354.795
-351.197
-346.506
-340.692
-333.706
-325.478
-315.957
-305.082
-292.786
-279.013
-263.679
-246.753
-228.199
-207.966
-186.059
-162.482
-137.249
-110.405
-82.0032
-52.1525
-20.9997
11.2583
44.4118
78.1784
112.203
146.15
179.623
212.204
243.477
273.001
300.38
325.257
347.271
366.122
381.57
393.413
401.515
405.768
406.139
402.553
395.082
383.72
368.589
349.942
328.111
303.477
276.441
247.244
216.296
184.072
150.77
116.225
80.6263
44.3798
7.87347
-28.4726
-64.2195
-98.8636
-132.05
-163.457
-192.824
-220.037
-245.043
-267.877
-288.647
-307.489
-324.562
-340.02
-353.988
-366.559
-377.778
-387.654
-396.166
-403.292
-409.002
-413.282
-416.131
-417.566
-417.614
-416.318
-413.723
-409.88
-404.84
-398.646
-391.336
-382.936
-373.479
-362.984
-351.461
-338.917
-325.349
-310.756
-295.128
-278.46
-260.748
-241.99
-222.19
-201.357
-179.505
-156.657
-132.844
-108.111
-82.52
-56.1617
-29.1624
-1.68197
26.087
53.9169
81.5616
108.754
135.204
160.62
184.7
207.133
227.612
245.834
261.501
274.338
284.09
290.529
293.463
292.745
288.276
280.019
268.048
252.442
233.362
211.045
185.784
157.923
127.847
95.9822
62.7857
28.7348
-5.68314
-39.9894
-73.7369
-106.53
-138.035
-167.987
-196.19
-222.504
-246.846
-269.186
-289.537
-307.954
-324.516
-339.322
-352.466
-364.041
-374.125
-382.784
-390.077
-396.061
-400.802
-404.379
-406.876
-408.388
-409.011
-408.842
-407.973
-406.486
-404.454