/*--------------------------------*- C++ -*----------------------------------*\
| =========                 |                                                 |
| \\      /  F ield         | OpenFOAM: The Open Source CFD Toolbox           |
|  \\    /   O peration     | Version:  3.0.1                                 |
|   \\  /    A nd           | Web:      www.OpenFOAM.org                      |
|    \\/     M anipulation  |                                                 |
\*---------------------------------------------------------------------------*/
FoamFile
{
    version     2.0;
    format      ascii;
    class       volScalarField;
    location    "23.6";
    object      p;
}
// * * * * * * * * * * * * * * * * * * * * * * * * * * * * * * * * * * * * * //

dimensions      [1 -1 -2 0 0 0 0];

internalField   nonuniform List<scalar> 
21420
(
3547.54
3551.93
3557.75
3565.03
3573.79
3584.11
3596.03
3609.63
3624.95
3642.04
3660.93
3681.64
3704.17
3728.5
3754.57
3782.29
3811.55
3842.21
3873.99
3906.54
3940.05
3974.03
4008.07
4041.84
4074.89
4106.82
4137.19
4165.58
4191.61
4214.91
4235.12
4251.95
4265.14
4274.49
4279.87
4281.09
4278.18
4271.18
4260.2
4245.44
4227.11
4205.49
4180.9
4153.68
4124.24
4092.99
4060.31
4026.68
3992.52
3958.22
3924.24
3891.27
3859.24
3827.96
3797.73
3768.85
3741.5
3715.8
3691.84
3669.67
3649.3
3630.73
3613.97
3598.99
3585.76
3574.27
3564.48
3556.37
3549.92
3545.1
3541.9
3540.32
3540.34
3541.91
3545.03
3549.72
3555.97
3563.75
3573.08
3583.94
3596.33
3610.26
3625.73
3642.71
3661.2
3681.19
3702.67
3725.63
3750.06
3775.89
3803.08
3831.54
3861.16
3891.8
3923.24
3955.24
3987.53
4019.81
4051.75
4082.98
4113.13
4141.83
4168.68
4193.31
4215.34
4234.44
4250.29
4262.62
4271.19
4275.83
4276.35
4272.77
4265.09
4253.31
4237.62
4218.2
4195.35
4169.39
4140.73
4109.78
4077.02
4042.91
4007.95
3972.6
3937.3
3902.46
3868.46
3835.6
3804.16
3774.36
3746.37
3720.31
3696.26
3674.25
3654.3
3636.38
3620.43
3606.38
3594.14
3583.62
3574.72
3567.34
3561.4
3556.81
3553.5
3551.41
3550.53
3550.86
3552.35
3555.03
3558.94
3564.12
3570.61
3578.48
3587.77
3598.54
3610.87
3624.8
3640.4
3657.7
3676.74
3697.54
3720.09
3744.36
3770.31
3797.84
3826.84
3857.14
3888.54
3920.81
3953.6
3986.61
4019.48
4051.83
4083.26
4113.35
4141.71
4167.93
4191.62
4212.44
4230.08
4244.28
4254.82
4261.56
4264.36
4263.21
4258.11
4249.19
4236.52
4220.3
4200.75
4178.15
4152.83
4125.12
4095.4
4064.07
4031.52
3998.16
3964.41
3930.64
3897.21
3864.47
3832.69
3802.11
3772.95
3745.36
3719.45
3695.3
3672.95
3652.42
3633.71
3616.79
3601.62
3588.18
3576.41
3566.27
3557.72
3550.71
3545.23
3541.21
3538.65
3537.54
3537.88
3539.62
3542.77
3547.34
3553.35
3560.8
3569.71
3580.1
3591.99
3605.42
3620.39
3636.92
3655.02
3674.7
3695.95
3718.75
3743.06
3768.81
3795.92
3824.26
3853.67
3884.07
3915.05
3946.41
3977.89
4009.16
4039.87
4069.66
4098.16
4124.97
4149.73
4172.07
4191.65
4208.14
4221.29
4230.85
4236.65
4238.54
4236.51
4230.54
4220.76
4207.24
4190.22
4169.94
4146.7
4120.84
4092.75
4062.8
4031.4
3998.96
3965.87
3932.52
3899.27
3866.44
3834.36
3803.26
3773.2
3744.37
3716.94
3691.01
3666.69
3644.03
3623.07
3603.84
3586.35
3570.63
3556.66
3544.44
3533.96
3525.21
3518.16
3512.79
3509.05
3506.93
3506.65
3507.92
3510.73
3515.08
3520.95
3528.3
3537.13
3547.4
3559.08
3572.18
3586.66
3602.51
3619.72
3638.27
3658.17
3679.38
3701.87
3725.61
3750.52
3776.41
3802.59
3830.24
3858.72
3887.83
3917.28
3946.81
3976.17
4005.02
4033.06
4059.93
4085.25
4108.72
4129.97
4148.69
4164.58
4177.38
4186.87
4192.86
4195.1
4192.97
4187.03
4177.44
4164.12
4147.29
4127.17
4104.06
4078.3
4050.29
4020.42
3989.14
3956.94
3924.26
3891.53
3859.22
3827.84
3798.09
3772.47
3746.53
3721.42
3697.82
3676.02
3449.39
3453.77
3459.6
3466.87
3475.63
3485.94
3497.86
3511.45
3526.77
3543.86
3562.75
3583.46
3605.99
3630.32
3656.39
3684.11
3713.37
3744.04
3775.83
3808.38
3841.91
3875.9
3909.96
3943.74
3976.81
4008.76
4039.15
4067.55
4093.6
4116.92
4137.14
4153.99
4167.19
4176.55
4181.93
4183.15
4180.23
4173.23
4162.25
4147.48
4129.13
4107.5
4082.89
4055.65
4026.19
3994.91
3962.23
3928.58
3894.39
3860.08
3826.09
3793.12
3761.08
3729.79
3699.56
3670.67
3643.31
3617.62
3593.66
3571.48
3551.12
3532.55
3515.79
3500.81
3487.59
3476.1
3466.31
3458.21
3451.75
3446.93
3443.73
3442.16
3442.18
3443.74
3446.87
3451.56
3457.8
3465.59
3474.92
3485.78
3498.17
3512.1
3527.56
3544.54
3563.03
3583.02
3604.5
3627.46
3651.89
3677.72
3704.91
3733.38
3763
3793.65
3825.09
3857.1
3889.41
3921.7
3953.65
3984.9
4015.07
4043.79
4070.65
4095.29
4117.35
4136.46
4152.33
4164.67
4173.25
4177.89
4178.41
4174.83
4167.14
4155.36
4139.65
4120.22
4097.36
4071.38
4042.69
4011.73
3978.94
3944.82
3909.84
3874.47
3839.15
3804.31
3770.29
3737.42
3705.97
3676.17
3648.18
3622.12
3598.06
3576.06
3556.12
3538.2
3522.25
3508.2
3495.97
3485.45
3476.56
3469.19
3463.25
3458.66
3455.35
3453.26
3452.38
3452.71
3454.2
3456.88
3460.79
3465.97
3472.46
3480.32
3489.6
3500.38
3512.7
3526.63
3542.23
3559.53
3578.57
3599.36
3621.91
3646.18
3672.13
3699.67
3728.67
3758.98
3790.39
3822.67
3855.47
3888.49
3921.37
3953.74
3985.19
4015.3
4043.68
4069.91
4093.62
4114.45
4132.11
4146.32
4156.87
4163.61
4166.42
4165.26
4160.16
4151.24
4138.55
4122.32
4102.76
4080.15
4054.8
4027.08
3997.34
3965.99
3933.42
3900.05
3866.28
3832.5
3799.06
3766.31
3734.52
3703.94
3674.77
3647.18
3621.27
3597.12
3574.77
3554.25
3535.53
3518.61
3503.45
3490.01
3478.24
3468.11
3459.56
3452.55
3447.07
3443.05
3440.49
3439.39
3439.73
3441.46
3444.61
3449.18
3455.19
3462.64
3471.54
3481.94
3493.83
3507.25
3522.22
3538.75
3556.85
3576.53
3597.78
3620.58
3644.89
3670.64
3697.75
3726.09
3755.52
3785.92
3816.91
3848.28
3879.78
3911.06
3941.78
3971.59
4000.1
4026.93
4051.71
4074.07
4093.66
4110.17
4123.33
4132.9
4138.7
4140.6
4138.56
4132.59
4122.8
4109.27
4092.24
4071.94
4048.69
4022.81
3994.7
3964.73
3933.32
3900.86
3867.76
3834.4
3801.13
3768.3
3736.2
3705.1
3675.03
3646.2
3618.76
3592.84
3568.51
3545.85
3524.89
3505.66
3488.18
3472.45
3458.48
3446.27
3435.79
3427.04
3419.99
3414.62
3410.89
3408.78
3408.49
3409.75
3412.57
3416.92
3422.79
3430.14
3438.97
3449.24
3460.93
3474.02
3488.5
3504.35
3521.56
3540.11
3560.01
3581.21
3603.71
3627.45
3652.36
3678.26
3704.43
3732.09
3760.58
3789.69
3819.16
3848.7
3878.06
3906.93
3934.99
3961.87
3987.21
4010.69
4031.96
4050.69
4066.6
4079.41
4088.9
4094.9
4097.16
4095.02
4089.08
4079.48
4066.16
4049.31
4029.17
4006.05
3980.27
3952.24
3922.35
3891.05
3858.84
3826.13
3793.39
3761.06
3729.66
3699.89
3674.32
3648.36
3623.24
3599.63
3577.83
3351.18
3355.56
3361.38
3368.65
3377.4
3387.71
3399.62
3413.21
3428.52
3445.6
3464.49
3485.2
3507.73
3532.05
3558.12
3585.85
3615.12
3645.8
3677.6
3710.17
3743.72
3777.74
3811.83
3845.64
3878.74
3910.73
3941.16
3969.6
3995.69
4019.04
4039.29
4056.16
4069.38
4078.76
4084.15
4085.39
4082.44
4075.44
4064.43
4049.64
4031.26
4009.6
3984.96
3957.68
3928.19
3896.87
3864.15
3830.47
3796.25
3761.9
3727.88
3694.92
3662.87
3631.55
3601.31
3572.41
3545.05
3519.35
3495.39
3473.22
3452.86
3434.3
3417.54
3402.57
3389.35
3377.86
3368.07
3359.97
3353.52
3348.7
3345.51
3343.94
3343.96
3345.52
3348.65
3353.34
3359.58
3367.36
3376.69
3387.55
3399.94
3413.87
3429.33
3446.31
3464.8
3484.79
3506.27
3529.23
3553.65
3579.49
3606.68
3635.15
3664.78
3695.44
3726.9
3758.93
3791.26
3823.58
3855.56
3886.84
3917.05
3945.79
3972.7
3997.37
4019.46
4038.6
4054.49
4066.86
4075.45
4080.12
4080.63
4077.05
4069.35
4057.56
4041.83
4022.37
3999.47
3973.46
3944.73
3913.72
3880.89
3846.73
3811.71
3776.31
3740.96
3706.09
3672.05
3639.16
3607.7
3577.89
3549.89
3523.83
3499.78
3477.78
3457.84
3439.93
3423.99
3409.95
3397.73
3387.22
3378.33
3370.97
3365.04
3360.45
3357.15
3355.07
3354.19
3354.51
3356
3358.68
3362.59
3367.76
3374.25
3382.1
3391.38
3402.15
3414.46
3428.39
3443.98
3461.28
3480.31
3501.1
3523.65
3547.92
3573.87
3601.42
3630.43
3660.75
3692.17
3724.47
3757.3
3790.35
3823.26
3855.66
3887.14
3917.29
3945.7
3971.97
3995.71
4016.58
4034.27
4048.5
4059.07
4065.81
4068.64
4067.46
4062.36
4053.42
4040.72
4024.46
4004.87
3982.23
3956.86
3929.1
3899.32
3867.94
3835.34
3801.93
3768.13
3734.32
3700.86
3668.09
3636.28
3605.69
3576.52
3548.92
3523.01
3498.86
3476.51
3455.99
3437.28
3420.36
3405.21
3391.77
3380.01
3369.88
3361.33
3354.33
3348.85
3344.83
3342.27
3341.18
3341.51
3343.25
3346.4
3350.97
3356.97
3364.42
3373.32
3383.71
3395.6
3409.02
3423.98
3440.51
3458.61
3478.29
3499.54
3522.34
3546.65
3572.4
3599.52
3627.87
3657.3
3687.73
3718.73
3750.13
3781.64
3812.95
3843.71
3873.55
3902.09
3928.96
3953.77
3976.16
3995.78
4012.32
4025.5
4035.09
4040.91
4042.82
4040.76
4034.79
4024.99
4011.44
3994.38
3974.05
3950.76
3924.86
3896.71
3866.7
3835.25
3802.76
3769.63
3736.24
3702.95
3670.1
3637.99
3606.88
3576.8
3547.96
3520.52
3494.59
3470.26
3447.6
3426.64
3407.41
3389.93
3374.21
3360.24
3348.02
3337.55
3328.8
3321.76
3316.39
3312.66
3310.56
3310.27
3311.53
3314.34
3318.7
3324.57
3331.93
3340.75
3351.02
3362.71
3375.8
3390.28
3406.13
3423.34
3441.89
3461.78
3482.99
3505.48
3529.23
3554.15
3580.06
3606.22
3633.9
3662.4
3691.53
3721.01
3750.57
3779.96
3808.86
3836.94
3863.86
3889.23
3912.73
3934.04
3952.79
3968.73
3981.56
3991.07
3997.08
3999.39
3997.21
3991.27
3981.66
3968.32
3951.45
3931.28
3908.13
3882.31
3854.24
3824.31
3792.98
3760.72
3727.99
3695.21
3662.85
3631.41
3601.6
3576.12
3550.12
3524.97
3501.36
3479.55
3252.91
3257.29
3263.11
3270.37
3279.11
3289.41
3301.31
3314.89
3330.19
3347.27
3366.14
3386.85
3409.38
3433.7
3459.77
3487.51
3516.79
3547.49
3579.32
3611.9
3645.49
3679.55
3713.68
3747.54
3780.7
3812.74
3843.23
3871.73
3897.87
3921.27
3941.57
3958.47
3971.73
3981.13
3986.52
3987.78
3984.81
3977.79
3966.76
3951.93
3933.51
3911.81
3887.11
3859.78
3830.23
3798.86
3766.08
3732.35
3698.07
3663.68
3629.61
3596.68
3564.59
3533.25
3502.98
3474.07
3446.7
3421
3397.05
3374.88
3354.52
3335.96
3319.21
3304.24
3291.03
3279.55
3269.77
3261.67
3255.23
3250.41
3247.22
3245.65
3245.67
3247.23
3250.36
3255.05
3261.29
3269.07
3278.4
3289.26
3301.65
3315.57
3331.03
3348.01
3366.5
3386.48
3407.96
3430.92
3455.34
3481.18
3508.38
3536.86
3566.51
3597.18
3628.67
3660.73
3693.09
3725.45
3757.47
3788.8
3819.06
3847.86
3874.81
3899.54
3921.67
3940.86
3956.79
3969.19
3977.81
3982.49
3983.03
3979.43
3971.72
3959.9
3944.14
3924.64
3901.69
3875.62
3846.83
3815.76
3782.87
3748.65
3713.58
3678.12
3642.73
3607.82
3573.74
3540.83
3509.35
3479.53
3451.52
3425.46
3401.41
3379.42
3359.48
3341.58
3325.66
3311.63
3299.42
3288.92
3280.05
3272.7
3266.78
3262.2
3258.9
3256.82
3255.96
3256.27
3257.76
3260.44
3264.34
3269.5
3275.98
3283.83
3293.1
3303.86
3316.16
3330.08
3345.66
3362.95
3381.98
3402.76
3425.31
3449.58
3475.54
3503.09
3532.12
3562.45
3593.9
3626.23
3659.09
3692.18
3725.14
3757.59
3789.13
3819.33
3847.8
3874.12
3897.91
3918.83
3936.55
3950.82
3961.41
3968.17
3971.01
3969.82
3964.71
3955.75
3943.02
3926.73
3907.1
3884.41
3858.99
3831.17
3801.35
3769.91
3737.25
3703.8
3669.96
3636.11
3602.61
3569.81
3537.97
3507.37
3478.18
3450.58
3424.66
3400.51
3378.17
3357.65
3338.95
3322.04
3306.89
3293.47
3281.71
3271.59
3263.05
3256.05
3250.57
3246.56
3244
3242.91
3243.24
3244.98
3248.13
3252.7
3258.7
3266.14
3275.04
3285.43
3297.31
3310.72
3325.68
3342.21
3360.3
3379.98
3401.22
3424.02
3448.33
3474.1
3501.22
3529.58
3559.04
3589.49
3620.51
3651.94
3683.49
3714.84
3745.64
3775.53
3804.13
3831.04
3855.9
3878.34
3898.01
3914.59
3927.81
3937.43
3943.26
3945.2
3943.12
3937.14
3927.31
3913.74
3896.64
3876.27
3852.93
3826.97
3798.76
3768.71
3737.21
3704.67
3671.49
3638.06
3604.73
3571.85
3539.73
3508.6
3478.5
3449.65
3422.2
3396.27
3371.94
3349.27
3328.32
3309.09
3291.61
3275.89
3261.92
3249.71
3239.24
3230.5
3223.46
3218.09
3214.37
3212.28
3211.98
3213.25
3216.06
3220.42
3226.29
3233.65
3242.48
3252.75
3264.43
3277.53
3292
3307.85
3325.06
3343.61
3363.5
3384.71
3407.2
3430.95
3455.88
3481.8
3507.96
3535.65
3564.17
3593.32
3622.83
3652.43
3681.86
3710.79
3738.92
3765.88
3791.3
3814.85
3836.2
3855
3870.97
3883.84
3893.38
3899.41
3901.76
3899.55
3893.62
3883.98
3870.61
3853.7
3833.49
3810.29
3784.42
3756.29
3726.31
3694.92
3662.61
3629.82
3597
3564.59
3533.08
3503.2
3477.89
3451.82
3426.63
3402.99
3381.18
3154.59
3158.97
3164.77
3172.03
3180.76
3191.04
3202.93
3216.5
3231.79
3248.85
3267.72
3288.42
3310.94
3335.27
3361.34
3389.09
3418.39
3449.1
3480.96
3513.58
3547.21
3581.32
3615.52
3649.45
3682.68
3714.79
3745.35
3773.93
3800.14
3823.6
3843.97
3860.92
3874.22
3883.65
3889.06
3890.33
3887.34
3880.3
3869.23
3854.36
3835.89
3814.12
3789.35
3761.95
3732.33
3700.88
3668.03
3634.22
3599.88
3565.41
3531.29
3498.38
3466.26
3434.87
3404.58
3375.65
3348.27
3322.57
3298.61
3276.45
3256.09
3237.55
3220.81
3205.85
3192.64
3181.17
3171.4
3163.31
3156.87
3152.05
3148.87
3147.31
3147.32
3148.88
3152.01
3156.7
3162.94
3170.72
3180.05
3190.91
3203.29
3217.21
3232.67
3249.64
3268.13
3288.11
3309.58
3332.54
3356.96
3382.81
3410.01
3438.5
3468.17
3498.87
3530.39
3562.49
3594.9
3627.31
3659.39
3690.78
3721.1
3749.97
3777
3801.79
3823.99
3843.24
3859.23
3871.67
3880.33
3885.02
3885.58
3881.97
3874.25
3862.4
3846.59
3827.03
3804.01
3777.87
3749
3717.85
3684.87
3650.57
3615.42
3579.9
3544.45
3509.48
3475.37
3442.42
3410.92
3381.08
3353.06
3326.99
3302.95
3280.96
3261.04
3243.15
3227.24
3213.23
3201.04
3190.56
3181.71
3174.37
3168.46
3163.9
3160.61
3158.54
3157.67
3157.99
3159.47
3162.14
3166.04
3171.19
3177.66
3185.5
3194.76
3205.5
3217.8
3231.7
3247.27
3264.55
3283.57
3304.35
3326.89
3351.16
3377.13
3404.69
3433.73
3464.09
3495.58
3527.94
3560.85
3594
3627.02
3659.53
3691.14
3721.42
3749.96
3776.35
3800.21
3821.18
3838.96
3853.27
3863.9
3870.68
3873.53
3872.34
3867.21
3858.23
3845.46
3829.12
3809.43
3786.68
3761.19
3733.31
3703.41
3671.9
3639.18
3605.66
3571.76
3537.85
3504.31
3471.46
3439.6
3408.97
3379.77
3352.15
3326.23
3302.08
3279.75
3259.23
3240.54
3223.64
3208.51
3195.09
3183.35
3173.23
3164.7
3157.71
3152.23
3148.23
3145.68
3144.59
3144.92
3146.65
3149.8
3154.37
3160.37
3167.8
3176.7
3187.08
3198.95
3212.36
3227.32
3243.83
3261.92
3281.59
3302.84
3325.64
3349.95
3375.72
3402.86
3431.24
3460.71
3491.19
3522.25
3553.72
3585.33
3616.73
3647.59
3677.54
3706.21
3733.19
3758.12
3780.63
3800.36
3816.99
3830.26
3839.91
3845.77
3847.71
3845.64
3839.64
3829.78
3816.17
3799.01
3778.59
3755.18
3729.15
3700.88
3670.75
3639.18
3606.57
3573.34
3539.85
3506.48
3473.55
3441.42
3410.25
3380.14
3351.27
3323.81
3297.87
3273.53
3250.87
3229.91
3210.69
3193.21
3177.49
3163.54
3151.33
3140.86
3132.13
3125.09
3119.73
3116.02
3113.94
3113.63
3114.91
3117.72
3122.08
3127.95
3135.31
3144.14
3154.41
3166.1
3179.19
3193.67
3209.51
3226.72
3245.27
3265.16
3286.37
3308.86
3332.61
3357.55
3383.49
3409.63
3437.35
3465.9
3495.09
3524.64
3554.27
3583.75
3612.74
3640.92
3667.95
3693.42
3717.04
3738.45
3757.31
3773.33
3786.25
3795.82
3801.87
3804.25
3802.06
3796.11
3786.44
3773.04
3756.08
3735.81
3712.55
3686.6
3658.39
3628.33
3596.86
3564.48
3531.63
3498.74
3466.27
3434.68
3404.68
3379.62
3353.44
3328.19
3304.54
3282.72
3056.22
3060.58
3066.38
3073.62
3082.34
3092.61
3104.49
3118.04
3133.31
3150.36
3169.22
3189.91
3212.43
3236.75
3262.83
3290.59
3319.9
3350.64
3382.55
3415.21
3448.89
3483.07
3517.34
3551.35
3584.67
3616.88
3647.53
3676.2
3702.5
3726.05
3746.49
3763.51
3776.86
3786.32
3791.75
3793.03
3790.04
3782.96
3771.85
3756.92
3738.38
3716.53
3691.68
3664.18
3634.47
3602.93
3569.99
3536.09
3501.66
3467.11
3432.91
3400.04
3367.86
3336.43
3306.1
3277.15
3249.76
3224.06
3200.1
3177.94
3157.59
3139.06
3122.33
3107.38
3094.19
3082.72
3072.96
3064.87
3058.44
3053.63
3050.45
3048.89
3048.9
3050.47
3053.6
3058.29
3064.53
3072.31
3081.63
3092.49
3104.87
3118.79
3134.24
3151.21
3169.69
3189.67
3211.14
3234.09
3258.51
3284.36
3311.58
3340.08
3369.78
3400.51
3432.06
3464.21
3496.68
3529.16
3561.32
3592.79
3623.19
3652.14
3679.25
3704.13
3726.42
3745.74
3761.8
3774.3
3783
3787.72
3788.3
3784.69
3776.93
3765.05
3749.18
3729.55
3706.44
3680.21
3651.24
3619.98
3586.9
3552.5
3517.26
3481.65
3446.12
3411.09
3376.92
3343.93
3312.4
3282.54
3254.51
3228.43
3204.39
3182.41
3162.51
3144.63
3128.74
3114.76
3102.58
3092.13
3083.3
3075.98
3070.09
3065.54
3062.26
3060.2
3059.34
3059.65
3061.13
3063.8
3067.69
3072.83
3079.29
3087.11
3096.36
3107.08
3119.36
3133.25
3148.81
3166.07
3185.08
3205.85
3228.39
3252.67
3278.64
3306.21
3335.28
3365.67
3397.19
3429.61
3462.58
3495.79
3528.89
3561.49
3593.18
3623.55
3652.18
3678.66
3702.6
3723.66
3741.5
3755.87
3766.54
3773.35
3776.2
3775.02
3769.87
3760.84
3748.03
3731.63
3711.88
3689.05
3663.47
3635.5
3605.52
3573.92
3541.11
3507.51
3473.53
3439.56
3405.95
3373.06
3341.16
3310.5
3281.27
3253.65
3227.72
3203.57
3181.24
3160.74
3142.06
3125.17
3110.05
3096.64
3084.91
3074.81
3066.29
3059.31
3053.84
3049.84
3047.3
3046.21
3046.53
3048.27
3051.42
3055.98
3061.98
3069.41
3078.3
3088.67
3100.54
3113.94
3128.88
3145.39
3163.47
3183.14
3204.38
3227.18
3251.5
3277.27
3304.43
3332.83
3362.32
3392.86
3423.95
3455.48
3487.14
3518.62
3549.55
3579.58
3608.33
3635.4
3660.42
3683
3702.81
3719.52
3732.84
3742.54
3748.43
3750.38
3748.31
3742.3
3732.39
3718.73
3701.51
3681.01
3657.52
3631.41
3603.04
3572.83
3541.17
3508.48
3475.17
3441.61
3408.18
3375.21
3343.04
3311.85
3281.71
3252.82
3225.34
3199.39
3175.06
3152.39
3131.44
3112.21
3094.74
3079.03
3065.08
3052.88
3042.42
3033.69
3026.66
3021.31
3017.61
3015.54
3015.23
3016.5
3019.32
3023.68
3029.56
3036.92
3045.75
3056.02
3067.71
3080.8
3095.27
3111.12
3128.32
3146.86
3166.75
3187.96
3210.46
3234.21
3259.17
3285.13
3311.26
3339
3367.59
3396.82
3426.41
3456.1
3485.64
3514.7
3542.95
3570.05
3595.61
3619.3
3640.79
3659.72
3675.81
3688.78
3698.4
3704.48
3706.88
3704.71
3698.75
3689.04
3675.6
3658.58
3638.24
3614.89
3588.85
3560.55
3530.39
3498.83
3466.36
3433.42
3400.45
3367.89
3336.2
3306.05
3281.32
3254.99
3229.68
3206
3184.16
2957.79
2962.15
2967.93
2975.16
2983.86
2994.12
3005.97
3019.5
3034.76
3051.79
3070.63
3091.31
3113.83
3138.15
3164.24
3192.01
3221.35
3252.12
3284.07
3316.77
3350.53
3384.79
3419.15
3453.26
3486.68
3519
3549.77
3578.54
3604.95
3628.61
3649.14
3666.24
3679.65
3689.16
3694.61
3695.9
3692.89
3685.77
3674.61
3659.61
3640.99
3619.04
3594.09
3566.48
3536.66
3505.01
3471.95
3437.95
3403.42
3368.76
3334.47
3301.66
3269.41
3237.92
3207.55
3178.57
3151.17
3125.46
3101.5
3079.35
3059.01
3040.49
3023.77
3008.84
2995.66
2984.21
2974.45
2966.38
2959.95
2955.15
2951.98
2950.42
2950.43
2952
2955.13
2959.82
2966.06
2973.83
2983.15
2994.01
3006.39
3020.3
3035.75
3052.71
3071.18
3091.16
3112.63
3135.58
3160
3185.85
3213.08
3241.6
3271.32
3302.09
3333.7
3365.9
3398.44
3431
3463.24
3494.81
3525.31
3554.37
3581.58
3606.57
3628.95
3648.37
3664.5
3677.07
3685.82
3690.58
3691.17
3687.56
3679.78
3667.84
3651.91
3632.19
3608.98
3582.63
3553.54
3522.16
3488.96
3454.44
3419.08
3383.37
3347.75
3312.64
3278.41
3245.37
3213.8
3183.91
3155.86
3129.78
3105.75
3083.78
3063.89
3046.04
3030.17
3016.21
3004.06
2993.64
2984.83
2977.54
2971.67
2967.14
2963.87
2961.82
2960.96
2961.27
2962.75
2965.41
2969.29
2974.42
2980.86
2988.67
2997.89
3008.6
3020.86
3034.73
3050.27
3067.52
3086.52
3107.28
3129.81
3154.09
3180.07
3207.66
3236.75
3267.18
3298.75
3331.23
3364.27
3397.57
3430.75
3463.45
3495.25
3525.72
3554.46
3581.05
3605.1
3626.25
3644.17
3658.61
3669.33
3676.17
3679.03
3677.85
3672.68
3663.61
3650.74
3634.27
3614.43
3591.51
3565.83
3537.76
3507.66
3475.96
3443.05
3409.35
3375.28
3341.22
3307.55
3274.59
3242.64
3211.95
3182.7
3155.06
3129.13
3104.98
3082.66
3062.17
3043.5
3026.63
3011.52
2998.13
2986.41
2976.32
2967.81
2960.85
2955.39
2951.39
2948.86
2947.77
2948.1
2949.84
2952.98
2957.54
2963.53
2970.95
2979.83
2990.2
3002.06
3015.44
3030.38
3046.88
3064.95
3084.61
3105.85
3128.65
3152.97
3178.76
3205.93
3234.36
3263.88
3294.47
3325.62
3357.21
3388.94
3420.5
3451.52
3481.65
3510.5
3537.68
3562.79
3585.48
3605.38
3622.17
3635.56
3645.31
3651.24
3653.21
3651.14
3645.1
3635.15
3621.43
3604.13
3583.54
3559.95
3533.73
3505.26
3474.94
3443.18
3410.39
3376.99
3343.35
3309.84
3276.81
3244.62
3213.38
3183.21
3154.29
3126.8
3100.85
3076.5
3053.84
3032.88
3013.66
2996.2
2980.49
2966.54
2954.35
2943.9
2935.18
2928.16
2922.82
2919.13
2917.07
2916.75
2918.03
2920.86
2925.22
2931.1
2938.46
2947.3
2957.57
2969.25
2982.35
2996.82
3012.66
3029.86
3048.4
3068.29
3089.49
3111.99
3135.76
3160.73
3186.72
3212.82
3240.6
3269.24
3298.51
3328.16
3357.92
3387.53
3416.66
3445.01
3472.2
3497.85
3521.64
3543.22
3562.23
3578.4
3591.44
3601.11
3607.23
3609.65
3607.5
3601.53
3591.79
3578.29
3561.2
3540.77
3517.32
3491.17
3462.75
3432.47
3400.8
3368.22
3335.18
3302.12
3269.46
3237.65
3207.32
3182.97
3156.46
3131.07
3107.36
3085.52
2859.31
2863.65
2869.42
2876.64
2885.32
2895.55
2907.38
2920.89
2936.13
2953.14
2971.97
2992.64
3015.14
3039.46
3065.56
3093.34
3122.71
3153.52
3185.52
3218.28
3252.12
3286.47
3320.93
3355.16
3388.71
3421.16
3452.06
3480.97
3507.5
3531.27
3551.91
3569.11
3582.59
3592.15
3597.63
3598.92
3595.9
3588.74
3577.52
3562.43
3543.71
3521.66
3496.58
3468.85
3438.89
3407.11
3373.93
3339.8
3305.15
3270.38
3235.98
3203.22
3170.89
3139.33
3108.92
3079.91
3052.49
3026.77
3002.82
2980.67
2960.35
2941.84
2925.14
2910.22
2897.05
2885.62
2875.88
2867.81
2861.39
2856.6
2853.44
2851.88
2851.89
2853.47
2856.6
2861.29
2867.52
2875.3
2884.61
2895.46
2907.84
2921.75
2937.19
2954.15
2972.61
2992.58
3014.04
3036.99
3061.41
3087.27
3114.51
3143.05
3172.8
3203.61
3235.28
3267.56
3300.17
3332.83
3365.17
3396.85
3427.47
3456.65
3483.98
3509.09
3531.58
3551.11
3567.34
3579.99
3588.8
3593.6
3594.22
3590.6
3582.78
3570.79
3554.78
3534.96
3511.63
3485.15
3455.91
3424.38
3391.04
3356.37
3320.89
3285.05
3249.32
3214.13
3179.82
3146.72
3115.11
3085.19
3057.13
3031.04
3007.01
2985.05
2965.18
2947.35
2931.52
2917.59
2905.47
2895.08
2886.3
2879.04
2873.2
2868.68
2865.43
2863.39
2862.54
2862.85
2864.32
2866.97
2870.84
2875.95
2882.38
2890.16
2899.37
2910.06
2922.3
2936.15
2951.66
2968.89
2987.87
3008.62
3031.15
3055.43
3081.42
3109.03
3138.15
3168.62
3200.25
3232.8
3265.92
3299.31
3332.61
3365.42
3397.34
3427.95
3456.82
3483.53
3507.69
3528.95
3546.97
3561.48
3572.26
3579.14
3582.02
3580.84
3575.64
3566.52
3553.58
3537.03
3517.09
3494.06
3468.27
3440.07
3409.85
3378.02
3344.99
3311.18
3277
3242.84
3209.09
3176.07
3144.06
3113.32
3084.05
3056.39
3030.45
3006.31
2983.99
2963.51
2944.86
2928.01
2912.92
2899.55
2887.85
2877.78
2869.28
2862.32
2856.87
2852.89
2850.37
2849.28
2849.61
2851.35
2854.49
2859.04
2865.03
2872.44
2881.31
2891.66
2903.51
2916.89
2931.81
2948.3
2966.36
2986.01
3007.25
3030.05
3054.38
3080.18
3107.37
3135.82
3165.38
3196.04
3227.24
3258.9
3290.72
3322.38
3353.51
3383.75
3412.71
3440.01
3465.25
3488.05
3508.06
3524.95
3538.42
3548.24
3554.21
3556.19
3554.13
3548.06
3538.06
3524.26
3506.87
3486.17
3462.47
3436.13
3407.53
3377.08
3345.2
3312.3
3278.79
3245.06
3211.46
3178.35
3146.14
3114.86
3084.65
3055.7
3028.19
3002.22
2977.87
2955.21
2934.25
2915.04
2897.58
2881.88
2867.94
2855.76
2845.31
2836.6
2829.59
2824.26
2820.59
2818.54
2818.22
2819.51
2822.33
2826.7
2832.58
2839.95
2848.79
2859.06
2870.74
2883.84
2898.31
2914.14
2931.34
2949.88
2969.76
2990.96
3013.46
3037.24
3062.23
3088.26
3114.32
3142.15
3170.84
3200.17
3229.89
3259.71
3289.41
3318.64
3347.09
3374.39
3400.15
3424.05
3445.73
3464.85
3481.11
3494.23
3503.96
3510.12
3512.57
3510.44
3504.46
3494.67
3481.11
3463.94
3443.4
3419.83
3393.56
3365
3334.59
3302.78
3270.08
3236.92
3203.75
3170.98
3139.04
3108.48
3084.58
3057.85
3032.38
3008.64
2986.79
2760.77
2765.1
2770.86
2778.05
2786.72
2796.92
2808.73
2822.21
2837.42
2854.41
2873.22
2893.88
2916.37
2940.69
2966.8
2994.6
3023.99
3054.84
3086.9
3119.74
3153.66
3188.12
3222.7
3257.07
3290.76
3323.35
3354.4
3383.46
3410.14
3434.05
3454.81
3472.11
3485.68
3495.3
3500.81
3502.11
3499.08
3491.86
3480.57
3465.39
3446.56
3424.38
3399.16
3371.29
3341.18
3309.25
3275.92
3241.65
3206.86
3171.95
3137.42
3104.73
3072.32
3040.67
3010.21
2981.17
2953.73
2928
2904.06
2881.92
2861.61
2843.12
2826.43
2811.53
2798.38
2786.96
2777.23
2769.18
2762.77
2757.99
2754.83
2753.28
2753.3
2754.88
2758.01
2762.69
2768.92
2776.7
2786.01
2796.85
2809.23
2823.13
2838.56
2855.51
2873.97
2893.94
2915.39
2938.34
2962.75
2988.62
3015.87
3044.44
3074.23
3105.09
3136.82
3169.18
3201.88
3234.64
3267.11
3298.91
3329.66
3358.98
3386.46
3411.7
3434.32
3453.97
3470.31
3483.05
3491.94
3496.78
3497.42
3493.81
3485.94
3473.89
3457.78
3437.85
3414.39
3387.75
3358.35
3326.65
3293.14
3258.32
3222.68
3186.7
3150.86
3115.56
3081.17
3048
3016.33
2986.38
2958.3
2932.21
2908.18
2886.24
2866.38
2848.59
2832.78
2818.89
2806.81
2796.46
2787.71
2780.48
2774.67
2770.18
2766.95
2764.92
2764.07
2764.38
2765.84
2768.48
2772.34
2777.44
2783.84
2791.6
2800.79
2811.45
2823.66
2837.49
2852.98
2870.19
2889.15
2909.89
2932.41
2956.69
2982.69
3010.32
3039.48
3070
3101.69
3134.32
3167.54
3201.04
3234.46
3267.4
3299.46
3330.21
3359.23
3386.09
3410.39
3431.77
3449.9
3464.5
3475.35
3482.27
3485.17
3483.98
3478.76
3469.58
3456.56
3439.91
3419.86
3396.71
3370.78
3342.44
3312.08
3280.1
3246.94
3212.99
3178.69
3144.43
3110.58
3077.47
3045.41
3014.62
2985.32
2957.64
2931.7
2907.55
2885.24
2864.78
2846.15
2829.31
2814.24
2800.89
2789.22
2779.16
2770.68
2763.74
2758.3
2754.33
2751.81
2750.73
2751.06
2752.8
2755.94
2760.49
2766.46
2773.87
2782.73
2793.07
2804.9
2818.27
2833.18
2849.65
2867.7
2887.34
2908.57
2931.37
2955.71
2981.52
3008.74
3037.22
3066.82
3097.55
3128.82
3160.57
3192.49
3224.25
3255.5
3285.87
3314.97
3342.41
3367.78
3390.72
3410.85
3427.85
3441.42
3451.31
3457.33
3459.34
3457.27
3451.17
3441.1
3427.22
3409.73
3388.91
3365.08
3338.6
3309.85
3279.26
3247.24
3214.21
3180.58
3146.73
3113.04
3079.85
3047.62
3016.27
2986.02
2957.04
2929.5
2903.52
2879.17
2856.5
2835.55
2816.34
2798.89
2783.19
2769.26
2757.09
2746.66
2737.96
2730.96
2725.64
2721.98
2719.95
2719.63
2720.92
2723.75
2728.12
2734
2741.38
2750.22
2760.49
2772.18
2785.27
2799.73
2815.57
2832.76
2851.29
2871.17
2892.37
2914.88
2938.66
2963.67
2989.74
3015.77
3043.65
3072.4
3101.79
3131.59
3161.5
3191.29
3220.63
3249.19
3276.62
3302.5
3326.53
3348.34
3367.57
3383.94
3397.15
3406.95
3413.16
3415.63
3413.53
3407.54
3397.7
3384.07
3366.8
3346.15
3322.44
3296.02
3267.31
3236.74
3204.78
3171.93
3138.64
3105.34
3072.45
3040.36
3009.56
2986.13
2959.16
2933.59
2909.82
2887.96
2662.17
2666.5
2672.24
2679.41
2688.05
2698.23
2710
2723.46
2738.64
2755.6
2774.39
2795.03
2817.52
2841.84
2867.95
2895.77
2925.2
2956.1
2988.22
3021.13
3055.16
3089.73
3124.46
3158.97
3192.82
3225.58
3256.8
3286.03
3312.87
3336.94
3357.84
3375.26
3388.92
3398.61
3404.15
3405.46
3402.41
3395.14
3383.77
3368.48
3349.53
3327.2
3301.83
3273.79
3243.51
3211.41
3177.92
3143.49
3108.54
3073.47
3038.81
3006.2
2973.68
2941.95
2911.42
2882.34
2854.88
2829.15
2805.21
2783.08
2762.78
2744.31
2727.65
2712.76
2699.63
2688.23
2678.52
2670.48
2664.09
2659.31
2656.16
2654.61
2654.64
2656.22
2659.35
2664.03
2670.26
2678.03
2687.34
2698.18
2710.55
2724.45
2739.87
2756.81
2775.27
2795.22
2816.67
2839.61
2864.03
2889.89
2917.16
2945.76
2975.59
3006.5
3038.31
3070.76
3103.57
3136.45
3169.04
3200.99
3231.89
3261.37
3289
3314.39
3337.17
3356.96
3373.42
3386.27
3395.24
3400.13
3400.79
3397.17
3389.27
3377.14
3360.93
3340.87
3317.25
3290.44
3260.86
3228.97
3195.27
3160.26
3124.45
3088.32
3052.34
3016.93
2982.44
2949.19
2917.47
2887.48
2859.38
2833.28
2809.25
2787.33
2767.5
2749.74
2733.97
2720.12
2708.08
2697.77
2689.06
2681.87
2676.09
2671.62
2668.41
2666.4
2665.55
2665.86
2667.32
2669.95
2673.79
2678.87
2685.25
2692.99
2702.14
2712.78
2724.96
2738.76
2754.22
2771.41
2790.35
2811.08
2833.59
2857.87
2883.88
2911.54
2940.73
2971.31
3003.07
3035.8
3069.12
3102.74
3136.3
3169.39
3201.61
3232.53
3261.71
3288.73
3313.19
3334.71
3352.96
3367.67
3378.59
3385.56
3388.48
3387.29
3382.02
3372.78
3359.68
3342.92
3322.75
3299.45
3273.37
3244.87
3214.35
3182.21
3148.89
3114.8
3080.36
3045.97
3012.01
2978.82
2946.68
2915.85
2886.5
2858.81
2832.85
2808.71
2786.42
2765.97
2747.35
2730.54
2715.5
2702.17
2690.52
2680.49
2672.03
2665.1
2659.67
2655.71
2653.2
2652.13
2652.46
2654.2
2657.33
2661.88
2667.84
2675.24
2684.09
2694.41
2706.23
2719.58
2734.47
2750.93
2768.98
2788.6
2809.83
2832.63
2856.97
2882.8
2910.04
2938.57
2968.22
2999
3030.35
3062.2
3094.23
3126.12
3157.5
3188.02
3217.27
3244.86
3270.39
3293.48
3313.76
3330.88
3344.56
3354.53
3360.6
3362.64
3360.57
3354.43
3344.3
3330.32
3312.72
3291.76
3267.78
3241.14
3212.23
3181.48
3149.3
3116.12
3082.35
3048.38
3014.57
2981.28
2949.04
2917.62
2887.31
2858.3
2830.74
2804.75
2780.39
2757.72
2736.77
2717.56
2700.12
2684.43
2670.51
2658.35
2647.93
2639.25
2632.26
2626.96
2623.31
2621.29
2620.98
2622.27
2625.11
2629.48
2635.37
2642.74
2651.59
2661.86
2673.55
2686.64
2701.1
2716.93
2734.12
2752.65
2772.52
2793.72
2816.23
2840.02
2865.05
2891.18
2917.15
2945.1
2973.91
3003.38
3033.26
3063.27
3093.17
3122.63
3151.32
3178.88
3204.91
3229.08
3251.03
3270.39
3286.88
3300.19
3310.08
3316.34
3318.85
3316.77
3310.76
3300.87
3287.16
3269.78
3248.99
3225.14
3198.55
3169.66
3138.91
3106.78
3073.77
3040.33
3006.89
2973.87
2941.62
2910.56
2887.6
2860.37
2834.71
2810.91
2789.04
2563.53
2567.83
2573.56
2580.71
2589.32
2599.47
2611.21
2624.63
2639.78
2656.71
2675.48
2696.1
2718.58
2742.9
2769.02
2796.86
2826.33
2857.28
2889.48
2922.46
2956.6
2991.31
3026.19
3060.87
3094.9
3127.85
3159.26
3188.67
3215.7
3239.94
3260.99
3278.54
3292.31
3302.07
3307.66
3308.98
3305.9
3298.58
3287.11
3271.71
3252.61
3230.13
3204.58
3176.35
3145.89
3113.6
3079.93
3045.32
3010.19
2974.96
2940.13
2907.62
2874.97
2843.14
2812.55
2783.43
2755.95
2730.21
2706.27
2684.16
2663.88
2645.43
2628.79
2613.93
2600.82
2589.43
2579.74
2571.72
2565.33
2560.57
2557.43
2555.89
2555.92
2557.5
2560.63
2565.31
2571.54
2579.31
2588.61
2599.44
2611.81
2625.7
2641.12
2658.05
2676.49
2696.44
2717.88
2740.82
2765.23
2791.1
2818.39
2847.01
2876.89
2907.86
2939.75
2972.3
3005.23
3038.24
3070.98
3103.09
3134.16
3163.81
3191.62
3217.18
3240.13
3260.07
3276.67
3289.63
3298.69
3303.64
3304.33
3300.7
3292.76
3280.54
3264.22
3244.01
3220.22
3193.22
3163.43
3131.33
3097.42
3062.21
3026.21