/*--------------------------------*- C++ -*----------------------------------*\
| =========                 |                                                 |
| \\      /  F ield         | OpenFOAM: The Open Source CFD Toolbox           |
|  \\    /   O peration     | Version:  3.0.1                                 |
|   \\  /    A nd           | Web:      www.OpenFOAM.org                      |
|    \\/     M anipulation  |                                                 |
\*---------------------------------------------------------------------------*/
FoamFile
{
    version     2.0;
    format      ascii;
    class       surfaceScalarField;
    location    "17";
    object      phi;
}
// * * * * * * * * * * * * * * * * * * * * * * * * * * * * * * * * * * * * * //

dimensions      [0 3 -1 0 0 0 0];

internalField   nonuniform List<scalar> 
42423
(
8.33376e-05
-1.83439e-05
0.000101684
-1.83464e-05
0.000119606
-1.79223e-05
0.000136776
-1.71702e-05
0.000153169
-1.63925e-05
0.000168401
-1.52324e-05
0.000182307
-1.3906e-05
0.000194603
-1.22961e-05
0.000205038
-1.04351e-05
0.000213402
-8.36459e-06
0.000219505
-6.10318e-06
0.000223237
-3.73208e-06
0.000224533
-1.29628e-06
0.000223317
1.2167e-06
0.000219577
3.73921e-06
0.000213328
6.2488e-06
0.000204646
8.68263e-06
0.000193941
1.07047e-05
0.000181285
1.26564e-05
0.000166818
1.44669e-05
0.000150988
1.58291e-05
0.000133943
1.7045e-05
0.000115914
1.80298e-05
9.72436e-05
1.867e-05
7.81552e-05
1.90884e-05
5.89897e-05
1.91654e-05
3.98868e-05
1.91029e-05
2.11021e-05
1.87847e-05
2.84848e-06
1.82536e-05
-1.4925e-05
1.77734e-05
-3.19588e-05
1.70338e-05
-4.81527e-05
1.61938e-05
-6.34468e-05
1.52941e-05
-7.77688e-05
1.4322e-05
-9.11188e-05
1.335e-05
-0.00010346
1.23412e-05
-0.00011479
1.133e-05
-0.000125139
1.03492e-05
-0.000134502
9.36276e-06
-0.00014292
8.41813e-06
-0.000150445
7.52526e-06
-0.000157095
6.65001e-06
-0.000162922
5.82629e-06
-0.000167943
5.02133e-06
-0.000172194
4.25142e-06
-0.000175701
3.50696e-06
-0.000178447
2.74613e-06
-0.000180476
2.02842e-06
-0.000181793
1.31757e-06
-0.000182421
6.27857e-07
-0.000182304
-1.17162e-07
-0.000181486
-8.18134e-07
-0.000179887
-1.59863e-06
-0.000177635
-2.25228e-06
-0.000174667
-2.96827e-06
-0.000170834
-3.83292e-06
-0.000166279
-4.55501e-06
-0.000160991
-5.28798e-06
-0.000154739
-6.25193e-06
-0.000147747
-6.9919e-06
-0.000139631
-8.1167e-06
-0.0001306
-9.03088e-06
-0.000120692
-9.9074e-06
-0.000109718
-1.09742e-05
-9.77284e-05
-1.19899e-05
-8.49001e-05
-1.28284e-05
-7.10022e-05
-1.38979e-05
-5.61665e-05
-1.48358e-05
-4.0428e-05
-1.57386e-05
-2.3974e-05
-1.6454e-05
-6.92155e-06
-1.70526e-05
1.06148e-05
-1.75365e-05
2.85722e-05
-1.79575e-05
4.66788e-05
-1.81066e-05
6.49029e-05
-1.82242e-05
8.28436e-05
-1.79407e-05
0.000100576
-1.77325e-05
0.000117737
-1.71615e-05
0.00013414
-1.64025e-05
0.0001496
-1.54607e-05
0.000163848
-1.42472e-05
0.000176645
-1.27976e-05
0.000187823
-1.11777e-05
0.000197149
-9.32647e-06
0.00020455
-7.40047e-06
0.000209778
-5.22819e-06
0.0002127
-2.92281e-06
0.00021327
-5.69313e-07
0.00021158
1.68944e-06
0.000207551
4.02911e-06
0.000201263
6.28837e-06
0.000192709
8.55319e-06
0.000182164
1.0545e-05
0.000169862
1.23018e-05
0.000155901
1.39619e-05
0.000140633
1.5268e-05
0.000124087
1.65459e-05
0.000106747
1.73401e-05
8.88235e-05
1.7923e-05
7.03002e-05
1.85232e-05
5.1669e-05
1.86312e-05
3.32686e-05
1.84004e-05
1.48995e-05
1.83692e-05
-2.9259e-06
1.78253e-05
-2.0184e-05
1.72581e-05
-3.69189e-05
1.67349e-05
-5.2849e-05
1.59301e-05
-6.79782e-05
1.51292e-05
-8.22254e-05
1.42472e-05
-9.54555e-05
1.32301e-05
-0.000107712
1.2257e-05
-0.000118892
1.11796e-05
-0.000129044
1.01518e-05
-0.000138156
9.11239e-06
-0.000146208
8.05138e-06
-0.000153278
7.07008e-06
-0.000159447
6.16898e-06
-0.000164626
5.17904e-06
-0.000169013
4.38766e-06
-0.000172563
3.54996e-06
-0.000175325
2.76218e-06
-0.000177318
1.99206e-06
-0.000178563
1.24547e-06
-0.00017915
5.87289e-07
-0.000179042
-1.08761e-07
-0.000178272
-7.69227e-07
-0.00017677
-1.50189e-06
-0.000174586
-2.18471e-06
-0.000171653
-2.9324e-06
-0.000167976
-3.67758e-06
-0.000163552
-4.42389e-06
-0.000158422
-5.13037e-06
-0.000152335
-6.08628e-06
-0.000145385
-6.95028e-06
-0.000137629
-7.75644e-06
-0.000128908
-8.72052e-06
-0.000119188
-9.72013e-06
-0.000108497
-1.06907e-05
-9.67964e-05
-1.1701e-05
-8.42065e-05
-1.259e-05
-7.0657e-05
-1.35496e-05
-5.6173e-05
-1.4484e-05
-4.08979e-05
-1.52751e-05
-2.48045e-05
-1.60936e-05
-8.0813e-06
-1.67232e-05
9.16405e-06
-1.72454e-05
2.68199e-05
-1.76559e-05
4.47503e-05
-1.79305e-05
6.27071e-05
-1.7957e-05
8.06056e-05
-1.78986e-05
9.80401e-05
-1.74345e-05
0.000114884
-1.68438e-05
0.000131017
-1.61329e-05
0.000146068
-1.50517e-05
0.000159894
-1.38261e-05
0.000172387
-1.24927e-05
0.000183253
-1.08661e-05
0.000192483
-9.23041e-06
0.000199812
-7.32836e-06
0.000205067
-5.25498e-06
0.000208322
-3.25506e-06
0.000209354
-1.03197e-06
0.000208281
1.07203e-06
0.000205007
3.27444e-06
0.000199596
5.41108e-06
0.000192086
7.50964e-06
0.000182549
9.53667e-06
0.000171135
1.14142e-05
0.000158028
1.31074e-05
0.000143266
1.47616e-05
0.000127146
1.612e-05
0.000110065
1.70815e-05
9.18663e-05
1.81983e-05
7.29321e-05
1.89342e-05
5.37801e-05
1.9152e-05
3.44862e-05
1.92939e-05
1.55123e-05
1.89739e-05
-3.3568e-06
1.88691e-05
-2.16403e-05
1.82835e-05
-3.90249e-05
1.73846e-05
-5.55609e-05
1.6536e-05
-7.10762e-05
1.55153e-05
-8.54039e-05
1.43277e-05
-9.85808e-05
1.31769e-05
-0.000110493
1.19126e-05
-0.00012117
1.06766e-05
-0.000130653
9.48353e-06
-0.000138907
8.25388e-06
-0.000146049
7.14164e-06
-0.000152118
6.06871e-06
-0.000157187
5.06915e-06
-0.000161333
4.14597e-06
-0.00016474
3.4073e-06
-0.000167323
2.58265e-06
-0.000169268
1.94546e-06
-0.000170614
1.34552e-06
-0.000171435
8.2075e-07
-0.000171722
2.87079e-07
-0.00017156
-1.61946e-07
-0.00017088
-6.79531e-07
-0.000169748
-1.13238e-06
-0.000168152
-1.59534e-06
-0.000166083
-2.06923e-06
-0.000163523
-2.56001e-06
-0.00016027
-3.2536e-06
-0.000156539
-3.73037e-06
-0.000152146
-4.39314e-06
-0.000146978
-5.16864e-06
-0.00014105
-5.92727e-06
-0.000134259
-6.7909e-06
-0.000126539
-7.71999e-06
-0.000117818
-8.7217e-06
-0.000108054
-9.76407e-06
-9.72667e-05
-1.07871e-05
-8.52973e-05
-1.19695e-05
-7.2291e-05
-1.30063e-05
-5.8152e-05
-1.41391e-05
-4.28595e-05
-1.52926e-05
-2.66199e-05
-1.62396e-05
-9.4516e-06
-1.71684e-05
8.4314e-06
-1.78831e-05
2.69401e-05
-1.85088e-05
4.59194e-05
-1.89794e-05
6.49707e-05
-1.90514e-05
8.38141e-05
-1.88434e-05
0.000102556
-1.87418e-05
0.0001206
-1.80446e-05
0.000137919
-1.73186e-05
0.000153942
-1.60236e-05
0.00016847
-1.45274e-05
0.000181421
-1.29515e-05
0.000192386
-1.0965e-05
0.000201242
-8.85629e-06
0.000207903
-6.66067e-06
0.000212173
-4.26966e-06
0.000214003
-1.83069e-06
0.000213379
6.2416e-07
0.000210357
3.02175e-06
0.000204951
5.40655e-06
0.000197254
7.69653e-06
0.000187455
9.7986e-06
0.000175784
1.16711e-05
0.000162343
1.34408e-05
0.000147424
1.49191e-05
0.00013139
1.60343e-05
0.000114338
1.70512e-05
9.68562e-05
1.74822e-05
7.8715e-05
1.81412e-05
6.0275e-05
1.844e-05
4.2046e-05
1.8229e-05
2.3822e-05
1.8224e-05
5.87411e-06
1.79479e-05
-1.15538e-05
1.74279e-05
-2.82364e-05
1.66826e-05
-4.4294e-05
1.60576e-05
-5.97114e-05
1.54174e-05
-7.42782e-05
1.45668e-05
-8.79862e-05
1.3708e-05
-0.000100838
1.28519e-05
-0.000112789
1.19507e-05
-0.000123752
1.09632e-05
-0.000133832
1.008e-05
-0.000142916
9.08369e-06
-0.000151069
8.15288e-06
-0.000158294
7.22549e-06
-0.0001646
6.30617e-06
-0.00017005
5.44974e-06
-0.000174524
4.47415e-06
-0.00017819
3.66576e-06
-0.000181045
2.85539e-06
-0.00018302
1.97457e-06
-0.000184173
1.15332e-06
-0.000184492
3.19155e-07
-0.00018397
-5.22037e-07
-0.000182648
-1.32196e-06
-0.000180539
-2.10938e-06
-0.000177615
-2.92423e-06
-0.000173913
-3.70188e-06
-0.000169404
-4.50935e-06
-0.000164098
-5.30569e-06
-0.000157986
-6.11188e-06
-0.000150999
-6.98717e-06
-0.000143206
-7.79285e-06
-0.000134646
-8.56045e-06
-0.000125217
-9.4285e-06
-0.00011492
-1.0297e-05
-0.000103837
-1.10834e-05
-9.18344e-05
-1.20024e-05
-7.90462e-05
-1.27883e-05
-6.53757e-05
-1.36704e-05
-5.0883e-05
-1.44928e-05
-3.57307e-05
-1.51523e-05
-1.98442e-05
-1.58865e-05
-3.29652e-06
-1.65478e-05
1.35513e-05
-1.68478e-05
3.08303e-05
-1.72791e-05
4.83619e-05
-1.75316e-05
6.58918e-05
-1.75299e-05
8.33659e-05
-1.74742e-05
0.000100478
-1.7112e-05
0.000117131
-1.66528e-05
0.000133113
-1.59828e-05
0.000148099
-1.49857e-05
0.000161982
-1.38829e-05
0.000174545
-1.25631e-05
0.00018549
-1.09452e-05
0.000194794
-9.30424e-06
0.000202217
-7.42232e-06
0.0002077
-5.48312e-06
0.000211135
-3.43573e-06
0.000212333
-1.19744e-06
0.000211438
8.94635e-07
0.000208447
2.99106e-06
0.000203296
5.15053e-06
0.000196219
7.07714e-06
0.000187262
8.95703e-06
0.000176627
1.0635e-05
0.000164505
1.21225e-05
0.000150956
1.35488e-05
0.000136336
1.46197e-05
0.000120878
1.54585e-05
0.000104727
1.61504e-05
8.8168e-05
1.65593e-05
7.13969e-05
1.67711e-05
5.46249e-05
1.6772e-05
3.79248e-05
1.67001e-05
2.15485e-05
1.63763e-05
5.62873e-06
1.59198e-05
-9.75698e-06
1.53857e-05
-2.4473e-05
1.4716e-05
-3.84138e-05
1.39408e-05
-5.15384e-05
1.31246e-05
-6.37915e-05
1.22531e-05
-7.51356e-05
1.13441e-05
-8.55768e-05
1.04411e-05
-9.51012e-05
9.52447e-06
-0.000103734
8.63244e-06
-0.000111477
7.74359e-06
-0.000118352
6.87489e-06
-0.000124391
6.03934e-06
-0.000129613
5.22101e-06
-0.000134037
4.42497e-06
-0.000137694
3.65654e-06
-0.000140605
2.91053e-06
-0.000142794
2.18979e-06
-0.000144284
1.48977e-06
-0.00014511
8.25892e-07
-0.000145269
1.59006e-07
-0.000144664
-6.04606e-07
-0.000143349
-1.31522e-06
-0.000141348
-2.00095e-06
-0.000138657
-2.69074e-06
-0.000135302
-3.35595e-06
-0.000131283
-4.01891e-06
-0.000126565
-4.71748e-06
-0.000121185
-5.38022e-06
-6.05373e-06
8.33453e-05
-3.66954e-05
0.000101701
-3.67028e-05
0.000119635
-3.58565e-05
0.000136821
-3.43559e-05
0.000153237
-3.28089e-05
0.000168509
-3.05045e-05
0.000182457
-2.78545e-05
0.000194774
-2.46137e-05
0.000205195
-2.08561e-05
0.000213541
-1.67106e-05
0.000219642
-1.22042e-05
0.000223377
-7.46733e-06
0.000224679
-2.59817e-06
0.000223448
2.44758e-06
0.000219701
7.48581e-06
0.000213451
1.24986e-05
0.000204761
1.73723e-05
0.000194048
2.14181e-05
0.000181381
2.5323e-05
0.000166902
2.89458e-05
0.00015106
3.1671e-05
0.000134001
3.41034e-05
0.000115959
3.6072e-05
9.72814e-05
3.73476e-05
7.81778e-05
3.81919e-05
5.89999e-05
3.83432e-05
3.98856e-05
3.82172e-05
2.10898e-05
3.75804e-05
2.82937e-06
3.6514e-05
-1.49532e-05
3.55559e-05
-3.19937e-05
3.40743e-05
-4.81901e-05
3.23902e-05
-6.34861e-05
3.059e-05
-7.78116e-05
2.86474e-05
-9.11649e-05
2.67033e-05
-0.000103509
2.46852e-05
-0.000114841
2.26624e-05
-0.000125193
2.07009e-05
-0.000134562
1.87314e-05
-0.000142986
1.68422e-05
-0.000150517
1.50562e-05
-0.000157163
1.32961e-05
-0.000162982
1.16455e-05
-0.000168002
1.00413e-05
-0.00017225
8.49973e-06
-0.000175756
7.01236e-06
-0.000178505
5.49532e-06
-0.000180532
4.05543e-06
-0.000181851
2.63619e-06
-0.000182478
1.25489e-06
-0.00018236
-2.35071e-07
-0.000181543
-1.63505e-06
-0.000179946
-3.19535e-06
-0.000177697
-4.50173e-06
-0.000174732
-5.93348e-06
-0.0001709
-7.66471e-06
-0.000166347
-9.10763e-06
-0.000161063
-1.05719e-05
-0.000154814
-1.25014e-05
-0.000147814
-1.39921e-05
-0.000139706
-1.62242e-05
-0.000130677
-1.80599e-05
-0.000120767
-1.98174e-05
-0.000109789
-2.19523e-05
-9.77958e-05
-2.39837e-05
-8.49572e-05
-2.56671e-05
-7.10422e-05
-2.7813e-05
-5.62304e-05
-2.96478e-05
-4.0477e-05
-3.14921e-05
-2.40237e-05
-3.29075e-05
-6.96165e-06
-3.41147e-05
1.06035e-05
-3.51018e-05
2.85764e-05
-3.59304e-05
4.66867e-05
-3.62171e-05
6.4915e-05
-3.64527e-05
8.28627e-05
-3.58886e-05
0.000100611
-3.54814e-05
0.00011778
-3.43298e-05
0.00013419
-3.2813e-05
0.000149661
-3.09322e-05
0.000163915
-2.85008e-05
0.000176712
-2.55952e-05
0.000187889
-2.23542e-05
0.000197231
-1.86695e-05
0.000204642
-1.48113e-05
0.000209877
-1.0463e-05
0.000212804
-5.84986e-06
0.000213375
-1.14066e-06
0.000211678
3.38672e-06
0.000207641
8.06562e-06
0.000201339
1.25906e-05
0.000192791
1.71011e-05
0.000182239
2.10969e-05
0.000169929
2.46111e-05
0.000155961
2.79307e-05
0.000140689
3.05397e-05
0.000124128
3.3107e-05
0.000106767
3.47013e-05
8.88367e-05
3.58528e-05
7.03123e-05
3.70476e-05
5.16685e-05
3.7275e-05
3.32517e-05
3.68172e-05
1.48905e-05
3.67303e-05
-2.94084e-06
3.56567e-05
-2.02065e-05
3.45237e-05
-3.69526e-05
3.34811e-05
-5.28803e-05
3.18578e-05
-6.80143e-05
3.02632e-05
-8.2267e-05
2.84999e-05
-9.54977e-05
2.64609e-05
-0.000107757
2.45166e-05
-0.000118936
2.23586e-05
-0.000129084
2.02997e-05
-0.00013819
1.82185e-05
-0.000146242
1.61033e-05
-0.000153315
1.41429e-05
-0.000159487
1.23405e-05
-0.000164662
1.03546e-05
-0.000169047
8.77256e-06
-0.000172599
7.10166e-06
-0.00017536
5.52366e-06
-0.000177352
3.98378e-06
-0.000178596
2.48903e-06
-0.000179176
1.16754e-06
-0.000179068
-2.16792e-07
-0.000178304
-1.53361e-06
-0.000176802
-3.00315e-06
-0.000174618
-4.36958e-06
-0.000171685
-5.86513e-06
-0.000168006
-7.35672e-06
-0.000163584
-8.84585e-06
-0.00015846
-1.02538e-05
-0.000152367
-1.21794e-05
-0.000145427
-1.3891e-05
-0.000137666
-1.55173e-05
-0.000128936
-1.74506e-05
-0.000119221
-1.94351e-05
-0.000108532
-2.13795e-05
-9.68351e-05
-2.33983e-05
-8.42403e-05
-2.51849e-05
-7.06896e-05
-2.71004e-05
-5.62091e-05
-2.89646e-05
-4.09214e-05
-3.0563e-05
-2.4835e-05
-3.218e-05
-8.10122e-06
-3.34572e-05
9.15604e-06
-3.45028e-05
2.68121e-05
-3.53121e-05
4.47429e-05
-3.58614e-05
6.27119e-05
-3.59261e-05
8.06244e-05
-3.58111e-05
9.80676e-05
-3.48779e-05
0.000114925
-3.37011e-05
0.000131061
-3.22698e-05
0.000146118
-3.01089e-05
0.00015995
-2.76583e-05
0.000172439
-2.49813e-05
0.000183318
-2.17452e-05
0.000192556
-1.8469e-05
0.000199883
-1.46554e-05
0.000205147
-1.05182e-05
0.000208416
-6.52464e-06
0.000209448
-2.06435e-06
0.000208371
2.14964e-06
0.000205092
6.55309e-06
0.000199679
1.0824e-05
0.000192169
1.50196e-05
0.000182625
1.90805e-05
0.000171204
2.28356e-05
0.000158091
2.62198e-05
0.000143317
2.95361e-05
0.000127187
3.22496e-05
0.0001101
3.41689e-05
9.18985e-05
3.63993e-05
7.29363e-05
3.78964e-05
5.37811e-05
3.83072e-05
3.44719e-05
3.86031e-05
1.54943e-05
3.79515e-05
-3.3698e-06
3.77332e-05
-2.16643e-05
3.6578e-05
-3.90656e-05
3.47859e-05
-5.56042e-05
3.30746e-05
-7.11182e-05
3.10294e-05
-8.54487e-05
2.86582e-05
-9.86288e-05
2.6357e-05
-0.000110539
2.38223e-05
-0.00012122
2.13583e-05
-0.000130705
1.89683e-05
-0.000138955
1.65039e-05
-0.000146092
1.42786e-05
-0.000152159
1.21361e-05
-0.000157226
1.01357e-05
-0.000161366
8.28608e-06
-0.000164774
6.81521e-06
-0.00016735
5.15828e-06
-0.00016929
3.88528e-06
-0.000170633
2.68938e-06
-0.000171459
1.64592e-06
-0.000171751
5.79773e-07
-0.000171581
-3.32416e-07
-0.0001709
-1.36067e-06
-0.000169766
-2.26608e-06
-0.000168171
-3.19037e-06
-0.000166108
-4.13264e-06
-0.000163549
-5.11836e-06
-0.000160296
-6.50713e-06
-0.000156569
-7.45772e-06
-0.000152171
-8.79102e-06
-0.000147008
-1.03315e-05
-0.000141084
-1.18515e-05
-0.000134298
-1.35768e-05
-0.00012658
-1.54382e-05
-0.000117862
-1.74399e-05
-0.00010811
-1.95154e-05
-9.73185e-05
-2.1579e-05
-8.53469e-05
-2.39412e-05
-7.23288e-05
-2.60245e-05
-5.81934e-05
-2.82745e-05
-4.28917e-05
-3.05945e-05
-2.66544e-05
-3.2477e-05
-9.48024e-06
-3.43427e-05
8.415e-06
-3.57785e-05
2.6921e-05
-3.70149e-05
4.59145e-05
-3.79731e-05
6.49658e-05
-3.81028e-05
8.38221e-05
-3.77e-05
0.000102578
-3.74979e-05
0.00012063
-3.60963e-05
0.00013796
-3.46489e-05
0.000153991
-3.20552e-05
0.000168536
-2.90727e-05
0.000181497
-2.59126e-05
0.000192472
-2.19398e-05
0.000201336
-1.77199e-05
0.000208
-1.33253e-05
0.000212268
-8.53791e-06
0.000214113
-3.67583e-06
0.000213478
1.25925e-06
0.000210447
6.05278e-06
0.000205033
1.08199e-05
0.000197337
1.5393e-05
0.000187537
1.95985e-05
0.000175856
2.3352e-05
0.000162405
2.6892e-05
0.000147472
2.98513e-05
0.000131429
3.20773e-05
0.000114379
3.41017e-05
9.68797e-05
3.49812e-05
7.87206e-05
3.63003e-05
6.02707e-05
3.68899e-05
4.20349e-05
3.64647e-05
2.38072e-05
3.64516e-05
5.85007e-06
3.59051e-05
-1.1576e-05
3.48539e-05
-2.82723e-05
3.33789e-05
-4.43288e-05
3.21141e-05
-5.97431e-05
3.08317e-05
-7.43043e-05
2.9128e-05
-8.80171e-05
2.74208e-05
-0.00010087
2.57048e-05
-0.00011283
2.39109e-05
-0.000123795
2.19283e-05
-0.000133877
2.01615e-05
-0.000142959
1.81653e-05
-0.000151109
1.63031e-05
-0.000158333
1.44496e-05
-0.000164642
1.26155e-05
-0.000170099
1.09061e-05
-0.000174564
8.93909e-06
-0.000178228
7.33034e-06
-0.000181091
5.71783e-06
-0.000183067
3.95138e-06
-0.000184222
2.30801e-06
-0.000184536
6.33416e-07
-0.00018401
-1.04804e-06
-0.00018269
-2.6422e-06
-0.000180582
-4.21733e-06
-0.000177659
-5.84766e-06
-0.000173957
-7.40413e-06
-0.000169456
-9.01004e-06
-0.000164151
-1.06107e-05
-0.000158036
-1.22267e-05
-0.000151057
-1.39659e-05
-0.000143264
-1.55866e-05
-0.000134699
-1.71254e-05
-0.000125268
-1.88597e-05
-0.000114968
-2.05968e-05
-0.000103888
-2.21633e-05
-9.18846e-05
-2.40058e-05
-7.90963e-05
-2.55767e-05
-6.54241e-05
-2.73426e-05
-5.09273e-05
-2.89897e-05
-3.57721e-05
-3.03077e-05
-1.9885e-05
-3.17737e-05
-3.33905e-06
-3.30937e-05
1.35173e-05
-3.37043e-05
3.08041e-05
-3.4566e-05
4.83405e-05
-3.50681e-05
6.58805e-05
-3.507e-05
8.3364e-05
-3.49578e-05
0.000100485
-3.42328e-05
0.000117146
-3.33137e-05
0.000133132
-3.19697e-05
0.000148105
-2.99582e-05
0.000161971
-2.77493e-05
0.000174562
-2.5154e-05
0.000185545
-2.19286e-05
0.000194866
-1.86257e-05
0.000202294
-1.48504e-05
0.000207786
-1.09744e-05
0.000211231
-6.88085e-06
0.000212432
-2.39905e-06
0.000211531
1.79577e-06
0.000208544
5.97798e-06
0.000203399
1.02957e-05
0.000196318
1.41578e-05
0.000187354
1.79206e-05
0.000176712
2.12775e-05
0.000164581
2.42531e-05
0.000151024
2.7106e-05
0.000136392
2.92519e-05
0.000120922
3.09282e-05
0.00010476
3.23118e-05
8.81898e-05
3.31299e-05
7.14073e-05
3.35535e-05
5.46238e-05
3.35555e-05
3.79221e-05
3.34017e-05
2.15378e-05
3.27606e-05
5.61148e-06
3.18461e-05
-9.77831e-06
3.07755e-05
-2.44994e-05
2.9437e-05
-3.84444e-05
2.78859e-05
-5.15741e-05
2.62542e-05
-6.38313e-05
2.45104e-05
-7.51794e-05
2.26922e-05
-8.56224e-05
2.08841e-05
-9.51482e-05
1.90503e-05
-0.000103784
1.72682e-05
-0.000111536
1.54953e-05
-0.000118416
1.37549e-05
-0.000124455
1.20787e-05
-0.000129674
1.04404e-05
-0.000134096
8.84647e-06
-0.000137748
7.30869e-06
-0.000140653
5.81566e-06
-0.000142843
4.37946e-06
-0.000144334
2.98122e-06
-0.000145157
1.64849e-06
-0.000145313
3.148e-07
-0.000144706
-1.21126e-06
-0.000143387
-2.63394e-06
-0.000141383
-4.00476e-06
-0.00013869
-5.38411e-06
-0.000135332
-6.7137e-06
-0.000131312
-8.03905e-06
-0.000126594
-9.43602e-06
-0.000121212
-1.07616e-05
-1.21088e-05
8.33645e-05
-5.50653e-05
0.000101748
-5.50864e-05
0.000119712
-5.38211e-05
0.000136932
-5.15754e-05
0.000153374
-4.92512e-05
0.000168662
-4.57934e-05
0.000182622
-4.1814e-05
0.000194959
-3.6951e-05
0.000205407
-3.13048e-05
0.000213774
-2.50777e-05
0.000219888
-1.83187e-05
0.000223635
-1.12141e-05
0.000224939
-3.90208e-06
0.000223658
3.72803e-06
0.000219884
1.12595e-05
0.000213631
1.87522e-05
0.000204927
2.60755e-05
0.000194198
3.21471e-05
0.000181514
3.8007e-05
0.000167016
4.34439e-05
0.000151153
4.7533e-05
0.000134075
5.1182e-05
0.000116014
5.41327e-05
9.73355e-05
5.60261e-05
7.8203e-05
5.73243e-05
5.90027e-05
5.75435e-05
3.98688e-05
5.7351e-05
2.10544e-05
5.63947e-05
2.78012e-06
5.47882e-05
-1.5014e-05
5.335e-05
-3.20661e-05
5.11264e-05
-4.82756e-05
4.85997e-05
-6.35815e-05
4.58959e-05
-7.79111e-05
4.29771e-05
-9.12655e-05
4.00576e-05
-0.000103609
3.70283e-05
-0.000114939
3.39928e-05
-0.00012529
3.10515e-05
-0.000134657
2.80988e-05
-0.000143075
2.52604e-05
-0.0001506
2.25808e-05
-0.000157248
1.99444e-05
-0.000163066
1.74638e-05
-0.00016808
1.50554e-05
-0.000172319
1.27387e-05
-0.00017582
1.05131e-05
-0.00017857
8.24481e-06
-0.000180592
6.07787e-06
-0.000181912
3.95573e-06
-0.000182535
1.87863e-06
-0.000182415
-3.55619e-07
-0.000181598
-2.45172e-06
-0.000180003
-4.7905e-06
-0.000177756
-6.7486e-06
-0.00017479
-8.89969e-06
-0.000170962
-1.14933e-05
-0.00016641
-1.36588e-05
-0.000161131
-1.58519e-05
-0.000154884
-1.87477e-05
-0.000147877
-2.09995e-05
-0.000139781
-2.43202e-05
-0.000130754
-2.70869e-05
-0.000120849
-2.97224e-05
-0.000109872
-3.29302e-05
-9.78717e-05
-3.59836e-05
-8.50238e-05
-3.85151e-05
-7.10953e-05
-4.17416e-05
-5.63044e-05
-4.44388e-05
-4.05609e-05
-4.72357e-05
-2.40808e-05
-4.93877e-05
-7.00449e-06
-5.11911e-05
1.0583e-05
-5.26894e-05
2.85653e-05
-5.39128e-05
4.66898e-05
-5.43418e-05
6.49284e-05
-5.46915e-05
8.28885e-05
-5.38487e-05
0.000100668
-5.32612e-05
0.000117846
-5.15082e-05
0.000134278
-4.92444e-05
0.000149776
-4.64304e-05
0.000164043
-4.27684e-05
0.000176839
-3.83907e-05
0.000188044
-3.35599e-05
0.000197424
-2.80491e-05
0.000204826
-2.22138e-05
0.000210059
-1.5696e-05
0.00021301
-8.80115e-06
0.000213584
-1.71472e-06
0.000211862
5.10893e-06
0.000207819
1.2108e-05
0.000201519
1.88913e-05
0.000192952
2.56677e-05
0.000182386
3.16627e-05
0.000170058
3.6939e-05
0.000156063
4.19254e-05
0.000140785
4.58181e-05
0.000124193
4.96985e-05
0.000106801
5.2094e-05
8.88668e-05
5.37866e-05
7.03178e-05
5.55966e-05
5.1655e-05
5.59377e-05
3.32143e-05
5.5258e-05
1.48537e-05
5.50908e-05
-2.97562e-06
5.3486e-05
-2.02503e-05
5.17984e-05
-3.7024e-05
5.02548e-05
-5.29514e-05
4.77852e-05
-6.80952e-05
4.54069e-05
-8.23506e-05
4.27553e-05
-9.55797e-05
3.969e-05
-0.000107844
3.67811e-05
-0.000119029
3.35435e-05
-0.000129173
3.04436e-05
-0.000138275
2.7321e-05
-0.00014632
2.41478e-05
-0.00015339
2.12133e-05
-0.000159565
1.85152e-05
-0.00016473
1.55197e-05
-0.000169117
1.31592e-05
-0.00017266
1.06453e-05
-0.000175424
8.28724e-06
-0.000177409
5.96908e-06
-0.000178658
3.73804e-06
-0.000179221
1.73036e-06
-0.000179111
-3.2713e-07
-0.000178349
-2.29527e-06
-0.000176851
-4.5015e-06
-0.000174666
-6.55481e-06
-0.000171726
-8.80435e-06
-0.000168051
-1.10325e-05
-0.000163641
-1.32551e-05
-0.000158511
-1.53845e-05
-0.000152429
-1.82608e-05
-0.000145498
-2.08227e-05
-0.000137735
-2.32805e-05
-0.000129006
-2.6179e-05
-0.000119284
-2.91576e-05
-0.000108593
-3.207e-05
-9.68947e-05
-3.50971e-05
-8.43036e-05
-3.77761e-05
-7.07566e-05
-4.06475e-05
-5.62752e-05
-4.34461e-05
-4.09797e-05
-4.58587e-05
-2.48875e-05
-4.82723e-05
-8.12836e-06
-5.02164e-05
9.13055e-06
-5.17618e-05
2.6797e-05
-5.29786e-05
4.47487e-05
-5.38132e-05
6.27282e-05
-5.39057e-05
8.067e-05
-5.37531e-05
9.81214e-05
-5.23293e-05
0.000114991
-5.05707e-05
0.000131146
-4.84253e-05
0.000146213
-4.51761e-05
0.000160066
-4.15111e-05
0.000172573
-3.74882e-05
0.000183461
-3.26334e-05
0.000192712
-2.77202e-05
0.000200045
-2.19879e-05
0.000205318
-1.57916e-05
0.000208605
-9.81215e-06
0.000209636
-3.09485e-06
0.000208544
3.24127e-06
0.000205266
9.83115e-06
0.000199852
1.62379e-05
0.000192325
2.25467e-05
0.000182768
2.86371e-05
0.00017134
3.42638e-05
0.000158218
3.9342e-05
0.000143421
4.43327e-05
0.00012727
4.84e-05
0.000110165
5.12739e-05
9.19551e-05
5.46097e-05
7.29616e-05
5.68898e-05
5.37843e-05
5.74844e-05
3.44399e-05
5.79475e-05
1.5447e-05
5.69443e-05
-3.41776e-06
5.6598e-05
-2.17124e-05
5.48726e-05
-3.91387e-05
5.22121e-05
-5.56976e-05
4.96335e-05
-7.12198e-05
4.65516e-05
-8.55607e-05
4.2999e-05
-9.8739e-05
3.95354e-05
-0.000110641
3.57245e-05
-0.000121317
3.20344e-05
-0.000130798
2.84485e-05
-0.00013905
2.47565e-05
-0.000146181
2.14098e-05
-0.000152246
1.82012e-05
-0.000157312
1.52011e-05
-0.000161439
1.24136e-05
-0.00016483
1.02063e-05
-0.000167392
7.7198e-06
-0.000169323
5.81676e-06
-0.000170666
4.03161e-06
-0.0001715
2.47984e-06
-0.000171782
8.62689e-07
-0.000171615
-5.00161e-07
-0.000170931
-2.04428e-06
-0.000169794
-3.40324e-06
-0.000168202
-4.78276e-06
-0.00016614
-6.19423e-06
-0.00016359
-7.66851e-06
-0.000160337
-9.76009e-06
-0.000156622
-1.11731e-05
-0.000152222
-1.31908e-05
-0.000147053
-1.55002e-05
-0.000141133
-1.77716e-05
-0.000134355
-2.03551e-05
-0.00012665
-2.31437e-05
-0.000117934
-2.61555e-05
-0.000108218
-2.92314e-05
-9.74001e-05
-3.23973e-05
-8.54313e-05
-3.591e-05
-7.24186e-05
-3.90374e-05
-5.82734e-05
-4.24198e-05
-4.29529e-05
-4.59151e-05
-2.67266e-05
-4.87034e-05
-9.53032e-06
-5.15392e-05
8.38344e-06
-5.36924e-05
2.68916e-05
-5.55232e-05
4.59201e-05
-5.70017e-05
6.49718e-05
-5.71547e-05
8.38532e-05
-5.65816e-05
0.000102622
-5.6267e-05
0.000120699
-5.41735e-05
0.000138063
-5.2013e-05
0.000154109
-4.8101e-05
0.000168685
-4.3649e-05
0.00018167
-3.88972e-05
0.000192654
-3.29248e-05
0.000201525
-2.65907e-05
0.000208204
-2.00045e-05
0.000212478
-1.28115e-05
0.000214348
-5.54651e-06
0.00021369
1.91728e-06
0.000210635
9.10751e-06
0.000205217
1.62384e-05
0.00019752
2.30893e-05
0.000187698
2.94209e-05
0.000175999
3.50508e-05
0.00016252
4.03709e-05
0.000147567
4.48046e-05
0.0001315
4.81442e-05
0.000114423
5.11784e-05
9.69037e-05
5.25007e-05
7.87355e-05
5.44684e-05
6.02645e-05
5.53609e-05
4.20065e-05
5.47227e-05
2.37681e-05
5.46899e-05
5.8e-06
5.38732e-05
-1.16011e-05
5.2255e-05
-2.83269e-05
5.01047e-05
-4.43971e-05
4.81843e-05
-5.98197e-05
4.62542e-05
-7.43832e-05
4.36915e-05
-8.8096e-05
4.11337e-05
-0.000100954
3.85624e-05
-0.000112914
3.58712e-05
-0.00012387
3.28844e-05
-0.000133944
3.02356e-05
-0.000143028
2.72487e-05
-0.000151181
2.44568e-05
-0.000158401
2.16695e-05
-0.000164705
1.89191e-05
-0.000170172
1.63734e-05
-0.000174636
1.34035e-05
-0.000178299
1.09931e-05
-0.000181154
8.57285e-06
-0.000183138
5.93541e-06
-0.000184295
3.46435e-06
-0.000184598
9.36457e-07
-0.000184072
-1.57362e-06
-0.00018275
-3.96429e-06
-0.000180643
-6.32426e-06
-0.000177722
-8.76884e-06
-0.000174021
-1.1105e-05
-0.000169523
-1.35086e-05
-0.00016422
-1.59132e-05
-0.000158103
-1.8344e-05
-0.00015112
-2.09491e-05
-0.00014333
-2.33762e-05
-0.000134771
-2.56847e-05
-0.000125313
-2.83178e-05
-0.000115017
-3.08928e-05
-0.000103944
-3.3236e-05
-9.19383e-05
-3.60119e-05
-7.91511e-05
-3.8364e-05
-6.54769e-05
-4.10169e-05
-5.09771e-05
-4.34895e-05
-3.58188e-05
-4.54661e-05
-1.99263e-05
-4.76662e-05
-3.37738e-06
-4.96428e-05
1.34718e-05
-5.05535e-05
3.07612e-05
-5.18555e-05
4.82921e-05
-5.25991e-05
6.58364e-05
-5.26144e-05
8.3326e-05
-5.24475e-05
0.000100449
-5.13562e-05
0.000117116
-4.99808e-05
0.000133122
-4.79759e-05
0.000148131
-4.49667e-05
0.000162033
-4.16513e-05
0.000174643
-3.77645e-05
0.000185636
-3.2921e-05
0.000194967
-2.79575e-05
0.0002024
-2.22829e-05
0.000207893
-1.64676e-05
0.000211347
-1.03352e-05
0.000212556
-3.60832e-06
0.000211663
2.68916e-06
0.00020869
8.95087e-06
0.000203548
1.54373e-05
0.000196464
2.12426e-05
0.000187487
2.68966e-05
0.000176831
3.19338e-05
0.000164686
3.63981e-05
0.000151119
4.06726e-05
0.000136463
4.39081e-05
0.000120974
4.64175e-05
0.000104794
4.8492e-05
8.82037e-05
4.97199e-05
7.14017e-05
5.03555e-05
5.45976e-05
5.03595e-05
3.78991e-05
5.01002e-05
2.15035e-05
4.91562e-05
5.5683e-06
4.77812e-05
-9.83633e-06
4.61801e-05
-2.45664e-05
4.41671e-05
-3.85173e-05
4.18368e-05
-5.1651e-05
3.93879e-05
-6.39115e-05
3.67708e-05
-7.52628e-05
3.40435e-05
-8.57045e-05
3.13258e-05
-9.52285e-05
2.85743e-05
-0.000103862
2.59021e-05
-0.000111612
2.32447e-05
-0.00011849
2.06328e-05
-0.000124528
1.81168e-05
-0.000129747
1.5659e-05
-0.000134169
1.32691e-05
-0.000137823
1.09627e-05
-0.00014073
8.72194e-06
-0.000142918
6.56767e-06
-0.000144411
4.47421e-06
-0.000145225
2.46282e-06
-0.000145372
4.61443e-07
-0.00014476
-1.82322e-06
-0.000143439
-3.95425e-06
-0.000141435
-6.0095e-06
-0.000138741
-8.07782e-06
-0.000135383
-1.00715e-05
-0.000131363
-1.2059e-05
-0.000126645
-1.41541e-05
-0.000121264
-1.61426e-05
-1.81636e-05
8.33906e-05
-7.34602e-05
0.000101809
-7.35049e-05
0.000119812
-7.18243e-05
0.000137075
-6.88385e-05
0.000153565
-6.57418e-05
0.000168905
-6.11336e-05
0.000182917
-5.58259e-05
0.000195304
-4.93386e-05
0.000205803
-4.18041e-05
0.000214206
-3.34806e-05
0.00022034
-2.4453e-05
0.000224103
-1.49766e-05
0.000225381
-5.18096e-06
0.000223995
5.11421e-06
0.00022016
1.50943e-05
0.000213893
2.50187e-05
0.000205176
3.47929e-05
0.000194424
4.28992e-05
0.000181713
5.07171e-05
0.000167186
5.79711e-05
0.000151294
6.34254e-05
0.000134185
6.82909e-05
0.000116095
7.22219e-05
9.74057e-05
7.47157e-05
7.82431e-05
7.64868e-05
5.90081e-05
7.67784e-05
3.98447e-05
7.65143e-05
2.10019e-05
7.52375e-05
2.7051e-06
7.30849e-05
-1.51102e-05
7.11653e-05
-3.21787e-05
6.81948e-05
-4.84007e-05
6.48217e-05
-6.37155e-05
6.12107e-05
-7.8053e-05
5.73145e-05
-9.14134e-05
5.34181e-05
-0.000103761
4.93754e-05
-0.000115093
4.53249e-05
-0.000125445
4.14033e-05
-0.000134817
3.7471e-05
-0.000143236
3.36793e-05
-0.000150741
3.00865e-05
-0.000157379
2.65817e-05
-0.000163187
2.32725e-05
-0.000168192
2.00603e-05
-0.000172421
1.69671e-05
-0.000175914
1.40066e-05
-0.000178667
1.09978e-05
-0.000180684
8.09443e-06
-0.000182005
5.27681e-06
-0.000182625
2.49887e-06
-0.0001825
-4.80255e-07
-0.000181682
-3.26998e-06
-0.00018009
-6.38275e-06
-0.000177848
-8.99101e-06
-0.00017488
-1.18677e-05
-0.000171056
-1.53165e-05
-0.000166508
-1.82071e-05
-0.000161234
-2.11258e-05
-0.000154993
-2.49891e-05
-0.000147975
-2.80177e-05
-0.000139896
-3.23993e-05
-0.000130872
-3.61108e-05
-0.00012097
-3.9624e-05
-0.000109993
-4.39075e-05
-9.79895e-05
-4.79874e-05
-8.51297e-05
-5.13749e-05
-7.11781e-05
-5.56933e-05
-5.64162e-05
-5.92008e-05
-4.06828e-05
-6.29693e-05
-2.41659e-05
-6.59046e-05
-7.06728e-06
-6.82899e-05
1.05527e-05
-7.03095e-05
2.85507e-05
-7.1911e-05
4.66994e-05
-7.24906e-05
6.49523e-05
-7.29446e-05
8.29239e-05
-7.18205e-05
0.000100758
-7.10951e-05
0.000117956
-6.87064e-05
0.000134405
-6.56935e-05
0.00014994
-6.1966e-05
0.000164227
-5.70548e-05
0.000177014
-5.11778e-05
0.000188277
-4.48233e-05
0.00019769
-3.74622e-05
0.000205078
-2.9602e-05
0.000210346
-2.09643e-05
0.000213323
-1.17785e-05
0.000213892
-2.28315e-06
0.000212135
6.86584e-06
0.000208082
1.6161e-05
0.000201776
2.51971e-05
0.000193194
3.42496e-05
0.000182607
4.22495e-05
0.000170249
4.92966e-05
0.00015622
5.59547e-05
0.000140936
6.11023e-05
0.000124304
6.633e-05
0.000106853
6.9545e-05
8.89067e-05
7.17332e-05
7.03221e-05
7.41812e-05
5.16356e-05
7.46242e-05
3.31599e-05
7.37337e-05
1.48032e-05
7.34474e-05
-3.02306e-06
7.13124e-05
-2.03356e-05
6.91109e-05
-3.71438e-05
6.7063e-05
-5.30581e-05
6.36995e-05