/*--------------------------------*- C++ -*----------------------------------*\
| =========                 |                                                 |
| \\      /  F ield         | OpenFOAM: The Open Source CFD Toolbox           |
|  \\    /   O peration     | Version:  3.0.1                                 |
|   \\  /    A nd           | Web:      www.OpenFOAM.org                      |
|    \\/     M anipulation  |                                                 |
\*---------------------------------------------------------------------------*/
FoamFile
{
    version     2.0;
    format      ascii;
    class       volScalarField;
    location    "79.8";
    object      p;
}
// * * * * * * * * * * * * * * * * * * * * * * * * * * * * * * * * * * * * * //

dimensions      [1 -1 -2 0 0 0 0];

internalField   nonuniform List<scalar> 
21420
(
3549.88
3543.85
3539.25
3536.04
3534.28
3533.97
3535.06
3537.61
3541.63
3547.14
3554.16
3562.75
3572.94
3584.8
3598.36
3613.7
3630.85
3649.85
3670.7
3693.42
3717.98
3744.33
3772.4
3802.09
3833.25
3865.7
3899.14
3933.37
3968.12
4002.98
4037.57
4071.51
4104.36
4135.72
4165.17
4192.27
4216.67
4238.03
4256.02
4270.39
4280.93
4287.49
4289.91
4288.05
4282.06
4272.08
4258.23
4240.76
4219.91
4195.97
4169.28
4140.23
4109.2
4076.61
4042.84
4008.33
3973.47
3938.63
3904.19
3870.65
3837.89
3806.31
3776.12
3747.5
3720.55
3695.38
3672.04
3650.56
3630.95
3613.2
3597.29
3583.17
3570.8
3560.16
3551.19
3543.89
3538.21
3534.13
3531.63
3530.72
3531.46
3533.76
3537.65
3543.17
3550.3
3559.04
3569.41
3581.39
3594.97
3610.16
3626.95
3645.34
3665.32
3686.9
3710.05
3734.77
3761
3788.69
3817.74
3848.01
3879.35
3911.57
3944.35
3977.45
4010.55
4043.34
4075.45
4106.53
4136.21
4164.11
4189.87
4213.14
4233.58
4250.88
4264.76
4274.99
4281.36
4283.69
4281.98
4276.15
4266.3
4252.47
4234.88
4213.77
4189.45
4162.26
4132.59
4100.87
4067.54
4033.04
3997.81
3962.3
3926.91
3892.04
3858.04
3825.21
3793.81
3764.07
3736.16
3710.2
3686.28
3664.45
3644.7
3627.01
3611.33
3597.61
3585.75
3575.67
3567.28
3560.5
3555.24
3551.43
3548.99
3547.87
3548.05
3549.46
3552.08
3555.91
3560.94
3567.21
3574.73
3583.54
3593.66
3605.14
3618.01
3632.3
3648.07
3665.33
3684.12
3704.45
3726.32
3749.72
3774.62
3800.96
3828.66
3857.61
3887.66
3918.66
3950.31
3982.39
4014.59
4046.56
4077.95
4108.36
4137.38
4164.59
4189.57
4211.92
4231.26
4247.25
4259.61
4268.09
4272.53
4272.75
4268.88
4260.86
4248.8
4232.91
4213.43
4190.68
4165.03
4136.87
4106.65
4074.81
4041.81
4008.1
3974.12
3940.27
3906.94
3874.45
3843.08
3813.08
3784.64
3757.88
3732.91
3709.79
3688.53
3669.13
3651.56
3635.75
3621.65
3609.18
3598.28
3588.87
3580.88
3574.26
3568.96
3564.92
3562.11
3560.48
3560.02
3560.73
3562.57
3565.56
3569.71
3575.05
3581.6
3589.4
3598.48
3608.88
3620.61
3633.7
3648.18
3664.08
3681.42
3700.22
3720.49
3742.23
3765.41
3790
3815.93
3843.11
3871.4
3900.65
3930.65
3961.19
3991.97
4022.72
4053.11
4082.8
4111.41
4138.57
4163.87
4186.92
4207.33
4224.75
4238.86
4249.36
4256.04
4258.73
4257.35
4251.92
4242.49
4229.15
4212.16
4191.8
4168.4
4142.36
4114.09
4084.03
4052.65
4020.41
3987.76
3955.11
3922.84
3891.06
3857.9
3826.77
3797.14
3769.06
3742.61
3717.87
3694.86
3673.6
3654.1
3636.33
3620.27
3605.9
3593.18
3582.09
3572.6
3564.66
3558.27
3553.41
3550.01
3548.03
3547.6
3548.32
3550.38
3553.79
3558.61
3564.87
3572.65
3582.02
3592.99
3605.67
3620.07
3636.23
3654.2
3673.97
3695.54
3718.89
3743.98
3770.72
3799
3828.67
3859.35
3891.14
3923.75
3956.86
3990.16
4023.27
4055.81
4087.42
4117.7
4146.28
4172.76
4196.78
4218.01
4236.13
4250.88
4262.03
4269.43
4272.98
4272.57
4268.32
4260.23
4248.42
4233.14
4214.63
4193.15
4169.06
4142.69
4114.43
4084.76
4054.12
4023.07
3451.72
3445.7
3441.09
3437.89
3436.13
3435.81
3436.9
3439.46
3443.48
3448.98
3456
3464.58
3474.77
3486.63
3500.19
3515.52
3532.67
3551.67
3572.52
3595.24
3619.8
3646.14
3674.22
3703.91
3735.08
3767.54
3800.98
3835.22
3869.99
3904.87
3939.47
3973.42
4006.29
4037.68
4067.14
4094.26
4118.68
4140.05
4158.05
4172.43
4182.99
4189.55
4191.98
4190.11
4184.11
4174.13
4160.27
4142.78
4121.92
4097.96
4071.26
4042.19
4011.14
3978.53
3944.74
3910.22
3875.34
3840.49
3806.04
3772.49
3739.72
3708.13
3677.94
3649.31
3622.37
3597.2
3573.86
3552.38
3532.77
3515.02
3499.11
3484.99
3472.63
3461.99
3453.03
3445.73
3440.05
3435.97
3433.47
3432.56
3433.3
3435.6
3439.49
3445
3452.14
3460.88
3471.24
3483.22
3496.8
3511.99
3528.78
3547.17
3567.15
3588.72
3611.88
3636.59
3662.83
3690.52
3719.57
3749.85
3781.19
3813.42
3846.21
3879.32
3912.44
3945.24
3977.37
4008.46
4038.16
4066.07
4091.85
4115.13
4135.59
4152.9
4166.8
4177.03
4183.41
4185.76
4184.03
4178.2
4168.34
4154.51
4136.9
4115.78
4091.44
4064.23
4034.55
4002.81
3969.45
3934.93
3899.69
3864.16
3828.76
3793.88
3759.87
3727.02
3695.62
3665.88
3637.96
3612.01
3588.09
3566.25
3546.5
3528.82
3513.15
3499.43
3487.57
3477.5
3469.11
3462.33
3457.08
3453.27
3450.83
3449.72
3449.9
3451.31
3453.93
3457.75
3462.79
3469.06
3476.58
3485.38
3495.5
3506.97
3519.84
3534.14
3549.9
3567.16
3585.95
3606.27
3628.14
3651.55
3676.45
3702.79
3730.5
3759.45
3789.5
3820.5
3852.17
3884.26
3916.47
3948.46
3979.87
4010.29
4039.33
4066.56
4091.55
4113.92
4133.27
4149.28
4161.65
4170.14
4174.59
4174.82
4170.93
4162.91
4150.84
4134.94
4115.44
4092.68
4067
4038.83
4008.59
3976.73
3943.71
3909.98
3875.98
3842.12
3808.78
3776.28
3744.91
3714.9
3686.45
3659.69
3634.72
3611.6
3590.35
3570.95
3553.38
3537.58
3523.48
3511.02
3500.11
3490.7
3482.72
3476.1
3470.8
3466.77
3463.95
3462.33
3461.87
3462.59
3464.42
3467.41
3471.56
3476.89
3483.45
3491.25
3500.33
3510.72
3522.45
3535.54
3550.02
3565.92
3583.25
3602.05
3622.32
3644.06
3667.24
3691.83
3717.77
3744.95
3773.24
3802.5
3832.51
3863.05
3893.85
3924.61
3955.02
3984.72
4013.35
4040.52
4065.84
4088.91
4109.34
4126.78
4140.9
4151.41
4158.1
4160.8
4159.41
4153.98
4144.53
4131.19
4114.18
4093.81
4070.4
4044.34
4016.04
3985.97
3954.57
3922.31
3889.65
3856.98
3824.7
3792.91
3759.75
3728.6
3698.96
3670.88
3644.43
3619.69
3596.68
3575.43
3555.92
3538.15
3522.1
3507.73
3495.02
3483.93
3474.43
3466.5
3460.11
3455.25
3451.84
3449.87
3449.45
3450.17
3452.22
3455.63
3460.45
3466.71
3474.48
3483.85
3494.82
3507.49
3521.89
3538.06
3556.02
3575.79
3597.36
3620.71
3645.8
3672.54
3700.83
3730.5
3761.18
3792.99
3825.61
3858.72
3892.04
3925.16
3957.72
3989.35
4019.64
4048.24
4074.74
4098.77
4120.02
4138.16
4152.92
4164.08
4171.49
4175.04
4174.62
4170.36
4162.27
4150.45
4135.16
4116.63
4095.14
4071.04
4044.65
4016.37
3986.68
3956.03
3924.97
3353.5
3347.48
3342.88
3339.68
3337.92
3337.6
3338.69
3341.24
3345.26
3350.76
3357.78
3366.36
3376.54
3388.39
3401.94
3417.27
3434.42
3453.4
3474.25
3496.97
3521.53
3547.88
3575.96
3605.66
3636.83
3669.31
3702.77
3737.03
3771.82
3806.73
3841.37
3875.35
3908.26
3939.68
3969.18
3996.33
4020.79
4042.19
4060.22
4074.63
4085.19
4091.77
4094.23
4092.32
4086.32
4076.32
4062.44
4044.93
4024.04
4000.04
3973.31
3944.2
3913.12
3880.47
3846.65
3812.09
3777.18
3742.31
3707.84
3674.26
3641.48
3609.88
3579.69
3551.05
3524.1
3498.93
3475.59
3454.12
3434.51
3416.77
3400.86
3386.75
3374.39
3363.75
3354.79
3347.5
3341.82
3337.74
3335.24
3334.34
3335.07
3337.37
3341.26
3346.77
3353.9
3362.64
3373.01
3384.99
3398.57
3413.75
3430.54
3448.93
3468.91
3490.48
3513.63
3538.34
3564.58
3592.28
3621.33
3651.62
3682.98
3715.22
3748.03
3781.16
3814.31
3847.14
3879.3
3910.43
3940.15
3968.1
3993.91
4017.23
4037.71
4055.05
4068.97
4079.23
4085.62
4087.99
4086.24
4080.41
4070.54
4056.69
4039.06
4017.9
3993.53
3966.28
3936.56
3904.78
3871.39
3836.83
3801.55
3765.99
3730.57
3695.66
3661.62
3628.76
3597.35
3567.59
3539.68
3513.72
3489.8
3467.97
3448.22
3430.54
3414.88
3401.17
3389.32
3379.25
3370.88
3364.11
3358.86
3355.05
3352.62
3351.51
3351.7
3353.11
3355.73
3359.55
3364.59
3370.85
3378.37
3387.17
3397.28
3408.76
3421.62
3435.91
3451.67
3468.93
3487.71
3508.03
3529.9
3553.3
3578.2
3604.55
3632.26
3661.22
3691.29
3722.3
3753.99
3786.1
3818.33
3850.35
3881.79
3912.26
3941.33
3968.59
3993.63
4016.03
4035.42
4051.45
4063.84
4072.35
4076.8
4077.05
4073.14
4065.12
4053.03
4037.1
4017.57
3994.77
3969.06
3940.85
3910.56
3878.67
3845.61
3811.85
3777.82
3743.93
3710.57
3678.05
3646.66
3616.64
3588.18
3561.42
3536.45
3513.33
3492.08
3472.69
3455.12
3439.33
3425.24
3412.78
3401.89
3392.48
3384.51
3377.89
3372.6
3368.57
3365.76
3364.13
3363.68
3364.39
3366.23
3369.21
3373.36
3378.69
3385.24
3393.04
3402.12
3412.5
3424.23
3437.32
3451.8
3467.69
3485.02
3503.82
3524.09
3545.82
3569.01
3593.6
3619.54
3646.73
3675.03
3704.3
3734.33
3764.89
3795.71
3826.5
3856.93
3886.67
3915.33
3942.54
3967.89
3990.99
4011.46
4028.92
4043.07
4053.6
4060.31
4063.02
4061.63
4056.19
4046.73
4033.36
4016.33
3995.93
3972.48
3946.39
3918.06
3887.95
3856.51
3824.22
3791.52
3758.82
3726.51
3694.7
3661.53
3630.36
3600.72
3572.63
3546.17
3521.43
3498.43
3477.17
3457.67
3439.91
3423.86
3409.49
3396.79
3385.7
3376.21
3368.27
3361.88
3357.02
3353.61
3351.65
3351.25
3351.96
3354
3357.41
3362.22
3368.48
3376.25
3385.61
3396.58
3409.25
3423.64
3439.81
3457.77
3477.54
3499.1
3522.45
3547.54
3574.28
3602.58
3632.26
3662.96
3694.78
3727.42
3760.56
3793.9
3827.06
3859.64
3891.3
3921.63
3950.26
3976.8
4000.86
4022.14
4040.31
4055.09
4066.27
4073.69
4077.25
4076.83
4072.55
4064.45
4052.61
4037.29
4018.74
3997.22
3973.08
3946.66
3918.35
3888.63
3857.94
3826.85
3255.23
3249.21
3244.61
3241.41
3239.65
3239.33
3240.41
3242.97
3246.98
3252.48
3259.49
3268.06
3278.24
3290.08
3303.62
3318.94
3336.08
3355.06
3375.91
3398.62
3423.18
3449.53
3477.62
3507.33
3538.52
3571.01
3604.5
3638.8
3673.63
3708.58
3743.26
3777.3
3810.26
3841.74
3871.29
3898.5
3923.01
3944.46
3962.53
3976.96
3987.56
3994.16
3996.65
3994.7
3988.68
3978.66
3964.75
3947.2
3926.26
3902.22
3875.43
3846.27
3815.13
3782.43
3748.56
3713.95
3679
3644.08
3609.58
3575.98
3543.17
3511.56
3481.35
3452.71
3425.75
3400.58
3377.24
3355.77
3336.17
3318.43
3302.54
3288.43
3276.08
3265.45
3256.5
3249.2
3243.53
3239.45
3236.95
3236.06
3236.78
3239.08
3242.97
3248.48
3255.61
3264.35
3274.71
3286.69
3300.26
3315.45
3332.23
3350.61
3370.59
3392.16
3415.31
3440.02
3466.26
3493.96
3523.03
3553.33
3584.71
3616.98
3649.82
3682.98
3716.17
3749.04
3781.25
3812.42
3842.2
3870.2
3896.06
3919.42
3939.95
3957.33
3971.29
3981.57
3987.98
3990.37
3988.61
3982.78
3972.89
3959
3941.34
3920.14
3895.71
3868.41
3838.63
3806.79
3773.34
3738.73
3703.4
3667.79
3632.32
3597.38
3563.31
3530.43
3498.99
3469.22
3441.3
3415.34
3391.42
3369.59
3349.85
3332.19
3316.54
3302.84
3291
3280.94
3272.58
3265.82
3260.58
3256.79
3254.36
3253.26
3253.45
3254.86
3257.48
3261.3
3266.34
3272.6
3280.11
3288.9
3299.01
3310.48
3323.34
3337.62
3353.38
3370.63
3389.4
3409.72
3431.59
3454.99
3479.89
3506.24
3533.96
3562.94
3593.02
3624.05
3655.77
3687.92
3720.19
3752.25
3783.74
3814.25
3843.38
3870.7
3895.79
3918.24
3937.68
3953.76
3966.19
3974.72
3979.19
3979.45
3975.52
3967.48
3955.36
3939.39
3919.82
3896.97
3871.2
3842.93
3812.58
3780.63
3747.52
3713.7
3679.63
3645.7
3612.3
3579.75
3548.34
3518.3
3489.84
3463.07
3438.1
3414.98
3393.73
3374.35
3356.79
3341.01
3326.93
3314.49
3303.6
3294.21
3286.24
3279.63
3274.34
3270.32
3267.51
3265.89
3265.44
3266.15
3267.99
3270.97
3275.11
3280.44
3286.99
3294.78
3303.85
3314.24
3325.96
3339.04
3353.51
3369.4
3386.73
3405.52
3425.79
3447.52
3470.71
3495.31
3521.25
3548.45
3576.77
3606.06
3636.11
3666.7
3697.55
3728.38
3758.85
3788.64
3817.35
3844.61
3870.01
3893.17
3913.68
3931.19
3945.38
3955.95
3962.68
3965.41
3964.01
3958.56
3949.08
3935.68
3918.61
3898.16
3874.67
3848.51
3820.13
3789.96
3758.47
3726.12
3693.38
3660.64
3628.29
3596.44
3563.25
3532.06
3502.39
3474.3
3447.84
3423.1
3400.1
3378.84
3359.35
3341.59
3325.54
3311.19
3298.49
3287.41
3277.92
3269.99
3263.6
3258.73
3255.32
3253.38
3252.98
3253.68
3255.72
3259.13
3263.94
3270.19
3277.96
3287.31
3298.27
3310.93
3325.32
3341.48
3359.43
3379.2
3400.76
3424.11
3449.2
3475.95
3504.26
3533.95
3564.68
3596.52
3629.19
3662.36
3695.74
3728.94
3761.57
3793.28
3823.67
3852.35
3878.93
3903.05
3924.37
3942.58
3957.4
3968.6
3976.04
3979.6
3979.2
3974.89
3966.76
3954.9
3939.55
3920.95
3899.39
3875.2
3848.73
3820.37
3790.6
3759.87
3728.73
3156.89
3150.88
3146.28
3143.09
3141.33
3141.01
3142.09
3144.64
3148.65
3154.13
3161.14
3169.7
3179.87
3191.69
3205.23
3220.54
3237.67
3256.64
3277.48
3300.19
3324.75
3351.1
3379.2
3408.92
3440.13
3472.65
3506.18
3540.52
3575.4
3610.41
3645.15
3679.26
3712.29
3743.84
3773.47
3800.76
3825.33
3846.84
3864.97
3879.45
3890.07
3896.7
3899.22
3897.24
3891.2
3881.14
3867.19
3849.59
3828.6
3804.48
3777.62
3748.39
3717.18
3684.4
3650.47
3615.8
3580.79
3545.82
3511.27
3477.63
3444.8
3413.16
3382.94
3354.28
3327.32
3302.15
3278.81
3257.35
3237.75
3220.02
3204.14
3190.04
3177.7
3167.07
3158.13
3150.84
3145.17
3141.09
3138.6
3137.71
3138.43
3140.73
3144.62
3150.12
3157.25
3165.99
3176.35
3188.32
3201.89
3217.07
3233.85
3252.23
3272.2
3293.76
3316.91
3341.63
3367.87
3395.58
3424.66
3454.98
3486.39
3518.69
3551.57
3584.78
3618.02
3650.94
3683.21
3714.45
3744.29
3772.36
3798.28
3821.71
3842.3
3859.74
3873.74
3884.06
3890.51
3892.91
3891.16
3885.31
3875.39
3861.47
3843.75
3822.49
3797.99
3770.61
3740.75
3708.84
3675.31
3640.62
3605.22
3569.55
3534.03
3499.04
3464.93
3432.01
3400.55
3370.76
3342.83
3316.86
3292.94
3271.12
3251.4
3233.74
3218.11
3204.42
3192.61
3182.57
3174.22
3167.47
3162.25
3158.46
3156.05
3154.96
3155.15
3156.56
3159.18
3163.01
3168.04
3174.29
3181.8
3190.59
3200.69
3212.15
3224.99
3239.27
3255.02
3272.26
3291.03
3311.34
3333.2
3356.6
3381.51
3407.87
3435.6
3464.59
3494.7
3525.76
3557.51
3589.7
3622.03
3654.15
3685.7
3716.28
3745.49
3772.88
3798.04
3820.57
3840.07
3856.21
3868.68
3877.25
3881.73
3882.01
3878.06
3869.99
3857.84
3841.82
3822.19
3799.26
3773.42
3745.07
3714.64
3682.61
3649.42
3615.54
3581.4
3547.42
3513.97
3481.38
3449.94
3419.89
3391.4
3364.63
3339.66
3316.54
3295.31
3275.93
3258.39
3242.62
3228.56
3216.13
3205.25
3195.87
3187.91
3181.32
3176.04
3172.02
3169.22
3167.6
3167.16
3167.87
3169.7
3172.68
3176.82
3182.15
3188.69
3196.47
3205.54
3215.91
3227.63
3240.71
3255.17
3271.05
3288.38
3307.16
3327.43
3349.16
3372.35
3396.95
3422.9
3450.11
3478.46
3507.77
3537.85
3568.48
3599.38
3630.25
3660.79
3690.63
3719.41
3746.73
3772.21
3795.43
3816.02
3833.59
3847.83
3858.44
3865.2
3867.94
3866.56
3861.08
3851.58
3838.14
3821.02
3800.5
3776.94
3750.71
3722.25
3692.01
3660.45
3628.03
3595.22
3562.42
3530.01
3498.12
3464.91
3433.69
3404
3375.89
3349.42
3324.68
3301.68
3280.44
3260.95
3243.2
3227.16
3212.82
3200.12
3189.05
3179.57
3171.64
3165.26
3160.39
3156.98
3155.04
3154.66
3155.35
3157.38
3160.78
3165.59
3171.83
3179.59
3188.94
3199.89
3212.54
3226.92
3243.07
3261.02
3280.78
3302.34
3325.69
3350.78
3377.54
3405.86
3435.58
3466.33
3498.21
3530.91
3564.13
3597.57
3630.82
3663.52
3695.3
3725.75
3754.5
3781.15
3805.33
3826.72
3844.98
3859.84
3871.08
3878.54
3882.11
3881.71
3877.38
3869.22
3857.33
3841.92
3823.27
3801.65
3777.39
3750.85
3722.43
3692.59
3661.79
3630.61
3058.5
3052.49
3047.9
3044.71
3042.96
3042.62
3043.7
3046.25
3050.25
3055.73
3062.73
3071.28
3081.43
3093.24
3106.77
3122.06
3139.18
3158.14
3178.97
3201.68
3226.24
3252.59
3280.7
3310.44
3341.67
3374.22
3407.8
3442.19
3477.14
3512.23
3547.05
3581.24
3614.36
3646
3675.73
3703.1
3727.76
3749.35
3767.54
3782.08
3792.75
3799.4
3801.95
3799.95
3793.88
3783.78
3769.77
3752.11
3731.04
3706.84
3679.89
3650.57
3619.26
3586.4
3552.38
3517.63
3482.55
3447.52
3412.91
3379.22
3346.35
3314.69
3284.44
3255.77
3228.8
3203.63
3180.3
3158.84
3139.25
3121.54
3105.66
3091.58
3079.25
3068.63
3059.7
3052.42
3046.75
3042.68
3040.18
3039.3
3040.01
3042.31
3046.2
3051.7
3058.82
3067.56
3077.92
3089.89
3103.46
3118.63
3135.41
3153.78
3173.74
3195.3
3218.44
3243.16
3269.4
3297.12
3326.22
3356.57
3388.01
3420.36
3453.29
3486.55
3519.85
3552.85
3585.19
3616.51
3646.44
3674.59
3700.59
3724.1
3744.77
3762.28
3776.34
3786.71
3793.18
3795.61
3793.87
3788
3778.04
3764.07
3746.29
3724.95
3700.37
3672.9
3642.94
3610.93
3577.3
3542.52
3507.04
3471.29
3435.69
3400.63
3366.47
3333.51
3302.02
3272.22
3244.26
3218.29
3194.38
3172.56
3152.85
3135.21
3119.6
3105.94
3094.14
3084.12
3075.79
3069.07
3063.85
3060.08
3057.68
3056.6
3056.8
3058.22
3060.84
3064.66
3069.69
3075.94
3083.44
3092.22
3102.31
3113.76
3126.59
3140.86
3156.59
3173.83
3192.59
3212.89
3234.75
3258.15
3283.06
3309.43
3337.17
3366.18
3396.32
3427.42
3459.22
3491.46
3523.85
3556.04
3587.68
3618.35
3647.64
3675.13
3700.38
3723
3742.58
3758.79
3771.32
3779.93
3784.44
3784.73
3780.77
3772.67
3760.47
3744.38
3724.67
3701.66
3675.72
3647.27
3616.74
3584.61
3551.33
3517.37
3483.15
3449.09
3415.59
3382.95
3351.47
3321.39
3292.89
3266.11
3241.14
3218.03
3196.8
3177.44
3159.91
3144.16
3130.11
3117.7
3106.85
3097.48
3089.53
3082.95
3077.68
3073.67
3070.88
3069.27
3068.83
3069.54
3071.37
3074.35
3078.48
3083.8
3090.33
3098.11
3107.17
3117.54
3129.24
3142.31
3156.77
3172.64
3189.96
3208.74
3229
3250.73
3273.92
3298.53
3324.49
3351.72
3380.08
3409.43
3439.56
3470.23
3501.18
3532.12
3562.72
3592.64
3621.51
3648.92
3674.48
3697.79
3718.46
3736.11
3750.42
3761.08
3767.88
3770.64
3769.27
3763.77
3754.23
3740.74
3723.55
3702.96
3679.31
3652.99
3624.44
3594.1
3562.45
3529.94
3497.05
3464.18
3431.7
3399.75
3366.51
3335.25
3305.53
3277.41
3250.93
3226.19
3203.19
3181.96
3162.48
3144.74
3128.71
3114.37
3101.69
3090.63
3081.15
3073.24
3066.85
3061.98
3058.57
3056.65
3056.27
3056.96
3058.98
3062.38
3067.18
3073.41
3081.17
3090.5
3101.44
3114.08
3128.45
3144.59
3162.53
3182.28
3203.84
3227.19
3252.29
3279.06
3307.39
3337.13
3367.92
3399.84
3432.59
3465.87
3499.37
3532.7
3565.48
3597.33
3627.87
3656.7
3683.45
3707.71
3729.17
3747.51
3762.43
3773.71
3781.2
3784.78
3784.37
3780.03
3771.82
3759.88
3744.42
3725.7
3703.99
3679.66
3653.03
3624.52
3594.6
3563.73
3532.47
2960.04
2954.05
2949.46
2946.28
2944.53
2944.18
2945.26
2947.81
2951.8
2957.27
2964.25
2972.79
2982.93
2994.72
3008.23
3023.5
3040.6
3059.55
3080.37
3103.08
3127.64
3154
3182.11
3211.87
3243.13
3275.73
3309.36
3343.82
3378.85
3414.02
3448.94
3483.23
3516.46
3548.22
3578.05
3605.53
3630.3
3651.98
3670.26
3684.86
3695.57
3702.26
3704.85
3702.82
3696.71
3686.56
3672.49
3654.75
3633.59
3609.29
3582.24
3552.8
3521.39
3488.42
3454.29
3419.44
3384.28
3349.17
3314.5
3280.75
3247.84
3216.14
3185.87
3157.18
3130.21
3105.03
3081.7
3060.25
3040.68
3022.97
3007.11
2993.04
2980.73
2970.13
2961.2
2953.93
2948.27
2944.2
2941.71
2940.83
2941.54
2943.83
2947.71
2953.21
2960.33
2969.07
2979.42
2991.39
3004.95
3020.13
3036.89
3055.25
3075.21
3096.76
3119.9
3144.61
3170.86
3198.6
3227.72
3258.1
3289.57
3321.98
3354.97
3388.3
3421.67
3454.76
3487.19
3518.61
3548.63
3576.88
3602.99
3626.59
3647.35
3664.94
3679.08
3689.51
3696.02
3698.47
3696.74
3690.85
3680.85
3666.82
3648.96
3627.53
3602.84
3575.26
3545.18
3513.05
3479.31
3444.42
3408.83
3372.98
3337.3
3302.17
3267.95
3234.94
3203.41
3173.58
3145.61
3119.63
3095.72
3073.92
3054.22
3036.6
3021.01
3007.37
2995.6
2985.61
2977.3
2970.6
2965.4
2961.65
2959.27
2958.2
2958.4
2959.82
2962.45
2966.27
2971.29
2977.54
2985.03
2993.79
3003.87
3015.31
3028.13
3042.39
3058.11
3075.33
3094.08
3114.38
3136.23
3159.63
3184.54
3210.92
3238.68
3267.71
3297.88
3329.02
3360.88
3393.19
3425.66
3457.94
3489.67
3520.45
3549.85
3577.45
3602.82
3625.54
3645.22
3661.52
3674.12
3682.78
3687.31
3687.62
3683.65
3675.5
3663.24
3647.08
3627.27
3604.16
3578.1
3549.53
3518.89
3486.64
3453.25
3419.17
3384.86
3350.72
3317.15
3284.46
3252.93
3222.82
3194.3
3167.5
3142.53
3119.42
3098.21
3078.87
3061.36
3045.63
3031.6
3019.21
3008.38
2999.03
2991.1
2984.53
2979.27
2975.28
2972.49
2970.89
2970.46
2971.16
2973
2975.97
2980.1
2985.41
2991.93
2999.7
3008.74
3019.1
3030.8
3043.86
3058.31
3074.17
3091.48
3110.25
3130.5
3152.23
3175.42
3200.04
3226.02
3253.27
3281.66
3311.04
3341.22
3371.95
3402.97
3433.98
3464.67
3494.68
3523.64
3551.16
3576.83
3600.24
3621.01
3638.76
3653.14
3663.87
3670.71
3673.51
3672.14
3666.62
3657.03
3643.48
3626.21
3605.52
3581.77
3555.34
3526.68
3496.23
3464.47
3431.86
3398.87
3365.91
3333.35
3301.33
3268.05
3236.73
3206.99
3178.84
3152.36
3127.62
3104.63
3083.4
3063.93
3046.2
3030.19
3015.86
3003.19
2992.14
2982.68
2974.77
2968.39
2963.51
2960.11
2958.19
2957.82
2958.5
2960.53
2963.92
2968.7
2974.93
2982.67
2991.99
3002.92
3015.55
3029.9
3046.03
3063.96
3083.7
3105.25
3128.6
3153.71
3180.49
3208.85
3238.62
3269.45
3301.41
3334.23
3367.57
3401.15
3434.57
3467.44
3499.4
3530.04
3558.98
3585.82
3610.18
3631.74
3650.16
3665.15
3676.48
3684
3687.59
3687.19
3682.82
3674.57
3662.57
3647.03
3628.23
3606.43
3582
3555.27
3526.66
3496.64
3465.67
3434.33
2861.53
2855.54
2850.97
2847.79
2846.04
2845.69
2846.77
2849.31
2853.29
2858.75
2865.72
2874.24
2884.36
2896.13
2909.62
2924.87
2941.95
2960.89
2981.7
3004.4
3028.95
3055.32
3083.45
3113.23
3144.52
3177.17
3210.86
3245.4
3280.52
3315.8
3350.82
3385.24
3418.59
3450.48
3480.45
3508.06
3532.94
3554.74
3573.1
3587.78
3598.56
3605.28
3607.92
3605.85
3599.7
3589.49
3575.35
3557.52
3536.25
3511.83
3484.65
3455.09
3423.55
3390.45
3356.2
3321.25
3285.98
3250.78
3216.03
3182.21
3149.25
3117.51
3087.21
3058.51
3031.52
3006.34
2983.02
2961.58
2942.02
2924.33
2908.48
2894.43
2882.13
2871.55
2862.64
2855.38
2849.72
2845.65
2843.17
2842.29
2843
2845.28
2849.17
2854.66
2861.78
2870.51
2880.86
2892.82
2906.38
2921.55
2938.31
2956.66
2976.61
2998.15
3021.28
3045.99
3072.25
3100
3129.14
3159.56
3191.08
3223.55
3256.61
3290.02
3323.48
3356.67
3389.21
3420.73
3450.87
3479.24
3505.46
3529.18
3550.05
3567.74
3581.96
3592.45
3599.02
3601.49
3599.77
3593.86
3583.81
3569.71
3551.76
3530.22
3505.41
3477.69
3447.48
3415.21
3381.34
3346.31
3310.6
3274.65
3238.86
3203.65
3169.35
3136.28
3104.71
3074.85
3046.86
3020.88
2996.97
2975.17
2955.5
2937.9
2922.34
2908.73
2896.99
2887.03
2878.75
2872.07
2866.9
2863.17
2860.8
2859.75
2859.95
2861.39
2864.01
2867.83
2872.85
2879.08
2886.56
2895.32
2905.38
2916.8
2929.61
2943.85
2959.56
2976.76
2995.5
3015.79
3037.64
3061.03
3085.95
3112.34
3140.12
3169.18
3199.39
3230.58
3262.51
3294.9
3327.45
3359.83
3391.68
3422.58
3452.11
3479.84
3505.34
3528.18
3547.98
3564.38
3577.06
3585.78
3590.36
3590.67
3586.69
3578.49
3566.16
3549.91
3530
3506.75
3480.56
3451.85
3421.07
3388.68
3355.16
3320.97
3286.54
3252.31
3218.65
3185.89
3154.32
3124.17
3095.62
3068.81
3043.84
3020.74
2999.54
2980.21
2962.73
2947.02
2933.03
2920.66
2909.85
2900.52
2892.61
2886.06
2880.82
2876.83
2874.06
2872.47
2872.04
2872.74
2874.57
2877.54
2881.66
2886.96
2893.47
2901.23
2910.27
2920.62
2932.3
2945.35
2959.79
2975.64
2992.94
3011.7
3031.94
3053.67
3076.86
3101.48
3127.48
3154.75
3183.18
3212.61
3242.84
3273.64
3304.73
3335.84
3366.62
3396.74
3425.82
3453.46
3479.25
3502.79
3523.67
3541.53
3556.01
3566.81
3573.71
3576.53
3575.17
3569.63
3559.98
3546.36
3529
3508.2
3484.32
3457.77
3428.97
3398.4
3366.5
3333.77
3300.67
3267.6
3234.95
3202.85
3169.52
3138.15
3108.37
3080.2
3053.71
3028.96
3005.98
2984.76
2965.31
2947.59
2931.6
2917.29
2904.63
2893.59
2884.14
2876.23
2869.86
2864.99
2861.59
2859.68
2859.3
2859.99
2862.01
2865.39
2870.17
2876.38
2884.11
2893.41
2904.33
2916.94
2931.28
2947.39
2965.31
2985.04
3006.59
3029.94
3055.05
3081.85
3110.23
3140.03
3170.92
3202.93
3235.81
3269.24
3302.91
3336.44
3369.42
3401.49
3432.25
3461.31
3488.27
3512.76
3534.42
3552.94
3568
3579.4
3586.96
3590.57
3590.15
3585.76
3577.45
3565.38
3549.76
3530.86
3508.96
3484.41
3457.56
3428.83
3398.7
3367.62
3336.18
2762.95
2756.98
2752.42
2749.25
2747.49
2747.14
2748.22
2750.75
2754.72
2760.17
2767.12
2775.62
2785.72
2797.47
2810.93
2826.17
2843.23
2862.14
2882.94
2905.63
2930.19
2956.56
2984.7
3014.51
3045.84
3078.53
3112.31
3146.94
3182.16
3217.56
3252.71
3287.25
3320.76
3352.79
3382.91
3410.67
3435.69
3457.61
3476.09
3490.85
3501.69
3508.47
3511.13
3509.03
3502.84
3492.57
3478.34
3460.41
3439.02
3414.47
3387.15
3357.43
3325.74
3292.5
3258.12
3223.03
3187.65
3152.35
3117.51
3083.61
3050.59
3018.81
2988.47
2959.75
2932.75
2907.57
2884.25
2862.82
2843.28
2825.61
2809.78
2795.75
2783.47
2772.91
2764.01
2756.76
2751.11
2747.05
2744.57
2743.69
2744.39
2746.68
2750.56
2756.05
2763.16
2771.89
2782.24
2794.19
2807.75
2822.9
2839.65
2858
2877.93
2899.46
2922.59
2947.3
2973.57
3001.33
3030.5
3060.96
3092.52
3125.08
3158.21
3191.71
3225.28
3258.57
3291.24
3322.89
3353.16
3381.67
3408.02
3431.87
3452.86
3470.66
3484.98
3495.55
3502.17
3504.68
3502.97
3497.04
3486.92
3472.74
3454.69
3433.03
3408.07
3380.21
3349.84
3317.41
3283.38
3248.21
3212.36
3176.27
3140.38
3105.06
3070.68
3037.55
3005.93
2976.03
2948.02
2922.03
2898.12
2876.34
2856.69
2839.12
2823.59
2810.01
2798.31
2788.38
2780.13
2773.48
2768.34
2764.63
2762.28
2761.24
2761.46
2762.9
2765.53
2769.34
2774.35
2780.58
2788.05
2796.79
2806.84
2818.24
2831.03
2845.25
2860.94
2878.14
2896.86
2917.13
2938.97
2962.37
2987.29
3013.69
3041.49
3070.59
3100.84
3132.09
3164.1
3196.57
3229.23
3261.73
3293.7
3324.74
3354.42
3382.3
3407.95
3430.94
3450.87
3467.38
3480.16
3488.95
3493.56
3493.89
3489.89
3481.64
3469.24
3452.88
3432.84
3409.45
3383.11
3354.23
3323.29
3290.75
3257.08
3222.74
3188.19
3153.85
3120.1
3087.26
3055.62
3025.43
2996.86
2970.04
2945.06
2921.97
2900.78
2881.48
2864.02
2848.35
2834.38
2822.04
2811.26
2801.95
2794.07
2787.54
2782.31
2778.34
2775.58
2774
2773.58
2774.28
2776.11
2779.07
2783.18
2788.47
2794.97
2802.71
2811.74
2822.07
2833.75
2846.79
2861.21
2877.05
2894.33
2913.08
2933.32
2955.04
2978.23
3002.87
3028.88
3056.18
3084.65
3114.12
3144.42
3175.3
3206.48
3237.68
3268.58
3298.83
3328.03
3355.81
3381.74
3405.42
3426.44
3444.42
3459.01
3469.91
3476.86
3479.72
3478.36
3472.8
3463.09
3449.38
3431.91
3410.99
3386.97
3360.27
3331.33
3300.6
3268.56
3235.69
3202.45
3169.27
3136.51
3104.31
3070.93
3039.5
3009.67
2981.48
2954.98
2930.23
2907.25
2886.05
2866.61
2848.91
2832.93
2818.64
2806
2794.97
2785.53
2777.64
2771.28
2766.41
2763.01
2761.1
2760.72
2761.41
2763.43
2766.8
2771.57
2777.77
2785.49
2794.77
2805.67
2818.26
2832.59
2848.68
2866.58
2886.31
2907.85
2931.2
2956.31
2983.13
3011.53
3041.37
3072.32
3104.4
3137.35
3170.87
3204.65
3238.3
3271.41
3303.61
3334.5
3363.7
3390.8
3415.42
3437.21
3455.84
3471
3482.47
3490.07
3493.69
3493.28
3488.85
3480.48
3468.33
3452.61
3433.6
3411.57
3386.89
3359.91
3331.04
3300.78
3269.58
3238.02
2664.32
2658.37
2653.81
2650.65
2648.9
2648.54
2649.61
2652.13
2656.1
2661.53
2668.46
2676.94
2687.02
2698.74
2712.17
2727.38
2744.42
2763.31
2784.09
2806.78
2831.34
2857.72
2885.87
2915.71
2947.08
2979.83
3013.69
3048.42
3083.77
3119.29
3154.59
3189.29
3222.95
3255.16
3285.45
3313.37
3338.55
3360.61
3379.21
3394.07
3404.99
3411.8
3414.47
3412.38
3406.15
3395.8
3381.48
3363.42
3341.89
3317.19
3289.71
3259.83
3227.98
3194.57
3160.03
3124.8
3089.29
3053.87
3018.93
2984.95
2951.87
2920.03
2889.66
2860.91
2833.9
2808.71
2785.4
2763.98
2744.46
2726.81
2711.01
2697
2684.74
2674.2
2665.32
2658.08
2652.44
2648.38
2645.91
2645.03
2645.73
2648.01
2651.88
2657.37
2664.48
2673.2
2683.55
2695.49
2709.04
2724.19
2740.93
2759.26
2779.18
2800.71
2823.83
2848.54
2874.81
2902.59
2931.79
2962.29
2993.91
3026.56
3059.77
3093.38
3127.06
3160.48
3193.28
3225.09
3255.51
3284.16
3310.67
3334.66
3355.79
3373.71
3388.14
3398.81
3405.49
3408.03
3406.33
3400.37
3390.2
3375.92
3357.75
3335.95
3310.84
3282.8
3252.26
3219.65
3185.44
3150.1
3114.09
3077.86
3041.84
3006.42
2971.94
2938.73
2907.05
2877.11
2849.08
2823.08
2799.18
2777.42
2757.78
2740.25
2724.75
2711.22
2699.55
2689.66
2681.45
2674.83
2669.72
2666.03
2663.71
2662.69
2662.92
2664.36
2667
2670.81
2675.81
2682.03
2689.48
2698.2
2708.24
2719.62
2732.39
2746.6
2762.27
2779.44
2798.15
2818.41
2840.24
2863.63
2888.56
2914.98
2942.8
2971.94
3002.24
3033.55
3065.64
3098.21
3130.98
3163.62
3195.74
3226.93
3256.78
3284.83
3310.65
3333.8
3353.88
3370.53
3383.41
3392.28
3396.94
3397.28
3393.26
3384.95
3372.46
3355.98
3335.8
3312.25
3285.73
3256.68
3225.55
3192.83
3158.99
3124.5
3089.81
3055.34
3021.49
2988.56
2956.86
2926.62
2898.01
2871.18
2846.2
2823.12
2801.95
2782.67
2765.24
2749.6
2735.66
2723.36
2712.61
2703.33
2695.47
2688.96
2683.75
2679.8
2677.06
2675.49
2675.07
2675.77
2677.6
2680.56
2684.66
2689.93
2696.42
2704.14
2713.15
2723.48
2735.14
2748.16
2762.57
2778.39
2795.66
2814.4
2834.62
2856.34
2879.54
2904.18
2930.21
2957.54
2986.06
3015.59
3045.96
3076.92
3108.21
3139.52
3170.55
3200.93
3230.29
3258.22
3284.31
3308.15
3329.32
3347.44
3362.15
3373.15
3380.18
3383.08
3381.72
3376.13
3366.36
3352.55
3334.95
3313.89
3289.72
3262.85
3233.74
3202.84
3170.63
3137.6
3104.22
3070.91
3038.03
3005.72
2972.27
2940.77
2910.9
2882.68
2856.16
2831.42
2808.45
2787.26
2767.84
2750.16
2734.2
2719.92
2707.3
2696.29
2686.87
2678.99
2672.63
2667.77
2664.38
2662.47
2662.08
2662.78
2664.79
2668.16
2672.91
2679.1
2686.79
2696.06
2706.94
2719.51
2733.81
2749.89
2767.78
2787.49
2809.02
2832.37
2857.5
2884.32
2912.76
2942.65
2973.67
3005.81
3038.85
3072.47
3106.37
3140.15
3173.4
3205.76
3236.8
3266.15
3293.41
3318.18
3340.12
3358.87
3374.14
3385.68
3393.33
3396.98
3396.55
3392.09
3383.66
3371.41
3355.59
3336.44
3314.27
3289.44
3262.31
3233.29
3202.88
3171.54
3139.85
2565.63
2559.69
2555.15
2551.99
2550.24
2549.88
2550.95
2553.46
2557.41
2562.83
2569.74
2578.19
2588.24
2599.94
2613.34
2628.52
2645.53
2664.4
2685.17
2707.84
2732.4
2758.79
2786.96
2816.83
2848.24
2881.06
2915.01
2949.86
2985.34
3021.01
3056.46
3091.33
3125.18
3157.57
3188.05
3216.16
3241.51
3263.73
3282.47
3297.44
3308.44
3315.3
3317.98
3315.89
3309.61
3299.18
3284.75
3266.56
3244.88
3220.01
3192.35
3162.28
3130.24
3096.66
3061.95
3026.55
2990.9
2955.35
2920.3
2886.22
2853.06
2821.17
2790.76
2761.98
2734.96
2709.77
2686.47
2665.06
2645.56
2627.93
2612.16
2598.17
2585.94
2575.42
2566.56
2559.33
2553.7
2549.65
2547.18
2546.3
2547
2549.27
2553.15
2558.63
2565.73
2574.45
2584.79
2596.73
2610.28
2625.41
2642.14
2660.46
2680.37
2701.87
2724.99
2749.69
2775.97
2803.78
2833.01
2863.56
2895.24
2927.99
2961.29
2995.01
3028.83
3062.39
3095.35
3127.31
3157.9
3186.72
3213.39
3237.55
3258.83
3276.9
3291.45
3302.22
3308.97
3311.55
3309.85
3303.86
3293.62
3279.25
3260.95
3238.98
3213.7
3185.47