/*--------------------------------*- C++ -*----------------------------------*\
| =========                 |                                                 |
| \\      /  F ield         | OpenFOAM: The Open Source CFD Toolbox           |
|  \\    /   O peration     | Version:  3.0.1                                 |
|   \\  /    A nd           | Web:      www.OpenFOAM.org                      |
|    \\/     M anipulation  |                                                 |
\*---------------------------------------------------------------------------*/
FoamFile
{
    version     2.0;
    format      ascii;
    class       volVectorField;
    location    "48.2";
    object      U;
}
// * * * * * * * * * * * * * * * * * * * * * * * * * * * * * * * * * * * * * //

dimensions      [0 1 -1 0 0 0 0];

internalField   nonuniform List<vector> 
21420
(
(-0.021855 0.001694 0)
(-0.0363142 0.00160233 0)
(-0.0519779 0.00152476 0)
(-0.0668222 0.00143918 0)
(-0.0807576 0.00133502 0)
(-0.0937395 0.00124293 0)
(-0.105751 0.00113929 0)
(-0.116788 0.00104658 0)
(-0.126864 0.000953878 0)
(-0.135994 0.000857584 0)
(-0.144202 0.000769373 0)
(-0.151518 0.000683117 0)
(-0.157969 0.000597229 0)
(-0.163585 0.000516701 0)
(-0.168396 0.000437382 0)
(-0.172429 0.000361899 0)
(-0.175706 0.000288144 0)
(-0.178253 0.000215408 0)
(-0.180094 0.000143687 0)
(-0.181197 7.59309e-05 0)
(-0.181625 8.59919e-06 0)
(-0.181349 -6.21239e-05 0)
(-0.180362 -0.000133313 0)
(-0.178662 -0.000205073 0)
(-0.176234 -0.000278253 0)
(-0.173058 -0.000354266 0)
(-0.169114 -0.000431257 0)
(-0.164372 -0.000510956 0)
(-0.158801 -0.00059641 0)
(-0.152374 -0.000681636 0)
(-0.145055 -0.000769357 0)
(-0.136813 -0.000867084 0)
(-0.127619 -0.000959582 0)
(-0.117442 -0.00106425 0)
(-0.106273 -0.001159 0)
(-0.0940915 -0.00125276 0)
(-0.0808761 -0.00136363 0)
(-0.066653 -0.00145335 0)
(-0.0514685 -0.0015364 0)
(-0.0352853 -0.00164146 0)
(-0.0180912 -0.00170528 0)
(-0.000556923 -0.0017999 0)
(0.0174183 -0.00184323 0)
(0.0361421 -0.00186582 0)
(0.0551484 -0.00190466 0)
(0.0742782 -0.00189341 0)
(0.0932709 -0.00185489 0)
(0.111873 -0.00181958 0)
(0.129858 -0.00173741 0)
(0.146937 -0.00162616 0)
(0.162842 -0.00150586 0)
(0.177304 -0.00134675 0)
(0.19008 -0.00117163 0)
(0.200947 -0.000976553 0)
(0.209711 -0.000754996 0)
(0.216222 -0.000531525 0)
(0.220372 -0.000292028 0)
(0.222068 -4.59471e-05 0)
(0.221419 0.000186743 0)
(0.218195 0.000438526 0)
(0.212636 0.000655757 0)
(0.204838 0.000876 0)
(0.194942 0.00108554 0)
(0.183054 0.00126085 0)
(0.16942 0.00142876 0)
(0.154311 0.00157471 0)
(0.137867 0.0016809 0)
(0.120408 0.00177318 0)
(0.102168 0.00183055 0)
(0.0833723 0.00187359 0)
(0.0643694 0.00188956 0)
(0.045329 0.00188152 0)
(0.0263837 0.00185602 0)
(0.00786889 0.00181127 0)
(-0.0100906 0.00175224 0)
(-0.0274301 0.00168264 0)
(-0.043996 0.00159919 0)
(-0.0597956 0.00151964 0)
(-0.0746757 0.00142627 0)
(-0.0885601 0.00133753 0)
(-0.101608 0.00123782 0)
(-0.113645 0.00114281 0)
(-0.124654 0.00104875 0)
(-0.134769 0.000950013 0)
(-0.143871 0.000847066 0)
(-0.151946 0.000760194 0)
(-0.159074 0.000657809 0)
(-0.165204 0.000556278 0)
(-0.170362 0.000465749 0)
(-0.174579 0.000370442 0)
(-0.177849 0.000286269 0)
(-0.180291 0.000197339 0)
(-0.181906 0.000120382 0)
(-0.182707 5.26041e-05 0)
(-0.182804 -2.49966e-05 0)
(-0.18219 -9.9005e-05 0)
(-0.180869 -0.000159039 0)
(-0.178917 -0.00022741 0)
(-0.176283 -0.000287458 0)
(-0.173033 -0.000353823 0)
(-0.169093 -0.000426185 0)
(-0.164452 -0.000491961 0)
(-0.159118 -0.00056749 0)
(-0.152989 -0.000645774 0)
(-0.146075 -0.000724616 0)
(-0.138336 -0.000809987 0)
(-0.129746 -0.000894116 0)
(-0.120315 -0.000985366 0)
(-0.109959 -0.00106266 0)
(-0.0987177 -0.00115681 0)
(-0.0866226 -0.00124245 0)
(-0.0736362 -0.00132198 0)
(-0.0598623 -0.00140969 0)
(-0.0453035 -0.0014801 0)
(-0.0300224 -0.00155042 0)
(-0.0140594 -0.00160685 0)
(0.00242766 -0.00165786 0)
(0.0193651 -0.00169525 0)
(0.036602 -0.0017259 0)
(0.0540472 -0.00173074 0)
(0.0714986 -0.00173079 0)
(0.0888203 -0.00170535 0)
(0.105806 -0.00166222 0)
(0.122243 -0.00159337 0)
(0.137919 -0.00150672 0)
(0.152576 -0.00139856 0)
(0.166008 -0.00126334 0)
(0.177953 -0.00110613 0)
(0.188189 -0.000918562 0)
(0.196484 -0.000722181 0)
(0.202671 -0.000505375 0)
(0.206616 -0.000274947 0)
(0.208191 -4.00863e-05 0)
(0.207409 0.000199336 0)
(0.204084 0.000445113 0)
(0.198409 0.0006762 0)
(0.190443 0.000897908 0)
(0.180323 0.00111361 0)
(0.168173 0.00129508 0)
(0.154228 0.00146326 0)
(0.138763 0.0016048 0)
(0.12199 0.00171932 0)
(0.104184 0.00180603 0)
(0.0856654 0.00186615 0)
(0.0666431 0.0019058 0)
(0.0473809 0.00191506 0)
(0.0281347 0.0019114 0)
(0.00909941 0.00186553 0)
(-0.00946584 0.00181342 0)
(-0.0273591 0.00174409 0)
(-0.0444894 0.00165846 0)
(-0.0607125 0.0015619 0)
(-0.075925 0.00146028 0)
(-0.0901078 0.0013538 0)
(-0.103174 0.00124297 0)
(-0.115128 0.00113052 0)
(-0.126014 0.00102644 0)
(-0.135815 0.000919277 0)
(-0.144581 0.000821824 0)
(-0.152377 0.000724553 0)
(-0.159197 0.000631446 0)
(-0.165118 0.000547242 0)
(-0.170225 0.000464972 0)
(-0.174491 0.00038313 0)
(-0.177977 0.000311973 0)
(-0.180748 0.000238962 0)
(-0.18283 0.000171726 0)
(-0.184247 0.000110235 0)
(-0.185013 4.2512e-05 0)
(-0.185143 -1.1826e-05 0)
(-0.184639 -8.37795e-05 0)
(-0.183498 -0.000140877 0)
(-0.181747 -0.000196298 0)
(-0.179445 -0.000256337 0)
(-0.17652 -0.000317734 0)
(-0.173026 -0.000376219 0)
(-0.168934 -0.000433264 0)
(-0.164249 -0.000499999 0)
(-0.158928 -0.000549026 0)
(-0.152951 -0.000623715 0)
(-0.146309 -0.000689205 0)
(-0.138988 -0.000767678 0)
(-0.130888 -0.00083821 0)
(-0.122049 -0.000919916 0)
(-0.112408 -0.000993181 0)
(-0.101924 -0.00107305 0)
(-0.0906807 -0.0011596 0)
(-0.0785857 -0.00123381 0)
(-0.0657123 -0.00131686 0)
(-0.0520852 -0.00139411 0)
(-0.0376822 -0.0014647 0)
(-0.0225192 -0.00153183 0)
(-0.00673741 -0.00159563 0)
(0.00962389 -0.00164673 0)
(0.0264219 -0.00168322 0)
(0.043515 -0.00170388 0)
(0.0606998 -0.00169741 0)
(0.0777197 -0.00168036 0)
(0.0943895 -0.00162332 0)
(0.110405 -0.00155207 0)
(0.125566 -0.00145112 0)
(0.139605 -0.00133248 0)
(0.152307 -0.00118933 0)
(0.163428 -0.00101453 0)
(0.172738 -0.000827288 0)
(0.180039 -0.000616825 0)
(0.185114 -0.000386519 0)
(0.187834 -0.000147851 0)
(0.188146 8.64161e-05 0)
(0.186007 0.000331202 0)
(0.181395 0.000572372 0)
(0.174493 0.000794039 0)
(0.165387 0.00100771 0)
(0.154266 0.00119551 0)
(0.141338 0.00136392 0)
(0.126835 0.00150564 0)
(0.111082 0.00161431 0)
(0.0943971 0.00169438 0)
(0.0770461 0.00174425 0)
(0.0593216 0.00176673 0)
(0.0415048 0.00176707 0)
(0.0238396 0.00174413 0)
(0.00651601 0.00169345 0)
(-0.0102702 0.00163462 0)
(-0.0263423 0.00156571 0)
(-0.0416779 0.00148075 0)
(-0.0561997 0.00139869 0)
(-0.0698725 0.00131426 0)
(-0.0827306 0.00123792 0)
(-0.0947526 0.00115129 0)
(-0.105958 0.00107076 0)
(-0.116348 0.000988195 0)
(-0.125896 0.000908943 0)
(-0.134646 0.000829319 0)
(-0.142615 0.000752393 0)
(-0.149811 0.000675266 0)
(-0.156271 0.000602163 0)
(-0.161958 0.000531716 0)
(-0.16688 0.000450065 0)
(-0.171096 0.000387116 0)
(-0.174619 0.000314086 0)
(-0.177438 0.000244874 0)
(-0.179577 0.000182649 0)
(-0.181089 0.000118828 0)
(-0.181991 6.19546e-05 0)
(-0.182336 5.69505e-06 0)
(-0.182094 -4.48973e-05 0)
(-0.181337 -0.000101127 0)
(-0.180043 -0.000151587 0)
(-0.178229 -0.000207221 0)
(-0.175886 -0.000266076 0)
(-0.172985 -0.000305317 0)
(-0.169492 -0.000376754 0)
(-0.165404 -0.000434662 0)
(-0.160656 -0.000503779 0)
(-0.15522 -0.000567644 0)
(-0.149161 -0.000637151 0)
(-0.142433 -0.000693603 0)
(-0.135066 -0.00076015 0)
(-0.127132 -0.000816469 0)
(-0.118577 -0.000878836 0)
(-0.109379 -0.000941244 0)
(-0.0995192 -0.00100911 0)
(-0.0889412 -0.00108633 0)
(-0.0775809 -0.00115632 0)
(-0.0654729 -0.00123469 0)
(-0.0526795 -0.00131842 0)
(-0.0390898 -0.00138884 0)
(-0.0246991 -0.00143812 0)
(-0.00972564 -0.00149618 0)
(0.00625764 -0.00156997 0)
(0.0228527 -0.00158998 0)
(0.03947 -0.00160505 0)
(0.056122 -0.00160756 0)
(0.0726603 -0.00158547 0)
(0.0889554 -0.00154097 0)
(0.104708 -0.00149716 0)
(0.119862 -0.00141632 0)
(0.134162 -0.00132684 0)
(0.147411 -0.0012296 0)
(0.159459 -0.00110939 0)
(0.170073 -0.000973129 0)
(0.178963 -0.00081385 0)
(0.185951 -0.000629476 0)
(0.190862 -0.00042905 0)
(0.193427 -0.000204809 0)
(0.193624 3.26102e-05 0)
(0.191589 0.000274187 0)
(0.187209 0.000522963 0)
(0.180683 0.000749138 0)
(0.172004 0.000967853 0)
(0.161242 0.00116909 0)
(0.148694 0.00132734 0)
(0.134592 0.00146646 0)
(0.11922 0.00157734 0)
(0.10296 0.00164405 0)
(0.0861318 0.00169478 0)
(0.0689863 0.00171835 0)
(0.0518785 0.00170721 0)
(0.0350414 0.0016877 0)
(0.0186811 0.00164029 0)
(0.001475 0.00158955 0)
(-0.0158466 0.00151749 0)
(-0.031596 0.00143078 0)
(-0.0462714 0.00134664 0)
(-0.0598998 0.00125787 0)
(-0.0724794 0.00116227 0)
(-0.0840285 0.00107091 0)
(-0.0945672 0.000976255 0)
(-0.104119 0.000886898 0)
(-0.112724 0.000799224 0)
(-0.12041 0.000712621 0)
(-0.12722 0.000631035 0)
(-0.133199 0.000552748 0)
(-0.138388 0.000477465 0)
(-0.142828 0.000406869 0)
(-0.14656 0.00033902 0)
(-0.149621 0.000274484 0)
(-0.152041 0.000212941 0)
(-0.153848 0.000153934 0)
(-0.155062 9.61237e-05 0)
(-0.155706 4.15044e-05 0)
(-0.15582 -1.01751e-05 0)
(-0.155395 -6.1611e-05 0)
(-0.154477 -0.000111798 0)
(-0.153066 -0.000163952 0)
(-0.151138 -0.000214652 0)
(-0.148689 -0.000268618 0)
(-0.145714 -0.000322079 0)
(-0.142185 -0.000377408 0)
(-0.138086 -0.000436056 0)
(-0.133396 -0.000495336 0)
(-0.128085 -0.000557197 0)
(-0.122123 -0.000624917 0)
(-0.115482 -0.000692431 0)
(-0.108129 -0.000767444 0)
(-0.100034 -0.000840656 0)
(-0.0911691 -0.000915998 0)
(-0.0815043 -0.00100124 0)
(-0.0710194 -0.00107996 0)
(-0.0597039 -0.00115846 0)
(-0.0475498 -0.00124893 0)
(-0.0345646 -0.00132502 0)
(-0.0207411 -0.00141363 0)
(-0.00616502 -0.00148154 0)
(0.00906726 -0.00154025 0)
(0.0249443 -0.00161344 0)
(0.0413882 -0.00165316 0)
(0.0582554 -0.00167831 0)
(0.0754084 -0.00171634 0)
(0.0926853 -0.00170915 0)
(0.109904 -0.00171198 0)
(0.126866 -0.0016653 0)
(0.143349 -0.00159671 0)
(0.159137 -0.00153243 0)
(0.173993 -0.00142003 0)
(0.18903 -0.0012885 0)
(-0.0218845 0.00508242 0)
(-0.0363457 0.0048073 0)
(-0.0520124 0.00457452 0)
(-0.0668589 0.00431769 0)
(-0.0807949 0.00400513 0)
(-0.0937776 0.00372883 0)
(-0.105788 0.00341787 0)
(-0.116826 0.00313971 0)
(-0.126901 0.00286156 0)
(-0.13603 0.00257265 0)
(-0.144237 0.00230799 0)
(-0.151552 0.0020492 0)
(-0.158001 0.0017915 0)
(-0.163617 0.00154989 0)
(-0.168427 0.00131191 0)
(-0.172458 0.00108543 0)
(-0.175735 0.000864141 0)
(-0.178281 0.000646055 0)
(-0.180121 0.000431089 0)
(-0.181226 0.000227072 0)
(-0.181653 2.54873e-05 0)
(-0.181377 -0.000186651 0)
(-0.18039 -0.000400148 0)
(-0.178691 -0.000615363 0)
(-0.176264 -0.000834747 0)
(-0.173089 -0.00106279 0)
(-0.169146 -0.00129373 0)
(-0.164405 -0.00153278 0)
(-0.158836 -0.00178911 0)
(-0.152411 -0.00204477 0)
(-0.145093 -0.00230793 0)
(-0.136852 -0.00260111 0)
(-0.127659 -0.00287859 0)
(-0.117484 -0.00319265 0)
(-0.106316 -0.00347694 0)
(-0.0941345 -0.00375824 0)
(-0.0809197 -0.00409096 0)
(-0.0666958 -0.00436032 0)
(-0.0515096 -0.00460932 0)
(-0.0353239 -0.00492452 0)
(-0.0181274 -0.00511657 0)
(-0.000589507 -0.00539998 0)
(0.0173927 -0.00553015 0)
(0.0361227 -0.00559825 0)
(0.055137 -0.0057151 0)
(0.0742757 -0.00568076 0)
(0.0932765 -0.00556653 0)
(0.111891 -0.00546015 0)
(0.129886 -0.00521278 0)
(0.146976 -0.00488021 0)
(0.162894 -0.0045191 0)
(0.177368 -0.00403884 0)
(0.190149 -0.00352181 0)
(0.201034 -0.00292922 0)
(0.209805 -0.00226376 0)
(0.216322 -0.00159181 0)
(0.220476 -0.000883747 0)
(0.222186 -0.000136614 0)
(0.221527 0.000559974 0)
(0.218301 0.00131515 0)
(0.212746 0.00196698 0)
(0.204946 0.00262822 0)
(0.195044 0.0032574 0)
(0.18315 0.00378269 0)
(0.169506 0.00428805 0)
(0.154386 0.00472498 0)
(0.137931 0.00504425 0)
(0.120459 0.00532084 0)
(0.102207 0.00549374 0)
(0.0833989 0.00562089 0)
(0.0643846 0.0056722 0)
(0.0453315 0.00564502 0)
(0.0263769 0.00556967 0)
(0.00785107 0.00543403 0)
(-0.0101174 0.00525673 0)
(-0.027464 0.00504693 0)
(-0.0440314 0.00480006 0)
(-0.0598351 0.00456397 0)
(-0.0747242 0.00427718 0)
(-0.0886118 0.00401266 0)
(-0.101661 0.00371252 0)
(-0.113694 0.00342773 0)
(-0.124706 0.00315069 0)
(-0.134824 0.00284502 0)
(-0.143922 0.00254708 0)
(-0.152009 0.00227362 0)
(-0.15913 0.00196963 0)
(-0.165256 0.00167759 0)
(-0.170422 0.00139237 0)
(-0.174629 0.00110437 0)
(-0.177903 0.00085986 0)
(-0.180351 0.000592667 0)
(-0.181969 0.000351836 0)
(-0.18277 0.000148637 0)
(-0.182869 -7.52395e-05 0)
(-0.182244 -0.000292185 0)
(-0.180932 -0.000475691 0)
(-0.178985 -0.000686113 0)
(-0.176361 -0.000881298 0)
(-0.173098 -0.0010633 0)
(-0.169159 -0.00127126 0)
(-0.164529 -0.00148292 0)
(-0.159186 -0.00169721 0)
(-0.15306 -0.00194166 0)
(-0.14614 -0.00216743 0)
(-0.138406 -0.00242838 0)
(-0.129808 -0.00268481 0)
(-0.120368 -0.0029576 0)
(-0.110016 -0.00319076 0)
(-0.0987735 -0.003472 0)
(-0.0866759 -0.00373568 0)
(-0.0736941 -0.00398093 0)
(-0.0598964 -0.00421532 0)
(-0.045354 -0.00445423 0)
(-0.0300456 -0.00464872 0)
(-0.0140935 -0.0048256 0)
(0.00240082 -0.00497696 0)
(0.019336 -0.00509218 0)
(0.0365842 -0.00517308 0)
(0.05403 -0.00519637 0)
(0.0714982 -0.00518993 0)
(0.0888266 -0.00510617 0)
(0.105808 -0.00498995 0)
(0.122252 -0.00479208 0)
(0.137925 -0.00453169 0)
(0.152603 -0.00418986 0)
(0.16604 -0.00378321 0)
(0.177987 -0.00331378 0)
(0.188213 -0.00276843 0)
(0.196521 -0.00216531 0)
(0.202707 -0.00151504 0)
(0.206646 -0.00082398 0)
(0.208218 -0.000128258 0)
(0.207433 0.000595096 0)
(0.204103 0.00134386 0)
(0.198424 0.00202971 0)
(0.190447 0.00270158 0)
(0.1803 0.00332757 0)
(0.16815 0.00387942 0)
(0.154199 0.00439605 0)
(0.138717 0.00481814 0)
(0.121936 0.00515526 0)
(0.104123 0.00542909 0)
(0.0855793 0.00560259 0)
(0.0665476 0.00571217 0)
(0.0472725 0.00573836 0)
(0.0280119 0.00572613 0)
(0.00896863 0.00559208 0)
(-0.00959544 0.00544256 0)
(-0.0274926 0.00523475 0)
(-0.0446279 0.00497118 0)
(-0.060856 0.00468761 0)
(-0.0760793 0.00437825 0)
(-0.0902609 0.00405636 0)
(-0.103324 0.00372534 0)
(-0.115267 0.00339484 0)
(-0.126149 0.00308161 0)
(-0.135949 0.00275816 0)
(-0.144706 0.0024667 0)
(-0.152496 0.00217103 0)
(-0.159314 0.00189388 0)
(-0.165247 0.0016344 0)
(-0.170343 0.00138757 0)
(-0.174597 0.00115499 0)
(-0.178084 0.000933512 0)
(-0.180841 0.000715017 0)
(-0.182922 0.000517464 0)
(-0.184346 0.000327597 0)
(-0.185106 0.00012183 0)
(-0.185228 -3.9506e-05 0)
(-0.184723 -0.000254513 0)
(-0.183576 -0.000417282 0)
(-0.181838 -0.000602181 0)
(-0.179519 -0.000776625 0)
(-0.176591 -0.000952895 0)
(-0.173096 -0.0011308 0)
(-0.168999 -0.00130265 0)
(-0.164316 -0.00150802 0)
(-0.158995 -0.00165381 0)
(-0.153013 -0.00187934 0)
(-0.14637 -0.00207548 0)
(-0.139032 -0.00229589 0)
(-0.130941 -0.00250928 0)
(-0.122102 -0.00275802 0)
(-0.112457 -0.00297409 0)
(-0.10199 -0.0032383 0)
(-0.0907263 -0.00347127 0)
(-0.0786505 -0.00371069 0)
(-0.0657613 -0.00394989 0)
(-0.0521391 -0.00417994 0)
(-0.0377272 -0.00439073 0)
(-0.0225642 -0.00459569 0)
(-0.00678139 -0.00478568 0)
(0.00958352 -0.0049398 0)
(0.0263814 -0.0050531 0)
(0.0434806 -0.00511341 0)
(0.0606579 -0.00510947 0)
(0.0777111 -0.0050242 0)
(0.0943641 -0.00488083 0)
(0.110398 -0.00465359 0)
(0.125555 -0.00436294 0)
(0.139615 -0.0039883 0)
(0.152321 -0.00355646 0)
(0.163438 -0.00305564 0)
(0.172761 -0.00247939 0)
(0.18006 -0.00185168 0)
(0.185133 -0.00116329 0)
(0.187851 -0.000450846 0)
(0.188159 0.000254861 0)
(0.185999 0.000991755 0)
(0.181397 0.0017204 0)
(0.174493 0.00238915 0)
(0.165374 0.00301743 0)
(0.15425 0.00359347 0)
(0.141303 0.0040956 0)
(0.126787 0.00452053 0)
(0.111018 0.00484744 0)
(0.0943187 0.00508136 0)
(0.0769615 0.00523997 0)
(0.0592196 0.00529997 0)
(0.0413882 0.00529423 0)
(0.0237239 0.00523309 0)
(0.00639025 0.005081 0)
(-0.0104016 0.00490319 0)
(-0.0264815 0.00469616 0)
(-0.0418178 0.00444522 0)
(-0.0563427 0.00419366 0)
(-0.07002 0.00393742 0)
(-0.0828687 0.00371601 0)
(-0.0948866 0.00344682 0)
(-0.106086 0.00321225 0)
(-0.116475 0.00296779 0)
(-0.126022 0.00271844 0)
(-0.13477 0.00248438 0)
(-0.142732 0.00225772 0)
(-0.149928 0.00202609 0)
(-0.156389 0.0017954 0)
(-0.162063 0.00159023 0)
(-0.166986 0.001362 0)
(-0.171206 0.00115191 0)
(-0.174716 0.000939062 0)
(-0.177537 0.000743102 0)
(-0.179672 0.000537366 0)
(-0.181173 0.000352589 0)
(-0.182072 0.000186122 0)
(-0.182415 2.30962e-05 0)
(-0.182177 -0.000142565 0)
(-0.181413 -0.000312458 0)
(-0.18011 -0.000458912 0)
(-0.178294 -0.0006257 0)
(-0.175944 -0.000789223 0)
(-0.173056 -0.000924783 0)
(-0.169556 -0.00113684 0)
(-0.165457 -0.00130109 0)
(-0.160717 -0.00151724 0)
(-0.155275 -0.00170747 0)
(-0.149211 -0.00191449 0)
(-0.142488 -0.00208069 0)
(-0.135117 -0.00227345 0)
(-0.127185 -0.00244735 0)
(-0.118631 -0.00263664 0)
(-0.10944 -0.00283339 0)
(-0.0995823 -0.003039 0)
(-0.0890016 -0.00325616 0)
(-0.0776456 -0.00347222 0)
(-0.0655356 -0.0037036 0)
(-0.0527422 -0.00394898 0)
(-0.0391464 -0.00416274 0)
(-0.0247607 -0.00432706 0)
(-0.00977683 -0.00449151 0)
(0.00621545 -0.00470825 0)
(0.0228145 -0.00477533 0)
(0.0394512 -0.00481499 0)
(0.0561089 -0.00482333 0)
(0.0726606 -0.00475438 0)
(0.0889649 -0.00462548 0)
(0.104727 -0.00449042 0)
(0.119886 -0.00425367 0)
(0.134203 -0.00397931 0)
(0.147457 -0.00368984 0)
(0.159514 -0.00332253 0)
(0.17013 -0.00293031 0)
(0.179044 -0.00243934 0)
(0.186037 -0.00188549 0)
(0.190959 -0.00128775 0)
(0.193538 -0.000616022 0)
(0.19374 9.36458e-05 0)
(0.191697 0.000822365 0)
(0.187325 0.00156861 0)
(0.180797 0.00224779 0)
(0.172112 0.0029047 0)
(0.16134 0.00350811 0)
(0.14878 0.00398343 0)
(0.134665 0.00440043 0)
(0.11928 0.00473273 0)
(0.103007 0.00493189 0)
(0.086166 0.0050836 0)
(0.0690089 0.00515244 0)
(0.0518912 0.00512405 0)
(0.0350449 0.00506344 0)
(0.0186774 0.00492208 0)
(0.00146263 0.00476945 0)
(-0.0158661 0.0045528 0)
(-0.031619 0.00429271 0)
(-0.0462977 0.00404019 0)
(-0.0599284 0.0037738 0)
(-0.0725093 0.00348702 0)
(-0.0840596 0.00321284 0)
(-0.0945985 0.00292887 0)
(-0.104151 0.00266072 0)
(-0.112754 0.00239746 0)
(-0.12044 0.00213774 0)
(-0.12725 0.00189339 0)
(-0.133228 0.00165852 0)
(-0.138415 0.00143239 0)
(-0.142854 0.00122017 0)
(-0.146585 0.00101667 0)
(-0.149645 0.000823587 0)
(-0.152065 0.00063986 0)
(-0.153871 0.000462117 0)
(-0.155085 0.000287924 0)
(-0.155727 0.000124796 0)
(-0.15584 -3.10344e-05 0)
(-0.155415 -0.000184556 0)
(-0.154498 -0.000335766 0)
(-0.153087 -0.000491748 0)
(-0.151159 -0.000643953 0)
(-0.148711 -0.000805827 0)
(-0.145736 -0.00096611 0)
(-0.142208 -0.00113213 0)
(-0.13811 -0.00130805 0)
(-0.133421 -0.00148591 0)
(-0.128111 -0.00167144 0)
(-0.122151 -0.00187461 0)
(-0.115511 -0.00207715 0)
(-0.10816 -0.00230219 0)
(-0.100066 -0.00252184 0)
(-0.0912014 -0.00274787 0)
(-0.0815378 -0.00300364 0)
(-0.0710532 -0.00323985 0)
(-0.0597377 -0.00347537 0)
(-0.0475837 -0.00374684 0)
(-0.0345973 -0.00397517 0)
(-0.0207728 -0.00424124 0)
(-0.00619425 -0.00444486 0)
(0.00904131 -0.00462092 0)
(0.0249216 -0.00484073 0)
(0.0413704 -0.00495998 0)
(0.0582433 -0.00503551 0)
(0.0754026 -0.00514971 0)
(0.0926867 -0.00512822 0)
(0.109914 -0.00513678 0)
(0.126884 -0.00499679 0)
(0.143376 -0.00479102 0)
(0.159173 -0.00459823 0)
(0.174038 -0.00426098 0)
(0.189084 -0.00386633 0)
(-0.0219441 0.00847202 0)
(-0.03641 0.00801315 0)
(-0.0520828 0.00762491 0)
(-0.0669336 0.00719662 0)
(-0.0808707 0.00667547 0)
(-0.0938549 0.00621478 0)
(-0.105865 0.00569637 0)
(-0.116902 0.00523265 0)
(-0.126976 0.00476899 0)
(-0.136102 0.00428741 0)
(-0.144308 0.00384627 0)
(-0.15162 0.00341493 0)
(-0.158067 0.00298542 0)
(-0.16368 0.00258273 0)
(-0.168488 0.00218612 0)
(-0.172518 0.00180867 0)
(-0.175793 0.00143988 0)
(-0.178336 0.00107664 0)
(-0.180173 0.000718957 0)
(-0.181282 0.000378746 0)
(-0.181709 4.07299e-05 0)
(-0.181432 -0.000311802 0)
(-0.180447 -0.000667047 0)
(-0.178748 -0.00102555 0)
(-0.176322 -0.00139096 0)
(-0.17315 -0.001771 0)
(-0.169209 -0.0021559 0)
(-0.16447 -0.00255426 0)
(-0.158904 -0.00298144 0)
(-0.152481 -0.00340755 0)
(-0.145165 -0.0038462 0)
(-0.136928 -0.00433492 0)
(-0.127736 -0.00479726 0)
(-0.117563 -0.00532095 0)
(-0.106395 -0.00579483 0)
(-0.0942128 -0.00626373 0)
(-0.0809983 -0.0068186 0)
(-0.0667717 -0.00726808 0)
(-0.0515807 -0.00768288 0)
(-0.035389 -0.0082085 0)
(-0.0181867 -0.0085293 0)
(-0.000640334 -0.0090016 0)
(0.0173566 -0.0092189 0)
(0.0361001 -0.00933284 0)
(0.0551311 -0.0095279 0)
(0.0742868 -0.00947146 0)
(0.0933059 -0.00928028 0)
(0.111942 -0.00910373 0)
(0.129957 -0.00869293 0)
(0.147068 -0.00813581 0)
(0.163007 -0.00753596 0)
(0.177498 -0.00673675 0)
(0.1903 -0.00586916 0)
(0.2012 -0.00488562 0)
(0.209982 -0.00377803 0)
(0.216504 -0.00265867 0)
(0.220672 -0.0014716 0)
(0.222388 -0.000224217 0)
(0.221705 0.000932453 0)
(0.218476 0.00219232 0)
(0.212921 0.00327874 0)
(0.205112 0.00438219 0)
(0.195197 0.00543177 0)
(0.183289 0.00630649 0)
(0.169627 0.00715095 0)
(0.154487 0.00787858 0)
(0.138012 0.00841079 0)
(0.120519 0.00887261 0)
(0.102247 0.00915905 0)
(0.0834198 0.00937038 0)
(0.0643872 0.00945858 0)
(0.0453165 0.00941066 0)
(0.0263476 0.00928526 0)
(0.00781085 0.0090601 0)
(-0.0101695 0.00876289 0)
(-0.0275253 0.00841536 0)
(-0.0440997 0.00799987 0)
(-0.0599117 0.0076037 0)
(-0.0747945 0.0071318 0)
(-0.0886936 0.0066896 0)
(-0.101746 0.00618823 0)
(-0.113772 0.00571596 0)
(-0.12479 0.00524481 0)
(-0.13491 0.00474632 0)
(-0.144007 0.0042444 0)
(-0.152098 0.00379026 0)
(-0.159233 0.00328755 0)
(-0.165359 0.00278722 0)
(-0.170521 0.00232538 0)
(-0.174727 0.00185072 0)
(-0.178015 0.0014322 0)
(-0.180467 0.000984973 0)
(-0.182079 0.000595754 0)
(-0.18289 0.000254601 0)
(-0.182997 -0.00012889 0)
(-0.182369 -0.000490028 0)
(-0.181063 -0.000796666 0)
(-0.179122 -0.00114237 0)
(-0.176493 -0.00145343 0)
(-0.173249 -0.00176932 0)
(-0.169326 -0.00212551 0)
(-0.164696 -0.00246502 0)
(-0.159361 -0.00283535 0)
(-0.153235 -0.00323271 0)
(-0.146323 -0.00361859 0)
(-0.138597 -0.00405345 0)
(-0.129994 -0.00447163 0)
(-0.120544 -0.00492899 0)
(-0.110187 -0.0053255 0)
(-0.0989441 -0.00578247 0)
(-0.0868447 -0.00622542 0)
(-0.0738557 -0.0066259 0)
(-0.060068 -0.00704234 0)
(-0.045506 -0.00741922 0)
(-0.0301894 -0.00774677 0)
(-0.0142358 -0.00804357 0)
(0.00226515 -0.0082948 0)
(0.0192082 -0.00848595 0)
(0.0364735 -0.00862962 0)
(0.0539332 -0.00866255 0)
(0.071419 -0.00864839 0)
(0.0887568 -0.00852855 0)
(0.105765 -0.00831048 0)
(0.122225 -0.00798099 0)
(0.137911 -0.00755025 0)
(0.152606 -0.00699307 0)
(0.166066 -0.00631269 0)
(0.178034 -0.00552576 0)
(0.18828 -0.00460724 0)
(0.196595 -0.00360945 0)
(0.202794 -0.00252463 0)
(0.206738 -0.00137608 0)
(0.208319 -0.000205085 0)
(0.207513 0.000993502 0)
(0.204177 0.00223783 0)
(0.198495 0.00338544 0)
(0.190509 0.00450213 0)
(0.180354 0.0055551 0)
(0.168186 0.0064842 0)
(0.154213 0.00732306 0)
(0.13871 0.00802732 0)
(0.121909 0.00859932 0)
(0.104066 0.0090501 0)
(0.0854937 0.00934093 0)
(0.0664453 0.00952463 0)
(0.0471602 0.00958073 0)
(0.0278796 0.00953898 0)
(0.00882297 0.00933226 0)
(-0.00976717 0.00907195 0)
(-0.0276762 0.00871829 0)
(-0.0448245 0.00829208 0)
(-0.0610602 0.0078132 0)
(-0.0762888 0.00730088 0)
(-0.0904751 0.00675859 0)
(-0.103533 0.00621368 0)
(-0.11548 0.00565673 0)
(-0.126354 0.00512673 0)
(-0.136144 0.00459849 0)
(-0.144902 0.00410564 0)
(-0.152682 0.00362149 0)
(-0.159498 0.0031585 0)
(-0.165431 0.00272157 0)
(-0.170524 0.00231115 0)
(-0.174779 0.0019248 0)
(-0.178262 0.0015541 0)
(-0.181007 0.00119279 0)
(-0.183084 0.000863496 0)
(-0.184515 0.000542725 0)
(-0.185267 0.000215065 0)
(-0.185396 -7.83372e-05 0)
(-0.184893 -0.000411928 0)
(-0.183755 -0.000709112 0)
(-0.182011 -0.00100152 0)
(-0.179688 -0.00129142 0)
(-0.176761 -0.00159092 0)
(-0.173263 -0.00188957 0)
(-0.169167 -0.00216561 0)
(-0.164479 -0.0025077 0)
(-0.15916 -0.00275986 0)
(-0.153187 -0.00312627 0)
(-0.146541 -0.00345715 0)
(-0.139209 -0.00382661 0)
(-0.131124 -0.00419366 0)
(-0.122278 -0.00459738 0)
(-0.112637 -0.00495922 0)
(-0.102168 -0.0053808 0)
(-0.0909113 -0.00579482 0)
(-0.0788222 -0.0061791 0)
(-0.0659373 -0.00658208 0)
(-0.0523101 -0.00697928 0)
(-0.037884 -0.00731333 0)
(-0.0227203 -0.00766244 0)
(-0.006927 -0.00797572 0)
(0.00944154 -0.00824221 0)
(0.0262524 -0.00841487 0)
(0.0433633 -0.0085305 0)
(0.0605687 -0.00850691 0)
(0.0776367 -0.00838764 0)
(0.094319 -0.00812953 0)
(0.110369 -0.00775821 0)
(0.125549 -0.00726751 0)
(0.139616 -0.0066553 0)
(0.152337 -0.00594267 0)
(0.163482 -0.00508604 0)
(0.172822 -0.00412921 0)
(0.180128 -0.00308699 0)
(0.185217 -0.00194415 0)
(0.187947 -0.000744703 0)
(0.18825 0.000433075 0)
(0.186067 0.00165922 0)
(0.18146 0.00286373 0)
(0.174545 0.00398397 0)
(0.165418 0.00503219 0)
(0.154281 0.00599201 0)
(0.141313 0.00683386 0)
(0.12677 0.00753135 0)
(0.110976 0.00808421 0)
(0.0942484 0.00847365 0)
(0.0768656 0.00873119 0)
(0.059112 0.00883825 0)
(0.0412646 0.00883504 0)
(0.0235781 0.00871831 0)
(0.00623381 0.00847519 0)
(-0.0105707 0.00817978 0)
(-0.0266644 0.00781789 0)
(-0.0420095 0.0074081 0)
(-0.0565349 0.0069925 0)
(-0.0702099 0.00656853 0)
(-0.0830613 0.00618236 0)
(-0.0950658 0.0057479 0)
(-0.106264 0.00535325 0)
(-0.116654 0.00494095 0)
(-0.126195 0.00453489 0)
(-0.13494 0.00414355 0)
(-0.142905 0.00376311 0)
(-0.150098 0.00337384 0)
(-0.156545 0.00299653 0)
(-0.16223 0.00265579 0)
(-0.16716 0.00226088 0)
(-0.171375 0.00192063 0)
(-0.174892 0.00157054 0)
(-0.177714 0.00122926 0)
(-0.17984 0.000900986 0)
(-0.181344 0.000589325 0)
(-0.182244 0.000302772 0)
(-0.182581 4.23722e-05 0)
(-0.182347 -0.000244192 0)
(-0.181568 -0.000510907 0)
(-0.18027 -0.00077131 0)
(-0.178449 -0.0010364 0)
(-0.176103 -0.00132339 0)
(-0.173217 -0.00154021 0)
(-0.169716 -0.00188595 0)
(-0.165621 -0.00217625 0)
(-0.160887 -0.00252732 0)
(-0.155444 -0.00284379 0)
(-0.149377 -0.00318726 0)
(-0.142652 -0.00347374 0)
(-0.135283 -0.00379475 0)
(-0.127351 -0.00408501 0)
(-0.118788 -0.00438978 0)
(-0.109593 -0.00472245 0)
(-0.0997268 -0.00505301 0)
(-0.0891582 -0.00542581 0)
(-0.0777943 -0.00579301 0)
(-0.065674 -0.00617394 0)
(-0.0528794 -0.00659157 0)
(-0.0392643 -0.00693026 0)
(-0.0248601 -0.00721442 0)
(-0.0098819 -0.00749164 0)
(0.0061332 -0.00784696 0)
(0.0227585 -0.0079614 0)
(0.0394066 -0.00802866 0)
(0.0560853 -0.00804181 0)
(0.0726519 -0.00793038 0)
(0.0889731 -0.00771205 0)
(0.10475 -0.00748388 0)
(0.119924 -0.00708779 0)
(0.134246 -0.00663879 0)
(0.147516 -0.00614983 0)
(0.159581 -0.00554211 0)
(0.170221 -0.00487912 0)
(0.179148 -0.00407364 0)
(0.186155 -0.00315085 0)
(0.1911 -0.00215233 0)
(0.193706 -0.00103265 0)
(0.193909 0.000159942 0)
(0.191856 0.00137188 0)
(0.187501 0.00261425 0)
(0.180968 0.00374805 0)
(0.17227 0.00484369 0)
(0.161481 0.00585054 0)
(0.148899 0.00664252 0)
(0.134761 0.00733826 0)
(0.119352 0.007892 0)
(0.103057 0.00822503 0)
(0.0861938 0.00847743 0)
(0.0690178 0.00860585 0)
(0.051884 0.00854218 0)
(0.0350218 0.00844222 0)
(0.0186426 0.00820519 0)
(0.00141388 0.00795091 0)
(-0.015926 0.00758893 0)
(-0.0316834 0.00715504 0)
(-0.0463659 0.00673408 0)
(-0.0599991 0.00628992 0)
(-0.0725809 0.0058117 0)
(-0.0841314 0.00535463 0)
(-0.0946692 0.00488121 0)
(-0.10422 0.0044342 0)
(-0.112822 0.00399523 0)
(-0.120505 0.00356218 0)
(-0.127312 0.00315519 0)
(-0.133287 0.00276388 0)
(-0.138472 0.00238694 0)
(-0.142908 0.00203284 0)
(-0.146636 0.00169346 0)
(-0.149694 0.00137209 0)
(-0.152111 0.00106678 0)
(-0.153916 0.000770517 0)
(-0.155132 0.000479854 0)
(-0.155772 0.000208575 0)
(-0.15588 -5.19762e-05 0)
(-0.155455 -0.000307308 0)
(-0.154538 -0.00056028 0)
(-0.153128 -0.000819483 0)
(-0.151201 -0.00107358 0)
(-0.148754 -0.00134298 0)
(-0.145779 -0.00160982 0)
(-0.142253 -0.00188664 0)
(-0.138157 -0.00217975 0)
(-0.133469 -0.00247622 0)
(-0.128162 -0.00278533 0)
(-0.122204 -0.00312396 0)
(-0.115567 -0.0034615 0)
(-0.108218 -0.00383657 0)
(-0.100127 -0.0042027 0)
(-0.091264 -0.00457945 0)
(-0.0816027 -0.00500582 0)
(-0.0711189 -0.00539963 0)
(-0.0598031 -0.00579232 0)
(-0.0476493 -0.00624508 0)
(-0.0346607 -0.00662557 0)
(-0.0208342 -0.00706954 0)
(-0.00625053 -0.00740896 0)
(0.00899149 -0.00770254 0)
(0.0248783 -0.00806928 0)
(0.0413367 -0.00826832 0)
(0.0582209 -0.00839443 0)
(0.0753927 -0.00858514 0)
(0.0926911 -0.00854953 0)
(0.109934 -0.0085641 0)
(0.126922 -0.0083309 0)
(0.14343 -0.00798797 0)
(0.159247 -0.00766675 0)
(0.174129 -0.00710453 0)
(0.189193 -0.00644663 0)
(-0.0220335 0.0118636 0)
(-0.0365065 0.0112205 0)
(-0.0521885 0.0106764 0)
(-0.0670456 0.0100763 0)
(-0.0809846 0.00934618 0)
(-0.093971 0.00870084 0)
(-0.105979 0.00797475 0)
(-0.117016 0.00732531 0)
(-0.127088 0.006676 0)
(-0.136211 0.00600167 0)
(-0.144413 0.00538399 0)
(-0.151722 0.00478005 0)
(-0.158165 0.00417875 0)
(-0.163775 0.00361501 0)
(-0.168579 0.00305985 0)
(-0.172607 0.00253149 0)
(-0.17588 0.00201532 0)
(-0.17842 0.00150744 0)
(-0.180252 0.00100877 0)
(-0.181366 0.00053039 0)
(-0.181795 5.20025e-05 0)
(-0.181516 -0.000438268 0)
(-0.180531 -0.000933968 0)
(-0.178834 -0.00143547 0)
(-0.176411 -0.00194679 0)
(-0.173241 -0.00247865 0)
(-0.169303 -0.00301753 0)
(-0.164567 -0.00357513 0)
(-0.159005 -0.00417314 0)
(-0.152586 -0.00476973 0)
(-0.145274 -0.00538392 0)
(-0.137041 -0.00606838 0)
(-0.127851 -0.00671525 0)
(-0.117682 -0.00744905 0)
(-0.106514 -0.00811255 0)
(-0.0943304 -0.00876911 0)
(-0.0811163 -0.00954668 0)
(-0.0668856 -0.0101769 0)
(-0.0516875 -0.0107575 0)
(-0.0354868 -0.0114941 0)
(-0.0182759 -0.0119438 0)
(-0.000716774 -0.0126067 0)
(0.0173024 -0.0129109 0)
(0.0360661 -0.013071 0)
(0.0551219 -0.0133452 0)
(0.0743035 -0.0132661 0)
(0.09335 -0.0129995 0)
(0.112019 -0.0127528 0)
(0.130064 -0.0121774 0)
(0.147206 -0.0113983 0)
(0.163177 -0.0105579 0)
(0.177698 -0.00943777 0)
(0.190525 -0.00822561 0)
(0.201447 -0.00685044 0)
(0.21025 -0.00529454 0)
(0.216784 -0.00372205 0)
(0.220961 -0.00206988 0)
(0.222683 -0.000308758 0)
(0.221965 0.00131972 0)
(0.218742 0.00306951 0)
(0.213184 0.00459163 0)
(0.205359 0.00613908 0)
(0.195425 0.00760979 0)
(0.183496 0.00883424 0)
(0.169806 0.0100197 0)
(0.154636 0.0110368 0)
(0.138131 0.0117829 0)
(0.120607 0.0124291 0)
(0.102306 0.0128292 0)
(0.0834501 0.013127 0)
(0.0643906 0.0132495 0)