/*--------------------------------*- C++ -*----------------------------------*\
| =========                 |                                                 |
| \\      /  F ield         | OpenFOAM: The Open Source CFD Toolbox           |
|  \\    /   O peration     | Version:  3.0.1                                 |
|   \\  /    A nd           | Web:      www.OpenFOAM.org                      |
|    \\/     M anipulation  |                                                 |
\*---------------------------------------------------------------------------*/
FoamFile
{
    version     2.0;
    format      ascii;
    class       volScalarField;
    location    "74.6";
    object      p;
}
// * * * * * * * * * * * * * * * * * * * * * * * * * * * * * * * * * * * * * //

dimensions      [1 -1 -2 0 0 0 0];

internalField   nonuniform List<scalar> 
21420
(
4282.27
4267.49
4249.14
4227.45
4202.69
4175.21
4145.4
4113.65
4080.37
4046.03
4011.08
3976.02
3941.39
3909.29
3876.28
3843.83
3812.47
3782.49
3754.06
3727.34
3702.38
3679.23
3657.92
3638.45
3620.78
3604.9
3590.76
3578.33
3567.56
3558.41
3550.86
3544.86
3540.41
3537.48
3536.12
3536.29
3537.97
3541.24
3546.11
3552.58
3560.71
3570.52
3582.06
3595.37
3610.47
3627.38
3646.14
3666.75
3689.18
3713.43
3739.44
3767.12
3796.37
3827.04
3858.98
3891.99
3923.92
3958.03
3992.29
4026.32
4059.79
4092.33
4123.57
4153.15
4180.74
4205.99
4228.6
4248.28
4264.76
4277.84
4287.3
4293
4294.81
4292.66
4286.53
4276.5
4262.69
4245.26
4224.44
4200.51
4173.78
4144.6
4113.36
4080.45
4046.29
4011.31
3975.92
3940.54
3905.73
3871.45
3838.16
3806.17
3775.72
3747.02
3720.21
3695.43
3672.73
3652.17
3633.75
3617.42
3603.15
3590.86
3580.46
3571.87
3565
3559.76
3556.05
3553.83
3553.06
3553.68
3555.62
3558.88
3563.47
3569.38
3576.62
3585.21
3595.18
3606.55
3619.34
3633.57
3649.28
3666.47
3685.17
3705.37
3727.08
3750.28
3774.96
3801.07
3828.53
3857.26
3887.13
3917.98
3949.59
3981.71
4014.05
4046.3
4078.1
4109.08
4138.85
4167.01
4193.15
4216.9
4237.88
4255.76
4270.25
4281.09
4288.09
4291.08
4290.03
4284.91
4275.8
4262.79
4246.08
4225.9
4202.56
4176.41
4147.84
4117.28
4085.17
4051.96
4018.1
3984.02
3950.14
3916.84
3884.44
3853.23
3823.45
3795.29
3768.87
3744.28
3721.55
3700.71
3681.71
3664.54
3649.14
3635.44
3623.4
3612.94
3604
3596.52
3590.43
3585.68
3582.22
3579.99
3578.97
3579.14
3580.44
3582.87
3586.43
3591.12
3596.95
3603.95
3612.16
3621.61
3632.35
3644.42
3657.87
3672.75
3689.1
3706.95
3726.31
3747.19
3769.58
3793.43
3818.68
3845.24
3872.99
3901.78
3931.44
3961.95
3992.7
4023.6
4054.35
4084.63
4114.09
4142.37
4169.08
4193.87
4216.36
4236.19
4253.04
4266.62
4276.69
4283.04
4285.53
4284.16
4278.89
4269.84
4257.1
4240.9
4221.51
4199.24
4174.45
4147.5
4118.8
4088.74
4057.72
4026.14
3994.38
3962.79
3931.7
3901.39
3872.11
3844.06
3817.4
3792.25
3768.72
3746.84
3726.66
3708.18
3691.37
3676.21
3662.65
3650.63
3640.09
3630.98
3623.22
3616.75
3611.51
3607.46
3604.55
3602.72
3601.95
3602.24
3603.54
3605.83
3609.12
3613.4
3618.68
3624.97
3632.27
3640.63
3650.08
3660.66
3672.44
3685.46
3699.81
3715.51
3732.64
3751.23
3771.29
3792.82
3815.78
3840.13
3865.8
3892.68
3920.68
3948.8
3978.25
4008.25
4038.52
4068.75
4098.61
4127.72
4155.65
4182
4206.34
4228.23
4247.31
4263.21
4275.64
4284.37
4289.22
4290.05
4286.8
4279.55
4268.47
4253.79
4235.8
4214.82
4191.19
4165.35
4137.73
4108.74
4078.81
4048.36
4017.75
3987.34
3957.46
3928.36
3900.57
3873.84
3847.93
3823.02
3799.25
3776.7
3755.4
3735.34
3716.53
3698.96
3682.62
3667.51
3653.63
3641
3629.65
3619.61
3610.92
3603.62
3597.75
3593.37
3590.5
3589.22
3589.59
3591.64
3595.45
3601
3608.26
3617.28
3628.02
3640.48
3654.64
3670.46
3687.9
3706.88
3727.31
3749.08
3772.01
4184.32
4169.52
4151.16
4129.46
4104.68
4077.19
4047.35
4015.58
3982.29
3947.93
3912.96
3877.88
3843.24
3811.15
3778.13
3745.67
3714.3
3684.31
3655.88
3629.15
3604.2
3581.05
3559.74
3540.27
3522.61
3506.73
3492.59
3480.16
3469.39
3460.25
3452.69
3446.7
3442.25
3439.32
3437.96
3438.12
3439.8
3443.08
3447.94
3454.42
3462.54
3472.35
3483.89
3497.2
3512.29
3529.2
3547.96
3568.57
3591
3615.25
3641.26
3668.94
3698.19
3728.87
3760.81
3793.83
3825.79
3859.91
3894.17
3928.22
3961.7
3994.26
4025.51
4055.11
4082.71
4107.98
4130.6
4150.29
4166.79
4179.88
4189.35
4195.06
4196.87
4194.71
4188.58
4178.54
4164.72
4147.28
4126.45
4102.5
4075.76
4046.56
4015.3
3982.37
3948.2
3913.2
3877.79
3842.4
3807.58
3773.28
3739.98
3707.99
3677.53
3648.82
3622.02
3597.23
3574.54
3553.98
3535.56
3519.24
3504.97
3492.68
3482.29
3473.7
3466.83
3461.59
3457.89
3455.67
3454.9
3455.52
3457.46
3460.73
3465.31
3471.22
3478.46
3487.05
3497.02
3508.38
3521.17
3535.41
3551.11
3568.3
3586.99
3607.2
3628.9
3652.11
3676.79
3702.89
3730.36
3759.09
3788.96
3819.83
3851.45
3883.57
3915.93
3948.19
3980
4011
4040.79
4068.96
4095.13
4118.89
4139.89
4157.79
4172.28
4183.13
4190.14
4193.14
4192.08
4186.96
4177.85
4164.83
4148.1
4127.9
4104.55
4078.38
4049.8
4019.22
3987.09
3953.86
3919.98
3885.89
3851.99
3818.68
3786.26
3755.05
3725.27
3697.1
3670.68
3646.09
3623.37
3602.52
3583.53
3566.36
3550.96
3537.27
3525.23
3514.77
3505.84
3498.36
3492.27
3487.53
3484.07
3481.84
3480.82
3481
3482.29
3484.72
3488.28
3492.97
3498.8
3505.8
3514
3523.45
3534.19
3546.26
3559.71
3574.59
3590.93
3608.78
3628.14
3649.02
3671.41
3695.26
3720.51
3747.07
3774.83
3803.62
3833.29
3863.81
3894.57
3925.48
3956.25
3986.54
4016.02
4044.31
4071.04
4095.84
4118.34
4138.19
4155.06
4168.65
4178.73
4185.09
4187.59
4186.21
4180.94
4171.87
4159.12
4142.91
4123.51
4101.23
4076.41
4049.45
4020.73
3990.65
3959.62
3928.02
3896.25
3864.65
3833.55
3803.23
3773.94
3745.88
3719.22
3694.08
3670.54
3648.67
3628.48
3610
3593.2
3578.04
3564.48
3552.47
3541.93
3532.82
3525.06
3518.59
3513.36
3509.32
3506.4
3504.57
3503.81
3504.1
3505.39
3507.69
3510.98
3515.26
3520.54
3526.82
3534.13
3542.49
3551.93
3562.51
3574.29
3587.31
3601.65
3617.35
3634.48
3653.07
3673.12
3694.65
3717.61
3741.96
3767.63
3794.52
3822.52
3850.65
3880.11
3910.12
3940.4
3970.64
4000.52
4029.65
4057.6
4083.96
4108.32
4130.23
4149.32
4165.24
4177.68
4186.42
4191.27
4192.12
4188.85
4181.59
4170.51
4155.82
4137.81
4116.81
4093.16
4067.31
4039.67
4010.66
3980.71
3950.24
3919.62
3889.2
3859.31
3830.21
3802.42
3775.68
3749.77
3724.86
3701.09
3678.54
3657.24
3637.19
3618.38
3600.81
3584.47
3569.35
3555.48
3542.85
3531.5
3521.46
3512.76
3505.46
3499.59
3495.21
3492.34
3491.06
3491.42
3493.48
3497.28
3502.83
3510.1
3519.11
3529.86
3542.31
3556.47
3572.29
3589.73
3608.71
3629.15
3650.91
3673.85
4086.52
4071.7
4053.31
4031.57
4006.77
3979.23
3949.36
3917.55
3884.22
3849.83
3814.82
3779.7
3745.02
3712.97
3679.91
3647.43
3616.05
3586.05
3557.62
3530.89
3505.93
3482.79
3461.48
3442.01
3424.36
3408.48
3394.35
3381.92
3371.16
3362.02
3354.47
3348.48
3344.03
3341.1
3339.74
3339.9
3341.58
3344.85
3349.72
3356.19
3364.31
3374.12
3385.65
3398.95
3414.04
3430.95
3449.71
3470.31
3492.74
3516.99
3543
3570.69
3599.94
3630.63
3662.58
3695.6
3727.63
3761.75
3796.04
3830.11
3863.63
3896.21
3927.5
3957.13
3984.76
4010.06
4032.71
4052.43
4068.95
4082.06
4091.54
4097.26
4099.09
4096.9
4090.78
4080.73
4066.89
4049.43
4028.56
4004.59
3977.81
3948.58
3917.28
3884.32
3850.11
3815.08
3779.63
3744.21
3709.38
3675.06
3641.74
3609.72
3579.26
3550.54
3523.73
3498.94
3476.25
3455.69
3437.27
3420.96
3406.7
3394.42
3384.04
3375.46
3368.59
3363.36
3359.67
3357.46
3356.7
3357.31
3359.25
3362.52
3367.1
3373.01
3380.25
3388.84
3398.8
3410.16
3422.95
3437.18
3452.88
3470.07
3488.76
3508.96
3530.66
3553.87
3578.55
3604.66
3632.13
3660.87
3690.75
3721.62
3753.26
3785.41
3817.78
3850.07
3881.92
3912.95
3942.77
3970.98
3997.18
4020.98
4042.01
4059.94
4074.46
4085.33
4092.35
4095.36
4094.29
4089.16
4080.04
4067
4050.25
4030.02
4006.63
3980.43
3951.81
3921.19
3889.02
3855.75
3821.84
3787.72
3753.79
3720.45
3688.02
3656.79
3627
3598.83
3572.41
3547.81
3525.1
3504.26
3485.27
3468.11
3452.71
3439.03
3427
3416.54
3407.62
3400.14
3394.06
3389.32
3385.87
3383.64
3382.63
3382.8
3384.1
3386.53
3390.09
3394.77
3400.6
3407.6
3415.8
3425.24
3435.98
3448.04
3461.49
3476.36
3492.7
3510.54
3529.9
3550.78
3573.17
3597.03
3622.28
3648.85
3676.61
3705.42
3735.09
3765.64
3796.41
3827.34
3858.14
3888.46
3917.97
3946.29
3973.06
3997.89
4020.43
4040.31
4057.2
4070.82
4080.91
4087.28
4089.8
4088.41
4083.13
4074.05
4061.28
4045.04
4025.61
4003.29
3978.45
3951.45
3922.69
3892.58
3861.51
3829.89
3798.09
3766.46
3735.34
3705.01
3675.71
3647.64
3620.97
3595.82
3572.28
3550.41
3530.23
3511.75
3494.95
3479.8
3466.25
3454.24
3443.71
3434.61
3426.86
3420.39
3415.17
3411.12
3408.21
3406.39
3405.63
3405.92
3407.21
3409.51
3412.8
3417.09
3422.36
3428.64
3435.95
3444.3
3453.74
3464.31
3476.08
3489.1
3503.43
3519.13
3536.25
3554.83
3574.89
3596.41
3619.38
3643.73
3669.39
3696.28
3724.29
3752.45
3781.92
3811.95
3842.25
3872.52
3902.43
3931.59
3959.58
3985.99
4010.38
4032.33
4051.45
4067.4
4079.86
4088.62
4093.48
4094.34
4091.04
4083.78
4072.68
4057.96
4039.93
4018.89
3995.2
3969.31
3941.64
3912.59
3882.61
3852.11
3821.46
3791.02
3761.11
3731.99
3704.22
3677.48
3651.56
3626.64
3602.87
3580.32
3559.02
3538.97
3520.17
3502.6
3486.26
3471.15
3457.27
3444.64
3433.29
3423.25
3414.55
3407.24
3401.37
3396.99
3394.11
3392.83
3393.19
3395.24
3399.05
3404.6
3411.86
3420.87
3431.62
3444.07
3458.23
3474.06
3491.49
3510.48
3530.92
3552.68
3575.62
3988.87
3974.02
3955.59
3933.8
3908.94
3881.35
3851.42
3819.56
3786.17
3751.72
3716.66
3681.48
3646.74
3614.74
3581.64
3549.13
3517.72
3487.71
3459.27
3432.54
3407.58
3384.44
3363.14
3343.68
3326.03
3310.16
3296.04
3283.62
3272.86
3263.73
3256.18
3250.2
3245.75
3242.83
3241.46
3241.61
3243.3
3246.56
3251.43
3257.89
3266.01
3275.81
3287.34
3300.63
3315.71
3332.61
3351.37
3371.97
3394.4
3418.65
3444.66
3472.36
3501.62
3532.32
3564.28
3597.31
3629.43
3663.57
3697.89
3732
3765.56
3798.19
3829.53
3859.21
3886.89
3912.23
3934.92
3954.68
3971.23
3984.37
3993.88
3999.62
4001.46
3999.26
3993.12
3983.06
3969.2
3951.7
3930.79
3906.77
3879.94
3850.66
3819.3
3786.29
3752.03
3716.94
3681.45
3645.99
3611.13
3576.77
3543.42
3511.38
3480.9
3452.17
3425.35
3400.56
3377.87
3357.32
3338.91
3322.6
3308.35
3296.09
3285.72
3277.15
3270.3
3265.07
3261.39
3259.19
3258.43
3259.04
3260.99
3264.26
3268.84
3274.75
3281.98
3290.57
3300.52
3311.88
3324.66
3338.89
3354.59
3371.77
3390.46
3410.65
3432.36
3455.56
3480.24
3506.35
3533.83
3562.58
3592.47
3623.37
3655.03
3687.21
3719.62
3751.95
3783.84
3814.92
3844.8
3873.06
3899.31
3923.16
3944.24
3962.21
3976.77
3987.67
3994.71
3997.74
3996.66
3991.53
3982.38
3969.32
3952.52
3932.25
3908.81
3882.55
3853.87
3823.19
3790.97
3757.65
3723.68
3689.51
3655.55
3622.17
3589.71
3558.46
3528.66
3500.47
3474.05
3449.46
3426.74
3405.91
3386.93
3369.78
3354.4
3340.72
3328.7
3318.26
3309.34
3301.87
3295.8
3291.06
3287.61
3285.39
3284.39
3284.56
3285.86
3288.29
3291.85
3296.53
3302.36
3309.35
3317.55
3326.98
3337.71
3349.77
3363.2
3378.07
3394.4
3412.24
3431.59
3452.48
3474.86
3498.72
3523.98
3550.56
3578.33
3607.16
3636.85
3667.44
3698.23
3729.2
3760.03
3790.4
3819.95
3848.32
3875.13
3900.02
3922.6
3942.53
3959.47
3973.12
3983.24
3989.63
3992.16
3990.75
3985.47
3976.37
3963.57
3947.29
3927.81
3905.45
3880.55
3853.49
3824.68
3794.52
3763.41
3731.74
3699.9
3668.24
3637.09
3606.73
3577.41
3549.33
3522.65
3497.49
3473.95
3452.08
3431.91
3413.43
3396.64
3381.5
3367.96
3355.96
3345.44
3336.34
3328.6
3322.14
3316.93
3312.89
3309.98
3308.16
3307.41
3307.7
3309
3311.29
3314.58
3318.87
3324.14
3330.42
3337.72
3346.07
3355.5
3366.07
3377.83
3390.83
3405.16
3420.85
3437.96
3456.54
3476.59
3498.11
3521.07
3545.42
3571.09
3597.99
3626.01
3654.2
3683.68
3713.74
3744.07
3774.38
3804.34
3833.56
3861.6
3888.07
3912.52
3934.52
3953.7
3969.69
3982.19
3990.97
3995.85
3996.72
3993.39
3986.12
3974.99
3960.23
3942.15
3921.06
3897.32
3871.37
3843.64
3814.54
3784.52
3753.97
3723.28
3692.8
3662.86
3633.72
3605.97
3579.22
3553.29
3528.36
3504.59
3482.05
3460.75
3440.7
3421.9
3404.34
3388
3372.89
3359.01
3346.38
3335.03
3324.98
3316.28
3308.97
3303.1
3298.7
3295.83
3294.55
3294.89
3296.95
3300.75
3306.29
3313.56
3322.57
3333.31
3345.77
3359.93
3375.75
3393.19
3412.18
3432.62
3454.39
3477.34
3891.38
3876.47
3857.98
3836.13
3811.2
3783.54
3753.54
3721.6
3688.13
3653.61
3618.47
3583.21
3548.4
3516.48
3483.32
3450.75
3419.32
3389.29
3360.84
3334.1
3309.15
3286.01
3264.72
3245.27
3227.63
3211.77
3197.66
3185.25
3174.5
3165.37
3157.83
3151.85
3147.41
3144.49
3143.12
3143.27
3144.95
3148.22
3153.07
3159.53
3167.64
3177.43
3188.95
3202.24
3217.31
3234.2
3252.95
3273.54
3295.97
3320.22
3346.24
3373.94
3403.22
3433.94
3465.92
3498.96
3531.19
3565.36
3599.72
3633.89
3667.51
3700.2
3731.6
3761.34
3789.09
3814.49
3837.24
3857.05
3873.65
3886.83
3896.36
3902.12
3903.99
3901.77
3895.62
3885.54
3871.64
3854.09
3833.13
3809.04
3782.15
3752.79
3721.37
3688.28
3653.95
3618.8
3583.25
3547.72
3512.83
3478.42
3445.03
3412.96
3382.46
3353.71
3326.88
3302.08
3279.39
3258.85
3240.45
3224.16
3209.93
3197.68
3187.32
3178.77
3171.93
3166.72
3163.05
3160.86
3160.11
3160.72
3162.67
3165.94
3170.53
3176.43
3183.66
3192.24
3202.19
3213.54
3226.32
3240.54
3256.23
3273.41
3292.09
3312.28
3333.98
3357.18
3381.86
3407.98
3435.46
3464.23
3494.14
3525.06
3556.76
3588.98
3621.44
3653.83
3685.78
3716.93
3746.87
3775.2
3801.53
3825.45
3846.59
3864.62
3879.23
3890.16
3897.23
3900.28
3899.19
3894.05
3884.88
3871.77
3854.93
3834.6
3811.09
3784.75
3755.99
3725.24
3692.93
3659.54
3625.51
3591.27
3557.25
3523.83
3491.34
3460.06
3430.23
3402.04
3375.6
3351.02
3328.31
3307.48
3288.52
3271.38
3256.01
3242.34
3230.33
3219.91
3211
3203.54
3197.48
3192.75
3189.31
3187.1
3186.1
3186.27
3187.58
3190.01
3193.57
3198.25
3204.07
3211.05
3219.24
3228.67
3239.39
3251.43
3264.86
3279.72
3296.04
3313.87
3333.22
3354.1
3376.49
3400.35
3425.62
3452.21
3480
3508.85
3538.56
3569.19
3600.02
3631.03
3661.92
3692.34
3721.95
3750.39
3777.27
3802.22
3824.87
3844.86
3861.86
3875.55
3885.71
3892.13
3894.67
3893.26
3887.96
3878.83
3865.98
3849.66
3830.12
3807.69
3782.72
3755.59
3726.71
3696.48
3665.31
3633.58
3601.68
3569.97
3538.78
3508.39
3479.04
3450.94
3424.25
3399.09
3375.55
3353.68
3333.51
3315.04
3298.26
3283.13
3269.6
3257.61
3247.1
3238.02
3230.29
3223.84
3218.64
3214.61
3211.71
3209.89
3209.15
3209.44
3210.74
3213.03
3216.33
3220.61
3225.88
3232.16
3239.45
3247.79
3257.21
3267.77
3279.52
3292.52
3306.83
3322.5
3339.6
3358.17
3378.22
3399.73
3422.69
3447.04
3472.72
3499.63
3527.66
3555.89
3585.4
3615.49
3645.87
3676.24
3706.26
3735.55
3763.67
3790.21
3814.74
3836.81
3856.06
3872.11
3884.66
3893.47
3898.37
3899.26
3895.9
3888.6
3877.43
3862.63
3844.48
3823.32
3799.51
3773.48
3745.68
3716.51
3686.42
3655.81
3625.07
3594.54
3564.55
3535.39
3507.67
3480.91
3454.96
3430.02
3406.25
3383.71
3362.41
3342.38
3323.58
3306.02
3289.69
3274.58
3260.7
3248.07
3236.72
3226.67
3217.96
3210.64
3204.76
3200.36
3197.48
3196.2
3196.53
3198.58
3202.38
3207.92
3215.19
3224.19
3234.93
3247.39
3261.55
3277.37
3294.82
3313.81
3334.25
3356.04
3378.99
3794.03
3779.07
3760.51
3738.57
3713.56
3685.8
3655.7
3623.67
3590.11
3555.5
3520.27
3484.91
3450
3418.18
3384.93
3352.31
3320.84
3290.79
3262.33
3235.58
3210.63
3187.5
3166.22
3146.78
3129.15
3113.31
3099.21
3086.81
3076.07
3066.95
3059.42
3053.45
3049.01
3046.09
3044.72
3044.86
3046.54
3049.8
3054.65
3061.1
3069.2
3078.98
3090.49
3103.77
3118.83
3135.71
3154.45
3175.04
3197.46
3221.72
3247.74
3275.45
3304.75
3335.48
3367.5
3400.55
3432.92
3467.12
3501.54
3535.77
3569.46
3602.24
3633.71
3663.54
3691.36
3716.84
3739.66
3759.53
3776.2
3789.42
3799
3804.78
3806.66
3804.44
3798.28
3788.16
3774.21
3756.61
3735.58
3711.41
3684.44
3654.99
3623.47
3590.3
3555.88
3520.65
3485.01
3449.4
3414.48
3380
3346.57
3314.46
3283.92
3255.16
3228.31
3203.51
3180.82
3160.29
3141.9
3125.63
3111.42
3099.19
3088.85
3080.32
3073.5
3068.31
3064.65
3062.48
3061.73
3062.35
3064.31
3067.58
3072.16
3078.06
3085.29
3093.86
3103.8
3115.15
3127.91
3142.13
3157.81
3174.98
3193.65
3213.84
3235.53
3258.73
3283.42
3309.54
3337.03
3365.82
3395.76
3426.71
3458.45
3490.72
3523.24
3555.69
3587.72
3618.95
3648.98
3677.41
3703.82
3727.82
3749.05
3767.15
3781.82
3792.8
3799.9
3802.97
3801.89
3796.73
3787.52
3774.37
3757.46
3737.05
3713.46
3687.03
3658.17
3627.32
3594.92
3561.43
3527.31
3493
3458.91
3425.44
3392.89
3361.58
3331.72
3303.51
3277.08
3252.49
3229.79
3208.97
3190.03
3172.9
3157.54
3143.9
3131.9
3121.49
3112.6
3105.16
3099.11
3094.39
3090.96
3088.76
3087.77
3087.94
3089.25
3091.69
3095.24
3099.91
3105.73
3112.71
3120.89
3130.31
3141.01
3153.04
3166.46
3181.31
3197.62
3215.44
3234.78
3255.66
3278.05
3301.92
3327.2
3353.8
3381.62
3410.49
3440.25
3470.89
3501.78
3532.85
3563.8
3594.3
3623.99
3652.5
3679.47
3704.51
3727.24
3747.3
3764.37
3778.13
3788.33
3794.78
3797.33
3795.93
3790.61
3781.43
3768.53
3752.14
3732.53
3710.01
3684.96
3657.74
3628.78
3598.46
3567.2
3535.4
3503.43
3471.67
3440.42
3409.99
3380.61
3352.49
3325.78
3300.61
3277.07
3255.2
3235.03
3216.58
3199.81
3184.69
3171.17
3159.2
3148.71
3139.64
3131.92
3125.49
3120.3
3116.28
3113.39
3111.58
3110.85
3111.14
3112.44
3114.74
3118.03
3122.31
3127.58
3133.85
3141.14
3149.47
3158.88
3169.43
3181.16
3194.14
3208.44
3224.1
3241.19
3259.74
3279.78
3301.29
3324.24
3348.6
3374.28
3401.2
3429.25
3457.54
3487.07
3517.21
3547.65
3578.08
3608.18
3637.56
3665.77
3692.41
3717.04
3739.21
3758.54
3774.66
3787.27
3796.13
3801.04
3801.94
3798.57
3791.23
3780.01
3765.14
3746.92
3725.67
3701.76
3675.65
3647.75
3618.49
3588.32
3557.64
3526.83
3496.24
3466.19
3437
3409.32
3382.54
3356.57
3331.62
3307.85
3285.31
3264.02
3243.99
3225.2
3207.65
3191.32
3176.21
3162.34
3149.71
3138.35
3128.29
3119.58
3112.26
3106.37
3101.96
3099.07
3097.78
3098.1
3100.15
3103.95
3109.49
3116.75
3125.75
3136.49
3148.94
3163.1
3178.93
3196.37
3215.37
3235.82
3257.61
3280.59
3696.84
3681.8
3663.15
3641.12
3616
3588.14
3557.93
3525.78
3492.11
3457.38
3422.05
3386.57
3351.54
3319.84
3286.49
3253.8
3222.28
3192.2
3163.73
3136.98
3112.03
3088.91
3067.64
3048.21
3030.6
3014.77
3000.68
2988.3
2977.57
2968.47
2960.95
2954.98
2950.55
2947.64
2946.26
2946.39
2948.07
2951.33
2956.17
2962.61
2970.7
2980.47
2991.97
3005.23
3020.27
3037.15
3055.88
3076.46
3098.88
3123.13
3149.16
3176.89
3206.2
3236.96
3269.01
3302.09
3334.6
3368.85
3403.34
3437.65
3471.43
3504.3
3535.87
3565.79
3593.71
3619.28
3642.19
3662.14
3678.87
3692.15
3701.78
3707.6
3709.49
3707.27
3701.08
3690.92
3676.92
3659.25
3638.14
3613.88
3586.8
3557.24
3525.62
3492.34
3457.82
3422.48
3386.75
3351.05
3316.08
3281.53
3248.03
3215.88
3185.31
3156.51
3129.66
3104.85
3082.16
3061.63
3043.26
3027.01
3012.83
3000.62
2990.31
2981.81
2975.01
2969.84
2966.2
2964.04
2963.3
2963.93
2965.89
2969.16
2973.74
2979.64
2986.86
2995.42
3005.36
3016.69
3029.45
3043.65
3059.32
3076.49
3095.15
3115.33
3137.02
3160.22
3184.9
3211.03
3238.54
3267.34
3297.31
3328.3
3360.1
3392.43
3425.02
3457.56
3489.68
3521.01
3551.14
3579.67
3606.19
3630.3
3651.62
3669.81
3684.55
3695.6
3702.73
3705.82
3704.75
3699.57
3690.32
3677.1
3660.12
3639.62
3615.92
3589.38
3560.41
3529.44
3496.92
3463.32
3429.1
3394.7
3360.53
3326.98
3294.38
3263.02
3233.14
3204.91
3178.46
3153.88
3131.19
3110.39
3091.45
3074.35
3059.01
3045.39
3033.41
3023.02
3014.14
3006.72
3000.68
2995.98
2992.56
2990.38
2989.39
2989.57
2990.88
2993.32
2996.87
3001.54
3007.34
3014.31
3022.48
3031.89
3042.58
3054.6
3068
3082.83
3099.13
3116.94
3136.27
3157.15
3179.54
3203.41
3228.71
3255.33
3283.17
3312.08
3341.89
3372.55
3403.51
3434.66
3465.69
3496.27
3526.05
3554.66
3581.73
3606.86
3629.69
3649.85
3667
3680.83
3691.09
3697.58
3700.15
3698.75
3693.4
3684.18
3671.22
3654.75
3635.04
3612.42
3587.26
3559.94
3530.87
3500.45
3469.1
3437.21
3405.16
3373.32
3342.02
3311.53
3282.11
3253.96
3227.24
3202.06
3178.51
3156.64
3136.48
3118.04
3101.28
3086.18
3072.68
3060.73
3050.26
3041.21
3033.51
3027.1
3021.91
3017.91
3015.03
3013.23
3012.5
3012.8
3014.1
3016.4
3019.7
3023.97
3029.24
3035.51
3042.79
3051.11
3060.5
3071.03
3082.75
3095.71
3109.99
3125.63
3142.71
3161.25
3181.27
3202.77
3225.73
3250.08
3275.78
3302.71
3330.77
3359.13
3388.69
3418.89
3449.39
3479.91
3510.11
3539.59
3567.92
3594.68
3619.42
3641.7
3661.13
3677.34
3690.02
3698.93
3703.88
3704.78
3701.4
3694.01
3682.73
3667.78
3649.47
3628.11
3604.09
3577.86
3549.85
3520.48
3490.22
3459.45
3428.56
3397.9
3367.78
3338.54
3310.94
3284.12
3258.12
3233.16
3209.39
3186.85
3165.57
3145.55
3126.77
3109.22
3092.9
3077.8
3063.92
3051.29
3039.92
3029.86
3021.14
3013.81
3007.91
3003.5
3000.6
2999.3
2999.61
3001.65
3005.45
3010.98
3018.24
3027.24
3037.98
3050.43
3064.59
3080.41
3097.86
3116.87
3137.33
3159.13
3182.12
3599.8
3584.68
3565.93
3543.78
3518.54
3490.54
3460.2
3427.92
3394.12
3359.27
3323.8
3288.19
3253.01
3221.46
3187.99
3155.21
3123.64
3093.54
3065.05
3038.3
3013.35
2990.23
2968.97
2949.56
2931.97
2916.16
2902.09
2889.72
2879.01
2869.92
2862.41
2856.45
2852.03
2849.12
2847.74
2847.87
2849.55
2852.8
2857.62
2864.06
2872.13
2881.88
2893.37
2906.61
2921.64
2938.5
2957.22
2977.79
3000.2
3024.46
3050.5
3078.24
3107.58
3138.37
3170.45
3203.58
3236.25
3270.55
3305.12
3339.52
3373.41
3406.38
3438.07
3468.1
3496.13
3521.81
3544.82
3564.86
3581.67
3595.02
3604.7
3610.56
3612.48
3610.26
3604.04
3593.84
3579.77
3562.02
3540.81
3516.43
3489.23
3459.56
3427.81
3394.4
3359.76
3324.31
3288.47
3252.65
3217.63
3182.99
3149.42
3117.21
3086.6
3057.78
3030.9
3006.09
2983.41
2962.89
2944.54
2928.31
2914.15
2901.98
2891.7
2883.22
2876.45
2871.3
2867.69
2865.55
2864.82
2865.46
2867.42
2870.69
2875.27
2881.16
2888.37
2896.93
2906.85
2918.18
2930.92
2945.11
2960.78
2977.93
2996.58
3016.75
3038.44
3061.64
3086.32
3112.45
3139.98
3168.81
3198.81
3229.84
3261.7
3294.11
3326.78
3359.41
3391.64
3423.08
3453.34
3481.99
3508.64
3532.87
3554.31
3572.6
3587.43
3598.54
3605.73
3608.83
3607.77
3602.57
3593.26
3579.98
3562.91
3542.3
3518.48
3491.81
3462.7
3431.59
3398.94
3365.21
3330.87
3296.36
3262.09
3228.46
3195.79
3164.38
3134.46
3106.22
3079.76
3055.18
3032.5
3011.72
2992.8
2975.72
2960.41
2946.8
2934.85
2924.48
2915.63
2908.22
2902.21
2897.52
2894.12
2891.94
2890.96
2891.15
2892.47
2894.9
2898.45
2903.11
2908.91
2915.87
2924.03
2933.42
2944.09
2956.09
2969.48
2984.29
3000.58
3018.37
3037.7
3058.57
3080.96
3104.84
3130.15
3156.8
3184.67
3213.62
3243.49
3274.18
3305.22
3336.45
3367.57
3398.25
3428.13
3456.86
3484.04
3509.3
3532.24
3552.51
3569.76
3583.68
3594
3600.53
3603.13
3601.72
3596.34
3587.06
3574.03
3557.47
3537.65
3514.92
3489.64
3462.19
3433
3402.46
3370.99
3339
3306.85
3274.93
3243.55
3213.01
3183.55
3155.37
3128.62
3103.43
3079.87
3058.01
3037.86
3019.43
3002.69
2987.61
2974.13
2962.2
2951.76
2942.72
2935.04
2928.65
2923.48
2919.49
2916.62
2914.84
2914.12
2914.42
2915.73
2918.03
2921.32
2925.6
2930.86
2937.12
2944.39
2952.7
2962.08
2972.59
2984.29
2997.23
3011.48
3027.1
3044.16
3062.69
3082.69
3104.19
3127.14
3151.5
3177.2
3204.15
3232.23
3260.66
3290.27
3320.53
3351.11
3381.73
3412.04
3441.65
3470.11
3497
3521.88
3544.29
3563.84
3580.15
3592.92
3601.89
3606.87
3607.78
3604.38
3596.94
3585.59
3570.55
3552.12
3530.64
3506.5
3480.13
3451.99
3422.5
3392.11
3361.24
3330.26
3299.52
3269.32
3240
3212.51
3185.65
3159.62
3134.64
3110.87
3088.34
3067.07
3047.05
3028.28
3010.74
2994.43
2979.33
2965.45
2952.81
2941.44
2931.38
2922.65
2915.31
2909.4
2904.97
2902.07
2900.75
2901.05
2903.09
2906.88
2912.41
2919.66
2928.66
2939.39
2951.85
2966
2981.83
2999.28
3018.29
3038.76
3060.58
3083.59
3502.91
3487.69
3468.83
3446.55
3421.17
3393.02
3362.53
3330.09
3296.14
3261.14
3225.54
3189.77
3154.42
3123.05
3089.42
3056.55
3024.93
2994.79
2966.28
2939.53
2914.58
2891.47
2870.23
2850.83
2833.26
2817.47
2803.43
2791.08
2780.39
2771.31
2763.81
2757.86
2753.44
2750.54
2749.16
2749.28
2750.96
2754.2
2759.01
2765.43
2773.5
2783.23
2794.7
2807.93
2822.94
2839.78
2858.49
2879.05
2901.45
2925.71
2951.76
2979.51
3008.88
3039.71
3071.83
3105
3137.84
3172.21
3206.88
3241.39
3275.4
3308.5
3340.31
3370.47
3398.63
3424.43
3447.55
3467.7
3484.61
3498.04
3507.78
3513.68
3515.62
3513.4
3507.15
3496.89
3482.76
3464.91
3443.59
3419.09
3391.75
3361.93
3330.04
3296.48
3261.7
3226.12
3190.15
3154.2
3119.13
3084.38
3050.73
3018.47
2987.81
2958.95
2932.06
2907.23
2884.55
2864.05
2845.72
2829.53
2815.4
2803.26
2793.01
2784.57
2777.83
2772.71
2769.12
2767
2766.28
2766.93
2768.9
2772.17
2776.75
2782.63
2789.83
2798.38
2808.29
2819.6
2832.34
2846.52
2862.17
2879.31
2897.95
2918.11
2939.79
2962.98
2987.67
3013.81
3041.35
3070.21
3100.25
3131.33
3163.27
3195.75
3228.52
3261.26
3293.61
3325.19
3355.58
3384.38
3411.17
3435.54
3457.11
3475.51
3490.45
3501.64
3508.88
3512.01
3510.96
3505.72
3496.37
3483
3465.82
3445.1
3421.14
3394.32
3365.05
3333.78
3300.97
3267.1
3232.62
3197.98
3163.6
3129.88
3097.14
3065.67
3035.71
3007.44
2980.98
2956.4
2933.73
2912.97
2894.08
2877.02
2861.73
2848.16
2836.23
2825.88
2817.06
2809.67
2803.68
2799.01
2795.62
2793.46
2792.49
2792.69
2794.01
2796.44
2799.99
2804.65
2810.44
2817.38
2825.52
2834.9
2845.55
2857.53
2870.9
2885.69
2901.96
2919.74
2939.06
2959.92
2982.32
3006.21
3031.53
3058.2
3086.1
3115.1
3145.03
3175.77
3206.9
3238.22
3269.44
3300.24
3330.25
3359.1
3386.42
3411.81
3434.89
3455.28
3472.64
3486.66
3497.06
3503.64
3506.26
3504.85
3499.44
3490.1
3476.98
3460.31
3440.37
3417.51
3392.08
3364.49
3335.16
3304.48
3272.89
3240.77
3208.52
3176.5
3145.04
3114.43
3084.92
3056.7
3029.92
3004.72
2981.16
2959.3
2939.16
2920.74
2904.03
2888.97
2875.52
2863.61
2853.19
2844.18
2836.52
2830.15
2825
2821.03
2818.18
2816.41
2815.69
2816
2817.31
2819.62
2822.91
2827.18
2832.44
2838.7
2845.96
2854.25
2863.61
2874.1
2885.77
2898.69
2912.92
2928.52
2945.55
2964.06
2984.05
3005.54
3028.48
3052.85
3078.56
3105.52
3133.63
3162.14
3191.8
3222.13
3252.81
3283.53
3313.97
3343.72
3372.33
3399.38
3424.42
3446.98
3466.66
3483.1
3495.96
3505
3510.02
3510.94
3507.52
3500.02
3488.59
3473.44
3454.88
3433.26
3408.97
3382.45
3354.16
3324.53
3294.01
3263.02
3231.93
3201.1
3170.8
3141.4
3114.04
3087.13
3061.05
3036.06
3012.29
2989.76
2968.5
2948.5
2929.74
2912.21
2895.9
2880.8
2866.93
2854.29
2842.91
2832.84
2824.1
2816.75
2810.83
2806.39
2803.48
2802.14
2802.43
2804.46
2808.24
2813.77
2821.02
2830.01
2840.74
2853.19
2867.35
2883.18
2900.64
2919.65
2940.14
2961.96
2984.99
3406.17
3390.85
3371.85
3349.43
3323.89
3295.58
3264.91
3232.3
3198.18
3163.02
3127.25
3091.31
3055.75
3024.59
2990.79
2957.82
2926.13
2895.96
2867.43
2840.67
2815.73
2792.63
2771.41
2752.03
2734.48
2718.72
2704.69
2692.37
2681.7
2672.64
2665.15
2659.21
2654.8
2651.9
2650.52
2650.64
2652.3
2655.54
2660.34
2666.74
2674.79
2684.51
2695.95
2709.16
2724.15
2740.98
2759.67
2780.22
2802.62
2826.88
2852.93
2880.71
2910.11
2940.97
2973.15
3006.38
3039.39
3073.85
3108.62
3143.26
3177.39
3210.63
3242.59
3272.9
3301.2
3327.14
3350.39
3370.66
3387.67
3401.19
3411
3416.95
3418.91
3416.69
3410.41
3400.1
3385.88
3367.93
3346.48
3321.83
3294.34
3264.36
3232.3
3198.59
3163.65
3127.92
3091.81
3055.71
3020.58
2985.7
2951.97
2919.64
2888.93
2860.03
2833.11
2808.28
2785.61
2765.12
2746.82
2730.65
2716.56
2704.46
2694.26
2685.85
2679.14
2674.05
2670.49
2668.39
2667.69
2668.35
2670.32
2673.6
2678.17
2684.05
2691.24
2699.77
2709.67
2720.97
2733.69
2747.86
2763.49
2780.62
2799.25
2819.4
2841.07
2864.26
2888.95
2915.1
2942.66
2971.54
3001.63
3032.77
3064.78
3097.36
3130.24
3163.1
3195.59
3227.31
3257.87
3286.83
3313.78
3338.3
3360.02
3378.56
3393.61
3404.89
3412.19
3415.36
3414.3
3409.04
3399.62
3386.16
3368.87
3348
3323.89
3296.9
3267.45
3236.01
3203.02
3168.98
3134.34
3099.56
3065.07
3031.24
2998.41
2966.88
2936.87
2908.58
2882.11
2857.53
2834.88
2814.13
2795.27
2778.24
2762.98
2749.44
2737.54
2727.23
2718.42
2711.07
2705.09
2700.45
2697.08
2694.93
2693.98
2694.18
2695.5
2697.94
2701.48
2706.14
2711.91
2718.85
2726.97
2736.32
2746.95
2758.91
2772.26
2787.03
2803.28
2821.04
2840.35
2861.2
2883.6
2907.5
2932.84
2959.54
2987.48
3016.53
3046.53
3077.33
3108.55
3139.97
3171.32
3202.24
3232.39
3261.39
3288.86
3314.4
3337.63
3358.16
3375.65
3389.78
3400.26
3406.9
3409.55
3408.14
3402.69
3393.27
3380.06
3363.27
3343.19
3320.18
3294.59
3266.84
3237.35
3206.52
3174.78
3142.52
3110.15
3078.02
3046.47
3015.79
2986.22
2957.96
2931.16
2905.93
2882.37
2860.51
2840.39
2821.99
2805.29
2790.26
2776.84
2764.96
2754.57
2745.58
2737.95
2731.6
2726.48
2722.52
2719.69
2717.93
2717.23
2717.54
2718.86
2721.17
2724.46
2728.73
2733.98
2740.23
2747.48
2755.76
2765.1
2775.56
2787.2
2800.09
2814.29
2829.87
2846.88
2865.36
2885.34
2906.81
2929.76
2954.12
2979.84
3006.82
3034.97
3063.57
3093.28
3123.68
3154.47
3185.32
3215.91
3245.82
3274.6
3301.82
3327.04
3349.76
3369.61
3386.18
3399.15
3408.27
3413.33
3414.26
3410.81
3403.24
3391.72
3376.45
3357.76
3335.98
3311.51
3284.82
3256.36
3226.57
3195.9
3164.78
3133.58
3102.63
3072.23
3042.72
3015.54
2988.55
2962.43
2937.42
2913.64
2891.12
2869.87
2849.89
2831.14
2813.62
2797.32
2782.23
2768.35
2755.71
2744.33
2734.25
2725.5
2718.13
2712.2
2707.75
2704.82
2703.47
2703.74
2705.76
2709.54
2715.06
2722.3
2731.29
2742.02
2754.47
2768.63
2784.46
2801.92
2820.94
2841.44
2863.28
2886.34
3309.59
3294.14
3275
3252.42
3226.7
3198.2
3167.34
3134.54
3100.24
3064.89
3028.95
2992.82
2957.02
2926.1
2892.09
2859.01
2827.26
2797.04
2768.5
2741.73
2716.79
2693.71
2672.5
2653.15
2635.62
2619.89
2605.89
2593.59
2582.94
2573.9
2566.43
2560.5
2556.1
2553.21
2551.82
2551.94
2553.59
2556.81
2561.61
2567.99
2576.02
2585.72
2597.14
2610.33
2625.3
2642.1
2660.78
2681.31
2703.7
2727.96
2754.03
2781.82
2811.25
2842.17
2874.4
2907.69
2940.9
2975.44
3010.34
3045.11
3079.4
3112.8
3144.92
3175.39
3203.85
3229.94
3253.33
3273.74
3290.87
3304.48
3314.37
3320.38
3322.36
3320.15
3313.83
3303.46
3289.14
3271.08
3249.48
3224.68
3197.01
3166.85
3134.61
3100.72
3065.61
3029.7
2993.44
2957.2
2921.95
2886.96
2853.13
2820.72
2789.95
2761.02
2734.08
2709.23
2686.56
2666.1
2647.82
2631.69
2617.64
2605.59
2595.42
2587.06
2580.39
2575.33
2571.8
2569.73
2569.05
2569.72
2571.7
2574.98
2579.55
2585.41
2592.6
2601.11
2611
2622.28
2634.98
2649.13
2664.75
2681.86
2700.48
2720.62
2742.28
2765.47
2790.16
2816.32
2843.9
2872.81
2902.95
2934.15
2966.26