/*--------------------------------*- C++ -*----------------------------------*\
| =========                 |                                                 |
| \\      /  F ield         | OpenFOAM: The Open Source CFD Toolbox           |
|  \\    /   O peration     | Version:  3.0.1                                 |
|   \\  /    A nd           | Web:      www.OpenFOAM.org                      |
|    \\/     M anipulation  |                                                 |
\*---------------------------------------------------------------------------*/
FoamFile
{
    version     2.0;
    format      ascii;
    class       surfaceScalarField;
    location    "20.8";
    object      alphaPhi;
}
// * * * * * * * * * * * * * * * * * * * * * * * * * * * * * * * * * * * * * //

dimensions      [0 3 -1 0 0 0 0];

internalField   nonuniform List<scalar> 
42423
(
0.000201441
-9.96611e-06
0.000209533
-8.09188e-06
0.000215361
-5.82859e-06
0.000218813
-3.45181e-06
0.000219919
-1.10584e-06
0.00021856
1.35921e-06
0.000214696
3.86362e-06
0.000208402
6.29429e-06
0.000199726
8.67592e-06
0.00018904
1.0686e-05
0.00017645
1.25903e-05
0.000162067
1.43824e-05
0.000146378
1.56896e-05
0.000129407
1.69703e-05
0.000111711
1.7696e-05
9.33002e-05
1.84111e-05
7.44216e-05
1.88787e-05
5.54566e-05
1.8965e-05
3.65727e-05
1.88839e-05
1.80346e-05
1.85381e-05
-9.61258e-08
1.81307e-05
-1.7679e-05
1.75828e-05
-3.45073e-05
1.68283e-05
-5.05026e-05
1.59953e-05
-6.55962e-05
1.50937e-05
-7.97182e-05
1.41219e-05
-9.28744e-05
1.31562e-05
-0.000105016
1.21418e-05
-0.000116153
1.11372e-05
-0.000126318
1.01644e-05
-0.000135519
9.20114e-06
-0.000143779
8.25993e-06
-0.000151143
7.36396e-06
-0.000157624
6.48146e-06
-0.000163307
5.68304e-06
-0.000168191
4.88387e-06
-0.000172301
4.10965e-06
-0.000175667
3.36593e-06
-0.000178298
2.6316e-06
-0.000180249
1.95047e-06
-0.000181531
1.28173e-06
-0.000182151
6.20828e-07
-0.000182075
-7.6622e-08
-0.000181311
-7.63807e-07
-0.000179784
-1.52686e-06
-0.000177527
-2.2576e-06
-0.000174613
-2.91343e-06
-0.000170819
-3.79433e-06
-0.00016628
-4.53867e-06
-0.000160986
-5.29363e-06
-0.000154719
-6.2673e-06
-0.000147609
-7.10979e-06
-0.0001394
-8.20975e-06
-0.000130354
-9.04527e-06
-0.000120445
-9.90906e-06
-0.000109312
-1.1133e-05
-9.72761e-05
-1.20364e-05
-8.4429e-05
-1.28472e-05
-7.05774e-05
-1.38516e-05
-5.58088e-05
-1.47687e-05
-4.0185e-05
-1.56238e-05
-2.38169e-05
-1.63681e-05
-6.92748e-06
-1.68895e-05
1.04783e-05
-1.74058e-05
2.83454e-05
-1.78671e-05
4.6272e-05
-1.79267e-05
6.42448e-05
-1.79728e-05
8.20383e-05
-1.77936e-05
9.94183e-05
-1.73801e-05
0.000116335
-1.69172e-05
0.00013246
-1.61248e-05
0.000147615
-1.51553e-05
0.000161557
-1.39415e-05
0.000174056
-1.24996e-05
0.000185067
-1.10102e-05
0.000194243
-9.17653e-06
0.00020157
-7.32679e-06
0.000206738
-5.16779e-06
0.000209706
-2.96858e-06
0.000210455
-7.48852e-07
0.000208919
1.53621e-06
0.000204992
3.92657e-06
0.000198817
6.17521e-06
0.000190423
8.39455e-06
0.00017986
1.05627e-05
0.000167488
1.23722e-05
0.000153291
1.41973e-05
0.000137782
1.55085e-05
0.000120941
1.6841e-05
0.000103203
1.77381e-05
8.47121e-05
1.84911e-05
6.56992e-05
1.90129e-05
4.65663e-05
1.91329e-05
2.74623e-05
1.9104e-05
8.59033e-06
1.8872e-05
-9.84097e-06
1.84313e-05
-2.77409e-05
1.79e-05
-4.47788e-05
1.70379e-05
-6.0971e-05
1.61922e-05
-7.62038e-05
1.52329e-05
-9.01887e-05
1.39849e-05
-0.000103052
1.28631e-05
-0.00011487
1.18185e-05
-0.000125343
1.04725e-05
-0.000134737
9.39385e-06
-0.000143126
8.38992e-06
-0.000150441
7.31503e-06
-0.000156842
6.40068e-06
-0.000162349
5.5064e-06
-0.000166991
4.64219e-06
-0.000170878
3.88692e-06
-0.000174003
3.12508e-06
-0.000176426
2.42379e-06
-0.00017816
1.73332e-06
-0.000179254
1.09405e-06
-0.000179724
4.70621e-07
-0.000179576
-1.4835e-07
-0.000178745
-8.31214e-07
-0.000177406
-1.33878e-06
-0.000175361
-2.04521e-06
-0.000172682
-2.67834e-06
-0.000169372
-3.3102e-06
-0.000165397
-3.97561e-06
-0.000160747
-4.64918e-06
-0.000155378
-5.36987e-06
-0.000149334
-6.04331e-06
-0.000142529
-6.80543e-06
-0.000134913
-7.61542e-06
-0.000126456
-8.45731e-06
-0.000117153
-9.3031e-06
-0.000106955
-1.0198e-05
-9.57769e-05
-1.11783e-05
-8.36178e-05
-1.21592e-05
-7.0578e-05
-1.30398e-05
-5.65598e-05
-1.40183e-05
-4.16024e-05
-1.49575e-05
-2.57423e-05
-1.58601e-05
-9.21567e-06
-1.65267e-05
8.00991e-06
-1.72256e-05
2.57445e-05
-1.77347e-05
4.38385e-05
-1.80941e-05
6.20734e-05
-1.8235e-05
8.02705e-05
-1.81971e-05
9.81727e-05
-1.79022e-05
0.000115515
-1.73421e-05
0.00013207
-1.65549e-05
0.00014759
-1.55205e-05
0.00016189
-1.43e-05
0.00017464
-1.27498e-05
0.000185646
-1.10065e-05
0.000194693
-9.04637e-06
0.000201597
-6.90407e-06
0.00020625
-4.65385e-06
0.000208547
-2.29609e-06
0.000208532
1.4984e-08
0.000206147
2.3845e-06
0.000201392
4.75525e-06
0.000194422
6.96989e-06
0.000185209
9.21336e-06
0.000174127
1.10817e-05
0.000161229
1.28981e-05
0.000146768
1.4461e-05
0.000131052
1.57164e-05
0.000114264
1.67872e-05
9.66808e-05
1.75835e-05
7.85753e-05
1.81055e-05
6.01826e-05
1.83928e-05
4.17691e-05
1.84135e-05
2.35577e-05
1.82114e-05
5.67385e-06
1.78839e-05
-1.16174e-05
1.72913e-05
-2.82349e-05
1.66175e-05
-4.41811e-05
1.59461e-05
-5.91891e-05
1.5008e-05
-7.32294e-05
1.40403e-05
-8.62411e-05
1.30117e-05
-9.82521e-05
1.2011e-05
-0.000109478
1.12263e-05
-0.000119652
1.01735e-05
-0.00012888
9.22833e-06
-0.000137285
8.40454e-06
-0.000144803
7.51782e-06
-0.000151484
6.68185e-06
-0.000157431
5.9461e-06
-0.000162537
5.10638e-06
-0.000166933
4.39569e-06
-0.000170574
3.64138e-06
-0.000173501
2.92674e-06
-0.000175777
2.27619e-06
-0.000177348
1.57152e-06
-0.000178248
8.99785e-07
-0.000178459
2.10419e-07
-0.000177981
-4.77755e-07
-0.000176856
-1.12517e-06
-0.000174978
-1.87716e-06
-0.00017242
-2.55853e-06
-0.000169099
-3.32131e-06
-0.000164985
-4.1137e-06
-0.000160116
-4.8693e-06
-0.000154418
-5.69739e-06
-0.000147889
-6.52912e-06
-0.000140497
-7.39204e-06
-0.000132323
-8.17376e-06
-0.000123206
-9.1177e-06
-0.000113166
-1.00402e-05
-0.000102272
-1.08936e-05
-9.04716e-05
-1.18004e-05
-7.77628e-05
-1.27088e-05
-6.41549e-05
-1.36079e-05
-4.96685e-05
-1.44864e-05
-3.43961e-05
-1.52725e-05
-1.83558e-05
-1.60404e-05
-1.66699e-06
-1.66888e-05
1.55899e-05
-1.7257e-05
3.32731e-05
-1.76832e-05
5.12003e-05
-1.79272e-05
6.92649e-05
-1.80647e-05
8.72848e-05
-1.80199e-05
0.000104908
-1.76232e-05
0.000122001
-1.70936e-05
0.000138233
-1.6232e-05
0.000153418
-1.51849e-05
0.000167228
-1.38095e-05
0.00017937
-1.2142e-05
0.000189751
-1.03812e-05
0.000198117
-8.36622e-06
0.00020417
-6.05243e-06
0.000207924
-3.75398e-06
0.000209155
-1.23113e-06
0.000208007
1.14764e-06
0.000204266
3.74119e-06
0.000198115
6.15106e-06
0.000189776
8.33869e-06
0.000179393
1.03829e-05
0.000167146
1.22472e-05
0.0001533
1.38457e-05
0.000138138
1.51627e-05
0.000121975
1.61622e-05
0.000105011
1.69641e-05
8.75601e-05
1.74513e-05
6.98397e-05
1.77204e-05
5.20969e-05
1.77428e-05
3.44937e-05
1.76032e-05
1.72539e-05
1.72398e-05
5.75789e-07
1.66782e-05
-1.55357e-05
1.61115e-05
-3.08916e-05
1.53559e-05
-4.56317e-05
1.47402e-05
-5.95381e-05
1.39063e-05
-7.25921e-05
1.30541e-05
-8.49468e-05
1.23547e-05
-9.65785e-05
1.16316e-05
-0.000107347
1.0769e-05
-0.000117215
9.86769e-06
-0.000126374
9.15858e-06
-0.000134869
8.49577e-06
-0.000142488
7.61829e-06
-0.000149418
6.93012e-06
-0.000155651
6.23301e-06
-0.000161096
5.4451e-06
-0.000165781
4.68465e-06
-0.000169698
3.91736e-06
-0.000172809
3.11068e-06
-0.000175136
2.32779e-06
-0.000176628
1.49161e-06
-0.000177278
6.49799e-07
-0.000177106
-1.71651e-07
-0.000176092
-1.01425e-06
-0.00017414
-1.95125e-06
-0.000171295
-2.8454e-06
-0.000167603
-3.69251e-06
-0.00016299
-4.61207e-06
-0.00015733
-5.66013e-06
-0.000150732
-6.59806e-06
-0.000143176
-7.55586e-06
-0.000134719
-8.45783e-06
-0.000125139
-9.57978e-06
-0.000114746
-1.03932e-05
-0.000103366
-1.13799e-05
-9.11025e-05
-1.22633e-05
-7.80255e-05
-1.3077e-05
-6.40797e-05
-1.39458e-05
-4.94158e-05
-1.46639e-05
-3.4102e-05
-1.53139e-05
-1.83253e-05
-1.57767e-05
-1.99824e-06
-1.63271e-05
1.47617e-05
-1.67599e-05
3.18398e-05
-1.70782e-05
4.90214e-05
-1.71816e-05
6.62697e-05
-1.72484e-05
8.34752e-05
-1.72055e-05
0.000100353
-1.68781e-05
0.00011682
-1.64668e-05
0.000132781
-1.59609e-05
0.000147911
-1.51306e-05
0.000162103
-1.41916e-05
0.000175196
-1.30927e-05
0.000186931
-1.1735e-05
0.000197246
-1.03159e-05
0.000205841
-8.59459e-06
0.000212641
-6.79987e-06
0.000217471
-4.82991e-06
0.000220091
-2.62032e-06
0.000220545
-4.54532e-07
0.000218873
1.67202e-06
0.000214835
4.03884e-06
0.000208734
6.10059e-06
0.000200413
8.32067e-06
0.000190146
1.02675e-05
0.000178003
1.21427e-05
0.000163983
1.40197e-05
0.000148543
1.54398e-05
0.000131788
1.67555e-05
0.000113992
1.77963e-05
9.54765e-05
1.85151e-05
7.6451e-05
1.90255e-05
5.72508e-05
1.92002e-05
3.80295e-05
1.92213e-05
1.91158e-05
1.89137e-05
8.30383e-07
1.82854e-05
-1.6922e-05
1.77524e-05
-3.38464e-05
1.69244e-05
-4.97749e-05
1.59285e-05
-6.4656e-05
1.4881e-05
-7.83983e-05
1.37424e-05
-9.09991e-05
1.26007e-05
-0.000102429
1.143e-05
-0.000112688
1.02592e-05
-0.000121822
9.1334e-06
-0.000129857
8.03495e-06
-0.000136842
6.98577e-06
-0.000142848
6.0053e-06
-0.000147919
5.07128e-06
-0.000152099
4.18022e-06
-0.000155445
3.34623e-06
-0.000158012
2.56672e-06
-0.000159837
1.82444e-06
-0.000160972
1.13562e-06
-0.000161453
4.8038e-07
-0.000161183
-2.69452e-07
-0.000160245
-9.37942e-07
-0.000158627
-1.61807e-06
-0.000156385
-2.24258e-06
-0.000153436
-2.94889e-06
-0.000149881
-3.55489e-06
-0.000145763
-4.118e-06
-0.000140937
-4.8256e-06
-0.000135417
-5.51979e-06
-0.000129267
-6.1502e-06
-0.000122356
-6.91144e-06
-0.000114756
-7.59962e-06
-0.000106345
-8.41091e-06
-9.72112e-05
-9.13405e-06
-8.72986e-05
-9.91256e-06
-7.6462e-05
-1.08366e-05
-6.47509e-05
-1.17112e-05
-1.26105e-05
0.000201542
-1.99551e-05
0.000209647
-1.61966e-05
0.000215475
-1.16565e-05
0.000218935
-6.91219e-06
0.000220051
-2.22153e-06
0.000218683
2.72757e-06
0.000214814
7.73216e-06
0.000208515
1.25929e-05
0.000199832
1.73596e-05
0.000189138
2.13794e-05
0.000176537
2.51919e-05
0.00016215
2.87693e-05
0.000146445
3.13942e-05
0.00012946
3.39554e-05
0.000111752
3.54036e-05
9.33291e-05
3.68344e-05
7.4436e-05
3.77717e-05
5.54622e-05
3.79388e-05
3.65712e-05
3.7775e-05
1.80212e-05
3.70881e-05
-1.15366e-07
3.62673e-05
-1.77034e-05
3.51709e-05
-3.45374e-05
3.36622e-05
-5.05376e-05
3.19955e-05
-6.56355e-05
3.01916e-05
-7.97624e-05
2.82488e-05
-9.29235e-05
2.63173e-05
-0.000105068
2.42862e-05
-0.000116207
2.22761e-05
-0.000126371
2.03291e-05
-0.000135573
1.84025e-05
-0.000143832
1.65191e-05
-0.000151202
1.47345e-05
-0.000157692
1.29711e-05
-0.000163368
1.13591e-05
-0.000168245
9.76045e-06
-0.000172354
8.21936e-06
-0.000175718
6.72951e-06
-0.000178354
5.26733e-06
-0.000180305
3.90149e-06
-0.000181588
2.56456e-06
-0.000182209
1.24262e-06
-0.000182135
-1.51365e-07
-0.00018137
-1.52868e-06
-0.000179851
-3.04529e-06
-0.00017759
-4.51927e-06
-0.000174677
-5.82594e-06
-0.000170888
-7.58407e-06
-0.000166348
-9.0786e-06
-0.000161055
-1.05863e-05
-0.000154787
-1.25355e-05
-0.000147685
-1.42121e-05
-0.000139473
-1.64218e-05
-0.000130422
-1.80958e-05
-0.000120512
-1.9819e-05
-0.000109402
-2.22436e-05
-9.73436e-05
-2.40945e-05
-8.4492e-05
-2.56988e-05
-7.06294e-05
-2.77143e-05
-5.58704e-05
-2.95277e-05
-4.02418e-05
-3.12525e-05
-2.38606e-05
-3.27494e-05
-6.95948e-06
-3.37906e-05
1.04513e-05
-3.48167e-05
2.83337e-05
-3.57496e-05
4.62797e-05
-3.58728e-05
6.42666e-05
-3.59597e-05
8.20735e-05
-3.56005e-05
9.94582e-05
-3.47649e-05
0.000116394
-3.38529e-05
0.000132541
-3.22722e-05
0.000147702
-3.03165e-05
0.000161647
-2.78866e-05
0.000174163
-2.50152e-05
0.000185183
-2.20307e-05
0.000194366
-1.83587e-05
0.000201702
-1.46631e-05
0.000206882
-1.03483e-05
0.000209855
-5.94148e-06
0.000210592
-1.48545e-06
0.000209041
3.08732e-06
0.000205111
7.85695e-06
0.000198923
1.23627e-05
0.000190508
1.68095e-05
0.00017994
2.1131e-05
0.000167555
2.4757e-05
0.000153356
2.83967e-05
0.000137826
3.10384e-05
0.00012097
3.36969e-05
0.000103224
3.54849e-05
8.47124e-05
3.70024e-05
6.56857e-05
3.80397e-05
4.65511e-05
3.82675e-05
2.74383e-05
3.82168e-05
8.55096e-06
3.77594e-05
-9.89371e-06
3.6876e-05
-2.78024e-05
3.58088e-05
-4.48446e-05
3.40801e-05
-6.10351e-05
3.23827e-05
-7.62803e-05
3.0478e-05
-9.02745e-05
2.79791e-05
-0.000103124
2.57128e-05
-0.000114932
2.36269e-05
-0.000125404
2.09443e-05
-0.000134799
1.87885e-05
-0.000143192
1.67832e-05
-0.000150503
1.46262e-05
-0.000156905
1.28024e-05
-0.000162406
1.10072e-05
-0.000167049
9.28606e-06
-0.000170936
7.77353e-06
-0.000174044
6.23317e-06
-0.000176463
4.84242e-06
-0.0001782
3.47038e-06
-0.000179296
2.19032e-06
-0.000179774
9.4903e-07
-0.000179626
-2.97024e-07
-0.00017879
-1.6672e-06
-0.000177439
-2.68893e-06
-0.000175392
-4.09263e-06
-0.000172719
-5.35098e-06
-0.000169409
-6.62078e-06
-0.000165429
-7.95536e-06
-0.000160778
-9.29989e-06
-0.000155414
-1.0734e-05
-0.000149374
-1.20837e-05
-0.000142568
-1.36114e-05
-0.000134962
-1.5221e-05
-0.000126504
-1.69155e-05
-0.000117191
-1.86163e-05
-0.000106995
-2.03944e-05
-9.58227e-05
-2.23502e-05
-8.36743e-05
-2.43076e-05
-7.06205e-05
-2.60937e-05
-5.66005e-05
-2.80383e-05
-4.16398e-05
-2.99182e-05
-2.57734e-05
-3.17266e-05
-9.24453e-06
-3.30556e-05
7.99198e-06
-3.44622e-05
2.57351e-05
-3.54778e-05
4.38401e-05
-3.61991e-05
6.20826e-05
-3.64775e-05
8.02938e-05
-3.64084e-05
9.82155e-05
-3.5824e-05
0.000115556
-3.46821e-05
0.000132118
-3.31176e-05
0.000147651
-3.10538e-05
0.000161951
-2.86e-05
0.000174719
-2.55177e-05
0.000185744
-2.20319e-05
0.00019478
-1.80821e-05
0.000201693
-1.38168e-05
0.000206349
-9.30978e-06
0.000208641
-4.58847e-06
0.000208625
3.13342e-08
0.000206234
4.77501e-06
0.000201472
9.51792e-06
0.000194498
1.39436e-05
0.000185272
1.84391e-05
0.000174183
2.21714e-05
0.000161279
2.58015e-05
0.000146806
2.89345e-05
0.000131076
3.1446e-05
0.000114274
3.35898e-05
9.66749e-05
3.51824e-05
7.85668e-05
3.62136e-05
6.01708e-05
3.67888e-05
4.17475e-05
3.68368e-05
2.35168e-05
3.64422e-05
5.6382e-06
3.57625e-05
-1.16743e-05
3.46038e-05
-2.82896e-05
3.32328e-05
-4.42382e-05
3.18948e-05
-5.92545e-05
3.00244e-05
-7.33002e-05
2.80861e-05
-8.63148e-05
2.60264e-05
-9.83182e-05
2.40145e-05
-0.00010954
2.24486e-05
-0.000119705
2.0338e-05
-0.000128933
1.84569e-05
-0.00013734
1.68111e-05
-0.000144852
1.50304e-05
-0.000151544
1.33734e-05
-0.000157485
1.1887e-05
-0.00016258
1.02014e-05
-0.000166973
8.78885e-06
-0.000170625
7.29295e-06
-0.000173552
5.8541e-06
-0.000175822
4.54683e-06
-0.000177391
3.13986e-06
-0.000178289
1.79762e-06
-0.000178496
4.17972e-07
-0.00017802
-9.53858e-07
-0.000176897
-2.2486e-06
-0.000175021
-3.75259e-06
-0.00017246
-5.1198e-06
-0.000169138
-6.64325e-06
-0.000165032
-8.21973e-06
-0.000160168
-9.73371e-06
-0.000154466
-1.13992e-05
-0.000147937
-1.30583e-05
-0.000140543
-1.47857e-05
-0.000132359
-1.63581e-05
-0.000123251
-1.8225e-05
-0.000113216
-2.00753e-05
-0.000102322
-2.17884e-05
-9.05124e-05
-2.36096e-05
-7.77988e-05
-2.54225e-05
-6.41959e-05
-2.72109e-05
-4.971e-05
-2.89723e-05
-3.44244e-05
-3.05582e-05
-1.83807e-05
-3.20841e-05
-1.69043e-06
-3.33792e-05
1.55784e-05
-3.45259e-05
3.3275e-05
-3.53799e-05
5.12064e-05
-3.58587e-05
6.9281e-05
-3.61394e-05
8.73127e-05
-3.60517e-05
0.000104939
-3.52493e-05
0.000122047
-3.42021e-05
0.000138281
-3.24659e-05
0.000153475
-3.03791e-05
0.000167298
-2.7633e-05
0.00017945
-2.42938e-05
0.000189831
-2.07624e-05
0.000198205
-1.67399e-05
0.000204281
-1.21285e-05
0.000208022
-7.49547e-06
0.000209253
-2.46184e-06
0.000208099
2.30215e-06
0.000204348
7.49214e-06
0.000198191
1.23073e-05
0.000189844
1.66863e-05
0.000179446
2.07812e-05
0.000167196
2.44966e-05
0.000153341
2.77009e-05
0.000138163
3.03404e-05
0.000121983
3.23424e-05
0.000105004
3.3943e-05
8.75389e-05
3.49168e-05
6.98209e-05
3.54383e-05
5.20733e-05
3.54905e-05
3.44382e-05
3.52383e-05
1.72038e-05
3.44742e-05
5.29348e-07
3.33527e-05
-1.55836e-05
3.22245e-05
-3.0941e-05
3.07133e-05
-4.56908e-05
2.949e-05
-5.95963e-05
2.78118e-05
-7.26488e-05
2.61066e-05
-8.50059e-05
2.4712e-05
-9.66385e-05
2.32643e-05
-0.000107411
2.15416e-05
-0.000117271
1.9728e-05
-0.000126416
1.83032e-05
-0.000134921
1.70008e-05
-0.000142545
1.52427e-05
-0.00014947
1.38548e-05
-0.000155703
1.24665e-05
-0.000161151
1.08926e-05
-0.000165835
9.36902e-06
-0.000169756
7.83775e-06
-0.000172864
6.21941e-06
-0.000175186
4.64998e-06
-0.000176682
2.98669e-06
-0.00017734
1.30786e-06
-0.000177167
-3.44312e-07
-0.000176143
-2.03837e-06
-0.0001742
-3.89382e-06
-0.000171353
-5.69219e-06
-0.000167657
-7.38867e-06
-0.000163045
-9.22423e-06
-0.000157392
-1.13126e-05
-0.000150794
-1.31969e-05
-0.000143233
-1.51169e-05
-0.00013478
-1.6911e-05
-0.000125202
-1.9157e-05
-0.000114802
-2.07936e-05
-0.000103423
-2.27587e-05
-9.11565e-05
-2.45299e-05
-7.80809e-05
-2.61526e-05
-6.41244e-05
-2.79025e-05
-4.94549e-05
-2.93334e-05
-3.41361e-05
-3.06327e-05
-1.836e-05
-3.1553e-05
-2.02617e-06
-3.26609e-05
1.47388e-05
-3.3525e-05
3.18205e-05
-3.416e-05
4.9006e-05
-3.43672e-05
6.6254e-05
-3.44965e-05
8.34624e-05
-3.4414e-05
0.000100353
-3.3769e-05
0.000116829
-3.29426e-05
0.000132788
-3.19199e-05
0.000147919
-3.0262e-05
0.000162129
-2.84012e-05
0.000175239
-2.62027e-05
0.000186955
-2.34515e-05
0.000197232
-2.05935e-05
0.000205821
-1.71837e-05
0.000212664
-1.36421e-05
0.000217538
-9.70417e-06
0.000220174
-5.25645e-06
0.000220633
-9.13451e-07
0.000218964
3.34081e-06
0.000214934
8.0682e-06
0.000208839
1.21963e-05
0.000200514
1.66452e-05
0.000190241
2.05401e-05
0.000178092
2.42923e-05
0.000164063
2.80484e-05
0.000148612
3.08912e-05
0.000131846
3.35213e-05
0.000114038
3.56039e-05
9.55111e-05
3.70421e-05
7.64736e-05
3.8063e-05
5.72584e-05
3.84153e-05
3.80282e-05
3.84515e-05
1.9106e-05
3.78359e-05
8.09636e-07
3.65817e-05
-1.69512e-05
3.55132e-05
-3.3881e-05
3.38542e-05
-4.98166e-05
3.1864e-05
-6.47041e-05
2.97686e-05
-7.84537e-05
2.74919e-05
-9.10619e-05
2.5209e-05
-0.000102496
2.28636e-05
-0.000112752
2.05156e-05
-0.000121879
1.82602e-05
-0.000129915
1.60712e-05
-0.000136902
1.39726e-05
-0.000142907
1.20102e-05
-0.000147974
1.0139e-05
-0.000152153
8.35881e-06
-0.000155498
6.69101e-06
-0.000158065
5.13381e-06
-0.000159894
3.65331e-06
-0.000161029
2.27087e-06
-0.000161501
9.52728e-07
-0.000161229
-5.41933e-07
-0.000160293
-1.87405e-06
-0.000158669
-3.24124e-06
-0.000156423
-4.48906e-06
-0.000153478
-5.89348e-06
-0.000149922
-7.11121e-06
-0.000145804
-8.23634e-06
-0.000140972
-9.65691e-06
-0.000135457
-1.10353e-05
-0.000129305
-1.23017e-05
-0.000122392
-1.38249e-05
-0.000114792
-1.51994e-05
-0.000106379
-1.68237e-05
-9.72454e-05
-1.8268e-05
-8.73323e-05
-1.98256e-05
-7.64951e-05
-2.16738e-05
-6.47842e-05
-2.34221e-05
-2.52217e-05
0.000201729
-2.99735e-05
0.000209877
-2.43448e-05
0.00021573
-1.75099e-05
0.000219188
-1.03696e-05
0.000220294
-3.32821e-06
0.000218887
4.13474e-06
0.000215001
1.16185e-05
0.000208691
1.89027e-05
0.000199992
2.60584e-05
0.000189285
3.2087e-05
0.000176663
3.78137e-05
0.000162274
4.31582e-05
0.000146539
4.71291e-05
0.00012953
5.09641e-05
0.000111804
5.31303e-05
9.33616e-05
5.52763e-05
7.44452e-05
5.66881e-05
5.54589e-05
5.6925e-05
3.65619e-05
5.6672e-05
1.79865e-05
5.56635e-05
-1.65294e-07
5.4419e-05
-1.77668e-05
5.27724e-05
-3.46111e-05
5.05065e-05
-5.06201e-05
4.80046e-05
-6.57245e-05
4.52959e-05
-7.98538e-05
4.23781e-05
-9.3018e-05
3.94815e-05
-0.000105167
3.64347e-05
-0.000116306
3.34153e-05
-0.000126471
3.04939e-05
-0.000135673
2.76049e-05
-0.000143932
2.47786e-05
-0.000151303
2.21053e-05
-0.000157786
1.94542e-05
-0.000163459
1.70312e-05
-0.000168341
1.46427e-05
-0.000172455
1.23338e-05
-0.000175824
1.00987e-05
-0.000178463
7.90584e-06
-0.000180413
5.85139e-06
-0.000181693
3.8443e-06
-0.000182297
1.84715e-06
-0.000182202
-2.46669e-07
-0.000181425
-2.3057e-06
-0.000179906
-4.56413e-06
-0.000177648
-6.7769e-06
-0.000174738
-8.73661e-06
-0.000170955
-1.13671e-05
-0.000166413
-1.36205e-05
-0.000161122
-1.58767e-05
-0.000154856
-1.88021e-05
-0.000147763
-2.1305e-05
-0.000139548
-2.46366e-05
-0.000130495
-2.71486e-05
-0.000120576
-2.97387e-05
-0.000109485
-3.33348e-05
-9.74169e-05
-3.61623e-05
-8.45635e-05
-3.85523e-05
-7.06888e-05
-4.1589e-05
-5.59365e-05
-4.428e-05
-4.02998e-05
-4.68894e-05
-2.39097e-05
-4.91395e-05
-6.99564e-06
-5.07048e-05
1.04312e-05
-5.22436e-05
2.83231e-05
-5.36416e-05
4.62787e-05
-5.38286e-05
6.42885e-05
-5.39696e-05
8.21135e-05
-5.34256e-05
9.95144e-05
-5.21659e-05
0.000116471
-5.08093e-05
0.000132637
-4.84386e-05
0.000147824
-4.55039e-05
0.000161782
-4.18441e-05
0.000174316
-3.75495e-05
0.000185363
-3.30777e-05
0.00019456
-2.75556e-05
0.000201904
-2.20068e-05
0.000207084
-1.55287e-05
0.000210074
-8.93116e-06
0.000210807
-2.21905e-06
0.000209223
4.67137e-06
0.000205289
1.17917e-05
0.000199092
1.856e-05
0.000190661
2.52398e-05
0.000180086
3.17064e-05
0.000167688
3.71553e-05
0.000153475
4.26097e-05
0.000137929
4.6584e-05
0.000121039
5.05868e-05
0.000103276
5.32482e-05
8.47514e-05
5.55271e-05
6.56926e-05
5.70985e-05
4.65427e-05
5.74175e-05
2.74183e-05
5.73413e-05
8.51004e-06
5.66676e-05
-9.95344e-06
5.53395e-05
-2.78776e-05
5.37329e-05
-4.4936e-05
5.11386e-05
-6.11398e-05
4.85865e-05
-7.64063e-05
4.57446e-05
-9.04099e-05
4.19828e-05
-0.000103246
3.85489e-05
-0.000115045
3.54256e-05
-0.000125497
3.13967e-05
-0.000134891
2.81821e-05
-0.000143294
2.51862e-05
-0.000150596
2.19285e-05
-0.000157002
1.92086e-05
-0.000162503
1.65083e-05
-0.000167131
1.39139e-05
-0.000171024
1.16661e-05
-0.000174134
9.34353e-06
-0.000176545
7.25343e-06
-0.000178281
5.20659e-06
-0.000179369
3.27818e-06
-0.000179848
1.4276e-06
-0.000179703
-4.41456e-07
-0.000178873
-2.49697e-06
-0.000177511
-4.05128e-06
-0.000175465
-6.13853e-06
-0.000172791
-8.02489e-06
-0.000169478
-9.93406e-06
-0.000165507
-1.1926e-05
-0.000160855
-1.39526e-05
-0.000155501
-1.60871e-05
-0.000149445
-1.81401e-05
-0.000142641
-2.04156e-05
-0.000135038
-2.28234e-05
-0.000126592
-2.53624e-05
-0.000117283
-2.7925e-05
-0.000107077
-3.06001e-05
-9.59114e-05
-3.3516e-05
-8.37778e-05
-3.64413e-05
-7.0711e-05
-3.91606e-05
-5.66853e-05
-4.20641e-05
-4.17207e-05
-4.48828e-05
-2.58446e-05
-4.76028e-05
-9.30712e-06
-4.95932e-05
7.95171e-06
-5.17211e-05
2.57086e-05
-5.32347e-05
4.38215e-05
-5.43121e-05
6.20788e-05
-5.47349e-05
8.03085e-05
-5.46382e-05
9.82524e-05
-5.3768e-05
0.00011562
-5.20501e-05
0.000132195
-4.96924e-05
0.000147748
-4.66066e-05
0.000162073
-4.29255e-05
0.000174848
-3.82919e-05
0.000185898
-3.30823e-05
0.000194943
-2.71276e-05
0.000201865
-2.07388e-05
0.000206528
-1.39729e-05
0.000208841
-6.90051e-06
0.000208819
5.27234e-08
0.000206397
7.19673e-06
0.000201624
1.42916e-05
0.000194632
2.09354e-05
0.000185406
2.76652e-05
0.000174306
3.32707e-05
0.000161389
3.87186e-05
0.000146902
4.34215e-05
0.00013117
4.71782e-05
0.000114343
5.04167e-05
9.67043e-05
5.28214e-05
7.85679e-05
5.43499e-05
6.01593e-05
5.51974e-05
4.17214e-05
5.52748e-05
2.34772e-05
5.46863e-05
5.58263e-06
5.36571e-05
-1.17415e-05
5.1928e-05
-2.83591e-05
4.98505e-05
-4.43186e-05
4.78543e-05
-5.93482e-05
4.5054e-05
-7.33983e-05
4.21362e-05
-8.64236e-05
3.90517e-05
-9.84175e-05
3.60084e-05
-0.000109643
3.36741e-05
-0.000119794
3.04887e-05
-0.000129015
2.76784e-05
-0.000137431
2.52267e-05
-0.00014495
2.25495e-05
-0.000151653
2.00763e-05
-0.000157574
1.78082e-05
-0.000162663
1.52911e-05
-0.000167052
1.31771e-05
-0.0001707
1.09417e-05
-0.000173631
8.78522e-06
-0.000175904
6.81921e-06
-0.000177478
4.71443e-06
-0.000178374
2.6929e-06
-0.000178579
6.23481e-07
-0.000178098
-1.43536e-06
-0.000176966
-3.38016e-06
-0.0001751
-5.61916e-06
-0.000172537
-7.68272e-06
-0.000169213
-9.96721e-06
-0.000165103
-1.23295e-05
-0.000160245
-1.4592e-05
-0.000154548
-1.70958e-05
-0.000148021
-1.95849e-05
-0.000140647
-2.21604e-05
-0.000132446
-2.45584e-05
-0.000123332
-2.73393e-05
-0.000113298
-3.01093e-05
-0.00010242
-3.26666e-05
-9.05993e-05
-3.54304e-05
-7.78776e-05
-3.81442e-05
-6.42683e-05
-4.08203e-05
-4.97907e-05
-4.345e-05
-3.45012e-05
-4.58477e-05
-1.84414e-05
-4.8144e-05
-1.73382e-06
-5.00868e-05
1.5543e-05
-5.18028e-05
3.32451e-05
-5.3082e-05
5.11826e-05
-5.37962e-05
6.9279e-05
-5.42359e-05
8.73307e-05
-5.41034e-05
0.000104981
-5.28992e-05
0.000122115
-5.13364e-05
0.000138366
-4.87167e-05
0.000153585
-4.55988e-05
0.000167429
-4.14764e-05
0.000179597
-3.6462e-05
0.000189998
-3.11635e-05
0.000198368
-2.51098e-05
0.000204468
-1.82286e-05
0.000208224
-1.12514e-05
0.000209446
-3.68389e-06
0.000208252
3.49597e-06
0.000204504
1.124e-05
0.000198341
1.84706e-05
0.000189981
2.50461e-05
0.000179571
3.11911e-05
0.000167324
3.67441e-05
0.000153452
4.15726e-05
0.000138245
4.55474e-05
0.00012204
4.8547e-05
0.000105037
5.09459e-05
8.75494e-05
5.24048e-05
6.98123e-05
5.31755e-05
5.20456e-05
5.32572e-05
3.4387e-05
5.28968e-05
1.71478e-05
5.17135e-05
4.71088e-07
5.00294e-05
-1.56488e-05
4.83445e-05
-3.10073e-05
4.60717e-05
-4.57734e-05
4.42562e-05
-5.96916e-05
4.173e-05
-7.27446e-05
3.91596e-05
-8.50906e-05
3.7058e-05
-9.67116e-05
3.48853e-05
-0.000107486
3.23158e-05
-0.000117353
2.95952e-05
-0.000126497
2.74473e-05
-0.000135009
2.55127e-05
-0.000142628
2.28624e-05
-0.000149557
2.07832e-05
-0.00015579
1.86992e-05
-0.000161236
1.63386e-05
-0.000165919
1.40522e-05
-0.000169844
1.17626e-05
-0.000172955
9.33077e-06
-0.000175285
6.9801e-06
-0.000176777
4.47912e-06
-0.000177427
1.95783e-06
-0.000177252
-5.19315e-07
-0.000176208
-3.0831e-06
-0.000174289
-5.81189e-06
-0.000171441
-8.54013e-06
-0.000167735
-1.10946e-05
-0.000163117
-1.38423e-05
-0.000157472
-1.69585e-05
-0.000150877
-1.97919e-05
-0.000143315
-2.26781e-05
-0.000134859
-2.53673e-05
-0.000125289
-2.87274e-05
-0.000114875
-3.12076e-05
-0.000103499
-3.41343e-05
-9.122e-05
-3.6809e-05
-7.81469e-05
-3.92258e-05
-6.41839e-05
-4.18655e-05
-4.95054e-05
-4.40119e-05
-3.41755e-05
-4.59627e-05
-1.83955e-05
-4.7333e-05
-2.06084e-06
-4.89957e-05
1.47101e-05
-5.02959e-05
3.17999e-05
-5.125e-05
4.89928e-05
-5.15602e-05
6.62471e-05
-5.17508e-05
8.34608e-05
-5.16279e-05
0.000100352
-5.06605e-05
0.000116835
-4.94258e-05
0.000132807
-4.78912e-05
0.000147933
-4.53889e-05
0.000162138
-4.26056e-05
0.000175246
-3.93111e-05
0.000186979
-3.51848e-05
0.000197281
-3.08948e-05
0.000205869
-2.57722e-05
0.000212679
-2.04526e-05
0.000217541
-1.4566e-05
0.000220207
-7.92247e-06
0.000220717
-1.42305e-06
0.000219092
4.96588e-06
0.000215094
1.20658e-05
0.000209006
1.82845e-05
0.000200672
2.49784e-05
0.000190391
3.0822e-05
0.000178226
3.64568e-05
0.000164181
4.20934e-05
0.000148707
4.63648e-05
0.000131925
5.03034e-05
0.000114096
5.34334e-05
9.55476e-05
5.559e-05
7.64897e-05
5.71209e-05
5.72474e-05
5.76576e-05
3.80063e-05
5.76926e-05
1.90784e-05
5.67638e-05
7.53199e-07
5.49069e-05
-1.70231e-05
5.32895e-05
-3.39668e-05
5.07979e-05
-4.99136e-05
4.78108e-05
-6.48086e-05
4.46636e-05
-7.85611e-05
4.12444e-05
-9.11683e-05
3.78162e-05
-0.0001026
3.42955e-05
-0.00011286
3.07757e-05
-0.000121986
2.73861e-05
-0.000130021
2.41064e-05
-0.000137001
2.09523e-05
-0.000142997
1.80058e-05
-0.000148061
1.52032e-05
-0.00015224
1.25378e-05
-0.000155585
1.00357e-05
-0.000158148
7.69677e-06
-0.000159971
5.47655e-06
-0.000161096
3.39541e-06
-0.000161557
1.4142e-06
-0.000161279
-8.19601e-07
-0.00016033
-2.82288e-06
-0.000158709
-4.86232e-06
-0.000156466
-6.73206e-06
-0.000153526
-8.83356e-06
-0.000149967
-1.06706e-05
-0.000145849
-1.23541e-05
-0.000141018
-1.44878e-05
-0.000135508
-1.65452e-05
-0.000129357
-1.84526e-05
-0.000122445
-2.07376e-05
-0.000114848
-2.27961e-05
-0.000106436
-2.52359e-05
-9.73047e-05
-2.7399e-05
-8.73931e-05
-2.97373e-05
-7.65573e-05
-3.25095e-05
-6.48489e-05
-3.51306e-05
-3.78321e-05
0.000202003
-4.0031e-05
0.00021021
-3.25516e-05
0.000216118
-2.34178e-05
0.000219619
-1.38704e-05
0.000220717
-4.42642e-06
0.000219219
5.63213e-06
0.000215282
1.55564e-05
0.000208955
2.52296e-05
0.000200233
3.47798e-05
0.000189504
4.28159e-05
0.000176852
5.04662e-05
0.000162448
5.7562e-05
0.000146679
6.28977e-05
0.000129636
6.80073e-05
0.00011188
7.08864e-05
9.34104e-05
7.37462e-05
7.44594e-05
7.56391e-05
5.54541e-05
7.59303e-05
3.65511e-05
7.5575e-05
1.79343e-05
7.42803e-05
-2.40455e-07
7.25937e-05
-1.78617e-05
7.03937e-05
-3.47227e-05
6.73675e-05
-5.07442e-05
6.40261e-05
-6.58583e-05
6.04101e-05
-7.99956e-05
5.65154e-05
-9.31651e-05
5.2651e-05
-0.000105317
4.85865e-05
-0.000116458
4.45564e-05
-0.000126625
4.06605e-05
-0.000135826
3.68063e-05
-0.000144084
3.30368e-05
-0.000151455
2.94765e-05
-0.000157944
2.59433e-05
-0.000163609
2.26962e-05
-0.000168489
1.95222e-05
-0.000172598
1.64431e-05
-0.000175963
1.34635e-05
-0.000178601
1.05433e-05
-0.000180548
7.79926e-06
-0.000181825
5.1213e-06
-0.000182412
2.43417e-06
-0.000182299
-3.60208e-07
-0.000181507
-3.09727e-06
-0.000179984
-6.08725e-06
-0.000177738
-9.02305e-06
-0.000174829
-1.16457e-05
-0.000171057
-1.51391e-05
-0.000166512
-1.81657e-05
-0.000161224
-2.11643e-05
-0.00015496
-2.50662e-05
-0.000147883
-2.83824e-05
-0.000139663
-3.28562e-05
-0.000130606
-3.62062e-05
-0.000120675
-3.96699e-05
-0.000109604
-4.4405e-05
-9.75287e-05
-4.82379e-05
-8.46703e-05
-5.14107e-05
-7.07802e-05
-5.54792e-05
-5.60396e-05
-5.90207e-05
-4.03883e-05
-6.25408e-05
-2.39813e-05
-6.55466e-05
-7.05084e-06
-6.76354e-05
1.03985e-05
-6.9693e-05
2.83099e-05
-7.15531e-05
4.62853e-05
-7.1804e-05
6.43227e-05
-7.2007e-05
8.21654e-05
-7.12683e-05
9.95913e-05
-6.9592e-05
0.000116591
-6.78092e-05
0.000132783
-6.46301e-05
0.000147994
-6.07151e-05
0.000161983
-5.58334e-05
0.000174551
-5.0118e-05
0.000185622
-4.41484e-05
0.000194842
-3.6775e-05
0.000202205
-2.93699e-05
0.000207401
-2.07252e-05
0.000210405
-1.19348e-05
0.000211122
-2.93621e-06
0.000209499
6.29435e-06
0.000205558
1.57323e-05
0.000199348
2.47708e-05
0.000190887
3.37008e-05
0.000180303
4.22901e-05
0.000167889
4.95701e-05
0.00015365
5.68487e-05
0.000138065
6.21685e-05
0.000121136
6.75162e-05
0.00010336
7.10245e-05
8.48015e-05
7.40852e-05
6.56974e-05
7.62027e-05
4.65298e-05
7.65851e-05
2.7381e-05
7.649e-05
8.45273e-06
7.5596e-05
-1.00416e-05
7.38339e-05
-2.80052e-05
7.16965e-05
-4.50586e-05
6.8192e-05
-6.12764e-05
6.48044e-05
-7.65881e-05
6.10563e-05
-9.06036e-05
5.59983e-05
-0.00010341
5.1355e-05
-0.000115189
4.72052e-05
-0.000125631