/*--------------------------------*- C++ -*----------------------------------*\
| =========                 |                                                 |
| \\      /  F ield         | OpenFOAM: The Open Source CFD Toolbox           |
|  \\    /   O peration     | Version:  3.0.1                                 |
|   \\  /    A nd           | Web:      www.OpenFOAM.org                      |
|    \\/     M anipulation  |                                                 |
\*---------------------------------------------------------------------------*/
FoamFile
{
    version     2.0;
    format      ascii;
    class       volScalarField;
    location    "7.8";
    object      p_rgh;
}
// * * * * * * * * * * * * * * * * * * * * * * * * * * * * * * * * * * * * * //

dimensions      [1 -1 -2 0 0 0 0];

internalField   nonuniform List<scalar> 
21420
(
-323.683
-329.502
-333.919
-336.944
-338.521
-338.657
-337.505
-334.93
-330.928
-325.481
-318.548
-310.084
-300.03
-288.321
-274.888
-259.659
-242.561
-223.557
-202.615
-179.723
-154.91
-128.244
-99.7939
-69.7114
-38.1889
-5.45219
27.6757
61.8469
96.3655
130.802
164.757
197.876
229.76
260.036
288.336
314.306
337.65
358.083
375.355
389.27
399.664
406.42
409.466
408.587
403.937
395.623
383.713
368.401
349.845
328.239
303.848
276.936
247.806
216.79
184.236
150.549
116.129
81.418
46.9984
15.5847
-17.0229
-48.7443
-79.0145
-107.494
-133.93
-158.139
-179.997
-199.43
-216.414
-230.963
-243.122
-252.972
-260.613
-266.17
-269.765
-271.507
-271.526
-269.984
-266.982
-262.633
-257.04
-250.298
-242.488
-233.677
-223.92
-213.262
-201.735
-189.359
-176.144
-162.086
-147.182
-131.426
-114.811
-97.3369
-79.0164
-59.8803
-39.9787
-19.3845
1.80703
23.473
45.4675
67.6251
89.7635
111.682
133.166
153.995
173.943
192.786
210.301
226.276
240.512
252.829
263.075
271.111
276.834
280.178
281.082
279.596
275.711
269.507
261.075
250.55
238.091
223.884
208.138
191.085
172.967
154.037
134.551
114.762
94.9133
75.2382
55.9526
37.253
19.3135
2.29728
-13.6945
-28.5495
-42.186
-54.5452
-65.5894
-75.2994
-83.6725
-90.7212
-96.4715
-100.96
-104.236
-106.348
-107.349
-107.308
-106.292
-104.36
-101.577
-98.009
-93.7205
-88.7775
-83.2454
-77.1893
-70.6744
-63.7656
-56.5265
-49.0197
-41.3073
-33.4496
-25.5057
-17.5335
-9.58894
-1.72646
6.00135
13.5475
20.8646
27.9089
34.6402
41.0215
47.0203
52.6075
57.7582
62.4519
66.6725
70.4086
73.6528
76.403
78.6612
80.434
81.7318
82.5692
82.9628
82.9353
82.5077
81.7055
80.5544
79.0821
77.3171
75.289
73.0277
70.5633
67.9256
65.1441
62.2472
59.2626
56.2162
53.1331
50.0363
46.9473
43.8858
40.8696
37.9148
35.0355
32.244
29.5509
26.9648
24.4929
22.1407
19.9125
17.8109
15.8374
13.9925
12.2755
10.6849
9.21833
7.87271
6.6444
5.52931
4.52281
3.61997
2.81563
2.10442
1.4812
0.941285
0.477424
0.0824191
-0.248055
-0.519069
-0.73581
-0.903342
-1.02656
-1.11018
-1.15864
-1.17612
-1.16652
-1.1335
-1.08044
-1.01048
-0.92652
-0.831227
-0.727041
-0.616163
-0.500583
-0.382084
-0.26225
-0.142483
-0.0240198
0.0920602
0.204916
0.31375
0.417918
0.516894
0.610264
0.697707
0.778996
0.853978
0.922575
0.984769
1.0406
1.09014
1.13354
1.17093
1.20253
1.22855
1.24922
1.2648
1.27556
1.28179
1.28376
1.28175
1.27605
1.26692
1.25462
1.23944
1.22161
1.2014
1.17906
1.15483
1.12895
1.10163
1.0731
1.04355
1.01318
0.98217
0.950686
0.918885
0.886911
0.854897
0.822965
0.791225
0.759777
0.728713
0.698111
0.668044
0.638575
0.609756
0.581636
0.554253
0.527639
0.501822
0.476821
0.452651
0.429322
0.40684
0.385207
0.364419
0.344471
0.325355
0.307059
0.28957
0.272872
0.256948
0.241778
0.227344
0.213623
0.200594
0.188234
0.176519
0.165428
0.154936
0.14502
0.135655
0.12682
0.118491
0.110645
0.103259
0.0963136
0.0897857
0.0836551
0.0779018
0.0725063
0.0674498
0.0627142
0.0582822
0.0541368
0.0502622
0.046643
0.0432644
0.0401125
0.0371741
0.0344365
0.0318877
0.0295164
0.027312
0.0252644
0.0233642
0.0216029
0.0199724
0.0184653
0.017075
0.0157951
0.0146192
-323.743
-329.559
-333.975
-336.999
-338.575
-338.715
-337.562
-334.986
-330.985
-325.54
-318.609
-310.148
-300.098
-288.392
-274.963
-259.737
-242.642
-223.641
-202.7
-179.809
-154.996
-128.329
-99.8757
-69.7887
-38.2599
-5.51489
27.6259
61.8088
96.341
130.793
164.763
197.898
229.798
260.091
288.408
314.392
337.751
358.197
375.48
389.404
399.804
406.565
409.62
408.728
404.075
395.758
383.841
368.521
349.953
328.335
303.93
277.003
247.857
216.825
184.254
150.549
116.112
81.3799
46.9347
15.5387
-17.0906
-48.8267
-79.1067
-107.592
-134.033
-158.244
-180.103
-199.535
-216.517
-231.063
-243.218
-253.064
-260.7
-266.252
-269.841
-271.576
-271.593
-270.046
-267.041
-262.687
-257.092
-250.347
-242.534
-233.722
-223.964
-213.305
-201.777
-189.401
-176.187
-162.13
-147.227
-131.471
-114.857
-97.3828
-79.0618
-59.9243
-40.0206
-19.4232
1.77264
23.4439
45.4447
67.6094
89.7558
111.683
133.177
154.015
173.973
192.825
210.35
226.335
240.579
252.904
263.156
271.197
276.924
280.271
281.178
279.685
275.8
269.591
261.154
250.621
238.154
223.938
208.181
191.117
172.99
154.049
134.553
114.754
94.8967
75.2134
55.9208
37.2151
19.2706
2.25017
-13.7448
-28.6022
-42.2401
-54.6001
-65.6444
-75.3539
-83.726
-90.7733
-96.5219
-101.008
-104.282
-106.392
-107.39
-107.347
-106.328
-104.394
-101.609
-98.0379
-93.747
-88.8015
-83.2669
-77.2084
-70.6912
-63.7799
-56.5384
-49.0293
-41.3145
-33.4545
-25.5085
-17.534
-9.5873
-1.72273
6.00707
13.5552
20.8741
27.92
34.6528
41.0356
47.0356
52.624
57.7755
62.4699
66.6911
70.4275
73.6719
76.4221
78.6801
80.4525
81.7498
82.5865
82.9795
82.9509
82.5223
81.7191
80.5669
79.0934
77.3273
75.298
73.0355
70.5699
67.9311
65.1483
62.2504
59.2647
56.2174
53.1333
50.0357
46.946
43.8837
40.867
37.9116
35.0319
32.24
29.5465
26.9601
24.488
22.1357
19.9074
17.8057
15.8322
13.9874
12.2705
10.68
9.21351
7.86804
6.63991
5.525
4.5187
3.61607
2.81194
2.10095
1.47796
0.938299
0.474652
0.0798563
-0.250409
-0.521214
-0.737754
-0.905091
-1.02813
-1.11157
-1.15986
-1.17719
-1.16745
-1.13429
-1.0811
-1.01103
-0.926967
-0.831578
-0.727305
-0.616349
-0.500699
-0.382137
-0.262248
-0.142433
-0.0239283
0.0921874
0.205073
0.313933
0.418121
0.517114
0.610496
0.697949
0.779243
0.854228
0.922826
0.985018
1.04084
1.09038
1.13377
1.17116
1.20275
1.22876
1.24942
1.26499
1.27574
1.28196
1.28392
1.2819
1.27618
1.26704
1.25474
1.23954
1.2217
1.20149
1.17914
1.1549
1.129
1.10168
1.07314
1.04358
1.01321
0.982188
0.950698
0.918891
0.886912
0.854894
0.822957
0.791213
0.759762
0.728694
0.69809
0.668021
0.638549
0.609729
0.581607
0.554223
0.527608
0.50179
0.476788
0.452618
0.429289
0.406807
0.385173
0.364386
0.344438
0.325323
0.307027
0.289539
0.272842
0.256918
0.24175
0.227316
0.213596
0.200567
0.188208
0.176495
0.165405
0.154913
0.144998
0.135635
0.1268
0.118472
0.110626
0.103242
0.0962971
0.0897701
0.0836403
0.0778877
0.0724929
0.0674372
0.0627023
0.0582709
0.0541262
0.0502522
0.0466335
0.0432555
0.0401042
0.0371662
0.0344291
0.0318807
0.0295099
0.0273058
0.0252586
0.0233588
0.0215978
0.0199676
0.0184609
0.0170708
0.0157911
0.0146155
-323.862
-329.675
-334.087
-337.107
-338.682
-338.831
-337.677
-335.098
-331.1
-325.657
-318.732
-310.275
-300.232
-288.533
-275.111
-259.892
-242.804
-223.808
-202.872
-179.982
-155.169
-128.498
-100.039
-69.9426
-38.4011
-5.63884
27.5265
61.7333
96.2931
130.774
164.776
197.943
229.877
260.203
288.552
314.567
337.954
358.426
375.731
389.672
400.086
406.857
409.928
409.012
404.354
396.029
384.099
368.76
350.171
328.527
304.095
277.137
247.96
216.894
184.29
150.55
116.076
81.3041
46.8077
15.4482
-17.2254
-48.9905
-79.2896
-107.788
-134.237
-158.452
-180.311
-199.74
-216.718
-231.257
-243.403
-253.24
-260.866
-266.408
-269.985
-271.705
-271.717
-270.161
-267.147
-262.786
-257.184
-250.433
-242.616
-233.799
-224.039
-213.378
-201.849
-189.474
-176.26
-162.204
-147.303
-131.549
-114.935
-97.4618
-79.1401
-60
-40.0922
-19.4886
1.71559
23.3971
45.4102
67.5889
89.7509
111.695
133.207
154.064
174.042
192.913
210.457
226.46
240.721
253.061
263.325
271.376
277.11
280.46
281.373
279.869
275.981
269.763
261.314
250.766
238.282
224.047
208.27
191.186
173.036
154.075
134.558
114.74
94.8647
75.1653
55.8583
37.1402
19.1856
2.15687
-13.8446
-28.7066
-42.3476
-54.7092
-65.7537
-75.4622
-83.8324
-90.877
-96.6221
-101.104
-104.374
-106.479
-107.471
-107.424
-106.4
-104.461
-101.671
-98.0954
-93.7996
-88.8492
-83.3098
-77.2464
-70.7243
-63.8083
-56.562
-49.0482
-41.3288
-33.4642
-25.5136
-17.5348
-9.58373
-1.71501
6.01879
13.5707
20.8932
27.9425
34.6784
41.064
47.0665
52.657
57.8104
62.5063
66.7286
70.4657
73.7104
76.4606
78.7182
80.4898
81.786
82.6213
83.0129
82.9821
82.5518
81.7464
80.5921
79.1163
77.3478
75.3161
73.0512
70.5832
67.942
65.157
62.2569
59.2691
56.2199
53.134
50.0347
46.9434
43.8798
40.8617
37.9053
35.0246
32.2319
29.5377
26.9508
24.4783
22.1258
19.8972
17.7955
15.822
13.9772
12.2604
10.6701
9.20392
7.85875
6.63096
5.51642
4.51052
3.6083
2.80458
2.09404
1.47151
0.932349
0.469126
0.0747459
-0.255103
-0.525493
-0.741631
-0.90858
-1.03124
-1.11433
-1.1623
-1.17932
-1.16929
-1.13587
-1.08243
-1.01213
-0.927859
-0.832279
-0.727832
-0.616719
-0.500929
-0.382243
-0.262244
-0.142332
-0.0237442
0.0924432
0.20539
0.3143
0.418529
0.517555
0.610962
0.698433
0.779739
0.854731
0.92333
0.985519
1.04134
1.09087
1.13424
1.17162
1.20319
1.22918
1.24982
1.26537
1.2761
1.28229
1.28423
1.28219
1.27645
1.26729
1.25496
1.23975
1.22189
1.20165
1.17929
1.15503
1.12912
1.10177
1.07322
1.04365
1.01326
0.982226
0.950723
0.918905
0.886916
0.854887
0.822942
0.79119
0.759732
0.728658
0.698048
0.667974
0.638498
0.609674
0.581549
0.554162
0.527546
0.501726
0.476723
0.452552
0.429222
0.40674
0.385107
0.36432
0.344373
0.325258
0.306964
0.289477
0.272781
0.256859
0.241692
0.22726
0.213541
0.200515
0.188157
0.176446
0.165357
0.154868
0.144954
0.135593
0.12676
0.118434
0.11059
0.103208
0.0962643
0.0897388
0.0836106
0.0778596
0.0724663
0.0674119
0.0626784
0.0582483
0.0541049
0.0502321
0.0466146
0.0432376
0.0400874
0.0371504
0.0344142
0.0318668
0.0294968
0.0272935
0.0252471
0.023348
0.0215876
0.019958
0.0184519
0.0170624
0.0157833
0.0146081
-324.04
-329.847
-334.255
-337.27
-338.844
-339.005
-337.846
-335.267
-331.272
-325.834
-318.915
-310.467
-300.433
-288.744
-275.334
-260.125
-243.047
-224.059
-203.129
-180.242
-155.428
-128.753
-100.284
-70.1738
-38.6133
-5.82507
27.377
61.6199
96.221
130.747
164.796
198.011
229.994
260.37
288.768
314.829
338.259
358.769
376.107
390.074
400.509
407.293
410.378
409.447
404.777
396.436
384.486
369.12
350.497
328.816
304.342
277.339
248.114
216.999
184.343
150.552
116.023
81.1907
46.6168
15.3128
-17.4284
-49.2368
-79.5643
-108.081
-134.543
-158.763
-180.623
-200.049
-217.019
-231.548
-243.682
-253.504
-261.117
-266.643
-270.2
-271.903
-271.903
-270.333
-267.306
-262.934
-257.322
-250.563
-242.738
-233.916
-224.152
-213.488
-201.958
-189.583
-176.37
-162.317
-147.417
-131.666
-115.054
-97.581
-79.2581
-60.1142
-40.2001
-19.5872
1.62945
23.3264
45.3579
67.5577
89.7432
111.713
133.252
154.138
174.145
193.045
210.618
226.648
240.934
253.296
263.58
271.645
277.389
280.745
281.664
280.147
276.252
270.021
261.554
250.984
238.474
224.211
208.404
191.288
173.107
154.113
134.566
114.719
94.8166
75.0929
55.7644
37.0278
19.0581
2.01677
-13.9944
-28.8634
-42.509
-54.8729
-65.9177
-75.6248
-83.9922
-91.0325
-96.7725
-101.249
-104.512
-106.608
-107.594
-107.54
-106.509
-104.562
-101.764
-98.1816
-93.8785
-88.9209
-83.3741
-77.3034
-70.7741
-63.8508
-56.5974
-49.0765
-41.3501
-33.4787
-25.5213
-17.5359
-9.5784
-1.70344
6.03637
13.594
20.9219
27.9763
34.7168
41.1066
47.1129
52.7066
57.8628
62.5609
66.7848
70.523
73.7682
76.5183
78.7753
80.5457
81.8403
82.6735
83.063
83.0291
82.596
81.7875
80.6298
79.1506
77.3786
75.3433
73.0748
70.6032
67.9585
65.1701
62.2667
59.2758
56.2236
53.135
50.0331
46.9395
43.8738
40.8539
37.8959
35.0137
32.2198
29.5247
26.937
24.4638
22.1108
19.882
17.7801
15.8066
13.9619
12.2453
10.6553
9.18953
7.84481
6.61753
5.50355
4.49824
3.59664
2.79355
2.08367
1.46183
0.923431
0.460837
0.0670792
-0.262145
-0.531912
-0.747446
-0.913813
-1.03592
-1.11848
-1.16595
-1.18251
-1.17205
-1.13823
-1.08443
-1.01378
-0.929196
-0.833329
-0.728622
-0.617274
-0.501273
-0.3824
-0.262236
-0.14218
-0.0234675
0.0928274
0.205865
0.31485
0.419142
0.518217
0.611661
0.699159
0.780483
0.855485
0.924086
0.986271
1.04208
1.0916
1.13495
1.1723
1.20385
1.22981
1.25042
1.26594
1.27663
1.28279
1.2847
1.28263
1.27686
1.26766
1.25531
1.24006
1.22217
1.20191
1.17951
1.15522
1.12929
1.10192
1.07334
1.04374
1.01333
0.982282
0.950761
0.918926
0.886921
0.854878
0.82292
0.791156
0.759687
0.728604
0.697986
0.667904
0.638421
0.609592
0.581462
0.554072
0.527452
0.50163
0.476625
0.452453
0.429123
0.40664
0.385007
0.364221
0.344275
0.325162
0.306869
0.289383
0.27269
0.25677
0.241605
0.227176
0.21346
0.200436
0.188081
0.176373
0.165287
0.1548
0.144889
0.135531
0.126701
0.118377
0.110536
0.103156
0.096215
0.089692
0.0835661
0.0778174
0.0724263
0.0673741
0.0626426
0.0582145
0.054073
0.050202
0.0465862
0.0432109
0.0400622
0.0371268
0.034392
0.0318459
0.0294771
0.0272751
0.0252297
0.0233317
0.0215724
0.0199437
0.0184385
0.0170498
0.0157715
0.0145971
-324.278
-330.078
-334.479
-337.488
-339.061
-339.233
-338.07
-335.491
-331.5
-326.069
-319.16
-310.723
-300.702
-289.026
-275.63
-260.436
-243.37
-224.394
-203.471
-180.589
-155.773
-129.092
-100.611
-70.4824
-38.8967
-6.07498
27.1778
61.4685
96.1245
130.71
164.821
198.101
230.151
260.593
289.056
315.179
338.666
359.227
376.608
390.611
401.072
407.875
410.966
410.035
405.346
396.98
385.002
369.6
350.933
329.201
304.671
277.609
248.32
217.138
184.414
150.553
115.953
81.0401
46.362
15.1321
-17.701
-49.5664
-79.9313
-108.474
-134.951
-159.18
-181.04
-200.461
-217.421
-231.937
-244.054
-253.857
-261.45
-266.954
-270.485
-272.17
-272.152
-270.563
-267.519
-263.132
-257.506
-250.736
-242.901
-234.072
-224.302
-213.634
-202.103
-189.728
-176.517
-162.467
-147.571
-131.823
-115.212
-97.7403
-79.4158
-60.2669
-40.3446
-19.7192
1.5141
23.2318
45.2879
67.5157
89.7325
111.736
133.312
154.236
174.282
193.221
210.832
226.898
241.217
253.61
263.919
272.004
277.762
281.124
282.047
280.521
276.615
270.365
261.874
251.275
238.731
224.43
208.582
191.424
173.2
154.165
134.576
114.69
94.7522
74.9961
55.639
36.8776
18.8879
1.82974
-14.1943
-29.0727
-42.7243
-55.0913
-66.1366
-75.8418
-84.2053
-91.2401
-96.973
-101.442
-104.695
-106.781
-107.758
-107.695
-106.653
-104.696
-101.889
-98.2966
-93.9837
-89.0163
-83.4598
-77.3794
-70.8404
-63.9076
-56.6446
-49.1144
-41.3786
-33.498
-25.5317
-17.5374
-9.57128
-1.68803
6.05982
13.6251
20.9602
28.0213
34.768
41.1634
47.1747
52.7728
57.9326
62.6336
66.8598
70.5993
73.8453
76.5953
78.8514
80.6203
81.9127
82.7432
83.1296
83.092
82.655
81.8423
80.6802
79.1964
77.4196
75.3795
73.1062
70.6298
67.9804
65.1874
62.2797
59.2846
56.2285
53.1362
50.031
46.9343
43.8658
40.8435
37.8832
34.9992
32.2037
29.5072
26.9184
24.4445
22.0909
19.8617
17.7596
15.7861
13.9415
12.2252
10.6356
9.17033
7.82621
6.59963
5.48639
4.48186
3.58109
2.77884
2.06983
1.44888
0.911571
0.449788
0.0568564
-0.271533
-0.540471
-0.755199
-0.920789
-1.04216
-1.12401
-1.17083
-1.18677
-1.17574
-1.14138
-1.08708
-1.01598
-0.930976
-0.834728
-0.729673
-0.618013
-0.501731
-0.382609
-0.262225
-0.141977
-0.0230975
0.0933407
0.206499
0.315586
0.41996
0.5191
0.612594
0.700128
0.781476
0.85649
0.925094
0.987273
1.04307
1.09256
1.13589
1.17322
1.20473
1.23065
1.25122
1.26669
1.27735
1.28346
1.28532
1.28321
1.2774
1.26816
1.25576
1.24047
1.22255
1.20224
1.17981
1.15548
1.12951
1.10211
1.0735
1.04387
1.01343
0.982357
0.950811
0.918954
0.886927
0.854866
0.82289
0.79111
0.759627
0.728531
0.697902
0.66781
0.638319
0.609483
0.581347
0.553951
0.527327
0.501502
0.476494
0.452321
0.42899
0.406507
0.384874
0.364089
0.344144
0.325033
0.306742
0.289259
0.272568
0.256651
0.24149
0.227063
0.213351
0.200331
0.18798
0.176275
0.165193
0.15471
0.144802
0.135447
0.126621
0.118301
0.110463
0.103087
0.0961492
0.0896295
0.0835068
0.0777611
0.072373
0.0673236
0.0625949
0.0581694
0.0540304
0.0501618
0.0465483
0.0431753
0.0400286
0.0370952
0.0343623
0.031818
0.0294509
0.0272505
0.0252066
0.0233101
0.021552
0.0199246
0.0184206
0.017033
0.0157557
0.0145823
-324.575
-330.366
-334.76
-337.761
-339.335
-339.515
-338.347
-335.772
-331.786
-326.363
-319.466
-311.042
-301.037
-289.379
-276.001
-260.824
-243.775
-224.813
-203.9
-181.023
-156.206
-129.517
-101.02
-70.8688
-39.2517
-6.3893
26.9289
61.2788
96.0035
130.663
164.852
198.214
230.346
260.871
289.416
315.616
339.174
359.8
377.236
391.283
401.777
408.602
411.699
410.768
406.06
397.662
385.648
370.199
351.477
329.683
305.083
277.946
248.577
217.313
184.503
150.555
115.866
80.8533
46.0436
14.9054
-18.0447
-49.98
-80.3912
-108.965
-135.461
-159.7
-181.562
-200.977
-217.925
-232.423
-244.519
-254.298
-261.866
-267.341
-270.844
-272.505
-272.462
-270.85
-267.785
-263.38
-257.737
-250.952
-243.106
-234.267
-224.49
-213.818
-202.285
-189.91
-176.701
-162.654
-147.763
-132.019
-115.411
-97.9399
-79.6135
-60.4584
-40.5257
-19.8848
1.36936
23.1129
45.1998
67.4628
89.7185
111.765
133.386
154.358
174.452
193.441
211.099
227.211
241.572
254.003
264.343
272.453
278.228
281.599
282.524
280.992
277.069
270.796
262.274
251.638
239.052
224.703
208.805
191.594
173.317
154.228
134.589
114.654
94.6714
74.8748
55.4818
36.6896
18.6748
1.59557
-14.4445
-29.3345
-42.9938
-55.3646
-66.4104
-76.1132
-84.4718
-91.4996
-97.2239
-101.683
-104.924
-106.998
-107.964
-107.888
-106.834
-104.865
-102.045
-98.4404
-94.1153
-89.1357
-83.567
-77.4744
-70.9234
-63.9785
-56.7037
-49.1616
-41.4143
-33.5222
-25.5446
-17.5393
-9.56238
-1.66875
6.08917
13.664
21.0081
28.0776
34.832
41.2345
47.2521
52.8556
58.02
62.7247
66.9536
70.6949
73.9417
76.6915
78.9467
80.7136
82.0033
82.8303
83.2127
83.1707
82.7287
81.9108
80.7432
79.2536
77.4709
75.4248
73.1454
70.6631
68.0078
65.2091
62.2959
59.2956
56.2346
53.1378
50.0283
46.9278
43.8558
40.8304
37.8674
34.981
32.1835
29.4854
26.8953
24.4203
22.066
19.8363
17.7339
15.7604
13.916
12.2001
10.611
9.14633
7.80297
6.57724
5.46493
4.46139
3.56165
2.76045
2.05253
1.43263
0.896809
0.435983
0.0440773
-0.283267
-0.551169
-0.764889
-0.929506
-1.04995
-1.13092
-1.17692
-1.19209
-1.18034
-1.14532
-1.0904
-1.01873
-0.9332
-0.836474
-0.730985
-0.618934
-0.502301
-0.382867
-0.262209
-0.14172
-0.0226332
0.0939839
0.207294
0.316506
0.420983
0.520205
0.613762
0.701341
0.782718
0.857747
0.926355
0.988526
1.0443
1.09378
1.13707
1.17436
1.20583
1.2317
1.25222
1.26764
1.27824
1.2843
1.28611
1.28394
1.27807
1.26878
1.25633
1.24099
1.22301
1.20266
1.18018
1.15581
1.12979
1.10235
1.07369
1.04403
1.01356
0.98245
0.950874
0.918988
0.886936
0.85485
0.822852
0.791053
0.759553
0.72844
0.697797
0.667693
0.638191
0.609346
0.581202
0.5538
0.527171
0.501341
0.476331
0.452155
0.428823
0.406341
0.384708
0.363924
0.343981
0.324871
0.306584
0.289104
0.272416
0.256503
0.241345
0.226923
0.213215
0.200199
0.187853
0.176152
0.165075
0.154596
0.144694
0.135343
0.126522
0.118206
0.110373
0.103
0.0960671
0.0895514
0.0834326
0.0776907
0.0723063
0.0672605
0.0625352
0.058113
0.0539772
0.0501116
0.046501
0.0431307
0.0399867
0.0370557
0.0343252
0.0317831
0.0294182
0.0272197
0.0251778
0.023283
0.0215266
0.0199008
0.0183982
0.0170121
0.0157361
0.0145639
-324.931
-330.712
-335.097
-338.09
-339.664
-339.849
-338.679
-336.107
-332.129
-326.716
-319.833
-311.426
-301.439
-289.802
-276.447
-261.29
-244.261
-225.316
-204.416
-181.544
-156.725
-130.028
-101.512
-71.3333
-39.6787
-6.76831
26.6295
61.0504
95.8576
130.606
164.889
198.348
230.58
261.205
289.848
316.141
339.785
360.488
377.989
392.089
402.623
409.474
412.581
411.645
406.917
398.482
386.424
370.92
352.131
330.261
305.577
278.35
248.886
217.521
184.61
150.558
115.762
80.6315
45.6626
14.6308
-18.4615
-50.4788
-80.9447
-109.555
-136.075
-160.326
-182.19
-201.597
-218.529
-233.007
-245.077
-254.828
-262.365
-267.807
-271.276
-272.907
-272.835
-271.194
-268.105
-263.676
-258.014
-251.212
-243.351
-234.501
-224.715
-214.038
-202.503
-190.128
-176.921
-162.88
-147.993
-132.254
-115.65
-98.1799
-79.851
-60.6887
-40.7435
-20.084
1.19511
22.9698
45.0935
67.3987
89.7013
111.799
133.476
154.504
174.657
193.704
211.42
227.586
241.998
254.474
264.852
272.992
278.788
282.17
283.095
281.558
277.614
271.313
262.755
252.075
239.437
225.031
209.073
191.798
173.456
154.304
134.603
114.611
94.5739
74.7287
55.2926
36.4636
18.4185
1.31409
-14.7452
-29.6492
-43.3175
-55.6929
-66.7393
-76.4391
-84.7919
-91.8113
-97.525
-101.972
-105.199
-107.259
-108.21
-108.12
-107.051
-105.066
-102.232
-98.6129
-94.2732
-89.279
-83.6956
-77.5885
-71.0229
-64.0636
-56.7745
-49.2183
-41.457
-33.5512
-25.56
-17.5415
-9.55167
-1.6456
6.12442
13.7107
21.0656
28.1452
34.9089
41.3198
47.3449
52.9549
58.1249
62.834
67.0661
70.8096
74.0574
76.8071
79.061
80.8257
82.112
82.9349
83.3124
83.2651
82.8172
81.993
80.8188
79.3223
77.5325
75.4792
73.1925
70.703
68.0406
65.2351
62.3153
59.3088
56.2419
53.1396
50.0251
46.9199
43.8438
40.8146
37.8484
34.9591
32.1593
29.4591
26.8674
24.3912
22.036
19.8057
17.7031
15.7296
13.8854
12.1699
10.5814
9.11752
7.77507
6.55037
5.43917
4.43682
3.53832
2.73839
2.03176
1.41306
0.879165
0.419421
0.0287419
-0.297346
-0.564006
-0.776513
-0.939963
-1.05929
-1.13921
-1.18422
-1.19847
-1.18586
-1.15004
-1.09438
-1.02202
-0.935864
-0.838565
-0.732556
-0.620035
-0.502982
-0.383175
-0.262186
-0.141409
-0.0220736
0.0947581
0.208249
0.317613
0.422213
0.521533
0.615164
0.702797
0.784209
0.859257
0.927868
0.990031
1.04579
1.09523
1.13849
1.17573
1.20715
1.23296
1.25342
1.26878
1.27931
1.28531
1.28704
1.28481
1.27888
1.26953
1.25702
1.24161
1.22358
1.20316
1.18062
1.1562
1.13013
1.10264
1.07393
1.04423
1.01371
0.982562
0.950949
0.919029
0.886945
0.854831
0.822807
0.790984
0.759462
0.728331
0.697671
0.667553
0.638038
0.609181
0.581028
0.553618
0.526983
0.501149
0.476135
0.451957
0.428624
0.406141
0.384509
0.363725
0.343785
0.324678
0.306393
0.288917
0.272233
0.256325
0.241172
0.226755
0.213052
0.200041
0.1877
0.176005
0.164933
0.154461
0.144564
0.135219
0.126402
0.118092
0.110264
0.102897
0.0959685
0.0894576
0.0833436
0.0776064
0.0722263
0.0671848
0.0624637
0.0580454
0.0539133
0.0500514
0.0464443
0.0430772
0.0399364
0.0370084
0.0342807
0.0317413
0.0293789
0.0271829
0.0251432
0.0232505
0.0214961
0.0198722
0.0183714
0.0169869
0.0157125
0.0145418
-325.347
-331.115
-335.49
-338.475
-340.048
-340.237
-339.066
-336.499
-332.528
-327.127
-320.26
-311.873
-301.909
-290.296
-276.966
-261.834
-244.829
-225.903
-205.018
-182.152
-157.332
-130.624
-102.087
-71.8766
-40.1784
-7.21224
26.2787
60.7829
95.6865
130.539
164.932
198.505
230.853
261.595
290.352
316.754
340.498
361.291
378.869
393.031
403.611
410.492
413.614
412.668
407.917
399.44
387.329
371.761
352.894
330.936
306.154
278.822
249.245
217.765
184.734
150.56
115.641
80.3762
45.2226
14.3037
-18.9538
-51.0641
-81.5926
-110.246
-136.793
-161.057
-182.922
-202.32
-219.235
-233.688
-245.729
-255.446
-262.947
-268.35
-271.781
-273.375
-273.269
-271.596
-268.477
-264.023
-258.336
-251.514
-243.637
-234.774
-224.978
-214.295
-202.757
-190.382
-177.179
-163.142
-148.262
-132.528
-115.929
-98.4604
-80.1286
-60.9582
-40.9983
-20.3171
0.990963
22.8021
44.9688
67.3233
89.6806
111.839
133.579
154.675
174.896
194.011
211.794
228.024
242.496
255.024
265.446
273.621
279.442
282.836
283.763
282.218
278.251
271.917
263.317
252.584
239.886
225.414
209.385
192.036
173.619
154.393
134.62
114.559
94.4596
74.5575
55.0712
36.1991
18.1188
0.985033
-15.0967
-30.0169
-43.6956
-56.0763
-67.1234
-76.8197
-85.1655
-92.1751
-97.8766
-102.309
-105.52
-107.563
-108.498
-108.39
-107.303
-105.302
-102.451
-98.8142
-94.4575
-89.4461
-83.8456
-77.7215
-71.139
-64.1629
-56.8571
-49.2845
-41.5069
-33.585
-25.5781
-17.5441
-9.53916
-1.61854
6.16558
13.7652
21.1327
28.2241
34.9986
41.4195
47.4534
53.071
58.2473
62.9616
67.1976
70.9436
74.1925
76.9421
79.1945
80.9565
82.2389
83.057
83.4288
83.3754
82.9205
82.0889
80.907
79.4024
77.6043
75.5426
73.2474
70.7495
68.0789
65.2654
62.338
59.3241
56.2504
53.1417
50.0213
46.9107
43.8297
40.7962
37.8261
34.9336
32.1309
29.4285
26.8349
24.3573
22.001
19.7701
17.6672
15.6936
13.8497
12.1347
10.5469
9.08389
7.74251
6.519
5.40911
4.40815
3.51109
2.71267
2.00753
1.39017
0.858632
0.400097
0.0108493
-0.313769
-0.57898
-0.79007
-0.952157
-1.07019
-1.14888
-1.19273
-1.20591
-1.1923
-1.15554
-1.09902
-1.02586
-0.938968
-0.841
-0.734383
-0.621315
-0.503772
-0.383529
-0.262156
-0.141043
-0.0214171
0.0956646
0.209367
0.318907
0.423651
0.523084
0.616803
0.704498
0.785951
0.861021
0.929636
0.991788
1.04752
1.09693
1.14014
1.17733
1.20869
1.23444
1.25482
1.27011
1.28056
1.28648
1.28814
1.28583
1.27982
1.27039
1.25781
1.24234
1.22423
1.20375
1.18114
1.15666
1.13052
1.10297
1.07421
1.04445
1.01389
0.982692
0.951036
0.919076
0.886956
0.854808
0.822754
0.790904
0.759357
0.728204
0.697524
0.667388
0.637859
0.608989
0.580825
0.553406
0.526764
0.500924
0.475906
0.451725
0.428391
0.405907
0.384276
0.363494
0.343556
0.324452
0.306171
0.288699
0.27202
0.256117
0.24097
0.226558
0.212861
0.199857
0.187522
0.175834
0.164768
0.154302
0.144412
0.135073
0.126263
0.117959
0.110137
0.102776
0.0958535
0.0893483
0.0832398
0.0775079
0.0721331
0.0670965
0.0623802
0.0579665
0.0538389
0.0499812
0.0463781
0.0430149
0.0398777
0.0369532
0.0342288
0.0316925
0.0293331
0.0271398
0.0251028
0.0232126
0.0214606
0.0198388
0.0183401
0.0169576
0.015685
0.0145161
-325.822
-331.576
-335.94
-338.916
-340.487
-340.679
-339.507
-336.945
-332.984
-327.597
-320.749
-312.383
-302.444
-290.86
-277.56
-262.456
-245.479
-226.576
-205.707
-182.849
-158.027
-131.307
-102.746
-72.4991
-40.7513
-7.72146
25.8757
60.4755
95.4895
130.461
164.979
198.683
231.164
262.039
290.928
317.455
341.314
362.21
379.875
394.108
404.741
411.657
414.796
413.839
409.059
400.537
388.366
372.722
353.767
331.708
306.814
279.361
249.656
218.043
184.875
150.563
115.504
80.0892
44.7327
13.9138
-19.5247
-51.7371
-82.3357
-111.038
-137.615
-161.895
-183.761
-203.149
-220.043
-234.468
-246.475
-256.153
-263.612
-268.971
-272.358
-273.911
-273.765
-272.055
-268.902
-264.418
-258.705
-251.86
-243.964
-235.085
-225.278
-214.588
-203.048
-190.672
-177.473
-163.443
-148.57
-132.842
-116.248
-98.7814
-80.4465
-61.267
-41.2904
-20.5843
0.756637
22.6096
44.8255
67.2364
89.6563
111.883
133.697
154.869
175.168
194.362
212.222
228.525
243.065
255.654
266.127
274.342
280.19
283.599
284.528
282.973
278.98
272.609
263.959
253.167
240.401
225.852
209.741
192.308
173.805
154.494
134.638
114.5
94.328
74.361
54.8173
35.896
17.7754
0.608142
-15.4991
-30.4378
-44.1285
-56.5151
-67.5628
-77.2552
-85.5929
-92.5913
-98.2786
-102.695
-105.888
-107.911
-108.827
-108.699
-107.592
-105.571
-102.7
-99.0443
-94.6681
-89.6372
-84.0172
-77.8736
-71.2718
-64.2765
-56.9516
-49.3601
-41.5639
-33.6236
-25.5987
-17.547
-9.52482
-1.58755
6.21267
13.8276
21.2096
28.3144
35.1014
41.5335
47.5774
53.2037
58.3874
63.1076
67.348
71.0968
74.3471
77.0965
79.3472
81.1061
82.3841
83.1966
83.562
83.5013
83.0386
82.1987
81.0078
79.494
77.6864
75.615
73.3102
70.8026
68.1226
65.3001
62.3638
59.3416
56.2601
53.1441
50.0169
46.9001
43.8136
40.7751
37.8006
34.9044
32.0985
29.3934
26.7977
24.3185
21.961
19.7293
17.626
15.6524
13.8088
12.0944
10.5074
9.04545
7.70528
6.48314
5.37474
4.37537
3.47997
2.68328
1.97983
1.364
0.835188
0.378008
-0.009601
-0.332536
-0.596088
-0.805559
-0.966087
-1.08263
-1.15992
-1.20245
-1.2144
-1.19964
-1.16182
-1.10431
-1.03024
-0.942507
-0.843775
-0.736464
-0.622771
-0.504669
-0.383928
-0.262116
-0.140619
-0.0206622
0.0967049
0.210649
0.32039
0.425297
0.52486
0.618678
0.706444
0.787944
0.863037
0.931657
0.993797
1.0495
1.09887
1.14203
1.17916
1.21045
1.23612
1.25643
1.27162
1.28199
1.28782
1.28939
1.28699
1.2809
1.27139
1.25872
1.24317
1.22498
1.20442
1.18174
1.15718
1.13097
1.10335
1.07453
1.04471
1.01409
0.98284
0.951135
0.91913
0.886968
0.854782
0.822693
0.790811
0.759236
0.728058
0.697356
0.6672
0.637654
0.608769
0.580593
0.553164
0.526514
0.500667
0.475645
0.451461
0.428124
0.40564
0.38401
0.36323
0.343294
0.324194
0.305917
0.28845
0.271777
0.255879
0.240738
0.226334
0.212644
0.199647
0.187319
0.175638
0.16458
0.154121
0.144238
0.134907
0.126104
0.117807
0.109992
0.102638
0.095722
0.0892234
0.0831212
0.0773954
0.0720265
0.0669957
0.0622848
0.0578764
0.0537538
0.0499009
0.0463024
0.0429437
0.0398107
0.0368901
0.0341695
0.0316368
0.0292808
0.0270907
0.0250567
0.0231693
0.0214199
0.0198007
0.0183043
0.016924
0.0156536
0.0144866
-326.356
-332.094
-336.445
-339.412
-340.98
-341.174
-340.003
-337.447
-333.496
-328.125
-321.297
-312.958
-303.047
-291.494
-278.228
-263.157
-246.211
-227.334
-206.484
-183.634
-158.81
-132.077
-103.489
-73.2017
-41.3981
-8.29653
25.4193
60.1276
95.2662
130.372
165.032
198.882
231.513
262.539
291.576
318.243
342.232
363.244
381.009
395.321
406.014
412.969
416.13
415.157
410.345
401.772
389.533
373.805
354.75
332.577
307.557
279.967
250.119
218.356
185.034
150.566
115.351
79.7725
44.2133
13.4394
-20.1776
-52.4992
-83.1751
-111.931
-138.543
-162.839
-184.707
-204.082
-220.954
-235.347
-247.314
-256.948
-264.36
-269.67
-273.008
-274.513
-274.322
-272.571
-269.381
-264.862
-259.119
-252.248
-244.331
-235.434
-225.614
-214.917
-203.374
-190.999
-177.803
-163.78
-148.915
-133.195
-116.608
-99.1432
-80.8052
-61.6153
-41.6201
-20.8862
0.491691
22.3919
44.6631
67.1375
89.6279
111.932
133.828
155.087
175.475
194.757
212.704
229.089
243.705
256.363
266.893
275.154
281.034
284.459
285.39
283.823
279.801
273.388
264.683
253.824
240.98
226.346
210.143
192.614
174.014
154.606
134.658
114.432
94.1791
74.1386
54.5303
35.5538
17.3879
0.183068
-15.9528
-30.9123
-44.6163
-57.0095
-68.0579
-77.7456
-86.0743
-93.0599
-98.7312
-103.129
-106.301
-108.303
-109.196
-109.046
-107.918
-105.874
-102.981
-99.3032
-94.905
-89.8521
-84.2102
-78.0447
-71.4211
-64.4042
-57.0578
-49.4452
-41.628
-33.6671
-25.6218
-17.5502
-9.50866
-1.5526
6.26571
13.8979
21.2961
28.4161
35.217
41.6619
47.717
53.3532
58.5452
63.272
67.5173
71.2694
74.5212
77.2704
79.5192
81.2745
82.5476
83.3538
83.7118
83.6431
83.1716
82.3221
81.1213