/*--------------------------------*- C++ -*----------------------------------*\
| =========                 |                                                 |
| \\      /  F ield         | OpenFOAM: The Open Source CFD Toolbox           |
|  \\    /   O peration     | Version:  3.0.1                                 |
|   \\  /    A nd           | Web:      www.OpenFOAM.org                      |
|    \\/     M anipulation  |                                                 |
\*---------------------------------------------------------------------------*/
FoamFile
{
    version     2.0;
    format      ascii;
    class       volVectorField;
    location    "83";
    object      U;
}
// * * * * * * * * * * * * * * * * * * * * * * * * * * * * * * * * * * * * * //

dimensions      [0 1 -1 0 0 0 0];

internalField   nonuniform List<vector> 
21420
(
(0.0707869 -0.00190291 0)
(0.0878911 -0.00190057 0)
(0.106671 -0.00183632 0)
(0.124815 -0.00174628 0)
(0.142046 -0.00166219 0)
(0.158095 -0.00152017 0)
(0.172688 -0.00137735 0)
(0.185577 -0.00118768 0)
(0.196526 -0.0009804 0)
(0.205335 -0.000764122 0)
(0.211838 -0.000525954 0)
(0.215928 -0.000278827 0)
(0.217482 -2.95137e-05 0)
(0.216564 0.000217367 0)
(0.213071 0.000464558 0)
(0.207129 0.00070436 0)
(0.198879 0.000933188 0)
(0.18846 0.00112826 0)
(0.176075 0.00131922 0)
(0.161943 0.00149175 0)
(0.146313 0.00160821 0)
(0.12946 0.00172841 0)
(0.111639 0.00182477 0)
(0.093117 0.00185836 0)
(0.0741469 0.00190207 0)
(0.0549502 0.00188788 0)
(0.0356903 0.0018869 0)
(0.0166514 0.00186376 0)
(-0.00169653 0.00179709 0)
(-0.0194046 0.00174276 0)
(-0.0365548 0.00167522 0)
(-0.0529178 0.00158029 0)
(-0.0684123 0.00149614 0)
(-0.082979 0.0013936 0)
(-0.0965834 0.00130166 0)
(-0.109207 0.00120626 0)
(-0.120842 0.00110389 0)
(-0.131502 0.00101017 0)
(-0.141203 0.000916963 0)
(-0.149966 0.000822857 0)
(-0.157822 0.00073497 0)
(-0.164801 0.000647641 0)
(-0.170932 0.00056517 0)
(-0.176243 0.000484559 0)
(-0.180764 0.000405702 0)
(-0.184512 0.000329005 0)
(-0.187499 0.0002529 0)
(-0.189762 0.000178137 0)
(-0.191255 0.000107981 0)
(-0.191991 3.40657e-05 0)
(-0.192003 -4.32446e-05 0)
(-0.191234 -0.000120911 0)
(-0.189688 -0.000200153 0)
(-0.18737 -0.000276362 0)
(-0.184203 -0.000356568 0)
(-0.180185 -0.000449463 0)
(-0.175293 -0.000526219 0)
(-0.169538 -0.000615342 0)
(-0.162808 -0.0007152 0)
(-0.155134 -0.000806219 0)
(-0.146496 -0.000914047 0)
(-0.136803 -0.00100253 0)
(-0.126213 -0.00109716 0)
(-0.114579 -0.00120629 0)
(-0.101915 -0.00129776 0)
(-0.0883122 -0.00137847 0)
(-0.0738209 -0.00148075 0)
(-0.0585516 -0.00155484 0)
(-0.0424853 -0.00163327 0)
(-0.0256653 -0.00169987 0)
(-0.00825337 -0.00174428 0)
(0.00965524 -0.00178981 0)
(0.0278682 -0.00181437 0)
(0.0461939 -0.00181559 0)
(0.0644697 -0.00181021 0)
(0.082546 -0.00178053 0)
(0.10024 -0.00173684 0)
(0.117393 -0.00167773 0)
(0.133752 -0.00158265 0)
(0.149172 -0.0014803 0)
(0.163348 -0.00135265 0)
(0.176211 -0.0012068 0)
(0.18751 -0.00103972 0)
(0.196972 -0.000856701 0)
(0.20459 -0.000657721 0)
(0.210177 -0.000453185 0)
(0.21364 -0.000237519 0)
(0.214873 -1.51654e-05 0)
(0.213889 0.000222896 0)
(0.210405 0.000465335 0)
(0.204535 0.000704706 0)
(0.196297 0.000934057 0)
(0.185794 0.00115112 0)
(0.173206 0.00134569 0)
(0.158743 0.00151604 0)
(0.142668 0.0016623 0)
(0.125283 0.00178418 0)
(0.10685 0.00187421 0)
(0.0876536 0.00193321 0)
(0.0679817 0.00196481 0)
(0.0481296 0.00197266 0)
(0.0283233 0.00195072 0)
(0.00883032 0.00190958 0)
(-0.010123 0.00185721 0)
(-0.0284076 0.00177836 0)
(-0.0458623 0.00168522 0)
(-0.0623155 0.00158106 0)
(-0.0776858 0.0014726 0)
(-0.0919369 0.00135769 0)
(-0.105035 0.00124406 0)
(-0.116994 0.00112758 0)
(-0.127816 0.00101762 0)
(-0.137513 0.000908611 0)
(-0.14615 0.000801332 0)
(-0.153743 0.000709881 0)
(-0.160345 0.000605712 0)
(-0.165995 0.000519198 0)
(-0.170751 0.000424353 0)
(-0.174656 0.00033908 0)
(-0.1777 0.000271724 0)
(-0.179982 0.00018463 0)
(-0.181505 0.000108129 0)
(-0.182277 5.34364e-05 0)
(-0.182393 -3.41455e-05 0)
(-0.181766 -8.61075e-05 0)
(-0.180499 -0.000162162 0)
(-0.178606 -0.000214472 0)
(-0.176055 -0.000283955 0)
(-0.172893 -0.000346116 0)
(-0.169067 -0.000407491 0)
(-0.164622 -0.000475151 0)
(-0.159506 -0.00053859 0)
(-0.153782 -0.000608104 0)
(-0.147328 -0.000666437 0)
(-0.140191 -0.000743802 0)
(-0.132326 -0.000819296 0)
(-0.123641 -0.000894727 0)
(-0.114231 -0.000975855 0)
(-0.103952 -0.00106325 0)
(-0.0927833 -0.0011472 0)
(-0.08078 -0.00123894 0)
(-0.0678782 -0.00131907 0)
(-0.0541066 -0.00140598 0)
(-0.0395048 -0.0014863 0)
(-0.024132 -0.00156024 0)
(-0.00803599 -0.00162586 0)
(0.00868623 -0.00168695 0)
(0.0259098 -0.00172473 0)
(0.043465 -0.00175407 0)
(0.0611953 -0.00175909 0)
(0.078886 -0.00175171 0)
(0.096359 -0.00171032 0)
(0.113349 -0.00165161 0)
(0.129589 -0.00156692 0)
(0.144862 -0.00145684 0)
(0.15888 -0.00131224 0)
(0.171357 -0.00115684 0)
(0.182107 -0.000973737 0)
(0.190867 -0.000764867 0)
(0.197462 -0.000537357 0)
(0.201723 -0.000302491 0)
(0.203541 -6.06939e-05 0)
(0.202954 0.000183843 0)
(0.19973 0.000442512 0)
(0.19408 0.000676 0)
(0.186132 0.000896118 0)
(0.176019 0.00110589 0)
(0.16393 0.00129412 0)
(0.150083 0.00144782 0)
(0.134781 0.00158541 0)
(0.118236 0.00169497 0)
(0.100754 0.00177353 0)
(0.0826435 0.00182049 0)
(0.064146 0.00184518 0)
(0.045545 0.00184895 0)
(0.0270218 0.00182767 0)
(0.00876002 0.00179243 0)
(-0.00902289 0.00174016 0)
(-0.0262148 0.00166741 0)
(-0.0426287 0.00158327 0)
(-0.0581351 0.0014942 0)
(-0.0726742 0.00139996 0)
(-0.0862344 0.00129828 0)
(-0.0988256 0.00120338 0)
(-0.11047 0.00110454 0)
(-0.12114 0.00100682 0)
(-0.130823 0.000919648 0)
(-0.139573 0.000821066 0)
(-0.147411 0.000728643 0)
(-0.154323 0.000643582 0)
(-0.160343 0.00055441 0)
(-0.16551 0.000476862 0)
(-0.169889 0.000394174 0)
(-0.173554 0.000321767 0)
(-0.176526 0.000267612 0)
(-0.178865 0.000199809 0)
(-0.180637 0.000143732 0)
(-0.181796 9.04513e-05 0)
(-0.182372 3.23223e-05 0)
(-0.18239 -2.89735e-05 0)
(-0.181755 -9.78558e-05 0)
(-0.180459 -0.000160023 0)
(-0.178492 -0.000227717 0)
(-0.175836 -0.000301315 0)
(-0.172456 -0.000364541 0)
(-0.168372 -0.000440983 0)
(-0.16356 -0.000513126 0)
(-0.158008 -0.000588157 0)
(-0.151717 -0.000659147 0)
(-0.144709 -0.000724461 0)
(-0.137039 -0.000796304 0)
(-0.128669 -0.000864135 0)
(-0.119624 -0.000931261 0)
(-0.109857 -0.00100483 0)
(-0.0993458 -0.00107682 0)
(-0.0881189 -0.0011519 0)
(-0.076106 -0.00123072 0)
(-0.0632588 -0.00130739 0)
(-0.0496885 -0.00138648 0)
(-0.0353533 -0.00145768 0)
(-0.0203203 -0.00152005 0)
(-0.00466697 -0.00157537 0)
(0.0114775 -0.0016192 0)
(0.0280052 -0.00165503 0)
(0.0447819 -0.00167215 0)
(0.0616398 -0.00167378 0)
(0.0784208 -0.00165023 0)
(0.0948987 -0.00161187 0)
(0.110843 -0.00154767 0)
(0.126044 -0.00146114 0)
(0.140235 -0.00134567 0)
(0.153138 -0.00121152 0)
(0.164535 -0.00104559 0)
(0.17415 -0.00086154 0)
(0.181796 -0.000650951 0)
(0.187276 -0.000430526 0)
(0.190419 -0.000191861 0)
(0.191166 4.24877e-05 0)
(0.189487 0.000295869 0)
(0.185227 0.000535345 0)
(0.178646 0.000773532 0)
(0.169753 0.000986846 0)
(0.158747 0.0011866 0)
(0.14587 0.00136459 0)
(0.131341 0.00151061 0)
(0.11546 0.00163418 0)
(0.0985158 0.00172962 0)
(0.0808004 0.00178422 0)
(0.0626036 0.00182287 0)
(0.0442019 0.00182524 0)
(0.0258717 0.00181049 0)
(0.00782659 0.00177469 0)
(-0.00976529 0.00171974 0)
(-0.026757 0.00165394 0)
(-0.0430143 0.00157332 0)
(-0.0584179 0.00148173 0)
(-0.0729088 0.00139212 0)
(-0.0864627 0.00129952 0)
(-0.0990505 0.00119931 0)
(-0.110677 0.00110767 0)
(-0.121349 0.00101587 0)
(-0.131083 0.000919134 0)
(-0.139912 0.000834016 0)
(-0.14784 0.000751758 0)
(-0.154898 0.000661056 0)
(-0.161154 0.000576897 0)
(-0.166585 0.000502871 0)
(-0.171163 0.000428616 0)
(-0.174976 0.000345232 0)
(-0.178143 0.000274942 0)
(-0.1806 0.000208314 0)
(-0.18226 0.00013846 0)
(-0.183242 6.33863e-05 0)
(-0.183661 4.02238e-06 0)
(-0.18331 -5.96884e-05 0)
(-0.182209 -0.000137914 0)
(-0.180425 -0.00020142 0)
(-0.177978 -0.000273841 0)
(-0.174839 -0.00034808 0)
(-0.170851 -0.000429522 0)
(-0.166047 -0.000503445 0)
(-0.160454 -0.000587228 0)
(-0.154049 -0.000658544 0)
(-0.146981 -0.000725304 0)
(-0.139198 -0.000793586 0)
(-0.13081 -0.000849126 0)
(-0.122019 -0.000892035 0)
(-0.112763 -0.000951226 0)
(-0.102873 -0.000993943 0)
(-0.0924018 -0.0010633 0)
(-0.0813219 -0.00112117 0)
(-0.0696642 -0.00117557 0)
(-0.0574381 -0.00126061 0)
(-0.0443596 -0.00133613 0)
(-0.0304954 -0.00140197 0)
(-0.0159255 -0.00148724 0)
(-0.000664081 -0.0015671 0)
(0.0152718 -0.00162326 0)
(0.031978 -0.00169534 0)
(0.0492418 -0.00173015 0)
(0.0668541 -0.00176854 0)
(0.0846474 -0.00177058 0)
(0.10237 -0.00173905 0)
(0.119726 -0.00170247 0)
(0.136468 -0.00162344 0)
(0.152299 -0.0015084 0)
(0.166906 -0.0013834 0)
(0.180046 -0.00121876 0)
(0.191442 -0.00103573 0)
(0.200868 -0.000829361 0)
(0.208161 -0.000602477 0)
(0.213159 -0.000367381 0)
(0.215748 -0.000130332 0)
(0.215902 0.000115439 0)
(0.213554 0.000351664 0)
(0.208742 0.00058778 0)
(0.201751 0.000789838 0)
(0.192715 0.000985302 0)
(0.181841 0.00116493 0)
(0.169377 0.00129428 0)
(0.155606 0.00141856 0)
(0.140793 0.0015198 0)
(0.125197 0.00156732 0)
(0.109086 0.001616 0)
(0.0926913 0.00161749 0)
(0.0762301 0.00162401 0)
(0.0598608 0.00161314 0)
(0.043743 0.00156886 0)
(0.0279631 0.00153156 0)
(0.01269 0.00148992 0)
(-0.00185911 0.00141795 0)
(-0.0157913 0.00136399 0)
(-0.0292018 0.00130579 0)
(-0.0419838 0.00123444 0)
(-0.0541174 0.00117309 0)
(-0.0655952 0.00110211 0)
(-0.0764159 0.00104016 0)
(-0.0865787 0.00097721 0)
(-0.096081 0.000907594 0)
(-0.104921 0.000843882 0)
(-0.113092 0.000778606 0)
(-0.120585 0.000708143 0)
(-0.127387 0.000640373 0)
(-0.133487 0.000568161 0)
(-0.138867 0.000497164 0)
(-0.143514 0.000424056 0)
(-0.14741 0.000348266 0)
(-0.15054 0.00027223 0)
(-0.152895 0.00019437 0)
(-0.154458 0.00011484 0)
(-0.155219 3.60109e-05 0)
(-0.1552 -4.43393e-05 0)
(-0.154355 -0.000125078 0)
(-0.152694 -0.000205834 0)
(-0.150218 -0.00028715 0)
(-0.146922 -0.00036765 0)
(-0.142164 -0.000447809 0)
(0.0707928 -0.00570965 0)
(0.0879058 -0.00570273 0)
(0.106696 -0.00551001 0)
(0.12485 -0.00523991 0)
(0.142093 -0.0049877 0)
(0.158151 -0.00456157 0)
(0.172756 -0.00413304 0)
(0.185653 -0.00356392 0)
(0.19661 -0.00294193 0)
(0.205426 -0.00229296 0)
(0.211933 -0.00157839 0)
(0.216025 -0.000837833 0)
(0.217584 -8.68257e-05 0)
(0.216665 0.000652494 0)
(0.213164 0.0013941 0)
(0.207221 0.00211353 0)
(0.198966 0.00280021 0)
(0.188538 0.00338554 0)
(0.176145 0.00395854 0)
(0.162004 0.00447621 0)
(0.146363 0.00482562 0)
(0.129499 0.00518627 0)
(0.111669 0.00547534 0)
(0.0931361 0.00557606 0)
(0.0741564 0.00570715 0)
(0.0549512 0.00566451 0)
(0.0356832 0.0056615 0)
(0.0166368 0.00559226 0)
(-0.00171654 0.00539148 0)
(-0.0194298 0.0052287 0)
(-0.0365841 0.00502606 0)
(-0.0529496 0.00474119 0)
(-0.0684467 0.00448865 0)
(-0.0830143 0.00418097 0)
(-0.0966199 0.00390505 0)
(-0.109244 0.00361881 0)
(-0.120878 0.00331171 0)
(-0.131538 0.00303057 0)
(-0.141238 0.0027509 0)
(-0.15 0.00246859 0)
(-0.157855 0.00220491 0)
(-0.164833 0.0019431 0)
(-0.170963 0.00169582 0)
(-0.176274 0.00145402 0)
(-0.180794 0.00121664 0)
(-0.184542 0.000987683 0)
(-0.187529 0.000759958 0)
(-0.189793 0.000533104 0)
(-0.191289 0.000323377 0)
(-0.192023 0.000104435 0)
(-0.192037 -0.000129186 0)
(-0.19127 -0.000361974 0)
(-0.189726 -0.000600657 0)
(-0.18741 -0.000828674 0)
(-0.184246 -0.00106961 0)
(-0.180231 -0.00134737 0)
(-0.175341 -0.00157843 0)
(-0.169589 -0.00184557 0)
(-0.162862 -0.00214518 0)
(-0.155191 -0.00241839 0)
(-0.146554 -0.00274147 0)
(-0.136865 -0.00300894 0)
(-0.126275 -0.00329042 0)
(-0.114643 -0.00362112 0)
(-0.101974 -0.00389074 0)
(-0.0883746 -0.00413919 0)
(-0.0738738 -0.0044398 0)
(-0.0586065 -0.00466734 0)
(-0.0425296 -0.00489992 0)
(-0.0257074 -0.00509825 0)
(-0.00828669 -0.0052357 0)
(0.00963091 -0.00536831 0)
(0.0278529 -0.00544324 0)
(0.0461865 -0.00544937 0)
(0.0644758 -0.00542949 0)
(0.0825576 -0.00534647 0)
(0.100266 -0.00521342 0)
(0.117435 -0.00502816 0)
(0.133791 -0.00476027 0)
(0.149238 -0.00444017 0)
(0.163423 -0.00405857 0)
(0.176299 -0.00362192 0)
(0.187608 -0.00312392 0)
(0.197083 -0.00257223 0)
(0.204704 -0.00197888 0)
(0.210312 -0.0013563 0)
(0.213781 -0.00071492 0)
(0.215027 -4.96679e-05 0)
(0.21404 0.000661132 0)
(0.210564 0.00138664 0)
(0.204704 0.00210971 0)
(0.196468 0.00279568 0)
(0.185963 0.00344749 0)
(0.173366 0.00403584 0)
(0.158888 0.00455623 0)
(0.142787 0.00499396 0)
(0.125374 0.00534612 0)
(0.106926 0.00562171 0)
(0.0877109 0.00579827 0)
(0.0680223 0.00590404 0)
(0.0481481 0.00591972 0)
(0.0283265 0.00586161 0)
(0.00881208 0.00573351 0)
(-0.0101699 0.0055652 0)
(-0.0284673 0.00532874 0)
(-0.0459177 0.00505047 0)
(-0.0623814 0.00475117 0)
(-0.0777673 0.00441351 0)
(-0.0920234 0.00407607 0)
(-0.105131 0.00372603 0)
(-0.117092 0.00338162 0)
(-0.127915 0.00304677 0)
(-0.137617 0.00273516 0)
(-0.14626 0.00239905 0)
(-0.153852 0.00212544 0)
(-0.160454 0.00181014 0)
(-0.166111 0.00155997 0)
(-0.170867 0.00127399 0)
(-0.174771 0.00102546 0)
(-0.177829 0.000810973 0)
(-0.180115 0.000554132 0)
(-0.181644 0.000330908 0)
(-0.182427 0.000146777 0)
(-0.182536 -9.13222e-05 0)
(-0.181921 -0.000256543 0)
(-0.180657 -0.000480058 0)
(-0.17877 -0.000642294 0)
(-0.17623 -0.000857687 0)
(-0.173066 -0.00103074 0)
(-0.169262 -0.00123138 0)
(-0.164813 -0.00141314 0)
(-0.15972 -0.001626 0)
(-0.153989 -0.00182098 0)
(-0.147547 -0.00200006 0)
(-0.140413 -0.00223764 0)
(-0.132554 -0.00245111 0)
(-0.123879 -0.00268006 0)
(-0.114476 -0.00293592 0)
(-0.104197 -0.00318067 0)
(-0.0930338 -0.00344628 0)
(-0.0810284 -0.00371959 0)
(-0.0681233 -0.00395516 0)
(-0.05435 -0.00422087 0)
(-0.0397522 -0.00446893 0)
(-0.0243561 -0.0046843 0)
(-0.00825868 -0.00488578 0)
(0.00848571 -0.00505284 0)
(0.0257203 -0.00518184 0)
(0.0432873 -0.00526297 0)
(0.061021 -0.00528746 0)
(0.0787362 -0.00525676 0)
(0.0962307 -0.00513368 0)
(0.113232 -0.00496232 0)
(0.129501 -0.00470944 0)
(0.144803 -0.00437185 0)
(0.15883 -0.00396273 0)
(0.171351 -0.00347248 0)
(0.182116 -0.00290993 0)
(0.190883 -0.00229538 0)
(0.197488 -0.00162309 0)
(0.201758 -0.00091372 0)
(0.20359 -0.000185097 0)
(0.203 0.000552068 0)
(0.199767 0.00131727 0)
(0.19413 0.00202245 0)
(0.186191 0.00270111 0)
(0.176064 0.00331707 0)
(0.163961 0.00386915 0)
(0.150114 0.00434688 0)
(0.134799 0.00476621 0)
(0.118236 0.00507686 0)
(0.100736 0.00531449 0)
(0.082611 0.00545491 0)
(0.0641121 0.00553433 0)
(0.0455026 0.00555259 0)
(0.0269677 0.00548635 0)
(0.00869661 0.00538159 0)
(-0.0091048 0.00521061 0)
(-0.0262926 0.00500921 0)
(-0.0427262 0.00475522 0)
(-0.0582436 0.00446923 0)
(-0.0727812 0.00420461 0)
(-0.0863535 0.00389459 0)
(-0.0989532 0.00360115 0)
(-0.110593 0.0033129 0)
(-0.121262 0.00302222 0)
(-0.130952 0.00276132 0)
(-0.139709 0.00246155 0)
(-0.147545 0.00219419 0)
(-0.154469 0.00193227 0)
(-0.160496 0.00165717 0)
(-0.165668 0.00142428 0)
(-0.170045 0.00118217 0)
(-0.173707 0.000976367 0)
(-0.176688 0.000808611 0)
(-0.179037 0.000604507 0)
(-0.180813 0.00043173 0)
(-0.181985 0.000267347 0)
(-0.182568 9.01606e-05 0)
(-0.182588 -8.81573e-05 0)
(-0.181958 -0.00028749 0)
(-0.180683 -0.00048699 0)
(-0.178715 -0.00067326 0)
(-0.176063 -0.000904779 0)
(-0.172692 -0.00109437 0)
(-0.168603 -0.00132065 0)
(-0.1638 -0.00154496 0)
(-0.158233 -0.00175864 0)
(-0.151956 -0.00197878 0)
(-0.14495 -0.00218217 0)
(-0.137278 -0.00238281 0)
(-0.128905 -0.00259163 0)
(-0.11986 -0.0027962 0)
(-0.110093 -0.00301674 0)
(-0.0995761 -0.00323113 0)
(-0.0883585 -0.003475 0)
(-0.076323 -0.00368053 0)
(-0.0634927 -0.00393482 0)
(-0.0498997 -0.00415962 0)
(-0.0355535 -0.00437672 0)
(-0.0205036 -0.00455717 0)
(-0.00485899 -0.0047373 0)
(0.011313 -0.00486474 0)
(0.0278557 -0.00496523 0)
(0.0446518 -0.00501681 0)
(0.0615232 -0.00502301 0)
(0.0783226 -0.00495768 0)
(0.09481 -0.00483931 0)
(0.110774 -0.00465553 0)
(0.126002 -0.0043901 0)
(0.140198 -0.00404759 0)
(0.153134 -0.00362817 0)
(0.164542 -0.00313448 0)
(0.174175 -0.00258716 0)
(0.181834 -0.00195732 0)
(0.187314 -0.00130111 0)
(0.190471 -0.000575798 0)
(0.191218 0.000123244 0)
(0.18953 0.000876222 0)
(0.185278 0.00160534 0)
(0.178694 0.00232134 0)
(0.169789 0.00296118 0)
(0.15877 0.00356186 0)
(0.145879 0.0040998 0)
(0.131326 0.00453661 0)
(0.115424 0.00489853 0)
(0.098471 0.00518494 0)
(0.080738 0.00536354 0)
(0.0625272 0.00546293 0)
(0.044119 0.00548155 0)
(0.0257733 0.00542942 0)
(0.00772498 0.00532183 0)
(-0.0098714 0.00516098 0)
(-0.0268632 0.00495255 0)
(-0.0431148 0.00471784 0)
(-0.058516 0.0044536 0)
(-0.07301 0.00417875 0)
(-0.0865675 0.00389261 0)
(-0.0991507 0.00360174 0)
(-0.110777 0.00331754 0)
(-0.121445 0.0030415 0)
(-0.131171 0.00276546 0)
(-0.14 0.00250484 0)
(-0.147928 0.0022484 0)
(-0.154981 0.00198633 0)
(-0.161234 0.00173496 0)
(-0.166659 0.00150624 0)
(-0.171235 0.00128509 0)
(-0.175044 0.00103689 0)
(-0.178212 0.000824322 0)
(-0.180661 0.000620086 0)
(-0.182321 0.0004207 0)
(-0.183304 0.000191357 0)
(-0.183712 1.01271e-05 0)
(-0.183367 -0.00017801 0)
(-0.182267 -0.000416223 0)
(-0.180474 -0.000600039 0)
(-0.178036 -0.000821797 0)
(-0.174896 -0.00104658 0)
(-0.170905 -0.00128685 0)
(-0.166107 -0.00151141 0)
(-0.16051 -0.00176262 0)
(-0.154101 -0.00197381 0)
(-0.147032 -0.00217488 0)
(-0.139248 -0.00238226 0)
(-0.130857 -0.00254559 0)
(-0.122064 -0.00267618 0)
(-0.112806 -0.00285188 0)
(-0.102918 -0.00298252 0)
(-0.0924489 -0.00319155 0)
(-0.0813668 -0.00336311 0)
(-0.0697111 -0.00352495 0)
(-0.057488 -0.00378103 0)
(-0.0444094 -0.00400807 0)
(-0.0305428 -0.00420405 0)
(-0.015973 -0.00446549 0)
(-0.000711972 -0.0047022 0)
(0.0152325 -0.00486664 0)
(0.031945 -0.00508914 0)
(0.0492171 -0.00519121 0)
(0.0668344 -0.00531071 0)
(0.0846416 -0.00531364 0)
(0.102375 -0.00521806 0)
(0.119743 -0.00510758 0)
(0.136499 -0.00487142 0)
(0.152339 -0.00453015 0)
(0.166964 -0.00415111 0)
(0.180114 -0.00365382 0)
(0.191515 -0.0031136 0)
(0.200958 -0.00248605 0)
(0.208254 -0.00180622 0)
(0.213255 -0.00110695 0)
(0.215853 -0.000386293 0)
(0.216006 0.000344235 0)
(0.213642 0.00105524 0)
(0.208833 0.00176348 0)
(0.201835 0.00237008 0)
(0.192791 0.00295667 0)
(0.181908 0.00349574 0)
(0.169433 0.00388381 0)
(0.155652 0.00425672 0)
(0.140828 0.00456046 0)
(0.125221 0.00470293 0)
(0.109101 0.00484889 0)
(0.0926975 0.00485326 0)
(0.0762287 0.00487268 0)
(0.0598532 0.00484001 0)
(0.0437304 0.00470706 0)
(0.027947 0.00459499 0)
(0.01267 0.00447023 0)
(-0.00188135 0.00425377 0)
(-0.0158139 0.0040921 0)
(-0.0292257 0.00391746 0)
(-0.0420081 0.00370338 0)
(-0.0541422 0.00351933 0)
(-0.06562 0.00330637 0)
(-0.076441 0.00312049 0)
(-0.0866041 0.00293167 0)
(-0.0961064 0.00272283 0)
(-0.104946 0.0025317 0)
(-0.113118 0.00233589 0)
(-0.120611 0.00212452 0)
(-0.127415 0.00192123 0)
(-0.133515 0.00170459 0)
(-0.138896 0.00149161 0)
(-0.143543 0.00127229 0)
(-0.14744 0.00104492 0)
(-0.150571 0.000816767 0)
(-0.152926 0.000583281 0)
(-0.15449 0.000344546 0)
(-0.15525 0.000108151 0)
(-0.155231 -0.00013291 0)
(-0.154387 -0.000375166 0)
(-0.152726 -0.000617435 0)
(-0.15025 -0.000861396 0)
(-0.146954 -0.00110291 0)
(-0.142196 -0.0013434 0)
(0.070805 -0.00951911 0)
(0.0879361 -0.00950795 0)
(0.106746 -0.00918684 0)
(0.124921 -0.0087367 0)
(0.142187 -0.00831649 0)
(0.158265 -0.00760604 0)
(0.172893 -0.00689169 0)
(0.185806 -0.00594273 0)
(0.196777 -0.00490556 0)
(0.205609 -0.00382354 0)
(0.212125 -0.00263226 0)
(0.21622 -0.00139725 0)
(0.217789 -0.000141978 0)
(0.216865 0.00108731 0)
(0.213351 0.00232531 0)
(0.207404 0.00352427 0)
(0.199138 0.00466937 0)
(0.188692 0.00564528 0)
(0.176282 0.00660069 0)
(0.162123 0.00746376 0)
(0.146459 0.00804611 0)
(0.129575 0.00864734 0)
(0.111724 0.00912907 0)
(0.09317 0.00929669 0)
(0.074171 0.00951505 0)
(0.0549484 0.00944367 0)
(0.0356641 0.00943824 0)
(0.0166025 0.00932322 0)
(-0.00176181 0.0089869 0)
(-0.0194852 0.00871587 0)
(-0.0366479 0.00837793 0)
(-0.0530186 0.0079029 0)
(-0.0685207 0.00748167 0)
(-0.0830902 0.0069686 0)
(-0.0966978 0.00650854 0)
(-0.109322 0.00603132 0)
(-0.120955 0.00551939 0)
(-0.131614 0.00505072 0)
(-0.141312 0.00458455 0)
(-0.150072 0.00411404 0)
(-0.157925 0.00367463 0)
(-0.1649 0.00323827 0)
(-0.171028 0.00282632 0)
(-0.176337 0.00242327 0)
(-0.180855 0.00202813 0)
(-0.184602 0.00164624 0)
(-0.187588 0.00126731 0)
(-0.189848 0.000890126 0)
(-0.191351 0.000539534 0)
(-0.192087 0.000173222 0)
(-0.192097 -0.000215539 0)
(-0.191331 -0.000601988 0)
(-0.189789 -0.00100224 0)
(-0.187473 -0.00138083 0)
(-0.184312 -0.00178272 0)
(-0.180299 -0.00224411 0)
(-0.17541 -0.00262994 0)
(-0.16966 -0.00307604 0)
(-0.162936 -0.00357448 0)
(-0.155267 -0.0040309 0)
(-0.14663 -0.00456863 0)
(-0.136943 -0.00501543 0)
(-0.126353 -0.00548443 0)
(-0.114718 -0.00603434 0)
(-0.10205 -0.00648772 0)
(-0.0884445 -0.00689637 0)
(-0.0739434 -0.00740272 0)
(-0.0586664 -0.00777703 0)
(-0.0425845 -0.00817022 0)
(-0.0257585 -0.00850235 0)
(-0.0083227 -0.008724 0)
(0.00960059 -0.00895686 0)
(0.0278395 -0.00907071 0)
(0.0461819 -0.00908793 0)
(0.0644875 -0.00905156 0)
(0.082583 -0.00891567 0)
(0.10031 -0.0086882 0)
(0.117488 -0.00839013 0)
(0.133869 -0.00793105 0)
(0.149329 -0.00740325 0)
(0.16352 -0.00677759 0)
(0.176422 -0.00603666 0)
(0.187749 -0.00521384 0)
(0.197241 -0.00428898 0)
(0.204871 -0.00330478 0)
(0.210481 -0.00226341 0)
(0.213961 -0.00119314 0)
(0.215218 -8.20959e-05 0)
(0.214211 0.00110651 0)
(0.210746 0.00231652 0)
(0.204891 0.00351713 0)
(0.19665 0.00466626 0)
(0.186128 0.00575381 0)
(0.1735 0.00673529 0)
(0.158983 0.00759617 0)
(0.142844 0.0083236 0)
(0.125397 0.00891873 0)
(0.106911 0.00937949 0)
(0.0876637 0.00967156 0)
(0.0679363 0.00983721 0)
(0.0480248 0.00987257 0)
(0.0281741 0.00977304 0)
(0.00863413 0.00956081 0)
(-0.0103728 0.00928774 0)
(-0.0286832 0.00888231 0)
(-0.0461431 0.00842514 0)
(-0.062626 0.00791674 0)
(-0.0780231 0.00735907 0)
(-0.0922876 0.00679419 0)
(-0.105397 0.00621556 0)
(-0.117363 0.00563806 0)
(-0.128187 0.00508342 0)
(-0.137895 0.00455357 0)
(-0.146523 0.00400307 0)
(-0.154115 0.00354153 0)
(-0.160713 0.00302907 0)
(-0.166375 0.00259958 0)
(-0.171136 0.00211946 0)
(-0.175027 0.00171037 0)
(-0.178089 0.00135504 0)
(-0.180378 0.00093119 0)
(-0.181903 0.000560044 0)
(-0.182691 0.000241752 0)
(-0.182801 -0.000151866 0)
(-0.182182 -0.000432883 0)
(-0.180923 -0.000793951 0)
(-0.179033 -0.00107587 0)
(-0.176491 -0.00142174 0)
(-0.173326 -0.00172192 0)
(-0.169527 -0.00204367 0)
(-0.165095 -0.00235963 0)
(-0.159998 -0.00269692 0)
(-0.154273 -0.00303624 0)
(-0.14783 -0.00333287 0)
(-0.140704 -0.00373541 0)
(-0.132846 -0.00406726 0)
(-0.124195 -0.00447135 0)
(-0.1148 -0.004903 0)
(-0.104516 -0.00529005 0)
(-0.0933467 -0.00573821 0)
(-0.0813457 -0.00618959 0)
(-0.0684306 -0.00660691 0)
(-0.0546563 -0.0070361 0)
(-0.0400517 -0.0074405 0)
(-0.0246489 -0.00781181 0)
(-0.00853716 -0.0081487 0)
(0.00822094 -0.00842186 0)
(0.0254609 -0.00863962 0)
(0.0430473 -0.00877392 0)
(0.0607973 -0.00881668 0)
(0.078538 -0.00875877 0)
(0.0960488 -0.00856748 0)
(0.113064 -0.00827622 0)
(0.129363 -0.00785262 0)
(0.144696 -0.0072948 0)
(0.158763 -0.0066005 0)
(0.171309 -0.00578845 0)
(0.182086 -0.0048646 0)
(0.190876 -0.00382519 0)
(0.197492 -0.00270438 0)
(0.20177 -0.00152371 0)
(0.203604 -0.000308766 0)
(0.202999 0.000916967 0)
(0.199767 0.00219689 0)
(0.194125 0.00337625 0)
(0.186171 0.00449342 0)
(0.176039 0.00553375 0)
(0.163918 0.00645776 0)
(0.15005 0.00724958 0)
(0.134704 0.00794412 0)
(0.118121 0.00846683 0)
(0.100605 0.00887156 0)
(0.0824578 0.00909357 0)
(0.0639394 0.00923017 0)
(0.0452991 0.00925716 0)
(0.0267483 0.00914414 0)
(0.00846765 0.0089696 0)
(-0.00934327 0.00869427 0)
(-0.0265531 0.00834861 0)
(-0.043 0.00791481 0)
(-0.0585162 0.00746464 0)
(-0.0730658 0.00700711 0)
(-0.0866417 0.00649204 0)
(-0.0992379 0.00601051 0)
(-0.110876 0.00552336 0)
(-0.12154 0.0050418 0)
(-0.131234 0.00459078 0)
(-0.139994 0.00410696 0)
(-0.147831 0.00365655 0)
(-0.154754 0.00321791 0)
(-0.160774 0.00276941 0)
(-0.165946 0.00237907 0)
(-0.170324 0.00197577 0)
(-0.17398 0.0016307 0)
(-0.176958 0.00133537 0)
(-0.179303 0.00100768 0)
(-0.181076 0.000721363 0)
(-0.182257 0.000444357 0)
(-0.182846 0.000156321 0)
(-0.182869 -0.000148829 0)
(-0.182248 -0.00046802 0)
(-0.180976 -0.000812954 0)
(-0.179017 -0.00111889 0)
(-0.176355 -0.00151654 0)
(-0.172978 -0.00180636 0)
(-0.168907 -0.00222075 0)
(-0.164094 -0.00256085 0)
(-0.158535 -0.00294071 0)
(-0.152251 -0.00327984 0)
(-0.145247 -0.0036417 0)
(-0.137573 -0.00397709 0)
(-0.1292 -0.00431436 0)
(-0.120165 -0.00466996 0)
(-0.11039 -0.00501681 0)
(-0.0998707 -0.00538693 0)
(-0.0886475 -0.00579205 0)
(-0.0766217 -0.00613267 0)
(-0.0637834 -0.00655536 0)
(-0.0501838 -0.00694287 0)
(-0.035814 -0.00728322 0)
(-0.0207669 -0.00761189 0)
(-0.00509995 -0.007891 0)
(0.0110769 -0.00811088 0)
(0.0276348 -0.00827448 0)
(0.0444388 -0.00837193 0)
(0.0613303 -0.00836862 0)
(0.0781449 -0.00826715 0)
(0.0946498 -0.00807443 0)
(0.110648 -0.00775738 0)
(0.125893 -0.00731981 0)
(0.140106 -0.00674594 0)
(0.153055 -0.00605927 0)
(0.164483 -0.00523757 0)
(0.174148 -0.00430833 0)
(0.181819 -0.00326839 0)
(0.187314 -0.00216196 0)
(0.190477 -0.000967246 0)
(0.191234 0.000212257 0)
(0.189523 0.00146373 0)
(0.185282 0.00268165 0)
(0.178681 0.00387383 0)
(0.169753 0.00493438 0)
(0.158718 0.00594139 0)
(0.145799 0.00683931 0)
(0.131219 0.00756597 0)
(0.115303 0.00817231 0)
(0.098325 0.00864571 0)
(0.0805728 0.00894 0)
(0.0623474 0.00911279 0)
(0.0439255 0.0091338 0)
(0.025574 0.00905671 0)
(0.00751646 0.00887173 0)
(-0.0100856 0.008599 0)
(-0.0270741 0.00825383 0)
(-0.0433174 0.00786367 0)
(-0.0587179 0.00742451 0)
(-0.0732127 0.00695891 0)
(-0.0867612 0.00649127 0)
(-0.0993361 0.00600236 0)
(-0.110955 0.00552863 0)
(-0.121614 0.00507064 0)
(-0.13133 0.00460719 0)
(-0.140149 0.00416922 0)
(-0.148071 0.00375395 0)
(-0.155122 0.003309 0)
(-0.161362 0.00288752 0)
(-0.166773 0.00251076 0)
(-0.171344 0.00214393 0)
(-0.175145 0.00172831 0)
(-0.178304 0.00137391 0)
(-0.180743 0.00103451 0)
(-0.182408 0.000702504 0)
(-0.183389 0.000315265 0)
(-0.183777 1.42609e-05 0)
(-0.183436 -0.000295968 0)
(-0.182332 -0.000690509 0)
(-0.180542 -0.00100364 0)
(-0.178104 -0.00136867 0)
(-0.174963 -0.00174304 0)
(-0.170975 -0.00214375 0)
(-0.166177 -0.00251879 0)
(-0.160577 -0.00293818 0)
(-0.154167 -0.00329148 0)
(-0.14709 -0.00362558 0)
(-0.139302 -0.00397451 0)
(-0.130904 -0.0042408 0)
(-0.122107 -0.00446153 0)
(-0.112849 -0.00475445 0)
(-0.102964 -0.00496729 0)
(-0.0924978 -0.00531911 0)
(-0.0814167 -0.00560448 0)
(-0.0697677 -0.00587485 0)
(-0.05755 -0.00630484 0)
(-0.0444714 -0.00668005 0)
(-0.0306044 -0.00700968 0)
(-0.0160356 -0.00743948 0)
(-0.000769895 -0.00784284 0)
(0.0151827 -0.00811704 0)
(0.0319044 -0.00847588 0)
(0.0491878 -0.0086521 0)
(0.0668234 -0.00885076 0)
(0.0846493 -0.0088588 0)
(0.102403 -0.00870061 0)
(0.119792 -0.00851805 0)
(0.136571 -0.00812338 0)
(0.152435 -0.00755214 0)
(0.167083 -0.00692281 0)
(0.180251 -0.00609558 0)
(0.191674 -0.0051897 0)
(0.201131 -0.00414761 0)
(0.208437 -0.00301476 0)
(0.213446 -0.00184351 0)
(0.216055 -0.000649429 0)
(0.216205 0.00057787 0)
(0.213812 0.001761 0)
(0.209009 0.00294034 0)
(0.201995 0.0039524 0)
(0.192935 0.00493074 0)
(0.182033 0.00582971 0)
(0.169536 0.0064765 0)
(0.155734 0.00709812 0)
(0.140889 0.00760433 0)
(0.125261 0.00784144 0)
(0.109122 0.00808438 0)
(0.092703 0.00809127 0)
(0.0762199 0.00812323 0)
(0.0598325 0.00806845 0)
(0.0437001 0.00784647 0)
(0.0279103 0.00765923 0)
(0.0126257 0.00745161 0)
(-0.0019295 0.00708955 0)
(-0.0158622 0.00682059 0)
(-0.0292764 0.00652936 0)
(-0.0420592 0.00617241 0)
(-0.0541941 0.0058656 0)
(-0.0656714 0.00551063 0)
(-0.0764927 0.00520081 0)
(-0.0866562 0.00488616 0)
(-0.0961583 0.00453812 0)
(-0.104999 0.00421961 0)
(-0.113172 0.00389331 0)
(-0.120665 0.00354105 0)
(-0.12747 0.00320227 0)
(-0.133571 0.00284121 0)
(-0.138954 0.00248624 0)
(-0.143602 0.0021207 0)
(-0.1475 0.00174173 0)
(-0.150632 0.00136134 0)
(-0.152986 0.000972437 0)
(-0.154554 0.00057421 0)
(-0.155315 0.000180551 0)
(-0.155295 -0.000221388 0)
(-0.154451 -0.000625243 0)
(-0.15279 -0.00102903 0)
(-0.150315 -0.00143565 0)
(-0.147018 -0.00183818 0)
(-0.14226 -0.00223903 0)
(0.0708234 -0.0133331 0)
(0.0879816 -0.0133183 0)
(0.106822 -0.0128689 0)
(0.125027 -0.0122388 0)
(0.142329 -0.0116507 0)
(0.158436 -0.0106556 0)
(0.173098 -0.00965527 0)
(0.186036 -0.00832583 0)
(0.197029 -0.00687276 0)
(0.205884 -0.00535705 0)
(0.212413 -0.0036884 0)
(0.216516 -0.00195971 0)
(0.2181 -0.000204036 0)
(0.217156 0.00153261 0)
(0.213633 0.00325998 0)
(0.207679 0.00493769 0)
(0.199396 0.00654209 0)
(0.188922 0.00790908 0)
(0.176488 0.00924752 0)
(0.162301 0.0104564 0)
(0.146603 0.0112717 0)
(0.129689 0.0121137 0)
(0.111807 0.0127881 0)
(0.0932209 0.0130222 0)
(0.0741927 0.0133276 0)
(0.054944 0.013227 0)
(0.0356354 0.0132184 0)
(0.0165509 0.0130579 0)
(-0.00182993 0.0125845 0)
(-0.0195685 0.0122052 0)
(-0.0367438 0.0117316 0)
(-0.0531223 0.011066 0)
(-0.0686319 0.0104756 0)
(-0.0832041 0.00975669 0)
(-0.0968148 0.00911227 0)
(-0.10944 0.00844391 0)
(-0.121071 0.00772676 0)
(-0.131728 0.00707045 0)
(-0.141424 0.00641776 0)
(-0.150179 0.00575903 0)
(-0.158029 0.00514386 0)
(-0.165 0.00453318 0)
(-0.171125 0.0039567 0)
(-0.176431 0.00339248 0)
(-0.180946 0.00283955 0)
(-0.184691 0.00230564 0)
(-0.187676 0.00177589 0)
(-0.189933 0.00124789 0)
(-0.191441 0.00075615 0)
(-0.192186 0.000235333 0)
(-0.192188 -0.000304029 0)
(-0.191424 -0.000841283 0)
(-0.189883 -0.0014045 0)
(-0.187569 -0.00193276 0)
(-0.184411 -0.00249587 0)
(-0.180402 -0.00313941 0)
(-0.175514 -0.00368075 0)
(-0.169767 -0.00430624 0)
(-0.163048 -0.00500322 0)
(-0.155382 -0.005643 0)
(-0.146745 -0.00639547 0)
(-0.137061 -0.00702411 0)
(-0.126471 -0.0076772 0)
(-0.114835 -0.00845037 0)
(-0.102162 -0.00908315 0)
(-0.0885527 -0.00965765 0)
(-0.0740482 -0.0103665 0)
(-0.0587601 -0.0108909 0)
(-0.0426692 -0.0114434 0)
(-0.0258305 -0.0119066 0)
(-0.00838125 -0.0122225 0)
(0.00955842 -0.0125428 0)
(0.0278148 -0.0127085 0)
(0.0461775 -0.0127267 0)
(0.0645024 -0.0126809 0)
(0.0826188 -0.0124892 0)
(0.100368 -0.0121756 0)
(0.117573 -0.0117544 0)