/*--------------------------------*- C++ -*----------------------------------*\
| =========                 |                                                 |
| \\      /  F ield         | OpenFOAM: The Open Source CFD Toolbox           |
|  \\    /   O peration     | Version:  3.0.1                                 |
|   \\  /    A nd           | Web:      www.OpenFOAM.org                      |
|    \\/     M anipulation  |                                                 |
\*---------------------------------------------------------------------------*/
FoamFile
{
    version     2.0;
    format      ascii;
    class       surfaceScalarField;
    location    "44.4";
    object      alphaPhi;
}
// * * * * * * * * * * * * * * * * * * * * * * * * * * * * * * * * * * * * * //

dimensions      [0 3 -1 0 0 0 0];

internalField   nonuniform List<scalar> 
42423
(
9.78447e-05
1.76307e-05
7.99959e-05
1.78488e-05
6.1771e-05
1.8225e-05
4.32731e-05
1.84979e-05
2.49515e-05
1.83215e-05
6.81441e-06
1.81371e-05
-1.09375e-05
1.77519e-05
-2.81071e-05
1.71696e-05
-4.45176e-05
1.64105e-05
-6.00342e-05
1.55166e-05
-7.46532e-05
1.4619e-05
-8.83e-05
1.36468e-05
-0.000100933
1.26334e-05
-0.000112577
1.16435e-05
-0.000123221
1.0644e-05
-0.000132901
9.67973e-06
-0.000141611
8.71076e-06
-0.000149383
7.77209e-06
-0.00015626
6.87689e-06
-0.000162267
6.00664e-06
-0.000167435
5.16799e-06
-0.000171811
4.37627e-06
-0.00017541
3.59875e-06
-0.000178264
2.85356e-06
-0.000180382
2.11814e-06
-0.000181812
1.43027e-06
-0.000182559
7.47102e-07
-0.000182615
5.56734e-08
-0.000181929
-6.86194e-07
-0.000180536
-1.39218e-06
-0.000178425
-2.111e-06
-0.000175571
-2.85428e-06
-0.00017198
-3.59129e-06
-0.000167556
-4.42367e-06
-0.000162354
-5.20222e-06
-0.000156384
-5.96976e-06
-0.000149474
-6.91013e-06
-0.000141622
-7.85204e-06
-0.000132957
-8.66486e-06
-0.000123218
-9.73959e-06
-0.000112577
-1.06408e-05
-0.000100863
-1.17139e-05
-8.8112e-05
-1.27511e-05
-7.45434e-05
-1.35686e-05
-5.98837e-05
-1.46597e-05
-4.43614e-05
-1.55224e-05
-2.80835e-05
-1.62779e-05
-1.11579e-05
-1.69256e-05
6.63707e-06
-1.7795e-05
2.47043e-05
-1.80672e-05
4.31495e-05
-1.84452e-05
6.16748e-05
-1.85253e-05
8.01837e-05
-1.8509e-05
9.84811e-05
-1.82974e-05
0.000116135
-1.7654e-05
0.000133075
-1.69404e-05
0.000149073
-1.59981e-05
0.000163744
-1.46702e-05
0.000176982
-1.32389e-05
0.000188542
-1.15601e-05
0.000198284
-9.74189e-06
0.000206112
-7.82787e-06
0.000211702
-5.58935e-06
0.000215135
-3.43305e-06
0.000216188
-1.05334e-06
0.000214867
1.32068e-06
0.000211191
3.6759e-06
0.000205244
5.94756e-06
0.00019717
8.07366e-06
0.000187105
1.00647e-05
0.000175165
1.194e-05
0.000161499
1.36664e-05
0.000146344
1.51545e-05
0.000129958
1.63867e-05
0.00011255
1.74078e-05
9.44762e-05
1.80737e-05
7.58499e-05
1.86262e-05
5.69985e-05
1.88514e-05
3.80668e-05
1.89317e-05
1.94047e-05
1.86622e-05
1.05838e-06
1.83463e-05
-1.67608e-05
1.78192e-05
-3.39242e-05
1.71633e-05
-5.03034e-05
1.63792e-05
-6.57911e-05
1.54876e-05
-8.02891e-05
1.44979e-05
-9.37487e-05
1.34595e-05
-0.000106111
1.2362e-05
-0.000117419
1.13078e-05
-0.00012767
1.02506e-05
-0.000136846
9.1762e-06
-0.000145011
8.16496e-06
-0.00015216
7.14879e-06
-0.000158304
6.14394e-06
-0.000163487
5.18291e-06
-0.000167782
4.29539e-06
-0.000171192
3.40906e-06
-0.000173786
2.59391e-06
-0.00017559
1.80428e-06
-0.000176678
1.08761e-06
-0.00017705
3.7194e-07
-0.000176723
-3.27081e-07
-0.000175777
-9.46112e-07
-0.000174176
-1.60077e-06
-0.000171996
-2.18014e-06
-0.000169189
-2.80654e-06
-0.000165761
-3.4282e-06
-0.000161789
-3.97225e-06
-0.000157123
-4.66606e-06
-0.000151893
-5.23002e-06
-0.000145954
-5.93901e-06
-0.000139335
-6.61856e-06
-0.000131977
-7.35874e-06
-0.000123968
-8.00857e-06
-0.000115244
-8.72423e-06
-0.000105788
-9.45616e-06
-9.55716e-05
-1.02162e-05
-8.45674e-05
-1.10042e-05
-7.29194e-05
-1.16481e-05
-6.04742e-05
-1.24453e-05
-4.73234e-05
-1.31509e-05
-3.34546e-05
-1.38689e-05
-1.89271e-05
-1.45276e-05
-3.83261e-06
-1.50945e-05
1.18395e-05
-1.56722e-05
2.79002e-05
-1.60608e-05
4.43018e-05
-1.64017e-05
6.08595e-05
-1.65578e-05
7.74235e-05
-1.65641e-05
9.38063e-05
-1.63829e-05
0.000109828
-1.60219e-05
0.000125251
-1.54226e-05
0.000139832
-1.45819e-05
0.000153373
-1.35409e-05
0.000165559
-1.21858e-05
0.00017623
-1.0671e-05
0.000185137
-8.90716e-06
0.00019211
-6.9734e-06
0.000197004
-4.89358e-06
0.000199639
-2.63476e-06
0.000200048
-4.09477e-07
0.000198107
1.9408e-06
0.000193869
4.238e-06
0.000187392
6.47758e-06
0.000178805
8.58688e-06
0.000168253
1.05518e-05
0.000155845
1.2408e-05
0.000141821
1.40242e-05
0.000126425
1.53959e-05
0.00010992
1.6505e-05
9.26269e-05
1.72929e-05
7.47379e-05
1.7889e-05
5.65371e-05
1.82008e-05
3.82825e-05
1.82546e-05
2.02351e-05
1.80474e-05
2.55346e-06
1.76816e-05
-1.45422e-05
1.70957e-05
-3.09003e-05
1.63581e-05
-4.63753e-05
1.54749e-05
-6.09045e-05
1.45293e-05
-7.4372e-05
1.34675e-05
-8.68431e-05
1.2471e-05
-9.81872e-05
1.13441e-05
-0.000108472
1.02843e-05
-0.000117729
9.25779e-06
-0.000126021
8.29193e-06
-0.000133411
7.38943e-06
-0.000139954
6.54369e-06
-0.000145705
5.75088e-06
-0.000150661
4.95626e-06
-0.000154915
4.25388e-06
-0.000158442
3.52623e-06
-0.000161422
2.98039e-06
-0.000163746
2.32417e-06
-0.000165533
1.78729e-06
-0.000166792
1.25854e-06
-0.00016755
7.5772e-07
-0.000167811
2.61258e-07
-0.000167694
-1.1732e-07
-0.000167083
-6.10968e-07
-0.000166029
-1.05317e-06
-0.000164502
-1.52778e-06
-0.000162523
-1.97818e-06
-0.000160062
-2.4618e-06
-0.000157146
-2.91521e-06
-0.000153723
-3.42324e-06
-0.000149911
-3.81172e-06
-0.00014555
-4.36147e-06
-0.000140652
-4.89801e-06
-0.00013519
-5.46187e-06
-0.000129108
-6.08213e-06
-0.000122344
-6.76384e-06
-0.000114885
-7.45917e-06
-0.000106652
-8.23298e-06
-9.76222e-05
-9.03001e-06
-8.77769e-05
-9.84534e-06
-7.71311e-05
-1.06459e-05
-6.572e-05
-1.14111e-05
-5.35468e-05
-1.21733e-05
-4.07355e-05
-1.28113e-05
-2.72628e-05
-1.34728e-05
-1.31918e-05
-1.4071e-05
1.26941e-06
-1.44613e-05
1.62565e-05
-1.49872e-05
3.1614e-05
-1.53576e-05
4.72728e-05
-1.56589e-05
6.30615e-05
-1.57888e-05
7.88184e-05
-1.5757e-05
9.43347e-05
-1.55164e-05
0.0001094
-1.50655e-05
0.000123819
-1.44185e-05
0.00013733
-1.35119e-05
0.000149764
-1.24333e-05
0.000160864
-1.11006e-05
0.000170376
-9.5114e-06
0.000178161
-7.78506e-06
0.00018401
-5.84966e-06
0.000187753
-3.74323e-06
0.000189408
-1.65441e-06
0.000188917
4.90347e-07
0.000186289
2.62884e-06
0.000181479
4.80921e-06
0.000174653
6.82618e-06
0.00016592
8.73349e-06
0.000155476
1.04431e-05
0.000143465
1.20119e-05
0.00013018
1.32849e-05
0.000115824
1.43555e-05
0.000100648
1.51759e-05
8.48974e-05
1.5751e-05
6.87772e-05
1.61202e-05
5.24981e-05
1.6279e-05
3.63091e-05
1.6189e-05
2.03589e-05
1.59502e-05
4.77571e-06
1.55832e-05
-1.02592e-05
1.50349e-05
-2.46624e-05
1.44032e-05
-3.83396e-05
1.36772e-05
-5.12689e-05
1.29293e-05
-6.33661e-05
1.20973e-05
-7.4658e-05
1.12919e-05
-8.51466e-05
1.04886e-05
-9.47957e-05
9.64914e-06
-0.000103658
8.86256e-06
-0.000111736
8.07789e-06
-0.000119162
7.42561e-06
-0.000125807
6.64493e-06
-0.000131771
5.96394e-06
-0.000137048
5.27766e-06
-0.000141654
4.60589e-06
-0.000145713
4.05839e-06
-0.0001492
3.48784e-06
-0.000152175
2.97475e-06
-0.000154669
2.49374e-06
-0.000156739
2.06991e-06
-0.000158338
1.5991e-06
-0.000159569
1.23153e-06
-0.000160447
8.77689e-07
-0.000160911
4.64331e-07
-0.000160989
7.80868e-08
-0.000160671
-3.18099e-07
-0.000159942
-7.28771e-07
-0.000158786
-1.15602e-06
-0.000157205
-1.58095e-06
-0.000155125
-2.07987e-06
-0.000152529
-2.59591e-06
-0.000149392
-3.13667e-06
-0.000145643
-3.74866e-06
-0.000141245
-4.3981e-06
-0.000136153
-5.09189e-06
-0.000130333
-5.82052e-06
-0.000123724
-6.60813e-06
-0.000116359
-7.36516e-06
-0.000108121
-8.23775e-06
-9.89914e-05
-9.12988e-06
-8.89895e-05
-1.00019e-05
-7.81764e-05
-1.08131e-05
-6.62218e-05
-1.19546e-05
-5.34162e-05
-1.28056e-05
-3.9447e-05
-1.39693e-05
-2.46184e-05
-1.48286e-05
-8.61195e-06
-1.60065e-05
8.27609e-06
-1.68881e-05
2.59099e-05
-1.76339e-05
4.42526e-05
-1.83427e-05
6.30593e-05
-1.88067e-05
8.19729e-05
-1.89137e-05
0.00010097
-1.89975e-05
0.000119616
-1.86454e-05
0.000137695
-1.80797e-05
0.000155013
-1.73173e-05
0.000171179
-1.61665e-05
0.000186015
-1.48358e-05
0.000199268
-1.32528e-05
0.000210596
-1.13287e-05
0.000219937
-9.34119e-06
0.000227019
-7.08199e-06
0.000231681
-4.66119e-06
0.00023399
-2.30965e-06
0.000233624
3.66194e-07
0.000230778
2.84558e-06
0.000225532
5.24645e-06
0.000217951
7.58048e-06
0.000208323
9.62868e-06
0.000196879
1.14433e-05
0.000183656
1.32228e-05
0.000169039
1.4617e-05
0.000153252
1.57877e-05
0.00013663
1.66211e-05
0.000119495
1.71353e-05
0.000101914
1.7581e-05
8.43425e-05
1.75716e-05
6.67974e-05
1.75451e-05
4.95304e-05
1.7267e-05
3.27847e-05
1.67457e-05
1.65134e-05
1.62713e-05
9.91371e-07
1.5522e-05
-1.38992e-05
1.48906e-05
-2.8032e-05
1.41328e-05
-4.13617e-05
1.33297e-05
-5.39045e-05
1.25428e-05
-6.56523e-05
1.17478e-05
-7.65856e-05
1.09332e-05
-8.67365e-05
1.01509e-05
-9.61108e-05
9.37431e-06
-0.000104735
8.62421e-06
-0.000112614
7.8786e-06
-0.000119741
7.12733e-06
-0.000126128
6.38735e-06
-0.000131762
5.63369e-06
-0.000136639
4.877e-06
-0.00014072
4.08096e-06
-0.000144012
3.29203e-06
-0.000146484
2.47245e-06
-0.000148121
1.63608e-06
-0.000148931
8.10393e-07
-0.000148791
-1.39939e-07
-0.000147699
-1.09237e-06
-0.000145676
-2.02222e-06
-0.00014273
-2.94613e-06
-0.000138843
-3.88731e-06
-0.000134003
-4.83957e-06
-0.000128275
-5.72887e-06
-0.00012153
-6.74501e-06
-0.000113909
-7.62012e-06
-0.000105463
-8.44617e-06
-9.59862e-05
-9.47707e-06
-8.56135e-05
-1.03728e-05
-7.43912e-05
-1.12222e-05
-6.21947e-05
-1.21965e-05
-4.92222e-05
-1.29725e-05
-3.52958e-05
-1.39264e-05
-2.06832e-05
-1.46126e-05
-5.29068e-06
-1.53925e-05
1.06675e-05
-1.59582e-05
2.70549e-05
-1.63874e-05
-1.67291e-05
9.7864e-05
3.52685e-05
8.0008e-05
3.57048e-05
6.17746e-05
3.64583e-05
4.32687e-05
3.70038e-05
2.49391e-05
3.66512e-05
6.79455e-06
3.62816e-05
-1.09613e-05
3.55077e-05
-2.81366e-05
3.43449e-05
-4.4551e-05
3.2825e-05
-6.0071e-05
3.10365e-05
-7.46942e-05
2.92423e-05
-8.83448e-05
2.72974e-05
-0.000100979
2.5268e-05
-0.000112625
2.32891e-05
-0.000123274
2.12926e-05
-0.000132951
1.93568e-05
-0.00014166
1.74202e-05
-0.000149433
1.55446e-05
-0.00015631
1.37543e-05
-0.000162319
1.20161e-05
-0.000167492
1.03402e-05
-0.000171869
8.7536e-06
-0.000175469
7.19913e-06
-0.000178325
5.70899e-06
-0.000180444
4.23689e-06
-0.000181874
2.86107e-06
-0.000182621
1.49416e-06
-0.000182672
1.06371e-07
-0.000181978
-1.38018e-06
-0.000180585
-2.78571e-06
-0.000178481
-4.21467e-06
-0.000175626
-5.70946e-06
-0.000172037
-7.18027e-06
-0.000167614
-8.84682e-06
-0.000162409
-1.04067e-05
-0.000156441
-1.19385e-05
-0.000149523
-1.38272e-05
-0.000141679
-1.56967e-05
-0.000133015
-1.73286e-05
-0.000123276
-1.94791e-05
-0.000112635
-2.12813e-05
-0.00010092
-2.34286e-05
-8.81658e-05
-2.55057e-05
-7.45986e-05
-2.71358e-05
-5.99341e-05
-2.93242e-05
-4.44111e-05
-3.10455e-05
-2.81251e-05
-3.25639e-05
-1.11785e-05
-3.38723e-05
6.60892e-06
-3.55825e-05
2.46826e-05
-3.6141e-05
4.31365e-05
-3.68992e-05
6.16724e-05
-3.70612e-05
8.01945e-05
-3.70311e-05
9.8504e-05
-3.6607e-05
0.00011617
-3.53199e-05
0.000133122
-3.38927e-05
0.000149134
-3.201e-05
0.000163807
-2.93431e-05
0.000177058
-2.64901e-05
0.000188627
-2.31288e-05
0.000198376
-1.94912e-05
0.000206215
-1.56673e-05
0.000211807
-1.11813e-05
0.000215254
-6.8799e-06
0.000216308
-2.1074e-06
0.000214983
2.64571e-06
0.000211308
7.35044e-06
0.000205359
1.18969e-05
0.00019728
1.61528e-05
0.000187209
2.01354e-05
0.000175256
2.38932e-05
0.000161579
2.73433e-05
0.000146413
3.03209e-05
0.000130014
3.27856e-05
0.000112597
3.48253e-05
9.45094e-05
3.61608e-05
7.58709e-05
3.72647e-05
5.70052e-05
3.77172e-05
3.80667e-05
3.78702e-05
1.93887e-05
3.73402e-05
1.03038e-06
3.67046e-05
-1.67992e-05
3.56487e-05
-3.3973e-05
3.43371e-05
-5.03536e-05
3.27597e-05
-6.58491e-05
3.09831e-05
-8.0356e-05
2.90047e-05
-9.38135e-05
2.69169e-05
-0.000106174
2.47228e-05
-0.000117494
2.26269e-05
-0.000127745
2.05023e-05
-0.000136932
1.83623e-05
-0.000145099
1.63317e-05
-0.000152245
1.42947e-05
-0.000158389
1.22882e-05
-0.000163577
1.03706e-05
-0.000167881
8.59981e-06
-0.000171291
6.81892e-06
-0.000173886
5.18853e-06
-0.000175687
3.60559e-06
-0.000176767
2.16694e-06
-0.00017713
7.34756e-07
-0.000176811
-6.45354e-07
-0.000175871
-1.88596e-06
-0.000174269
-3.20329e-06
-0.00017208
-4.36896e-06
-0.000169269
-5.61764e-06
-0.000165846
-6.85127e-06
-0.000161855
-7.96366e-06
-0.000157198
-9.32261e-06
-0.000151971
-1.04577e-05
-0.000146034
-1.18751e-05
-0.000139413
-1.32399e-05
-0.00013205
-1.47222e-05
-0.000124037
-1.60216e-05
-0.000115317
-1.74444e-05
-0.000105856
-1.89168e-05
-9.56395e-05
-2.04328e-05
-8.46319e-05
-2.20119e-05
-7.29792e-05
-2.33008e-05
-6.05297e-05
-2.48949e-05
-4.73772e-05
-2.63034e-05
-3.3512e-05
-2.77342e-05
-1.89876e-05
-2.9052e-05
-3.88595e-06
-3.01963e-05
1.17945e-05
-3.13527e-05
2.78615e-05
-3.21279e-05
4.42646e-05
-3.28048e-05
6.08363e-05
-3.31296e-05
7.74105e-05
-3.31385e-05
9.37964e-05
-3.27689e-05
0.000109831
-3.20565e-05
0.000125251
-3.08426e-05
0.000139841
-2.91717e-05
0.000153395
-2.70958e-05
0.000165591
-2.43813e-05
0.000176264
-2.13443e-05
0.00018518
-1.78229e-05
0.000192152
-1.39459e-05
0.000197042
-9.7831e-06
0.000199691
-5.28381e-06
0.000200097
-8.16087e-07
0.000198148
3.88939e-06
0.000193904
8.4825e-06
0.000187423
1.29586e-05
0.000178829
1.71809e-05
0.00016824
2.11403e-05
0.000155831
2.48175e-05
0.000141805
2.80501e-05
0.000126423
3.07774e-05
0.000109885
3.30433e-05
9.25606e-05
3.46175e-05
7.46487e-05
3.58009e-05
5.64533e-05
3.63963e-05
3.81906e-05
3.65174e-05
2.01171e-05
3.61209e-05
2.44618e-06
3.53526e-05
-1.46208e-05
3.41627e-05
-3.10048e-05
3.27422e-05
-4.64902e-05
3.09604e-05
-6.1024e-05
2.90631e-05
-7.44843e-05
2.69278e-05
-8.69581e-05
2.4945e-05
-9.83082e-05
2.26943e-05
-0.000108589
2.05655e-05
-0.000117852
1.85207e-05
-0.000126132
1.65717e-05
-0.000133519
1.47766e-05
-0.000140053
1.30777e-05
-0.000145809
1.15072e-05
-0.000150763
9.90962e-06
-0.000155021
8.51166e-06
-0.000158544
7.04948e-06
-0.00016152
5.95657e-06
-0.000163839
4.64357e-06
-0.000165623
3.57046e-06
-0.000166872
2.50766e-06
-0.000167623
1.50863e-06
-0.000167887
5.26228e-07
-0.000167775
-2.29492e-07
-0.00016716
-1.22586e-06
-0.000166104
-2.10942e-06
-0.000164578
-3.05422e-06
-0.000162593
-3.96305e-06
-0.000160126
-4.92906e-06
-0.000157215
-5.82606e-06
-0.000153814
-6.82397e-06
-0.00014998
-7.64602e-06
-0.000145617
-8.724e-06
-0.000140723
-9.79185e-06
-0.000135262
-1.09231e-05
-0.000129177
-1.21675e-05
-0.000122417
-1.35236e-05
-0.000114957
-1.49195e-05
-0.000106723
-1.64666e-05
-9.76924e-05
-1.80607e-05
-8.78539e-05
-1.96838e-05
-7.72146e-05
-2.12852e-05
-6.57955e-05
-2.28302e-05
-5.36221e-05
-2.43469e-05
-4.08024e-05
-2.5631e-05
-2.73234e-05
-2.69519e-05
-1.32861e-05
-2.81085e-05
1.20609e-06
-2.89535e-05
1.62013e-05
-2.99825e-05
3.15635e-05
-3.07199e-05
4.72337e-05
-3.13291e-05
6.30197e-05
-3.15749e-05
7.87842e-05
-3.15216e-05
9.43039e-05
-3.10361e-05
0.000109376
-3.01381e-05
0.000123817
-2.88592e-05
0.000137331
-2.7026e-05
0.000149771
-2.48735e-05
0.000160889
-2.2219e-05
0.000170406
-1.90279e-05
0.000178182
-1.55608e-05
0.000184036
-1.17044e-05
0.00018778
-7.48688e-06
0.000189453
-3.32764e-06
0.000188965
9.78247e-07
0.000186322
5.2717e-06
0.000181503
9.62889e-06
0.000174694
1.36343e-05
0.000165932
1.74964e-05
0.000155476
2.08989e-05
0.000143456
2.40322e-05
0.000130153
2.65876e-05
0.000115791
2.87169e-05
0.000100605
3.03625e-05
8.48376e-05
3.15182e-05
6.87171e-05
3.22407e-05
5.24306e-05
3.25655e-05
3.62303e-05
3.23894e-05
2.02757e-05
3.19048e-05
4.69429e-06
3.11647e-05
-1.03486e-05
3.00779e-05
-2.47569e-05
2.88115e-05
-3.8445e-05
2.73652e-05
-5.13526e-05
2.5837e-05
-6.3462e-05
2.42067e-05
-7.47328e-05
2.25627e-05
-8.52469e-05
2.10027e-05
-9.48899e-05
1.92922e-05
-0.000103757
1.77294e-05
-0.000111837
1.61577e-05
-0.000119254
1.48427e-05
-0.000125908
1.32989e-05
-0.000131864
1.19207e-05
-0.000137138
1.05513e-05
-0.000141759
9.22743e-06
-0.000145796
8.09497e-06
-0.000149278
6.97004e-06
-0.000152254
5.95043e-06
-0.000154748
4.98853e-06
-0.000156814
4.13595e-06
-0.00015841
3.19444e-06
-0.000159661
2.48254e-06
-0.000160521
1.73775e-06
-0.000160984
9.27287e-07
-0.000161062
1.56705e-07
-0.000160748
-6.31788e-07
-0.000160026
-1.45109e-06
-0.000158865
-2.31711e-06
-0.000157281
-3.16455e-06
-0.000155205
-4.15582e-06
-0.000152612
-5.18832e-06
-0.000149462
-6.2869e-06
-0.00014573
-7.48077e-06
-0.00014132
-8.80741e-06
-0.000136233
-1.01789e-05
-0.000130414
-1.16395e-05
-0.000123796
-1.32268e-05
-0.000116426
-1.4735e-05
-0.000108184
-1.64798e-05
-9.90583e-05
-1.82552e-05
-8.90633e-05
-1.99969e-05
-7.82277e-05
-2.16487e-05
-6.62848e-05
-2.38976e-05
-5.34601e-05
-2.56303e-05
-3.95142e-05
-2.79152e-05
-2.4673e-05
-2.96699e-05
-8.65891e-06
-3.20206e-05
8.23051e-06
-3.37776e-05
2.58735e-05
-3.5277e-05
4.42259e-05
-3.66952e-05
6.30448e-05
-3.76257e-05
8.197e-05
-3.7839e-05
0.000100986
-3.80139e-05
0.000119639
-3.72981e-05
0.00013773
-3.61713e-05
0.000155074
-3.46611e-05
0.000171252
-3.23443e-05
0.000186092
-2.96763e-05
0.000199358
-2.65186e-05
0.000210701
-2.26722e-05
0.000220041
-1.86806e-05
0.000227127
-1.41687e-05
0.000231799
-9.33295e-06
0.000234113
-4.62352e-06
0.000233742
7.36928e-07
0.000230887
5.70088e-06
0.000225644
1.04885e-05
0.000218061
1.51642e-05
0.000208426
1.92638e-05
0.000196971
2.28978e-05
0.000183737
2.64567e-05
0.000169108
2.92458e-05
0.000153312
3.15839e-05
0.000136674
3.32593e-05
0.000119525
3.42838e-05
0.000101936
3.51697e-05
8.43538e-05
3.51543e-05
6.67979e-05
3.5101e-05
4.95295e-05
3.45353e-05
3.27727e-05
3.35025e-05
1.64918e-05
3.25521e-05
9.68399e-07
3.10454e-05
-1.39249e-05
2.97839e-05
-2.80602e-05
2.82681e-05
-4.13924e-05
2.66619e-05
-5.39395e-05
2.50899e-05
-6.56877e-05
2.3496e-05
-7.66201e-05
2.18656e-05
-8.67738e-05
2.03046e-05
-9.61516e-05
1.87521e-05
-0.000104776
1.72482e-05
-0.000112655
1.57578e-05
-0.000119787
1.42592e-05
-0.000126179
1.27799e-05
-0.000131815
1.12695e-05
-0.000136688
9.75036e-06
-0.000140769
8.16197e-06
-0.000144063
6.58533e-06
-0.000146536
4.94533e-06
-0.000148181
3.28129e-06
-0.00014899
1.61946e-06
-0.000148846
-2.83748e-07
-0.000147754
-2.18457e-06
-0.000145724
-4.05204e-06
-0.000142783
-5.88705e-06
-0.000138899
-7.77177e-06
-0.000134055
-9.68304e-06
-0.000128326
-1.14582e-05
-0.000121577
-1.34941e-05
-0.000113955
-1.52418e-05
-0.000105508
-1.68933e-05
-9.60288e-05
-1.89562e-05
-8.56549e-05
-2.07466e-05
-7.44292e-05
-2.24479e-05
-6.22309e-05
-2.43948e-05
-4.92543e-05
-2.59492e-05
-3.53257e-05
-2.7855e-05
-2.07093e-05
-2.9229e-05
-5.31765e-06
-3.07842e-05
1.06459e-05
-3.19218e-05
2.70396e-05
-3.27812e-05
-3.34653e-05
9.79e-05
5.29232e-05
8.00277e-05
5.3577e-05
6.17767e-05
5.47094e-05
4.32555e-05
5.5525e-05
2.49109e-05
5.49958e-05
6.75309e-06
5.44394e-05
-1.10151e-05
5.32759e-05
-2.82009e-05
5.15307e-05
-4.46239e-05
4.9248e-05
-6.0151e-05
4.65636e-05
-7.47796e-05
4.38708e-05
-8.84328e-05
4.09506e-05
-0.00010107
3.79055e-05
-0.000112718
3.49369e-05
-0.000123365
3.19395e-05
-0.000133042
2.90336e-05
-0.000141751
2.61291e-05
-0.000149522
2.33156e-05
-0.000156397
2.06295e-05
-0.000162403
1.80221e-05
-0.000167572
1.55097e-05
-0.000171951
1.31326e-05
-0.000175549
1.0797e-05
-0.000178406
8.56593e-06
-0.000180524
6.35436e-06
-0.000181953
4.29078e-06
-0.000182688
2.22905e-06
-0.000182727
1.45017e-07
-0.000182032
-2.07563e-06
-0.000180639
-4.17797e-06
-0.00017855
-6.30417e-06
-0.000175684
-8.57548e-06
-0.000172097
-1.07674e-05
-0.000167675
-1.32684e-05
-0.000162473
-1.56087e-05
-0.000156506
-1.79052e-05
-0.000149591
-2.07427e-05
-0.000141754
-2.35337e-05
-0.000133092
-2.59903e-05
-0.000123355
-2.92164e-05
-0.000112715
-3.19212e-05
-0.000101001
-3.51428e-05
-8.82411e-05
-3.82658e-05
-7.46769e-05
-4.07001e-05
-6.00041e-05
-4.39971e-05
-4.4482e-05
-4.65676e-05
-2.81808e-05
-4.88651e-05
-1.12141e-05
-5.08391e-05
6.5759e-06
-5.33726e-05
2.46635e-05
-5.42286e-05
4.31272e-05
-5.5363e-05
6.1675e-05
-5.5609e-05
8.02154e-05
-5.55716e-05
9.8547e-05
-5.49387e-05
0.000116227
-5.29998e-05
0.000133194
-5.08603e-05
0.000149225
-4.80405e-05
0.000163915
-4.40334e-05
0.00017718
-3.9755e-05
0.000188761
-3.47101e-05
0.000198521
-2.9251e-05
0.00020638
-2.35265e-05
0.000211967
-1.67682e-05
0.000215411
-1.03241e-05
0.000216482
-3.17851e-06
0.000215146
3.98199e-06
0.000211475
1.10211e-05
0.000205524
1.78478e-05
0.000197437
2.42397e-05
0.000187356
3.02166e-05
0.000175381
3.58683e-05
0.000161689
4.10353e-05
0.000146505
4.55044e-05
0.000130089
4.92024e-05
0.000112655
5.2259e-05
9.45481e-05
5.42677e-05
7.58919e-05
5.5921e-05
5.70048e-05
5.66043e-05
3.80515e-05
5.68235e-05
1.93541e-05
5.60377e-05
9.79589e-07
5.50792e-05
-1.68636e-05
5.34919e-05
-3.40513e-05
5.15248e-05
-5.04446e-05
4.91529e-05
-6.59493e-05
4.64878e-05
-8.04609e-05
4.35161e-05
-9.39227e-05
4.03786e-05
-0.000106294
3.70935e-05
-0.000117629
3.39626e-05
-0.00012787
3.07432e-05
-0.000137058
2.755e-05
-0.000145228
2.45008e-05
-0.000152383
2.14495e-05
-0.000158533
1.84387e-05
-0.000163729
1.55659e-05
-0.000168037
1.2908e-05
-0.000171446
1.02278e-05
-0.000174033
7.77524e-06
-0.000175834
5.40707e-06
-0.000176918
3.25017e-06
-0.000177274
1.09122e-06
-0.000176965
-9.5427e-07
-0.000176024
-2.82762e-06
-0.000174419
-4.80782e-06
-0.000172228
-6.55984e-06
-0.000169417
-8.42921e-06
-0.000166009
-1.02588e-05
-0.00016196
-1.20125e-05
-0.000157366
-1.39168e-05
-0.000152116
-1.57076e-05
-0.000146189
-1.78026e-05
-0.000139563
-1.98658e-05
-0.000132208
-2.20772e-05
-0.000124187
-2.4043e-05
-0.000115479
-2.61518e-05
-0.000106013
-2.83833e-05
-9.57913e-05
-3.06543e-05
-8.47803e-05
-3.30229e-05
-7.31245e-05
-3.49566e-05
-6.06762e-05
-3.73432e-05
-4.75157e-05
-3.94639e-05
-3.3647e-05
-4.1603e-05
-1.91206e-05
-4.35785e-05
-4.00493e-06
-4.5312e-05
1.16695e-05
-4.70273e-05
2.77541e-05
-4.82125e-05
4.41767e-05
-4.92274e-05
6.07562e-05
-4.97092e-05
7.73558e-05
-4.97381e-05
9.37597e-05
-4.91729e-05
0.000109798
-4.80945e-05
0.000125248
-4.6293e-05
0.000139859
-4.37833e-05
0.000153422
-4.06584e-05
0.000165637
-3.65969e-05
0.000176325
-3.20315e-05
0.000185258
-2.67566e-05
0.000192246
-2.0934e-05
0.000197142
-1.46789e-05
0.000199796
-7.93747e-06
0.000200189
-1.20936e-06
0.000198231
5.84678e-06
0.000193979
1.27348e-05
0.000187492
1.94461e-05
0.000178909
2.57637e-05
0.000168275
3.17737e-05
0.000155851
3.7242e-05
0.000141799
4.21019e-05
0.000126402
4.61748e-05
0.000109853
4.95922e-05
9.25006e-05
5.19699e-05
7.45599e-05
5.37417e-05
5.633e-05
5.46261e-05
3.80673e-05
5.47801e-05
1.99637e-05
5.42246e-05
2.29705e-06
5.30193e-05
-1.47855e-05
5.12453e-05
-3.11828e-05
4.91395e-05
-4.66616e-05
4.64393e-05
-6.12022e-05
4.36037e-05
-7.46981e-05
4.04238e-05
-8.7139e-05
3.73859e-05
-9.84844e-05
3.40396e-05
-0.000108757
3.08383e-05
-0.000118036
2.77995e-05
-0.000126305
2.48405e-05
-0.000133687
2.21592e-05
-0.000140193
1.95839e-05
-0.000145971
1.72845e-05
-0.000150922
1.48611e-05
-0.000155181
1.27704e-05
-0.000158739
1.06075e-05
-0.000161674
8.8917e-06
-0.000163984
6.95349e-06
-0.000165773
5.35977e-06
-0.000167021
3.75539e-06
-0.000167743
2.23095e-06
-0.000168074
8.56668e-07
-0.000167921
-3.81936e-07
-0.000167303
-1.84383e-06
-0.000166245
-3.1672e-06
-0.000164724
-4.57541e-06
-0.000162742
-5.94538e-06
-0.000160271
-7.39993e-06
-0.000157364
-8.73284e-06
-0.000153985
-1.02032e-05
-0.00015012
-1.15106e-05
-0.000145763
-1.30817e-05
-0.000140867
-1.46878e-05
-0.000135411
-1.63785e-05
-0.000129331
-1.8248e-05
-0.000122581
-2.02738e-05
-0.000115114
-2.23857e-05
-0.000106883
-2.46985e-05
-9.7839e-05
-2.71043e-05
-8.80099e-05
-2.95129e-05
-7.73625e-05
-3.19327e-05
-6.59452e-05
-3.42476e-05
-5.3779e-05
-3.65131e-05
-4.09448e-05
-3.84652e-05
-2.74704e-05
-4.04263e-05
-1.34444e-05
-4.21345e-05
1.08186e-06
-4.34798e-05
1.60991e-05
-4.49998e-05
3.14594e-05
-4.60802e-05
4.71591e-05
-4.70288e-05
6.2944e-05
-4.73599e-05
7.87237e-05
-4.73014e-05
9.42587e-05
-4.65712e-05
0.00010935
-4.52296e-05
0.000123811
-4.332e-05
0.000137341
-4.05564e-05
0.000149794
-3.73267e-05
0.00016093
-3.33545e-05
0.000170461
-2.85595e-05
0.000178247
-2.33469e-05
0.000184118
-1.75754e-05
0.000187878
-1.12462e-05
0.000189548
-4.99783e-06
0.000189043
1.48308e-06
0.000186355
7.95928e-06
0.000181568
1.44163e-05
0.000174757
2.04453e-05
0.000165975
2.62776e-05
0.000155497
3.13774e-05
0.00014346
3.60696e-05
0.000130133
3.99137e-05
0.000115756
4.30941e-05
0.000100552
4.5567e-05
8.47713e-05
4.72987e-05
6.86419e-05
4.83702e-05
5.23402e-05
4.88672e-05
3.61186e-05
4.8611e-05
2.01636e-05
4.78598e-05
4.58622e-06
4.67421e-05
-1.0488e-05
4.51521e-05
-2.49053e-05
4.32289e-05
-3.86085e-05
4.10684e-05
-5.1513e-05
3.87415e-05
-6.36233e-05
3.63171e-05
-7.48837e-05
3.38231e-05
-8.54128e-05
3.15318e-05
-9.50538e-05
2.89332e-05
-0.000103925
2.66007e-05
-0.000112041
2.42734e-05
-0.000119416
2.22178e-05
-0.000126083
1.99662e-05
-0.000132021
1.78589e-05
-0.000137285
1.58146e-05
-0.000141925
1.38681e-05
-0.000145944
1.21141e-05
-0.000149429
1.04542e-05
-0.000152399
8.9206e-06
-0.000154887
7.47638e-06
-0.000156949
6.19842e-06
-0.000158549
4.79432e-06
-0.000159821
3.75504e-06
-0.000160676
2.59235e-06
-0.00016113
1.38199e-06
-0.000161205
2.31005e-07
-0.000160888
-9.48046e-07
-0.000160162
-2.17765e-06
-0.000158999
-3.47993e-06
-0.000157419
-4.74418e-06
-0.000155347
-6.22771e-06
-0.000152749
-7.78591e-06
-0.000149572
-9.46354e-06
-0.000145854
-1.11987e-05
-0.000141448
-1.32139e-05
-0.000136355
-1.5272e-05
-0.000130532
-1.74618e-05
-0.000123906
-1.98527e-05
-0.000116526
-2.21154e-05
-0.000108274
-2.4731e-05
-9.91509e-05
-2.73784e-05
-8.91685e-05
-2.99792e-05
-7.83011e-05
-3.25161e-05
-6.63799e-05
-3.58188e-05
-5.35198e-05
-3.84904e-05
-3.96161e-05
-4.1819e-05
-2.47559e-05
-4.45301e-05
-8.73583e-06
-4.80407e-05
8.15286e-06
-5.06663e-05
2.58106e-05
-5.29347e-05
4.41721e-05
-5.50568e-05
6.30067e-05
-5.64604e-05
8.19557e-05
-5.6788e-05
0.000100987
-5.70456e-05
0.000119668
-5.59789e-05
0.000137777
-5.42801e-05
0.000155147
-5.20318e-05
0.000171342
-4.85395e-05
0.0001862
-4.45335e-05
0.000199491
-3.98099e-05
0.000210849
-3.40303e-05
0.000220206
-2.80379e-05
0.000227287
-2.125e-05
0.000231974
-1.40198e-05
0.000234301
-6.95007e-06
0.000233919
1.11822e-06
0.000231046
8.57352e-06
0.000225814
1.57211e-05
0.000218225
2.27528e-05
0.00020858
2.89089e-05
0.000197102
3.43763e-05
0.000183848
3.97101e-05
0.000169199
4.3895e-05
0.000153395
4.73879e-05
0.000136722
4.99319e-05
0.000119548
5.14579e-05
0.00010195
5.27674e-05
8.43466e-05
5.27581e-05
6.67729e-05
5.26746e-05
4.9512e-05
5.17962e-05
3.27306e-05
5.02839e-05
1.64352e-05
4.88475e-05
9.09795e-07
4.65708e-05
-1.39873e-05
4.4681e-05
-2.81264e-05
4.24071e-05
-4.1462e-05
3.99976e-05
-5.40156e-05
3.76434e-05
-6.57603e-05
3.52408e-05
-7.66914e-05
3.27967e-05
-8.68451e-05
3.04583e-05
-9.62213e-05
2.81283e-05
-0.000104846
2.58731e-05
-0.000112727
2.36383e-05
-0.000119856
2.13889e-05
-0.000126247
1.91702e-05
-0.000131882
1.69051e-05
-0.000136762
1.463e-05
-0.000140848
1.22481e-05
-0.000144146
9.88274e-06
-0.000146617
7.41713e-06
-0.00014826
4.92404e-06
-0.000149064
2.42373e-06
-0.000148919
-4.29476e-07
-0.00014783
-3.27293e-06
-0.000145798
-6.08433e-06
-0.000142859
-8.8261e-06
-0.000138979
-1.16512e-05
-0.000134126
-1.45368e-05
-0.000128393
-1.71909e-05
-0.000121649
-2.02385e-05
-0.000114026
-2.28649e-05
-0.000105577
-2.5342e-05
-9.60962e-05
-2.84369e-05
-8.57226e-05
-3.11202e-05
-7.44924e-05
-3.36782e-05
-6.22938e-05
-3.65934e-05
-4.93117e-05
-3.89313e-05
-3.53814e-05
-4.17853e-05
-2.07597e-05
-4.38508e-05
-5.37099e-06
-4.61729e-05
1.06048e-05
-4.78976e-05
2.7011e-05
-4.91874e-05
-5.0214e-05
9.79538e-05
7.06031e-05
8.00573e-05
7.14735e-05
6.17796e-05
7.2987e-05
4.32358e-05
7.40689e-05
2.48683e-05
7.33633e-05
6.69096e-06
7.26168e-05
-1.10961e-05
7.10629e-05
-2.82989e-05
6.87335e-05
-4.47348e-05
6.56839e-05
-6.02717e-05
6.21005e-05
-7.49076e-05
5.85068e-05
-8.85652e-05
5.46081e-05
-0.000101207
5.05468e-05
-0.000112861
4.65912e-05
-0.000123508
4.25865e-05
-0.000133184
3.87095e-05
-0.000141889
3.4834e-05
-0.000149658
3.10851e-05
-0.000156533
2.75043e-05
-0.000162537
2.40256e-05
-0.000167705
2.06776e-05
-0.000172085
1.75128e-05
-0.00017568
1.4392e-05
-0.000178536
1.14226e-05
-0.000180653
8.47144e-06
-0.000182081
5.71812e-06
-0.000182798
2.94633e-06
-0.000182816
1.62976e-07
-0.000182112
-2.78007e-06
-0.000180721
-5.56832e-06
-0.000178656
-8.36979e-06
-0.000175769
-1.14618e-05
-0.000172186
-1.43512e-05
-0.000167767
-1.76869e-05
-0.00016257
-2.0806e-05
-0.000156607
-2.38684e-05
-0.000149693
-2.76561e-05
-0.000141868
-3.13588e-05
-0.000133209
-3.46492e-05
-0.000123475
-3.89504e-05
-0.000112837
-4.256e-05
-0.000101123
-4.68568e-05
-8.83545e-05
-5.10339e-05
-7.47949e-05
-5.42597e-05
-6.01095e-05
-5.86826e-05
-4.45893e-05
-6.20879e-05
-2.82659e-05
-6.51885e-05
-1.12717e-05
-6.78334e-05
6.52485e-06
-7.11691e-05
2.46308e-05
-7.23346e-05
4.31121e-05
-7.38443e-05
6.16814e-05
-7.41784e-05
8.02458e-05
-7.41361e-05
9.86059e-05
-7.32989e-05
0.00011631
-7.07037e-05
0.000133302
-6.78527e-05
0.000149362
-6.41e-05
0.000164071
-5.87427e-05
0.000177359
-5.30433e-05
0.000188955
-4.63062e-05
0.000198734
-3.90297e-05
0.000206626
-3.14188e-05
0.000212204
-2.23466e-05
0.000215641
-1.37611e-05
0.000216725
-4.26207e-06
0.000215389
5.31751e-06
0.000211728
1.46823e-05
0.00020577
2.38055e-05
0.000197672
3.23377e-05
0.000187575
4.03138e-05
0.000175567
4.78759e-05
0.000161852
5.47512e-05
0.000146641
6.07147e-05
0.000130199
6.56443e-05
0.000112742
6.97163e-05
9.46032e-05
7.24066e-05
7.59258e-05
7.45984e-05
5.70024e-05
7.55278e-05
3.80318e-05
7.5794e-05
1.92984e-05
7.47712e-05
8.97857e-07
7.34797e-05
-1.69654e-05
7.13551e-05
-3.41777e-05
6.8737e-05
-5.05903e-05
6.55654e-05
-6.61053e-05
6.20027e-05
-8.06348e-05
5.80455e-05
-9.41056e-05
5.38493e-05
-0.000106474
4.94618e-05
-0.000117838
4.53262e-05
-0.000128073
4.0978e-05
-0.000137271
3.6748e-05
-0.000145435
3.26643e-05
-0.000152592
2.8607e-05
-0.000158758
2.46039e-05
-0.000164004
2.08116e-05
-0.000168277
1.71813e-05
-0.000171684
1.3635e-05
-0.000174261
1.03522e-05
-0.000176065
7.21039e-06
-0.000177149
4.33479e-06
-0.000177501
1.44268e-06