/*--------------------------------*- C++ -*----------------------------------*\
| =========                 |                                                 |
| \\      /  F ield         | OpenFOAM: The Open Source CFD Toolbox           |
|  \\    /   O peration     | Version:  3.0.1                                 |
|   \\  /    A nd           | Web:      www.OpenFOAM.org                      |
|    \\/     M anipulation  |                                                 |
\*---------------------------------------------------------------------------*/
FoamFile
{
    version     2.0;
    format      ascii;
    class       volScalarField;
    location    "23.6";
    object      p_rgh;
}
// * * * * * * * * * * * * * * * * * * * * * * * * * * * * * * * * * * * * * //

dimensions      [1 -1 -2 0 0 0 0];

internalField   nonuniform List<scalar> 
21420
(
-333.475
-328.499
-322.031
-314.059
-304.557
-293.456
-280.707
-266.252
-250.041
-232.048
-212.24
-190.605
-167.157
-141.931
-114.978
-86.3973
-56.3133
-24.8769
7.62043
40.4568
74.5297
109.011
143.476
177.558
210.809
242.812
273.121
301.306
326.999
349.832
369.465
385.624
398.069
406.613
411.135
411.471
407.694
399.824
387.977
372.372
353.226
330.835
305.513
277.61
247.543
215.71
182.521
148.417
113.812
79.1484
44.9053
12.7626
-19.5135
-51.0863
-81.5041
-110.509
-137.925
-163.635
-187.571
-209.698
-230.002
-248.492
-265.184
-280.109
-293.293
-304.768
-314.568
-322.715
-329.235
-334.152
-337.493
-339.284
-339.503
-338.022
-334.934
-330.259
-323.987
-316.137
-306.692
-295.66
-283.047
-268.842
-253.056
-235.695
-216.775
-196.305
-174.304
-150.8
-125.821
-99.4236
-71.6762
-42.6778
-12.5596
18.5121
50.3348
82.6557
115.197
147.646
179.661
210.88
240.927
269.422
295.986
320.248
341.856
360.481
375.829
387.642
395.705
399.856
399.94
395.976
387.988
375.99
360.157
340.696
317.883
292.049
263.571
232.869
200.386
166.579
131.909
96.8257
61.7508
27.2049
-6.67025
-39.4398
-70.8389
-100.647
-128.691
-154.841
-179.013
-201.16
-221.267
-239.349
-255.442
-269.607
-281.911
-292.437
-301.267
-308.487
-314.182
-318.428
-321.304
-322.862
-323.14
-322.193
-320.065
-316.754
-312.264
-306.583
-299.688
-291.549
-282.122
-271.36
-259.22
-245.648
-230.596
-214.02
-195.877
-176.139
-154.788
-131.82
-107.255
-81.1375
-53.5421
-24.5832
5.58458
36.7743
68.7409
101.168
133.749
166.125
197.902
228.665
257.979
285.411
310.534
332.942
352.258
368.147
380.322
388.559
392.708
392.618
388.393
380.085
367.782
351.727
332.19
309.495
284.014
256.148
226.325
194.985
162.571
129.517
96.2401
63.1307
30.5528
-1.23109
-31.9551
-61.4045
-89.4188
-115.879
-140.705
-163.851
-185.297
-205.044
-223.114
-239.536
-254.346
-267.589
-279.309
-289.54
-298.317
-305.668
-311.612
-316.156
-319.331
-321.13
-321.532
-320.57
-318.241
-314.52
-309.393
-302.83
-294.801
-285.271
-274.204
-261.562
-247.317
-231.444
-213.93
-194.771
-173.977
-151.573
-127.598
-102.121
-75.2251
-47.0302
-17.6814
12.6367
43.744
75.3172
107.106
138.799
170.06
200.536
229.864
257.674
283.598
307.272
328.35
346.512
361.467
372.965
380.805
384.847
384.927
381.139
373.477
361.991
346.869
328.325
306.623
282.084
255.065
225.954
195.172
163.153
130.335
97.1517
64.0214
31.4998
-0.0652462
-30.7713
-60.3126
-88.4607
-115.012
-139.858
-162.926
-184.173
-203.605
-221.239
-237.103
-251.251
-263.734
-274.604
-283.93
-291.763
-298.165
-303.195
-306.895
-309.315
-310.447
-310.309
-308.915
-306.244
-302.275
-296.973
-290.288
-282.184
-272.579
-261.408
-248.609
-234.126
-217.896
-199.895
-180.081
-158.482
-135.139
-110.111
-83.5046
-55.4864
-26.2634
3.81609
32.5224
63.6259
95.1409
126.569
157.572
187.764
216.806
244.349
270.05
293.632
314.804
333.303
348.911
361.438
370.725
376.65
379.039
377.331
372.101
363.468
351.449
336.192
317.889
296.76
273.063
247.086
219.15
189.589
158.797
127.132
94.9822
62.7956
31.1834
3.8537
-26.014
-54.8675
-82.296
-108.132
-132.22
-333.532
-328.558
-322.092
-314.122
-304.621
-293.523
-280.778
-266.325
-250.117
-232.126
-212.32
-190.687
-167.24
-142.012
-115.058
-86.4753
-56.3867
-24.9443
7.56346
40.4024
74.4878
108.983
143.464
177.563
210.832
242.854
273.181
301.385
327.095
349.945
369.592
385.764
398.219
406.77
411.295
411.64
407.847
399.975
388.119
372.503
353.342
330.935
305.596
277.674
247.589
215.737
182.53
148.408
113.786
79.1046
44.8447
12.7156
-19.5735
-51.1567
-81.5813
-110.59
-138.009
-163.719
-187.654
-209.78
-230.082
-248.569
-265.259
-280.182
-293.364
-304.837
-314.636
-322.781
-329.301
-334.218
-337.559
-339.348
-339.564
-338.086
-334.998
-330.324
-324.053
-316.204
-306.761
-295.73
-283.119
-268.915
-253.13
-235.771
-216.852
-196.384
-174.384
-150.881
-125.902
-99.5037
-71.7545
-42.753
-12.63
18.4482
50.279
82.6101
115.164
147.626
179.655
210.891
240.955
269.467
296.048
320.327
341.951
360.591
375.952
387.776
395.848
400.009
400.087
396.123
388.131
376.126
360.281
340.806
317.977
292.124
263.627
232.905
200.402
166.576
131.889
96.7885
61.697
27.141
-6.74645
-39.5243
-70.9298
-100.742
-128.789
-154.94
-179.112
-201.258
-221.363
-239.442
-255.532
-269.693
-281.994
-292.515
-301.342
-308.558
-314.25
-318.493
-321.367
-322.922
-323.197
-322.251
-320.123
-316.812
-312.322
-306.643
-299.75
-291.613
-282.188
-271.429
-259.291
-245.722
-230.673
-214.099
-195.958
-176.222
-154.873
-131.906
-107.34
-81.2215
-53.6236
-24.6604
5.5134
36.711
68.6876
101.127
133.722
166.114
197.908
228.69
258.023
285.474
310.617
333.043
352.376
368.28
380.466
388.711
392.869
392.774
388.545
380.231
367.918
351.85
332.297
309.585
284.085
256.2
226.357
194.999
162.566
129.496
96.2039
63.0812
30.4943
-1.29855
-32.0292
-61.483
-89.5001
-115.962
-140.788
-163.933
-185.377
-205.122
-223.19
-239.609
-254.417
-267.658
-279.376
-289.605
-298.381
-305.731
-311.674
-316.218
-319.392
-321.19
-321.591
-320.631
-318.303
-314.583
-309.457
-302.896
-294.869
-285.341
-274.275
-261.636
-247.393
-231.522
-214.009
-194.851
-174.058
-151.653
-127.678
-102.198
-75.3002
-47.101
-17.7467
12.5789
43.6942
75.278
107.079
138.785
170.06
200.552
229.896
257.723
283.663
307.354
328.448
346.624
361.592
373.1
380.948
384.997
385.078
381.284
373.618
362.125
346.992
328.434
306.717
282.161
255.124
225.995
195.195
163.158
130.323
97.1236
63.9823
31.4483
-0.125101
-30.8386
-60.3868
-88.5394
-115.093
-139.94
-163.008
-184.254
-203.683
-221.314
-237.176
-251.321
-263.801
-274.668
-283.991
-291.821
-298.221
-303.248
-306.947
-309.365
-310.496
-310.358
-308.965
-306.294
-302.327
-297.027
-290.344
-282.244
-272.642
-261.474
-248.679
-234.199
-217.971
-199.972
-180.16
-158.561
-135.218
-110.187
-83.5765
-55.5521
-26.3183
3.77591
32.4683
63.5902
95.1212
126.564
157.582
187.789
216.845
244.402
270.118
293.714
314.898
333.409
349.026
361.562
370.855
376.785
379.187
377.467
372.235
363.597
351.571
336.304
317.989
296.848
273.136
247.145
219.193
189.616
158.808
127.129
94.9655
62.7669
31.1471
3.78876
-26.0853
-54.9452
-82.3791
-108.219
-132.31
-333.646
-328.674
-322.212
-314.246
-304.751
-293.658
-280.918
-266.472
-250.269
-232.282
-212.48
-190.849
-167.403
-142.176
-115.219
-86.6311
-56.5334
-25.079
7.44975
40.2935
74.4041
108.928
143.44
177.573
210.878
242.937
273.302
301.542
327.288
350.17
369.847
386.044
398.519
407.083
411.615
411.976
408.154
400.276
388.403
372.764
353.574
331.135
305.761
277.802
247.68
215.792
182.548
148.391
113.734
79.0173
44.7228
12.6225
-19.6935
-51.2976
-81.7358
-110.752
-138.175
-163.886
-187.82
-209.943
-230.242
-248.724
-265.409
-280.327
-293.504
-304.973
-314.768
-322.911
-329.429
-334.346
-337.687
-339.472
-339.68
-338.206
-335.12
-330.447
-324.177
-316.33
-306.888
-295.859
-283.249
-269.047
-253.264
-235.907
-216.989
-196.523
-174.524
-151.022
-126.042
-99.642
-71.8885
-42.8802
-12.7472
18.3444
50.1916
82.5432
115.12
147.609
179.668
210.935
241.033
269.579
296.194
320.506
342.162
360.831
376.218
388.063
396.151
400.328
400.403
396.434
388.434
376.413
360.546
341.043
318.18
292.29
263.754
232.992
200.449
166.584
131.861
96.7282
61.6065
27.0252
-6.88437
-39.6786
-71.0967
-100.918
-128.97
-155.124
-179.295
-201.438
-221.538
-239.611
-255.694
-269.847
-282.14
-292.653
-301.472
-308.681
-314.367
-318.604
-321.472
-323.023
-323.292
-322.347
-320.217
-316.907
-312.418
-306.741
-299.851
-291.717
-282.298
-271.544
-259.411
-245.848
-230.804
-214.235
-196.099
-176.367
-155.021
-132.055
-107.49
-81.368
-53.7653
-24.7938
5.39184
36.605
68.6012
101.065
133.687
166.11
197.939
228.757
258.129
285.619
310.8
333.262
352.628
368.56
380.769
389.03
393.196
393.107
388.862
380.534
368.202
352.106
332.521
309.774
284.236
256.312
226.43
195.034
162.566
129.463
96.1404
62.991
30.3863
-1.42457
-32.1683
-61.6311
-89.6535
-116.117
-140.944
-164.087
-185.528
-205.269
-223.332
-239.746
-254.549
-267.785
-279.498
-289.723
-298.496
-305.844
-311.785
-316.328
-319.502
-321.298
-321.697
-320.741
-318.413
-314.695
-309.572
-303.014
-294.991
-285.467
-274.405
-261.77
-247.531
-231.663
-214.152
-194.996
-174.204
-151.799
-127.823
-102.34
-75.436
-47.2285
-17.8631
12.4774
43.6084
75.2135
107.038
138.77
170.075
200.597
229.974
257.833
283.807
307.53
328.656
346.86
361.853
373.381
381.244
385.3
385.392
381.584
373.908
362.4
347.245
328.66
306.912
282.321
255.248
226.082
195.245
163.172
130.302
97.0713
63.9076
31.3494
-0.241353
-30.9702
-60.5324
-88.6939
-115.253
-140.102
-163.17
-184.413
-203.838
-221.464
-237.32
-251.46
-263.933
-274.795
-284.112
-291.936
-298.331
-303.354
-307.048
-309.462
-310.591
-310.456
-309.066
-306.394
-302.43
-297.135
-290.457
-282.363
-272.767
-261.607
-248.819
-234.344
-218.122
-200.127
-180.317
-158.719
-135.374
-110.338
-83.72
-55.683
-26.4278
3.69628
32.3604
63.5195
95.0824
126.554
157.601
187.837
216.923
244.51
270.254
293.877
315.087
333.621
349.258
361.811
371.117
377.056
379.484
377.738
372.504
363.855
351.813
336.529
318.19
297.023
273.283
247.261
219.278
189.669
158.831
127.122
94.932
62.7093
31.0739
3.65938
-26.2279
-55.1007
-82.5455
-108.394
-132.49
-333.817
-328.85
-322.393
-314.434
-304.945
-293.86
-281.129
-266.691
-250.496
-232.517
-212.721
-191.094
-167.65
-142.421
-115.461
-86.8651
-56.7536
-25.2811
7.27858
40.1297
74.2784
108.845
143.404
177.588
210.946
243.062
273.484
301.779
327.577
350.509
370.23
386.464
398.969
407.554
412.095
412.474
408.622
400.729
388.83
373.155
353.923
331.436
306.008
277.994
247.816
215.873
182.575
148.366
113.656
78.8861
44.5389
12.4836
-19.8739
-51.5095
-81.9678
-110.996
-138.425
-164.137
-188.07
-210.188
-230.481
-248.956
-265.634
-280.544
-293.714
-305.177
-314.967
-323.105
-329.62
-334.537
-337.878
-339.657
-339.859
-338.388
-335.304
-330.632
-324.364
-316.518
-307.079
-296.052
-283.444
-269.245
-253.463
-236.11
-217.194
-196.731
-174.734
-151.231
-126.251
-99.847
-72.0869
-43.0681
-12.92
18.1919
50.064
82.4464
115.059
147.588
179.692
211.006
241.154
269.751
296.417
320.779
342.482
361.195
376.62
388.497
396.609
400.799
400.889
396.908
388.892
376.848
360.947
341.401
318.488
292.543
263.948
233.126
200.523
166.6
131.822
96.6404
61.4805
26.8462
-7.08908
-39.9077
-71.3447
-101.179
-129.239
-155.396
-179.567
-201.706
-221.799
-239.863
-255.935
-270.076
-282.357
-292.858
-301.665
-308.864
-314.539
-318.767
-321.628
-323.17
-323.434
-322.489
-320.357
-317.046
-312.559
-306.886
-300.001
-291.873
-282.46
-271.714
-259.589
-246.034
-230.998
-214.437
-196.309
-176.582
-155.241
-132.278
-107.712
-81.5858
-53.9756
-24.9918
5.21154
36.4479
68.4736
100.973
133.636
166.106
197.987
228.86
258.29
285.838
311.076
333.593
353.008
368.982
381.225
389.509
393.683
393.61
389.342
380.992
368.628
352.493
332.859
310.059
284.464
256.482
226.542
195.088
162.567
129.413
96.0463
62.8565
30.2256
-1.61261
-32.376
-61.8521
-89.8826
-116.35
-141.177
-164.318
-185.754
-205.489
-223.544
-239.95
-254.745
-267.974
-279.68
-289.9
-298.669
-306.013
-311.951
-316.493
-319.665
-321.457
-321.859
-320.905
-318.578
-314.862
-309.742
-303.189
-295.172
-285.654
-274.599
-261.969
-247.736
-231.872
-214.366
-195.213
-174.423
-152.017
-128.038
-102.55
-75.6381
-47.4183
-18.0361
12.3264
43.4816
75.1182
106.979
138.75
170.098
200.666
230.091
258
284.024
307.796
328.969
347.216
362.246
373.805
381.69
385.755
385.865
382.037
374.347
362.815
347.627
329.001
307.206
282.563
255.436
226.214
195.321
163.193
130.271
96.9928
63.7946
31.2021
-0.415337
-31.1676
-60.751
-88.9259
-115.494
-140.345
-163.412
-184.651
-204.071
-221.688
-237.536
-251.668
-264.132
-274.985
-284.294
-292.109
-298.496
-303.513
-307.201
-309.609
-310.735
-310.606
-309.215
-306.544
-302.585
-297.296
-290.626
-282.541
-272.955
-261.805
-249.027
-234.562
-218.348
-200.359
-180.553
-158.956
-135.608
-110.566
-83.9355
-55.8798
-26.5928
3.57675
32.1982
63.4137
95.0242
126.539
157.63
187.91
217.04
244.672
270.459
294.123
315.371
333.939
349.607
362.184
371.509
377.459
379.921
378.149
372.91
364.243
352.178
336.865
318.492
297.286
273.504
247.436
219.406
189.749
158.865
127.112
94.8815
62.6224
30.9633
3.46572
-26.4418
-55.334
-82.7951
-108.656
-132.76
-334.045
-329.083
-322.634
-314.683
-305.204
-294.13
-281.411
-266.984
-250.8
-232.83
-213.041
-191.419
-167.978
-142.749
-115.784
-87.1774
-57.0478
-25.5506
7.04845
39.9113
74.1105
108.734
143.355
177.607
211.038
243.228
273.725
302.094
327.963
350.961
370.741
387.025
399.569
408.182
412.735
413.129
409.254
401.335
389.4
373.678
354.388
331.837
306.338
278.25
247.997
215.98
182.611
148.332
113.553
78.7111
44.2921
12.2996
-20.1151
-51.7927
-82.2778
-111.322
-138.758
-164.473
-188.403
-210.515
-230.8
-249.266
-265.933
-280.834
-293.995
-305.449
-315.232
-323.365
-329.876
-334.79
-338.129
-339.901
-340.102
-338.631
-335.549
-330.879
-324.613
-316.769
-307.334
-296.31
-283.705
-269.508
-253.73
-236.38
-217.467
-197.007
-175.013
-151.511
-126.529
-100.12
-72.3511
-43.3183
-13.1501
17.9888
49.8944
82.3179
114.978
147.561
179.724
211.102
241.316
269.981
296.715
321.144
342.91
361.681
377.158
389.077
397.221
401.426
401.537
397.545
389.506
377.43
361.483
341.879
318.9
292.881
264.207
233.304
200.621
166.621
131.771
96.5234
61.3096
26.6108
-7.36182
-40.2132
-71.6753
-101.528
-129.598
-155.76
-179.93
-202.063
-222.147
-240.198
-256.256
-270.382
-282.647
-293.131
-301.923
-309.107
-314.768
-318.984
-321.834
-323.365
-323.627
-322.677
-320.542
-317.232
-312.747
-307.079
-300.2
-292.079
-282.676
-271.941
-259.826
-246.283
-231.258
-214.707
-196.587
-176.869
-155.534
-132.574
-108.007
-81.8763
-54.2561
-25.256
4.97088
36.2381
68.3037
100.85
133.569
166.101
198.051
228.998
258.505
286.131
311.445
334.034
353.515
369.545
381.833
390.149
394.336
394.274
389.987
381.604
369.199
353.008
333.311
310.439
284.769
256.708
226.69
195.161
162.568
129.348
95.9207
62.6767
30.0114
-1.86367
-32.6531
-62.1469
-90.1881
-116.661
-141.487
-164.625
-186.055
-205.781
-223.827
-240.222
-255.007
-268.226
-279.923
-290.135
-298.898
-306.237
-312.171
-316.712
-319.881
-321.67
-322.076
-321.122
-318.796
-315.085
-309.97
-303.423
-295.413
-285.903
-274.856
-262.235
-248.009
-232.152
-214.651
-195.503
-174.713
-152.308
-128.326
-102.831
-75.9077
-47.6714
-18.267
12.1247
43.3126
74.9912
106.899
138.724
170.129
200.758
230.248
258.223
284.313
308.152
329.387
347.691
362.771
374.371
382.284
386.364
386.489
382.647
374.932
363.369
348.136
329.455
307.597
282.886
255.686
226.39
195.422
163.221
130.23
96.8872
63.6408
31.0078
-0.646947
-31.4313
-61.0431
-89.2357
-115.815
-140.67
-163.735
-184.968
-204.381
-221.988
-237.825
-251.945
-264.397
-275.238
-284.536
-292.34
-298.717
-303.724
-307.404
-309.804
-310.928
-310.801
-309.413
-306.743
-302.791
-297.511
-290.852
-282.779
-273.206
-262.07
-249.306
-234.852
-218.65
-200.668
-180.868
-159.272
-135.921
-110.869
-84.2234
-56.1431
-26.8141
3.41671
31.9819
63.273
94.9467
126.519
157.668
188.006
217.196
244.887
270.731
294.45
315.75
334.364
350.071
362.681
372.031
377.998
380.482
378.705
373.453
364.76
352.664
337.313
318.895
297.637
273.798
247.67
219.576
189.856
158.909
127.097
94.8137
62.5058
30.8146
3.20807
-26.7269
-55.6453
-83.1282
-109.005
-133.121
-334.33
-329.375
-322.935
-314.995
-305.528
-294.468
-281.762
-267.35
-251.18
-233.221
-213.442
-191.826
-168.388
-143.158
-116.188
-87.5684
-57.4164
-25.8875
6.75843
39.6377
73.9003
108.596
143.294
177.631
211.152
243.435
274.027
302.488
328.445
351.526
371.38
387.726
400.32
408.967
413.538
413.939
410.051
402.094
390.113
374.331
354.969
332.338
306.75
278.57
248.224
216.115
182.655
148.289
113.424
78.4921
43.9809
12.0713
-20.418
-52.1481
-82.6663
-111.729
-139.175
-164.892
-188.819
-210.924
-231.198
-249.653
-266.308
-281.196
-294.345
-305.789
-315.563
-323.689
-330.195
-335.107
-338.441
-340.207
-340.407
-338.936
-335.855
-331.187
-324.925
-317.083
-307.652
-296.632
-284.031
-269.838
-254.063
-236.719
-217.809
-197.353
-175.362
-151.859
-126.876
-100.462
-72.6819
-43.6315
-13.4383
17.7342
49.6821
82.1568
114.877
147.527
179.764
211.221
241.518
270.268
297.089
321.601
343.446
362.29
377.831
389.804
397.987
402.214
402.341
398.345
390.276
378.159
362.154
342.479
319.415
293.303
264.532
233.527
200.743
166.647
131.706
96.3762
61.0923
26.3187
-7.70318
-40.5958
-72.0892
-101.964
-130.047
-156.215
-180.383
-202.509
-222.582
-240.617
-256.658
-270.764
-283.008
-293.473
-302.245
-309.41
-315.055
-319.256
-322.091
-323.61
-323.867
-322.912
-320.774
-317.464
-312.983
-307.319
-300.449
-292.338
-282.946
-272.224
-260.123
-246.593
-231.582
-215.044
-196.936
-177.229
-155.9
-132.945
-108.377
-82.2404
-54.6076
-25.587
4.66905
35.9747
68.0905
100.696
133.484
166.094
198.13
229.17
258.773
286.497
311.906
334.585
354.149
370.25
382.595
390.95
395.155
395.1
390.797
382.371
369.912
353.653
333.876
310.915
285.149
256.991
226.875
195.251
162.568
129.265
95.7631
62.4507
29.7431
-2.17842
-33.0003
-62.5161
-90.5706
-117.049
-141.876
-165.009
-186.431
-206.147
-224.18
-240.562
-255.334
-268.541
-280.226
-290.43
-299.185
-306.518
-312.447
-316.985
-320.151
-321.937
-322.346
-321.393
-319.07
-315.363
-310.254
-303.716
-295.715
-286.215
-275.178
-262.567
-248.35
-232.502
-215.008
-195.864
-175.078
-152.672
-128.686
-103.182
-76.2453
-47.9885
-18.5564
11.8715
43.1009
74.8318
106.799
138.69
170.166
200.873
230.443
258.502
284.675
308.596
329.909
348.286
363.428
375.078
383.029
387.128
387.263
383.414
375.666
364.062
348.773
330.023
308.087
283.29
255.998
226.609
195.549
163.255
130.177
96.7538
63.4437
30.7683
-0.935972
-31.7615
-61.4089
-89.6238
-116.217
-141.076
-164.139
-185.366
-204.768
-222.363
-238.186
-252.291
-264.728
-275.555
-284.838
-292.628
-298.992
-303.989
-307.658
-310.049
-311.171
-311.046
-309.659
-306.993
-303.049
-297.78
-291.134
-283.076
-273.52
-262.401
-249.655
-235.215
-219.027
-201.055
-181.262
-159.667
-136.313
-111.25
-84.5841
-56.4735
-27.0929
3.21594
31.711
63.098
94.85
126.494
157.716
188.127
217.391
245.156
271.072
294.859
316.223
334.895
350.652
363.304
372.685
378.673
381.172
379.4
374.131
365.407
353.273
337.875
319.398
298.077
274.165
247.962
219.789
189.989
158.964
127.079
94.7283
62.3588
30.6271
2.88674
-27.0835
-56.0347
-83.545
-109.442
-133.573
-334.672
-329.726
-323.296
-315.369
-305.917
-294.873
-282.185
-267.789
-251.636
-233.691
-213.924
-192.315
-168.882
-143.651
-116.673
-88.0384
-57.8599
-26.2924
6.40885
39.3078
73.6473
108.428
143.22
177.658
211.288
243.684
274.389
302.961
329.024
352.204
372.147
388.569
401.223
409.911
414.503
414.909
411.009
403.007
390.969
375.116
355.667
332.939
307.245
278.954
248.495
216.276
182.708
148.237
113.269
78.2291
43.6035
11.7999
-20.7832
-52.5766
-83.1339
-112.219
-139.677
-165.396
-189.319
-211.415
-231.677
-250.118
-266.757
-281.63
-294.766
-306.197
-315.961
-324.077
-330.577
-335.485
-338.814
-340.576
-340.773
-339.303
-336.223
-331.557
-325.299
-317.461
-308.034
-297.018
-284.421
-270.234
-254.463
-237.125
-218.219
-197.768
-175.78
-152.279
-127.294
-100.872
-73.0796
-44.0083
-13.7853
17.4276
49.4263
81.9625
114.754
147.485
179.81
211.363
241.76
270.613
297.536
322.149
344.09
363.022
378.64
390.676
398.907
403.162
403.305
399.305
391.201
379.034
362.96
343.198
320.034
293.81
264.92
233.795
200.89
166.677
131.627
96.198
60.8281
25.969
-8.11375
-41.0561
-72.5872
-102.488
-130.587
-156.761
-180.928
-203.046
-223.104
-241.121
-257.14
-271.223
-283.443
-293.883
-302.631
-309.775
-315.399
-319.582
-322.399
-323.906
-324.154
-323.193
-321.053
-317.742
-313.265
-307.608
-300.748
-292.649
-283.271
-272.565
-260.48
-246.966
-231.971
-215.449
-197.356
-177.66
-156.341
-133.39
-108.822
-82.6781
-55.0304
-25.9853
4.30539
35.6574
67.8337
100.51
133.38
166.084
198.224
229.375
259.095
286.935
312.46
335.247
354.91
371.097
383.51
391.912
396.14
396.089
391.769
383.293
370.769
354.428
334.554
311.486
285.606
257.33
227.097
195.359
162.567
129.165
95.573
62.1781
29.4202
-2.55752
-33.4181
-62.9601
-91.0303
-117.516
-142.343
-165.47
-186.883
-206.586
-224.605
-240.97
-255.726
-268.919
-280.59
-290.783
-299.529
-306.854
-312.778
-317.313
-320.474
-322.259
-322.67
-321.718
-319.398
-315.697
-310.596
-304.067
-296.077
-286.59
-275.565
-262.966
-248.761
-232.922
-215.436
-196.298
-175.515
-153.109
-129.119
-103.605
-76.6513
-48.3699
-18.9047
11.5664
42.8462
74.6397
106.678
138.648
170.211
201.01
230.677
258.836
285.11
309.129
330.536
348.999
364.217
375.928
383.923
388.047
388.191
384.335
376.549
364.894
349.538
330.706
308.675
283.774
256.373
226.871
195.699
163.296
130.113
96.5918
63.2025
30.4829
-1.2823
-32.1587
-61.8491
-90.0904
-116.699
-141.564
-164.625
-185.843
-205.233
-222.812
-238.619
-252.707
-265.126
-275.935
-285.201
-292.974
-299.323
-304.306
-307.963
-310.344
-311.462
-311.339
-309.953
-307.292
-303.358
-298.101
-291.472
-283.432
-273.897
-262.798
-250.073
-235.651
-219.48
-201.52
-181.735
-160.142
-136.783
-111.707
-85.0182
-56.872
-27.4306
2.97433
31.3853
62.8893
94.7343
126.464
157.772
188.271
217.624
245.479
271.481
295.35
316.792
335.532
351.349
364.051
373.471
379.484
381.997
380.231
374.943
366.183
354.003
338.549
320.002
298.604
274.606
248.312
220.044
190.149
159.03
127.056
94.6249
62.1806
30.3999
2.50207
-27.5115
-56.5026
-84.0459
-109.968
-134.115
-335.071
-330.134
-323.717
-315.805
-306.37
-295.345
-282.677
-268.302
-252.168
-234.24
-214.486
-192.887
-169.458
-144.226
-117.24
-88.588
-58.379
-26.766
6.00013
38.9201
73.3508
108.232
143.133
177.69
211.445
243.973
274.812
303.513
329.699
352.996
373.043
389.553
402.277
411.014
415.631
416.041
412.125
404.073
391.97
376.033
356.483
333.64
307.822
279.402
248.812
216.462
182.77
148.176
113.088
77.9223
43.1579
11.4863
-21.2123
-53.0792
-83.6813
-112.793
-140.263
-165.985
-189.903
-211.988
-232.236
-250.66
-267.282
-282.137
-295.256
-306.673
-316.424
-324.531
-331.024
-335.926
-339.249
-341.007
-341.201
-339.73
-336.653
-331.989
-325.735
-317.901
-308.479
-297.469
-284.877
-270.696
-254.93
-237.599
-218.699
-198.253
-176.269
-152.768
-127.782
-101.352
-73.5444
-44.4491
-14.1914
17.0684
49.1266
81.7343
114.609
147.435
179.864
211.528
242.042
271.015
298.058
322.788
344.841
363.875
379.584
391.695
399.982
404.271
404.431
400.424
392.282
380.056
363.901
344.039
320.756
294.402
265.373
234.105
201.059
166.71
131.533
95.9883
60.5166
25.5607
-8.59416
-41.5946
-73.1697
-103.101
-131.219
-157.4
-181.565
-203.672
-223.714
-241.71
-257.703
-271.759
-283.95
-294.362
-303.082
-310.2
-315.8
-319.961
-322.759
-324.252
-324.489
-323.521
-321.377
-318.067
-313.594
-307.945
-301.097
-293.012
-283.65
-272.962
-260.896
-247.402
-232.426
-215.922
-197.845
-178.164
-156.855
-133.91
-109.342
-83.1899
-55.525
-26.4515
3.87957
35.2853
67.5325
100.291
133.257
166.071
198.333
229.614
259.469
287.446
313.105
336.02
355.799
372.086
384.579
393.037
397.292
397.246
392.904
384.371
371.771
355.333
335.345
312.152
286.138
257.725
227.355
195.483
162.565
129.047
95.3499
61.8583
29.0418
-3.00177
-33.9069
-63.4794
-91.5678
-118.062
-142.889
-166.01
-187.41
-207.099
-225.1
-241.447
-256.184
-269.359
-281.015
-291.195
-299.93
-307.247
-313.165
-317.695
-320.852
-322.635
-323.047
-322.097
-319.781
-316.087
-310.994
-304.476
-296.5
-287.027
-276.017
-263.432
-249.239
-233.413
-215.936
-196.806
-176.026
-153.619
-129.624
-104.099
-77.1259
-48.8161
-19.3124
11.2089
42.5478
74.4144
106.536
138.598
170.262
201.169
230.949
259.224
285.616
309.751
331.268
349.832
365.137
376.921
384.967
389.121
389.275
385.408
377.581
365.866
350.431
331.503
309.361
284.34
256.809
227.177
195.874
163.343
130.037
96.4007
62.916
30.1518
-1.68586
-32.6235
-62.3642
-90.6363
-117.264
-142.135
-165.192
-186.401
-205.777
-223.337
-239.125
-253.192
-265.59
-276.378
-285.624
-293.377
-299.709
-304.676
-308.319
-310.688
-311.803
-311.678
-310.295
-307.641
-303.718
-298.477
-291.866
-283.847
-274.337
-263.26
-250.561
-236.16
-220.009
-202.063
-182.288
-160.698
-137.334
-112.242
-85.5264
-57.3396
-27.8291
2.69121
31.0045
62.6477
94.5998
126.429
157.838
188.439
217.896
245.855
271.957
295.924
317.455
336.276
352.163
364.923
374.388
380.431
382.961
381.198
375.888
367.09
354.856
339.336
320.708
299.22
275.12
248.72
220.34
190.334
159.106
127.029
94.5028
61.9703
30.1319
2.05432
-28.0111
-57.0491
-84.6311
-110.582
-134.75
-335.526
-330.601
-324.198
-316.303
-306.887
-295.884
-283.241
-268.887
-252.777
-234.868
-215.128
-193.54
-170.117
-144.885
-117.89
-89.2177
-58.9743
-27.3091
5.5325
38.4732
73.0105
108.006
143.031
177.724
211.624
244.303
275.294
304.143
330.472
353.902
374.067
390.679
403.483
412.276
416.923
417.337
413.401
405.295
393.115
377.081
357.415
334.442
308.482
279.913
249.173
216.675
182.839
148.105
112.882
77.572
42.642
11.1314
-21.7068
-53.6572
-84.3093
-113.449
-140.934
-166.659
-190.571
-212.644
-232.875
-251.28
-267.881
-282.717
-295.817
-307.218
-316.954
-325.048
-331.534
-336.43
-339.746
-341.499
-341.691
-340.219
-337.144
-332.483
-326.233
-318.404
-308.989
-297.985
-285.398
-271.224
-255.465
-238.14
-219.247
-198.807
-176.827
-153.328
-128.34
-101.901
-74.077
-44.9545
-14.6572
16.656
48.7824
81.4719
114.442
147.376
179.924
211.715
242.363
271.474
298.654
323.519
345.699
364.852
380.664
392.86
401.212
405.542
405.72
401.704
393.52
381.227
364.979
345
321.582
295.078
265.891
234.46
201.252
166.747
131.424
95.7461
60.1571
25.093
-9.14515
-42.2121
-73.8374
-103.804
-131.942
-158.132
-182.294
-204.389
-224.413
-242.383
-258.348
-272.371
-284.53
-294.909
-303.598
-310.685
-316.258
-320.395
-323.171
-324.646
-324.871
-323.896
-321.748
-318.438
-313.97
-308.33
-301.495
-293.427
-284.083
-273.416
-261.371
-247.9
-232.946
-216.463
-198.405
-178.74
-157.444
-134.506
-109.938
-83.7762
-56.0919
-26.9861
3.39114
34.8578
67.1863
100.039
133.115
166.054
198.455
229.885
259.895
288.03
313.843
336.904
356.816
373.218
385.803
394.324
398.612
398.57
394.201
385.605
372.917
356.368
336.251
312.913
286.747
258.176
227.648
195.624
162.562
128.91
95.0934
61.492
28.606
-3.51209
-34.4676
-64.0747
-92.1835
-118.687
-143.513
-166.626
-188.014
-207.685
-225.666
-241.992
-256.708
-269.863
-281.501
-291.665
-300.388
-307.696
-313.606
-318.132
-321.285
-323.065
-323.478
-322.53
-320.219
-316.531
-311.449
-304.944
-296.983
-287.526
-276.533
-263.965
-249.787
-233.974
-216.508
-197.386
-176.611
-154.204
-130.203
-104.664
-77.6697
-49.3275
-19.7799
10.7986
42.2051
74.1553
106.372
138.54
170.319
201.35
231.259
259.668
286.194
310.461
332.105
350.785
366.191
378.057
386.163
390.351
390.517
386.635
378.762
366.979
351.453
332.414
310.146
284.986
257.308
227.526
196.073
163.396
129.949
96.1795
62.5822
29.7754
-2.14664
-33.1567
-62.9548
-91.262
-117.91
-142.788
-165.842
-187.039
-206.398
-223.938
-239.703
-253.747
-266.12
-276.885
-286.108
-293.838
-300.15
-305.099
-308.726
-311.082
-312.191
-312.064
-310.685
-308.04
-304.129
-298.905
-292.317
-284.321
-274.839
-263.79
-251.119
-236.742
-220.614
-202.684
-182.921
-161.333
-137.963
-112.854
-86.1095
-57.8771
-28.291
2.36443
30.57
62.3743
94.4465
126.388
157.912
188.631
218.207
246.285
272.502
296.579
318.214
337.128
353.095
365.922
375.438
381.515
384.063
382.302
376.969
368.127
355.833
340.236
321.515
299.924
275.709
249.187
220.679
190.545
159.191
126.995
94.3611
61.7272
29.8221
1.54364
-28.5825
-57.6746
-85.3012
-111.286
-135.476
-336.038
-331.125
-324.739
-316.863
-307.469
-296.491
-283.875
-269.546
-253.462
-235.575
-215.852
-194.276
-170.859
-145.627
-118.622
-89.9281
-59.6466
-27.9224
5.006
37.9654
72.6256
107.75
142.915
177.761
211.824
244.673
275.836
304.852
331.341
354.922
375.221
391.947
404.842
413.698
418.378
418.796
414.837
406.671
394.405
378.262
358.465
335.345
309.225
280.488
249.578
216.912
182.915
148.024
112.651
77.1788
42.0548
10.735
-22.2692
-54.3119
-85.0189
-114.19
-141.69
-167.418
-191.324
-213.383
-233.595
-251.977
-268.556
-283.368
-296.447
-307.829
-317.549
-325.631
-332.107
-336.995
-340.304
-342.053
-342.241
-340.769
-337.696
-333.039
-326.794
-318.971
-309.561
-298.564
-285.985
-271.818
-256.066
-238.75
-219.864
-199.43
-177.456
-153.958
-128.969
-102.52
-74.6778
-45.5251
-15.1833
16.1898
48.3929
81.1745
114.253
147.307
179.989
211.924
242.723
271.989
299.324
324.341
346.666
365.951
381.88
394.173
402.599
406.975
407.173
403.146
394.915
382.546
366.193
346.083
322.512
295.839
266.472
234.857
201.467
166.787
131.298
95.4707
59.749
24.5649
-9.7675
-42.9094
-74.591
-104.597
-132.758
-158.957
-183.116
-205.197
-225.199
-243.142
-259.073
-273.061
-285.183
-295.525
-304.178
-311.232
-316.773
-320.883
-323.634
-325.09
-325.301
-324.317
-322.164
-318.854
-314.393
-308.763
-301.943
-293.893
-284.571
-273.927
-261.907
-248.46
-233.532
-217.071
-199.036
-179.39
-158.107
-135.177
-110.61
-84.4375
-56.7315
-27.5899
2.83937
34.374
66.7943
99.7524
132.952
166.033
198.59
230.189
260.374
288.687
314.672
337.899
357.961
374.494
387.182
395.776
400.101
400.062
395.662
386.995
374.208
357.534
337.27
313.77
287.43
258.682
227.977
195.78
162.555
128.753
94.8031
61.0925
28.0976
-4.08963
-35.1007
-64.7464
-92.8779
-119.391
-144.217
-167.321
-188.694
-208.345
-226.304
-242.605
-257.297
-270.429
-282.047
-292.194
-300.904
-308.201
-314.103
-318.623
-321.771
-323.549
-323.962
-323.016
-320.711
-317.032
-311.961
-305.471
-297.526
-288.088
-277.114
-264.564
-250.404
-234.605
-217.153
-198.039
-177.269
-154.863
-130.855
-105.302
-78.2831
-49.9046
-20.308
10.3348
41.8176