/*--------------------------------*- C++ -*----------------------------------*\
| =========                 |                                                 |
| \\      /  F ield         | OpenFOAM: The Open Source CFD Toolbox           |
|  \\    /   O peration     | Version:  3.0.1                                 |
|   \\  /    A nd           | Web:      www.OpenFOAM.org                      |
|    \\/     M anipulation  |                                                 |
\*---------------------------------------------------------------------------*/
FoamFile
{
    version     2.0;
    format      ascii;
    class       volScalarField;
    location    "66.2";
    object      p_rgh;
}
// * * * * * * * * * * * * * * * * * * * * * * * * * * * * * * * * * * * * * //

dimensions      [1 -1 -2 0 0 0 0];

internalField   nonuniform List<scalar> 
21420
(
13.8262
-12.1986
-22.3456
-49.0696
-75.5931
-100.914
-124.701
-146.867
-167.362
-186.186
-203.365
-218.927
-232.913
-245.372
-256.347
-265.886
-274.029
-280.816
-286.278
-290.44
-293.32
-294.896
-295.141
-294.297
-292.146
-288.643
-283.756
-277.45
-269.682
-260.395
-249.535
-237.051
-222.889
-207.003
-189.354
-169.904
-148.656
-125.631
-100.851
-74.3958
-46.3849
-16.9743
13.3537
44.9523
77.4569
110.5
143.731
176.834
209.413
241.06
271.419
300.089
326.699
350.888
372.321
390.715
405.829
417.447
425.418
429.637
429.963
426.546
419.386
408.522
394.137
376.408
355.598
331.983
305.885
277.651
247.644
216.255
183.87
150.864
117.61
84.4492
51.7001
19.6431
-11.4772
-41.4545
-70.1234
-97.3547
-123.051
-147.139
-169.57
-190.312
-209.341
-226.647
-242.216
-256.053
-268.165
-278.555
-287.247
-294.269
-299.652
-303.447
-305.672
-306.345
-305.559
-303.305
-299.599
-294.447
-287.838
-279.75
-270.154
-259.013
-246.29
-231.948
-215.962
-198.311
-178.99
-158.014
-135.417
-111.252
-85.5945
-58.5457
-30.2276
-0.78137
29.6194
60.7589
92.4204
124.355
156.287
187.911
218.898
248.896
277.537
304.442
329.229
351.519
370.958
387.22
400.016
409.105
414.313
415.422
412.568
405.646
394.702
379.902
361.437
339.556
314.563
286.802
256.666
224.573
190.967
156.31
121.065
85.6875
50.6165
16.2677
-17.0264
-48.9518
-79.2536
-107.738
-134.268
-158.76
-181.178
-201.523
-219.825
-236.139
-250.531
-263.085
-273.885
-283.01
-290.544
-296.563
-301.132
-304.327
-306.18
-306.722
-306.003
-304.055
-300.879
-296.481
-290.857
-283.996
-275.879
-266.478
-255.757
-243.683
-230.21
-215.292
-198.882
-180.939
-161.425
-140.32
-117.625
-93.3583
-67.5636
-40.3203
-11.7481
18.0016
48.8858
80.3398
112.25
144.303
176.147
207.399
237.648
266.464
293.407
318.047
339.968
358.783
374.154
385.782
393.436
396.901
396.168
391.166
381.984
368.714
351.604
330.942
307.077
280.413
251.389
220.472
188.145
154.89
121.177
87.4489
54.1094
21.5157
-10.0328
-40.2824
-69.038
-96.1599
-121.554
-145.169
-166.985
-187.005
-205.254
-221.768
-236.593
-249.777
-261.377
-271.457
-280.087
-287.336
-293.273
-297.959
-301.444
-303.773
-304.954
-304.97
-303.875
-301.633
-298.223
-293.612
-287.762
-280.622
-272.146
-262.288
-251.009
-238.282
-224.085
-208.404
-191.226
-172.542
-152.351
-130.654
-107.473
-82.8597
-56.8846
-29.644
-1.27713
28.0457
58.2638
89.9569
121.63
152.959
183.705
213.514
242.011
268.815
293.516
315.67
334.861
350.693
362.753
370.771
374.578
374.037
369.115
360.35
347.657
331.033
310.596
286.612
259.518
229.814
198.057
164.854
130.745
96.4053
62.5545
28.6448
-8.35105
-42.5007
-74.6057
-104.742
-132.895
-159.007
-183.058
-205.078
-225.089
-243.153
-259.321
-273.661
-286.244
-297.136
-306.397
-314.082
-320.227
-324.86
-328.059
-329.811
-330.016
-328.89
-326.389
-322.454
-317.055
-310.131
-301.639
-291.559
-279.841
-266.446
-251.336
-234.481
-215.847
-195.423
-173.221
-149.26
-123.602
-96.3165
-67.5177
-37.3727
-6.03571
27.136
60.2551
93.8875
127.657
161.215
194.188
226.083
256.435
284.821
310.784
333.934
353.904
370.392
383.162
391.995
396.699
13.7878
-12.2482
-22.395
-49.1429
-75.6733
-100.995
-124.781
-146.945
-167.438
-186.259
-203.435
-218.994
-232.978
-245.433
-256.406
-265.942
-274.084
-280.869
-286.33
-290.491
-293.37
-294.947
-295.195
-294.351
-292.2
-288.697
-283.813
-277.509
-269.743
-260.459
-249.602
-237.121
-222.961
-207.078
-189.432
-169.983
-148.737
-125.712
-100.931
-74.4741
-46.4594
-17.0435
13.2872
44.8943
77.4096
110.465
143.709
176.827
209.422
241.086
271.461
300.149
326.776
350.981
372.428
390.836
405.961
417.587
425.565
429.792
430.113
426.69
419.526
408.655
394.26
376.518
355.693
332.063
305.947
277.697
247.672
216.266
183.865
150.844
117.576
84.4036
51.6443
19.579
-11.5479
-41.53
-70.2024
-97.4358
-123.133
-147.222
-169.652
-190.393
-209.422
-226.727
-242.295
-256.131
-268.241
-278.63
-287.321
-294.342
-299.723
-303.516
-305.737
-306.412
-305.625
-303.37
-299.665
-294.513
-287.905
-279.819
-270.225
-259.086
-246.365
-232.026
-216.041
-198.392
-179.072
-158.096
-135.499
-111.332
-85.6724
-58.6206
-30.2982
-0.846348
29.5607
60.7077
92.3782
124.323
156.267
187.905
218.906
248.92
277.578
304.5
329.304
351.611
371.066
387.343
400.15
409.248
414.461
415.582
412.713
405.79
394.839
380.029
361.551
339.654
314.644
286.864
256.708
224.595
190.97
156.293
121.03
85.6363
50.5505
16.1904
-17.1138
-49.0466
-79.3533
-107.84
-134.371
-158.862
-181.278
-201.62
-219.919
-236.228
-250.616
-263.165
-273.961
-283.082
-290.613
-296.629
-301.196
-304.388
-306.24
-306.778
-306.06
-304.111
-300.936
-296.538
-290.915
-284.054
-275.939
-266.539
-255.821
-243.749
-230.278
-215.363
-198.956
-181.015
-161.504
-140.4
-117.706
-93.439
-67.6427
-40.3967
-11.8201
17.9348
48.8283
80.2915
112.213
144.28
176.14
207.408
237.675
266.51
293.473
318.132
340.071
358.904
374.288
385.929
393.59
397.065
396.325
391.321
382.131
368.851
351.726
331.046
307.163
280.478
251.433
220.495
188.147
154.874
121.144
87.4006
54.0485
21.4443
-10.1121
-40.3673
-69.1264
-96.2499
-121.644
-145.259
-167.072
-187.089
-205.335
-221.847
-236.669
-249.85
-261.447
-271.524
-280.15
-287.396
-293.33
-298.014
-301.498
-303.826
-305.004
-305.022
-303.928
-301.687
-298.278
-293.669
-287.82
-280.683
-272.209
-262.353
-251.076
-238.35
-224.155
-208.475
-191.298
-172.615
-152.425
-130.729
-107.547
-82.9326
-56.9548
-29.7102
-1.33797
27.9919
58.2197
89.9286
121.615
152.957
183.719
213.543
242.058
268.879
293.598
315.771
334.98
350.829
362.903
370.933
374.749
374.219
369.284
360.519
347.816
331.177
310.719
286.713
259.594
229.865
198.084
164.859
130.729
96.3711
62.5041
28.5765
-8.42119
-42.579
-74.6896
-104.829
-132.984
-159.095
-183.145
-205.163
-225.171
-243.232
-259.397
-273.733
-286.314
-297.203
-306.461
-314.143
-320.288
-324.921
-328.119
-329.865
-330.072
-328.948
-326.448
-322.514
-317.116
-310.193
-301.704
-291.626
-279.911
-266.518
-251.41
-234.557
-215.926
-195.503
-173.302
-149.341
-123.682
-96.3935
-67.5909
-37.4415
-6.10439
27.0857
60.2083
93.8522
127.636
161.21
194.202
226.117
256.49
284.895
310.878
334.046
354.031
370.532
383.313
392.154
396.862
13.7116
-12.3462
-22.4953
-49.29
-75.8339
-101.157
-124.941
-147.101
-167.589
-186.405
-203.575
-219.128
-233.107
-245.557
-256.524
-266.056
-274.193
-280.975
-286.433
-290.593
-293.471
-295.05
-295.302
-294.458
-292.307
-288.806
-283.925
-277.626
-269.865
-260.586
-249.735
-237.26
-223.107
-207.229
-189.588
-170.143
-148.899
-125.874
-101.092
-74.6306
-46.6083
-17.1814
13.1539
44.7784
77.315
110.394
143.666
176.813
209.44
241.137
271.547
300.269
326.93
351.168
372.644
391.078
406.225
417.869
425.858
430.092
430.421
426.981
419.807
408.923
394.506
376.739
355.885
332.222
306.073
277.788
247.729
216.29
183.857
150.806
117.511
84.3159
51.5369
19.4555
-11.6839
-41.675
-70.3534
-97.5903
-123.289
-147.378
-169.807
-190.547
-209.573
-226.875
-242.441
-256.274
-268.381
-278.767
-287.455
-294.472
-299.85
-303.641
-305.854
-306.531
-305.741
-303.485
-299.78
-294.63
-288.025
-279.942
-270.352
-259.218
-246.501
-232.166
-216.185
-198.539
-179.221
-158.246
-135.648
-111.478
-85.8143
-58.7563
-30.4256
-0.962394
29.4573
60.6194
92.3079
124.274
156.242
187.906
218.937
248.982
277.673
304.631
329.47
351.811
371.297
387.602
400.433
409.548
414.771
415.913
413.021
406.094
395.129
380.298
361.792
339.865
314.819
287.002
256.807
224.654
190.989
156.275
120.976
85.5487
50.4334
16.0509
-17.2735
-49.221
-79.5374
-108.03
-134.561
-159.051
-181.463
-201.798
-220.089
-236.39
-250.769
-263.31
-274.097
-283.211
-290.735
-296.745
-301.307
-304.495
-306.343
-306.875
-306.159
-304.209
-301.033
-296.636
-291.015
-284.157
-276.044
-266.648
-255.934
-243.867
-230.401
-215.492
-199.09
-181.154
-161.646
-140.546
-117.854
-93.5863
-67.7868
-40.5353
-11.95
17.8151
48.7277
80.2089
112.154
144.248
176.138
207.441
237.744
266.618
293.62
318.317
340.293
359.158
374.571
386.235
393.912
397.407
396.65
391.644
382.439
369.137
351.984
331.269
307.346
280.621
251.534
220.554
188.166
154.855
121.09
87.3168
53.9397
21.3147
-10.2574
-40.5238
-69.2898
-96.4165
-121.811
-145.423
-167.233
-187.244
-205.485
-221.991
-236.806
-249.982
-261.572
-271.642
-280.262
-287.501
-293.43
-298.11
-301.591
-303.918
-305.091
-305.113
-304.019
-301.779
-298.373
-293.768
-287.924
-280.791
-272.321
-262.469
-251.196
-238.474
-224.281
-208.605
-191.431
-172.75
-152.562
-130.866
-107.684
-83.0678
-57.085
-29.8329
-1.45046
27.8927
58.14
89.8796
121.592
152.96
183.752
213.607
242.156
269.012
293.768
315.976
335.22
351.102
363.206
371.259
375.093
374.584
369.622
360.857
348.135
331.466
310.968
286.914
259.746
229.968
198.139
164.869
130.698
96.3035
62.4032
28.4397
-8.56136
-42.7356
-74.8573
-105.003
-133.16
-159.27
-183.318
-205.332
-225.335
-243.389
-259.548
-273.878
-286.452
-297.336
-306.589
-314.267
-320.409
-325.043
-328.239
-329.974
-330.186
-329.065
-326.564
-322.634
-317.24
-310.319
-301.833
-291.759
-280.049
-266.661
-251.559
-234.71
-216.082
-195.662
-173.463
-149.502
-123.84
-96.5474
-67.7374
-37.5789
-6.23896
26.9822
60.1143
93.7814
127.594
161.201
194.23
226.185
256.598
285.045
311.066
334.269
354.286
370.814
383.615
392.472
397.189
13.599
-12.4903
-22.6493
-49.5123
-76.0752
-101.401
-125.181
-147.335
-167.816
-186.624
-203.786
-219.33
-233.3
-245.742
-256.702
-266.227
-274.358
-281.134
-286.589
-290.746
-293.622
-295.203
-295.464
-294.619
-292.467
-288.97
-284.094
-277.801
-270.048
-260.777
-249.935
-237.469
-223.324
-207.455
-189.821
-170.382
-149.141
-126.118
-101.333
-74.8654
-46.8316
-17.3883
12.9533
44.6042
77.1729
110.288
143.6
176.791
209.467
241.214
271.676
300.45
327.161
351.448
372.969
391.442
406.622
418.291
426.297
430.536
430.884
427.42
420.23
409.324
394.876
377.07
356.173
332.462
306.263
277.926
247.815
216.325
183.844
150.749
117.415
84.1843
51.3758
19.2703
-11.8878
-41.8923
-70.5797
-97.822
-123.523
-147.612
-170.039
-190.776
-209.799
-227.096
-242.659
-256.488
-268.59
-278.972
-287.655
-294.667
-300.04
-303.825
-306.03
-306.707
-305.914
-303.656
-299.952
-294.804
-288.202
-280.125
-270.541
-259.414
-246.704
-232.375
-216.4
-198.758
-179.443
-158.469
-135.869
-111.696
-86.0253
-58.9578
-30.6145
-1.13479
29.304
60.4889
92.2045
124.202
156.205
187.91
218.985
249.078
277.82
304.829
329.721
352.113
371.648
387.995
400.86
410.002
415.241
416.407
413.491
406.553
395.568
380.705
362.159
340.184
315.085
287.212
256.958
224.746
191.021
156.249
120.896
85.4196
50.26
15.8438
-17.5109
-49.4806
-79.8116
-108.312
-134.845
-159.333
-181.738
-202.063
-220.343
-236.632
-250.997
-263.526
-274.3
-283.402
-290.917
-296.916
-301.472
-304.653
-306.493
-307.022
-306.305
-304.354
-301.178
-296.782
-291.163
-284.308
-276.2
-266.809
-256.101
-244.042
-230.584
-215.682
-199.289
-181.36
-161.858
-140.763
-118.074
-93.8051
-68.0013
-40.7415
-12.1428
17.6373
48.5792
80.0869
112.067
144.202
176.139
207.493
237.851
266.781
293.842
318.597
340.628
359.543
375
386.698
394.398
397.917
397.147
392.134
382.905
369.57
352.372
331.605
307.625
280.838
251.688
220.645
188.196
154.828
121.012
87.1932
53.7783
21.1223
-10.4735
-40.7567
-69.5332
-96.6645
-122.059
-145.668
-167.471
-187.476
-205.708
-222.205
-237.011
-250.177
-261.757
-271.818
-280.428
-287.658
-293.579
-298.252
-301.729
-304.054
-305.219
-305.247
-304.154
-301.917
-298.515
-293.915
-288.077
-280.951
-272.488
-262.643
-251.375
-238.658
-224.47
-208.797
-191.628
-172.951
-152.765
-131.071
-107.889
-83.2696
-57.2793
-30.0161
-1.61851
27.7441
58.0214
89.8066
121.558
152.965
183.802
213.704
242.304
269.213
294.022
316.284
335.581
351.512
363.66
371.748
375.607
375.124
370.136
361.368
348.614
331.899
311.341
287.217
259.974
230.122
198.222
164.883
130.65
96.1984
62.2513
28.2341
-8.77194
-42.9708
-75.1091
-105.264
-133.424
-159.534
-183.578
-205.585
-225.58
-243.625
-259.775
-274.094
-286.66
-297.535
-306.781
-314.453
-320.59
-325.224
-328.417
-330.14
-330.357
-329.239
-326.74
-322.814
-317.424
-310.508
-302.028
-291.96
-280.257
-266.876
-251.781
-234.939
-216.317
-195.902
-173.705
-149.743
-124.079
-96.7785
-67.9572
-37.7847
-6.43957
26.8253
59.9725
93.675
127.531
161.188
194.272
226.287
256.762
285.268
311.347
334.604
354.668
371.236
384.069
392.95
397.679
13.4519
-12.677
-22.8613
-49.8117
-76.3981
-101.726
-125.502
-147.648
-168.119
-186.916
-204.066
-219.599
-233.558
-245.989
-256.938
-266.454
-274.577
-281.347
-286.796
-290.949
-293.822
-295.405
-295.68
-294.832
-292.68
-289.187
-284.318
-278.035
-270.291
-261.032
-250.202
-237.748
-223.615
-207.757
-190.133
-170.701
-149.465
-126.443
-101.656
-75.1788
-47.1294
-17.6641
12.6849
44.3716
76.9831
110.147
143.512
176.763
209.502
241.317
271.847
300.691
327.47
351.821
373.401
391.927
407.151
418.854
426.883
431.13
431.493
428.012
420.796
409.859
395.369
377.512
356.556
332.782
306.515
278.109
247.929
216.372
183.827
150.673
117.285
84.0084
51.1604
19.0229
-12.1601
-42.1825
-70.8819
-98.1311
-123.835
-147.924
-170.349
-191.082
-210.1
-227.392
-242.949
-256.773
-268.869
-279.245
-287.922
-294.927
-300.293
-304.069
-306.266
-306.942
-306.144
-303.884
-300.18
-295.035
-288.439
-280.368
-270.792
-259.674
-246.974
-232.654
-216.686
-199.05
-179.738
-158.766
-136.164
-111.985
-86.3061
-59.226
-30.866
-1.36502
29.0999
60.3154
92.067
124.106
156.158
187.915
219.049
249.207
278.016
305.095
330.056
352.517
372.116
388.519
401.431
410.61
415.868
417.056
414.128
407.169
396.154
381.248
362.648
340.611
315.442
287.493
257.16
224.868
191.064
156.216
120.791
85.2476
50.0288
15.5678
-17.8275
-49.8267
-80.1772
-108.688
-135.224
-159.708
-182.104
-202.417
-220.682
-236.953
-251.301
-263.813
-274.57
-283.657
-291.158
-297.145
-301.691
-304.862
-306.692
-307.22
-306.5
-304.546
-301.37
-296.976
-291.359
-284.51
-276.407
-267.023
-256.324
-244.274
-230.828
-215.937
-199.554
-181.635
-162.141
-141.052
-118.366
-94.0966
-68.2874
-41.0162
-12.3995
17.3994
48.3821
79.9243
111.952
144.141
176.139
207.561
237.993
267
294.14
318.972
341.075
360.058
375.572
387.316
395.048
398.584
397.821
392.792
383.528
370.148
352.891
332.054
307.997
281.128
251.893
220.766
188.236
154.792
120.907
87.0283
53.5632
20.8656
-10.7618
-41.0673
-69.8577
-96.9952
-122.39
-145.994
-167.789
-187.784
-206.006
-222.491
-237.284
-250.438
-262.005
-272.052
-280.649
-287.867
-293.776
-298.441
-301.913
-304.233
-305.394
-305.426
-304.334
-302.1
-298.704
-294.111
-288.281
-281.165
-272.711
-262.873
-251.613
-238.902
-224.721
-209.054
-191.89
-173.219
-153.037
-131.344
-108.162
-83.5389
-57.5386
-30.2605
-1.84282
27.5446
57.864
89.7091
121.512
152.972
183.868
213.832
242.501
269.48
294.36
316.695
336.062
352.059
364.266
372.4
376.293
375.829
370.837
362.051
349.253
332.477
311.838
287.621
260.279
230.327
198.331
164.902
130.586
96.0599
62.0476
27.9595
-9.05346
-43.2852
-75.4455
-105.612
-133.777
-159.886
-183.925
-205.924
-225.907
-243.94
-260.077
-274.384
-286.937
-297.801
-307.037
-314.7
-320.832
-325.465
-328.652
-330.365
-330.585
-329.471
-326.975
-323.053
-317.669
-310.759
-302.287
-292.228
-280.534
-267.163
-252.078
-235.244
-216.631
-196.221
-174.028
-150.066
-124.397
-97.087
-68.2506
-38.0586
-6.70596
26.6142
59.7822
93.5324
127.446
161.169
194.329
226.422
256.979
285.567
311.723
335.05
355.177
371.799
384.675
393.587
398.334
13.2728
-12.9016
-23.1369
-50.1906
-76.8031
-102.133
-125.902
-148.038
-168.497
-187.281
-204.417
-219.936
-233.88
-246.297
-257.234
-266.738
-274.851
-281.612
-287.055
-291.204
-294.073
-295.657
-295.945
-295.096
-292.946
-289.459
-284.599
-278.327
-270.596
-261.351
-250.535
-238.097
-223.978
-208.134
-190.522
-171.1
-149.87
-126.85
-102.059
-75.5709
-47.5022
-18.0087
12.3479
44.0802
76.7453
109.969
143.402
176.727
209.546
241.445
272.061
300.991
327.855
352.287
373.942
392.534
407.813
419.559
427.617
431.876
432.246
428.756
421.505
410.529
395.986
378.065
357.036
333.182
306.831
278.338
248.072
216.43
183.805
150.577
117.123
83.7878
50.8905
18.7129
-12.5012
-42.5459
-71.2602
-98.5181
-124.226
-148.314
-170.736
-191.464
-210.477
-227.761
-243.313
-257.13
-269.218
-279.586
-288.255
-295.251
-300.609
-304.374
-306.563
-307.235
-306.431
-304.169
-300.466
-295.324
-288.734
-280.672
-271.107
-260
-247.311
-233.002
-217.044
-199.415
-180.108
-159.137
-136.533
-112.348
-86.6574
-59.5616
-31.1806
-1.65363
28.8444
60.0981
91.8947
123.986
156.097
187.922
219.13
249.367
278.261
305.427
330.476
353.023
372.701
389.176
402.147
411.37
416.655
417.86
414.93
407.941
396.889
381.928
363.261
341.145
315.887
287.844
257.413
225.02
191.118
156.174
120.658
85.0319
49.7386
15.2223
-18.2243
-50.2603
-80.6349
-109.158
-135.698
-160.177
-182.562
-202.859
-221.105
-237.355
-251.681
-264.171
-274.908
-283.976
-291.459
-297.431
-301.964
-305.122
-306.942
-307.467
-306.743
-304.787
-301.611
-297.219
-291.606
-284.761
-276.666
-267.29
-256.603
-244.565
-231.132
-216.254
-199.885
-181.978
-162.494
-141.414
-118.732
-94.4615
-68.6456
-41.3602
-12.7207
17.1021
48.1347
79.72
111.807
144.065
176.139
207.647
238.171
267.274
294.512
319.44
341.635
360.702
376.288
388.09
395.862
399.414
398.667
393.617
384.31
370.873
353.541
332.617
308.463
281.49
252.15
220.917
188.286
154.747
120.776
86.8214
53.2936
20.544
-11.1231
-41.4564
-70.2639
-97.4092
-122.804
-146.402
-168.187
-188.169
-206.377
-222.847
-237.626
-250.763
-262.314
-272.345
-280.926
-288.128
-294.023
-298.677
-302.142
-304.455
-305.615
-305.649
-304.559
-302.329
-298.939
-294.356
-288.537
-281.431
-272.989
-263.162
-251.911
-239.209
-225.034
-209.375
-192.218
-173.554
-153.377
-131.686
-108.504
-83.8759
-57.8631
-30.5666
-2.1237
27.2937
57.6673
89.5866
121.453
152.981
183.949
213.992
242.746
269.814
294.782
317.209
336.664
352.742
365.023
373.217
377.15
376.706
371.72
362.906
350.054
333.2
312.46
288.126
260.658
230.582
198.467
164.925
130.505
95.8853
61.7915
27.6157
-9.40659
-43.6792
-75.8667
-106.048
-134.218
-160.327
-184.359
-206.347
-226.317
-244.334
-260.454
-274.745
-287.283
-298.133
-307.356
-315.009
-321.134
-325.764
-328.944
-330.651
-330.871
-329.761
-327.269
-323.353
-317.976
-311.074
-302.611
-292.563
-280.881
-267.522
-252.448
-235.627
-217.023
-196.621
-174.431
-150.469
-124.795
-97.473
-68.6176
-38.4002
-7.03197
26.3418
59.5421
93.3533
127.339
161.145
194.398
226.592
257.251
285.94
312.193
335.608
355.815
372.503
385.433
394.385
399.155
13.0645
-13.1585
-23.4832
-50.6519
-77.2913
-102.622
-126.383
-148.507
-168.952
-187.719
-204.838
-220.34
-234.267
-246.667
-257.589
-267.079
-275.179
-281.93
-287.366
-291.509
-294.376
-295.961
-296.258
-295.411
-293.264
-289.786
-284.937
-278.677
-270.961
-261.733
-250.935
-238.515
-224.414
-208.587
-190.989
-171.579
-150.357
-127.339
-102.543
-76.0424
-47.9502
-18.4222
11.9415
43.7297
76.4592
109.755
143.268
176.683
209.599
241.598
272.318
301.352
328.318
352.847
374.591
393.262
408.608
420.405
428.498
432.773
433.149
429.649
422.358
411.334
396.727
378.729
357.612
333.662
307.209
278.612
248.242
216.498
183.778
150.461
116.927
83.522
50.5655
18.34
-12.9116
-42.9827
-71.7148
-98.983
-124.695
-148.783
-171.201
-191.924
-210.929
-228.206
-243.749
-257.558
-269.637
-279.996
-288.656
-295.641
-300.988
-304.74
-306.922
-307.587
-306.775
-304.511
-300.808
-295.671
-289.089
-281.037
-271.485
-260.391
-247.716
-233.421
-217.473
-199.853
-180.553
-159.583
-136.976
-112.783
-87.0795
-59.965
-31.559
-2.00098
28.5371
59.8366
91.6871
123.841
156.024
187.929
219.225
249.558
278.554
305.825
330.98
353.63
373.405
389.964
403.006
412.283
417.602
418.823
415.894
408.87
397.771
382.745
363.997
341.786
316.422
288.266
257.717
225.203
191.182
156.122
120.498
84.7721
49.3885
14.8067
-18.7021
-50.782
-81.1854
-109.724
-136.268
-160.741
-183.113
-203.39
-221.613
-237.838
-252.138
-264.602
-275.313
-284.358
-291.82
-297.774
-302.292
-305.435
-307.244
-307.763
-307.034
-305.075
-301.899
-297.509
-291.901
-285.064
-276.976
-267.612
-256.938
-244.914
-231.497
-216.636
-200.282
-182.39
-162.919
-141.849
-119.172
-94.9004
-69.0765
-41.7741
-13.1069
16.7599
47.8211
79.4731
111.632
143.972
176.139
207.749
238.383
267.602
294.957
320.002
342.307
361.475
377.149
389.02
396.841
400.417
399.681
394.607
385.249
371.743
354.322
333.293
309.022
281.925
252.457
221.097
188.344
154.691
120.617
86.5718
52.9686
20.1567
-11.5579
-41.9246
-70.7526
-97.907
-123.302
-146.893
-168.665
-188.632
-206.823
-223.276
-238.036
-251.154
-262.686
-272.697
-281.258
-288.441
-294.32
-298.961
-302.416
-304.721
-305.881
-305.915
-304.828
-302.604
-299.222
-294.649
-288.843
-281.751
-273.323
-263.508
-252.269
-239.576
-225.411
-209.761
-192.613
-173.956
-153.785
-132.097
-108.916
-84.2809
-58.2532
-30.9344
-2.46127
26.993
57.4284
89.4387
121.381
152.991
184.046
214.184
243.04
270.216
295.289
317.826
337.385
353.563
365.934
374.198
378.18
377.764
372.779
363.932
351.017
334.069
313.207
288.731
261.114
230.888
198.629
164.95
130.407
95.6739
61.4823
27.2024
-9.83217
-44.1536
-76.3734
-106.573
-134.749
-160.856
-184.88
-206.855
-226.808
-244.806
-260.907
-275.178
-287.698
-298.531
-307.74
-315.38
-321.496
-326.121
-329.293
-330.995
-331.216
-330.11
-327.623
-323.712
-318.344
-311.451
-303
-292.964
-281.296
-267.953
-252.894
-236.085
-217.494
-197.1
-174.916
-150.954
-125.273
-97.937
-69.0587
-38.8091
-7.39993
25.9898
59.2512
93.137
127.209
161.115
194.48
226.794
257.577
286.388
312.756
336.278
356.58
373.35
386.345
395.344
400.141
12.8301
-13.4406
-23.9088
-51.1988
-77.8635
-103.193
-126.944
-149.054
-169.482
-188.23
-205.329
-220.811
-234.718
-247.099
-258.003
-267.476
-275.562
-282.301
-287.728
-291.865
-294.728
-296.315
-296.62
-295.778
-293.635
-290.166
-285.33
-279.086
-271.388
-262.179
-251.402
-239.003
-224.923
-209.116
-191.535
-172.138
-150.925
-127.91
-103.109
-76.5938
-48.4742
-18.9044
11.4648
43.3197
76.1244
109.504
143.111
176.63
209.658
241.776
272.617
301.772
328.857
353.5
375.35
394.113
409.536
421.393
429.527
433.823
434.203
430.689
423.354
412.274
397.592
379.504
358.284
334.222
307.65
278.931
248.439
216.578
183.745
150.324
116.697
83.2105
50.185
17.9035
-13.3916
-43.4935
-72.2462
-99.5263
-125.243
-149.33
-171.744
-192.46
-211.457
-228.724
-244.258
-258.058
-270.126
-280.474
-289.123
-296.096
-301.43
-305.168
-307.34
-307.995
-307.177
-304.909
-301.208
-296.076
-289.502
-281.463
-271.926
-260.848
-248.189
-233.909
-217.975
-200.365
-181.072
-160.105
-137.494
-113.292
-87.5729
-60.4365
-32.0015
-2.40751
28.1773
59.5303
91.4438
123.671
155.937
187.936
219.336
249.781
278.895
306.29
331.568
354.338
374.226
390.885
404.011
413.351
418.709
419.949
417.017
409.956
398.802
383.7
364.857
342.534
317.046
288.758
258.07
225.416
191.255
156.061
120.309
84.4675
48.9773
14.3203
-19.2617
-51.3927
-81.8297
-110.387
-136.935
-161.401
-183.756
-204.011
-222.206
-238.401
-252.671
-265.104
-275.786
-284.804
-292.242
-298.175
-302.674
-305.8
-307.597
-308.109
-307.374
-305.412
-302.236
-297.848
-292.246
-285.416
-277.339
-267.987
-257.328
-245.322
-231.923
-217.081
-200.746
-182.871
-163.416
-142.357
-119.685
-95.4137
-69.5806
-42.2583
-13.5589
16.3617
47.4515
79.1833
111.426
143.862
176.137
207.867
238.629
267.984
295.477
320.658
343.092
362.378
378.154
390.107
397.987
401.597
400.866
395.763
386.348
372.759
355.234
334.082
309.674
282.432
252.814
221.307
188.411
154.624
120.429
86.2787
52.5876
19.7029
-12.0671
-42.4726
-71.3242
-98.4891
-123.883
-147.465
-169.224
-189.173
-207.344
-223.776
-238.514
-251.611
-263.12
-273.108
-281.645
-288.806
-294.666
-299.291
-302.735
-305.032
-306.191
-306.226
-305.142
-302.924
-299.552
-294.992
-289.2
-282.125
-273.712
-263.913
-252.687
-240.005
-225.851
-210.211
-193.073
-174.426
-154.262
-132.578
-109.397
-84.7538
-58.709
-31.3645
-2.85595
26.6431
57.1451
89.2647
121.296
153.002
184.158
214.406
243.382
270.684
295.881
318.547
338.226
354.521
366.998
375.346
379.384
379.002
374.015
365.131
352.142
335.084
314.078
289.437
261.644
231.244
198.816
164.979
130.291
95.4307
61.1197
26.7191
-10.3312
-44.7093
-76.9663
-107.185
-135.369
-161.474
-185.488
-207.448
-227.381
-245.358
-261.435
-275.684
-288.182
-298.995
-308.186
-315.813
-321.918
-326.537
-329.7
-331.398
-331.618
-330.516
-328.036
-324.13
-318.772
-311.89
-303.453
-293.433
-281.782
-268.455
-253.413
-236.621
-218.043
-197.661
-175.482
-151.52
-125.831
-98.4792
-69.5744
-39.2857
-7.81015
25.5574
58.9087
92.883
127.056
161.079
194.575
227.03
257.957
286.91
313.414
337.061
357.473
374.338
387.409
396.465
401.294
12.5727
-13.7389
-24.4245
-51.8348
-78.5206
-103.847
-127.587
-149.68
-170.088
-188.815
-205.891
-221.349
-235.233
-247.593
-258.476
-267.93
-276
-282.725
-288.141
-292.272
-295.131
-296.72
-297.031
-296.195
-294.059
-290.601
-285.78
-279.553
-271.875
-262.689
-251.935
-239.561
-225.505
-209.72
-192.16
-172.778
-151.575
-128.564
-103.757
-77.2257
-49.0752
-19.4557
10.9172
42.8499
75.7404
109.216
142.93
176.568
209.725
241.978
272.957
302.252
329.474
354.247
376.217
395.086
410.599
422.524
430.706
435.026
435.409
431.878
424.496
413.349
398.582
380.39
359.052
334.862
308.154
279.296
248.664
216.668
183.706
150.166
116.432
82.8526
49.7482
17.4031
-13.942
-44.0786
-72.8548
-100.148
-125.87
-149.956
-172.365
-193.073
-212.06
-229.317
-244.84
-258.63
-270.686
-281.022
-289.657
-296.616
-301.936
-305.658
-307.817
-308.463
-307.636
-305.364
-301.664
-296.538
-289.975
-281.95
-272.429
-261.37
-248.73
-234.468
-218.549
-200.952
-181.666
-160.701
-138.087
-113.874
-88.138
-60.9765
-32.5086
-2.87379
27.7649
59.1788
91.1642
123.475
155.836
187.942
219.46
250.033
279.284
306.819
332.239
355.148
375.165
391.939
405.161
414.573
419.978
421.238
418.302
411.2
399.982
384.792
365.841
343.39
317.761
289.32
258.473
225.658
191.338
155.989
120.091
84.1174
48.5029
13.7633
-19.9043
-52.0934
-82.5684
-111.145
-137.698
-162.156
-184.493
-204.722
-222.885
-239.046
-253.281
-265.679
-276.327
-285.315
-292.724
-298.632
-303.11
-306.218
-308.001
-308.503
-307.763
-305.797
-302.62
-298.236
-292.639
-285.819
-277.753
-268.416
-257.775
-245.788
-232.41
-217.59
-201.277
-183.422
-163.984
-142.938
-120.273
-96.0018
-70.1582
-42.8139
-14.0773
15.9007
47.0309
78.8502
111.189
143.734
176.133
207.999
238.91
268.42
296.071
321.407
343.99
363.412
379.305
391.352
399.298
402.944
402.221
397.087
387.606
373.923
356.278
334.984
310.42
283.011
253.222
221.546
188.486
154.546
120.213
85.941
52.1497
19.1816
-12.6514
-43.1011
-71.9794
-99.1561
-124.549
-148.121
-169.863
-189.791
-207.94
-224.348
-239.062
-252.133
-263.617
-273.578
-282.088
-289.223
-295.061
-299.668
-303.1
-305.389
-306.545
-306.582
-305.501
-303.29
-299.929
-295.383
-289.609
-282.553
-274.159
-264.377
-253.165
-240.497
-226.354
-210.726
-193.6
-174.963
-154.807
-133.129
-109.947
-85.2947
-59.2311
-31.8573
-3.30815
26.2441
56.8155
89.0648
121.198
153.013
184.284
214.66
243.772
271.219
296.557
319.37
339.187
355.616
368.215
376.659
380.761
380.419
375.43
366.505
353.43
336.245
315.075
290.244
262.25
231.65
199.028
165.009
130.156
95.1539
60.7025
26.1655
-10.9051
-45.3473
-77.6461
-107.887
-136.079
-162.182
-186.185
-208.126
-228.037
-245.988
-262.04
-276.262
-288.734
-299.525
-308.697
-316.307
-322.4
-327.01
-330.165
-331.858
-332.079
-330.981
-328.507
-324.609
-319.262
-312.393
-303.971
-293.968
-282.336
-269.029
-254.007
-237.234
-218.672
-198.302
-176.13
-152.168
-126.471
-99.1001
-70.1651
-39.8312
-8.2659
25.0467
58.5146
92.5904
126.879
161.035
194.682
227.298
258.39
287.508
314.167
337.955
358.495
375.468
388.628
397.748
402.614
12.295
-14.042
-25.0438
-52.5633
-79.2635
-104.584
-128.31
-150.384
-170.771
-189.473
-206.523
-221.955
-235.813
-248.148
-259.007
-268.441
-276.492
-283.202
-288.606
-292.729
-295.585
-297.176
-297.491
-296.664
-294.535
-291.089
-286.285
-280.079
-272.423
-263.263
-252.535
-240.188
-226.16
-210.4
-192.862
-173.499
-152.308
-129.3
-104.488
-77.9389
-49.7541
-20.077
10.2981
42.3198
75.3067
108.89
142.725
176.497
209.799
242.204
273.34
302.791
330.167
355.088
377.193
396.182
411.795
423.799
432.034
436.382
436.768
433.216
425.782
414.559
399.697
381.388
359.918
335.582
308.721
279.705
248.916
216.767
183.659
149.987
116.132
82.4477
49.2544
16.8379
-14.5633
-44.7386
-73.541
-100.849
-126.577
-150.662
-173.065
-193.764
-212.739
-229.985
-245.496
-259.273
-271.317
-281.639
-290.259
-297.202
-302.505
-306.21
-308.354
-308.988
-308.153
-305.877
-302.177
-297.058
-290.507
-282.498
-272.996
-261.957
-249.339
-235.097
-219.196
-201.613
-182.336
-161.373
-138.755
-114.531
-88.775
-61.5856
-33.0807
-3.40034
27.2994
58.7814
90.8474
123.252
155.721
187.947
219.599
250.316
279.72
307.415
332.995
356.059
376.223
393.127
406.456
415.951
421.408
422.692
419.748
412.602
401.312
386.024
366.949
344.354
318.565
289.953
258.926
225.929
191.429
155.905
119.844
83.7209
47.9812
13.1179
-20.6313
-52.885
-83.4025
-112.002
-138.559
-163.007
-185.323
-205.522
-223.65
-239.772
-253.967
-266.325
-276.936
-285.889
-293.266
-299.147
-303.601
-306.688
-308.456
-308.947
-308.199
-306.23
-303.053
-298.672
-293.083
-286.272
-278.22
-268.9
-258.277
-246.312
-232.958
-218.163
-201.875
-184.043
-164.624
-143.593
-120.937
-96.665
-70.8104
-43.441
-14.6634
15.376
46.5584
78.4734
110.92
143.589
176.126
208.147
239.223
268.908
296.738
322.251
345.001
364.575
380.601
392.755
400.778
404.47
403.749
398.579
389.024
375.235
357.454
336.001
311.259
283.662
253.68
221.812
188.568
154.456
119.966
85.5578
51.6538
18.5921
-13.3118
-43.811