/*--------------------------------*- C++ -*----------------------------------*\
| =========                 |                                                 |
| \\      /  F ield         | OpenFOAM: The Open Source CFD Toolbox           |
|  \\    /   O peration     | Version:  3.0.1                                 |
|   \\  /    A nd           | Web:      www.OpenFOAM.org                      |
|    \\/     M anipulation  |                                                 |
\*---------------------------------------------------------------------------*/
FoamFile
{
    version     2.0;
    format      ascii;
    class       volScalarField;
    location    "56";
    object      p_rgh;
}
// * * * * * * * * * * * * * * * * * * * * * * * * * * * * * * * * * * * * * //

dimensions      [1 -1 -2 0 0 0 0];

internalField   nonuniform List<scalar> 
21420
(
-231.171
-249.133
-265.456
-280.113
-293.087
-304.421
-314.155
-322.335
-328.997
-334.179
-337.918
-340.215
-341.057
-340.333
-338.207
-334.61
-329.539
-322.985
-314.905
-305.244
-293.964
-281.004
-266.314
-249.857
-231.597
-211.515
-189.607
-165.876
-140.368
-113.153
-84.3175
-54.0025
-22.4002
10.2659
43.5241
77.4814
111.734
145.846
179.395
212.007
243.245
272.709
299.987
324.693
346.501
365.102
380.225
391.659
399.247
402.884
402.42
397.966
389.529
377.197
361.187
341.742
319.116
293.61
265.594
235.444
203.551
170.32
136.165
101.513
66.78
32.3628
-1.20665
-33.8734
-65.6356
-96.2666
-125.491
-153.132
-179.061
-203.18
-225.436
-245.795
-264.243
-280.788
-295.444
-308.238
-319.186
-328.316
-335.674
-341.295
-345.218
-347.459
-348.037
-347.092
-344.618
-340.651
-335.231
-328.38
-320.12
-310.471
-299.426
-286.971
-273.086
-257.745
-240.917
-222.575
-202.702
-181.288
-158.345
-133.902
-108.017
-80.7785
-52.3146
-22.8371
8.37496
39.5168
71.2328
103.185
135.058
166.519
197.216
226.784
254.844
281.012
304.906
326.154
344.407
359.344
370.685
378.197
381.707
381.057
376.298
367.457
354.572
337.853
317.535
293.917
267.346
238.215
206.946
173.985
139.794
104.83
69.5456
34.3724
-0.287284
-34.0668
-66.6561
-97.7842
-127.235
-154.846
-180.505
-204.148
-225.755
-245.338
-262.936
-278.608
-292.428
-304.479
-314.846
-323.608
-330.851
-336.655
-341.085
-344.215
-346.085
-346.72
-346.159
-344.446
-341.571
-337.52
-332.283
-325.84
-318.149
-309.175
-298.877
-287.212
-274.138
-259.614
-243.605
-226.078
-207.006
-186.375
-164.184
-140.449
-115.209
-88.5371
-60.5351
-31.3278
-0.953183
30.0723
61.6304
93.424
125.111
156.32
186.651
215.689
243.005
268.177
290.797
310.482
326.884
339.706
348.703
353.691
354.477
351.178
343.727
332.222
316.873
297.929
275.699
250.549
222.881
193.128
161.738
129.167
95.8683
62.2818
28.8204
-4.13885
-36.2595
-67.2688
-96.9313
-125.067
-151.545
-176.278
-199.212
-220.331
-239.64
-257.165
-272.947
-287.042
-299.51
-310.411
-319.816
-327.788
-334.38
-339.638
-343.609
-346.335
-347.83
-348.116
-347.256
-345.25
-342.113
-337.843
-332.428
-325.836
-318.036
-308.987
-298.643
-286.963
-273.909
-259.452
-243.57
-226.25
-207.485
-187.274
-165.624
-142.546
-118.07
-92.252
-65.1743
-36.9539
-7.72752
22.2769
52.824
83.6508
114.452
144.893
174.61
203.216
230.313
255.498
278.366
298.53
315.639
329.362
339.421
345.582
347.655
345.375
338.898
328.37
313.933
295.856
274.452
250.095
223.21
194.246
163.662
131.948
99.555
66.9229
34.4738
2.589
-28.2581
-57.2799
-85.3827
-112.037
-137.061
-160.336
-181.808
-201.46
-219.309
-235.404
-249.811
-262.618
-273.925
-283.836
-292.458
-299.887
-306.215
-311.514
-315.84
-319.23
-321.697
-323.232
-323.781
-323.289
-321.703
-318.937
-314.879
-309.435
-302.49
-293.95
-283.723
-271.726
-257.9
-242.196
-224.597
-205.127
-183.829
-160.761
-136.034
-109.788
-82.1904
-53.4554
-23.8906
6.34778
36.9028
67.4655
97.7302
127.346
155.976
183.302
208.985
232.731
254.242
273.271
289.617
303.087
313.529
320.827
324.91
325.692
323.148
317.241
308.057
295.884
280.945
-231.248
-249.208
-265.529
-280.183
-293.154
-304.486
-314.218
-322.395
-329.056
-334.236
-337.973
-340.271
-341.113
-340.391
-338.264
-334.667
-329.597
-323.046
-314.968
-305.31
-294.032
-281.075
-266.388
-249.933
-231.675
-211.596
-189.689
-165.958
-140.45
-113.233
-84.3945
-54.0746
-22.4658
10.2087
43.4741
77.4437
111.711
145.838
179.405
212.034
243.291
272.773
300.069
324.792
346.615
365.23
380.364
391.807
399.402
403.042
402.582
398.115
389.674
377.335
361.314
341.855
319.214
293.69
265.657
235.489
203.578
170.329
136.157
101.488
66.7398
32.3111
-1.26142
-33.9354
-65.706
-96.3436
-125.572
-153.217
-179.147
-203.266
-225.522
-245.88
-264.327
-280.87
-295.524
-308.316
-319.262
-328.391
-335.748
-341.367
-345.289
-347.525
-348.106
-347.159
-344.684
-340.716
-335.296
-328.444
-320.184
-310.536
-299.492
-287.039
-273.156
-257.817
-240.991
-222.652
-202.78
-181.368
-158.424
-133.981
-108.094
-80.8523
-52.3816
-22.8864
8.30078
39.4627
71.1913
103.156
135.042
166.517
197.229
226.813
254.891
281.076
304.987
326.252
344.521
359.472
370.823
378.344
381.866
381.208
376.447
367.602
354.708
337.976
317.643
294.007
267.418
238.267
206.977
173.997
139.786
104.804
69.5029
34.315
-0.357485
-34.1476
-66.7453
-97.8794
-127.334
-154.947
-180.606
-204.249
-225.853
-245.432
-263.026
-278.695
-292.511
-304.558
-314.92
-323.678
-330.919
-336.719
-341.147
-344.275
-346.143
-346.775
-346.215
-344.502
-341.627
-337.576
-332.341
-325.899
-318.21
-309.238
-298.942
-287.279
-274.208
-259.686
-243.679
-226.154
-207.085
-186.455
-164.264
-140.529
-115.288
-88.6138
-60.608
-31.3963
-1.013
30.0209
61.59
93.3966
125.099
156.324
186.673
215.729
243.064
268.255
290.893
310.595
327.011
339.845
348.852
353.845
354.641
351.328
343.874
332.361
317
298.039
275.792
250.623
222.936
193.162
161.752
129.162
95.8457
62.2432
28.7678
-4.20304
-36.3332
-67.3495
-97.017
-125.156
-151.635
-176.368
-199.301
-220.418
-239.725
-257.247
-273.026
-287.117
-299.582
-310.48
-319.882
-327.851
-334.441
-339.697
-343.667
-346.391
-347.883
-348.17
-347.309
-345.303
-342.166
-337.897
-332.482
-325.892
-318.094
-309.048
-298.706
-287.028
-273.976
-259.52
-243.64
-226.321
-207.557
-187.347
-165.697
-142.619
-118.143
-92.3226
-65.2415
-37.0161
-7.78357
22.2293
52.7868
83.6255
114.441
144.897
174.63
203.253
230.368
255.573
278.458
298.639
315.764
329.5
339.569
345.74
347.821
345.534
339.053
328.518
314.071
295.979
274.559
250.182
223.278
194.293
163.688
131.954
99.5431
66.8945
34.431
2.53437
-28.3217
-57.3532
-85.4606
-112.118
-137.144
-160.419
-181.89
-201.54
-219.385
-235.476
-249.878
-262.68
-273.982
-283.889
-292.506
-299.932
-306.256
-311.553
-315.878
-319.267
-321.733
-323.269
-323.821
-323.332
-321.75
-318.987
-314.934
-309.494
-302.554
-294.018
-283.795
-271.801
-257.978
-242.276
-224.678
-205.208
-183.909
-160.84
-136.109
-109.858
-82.2537
-53.5101
-23.9369
6.31243
36.8792
67.4545
97.7327
127.363
156.007
183.348
209.045
232.804
254.328
273.368
289.724
303.202
313.65
320.954
325.04
325.826
323.269
317.36
308.172
295.991
281.042
-231.403
-249.358
-265.674
-280.323
-293.289
-304.616
-314.343
-322.516
-329.173
-334.35
-338.085
-340.383
-341.227
-340.506
-338.378
-334.781
-329.715
-323.168
-315.094
-305.441
-294.169
-281.218
-266.536
-250.087
-231.833
-211.757
-189.853
-166.123
-140.614
-113.393
-84.5482
-54.2186
-22.5967
10.0946
43.374
77.3686
111.665
145.824
179.424
212.089
243.382
272.901
300.232
324.989
346.844
365.486
380.643
392.104
399.711
403.354
402.907
398.416
389.966
377.612
361.568
342.082
319.409
293.852
265.783
235.578
203.631
170.346
136.14
101.439
66.6596
32.2081
-1.36973
-34.0584
-65.8457
-96.4964
-125.734
-153.384
-179.316
-203.436
-225.691
-246.046
-264.489
-281.029
-295.679
-308.467
-319.409
-328.534
-335.887
-341.504
-345.422
-347.649
-348.232
-347.281
-344.803
-340.833
-335.411
-328.558
-320.299
-310.652
-299.61
-287.161
-273.281
-257.946
-241.125
-222.789
-202.92
-181.51
-158.567
-134.123
-108.232
-80.9841
-52.5003
-22.9681
8.16658
39.3703
71.1238
103.113
135.024
166.527
197.271
226.888
254.999
281.219
305.165
326.464
344.763
359.742
371.116
378.654
382.191
381.533
376.762
367.907
354.995
338.238
317.874
294.204
267.577
238.386
207.056
174.036
139.787
104.768
69.4345
34.217
-0.480663
-34.2919
-66.9061
-98.0522
-127.515
-155.131
-180.791
-204.431
-226.031
-245.604
-263.19
-278.85
-292.658
-304.697
-315.051
-323.802
-331.036
-336.83
-341.253
-344.376
-346.241
-346.867
-346.309
-344.596
-341.721
-337.672
-332.439
-326.001
-318.315
-309.347
-299.057
-287.398
-274.331
-259.814
-243.812
-226.291
-207.225
-186.599
-164.41
-140.674
-115.432
-88.7523
-60.7394
-31.5191
-1.11808
29.9321
61.5232
93.3557
125.087
156.345
186.73
215.823
243.196
268.425
291.099
310.834
327.28
340.138
349.163
354.166
354.979
351.643
344.182
332.652
317.266
298.274
275.992
250.785
223.057
193.243
161.794
129.166
95.8139
62.1795
28.6762
-4.31766
-36.4666
-67.497
-97.1742
-125.319
-151.801
-176.533
-199.465
-220.578
-239.88
-257.397
-273.169
-287.254
-299.711
-310.603
-319.999
-327.963
-334.548
-339.801
-343.768
-346.49
-347.976
-348.264
-347.4
-345.394
-342.257
-337.989
-332.577
-325.99
-318.197
-309.154
-298.817
-287.143
-274.095
-259.642
-243.765
-226.448
-207.687
-187.479
-165.831
-142.752
-118.275
-92.4509
-65.3634
-37.1281
-7.88379
22.1462
52.7237
83.5857
114.428
144.913
174.679
203.337
230.488
255.728
278.65
298.864
316.019
329.781
339.872
346.06
348.16
345.854
339.367
328.818
314.349
296.229
274.775
250.36
223.415
194.388
163.742
131.968
99.5196
66.8379
34.3456
2.42529
-28.4486
-57.4997
-85.6164
-112.28
-137.309
-160.585
-182.053
-201.698
-219.536
-235.619
-250.012
-262.804
-274.097
-283.995
-292.603
-300.021
-306.339
-311.631
-315.952
-319.34
-321.807
-323.344
-323.901
-323.417
-321.845
-319.089
-315.043
-309.612
-302.681
-294.153
-283.939
-271.951
-258.134
-242.436
-224.84
-205.37
-184.07
-160.996
-136.258
-109.997
-82.3803
-53.6193
-24.0297
6.24176
36.832
67.4324
97.7377
127.396
156.07
183.44
209.166
232.952
254.5
273.563
289.938
303.432
313.893
321.207
325.297
326.093
323.512
317.598
308.4
296.203
281.235
-231.635
-249.583
-265.892
-280.533
-293.491
-304.81
-314.531
-322.698
-329.349
-334.522
-338.252
-340.55
-341.397
-340.68
-338.547
-334.953
-329.892
-323.351
-315.283
-305.638
-294.374
-281.432
-266.758
-250.316
-232.069
-211.999
-190.098
-166.37
-140.859
-113.634
-84.779
-54.435
-22.7934
9.92307
43.2236
77.2557
111.596
145.802
179.453
212.171
243.518
273.092
300.477
325.285
347.186
365.87
381.061
392.549
400.174
403.823
403.39
398.871
390.406
378.028
361.95
342.423
319.703
294.095
265.972
235.712
203.711
170.373
136.115
101.364
66.539
32.0526
-1.53155
-34.243
-66.0555
-96.7258
-125.976
-153.634
-179.571
-203.691
-225.944
-246.295
-264.734
-281.267
-295.911
-308.693
-319.628
-328.748
-336.096
-341.707
-345.62
-347.835
-348.42
-347.464
-344.981
-341.007
-335.581
-328.727
-320.469
-310.823
-299.785
-287.34
-273.466
-258.137
-241.322
-222.992
-203.128
-181.72
-158.778
-134.333
-108.437
-81.179
-52.6763
-23.086
7.96589
39.2357
71.0256
103.051
135.001
166.547
197.336
227.002
255.165
281.437
305.435
326.785
345.131
360.15
371.559
379.122
382.672
382.031
377.242
368.368
355.43
338.635
318.225
294.503
267.819
238.568
207.178
174.098
139.791
104.718
69.3348
34.0731
-0.662458
-34.5054
-67.1445
-98.3086
-127.783
-155.405
-181.065
-204.701
-226.294
-245.857
-263.433
-279.081
-292.876
-304.903
-315.244
-323.984
-331.208
-336.993
-341.409
-344.526
-346.383
-347.004
-346.448
-344.734
-341.859
-337.812
-332.584
-326.15
-318.47
-309.509
-299.225
-287.573
-274.513
-260.004
-244.009
-226.494
-207.434
-186.812
-164.625
-140.889
-115.644
-88.9575
-60.9337
-31.7012
-1.27279
29.8014
61.4255
93.2968
125.073
156.38
186.817
215.966
243.397
268.682
291.411
311.195
327.686
340.58
349.632
354.65
355.482
352.123
344.648
333.091
317.667
298.629
276.294
251.029
223.242
193.368
161.859
129.173
95.7686
62.0862
28.5409
-4.48733
-36.6644
-67.7159
-97.4078
-125.561
-152.048
-176.78
-199.708
-220.816
-240.11
-257.618
-273.381
-287.456
-299.903
-310.785
-320.172
-328.128
-334.706
-339.954
-343.917
-346.633
-348.115
-348.401
-347.535
-345.528
-342.391
-338.126
-332.716
-326.135
-318.348
-309.312
-298.981
-287.313
-274.271
-259.823
-243.95
-226.637
-207.879
-187.674
-166.028
-142.95
-118.47
-92.6411
-65.544
-37.2942
-8.03199
22.0235
52.631
83.5279
114.41
144.94
174.755
203.465
230.67
255.964
278.938
299.203
316.403
330.204
340.327
346.54
348.665
346.338
339.842
329.269
314.767
296.603
275.098
250.626
223.62
194.531
163.823
131.989
99.4843
66.7527
34.2172
2.26144
-28.6392
-57.7197
-85.8504
-112.523
-137.557
-160.833
-182.297
-201.935
-219.764
-235.834
-250.213
-262.991
-274.269
-284.153
-292.748
-300.154
-306.463
-311.747
-316.064
-319.45
-321.917
-323.456
-324.019
-323.548
-321.986
-319.241
-315.207
-309.789
-302.872
-294.357
-284.154
-272.177
-258.367
-242.676
-225.083
-205.614
-184.311
-161.23
-136.483
-110.207
-82.5703
-53.7837
-24.1688
6.13567
36.7611
67.3991
97.7451
127.446
156.164
183.579
209.347
233.173
254.759
273.855
290.259
303.778
314.258
321.586
325.682
326.489
323.882
317.956
308.744
296.522
281.526
-231.945
-249.884
-266.182
-280.813
-293.761
-305.07
-314.781
-322.94
-329.584
-334.75
-338.474
-340.77
-341.625
-340.91
-338.773
-335.182
-330.127
-323.595
-315.536
-305.901
-294.648
-281.717
-267.054
-250.623
-232.385
-212.321
-190.426
-166.699
-141.186
-113.954
-85.0871
-54.7238
-23.0559
9.69333
43.0226
77.1049
111.503
145.773
179.491
212.28
243.7
273.347
300.804
325.68
347.643
366.382
381.619
393.143
400.792
404.45
404.027
399.486
390.993
378.583
362.459
342.877
320.095
294.418
266.224
235.891
203.817
170.407
136.081
101.264
66.3774
31.8435
-1.74605
-34.489
-66.3358
-97.0323
-126.3
-153.968
-179.91
-204.031
-226.281
-246.628
-265.059
-281.586
-296.221
-308.994
-319.921
-329.034
-336.374
-341.977
-345.882
-348.086
-348.671
-347.706
-345.217
-341.239
-335.808
-328.952
-320.695
-311.051
-300.017
-287.577
-273.711
-258.391
-241.584
-223.261
-203.404
-182
-159.06
-134.612
-108.71
-81.4386
-52.9123
-23.2665
7.72209
39.0588
70.8956
102.968
134.971
166.573
197.424
227.156
255.386
281.729
305.797
327.214
345.622
360.697
372.151
379.748
383.313
382.691
377.888
368.986
356.011
339.166
318.695
294.902
268.142
238.813
207.341
174.182
139.797
104.652
69.2023
33.8814
-0.904499
-34.7898
-67.462
-98.65
-128.14
-155.769
-181.43
-205.062
-226.645
-246.195
-263.756
-279.387
-293.166
-305.176
-315.501
-324.226
-331.437
-337.21
-341.615
-344.724
-346.569
-347.19
-346.632
-344.917
-342.042
-337.999
-332.777
-326.349
-318.676
-309.724
-299.449
-287.806
-274.756
-260.256
-244.27
-226.764
-207.712
-187.096
-164.912
-141.175
-115.926
-89.2305
-61.1924
-31.9446
-1.47778
29.6274
61.2955
93.2187
125.054
156.426
186.934
216.158
243.665
269.027
291.828
311.678
328.229
341.171
350.258
355.297
356.147
352.772
345.272
333.678
318.203
299.103
276.698
251.357
223.49
193.534
161.945
129.184
95.7085
61.9619
28.3608
-4.71346
-36.928
-68.0077
-97.7191
-125.885
-152.376
-177.108
-200.032
-221.132
-240.417
-257.913
-273.663
-287.725
-300.158
-311.027
-320.403
-328.348
-334.917
-340.157
-344.114
-346.823
-348.301
-348.584
-347.713
-345.705
-342.569
-338.307
-332.902
-326.327
-318.549
-309.521
-299.199
-287.54
-274.505
-260.064
-244.196
-226.888
-208.135
-187.934
-166.29
-143.212
-118.731
-92.8945
-65.7846
-37.5157
-8.22926
21.8601
52.5076
83.451
114.386
144.976
174.856
203.635
230.911
256.277
279.323
299.655
316.915
330.768
340.934
347.18
349.331
346.994
340.477
329.871
315.324
297.102
275.53
250.981
223.894
194.722
163.931
132.016
99.4366
66.6386
34.0453
2.04253
-28.8941
-58.0134
-86.1628
-112.848
-137.888
-161.164
-182.623
-202.251
-220.067
-236.121
-250.482
-263.241
-274.499
-284.364
-292.941
-300.332
-306.628
-311.903
-316.213
-319.596
-322.064
-323.606
-324.177
-323.722
-322.174
-319.444
-315.426
-310.025
-303.127
-294.629
-284.441
-272.478
-258.679
-242.996
-225.407
-205.939
-184.632
-161.544
-136.782
-110.487
-82.8243
-54.0041
-24.3537
5.9941
36.6663
67.3546
97.7547
127.513
156.29
183.763
209.589
233.469
255.104
274.245
290.687
304.239
314.745
322.09
326.196
327.011
324.382
318.436
309.202
296.948
281.913
-232.332
-250.26
-266.546
-281.163
-294.098
-305.395
-315.094
-323.242
-329.877
-335.035
-338.752
-341.045
-341.91
-341.194
-339.055
-335.468
-330.421
-323.899
-315.851
-306.229
-294.991
-282.074
-267.424
-251.006
-232.779
-212.724
-190.835
-167.111
-141.596
-114.356
-85.4729
-55.0855
-23.3844
9.40476
42.7709
76.9158
111.386
145.736
179.539
212.416
243.927
273.665
301.212
326.173
348.215
367.023
382.317
393.886
401.564
405.235
404.815
400.261
391.731
379.278
363.096
343.445
320.584
294.823
266.539
236.114
203.949
170.451
136.038
101.139
66.1742
31.579
-2.01206
-34.7966
-66.687
-97.4162
-126.705
-154.387
-180.335
-204.457
-226.704
-247.044
-265.467
-281.983
-296.609
-309.371
-320.288
-329.391
-336.722
-342.316
-346.207
-348.404
-348.984
-348.009
-345.512
-341.528
-336.092
-329.233
-320.977
-311.336
-300.307
-287.875
-274.018
-258.708
-241.911
-223.599
-203.749
-182.35
-159.412
-134.961
-109.051
-81.7637
-53.2101
-23.5133
7.43756
38.8398
70.7334
102.865
134.932
166.606
197.534
227.348
255.664
282.094
306.249
327.75
346.237
361.38
372.892
380.531
384.118
383.511
378.699
369.76
356.738
339.83
319.282
295.402
268.547
239.118
207.545
174.286
139.805
104.569
69.0361
33.6412
-1.20776
-35.1459
-67.8596
-99.0775
-128.586
-156.225
-181.887
-205.512
-227.083
-246.618
-264.159
-279.77
-293.528
-305.517
-315.823
-324.529
-331.723
-337.481
-341.873
-344.97
-346.805
-347.422
-346.862
-345.145
-342.271
-338.232
-333.017
-326.596
-318.933
-309.992
-299.728
-288.097
-275.059
-260.57
-244.596
-227.101
-208.059
-187.45
-165.27
-141.534
-116.279
-89.5722
-61.5159
-32.25
-1.73382
29.409
61.1325
93.1207
125.03
156.484
187.081
216.398
244
269.457
292.349
312.283
328.907
341.911
351.043
356.108
356.972
353.589
346.053
334.413
318.874
299.697
277.203
251.766
223.799
193.742
162.053
129.197
95.6327
61.8058
28.1349
-4.99692
-37.2584
-68.3732
-98.1088
-126.289
-152.787
-177.518
-200.437
-221.528
-240.8
-258.282
-274.016
-288.06
-300.476
-311.329
-320.691
-328.623
-335.18
-340.411
-344.36
-347.06
-348.536
-348.812
-347.936
-345.927
-342.791
-338.533
-333.134
-326.568
-318.8
-309.783
-299.472
-287.823
-274.797
-260.364
-244.504
-227.203
-208.454
-188.259
-166.618
-143.541
-119.057
-93.2116
-66.0859
-37.7935
-8.47631
21.6555
52.3528
83.3544
114.356
145.02
174.981
203.847
231.213
256.669
279.804
300.22
317.555
331.474
341.693
347.98
350.161
347.817
341.273
330.625
316.022
297.727
276.069
251.424
224.237
194.96
164.065
132.05
99.3763
66.4949
33.8295
1.76818
-29.2139
-58.3809
-86.554
-113.255
-138.302
-161.579
-183.031
-202.647
-220.446
-236.479
-250.818
-263.552
-274.786
-284.627
-293.183
-300.554
-306.834
-312.097
-316.399
-319.779
-322.247
-323.794
-324.375
-323.938
-322.408
-319.697
-315.699
-310.32
-303.445
-294.968
-284.801
-272.854
-259.069
-243.396
-225.813
-206.345
-185.034
-161.936
-137.157
-110.838
-83.1423
-54.2812
-24.5846
5.81688
36.5474
67.2986
97.7664
127.597
156.447
183.993
209.89
233.838
255.535
274.732
291.223
304.815
315.353
322.721
326.839
327.657
325.014
319.039
309.775
297.481
282.398
-232.796
-250.711
-266.982
-281.584
-294.503
-305.784
-315.47
-323.605
-330.229
-335.378
-339.087
-341.376
-342.247
-341.532
-339.392
-335.81
-330.773
-324.264
-316.229
-306.623
-295.401
-282.502
-267.869
-251.466
-233.252
-213.209
-191.327
-167.606
-142.088
-114.838
-85.9367
-55.5206
-23.7799
9.05726
42.4677
76.6878
111.245
145.691
179.595
212.579
244.199
274.047
301.702
326.766
348.901
367.792
383.156
394.778
402.492
406.179
405.759
401.192
392.619
380.112
363.862
344.127
321.172
295.308
266.917
236.382
204.107
170.502
135.986
100.987
65.9286
31.2564
-2.32778
-35.1658
-67.1097
-97.8779
-127.193
-154.89
-180.845
-204.968
-227.211
-247.543
-265.956
-282.461
-297.074
-309.823
-320.727
-329.819
-337.139
-342.721
-346.598
-348.787
-349.359
-348.373
-345.867
-341.875
-336.432
-329.57
-321.316
-311.678
-300.654
-288.231
-274.386
-259.088
-242.304
-224.004
-204.163
-182.771
-159.835
-135.381
-109.461
-82.1551
-53.5708
-23.8254
7.11001
38.579
70.5386
102.741
134.886
166.644
197.665
227.577
255.996
282.531
306.791
328.394
346.975
362.202
373.782
381.472
385.088
384.494
379.673
370.692
357.613
340.627
319.987
296.002
269.033
239.484
207.79
174.41
139.813
104.469
68.8354
33.3519
-1.57303
-35.5746
-68.3378
-99.5918
-129.123
-156.774
-182.436
-206.054
-227.61
-247.125
-264.644
-280.23
-293.963
-305.927
-316.208
-324.892
-332.066
-337.806
-342.182
-345.264
-347.088
-347.701
-347.137
-345.418
-342.546
-338.512
-333.305
-326.894
-319.242
-310.314
-300.064
-288.447
-275.422
-260.948
-244.988
-227.507
-208.475
-187.876
-165.701
-141.965
-116.704
-89.9833
-61.9048
-32.6157
-2.04377
29.1455
60.9356
93.0019
125
156.552
187.255
216.685
244.403
269.974
292.975
313.01
329.723
342.8
351.986
357.084
357.96
354.571
346.994
335.296
319.681
300.41
277.81
252.257
224.169
193.991
162.182
129.211
95.5406
61.6172
27.8625
-5.3384
-37.6561
-68.8128
-98.5776
-126.775
-153.281
-178.012
-200.924
-222.004
-241.261
-258.725
-274.44
-288.463
-300.859
-311.693
-321.037
-328.953
-335.495
-340.716
-344.655
-347.346
-348.817
-349.085
-348.205
-346.193
-343.057
-338.804
-333.412
-326.857
-319.101
-310.097
-299.799
-288.163
-275.149
-260.726
-244.873
-227.58
-208.838
-188.649
-167.012
-143.937
-119.449
-93.5931
-66.4485
-38.128
-8.77378
21.409
52.1659
83.2373
114.319
145.072
175.131
204.1
231.575
257.139
280.382
300.899
318.323
332.321
342.604
348.942
351.165
348.804
342.229
331.531
316.86
298.477
276.718
251.957
224.648
195.245
164.226
132.089
99.3028
66.321
33.5691
1.43789
-29.5993
-58.8225
-87.0242
-113.744
-138.8
-162.078
-183.521
-203.123
-220.901
-236.91
-251.221
-263.926
-275.131
-284.943
-293.472
-300.821
-307.081
-312.329
-316.622
-319.997
-322.467
-324.019
-324.614
-324.196
-322.688
-319.999
-316.026
-310.675
-303.828
-295.376
-285.232
-273.306
-259.538
-243.877
-226.3
-206.833
-185.517
-162.407
-137.608
-111.259
-83.525
-54.6152
-24.8617
5.60374
36.4041
67.2308
97.78
127.696
156.635
184.27
210.253
234.281
256.053
275.316
291.866
305.507
316.084
323.479
327.61
328.43
325.773
319.766
310.464
298.121
282.98
-233.339
-251.237
-267.491
-282.074
-294.975
-306.239
-315.908
-324.028
-330.639
-335.777
-339.477
-341.763
-342.639
-341.924
-339.784
-336.21
-331.184
-324.689
-316.67
-307.083
-295.88
-283.001
-268.388
-252.003
-233.805
-213.774
-191.901
-168.183
-142.663
-115.402
-86.479
-56.0298
-24.2429
8.65068
42.1126
76.4205
111.08
145.637
179.66
212.768
244.516
274.492
302.274
327.457
349.703
368.691
384.135
395.82
403.577
407.283
406.861
402.277
393.657
381.087
364.755
344.923
321.858
295.874
267.357
236.694
204.29
170.561
135.925
100.81
65.6399
30.872
-2.69036
-35.5968
-67.6044
-98.418
-127.763
-155.478
-181.441
-205.565
-227.803
-248.126
-266.527
-283.018
-297.617
-310.351
-321.24
-330.318
-337.626
-343.194
-347.056
-349.234
-349.795
-348.797
-346.281
-342.279
-336.828
-329.964
-321.711
-312.076
-301.06
-288.647
-274.815
-259.532
-242.763
-224.476
-204.647
-183.263
-160.329
-135.872
-109.94
-82.6134
-53.9954
-24.2015
6.73722
38.2761
70.3106
102.595
134.83
166.688
197.817
227.844
256.383
283.042
307.424
329.145
347.837
363.161
374.822
382.572
386.222
385.642
380.809
371.781
358.634
341.56
320.811
296.703
269.6
239.91
208.074
174.554
139.821
104.35
68.5996
33.0125
-2.00101
-36.0766
-68.8976
-100.193
-129.752
-157.415
-183.078
-206.687
-228.226
-247.718
-265.21
-280.767
-294.47
-306.405
-316.658
-325.316
-332.466
-338.184
-342.542
-345.607
-347.42
-348.025
-347.457
-345.737
-342.867
-338.839
-333.64
-327.241
-319.603
-310.691
-300.456
-288.855
-275.847
-261.389
-245.445
-227.98
-208.962
-188.373
-166.204
-142.469
-117.201
-90.4642
-62.3593
-33.023
-2.42775
28.8358
60.7043
92.8618
124.963
156.631
187.458
217.019
244.872
270.576
293.706
313.858
330.675
343.838
353.088
358.225
359.116
355.716
348.093
336.328
320.623
301.242
278.518
252.83
224.602
194.28
162.332
129.227
95.4316
61.3951
27.5429
-5.7388
-38.1219
-69.3275
-99.1262
-127.344
-153.858
-178.588
-201.493
-222.559
-241.798
-259.242
-274.934
-288.934
-301.306
-312.117
-321.44
-329.337
-335.864
-341.072
-344.999
-347.679
-349.14
-349.404
-348.517
-346.502
-343.368
-339.119
-333.737
-327.194
-319.453
-310.464
-300.182
-288.56
-275.559
-261.147
-245.305
-228.02
-209.287
-189.104
-167.473
-144.399
-119.907
-94.0393
-66.8728
-38.5197
-9.12224
21.1202
51.9462
83.0992
114.274
145.132
175.304
204.396
231.996
257.687
281.055
301.691
319.22
333.311
343.669
350.064
352.341
349.955
343.346
332.591
317.84
299.355
277.474
252.579
225.127
195.577
164.412
132.134
99.2156
66.1161
33.2634
1.05097
-30.0512
-59.3387
-87.5737
-114.316
-139.382
-162.659
-184.094
-203.679
-221.433
-237.413
-251.691
-264.362
-275.533
-285.312
-293.81
-301.131
-307.368
-312.599
-316.882
-320.252
-322.723
-324.283
-324.893
-324.497
-323.013
-320.352
-316.409
-311.089
-304.274
-295.852
-285.736
-273.834
-260.085
-244.438
-226.869
-207.404
-186.082
-162.957
-138.135
-111.752
-83.9727
-55.0065
-25.1856
5.3543
36.2362
67.151
97.795
127.812
156.854
184.592
210.675
234.798
256.658
275.999
292.616
306.315
316.937
324.363
328.511
329.333
326.66
320.616
311.269
298.867
283.659
-233.959
-251.84
-268.073
-282.635
-295.515
-306.759
-316.409
-324.512
-331.108
-336.234
-339.924
-342.206
-343.088
-342.371
-340.232
-336.665
-331.654
-325.175
-317.174
-307.608
-296.428
-283.572
-268.981
-252.617
-234.437
-214.421
-192.559
-168.845
-143.321
-116.048
-87.1003
-56.6136
-24.7744
8.18463
41.7045
76.1132
110.89
145.574
179.732
212.983
244.877
275.001
302.927
328.248
350.619
369.718
385.256
397.012
404.817
408.546
408.123
403.517
394.845
382.203
365.777
345.834
322.643
296.522
267.86
237.049
204.5
170.628
135.854
100.606
65.3072
30.4215
-3.09675
-36.0903
-68.1719
-99.0373
-128.416
-156.151
-182.124
-206.248
-228.48
-248.792
-267.179
-283.655
-298.237
-310.954
-321.826
-330.89
-338.182
-343.735
-347.58
-349.745
-350.294
-349.282
-346.753
-342.74
-337.282
-330.414
-322.162
-312.531
-301.522
-289.122
-275.306
-260.04
-243.288
-225.017
-205.201
-183.826
-160.895
-136.434
-110.489
-83.1392
-54.4845
-24.6413
6.31777
37.9309
70.0492
102.426
134.765
166.737
197.989
228.148
256.825
283.624
308.148
330.004
348.822
364.259
376.012
383.83
387.522
386.957
382.109
373.028
359.803
342.626
321.753
297.504
270.248
240.398
208.399
174.717
139.829
104.212
68.3279
32.6222
-2.49252
-36.6528
-69.5398
-100.883
-130.472
-158.15
-183.814
-207.411
-228.931
-248.396
-265.857
-281.381
-295.051
-306.952
-317.173
-325.801
-332.924
-338.617
-342.954
-346.001
-347.799
-348.395
-347.823
-346.101
-343.234
-339.213
-334.024
-327.637
-320.016
-311.121
-300.904
-289.321
-276.332
-261.894
-245.969
-228.521
-209.519
-188.942
-166.781
-143.046
-117.77
-91.0154
-62.8801
-33.4914
-2.86805
28.4795
60.4381
92.6997
124.92
156.719
187.688
217.4
245.407
271.265
294.541
314.829
331.765
345.027
354.35
359.533
360.439
357.026
349.352
337.51
321.701
302.195
279.328
253.485
225.095
194.611
162.501
129.243
95.3048
61.1391
27.1752
-6.19889
-38.6566
-69.9181
-99.7551
-127.996
-154.519
-179.249
-202.144
-223.194
-242.414
-259.833
-275.5
-289.472
-301.817
-312.602
-321.901
-329.777
-336.285
-341.478
-345.393
-348.06
-349.514
-349.768
-348.874
-346.856
-343.723
-339.48
-334.108
-327.579
-319.854
-310.884
-300.619
-289.015
-276.029
-261.63
-245.799
-228.524
-209.799
-189.625
-168
-144.928
-120.432
-94.5509
-67.3596
-38.9694
-9.52205
20.7883
51.6931
82.9392
114.221
145.198
175.501
204.732
232.477
258.313
281.824
302.597
320.246
334.444
344.886
351.347
353.682
351.27
344.624
333.804
318.961
300.36
278.34
253.29
225.676
195.956
164.624
132.184
99.1139
65.8793
32.9113
0.606513
-30.5704
-59.9299
-88.2031
-114.97
-140.049
-163.325
-184.75
-204.314
-222.041
-237.988
-252.229
-264.861
-275.992
-285.733
-294.195
-301.485
-307.697
-312.908
-317.177
-320.542
-323.015
-324.584
-325.211
-324.839
-323.385
-320.755
-316.845
-311.563
-304.785
-296.396
-286.312
-274.438
-260.711
-245.08
-227.52
-208.056
-186.728
-163.587
-138.738
-112.317
-84.4859
-55.4556
-25.5568
5.06814
36.0432
67.0587
97.8111
127.943
157.104
184.961
211.158
235.39
257.349
276.78
293.475
307.239
317.912
325.375
329.542
330.366
327.674
321.589
312.19
299.722
284.435
-234.657
-252.517
-268.727
-283.266
-296.122
-307.343
-316.972
-325.056
-331.636
-336.747
-340.426
-342.703
-343.599
-342.87
-340.735
-337.178
-332.182
-325.721
-317.741
-308.199
-297.044
-284.215
-269.648
-253.308
-235.149
-215.149
-193.299
-169.59
-144.062
-116.776
-87.8013
-57.2728
-25.3751
7.65858
41.2426
75.7651
110.673
145.502
179.813
213.224
245.283
275.572
303.662
329.138
351.651
370.876
386.518
398.355
406.215
409.971
409.545
404.913
396.184
383.46
366.929
346.86
323.526
297.25
268.426
237.448
204.734
170.701
135.772
100.375
64.9299
29.9067
-3.54941
-36.6472
-68.8133
-99.7365
-129.152
-156.91
-182.893
-207.018
-229.243
-249.543
-267.914
-284.373
-298.935
-311.632
-322.486
-331.532
-338.809
-344.344
-348.171
-350.321
-350.854
-349.828
-347.285
-343.259
-337.792
-330.921
-322.669
-313.042
-302.043
-289.657
-275.858
-260.612
-243.879
-225.626
-205.825
-184.46
-161.534
-137.068
-111.109
-83.7331
-55.039
-25.1438
5.84939
37.5427
69.7538
102.235
134.69
166.79
198.181
228.488
257.321
284.279
308.961
330.971
349.932
365.496
377.354
385.25
388.988
388.439
383.572
374.434
361.121
343.828
322.814
298.405
270.976
240.945
208.763
174.899
139.836
104.054
68.0196
32.1802
-3.04861
-37.3039
-70.2653
-101.662
-131.285
-158.979
-184.643
-208.228
-229.725
-249.16
-266.586
-282.072
-295.704
-307.567
-317.752
-326.347
-333.438
-339.104
-343.417
-346.443
-348.226
-348.812
-348.234
-346.51
-343.647
-339.633
-334.455
-328.083
-320.48
-311.605
-301.408
-289.847
-276.879
-262.462
-246.558
-229.13
-210.146
-189.583
-167.43
-143.696
-118.412
-91.6375
-63.4684
-34.0243
-3.36247
28.076
60.1362
92.5148
124.868
156.816
187.946
217.827
246.009
272.039
295.482
315.923
332.993
346.367
355.773
361.007
361.932
358.502
350.772
338.842
322.915
303.268
280.24
254.222
225.649
194.981
162.69
129.259
95.1594
60.8484
26.7581
-6.71975
-39.2611
-70.5853
-100.465
-128.731
-155.265
-179.993
-202.877