/*--------------------------------*- C++ -*----------------------------------*\
| =========                 |                                                 |
| \\      /  F ield         | OpenFOAM: The Open Source CFD Toolbox           |
|  \\    /   O peration     | Version:  3.0.1                                 |
|   \\  /    A nd           | Web:      www.OpenFOAM.org                      |
|    \\/     M anipulation  |                                                 |
\*---------------------------------------------------------------------------*/
FoamFile
{
    version     2.0;
    format      ascii;
    class       surfaceScalarField;
    location    "23";
    object      phi;
}
// * * * * * * * * * * * * * * * * * * * * * * * * * * * * * * * * * * * * * //

dimensions      [0 3 -1 0 0 0 0];

internalField   nonuniform List<scalar> 
44922
(
0.000112279
-1.09001e-05
0.000122245
-9.96684e-06
0.000131182
-8.93655e-06
0.000139074
-7.89168e-06
0.000145911
-6.83705e-06
0.000151715
-5.80457e-06
0.000156514
-4.7991e-06
0.000160343
-3.82913e-06
0.000163257
-2.91408e-06
0.000165297
-2.03996e-06
0.000166499
-1.20154e-06
0.000166905
-4.06596e-07
0.000166592
3.13111e-07
0.000165551
1.04087e-06
0.000163789
1.76247e-06
0.000161303
2.48556e-06
0.000158167
3.13663e-06
0.000154334
3.83303e-06
0.000149839
4.49503e-06
0.000144647
5.19151e-06
0.000138795
5.85185e-06
0.000132208
6.58754e-06
0.000124989
7.21828e-06
0.000117062
7.92738e-06
0.00010857
8.492e-06
9.94773e-05
9.09249e-06
8.99212e-05
9.55608e-06
7.99267e-05
9.99452e-06
6.96443e-05
1.02824e-05
5.90878e-05
1.05565e-05
4.84072e-05
1.06806e-05
3.76383e-05
1.07689e-05
2.69292e-05
1.07091e-05
1.63085e-05
1.06207e-05
5.8666e-06
1.04419e-05
-4.30209e-06
1.01687e-05
-1.41225e-05
9.82044e-06
-2.34825e-05
9.35996e-06
-3.23206e-05
8.83811e-06
-4.05409e-05
8.2203e-06
-4.81035e-05
7.56254e-06
-5.49595e-05
6.85601e-06
-6.11029e-05
6.1434e-06
-6.65395e-05
5.43664e-06
-7.13e-05
4.76043e-06
-7.54266e-05
4.12667e-06
-7.8973e-05
3.54642e-06
-8.19943e-05
3.0213e-06
-8.45437e-05
2.54941e-06
-8.66695e-05
2.12579e-06
-8.8413e-05
1.74346e-06
-8.98068e-05
1.39377e-06
-9.08718e-05
1.06501e-06
-9.16224e-05
7.50673e-07
-9.20687e-05
4.46297e-07
-9.22081e-05
1.39376e-07
-9.20525e-05
-1.55579e-07
-9.15846e-05
-4.6791e-07
-9.07618e-05
-8.2282e-07
-8.95824e-05
-1.17944e-06
-8.79852e-05
-1.59713e-06
-8.59953e-05
-1.98996e-06
-8.35588e-05
-2.43649e-06
-8.07153e-05
-2.84343e-06
-7.74241e-05
-3.29128e-06
-7.37563e-05
-3.66773e-06
-6.96725e-05
-4.08381e-06
-6.52626e-05
-4.40991e-06
-6.04992e-05
-4.76339e-06
-5.54609e-05
-5.03834e-06
-5.01704e-05
-5.29053e-06
-4.45916e-05
-5.57881e-06
-3.87888e-05
-5.8028e-06
-3.27285e-05
-6.06031e-06
-2.64662e-05
-6.26225e-06
-1.99667e-05
-6.49946e-06
-1.32894e-05
-6.67737e-06
-6.41455e-06
-6.87484e-06
5.92404e-07
-7.00696e-06
7.75856e-06
-7.16616e-06
1.50405e-05
-7.28196e-06
2.24408e-05
-7.40028e-06
2.99091e-05
-7.4683e-06
3.7434e-05
-7.52492e-06
4.49442e-05
-7.51017e-06
5.24215e-05
-7.47729e-06
5.97719e-05
-7.35048e-06
6.69516e-05
-7.17963e-06
7.38881e-05
-6.93659e-06
8.04905e-05
-6.60235e-06
8.67172e-05
-6.22671e-06
9.2477e-05
-5.7598e-06
9.77307e-05
-5.25376e-06
0.000102398
-4.66687e-06
0.000106445
-4.04722e-06
0.000109813
-3.36846e-06
0.000112475
-2.66171e-06
0.000114383
-1.90773e-06
0.000115538
-1.15497e-06
0.000115897
-3.59241e-07
0.000115514
3.8249e-07
0.0001143
1.21463e-06
0.000112357
1.943e-06
0.00010964
2.7167e-06
0.00010623
3.40959e-06
0.000102138
4.09284e-06
9.74303e-05
4.70724e-06
9.21069e-05
5.3234e-06
8.62456e-05
5.86128e-06
7.99354e-05
6.31023e-06
7.32135e-05
6.7219e-06
6.62249e-05
6.98859e-06
5.89321e-05
7.29277e-06
5.15242e-05
7.40786e-06
4.39651e-05
7.55918e-06
3.64553e-05
7.5098e-06
2.89259e-05
7.52937e-06
2.15582e-05
7.36764e-06
1.4296e-05
7.26219e-06
7.33729e-06
6.95874e-06
5.71339e-07
6.76595e-06
-5.80981e-06
6.38114e-06
-1.19999e-05
6.19005e-06
-1.77608e-05
5.76092e-06
-2.31521e-05
5.39126e-06
-2.81797e-05
5.02769e-06
-3.29519e-05
4.77211e-06
-3.73752e-05
4.42334e-06
-4.14606e-05
4.0854e-06
-4.52385e-05
3.7779e-06
-4.86867e-05
3.44823e-06
-5.18786e-05
3.19189e-06
-5.47863e-05
2.90769e-06
-5.74649e-05
2.67852e-06
-5.99036e-05
2.43874e-06
-6.21574e-05
2.25376e-06
-6.41951e-05
2.03776e-06
-6.60648e-05
1.86971e-06
-6.77481e-05
1.68323e-06
-6.92645e-05
1.51647e-06
-7.06246e-05
1.36009e-06
-7.17993e-05
1.1747e-06
-7.28076e-05
1.00832e-06
-7.36302e-05
8.22531e-07
-7.4245e-05
6.1486e-07
-7.46346e-05
3.89594e-07
-7.47865e-05
1.51847e-07
-7.46738e-05
-1.12615e-07
-7.42613e-05
-4.1256e-07
-7.3546e-05
-7.15246e-07
-7.24909e-05
-1.0551e-06
-7.10749e-05
-1.41604e-06
-6.92692e-05
-1.80571e-06
-6.70529e-05
-2.21628e-06
-6.4403e-05
-2.64992e-06
-6.13095e-05
-3.09347e-06
-5.77578e-05
-3.55169e-06
-5.37768e-05
-3.98099e-06
-4.93361e-05
-4.44072e-06
-4.44757e-05
-4.86042e-06
-3.91763e-05
-5.29942e-06
-3.34982e-05
-5.67812e-06
-2.74496e-05
-6.04856e-06
-2.10728e-05
-6.3768e-06
-1.44068e-05
-6.66597e-06
-7.47319e-06
-6.93366e-06
-3.20864e-07
-7.15232e-06
7.01318e-06
-7.33404e-06
1.44948e-05
-7.48165e-06
2.20565e-05
-7.56169e-06
2.96971e-05
-7.64055e-06
3.73359e-05
-7.63889e-06
4.49451e-05
-7.60919e-06
5.24582e-05
-7.51308e-06
5.98316e-05
-7.37339e-06
6.69734e-05
-7.14184e-06
7.38971e-05
-6.92372e-06
8.04313e-05
-6.53418e-06
8.66468e-05
-6.2155e-06
9.23022e-05
-5.65534e-06
9.74045e-05
-5.10233e-06
0.000101831
-4.42639e-06
0.00010573
-3.8991e-06
0.000108965
-3.23474e-06
0.000111558
-2.59318e-06
0.000113566
-2.00771e-06
0.000114896
-1.33074e-06
0.000115693
-7.97043e-07
0.000115856
-1.62856e-07
0.000115546
3.10556e-07
0.000114673
8.7262e-07
0.000113379
1.29399e-06
0.000111643
1.73555e-06
0.000109543
2.10039e-06
0.000107098
2.44466e-06
0.000104332
2.76667e-06
0.000101262
3.0693e-06
9.79167e-05
3.34569e-06
9.42761e-05
3.64066e-06
9.03716e-05
3.90448e-06
8.61412e-05
4.23038e-06
8.16664e-05
4.47481e-06
7.69353e-05
4.7311e-06
7.19427e-05
4.99257e-06
6.6766e-05
5.17672e-06
6.12806e-05
5.48535e-06
5.56291e-05
5.65155e-06
4.97059e-05
5.92316e-06
4.36922e-05
6.01368e-06
3.75046e-05
6.18755e-06
3.12826e-05
6.22207e-06
2.49032e-05
6.3794e-06
1.86744e-05
6.22879e-06
1.25413e-05
6.1331e-06
6.7257e-06
5.81555e-06
1.15516e-06
5.57053e-06
-3.74388e-06
4.89904e-06
-7.94635e-06
4.20247e-06
-1.14009e-05
3.45453e-06
-1.55892e-05
4.18834e-06
-2.28142e-05
7.22499e-06
-3.37893e-05
1.0975e-05
-4.44082e-05
1.0619e-05
-5.0838e-05
6.42975e-06
-4.90129e-06
-4.59367e-05
0.000112336
-2.18069e-05
0.000122308
-1.9939e-05
0.000131247
-1.78756e-05
0.00013914
-1.57843e-05
0.000145976
-1.36739e-05
0.00015178
-1.16083e-05
0.000156579
-9.59775e-06
0.000160409
-7.65936e-06
0.000163321
-5.82619e-06
0.000165358
-4.0768e-06
0.000166558
-2.40191e-06
0.000166964
-8.13032e-07
0.000166643
6.34611e-07
0.000165598
2.0856e-06
0.000163834
3.52617e-06
0.000161348
4.9714e-06
0.000158211
6.2737e-06
0.000154378
7.66634e-06
0.000149883
8.98967e-06
0.000144692
1.03831e-05
0.000138839
1.17047e-05
0.000132251
1.3175e-05
0.000125031
1.44381e-05
0.000117102
1.58569e-05
0.000108607
1.69871e-05
9.95099e-05
1.81895e-05
8.99503e-05
1.91156e-05
7.99491e-05
1.99958e-05
6.9661e-05
2.05705e-05
5.90994e-05
2.1118e-05
4.84117e-05
2.13683e-05
3.76394e-05
2.15411e-05
2.69249e-05
2.14236e-05
1.62991e-05
2.12466e-05
5.85205e-06
2.08889e-05
-4.31866e-06
2.03394e-05
-1.41424e-05
1.96442e-05
-2.35063e-05
1.87238e-05
-3.23484e-05
1.76802e-05
-4.05727e-05
1.64446e-05
-4.81386e-05
1.51283e-05
-5.49964e-05
1.37139e-05
-6.1141e-05
1.2288e-05
-6.65774e-05
1.0873e-05
-7.13363e-05
9.51937e-06
-7.5461e-05
8.25134e-06
-7.90051e-05
7.09048e-06
-8.20238e-05
6.04002e-06
-8.45716e-05
5.09724e-06
-8.66961e-05
4.25022e-06
-8.84379e-05
3.48531e-06
-8.98302e-05
2.78606e-06
-9.0895e-05
2.12975e-06
-9.16463e-05
1.50198e-06
-9.20918e-05
8.91788e-07
-9.22304e-05
2.78071e-07
-9.20759e-05
-3.10173e-07
-9.16088e-05
-9.34913e-07
-9.07873e-05
-1.64432e-06
-8.96093e-05
-2.35752e-06
-8.80135e-05
-3.19288e-06
-8.60244e-05
-3.97908e-06
-8.35881e-05
-4.87284e-06
-8.07443e-05
-5.68724e-06
-7.74521e-05
-6.58343e-06
-7.37823e-05
-7.33753e-06
-6.96976e-05
-8.16855e-06
-6.52866e-05
-8.8209e-06
-6.05217e-05
-9.52826e-06
-5.54821e-05
-1.00779e-05
-5.01906e-05
-1.0582e-05
-4.46109e-05
-1.11586e-05
-3.88072e-05
-1.16065e-05
-3.27457e-05
-1.21217e-05
-2.64821e-05
-1.25258e-05
-1.99825e-05
-1.29991e-05
-1.33036e-05
-1.33563e-05
-6.42772e-06
-1.37507e-05
5.80894e-07
-1.40156e-05
7.74929e-06
-1.43346e-05
1.50337e-05
-1.45663e-05
2.24367e-05
-1.48033e-05
2.99079e-05
-1.49395e-05
3.74368e-05
-1.50539e-05
4.49508e-05
-1.50242e-05
5.24318e-05
-1.49582e-05
5.97861e-05
-1.47049e-05
6.69707e-05
-1.43643e-05
7.39124e-05
-1.38782e-05
8.052e-05
-1.321e-05
8.67503e-05
-1.24571e-05
9.25134e-05
-1.15229e-05
9.7771e-05
-1.05114e-05
0.000102442
-9.3376e-06
0.000106492
-8.09701e-06
0.000109862
-6.73887e-06
0.000112526
-5.32598e-06
0.000114435
-3.81702e-06
0.00011559
-2.30954e-06
0.00011595
-7.19076e-07
0.00011556
7.72218e-07
0.000114347
2.42751e-06
0.000112403
3.88696e-06
0.000109687
5.43313e-06
0.000106275
6.82094e-06
0.000102177
8.19149e-06
9.74643e-05
9.41964e-06
9.2136e-05
1.06517e-05
8.62717e-05
1.17256e-05
7.99587e-05
1.26232e-05
7.32331e-05
1.34475e-05
6.62435e-05
1.39782e-05
5.89456e-05
1.45907e-05
5.1536e-05
1.48174e-05
4.3971e-05
1.51242e-05
3.64586e-05
1.50222e-05
2.89219e-05
1.50661e-05
2.15528e-05
1.47367e-05
1.42839e-05
1.4531e-05
7.32265e-06
1.392e-05
5.52277e-07
1.35363e-05
-5.82607e-06
1.27595e-05
-1.20223e-05
1.23863e-05
-1.77813e-05
1.15199e-05
-2.31693e-05
1.07793e-05
-2.81972e-05
1.00555e-05
-3.29729e-05
9.54775e-06
-3.73961e-05
8.84654e-06
-4.14805e-05
8.16988e-06
-4.52583e-05
7.55565e-06
-4.87047e-05
6.89462e-06
-5.1895e-05
6.38218e-06
-5.48011e-05
5.81384e-06
-5.74781e-05
5.35545e-06
-5.99164e-05
4.87709e-06
-6.2171e-05
4.50834e-06
-6.42062e-05
4.073e-06
-6.60777e-05
3.74116e-06
-6.77622e-05
3.36777e-06
-6.92828e-05
3.037e-06
-7.06402e-05
2.71753e-06
-7.18146e-05
2.34914e-06
-7.28266e-05
2.02026e-06
-7.36462e-05
1.64213e-06
-7.42615e-05
1.23015e-06
-7.46512e-05
7.79286e-07
-7.48022e-05
3.02896e-07
-7.46911e-05
-2.23732e-07
-7.4282e-05
-8.21696e-07
-7.35691e-05
-1.42811e-06
-7.25156e-05
-2.10864e-06
-7.10984e-05
-2.83317e-06
-6.9295e-05
-3.6091e-06
-6.70774e-05
-4.43387e-06
-6.44271e-05
-5.30031e-06
-6.1333e-05
-6.1875e-06
-5.77811e-05
-7.10365e-06
-5.38003e-05
-7.96173e-06
-4.93602e-05
-8.88086e-06
-4.44999e-05
-9.72066e-06
-3.9204e-05
-1.05954e-05
-3.35225e-05
-1.13596e-05
-2.7472e-05
-1.2099e-05
-2.10867e-05
-1.27621e-05
-1.44264e-05
-1.33263e-05
-7.48939e-06
-1.38707e-05
-3.34487e-07
-1.43072e-05
7.00305e-06
-1.46716e-05
1.44886e-05
-1.49672e-05
2.20521e-05
-1.51252e-05
2.96959e-05
-1.52844e-05
3.73377e-05
-1.52807e-05
4.49494e-05
-1.52209e-05
5.24651e-05
-1.50288e-05
5.98422e-05
-1.47505e-05
6.69852e-05
-1.42848e-05
7.39128e-05
-1.38513e-05
8.04469e-05
-1.30683e-05
8.6669e-05
-1.24376e-05
9.23267e-05
-1.13131e-05
9.74309e-05
-1.02066e-05
0.000101856
-8.8516e-06
0.000105757
-7.79968e-06
0.000108995
-6.47297e-06
0.000111592
-5.19015e-06
0.000113593
-4.00916e-06
0.000114922
-2.65958e-06
0.000115719
-1.59386e-06
0.000115877
-3.21437e-07
0.000115564
6.23861e-07
0.00011469
1.74684e-06
0.0001134
2.58415e-06
0.000111668
3.46766e-06
0.000109569
4.19931e-06
0.000107122
4.89147e-06
0.000104352
5.53662e-06
0.000101281
6.14021e-06
9.79378e-05
6.68885e-06
9.42954e-05
7.28308e-06
9.03903e-05
7.80958e-06
8.61568e-05
8.4639e-06
8.16803e-05
8.95129e-06
7.69488e-05
9.46254e-06
7.19547e-05
9.98671e-06
6.67783e-05
1.03531e-05
6.1293e-05
1.09706e-05
5.56444e-05
1.13002e-05
4.97178e-05
1.18498e-05
4.37061e-05
1.20253e-05
3.75152e-05
1.23784e-05
3.12905e-05
1.24467e-05
2.49047e-05
1.27652e-05
1.86775e-05
1.2456e-05
1.25404e-05
1.22702e-05
6.72473e-06
1.16312e-05
1.16432e-06
1.11309e-05
-3.79947e-06
9.86281e-06
-8.25808e-06
8.66107e-06
-1.17513e-05
6.94772e-06
-1.44169e-05
6.85396e-06
-1.80367e-05
1.08448e-05
-2.32542e-05
1.61925e-05
-2.81929e-05
1.55577e-05
-2.94026e-05
7.63935e-06
-1.01661e-05
-2.41378e-05
0.000112451
-3.27276e-05
0.000122433
-2.99216e-05
0.000131378
-2.68208e-05
0.000139275
-2.3681e-05
0.000146112
-2.05112e-05
0.000151915
-1.74112e-05
0.000156711
-1.43932e-05
0.000160538
-1.14864e-05
0.000163448
-8.73676e-06
0.000165482
-6.11051e-06
0.000166678
-3.59812e-06
0.00016708
-1.21472e-06
0.000166736
9.78475e-07
0.000165678
3.14285e-06
0.000163912
5.2926e-06
0.000161425
7.45792e-06
0.000158287
9.4116e-06
0.000154454
1.15001e-05
0.00014996
1.34832e-05
0.000144769
1.55746e-05
0.000138914
1.75592e-05
0.000132327
1.97618e-05
0.000125105
2.16605e-05
0.000117171
2.37901e-05
0.000108671
2.54877e-05
9.95651e-05
2.72951e-05
8.99995e-05
2.86812e-05
7.99857e-05
3.00095e-05
6.96869e-05
3.08693e-05
5.91163e-05
3.16886e-05
4.8415e-05
3.20696e-05
3.76372e-05
3.23189e-05
2.69129e-05
3.21479e-05
1.62778e-05
3.18816e-05
5.82144e-06
3.13453e-05
-4.35661e-06
3.05174e-05
-1.41882e-05
2.94757e-05
-2.35602e-05
2.80959e-05
-3.24096e-05
2.65296e-05
-4.06398e-05
2.46748e-05
-4.82096e-05
2.26982e-05
-5.50697e-05
2.0574e-05
-6.12144e-05
1.84327e-05
-6.66489e-05
1.63076e-05
-7.14047e-05
1.42752e-05
-7.55251e-05
1.23717e-05
-7.90646e-05
1.063e-05
-8.20785e-05
9.05388e-06
-8.46222e-05
7.64093e-06
-8.6743e-05
6.37103e-06
-8.84827e-05
5.22504e-06
-8.9874e-05
4.1774e-06
-9.09387e-05
3.19442e-06
-9.16904e-05
2.25365e-06
-9.21344e-05
1.33577e-06
-9.22697e-05
4.13438e-07
-9.21141e-05
-4.65759e-07
-9.16486e-05
-1.40041e-06
-9.08294e-05
-2.46359e-06
-8.96537e-05
-3.53321e-06
-8.80601e-05
-4.78642e-06
-8.60723e-05
-5.9669e-06
-8.36357e-05
-7.30945e-06
-8.07908e-05
-8.53214e-06
-7.74956e-05
-9.87864e-06
-7.38196e-05
-1.10135e-05
-6.97335e-05
-1.22547e-05
-6.53209e-05
-1.32335e-05
-6.05543e-05
-1.42949e-05
-5.55129e-05
-1.51194e-05
-5.02195e-05
-1.58754e-05
-4.46382e-05
-1.67399e-05
-3.88331e-05
-1.74116e-05
-3.27703e-05
-1.81845e-05
-2.65056e-05
-1.87905e-05
-2.00049e-05
-1.94998e-05
-1.33237e-05
-2.00375e-05
-6.44593e-06
-2.06285e-05
5.65352e-07
-2.10269e-05
7.73715e-06
-2.15064e-05
1.50249e-05
-2.18541e-05
2.24318e-05
-2.22103e-05
2.99063e-05
-2.2414e-05
3.74401e-05
-2.25877e-05
4.49596e-05
-2.25438e-05
5.24473e-05
-2.24459e-05
5.98087e-05
-2.20662e-05
6.70015e-05
-2.15571e-05
7.39508e-05
-2.08275e-05
8.05664e-05
-1.98256e-05
8.68043e-05
-1.8695e-05
9.25752e-05
-1.72938e-05
9.78414e-05
-1.57776e-05
0.000102519
-1.40152e-05
0.000106575
-1.21533e-05
0.000109953
-1.01168e-05
0.000112624
-7.9973e-06
0.000114538
-5.73038e-06
0.000115694
-3.46529e-06
0.000116052
-1.07722e-06
0.000115649
1.17529e-06
0.000114436
3.64026e-06
0.000112493
5.83012e-06
0.000109781
8.14515e-06
0.000106365
1.02361e-05
0.000102257
1.23004e-05
9.75304e-05
1.41457e-05
9.21907e-05
1.59914e-05
8.63194e-05
1.75968e-05
8.00002e-05
1.89424e-05
7.32686e-05
2.01792e-05
6.62762e-05
2.09705e-05
5.89676e-05
2.18992e-05
5.15543e-05
2.22307e-05
4.39766e-05
2.27019e-05
3.64578e-05
2.2541e-05
2.89054e-05
2.26184e-05
2.1533e-05
2.21092e-05
1.42479e-05
2.18161e-05
7.28037e-06
2.08875e-05
5.0145e-07
2.03152e-05
-5.86771e-06
1.91286e-05
-1.20683e-05
1.85869e-05
-1.78203e-05
1.72719e-05
-2.32097e-05
1.61687e-05
-2.82389e-05
1.50848e-05
-3.30192e-05
1.4328e-05
-3.74423e-05
1.32696e-05
-4.15236e-05
1.22512e-05
-4.52996e-05
1.13317e-05
-4.87411e-05
1.03361e-05
-5.19256e-05
9.56666e-06
-5.48316e-05
8.71977e-06
-5.75069e-05
8.03078e-06
-5.99395e-05
7.30965e-06
-6.21964e-05
6.76525e-06
-6.42295e-05
6.1061e-06
-6.61032e-05
5.6149e-06
-6.77873e-05
5.05181e-06
-6.93122e-05
4.56193e-06
-7.06668e-05
4.07213e-06
-7.18414e-05
3.52373e-06
-7.28579e-05
3.03677e-06
-7.36747e-05
2.45891e-06
-7.42901e-05
1.84561e-06
-7.46806e-05
1.16972e-06
-7.4831e-05
4.53392e-07
-7.47224e-05
-3.32423e-07
-7.43183e-05
-1.22575e-06
-7.36117e-05
-2.13472e-06
-7.25644e-05
-3.15597e-06
-7.1145e-05
-4.25251e-06
-6.93444e-05
-5.4097e-06
-6.71246e-05
-6.65371e-06
-6.44737e-05
-7.9512e-06
-6.13804e-05
-9.2808e-06
-5.783e-05
-1.0654e-05
-5.385e-05
-1.19417e-05
-4.9412e-05
-1.33189e-05
-4.45536e-05
-1.4579e-05
-3.92644e-05
-1.58846e-05
-3.35761e-05
-1.70479e-05
-2.75236e-05
-1.81515e-05
-2.11297e-05
-1.9156e-05
-1.44716e-05
-1.99845e-05
-7.52774e-06
-2.08145e-05
-3.66532e-07
-2.14684e-05
6.97743e-06
-2.20156e-05
1.44737e-05
-2.24635e-05
2.20388e-05
-2.26902e-05
2.96884e-05
-2.2934e-05
3.73361e-05
-2.29284e-05
4.4956e-05
-2.28408e-05
5.24808e-05
-2.25536e-05
5.98644e-05
-2.21341e-05
6.70087e-05
-2.14292e-05
7.39453e-05
-2.07879e-05
8.04815e-05
-1.96045e-05
8.67166e-05
-1.86727e-05
9.23841e-05
-1.69805e-05
9.74897e-05
-1.53122e-05
0.000101915
-1.32769e-05
0.000105822
-1.17065e-05
0.000109063
-9.71382e-06
0.000111664
-7.79129e-06
0.000113659
-6.00478e-06
0.000114985
-3.98501e-06
0.00011578
-2.38904e-06
0.000115931
-4.72136e-07
0.000115612
9.42622e-07
0.000114734
2.62429e-06
0.000113449
3.86981e-06
0.000111719
5.19722e-06
0.000109621
6.29702e-06
0.000107171
7.34235e-06
0.000104392
8.31476e-06
0.000101312
9.22089e-06
9.79669e-05
1.00336e-05
9.43234e-05
1.09265e-05
9.04174e-05
1.17156e-05
8.61779e-05
1.27033e-05
8.16963e-05
1.3433e-05
7.69605e-05
1.41983e-05
7.19626e-05
1.49845e-05
6.6777e-05
1.55388e-05
6.12976e-05
1.645e-05
5.56531e-05
1.69447e-05
4.97191e-05
1.77838e-05
4.37096e-05
1.80348e-05
3.75072e-05
1.85808e-05
3.12836e-05
1.86704e-05
2.48922e-05
1.91566e-05
1.86722e-05
1.8676e-05
1.2521e-05
1.84213e-05
6.69409e-06
1.74582e-05
1.10276e-06
1.67223e-05
-3.8218e-06
1.47874e-05
-8.20464e-06
1.30439e-05
-1.18278e-05
1.05709e-05
-1.47148e-05
9.74098e-06
-1.68044e-05
1.29343e-05
-1.80715e-05
1.74596e-05
-1.97524e-05
1.72386e-05
-2.07086e-05
8.59546e-06
-1.3246e-05
-1.76287e-05
0.000112619
-4.36646e-05
0.000122615
-3.99181e-05
0.000131567
-3.57724e-05
0.000139466
-3.15805e-05
0.000146303
-2.73476e-05
0.000152102
-2.32108e-05
0.000156892
-1.91831e-05
0.000160715
-1.53091e-05
0.000163621
-1.16431e-05
0.000165648
-8.13749e-06
0.000166838
-4.78842e-06
0.000167231
-1.60771e-06
0.000166868
1.34168e-06
0.000165799
4.21144e-06
0.000164028
7.06343e-06
0.000161541
9.94539e-06
0.000158401
1.25509e-05
0.000154567
1.53346e-05
0.000150075
1.7975e-05
0.000144884
2.07658e-05
0.000139027
2.34163e-05
0.000132441
2.63475e-05
0.000125214
2.8887e-05
0.000117276
3.17287e-05
0.000108767
3.39967e-05
9.96478e-05
3.6414e-05
9.00728e-05
3.82562e-05
8.00409e-05
4.00414e-05
6.97256e-05
4.11846e-05
5.91414e-05
4.22728e-05
4.84244e-05
4.27865e-05
3.76347e-05
4.31086e-05
2.68949e-05
4.28877e-05
1.62461e-05
4.25304e-05
5.77539e-06
4.18159e-05
-4.41464e-06
4.07074e-05
-1.42586e-05
3.93197e-05
-2.36433e-05
3.74805e-05
-3.25037e-05
3.539e-05
-4.07428e-05
3.29139e-05
-4.83186e-05
3.0274e-05
-5.51817e-05
2.7437e-05
-6.13263e-05
2.45774e-05
-6.67575e-05
2.17387e-05
-7.15078e-05
1.90255e-05
-7.56212e-05
1.64851e-05
-7.91531e-05
1.41618e-05
-8.21591e-05
1.20599e-05
-8.46962e-05
1.01781e-05
-8.68115e-05
8.48631e-06
-8.8547e-05
6.96056e-06
-8.99355e-05
5.56586e-06
-9.09988e-05
4.25776e-06
-9.17502e-05
3.00502e-06
-9.21926e-05
1.77822e-06
-9.23264e-05
5.47185e-07
-9.21714e-05
-6.20753e-07
-9.17083e-05
-1.86351e-06
-9.08924e-05
-3.27949e-06
-8.97203e-05
-4.70532e-06
-8.81301e-05
-6.37664e-06
-8.61442e-05
-7.95277e-06
-8.37075e-05
-9.74618e-06
-8.08609e-05
-1.13787e-05
-7.75611e-05
-1.31785e-05
-7.38791e-05
-1.46955e-05
-6.97903e-05
-1.63435e-05
-6.5374e-05
-1.76498e-05
-6.06039e-05
-1.90649e-05
-5.55593e-05
-2.01639e-05
-5.02631e-05
-2.11717e-05
-4.46794e-05
-2.23235e-05
-3.88721e-05
-2.32189e-05
-3.28073e-05
-2.42494e-05
-2.65407e-05
-2.50571e-05
-2.00385e-05
-2.6002e-05
-1.3354e-05
-2.6722e-05
-6.47364e-06
-2.75089e-05
5.41074e-07
-2.80416e-05
7.71723e-06
-2.86825e-05
1.50094e-05
-2.91463e-05
2.24219e-05
-2.96227e-05
2.99015e-05
-2.98936e-05
3.74427e-05
-3.01289e-05
4.49706e-05
-3.00717e-05
5.24684e-05
-2.99436e-05
5.98403e-05
-2.94382e-05
6.70451e-05
-2.87619e-05
7.40063e-05
-2.77887e-05
8.06337e-05
-2.6453e-05
8.68837e-05
-2.4945e-05
9.26657e-05
-2.30758e-05
9.79435e-05
-2.10554e-05
0.000102631
-1.87027e-05
0.000106697
-1.62189e-05
0.000110084
-1.35047e-05
0.000112764
-1.06767e-05
0.000114681
-7.64771e-06
0.000115839
-4.62346e-06
0.000116196
-1.434e-06
0.000115781
1.59038e-06
0.00011457
4.85118e-06
0.000112625
7.77488e-06
0.000109911
1.08592e-05
0.000106492
1.36548e-05
0.000102377
1.64161e-05
9.76291e-05
1.88933e-05
9.22721e-05
2.13484e-05
8.63939e-05
2.34751e-05
8.00626e-05
2.52737e-05
7.33301e-05
2.69117e-05
6.63234e-05
2.79772e-05
5.89989e-05
2.92237e-05
5.15779e-05
2.96517e-05
4.399e-05
3.02899e-05
3.64534e-05
3.00776e-05
2.88803e-05
3.01915e-05
2.15048e-05
2.94847e-05
1.42006e-05
2.91203e-05
7.22778e-06
2.78603e-05
4.2582e-07
2.71172e-05
-5.92542e-06
2.54799e-05
-1.21304e-05
2.47919e-05
-1.78789e-05
2.30204e-05
-2.32849e-05
2.15747e-05
-2.83083e-05
2.01081e-05
-3.30899e-05
1.91096e-05
-3.75082e-05
1.7688e-05
-4.15804e-05
1.63233e-05
-4.53608e-05
1.51122e-05
-4.87949e-05
1.37702e-05
-5.19757e-05
1.27475e-05
-5.48752e-05
1.16192e-05
-5.75542e-05
1.07098e-05
-5.99778e-05
9.73323e-06
-6.22321e-05
9.01958e-06
-6.42642e-05
8.13811e-06
-6.61384e-05
7.48912e-06
-6.78229e-05
6.73629e-06
-6.93501e-05
6.08919e-06
-7.07042e-05
5.42626e-06
-7.18918e-05
4.71126e-06
-7.28986e-05
4.04357e-06
-7.3715e-05
3.27536e-06
-7.43308e-05
2.46137e-06
-7.47238e-05
1.56271e-06
-7.48779e-05
6.07519e-07
-7.47687e-05
-4.41608e-07
-7.43725e-05
-1.62201e-06
-7.36729e-05
-2.83424e-06
-7.26343e-05
-4.19464e-06
-7.12136e-05
-5.6732e-06
-6.94178e-05
-7.20552e-06
-6.71978e-05
-8.87364e-06
-6.45479e-05
-1.06012e-05
-6.1456e-05
-1.23727e-05
-5.79105e-05
-1.41996e-05
-5.39268e-05
-1.59254e-05
-4.94917e-05
-1.77539e-05
-4.46317e-05
-1.94391e-05
-3.93444e-05
-2.1172e-05
-3.36539e-05
-2.27384e-05
-2.75945e-05
-2.4211e-05
-2.11935e-05
-2.55569e-05
-1.45354e-05
-2.66426e-05
-7.58028e-06
-2.77696e-05
-4.11922e-07
-2.86368e-05
6.94175e-06
-2.93692e-05
1.44481e-05
-2.99699e-05
2.20194e-05
-3.02615e-05
2.96802e-05
-3.05948e-05
3.73287e-05
-3.05769e-05
4.4961e-05
-3.04732e-05
5.25002e-05
-3.00927e-05
5.98954e-05
-2.95293e-05
6.70481e-05
-2.85819e-05
7.39942e-05
-2.77341e-05
8.05359e-05
-2.61462e-05
8.67889e-05
-2.49257e-05
9.24739e-05
-2.26656e-05
9.75696e-05
-2.04079e-05
0.000101998
-1.77053e-05
0.000105926
-1.5634e-05
0.000109169
-1.29568e-05
0.000111771
-1.03936e-05
0.000113767
-8.00139e-06
0.000115081
-5.29846e-06
0.000115875
-3.18268e-06
0.000116017
-6.14494e-07
0.000115689
1.27014e-06
0.000114804
3.50939e-06
0.000113522
5.15184e-06
0.000111787
6.93203e-06
0.000109685
8.39911e-06
0.000107232
9.79594e-06
0.000104447
1.10991e-05
0.000101356
1.23123e-05
9.80024e-05
1.33872e-05
9.43678e-05
1.45611e-05
9.04652e-05
1.56183e-05
8.62117e-05
1.69568e-05
8.17277e-05
1.7917e-05
7.69875e-05
1.89386e-05
7.19812e-05
1.99908e-05
6.67906e-05
2.07294e-05
6.13104e-05
2.19302e-05
5.56774e-05
2.25777e-05
4.97372e-05
2.37239e-05
4.37159e-05
2.40561e-05
3.7493e-05
2.48037e-05
3.12725e-05
2.48908e-05
2.48831e-05
2.5546e-05
1.86675e-05
2.48916e-05
1.24792e-05
2.46096e-05
6.63137e-06
2.3306e-05
1.02994e-06
2.23237e-05
-3.95093e-06
1.97682e-05
-8.33702e-06
1.743e-05
-1.18072e-05
1.40411e-05
-1.45818e-05
1.25155e-05
-1.63068e-05
1.46594e-05
-1.66678e-05
1.78207e-05
-1.68401e-05
1.74108e-05
-1.78546e-05
9.6099e-06
-1.27388e-05
-1.83617e-05
0.00011284
-5.462e-05
0.000122849
-4.99273e-05
0.000131807
-4.473e-05
0.000139707
-3.94804e-05
0.000146539
-3.41804e-05
0.000152332
-2.90033e-05
0.000157112
-2.39634e-05
0.000160926
-1.91234e-05
0.000163823
-1.45395e-05
0.000165839
-1.0154e-05
0.000167022
-5.97149e-06
0.000167407
-1.99261e-06
0.000167035
1.7137e-06
0.00016596
5.28675e-06
0.000164183
8.83978e-06
0.000161695
1.2434e-05
0.000158553
1.56924e-05
0.000154717
1.91703e-05
0.000150229
2.24636e-05
0.000145039
2.5955e-05
0.000139176
2.92792e-05
0.000132593
3.29311e-05
0.000125361
3.61191e-05
0.000117415
3.96743e-05
0.000108895
4.25171e-05
9.97574e-05
4.55514e-05
9.01697e-05
4.78439e-05
8.01147e-05
5.00964e-05
6.97766e-05
5.15227e-05
5.91744e-05
5.2875e-05
4.84388e-05
5.3522e-05
3.76365e-05
5.39109e-05
2.68709e-05
5.36533e-05
1.62037e-05
5.31975e-05
5.71379e-06
5.23059e-05
-4.49356e-06
5.09148e-05
-1.43554e-05
4.91815e-05
-2.37576e-05
4.68828e-05
-3.26331e-05
4.42655e-05
-4.08844e-05
4.11651e-05
-4.84681e-05
3.78578e-05
-5.53345e-05
3.43033e-05
-6.14782e-05
3.0721e-05
-6.69038e-05
2.71643e-05
-7.1646e-05
2.37677e-05
-7.57491e-05
2.05883e-05
-7.92699e-05
1.76826e-05
-8.22651e-05
1.50552e-05
-8.47925e-05
1.27054e-05
-8.68997e-05
1.05935e-05
-8.86288e-05
8.68968e-06
-9.00126e-05
6.94962e-06
-9.10731e-05
5.3183e-06
-9.18231e-05
3.75506e-06
-9.22651e-05
2.22015e-06
-9.23999e-05
6.8202e-07
-9.22475e-05
-7.73196e-07
-9.17877e-05
-2.32324e-06
-9.09764e-05
-4.09085e-06
-8.98091e-05
-5.87261e-06
-8.82233e-05
-7.96239e-06
-8.62401e-05
-9.93594e-06
-8.38038e-05
-1.21825e-05
-8.09553e-05
-1.42272e-05
-7.76509e-05
-1.64829e-05
-7.39638e-05
-1.83826e-05
-6.98687e-05
-2.04385e-05
-6.54462e-05
-2.20723e-05
-6.06706e-05
-2.38406e-05
-5.56213e-05
-2.52132e-05
-5.03214e-05
-2.64716e-05
-4.47344e-05
-2.79105e-05
-3.89242e-05
-2.90291e-05
-3.28565e-05
-3.0317e-05
-2.65872e-05
-3.13264e-05
-2.00834e-05
-3.25058e-05
-1.33948e-05
-3.34107e-05
-6.51133e-06
-3.43924e-05
5.07518e-07
-3.50604e-05
7.68852e-06
-3.58635e-05
1.4986e-05
-3.64437e-05
2.24053e-05
-3.7042e-05
2.98917e-05
-3.738e-05
3.74429e-05
-3.76801e-05
4.49821e-05
-3.76109e-05
5.24933e-05
-3.74549e-05
5.98799e-05
-3.68248e-05
6.71005e-05
-3.59826e-05
7.40774e-05
-3.47656e-05
8.07205e-05
-3.30962e-05
8.69865e-05
-3.1211e-05
9.27832e-05
-2.88725e-05
9.8075e-05
-2.63472e-05
0.000102776
-2.34036e-05
0.000106851
-2.02944e-05
0.000110251
-1.69043e-05
0.000112938
-1.33638e-05
0.00011486
-9.56986e-06
0.000116016
-5.77884e-06
0.000116377
-1.79552e-06
0.000115958
2.00913e-06
0.000114747
6.06205e-06
0.000112798
9.72391e-06
0.000110074
1.35833e-05
0.00010665
1.70787e-05
0.000102533
2.05336e-05
9.77597e-05
2.36665e-05
9.23808e-05
2.67272e-05
8.64994e-05
2.93564e-05
8.01468e-05
3.16263e-05
7.34053e-05
3.36532e-05
6.63758e-05
3.50067e-05
5.90289e-05
3.65706e-05
5.15998e-05
3.70807e-05
4.40056e-05
3.78841e-05
3.64423e-05
3.76408e-05
2.88496e-05
3.77842e-05
2.14675e-05
3.68669e-05
1.41483e-05
3.64394e-05
7.17874e-06
3.48299e-05
3.52179e-07
3.39437e-05
-6.01186e-06
3.18439e-05
-1.22017e-05
3.09816e-05
-1.79536e-05
2.87723e-05
-2.33899e-05
2.7011e-05
-2.83995e-05
2.51177e-05
-3.31802e-05
2.38903e-05
-3.75917e-05
2.20995e-05
-4.16534e-05
2.03849e-05
-4.544e-05
1.88988e-05
-4.88643e-05
1.71945e-05
-5.20522e-05
1.59354e-05
-5.49333e-05
1.45004e-05
-5.76122e-05
1.33887e-05
-6.00375e-05
1.21585e-05
-6.22756e-05
1.12577e-05
-6.43093e-05
1.01718e-05
-6.61841e-05
9.36392e-06
-6.78688e-05
8.421e-06
-6.93951e-05
7.6155e-06
-7.07509e-05
6.78206e-06
-7.19445e-05
5.90482e-06
-7.2951e-05
5.05011e-06
-7.37585e-05
4.0828e-06
-7.43854e-05
3.08829e-06
-7.47843e-05
1.96162e-06
-7.49397e-05
7.62945e-07
-7.48338e-05
-5.47537e-07
-7.4452e-05
-2.00377e-06
-7.37552e-05
-3.53111e-06
-7.27248e-05
-5.22503e-06
-7.13073e-05
-7.09066e-06
-6.95161e-05
-8.99671e-06
-6.72962e-05
-1.10936e-05
-6.46555e-05
-1.32418e-05
-6.15637e-05
-1.54645e-05
-5.80262e-05
-1.77371e-05
-5.40318e-05
-1.99199e-05
-4.95998e-05
-2.21859e-05
-4.47302e-05
-2.43086e-05
-3.94422e-05
-2.646e-05
-3.3753e-05
-2.84276e-05
-2.76797e-05
-3.02843e-05
-2.12757e-05
-3.1961e-05
-1.46148e-05
-3.33035e-05
-7.6413e-06
-3.47432e-05
-4.66591e-07
-3.58115e-05
6.89953e-06
-3.67354e-05
1.44167e-05
-3.74871e-05
2.20011e-05
-3.78459e-05
2.96717e-05
-3.82654e-05
3.73168e-05
-3.82219e-05
4.49774e-05
-3.81339e-05
5.25207e-05
-3.7636e-05
5.9933e-05
-3.69415e-05
6.71004e-05
-3.57494e-05
7.40562e-05
-3.46899e-05
8.06135e-05
-3.27035e-05
8.68852e-05
-3.11973e-05
9.25885e-05
-2.8369e-05
9.76865e-05
-2.55058e-05
0.000102106
-2.21251e-05
0.00010607
-1.95976e-05
0.000109303
-1.61894e-05
0.000111908
-1.29995e-05
0.000113899
-9.9918e-06
0.000115207
-6.60708e-06
0.000116003
-3.9783e-06
0.000116124
-7.35024e-07
0.000115795
1.5985e-06
0.000114896
4.4085e-06
0.000113616
6.43153e-06
0.000111868
8.68072e-06
0.000109758
1.05089e-05
0.000107302
1.2252e-05
0.000104505
1.3896e-05
0.000101415
1.54024e-05
9.80419e-05
1.676e-05
9.44262e-05
1.81768e-05
9.05228e-05
1.95216e-05
8.62438e-05
2.12358e-05
8.17791e-05
2.23816e-05
7.70353e-05
2.36823e-05
7.2026e-05
2.50001e-05
6.68261e-05
2.59293e-05
6.13441e-05
2.74121e-05
5.5717e-05
2.82048e-05
4.97764e-05
2.96645e-05
4.37488e-05
3.00837e-05
3.74935e-05
3.1059e-05
3.1277e-05
3.11073e-05
2.48809e-05
3.19421e-05
1.86471e-05
3.11254e-05
1.23967e-05
3.086e-05
6.51952e-06
2.91832e-05
9.31411e-07
2.79118e-05
-4.06702e-06
2.47666e-05
-8.49916e-06
2.18621e-05
-1.19508e-05
1.74927e-05
-1.45894e-05
1.51541e-05
-1.60655e-05
1.61355e-05
-1.65858e-05
1.83409e-05
-1.71596e-05
1.79846e-05
-1.82083e-05
1.06586e-05
-1.19998e-05
-1.89473e-05
0.000113117
-6.55979e-05
0.00012314
-5.99502e-05
0.000132104
-5.36941e-05
0.000140003
-4.73799e-05
0.000146831
-4.10078e-05
0.000152614
-3.47862e-05
0.000157381
-2.8731e-05
0.000161184
-2.29264e-05
0.000164067
-1.74229e-05
0.000166069
-1.21558e-05
0.000167243
-7.14563e-06
0.000167619
-2.36797e-06
0.00016724
2.0922e-06
0.000166159
6.36781e-06
0.000164377
1.06221e-05
0.000161887
1.49233e-05
0.000158742
1.88378e-05
0.000154907
2.30055e-05
0.000150422
2.6948e-05
0.000145233
3.11439e-05
0.000139367
3.51457e-05
0.000132784
3.95133e-05
0.000125543
4.33601e-05
0.00011759
4.7628e-05
0.000109055
5.10516e-05
9.98957e-05
5.47109e-05
9.029e-05
5.74496e-05
8.02073e-05
6.01791e-05
6.9839e-05
6.1891e-05
5.92146e-05
6.34995e-05
4.84567e-05
6.42799e-05
3.76354e-05
6.47321e-05
2.6841e-05
6.44478e-05
1.61509e-05
6.38876e-05
5.63655e-06
6.28202e-05
-4.59304e-06
6.11444e-05
-1.44782e-05
5.90666e-05
-2.39029e-05
5.63075e-05
-3.27976e-05
5.31602e-05
-4.10646e-05
4.94321e-05
-4.8658e-05
4.54512e-05
-5.55282e-05
4.11735e-05
-6.16701e-05
3.68629e-05
-6.70879e-05
3.25821e-05
-7.1819e-05
2.84989e-05
-7.59087e-05
2.4678e-05
-7.9415e-05
2.11888e-05
-8.23964e-05
1.80366e-05
-8.49111e-05
1.52201e-05
-8.70077e-05
1.26901e-05
-8.87286e-05
1.04106e-05
-9.01063e-05
8.32733e-06
-9.11633e-05
6.37521e-06
-9.19117e-05
4.5035e-06
-9.23541e-05
2.66257e-06
-9.24914e-05
8.19335e-07
-9.23423e-05
-9.2233e-07
-9.18869e-05