/*--------------------------------*- C++ -*----------------------------------*\
| =========                 |                                                 |
| \\      /  F ield         | OpenFOAM: The Open Source CFD Toolbox           |
|  \\    /   O peration     | Version:  3.0.1                                 |
|   \\  /    A nd           | Web:      www.OpenFOAM.org                      |
|    \\/     M anipulation  |                                                 |
\*---------------------------------------------------------------------------*/
FoamFile
{
    version     2.0;
    format      ascii;
    class       surfaceScalarField;
    location    "20.6";
    object      phi;
}
// * * * * * * * * * * * * * * * * * * * * * * * * * * * * * * * * * * * * * //

dimensions      [0 3 -1 0 0 0 0];

internalField   nonuniform List<scalar> 
44922
(
0.000156571
6.65915e-06
0.000149251
7.32002e-06
0.000141182
8.06875e-06
0.000132476
8.70676e-06
0.000123061
9.41506e-06
0.000113078
9.983e-06
0.000102429
1.06486e-05
9.13029e-05
1.1126e-05
7.96174e-05
1.16855e-05
6.75345e-05
1.20828e-05
5.50796e-05
1.2455e-05
4.24578e-05
1.26218e-05
2.97495e-05
1.27082e-05
1.71302e-05
1.26194e-05
4.70749e-06
1.24227e-05
-7.37386e-06
1.20813e-05
-1.90024e-05
1.16285e-05
-3.01049e-05
1.11026e-05
-4.05953e-05
1.04904e-05
-5.04301e-05
9.83475e-06
-5.95613e-05
9.13118e-06
-6.79716e-05
8.41034e-06
-7.56482e-05
7.67661e-06
-8.25923e-05
6.94409e-06
-8.88094e-05
6.21713e-06
-9.43217e-05
5.51223e-06
-9.91403e-05
4.81868e-06
-0.000103288
4.14788e-06
-0.000106786
3.49808e-06
-0.000109652
2.86521e-06
-0.000111904
2.25223e-06
-0.00011356
1.65614e-06
-0.000114639
1.07951e-06
-0.000115169
5.29881e-07
-0.000115172
2.23766e-09
-0.000114674
-4.97846e-07
-0.000113689
-9.8441e-07
-0.000112233
-1.45627e-06
-0.000110323
-1.90999e-06
-0.000107971
-2.35236e-06
-0.000105196
-2.77498e-06
-0.000102001
-3.19493e-06
-9.8409e-05
-3.5918e-06
-9.44079e-05
-4.00101e-06
-9.00293e-05
-4.37867e-06
-8.52407e-05
-4.78861e-06
-8.00847e-05
-5.15601e-06
-7.45149e-05
-5.56971e-06
-6.85827e-05
-5.93225e-06
-6.22409e-05
-6.34184e-06
-5.55478e-05
-6.693e-06
-4.85327e-05
-7.01516e-06
-4.11581e-05
-7.37457e-06
-3.35338e-05
-7.62429e-06
-2.56323e-05
-7.90153e-06
-1.7582e-05
-8.05031e-06
-9.38176e-06
-8.20022e-06
-1.16488e-06
-8.21687e-06
7.04454e-06
-8.20942e-06
1.51282e-05
-8.08362e-06
2.30544e-05
-7.9262e-06
3.07294e-05
-7.67506e-06
3.81276e-05
-7.39814e-06
4.51786e-05
-7.051e-06
5.1866e-05
-6.68744e-06
5.81414e-05
-6.27536e-06
6.40021e-05
-5.86072e-06
6.94186e-05
-5.41652e-06
7.43939e-05
-4.97525e-06
7.89137e-05
-4.51983e-06
8.29665e-05
-4.05282e-06
8.65609e-05
-3.59439e-06
8.96843e-05
-3.12338e-06
9.23423e-05
-2.65801e-06
9.45201e-05
-2.17775e-06
9.62247e-05
-1.70461e-06
9.74383e-05
-1.21364e-06
9.81696e-05
-7.3125e-07
9.8412e-05
-2.42445e-07
9.81824e-05
2.29599e-07
9.74266e-05
7.55828e-07
9.6166e-05
1.26054e-06
9.43844e-05
1.78166e-06
9.21165e-05
2.26792e-06
8.93463e-05
2.7702e-06
8.61178e-05
3.22845e-06
8.24341e-05
3.68367e-06
7.8345e-05
4.08914e-06
7.38646e-05
4.48042e-06
6.90274e-05
4.83717e-06
6.39087e-05
5.11867e-06
5.85075e-05
5.40124e-06
5.29026e-05
5.60491e-06
4.71108e-05
5.79178e-06
4.11804e-05
5.93042e-06
3.51426e-05
6.03775e-06
2.9078e-05
6.06469e-06
2.29496e-05
6.12833e-06
1.68631e-05
6.0865e-06
1.07943e-05
6.06886e-06
4.85179e-06
5.94247e-06
-1.00501e-06
5.85679e-06
-6.65906e-06
5.65405e-06
-1.21298e-05
5.47074e-06
-1.73445e-05
5.21467e-06
-2.23106e-05
4.96617e-06
-2.69943e-05
4.68366e-06
-3.14146e-05
4.42026e-06
-3.55043e-05
4.0897e-06
-3.92814e-05
3.77718e-06
-4.27571e-05
3.47567e-06
-4.58904e-05
3.13329e-06
-4.87654e-05
2.87496e-06
-5.12768e-05
2.51139e-06
-5.3576e-05
2.29928e-06
-5.54899e-05
1.91382e-06
-5.72184e-05
1.72852e-06
-5.85818e-05
1.36346e-06
-5.97464e-05
1.16461e-06
-6.0492e-05
7.4552e-07
-6.10227e-05
5.30728e-07
-6.11102e-05
8.74918e-08
-6.10524e-05
-5.77922e-08
-6.05236e-05
-5.2875e-07
-5.96267e-05
-8.96951e-07
-5.83686e-05
-1.25809e-06
-5.68827e-05
-1.48591e-06
-5.50032e-05
-1.8795e-06
-5.2775e-05
-2.22816e-06
-5.0209e-05
-2.56605e-06
-4.72755e-05
-2.93343e-06
-4.40496e-05
-3.2259e-06
-4.05022e-05
-3.54742e-06
-3.66838e-05
-3.8184e-06
-3.2593e-05
-4.09078e-06
-2.82709e-05
-4.32215e-06
-2.37324e-05
-4.53845e-06
-1.89941e-05
-4.73831e-06
-1.40955e-05
-4.89863e-06
-9.03502e-06
-5.06047e-06
-3.81443e-06
-5.22059e-06
1.53235e-06
-5.34678e-06
7.03062e-06
-5.49827e-06
1.26646e-05
-5.63401e-06
1.84412e-05
-5.77659e-06
2.43624e-05
-5.9212e-06
3.04195e-05
-6.05704e-06
3.66075e-05
-6.18804e-06
4.29101e-05
-6.30258e-06
4.92982e-05
-6.38813e-06
5.57261e-05
-6.4279e-06
6.21603e-05
-6.43417e-06
6.85441e-05
-6.38378e-06
7.48342e-05
-6.29013e-06
8.09378e-05
-6.10354e-06
8.67955e-05
-5.85778e-06
9.23246e-05
-5.52903e-06
9.74387e-05
-5.11417e-06
0.000102073
-4.63462e-06
0.000106135
-4.06137e-06
0.000109582
-3.44706e-06
0.000112357
-2.77525e-06
0.000114393
-2.03569e-06
0.000115685
-1.29252e-06
0.000116218
-5.32504e-07
0.000116004
2.13751e-07
0.000115029
9.74767e-07
0.000113328
1.70089e-06
0.000110929
2.39928e-06
0.000107862
3.0669e-06
0.000104191
3.67078e-06
9.9903e-05
4.28834e-06
9.50923e-05
4.81068e-06
8.97528e-05
5.33946e-06
8.39494e-05
5.8034e-06
7.77463e-05
6.20308e-06
7.11534e-05
6.59289e-06
6.41624e-05
6.99098e-06
5.68911e-05
7.27135e-06
4.9182e-05
7.70907e-06
4.13517e-05
7.83028e-06
3.33183e-05
8.03344e-06
2.52575e-05
8.06078e-06
1.702e-05
8.23745e-06
8.84071e-06
8.17929e-06
6.43268e-07
8.19744e-06
-7.50753e-06
8.15079e-06
-1.55122e-05
8.00468e-06
-2.34445e-05
7.93233e-06
-3.11311e-05
7.68657e-06
-3.86738e-05
7.54266e-06
-4.58961e-05
7.22231e-06
-5.28686e-05
6.97249e-06
-5.95052e-05
6.63655e-06
-6.58213e-05
6.31611e-06
-7.17677e-05
5.94642e-06
-7.73185e-05
5.55085e-06
-8.24827e-05
5.16413e-06
-8.72644e-05
4.78172e-06
-9.16564e-05
4.39202e-06
-9.57162e-05
4.05972e-06
-9.92976e-05
3.5814e-06
-0.000102513
3.21525e-06
-0.000105322
2.80914e-06
-0.000107693
2.37095e-06
-0.000109768
2.075e-06
-0.000111391
1.62273e-06
-0.000112718
1.32766e-06
-0.000113571
8.5281e-07
-0.000114088
5.17036e-07
-0.000114147
5.92881e-08
-0.00011399
-1.57418e-07
-0.000113271
-7.18901e-07
-0.000112174
-1.09682e-06
-0.000110532
-1.64256e-06
-0.000108554
-1.97809e-06
-0.000105902
-2.65209e-06
-0.000102693
-3.20814e-06
-9.86244e-05
-4.069e-06
-9.47701e-05
-3.85438e-06
-9.31575e-05
-1.61259e-06
-9.3695e-05
5.37496e-07
-9.49402e-05
1.2452e-06
-9.46064e-05
-3.338e-07
-1.46396e-05
-7.99668e-05
0.000156614
1.33185e-05
0.000149294
1.46399e-05
0.000141225
1.61377e-05
0.000132518
1.74134e-05
0.000123102
1.88313e-05
0.000113116
1.99694e-05
0.000102466
2.12982e-05
9.13357e-05
2.22563e-05
7.9644e-05
2.33772e-05
6.75552e-05
2.41716e-05
5.50925e-05
2.49176e-05
4.2463e-05
2.52514e-05
2.97462e-05
2.54249e-05
1.71197e-05
2.52459e-05
4.6895e-06
2.48528e-05
-7.39721e-06
2.4168e-05
-1.90308e-05
2.32621e-05
-3.0138e-05
2.22098e-05
-4.06317e-05
2.0984e-05
-5.0469e-05
1.9672e-05
-5.96022e-05
1.82644e-05
-6.80136e-05
1.68217e-05
-7.56905e-05
1.53535e-05
-8.26342e-05
1.38878e-05
-8.88504e-05
1.24334e-05
-9.43614e-05
1.10233e-05
-9.91787e-05
9.63588e-06
-0.000103325
8.29412e-06
-0.000106822
6.99469e-06
-0.000109685
5.72918e-06
-0.000111936
4.50323e-06
-0.000113592
3.31173e-06
-0.000114672
2.15962e-06
-0.000115201
1.05889e-06
-0.000115203
4.40098e-09
-0.000114706
-9.95662e-07
-0.00011372
-1.96952e-06
-0.000112263
-2.91329e-06
-0.000110353
-3.8208e-06
-0.000107999
-4.7055e-06
-0.000105224
-5.55076e-06
-0.000102028
-6.3905e-06
-9.84357e-05
-7.18423e-06
-9.44341e-05
-8.00255e-06
-9.0055e-05
-8.75783e-06
-8.5266e-05
-9.57761e-06
-8.01096e-05
-1.03124e-05
-7.45394e-05
-1.11399e-05
-6.86066e-05
-1.1865e-05
-6.2264e-05
-1.26845e-05
-5.55699e-05
-1.33871e-05
-4.85531e-05
-1.4032e-05
-4.11764e-05
-1.47512e-05
-3.35494e-05
-1.52513e-05
-2.56446e-05
-1.58064e-05
-1.75904e-05
-1.61045e-05
-9.38591e-06
-1.64047e-05
-1.16452e-06
-1.64383e-05
7.04831e-06
-1.64222e-05
1.51365e-05
-1.61719e-05
2.30688e-05
-1.58584e-05
3.07493e-05
-1.53555e-05
3.81511e-05
-1.48e-05
4.52042e-05
-1.4104e-05
5.18932e-05
-1.33764e-05
5.81704e-05
-1.25526e-05
6.4033e-05
-1.17233e-05
6.94506e-05
-1.08342e-05
7.44271e-05
-9.95168e-06
7.89477e-05
-9.0405e-06
8.30016e-05
-8.10667e-06
8.65974e-05
-7.19017e-06
8.97212e-05
-6.24719e-06
9.23801e-05
-5.31688e-06
9.45579e-05
-4.35563e-06
9.62631e-05
-3.40973e-06
9.74774e-05
-2.42798e-06
9.82087e-05
-1.4625e-06
9.84495e-05
-4.83264e-07
9.82174e-05
4.61668e-07
9.74614e-05
1.51189e-06
9.62009e-05
2.52098e-06
9.44191e-05
3.56348e-06
9.21506e-05
4.53642e-06
8.93794e-05
5.54142e-06
8.61492e-05
6.45863e-06
8.24634e-05
7.36949e-06
7.8372e-05
8.18053e-06
7.38894e-05
8.963e-06
6.90493e-05
9.67732e-06
6.39282e-05
1.02398e-05
5.85243e-05
1.08051e-05
5.29167e-05
1.12125e-05
4.71219e-05
1.15866e-05
4.11893e-05
1.1863e-05
3.51473e-05
1.20797e-05
2.90793e-05
1.21328e-05
2.29495e-05
1.22581e-05
1.68567e-05
1.21793e-05
1.07887e-05
1.21369e-05
4.84013e-06
1.1891e-05
-1.01403e-06
1.1711e-05
-6.66612e-06
1.13061e-05
-1.21358e-05
1.09404e-05
-1.73531e-05
1.0432e-05
-2.23253e-05
9.93838e-06
-2.70115e-05
9.36983e-06
-3.1432e-05
8.84074e-06
-3.55204e-05
8.17814e-06
-3.92975e-05
7.5542e-06
-4.27737e-05
6.95194e-06
-4.59041e-05
6.26361e-06
-4.87816e-05
5.75252e-06
-5.12902e-05
5.01997e-06
-5.35918e-05
4.6009e-06
-5.55043e-05
3.82632e-06
-5.72338e-05
3.45797e-06
-5.85967e-05
2.72637e-06
-5.97647e-05
2.33261e-06
-6.05112e-05
1.49204e-06
-6.1043e-05
1.06255e-06
-6.1126e-05
1.70432e-07
-6.10738e-05
-1.09937e-07
-6.05421e-05
-1.06042e-06
-5.96429e-05
-1.79616e-06
-5.83856e-05
-2.51546e-06
-5.69039e-05
-2.96758e-06
-5.50252e-05
-3.75816e-06
-5.27954e-05
-4.45798e-06
-5.02301e-05
-5.1314e-06
-4.72955e-05
-5.86796e-06
-4.40675e-05
-6.45387e-06
-4.05199e-05
-7.09506e-06
-3.67014e-05
-7.63694e-06
-3.26005e-05
-8.1916e-06
-2.82895e-05
-8.63321e-06
-2.37387e-05
-9.08919e-06
-1.90112e-05
-9.46582e-06
-1.41072e-05
-9.80266e-06
-9.04643e-06
-1.01212e-05
-3.82695e-06
-1.04401e-05
1.52292e-06
-1.06967e-05
7.02269e-06
-1.0998e-05
1.26576e-05
-1.12689e-05
1.84347e-05
-1.15537e-05
2.4357e-05
-1.18435e-05
3.0416e-05
-1.21161e-05
3.66042e-05
-1.23762e-05
4.29073e-05
-1.26057e-05
4.9299e-05
-1.27798e-05
5.57313e-05
-1.28602e-05
6.21706e-05
-1.28735e-05
6.85585e-05
-1.27718e-05
7.4855e-05
-1.25866e-05
8.09635e-05
-1.22121e-05
8.68296e-05
-1.17238e-05
9.23573e-05
-1.10568e-05
9.74751e-05
-1.02319e-05
0.000102113
-9.27286e-06
0.000106177
-8.12485e-06
0.000109625
-6.89522e-06
0.000112402
-5.55265e-06
0.000114439
-4.07192e-06
0.000115731
-2.58516e-06
0.000116264
-1.06565e-06
0.00011605
4.27996e-07
0.000115072
1.95296e-06
0.000113371
3.40213e-06
0.000110969
4.80111e-06
0.000107899
6.13658e-06
0.000104226
7.34412e-06
9.99334e-05
8.58068e-06
9.5119e-05
9.625e-06
8.97751e-05
1.06834e-05
8.39669e-05
1.16116e-05
7.77568e-05
1.24132e-05
7.11664e-05
1.31832e-05
6.41715e-05
1.39859e-05
5.68941e-05
1.45488e-05
4.91821e-05
1.5421e-05
4.13487e-05
1.56636e-05
3.33137e-05
1.60685e-05
2.52522e-05
1.61223e-05
1.70101e-05
1.64795e-05
8.82844e-06
1.6361e-05
6.28054e-07
1.63978e-05
-7.52855e-06
1.63074e-05
-1.55325e-05
1.60086e-05
-2.34703e-05
1.58701e-05
-3.11532e-05
1.53695e-05
-3.86955e-05
1.5085e-05
-4.59128e-05
1.44396e-05
-5.28903e-05
1.395e-05
-5.95239e-05
1.32701e-05
-6.58468e-05
1.2639e-05
-7.17953e-05
1.18949e-05
-7.73462e-05
1.11018e-05
-8.2506e-05
1.03239e-05
-8.72932e-05
9.56891e-06
-9.16883e-05
8.78709e-06
-9.57499e-05
8.12129e-06
-9.93335e-05
7.16499e-06
-0.000102544
6.42615e-06
-0.000105356
5.62117e-06
-0.000107723
4.73716e-06
-0.0001098
4.15199e-06
-0.000111416
3.23953e-06
-0.000112747
2.65848e-06
-0.000113595
1.70056e-06
-0.000114114
1.03555e-06
-0.000114171
1.16379e-07
-0.000114017
-3.11431e-07
-0.000113292
-1.44384e-06
-0.000112193
-2.19539e-06
-0.000110549
-3.28649e-06
-0.000108575
-3.95215e-06
-0.000105934
-5.29329e-06
-0.000102839
-6.30309e-06
-9.89315e-05
-7.97649e-06
-9.42703e-05
-8.51555e-06
-8.89979e-05
-6.88505e-06
-8.34603e-05
-5.00008e-06
-7.82034e-05
-4.01171e-06
-7.17344e-05
-6.80277e-06
-3.12307e-05
-5.51433e-05
0.000156697
1.99807e-05
0.000149374
2.19625e-05
0.000141303
2.42092e-05
0.000132593
2.61229e-05
0.000123173
2.82513e-05
0.000113181
2.99619e-05
0.000102527
3.19514e-05
9.13916e-05
3.3392e-05
7.969e-05
3.50788e-05
6.75904e-05
3.62712e-05
5.51134e-05
3.73946e-05
4.24695e-05
3.78953e-05
2.97365e-05
3.81579e-05
1.70968e-05
3.78856e-05
4.65272e-06
3.72969e-05
-7.44808e-06
3.62688e-05
-1.90925e-05
3.49065e-05
-3.02088e-05
3.3326e-05
-4.07087e-05
3.1484e-05
-5.05509e-05
2.95142e-05
-5.96868e-05
2.74004e-05
-6.80991e-05
2.52339e-05
-7.57757e-05
2.30301e-05
-8.27178e-05
2.08299e-05
-8.89311e-05
1.86467e-05
-9.44385e-05
1.65306e-05
-9.92517e-05
1.44491e-05
-0.000103393
1.24359e-05
-0.000106886
1.04868e-05
-0.000109746
8.58908e-06
-0.000111993
6.75044e-06
-0.000113646
4.96529e-06
-0.000114728
3.24131e-06
-0.000115257
1.58782e-06
-0.000115259
6.67481e-09
-0.000114761
-1.4944e-06
-0.000113774
-2.95631e-06
-0.000112315
-4.37196e-06
-0.000110403
-5.7331e-06
-0.000108048
-7.05997e-06
-0.000105271
-8.32773e-06
-0.000102075
-9.58712e-06
-9.84814e-05
-1.07776e-05
-9.44791e-05
-1.20048e-05
-9.00993e-05
-1.31376e-05
-8.53097e-05
-1.43672e-05
-8.01529e-05
-1.54692e-05
-7.4582e-05
-1.67108e-05
-6.86485e-05
-1.77985e-05
-6.23045e-05
-1.90284e-05
-5.56086e-05
-2.00831e-05
-4.85889e-05
-2.10517e-05
-4.12082e-05
-2.21319e-05
-3.35763e-05
-2.28832e-05
-2.56651e-05
-2.37176e-05
-1.76037e-05
-2.41658e-05
-9.39132e-06
-2.46171e-05
-1.16153e-06
-2.4668e-05
7.06303e-06
-2.46468e-05
1.51621e-05
-2.42709e-05
2.31045e-05
-2.38008e-05
3.07932e-05
-2.30443e-05
3.82018e-05
-2.22086e-05
4.52596e-05
-2.11618e-05
5.19525e-05
-2.00693e-05
5.82326e-05
-1.88327e-05
6.4098e-05
-1.75886e-05
6.95183e-05
-1.62545e-05
7.44971e-05
-1.49305e-05
7.90203e-05
-1.35637e-05
8.30762e-05
-1.21626e-05
8.66742e-05
-1.07881e-05
8.97995e-05
-9.37253e-06
9.24592e-05
-7.97652e-06
9.4637e-05
-6.53351e-06
9.63421e-05
-5.11475e-06
9.75544e-05
-3.64035e-06
9.82843e-05
-2.19233e-06
9.85206e-05
-7.19569e-07
9.8279e-05
7.03204e-07
9.75186e-05
2.27236e-06
9.62576e-05
3.78198e-06
9.44751e-05
5.34598e-06
9.22051e-05
6.80641e-06
8.94319e-05
8.31463e-06
8.6199e-05
9.69151e-06
8.25099e-05
1.10586e-05
7.84147e-05
1.22757e-05
7.39284e-05
1.34493e-05
6.9083e-05
1.45227e-05
6.39579e-05
1.53649e-05
5.85499e-05
1.62132e-05
5.29377e-05
1.68247e-05
4.71384e-05
1.73858e-05
4.12027e-05
1.77988e-05
3.51533e-05
1.81291e-05
2.90788e-05
1.82073e-05
2.29486e-05
1.83883e-05
1.68432e-05
1.82847e-05
1.07795e-05
1.82006e-05
4.81908e-06
1.78514e-05
-1.02889e-06
1.75589e-05
-6.67807e-06
1.69553e-05
-1.21463e-05
1.64086e-05
-1.73656e-05
1.56513e-05
-2.23491e-05
1.49218e-05
-2.70432e-05
1.4064e-05
-3.14668e-05
1.32643e-05
-3.55517e-05
1.22631e-05
-3.93283e-05
1.13308e-05
-4.28051e-05
1.04287e-05
-4.59307e-05
9.3892e-06
-4.88149e-05
8.63675e-06
-5.1319e-05
7.52399e-06
-5.36254e-05
6.90737e-06
-5.5537e-05
5.73792e-06
-5.72687e-05
5.18963e-06
-5.86319e-05
4.08954e-06
-5.98064e-05
3.50711e-06
-6.05591e-05
2.24479e-06
-6.10931e-05
1.59648e-06
-6.11644e-05
2.41762e-07
-6.11139e-05
-1.6044e-07
-6.05716e-05
-1.60273e-06
-5.96805e-05
-2.68724e-06
-5.84278e-05
-3.76813e-06
-5.69482e-05
-4.44719e-06
-5.5073e-05
-5.63338e-06
-5.28397e-05
-6.69123e-06
-5.02745e-05
-7.69658e-06
-4.73375e-05
-8.80503e-06
-4.41049e-05
-9.68641e-06
-4.05567e-05
-1.06433e-05
-3.6738e-05
-1.14556e-05
-3.26273e-05
-1.23024e-05
-2.83238e-05
-1.29366e-05
-2.37591e-05
-1.36539e-05
-1.90477e-05
-1.41772e-05
-1.41308e-05
-1.47196e-05
-9.06862e-06
-1.51834e-05
-3.85124e-06
-1.56574e-05
1.50341e-06
-1.60513e-05
7.0043e-06
-1.64989e-05
1.26398e-05
-1.69044e-05
1.8419e-05
-1.73328e-05
2.43442e-05
-1.77687e-05
3.04067e-05
-1.81786e-05
3.65958e-05
-1.85653e-05
4.28981e-05
-1.8908e-05
4.92916e-05
-1.91733e-05
5.57317e-05
-1.93003e-05
6.21839e-05
-1.93257e-05
6.85824e-05
-1.91702e-05
7.48895e-05
-1.88937e-05
8.10048e-05
-1.83274e-05
8.68776e-05
-1.75966e-05
9.24083e-05
-1.65875e-05
9.75318e-05
-1.53555e-05
0.000102174
-1.39147e-05
0.000106241
-1.21926e-05
0.000109693
-1.0347e-05
0.000112475
-8.33499e-06
0.000114511
-6.10752e-06
0.000115806
-3.8804e-06
0.000116341
-1.60056e-06
0.000116128
6.40709e-07
0.000115143
2.93812e-06
0.000113441
5.10405e-06
0.000111036
7.20663e-06
0.000107962
9.21021e-06
0.000104287
1.10194e-05
9.99908e-05
1.28767e-05
9.51727e-05
1.44431e-05
8.98206e-05
1.60354e-05
8.40038e-05
1.74284e-05
7.77908e-05
1.86262e-05
7.11989e-05
1.9775e-05
6.41993e-05
2.09855e-05
5.69169e-05
2.18311e-05
4.91962e-05
2.31417e-05
4.1355e-05
2.35048e-05
3.33232e-05
2.41002e-05
2.52616e-05
2.41839e-05
1.70091e-05
2.4732e-05
8.82323e-06
2.45468e-05
6.17635e-07
2.46034e-05
-7.55127e-06
2.44763e-05
-1.55529e-05
2.40102e-05
-2.34995e-05
2.38167e-05
-3.11753e-05
2.30453e-05
-3.87208e-05
2.26304e-05
-4.5931e-05
2.16498e-05
-5.29164e-05
2.09354e-05
-5.95569e-05
1.99106e-05
-6.58825e-05
1.89646e-05
-7.18396e-05
1.78519e-05
-7.73962e-05
1.66585e-05
-8.25429e-05
1.54707e-05
-8.73408e-05
1.43667e-05
-9.17429e-05
1.31892e-05
-9.58105e-05
1.21888e-05
-9.93981e-05
1.07526e-05
-0.000102606
9.63417e-06
-0.000105424
8.43946e-06
-0.000107783
7.09596e-06
-0.000109867
6.23536e-06
-0.00011147
4.84301e-06
-0.00011281
3.99836e-06
-0.000113651
2.54188e-06
-0.000114178
1.56209e-06
-0.000114223
1.61032e-07
-0.000114061
-4.73257e-07
-0.000113321
-2.18309e-06
-0.000112233
-3.28376e-06
-0.000110596
-4.92316e-06
-0.000108632
-5.91706e-06
-0.000105971
-7.95385e-06
-0.000102794
-9.48049e-06
-9.89098e-05
-1.18602e-05
-9.45928e-05
-1.28325e-05
-8.94306e-05
-1.20473e-05
-8.28475e-05
-1.15832e-05
-7.42845e-05
-1.25747e-05
-6.36112e-05
-1.74761e-05
-4.61461e-05
-4.86957e-05
0.000156821
2.66473e-05
0.000149494
2.92889e-05
0.000141419
3.22846e-05
0.000132705
3.48364e-05
0.00012328
3.76766e-05
0.00011328
3.99619e-05
0.00010262
4.26112e-05
9.14752e-05
4.4537e-05
7.97591e-05
4.67949e-05
6.76425e-05
4.83878e-05
5.51448e-05
4.98922e-05
4.24809e-05
5.05592e-05
2.97209e-05
5.09179e-05
1.70624e-05
5.05441e-05
4.59731e-06
4.9762e-05
-7.52356e-06
4.83897e-05
-1.91839e-05
4.65669e-05
-3.03131e-05
4.44552e-05
-4.08223e-05
4.19931e-05
-5.06713e-05
3.93632e-05
-5.98114e-05
3.65404e-05
-6.82252e-05
3.36477e-05
-7.59014e-05
3.07063e-05
-8.28415e-05
2.777e-05
-8.90512e-05
2.48564e-05
-9.45541e-05
2.20335e-05
-9.93621e-05
1.92571e-05
-0.000103499
1.65723e-05
-0.000106985
1.39736e-05
-0.00010984
1.1444e-05
-0.000112083
8.99277e-06
-0.000113733
6.61563e-06
-0.000114816
4.32448e-06
-0.000115344
2.11619e-06
-0.000115344
6.58645e-09
-0.000114843
-1.99573e-06
-0.000113854
-3.94572e-06
-0.000112392
-5.83309e-06
-0.000110478
-7.64764e-06
-0.000108121
-9.41644e-06
-0.000105343
-1.11065e-05
-0.000102145
-1.27853e-05
-9.85499e-05
-1.43722e-05
-9.45465e-05
-1.60083e-05
-9.01657e-05
-1.75183e-05
-8.53753e-05
-1.91576e-05
-8.02178e-05
-2.06268e-05
-7.46459e-05
-2.22827e-05
-6.87113e-05
-2.37331e-05
-6.23654e-05
-2.53743e-05
-5.56666e-05
-2.67819e-05
-4.86426e-05
-2.80757e-05
-4.1256e-05
-2.95185e-05
-3.36166e-05
-3.05226e-05
-2.56959e-05
-3.16382e-05
-1.76238e-05
-3.22379e-05
-9.39943e-06
-3.28415e-05
-1.15709e-06
-3.29104e-05
7.08283e-06
-3.28867e-05
1.51958e-05
-3.23838e-05
2.31515e-05
-3.17566e-05
3.08513e-05
-3.07441e-05
3.82688e-05
-2.96261e-05
4.53331e-05
-2.82261e-05
5.20313e-05
-2.67675e-05
5.83157e-05
-2.51171e-05
6.41846e-05
-2.34575e-05
6.96079e-05
-2.16778e-05
7.45892e-05
-1.99118e-05
7.91149e-05
-1.80894e-05
8.31731e-05
-1.62207e-05
8.67735e-05
-1.43886e-05
8.99003e-05
-1.24993e-05
9.25612e-05
-1.06374e-05
9.47392e-05
-8.71149e-06
9.64446e-05
-6.82016e-06
9.76554e-05
-4.8511e-06
9.83844e-05
-2.9213e-06
9.86169e-05
-9.52102e-07
9.83682e-05
9.51856e-07
9.76043e-05
3.03629e-06
9.63425e-05
5.04379e-06
9.4559e-05
7.12949e-06
9.22867e-05
9.07866e-06
8.95106e-05
1.10908e-05
8.62736e-05
1.29285e-05
8.25797e-05
1.47525e-05
7.84785e-05
1.63769e-05
7.39866e-05
1.79413e-05
6.91336e-05
1.93757e-05
6.40023e-05
2.04962e-05
5.8588e-05
2.16274e-05
5.29691e-05
2.24436e-05
4.71628e-05
2.31921e-05
4.12226e-05
2.3739e-05
3.51623e-05
2.41894e-05
2.90737e-05
2.42958e-05
2.2947e-05
2.4515e-05
1.6827e-05
2.44047e-05
1.07659e-05
2.42617e-05
4.78995e-06
2.38274e-05
-1.05396e-06
2.34028e-05
-6.70256e-06
2.26039e-05
-1.21757e-05
2.18817e-05
-1.73953e-05
2.0871e-05
-2.23861e-05
1.99125e-05
-2.70931e-05
1.8771e-05
-3.15204e-05
1.76915e-05
-3.55974e-05
1.63401e-05
-3.938e-05
1.51134e-05
-4.2853e-05
1.39017e-05
-4.59733e-05
1.25096e-05
-4.88665e-05
1.15299e-05
-5.13636e-05
1.00211e-05
-5.36741e-05
9.21788e-06
-5.55863e-05
7.65007e-06
-5.73213e-05
6.92467e-06
-5.86816e-05
5.44983e-06
-5.98572e-05
4.68265e-06
-6.06175e-05
3.00513e-06
-6.11584e-05
2.13738e-06
-6.12319e-05
3.15293e-07
-6.1169e-05
-2.23334e-07
-6.0617e-05
-2.15476e-06
-5.97561e-05
-3.54809e-06
-5.85005e-05
-5.02375e-06
-5.70162e-05
-5.93147e-06
-5.51417e-05
-7.50796e-06
-5.29011e-05
-8.93181e-06
-5.03404e-05
-1.02573e-05
-4.7399e-05
-1.17464e-05
-4.41674e-05
-1.2918e-05
-4.06088e-05
-1.42019e-05
-3.67906e-05
-1.52738e-05
-3.26708e-05
-1.64221e-05
-2.83686e-05
-1.72389e-05
-2.37967e-05
-1.82258e-05
-1.90873e-05
-1.88866e-05
-1.41645e-05
-1.96424e-05
-9.09887e-06
-2.0249e-05
-3.88192e-06
-2.08744e-05
1.47551e-06
-2.14087e-05
6.97617e-06
-2.19996e-05
1.26137e-05
-2.2542e-05
1.83956e-05
-2.31147e-05
2.43229e-05
-2.3696e-05
3.0389e-05
-2.42447e-05
3.65802e-05
-2.47565e-05
4.28844e-05
-2.52122e-05
4.92812e-05
-2.55701e-05
5.57292e-05
-2.57484e-05
6.22009e-05
-2.57974e-05
6.86103e-05
-2.55797e-05
7.49216e-05
-2.5205e-05
8.10563e-05
-2.4462e-05
8.69347e-05
-2.34751e-05
9.24785e-05
-2.21313e-05
9.7613e-05
-2.04899e-05
0.000102262
-1.85639e-05
0.000106339
-1.6269e-05
0.000109796
-1.38049e-05
0.000112586
-1.11248e-05
0.000114624
-8.14521e-06
0.00011592
-5.17604e-06
0.000116457
-2.13756e-06
0.000116244
8.53646e-07
0.000115252
3.9295e-06
0.00011355
6.80637e-06
0.000111138
9.61886e-06
0.00010806
1.2288e-05
0.000104376
1.47033e-05
0.000100075
1.71779e-05
9.5254e-05
1.92639e-05
8.98894e-05
2.14e-05
8.40698e-05
2.3248e-05
7.78458e-05
2.48503e-05
7.12471e-05
2.63737e-05
6.42471e-05
2.79854e-05
5.69515e-05
2.91268e-05
4.92204e-05
3.08728e-05
4.13645e-05
3.13607e-05
3.33434e-05
3.21212e-05
2.52806e-05
3.22468e-05
1.70049e-05
3.30076e-05
8.82057e-06
3.27311e-05
6.033e-07
3.28207e-05
-7.57793e-06
3.26575e-05
-1.55804e-05
3.20127e-05
-2.35411e-05
3.17774e-05
-3.12073e-05
3.07114e-05
-3.87656e-05
3.01887e-05
-4.59685e-05
2.88527e-05
-5.2972e-05
2.79389e-05
-5.96176e-05
2.65561e-05
-6.59424e-05
2.52894e-05
-7.19075e-05
2.3817e-05
-7.747e-05
2.2221e-05
-8.26188e-05
2.06195e-05
-8.74038e-05
1.91517e-05
-9.18146e-05
1.76e-05
-9.5899e-05
1.62732e-05
-9.94792e-05
1.43328e-05
-0.000102689
1.28444e-05
-0.000105514
1.1264e-05
-0.000107871
9.45292e-06
-0.000109954
8.31815e-06
-0.000111539
6.42793e-06
-0.000112886
5.34565e-06
-0.000113727
3.3827e-06
-0.000114277
2.11235e-06
-0.000114303
1.87268e-07
-0.000114118
-6.58556e-07
-0.000113363
-2.93818e-06
-0.000112312
-4.33489e-06
-0.000110697
-6.53793e-06
-0.000108726
-7.88788e-06
-0.00010606
-1.062e-05
-0.000102914
-1.26263e-05
-9.89138e-05
-1.58606e-05
-9.43929e-05
-1.73535e-05
-8.90851e-05
-1.73551e-05
-8.2385e-05
-1.82833e-05
-7.32481e-05
-2.17115e-05
-6.24156e-05
-2.83086e-05
-5.79208e-05
-5.0641e-05
0.000156986
3.33198e-05
0.000149655
3.66205e-05
0.000141574
4.0365e-05
0.000132855
4.35553e-05
0.000123423
4.71085e-05
0.000113415
4.99707e-05
0.000102746
5.32802e-05
9.15875e-05
5.56952e-05
7.98515e-05
5.85309e-05
6.7711e-05
6.05283e-05
5.51867e-05
6.24166e-05
4.24967e-05
6.32492e-05
2.96985e-05
6.37162e-05
1.7016e-05
6.32266e-05
4.523e-06
6.2255e-05
-7.62286e-06
6.05355e-05
-1.93037e-05
5.82477e-05
-3.04494e-05
5.56009e-05
-4.09708e-05
5.25145e-05
-5.08286e-05
4.9221e-05
-5.9974e-05
4.56857e-05
-6.83901e-05
4.20639e-05
-7.60661e-05
3.83823e-05
-8.3004e-05
3.4708e-05
-8.921e-05
3.10623e-05
-9.47082e-05
2.75317e-05
-9.9511e-05
2.40599e-05
-0.000103642
2.07034e-05
-0.000107123
1.74548e-05
-0.000109973
1.42939e-05
-0.00011221
1.123e-05
-0.000113857
8.26175e-06
-0.000114937
5.40517e-06
-0.000115463
2.64173e-06
-0.000115458
2.14175e-09
-0.000114953
-2.50091e-06
-0.00011396
-4.93868e-06
-0.000112496
-7.29751e-06
-0.000110578
-9.56517e-06
-0.000108219
-1.17756e-05
-0.000105438
-1.38875e-05
-0.000102238
-1.59856e-05
-9.86413e-05
-1.79687e-05
-9.46363e-05
-2.00133e-05
-9.02543e-05
-2.19003e-05
-8.54628e-05
-2.39491e-05
-8.03044e-05
-2.57853e-05
-7.47311e-05
-2.7856e-05
-6.87951e-05
-2.9669e-05
-6.24467e-05
-3.17227e-05
-5.57442e-05
-3.34844e-05
-4.87144e-05
-3.51055e-05
-4.13199e-05
-3.6913e-05
-3.36705e-05
-3.8172e-05
-2.57372e-05
-3.95716e-05
-1.76506e-05
-4.03245e-05
-9.4102e-06
-4.10818e-05
-1.15123e-06
-4.11693e-05
7.10578e-06
-4.11437e-05
1.5235e-05
-4.0513e-05
2.32053e-05
-3.97269e-05
3.09179e-05
-3.84567e-05
3.83461e-05
-3.70543e-05
4.54192e-05
-3.52992e-05
5.21241e-05
-3.34724e-05
5.84137e-05
-3.14068e-05
6.42864e-05
-2.93302e-05
6.97121e-05
-2.71035e-05
7.46957e-05
-2.48954e-05
7.9223e-05
-2.26168e-05
8.32828e-05
-2.02804e-05
8.68847e-05
-1.79905e-05
9.00132e-05
-1.56278e-05
9.26747e-05
-1.3299e-05
9.48535e-05
-1.08902e-05
9.65589e-05
-8.52557e-06
9.77705e-05
-6.06271e-06
9.85e-05
-3.65082e-06
9.87325e-05
-1.18453e-06
9.84832e-05
1.20112e-06
9.77186e-05
3.80093e-06
9.64559e-05
6.30644e-06
9.46713e-05
8.91413e-06
9.23959e-05
1.13541e-05
8.96158e-05
1.38708e-05
8.63734e-05
1.61709e-05
8.26732e-05
1.84528e-05
7.85635e-05
2.04865e-05
7.40643e-05
2.24405e-05
6.92012e-05
2.42388e-05
6.40609e-05
2.56365e-05
5.86386e-05
2.70497e-05
5.30105e-05
2.80717e-05
4.71941e-05
2.90084e-05
4.12487e-05
2.96845e-05
3.51744e-05
3.02637e-05
2.90711e-05
3.03991e-05
2.29441e-05
3.0642e-05
1.68167e-05
3.0532e-05
1.07476e-05
3.03309e-05
4.76345e-06
2.98115e-05
-1.0913e-06
2.92576e-05
-6.74246e-06
2.82551e-05
-1.22266e-05
2.73659e-05
-1.74476e-05
2.6092e-05
-2.24427e-05
2.49076e-05
-2.71624e-05
2.34908e-05
-3.15923e-05
2.21214e-05
-3.56602e-05
2.04081e-05
-3.94566e-05
1.89097e-05
-4.29269e-05
1.7372e-05
-4.60457e-05
1.56283e-05
-4.89376e-05
1.44218e-05
-5.14267e-05
1.25102e-05
-5.37293e-05
1.15206e-05
-5.56523e-05
9.57302e-06
-5.74028e-05
8.67522e-06
-5.87449e-05
6.79193e-06
-5.99159e-05
5.85357e-06
-6.06801e-05
3.76939e-06
-6.12375e-05
2.69474e-06
-6.13399e-05
4.17714e-07
-6.12393e-05
-3.23895e-07
-6.06876e-05
-2.70654e-06
-5.9865e-05
-4.37065e-06
-5.85917e-05
-6.29702e-06
-5.71037e-05
-7.41954e-06
-5.52294e-05
-9.38226e-06
-5.29827e-05
-1.11785e-05
-5.04262e-05
-1.28137e-05
-4.74773e-05
-1.46954e-05
-4.42506e-05
-1.61447e-05
-4.0676e-05
-1.77764e-05
-3.68567e-05
-1.90931e-05
-3.27479e-05
-2.05309e-05
-2.84239e-05
-2.15629e-05
-2.38658e-05
-2.27839e-05
-1.91343e-05
-2.3618e-05
-1.42068e-05
-2.45699e-05
-9.12271e-06
-2.53331e-05
-3.91982e-06
-2.60773e-05
1.43818e-06
-2.67667e-05
6.93675e-06
-2.74982e-05
1.25774e-05
-2.81826e-05
1.8361e-05
-2.88984e-05
2.42878e-05
-2.96228e-05
3.0358e-05
-3.03149e-05
3.65552e-05
-3.09538e-05
4.28647e-05
-3.15216e-05
4.92638e-05
-3.19692e-05
5.57245e-05
-3.22091e-05
6.22099e-05
-3.22828e-05
6.86346e-05
-3.20044e-05
7.49586e-05
-3.15289e-05
8.1108e-05
-3.06114e-05
8.70074e-05
-2.93746e-05
9.25689e-05
-2.76927e-05
9.77164e-05
-2.56374e-05
0.000102375
-2.32227e-05
0.000106468
-2.03616e-05
0.000109936
-1.72731e-05
0.000112737
-1.39261e-05
0.000114784
-1.01922e-05
0.000116078
-6.47028e-06
0.000116614
-2.67326e-06
0.000116404
1.06391e-06
0.000115404
4.9297e-06
0.000113702
8.50822e-06
0.000111281
1.20397e-05
0.000108195
1.53741e-05
0.000104497
1.84008e-05
0.000100192
2.14835e-05
9.53647e-05
2.40907e-05
8.99825e-05
2.67822e-05
8.41674e-05
2.90631e-05
7.79159e-05
3.11018e-05
7.1313e-05
3.29766e-05
6.43158e-05
3.49826e-05
5.70091e-05
3.64335e-05
4.92599e-05
3.8622e-05
4.13859e-05
3.92347e-05
3.33726e-05
4.01345e-05
2.5296e-05
4.03235e-05
1.69894e-05
4.13142e-05
8.8167e-06
4.09038e-05
5.79707e-07
4.10576e-05
-7.60054e-06
4.08377e-05
-1.56169e-05
4.00291e-05
-2.35969e-05
3.97574e-05
-3.1254e-05
3.83685e-05
-3.88328e-05
3.77676e-05
-4.60299e-05
3.60497e-05
-5.30551e-05
3.49641e-05
-5.97024e-05
3.32034e-05
-6.6031e-05
3.16181e-05
-7.20045e-05
2.97904e-05
-7.75652e-05
2.77817e-05
-8.2721e-05
2.57753e-05
-8.74931e-05
2.39238e-05
-9.192e-05
2.2027e-05
-9.6017e-05
2.03703e-05
-9.95672e-05
1.78829e-05
-0.000102791
1.60678e-05
-0.000105601
1.4074e-05
-0.000107973
1.18254e-05
-0.000110051
1.03963e-05
-0.000111627
8.00351e-06
-0.000112972
6.69041e-06
-0.000113802
4.21294e-06
-0.000114385
2.69593e-06
-0.000114408
2.10189e-07
-0.000114194
-8.72625e-07
-0.000113445
-3.68723e-06
-0.000112443
-5.33666e-06
-0.000110839
-8.14215e-06
-0.000108852
-9.87527e-06
-0.000106171
-1.33011e-05
-0.000103052
-1.57448e-05
-9.90674e-05
-1.98454e-05
-9.44735e-05
-2.19474e-05
-8.89302e-05
-2.28983e-05
-8.22715e-05
-2.49421e-05
-7.40391e-05
-2.99439e-05
-6.37638e-05
-3.85839e-05
-6.85338e-05
-5.31508e-05
0.000157193
3.99993e-05
0.000149855
4.39585e-05
0.000141768
4.84516e-05
0.000133043
5.22807e-05
0.000123604
5.65481e-05
0.000113585
5.99895e-05
0.000102904
6.39611e-05
9.17287e-05
6.68703e-05
7.99675e-05
7.02921e-05
6.77958e-05
7.27e-05
5.52392e-05
7.49732e-05
4.2514e-05
7.59743e-05
2.96668e-05
7.65633e-05
1.69574e-05
7.5936e-05
4.42946e-06
7.47829e-05
-7.74675e-06
7.27117e-05
-1.9453e-05
6.9954e-05
-3.06187e-05
6.67666e-05
-4.11555e-05
6.30513e-05
-5.10241e-05
5.90896e-05
-6.01762e-05
5.48378e-05
-6.85953e-05
5.04829e-05
-7.6271e-05
4.60581e-05
-8.32064e-05
4.16434e-05
-8.94081e-05
3.72641e-05
-9.4901e-05
3.30245e-05
-9.9698e-05
2.8857e-05
-0.000103823
2.48284e-05
-0.000107298
2.09301e-05
-0.000110143
1.71381e-05
-0.000112374
1.34612e-05
-0.000114015
9.90301e-06
-0.00011509
6.47974e-06
-0.00011561
3.16213e-06
-0.000115601
-7.12724e-09
-0.000115091
-3.01092e-06
-0.000114093
-5.93611e-06
-0.000112625
-8.76606e-06
-0.000110704
-1.14864e-05
-0.000108341
-1.4138e-05
-0.000105557
-1.66715e-05
-0.000102354
-1.91884e-05
-9.87555e-05
-2.15674e-05
-9.47486e-05
-2.40202e-05
-9.0365e-05
-2.62839e-05
-8.55722e-05
-2.87419e-05
-8.04126e-05
-3.09449e-05
-7.48377e-05
-3.34309e-05
-6.89e-05
-3.56067e-05
-6.25484e-05
-3.80743e-05
-5.58413e-05
-4.01914e-05
-4.88044e-05