/*--------------------------------*- C++ -*----------------------------------*\
| =========                 |                                                 |
| \\      /  F ield         | OpenFOAM: The Open Source CFD Toolbox           |
|  \\    /   O peration     | Version:  3.0.1                                 |
|   \\  /    A nd           | Web:      www.OpenFOAM.org                      |
|    \\/     M anipulation  |                                                 |
\*---------------------------------------------------------------------------*/
FoamFile
{
    version     2.0;
    format      ascii;
    class       surfaceScalarField;
    location    "77.8";
    object      phi;
}
// * * * * * * * * * * * * * * * * * * * * * * * * * * * * * * * * * * * * * //

dimensions      [0 3 -1 0 0 0 0];

internalField   nonuniform List<scalar> 
42423
(
2.11587e-05
6.758e-06
1.53336e-05
5.82512e-06
1.03932e-05
4.94043e-06
6.3065e-06
4.08667e-06
3.05002e-06
3.25647e-06
6.25487e-07
2.42453e-06
-1.25813e-06
1.88362e-06
-2.35982e-06
1.10168e-06
-2.75801e-06
3.98184e-07
-2.46077e-06
-2.97245e-07
-1.53309e-06
-9.27693e-07
-1.14447e-07
-1.41865e-06
1.69831e-06
-1.81276e-06
4.08293e-06
-2.38463e-06
6.99716e-06
-2.91424e-06
1.03873e-05
-3.39018e-06
1.40867e-05
-3.69943e-06
1.83103e-05
-4.22361e-06
2.30537e-05
-4.7434e-06
2.81304e-05
-5.07663e-06
3.37937e-05
-5.6634e-06
4.00985e-05
-6.30477e-06
4.68421e-05
-6.74363e-06
5.42669e-05
-7.42483e-06
6.23353e-05
-8.06837e-06
7.11443e-05
-8.80908e-06
8.08105e-05
-9.66626e-06
9.10111e-05
-1.02006e-05
0.000102059
-1.10482e-05
0.000114045
-1.19857e-05
0.000126613
-1.25677e-05
0.000140008
-1.3396e-05
0.000154096
-1.40874e-05
0.000168941
-1.4845e-05
0.000184612
-1.56716e-05
0.000200617
-1.60043e-05
0.000217117
-1.65002e-05
0.000234135
-1.70185e-05
0.000251181
-1.70464e-05
0.000268295
-1.7114e-05
0.000285243
-1.69475e-05
0.000301802
-1.65592e-05
0.000317861
-1.60587e-05
0.000332994
-1.5134e-05
0.000347016
-1.40222e-05
0.000359806
-1.27894e-05
0.000371008
-1.12021e-05
0.00038043
-9.42242e-06
0.000388024
-7.5942e-06
0.000393527
-5.50261e-06
0.000396883
-3.35661e-06
0.000397997
-1.11376e-06
0.000396911
1.08551e-06
0.000393748
3.16351e-06
0.000388324
5.42412e-06
0.000380832
7.49157e-06
0.00037155
9.28185e-06
0.000360364
1.11862e-05
0.00034757
1.2794e-05
0.000333331
1.4239e-05
0.000317898
1.5433e-05
0.000301538
1.63599e-05
0.000284386
1.71519e-05
0.000266746
1.76395e-05
0.000248876
1.78702e-05
0.000230903
1.79728e-05
0.000213044
1.78589e-05
0.000195443
1.76008e-05
0.000178276
1.71669e-05
0.00016162
1.66563e-05
0.000145377
1.62432e-05
0.000129487
1.58902e-05
0.000113942
1.55448e-05
9.87457e-05
1.51963e-05
8.39638e-05
1.47819e-05
6.97408e-05
1.42229e-05
5.60887e-05
1.36521e-05
4.32691e-05
1.28196e-05
3.14313e-05
1.18378e-05
2.04976e-05
1.09337e-05
1.07237e-05
9.77386e-06
2.35116e-06
8.37258e-06
-4.19271e-06
6.54388e-06
-1.01596e-05
5.96693e-06
-1.52088e-05
5.04917e-06
-1.94339e-05
4.22508e-06
-2.28654e-05
3.43151e-06
-2.56296e-05
2.76426e-06
-2.77099e-05
2.08027e-06
-2.9167e-05
1.45715e-06
-3.00181e-05
8.51017e-07
-3.0281e-05
2.62905e-07
-2.99228e-05
-3.5813e-07
-2.90629e-05
-8.59864e-07
-2.76813e-05
-1.38167e-06
-2.58523e-05
-1.82893e-06
-2.35671e-05
-2.28526e-06
-2.07998e-05
-2.76723e-06
-1.76031e-05
-3.19674e-06
-1.39997e-05
-3.60334e-06
-1.00658e-05
-3.93388e-06
-5.67841e-06
-4.38743e-06
-8.82893e-07
-4.79552e-06
4.33272e-06
-5.21562e-06
1.00169e-05
-5.68417e-06
1.61824e-05
-6.16554e-06
2.28686e-05
-6.68623e-06
3.01376e-05
-7.26895e-06
3.79387e-05
-7.80111e-06
4.63644e-05
-8.42578e-06
5.54027e-05
-9.03829e-06
6.50421e-05
-9.6395e-06
7.53105e-05
-1.02685e-05
8.61621e-05
-1.08516e-05
9.76242e-05
-1.14622e-05
0.000109635
-1.20111e-05
0.000122157
-1.25217e-05
0.000135208
-1.30508e-05
0.000148674
-1.34669e-05
0.000162517
-1.38423e-05
0.000176671
-1.41549e-05
0.000190971
-1.42994e-05
0.000205366
-1.43958e-05
0.000219641
-1.42745e-05
0.000233664
-1.4023e-05
0.000247212
-1.35488e-05
0.00026011
-1.28982e-05
0.000272113
-1.2003e-05
0.000282998
-1.08852e-05
0.000292606
-9.60737e-06
0.000300748
-8.14203e-06
0.000307257
-6.50919e-06
0.000312005
-4.74819e-06
0.000314875
-2.87019e-06
0.000315821
-9.46645e-07
0.000314869
9.52372e-07
0.00031189
2.97853e-06
0.000306943
4.94708e-06
0.000300119
6.82405e-06
0.000291425
8.69394e-06
0.000281094
1.03305e-05
0.000269256
1.1838e-05
0.000256139
1.31171e-05
0.000241967
1.41718e-05
0.000226982
1.49855e-05
0.00021146
1.55219e-05
0.000195633
1.58271e-05
0.00017975
1.58825e-05
0.000164023
1.57268e-05
0.000148655
1.53683e-05
0.000133838
1.48172e-05
0.000119642
1.4195e-05
0.000106175
1.34677e-05
9.35126e-05
1.26622e-05
8.16621e-05
1.18504e-05
7.07317e-05
1.09304e-05
6.06152e-05
1.01166e-05
5.13523e-05
9.26288e-06
4.29459e-05
8.40636e-06
3.53432e-05
7.60263e-06
2.85126e-05
6.83055e-06
2.24669e-05
6.04567e-06
1.71694e-05
5.29747e-06
1.25675e-05
4.60188e-06
8.66745e-06
3.90007e-06
5.44924e-06
3.2182e-06
2.89744e-06
2.55178e-06
1.01314e-06
1.88428e-06
-2.67571e-07
1.28069e-06
-1.02941e-06
7.61829e-07
-1.29723e-06
2.67803e-07
-1.17518e-06
-1.22061e-07
-7.06791e-07
-4.68398e-07
-1.14187e-08
-6.95381e-07
8.69768e-07
-8.81195e-07
1.92057e-06
-1.05081e-06
3.10916e-06
-1.1886e-06
4.4788e-06
-1.36965e-06
6.05368e-06
-1.57489e-06
7.86147e-06
-1.80779e-06
9.92134e-06
-2.05988e-06
1.23154e-05
-2.39412e-06
1.50804e-05
-2.76498e-06
1.8311e-05
-3.23056e-06
2.19811e-05
-3.67012e-06
2.62e-05
-4.21895e-06
3.09438e-05
-4.74384e-06
3.62667e-05
-5.32289e-06
4.21769e-05
-5.9102e-06
4.87323e-05
-6.55543e-06
5.60701e-05
-7.33781e-06
6.42369e-05
-8.16686e-06
7.3353e-05
-9.11613e-06
8.35203e-05
-1.01674e-05
9.47058e-05
-1.11855e-05
0.000106983
-1.22771e-05
0.00012032
-1.33371e-05
0.000134618
-1.42978e-05
0.000149885
-1.52673e-05
0.000165953
-1.60682e-05
0.000182747
-1.67944e-05
0.000200141
-1.73937e-05
0.000217941
-1.78006e-05
0.000235963
-1.80216e-05
0.000254
-1.80375e-05
0.000271865
-1.78651e-05
0.000289321
-1.74556e-05
0.000306118
-1.67975e-05
0.000321972
-1.5854e-05
0.00033663
-1.46588e-05
0.00034981
-1.31799e-05
0.000361297
-1.14872e-05
0.000370835
-9.53825e-06
0.000378193
-7.3579e-06
0.000383181
-4.98851e-06
0.000385685
-2.50411e-06
0.000385693
-8.1172e-09
0.000383128
2.56486e-06
0.000377903
5.22495e-06
0.000370236
7.66745e-06
0.000360268
9.96739e-06
0.000348214
1.20544e-05
0.000334331
1.38826e-05
0.000318922
1.5409e-05
0.000302288
1.66334e-05
0.000284784
1.75048e-05
0.000266762
1.80216e-05
0.000248541
1.82206e-05
0.000230403
1.81383e-05
0.000212598
1.78046e-05
0.000195297
1.7301e-05
0.000178645
1.66519e-05
0.000162724
1.59214e-05
0.000147545
1.51787e-05
0.000133115
1.44294e-05
0.000119418
1.36975e-05
0.00010643
1.29877e-05
9.42049e-05
1.22253e-05
8.2712e-05
1.14929e-05
7.20361e-05
1.06759e-05
6.21913e-05
9.84479e-06
5.31942e-05
8.99709e-06
4.50982e-05
8.09596e-06
3.79375e-05
7.16068e-06
3.16708e-05
6.26667e-06
2.62522e-05
5.41865e-06
2.1584e-05
4.66812e-06
1.75798e-05
4.00423e-06
1.41402e-05
3.43959e-06
1.11458e-05
2.9944e-06
8.53394e-06
2.61181e-06
6.25322e-06
2.28071e-06
4.25457e-06
1.99864e-06
2.54072e-06
1.71383e-06
1.12935e-06
1.41136e-06
8.8026e-08
1.04132e-06
-5.85717e-07
6.73736e-07
-7.71229e-07
1.85504e-07
-4.01367e-07
-3.6987e-07
4.90939e-07
-8.92314e-07
1.97962e-06
-1.48869e-06
4.0622e-06
-2.08259e-06
6.74414e-06
-2.68195e-06
9.9306e-06
-3.18648e-06
1.36171e-05
-3.68654e-06
1.7848e-05
-4.23088e-06
2.26556e-05
-4.80763e-06
2.7964e-05
-5.30838e-06
3.37744e-05
-5.8105e-06
4.01532e-05
-6.37881e-06
4.71129e-05
-6.95967e-06
5.46614e-05
-7.54862e-06
6.27951e-05
-8.13373e-06
7.15832e-05
-8.78813e-06
8.10888e-05
-9.50564e-06
9.13914e-05
-1.03027e-05
0.000102572
-1.11809e-05
0.000114818
-1.22455e-05
0.000128244
-1.34263e-05
0.000143048
-1.48049e-05
0.000159041
-1.59929e-05
0.000176106
-1.70649e-05
0.000194179
-1.80731e-05
0.000213105
-1.8926e-05
0.000232566
-1.94616e-05
0.000252502
-1.99357e-05
0.00027249
-1.99889e-05
0.000292255
-1.97647e-05
0.000311403
-1.91485e-05
0.00032944
-1.80371e-05
0.000346159
-1.67195e-05
0.000361148
-1.49887e-05
0.000374052
-1.29041e-05
0.00038477
-1.07188e-05
0.000392949
-8.17878e-06
0.000398471
-5.52212e-06
0.000400634
-2.16389e-06
0.000399498
1.13634e-06
0.000396256
3.24178e-06
0.000391443
4.81229e-06
0.000385045
6.39853e-06
0.0003769
8.145e-06
0.000366943
9.95686e-06
0.000355567
1.13754e-05
0.000342901
1.26655e-05
0.000329017
1.38841e-05
0.000314365
1.46523e-05
0.000298995
1.53694e-05
0.00028328
1.57152e-05
0.000267312
1.59681e-05
0.000251191
1.61208e-05
0.000235249
1.59419e-05
0.000219549
1.57e-05
0.000204176
1.53727e-05
0.000189368
1.48075e-05
0.000175142
1.42265e-05
0.000161654
1.34872e-05
0.000148917
1.27373e-05
0.000136967
1.19503e-05
0.00012589
1.10771e-05
0.000115668
1.02221e-05
0.000106295
9.37289e-06
9.77804e-05
8.51415e-06
9.00729e-05
7.70752e-06
8.31431e-05
6.92983e-06
7.69238e-05
6.21923e-06
7.13527e-05
5.57117e-06
6.63735e-05
4.97914e-06
6.19141e-05
4.45944e-06
5.79092e-05
4.00485e-06
5.43081e-05
3.60108e-06
5.10562e-05
3.25187e-06
4.81144e-05
2.94187e-06
4.54566e-05
2.65776e-06
4.30647e-05
2.39187e-06
4.09348e-05
2.12992e-06
3.90615e-05
1.87332e-06
3.74592e-05
1.60232e-06
3.61577e-05
1.30149e-06
3.51848e-05
9.72933e-07
3.45814e-05
6.0339e-07
3.43977e-05
1.83716e-07
3.47112e-05
-3.13514e-07
3.55449e-05
-8.33761e-07
3.6928e-05
-1.38311e-06
3.88788e-05
-1.95079e-06
4.14402e-05
-2.56137e-06
4.46191e-05
-3.17887e-06
4.84108e-05
-3.79166e-06
5.28786e-05
-4.46781e-06
5.79786e-05
-5.10002e-06
6.37859e-05
-5.80725e-06
7.02591e-05
-6.47328e-06
7.73473e-05
-7.08818e-06
8.51862e-05
-7.83884e-06
9.37212e-05
-8.53504e-06
-9.20486e-06
2.11241e-05
1.35152e-05
1.53e-05
1.16492e-05
1.03607e-05
9.87969e-06
6.27451e-06
8.17288e-06
3.01632e-06
6.51466e-06
5.75083e-07
4.86575e-06
-1.29088e-06
3.74957e-06
-2.38905e-06
2.19984e-06
-2.78434e-06
7.93462e-07
-2.48644e-06
-5.95156e-07
-1.55742e-06
-1.85673e-06
-1.39174e-07
-2.8369e-06
1.67924e-06
-3.6312e-06
4.06408e-06
-4.76948e-06
6.97546e-06
-5.82564e-06
1.03627e-05
-6.77743e-06
1.40605e-05
-7.39728e-06
1.82825e-05
-8.44563e-06
2.3025e-05
-9.48594e-06
2.80988e-05
-1.01504e-05
3.37674e-05
-1.13321e-05
4.00729e-05
-1.26103e-05
4.68027e-05
-1.34735e-05
5.42327e-05
-1.48548e-05
6.22995e-05
-1.61353e-05
7.11021e-05
-1.76118e-05
8.07713e-05
-1.93355e-05
9.09671e-05
-2.03965e-05
0.000102012
-2.20927e-05
0.000114003
-2.3977e-05
0.000126575
-2.51398e-05
0.000139967
-2.67887e-05
0.000154055
-2.81749e-05
0.0001689
-2.96907e-05
0.000184576
-3.13476e-05
0.000200588
-3.20165e-05
0.000217101
-3.3013e-05
0.000234116
-3.40339e-05
0.000251169
-3.41002e-05
0.000268293
-3.42376e-05
0.000285246
-3.39011e-05
0.000301827
-3.31406e-05
0.000317891
-3.21225e-05
0.000333031
-3.02739e-05
0.000347074
-2.8066e-05
0.000359879
-2.55941e-05
0.000371074
-2.23977e-05
0.000380509
-1.88572e-05
0.000388129
-1.52143e-05
0.000393623
-1.09972e-05
0.000396987
-6.72096e-06
0.000398121
-2.24773e-06
0.000397018
2.18817e-06
0.000393861
6.32092e-06
0.000388444
1.08402e-05
0.000380951
1.49846e-05
0.000371666
1.85671e-05
0.000360474
2.23782e-05
0.000347673
2.55953e-05
0.000333424
2.84875e-05
0.00031798
3.08766e-05
0.000301609
3.2731e-05
0.000284446
3.43151e-05
0.000266794
3.5291e-05
0.000248913
3.57518e-05
0.000230928
3.59571e-05
0.00021306
3.57276e-05
0.000195448
3.52125e-05
0.000178272
3.43426e-05
0.000161614
3.33147e-05
0.000145371
3.24861e-05
0.000129484
3.17769e-05
0.00011395
3.10789e-05
9.87689e-05
3.03774e-05
8.39969e-05
2.95539e-05
6.97865e-05
2.84333e-05
5.61537e-05
2.72849e-05
4.33529e-05
2.56204e-05
3.15337e-05
2.36571e-05
2.06311e-05
2.18362e-05
1.08647e-05
1.95403e-05
2.47197e-06
1.67654e-05
-4.03077e-06
1.30466e-05
-9.99276e-06
1.19289e-05
-1.50227e-05
1.00791e-05
-1.92294e-05
8.43181e-06
-2.26513e-05
6.85339e-06
-2.54035e-05
5.51653e-06
-2.7471e-05
4.14777e-06
-2.89264e-05
2.91251e-06
-2.97716e-05
1.69626e-06
-3.00327e-05
5.24072e-07
-2.96876e-05
-7.03276e-07
-2.88064e-05
-1.74105e-06
-2.74163e-05
-2.7717e-06
-2.55788e-05
-3.66641e-06
-2.32796e-05
-4.58451e-06
-2.05441e-05
-5.5027e-06
-1.73068e-05
-6.43403e-06
-1.37771e-05
-7.13302e-06
-9.76738e-06
-7.94362e-06
-5.40341e-06
-8.7514e-06
-6.32803e-07
-9.56614e-06
4.58805e-06
-1.04365e-05
1.02722e-05
-1.13683e-05
1.64297e-05
-1.23231e-05
2.3115e-05
-1.33716e-05
3.03544e-05
-1.45084e-05
3.817e-05
-1.56168e-05
4.6592e-05
-1.68478e-05
5.56288e-05
-1.80752e-05
6.5273e-05
-1.92838e-05
7.55423e-05
-2.05378e-05
8.6395e-05
-2.17044e-05
9.78682e-05
-2.29356e-05
0.000109866
-2.40089e-05
0.000122392
-2.50483e-05
0.00013545
-2.6109e-05
0.00014891
-2.69269e-05
0.000162753
-2.76853e-05
0.000176903
-2.83052e-05
0.00019123
-2.86262e-05
0.000205617
-2.87839e-05
0.000219912
-2.85694e-05
0.000233958
-2.80695e-05
0.000247505
-2.70955e-05
0.000260386
-2.57795e-05
0.000272397
-2.40146e-05
0.000283302
-2.17896e-05
0.000292939
-1.92451e-05
0.000301093
-1.62963e-05
0.000307601
-1.30169e-05
0.000312394
-9.54134e-06
0.000315244
-5.72056e-06
0.000316209
-1.91188e-06
0.000315213
1.94796e-06
0.000312216
5.97572e-06
0.000307262
9.90051e-06
0.000300419
1.36667e-05
0.000291738
1.73745e-05
0.000281384
2.06851e-05
0.000269567
2.36542e-05
0.000256376
2.63084e-05
0.00024217
2.83781e-05
0.000227156
2.99993e-05
0.000211592
3.10854e-05
0.000195741
3.16776e-05
0.000179825
3.17985e-05
0.000164082
3.14696e-05
0.000148692
3.0759e-05
0.000133843
2.96656e-05
0.000119622
2.84162e-05
0.000106141
2.69481e-05
9.34452e-05
2.53583e-05
8.15836e-05
2.3712e-05
7.06361e-05
2.18778e-05
6.04915e-05
2.02611e-05
5.12197e-05
1.85347e-05
4.27995e-05
1.68265e-05
3.51904e-05
1.52118e-05
2.83508e-05
1.367e-05
2.22972e-05
1.20992e-05
1.69529e-05
1.06418e-05
1.23549e-05
9.19977e-06
8.44774e-06
7.80723e-06
5.23286e-06
6.43306e-06
2.68865e-06
5.09596e-06
8.02125e-07
3.77077e-06
-4.85776e-07
2.56857e-06
-1.23894e-06
1.51497e-06
-1.53531e-06
5.64149e-07
-1.36401e-06
-2.9338e-07
-9.22143e-07
-9.10281e-07
-2.03361e-07
-1.41418e-06
6.88117e-07
-1.77269e-06
1.73514e-06
-2.09784e-06
2.93358e-06
-2.38706e-06
4.3258e-06
-2.76188e-06
5.88975e-06
-3.13885e-06
7.68198e-06
-3.60004e-06
9.75844e-06
-4.13635e-06
1.21631e-05
-4.79883e-06
1.49263e-05
-5.52821e-06
1.81664e-05
-6.47067e-06
2.18441e-05
-7.34778e-06
2.606e-05
-8.43493e-06
3.0804e-05
-9.48786e-06
3.61183e-05
-1.06372e-05
4.20332e-05
-1.18252e-05
4.85953e-05
-1.31176e-05
5.59276e-05
-1.46702e-05
6.40915e-05
-1.63308e-05
7.32066e-05
-1.82313e-05
8.33621e-05
-2.03231e-05
9.45581e-05
-2.23817e-05
0.000106844
-2.45637e-05
0.000120183
-2.66762e-05
0.00013449
-2.86047e-05
0.000149758
-3.05354e-05
0.000165828
-3.21384e-05
0.000182638
-3.36051e-05
0.000200038
-3.4794e-05
0.00021784
-3.56022e-05
0.000235878
-3.60603e-05
0.000253927
-3.6087e-05
0.000271797
-3.57351e-05
0.000289264
-3.49228e-05
0.000306058
-3.3592e-05
0.000321921
-3.17169e-05
0.000336614
-2.93528e-05
0.000349805
-2.63712e-05
0.000361291
-2.29733e-05
0.000370838
-1.90855e-05
0.0003782
-1.47199e-05
0.000383192
-9.98056e-06
0.000385719
-5.03169e-06
0.000385731
-1.99863e-08
0.000383142
5.15353e-06
0.000377916
1.0451e-05
0.000370235
1.53476e-05
0.000360271
1.99315e-05
0.000348207
2.41177e-05
0.000334302
2.77874e-05
0.000318868
3.08428e-05
0.000302219
3.32824e-05
0.000284706
3.50178e-05
0.000266669
3.60579e-05
0.000248434
3.64558e-05
0.000230285
3.62874e-05
0.000212467
3.56221e-05
0.000195163
3.46052e-05
0.000178517
3.32979e-05
0.000162591
3.18472e-05
0.000147404
3.0366e-05
0.000132973
2.88602e-05
0.000119272
2.73983e-05
0.000106282
2.59784e-05
9.40572e-05
2.44495e-05
8.25687e-05
2.29814e-05
7.18807e-05
2.13638e-05
6.20298e-05
1.96956e-05
5.30469e-05
1.798e-05
4.4952e-05
1.61908e-05
3.77854e-05
1.43272e-05
3.15228e-05
1.25292e-05
2.61113e-05
1.08302e-05
2.14499e-05
9.32951e-06
1.74532e-05
8.00087e-06
1.40172e-05
6.87561e-06
1.10258e-05
5.9858e-06
8.4225e-06
5.21504e-06
6.13845e-06
4.56475e-06
4.13409e-06
4.00298e-06
2.42003e-06
3.42788e-06
1.01205e-06
2.81933e-06
-3.21485e-08
2.08551e-06
-6.86332e-07
1.3279e-06
-8.79774e-07
3.78933e-07
-5.45622e-07
-7.04037e-07
3.63068e-07
-1.80102e-06
1.85759e-06
-2.98322e-06
3.95067e-06
-4.17569e-06
6.63066e-06
-5.36197e-06
9.81747e-06
-6.37331e-06
1.34987e-05
-7.36782e-06
1.77328e-05
-8.46504e-06
2.25377e-05
-9.61258e-06
2.78377e-05
-1.06084e-05
3.36538e-05
-1.16267e-05
4.00439e-05
-1.2769e-05
4.70054e-05
-1.39212e-05
5.45599e-05
-1.51033e-05
6.2699e-05
-1.6273e-05
7.14901e-05
-1.75794e-05
8.0999e-05
-1.90147e-05
9.1302e-05
-2.06059e-05
0.000102484
-2.23631e-05
0.000114727
-2.44883e-05
0.000128151
-2.68511e-05
0.000142954
-2.96077e-05
0.000158945
-3.19848e-05
0.00017601
-3.41296e-05
0.000194082
-3.61462e-05
0.000213007
-3.78511e-05
0.000232471
-3.89259e-05
0.000252408
-3.98731e-05
0.000272404
-3.99849e-05
0.000292177
-3.95382e-05
0.000311334
-3.83066e-05
0.000329372
-3.60753e-05
0.000346081
-3.34286e-05
0.000361037
-2.99454e-05
0.000373853
-2.57206e-05
0.000384494
-2.13601e-05
0.00039262
-1.63044e-05
0.00039796
-1.08627e-05
0.00040008
-4.28416e-06
0.000399164
2.0516e-06
0.00039621
6.19592e-06
0.000391496
9.5257e-06
0.000385108
1.27858e-05
0.000376962
1.62904e-05
0.000367001
1.99178e-05
0.00035562
2.27566e-05
0.000342947
2.5338e-05
0.000329055
2.77758e-05
0.000314395
2.93123e-05
0.000299017
3.07466e-05
0.000283294
3.14378e-05
0.000267319
3.19431e-05
0.000251192
3.22482e-05
0.000235244
3.18898e-05
0.000219538
3.14055e-05
0.00020416
3.07502e-05
0.000189349
2.96192e-05
0.000175118
2.84567e-05
0.000161628
2.69774e-05
0.000148889
2.54769e-05
0.000136936
2.39023e-05
0.000125858
2.21551e-05
0.000115636
2.04445e-05
0.000106263
1.87454e-05
9.77501e-05
1.70274e-05
9.00439e-05
1.54137e-05
8.31158e-05
1.3858e-05
7.68981e-05
1.24369e-05
7.13289e-05
1.11404e-05
6.63518e-05
9.95621e-06
6.18936e-05
8.91759e-06
5.78899e-05
8.00858e-06
5.42892e-05
7.2018e-06
5.10361e-05
6.50496e-06
4.80922e-05
5.88575e-06
4.54302e-05
5.31971e-06
4.303e-05
4.79214e-06
4.08887e-05
4.27116e-06
3.90108e-05
3.75125e-06
3.74117e-05
3.20137e-06
3.61147e-05
2.59849e-06
3.51462e-05
1.94149e-06
3.4547e-05
1.20258e-06
3.43621e-05
3.68549e-07
3.46758e-05
-6.27122e-07
3.55127e-05
-1.67073e-06
3.68974e-05
-2.76778e-06
3.88477e-05
-3.90107e-06
4.14093e-05
-5.12297e-06
4.45886e-05
-6.35815e-06
4.83802e-05
-7.58324e-06
5.28468e-05
-8.93441e-06
5.79461e-05
-1.01993e-05
6.3755e-05
-1.16161e-05
7.02288e-05
-1.29471e-05
7.73154e-05
-1.41748e-05
8.51543e-05
-1.56777e-05
9.36914e-05
-1.70722e-05
-1.84114e-05
2.10546e-05
2.02708e-05
1.52324e-05
1.74714e-05
1.02954e-05
1.48167e-05
6.21034e-06
1.22579e-05
2.94948e-06
9.77552e-06
4.82791e-07
7.33243e-06
-1.35595e-06
5.5883e-06
-2.44774e-06
3.29162e-06
-2.83785e-06
1.18356e-06
-2.53712e-06
-8.95902e-07
-1.60529e-06
-2.78857e-06
-1.87619e-07
-4.25458e-06
1.64178e-06
-5.46061e-06
4.03399e-06
-7.16171e-06
6.95517e-06
-8.74683e-06
1.03503e-05
-1.01725e-05
1.40488e-05
-1.10958e-05
1.82691e-05
-1.26659e-05
2.30092e-05
-1.42261e-05
2.80837e-05
-1.5225e-05
3.37441e-05
-1.69926e-05
4.00449e-05
-1.8911e-05
4.677e-05
-2.01986e-05
5.41882e-05
-2.22731e-05
6.22531e-05
-2.42003e-05
7.10511e-05
-2.64097e-05
8.07184e-05
-2.90029e-05
9.09081e-05
-3.05863e-05
0.000101952
-3.3137e-05
0.000113944
-3.59686e-05
0.000126508
-3.7704e-05
0.0001399
-4.01812e-05
0.000153991
-4.22656e-05
0.000168841
-4.45413e-05
0.000184529
-4.70352e-05
0.000200542
-4.80303e-05
0.000217058
-4.95289e-05
0.000234092
-5.10681e-05
0.00025115
-5.11583e-05
0.000268286
-5.13741e-05
0.000285255
-5.08705e-05
0.000301842
-4.97278e-05
0.000317933
-4.82136e-05
0.000333094
-4.54345e-05
0.000347147
-4.2119e-05
0.000359974
-3.84222e-05
0.000371188
-3.36112e-05
0.000380634
-2.83039e-05
0.00038827
-2.28501e-05
0.000393772
-1.64991e-05
0.000397144
-1.00937e-05
0.000398288
-3.39104e-06
0.000397159
3.31621e-06
0.000394007
9.47273e-06
0.0003886
1.62475e-05
0.0003811
2.24843e-05
0.000371804
2.78627e-05
0.000360599
3.35829e-05
0.000347784
3.84111e-05
0.000333519
4.27519e-05
0.000318058
4.63372e-05
0.000301669
4.91199e-05
0.000284488
5.14965e-05
0.000266819
5.29598e-05
0.000248921
5.36493e-05
0.000230923
5.39552e-05
0.000213041
5.36098e-05
0.000195417
5.28362e-05
0.000178234
5.15264e-05
0.000161575
4.99731e-05
0.000145341
4.87199e-05
0.000129471
4.76471e-05
0.000113961
4.65891e-05
9.88062e-05
4.55322e-05
8.40676e-05
4.42925e-05
6.98894e-05
4.26115e-05
5.62867e-05
4.08877e-05
4.35181e-05
3.8389e-05
3.1732e-05
3.54432e-05
2.08772e-05
3.2691e-05
1.113e-05
2.92875e-05
2.83194e-06
2.50634e-05
-3.72103e-06
1.95996e-05
-9.67081e-06
1.78787e-05
-1.46736e-05
1.50819e-05
-1.88572e-05
1.26154e-05
-2.22557e-05
1.02519e-05
-2.49887e-05
8.24951e-06
-2.70439e-05
6.20301e-06
-2.84886e-05
4.35727e-06
-2.93317e-05
2.53933e-06
-2.95891e-05
7.81472e-07
-2.9239e-05
-1.0533e-06
-2.83819e-05
-2.59817e-06
-2.69708e-05
-4.1828e-06
-2.51176e-05
-5.51956e-06
-2.28262e-05
-6.87594e-06
-2.00295e-05
-8.29935e-06
-1.6898e-05
-9.56558e-06
-1.33171e-05
-1.07138e-05
-9.34297e-06
-1.19178e-05
-4.96261e-06
-1.31318e-05
-1.63937e-07
-1.43648e-05
5.06279e-06
-1.56632e-05
1.07357e-05
-1.70412e-05
1.68886e-05
-1.8476e-05
2.35718e-05
-2.00548e-05
3.07847e-05
-2.17213e-05
3.86162e-05
-2.34483e-05
4.70348e-05
-2.52664e-05
5.6053e-05
-2.70936e-05
6.57034e-05
-2.89343e-05
7.59768e-05
-3.08113e-05
8.68286e-05
-3.25563e-05
9.82578e-05
-3.43649e-05
0.000110281
-3.60326e-05
0.000122852
-3.76194e-05
0.000135852
-3.91087e-05
0.000149331
-4.04061e-05
0.000163202
-4.15563e-05
0.000177306
-4.24102e-05
0.00019165
-4.29697e-05
0.000206053
-4.3187e-05
0.000220383
-4.28999e-05
0.000234417
-4.2104e-05
0.000247988
-4.06671e-05
0.000260875
-3.86662e-05
0.000272882
-3.60221e-05
0.000283839
-3.27461e-05
0.000293471
-2.88776e-05
0.000301645
-2.44701e-05
0.000308158
-1.95307e-05
0.000312895
-1.4278e-05
0.00031577
-8.59592e-06
0.000316787
-2.92909e-06
0.000315744
2.99078e-06
0.000312745
8.97469e-06
0.000307827
1.48177e-05
0.000300897
2.05972e-05
0.000292262
2.6009e-05
0.000281843
3.11041e-05
0.000269977
3.55201e-05
0.00025674
3.95453e-05
0.000242489
4.26288e-05
0.000227432
4.50565e-05
0.000211815
4.67015e-05
0.000195915
4.75781e-05
0.000179947
4.7766e-05
0.00016416
4.72564e-05
0.000148726
4.6193e-05
0.000133838
4.45536e-05
0.000119568
4.26858e-05
0.000106057
4.04592e-05
9.33253e-05
3.80901e-05
8.14493e-05
3.55879e-05
7.04384e-05
3.28886e-05
6.02588e-05
3.04406e-05
5.09973e-05
2.77962e-05
4.25018e-05
2.53219e-05
3.48676e-05
2.28458e-05
2.80333e-05
2.05043e-05
2.19305e-05
1.82019e-05
1.66086e-05
1.59637e-05
1.19778e-05
1.38305e-05
8.05259e-06
1.17324e-05
4.82889e-06
9.65673e-06
2.29588e-06
7.62895e-06
4.16721e-07
5.6499e-06
-9.02258e-07
3.88752e-06
-1.64383e-06
2.25652e-06
-1.91409e-06
8.34388e-07
-1.74884e-06
-4.58651e-07
-1.26641e-06
-1.39273e-06
-5.35543e-07
-2.14506e-06
3.62882e-07
-2.67113e-06
1.40319e-06
-3.13817e-06
2.60435e-06
-3.58822e-06
3.99408e-06
-4.15163e-06
5.58017e-06
-4.72496e-06
7.3798e-06
-5.39968e-06
9.47183e-06
-6.2284e-06
1.18914e-05
-7.21847e-06
1.46595e-05
-8.29629e-06
1.78776e-05
-9.68875e-06
2.15707e-05
-1.10409e-05
2.57913e-05
-1.26556e-05
3.05394e-05
-1.4236e-05
3.58484e-05
-1.59463e-05
4.17503e-05
-1.77272e-05
4.83076e-05
-1.96749e-05
5.56397e-05
-2.20024e-05
6.37991e-05
-2.44903e-05
7.29079e-05
-2.73402e-05
8.30622e-05
-3.04775e-05
9.42601e-05
-3.35797e-05
0.000106558
-3.68619e-05
0.000119901
-4.00194e-05
0.000134216
-4.29195e-05
0.000149494
-4.58137e-05
0.000165574
-4.82183e-05
0.000182399
-5.04306e-05
0.000199815
-5.22104e-05
0.000217627
-5.34144e-05
0.000235678
-5.41112e-05
0.00025375
-5.41591e-05
0.000271642
-5.36283e-05
0.000289124
-5.24046e-05
0.000305936
-5.04044e-05
0.000321811
-4.75919e-05
0.000336524
-4.40665e-05
0.000349752
-3.95993e-05
0.000361269
-3.44902e-05
0.00037083
-2.8647e-05
0.000378204
-2.20944e-05
0.000383211
-1.49876e-05
0.000385746
-7.56697e-06
0.000385723
2.93745e-09
0.000383097
7.77923e-06
0.000377872
1.56755e-05
0.000370183
2.30371e-05
0.000360198
2.99161e-05
0.000348131
3.61839e-05
0.0003342
4.17182e-05
0.000318739
4.63045e-05
0.000302058
4.99629e-05
0.000284517
5.25581e-05
0.000266459
5.41163e-05
0.000248199
5.4716e-05
0.000230026
5.44601e-05
0.000212192
5.34561e-05
0.000194876
5.19205e-05
0.000178229
4.99456e-05
0.00016231
4.7766e-05
0.000147126
4.55497e-05
0.00013269
4.32964e-05
0.000118986
4.11017e-05
0.000105998
3.89663e-05
9.37743e-05
3.66733e-05
8.22834e-05
3.44723e-05
7.1603e-05
3.20441e-05
6.17438e-05
2.95548e-05
5.27559e-05
2.69677e-05
4.4677e-05
2.42697e-05
3.75192e-05
2.1485e-05
3.12567e-05
1.87917e-05
2.58511e-05
1.62357e-05
2.11965e-05
1.39841e-05
1.72053e-05
1.19921e-05
1.37724e-05
1.03085e-05
1.07915e-05
8.96669e-06
8.19654e-06
7.80995e-06
5.91502e-06
6.84625e-06
3.91243e-06
6.00555e-06
2.19635e-06
5.14394e-06
7.80327e-07
4.23533e-06
-2.82274e-07
3.1481e-06
-9.41194e-07
1.98681e-06
-1.13478e-06
5.72504e-07
-8.08035e-07
-1.0308e-06
1.07974e-07
-2.71704e-06
1.60217e-06
-4.47744e-06
3.71119e-06
-6.28472e-06
6.38458e-06
-8.03538e-06
9.57533e-06
-9.56408e-06
1.32729e-05
-1.10654e-05
1.75083e-05
-1.27005e-05
2.22979e-05
-1.44022e-05
2.76045e-05
-1.59151e-05
3.34328e-05
-1.7455e-05
3.98376e-05
-1.91738e-05
4.68225e-05
-2.09062e-05
5.43928e-05
-2.26736e-05
6.25403e-05
-2.44205e-05
7.13408e-05
-2.638e-05
8.08569e-05
-2.8531e-05
9.11663e-05
-3.09154e-05
0.000102356
-3.35535e-05
0.000114604
-3.67358e-05
0.000128031
-4.02783e-05
0.000142836
-4.44138e-05
0.00015883
-4.79788e-05
0.000175894
-5.11935e-05
0.000193969
-5.42214e-05
0.000212897
-5.67801e-05
0.000232362
-5.83905e-05
0.000252307
-5.9819e-05
0.000272313
-5.99911e-05
0.000292098
-5.93233e-05
0.000311269
-5.74781e-05
0.000329304
-5.41108e-05
0.000345986
-5.01114e-05
0.000360865
-4.48246e-05
0.000373532
-3.83877e-05
0.000383929
-3.17572e-05
0.000391687
-2.40625e-05
0.000396689
-1.58655e-05
0.000398889
-6.48474e-06
0.000398525
2.41584e-06
0.000396131
8.58938e-06
0.000391612
1.40439e-05
0.000385239
1.91592e-05
0.000377086
2.44423e-05
0.000367114
2.98903e-05
0.000355718
3.41519e-05
0.00034303
3.80261e-05
0.000329121
4.16841e-05
0.000314444
4.3989e-05
0.000299051
4.614e-05
0.000283313
4.71758e-05
0.000267323
4.79325e-05
0.000251182
4.83887e-05
0.000235223
4.78494e-05
0.000219507
4.71213e-05
0.00020412
4.61369e-05
0.0001893
4.44388e-05
0.000175063
4.26934e-05
0.000161568
4.04729e-05
0.000148824
3.82206e-05
0.000136869
3.5857e-05
0.00012579
3.32345e-05
0.000115568
3.06668e-05
0.000106196
2.81166e-05
9.76854e-05
2.55383e-05
8.99826e-05
2.31164e-05
8.30584e-05
2.07822e-05
7.68454e-05
1.86498e-05
7.12811e-05
1.67047e-05
6.63086e-05
1.49287e-05
6.18547e-05
1.33714e-05
5.78546e-05
1.20087e-05
5.42564e-05
1.07999e-05
5.10041e-05
9.75727e-06
4.80595e-05
8.83039e-06
4.5396e-05
7.98321e-06
4.29935e-05
7.19461e-06
4.08495e-05
6.41518e-06
3.89695e-05
5.63124e-06
3.73673e-05
4.80362e-06
3.6071e-05
3.89476e-06
3.51025e-05
2.91003e-06
3.4501e-05
1.80401e-06
3.43154e-05
5.54192e-07
3.46286e-05
-9.40323e-07
3.54624e-05
-2.50449e-06
3.68455e-05
-4.15096e-06
3.87954e-05
-5.85088e-06
4.13557e-05
-7.68327e-06
4.45335e-05
-9.53598e-06
4.8323e-05
-1.13728e-05
5.27895e-05
-1.34009e-05
5.78891e-05
-1.52989e-05
6.3697e-05
-1.74241e-05
7.01695e-05
-1.94196e-05
7.72558e-05
-2.12611e-05
8.50962e-05
-2.35181e-05
9.36346e-05
-2.56106e-05
-2.76185e-05
2.09503e-05
2.70243e-05
1.51309e-05
2.32907e-05
1.01973e-05
1.97502e-05
6.11459e-06
1.63406e-05
2.85113e-06
1.3039e-05
3.58793e-07
9.82475e-06
-1.4523e-06
7.39939e-06
-2.53699e-06
4.3763e-06
-2.91881e-06
1.56537e-06
-2.61237e-06
-1.20235e-06
-1.67597e-06
-3.72499e-06
-2.58314e-07
-5.67225e-06
1.58623e-06
-7.30517e-06
3.99162e-06
-9.56712e-06
6.93105e-06
-1.16863e-05
1.03353e-05
-1.35768e-05
1.40365e-05
-1.47971e-05
1.82585e-05
-1.6888e-05
2.29934e-05
-1.89609e-05
2.80584e-05
-2.029e-05
3.37121e-05
-2.26463e-05
4.00007e-05
-2.51997e-05
4.67169e-05
-2.69149e-05
5.41273e-05
-2.96835e-05
6.21817e-05
-3.22547e-05
7.09758e-05
-3.52039e-05
8.0637e-05
-3.86642e-05
9.08202e-05
-4.07695e-05
0.000101861
-4.4178e-05
0.000113852
-4.79599e-05
0.00012641
-5.02623e-05
0.000139802
-5.3573e-05
0.000153893
-5.63569e-05
0.000168747
-5.93951e-05
0.000184449
-6.27371e-05
0.000200465
-6.40473e-05
0.000216992
-6.60558e-05
0.000234049
-6.81254e-05
0.000251118
-6.82273e-05
0.000268267
-6.85235e-05
0.000285256
-6.78596e-05
0.000301863
-6.63349e-05
0.000317992
-6.43425e-05
0.000333173
-6.0616e-05
0.000347247
-5.61925e-05
0.000360117
-5.1293e-05
0.000371349
-4.48435e-05
0.000380808
-3.77625e-05
0.000388477
-3.05196e-05
0.000393987
-2.2009e-05
0.000397368
-1.34749e-05
0.000398516
-4.53967e-06
0.000397372
4.46076e-06
0.000394233
1.26109e-05
0.000388833
2.16481e-05
0.000381322
2.99951e-05
0.00037201
3.71743e-05
0.000360786
4.4807e-05
0.000347948
5.12487e-05
0.00033366
5.70403e-05
0.000318173
6.18233e-05
0.000301758
6.55353e-05
0.000284549
6.87049e-05
0.000266855
7.06543e-05
0.000248933
7.15709e-05
0.000230914
7.19743e-05
0.000213013
7.15109e-05
0.000195371
7.04779e-05
0.000178174
6.87232e-05
0.000161517
6.66306e-05
0.000145296
6.49409e-05
0.00012945
6.34926e-05
0.000113975
6.20645e-05
9.88583e-05
6.06489e-05
8.41646e-05
5.89862e-05
7.00374e-05
5.67387e-05
5.6481e-05
5.4444e-05
4.37597e-05
5.11104e-05
3.20246e-05
4.71783e-05
2.12322e-05
4.34834e-05
1.15691e-05
3.89506e-05
3.35316e-06
3.32793e-05
-3.27538e-06
2.62282e-05
-9.19702e-06
2.38004e-05
-1.41531e-05
2.0038e-05
-1.83007e-05
1.6763e-05
-2.16672e-05
1.36184e-05
-2.43737e-05
1.09559e-05
-2.64091e-05
8.23847e-06
-2.78427e-05
5.79086e-06
-2.86775e-05
3.37415e-06
-2.89298e-05
1.03378e-06
-2.85626e-05
-1.42045e-06
-2.77028e-05
-3.45798e-06
-2.63197e-05
-5.56589e-06
-2.44886e-05
-7.35064e-06
-2.21108e-05
-9.25373e-06
-1.9374e-05
-1.10362e-05
-1.61759e-05
-1.27636e-05
-1.25672e-05
-1.43225e-05
-8.62576e-06
-1.58592e-05
-4.25494e-06
-1.75026e-05
5.66118e-07
-1.91859e-05
5.75377e-06
-2.08509e-05
1.14222e-05
-2.27096e-05
1.75658e-05
-2.46197e-05
2.42818e-05
-2.67708e-05
3.14544e-05
-2.8894e-05
3.92927e-05
-3.12867e-05
4.7696e-05
-3.36697e-05
5.6699e-05
-3.60966e-05
6.63394e-05
-3.85748e-05
7.66024e-05
-4.10744e-05
8.74764e-05
-4.34304e-05
9.88761e-05
-4.57647e-05
0.000110907
-4.80637e-05
0.000123424
-5.01365e-05
0.000136448
-5.21328e-05
0.000149943
-5.39017e-05
0.000163764
-5.53775e-05
0.000177914
-5.65599e-05
0.000192271
-5.73266e-05
0.000206659
-5.75749e-05