/*--------------------------------*- C++ -*----------------------------------*\
| =========                 |                                                 |
| \\      /  F ield         | OpenFOAM: The Open Source CFD Toolbox           |
|  \\    /   O peration     | Version:  3.0.1                                 |
|   \\  /    A nd           | Web:      www.OpenFOAM.org                      |
|    \\/     M anipulation  |                                                 |
\*---------------------------------------------------------------------------*/
FoamFile
{
    version     2.0;
    format      ascii;
    class       volVectorField;
    location    "78";
    object      U;
}
// * * * * * * * * * * * * * * * * * * * * * * * * * * * * * * * * * * * * * //

dimensions      [0 1 -1 0 0 0 0];

internalField   nonuniform List<vector> 
21420
(
(-0.134537 0.00099503 0)
(-0.142826 0.000894703 0)
(-0.151399 0.000803441 0)
(-0.15904 0.000714331 0)
(-0.165793 0.000625599 0)
(-0.171685 0.000542753 0)
(-0.176749 0.00046122 0)
(-0.181014 0.00038391 0)
(-0.184505 0.000308628 0)
(-0.187245 0.000234792 0)
(-0.189262 0.000162157 0)
(-0.190546 9.1524e-05 0)
(-0.191122 2.36885e-05 0)
(-0.191001 -4.80108e-05 0)
(-0.190151 -0.0001205 0)
(-0.188582 -0.000192566 0)
(-0.186271 -0.000266377 0)
(-0.183206 -0.000342918 0)
(-0.179363 -0.000420897 0)
(-0.174715 -0.000501381 0)
(-0.169232 -0.000587597 0)
(-0.162881 -0.000674221 0)
(-0.155625 -0.000763615 0)
(-0.147428 -0.000862242 0)
(-0.138257 -0.000957523 0)
(-0.128083 -0.00106432 0)
(-0.116887 -0.00116243 0)
(-0.104656 -0.00125996 0)
(-0.091386 -0.00137302 0)
(-0.0770926 -0.00146555 0)
(-0.0618035 -0.00155238 0)
(-0.0455569 -0.00165816 0)
(-0.0284743 -0.00172647 0)
(-0.0106617 -0.00181543 0)
(0.00777057 -0.00185736 0)
(0.0266467 -0.00188074 0)
(0.0458184 -0.0019219 0)
(0.065089 -0.00190747 0)
(0.0842071 -0.00186754 0)
(0.102931 -0.00183615 0)
(0.12102 -0.0017497 0)
(0.138214 -0.00166069 0)
(0.154258 -0.0015264 0)
(0.168898 -0.0013682 0)
(0.181892 -0.00119876 0)
(0.193027 -0.00100065 0)
(0.202122 -0.000786749 0)
(0.209046 -0.000565324 0)
(0.213664 -0.000328545 0)
(0.215846 -8.70497e-05 0)
(0.21566 0.000147289 0)
(0.212959 0.000394437 0)
(0.207842 0.000612811 0)
(0.200472 0.000831463 0)
(0.190945 0.00104698 0)
(0.179461 0.00121696 0)
(0.166136 0.00138759 0)
(0.151232 0.00154343 0)
(0.135085 0.00164574 0)
(0.117797 0.00174677 0)
(0.0995889 0.00181008 0)
(0.0808714 0.00186477 0)
(0.0618995 0.00188757 0)
(0.042757 0.00188403 0)
(0.0235424 0.00187051 0)
(0.00509641 0.00183028 0)
(-0.0126866 0.00178023 0)
(-0.0302738 0.00172039 0)
(-0.047221 0.00164243 0)
(-0.0634343 0.0015644 0)
(-0.0787845 0.0014716 0)
(-0.0932011 0.00137889 0)
(-0.106683 0.00128679 0)
(-0.119178 0.00117988 0)
(-0.130661 0.00108013 0)
(-0.141099 0.00098077 0)
(-0.150533 0.000875482 0)
(-0.15895 0.000786461 0)
(-0.166306 0.00067971 0)
(-0.172725 0.000584282 0)
(-0.178199 0.000491043 0)
(-0.182611 0.00038736 0)
(-0.186098 0.000296225 0)
(-0.188656 0.000203733 0)
(-0.190203 0.000108778 0)
(-0.190907 1.42648e-05 0)
(-0.190579 -7.26763e-05 0)
(-0.189265 -0.000176027 0)
(-0.187083 -0.000256552 0)
(-0.184032 -0.000342014 0)
(-0.180201 -0.000411096 0)
(-0.175697 -0.000476643 0)
(-0.170571 -0.00053512 0)
(-0.164869 -0.000588209 0)
(-0.158651 -0.00064526 0)
(-0.15185 -0.000701985 0)
(-0.144427 -0.000759549 0)
(-0.136409 -0.000828035 0)
(-0.12775 -0.00089599 0)
(-0.118329 -0.000968287 0)
(-0.108092 -0.00105397 0)
(-0.0971 -0.00112775 0)
(-0.0852927 -0.00121612 0)
(-0.0725966 -0.00129879 0)
(-0.0591077 -0.0013779 0)
(-0.044847 -0.00145253 0)
(-0.0298302 -0.00152384 0)
(-0.0141285 -0.00158133 0)
(0.00215075 -0.00163955 0)
(0.0189361 -0.00168266 0)
(0.0360821 -0.00171527 0)
(0.0534631 -0.00173544 0)
(0.0709503 -0.00172992 0)
(0.0883305 -0.00170848 0)
(0.105389 -0.00167013 0)
(0.121938 -0.00160973 0)
(0.137749 -0.00151998 0)
(0.152559 -0.00141384 0)
(0.166143 -0.00127755 0)
(0.178246 -0.00112053 0)
(0.188638 -0.000934743 0)
(0.197071 -0.000733796 0)
(0.203375 -0.000517069 0)
(0.207388 -0.000279282 0)
(0.208987 -4.52807e-05 0)
(0.208218 0.000197824 0)
(0.204843 0.000455837 0)
(0.199056 0.000693214 0)
(0.190937 0.000914815 0)
(0.180653 0.00111956 0)
(0.168371 0.00131546 0)
(0.154296 0.0014778 0)
(0.138671 0.00162079 0)
(0.121774 0.00172683 0)
(0.103891 0.00181392 0)
(0.0853002 0.00187456 0)
(0.0662635 0.00189646 0)
(0.0470569 0.00190749 0)
(0.0279138 0.00189514 0)
(0.00906767 0.00184692 0)
(-0.00925458 0.00179029 0)
(-0.0269292 0.00171614 0)
(-0.0437978 0.00163084 0)
(-0.0597046 0.00153111 0)
(-0.0746249 0.00142868 0)
(-0.0884864 0.00132233 0)
(-0.101253 0.00121386 0)
(-0.11292 0.00110534 0)
(-0.123525 0.000996849 0)
(-0.133092 0.000895711 0)
(-0.141642 0.00080998 0)
(-0.149271 0.000711931 0)
(-0.156015 0.000626433 0)
(-0.161919 0.000546504 0)
(-0.16704 0.000467503 0)
(-0.171388 0.000397816 0)
(-0.175027 0.000329461 0)
(-0.177999 0.000262267 0)
(-0.180315 0.000196852 0)
(-0.181995 0.000134052 0)
(-0.18304 7.39894e-05 0)
(-0.183507 2.51202e-05 0)
(-0.183358 -4.88632e-05 0)
(-0.182606 -9.9782e-05 0)
(-0.18125 -0.000168959 0)
(-0.179299 -0.000217747 0)
(-0.176698 -0.000285314 0)
(-0.173523 -0.000348372 0)
(-0.169665 -0.000412567 0)
(-0.165128 -0.000481073 0)
(-0.159909 -0.000549195 0)
(-0.153954 -0.000628987 0)
(-0.147237 -0.00069951 0)
(-0.139785 -0.000780414 0)
(-0.131516 -0.000859195 0)
(-0.12242 -0.000934206 0)
(-0.112566 -0.00101663 0)
(-0.101863 -0.00110482 0)
(-0.090303 -0.00118614 0)
(-0.0779212 -0.0012687 0)
(-0.0647292 -0.00135152 0)
(-0.0507287 -0.00142303 0)
(-0.0359741 -0.00149768 0)
(-0.0205373 -0.0015644 0)
(-0.00446581 -0.00161472 0)
(0.0120858 -0.00165896 0)
(0.0289742 -0.00168858 0)
(0.0460424 -0.0016942 0)
(0.0631023 -0.00168759 0)
(0.0799766 -0.00165695 0)
(0.0964326 -0.00160474 0)
(0.112236 -0.00152534 0)
(0.127109 -0.0014232 0)
(0.140825 -0.00129643 0)
(0.153134 -0.00114035 0)
(0.163804 -0.000973885 0)
(0.172669 -0.000783029 0)
(0.179535 -0.000577383 0)
(0.184269 -0.000360037 0)
(0.18676 -0.000136525 0)
(0.18697 9.59175e-05 0)
(0.184805 0.000328452 0)
(0.180236 0.000562775 0)
(0.173468 0.000778199 0)
(0.164584 0.000983017 0)
(0.153746 0.00116271 0)
(0.141196 0.00132074 0)
(0.127176 0.00146053 0)
(0.111895 0.00157234 0)
(0.0956375 0.00165563 0)
(0.0786271 0.00172123 0)
(0.0610723 0.00175677 0)
(0.0432481 0.00177461 0)
(0.0253553 0.00177176 0)
(0.00759852 0.0017508 0)
(-0.0098151 0.00170863 0)
(-0.0267116 0.00164673 0)
(-0.0429364 0.00157246 0)
(-0.0583535 0.00148747 0)
(-0.0728699 0.0013988 0)
(-0.0864589 0.0013014 0)
(-0.0990736 0.00120114 0)
(-0.110724 0.0011095 0)
(-0.121404 0.00101093 0)
(-0.13113 0.000919742 0)
(-0.139957 0.000833737 0)
(-0.147878 0.00074172 0)
(-0.154912 0.000654703 0)
(-0.161074 0.000567625 0)
(-0.166385 0.000488042 0)
(-0.170911 0.000416147 0)
(-0.174696 0.000340828 0)
(-0.177804 0.000280064 0)
(-0.180306 0.000214325 0)
(-0.182234 0.000161098 0)
(-0.183614 0.000113704 0)
(-0.184464 6.10262e-05 0)
(-0.184854 1.65923e-05 0)
(-0.184714 -4.05289e-05 0)
(-0.184075 -8.61126e-05 0)
(-0.182905 -0.000137753 0)
(-0.181154 -0.000206103 0)
(-0.17881 -0.000259914 0)
(-0.175822 -0.000326582 0)
(-0.172174 -0.000392383 0)
(-0.167886 -0.000458536 0)
(-0.162964 -0.000521155 0)
(-0.157437 -0.000573368 0)
(-0.151333 -0.000634226 0)
(-0.144612 -0.000698283 0)
(-0.137229 -0.000763526 0)
(-0.12919 -0.000832357 0)
(-0.120441 -0.000901954 0)
(-0.110952 -0.000976272 0)
(-0.100749 -0.00104952 0)
(-0.089789 -0.00111954 0)
(-0.0781439 -0.00118656 0)
(-0.0657903 -0.00126094 0)
(-0.0527477 -0.00132259 0)
(-0.0391069 -0.00138274 0)
(-0.0248506 -0.00144288 0)
(-0.0100387 -0.00149257 0)
(0.00523137 -0.00152635 0)
(0.0208274 -0.00154848 0)
(0.0365678 -0.0015585 0)
(0.0522901 -0.00154104 0)
(0.0677231 -0.00151006 0)
(0.0827187 -0.0014525 0)
(0.0971383 -0.0013744 0)
(0.110592 -0.00127887 0)
(0.123014 -0.00116644 0)
(0.134169 -0.00103185 0)
(0.143932 -0.000890005 0)
(0.152236 -0.00073442 0)
(0.158793 -0.00056042 0)
(0.163688 -0.000394264 0)
(0.16687 -0.000212431 0)
(0.168107 -4.01295e-05 0)
(0.167662 0.000141161 0)
(0.165505 0.000323838 0)
(0.161477 0.000497106 0)
(0.155761 0.000660128 0)
(0.148365 0.000827069 0)
(0.139346 0.000984019 0)
(0.12881 0.00112979 0)
(0.116772 0.00126511 0)
(0.103453 0.00137499 0)
(0.0891566 0.00146482 0)
(0.0741778 0.00153708 0)
(0.0584682 0.00156779 0)
(0.0425303 0.00158777 0)
(0.0266451 0.00157329 0)
(0.010867 0.00153894 0)
(-0.00401871 0.00150779 0)
(-0.0182884 0.00144332 0)
(-0.0322268 0.00136571 0)
(-0.0454339 0.00128515 0)
(-0.0578067 0.00119647 0)
(-0.0692908 0.00110241 0)
(-0.0798586 0.0010103 0)
(-0.0895033 0.000916037 0)
(-0.0982414 0.000827034 0)
(-0.106096 0.000740147 0)
(-0.113115 0.000658326 0)
(-0.119346 0.000583256 0)
(-0.124843 0.00051323 0)
(-0.129673 0.000449286 0)
(-0.133893 0.000391328 0)
(-0.137561 0.000337228 0)
(-0.140719 0.000289071 0)
(-0.143407 0.000244858 0)
(-0.145663 0.000201871 0)
(-0.147499 0.000161147 0)
(-0.148929 0.00012021 0)
(-0.149954 7.91195e-05 0)
(-0.150541 3.96889e-05 0)
(-0.150701 -7.14313e-06 0)
(-0.150371 -5.78006e-05 0)
(-0.149509 -0.000112434 0)
(-0.148076 -0.000172291 0)
(-0.146019 -0.00023702 0)
(-0.143271 -0.000306929 0)
(-0.139784 -0.00038371 0)
(-0.135508 -0.000463724 0)
(-0.130392 -0.000550949 0)
(-0.124399 -0.000638754 0)
(-0.117491 -0.000729178 0)
(-0.109642 -0.000826951 0)
(-0.100845 -0.000918533 0)
(-0.091101 -0.00100866 0)
(-0.080418 -0.00110748 0)
(-0.0688259 -0.00119128 0)
(-0.0563662 -0.00126907 0)
(-0.0430901 -0.00135713 0)
(-0.029075 -0.00142036 0)
(-0.0144923 -0.00149445 0)
(0.000733111 -0.00153043 0)
(0.0164623 -0.00155944 0)
(0.0324018 -0.00159758 0)
(0.0484967 -0.00159602 0)
(0.0645779 -0.00157747 0)
(0.080481 -0.00156678 0)
(0.0960345 -0.00151459 0)
(0.111064 -0.00146756 0)
(0.125395 -0.00138183 0)
(0.138854 -0.00128074 0)
(0.151277 -0.00117981 0)
(0.162513 -0.00104975 0)
(0.172418 -0.000908473 0)
(0.180865 -0.000762918 0)
(0.187752 -0.000602019 0)
(0.192995 -0.000437042 0)
(0.196534 -0.000265635 0)
(0.198338 -9.15375e-05 0)
(0.198381 8.10099e-05 0)
(0.196739 0.000251273 0)
(0.192728 0.000417192 0)
(-0.134576 0.00298499 0)
(-0.142863 0.00268398 0)
(-0.151435 0.00241018 0)
(-0.159075 0.00214283 0)
(-0.165827 0.00187663 0)
(-0.171718 0.00162804 0)
(-0.17678 0.00138342 0)
(-0.181044 0.00115149 0)
(-0.184535 0.000925648 0)
(-0.187274 0.00070413 0)
(-0.189289 0.000486225 0)
(-0.190575 0.000274046 0)
(-0.19115 7.14049e-05 0)
(-0.191029 -0.000144061 0)
(-0.19018 -0.000361698 0)
(-0.188611 -0.000577837 0)
(-0.186301 -0.000799191 0)
(-0.183237 -0.00102876 0)
(-0.179395 -0.00126267 0)
(-0.174748 -0.00150408 0)
(-0.169267 -0.00176269 0)
(-0.162917 -0.00202255 0)
(-0.155663 -0.00229071 0)
(-0.147467 -0.0025866 0)
(-0.138297 -0.00287244 0)
(-0.128125 -0.00319286 0)
(-0.11693 -0.00348721 0)
(-0.104699 -0.00377985 0)
(-0.0914287 -0.00411909 0)
(-0.077134 -0.00439679 0)
(-0.0618428 -0.00465732 0)
(-0.0455937 -0.00497488 0)
(-0.0285071 -0.00517993 0)
(-0.01069 -0.00544684 0)
(0.00774836 -0.00557254 0)
(0.026631 -0.00564296 0)
(0.0458107 -0.00576661 0)
(0.0650898 -0.00572336 0)
(0.0842168 -0.00560367 0)
(0.102951 -0.00550961 0)
(0.12105 -0.00525 0)
(0.138256 -0.00498389 0)
(0.15431 -0.00458031 0)
(0.168959 -0.00410496 0)
(0.181964 -0.00359678 0)
(0.193104 -0.00300659 0)
(0.202211 -0.00235859 0)
(0.209139 -0.00169365 0)
(0.213757 -0.000993126 0)
(0.215956 -0.000256377 0)
(0.215762 0.000442275 0)
(0.213052 0.00118332 0)
(0.207939 0.00183804 0)
(0.200568 0.00249457 0)
(0.191037 0.00314137 0)
(0.179546 0.00365133 0)
(0.166216 0.00416338 0)
(0.151303 0.00463127 0)
(0.135146 0.00493829 0)
(0.11785 0.00524096 0)
(0.0996324 0.00543119 0)
(0.0809026 0.00559582 0)
(0.0619202 0.0056637 0)
(0.0427689 0.00565313 0)
(0.0235431 0.00561225 0)
(0.00508921 0.00549285 0)
(-0.0127014 0.00534216 0)
(-0.0302976 0.00516132 0)
(-0.0472496 0.00492948 0)
(-0.0634712 0.00469562 0)
(-0.078827 0.004415 0)
(-0.0932454 0.00413652 0)
(-0.106734 0.00386089 0)
(-0.119232 0.00354112 0)
(-0.130716 0.00324155 0)
(-0.141157 0.00294369 0)
(-0.150589 0.0026273 0)
(-0.159014 0.00235792 0)
(-0.166367 0.00203779 0)
(-0.172788 0.00175268 0)
(-0.178261 0.00147337 0)
(-0.182671 0.00116595 0)
(-0.186161 0.000884575 0)
(-0.188716 0.00060473 0)
(-0.190263 0.000327221 0)
(-0.190958 4.26929e-05 0)
(-0.190633 -0.000223136 0)
(-0.189304 -0.000527107 0)
(-0.18713 -0.000778154 0)
(-0.184061 -0.0010194 0)
(-0.18023 -0.00123993 0)
(-0.175715 -0.00143457 0)
(-0.170581 -0.00160885 0)
(-0.164873 -0.00177355 0)
(-0.15865 -0.00194114 0)
(-0.151846 -0.00210944 0)
(-0.144435 -0.00228244 0)
(-0.136432 -0.00248271 0)
(-0.127788 -0.00271266 0)
(-0.11835 -0.00289794 0)
(-0.10812 -0.00314916 0)
(-0.0971518 -0.00339766 0)
(-0.0853222 -0.00364566 0)
(-0.0726347 -0.00388374 0)
(-0.0591482 -0.00413558 0)
(-0.0448914 -0.004361 0)
(-0.0298768 -0.00456845 0)
(-0.0141826 -0.00476345 0)
(0.0021161 -0.0049226 0)
(0.0189108 -0.00505574 0)
(0.0360631 -0.00514409 0)
(0.0534492 -0.00520298 0)
(0.0709368 -0.00519442 0)
(0.0883268 -0.00514057 0)
(0.105402 -0.00501446 0)
(0.121962 -0.00482558 0)
(0.137775 -0.00457124 0)
(0.152602 -0.00423968 0)
(0.166193 -0.00383786 0)
(0.178307 -0.00335363 0)
(0.188691 -0.00281659 0)
(0.197137 -0.00220388 0)
(0.203441 -0.00154332 0)
(0.207445 -0.000842118 0)
(0.209049 -0.0001257 0)
(0.208255 0.000599259 0)
(0.204865 0.00136366 0)
(0.199072 0.0020724 0)
(0.190946 0.00273973 0)
(0.18064 0.00337542 0)
(0.168323 0.00394305 0)
(0.154227 0.00443219 0)
(0.138587 0.00485636 0)
(0.121679 0.00519062 0)
(0.103773 0.00544355 0)
(0.0851621 0.00562019 0)
(0.0661089 0.00570467 0)
(0.0468752 0.00572015 0)
(0.0277214 0.0056792 0)
(0.00886154 0.00554529 0)
(-0.00947101 0.00536802 0)
(-0.0271608 0.00514849 0)
(-0.0440337 0.00487927 0)
(-0.0599325 0.00460159 0)
(-0.0748522 0.00429112 0)
(-0.0887176 0.00396679 0)
(-0.101482 0.0036384 0)
(-0.113148 0.00331167 0)
(-0.123753 0.00299295 0)
(-0.133316 0.00267947 0)
(-0.141867 0.00242486 0)
(-0.149487 0.00212832 0)
(-0.15622 0.0018843 0)
(-0.162123 0.00162483 0)
(-0.167223 0.00139901 0)
(-0.171559 0.00119724 0)
(-0.175197 0.000980718 0)
(-0.178159 0.000781053 0)
(-0.18047 0.00059204 0)
(-0.182154 0.000408683 0)
(-0.183197 0.000209751 0)
(-0.183658 6.45099e-05 0)
(-0.183504 -0.000153495 0)
(-0.182735 -0.000293627 0)
(-0.181389 -0.000503967 0)
(-0.179434 -0.000656714 0)
(-0.176833 -0.000853586 0)
(-0.173658 -0.0010471 0)
(-0.169792 -0.00124497 0)
(-0.165244 -0.00144699 0)
(-0.160031 -0.00165792 0)
(-0.154065 -0.0018853 0)
(-0.147352 -0.00209816 0)
(-0.139899 -0.00234682 0)
(-0.131622 -0.00257631 0)
(-0.122542 -0.00282326 0)
(-0.112669 -0.00305789 0)
(-0.101963 -0.00331146 0)
(-0.0903973 -0.0035536 0)
(-0.0780143 -0.00380652 0)
(-0.0648165 -0.00405681 0)
(-0.0508084 -0.00427362 0)
(-0.0360509 -0.00449455 0)
(-0.0206069 -0.00469018 0)
(-0.00454478 -0.00485849 0)
(0.0120228 -0.0049849 0)
(0.0289241 -0.00505801 0)
(0.0459845 -0.00509489 0)
(0.0630627 -0.00506506 0)
(0.0799501 -0.0049747 0)
(0.0964162 -0.00480979 0)
(0.112223 -0.00458114 0)
(0.127106 -0.00427014 0)
(0.140822 -0.00388689 0)
(0.153133 -0.00343095 0)
(0.163817 -0.00291677 0)
(0.172679 -0.00234607 0)
(0.179542 -0.00172918 0)
(0.184273 -0.0010788 0)
(0.186761 -0.000413463 0)
(0.186964 0.000283919 0)
(0.184779 0.000986336 0)
(0.180206 0.00168903 0)
(0.173421 0.00233547 0)
(0.16452 0.0029462 0)
(0.153672 0.00349325 0)
(0.141111 0.0039748 0)
(0.127076 0.00437886 0)
(0.111775 0.00471452 0)
(0.0954967 0.00496322 0)
(0.0784736 0.00515961 0)
(0.0609161 0.00527638 0)
(0.0430812 0.00533184 0)
(0.0251762 0.00531 0)
(0.00741072 0.00525486 0)
(-0.0100101 0.00511609 0)
(-0.0269096 0.00494276 0)
(-0.0431391 0.0047161 0)
(-0.0585559 0.00446679 0)
(-0.0730824 0.00418324 0)
(-0.0866597 0.00390052 0)
(-0.0992715 0.00361037 0)
(-0.110921 0.0033166 0)
(-0.121587 0.00303786 0)
(-0.131317 0.0027583 0)
(-0.140141 0.00249313 0)
(-0.148049 0.00222735 0)
(-0.155077 0.00196168 0)
(-0.161242 0.00170667 0)
(-0.166551 0.00144748 0)
(-0.171064 0.00124616 0)
(-0.174848 0.00101939 0)
(-0.177953 0.000836267 0)
(-0.180444 0.000649555 0)
(-0.182371 0.000484254 0)
(-0.183742 0.00034414 0)
(-0.184594 0.000184759 0)
(-0.184985 4.0231e-05 0)
(-0.18484 -0.000117661 0)
(-0.184209 -0.000270061 0)
(-0.183037 -0.000427256 0)
(-0.181275 -0.000609871 0)
(-0.178948 -0.000790029 0)
(-0.175955 -0.000982651 0)
(-0.172302 -0.00117828 0)
(-0.168014 -0.0013701 0)
(-0.163095 -0.00155416 0)
(-0.157575 -0.00172951 0)
(-0.151472 -0.00190863 0)
(-0.144751 -0.00209191 0)
(-0.137366 -0.00228785 0)
(-0.129335 -0.0025033 0)
(-0.12057 -0.00270495 0)
(-0.11109 -0.00293277 0)
(-0.100871 -0.00314334 0)
(-0.0899174 -0.00336516 0)
(-0.0782603 -0.00356967 0)
(-0.0658913 -0.00378241 0)
(-0.0528438 -0.00396936 0)
(-0.0391907 -0.00415639 0)
(-0.0249177 -0.00432693 0)
(-0.0101001 -0.00446615 0)
(0.00517078 -0.00459593 0)
(0.0207922 -0.0046493 0)
(0.0365401 -0.00466924 0)
(0.0522732 -0.00463208 0)
(0.0677303 -0.00453323 0)
(0.0827375 -0.00435192 0)
(0.0971636 -0.00412875 0)
(0.110635 -0.00383302 0)
(0.123065 -0.00350185 0)
(0.134233 -0.00309762 0)
(0.143998 -0.0026755 0)
(0.152321 -0.00220043 0)
(0.158877 -0.00168014 0)
(0.163775 -0.00118497 0)
(0.166965 -0.000638411 0)
(0.168201 -0.000120423 0)
(0.167755 0.000424795 0)
(0.165595 0.000973313 0)
(0.161565 0.0014887 0)
(0.15585 0.00198123 0)
(0.14845 0.00248132 0)
(0.139428 0.00295349 0)
(0.128886 0.00338896 0)
(0.11684 0.00379596 0)
(0.103512 0.00412684 0)
(0.0892072 0.0043959 0)
(0.0742159 0.00461294 0)
(0.0584941 0.00470508 0)
(0.0425439 0.00476452 0)
(0.0266488 0.00472158 0)
(0.0108649 0.00461749 0)
(-0.00402837 0.00452459 0)
(-0.0183078 0.00433015 0)
(-0.0322504 0.00409691 0)
(-0.0454615 0.0038556 0)
(-0.0578371 0.00359008 0)
(-0.0693226 0.00330856 0)
(-0.0798915 0.0030308 0)
(-0.0895362 0.0027484 0)
(-0.0982735 0.00248131 0)
(-0.106127 0.00222106 0)
(-0.113144 0.00197472 0)
(-0.119373 0.00174934 0)
(-0.124868 0.00153977 0)
(-0.129696 0.00134786 0)
(-0.133915 0.00117367 0)
(-0.13758 0.00101183 0)
(-0.140737 0.000867692 0)
(-0.143424 0.000733876 0)
(-0.145679 0.000605543 0)
(-0.147515 0.000483904 0)
(-0.148945 0.000361685 0)
(-0.149971 0.000237454 0)
(-0.15056 0.000118706 0)
(-0.150721 -2.15262e-05 0)
(-0.150393 -0.000173369 0)
(-0.149532 -0.000337062 0)
(-0.148102 -0.000516776 0)
(-0.146046 -0.000710799 0)
(-0.143301 -0.000920535 0)
(-0.139817 -0.00115089 0)
(-0.135542 -0.00139096 0)
(-0.130428 -0.00165267 0)
(-0.124436 -0.00191614 0)
(-0.117529 -0.00218742 0)
(-0.109681 -0.00248079 0)
(-0.100884 -0.00275559 0)
(-0.0911392 -0.00302602 0)
(-0.0804556 -0.00332255 0)
(-0.0688617 -0.00357402 0)
(-0.0563995 -0.00380741 0)
(-0.0431212 -0.00407166 0)
(-0.0291025 -0.00426145 0)
(-0.0145149 -0.00448403 0)
(0.000715343 -0.00459143 0)
(0.0164488 -0.0046789 0)
(0.0323943 -0.00479337 0)
(0.0484957 -0.00478871 0)
(0.0645835 -0.00473307 0)
(0.0804938 -0.00470103 0)
(0.096054 -0.00454445 0)
(0.111091 -0.00440339 0)
(0.125429 -0.00414615 0)
(0.138894 -0.00384285 0)
(0.151324 -0.00354006 0)
(0.162565 -0.00314978 0)
(0.172474 -0.00272588 0)
(0.180927 -0.00228915 0)
(0.187817 -0.00180636 0)
(0.193062 -0.00131131 0)
(0.196601 -0.000796962 0)
(0.198407 -0.000273481 0)
(0.198452 0.000241888 0)
(0.196804 0.00075404 0)
(0.192792 0.00125169 0)
(-0.134653 0.00497467 0)
(-0.142938 0.00447291 0)
(-0.151508 0.00401655 0)
(-0.159146 0.00357096 0)
(-0.165894 0.00312728 0)
(-0.171783 0.00271296 0)
(-0.176843 0.00230526 0)
(-0.181105 0.00191874 0)
(-0.184594 0.00154238 0)
(-0.187331 0.00117323 0)
(-0.189344 0.000810405 0)
(-0.190632 0.000455797 0)
(-0.191206 0.000119062 0)
(-0.191086 -0.00024024 0)
(-0.190238 -0.000602762 0)
(-0.188669 -0.000963076 0)
(-0.186361 -0.00133183 0)
(-0.183298 -0.00171435 0)
(-0.179458 -0.00210413 0)
(-0.174814 -0.00250643 0)
(-0.169336 -0.00293743 0)
(-0.162988 -0.00337048 0)
(-0.155736 -0.00381742 0)
(-0.147544 -0.00431063 0)
(-0.138376 -0.00478706 0)
(-0.128206 -0.00532121 0)
(-0.117011 -0.00581188 0)
(-0.10478 -0.00629982 0)
(-0.0915098 -0.00686541 0)
(-0.0772119 -0.0073285 0)
(-0.0619159 -0.00776292 0)
(-0.0456614 -0.00829259 0)
(-0.028566 -0.0086349 0)
(-0.0107393 -0.00907993 0)
(0.00771181 -0.00928969 0)
(0.0266081 -0.00940747 0)
(0.0458043 -0.00961393 0)
(0.065101 -0.00954195 0)
(0.084246 -0.00934263 0)
(0.103002 -0.00918614 0)
(0.12112 -0.00875359 0)
(0.138349 -0.0083097 0)
(0.154422 -0.00763707 0)
(0.169089 -0.00684538 0)
(0.182111 -0.00599785 0)
(0.193268 -0.00501179 0)
(0.202386 -0.00393304 0)
(0.209322 -0.00282428 0)
(0.213949 -0.0016531 0)
(0.216157 -0.000427998 0)
(0.215947 0.00073287 0)
(0.213223 0.0019727 0)
(0.208113 0.00306347 0)
(0.200734 0.00415915 0)
(0.19119 0.00523791 0)
(0.179683 0.00608802 0)
(0.166338 0.00694161 0)
(0.151406 0.00772148 0)
(0.135229 0.00823415 0)
(0.117916 0.00873801 0)
(0.0996808 0.00905431 0)
(0.0809277 0.00932932 0)
(0.0619279 0.00944264 0)
(0.042763 0.00942432 0)
(0.0235186 0.00935382 0)
(0.00505395 0.00916001 0)
(-0.0127447 0.0089068 0)
(-0.0303528 0.00860536 0)
(-0.0473124 0.00821715 0)
(-0.063543 0.00782645 0)
(-0.0789016 0.00735951 0)
(-0.0933179 0.00689584 0)
(-0.106816 0.00643733 0)
(-0.119319 0.00589957 0)
(-0.130795 0.00540292 0)
(-0.141241 0.00490653 0)
(-0.15067 0.00437757 0)
(-0.159093 0.00393189 0)
(-0.166448 0.00340132 0)
(-0.17287 0.00291763 0)
(-0.178344 0.00245526 0)
(-0.182752 0.00194267 0)
(-0.186237 0.00147201 0)
(-0.18879 0.00101852 0)
(-0.190354 0.000540095 0)
(-0.191035 6.88022e-05 0)
(-0.190708 -0.000370214 0)
(-0.189385 -0.000879943 0)
(-0.187211 -0.00129536 0)
(-0.184145 -0.00170592 0)
(-0.180307 -0.00206756 0)
(-0.175786 -0.00238956 0)
(-0.170646 -0.00268493 0)
(-0.164935 -0.00294748 0)
(-0.158723 -0.00322912 0)
(-0.151934 -0.00351469 0)
(-0.144543 -0.00379998 0)
(-0.136561 -0.00414524 0)
(-0.127913 -0.00450153 0)
(-0.118499 -0.00483074 0)
(-0.108295 -0.00526211 0)
(-0.097325 -0.00565328 0)
(-0.0855082 -0.00607821 0)
(-0.0728323 -0.00648516 0)
(-0.0593438 -0.00688434 0)
(-0.0450926 -0.0072726 0)
(-0.0300784 -0.00762017 0)
(-0.0143699 -0.007929 0)
(0.00193503 -0.0081987 0)
(0.0187362 -0.00842163 0)
(0.0358927 -0.00858697 0)
(0.0532952 -0.00867869 0)
(0.070802 -0.0086555 0)
(0.0882076 -0.00855658 0)
(0.105296 -0.00836358 0)
(0.121876 -0.00805287 0)
(0.137713 -0.00761259 0)
(0.152558 -0.00707191 0)
(0.166173 -0.00639544 0)
(0.178296 -0.00559959 0)
(0.188702 -0.00469052 0)
(0.197163 -0.00366776 0)
(0.203471 -0.00257627 0)
(0.207481 -0.00140541 0)
(0.20909 -0.000208533 0)
(0.208279 0.0010029 0)
(0.204888 0.00227348 0)
(0.19909 0.00345913 0)
(0.19096 0.00457561 0)
(0.180629 0.0056349 0)
(0.168276 0.00657233 0)
(0.154158 0.00739507 0)
(0.138498 0.00809852 0)
(0.12156 0.00865133 0)
(0.10364 0.00907982 0)
(0.0849952 0.00938795 0)
(0.0658994 0.00950664 0)
(0.046645 0.00954549 0)
(0.0274691 0.0094594 0)
(0.00860694 0.00924585 0)
(-0.00973846 0.00896053 0)
(-0.0274449 0.00857605 0)
(-0.0443212 0.0081436 0)
(-0.0602333 0.00767377 0)
(-0.0751585 0.00714254 0)
(-0.0890212 0.0066087 0)
(-0.101785 0.00606401 0)
(-0.113457 0.00552414 0)
(-0.124056 0.0049859 0)
(-0.133612 0.00447983 0)
(-0.14217 0.00402981 0)
(-0.149783 0.00355476 0)
(-0.15651 0.00312921 0)
(-0.162403 0.00271156 0)
(-0.167493 0.00232917 0)
(-0.17183 0.00199152 0)
(-0.175458 0.00162684 0)
(-0.178413 0.00131499 0)
(-0.180725 0.00097583 0)
(-0.182413 0.000686633 0)
(-0.183452 0.00035613 0)
(-0.183909 0.000109514 0)
(-0.183757 -0.000246376 0)
(-0.182994 -0.000502259 0)
(-0.181649 -0.00083742 0)
(-0.179688 -0.00109649 0)
(-0.177104 -0.00142575 0)
(-0.173928 -0.00176019 0)
(-0.170053 -0.00206454 0)
(-0.165508 -0.0024118 0)
(-0.160299 -0.0027635 0)
(-0.15433 -0.00314068 0)
(-0.147627 -0.00350612 0)
(-0.140168 -0.00391148 0)
(-0.131887 -0.0042897 0)
(-0.122792 -0.00469298 0)
(-0.11293 -0.00509747 0)
(-0.102231 -0.0055228 0)
(-0.0906616 -0.0059222 0)
(-0.0782812 -0.00635209 0)
(-0.0650641 -0.00675754 0)
(-0.051047 -0.0071222 0)
(-0.0362911 -0.00749676 0)
(-0.0208431 -0.00782215 0)
(-0.00476264 -0.0080933 0)
(0.0118188 -0.0083022 0)
(0.0287223 -0.00843998 0)
(0.0458047 -0.00848906 0)
(0.0629092 -0.00844462 0)
(0.0798137 -0.00829422 0)
(0.0962947 -0.00802496 0)
(0.11213 -0.0076344 0)
(0.127033 -0.00711606 0)
(0.140762 -0.00648784 0)
(0.15309 -0.00571089 0)
(0.163786 -0.00486545 0)
(0.172661 -0.00391692 0)
(0.179535 -0.00288671 0)
(0.18428 -0.00179864 0)
(0.186777 -0.000678908 0)
(0.186963 0.00048205 0)
(0.184763 0.00164785 0)
(0.180194 0.0028189 0)
(0.173389 0.00389183 0)
(0.164478 0.00491668 0)
(0.15361 0.00582101 0)
(0.141035 0.00662446 0)
(0.126973 0.00731351 0)
(0.111645 0.00785763 0)
(0.0953454 0.00828092 0)
(0.0783111 0.0085996 0)
(0.0607343 0.00880364 0)
(0.0428716 0.00888273 0)
(0.0249561 0.00886136 0)
(0.00717669 0.00875429 0)
(-0.0102541 0.00852844 0)
(-0.0271726 0.00824411 0)
(-0.0434158 0.00786301 0)
(-0.0588348 0.00744134 0)
(-0.0733539 0.00697716 0)
(-0.0869361 0.00650284 0)
(-0.0995479 0.00600493 0)
(-0.111186 0.00553065 0)
(-0.12186 0.00507242 0)
(-0.131588 0.00459365 0)
(-0.140416 0.0041592 0)
(-0.148326 0.00370319 0)
(-0.155354 0.00326971 0)
(-0.161511 0.0028333 0)
(-0.166803 0.00242933 0)
(-0.171324 0.00207498 0)
(-0.175111 0.00170011 0)
(-0.178218 0.00139368 0)
(-0.180708 0.00107441 0)
(-0.182623 0.000801633 0)
(-0.183991 0.000570124 0)
(-0.184847 0.000309362 0)
(-0.185233 7.24078e-05 0)
(-0.185095 -0.000192527 0)
(-0.184465 -0.00044991 0)
(-0.18329 -0.000704331 0)
(-0.181537 -0.0010186 0)
(-0.17921 -0.00131158 0)
(-0.176229 -0.00163368 0)
(-0.172576 -0.00196471 0)
(-0.168289 -0.00228718 0)
(-0.16337 -0.00259852 0)
(-0.157842 -0.00287502 0)
(-0.151745 -0.0031886 0)
(-0.145018 -0.00347456 0)
(-0.13764 -0.00381813 0)
(-0.129599 -0.00416763 0)
(-0.120829 -0.00451627 0)
(-0.111336 -0.00488473 0)
(-0.101112 -0.00524573 0)
(-0.0901435 -0.00560953 0)
(-0.0784713 -0.0059484 0)
(-0.0660904 -0.00630551 0)
(-0.0530273 -0.00662016 0)
(-0.0393573 -0.00692389 0)
(-0.0250721 -0.00721445 0)
(-0.0102404 -0.00745951 0)
(0.00506041 -0.00765295 0)
(0.0206994 -0.00774727 0)
(0.0364583 -0.00779466 0)
(0.0522243 -0.0077218 0)
(0.06771 -0.00755956 0)
(0.0827385 -0.00726243 0)
(0.0971874 -0.00688154 0)
(0.110678 -0.00639365 0)
(0.123128 -0.00584225 0)
(0.134316 -0.00516433 0)
(0.144098 -0.00445819 0)
(0.152431 -0.00367151 0)
(0.158999 -0.00280598 0)
(0.163902 -0.00197134 0)
(0.167099 -0.00106526 0)
(0.168339 -0.000200874 0)
(0.167879 0.000709393 0)
(0.165723 0.00162059 0)
(0.161691 0.00248265 0)
(0.155974 0.003303 0)
(0.148569 0.00413686 0)
(0.139542 0.00492385 0)
(0.128993 0.00565113 0)
(0.116931 0.00632916 0)
(0.103588 0.0068809 0)
(0.0892688 0.00732915 0)
(0.0742557 0.00769272 0)
(0.0585128 0.00784488 0)
(0.0425429 0.0079447 0)
(0.0266289 0.0078725 0)
(0.0108381 0.00769844 0)
(-0.0040688 0.00754268 0)
(-0.0183646 0.00721932 0)
(-0.0323137 0.00683117 0)
(-0.0455307 0.00642899 0)
(-0.05791 0.00598573 0)
(-0.069397 0.00551332 0)
(-0.0799662 0.00505227 0)
(-0.0896092 0.00458029 0)
(-0.0983445 0.0041351 0)
(-0.106195 0.00370143 0)
(-0.113207 0.00329068 0)
(-0.119431 0.00291511 0)
(-0.124921 0.00256597 0)
(-0.129744 0.00224526 0)
(-0.133959 0.00195531 0)
(-0.13762 0.00168613 0)
(-0.140774 0.00144627 0)
(-0.143458 0.00122274 0)
(-0.145712 0.00100948 0)
(-0.147546 0.000806963 0)
(-0.148976 0.0006032 0)
(-0.150004 0.000396531 0)
(-0.150596 0.000198692 0)
(-0.15076 -3.6743e-05 0)
(-0.150435 -0.000288855 0)
(-0.149577 -0.000561051 0)
(-0.148151 -0.000861024 0)
(-0.1461 -0.00118394 0)
(-0.143359 -0.0015335 0)
(-0.139879 -0.00191749 0)
(-0.135608 -0.00231769 0)
(-0.130498 -0.00275394 0)
(-0.124508 -0.00319325 0)
(-0.117602 -0.00364545 0)
(-0.109756 -0.00413457 0)
(-0.100959 -0.00459273 0)
(-0.0912126 -0.00504361 0)
(-0.0805278 -0.00553803 0)
(-0.0689302 -0.00595735 0)
(-0.0564633 -0.00634646 0)
(-0.0431804 -0.00678705 0)
(-0.0291548 -0.00710341 0)
(-0.0145571 -0.0074748 0)
(0.000682679 -0.00765406 0)
(0.0164244 -0.00780017 0)
(0.032382 -0.00799106 0)
(0.0484961 -0.00798334 0)
(0.0645969 -0.00789063 0)
(0.0805214 -0.00783735 0)
(0.096095 -0.00757635 0)
(0.111146 -0.00734129 0)
(0.125497 -0.00691245 0)
(0.138974 -0.00640681 0)
(0.151418 -0.00590208 0)
(0.16267 -0.0052514 0)
(0.172588 -0.00454462 0)
(0.18105 -0.00381649 0)
(0.187946 -0.00301151 0)
(0.193197 -0.00218608 0)
(0.196738 -0.00132814 0)
(0.198545 -0.000457016 0)
(0.198593 0.000404415 0)
(0.196934 0.00125738 0)
(0.19292 0.00208662 0)
(-0.134769 0.00696389 0)
(-0.14305 0.00626131 0)
(-0.151617 0.00562232 0)
(-0.159252 0.00499845 0)
(-0.165995 0.00437731 0)
(-0.171881 0.00379729 0)
(-0.176937 0.00322657 0)
(-0.181196 0.0026855 0)
(-0.184682 0.00215867 0)
(-0.187418 0.00164201 0)
(-0.189426 0.00113526 0)
(-0.190713 0.000640114 0)
(-0.191295 0.000161903 0)
(-0.191171 -0.000337638 0)
(-0.190324 -0.000843315 0)
(-0.188756 -0.00134825 0)
(-0.18645 -0.00186414 0)
(-0.18339 -0.00239948 0)
(-0.179553 -0.00294502 0)
(-0.174912 -0.00350813 0)
(-0.169439 -0.00411157 0)
(-0.163095 -0.00471772 0)
(-0.155846 -0.00534347 0)
(-0.147659 -0.00603413 0)
(-0.138494 -0.00670119 0)
(-0.128328 -0.00744921 0)
(-0.117134 -0.0081364 0)
(-0.104902 -0.0088199 0)
(-0.0916316 -0.00961215 0)
(-0.0773289 -0.0102609 0)
(-0.0620257 -0.0108695 0)
(-0.0457631 -0.0116117 0)
(-0.0286545 -0.0120924 0)
(-0.0108133 -0.0127159 0)
(0.00765685 -0.0130105 0)
(0.0265736 -0.0131759 0)
(0.0457945 -0.0134656 0)
(0.0651176 -0.0133651 0)
(0.0842897 -0.0130865 0)
(0.103078 -0.0128679 0)
(0.121226 -0.0122621 0)
(0.138488 -0.0116411 0)
(0.15459 -0.0106995 0)
(0.169283 -0.00958957 0)
(0.182334 -0.00840318 0)
(0.193513 -0.00702457 0)
(0.202648 -0.00551121 0)
(0.209598 -0.00395715 0)
(0.214237 -0.0023232 0)
(0.216457 -0.000603656 0)
(0.216214 0.0010426 0)
(0.213484 0.00276279 0)
(0.208374 0.00428965 0)
(0.200983 0.00582618 0)
(0.19142 0.00733798 0)
(0.179888 0.00852871 0)
(0.166521 0.00972379 0)
(0.151561 0.010816 0)
(0.135352 0.0115356 0)
(0.118013 0.0122401 0)
(0.0997525 0.0126804 0)
(0.0809651 0.0130675 0)
(0.0619383 0.0132264 0)
(0.0427532 0.0131986 0)
(0.0234815 0.0130941 0)
(0.00500063 0.012836 0)
(-0.0128109 0.012475 0)
(-0.0304379 0.0120505 0)
(-0.0474057 0.0115072 0)
(-0.06365 0.010961 0)
(-0.0790169 0.0103038 0)
(-0.0934304 0.0096546 0)