/*--------------------------------*- C++ -*----------------------------------*\
| =========                 |                                                 |
| \\      /  F ield         | OpenFOAM: The Open Source CFD Toolbox           |
|  \\    /   O peration     | Version:  3.0.1                                 |
|   \\  /    A nd           | Web:      www.OpenFOAM.org                      |
|    \\/     M anipulation  |                                                 |
\*---------------------------------------------------------------------------*/
FoamFile
{
    version     2.0;
    format      ascii;
    class       volVectorField;
    location    "61";
    object      U;
}
// * * * * * * * * * * * * * * * * * * * * * * * * * * * * * * * * * * * * * //

dimensions      [0 1 -1 0 0 0 0];

internalField   nonuniform List<vector> 
21420
(
(0.0849978 -0.00188342 0)
(0.101782 -0.00190045 0)
(0.120676 -0.00185858 0)
(0.139166 -0.00179143 0)
(0.156982 -0.0017324 0)
(0.173862 -0.00161372 0)
(0.189528 -0.00149621 0)
(0.203718 -0.00132713 0)
(0.216172 -0.00113739 0)
(0.226661 -0.000939403 0)
(0.234989 -0.000712826 0)
(0.240996 -0.000474565 0)
(0.244582 -0.000226942 0)
(0.245612 2.14198e-05 0)
(0.244205 0.000266913 0)
(0.240163 0.000517945 0)
(0.233718 0.000759163 0)
(0.224968 0.000972595 0)
(0.21407 0.00118099 0)
(0.20122 0.00137377 0)
(0.186655 0.00151353 0)
(0.170639 0.00165547 0)
(0.15343 0.0017744 0)
(0.135299 0.0018292 0)
(0.116522 0.00189298 0)
(0.097357 0.00189598 0)
(0.0780397 0.00191032 0)
(0.0587782 0.00190307 0)
(0.0397426 0.0018461 0)
(0.0210467 0.00179952 0)
(0.003294 0.00173512 0)
(-0.0134726 0.0016442 0)
(-0.0295892 0.00156389 0)
(-0.0448289 0.00146141 0)
(-0.0591202 0.00136972 0)
(-0.0724254 0.00127358 0)
(-0.0847278 0.00116864 0)
(-0.0960326 0.00107288 0)
(-0.106354 0.000977396 0)
(-0.115713 0.000880631 0)
(-0.124142 0.000790803 0)
(-0.131673 0.000701727 0)
(-0.138343 0.000618363 0)
(-0.144185 0.000537551 0)
(-0.149232 0.000458901 0)
(-0.153513 0.000383294 0)
(-0.157049 0.000310079 0)
(-0.159872 0.000237786 0)
(-0.161989 0.00016769 0)
(-0.163361 9.89844e-05 0)
(-0.164059 2.98663e-05 0)
(-0.16406 -4.28047e-05 0)
(-0.163313 -0.000116351 0)
(-0.16186 -0.000188242 0)
(-0.159631 -0.000261307 0)
(-0.156609 -0.000346605 0)
(-0.152775 -0.000416942 0)
(-0.148149 -0.000503175 0)
(-0.142619 -0.00059352 0)
(-0.136202 -0.000681343 0)
(-0.128861 -0.00077945 0)
(-0.120546 -0.000873278 0)
(-0.11132 -0.000959229 0)
(-0.101056 -0.00106477 0)
(-0.0898179 -0.00115839 0)
(-0.0776578 -0.00124369 0)
(-0.0645736 -0.00134581 0)
(-0.0506696 -0.00142513 0)
(-0.0359915 -0.00152345 0)
(-0.0203864 -0.00159647 0)
(-0.00377198 -0.00165403 0)
(0.013443 -0.00171372 0)
(0.0310063 -0.00176053 0)
(0.0488655 -0.00178137 0)
(0.0669406 -0.00180118 0)
(0.085032 -0.00179338 0)
(0.102929 -0.00177591 0)
(0.1206 -0.00173937 0)
(0.137748 -0.00167201 0)
(0.15413 -0.00159638 0)
(0.169576 -0.00149608 0)
(0.183946 -0.00135992 0)
(0.196894 -0.00121886 0)
(0.208254 -0.00105705 0)
(0.217823 -0.00086285 0)
(0.225464 -0.000667553 0)
(0.231006 -0.000448543 0)
(0.234337 -0.000219684 0)
(0.235336 1.20379e-05 0)
(0.234002 0.000249095 0)
(0.230089 0.000501104 0)
(0.22381 0.000737958 0)
(0.215178 0.00096436 0)
(0.204348 0.00117781 0)
(0.191513 0.00136628 0)
(0.176842 0.00153373 0)
(0.160591 0.00167407 0)
(0.143069 0.00179182 0)
(0.124512 0.001884 0)
(0.105221 0.00194536 0)
(0.0854726 0.00197706 0)
(0.0654937 0.0019849 0)
(0.0455402 0.00196623 0)
(0.0258766 0.00193106 0)
(0.00670092 0.00187589 0)
(-0.0118144 0.00180161 0)
(-0.0294838 0.00170586 0)
(-0.0461913 0.00160782 0)
(-0.0618506 0.00150146 0)
(-0.0763879 0.00139451 0)
(-0.0897887 0.00127514 0)
(-0.102043 0.00115773 0)
(-0.113172 0.00104575 0)
(-0.123191 0.000945462 0)
(-0.132152 0.000835804 0)
(-0.140087 0.000740967 0)
(-0.147035 0.000642047 0)
(-0.153061 0.000548061 0)
(-0.158169 0.000467978 0)
(-0.162422 0.000380009 0)
(-0.165872 0.00030271 0)
(-0.168533 0.000225363 0)
(-0.170431 0.000150154 0)
(-0.171581 8.45443e-05 0)
(-0.17208 1.38247e-05 0)
(-0.171893 -4.72418e-05 0)
(-0.171026 -0.000118376 0)
(-0.16955 -0.000180581 0)
(-0.167416 -0.000235758 0)
(-0.164658 -0.000305425 0)
(-0.161323 -0.00036983 0)
(-0.157323 -0.000419324 0)
(-0.152676 -0.000491879 0)
(-0.147442 -0.000549133 0)
(-0.141527 -0.000622684 0)
(-0.134939 -0.000691812 0)
(-0.127639 -0.000752808 0)
(-0.119557 -0.000840423 0)
(-0.110716 -0.000915037 0)
(-0.101035 -0.00100444 0)
(-0.0904967 -0.0010807 0)
(-0.0791096 -0.00117883 0)
(-0.0668223 -0.00125439 0)
(-0.0537355 -0.0013469 0)
(-0.0397804 -0.00142552 0)
(-0.0249669 -0.00150317 0)
(-0.00939786 -0.00157462 0)
(0.00685069 -0.00164141 0)
(0.0236527 -0.00168966 0)
(0.0408774 -0.00172772 0)
(0.0584005 -0.00174701 0)
(0.0760524 -0.00174348 0)
(0.0935552 -0.00172787 0)
(0.110739 -0.00167345 0)
(0.127286 -0.00160668 0)
(0.142979 -0.00150349 0)
(0.157538 -0.00138163 0)
(0.170717 -0.00122339 0)
(0.182229 -0.00105523 0)
(0.191853 -0.000854755 0)
(0.199382 -0.000632242 0)
(0.204599 -0.000394611 0)
(0.207354 -0.000150096 0)
(0.207647 9.35475e-05 0)
(0.205386 0.000345166 0)
(0.200554 0.000595269 0)
(0.193371 0.000835775 0)
(0.183856 0.00105289 0)
(0.172238 0.00124744 0)
(0.15876 0.00142592 0)
(0.143625 0.00157271 0)
(0.127159 0.00168964 0)
(0.109673 0.00178376 0)
(0.0914086 0.00183799 0)
(0.0726924 0.00187415 0)
(0.0537789 0.00187918 0)
(0.0348996 0.00186225 0)
(0.0162922 0.00182482 0)
(-0.00182824 0.00176645 0)
(-0.0192452 0.00169441 0)
(-0.0358634 0.00160878 0)
(-0.0515903 0.0015153 0)
(-0.066337 0.00140764 0)
(-0.0800902 0.00131866 0)
(-0.0928468 0.00122114 0)
(-0.10466 0.0011257 0)
(-0.115576 0.0010386 0)
(-0.125604 0.000947071 0)
(-0.13476 0.000868572 0)
(-0.143039 0.000779044 0)
(-0.150447 0.000694389 0)
(-0.157014 0.000607997 0)
(-0.162746 0.000531122 0)
(-0.16771 0.000451614 0)
(-0.171955 0.000385648 0)
(-0.175475 0.000319474 0)
(-0.178332 0.00025328 0)
(-0.180573 0.000188641 0)
(-0.182205 0.000124757 0)
(-0.183211 8.1339e-05 0)
(-0.183647 1.56646e-05 0)
(-0.183536 -3.6034e-05 0)
(-0.182842 -0.000100508 0)
(-0.181556 -0.000157162 0)
(-0.17963 -0.000217552 0)
(-0.177097 -0.000284099 0)
(-0.173927 -0.000345149 0)
(-0.170102 -0.00041174 0)
(-0.165627 -0.000479033 0)
(-0.160469 -0.000542268 0)
(-0.154563 -0.000626158 0)
(-0.147899 -0.000705479 0)
(-0.140367 -0.00078506 0)
(-0.131978 -0.000877992 0)
(-0.122749 -0.000951401 0)
(-0.112635 -0.00104537 0)
(-0.101653 -0.00113157 0)
(-0.0898025 -0.00121412 0)
(-0.0771732 -0.00130298 0)
(-0.0637054 -0.00136732 0)
(-0.049444 -0.00144625 0)
(-0.034516 -0.00151492 0)
(-0.0189285 -0.00157405 0)
(-0.00278745 -0.00162303 0)
(0.0138009 -0.00165759 0)
(0.030659 -0.00168384 0)
(0.0476919 -0.0016908 0)
(0.0646974 -0.00167928 0)
(0.0814785 -0.00164924 0)
(0.0978379 -0.00158911 0)
(0.113487 -0.00151176 0)
(0.128216 -0.00140275 0)
(0.141733 -0.00127571 0)
(0.1538 -0.00111489 0)
(0.164141 -0.00093328 0)
(0.172554 -0.000731557 0)
(0.178819 -0.000511695 0)
(0.182799 -0.000278092 0)
(0.184383 -3.72248e-05 0)
(0.183585 0.000206568 0)
(0.180237 0.00044999 0)
(0.174518 0.000683456 0)
(0.166526 0.000901086 0)
(0.15642 0.00110087 0)
(0.144366 0.00128075 0)
(0.130643 0.00143488 0)
(0.115521 0.00156702 0)
(0.0992498 0.00166321 0)
(0.082115 0.00173283 0)
(0.0644172 0.0017737 0)
(0.046416 0.00179794 0)
(0.0283337 0.0017909 0)
(0.0103988 0.00176783 0)
(-0.00722067 0.00172603 0)
(-0.0243552 0.00166993 0)
(-0.0408591 0.00160916 0)
(-0.0566436 0.00152742 0)
(-0.0716313 0.00144791 0)
(-0.085759 0.00135606 0)
(-0.0989656 0.00126065 0)
(-0.111227 0.00117114 0)
(-0.122516 0.00107529 0)
(-0.132847 0.000981403 0)
(-0.142273 0.000887601 0)
(-0.150769 0.0008096 0)
(-0.158378 0.000719176 0)
(-0.165206 0.000638776 0)
(-0.171243 0.000566417 0)
(-0.176489 0.000483291 0)
(-0.181065 0.000415426 0)
(-0.184888 0.000350075 0)
(-0.187952 0.000269481 0)
(-0.190371 0.000205025 0)
(-0.192091 0.000130741 0)
(-0.193075 6.53213e-05 0)
(-0.193346 3.53443e-06 0)
(-0.19278 -8.78081e-05 0)
(-0.191573 -0.000151739 0)
(-0.189567 -0.000240557 0)
(-0.186583 -0.000318843 0)
(-0.182812 -0.000404403 0)
(-0.178232 -0.00048997 0)
(-0.172812 -0.000563122 0)
(-0.166739 -0.00063399 0)
(-0.160032 -0.000708301 0)
(-0.152715 -0.000762547 0)
(-0.144816 -0.000808312 0)
(-0.136281 -0.000876376 0)
(-0.127174 -0.000921577 0)
(-0.117475 -0.000993085 0)
(-0.10706 -0.00105515 0)
(-0.0960595 -0.00111499 0)
(-0.0843094 -0.00120082 0)
(-0.0716652 -0.00128478 0)
(-0.0583461 -0.00135577 0)
(-0.0440897 -0.00146063 0)
(-0.0288036 -0.00154828 0)
(-0.0128337 -0.0016154 0)
(0.00351353 -0.00170787 0)
(0.0205015 -0.00175356 0)
(0.0383255 -0.00180864 0)
(0.0565332 -0.00182276 0)
(0.0748062 -0.00180567 0)
(0.0928832 -0.00178659 0)
(0.11053 -0.00172234 0)
(0.127416 -0.00162424 0)
(0.143255 -0.00151516 0)
(0.157781 -0.00136402 0)
(0.1707 -0.00119779 0)
(0.181796 -0.0010023 0)
(0.190855 -0.000784533 0)
(0.197703 -0.00055929 0)
(0.20223 -0.000320966 0)
(0.204368 -7.64874e-05 0)
(0.204088 0.000159101 0)
(0.201216 0.000401889 0)
(0.195994 0.000619908 0)
(0.188632 0.000829075 0)
(0.179259 0.0010253 0)
(0.168113 0.00117516 0)
(0.155458 0.00131958 0)
(0.141547 0.00144181 0)
(0.126644 0.00151058 0)
(0.111016 0.00157937 0)
(0.0949124 0.00159973 0)
(0.0785527 0.00162373 0)
(0.0621174 0.00162975 0)
(0.0457809 0.00159898 0)
(0.0296533 0.00157686 0)
(0.0138162 0.00154289 0)
(-0.00135836 0.00148183 0)
(-0.0159173 0.00143653 0)
(-0.0300817 0.00138592 0)
(-0.0436825 0.00131912 0)
(-0.0566857 0.00126261 0)
(-0.0690698 0.00119346 0)
(-0.0808203 0.00113377 0)
(-0.0919244 0.00107178 0)
(-0.102368 0.00100069 0)
(-0.112139 0.000935985 0)
(-0.121223 0.000868734 0)
(-0.129602 0.00079459 0)
(-0.137258 0.000723519 0)
(-0.144172 0.000646702 0)
(-0.150324 0.000571453 0)
(-0.155695 0.000493634 0)
(-0.160266 0.000412536 0)
(-0.16402 0.000331385 0)
(-0.166942 0.000248719 0)
(-0.169033 0.000163637 0)
(-0.170244 7.92311e-05 0)
(-0.170638 -5.42436e-06 0)
(-0.170174 -9.0946e-05 0)
(-0.168837 -0.000176214 0)
(-0.166641 -0.000261713 0)
(-0.163582 -0.000346246 0)
(-0.158957 -0.000430338 0)
(0.0849962 -0.00565108 0)
(0.101788 -0.00570229 0)
(0.120691 -0.00557673 0)
(0.139191 -0.00537531 0)
(0.157019 -0.00519831 0)
(0.173909 -0.00484224 0)
(0.189587 -0.00448971 0)
(0.203786 -0.00398237 0)
(0.216248 -0.00341306 0)
(0.226747 -0.00281897 0)
(0.23508 -0.0021391 0)
(0.241092 -0.00142403 0)
(0.24468 -0.000679318 0)
(0.245715 6.26281e-05 0)
(0.244304 0.000800077 0)
(0.240257 0.00155416 0)
(0.233811 0.00227796 0)
(0.225053 0.00291843 0)
(0.214147 0.00354377 0)
(0.20129 0.00412221 0)
(0.186714 0.00454157 0)
(0.170688 0.00496743 0)
(0.153468 0.00532428 0)
(0.135327 0.00548865 0)
(0.11654 0.00567999 0)
(0.097365 0.00568886 0)
(0.0780391 0.00573183 0)
(0.0587694 0.00570993 0)
(0.0397267 0.00553903 0)
(0.0210239 0.0053994 0)
(0.00326673 0.0052055 0)
(-0.0135023 0.00493288 0)
(-0.0296222 0.00469189 0)
(-0.0448637 0.00438446 0)
(-0.0591565 0.00410933 0)
(-0.0724625 0.00382083 0)
(-0.0847645 0.00350599 0)
(-0.0960691 0.00321864 0)
(-0.10639 0.0029322 0)
(-0.115748 0.00264192 0)
(-0.124175 0.00237244 0)
(-0.131706 0.00210528 0)
(-0.138374 0.00185518 0)
(-0.144215 0.00161272 0)
(-0.149261 0.0013769 0)
(-0.153542 0.00115034 0)
(-0.157078 0.000930311 0)
(-0.159902 0.000713515 0)
(-0.162018 0.000503333 0)
(-0.163394 0.000297352 0)
(-0.16409 9.0327e-05 0)
(-0.164092 -0.000127212 0)
(-0.163348 -0.000349482 0)
(-0.161897 -0.000564247 0)
(-0.159671 -0.000783734 0)
(-0.156651 -0.00103906 0)
(-0.15282 -0.00125045 0)
(-0.148197 -0.00150929 0)
(-0.14267 -0.0017804 0)
(-0.136255 -0.00204361 0)
(-0.128918 -0.00233836 0)
(-0.120605 -0.00261946 0)
(-0.11138 -0.00287682 0)
(-0.101118 -0.00319536 0)
(-0.0898806 -0.00347483 0)
(-0.077718 -0.0037297 0)
(-0.0646352 -0.00403884 0)
(-0.0507262 -0.00427661 0)
(-0.0360468 -0.00457125 0)
(-0.0204337 -0.00479108 0)
(-0.00381229 -0.00495946 0)
(0.0134059 -0.00514212 0)
(0.0309802 -0.00528175 0)
(0.0488453 -0.00534576 0)
(0.0669362 -0.00539965 0)
(0.0850219 -0.00539308 0)
(0.102949 -0.00531969 0)
(0.120617 -0.00522923 0)
(0.13779 -0.00501276 0)
(0.154174 -0.00479209 0)
(0.169639 -0.00448481 0)
(0.184011 -0.00408411 0)
(0.196977 -0.00366188 0)
(0.208353 -0.00316723 0)
(0.217931 -0.0025941 0)
(0.225583 -0.00200232 0)
(0.231132 -0.00134321 0)
(0.234468 -0.000678462 0)
(0.235488 3.30567e-05 0)
(0.23415 0.000754531 0)
(0.230235 0.00150274 0)
(0.223949 0.0022106 0)
(0.215304 0.00289052 0)
(0.204463 0.00352253 0)
(0.191622 0.00410125 0)
(0.176941 0.00461201 0)
(0.160667 0.00503675 0)
(0.143113 0.00537585 0)
(0.124539 0.0056497 0)
(0.105233 0.00583777 0)
(0.0854683 0.0059336 0)
(0.0654708 0.00595385 0)
(0.0455083 0.00590112 0)
(0.0258341 0.00579777 0)
(0.00664322 0.00561787 0)
(-0.011877 0.00539565 0)
(-0.0295466 0.00512687 0)
(-0.0462746 0.00482746 0)
(-0.06194 0.00450015 0)
(-0.0764795 0.00417357 0)
(-0.08988 0.00382007 0)
(-0.102135 0.00347941 0)
(-0.113264 0.00314274 0)
(-0.123287 0.0028311 0)
(-0.132246 0.00250562 0)
(-0.140187 0.00221752 0)
(-0.147142 0.00191866 0)
(-0.153163 0.0016428 0)
(-0.158272 0.00140827 0)
(-0.162535 0.00114638 0)
(-0.165989 0.000908736 0)
(-0.168647 0.000676696 0)
(-0.170546 0.000453338 0)
(-0.171704 0.000251384 0)
(-0.172203 3.7173e-05 0)
(-0.172015 -0.000139771 0)
(-0.171155 -0.00035686 0)
(-0.169678 -0.000540296 0)
(-0.16756 -0.000717103 0)
(-0.164797 -0.000911457 0)
(-0.161466 -0.00110937 0)
(-0.15747 -0.00125311 0)
(-0.152833 -0.00147227 0)
(-0.14761 -0.00165457 0)
(-0.141687 -0.00185813 0)
(-0.135111 -0.00208498 0)
(-0.127808 -0.00225709 0)
(-0.119734 -0.00252185 0)
(-0.110892 -0.00274018 0)
(-0.101217 -0.00301386 0)
(-0.0906941 -0.00325481 0)
(-0.0792931 -0.0035299 0)
(-0.0670173 -0.00376843 0)
(-0.0539217 -0.00404497 0)
(-0.0399608 -0.00427045 0)
(-0.0251374 -0.00451531 0)
(-0.00956021 -0.00472404 0)
(0.00669493 -0.00492626 0)
(0.0235032 -0.00506877 0)
(0.0407317 -0.005194 0)
(0.0582877 -0.00523485 0)
(0.075937 -0.00524858 0)
(0.0934712 -0.00517666 0)
(0.110643 -0.00503829 0)
(0.127229 -0.00482083 0)
(0.142939 -0.00451287 0)
(0.157521 -0.00414756 0)
(0.170713 -0.0036827 0)
(0.182249 -0.00316406 0)
(0.191891 -0.00256257 0)
(0.199429 -0.0018997 0)
(0.204653 -0.00119626 0)
(0.207417 -0.000457497 0)
(0.207718 0.000274047 0)
(0.205451 0.00104919 0)
(0.200619 0.00178467 0)
(0.193431 0.0025002 0)
(0.183915 0.00314848 0)
(0.172296 0.00374724 0)
(0.158803 0.0042804 0)
(0.143653 0.00471039 0)
(0.127178 0.00506595 0)
(0.109675 0.00534541 0)
(0.0914044 0.00551923 0)
(0.0726718 0.00561823 0)
(0.0537476 0.00564202 0)
(0.0348571 0.00559707 0)
(0.0162338 0.00547384 0)
(-0.0018898 0.00529664 0)
(-0.0193158 0.00508964 0)
(-0.0359469 0.00482012 0)
(-0.0516778 0.00453525 0)
(-0.0664197 0.00423799 0)
(-0.0801796 0.00395742 0)
(-0.0929391 0.00365904 0)
(-0.10475 0.00337996 0)
(-0.115671 0.00311158 0)
(-0.125701 0.00284499 0)
(-0.134865 0.00260385 0)
(-0.143146 0.00232726 0)
(-0.150552 0.00207936 0)
(-0.157123 0.00183051 0)
(-0.162864 0.00159535 0)
(-0.167828 0.00135628 0)
(-0.172075 0.00115133 0)
(-0.175597 0.000958017 0)
(-0.178455 0.000758156 0)
(-0.1807 0.000568491 0)
(-0.182332 0.000377946 0)
(-0.18335 0.00023755 0)
(-0.183791 4.17195e-05 0)
(-0.183671 -0.000104759 0)
(-0.182984 -0.000287396 0)
(-0.181713 -0.000473242 0)
(-0.179797 -0.000660977 0)
(-0.177259 -0.000849297 0)
(-0.174098 -0.00103857 0)
(-0.170268 -0.00122362 0)
(-0.165797 -0.00143492 0)
(-0.160651 -0.0016346 0)
(-0.154739 -0.00187605 0)
(-0.148086 -0.00212401 0)
(-0.140547 -0.00234599 0)
(-0.132161 -0.0026388 0)
(-0.122932 -0.00285814 0)
(-0.112819 -0.00313877 0)
(-0.101839 -0.00338898 0)
(-0.0899932 -0.00365055 0)
(-0.0773469 -0.00389977 0)
(-0.0638818 -0.00411072 0)
(-0.0496181 -0.00434206 0)
(-0.034678 -0.00454969 0)
(-0.0190872 -0.00472942 0)
(-0.0029261 -0.00486862 0)
(0.0136648 -0.00498435 0)
(0.0305461 -0.00505267 0)
(0.0475854 -0.00507236 0)
(0.0646019 -0.00504984 0)
(0.0814125 -0.00494439 0)
(0.0977783 -0.00478465 0)
(0.113462 -0.00452922 0)
(0.128184 -0.00422294 0)
(0.141734 -0.00382197 0)
(0.153811 -0.00335016 0)
(0.164177 -0.0028038 0)
(0.172602 -0.00219247 0)
(0.178873 -0.0015346 0)
(0.182863 -0.000840713 0)
(0.184452 -0.000117496 0)
(0.183644 0.000603035 0)
(0.180298 0.00134125 0)
(0.174585 0.00204818 0)
(0.166591 0.00270292 0)
(0.15648 0.00331179 0)
(0.144417 0.0038495 0)
(0.130678 0.00430744 0)
(0.115537 0.00469633 0)
(0.0992554 0.00498595 0)
(0.0821102 0.00520283 0)
(0.064392 0.00533254 0)
(0.0463736 0.00538807 0)
(0.028284 0.00537685 0)
(0.0103331 0.00530389 0)
(-0.00729753 0.00517568 0)
(-0.0244354 0.00501069 0)
(-0.040954 0.00482909 0)
(-0.0567521 0.00457958 0)
(-0.0717455 0.00433866 0)
(-0.0858681 0.00407003 0)
(-0.0990745 0.00379433 0)
(-0.111345 0.00351139 0)
(-0.12263 0.00322423 0)
(-0.132954 0.00293727 0)
(-0.14237 0.00266576 0)
(-0.150864 0.00242011 0)
(-0.158466 0.00215418 0)
(-0.165287 0.00191391 0)
(-0.171315 0.00169573 0)
(-0.176556 0.001461 0)
(-0.181133 0.00124132 0)
(-0.18495 0.00104901 0)
(-0.188014 0.000813229 0)
(-0.190433 0.000609302 0)
(-0.192149 0.000391794 0)
(-0.19313 0.000200512 0)
(-0.193406 6.87446e-06 0)
(-0.19283 -0.000254698 0)
(-0.191634 -0.00045781 0)
(-0.189627 -0.000723789 0)
(-0.186639 -0.00095585 0)
(-0.182873 -0.00121171 0)
(-0.178293 -0.00147178 0)
(-0.172868 -0.00168777 0)
(-0.166794 -0.00190209 0)
(-0.160084 -0.00212754 0)
(-0.152762 -0.00228517 0)
(-0.144863 -0.00242452 0)
(-0.136327 -0.00262796 0)
(-0.127222 -0.00276739 0)
(-0.117522 -0.00297829 0)
(-0.107108 -0.00316444 0)
(-0.0961089 -0.00334368 0)
(-0.0843617 -0.00360204 0)
(-0.0717181 -0.0038544 0)
(-0.0583996 -0.00406681 0)
(-0.0441437 -0.00438282 0)
(-0.0288564 -0.00464521 0)
(-0.0128801 -0.0048436 0)
(0.00347325 -0.00512763 0)
(0.0204693 -0.00526281 0)
(0.0383016 -0.00542792 0)
(0.0565172 -0.00547222 0)
(0.0748043 -0.00541867 0)
(0.0928943 -0.00535913 0)
(0.110551 -0.00516947 0)
(0.127451 -0.00487469 0)
(0.143304 -0.00454564 0)
(0.15784 -0.00409386 0)
(0.170772 -0.00359504 0)
(0.181877 -0.0030068 0)
(0.190942 -0.00235281 0)
(0.197797 -0.00167794 0)
(0.202329 -0.000962854 0)
(0.204472 -0.000233666 0)
(0.204187 0.000476455 0)
(0.201305 0.00120587 0)
(0.196083 0.00186012 0)
(0.188714 0.00248781 0)
(0.179333 0.00307677 0)
(0.168176 0.00352637 0)
(0.155512 0.00395976 0)
(0.14159 0.00432646 0)
(0.126677 0.00453274 0)
(0.111039 0.00473903 0)
(0.094926 0.00480004 0)
(0.0785584 0.0048719 0)
(0.0621162 0.00488985 0)
(0.0457744 0.00479747 0)
(0.0296418 0.00473106 0)
(0.0138002 0.00462925 0)
(-0.00137635 0.00444533 0)
(-0.0159366 0.00430975 0)
(-0.0301028 0.00415789 0)
(-0.0437046 0.00395747 0)
(-0.0567089 0.00378792 0)
(-0.0690934 0.00358046 0)
(-0.0808447 0.00340138 0)
(-0.0919496 0.00321542 0)
(-0.102393 0.00300216 0)
(-0.112165 0.00280804 0)
(-0.12125 0.00260629 0)
(-0.12963 0.00238388 0)
(-0.137287 0.00217067 0)
(-0.144202 0.00194021 0)
(-0.150355 0.00171446 0)
(-0.155726 0.00148102 0)
(-0.160298 0.0012377 0)
(-0.164052 0.000994203 0)
(-0.166975 0.000746169 0)
(-0.169065 0.00049112 0)
(-0.17028 0.000237188 0)
(-0.170672 -1.56474e-05 0)
(-0.170207 -0.000272792 0)
(-0.168871 -0.000528622 0)
(-0.166675 -0.000785125 0)
(-0.163615 -0.00103873 0)
(-0.15899 -0.00129102 0)
(0.0849935 -0.00942121 0)
(0.101801 -0.00950695 0)
(0.120724 -0.00929785 0)
(0.139243 -0.00896226 0)
(0.157094 -0.00866749 0)
(0.174004 -0.00807395 0)
(0.189705 -0.00748638 0)
(0.203922 -0.00664049 0)
(0.216401 -0.00569124 0)
(0.226918 -0.0047007 0)
(0.235264 -0.00356712 0)
(0.241283 -0.00237522 0)
(0.244874 -0.00113858 0)
(0.245929 0.000107576 0)
(0.244496 0.00133749 0)
(0.240445 0.00259233 0)
(0.233995 0.00379843 0)
(0.225221 0.0048664 0)
(0.2143 0.00590913 0)
(0.201426 0.0068736 0)
(0.186828 0.0075727 0)
(0.170782 0.0082826 0)
(0.153541 0.00887748 0)
(0.135377 0.0091512 0)
(0.116569 0.00947009 0)
(0.0973752 0.00948445 0)
(0.0780318 0.0095558 0)
(0.0587457 0.00951875 0)
(0.0396889 0.00923389 0)
(0.0209721 0.00900128 0)
(0.00320591 0.00867658 0)
(-0.0135677 0.00822252 0)
(-0.0296945 0.00782062 0)
(-0.044939 0.00730798 0)
(-0.0592349 0.00684915 0)
(-0.0725422 0.00636814 0)
(-0.0848432 0.00584321 0)
(-0.096147 0.00536416 0)
(-0.106466 0.00488669 0)
(-0.115821 0.00440283 0)
(-0.124246 0.00395374 0)
(-0.131774 0.00350848 0)
(-0.13844 0.00309179 0)
(-0.144278 0.00268777 0)
(-0.149322 0.0022949 0)
(-0.1536 0.00191757 0)
(-0.157135 0.00155079 0)
(-0.159957 0.00118941 0)
(-0.162071 0.000840042 0)
(-0.163454 0.000495057 0)
(-0.164148 0.000150568 0)
(-0.164149 -0.000210184 0)
(-0.163406 -0.000584294 0)
(-0.161956 -0.000940007 0)
(-0.159731 -0.00130621 0)
(-0.156714 -0.00173095 0)
(-0.152885 -0.00208424 0)
(-0.148265 -0.00251441 0)
(-0.142739 -0.00296626 0)
(-0.136327 -0.00340679 0)
(-0.128991 -0.00389591 0)
(-0.120681 -0.00436684 0)
(-0.111453 -0.00479441 0)
(-0.101194 -0.00532521 0)
(-0.0899569 -0.00579266 0)
(-0.0777906 -0.00621693 0)
(-0.0647068 -0.00673328 0)
(-0.0507951 -0.00712917 0)
(-0.0361134 -0.00762214 0)
(-0.0204863 -0.007982 0)
(-0.00386433 -0.0082722 0)
(0.0133648 -0.00856846 0)
(0.0309471 -0.00880772 0)
(0.0488299 -0.00891098 0)
(0.0669251 -0.00900453 0)
(0.0850321 -0.00898302 0)
(0.102963 -0.00887965 0)
(0.120654 -0.00871163 0)
(0.137843 -0.00836067 0)
(0.154236 -0.00799366 0)
(0.169725 -0.00748033 0)
(0.184111 -0.00681123 0)
(0.197094 -0.00610155 0)
(0.208484 -0.0052934 0)
(0.218086 -0.00432144 0)
(0.225742 -0.00334513 0)
(0.2313 -0.00224793 0)
(0.234652 -0.00112478 0)
(0.235677 5.81545e-05 0)
(0.234308 0.00125666 0)
(0.2304 0.00251057 0)
(0.224101 0.0036875 0)
(0.215443 0.00482288 0)
(0.204579 0.00588181 0)
(0.191707 0.00683928 0)
(0.176992 0.00768858 0)
(0.160687 0.00839424 0)
(0.143106 0.00897008 0)
(0.124498 0.00942473 0)
(0.10516 0.00973168 0)
(0.0853648 0.00988854 0)
(0.0653392 0.00992568 0)
(0.0453561 0.00984187 0)
(0.0256649 0.00966982 0)
(0.00646404 0.00936901 0)
(-0.0120654 0.00900584 0)
(-0.0297588 0.00854372 0)
(-0.0464999 0.0080399 0)
(-0.0621683 0.00749852 0)
(-0.0767059 0.00695999 0)
(-0.0901115 0.00637651 0)
(-0.102371 0.00579245 0)
(-0.113495 0.00523568 0)
(-0.123522 0.00471797 0)
(-0.132474 0.00418136 0)
(-0.14041 0.00370105 0)
(-0.147367 0.00320308 0)
(-0.153382 0.00274652 0)
(-0.158498 0.00233952 0)
(-0.162761 0.00190839 0)
(-0.166211 0.00151158 0)
(-0.168864 0.00112487 0)
(-0.170752 0.000754153 0)
(-0.171911 0.000423057 0)
(-0.1724 6.13451e-05 0)
(-0.172214 -0.000231635 0)
(-0.171362 -0.000591684 0)
(-0.169879 -0.000894736 0)
(-0.167762 -0.00119072 0)
(-0.165009 -0.00152406 0)
(-0.161664 -0.00183926 0)
(-0.157678 -0.00209828 0)
(-0.153056 -0.00245696 0)
(-0.147824 -0.00276015 0)
(-0.141906 -0.00309255 0)
(-0.135315 -0.00345559 0)
(-0.128028 -0.00377468 0)
(-0.119959 -0.00419776 0)
(-0.111122 -0.00457239 0)
(-0.101455 -0.00501534 0)
(-0.0909326 -0.00542148 0)
(-0.0795369 -0.00587974 0)
(-0.067257 -0.00628659 0)
(-0.0541605 -0.00674182 0)
(-0.0401971 -0.00711928 0)
(-0.0253567 -0.00752294 0)
(-0.00977344 -0.00788613 0)
(0.00649948 -0.0082016 0)
(0.0233081 -0.00846258 0)
(0.0405641 -0.00864948 0)
(0.0581302 -0.00873657 0)
(0.0757968 -0.00874197 0)
(0.0933364 -0.00863452 0)
(0.110531 -0.00839853 0)
(0.127145 -0.00803502 0)
(0.142886 -0.00752948 0)
(0.157501 -0.00691483 0)
(0.170713 -0.0061411 0)
(0.182264 -0.00527531 0)
(0.191917 -0.00428619 0)
(0.199479 -0.0031695 0)
(0.204721 -0.00198949 0)
(0.207497 -0.000763 0)
(0.207791 0.000462692 0)
(0.205485 0.00174215 0)
(0.200666 0.00297405 0)
(0.193476 0.00417738 0)
(0.183945 0.00525009 0)
(0.172315 0.00624783 0)
(0.158795 0.00713912 0)
(0.143618 0.00785512 0)
(0.127125 0.00845446 0)
(0.109595 0.00891861 0)
(0.0913034 0.00919458 0)
(0.0725546 0.00937157 0)
(0.0536006 0.00940859 0)
(0.0346802 0.00932856 0)
(0.0160418 0.0091187 0)
(-0.00208682 0.00883035 0)
(-0.019528 0.00848778 0)
(-0.0361631 0.00803425 0)
(-0.0519002 0.00757252 0)
(-0.0666572 0.00705472 0)
(-0.0804143 0.00658426 0)
(-0.0931723 0.00610847 0)
(-0.104978 0.00563022 0)
(-0.115895 0.00519184 0)
(-0.125925 0.00474377 0)
(-0.135087 0.00433394 0)
(-0.143357 0.00389 0)
(-0.150764 0.00347029 0)
(-0.157336 0.00305229 0)
(-0.16308 0.00265563 0)
(-0.16804 0.002257 0)
(-0.172279 0.00191666 0)
(-0.175803 0.00160669 0)
(-0.178666 0.00126398 0)
(-0.18091 0.000949545 0)
(-0.182536 0.000636403 0)
(-0.183557 0.000387267 0)
(-0.183993 8.35783e-05 0)
(-0.183867 -0.000182591 0)
(-0.183188 -0.000481827 0)
(-0.181914 -0.000785676 0)
(-0.180004 -0.00109497 0)
(-0.177471 -0.00141754 0)
(-0.174311 -0.00172876 0)
(-0.170495 -0.00204319 0)
(-0.166025 -0.00239129 0)
(-0.160872 -0.00271824 0)
(-0.154967 -0.00313064 0)
(-0.148308 -0.00353494 0)
(-0.140778 -0.00391794 0)
(-0.132379 -0.00438984 0)
(-0.123151 -0.00476539 0)
(-0.113052 -0.00523496 0)
(-0.102078 -0.00564812 0)
(-0.0902158 -0.00607557 0)
(-0.0775683 -0.00649994 0)
(-0.0640955 -0.0068562 0)
(-0.0498393 -0.00724573 0)
(-0.0348863 -0.00757676 0)
(-0.0192865 -0.00788975 0)
(-0.00311458 -0.0081165 0)
(0.0134927 -0.00830998 0)
(0.0303889 -0.00842219 0)
(0.0474337 -0.00846402 0)
(0.0644744 -0.00841085 0)
(0.0813073 -0.0082585 0)
(0.0977102 -0.00796081 0)
(0.113406 -0.00756138 0)
(0.12815 -0.00703539 0)
(0.141711 -0.00637519 0)
(0.15381 -0.00559248 0)
(0.164204 -0.00467044 0)
(0.17264 -0.0036597 0)
(0.17892 -0.00256732 0)
(0.182925 -0.00140136 0)
(0.184521 -0.000187229 0)
(0.183687 0.00101213 0)
(0.180342 0.0022437 0)
(0.174628 0.0034112 0)
(0.166628 0.00450785 0)
(0.156501 0.00552404 0)
(0.144413 0.00641551 0)
(0.130658 0.00718189 0)
(0.115495 0.00783378 0)
(0.0991842 0.00831892 0)
(0.0820096 0.00867687 0)
(0.0642645 0.00888676 0)
(0.0462254 0.00898508 0)
(0.0281161 0.00896207 0)
(0.0101518 0.00884145 0)
(-0.00748426 0.00863172 0)
(-0.0246363 0.00835645 0)
(-0.0411679 0.00804538 0)
(-0.0569687 0.00763995 0)
(-0.071966 0.00723364 0)
(-0.0860901 0.00678263 0)
(-0.099289 0.00631762 0)
(-0.111547 0.00585128 0)
(-0.12282 0.00537296 0)
(-0.133132 0.00489865 0)
(-0.142534 0.0044385 0)
(-0.151011 0.00402943 0)
(-0.1586 0.00359833 0)
(-0.165406 0.00318699 0)
(-0.171424 0.0028271 0)
(-0.176663 0.00243086 0)
(-0.181222 0.00207132 0)
(-0.185032 0.00174891 0)
(-0.188094 0.00135295 0)
(-0.190505 0.00101905 0)
(-0.192223 0.000655801 0)
(-0.193199 0.00033068 0)
(-0.193474 1.25669e-05 0)
(-0.192903 -0.000430632 0)
(-0.191701 -0.000761828 0)
(-0.189699 -0.00120385 0)
(-0.186708 -0.00159133 0)
(-0.182948 -0.00202058 0)
(-0.178362 -0.00245291 0)
(-0.172935 -0.00281474 0)
(-0.166856 -0.00317113 0)
(-0.160138 -0.00354552 0)
(-0.152813 -0.00381124 0)
(-0.144911 -0.00404111 0)
(-0.136375 -0.00438041 0)
(-0.127269 -0.00461047 0)
(-0.117575 -0.00496366 0)
(-0.107164 -0.0052737 0)
(-0.096167 -0.00557295 0)
(-0.0844266 -0.00600371 0)
(-0.0717856 -0.00642365 0)
(-0.05847 -0.00678266 0)
(-0.0442179 -0.00729799 0)
(-0.0289235 -0.00774917 0)
(-0.0129428 -0.00807509 0)
(0.00341969 -0.00854121 0)
(0.0204304 -0.00877151 0)
(0.0382781 -0.00904808 0)
(0.0565124 -0.00912195 0)
(0.0748194 -0.00903427 0)
(0.0929304 -0.00893752 0)
(0.11061 -0.00861965 0)
(0.127534 -0.00812737 0)
(0.14341 -0.00758102 0)
(0.157966 -0.00682704 0)
(0.170919 -0.00599379 0)
(0.182041 -0.00501527 0)
(0.191118 -0.00392566 0)
(0.197982 -0.00279983 0)
(0.202522 -0.00160801 0)
(0.204677 -0.000381043 0)
(0.204374 0.000790955 0)
(0.201478 0.00201117 0)
(0.196253 0.00310213 0)
(0.18887 0.00414883 0)
(0.179474 0.00513117 0)
(0.168295 0.00588055 0)
(0.155611 0.00660316 0)
(0.141669 0.00721434 0)
(0.126733 0.00755792 0)
(0.111077 0.00790152 0)
(0.0949459 0.00800281 0)
(0.0785629 0.00812217 0)
(0.0621078 0.00815163 0)
(0.0457557 0.00799735 0)
(0.0296137 0.00788643 0)
(0.0137635 0.0077168 0)
(-0.00141674 0.00740897 0)
(-0.0159791 0.00718348 0)
(-0.0301485 0.00693024 0)
(-0.0437518 0.00659608 0)
(-0.0567581 0.00631341 0)
(-0.0691432 0.00596762 0)
(-0.0808958 0.00566914 0)
(-0.0920019 0.00535921 0)
(-0.102446 0.00500379 0)
(-0.11222 0.00468029 0)
(-0.121306 0.00434405 0)
(-0.129687 0.00397339 0)
(-0.137346 0.00361805 0)
(-0.144261 0.00323395 0)
(-0.150416 0.00285767 0)
(-0.15579 0.0024686 0)
(-0.160362 0.00206303 0)
(-0.164118 0.0016571 0)
(-0.167041 0.00124351 0)
(-0.169129 0.000818961 0)
(-0.170348 0.000396377 0)
(-0.170742 -2.68743e-05 0)
(-0.170275 -0.000454654 0)
(-0.168939 -0.000881066 0)
(-0.166743 -0.00130858 0)
(-0.163683 -0.00173127 0)
(-0.159057 -0.00215177 0)
(0.0849895 -0.0131955 0)
(0.101821 -0.0133163 0)
(0.120772 -0.0130239 0)
(0.139321 -0.0125543 0)
(0.157206 -0.0121421 0)
(0.174146 -0.011311 0)
(0.189883 -0.0104884 0)
(0.204128 -0.00930344 0)
(0.216631 -0.00797365 0)
(0.227176 -0.00658606 0)
(0.235538 -0.00499806 0)
(0.241572 -0.0033291 0)
(0.245171 -0.00159986 0)
(0.246241 0.000150638 0)
(0.24478 0.00188308 0)
(0.240731 0.00363286 0)
(0.23427 0.00532179 0)
(0.225472 0.00681793 0)
(0.21453 0.00827879 0)
(0.201631 0.00962987 0)
(0.186998 0.0106089 0)
(0.170922 0.0116031 0)
(0.15365 0.0124362 0)
(0.135452 0.0128189 0)
(0.116614 0.0132653 0)
(0.0973904 0.0132846 0)
(0.0780205 0.0133838 0)
(0.0587098 0.013331 0)
(0.0396321 0.0129319 0)
(0.0208942 0.0126062 0)
(0.00311448 0.0121491 0)
(-0.013666 0.0115141 0)
(-0.029803 0.0109507 0)
(-0.0450522 0.0102323 0)
(-0.0593526 0.00958933 0)
(-0.0726619 0.00891562 0)
(-0.0849613 0.00818027 0)
(-0.096264 0.00750932 0)
(-0.10658 0.00684068 0)
(-0.115932 0.00616315 0)
(-0.124353 0.00553446 0)
(-0.131876 0.00491126 0)
(-0.138538 0.00432795 0)
(-0.144372 0.00376256 0)
(-0.149413 0.00321282 0)
(-0.153688 0.00268508 0)
(-0.15722 0.00217138 0)
(-0.16004 0.00166639 0)
(-0.162152 0.0011778 0)
(-0.163539 0.000693477 0)
(-0.16424 0.00020413 0)
(-0.164234 -0.000293812 0)
(-0.163494 -0.000819759 0)
(-0.162044 -0.00131549 0)
(-0.159823 -0.00182852 0)
(-0.156808 -0.00242222 0)
(-0.152984 -0.00291937 0)
(-0.148366 -0.00351674 0)
(-0.142844 -0.00415284 0)
(-0.136435 -0.0047684 0)
(-0.129102 -0.0054528 0)
(-0.120796 -0.00611413 0)
(-0.111565 -0.00671224 0)
(-0.101309 -0.00745501 0)
(-0.0900717 -0.00811192 0)
(-0.0779025 -0.00870571 0)
(-0.0648147 -0.00942879 0)
(-0.0509014 -0.00999052 0)
(-0.0362129 -0.0106693 0)
(-0.0205707 -0.0111825 0)
(-0.00393696 -0.0115799 0)
(0.0132974 -0.0120025 0)
(0.0309023 -0.0123364 0)
(0.0487966 -0.0124821 0)
(0.0669106 -0.0126117 0)
(0.0850424 -0.0125894 0)
(0.10299 -0.0124318 0)