/*--------------------------------*- C++ -*----------------------------------*\
| =========                 |                                                 |
| \\      /  F ield         | OpenFOAM: The Open Source CFD Toolbox           |
|  \\    /   O peration     | Version:  3.0.1                                 |
|   \\  /    A nd           | Web:      www.OpenFOAM.org                      |
|    \\/     M anipulation  |                                                 |
\*---------------------------------------------------------------------------*/
FoamFile
{
    version     2.0;
    format      ascii;
    class       volVectorField;
    location    "23.6";
    object      U;
}
// * * * * * * * * * * * * * * * * * * * * * * * * * * * * * * * * * * * * * //

dimensions      [0 1 -1 0 0 0 0];

internalField   nonuniform List<vector> 
22680
(
(-0.150438 -0.000301781 0)
(-0.14778 -0.000338846 0)
(-0.14476 -0.000376559 0)
(-0.141412 -0.000416636 0)
(-0.137722 -0.000457682 0)
(-0.13367 -0.000502505 0)
(-0.129237 -0.000547987 0)
(-0.1244 -0.00059856 0)
(-0.119136 -0.000648888 0)
(-0.113423 -0.000705738 0)
(-0.107237 -0.000760846 0)
(-0.100555 -0.000824164 0)
(-0.0933566 -0.000883566 0)
(-0.0856198 -0.000953275 0)
(-0.0773266 -0.00101597 0)
(-0.0684587 -0.00107853 0)
(-0.0590027 -0.00115589 0)
(-0.0489511 -0.00121839 0)
(-0.0383021 -0.00129828 0)
(-0.0270665 -0.00135717 0)
(-0.0152841 -0.00143538 0)
(-0.00295533 -0.0014854 0)
(0.00992232 -0.00155666 0)
(0.0232454 -0.0015917 0)
(0.0369343 -0.00164845 0)
(0.0509164 -0.00166195 0)
(0.0650928 -0.00169693 0)
(0.0793527 -0.00168301 0)
(0.0935699 -0.00168869 0)
(0.107609 -0.00164243 0)
(0.121321 -0.00161223 0)
(0.134554 -0.00153076 0)
(0.147149 -0.00146023 0)
(0.158948 -0.00134395 0)
(0.169787 -0.00121252 0)
(0.179516 -0.00108209 0)
(0.187997 -0.000921643 0)
(0.195102 -0.00075648 0)
(0.200719 -0.000572656 0)
(0.20475 -0.000382016 0)
(0.207106 -0.000181734 0)
(0.207728 2.02938e-05 0)
(0.20671 0.000224664 0)
(0.203911 0.000428432 0)
(0.199443 0.000627721 0)
(0.193344 0.00081146 0)
(0.185691 0.000996115 0)
(0.176584 0.00115203 0)
(0.166145 0.00131154 0)
(0.154511 0.00143086 0)
(0.14184 0.00155615 0)
(0.12828 0.00166771 0)
(0.113993 0.00172579 0)
(0.0991497 0.00179663 0)
(0.0839174 0.00181422 0)
(0.0684555 0.00184586 0)
(0.0529154 0.00182716 0)
(0.037425 0.00182254 0)
(0.0221281 0.00177167 0)
(0.00731806 0.00174031 0)
(-0.00693422 0.00166861 0)
(-0.0207181 0.00160994 0)
(-0.0339277 0.00152295 0)
(-0.0464704 0.00144844 0)
(-0.0583 0.00135354 0)
(-0.0693847 0.0012705 0)
(-0.0797105 0.00117417 0)
(-0.0892744 0.00108895 0)
(-0.0980856 0.000996318 0)
(-0.106162 0.000914002 0)
(-0.113529 0.000832459 0)
(-0.120213 0.00075109 0)
(-0.126252 0.000677848 0)
(-0.131685 0.000606569 0)
(-0.13655 0.000542957 0)
(-0.140888 0.000481532 0)
(-0.144739 0.000426761 0)
(-0.148141 0.000373808 0)
(-0.151121 0.00032644 0)
(-0.153713 0.000280019 0)
(-0.155936 0.000239332 0)
(-0.157819 0.000196573 0)
(-0.159353 0.000158524 0)
(-0.160548 0.000112666 0)
(-0.161402 7.74204e-05 0)
(-0.161888 3.01145e-05 0)
(-0.162021 -9.41323e-06 0)
(-0.161741 -6.40249e-05 0)
(-0.161032 -0.000106941 0)
(-0.15994 -0.000157805 0)
(-0.158347 -0.000222281 0)
(-0.156305 -0.000274071 0)
(-0.153683 -0.000346486 0)
(-0.150539 -0.00040346 0)
(-0.146818 -0.000485331 0)
(-0.142495 -0.000548826 0)
(-0.137566 -0.000625484 0)
(-0.13203 -0.000696225 0)
(-0.125891 -0.000776306 0)
(-0.119064 -0.000835198 0)
(-0.111669 -0.000919616 0)
(-0.103711 -0.000979575 0)
(-0.0951217 -0.00105332 0)
(-0.0859697 -0.00111443 0)
(-0.0763256 -0.00118504 0)
(-0.0661075 -0.0012349 0)
(-0.0554156 -0.00128936 0)
(-0.0442478 -0.00134415 0)
(-0.0327165 -0.00139023 0)
(-0.0208015 -0.00143405 0)
(-0.00854394 -0.00146705 0)
(0.00401794 -0.00150154 0)
(0.0167961 -0.00152243 0)
(0.0297433 -0.00154448 0)
(0.0427978 -0.00154398 0)
(0.055882 -0.00155251 0)
(0.0689271 -0.00153353 0)
(0.0818272 -0.00151962 0)
(0.0944903 -0.00147702 0)
(0.106805 -0.00143481 0)
(0.118645 -0.00136528 0)
(0.129928 -0.00129975 0)
(0.140498 -0.00120008 0)
(0.150218 -0.00110115 0)
(0.159036 -0.000983843 0)
(0.166826 -0.000856124 0)
(0.173473 -0.000715254 0)
(0.178874 -0.000565909 0)
(0.182979 -0.000405776 0)
(0.185707 -0.000241565 0)
(0.187038 -7.70089e-05 0)
(0.186959 9.25877e-05 0)
(0.185422 0.000262934 0)
(0.182438 0.000433179 0)
(0.178079 0.000598098 0)
(0.172353 0.000755478 0)
(0.165311 0.000906536 0)
(0.157028 0.00105192 0)
(0.147589 0.00118056 0)
(0.137103 0.00130151 0)
(0.125654 0.00140675 0)
(0.113395 0.00149672 0)
(0.100431 0.0015743 0)
(0.0869015 0.00163094 0)
(0.0729434 0.0016732 0)
(0.0586946 0.00170329 0)
(0.0442914 0.001713 0)
(0.0298649 0.00170597 0)
(0.0155375 0.00168896 0)
(0.00140022 0.00165437 0)
(-0.0124299 0.00161543 0)
(-0.0258581 0.00156524 0)
(-0.0388166 0.00150413 0)
(-0.0512316 0.00143587 0)
(-0.0630303 0.00136102 0)
(-0.0741655 0.00128005 0)
(-0.0846092 0.00119515 0)
(-0.0943313 0.00110779 0)
(-0.103313 0.00101622 0)
(-0.111523 0.000929512 0)
(-0.118954 0.000841704 0)
(-0.125642 0.000749811 0)
(-0.13161 0.000666387 0)
(-0.136896 0.000582573 0)
(-0.141484 0.000502749 0)
(-0.145393 0.000426043 0)
(-0.14867 0.000354789 0)
(-0.151355 0.000284295 0)
(-0.153505 0.00022634 0)
(-0.155158 0.000163455 0)
(-0.156353 0.000114712 0)
(-0.15711 6.80137e-05 0)
(-0.157454 1.83723e-05 0)
(-0.15744 -2.03562e-05 0)
(-0.157111 -6.04268e-05 0)
(-0.156438 -9.88648e-05 0)
(-0.155406 -0.000141489 0)
(-0.154084 -0.000172864 0)
(-0.152423 -0.000221339 0)
(-0.150547 -0.000227042 0)
(-0.148456 -0.000261487 0)
(-0.14615 -0.000285091 0)
(-0.14354 -0.000328912 0)
(-0.14061 -0.000357563 0)
(-0.137392 -0.000407794 0)
(-0.133735 -0.000453619 0)
(-0.129749 -0.000495712 0)
(-0.125253 -0.00056192 0)
(-0.120316 -0.000612217 0)
(-0.114865 -0.000678548 0)
(-0.108838 -0.000739346 0)
(-0.102258 -0.000817172 0)
(-0.0950443 -0.000891177 0)
(-0.0871751 -0.000971515 0)
(-0.0786092 -0.00105608 0)
(-0.0693366 -0.00114056 0)
(-0.0593719 -0.00122421 0)
(-0.0486511 -0.00131118 0)
(-0.0372322 -0.00138721 0)
(-0.0251559 -0.00147085 0)
(-0.0125102 -0.00153315 0)
(0.000692194 -0.00158183 0)
(0.014371 -0.00163307 0)
(0.028312 -0.00166415 0)
(0.0425087 -0.00169534 0)
(0.0568424 -0.00169908 0)
(0.0711934 -0.00169714 0)
(0.0854029 -0.00166626 0)
(0.099325 -0.00163103 0)
(0.112824 -0.00157219 0)
(0.125809 -0.00149982 0)
(0.13805 -0.00139342 0)
(0.149355 -0.00128858 0)
(0.159663 -0.00115782 0)
(0.168826 -0.00101509 0)
(0.17671 -0.000841957 0)
(0.183065 -0.000702107 0)
(0.188056 -0.000542907 0)
(0.191797 -9.56793e-05 0)
(0.192211 0.000494355 0)
(0.185999 0.00182359 0)
(0.167395 0.00254824 0)
(0.146813 0.001362 0)
(0.13295 -0.000643869 0)
(0.0948758 -0.0031105 0)
(-0.150455 -0.000905264 0)
(-0.147797 -0.00101645 0)
(-0.144778 -0.00112956 0)
(-0.141432 -0.00124977 0)
(-0.137742 -0.00137289 0)
(-0.133692 -0.00150735 0)
(-0.129259 -0.0016438 0)
(-0.124424 -0.00179551 0)
(-0.119161 -0.0019465 0)
(-0.11345 -0.00211705 0)
(-0.107265 -0.00228238 0)
(-0.100585 -0.00247234 0)
(-0.0933869 -0.00265056 0)
(-0.0856515 -0.0028597 0)
(-0.077359 -0.00304779 0)
(-0.0684915 -0.00323551 0)
(-0.0590363 -0.00346764 0)
(-0.0489844 -0.00365517 0)
(-0.0383355 -0.00389493 0)
(-0.0270986 -0.00407169 0)
(-0.0153151 -0.00430642 0)
(-0.00298369 -0.00445653 0)
(0.00989655 -0.00467033 0)
(0.023224 -0.00477561 0)
(0.0369172 -0.00494597 0)
(0.0509051 -0.00498655 0)
(0.0650876 -0.00509158 0)
(0.0793545 -0.00504988 0)
(0.0935796 -0.00506705 0)
(0.107626 -0.00492828 0)
(0.121348 -0.00483778 0)
(0.13459 -0.00459331 0)
(0.147194 -0.00438179 0)
(0.159001 -0.0040329 0)
(0.169848 -0.0036385 0)
(0.179586 -0.00324721 0)
(0.188073 -0.00276578 0)
(0.195185 -0.00227018 0)
(0.200807 -0.00171835 0)
(0.204843 -0.00114658 0)
(0.207202 -0.000544932 0)
(0.207831 6.09923e-05 0)
(0.206805 0.00067357 0)
(0.204003 0.0012852 0)
(0.199535 0.00188342 0)
(0.193432 0.00243491 0)
(0.185774 0.00298907 0)
(0.176659 0.00345688 0)
(0.166213 0.00393554 0)
(0.15457 0.00429359 0)
(0.141891 0.00466952 0)
(0.128322 0.00500426 0)
(0.114025 0.00517848 0)
(0.0991728 0.00539103 0)
(0.0839313 0.00544374 0)
(0.0684607 0.00553863 0)
(0.0529125 0.00548241 0)
(0.0374139 0.00546826 0)
(0.0221115 0.00531598 0)
(0.0072956 0.00522166 0)
(-0.00696209 0.00500634 0)
(-0.0207507 0.00483022 0)
(-0.0339629 0.0045692 0)
(-0.0465085 0.00434557 0)
(-0.0583392 0.00406078 0)
(-0.0694251 0.00381157 0)
(-0.0797505 0.00352252 0)
(-0.0893143 0.00326679 0)
(-0.0981242 0.00298879 0)
(-0.1062 0.00274186 0)
(-0.113566 0.0024973 0)
(-0.120248 0.00225337 0)
(-0.126285 0.00203395 0)
(-0.131716 0.00182036 0)
(-0.136579 0.00162947 0)
(-0.140915 0.00144503 0)
(-0.144764 0.00127984 0)
(-0.148165 0.00112171 0)
(-0.151144 0.000979576 0)
(-0.153735 0.000841015 0)
(-0.155959 0.000717461 0)
(-0.157841 0.000590263 0)
(-0.159378 0.000475584 0)
(-0.160572 0.000339038 0)
(-0.161429 0.000232222 0)
(-0.161917 9.04741e-05 0)
(-0.162051 -2.77749e-05 0)
(-0.161775 -0.000192093 0)
(-0.161068 -0.000321989 0)
(-0.159977 -0.000472467 0)
(-0.158387 -0.000666483 0)
(-0.156347 -0.000822191 0)
(-0.153727 -0.00103929 0)
(-0.150586 -0.00121181 0)
(-0.146865 -0.00145535 0)
(-0.142541 -0.00164686 0)
(-0.137614 -0.00187823 0)
(-0.132078 -0.00208635 0)
(-0.125937 -0.0023296 0)
(-0.119114 -0.00250911 0)
(-0.111717 -0.00275855 0)
(-0.103756 -0.00294168 0)
(-0.0951671 -0.00316251 0)
(-0.0860165 -0.00334749 0)
(-0.0763658 -0.00355174 0)
(-0.0661416 -0.00370468 0)
(-0.0554515 -0.00387281 0)
(-0.0442808 -0.00403361 0)
(-0.0327466 -0.00417036 0)
(-0.0208303 -0.00430472 0)
(-0.00857269 -0.0044074 0)
(0.00399238 -0.00450846 0)
(0.0167769 -0.00456243 0)
(0.0297327 -0.00463413 0)
(0.0427916 -0.00463684 0)
(0.0558879 -0.00465558 0)
(0.0689403 -0.00460262 0)
(0.0818497 -0.00455932 0)
(0.0945224 -0.0044325 0)
(0.106847 -0.00430624 0)
(0.118693 -0.00409792 0)
(0.129983 -0.00390302 0)
(0.140562 -0.00360594 0)
(0.150286 -0.00330573 0)
(0.159108 -0.00295206 0)
(0.166905 -0.00257594 0)
(0.17356 -0.00214698 0)
(0.178966 -0.0016951 0)
(0.183071 -0.00122104 0)
(0.185801 -0.000726997 0)
(0.187136 -0.000229427 0)
(0.187056 0.000275223 0)
(0.185515 0.000790506 0)
(0.182532 0.00130157 0)
(0.178169 0.00179111 0)
(0.172439 0.00226961 0)
(0.165392 0.00272342 0)
(0.157102 0.00315514 0)
(0.147656 0.00354525 0)
(0.137163 0.00390594 0)
(0.125706 0.0042211 0)
(0.113437 0.00449522 0)
(0.100462 0.00471653 0)
(0.0869264 0.00489771 0)
(0.0729597 0.00502209 0)
(0.0586984 0.00510267 0)
(0.0442882 0.00513679 0)
(0.0298532 0.00511898 0)
(0.0155173 0.00506656 0)
(0.00137558 0.00496696 0)
(-0.0124621 0.00484967 0)
(-0.0258949 0.00470072 0)
(-0.0388556 0.00451627 0)
(-0.0512727 0.00430859 0)
(-0.0630715 0.00408289 0)
(-0.0742084 0.00384621 0)
(-0.0846551 0.00358808 0)
(-0.0943815 0.00332142 0)
(-0.103364 0.00304793 0)
(-0.111577 0.00278864 0)
(-0.119014 0.00252084 0)
(-0.125702 0.00224973 0)
(-0.131674 0.00199425 0)
(-0.13696 0.00174461 0)
(-0.141547 0.0015077 0)
(-0.145456 0.00127365 0)
(-0.14873 0.00106362 0)
(-0.15141 0.00085133 0)
(-0.153559 0.000682574 0)
(-0.155209 0.000494145 0)
(-0.156404 0.000341345 0)
(-0.157161 0.000199893 0)
(-0.157497 5.64414e-05 0)
(-0.157483 -5.98777e-05 0)
(-0.157154 -0.000178861 0)
(-0.156488 -0.000299071 0)
(-0.155454 -0.000427917 0)
(-0.154134 -0.000519338 0)
(-0.152466 -0.000662159 0)
(-0.150584 -0.000680162 0)
(-0.148501 -0.000784369 0)
(-0.146204 -0.000857245 0)
(-0.143597 -0.000994332 0)
(-0.140663 -0.00107416 0)
(-0.137448 -0.00121886 0)
(-0.133789 -0.00136101 0)
(-0.129809 -0.00149036 0)
(-0.125312 -0.00168842 0)
(-0.120375 -0.00183613 0)
(-0.114929 -0.00204192 0)
(-0.108905 -0.00222016 0)
(-0.102323 -0.00245219 0)
(-0.0951047 -0.00266776 0)
(-0.0872366 -0.00291537 0)
(-0.078662 -0.00316443 0)
(-0.0693872 -0.00341947 0)
(-0.0594179 -0.00367308 0)
(-0.0486962 -0.00393062 0)
(-0.0372758 -0.00416749 0)
(-0.0251916 -0.00441016 0)
(-0.0125369 -0.00459899 0)
(0.000665327 -0.00475198 0)
(0.014347 -0.00490573 0)
(0.0282949 -0.00499714 0)
(0.0424979 -0.00508791 0)
(0.0568386 -0.00509797 0)
(0.0711987 -0.00509778 0)
(0.0854187 -0.00500561 0)
(0.0993521 -0.00489629 0)
(0.112866 -0.00471283 0)
(0.125865 -0.00450388 0)
(0.138115 -0.00418564 0)
(0.14943 -0.0038663 0)
(0.159746 -0.00347208 0)
(0.168916 -0.00305784 0)
(0.176822 -0.00253722 0)
(0.183297 -0.00202498 0)
(0.188046 -0.00151904 0)
(0.191295 -0.000913079 0)
(0.192982 0.000902945 0)
(0.190462 0.00381091 0)
(0.179505 0.00629231 0)
(0.168749 0.00710887 0)
(0.162004 0.0111648 0)
(0.126261 0.0138906 0)
(-0.15049 -0.00150861 0)
(-0.147833 -0.00169384 0)
(-0.144815 -0.00188228 0)
(-0.14147 -0.00208257 0)
(-0.137783 -0.0022877 0)
(-0.133735 -0.00251177 0)
(-0.129305 -0.00273915 0)
(-0.124472 -0.00299199 0)
(-0.119212 -0.00324364 0)
(-0.113503 -0.0035279 0)
(-0.10732 -0.00380347 0)
(-0.100643 -0.00412008 0)
(-0.0934473 -0.00441714 0)
(-0.0857147 -0.00476575 0)
(-0.0774234 -0.00507931 0)
(-0.0685567 -0.00539228 0)
(-0.0591033 -0.0057793 0)
(-0.0490506 -0.006092 0)
(-0.038402 -0.00649181 0)
(-0.0271622 -0.00678667 0)
(-0.0153766 -0.00717819 0)
(-0.0030398 -0.0074286 0)
(0.00984563 -0.00778525 0)
(0.0231817 -0.00796104 0)
(0.0368837 -0.00824531 0)
(0.050883 -0.0083132 0)
(0.065078 -0.00848863 0)
(0.0793589 -0.00841934 0)
(0.0936 -0.00844831 0)
(0.107663 -0.00821712 0)
(0.121403 -0.00806652 0)
(0.134661 -0.007659 0)
(0.147285 -0.00730658 0)
(0.159109 -0.00672493 0)
(0.16997 -0.00606728 0)
(0.179726 -0.00541503 0)
(0.188226 -0.00461235 0)
(0.195353 -0.00378589 0)
(0.200984 -0.00286571 0)
(0.205029 -0.00191243 0)
(0.207397 -0.00091222 0)
(0.208035 0.000103129 0)
(0.206988 0.00112576 0)
(0.204189 0.00214162 0)
(0.199719 0.00314012 0)
(0.193605 0.00406012 0)
(0.185938 0.00498433 0)
(0.176808 0.00576431 0)
(0.166348 0.00656251 0)
(0.154686 0.00715935 0)
(0.14199 0.00778617 0)
(0.128404 0.00834424 0)
(0.114086 0.00863454 0)
(0.0992158 0.00898885 0)
(0.0839555 0.00907649 0)
(0.068467 0.00923448 0)
(0.0529026 0.0091404 0)
(0.0373875 0.00911545 0)
(0.022074 0.00886358 0)
(0.00724591 0.0087053 0)
(-0.00702274 0.00834564 0)
(-0.0208208 0.00805174 0)
(-0.0340384 0.00761645 0)
(-0.0465899 0.00724335 0)
(-0.0584226 0.00676841 0)
(-0.069511 0.00635271 0)
(-0.0798357 0.00587079 0)
(-0.0893993 0.0054443 0)
(-0.0982063 0.0049807 0)
(-0.10628 0.00456938 0)
(-0.113643 0.00416191 0)
(-0.120321 0.00375549 0)
(-0.126355 0.00338986 0)
(-0.13178 0.00303365 0)
(-0.136639 0.00271536 0)
(-0.14097 0.00240808 0)
(-0.144816 0.00213194 0)
(-0.148212 0.00186861 0)
(-0.151189 0.00163212 0)
(-0.153776 0.00140133 0)
(-0.155998 0.00119559 0)
(-0.157879 0.000983153 0)
(-0.159416 0.000793085 0)
(-0.160609 0.000565032 0)
(-0.161468 0.000387959 0)
(-0.161961 0.000150464 0)
(-0.162097 -4.66977e-05 0)
(-0.161823 -0.000320136 0)
(-0.161118 -0.000535738 0)
(-0.160031 -0.000788234 0)
(-0.158444 -0.00111052 0)
(-0.156407 -0.00136977 0)
(-0.153791 -0.00173259 0)
(-0.150654 -0.00201963 0)
(-0.146936 -0.00242562 0)
(-0.142608 -0.00274452 0)
(-0.137684 -0.00313012 0)
(-0.132152 -0.0034798 0)
(-0.126006 -0.00387957 0)
(-0.119185 -0.00418616 0)
(-0.111788 -0.0046024 0)
(-0.103822 -0.00490509 0)
(-0.0952342 -0.00527575 0)
(-0.086082 -0.00558452 0)
(-0.0764286 -0.00592321 0)
(-0.0661972 -0.00617959 0)
(-0.0555038 -0.00645702 0)
(-0.0443327 -0.00672591 0)
(-0.0327954 -0.00695396 0)
(-0.0208745 -0.00717501 0)
(-0.00861994 -0.00734287 0)
(0.00394529 -0.0075171 0)
(0.0167298 -0.00760906 0)
(0.0296985 -0.00772449 0)
(0.0427677 -0.00773136 0)
(0.055877 -0.00776582 0)
(0.0689422 -0.00767425 0)
(0.0818644 -0.00760608 0)
(0.0945555 -0.00739035 0)
(0.106894 -0.00718277 0)
(0.118746 -0.00683285 0)
(0.130037 -0.00650851 0)
(0.140631 -0.00601018 0)
(0.150361 -0.00551161 0)
(0.159199 -0.0049226 0)
(0.167015 -0.00429414 0)
(0.173682 -0.00358086 0)
(0.179093 -0.00282868 0)
(0.183202 -0.00203509 0)
(0.185935 -0.00121109 0)
(0.187276 -0.000382871 0)
(0.187191 0.000465964 0)
(0.185651 0.00131629 0)
(0.182675 0.00216979 0)
(0.178308 0.0029883 0)
(0.17257 0.00378355 0)
(0.165518 0.00453779 0)
(0.157217 0.00526101 0)
(0.147762 0.00590952 0)
(0.137256 0.00651203 0)
(0.125784 0.00703825 0)
(0.1135 0.0074929 0)
(0.10051 0.00786585 0)
(0.0869597 0.00816381 0)
(0.0729817 0.00837259 0)
(0.0587081 0.00851054 0)
(0.0442798 0.00856535 0)
(0.0298311 0.00853626 0)
(0.0154771 0.00844872 0)
(0.00132108 0.00828267 0)
(-0.0125278 0.00809015 0)
(-0.0259717 0.00783546 0)
(-0.0389327 0.00752591 0)
(-0.0513501 0.00718036 0)
(-0.0631517 0.00680668 0)
(-0.074294 0.00640951 0)
(-0.084744 0.00598042 0)
(-0.0944784 0.00553618 0)
(-0.103465 0.0050788 0)
(-0.111682 0.00464982 0)
(-0.119125 0.00420355 0)
(-0.125814 0.00375033 0)
(-0.131786 0.00332486 0)
(-0.137074 0.0029091 0)
(-0.141658 0.00251033 0)
(-0.145559 0.00212189 0)
(-0.148831 0.00177377 0)
(-0.151498 0.00141843 0)
(-0.153647 0.00113588 0)
(-0.155291 0.000818678 0)
(-0.156478 0.000566282 0)
(-0.157232 0.000333445 0)
(-0.157556 9.38488e-05 0)
(-0.157535 -0.000101554 0)
(-0.157208 -0.000301393 0)
(-0.156542 -0.000497633 0)
(-0.155509 -0.000712385 0)
(-0.15419 -0.000867659 0)
(-0.152509 -0.00110205 0)
(-0.150614 -0.00114043 0)
(-0.148547 -0.00130522 0)
(-0.146274 -0.00142866 0)
(-0.143653 -0.00165326 0)
(-0.140716 -0.00179175 0)
(-0.137515 -0.00203484 0)
(-0.133843 -0.00227205 0)
(-0.129878 -0.00248774 0)
(-0.125377 -0.002809 0)
(-0.120448 -0.00305671 0)
(-0.115004 -0.00340426 0)
(-0.108991 -0.00369868 0)
(-0.102412 -0.00408893 0)
(-0.0951934 -0.00445015 0)
(-0.0873233 -0.00486455 0)
(-0.0787426 -0.00527628 0)
(-0.0694617 -0.00570343 0)
(-0.0594896 -0.00612618 0)
(-0.0487691 -0.00655533 0)
(-0.0373546 -0.00694675 0)
(-0.0252637 -0.00735662 0)
(-0.0125959 -0.00766913 0)
(0.00060499 -0.00792202 0)
(0.0142926 -0.00817886 0)
(0.0282431 -0.00832827 0)
(0.0424519 -0.00848266 0)
(0.0567988 -0.00849911 0)
(0.0711759 -0.00849877 0)
(0.0854148 -0.00834203 0)
(0.0993632 -0.00816716 0)
(0.112892 -0.00786033 0)
(0.125918 -0.00751479 0)
(0.138192 -0.00697807 0)
(0.149525 -0.00644913 0)
(0.159867 -0.00578942 0)
(0.169068 -0.0050955 0)
(0.176975 -0.00425645 0)
(0.183462 -0.00341857 0)
(0.188395 -0.00243267 0)
(0.191577 -0.0013372 0)
(0.193065 0.000660289 0)
(0.192596 0.00488028 0)
(0.188084 0.00758617 0)
(0.179772 0.00641096 0)
(0.172747 0.00899919 0)
(0.14782 0.0117225 0)
(-0.150541 -0.00211177 0)
(-0.147886 -0.00237089 0)
(-0.14487 -0.00263453 0)
(-0.141528 -0.00291479 0)
(-0.137843 -0.00320187 0)
(-0.133799 -0.00351549 0)
(-0.129372 -0.00383373 0)
(-0.124544 -0.0041877 0)
(-0.119287 -0.00454001 0)
(-0.113583 -0.00493797 0)
(-0.107404 -0.00532382 0)
(-0.100731 -0.0057671 0)
(-0.0935378 -0.00618304 0)
(-0.0858094 -0.0066712 0)
(-0.0775202 -0.00711034 0)
(-0.0686546 -0.00754869 0)
(-0.0592037 -0.00809082 0)
(-0.04915 -0.00852887 0)
(-0.0385018 -0.00908907 0)
(-0.0272578 -0.0095024 0)
(-0.0154689 -0.0100511 0)
(-0.00312409 -0.0104022 0)
(0.00976913 -0.0109024 0)
(0.0231181 -0.011149 0)
(0.0368333 -0.0115477 0)
(0.0508499 -0.0116433 0)
(0.0650635 -0.0118897 0)
(0.0793655 -0.0117931 0)
(0.0936305 -0.0118344 0)
(0.107717 -0.0115109 0)
(0.121485 -0.0113006 0)
(0.134768 -0.01073 0)
(0.147423 -0.0102368 0)
(0.15927 -0.00942207 0)
(0.170154 -0.00850077 0)
(0.179937 -0.00758732 0)
(0.188456 -0.00646284 0)
(0.195605 -0.005305 0)
(0.201249 -0.00401567 0)
(0.205309 -0.00268021 0)
(0.207689 -0.00128063 0)
(0.208335 0.000143535 0)
(0.207267 0.00158182 0)
(0.204471 0.00299701 0)
(0.199995 0.00439874 0)
(0.193866 0.00568828 0)
(0.186184 0.00698339 0)
(0.177031 0.008076 0)
(0.16655 0.00919438 0)
(0.15486 0.0100302 0)
(0.142139 0.0109083 0)
(0.128526 0.0116899 0)
(0.114179 0.0120962 0)
(0.0992803 0.0125923 0)
(0.0839918 0.0127147 0)
(0.0684765 0.0129355 0)
(0.0528874 0.012803 0)
(0.0373478 0.0127657 0)
(0.0220179 0.0124159 0)
(0.00717099 0.0121929 0)
(-0.00711393 0.0116876 0)
(-0.020926 0.0112754 0)
(-0.0341517 0.0106654 0)
(-0.0467121 0.0101423 0)
(-0.0585478 0.00947672 0)
(-0.0696401 0.00889402 0)
(-0.0799635 0.00821887 0)
(-0.0895269 0.00762123 0)
(-0.0983295 0.00697178 0)
(-0.106401 0.0063958 0)
(-0.113759 0.00582566 0)
(-0.120431 0.00525652 0)
(-0.126459 0.00474437 0)
(-0.131876 0.00424521 0)
(-0.13673 0.00379929 0)
(-0.141053 0.00336987 0)
(-0.144893 0.00298223 0)
(-0.148283 0.00261402 0)
(-0.151255 0.00228331 0)
(-0.153838 0.00196038 0)
(-0.156058 0.00167173 0)
(-0.157936 0.00137146 0)
(-0.159476 0.00111274 0)
(-0.160665 0.000791844 0)
(-0.161529 0.000543773 0)
(-0.162026 0.00020915 0)
(-0.162164 -6.52298e-05 0)
(-0.161895 -0.000447565 0)
(-0.161195 -0.000749014 0)
(-0.160114 -0.00110205 0)
(-0.158531 -0.00155319 0)
(-0.156498 -0.00191695 0)
(-0.153885 -0.0024235 0)
(-0.150758 -0.00282901 0)
(-0.147041 -0.00339311 0)
(-0.142711 -0.00384081 0)
(-0.137792 -0.004385 0)
(-0.132264 -0.00487141 0)
(-0.126111 -0.00542877 0)
(-0.119293 -0.00586569 0)
(-0.111896 -0.00644488 0)
(-0.103925 -0.00687453 0)
(-0.095335 -0.00738741 0)
(-0.0861818 -0.00782064 0)
(-0.0765208 -0.00828933 0)
(-0.0662871 -0.00866213 0)
(-0.0555888 -0.00904156 0)
(-0.0444148 -0.00942033 0)
(-0.0328685 -0.00973158 0)
(-0.0209416 -0.0100449 0)
(-0.00868646 -0.0102777 0)
(0.00389366 -0.0105254 0)
(0.0166664 -0.0106559 0)
(0.0296575 -0.0108226 0)
(0.0427316 -0.0108333 0)
(0.0558677 -0.0108779 0)
(0.0689458 -0.0107559 0)
(0.0818903 -0.0106528 0)
(0.0945998 -0.0103527 0)
(0.106967 -0.0100605 0)
(0.118816 -0.00957022 0)
(0.130127 -0.0091137 0)
(0.140745 -0.00842067 0)
(0.150478 -0.00771429 0)
(0.159336 -0.00689497 0)
(0.167182 -0.00601699 0)
(0.173866 -0.00501686 0)
(0.179281 -0.00395904 0)
(0.183398 -0.00284826 0)
(0.186138 -0.0016974 0)
(0.18749 -0.000536241 0)
(0.187397 0.000658317 0)
(0.185862 0.00184534 0)
(0.182889 0.0030364 0)
(0.178518 0.00418513 0)
(0.17277 0.00529868 0)
(0.165708 0.0063569 0)
(0.157393 0.00736693 0)
(0.147925 0.00827701 0)
(0.1374 0.00912363 0)
(0.125906 0.00985863 0)
(0.113599 0.0104968 0)
(0.100588 0.0110185 0)
(0.087016 0.0114354 0)
(0.0730176 0.0117291 0)
(0.0587268 0.0119227 0)
(0.0442768 0.0119966 0)
(0.0298045 0.0119592 0)
(0.0154232 0.0118353 0)
(0.00124672 0.0116094 0)
(-0.012616 0.0113326 0)
(-0.0260747 0.0109682 0)
(-0.0390477 0.0105354 0)
(-0.0514696 0.0100536 0)
(-0.0632758 0.00953123 0)
(-0.0744262 0.00897262 0)
(-0.0848804 0.00837222 0)
(-0.0946208 0.00775251 0)
(-0.103615 0.00711134 0)
(-0.111836 0.00651212 0)
(-0.11928 0.0058864 0)
(-0.125967 0.00525253 0)
(-0.131942 0.00465827 0)
(-0.137225 0.00407287 0)
(-0.141803 0.00351171 0)
(-0.145694 0.00296782 0)
(-0.14897 0.00248615 0)
(-0.151619 0.00198267 0)
(-0.153764 0.00158734 0)
(-0.155399 0.00114615 0)
(-0.156577 0.000782965 0)
(-0.157338 0.000463233 0)
(-0.157637 0.00012851 0)
(-0.157623 -0.000144249 0)
(-0.157277 -0.000419739 0)
(-0.156608 -0.000694108 0)
(-0.155589 -0.000999513 0)
(-0.154269 -0.00121515 0)
(-0.152568 -0.00154623 0)
(-0.150665 -0.00159948 0)
(-0.148609 -0.00181658 0)
(-0.146393 -0.00199528 0)
(-0.143713 -0.0023195 0)
(-0.140786 -0.00250584 0)
(-0.137615 -0.00284603 0)
(-0.133903 -0.00317921 0)
(-0.129991 -0.00348197 0)
(-0.125452 -0.00392823 0)
(-0.12056 -0.00426766 0)
(-0.115102 -0.00476631 0)
(-0.109113 -0.00517905 0)
(-0.102536 -0.0057212 0)
(-0.0953157 -0.00623317 0)
(-0.0874582 -0.00680959 0)
(-0.0788704 -0.00739351 0)
(-0.0695896 -0.00798786 0)
(-0.0596029 -0.008577 0)
(-0.0488896 -0.00917892 0)
(-0.0374967 -0.00973171 0)
(-0.0253667 -0.0102985 0)
(-0.0126883 -0.0107398 0)
(0.00051349 -0.0110943 0)
(0.0142172 -0.0114458 0)
(0.0281726 -0.0116611 0)
(0.0424036 -0.0118736 0)
(0.0567485 -0.0119043 0)
(0.0711489 -0.0119073 0)
(0.0854151 -0.0116866 0)
(0.0994033 -0.0114393 0)
(0.112941 -0.0110115 0)
(0.126003 -0.0105334 0)
(0.138303 -0.00978152 0)
(0.14967 -0.00903655 0)
(0.160057 -0.00811021 0)
(0.169285 -0.00715516 0)
(0.177225 -0.00596005 0)
(0.183723 -0.00477827 0)
(0.188675 -0.00344956 0)
(0.191996 -0.0019893 0)
(0.193501 0.000575299 0)
(0.193789 0.00517267 0)
(0.192726 0.00907755 0)
(0.186315 0.0106342 0)
(0.179023 0.0157541 0)
(0.156948 0.0201689 0)
(-0.15061 -0.00271467 0)
(-0.147956 -0.00304747 0)
(-0.144943 -0.00338613 0)
(-0.141605 -0.00374621 0)
(-0.137924 -0.00411515 0)
(-0.133885 -0.00451821 0)
(-0.129463 -0.00492725 0)
(-0.12464 -0.00538232 0)
(-0.119388 -0.00583529 0)
(-0.113689 -0.00634696 0)
(-0.107515 -0.00684312 0)
(-0.100848 -0.00741311 0)
(-0.0936586 -0.00794802 0)
(-0.0859357 -0.00857579 0)
(-0.0776492 -0.00914067 0)
(-0.0687852 -0.0097046 0)
(-0.0593378 -0.010402 0)
(-0.0492827 -0.0109658 0)
(-0.0386351 -0.0116869 0)
(-0.0273854 -0.0122191 0)
(-0.0155921 -0.0129256 0)
(-0.0032367 -0.0133777 0)
(0.00966689 -0.0140225 0)
(0.0230332 -0.0143405 0)
(0.036766 -0.0148545 0)
(0.0508055 -0.0149782 0)
(0.0650439 -0.0152964 0)
(0.079374 -0.015173 0)
(0.0936709 -0.0152273 0)
(0.107789 -0.0148118 0)
(0.121595 -0.0145422 0)
(0.134911 -0.0138084 0)
(0.147606 -0.0131746 0)
(0.159485 -0.0121264 0)
(0.170399 -0.010941 0)
(0.180218 -0.00976591 0)
(0.188762 -0.00831877 0)
(0.19594 -0.00682903 0)
(0.201603 -0.00516949 0)
(0.205682 -0.00345062 0)
(0.208073 -0.00164902 0)
(0.208728 0.000182911 0)
(0.20765 0.00203845 0)
(0.204851 0.00385318 0)
(0.200364 0.00566021 0)
(0.194214 0.00732057 0)
(0.186513 0.00898773 0)
(0.177328 0.0103937 0)
(0.16682 0.0118331 0)
(0.155092 0.0129081 0)
(0.142337 0.014038 0)
(0.128689 0.0150435 0)
(0.114301 0.0155657 0)
(0.0993659 0.0162036 0)
(0.0840399 0.0163603 0)
(0.0684889 0.0166437 0)
(0.0528667 0.0164721 0)
(0.0372947 0.016422 0)
(0.0219431 0.0159753 0)
(0.00707059 0.0156838 0)
(-0.00723585 0.0150332 0)
(-0.0210665 0.0145022 0)
(-0.034303 0.0137167 0)
(-0.0468751 0.0130429 0)
(-0.0587149 0.0121859 0)
(-0.0698123 0.0114356 0)
(-0.0801342 0.0105667 0)
(-0.0896973 0.00979746 0)
(-0.0984942 0.00896174 0)
(-0.106561 0.00822034 0)
(-0.113914 0.00748788 0)
(-0.120576 0.00675566 0)
(-0.126596 0.00609733 0)
(-0.132005 0.00545432 0)
(-0.136849 0.00488105 0)
(-0.141164 0.00432969 0)
(-0.144996 0.00383109 0)
(-0.148378 0.0033575 0)
(-0.151343 0.00293363 0)
(-0.153922 0.00251614 0)
(-0.156137 0.00214776 0)
(-0.158013 0.00175581 0)
(-0.159552 0.00143267 0)
(-0.160743 0.00102144 0)
(-0.161606 0.000700694 0)
(-0.162112 0.000268336 0)
(-0.162255 -8.23935e-05 0)
(-0.16199 -0.000574353 0)
(-0.161297 -0.000959327 0)
(-0.160224 -0.00141437 0)
(-0.158646 -0.00199543 0)
(-0.156619 -0.00246151 0)
(-0.154013 -0.00311431 0)
(-0.150895 -0.00363839 0)
(-0.147182 -0.00435689 0)
(-0.142852 -0.00493311 0)
(-0.137937 -0.00564056 0)
(-0.132417 -0.00626152 0)
(-0.126255 -0.00697512 0)
(-0.119441 -0.00754338 0)
(-0.112042 -0.00828994 0)
(-0.104067 -0.00883853 0)
(-0.0954749 -0.00950016 0)
(-0.0863145 -0.0100546 0)
(-0.0766437 -0.0106504 0)
(-0.0664122 -0.0111451 0)
(-0.0557032 -0.0116345 0)
(-0.044526 -0.0121035 0)
(-0.0329813 -0.012522 0)
(-0.0210166 -0.012921 0)
(-0.00879318 -0.0132029 0)
(0.00385032 -0.0135494 0)
(0.0165758 -0.013693 0)
(0.0296395 -0.013931 0)
(0.0426719 -0.0139236 0)
(0.0558817 -0.0140042 0)
(0.0689421 -0.0138311 0)
(0.0819498 -0.0137132 0)
(0.0946386 -0.0133089 0)
(0.107077 -0.0129501 0)
(0.118895 -0.01229 0)
(0.13028 -0.0117414 0)
(0.140894 -0.0108169 0)
(0.150671 -0.0099284 0)
(0.159552 -0.00887582 0)
(0.16741 -0.00775271 0)
(0.174112 -0.00645033 0)
(0.179526 -0.00509071 0)
(0.183698 -0.00366892 0)
(0.186411 -0.00218057 0)
(0.187806 -0.000692628 0)
(0.187677 0.00085438 0)
(0.186172 0.00237136 0)
(0.183179 0.0039074 0)
(0.178806 0.00538232 0)
(0.173047 0.00682135 0)
(0.165961 0.00817762 0)
(0.157636 0.00947706 0)
(0.148143 0.0106499 0)
(0.137595 0.0117445 0)
(0.126069 0.0126822 0)
(0.113744 0.0135104 0)
(0.100694 0.0141763 0)
(0.0870989 0.0147137 0)
(0.0730629 0.0150916 0)
(0.0587536 0.0153376 0)
(0.0442738 0.0154354 0)
(0.029775 0.0153887 0)
(0.015353 0.0152285 0)
(0.00115555 0.0149409 0)
(-0.0127294 0.0145765 0)
(-0.0261978 0.0141053 0)
(-0.0391927 0.0135509 0)
(-0.0516327 0.0129277 0)
(-0.0634431 0.0122554 0)
(-0.074598 0.0115398 0)
(-0.0850735 0.010762 0)
(-0.0948047 0.00997465 0)
(-0.103808 0.00914959 0)
(-0.112033 0.00837073 0)
(-0.119472 0.00756698 0)
(-0.126149 0.00675804 0)
(-0.132131 0.00599003 0)
(-0.137398 0.00523303 0)
(-0.141977 0.00450127 0)
(-0.145848 0.00381735 0)
(-0.149133 0.00320251 0)
(-0.151769 0.00254056 0)
(-0.153891 0.00204005 0)
(-0.155535 0.00146656 0)
(-0.156681 0.00100277 0)
(-0.157467 0.000594411 0)
(-0.157722 0.000153956 0)
(-0.157751 -0.000177244 0)
(-0.157362 -0.00054574 0)
(-0.156687 -0.000888914 0)
(-0.155696 -0.00128049 0)
(-0.154353 -0.00156174 0)
(-0.152638 -0.00199419 0)
(-0.150752 -0.00205554 0)
(-0.148688 -0.00232324 0)
(-0.146528 -0.00254932 0)
(-0.143765 -0.00300328 0)
(-0.140892 -0.0032114 0)
(-0.13774 -0.0036575 0)
(-0.133978 -0.00409457 0)
(-0.130147 -0.00446352 0)
(-0.125535 -0.00505325 0)
(-0.12072 -0.00546482 0)
(-0.11523 -0.00614081 0)
(-0.109267 -0.00664406 0)
(-0.102717 -0.00736318 0)
(-0.0954613 -0.00800851 0)
(-0.0876548 -0.0087545 0)
(-0.0790333 -0.009504 0)
(-0.0697816 -0.0102697 0)
(-0.0597739 -0.0110347 0)
(-0.0490497 -0.0117867 0)
(-0.0377157 -0.0125007 0)
(-0.0254876 -0.0132589 0)
(-0.0128184 -0.0138051 0)
(0.000365388 -0.0142663 0)
(0.014135 -0.0147293 0)
(0.028072 -0.0149877 0)
(0.0423818 -0.0152863 0)
(0.0566941 -0.0152965 0)
(0.0711677 -0.0153322 0)
(0.0854194 -0.0150313 0)
(0.0994913 -0.0147282 0)
(0.113045 -0.0141551 0)
(0.126156 -0.013567 0)
(0.138447 -0.0125773 0)
(0.1499 -0.0116438 0)
(0.160323 -0.010439 0)
(0.169551 -0.00921069 0)
(0.177507 -0.00767562 0)
(0.184085 -0.00617784 0)
(0.189104 -0.00441947 0)
(0.192499 -0.00255673 0)
(0.194229 0.000343476 0)
(0.194647 0.00506685 0)
(0.194263 0.00941205 0)
(0.188701 0.0110835 0)
(0.18157 0.015969 0)
(0.16222 0.0221903 0)
(-0.150697 -0.00331725 0)
(-0.148045 -0.00372346 0)
(-0.145034 -0.00413691 0)
(-0.141701 -0.00457659 0)
(-0.138025 -0.00502728 0)
(-0.133992 -0.00551966 0)
(-0.129576 -0.00601945 0)
(-0.124759 -0.00657555 0)
(-0.119514 -0.00712918 0)
(-0.113823 -0.00775455 0)
(-0.107653 -0.00836107 0)
(-0.100994 -0.00905781 0)
(-0.0938096 -0.00971183 0)
(-0.0860937 -0.0104792 0)
(-0.0778105 -0.0111701 0)
(-0.0689485 -0.0118599 0)
(-0.0595055 -0.0127126 0)
(-0.0494487 -0.0134029 0)
(-0.0388019 -0.0142853 0)
(-0.0275451 -0.0149371 0)
(-0.0157464 -0.0158026 0)
(-0.00337781 -0.0163554 0)
(0.00953868 -0.0171466 0)