/*--------------------------------*- C++ -*----------------------------------*\
| =========                 |                                                 |
| \\      /  F ield         | OpenFOAM: The Open Source CFD Toolbox           |
|  \\    /   O peration     | Version:  3.0.1                                 |
|   \\  /    A nd           | Web:      www.OpenFOAM.org                      |
|    \\/     M anipulation  |                                                 |
\*---------------------------------------------------------------------------*/
FoamFile
{
    version     2.0;
    format      ascii;
    class       surfaceScalarField;
    location    "98.6";
    object      alphaPhi;
}
// * * * * * * * * * * * * * * * * * * * * * * * * * * * * * * * * * * * * * //

dimensions      [0 3 -1 0 0 0 0];

internalField   nonuniform List<scalar> 
42423
(
0.000204427
6.67427e-06
0.000195947
8.48015e-06
0.000185389
1.05578e-05
0.000172838
1.25518e-05
0.00015881
1.40274e-05
0.000143295
1.55152e-05
0.000126692
1.66036e-05
0.000109184
1.75079e-05
9.09864e-05
1.81973e-05
7.24925e-05
1.84939e-05
5.38092e-05
1.86833e-05
3.53254e-05
1.84838e-05
1.70584e-05
1.8267e-05
-6.12136e-07
1.76706e-05
-1.76974e-05
1.70853e-05
-3.40885e-05
1.63911e-05
-4.96341e-05
1.55456e-05
-6.42571e-05
1.4623e-05
-7.79614e-05
1.37043e-05
-9.06843e-05
1.27229e-05
-0.000102415
1.17304e-05
-0.000113196
1.07817e-05
-0.000123023
9.82673e-06
-0.00013191
8.88726e-06
-0.000139906
7.99586e-06
-0.000147031
7.12473e-06
-0.000153343
6.3119e-06
-0.00015886
5.51734e-06
-0.000163609
4.749e-06
-0.000167632
4.02264e-06
-0.000170937
3.30477e-06
-0.000173561
2.62388e-06
-0.000175502
1.94128e-06
-0.000176774
1.27178e-06
-0.000177421
6.47713e-07
-0.000177353
-6.78331e-08
-0.000176547
-8.06744e-07
-0.00017507
-1.47627e-06
-0.000172887
-2.18336e-06
-0.000169917
-2.97026e-06
-0.000166251
-3.6659e-06
-0.000161737
-4.51395e-06
-0.00015645
-5.28657e-06
-0.000150382
-6.06846e-06
-0.000143378
-7.00413e-06
-0.000135504
-7.87382e-06
-0.000126858
-8.64608e-06
-0.000117173
-9.68536e-06
-0.000106546
-1.06268e-05
-9.50301e-05
-1.15159e-05
-8.25286e-05
-1.25015e-05
-6.91715e-05
-1.33571e-05
-5.49071e-05
-1.42645e-05
-3.97056e-05
-1.52015e-05
-2.39555e-05
-1.57502e-05
-7.42824e-06
-1.65273e-05
9.63729e-06
-1.70656e-05
2.69942e-05
-1.73569e-05
4.46761e-05
-1.7682e-05
6.23955e-05
-1.77194e-05
8.00785e-05
-1.76831e-05
9.75094e-05
-1.7431e-05
0.000114404
-1.6895e-05
0.000130591
-1.61863e-05
0.000145925
-1.53343e-05
0.000160055
-1.41297e-05
0.00017292
-1.28651e-05
0.000184288
-1.1368e-05
0.000193937
-9.64936e-06
0.000201815
-7.87807e-06
0.00020769
-5.87542e-06
0.000211536
-3.84609e-06
0.000213159
-1.62273e-06
0.000212549
6.09934e-07
0.000209791
2.75805e-06
0.000204755
5.03587e-06
0.000197672
7.08355e-06
0.000188614
9.05769e-06
0.000177786
1.08275e-05
0.000165193
1.25931e-05
0.00015123
1.39638e-05
0.000136115
1.51144e-05
0.000120137
1.59784e-05
0.00010343
1.67077e-05
8.64203e-05
1.70095e-05
6.91438e-05
1.72767e-05
5.18083e-05
1.73356e-05
3.4546e-05
1.72624e-05
1.73658e-05
1.71804e-05
4.50981e-07
1.69148e-05
-1.61224e-05
1.65733e-05
-3.21688e-05
1.60463e-05
-4.75839e-05
1.5415e-05
-6.2224e-05
1.46399e-05
-7.59714e-05
1.37472e-05
-8.87459e-05
1.27743e-05
-0.000100493
1.17467e-05
-0.000111153
1.06604e-05
-0.000120713
9.55883e-06
-0.00012926
8.54761e-06
-0.000136718
7.45728e-06
-0.000143182
6.4641e-06
-0.000148665
5.48248e-06
-0.000153343
4.67752e-06
-0.000157137
3.79464e-06
-0.000160165
3.02745e-06
-0.00016243
2.26465e-06
-0.000163985
1.55499e-06
-0.000164835
8.49752e-07
-0.000165141
3.06455e-07
-0.000164726
-4.15473e-07
-0.000163708
-1.01788e-06
-0.000162021
-1.68673e-06
-0.000159806
-2.21556e-06
-0.000156902
-2.90401e-06
-0.000153461
-3.44099e-06
-0.000149326
-4.13514e-06
-0.000144626
-4.69987e-06
-0.000139242
-5.38452e-06
-0.000133209
-6.03279e-06
-0.000126518
-6.69143e-06
-0.000119133
-7.38456e-06
-0.000111044
-8.08901e-06
-0.000102243
-8.80093e-06
-9.27005e-05
-9.54284e-06
-8.24123e-05
-1.02883e-05
-7.1349e-05
-1.10634e-05
-5.95393e-05
-1.18098e-05
-4.69349e-05
-1.26045e-05
-3.35919e-05
-1.33431e-05
-1.94911e-05
-1.41009e-05
-4.58408e-06
-1.49071e-05
1.07599e-05
-1.53441e-05
2.67595e-05
-1.59997e-05
4.32239e-05
-1.64645e-05
5.99771e-05
-1.67534e-05
7.68638e-05
-1.68868e-05
9.37041e-05
-1.68404e-05
0.00011025
-1.65458e-05
0.000126302
-1.60521e-05
0.000141613
-1.5311e-05
0.000155933
-1.43202e-05
0.000169006
-1.30735e-05
0.00018063
-1.16234e-05
0.000190515
-9.88529e-06
0.0001985
-7.98515e-06
0.000204406
-5.90631e-06
0.000208069
-3.66287e-06
0.000209384
-1.31551e-06
0.000208366
1.01844e-06
0.000204919
3.44682e-06
0.000199046
5.87273e-06
0.000190945
8.10051e-06
0.000180719
1.02262e-05
0.000168569
1.21497e-05
0.000154711
1.3858e-05
0.000139403
1.53082e-05
0.00012291
1.64932e-05
0.000105449
1.74611e-05
8.7397e-05
1.80515e-05
6.8943e-05
1.8454e-05
5.04191e-05
1.85238e-05
3.19976e-05
1.84216e-05
1.38646e-05
1.81329e-05
-3.76547e-06
1.76301e-05
-2.07467e-05
1.69812e-05
-3.69909e-05
1.62442e-05
-5.23703e-05
1.53794e-05
-6.68496e-05
1.44793e-05
-8.03425e-05
1.3493e-05
-9.28707e-05
1.25283e-05
-0.00010436
1.14894e-05
-0.000114925
1.05644e-05
-0.000124476
9.55136e-06
-0.000133068
8.59174e-06
-0.000140843
7.77533e-06
-0.000147692
6.84945e-06
-0.000153727
6.03443e-06
-0.000158979
5.25289e-06
-0.000163544
4.56496e-06
-0.000167347
3.80299e-06
-0.000170456
3.10834e-06
-0.000172883
2.42725e-06
-0.00017472
1.83701e-06
-0.000175943
1.22361e-06
-0.0001766
6.5703e-07
-0.000176782
1.81186e-07
-0.000176257
-5.24493e-07
-0.000175042
-1.21555e-06
-0.000173131
-1.91046e-06
-0.00017049
-2.64091e-06
-0.000167178
-3.31234e-06
-0.000163192
-3.98628e-06
-0.000158651
-4.54017e-06
-0.000153476
-5.17577e-06
-0.000147668
-5.80733e-06
-0.000141149
-6.51943e-06
-0.000133861
-7.28742e-06
-0.000125759
-8.10245e-06
-0.000116774
-8.9852e-06
-0.000106929
-9.8452e-06
-9.61983e-05
-1.07305e-05
-8.47073e-05
-1.1491e-05
-7.23573e-05
-1.23501e-05
-5.92624e-05
-1.30949e-05
-4.54353e-05
-1.38272e-05
-3.09582e-05
-1.44772e-05
-1.58781e-05
-1.50802e-05
-2.86306e-07
-1.55918e-05
1.57337e-05
-1.60201e-05
3.20281e-05
-1.62944e-05
4.85255e-05
-1.64975e-05
6.5085e-05
-1.65597e-05
8.14754e-05
-1.63905e-05
9.75608e-05
-1.60855e-05
0.000113075
-1.55143e-05
0.000127762
-1.46869e-05
0.000141337
-1.35751e-05
0.000153542
-1.2205e-05
0.000164107
-1.05657e-05
0.000172789
-8.68214e-06
0.000179338
-6.54827e-06
0.00018359
-4.25268e-06
0.000185391
-1.80073e-06
0.000184726
6.64907e-07
0.000181515
3.21011e-06
0.00017581
5.70511e-06
0.000167808
8.00166e-06
0.000157655
1.01535e-05
0.000145576
1.20785e-05
0.000131823
1.37527e-05
0.000116655
1.51681e-05
0.000100338
1.63166e-05
8.31135e-05
1.72248e-05
6.52183e-05
1.7895e-05
4.68123e-05
1.84059e-05
2.82383e-05
1.8574e-05
9.67569e-06
1.85625e-05
-8.64896e-06
1.83246e-05
-2.6503e-05
1.78541e-05
-4.37283e-05
1.72253e-05
-6.00948e-05
1.63667e-05
-7.5582e-05
1.54873e-05
-9.00215e-05
1.44396e-05
-0.000103436
1.34145e-05
-0.000115762
1.23268e-05
-0.000126995
1.12324e-05
-0.000137163
1.01689e-05
-0.000146349
9.1858e-06
-0.000154565
8.21605e-06
-0.000161899
7.33427e-06
-0.000168444
6.54549e-06
-0.00017415
5.70618e-06
-0.000179106
4.9563e-06
-0.000183266
4.15978e-06
-0.000186706
3.44016e-06
-0.000189501
2.7956e-06
-0.000191611
2.11015e-06
-0.000193131
1.51933e-06
-0.000194047
9.16299e-07
-0.000194432
3.84958e-07
-0.000194271
-1.60401e-07
-0.000193558
-7.13273e-07
-0.000192378
-1.17929e-06
-0.0001907
-1.67835e-06
-0.000188406
-2.29376e-06
-0.000185485
-2.92087e-06
-0.000182016
-3.46899e-06
-0.000177859
-4.15684e-06
-0.000172991
-4.86806e-06
-0.000167376
-5.61538e-06
-0.000160964
-6.412e-06
-0.00015376
-7.20346e-06
-0.000145627
-8.13335e-06
-0.000136576
-9.05109e-06
-0.000126647
-9.92905e-06
-0.000115642
-1.10051e-05
-0.00010355
-1.20915e-05
-9.04482e-05
-1.3102e-05
-7.60698e-05
-1.43784e-05
-6.05994e-05
-1.54704e-05
-4.40383e-05
-1.65612e-05
-2.64559e-05
-1.75825e-05
-8.04234e-06
-1.84136e-05
1.10216e-05
-1.9064e-05
3.04596e-05
-1.94381e-05
5.00151e-05
-1.95555e-05
6.95573e-05
-1.95423e-05
8.86932e-05
-1.9136e-05
0.000107246
-1.85526e-05
0.000124924
-1.76785e-05
0.000141309
-1.63848e-05
0.000156219
-1.49096e-05
0.000169396
-1.31778e-05
0.000180362
-1.09659e-05
0.000189104
-8.74244e-06
0.000195339
-6.23417e-06
0.000198903
-3.56474e-06
0.000199815
-9.11831e-07
0.000197749
2.066e-06
0.000192989
4.75984e-06
0.000185725
7.26448e-06
0.000176126
9.59874e-06
0.000164434
1.16919e-05
0.000151003
1.34303e-05
0.000136083
1.49205e-05
0.000120055
1.60275e-05
0.000103191
1.68641e-05
8.58083e-05
1.73829e-05
6.82365e-05
1.75718e-05
5.06455e-05
1.7591e-05
3.33722e-05
1.72733e-05
1.64733e-05
1.68989e-05
2.21869e-07
1.62514e-05
-1.53732e-05
1.55951e-05
-3.02251e-05
1.48519e-05
-4.42569e-05
1.40318e-05
-5.74891e-05
1.32322e-05
-6.98979e-05
1.24088e-05
-8.15013e-05
1.16034e-05
-9.23494e-05
1.08481e-05
-0.000102456
1.01067e-05
-0.000111846
9.38959e-06
-0.000120572
8.72633e-06
-0.000128659
8.08673e-06
-0.000136144
7.48487e-06
-0.000143026
6.88219e-06
-0.000149294
6.26853e-06
-0.000154958
5.66353e-06
-0.000159992
5.03429e-06
-0.000164368
4.37568e-06
-0.000168044
3.67631e-06
-0.000170984
2.93986e-06
-0.000173155
2.17107e-06
-0.000174535
1.38007e-06
-0.000175098
5.6284e-07
-0.000174699
-3.9862e-07
-0.000173354
-1.34539e-06
-0.000171032
-2.32219e-06
-0.000167771
-3.26106e-06
-0.000163591
-4.18011e-06
-0.000158385
-5.20572e-06
-0.000152269
-6.11548e-06
-0.000145101
-7.16872e-06
-0.000137083
-8.018e-06
-0.000128209
-8.87394e-06
-0.000118336
-9.87292e-06
-0.000107594
-1.07419e-05
-9.60278e-05
-1.15662e-05
-8.34916e-05
-1.25362e-05
-7.02474e-05
-1.32441e-05
-5.61491e-05
-1.40983e-05
-4.1459e-05
-1.46902e-05
-2.6224e-05
-1.52349e-05
-1.03208e-05
-1.59032e-05
6.03015e-06
-1.6351e-05
-1.65167e-05
0.000204516
1.33502e-05
0.000196033
1.69632e-05
0.00018547
2.1121e-05
0.000172911
2.51111e-05
0.000158875
2.80631e-05
0.000143349
3.10408e-05
0.000126735
3.32174e-05
0.000109217
3.50265e-05
9.1007e-05
3.64071e-05
7.25042e-05
3.69967e-05
5.38098e-05
3.73777e-05
3.53187e-05
3.69749e-05
1.70417e-05
3.6544e-05
-6.33291e-07
3.53456e-05
-1.7723e-05
3.4175e-05
-3.41192e-05
3.27873e-05
-4.96699e-05
3.10963e-05
-6.42974e-05
2.92505e-05
-7.80037e-05
2.74106e-05
-9.07298e-05
2.54491e-05
-0.00010246
2.3461e-05
-0.000113241
2.15625e-05
-0.000123069
1.96545e-05
-0.000131959
1.77776e-05
-0.000139958
1.59948e-05
-0.00014708
1.42463e-05
-0.000153389
1.26209e-05
-0.000158906
1.10343e-05
-0.000163655
9.4981e-06
-0.000167682
8.05023e-06
-0.000170993
6.61568e-06
-0.000173614
5.24423e-06
-0.00017555
3.87788e-06
-0.000176821
2.54269e-06
-0.000177468
1.29419e-06
-0.000177402
-1.3361e-07
-0.000176601
-1.60776e-06
-0.00017512
-2.95678e-06
-0.000172939
-4.36428e-06
-0.00016997
-5.9397e-06
-0.000166307
-7.32869e-06
-0.000161793
-9.02794e-06
-0.000156504
-1.05755e-05
-0.000150438
-1.21353e-05
-0.00014343
-1.40118e-05
-0.000135559
-1.57453e-05
-0.00012691
-1.72943e-05
-0.000117223
-1.93731e-05
-0.000106605
-2.12442e-05
-9.50854e-05
-2.30359e-05
-8.25849e-05
-2.50021e-05
-6.92248e-05
-2.67173e-05
-5.49599e-05
-2.85295e-05
-3.97519e-05
-3.04096e-05
-2.40015e-05
-3.15007e-05
-7.46512e-06
-3.30638e-05
9.60883e-06
-3.41396e-05
2.69733e-05
-3.47215e-05
4.46675e-05
-3.53764e-05
6.23957e-05
-3.54477e-05
8.00884e-05
-3.53759e-05
9.75296e-05
-3.48723e-05
0.000114431
-3.3797e-05
0.000130634
-3.2389e-05
0.00014598
-3.06801e-05
0.000160109
-2.82588e-05
0.000172986
-2.57424e-05
0.000184365
-2.27474e-05
0.000194016
-1.93004e-05
0.000201907
-1.57687e-05
0.000207786
-1.1755e-05
0.000211634
-7.69384e-06
0.000213261
-3.24942e-06
0.000212652
1.21812e-06
0.000209895
5.515e-06
0.00020486
1.00715e-05
0.00019779
1.41536e-05
0.000188702
1.81458e-05
0.000177872
2.16568e-05
0.000165266
2.51999e-05
0.000151294
2.79354e-05
0.000136167
3.02414e-05
0.000120178
3.19683e-05
0.000103473
3.34129e-05
8.64501e-05
3.40324e-05
6.91748e-05
3.45522e-05
5.18359e-05
3.46747e-05
3.4573e-05
3.45255e-05
1.73995e-05
3.4354e-05
4.90689e-07
3.38237e-05
-1.60795e-05
3.31435e-05
-3.21259e-05
3.20927e-05
-4.75422e-05
3.08312e-05
-6.2197e-05
2.92946e-05
-7.59559e-05
2.7506e-05
-8.87328e-05
2.5551e-05
-0.000100491
2.35045e-05
-0.000111158
2.13275e-05
-0.000120708
1.91089e-05
-0.000129277
1.71166e-05
-0.000136745
1.49246e-05
-0.000143216
1.29345e-05
-0.000148701
1.09681e-05
-0.000153385
9.36079e-06
-0.000157185
7.59464e-06
-0.000160218
6.0604e-06
-0.00016249
4.53601e-06
-0.000164053
3.11814e-06
-0.000164908
1.70436e-06
-0.00016521
6.08891e-07
-0.000164803
-8.22259e-07
-0.000163778
-2.04306e-06
-0.000162092
-3.37346e-06
-0.000159889
-4.41874e-06
-0.00015699
-5.80268e-06
-0.000153557
-6.87405e-06
-0.000149399
-8.29289e-06
-0.000144719
-9.38037e-06
-0.000139346
-1.07578e-05
-0.000133325
-1.20533e-05
-0.000126631
-1.33853e-05
-0.000119258
-1.47579e-05
-0.000111179
-1.6168e-05
-0.000102383
-1.75971e-05
-9.28476e-05
-1.90785e-05
-8.25685e-05
-2.05675e-05
-7.14936e-05
-2.21384e-05
-5.97092e-05
-2.35944e-05
-4.71178e-05
-2.5196e-05
-3.37696e-05
-2.66914e-05
-1.96838e-05
-2.8187e-05
-4.86357e-06
-2.97275e-05
1.05605e-05
-3.07683e-05
2.65557e-05
-3.19951e-05
4.30384e-05
-3.29474e-05
5.97691e-05
-3.34842e-05
7.66595e-05
-3.37774e-05
9.34952e-05
-3.36763e-05
0.000110054
-3.31046e-05
0.000126123
-3.21213e-05
0.00014144
-3.06288e-05
0.000155779
-2.86587e-05
0.000168865
-2.61595e-05
0.000180487
-2.32456e-05
0.000190394
-1.97931e-05
0.000198393
-1.5984e-05
0.000204331
-1.18446e-05
0.00020798
-7.3119e-06
0.000209319
-2.65488e-06
0.000208301
2.03695e-06
0.00020486
6.88695e-06
0.000198987
1.17465e-05
0.000190894
1.61934e-05
0.000180663
2.04571e-05
0.000168511
2.43015e-05
0.000154654
2.77143e-05
0.000139337
3.0626e-05
0.000122825
3.3005e-05
0.000105383
3.49027e-05
8.73195e-05
3.6115e-05
6.88617e-05
3.69118e-05
5.0319e-05
3.70665e-05
3.18925e-05
3.68481e-05
1.37546e-05
3.62708e-05
-3.87539e-06
3.52601e-05
-2.08646e-05
3.39705e-05
-3.71099e-05
3.24895e-05
-5.24916e-05
3.07612e-05
-6.69783e-05
2.89661e-05
-8.04776e-05
2.69924e-05
-9.30025e-05
2.50532e-05
-0.0001045
2.29874e-05
-0.000115056
2.11198e-05
-0.000124608
1.91035e-05
-0.000133212
1.7196e-05
-0.000140975
1.55386e-05
-0.000147825
1.36992e-05
-0.000153863
1.20723e-05
-0.000159095
1.04851e-05
-0.000163674
9.14403e-06
-0.000167477
7.60577e-06
-0.000170594
6.22593e-06
-0.000173025
4.8584e-06
-0.000174864
3.6761e-06
-0.000176094
2.45319e-06
-0.000176744
1.30667e-06
-0.000176926
3.6385e-07
-0.00017641
-1.04017e-06
-0.000175202
-2.42433e-06
-0.00017329
-3.82245e-06
-0.000170667
-5.26378e-06
-0.000167355
-6.62405e-06
-0.000163395
-7.9463e-06
-0.000158829
-9.10598e-06
-0.000153681
-1.03242e-05
-0.000147863
-1.16256e-05
-0.000141369
-1.30132e-05
-0.000134085
-1.45708e-05
-0.000125975
-1.62134e-05
-0.000116993
-1.79668e-05
-0.000107147
-1.96917e-05
-9.64504e-05
-2.14268e-05
-8.4944e-05
-2.29975e-05
-7.26091e-05
-2.4685e-05
-5.95088e-05
-2.61953e-05
-4.56746e-05
-2.76616e-05
-3.11813e-05
-2.89705e-05
-1.61088e-05
-3.01528e-05
-5.18581e-07
-3.11822e-05
1.55105e-05
-3.20493e-05
3.18113e-05
-3.25954e-05
4.83148e-05
-3.30011e-05
6.48669e-05
-3.3112e-05
8.12897e-05
-3.28134e-05
9.73946e-05
-3.21905e-05
0.000112951
-3.10708e-05
0.000127639
-2.93751e-05
0.000141235
-2.71713e-05
0.000153458
-2.44279e-05
0.000164039
-2.11474e-05
0.000172731
-1.73739e-05
0.000179298
-1.31159e-05
0.000183561
-8.51535e-06
0.000185382
-3.62202e-06
0.000184711
1.33566e-06
0.000181497
6.42409e-06
0.000175803
1.13995e-05
0.000167812
1.59915e-05
0.000157635
2.03309e-05
0.000145524
2.41893e-05
0.00013177
2.7506e-05
0.000116598
3.03404e-05
0.000100269
3.26451e-05
8.30246e-05
3.44694e-05
6.51159e-05
3.58037e-05
4.67079e-05
3.68139e-05
2.81122e-05
3.71696e-05
9.53788e-06
3.71369e-05
-8.79266e-06
3.66552e-05
-2.6656e-05
3.57175e-05
-4.38862e-05
3.44555e-05
-6.02543e-05
3.27349e-05
-7.57308e-05
3.09639e-05
-9.01705e-05
2.88795e-05
-0.000103576
2.68206e-05
-0.000115905
2.46557e-05
-0.000127134
2.24614e-05
-0.000137304
2.03395e-05
-0.000146479
1.83608e-05
-0.000154687
1.64241e-05
-0.000162011
1.46579e-05
-0.000168558
1.30933e-05
-0.000174264
1.14119e-05
-0.000179213
9.90632e-06
-0.000183368
8.31448e-06
-0.0001868
6.8725e-06
-0.000189596
5.59195e-06
-0.000191705
4.21876e-06
-0.000193213
3.0274e-06
-0.000194119
1.8224e-06
-0.000194502
7.68192e-07
-0.000194347
-3.15412e-07
-0.000193637
-1.42227e-06
-0.000192443
-2.37319e-06
-0.000190764
-3.35761e-06
-0.000188475
-4.58311e-06
-0.000185553
-5.84239e-06
-0.000182074
-6.948e-06
-0.000177922
-8.30825e-06
-0.00017305
-9.74066e-06
-0.000167435
-1.12304e-05
-0.000161024
-1.28232e-05
-0.000153818
-1.44088e-05
-0.000145684
-1.6268e-05
-0.000136632
-1.81025e-05
-0.000126704
-1.98569e-05
-0.000115697
-2.2013e-05
-0.00010361
-2.41785e-05
-9.05063e-05
-2.62053e-05
-7.61226e-05
-2.87622e-05
-6.0653e-05
-3.09401e-05
-4.4086e-05
-3.31282e-05
-2.6498e-05
-3.51705e-05
-8.07161e-06
-3.68402e-05
1.10046e-05
-3.81403e-05
3.04548e-05
-3.88884e-05
5.00265e-05
-3.91273e-05
6.95834e-05
-3.90993e-05
8.8734e-05
-3.82868e-05
0.000107304
-3.7123e-05
0.000124997
-3.53712e-05
0.000141392
-3.27796e-05
0.000156318
-2.9836e-05
0.000169509
-2.6369e-05
0.000180486
-2.19425e-05
0.000189237
-1.74935e-05
0.000195468
-1.2466e-05
0.000199038
-7.13456e-06
0.000199948
-1.82244e-06
0.000197871
4.14325e-06
0.00019311
9.52042e-06
0.00018584
1.45344e-05
0.000176234
1.92054e-05
0.000164527
2.33984e-05
0.000151084
2.68736e-05
0.000136149
2.98555e-05
0.000120106
3.20697e-05
0.000103231
3.37398e-05
8.58323e-05
3.47811e-05
6.82511e-05
3.5153e-05
5.06467e-05
3.51953e-05
3.33667e-05
3.45532e-05
1.64564e-05
3.38092e-05
2.02099e-07
3.25057e-05
-1.53973e-05
3.11945e-05
-3.02532e-05
2.97077e-05
-4.4288e-05
2.80666e-05
-5.75231e-05
2.64673e-05
-6.99336e-05
2.48193e-05
-8.15367e-05
2.32064e-05
-9.2385e-05
2.16964e-05
-0.000102494
2.0216e-05
-0.000111885
1.87804e-05
-0.000120615
1.74564e-05
-0.000128702
1.61738e-05
-0.000136184
1.49666e-05
-0.000143064
1.37625e-05
-0.000149337
1.25408e-05
-0.000155007
1.13341e-05
-0.000160044
1.00713e-05
-0.000164416
8.74767e-06
-0.000168092
7.35231e-06
-0.000171035
5.88222e-06
-0.000173214
4.35082e-06
-0.000174594
2.76e-06
-0.00017515
1.11874e-06
-0.000174756
-7.92373e-07
-0.000173409
-2.69326e-06
-0.000171086
-4.64498e-06
-0.000167824
-6.52273e-06
-0.000163643
-8.36074e-06
-0.000158437
-1.04124e-05
-0.000152321
-1.22316e-05
-0.000145149
-1.43403e-05
-0.000137132
-1.60349e-05
-0.000128256
-1.77502e-05
-0.000118379
-1.97498e-05
-0.000107634
-2.14871e-05
-9.60652e-05
-2.3135e-05
-8.35266e-05
-2.50749e-05
-7.02789e-05
-2.64919e-05
-5.61766e-05
-2.82007e-05
-4.14814e-05
-2.93854e-05
-2.62426e-05
-3.04737e-05
-1.03354e-05
-3.18106e-05
6.02124e-06
-3.27076e-05
-3.30403e-05
0.000204687
2.00359e-05
0.000196192
2.54585e-05
0.000185614
3.16992e-05
0.000173037
3.76879e-05
0.000158982
4.21178e-05
0.000143435
4.65878e-05
0.000126801
4.98516e-05
0.000109263
5.2565e-05
9.10315e-05
5.46386e-05
7.25135e-05
5.55147e-05
5.38009e-05
5.60904e-05
3.52976e-05
5.54782e-05
1.7005e-05
5.48366e-05
-6.82991e-07
5.30336e-05
-1.77849e-05
5.1277e-05
-3.41893e-05
4.91917e-05
-4.97469e-05
4.6654e-05
-6.4379e-05
4.38826e-05
-7.80907e-05
4.11223e-05
-9.08182e-05
3.81767e-05
-0.00010255
3.51931e-05
-0.000113335
3.23467e-05
-0.00012316
2.948e-05
-0.000132048
2.66652e-05
-0.000140044
2.39913e-05
-0.000147168
2.13704e-05
-0.000153481
1.89341e-05
-0.000158993
1.65462e-05
-0.000163737
1.42416e-05
-0.000167762
1.20752e-05
-0.00017107
9.92362e-06
-0.000173694
7.86882e-06
-0.000175634
5.81735e-06
-0.0001769
3.80895e-06
-0.000177536
1.93015e-06
-0.000177463
-2.06252e-07
-0.00017667
-2.40065e-06
-0.000175176
-4.45133e-06
-0.000172996
-6.54422e-06
-0.000170027
-8.90865e-06
-0.000166364
-1.09917e-05
-0.000161853
-1.35394e-05
-0.000156568
-1.58602e-05
-0.000150504
-1.81991e-05
-0.000143497
-2.10192e-05
-0.000135628
-2.36135e-05
-0.000126978
-2.59443e-05
-0.000117288
-2.90637e-05
-0.000106673
-3.18591e-05
-9.51573e-05
-3.45518e-05
-8.26581e-05
-3.75014e-05
-6.92928e-05
-4.00826e-05
-5.50274e-05
-4.2795e-05
-3.98092e-05
-4.56279e-05
-2.4058e-05
-4.7252e-05
-7.50794e-06
-4.96139e-05
9.57474e-06
-5.12224e-05
2.6947e-05
-5.20938e-05
4.46537e-05
-5.30832e-05
6.23994e-05
-5.31935e-05
8.01032e-05
-5.30798e-05
9.75625e-05
-5.23317e-05
0.000114474
-5.07085e-05
0.000130688
-4.86031e-05
0.00014605
-4.60426e-05
0.000160199
-4.2408e-05
0.000173092
-3.86347e-05
0.000184485
-3.41404e-05
0.000194143
-2.89586e-05
0.000202047
-2.36731e-05
0.000207929
-1.76373e-05
0.000211789
-1.15538e-05
0.000213423
-4.88293e-06
0.000212802
1.83858e-06
0.000210054
8.26269e-06
0.00020502
1.51061e-05
0.000197944
2.12296e-05
0.000188836
2.72531e-05
0.000178006
3.24874e-05
0.000165372
3.78336e-05
0.000151385
4.19225e-05
0.000136238
4.53884e-05
0.000120228
4.79793e-05
0.00010353
5.01103e-05
8.64637e-05
5.10993e-05
6.91801e-05
5.1836e-05
5.18472e-05
5.20078e-05
3.45701e-05
5.18026e-05
1.73874e-05
5.15368e-05
4.68648e-07
5.07425e-05
-1.61212e-05
4.97333e-05
-3.21871e-05
4.81585e-05
-4.76194e-05
4.62634e-05
-6.22891e-05
4.39641e-05
-7.60738e-05
4.12905e-05
-8.88657e-05
3.83427e-05
-0.000100627
3.52653e-05
-0.000111317
3.20177e-05
-0.000120903
2.86947e-05
-0.000129451
2.56646e-05
-0.000136941
2.2414e-05
-0.000143429
1.94221e-05
-0.000148919
1.64582e-05
-0.000153611
1.40528e-05
-0.000157429
1.14119e-05
-0.000160451
9.08228e-06
-0.000162732
6.81675e-06
-0.000164302
4.68825e-06
-0.000165199
2.60161e-06
-0.00016543
8.39629e-07
-0.000165042
-1.21033e-06
-0.000164027
-3.05858e-06
-0.000162397
-5.00298e-06
-0.000160148
-6.66836e-06
-0.00015725
-8.69997e-06
-0.000153817
-1.03076e-05
-0.00014967
-1.24403e-05
-0.000144997
-1.40528e-05
-0.000139618
-1.61375e-05
-0.000133607
-1.80643e-05
-0.00012687
-2.01218e-05
-0.000119536
-2.20922e-05
-0.000111463
-2.42415e-05
-0.000102665
-2.63947e-05
-9.31309e-05
-2.86127e-05
-8.2861e-05
-3.08375e-05
-7.17316e-05
-3.32678e-05
-6.00088e-05
-3.53173e-05
-4.74291e-05
-3.77758e-05
-3.40635e-05
-4.00571e-05
-1.99799e-05
-4.22706e-05
-5.19343e-06
-4.45141e-05
1.02723e-05
-4.62342e-05
2.62667e-05
-4.79896e-05
4.27606e-05
-4.94414e-05
5.94998e-05
-5.02236e-05
7.63955e-05
-5.06732e-05
9.32398e-05
-5.05207e-05
0.000109821
-4.96857e-05
0.000125916
-4.82171e-05
0.000141273
-4.59853e-05
0.000155619
-4.30046e-05
0.000168734
-3.92746e-05
0.00018037
-3.48821e-05
0.000190299
-2.97221e-05
0.000198319
-2.40048e-05
0.000204261
-1.77861e-05
0.000207941
-1.09925e-05
0.000209291
-4.00486e-06
0.000208252
3.07571e-06
0.000204772
1.03664e-05
0.00019893
1.75887e-05
0.000190818
2.43053e-05
0.000180576
3.06993e-05
0.000168449
3.6428e-05
0.000154548
4.1615e-05
0.000139196
4.59779e-05
0.000122663
4.95385e-05
0.000105218
5.23476e-05
8.7122e-05
5.42109e-05
6.86415e-05
5.53922e-05
5.00704e-05
5.56375e-05
3.16079e-05
5.53107e-05
1.34752e-05
5.44034e-05
-4.12969e-06
5.2865e-05
-2.11771e-05
5.1018e-05
-3.74233e-05
4.87357e-05
-5.28131e-05
4.61509e-05
-6.72961e-05
4.34491e-05
-8.08012e-05
4.04975e-05
-9.33333e-05
3.75853e-05
-0.000104845
3.44996e-05
-0.000115386
3.16603e-05
-0.000124939
2.86565e-05
-0.000133582
2.58388e-05
-0.000141301
2.32577e-05
-0.000148144
2.05423e-05
-0.000154171
1.80993e-05
-0.0001594
1.57142e-05
-0.000163989
1.3733e-05
-0.000167792
1.14094e-05
-0.000170896
9.33003e-06
-0.000173328
7.28984e-06
-0.000175164
5.51184e-06
-0.000176402
3.69138e-06
-0.000177101
2.00585e-06
-0.000177212
4.74753e-07
-0.000176712
-1.54005e-06
-0.000175514
-3.62169e-06
-0.000173564
-5.77308e-06
-0.00017098
-7.84727e-06
-0.000167622
-9.98254e-06
-0.000163725
-1.18431e-05
-0.000159102
-1.37291e-05
-0.00015402
-1.54062e-05
-0.000148133
-1.75124e-05
-0.000141709
-1.94372e-05
-0.000134423
-2.1857e-05
-0.000126245
-2.43911e-05
-0.000117315
-2.68977e-05
-0.000107414
-2.95922e-05
-9.68068e-05
-3.20342e-05
-8.52804e-05
-3.4524e-05
-7.29486e-05
-3.70168e-05
-5.98336e-05
-3.93105e-05
-4.59969e-05
-4.14984e-05
-3.14719e-05
-4.34956e-05
-1.64104e-05
-4.52144e-05
-8.0845e-07
-4.67842e-05
1.52084e-05
-4.80663e-05
3.15425e-05
-4.89296e-05
4.80646e-05
-4.95233e-05
6.46276e-05
-4.9675e-05
8.10776e-05
-4.92636e-05
9.71993e-05
-4.83123e-05
0.000112787
-4.66582e-05
0.000127502
-4.40905e-05
0.000141121
-4.07904e-05
0.000153366
-3.66734e-05
0.000163981
-3.17625e-05
0.000172684
-2.6077e-05
0.000179268
-1.97004e-05
0.000183541
-1.27879e-05
0.000185401
-5.48229e-06
0.000184683
2.05402e-06
0.000181461
9.64579e-06
0.000175756
1.71045e-05
0.000167723
2.40243e-05
0.000157512
3.0541e-05
0.000145399
3.63024e-05
0.000131635
4.12699e-05
0.000116449
4.55261e-05
0.000100105
4.89893e-05
8.28307e-05
5.17432e-05
6.48728e-05
5.37614e-05
4.64726e-05
5.5214e-05
2.78524e-05
5.57897e-05
9.25913e-06
5.57301e-05
-9.08629e-06
5.50006e-05
-2.69619e-05
5.35932e-05
-4.41882e-05
5.16819e-05
-6.05533e-05
4.91e-05
-7.6011e-05
4.64217e-05
-9.04527e-05
4.33213e-05
-0.000103829
4.01972e-05
-0.000116178
3.70048e-05
-0.000127397
3.36802e-05
-0.000137563
3.05062e-05
-0.000146717
2.75144e-05
-0.000154919
2.46263e-05
-0.000162228
2.1967e-05
-0.000168767
1.96329e-05
-0.000174466
1.71112e-05
-0.0001794
1.48408e-05
-0.000183547
1.24616e-05
-0.000186971
1.02962e-05
-0.000189761
8.38208e-06
-0.000191859
6.31738e-06
-0.000193352
4.52071e-06
-0.000194257
2.72696e-06
-0.000194629
1.14077e-06
-0.000194467
-4.77083e-07
-0.000193766
-2.12375e-06
-0.000192543
-3.59587e-06
-0.000190861
-5.03975e-06
-0.00018858
-6.86402e-06
-0.000185655
-8.7668e-06
-0.000182153
-1.04499e-05
-0.00017802
-1.24419e-05
-0.00017314
-1.46208e-05
-0.000167524
-1.68463e-05
-0.000161114
-1.92332e-05
-0.000153904
-2.16181e-05
-0.000145769
-2.44031e-05
-0.000136718
-2.71541e-05
-0.000126791
-2.97835e-05
-0.000115786
-3.30179e-05
-0.000103706
-3.62583e-05
-9.06005e-05
-3.93114e-05
-7.62144e-05
-4.31483e-05
-6.07519e-05
-4.64027e-05
-4.4173e-05
-4.97073e-05
-2.65699e-05
-5.27737e-05
-8.12555e-06
-5.52846e-05
1.09684e-05
-5.72343e-05
3.04406e-05
-5.83607e-05
5.00334e-05
-5.87202e-05
6.96126e-05
-5.86786e-05
8.87838e-05
-5.74581e-05
0.00010738
-5.57191e-05
0.000125102
-5.30936e-05
0.000141516
-4.91937e-05
0.000156462
-4.47819e-05
0.00016967
-3.95771e-05
0.000180664
-3.2937e-05
0.00018944
-2.62695e-05
0.00019566
-1.86862e-05
0.000199255
-1.07295e-05
0.000200165
-2.7324e-06
0.000198057
6.25112e-06
0.000193299
1.42786e-05
0.000186018
2.18153e-05
0.000176396
2.88268e-05
0.000164663
3.5131e-05
0.000151198
4.03394e-05
0.000136237
4.48164e-05
0.000120167
4.81392e-05
0.000103272
5.06348e-05
8.58467e-05
5.22063e-05
6.82508e-05
5.27488e-05
5.06243e-05
5.28218e-05
3.33351e-05
5.18424e-05
1.64067e-05
5.07375e-05
1.46646e-07
4.87658e-05
-1.54607e-05
4.68018e-05
-3.0322e-05
4.4569e-05
-4.43588e-05
4.21035e-05
-5.75946e-05
3.9703e-05
-7.00049e-05
3.72296e-05
-8.16084e-05
3.48099e-05
-9.24565e-05
3.25445e-05
-0.000102564
3.0323e-05
-0.000111953
2.81698e-05
-0.000120684
2.61869e-05
-0.000128768
2.42579e-05
-0.000136252
2.2451e-05
-0.000143135
2.06449e-05
-0.000149407
1.88132e-05
-0.000155074
1.70008e-05
-0.000160111
1.51083e-05
-0.000164489
1.31258e-05
-0.000168168
1.10314e-05
-0.00017111
8.82417e-06
-0.00017329
6.53135e-06
-0.000174676
4.1458e-06
-0.000175226
1.66897e-06
-0.000174826
-1.1925e-06
-0.000173483
-4.03617e-06
-0.000171161
-6.9677e-06
-0.0001679
-9.78341e-06
-0.000163719
-1.25418e-05
-0.000158512
-1.56198e-05
-0.000152395
-1.8348e-05
-0.000145222
-2.15136e-05
-0.0001372
-2.40564e-05
-0.000128324
-2.66265e-05
-0.000118446
-2.96281e-05
-0.000107697
-3.22358e-05
-9.6125e-05
-3.4707e-05
-8.35844e-05
-3.76156e-05
-7.03323e-05
-3.9744e-05
-5.62253e-05
-4.23077e-05
-4.15224e-05
-4.40882e-05
-2.62778e-05
-4.57183e-05
-1.0364e-05
-4.77245e-05
6.00418e-06
-4.90758e-05
-4.9577e-05
0.000204944
2.67362e-05
0.000196431
3.39719e-05
0.00018583
4.22999e-05
0.000173227
5.02907e-05
0.000159144
5.62011e-05
0.000143564
6.21672e-05
0.0001269
6.6516e-05
0.000109332
7.01329e-05
9.10686e-05
7.2902e-05
7.25272e-05
7.40561e-05
5.3788e-05
7.48297e-05
3.52657e-05
7.40005e-05
1.69513e-05
7.3151e-05
-7.57912e-07
7.07428e-05
-1.78781e-05
6.83971e-05
-3.42957e-05
6.56094e-05
-4.98648e-05
6.22231e-05
-6.45038e-05
5.85216e-05
-7.82225e-05
5.48409e-05
-9.09528e-05
5.09071e-05
-0.000102686
4.69259e-05
-0.000113473
4.31341e-05
-0.000123296
3.93029e-05
-0.000132184
3.55534e-05
-0.000140179
3.19862e-05
-0.000147302
2.84929e-05
-0.000153615
2.52471e-05
-0.00015912
2.20521e-05
-0.000163864
1.89852e-05
-0.000167888
1.60993e-05
-0.000171194
1.32295e-05
-0.000173821
1.04957e-05
-0.000175759
7.7556e-06
-0.000177025
5.07528e-06
-0.000177639
2.54352e-06
-0.00017755
-2.95435e-07
-0.000176756
-3.19457e-06
-0.000175258
-5.94887e-06
-0.00017308
-8.72293e-06
-0.000170114
-1.18738e-05
-0.00016645
-1.4656e-05
-0.000161941
-1.80488e-05
-0.000156663
-2.1138e-05
-0.000150604
-2.42582e-05
-0.000143598
-2.80251e-05
-0.000135734
-3.14774e-05
-0.000127082
-3.45968e-05
-0.000117388
-3.87572e-05
-0.000106768
-4.24791e-05
-9.52662e-05
-4.60541e-05
-8.27687e-05
-4.99989e-05
-6.93954e-05
-5.3456e-05
-5.51294e-05
-5.70611e-05
-3.98957e-05
-6.08616e-05
-2.41437e-05
-6.30042e-05
-7.57284e-06
-6.61849e-05
9.52311e-06
-6.83185e-05
2.69046e-05
-6.94754e-05
4.46313e-05
-7.081e-05
6.24009e-05
-7.09631e-05
8.01232e-05
-7.08023e-05
9.76081e-05
-6.98167e-05
0.000114536
-6.76366e-05
0.000130772
-6.48395e-05
0.00014616
-6.14301e-05
0.000160328
-5.65761e-05
0.000173245
-5.15521e-05
0.00018464
-4.55354e-05
0.000194322
-3.86407e-05
0.000202249
-3.16005e-05
0.000208136
-2.35242e-05
0.00021201
-1.54277e-05
0.000213651
-6.52364e-06
0.000213027
2.46253e-06
0.000210264
1.10253e-05
0.000205256
2.01137e-05
0.000198167
2.83191e-05
0.000189034
3.63861e-05
0.000178175
4.33466e-05
0.000165532
5.04768e-05
0.00015152
5.59343e-05
0.000136341
6.05673e-05
0.00012029
6.40312e-05
0.000103613
6.67869e-05
8.64647e-05
6.82479e-05
6.91702e-05
6.91306e-05
5.18642e-05
6.9314e-05
3.45118e-05
6.91551e-05
1.73066e-05
6.87421e-05
3.77079e-07
6.7672e-05
-1.62474e-05
6.63577e-05
-3.23553e-05
6.42663e-05
-4.7826e-05
6.17339e-05
-6.25177e-05
5.86557e-05
-7.63364e-05
5.5109e-05
-8.91602e-05
5.11663e-05
-0.000100934
4.70388e-05
-0.000111658
4.27413e-05
-0.00012129
3.83265e-05
-0.000129826
3.42009e-05
-0.000137306
2.98939e-05
-0.000143809
2.59241e-05
-0.00014937
2.20191e-05