/*--------------------------------*- C++ -*----------------------------------*\
| =========                 |                                                 |
| \\      /  F ield         | OpenFOAM: The Open Source CFD Toolbox           |
|  \\    /   O peration     | Version:  3.0.1                                 |
|   \\  /    A nd           | Web:      www.OpenFOAM.org                      |
|    \\/     M anipulation  |                                                 |
\*---------------------------------------------------------------------------*/
FoamFile
{
    version     2.0;
    format      ascii;
    class       surfaceScalarField;
    location    "26.2";
    object      alphaPhi;
}
// * * * * * * * * * * * * * * * * * * * * * * * * * * * * * * * * * * * * * //

dimensions      [0 3 -1 0 0 0 0];

internalField   nonuniform List<scalar> 
42423
(
-1.55704e-05
1.61363e-05
-3.09239e-05
1.53535e-05
-4.55297e-05
1.46057e-05
-5.92992e-05
1.37696e-05
-7.21183e-05
1.28191e-05
-8.4037e-05
1.19187e-05
-9.49902e-05
1.09532e-05
-0.000105034
1.00442e-05
-0.000114165
9.13102e-06
-0.000122379
8.2139e-06
-0.000129732
7.35241e-06
-0.000136239
6.50743e-06
-0.000141923
5.6834e-06
-0.000146823
4.9009e-06
-0.000150966
4.14278e-06
-0.000154379
3.41288e-06
-0.000157065
2.68578e-06
-0.000159066
2.00077e-06
-0.000160394
1.32873e-06
-0.000161084
6.89585e-07
-0.000161053
-3.08457e-08
-0.000160295
-7.58607e-07
-0.000158849
-1.44566e-06
-0.000156692
-2.15711e-06
-0.000153795
-2.89721e-06
-0.000150099
-3.69516e-06
-0.000145647
-4.45286e-06
-0.00014051
-5.1366e-06
-0.00013438
-6.13013e-06
-0.000127454
-6.92569e-06
-0.000119674
-7.78014e-06
-0.000110923
-8.75126e-06
-0.000101187
-9.73599e-06
-9.04622e-05
-1.07247e-05
-7.86411e-05
-1.18212e-05
-6.60623e-05
-1.25788e-05
-5.22531e-05
-1.38093e-05
-3.75819e-05
-1.46712e-05
-2.19629e-05
-1.5619e-05
-5.57305e-06
-1.63899e-05
1.17994e-05
-1.73725e-05
2.98378e-05
-1.80385e-05
4.84883e-05
-1.86506e-05
6.73216e-05
-1.88333e-05
8.63959e-05
-1.90744e-05
0.000105526
-1.91301e-05
0.000124225
-1.86996e-05
0.000142467
-1.82414e-05
0.000160032
-1.75648e-05
0.000176435
-1.64037e-05
0.000191677
-1.52419e-05
0.000205352
-1.3675e-05
0.000217351
-1.19993e-05
0.000227455
-1.01041e-05
0.000235421
-7.96606e-06
0.000241144
-5.72284e-06
0.000244578
-3.43394e-06
0.000245522
-9.44439e-07
0.000243996
1.52627e-06
0.000239998
3.99759e-06
0.00023371
6.28888e-06
0.000225179
8.53074e-06
0.000214551
1.0628e-05
0.00020207
1.2481e-05
0.000187781
1.42887e-05
0.000172161
1.56199e-05
0.000155196
1.69654e-05
0.000137378
1.78181e-05
0.000118801
1.85769e-05
9.98504e-05
1.89502e-05
8.06235e-05
1.92269e-05
6.1527e-05
1.90966e-05
4.2524e-05
1.90029e-05
2.40377e-05
1.84863e-05
6.04705e-06
1.79907e-05
-1.11791e-05
1.72261e-05
-2.75697e-05
1.63905e-05
-4.31845e-05
1.56148e-05
-5.78325e-05
1.4648e-05
-7.14249e-05
1.35923e-05
-8.40502e-05
1.26253e-05
-9.56526e-05
1.16024e-05
-0.00010606
1.04071e-05
-0.000115562
9.50174e-06
-0.000124008
8.44596e-06
-0.000131366
7.35821e-06
-0.000137758
6.39263e-06
-0.000143102
5.34378e-06
-0.000147667
4.56513e-06
-0.000151209
3.54181e-06
-0.000153923
2.7132e-06
-0.000155815
1.89208e-06
-0.000156899
1.08422e-06
-0.000157293
3.94187e-07
-0.000156896
-3.9665e-07
-0.000155828
-1.06806e-06
-0.000154173
-1.65558e-06
-0.000151881
-2.29145e-06
-0.000148999
-2.8828e-06
-0.000145594
-3.40501e-06
-0.000141652
-3.94209e-06
-0.000136976
-4.67575e-06
-0.000131711
-5.26451e-06
-0.000125893
-5.81885e-06
-0.000119268
-6.62436e-06
-0.000111959
-7.3095e-06
-0.000103885
-8.07332e-06
-9.50368e-05
-8.84875e-06
-8.5419e-05
-9.6178e-06
-7.49655e-05
-1.04536e-05
-6.3759e-05
-1.12066e-05
-5.17096e-05
-1.20494e-05
-3.87763e-05
-1.29333e-05
-2.51741e-05
-1.36024e-05
-1.07698e-05
-1.44044e-05
4.36697e-06
-1.51368e-05
2.01187e-05
-1.57518e-05
3.64215e-05
-1.63029e-05
5.31889e-05
-1.67675e-05
7.02671e-05
-1.70783e-05
8.75025e-05
-1.72356e-05
0.00010473
-1.7228e-05
0.000121777
-1.70468e-05
0.000138372
-1.65949e-05
0.00015428
-1.59086e-05
0.000169286
-1.50054e-05
0.000183085
-1.38e-05
0.000195405
-1.23193e-05
0.000206021
-1.06163e-05
0.000214665
-8.64435e-06
0.000221177
-6.51222e-06
0.000225301
-4.12387e-06
0.000227012
-1.71071e-06
0.000226237
7.7427e-07
0.000222924
3.31309e-06
0.000217099
5.82467e-06
0.000208918
8.18096e-06
0.000198491
1.04277e-05
0.000186052
1.24387e-05
0.000171806
1.42461e-05
0.000156067
1.5739e-05
0.000139024
1.70422e-05
0.000121021
1.80034e-05
0.000102292
1.87293e-05
8.32209e-05
1.90707e-05
6.40268e-05
1.91941e-05
4.50076e-05
1.90192e-05
2.64024e-05
1.86052e-05
8.31776e-06
1.80847e-05
-8.9678e-06
1.72856e-05
-2.54513e-05
1.64835e-05
-4.08745e-05
1.54232e-05
-5.53356e-05
1.44611e-05
-6.87187e-05
1.33831e-05
-8.09123e-05
1.21936e-05
-9.20761e-05
1.11638e-05
-0.000102246
1.01703e-05
-0.000111364
9.11755e-06
-0.000119582
8.21795e-06
-0.00012684
7.25829e-06
-0.000133396
6.55612e-06
-0.000139104
5.70815e-06
-0.000144094
4.98984e-06
-0.000148369
4.27452e-06
-0.000151992
3.62323e-06
-0.000155073
3.08064e-06
-0.000157527
2.45452e-06
-0.000159365
1.83816e-06
-0.000160613
1.24737e-06
-0.000161447
8.34389e-07
-0.000161596
1.48911e-07
-0.00016115
-4.45804e-07
-0.000160224
-9.26668e-07
-0.000158678
-1.54559e-06
-0.0001565
-2.17759e-06
-0.000153761
-2.73978e-06
-0.000150163
-3.59771e-06
-0.000145896
-4.26668e-06
-0.000140933
-4.9629e-06
-0.000135127
-5.80589e-06
-0.000128498
-6.62938e-06
-0.00012103
-7.46768e-06
-0.000112716
-8.3146e-06
-0.000103501
-9.21472e-06
-9.3302e-05
-1.01991e-05
-8.21005e-05
-1.12016e-05
-6.98874e-05
-1.22131e-05
-5.68033e-05
-1.30842e-05
-4.27787e-05
-1.40247e-05
-2.79016e-05
-1.48772e-05
-1.22555e-05
-1.56461e-05
4.06569e-06
-1.63212e-05
2.09897e-05
-1.69241e-05
3.83158e-05
-1.73261e-05
5.59153e-05
-1.75996e-05
7.35749e-05
-1.76597e-05
9.1153e-05
-1.75781e-05
0.000108295
-1.71418e-05
0.000124868
-1.65731e-05
0.000140591
-1.57232e-05
0.000155212
-1.4621e-05
0.00016846
-1.32487e-05
0.000180128
-1.16674e-05
0.000189982
-9.85425e-06
0.000197858
-7.87629e-06
0.000203551
-5.69298e-06
0.000206986
-3.43482e-06
0.000208074
-1.08772e-06
0.00020684
1.23318e-06
0.000203227
3.61321e-06
0.000197287
5.94055e-06
0.000189181
8.10529e-06
0.000179045
1.01362e-05
0.000167093
1.19525e-05
0.000153494
1.35988e-05
0.000138521
1.49729e-05
0.000122458
1.60628e-05
0.000105468
1.69905e-05
8.77889e-05
1.76787e-05
6.97821e-05
1.80068e-05
5.15089e-05
1.82732e-05
3.33382e-05
1.81707e-05
1.53472e-05
1.7991e-05
-2.19896e-06
1.75462e-05
-1.90926e-05
1.68936e-05
-3.53005e-05
1.62079e-05
-5.06641e-05
1.53636e-05
-6.51374e-05
1.44732e-05
-7.86858e-05
1.35484e-05
-9.12239e-05
1.25381e-05
-0.000102786
1.15619e-05
-0.000113327
1.05408e-05
-0.000122834
9.50692e-06
-0.000131357
8.52326e-06
-0.000139027
7.67054e-06
-0.000145721
6.69356e-06
-0.000151541
5.82043e-06
-0.000156531
4.99005e-06
-0.000160767
4.23609e-06
-0.000164259
3.49175e-06
-0.000167
2.74097e-06
-0.00016906
2.05987e-06
-0.000170567
1.50659e-06
-0.000171436
8.69776e-07
-0.000171677
2.40124e-07
-0.000171345
-3.31388e-07
-0.000170275
-1.06998e-06
-0.00016861
-1.66561e-06
-0.000166415
-2.19433e-06
-0.000163481
-2.93385e-06
-0.000159828
-3.65358e-06
-0.000155543
-4.28445e-06
-0.000150665
-4.87827e-06
-0.000144986
-5.67968e-06
-0.00013856
-6.42587e-06
-0.000131316
-7.2434e-06
-0.000123307
-8.00946e-06
-0.000114456
-8.85061e-06
-0.000104784
-9.67228e-06
-9.42379e-05
-1.05462e-05
-8.2896e-05
-1.13419e-05
-7.06972e-05
-1.21988e-05
-5.76465e-05
-1.30507e-05
-4.3842e-05
-1.38046e-05
-2.92362e-05
-1.46059e-05
-1.39265e-05
-1.53098e-05
1.91567e-06
-1.58422e-05
1.83081e-05
-1.63925e-05
3.51074e-05
-1.67993e-05
5.20323e-05
-1.6925e-05
6.90326e-05
-1.70004e-05
8.58827e-05
-1.68503e-05
0.000102277
-1.63942e-05
0.000118224
-1.59474e-05
0.000133347
-1.51229e-05
0.000147384
-1.40373e-05
0.000160274
-1.28896e-05
0.000171759
-1.14854e-05
0.000181503
-9.74352e-06
0.000189521
-8.01863e-06
0.000195539
-6.01795e-06
0.000199431
-3.89232e-06
0.000201198
-1.76693e-06
0.000200626
5.71589e-07
0.000197858
2.76799e-06
0.000192711
5.1477e-06
0.000185325
7.38603e-06
0.000175963
9.36122e-06
0.000164546
1.14175e-05
0.000151573
1.29732e-05
0.000136924
1.46484e-05
0.000121185
1.57387e-05
0.000104413
1.67721e-05
8.70443e-05
1.7369e-05
6.92164e-05
1.78279e-05
5.13254e-05
1.78909e-05
3.34487e-05
1.78768e-05
1.58949e-05
1.75537e-05
-1.15095e-06
1.70459e-05
-1.76198e-05
1.64688e-05
-3.33411e-05
1.57213e-05
-4.82655e-05
1.49244e-05
-6.22463e-05
1.39808e-05
-7.52837e-05
1.30374e-05
-8.73474e-05
1.20637e-05
-9.83879e-05
1.10405e-05
-0.000108444
1.00556e-05
-0.000117532
9.08831e-06
-0.000125649
8.11739e-06
-0.000132872
7.22311e-06
-0.000139232
6.35942e-06
-0.000144748
5.51616e-06
-0.000149494
4.74621e-06
-0.000153531
4.03639e-06
-0.000156883
3.35291e-06
-0.00015958
2.6969e-06
-0.000161683
2.10278e-06
-0.000163191
1.50801e-06
-0.000164154
9.62395e-07
-0.000164562
4.08477e-07
-0.000164309
-2.52687e-07
-0.000163427
-8.81827e-07
-0.00016185
-1.57793e-06
-0.000159655
-2.19424e-06
-0.000156673
-2.98241e-06
-0.000152962
-3.71138e-06
-0.000148515
-4.44673e-06
-0.000143212
-5.30277e-06
-0.000137052
-6.16027e-06
-0.000130115
-6.937e-06
-0.000122199
-7.91592e-06
-0.000113367
-8.8318e-06
-0.000103782
-9.58475e-06
-9.31751e-05
-1.06073e-05
-8.17944e-05
-1.13807e-05
-6.9484e-05
-1.23104e-05
-5.64247e-05
-1.30593e-05
-4.26396e-05
-1.37852e-05
-2.81941e-05
-1.44455e-05
-1.30993e-05
-1.50949e-05
2.2935e-06
-1.53928e-05
1.82474e-05
-1.5954e-05
3.44273e-05
-1.618e-05
5.08558e-05
-1.64285e-05
6.72511e-05
-1.63953e-05
8.34142e-05
-1.61632e-05
9.93079e-05
-1.58937e-05
0.000114728
-1.54205e-05
0.000129406
-1.46775e-05
0.000143254
-1.38479e-05
0.000155995
-1.2742e-05
0.000167501
-1.15057e-05
0.000177473
-9.97178e-06
0.000185772
-8.29889e-06
0.000192168
-6.39618e-06
0.000196578
-4.41034e-06
-2.42299e-06
-1.5602e-05
3.22756e-05
-3.09576e-05
3.07091e-05
-4.55658e-05
2.9214e-05
-5.93375e-05
2.75412e-05
-7.21579e-05
2.56395e-05
-8.40787e-05
2.38395e-05
-9.50344e-05
2.19088e-05
-0.00010508
2.00894e-05
-0.000114209
1.82609e-05
-0.000122425
1.64296e-05
-0.000129778
1.47057e-05
-0.000136291
1.30196e-05
-0.000141979
1.13716e-05
-0.000146877
9.79928e-06
-0.000151017
8.28268e-06
-0.000154429
6.82435e-06
-0.000157122
5.37924e-06
-0.000159131
4.00976e-06
-0.000160452
2.64976e-06
-0.000161132
1.36921e-06
-0.000161099
-6.31966e-08
-0.000160342
-1.51589e-06
-0.000158898
-2.89011e-06
-0.000156738
-4.31703e-06
-0.000153845
-5.78993e-06
-0.000150151
-7.3889e-06
-0.000145699
-8.9052e-06
-0.000140566
-1.02692e-05
-0.000134433
-1.22634e-05
-0.000127511
-1.38476e-05
-0.000119728
-1.5563e-05
-0.000110984
-1.74957e-05
-0.000101243
-1.94773e-05
-9.051e-05
-2.14577e-05
-7.86956e-05
-2.36357e-05
-6.61123e-05
-2.51622e-05
-5.23051e-05
-2.76165e-05
-3.76226e-05
-2.93538e-05
-2.20057e-05
-3.1236e-05
-5.58774e-06
-3.2808e-05
1.17648e-05
-3.47252e-05
2.98071e-05
-3.60809e-05
4.84685e-05
-3.73121e-05
6.73093e-05
-3.76742e-05
8.63946e-05
-3.81598e-05
0.000105542
-3.82772e-05
0.000124245
-3.7403e-05
0.000142505
-3.65012e-05
0.000160085
-3.51455e-05
0.000176495
-3.28141e-05
0.00019176
-3.05062e-05
0.000205438
-2.73535e-05
0.000217448
-2.40098e-05
0.000227562
-2.02175e-05
0.000235538
-1.59428e-05
0.000241261
-1.14461e-05
0.000244703
-6.87588e-06
0.000245654
-1.89484e-06
0.000244117
3.06311e-06
0.000240123
7.99085e-06
0.000233835
1.25773e-05
0.000225299
1.70665e-05
0.000214672
2.12551e-05
0.000202173
2.49796e-05
0.000187874
2.85879e-05
0.000172239
3.12549e-05
0.000155262
3.39423e-05
0.00013743
3.56505e-05
0.000118842
3.71642e-05
9.98765e-05
3.79159e-05
8.06426e-05
3.84608e-05
6.15272e-05
3.8212e-05
4.25262e-05
3.8004e-05
2.40156e-05
3.69968e-05
6.02322e-06
3.59831e-05
-1.12181e-05
3.44674e-05
-2.76142e-05
3.27866e-05
-4.32443e-05
3.1245e-05
-5.78952e-05
2.92989e-05
-7.15004e-05
2.71975e-05
-8.41248e-05
2.52497e-05
-9.57395e-05
2.32171e-05
-0.000106152
2.08193e-05
-0.00011565
1.89995e-05
-0.000124103
1.68989e-05
-0.000131463
1.47188e-05
-0.000137857
1.2786e-05
-0.000143221
1.07077e-05
-0.000147765
9.10902e-06
-0.00015132
7.09685e-06
-0.000154033
5.42605e-06
-0.000155931
3.79096e-06
-0.000157015
2.16723e-06
-0.000157383
7.62443e-07
-0.000156991
-7.88735e-07
-0.000155914
-2.14446e-06
-0.000154257
-3.31297e-06
-0.000151972
-4.57631e-06
-0.000149085
-5.77023e-06
-0.000145679
-6.81049e-06
-0.000141731
-7.8901e-06
-0.000137056
-9.35101e-06
-0.000131825
-1.04961e-05
-0.000125963
-1.16805e-05
-0.000119339
-1.32487e-05
-0.000112028
-1.46208e-05
-0.000103952
-1.61489e-05
-9.51002e-05
-1.77006e-05
-8.548e-05
-1.92381e-05
-7.50372e-05
-2.08965e-05
-6.38098e-05
-2.24341e-05
-5.17515e-05
-2.41078e-05
-3.88229e-05
-2.58621e-05
-2.52027e-05
-2.72226e-05
-1.07908e-05
-2.88164e-05
4.3446e-06
-3.02723e-05
2.01009e-05
-3.15083e-05
3.64175e-05
-3.26196e-05
5.3188e-05
-3.35382e-05
7.02856e-05
-3.41762e-05
8.75321e-05
-3.44822e-05
0.000104773
-3.44686e-05
0.000121832
-3.41063e-05
0.000138443
-3.32056e-05
0.000154368
-3.18342e-05
0.000169382
-3.00198e-05
0.000183192
-2.76095e-05
0.000195518
-2.46456e-05
0.000206148
-2.12467e-05
0.000214798
-1.72948e-05
0.000221323
-1.3037e-05
0.000225447
-8.24781e-06
0.00022716
-3.42393e-06
0.00022637
1.5638e-06
0.000223057
6.62659e-06
0.00021723
1.16509e-05
0.000209037
1.63739e-05
0.000198598
2.08673e-05
0.000186145
2.48918e-05
0.000171878
2.85128e-05
0.000156124
3.14926e-05
0.000139073
3.40937e-05
0.000121052
3.60241e-05
0.000102297
3.74839e-05
8.32053e-05
3.81628e-05
6.40043e-05
3.83951e-05
4.49668e-05
3.80567e-05
2.63446e-05
3.72274e-05
8.25303e-06
3.61763e-05
-9.04324e-06
3.45818e-05
-2.55374e-05
3.29776e-05
-4.0969e-05
3.08549e-05
-5.54372e-05
2.89293e-05
-6.88293e-05
2.67752e-05
-8.10228e-05
2.43872e-05
-9.2216e-05
2.2357e-05
-0.00010236
2.0314e-05
-0.000111473
1.82313e-05
-0.000119694
1.6439e-05
-0.000126958
1.45217e-05
-0.000133503
1.31008e-05
-0.000139209
1.14151e-05
-0.000144198
9.97805e-06
-0.000148473
8.54961e-06
-0.000152088
7.23881e-06
-0.000155169
6.16141e-06
-0.000157626
4.91137e-06
-0.000159459
3.67101e-06
-0.000160705
2.49381e-06
-0.000161541
1.66983e-06
-0.000161685
2.93353e-07
-0.000161245
-8.85439e-07
-0.000160301
-1.87089e-06
-0.000158758
-3.08843e-06
-0.000156587
-4.34897e-06
-0.000153857
-5.47025e-06
-0.000150238
-7.21643e-06
-0.000145971
-8.53335e-06
-0.000141027
-9.90699e-06
-0.000135212
-1.16212e-05
-0.000128567
-1.32738e-05
-0.000121102
-1.49335e-05
-0.000112787
-1.66295e-05
-0.000103568
-1.84333e-05
-9.33626e-05
-2.04047e-05
-8.21615e-05
-2.24028e-05
-6.99393e-05
-2.44353e-05
-5.68606e-05
-2.6163e-05
-4.28259e-05
-2.80594e-05
-2.79314e-05
-2.97717e-05
-1.22738e-05
-3.13039e-05
4.06074e-06
-3.26558e-05
2.09922e-05
-3.38556e-05
3.83296e-05
-3.46636e-05
5.5935e-05
-3.52051e-05
7.36107e-05
-3.53355e-05
9.1196e-05
-3.51635e-05
0.00010835
-3.42959e-05
0.000124935
-3.31584e-05
0.000140669
-3.14574e-05
0.000155305
-2.92568e-05
0.000168567
-2.65113e-05
0.000180237
-2.33371e-05
0.000190107
-1.97245e-05
0.000197988
-1.57576e-05
0.000203686
-1.13908e-05
0.00020713
-6.87905e-06
0.000208219
-2.17674e-06
0.000206968
2.48446e-06
0.000203346
7.23512e-06
0.000197408
1.18783e-05
0.000189292
1.62218e-05
0.000179143
2.02852e-05
0.000167185
2.39105e-05
0.000153566
2.72179e-05
0.000138567
2.99714e-05
0.000122489
3.21411e-05
0.000105487
3.39924e-05
8.7798e-05
3.53675e-05
6.9785e-05
3.60198e-05
5.14936e-05
3.65647e-05
3.32956e-05
3.63687e-05
1.52886e-05
3.59979e-05
-2.26764e-06
3.51025e-05
-1.91579e-05
3.37839e-05
-3.53799e-05
3.24299e-05
-5.07603e-05
3.07441e-05
-6.52393e-05
2.89523e-05
-7.87869e-05
2.70961e-05
-9.13151e-05
2.50663e-05
-0.000102888
2.31346e-05
-0.000113439
2.10918e-05
-0.000122952
1.90198e-05
-0.000131502
1.70732e-05
-0.000139143
1.53114e-05
-0.000145834
1.33852e-05
-0.000151647
1.16331e-05
-0.000156638
9.98087e-06
-0.000160869
8.46759e-06
-0.000164357
6.9796e-06
-0.000167101
5.48508e-06
-0.000169169
4.12762e-06
-0.000170671
3.00866e-06
-0.000171547
1.74628e-06
-0.000171781
4.7368e-07
-0.000171441
-6.71204e-07
-0.000170366
-2.14563e-06
-0.000168689
-3.3424e-06
-0.000166494
-4.38941e-06
-0.000163568
-5.85992e-06
-0.000159918
-7.30344e-06
-0.000155626
-8.57674e-06
-0.000150745
-9.75935e-06
-0.000145079
-1.13449e-05
-0.000138646
-1.28595e-05
-0.000131389
-1.45e-05
-0.000123375
-1.60233e-05
-0.000114518
-1.77083e-05
-0.000104839
-1.93507e-05
-9.43e-05
-2.10856e-05
-8.29527e-05
-2.26893e-05
-7.0756e-05
-2.43956e-05
-5.77056e-05
-2.61011e-05
-4.38803e-05
-2.763e-05
-2.92629e-05
-2.92234e-05
-1.39452e-05
-3.06274e-05
1.90175e-06
-3.16893e-05
1.8315e-05
-3.28058e-05
3.50978e-05
-3.35822e-05
5.20338e-05
-3.38611e-05
6.90557e-05
-3.40223e-05
8.59153e-05
-3.37101e-05
0.000102308
-3.27873e-05
0.000118273
-3.19118e-05
0.000133402
-3.02526e-05
0.000147445
-2.80807e-05
0.000160367
-2.58118e-05
0.000171839
-2.29576e-05
0.000181586
-1.949e-05
0.000189619
-1.60521e-05
0.000195652
-1.20513e-05
0.00019956
-7.79983e-06
0.000201319
-3.52596e-06
0.000200745
1.14529e-06
0.000197979
5.5337e-06
0.00019283
1.02963e-05
0.000185446
1.47704e-05
0.000176073
1.87342e-05
0.000164645
2.28453e-05
0.000151661
2.59573e-05
0.000137001
2.93086e-05
0.000121253
3.14863e-05
0.000104464
3.35607e-05
8.70851e-05
3.47482e-05
6.92426e-05
3.56705e-05
5.13421e-05
3.57914e-05
3.34534e-05
3.57654e-05
1.58989e-05
3.51083e-05
-1.16358e-06
3.41083e-05
-1.76442e-05
3.29494e-05
-3.33719e-05
3.14489e-05
-4.83022e-05
2.98547e-05
-6.2289e-05
2.79676e-05
-7.53287e-05
2.60771e-05
-8.73939e-05
2.41289e-05
-9.84384e-05
2.2085e-05
-0.000108496
2.01134e-05
-0.000117588
1.81803e-05
-0.000125705
1.62346e-05
-0.000132925
1.4443e-05
-0.000139283
1.27176e-05
-0.000144801
1.10337e-05
-0.00014955
9.49564e-06
-0.000153586
8.07213e-06
-0.000156933
6.69938e-06
-0.000159632
5.39599e-06
-0.000161734
4.2049e-06
-0.000163242
3.01564e-06
-0.000164201
1.92143e-06
-0.000164608
8.15436e-07
-0.000164358
-5.02357e-07
-0.000163477
-1.76227e-06
-0.000161903
-3.15284e-06
-0.000159705
-4.39174e-06
-0.000156725
-5.96258e-06
-0.000153015
-7.42175e-06
-0.000148569
-8.89273e-06
-0.000143268
-1.06035e-05
-0.000137106
-1.23224e-05
-0.00013017
-1.38724e-05
-0.000122253
-1.58332e-05
-0.000113423
-1.7662e-05
-0.000103834
-1.91741e-05
-9.32237e-05
-2.12173e-05
-8.18404e-05
-2.27641e-05
-6.95279e-05
-2.46229e-05
-5.64646e-05
-2.61227e-05
-4.2675e-05
-2.75748e-05
-2.82261e-05
-2.88945e-05
-1.31236e-05
-3.01975e-05
2.27043e-06
-3.0787e-05
1.82315e-05
-3.19151e-05
3.44205e-05
-3.23691e-05
5.08554e-05
-3.28634e-05
6.72636e-05
-3.28037e-05
8.34305e-05
-3.23303e-05
9.93326e-05
-3.17959e-05
0.000114757
-3.08453e-05
0.00012944
-2.93606e-05
0.000143289
-2.76967e-05
0.000156035
-2.5488e-05
0.000167542
-2.3013e-05
0.00017752
-1.99497e-05
0.000185836
-1.66153e-05
0.000192241
-1.28014e-05
0.00019666
-8.82973e-06
-4.84738e-06
-1.56659e-05
4.84218e-05
-3.10263e-05
4.60695e-05
-4.56387e-05
4.38264e-05
-5.94145e-05
4.1317e-05
-7.22383e-05
3.84633e-05
-8.41608e-05
3.5762e-05
-9.51186e-05
3.28666e-05
-0.000105167
3.01373e-05
-0.000114297
2.73914e-05
-0.000122512
2.46444e-05
-0.000129865
2.20591e-05
-0.000136379
1.95336e-05
-0.000142059
1.7051e-05
-0.000146956
1.46968e-05
-0.000151103
1.24297e-05
-0.000154517
1.02384e-05
-0.000157207
8.06949e-06
-0.000159207
6.00935e-06
-0.000160531
3.974e-06
-0.000161202
2.03953e-06
-0.000161159
-1.05535e-07
-0.000160395
-2.27992e-06
-0.000158951
-4.33394e-06
-0.000156792
-6.47607e-06
-0.000153903
-8.67953e-06
-0.000150214
-1.10782e-05
-0.00014576
-1.33592e-05
-0.000140638
-1.53909e-05
-0.000134497
-1.84045e-05
-0.000127587
-2.0758e-05
-0.000119797
-2.33526e-05
-0.000111047
-2.6246e-05
-0.000101317
-2.92073e-05
-9.05824e-05
-3.2192e-05
-7.87754e-05
-3.54428e-05
-6.61889e-05
-3.77487e-05
-5.23855e-05
-4.14199e-05
-3.7691e-05
-4.40485e-05
-2.20728e-05
-4.68543e-05
-5.62742e-06
-4.92535e-05
1.17169e-05
-5.20696e-05
2.97682e-05
-5.41322e-05
4.84424e-05
-5.59864e-05
6.72994e-05
-5.65313e-05
8.63982e-05
-5.72588e-05
0.000105562
-5.74409e-05
0.000124286
-5.61278e-05
0.000142562
-5.47766e-05
0.000160162
-5.27455e-05
0.000176588
-4.92405e-05
0.000191871
-4.57897e-05
0.000205559
-4.10409e-05
0.000217582
-3.60333e-05
0.000227714
-3.03496e-05
0.0002357
-2.39281e-05
0.000241427
-1.71737e-05
0.000244879
-1.03284e-05
0.000245841
-2.85653e-06
0.000244279
4.62491e-06
0.000240294
1.19757e-05
0.000234001
1.88702e-05
0.00022546
2.56074e-05
0.000214843
3.18721e-05
0.000202303
3.75204e-05
0.000187992
4.28989e-05
0.000172326
4.69199e-05
0.000155338
5.0931e-05
0.000137479
5.35088e-05
0.000118881
5.57623e-05
9.98891e-05
5.6908e-05
8.06509e-05
5.76991e-05
6.15098e-05
5.7353e-05
4.25148e-05
5.69989e-05
2.39721e-05
5.55396e-05
5.97587e-06
5.39793e-05
-1.12906e-05
5.17339e-05
-2.76954e-05
4.91914e-05
-4.33364e-05
4.6886e-05
-5.79852e-05
4.39477e-05
-7.16047e-05
4.08169e-05
-8.42267e-05
3.78716e-05
-9.58526e-05
3.48429e-05
-0.000106263
3.12293e-05
-0.000115756
2.84923e-05
-0.000124217
2.53603e-05
-0.000131584
2.20858e-05
-0.000137975
1.9177e-05
-0.000143341
1.60732e-05
-0.000147853
1.36215e-05
-0.00015142
1.06634e-05
-0.000154129
8.13545e-06
-0.000156035
5.69678e-06
-0.000157122
3.2538e-06
-0.000157468
1.1081e-06
-0.000157077
-1.17973e-06
-0.000155994
-3.22695e-06
-0.000154337
-4.96986e-06
-0.000152048
-6.86547e-06
-0.000149156
-8.66201e-06
-0.000145764
-1.02026e-05
-0.000141828
-1.1826e-05
-0.000137152
-1.40275e-05
-0.000131947
-1.57008e-05
-0.000126058
-1.75702e-05
-0.000119436
-1.98701e-05
-0.000112124
-2.19326e-05
-0.000104049
-2.4224e-05
-9.52059e-05
-2.65441e-05
-8.55788e-05
-2.88653e-05
-7.51475e-05
-3.13278e-05
-6.39165e-05
-3.36652e-05
-5.18538e-05
-3.61706e-05
-3.89478e-05
-3.87683e-05
-2.53065e-05
-4.0864e-05
-1.08801e-05
-4.32429e-05
4.26193e-06
-4.54144e-05
2.00331e-05
-4.72796e-05
3.63526e-05
-4.89393e-05
5.3138e-05
-5.03237e-05
7.02517e-05
-5.129e-05
8.75162e-05
-5.17468e-05
0.00010477
-5.17222e-05
0.000121842
-5.11793e-05
0.000138474
-4.98372e-05
0.000154421
-4.77811e-05
0.000169455
-4.50542e-05
0.000183289
-4.14439e-05
0.000195651
-3.7007e-05
0.00020629
-3.18862e-05
0.000214958
-2.5963e-05
0.000221504
-1.95831e-05
0.000225641
-1.2385e-05
0.000227359
-5.14181e-06
0.000226539
2.38322e-06
0.000223202
9.96371e-06
0.000217385
1.74674e-05
0.000209185
2.45736e-05
0.000198727
3.13259e-05
0.000186252
3.73664e-05
0.000171969
4.27955e-05
0.00015619
4.72722e-05
0.000139105
5.11784e-05
0.000121068
5.40609e-05
0.000102297
5.62554e-05
8.31714e-05
5.7288e-05
6.39524e-05
5.76141e-05
4.48986e-05
5.71105e-05
2.62591e-05
5.58669e-05
8.15206e-06
5.42833e-05
-9.14971e-06
5.18836e-05
-2.56521e-05
4.948e-05
-4.10932e-05
4.6296e-05
-5.55642e-05
4.34003e-05
-6.8958e-05
4.0169e-05
-8.11456e-05
3.65747e-05
-9.23494e-05
3.35609e-05
-0.00010248
3.04445e-05
-0.000111593
2.73444e-05
-0.000119809
2.46552e-05
-0.00012706
2.17725e-05
-0.000133592
1.96326e-05
-0.000139297
1.71202e-05
-0.000144279
1.49601e-05
-0.000148553
1.28233e-05
-0.000152156
1.08418e-05
-0.00015524
9.24529e-06
-0.000157708
7.38031e-06
-0.000159544
5.50623e-06
-0.000160791
3.74121e-06
-0.00016163
2.50828e-06
-0.000161778
4.42183e-07
-0.000161321
-1.34305e-06
-0.00016037
-2.82183e-06
-0.000158837
-4.62095e-06
-0.000156659
-6.52773e-06
-0.000153957
-8.17188e-06
-0.000150299
-1.08741e-05
-0.000146067
-1.27656e-05
-0.000141127
-1.48472e-05
-0.000135318
-1.74305e-05
-0.00012869
-1.99011e-05
-0.000121211
-2.24128e-05
-0.000112909
-2.4932e-05
-0.000103697
-2.76448e-05
-9.34755e-05
-3.06264e-05
-8.22784e-05
-3.35999e-05
-7.00557e-05
-3.66581e-05
-5.69695e-05
-3.92493e-05
-4.2935e-05
-4.20939e-05
-2.80351e-05
-4.46717e-05
-1.23567e-05
-4.69823e-05
3.98985e-06
-4.90025e-05
2.09283e-05
-5.07941e-05
3.82894e-05
-5.20248e-05
5.5902e-05
-5.28178e-05
7.35923e-05
-5.30259e-05
9.12046e-05
-5.27758e-05
0.00010838
-5.14714e-05
0.000124987
-4.97653e-05
0.000140739
-4.72097e-05
0.0001554
-4.39172e-05
0.000168685
-3.97963e-05
0.000180367
-3.502e-05
0.000190247
-2.96041e-05
0.000198146
-2.36564e-05
0.000203853
-1.70982e-05
0.000207302
-1.0328e-05
0.000208397
-3.27181e-06
0.000207127
3.75486e-06
0.000203498
1.0864e-05
0.000197543
1.78326e-05
0.000189418
2.43473e-05
0.000179261
3.04419e-05
0.000167279
3.58925e-05
0.000153647
4.08501e-05
0.000138625
4.49932e-05
0.000122521
4.8245e-05
0.000105503
5.101e-05
8.77915e-05
5.30794e-05
6.97658e-05
5.40455e-05
5.14736e-05
5.48569e-05
3.3242e-05
5.46003e-05
1.52185e-05
5.40215e-05
-2.35565e-06
5.26766e-05
-1.92472e-05
5.06755e-05
-3.54811e-05
4.86637e-05
-5.08679e-05
4.61309e-05
-6.53606e-05
4.3445e-05
-7.89128e-05
4.06482e-05
-9.14267e-05
3.75803e-05
-0.000103006
3.47143e-05
-0.000113555
3.16406e-05
-0.000123073
2.85373e-05
-0.000131635
2.56352e-05
-0.000139256
2.29324e-05
-0.000145942
2.00719e-05
-0.000151741
1.74318e-05
-0.00015673
1.49698e-05
-0.000160958
1.26961e-05
-0.000164444
1.04647e-05
-0.000167184
8.22521e-06
-0.000169247
6.19096e-06
-0.000170749
4.51027e-06
-0.000171634
2.63162e-06
-0.000171864
7.04057e-07
-0.000171525
-1.01011e-06
-0.000170442
-3.22907e-06
-0.000168766
-5.01891e-06
-0.000166575
-6.58011e-06
-0.000163653
-8.78207e-06
-0.000160015
-1.09414e-05
-0.000155731
-1.286e-05
-0.000150849
-1.46423e-05
-0.00014518
-1.70139e-05
-0.000138742
-1.92973e-05
-0.000131493
-2.17483e-05
-0.000123479
-2.40376e-05
-0.000114627
-2.65603e-05
-0.000104938
-2.90401e-05
-9.43998e-05
-3.16236e-05
-8.30593e-05
-3.40299e-05
-7.08583e-05
-3.65966e-05
-5.78163e-05
-3.91432e-05
-4.39864e-05
-4.146e-05
-2.93573e-05
-4.38525e-05
-1.40319e-05
-4.59529e-05
1.82458e-06
-4.75458e-05
1.8268e-05
-4.92493e-05
3.505e-05
-5.03643e-05
5.19984e-05
-5.08095e-05
6.90466e-05
-5.10707e-05
8.59141e-05
-5.05776e-05
0.000102322
-4.91948e-05
0.00011831
-4.79007e-05
0.000133456
-4.53986e-05
0.000147514
-4.21386e-05
0.00016046
-3.87583e-05
0.000171943
-3.44404e-05
0.000181708
-2.92556e-05
0.000189756
-2.41002e-05
0.000195796
-1.8091e-05
0.000199744
-1.17479e-05
0.000201491
-5.27326e-06
0.000200912
1.72464e-06
0.000198148
8.29703e-06
0.000193
1.54448e-05
0.000185622
2.21479e-05
0.000176221
2.81353e-05
0.000164779
3.42869e-05
0.000151766
3.89705e-05
0.000137095
4.39794e-05
0.00012133
4.72512e-05
0.000104514
5.03763e-05
8.71172e-05
5.21453e-05
6.92505e-05
5.35372e-05
5.13355e-05
5.37064e-05
3.34272e-05
5.36737e-05
1.58966e-05
5.26389e-05
-1.21269e-06
5.12176e-05
-1.77057e-05
4.94425e-05
-3.34392e-05
4.71824e-05
-4.83768e-05
4.47923e-05
-6.23697e-05
4.19606e-05
-7.5412e-05
3.91193e-05
-8.74821e-05
3.61991e-05
-9.85294e-05
3.31324e-05
-0.000108584
3.01683e-05
-0.000117675
2.7271e-05
-0.000125793
2.4352e-05
-0.00013301
2.16604e-05
-0.000139364
1.90721e-05
-0.000144884
1.65536e-05
-0.000149634
1.42459e-05
-0.000153658
1.20957e-05
-0.000157003
1.00448e-05
-0.000159711
8.104e-06
-0.000161806
6.29973e-06
-0.000163309
4.5182e-06
-0.000164261
2.87322e-06
-0.000164661
1.21541e-06
-0.000164409
-7.54054e-07
-0.00016353
-2.6407e-06
-0.000161962
-4.72096e-06
-0.00015976
-6.59374e-06
-0.000156783
-8.94019e-06
-0.000153077
-1.11274e-05
-0.000148632
-1.33382e-05
-0.000143337
-1.5898e-05
-0.000137173
-1.84866e-05
-0.000130242
-2.0803e-05
-0.000122324
-2.37515e-05
-0.000113504
-2.64826e-05
-0.000103903
-2.87744e-05
-9.32939e-05
-3.18268e-05
-8.19064e-05
-3.41517e-05
-6.95929e-05
-3.69365e-05
-5.65227e-05
-3.91929e-05
-4.27274e-05
-4.13702e-05
-2.82674e-05
-4.33546e-05
-1.31625e-05
-4.53024e-05
2.2676e-06
-4.62172e-05
1.82385e-05
-4.78861e-05
3.44403e-05
-4.85711e-05
5.08847e-05
-4.9308e-05
6.72976e-05
-4.92167e-05
8.34717e-05
-4.85044e-05
9.93828e-05
-4.77071e-05
0.000114815
-4.62772e-05
0.000129505
-4.40513e-05
0.000143363
-4.15549e-05
0.000156115
-3.82401e-05
0.000167635
-3.45326e-05
0.00017762
-2.99355e-05
0.000185949
-2.49439e-05
0.000192372
-1.92249e-05
0.000196809
-1.32667e-05
-7.29037e-06
-1.57618e-05
6.45781e-05
-3.11297e-05
6.14374e-05
-4.57488e-05
5.84455e-05
-5.95303e-05
5.50985e-05
-7.2359e-05
5.1292e-05
-8.42861e-05
4.76892e-05
-9.52469e-05
4.38273e-05
-0.000105297
4.01879e-05
-0.00011443
3.65237e-05
-0.000122643
3.28576e-05
-0.000129997
2.94132e-05
-0.00013651
2.60469e-05
-0.000142185
2.2726e-05
-0.000147086
1.9597e-05
-0.000151232
1.65756e-05
-0.000154643
1.36502e-05
-0.000157335
1.07616e-05
-0.000159336
8.01034e-06
-0.000160668
5.30536e-06
-0.000161305
2.6767e-06
-0.000161244
-1.66776e-07
-0.000160475
-3.04823e-06
-0.000159035
-5.77469e-06
-0.000156875
-8.63567e-06
-0.000153988
-1.15669e-05
-0.000150308
-1.47581e-05
-0.000145851
-1.78159e-05
-0.000140746
-2.04956e-05
-0.000134592
-2.45585e-05
-0.0001277
-2.765e-05
-0.000119899
-3.11537e-05
-0.000111138
-3.50075e-05
-0.000101428
-3.89169e-05
-9.06935e-05
-4.2927e-05
-7.88969e-05
-4.72394e-05
-6.6305e-05
-5.03407e-05
-5.25089e-05
-5.52161e-05
-3.77954e-05
-5.8762e-05
-2.21761e-05
-6.24738e-05
-5.69547e-06
-6.57342e-05
1.16427e-05
-6.94078e-05
2.97095e-05
-7.21991e-05
4.84014e-05
-7.46783e-05
6.72801e-05
-7.54102e-05
8.64042e-05
-7.6383e-05
0.000105593
-7.66303e-05
0.000124344
-7.4878e-05
0.000142649
-7.30819e-05
0.000160273
-7.03697e-05
0.000176729
-6.56973e-05
0.000192035
-6.10954e-05
0.000205738
-5.47437e-05
0.000217779
-4.80745e-05
0.000227941
-4.05115e-05
0.000235936
-3.19236e-05
0.000241668
-2.29055e-05
0.000245134
-1.37947e-05
0.000246102
-3.82483e-06
0.000244521
6.20568e-06
0.000240554
1.59428e-05
0.000234251
2.51733e-05
0.0002257
3.41587e-05
0.000215085
4.24865e-05
0.000202496
5.01099e-05
0.000188168
5.72267e-05
0.000172458
6.26294e-05
0.000155452
6.79375e-05
0.000137554
7.14069e-05
0.000118941
7.43749e-05
9.99089e-05
7.59401e-05
8.06714e-05
7.69366e-05
6.14807e-05
7.65437e-05
4.25131e-05
7.59665e-05
2.39003e-05
7.41523e-05
5.91363e-06
7.1966e-05
-1.13961e-05
6.90436e-05
-2.782e-05
6.56154e-05
-4.34799e-05
6.25458e-05
-5.81133e-05
5.8581e-05
-7.17626e-05
5.44662e-05
-8.43803e-05
5.04892e-05
-9.60178e-05
4.64805e-05
-0.000106436
4.16477e-05
-0.000115922
3.79775e-05
-0.000124386
3.38248e-05
-0.000131756
2.94554e-05
-0.000138157
2.55782e-05
-0.000143532
2.14484e-05
-0.000148004
1.80931e-05
-0.000151577
1.42366e-05
-0.000154274
1.08326e-05
-0.000156195
7.61696e-06
-0.000157287
4.34637e-06
-0.000157606
1.42661e-06
-0.000157203
-1.58266e-06
-0.000156105
-4.32486e-06
-0.000154475
-6.60022e-06
-0.000152169
-9.17077e-06
-0.000149253
-1.15779e-05
-0.000145883
-1.35728e-05
-0.000141966