/*--------------------------------*- C++ -*----------------------------------*\
| =========                 |                                                 |
| \\      /  F ield         | OpenFOAM: The Open Source CFD Toolbox           |
|  \\    /   O peration     | Version:  3.0.1                                 |
|   \\  /    A nd           | Web:      www.OpenFOAM.org                      |
|    \\/     M anipulation  |                                                 |
\*---------------------------------------------------------------------------*/
FoamFile
{
    version     2.0;
    format      ascii;
    class       volVectorField;
    location    "70.8";
    object      U;
}
// * * * * * * * * * * * * * * * * * * * * * * * * * * * * * * * * * * * * * //

dimensions      [0 1 -1 0 0 0 0];

internalField   nonuniform List<vector> 
21420
(
(0.267577 -0.00161957 0)
(0.281716 -0.00156085 0)
(0.296902 -0.00145521 0)
(0.311031 -0.00133053 0)
(0.323883 -0.00120858 0)
(0.335285 -0.00104978 0)
(0.345068 -0.000889219 0)
(0.353083 -0.000702737 0)
(0.359195 -0.000506666 0)
(0.363314 -0.000303588 0)
(0.365343 -9.28229e-05 0)
(0.365236 0.000115184 0)
(0.363002 0.000329683 0)
(0.358523 0.000547007 0)
(0.351985 0.000748007 0)
(0.343418 0.000945238 0)
(0.332944 0.00113391 0)
(0.320716 0.00128669 0)
(0.306923 0.00143901 0)
(0.291763 0.00157417 0)
(0.275467 0.00165754 0)
(0.258286 0.00174243 0)
(0.240465 0.00180458 0)
(0.222253 0.00181263 0)
(0.203905 0.00182363 0)
(0.185659 0.00178657 0)
(0.167736 0.00175299 0)
(0.150326 0.00170148 0)
(0.133593 0.00161451 0)
(0.117677 0.00153418 0)
(0.102678 0.00144477 0)
(0.0886638 0.00133544 0)
(0.0756749 0.00123722 0)
(0.0637236 0.00112801 0)
(0.0527962 0.00103086 0)
(0.0428587 0.000937234 0)
(0.0338666 0.000841906 0)
(0.0257679 0.000757953 0)
(0.0184968 0.000679722 0)
(0.0119853 0.000605228 0)
(0.00618408 0.000540622 0)
(0.00115113 0.000474912 0)
(-0.00325631 0.000419976 0)
(-0.0071965 0.000366028 0)
(-0.0106165 0.000313571 0)
(-0.0135283 0.000262165 0)
(-0.0159374 0.000211682 0)
(-0.0178491 0.00016093 0)
(-0.0192531 0.000109295 0)
(-0.0201385 5.7344e-05 0)
(-0.0205002 3.85785e-06 0)
(-0.0203076 -4.95037e-05 0)
(-0.0195379 -0.000104096 0)
(-0.0181785 -0.000159888 0)
(-0.0162568 -0.000210885 0)
(-0.0137311 -0.000267669 0)
(-0.0105278 -0.000318425 0)
(-0.00670929 -0.000374224 0)
(-0.00234192 -0.000436255 0)
(0.00219462 -0.000472018 0)
(0.00707299 -0.000530557 0)
(0.0126946 -0.000581165 0)
(0.0187988 -0.000626845 0)
(0.0254008 -0.000680098 0)
(0.0325964 -0.000731452 0)
(0.0402633 -0.00077369 0)
(0.0484057 -0.00082624 0)
(0.0570801 -0.000867023 0)
(0.0661529 -0.000904482 0)
(0.0756089 -0.000940326 0)
(0.0853487 -0.000956035 0)
(0.0952225 -0.000960626 0)
(0.105084 -0.000958962 0)
(0.114935 -0.000957745 0)
(0.124622 -0.000927802 0)
(0.134139 -0.000923432 0)
(0.143617 -0.000896429 0)
(0.152871 -0.000894641 0)
(0.162448 -0.000904507 0)
(0.1722 -0.000916613 0)
(0.182253 -0.000960434 0)
(0.192954 -0.000999053 0)
(0.204035 -0.00102688 0)
(0.215553 -0.00105093 0)
(0.22733 -0.00105374 0)
(0.239133 -0.00103604 0)
(0.250618 -0.0009876 0)
(0.261467 -0.000911034 0)
(0.271352 -0.000798092 0)
(0.279965 -0.00066312 0)
(0.287061 -0.000511949 0)
(0.29237 -0.000340242 0)
(0.295762 -0.000162158 0)
(0.297094 1.91583e-05 0)
(0.296451 0.000209076 0)
(0.293634 0.00038994 0)
(0.288903 0.000577854 0)
(0.282404 0.000737391 0)
(0.27422 0.00088992 0)
(0.264488 0.00103535 0)
(0.25347 0.0011485 0)
(0.241311 0.00126044 0)
(0.228186 0.00134501 0)
(0.21429 0.00141199 0)
(0.199803 0.00145706 0)
(0.184917 0.00148817 0)
(0.169818 0.00150816 0)
(0.154651 0.00150287 0)
(0.139563 0.00149285 0)
(0.124695 0.00145615 0)
(0.11019 0.00142457 0)
(0.0961694 0.00136792 0)
(0.0826928 0.00131051 0)
(0.0698472 0.00124469 0)
(0.0577014 0.00116654 0)
(0.0463227 0.00109292 0)
(0.035738 0.00100794 0)
(0.0259954 0.000929226 0)
(0.0170932 0.000844548 0)
(0.0090527 0.000754654 0)
(0.00190344 0.000669966 0)
(-0.00439347 0.000582294 0)
(-0.00986337 0.000503736 0)
(-0.0145627 0.000425953 0)
(-0.0185347 0.000362186 0)
(-0.0218288 0.000286244 0)
(-0.0244934 0.000239664 0)
(-0.0265286 0.000169938 0)
(-0.0280075 0.000113953 0)
(-0.0289293 6.65472e-05 0)
(-0.0293452 1.95579e-05 0)
(-0.0292868 -2.10848e-05 0)
(-0.0288143 -6.40802e-05 0)
(-0.0280117 -9.74634e-05 0)
(-0.0268413 -0.000129279 0)
(-0.0253917 -0.000159384 0)
(-0.0236718 -0.00018724 0)
(-0.0216298 -0.000216179 0)
(-0.0192463 -0.000257358 0)
(-0.0164853 -0.000290455 0)
(-0.013349 -0.000331212 0)
(-0.00976379 -0.000381647 0)
(-0.00567466 -0.000433025 0)
(-0.00105948 -0.000482329 0)
(0.00416114 -0.000543635 0)
(0.0100013 -0.00061001 0)
(0.0164401 -0.00067614 0)
(0.0235588 -0.000725538 0)
(0.0312845 -0.00080201 0)
(0.0396258 -0.000846297 0)
(0.0485093 -0.000905309 0)
(0.0579315 -0.000951072 0)
(0.0678482 -0.00101115 0)
(0.0782537 -0.00105592 0)
(0.0891607 -0.00110405 0)
(0.100546 -0.00115081 0)
(0.112407 -0.00120184 0)
(0.124787 -0.00125151 0)
(0.137675 -0.00130672 0)
(0.151099 -0.00136145 0)
(0.165083 -0.00141757 0)
(0.179606 -0.00146611 0)
(0.194653 -0.00151259 0)
(0.210148 -0.00155653 0)
(0.226001 -0.00158548 0)
(0.242103 -0.00159946 0)
(0.258258 -0.00159844 0)
(0.274267 -0.00157846 0)
(0.289929 -0.00152926 0)
(0.304974 -0.00145685 0)
(0.319199 -0.00135693 0)
(0.332293 -0.00124444 0)
(0.34408 -0.00109591 0)
(0.35433 -0.000933273 0)
(0.362842 -0.000748781 0)
(0.369417 -0.000549437 0)
(0.373904 -0.000334038 0)
(0.376133 -0.0001202 0)
(0.376154 0.000107923 0)
(0.373761 0.000351411 0)
(0.368952 0.000583298 0)
(0.361957 0.00080405 0)
(0.352852 0.000996992 0)
(0.341869 0.00117365 0)
(0.329272 0.00132957 0)
(0.315252 0.00145222 0)
(0.300104 0.00154734 0)
(0.284073 0.00162532 0)
(0.26744 0.00168137 0)
(0.250381 0.00170671 0)
(0.23313 0.00170664 0)
(0.215932 0.00170209 0)
(0.198948 0.00167146 0)
(0.182363 0.00161462 0)
(0.16635 0.00155974 0)
(0.151044 0.00148424 0)
(0.136547 0.00140119 0)
(0.122901 0.00131076 0)
(0.11018 0.00121519 0)
(0.0983739 0.00113034 0)
(0.0874312 0.00104 0)
(0.0773653 0.000962689 0)
(0.0680709 0.000874278 0)
(0.0595946 0.000812487 0)
(0.051826 0.000730064 0)
(0.0447757 0.000671219 0)
(0.0383753 0.000600836 0)
(0.0326161 0.000538297 0)
(0.0274612 0.000485752 0)
(0.022835 0.00042999 0)
(0.0187013 0.000380745 0)
(0.015086 0.000343378 0)
(0.0118721 0.000297677 0)
(0.00907055 0.000253929 0)
(0.00664815 0.000225935 0)
(0.0045014 0.000198559 0)
(0.00269768 0.000163689 0)
(0.00119642 0.000136429 0)
(1.17421e-05 9.14879e-05 0)
(-0.000715037 4.87091e-05 0)
(-0.00091116 -1.05555e-05 0)
(-0.000460695 -7.39406e-05 0)
(0.000650662 -0.000144873 0)
(0.00246947 -0.000212234 0)
(0.00499658 -0.000277155 0)
(0.00820421 -0.00035439 0)
(0.0120946 -0.000420537 0)
(0.0166893 -0.000481274 0)
(0.0220136 -0.000564952 0)
(0.0281045 -0.000645323 0)
(0.0350133 -0.000727129 0)
(0.0427725 -0.000809074 0)
(0.0513724 -0.000897799 0)
(0.0608887 -0.000976989 0)
(0.0712114 -0.00107229 0)
(0.0823954 -0.00115065 0)
(0.0944422 -0.00123212 0)
(0.107328 -0.0013197 0)
(0.121072 -0.00140996 0)
(0.135698 -0.00149518 0)
(0.151181 -0.00157186 0)
(0.167472 -0.00165743 0)
(0.184491 -0.00173072 0)
(0.202156 -0.001778 0)
(0.22029 -0.00181629 0)
(0.23869 -0.00183986 0)
(0.257171 -0.00182407 0)
(0.27548 -0.00179227 0)
(0.293352 -0.00174423 0)
(0.31054 -0.0016642 0)
(0.326766 -0.00155592 0)
(0.341759 -0.00140983 0)
(0.355193 -0.00124656 0)
(0.366855 -0.00105715 0)
(0.376479 -0.000844936 0)
(0.383856 -0.000609066 0)
(0.388796 -0.000369637 0)
(0.391155 -0.00010918 0)
(0.391032 0.000144289 0)
(0.388149 0.000412388 0)
(0.382569 0.000676522 0)
(0.37451 0.000912465 0)
(0.36402 0.00114043 0)
(0.35135 0.00135495 0)
(0.336703 0.00153529 0)
(0.320367 0.00169359 0)
(0.302708 0.00182124 0)
(0.284146 0.00192054 0)
(0.264823 0.00198137 0)
(0.245029 0.00200811 0)
(0.225028 0.00200855 0)
(0.205139 0.00198031 0)
(0.185607 0.00192451 0)
(0.166697 0.00184675 0)
(0.148566 0.00175015 0)
(0.131554 0.00163206 0)
(0.115657 0.00150536 0)
(0.101252 0.00136467 0)
(0.0884643 0.00122465 0)
(0.0771445 0.00108169 0)
(0.0672894 0.000943367 0)
(0.058766 0.000819731 0)
(0.0513655 0.000703925 0)
(0.0451554 0.000600155 0)
(0.0398149 0.00052222 0)
(0.0351158 0.000447718 0)
(0.0312239 0.000387397 0)
(0.0276757 0.000343812 0)
(0.0246163 0.000298844 0)
(0.0219131 0.000268506 0)
(0.0194184 0.000236612 0)
(0.0173134 0.000200081 0)
(0.0155455 0.000160602 0)
(0.0141422 0.000120466 0)
(0.0131854 6.56646e-05 0)
(0.0127276 1.26483e-05 0)
(0.0129403 -4.26054e-05 0)
(0.0138007 -8.91834e-05 0)
(0.0152484 -0.000142688 0)
(0.0172208 -0.000189466 0)
(0.019648 -0.000239005 0)
(0.0225771 -0.000285133 0)
(0.0259036 -0.000328433 0)
(0.029672 -0.000379056 0)
(0.0339367 -0.000429703 0)
(0.0386618 -0.000479935 0)
(0.0439417 -0.000546036 0)
(0.0498542 -0.000610474 0)
(0.0564676 -0.000692152 0)
(0.0638766 -0.000775528 0)
(0.0721346 -0.000859582 0)
(0.081348 -0.000965953 0)
(0.0915775 -0.00106714 0)
(0.102843 -0.0011624 0)
(0.115183 -0.0012799 0)
(0.128577 -0.00137321 0)
(0.142964 -0.0014835 0)
(0.158281 -0.00156339 0)
(0.174393 -0.0016229 0)
(0.191151 -0.00169859 0)
(0.208422 -0.0017317 0)
(0.226001 -0.00173821 0)
(0.243673 -0.00175755 0)
(0.261237 -0.00172447 0)
(0.278466 -0.00169695 0)
(0.295136 -0.0016201 0)
(0.310988 -0.00151673 0)
(0.32577 -0.00141206 0)
(0.339263 -0.00126669 0)
(0.351237 -0.00110071 0)
(0.361481 -0.000925263 0)
(0.369813 -0.000725261 0)
(0.376085 -0.000512909 0)
(0.380187 -0.00029101 0)
(0.382056 -6.18089e-05 0)
(0.381711 0.00016552 0)
(0.378912 0.000398818 0)
(0.373752 0.000624142 0)
(0.366451 0.000825476 0)
(0.357114 0.00102123 0)
(0.345928 0.00120277 0)
(0.333115 0.00133846 0)
(0.31892 0.00147261 0)
(0.3036 0.0015536 0)
(0.287424 0.00163598 0)
(0.27064 0.00169572 0)
(0.25349 0.00170158 0)
(0.236206 0.00171509 0)
(0.218984 0.00171017 0)
(0.201991 0.00166356 0)
(0.185373 0.00162904 0)
(0.169243 0.00156229 0)
(0.153693 0.00150901 0)
(0.138786 0.0014488 0)
(0.124569 0.00136783 0)
(0.111087 0.0012995 0)
(0.0969362 0.00122825 0)
(0.267603 -0.00485953 0)
(0.28175 -0.00468339 0)
(0.296944 -0.00436645 0)
(0.31108 -0.00399233 0)
(0.32394 -0.00362656 0)
(0.335347 -0.00315018 0)
(0.345138 -0.00266844 0)
(0.353157 -0.00210873 0)
(0.359273 -0.00152036 0)
(0.363395 -0.000910836 0)
(0.365428 -0.000276609 0)
(0.365327 0.000344441 0)
(0.363082 0.000989419 0)
(0.358606 0.00164117 0)
(0.352064 0.00224435 0)
(0.343494 0.0028362 0)
(0.333014 0.00340234 0)
(0.320778 0.00386079 0)
(0.306978 0.00431785 0)
(0.29181 0.00472342 0)
(0.275503 0.00497357 0)
(0.258313 0.00522827 0)
(0.240482 0.00541476 0)
(0.22226 0.00543885 0)
(0.203903 0.00547181 0)
(0.185648 0.00536053 0)
(0.167717 0.0052597 0)
(0.150301 0.00510506 0)
(0.133563 0.00484401 0)
(0.117643 0.00460289 0)
(0.102641 0.00433456 0)
(0.0886258 0.00400649 0)
(0.0756362 0.00371167 0)
(0.0636857 0.00338398 0)
(0.0527593 0.0030926 0)
(0.0428235 0.00281147 0)
(0.0338336 0.00252553 0)
(0.0257371 0.00227366 0)
(0.0184685 0.00203893 0)
(0.0119599 0.00181539 0)
(0.00615999 0.00162081 0)
(0.001129 0.00142567 0)
(-0.00327653 0.00125995 0)
(-0.00721625 0.00109812 0)
(-0.0106359 0.000940633 0)
(-0.0135476 0.000786928 0)
(-0.0159568 0.000635145 0)
(-0.0178689 0.000482758 0)
(-0.0192738 0.000328241 0)
(-0.02016 0.000172055 0)
(-0.0205222 1.17405e-05 0)
(-0.0203303 -0.000148365 0)
(-0.0195618 -0.0003124 0)
(-0.018203 -0.000479268 0)
(-0.0162817 -0.000632436 0)
(-0.0137566 -0.000802866 0)
(-0.0105555 -0.000956785 0)
(-0.00673924 -0.00112064 0)
(-0.00236879 -0.00130818 0)
(0.00216742 -0.00141573 0)
(0.00704211 -0.00159145 0)
(0.0126637 -0.0017437 0)
(0.0187661 -0.00187963 0)
(0.0253668 -0.00203918 0)
(0.0325622 -0.00219587 0)
(0.0402293 -0.00232 0)
(0.0483728 -0.00247862 0)
(0.0570516 -0.00260093 0)
(0.0661242 -0.00271852 0)
(0.0755975 -0.00281312 0)
(0.0853409 -0.00287055 0)
(0.0952243 -0.00289544 0)
(0.105107 -0.00288571 0)
(0.114976 -0.00286373 0)
(0.124683 -0.00278768 0)
(0.134213 -0.0027649 0)
(0.143708 -0.00268326 0)
(0.152987 -0.00268365 0)
(0.162562 -0.00273758 0)
(0.172352 -0.00276016 0)
(0.18243 -0.0028735 0)
(0.193161 -0.00298531 0)
(0.204267 -0.00307798 0)
(0.215808 -0.00316334 0)
(0.227601 -0.00317843 0)
(0.239428 -0.00311479 0)
(0.250926 -0.0029614 0)
(0.261797 -0.00273166 0)
(0.271683 -0.00240832 0)
(0.280308 -0.00199924 0)
(0.287414 -0.00153649 0)
(0.292725 -0.00103085 0)
(0.296106 -0.000496578 0)
(0.297437 5.39877e-05 0)
(0.296787 0.000619056 0)
(0.293982 0.0011822 0)
(0.289234 0.0017265 0)
(0.282734 0.002223 0)
(0.274529 0.00265873 0)
(0.264803 0.00309992 0)
(0.253769 0.00344376 0)
(0.241599 0.00377694 0)
(0.228469 0.00403442 0)
(0.214569 0.00423282 0)
(0.200082 0.00438173 0)
(0.18518 0.00445931 0)
(0.170075 0.00452343 0)
(0.154903 0.00450664 0)
(0.139809 0.00446429 0)
(0.124944 0.00436556 0)
(0.110438 0.00426433 0)
(0.0964071 0.00409676 0)
(0.0829193 0.0039205 0)
(0.0700701 0.00371738 0)
(0.0579331 0.00349294 0)
(0.0465547 0.00327866 0)
(0.0359678 0.0030252 0)
(0.0262089 0.00276708 0)
(0.0173028 0.0025268 0)
(0.00925981 0.00225721 0)
(0.00210681 0.00200482 0)
(-0.00418727 0.00175633 0)
(-0.00967639 0.00150632 0)
(-0.0143795 0.00127155 0)
(-0.0183486 0.00109648 0)
(-0.0216597 0.000867111 0)
(-0.024346 0.000705165 0)
(-0.0263943 0.00052779 0)
(-0.027885 0.000345327 0)
(-0.0288057 0.000212824 0)
(-0.0292574 3.90152e-05 0)
(-0.0292183 -7.53856e-05 0)
(-0.0287534 -0.000194071 0)
(-0.0279652 -0.000286096 0)
(-0.0268227 -0.000388531 0)
(-0.0253908 -0.000471704 0)
(-0.0236922 -0.000564577 0)
(-0.021665 -0.000652999 0)
(-0.0192866 -0.000761087 0)
(-0.016558 -0.000877832 0)
(-0.0134432 -0.00100662 0)
(-0.00986253 -0.00113896 0)
(-0.00578274 -0.00128277 0)
(-0.00118665 -0.00146128 0)
(0.00402042 -0.0016373 0)
(0.00985064 -0.00182115 0)
(0.0163008 -0.00200827 0)
(0.0233886 -0.00219764 0)
(0.0311239 -0.00239273 0)
(0.0394574 -0.00255647 0)
(0.0483475 -0.00271932 0)
(0.0577636 -0.00287579 0)
(0.0676993 -0.0030083 0)
(0.0780978 -0.00316727 0)
(0.0890039 -0.0033123 0)
(0.100388 -0.00345606 0)
(0.112253 -0.00360515 0)
(0.124632 -0.00375501 0)
(0.137543 -0.00390767 0)
(0.150977 -0.00407275 0)
(0.164965 -0.00423873 0)
(0.179486 -0.00440289 0)
(0.194542 -0.00455252 0)
(0.210059 -0.00466801 0)
(0.225924 -0.00476637 0)
(0.242035 -0.00480843 0)
(0.258205 -0.00479771 0)
(0.274231 -0.00472908 0)
(0.289904 -0.00458303 0)
(0.304971 -0.00437219 0)
(0.319181 -0.00408794 0)
(0.332323 -0.00371013 0)
(0.344112 -0.00329218 0)
(0.354359 -0.0028057 0)
(0.362876 -0.00225039 0)
(0.369449 -0.00165228 0)
(0.373943 -0.00101626 0)
(0.376207 -0.000339853 0)
(0.376203 0.000328025 0)
(0.37379 0.0010581 0)
(0.368976 0.00175325 0)
(0.361979 0.00240105 0)
(0.352876 0.00300274 0)
(0.341874 0.00353347 0)
(0.329237 0.00397761 0)
(0.315198 0.00435469 0)
(0.300044 0.00465834 0)
(0.284014 0.00488561 0)
(0.267353 0.00502204 0)
(0.250294 0.00512691 0)
(0.233029 0.00513889 0)
(0.21581 0.00510171 0)
(0.198823 0.0050043 0)
(0.182244 0.00486446 0)
(0.166216 0.00467599 0)
(0.150894 0.00444444 0)
(0.136389 0.00419536 0)
(0.122753 0.00393233 0)
(0.110017 0.0036537 0)
(0.0982104 0.00339043 0)
(0.0872731 0.0031289 0)
(0.0771865 0.00287231 0)
(0.0679383 0.00265214 0)
(0.0594317 0.00240523 0)
(0.0516907 0.00221149 0)
(0.0446085 0.0019887 0)
(0.0382319 0.00181002 0)
(0.0324636 0.00161581 0)
(0.0272933 0.00144622 0)
(0.0226891 0.00129741 0)
(0.0185738 0.00115149 0)
(0.0149335 0.00101193 0)
(0.011737 0.000893592 0)
(0.00894482 0.000783675 0)
(0.00650608 0.000676894 0)
(0.00437695 0.000591088 0)
(0.00255923 0.000495272 0)
(0.00104662 0.00039815 0)
(-0.0001286 0.000274866 0)
(-0.000853461 0.000136879 0)
(-0.00104605 -2.17764e-05 0)
(-0.000599424 -0.000218999 0)
(0.000526068 -0.000425016 0)
(0.00233805 -0.0006357 0)
(0.00485917 -0.000850877 0)
(0.00808023 -0.00104235 0)
(0.0119741 -0.00125932 0)
(0.0165644 -0.00146535 0)
(0.0218947 -0.00169283 0)
(0.0279871 -0.00192368 0)
(0.0348937 -0.0021794 0)
(0.0426516 -0.00242945 0)
(0.0512742 -0.00269088 0)
(0.0607565 -0.00295822 0)
(0.0711183 -0.00319067 0)
(0.082281 -0.00346396 0)
(0.0943273 -0.00370959 0)
(0.107223 -0.00395874 0)
(0.12098 -0.00421791 0)
(0.1356 -0.0044828 0)
(0.151073 -0.00473789 0)
(0.167372 -0.00496642 0)
(0.18442 -0.00517049 0)
(0.202069 -0.00534453 0)
(0.220206 -0.00545054 0)
(0.238639 -0.00549959 0)
(0.257105 -0.00549429 0)
(0.275421 -0.00539561 0)
(0.293312 -0.00523188 0)
(0.310512 -0.0049859 0)
(0.326759 -0.00464646 0)
(0.341734 -0.00425353 0)
(0.355189 -0.00374272 0)
(0.366863 -0.00317997 0)
(0.376496 -0.00253332 0)
(0.383881 -0.00182502 0)
(0.388822 -0.00108901 0)
(0.391185 -0.000335046 0)
(0.391052 0.000420417 0)
(0.388155 0.00123925 0)
(0.382576 0.00202242 0)
(0.374523 0.0027373 0)
(0.364039 0.0034283 0)
(0.351344 0.00405804 0)
(0.336699 0.00461302 0)
(0.320359 0.00508557 0)
(0.302691 0.00545895 0)
(0.284116 0.00574988 0)
(0.264787 0.00594509 0)
(0.24499 0.00603428 0)
(0.224989 0.00603532 0)
(0.205091 0.00594076 0)
(0.185555 0.0057752 0)
(0.166642 0.00554178 0)
(0.148507 0.0052418 0)
(0.131492 0.00489849 0)
(0.115588 0.00451875 0)
(0.101176 0.00409496 0)
(0.0883816 0.00367818 0)
(0.0770541 0.00324609 0)
(0.0671909 0.00283112 0)
(0.0586614 0.0024623 0)
(0.0512525 0.0021119 0)
(0.0450375 0.00179975 0)
(0.0396955 0.00156606 0)
(0.0349943 0.00134289 0)
(0.0311051 0.00116254 0)
(0.0275601 0.00102955 0)
(0.0245059 0.000895471 0)
(0.021814 0.000806079 0)
(0.0193238 0.00070894 0)
(0.0172264 0.000596349 0)
(0.015467 0.000485839 0)
(0.0140697 0.000353652 0)
(0.0131192 0.000202419 0)
(0.0126686 3.26361e-05 0)
(0.0128891 -0.00012309 0)
(0.013756 -0.000278025 0)
(0.0152082 -0.000432087 0)
(0.0171849 -0.000570502 0)
(0.019616 -0.000717993 0)
(0.0225473 -0.000856328 0)
(0.0258756 -0.000985452 0)
(0.0296442 -0.00113716 0)
(0.0339087 -0.00128861 0)
(0.0386328 -0.00143902 0)
(0.0439102 -0.00163741 0)
(0.0498204 -0.00183026 0)
(0.0564309 -0.00207483 0)
(0.0638374 -0.00232613 0)
(0.0720926 -0.00257846 0)
(0.0813029 -0.0028974 0)
(0.0915314 -0.00320063 0)
(0.102797 -0.00348666 0)
(0.115137 -0.00383998 0)
(0.128533 -0.00411985 0)
(0.142924 -0.00445086 0)
(0.158245 -0.00469088 0)
(0.174363 -0.00486934 0)
(0.191127 -0.00509639 0)
(0.208406 -0.00519591 0)
(0.225993 -0.0052154 0)
(0.243674 -0.00527358 0)
(0.261247 -0.0051744 0)
(0.278487 -0.0050918 0)
(0.295166 -0.00486132 0)
(0.311026 -0.00455123 0)
(0.32582 -0.00423713 0)
(0.339321 -0.00380104 0)
(0.351303 -0.00330301 0)
(0.361555 -0.00277652 0)
(0.369893 -0.00217623 0)
(0.37617 -0.00153867 0)
(0.380275 -0.000871615 0)
(0.382154 -0.000186808 0)
(0.381809 0.000496105 0)
(0.378995 0.00119668 0)
(0.373838 0.00187245 0)
(0.366531 0.00247695 0)
(0.357188 0.00306441 0)
(0.345994 0.00360918 0)
(0.33317 0.00401632 0)
(0.318966 0.00441884 0)
(0.303635 0.00466178 0)
(0.287448 0.0049089 0)
(0.270656 0.0050881 0)
(0.253496 0.00510555 0)
(0.236205 0.00514601 0)
(0.218976 0.00513114 0)
(0.201977 0.00499118 0)
(0.185354 0.00488752 0)
(0.169222 0.00468717 0)
(0.153668 0.00452727 0)
(0.138759 0.00434659 0)
(0.124541 0.00410361 0)
(0.111057 0.00389857 0)
(0.0969058 0.00368481 0)
(0.267656 -0.0081019 0)
(0.281819 -0.00780845 0)
(0.297028 -0.0072801 0)
(0.311178 -0.00665638 0)
(0.324055 -0.00604676 0)
(0.335474 -0.00525266 0)
(0.345279 -0.00444956 0)
(0.353307 -0.00351622 0)
(0.359431 -0.00253529 0)
(0.363558 -0.00151891 0)
(0.365599 -0.000456041 0)
(0.365506 0.000571062 0)
(0.363243 0.00165076 0)
(0.358773 0.00273604 0)
(0.352222 0.00374187 0)
(0.343643 0.00472875 0)
(0.333153 0.00567277 0)
(0.320901 0.00643717 0)
(0.307085 0.00719926 0)
(0.2919 0.00787552 0)
(0.275572 0.00829248 0)
(0.258363 0.00871712 0)
(0.240512 0.00902797 0)
(0.222271 0.00906794 0)
(0.203895 0.00912271 0)
(0.185623 0.00893688 0)
(0.167677 0.00876853 0)
(0.150247 0.00851042 0)
(0.133499 0.00807488 0)
(0.11757 0.00767261 0)
(0.102562 0.00722495 0)
(0.0885451 0.00667798 0)
(0.075554 0.00618591 0)
(0.0636053 0.00563977 0)
(0.052681 0.00515399 0)
(0.0427484 0.00468504 0)
(0.0337635 0.00420842 0)
(0.0256716 0.0037886 0)
(0.018408 0.00339725 0)
(0.0119052 0.00302448 0)
(0.00610866 0.00269745 0)
(0.00108183 0.00237926 0)
(-0.00331997 0.00209973 0)
(-0.00725828 0.00182996 0)
(-0.0106766 0.00156747 0)
(-0.0135878 0.00131235 0)
(-0.0159967 0.00105837 0)
(-0.017909 0.000804471 0)
(-0.0193147 0.000547838 0)
(-0.0202021 0.000286888 0)
(-0.0205645 1.95518e-05 0)
(-0.0203725 -0.00024726 0)
(-0.0196048 -0.000521873 0)
(-0.0182455 -0.000797627 0)
(-0.016323 -0.00105411 0)
(-0.0137973 -0.00133805 0)
(-0.010597 -0.001598 0)
(-0.00678238 -0.00186407 0)
(-0.00240374 -0.00217977 0)
(0.00213507 -0.00235993 0)
(0.00700615 -0.00265272 0)
(0.0126305 -0.00290571 0)
(0.0187329 -0.00313289 0)
(0.0253344 -0.00339931 0)
(0.0325326 -0.00365892 0)
(0.0402005 -0.00386785 0)
(0.0483477 -0.00413236 0)
(0.0570341 -0.00433585 0)
(0.066116 -0.00453073 0)
(0.0756 -0.00469693 0)
(0.0853645 -0.00478648 0)
(0.0952739 -0.00482463 0)
(0.105188 -0.00481061 0)
(0.115065 -0.00478519 0)
(0.124813 -0.00464995 0)
(0.134356 -0.00461831 0)
(0.143881 -0.00448357 0)
(0.153173 -0.00447964 0)
(0.162791 -0.00456055 0)
(0.172619 -0.00460603 0)
(0.182733 -0.0047996 0)
(0.1935 -0.00498987 0)
(0.20464 -0.00513838 0)
(0.216217 -0.005275 0)
(0.228049 -0.00529851 0)
(0.239905 -0.00519756 0)
(0.251416 -0.00494939 0)
(0.262308 -0.00455974 0)
(0.272225 -0.00400662 0)
(0.280859 -0.00333694 0)
(0.287965 -0.00257164 0)
(0.293293 -0.00171066 0)
(0.296673 -0.000819742 0)
(0.298004 9.88301e-05 0)
(0.297327 0.00104128 0)
(0.294517 0.00197119 0)
(0.289766 0.00288368 0)
(0.283242 0.00369704 0)
(0.275047 0.00445704 0)
(0.265312 0.00515861 0)
(0.254259 0.00575059 0)
(0.242068 0.0062972 0)
(0.228918 0.00672756 0)
(0.215002 0.00705287 0)
(0.200494 0.00730311 0)
(0.185585 0.00744056 0)
(0.170475 0.00754143 0)
(0.155297 0.00751554 0)
(0.140196 0.00744199 0)
(0.125316 0.00729887 0)
(0.110805 0.00710789 0)
(0.0967729 0.00684054 0)
(0.0832877 0.00653808 0)
(0.0704341 0.00620089 0)
(0.0582915 0.00583115 0)
(0.0469113 0.00546657 0)
(0.036329 0.00504239 0)
(0.0265749 0.00463828 0)
(0.0176567 0.00421056 0)
(0.0096055 0.00377284 0)
(0.00244813 0.00334378 0)
(-0.00385731 0.00292039 0)
(-0.00934861 0.00251638 0)
(-0.0140608 0.00213123 0)
(-0.018047 0.00182378 0)
(-0.0213756 0.00145461 0)
(-0.0240696 0.0011677 0)
(-0.0261537 0.000871796 0)
(-0.0276655 0.000588244 0)
(-0.0286044 0.000347777 0)
(-0.0290662 9.00133e-05 0)
(-0.0290622 -0.000118755 0)
(-0.0286377 -0.000323528 0)
(-0.0278905 -0.000476718 0)
(-0.0267836 -0.000641266 0)
(-0.0253738 -0.000781814 0)
(-0.0237022 -0.000934878 0)
(-0.0217109 -0.00108677 0)
(-0.0193815 -0.00126904 0)
(-0.0166759 -0.00145574 0)
(-0.0135822 -0.00165391 0)
(-0.0100471 -0.0019083 0)
(-0.00599164 -0.00214295 0)
(-0.00140858 -0.00241691 0)
(0.00377169 -0.00273256 0)
(0.00957946 -0.00303613 0)
(0.016012 -0.0033581 0)
(0.0231 -0.00365369 0)
(0.0308263 -0.00397616 0)
(0.0391628 -0.00425732 0)
(0.0480634 -0.00452615 0)
(0.0574828 -0.00478799 0)
(0.0674066 -0.00503105 0)
(0.0778106 -0.00527726 0)
(0.0887123 -0.00551963 0)
(0.100091 -0.00576292 0)
(0.111955 -0.00601145 0)
(0.124334 -0.00626106 0)
(0.137243 -0.0065272 0)
(0.150688 -0.00679757 0)
(0.164676 -0.00708584 0)
(0.179234 -0.00732779 0)
(0.194304 -0.00758616 0)
(0.209829 -0.00779138 0)
(0.225723 -0.00793805 0)
(0.241848 -0.00801692 0)
(0.258016 -0.00801164 0)
(0.274069 -0.00789119 0)
(0.289767 -0.0076499 0)
(0.304864 -0.00728365 0)
(0.319098 -0.0068119 0)
(0.332251 -0.00620782 0)
(0.344085 -0.00548634 0)
(0.35436 -0.00466397 0)
(0.362873 -0.00375586 0)
(0.369451 -0.00275911 0)
(0.373957 -0.00168542 0)
(0.376229 -0.000574027 0)
(0.376218 0.00054795 0)
(0.373776 0.00176105 0)
(0.368977 0.00292942 0)
(0.361964 0.00400965 0)
(0.352835 0.00500058 0)
(0.341816 0.00588942 0)
(0.329152 0.00664896 0)
(0.315079 0.0072596 0)
(0.299907 0.0077652 0)
(0.28386 0.00813622 0)
(0.267184 0.00839406 0)
(0.2501 0.00853903 0)
(0.232818 0.00856464 0)
(0.215594 0.00851108 0)
(0.198583 0.00834318 0)
(0.181973 0.00809464 0)
(0.165935 0.00780352 0)
(0.150595 0.00741684 0)
(0.136082 0.00699634 0)
(0.12244 0.00655162 0)
(0.109701 0.00609189 0)
(0.0978953 0.00564553 0)
(0.086965 0.00520704 0)
(0.0768978 0.00479585 0)
(0.0676399 0.00440212 0)
(0.0591527 0.00402337 0)
(0.0513985 0.00366986 0)
(0.0443325 0.00333529 0)
(0.0379419 0.00300322 0)
(0.0321843 0.00269943 0)
(0.0270251 0.0024138 0)
(0.0224053 0.00215277 0)
(0.0183069 0.00191566 0)
(0.0146784 0.0016918 0)
(0.0114782 0.00148443 0)
(0.00868182 0.00129084 0)
(0.00626788 0.00113486 0)
(0.00414294 0.000984873 0)
(0.00232052 0.000824599 0)
(0.000803721 0.000676319 0)
(-0.000380044 0.000461862 0)
(-0.00110303 0.000224077 0)
(-0.00129649 -4.96068e-05 0)
(-0.000851196 -0.000369461 0)
(0.00027608 -0.000713584 0)
(0.00209563 -0.0010608 0)
(0.00461493 -0.00141019 0)
(0.00782542 -0.00175066 0)
(0.0117279 -0.00209419 0)
(0.0163204 -0.0024449 0)
(0.0216374 -0.002819 0)
(0.0277275 -0.00321501 0)
(0.034637 -0.003633 0)
(0.0423989 -0.00405091 0)
(0.0510181 -0.00448705 0)
(0.0605173 -0.0049171 0)
(0.0708613 -0.00534131 0)
(0.0820441 -0.00575748 0)
(0.0940786 -0.00618355 0)
(0.106962 -0.0066077 0)
(0.120713 -0.00703843 0)
(0.13535 -0.00746848 0)
(0.150833 -0.00789047 0)
(0.167125 -0.00828849 0)
(0.184176 -0.00863089 0)
(0.201852 -0.00890211 0)
(0.220006 -0.00909008 0)
(0.238454 -0.00917389 0)
(0.256953 -0.00914687 0)
(0.275274 -0.00899617 0)
(0.293182 -0.00873033 0)
(0.31041 -0.00831525 0)
(0.326669 -0.00776808 0)
(0.341682 -0.00707731 0)
(0.355163 -0.00623892 0)
(0.366853 -0.00528883 0)
(0.376496 -0.00422287 0)
(0.383879 -0.00306547 0)
(0.388838 -0.00182103 0)
(0.391215 -0.00055143 0)
(0.391051 0.000702109 0)
(0.388131 0.00206301 0)
(0.382586 0.0033767 0)
(0.374529 0.00456669 0)
(0.364027 0.00571643 0)
(0.351313 0.00676691 0)
(0.336643 0.00768037 0)
(0.32029 0.00847289 0)
(0.302608 0.00911038 0)
(0.284028 0.00959623 0)
(0.264674 0.00991039 0)
(0.244866 0.0100527 0)
(0.224864 0.0100545 0)
(0.204965 0.00990319 0)
(0.18543 0.00962472 0)
(0.166522 0.00923594 0)
(0.148395 0.00874292 0)
(0.131378 0.00816414 0)
(0.115475 0.00753154 0)
(0.101058 0.00682644 0)
(0.0882562 0.0061299 0)
(0.0769207 0.00541224 0)
(0.0670482 0.00472041 0)
(0.0585097 0.00410435 0)
(0.0510899 0.00352215 0)
(0.0448651 0.00300111 0)
(0.0395204 0.00261107 0)
(0.0348126 0.00223807 0)
(0.0309268 0.00193605 0)
(0.0273858 0.00171539 0)
(0.0243394 0.00148975 0)
(0.0216617 0.0013399 0)
(0.019181 0.00117966 0)
(0.0170936 0.000993294 0)
(0.0153463 0.000804041 0)
(0.0139581 0.000592218 0)
(0.0130161 0.000330995 0)
(0.0125778 5.55906e-05 0)
(0.0128094 -0.000210959 0)
(0.0136869 -0.000456442 0)
(0.0151495 -0.000718137 0)
(0.0171332 -0.000950413 0)
(0.0195691 -0.00119669 0)
(0.0225044 -0.00142691 0)
(0.0258346 -0.00164227 0)
(0.0296031 -0.00189464 0)
(0.0338663 -0.00214665 0)
(0.0385872 -0.00239692 0)
(0.0438598 -0.00272668 0)
(0.0497652 -0.00304765 0)
(0.0563687 -0.00345464 0)
(0.0637698 -0.00387384 0)
(0.0720205 -0.00429562 0)
(0.081225 -0.00482752 0)
(0.0914508 -0.00533337 0)
(0.102716 -0.0058108 0)
(0.115056 -0.00640059 0)
(0.128457 -0.00686732 0)
(0.142853 -0.00741959 0)
(0.158183 -0.00782019 0)
(0.174312 -0.00811759 0)
(0.191089 -0.00849632 0)
(0.208382 -0.00866245 0)
(0.225984 -0.00869499 0)
(0.243684 -0.00879224 0)
(0.261273 -0.00862706 0)
(0.278533 -0.00848961 0)
(0.295231 -0.00810546 0)
(0.311109 -0.00758847 0)
(0.325923 -0.00706501 0)
(0.339441 -0.00633798 0)
(0.351438 -0.00550756 0)
(0.361707 -0.00462979 0)
(0.370056 -0.003629 0)
(0.376341 -0.00256601 0)
(0.380453 -0.00145494 0)
(0.382351 -0.00030485 0)
(0.381999 0.000822618 0)
(0.379162 0.001995 0)
(0.374008 0.00312112 0)
(0.366689 0.00413018 0)
(0.357333 0.00510994 0)
(0.346124 0.00601838 0)
(0.333279 0.00669711 0)
(0.319055 0.00736817 0)
(0.303702 0.00777297 0)
(0.287496 0.00818478 0)
(0.270684 0.00848328 0)
(0.253507 0.00851198 0)
(0.2362 0.0085791 0)
(0.218957 0.00855398 0)
(0.201948 0.00832029 0)
(0.185315 0.0081472 0)
(0.169177 0.00781294 0)
(0.153617 0.0075462 0)
(0.138704 0.00724486 0)
(0.124484 0.00683973 0)
(0.110998 0.00649788 0)
(0.0968446 0.00614151 0)
(0.267736 -0.0113483 0)
(0.281922 -0.0109378 0)
(0.297154 -0.0101978 0)
(0.311325 -0.00932421 0)
(0.324227 -0.00847062 0)
(0.335664 -0.0073584 0)
(0.34549 -0.00623368 0)
(0.353532 -0.00492625 0)
(0.359668 -0.0035524 0)
(0.363804 -0.00212978 0)
(0.365858 -0.00065679 0)
(0.365765 0.000818372 0)
(0.363487 0.00231767 0)
(0.359023 0.00383228 0)
(0.35246 0.00524135 0)
(0.343868 0.00662396 0)
(0.333361 0.00794653 0)
(0.321084 0.00901731 0)
(0.307245 0.0100849 0)
(0.292035 0.0110324 0)
(0.275676 0.0116162 0)
(0.258438 0.012211 0)
(0.240557 0.0126462 0)
(0.222286 0.0127018 0)
(0.203882 0.0127781 0)
(0.185585 0.0125172 0)
(0.167615 0.0122809 0)
(0.150165 0.0119187 0)
(0.133403 0.011308 0)
(0.117461 0.010744 0)
(0.102444 0.0101164 0)
(0.0884239 0.00935012 0)
(0.0754306 0.00865975 0)
(0.0634846 0.00789507 0)
(0.0525635 0.00721481 0)
(0.0426358 0.00655764 0)
(0.0336584 0.00589014 0)
(0.0255732 0.00530226 0)
(0.0183172 0.00475414 0)
(0.0118227 0.00423165 0)
(0.0060323 0.0037716 0)
(0.00101161 0.00333445 0)
(-0.00338566 0.00293906 0)
(-0.00732134 0.00256149 0)
(-0.0107376 0.00219357 0)
(-0.013648 0.00183833 0)
(-0.0160566 0.00148143 0)
(-0.017969 0.00112611 0)
(-0.0193759 0.000768757 0)
(-0.0202654 0.000401272 0)
(-0.0206281 2.7021e-05 0)
(-0.020436 -0.000346196 0)
(-0.019669 -0.000732803 0)
(-0.0183092 -0.00111472 0)
(-0.0163853 -0.00147504 0)
(-0.0138589 -0.0018747 0)
(-0.0106591 -0.00224036 0)
(-0.0068469 -0.00260613 0)
(-0.00245705 -0.00305137 0)
(0.0020858 -0.00330483 0)
(0.00695187 -0.00371488 0)
(0.0125796 -0.0040686 0)
(0.0186824 -0.00438588 0)
(0.0252868 -0.00475907 0)
(0.0324849 -0.00512418 0)
(0.0401578 -0.00541509 0)
(0.0483102 -0.00578741 0)
(0.0570048 -0.00607331 0)
(0.0661042 -0.00634912 0)
(0.0756116 -0.00657833 0)
(0.0854029 -0.00670884 0)
(0.0953447 -0.00676786 0)
(0.105298 -0.00674748 0)
(0.11521 -0.00670375 0)
(0.124999 -0.0065212 0)
(0.134568 -0.00647025 0)
(0.144133 -0.00628113 0)
(0.153447 -0.00627903 0)
(0.163119 -0.00640334 0)
(0.173 -0.00646445 0)
(0.183176 -0.00673607 0)
(0.194005 -0.00700144 0)
(0.205203 -0.00720562 0)
(0.21683 -0.00739341 0)
(0.228709 -0.00742734 0)