/*--------------------------------*- C++ -*----------------------------------*\
| =========                 |                                                 |
| \\      /  F ield         | OpenFOAM: The Open Source CFD Toolbox           |
|  \\    /   O peration     | Version:  3.0.1                                 |
|   \\  /    A nd           | Web:      www.OpenFOAM.org                      |
|    \\/     M anipulation  |                                                 |
\*---------------------------------------------------------------------------*/
FoamFile
{
    version     2.0;
    format      ascii;
    class       volScalarField;
    location    "86.2";
    object      p;
}
// * * * * * * * * * * * * * * * * * * * * * * * * * * * * * * * * * * * * * //

dimensions      [1 -1 -2 0 0 0 0];

internalField   nonuniform List<scalar> 
21420
(
3850.75
3822
3793.55
3766.09
3740
3715.45
3692.58
3671.44
3652.08
3634.5
3618.67
3604.56
3592.14
3581.34
3572.13
3564.45
3558.27
3553.55
3550.28
3548.46
3548.04
3549
3551.39
3555.21
3560.5
3567.29
3575.62
3585.54
3597.11
3610.36
3625.37
3642.18
3660.81
3681.29
3703.62
3727.8
3753.77
3781.46
3810.77
3841.53
3873.55
3906.59
3940.35
3974.55
4008.87
4042.93
4076.34
4108.71
4139.65
4168.75
4195.64
4219.97
4241.43
4259.73
4274.62
4285.92
4293.49
4297.2
4296.41
4291.71
4283.2
4270.93
4255.12
4235.98
4213.78
4188.79
4161.37
4131.91
4100.76
4068.33
4035.01
4001.18
3967.21
3933.54
3901.12
3868.97
3837.79
3807.83
3779.28
3752.28
3726.95
3703.37
3681.59
3661.65
3643.57
3627.36
3612.99
3600.47
3589.76
3580.81
3573.6
3568.05
3564.12
3561.77
3560.92
3561.51
3563.52
3566.92
3571.69
3577.84
3585.36
3594.28
3604.63
3616.45
3629.75
3644.59
3660.98
3678.94
3698.49
3719.62
3742.31
3766.53
3792.21
3819.26
3847.59
3877.06
3907.53
3938.76
3970.54
4002.63
4034.74
4066.57
4097.78
4128.01
4156.92
4184.1
4209.2
4231.85
4251.69
4268.42
4281.74
4291.44
4297.32
4299.18
4297.13
4291.07
4281.03
4267.18
4249.71
4228.86
4204.93
4178.27
4149.26
4118.32
4085.87
4052.37
4018.25
3983.95
3949.87
3916.42
3883.9
3852.61
3822.79
3794.62
3768.22
3743.68
3721.04
3700.31
3681.47
3664.49
3649.31
3635.88
3624.13
3613.99
3605.39
3598.26
3592.53
3588.15
3585.06
3583.22
3582.62
3583.22
3584.98
3587.94
3592.09
3597.44
3604.02
3611.86
3621
3631.47
3643.32
3656.6
3671.34
3687.6
3705.41
3724.81
3745.79
3768.38
3792.53
3818.19
3845.28
3873.7
3903.3
3933.91
3965.32
3997.23
4029.36
4061.37
4092.91
4123.57
4152.97
4180.68
4206.3
4229.44
4249.72
4266.81
4280.39
4290.23
4296.14
4297.91
4295.63
4289.24
4278.82
4264.55
4246.66
4225.44
4201.27
4174.51
4145.61
4114.98
4083.05
4050.26
4017.01
3983.69
3950.78
3918.41
3887
3856.77
3827.93
3800.62
3774.95
3750.99
3728.77
3708.32
3689.62
3672.65
3657.39
3643.8
3631.82
3621.42
3612.53
3605.11
3599.1
3594.46
3591.14
3589.07
3588.23
3588.61
3590.15
3592.84
3596.69
3601.7
3607.92
3615.37
3624.11
3634.18
3645.64
3658.52
3672.86
3688.7
3706.06
3724.96
3745.4
3767.38
3790.87
3815.82
3842.16
3869.78
3898.54
3928.27
3958.86
3991.6
4023.09
4054.36
4085.21
4115.3
4144.23
4171.61
4197.04
4220.1
4240.41
4257.61
4271.34
4281.31
4287.29
4289.09
4286.54
4280.12
4269.44
4254.73
4236.2
4214.21
4189.17
4161.5
4131.67
4100.18
4067.5
4034.1
4000.4
3966.75
3933.42
3905.52
3874.63
3845.27
3817.54
3791.52
3767.28
3744.81
3724.11
3705.12
3687.75
3671.92
3657.53
3644.46
3632.65
3622.01
3612.51
3604.13
3596.88
3590.79
3585.9
3582.29
3580.03
3579.22
3579.97
3582.33
3586.41
3592.28
3600
3609.62
3621.19
3634.72
3650.23
3667.69
3687.06
3708.29
3731.26
3755.88
3781.99
3809.4
3837.93
3867.36
3897.52
3928.2
3958.86
3989.31
4019.28
4048.41
4076.39
4102.91
4127.68
4150.42
4170.87
4188.8
4204
4216.24
4225.33
3752.58
3723.83
3695.38
3667.92
3641.82
3617.27
3594.4
3573.26
3553.9
3536.32
3520.5
3506.39
3493.97
3483.18
3473.96
3466.29
3460.11
3455.39
3452.12
3450.3
3449.89
3450.84
3453.23
3457.06
3462.34
3469.13
3477.46
3487.37
3498.94
3512.19
3527.2
3544
3562.63
3583.11
3605.44
3629.61
3655.59
3683.28
3712.59
3743.36
3775.39
3808.44
3842.21
3876.41
3910.75
3944.83
3978.25
4010.65
4041.6
4070.72
4097.62
4121.97
4143.45
4161.76
4176.66
4187.97
4195.54
4199.26
4198.46
4193.76
4185.24
4172.96
4157.14
4137.99
4115.77
4090.76
4063.33
4033.85
4002.69
3970.24
3936.9
3903.05
3869.08
3835.4
3802.96
3770.8
3739.62
3709.66
3681.11
3654.1
3628.77
3605.19
3583.41
3563.47
3545.4
3529.18
3514.81
3502.3
3491.58
3482.64
3475.43
3469.88
3465.96
3463.61
3462.76
3463.35
3465.36
3468.76
3473.53
3479.68
3487.2
3496.12
3506.47
3518.28
3531.58
3546.41
3562.8
3580.77
3600.31
3621.44
3644.13
3668.35
3694.03
3721.09
3749.43
3778.9
3809.38
3840.61
3872.4
3904.5
3936.62
3968.46
3999.69
4029.94
4058.86
4086.07
4111.18
4133.84
4153.7
4170.44
4183.78
4193.48
4199.37
4201.24
4199.18
4193.11
4183.07
4169.21
4151.73
4130.86
4106.91
4080.23
4051.21
4020.25
3987.78
3954.26
3920.12
3885.81
3851.72
3818.25
3785.72
3754.43
3724.6
3696.43
3670.03
3645.49
3622.85
3602.12
3583.29
3566.31
3551.13
3537.71
3525.96
3515.82
3507.22
3500.1
3494.37
3490
3486.91
3485.07
3484.47
3485.06
3486.83
3489.79
3493.93
3499.29
3505.87
3513.71
3522.84
3533.31
3545.16
3558.43
3573.17
3589.43
3607.24
3626.63
3647.62
3670.2
3694.35
3720.01
3747.11
3775.53
3805.13
3835.76
3867.18
3899.1
3931.24
3963.27
3994.82
4025.5
4054.91
4082.64
4108.28
4131.43
4151.73
4168.83
4182.43
4192.28
4198.19
4199.97
4197.69
4191.29
4180.87
4166.58
4148.67
4127.44
4103.25
4076.48
4047.55
4016.9
3984.96
3952.15
3918.89
3885.55
3852.63
3820.25
3788.83
3758.6
3729.75
3702.44
3676.77
3652.81
3630.59
3610.14
3591.44
3574.48
3559.22
3545.62
3533.65
3523.25
3514.37
3506.95
3500.94
3496.31
3492.98
3490.91
3490.08
3490.46
3492.01
3494.7
3498.54
3503.55
3509.77
3517.22
3525.96
3536.03
3547.48
3560.36
3574.7
3590.54
3607.9
3626.79
3647.23
3669.21
3692.7
3717.66
3744
3771.62
3800.38
3830.12
3860.7
3893.48
3924.97
3956.25
3987.12
4017.22
4046.17
4073.57
4099.02
4122.1
4142.42
4159.63
4173.38
4183.36
4189.35
4191.16
4188.62
4182.18
4171.5
4156.77
4138.23
4116.22
4091.16
4063.47
4033.62
4002.1
3969.41
3935.99
3902.28
3868.62
3835.3
3807.32
3776.44
3747.09
3719.36
3693.34
3669.1
3646.63
3625.94
3606.95
3589.59
3573.76
3559.37
3546.31
3534.5
3523.86
3514.37
3505.99
3498.74
3492.64
3487.75
3484.14
3481.87
3481.06
3481.8
3484.16
3488.24
3494.11
3501.82
3511.45
3523.01
3536.54
3552.04
3569.51
3588.88
3610.11
3633.09
3657.71
3683.82
3711.24
3739.78
3769.22
3799.38
3830.08
3860.75
3891.21
3921.19
3950.34
3978.33
4004.86
4029.64
4052.4
4072.86
4090.8
4106.01
4118.26
4127.35
3654.36
3625.59
3597.13
3569.66
3543.56
3519.01
3496.14
3475
3455.65
3438.07
3422.25
3408.15
3395.74
3384.95
3375.74
3368.07
3361.9
3357.18
3353.91
3352.09
3351.67
3352.63
3355.02
3358.84
3364.12
3370.9
3379.23
3389.14
3400.7
3413.95
3428.95
3445.74
3464.37
3484.84
3507.17
3531.35
3557.32
3585.02
3614.34
3645.12
3677.16
3710.23
3744.02
3778.25
3812.62
3846.73
3880.18
3912.61
3943.6
3972.75
3999.69
4024.07
4045.57
4063.91
4078.84
4090.16
4097.74
4101.48
4100.65
4095.95
4087.42
4075.13
4059.28
4040.11
4017.85
3992.81
3965.35
3935.83
3904.64
3872.15
3838.78
3804.91
3770.91
3737.2
3704.75
3672.57
3641.38
3611.41
3582.85
3555.84
3530.51
3506.93
3485.15
3465.21
3447.14
3430.92
3416.56
3404.05
3393.34
3384.4
3377.19
3371.65
3367.73
3365.39
3364.54
3365.13
3367.14
3370.54
3375.32
3381.46
3388.98
3397.9
3408.25
3420.05
3433.35
3448.18
3464.56
3482.52
3502.07
3523.2
3545.89
3570.11
3595.79
3622.86
3651.2
3680.68
3711.17
3742.42
3774.23
3806.35
3838.5
3870.36
3901.62
3931.9
3960.85
3988.09
4013.24
4035.94
4055.83
4072.59
4085.95
4095.67
4101.57
4103.47
4101.38
4095.31
4085.25
4071.38
4053.86
4032.97
4008.99
3982.27
3953.21
3922.21
3889.71
3856.15
3821.98
3787.63
3753.52
3720.02
3687.48
3656.17
3626.33
3598.15
3571.75
3547.21
3524.58
3503.85
3485.02
3468.05
3452.88
3439.46
3427.72
3417.59
3409
3401.88
3396.16
3391.79
3388.7
3386.87
3386.27
3386.86
3388.63
3391.59
3395.73
3401.08
3407.66
3415.5
3424.63
3435.09
3446.94
3460.2
3474.94
3491.19
3509
3528.39
3549.37
3571.95
3596.1
3621.77
3648.87
3677.3
3706.92
3737.55
3768.99
3800.94
3833.1
3865.16
3896.74
3927.45
3956.9
3984.67
4010.34
4033.53
4053.86
4070.99
4084.62
4094.49
4100.41
4102.2
4099.9
4093.5
4083.05
4068.74
4050.81
4029.54
4005.31
3978.5
3949.54
3918.85
3886.88
3854.03
3820.74
3787.39
3754.42
3722.03
3690.59
3660.35
3631.5
3604.18
3578.51
3554.55
3532.33
3511.88
3493.19
3476.23
3460.98
3447.39
3435.42
3425.03
3416.15
3408.73
3402.73
3398.1
3394.78
3392.71
3391.88
3392.27
3393.81
3396.5
3400.34
3405.35
3411.57
3419.02
3427.75
3437.81
3449.26
3462.13
3476.47
3492.31
3509.66
3528.55
3548.99
3570.97
3594.47
3619.42
3645.77
3673.4
3702.17
3731.91
3762.5
3795.35
3826.84
3858.14
3889.04
3919.17
3948.16
3975.59
4001.07
4024.18
4044.54
4061.79
4075.56
4085.57
4091.57
4093.4
4090.87
4084.41
4073.71
4058.96
4040.38
4018.34
3993.23
3965.5
3935.61
3904.05
3871.31
3837.86
3804.12
3770.45
3737.16
3709.02
3678.17
3648.83
3621.09
3595.08
3570.83
3548.38
3527.69
3508.71
3491.36
3475.54
3461.16
3448.11
3436.3
3425.67
3416.18
3407.8
3400.54
3394.44
3389.55
3385.93
3383.66
3382.85
3383.57
3385.92
3390
3395.86
3403.57
3413.19
3424.75
3438.27
3453.78
3471.24
3490.62
3511.85
3534.83
3559.46
3585.59
3613.02
3641.57
3671.03
3701.21
3731.92
3762.61
3793.1
3823.11
3852.29
3880.3
3906.87
3931.67
3954.46
3974.95
3992.91
4008.13
4020.4
4029.5
3556.08
3527.29
3498.81
3471.33
3445.22
3420.67
3397.8
3376.67
3357.32
3339.75
3323.93
3309.85
3297.44
3286.65
3277.46
3269.79
3263.62
3258.91
3255.64
3253.83
3253.4
3254.36
3256.75
3260.57
3265.84
3272.62
3280.93
3290.84
3302.39
3315.63
3330.62
3347.4
3366.02
3386.49
3408.82
3432.99
3458.97
3486.68
3516.01
3546.81
3578.87
3611.97
3645.79
3680.06
3714.47
3748.62
3782.13
3814.61
3845.65
3874.85
3901.85
3926.27
3947.82
3966.19
3981.15
3992.49
4000.09
4003.85
4003
3998.29
3989.74
3977.43
3961.55
3942.33
3920.03
3894.94
3867.43
3837.86
3806.61
3774.08
3740.66
3706.74
3672.7
3638.97
3606.48
3574.28
3543.07
3513.08
3484.51
3457.5
3432.16
3408.58
3386.8
3366.87
3348.8
3332.59
3318.24
3305.73
3295.03
3286.09
3278.89
3273.36
3269.44
3267.11
3266.27
3266.86
3268.88
3272.28
3277.05
3283.19
3290.71
3299.62
3309.96
3321.76
3335.05
3349.88
3366.25
3384.21
3403.75
3424.88
3447.57
3471.79
3497.48
3524.56
3552.91
3582.41
3612.91
3644.19
3676.02
3708.17
3740.36
3772.26
3803.56
3833.9
3862.9
3890.19
3915.39
3938.13
3958.07
3974.87
3988.27
3998.01
4003.93
4005.85
4003.74
3997.66
3987.58
3973.67
3956.12
3935.18
3911.15
3884.38
3855.26
3824.2
3791.64
3758.03
3723.81
3689.42
3655.26
3621.73
3589.16
3557.83
3527.98
3499.79
3473.39
3448.85
3426.22
3405.5
3386.68
3369.72
3354.56
3341.15
3329.42
3319.3
3310.72
3303.61
3297.9
3293.53
3290.45
3288.62
3288.03
3288.62
3290.39
3293.34
3297.48
3302.83
3309.4
3317.24
3326.36
3336.82
3348.65
3361.91
3376.64
3392.89
3410.69
3430.07
3451.05
3473.63
3497.79
3523.46
3550.57
3579.01
3608.64
3639.3
3670.77
3702.74
3734.95
3767.04
3798.67
3829.44
3858.94
3886.76
3912.49
3935.73
3956.11
3973.29
3986.95
3996.84
4002.78
4004.6
4002.27
3995.86
3985.39
3971.04
3953.06
3931.75
3907.46
3880.59
3851.57
3820.83
3788.8
3755.91
3722.57
3689.18
3656.16
3623.75
3592.29
3562.03
3533.17
3505.84
3480.17
3456.21
3434
3413.55
3394.86
3377.91
3362.67
3349.08
3337.13
3326.74
3317.87
3310.46
3304.47
3299.84
3296.52
3294.46
3293.64
3294.03
3295.57
3298.26
3302.1
3307.11
3313.32
3320.76
3329.48
3339.54
3350.98
3363.85
3378.18
3394.01
3411.36
3430.25
3450.69
3472.66
3496.16
3521.12
3547.48
3575.12
3603.91
3633.66
3664.23
3697.21
3728.7
3760.03
3790.97
3821.15
3850.18
3877.66
3903.19
3926.36
3946.77
3964.07
3977.88
3987.92
3993.96
3995.8
3993.3
3986.8
3976.08
3961.29
3942.67
3920.57
3895.4
3867.6
3837.64
3806.02
3773.23
3739.73
3705.94
3672.25
3638.98
3610.63
3579.82
3550.48
3522.74
3496.73
3472.49
3450.04
3429.36
3410.39
3393.06
3377.26
3362.89
3349.85
3338.05
3327.43
3317.94
3309.56
3302.3
3296.2
3291.3
3287.67
3285.39
3284.57
3285.28
3287.62
3291.69
3297.54
3305.24
3314.85
3326.4
3339.93
3355.43
3372.89
3392.27
3413.51
3436.5
3461.14
3487.29
3514.74
3543.3
3572.79
3603
3633.74
3664.47
3695
3725.05
3754.26
3782.32
3808.93
3833.77
3856.59
3877.12
3895.11
3910.36
3922.65
3931.77
3457.73
3428.91
3400.41
3372.91
3346.8
3322.24
3299.37
3278.25
3258.91
3241.35
3225.55
3211.47
3199.07
3188.3
3179.11
3171.45
3165.29
3160.59
3157.32
3155.5
3155.07
3156.04
3158.42
3162.23
3167.51
3174.27
3182.58
3192.47
3204.01
3217.23
3232.22
3248.99
3267.6
3288.06
3310.38
3334.56
3360.54
3388.25
3417.6
3448.42
3480.52
3513.65
3547.51
3581.83
3616.3
3650.52
3684.08
3716.64
3747.75
3777.02
3804.08
3828.58
3850.18
3868.6
3883.6
3894.97
3902.59
3906.36
3905.51
3900.78
3892.21
3879.86
3863.93
3844.67
3822.31
3797.15
3769.57
3739.93
3708.61
3676.01
3642.53
3608.55
3574.46
3540.68
3508.15
3475.92
3444.68
3414.68
3386.1
3359.08
3333.73
3310.15
3288.38
3268.45
3250.38
3234.18
3219.84
3207.33
3196.64
3187.72
3180.53
3175
3171.1
3168.77
3167.93
3168.54
3170.55
3173.96
3178.73
3184.87
3192.38
3201.29
3211.62
3223.41
3236.69
3251.51
3267.88
3285.83
3305.36
3326.49
3349.18
3373.41
3399.1
3426.19
3454.56
3484.08
3514.6
3545.91
3577.78
3609.97
3642.21
3674.17
3705.52
3735.92
3764.99
3792.35
3817.61
3840.42
3860.42
3877.28
3890.72
3900.51
3906.44
3908.38
3906.26
3900.16
3890.06
3876.11
3858.51
3837.5
3813.4
3786.56
3757.36
3726.23
3693.6
3659.91
3625.62
3591.17
3556.96
3523.38
3490.77
3459.41
3429.55
3401.35
3374.94
3350.4
3327.78
3307.07
3288.26
3271.31
3256.17
3242.77
3231.05
3220.95
3212.38
3205.28
3199.58
3195.22
3192.15
3190.33
3189.73
3190.33
3192.1
3195.05
3199.19
3204.53
3211.1
3218.92
3228.04
3238.49
3250.31
3263.56
3278.28
3294.52
3312.31
3331.68
3352.66
3375.24
3399.4
3425.07
3452.2
3480.66
3510.31
3540.99
3572.5
3604.52
3636.77
3668.93
3700.62
3731.45
3761.02
3788.92
3814.72
3838.03
3858.48
3875.71
3889.42
3899.35
3905.31
3907.15
3904.81
3898.38
3887.87
3873.48
3855.44
3834.06
3809.69
3782.75
3753.65
3722.84
3690.74
3657.78
3624.38
3590.94
3557.86
3525.41
3493.92
3463.64
3434.76
3407.43
3381.75
3357.79
3335.58
3315.14
3296.46
3279.52
3264.28
3250.71
3238.77
3228.39
3219.53
3212.13
3206.15
3201.53
3198.22
3196.17
3195.35
3195.74
3197.29
3199.98
3203.81
3208.82
3215.02
3222.45
3231.17
3241.21
3252.65
3265.51
3279.83
3295.65
3312.99
3331.88
3352.31
3374.29
3397.78
3422.76
3449.12
3476.78
3505.59
3535.36
3565.91
3599.06
3630.54
3661.91
3692.9
3723.15
3752.24
3779.79
3805.4
3828.63
3849.11
3866.47
3880.35
3890.44
3896.51
3898.38
3895.89
3889.37
3878.61
3863.76
3845.08
3822.9
3797.65
3769.77
3739.72
3708.01
3675.14
3641.57
3607.73
3574.01
3540.77
3512.15
3481.39
3452.05
3424.31
3398.3
3374.06
3351.63
3330.96
3312.01
3294.7
3278.92
3264.57
3251.54
3239.76
3229.15
3219.66
3211.28
3204.02
3197.91
3193
3189.36
3187.06
3186.23
3186.92
3189.25
3193.31
3199.15
3206.84
3216.44
3227.98
3241.5
3257
3274.46
3293.85
3315.09
3338.09
3362.75
3388.92
3416.39
3444.99
3474.5
3504.75
3535.53
3566.31
3596.88
3626.99
3656.26
3684.37
3711.04
3735.93
3758.8
3779.38
3797.41
3812.71
3825.03
3834.17
3359.32
3330.47
3301.94
3274.42
3248.3
3223.74
3200.87
3179.75
3160.42
3142.87
3127.08
3113.02
3100.63
3089.88
3080.7
3073.05
3066.9
3062.2
3058.94
3057.12
3056.69
3057.66
3060.04
3063.84
3069.11
3075.86
3084.15
3094.04
3105.56
3118.77
3133.74
3150.5
3169.1
3189.55
3211.86
3236.04
3262.03
3289.75
3319.11
3349.97
3382.1
3415.27
3449.19
3483.57
3518.11
3552.41
3586.06
3618.7
3649.9
3679.26
3706.41
3730.98
3752.65
3771.14
3786.18
3797.6
3805.24
3809.01
3808.17
3803.42
3794.81
3782.43
3766.44
3747.11
3724.67
3699.43
3671.76
3642.04
3610.63
3577.94
3544.39
3510.34
3476.18
3442.35
3409.76
3377.49
3346.23
3316.2
3287.6
3260.57
3235.23
3211.64
3189.87
3169.95
3151.89
3135.7
3121.36
3108.87
3098.18
3089.27
3082.09
3076.58
3072.69
3070.37
3069.54
3070.15
3072.18
3075.58
3080.35
3086.49
3093.99
3102.89
3113.21
3124.99
3138.27
3153.07
3169.43
3187.38
3206.91
3228.03
3250.72
3274.95
3300.66
3327.76
3356.14
3385.69
3416.24
3447.59
3479.51
3511.75
3544.04
3576.07
3607.5
3637.98
3667.13
3694.57
3719.93
3742.82
3762.89
3779.82
3793.32
3803.15
3809.11
3811.07
3808.95
3802.82
3792.68
3778.68
3761.01
3739.93
3715.75
3688.81
3659.52
3628.29
3595.56
3561.79
3527.41
3492.88
3458.6
3424.97
3392.31
3360.92
3331.03
3302.81
3276.4
3251.87
3229.25
3208.55
3189.76
3172.82
3157.7
3144.32
3132.62
3122.53
3113.98
3106.89
3101.21
3096.86
3093.8
3091.99
3091.39
3091.99
3093.76
3096.71
3100.84
3106.18
3112.74
3120.55
3129.66
3140.1
3151.91
3165.15
3179.86
3196.08
3213.86
3233.23
3254.2
3276.78
3300.94
3326.62
3353.76
3382.24
3411.92
3442.63
3474.19
3506.27
3538.58
3570.81
3602.58
3633.5
3663.16
3691.14
3717.04
3740.44
3760.96
3778.27
3792.04
3802.02
3808.01
3809.86
3807.51
3801.05
3790.5
3776.05
3757.93
3736.47
3712.01
3684.97
3655.78
3624.87
3592.68
3559.64
3526.16
3492.66
3459.51
3427.02
3395.49
3365.18
3336.28
3308.93
3283.25
3259.29
3237.09
3216.66
3197.99
3181.06
3165.83
3152.28
3140.34
3129.98
3121.13
3113.74
3107.77
3103.16
3099.86
3097.82
3097.02
3097.41
3098.96
3101.64
3105.48
3110.48
3116.67
3124.09
3132.79
3142.83
3154.25
3167.1
3181.41
3197.22
3214.56
3233.43
3253.86
3275.84
3299.34
3324.32
3350.7
3378.39
3407.22
3437.01
3467.54
3500.89
3532.36
3563.78
3594.85
3625.17
3654.35
3681.99
3707.67
3731
3751.56
3769
3782.95
3793.1
3799.22
3801.12
3798.64
3792.11
3781.29
3766.38
3747.62
3725.35
3699.99
3672
3641.84
3610.03
3577.06
3543.41
3509.49
3475.73
3442.5
3413.6
3382.88
3353.54
3325.8
3299.78
3275.56
3253.13
3232.49
3213.56
3196.27
3180.51
3166.19
3153.18
3141.42
3130.81
3121.33
3112.95
3105.69
3099.56
3094.64
3090.99
3088.68
3087.83
3088.5
3090.82
3094.86
3100.68
3108.36
3117.95
3129.48
3142.99
3158.49
3175.95
3195.34
3216.59
3239.61
3264.29
3290.48
3317.98
3346.62
3376.17
3406.46
3437.3
3468.13
3498.77
3528.94
3558.29
3586.47
3613.2
3638.16
3661.1
3681.73
3699.82
3715.16
3727.52
3736.69
3260.85
3231.95
3203.39
3175.85
3149.72
3125.15
3102.29
3081.17
3061.85
3044.32
3028.55
3014.5
3002.13
2991.39
2982.23
2974.59
2968.45
2963.76
2960.51
2958.69
2958.26
2959.22
2961.6
2965.4
2970.65
2977.39
2985.67
2995.53
3007.04
3020.23
3035.18
3051.93
3070.51
3090.95
3113.26
3137.43
3163.43
3191.16
3220.55
3251.44
3283.61
3316.84
3350.83
3385.28
3419.9
3454.29
3488.05
3520.79
3552.1
3581.57
3608.81
3633.48
3655.24
3673.8
3688.91
3700.37
3708.04
3711.82
3710.99
3706.21
3697.57
3685.13
3669.07
3649.66
3627.13
3601.79
3574.02
3544.18
3512.67
3479.89
3446.24
3412.11
3377.87
3343.97
3311.31
3279
3247.7
3217.65
3189.03
3161.99
3136.63
3113.05
3091.28
3071.36
3053.32
3037.13
3022.81
3010.33
2999.66
2990.76
2983.59
2978.1
2974.22
2971.91
2971.09
2971.72
2973.74
2977.15
2981.92
2988.05
2995.55
3004.44
3014.75
3026.52
3039.78
3054.57
3070.92
3088.85
3108.38
3129.5
3152.19
3176.43
3202.14
3229.26
3257.67
3287.24
3317.83
3349.22
3381.2
3413.51
3445.87
3477.98
3509.5
3540.07
3569.32
3596.86
3622.32
3645.31
3665.48
3682.49
3696.06
3705.94
3711.93
3713.91
3711.79
3705.64
3695.45
3681.39
3663.64
3642.47
3618.18
3591.14
3561.73
3530.39
3497.54
3463.66
3429.18
3394.55
3360.19
3326.49
3293.78
3262.35
3232.43
3204.2
3177.78
3153.25
3130.64
3109.96
3091.18
3074.26
3059.16
3045.8
3034.12
3024.05
3015.52
3008.45
3002.78
2998.45
2995.4
2993.59
2993.01
2993.6
2995.37
2998.32
3002.45
3007.78
3014.33
3022.14
3031.23
3041.65
3053.45
3066.67
3081.37
3097.57
3115.34
3134.7
3155.67
3178.24
3202.4
3228.1
3255.25
3283.76
3313.47
3344.22
3375.84
3407.98
3440.37
3472.68
3504.55
3535.57
3565.34
3593.43
3619.43
3642.94
3663.57
3680.96
3694.81
3704.84
3710.86
3712.73
3710.38
3703.89
3693.28
3678.76
3660.55
3638.98
3614.41
3587.26
3557.95
3526.93
3494.63
3461.49
3427.93
3394.34
3361.12
3328.56
3296.99
3266.64
3237.72
3210.36
3184.67
3160.71
3138.52
3118.1
3099.44
3082.53
3067.32
3053.77
3041.85
3031.5
3022.67
3015.3
3009.34
3004.75
3001.46
2999.43
2998.63
2999.03
3000.58
3003.27
3007.1
3012.09
3018.27
3025.68
3034.37
3044.39
3055.8
3068.63
3082.93
3098.73
3116.06
3134.92
3155.35
3177.32
3200.83
3225.82
3252.22
3279.93
3308.8
3338.62
3369.12
3402.7
3434.16
3465.65
3496.8
3527.22
3556.49
3584.24
3610.03
3633.46
3654.13
3671.66
3685.69
3695.92
3702.1
3704.03
3701.57
3695.01
3684.14
3669.15
3650.29
3627.9
3602.42
3574.29
3544
3512.06
3478.98
3445.22
3411.23
3377.41
3344.18
3314.98
3284.28
3254.94
3227.2
3201.18
3176.97
3154.56
3133.94
3115.04
3097.78
3082.05
3067.75
3054.77
3043.02
3032.43
3022.96
3014.58
3007.31
3001.18
2996.24
2992.57
2990.25
2989.37
2990.01
2992.31
2996.34
3002.14
3009.8
3019.37
3030.9
3044.4
3059.89
3077.36
3096.75
3118.01
3141.05
3165.75
3191.97
3219.51
3248.19
3277.79
3308.14
3339.04
3369.93
3400.65
3430.91
3460.34
3488.6
3515.41
3540.46
3563.47
3584.17
3602.33
3617.72
3630.14
3639.35
3162.32
3133.37
3104.77
3077.21
3051.06
3026.48
3003.62
2982.52
2963.21
2945.69
2929.94
2915.91
2903.57
2892.84
2883.7
2876.08
2869.95
2865.27
2862.02
2860.2
2859.77
2860.73
2863.1
2866.89
2872.13
2878.86
2887.12
2896.96
2908.45
2921.62
2936.55
2953.28
2971.84
2992.27
3014.57
3038.74
3064.74
3092.5
3121.91
3152.84
3185.06
3218.35
3252.42
3286.96
3321.68
3356.18
3390.05
3422.91
3454.35
3483.94
3511.3
3536.08
3557.94
3576.59
3591.77
3603.29
3610.99
3614.78
3613.95
3609.16
3600.46
3587.96
3571.83
3552.32
3529.68
3504.23
3476.33
3446.38
3414.74
3381.84
3348.08
3313.85
3279.52
3245.54
3212.81
3180.45
3149.11
3119.02
3090.38
3063.32
3037.96
3014.38
2992.61
2972.7
2954.67
2938.49
2924.18
2911.71
2901.06
2892.18
2885.03
2879.55
2875.69
2873.4
2872.59
2873.22
2875.26
2878.67
2883.44
2889.56
2897.05
2905.93
2916.22
2927.98
2941.22
2956
2972.34
2990.26
3009.78
3030.89
3053.59
3077.83
3103.56
3130.69
3159.13
3188.74
3219.37
3250.82
3282.85
3315.24
3347.68
3379.89
3411.51
3442.19
3471.56
3499.22
3524.8
3547.9
3568.18
3585.29
3598.94
3608.88
3614.92
3616.91
3614.8
3608.61
3598.37
3584.23
3566.39
3545.11
3520.7
3493.53
3463.99
3432.51
3399.54
3365.52
3330.93
3296.19
3261.74
3227.95
3195.17
3163.69
3133.74
3105.49
3079.07
3054.54
3031.94
3011.28
2992.52
2975.63
2960.55
2947.21
2935.56
2925.51
2917
2909.96
2904.3
2899.99
2896.95
2895.15
2894.57
2895.17
2896.94
2899.89
2904.01
2909.33
2915.87
2923.66
2932.74
2943.15
2954.93
2968.14
2982.81
2999
3016.76
3036.1
3057.06
3079.63
3103.8
3129.51
3156.68
3185.21
3214.96
3245.76
3277.45
3309.66
3342.14
3374.56
3406.53
3437.67
3467.57
3495.79
3521.92
3545.55
3566.29
3583.79
3597.72
3607.82
3613.88
3615.76
3613.41
3606.88
3596.21
3581.6
3563.29
3541.6
3516.9
3489.61
3460.17
3429.02
3396.6
3363.34
3329.66
3295.98
3262.67
3230.05
3198.42
3168.03
3139.08
3111.71
3086.01
3062.06
3039.87
3019.46
3000.82
2983.92
2968.73
2955.2
2943.3
2932.97
2924.16
2916.8
2910.86
2906.28
2903
2900.99
2900.2
2900.6
2902.16
2904.85
2908.67
2913.65
2919.82
2927.22
2935.89
2945.9
2957.29
2970.1
2984.39
3000.17
3017.49
3036.35
3056.76
3078.74
3102.25
3127.25
3153.67
3181.41
3210.32
3240.18
3270.68
3304.46
3335.93
3367.51
3398.77
3429.29
3458.68
3486.54
3512.46
3536.01
3556.8
3574.44
3588.58
3598.89
3605.14
3607.12
3604.69
3598.08
3587.15
3572.06
3553.09
3530.57
3504.93
3476.65
3446.21
3414.12
3380.91
3347.02
3312.93
3279.04
3245.79
3216.3
3185.61
3156.26
3128.51
3102.5
3078.29
3055.91
3035.31
3016.44
2999.22
2983.53
2969.26
2956.31
2944.58
2934.01
2924.54
2916.16
2908.88
2902.74
2897.79
2894.1
2891.75
2890.85
2891.46
2893.74
2897.74
2903.53
2911.17
2920.72
2932.23
2945.72
2961.21
2978.68
2998.08
3019.35
3042.41
3067.14
3093.4
3120.98
3149.71
3179.37
3209.78
3240.74
3271.72
3302.53
3332.89
3362.41
3390.77
3417.68
3442.82
3465.92
3486.7
3504.93
3520.4
3532.87
3542.12
3063.72
3034.71
3006.07
2978.48
2952.31
2927.73
2904.87
2883.78
2864.49
2846.99
2831.26
2817.26
2804.93
2794.23
2785.1
2777.5
2771.38
2766.72
2763.48
2761.66
2761.22
2762.19
2764.55
2768.33
2773.55
2780.26
2788.5
2798.33
2809.78
2822.94
2837.84
2854.55
2873.1
2893.51
2915.8
2939.97
2965.98
2993.75
3023.19
3054.16
3086.45
3119.81
3153.96
3188.6
3223.43
3258.06
3292.06
3325.07
3356.65
3386.38
3413.88
3438.78
3460.76
3479.51
3494.77
3506.35
3514.1
3517.9
3517.07
3512.25
3503.5
3490.93
3474.71
3455.09
3432.33
3406.74
3378.71
3348.61
3316.83
3283.8
3249.91
3215.56
3181.14
3147.07
3114.24
3081.82
3050.44
3020.31
2991.65
2964.57
2939.21
2915.62
2893.86
2873.96
2855.93
2839.77
2825.48
2813.03
2802.39
2793.52
2786.39
2780.93
2777.1
2774.82
2774.03
2774.67
2776.72
2780.13
2784.9
2791.01
2798.49
2807.36
2817.64
2829.38
2842.61
2857.37
2873.69
2891.6
2911.11
2932.22
2954.91
2979.16
3004.9
3032.06
3060.53
3090.17
3120.85
3152.36
3184.47
3216.94
3249.48
3281.79
3313.53
3344.34
3373.84
3401.64
3427.36
3450.6
3471
3488.22
3501.96
3511.97
3518.06
3520.08
3517.96
3511.73
3501.44
3487.21
3469.27
3447.86
3423.32
3396
3366.3
3334.67
3301.54
3267.38
3232.65
3197.79
3163.22
3129.35
3096.5
3064.96
3034.97
3006.7
2980.27
2955.74
2933.16
2912.51
2893.78
2876.91
2861.86
2848.56
2836.93
2826.91
2818.43
2811.4
2805.77
2801.47
2798.45
2796.67
2796.09
2796.69
2798.46
2801.4
2805.52
2810.83
2817.36
2825.14
2834.2
2844.59
2856.36
2869.54
2884.19
2900.36
2918.1
2937.43
2958.38
2980.95
3005.12
3030.84
3058.04
3086.6
3116.4
3147.25
3179.02
3211.32
3243.9
3276.42
3308.52
3339.8
3369.84
3398.21
3424.49
3448.26
3469.13
3486.75
3500.78
3510.95
3517.06
3518.97
3516.61
3510.03
3499.29
3484.58
3466.15
3444.32
3419.47
3392.03
3362.43
3331.13
3298.57
3265.18
3231.38
3197.58
3164.17
3131.47
3099.78
3069.35
3040.37
3012.98
2987.27
2963.32
2941.14
2920.75
2902.12
2885.24
2870.07
2856.57
2844.68
2834.38
2825.58
2818.25
2812.32
2807.76
2804.5
2802.5
2801.72
2802.13
2803.69
2806.38
2810.2
2815.17
2821.32
2828.7
2837.36
2847.35
2858.71
2871.51
2885.78
2901.55
2918.85
2937.7
2958.11
2980.08
3003.59
3028.61
3055.06
3082.83
3111.79
3141.71
3172.24
3206.14
3237.67
3269.36
3300.73
3331.38
3360.9
3388.9
3414.96
3438.65
3459.58
3477.36
3491.61
3502.01
3508.34
3510.37
3507.98
3501.32
3490.31
3475.12
3456.02
3433.34
3407.54
3379.08
3348.45
3316.2
3282.83
3248.81
3214.59
3180.62
3147.34
3117.55
3086.87
3057.51
3029.75
3003.73
2979.54
2957.17
2936.61
2917.78
2900.59
2884.94
2870.71
2857.8
2846.1
2835.54
2826.08
2817.7
2810.41
2804.25
2799.28
2795.57
2793.2
2792.27
2792.85
2795.11
2799.08
2804.84
2812.46
2821.99
2833.49
2846.97
2862.45
2879.91
2899.32
2920.61
2943.69
2968.45
2994.75
3022.39
3051.17
3080.9
3111.38
3142.42
3173.49
3204.41
3234.87
3264.51
3292.98
3320
3345.25
3368.45
3389.33
3407.64
3423.19
3435.72
3445.03
2965.06
2935.98
2907.3
2879.67
2853.48
2828.9
2806.04
2784.96
2765.69
2748.21
2732.51
2718.53
2706.23
2695.55
2686.45
2678.86
2672.76
2668.11
2664.88
2663.06
2662.63
2663.59
2665.94
2669.71
2674.92
2681.61
2689.83
2699.62
2711.05
2724.18
2739.06
2755.74
2774.27
2794.66
2816.94
2841.11
2867.12
2894.91
2924.39
2955.41
2987.77
3021.21
3055.45
3090.21
3125.17
3159.94
3194.09
3227.26
3259
3288.89
3316.54
3341.59
3363.69
3382.56
3397.91
3409.56
3417.35
3421.17
3420.35
3415.49
3406.69
3394.03
3377.71
3357.96
3335.06
3309.33
3281.14
3250.88
3218.94
3185.76
3151.73
3117.25
3082.71
3048.55
3015.62
2983.13
2951.69
2921.53
2892.83
2865.74
2840.37
2816.78
2795.03
2775.14
2757.12
2740.97
2726.7
2714.27
2703.64
2694.8
2687.69
2682.26
2678.44
2676.19
2675.41
2676.07
2678.12
2681.54
2686.3
2692.41
2699.88
2708.73
2718.99
2730.71
2743.92
2758.67
2774.97
2792.87
2812.37
2833.47
2856.17
2880.42
2906.18
2933.36
2961.86
2991.55
3022.29
3053.87
3086.06
3118.62
3151.27
3183.7
3215.57
3246.53
3276.18
3304.13
3330
3353.39
3373.93
3391.28
3405.13
3415.22
3421.36
3423.4
3421.28
3415.01
3404.65
3390.33
3372.27
3350.72
3326.02
3298.53
3268.67
3236.86
3203.56
3169.24
3134.35
3099.35
3064.66
3030.68
2997.74
2966.15
2936.11
2907.82
2881.38
2856.86
2834.29
2813.67
2794.96
2778.12
2763.1
2749.83
2738.24
2728.25
2719.79
2712.8
2707.19
2702.91
2699.9
2698.13
2697.56
2698.17
2699.94
2702.88
2706.99
2712.29
2718.8
2726.56
2735.61
2745.98
2757.72
2770.88
2785.51
2801.66
2819.37
2838.69
2859.63
2882.19
2906.37
2932.11
2959.33
2987.93
3017.77
3048.68
3080.54
3112.94
3145.63
3178.28
3210.53
3241.96
3272.16
3300.7
3327.14
3351.07
3372.09
3389.84
3403.98
3414.25
3420.41
3422.34
3419.97
3413.34
3402.53
3387.7
3369.13
3347.15
3322.13
3294.51
3264.74
3233.27
3200.54
3167
3133.07
3099.15
3065.63
3032.83
3001.07
2970.59
2941.58
2914.17
2888.45
2864.5
2842.34
2821.96
2803.35
2786.49
2771.34
2757.86
2746
2735.72
2726.95
2719.63
2713.73
2709.18
2705.94
2703.96
2703.2
2703.62
2705.18
2707.87
2711.68
2716.64
2722.78
2730.14
2738.77
2748.74
2760.08
2772.86
2787.11
2802.86
2820.15
2838.98
2859.38
2881.35
2904.87
2929.9
2956.38
2984.19
3013.2
3043.19
3073.81
3107.74
3139.38
3171.2
3202.71
3233.5
3263.17
3291.33
3317.54
3341.39
3362.47
3380.39
3394.77
3405.3
3411.71
3413.8
3411.45
3404.73
3393.64
3378.33
3359.08
3336.23
3310.23
3281.57
3250.75
3218.3
3184.75
3150.57
3116.23
3082.16
3048.82
3018.75
2988.05
2958.67
2930.9
2904.88
2880.7
2858.36
2837.83
2819.04
2801.9
2786.3
2772.11
2759.23
2747.56
2737.02
2727.57
2719.19
2711.9
2705.72
2700.73
2696.99
2694.59
2693.63
2694.18
2696.4
2700.35
2706.08
2713.67
2723.19
2734.66
2748.13
2763.61
2781.07
2800.48
2821.78
2844.89
2869.69
2896.04
2923.73
2952.58
2982.38
3012.94
3044.07
3075.25
3106.28
3136.87
3166.63
3195.23
3222.37
3247.74
3271.05
3292.04
3310.46
3326.09
3338.7
3348.06
2866.33
2837.19
2808.45
2780.78
2754.57
2729.98
2707.13
2686.06
2666.81
2649.36
2633.68
2619.73
2607.46
2596.81
2587.73
2580.16
2574.08
2569.44
2566.22
2564.41
2563.97
2564.93
2567.27
2571.03
2576.22
2582.89
2591.08
2600.85
2612.25
2625.35
2640.2
2656.86
2675.35
2695.73
2718
2742.16
2768.19
2796
2825.52
2856.59
2889.02
2922.55
2956.9
2991.78
3026.88
3061.81
3096.13
3129.47
3161.4
3191.46
3219.28
3244.49
3266.75
3285.74
3301.2
3312.92
3320.76
3324.59
3323.77
3318.88
3310.02
3297.27
3280.83
3260.95
3237.9
3211.99
3183.63
3153.19
3121.08
3087.72
3053.54
3018.92
2984.25
2949.97
2916.93
2884.38
2852.88
2822.67
2793.94
2766.83
2741.45
2717.86
2696.11
2676.23
2658.23
2642.1
2627.84
2615.43
2604.83
2596.01
2588.93
2583.52
2579.73
2577.49
2576.73
2577.41
2579.47
2582.89
2587.65
2593.76
2601.21
2610.04
2620.29
2631.99
2645.18
2659.9
2676.19
2694.07
2713.55
2734.65
2757.35
2781.61
2807.38
2834.59
2863.13
2892.87
2923.66
2955.32
2987.6
3020.27
3053.04
3085.61
3117.63
3148.74
3178.56
3206.69
3232.73
3256.29
3276.98