/*--------------------------------*- C++ -*----------------------------------*\
| =========                 |                                                 |
| \\      /  F ield         | OpenFOAM: The Open Source CFD Toolbox           |
|  \\    /   O peration     | Version:  3.0.1                                 |
|   \\  /    A nd           | Web:      www.OpenFOAM.org                      |
|    \\/     M anipulation  |                                                 |
\*---------------------------------------------------------------------------*/
FoamFile
{
    version     2.0;
    format      ascii;
    class       surfaceScalarField;
    location    "83.2";
    object      phi;
}
// * * * * * * * * * * * * * * * * * * * * * * * * * * * * * * * * * * * * * //

dimensions      [0 3 -1 0 0 0 0];

internalField   nonuniform List<scalar> 
42423
(
-5.27816e-05
-1.44895e-05
-3.70523e-05
-1.57294e-05
-2.03181e-05
-1.67342e-05
-2.7334e-06
-1.75848e-05
1.55215e-05
-1.8255e-05
3.42064e-05
-1.86849e-05
5.33832e-05
-1.91768e-05
7.26393e-05
-1.92562e-05
9.16564e-05
-1.90171e-05
0.000110302
-1.86456e-05
0.000128338
-1.80361e-05
0.000145313
-1.69746e-05
0.000161092
-1.57795e-05
0.000175424
-1.43318e-05
0.000188083
-1.26589e-05
0.000198799
-1.07166e-05
0.000207302
-8.50263e-06
0.000213459
-6.15714e-06
0.000217162
-3.70304e-06
0.00021836
-1.19822e-06
0.000217058
1.3023e-06
0.000213127
3.93071e-06
0.000206661
6.46599e-06
0.000197927
8.73421e-06
0.000186982
1.09445e-05
0.000174258
1.2724e-05
0.000159743
1.45152e-05
0.000143699
1.60437e-05
0.000126537
1.71626e-05
0.000108475
1.8062e-05
8.96914e-05
1.87833e-05
7.0529e-05
1.91624e-05
5.11655e-05
1.93635e-05
3.20019e-05
1.91636e-05
1.31041e-05
1.88978e-05
-5.3926e-06
1.84967e-05
-2.32834e-05
1.78908e-05
-4.04819e-05
1.71985e-05
-5.68492e-05
1.63673e-05
-7.23196e-05
1.54705e-05
-8.68651e-05
1.45455e-05
-0.000100438
1.35726e-05
-0.00011303
1.2592e-05
-0.000124617
1.15875e-05
-0.00013523
1.06131e-05
-0.000144882
9.652e-06
-0.000153571
8.68859e-06
-0.000161335
7.76433e-06
-0.000168211
6.87559e-06
-0.000174185
5.97456e-06
-0.000179294
5.109e-06
-0.00018357
4.27576e-06
-0.000187038
3.46758e-06
-0.000189727
2.68958e-06
-0.000191633
1.90598e-06
-0.000192723
1.08985e-06
-0.000193119
3.96187e-07
-0.00019265
-4.69579e-07
-0.000191326
-1.32387e-06
-0.000189207
-2.11879e-06
-0.000186199
-3.00851e-06
-0.000182476
-3.72267e-06
-0.000177887
-4.58859e-06
-0.000172374
-5.51376e-06
-0.000166068
-6.30559e-06
-0.000158954
-7.11445e-06
-0.000150812
-8.14156e-06
-0.000141828
-8.98418e-06
-0.000131872
-9.95539e-06
-0.000120988
-1.08848e-05
-0.000109256
-1.17314e-05
-9.66015e-05
-1.26548e-05
-8.31315e-05
-1.34701e-05
-6.88907e-05
-1.42408e-05
-5.38401e-05
-1.50506e-05
-3.81034e-05
-1.57367e-05
-2.16676e-05
-1.64358e-05
-4.60415e-06
-1.70635e-05
1.27777e-05
-1.73819e-05
3.05171e-05
-1.77394e-05
4.84899e-05
-1.79728e-05
6.65407e-05
-1.80508e-05
8.45287e-05
-1.79881e-05
0.000102262
-1.77335e-05
0.000119593
-1.73307e-05
0.00013633
-1.67367e-05
0.000152282
-1.59522e-05
0.000167202
-1.49203e-05
0.000180755
-1.35534e-05
0.000192684
-1.1929e-05
0.000202663
-9.97828e-06
0.000210458
-7.7953e-06
0.000215868
-5.40999e-06
0.000218777
-2.90914e-06
0.000219163
-3.85942e-07
0.000217002
2.16101e-06
0.00021225
4.7516e-06
0.000205056
7.19433e-06
0.000195587
9.46843e-06
0.000183984
1.16033e-05
0.000170457
1.35272e-05
0.000155224
1.5233e-05
0.000138534
1.66898e-05
0.000120583
1.79512e-05
0.000101691
1.8892e-05
8.21563e-05
1.95346e-05
6.22509e-05
1.99055e-05
4.22843e-05
1.99666e-05
2.24846e-05
1.97997e-05
3.10292e-06
1.93817e-05
-1.56591e-05
1.8762e-05
-3.36594e-05
1.80003e-05
-5.07643e-05
1.71049e-05
-6.68029e-05
1.60386e-05
-8.18338e-05
1.50309e-05
-9.56536e-05
1.38197e-05
-0.000108392
1.27385e-05
-0.000119896
1.15041e-05
-0.000130285
1.03893e-05
-0.000139642
9.35683e-06
-0.000147836
8.19391e-06
-0.000154993
7.15733e-06
-0.000161235
6.24182e-06
-0.000166443
5.20733e-06
-0.000170863
4.42072e-06
-0.000174354
3.49039e-06
-0.000177128
2.77384e-06
-0.000179059
1.93111e-06
-0.000180308
1.24905e-06
-0.000180862
5.53938e-07
-0.000180768
-9.32817e-08
-0.000179997
-7.71397e-07
-0.000178623
-1.37409e-06
-0.000176735
-1.88765e-06
-0.000174207
-2.52774e-06
-0.000171104
-3.10336e-06
-0.000167412
-3.69209e-06
-0.000163099
-4.31353e-06
-0.000158133
-4.96546e-06
-0.000152494
-5.6387e-06
-0.000146113
-6.3812e-06
-0.000139092
-7.02113e-06
-0.000131265
-7.82719e-06
-0.000122624
-8.64107e-06
-0.000113156
-9.46768e-06
-0.000102774
-1.03823e-05
-9.16244e-05
-1.11495e-05
-7.95511e-05
-1.20733e-05
-6.65915e-05
-1.29596e-05
-5.27841e-05
-1.38074e-05
-3.81364e-05
-1.46478e-05
-2.28022e-05
-1.53341e-05
-6.76805e-06
-1.60342e-05
9.85461e-06
-1.66227e-05
2.6944e-05
-1.70895e-05
4.43373e-05
-1.73932e-05
6.18843e-05
-1.75471e-05
7.93874e-05
-1.75031e-05
9.66261e-05
-1.72388e-05
0.000113369
-1.67432e-05
0.00012938
-1.60106e-05
0.000144397
-1.50175e-05
0.000158179
-1.3782e-05
0.000170421
-1.22421e-05
0.00018093
-1.05085e-05
0.000189468
-8.53801e-06
0.000195866
-6.3978e-06
0.000199953
-4.08694e-06
0.000201642
-1.68935e-06
0.00020088
7.61972e-07
0.00019763
3.25034e-06
0.000191909
5.7204e-06
0.000183929
7.98029e-06
0.000173779
1.015e-05
0.000161626
1.21529e-05
0.000147762
1.38638e-05
0.000132396
1.53664e-05
0.000115813
1.65824e-05
9.83206e-05
1.74926e-05
8.02378e-05
1.80828e-05
6.18308e-05
1.8407e-05
4.3313e-05
1.85178e-05
2.49001e-05
1.84129e-05
6.84593e-06
1.80541e-05
-1.07141e-05
1.756e-05
-2.76192e-05
1.69051e-05
-4.38485e-05
1.62294e-05
-5.91824e-05
1.53339e-05
-7.36082e-05
1.44258e-05
-8.7074e-05
1.34658e-05
-9.94894e-05
1.24154e-05
-0.000110929
1.14394e-05
-0.00012132
1.03908e-05
-0.000130749
9.42898e-06
-0.000139348
8.5995e-06
-0.000146998
7.64988e-06
-0.000153825
6.82716e-06
-0.000159875
6.04995e-06
-0.000165121
5.24548e-06
-0.000169613
4.49282e-06
-0.000173304
3.69057e-06
-0.000176262
2.95834e-06
-0.000178486
2.22415e-06
-0.000179951
1.46435e-06
-0.000180774
8.231e-07
-0.000180859
8.53365e-08
-0.000180269
-5.9074e-07
-0.000179034
-1.23448e-06
-0.00017719
-1.84358e-06
-0.000174813
-2.37794e-06
-0.00017191
-2.9025e-06
-0.000168483
-3.42727e-06
-0.000164549
-3.93375e-06
-0.000160036
-4.51276e-06
-0.000154941
-5.09552e-06
-0.000149182
-5.75841e-06
-0.000142751
-6.4314e-06
-0.000135524
-7.2268e-06
-0.000127518
-8.00572e-06
-0.000118703
-8.81521e-06
-0.000109091
-9.61191e-06
-9.86454e-05
-1.0446e-05
-8.74376e-05
-1.12078e-05
-7.54193e-05
-1.20183e-05
-6.25798e-05
-1.28395e-05
-4.90851e-05
-1.34948e-05
-3.48524e-05
-1.42327e-05
-1.99541e-05
-1.48983e-05
-4.40684e-06
-1.55473e-05
1.15436e-05
-1.59505e-05
2.79187e-05
-1.63751e-05
4.45593e-05
-1.66406e-05
6.12748e-05
-1.67156e-05
7.79177e-05
-1.66428e-05
9.42197e-05
-1.6302e-05
0.000110027
-1.5807e-05
0.000124999
-1.49721e-05
0.000138975
-1.39768e-05
0.000151619
-1.2644e-05
0.00016274
-1.11209e-05
0.000172007
-9.26684e-06
0.000179317
-7.31003e-06
0.000184452
-5.13522e-06
0.000187241
-2.78837e-06
0.000187699
-4.5881e-07
0.000185768
1.93126e-06
0.000181344
4.42445e-06
0.000174635
6.70897e-06
0.000165737
8.89732e-06
0.000154849
1.08881e-05
0.000142183
1.26662e-05
0.000127954
1.42287e-05
0.000112442
1.5512e-05
9.58917e-05
1.65506e-05
7.85755e-05
1.73162e-05
6.07891e-05
1.77864e-05
4.27574e-05
1.80317e-05
2.46842e-05
1.80731e-05
6.81986e-06
1.78643e-05
-1.06815e-05
1.75013e-05
-2.76702e-05
1.69887e-05
-4.39867e-05
1.63165e-05
-5.95543e-05
1.55676e-05
-7.4278e-05
1.47237e-05
-8.80377e-05
1.37597e-05
-0.000100809
1.27714e-05
-0.000112618
1.18085e-05
-0.000123408
1.07904e-05
-0.000133083
9.67483e-06
-0.000141748
8.66488e-06
-0.000149421
7.67291e-06
-0.000156095
6.67408e-06
-0.000161682
5.58715e-06
-0.000166396
4.71395e-06
-0.000170194
3.79839e-06
-0.000172997
2.80312e-06
-0.000174977
1.97963e-06
-0.000176085
1.10768e-06
-0.000176322
2.37602e-07
-0.000175658
-6.64703e-07
-0.000174176
-1.48115e-06
-0.000171868
-2.30799e-06
-0.000168934
-2.93399e-06
-0.000165399
-3.5355e-06
-0.000161344
-4.05478e-06
-0.000156965
-4.37894e-06
-0.000152321
-4.64414e-06
-0.000147346
-4.97488e-06
-0.000142193
-5.15274e-06
-0.000136637
-5.55666e-06
-0.000130869
-5.76737e-06
-0.00012487
-5.99896e-06
-0.000118392
-6.47884e-06
-0.000111408
-6.98388e-06
-0.000103994
-7.41381e-06
-9.59197e-05
-8.07432e-06
-8.70638e-05
-8.8559e-06
-7.73779e-05
-9.68591e-06
-6.67316e-05
-1.06463e-05
-5.52014e-05
-1.15302e-05
-4.26952e-05
-1.25063e-05
-2.8964e-05
-1.37312e-05
-1.44031e-05
-1.4561e-05
1.13593e-06
-1.5539e-05
1.75414e-05
-1.64055e-05
3.44724e-05
-1.69311e-05
5.20227e-05
-1.75503e-05
6.98436e-05
-1.78209e-05
8.77605e-05
-1.79169e-05
0.000105564
-1.7804e-05
0.000122813
-1.7249e-05
0.000139272
-1.64582e-05
0.00015474
-1.54686e-05
0.000168835
-1.40946e-05
0.000181374
-1.25395e-05
0.000192078
-1.07036e-05
0.000200801
-8.72284e-06
0.000207418
-6.61784e-06
0.000211735
-4.31699e-06
0.000213753
-2.01726e-06
0.000213344
4.08757e-07
0.0002105
2.84352e-06
0.000205357
5.14325e-06
0.000198077
7.28054e-06
0.000188963
9.11354e-06
0.000178161
1.08021e-05
0.00016587
1.22906e-05
0.000152371
1.34997e-05
0.000137999
1.43717e-05
0.000122765
1.52339e-05
0.000107102
1.56632e-05
9.11976e-05
1.59041e-05
7.50972e-05
1.61004e-05
5.9038e-05
1.60592e-05
4.32441e-05
1.57939e-05
2.77396e-05
1.55045e-05
1.25626e-05
1.5177e-05
-2.13033e-06
1.46929e-05
-1.6313e-05
1.41826e-05
-2.99587e-05
1.36458e-05
-4.30101e-05
1.30513e-05
-5.54185e-05
1.24084e-05
-6.71955e-05
1.17769e-05
-7.8292e-05
1.10965e-05
-8.87279e-05
1.0436e-05
-9.84656e-05
9.73761e-06
-0.000107476
9.01e-06
-0.000115766
8.29035e-06
-0.000123299
7.5334e-06
-0.000130054
6.7543e-06
-0.00013603
5.97629e-06
-0.000141215
5.18516e-06
-0.000145609
4.39432e-06
-0.000149194
3.58426e-06
-0.000151962
2.76874e-06
-0.000153924
1.96172e-06
1.14521e-06
-5.28187e-05
-2.89795e-05
-3.7087e-05
-3.14612e-05
-2.03532e-05
-3.34681e-05
-2.76221e-06
-3.51759e-05
1.54997e-05
-3.65169e-05
3.41948e-05
-3.73801e-05
5.33811e-05
-3.83632e-05
7.26487e-05
-3.85239e-05
9.16824e-05
-3.80509e-05
0.000110348
-3.73115e-05
0.000128399
-3.60868e-05
0.000145389
-3.39645e-05
0.000161181
-3.1572e-05
0.000175533
-2.86835e-05
0.000188198
-2.53247e-05
0.000198911
-2.14288e-05
0.000207422
-1.70136e-05
0.000213587
-1.23227e-05
0.000217303
-7.41869e-06
0.000218505
-2.40065e-06
0.000217183
2.62466e-06
0.000213247
7.8666e-06
0.000206777
1.29353e-05
0.000198037
1.74745e-05
0.000187081
2.1901e-05
0.000174345
2.54596e-05
0.00015982
2.90401e-05
0.000143762
3.21021e-05
0.000126587
3.43377e-05
0.000108515
3.61337e-05
8.97194e-05
3.75785e-05
7.05461e-05
3.83356e-05
5.11712e-05
3.87384e-05
3.19963e-05
3.83385e-05
1.30886e-05
3.78055e-05
-5.41154e-06
3.69968e-05
-2.33082e-05
3.57875e-05
-4.0512e-05
3.44022e-05
-5.68856e-05
3.27409e-05
-7.2362e-05
3.09468e-05
-8.69095e-05
2.9093e-05
-0.000100483
2.71461e-05
-0.000113081
2.51901e-05
-0.000124673
2.31789e-05
-0.000135283
2.1224e-05
-0.000144938
1.9306e-05
-0.000153632
1.7383e-05
-0.000161395
1.55269e-05
-0.000168272
1.37528e-05
-0.000174258
1.19605e-05
-0.000179371
1.02225e-05
-0.000183646
8.55043e-06
-0.000187104
6.92547e-06
-0.000189797
5.38319e-06
-0.0001917
3.80857e-06
-0.000192792
2.18201e-06
-0.000193187
7.90892e-07
-0.000192719
-9.37253e-07
-0.0001914
-2.64326e-06
-0.000189278
-4.24014e-06
-0.000186277
-6.01015e-06
-0.000182546
-7.454e-06
-0.000177959
-9.17499e-06
-0.000172444
-1.10287e-05
-0.000166139
-1.26104e-05
-0.000159027
-1.42268e-05
-0.000150883
-1.62855e-05
-0.000141907
-1.79605e-05
-0.000131941
-1.99208e-05
-0.000121054
-2.17718e-05
-0.000109319
-2.34672e-05
-9.66586e-05
-2.5315e-05
-8.31898e-05
-2.69389e-05
-6.89431e-05
-2.84876e-05
-5.38877e-05
-3.0106e-05
-3.81453e-05
-3.14791e-05
-2.16854e-05
-3.28958e-05
-4.63135e-06
-3.41176e-05
1.27523e-05
-3.47656e-05
3.05092e-05
-3.54963e-05
4.84936e-05
-3.59572e-05
6.65508e-05
-3.61081e-05
8.45575e-05
-3.59948e-05
0.000102294
-3.547e-05
0.000119649
-3.46855e-05
0.000136403
-3.34912e-05
0.000152366
-3.19155e-05
0.000167308
-2.98624e-05
0.000180881
-2.71258e-05
0.000192834
-2.38824e-05
0.000202839
-1.99834e-05
0.000210654
-1.56098e-05
0.000216073
-1.08299e-05
0.000218986
-5.82174e-06
0.000219363
-7.63263e-07
0.000217176
4.34844e-06
0.000212419
9.50869e-06
0.000205213
1.44e-05
0.000195734
1.89475e-05
0.000184119
2.32178e-05
0.000170575
2.70716e-05
0.000155322
3.0486e-05
0.000138606
3.34052e-05
0.000120626
3.59313e-05
0.000101721
3.77972e-05
8.21767e-05
3.9079e-05
6.22494e-05
3.98328e-05
4.226e-05
3.9956e-05
2.24447e-05
3.9615e-05
3.04644e-06
3.87799e-05
-1.57273e-05
3.75357e-05
-3.3735e-05
3.60081e-05
-5.0859e-05
3.42288e-05
-6.69009e-05
3.20805e-05
-8.19387e-05
3.00688e-05
-9.57736e-05
2.76546e-05
-0.000108509
2.54739e-05
-0.000120021
2.30157e-05
-0.000130416
2.07844e-05
-0.000139781
1.87224e-05
-0.000147991
1.64037e-05
-0.000155179
1.43454e-05
-0.000161393
1.24561e-05
-0.000166603
1.04166e-05
-0.000171031
8.84934e-06
-0.000174545
7.00387e-06
-0.000177306
5.53535e-06
-0.00017925
3.8746e-06
-0.000180507
2.50616e-06
-0.00018106
1.10705e-06
-0.000180975
-1.78237e-07
-0.000180218
-1.52828e-06
-0.000178837
-2.75502e-06
-0.000176958
-3.76712e-06
-0.000174377
-5.10895e-06
-0.000171342
-6.13808e-06
-0.000167653
-7.38089e-06
-0.0001633
-8.66668e-06
-0.000158386
-9.87981e-06
-0.000152746
-1.12783e-05
-0.000146413
-1.27138e-05
-0.000139344
-1.40905e-05
-0.000131513
-1.56587e-05
-0.000122874
-1.72795e-05
-0.0001134
-1.89421e-05
-0.000103009
-2.07727e-05
-9.18576e-05
-2.23013e-05
-7.97764e-05
-2.41545e-05
-6.68149e-05
-2.59212e-05
-5.29708e-05
-2.76515e-05
-3.83547e-05
-2.9264e-05
-2.29981e-05
-3.06908e-05
-6.95004e-06
-3.20823e-05
9.69923e-06
-3.3272e-05
2.67994e-05
-3.41897e-05
4.42209e-05
-3.48148e-05
6.17938e-05
-3.51201e-05
7.93077e-05
-3.5017e-05
9.65588e-05
-3.449e-05
0.000113318
-3.35021e-05
0.000129344
-3.20369e-05
0.000144384
-3.00577e-05
0.000158181
-2.7579e-05
0.000170441
-2.45027e-05
0.000180971
-2.10377e-05
0.000189542
-1.71089e-05
0.000195932
-1.27885e-05
0.000200023
-8.1778e-06
0.000201741
-3.40723e-06
0.000200965
1.53744e-06
0.000197703
6.51296e-06
0.000191977
1.14461e-05
0.000183992
1.59651e-05
0.000173841
2.03008e-05
0.00016168
2.43141e-05
0.000147805
2.77393e-05
0.000132416
3.07547e-05
0.000115823
3.31756e-05
9.83192e-05
3.49964e-05
8.0211e-05
3.61911e-05
6.17893e-05
3.68286e-05
4.32423e-05
3.70648e-05
2.48207e-05
3.68345e-05
6.75631e-06
3.61185e-05
-1.08119e-05
3.51282e-05
-2.77305e-05
3.38236e-05
-4.39596e-05
3.24585e-05
-5.93088e-05
3.06832e-05
-7.37441e-05
2.88611e-05
-8.72233e-05
2.6945e-05
-9.96498e-05
2.48419e-05
-0.000111088
2.28772e-05
-0.000121484
2.07874e-05
-0.000130946
1.88907e-05
-0.000139524
1.71774e-05
-0.000147187
1.53133e-05
-0.000154024
1.36642e-05
-0.000160071
1.20971e-05
-0.000165324
1.04985e-05
-0.00016982
8.98834e-06
-0.000173527
7.39805e-06
-0.000176451
5.88157e-06
-0.000178718
4.49099e-06
-0.000180154
2.90106e-06
-0.000181009
1.67753e-06
-0.000181077
1.53417e-07
-0.000180493
-1.17452e-06
-0.000179248
-2.47968e-06
-0.000177434
-3.65787e-06
-0.00017504
-4.77159e-06
-0.000172149
-5.79336e-06
-0.000168717
-6.85935e-06
-0.000164771
-7.87947e-06
-0.000160278
-9.00637e-06
-0.000155179
-1.01942e-05
-0.000149369
-1.15687e-05
-0.000142984
-1.28165e-05
-0.000135753
-1.4458e-05
-0.000127739
-1.60196e-05
-0.00011892
-1.76335e-05
-0.000109304
-1.9228e-05
-9.88524e-05
-2.08979e-05
-8.76264e-05
-2.24338e-05
-7.55966e-05
-2.40481e-05
-6.27787e-05
-2.56575e-05
-4.92586e-05
-2.70149e-05
-3.50092e-05
-2.84822e-05
-2.01017e-05
-2.98057e-05
-4.57427e-06
-3.10748e-05
1.14193e-05
-3.19441e-05
2.78133e-05
-3.27692e-05
4.44701e-05
-3.32974e-05
6.11988e-05
-3.34442e-05
7.78526e-05
-3.32967e-05
9.41747e-05
-3.26241e-05
0.000109986
-3.16182e-05
0.000124984
-2.99703e-05
0.000138967
-2.79596e-05
0.000151629
-2.53061e-05
0.000162768
-2.22603e-05
0.000172057
-1.85557e-05
0.000179369
-1.46219e-05
0.000184506
-1.02719e-05
0.000187292
-5.57474e-06
0.00018774
-9.0697e-07
0.000185786
3.88497e-06
0.000181373
8.83769e-06
0.000174658
1.34243e-05
0.000165756
1.77987e-05
0.000154859
2.17854e-05
0.000142167
2.53579e-05
0.000127943
2.8453e-05
0.000112418
3.10365e-05
9.58698e-05
3.30993e-05
7.85588e-05
3.46272e-05
6.07551e-05
3.55901e-05
4.27101e-05
3.60767e-05
2.463e-05
3.61533e-05
6.75847e-06
3.57358e-05
-1.07504e-05
3.50102e-05
-2.77388e-05
3.39771e-05
-4.4059e-05
3.26367e-05
-5.96285e-05
3.11371e-05
-7.43585e-05
2.94538e-05
-8.81241e-05
2.75252e-05
-0.000100896
2.55438e-05
-0.000112697
2.36095e-05
-0.000123491
2.15834e-05
-0.000133168
1.93527e-05
-0.000141831
1.73273e-05
-0.000149495
1.53372e-05
-0.000156173
1.33522e-05
-0.000161759
1.11729e-05
-0.000166463
9.41806e-06
-0.000170268
7.60294e-06
-0.000173077
5.61216e-06
-0.000175053
3.95628e-06
-0.000176161
2.21579e-06
-0.000176391
4.67604e-07
-0.000175724
-1.33233e-06
-0.000174241
-2.96364e-06
-0.000171927
-4.62202e-06
-0.000168991
-5.87039e-06
-0.000165453
-7.0737e-06
-0.000161384
-8.12345e-06
-0.000157009
-8.75418e-06
-0.000152358
-9.29511e-06
-0.000147383
-9.94945e-06
-0.00014224
-1.02962e-05
-0.00013668
-1.11167e-05
-0.000130911
-1.15362e-05
-0.000124917
-1.19926e-05
-0.000118435
-1.29611e-05
-0.000111455
-1.39637e-05
-0.000104046
-1.48234e-05
-9.59711e-05
-1.61489e-05
-8.71265e-05
-1.77005e-05
-7.74341e-05
-1.93784e-05
-6.67909e-05
-2.12895e-05
-5.5269e-05
-2.30521e-05
-4.27584e-05
-2.5017e-05
-2.90147e-05
-2.74748e-05
-1.44532e-05
-2.91225e-05
1.08912e-06
-3.10814e-05
1.75003e-05
-3.28167e-05
3.44415e-05
-3.38723e-05
5.2008e-05
-3.51169e-05
6.98355e-05
-3.56484e-05
8.77689e-05
-3.58504e-05
0.000105589
-3.5624e-05
0.000122851
-3.4511e-05
0.000139324
-3.29312e-05
0.000154808
-3.09531e-05
0.000168913
-2.81992e-05
0.000181473
-2.50997e-05
0.000192195
-2.14261e-05
0.000200921
-1.74482e-05
0.000207536
-1.32332e-05
0.000211852
-8.63285e-06
0.000213878
-4.04323e-06
0.000213461
8.25268e-07
0.000210608
5.69725e-06
0.000205462
1.02889e-05
0.000198173
1.45694e-05
0.000189052
1.82348e-05
0.000178238
2.16159e-05
0.000165938
2.45908e-05
0.000152425
2.70124e-05
0.000138044
2.87525e-05
0.000122798
3.04803e-05
0.000107125
3.13363e-05
9.12132e-05
3.18154e-05
7.51047e-05
3.22089e-05
5.90376e-05
3.21262e-05
4.32363e-05
3.15952e-05
2.77298e-05
3.10109e-05
1.25584e-05
3.03485e-05
-2.14817e-06
2.93995e-05
-1.63332e-05
2.83676e-05
-2.99803e-05
2.72929e-05
-4.30343e-05
2.61053e-05
-5.54449e-05
2.4819e-05
-6.72255e-05
2.35575e-05
-7.83242e-05
2.21953e-05
-8.87618e-05
2.08736e-05
-9.8501e-05
1.94769e-05
-0.000107512
1.80212e-05
-0.000115801
1.65795e-05
-0.000123334
1.50664e-05
-0.000130088
1.3508e-05
-0.000136064
1.19522e-05
-0.000141249
1.03699e-05
-0.000145643
8.78881e-06
-0.000149228
7.16902e-06
-0.000151997
5.53724e-06
-0.000153959
3.9244e-06
2.2873e-06
-5.28904e-05
-4.3473e-05
-3.71535e-05
-4.71981e-05
-2.04213e-05
-5.02003e-05
-2.81875e-06
-5.27786e-05
1.54631e-05
-5.47989e-05
3.41829e-05
-5.61e-05
5.33945e-05
-5.75749e-05
7.26866e-05
-5.78161e-05
9.17491e-05
-5.71135e-05
0.000110437
-5.59992e-05
0.000128509
-5.41594e-05
0.000145528
-5.09832e-05
0.000161347
-4.73915e-05
0.000175712
-4.30483e-05
0.000188393
-3.80058e-05
0.00019913
-3.21662e-05
0.000207666
-2.55494e-05
0.000213843
-1.85e-05
0.000217549
-1.11244e-05
0.000218743
-3.5949e-06
0.000217386
3.98207e-06
0.000213436
1.18168e-05
0.000206956
1.9415e-05
0.000198205
2.6225e-05
0.00018723
3.28764e-05
0.000174472
3.82171e-05
0.000159934
4.35781e-05
0.000143852
4.81841e-05
0.000126656
5.15336e-05
0.000108568
5.4222e-05
8.97524e-05
5.63942e-05
7.05607e-05
5.75273e-05
5.11684e-05
5.81307e-05
3.19723e-05
5.75346e-05
1.30459e-05
5.67318e-05
-5.46103e-06
5.55038e-05
-2.33684e-05
5.36948e-05
-4.05825e-05
5.16163e-05
-5.69627e-05
4.91211e-05
-7.24435e-05
4.64276e-05
-8.69972e-05
4.36467e-05
-0.000100573
4.07224e-05
-0.000113174
3.77907e-05
-0.000124762
3.47666e-05
-0.000135374
3.18358e-05
-0.000145028
2.89603e-05
-0.000153721
2.6076e-05
-0.000161486
2.32924e-05
-0.000168366
2.06328e-05
-0.000174348
1.79419e-05
-0.000179459
1.53335e-05
-0.000183744
1.28362e-05
-0.000187197
1.03779e-05
-0.000189887
8.07341e-06
-0.000191787
5.70823e-06
-0.000192877
3.27248e-06
-0.000193257
1.1709e-06
-0.000192781
-1.41361e-06
-0.000191467
-3.9574e-06
-0.000189344
-6.36309e-06
-0.000186344
-9.0095e-06
-0.000182608
-1.11904e-05
-0.000178028
-1.37548e-05
-0.000172516
-1.65413e-05
-0.000166212
-1.89144e-05
-0.000159103
-2.1335e-05
-0.000150958
-2.44311e-05
-0.000141986
-2.69329e-05
-0.000132021
-2.98851e-05
-0.000121128
-3.26648e-05
-0.00010939
-3.52054e-05
-9.67247e-05
-3.79804e-05
-8.3259e-05
-4.04046e-05
-6.90089e-05
-4.27377e-05
-5.39463e-05
-4.51687e-05
-3.81975e-05
-4.7228e-05
-2.1706e-05
-4.93874e-05
-4.6645e-06
-5.11591e-05
1.27226e-05
-5.21528e-05
3.04876e-05
-5.32614e-05
4.84833e-05
-5.3953e-05
6.65575e-05
-5.41824e-05
8.45894e-05
-5.40268e-05
0.000102334
-5.32146e-05
0.000119732
-5.20834e-05
0.000136479
-5.0238e-05
0.00015246
-4.78973e-05
0.00016743
-4.48325e-05
0.000181025
-4.07204e-05
0.000193004
-3.58611e-05
0.000203025
-3.00052e-05
0.000210858
-2.34424e-05
0.000216289
-1.62609e-05
0.000219206
-8.73912e-06
0.000219557
-1.11414e-06
0.000217329
6.57651e-06
0.000212547
1.42908e-05
0.000205335
2.16121e-05
0.000195831
2.84511e-05
0.000184219
3.48305e-05
0.000170611
4.0679e-05
0.000155327
4.57702e-05
0.000138581
5.01516e-05
0.000120566
5.39456e-05
0.000101641
5.67219e-05
8.20673e-05
5.86532e-05
6.21125e-05
5.97876e-05
4.2091e-05
5.99774e-05
2.22528e-05
5.94531e-05
2.83205e-06
5.82007e-05
-1.59688e-05
5.63366e-05
-3.39787e-05
5.4018e-05
-5.11196e-05
5.13697e-05
-6.72061e-05
4.81671e-05
-8.22038e-05
4.50665e-05
-9.60603e-05
4.15111e-05
-0.000108785
3.81989e-05
-0.000120312
3.45424e-05
-0.00013072
3.11919e-05
-0.000140059
2.80618e-05
-0.000148281
2.46256e-05
-0.000155483
2.15477e-05
-0.000161679
1.86516e-05
-0.000166936
1.56738e-05
-0.000171312
1.3225e-05
-0.000174838
1.05304e-05
-0.000177577
8.27369e-06
-0.000179528
5.82635e-06
-0.000180782
3.76032e-06
-0.000181347
1.67128e-06
-0.000181248
-2.76847e-07
-0.000180507
-2.26928e-06
-0.000179141
-4.12157e-06
-0.000177237
-5.67072e-06
-0.000174663
-7.68323e-06
-0.000171647
-9.15357e-06
-0.000167959
-1.10689e-05
-0.000163576
-1.305e-05
-0.000158684
-1.47715e-05
-0.000153048
-1.69143e-05
-0.000146733
-1.90287e-05
-0.000139643
-2.11804e-05
-0.000131791
-2.35113e-05
-0.00012318
-2.58906e-05
-0.000113696
-2.84254e-05
-0.000103368
-3.11012e-05
-9.21632e-05
-3.35061e-05
-8.00787e-05
-3.62391e-05
-6.71087e-05
-3.88912e-05
-5.32098e-05
-4.15504e-05
-3.86525e-05
-4.38214e-05
-2.32811e-05
-4.60622e-05
-7.21808e-06
-4.81454e-05
9.46793e-06
-4.9958e-05
2.65728e-05
-5.12946e-05
4.40456e-05
-5.22876e-05
6.16108e-05
-5.26853e-05
7.9146e-05
-5.25522e-05
9.64189e-05
-5.17629e-05
0.000113201
-5.0284e-05
0.000129246
-4.80821e-05
0.000144304
-4.5116e-05
0.00015812
-4.13949e-05
0.000170426
-3.68085e-05
0.000180955
-3.15668e-05
0.000189532
-2.56858e-05
0.000195944
-1.9201e-05
0.000200054
-1.22874e-05
0.000201782
-5.13586e-06
0.000200979
2.34056e-06
0.000197709
9.78349e-06
0.000191991
1.71642e-05
0.000183995
2.39604e-05
0.000173824
3.04722e-05
0.000161637
3.65013e-05
0.000147742
4.16338e-05
0.000132333
4.6164e-05
0.00011572
4.9788e-05
9.81873e-05
5.25295e-05
8.00632e-05
5.43151e-05
6.1599e-05
5.52928e-05
4.30181e-05
5.56457e-05
2.45958e-05
5.52568e-05
6.52101e-06
5.41933e-05
-1.10669e-05
5.27161e-05
-2.80168e-05
5.07735e-05
-4.42201e-05
4.86617e-05
-5.95926e-05
4.60556e-05
-7.4033e-05
4.33016e-05
-8.75064e-05
4.04183e-05
-9.99395e-05
3.7275e-05
-0.000111374
3.43121e-05
-0.000121784
3.11969e-05
-0.000131253
2.836e-05
-0.0001398
2.57244e-05
-0.000147475
2.29877e-05
-0.000154313
2.05028e-05
-0.000160338
1.81223e-05
-0.000165615
1.57749e-05
-0.000170078
1.3452e-05
-0.00017384
1.11597e-05
-0.00017675
8.79147e-06
-0.000179018
6.75962e-06
-0.00018045
4.33282e-06
-0.000181307
2.5348e-06
-0.000181317
1.62994e-07
-0.000180777
-1.7143e-06
-0.000179486
-3.77062e-06
-0.000177715
-5.42922e-06
-0.000175321
-7.16544e-06
-0.000172428
-8.68626e-06
-0.000168999
-1.0289e-05
-0.000164992
-1.18856e-05
-0.000160562
-1.34366e-05
-0.000155462
-1.52941e-05
-0.000149676
-1.73553e-05
-0.000143274
-1.92183e-05
-0.000136036
-2.16955e-05
-0.000128023
-2.40326e-05
-0.000119199
-2.64576e-05
-0.000109579
-2.8848e-05
-9.91228e-05
-3.13545e-05
-8.78967e-05
-3.36599e-05
-7.58531e-05
-3.60918e-05
-6.3058e-05
-3.84526e-05
-4.95268e-05
-4.05462e-05
-3.52674e-05
-4.27416e-05
-2.03421e-05
-4.47311e-05
-4.82615e-06
-4.65908e-05
1.11926e-05
-4.79629e-05
2.75961e-05
-4.91727e-05
4.42609e-05
-4.99623e-05
6.10131e-05
-5.01965e-05
7.76848e-05
-4.99685e-05
9.4034e-05
-4.89734e-05
0.000109859
-4.7443e-05
0.000124886
-4.49979e-05
0.000138891
-4.19644e-05
0.000151581
-3.79956e-05
0.000162724
-3.34032e-05
0.000172036
-2.78681e-05
0.00017935
-2.1936e-05
0.000184479
-1.54009e-05
0.000187295
-8.39046e-06
0.000187736
-1.34826e-06
0.000185756
5.8648e-06
0.000181354
1.324e-05
0.000174634
2.01439e-05
0.000165729
2.67038e-05
0.000154832
3.26828e-05
0.000142122
3.80678e-05
0.000127883
4.26913e-05
0.000112341
4.65788e-05
9.57876e-05
4.96526e-05
7.84922e-05
5.19225e-05
6.065e-05
5.34322e-05
4.25879e-05
5.41389e-05
2.45081e-05
5.4233e-05
6.62731e-06
5.36167e-05
-1.08875e-05
5.2525e-05
-2.78779e-05
5.09675e-05
-4.42008e-05
4.89596e-05
-5.97726e-05
4.67089e-05
-7.45073e-05
4.41885e-05
-8.82737e-05
4.12915e-05
-0.00010104
3.83106e-05
-0.000112828
3.53966e-05
-0.000123623
3.23787e-05
-0.000133301
2.90311e-05
-0.000141959
2.59845e-05
-0.000149607
2.29852e-05
-0.000156285
2.00302e-05
-0.000161869
1.67568e-05
-0.000166552
1.41013e-05
-0.000170367
1.1418e-05
-0.000173186
8.43098e-06
-0.000175154
5.92499e-06
-0.000176257
3.3187e-06
-0.000176471
6.81372e-07
-0.000175797
-2.00623e-06
-0.000174309
-4.45133e-06
-0.000171988
-6.94319e-06
-0.000169045
-8.81361e-06
-0.000165497
-1.06222e-05
-0.000161407
-1.22129e-05
-0.000157039
-1.31223e-05
-0.000152387
-1.39475e-05
-0.000147399
-1.4937e-05
-0.000142266
-1.54291e-05
-0.000136703
-1.66795e-05
-0.000130936
-1.73035e-05
-0.000124953
-1.79756e-05
-0.000118469
-1.94452e-05
-0.000111498
-2.09347e-05
-0.000104096
-2.2225e-05
-9.60224e-05
-2.42229e-05
-8.71871e-05
-2.65358e-05
-7.7503e-05
-2.90625e-05
-6.6868e-05
-3.19245e-05
-5.53584e-05
-3.45617e-05
-4.28452e-05
-3.75302e-05
-2.90872e-05
-4.12329e-05
-1.45253e-05
-4.36845e-05
1.02058e-06
-4.66273e-05
1.74431e-05
-4.92393e-05
3.43988e-05
-5.0828e-05
5.19825e-05
-5.27006e-05
6.98301e-05
-5.34961e-05
8.77884e-05
-5.38087e-05
0.000105631
-5.3467e-05
0.00012292
-5.17995e-05
0.000139417
-4.94279e-05
0.000154933
-4.64697e-05
0.000169059
-4.2325e-05
0.000181642
-3.76823e-05
0.000192376
-3.21603e-05
0.00020112
-2.61925e-05
0.000207756
-1.98694e-05
0.000212084
-1.29607e-05
0.000214127
-6.08615e-06
0.000213671
1.2812e-06
0.000210774
8.59397e-06
0.000205623
1.54401e-05
0.000198318
2.18739e-05
0.000189183
2.73697e-05
0.00017835
3.24497e-05
0.000166034
3.69069e-05
0.000152499
4.05464e-05
0.000138103
4.3149e-05
0.000122836
4.57468e-05
0.000107147
4.70259e-05
9.12238e-05
4.77384e-05
7.51029e-05
4.83298e-05
5.90242e-05
4.82049e-05
4.321e-05
4.74094e-05
2.77021e-05
4.65189e-05
1.25241e-05
4.55264e-05
-2.19006e-06
4.41137e-05
-1.63803e-05
4.25579e-05
-3.00321e-05
4.09447e-05
-4.30886e-05
3.91618e-05
-5.55014e-05
3.72318e-05
-6.72823e-05
3.53384e-05
-7.83812e-05
3.32942e-05
-8.88187e-05
3.1311e-05
-9.85574e-05
2.92156e-05
-0.000107569
2.7033e-05
-0.00011586
2.48699e-05
-0.000123393
2.26001e-05
-0.000130147
2.02617e-05
-0.000136124
1.79288e-05
-0.000141309
1.55553e-05
-0.000145704
1.3184e-05
-0.00014929
1.0755e-05
-0.000152059
8.30633e-06
-0.000154028
5.89349e-06
3.42436e-06
-5.2998e-05
-5.79717e-05
-3.72534e-05
-6.29429e-05
-2.05239e-05
-6.69299e-05
-2.90619e-06
-7.03963e-05
1.54095e-05
-7.31147e-05
3.41668e-05
-7.48573e-05
5.34156e-05
-7.68237e-05
7.27476e-05
-7.71481e-05
9.18504e-05
-7.62164e-05
0.000110577
-7.47263e-05
0.000128692
-7.22744e-05
0.000145752
-6.8043e-05
0.0001616
-6.32392e-05
0.000175998
-5.7447e-05
0.000188709
-5.0717e-05
0.00019947
-4.29267e-05
0.000208025
-3.41051e-05
0.000214215
-2.46892e-05
0.000217926
-1.48362e-05
0.000219111
-4.77946e-06
0.0002177
5.39252e-06
0.000213722
1.5795e-05
0.000207224
2.59129e-05
0.000198458
3.49912e-05
0.000187454
4.38801e-05
0.000174665
5.10064e-05
0.000160106
5.8137e-05
0.000143988
6.43017e-05
0.000126761
6.87609e-05
0.000108648
7.23354e-05
8.98017e-05
7.52402e-05
7.05824e-05
7.67465e-05
5.11651e-05
7.7548e-05
3.19365e-05
7.67632e-05
1.29828e-05
7.56855e-05
-5.53621e-06
7.40228e-05
-2.34605e-05
7.16191e-05
-4.06898e-05
6.88456e-05
-5.70809e-05
6.55122e-05
-7.25699e-05
6.19165e-05
-8.71297e-05
5.82066e-05
-0.000100709
5.43021e-05
-0.000113313
5.03943e-05
-0.000124902
4.63556e-05
-0.000135513
4.24469e-05
-0.000145168
3.86156e-05
-0.000153863
3.47704e-05
-0.000161629
3.1059e-05
-0.000168508
2.75116e-05
-0.000174493
2.39263e-05
-0.000179604
2.04444e-05
-0.000183889
1.71217e-05
-0.000187336
1.38252e-05
-0.000190025
1.07619e-05
-0.000191919
7.60288e-06
-0.000193007
4.36046e-06
-0.00019337
1.53324e-06
-0.000192875
-1.90859e-06
-0.000191569
-5.26319e-06
-0.000189443
-8.48878e-06
-0.000186451
-1.20018e-05
-0.000182705
-1.49368e-05
-0.000178136
-1.83234e-05
-0.000172627
-2.20504e-05
-0.000166327
-2.52145e-05
-0.000159224
-2.84377e-05
-0.000151075
-3.25805e-05
-0.000142107
-3.59011e-05
-0.00013214
-3.98519e-05
-0.000121241
-4.3564e-05
-0.000109498
-4.69479e-05
-9.68253e-05
-5.06535e-05
-8.33646e-05
-5.38654e-05
-6.91084e-05
-5.69939e-05
-5.4037e-05
-6.02402e-05
-3.82811e-05
-6.29839e-05
-2.17774e-05
-6.58911e-05
-4.71656e-06
-6.822e-05
1.26667e-05
-6.95361e-05
3.04589e-05
-7.10535e-05
4.84709e-05
-7.19651e-05
6.65613e-05
-7.22729e-05
8.46288e-05
-7.20944e-05
0.000102375
-7.09606e-05
0.000119816
-6.95245e-05
0.000136574
-6.69963e-05
0.000152574
-6.3897e-05
0.000167578
-5.98366e-05
0.000181198
-5.43402e-05
0.000193213
-4.78765e-05
0.000203268
-4.00599e-05
0.000211119
-3.12939e-05
0.00021655
-2.16916e-05
0.000219454
-1.16439e-05
0.000219767
-1.42684e-06
0.000217507
8.83619e-06
0.000212706
1.9092e-05
0.000205436
2.88819e-05
0.000195891
3.79964e-05
0.000184212
4.65095e-05
0.000170597
5.42944e-05
0.000155266
6.11008e-05
0.000138442
6.69757e-05
0.000120417
7.19702e-05
0.000101494