/*--------------------------------*- C++ -*----------------------------------*\
| =========                 |                                                 |
| \\      /  F ield         | OpenFOAM: The Open Source CFD Toolbox           |
|  \\    /   O peration     | Version:  3.0.1                                 |
|   \\  /    A nd           | Web:      www.OpenFOAM.org                      |
|    \\/     M anipulation  |                                                 |
\*---------------------------------------------------------------------------*/
FoamFile
{
    version     2.0;
    format      ascii;
    class       volScalarField;
    location    "24.8";
    object      p;
}
// * * * * * * * * * * * * * * * * * * * * * * * * * * * * * * * * * * * * * //

dimensions      [1 -1 -2 0 0 0 0];

internalField   nonuniform List<scalar> 
22680
(
4283.64
4296.14
4305.9
4312.83
4316.88
4317.99
4316.03
4311.07
4303.17
4292.35
4278.7
4262.32
4243.37
4222.01
4198.44
4172.86
4145.56
4116.78
4086.81
4055.92
4024.4
3992.5
3960.48
3928.57
3897.01
3865.98
3835.47
3806.2
3778.02
3751.03
3725.35
3701.04
3678.19
3656.83
3637.01
3618.75
3602.05
3586.9
3573.29
3561.19
3550.57
3541.38
3533.6
3527.18
3522.06
3518.21
3515.58
3514.13
3513.8
3514.57
3516.41
3519.27
3523.14
3528.01
3533.88
3540.74
3548.59
3557.46
3567.37
3578.33
3590.38
3603.55
3617.87
3633.38
3650.1
3668.07
3687.3
3707.8
3729.57
3752.59
3776.85
3802.28
3828.81
3856.36
3884.78
3913.96
3943.69
3973.76
4004.04
4034.29
4064.24
4093.61
4122.14
4149.54
4175.55
4199.9
4222.34
4242.63
4260.55
4275.91
4288.54
4298.32
4305.14
4308.92
4309.62
4307.24
4301.78
4293.33
4281.97
4267.82
4251.03
4231.78
4210.28
4186.75
4161.42
4134.54
4106.36
4077.16
4047.18
4016.68
3985.93
3955.14
3924.54
3894.34
3864.72
3835.85
3807.87
3780.9
3755.04
3730.38
3706.99
3684.92
3664.2
3644.87
3626.93
3610.4
3595.26
3581.51
3569.13
3558.11
3548.43
3540.06
3532.99
3527.21
3522.69
3519.41
3517.38
3516.57
3516.98
3518.6
3521.41
3525.42
3530.62
3536.98
3544.5
3553.17
3562.95
3573.85
3585.84
3598.92
3613.06
3628.26
3644.51
3661.8
3680.12
3699.45
3719.8
3741.14
3763.45
3786.69
3810.82
3835.78
3861.5
3887.9
3914.86
3942.27
3969.96
3998.2
4026.06
4053.75
4081.05
4107.75
4133.62
4158.43
4181.95
4203.94
4224.17
4242.43
4258.5
4272.17
4283.27
4291.64
4297.14
4299.69
4299.21
4295.62
4289.03
4279.42
4266.85
4251.46
4233.4
4212.85
4190.02
4165.15
4138.51
4110.37
4081.04
4050.8
4019.95
3988.78
3957.57
3926.57
3896.04
3866.17
3837.17
3809.18
3782.35
3756.79
3732.57
3709.77
3688.43
3668.58
3650.22
3633.36
3617.98
3604.05
3591.52
3580.38
3570.56
3562.03
3554.75
3548.61
3543.75
3541
3542.99
4185.67
4198.19
4207.95
4214.89
4218.94
4220.06
4218.1
4213.13
4205.23
4194.41
4180.74
4164.36
4145.39
4124.02
4100.44
4074.84
4047.52
4018.73
3988.74
3957.84
3926.3
3894.38
3862.35
3830.43
3798.86
3767.82
3737.3
3708.02
3679.84
3652.85
3627.16
3602.85
3579.99
3558.64
3538.82
3520.56
3503.86
3488.71
3475.1
3463
3452.38
3443.2
3435.42
3429
3423.89
3420.04
3417.42
3415.96
3415.64
3416.41
3418.25
3421.11
3424.98
3429.85
3435.72
3442.58
3450.43
3459.31
3469.21
3480.17
3492.21
3505.38
3519.7
3535.21
3551.93
3569.89
3589.12
3609.62
3631.39
3654.41
3678.67
3704.1
3730.64
3758.19
3786.62
3815.81
3845.55
3875.63
3905.92
3936.19
3966.15
3995.54
4024.08
4051.5
4077.53
4101.89
4124.34
4144.65
4162.58
4177.95
4190.6
4200.38
4207.2
4210.99
4211.69
4209.32
4203.86
4195.39
4184.02
4169.86
4153.06
4133.8
4112.29
4088.74
4063.39
4036.49
4008.3
3979.08
3949.08
3918.58
3887.8
3857
3826.39
3796.18
3766.55
3737.68
3709.69
3682.71
3656.85
3632.19
3608.8
3586.73
3566.01
3546.68
3528.74
3512.21
3497.07
3483.33
3470.95
3459.94
3450.25
3441.89
3434.82
3429.03
3424.51
3421.24
3419.21
3418.4
3418.81
3420.43
3423.24
3427.26
3432.46
3438.82
3446.34
3455
3464.79
3475.69
3487.68
3500.76
3514.9
3530.1
3546.35
3563.64
3581.95
3601.29
3621.64
3642.98
3665.28
3688.53
3712.66
3737.62
3763.35
3789.75
3816.72
3844.13
3871.84
3900.07
3927.94
3955.64
3982.96
4009.67
4035.55
4060.37
4083.91
4105.91
4126.17
4144.44
4160.52
4174.2
4185.31
4193.69
4199.21
4201.76
4201.28
4197.7
4191.09
4181.48
4168.9
4153.51
4135.43
4114.87
4092.02
4067.14
4040.48
4012.32
3982.97
3952.71
3921.84
3890.66
3859.44
3828.43
3797.88
3768
3738.99
3711
3684.16
3658.6
3634.38
3611.58
3590.24
3570.38
3552.03
3535.17
3519.79
3505.86
3493.34
3482.2
3472.39
3463.85
3456.55
3450.39
3445.54
3442.49
3442.68
4087.84
4100.37
4110.15
4117.11
4121.17
4122.29
4120.35
4115.37
4107.45
4096.62
4082.94
4066.54
4047.54
4026.15
4002.53
3976.9
3949.55
3920.72
3890.7
3859.77
3828.19
3796.25
3764.19
3732.24
3700.66
3669.59
3639.06
3609.77
3581.58
3554.58
3528.88
3504.56
3481.71
3460.35
3440.53
3422.27
3405.57
3390.43
3376.82
3364.73
3354.11
3344.94
3337.17
3330.75
3325.65
3321.8
3319.18
3317.73
3317.41
3318.19
3320.03
3322.9
3326.77
3331.64
3337.51
3344.37
3352.22
3361.09
3370.99
3381.94
3393.98
3407.15
3421.46
3436.96
3453.68
3471.64
3490.86
3511.36
3533.13
3556.15
3580.41
3605.85
3632.39
3659.96
3688.4
3717.61
3747.37
3777.46
3807.78
3838.08
3868.06
3897.49
3926.06
3953.52
3979.57
4003.97
4026.45
4046.78
4064.74
4080.14
4092.8
4102.6
4109.44
4113.23
4113.93
4111.56
4106.1
4097.61
4086.22
4072.05
4055.23
4035.94
4014.4
3990.82
3965.44
3938.5
3910.28
3881.02
3851
3820.46
3789.65
3758.83
3728.2
3697.97
3668.32
3639.43
3611.43
3584.45
3558.58
3533.92
3510.52
3488.45
3467.73
3448.4
3430.47
3413.94
3398.81
3385.06
3372.69
3361.68
3352
3343.64
3336.57
3330.79
3326.27
3323
3320.97
3320.17
3320.58
3322.19
3325.01
3329.03
3334.23
3340.59
3348.11
3356.78
3366.56
3377.46
3389.46
3402.54
3416.68
3431.88
3448.13
3465.42
3483.73
3503.07
3523.41
3544.75
3567.06
3590.3
3614.44
3639.41
3665.14
3691.55
3718.53
3745.95
3773.68
3801.91
3829.81
3857.53
3884.87
3911.6
3937.52
3962.37
3985.93
4007.97
4028.25
4046.55
4062.66
4076.37
4087.51
4095.9
4101.43
4104
4103.52
4099.95
4093.32
4083.7
4071.11
4055.7
4037.6
4017
3994.13
3969.21
3942.52
3914.33
3884.93
3854.64
3823.74
3792.53
3761.27
3730.24
3699.66
3669.77
3640.74
3612.73
3585.89
3560.31
3536.09
3513.29
3491.94
3472.09
3453.74
3436.88
3421.51
3407.59
3395.08
3383.95
3374.13
3365.59
3358.3
3352.2
3347.42
3344.46
3344.55
3990.14
4002.71
4012.51
4019.49
4023.56
4024.68
4022.76
4017.77
4009.84
3998.99
3985.28
3968.85
3949.82
3928.38
3904.72
3879.04
3851.64
3822.76
3792.69
3761.71
3730.09
3698.1
3666
3634.02
3602.4
3571.31
3540.76
3511.44
3483.23
3456.22
3430.51
3406.19
3383.32
3361.96
3342.15
3323.89
3307.19
3292.05
3278.45
3266.37
3255.76
3246.6
3238.83
3232.42
3227.33
3223.49
3220.88
3219.44
3219.13
3219.91
3221.75
3224.63
3228.5
3233.38
3239.24
3246.1
3253.95
3262.81
3272.7
3283.66
3295.69
3308.85
3323.15
3338.64
3355.35
3373.31
3392.53
3413.02
3434.79
3457.81
3482.07
3507.52
3534.08
3561.66
3590.12
3619.35
3649.14
3679.27
3709.62
3739.96
3769.99
3799.46
3828.08
3855.59
3881.69
3906.14
3928.66
3949.03
3967.04
3982.46
3995.16
4004.98
4011.84
4015.64
4016.35
4013.97
4008.51
3999.99
3988.59
3974.38
3957.52
3938.2
3916.61
3892.99
3867.55
3840.57
3812.3
3782.99
3752.91
3722.33
3691.48
3660.62
3629.95
3599.69
3570.02
3541.11
3513.1
3486.1
3460.22
3435.55
3412.15
3390.08
3369.37
3350.04
3332.11
3315.58
3300.46
3286.72
3274.35
3263.35
3253.67
3245.31
3238.25
3232.48
3227.96
3224.69
3222.66
3221.86
3222.27
3223.89
3226.71
3230.73
3235.93
3242.29
3249.82
3258.48
3268.28
3279.18
3291.18
3304.25
3318.4
3333.6
3349.85
3367.13
3385.45
3404.78
3425.13
3446.47
3468.78
3492.02
3516.16
3541.14
3566.88
3593.3
3620.29
3647.73
3675.5
3703.71
3731.65
3759.41
3786.78
3813.56
3839.51
3864.41
3888.02
3910.1
3930.43
3948.78
3964.93
3978.68
3989.85
3998.27
4003.83
4006.4
4005.94
4002.37
3995.73
3986.09
3973.48
3958.03
3939.9
3919.26
3896.34
3871.37
3844.62
3816.38
3786.93
3756.58
3725.63
3694.37
3663.07
3632
3601.39
3571.46
3542.4
3514.39
3487.53
3461.94
3437.71
3414.9
3393.56
3373.7
3355.36
3338.51
3323.14
3309.23
3296.74
3285.61
3275.81
3267.27
3259.98
3253.86
3249.01
3245.85
3245.28
3892.57
3905.18
3915.02
3922.02
3926.12
3927.25
3925.34
3920.34
3912.39
3901.51
3887.77
3871.29
3852.22
3830.73
3807
3781.26
3753.79
3724.85
3694.71
3663.66
3631.98
3599.94
3567.79
3535.76
3504.1
3472.96
3442.38
3413.04
3384.81
3357.77
3332.05
3307.72
3284.85
3263.48
3243.67
3225.41
3208.72
3193.59
3180
3167.92
3157.32
3148.17
3140.42
3134.02
3128.94
3125.12
3122.51
3121.08
3120.78
3121.57
3123.42
3126.3
3130.18
3135.06
3140.92
3147.78
3155.62
3164.48
3174.36
3185.31
3197.33
3210.48
3224.77
3240.25
3256.95
3274.9
3294.11
3314.6
3336.36
3359.39
3383.66
3409.12
3435.69
3463.29
3491.78
3521.04
3550.87
3581.04
3611.45
3641.83
3671.93
3701.46
3730.14
3757.71
3783.88
3808.39
3830.98
3851.41
3869.46
3884.93
3897.67
3907.53
3914.4
3918.22
3918.94
3916.55
3911.09
3902.54
3891.11
3876.86
3859.96
3840.58
3818.93
3795.24
3769.74
3742.69
3714.35
3684.98
3654.84
3624.19
3593.29
3562.37
3531.66
3501.36
3471.66
3442.72
3414.68
3387.67
3361.78
3337.1
3313.7
3291.62
3270.91
3251.59
3233.66
3217.14
3202.02
3188.29
3175.93
3164.93
3155.27
3146.92
3139.86
3134.09
3129.58
3126.31
3124.29
3123.49
3123.9
3125.52
3128.34
3132.36
3137.57
3143.93
3151.46
3160.13
3169.93
3180.83
3192.83
3205.91
3220.06
3235.26
3251.51
3268.79
3287.1
3306.44
3326.78
3348.12
3370.43
3393.68
3417.82
3442.81
3468.56
3494.99
3522.01
3549.48
3577.28
3605.49
3633.48
3661.28
3688.71
3715.54
3741.54
3766.5
3790.17
3812.31
3832.7
3851.11
3867.31
3881.12
3892.33
3900.8
3906.38
3908.98
3908.52
3904.96
3898.3
3888.64
3876
3860.51
3842.33
3821.64
3798.65
3773.61
3746.8
3718.48
3688.96
3658.54
3627.52
3596.2
3564.84
3533.71
3503.06
3473.09
3444
3415.96
3389.07
3363.47
3339.23
3316.42
3295.07
3275.22
3256.88
3240.04
3224.68
3210.79
3198.31
3187.2
3177.41
3168.88
3161.6
3155.49
3150.67
3147.47
3146.39
3795.14
3807.8
3817.69
3824.72
3828.84
3829.98
3828.08
3823.08
3815.11
3804.19
3790.41
3773.88
3754.74
3733.18
3709.38
3683.57
3656.01
3626.98
3596.76
3565.63
3533.87
3501.76
3469.54
3437.46
3405.74
3374.55
3343.94
3314.56
3286.3
3259.24
3233.51
3209.16
3186.28
3164.91
3145.09
3126.84
3110.16
3095.03
3081.45
3069.38
3058.8
3049.66
3041.92
3035.54
3030.47
3026.67
3024.08
3022.66
3022.37
3023.17
3025.03
3027.92
3031.8
3036.68
3042.54
3049.4
3057.24
3066.09
3075.96
3086.9
3098.91
3112.04
3126.32
3141.79
3158.48
3176.41
3195.61
3216.1
3237.86
3260.88
3285.16
3310.64
3337.23
3364.85
3393.38
3422.68
3452.55
3482.78
3513.25
3543.71
3573.87
3603.48
3632.25
3659.89
3686.14
3710.73
3733.39
3753.9
3772.01
3787.55
3800.33
3810.23
3817.13
3820.97
3821.7
3819.31
3813.83
3805.26
3793.78
3779.48
3762.52
3743.08
3721.36
3697.59
3672.01
3644.87
3616.44
3586.98
3556.76
3526.04
3495.07
3464.09
3433.32
3402.97
3373.23
3344.25
3316.19
3289.15
3263.25
3238.56
3215.15
3193.08
3172.37
3153.05
3135.13
3118.62
3103.5
3089.78
3077.44
3066.44
3056.79
3048.44
3041.4
3035.63
3031.12
3027.86
3025.84
3025.04
3025.46
3027.08
3029.91
3033.93
3039.14
3045.51
3053.04
3061.71
3071.51
3082.42
3094.42
3107.51
3121.65
3136.86
3153.1
3170.39
3188.7
3208.03
3228.37
3249.71
3272.02
3295.27
3319.43
3344.42
3370.19
3396.64
3423.68
3451.18
3479.02
3507.25
3535.29
3563.15
3590.64
3617.53
3643.61
3668.64
3692.38
3714.6
3735.07
3753.55
3769.82
3783.69
3794.97
3803.48
3809.1
3811.73
3811.28
3807.72
3801.05
3791.36
3778.68
3763.14
3744.89
3724.13
3701.07
3675.94
3649.04
3620.63
3591.02
3560.52
3529.41
3498.01
3466.57
3435.38
3404.67
3374.65
3345.51
3317.44
3290.53
3264.91
3240.66
3217.84
3196.49
3176.64
3158.31
3141.48
3126.14
3112.26
3099.8
3088.71
3078.93
3070.43
3063.15
3057.01
3052.18
3048.89
3047.36
3697.84
3710.57
3720.5
3727.58
3731.73
3732.88
3730.99
3725.98
3717.98
3707.03
3693.19
3676.6
3657.39
3635.75
3611.86
3585.95
3558.29
3529.16
3498.84
3467.61
3435.76
3403.56
3371.27
3339.11
3307.33
3276.07
3245.43
3216.01
3187.71
3160.63
3134.87
3110.51
3087.62
3066.24
3046.42
3028.18
3011.5
2996.39
2982.82
2970.76
2960.19
2951.07
2943.35
2936.99
2931.94
2928.15
2925.57
2924.17
2923.9
2924.71
2926.58
2929.48
2933.37
2938.25
2944.11
2950.96
2958.8
2967.64
2977.5
2988.42
3000.42
3013.53
3027.8
3043.25
3059.92
3077.84
3097.04
3117.51
3139.27
3162.3
3186.59
3212.08
3238.69
3266.35
3294.92
3324.27
3354.2
3384.48
3415.03
3445.57
3475.82
3505.52
3534.39
3562.13
3588.48
3613.16
3635.92
3656.5
3674.7
3690.3
3703.15
3713.09
3720.03
3723.89
3724.63
3722.24
3716.73
3708.14
3696.61
3682.25
3665.22
3645.7
3623.89
3600.02
3574.34
3547.1
3518.57
3489.01
3458.7
3427.88
3396.83
3365.77
3334.93
3304.52
3274.73
3245.71
3217.61
3190.55
3164.63
3139.93
3116.52
3094.44
3073.73
3054.42
3036.51
3020
3004.9
2991.19
2978.86
2967.88
2958.23
2949.9
2942.86
2937.1
2932.6
2929.34
2927.33
2926.53
2926.95
2928.58
2931.41
2935.44
2940.64
2947.02
2954.56
2963.23
2973.04
2983.95
2995.96
3009.04
3023.19
3038.39
3054.64
3071.92
3090.23
3109.56
3129.9
3151.24
3173.55
3196.81
3220.97
3245.98
3271.76
3298.23
3325.3
3352.84
3380.73
3408.98
3437.09
3465.01
3492.57
3519.54
3545.7
3570.82
3594.65
3616.96
3637.52
3656.09
3672.46
3686.4
3697.75
3706.32
3711.99
3714.64
3714.21
3710.65
3703.97
3694.24
3681.51
3665.91
3647.59
3626.74
3603.58
3578.36
3551.35
3522.83
3493.12
3462.5
3431.3
3399.79
3368.27
3337
3306.22
3276.14
3246.95
3218.84
3191.9
3166.26
3141.99
3119.16
3097.81
3077.97
3059.64
3042.82
3027.5
3013.64
3001.21
2990.14
2980.39
2971.91
2964.63
2958.5
2953.63
2950.26
2948.33
3600.68
3613.48
3623.48
3630.6
3634.79
3635.96
3634.07
3629.06
3621.02
3610.02
3596.13
3579.46
3560.17
3538.43
3514.44
3488.41
3460.64
3431.38
3400.94
3369.6
3337.65
3305.35
3272.96
3240.72
3208.86
3177.53
3146.85
3117.38
3089.04
3061.92
3036.14
3011.76
2988.86
2967.48
2947.66
2929.42
2912.75
2897.65
2884.09
2872.05
2861.5
2852.4
2844.7
2838.36
2833.33
2829.56
2827
2825.62
2825.36
2826.19
2828.07
2830.98
2834.88
2839.77
2845.62
2852.47
2860.3
2869.13
2878.98
2889.89
2901.87
2914.96
2929.21
2944.64
2961.3
2979.2
2998.38
3018.85
3040.6
3063.64
3087.93
3113.44
3140.08
3167.77
3196.39
3225.8
3255.8
3286.16
3316.79
3347.43
3377.78
3407.59
3436.57
3464.43
3490.89
3515.68
3538.54
3559.23
3577.52
3593.2
3606.12
3616.12
3623.1
3626.99
3627.74
3625.34
3619.81
3611.18
3599.6
3585.17
3568.05
3548.43
3526.52
3502.55
3476.75
3449.39
3420.74
3391.06
3360.63
3329.71
3298.56
3267.41
3236.49
3206.01
3176.16
3147.1
3118.96
3091.87
3065.93
3041.21
3017.79
2995.71
2975.01
2955.7
2937.8
2921.31
2906.22
2892.52
2880.2
2869.23
2859.6
2851.27
2844.25
2838.49
2834
2830.76
2828.74
2827.95
2828.38
2830.01
2832.84
2836.87
2842.08
2848.47
2856.01
2864.69
2874.5
2885.42
2897.43
2910.51
2924.67
2939.87
2956.12
2973.4
2991.7
3011.03
3031.37
3052.71
3075.02
3098.28
3122.45
3147.47
3173.28
3199.77
3226.87
3254.46
3282.4
3310.68
3338.86
3366.87
3394.51
3421.57
3447.83
3473.05
3496.99
3519.41
3540.07
3558.75
3575.21
3589.25
3600.68
3609.32
3615.04
3617.73
3617.31
3613.76
3607.06
3597.29
3584.51
3568.83
3550.43
3529.48
3506.21
3480.87
3453.73
3425.09
3395.24
3364.5
3333.18
3301.56
3269.94
3238.57
3207.71
3177.56
3148.32
3120.16
3093.19
3067.51
3043.23
3020.39
2999.04
2979.2
2960.88
2944.08
2928.77
2914.94
2902.53
2891.5
2881.77
2873.32
2866.04
2859.89
2855.01
2851.56
2849.28
3503.65
3516.53
3526.6
3533.78
3538.01
3539.2
3537.32
3532.29
3524.23
3513.17
3499.21
3482.46
3463.07
3441.23
3417.11
3390.95
3363.04
3333.65
3303.08
3271.6
3239.53
3207.12
3174.63
3142.29
3110.35
3078.93
3048.19
3018.67
2990.28
2963.13
2937.32
2912.92
2890.01
2868.62
2848.8
2830.56
2813.9
2798.81
2785.28
2773.26
2762.73
2753.65
2745.97
2739.65
2734.64
2730.9
2728.37
2727
2726.77
2727.61
2729.51
2732.43
2736.33
2741.22
2747.08
2753.93
2761.75
2770.57
2780.4
2791.29
2803.25
2816.32
2830.55
2845.96
2862.59
2880.48
2899.65
2920.1
2941.85
2964.89
2989.2
3014.72
3041.39
3069.13
3097.8
3127.28
3157.35
3187.79
3218.53
3249.27
3279.75
3309.69
3338.79
3366.78
3393.37
3418.29
3441.27
3462.07
3480.47
3496.24
3509.24
3519.31
3526.34
3530.26
3531.02
3528.61
3523.06
3514.39
3502.74
3488.23
3471.02
3451.29
3429.26
3405.16
3379.23
3351.74
3322.95
3293.14
3262.58
3231.53
3200.26
3169.01
3138
3107.44
3077.52
3048.41
3020.23
2993.1
2967.14
2942.41
2918.98
2896.9
2876.19
2856.89
2839
2822.52
2807.45
2793.77
2781.46
2770.51
2760.89
2752.58
2745.56
2739.82
2735.33
2732.1
2730.09
2729.31
2729.73
2731.37
2734.21
2738.24
2743.46
2749.85
2757.39
2766.08
2775.9
2786.82
2798.84
2811.93
2826.08
2841.29
2857.53
2874.81
2893.12
2912.44
2932.78
2954.11
2976.43
2999.69
3023.88
3048.91
3074.74
3101.26
3128.4
3156.03
3184.03
3212.36
3240.62
3268.71
3296.45
3323.62
3349.99
3375.32
3399.38
3421.93
3442.71
3461.51
3478.09
3492.23
3503.75
3512.48
3518.26
3520.99
3520.6
3517.04
3510.32
3500.51
3487.66
3471.9
3453.4
3432.33
3408.93
3383.46
3356.18
3327.39
3297.4
3266.52
3235.06
3203.31
3171.57
3140.09
3109.14
3078.91
3049.6
3021.39
2994.38
2968.68
2944.37
2921.52
2900.17
2880.33
2862.02
2845.24
2829.96
2816.15
2803.78
2792.78
2783.09
2774.66
2767.38
2761.22
2756.32
2752.79
2750.22
3406.75
3419.73
3429.88
3437.13
3441.4
3442.62
3440.74
3435.7
3427.6
3416.48
3402.44
3385.6
3366.1
3344.13
3319.88
3293.57
3265.51
3235.96
3205.24
3173.62
3141.41
3108.87
3076.26
3043.82
3011.77
2980.26
2949.47
2919.88
2891.44
2864.25
2838.41
2813.98
2791.06
2769.66
2749.85
2731.61
2714.96
2699.89
2686.37
2674.38
2663.87
2654.81
2647.16
2640.87
2635.89
2632.17
2629.66
2628.32
2628.11
2628.97
2630.89
2633.82
2637.73
2642.63
2648.49
2655.33
2663.14
2671.95
2681.76
2692.63
2704.57
2717.62
2731.81
2747.2
2763.81
2781.68
2800.83
2821.27
2843.02
2866.06
2890.38
2915.93
2942.63
2970.42
2999.15
3028.71
3058.87
3089.4
3120.24
3151.11
3181.73
3211.8
3241.05
3269.19
3295.93
3320.99
3344.11
3365.04
3383.55
3399.43
3412.52
3422.66
3429.75
3433.7
3434.48
3432.06
3426.48
3417.76
3406.04
3391.44
3374.12
3354.28
3332.11
3307.86
3281.78
3254.13
3225.19
3195.23
3164.52
3133.34
3101.94
3070.57
3039.46
3008.81
2978.81
2949.64
2921.41
2894.25
2868.25
2843.51
2820.07
2797.99
2777.29
2758
2740.12
2723.66
2708.6
2694.93
2682.64
2671.71
2662.1
2653.81
2646.8
2641.07
2636.6
2633.37
2631.37
2630.59
2631.02
2632.66
2635.51
2639.54
2644.77
2651.16
2658.72
2667.41
2677.23
2688.16
2700.18
2713.28
2727.44
2742.65
2758.89
2776.17
2794.47
2813.78
2834.12
2855.45
2877.77
2901.05
2925.24
2950.29
2976.14
3002.7
3029.88
3057.56
3085.63
3114.01
3142.36
3170.55
3198.39
3225.68
3252.17
3277.64
3301.84
3324.52
3345.45
3364.38
3381.09
3395.35
3406.98
3415.79
3421.64
3424.42
3424.05
3420.49
3413.75
3403.89
3390.97
3375.12
3356.5
3335.31
3311.77
3286.14
3258.7
3229.74
3199.59
3168.55
3136.93
3105.04
3073.16
3041.57
3010.5
2980.19
2950.81
2922.53
2895.48
2869.74
2845.42
2822.56
2801.2
2781.37
2763.07
2746.3
2731.05
2717.28
2704.94
2693.98
2684.34
2675.93
2668.65
2662.47
2657.56
2653.94
2651.15
3309.99
3323.08
3333.32
3340.63
3344.95
3346.2
3344.33
3339.28
3331.13
3319.95
3305.83
3288.88
3269.26
3247.15
3222.74
3196.28
3168.04
3138.32
3107.43
3075.64
3043.28
3010.6
2977.86
2945.3
2913.15
2881.53
2850.68
2821.02
2792.52
2765.28
2739.4
2714.96
2692.01
2670.61
2650.79
2632.57
2615.93
2600.88
2587.38
2575.4
2564.93
2555.9
2548.28
2542.01
2537.06
2533.37
2530.89
2529.58
2529.39
2530.28
2532.21
2535.15
2539.08
2543.98
2549.84
2556.67
2564.47
2573.27
2583.06
2593.91
2605.82
2618.84
2633.01
2648.37
2664.96
2682.8
2701.93
2722.36
2744.11
2767.15
2791.48
2817.05
2843.8
2871.63
2900.44
2930.07
2960.33
2990.96
3021.93
3052.94
3083.71
3113.94
3143.35
3171.65
3198.55
3223.78
3247.05
3268.12
3286.77
3302.77
3315.95
3326.18
3333.33
3337.32
3338.11
3335.69
3330.08
3321.3
3309.5
3294.8
3277.36
3257.38
3235.06
3210.66
3184.41
3156.58
3127.47
3097.34
3066.47
3035.13
3003.59
2972.09
2940.87
2910.12
2880.03
2850.79
2822.51
2795.31
2769.29
2744.52
2721.07
2698.99
2678.3
2659.01
2641.15
2624.7
2609.66
2596.02
2583.75
2572.83
2563.24
2554.96
2547.97
2542.25
2537.79
2534.57
2532.58
2531.81
2532.24
2533.89
2536.74
2540.78
2546.01
2552.41
2559.97
2568.68
2578.51
2589.44
2601.47
2614.57
2628.73
2643.94
2660.19
2677.46
2695.75
2715.07
2735.4
2756.73
2779.05
2802.33
2826.54
2851.61
2877.48
2904.08
2931.31
2959.05
2987.19
3015.63
3044.07
3072.37
3100.34
3127.75
3154.39
3180
3204.35
3227.19
3248.28
3267.36
3284.21
3298.61
3310.36
3319.27
3325.2
3328.03
3327.69
3324.13
3317.36
3307.44
3294.44
3278.48
3259.74
3238.4
3214.7
3188.9
3161.28
3132.15
3101.81
3070.59
3038.8
3006.74
2974.72
2942.99
2911.81
2881.39
2851.93
2823.59
2796.48
2770.72
2746.37
2723.49
2702.13
2682.31
2664.02
2647.28
2632.05
2618.31
2606.02
2595.1
2585.51
2577.13
2569.88
2563.66
2558.72
2555.03
2552.06
3213.37
3226.57
3236.91
3244.3
3248.68
3249.96
3248.1
3243.02
3234.83
3223.58
3209.36
3192.3
3172.54
3150.28
3125.71
3099.06
3070.64
3040.73
3009.64
2977.68
2945.15
2912.3
2879.43
2846.73
2814.46
2782.74
2751.81
2722.07
2693.51
2666.22
2640.31
2615.83
2592.87
2571.46
2551.65
2533.43
2516.81
2501.77
2488.29
2476.35
2465.9
2456.9
2449.31
2443.08
2438.16
2434.5
2432.06
2430.77
2430.61
2431.52
2433.47
2436.43
2440.37
2445.27
2451.13
2457.96
2465.75
2474.53
2484.31
2495.12
2507.01
2520
2534.14
2549.47
2566.02
2583.84
2602.95
2623.37
2645.11
2668.15
2692.5
2718.1
2744.88
2772.78
2801.65
2831.38
2861.75
2892.49
2923.6
2954.77
2985.69
3016.1
3045.69
3074.17
3101.25
3126.65
3150.09
3171.33
3190.12
3206.25
3219.54
3229.86
3237.07
3241.11
3241.92
3239.49
3233.85
3225.01
3213.12
3198.3
3180.74
3160.6
3138.12
3113.54
3087.1
3059.09
3029.78
2999.46
2968.42
2936.91
2905.21
2873.57
2842.22
2811.36
2781.18
2751.87
2723.53
2696.28
2670.23
2645.44
2621.99
2599.9
2579.21
2559.94
2542.09
2525.66
2510.64
2497.02
2484.77
2473.87
2464.3
2456.04
2449.07
2443.36
2438.91
2435.7
2433.72
2432.95
2433.4
2435.05
2437.9
2441.95
2447.19
2453.6
2461.17
2469.88
2479.72
2490.66
2502.7
2515.81
2529.97
2545.18
2561.42
2578.69
2596.98
2616.29
2636.62
2657.95
2680.27
2703.56
2727.77
2752.87
2778.77
2805.41
2832.69
2860.49
2888.7
2917.22
2945.77
2974.19
3002.29
3029.85
3056.63
3082.41
3106.93
3129.94
3151.19
3170.45
3187.46
3202.01
3213.88
3222.91
3228.92
3231.81
3231.5
3227.94
3221.14
3211.16
3198.07
3182
3163.12
3141.62
3117.74
3091.75
3063.94
3034.6
3004.06
2972.64
2940.66
2908.43
2876.24
2844.36
2813.05
2782.52
2752.97
2724.56
2697.4
2671.59
2647.22
2624.33
2602.97
2583.15
2564.88
2548.15
2532.96
2519.26
2507.01
2496.15
2486.61
2478.27
2471.01
2464.79
2459.83
2456.06
2452.96
3116.88
3130.21
3140.66
3148.14
3152.58
3153.89
3152.03
3146.94
3138.7
3127.37
3113.04
3095.86
3075.95
3053.53
3028.77
3001.93
2973.3
2943.17
2911.88
2879.72
2847
2813.99
2780.96
2748.12
2715.72
2683.88
2652.86
2623.04
2594.42
2567.08
2541.12
2516.61
2493.63
2472.22
2452.4
2434.19
2417.58
2402.57
2389.12
2377.2
2366.78
2357.82
2350.26
2344.07
2339.19
2335.57
2333.15
2331.9
2331.76
2332.7
2334.68
2337.65
2341.61
2346.52
2352.37
2359.2
2366.97
2375.73
2385.49
2396.28
2408.13
2421.09
2435.19
2450.49
2467.01
2484.81
2503.89
2524.29
2546.02
2569.07
2593.43
2619.06
2645.89
2673.85
2702.81
2732.64
2763.13
2793.97
2825.24
2856.58
2887.69
2918.28
2948.07
2976.75
3004.03
3029.62
3053.24
3074.65
3093.6
3109.87
3123.29
3133.7
3141
3145.08
3145.91
3143.47
3137.8
3128.88
3116.89
3101.96
3084.25
3063.95
3041.29
3016.51
2989.87
2961.65
2932.13
2901.61
2870.37
2838.68
2806.81
2775.01
2743.52
2712.54
2682.26
2652.87
2624.46
2597.17
2571.08
2546.27
2522.8
2500.72
2480.04
2460.78
2442.94
2426.53
2411.54
2397.94
2385.71
2374.84
2365.29
2357.05
2350.09
2344.4
2339.96
2336.77
2334.79
2334.03
2334.48
2336.14
2339
2343.05
2348.3
2354.72
2362.3
2371.02
2380.87
2391.82
2403.86
2416.98
2431.15
2446.36
2462.6
2479.86
2498.15
2517.45
2537.77
2559.1
2581.42
2604.72
2628.95
2654.06
2680
2706.68
2734.01
2761.88
2790.17
2818.79
2847.44
2875.99
2904.23
2931.95
2958.91
2984.86
3009.57
3032.76
3054.2
3073.64
3090.83
3105.54
3117.56
3126.71
3132.82
3135.77
3135.49
3131.93
3125.1
3115.05
3101.86
3085.67
3066.63
3044.96
3020.89
2994.69
2966.66
2937.1
2906.34
2874.7
2842.51
2810.08
2777.71
2745.68
2714.23
2683.58
2653.93
2625.44
2598.22
2572.37
2547.97
2525.07
2503.7
2483.89
2465.64
2448.93
2433.77
2420.11
2407.92
2397.12
2387.64
2379.35
2372.07
2365.86
2360.87
2357.02
2353.84
3020.53
3033.99
3044.56
3052.14
3056.65
3058
3056.14
3051.03
3042.73
3031.32
3016.88
2999.56
2979.5
2956.89
2931.93
2904.87
2876.02
2845.66
2814.15
2781.77
2748.85
2715.66
2682.46
2649.46
2616.92
2584.95
2553.85
2523.94
2495.24
2467.84
2441.83
2417.3
2394.3
2372.87
2353.06
2334.86
2318.27
2303.27
2289.85
2277.97
2267.58
2258.66
2251.14
2244.99
2240.14
2236.56
2234.18
2232.96
2232.86
2233.83
2235.83
2238.82
2242.79
2247.7
2253.56
2260.38
2268.14
2276.88
2286.61
2297.37
2309.19
2322.11
2336.18
2351.44
2367.93
2385.69
2404.75
2425.13
2446.85
2469.9
2494.28
2519.94
2546.82
2574.84
2603.89
2633.83
2664.46
2695.42
2726.85
2758.38
2789.68
2820.49
2850.48
2879.38
2906.87
2932.67
2956.5
2978.1
2997.22
3013.64
3027.2
3037.72
3045.09
3049.23
3050.08
3047.63
3041.91
3032.93
3020.83
3005.77
2987.9
2967.42
2944.56
2919.57
2892.71
2864.26
2834.52
2803.77
2772.31
2740.42
2708.37
2676.4
2644.76
2613.65
2583.26
2553.79
2525.31
2497.96
2471.83
2447.01
2423.53
2401.44
2380.77
2361.52
2343.71
2327.32
2312.35
2298.78
2286.58
2275.73
2266.2
2257.98
2251.04
2245.37
2240.95
2237.76
2235.79
2235.04
2235.5
2237.16
2240.03
2244.09
2249.34
2255.77
2263.36
2272.1
2281.95
2292.92
2304.97
2318.09
2332.26
2347.47
2363.71
2380.98
2399.25
2418.55
2438.86
2460.19
2482.51
2505.81
2530.06
2555.2
2581.17
2607.9
2635.29
2663.23
2691.6
2720.32
2749.1
2777.78
2806.18
2834.07
2861.21
2887.36
2912.26
2935.66
2957.31
2976.94
2994.32
3009.21
3021.39
3030.67
3036.88
3039.91
3039.66
3036.1
3029.23
3019.11
3005.82
2989.49
2970.28
2948.42
2924.15
2897.72
2869.45
2839.65
2808.65
2776.77
2744.36
2711.72
2679.15
2646.94
2615.34
2584.56
2554.81
2526.23
2498.95
2473.06
2448.62
2425.71
2404.34
2384.53
2366.29
2349.62
2334.49
2320.88
2308.74
2298
2288.6
2280.37
2273.06
2266.85
2261.84
2257.92
2254.69
2924.31
2937.93
2948.63
2956.31
2960.89
2962.28
2960.43
2955.29
2946.94
2935.43
2920.87
2903.4
2883.17
2860.37
2835.19
2807.9
2778.8
2748.19
2716.44
2683.83
2650.7
2617.3
2583.92
2550.76
2518.06
2485.96
2454.75
2424.74
2395.97
2368.51
2342.45
2317.89
2294.87
2273.43
2253.62
2235.43
2218.86
2203.89
2190.49
2178.64
2168.3
2159.41
2151.94
2145.83
2141.03
2137.48
2135.14
2133.97
2133.9
2134.89
2136.92
2139.93
2143.92
2148.84
2154.7
2161.51
2169.26
2177.98
2187.68
2198.4
2210.18
2223.07
2237.09
2252.31
2268.76
2286.49
2305.52
2325.89
2347.6
2370.65
2395.05
2420.74
2447.67
2475.77
2504.9
2534.96
2565.73
2596.82
2628.44
2660.17
2691.68
2722.71
2752.94
2782.06
2809.79
2835.82
2859.86
2881.66
2900.97
2917.57
2931.26
2941.9
2949.36
2953.55
2954.42
2951.97
2946.2
2937.14
2924.93
2909.73
2891.69
2871.02
2847.94
2822.72
2795.62
2766.93
2736.94
2705.95
2674.26
2642.15
2609.9
2577.75
2545.94
2514.69
2484.18
2454.63
2426.07
2398.66
2372.5
2347.65
2324.16
2302.07
2281.41
2262.18
2244.38
2228.02
2213.08
2199.53
2187.36
2176.54
2167.04
2158.84
2151.92
2146.27
2141.86
2138.68
2136.73
2135.99
2136.45
2138.12
2140.99
2145.06
2150.32
2156.76
2164.36
2173.11
2182.98
2193.95
2206.01
2219.14
2233.32
2248.53
2264.77
2282.03
2300.3
2319.58
2339.89
2361.21
2383.54
2406.85
2431.11
2456.28
2482.28
2509.06
2536.51
2564.53
2592.99
2621.81
2650.72
2679.56
2708.12
2736.2
2763.54
2789.89
2815.01
2838.63
2860.5
2880.35
2897.94
2913.03
2925.38
2934.8
2941.12
2944.22
2944.01
2940.45
2933.54
2923.34
2909.94
2893.46
2874.08
2852.01
2827.5
2800.84
2772.31
2742.25
2710.98
2678.85
2646.19
2613.33
2580.55
2548.15
2516.38
2485.47
2455.6
2426.93
2399.58
2373.64
2349.18
2326.25
2304.87
2285.07
2266.85
2250.21
2235.12
2221.56
2209.48
2198.81
2189.48
2181.33
2173.99
2167.79
2162.74
2158.77
2155.5
2828.23
2842.01
2852.85
2860.64
2865.3
2866.73
2864.9
2859.73
2851.31
2839.71
2825.02
2807.39
2786.97
2763.96
2738.56
2711.01
2681.65
2650.77
2618.75
2585.89
2552.53
2518.92
2485.34
2452.01
2419.15
2386.89
2355.58
2325.47
2296.61
2269.08
2242.98
2218.38
2195.33
2173.89
2154.08
2135.9
2119.35
2104.41
2091.05
2079.23
2068.93
2060.08
2052.66
2046.59
2041.83
2038.34
2036.04
2034.9
2034.87
2035.9
2037.95
2040.99
2044.99
2049.92
2055.78
2062.58
2070.32
2079.01
2088.68
2099.38
2111.12
2123.96
2137.94
2153.11
2169.52
2187.21
2206.22
2226.56
2248.26
2271.31
2295.73
2321.46
2348.44
2376.61
2405.85
2436.03
2466.96
2498.18
2530
2561.94
2593.69
2624.95
2655.42
2684.8
2712.78
2739.05
2763.33
2785.35
2804.86
2821.64
2835.49
2846.25
2853.8
2858.06
2858.96
2856.49
2850.68
2841.53
2829.2
2813.84
2795.61
2774.74
2751.43
2725.96
2698.6
2669.65
2639.39
2608.15
2576.21
2543.86
2511.39
2479.05
2447.07
2415.67
2385.03
2355.39
2326.74
2299.28
2273.07
2248.2
2224.7
2202.61
2181.96
2162.74
2144.97
2128.63
2113.72
2100.2
2088.06
2077.27
2067.8
2059.63
2052.73
2047.09
2042.7
2039.54
2037.6
2036.86
2037.33
2039.01
2041.88
2045.96
2051.24
2057.69
2065.3
2074.06
2083.94
2094.93
2107
2120.13
2134.32
2149.53
2165.77
2183.02
2201.28
2220.56
2240.85
2262.17
2284.5
2307.81
2332.09
2357.29
2383.33
2410.16
2437.67
2465.77
2494.34
2523.27
2552.32
2581.32
2610.07
2638.33
2665.89
2692.47
2717.82
2741.68
2763.78
2783.87
2801.69
2816.98
2829.51
2839.09
2845.54
2848.72
2848.55
2844.99
2838.04
2827.75
2814.22
2797.58
2778.01
2755.72
2730.97
2704.04
2675.24
2644.89
2613.35
2580.94
2548.02
2514.91
2481.9
2449.3
2417.35
2386.29
2356.3
2327.54
2300.12
2274.13
2249.63
2226.68
2205.3
2185.52
2167.32
2150.7
2135.65
2122.14
2110.13
2099.53
2090.29
2082.22
2074.87
2068.66
2063.57
2059.56
2056.28
2732.28
2746.25
2757.23
2765.14
2769.89
2771.37
2769.55
2764.35
2755.86
2744.15
2729.32
2711.52
2690.9
2667.67
2642.02
2614.2
2584.55
2553.38
2521.08
2487.96
2454.34
2420.51
2386.73
2353.21
2320.18
2287.75
2256.32
2226.11
2197.16
2169.56
2143.41
2118.77
2095.7
2074.25
2054.44
2036.28
2019.75
2004.83
1991.51
1979.73
1969.47
1960.68
1953.29
1947.28
1942.57
1939.12
1936.87
1935.78
1935.78
1936.85
1938.93
1942
1946.01
1950.95
1956.81
1963.6
1971.32
1979.99
1989.63
2000.29
2011.98
2024.78
2038.71
2053.84
2070.2
2087.85
2106.82
2127.14
2148.83
2171.89
2196.32
2222.08
2249.12
2277.38
2306.72
2337.04
2368.15
2399.49
2431.53
2463.7
2495.69
2527.21
2557.95
2587.6
2615.84
2642.37
2666.9
2689.16
2708.89
2725.86
2739.87
2750.77
2758.43
2762.74
2763.67
2761.19
2755.33
2746.08
2733.63
2718.1