/*--------------------------------*- C++ -*----------------------------------*\
| =========                 |                                                 |
| \\      /  F ield         | OpenFOAM: The Open Source CFD Toolbox           |
|  \\    /   O peration     | Version:  3.0.1                                 |
|   \\  /    A nd           | Web:      www.OpenFOAM.org                      |
|    \\/     M anipulation  |                                                 |
\*---------------------------------------------------------------------------*/
FoamFile
{
    version     2.0;
    format      ascii;
    class       surfaceScalarField;
    location    "28.2";
    object      alphaPhi;
}
// * * * * * * * * * * * * * * * * * * * * * * * * * * * * * * * * * * * * * //

dimensions      [0 3 -1 0 0 0 0];

internalField   nonuniform List<scalar> 
42423
(
8.69957e-06
1.66723e-05
-7.20027e-06
1.58998e-05
-2.25753e-05
1.5375e-05
-3.71716e-05
1.45963e-05
-5.08239e-05
1.36524e-05
-6.3555e-05
1.27311e-05
-7.52901e-05
1.1735e-05
-8.60675e-05
1.07774e-05
-9.5876e-05
9.80845e-06
-0.000104704
8.82819e-06
-0.000112602
7.89819e-06
-0.000119582
6.9801e-06
-0.000125676
6.09363e-06
-0.000130912
5.2363e-06
-0.000135326
4.41358e-06
-0.000138945
3.61863e-06
-0.000141813
2.8688e-06
-0.000143948
2.13498e-06
-0.000145381
1.43267e-06
-0.000146159
7.77751e-07
-0.00014623
7.10989e-08
-0.000145585
-6.45377e-07
-0.00014429
-1.29436e-06
-0.000142268
-2.02217e-06
-0.000139581
-2.68668e-06
-0.000136162
-3.41937e-06
-0.000132029
-4.13338e-06
-0.000127273
-4.75597e-06
-0.000121642
-5.63097e-06
-0.000115249
-6.39271e-06
-0.00010818
-7.06874e-06
-0.000100117
-8.06348e-06
-9.12469e-05
-8.8699e-06
-8.14517e-05
-9.7952e-06
-7.06282e-05
-1.08235e-05
-5.91054e-05
-1.15229e-05
-4.6432e-05
-1.26734e-05
-3.28927e-05
-1.35393e-05
-1.84765e-05
-1.44162e-05
-3.07399e-06
-1.54026e-05
1.29677e-05
-1.60418e-05
2.98959e-05
-1.69283e-05
4.74983e-05
-1.76024e-05
6.54217e-05
-1.79235e-05
8.37296e-05
-1.83079e-05
0.000102207
-1.8477e-05
0.000120495
-1.82884e-05
0.000138523
-1.80281e-05
0.000156037
-1.75144e-05
0.000172678
-1.66405e-05
0.000188322
-1.56439e-05
0.000202628
-1.43063e-05
0.000215443
-1.28155e-05
0.000226579
-1.11362e-05
0.000235657
-9.07721e-06
0.000242692
-7.03505e-06
0.000247477
-4.78501e-06
0.000249826
-2.34953e-06
0.000249773
5.29672e-08
0.000247223
2.5496e-06
0.000242285
4.93877e-06
0.000235087
7.19721e-06
0.000225617
9.47059e-06
0.000214217
1.14e-05
0.000200808
1.34088e-05
0.000185879
1.49285e-05
0.000169563
1.63168e-05
0.000152006
1.75563e-05
0.000133722
1.82844e-05
0.000114688
1.90338e-05
9.53996e-05
1.92886e-05
7.58998e-05
1.94998e-05
5.65286e-05
1.93711e-05
3.75003e-05
1.90284e-05
1.88806e-05
1.86196e-05
8.28912e-07
1.80517e-05
-1.64442e-05
1.72731e-05
-3.30112e-05
1.6567e-05
-4.85332e-05
1.55219e-05
-6.31855e-05
1.46523e-05
-7.6834e-05
1.36485e-05
-8.9389e-05
1.2555e-05
-0.000100938
1.15492e-05
-0.000111436
1.04982e-05
-0.000120844
9.40777e-06
-0.000129291
8.44679e-06
-0.000136631
7.33952e-06
-0.000142947
6.3164e-06
-0.000148371
5.42355e-06
-0.000152793
4.42185e-06
-0.000156328
3.5348e-06
-0.000159089
2.76168e-06
-0.000160959
1.86943e-06
-0.00016207
1.1115e-06
-0.000162465
3.94991e-07
-0.000162097
-3.68064e-07
-0.000161087
-1.01049e-06
-0.000159462
-1.62499e-06
-0.000157178
-2.2842e-06
-0.000154344
-2.83406e-06
-0.000150935
-3.40882e-06
-0.00014682
-4.11449e-06
-0.000142094
-4.72626e-06
-0.00013668
-5.41375e-06
-0.000130581
-6.0992e-06
-0.000123717
-6.86422e-06
-0.000116142
-7.57477e-06
-0.000107721
-8.42158e-06
-9.86341e-05
-9.08665e-06
-8.86651e-05
-9.96912e-06
-7.79352e-05
-1.07299e-05
-6.63667e-05
-1.15686e-05
-5.39523e-05
-1.24144e-05
-4.07956e-05
-1.31568e-05
-2.68587e-05
-1.39369e-05
-1.2185e-05
-1.46738e-05
3.12478e-06
-1.53099e-05
1.90169e-05
-1.58922e-05
3.53991e-05
-1.63823e-05
5.21308e-05
-1.67318e-05
6.9074e-05
-1.69433e-05
8.60853e-05
-1.70114e-05
0.00010292
-1.68348e-05
0.000119409
-1.64896e-05
0.00013531
-1.59005e-05
0.000150343
-1.50333e-05
0.000164287
-1.39438e-05
0.000176842
-1.25558e-05
0.000187754
-1.09118e-05
0.00019679
-9.03635e-06
0.000203744
-6.95372e-06
0.000208401
-4.65695e-06
0.000210682
-2.28126e-06
0.000210523
1.59376e-07
0.000207857
2.66594e-06
0.000202722
5.13485e-06
0.000195238
7.48424e-06
0.000185485
9.75275e-06
0.000173668
1.18166e-05
0.000159999
1.3669e-05
0.00014479
1.52093e-05
0.000128218
1.65722e-05
0.000110589
1.76291e-05
9.22359e-05
1.83526e-05
7.34222e-05
1.88137e-05
5.44312e-05
1.8991e-05
3.55751e-05
1.8856e-05
1.70274e-05
1.85478e-05
-9.96274e-07
1.80236e-05
-1.83056e-05
1.73093e-05
-3.48447e-05
1.65392e-05
-5.03793e-05
1.55345e-05
-6.4961e-05
1.45817e-05
-7.84668e-05
1.35058e-05
-9.08166e-05
1.23498e-05
-0.000102122
1.13057e-05
-0.000112367
1.02445e-05
-0.000121557
9.19044e-06
-0.000129814
8.25693e-06
-0.000137158
7.34399e-06
-0.000143708
6.55016e-06
-0.00014944
5.73213e-06
-0.000154491
5.05103e-06
-0.000158785
4.29376e-06
-0.000162414
3.62896e-06
-0.000165513
3.09851e-06
-0.000167929
2.41675e-06
-0.000169765
1.83571e-06
-0.000170997
1.23237e-06
-0.000171688
6.90178e-07
-0.000171889
2.01201e-07
-0.000171458
-4.31059e-07
-0.0001706
-8.57799e-07
-0.000169146
-1.45379e-06
-0.000167109
-2.03715e-06
-0.000164495
-2.61384e-06
-0.000161093
-3.40229e-06
-0.000157121
-3.97208e-06
-0.00015241
-4.71102e-06
-0.000146899
-5.51105e-06
-0.000140647
-6.25177e-06
-0.000133499
-7.14829e-06
-0.000125628
-7.87058e-06
-0.000116818
-8.8098e-06
-0.000107024
-9.79492e-06
-9.629e-05
-1.07335e-05
-8.45254e-05
-1.17647e-05
-7.18354e-05
-1.269e-05
-5.82194e-05
-1.3616e-05
-4.36999e-05
-1.45196e-05
-2.8366e-05
-1.53339e-05
-1.22741e-05
-1.6092e-05
4.46049e-06
-1.67347e-05
2.16816e-05
-1.72212e-05
3.92568e-05
-1.75753e-05
5.69863e-05
-1.77295e-05
7.46635e-05
-1.76773e-05
9.20427e-05
-1.73792e-05
0.000108905
-1.68628e-05
0.000125008
-1.61022e-05
0.000140094
-1.50863e-05
0.000153841
-1.37474e-05
0.000166101
-1.22596e-05
0.000176594
-1.04937e-05
0.000185151
-8.55646e-06
0.000191589
-6.43855e-06
0.000195763
-4.17344e-06
0.000197603
-1.84028e-06
0.000197157
4.46302e-07
0.000194339
2.81774e-06
0.000189175
5.16419e-06
0.000181834
7.34028e-06
0.000172453
9.38171e-06
0.000161214
1.12387e-05
0.000148326
1.28883e-05
0.00013406
1.42656e-05
0.000118607
1.54533e-05
0.000102262
1.63445e-05
8.51823e-05
1.70798e-05
6.77362e-05
1.74461e-05
4.99905e-05
1.77457e-05
3.22925e-05
1.7698e-05
1.47222e-05
1.75702e-05
-2.44872e-06
1.71709e-05
-1.90901e-05
1.66413e-05
-3.51448e-05
1.60547e-05
-5.04527e-05
1.53079e-05
-6.50149e-05
1.45622e-05
-7.87046e-05
1.36897e-05
-9.14854e-05
1.27808e-05
-0.000103409
1.19237e-05
-0.000114314
1.09049e-05
-0.000124323
1.00085e-05
-0.000133428
9.10505e-06
-0.000141624
8.19611e-06
-0.000148944
7.32044e-06
-0.000155367
6.42313e-06
-0.000160984
5.61646e-06
-0.000165857
4.87345e-06
-0.000169898
4.04106e-06
-0.000173193
3.29429e-06
-0.000175762
2.56934e-06
-0.000177674
1.91218e-06
-0.000178861
1.1865e-06
-0.000179359
4.98619e-07
-0.000179188
-1.71066e-07
-0.000178271
-9.17584e-07
-0.000176722
-1.5486e-06
-0.000174515
-2.20717e-06
-0.000171548
-2.96653e-06
-0.000167924
-3.62468e-06
-0.000163682
-4.24188e-06
-0.000158778
-4.90346e-06
-0.000153087
-5.69109e-06
-0.000146679
-6.40845e-06
-0.000139479
-7.19988e-06
-0.000131584
-7.89444e-06
-0.000122876
-8.70849e-06
-0.000113362
-9.51418e-06
-0.000103054
-1.03075e-05
-9.19294e-05
-1.1125e-05
-8.00112e-05
-1.19183e-05
-6.72536e-05
-1.27576e-05
-5.37336e-05
-1.35201e-05
-3.94142e-05
-1.43194e-05
-2.43866e-05
-1.50277e-05
-8.72141e-06
-1.56652e-05
7.45608e-06
-1.61775e-05
2.40396e-05
-1.65836e-05
4.09578e-05
-1.69182e-05
5.79246e-05
-1.69669e-05
7.48946e-05
-1.69701e-05
9.15532e-05
-1.66586e-05
0.000107742
-1.61886e-05
0.000123349
-1.56078e-05
0.000137956
-1.46069e-05
0.000151553
-1.3597e-05
0.000163772
-1.2219e-05
0.000174398
-1.06263e-05
0.000183327
-8.92866e-06
0.000190308
-6.98155e-06
0.00019524
-4.93164e-06
0.000197964
-2.72386e-06
0.000198402
-4.38143e-07
0.000196482
1.91938e-06
0.0001923
4.18206e-06
0.00018574
6.56021e-06
0.00017717
8.57036e-06
0.000166445
1.07245e-05
0.000154093
1.2352e-05
0.000140029
1.40637e-05
0.000124817
1.52124e-05
0.000108515
1.63015e-05
9.15845e-05
1.69309e-05
7.4123e-05
1.74614e-05
5.65488e-05
1.75742e-05
3.89072e-05
1.76416e-05
2.16569e-05
1.72503e-05
4.75994e-06
1.68969e-05
-1.16412e-05
1.64011e-05
-2.73471e-05
1.5706e-05
-4.23317e-05
1.49845e-05
-5.64513e-05
1.41196e-05
-6.96835e-05
1.32323e-05
-8.20095e-05
1.2326e-05
-9.3394e-05
1.13844e-05
-0.000103834
1.04404e-05
-0.000113353
9.51865e-06
-0.000121967
8.61406e-06
-0.000129704
7.73694e-06
-0.000136603
6.89923e-06
-0.000142684
6.08034e-06
-0.000148004
5.32026e-06
-0.00015257
4.56613e-06
-0.000156434
3.86447e-06
-0.000159618
3.18342e-06
-0.00016215
2.5323e-06
-0.000164024
1.87361e-06
-0.000165255
1.23125e-06
-0.000165867
6.11512e-07
-0.000165764
-1.02358e-07
-0.000164957
-8.06792e-07
-0.000163395
-1.56208e-06
-0.000161121
-2.27392e-06
-0.000158089
-3.03233e-06
-0.000154306
-3.78332e-06
-0.000149751
-4.55483e-06
-0.000144362
-5.38936e-06
-0.00013813
-6.23173e-06
-0.000131096
-7.03359e-06
-0.000123146
-7.95026e-06
-0.000114333
-8.81289e-06
-0.000104694
-9.63892e-06
-9.42013e-05
-1.0493e-05
-8.28284e-05
-1.13729e-05
-7.0641e-05
-1.21874e-05
-5.759e-05
-1.3051e-05
-4.39551e-05
-1.36349e-05
-2.95495e-05
-1.44056e-05
-1.45055e-05
-1.50441e-05
9.46947e-07
-1.54525e-05
1.69013e-05
-1.59544e-05
3.30886e-05
-1.61874e-05
4.95382e-05
-1.64496e-05
6.59615e-05
-1.64233e-05
8.214e-05
-1.61786e-05
9.80098e-05
-1.58698e-05
0.00011337
-1.53607e-05
0.000127978
-1.46079e-05
0.000141653
-1.36751e-05
0.00015425
-1.25968e-05
0.000165499
-1.12487e-05
0.000175244
-9.74481e-06
0.000183258
-8.01476e-06
0.000189392
-6.13378e-06
0.000193518
-4.12579e-06
-2.19821e-06
8.6802e-06
3.33378e-05
-7.2288e-06
3.18088e-05
-2.26093e-05
3.07554e-05
-3.72087e-05
2.91957e-05
-5.08639e-05
2.73076e-05
-6.35977e-05
2.54648e-05
-7.53349e-05
2.34722e-05
-8.61132e-05
2.15558e-05
-9.59224e-05
1.96176e-05
-0.000104753
1.7659e-05
-0.000112654
1.57986e-05
-0.000119635
1.39614e-05
-0.000125727
1.21853e-05
-0.000130959
1.04692e-05
-0.000135375
8.82898e-06
-0.000138996
7.23986e-06
-0.000141873
5.74608e-06
-0.000144015
4.27653e-06
-0.000145447
2.86457e-06
-0.000146214
1.54472e-06
-0.000146277
1.34757e-07
-0.000145629
-1.29396e-06
-0.000144335
-2.58791e-06
-0.000142316
-4.04153e-06
-0.00013963
-5.37258e-06
-0.000136208
-6.84119e-06
-0.000132075
-8.26637e-06
-0.000127322
-9.50922e-06
-0.00012169
-1.12634e-05
-0.000115297
-1.27851e-05
-0.000108232
-1.41339e-05
-0.000100167
-1.6129e-05
-9.12975e-05
-1.77392e-05
-8.14957e-05
-1.95971e-05
-7.06782e-05
-2.16411e-05
-5.91478e-05
-2.30533e-05
-4.64802e-05
-2.53411e-05
-3.29406e-05
-2.7079e-05
-1.85197e-05
-2.88371e-05
-3.11678e-06
-3.08056e-05
1.29275e-05
-3.20861e-05
2.98615e-05
-3.38623e-05
4.74729e-05
-3.52139e-05
6.54053e-05
-3.58559e-05
8.37195e-05
-3.66222e-05
0.000102211
-3.6969e-05
0.000120517
-3.6594e-05
0.000138547
-3.60585e-05
0.000156079
-3.50462e-05
0.000172732
-3.3294e-05
0.000188387
-3.12981e-05
0.0002027
-2.86194e-05
0.000215524
-2.56401e-05
0.000226684
-2.22962e-05
0.000235762
-1.81554e-05
0.000242801
-1.40737e-05
0.000247591
-9.57558e-06
0.00024995
-4.70814e-06
0.000249897
1.05727e-07
0.000247343
5.10356e-06
0.000242411
9.87065e-06
0.000235211
1.43968e-05
0.000225732
1.89497e-05
0.000214326
2.28058e-05
0.000200913
2.68222e-05
0.000185964
2.98776e-05
0.000169639
3.26419e-05
0.000152066
3.51294e-05
0.000133767
3.65828e-05
0.000114725
3.80764e-05
9.54177e-05
3.85954e-05
7.59102e-05
3.90074e-05
5.65212e-05
3.87601e-05
3.74787e-05
3.80709e-05
1.88586e-05
3.72398e-05
7.88592e-07
3.61217e-05
-1.64898e-05
3.45515e-05
-3.30707e-05
3.31479e-05
-4.86008e-05
3.1052e-05
-6.3251e-05
2.93025e-05
-7.69119e-05
2.73093e-05
-8.94699e-05
2.51129e-05
-0.000101018
2.30972e-05
-0.000111525
2.10057e-05
-0.000120937
1.88195e-05
-0.000129383
1.68926e-05
-0.000136727
1.46831e-05
-0.000143046
1.26356e-05
-0.000148472
1.08491e-05
-0.000152901
8.85109e-06
-0.000156445
7.07839e-06
-0.0001592
5.51719e-06
-0.000161075
3.744e-06
-0.000162178
2.21461e-06
-0.000162565
7.81939e-07
-0.000162184
-7.48879e-07
-0.000161181
-2.01402e-06
-0.000159552
-3.25399e-06
-0.000157269
-4.56672e-06
-0.000154434
-5.66889e-06
-0.000151016
-6.82765e-06
-0.000146902
-8.22777e-06
-0.000142181
-9.44761e-06
-0.000136751
-1.08441e-05
-0.000130658
-1.21923e-05
-0.000123784
-1.37384e-05
-0.000116212
-1.51463e-05
-0.000107784
-1.68494e-05
-9.87032e-05
-1.81677e-05
-8.87299e-05
-1.99425e-05
-7.79938e-05
-2.14661e-05
-6.64173e-05
-2.31452e-05
-5.39943e-05
-2.48375e-05
-4.08302e-05
-2.6321e-05
-2.68808e-05
-2.78864e-05
-1.22124e-05
-2.93423e-05
3.1077e-06
-3.063e-05
1.90079e-05
-3.17926e-05
3.53988e-05
-3.27733e-05
5.21408e-05
-3.34739e-05
6.91014e-05
-3.39041e-05
8.61124e-05
-3.40224e-05
0.000102963
-3.36855e-05
0.000119465
-3.29913e-05
0.000135381
-3.18167e-05
0.000150426
-3.00783e-05
0.000164376
-2.78947e-05
0.000176944
-2.51237e-05
0.000187866
-2.18336e-05
0.000196913
-1.80836e-05
0.000203881
-1.39213e-05
0.000208541
-9.31767e-06
0.000210816
-4.55595e-06
0.000210648
3.27426e-07
0.000207984
5.32917e-06
0.000202846
1.02732e-05
0.000195342
1.49881e-05
0.000185589
1.95058e-05
0.000173751
2.36539e-05
0.000160063
2.73576e-05
0.000144842
3.04305e-05
0.000128262
3.31514e-05
0.000110613
3.52787e-05
9.22332e-05
3.67322e-05
7.3408e-05
3.7639e-05
5.43969e-05
3.80021e-05
3.55297e-05
3.77233e-05
1.69714e-05
3.7106e-05
-1.0684e-06
3.60635e-05
-1.83871e-05
3.4628e-05
-3.49341e-05
3.30862e-05
-5.04795e-05
3.108e-05
-6.50702e-05
2.91725e-05
-7.85823e-05
2.7018e-05
-9.09334e-05
2.47008e-05
-0.000102246
2.26187e-05
-0.000112485
2.04832e-05
-0.000121675
1.83808e-05
-0.000129927
1.6509e-05
-0.000137274
1.46903e-05
-0.000143824
1.31009e-05
-0.000149557
1.14644e-05
-0.0001546
1.00939e-05
-0.000158895
8.58878e-06
-0.00016254
7.27439e-06
-0.000165618
6.17618e-06
-0.000168033
4.83212e-06
-0.000169859
3.66131e-06
-0.000171098
2.47145e-06
-0.000171815
1.40746e-06
-0.00017198
3.65797e-07
-0.00017156
-8.50485e-07
-0.000170683
-1.73447e-06
-0.000169224
-2.91352e-06
-0.000167202
-4.05913e-06
-0.000164588
-5.22714e-06
-0.000161176
-6.81514e-06
-0.000157202
-7.94621e-06
-0.000152505
-9.40737e-06
-0.000146981
-1.10355e-05
-0.000140723
-1.25093e-05
-0.000133577
-1.42943e-05
-0.000125695
-1.57534e-05
-0.000116886
-1.76183e-05
-0.000107091
-1.95902e-05
-9.63548e-05
-2.14697e-05
-8.45888e-05
-2.35307e-05
-7.18825e-05
-2.53964e-05
-5.82744e-05
-2.72242e-05
-4.37427e-05
-2.90513e-05
-2.83924e-05
-3.06843e-05
-1.22935e-05
-3.2191e-05
4.45147e-06
-3.34797e-05
2.16855e-05
-3.44553e-05
3.92667e-05
-3.51565e-05
5.70066e-05
-3.54695e-05
7.46948e-05
-3.53656e-05
9.2088e-05
-3.47725e-05
0.000108964
-3.37387e-05
0.000125075
-3.22138e-05
0.000140176
-3.01871e-05
0.000153935
-2.75064e-05
0.0001662
-2.45244e-05
0.000176707
-2.10011e-05
0.000185268
-1.71176e-05
0.000191711
-1.2882e-05
0.000195896
-8.35787e-06
0.000197748
-3.69209e-06
0.000197282
9.11784e-07
0.000194447
5.6529e-06
0.000189287
1.03237e-05
0.000181935
1.46922e-05
0.000172541
1.87757e-05
0.0001613
2.24803e-05
0.00014839
2.57983e-05
0.000134101
2.85546e-05
0.000118629
3.0925e-05
0.000102266
3.27072e-05
8.51879e-05
3.41582e-05
6.77289e-05
3.4905e-05
4.99644e-05
3.55103e-05
3.22466e-05
3.54159e-05
1.46669e-05
3.51499e-05
-2.50922e-06
3.43471e-05
-1.91628e-05
3.3295e-05
-3.5235e-05
3.21269e-05
-5.05503e-05
3.06232e-05
-6.51099e-05
2.91219e-05
-7.88023e-05
2.73821e-05
-9.15887e-05
2.55672e-05
-0.00010352
2.38555e-05
-0.000114434
2.1819e-05
-0.00012444
2.00137e-05
-0.000133554
1.82199e-05
-0.000141745
1.63865e-05
-0.000149061
1.4637e-05
-0.000155477
1.28383e-05
-0.000161088
1.12283e-05
-0.000165964
9.74888e-06
-0.000170008
8.08509e-06
-0.000173299
6.58509e-06
-0.000175873
5.14364e-06
-0.000177783
3.82176e-06
-0.00017897
2.37439e-06
-0.000179465
9.9312e-07
-0.000179287
-3.49013e-07
-0.000178365
-1.83982e-06
-0.000176807
-3.10647e-06
-0.0001746
-4.41422e-06
-0.000171641
-5.92511e-06
-0.000168002
-7.26396e-06
-0.000163766
-8.47776e-06
-0.000158865
-9.80517e-06
-0.000153182
-1.13735e-05
-0.000146762
-1.28288e-05
-0.000139562
-1.43997e-05
-0.00013165
-1.5806e-05
-0.000122937
-1.74218e-05
-0.000113423
-1.90285e-05
-0.000103116
-2.06146e-05
-9.19896e-05
-2.22511e-05
-8.00728e-05
-2.38352e-05
-6.73074e-05
-2.5523e-05
-5.37732e-05
-2.70544e-05
-3.94487e-05
-2.86439e-05
-2.44167e-05
-3.00597e-05
-8.74257e-06
-3.13395e-05
7.42984e-06
-3.235e-05
2.40168e-05
-3.31706e-05
4.09491e-05
-3.38507e-05
5.79285e-05
-3.39463e-05
7.49135e-05
-3.39552e-05
9.15763e-05
-3.33216e-05
0.000107774
-3.23862e-05
0.00012339
-3.12246e-05
0.00013801
-2.92265e-05
0.000151617
-2.72039e-05
0.000163841
-2.4444e-05
0.000174488
-2.1273e-05
0.000183421
-1.78618e-05
0.000190415
-1.39754e-05
0.000195353
-9.87048e-06
0.000198082
-5.45306e-06
0.000198519
-8.75175e-07
0.0001966
3.83868e-06
0.000192418
8.36402e-06
0.000185856
1.3122e-05
0.00017728
1.71459e-05
0.000166546
2.14584e-05
0.000154184
2.47142e-05
0.000140109
2.81384e-05
0.000124884
3.04379e-05
0.000108569
3.26164e-05
9.16279e-05
3.3872e-05
7.41508e-05
3.49384e-05
5.65688e-05
3.51562e-05
3.89129e-05
3.52975e-05
2.16542e-05
3.4509e-05
4.75249e-06
3.37986e-05
-1.16587e-05
3.28123e-05
-2.7374e-05
3.14212e-05
-4.23635e-05
2.99741e-05
-5.64911e-05
2.82471e-05
-6.97277e-05
2.64689e-05
-8.20552e-05
2.46535e-05
-9.34397e-05
2.2769e-05
-0.000103883
2.08838e-05
-0.000113403
1.90383e-05
-0.000122018
1.72293e-05
-0.000129758
1.5477e-05
-0.000136658
1.37992e-05
-0.000142737
1.21593e-05
-0.000148052
1.06351e-05
-0.000152621
9.13513e-06
-0.000156487
7.73109e-06
-0.000159669
6.36529e-06
-0.000162196
5.05912e-06
-0.000164076
3.75353e-06
-0.000165317
2.47216e-06
-0.000165921
1.21592e-06
-0.000165814
-2.09683e-07
-0.000165008
-1.61326e-06
-0.000163447
-3.12255e-06
-0.000161174
-4.54732e-06
-0.000158141
-6.06511e-06
-0.000154357
-7.56743e-06
-0.000149802
-9.10944e-06
-0.000144414
-1.0778e-05
-0.000138179
-1.24661e-05
-0.000131148
-1.40654e-05
-0.000123197
-1.59005e-05
-0.000114382
-1.76287e-05
-0.000104742
-1.92784e-05
-9.42493e-05
-2.09858e-05
-8.2872e-05
-2.27503e-05
-7.06855e-05
-2.4374e-05
-5.76293e-05
-2.61073e-05
-4.3992e-05
-2.72723e-05
-2.95775e-05
-2.88201e-05
-1.4528e-05
-3.00936e-05
9.2529e-07
-3.09059e-05
1.68854e-05
-3.19146e-05
3.308e-05
-3.23821e-05
4.9538e-05
-3.29077e-05
6.59681e-05
-3.28535e-05
8.21529e-05
-3.23635e-05
9.80336e-05
-3.17507e-05
0.000113404
-3.0731e-05
0.000128016
-2.92202e-05
0.000141695
-2.73546e-05
0.000154299
-2.52007e-05
0.000165552
-2.25021e-05
0.000175306
-1.9498e-05
0.000183324
-1.60332e-05
0.000189463
-1.22731e-05
0.000193598
-8.26048e-06
-4.39704e-06
8.64332e-06
4.99879e-05
-7.28712e-06
4.77393e-05
-2.26789e-05
4.61472e-05
-3.7284e-05
4.38009e-05
-5.09428e-05
4.09663e-05
-6.368e-05
3.82021e-05
-7.54182e-05
3.52104e-05
-8.61976e-05
3.23351e-05
-9.60074e-05
2.94274e-05
-0.000104838
2.64897e-05
-0.000112738
2.36983e-05
-0.000119719
2.09422e-05
-0.000125814
1.82801e-05
-0.000131047
1.57027e-05
-0.000135459
1.32405e-05
-0.000139077
1.0858e-05
-0.000141948
8.61747e-06
-0.000144089
6.41774e-06
-0.000145521
4.29574e-06
-0.000146282
2.30594e-06
-0.000146342
1.94616e-07
-0.000145679
-1.95676e-06
-0.00014439
-3.87637e-06
-0.000142363
-6.0693e-06
-0.000139682
-8.05289e-06
-0.00013626
-1.02639e-05
-0.00013213
-1.23963e-05
-0.000127386
-1.42534e-05
-0.00012175
-1.68995e-05
-0.00011536
-1.91744e-05
-0.000108304
-2.11904e-05
-0.000100233
-2.41993e-05
-9.13681e-05
-2.66047e-05
-8.15617e-05
-2.94035e-05
-7.0752e-05
-3.24508e-05
-5.92149e-05
-3.45904e-05
-4.65543e-05
-3.80018e-05
-3.30183e-05
-4.06151e-05
-1.85902e-05
-4.32653e-05
-3.18497e-06
-4.62109e-05
1.28674e-05
-4.81385e-05
2.98129e-05
-5.08079e-05
4.74424e-05
-5.28434e-05
6.53838e-05
-5.37975e-05
8.37104e-05
-5.49489e-05
0.000102224
-5.54822e-05
0.000120538
-5.49083e-05
0.000138588
-5.41089e-05
0.000156144
-5.26023e-05
0.000172809
-4.99586e-05
0.000188479
-4.6969e-05
0.000202815
-4.29552e-05
0.000215647
-3.84716e-05
0.000226824
-3.34739e-05
0.000235912
-2.72435e-05
0.000242957
-2.1118e-05
0.000247757
-1.43761e-05
0.000250123
-7.0742e-06
0.00025007
1.59085e-07
0.000247509
7.66453e-06
0.000242588
1.47916e-05
0.000235383
2.16013e-05
0.00022589
2.84428e-05
0.000214456
3.42399e-05
0.000201058
4.02203e-05
0.000186071
4.48645e-05
0.000169734
4.8979e-05
0.000152134
5.2729e-05
0.000133814
5.49032e-05
0.000114761
5.71293e-05
9.54255e-05
5.79305e-05
7.59089e-05
5.85239e-05
5.64943e-05
5.81747e-05
3.74315e-05
5.71337e-05
1.88123e-05
5.5859e-05
7.18605e-07
5.42154e-05
-1.65577e-05
5.18278e-05
-3.3154e-05
4.97442e-05
-4.86961e-05
4.65941e-05
-6.33368e-05
4.39432e-05
-7.70201e-05
4.09925e-05
-8.95803e-05
3.76731e-05
-0.000101124
3.46405e-05
-0.000111646
3.15278e-05
-0.000121054
2.82277e-05
-0.000129497
2.53356e-05
-0.000136852
2.20377e-05
-0.000143164
1.8948e-05
-0.000148578
1.62626e-05
-0.000153008
1.32809e-05
-0.000156551
1.06216e-05
-0.000159307
8.2736e-06
-0.000161187
5.62396e-06
-0.000162281
3.30807e-06
-0.000162652
1.15277e-06
-0.000162272
-1.12859e-06
-0.000161274
-3.01197e-06
-0.000159637
-4.8912e-06
-0.000157352
-6.85214e-06
-0.000154529
-8.49174e-06
-0.000151121
-1.02351e-05
-0.000147005
-1.23444e-05
-0.000142289
-1.41636e-05
-0.000136852
-1.62808e-05
-0.000130761
-1.82834e-05
-0.000123886
-2.06137e-05
-0.000116319
-2.27128e-05
-0.000107897
-2.52716e-05
-9.88029e-05
-2.72623e-05
-8.88468e-05
-2.98987e-05
-7.81027e-05
-3.22102e-05
-6.65298e-05
-3.47181e-05
-5.41108e-05
-3.72566e-05
-4.09372e-05
-3.94948e-05
-2.69827e-05
-4.18409e-05
-1.23051e-05
-4.40201e-05
3.03669e-06
-4.59719e-05
1.89343e-05
-4.76903e-05
3.53627e-05
-4.92019e-05
5.21014e-05
-5.02127e-05
6.90803e-05
-5.08831e-05
8.6089e-05
-5.10313e-05
0.000102957
-5.05535e-05
0.000119484
-4.95181e-05
0.000135413
-4.77458e-05
0.000150487
-4.51526e-05
0.000164461
-4.18689e-05
0.000177054
-3.77167e-05
0.000187996
-3.27757e-05
0.000197059
-2.7147e-05
0.000204043
-2.09057e-05
0.000208716
-1.39903e-05
0.000211005
-6.84495e-06
0.000210829
5.03412e-07
0.00020813
8.02762e-06
0.000202992
1.54115e-05
0.000195472
2.25079e-05
0.000185684
2.92938e-05
0.000173856
3.54813e-05
0.000160155
4.10586e-05
0.000144902
4.56842e-05
0.000128292
4.97612e-05
0.000110627
5.29433e-05
9.22229e-05
5.51365e-05
7.33765e-05
5.64853e-05
5.43396e-05
5.7039e-05
3.54552e-05
5.66077e-05
1.68862e-05
5.56751e-05
-1.17341e-06
5.41231e-05
-1.84967e-05
5.19514e-05
-3.50559e-05
4.96454e-05
-5.06104e-05
4.66345e-05
-6.52024e-05
4.37645e-05
-7.87185e-05
4.05341e-05
-9.10653e-05
3.70476e-05
-0.000102378
3.3931e-05
-0.000112615
3.07204e-05
-0.000121805
2.75704e-05
-0.000130046
2.47508e-05
-0.000137378
2.2022e-05
-0.000143928
1.96512e-05
-0.000149656
1.71922e-05
-0.000154691
1.51287e-05
-0.000158982
1.288e-05
-0.000162632
1.09242e-05
-0.000165702
9.24595e-06
-0.000168124
7.25417e-06
-0.000169943
5.48046e-06
-0.000171192
3.72061e-06
-0.000171928
2.14366e-06
-0.000172074
5.11336e-07
-0.000171653
-1.27151e-06
-0.000170764
-2.62273e-06
-0.000169299
-4.37845e-06
-0.000167294
-6.06473e-06
-0.000164696
-7.82485e-06
-0.000161262
-1.02491e-05
-0.000157295
-1.1913e-05
-0.00015261
-1.40931e-05
-0.000147095
-1.65499e-05
-0.000140843
-1.87611e-05
-0.000133724
-2.1414e-05
-0.000125819
-2.36581e-05
-0.000117014
-2.64238e-05
-0.000107217
-2.93868e-05
-9.64808e-05
-3.22059e-05
-8.47095e-05
-3.53021e-05
-7.19849e-05
-3.8121e-05
-5.83901e-05
-4.0819e-05
-4.38444e-05
-4.35971e-05
-2.84911e-05
-4.60377e-05
-1.23839e-05
-4.82982e-05
4.38997e-06
-5.02537e-05
2.16439e-05
-5.17093e-05
3.92201e-05
-5.27328e-05
5.69718e-05
-5.32213e-05
7.46905e-05
-5.30844e-05
9.21029e-05
-5.2185e-05
0.000108997
-5.06328e-05
0.000125131
-4.83481e-05
0.000140259
-4.53149e-05
0.000154039
-4.12862e-05
0.000166314
-3.68001e-05
0.000176836
-3.15231e-05
0.000185416
-2.56975e-05
0.000191869
-1.93355e-05
0.000196056
-1.25443e-05
0.000197916
-5.55243e-06
0.000197454
1.37363e-06
0.000194588
8.51853e-06
0.000189419
1.54929e-05
0.000182061
2.20509e-05
0.000172651
2.81853e-05
0.000161402
3.37291e-05
0.000148462
3.87382e-05
0.000134156
4.28611e-05
0.000118658
4.6423e-05
0.000102263
4.9102e-05
8.51802e-05
5.12407e-05
6.77082e-05
5.2377e-05
4.99315e-05
5.3287e-05
3.21856e-05
5.31618e-05
1.45877e-05
5.27478e-05
-2.59868e-06
5.15334e-05
-1.92554e-05
4.99516e-05
-3.53354e-05
4.82069e-05
-5.06626e-05
4.59505e-05
-6.52287e-05
4.36879e-05
-7.89264e-05
4.10799e-05
-9.171e-05
3.83507e-05
-0.000103641
3.57865e-05
-0.000114559
3.27373e-05
-0.000124561
3.00157e-05
-0.000133681
2.73392e-05
-0.000141864
2.45698e-05
-0.000149169
2.19416e-05
-0.000155583
1.92527e-05
-0.00016119
1.68352e-05
-0.000166068
1.46272e-05
-0.000170111
1.21276e-05
-0.000173388
9.86253e-06
-0.000175962
7.71747e-06
-0.000177882
5.74137e-06
-0.000179078
3.57106e-06
-0.000179565
1.4803e-06
-0.000179381
-5.33411e-07
-0.000178447
-2.77396e-06
-0.000176899
-4.65419e-06
-0.000174696
-6.61701e-06
-0.000171743
-8.87879e-06
-0.000168092
-1.09143e-05
-0.000163875
-1.26952e-05
-0.000158969
-1.47108e-05
-0.000153281
-1.70623e-05
-0.000146866
-1.92437e-05
-0.000139679
-2.15863e-05
-0.000131759
-2.3726e-05
-0.000123044
-2.61369e-05
-0.000113529
-2.85434e-05
-0.000103225
-3.09187e-05
-9.21064e-05
-3.337e-05
-8.01833e-05
-3.57584e-05
-6.74173e-05
-3.82891e-05
-5.38804e-05
-4.05913e-05
-3.95542e-05
-4.29702e-05
-2.4514e-05
-4.50999e-05
-8.82274e-06
-4.70309e-05
7.35821e-06
-4.85311e-05
2.39587e-05
-4.97712e-05
4.09e-05
-5.07921e-05
5.78967e-05
-5.09431e-05
7.49117e-05
-5.09703e-05
9.15739e-05
-4.99839e-05
0.000107804
-4.86167e-05
0.000123433
-4.68536e-05
0.000138069
-4.38622e-05
0.000151709
-4.08441e-05
0.000163936
-3.6671e-05
0.000174603
-3.194e-05
0.000183553
-2.68121e-05
0.000190559
-2.0982e-05
0.000195501
-1.48125e-05
0.000198247
-8.19895e-06
0.000198689
-1.31724e-06
0.000196771
5.75669e-06
0.000192585
1.25495e-05
0.000186023
1.96845e-05
0.00017743
2.57389e-05
0.000166686
3.22016e-05
0.000154301
3.70996e-05
0.000140213
4.22265e-05
0.000124959
4.5692e-05
0.000108625
4.89496e-05
9.16656e-05
5.08318e-05
7.41639e-05
5.24401e-05
5.65698e-05
5.27502e-05
3.88942e-05
5.29731e-05
2.16165e-05
5.17867e-05
4.71228e-06
5.07028e-05
-1.17129e-05
4.92375e-05
-2.74398e-05
4.71481e-05
-4.24343e-05
4.49685e-05
-5.65661e-05
4.2379e-05
-6.98049e-05
3.97077e-05
-8.21368e-05
3.69853e-05
-9.35232e-05
3.41554e-05
-0.000103972
3.13331e-05
-0.000113487
2.85532e-05
-0.000122099
2.58412e-05
-0.000129838
2.32161e-05
-0.000136737
2.06975e-05
-0.000142814
1.82364e-05
-0.000148129
1.59502e-05
-0.000152698
1.37044e-05
-0.000156562
1.15956e-05
-0.000159743
9.5458e-06
-0.000162272
7.58831e-06
-0.000164151
5.63205e-06
-0.000165394
3.7152e-06
-0.000165987
1.8096e-06
-0.000165875
-3.22207e-07
-0.000165064
-2.42454e-06
-0.000163505
-4.68092e-06
-0.000161233
-6.81926e-06
-0.000158202
-9.09688e-06
-0.000154419
-1.13503e-05
-0.000149866
-1.36624e-05
-0.00014448
-1.61637e-05
-0.000138245
-1.87011e-05
-0.000131215
-2.10954e-05
-0.000123268
-2.38479e-05
-0.000114449
-2.6447e-05
-0.000104809
-2.89186e-05
-9.43198e-05
-3.14752e-05
-8.29338e-05
-3.41363e-05
-7.07539e-05
-3.65539e-05
-5.7683e-05
-3.91782e-05
-4.40306e-05
-4.09247e-05
-2.96131e-05
-4.32377e-05
-1.45515e-05
-4.51552e-05
9.12864e-07
-4.63703e-05
1.68842e-05
-4.78859e-05
3.30891e-05
-4.85871e-05
4.95633e-05
-4.93819e-05
6.60018e-05
-4.92921e-05
8.21949e-05
-4.85567e-05
9.80846e-05
-4.76404e-05
0.000113459
-4.61055e-05
0.000128082
-4.38435e-05
0.000141768
-4.10405e-05
0.000154381
-3.78138e-05
0.000165641
-3.37622e-05
0.000175405
-2.92617e-05
0.000183438
-2.40666e-05
0.000189589
-1.84246e-05
0.000193745
-1.24166e-05
-6.60933e-06
8.59258e-06
6.66102e-05
-7.37512e-06
6.3707e-05
-2.27836e-05
6.15557e-05
-3.73975e-05
5.84148e-05
-5.10619e-05
5.46307e-05
-6.38044e-05
5.09445e-05
-7.55444e-05
4.69504e-05
-8.63276e-05
4.31183e-05
-9.61369e-05
3.92367e-05
-0.000104969
3.53217e-05
-0.000112869
3.1599e-05
-0.00011985
2.79231e-05
-0.000125943
2.43725e-05
-0.000131178
2.09379e-05
-0.000135591
1.76531e-05
-0.000139212
1.44799e-05
-0.000142078
1.14835e-05
-0.000144221
8.56007e-06
-0.000145647
5.7224e-06
-0.000146386
3.04461e-06
-0.000146437
2.45662e-07
-0.000145753
-2.64115e-06
-0.000144474
-5.15538e-06
-0.000142433
-8.11036e-06
-0.000139756
-1.07293e-05
-0.000136338
-1.36826e-05
-0.000132212
-1.65221e-05
-0.000127482
-1.89836e-05
-0.000121839
-2.25417e-05
-0.000115455
-2.55587e-05
-0.000108412
-2.82336e-05
-0.000100334
-3.22773e-05
-9.14751e-05
-3.54638e-05
-8.16633e-05
-3.92154e-05
-7.0865e-05
-4.32491e-05
-5.93186e-05
-4.61369e-05
-4.66664e-05
-5.0654e-05
-3.31357e-05
-5.41459e-05
-1.86963e-05
-5.77047e-05
-3.29021e-06
-6.1617e-05
1.27767e-05
-6.42055e-05
2.97403e-05
-6.77716e-05
4.74007e-05
-7.05039e-05
6.53548e-05
-7.17516e-05
8.36973e-05
-7.32915e-05
0.00010224
-7.40245e-05
0.000120571
-7.32395e-05
0.000138647
-7.21855e-05
0.000156239
-7.01941e-05
0.000172921
-6.66402e-05
0.000188617
-6.26654e-05
0.000202977
-5.73155e-05
0.000215828
-5.13224e-05
0.000227031
-4.46767e-05
0.000236129
-3.63422e-05
0.000243189
-2.81779e-05
0.000247997
-1.91839e-05
0.000250364
-9.44187e-06
0.00025032
2.03133e-07
0.00024776
1.02251e-05
0.000242854
1.96976e-05
0.00023564
2.88153e-05
0.000226125
3.79574e-05
0.000214654
4.57109e-05
0.000201284
5.359e-05
0.00018623
5.99185e-05
0.000169875
6.53342e-05
0.000152236
7.03683e-05
0.000133883
7.32561e-05
0.000114818
7.61937e-05
9.54362e-05
7.73128e-05
7.59107e-05
7.80494e-05
5.64527e-05
7.76328e-05
3.73594e-05
7.6227e-05
1.87443e-05
7.44741e-05
6.13267e-07
7.23464e-05
-1.6681e-05
6.9122e-05
-3.32817e-05
6.63449e-05
-4.88463e-05
6.21587e-05
-6.34742e-05
5.8571e-05
-7.71776e-05
5.46959e-05
-8.97445e-05
5.02399e-05
-0.000101283
4.61794e-05
-0.000111827
4.20713e-05
-0.000121228
3.76287e-05
-0.000129654
3.37612e-05
-0.000137038
2.94219e-05
-0.000143355
2.52645e-05
-0.00014875
2.16581e-05
-0.000153177
1.77077e-05
-0.000156714
1.41588e-05
-0.000159471
1.10298e-05
-0.000161362
7.51522e-06
-0.000162447
4.39343e-06
-0.00016278
1.48557e-06
-0.000162412
-1.49711e-06
-0.000161427
-3.99623e-06
-0.000159774
-6.5451e-06
-0.000157468
-9.15796e-06
-0.000154658
-1.13011e-05
-0.00015127
-1.36234e-05