/*--------------------------------*- C++ -*----------------------------------*\
| =========                 |                                                 |
| \\      /  F ield         | OpenFOAM: The Open Source CFD Toolbox           |
|  \\    /   O peration     | Version:  3.0.1                                 |
|   \\  /    A nd           | Web:      www.OpenFOAM.org                      |
|    \\/     M anipulation  |                                                 |
\*---------------------------------------------------------------------------*/
FoamFile
{
    version     2.0;
    format      ascii;
    class       volScalarField;
    location    "28.2";
    object      p;
}
// * * * * * * * * * * * * * * * * * * * * * * * * * * * * * * * * * * * * * //

dimensions      [1 -1 -2 0 0 0 0];

internalField   nonuniform List<scalar> 
21420
(
3819.29
3800.16
3779.67
3753.02
3726.64
3701.35
3677.52
3655.31
3634.81
3616.03
3598.97
3583.6
3569.88
3557.78
3547.23
3538.2
3530.65
3524.54
3519.83
3516.52
3514.65
3514.25
3515.21
3517.57
3521.34
3526.52
3533.17
3541.32
3551.03
3562.35
3575.33
3590.03
3606.5
3624.78
3644.9
3666.88
3690.69
3716.31
3743.67
3772.68
3802.85
3834.51
3867.25
3900.79
3934.89
3969.18
4003.27
4036.81
4069.36
4100.49
4129.81
4156.93
4181.47
4203.1
4221.52
4236.46
4247.75
4255.2
4258.69
4257.52
4252.31
4243.12
4230.03
4213.29
4193.11
4169.72
4143.5
4114.78
4083.98
4051.5
4017.78
3983.23
3948.25
3913.24
3878.54
3844.56
3814.11
3782.46
3752.16
3723.45
3696.5
3671.4
3648.21
3626.98
3607.72
3590.43
3575.11
3561.71
3550.2
3540.54
3532.66
3526.51
3522.02
3519.1
3517.71
3517.82
3519.3
3522.15
3526.34
3531.85
3538.69
3546.87
3556.42
3567.37
3579.77
3593.65
3609.06
3626.04
3644.6
3664.76
3686.53
3709.89
3734.8
3761.2
3789.01
3818.11
3848.37
3879.66
3911.68
3944.22
3977.04
4009.81
4042.2
4073.86
4104.39
4133.38
4160.42
4185.1
4207.03
4225.82
4241.15
4252.72
4260.31
4263.71
4262.91
4257.83
4248.58
4235.25
4218.06
4197.27
4173.22
4146.28
4116.87
4085.43
4052.45
4018.39
3983.74
3948.97
3914.51
3880.78
3848.08
3816.72
3786.93
3758.88
3732.7
3708.45
3686.15
3665.8
3647.35
3630.74
3615.9
3602.73
3591.15
3581.09
3572.47
3565.22
3559.3
3554.65
3551.23
3549
3547.97
3548.14
3549.48
3552.01
3555.78
3560.82
3567.18
3574.92
3584.11
3594.82
3607.11
3621.06
3636.73
3654.17
3673.43
3694.51
3717.43
3742.15
3768.6
3796.7
3826.29
3857.21
3889.24
3922.11
3955.49
3989.05
4022.43
4055.22
4087.03
4117.43
4146.01
4172.36
4196.1
4216.87
4234.35
4248.28
4258.44
4264.66
4266.81
4264.97
4259.08
4249.3
4235.75
4218.68
4198.35
4175.1
4149.27
4121.24
4091.41
4060.19
4027.98
3995.16
3962.11
3929.18
3896.7
3864.95
3834.2
3804.64
3776.47
3749.82
3724.8
3701.47
3679.89
3660.08
3642.04
3625.76
3611.22
3598.38
3587.2
3577.65
3569.67
3563.23
3558.3
3554.82
3552.79
3552.19
3552.98
3555.13
3558.66
3563.57
3569.85
3577.54
3586.65
3597.21
3609.25
3622.8
3637.9
3654.57
3672.84
3692.73
3714.24
3737.35
3762.03
3788.22
3815.83
3844.74
3874.79
3905.8
3937.56
3969.69
4001.88
4033.83
4065.16
4095.5
4124.46
4151.64
4176.66
4199.15
4218.74
4235.13
4248.05
4257.28
4262.65
4264.05
4261.49
4254.95
4244.53
4230.34
4212.64
4191.71
4167.85
4141.44
4112.89
4082.63
4051.06
4018.65
3985.79
3952.93
3920.43
3888.85
3858.33
3828.7
3800.19
3773.04
3747.41
3723.42
3701.14
3680.58
3661.75
3644.64
3629.21
3615.41
3603.22
3592.56
3583.42
3575.73
3569.48
3564.64
3561.19
3559.16
3558.54
3559.46
3561.8
3565.61
3570.9
3577.7
3586.03
3595.91
3607.39
3620.48
3635.22
3651.61
3669.65
3689.34
3710.63
3733.46
3757.76
3783.43
3810.33
3838.31
3867.19
3897.16
3927.24
3957.54
3987.74
4017.53
4046.62
4074.63
4101.24
4126.12
4148.94
4169.41
4187.22
4202.12
4213.9
4222.36
4227.31
3721.14
3702.01
3681.49
3654.85
3628.46
3603.17
3579.34
3557.13
3536.63
3517.85
3500.79
3485.43
3471.72
3459.61
3449.07
3440.04
3432.49
3426.38
3421.67
3418.37
3416.5
3416.09
3417.06
3419.42
3423.18
3428.36
3435.01
3443.16
3452.86
3464.18
3477.16
3491.86
3508.33
3526.6
3546.72
3568.69
3592.51
3618.13
3645.49
3674.5
3704.68
3736.35
3769.09
3802.64
3836.76
3871.06
3905.17
3938.72
3971.29
4002.44
4031.78
4058.91
4083.47
4105.12
4123.55
4138.5
4149.8
4157.25
4160.76
4159.58
4154.35
4145.16
4132.07
4115.32
4095.12
4071.72
4045.47
4016.74
3985.92
3953.43
3919.68
3885.11
3850.12
3815.1
3780.38
3746.37
3715.96
3684.29
3653.98
3625.27
3598.31
3573.21
3550.02
3528.79
3509.53
3492.25
3476.93
3463.53
3452.02
3442.37
3434.49
3428.34
3423.86
3420.94
3419.56
3419.67
3421.15
3424
3428.19
3433.7
3440.53
3448.71
3458.26
3469.21
3481.61
3495.49
3510.9
3527.87
3546.43
3566.59
3588.36
3611.72
3636.63
3663.03
3690.84
3719.94
3750.21
3781.51
3813.53
3846.09
3878.91
3911.7
3944.11
3975.78
4006.32
4035.33
4062.39
4087.1
4109.04
4127.85
4143.19
4154.78
4162.37
4165.78
4164.97
4159.89
4150.63
4137.29
4120.09
4099.29
4075.22
4048.26
4018.82
3987.37
3954.36
3920.28
3885.62
3850.83
3816.36
3782.61
3749.9
3718.53
3688.74
3660.69
3634.51
3610.26
3587.97
3567.62
3549.18
3532.57
3517.73
3504.56
3492.99
3482.93
3474.31
3467.07
3461.15
3456.5
3453.08
3450.85
3449.82
3450
3451.33
3453.86
3457.62
3462.66
3469.02
3476.76
3485.95
3496.65
3508.94
3522.89
3538.55
3555.99
3575.25
3596.33
3619.25
3643.96
3670.42
3698.52
3728.12
3759.05
3791.08
3823.97
3857.36
3890.93
3924.32
3957.14
3988.96
4019.38
4047.98
4074.35
4098.1
4118.89
4136.39
4150.33
4160.49
4166.72
4168.88
4167.02
4161.13
4151.34
4137.78
4120.69
4100.36
4077.08
4051.23
4023.19
3993.35
3962.11
3929.88
3897.04
3863.98
3831.04
3798.55
3766.79
3736.03
3706.47
3678.3
3651.64
3626.62
3603.29
3581.71
3561.9
3543.86
3527.59
3513.05
3500.21
3489.03
3479.48
3471.51
3465.07
3460.14
3456.67
3454.63
3454.04
3454.83
3456.98
3460.51
3465.41
3471.69
3479.38
3488.49
3499.05
3511.09
3524.64
3539.73
3556.4
3574.67
3594.56
3616.06
3639.17
3663.85
3690.05
3717.66
3746.58
3776.63
3807.65
3839.42
3871.56
3903.77
3935.73
3967.07
3997.43
4026.41
4053.61
4078.65
4101.15
4120.75
4137.16
4150.1
4159.33
4164.7
4166.12
4163.54
4157
4146.57
4132.37
4114.66
4093.71
4069.84
4043.41
4014.84
3984.55
3952.97
3920.54
3887.67
3854.79
3822.29
3790.7
3760.17
3730.53
3702.02
3674.86
3649.23
3625.25
3602.96
3582.4
3563.58
3546.47
3531.04
3517.25
3505.05
3494.4
3485.26
3477.58
3471.33
3466.49
3463.04
3461
3460.39
3461.31
3463.64
3467.45
3472.74
3479.54
3487.86
3497.75
3509.22
3522.32
3537.05
3553.44
3571.48
3591.17
3612.46
3635.29
3659.59
3685.26
3712.17
3740.16
3769.04
3799.02
3829.11
3859.42
3889.63
3919.44
3948.54
3976.57
4003.19
4028.08
4050.92
4071.4
4089.22
4104.14
4115.93
4124.4
4129.35
3622.95
3603.81
3583.23
3556.59
3530.2
3504.91
3481.08
3458.87
3438.37
3419.6
3402.55
3387.19
3373.48
3361.38
3350.85
3341.82
3334.28
3328.17
3323.46
3320.16
3318.28
3317.88
3318.85
3321.21
3324.97
3330.15
3336.79
3344.93
3354.63
3365.94
3378.92
3393.61
3410.07
3428.35
3448.45
3470.43
3494.25
3519.87
3547.23
3576.24
3606.45
3638.12
3670.88
3704.45
3738.59
3772.92
3807.06
3840.65
3873.25
3904.44
3933.81
3960.98
3985.57
4007.25
4025.71
4040.68
4052
4059.46
4062.99
4061.78
4056.55
4047.35
4034.24
4017.47
3997.24
3973.81
3947.53
3918.76
3887.9
3855.37
3821.59
3786.99
3751.97
3716.91
3682.17
3648.1
3617.76
3586.03
3555.71
3526.99
3500.04
3474.94
3451.75
3430.52
3411.26
3393.98
3378.66
3365.27
3353.77
3344.12
3336.25
3330.11
3325.63
3322.72
3321.34
3321.45
3322.94
3325.79
3329.98
3335.49
3342.33
3350.5
3360.05
3370.99
3383.38
3397.26
3412.66
3429.63
3448.19
3468.35
3490.12
3513.47
3538.39
3564.79
3592.61
3621.72
3652
3683.31
3715.35
3747.93
3780.77
3813.58
3846.02
3877.73
3908.3
3937.35
3964.45
3989.19
4011.17
4030.01
4045.38
4056.98
4064.6
4068.03
4067.19
4062.11
4052.84
4039.48
4022.25
4001.41
3977.31
3950.31
3920.83
3889.34
3856.29
3822.17
3787.47
3752.65
3718.15
3684.38
3651.65
3620.27
3590.47
3562.41
3536.23
3511.98
3489.7
3469.36
3450.92
3434.32
3419.49
3406.33
3394.77
3384.71
3376.1
3368.86
3362.95
3358.3
3354.88
3352.66
3351.63
3351.8
3353.13
3355.66
3359.42
3364.46
3370.81
3378.54
3387.72
3398.42
3410.7
3424.64
3440.3
3457.74
3476.99
3498.07
3520.98
3545.7
3572.16
3600.27
3629.88
3660.82
3692.87
3725.78
3759.19
3792.8
3826.22
3859.06
3890.93
3921.38
3950.02
3976.42
4000.21
4021.03
4038.55
4052.52
4062.69
4068.93
4071.11
4069.23
4063.34
4053.53
4039.95
4022.83
4002.46
3979.15
3953.27
3925.19
3895.31
3864.04
3831.77
3798.91
3765.82
3732.86
3700.35
3668.57
3637.8
3608.23
3580.05
3553.39
3528.36
3505.03
3483.45
3463.65
3445.61
3429.34
3414.81
3401.97
3390.8
3381.25
3373.28
3366.85
3361.92
3358.45
3356.42
3355.83
3356.62
3358.77
3362.3
3367.2
3373.48
3381.16
3390.27
3400.83
3412.86
3426.41
3441.5
3458.16
3476.43
3496.31
3517.82
3540.93
3565.61
3591.81
3619.43
3648.35
3678.42
3709.45
3741.24
3773.41
3805.64
3837.63
3869.01
3899.4
3928.41
3955.64
3980.72
4003.25
4022.89
4039.32
4052.28
4061.53
4066.91
4068.34
4065.75
4059.2
4048.75
4034.54
4016.8
3995.82
3971.91
3945.44
3916.83
3886.51
3854.89
3822.42
3789.52
3756.61
3724.09
3692.49
3661.95
3632.3
3603.77
3576.61
3550.98
3526.99
3504.7
3484.15
3465.33
3448.22
3432.8
3419.02
3406.82
3396.18
3387.04
3379.36
3373.12
3368.28
3364.83
3362.79
3362.18
3363.09
3365.43
3369.24
3374.52
3381.32
3389.64
3399.52
3410.99
3424.08
3438.81
3455.19
3473.24
3492.93
3514.22
3537.06
3561.36
3587.04
3613.95
3641.95
3670.85
3700.84
3730.95
3761.28
3791.52
3821.35
3850.48
3878.54
3905.19
3930.12
3952.98
3973.49
3991.34
4006.28
4018.09
4026.56
4031.53
3524.7
3505.56
3484.9
3458.26
3431.86
3406.56
3382.74
3360.53
3340.04
3321.27
3304.23
3288.88
3275.18
3263.09
3252.56
3243.55
3236
3229.9
3225.2
3221.9
3220.01
3219.61
3220.59
3222.94
3226.7
3231.87
3238.51
3246.65
3256.34
3267.64
3280.6
3295.29
3311.74
3330.01
3350.11
3372.08
3395.9
3421.52
3448.89
3477.9
3508.14
3539.83
3572.61
3606.21
3640.39
3674.77
3708.95
3742.59
3775.25
3806.48
3835.91
3863.14
3887.78
3909.5
3927.99
3943
3954.34
3961.83
3965.38
3964.14
3958.91
3949.69
3936.56
3919.75
3899.48
3875.99
3849.66
3820.83
3789.91
3757.33
3723.5
3688.85
3653.78
3618.69
3583.91
3549.75
3519.5
3487.7
3457.35
3428.63
3401.67
3376.57
3353.38
3332.16
3312.91
3295.63
3280.32
3266.94
3255.45
3245.8
3237.95
3231.81
3227.34
3224.44
3223.07
3223.19
3224.68
3227.53
3231.72
3237.23
3244.06
3252.24
3261.77
3272.72
3285.1
3298.97
3314.37
3331.33
3349.88
3370.04
3391.8
3415.16
3440.07
3466.48
3494.31
3523.43
3553.73
3585.05
3617.12
3649.73
3682.61
3715.46
3747.94
3779.69
3810.32
3839.42
3866.58
3891.37
3913.4
3932.29
3947.71
3959.35
3966.98
3970.44
3969.59
3964.5
3955.21
3941.81
3924.54
3903.66
3879.49
3852.43
3822.9
3791.34
3758.23
3724.06
3689.3
3654.44
3619.89
3586.09
3553.33
3521.93
3492.11
3464.05
3437.86
3413.62
3391.34
3371.01
3352.58
3336
3321.18
3308.03
3296.48
3286.44
3277.83
3270.6
3264.69
3260.05
3256.64
3254.41
3253.4
3253.56
3254.89
3257.42
3261.17
3266.2
3272.55
3280.27
3289.44
3300.12
3312.4
3326.33
3341.98
3359.41
3378.65
3399.72
3422.64
3447.36
3473.83
3501.94
3531.57
3562.53
3594.61
3627.55
3661
3694.64
3728.11
3761.01
3792.92
3823.43
3852.12
3878.58
3902.42
3923.29
3940.85
3954.85
3965.05
3971.31
3973.5
3971.59
3965.69
3955.86
3942.24
3925.09
3904.67
3881.31
3855.37
3827.24
3797.31
3765.98
3733.67
3700.76
3667.63
3634.63
3602.09
3570.3
3539.5
3509.92
3481.72
3455.06
3430.02
3406.7
3385.12
3365.32
3347.29
3331.02
3316.49
3303.67
3292.5
3282.96
3275
3268.57
3263.65
3260.18
3258.16
3257.57
3258.35
3260.51
3264.03
3268.93
3275.21
3282.89
3291.99
3302.54
3314.57
3328.11
3343.2
3359.86
3378.12
3398
3419.5
3442.61
3467.29
3493.49
3521.12
3550.06
3580.15
3611.21
3643.03
3675.23
3707.5
3739.54
3770.96
3801.4
3830.46
3857.74
3882.87
3905.45
3925.14
3941.61
3954.6
3963.88
3969.28
3970.72
3968.12
3961.55
3951.08
3936.84
3919.06
3898.03
3874.07
3847.54
3818.88
3788.5
3756.82
3724.3
3691.35
3658.4
3625.84
3594.24
3563.67
3534
3505.45
3478.28
3452.64
3428.65
3406.37
3385.82
3367.01
3349.91
3334.49
3320.72
3308.53
3297.9
3288.76
3281.09
3274.85
3270.01
3266.57
3264.53
3263.91
3264.82
3267.16
3270.97
3276.25
3283.03
3291.35
3301.23
3312.69
3325.78
3340.5
3356.88
3374.93
3394.61
3415.9
3438.75
3463.06
3488.75
3515.68
3543.69
3572.62
3602.62
3632.76
3663.13
3693.4
3723.27
3752.45
3780.55
3807.25
3832.21
3855.12
3875.67
3893.56
3908.53
3920.37
3928.87
3933.84
3426.4
3407.27
3386.5
3359.86
3333.45
3308.14
3284.32
3262.11
3241.63
3222.87
3205.84
3190.5
3176.82
3164.74
3154.22
3145.21
3137.67
3131.58
3126.88
3123.58
3121.68
3121.29
3122.27
3124.62
3128.37
3133.54
3140.17
3148.3
3157.97
3169.26
3182.22
3196.89
3213.33
3231.59
3251.69
3273.65
3297.47
3323.09
3350.46
3379.49
3409.77
3441.48
3474.29
3507.93
3542.16
3576.59
3610.84
3644.54
3677.27
3708.58
3738.08
3765.38
3790.08
3811.86
3830.41
3845.46
3856.84
3864.35
3867.91
3866.67
3861.42
3852.17
3839.01
3822.15
3801.82
3778.28
3751.87
3722.97
3691.97
3659.31
3625.41
3590.69
3555.57
3520.42
3485.59
3451.34
3421.17
3389.29
3358.92
3330.18
3303.22
3278.11
3254.93
3233.71
3214.47
3197.2
3181.9
3168.53
3157.05
3147.41
3139.57
3133.45
3128.99
3126.1
3124.74
3124.86
3126.36
3129.22
3133.41
3138.92
3145.75
3153.92
3163.45
3174.38
3186.75
3200.61
3216
3232.95
3251.5
3271.65
3293.41
3316.77
3341.69
3368.11
3395.94
3425.08
3455.4
3486.75
3518.85
3551.5
3584.42
3617.32
3649.87
3681.68
3712.38
3741.56
3768.79
3793.65
3815.76
3834.71
3850.18
3861.86
3869.53
3873.01
3872.15
3867.06
3857.73
3844.29
3826.96
3806.01
3781.78
3754.64
3725.02
3693.38
3660.19
3625.94
3591.11
3556.18
3521.57
3487.72
3454.93
3423.5
3393.66
3365.6
3339.41
3315.17
3292.9
3272.58
3254.17
3237.6
3222.8
3209.67
3198.13
3188.1
3179.51
3172.29
3166.39
3161.75
3158.34
3156.13
3155.11
3155.27
3156.6
3159.12
3162.87
3167.89
3174.22
3181.93
3191.09
3201.76
3214.02
3227.94
3243.58
3260.99
3280.23
3301.3
3324.21
3348.93
3375.41
3403.54
3433.19
3464.18
3496.29
3529.27
3562.77
3596.47
3630
3662.97
3694.95
3725.54
3754.3
3780.83
3804.74
3825.67
3843.29
3857.33
3867.56
3873.84
3876.04
3874.12
3868.2
3858.33
3844.67
3827.46
3806.98
3783.55
3757.54
3729.34
3699.33
3667.94
3635.57
3602.6
3569.42
3536.37
3503.79
3471.96
3441.13
3411.53
3383.32
3356.65
3331.61
3308.28
3286.71
3266.91
3248.89
3232.63
3218.11
3205.29
3194.14
3184.61
3176.65
3170.23
3165.31
3161.85
3159.84
3159.24
3160.03
3162.19
3165.72
3170.61
3176.89
3184.56
3193.66
3204.2
3216.22
3229.75
3244.83
3261.48
3279.73
3299.61
3321.1
3344.21
3368.9
3395.11
3422.76
3451.71
3481.82
3512.91
3544.78
3577.03
3609.35
3641.44
3672.92
3703.43
3732.56
3759.92
3785.11
3807.76
3827.5
3844.03
3857.07
3866.38
3871.8
3873.25
3870.65
3864.06
3853.55
3839.27
3821.44
3800.34
3776.31
3749.71
3720.97
3690.51
3658.76
3626.17
3593.16
3560.14
3527.54
3495.93
3465.34
3435.63
3407.07
3379.88
3354.23
3330.24
3307.96
3287.42
3268.61
3251.52
3236.12
3222.35
3210.18
3199.55
3190.43
3182.76
3176.52
3171.69
3168.25
3166.21
3165.59
3166.49
3168.83
3172.64
3177.91
3184.69
3193
3202.87
3214.32
3227.4
3242.12
3258.5
3276.54
3296.23
3317.52
3340.37
3364.69
3390.39
3417.34
3445.38
3474.34
3504.36
3534.55
3564.95
3595.27
3625.2
3654.43
3682.6
3709.35
3734.38
3757.35
3777.95
3795.89
3810.91
3822.78
3831.31
3836.3
3328.03
3308.94
3288.03
3261.38
3234.95
3209.64
3185.81
3163.61
3143.13
3124.39
3107.37
3092.05
3078.38
3066.31
3055.81
3046.81
3039.29
3033.2
3028.51
3025.21
3023.29
3022.91
3023.9
3026.25
3029.99
3035.15
3041.77
3049.88
3059.55
3070.82
3083.76
3098.42
3114.85
3133.09
3153.18
3175.14
3198.95
3224.58
3251.96
3280.99
3311.32
3343.06
3375.91
3409.6
3443.89
3478.39
3512.72
3546.51
3579.33
3610.73
3640.32
3667.7
3692.49
3714.34
3732.95
3748.06
3759.48
3767.02
3770.59
3769.36
3764.09
3754.81
3741.6
3724.68
3704.28
3680.65
3654.15
3625.16
3594.07
3561.32
3527.33
3492.53
3457.33
3422.12
3387.22
3352.88
3322.74
3290.79
3260.39
3231.65
3204.68
3179.57
3156.39
3135.17
3115.94
3098.68
3083.4
3070.04
3058.57
3048.95
3041.12
3035.02
3030.57
3027.7
3026.36
3026.49
3027.99
3030.86
3035.05
3040.55
3047.38
3055.54
3065.06
3075.98
3088.35
3102.19
3117.57
3134.51
3153.05
3173.2
3194.96
3218.31
3243.24
3269.66
3297.51
3326.67
3357.01
3388.4
3420.54
3453.23
3486.21
3519.18
3551.8
3583.7
3614.48
3643.75
3671.07
3696.03
3718.22
3737.26
3752.8
3764.54
3772.24
3775.74
3774.9
3769.78
3760.41
3746.91
3729.51
3708.49
3684.16
3656.92
3627.2
3595.45
3562.16
3527.81
3492.89
3457.88
3423.21
3389.29
3356.45
3324.99
3295.13
3267.05
3240.86
3216.63
3194.37
3174.07
3155.68
3139.13
3124.35
3111.24
3099.72
3089.71
3081.14
3073.93
3068.04
3063.41
3060.01
3057.8
3056.78
3056.94
3058.26
3060.78
3064.52
3069.53
3075.85
3083.54
3092.68
3103.34
3115.58
3129.48
3145.11
3162.51
3181.73
3202.79
3225.7
3250.43
3276.91
3305.06
3334.73
3365.76
3397.91
3430.95
3464.51
3498.28
3531.89
3564.94
3597.02
3627.69
3656.55
3683.17
3707.16
3728.17
3745.86
3759.95
3770.23
3776.52
3778.73
3776.81
3770.86
3760.95
3747.23
3729.95
3709.39
3685.88
3659.78
3631.49
3601.4
3569.92
3537.46
3504.42
3471.17
3438.06
3405.43
3373.56
3342.7
3313.07
3284.84
3258.16
3233.12
3209.79
3188.22
3168.43
3150.41
3134.17
3119.66
3106.85
3095.71
3086.19
3078.24
3071.83
3066.92
3063.47
3061.46
3060.87
3061.66
3063.82
3067.34
3072.24
3078.51
3086.17
3095.26
3105.79
3117.81
3131.33
3146.39
3163.04
3181.28
3201.15
3222.64
3245.75
3270.44
3296.66
3324.32
3353.3
3383.44
3414.57
3446.5
3478.8
3511.18
3543.35
3574.91
3605.5
3634.71
3662.15
3687.44
3710.17
3729.99
3746.58
3759.67
3769.03
3774.48
3775.93
3773.34
3766.72
3756.17
3741.84
3723.93
3702.76
3678.64
3651.94
3623.1
3592.55
3560.71
3528.04
3494.94
3461.85
3429.19
3397.57
3366.94
3337.2
3308.6
3281.4
3255.74
3231.75
3209.47
3188.93
3170.14
3153.07
3137.67
3123.92
3111.76
3101.15
3092.03
3084.37
3078.14
3073.32
3069.88
3067.84
3067.21
3068.11
3070.45
3074.25
3079.51
3086.29
3094.59
3104.45
3115.89
3128.96
3143.67
3160.04
3178.08
3197.77
3219.07
3241.92
3266.26
3291.98
3318.95
3347.01
3376.01
3406.07
3436.3
3466.76
3497.14
3527.14
3556.44
3584.68
3611.5
3636.61
3659.65
3680.32
3698.33
3713.4
3725.32
3733.88
3738.89
3229.57
3210.59
3189.5
3162.82
3136.38
3111.05
3087.22
3065.03
3044.57
3025.84
3008.84
2993.53
2979.88
2967.83
2957.34
2948.36
2940.84
2934.76
2930.08
2926.78
2924.85
2924.48
2925.47
2927.82
2931.55
2936.7
2943.3
2951.41
2961.05
2972.31
2985.23
2999.87
3016.29
3034.51
3054.59
3076.54
3100.35
3125.98
3153.38
3182.42
3212.81
3244.57
3277.47
3311.22
3345.58
3380.17
3414.6
3448.49
3481.41
3512.92
3542.62
3570.11
3594.99
3616.94
3635.63
3650.81
3662.27
3669.85
3673.43
3672.2
3666.91
3657.59
3644.33
3627.34
3606.85
3583.12
3556.52
3527.41
3496.21
3463.34
3429.24
3394.34
3359.06
3323.77
3288.81
3254.39
3224.21
3192.2
3161.78
3133.02
3106.04
3080.94
3057.76
3036.55
3017.33
3000.09
2984.81
2971.47
2960.02
2950.42
2942.61
2936.52
2932.09
2929.24
2927.92
2928.05
2929.57
2932.44
2936.63
2942.14
2948.96
2957.11
2966.62
2977.53
2989.88
3003.71
3019.07
3036
3054.53
3074.67
3096.42
3119.78
3144.71
3171.15
3199.01
3228.19
3258.56
3290
3322.18
3354.93
3387.98
3421.03
3453.74
3485.73
3516.62
3546
3573.43
3598.5
3620.8
3639.94
3655.56
3667.37
3675.12
3678.64
3677.8
3672.66
3663.24
3649.68
3632.2
3611.07
3586.63
3559.27
3529.43
3497.56
3464.14
3429.68
3394.65
3359.54
3324.78
3290.79
3257.9
3226.4
3196.52
3168.42
3142.23
3118
3095.76
3075.48
3057.11
3040.59
3025.83
3012.75
3001.25
2991.26
2982.7
2975.51
2969.63
2965.02
2961.62
2959.42
2958.4
2958.56
2959.88
2962.39
2966.12
2971.11
2977.42
2985.09
2994.22
3004.85
3017.07
3030.95
3046.56
3063.94
3083.15
3104.2
3127.11
3151.84
3178.34
3206.5
3236.21
3267.27
3299.48
3332.58
3366.22
3400.08
3433.78
3466.93
3499.11
3529.9
3558.86
3585.59
3609.69
3630.79
3648.56
3662.72
3673.05
3679.37
3681.59
3679.66
3673.68
3663.71
3649.92
3632.56
3611.91
3588.29
3562.09
3533.69
3503.49
3471.91
3439.35
3406.22
3372.89
3339.71
3307.02
3275.1
3244.2
3214.54
3186.29
3159.59
3134.54
3111.21
3089.65
3069.86
3051.86
3035.63
3021.13
3008.34
2997.21
2987.71
2979.77
2973.37
2968.47
2965.03
2963.03
2962.44
2963.23
2965.39
2968.92
2973.8
2980.07
2987.73
2996.81
3007.33
3019.33
3032.84
3047.89
3064.52
3082.76
3102.61
3124.1
3147.21
3171.91
3198.14
3225.81
3254.82
3285
3316.18
3348.17
3380.54
3413
3445.25
3476.91
3507.6
3536.92
3564.46
3589.85
3612.67
3632.59
3649.26
3662.42
3671.83
3677.32
3678.78
3676.18
3669.54
3658.94
3644.54
3626.55
3605.28
3581.05
3554.24
3525.29
3494.62
3462.67
3429.89
3396.7
3363.51
3330.79
3299.17
3268.49
3238.7
3210.07
3182.84
3157.17
3133.18
3110.9
3090.38
3071.6
3054.54
3039.16
3025.43
3013.28
3002.68
2993.58
2985.93
2979.71
2974.89
2971.45
2969.41
2968.77
2969.67
2972.01
2975.8
2981.06
2987.82
2996.11
3005.96
3017.39
3030.45
3045.16
3061.52
3079.55
3099.24
3120.54
3143.41
3167.76
3193.49
3220.49
3248.59
3277.62
3307.74
3338.02
3368.55
3399.01
3429.08
3458.47
3486.79
3513.71
3538.9
3562.03
3582.79
3600.87
3616.01
3627.99
3636.59
3641.63
3130.98
3112.23
3090.91
3064.2
3037.73
3012.39
2988.56
2966.37
2945.92
2927.21
2910.23
2894.94
2881.31
2869.28
2858.81
2849.84
2842.34
2836.27
2831.6
2828.3
2826.35
2826
2826.99
2829.33
2833.06
2838.2
2844.78
2852.87
2862.5
2873.73
2886.63
2901.25
2917.65
2935.86
2955.92
2977.86
3001.67
3027.3
3054.71
3083.77
3114.21
3146.02
3178.97
3212.8
3247.25
3281.93
3316.47
3350.48
3383.53
3415.16
3444.99
3472.6
3497.6
3519.65
3538.44
3553.69
3565.22
3572.83
3576.43
3575.21
3569.89
3560.52
3547.19
3530.12
3509.53
3485.69
3458.96
3429.72
3398.38
3365.38
3331.16
3296.15
3260.76
3225.38
3190.34
3155.86
3125.58
3093.53
3063.08
3034.31
3007.32
2982.22
2959.04
2937.84
2918.63
2901.4
2886.15
2872.82
2861.39
2851.81
2844.03
2837.96
2833.55
2830.72
2829.42
2829.56
2831.09
2833.97
2838.17
2843.67
2850.48
2858.62
2868.12
2879.02
2891.35
2905.16
2920.51
2937.43
2955.94
2976.07
2997.82
3021.18
3046.11
3072.56
3100.44
3129.65
3160.05
3191.55
3223.79
3256.6
3289.73
3322.87
3355.68
3387.79
3418.8
3448.3
3475.87
3501.07
3523.5
3542.75
3558.47
3570.35
3578.16
3581.71
3580.88
3575.71
3566.24
3552.6
3535.02
3513.77
3489.21
3461.71
3431.72
3399.7
3366.14
3331.54
3296.38
3261.16
3226.3
3192.23
3159.27
3127.72
3097.81
3069.7
3043.51
3019.29
2997.06
2976.8
2958.46
2941.97
2927.24
2914.19
2902.72
2892.76
2884.22
2877.04
2871.18
2866.57
2863.19
2860.99
2859.98
2860.13
2861.45
2863.95
2867.66
2872.64
2878.93
2886.58
2895.69
2906.3
2918.49
2932.35
2947.93
2965.3
2984.49
3005.53
3028.44
3053.17
3079.68
3107.87
3137.61
3168.72
3200.99
3234.17
3267.9
3301.85
3335.66
3368.93
3401.24
3432.15
3461.25
3488.1
3512.32
3533.53
3551.4
3565.64
3576.02
3582.38
3584.61
3582.67
3576.65
3566.62
3552.75
3535.29
3514.53
3490.79
3464.46
3435.93
3405.61
3373.91
3341.24
3308.01
3274.59
3241.32
3208.56
3176.58
3145.63
3115.94
3087.66
3060.95
3035.89
3012.56
2991
2971.23
2953.24
2937.02
2922.54
2909.77
2898.65
2889.16
2881.24
2874.85
2869.96
2866.53
2864.54
2863.96
2864.75
2866.91
2870.43
2875.32
2881.58
2889.23
2898.29
2908.8
2920.79
2934.28
2949.32
2965.94
2984.16
3004.01
3025.49
3048.6
3073.3
3099.54
3127.24
3156.28
3186.5
3217.73
3249.81
3282.25
3314.81
3347.15
3378.92
3409.73
3439.17
3466.84
3492.34
3515.28
3535.31
3552.08
3565.31
3574.78
3580.31
3581.79
3579.18
3572.51
3561.85
3547.37
3529.29
3507.9
3483.55
3456.61
3427.52
3396.72
3364.64
3331.74
3298.43
3265.14
3232.33
3200.72
3169.98
3140.13
3111.46
3084.21
3058.53
3034.52
3012.26
2991.74
2972.98
2955.93
2940.58
2926.87
2914.74
2904.15
2895.06
2887.43
2881.21
2876.4
2872.97
2870.93
2870.28
2871.18
2873.51
2877.3
2882.54
2889.3
2897.58
2907.41
2918.83
2931.88
2946.57
2962.92
2980.95
3000.64
3021.94
3044.82
3069.19
3094.95
3121.98
3150.11
3179.18
3209.37
3239.71
3270.32
3300.86
3331.03
3360.52
3388.95
3415.97
3441.26
3464.5
3485.35
3503.53
3518.74
3530.79
3539.44
3544.5
3032.29
3013.87
2992.26
2965.5
2938.99
2913.64
2889.81
2867.63
2847.19
2828.5
2811.55
2796.28
2782.68
2770.67
2760.21
2751.27
2743.78
2737.73
2733.06
2729.77
2727.81
2727.47
2728.46
2730.79
2734.51
2739.63
2746.2
2754.27
2763.87
2775.08
2787.96
2802.56
2818.93
2837.12
2857.17
2879.1
2902.91
2928.54
2955.96
2985.05
3015.55
3047.4
3080.42
3114.33
3148.87
3183.67
3218.33
3252.48
3285.67
3317.46
3347.43
3375.18
3400.31
3422.48
3441.37
3456.71
3468.31
3475.97
3479.59
3478.37
3473.02
3463.6
3450.2
3433.03
3412.32
3388.35
3361.47
3332.08
3300.59
3267.45
3233.08
3197.93
3162.43
3126.95
3091.83
3057.3
3026.84
2994.77
2964.3
2935.51
2908.51
2883.4
2860.24
2839.04
2819.85
2802.64
2787.4
2774.1
2762.69
2753.14
2745.37
2739.33
2734.95
2732.14
2730.86
2731.02
2732.56
2735.45
2739.65
2745.15
2751.95
2760.08
2769.56
2780.44
2792.75
2806.55
2821.88
2838.78
2857.28
2877.4
2899.15
2922.51
2947.44
2973.91
3001.81
3031.05
3061.49
3093.04
3125.34
3158.24
3191.46
3224.7
3257.63
3289.86
3321.02
3350.67
3378.39
3403.74
3426.3
3445.68
3461.52
3473.5
3481.37
3484.95
3484.13
3478.92
3469.39
3455.66
3437.97
3416.59
3391.87
3364.22
3334.06
3301.87
3268.15
3233.39
3198.09
3162.73
3127.76
3093.6
3060.56
3028.96
2999.02
2970.89
2944.69
2920.48
2898.28
2878.04
2859.74
2843.28
2828.59
2815.57
2804.13
2794.19
2785.68
2778.52
2772.67
2768.08
2764.71
2762.52
2761.51
2761.66
2762.97
2765.46
2769.16
2774.12
2780.39
2788.02
2797.09
2807.68
2819.85
2833.68
2849.23
2866.58
2885.75
2906.78
2929.68
2954.42
2980.94
3009.16
3038.94
3070.11
3102.44
3135.71
3169.54
3203.6
3237.54
3270.95
3303.39
3334.46
3363.7
3390.7
3415.06
3436.4
3454.37
3468.7
3479.15
3485.55
3487.79
3485.84
3479.77
3469.67
3455.71
3438.14
3417.25
3393.38
3366.9
3338.23
3307.77
3275.93
3243.13
3209.78
3176.25
3142.89
3110.04
3077.99
3047
3017.26
2988.96
2962.23
2937.16
2913.83
2892.28
2872.51
2854.54
2838.34
2823.88
2811.12
2800.03
2790.55
2782.65
2776.28
2771.4
2767.98
2765.99
2765.42
2766.22
2768.38
2771.9
2776.78
2783.03
2790.67
2799.72
2810.22
2822.19
2835.67
2850.69
2867.29
2885.49
2905.33
2926.81
2949.91
2974.62
3000.88
3028.6
3057.67
3087.94
3119.24
3151.41
3183.94
3216.6
3249.06
3280.95
3311.89
3341.47
3369.28
3394.92
3418
3438.14
3455.02
3468.35
3477.88
3483.46
3484.95
3482.34
3475.63
3464.91
3450.34
3432.15
3410.63
3386.13
3359.04
3329.8
3298.84
3266.62
3233.58
3200.14
3166.72
3133.81
3102.22
3071.41
3041.5
3012.78
2985.49
2959.8
2935.79
2913.53
2893.03
2874.28
2857.26
2841.93
2828.24
2816.13
2805.57
2796.49
2788.87
2782.67
2777.86
2774.43
2772.39
2771.74
2772.63
2774.96
2778.74
2783.97
2790.71
2798.98
2808.79
2820.2
2833.23
2847.91
2864.25
2882.28
2901.96
2923.27
2946.16
2970.55
2996.34
3023.4
3051.58
3080.7
3110.97
3141.38
3172.07
3202.71
3232.99
3262.59
3291.13
3318.27
3343.69
3367.04
3388.01
3406.29
3421.6
3433.71
3442.42
3447.52
2933.48
2915.49
2893.56
2866.72
2840.18
2814.81
2790.97
2768.81
2748.38
2729.72
2712.79
2697.56
2683.97
2671.99
2661.56
2652.63
2645.17
2639.12
2634.47
2631.19
2629.22
2628.88
2629.87
2632.2
2635.9
2641.01
2647.56
2655.6
2665.18
2676.37
2689.22
2703.79
2720.13
2738.3
2758.33
2780.25
2804.06
2829.7
2857.13
2886.25
2916.8
2948.71
2981.8
3015.81
3050.46
3085.39
3120.19
3154.5
3187.85
3219.8
3249.93
3277.84
3303.12
3325.43
3344.44
3359.88
3371.55
3379.27
3382.92
3381.69
3376.31
3366.83
3353.35
3336.07
3315.23
3291.11
3264.07
3234.51
3202.84
3169.53
3135
3099.7
3064.07
3028.47
2993.27
2958.71
2927.99
2895.92
2865.42
2836.62
2809.61
2784.5
2761.34
2740.16
2720.98
2703.79
2688.57
2675.3
2663.92
2654.39
2646.65
2640.64
2636.28
2633.5
2632.25
2632.42
2633.98
2636.88
2641.08
2646.57
2653.37
2661.49
2670.95
2681.81
2694.1
2707.88
2723.19
2740.07
2758.55
2778.66
2800.4
2823.76
2848.7
2875.18
2903.11
2932.38
2962.86
2994.49
3026.86
3059.84
3093.16
3126.52
3159.58
3191.96
3223.27
3253.09
3280.98
3306.5
3329.23
3348.76
3364.72
3376.8
3384.74
3388.36
3387.54
3382.3
3372.7
3358.88
3341.05
3319.52
3294.64
3266.8
3236.46
3204.08
3170.17
3135.24
3099.77
3064.27
3029.17
2994.89
2961.78
2930.12
2900.13
2871.99
2845.79
2821.59
2799.4
2779.2
2760.93
2744.52
2729.86
2716.88
2705.47
2695.57
2687.08
2679.95
2674.12
2669.54
2666.18
2664
2662.99
2663.14
2664.44
2666.92
2670.61
2675.55
2681.79
2689.4
2698.44
2708.99
2721.13
2734.93
2750.46
2767.78
2786.93
2807.95
2830.84
2855.58
2882.12
2910.37
2940.2
2971.42
3003.84
3037.21
3071.14
3105.34
3139.42
3172.97
3205.58
3236.81
3266.22
3293.39
3317.9
3339.38
3357.48
3371.91
3382.44
3388.88
3391.13
3389.17
3383.05
3372.87
3358.81
3341.11
3320.07
3296.05
3269.41
3240.58
3209.95
3177.96
3145.02
3111.53
3077.87
3044.41
3011.47
2979.35
2948.29
2918.51
2890.18
2863.43
2838.35
2815.02
2793.47
2773.72
2755.76
2739.58
2725.14
2712.41
2701.34
2691.88
2683.99
2677.64
2672.78
2669.37
2667.4
2666.82
2667.63
2669.79
2673.31
2678.18
2684.42
2692.05
2701.09
2711.57
2723.52
2736.98
2751.98
2768.57
2786.76
2806.58
2828.05
2851.15
2875.87
2902.14
2929.89
2959
2989.32
3020.69
3052.97
3085.6
3118.38
3150.96
3183
3214.09
3243.82
3271.79
3297.59
3320.81
3341.1
3358.1
3371.52
3381.14
3386.76
3388.28
3385.66
3378.91
3368.11
3353.45
3335.13
3313.46
3288.8
3261.54
3232.12
3200.99
3168.6
3135.4
3101.82
3068.26
3035.22
3003.68
2972.79
2942.79
2914.02
2886.7
2860.99
2836.98
2814.73
2794.24
2775.51
2758.52
2743.21
2729.54
2717.46
2706.92
2697.86
2690.25
2684.06
2679.26
2675.84
2673.79
2673.13
2674.03
2676.35
2680.12
2685.34
2692.06
2700.31
2710.11
2721.5
2734.52
2749.18
2765.51
2783.53
2803.21
2824.53
2847.43
2871.84
2897.66
2924.77
2953
2982.16
3012.53
3043
3073.79
3104.55
3134.95
3164.68
3193.36
3220.63
3246.18
3269.66
3290.76
3309.16
3324.57
3336.77
3345.54
3350.68
2834.56
2817.09
2794.8
2767.88
2741.29
2715.89
2692.06
2669.9
2649.5
2630.86
2613.96
2598.76
2585.21
2573.25
2562.85
2553.94
2546.49
2540.47
2535.83
2532.55
2530.58
2530.25
2531.23
2533.55
2537.24
2542.33
2548.86
2556.88
2566.43
2577.58
2590.4
2604.94
2621.26
2639.4
2659.42
2681.32
2705.12
2730.77
2758.22
2787.38
2817.98
2849.95
2883.13
2917.23
2952.01
2987.09
3022.05
3056.52
3090.06
3122.19
3152.5
3180.58
3206.03
3228.49
3247.64
3263.19
3274.95
3282.72
3286.41
3285.17
3279.76
3270.21
3256.64
3239.24
3218.25
3193.96
3166.74
3136.99
3105.13
3071.63
3036.92
3001.46
2965.67
2929.95
2894.65
2860.09
2829.03
2796.98
2766.46
2737.64
2710.62
2685.51
2662.35
2641.19
2622.02
2604.86
2589.66
2576.41
2565.06
2555.56
2547.86
2541.88
2537.55
2534.8
2533.57
2533.77
2535.35
2538.25
2542.45
2547.95
2554.73
2562.84
2572.28
2583.12
2595.39
2609.14
2624.43
2641.28
2659.75
2679.85
2701.58
2724.94
2749.89
2776.38
2804.34
2833.65
2864.17
2895.88
2928.32
2961.4
2994.83
3028.32
3061.53
3094.08
3125.56
3155.57