/*--------------------------------*- C++ -*----------------------------------*\
| =========                 |                                                 |
| \\      /  F ield         | OpenFOAM: The Open Source CFD Toolbox           |
|  \\    /   O peration     | Version:  3.0.1                                 |
|   \\  /    A nd           | Web:      www.OpenFOAM.org                      |
|    \\/     M anipulation  |                                                 |
\*---------------------------------------------------------------------------*/
FoamFile
{
    version     2.0;
    format      ascii;
    class       surfaceScalarField;
    location    "88.2";
    object      alphaPhi;
}
// * * * * * * * * * * * * * * * * * * * * * * * * * * * * * * * * * * * * * //

dimensions      [0 3 -1 0 0 0 0];

internalField   nonuniform List<scalar> 
42423
(
0.000292883
1.61237e-05
0.000276835
1.60481e-05
0.000260877
1.59572e-05
0.000245083
1.57944e-05
0.000229793
1.52897e-05
0.000214992
1.48009e-05
0.000200892
1.41006e-05
0.00018749
1.34017e-05
0.000174808
1.26822e-05
0.000162979
1.18286e-05
0.000151982
1.09971e-05
0.000141809
1.01734e-05
0.000132507
9.30197e-06
0.000124033
8.47365e-06
0.000116387
7.64633e-06
0.000109527
6.8595e-06
0.00010342
6.10686e-06
9.80329e-05
5.38733e-06
9.33224e-05
4.7105e-06
8.92388e-05
4.0836e-06
8.57507e-05
3.48807e-06
8.28118e-05
2.93891e-06
8.03744e-05
2.43736e-06
7.84185e-05
1.95591e-06
7.68856e-05
1.53289e-06
7.57655e-05
1.12004e-06
7.50074e-05
7.58125e-07
7.4583e-05
4.24442e-07
7.44696e-05
1.13407e-07
7.4677e-05
-2.07475e-07
7.51191e-05
-4.42071e-07
7.58567e-05
-7.37619e-07
7.68319e-05
-9.7516e-07
7.81397e-05
-1.30787e-06
7.97665e-05
-1.62674e-06
8.16282e-05
-1.86172e-06
8.38722e-05
-2.24403e-06
8.65279e-05
-2.65573e-06
8.95281e-05
-3.00013e-06
9.30087e-05
-3.48067e-06
9.69501e-05
-3.94138e-06
0.000101464
-4.51398e-06
0.000106612
-5.14838e-06
0.000112318
-5.7051e-06
0.00011873
-6.41293e-06
0.000125977
-7.24694e-06
0.000133897
-7.9199e-06
0.000142674
-8.77689e-06
0.000152445
-9.77072e-06
0.000162952
-1.05077e-05
0.000174417
-1.14643e-05
0.00018674
-1.23237e-05
0.000199933
-1.31923e-05
0.000214086
-1.41531e-05
0.000228889
-1.48034e-05
0.000244317
-1.54277e-05
0.000260372
-1.60557e-05
0.000276715
-1.63427e-05
0.0002933
-1.6585e-05
0.00030992
-1.66198e-05
0.000326344
-1.64243e-05
0.000342511
-1.61673e-05
0.000358241
-1.57295e-05
0.000373349
-1.51085e-05
0.000387857
-1.45083e-05
0.000401529
-1.36716e-05
0.000414249
-1.27202e-05
0.000425722
-1.1473e-05
0.000435575
-9.8539e-06
0.00044326
-7.68483e-06
0.000448163
-4.90256e-06
0.000450224
-2.06098e-06
0.000449159
1.06452e-06
0.000444253
4.9064e-06
0.000435419
8.83334e-06
0.00042334
1.20794e-05
0.000408532
1.48075e-05
0.000391636
1.68959e-05
0.000373605
1.80317e-05
0.000355383
1.82215e-05
0.000337651
1.77322e-05
0.000320352
1.72987e-05
0.000303929
1.6423e-05
0.000288284
1.5645e-05
0.000273106
1.51785e-05
0.000258294
1.48118e-05
0.000243742
1.45522e-05
0.000229314
1.44282e-05
0.000215059
1.42549e-05
0.000201167
1.38919e-05
0.000187752
1.34148e-05
0.000174947
1.28052e-05
0.000162825
1.2122e-05
0.000151416
1.14089e-05
0.000140726
1.069e-05
0.000130672
1.00538e-05
0.000121147
9.52576e-06
0.000112172
8.97479e-06
0.00010364
8.53174e-06
9.54867e-05
8.15352e-06
8.77107e-05
7.77604e-06
8.03352e-05
7.37547e-06
7.33696e-05
6.96564e-06
6.68439e-05
6.52574e-06
6.08066e-05
6.03736e-06
5.52803e-05
5.52625e-06
5.0303e-05
4.97734e-06
4.58806e-05
4.42239e-06
4.20423e-05
3.83835e-06
3.87988e-05
3.24344e-06
3.61272e-05
2.67169e-06
3.40115e-05
2.11568e-06
3.24604e-05
1.55106e-06
3.14591e-05
1.00134e-06
3.10374e-05
4.21742e-07
3.11487e-05
-1.11353e-07
3.17973e-05
-6.48573e-07
3.30331e-05
-1.23581e-06
3.48172e-05
-1.78409e-06
3.71236e-05
-2.30634e-06
3.99892e-05
-2.86567e-06
4.3403e-05
-3.41379e-06
4.73378e-05
-3.93481e-06
5.18162e-05
-4.47841e-06
5.68576e-05
-5.04139e-06
6.24372e-05
-5.5796e-06
6.85906e-05
-6.15341e-06
7.53269e-05
-6.73628e-06
8.26617e-05
-7.33478e-06
9.06133e-05
-7.95164e-06
9.92428e-05
-8.62952e-06
0.000108542
-9.29938e-06
0.000118487
-9.94511e-06
0.000129167
-1.06795e-05
0.000140567
-1.14005e-05
0.000152697
-1.213e-05
0.000165589
-1.28921e-05
0.000179172
-1.35823e-05
0.000193398
-1.42263e-05
0.000208275
-1.48768e-05
0.000223685
-1.54108e-05
0.000239514
-1.58283e-05
0.000255659
-1.61449e-05
0.000271959
-1.63008e-05
0.000288305
-1.63458e-05
0.000304559
-1.62535e-05
0.00032055
-1.59911e-05
0.000336073
-1.55231e-05
0.000350955
-1.48819e-05
0.000365001
-1.40463e-05
0.000378012
-1.30108e-05
0.000389793
-1.17808e-05
0.000400135
-1.03412e-05
0.000408847
-8.71232e-06
0.000415755
-6.90792e-06
0.000420714
-4.95843e-06
0.000423568
-2.85423e-06
0.000424283
-7.14102e-07
0.000422788
1.49549e-06
0.000418905
3.88321e-06
0.000412758
6.1468e-06
0.000404446
8.31303e-06
0.000394064
1.03817e-05
0.00038177
1.2294e-05
0.000367758
1.40131e-05
0.000352248
1.55097e-05
0.00033546
1.67888e-05
0.000317656
1.78044e-05
0.000299097
1.8559e-05
0.00028003
1.90669e-05
0.000260771
1.9259e-05
0.000241536
1.92356e-05
0.000222614
1.89225e-05
0.000204199
1.84154e-05
0.00018652
1.76791e-05
0.000169721
1.67988e-05
0.000153926
1.57948e-05
0.000139194
1.47319e-05
0.000125556
1.36387e-05
0.000113129
1.24267e-05
0.000101872
1.12572e-05
9.18508e-05
1.00212e-05
8.29196e-05
8.93121e-06
7.50531e-05
7.86653e-06
6.821e-05
6.84316e-06
6.23169e-05
5.89311e-06
5.73594e-05
4.95752e-06
5.32968e-05
4.06256e-06
5.00915e-05
3.20533e-06
4.78027e-05
2.28881e-06
4.63561e-05
1.4466e-06
4.57649e-05
5.91277e-07
4.59434e-05
-1.78513e-07
4.68358e-05
-8.92404e-07
4.84012e-05
-1.56543e-06
5.05148e-05
-2.11359e-06
5.31554e-05
-2.64053e-06
5.62789e-05
-3.12354e-06
5.97986e-05
-3.51962e-06
6.37394e-05
-3.94084e-06
6.80107e-05
-4.27125e-06
7.26429e-05
-4.63222e-06
7.75674e-05
-4.92451e-06
8.27082e-05
-5.14071e-06
8.80955e-05
-5.38727e-06
9.36838e-05
-5.58831e-06
9.94489e-05
-5.76513e-06
0.0001054
-5.9511e-06
0.000111508
-6.10771e-06
0.000117728
-6.22036e-06
0.000124148
-6.41999e-06
0.000130803
-6.65506e-06
0.000137585
-6.78166e-06
0.000144679
-7.09374e-06
0.000152036
-7.35706e-06
0.000159599
-7.5633e-06
0.000167565
-7.96603e-06
0.000175858
-8.29238e-06
0.000184599
-8.74158e-06
0.00019385
-9.25124e-06
0.000203589
-9.73844e-06
0.000213897
-1.03083e-05
0.000224785
-1.08883e-05
0.000236326
-1.15403e-05
0.00024844
-1.21147e-05
0.00026108
-1.26401e-05
0.000274214
-1.3134e-05
0.00028783
-1.36153e-05
0.000301838
-1.40088e-05
0.000316037
-1.41984e-05
0.000330304
-1.42679e-05
0.000344409
-1.41043e-05
0.000358158
-1.37495e-05
0.000371388
-1.32299e-05
0.000383777
-1.23897e-05
0.00039512
-1.13426e-05
0.000405189
-1.0069e-05
0.000413763
-8.57483e-06
0.000420689
-6.9259e-06
0.000425758
-5.06896e-06
0.000428864
-3.10629e-06
0.000429886
-1.02145e-06
0.000428862
1.02363e-06
0.000425619
3.24315e-06
0.000420226
5.39287e-06
0.000412855
7.37003e-06
0.000403528
9.32757e-06
0.000392478
1.10493e-05
0.00037993
1.25484e-05
0.000366072
1.38577e-05
0.000351191
1.48812e-05
0.000335574
1.56165e-05
0.000319507
1.6067e-05
0.000303292
1.62147e-05
0.000287219
1.60723e-05
0.000271563
1.56566e-05
0.000256432
1.51304e-05
0.000242078
1.43537e-05
0.000228532
1.35459e-05
0.000215807
1.27248e-05
0.000204018
1.17896e-05
0.000193139
1.08787e-05
0.00018306
1.00788e-05
0.000173716
9.34428e-06
0.000164906
8.80953e-06
0.00015663
8.27649e-06
0.000148916
7.71376e-06
0.000141633
7.28228e-06
0.000134809
6.82375e-06
0.000128452
6.35777e-06
0.000122563
5.88788e-06
0.000117166
5.39732e-06
0.000112187
4.9788e-06
0.000107651
4.53541e-06
0.000103629
4.02218e-06
0.000100133
3.49581e-06
9.7075e-05
3.05749e-06
9.45776e-05
2.49704e-06
9.25819e-05
1.99536e-06
9.11171e-05
1.4645e-06
9.02955e-05
8.21243e-07
8.98693e-05
4.2593e-07
8.98012e-05
6.77601e-08
9.0404e-05
-6.03081e-07
9.14394e-05
-1.03572e-06
9.29136e-05
-1.4745e-06
9.48359e-05
-1.9225e-06
9.70221e-05
-2.18646e-06
9.96034e-05
-2.58149e-06
0.000102458
-2.85526e-06
0.000105532
-3.0735e-06
0.000108915
-3.38286e-06
0.000112583
-3.66894e-06
0.000116563
-3.97945e-06
0.000120971
-4.40819e-06
0.000125877
-4.90594e-06
0.000131404
-5.5274e-06
0.000137597
-6.19334e-06
0.000144656
-7.05899e-06
0.000152579
-7.92327e-06
0.000161551
-8.97185e-06
0.000171615
-1.00643e-05
0.000182691
-1.10758e-05
0.000195004
-1.23133e-05
0.000208518
-1.3514e-05
0.000222972
-1.44539e-05
0.000238602
-1.56302e-05
0.000255032
-1.64306e-05
0.000272249
-1.72169e-05
0.000290107
-1.78579e-05
0.000308025
-1.79188e-05
0.000325917
-1.78913e-05
0.000343724
-1.78074e-05
0.00036096
-1.72366e-05
0.000377459
-1.64988e-05
0.000392912
-1.54534e-05
0.000407095
-1.41834e-05
0.000419746
-1.26512e-05
0.000430613
-1.08664e-05
0.000439534
-8.92194e-06
0.000446381
-6.84635e-06
0.000450999
-4.6189e-06
0.00045328
-2.28133e-06
0.000453093
1.87442e-07
0.000450456
2.63659e-06
0.000445632
4.82372e-06
0.000438573
7.05953e-06
0.000429646
8.92639e-06
0.000419102
1.05441e-05
0.00040677
1.23316e-05
0.000393148
1.36216e-05
0.000378534
1.46146e-05
0.000362873
1.56603e-05
0.000346654
1.6219e-05
0.000330011
1.66428e-05
0.000313256
1.67556e-05
0.000296565
1.66902e-05
0.000279972
1.65933e-05
0.00026378
1.61917e-05
0.000248072
1.57082e-05
0.000232872
1.51997e-05
0.000218354
1.45187e-05
0.0002045
1.38535e-05
0.000191383
1.31173e-05
0.000178975
1.24078e-05
0.000167241
1.17335e-05
0.000156209
1.10327e-05
0.00014583
1.03789e-05
0.000136063
9.76674e-06
0.000126903
9.16024e-06
0.000118313
8.58937e-06
0.000110275
8.03807e-06
0.000102771
7.50372e-06
9.57898e-05
6.98147e-06
8.93413e-05
6.44851e-06
8.34376e-05
5.9036e-06
5.39259e-06
0.000292887
3.22533e-05
0.000276833
3.21015e-05
0.000260871
3.192e-05
0.000245071
3.15941e-05
0.000229777
3.05837e-05
0.000214972
2.96054e-05
0.000200869
2.82041e-05
0.000187465
2.68058e-05
0.000174781
2.53662e-05
0.000162951
2.36584e-05
0.000151953
2.19947e-05
0.000141779
2.03478e-05
0.000132476
1.86051e-05
0.000124002
1.69467e-05
0.000116358
1.52907e-05
0.0001095
1.37177e-05
0.000103393
1.22137e-05
9.80055e-05
1.07748e-05
9.32955e-05
9.42049e-06
8.92124e-05
8.16675e-06
8.57236e-05
6.97687e-06
8.27849e-05
5.8776e-06
8.03481e-05
4.8741e-06
7.83916e-05
3.9124e-06
7.68595e-05
3.06496e-06
7.574e-05
2.23961e-06
7.49812e-05
1.51691e-06
7.45564e-05
8.49187e-07
7.4443e-05
2.26802e-07
7.46495e-05
-4.13927e-07
7.50878e-05
-8.80432e-07
7.58236e-05
-1.47345e-06
7.6801e-05
-1.95253e-06
7.81016e-05
-2.60844e-06
7.9726e-05
-3.25117e-06
8.15902e-05
-3.726e-06
8.38308e-05
-4.48459e-06
8.64834e-05
-5.30837e-06
8.94738e-05
-5.99052e-06
9.29521e-05
-6.95903e-06
9.68798e-05
-7.86909e-06
0.000101392
-9.02663e-06
0.000106548
-1.03041e-05
0.000112252
-1.14093e-05
0.000118668
-1.28285e-05
0.000125918
-1.44971e-05
0.000133845
-1.58471e-05
0.000142623
-1.75549e-05
0.000152392
-1.954e-05
0.000162893
-2.1009e-05
0.000174359
-2.29304e-05
0.000186684
-2.46484e-05
0.00019988
-2.63879e-05
0.000214049
-2.83231e-05
0.00022886
-2.96144e-05
0.000244294
-3.08613e-05
0.00026036
-3.21222e-05
0.000276712
-3.2695e-05
0.000293312
-3.31851e-05
0.000309948
-3.32554e-05
0.000326386
-3.28627e-05
0.00034257
-3.23512e-05
0.000358303
-3.14632e-05
0.000373402
-3.02078e-05
0.000387902
-2.90084e-05
0.000401575
-2.73448e-05
0.000414298
-2.5443e-05
0.000425763
-2.29382e-05
0.000435632
-1.97232e-05
0.000443369
-1.54216e-05
0.00044831
-9.84379e-06
0.000450404
-4.15479e-06
0.000449348
2.11997e-06
0.000444454
9.80056e-06
0.000435633
1.76545e-05
0.000423561
2.41508e-05
0.000408763
2.9606e-05
0.000391877
3.37816e-05
0.000373853
3.60554e-05
0.000355643
3.64314e-05
0.000337925
3.54505e-05
0.000320628
3.45952e-05
0.000304205
3.28465e-05
0.000288574
3.12757e-05
0.000273408
3.03453e-05
0.000258601
2.96184e-05
0.000244046
2.91076e-05
0.000229609
2.88646e-05
0.000215354
2.85104e-05
0.000201449
2.77966e-05
0.000188025
2.68395e-05
0.000175215
2.56154e-05
0.000163087
2.42497e-05
0.000151683
2.28134e-05
0.000140991
2.13818e-05
0.000130931
2.01142e-05
0.00012141
1.90467e-05
0.000112438
1.7947e-05
0.0001039
1.70696e-05
9.57404e-05
1.63129e-05
8.79605e-05
1.5556e-05
8.05855e-05
1.47505e-05
7.36275e-05
1.39237e-05
6.71017e-05
1.30515e-05
6.10588e-05
1.20803e-05
5.55184e-05
1.10667e-05
5.05326e-05
9.96322e-06
4.61287e-05
8.82626e-06
4.22918e-05
7.67529e-06
3.90378e-05
6.49746e-06
3.63545e-05
5.35504e-06
3.42452e-05
4.22492e-06
3.26986e-05
3.09769e-06
3.16943e-05
2.00571e-06
3.12621e-05
8.53892e-07
3.13758e-05
-2.25042e-07
3.20299e-05
-1.30263e-06
3.32659e-05
-2.47184e-06
3.50484e-05
-3.56652e-06
3.73524e-05
-4.61038e-06
4.02211e-05
-5.73435e-06
4.36246e-05
-6.81731e-06
4.75608e-05
-7.87092e-06
5.20478e-05
-8.96545e-06
5.70837e-05
-1.00772e-05
6.26738e-05
-1.11696e-05
6.88161e-05
-1.22957e-05
7.55495e-05
-1.34696e-05
8.28875e-05
-1.46728e-05
9.08383e-05
-1.59024e-05
9.94671e-05
-1.72584e-05
0.00010876
-1.85919e-05
0.000118706
-1.98911e-05
0.00012939
-2.13643e-05
0.000140794
-2.28039e-05
0.000152923
-2.42595e-05
0.000165814
-2.57829e-05
0.000179399
-2.71667e-05
0.000193633
-2.84605e-05
0.000208508
-2.97523e-05
0.000223934
-3.08362e-05
0.000239759
-3.16537e-05
0.000255911
-3.22968e-05
0.000272217
-3.26065e-05
0.000288568
-3.26973e-05
0.000304837
-3.25223e-05
0.000320833
-3.19867e-05
0.000336366
-3.10567e-05
0.000351252
-2.97673e-05
0.000365299
-2.80938e-05
0.000378325
-2.60362e-05
0.000390118
-2.35744e-05
0.000400479
-2.07014e-05
0.000409211
-1.74447e-05
0.000416129
-1.38257e-05
0.00042109
-9.91879e-06
0.000423942
-5.70601e-06
0.000424653
-1.42553e-06
0.000423142
3.00684e-06
0.000419263
7.76247e-06
0.000413119
1.22916e-05
0.000404801
1.66307e-05
0.000394423
2.07598e-05
0.00038212
2.45973e-05
0.000368086
2.80477e-05
0.000352561
3.10353e-05
0.000335768
3.35824e-05
0.000317949
3.56229e-05
0.000299371
3.71376e-05
0.00028029
3.81485e-05
0.000261009
3.85402e-05
0.000241761
3.84839e-05
0.00022282
3.78633e-05
0.000204371
3.6864e-05
0.000186669
3.53813e-05
0.00016985
3.36187e-05
0.000154035
3.161e-05
0.00013928
2.94865e-05
0.000125627
2.72923e-05
0.000113181
2.48718e-05
0.000101904
2.25345e-05
9.18601e-05
2.00654e-05
8.29108e-05
1.78806e-05
7.50342e-05
1.57431e-05
6.81779e-05
1.36995e-05
6.22594e-05
1.18116e-05
5.72778e-05
9.93911e-06
5.31929e-05
8.14748e-06
4.99795e-05
6.41881e-06
4.76747e-05
4.59358e-06
4.62142e-05
2.90709e-06
4.56101e-05
1.19545e-06
4.57729e-05
-3.41304e-07
4.6647e-05
-1.76658e-06
4.81989e-05
-3.1173e-06
5.02981e-05
-4.21272e-06
5.29265e-05
-5.26896e-06
5.60326e-05
-6.22954e-06
5.95494e-05
-7.03639e-06
6.34888e-05
-7.88028e-06
6.7756e-05
-8.53839e-06
7.23783e-05
-9.25451e-06
7.72824e-05
-9.82851e-06
8.24433e-05
-1.03016e-05
8.78318e-05
-1.07757e-05
9.34083e-05
-1.11647e-05
9.91761e-05
-1.15328e-05
0.00010513
-1.19053e-05
0.000111235
-1.22121e-05
0.000117457
-1.24427e-05
0.000123896
-1.28588e-05
0.000130553
-1.33119e-05
0.000137335
-1.35637e-05
0.00014442
-1.41788e-05
0.000151785
-1.47222e-05
0.000159381
-1.51584e-05
0.000167359
-1.59442e-05
0.000175648
-1.65811e-05
0.000184382
-1.7476e-05
0.000193645
-1.8514e-05
0.000203405
-1.94989e-05
0.000213722
-2.06246e-05
0.000224617
-2.17837e-05
0.000236174
-2.30974e-05
0.000248297
-2.42376e-05
0.000260946
-2.52895e-05
0.000274095
-2.62826e-05
0.000287722
-2.7242e-05
0.000301736
-2.80231e-05
0.000315942
-2.84045e-05
0.000330224
-2.85498e-05
0.000344342
-2.82226e-05
0.000358105
-2.75121e-05
0.000371346
-2.64713e-05
0.000383749
-2.47927e-05
0.000395109
-2.27027e-05
0.000405183
-2.01432e-05
0.000413762
-1.71541e-05
0.000420692
-1.38566e-05
0.000425761
-1.01379e-05
0.000428874
-6.21893e-06
0.000429906
-2.05416e-06
0.000428861
2.0683e-06
0.00042561
6.49408e-06
0.000420216
1.07866e-05
0.000412835
1.47507e-05
0.000403502
1.86611e-05
0.000392444
2.21066e-05
0.000379875
2.51174e-05
0.000365994
2.77383e-05
0.0003511
2.97753e-05
0.000335466
3.12504e-05
0.000319388
3.21447e-05
0.000303171
3.24322e-05
0.00028709
3.21533e-05
0.000271412
3.13345e-05
0.000256267
3.02749e-05
0.000241901
2.87201e-05
0.000228349
2.70978e-05
0.000215629
2.5444e-05
0.000203861
2.35581e-05
0.000192994
2.17457e-05
0.000182901
2.01721e-05
0.000173548
1.86967e-05
0.000164745
1.76122e-05
0.000156473
1.65492e-05
0.000148762
1.54243e-05
0.000141495
1.45488e-05
0.000134665
1.36543e-05
0.00012831
1.27124e-05
0.000122432
1.1766e-05
0.000117047
1.07813e-05
0.000112089
9.93704e-06
0.000107567
9.05721e-06
0.000103551
8.03793e-06
0.000100061
6.98549e-06
9.7006e-05
6.11216e-06
9.4507e-05
4.99574e-06
9.25075e-05
3.99452e-06
9.10383e-05
2.93337e-06
9.0216e-05
1.64312e-06
8.9788e-05
8.53664e-07
8.97167e-05
1.38703e-07
9.03174e-05
-1.20419e-06
9.1349e-05
-2.06763e-06
9.28183e-05
-2.94405e-06
9.47359e-05
-3.84044e-06
9.69194e-05
-4.3702e-06
9.94999e-05
-5.16215e-06
0.000102356
-5.71139e-06
0.000105432
-6.14971e-06
0.000108818
-6.76913e-06
0.000112491
-7.34186e-06
0.000116473
-7.96232e-06
0.000120885
-8.81958e-06
0.000125794
-9.81522e-06
0.000131325
-1.10582e-05
0.000137517
-1.23862e-05
0.000144577
-1.41189e-05
0.0001525
-1.58461e-05
0.000161471
-1.79431e-05
0.000171532
-2.01262e-05
0.000182602
-2.21451e-05
0.000194906
-2.46181e-05
0.000208409
-2.70167e-05
0.000222861
-2.89066e-05
0.000238495
-3.12642e-05
0.000254932
-3.28677e-05
0.000272143
-3.44291e-05
0.000289959
-3.56733e-05
0.000307878
-3.58385e-05
0.000325833
-3.58471e-05
0.000343683
-3.56571e-05
0.000360933
-3.44868e-05
0.000377448
-3.3015e-05
0.000392913
-3.09181e-05
0.000407088
-2.83593e-05
0.000419746
-2.53094e-05
0.00043064
-2.17609e-05
0.000439578
-1.78595e-05
0.000446431
-1.37001e-05
0.000451058
-9.24617e-06
0.000453352
-4.57551e-06
0.00045316
3.79556e-07
0.000450518
5.27791e-06
0.000445708
9.63305e-06
0.000438653
1.41142e-05
0.000429722
1.78576e-05
0.000419171
2.10949e-05
0.00040683
2.46719e-05
0.000393199
2.72527e-05
0.000378575
2.92386e-05
0.000362904
3.13306e-05
0.000346675
3.24485e-05
0.000330022
3.3295e-05
0.000313257
3.35205e-05
0.000296558
3.33895e-05
0.000279957
3.31932e-05
0.000263761
3.23877e-05
0.000248051
3.14186e-05
0.000232849
3.04014e-05
0.000218329
2.90386e-05
0.000204475
2.77074e-05
0.000191358
2.62343e-05
0.000178951
2.48149e-05
0.000167218
2.34658e-05
0.000156187
2.20634e-05
0.00014581
2.07564e-05
0.000136044
1.95326e-05
0.000126885
1.83189e-05
0.000118297
1.71775e-05
0.000110258
1.60768e-05
0.000102753
1.50085e-05
9.57716e-05
1.39632e-05
8.9322e-05
1.2898e-05
8.34167e-05
1.18089e-05
1.07864e-05
0.000292892
4.83983e-05
0.000276825
4.81685e-05
0.00026085
4.78951e-05
0.000245039
4.74047e-05
0.000229736
4.58869e-05
0.000214923
4.44177e-05
0.000200814
4.23136e-05
0.000187406
4.02141e-05
0.000174718
3.80532e-05
0.000162887
3.54901e-05
0.000151888
3.29932e-05
0.000141715
3.05215e-05
0.000132412
2.79071e-05
0.00012394
2.5419e-05
0.000116297
2.29338e-05
0.000109441
2.05732e-05
0.000103338
1.83169e-05
9.79544e-05
1.61586e-05
9.32485e-05
1.41264e-05
8.91682e-05
1.2247e-05
8.56826e-05
1.04625e-05
8.27471e-05
8.81305e-06
8.03088e-05
7.3124e-06
7.83554e-05
5.86582e-06
7.68246e-05
4.59573e-06
7.57049e-05
3.35933e-06
7.49484e-05
2.2734e-06
7.45237e-05
1.27392e-06
7.44123e-05
3.38178e-07
7.46216e-05
-6.23261e-07
7.50597e-05
-1.31848e-06
7.57947e-05
-2.20846e-06
7.67669e-05
-2.92474e-06
7.80672e-05
-3.90883e-06
7.96922e-05
-4.87615e-06
8.15474e-05
-5.58119e-06
8.37803e-05
-6.71749e-06
8.6428e-05
-7.95614e-06
8.94094e-05
-8.97191e-06
9.28821e-05
-1.04317e-05
9.68078e-05
-1.17948e-05
0.00010131
-1.35285e-05
0.000106467
-1.54618e-05
0.000112165
-1.71073e-05
0.000118575
-1.92387e-05
0.000125831
-2.17533e-05
0.000133753
-2.37683e-05
0.000142517
-2.63188e-05
0.000152296
-2.93192e-05
0.0001628
-3.15135e-05
0.000174267
-3.43975e-05
0.000186597
-3.69787e-05
0.000199793
-3.95833e-05
0.00021397
-4.25005e-05
0.000228794
-4.44389e-05
0.000244241
-4.6308e-05
0.00026033
-4.82115e-05
0.000276704
-4.90686e-05
0.000293326
-4.98078e-05
0.000309985
-4.99137e-05
0.000326441
-4.9319e-05
0.000342645
-4.85558e-05
0.00035839
-4.72084e-05
0.000373477
-4.52953e-05
0.000387949
-4.34798e-05
0.000401601
-4.09976e-05
0.000414334
-3.81755e-05
0.000425817
-3.4421e-05
0.000435716
-2.96226e-05
0.000443549
-2.32553e-05
0.00044864
-1.49346e-05
0.000450765
-6.28016e-06
0.000449629
3.25662e-06
0.000444739
1.46896e-05
0.000435942
2.6452e-05
0.000423889
3.6203e-05
0.000409106
4.43896e-05
0.000392241
5.06469e-05
0.000374237
5.40593e-05
0.000356048
5.462e-05
0.00033835
5.31482e-05
0.000321063
5.18828e-05
0.000304646
4.92628e-05
0.000289034
4.6888e-05
0.000273896
4.54832e-05
0.000259108
4.44066e-05
0.000244554
4.36621e-05
0.000230104
4.33142e-05
0.000215836
4.27784e-05
0.000201928
4.17049e-05
0.000188496
4.02713e-05
0.000175681
3.84309e-05
0.000163548
3.63823e-05
0.000152139
3.42221e-05
0.000141452
3.20692e-05
0.000131398
3.01685e-05
0.000121892
2.85522e-05
0.000112906
2.69333e-05
0.000104362
2.56141e-05
9.62063e-05
2.44682e-05
8.84308e-05
2.33315e-05
8.10586e-05
2.21228e-05
7.41006e-05
2.08816e-05
6.7572e-05
1.95802e-05
6.15165e-05
1.81358e-05
5.59874e-05
1.65957e-05
5.09929e-05
1.49578e-05
4.65855e-05
1.32336e-05
4.27363e-05
1.15245e-05
3.94897e-05
9.74412e-06
3.68119e-05
8.03283e-06
3.47018e-05
6.33505e-06
3.31404e-05
4.65903e-06
3.2136e-05
3.01018e-06
3.17071e-05
1.28274e-06
3.18179e-05
-3.35794e-07
3.24689e-05
-1.95365e-06
3.37083e-05
-3.71123e-06
3.54885e-05
-5.34667e-06
3.77914e-05
-6.91322e-06
4.06555e-05
-8.59845e-06
4.40597e-05
-1.02215e-05
4.79919e-05
-1.18032e-05
5.248e-05
-1.34535e-05
5.75141e-05
-1.51114e-05
6.30961e-05
-1.67516e-05
6.92395e-05
-1.84391e-05
7.5965e-05
-2.01951e-05
8.32969e-05
-2.20048e-05
9.12454e-05
-2.38508e-05
9.98712e-05
-2.58842e-05
0.000109157
-2.78775e-05
0.0001191
-2.98344e-05
0.000129784
-3.20486e-05
0.00014119
-3.42092e-05
0.00015331
-3.63795e-05
0.000166195
-3.86682e-05
0.000179786
-4.07573e-05
0.000194033
-4.27074e-05
0.000208912
-4.46318e-05
0.000224326
-4.62497e-05
0.000240164
-4.74923e-05
0.00025632
-4.84527e-05
0.000272644
-4.89308e-05
0.000289008
-4.90606e-05
0.000305281
-4.87956e-05
0.000321282
-4.79878e-05
0.000336823
-4.65973e-05
0.000351728
-4.46724e-05
0.000365796
-4.21616e-05
0.00037884
-3.90802e-05
0.00039065
-3.53849e-05
0.00040102
-3.10706e-05
0.000409758
-2.61831e-05
0.000416691
-2.07577e-05
0.000421668
-1.48957e-05
0.000424534
-8.57208e-06
0.000425244
-2.13542e-06
0.000423689
4.56177e-06
0.000419816
1.16361e-05
0.000413681
1.84274e-05
0.000405358
2.49531e-05
0.000394962
3.11569e-05
0.000382645
3.69146e-05
0.000368602
4.20902e-05
0.000353063
4.65752e-05
0.000336249
5.03967e-05
0.00031841
5.34613e-05
0.000299802
5.57464e-05
0.000280682
5.72682e-05
0.000261367
5.78561e-05
0.000242086
5.77651e-05
0.000223119
5.68306e-05
0.00020464
5.53425e-05
0.00018691
5.31111e-05
0.000170057
5.04723e-05
0.000154208
4.74594e-05
0.000139413
4.42811e-05
0.000125734
4.09717e-05
0.000113266
3.73395e-05
0.000101953
3.38472e-05
9.18887e-05
3.013e-05
8.29109e-05
2.68583e-05
7.49992e-05
2.36549e-05
6.81107e-05
2.05879e-05
6.21724e-05
1.775e-05
5.71614e-05
1.49501e-05
5.30431e-05
1.22658e-05
4.97977e-05
9.66416e-06
4.7464e-05
6.92724e-06
4.59679e-05
4.40321e-06
4.53323e-05
1.8311e-06
4.54695e-05
-4.78526e-07
4.63186e-05
-2.6156e-06
4.78392e-05
-4.63791e-06
4.9919e-05
-6.29248e-06
5.2527e-05
-7.87697e-06
5.56095e-05
-9.31194e-06
5.91042e-05
-1.05311e-05
6.30247e-05
-1.18007e-05
6.72757e-05
-1.27894e-05
7.18939e-05
-1.38726e-05
7.67906e-05
-1.47252e-05
8.19428e-05
-1.54538e-05
8.73348e-05
-1.61676e-05
9.29161e-05
-1.6746e-05
9.86867e-05
-1.73034e-05
0.000104646
-1.78642e-05
0.000110761
-1.83278e-05
0.000117
-1.86811e-05
0.000123448
-1.93067e-05
0.000130105
-1.99686e-05
0.000136903
-2.03616e-05
0.000143999
-2.12747e-05
0.000151357
-2.20803e-05
0.000158961
-2.27623e-05
0.00016696
-2.39426e-05
0.000175267
-2.4888e-05
0.000184011
-2.62202e-05
0.000193275
-2.77777e-05
0.000203041
-2.92653e-05
0.000213374
-3.09574e-05
0.000224289
-3.26983e-05
0.000235854
-3.46627e-05
0.000247983
-3.63662e-05
0.000260648
-3.79549e-05
0.000273805
-3.94399e-05
0.000287442
-4.08784e-05
0.000301472
-4.20533e-05
0.000315699
-4.26317e-05
0.000329991
-4.28419e-05
0.000344131
-4.23624e-05
0.000357922
-4.13026e-05
0.000371181
-3.97305e-05
0.000383601
-3.72132e-05
0.000394975
-3.4076e-05
0.000405076
-3.02443e-05
0.000413683
-2.57621e-05
0.000420624
-2.07972e-05
0.0004257
-1.52143e-05
0.000428819
-9.3374e-06
0.000429863
-3.09835e-06
0.00042881
3.1204e-06
0.000425557
9.74695e-06
0.000420157
1.61866e-05
0.000412757
2.21505e-05
0.000403393
2.80249e-05
0.000392325
3.31747e-05
0.000379738
3.77036e-05
0.000365835
4.1641e-05
0.000350918
4.46927e-05
0.000335252
4.69155e-05
0.000319148
4.82494e-05
0.000302901
4.86791e-05
0.000286791
4.82625e-05
0.000271095
4.70302e-05
0.000255939
4.54311e-05
0.000241565
4.3094e-05
0.000228004
4.06582e-05
0.000215287
3.81614e-05
0.000203542
3.5303e-05
0.000192674
3.26137e-05
0.000182565
3.02806e-05
0.00017321
2.80516e-05
0.000164423
2.63999e-05
0.000156167
2.48046e-05
0.000148457
2.3134e-05
0.000141204
2.18019e-05
0.000134378
2.04801e-05
0.000128049
1.9041e-05
0.000122194
1.76206e-05
0.000116832
1.61434e-05
0.000111903
1.48665e-05
0.000107407
1.35521e-05
0.000103415
1.20298e-05
9.99453e-05
1.04551e-05
9.68998e-05
9.15734e-06
9.44099e-05
7.48528e-06
9.24174e-05
5.98669e-06
9.09336e-05
4.41682e-06
9.00878e-05
2.48851e-06
8.96689e-05
1.27221e-06
8.96172e-05
1.90017e-07
9.02198e-05
-1.80708e-06
9.12431e-05
-3.09121e-06
9.27007e-05
-4.40194e-06
9.46114e-05
-5.75148e-06
9.67865e-05
-6.54549e-06
9.93641e-05
-7.73999e-06
0.000102222
-8.56997e-06
0.000105299
-9.22625e-06
0.00010869
-1.01603e-05
0.000112369
-1.10214e-05
0.000116356
-1.1949e-05
0.000120771
-1.3235e-05
0.000125684
-1.47286e-05
0.000131215
-1.65895e-05
0.000137414
-1.85844e-05
0.000144476
-2.11813e-05
0.000152398
-2.37689e-05
0.000161367
-2.69119e-05
0.000171423
-3.01824e-05
0.00018248
-3.32025e-05
0.000194764
-3.69017e-05
0.000208241
-4.04942e-05
0.00022266
-4.33256e-05
0.000238258
-4.68626e-05
0.00025467
-4.92807e-05
0.000271869
-5.1628e-05
0.000289715
-5.35192e-05
0.00030767
-5.37946e-05
0.000325642
-5.38191e-05
0.000343499
-5.35148e-05
0.000360756
-5.17432e-05
0.000377292
-4.95514e-05
0.000392786
-4.64126e-05
0.00040701
-4.25834e-05
0.000419726
-3.8026e-05
0.000430651
-3.26859e-05
0.000439588
-2.67975e-05
0.000446456
-2.0568e-05
0.000451105
-1.38953e-05
0.000453426
-6.89696e-06
0.000453251
5.54419e-07
0.000450628
7.90099e-06
0.000445854
1.44066e-05
0.000438803
2.11647e-05
0.000429859
2.68009e-05
0.000419293
3.1661e-05
0.000406935
3.70299e-05
0.000393285
4.09027e-05
0.000378641
4.38817e-05
0.000362952
4.70202e-05
0.000346704
4.86961e-05
0.000330034
4.99647e-05
0.000313253
5.03014e-05
0.00029654
5.01024e-05
0.000279928
4.98048e-05
0.000263723
4.85931e-05
0.000248004
4.71371e-05
0.000232797
4.56087e-05
0.000218273
4.35621e-05
0.000204418
4.15627e-05
0.000191301
3.93511e-05
0.000178895
3.72206e-05
0.000167165
3.51962e-05
0.000156136
3.30923e-05
0.000145761
3.11315e-05
0.000135998
2.92957e-05
0.000126841
2.74754e-05
0.000118254
2.57645e-05
0.000110216
2.41147e-05
0.000102712
2.25122e-05
9.57308e-05
2.09446e-05
8.92805e-05
1.93483e-05
8.33739e-05
1.77155e-05
1.61818e-05
0.000292899
6.45662e-05
0.000276812
6.42558e-05
0.000260818
6.38888e-05
0.000244991
6.32318e-05
0.000229674
6.12039e-05
0.00021485
5.92413e-05
0.000200732
5.6432e-05
0.000187317
5.36292e-05
0.000174625
5.07446e-05
0.000162791
4.73243e-05
0.000151792
4.39928e-05
0.000141618
4.06947e-05
0.000132318
3.72078e-05
0.000123848
3.38884e-05
0.000116208
3.05737e-05
0.000109357
2.74248e-05
0.000103258
2.44157e-05
9.78792e-05
2.15372e-05
9.31787e-05
1.88269e-05
8.91025e-05
1.63231e-05
8.56201e-05
1.39449e-05
8.26895e-05
1.17437e-05
8.0253e-05
9.74891e-06
7.83006e-05
7.81818e-06
7.67698e-05
6.12649e-06
7.56529e-05
4.47621e-06
7.48968e-05
3.02955e-06
7.4472e-05
1.6987e-06
7.43634e-05
4.46773e-07
7.45786e-05
-8.38486e-07
7.50162e-05
-1.75607e-06
7.57488e-05
-2.94108e-06
7.67176e-05
-3.89351e-06
7.80139e-05
-5.20516e-06
7.96343e-05
-6.49661e-06
8.14801e-05
-7.42694e-06
8.37058e-05
-8.94318e-06
8.63491e-05
-1.05995e-05
8.93157e-05
-1.19385e-05
9.27754e-05
-1.38914e-05
9.66821e-05
-1.57016e-05
0.000101173
-1.80192e-05
0.000106332
-2.06212e-05
0.000112025
-2.27996e-05
0.000118428
-2.5642e-05
0.000125691
-2.90164e-05
0.000133608
-3.16855e-05
0.000142367
-3.50776e-05
0.000152153
-3.91057e-05
0.000162654
-4.2014e-05
0.000174121
-4.58648e-05
0.000186454
-4.93115e-05
0.000199654
-5.27837e-05
0.000213851
-5.66978e-05
0.000228695
-5.92827e-05
0.000244161
-6.17744e-05
0.000260283
-6.43331e-05
0.000276686
-6.54726e-05
0.000293344
-6.64651e-05
0.000310038
-6.66081e-05
0.000326532
-6.58129e-05
0.000342765
-6.47896e-05
0.000358523
-6.2966e-05
0.000373596
-6.03691e-05
0.000388039
-5.79224e-05
0.000401652
-5.46112e-05
0.000414362
-5.08848e-05
0.000425841
-4.59008e-05
0.000435806
-3.95878e-05
0.000443808
-3.12566e-05
0.000449114
-2.02406e-05
0.000451309
-8.47553e-06
0.000450057
4.50843e-06
0.000445163
1.95837e-05
0.000436402
3.52124e-05
0.000424378
4.82272e-05
0.000409621
5.91463e-05
0.000392789
6.74793e-05
0.000374816
7.20321e-05
0.000356652
7.27837e-05
0.000338973
7.08273e-05
0.000321695
6.91609e-05
0.000305295
6.56633e-05
0.000289718
6.24642e-05
0.000274625
6.05769e-05
0.000259861
5.91699e-05
0.000245304
5.82196e-05
0.000230837
5.77812e-05
0.000216554
5.70619e-05
0.000202635
5.56234e-05
0.000189198
5.37085e-05
0.000176374
5.12547e-05
0.000164234
4.85223e-05
0.000152819
4.56372e-05
0.000142126
4.27624e-05
0.000132076
4.02182e-05
0.000122608
3.80203e-05
0.000113613
3.59282e-05
0.000105057
3.41709e-05
9.69067e-05
3.26181e-05
8.91365e-05
3.11016e-05
8.17648e-05
2.94945e-05
7.48016e-05
2.78449e-05
6.82676e-05
2.61141e-05
6.22122e-05
2.41913e-05
5.66705e-05
2.21374e-05
5.16871e-05
1.99412e-05
4.72693e-05
1.76514e-05
4.34247e-05
1.53691e-05
4.01768e-05
1.2992e-05
3.74934e-05
1.07163e-05
3.53687e-05
8.45972e-06
3.38232e-05
6.20452e-06
3.28091e-05
4.02434e-06
3.23713e-05
1.7205e-06
3.24794e-05
-4.43873e-07
3.31229e-05
-2.5971e-06
3.43575e-05
-4.94586e-06
3.61357e-05
-7.12485e-06
3.8434e-05
-9.21147e-06
4.13032e-05
-1.14677e-05
4.47047e-05
-1.3623e-05
4.86338e-05
-1.57322e-05
5.31194e-05
-1.7939e-05
5.81467e-05
-2.01387e-05
6.37216e-05
-2.23265e-05
6.9859e-05
-2.45765e-05
7.65775e-05
-2.69136e-05
8.39072e-05
-2.93344e-05
9.18505e-05
-3.17941e-05