/*--------------------------------*- C++ -*----------------------------------*\
| =========                 |                                                 |
| \\      /  F ield         | OpenFOAM: The Open Source CFD Toolbox           |
|  \\    /   O peration     | Version:  3.0.1                                 |
|   \\  /    A nd           | Web:      www.OpenFOAM.org                      |
|    \\/     M anipulation  |                                                 |
\*---------------------------------------------------------------------------*/
FoamFile
{
    version     2.0;
    format      ascii;
    class       volScalarField;
    location    "88.2";
    object      p_rgh;
}
// * * * * * * * * * * * * * * * * * * * * * * * * * * * * * * * * * * * * * //

dimensions      [1 -1 -2 0 0 0 0];

internalField   nonuniform List<scalar> 
21420
(
169.732
136.701
103.375
69.8661
36.3752
3.15717
-29.4952
-61.3605
-92.2166
-121.839
-150.08
-176.798
-201.863
-225.2
-246.745
-266.471
-284.372
-300.463
-314.79
-327.414
-338.412
-347.876
-355.908
-362.609
-368.087
-372.441
-375.765
-378.142
-379.632
-380.274
-380.07
-379.067
-377.236
-374.539
-370.924
-366.315
-360.667
-353.905
-345.94
-336.735
-326.226
-314.373
-301.134
-286.462
-270.373
-252.878
-233.963
-213.661
-192.015
-169.046
-144.794
-119.347
-92.7684
-65.183
-36.7272
-7.53852
22.1635
52.1346
82.137
111.849
140.947
169.069
195.833
220.865
243.807
264.317
282.117
296.984
308.766
317.413
322.961
325.017
323.123
318.371
310.473
298.469
282.313
262.184
238.212
210.768
180.404
147.704
113.398
78.0429
42.2236
6.41503
-28.9946
-63.6866
-97.3889
-129.893
-161.038
-190.673
-218.674
-244.953
-269.46
-292.186
-313.158
-332.419
-350.03
-366.063
-380.593
-393.687
-405.395
-415.756
-424.799
-432.551
-439.036
-444.282
-448.322
-451.194
-452.937
-453.595
-453.21
-451.826
-449.485
-446.228
-442.099
-437.138
-431.384
-424.869
-417.617
-409.649
-400.975
-391.595
-381.508
-370.705
-359.169
-346.881
-333.816
-319.944
-305.23
-289.635
-273.116
-255.626
-237.133
-217.617
-197.073
-175.53
-153.042
-129.684
-105.574
-80.8559
-55.6884
-30.2583
-4.76971
20.5552
45.4684
69.7164
93.0475
115.198
135.895
154.863
171.828
186.527
198.7
208.108
214.538
217.814
217.712
214.342
207.649
197.552
184.231
167.842
148.6
126.771
102.669
76.6427
49.0744
20.36
-9.09973
-38.9153
-68.7132
-98.1479
-126.918
-154.768
-181.502
-206.967
-231.051
-253.676
-274.803
-294.419
-312.535
-329.181
-344.399
-358.241
-370.763
-382.021
-392.069
-400.96
-408.752
-415.499
-421.259
-426.104
-430.092
-433.287
-435.743
-437.507
-438.62
-439.114
-439.018
-438.348
-437.116
-435.318
-432.938
-429.951
-426.323
-422.009
-416.956
-411.1
-404.362
-396.662
-387.916
-378.024
-366.887
-354.413
-340.49
-325.02
-307.912
-289.082
-268.489
-246.107
-221.938
-196.024
-168.457
-139.367
-108.911
-77.3014
-44.816
-11.7916
21.4091
54.3855
86.6968
117.88
147.44
174.891
199.762
221.583
239.911
254.347
264.553
270.297
271.242
267.542
259.082
245.95
228.389
206.719
181.359
152.778
121.516
88.1399
53.2357
17.3897
-18.8399
-54.9366
-90.4413
-124.951
-158.134
-189.736
-219.543
-247.406
-273.246
-297.025
-318.743
-338.417
-356.086
-371.818
-385.671
-397.706
-408.006
-416.582
-423.499
-428.8
-432.522
-434.684
-435.309
-434.394
-431.967
-428.017
-422.64
-415.895
-407.684
-398.182
-387.419
-375.398
-362.25
-348.149
-333.187
-317.559
-301.344
-284.653
-267.571
-250.124
-232.311
-214.114
-195.451
-176.24
-156.332
-135.623
-113.937
-91.1549
-67.1571
-41.824
-15.1341
12.9079
42.2739
72.7825
104.246
136.348
168.748
201.1
232.997
263.969
293.633
321.567
347.371
370.663
391.094
408.393
422.31
432.658
439.291
442.184
439.944
433.843
424.088
410.858
394.5
375.214
353.339
329.193
303.078
275.426
246.605
216.994
186.945
156.764
126.815
97.3601
68.6232
40.8355
14.1352
-11.3582
-35.5828
-58.5026
-80.0942
-100.379
-119.389
-137.157
-153.731
-169.151
-183.454
-196.67
-208.816
-219.89
-229.882
169.751
136.707
103.368
69.8474
36.3459
3.11816
-29.5427
-61.4153
-92.2775
-121.905
-150.149
-176.871
-201.938
-225.276
-246.821
-266.546
-284.446
-300.535
-314.859
-327.479
-338.473
-347.934
-355.961
-362.658
-368.132
-372.482
-375.803
-378.176
-379.665
-380.306
-380.102
-379.1
-377.27
-374.575
-370.963
-366.356
-360.711
-353.952
-345.989
-336.787
-326.279
-314.428
-301.191
-286.52
-270.431
-252.937
-234.022
-213.72
-192.074
-169.104
-144.852
-119.403
-92.8217
-65.2329
-36.7722
-7.57713
22.1329
52.1135
82.1272
111.851
140.964
169.101
195.881
220.929
243.886
264.41
282.223
297.101
308.889
317.541
323.088
325.157
323.266
318.533
310.645
298.641
282.484
262.347
238.364
210.902
180.517
147.794
113.463
78.0843
42.2428
6.41399
-29.0135
-63.7213
-97.4368
-129.953
-161.107
-190.749
-218.754
-245.036
-269.544
-292.27
-313.24
-332.498
-350.106
-366.135
-380.663
-393.754
-405.461
-415.82
-424.863
-432.613
-439.096
-444.341
-448.38
-451.249
-452.991
-453.647
-453.261
-451.875
-449.533
-446.274
-442.144
-437.182
-431.427
-424.911
-417.659
-409.691
-401.017
-391.639
-381.553
-370.75
-359.216
-346.929
-333.866
-319.997
-305.285
-289.693
-273.177
-255.689
-237.199
-217.684
-197.14
-175.596
-153.106
-129.745
-105.631
-80.9077
-55.7337
-30.2959
-4.79842
20.5364
45.46
69.7191
93.0621
115.225
135.935
154.916
171.895
186.605
198.79
208.208
214.647
217.94
217.826
214.453
207.76
197.659
184.329
167.929
148.672
126.828
102.709
76.6651
49.0792
20.3477
-9.12802
-38.9581
-68.7687
-98.2135
-126.991
-154.847
-181.585
-207.051
-231.135
-253.759
-274.884
-294.498
-312.611
-329.254
-344.468
-358.307
-370.826
-382.081
-392.127
-401.015
-408.804
-415.549
-421.306
-426.148
-430.134
-433.328
-435.781
-437.544
-438.656
-439.149
-439.053
-438.383
-437.15
-435.353
-432.974
-429.989
-426.363
-422.051
-417.001
-411.148
-404.414
-396.718
-387.976
-378.088
-366.956
-354.486
-340.568
-325.103
-307.999
-289.173
-268.582
-246.201
-222.031
-196.116
-168.545
-139.449
-108.987
-77.3674
-44.8706
-11.8327
21.3838
54.3775
86.7078
117.91
147.491
174.963
199.855
221.696
240.042
254.492
264.712
270.462
271.419
267.705
259.243
246.102
228.526
206.838
181.456
152.852
121.565
88.1643
53.2359
17.3675
-18.8822
-54.9964
-90.5156
-125.036
-158.228
-189.837
-219.648
-247.513
-273.353
-297.133
-318.849
-338.52
-356.187
-371.915
-385.765
-397.796
-408.091
-416.662
-423.575
-428.871
-432.587
-434.745
-435.364
-434.445
-432.014
-428.059
-422.673
-415.918
-407.705
-398.201
-387.43
-375.403
-362.249
-348.144
-333.178
-317.547
-301.331
-284.641
-267.561
-250.117
-232.309
-214.118
-195.463
-176.26
-156.362
-135.661
-113.984
-91.2096
-67.2181
-41.8893
-15.2015
12.841
42.2105
72.7253
104.198
136.312
168.725
201.093
233.006
263.996
293.678
321.63
347.452
370.76
391.205
408.516
422.443
432.799
439.439
442.348
440.075
433.966
424.21
410.975
394.605
375.306
353.415
329.253
303.121
275.453
246.616
216.989
186.927
156.734
126.775
97.3116
68.5683
40.7759
14.0726
-11.4222
-35.6469
-58.5658
-80.1555
-100.438
-119.446
-137.211
-153.782
-169.2
-183.501
-196.716
-208.86
-219.934
-229.926
169.79
136.718
103.354
69.8099
36.2871
3.0401
-29.6377
-61.5248
-92.3994
-122.037
-150.289
-177.017
-202.089
-225.429
-246.975
-266.698
-284.595
-300.679
-314.997
-327.61
-338.596
-348.048
-356.066
-362.755
-368.22
-372.563
-375.878
-378.245
-379.73
-380.37
-380.167
-379.165
-377.338
-374.647
-371.04
-366.438
-360.798
-354.045
-346.087
-336.889
-326.385
-314.538
-301.304
-286.635
-270.548
-253.054
-234.139
-213.838
-192.191
-169.219
-144.965
-119.513
-92.9272
-65.3313
-36.8606
-7.65277
22.0733
52.0733
82.1095
111.859
141
169.168
195.98
221.059
244.048
264.6
282.438
297.336
309.139
317.798
323.345
325.445
323.552
318.861
310.99
298.989
282.828
262.678
238.669
211.173
180.747
147.977
113.599
78.1736
42.2885
6.41999
-29.0425
-63.7809
-97.5222
-130.06
-161.233
-190.888
-218.903
-245.19
-269.699
-292.423
-313.388
-332.64
-350.241
-366.264
-380.786
-393.873
-405.575
-415.931
-424.97
-432.718
-439.198
-444.439
-448.474
-451.34
-453.078
-453.73
-453.34
-451.951
-449.605
-446.344
-442.21
-437.245
-431.488
-424.97
-417.718
-409.749
-401.076
-391.698
-381.614
-370.814
-359.282
-346.999
-333.939
-320.074
-305.367
-289.781
-273.27
-255.787
-237.301
-217.789
-197.246
-175.701
-153.207
-129.84
-105.718
-80.9838
-55.7967
-30.3437
-4.82871
20.5255
45.47
69.7513
93.1182
115.307
136.042
155.049
172.054
186.79
198.998
208.437
214.892
218.205
218.094
214.708
208.011
197.901
184.553
168.129
148.845
126.969
102.816
76.737
49.1157
20.35
-9.15777
-39.0171
-68.853
-98.3184
-127.112
-154.978
-181.723
-207.192
-231.277
-253.9
-275.021
-294.63
-312.737
-329.374
-344.581
-358.413
-370.926
-382.175
-392.215
-401.099
-408.882
-415.622
-421.375
-426.21
-430.192
-433.381
-435.832
-437.591
-438.701
-439.192
-439.095
-438.424
-437.193
-435.396
-433.02
-430.038
-426.416
-422.109
-417.064
-411.217
-404.49
-396.802
-388.068
-378.188
-367.065
-354.605
-340.696
-325.239
-308.142
-289.322
-268.735
-246.355
-222.184
-196.265
-168.688
-139.581
-109.103
-77.4642
-44.9444
-11.8789
21.3692
54.3979
86.7663
118.009
147.63
175.144
200.077
221.956
240.337
254.817
265.061
270.822
271.81
268.065
259.598
246.438
228.833
207.108
181.683
153.031
121.694
88.2442
53.2677
17.3546
-18.9352
-55.0841
-90.6318
-125.175
-158.384
-190.005
-219.823
-247.692
-273.535
-297.313
-319.026
-338.693
-356.355
-372.077
-385.92
-397.944
-408.23
-416.792
-423.695
-428.982
-432.69
-434.838
-435.449
-434.521
-432.082
-428.121
-422.719
-415.946
-407.731
-398.223
-387.438
-375.399
-362.235
-348.121
-333.149
-317.514
-301.296
-284.608
-267.533
-250.097
-232.299
-214.121
-195.482
-176.295
-156.415
-135.733
-114.073
-91.3151
-67.3365
-42.0166
-15.3333
12.7101
42.0865
72.6134
104.104
136.241
168.68
201.079
233.027
264.053
293.771
321.758
347.615
370.955
391.429
408.765
422.711
433.082
439.737
442.674
440.335
434.215
424.455
411.21
394.817
375.489
353.567
329.372
303.207
275.505
246.637
216.981
186.891
156.675
126.695
97.2147
68.4585
40.6567
13.9475
-11.5501
-35.775
-58.692
-80.2782
-100.556
-119.559
-137.319
-153.885
-169.298
-183.595
-196.807
-208.949
-220.021
-230.012
169.848
136.734
103.332
69.7536
36.1988
2.92287
-29.7804
-61.6892
-92.5822
-122.235
-150.5
-177.236
-202.314
-225.658
-247.204
-266.926
-284.818
-300.895
-315.204
-327.806
-338.78
-348.22
-356.225
-362.901
-368.354
-372.685
-375.99
-378.349
-379.828
-380.467
-380.263
-379.264
-377.441
-374.755
-371.155
-366.561
-360.93
-354.184
-346.234
-337.043
-326.545
-314.703
-301.474
-286.807
-270.722
-253.23
-234.315
-214.013
-192.367
-169.393
-145.136
-119.679
-93.0855
-65.479
-36.9936
-7.76651
21.9835
52.0126
82.0827
111.871
141.054
169.267
196.127
221.254
244.29
264.885
282.761
297.69
309.514
318.184
323.726
325.873
323.973
319.361
311.507
299.51
283.345
263.174
239.129
211.581
181.092
148.253
113.803
78.3082
42.3577
6.42957
-29.0855
-63.8698
-97.6498
-130.221
-161.42
-191.096
-219.125
-245.419
-269.931
-292.651
-313.609
-332.851
-350.443
-366.456
-380.97
-394.049
-405.745
-416.096
-425.131
-432.874
-439.35
-444.585
-448.615
-451.475
-453.207
-453.853
-453.458
-452.063
-449.712
-446.446
-442.307
-437.338
-431.577
-425.057
-417.803
-409.834
-401.161
-391.785
-381.703
-370.906
-359.378
-347.1
-334.046
-320.187
-305.487
-289.909
-273.406
-255.932
-237.451
-217.943
-197.402
-175.855
-153.356
-129.98
-105.845
-81.0946
-55.888
-30.4122
-4.87075
20.5126
45.4882
69.8032
93.2059
115.432
136.206
155.252
172.296
187.07
199.314
208.783
215.262
218.588
218.51
215.099
208.393
198.268
184.893
168.434
149.108
127.185
102.981
76.8484
49.1738
20.3565
-9.19954
-39.1028
-68.9767
-98.4731
-127.29
-155.173
-181.928
-207.403
-231.489
-254.109
-275.225
-294.826
-312.925
-329.552
-344.749
-358.572
-371.076
-382.316
-392.348
-401.223
-409
-415.731
-421.478
-426.304
-430.279
-433.462
-435.907
-437.663
-438.769
-439.258
-439.158
-438.488
-437.257
-435.463
-433.09
-430.112
-426.496
-422.196
-417.159
-411.322
-404.605
-396.928
-388.206
-378.338
-367.229
-354.782
-340.886
-325.442
-308.355
-289.545
-268.964
-246.585
-222.412
-196.486
-168.899
-139.775
-109.274
-77.6066
-45.0517
-11.9446
21.351
54.4323
86.8582
118.16
147.843
175.42
200.414
222.352
240.785
255.31
265.59
271.37
272.394
268.617
260.138
246.949
229.299
207.519
182.028
153.304
121.894
88.3691
53.3204
17.3401
-19.0101
-55.2112
-90.8015
-125.378
-158.613
-190.252
-220.081
-247.957
-273.802
-297.579
-319.288
-338.948
-356.602
-372.315
-386.148
-398.16
-408.434
-416.982
-423.872
-429.145
-432.839
-434.975
-435.573
-434.633
-432.183
-428.21
-422.786
-415.987
-407.766
-398.254
-387.448
-375.392
-362.213
-348.087
-333.105
-317.465
-301.245
-284.559
-267.49
-250.067
-232.284
-214.126
-195.509
-176.35
-156.496
-135.842
-114.208
-91.4738
-67.5145
-42.2081
-15.5316
12.513
41.8994
72.4447
103.962
136.133
168.613
201.059
233.058
264.137
293.91
321.951
347.859
371.247
391.765
409.137
423.114
433.507
440.183
443.141
440.744
434.597
424.826
411.562
395.134
375.764
353.796
329.551
303.336
275.584
246.668
216.967
186.837
156.585
126.574
97.0692
68.2935
40.4777
13.7597
-11.7422
-35.9674
-58.8814
-80.4623
-100.733
-119.728
-137.48
-154.038
-169.445
-183.736
-196.944
-209.083
-220.153
-230.142
169.925
136.756
103.303
69.6782
36.0808
2.76632
-29.9709
-61.9087
-92.8263
-122.499
-150.78
-177.529
-202.616
-225.964
-247.511
-267.23
-285.115
-301.183
-315.48
-328.068
-339.026
-348.448
-356.436
-363.095
-368.531
-372.848
-376.139
-378.488
-379.958
-380.594
-380.391
-379.395
-377.577
-374.899
-371.309
-366.726
-361.105
-354.371
-346.43
-337.249
-326.759
-314.923
-301.7
-287.037
-270.955
-253.464
-234.549
-214.248
-192.601
-169.625
-145.364
-119.9
-93.297
-65.6763
-37.1711
-7.91853
21.8635
51.9312
82.0464
111.886
141.125
169.399
196.323
221.514
244.613
265.265
283.191
298.162
310.015
318.7
324.233
326.418
324.547
320.036
312.195
300.206
284.035
263.836
239.742
212.126
181.554
148.622
114.075
78.4878
42.4499
6.4421
-29.1431
-63.9887
-97.8204
-130.436
-161.671
-191.374
-219.422
-245.726
-270.24
-292.956
-313.904
-333.134
-350.712
-366.713
-381.214
-394.283
-405.971
-416.316
-425.345
-433.082
-439.551
-444.78
-448.802
-451.655
-453.379
-454.018
-453.615
-452.213
-449.854
-446.582
-442.436
-437.462
-431.696
-425.173
-417.917
-409.948
-401.275
-391.901
-381.822
-371.029
-359.507
-347.234
-334.188
-320.337
-305.647
-290.08
-273.588
-256.123
-237.652
-218.149
-197.609
-176.06
-153.554
-130.165
-106.014
-81.2421
-56.0095
-30.5033
-4.92656
20.4955
45.5129
69.8726
93.3231
115.599
136.425
155.524
172.62
187.444
199.734
209.244
215.755
219.097
219.055
215.632
208.904
198.757
185.346
168.84
149.458
127.473
103.2
76.9964
49.2508
20.3645
-9.25603
-39.2179
-69.1428
-98.6805
-127.529
-155.434
-182.203
-207.685
-231.772
-254.389
-275.498
-295.089
-313.177
-329.79
-344.975
-358.785
-371.276
-382.505
-392.526
-401.392
-409.158
-415.879
-421.616
-426.431
-430.398
-433.572
-436.011
-437.761
-438.862
-439.348
-439.246
-438.575
-437.345
-435.554
-433.186
-430.214
-426.605
-422.314
-417.289
-411.463
-404.76
-397.099
-388.392
-378.54
-367.449
-355.02
-341.142
-325.715
-308.642
-289.843
-269.27
-246.893
-222.717
-196.783
-169.181
-140.035
-109.504
-77.7968
-45.1952
-12.0326
21.3268
54.4785
86.9808
118.363
148.128
175.789
200.866
222.881
241.385
255.969
266.296
272.104
273.159
269.366
260.861
247.632
229.922
208.068
182.49
153.671
122.161
88.5365
53.391
17.3209
-19.1099
-55.3806
-91.0279
-125.649
-158.918
-190.581
-220.425
-248.311
-274.159
-297.934
-319.637
-339.289
-356.932
-372.632
-386.452
-398.449
-408.705
-417.235
-424.107
-429.362
-433.039
-435.156
-435.738
-434.782
-432.316
-428.328
-422.879
-416.046
-407.811
-398.293
-387.461
-375.382
-362.184
-348.042
-333.047
-317.398
-301.176
-284.494
-267.434
-250.026
-232.265
-214.133
-195.548
-176.421
-156.604
-135.987
-114.388
-91.6857
-67.7522
-42.4641
-15.7969
12.2492
41.6489
72.2186
103.772
135.989
168.523
201.031
233.099
264.249
294.095
322.208
348.184
371.637
392.213
409.635
423.651
434.074
440.774
443.729
441.315
435.126
425.326
412.033
395.558
376.131
354.1
329.79
303.507
275.689
246.709
216.949
186.765
156.464
126.413
96.8748
68.0732
40.2388
13.5089
-11.9986
-36.224
-59.134
-80.7078
-100.969
-119.954
-137.695
-154.243
-169.641
-183.925
-197.126
-209.261
-220.327
-230.316
170.021
136.783
103.267
69.5837
35.9329
2.5702
-30.2094
-62.1835
-93.1317
-122.83
-151.131
-177.895
-202.992
-226.347
-247.895
-267.61
-285.488
-301.544
-315.825
-328.395
-339.334
-348.735
-356.7
-363.337
-368.753
-373.051
-376.326
-378.661
-380.122
-380.754
-380.551
-379.558
-377.747
-375.079
-371.501
-366.931
-361.324
-354.604
-346.676
-337.506
-327.026
-315.199
-301.983
-287.324
-271.245
-253.757
-234.843
-214.541
-192.893
-169.914
-145.648
-120.177
-93.5616
-65.9233
-37.3936
-8.10914
21.7129
51.8288
82.0005
111.904
141.214
169.564
196.567
221.84
245.016
265.741
283.73
298.752
310.645
319.349
324.872
327.072
325.267
320.876
313.05
301.075
284.898
264.665
240.51
212.808
182.132
149.083
114.416
78.7124
42.5651
6.4576
-29.2156
-64.138
-98.0342
-130.705
-161.985
-191.723
-219.793
-246.11
-270.626
-293.337
-314.273
-333.487
-351.048
-367.033
-381.52
-394.577
-406.255
-416.591
-425.613
-433.342
-439.804
-445.024
-449.037
-451.879
-453.594
-454.223
-453.811
-452.4
-450.033
-446.752
-442.598
-437.617
-431.845
-425.318
-418.059
-410.089
-401.418
-392.046
-381.971
-371.183
-359.667
-347.403
-334.365
-320.525
-305.847
-290.293
-273.815
-256.363
-237.902
-218.406
-197.869
-176.317
-153.802
-130.398
-106.225
-81.427
-56.1621
-30.6177
-4.99698
20.4737
45.5431
69.9587
93.4688
115.807
136.698
155.862
173.023
187.911
200.26
209.82
216.372
219.736
219.723
216.303
209.546
199.369
185.913
169.348
149.895
127.831
103.473
77.1803
49.3457
20.3729
-9.32834
-39.3637
-69.3523
-98.9417
-127.829
-155.762
-182.549
-208.039
-232.127
-254.74
-275.841
-295.42
-313.492
-330.09
-345.258
-359.052
-371.529
-382.744
-392.751
-401.604
-409.357
-416.066
-421.79
-426.594
-430.548
-433.712
-436.142
-437.885
-438.981
-439.462
-439.358
-438.686
-437.457
-435.67
-433.308
-430.344
-426.744
-422.465
-417.453
-411.643
-404.957
-397.315
-388.627
-378.796
-367.727
-355.32
-341.464
-326.058
-309.002
-290.218
-269.654
-247.28
-223.099
-197.155
-169.536
-140.362
-109.792
-78.0363
-45.3761
-12.1439
21.2953
54.5351
87.1333
118.615
148.483
176.25
201.43
223.543
242.134
256.793
267.18
273.024
274.105
270.312
261.769
248.488
230.702
208.755
183.068
154.128
122.495
88.745
53.4785
17.2959
-19.236
-55.5938
-91.3122
-125.989
-159.301
-190.994
-220.857
-248.753
-274.606
-298.378
-320.073
-339.714
-357.344
-373.03
-386.832
-398.81
-409.044
-417.552
-424.401
-429.633
-433.288
-435.384
-435.944
-434.967
-432.481
-428.474
-422.996
-416.124
-407.862
-398.338
-387.477
-375.37
-362.148
-347.985
-332.973
-317.315
-301.09
-284.412
-267.364
-249.975
-232.24
-214.141
-195.595
-176.511
-156.739
-136.168
-114.613
-91.9512
-68.0502
-42.785
-16.1297
11.918
41.3341
71.9344
103.532
135.807
168.41
200.995
233.149
264.389
294.326
322.528
348.591
372.126
392.774
410.257
424.323
434.783
441.508
444.454
442.034
435.803
425.958
412.624
396.088
376.589
354.481
330.088
303.721
275.82
246.761
216.926
186.674
156.313
126.211
96.6311
67.7972
39.9395
13.195
-12.3195
-36.5452
-59.4502
-81.0149
-101.265
-120.236
-137.964
-154.499
-169.886
-184.16
-197.354
-209.483
-220.546
-230.532
170.136
136.814
103.223
69.4697
35.7549
2.33426
-30.4963
-62.5138
-93.4988
-123.228
-151.552
-178.335
-203.445
-226.806
-248.356
-268.066
-285.935
-301.977
-316.239
-328.788
-339.703
-349.078
-357.018
-363.628
-369.019
-373.294
-376.55
-378.869
-380.318
-380.944
-380.743
-379.754
-377.951
-375.295
-371.731
-367.178
-361.588
-354.883
-346.971
-337.815
-327.347
-315.53
-302.323
-287.669
-271.594
-254.108
-235.195
-214.893
-193.244
-170.262
-145.99
-120.51
-93.8797
-66.2203
-37.6614
-8.33868
21.5313
51.7051
81.9445
111.925
141.32
169.761
196.86
222.229
245.5
266.312
284.376
299.462
311.403
320.132
325.651
327.85
326.139
321.864
314.07
302.119
285.934
265.662
241.434
213.628
182.827
149.638
114.826
78.9823
42.7034
6.47585
-29.3031
-64.3177
-98.2915
-131.029
-162.363
-192.141
-220.239
-246.572
-271.091
-293.795
-314.716
-333.911
-351.452
-367.417
-381.886
-394.928
-406.595
-416.921
-425.934
-433.655
-440.107
-445.317
-449.319
-452.149
-453.852
-454.47
-454.046
-452.624
-450.247
-446.956
-442.793
-437.802
-432.024
-425.491
-418.23
-410.259
-401.589
-392.22
-382.15
-371.368
-359.86
-347.605
-334.578
-320.75
-306.087
-290.55
-274.088
-256.652
-238.203
-218.715
-198.181
-176.626
-154.099
-130.678
-106.48
-81.6497
-56.3459
-30.7558
-5.08241
20.4464
45.5784
70.061
93.6426
116.056
137.024
156.267
173.506
188.471
200.89
210.512
217.112
220.507
220.519
217.107
210.318
200.103
186.592
169.956
150.419
128.26
103.799
77.3995
49.4577
20.3812
-9.41721
-39.5409
-69.6059
-99.2574
-128.192
-156.158
-182.965
-208.466
-232.556
-255.164
-276.254
-295.818
-313.873
-330.452
-345.6
-359.375
-371.834
-383.032
-393.023
-401.861
-409.599
-416.292
-422.001
-426.79
-430.73
-433.882
-436.302
-438.036
-439.125
-439.602
-439.494
-438.821
-437.594
-435.812
-433.456
-430.502
-426.913
-422.648
-417.652
-411.86
-405.195
-397.575
-388.911
-379.104
-368.062
-355.681
-341.852
-326.471
-309.437
-290.67
-270.117
-247.746
-223.56
-197.604
-169.963
-140.756
-110.14
-78.3259
-45.5951
-12.2792
21.2558
54.6018
87.3149
118.917
148.909
176.803
202.107
224.338
243.034
257.783
268.242
274.132
275.236
271.449
262.861
249.516
231.639
209.58
183.761
154.677
122.895
88.9942
53.5822
17.264
-19.3895
-55.8517
-91.6553
-126.398
-159.762
-191.491
-221.377
-249.286
-275.143
-298.912
-320.598
-340.225
-357.84
-373.507
-387.289
-399.244
-409.452
-417.932
-424.754
-429.959
-433.586
-435.656
-436.191
-435.189
-432.679
-428.646
-423.137
-416.223
-407.924
-398.391
-387.494
-375.355
-362.103
-347.916
-332.884
-317.215
-300.986
-284.313
-267.279
-249.914
-232.21
-214.15
-195.651
-176.619
-156.901
-136.386
-114.884
-92.2704
-68.4087
-43.1713
-16.5305
11.519
40.9545
71.5916
103.243
135.588
168.272
200.952
233.208
264.556
294.603
322.913
349.08
372.712
393.447
411.004
425.13
435.634
442.387
445.33
442.896
436.62
426.722
413.333
396.725
377.14
354.938
330.446
303.977
275.977
246.821
216.897
186.563
156.131
125.967
96.3377
67.4651
39.5796
12.8175
-12.7052
-36.931
-59.8299
-81.3836
-101.619
-120.574
-138.286
-154.807
-170.179
-184.442
-197.627
-209.75
-220.808
-230.792
170.268
136.85
103.17
69.3359
35.5464
2.05814
-30.8319
-62.9
-93.9278
-123.692
-152.044
-178.848
-203.973
-227.343
-248.894
-268.599
-286.456
-302.482
-316.723
-329.247
-340.133
-349.478
-357.387
-363.968
-369.33
-373.578
-376.81
-379.111
-380.547
-381.167
-380.965
-379.982
-378.189
-375.547
-372
-367.466
-361.895
-355.21
-347.316
-338.175
-327.721
-315.917
-302.719
-288.072
-272.001
-254.518
-235.606
-215.303
-193.654
-170.668
-146.39
-120.899
-94.2517
-66.5677
-37.9748
-8.60763
21.3183
51.5595
81.878
111.948
141.442
169.99
197.201
222.684
246.065
266.978
285.131
300.291
312.291
321.053
326.575
328.766
327.155
322.991
315.252
303.335
287.145
266.826
242.514
214.587
183.64
150.287
115.305
79.2978
42.8648
6.49674
-29.406
-64.5283
-98.5927
-131.407
-162.805
-192.631
-220.761
-247.111
-271.634
-294.329
-315.234
-334.406
-351.923
-367.865
-382.313
-395.339
-406.991
-417.306
-426.309
-434.019
-440.46
-445.658
-449.647
-452.464
-454.153
-454.757
-454.32
-452.886
-450.496
-447.193
-443.019
-438.019
-432.232
-425.693
-418.428
-410.457
-401.788
-392.423
-382.358
-371.584
-360.085
-347.84
-334.826
-321.013
-306.367
-290.848
-274.406
-256.988
-238.555
-219.077
-198.546
-176.987
-154.448
-131.005
-106.778
-81.9106
-56.5615
-30.9181
-5.18312
20.4136
45.6183
70.1789
93.8439
116.345
137.403
156.737
174.069
189.122
201.624
211.317
217.975
221.408
221.447
218.04
211.219
200.96
187.384
170.665
151.029
128.759
104.178
77.6535
49.5864
20.3885
-9.52332
-39.7504
-69.9047
-99.6284
-128.618
-156.622
-183.453
-208.966
-233.057
-255.659
-276.737
-296.284
-314.318
-330.874
-345.999
-359.752
-372.19
-383.368
-393.341
-402.161
-409.882
-416.557
-422.248
-427.02
-430.944
-434.081
-436.489
-438.214
-439.295
-439.766
-439.654
-438.98
-437.756
-435.978
-433.631
-430.688
-427.112
-422.862
-417.886
-412.115
-405.474
-397.881
-389.244
-379.465
-368.454
-356.105
-342.306
-326.954
-309.946
-291.199
-270.659
-248.292
-224.101
-198.13
-170.463
-141.218
-110.548
-78.6661
-45.8529
-12.4393
21.2078
54.6779
87.5251
119.267
149.406
177.447
202.896
225.265
244.085
258.94
269.483
275.427
276.56
272.774
264.139
250.717
232.735
210.544
184.57
155.318
123.36
89.2836
53.7012
17.2245
-19.5712
-56.1554
-92.0583
-126.879
-160.302
-192.073
-221.986
-249.91
-275.771
-299.535
-321.211
-340.823
-358.419
-374.065
-387.822
-399.751
-409.928
-418.376
-425.166
-430.339
-433.935
-435.974
-436.479
-435.448
-432.908
-428.846
-423.301
-416.344
-408
-398.452
-387.513
-375.336
-362.051
-347.835
-332.78
-317.097
-300.864
-284.196
-267.178
-249.841
-232.174
-214.16
-195.717
-176.745
-157.09
-136.64
-115.201
-92.644
-68.8284
-43.6237
-17.0001
11.0513
40.5094
71.1892
102.904
135.329
168.11
200.899
233.277
264.751
294.925
323.362
349.65
373.396
394.234
411.877
426.072
436.628
443.413
446.359
443.902
437.578
427.619
414.163
397.468
377.783
355.472
330.864
304.276
276.159
246.891
216.862
186.434
155.917
125.682
95.9941
67.0764
39.1586
12.3762
-13.156
-37.3819
-60.2734
-81.8142
-102.033
-120.969
-138.662
-155.165
-170.522
-184.771
-197.946
-210.061
-221.114
-231.095
170.419
136.89
103.109
69.1821
35.3071
1.74146
-31.2165
-63.3425
-94.4191
-124.224
-152.608
-179.436
-204.578
-227.958
-249.51
-269.209
-287.054
-303.06
-317.277
-329.771
-340.626
-349.936
-357.81
-364.356
-369.684
-373.902
-377.108
-379.387
-380.808
-381.42
-381.219
-380.242
-378.461
-375.834
-372.307
-367.795
-362.246
-355.583
-347.71
-338.588
-328.15
-316.359
-303.171
-288.532
-272.467
-254.987
-236.075
-215.773
-194.122
-171.133
-146.847
-121.344
-94.6778
-66.9659
-38.3345
-8.91652
21.0733
51.3915
81.8004
111.973
141.581
170.251
197.589
223.202
246.71
267.74
285.993
301.238
313.307
322.112
327.647
329.837
328.297
324.257
316.597
304.726
288.531
268.16
243.752
215.687
184.572
151.03
115.854
79.6591
43.0493
6.52012
-29.5245
-64.77
-98.9379
-131.842
-163.312
-193.192
-221.359
-247.729
-272.255
-294.941
-315.825
-334.972
-352.461
-368.376
-382.801
-395.807
-407.444
-417.746
-426.737
-434.436
-440.864
-446.049
-450.022
-452.823
-454.496
-455.086
-454.634
-453.185
-450.781
-447.465
-443.278
-438.266
-432.47
-425.924
-418.655
-410.682
-402.015
-392.654
-382.595
-371.83
-360.341
-348.109
-335.109
-321.313
-306.686
-291.19
-274.769
-257.373
-238.957
-219.49
-198.964
-177.401
-154.847
-131.379
-107.12
-82.2098
-56.8091
-31.1047
-5.29947
20.3746
45.6624
70.3122
94.0725
116.674
137.834
157.274
174.71
189.866
202.461
212.238
218.962
222.44
222.507
219.104
212.25
201.938
188.288
171.474
151.726
129.329
104.61
77.9418
49.7312
20.3944
-9.64735
-39.9928
-70.2492
-100.055
-129.107
-157.155
-184.013
-209.539
-233.632
-256.227
-277.29
-296.817
-314.828
-331.358
-346.457
-360.184
-372.598
-383.754
-393.705
-402.505
-410.206
-416.861
-422.531
-427.283
-431.189
-434.31
-436.704
-438.418
-439.49
-439.954
-439.838
-439.163
-437.941
-436.17
-433.832
-430.901
-427.34
-423.109
-418.154
-412.408
-405.794
-398.232
-389.625
-379.88
-368.904
-356.59
-342.827
-327.509
-310.53
-291.806
-271.281
-248.918
-224.721
-198.734
-171.038
-141.748
-111.018
-79.0578
-46.1503
-12.6247
21.1508
54.7629
87.7636
119.667
149.972
178.183
203.799
226.326
245.288
260.264
270.904
276.912
278.076
274.289
265.602
252.094
233.989
211.647
185.496
156.05
123.892
89.6126
53.8349
17.1765
-19.7823
-56.5059
-92.5221
-127.431
-160.922
-192.741
-222.684
-250.625
-276.49
-300.249
-321.912
-341.506
-359.082
-374.703
-388.432
-400.33
-410.472
-418.884
-425.636
-430.773
-434.333
-436.338
-436.808
-435.744
-433.17
-429.073
-423.489
-416.485
-408.092
-398.52
-387.533
-375.313
-361.99
-347.741
-332.659
-316.961
-300.723
-284.062
-267.063
-249.758
-232.133
-214.172
-195.792
-176.887
-157.307
-136.931
-115.563
-93.0723
-69.3097
-44.1428
-17.5393
10.514
39.9977
70.7264
102.513
135.031
167.923
200.838
233.353
264.972
295.293
323.876
350.303
374.179
395.133
412.876
427.151
437.765
444.585
447.538
445.054
438.676
428.648
415.113
398.319
378.518
356.081
331.34
304.616
276.366
246.97
216.821
186.284
155.671
125.354
95.5998
66.6306
38.6759
11.8705
-13.6723
-37.8981
-60.7809
-82.3067
-102.506
-121.421
-139.092
-155.574
-170.913
-185.147
-198.31
-210.416
-221.463
-231.441
170.587
136.933
103.04
69.0078
35.0366
1.38376
-31.6507
-63.8417
-94.9732
-124.823
-153.243
-180.099
-205.26
-228.65
-250.204
-269.897
-287.726
-303.711
-317.9
-330.362
-341.18
-350.452
-358.286
-364.792
-370.083
-374.266
-377.442
-379.697
-381.101
-381.704
-381.503
-380.533
-378.765
-376.157
-372.652
-368.165
-362.642
-356.004
-348.154
-339.053
-328.633
-316.856
-303.681
-289.051
-272.99
-255.514
-236.604
-216.301
-194.65
-171.656
-147.362
-121.845
-95.1584
-67.4155
-38.7408
-9.26597
20.7955
51.2004
81.711
112
141.736
170.543
198.026
223.784
247.435
268.597
286.964
302.304
314.452
323.309
328.866
331.065
329.572
325.663
318.102
306.288
290.093
269.665
245.149
216.929
185.624
151.87
116.474
80.0663
43.2569
6.54576
-29.659
-65.0433
-99.3279
-132.332
-163.883
-193.825
-222.033
-248.425
-272.955
-295.629
-316.491
-335.608
-353.065
-368.95
-383.348
-396.333
-407.952
-418.24
-427.218
-434.904
-441.318
-446.487
-450.444
-453.227
-454.883
-455.455
-454.986
-453.521
-451.102
-447.77
-443.568
-438.543
-432.736
-426.183
-418.909
-410.935
-402.27
-392.914
-382.862
-372.106
-360.629
-348.41
-335.427
-321.649
-307.045
-291.573
-275.178
-257.805
-239.41
-219.956
-199.435
-177.867
-155.297
-131.802
-107.505
-82.5476
-57.0892
-31.3163
-5.43176
20.3293
45.7103
70.4603
94.3278
117.041
138.318
157.875
175.43
190.7
203.403
213.273
220.071
223.601
223.699
220.299
213.409
203.039
189.305
172.384
152.509
129.968
105.094
78.264
49.8914
20.3982
-9.79023
-40.2692
-70.6404
-100.539
-129.661
-157.758
-184.646
-210.185
-234.279
-256.867
-277.913
-297.418
-315.401
-331.902
-346.971
-360.67
-373.057
-384.188
-394.115
-402.892
-410.571
-417.203
-422.851
-427.58
-431.464
-434.567