/*--------------------------------*- C++ -*----------------------------------*\
| =========                 |                                                 |
| \\      /  F ield         | OpenFOAM: The Open Source CFD Toolbox           |
|  \\    /   O peration     | Version:  3.0.1                                 |
|   \\  /    A nd           | Web:      www.OpenFOAM.org                      |
|    \\/     M anipulation  |                                                 |
\*---------------------------------------------------------------------------*/
FoamFile
{
    version     2.0;
    format      ascii;
    class       surfaceScalarField;
    location    "43.4";
    object      alphaPhi;
}
// * * * * * * * * * * * * * * * * * * * * * * * * * * * * * * * * * * * * * //

dimensions      [0 3 -1 0 0 0 0];

internalField   nonuniform List<scalar> 
42423
(
-0.000138183
-7.57689e-06
-0.000129522
-8.66128e-06
-0.000119943
-9.57932e-06
-0.000109367
-1.05761e-05
-9.76276e-05
-1.17392e-05
-8.49596e-05
-1.2668e-05
-7.11083e-05
-1.38514e-05
-5.63757e-05
-1.47326e-05
-4.08458e-05
-1.553e-05
-2.43301e-05
-1.65157e-05
-7.01579e-06
-1.73144e-05
1.07015e-05
-1.77174e-05
2.91254e-05
-1.84239e-05
4.79147e-05
-1.87893e-05
6.69327e-05
-1.9018e-05
8.59894e-05
-1.90567e-05
0.00010465
-1.86604e-05
0.000122835
-1.81852e-05
0.000140303
-1.74682e-05
0.000156688
-1.63845e-05
0.000171807
-1.51191e-05
0.000185415
-1.3608e-05
0.000197248
-1.18335e-05
0.000207083
-9.83456e-06
0.000214738
-7.65517e-06
0.000220101
-5.36345e-06
0.000223078
-2.97729e-06
0.000223544
-4.65658e-07
0.000221598
1.94614e-06
0.00021721
4.38777e-06
0.000210383
6.82644e-06
0.000201383
9.0008e-06
0.000190291
1.10915e-05
0.000177445
1.28463e-05
0.000162953
1.44919e-05
0.000147019
1.59344e-05
0.00013004
1.69784e-05
0.000112197
1.78427e-05
9.37422e-05
1.84551e-05
7.49591e-05
1.87831e-05
5.60682e-05
1.88909e-05
3.7316e-05
1.87521e-05
1.88007e-05
1.85153e-05
7.28456e-07
1.80722e-05
-1.67301e-05
1.74586e-05
-3.34693e-05
1.67391e-05
-4.93858e-05
1.59165e-05
-6.44184e-05
1.50327e-05
-7.85329e-05
1.41145e-05
-9.1697e-05
1.31641e-05
-0.000103888
1.21913e-05
-0.000115102
1.12141e-05
-0.000125356
1.02539e-05
-0.000134684
9.32783e-06
-0.000143069
8.38524e-06
-0.00015052
7.45107e-06
-0.000157113
6.59209e-06
-0.000162814
5.70152e-06
-0.000167644
4.83044e-06
-0.00017166
4.01581e-06
-0.000174818
3.15727e-06
-0.000177273
2.45492e-06
-0.000178915
1.64297e-06
-0.000179791
8.75929e-07
-0.000180017
2.2565e-07
-0.000179488
-5.2918e-07
-0.00017816
-1.3283e-06
-0.00017616
-1.99939e-06
-0.000173445
-2.71512e-06
-0.000169978
-3.4673e-06
-0.000165778
-4.19967e-06
-0.000160774
-5.00463e-06
-0.000154981
-5.79278e-06
-0.00014842
-6.56077e-06
-0.0001409
-7.51989e-06
-0.000132573
-8.3276e-06
-0.000123264
-9.30875e-06
-0.000113043
-1.02213e-05
-0.000101955
-1.10877e-05
-8.99678e-05
-1.19875e-05
-7.7088e-05
-1.28798e-05
-6.33988e-05
-1.36893e-05
-4.8984e-05
-1.4415e-05
-3.38132e-05
-1.51708e-05
-1.80585e-05
-1.57548e-05
-1.70622e-06
-1.63524e-05
1.5177e-05
-1.68833e-05
3.24592e-05
-1.72823e-05
5.00567e-05
-1.75975e-05
6.77894e-05
-1.77328e-05
8.54885e-05
-1.76991e-05
0.000102964
-1.74753e-05
0.000119998
-1.7034e-05
0.000136364
-1.63661e-05
0.000151794
-1.54303e-05
0.000166107
-1.43129e-05
0.000179052
-1.29447e-05
0.000190421
-1.13691e-05
0.000200068
-9.64699e-06
0.000207772
-7.70381e-06
0.000213446
-5.67374e-06
0.000216984
-3.53883e-06
0.000218301
-1.3165e-06
0.00021745
8.51107e-07
0.000214304
3.14547e-06
0.000208946
5.35843e-06
0.000201472
7.47377e-06
0.000191972
9.49972e-06
0.000180588
1.13848e-05
0.000167469
1.31189e-05
0.000152821
1.46478e-05
0.000136861
1.59601e-05
0.000119832
1.70282e-05
0.000101972
1.78602e-05
8.35382e-05
1.8434e-05
6.47804e-05
1.87577e-05
4.59234e-05
1.8857e-05
2.71892e-05
1.87342e-05
8.82201e-06
1.83671e-05
-9.02365e-06
1.78456e-05
-2.62146e-05
1.7191e-05
-4.25641e-05
1.63494e-05
-5.8009e-05
1.54449e-05
-7.24264e-05
1.44174e-05
-8.58912e-05
1.34647e-05
-9.82277e-05
1.23365e-05
-0.000109513
1.12856e-05
-0.000119706
1.01924e-05
-0.000128866
9.15977e-06
-0.000137029
8.16344e-06
-0.000144165
7.13635e-06
-0.000150334
6.16898e-06
-0.000155559
5.225e-06
-0.000159893
4.33383e-06
-0.000163378
3.48483e-06
-0.000166022
2.64395e-06
-0.000167908
1.88601e-06
-0.000169032
1.12428e-06
-0.0001695
4.67873e-07
-0.000169314
-1.86572e-07
-0.000168537
-7.76207e-07
-0.000167173
-1.36487e-06
-0.000165264
-1.90864e-06
-0.000162838
-2.42554e-06
-0.000159928
-2.91063e-06
-0.000156465
-3.4632e-06
-0.000152606
-3.85868e-06
-0.000148272
-4.33423e-06
-0.00014347
-4.80209e-06
-0.000138261
-5.20846e-06
-0.000132532
-5.72928e-06
-0.000126248
-6.2837e-06
-0.000119569
-6.67969e-06
-0.000112259
-7.31004e-06
-0.000104381
-7.87762e-06
-9.58624e-05
-8.51881e-06
-8.66902e-05
-9.17228e-06
-7.68223e-05
-9.86799e-06
-6.62717e-05
-1.05506e-05
-5.50049e-05
-1.12669e-05
-4.3029e-05
-1.1976e-05
-3.0291e-05
-1.27381e-05
-1.69856e-05
-1.33054e-05
-2.97772e-06
-1.4008e-05
1.1466e-05
-1.44438e-05
2.64328e-05
-1.49669e-05
4.1788e-05
-1.53553e-05
5.74103e-05
-1.56225e-05
7.31378e-05
-1.57275e-05
8.88228e-05
-1.56851e-05
0.000104278
-1.54555e-05
0.000119379
-1.51008e-05
0.000133859
-1.44807e-05
0.000147554
-1.36951e-05
0.000160183
-1.26287e-05
0.000171558
-1.13757e-05
0.000181394
-9.83522e-06
0.000189492
-8.09837e-06
0.00019568
-6.18785e-06
0.00019978
-4.10006e-06
0.000201709
-1.92927e-06
0.000201376
3.32728e-07
0.000198789
2.5867e-06
0.00019392
4.86928e-06
0.000186841
7.07883e-06
0.000177767
9.07435e-06
0.000166829
1.0938e-05
0.00015426
1.25686e-05
0.00014028
1.39799e-05
0.000125118
1.51618e-05
0.000109054
1.60638e-05
9.23542e-05
1.67001e-05
7.52546e-05
1.70995e-05
5.79993e-05
1.72553e-05
4.08138e-05
1.71855e-05
2.38882e-05
1.69256e-05
7.38875e-06
1.64995e-05
-8.51551e-06
1.59042e-05
-2.37764e-05
1.52608e-05
-3.82641e-05
1.44877e-05
-5.1919e-05
1.36549e-05
-6.46772e-05
1.27582e-05
-7.6486e-05
1.18087e-05
-8.73912e-05
1.09052e-05
-9.73203e-05
9.92905e-06
-0.000106293
8.97278e-06
-0.000114367
8.07343e-06
-0.000121568
7.20116e-06
-0.000127939
6.37088e-06
-0.000133491
5.55236e-06
-0.000138389
4.89814e-06
-0.000142514
4.12468e-06
-0.000146106
3.59237e-06
-0.000149063
2.95694e-06
-0.000151492
2.42936e-06
-0.000153433
1.94085e-06
-0.000154951
1.51756e-06
-0.000156036
1.08539e-06
-0.000156714
6.7807e-07
-0.000157053
3.39114e-07
-0.000156923
-1.30516e-07
-0.000156414
-5.08695e-07
-0.000155486
-9.28522e-07
-0.000154142
-1.34383e-06
-0.000152499
-1.64286e-06
-0.000150336
-2.16274e-06
-0.000147716
-2.62013e-06
-0.000144723
-2.99338e-06
-0.00014117
-3.55258e-06
-0.000137081
-4.08977e-06
-0.000132412
-4.66857e-06
-0.000127074
-5.33817e-06
-0.000121201
-5.87284e-06
-0.000114591
-6.61051e-06
-0.000107244
-7.34667e-06
-9.91195e-05
-8.12444e-06
-9.0139e-05
-8.98061e-06
-8.03033e-05
-9.8357e-06
-6.9699e-05
-1.06044e-05
-5.81558e-05
-1.15432e-05
-4.57052e-05
-1.24507e-05
-3.22962e-05
-1.34091e-05
-1.81476e-05
-1.41487e-05
-3.07218e-06
-1.50755e-05
1.25595e-05
-1.56318e-05
2.88724e-05
-1.6313e-05
4.5667e-05
-1.67948e-05
6.27469e-05
-1.708e-05
7.99587e-05
-1.72119e-05
9.70385e-05
-1.708e-05
0.000113792
-1.67536e-05
0.000130007
-1.62153e-05
0.000145396
-1.53891e-05
0.000159712
-1.43157e-05
0.000172642
-1.29305e-05
0.000183986
-1.13441e-05
0.000193479
-9.49343e-06
0.000200931
-7.45214e-06
0.000206182
-5.25132e-06
0.000209065
-2.8824e-06
0.000209575
-5.10247e-07
0.000207675
1.89957e-06
0.000203336
4.33892e-06
0.00019664
6.69535e-06
0.000187861
8.77939e-06
0.000177114
1.07462e-05
0.000164666
1.24481e-05
0.000150728
1.39382e-05
0.000135491
1.52363e-05
0.000119374
1.61166e-05
0.000102658
1.67165e-05
8.56084e-05
1.70491e-05
6.84465e-05
1.71618e-05
5.12739e-05
1.71725e-05
3.45423e-05
1.67315e-05
1.8368e-05
1.61742e-05
2.71043e-06
1.56575e-05
-1.21793e-05
1.48898e-05
-2.61686e-05
1.39893e-05
-3.91858e-05
1.30171e-05
-5.1313e-05
1.21272e-05
-6.25178e-05
1.12048e-05
-7.30021e-05
1.04843e-05
-8.27604e-05
9.75827e-06
-9.1886e-05
9.12562e-06
-0.000100542
8.65553e-06
-0.000108701
8.15941e-06
-0.00011631
7.60892e-06
-0.000123468
7.15845e-06
-0.000129969
6.50099e-06
-0.000135917
5.94777e-06
-0.000141155
5.23752e-06
-0.000145621
4.46609e-06
-0.000149372
3.75099e-06
-0.000152283
2.91149e-06
-0.000154254
1.97119e-06
-0.000155368
1.11393e-06
-0.000155512
1.43799e-07
-0.000154884
-6.28649e-07
-0.000153463
-1.42092e-06
-0.000151079
-2.38397e-06
-0.000147842
-3.23662e-06
-0.000143683
-4.1587e-06
-0.000138397
-5.28597e-06
-0.000132104
-6.29336e-06
-0.00012482
-7.28455e-06
-0.000116233
-8.58641e-06
-0.00010665
-9.58285e-06
-9.5794e-05
-1.08563e-05
-8.38089e-05
-1.19852e-05
-7.09691e-05
-1.28398e-05
-5.6922e-05
-1.40472e-05
-4.17331e-05
-1.5189e-05
-2.57349e-05
-1.59982e-05
-8.72266e-06
-1.70123e-05
9.04868e-06
-1.77714e-05
2.76524e-05
-1.86038e-05
4.68634e-05
-1.92111e-05
6.62626e-05
-1.93993e-05
8.59111e-05
-1.96486e-05
0.000105588
-1.96766e-05
0.00012493
-1.93425e-05
0.000143852
-1.89215e-05
0.000161988
-1.81365e-05
0.000179126
-1.71379e-05
0.000194991
-1.58647e-05
0.000209227
-1.4236e-05
0.00022164
-1.24134e-05
0.000232068
-1.0428e-05
0.000240195
-8.12762e-06
0.000245924
-5.72916e-06
0.000249174
-3.25011e-06
0.000249741
-5.66464e-07
0.000247732
2.00869e-06
0.00024301
4.72159e-06
0.000235881
7.12917e-06
0.000226459
9.42256e-06
0.000214673
1.17857e-05
0.00020092
1.37528e-05
0.000185427
1.54932e-05
0.000168276
1.71503e-05
0.000149921
1.83554e-05
0.000130604
1.93166e-05
0.000110644
1.99601e-05
9.02259e-05
2.04182e-05
6.96926e-05
2.05333e-05
4.93138e-05
2.03788e-05
2.92498e-05
2.0064e-05
9.68287e-06
1.95669e-05
-9.28972e-06
1.89726e-05
-2.74792e-05
1.81895e-05
-4.47176e-05
1.72384e-05
-6.09944e-05
1.62767e-05
-7.61967e-05
1.52023e-05
-9.02494e-05
1.40527e-05
-0.000103191
1.29419e-05
1.16478e-05
-0.000138224
-1.51495e-05
-0.000129565
-1.73201e-05
-0.000119987
-1.91578e-05
-0.000109415
-2.11482e-05
-9.76751e-05
-2.34787e-05
-8.50067e-05
-2.53365e-05
-7.11529e-05
-2.77052e-05
-5.64185e-05
-2.94671e-05
-4.08809e-05
-3.10677e-05
-2.43641e-05
-3.30326e-05
-7.03788e-06
-3.46407e-05
1.06844e-05
-3.54398e-05
2.91158e-05
-3.68554e-05
4.79085e-05
-3.75822e-05
6.69353e-05
-3.80449e-05
8.60053e-05
-3.81268e-05
0.000104686
-3.73413e-05
0.000122892
-3.63917e-05
0.000140378
-3.49534e-05
0.000156765
-3.27723e-05
0.000171888
-3.02418e-05
0.000185505
-2.72254e-05
0.000197349
-2.36777e-05
0.000207193
-1.96778e-05
0.000214853
-1.53161e-05
0.000220221
-1.07313e-05
0.000223205
-5.96098e-06
0.000223672
-9.32435e-07
0.000221714
3.90377e-06
0.000217323
8.77842e-06
0.000210492
1.36573e-05
0.000201487
1.80058e-05
0.000190386
2.21925e-05
0.00017753
2.57023e-05
0.000163031
2.89913e-05
0.000147081
3.18842e-05
0.00013009
3.39693e-05
0.000112235
3.56976e-05
9.37678e-05
3.69222e-05
7.49731e-05
3.75777e-05
5.60706e-05
3.77935e-05
3.73075e-05
3.75152e-05
1.87914e-05
3.70314e-05
7.09931e-07
3.61537e-05
-1.6754e-05
3.49225e-05
-3.34987e-05
3.34838e-05
-4.94199e-05
3.18377e-05
-6.44576e-05
3.00703e-05
-7.8578e-05
2.82349e-05
-9.1744e-05
2.63302e-05
-0.000103935
2.43819e-05
-0.000115153
2.24327e-05
-0.00012541
2.05103e-05
-0.00013474
1.86582e-05
-0.000143126
1.67708e-05
-0.000150585
1.49106e-05
-0.000157178
1.31846e-05
-0.00016288
1.14042e-05
-0.00016771
9.6597e-06
-0.000171728
8.0338e-06
-0.000174894
6.32392e-06
-0.000177339
4.89966e-06
-0.000178984
3.28818e-06
-0.00017986
1.75153e-06
-0.000180086
4.51588e-07
-0.000179558
-1.05723e-06
-0.000178227
-2.65944e-06
-0.000176241
-3.98545e-06
-0.000173517
-5.43892e-06
-0.000170046
-6.93787e-06
-0.000165841
-8.40512e-06
-0.000160845
-1.00007e-05
-0.00015505
-1.15878e-05
-0.000148486
-1.31249e-05
-0.000140966
-1.50394e-05
-0.000132638
-1.66559e-05
-0.000123325
-1.86217e-05
-0.000113102
-2.04446e-05
-0.000102014
-2.2176e-05
-9.00176e-05
-2.39837e-05
-7.7136e-05
-2.57616e-05
-6.34474e-05
-2.7378e-05
-4.90229e-05
-2.88396e-05
-3.38534e-05
-3.03404e-05
-1.81029e-05
-3.15054e-05
-1.72546e-06
-3.27299e-05
1.51605e-05
-3.37694e-05
3.24514e-05
-3.45732e-05
5.00586e-05
-3.52048e-05
6.78008e-05
-3.5475e-05
8.55128e-05
-3.54112e-05
0.000103004
-3.49666e-05
0.000120051
-3.40805e-05
0.000136427
-3.27427e-05
0.000151866
-3.08696e-05
0.000166192
-2.86383e-05
0.000179146
-2.58985e-05
0.000190521
-2.27446e-05
0.000200173
-1.92985e-05
0.000207889
-1.54199e-05
0.00021357
-1.1355e-05
0.000217108
-7.07695e-06
0.00021843
-2.63837e-06
0.00021757
1.71077e-06
0.000214421
6.29417e-06
0.000209069
1.07107e-05
0.000201598
1.49449e-05
0.00019209
1.90078e-05
0.000180689
2.27852e-05
0.000167558
2.62498e-05
0.000152905
2.93013e-05
0.000136939
3.19255e-05
0.000119892
3.40755e-05
0.000102014
3.57387e-05
8.35653e-05
3.68823e-05
6.47856e-05
3.75373e-05
4.59145e-05
3.77281e-05
2.71742e-05
3.74745e-05
8.79269e-06
3.67487e-05
-9.06365e-06
3.5702e-05
-2.62721e-05
3.43994e-05
-4.26348e-05
3.27122e-05
-5.80935e-05
3.09036e-05
-7.2534e-05
2.88578e-05
-8.59875e-05
2.69183e-05
-9.83331e-05
2.46822e-05
-0.000109627
2.25797e-05
-0.000119829
2.03943e-05
-0.000128985
1.83157e-05
-0.000137157
1.63357e-05
-0.000144296
1.42749e-05
-0.000150471
1.23437e-05
-0.000155701
1.0455e-05
-0.000160037
8.66999e-06
-0.000163519
6.96695e-06
-0.00016617
5.29545e-06
-0.000168054
3.76936e-06
-0.000169187
2.2572e-06
-0.000169653
9.34014e-07
-0.000169464
-3.75444e-07
-0.000168674
-1.56608e-06
-0.000167314
-2.72488e-06
-0.000165405
-3.81757e-06
-0.000162984
-4.84644e-06
-0.000160068
-5.82659e-06
-0.000156621
-6.91077e-06
-0.000152752
-7.72755e-06
-0.000148383
-8.70343e-06
-0.000143612
-9.57297e-06
-0.000138401
-1.04195e-05
-0.000132667
-1.14631e-05
-0.000126397
-1.25537e-05
-0.0001197
-1.3377e-05
-0.000112388
-1.46216e-05
-0.000104512
-1.57545e-05
-9.59843e-05
-1.70462e-05
-8.68014e-05
-1.83552e-05
-7.69525e-05
-1.9717e-05
-6.63844e-05
-2.11188e-05
-5.51165e-05
-2.25349e-05
-4.31294e-05
-2.39632e-05
-3.04144e-05
-2.54532e-05
-1.70794e-05
-2.66405e-05
-3.09316e-06
-2.79944e-05
1.13902e-05
-2.89273e-05
2.63696e-05
-2.99464e-05
4.17427e-05
-3.07285e-05
5.7383e-05
-3.12628e-05
7.31083e-05
-3.1453e-05
8.88081e-05
-3.13852e-05
0.000104278
-3.0925e-05
0.000119407
-3.02301e-05
0.000133899
-2.89735e-05
0.000147602
-2.73977e-05
0.000160243
-2.52694e-05
0.000171636
-2.27692e-05
0.000181493
-1.96922e-05
0.000189599
-1.62048e-05
0.0001958
-1.23885e-05
0.000199913
-8.21352e-06
0.000201855
-3.8718e-06
0.00020152
6.67664e-07
0.00019892
5.18716e-06
0.000194044
9.745e-06
0.000186962
1.41608e-05
0.000177875
1.81615e-05
0.000166927
2.18856e-05
0.000154339
2.51569e-05
0.000140343
2.79752e-05
0.000125174
3.03311e-05
0.000109094
3.21436e-05
9.23754e-05
3.34187e-05
7.52595e-05
3.42154e-05
5.7985e-05
3.45298e-05
4.07771e-05
3.43933e-05
2.38378e-05
3.38649e-05
7.33054e-06
3.30068e-05
-8.58333e-06
3.18181e-05
-2.38612e-05
3.05388e-05
-3.83707e-05
2.89972e-05
-5.20207e-05
2.73049e-05
-6.47867e-05
2.55242e-05
-7.66075e-05
2.36295e-05
-8.7509e-05
2.18068e-05
-9.7444e-05
1.98641e-05
-0.000106429
1.7958e-05
-0.000114506
1.615e-05
-0.00012171
1.44057e-05
-0.000128081
1.27417e-05
-0.000133668
1.11392e-05
-0.000138538
9.76863e-06
-0.000142661
8.24734e-06
-0.000146243
7.17419e-06
-0.000149197
5.91153e-06
-0.000151634
4.86608e-06
-0.000153574
3.88042e-06
-0.000155096
3.04016e-06
-0.000156181
2.17009e-06
-0.000156852
1.34915e-06
-0.000157192
6.78842e-07
-0.000157061
-2.60889e-07
-0.000156565
-1.00512e-06
-0.000155626
-1.86735e-06
-0.000154274
-2.69644e-06
-0.000152637
-3.27971e-06
-0.000150468
-4.33117e-06
-0.000147848
-5.2404e-06
-0.000144862
-5.97989e-06
-0.000141305
-7.10964e-06
-0.000137216
-8.17877e-06
-0.000132537
-9.34763e-06
-0.000127201
-1.06737e-05
-0.000121333
-1.17405e-05
-0.000114715
-1.32292e-05
-0.000107366
-1.46956e-05
-9.92359e-05
-1.62546e-05
-9.02527e-05
-1.79638e-05
-8.04143e-05
-1.96742e-05
-6.98079e-05
-2.12109e-05
-5.82547e-05
-2.30965e-05
-4.58001e-05
-2.49054e-05
-3.23852e-05
-2.68241e-05
-1.82297e-05
-2.83043e-05
-3.14373e-06
-3.01616e-05
1.24987e-05
-3.12744e-05
2.88387e-05
-3.26531e-05
4.56438e-05
-3.35999e-05
6.27339e-05
-3.41703e-05
7.99515e-05
-3.44296e-05
9.70533e-05
-3.4182e-05
0.000113833
-3.35339e-05
0.000130057
-3.24395e-05
0.000145461
-3.07924e-05
0.000159792
-2.86477e-05
0.000172739
-2.58773e-05
0.000184109
-2.2714e-05
0.000193615
-1.90001e-05
0.000201065
-1.49018e-05
0.000206318
-1.05049e-05
0.000209203
-5.76766e-06
0.000209708
-1.01485e-06
0.000207794
3.81277e-06
0.000203451
8.68211e-06
0.000196747
1.33984e-05
0.000187953
1.7573e-05
0.000177193
2.15063e-05
0.000164729
2.49124e-05
0.000150784
2.78822e-05
0.000135547
3.04731e-05
0.0001194
3.22636e-05
0.000102668
3.34485e-05
8.56036e-05
3.41133e-05
6.84271e-05
3.43383e-05
5.12617e-05
3.43378e-05
3.4505e-05
3.34882e-05
1.83088e-05
3.23704e-05
2.65366e-06
3.13126e-05
-1.22475e-05
2.97909e-05
-2.62416e-05
2.79834e-05
-3.92655e-05
2.60409e-05
-5.14025e-05
2.42642e-05
-6.26028e-05
2.24051e-05
-7.30709e-05
2.09524e-05
-8.28138e-05
1.95012e-05
-9.19325e-05
1.82443e-05
-0.000100584
1.73072e-05
-0.000108741
1.63158e-05
-0.000116348
1.5216e-05
-0.000123505
1.43162e-05
-0.000130006
1.30017e-05
-0.000135955
1.18967e-05
-0.000141192
1.04749e-05
-0.000145659
8.93278e-06
-0.000149413
7.50514e-06
-0.000152329
5.82683e-06
-0.000154305
3.94753e-06
-0.000155423
2.23241e-06
-0.000155572
2.92427e-07
-0.000154945
-1.25544e-06
-0.000153527
-2.83885e-06
-0.000151151
-4.7606e-06
-0.000147917
-6.47042e-06
-0.000143751
-8.32431e-06
-0.000138466
-1.0571e-05
-0.000132173
-1.25866e-05
-0.000124888
-1.45698e-05
-0.0001163
-1.7174e-05
-0.000106716
-1.91676e-05
-9.58578e-05
-2.17144e-05
-8.38675e-05
-2.39756e-05
-7.10367e-05
-2.56706e-05
-5.69827e-05
-2.81013e-05
-4.17924e-05
-3.03793e-05
-2.57949e-05
-3.19959e-05
-8.78285e-06
-3.40244e-05
8.98596e-06
-3.55403e-05
2.75951e-05
-3.7213e-05
4.68027e-05
-3.84188e-05
6.61873e-05
-3.8784e-05
8.58504e-05
-3.93119e-05
0.00010556
-3.93867e-05
0.000124922
-3.87047e-05
0.000143859
-3.78583e-05
0.000162012
-3.62899e-05
0.000179162
-3.42879e-05
0.000195029
-3.17321e-05
0.000209285
-2.84921e-05
0.000221723
-2.48514e-05
0.000232166
-2.08703e-05
0.000240302
-1.62645e-05
0.00024604
-1.14669e-05
0.000249297
-6.50779e-06
0.000249867
-1.13665e-06
0.000247851
4.02536e-06
0.000243129
9.44342e-06
0.000235997
1.42608e-05
0.000226567
1.88521e-05
0.000214771
2.35818e-05
0.000201006
2.75181e-05
0.000185506
3.09933e-05
0.000168342
3.43138e-05
0.000149973
3.6724e-05
0.000130644
3.86463e-05
0.000110671
3.99322e-05
9.02433e-05
4.08462e-05
6.96962e-05
4.10803e-05
4.93051e-05
4.07699e-05
2.92291e-05
4.01399e-05
9.65593e-06
3.914e-05
-9.31562e-06
3.79441e-05
-2.75088e-05
3.63826e-05
-4.4752e-05
3.44816e-05
-6.10324e-05
3.25571e-05
-7.62379e-05
3.04076e-05
-9.02926e-05
2.81074e-05
-0.000103237
2.58858e-05
2.32953e-05
-0.000138298
-2.27202e-05
-0.000129641
-2.59773e-05
-0.000120061
-2.87376e-05
-0.000109494
-3.17146e-05
-9.77538e-05
-3.52194e-05
-8.50848e-05
-3.80055e-05
-7.12283e-05
-4.15617e-05
-5.64928e-05
-4.42026e-05
-4.09441e-05
-4.66165e-05
-2.44217e-05
-4.95551e-05
-7.07936e-06
-5.19831e-05
1.06582e-05
-5.31774e-05
2.91091e-05
-5.53064e-05
4.7929e-05
-5.64021e-05
6.69774e-05
-5.70934e-05
8.60679e-05
-5.72174e-05
0.000104767
-5.60406e-05
0.000122982
-5.46071e-05
0.000140481
-5.24517e-05
0.00015689
-4.91814e-05
0.000172037
-4.53892e-05
0.000185675
-4.08639e-05
0.000197539
-3.5541e-05
0.000207401
-2.954e-05
0.000215072
-2.29874e-05
0.000220447
-1.61065e-05
0.000223433
-8.94678e-06
0.000223887
-1.38633e-06
0.000221896
5.89451e-06
0.000217498
1.31762e-05
0.000210658
2.0497e-05
0.000201648
2.70164e-05
0.000190531
3.3309e-05
0.000177659
3.85745e-05
0.000163154
4.34966e-05
0.000147173
4.78646e-05
0.00013016
5.09831e-05
0.000112283
5.35745e-05
9.3794e-05
5.5411e-05
7.49782e-05
5.63935e-05
5.60542e-05
5.67174e-05
3.72699e-05
5.62994e-05
1.87583e-05
5.55429e-05
6.58522e-07
5.42535e-05
-1.68143e-05
5.23954e-05
-3.35668e-05
5.02363e-05
-4.94945e-05
4.77654e-05
-6.45358e-05
4.51116e-05
-7.86598e-05
4.23589e-05
-9.18298e-05
3.95002e-05
-0.000104019
3.65715e-05
-0.000115237
3.36501e-05
-0.000125492
3.07652e-05
-0.000134824
2.79901e-05
-0.000143206
2.51535e-05
-0.000150664
2.23682e-05
-0.000157258
1.97788e-05
-0.000162964
1.71098e-05
-0.000167788
1.4484e-05
-0.000171808
1.20535e-05
-0.000174981
9.49728e-06
-0.000177411
7.3294e-06
-0.000179055
4.93251e-06
-0.000179925
2.62139e-06
-0.000180141
6.67769e-07
-0.000179614
-1.5843e-06
-0.000178286
-3.98709e-06
-0.000176311
-5.96069e-06
-0.000173577
-8.17342e-06
-0.000170107
-1.04075e-05
-0.000165903
-1.26094e-05
-0.000160915
-1.49886e-05
-0.000155118
-1.73849e-05
-0.000148556
-1.96873e-05
-0.00014104
-2.2555e-05
-0.000132712
-2.4984e-05
-0.000123396
-2.79376e-05
-0.000113173
-3.06684e-05
-0.000102084
-3.32652e-05
-9.00806e-05
-3.59868e-05
-7.71928e-05
-3.86495e-05
-6.35106e-05
-4.10603e-05
-4.90883e-05
-4.32621e-05
-3.39118e-05
-4.5517e-05
-1.81628e-05
-4.72545e-05
-1.76894e-06
-4.91238e-05
1.51246e-05
-5.0663e-05
3.24252e-05
-5.18739e-05
5.00399e-05
-5.28196e-05
6.77978e-05
-5.32329e-05
8.55252e-05
-5.31386e-05
0.000103025
-5.24666e-05
0.000120082
-5.11376e-05
0.000136482
-4.9142e-05
0.000151922
-4.63102e-05
0.000166261
-4.29769e-05
0.000179229
-3.88667e-05
0.000190614
-3.41296e-05
0.000200267
-2.89515e-05
0.000207988
-2.31408e-05
0.000213677
-1.70443e-05
0.000217215
-1.06152e-05
0.000218548
-3.97066e-06
0.000217666
2.59222e-06
0.000214511
9.44975e-06
0.000209158
1.60629e-05
0.000201684
2.24187e-05
0.000192167
2.85251e-05
0.000180763
3.41888e-05
0.000167617
3.93958e-05
0.000152934
4.39844e-05
0.000136947
4.79131e-05
0.000119883
5.11387e-05
0.000101986
5.36359e-05
8.35123e-05
5.53561e-05
6.4706e-05
5.63437e-05
4.58145e-05
5.66196e-05
2.70647e-05
5.62243e-05
8.66318e-06
5.51502e-05
-9.20104e-06
5.35662e-05
-2.64223e-05
5.16206e-05
-4.2792e-05
4.9082e-05
-5.82599e-05
4.63716e-05
-7.27253e-05
4.33232e-05
-8.61638e-05
4.03568e-05
-9.85123e-05
3.70307e-05
-0.000109804
3.38717e-05
-0.00012001
3.05996e-05
-0.000129154
2.74598e-05
-0.000137323
2.45047e-05
-0.000144467
2.14193e-05
-0.000150642
1.85184e-05
-0.000155868
1.56811e-05
-0.000160204
1.30059e-05
-0.000163685
1.04477e-05
-0.000166335
7.94614e-06
-0.000168221
5.65499e-06
-0.000169351
3.38719e-06
-0.000169802
1.38472e-06
-0.0001696
-5.77378e-07
-0.000168814
-2.35215e-06
-0.000167454
-4.08479e-06
-0.000165545
-5.72623e-06
-0.000163128
-7.26421e-06
-0.000160215
-8.73952e-06
-0.000156777
-1.03489e-05
-0.000152892
-1.16118e-05
-0.00014849
-1.31053e-05
-0.000143745
-1.43185e-05
-0.000138535
-1.56295e-05
-0.00013281
-1.71885e-05
-0.000126584
-1.87794e-05
-0.000119855
-2.01056e-05
-0.000112544
-2.1933e-05
-0.000104663
-2.36354e-05
-9.61403e-05
-2.5569e-05
-8.69201e-05
-2.75755e-05
-7.71147e-05
-2.95223e-05
-6.65435e-05
-3.16901e-05
-5.52675e-05
-3.38109e-05
-4.32748e-05
-3.5956e-05
-3.0571e-05
-3.81571e-05
-1.72193e-05
-3.99923e-05
-3.24772e-06
-4.19661e-05
1.12659e-05
-4.3441e-05
2.6258e-05
-4.49385e-05
4.16477e-05
-4.61184e-05
5.73092e-05
-4.69244e-05
7.30336e-05
-4.71776e-05
8.87515e-05
-4.71031e-05
0.00010424
-4.64139e-05
0.00011936
-4.53498e-05
0.000133878
-4.34914e-05
0.000147606
-4.11265e-05
0.000160277
-3.79407e-05
0.000171684
-3.41754e-05
0.000181575
-2.95837e-05
0.000189686
-2.43158e-05
0.000195897
-1.85994e-05
0.000200015
-1.2332e-05
0.000201962
-5.81917e-06
0.000201629
1.00037e-06
0.000199006
7.81002e-06
0.000194143
1.46088e-05
0.000187046
2.12573e-05
0.000177942
2.72658e-05
0.000166978
3.28488e-05
0.000154365
3.77697e-05
0.000140355
4.19858e-05
0.000125165
4.55212e-05
0.000109063
4.82455e-05
9.23243e-05
5.01571e-05
7.51861e-05
5.13536e-05
5.79146e-05
5.18013e-05
4.0666e-05
5.16418e-05
2.37085e-05
5.08224e-05
7.19362e-06
4.95216e-05
-8.7279e-06
4.77396e-05
-2.40026e-05
4.58134e-05
-3.85322e-05
4.35269e-05
-5.21839e-05
4.09566e-05
-6.49658e-05
3.8306e-05
-7.67914e-05
3.54552e-05
-8.76788e-05
3.26941e-05
-9.76068e-05
2.97921e-05
-0.000106597
2.69482e-05
-0.00011467
2.42231e-05
-0.000121876
2.16113e-05
-0.000128242
1.91081e-05
-0.00013384
1.67369e-05
-0.000138704
1.46323e-05
-0.000142818
1.23618e-05
-0.000146393
1.0749e-05
-0.000149334
8.85241e-06
-0.000151785
7.31693e-06
-0.000153714
5.81021e-06
-0.00015524
4.56527e-06
-0.000156332
3.26223e-06
-0.000156993
2.01006e-06
-0.00015733
1.01625e-06
-0.000157198
-3.93222e-07
-0.000156699
-1.50378e-06
-0.000155773
-2.79324e-06
-0.000154413
-4.05623e-06
-0.000152775
-4.91835e-06
-0.000150608
-6.49794e-06
-0.00014799
-7.85818e-06
-0.000144999
-8.97134e-06
-0.000141454
-1.06542e-05
-0.00013737
-1.22626e-05
-0.000132644
-1.40743e-05
-0.000127404
-1.59138e-05
-0.000121496
-1.76479e-05
-0.000114869
-1.98566e-05
-0.000107522
-2.20423e-05
-9.93952e-05
-2.43815e-05
-9.04166e-05
-2.69425e-05
-8.05687e-05
-2.95221e-05
-6.99601e-05
-3.18195e-05
-5.84174e-05
-3.46393e-05
-4.59601e-05
-3.73627e-05
-3.25431e-05
-4.02412e-05
-1.83958e-05
-4.24517e-05
-3.35539e-06
-4.52021e-05
1.23612e-05
-4.6991e-05
2.87204e-05
-4.90124e-05
4.55387e-05
-5.04183e-05
6.26435e-05
-5.12753e-05
7.98773e-05
-5.16635e-05
9.69969e-05
-5.13017e-05
0.000113805
-5.03425e-05
0.000130051
-4.8685e-05
0.000145477
-4.62183e-05
0.000159835
-4.30065e-05
0.000172802
-3.88445e-05
0.000184187
-3.40991e-05
0.000193717
-2.85302e-05
0.000201171
-2.23562e-05
0.000206432
-1.57659e-05
0.000209336
-8.67187e-06
0.000209842
-1.5207e-06
0.000207919
5.73519e-06
0.000203569
1.30324e-05
0.000196851
2.01161e-05
0.000188042
2.63818e-05
0.000177263
3.2285e-05
0.000164772
3.74025e-05
0.000150822
4.18326e-05
0.000135633
4.56617e-05
0.00011942
4.84765e-05
0.000102662
5.0206e-05
8.55769e-05
5.11983e-05
6.83809e-05
5.15342e-05
5.1239e-05
5.14795e-05
3.44333e-05
5.02938e-05
1.82056e-05
4.8598e-05
2.55167e-06
4.69665e-05
-1.23612e-05
4.47037e-05
-2.63698e-05
4.1992e-05
-3.94025e-05
3.90737e-05
-5.15293e-05
3.63909e-05
-6.27206e-05
3.35964e-05
-7.31797e-05
3.14115e-05
-8.29004e-05
2.92218e-05
-9.20044e-05
2.73483e-05
-0.000100644
2.59471e-05
-0.000108789
2.44606e-05
-0.000116394
2.28211e-05
-0.000123549
2.14712e-05
-0.000130044
1.94964e-05
-0.000135994
1.78464e-05
-0.000141228
1.57091e-05
-0.000145689
1.33941e-05
-0.000149443
1.12587e-05
-0.000152355
8.73926e-06
-0.000154331
5.92304e-06
-0.000155464
3.36574e-06
-0.000155622
4.50634e-07
-0.00015502
-1.85767e-06
-0.000153603
-4.25604e-06
-0.000151236
-7.12742e-06
-0.000148006
-9.70054e-06
-0.000143832
-1.24982e-05
-0.00013855
-1.58534e-05
-0.000132258
-1.8878e-05
-0.000124974
-2.1854e-05
-0.000116387
-2.57617e-05
-0.000106802
-2.87523e-05
-9.59434e-05
-3.25729e-05
-8.39556e-05
-3.59635e-05
-7.11321e-05
-3.84942e-05
-5.70699e-05
-4.21636e-05
-4.18772e-05
-4.55721e-05
-2.58793e-05
-4.79939e-05
-8.86332e-06
-5.10405e-05
8.90095e-06
-5.33047e-05
2.74998e-05
-5.5812e-05
4.67071e-05
-5.76262e-05
6.61149e-05
-5.81919e-05
8.58018e-05
-5.89988e-05
0.000105524
-5.91095e-05
0.000124899
-5.80792e-05
0.000143851
-5.68109e-05
0.000162024
-5.4463e-05
0.000179205
-5.14683e-05
0.000195111
-4.76388e-05
0.000209401
-4.27824e-05
0.00022186
-3.73107e-05
0.000232322
-3.13318e-05
0.000240475
-2.44174e-05
0.000246233
-1.72258e-05
0.000249508
-9.78272e-06
0.000250082
-1.71053e-06
0.000248041
6.06654e-06
0.000243321
1.41625e-05
0.000236183
2.13989e-05
0.00022674
2.82955e-05
0.000214925
3.53962e-05
0.000201137
4.13064e-05
0.000185625
4.65046e-05
0.00016844
5.14996e-05
0.000150049
5.51149e-05
0.000130697
5.7998e-05
0.000110705
5.99244e-05
9.02641e-05
6.12866e-05
6.96921e-05
6.16522e-05
4.92793e-05
6.11827e-05
2.91829e-05
6.02362e-05
9.59841e-06
5.87244e-05
-9.37855e-06
5.6921e-05
-2.75783e-05
5.45823e-05
-4.48274e-05
5.17306e-05
-6.11138e-05
4.88435e-05
-7.6324e-05
4.56178e-05
-9.03815e-05
4.21648e-05
-0.000103329
3.88334e-05
3.49405e-05
-0.000138409
-3.0288e-05
-0.000129754
-3.46319e-05
-0.000120173
-3.83191e-05
-0.000109615
-4.22725e-05
-9.78718e-05
-4.69626e-05
-8.52018e-05
-5.06756e-05
-7.13413e-05
-5.54223e-05
-5.66047e-05
-5.89394e-05
-4.10391e-05
-6.21821e-05
-2.45086e-05
-6.60857e-05
-7.16591e-06
-6.93259e-05
1.06253e-05
-7.09687e-05
2.91098e-05
-7.3791e-05
4.79584e-05
-7.52508e-05
6.70309e-05
-7.6166e-05
8.61485e-05
-7.63351e-05
0.000104885
-7.47772e-05
0.000123129
-7.28514e-05
0.000140656
-6.99785e-05
0.000157096
-6.56217e-05
0.000172276
-6.05688e-05
0.000185941
-5.45289e-05
0.000197822
-4.74225e-05
0.000207708
-3.94256e-05
0.000215389
-3.06686e-05
0.000220774
-2.14913e-05
0.000223764
-1.1937e-05
0.000224206
-1.82878e-06
0.000222174
7.92639e-06
0.000217764
1.75866e-05
0.000210909
2.73517e-05
0.000201889
3.60364e-05
0.000190749
4.44489e-05
0.000177852
5.14715e-05
0.000163332
5.80168e-05
0.000147314
6.38824e-05
0.000130265
6.80321e-05
0.000112355
7.14845e-05
9.38334e-05
7.39321e-05
7.49862e-05
7.52407e-05
5.60307e-05
7.56729e-05
3.72158e-05
7.51143e-05
1.87087e-05
7.405e-05
5.81055e-07
7.23812e-05
-1.69057e-05
6.98821e-05
-3.3671e-05
6.70016e-05
-4.96083e-05
6.37026e-05
-6.46577e-05
6.0161e-05
-7.8788e-05
5.64892e-05
-9.1959e-05
5.26712e-05
-0.000104149
4.87611e-05
-0.000115369
4.48706e-05
-0.000125624
4.10199e-05
-0.000134955
3.73212e-05
-0.000143334
3.35324e-05
-0.000150795
2.98291e-05
-0.000157387
2.63714e-05
-0.000163096
2.2818e-05
-0.000167913
1.93014e-05
-0.000171929
1.60699e-05
-0.000175096
1.26638e-05
-0.000177523
9.75597e-06
-0.000179163
6.57297e-06
-0.000180027
3.48488e-06
-0.000180235
8.762e-07
-0.000179704
-2.11507e-06
-0.000178378
-5.31344e-06
-0.000176412
-7.92643e-06
-0.00017367
-1.0916e-05
-0.000170204
-1.38735e-05
-0.000165997
-1.68158e-05
-0.000161019
-1.99667e-05
-0.000155224
-2.31802e-05
-0.000148665
-2.62464e-05
-0.00014115
-3.00698e-05
-0.000132826
-3.33086e-05
-0.000123507
-3.72557e-05
-0.000113278
-4.08979e-05
-0.000102188
-4.4355e-05
-9.01759e-05
-4.79993e-05
-7.7271e-05
-5.15545e-05
-6.36111e-05
-5.47203e-05
-4.91851e-05
-5.76882e-05
-3.40019e-05
-6.07002e-05
-1.82543e-05
-6.30023e-05
-1.8508e-06
-6.55274e-05
1.50651e-05
-6.7579e-05
3.23767e-05
-6.91856e-05
5.00049e-05
-7.04478e-05
6.7778e-05
-7.10059e-05
8.55243e-05
-7.08849e-05
0.000103045
-6.99871e-05
0.000120124
-6.82164e-05
0.000136545
-6.5563e-05
0.000151996
-6.17618e-05
0.000166352
-5.73324e-05
0.000179345
-5.186e-05
0.000190746
-4.55298e-05
0.000200415
-3.86211e-05
0.000208137
-3.08623e-05
0.000213832
-2.27392e-05
0.000217368
-1.41519e-05
0.000218693