/*--------------------------------*- C++ -*----------------------------------*\
| =========                 |                                                 |
| \\      /  F ield         | OpenFOAM: The Open Source CFD Toolbox           |
|  \\    /   O peration     | Version:  3.0.1                                 |
|   \\  /    A nd           | Web:      www.OpenFOAM.org                      |
|    \\/     M anipulation  |                                                 |
\*---------------------------------------------------------------------------*/
FoamFile
{
    version     2.0;
    format      ascii;
    class       volScalarField;
    location    "43.4";
    object      p_rgh;
}
// * * * * * * * * * * * * * * * * * * * * * * * * * * * * * * * * * * * * * //

dimensions      [1 -1 -2 0 0 0 0];

internalField   nonuniform List<scalar> 
21420
(
-257.956
-241.44
-223.137
-203.066
-181.247
-157.658
-132.342
-105.367
-76.8207
-46.798
-15.4455
17.2679
50.941
84.8042
118.764
152.485
185.621
217.849
248.769
277.97
305.084
329.698
351.424
369.946
384.955
396.215
403.554
406.84
406.019
401.168
392.379
379.724
363.422
343.723
320.908
295.291
267.261
237.195
205.491
172.576
138.844
104.673
70.3965
36.4494
8.0631
-23.8831
-54.7722
-84.2957
-112.294
-138.656
-163.316
-186.232
-207.38
-226.757
-244.367
-260.232
-274.379
-286.833
-297.63
-306.806
-314.395
-320.434
-324.949
-327.991
-329.558
-329.635
-328.3
-325.515
-321.287
-315.611
-308.447
-299.759
-289.513
-277.667
-264.187
-249.041
-232.202
-213.672
-193.454
-171.578
-148.098
-123.081
-96.6171
-68.8171
-39.8154
-9.761
21.3204
52.9126
84.9306
117.114
149.173
180.795
211.646
241.378
269.635
296.067
320.33
342.094
361.064
376.966
389.571
398.695
404.199
405.912
403.959
398.249
388.832
375.832
359.41
339.768
317.156
291.867
264.231
234.615
203.41
171.024
137.873
104.372
70.916
37.8783
5.59884
-25.6273
-55.5479
-83.9556
-110.69
-135.634
-158.714
-179.89
-199.147
-216.497
-231.968
-245.604
-257.457
-267.587
-276.055
-282.931
-288.279
-292.18
-294.689
-295.857
-295.772
-294.502
-292.086
-288.574
-284.005
-278.412
-271.814
-264.22
-255.628
-246.018
-235.37
-223.649
-210.803
-196.786
-181.553
-165.054
-147.245
-128.095
-107.587
-85.7237
-62.5277
-38.0456
-12.3496
14.4671
42.2907
70.9347
100.219
129.934
159.833
189.648
219.077
247.794
275.45
301.681
326.115
348.38
368.112
384.967
398.638
408.857
415.412
418.085
416.9
411.783
402.808
390.087
373.842
354.335
331.888
306.865
279.665
250.709
220.429
189.258
157.616
125.901
94.4782
63.6726
33.7669
4.99996
-22.4327
-48.3811
-72.7381
-95.4366
-116.443
-135.757
-153.399
-169.414
-183.862
-196.818
-208.357
-218.568
-227.532
-235.331
-242.044
-247.736
-252.466
-256.281
-259.224
-261.304
-262.523
-262.902
-262.431
-261.085
-258.826
-255.621
-251.432
-246.194
-239.853
-232.355
-223.631
-213.612
-202.228
-189.41
-175.092
-159.208
-141.705
-122.542
-101.686
-79.1291
-54.8941
-29.0308
-1.62448
27.212
57.3212
88.4783
120.43
152.897
185.562
218.067
250.028
281.034
310.66
338.479
364.062
387.001
406.914
423.45
436.313
445.267
450.117
450.773
447.251
439.622
427.962
412.519
393.563
371.424
346.474
319.121
289.797
258.947
227.008
194.39
161.481
128.65
96.2685
64.8265
33.9549
3.98192
-24.8319
-52.3179
-78.3914
-103.003
-126.138
-147.795
-167.958
-186.593
-203.681
-219.152
-233.003
-245.171
-255.64
-264.375
-271.323
-276.484
-279.901
-281.469
-281.003
-278.909
-275.151
-269.637
-262.29
-253.053
-241.803
-228.449
-212.986
-195.352
-175.555
-153.618
-129.572
-103.486
-75.4632
-45.6146
-14.0703
19.0154
53.4197
88.585
124.297
160.278
196.124
231.438
265.831
298.842
330.041
358.972
385.211
408.402
428.203
444.307
456.476
464.524
468.329
467.804
462.965
453.869
440.563
423.286
402.282
377.842
350.298
320.073
287.588
253.295
217.641
181.079
144.079
107.055
70.4144
34.5799
-0.0567621
-33.4024
-65.201
-95.2167
-123.279
-149.34
-173.336
-258.03
-241.516
-223.216
-203.147
-181.328
-157.739
-132.422
-105.446
-76.8962
-46.87
-15.5127
17.2109
50.8945
84.7695
118.742
152.478
185.629
217.874
248.811
278.031
305.164
329.796
351.54
370.077
385.098
396.366
403.711
407.006
406.176
401.321
392.526
379.861
363.546
343.833
321.001
295.367
267.319
237.235
205.513
172.581
138.834
104.648
70.3568
36.3767
8.02404
-23.9518
-54.8488
-84.3754
-112.375
-138.738
-163.398
-186.312
-207.459
-226.834
-244.442
-260.305
-274.45
-286.901
-297.697
-306.871
-314.458
-320.495
-325.009
-328.05
-329.613
-329.693
-328.358
-325.573
-321.346
-315.672
-308.51
-299.824
-289.581
-277.738
-264.26
-249.116
-232.279
-213.75
-193.533
-171.657
-148.176
-123.158
-96.6915
-68.8884
-39.8825
-9.82227
21.2635
52.8638
84.8909
117.084
149.156
180.791
211.656
241.404
269.677
296.125
320.403
342.182
361.165
377.079
389.693
398.824
404.333
406.055
404.089
398.38
388.958
375.949
359.516
339.861
317.235
291.929
264.276
234.642
203.419
171.015
137.849
104.332
70.8621
37.8125
5.52307
-25.7111
-55.6377
-84.0494
-110.786
-135.731
-158.811
-179.985
-199.241
-216.588
-232.056
-245.69
-257.54
-267.666
-276.132
-283.004
-288.349
-292.248
-294.754
-295.918
-295.833
-294.56
-292.143
-288.629
-284.059
-278.465
-271.867
-264.274
-255.682
-246.074
-235.428
-223.709
-210.865
-196.851
-181.621
-165.124
-147.318
-128.17
-107.663
-85.7994
-62.603
-38.1195
-12.4208
14.3989
42.2286
70.878
100.17
129.893
159.804
189.63
219.072
247.804
275.476
301.723
326.173
348.455
368.203
385.072
398.756
408.985
415.548
418.231
417.038
411.919
402.938
390.207
373.948
354.426
331.961
306.92
279.701
250.726
220.429
189.241
157.583
125.854
94.4197
63.6044
33.6909
4.91801
-22.5187
-48.4696
-72.8274
-95.5254
-116.531
-135.842
-153.481
-169.493
-183.937
-196.888
-208.424
-218.631
-227.591
-235.387
-242.097
-247.786
-252.515
-256.328
-259.27
-261.349
-262.567
-262.948
-262.478
-261.133
-258.875
-255.673
-251.486
-246.25
-239.912
-232.416
-223.696
-213.68
-202.3
-189.485
-175.17
-159.29
-141.789
-122.628
-101.774
-79.2178
-54.9826
-29.1179
-1.70844
27.1318
57.2488
88.4135
120.375
152.854
185.532
218.053
250.031
281.055
310.7
338.538
364.14
387.097
407.027
423.577
436.452
445.415
450.276
450.924
447.399
439.764
428.095
412.639
393.668
371.511
346.543
319.171
289.828
258.96
227.005
194.373
161.451
128.607
96.2128
64.7799
33.8993
3.91968
-24.8991
-52.3883
-78.4633
-103.076
-126.211
-147.868
-168.03
-186.665
-203.752
-219.223
-233.074
-245.242
-255.711
-264.447
-271.397
-276.561
-279.978
-281.541
-281.077
-278.987
-275.231
-269.719
-262.375
-253.14
-241.892
-228.54
-213.079
-195.445
-175.649
-153.712
-129.665
-103.578
-75.5529
-45.7007
-14.1518
18.9404
53.3579
88.5334
124.257
160.252
196.114
231.445
265.857
298.888
330.106
359.057
385.314
408.523
428.339
444.456
456.635
464.691
468.508
467.971
463.129
454.028
440.712
423.422
402.403
377.945
350.381
320.136
287.631
253.317
217.643
181.063
144.047
107.009
70.3549
34.5102
-0.136205
-33.4885
-65.2919
-95.311
-123.375
-149.437
-173.433
-258.178
-241.67
-223.373
-203.307
-181.49
-157.902
-132.583
-105.602
-77.0473
-47.0141
-15.6475
17.0971
50.8014
84.7003
118.699
152.463
185.646
217.924
248.897
278.154
305.325
329.994
351.771
370.338
385.383
396.67
404.026
407.338
406.491
401.629
392.82
380.135
363.795
344.052
321.187
295.518
267.434
237.314
205.556
172.592
138.813
104.6
70.2784
36.2337
7.94353
-24.0901
-55.002
-84.5349
-112.537
-138.902
-163.561
-186.473
-207.617
-226.988
-244.592
-260.451
-274.591
-287.038
-297.829
-306.999
-314.583
-320.616
-325.128
-328.166
-329.723
-329.806
-328.47
-325.686
-321.461
-315.79
-308.632
-299.95
-289.711
-277.873
-264.4
-249.26
-232.426
-213.899
-193.682
-171.806
-148.323
-123.301
-96.8289
-69.0188
-40.0034
-9.93125
21.165
52.782
84.8283
117.044
149.14
180.803
211.697
241.476
269.781
296.261
320.571
342.379
361.389
377.326
389.959
399.104
404.62
406.361
404.373
398.661
389.228
376.202
359.747
340.066
317.41
292.072
264.385
234.716
203.457
171.019
137.819
104.271
70.7741
37.7008
5.39173
-25.8582
-55.7966
-84.2161
-110.957
-135.904
-158.984
-180.155
-199.406
-216.748
-232.211
-245.838
-257.681
-267.801
-276.261
-283.127
-288.467
-292.36
-294.859
-296.016
-295.929
-294.652
-292.231
-288.714
-284.142
-278.548
-271.949
-264.357
-255.767
-246.162
-235.52
-223.804
-210.965
-196.957
-181.732
-165.24
-147.438
-128.293
-107.788
-85.9256
-62.7283
-38.242
-12.538
14.2884
42.1291
70.7901
100.097
129.839
159.77
189.62
219.088
247.849
275.552
301.833
326.316
348.631
368.411
385.31
399.019
409.268
415.844
418.548
417.336
412.215
403.22
390.469
374.184
354.631
332.132
307.054
279.798
250.785
220.451
189.229
157.541
125.784
94.3265
63.4919
33.5629
4.77818
-22.6667
-48.6223
-72.9817
-95.6788
-116.681
-135.988
-153.621
-169.625
-184.063
-197.006
-208.533
-218.732
-227.686
-235.475
-242.179
-247.864
-252.589
-256.399
-259.339
-261.416
-262.634
-263.017
-262.548
-261.205
-258.951
-255.753
-251.57
-246.338
-240.006
-232.516
-223.802
-213.792
-202.418
-189.61
-175.302
-159.428
-141.934
-122.777
-101.926
-79.3717
-55.1361
-29.2684
-1.8526
26.9951
57.1277
88.3075
120.289
152.791
185.497
218.049
250.06
281.12
310.803
338.68
364.319
387.313
407.276
423.855
436.753
445.732
450.613
451.247
447.716
440.068
428.379
412.896
393.893
371.7
346.695
319.285
289.905
259
227.012
194.35
161.401
128.531
96.1096
64.6946
33.795
3.80149
-25.0276
-52.5235
-78.6023
-103.217
-126.353
-148.009
-168.171
-186.806
-203.893
-219.363
-233.213
-245.382
-255.851
-264.588
-271.543
-276.713
-280.128
-281.68
-281.224
-279.141
-275.389
-269.882
-262.543
-253.314
-242.069
-228.721
-213.262
-195.631
-175.836
-153.899
-129.851
-103.761
-75.7313
-45.872
-14.3134
18.7912
53.2346
88.4306
124.178
160.2
196.094
231.46
265.909
298.979
330.236
359.227
385.522
408.764
428.612
444.755
456.954
465.025
468.865
468.307
463.458
454.345
441.012
423.695
402.644
378.151
350.548
320.262
287.716
253.361
217.649
181.032
143.983
106.915
70.2359
34.3706
-0.295072
-33.6607
-65.4736
-95.4995
-123.568
-149.631
-173.627
-258.401
-241.9
-223.61
-203.547
-181.734
-158.146
-132.824
-105.838
-77.2739
-47.2304
-15.8511
16.9262
50.6619
84.5964
118.635
152.442
185.67
217.999
249.025
278.338
305.566
330.291
352.119
370.73
385.811
397.126
404.498
407.822
406.973
402.095
393.261
380.547
364.168
344.382
321.467
295.746
267.608
237.432
205.622
172.607
138.782
104.526
70.1624
36.0326
7.80912
-24.2996
-55.2323
-84.7743
-112.781
-139.147
-163.805
-186.715
-207.854
-227.219
-244.817
-260.67
-274.803
-287.243
-298.028
-307.192
-314.77
-320.798
-325.306
-328.34
-329.888
-329.976
-328.639
-325.855
-321.634
-315.967
-308.815
-300.139
-289.907
-278.077
-264.61
-249.476
-232.647
-214.122
-193.906
-172.029
-148.543
-123.515
-97.0348
-69.2139
-40.1843
-10.0947
21.0187
52.6604
84.7358
116.984
149.118
180.822
211.761
241.587
269.94
296.468
320.825
342.678
361.728
377.7
390.362
399.527
405.055
406.816
404.807
399.088
389.637
376.585
360.097
340.377
317.676
292.29
264.551
234.829
203.517
171.026
137.777
104.183
70.6448
37.536
5.19742
-26.0762
-56.0322
-84.4636
-111.211
-136.161
-159.239
-180.406
-199.651
-216.985
-232.44
-246.057
-257.891
-268.002
-276.451
-283.308
-288.64
-292.524
-295.013
-296.164
-296.071
-294.787
-292.36
-288.84
-284.265
-278.668
-272.07
-264.479
-255.891
-246.29
-235.654
-223.945
-211.113
-197.113
-181.896
-165.411
-147.615
-128.475
-107.974
-86.1121
-62.9135
-38.4227
-12.7108
14.1262
41.982
70.6611
99.9909
129.759
159.722
189.607
219.116
247.921
275.67
302
326.534
348.899
368.726
385.669
399.417
409.696
416.292
419.022
417.791
412.664
403.648
390.867
374.542
354.942
332.391
307.258
279.945
250.877
220.489
189.215
157.48
125.682
94.1894
63.3256
33.3735
4.57097
-22.8861
-48.8489
-73.2108
-95.9065
-116.905
-136.204
-153.828
-169.823
-184.249
-197.18
-208.696
-218.883
-227.825
-235.605
-242.3
-247.978
-252.697
-256.503
-259.439
-261.513
-262.734
-263.118
-262.651
-261.311
-259.062
-255.871
-251.693
-246.469
-240.146
-232.665
-223.959
-213.959
-202.595
-189.797
-175.499
-159.634
-142.148
-122.998
-102.152
-79.6005
-55.3642
-29.4923
-2.06684
26.7929
56.9472
88.1503
120.162
152.7
185.447
218.045
250.107
281.221
310.96
338.895
364.591
387.639
407.652
424.274
437.207
446.21
451.11
451.744
448.199
440.528
428.81
413.285
394.234
371.987
346.925
319.457
290.021
259.062
227.022
194.316
161.326
128.416
95.9548
64.5671
33.6381
3.62385
-25.2204
-52.7263
-78.8109
-103.428
-126.565
-148.222
-168.383
-187.018
-204.104
-219.573
-233.423
-245.591
-256.061
-264.801
-271.762
-276.941
-280.355
-281.893
-281.445
-279.372
-275.627
-270.127
-262.796
-253.574
-242.335
-228.992
-213.538
-195.91
-176.117
-154.18
-130.131
-104.037
-75.9992
-46.129
-14.5558
18.5678
53.0487
88.2758
124.058
160.122
196.063
231.481
265.986
299.115
330.432
359.482
385.833
409.127
429.021
445.203
457.433
465.525
469.383
468.822
463.957
454.823
441.461
424.105
403.006
378.459
350.798
320.452
287.843
253.427
217.656
180.986
143.887
106.775
70.0571
34.1608
-0.533598
-33.9193
-65.7465
-95.7825
-123.857
-149.922
-173.917
-258.697
-242.206
-223.926
-203.869
-182.059
-158.471
-133.145
-106.152
-77.5764
-47.519
-16.1235
16.6965
50.4762
84.4577
118.548
152.413
185.703
218.098
249.196
278.584
305.888
330.686
352.582
371.252
386.383
397.733
405.128
408.458
407.62
402.719
393.85
381.096
364.667
344.821
321.84
296.048
267.838
237.59
205.708
172.626
138.74
104.429
70.0102
35.7967
7.59712
-24.5826
-55.5402
-85.0938
-113.107
-139.475
-164.131
-187.037
-208.17
-227.528
-245.117
-260.961
-275.086
-287.517
-298.294
-307.449
-315.019
-321.04
-325.542
-328.569
-330.112
-330.202
-328.864
-326.081
-321.864
-316.204
-309.058
-300.391
-290.169
-278.348
-264.891
-249.764
-232.941
-214.42
-194.206
-172.327
-148.837
-123.801
-97.3098
-69.4744
-40.4258
-10.3131
20.823
52.498
84.6121
116.905
149.089
180.847
211.846
241.734
270.152
296.745
321.165
343.077
362.181
378.2
390.9
400.093
405.636
407.415
405.394
399.659
390.183
377.097
360.565
340.792
318.032
292.581
264.774
234.98
203.597
171.037
137.721
104.066
70.4725
37.3163
4.93837
-26.3669
-56.3464
-84.7936
-111.55
-136.504
-159.58
-180.741
-199.977
-217.302
-232.745
-246.349
-258.171
-268.268
-276.706
-283.55
-288.87
-292.742
-295.217
-296.362
-296.26
-294.967
-292.533
-289.007
-284.428
-278.829
-272.23
-264.64
-256.056
-246.462
-235.833
-224.132
-211.31
-197.32
-182.114
-165.639
-147.852
-128.718
-108.221
-86.3606
-63.1602
-38.6634
-12.9412
13.9104
41.7854
70.4894
99.8494
129.654
159.658
189.591
219.153
248.016
275.828
302.224
326.825
349.256
369.147
386.15
399.948
410.268
416.891
419.642
418.409
413.267
404.22
391.398
375.02
355.357
332.737
307.531
280.142
250.999
220.538
189.197
157.399
125.546
94.0065
63.1039
33.1209
4.29458
-23.1789
-49.1511
-73.5163
-96.2101
-117.202
-136.492
-154.104
-170.085
-184.496
-197.412
-208.912
-219.083
-228.011
-235.778
-242.461
-248.129
-252.841
-256.642
-259.572
-261.643
-262.867
-263.252
-262.788
-261.453
-259.21
-256.028
-251.858
-246.644
-240.332
-232.862
-224.168
-214.18
-202.83
-190.046
-175.761
-159.909
-142.434
-123.293
-102.453
-79.9056
-55.6685
-29.7907
-2.35281
26.5239
56.7051
87.9406
119.992
152.577
185.379
218.039
250.169
281.356
311.17
339.181
364.954
388.074
408.154
424.835
437.814
446.849
451.763
452.412
448.847
441.144
429.384
413.805
394.688
372.37
347.231
319.687
290.175
259.143
227.036
194.27
161.226
128.263
95.747
64.3978
33.4277
3.38598
-25.4776
-52.9967
-79.0892
-103.71
-126.849
-148.506
-168.665
-187.3
-204.385
-219.853
-233.702
-245.871
-256.342
-265.085
-272.053
-277.241
-280.651
-282.18
-281.742
-279.68
-275.945
-270.454
-263.132
-253.92
-242.69
-229.353
-213.905
-196.282
-176.491
-154.555
-130.504
-104.404
-76.3566
-46.4718
-14.8786
18.2705
52.7994
88.0687
123.898
160.018
196.022
231.509
266.089
299.296
330.694
359.823
386.247
409.611
429.567
445.801
458.071
466.193
470.061
469.513
464.628
455.461
442.06
424.651
403.489
378.871
351.131
320.704
288.013
253.516
217.666
180.923
143.758
106.587
69.8183
33.8804
-0.852048
-34.2644
-66.1106
-96.16
-124.242
-150.311
-174.304
-259.068
-242.59
-224.32
-204.27
-182.466
-158.878
-133.547
-106.544
-77.9549
-47.8801
-16.464
16.4058
50.2441
84.2842
118.44
152.376
185.743
218.221
249.409
278.891
306.289
331.18
353.162
371.906
387.098
398.494
405.917
409.255
408.423
403.501
394.588
381.783
365.29
345.37
322.307
296.426
268.126
237.787
205.816
172.65
138.687
104.307
69.8232
35.5249
7.30804
-24.9411
-55.9263
-85.4937
-113.514
-139.884
-164.539
-187.44
-208.565
-227.914
-245.493
-261.326
-275.439
-287.859
-298.625
-307.77
-315.33
-321.343
-325.838
-328.855
-330.393
-330.484
-329.145
-326.363
-322.152
-316.499
-309.362
-300.706
-290.496
-278.687
-265.241
-250.124
-233.309
-214.793
-194.581
-172.7
-149.204
-124.159
-97.6539
-69.8003
-40.7283
-10.5866
20.5774
52.2945
84.457
116.805
149.051
180.879
211.951
241.918
270.417
297.091
321.59
343.576
362.747
378.825
391.573
400.801
406.364
408.157
406.135
400.374
390.868
377.738
361.15
341.312
318.478
292.945
265.052
235.17
203.697
171.049
137.65
103.919
70.2563
37.0409
4.61369
-26.7311
-56.7397
-85.2068
-111.975
-136.932
-160.006
-181.161
-200.386
-217.697
-233.126
-246.715
-258.521
-268.602
-277.023
-283.853
-289.158
-293.014
-295.474
-296.609
-296.495
-295.192
-292.748
-289.215
-284.632
-279.03
-272.43
-264.842
-256.263
-246.676
-236.056
-224.365
-211.556
-197.58
-182.387
-165.924
-148.147
-129.022
-108.531
-86.6718
-63.469
-38.9646
-13.2298
13.6403
41.5386
70.2741
99.6719
129.521
159.578
189.57
219.199
248.135
276.026
302.504
327.189
349.703
369.674
386.751
400.613
410.984
417.641
420.412
419.187
414.022
404.937
392.063
375.618
355.877
333.17
307.871
280.388
251.151
220.599
189.173
157.297
125.375
93.777
62.8259
32.8042
3.94826
-23.5456
-49.5295
-73.8989
-96.5903
-117.575
-136.853
-154.45
-170.414
-184.806
-197.702
-209.182
-219.334
-228.244
-235.994
-242.663
-248.319
-253.021
-256.815
-259.739
-261.807
-263.032
-263.419
-262.96
-261.63
-259.396
-256.224
-252.064
-246.862
-240.564
-233.109
-224.43
-214.458
-203.124
-190.357
-176.089
-160.253
-142.792
-123.663
-102.831
-80.2876
-56.0495
-30.1642
-2.7113
26.1876
56.4007
87.6775
119.779
152.424
185.294
218.031
250.245
281.523
311.432
339.539
365.408
388.619
408.782
425.536
438.573
447.649
452.583
453.243
449.661
441.916
430.102
414.454
395.257
372.848
347.615
319.974
290.367
259.244
227.053
194.212
161.101
128.072
95.485
64.1873
33.1629
3.08738
-25.7993
-53.3349
-79.4372
-104.062
-127.203
-148.86
-169.019
-187.653
-204.737
-220.204
-234.052
-246.22
-256.693
-265.44
-272.415
-277.611
-281.019
-282.546
-282.116
-280.066
-276.343
-270.864
-263.553
-254.353
-243.134
-229.805
-214.365
-196.746
-176.959
-155.024
-130.97
-104.863
-76.8039
-46.9007
-15.2822
17.8992
52.4864
87.8088
123.698
159.887
195.969
231.543
266.217
299.523
331.02
360.248
386.766
410.216
430.249
446.549
458.87
467.028
470.911
470.372
465.47
456.262
442.81
425.334
404.094
379.385
351.548
321.019
288.225
253.625
217.678
180.843
143.596
106.352
69.5192
33.5288
-1.25081
-34.6964
-66.5663
-96.6325
-124.725
-150.797
-174.789
-259.514
-243.05
-224.794
-204.753
-182.954
-159.367
-134.031
-107.016
-78.4095
-48.3137
-16.8722
16.0528
49.9648
84.0752
118.31
152.331
185.791
218.369
249.664
279.259
306.771
331.774
353.858
372.692
387.956
399.408
406.865
410.216
409.386
404.44
395.476
382.609
366.039
346.029
322.867
296.88
268.471
238.022
205.945
172.678
138.622
104.161
69.6022
35.2176
6.94021
-25.3767
-56.391
-85.9743
-114.003
-140.376
-165.029
-187.924
-209.04
-228.377
-245.943
-261.764
-275.863
-288.27
-299.023
-308.156
-315.704
-321.706
-326.191
-329.198
-330.733
-330.822
-329.482
-326.702
-322.497
-316.854
-309.727
-301.084
-290.889
-279.094
-265.662
-250.557
-233.751
-215.241
-195.031
-173.148
-149.646
-124.589
-98.0673
-70.1919
-41.0922
-10.9152
20.2811
52.0493
84.2702
116.684
149.005
180.916
212.077
242.138
270.735
297.506
322.099
344.175
363.428
379.576
392.381
401.651
407.241
409.045
407.024
401.235
391.69
378.508
361.853
341.936
319.012
293.382
265.385
235.397
203.817
171.064
137.565
103.741
69.9957
36.7094
4.2228
-27.1692
-57.2129
-85.7036
-112.485
-137.447
-160.518
-181.664
-200.877
-218.173
-233.583
-247.154
-258.94
-269.002
-277.405
-284.215
-289.503
-293.34
-295.784
-296.905
-296.778
-295.461
-293.007
-289.465
-284.876
-279.271
-272.671
-265.085
-256.511
-246.933
-236.324
-224.646
-211.851
-197.891
-182.714
-166.266
-148.502
-129.387
-108.903
-87.046
-63.8402
-39.3267
-13.5768
13.3152
41.2415
70.0149
99.4579
129.362
159.48
189.544
219.253
248.276
276.262
302.839
327.625
350.24
370.307
387.472
401.412
411.844
418.544
421.337
420.12
414.93
405.799
392.862
376.336
356.501
333.689
308.28
280.683
251.333
220.672
189.142
157.173
125.169
93.5003
62.4912
32.4229
3.53148
-23.9868
-49.9846
-74.3589
-97.0474
-118.022
-137.286
-154.866
-170.809
-185.178
-198.05
-209.506
-219.636
-228.523
-236.253
-242.905
-248.547
-253.236
-257.022
-259.939
-262.004
-263.23
-263.62
-263.166
-261.843
-259.619
-256.459
-252.312
-247.124
-240.843
-233.405
-224.744
-214.791
-203.478
-190.731
-176.483
-160.666
-143.222
-124.106
-103.285
-80.7468
-56.5077
-30.613
-3.14255
25.7835
56.0333
87.3609
119.522
152.238
185.19
218.02
250.336
281.723
311.746
339.969
365.952
389.273
409.536
426.378
439.485
448.61
453.569
454.238
450.637
442.843
430.966
415.235
395.94
373.423
348.075
320.318
290.596
259.364
227.072
194.141
160.95
127.844
95.1671
63.9367
32.8427
2.72758
-26.1859
-53.7409
-79.855
-104.486
-127.629
-149.287
-169.443
-188.078
-205.159
-220.624
-234.472
-246.64
-257.115
-265.865
-272.848
-278.052
-281.46
-282.985
-282.566
-280.53
-276.82
-271.355
-264.057
-254.872
-243.666
-230.348
-214.916
-197.305
-177.521
-155.587
-131.53
-105.415
-77.3413
-47.4161
-15.7669
17.4533
52.1093
87.4956
123.456
159.728
195.905
231.582
266.37
299.794
331.411
360.758
387.389
410.942
431.069
447.448
459.83
468.031
471.935
471.401
466.48
457.224
443.711
426.155
404.819
380.003
352.048
321.397
288.478
253.756
217.691
180.747
143.401
106.069
69.1592
33.1056
-1.73038
-35.2158
-67.114
-97.2001
-125.304
-151.381
-175.372
-260.033
-243.587
-225.347
-205.317
-183.524
-159.938
-134.595
-107.567
-78.9406
-48.8201
-17.3479
15.6366
49.6375
83.8303
118.157
152.278
185.845
218.539
249.961
279.687
307.333
332.466
354.671
373.609
388.959
400.476
407.973
411.34
410.508
405.534
396.513
383.574
366.913
346.799
323.52
297.41
268.873
238.297
206.094
172.71
138.546
103.99
69.348
34.877
6.48979
-25.891
-56.9351
-86.5358
-114.574
-140.951
-165.601
-188.489
-209.593
-228.917
-246.469
-262.274
-276.358
-288.749
-299.487
-308.605
-316.141
-322.13
-326.604
-329.599
-331.128
-331.215
-329.874
-327.097
-322.899
-317.267
-310.153
-301.524
-291.347
-279.569
-266.153
-251.062
-234.267
-215.764
-195.557
-173.672
-150.161
-125.091
-98.5501
-70.6496
-41.5178
-11.2993
19.9336
51.7623
84.0511
116.542
148.95
180.957
212.223
242.395
271.105
297.989
322.694
344.875
364.222
380.453
393.325
402.645
408.265
410.083
408.06
402.24
392.651
379.407
362.674
342.664
319.637
293.892
265.774
235.661
203.955
171.08
137.464
103.532
69.6901
36.3209
3.76506
-27.6819
-57.7664
-86.2847
-113.082
-138.049
-161.117
-182.253
-201.45
-218.728
-234.118
-247.667
-259.43
-269.47
-277.85
-284.639
-289.906
-293.721
-296.146
-297.251
-297.107
-295.776
-293.309
-289.757
-285.161
-279.551
-272.951
-265.368
-256.8
-247.232
-236.636
-224.973
-212.197
-198.255
-183.096
-166.666
-148.916
-129.814
-109.338
-87.4835
-64.274
-39.7503
-13.9828
12.9346
40.8936
69.7114
99.2073
129.174
159.365
189.513
219.314
248.441
276.536
303.229
328.133
350.865
371.046
388.314
402.345
412.849
419.599
422.418
421.208
415.99
406.807
393.795
377.175
357.229
334.296
308.756
281.027
251.544
220.756
189.106
157.027
124.926
93.1756
62.0992
31.9764
3.04366
-24.5029
-50.5168
-74.8966
-97.5817
-118.545
-137.792
-155.351
-171.27
-185.613
-198.457
-209.885
-219.987
-228.849
-236.556
-243.187
-248.812
-253.488
-257.264
-260.173
-262.234
-263.461
-263.854
-263.406
-262.092
-259.879
-256.732
-252.601
-247.431
-241.169
-233.751
-225.11
-215.18
-203.89
-191.167
-176.943
-161.148
-143.724
-124.624
-103.815
-81.2834
-57.0431
-31.1378
-3.64705
25.3108
55.6027
86.9898
119.221
152.019
185.068
218.006
250.441
281.956
312.111
340.469
366.587
390.036
410.417
427.361
440.551
449.734
454.723
455.401
451.777
443.927
431.974
416.146
396.737
374.094
348.611
320.719
290.862
259.503
227.093
194.057
160.774
127.579
94.7914
63.6467
32.4657
2.3059
-26.6375
-54.2149
-80.3428
-104.981
-128.127
-149.784
-169.939
-188.572
-205.652
-221.116
-234.961
-247.13
-257.607
-266.362
-273.352
-278.564
-281.974
-283.499
-283.093
-281.072
-277.378
-271.928
-264.647
-255.478
-244.286
-230.981
-215.56
-197.956
-178.178
-156.244
-132.184
-106.059
-77.9691
-48.0183
-16.3332
16.9319
51.6681
87.1289
123.172
159.542
195.829
231.628
266.547
300.109
331.867
361.353
388.115
411.79
432.026
448.498
460.952
469.203
473.132
472.602
467.659
458.349
444.764
427.113
405.666
380.724
352.631
321.837
288.774
253.908
217.706
180.633
143.171
105.736
68.7379
32.61
-2.29134
-35.8229
-67.754
-97.8633
-125.982
-152.064
-176.052
-260.627
-244.202
-225.979
-205.962
-184.177
-160.592
-135.242
-108.198
-79.5486
-49.3996
-17.8916
15.1564
49.261
83.5486
117.981
152.216
185.905
218.733
250.298
280.176
307.975
333.258
355.6
374.659
390.108
401.698
409.243
412.627
411.792
406.784
397.7
384.677
367.913
347.679
324.268
298.014
269.331
238.609
206.263
172.744
138.457
103.793
69.0611
34.5078
5.95062
-26.4856
-57.5589
-87.1788
-115.228
-141.609
-166.256
-189.135
-210.227
-229.535
-247.07
-262.858
-276.923
-289.297
-300.018
-309.119
-316.64
-322.614
-327.075
-330.058
-331.58
-331.663
-330.323
-327.548
-323.359
-317.739
-310.639
-302.028
-291.871
-280.113
-266.715
-251.64
-234.858
-216.363
-196.158
-174.27
-150.751
-125.666
-99.1027
-71.1738
-42.0056
-11.7396
19.5347
51.4333
83.7993
116.379
148.886
181.004
212.389
242.687
271.528
298.542
323.374
345.675
365.131
381.456
394.405
403.783
409.437
411.271
409.245
403.391
393.75
380.436
363.613
343.498
320.35
294.475
266.219
235.962
204.113
171.097
137.347
103.291
69.3388
35.8747
3.23978
-28.27
-58.4011
-86.9505
-113.765
-138.738
-161.802
-182.926
-202.107
-219.363
-234.729
-248.253
-259.991
-270.004
-278.359
-285.123
-290.366
-294.158
-296.56
-297.645
-297.484
-296.135
-293.654
-290.091
-285.487
-279.872
-273.271
-265.691
-257.131
-247.575
-236.993
-225.348
-212.591
-198.671
-183.533
-167.123
-149.391
-130.303
-109.835
-87.9844
-64.7707
-40.2355
-14.4481
12.4983
40.4943
69.3631
98.9196
128.958
159.232
189.475
219.384
248.627
276.848
303.674
328.713
351.58
371.89
389.277
403.412
414
420.807
423.658
422.452
417.203
407.96
394.863
378.135
358.062
334.988
309.301
281.419
251.785
220.85
189.062
156.858
124.647
92.8024
61.6495
31.4642
2.48427
-25.0944
-51.1268
-75.5125
-98.1934
-119.144
-138.372
-155.906
-171.797
-186.11
-198.922
-210.319
-220.389
-229.222
-236.902
-243.51
-249.114
-253.775
-257.54
-260.44
-262.498
-263.724
-264.121
-263.68
-262.376
-260.177
-257.045
-252.931
-247.782
-241.541
-234.145
-225.529
-215.625
-204.362
-191.667
-177.469
-161.7
-144.298
-125.217
-104.422
-81.8979
-57.6561
-31.739
-4.22538
24.7688
55.1085
86.5637
118.874
151.768
184.927
217.988
250.559
282.22
312.528
341.041
367.312
390.909
411.425
428.487
441.772
451.021
456.046
456.731
453.08
445.168
433.128
417.188
397.648
374.86
349.225
321.175
291.165
259.659
227.115
193.96
160.572
127.277
94.3567
63.3175
32.0302
1.82162
-27.1544
-54.757
-80.9007
-105.547
-128.696
-150.353
-170.507
-189.138
-206.215
-221.677
-235.521
-247.69
-258.169
-266.929
-273.926
-279.148
-282.562
-284.09
-283.697
-281.691
-278.015
-272.584
-265.321
-256.17
-244.995
-231.705
-216.296
-198.701
-178.928
-156.996
-132.932
-106.797
-78.6879
-48.7079
-16.9821
16.3343
51.1626
86.7079
122.846
159.326
195.739
231.678
266.749
300.469
332.387
362.032
388.945
412.759
433.121
449.699
462.235
470.544
474.503
473.977
469.007
459.637
445.968
428.209
406.635
381.548
353.298
322.34
289.11
254.08
217.721
180.501
142.905
105.354
68.2546
32.0411
-2.93439
-36.5186
-68.4869
-98.6225
-126.757
-152.845
-176.83
-261.296
-244.893
-226.691
-206.688
-184.912
-161.329
-135.97
-108.909
-80.2338
-50.0524
-18.5037
14.6112
48.8345
83.2293
117.781
152.145
185.972
218.949
250.676
280.724
308.697
334.149
356.647
375.841
391.401
403.075
410.674
414.079
413.238
408.192
399.037
385.92
369.039
348.67
325.109
298.695
269.845
238.958
206.451
172.78
138.354
103.57
68.7413
34.1167
5.31416
-27.1614
-58.263
-87.9034
-115.965
-142.349
-166.993
-189.862
-210.94
-230.23
-247.747
-263.514
-277.559
-289.913
-300.615
-309.697
-317.201
-323.159
-327.604
-330.574
-332.087
-332.166
-330.827
-328.055
-323.876
-318.27
-311.185
-302.594
-292.46
-280.724
-267.348
-252.291
-235.523
-217.037
-196.836
-174.944
-151.415
-126.313
-99.7257
-71.7648
-42.5562
-12.2374
19.0845
51.062
83.5145
116.193
148.812
181.054
212.574
243.014
272.002
299.164
324.139
346.575
366.154
382.586
395.623
405.065
410.76
412.61
410.577
404.688
394.989
381.595
364.671
344.437
321.154
295.131
266.718
236.3
204.289
171.114
137.214
103.017
68.9408
35.3703
2.6461
-28.9342
-59.1176
-87.7018
-114.536
-139.515
-162.574
-183.685
-202.846
-220.078
-235.417
-248.913
-260.621
-270.606
-278.932
-285.668
-290.884
-294.649
-297.027
-298.089
-297.907
-296.539
-294.042
-290.467
-285.853
-280.233
-273.631
-266.054
-257.503
-247.959
-237.394
-225.769
-213.036
-199.139
-184.025
-167.638
-149.926
-130.854
-110.397
-88.5489
-65.3309
-40.7829
-14.9732
12.0056
40.0434
68.9698
98.5941
128.712
159.081
189.43
219.459
248.835
277.198
304.173
329.366
352.385
372.841
390.363
404.614
415.296
422.17
425.056
423.854
418.571
409.261
396.067
379.216
359
335.768
309.912
281.859
252.054
220.953
189.011
156.665
124.33
92.3797
61.1413
30.8853
1.85268
-25.7622
-51.8151
-76.2071
-98.8829
-119.819
-139.025
-156.532
-172.391
-186.67
-199.446
-210.806
-220.841
-229.641
-237.291
-243.872
-249.455
-254.098
-257.849
-260.74
-262.794
-264.02
-264.422
-263.988
-262.695
-260.512
-257.396
-253.303
-248.176
-241.959
-234.589
-226.001
-216.125
-204.893
-192.229
-178.061
-162.32
-144.945
-125.886
-105.107
-82.5906
-58.347
-32.4174
-4.87825
24.1567
54.5502
86.0818
118.482
151.482
184.765
217.966
250.69
282.515
312.995
341.684
368.128
391.892
412.56