/*--------------------------------*- C++ -*----------------------------------*\
| =========                 |                                                 |
| \\      /  F ield         | OpenFOAM: The Open Source CFD Toolbox           |
|  \\    /   O peration     | Version:  3.0.1                                 |
|   \\  /    A nd           | Web:      www.OpenFOAM.org                      |
|    \\/     M anipulation  |                                                 |
\*---------------------------------------------------------------------------*/
FoamFile
{
    version     2.0;
    format      ascii;
    class       volScalarField;
    location    "36.4";
    object      p_rgh;
}
// * * * * * * * * * * * * * * * * * * * * * * * * * * * * * * * * * * * * * //

dimensions      [1 -1 -2 0 0 0 0];

internalField   nonuniform List<scalar> 
21420
(
316.758
288.424
258.538
227.359
195.216
162.433
129.4
96.4278
63.8521
32.0135
1.18189
-28.3678
-56.1945
-82.2343
-107.321
-130.9
-152.836
-173.079
-191.619
-208.467
-223.655
-237.226
-249.226
-259.709
-268.726
-276.327
-282.559
-287.461
-291.066
-293.4
-294.482
-294.289
-292.819
-290.076
-286.019
-280.598
-273.788
-265.514
-255.725
-244.365
-231.36
-216.658
-200.19
-181.912
-161.806
-139.88
-116.134
-90.6357
-63.5141
-34.9738
-6.05588
24.7456
56.6962
89.3724
122.396
155.455
188.174
220.149
251.03
280.424
307.961
333.284
356.037
375.924
392.682
406.051
415.834
421.873
424
422.456
416.973
407.663
394.545
377.797
357.641
334.347
308.224
279.611
248.885
216.456
182.744
148.187
113.235
78.3329
43.8997
10.1857
-30.7449
-63.2389
-94.0718
-123.212
-150.501
-175.848
-199.192
-220.525
-239.84
-257.161
-272.533
-286.005
-297.635
-307.489
-315.635
-322.147
-327.092
-330.532
-332.531
-333.106
-332.266
-330.076
-326.511
-321.567
-315.231
-307.48
-298.28
-287.601
-275.413
-261.676
-246.363
-229.452
-210.92
-190.759
-168.986
-145.624
-120.723
-94.3534
-66.6091
-37.6116
-7.49525
23.46
55.0588
87.0387
119.097
150.898
182.075
212.239
240.988
267.909
292.595
314.654
333.715
349.444
361.548
369.795
374.026
374.029
369.953
361.766
349.539
333.481
313.836
290.898
265.005
236.549
205.941
173.62
140.04
105.654
70.9104
36.2312
2.01521
-31.3756
-63.6289
-94.484
-123.725
-151.189
-176.767
-200.395
-222.047
-241.735
-259.501
-275.399
-289.5
-301.886
-312.636
-321.818
-329.493
-335.723
-340.559
-344.043
-346.224
-347.119
-346.74
-345.156
-342.348
-338.319
-333.049
-326.523
-318.719
-309.602
-299.128
-287.258
-273.952
-259.163
-242.855
-225.001
-205.584
-184.603
-162.075
-138.036
-112.554
-85.7247
-57.6783
-28.4062
1.60448
32.2773
63.3418
94.4948
125.4
155.69
184.973
212.841
238.881
262.68
283.841
301.991
316.799
327.979
335.3
338.571
337.756
332.808
323.847
310.954
294.363
274.354
251.268
225.486
197.431
167.539
136.26
104.04
71.3024
38.4565
5.87695
-26.0994
-57.1663
-87.0899
-115.662
-142.724
-168.162
-191.898
-213.886
-234.116
-252.602
-269.377
-284.488
-297.997
-309.968
-320.469
-329.564
-337.307
-343.743
-348.908
-352.839
-355.541
-357.002
-357.239
-356.259
-354.03
-350.528
-345.73
-339.614
-332.147
-323.298
-313.037
-301.318
-288.106
-273.38
-257.112
-239.282
-219.887
-198.951
-176.519
-152.688
-127.601
-101.455
-73.9449
-35.9376
-2.60358
31.1354
65.4952
100.173
134.846
169.087
202.415
234.368
264.446
292.087
316.847
338.181
355.669
368.829
377.539
381.938
382.516
378.7
370.746
358.891
343.333
324.394
302.381
277.745
250.847
222.127
192.046
160.959
129.259
97.3457
65.508
34.1474
3.75934
-23.3807
-50.5556
-77.2956
-103.068
-127.521
-150.501
-171.92
-191.754
-209.993
-226.651
-241.754
-255.321
-267.373
-277.927
-286.991
-294.57
-300.659
-305.257
-308.347
-309.892
-309.612
-307.751
-304.274
-299.196
-292.507
-284.217
-274.31
-262.796
-249.703
-235.04
-218.833
-201.121
-181.949
-161.365
-139.44
-116.252
-91.9054
-66.5846
-40.7941
-15.4981
11.6349
39.5741
67.8858
96.3384
124.742
152.713
179.916
316.825
288.474
258.571
227.376
195.216
162.418
129.372
96.3873
63.8007
31.9528
1.11386
-28.4406
-56.267
-82.3119
-107.4
-130.979
-152.914
-173.155
-191.694
-208.539
-223.724
-237.292
-249.29
-259.769
-268.784
-276.383
-282.613
-287.513
-291.116
-293.45
-294.531
-294.338
-292.869
-290.128
-286.072
-280.654
-273.845
-265.574
-255.789
-244.431
-231.43
-216.731
-200.266
-181.991
-161.887
-139.961
-116.216
-90.7151
-63.589
-35.0413
-6.12989
24.6818
56.6435
89.3315
122.367
155.441
188.175
220.166
251.063
280.474
308.028
333.367
356.135
376.036
392.807
406.187
415.978
422.023
424.157
422.607
417.121
407.806
394.68
377.92
357.749
334.439
308.299
279.667
248.922
216.474
182.743
148.168
113.2
78.2812
43.834
10.1125
-30.813
-63.3127
-94.1523
-123.298
-150.59
-175.94
-199.284
-220.617
-239.931
-257.25
-272.619
-286.089
-297.716
-307.566
-315.709
-322.218
-327.16
-330.599
-332.596
-333.167
-332.33
-330.139
-326.575
-321.632
-315.297
-307.548
-298.35
-287.673
-275.487
-261.753
-246.442
-229.532
-211.002
-190.843
-169.07
-145.708
-120.806
-94.4344
-66.6869
-37.685
-7.56271
23.4004
55.0085
86.9995
119.071
150.887
182.079
212.261
241.028
267.968
292.672
314.749
333.827
349.571
361.687
369.943
374.178
374.188
370.102
361.911
349.675
333.605
313.945
290.99
265.079
236.603
205.975
173.634
140.035
105.632
70.8715
36.1776
1.94889
-31.4523
-63.7139
-94.5751
-123.82
-151.286
-176.865
-200.491
-222.141
-241.826
-259.588
-275.481
-289.578
-301.961
-312.707
-321.886
-329.558
-335.786
-340.62
-344.103
-346.282
-347.174
-346.796
-345.212
-342.405
-338.376
-333.107
-326.583
-318.78
-309.665
-299.194
-287.326
-274.022
-259.236
-242.93
-225.078
-205.663
-184.683
-162.155
-138.115
-112.633
-85.7997
-57.7462
-28.4744
1.5461
32.2288
63.3046
94.4708
125.391
155.698
184.998
212.885
238.944
262.762
283.94
302.107
316.929
328.121
335.449
338.731
337.907
332.956
323.989
311.085
294.481
274.456
251.351
225.55
197.475
167.563
136.266
104.028
71.2745
38.4145
5.82263
-26.1642
-57.2387
-87.1687
-115.745
-142.809
-168.249
-191.984
-213.971
-234.199
-252.683
-269.454
-284.561
-298.067
-310.035
-320.533
-329.625
-337.366
-343.8
-348.964
-352.894
-355.596
-357.055
-357.294
-356.315
-354.087
-350.586
-345.79
-339.675
-332.21
-323.363
-313.104
-301.386
-288.177
-273.453
-257.187
-239.358
-219.964
-199.027
-176.593
-152.76
-127.67
-101.527
-74.0375
-35.9682
-2.65287
31.0903
65.4622
100.156
134.846
169.107
202.456
234.43
264.532
292.194
316.975
338.328
355.832
369.019
377.755
382.116
382.676
378.865
370.909
359.042
343.466
324.508
302.476
277.819
250.902
222.162
192.063
160.96
129.245
97.3175
65.4644
34.0842
3.67062
-23.4082
-50.6063
-77.361
-103.14
-127.595
-150.575
-171.993
-191.825
-210.062
-226.718
-241.819
-255.384
-267.434
-277.988
-287.051
-294.63
-300.719
-305.317
-308.407
-309.953
-309.674
-307.814
-304.337
-299.26
-292.57
-284.281
-274.375
-262.861
-249.768
-235.106
-218.898
-201.185
-182.013
-161.428
-139.501
-116.311
-91.9606
-66.6346
-40.8408
-15.5471
11.5927
39.5401
67.8603
96.3221
124.736
152.718
179.933
316.96
288.574
258.637
227.408
195.217
162.389
129.315
96.3061
63.6978
31.8313
0.977744
-28.5865
-56.412
-82.4669
-107.557
-131.137
-153.071
-173.309
-191.843
-208.683
-223.862
-237.424
-249.416
-259.89
-268.9
-276.494
-282.72
-287.616
-291.218
-293.549
-294.628
-294.435
-292.971
-290.233
-286.178
-280.764
-273.96
-265.695
-255.916
-244.564
-231.57
-216.877
-200.418
-182.147
-162.047
-140.124
-116.378
-90.8733
-63.7378
-35.175
-6.27709
24.5552
56.5396
89.2509
122.312
155.413
188.177
220.2
251.13
280.576
308.163
333.535
356.334
376.263
393.058
406.461
416.269
422.326
424.474
422.908
417.422
408.094
394.951
378.168
357.969
334.627
308.451
279.782
249
216.513
182.746
148.137
113.135
78.1851
43.7105
9.97448
-30.9394
-63.4499
-94.3023
-123.458
-150.758
-176.111
-199.456
-220.788
-240.099
-257.414
-272.778
-286.241
-297.861
-307.705
-315.841
-322.344
-327.281
-330.716
-332.71
-333.275
-332.44
-330.249
-326.685
-321.745
-315.412
-307.665
-298.471
-287.799
-275.616
-261.887
-246.58
-229.674
-211.146
-190.99
-169.219
-145.856
-120.952
-94.5763
-66.8227
-37.8121
-7.67768
23.3009
54.9276
86.9408
119.038
150.883
182.108
212.324
241.127
268.104
292.846
314.959
334.069
349.842
361.981
370.255
374.496
374.525
370.416
362.216
349.963
333.868
314.178
291.188
265.24
236.725
206.058
173.678
140.04
105.601
70.8069
36.0835
1.8293
-31.5928
-63.8709
-94.7442
-123.997
-151.467
-177.046
-200.67
-222.315
-241.994
-259.748
-275.634
-289.722
-302.097
-312.836
-322.008
-329.676
-335.899
-340.728
-344.208
-346.385
-347.27
-346.895
-345.309
-342.503
-338.475
-333.208
-326.687
-318.888
-309.777
-299.31
-287.447
-274.148
-259.367
-243.065
-225.218
-205.806
-184.828
-162.3
-138.259
-112.773
-85.9342
-57.8676
-28.5941
1.44498
32.1471
63.2456
94.4383
125.388
155.728
185.064
212.988
239.085
262.94
284.155
302.353
317.204
328.418
335.762
339.065
338.22
333.268
324.286
311.361
294.729
274.671
251.529
225.69
197.575
167.624
136.289
104.015
71.2296
38.3411
5.72457
-26.283
-57.3731
-87.3157
-115.9
-142.97
-168.411
-192.146
-214.131
-234.354
-252.832
-269.597
-284.698
-298.196
-310.157
-320.648
-329.735
-337.471
-343.902
-349.064
-352.993
-355.693
-357.15
-357.393
-356.415
-354.188
-350.689
-345.897
-339.784
-332.323
-323.48
-313.224
-301.511
-288.305
-273.586
-257.324
-239.498
-220.104
-199.167
-176.73
-152.891
-127.798
-101.662
-74.2116
-36.0227
-2.74444
31.0069
65.4026
100.127
134.852
169.151
202.542
234.56
264.706
292.412
317.233
338.623
356.161
369.403
378.176
382.472
383
379.198
371.237
359.342
343.739
324.74
302.667
277.969
251.011
222.233
192.098
160.962
129.218
97.2613
65.3775
33.9583
3.49205
-23.4621
-50.7081
-77.4921
-103.283
-127.743
-150.723
-172.138
-191.967
-210.2
-226.851
-241.948
-255.51
-267.558
-278.109
-287.171
-294.749
-300.838
-305.436
-308.528
-310.074
-309.799
-307.938
-304.463
-299.386
-292.698
-284.41
-274.505
-262.992
-249.899
-235.237
-219.029
-201.315
-182.141
-161.554
-139.624
-116.429
-92.0709
-66.7342
-40.9342
-15.6453
11.5084
39.4721
67.8095
96.2894
124.724
152.727
179.965
317.161
288.724
258.736
227.457
195.218
162.345
129.23
96.1841
63.5432
31.6488
0.773413
-28.8059
-56.6296
-82.6994
-107.794
-131.374
-153.306
-173.539
-192.066
-208.899
-224.069
-237.623
-249.606
-260.071
-269.073
-276.66
-282.88
-287.772
-291.369
-293.698
-294.774
-294.58
-293.124
-290.389
-286.337
-280.929
-274.132
-265.876
-256.106
-244.764
-231.78
-217.096
-200.646
-182.383
-162.288
-140.367
-116.621
-91.1108
-63.9612
-35.3753
-6.49887
24.3652
56.3834
89.1298
122.229
155.371
188.181
220.252
251.232
280.728
308.366
333.786
356.632
376.602
393.436
406.871
416.705
422.779
424.945
423.367
417.876
408.526
395.358
378.541
358.299
334.908
308.679
279.955
249.116
216.574
182.752
148.09
113.038
78.0415
43.5258
9.76767
-31.1273
-63.6542
-94.526
-123.697
-151.007
-176.366
-199.713
-221.043
-240.35
-257.659
-273.015
-286.469
-298.078
-307.911
-316.037
-322.53
-327.461
-330.889
-332.877
-333.435
-332.604
-330.411
-326.848
-321.911
-315.582
-307.839
-298.65
-287.984
-275.808
-262.085
-246.785
-229.884
-211.361
-191.209
-169.439
-146.076
-121.169
-94.7867
-67.0238
-38.0006
-7.84721
23.1545
54.8089
86.8555
118.992
150.881
182.154
212.422
241.28
268.313
293.111
315.276
334.436
350.252
362.427
370.725
374.979
375.028
370.895
362.678
350.398
334.266
314.53
291.489
265.485
236.912
206.184
173.745
140.05
105.556
70.7123
35.9444
1.65191
-31.8015
-64.1045
-94.9959
-124.26
-151.736
-177.316
-200.937
-222.575
-242.244
-259.987
-275.86
-289.937
-302.3
-313.028
-322.191
-329.85
-336.066
-340.889
-344.363
-346.536
-347.413
-347.041
-345.454
-342.648
-338.622
-333.358
-326.842
-319.048
-309.942
-299.482
-287.627
-274.335
-259.562
-243.267
-225.425
-206.018
-185.043
-162.515
-138.473
-112.982
-86.1341
-58.0502
-28.7695
1.29543
32.0267
63.1593
94.3917
125.386
155.776
185.165
213.146
239.299
263.21
284.478
302.726
317.619
328.865
336.233
339.56
338.698
333.74
324.735
311.778
295.104
274.996
251.799
225.901
197.727
167.717
136.325
103.998
71.164
38.2328
5.57922
-26.4592
-57.5734
-87.5347
-116.132
-143.209
-168.653
-192.388
-214.368
-234.586
-253.056
-269.811
-284.9
-298.388
-310.339
-320.821
-329.899
-337.627
-344.053
-349.213
-353.139
-355.835
-357.294
-357.54
-356.563
-354.338
-350.843
-346.055
-339.947
-332.491
-323.654
-313.403
-301.695
-288.497
-273.785
-257.528
-239.706
-220.314
-199.375
-176.934
-153.088
-127.989
-101.862
-74.4708
-36.1062
-2.88346
30.8814
65.3132
100.083
134.86
169.218
202.671
234.754
264.969
292.739
317.623
339.068
356.656
369.962
378.769
383.027
383.511
379.704
371.729
359.797
344.136
325.085
302.952
278.193
251.175
222.339
192.151
160.966
129.176
97.1769
65.2477
33.7703
3.22338
-23.5424
-50.8623
-77.6897
-103.499
-127.965
-150.945
-172.357
-192.18
-210.406
-227.052
-242.142
-255.699
-267.742
-278.29
-287.35
-294.927
-301.016
-305.613
-308.708
-310.258
-309.987
-308.124
-304.651
-299.576
-292.89
-284.603
-274.7
-263.188
-250.096
-235.434
-219.225
-201.51
-182.334
-161.743
-139.808
-116.606
-92.2367
-66.8833
-41.0742
-15.7929
11.3816
39.37
67.7331
96.2404
124.705
152.741
180.014
317.429
288.924
258.868
227.522
195.219
162.286
129.116
96.021
63.3368
31.405
0.500661
-29.0994
-56.9195
-83.0095
-108.109
-131.69
-153.619
-173.846
-192.365
-209.187
-224.345
-237.887
-249.859
-260.313
-269.304
-276.882
-283.094
-287.979
-291.571
-293.896
-294.969
-294.776
-293.327
-290.596
-286.549
-281.15
-274.362
-266.118
-256.36
-245.03
-232.06
-217.388
-200.95
-182.696
-162.609
-140.693
-116.945
-91.4282
-64.2596
-35.6417
-6.79625
24.1118
56.175
88.968
122.117
155.315
188.185
220.32
251.366
280.93
308.635
334.122
357.029
377.055
393.94
407.418
417.288
423.385
425.571
423.993
418.487
409.105
395.902
379.038
358.74
335.283
308.984
280.186
249.271
216.654
182.76
148.028
112.909
77.8497
43.2787
9.49019
-31.3769
-63.9263
-94.8245
-124.016
-151.34
-176.706
-200.055
-221.383
-240.685
-257.986
-273.331
-286.771
-298.367
-308.186
-316.298
-322.779
-327.699
-331.118
-333.098
-333.651
-332.82
-330.626
-327.065
-322.131
-315.808
-308.071
-298.889
-288.232
-276.064
-262.349
-247.058
-230.164
-211.646
-191.499
-169.732
-146.368
-121.458
-95.0672
-67.2921
-38.2522
-8.07238
22.9594
54.6509
86.742
118.93
150.878
182.215
212.553
241.484
268.592
293.464
315.7
334.926
350.8
363.022
371.354
375.625
375.692
371.542
363.296
350.979
334.797
315.001
291.89
265.812
237.161
206.353
173.835
140.063
105.497
70.5862
35.7589
1.41538
-32.0799
-64.4161
-95.3315
-124.611
-152.096
-177.677
-201.293
-222.922
-242.578
-260.305
-276.162
-290.223
-302.571
-313.284
-322.433
-330.082
-336.289
-341.103
-344.57
-346.735
-347.608
-347.236
-345.647
-342.842
-338.817
-333.558
-327.048
-319.261
-310.162
-299.711
-287.866
-274.585
-259.82
-243.535
-225.702
-206.301
-185.33
-162.803
-138.758
-113.261
-86.4005
-58.2954
-29.0021
1.09626
31.8661
63.0442
94.3294
125.384
155.839
185.3
213.355
239.585
263.571
284.911
303.224
318.173
329.464
336.862
340.206
339.348
334.376
325.335
312.334
295.605
275.43
252.159
226.184
197.929
167.84
136.373
103.975
71.0766
38.0883
5.38544
-26.6941
-57.8407
-87.8266
-116.44
-143.528
-168.976
-192.71
-214.685
-234.894
-253.353
-270.095
-285.171
-298.644
-310.581
-321.05
-330.117
-337.836
-344.255
-349.41
-353.331
-356.023
-357.487
-357.734
-356.759
-354.538
-351.048
-346.266
-340.164
-332.714
-323.885
-313.642
-301.941
-288.752
-274.049
-257.799
-239.983
-220.594
-199.654
-177.206
-153.349
-128.243
-102.124
-74.8132
-36.2222
-3.07264
30.7126
65.1934
100.024
134.871
169.306
202.842
235.014
265.319
293.178
318.145
339.665
357.319
370.693
379.534
383.775
384.218
380.39
372.387
360.401
344.674
325.546
303.333
278.492
251.393
222.481
192.22
160.97
129.12
97.0646
65.0754
33.5212
2.8645
-23.6491
-51.0706
-77.9545
-103.788
-128.261
-151.242
-172.648
-192.464
-210.682
-227.318
-242.401
-255.95
-267.988
-278.532
-287.59
-295.165
-301.253
-305.85
-308.945
-310.504
-310.236
-308.373
-304.902
-299.83
-293.146
-284.861
-274.96
-263.45
-250.359
-235.697
-219.487
-201.77
-182.591
-161.996
-140.054
-116.842
-92.4581
-67.0828
-41.2599
-15.9902
11.2123
39.2337
67.6311
96.1746
124.679
152.76
180.079
317.765
289.173
259.032
227.603
195.22
162.212
128.974
95.8167
63.0782
31.0994
0.159183
-29.4678
-57.2815
-83.3973
-108.503
-132.085
-154.011
-174.23
-192.738
-209.547
-224.691
-238.218
-250.175
-260.615
-269.594
-277.16
-283.361
-288.238
-291.824
-294.144
-295.213
-295.022
-293.579
-290.853
-286.814
-281.425
-274.65
-266.42
-256.678
-245.363
-232.41
-217.753
-201.33
-183.089
-163.012
-141.099
-117.351
-91.826
-64.6333
-35.9736
-7.17072
23.7949
55.9143
88.7652
121.977
155.245
188.19
220.405
251.535
281.183
308.973
334.54
357.525
377.622
394.569
408.102
418.016
424.144
426.348
424.777
419.251
409.83
396.581
379.659
359.29
335.752
309.364
280.474
249.465
216.754
182.768
147.949
112.748
77.6091
42.9681
9.14056
-31.6881
-64.2663
-95.1983
-124.415
-151.757
-177.132
-200.483
-221.809
-241.104
-258.394
-273.725
-287.15
-298.729
-308.53
-316.625
-323.09
-327.997
-331.405
-333.374
-333.923
-333.091
-330.895
-327.337
-322.407
-316.09
-308.36
-299.187
-288.541
-276.383
-262.679
-247.399
-230.514
-212.004
-191.863
-170.098
-146.735
-121.819
-95.4184
-67.6284
-38.5683
-8.35337
22.715
54.4527
86.5995
118.852
150.873
182.292
212.717
241.738
268.94
293.905
316.23
335.539
351.485
363.766
372.142
376.435
376.514
372.356
364.071
351.707
335.462
315.59
292.392
266.221
237.472
206.564
173.946
140.079
105.422
70.4278
35.5262
1.11891
-32.4286
-64.8063
-95.7519
-125.051
-152.545
-178.128
-201.738
-223.355
-242.995
-260.703
-276.54
-290.58
-302.908
-313.604
-322.736
-330.372
-336.568
-341.37
-344.828
-346.984
-347.852
-347.478
-345.887
-343.083
-339.061
-333.807
-327.305
-319.527
-310.438
-299.998
-288.166
-274.896
-260.144
-243.871
-226.048
-206.655
-185.689
-163.162
-139.115
-113.609
-86.734
-58.6044
-29.2924
0.84694
31.6646
62.8997
94.2509
125.38
155.918
185.469
213.617
239.942
264.022
285.452
303.847
318.866
330.212
337.65
341.011
340.163
335.171
326.088
313.031
296.231
275.973
252.61
226.537
198.182
167.995
136.433
103.946
70.9666
37.9069
5.14253
-26.9882
-58.1756
-88.1921
-116.827
-143.927
-169.38
-193.112
-215.082
-235.28
-253.725
-270.45
-285.508
-298.964
-310.883
-321.336
-330.389
-338.096
-344.506
-349.656
-353.572
-356.262
-357.727
-357.977
-357.005
-354.788
-351.304
-346.529
-340.435
-332.994
-324.175
-313.94
-302.249
-289.072
-274.379
-258.139
-240.33
-220.944
-200.003
-177.547
-153.677
-128.558
-102.446
-75.2338
-36.377
-3.31533
30.4996
65.0426
99.9499
134.884
169.416
203.056
235.338
265.757
293.728
318.8
340.415
358.151
371.6
380.481
384.711
385.117
381.256
373.211
361.157
345.343
326.123
303.809
278.865
251.665
222.656
192.307
160.975
129.05
96.9242
64.8616
33.2126
2.41559
-23.7828
-51.3354
-78.288
-104.15
-128.633
-151.612
-173.013
-192.819
-211.026
-227.652
-242.724
-256.265
-268.296
-278.835
-287.889
-295.462
-301.55
-306.146
-309.241
-310.811
-310.545
-308.683
-305.215
-300.146
-293.465
-285.183
-275.285
-263.777
-250.687
-236.025
-219.814
-202.095
-182.912
-162.311
-140.362
-117.138
-92.7354
-67.3333
-41.4906
-16.2373
11.0003
39.0632
67.5033
96.092
124.646
152.782
180.16
318.167
289.473
259.229
227.699
195.221
162.122
128.801
95.5707
62.7671
30.7317
-0.251461
-29.9123
-57.7153
-83.8629
-108.976
-132.56
-154.481
-174.691
-193.185
-209.978
-225.106
-238.615
-250.555
-260.978
-269.941
-277.493
-283.682
-288.549
-292.127
-294.442
-295.507
-295.318
-293.881
-291.162
-287.132
-281.756
-274.995
-266.783
-257.059
-245.763
-232.83
-218.191
-201.787
-183.559
-163.494
-141.588
-117.839
-92.3045
-65.0828
-36.3703
-7.62407
23.4145
55.6013
88.5212
121.808
155.159
188.196
220.506
251.736
281.486
309.377
335.043
358.121
378.303
395.326
408.923
418.89
425.057
427.286
425.716
420.167
410.701
397.398
380.406
359.951
336.315
309.821
280.819
249.697
216.874
182.779
147.854
112.554
77.3191
42.5933
8.71718
-32.0603
-64.674
-95.6477
-124.896
-152.257
-177.643
-200.998
-222.32
-241.608
-258.884
-274.199
-287.605
-299.162
-308.943
-317.017
-323.463
-328.353
-331.748
-333.706
-334.25
-333.414
-331.218
-327.662
-322.738
-316.428
-308.708
-299.546
-288.912
-276.766
-263.075
-247.808
-230.934
-212.434
-192.3
-170.539
-147.175
-122.253
-95.8407
-68.0332
-38.9488
-8.69083
22.4208
54.2136
86.4274
118.758
150.867
182.383
212.912
242.043
269.357
294.434
316.867
336.274
352.308
364.661
373.089
377.41
377.499
373.333
365.003
352.581
336.261
316.297
292.996
266.713
237.845
206.817
174.08
140.097
105.33
70.2365
35.2458
0.76178
-32.8484
-65.2758
-96.2577
-125.58
-153.086
-178.669
-202.273
-223.876
-243.496
-261.181
-276.993
-291.008
-303.313
-313.987
-323.1
-330.719
-336.902
-341.691
-345.137
-347.282
-348.147
-347.769
-346.176
-343.373
-339.354
-334.107
-327.614
-319.846
-310.769
-300.342
-288.526
-275.271
-260.533
-244.275
-226.464
-207.081
-186.12
-163.595
-139.545
-114.029
-87.1352
-58.9777
-29.6405
0.546864
31.4217
62.7251
94.1555
125.375
156.012
185.67
213.931
240.37
264.563
286.101
304.594
319.699
331.112
338.596
341.98
341.141
336.125
326.992
313.869
296.983
276.626
253.151
226.96
198.485
168.179
136.503
103.91
70.8336
37.6882
4.84992
-27.3422
-58.5788
-88.6317
-117.291
-144.406
-169.866
-193.596
-215.558
-235.744
-254.172
-270.877
-285.914
-299.348
-311.246
-321.68
-330.716
-338.409
-344.808
-349.95
-353.86
-356.548
-358.015
-358.268
-357.3
-355.088
-351.611
-346.845
-340.76
-333.33
-324.521
-314.297
-302.618
-289.455
-274.776
-258.548
-240.746
-221.364
-200.422
-177.955
-154.07
-128.934
-102.823
-75.7228
-36.5813
-3.61562
30.2411
64.8604
99.8601
134.899
169.546
203.313
235.727
266.284
294.389
319.588
341.318
359.153
372.685
381.613
385.832
386.204
382.304
374.203
362.067
346.144
326.814
304.38
279.312
251.991
222.867
192.41
160.979
128.965
96.7557
64.6071
32.8466
1.87771
-23.9452
-51.66
-78.6915
-104.586
-129.08
-152.058
-173.451
-193.246
-211.44
-228.052
-243.112
-256.642
-268.665
-279.197
-288.248
-295.819
-301.906
-306.501
-309.598
-311.177
-310.915
-309.055
-305.591
-300.526
-293.848
-285.57
-275.675
-264.169
-251.081
-236.42
-220.207
-202.485
-183.298
-162.691
-140.732
-117.494
-93.0692
-67.6357
-41.7655
-16.5348
10.7453
38.8582
67.3495
95.9923
124.606
152.808
180.257
318.637
289.822
259.458
227.811
195.22
162.017
128.6
95.2825
62.403
30.3013
-0.731912
-30.4342
-58.2208
-84.4063
-109.529
-133.115
-155.031
-175.23
-193.708
-210.482
-225.59
-239.078
-250.998
-261.401
-270.345
-277.881
-284.056
-288.912
-292.481
-294.789
-295.85
-295.664
-294.232
-291.521
-287.502
-282.142
-275.397
-267.207
-257.503
-246.23
-233.32
-218.702
-202.32
-184.109
-164.059
-142.159
-118.41
-92.8644
-65.6091
-36.8311
-8.15839
22.9707
55.2359
88.2357
121.61
155.058
188.201
220.624
251.97
281.839
309.848
335.63
358.816
379.097
396.208
409.882
419.91
426.123
428.385
426.81
421.235
411.719
398.351
381.277
360.723
336.972
310.354
281.222
249.968
217.013
182.79
147.743
112.326
76.9793
42.1531
8.21758
-32.4923
-65.1494
-96.1734
-125.457
-152.843
-178.241
-201.6
-222.917
-242.196
-259.457
-274.752
-288.136
-299.669
-309.424
-317.474
-323.898
-328.77
-332.149
-334.093
-334.63
-333.791
-331.595
-328.042
-323.124
-316.823
-309.113
-299.964
-289.344
-277.214
-263.538
-248.286
-231.425
-212.936
-192.811
-171.053
-147.689
-122.76
-96.3345
-68.5068
-39.3943
-9.08536
22.076
53.9333
86.2249
118.646
150.858
182.487
213.139
242.398
269.843
295.051
317.61
337.134
353.269
365.706
374.195
378.55
378.651
374.472
366.093
353.602
337.193
317.122
293.7
267.286
238.28
207.111
174.235
140.117
105.222
70.0119
34.9169
0.343211
-33.3399
-65.8253
-96.8492
-126.199
-153.718
-179.303
-202.898
-224.484
-244.081
-261.739
-277.522
-291.509
-303.786
-314.435
-323.525
-331.125
-337.291
-342.066
-345.499
-347.632
-348.489
-348.107
-346.513
-343.71
-339.696
-334.457
-327.974
-320.219
-311.155
-300.744
-288.945
-275.707
-260.987
-244.746
-226.949
-207.578
-186.624
-164.1
-140.047
-114.519
-87.6049
-59.4159
-30.047
0.195498
31.1369
62.5199
94.0426
125.367
156.121
185.904
214.296
240.87
265.195
286.858
305.468
320.672
332.164
339.703
343.114
342.282
337.239
328.049
314.847
297.862
277.387
253.782
227.454
198.839
168.394
136.585
103.866
70.6768
37.4313
4.50689
-27.7568
-59.0507
-89.1461
-117.835
-144.967
-170.433
-194.162
-216.115
-236.285
-254.693
-271.375
-286.387
-299.796
-311.669
-322.08
-331.097
-338.773
-345.161
-350.294
-354.197
-356.882
-358.351
-358.608
-357.644
-355.439
-351.971
-347.214
-341.14
-333.722
-324.926
-314.714
-303.05
-289.903
-275.24
-259.024
-241.232
-221.856
-200.912
-178.432
-154.529
-129.371
-103.25
-76.2628
-36.8528
-3.97831
29.9358
64.6462
99.754
134.915
169.698
203.611
236.181
266.898
295.161
320.51
342.375
360.324
373.95
382.929
387.141
387.48
383.532
375.362
363.129
347.089
327.622
305.046
279.833
252.37
223.111
192.528
160.983
128.865
96.5591
64.3129
32.426
1.25403
-24.14
-52.0484
-79.167
-105.097
-129.602
-152.579
-173.963
-193.744
-211.923
-228.519
-243.565
-257.083
-269.095
-279.62
-288.666
-296.235
-302.321
-306.916
-310.014
-311.603
-311.345
-309.489
-306.029
-300.969
-294.296
-286.021
-276.13
-264.628
-251.542
-236.88
-220.665
-202.94
-183.748
-163.133
-141.163
-117.91
-93.4596
-67.9907
-42.084
-16.883
10.447
38.6186
67.1696
95.8752
124.559
152.837
180.368
319.173
290.221
259.719
227.937
195.219
161.894
128.367
94.9516
61.9854
29.8075
-1.28314
-31.0349
-58.7974
-85.0275
-110.162
-133.75
-155.661
-175.846
-194.306
-211.058
-226.143
-239.608
-251.504
-261.884
-270.808
-278.324
-284.483
-289.325
-292.884
-295.185
-296.243
-296.059
-294.633
-291.931
-287.926
-282.583
-275.857
-267.691
-258.01
-246.764
-233.879
-219.287
-202.93
-184.737
-164.704
-142.812
-119.064
-93.5064
-66.2132
-37.3556
-8.7754
22.4635
54.8177
87.9083
121.382
154.942
188.205
220.757
252.237
282.243
310.387
336.3
359.611
380.006
397.218
410.978
421.077
427.342
429.641
428.06
422.455
412.885
399.441
382.274
361.605
337.724
310.963
281.682
250.276
217.171
182.801
147.615
112.065
76.5895
41.6466
7.63829
-32.9823
-65.6924
-96.7761
-126.102
-153.513
-178.926
-202.289
-223.601
-242.868
-260.112
-275.385
-288.743
-300.248
-309.975
-317.997
-324.396
-329.245
-332.606
-334.536
-335.065
-334.222
-332.025
-328.477
-323.566
-317.274
-309.577
-300.443
-289.839
-277.725
-264.068
-248.832
-231.986
-213.511
-193.395
-171.642
-148.278
-123.341
-96.9003
-69.0492
-39.9058
-9.53745
21.68
53.6109
85.9916
118.517
150.846
182.605
213.397
242.803
270.399
295.756
318.459
338.116
354.369
366.902
375.461
379.856
379.97
375.774
367.341
354.772
338.261
318.066
294.505
267.94
238.776
207.447
174.411
140.138
105.097
69.7532
34.5387
-0.137553
-33.9039
-66.4557
-97.5272
-126.908
-154.442
-180.028
-203.613
-225.18
-244.751
-262.378
-278.128
-292.081
-304.326
-314.946
-324.01
-331.589
-337.736
-342.493
-345.912
-348.031
-348.879
-348.494
-346.897
-344.096
-340.088
-334.857
-328.386
-320.644
-311.596
-301.204
-289.424
-276.206
-261.507
-245.285
-227.505
-208.146
-187.2
-164.679
-140.621
-115.081
-88.1434
-59.9194
-30.5126
-0.207766
30.8095
62.2832
93.9117
125.356
156.243
186.17
214.713
241.439
265.916
287.725
306.466
321.785
333.367
340.97
344.414
343.588
338.514
329.26
315.967
298.867
278.258
254.504
228.018
199.241
168.637
136.676
103.814
70.4958
37.1355
4.11254
-28.2327
-59.5921
-89.7357
-118.458
-145.609
-171.083
-194.809
-216.752
-236.904
-255.29
-271.945
-286.928
-300.309
-312.152
-322.538
-331.533
-339.19
-345.563
-350.686
-354.583
-357.265
-358.735
-358.995
-358.037
-355.839
-352.381
-347.635
-341.574
-334.17
-325.387
-315.19
-303.544
-290.416
-275.771
-259.569
-241.789
-222.419
-201.472
-178.979
-155.054
-129.867
-103.724
-76.8224
-37.2233
-4.40845
29.5827
64.3995
99.6314
134.931
169.87
203.95
236.699
267.601
296.044
321.565
343.585
361.665
375.394
384.431
388.639
388.946
384.943
376.691
364.343
348.176
328.547
305.806
280.427
252.802
223.388
192.662
160.986
128.75
96.3343
63.9802
31.9546
0.552186
-24.376
-52.5055
-79.7163
-105.684
-130.2
-153.175
-174.548
-194.313
-212.474
-229.053
-244.082
-257.586
-269.587
-280.104
-289.144
-296.71
-302.795
-307.39
-310.49
-312.089
-311.835
-309.985
-306.53
-301.475
-294.807
-286.537
-276.65
-265.152
-252.068
-237.407
-221.19
-203.461
-184.263
-163.64
-141.658
-118.386
-93.9073
-68.399
-42.4455
-17.2829
10.105
38.3444
66.9634
95.7403
124.503
152.869
180.495
319.777
290.669
260.012
228.079
195.215
161.755
128.104
94.5775
61.5135
29.25
-1.90677
-31.7111
-59.449
-85.727
-110.874
-134.465
-156.369
-176.539
-194.978
-211.707
-226.766
-240.204
-252.073
-262.428
-271.328
-278.823
-284.963
-289.791
-293.338
-295.631
-296.685
-296.503
-295.083
-292.392
-288.402
-283.078
-276.375
-268.236
-258.582
-247.366
-234.509
-219.946
-203.617
-185.445
-165.431
-143.549
-119.802
-94.2313
-66.8974
-37.9438
-9.47621
21.8936
54.3464
87.5384
121.124
154.809
188.209
220.905
252.537
282.696
310.992
337.054
360.505
381.029
398.355
412.213
422.391
428.715
431.05
429.467
423.829
414.198
400.67
383.396
362.599
338.57
311.648
282.199
250.622
217.347
182.813
147.47
111.769
76.1491
41.0731
6.97419
-33.5273
-66.3027
-97.4564
-126.829
-154.27
-179.698
-203.065
-224.371
-243.626
-260.851
-276.098
-289.427
-300.9
-310.594
-318.585
-324.955
-329.78
-333.121
-335.034
-335.554
-334.706
-332.509
-328.965
-324.062
-317.781
-310.098
-300.982
-290.396
-278.302
-264.664
-249.447
-232.618
-214.158
-194.053
-172.306
-148.941
-123.996
-97.5385
-69.6608
-40.4838
-10.0478
21.2319
53.2459
85.7267
118.368
150.83
182.735
213.685
243.257
271.023
296.549
319.415
339.223
355.608
368.25
376.888
381.33
381.456
377.24
368.747
356.089
339.462
319.13
295.412
268.677
239.335
207.823
174.607
140.16
104.954
69.4594
34.1102
-0.68122
-34.5415
-67.1678
-98.2927
-127.708
-155.259
-180.846
-204.42
-225.964
-245.505
-263.097
-278.809
-292.724
-304.934
-315.52
-324.556
-332.111
-338.236
-342.974
-346.376
-348.481
-349.319
-348.929
-347.329
-344.529
-340.528
-335.307
-328.848
-321.122
-312.093
-301.722
-289.963
-276.768
-262.092
-245.892
-228.131
-208.786
-187.85
-165.332
-141.269
-115.714
-88.7514
-60.4889
-31.0381
-0.663704
30.4388
62.0144
93.7618
125.342
156.378
186.467
215.18
242.08
266.729
288.7
307.591
323.039
334.725
342.399
345.88
345.059
339.949
330.625
317.23
300
279.238
255.316
228.652
199.693
168.91