/*--------------------------------*- C++ -*----------------------------------*\
| =========                 |                                                 |
| \\      /  F ield         | OpenFOAM: The Open Source CFD Toolbox           |
|  \\    /   O peration     | Version:  3.0.1                                 |
|   \\  /    A nd           | Web:      www.OpenFOAM.org                      |
|    \\/     M anipulation  |                                                 |
\*---------------------------------------------------------------------------*/
FoamFile
{
    version     2.0;
    format      ascii;
    class       volVectorField;
    location    "15.2";
    object      U;
}
// * * * * * * * * * * * * * * * * * * * * * * * * * * * * * * * * * * * * * //

dimensions      [0 1 -1 0 0 0 0];

internalField   nonuniform List<vector> 
22680
(
(-0.0578089 -0.00148281 0)
(-0.0453111 -0.00156769 0)
(-0.0318004 -0.00162679 0)
(-0.0177258 -0.00170344 0)
(-0.00317935 -0.001747 0)
(0.0118334 -0.00181023 0)
(0.0272433 -0.00183261 0)
(0.0428944 -0.0018751 0)
(0.0587012 -0.00187073 0)
(0.0745456 -0.00188656 0)
(0.0903002 -0.00185102 0)
(0.105827 -0.0018345 0)
(0.120984 -0.00176489 0)
(0.135617 -0.00171142 0)
(0.14958 -0.00160687 0)
(0.162708 -0.00148699 0)
(0.174855 -0.00137513 0)
(0.185873 -0.00122445 0)
(0.195625 -0.00107584 0)
(0.203985 -0.000899422 0)
(0.210845 -0.000720547 0)
(0.216113 -0.000525618 0)
(0.219716 -0.000327044 0)
(0.221603 -0.000121357 0)
(0.22173 8.5514e-05 0)
(0.220161 0.000291603 0)
(0.216835 0.000492615 0)
(0.211843 0.000688486 0)
(0.205239 0.000868972 0)
(0.197113 0.00104853 0)
(0.187571 0.00119984 0)
(0.176734 0.00135446 0)
(0.164736 0.00146968 0)
(0.151721 0.00159325 0)
(0.137837 0.00170244 0)
(0.123241 0.00175941 0)
(0.108092 0.00183245 0)
(0.0925437 0.00185193 0)
(0.0767489 0.00188994 0)
(0.0608575 0.00187637 0)
(0.0450017 0.00188212 0)
(0.0293277 0.00184131 0)
(0.0141098 0.00181969 0)
(-0.000964483 0.0017611 0)
(-0.0158636 0.00171645 0)
(-0.030094 0.0016403 0)
(-0.04374 0.00158051 0)
(-0.0567662 0.00149622 0)
(-0.0691387 0.00142638 0)
(-0.0808397 0.00133862 0)
(-0.091852 0.00126343 0)
(-0.10218 0.0011855 0)
(-0.111811 0.00109866 0)
(-0.120753 0.00102077 0)
(-0.129014 0.000937654 0)
(-0.136609 0.000861914 0)
(-0.143553 0.000783658 0)
(-0.149864 0.000711264 0)
(-0.155562 0.00063798 0)
(-0.160665 0.000569254 0)
(-0.165194 0.000501302 0)
(-0.169165 0.000436901 0)
(-0.172594 0.000373667 0)
(-0.175496 0.000312948 0)
(-0.177883 0.000253539 0)
(-0.179762 0.000195517 0)
(-0.181141 0.000136186 0)
(-0.182027 7.55946e-05 0)
(-0.182456 1.66039e-05 0)
(-0.182407 -3.91573e-05 0)
(-0.181853 -9.49981e-05 0)
(-0.180804 -0.000153629 0)
(-0.17926 -0.00021263 0)
(-0.177202 -0.000274914 0)
(-0.174621 -0.00033688 0)
(-0.171492 -0.000404124 0)
(-0.167804 -0.000469789 0)
(-0.163523 -0.000543254 0)
(-0.158643 -0.000612563 0)
(-0.153125 -0.000692695 0)
(-0.14697 -0.000764913 0)
(-0.140113 -0.000851907 0)
(-0.13265 -0.000926275 0)
(-0.124325 -0.00101947 0)
(-0.11527 -0.00109804 0)
(-0.105726 -0.00119194 0)
(-0.0952334 -0.00127013 0)
(-0.0840876 -0.00137088 0)
(-0.0722503 -0.00144006 0)
(-0.0599394 -0.00150356 0)
(-0.0468262 -0.00160096 0)
(-0.0332156 -0.00165531 0)
(-0.0189615 -0.00174537 0)
(-0.00398188 -0.00178233 0)
(0.011478 -0.00185363 0)
(0.0273661 -0.00187277 0)
(0.0433941 -0.00191408 0)
(0.0596498 -0.0019112 0)
(0.0758452 -0.00191607 0)
(0.0919915 -0.00188669 0)
(0.107817 -0.00185099 0)
(0.123268 -0.00179072 0)
(0.13813 -0.00171496 0)
(0.152268 -0.00162008 0)
(0.165587 -0.00150594 0)
(0.177876 -0.00137462 0)
(0.188932 -0.00123251 0)
(0.198715 -0.00107208 0)
(0.206987 -0.000888936 0)
(0.213727 -0.000709095 0)
(0.218791 -0.000502203 0)
(0.222153 -0.000307833 0)
(0.223742 -8.50104e-05 0)
(0.223675 0.000112107 0)
(0.221833 0.000335854 0)
(0.218191 0.000518585 0)
(0.212911 0.000724588 0)
(0.206009 0.000892119 0)
(0.197631 0.00107834 0)
(0.187817 0.001221 0)
(0.176752 0.00137487 0)
(0.164542 0.00148772 0)
(0.150471 0.00159728 0)
(0.136619 0.00166887 0)
(0.123004 0.00176124 0)
(0.107957 0.00180105 0)
(0.0927028 0.00184839 0)
(0.0769739 0.00187793 0)
(0.0612902 0.00187855 0)
(0.045562 0.00187602 0)
(0.0299638 0.00184879 0)
(0.0145948 0.00182086 0)
(-0.000732411 0.00177337 0)
(-0.0156621 0.00172387 0)
(-0.0300269 0.00165859 0)
(-0.0438011 0.00159359 0)
(-0.0569873 0.00151756 0)
(-0.069512 0.00144178 0)
(-0.0813742 0.00135875 0)
(-0.0925254 0.00127616 0)
(-0.10297 0.00118969 0)
(-0.112683 0.00110444 0)
(-0.121681 0.00101823 0)
(-0.129966 0.000934024 0)
(-0.137557 0.000850628 0)
(-0.144457 0.000770373 0)
(-0.15069 0.000692744 0)
(-0.156272 0.000618623 0)
(-0.161209 0.000548599 0)
(-0.165554 0.000481289 0)
(-0.16934 0.000415157 0)
(-0.17258 0.000353733 0)
(-0.175303 0.000294512 0)
(-0.177521 0.000235889 0)
(-0.179248 0.000179122 0)
(-0.180501 0.000120766 0)
(-0.181291 6.35084e-05 0)
(-0.181647 8.11726e-06 0)
(-0.181539 -4.33264e-05 0)
(-0.18095 -9.7138e-05 0)
(-0.179903 -0.000150691 0)
(-0.178379 -0.000209061 0)
(-0.176378 -0.000264987 0)
(-0.173871 -0.000327432 0)
(-0.170855 -0.000383686 0)
(-0.167371 -0.000447492 0)
(-0.163265 -0.000519162 0)
(-0.15862 -0.000582928 0)
(-0.153343 -0.000662786 0)
(-0.147464 -0.000729819 0)
(-0.14088 -0.000818679 0)
(-0.13371 -0.00088917 0)
(-0.125715 -0.000987664 0)
(-0.116517 -0.00106347 0)
(-0.107357 -0.00116654 0)
(-0.0973081 -0.0012406 0)
(-0.0861366 -0.00135946 0)
(-0.0747706 -0.00142488 0)
(-0.0622454 -0.00154123 0)
(-0.0491523 -0.0016018 0)
(-0.0353842 -0.00171154 0)
(-0.0206603 -0.00176177 0)
(-0.00573511 -0.00180411 0)
(0.0100347 -0.00188301 0)
(0.0261918 -0.00190551 0)
(0.0425061 -0.00194774 0)
(0.0590646 -0.0019458 0)
(0.0755333 -0.00194627 0)
(0.0919349 -0.0019148 0)
(0.107963 -0.00187151 0)
(0.123581 -0.00180608 0)
(0.138515 -0.00172161 0)
(0.152721 -0.00162072 0)
(0.166016 -0.00149777 0)
(0.178162 -0.00136218 0)
(0.189117 -0.00121497 0)
(0.19871 -0.00105143 0)
(0.206882 -0.000882929 0)
(0.213521 -0.000693616 0)
(0.218549 -0.000513392 0)
(0.222038 -0.000320997 0)
(0.223784 -0.000111319 0)
(0.223964 7.30357e-05 0)
(0.222562 0.000274892 0)
(0.219505 0.000441582 0)
(0.21497 0.000626907 0)
(0.208965 0.000778861 0)
(0.201614 0.000950812 0)
(0.192876 0.00108322 0)
(0.18309 0.00123244 0)
(0.171482 0.0013409 0)
(0.158329 0.00146054 0)
(0.146138 0.00154183 0)
(0.133782 0.00162977 0)
(0.119921 0.0016883 0)
(0.105383 0.00174448 0)
(0.0906607 0.00176106 0)
(0.075844 0.00177769 0)
(0.0609763 0.00175649 0)
(0.0464268 0.00172283 0)
(0.0321994 0.00166342 0)
(0.0182582 0.00150918 0)
(0.00739269 0.00127318 0)
(-0.00427402 0.000646268 0)
(-0.00392326 0.00153271 0)
(-0.0578447 -0.00444862 0)
(-0.0453456 -0.00470333 0)
(-0.0318319 -0.00488069 0)
(-0.0177546 -0.00511075 0)
(-0.003204 -0.00524151 0)
(0.011813 -0.00543128 0)
(0.0272285 -0.00549848 0)
(0.0428854 -0.00562605 0)
(0.0586989 -0.00561301 0)
(0.0745506 -0.00566058 0)
(0.0903128 -0.00555399 0)
(0.105849 -0.00550451 0)
(0.121013 -0.00529568 0)
(0.135656 -0.00513533 0)
(0.149626 -0.00482164 0)
(0.162762 -0.00446196 0)
(0.174918 -0.00412635 0)
(0.185944 -0.00367422 0)
(0.195703 -0.00322831 0)
(0.204069 -0.00269892 0)
(0.210934 -0.00216217 0)
(0.216205 -0.00157722 0)
(0.219812 -0.00098101 0)
(0.221701 -0.000364696 0)
(0.221832 0.000257153 0)
(0.220255 0.000874986 0)
(0.216928 0.00147777 0)
(0.211933 0.00206588 0)
(0.205323 0.00260753 0)
(0.197193 0.00314635 0)
(0.187643 0.00360033 0)
(0.1768 0.0040643 0)
(0.164792 0.00440999 0)
(0.15177 0.00478073 0)
(0.137877 0.00510835 0)
(0.123272 0.00527926 0)
(0.108115 0.00549841 0)
(0.0925579 0.00555678 0)
(0.0767553 0.00567077 0)
(0.0608564 0.00562996 0)
(0.0449937 0.00564716 0)
(0.0293138 0.00552462 0)
(0.0140908 0.00545976 0)
(-0.000988055 0.00528378 0)
(-0.0158923 0.00514979 0)
(-0.0301253 0.00492124 0)
(-0.0437743 0.00474179 0)
(-0.0568019 0.00448884 0)
(-0.0691761 0.00427926 0)
(-0.0808775 0.00401593 0)
(-0.0918907 0.00379031 0)
(-0.102219 0.00355648 0)
(-0.11185 0.00329595 0)
(-0.120791 0.00306225 0)
(-0.129051 0.00281287 0)
(-0.136645 0.00258563 0)
(-0.143588 0.00235086 0)
(-0.149898 0.00213368 0)
(-0.155595 0.00191389 0)
(-0.160698 0.0017078 0)
(-0.165225 0.00150388 0)
(-0.169195 0.00131061 0)
(-0.172623 0.00112082 0)
(-0.175524 0.000938524 0)
(-0.17791 0.000760055 0)
(-0.179789 0.00058572 0)
(-0.181169 0.000408234 0)
(-0.182058 0.000226553 0)
(-0.182483 5.04851e-05 0)
(-0.182434 -0.000117158 0)
(-0.181881 -0.000284824 0)
(-0.180832 -0.000460765 0)
(-0.179289 -0.000637756 0)
(-0.177232 -0.000824588 0)
(-0.174652 -0.00101047 0)
(-0.171525 -0.00121218 0)
(-0.167838 -0.00140916 0)
(-0.163559 -0.00162955 0)
(-0.15868 -0.00183748 0)
(-0.153164 -0.00207788 0)
(-0.147009 -0.00229453 0)
(-0.140154 -0.00255552 0)
(-0.132692 -0.00277863 0)
(-0.12437 -0.0030582 0)
(-0.115314 -0.00329395 0)
(-0.105772 -0.00357573 0)
(-0.0952796 -0.00380986 0)
(-0.0841331 -0.00411317 0)
(-0.0722954 -0.00432027 0)
(-0.0599824 -0.00450987 0)
(-0.0468679 -0.00480441 0)
(-0.0332559 -0.0049666 0)
(-0.0189973 -0.00523776 0)
(-0.00401428 -0.00534608 0)
(0.0114513 -0.00556158 0)
(0.0273446 -0.00561911 0)
(0.0433803 -0.00574317 0)
(0.0596423 -0.00573461 0)
(0.0758468 -0.00574932 0)
(0.0920007 -0.00566125 0)
(0.107836 -0.00555417 0)
(0.123295 -0.00537362 0)
(0.138168 -0.00514535 0)
(0.152313 -0.00486346 0)
(0.165636 -0.00451969 0)
(0.177946 -0.00412418 0)
(0.189014 -0.00369298 0)
(0.198801 -0.00321095 0)
(0.207075 -0.00266355 0)
(0.213819 -0.00212442 0)
(0.218889 -0.00150476 0)
(0.222255 -0.000923062 0)
(0.22385 -0.000254103 0)
(0.223776 0.000331568 0)
(0.221921 0.00100681 0)
(0.218288 0.00155461 0)
(0.213006 0.00217392 0)
(0.2061 0.00267683 0)
(0.197716 0.00323569 0)
(0.187895 0.00366375 0)
(0.176823 0.00412546 0)
(0.164604 0.00446399 0)
(0.150522 0.00479238 0)
(0.136667 0.0050076 0)
(0.123043 0.00528506 0)
(0.107987 0.00540422 0)
(0.092725 0.00554625 0)
(0.0769884 0.00563452 0)
(0.0612979 0.00563686 0)
(0.045562 0.00562858 0)
(0.0299581 0.00554761 0)
(0.0145833 0.005463 0)
(-0.000748797 0.00532119 0)
(-0.0156836 0.00517219 0)
(-0.030052 0.00497627 0)
(-0.0438296 0.00478121 0)
(-0.0570183 0.00455304 0)
(-0.0695455 0.00432564 0)
(-0.0814093 0.00407649 0)
(-0.092562 0.00382865 0)
(-0.103007 0.00356915 0)
(-0.112721 0.00331331 0)
(-0.121719 0.00305461 0)
(-0.130004 0.00280186 0)
(-0.137594 0.00255165 0)
(-0.144492 0.00231097 0)
(-0.150723 0.00207851 0)
(-0.156305 0.00185599 0)
(-0.16124 0.00164348 0)
(-0.165585 0.00144119 0)
(-0.169371 0.00124547 0)
(-0.172609 0.00106031 0)
(-0.175332 0.000880402 0)
(-0.177548 0.0007055 0)
(-0.179276 0.000536002 0)
(-0.18053 0.000361308 0)
(-0.181321 0.000190302 0)
(-0.181674 2.46192e-05 0)
(-0.181566 -0.00012955 0)
(-0.180978 -0.000291172 0)
(-0.179932 -0.000451875 0)
(-0.178409 -0.000626969 0)
(-0.17641 -0.000794731 0)
(-0.173903 -0.000982042 0)
(-0.170889 -0.00115079 0)
(-0.167406 -0.0013422 0)
(-0.163302 -0.0015572 0)
(-0.158658 -0.0017485 0)
(-0.153383 -0.00198806 0)
(-0.147506 -0.00218915 0)
(-0.140924 -0.00245574 0)
(-0.133755 -0.00266723 0)
(-0.125763 -0.0029627 0)
(-0.116565 -0.00319006 0)
(-0.107407 -0.00349969 0)
(-0.0973603 -0.00372112 0)
(-0.0861879 -0.00407803 0)
(-0.0748205 -0.00427544 0)
(-0.0622947 -0.00462393 0)
(-0.0492 -0.00480503 0)
(-0.0354275 -0.00513389 0)
(-0.0206994 -0.00528773 0)
(-0.00577296 -0.00541302 0)
(0.0100048 -0.00564996 0)
(0.0261684 -0.00571749 0)
(0.0424916 -0.00584431 0)
(0.0590575 -0.00583857 0)
(0.0755363 -0.00584006 0)
(0.0919463 -0.0057457 0)
(0.107984 -0.00561584 0)
(0.123612 -0.00541962 0)
(0.138557 -0.005166 0)
(0.152771 -0.00486323 0)
(0.166065 -0.0044961 0)
(0.178237 -0.00408651 0)
(0.1892 -0.00364233 0)
(0.198795 -0.00314827 0)
(0.206967 -0.00264514 0)
(0.21361 -0.00207803 0)
(0.218639 -0.00153684 0)
(0.222133 -0.000962808 0)
(0.223884 -0.000333698 0)
(0.224059 0.000215774 0)
(0.22264 0.000823924 0)
(0.219592 0.00132342 0)
(0.215057 0.0018807 0)
(0.209048 0.00233687 0)
(0.201694 0.00285286 0)
(0.19295 0.00325016 0)
(0.183159 0.00369788 0)
(0.171544 0.00402281 0)
(0.158385 0.00438233 0)
(0.146188 0.00462637 0)
(0.133826 0.00489036 0)
(0.119958 0.00506558 0)
(0.10541 0.00523468 0)
(0.0906788 0.00528515 0)
(0.0758523 0.00533373 0)
(0.0609733 0.00527076 0)
(0.0464114 0.00517063 0)
(0.0321627 0.00499188 0)
(0.0182098 0.00456135 0)
(0.00695349 0.00396186 0)
(-0.00602848 0.00225076 0)
(-0.0106531 -0.00107199 0)
(-0.0579164 -0.00741501 0)
(-0.0454145 -0.00783978 0)
(-0.0318949 -0.00813557 0)
(-0.0178122 -0.00851932 0)
(-0.00325326 -0.0087375 0)
(0.0117721 -0.00905411 0)
(0.027199 -0.00916633 0)
(0.0428674 -0.00937928 0)
(0.0586944 -0.00935772 0)
(0.0745606 -0.00943731 0)
(0.090338 -0.00925975 0)
(0.105891 -0.00917754 0)
(0.121071 -0.00882951 0)
(0.135733 -0.00856242 0)
(0.149719 -0.0080395 0)
(0.162871 -0.00743989 0)
(0.175046 -0.00688046 0)
(0.186084 -0.00612656 0)
(0.19586 -0.00538312 0)
(0.204236 -0.00450036 0)
(0.211113 -0.00360537 0)
(0.216391 -0.00262988 0)
(0.220005 -0.00163497 0)
(0.221897 -0.000608789 0)
(0.222033 0.000429162 0)
(0.220445 0.00145877 0)
(0.217114 0.0024628 0)
(0.212114 0.00344461 0)
(0.205493 0.00434793 0)
(0.197352 0.00524642 0)
(0.187787 0.00600332 0)
(0.17693 0.00677693 0)
(0.164904 0.00735315 0)
(0.151866 0.00797124 0)
(0.137958 0.00851744 0)
(0.123334 0.00880219 0)
(0.10816 0.00916747 0)
(0.0925859 0.00926453 0)
(0.0767676 0.00945441 0)
(0.0608539 0.00938609 0)
(0.0449771 0.00941458 0)
(0.0292855 0.00921001 0)
(0.0140524 0.00910179 0)
(-0.00103569 0.00880782 0)
(-0.0159502 0.00858443 0)
(-0.0301884 0.00820318 0)
(-0.0438433 0.00790385 0)
(-0.0568737 0.00748202 0)
(-0.0692515 0.00713253 0)
(-0.0809538 0.00669347 0)
(-0.0919685 0.00631728 0)
(-0.102297 0.00592742 0)
(-0.111927 0.00549308 0)
(-0.120867 0.00510348 0)
(-0.129126 0.00468778 0)
(-0.136718 0.00430901 0)
(-0.143659 0.00391771 0)
(-0.149968 0.00355576 0)
(-0.155662 0.00318965 0)
(-0.160763 0.00284636 0)
(-0.165287 0.00250634 0)
(-0.169255 0.00218411 0)
(-0.172681 0.00186768 0)
(-0.17558 0.0015636 0)
(-0.177965 0.00126574 0)
(-0.179843 0.000975008 0)
(-0.181223 0.000680494 0)
(-0.182117 0.000380041 0)
(-0.18254 8.65264e-05 0)
(-0.182486 -0.000193347 0)
(-0.181935 -0.000474251 0)
(-0.180888 -0.000767641 0)
(-0.179346 -0.0010626 0)
(-0.177291 -0.00137393 0)
(-0.174713 -0.00168367 0)
(-0.171588 -0.00201982 0)
(-0.167903 -0.00234811 0)
(-0.163627 -0.00271542 0)
(-0.15875 -0.00306197 0)
(-0.153236 -0.00346265 0)
(-0.147083 -0.00382376 0)
(-0.140231 -0.00425877 0)
(-0.132769 -0.00463063 0)
(-0.124451 -0.0050966 0)
(-0.115394 -0.00548965 0)
(-0.105854 -0.00595953 0)
(-0.0953624 -0.00634859 0)
(-0.0842141 -0.00685678 0)
(-0.0723741 -0.00720128 0)
(-0.0600571 -0.0075143 0)
(-0.0469396 -0.00801118 0)
(-0.0333241 -0.00828057 0)
(-0.0190557 -0.0087313 0)
(-0.0040659 -0.0089097 0)
(0.0114105 -0.00927145 0)
(0.0273145 -0.00936752 0)
(0.0433651 -0.00957467 0)
(0.0596393 -0.00956056 0)
(0.0758613 -0.00958539 0)
(0.0920297 -0.00943871 0)
(0.107883 -0.00926036 0)
(0.123358 -0.00895952 0)
(0.138251 -0.00857921 0)
(0.152409 -0.00810653 0)
(0.165748 -0.00754036 0)
(0.178094 -0.00688267 0)
(0.18918 -0.00616176 0)
(0.198974 -0.00535695 0)
(0.207253 -0.00444141 0)
(0.214001 -0.00354583 0)
(0.219082 -0.0025097 0)
(0.22245 -0.00154273 0)
(0.224057 -0.000430492 0)
(0.223951 0.000556277 0)
(0.222092 0.00167297 0)
(0.21847 0.00258821 0)
(0.213185 0.0036244 0)
(0.206269 0.00446346 0)
(0.197873 0.0053954 0)
(0.188037 0.00610911 0)
(0.176949 0.00687885 0)
(0.16471 0.00744314 0)
(0.150608 0.00798984 0)
(0.136746 0.00834927 0)
(0.123106 0.00881218 0)
(0.108029 0.00901032 0)
(0.0927534 0.00924691 0)
(0.077002 0.00939281 0)
(0.0612982 0.00939835 0)
(0.0455478 0.00938211 0)
(0.0299331 0.00924973 0)
(0.0145474 0.00910595 0)
(-0.000793756 0.00887169 0)
(-0.0157384 0.00862185 0)
(-0.030113 0.00829503 0)
(-0.0438967 0.00796972 0)
(-0.0570897 0.00758925 0)
(-0.069621 0.00721006 0)
(-0.0814874 0.00679463 0)
(-0.0926424 0.00638137 0)
(-0.103088 0.00594868 0)
(-0.112803 0.00552208 0)
(-0.1218 0.0050907 0)
(-0.130083 0.00466917 0)
(-0.137671 0.00425207 0)
(-0.144566 0.00385089 0)
(-0.150791 0.0034638 0)
(-0.156371 0.00309274 0)
(-0.161306 0.00273743 0)
(-0.165648 0.00239616 0)
(-0.16943 0.00207285 0)
(-0.172667 0.0017634 0)
(-0.175387 0.00146489 0)
(-0.177602 0.00117346 0)
(-0.17933 0.000890662 0)
(-0.180585 0.000602202 0)
(-0.181379 0.000319842 0)
(-0.181726 4.40069e-05 0)
(-0.181614 -0.000213887 0)
(-0.181029 -0.000484792 0)
(-0.179985 -0.000752787 0)
(-0.178463 -0.00104458 0)
(-0.176465 -0.00132415 0)
(-0.173962 -0.00163627 0)
(-0.170949 -0.0019175 0)
(-0.167469 -0.0022365 0)
(-0.163367 -0.00259479 0)
(-0.158725 -0.00291361 0)
(-0.153454 -0.00331282 0)
(-0.147578 -0.00364796 0)
(-0.141001 -0.00409224 0)
(-0.133834 -0.00444476 0)
(-0.125846 -0.00493723 0)
(-0.116648 -0.00531615 0)
(-0.107492 -0.00583335 0)
(-0.0974499 -0.00620008 0)
(-0.0862759 -0.006796 0)
(-0.0749052 -0.00712781 0)
(-0.0623777 -0.00770735 0)
(-0.0492796 -0.00800771 0)
(-0.0354994 -0.00855531 0)
(-0.0207628 -0.00881876 0)
(-0.00583311 -0.00902342 0)
(0.00995993 -0.00941936 0)
(0.0261359 -0.00953189 0)
(0.0424763 -0.00974366 0)
(0.0590563 -0.00973423 0)
(0.0755543 -0.00973694 0)
(0.0919805 -0.00957975 0)
(0.108038 -0.00936333 0)
(0.123682 -0.00903632 0)
(0.138648 -0.00861367 0)
(0.152872 -0.00810612 0)
(0.166188 -0.00750222 0)
(0.178388 -0.00682069 0)
(0.189365 -0.0060782 0)
(0.198965 -0.00525406 0)
(0.207139 -0.00440958 0)
(0.213788 -0.00346701 0)
(0.218815 -0.00256222 0)
(0.222318 -0.00160636 0)
(0.224074 -0.000560682 0)
(0.224223 0.000361442 0)
(0.222792 0.00136903 0)
(0.219756 0.00220209 0)
(0.215218 0.00313519 0)
(0.209202 0.00389631 0)
(0.201839 0.00475668 0)
(0.193085 0.00541903 0)
(0.183282 0.00616544 0)
(0.171654 0.00670665 0)
(0.158481 0.00730658 0)
(0.146269 0.00771355 0)
(0.133895 0.00815373 0)
(0.120014 0.00844507 0)
(0.105445 0.0087282 0)
(0.0906961 0.00881044 0)
(0.0758502 0.00889581 0)
(0.0609487 0.0087901 0)
(0.0463611 0.00862399 0)
(0.0320734 0.00832608 0)
(0.0181061 0.00764994 0)
(0.00662117 0.00677501 0)
(-0.00584888 0.00451805 0)
(-0.0101655 0.00381182 0)
(-0.058024 -0.0103824 0)
(-0.0455179 -0.0109775 0)
(-0.0319895 -0.0113921 0)
(-0.0178986 -0.01193 0)
(-0.00332726 -0.012236 0)
(0.0117106 -0.0126799 0)
(0.0271546 -0.0128375 0)
(0.0428404 -0.0131363 0)
(0.0586876 -0.0131065 0)
(0.0745756 -0.0132186 0)
(0.0903757 -0.0129702 0)
(0.105954 -0.0128556 0)
(0.121158 -0.0123684 0)
(0.135849 -0.0119948 0)
(0.149859 -0.0112625 0)
(0.163034 -0.0104227 0)
(0.175236 -0.00963936 0)
(0.186295 -0.00858322 0)
(0.196095 -0.00754188 0)
(0.204487 -0.00630507 0)
(0.211383 -0.00505125 0)
(0.216671 -0.00368439 0)
(0.220294 -0.00228976 0)
(0.222191 -0.000852081 0)
(0.222332 0.000599211 0)
(0.220731 0.00204333 0)
(0.217395 0.00344819 0)
(0.212385 0.00482566 0)
(0.205747 0.00609144 0)
(0.197592 0.00735028 0)
(0.188003 0.00841049 0)
(0.177126 0.00949422 0)
(0.165073 0.0103011 0)
(0.152012 0.0111669 0)
(0.138079 0.0119319 0)
(0.123427 0.0123303 0)
(0.108228 0.0128417 0)
(0.0926278 0.0129771 0)
(0.076786 0.0132427 0)
(0.0608499 0.0131464 0)
(0.0449523 0.013186 0)
(0.029243 0.0128988 0)
(0.0139946 0.012747 0)
(-0.00110727 0.0123342 0)
(-0.0160371 0.0120212 0)
(-0.0302832 0.0114868 0)
(-0.0439469 0.0110672 0)
(-0.0569816 0.0104761 0)
(-0.0693647 0.00998645 0)
(-0.0810683 0.00937138 0)
(-0.0920854 0.00884439 0)
(-0.102415 0.00829829 0)
(-0.112043 0.00768997 0)
(-0.120982 0.00714432 0)
(-0.129238 0.00656221 0)
(-0.136828 0.00603182 0)
(-0.143765 0.00548397 0)
(-0.150071 0.00497732 0)
(-0.155762 0.0044652 0)
(-0.16086 0.0039851 0)
(-0.165381 0.00350892 0)
(-0.169346 0.00305774 0)
(-0.172769 0.00261447 0)
(-0.175666 0.00218846 0)
(-0.178048 0.0017707 0)
(-0.179925 0.00136267 0)
(-0.181306 0.000952141 0)
(-0.182203 0.000536818 0)
(-0.182625 0.000126913 0)
(-0.182565 -0.000266773 0)
(-0.182016 -0.00066311 0)
(-0.180972 -0.00107411 0)
(-0.179431 -0.00148699 0)
(-0.177379 -0.00192272 0)
(-0.174804 -0.00235626 0)
(-0.171682 -0.00282677 0)
(-0.168 -0.00328635 0)
(-0.163729 -0.00380057 0)
(-0.158854 -0.0042858 0)
(-0.153345 -0.00484677 0)
(-0.147194 -0.00535236 0)
(-0.140347 -0.00596141 0)
(-0.132886 -0.00648209 0)
(-0.124574 -0.00713451 0)
(-0.115514 -0.00768509 0)
(-0.105976 -0.00834342 0)
(-0.095487 -0.0088861 0)
(-0.084336 -0.00960224 0)
(-0.0724916 -0.0100833 0)
(-0.0601697 -0.0105172 0)
(-0.0470485 -0.0112225 0)
(-0.033426 -0.0115967 0)
(-0.019143 -0.012226 0)
(-0.00414381 -0.0124755 0)
(0.0113488 -0.0129847 0)
(0.0272689 -0.0131194 0)
(0.043342 -0.0134103 0)
(0.0596346 -0.0133908 0)
(0.0758829 -0.0134262 0)
(0.0920729 -0.013221 0)
(0.107955 -0.0129716 0)
(0.123453 -0.0125506 0)
(0.138375 -0.0120178 0)
(0.152555 -0.0113552 0)
(0.165923 -0.0105603 0)
(0.1783 -0.00964183 0)
(0.189406 -0.00863235 0)
(0.199225 -0.00750593 0)
(0.207516 -0.00622072 0)
(0.214277 -0.00496539 0)
(0.219372 -0.0035148 0)
(0.222745 -0.00216327 0)
(0.224363 -0.000610905 0)
(0.224226 0.000773326 0)
(0.222364 0.00233175 0)
(0.218747 0.00361942 0)
(0.213453 0.005077 0)
(0.206522 0.00625333 0)
(0.198107 0.00755908 0)
(0.188249 0.00855884 0)
(0.177139 0.00963693 0)
(0.16487 0.0104273 0)
(0.150737 0.0111917 0)
(0.136865 0.0116958 0)
(0.1232 0.0123445 0)
(0.108093 0.0126212 0)
(0.0927953 0.0129523 0)
(0.0770221 0.0131541 0)
(0.0612982 0.0131649 0)
(0.0455263 0.0131375 0)
(0.0298954 0.0129569 0)
(0.0144931 0.0127507 0)
(-0.000861275 0.0124262 0)
(-0.015821 0.0120737 0)
(-0.0302047 0.0116156 0)
(-0.0439976 0.0111597 0)
(-0.0571969 0.0106267 0)
(-0.0697344 0.0100954 0)
(-0.0816046 0.00951346 0)
(-0.092763 0.00893449 0)
(-0.10321 0.00832832 0)
(-0.112925 0.00773068 0)
(-0.12192 0.00712638 0)
(-0.130202 0.00653569 0)
(-0.137787 0.00595139 0)
(-0.144677 0.00538915 0)
(-0.150895 0.00484704 0)
(-0.156471 0.00432778 0)
(-0.161406 0.00383148 0)
(-0.165741 0.00335689 0)
(-0.16952 0.00290139 0)
(-0.172752 0.0024673 0)
(-0.175471 0.00204944 0)
(-0.177684 0.00164212 0)
(-0.179411 0.00124667 0)
(-0.180666 0.000847038 0)
(-0.181463 0.000455666 0)
(-0.181805 6.96627e-05 0)
(-0.181689 -0.000295404 0)
(-0.181107 -0.000677825 0)
(-0.180064 -0.00105327 0)
(-0.178545 -0.0014617 0)
(-0.176549 -0.00185301 0)
(-0.174049 -0.00228986 0)
(-0.171039 -0.00268354 0)
(-0.167562 -0.00313009 0)
(-0.163465 -0.00363163 0)
(-0.158826 -0.00407794 0)
(-0.15356 -0.00463671 0)
(-0.147687 -0.00510587 0)
(-0.141116 -0.00572782 0)
(-0.133952 -0.0062214 0)
(-0.125972 -0.00691095 0)
(-0.116773 -0.00744157 0)
(-0.10762 -0.00816783 0)
(-0.0975844 -0.00867705 0)
(-0.086409 -0.00951326 0)
(-0.0750328 -0.00998243 0)
(-0.0625021 -0.010792 0)
(-0.0493992 -0.0112103 0)
(-0.0356086 -0.0119769 0)
(-0.0208587 -0.0123566 0)
(-0.0059232 -0.012635 0)
(0.00989215 -0.0131929 0)
(0.0260868 -0.0133503 0)
(0.042453 -0.0136477 0)
(0.0590542 -0.0136347 0)
(0.0755812 -0.013639 0)
(0.0920315 -0.0134191 0)
(0.108119 -0.0131162 0)
(0.123788 -0.0126584 0)
(0.138782 -0.0120657 0)
(0.153027 -0.0113551 0)
(0.166376 -0.0105111 0)
(0.178595 -0.00955227 0)
(0.189596 -0.00851557 0)
(0.199213 -0.00735602 0)
(0.207396 -0.00617288 0)
(0.214058 -0.00485839 0)
(0.21908 -0.00358657 0)
(0.2226 -0.00224982 0)
(0.224355 -0.00078964 0)
(0.224477 0.000500083 0)
(0.223034 0.00190745 0)
(0.220006 0.0030775 0)
(0.215461 0.0043912 0)
(0.209434 0.00545819 0)
(0.202057 0.00666347 0)
(0.193286 0.00759114 0)
(0.183466 0.00863661 0)
(0.171818 0.00939449 0)
(0.158624 0.010235 0)
(0.146391 0.0108051 0)
(0.133998 0.0114218 0)
(0.120097 0.0118282 0)
(0.105496 0.0122271 0)
(0.0907222 0.0123367 0)
(0.0758475 0.0124687 0)
(0.0609113 0.0123148 0)
(0.0462857 0.0120899 0)
(0.0319409 0.0116741 0)
(0.0179427 0.0107575 0)
(0.00612661 0.00956303 0)
(-0.0068528 0.00663237 0)
(-0.0125743 0.00328598 0)
(-0.0581676 -0.0133511 0)
(-0.045656 -0.0141172 0)
(-0.0321158 -0.014651 0)
(-0.018014 -0.0153436 0)
(-0.0034261 -0.0157379 0)
(0.0116285 -0.0163098 0)
(0.0270952 -0.0165133 0)
(0.0428041 -0.0168987 0)
(0.0586784 -0.016861 0)
(0.0745955 -0.0170061 0)
(0.0904259 -0.0166871 0)
(0.106039 -0.0165408 0)
(0.121275 -0.0159144 0)
(0.136003 -0.0154346 0)
(0.150046 -0.0144927 0)
(0.163251 -0.0134124 0)
(0.175491 -0.0124049 0)
(0.186576 -0.0110459 0)
(0.196409 -0.00970617 0)
(0.204821 -0.00811443 0)
(0.211742 -0.00650094 0)
(0.217043 -0.00474165 0)
(0.22068 -0.0029463 0)
(0.222582 -0.00109593 0)
(0.222727 0.000769148 0)
(0.221117 0.00262901 0)
(0.21777 0.0044351 0)
(0.212748 0.00621008 0)
(0.206087 0.00783934 0)
(0.197911 0.00945944 0)
(0.18829 0.0108235 0)
(0.177387 0.0122181 0)
(0.165297 0.0132558 0)
(0.152206 0.0143696 0)
(0.138241 0.0153538 0)
(0.12355 0.0158655 0)
(0.108319 0.0165231 0)
(0.0926836 0.0166964 0)
(0.0768104 0.0170375 0)
(0.0608445 0.0169127 0)
(0.0449189 0.0169629 0)
(0.0291862 0.0165925 0)
(0.0139174 0.0163964 0)
(-0.00120291 0.0158642 0)
(-0.0161531 0.015461 0)
(-0.0304098 0.0147727 0)
(-0.0440852 0.0142324 0)
(-0.0571255 0.0134716 0)
(-0.0695157 0.0128413 0)
(-0.081221 0.0120498 0)
(-0.0922412 0.0113717 0)
(-0.102572 0.0106691 0)
(-0.112198 0.0098865 0)
(-0.121136 0.00918461 0)
(-0.129387 0.00843594 0)
(-0.136975 0.00775383 0)
(-0.143907 0.00704939 0)
(-0.15021 0.00639806 0)
(-0.155896 0.00574014 0)
(-0.160989 0.00512354 0)
(-0.165506 0.00451134 0)
(-0.169467 0.00393115 0)
(-0.172886 0.00336077 0)
(-0.17578 0.00281237 0)
(-0.178159 0.00227425 0)
(-0.180035 0.00174814 0)
(-0.181416 0.00122169 0)
(-0.182315 0.000693341 0)
(-0.182735 0.000170457 0)
(-0.182673 -0.000338662 0)
(-0.182125 -0.00085134 0)
(-0.181083 -0.00138004 0)
(-0.179545 -0.00191076 0)
(-0.177497 -0.00247076 0)
(-0.174925 -0.003028 0)
(-0.171809 -0.00363277 0)
(-0.168131 -0.00422363 0)
(-0.163865 -0.00488475 0)
(-0.158994 -0.00550871 0)
(-0.15349 -0.00622999 0)
(-0.147342 -0.00688012 0)
(-0.1405 -0.00766324 0)
(-0.133041 -0.0083328 0)
(-0.124737 -0.00917176 0)
(-0.115674 -0.00988014 0)
(-0.106139 -0.0107274 0)
(-0.0956535 -0.0114224 0)
(-0.0844992 -0.0123499 0)
(-0.0726474 -0.0129626 0)
(-0.0603204 -0.0135238 0)
(-0.0471946 -0.0144409 0)
(-0.0335612 -0.0149116 0)
(-0.0192593 -0.0157247 0)
(-0.00424799 -0.0160442 0)
(0.011266 -0.0167027 0)
(0.027208 -0.0168764 0)
(0.043311 -0.0172516 0)
(0.0596281 -0.0172271 0)
(0.0759115 -0.0172737 0)
(0.0921305 -0.0170102 0)
(0.10805 -0.01669 0)
(0.12358 -0.0161489 0)
(0.138539 -0.0154634 0)
(0.152751 -0.0146103 0)
(0.166158 -0.0135908 0)
(0.178562 -0.0124069 0)
(0.189696 -0.0111001 0)
(0.199549 -0.00964797 0)
(0.207861 -0.00799356 0)
(0.214647 -0.00637928 0)
(0.219752 -0.00451177 0)
(0.223144 -0.002782 0)
(0.224759 -0.000782241 0)
(0.22462 0.000979162 0)
(0.222746 0.00298641 0)
(0.21912 0.0046508 0)
(0.213812 0.00653304 0)
(0.206859 0.00804786 0)
(0.19842 0.00972839 0)
(0.188532 0.0110147 0)
(0.177393 0.0124017 0)
(0.165083 0.0134186 0)
(0.150909 0.0143997 0)
(0.137024 0.0150491 0)
(0.123324 0.0158843 0)
(0.108178 0.0162392 0)
(0.0928508 0.0166642 0)
(0.0770488 0.0169204 0)
(0.0612979 0.0169377 0)
(0.0454975 0.0168968 0)
(0.029845 0.0166703 0)
(0.0144204 0.016399 0)
(-0.000951227 0.015985 0)
(-0.0159317 0.0155286 0)
(-0.0303271 0.0149387 0)
(-0.0441322 0.0143519 0)
(-0.05734 0.0136658 0)
(-0.0698858 0.0129821 0)
(-0.081761 0.0122333 0)
(-0.0929239 0.0114882 0)
(-0.103372 0.0107081 0)
(-0.113088 0.00993905 0)
(-0.122082 0.00916147 0)
(-0.130362 0.00840119 0)
(-0.137942 0.0076494 0)
(-0.144826 0.00692564 0)
(-0.151038 0.0062278 0)
(-0.156607 0.00555995 0)
(-0.161535 0.00492442 0)
(-0.165865 0.00431811 0)
(-0.169641 0.00373161 0)
(-0.172868 0.00317328 0)
(-0.175583 0.0026338 0)
(-0.177793 0.0021084 0)
(-0.179518 0.00160303 0)
(-0.180773 0.0010924 0)
(-0.18157 0.00059347 0)
(-0.181908 9.84112e-05 0)
(-0.18179 -0.000375408 0)
(-0.18121 -0.000870214 0)
(-0.180169 -0.00135318 0)
(-0.178654 -0.00187816 0)
(-0.176661 -0.00238113 0)
(-0.174165 -0.00294257 0)
(-0.17116 -0.00344867 0)
(-0.167687 -0.00402273 0)
(-0.163595 -0.00466746 0)
(-0.15896 -0.00524122 0)
(-0.153701 -0.00595944 0)
(-0.147832 -0.00656258 0)
(-0.14127 -0.00736214 0)
(-0.134109 -0.00799684 0)
(-0.126139 -0.00888356 0)
(-0.11694 -0.00956601 0)
(-0.10779 -0.0105034 0)
(-0.0977634 -0.0111523 0)
(-0.0865876 -0.0122296 0)
(-0.0752036 -0.0128395 0)
(-0.0626674 -0.0138784 0)
(-0.0495585 -0.0144155 0)
(-0.0357561 -0.0153981 0)
(-0.020987 -0.0159034 0)
(-0.00604267 -0.0162469 0)
(0.00980117 -0.0169722 0)
(0.0260213 -0.0171745 0)
(0.0424219 -0.0175582 0)
(0.0590513 -0.0175421 0)
(0.0756169 -0.0175484 0)
(0.0920995 -0.0172659 0)
(0.108226 -0.0168765 0)
(0.12393 -0.0162879 0)
(0.138961 -0.0155248 0)
(0.153237 -0.0146107 0)
(0.166623 -0.0135253 0)
(0.178867 -0.0122891 0)
(0.189892 -0.0109485 0)
(0.199533 -0.00944818 0)
(0.207734 -0.00793032 0)
(0.214411 -0.00623985 0)
(0.219436 -0.00460454 0)
(0.222978 -0.00289071 0)
(0.224714 -0.00100754 0)
(0.224838 0.000628878 0)
(0.22338 0.00244205 0)
(0.220343 0.00395249 0)
(0.215786 0.00564982 0)
(0.209742 0.0070236 0)
(0.202347 0.00857447 0)
(0.193554 0.00976785 0)
(0.183711 0.0111129 0)
(0.172036 0.0120877 0)
(0.158816 0.0131694 0)
(0.146553 0.0139027 0)
(0.134136 0.0146972 0)
(0.120208 0.0152177 0)
(0.105564 0.015732 0)
(0.0907577 0.0158688 0)
(0.075844 0.0160522 0)
(0.0608619 0.0158444 0)
(0.0461869 0.0155737 0)
(0.0317659 0.015041 0)
(0.0177154 0.0138994 0)
(0.00566155 0.0124251 0)
(-0.00748588 0.00904471 0)
(-0.0138042 0.00684471 0)
(-0.0583474 -0.0163215 0)
(-0.0458289 -0.0172592 0)
(-0.0322739 -0.0179128 0)
(-0.0181586 -0.0187609 0)
(-0.00354996 -0.0192442 0)
(0.0115256 -0.0199451 0)
(0.0270208 -0.020195 0)
(0.0427586 -0.0206679 0)
(0.0586666 -0.0206228 0)
(0.0746201 -0.0208018 0)
(0.0904885 -0.0204125 0)
(0.106144 -0.020235 0)
(0.121421 -0.0194695 0)
(0.136196 -0.018884 0)
(0.150279 -0.0177322 0)
(0.163523 -0.0164109 0)
(0.175809 -0.0151791 0)
(0.186928 -0.0135164 0)
(0.196801 -0.0118775 0)
(0.20524 -0.00992979 0)
(0.212191 -0.00795557 0)
(0.21751 -0.00580256 0)
(0.221163 -0.00360521 0)
(0.223072 -0.00134082 0)
(0.223218 0.000940997 0)
(0.221603 0.00321513 0)
(0.21824 0.00542509 0)
(0.213202 0.007599 0)
(0.206511 0.0095929 0)
(0.198311 0.0115755 0)
(0.18865 0.0132441 0)
(0.177714 0.0149503 0)
(0.165578 0.0162193 0)
(0.152448 0.0175816 0)
(0.138443 0.0187853 0)
(0.123705 0.0194102 0)
(0.108432 0.0202138 0)