/*--------------------------------*- C++ -*----------------------------------*\
| =========                 |                                                 |
| \\      /  F ield         | OpenFOAM: The Open Source CFD Toolbox           |
|  \\    /   O peration     | Version:  3.0.1                                 |
|   \\  /    A nd           | Web:      www.OpenFOAM.org                      |
|    \\/     M anipulation  |                                                 |
\*---------------------------------------------------------------------------*/
FoamFile
{
    version     2.0;
    format      ascii;
    class       volScalarField;
    location    "84.6";
    object      p_rgh;
}
// * * * * * * * * * * * * * * * * * * * * * * * * * * * * * * * * * * * * * //

dimensions      [1 -1 -2 0 0 0 0];

internalField   nonuniform List<scalar> 
21420
(
411.203
397.608
380.476
360.003
336.436
310.097
281.34
250.536
218.07
184.377
149.883
115.001
80.1801
45.8727
13.1336
-19.3533
-50.8317
-80.9803
-109.595
-136.518
-161.66
-184.966
-206.401
-225.969
-243.688
-259.589
-273.715
-286.115
-296.842
-305.948
-313.482
-319.488
-324.007
-327.074
-328.684
-328.837
-327.474
-324.692
-320.436
-314.703
-307.45
-298.65
-288.249
-276.197
-262.465
-246.999
-229.755
-210.717
-189.871
-167.205
-142.757
-116.588
-88.7751
-59.4385
-28.7282
3.1533
35.8364
69.1808
103.053
137.022
170.736
203.808
235.862
266.53
295.452
322.267
346.651
368.3
386.928
402.28
414.15
422.366
426.804
427.33
423.995
416.734
405.636
390.877
372.656
351.202
326.796
299.781
270.517
239.38
206.757
173.055
138.684
104.032
69.4684
35.347
2.01703
-30.3471
-61.4463
-91.062
-119.016
-145.162
-169.393
-191.638
-211.861
-230.056
-246.245
-260.468
-272.784
-283.265
-291.987
-299.022
-304.44
-308.303
-310.681
-311.594
-311.052
-309.139
-305.848
-301.185
-295.149
-287.731
-278.926
-268.72
-257.094
-244.031
-229.517
-213.539
-196.083
-177.142
-156.714
-134.805
-111.428
-86.6131
-60.4103
-32.8895
-4.14703
25.6756
56.5671
88.0408
119.995
152.143
184.167
215.726
246.451
275.962
303.867
329.781
353.323
374.134
391.882
406.271
417.046
424.005
426.981
425.898
420.755
411.621
398.537
381.713
361.387
337.852
311.459
282.602
251.708
219.226
185.616
151.331
116.809
82.4631
48.6724
15.7657
-15.9676
-46.2889
-75.0063
-101.978
-127.106
-150.331
-171.625
-190.997
-208.472
-224.093
-237.919
-250.011
-260.435
-269.263
-276.566
-282.405
-286.845
-289.94
-291.75
-292.312
-291.642
-289.757
-286.707
-282.467
-277.031
-270.389
-262.518
-253.391
-242.968
-231.203
-218.053
-203.464
-187.384
-169.768
-150.576
-129.786
-107.396
-83.4252
-57.927
-30.9785
-2.69133
26.784
57.2597
88.5651
120.335
152.317
184.179
215.565
246.089
275.348
302.93
328.42
351.419
371.547
388.454
401.829
411.417
417.017
418.45
415.742
408.855
397.922
383.08
364.597
342.786
318.013
290.679
261.209
230.041
197.611
164.352
130.682
96.9989
63.6878
31.064
-0.566371
-30.9526
-59.8916
-87.2261
-112.838
-136.646
-158.601
-178.68
-196.884
-213.238
-227.785
-240.576
-251.676
-261.15
-269.064
-275.483
-280.473
-284.091
-286.392
-287.431
-287.249
-285.863
-283.3
-279.611
-274.773
-268.767
-261.575
-253.16
-243.47
-232.459
-220.092
-206.32
-191.093
-174.397
-156.206
-136.501
-115.286
-92.5625
-68.3575
-42.7222
-15.7403
12.4629
41.7571
71.9768
102.832
134.077
165.402
196.434
226.798
256.06
283.77
309.495
332.787
353.21
370.391
383.992
393.735
399.452
400.977
397.898
390.607
379.288
364.138
345.439
323.531
298.829
271.756
242.764
212.31
180.844
148.822
116.673
84.7845
53.7177
25.9799
-2.74329
-30.6068
-57.2679
-82.5897
-106.527
-129.067
-150.223
-170.02
-188.477
-205.612
-221.429
-235.928
-249.098
-260.916
-271.352
-280.372
-287.933
-293.991
-298.497
-301.423
-302.684
-302.218
-300.013
-295.988
-290.143
-282.479
-272.981
-261.666
-248.547
-233.659
-217.05
-198.776
-178.903
-157.516
-134.705
-110.568
-85.242
-58.8778
-31.7192
-4.78673
6.29396
411.353
397.747
380.602
360.114
336.531
310.175
281.399
250.577
218.093
184.382
149.87
114.972
80.1351
45.8129
13.08
-19.4179
-50.905
-81.0593
-109.677
-136.602
-161.744
-185.049
-206.483
-226.049
-243.765
-259.663
-273.787
-286.184
-296.908
-306.012
-313.543
-319.547
-324.064
-327.13
-328.74
-328.893
-327.532
-324.749
-320.495
-314.763
-307.511
-298.714
-288.315
-276.266
-262.536
-247.073
-229.831
-210.795
-189.95
-167.285
-142.837
-116.667
-88.8513
-59.511
-28.7952
3.09333
35.7859
69.1402
103.025
137.006
170.735
203.823
235.892
266.576
295.515
322.345
346.744
368.407
387.048
402.411
414.29
422.512
426.955
427.49
424.139
416.876
405.772
391.003
372.77
351.301
326.879
299.847
270.566
239.411
206.77
173.051
138.664
103.997
69.4206
35.2876
1.9474
-30.4254
-61.5316
-91.1529
-119.111
-145.259
-169.491
-191.736
-211.957
-230.151
-246.336
-260.556
-272.868
-283.346
-292.064
-299.096
-304.511
-308.372
-310.748
-311.657
-311.116
-309.203
-305.912
-301.249
-295.212
-287.796
-278.992
-268.786
-257.162
-244.1
-229.588
-213.611
-196.156
-177.216
-156.789
-134.88
-111.504
-86.6885
-60.4844
-32.9609
-4.21471
25.6157
56.5071
87.9919
119.957
152.116
184.154
215.728
246.469
275.997
303.919
329.85
353.409
374.236
391.999
406.4
417.186
424.151
427.137
426.046
420.902
411.763
398.67
381.834
361.492
337.94
311.528
282.652
251.737
219.236
185.607
151.304
116.766
82.4063
48.6041
15.6878
-16.0529
-46.3795
-75.1004
-102.074
-127.202
-150.426
-171.719
-191.088
-208.559
-224.178
-238
-250.088
-260.509
-269.334
-276.633
-282.47
-286.907
-290.001
-291.809
-292.369
-291.696
-289.813
-286.762
-282.522
-277.087
-270.447
-262.578
-253.452
-243.031
-231.269
-218.121
-203.534
-187.457
-169.843
-150.653
-129.865
-107.476
-83.5044
-58.0046
-31.0536
-2.76204
26.7193
57.2033
88.5154
120.298
152.291
184.168
215.569
246.11
275.387
302.987
328.496
351.513
371.658
388.579
401.967
411.564
417.172
418.613
415.895
409.005
398.063
383.209
364.711
342.882
318.089
290.736
261.246
230.058
197.61
164.334
130.648
96.9516
63.6277
30.9941
-0.644228
-31.0365
-59.9798
-87.3169
-112.93
-136.738
-158.692
-178.77
-196.971
-213.323
-227.866
-240.654
-251.751
-261.221
-269.132
-275.548
-280.535
-284.151
-286.45
-287.487
-287.303
-285.914
-283.352
-279.663
-274.825
-268.821
-261.629
-253.216
-243.529
-232.519
-220.155
-206.384
-191.16
-174.466
-156.276
-136.573
-115.359
-92.6359
-68.4304
-42.794
-15.8102
12.3961
41.6952
71.9219
102.787
134.043
165.381
196.43
226.812
256.093
283.824
309.57
332.882
353.324
370.523
384.138
393.891
399.613
401.146
398.055
390.76
379.431
364.268
345.553
323.627
298.905
271.811
242.8
212.326
180.842
148.803
116.638
84.7329
53.6424
25.9395
-2.80186
-30.6734
-57.3368
-82.6582
-106.594
-129.132
-150.286
-170.081
-188.535
-205.67
-221.486
-235.985
-249.155
-260.973
-271.41
-280.431
-287.994
-294.052
-298.561
-301.489
-302.748
-302.287
-300.083
-296.059
-290.215
-282.552
-273.054
-261.74
-248.621
-233.732
-217.122
-198.847
-178.972
-157.583
-134.77
-110.631
-85.3025
-58.9366
-31.7772
-4.84321
6.3143
411.653
398.025
380.854
360.337
336.721
310.33
281.518
250.659
218.138
184.392
149.846
114.915
80.0449
45.6928
12.973
-19.5472
-51.0519
-81.2174
-109.842
-136.77
-161.913
-185.216
-206.647
-226.209
-243.92
-259.812
-273.93
-286.321
-297.04
-306.138
-313.665
-319.666
-324.18
-327.242
-328.852
-329.003
-327.647
-324.864
-320.612
-314.883
-307.635
-298.842
-288.447
-276.404
-262.679
-247.221
-229.983
-210.951
-190.109
-167.446
-142.996
-116.824
-89.0031
-59.6552
-28.9284
2.97426
35.6858
69.06
102.968
136.976
170.733
203.852
235.953
266.669
295.641
322.503
346.933
368.624
387.289
402.675
414.571
422.807
427.258
427.808
424.433
417.166
406.049
391.262
373.003
351.505
327.052
299.986
270.67
239.481
206.805
173.054
138.637
103.941
69.3387
35.1832
1.82308
-30.5663
-61.6864
-91.3182
-119.283
-145.436
-169.67
-191.914
-212.133
-230.321
-246.501
-260.713
-273.018
-283.489
-292.2
-299.225
-304.635
-308.492
-310.864
-311.766
-311.228
-309.313
-306.02
-301.357
-295.322
-287.908
-279.105
-268.902
-257.28
-244.221
-229.711
-213.737
-196.285
-177.347
-156.922
-135.014
-111.638
-86.8226
-60.616
-33.0873
-4.33365
25.5111
56.4046
87.9103
119.896
152.08
184.145
215.748
246.521
276.081
304.038
330.004
353.597
374.456
392.248
406.674
417.479
424.46
427.465
426.359
421.212
412.061
398.951
382.09
361.718
338.131
311.683
282.767
251.812
219.272
185.605
151.267
116.698
82.3104
48.4853
15.5501
-16.2054
-46.5425
-75.2702
-102.247
-127.376
-150.597
-171.887
-191.251
-208.716
-224.328
-238.143
-250.224
-260.638
-269.457
-276.75
-282.582
-287.013
-290.103
-291.907
-292.465
-291.788
-289.907
-286.855
-282.617
-277.184
-270.545
-262.679
-253.556
-243.14
-231.383
-218.24
-203.659
-187.588
-169.979
-150.793
-130.008
-107.62
-83.6479
-58.1451
-31.1888
-2.88895
26.6041
57.1042
88.4303
120.236
152.255
184.16
215.592
246.166
275.479
303.115
328.66
351.713
371.891
388.842
402.256
411.873
417.494
418.953
416.212
409.318
398.359
383.48
364.951
343.087
318.256
290.863
261.333
230.107
197.623
164.313
130.596
96.8717
63.5227
30.8694
-0.784613
-31.1889
-60.1404
-87.4826
-113.098
-136.906
-158.859
-178.932
-197.129
-213.475
-228.012
-240.793
-251.884
-261.348
-269.252
-275.663
-280.645
-284.257
-286.551
-287.585
-287.397
-286.001
-283.443
-279.753
-274.917
-268.915
-261.727
-253.318
-243.636
-232.632
-220.271
-206.505
-191.285
-174.595
-156.409
-136.71
-115.499
-92.7771
-68.571
-42.9329
-15.9457
12.2667
41.5752
71.8156
102.698
133.977
165.343
196.424
226.841
256.162
283.934
309.721
333.075
353.555
370.787
384.43
394.203
399.936
401.487
398.369
391.067
379.719
364.53
345.782
323.818
299.058
271.923
242.871
212.358
180.838
148.766
116.57
84.6301
53.4909
25.8595
-2.91933
-30.8068
-57.4745
-82.7951
-106.728
-129.262
-150.411
-170.202
-188.653
-205.785
-221.6
-236.098
-249.268
-261.087
-271.525
-280.549
-288.114
-294.176
-298.689
-301.619
-302.877
-302.427
-300.223
-296.201
-290.359
-282.698
-273.201
-261.887
-248.768
-233.878
-217.266
-198.988
-179.11
-157.717
-134.899
-110.756
-85.4233
-59.0542
-31.8931
-4.95596
6.35435
412.103
398.443
381.233
360.671
337.007
310.563
281.697
250.782
218.205
184.406
149.809
114.828
79.9095
45.5121
12.8127
-19.7414
-51.2724
-81.4547
-110.089
-137.022
-162.165
-185.466
-206.893
-226.448
-244.151
-260.035
-274.144
-286.527
-297.237
-306.329
-313.849
-319.844
-324.353
-327.411
-329.019
-329.172
-327.82
-325.035
-320.787
-315.063
-307.82
-299.033
-288.646
-276.61
-262.893
-247.442
-230.211
-211.184
-190.347
-167.686
-143.236
-117.059
-89.231
-59.8717
-29.1284
2.7954
35.5355
68.9394
102.883
136.931
170.731
203.896
236.045
266.81
295.83
322.74
347.215
368.948
387.652
403.07
414.994
423.249
427.713
428.279
424.881
417.602
406.466
391.65
373.353
351.812
327.312
300.196
270.829
239.587
206.86
173.06
138.596
103.857
69.2171
35.028
1.63787
-30.7764
-61.9171
-91.5648
-119.541
-145.7
-169.937
-192.18
-212.394
-230.576
-246.746
-260.948
-273.242
-283.702
-292.402
-299.418
-304.819
-308.669
-311.035
-311.929
-311.393
-309.475
-306.182
-301.519
-295.485
-288.073
-279.274
-269.073
-257.455
-244.4
-229.894
-213.924
-196.476
-177.541
-157.119
-135.213
-111.838
-87.0218
-60.8114
-33.2751
-4.51025
25.3543
56.2545
87.7903
119.808
152.027
184.132
215.78
246.6
276.211
304.22
330.238
353.881
374.788
392.624
407.088
417.923
424.924
427.948
426.84
421.682
412.512
399.375
382.478
362.06
338.422
311.917
282.942
251.927
219.328
185.605
151.215
116.597
82.1687
48.3093
15.3456
-16.4323
-46.7852
-75.5231
-102.505
-127.635
-150.853
-172.137
-191.494
-208.95
-224.552
-238.357
-250.427
-260.831
-269.641
-276.924
-282.747
-287.172
-290.255
-292.054
-292.607
-291.925
-290.047
-286.994
-282.756
-277.326
-270.691
-262.83
-253.712
-243.302
-231.554
-218.419
-203.846
-187.782
-170.18
-151
-130.22
-107.834
-83.8617
-58.3545
-31.3899
-3.0779
26.4327
56.9565
88.3049
120.145
152.202
184.149
215.627
246.252
275.618
303.308
328.908
352.015
372.243
389.239
402.692
412.339
417.978
419.459
416.696
409.792
398.805
383.89
365.314
343.397
318.509
291.056
261.467
230.183
197.644
164.283
130.519
96.753
63.3676
30.6842
-0.993492
-31.4157
-60.3798
-87.7296
-113.349
-137.157
-159.107
-179.175
-197.365
-213.703
-228.23
-241.001
-252.082
-261.537
-269.432
-275.834
-280.809
-284.413
-286.701
-287.729
-287.535
-286.136
-283.579
-279.887
-275.053
-269.057
-261.874
-253.471
-243.796
-232.799
-220.444
-206.685
-191.473
-174.79
-156.609
-136.915
-115.709
-92.989
-68.7821
-43.1416
-16.1491
12.0724
41.3948
71.6556
102.565
133.879
165.286
196.414
226.886
256.266
284.099
309.948
333.363
353.9
371.183
384.869
394.672
400.421
401.988
398.847
391.53
380.151
364.922
346.125
324.106
299.286
272.09
242.978
212.407
180.832
148.711
116.468
84.4767
53.2626
25.7401
-3.09665
-31.0074
-57.6814
-83.0007
-106.929
-129.456
-150.599
-170.384
-188.83
-205.958
-221.77
-236.267
-249.438
-261.259
-271.699
-280.726
-288.295
-294.361
-298.879
-301.813
-303.074
-302.635
-300.433
-296.415
-290.576
-282.917
-273.422
-262.109
-248.989
-234.097
-217.482
-199.201
-179.317
-157.918
-135.093
-110.943
-85.6046
-59.2304
-32.0666
-5.12472
6.41299
412.704
399.001
381.738
361.116
337.387
310.874
281.935
250.946
218.295
184.425
149.759
114.713
79.7287
45.2699
12.5994
-20.0009
-51.5672
-81.7717
-110.419
-137.358
-162.502
-185.801
-207.221
-226.767
-244.46
-260.333
-274.43
-286.802
-297.501
-306.582
-314.094
-320.081
-324.584
-327.635
-329.24
-329.399
-328.05
-325.264
-321.021
-315.302
-308.067
-299.289
-288.91
-276.885
-263.179
-247.737
-230.515
-211.496
-190.664
-168.006
-143.556
-117.374
-89.5351
-60.1607
-29.3955
2.55655
35.3348
68.7783
102.768
136.869
170.728
203.954
236.167
266.997
296.082
323.055
347.592
369.381
388.134
403.597
415.558
423.839
428.319
428.899
425.486
418.185
407.022
392.167
373.821
352.221
327.659
300.475
271.039
239.728
206.932
173.067
138.542
103.746
69.0548
34.8209
1.39046
-31.0568
-62.225
-91.8939
-119.884
-146.053
-170.293
-192.534
-212.743
-230.915
-247.073
-261.26
-273.54
-283.985
-292.671
-299.674
-305.064
-308.906
-311.261
-312.148
-311.612
-309.691
-306.397
-301.734
-295.702
-288.294
-279.498
-269.302
-257.689
-244.639
-230.139
-214.173
-196.73
-177.8
-157.382
-135.479
-112.105
-87.2871
-61.0716
-33.5257
-4.74587
25.1429
56.0566
87.6308
119.69
151.957
184.116
215.822
246.707
276.385
304.463
330.55
354.261
375.232
393.126
407.64
418.516
425.546
428.582
427.489
422.315
413.115
399.942
382.995
362.517
338.81
312.229
283.176
252.081
219.403
185.605
151.144
116.464
81.9795
48.0745
15.0725
-16.735
-47.109
-75.8605
-102.849
-127.98
-151.194
-172.471
-191.818
-209.262
-224.851
-238.641
-250.697
-261.088
-269.885
-277.156
-282.968
-287.382
-290.458
-292.249
-292.794
-292.112
-290.232
-287.178
-282.943
-277.517
-270.886
-263.031
-253.92
-243.518
-231.78
-218.656
-204.094
-188.041
-170.449
-151.278
-130.503
-108.12
-84.147
-58.6339
-31.6582
-3.33004
26.2038
56.7584
88.1384
120.024
152.131
184.134
215.675
246.367
275.803
303.566
329.24
352.418
372.713
389.77
403.274
412.961
418.625
420.122
417.353
410.428
399.402
384.437
365.799
343.811
318.846
291.313
261.645
230.285
197.672
164.243
130.417
96.5945
63.1606
30.437
-1.27224
-31.7182
-60.6991
-88.0589
-113.683
-137.491
-159.438
-179.498
-197.679
-214.005
-228.52
-241.278
-252.346
-261.788
-269.671
-276.063
-281.027
-284.621
-286.901
-287.921
-287.718
-286.318
-283.759
-280.067
-275.235
-269.245
-262.069
-253.674
-244.01
-233.023
-220.676
-206.926
-191.724
-175.049
-156.876
-137.189
-115.989
-93.2718
-69.0637
-43.4201
-16.4208
11.8129
41.1537
71.4417
102.388
133.747
165.208
196.401
226.944
256.403
284.318
310.251
333.748
354.361
371.712
385.454
395.298
401.068
402.644
399.497
392.152
380.729
365.446
346.582
324.489
299.59
272.312
243.119
212.471
180.823
148.636
116.331
84.2735
52.9572
25.581
-3.3353
-31.276
-57.9578
-83.2751
-107.197
-129.716
-150.85
-170.626
-189.066
-206.188
-221.998
-236.493
-249.665
-261.487
-271.931
-280.961
-288.536
-294.608
-299.133
-302.071
-303.338
-302.912
-300.714
-296.7
-290.865
-283.209
-273.716
-262.405
-249.284
-234.389
-217.771
-199.484
-179.594
-158.186
-135.352
-111.193
-85.8461
-59.4651
-32.2975
-5.34904
6.48849
413.456
399.698
382.37
361.674
337.862
311.262
282.232
251.15
218.407
184.448
149.696
114.568
79.5025
44.9653
12.3335
-20.3264
-51.9366
-82.1686
-110.832
-137.779
-162.924
-186.218
-207.631
-227.167
-244.847
-260.705
-274.788
-287.145
-297.83
-306.899
-314.399
-320.377
-324.872
-327.916
-329.517
-329.682
-328.336
-325.551
-321.313
-315.601
-308.376
-299.608
-289.241
-277.229
-263.535
-248.106
-230.895
-211.886
-191.061
-168.407
-143.956
-117.768
-89.9157
-60.5224
-29.73
2.25741
35.0837
68.5761
102.625
136.792
170.723
204.026
236.319
267.231
296.397
323.45
348.062
369.922
388.738
404.256
416.263
424.577
429.078
429.667
426.248
418.917
407.718
392.815
374.405
352.732
328.092
300.825
271.303
239.904
207.022
173.076
138.474
103.605
68.8512
34.5613
1.08033
-31.4083
-62.6105
-92.3061
-120.315
-146.495
-170.738
-192.978
-213.179
-231.339
-247.481
-261.652
-273.913
-284.339
-293.007
-299.994
-305.371
-309.201
-311.544
-312.424
-311.885
-309.961
-306.666
-302.004
-295.974
-288.57
-279.779
-269.589
-257.981
-244.938
-230.445
-214.485
-197.048
-178.124
-157.711
-135.811
-112.438
-87.619
-61.3974
-33.8399
-5.04127
24.8757
55.8105
87.4314
119.543
151.869
184.095
215.875
246.84
276.602
304.767
330.941
354.736
375.788
393.754
408.331
419.258
426.323
429.376
428.296
423.109
413.872
400.652
383.643
363.089
339.295
312.621
283.468
252.273
219.496
185.604
151.055
116.296
81.7419
47.7801
14.7302
-17.1143
-47.5147
-76.283
-103.281
-128.412
-151.622
-172.889
-192.224
-209.653
-225.225
-238.997
-251.035
-261.41
-270.19
-277.447
-283.245
-287.646
-290.711
-292.492
-293.029
-292.345
-290.464
-287.409
-283.176
-277.754
-271.13
-263.282
-254.18
-243.789
-232.064
-218.953
-204.405
-188.366
-170.786
-151.625
-130.858
-108.478
-84.504
-58.9838
-31.9944
-3.64605
25.9166
56.5086
87.931
119.872
152.042
184.115
215.733
246.509
276.034
303.889
329.655
352.922
373.301
390.434
404.002
413.739
419.435
420.945
418.178
411.225
400.15
385.122
366.406
344.328
319.267
291.635
261.868
230.411
197.707
164.192
130.288
96.3957
62.9009
30.1271
-1.62169
-32.0972
-61.0989
-88.4711
-114.101
-137.91
-159.851
-179.903
-198.072
-214.384
-228.882
-241.625
-252.676
-262.102
-269.97
-276.348
-281.299
-284.881
-287.151
-288.16
-287.948
-286.545
-283.985
-280.291
-275.463
-269.48
-262.314
-253.929
-244.277
-233.303
-220.966
-207.227
-192.038
-175.374
-157.21
-137.532
-116.339
-93.6255
-69.416
-43.769
-16.761
11.4879
40.8517
71.1734
102.165
133.581
165.11
196.383
227.017
256.574
284.592
310.63
334.229
354.937
372.373
386.186
396.082
401.878
403.456
400.314
392.932
381.453
366.102
347.154
324.968
299.971
272.59
243.296
212.55
180.812
148.543
116.161
84.0218
52.575
25.3811
-3.63736
-31.6135
-58.304
-83.6185
-107.532
-130.04
-151.163
-170.929
-189.36
-206.476
-222.282
-236.776
-249.948
-261.772
-272.22
-281.256
-288.837
-294.917
-299.45
-302.393
-303.671
-303.257
-301.065
-297.055
-291.226
-283.574
-274.084
-262.774
-249.652
-234.755
-218.131
-199.838
-179.939
-158.521
-135.675
-111.505
-86.148
-59.7581
-32.5854
-5.62827
6.57849
414.358
400.536
383.129
362.342
338.433
311.728
282.588
251.395
218.541
184.475
149.62
114.394
79.2305
44.5966
12.0154
-20.7184
-52.3815
-82.6461
-111.328
-138.284
-163.431
-186.72
-208.124
-227.646
-245.311
-261.152
-275.217
-287.556
-298.225
-307.279
-314.766
-320.732
-325.218
-328.254
-329.851
-330.018
-328.677
-325.895
-321.663
-315.96
-308.746
-299.991
-289.637
-277.641
-263.964
-248.55
-231.352
-212.354
-191.538
-168.889
-144.437
-118.241
-90.3731
-60.9572
-30.1324
1.89755
34.7819
68.3326
102.452
136.699
170.717
204.113
236.501
267.511
296.775
323.923
348.627
370.572
389.463
405.048
417.11
425.463
429.989
430.588
427.163
419.799
408.555
393.593
375.107
353.346
328.612
301.244
271.618
240.115
207.13
173.086
138.391
103.436
68.6056
34.2489
0.707131
-31.8313
-63.0744
-92.8018
-120.833
-147.026
-171.274
-193.511
-213.703
-231.849
-247.973
-262.122
-274.361
-284.764
-293.411
-300.379
-305.738
-309.555
-311.884
-312.756
-312.212
-310.285
-306.989
-302.327
-296.301
-288.901
-280.116
-269.933
-258.332
-245.298
-230.812
-214.86
-197.43
-178.514
-158.106
-136.21
-112.839
-88.018
-61.7892
-34.2181
-5.39712
24.5521
55.5157
87.1916
119.365
151.763
184.068
215.938
246.998
276.862
305.131
331.409
355.307
376.455
394.509
409.162
420.149
427.258
430.333
429.263
424.061
414.782
401.506
384.421
363.776
339.878
313.09
283.818
252.503
219.607
185.601
150.948
116.093
81.4551
47.4256
14.318
-17.5709
-48.0029
-76.7913
-103.799
-128.932
-152.136
-173.392
-192.711
-210.121
-225.673
-239.425
-251.442
-261.796
-270.557
-277.796
-283.576
-287.963
-291.014
-292.784
-293.312
-292.626
-290.742
-287.687
-283.457
-278.04
-271.423
-263.583
-254.493
-244.115
-232.404
-219.31
-204.778
-188.755
-171.19
-152.042
-131.284
-108.908
-84.9332
-59.4048
-32.3992
-4.02643
25.5703
56.2069
87.682
119.689
151.934
184.091
215.803
246.679
276.311
304.276
330.152
353.527
374.007
391.231
404.877
414.674
420.409
421.934
419.169
412.181
401.049
385.945
367.134
344.949
319.772
292.02
262.134
230.561
197.747
164.13
130.132
96.1557
62.5878
29.7538
-2.04238
-32.5532
-61.5795
-88.9668
-114.604
-138.413
-160.348
-180.39
-198.544
-214.839
-229.318
-242.041
-253.072
-262.479
-270.329
-276.69
-281.626
-285.194
-287.45
-288.447
-288.225
-286.817
-284.254
-280.561
-275.736
-269.761
-262.607
-254.234
-244.598
-233.639
-221.315
-207.589
-192.414
-175.763
-157.612
-137.945
-116.76
-94.0498
-69.8392
-44.1883
-17.1701
11.0971
40.4883
70.8501
101.896
133.38
164.992
196.361
227.103
256.778
284.92
311.083
334.807
355.63
373.167
387.066
397.024
402.854
404.435
401.292
393.868
382.324
366.889
347.842
325.543
300.427
272.923
243.507
212.645
180.797
148.43
115.956
83.7236
52.1184
25.137
-4.00561
-32.0209
-58.7206
-84.031
-107.934
-130.43
-151.539
-171.293
-189.713
-206.822
-222.623
-237.114
-250.287
-262.115
-272.567
-281.61
-289.199
-295.287
-299.83
-302.78
-304.071
-303.671
-301.486
-297.483
-291.659
-284.013
-274.526
-263.218
-250.095
-235.194
-218.564
-200.263
-180.353
-158.923
-136.064
-111.88
-86.5101
-60.1094
-32.9298
-5.96156
6.67999
415.413
401.514
384.015
363.123
339.099
312.271
283.003
251.68
218.697
184.505
149.531
114.19
78.9129
44.162
11.6459
-21.1781
-52.9027
-83.2047
-111.908
-138.875
-164.023
-187.306
-208.699
-228.206
-245.852
-261.673
-275.717
-288.036
-298.686
-307.722
-315.194
-321.147
-325.622
-328.649
-330.242
-330.409
-329.074
-326.295
-322.071
-316.378
-309.178
-300.438
-290.101
-278.122
-264.463
-249.067
-231.884
-212.901
-192.096
-169.452
-144.999
-118.794
-90.9076
-61.4654
-30.603
1.47644
34.429
68.0472
102.249
136.589
170.709
204.212
236.713
267.838
297.216
324.475
349.287
371.33
390.309
405.973
418.098
426.499
431.054
431.662
428.229
420.829
409.533
394.501
375.926
354.062
329.219
301.734
271.985
240.36
207.255
173.097
138.293
103.237
68.3173
33.8835
0.270373
-32.3265
-63.6171
-93.3816
-121.438
-147.646
-171.901
-194.135
-214.316
-232.444
-248.546
-262.671
-274.884
-285.261
-293.883
-300.828
-306.167
-309.967
-312.282
-313.144
-312.594
-310.663
-307.365
-302.705
-296.682
-289.287
-280.51
-270.334
-258.743
-245.717
-231.24
-215.298
-197.877
-178.969
-158.567
-136.677
-113.308
-88.4841
-62.2475
-34.6606
-5.81422
24.1714
55.172
86.9107
119.156
151.637
184.037
216.01
247.182
277.164
305.555
331.955
355.972
377.233
395.39
410.132
421.191
428.351
431.453
430.392
425.173
415.845
402.503
385.33
364.578
340.558
313.638
284.227
252.77
219.736
185.597
150.82
115.855
81.1182
47.0104
13.8348
-18.1057
-48.5742
-77.3859
-104.405
-129.539
-152.736
-173.98
-193.28
-210.669
-226.198
-239.925
-251.916
-262.247
-270.986
-278.203
-283.964
-288.332
-291.369
-293.124
-293.643
-292.953
-291.065
-288.011
-283.784
-278.373
-271.764
-263.935
-254.858
-244.495
-232.801
-219.726
-205.214
-189.21
-171.663
-152.53
-131.783
-109.412
-85.435
-59.8972
-32.873
-4.47159
25.1647
55.853
87.3898
119.474
151.806
184.062
215.882
246.877
276.633
304.726
330.732
354.232
374.831
392.162
405.9
415.767
421.548
423.093
420.325
413.299
402.1
386.906
367.985
345.674
320.362
292.47
262.444
230.735
197.793
164.056
129.948
95.8739
62.2206
29.3165
-2.53483
-33.0869
-62.1417
-89.5462
-115.191
-139
-160.929
-180.958
-199.095
-215.37
-229.827
-242.527
-253.535
-262.919
-270.747
-277.089
-282.008
-285.558
-287.8
-288.783
-288.549
-287.135
-284.569
-280.876
-276.054
-270.089
-262.949
-254.591
-244.972
-234.03
-221.722
-208.011
-192.853
-176.218
-158.08
-138.426
-117.251
-94.5451
-70.3339
-44.6786
-17.6487
10.64
40.0632
70.4712
101.581
133.144
164.851
196.332
227.201
257.015
285.302
311.612
335.48
356.438
374.096
388.094
398.125
403.995
405.582
402.433
394.961
383.343
367.809
348.644
326.214
300.958
273.311
243.752
212.753
180.778
148.297
115.718
83.3809
51.5949
24.8404
-4.44361
-32.4995
-59.2079
-84.513
-108.404
-130.884
-151.977
-171.716
-190.125
-207.225
-223.02
-237.509
-250.683
-262.514
-272.972
-282.023
-289.621
-295.719
-300.272
-303.233
-304.537
-304.152
-301.976
-297.981
-292.166
-284.525
-275.042
-263.736
-250.612
-235.706
-219.07
-200.759
-180.838
-159.392
-136.517
-112.317
-86.9324
-60.5186
-33.33
-6.34774
6.78935
416.62
402.633
385.029
364.016
339.86
312.892
283.478
252.005
218.873
184.539
149.428
113.957
78.5496
43.6594
11.2259
-21.7067
-53.5012
-83.8451
-112.573
-139.551
-164.7
-187.977
-209.357
-228.846
-246.471
-262.269
-276.289
-288.585
-299.212
-308.228
-315.683
-321.621
-326.083
-329.101
-330.688
-330.851
-329.526
-326.753
-322.537
-316.856
-309.672
-300.949
-290.63
-278.672
-265.034
-249.658
-232.494
-213.526
-192.733
-170.095
-145.642
-119.427
-91.5199
-62.0474
-31.1426
0.99347
34.0247
67.7192
102.015
136.462
170.698
204.325
236.955
268.21
297.719
325.107
350.04
372.197
391.278
407.031
419.229
427.683
432.272
432.891
429.449
422.009
410.653
395.541
376.862
354.882
329.912
302.293
272.404
240.638
207.396
173.108
138.178
103.007
67.9855
33.4645
-0.23051
-32.8946
-64.2397
-94.0461
-122.133
-148.358
-172.619
-194.848
-215.017
-233.126
-249.203
-263.299
-275.482
-285.828
-294.422
-301.34
-306.658
-310.439
-312.737
-313.588
-313.031
-311.095
-307.795
-303.137
-297.118
-289.729
-280.96
-270.794
-259.212
-246.197
-231.73
-215.798
-198.388
-179.489
-159.095
-137.211
-113.844
-89.0181
-62.7725
-35.1679
-6.29332
23.7321
54.7796
86.5883
118.915
151.491
183.999
216.091
247.391
277.508
306.039
332.579
356.733
378.123
396.398
411.242
422.383
429.601
432.736
431.685
426.444
417.064
403.644
386.37
365.495
341.336
314.263
284.693
253.075
219.881
185.59
150.673
115.58
80.7305
46.5335
13.28
-18.7193
-49.2295
-78.0676
-105.099
-130.235
-153.424
-174.652
-193.932
-211.296
-226.797
-240.496
-252.46
-262.763
-271.476
-278.668
-284.407
-288.755
-291.774
-293.514
-294.021
-293.325
-291.435
-288.382
-284.159
-278.755
-272.155
-264.338
-255.275
-244.93
-233.256
-220.202
-205.713
-189.73
-172.204
-153.088
-132.353
-109.989
-86.0101
-60.4615
-33.4164
-4.98236
24.6992
55.4465
87.0537
119.227
151.659
184.027
215.971
247.101
277
305.241
331.394
355.039
375.774
393.228
407.07
417.018
422.853
424.42
421.647
414.578
403.304
388.007
368.959
346.504
321.035
292.983
262.797
230.933
197.843
163.969
129.735
95.5497
61.7985
28.8144
-3.09983
-33.6987
-62.786
-90.21
-115.863
-139.673
-161.593
-181.608
-199.726
-215.977
-230.408
-243.082
-254.063
-263.422
-271.226
-277.546
-282.443
-285.975
-288.199
-289.166
-288.919
-287.496
-284.927
-281.235
-276.418
-270.464
-263.339
-255
-245.399
-234.477
-222.188
-208.494
-193.354
-176.738
-158.616
-138.977
-117.812
-95.1116
-70.9004
-45.2402
-18.1975
10.1159
39.5763
70.0358
101.218
132.871
164.688
196.297
227.312
257.284
285.737
312.216
336.249
357.363
375.158
389.27
399.386
405.303
406.902
403.738
396.213
384.508
368.861
349.562
326.981
301.565
273.753
244.031
212.876
180.755
148.143
115.445
82.9956
51.0245
24.471
-4.95555
-33.0506
-59.7666
-85.0648
-108.941
-131.403
-152.478
-172.201
-190.595
-207.685
-223.474
-237.961
-251.135
-262.97
-273.435
-282.494
-290.102
-296.213
-300.779
-303.751
-305.071
-304.7
-302.537
-298.551
-292.744
-285.11
-275.632
-264.328
-251.203
-236.293
-219.648
-201.327
-181.391
-159.929
-137.036
-112.817
-87.4148
-60.9855
-33.7854
-6.78532
6.90224
417.979
403.893
386.17
365.022
340.716
313.59
284.011
252.37
219.07
184.575
149.31
113.693
78.1411
43.0865
10.7558
-22.306
-54.1781
-84.5681
-113.322
-140.314
-165.463
-188.732
-210.097
-229.567
-247.168
-262.939
-276.933
-289.202
-299.805
-308.798
-316.232
-322.153
-326.602
-329.61
-331.192
-331.348
-330.035
-327.268
-323.06
-317.394
-310.226
-301.523
-291.226
-279.291
-265.677
-250.323
-233.18
-214.23
-193.452
-170.821
-146.367
-120.141
-92.2106
-62.7037
-31.7517
0.447977
33.5683
67.3479
101.75
136.318
170.685
204.451
237.225
268.629
298.285
325.817
350.888
373.172
392.368
408.223
420.503
429.019
433.645
434.276
430.822
423.339
411.915
396.712
377.917
355.804
330.692
302.921
272.875
240.95
207.555
173.119
138.047
102.747
67.6097
32.9913
-0.796299
-33.5361
-64.9427
-94.7962
-122.916
-149.16
-173.428
-195.653
-215.808
-233.894
-249.943
-264.007
-276.155
-286.467
-295.028
-301.917
-307.209
-310.969
-313.249
-314.087
-313.522
-311.58
-308.279
-303.623
-297.608
-290.227
-281.467
-271.311
-259.74
-246.737
-232.282
-216.362
-198.963
-180.075
-159.691
-137.812
-114.449
-89.6202
-63.3647
-35.7408
-6.83501
23.2348
54.3364
86.2235
118.642
151.325
183.953
216.179
247.625
277.895
306.582
333.281
357.589
379.126
397.534
412.493
423.727
431.012
434.183
433.141
427.876
418.437
404.93
387.542
366.529
342.213
314.968
285.217
253.416
220.043
185.58
150.504
115.267
80.2913
45.9939
12.6524
-19.4126
-49.9695
-78.8371
-105.883
-131.02
-154.199
-175.41
-194.666
-212.002
-227.473
-241.14
-253.071
-263.343
-272.027
-279.192
-284.906
-289.231
-292.23
-293.953
-294.447
-293.745
-291.851
-288.798
-284.58
-279.184
-272.595
-264.791
-255.745
-245.419
-233.768
-220.738
-206.274
-190.317
-172.813
-153.717
-132.997
-110.639
-86.6591
-61.0981
-34.03
-5.55946
24.173
54.9867
86.6727
118.947
151.491
183.985
216.07
247.351
277.411
305.819
332.139
355.947
376.835
394.428
408.388
418.429
424.324
425.918
423.138
416.02
404.661
389.247
370.056
347.437
321.792