/*--------------------------------*- C++ -*----------------------------------*\
| =========                 |                                                 |
| \\      /  F ield         | OpenFOAM: The Open Source CFD Toolbox           |
|  \\    /   O peration     | Version:  3.0.1                                 |
|   \\  /    A nd           | Web:      www.OpenFOAM.org                      |
|    \\/     M anipulation  |                                                 |
\*---------------------------------------------------------------------------*/
FoamFile
{
    version     2.0;
    format      ascii;
    class       surfaceScalarField;
    location    "91.2";
    object      phi;
}
// * * * * * * * * * * * * * * * * * * * * * * * * * * * * * * * * * * * * * //

dimensions      [0 3 -1 0 0 0 0];

internalField   nonuniform List<scalar> 
42423
(
-4.2211e-05
-1.37109e-05
-2.71873e-05
-1.50238e-05
-1.11303e-05
-1.6057e-05
5.86595e-06
-1.69963e-05
2.37463e-05
-1.78804e-05
4.20655e-05
-1.83192e-05
6.09786e-05
-1.89132e-05
8.01033e-05
-1.91247e-05
9.91111e-05
-1.90079e-05
0.000117957
-1.88455e-05
0.000136411
-1.84544e-05
0.00015403
-1.76194e-05
0.000170627
-1.65972e-05
0.000185998
-1.53702e-05
0.00019978
-1.3782e-05
0.000211764
-1.19844e-05
0.000221674
-9.90958e-06
0.000229389
-7.71538e-06
0.000234741
-5.35206e-06
0.000237566
-2.8251e-06
0.000237858
-2.92363e-07
0.000235623
2.23544e-06
0.000230638
4.985e-06
0.000223292
7.34587e-06
0.000213583
9.70943e-06
0.000201862
1.17209e-05
0.000188316
1.35456e-05
0.000172948
1.53676e-05
0.00015625
1.66985e-05
0.000138512
1.77376e-05
0.000119809
1.87027e-05
0.000100523
1.92866e-05
8.09665e-05
1.95563e-05
6.14002e-05
1.95663e-05
4.1999e-05
1.94012e-05
2.29757e-05
1.90233e-05
4.37128e-06
1.86044e-05
-1.36328e-05
1.8004e-05
-3.0853e-05
1.72202e-05
-4.71831e-05
1.63301e-05
-6.25778e-05
1.53947e-05
-7.6976e-05
1.43982e-05
-9.03811e-05
1.34051e-05
-0.000102745
1.23639e-05
-0.000114098
1.13528e-05
-0.000124451
1.03534e-05
-0.00013384
9.38926e-06
-0.000142256
8.41582e-06
-0.00014978
7.52403e-06
-0.000156396
6.61593e-06
-0.000162138
5.74154e-06
-0.000167054
4.91614e-06
-0.000171139
4.0853e-06
-0.000174468
3.32919e-06
-0.000177015
2.54675e-06
-0.000178747
1.73178e-06
-0.000179805
1.05786e-06
-0.000180061
2.55876e-07
-0.000179462
-5.98402e-07
-0.000178091
-1.37133e-06
-0.000175881
-2.20976e-06
-0.000172874
-3.00688e-06
-0.000169104
-3.77012e-06
-0.000164393
-4.71164e-06
-0.000158871
-5.52185e-06
-0.000152547
-6.3234e-06
-0.000145237
-7.31041e-06
-0.000137068
-8.16935e-06
-0.000127903
-9.16408e-06
-0.000117772
-1.0131e-05
-0.000106734
-1.10386e-05
-9.48467e-05
-1.18872e-05
-8.19979e-05
-1.28488e-05
-6.83224e-05
-1.36755e-05
-5.36964e-05
-1.4626e-05
-3.83796e-05
-1.53169e-05
-2.22786e-05
-1.6101e-05
-5.58796e-06
-1.66907e-05
1.16974e-05
-1.72854e-05
2.94716e-05
-1.77743e-05
4.75908e-05
-1.81192e-05
6.58833e-05
-1.82926e-05
8.43239e-05
-1.84406e-05
0.000102639
-1.83155e-05
0.000120809
-1.81692e-05
0.000138498
-1.76891e-05
0.000155468
-1.69701e-05
0.000171541
-1.60734e-05
0.000186275
-1.47335e-05
0.000199352
-1.30779e-05
0.000210531
-1.11787e-05
0.000219518
-8.98669e-06
0.000226147
-6.62893e-06
0.000230304
-4.15774e-06
0.000231913
-1.60871e-06
0.000231008
9.05488e-07
0.000227492
3.51502e-06
0.000221485
6.00725e-06
0.000213102
8.38362e-06
0.000202492
1.06096e-05
0.000189801
1.26909e-05
0.000175235
1.45656e-05
0.000159005
1.62305e-05
0.000141386
1.76187e-05
0.000122633
1.87535e-05
0.000103043
1.95895e-05
8.29131e-05
2.013e-05
6.25256e-05
2.03875e-05
4.21769e-05
2.03487e-05
2.21059e-05
2.0071e-05
2.5074e-06
1.95985e-05
-1.63401e-05
1.88475e-05
-3.43724e-05
1.80323e-05
-5.13875e-05
1.70151e-05
-6.73725e-05
1.59849e-05
-8.21929e-05
1.48204e-05
-9.58772e-05
1.36843e-05
-0.000108393
1.25156e-05
-0.000119726
1.13328e-05
-0.000129927
1.02013e-05
-0.000138997
9.07022e-06
-0.000147077
8.07979e-06
-0.000154084
7.00749e-06
-0.000160133
6.04851e-06
-0.000165247
5.11399e-06
-0.000169438
4.19142e-06
-0.000172804
3.3657e-06
-0.000175405
2.60085e-06
-0.000177167
1.76265e-06
-0.000178204
1.03656e-06
-0.000178653
4.49257e-07
-0.000178346
-3.07098e-07
-0.000177375
-9.71438e-07
-0.000175809
-1.56581e-06
-0.000173582
-2.2273e-06
-0.000170764
-2.81722e-06
-0.000167333
-3.43122e-06
-0.000163279
-4.05433e-06
-0.000158586
-4.69249e-06
-0.000153269
-5.31697e-06
-0.000147259
-6.01021e-06
-0.000140522
-6.73761e-06
-0.000133022
-7.49952e-06
-0.000124753
-8.26888e-06
-0.000115646
-9.10694e-06
-0.000105655
-9.99128e-06
-9.48073e-05
-1.08478e-05
-8.30776e-05
-1.17297e-05
-7.04247e-05
-1.2653e-05
-5.70026e-05
-1.34221e-05
-4.26991e-05
-1.43035e-05
-2.75864e-05
-1.51127e-05
-1.17561e-05
-1.58303e-05
4.73006e-06
-1.64862e-05
2.17241e-05
-1.6994e-05
3.91171e-05
-1.73931e-05
5.67367e-05
-1.76196e-05
7.44126e-05
-1.7676e-05
9.18704e-05
-1.74578e-05
0.000108922
-1.70519e-05
0.000125296
-1.63733e-05
0.000140758
-1.54622e-05
0.000155021
-1.42637e-05
0.000167821
-1.27992e-05
0.000178965
-1.11449e-05
0.000188199
-9.23388e-06
0.00019527
-7.07068e-06
0.000200072
-4.80249e-06
0.000202436
-2.36361e-06
0.000202359
7.72432e-08
0.000199758
2.60065e-06
0.000194651
5.10742e-06
0.000187175
7.47558e-06
0.000177404
9.77087e-06
0.000165588
1.1816e-05
0.000151934
1.36544e-05
0.000136708
1.52254e-05
0.00012015
1.65584e-05
0.000102576
1.75736e-05
8.42719e-05
1.83044e-05
6.54872e-05
1.87847e-05
4.6512e-05
1.89751e-05
2.75991e-05
1.89129e-05
8.97736e-06
1.86217e-05
-9.191e-06
1.81684e-05
-2.68016e-05
1.76106e-05
-4.36199e-05
1.68184e-05
-5.96195e-05
1.59996e-05
-7.46625e-05
1.5043e-05
-8.87428e-05
1.40803e-05
-0.000101748
1.3005e-05
-0.000113803
1.20547e-05
-0.000124749
1.09464e-05
-0.000134664
9.9152e-06
-0.000143576
8.91206e-06
-0.000151471
7.89478e-06
-0.000158512
7.04128e-06
-0.000164665
6.15282e-06
-0.000170027
5.36215e-06
-0.000174622
4.59513e-06
-0.000178557
3.93468e-06
-0.00018183
3.27304e-06
-0.000184482
2.65198e-06
-0.000186596
2.11388e-06
-0.000188045
1.44895e-06
-0.000188859
8.14137e-07
-0.00018911
2.51204e-07
-0.000188694
-4.16441e-07
-0.000187579
-1.11507e-06
-0.00018582
-1.75907e-06
-0.00018332
-2.49917e-06
-0.00018014
-3.18073e-06
-0.000176235
-3.90446e-06
-0.000171625
-4.60984e-06
-0.00016628
-5.3458e-06
-0.000160287
-5.99251e-06
-0.0001535
-6.78715e-06
-0.000146172
-7.32776e-06
-0.000138043
-8.12912e-06
-0.000129144
-8.89925e-06
-0.000119638
-9.50614e-06
-0.000109326
-1.03122e-05
-9.8152e-05
-1.11737e-05
-8.63132e-05
-1.18388e-05
-7.35985e-05
-1.27147e-05
-6.00854e-05
-1.35131e-05
-4.57505e-05
-1.43349e-05
-3.08243e-05
-1.49262e-05
-1.5211e-05
-1.56133e-05
9.47668e-07
-1.61587e-05
1.75242e-05
-1.65766e-05
3.43047e-05
-1.67805e-05
5.11744e-05
-1.68697e-05
6.79074e-05
-1.6733e-05
8.42728e-05
-1.63654e-05
0.000100046
-1.57736e-05
0.000114969
-1.49224e-05
0.00012879
-1.38217e-05
0.000141275
-1.24845e-05
0.000152151
-1.08761e-05
0.000161201
-9.05043e-06
0.00016821
-7.00875e-06
0.000173022
-4.81185e-06
0.000175442
-2.41999e-06
0.00017551
-6.82542e-08
0.000173087
2.42332e-06
0.000168214
4.87319e-06
0.000161062
7.1511e-06
0.000151741
9.32127e-06
0.000140425
1.13161e-05
0.000127365
1.30601e-05
0.00011276
1.46053e-05
9.68768e-05
1.58828e-05
7.9964e-05
1.69128e-05
6.22938e-05
1.76702e-05
4.41243e-05
1.81694e-05
2.57237e-05
1.84006e-05
7.34497e-06
1.83787e-05
-1.07857e-05
1.81306e-05
-2.84917e-05
1.7706e-05
-4.56136e-05
1.71219e-05
-6.20319e-05
1.64183e-05
-7.76179e-05
1.5586e-05
-9.23229e-05
1.4705e-05
-0.000106066
1.37431e-05
-0.000118772
1.27063e-05
-0.000130537
1.17651e-05
-0.000141276
1.07382e-05
-0.000150964
9.68861e-06
-0.000159663
8.69909e-06
-0.00016736
7.697e-06
-0.000174137
6.77693e-06
-0.000179911
5.77388e-06
-0.0001848
4.88827e-06
-0.000188712
3.91199e-06
-0.000191736
3.02475e-06
-0.000193786
2.04976e-06
-0.000194985
1.19902e-06
-0.000195235
2.50144e-07
-0.000194626
-6.09685e-07
-0.000193148
-1.47743e-06
-0.000190824
-2.32391e-06
-0.0001879
-2.92376e-06
-0.000184377
-3.52356e-06
-0.00018036
-4.01652e-06
-0.000176024
-4.33637e-06
-0.000171398
-4.62569e-06
-0.000166349
-5.04928e-06
-0.000161086
-5.26339e-06
-0.000155382
-5.70346e-06
-0.000149362
-6.02066e-06
-0.000143035
-6.3263e-06
-0.000136133
-6.90202e-06
-0.000128672
-7.46145e-06
-0.000120696
-7.97612e-06
-0.000111821
-8.87438e-06
-0.00010202
-9.8015e-06
-9.13874e-05
-1.06324e-05
-7.96317e-05
-1.17557e-05
-6.69675e-05
-1.26642e-05
-5.31855e-05
-1.3782e-05
-3.82229e-05
-1.49626e-05
-2.24645e-05
-1.57584e-05
-5.62269e-06
-1.68418e-05
1.19441e-05
-1.75668e-05
2.98853e-05
-1.79412e-05
4.82717e-05
-1.83863e-05
6.66493e-05
-1.83776e-05
8.49105e-05
-1.82612e-05
0.00010276
-1.78499e-05
0.000119753
-1.69924e-05
0.000135658
-1.59052e-05
0.000150293
-1.46354e-05
0.000163266
-1.29731e-05
0.000174438
-1.11715e-05
0.000183557
-9.11971e-06
0.000190474
-6.91638e-06
0.000195085
-4.61129e-06
0.000197302
-2.2166e-06
0.000197151
1.50985e-07
0.000194572
2.57898e-06
0.000189538
5.03391e-06
0.000182411
7.12645e-06
0.000173294
9.11682e-06
0.00016253
1.07644e-05
0.000150228
1.2302e-05
0.000136708
1.35205e-05
0.000122178
1.453e-05
0.000106853
1.53249e-05
9.10505e-05
1.58022e-05
7.49261e-05
1.61243e-05
5.85759e-05
1.63502e-05
4.22236e-05
1.63523e-05
2.60018e-05
1.62218e-05
1.01119e-05
1.58898e-05
-5.40452e-06
1.55164e-05
-2.05374e-05
1.51329e-05
-3.51778e-05
1.46404e-05
-4.92655e-05
1.40877e-05
-6.28079e-05
1.35424e-05
-7.57341e-05
1.29262e-05
-8.79982e-05
1.22641e-05
-9.96025e-05
1.16043e-05
-0.00011049
1.08872e-05
-0.000120667
1.01778e-05
-0.00013009
9.42249e-06
-0.000138721
8.63139e-06
-0.000146559
7.83736e-06
-0.000153566
7.00733e-06
-0.000159721
6.15463e-06
-0.000165017
5.29629e-06
-0.000169434
4.41742e-06
-0.000172972
3.5381e-06
-0.000175624
2.6516e-06
-0.000177394
1.77015e-06
-0.000178311
9.16834e-07
-1.12779e-08
-4.22485e-05
-2.74231e-05
-2.72221e-05
-3.00503e-05
-1.11712e-05
-3.2108e-05
5.83749e-06
-3.4005e-05
2.37215e-05
-3.57645e-05
4.20479e-05
-3.66456e-05
6.09728e-05
-3.78382e-05
8.01071e-05
-3.82591e-05
9.91337e-05
-3.80346e-05
0.000118004
-3.77153e-05
0.000136466
-3.6917e-05
0.000154095
-3.52483e-05
0.000170718
-3.32208e-05
0.000186097
-3.07492e-05
0.000199877
-2.75617e-05
0.000211882
-2.39899e-05
0.000221815
-1.98426e-05
0.00022953
-1.54306e-05
0.000234872
-1.06941e-05
0.000237705
-5.65811e-06
0.000237993
-5.79654e-07
0.000235747
4.48121e-06
0.00023076
9.97141e-06
0.000223409
1.46972e-05
0.000213693
1.9425e-05
0.000201961
2.34537e-05
0.000188402
2.71045e-05
0.000173025
3.07439e-05
0.000156312
3.34119e-05
0.000138559
3.54905e-05
0.000119849
3.74129e-05
0.00010055
3.85851e-05
8.09799e-05
3.91269e-05
6.14019e-05
3.91442e-05
4.19886e-05
3.88145e-05
2.29549e-05
3.8057e-05
4.3537e-06
3.72056e-05
-1.36597e-05
3.60174e-05
-3.08863e-05
3.44469e-05
-4.72215e-05
3.26652e-05
-6.26204e-05
3.07936e-05
-7.70224e-05
2.88002e-05
-9.04284e-05
2.6811e-05
-0.000102797
2.47323e-05
-0.000114151
2.27075e-05
-0.000124505
2.07073e-05
-0.000133896
1.87793e-05
-0.000142313
1.68337e-05
-0.000149836
1.50463e-05
-0.000156452
1.32325e-05
-0.0001622
1.1489e-05
-0.000167122
9.83796e-06
-0.000171211
8.17472e-06
-0.000174539
6.65722e-06
-0.000177083
5.09042e-06
-0.000178821
3.4699e-06
-0.000179875
2.11171e-06
-0.00018013
5.11055e-07
-0.000179533
-1.19526e-06
-0.000178171
-2.73324e-06
-0.000175952
-4.42889e-06
-0.000172948
-6.01113e-06
-0.000169177
-7.54088e-06
-0.000164463
-9.42589e-06
-0.00015894
-1.10442e-05
-0.000152621
-1.26426e-05
-0.000145303
-1.46288e-05
-0.000137144
-1.63282e-05
-0.000127974
-1.83337e-05
-0.00011783
-2.02755e-05
-0.000106813
-2.2056e-05
-9.49132e-05
-2.37865e-05
-8.20582e-05
-2.5704e-05
-6.83788e-05
-2.73549e-05
-5.37505e-05
-2.92543e-05
-3.84279e-05
-3.06394e-05
-2.2346e-05
-3.21829e-05
-5.63059e-06
-3.34062e-05
1.16684e-05
-3.45845e-05
2.94467e-05
-3.55526e-05
4.75692e-05
-3.62417e-05
6.58817e-05
-3.66051e-05
8.43312e-05
-3.68902e-05
0.00010266
-3.66447e-05
0.000120844
-3.6353e-05
0.000138555
-3.54005e-05
0.000155553
-3.39674e-05
0.00017165
-3.21711e-05
0.000186405
-2.94878e-05
0.000199515
-2.61887e-05
0.000210722
-2.23853e-05
0.000219723
-1.79881e-05
0.000226361
-1.32669e-05
0.000230517
-8.31378e-06
0.000232126
-3.21745e-06
0.000231207
1.8246e-06
0.000227682
7.03998e-06
0.000221674
1.20151e-05
0.000213279
1.67785e-05
0.000202649
2.12403e-05
0.000189935
2.54046e-05
0.000175353
2.91471e-05
0.000159107
3.24766e-05
0.000141468
3.52584e-05
0.000122691
3.75303e-05
0.000103077
3.92035e-05
8.29221e-05
4.02849e-05
6.25158e-05
4.07938e-05
4.2152e-05
4.07125e-05
2.20635e-05
4.01595e-05
2.45909e-06
3.92029e-05
-1.64075e-05
3.77141e-05
-3.44537e-05
3.60785e-05
-5.14848e-05
3.40462e-05
-6.74824e-05
3.19826e-05
-8.23146e-05
2.96526e-05
-9.59955e-05
2.73652e-05
-0.000108523
2.50435e-05
-0.000119868
2.26771e-05
-0.000130081
2.04148e-05
-0.000139156
1.81453e-05
-0.000147244
1.61674e-05
-0.000154245
1.40091e-05
-0.00016032
1.21234e-05
-0.000165427
1.02211e-05
-0.000169619
8.38326e-06
-0.00017298
6.72636e-06
-0.000175609
5.22994e-06
-0.00017738
3.53371e-06
-0.000178459
2.11562e-06
-0.000178873
8.62722e-07
-0.000178577
-6.02405e-07
-0.000177618
-1.93081e-06
-0.000176047
-3.13661e-06
-0.000173837
-4.43755e-06
-0.00017103
-5.62457e-06
-0.000167612
-6.84927e-06
-0.000163559
-8.10682e-06
-0.000158877
-9.37486e-06
-0.00015354
-1.06541e-05
-0.000147535
-1.20151e-05
-0.000140788
-1.34846e-05
-0.000133311
-1.49767e-05
-0.000125023
-1.65568e-05
-0.000115894
-1.82353e-05
-0.000105924
-1.99622e-05
-9.50608e-05
-2.17106e-05
-8.33046e-05
-2.3486e-05
-7.07124e-05
-2.52452e-05
-5.72423e-05
-2.68923e-05
-4.29177e-05
-2.86281e-05
-2.7791e-05
-3.02395e-05
-1.19379e-05
-3.16834e-05
4.55568e-06
-3.29799e-05
2.15727e-05
-3.40111e-05
3.89842e-05
-3.48047e-05
5.66179e-05
-3.52533e-05
7.43103e-05
-3.53685e-05
9.17834e-05
-3.49309e-05
0.000108865
-3.41336e-05
0.000125263
-3.27709e-05
0.000140731
-3.09304e-05
0.00015502
-2.85527e-05
0.000167853
-2.56326e-05
0.000179006
-2.22979e-05
0.000188238
-1.84659e-05
0.000195328
-1.41608e-05
0.000200139
-9.61378e-06
0.000202523
-4.74762e-06
0.000202446
1.54331e-07
0.000199831
5.21516e-06
0.00019472
1.02188e-05
0.000187237
1.49586e-05
0.000177472
1.95357e-05
0.000165642
2.36465e-05
0.000151977
2.7319e-05
0.000136758
3.04443e-05
0.000120159
3.31571e-05
0.000102566
3.51673e-05
8.42406e-05
3.66293e-05
6.54428e-05
3.75825e-05
4.64575e-05
3.79605e-05
2.7528e-05
3.78424e-05
8.88603e-06
3.72637e-05
-9.28991e-06
3.63443e-05
-2.69284e-05
3.52491e-05
-4.37571e-05
3.3647e-05
-5.97552e-05
3.19977e-05
-7.48122e-05
3.01e-05
-8.89069e-05
2.81751e-05
-0.000101936
2.6034e-05
-0.000113975
2.40935e-05
-0.000124933
2.1905e-05
-0.000134862
1.98441e-05
-0.000143785
1.78343e-05
-0.000151724
1.5834e-05
-0.00015873
1.40475e-05
-0.000164849
1.22722e-05
-0.000170248
1.07612e-05
-0.000174847
9.19367e-06
-0.000178783
7.87054e-06
-0.000182067
6.55714e-06
-0.000184725
5.31012e-06
-0.000186837
4.22615e-06
-0.000188301
2.91243e-06
-0.000189124
1.63739e-06
-0.000189317
4.44385e-07
-0.000188959
-7.74761e-07
-0.000187826
-2.24789e-06
-0.000186018
-3.5668e-06
-0.000183579
-4.93817e-06
-0.000180353
-6.40677e-06
-0.000176499
-7.75925e-06
-0.000171887
-9.22185e-06
-0.000166551
-1.06814e-05
-0.000160543
-1.20006e-05
-0.000153805
-1.35247e-05
-0.000146395
-1.4738e-05
-0.000138275
-1.6249e-05
-0.000129411
-1.77634e-05
-0.00011985
-1.90669e-05
-0.000109532
-2.06308e-05
-9.83966e-05
-2.23089e-05
-8.65097e-05
-2.37257e-05
-7.3785e-05
-2.54394e-05
-6.02663e-05
-2.70318e-05
-4.59739e-05
-2.86274e-05
-3.09881e-05
-2.99121e-05
-1.53634e-05
-3.12381e-05
8.12483e-07
-3.23346e-05
1.73877e-05
-3.31519e-05
3.41985e-05
-3.35914e-05
5.10878e-05
-3.37589e-05
6.78276e-05
-3.34729e-05
8.42156e-05
-3.27534e-05
0.00010001
-3.15681e-05
0.000114938
-2.985e-05
0.000128771
-2.76549e-05
0.00014127
-2.49842e-05
0.000152158
-2.17634e-05
0.000161212
-1.81052e-05
0.00016823
-1.40262e-05
0.000173057
-9.63871e-06
0.000175477
-4.84016e-06
0.000175534
-1.25726e-07
0.000173126
4.83185e-06
0.00016825
9.74923e-06
0.000161098
1.43029e-05
0.00015179
1.86293e-05
0.000140452
2.26542e-05
0.000127387
2.61251e-05
0.000112773
2.92192e-05
9.68776e-05
3.17778e-05
7.99577e-05
3.38327e-05
6.22727e-05
3.53552e-05
4.4098e-05
3.63442e-05
2.56905e-05
3.68081e-05
7.30045e-06
3.67688e-05
-1.08357e-05
3.62667e-05
-2.85519e-05
3.54222e-05
-4.56802e-05
3.42503e-05
-6.2101e-05
3.28391e-05
-7.76893e-05
3.11743e-05
-9.23971e-05
2.94128e-05
-0.000106145
2.74911e-05
-0.000118856
2.5417e-05
-0.000130607
2.35164e-05
-0.000141347
2.14784e-05
-0.000151034
1.93757e-05
-0.00015974
1.74049e-05
-0.00016744
1.53969e-05
-0.000174207
1.35436e-05
-0.000179978
1.15453e-05
-0.000184865
9.77502e-06
-0.00018878
7.82753e-06
-0.0001918
6.04477e-06
-0.000193856
4.10518e-06
-0.000195053
2.3961e-06
-0.0001953
4.97674e-07
-0.000194696
-1.2143e-06
-0.000193213
-2.96001e-06
-0.000190883
-4.65362e-06
-0.000187956
-5.85132e-06
-0.000184428
-7.05117e-06
-0.000180407
-8.03747e-06
-0.000176067
-8.67669e-06
-0.000171441
-9.25141e-06
-0.000166391
-1.01e-05
-0.000161127
-1.05273e-05
-0.000155423
-1.14067e-05
-0.000149404
-1.20398e-05
-0.000143082
-1.26485e-05
-0.000136185
-1.37989e-05
-0.000128731
-1.49154e-05
-0.000120755
-1.59526e-05
-0.000111886
-1.7743e-05
-0.000102077
-1.96105e-05
-9.14504e-05
-2.12593e-05
-7.97002e-05
-2.3506e-05
-6.70441e-05
-2.53203e-05
-5.32466e-05
-2.75796e-05
-3.82784e-05
-2.99309e-05
-2.24903e-05
-3.15466e-05
-5.65694e-06
-3.36752e-05
1.19137e-05
-3.51375e-05
2.98665e-05
-3.58941e-05
4.82636e-05
-3.67835e-05
6.66575e-05
-3.67715e-05
8.49341e-05
-3.65379e-05
0.000102799
-3.57149e-05
0.000119807
-3.40005e-05
0.000135726
-3.18244e-05
0.000150373
-2.92821e-05
0.000163354
-2.59546e-05
0.00017454
-2.23567e-05
0.000183675
-1.8255e-05
0.000190609
-1.38511e-05
0.000195239
-9.24083e-06
0.000197464
-4.44138e-06
0.000197288
3.26384e-07
0.000194684
5.18361e-06
0.000189644
1.00738e-05
0.000182511
1.42587e-05
0.000173384
1.82438e-05
0.000162612
2.15369e-05
0.000150297
2.4617e-05
0.000136764
2.70531e-05
0.000122225
2.90696e-05
0.000106887
3.06626e-05
9.10738e-05
3.16151e-05
7.49388e-05
3.22593e-05
5.85848e-05
3.27042e-05
4.22251e-05
3.2712e-05
2.59959e-05
3.24511e-05
1.01004e-05
3.17853e-05
-5.41642e-06
3.10332e-05
-2.05535e-05
3.027e-05
-3.51964e-05
2.92833e-05
-4.92869e-05
2.81781e-05
-6.28342e-05
2.70897e-05
-7.57649e-05
2.58569e-05
-8.80317e-05
2.45309e-05
-9.96376e-05
2.32102e-05
-0.000110525
2.1775e-05
-0.000120705
2.03572e-05
-0.000130128
1.88452e-05
-0.00013876
1.72637e-05
-0.000146598
1.56751e-05
-0.000153605
1.40148e-05
-0.000159759
1.2309e-05
-0.000165056
1.05925e-05
-0.000169472
8.83418e-06
-0.00017301
7.0757e-06
-0.000175662
5.30365e-06
-0.000177432
3.54038e-06
-0.000178348
1.83266e-06
-2.52091e-08
-4.23216e-05
-4.11397e-05
-2.72894e-05
-4.50826e-05
-1.1252e-05
-4.81455e-05
5.78732e-06
-5.10445e-05
2.36858e-05
-5.3663e-05
4.2031e-05
-5.49909e-05
6.09776e-05
-5.67849e-05
8.01364e-05
-5.74178e-05
9.91933e-05
-5.70916e-05
0.00011808
-5.66021e-05
0.000136573
-5.54102e-05
0.000154235
-5.29102e-05
0.000170869
-4.98548e-05
0.000186276
-4.61565e-05
0.000200085
-4.13705e-05
0.000212105
-3.60098e-05
0.000222037
-2.97744e-05
0.00022976
-2.31539e-05
0.000235117
-1.60516e-05
0.000237969
-8.51031e-06
0.00023823
-8.39889e-07
0.000235939
6.77169e-06
0.000230947
1.4963e-05
0.000223585
2.20591e-05
0.00021386
2.91502e-05
0.000202108
3.5206e-05
0.000188525
4.06878e-05
0.000173137
4.61317e-05
0.000156399
5.0149e-05
0.000138619
5.32714e-05
0.000119898
5.61332e-05
0.000100584
5.78996e-05
8.09861e-05
5.87244e-05
6.13871e-05
5.87432e-05
4.19518e-05
5.82498e-05
2.28943e-05
5.71145e-05
4.30938e-06
5.57905e-05
-1.37245e-05
5.40512e-05
-3.09612e-05
5.16836e-05
-4.73015e-05
4.90054e-05
-6.27049e-05
4.61971e-05
-7.71093e-05
4.32047e-05
-9.05147e-05
4.02164e-05
-0.000102884
3.71017e-05
-0.000114239
3.40621e-05
-0.000124593
3.10613e-05
-0.000133981
2.81681e-05
-0.000142398
2.52503e-05
-0.000149922
2.25703e-05
-0.000156539
1.98499e-05
-0.000162283
1.72328e-05
-0.000167202
1.47563e-05
-0.000171295
1.2268e-05
-0.000174616
9.97852e-06
-0.000177156
7.62986e-06
-0.000178894
5.20801e-06
-0.000179948
3.16569e-06
-0.000180198
7.61444e-07
-0.000179596
-1.79788e-06
-0.000178242
-4.08679e-06
-0.000176015
-6.65564e-06
-0.000173014
-9.01248e-06
-0.000169245
-1.13103e-05
-0.000164537
-1.41337e-05
-0.000159016
-1.65653e-05
-0.000152697
-1.89615e-05
-0.000145356
-2.197e-05
-0.000137223
-2.4461e-05
-0.000128049
-2.75078e-05
-0.000117884
-3.04402e-05
-0.000106896
-3.30439e-05
-9.49871e-05
-3.56958e-05
-8.21302e-05
-3.85608e-05
-6.84427e-05
-4.10425e-05
-5.38153e-05
-4.38817e-05
-3.84906e-05
-4.59642e-05
-2.24204e-05
-4.82531e-05
-5.68922e-06
-5.01374e-05
1.16177e-05
-5.18914e-05
2.94156e-05
-5.33506e-05
4.75427e-05
-5.43688e-05
6.58668e-05
-5.49293e-05
8.43268e-05
-5.53502e-05
0.000102674
-5.49918e-05
0.000120881
-5.45607e-05
0.00013861
-5.31289e-05
0.000155634
-5.09916e-05
0.000171771
-4.83087e-05
0.000186552
-4.42681e-05
0.000199691
-3.93277e-05
0.000210918
-3.36124e-05
0.000219928
-2.69981e-05
0.000226575
-1.99147e-05
0.000230744
-1.24828e-05
0.000232348
-4.82133e-06
0.000231382
2.79049e-06
0.000227837
1.05857e-05
0.000221816
1.80358e-05
0.000213397
2.51977e-05
0.000202726
3.19105e-05
0.000189982
3.81484e-05
0.000175376
4.37535e-05
0.000159105
4.87479e-05
0.000141426
5.29371e-05
0.000122619
5.63376e-05
0.000102977
5.88456e-05
8.27946e-05
6.04669e-05
6.23607e-05
6.12276e-05
4.19702e-05
6.1103e-05
2.18406e-05
6.02891e-05
2.2241e-06
5.88194e-05
-1.66735e-05
5.66117e-05
-3.47269e-05
5.41319e-05
-5.1769e-05
5.10883e-05
-6.77739e-05
4.79875e-05
-8.26246e-05
4.45033e-05
-9.63061e-05
4.10467e-05
-0.000108824
3.75614e-05
-0.000120178
3.40307e-05
-0.000130391
3.06282e-05
-0.000139493
2.7247e-05
-0.00014755
2.42247e-05
-0.000154515
2.09738e-05
-0.000160626
1.8235e-05
-0.000165737
1.53322e-05
-0.000169927
1.25732e-05
-0.00017328
1.00795e-05
-0.000175915
7.86468e-06
-0.000177691
5.31006e-06
-0.000178784
3.20862e-06
-0.000179161
1.23895e-06
-0.000178879
-8.84178e-07
-0.000177926
-2.88392e-06
-0.000176359
-4.7032e-06
-0.000174163
-6.63432e-06
-0.000171353
-8.43403e-06
-0.000167942
-1.026e-05
-0.000163884
-1.21652e-05
-0.000159209
-1.40502e-05
-0.000153804
-1.60583e-05
-0.000147873
-1.79468e-05
-0.000141121
-2.02368e-05
-0.000133647
-2.24501e-05
-0.000125342
-2.48617e-05
-0.00011615
-2.74281e-05
-0.000106249
-2.98627e-05
-9.53704e-05
-3.25893e-05
-8.35729e-05
-3.52836e-05
-7.10445e-05
-3.77737e-05
-5.75427e-05
-4.03941e-05
-4.32224e-05
-4.29485e-05
-2.8083e-05
-4.53789e-05
-1.22172e-05
-4.75493e-05
4.29351e-06
-4.94906e-05
2.13415e-05
-5.10591e-05
3.87555e-05
-5.22187e-05
5.64112e-05
-5.2909e-05
7.41366e-05
-5.3094e-05
9.16143e-05
-5.24087e-05
0.000108714
-5.12337e-05
0.000125134
-4.91904e-05
0.000140628
-4.64241e-05
0.000154936
-4.28614e-05
0.000167804
-3.85001e-05
0.000178973
-3.34671e-05
0.000188247
-2.774e-05
0.00019533
-2.12443e-05
0.000200153
-1.4436e-05
0.000202547
-7.14223e-06
0.000202447
2.54713e-07
0.00019982
7.84147e-06
0.000194717
1.53219e-05
0.000187212
2.24643e-05
0.000177434
2.93132e-05
0.000165588
3.54923e-05
0.000151936
4.09713e-05
0.00013664
4.57406e-05
0.000120039
4.97573e-05
0.000102417
5.27895e-05
8.40712e-05
5.49753e-05
6.52534e-05
5.64003e-05
4.62492e-05
5.69647e-05
2.72929e-05
5.67986e-05
8.62871e-06
5.59279e-05
-9.59716e-06
5.45701e-05
-2.72025e-05
5.28544e-05
-4.40426e-05
5.04871e-05
-6.00479e-05
4.80029e-05
-7.51237e-05
4.51758e-05
-8.92213e-05
4.22727e-05
-0.000102286
3.90991e-05
-0.000114295
3.61019e-05
-0.000125242
3.28522e-05
-0.000135183
2.97851e-05
-0.000144111
2.67627e-05
-0.000152075
2.37976e-05
-0.000159078
2.10503e-05
-0.000165191
1.83856e-05
-0.000170564
1.61341e-05
-0.000175151
1.37806e-05
-0.000179077
1.17968e-05
-0.000182383
9.86232e-06
-0.000185052
7.97957e-06
-0.00018714
6.31465e-06
-0.000188624
4.39547e-06
-0.000189454
2.46809e-06
-0.000189633
6.23082e-07
-0.000189271
-1.13629e-06
-0.000188142
-3.37739e-06
-0.000186331
-5.37739e-06
-0.000183898
-7.37102e-06
-0.000180645
-9.66026e-06
-0.000176816
-1.1588e-05
-0.000172192
-1.38462e-05
-0.000166868
-1.60052e-05
-0.000160839
-1.80296e-05
-0.000154116
-2.02476e-05
-0.000146697
-2.21568e-05
-0.000138569
-2.43772e-05
-0.000129723
-2.66098e-05
-0.000120154
-2.8636e-05
-0.000109829
-3.09557e-05
-9.87132e-05
-3.34245e-05
-8.68004e-05
-3.56385e-05
-7.40716e-05
-3.81683e-05
-6.05481e-05
-4.05553e-05
-4.62772e-05
-4.28983e-05
-3.1266e-05
-4.49234e-05
-1.56204e-05
-4.68838e-05
5.61478e-07
-4.85164e-05
1.71513e-05
-4.97417e-05
3.39732e-05
-5.04133e-05
5.0877e-05
-5.06628e-05
6.76427e-05
-5.02386e-05
8.40457e-05
-4.91564e-05
9.98749e-05
-4.73973e-05
0.000114822
-4.47972e-05
0.00012868
-4.15132e-05
0.00014119
-3.74939e-05
0.000152122
-3.26955e-05
0.000161172
-2.71546e-05
0.000168202
-2.10566e-05
0.00017302
-1.44566e-05
0.000175455
-7.27539e-06
0.000175511
-1.81317e-07
0.00017311
7.23238e-06
0.000168243
1.46163e-05
0.000161091
2.1455e-05
0.000151788
2.79325e-05
0.000140439
3.40023e-05
0.000127362
3.92021e-05
0.000112749
4.38322e-05
9.68306e-05
4.76965e-05
7.9896e-05
5.07673e-05
6.21979e-05
5.30532e-05
4.40015e-05
5.45406e-05
2.55839e-05
5.52256e-05
7.18671e-06
5.51659e-05
-1.09578e-05
5.44112e-05
-2.86788e-05
5.31432e-05
-4.58073e-05
5.13788e-05
-6.22396e-05
4.92713e-05
-7.78342e-05
4.6769e-05
-9.25387e-05
4.41173e-05
-0.000106282
4.12343e-05
-0.000118988
3.81235e-05
-0.000130728
3.52559e-05
-0.000141477
3.22279e-05
-0.000151153
2.90515e-05
-0.00015985
2.61015e-05
-0.000167549
2.30959e-05
-0.000174303
2.02977e-05
-0.000180077
1.73193e-05
-0.000184951
1.46494e-05
-0.000188872
1.17478e-05
-0.000191883
9.05644e-06
-0.00019396
6.18125e-06
-0.000195149
3.58555e-06
-0.000195379
7.27938e-07
-0.000194772
-1.82149e-06
-0.000193285
-4.44706e-06
-0.000190947
-6.99204e-06
-0.000188008
-8.7902e-06
-0.000184473
-1.0586e-05
-0.000180442
-1.20687e-05
-0.000176096
-1.30224e-05
-0.000171467
-1.38802e-05
-0.000166414
-1.51531e-05
-0.000161152
-1.57897e-05
-0.000155452
-1.71063e-05
-0.000149438
-1.80542e-05
-0.000143122
-1.8964e-05
-0.000136234
-2.06869e-05
-0.000128793
-2.23564e-05
-0.000120815
-2.39308e-05
-0.000111958
-2.65997e-05
-0.000102145
-2.94239e-05
-9.15306e-05
-3.18738e-05
-7.9788e-05
-3.52486e-05
-6.71449e-05
-3.79634e-05
-5.33291e-05
-4.13953e-05
-3.83551e-05
-4.4905e-05
-2.2537e-05
-4.73647e-05
-5.70707e-06
-5.05051e-05
1.18735e-05
-5.27181e-05
2.98413e-05
-5.38619e-05
4.82601e-05
-5.52023e-05
6.66767e-05
-5.51882e-05
8.49755e-05
-5.48366e-05
0.000102871
-5.36102e-05
0.0001199
-5.10301e-05
0.000135844
-4.77679e-05
0.00015052
-4.39586e-05
0.000163523
-3.89579e-05
0.000174734
-3.35671e-05
0.000183883
-2.74043e-05
0.000190826
-2.07943e-05
0.000195457
-1.38714e-05
0.000197683
-6.6674e-06
0.000197488
5.21077e-07
0.000194858
7.81333e-06
0.000189806
1.51263e-05
0.000182663
2.14011e-05
0.000173518
2.73889e-05
0.000162732
3.23235e-05
0.000150396
3.69523e-05
0.000136841
4.06086e-05
0.000122286
4.36237e-05
0.000106929
4.60202e-05
9.10965e-05
4.74475e-05
7.49438e-05
4.8412e-05
5.85869e-05
4.90611e-05
4.22165e-05
4.90824e-05
2.59773e-05
4.86902e-05
1.0072e-05
4.76907e-05
-5.45128e-06
4.65564e-05
-2.05949e-05
4.54137e-05
-3.52435e-05
4.39319e-05
-4.93377e-05
4.22722e-05
-6.28878e-05
4.06398e-05
-7.58209e-05
3.879e-05
-8.80893e-05
3.67992e-05
-9.96973e-05
3.48183e-05
-0.000110586
3.26642e-05
-0.000120767
3.05379e-05
-0.000130191
2.82689e-05
-0.000138823
2.58962e-05
-0.000146661
2.35125e-05
-0.000153668
2.1022e-05
-0.000159823
1.84634e-05
-0.000165118
1.58884e-05
-0.000169535
1.3251e-05
-0.000173074
1.06141e-05
-0.000175729
7.9592e-06
-0.000177507
5.31806e-06
-0.000178421
2.74656e-06
-4.29703e-08
-4.24314e-05
-5.4863e-05
-2.73902e-05
-6.01239e-05
-1.13752e-05
-6.41605e-05
5.7128e-06
-6.81325e-05
2.36318e-05
-7.1582e-05
4.20074e-05
-7.33666e-05
6.09892e-05
-7.57668e-05
8.01845e-05
-7.66132e-05
9.92829e-05
-7.61901e-05
0.000118208
-7.55269e-05
0.000136738
-7.39402e-05
0.000154439
-7.0612e-05
0.000171108
-6.65232e-05
0.000186553
-6.16018e-05
0.000200386
-5.52037e-05
0.000212434
-4.80574e-05
0.000222394
-3.97346e-05
0.000230136
-3.08957e-05
0.000235502
-2.14178e-05
0.000238362
-1.13707e-05
0.00023858
-1.05788e-06
0.000236231
9.12055e-06
0.00023123
1.99638e-05
0.000223851
2.94387e-05
0.000214111
3.88901e-05
0.00020233
4.69872e-05
0.00018871
5.43072e-05
0.000173304
6.15383e-05
0.000156531
6.69213e-05
0.000138709
7.10936e-05
0.000119972
7.48703e-05
0.000100636
7.72356e-05
8.09961e-05
7.83641e-05
6.13653e-05
7.8374e-05
4.18979e-05
7.77171e-05
2.28079e-05
7.62045e-05
4.24379e-06
7.43546e-05
-1.38232e-05
7.21182e-05
-3.10764e-05
6.89369e-05
-4.74234e-05
6.53524e-05
-6.28336e-05
6.16073e-05
-7.72427e-05
5.76137e-05
-9.06485e-05
5.36223e-05
-0.000103019
4.94727e-05
-0.000114377
4.54199e-05
-0.000124732
4.14159e-05
-0.000134116
3.7552e-05
-0.000142531
3.36654e-05
-0.000150053
3.00926e-05
-0.000156671
2.64677e-05
-0.000162417
2.29792e-05
-0.000167332
1.96714e-05
-0.000171431
1.63667e-05
-0.000174745
1.32927e-05
-0.000177282
1.01667e-05
-0.000179022
6.94797e-06
-0.00018007
4.21321e-06
-0.000180306
9.97431e-07
-0.000179691
-2.41219e-06
-0.000178355
-5.42307e-06
-0.000176114
-8.89673e-06
-0.000173116
-1.20105e-05
-0.000169351
-1.50749e-05
-0.000164654
-1.88311e-05
-0.000159135
-2.20846e-05
-0.000152811
-2.5285e-05
-0.000145428
-2.93527e-05
-0.000137344
-3.25459e-05
-0.000128164
-3.66872e-05
-0.000117969
-4.06355e-05
-0.000107022
-4.39904e-05
-9.51006e-05
-4.76177e-05
-8.22365e-05
-5.14249e-05
-6.85411e-05
-5.4738e-05
-5.39171e-05
-5.85057e-05
-3.8585e-05
-6.12963e-05
-2.2533e-05
-6.43052e-05
-5.77454e-06
-6.6896e-05
1.15436e-05
-6.92096e-05
2.93649e-05
-7.1172e-05
4.74981e-05
-7.2502e-05
6.58429e-05
-7.32741e-05
8.43193e-05
-7.38267e-05
0.000102692
-7.33645e-05
0.000120914
-7.27827e-05
0.000138668
-7.08828e-05
0.000155743
-6.80668e-05
0.000171922
-6.44874e-05
0.000186732
-5.90785e-05
0.000199919
-5.25149e-05
0.000211158
-4.4851e-05
0.000220175
-3.6015e-05
0.000226821
-2.65608e-05
0.000231005
-1.66667e-05
0.000232563
-6.37962e-06
0.000231542
3.81107e-06
0.000227971
1.41575e-05
0.000221915
2.40911e-05
0.000213493
3.362e-05
0.000202764
4.26394e-05
0.00018998
5.09323e-05
0.000175329
5.84047e-05
0.000159027
6.50502e-05
0.000141293
7.0671e-05