/*--------------------------------*- C++ -*----------------------------------*\
| =========                 |                                                 |
| \\      /  F ield         | OpenFOAM: The Open Source CFD Toolbox           |
|  \\    /   O peration     | Version:  3.0.1                                 |
|   \\  /    A nd           | Web:      www.OpenFOAM.org                      |
|    \\/     M anipulation  |                                                 |
\*---------------------------------------------------------------------------*/
FoamFile
{
    version     2.0;
    format      ascii;
    class       surfaceScalarField;
    location    "22.4";
    object      phi;
}
// * * * * * * * * * * * * * * * * * * * * * * * * * * * * * * * * * * * * * //

dimensions      [0 3 -1 0 0 0 0];

internalField   nonuniform List<scalar> 
42423
(
0.000105282
1.74747e-05
8.75202e-05
1.77614e-05
6.929e-05
1.82302e-05
5.07589e-05
1.85311e-05
3.23185e-05
1.84404e-05
1.40052e-05
1.83133e-05
-3.92035e-06
1.79255e-05
-2.13352e-05
1.74148e-05
-3.80405e-05
1.67053e-05
-5.3904e-05
1.58635e-05
-6.89062e-05
1.50022e-05
-8.2965e-05
1.40587e-05
-9.60456e-05
1.30806e-05
-0.000108155
1.2109e-05
-0.000119276
1.11213e-05
-0.000129443
1.01668e-05
-0.000138657
9.21387e-06
-0.000146952
8.29505e-06
-0.000154379
7.4278e-06
-0.000160952
6.57272e-06
-0.000166685
5.73329e-06
-0.000171628
4.9429e-06
-0.000175825
4.19627e-06
-0.000179273
3.44868e-06
-0.000181992
2.71903e-06
-0.000184012
2.01965e-06
-0.000185323
1.31106e-06
-0.000185962
6.38813e-07
-0.000185845
-1.16636e-07
-0.000184969
-8.7651e-07
-0.00018338
-1.58834e-06
-0.00018097
-2.4102e-06
-0.000177818
-3.15217e-06
-0.000173779
-4.03884e-06
-0.000168838
-4.94078e-06
-0.000163051
-5.78758e-06
-0.000156238
-6.81267e-06
-0.000148565
-7.67336e-06
-0.000139966
-8.59936e-06
-0.000130268
-9.6974e-06
-0.000119595
-1.06735e-05
-0.000107682
-1.19128e-05
-9.47424e-05
-1.29395e-05
-8.09513e-05
-1.37911e-05
-6.61019e-05
-1.48494e-05
-5.00969e-05
-1.6005e-05
-3.35315e-05
-1.65655e-05
-1.60387e-05
-1.74928e-05
2.16789e-06
-1.82067e-05
2.07331e-05
-1.85653e-05
3.97149e-05
-1.89818e-05
5.87958e-05
-1.9081e-05
7.78359e-05
-1.90401e-05
9.66779e-05
-1.88421e-05
0.00011483
-1.81519e-05
0.000132237
-1.74077e-05
0.000148705
-1.64681e-05
0.000163851
-1.51459e-05
0.000177601
-1.37503e-05
0.000189612
-1.20105e-05
0.000199809
-1.01969e-05
0.000208069
-8.26018e-06
0.00021408
-6.01143e-06
0.000217942
-3.86136e-06
0.000219444
-1.50274e-06
0.000218553
8.9108e-07
0.000215303
3.25e-06
0.000209794
5.50954e-06
0.000202099
7.69491e-06
0.00019229
9.80846e-06
0.000180533
1.17571e-05
0.00016701
1.35234e-05
0.000152004
1.50058e-05
0.000135691
1.63124e-05
0.000118285
1.74066e-05
0.000100061
1.82238e-05
8.13942e-05
1.86666e-05
6.22625e-05
1.91317e-05
4.30864e-05
1.91761e-05
2.40228e-05
1.90636e-05
5.184e-06
1.88388e-05
-1.31814e-05
1.83654e-05
-3.09336e-05
1.77522e-05
-4.80252e-05
1.70916e-05
-6.42311e-05
1.6206e-05
-7.95122e-05
1.52811e-05
-9.38901e-05
1.43779e-05
-0.000107122
1.32317e-05
-0.000119317
1.2195e-05
-0.000130418
1.11007e-05
-0.000140455
1.00379e-05
-0.000149445
8.9895e-06
-0.000157254
7.8094e-06
-0.000163997
6.74241e-06
-0.000169698
5.70093e-06
-0.000174391
4.69367e-06
-0.000178269
3.87755e-06
-0.000181188
2.91899e-06
-0.000183322
2.13372e-06
-0.000184803
1.48112e-06
-0.000185492
6.8935e-07
-0.000185439
-5.30873e-08
-0.000184874
-5.64975e-07
-0.000183523
-1.35101e-06
-0.000181627
-1.89585e-06
-0.000179108
-2.5189e-06
-0.000175938
-3.17051e-06
-0.000172136
-3.80205e-06
-0.000167652
-4.48432e-06
-0.000162444
-5.2079e-06
-0.000156511
-5.93248e-06
-0.000149796
-6.71516e-06
-0.00014229
-7.50601e-06
-0.000134035
-8.25545e-06
-0.000124886
-9.14896e-06
-0.000114899
-9.98708e-06
-0.000104054
-1.08445e-05
-9.23129e-05
-1.17414e-05
-7.97722e-05
-1.25407e-05
-6.63193e-05
-1.34529e-05
-5.21118e-05
-1.42076e-05
-3.70497e-05
-1.50622e-05
-2.12124e-05
-1.58373e-05
-4.63257e-06
-1.65799e-05
1.24276e-05
-1.70603e-05
3.00467e-05
-1.76191e-05
4.79863e-05
-1.79397e-05
6.61069e-05
-1.81207e-05
8.41915e-05
-1.80846e-05
0.000101994
-1.78022e-05
0.000119246
-1.72523e-05
0.000135717
-1.64715e-05
0.000151115
-1.53979e-05
0.00016516
-1.40444e-05
0.00017757
-1.24106e-05
0.00018814
-1.05695e-05
0.000196655
-8.51581e-06
0.000202907
-6.25165e-06
0.000206748
-3.84087e-06
0.000208147
-1.39892e-06
0.000207082
1.0643e-06
0.000203484
3.59851e-06
0.00019744
6.04395e-06
0.000189098
8.34151e-06
0.000178584
1.05137e-05
0.000166183
1.24012e-05
0.00015216
1.40229e-05
0.00013667
1.54903e-05
0.000120004
1.66658e-05
0.00010246
1.75446e-05
8.43174e-05
1.81421e-05
6.58526e-05
1.84648e-05
4.7243e-05
1.86096e-05
2.88718e-05
1.83712e-05
1.08586e-05
1.80132e-05
-6.61169e-06
1.74703e-05
-2.3405e-05
1.67933e-05
-3.94544e-05
1.60494e-05
-5.46525e-05
1.5198e-05
-6.8876e-05
1.42235e-05
-8.22174e-05
1.33414e-05
-9.45909e-05
1.23735e-05
-0.000106001
1.14104e-05
-0.000116477
1.04754e-05
-0.000126027
9.54984e-06
-0.000134697
8.66997e-06
-0.000142479
7.78268e-06
-0.000149484
7.00462e-06
-0.000155663
6.17925e-06
-0.00016113
5.46681e-06
-0.000165784
4.65427e-06
-0.00016975
3.96554e-06
-0.000173156
3.40668e-06
-0.000175789
2.63296e-06
-0.000177693
1.90339e-06
-0.00017888
1.18685e-06
-0.00017925
3.7074e-07
-0.000179172
-7.86164e-08
-0.000178324
-8.47587e-07
-0.000176763
-1.56134e-06
-0.000174576
-2.18659e-06
-0.000171682
-2.89436e-06
-0.000168073
-3.60864e-06
-0.000163732
-4.34095e-06
-0.000158615
-5.11695e-06
-0.000152723
-5.89204e-06
-0.000145985
-6.73831e-06
-0.000138392
-7.59324e-06
-0.000129916
-8.4759e-06
-0.000120533
-9.38334e-06
-0.000110285
-1.02472e-05
-9.90336e-05
-1.12518e-05
-8.68373e-05
-1.21963e-05
-7.37276e-05
-1.31097e-05
-5.9719e-05
-1.40086e-05
-4.49108e-05
-1.48083e-05
-2.93371e-05
-1.55737e-05
-1.30534e-05
-1.62838e-05
3.79736e-06
-1.68508e-05
2.11338e-05
-1.73365e-05
3.88004e-05
-1.76667e-05
5.66213e-05
-1.7821e-05
7.4397e-05
-1.77757e-05
9.19777e-05
-1.75808e-05
0.000109087
-1.71098e-05
0.000125476
-1.63888e-05
0.000140969
-1.54926e-05
0.000155266
-1.42973e-05
0.000168162
-1.28958e-05
0.000179399
-1.12372e-05
0.000188814
-9.41513e-06
0.000196225
-7.41105e-06
0.000201425
-5.20025e-06
0.000204389
-2.96417e-06
0.000205047
-6.58018e-07
0.000203424
1.62336e-06
0.000199463
3.96074e-06
0.00019324
6.22324e-06
0.000184928
8.31194e-06
0.000174647
1.02811e-05
0.000162523
1.21237e-05
0.000148886
1.36372e-05
0.000133839
1.50467e-05
0.000117791
1.60482e-05
0.000100935
1.68554e-05
8.33945e-05
1.75409e-05
6.55012e-05
1.78934e-05
4.74057e-05
1.80955e-05
2.93846e-05
1.80211e-05
1.16153e-05
1.77693e-05
-5.77678e-06
1.73921e-05
-2.25038e-05
1.6727e-05
-3.85024e-05
1.59986e-05
-5.36721e-05
1.51697e-05
-6.79119e-05
1.42398e-05
-8.12144e-05
1.33025e-05
-9.35113e-05
1.22969e-05
-0.000104757
1.12454e-05
-0.000115048
1.02917e-05
-0.000124357
9.30905e-06
-0.000132736
8.37845e-06
-0.000140225
7.48943e-06
-0.000146882
6.65686e-06
-0.000152665
5.78313e-06
-0.000157621
4.95593e-06
-0.000161825
4.20408e-06
-0.000165233
3.4076e-06
-0.000168102
2.86934e-06
-0.000170295
2.19251e-06
-0.000171757
1.46258e-06
-0.000172696
9.39136e-07
-0.000173137
4.40696e-07
-0.00017295
-1.86787e-07
-0.000172026
-9.24453e-07
-0.000170426
-1.59983e-06
-0.000168201
-2.22537e-06
-0.000165203
-2.9973e-06
-0.000161473
-3.73042e-06
-0.000156901
-4.57188e-06
-0.000151478
-5.42267e-06
-0.00014513
-6.3486e-06
-0.000137877
-7.25312e-06
-0.000129611
-8.26606e-06
-0.000120367
-9.24392e-06
-0.000110128
-1.0239e-05
-9.88992e-05
-1.12287e-05
-8.66621e-05
-1.22371e-05
-7.34567e-05
-1.32054e-05
-5.93032e-05
-1.41536e-05
-4.43881e-05
-1.49151e-05
-2.86536e-05
-1.57345e-05
-1.22518e-05
-1.64019e-05
4.75756e-06
-1.70094e-05
2.21748e-05
-1.74173e-05
3.98714e-05
-1.76966e-05
5.77535e-05
-1.78821e-05
7.54757e-05
-1.77222e-05
9.29498e-05
-1.74742e-05
0.000109963
-1.70132e-05
0.000126403
-1.64402e-05
0.000141992
-1.55893e-05
0.000156507
-1.45149e-05
0.000169852
-1.33446e-05
0.000181819
-1.19671e-05
0.000192128
-1.03095e-05
0.000200719
-8.59074e-06
0.000207425
-6.70624e-06
0.00021216
-4.73449e-06
0.000214803
-2.64285e-06
0.000215405
-6.02525e-07
0.000213813
1.59159e-06
0.000209963
3.85085e-06
0.000203993
5.96907e-06
0.000196015
7.97889e-06
0.000186083
9.93116e-06
0.000174424
1.16591e-05
0.000161095
1.33294e-05
0.000146331
1.47643e-05
0.00013038
1.5951e-05
0.000113397
1.69822e-05
9.57629e-05
1.76344e-05
7.76644e-05
1.80984e-05
5.93671e-05
1.82973e-05
4.11617e-05
1.82054e-05
2.31624e-05
1.79993e-05
5.54613e-06
1.76163e-05
-1.14774e-05
1.70235e-05
-2.77792e-05
1.63018e-05
-4.31799e-05
1.54007e-05
-5.76095e-05
1.44296e-05
-7.0978e-05
1.33685e-05
-8.3237e-05
1.22589e-05
-9.4374e-05
1.11371e-05
-0.000104362
9.9877e-06
-0.000113204
8.84262e-06
-0.000120943
7.7383e-06
-0.000127598
6.65572e-06
-0.000133224
5.6258e-06
-0.000137882
4.65788e-06
-0.000141603
3.72135e-06
-0.000144444
2.84039e-06
-0.000146466
2.02182e-06
-0.000147726
1.26015e-06
-0.000148279
5.53029e-07
-0.000148079
-1.99539e-07
-0.000147194
-8.85689e-07
-0.000145691
-1.50286e-06
-0.000143532
-2.1587e-06
-0.000140782
-2.75008e-06
-0.000137527
-3.25493e-06
-0.000133635
-3.8924e-06
-0.00012909
-4.54457e-06
-0.000124068
-5.02164e-06
-0.00011839
-5.67869e-06
-0.000112095
-6.29497e-06
-0.000105057
-7.03802e-06
-9.73827e-05
-7.67409e-06
-8.90823e-05
-8.30044e-06
-7.99528e-05
-9.12951e-06
-7.00928e-05
-9.85993e-06
-5.95753e-05
-1.05176e-05
-4.81621e-05
-1.14132e-05
-3.60278e-05
-1.21344e-05
-2.30166e-05
-1.30112e-05
-9.29879e-06
-1.37178e-05
5.04413e-06
-1.4343e-05
2.02078e-05
-1.51638e-05
3.6048e-05
-1.58402e-05
5.23232e-05
-1.62752e-05
6.90995e-05
-1.67764e-05
8.61243e-05
-1.70248e-05
0.000103361
-1.72371e-05
0.000120492
-1.71307e-05
0.000137177
-1.6685e-05
0.00015336
-1.61833e-05
0.000168709
-1.5349e-05
-1.4546e-05
0.000105304
3.49562e-05
8.75352e-05
3.55302e-05
6.92972e-05
3.64681e-05
5.07582e-05
3.70701e-05
3.2308e-05
3.68905e-05
1.39884e-05
3.6633e-05
-3.94217e-06
3.58561e-05
-2.13618e-05
3.48344e-05
-3.80731e-05
3.34166e-05
-5.39441e-05
3.17345e-05
-6.89535e-05
3.00116e-05
-8.30157e-05
2.8121e-05
-9.60946e-05
2.61595e-05
-0.000108201
2.42149e-05
-0.000119324
2.2245e-05
-0.000129497
2.03392e-05
-0.000138718
1.84347e-05
-0.000147009
1.65868e-05
-0.000154431
1.48496e-05
-0.000161006
1.31472e-05
-0.000166746
1.14741e-05
-0.000171698
9.89443e-06
-0.000175888
8.38653e-06
-0.000179328
6.88885e-06
-0.00018205
5.4408e-06
-0.000184075
4.04459e-06
-0.000185395
2.63098e-06
-0.000186029
1.27317e-06
-0.000185901
-2.44701e-07
-0.000185025
-1.75301e-06
-0.000183437
-3.17675e-06
-0.000181027
-4.81963e-06
-0.000177875
-6.3038e-06
-0.000173832
-8.08251e-06
-0.000168902
-9.87038e-06
-0.000163116
-1.15735e-05
-0.000156304
-1.36249e-05
-0.00014863
-1.53471e-05
-0.000140031
-1.71986e-05
-0.000130332
-1.93965e-05
-0.000119653
-2.13528e-05
-0.000107749
-2.38172e-05
-9.4805e-05
-2.58832e-05
-8.10095e-05
-2.75867e-05
-6.61582e-05
-2.97008e-05
-5.01523e-05
-3.2011e-05
-3.3577e-05
-3.31408e-05
-1.60788e-05
-3.49911e-05
2.13273e-06
-3.64183e-05
2.07033e-05
-3.71359e-05
3.97009e-05
-3.79796e-05
5.87949e-05
-3.81751e-05
7.78476e-05
-3.80929e-05
9.67054e-05
-3.77e-05
0.000114866
-3.63128e-05
0.000132287
-3.48289e-05
0.000148767
-3.29481e-05
0.000163927
-3.03059e-05
0.000177689
-2.75122e-05
0.000189696
-2.4018e-05
0.000199901
-2.04021e-05
0.000208183
-1.65415e-05
0.000214198
-1.20265e-05
0.000218064
-7.72824e-06
0.000219575
-3.01321e-06
0.000218675
1.79104e-06
0.000215427
6.49784e-06
0.000209922
1.10148e-05
0.000202221
1.53953e-05
0.000192401
1.96289e-05
0.000180633
2.35253e-05
0.000167098
2.7058e-05
0.000152083
3.0021e-05
0.000135754
3.26406e-05
0.00011833
3.48308e-05
0.000100093
3.64613e-05
8.14182e-05
3.73412e-05
6.22662e-05
3.82836e-05
4.30744e-05
3.83679e-05
2.39941e-05
3.81439e-05
5.15014e-06
3.76827e-05
-1.32403e-05
3.67558e-05
-3.10039e-05
3.55158e-05
-4.81062e-05
3.41939e-05
-6.43248e-05
3.24245e-05
-7.96052e-05
3.05615e-05
-9.39776e-05
2.87503e-05
-0.000107216
2.64706e-05
-0.000119413
2.43914e-05
-0.000130512
2.22002e-05
-0.000140552
2.00773e-05
-0.000149549
1.79869e-05
-0.000157352
1.56124e-05
-0.000164087
1.34768e-05
-0.000169789
1.14037e-05
-0.000174479
9.38362e-06
-0.000178351
7.7497e-06
-0.000181271
5.83848e-06
-0.000183395
4.2582e-06
-0.000184882
2.96789e-06
-0.000185578
1.38481e-06
-0.000185502
-1.28291e-07
-0.000184932
-1.13543e-06
-0.000183595
-2.6885e-06
-0.000181678
-3.81206e-06
-0.000179166
-5.03118e-06
-0.00017599
-6.34615e-06
-0.000172186
-7.60677e-06
-0.000167708
-8.96255e-06
-0.000162507
-1.04083e-05
-0.000156573
-1.18667e-05
-0.000149846
-1.34419e-05
-0.000142336
-1.50161e-05
-0.000134079
-1.65133e-05
-0.000124928
-1.82998e-05
-0.000114941
-1.99742e-05
-0.000104103
-2.16821e-05
-9.23561e-05
-2.34886e-05
-7.9796e-05
-2.51009e-05
-6.63408e-05
-2.69082e-05
-5.21377e-05
-2.84108e-05
-3.70733e-05
-3.01267e-05
-2.12376e-05
-3.16731e-05
-4.66751e-06
-3.31501e-05
1.24248e-05
-3.41527e-05
3.00577e-05
-3.52521e-05
4.80077e-05
-3.58899e-05
6.61333e-05
-3.62465e-05
8.42271e-05
-3.61785e-05
0.00010204
-3.56153e-05
0.000119312
-3.45245e-05
0.000135797
-3.29568e-05
0.000151202
-3.08033e-05
0.000165259
-2.81014e-05
0.000177684
-2.48356e-05
0.000188259
-2.11446e-05
0.000196773
-1.70295e-05
0.000203038
-1.25174e-05
0.000206886
-7.68826e-06
0.000208282
-2.79546e-06
0.000207201
2.14554e-06
0.000203591
7.20857e-06
0.000197542
1.20928e-05
0.000189188
1.66953e-05
0.000178664
2.10377e-05
0.000166246
2.48195e-05
0.000152208
2.80602e-05
0.000136705
3.09932e-05
0.000120026
3.33446e-05
0.000102467
3.5104e-05
8.43034e-05
3.63057e-05
6.58285e-05
3.69397e-05
4.72001e-05
3.7238e-05
2.8815e-05
3.67563e-05
1.07931e-05
3.6035e-05
-6.68673e-06
3.49501e-05
-2.34882e-05
3.35948e-05
-3.95443e-05
3.21055e-05
-5.47435e-05
3.03973e-05
-6.89638e-05
2.84439e-05
-8.23003e-05
2.66778e-05
-9.46803e-05
2.47536e-05
-0.00010609
2.28205e-05
-0.000116567
2.09519e-05
-0.000126119
1.91021e-05
-0.000134787
1.73383e-05
-0.000142571
1.55667e-05
-0.000149566
1.39988e-05
-0.000155753
1.23666e-05
-0.000161214
1.0928e-05
-0.000165858
9.29839e-06
-0.000169814
7.921e-06
-0.000173229
6.82155e-06
-0.000175866
5.27062e-06
-0.000177767
3.8043e-06
-0.000178956
2.3761e-06
-0.000179322
7.36023e-07
-0.000179234
-1.66062e-07
-0.000178383
-1.6985e-06
-0.000176817
-3.1275e-06
-0.000174629
-4.37509e-06
-0.000171736
-5.78702e-06
-0.00016813
-7.21468e-06
-0.000163785
-8.68572e-06
-0.000158663
-1.0239e-05
-0.000152773
-1.17824e-05
-0.000146038
-1.34735e-05
-0.00013844
-1.51907e-05
-0.000129968
-1.69485e-05
-0.000120583
-1.87686e-05
-0.000110331
-2.04984e-05
-9.90751e-05
-2.25082e-05
-8.68694e-05
-2.44021e-05
-7.37634e-05
-2.62158e-05
-5.97508e-05
-2.80212e-05
-4.49348e-05
-2.96244e-05
-2.93527e-05
-3.11559e-05
-1.30697e-05
-3.25668e-05
3.78596e-06
-3.37066e-05
2.1132e-05
-3.46826e-05
3.88119e-05
-3.53467e-05
5.66562e-05
-3.56654e-05
7.44418e-05
-3.55614e-05
9.20193e-05
-3.51584e-05
0.000109141
-3.42316e-05
0.000125546
-3.2794e-05
0.000141047
-3.09931e-05
0.00015536
-2.86111e-05
0.000168265
-2.58004e-05
0.000179509
-2.24812e-05
0.000188925
-1.88313e-05
0.000196339
-1.48253e-05
0.000201543
-1.04045e-05
0.00020452
-5.94085e-06
0.000205179
-1.31782e-06
0.000203533
3.26998e-06
0.000199571
7.92225e-06
0.000193335
1.24589e-05
0.000185026
1.66213e-05
0.000174713
2.05942e-05
0.00016258
2.42568e-05
0.00014894
2.72772e-05
0.000133872
3.01144e-05
0.000117807
3.21131e-05
0.000100939
3.37235e-05
8.33812e-05
3.50987e-05
6.54706e-05
3.5804e-05
4.73616e-05
3.62045e-05
2.93396e-05
3.60431e-05
1.15527e-05
3.55562e-05
-5.85235e-06
3.47971e-05
-2.25885e-05
3.34633e-05
-3.85881e-05
3.19981e-05
-5.37566e-05
3.03382e-05
-6.79976e-05
2.84808e-05
-8.13018e-05
2.66067e-05
-9.3602e-05
2.45971e-05
-0.000104854
2.24979e-05
-0.00011515
2.0587e-05
-0.000124437
1.85958e-05
-0.000132812
1.67539e-05
-0.000140302
1.4979e-05
-0.000146971
1.33266e-05
-0.000152747
1.1559e-05
-0.000157696
9.90437e-06
-0.0001619
8.40803e-06
-0.000165304
6.81241e-06
-0.000168177
5.74178e-06
-0.000170364
4.37986e-06
-0.000171826
2.92426e-06
-0.000172768
1.88126e-06
-0.000173202
8.74319e-07
-0.000173013
-3.75301e-07
-0.000172086
-1.85179e-06
-0.000170481
-3.20464e-06
-0.000168265
-4.44174e-06
-0.000165267
-5.99471e-06
-0.000161529
-7.46833e-06
-0.000156956
-9.14524e-06
-0.000151537
-1.08415e-05
-0.000145189
-1.26966e-05
-0.000137937
-1.45053e-05
-0.000129673
-1.65305e-05
-0.000120421
-1.8496e-05
-0.000110176
-2.04837e-05
-9.89489e-05
-2.24559e-05
-8.67097e-05
-2.44763e-05
-7.3498e-05
-2.64171e-05
-5.93492e-05
-2.83025e-05
-4.44223e-05
-2.9842e-05
-2.86856e-05
-3.14712e-05
-1.22732e-05
-3.28144e-05
4.73914e-06
-3.40218e-05
2.21552e-05
-3.48334e-05
3.98828e-05
-3.54244e-05
5.77639e-05
-3.57633e-05
7.54832e-05
-3.54415e-05
9.2971e-05
-3.49621e-05
0.00011
-3.40419e-05
0.00012645
-3.28905e-05
0.000142044
-3.11831e-05
0.000156575
-2.90469e-05
0.000169931
-2.67005e-05
0.00018191
-2.39457e-05
0.000192224
-2.06242e-05
0.00020081
-1.7176e-05
0.000207521
-1.3418e-05
0.000212265
-9.47817e-06
0.000214914
-5.29163e-06
0.000215529
-1.21769e-06
0.000213933
3.18701e-06
0.000210082
7.70181e-06
0.000204113
1.19382e-05
0.00019613
1.59619e-05
0.000186192
1.98687e-05
0.000174527
2.33245e-05
0.000161187
2.66695e-05
0.000146412
2.95392e-05
0.000130447
3.19156e-05
0.000113452
3.39772e-05
9.58056e-05
3.52812e-05
7.76951e-05
3.62089e-05
5.93861e-05
3.66063e-05
4.11742e-05
3.64173e-05
2.31572e-05
3.60163e-05
5.53438e-06
3.52391e-05
-1.14996e-05
3.40575e-05
-2.78103e-05
3.26125e-05
-4.32204e-05
3.08108e-05
-5.76558e-05
2.88651e-05
-7.10281e-05
2.67408e-05
-8.32909e-05
2.45218e-05
-9.44296e-05
2.22758e-05
-0.00010442
1.99782e-05
-0.000113262
1.76843e-05
-0.000121001
1.54779e-05
-0.000127662
1.33166e-05
-0.000133294
1.12572e-05
-0.000137945
9.30966e-06
-0.000141659
7.43458e-06
-0.000144497
5.6787e-06
-0.000146518
4.04268e-06
-0.00014778
2.52236e-06
-0.000148335
1.1083e-06
-0.000148132
-4.03098e-07
-0.000147239
-1.7789e-06
-0.000145735
-3.00657e-06
-0.000143578
-4.31595e-06
-0.000140825
-5.50262e-06
-0.000137569
-6.51126e-06
-0.00013367
-7.79144e-06
-0.000129139
-9.07569e-06
-0.000124111
-1.00491e-05
-0.000118432
-1.1358e-05
-0.00011214
-1.2587e-05
-0.000105101
-1.40772e-05
-9.74238e-05
-1.5351e-05
-8.91248e-05
-1.65994e-05
-8.0002e-05
-1.82523e-05
-7.01396e-05
-1.97224e-05
-5.96194e-05
-2.10378e-05
-4.81959e-05
-2.28367e-05
-3.6062e-05
-2.42683e-05
-2.30543e-05
-2.6019e-05
-9.33791e-06
-2.74343e-05
5.00362e-06
-2.86846e-05
2.01746e-05
-3.03348e-05
3.60184e-05
-3.16841e-05
5.22934e-05
-3.25503e-05
6.90634e-05
-3.35465e-05
8.6094e-05
-3.40556e-05
0.000103349
-3.44923e-05
0.000120492
-3.42736e-05
0.000137188
-3.33813e-05
0.000153381
-3.2376e-05
0.000168746
-3.0714e-05
-2.91068e-05
0.000105346
5.24544e-05
8.75602e-05
5.33155e-05
6.93061e-05
5.47223e-05
5.07516e-05
5.56246e-05
3.22834e-05
5.53588e-05
1.39524e-05
5.49639e-05
-3.99246e-06
5.3801e-05
-2.1424e-05
5.22659e-05
-3.81442e-05
5.01368e-05
-5.40209e-05
4.76113e-05
-6.90346e-05
4.50252e-05
-8.30987e-05
4.21851e-05
-9.61817e-05
3.92425e-05
-0.000108292
3.63256e-05
-0.000119419
3.33717e-05
-0.000129593
3.05135e-05
-0.000138808
2.76497e-05
-0.000147098
2.48765e-05
-0.000154524
2.22753e-05
-0.000161103
1.97265e-05
-0.000166841
1.72122e-05
-0.000171782
1.4835e-05
-0.000175967
1.25714e-05
-0.000179411
1.03336e-05
-0.000182141
8.1706e-06
-0.000184163
6.06692e-06
-0.000185484
3.95124e-06
-0.000186121
1.91018e-06
-0.000185975
-3.9071e-07
-0.000185086
-2.64205e-06
-0.000183496
-4.76601e-06
-0.000181088
-7.22782e-06
-0.000177938
-9.4542e-06
-0.000173896
-1.21249e-05
-0.000168975
-1.47907e-05
-0.000163193
-1.73559e-05
-0.000156382
-2.0436e-05
-0.000148709
-2.30198e-05
-0.000140111
-2.57967e-05
-0.000130412
-2.9096e-05
-0.000119731
-3.20339e-05
-0.000107835
-3.57126e-05
-9.48865e-05
-3.88321e-05
-8.10863e-05
-4.13869e-05
-6.62201e-05
-4.45671e-05
-5.02254e-05
-4.80058e-05
-3.36379e-05
-4.97284e-05
-1.61316e-05
-5.24975e-05
2.09079e-06
-5.46408e-05
2.06706e-05
-5.57158e-05
3.96828e-05
-5.69918e-05
5.87862e-05
-5.72787e-05
7.78523e-05
-5.71591e-05
9.6737e-05
-5.65848e-05
0.000114913
-5.44887e-05
0.000132356
-5.22719e-05
0.000148843
-4.94359e-05
0.000164013
-4.5476e-05
0.000177802
-4.13008e-05
0.000189824
-3.60401e-05
0.000200032
-3.06105e-05
0.000208325
-2.48344e-05
0.00021435
-1.80515e-05
0.000218215
-1.15931e-05
0.000219741
-4.53917e-06
0.000218837
2.69508e-06
0.000215594
9.74051e-06
0.000210094
1.65147e-05
0.000202387
2.31017e-05
0.000192548
2.94685e-05
0.000180766
3.53075e-05
0.000167215
4.06088e-05
0.000152182
4.50536e-05
0.000135829
4.89936e-05
0.00011839
5.22697e-05
0.000100132
5.4719e-05
8.14407e-05
5.60328e-05
6.22604e-05
5.74639e-05
4.30545e-05
5.75739e-05
2.39564e-05
5.72419e-05
5.10156e-06
5.65376e-05
-1.33216e-05
5.51789e-05
-3.10845e-05
5.32788e-05
-4.81889e-05
5.12983e-05
-6.44212e-05
4.86568e-05
-7.96999e-05
4.58401e-05
-9.40721e-05
4.31226e-05
-0.000107321
3.97192e-05
-0.000119521
3.65915e-05
-0.000130623
3.33021e-05
-0.000140651
3.01055e-05
-0.000149654
2.69903e-05
-0.000157459
2.34174e-05
-0.00016418
2.0197e-05
-0.000169879
1.71027e-05
-0.000174568
1.40727e-05
-0.00017844
1.1622e-05
-0.00018136
8.75854e-06
-0.000183482
6.38041e-06
-0.000184969
4.45485e-06
-0.000185676
2.09171e-06
-0.000185596
-2.08487e-07
-0.000185023
-1.70839e-06
-0.00018369
-4.02119e-06
-0.000181736
-5.76673e-06
-0.000179237
-7.5298e-06
-0.000176067
-9.51669e-06
-0.000172264
-1.14092e-05
-0.000167788
-1.34392e-05
-0.000162584
-1.56121e-05
-0.000156664
-1.77863e-05
-0.000149953
-2.01535e-05
-0.000142431
-2.25377e-05
-0.000134169
-2.47758e-05
-0.000125015
-2.7453e-05
-0.000115035
-2.9955e-05
-0.000104196
-3.25212e-05
-9.24496e-05
-3.52345e-05
-7.9893e-05
-3.76576e-05
-6.6434e-05
-4.03672e-05
-5.22213e-05
-4.26237e-05
-3.71539e-05
-4.51942e-05
-2.13197e-05
-4.75074e-05
-4.77026e-06
-4.96997e-05
1.23617e-05
-5.12848e-05
3.00206e-05
-5.29111e-05
4.79889e-05
-5.38583e-05
6.61319e-05
-5.43896e-05
8.42456e-05
-5.42922e-05
0.000102075
-5.34447e-05
0.000119363
-5.18127e-05
0.000135877
-4.94707e-05
0.000151309
-4.6236e-05
0.000165387
-4.21786e-05
0.000177824
-3.72731e-05
0.000188423
-3.17438e-05
0.000196951
-2.55579e-05
0.000203225
-1.8791e-05
0.000207078
-1.15418e-05
0.000208477
-4.19424e-06
0.000207374
3.24859e-06
0.000203756
1.08264e-05
0.000197696
1.81522e-05
0.000189326
2.50654e-05
0.000178797
3.15668e-05
0.000166364
3.72522e-05
0.000152298
4.21262e-05
0.000136768
4.65239e-05
0.000120067
5.00456e-05
0.0001025
5.26705e-05
8.4305e-05
5.45006e-05
6.58087e-05
5.5436e-05
4.7162e-05
5.58846e-05
2.8767e-05
5.51514e-05
1.07341e-05
5.40679e-05
-6.75906e-06
5.24433e-05
-2.35755e-05
5.04113e-05
-3.96442e-05
4.81742e-05
-5.48418e-05
4.55948e-05
-6.90632e-05
4.26653e-05
-8.24013e-05
4.00159e-05
-9.47622e-05
3.71145e-05
-0.000106163
3.42209e-05
-0.000116642
3.14314e-05
-0.000126204
2.86642e-05
-0.000134878
2.60121e-05
-0.000142654
2.33423e-05
-0.000149643
2.09879e-05
-0.000155841
1.85646e-05
-0.0001613
1.63871e-05
-0.000165934
1.39325e-05
-0.000169873
1.18602e-05
-0.000173297
1.02453e-05
-0.000175956
7.92935e-06
-0.000177857
5.70522e-06
-0.000179048
3.5674e-06
-0.000179408
1.09571e-06
-0.000179322
-2.52381e-07
-0.000178465
-2.55549e-06
-0.000176887
-4.70513e-06
-0.000174701
-6.56054e-06
-0.000171814
-8.67465e-06
-0.00016822
-1.08084e-05
-0.000163886
-1.30197e-05
-0.000158755
-1.53704e-05
-0.000152856
-1.76816e-05
-0.000146129
-2.02004e-05
-0.000138537
-2.27825e-05
-0.000130066
-2.54191e-05
-0.000120681
-2.81535e-05
-0.000110432
-3.07482e-05
-9.91798e-05
-3.37603e-05
-8.69681e-05
-3.66139e-05
-7.38534e-05
-3.93305e-05
-5.98409e-05
-4.20339e-05
-4.50164e-05
-4.44489e-05
-2.94233e-05
-4.67492e-05
-1.31273e-05
-4.88629e-05
3.7378e-06
-5.05718e-05
2.10922e-05
-5.20371e-05
3.87813e-05
-5.3036e-05
5.66382e-05
-5.35224e-05
7.44476e-05
-5.33708e-05
9.20538e-05
-5.27647e-05
0.000109189
-5.13667e-05
0.000125608
-4.92132e-05
0.000141133
-4.65179e-05
0.000155465
-4.29434e-05
0.000168371
-3.87063e-05
0.00017965
-3.37611e-05
0.00018909
-2.82706e-05
0.000196508
-2.22436e-05
0.000201712
-1.56083e-05
0.000204692
-8.92143e-06
0.000205345
-1.97088e-06
0.000203677
4.93767e-06
0.000199725
1.18746e-05
0.00019348
1.87034e-05
0.000185154
2.49473e-05
0.000174834
3.09141e-05
0.000162684
3.64071e-05
0.000149025
4.09368e-05
0.000133937
4.52016e-05
0.000117861
4.81892e-05
0.000100964
5.06202e-05
8.33867e-05
5.26764e-05
6.54583e-05
5.37323e-05
4.73281e-05
5.43348e-05
2.92945e-05
5.40767e-05
1.14922e-05
5.33585e-05
-5.92966e-06
5.22189e-05
-2.26749e-05
5.02085e-05
-3.86809e-05
4.80041e-05
-5.38466e-05
4.5504e-05
-6.80745e-05
4.27086e-05
-8.13787e-05
3.9911e-05
-9.36877e-05
3.69061e-05
-0.000104944
3.37538e-05
-0.000115242
3.08851e-05
-0.00012452
2.78743e-05
-0.000132908
2.51422e-05
-0.000140386
2.24571e-05
-0.000147052
1.99921e-05
-0.000152835
1.73424e-05
-0.000157776
1.48452e-05
-0.000161971
1.26029e-05
-0.000165371
1.02125e-05
-0.00016826
8.63041e-06
-0.000170452
6.57182e-06
-0.000171913
4.38586e-06
-0.000172854
2.82163e-06
-0.000173282
1.30249e-06
-0.000173086
-5.71159e-07
-0.000172156
-2.78236e-06
-0.000170548
-4.81179e-06
-0.00016835
-6.64031e-06
-0.000165359
-8.98532e-06
-0.000161624
-1.12039e-05
-0.000157051
-1.37177e-05
-0.000151636
-1.62571e-05
-0.000145295
-1.90373e-05
-0.000138041
-2.17598e-05
-0.000129776
-2.47952e-05
-0.000120532
-2.77403e-05
-0.000110284
-3.07311e-05
-9.90485e-05
-3.36917e-05
-8.68155e-05
-3.67094e-05
-7.35816e-05
-3.96511e-05
-5.94384e-05
-4.24457e-05
-4.44862e-05
-4.47943e-05
-2.87631e-05
-4.71943e-05
-1.23371e-05
-4.92404e-05
4.68926e-06
-5.10482e-05
2.21162e-05
-5.22604e-05
3.98647e-05
-5.31729e-05
5.77565e-05
-5.36553e-05
7.54817e-05
-5.31668e-05
9.29813e-05
-5.24617e-05
0.000110023
-5.10834e-05
0.0001265
-4.93679e-05
0.000142102
-4.67848e-05
0.000156652
-4.35969e-05
0.000170026
-4.00753e-05
0.000182018
-3.59375e-05
0.00019234
-3.09458e-05
0.000200941
-2.57774e-05
0.000207653
-2.01297e-05
0.000212405
-1.42305e-05
0.000215072
-7.95804e-06
0.00021569
-1.8363e-06
0.000214087
4.78991e-06
0.000210237
1.15515e-05
0.000204272
1.79039e-05
0.000196282
2.39513e-05
0.000186336
2.98153e-05
0.000174657
3.50034e-05
0.000161296
4.00301e-05
0.000146507
4.43278e-05
0.000130514
4.79093e-05
0.000113504
5.09865e-05
9.58401e-05
5.29453e-05
7.77133e-05
5.43357e-05
5.93902e-05
5.49293e-05
4.11779e-05
5.46296e-05
2.31153e-05
5.4079e-05
5.48845e-06
5.28659e-05
-1.15619e-05
5.11079e-05
-2.78852e-05
4.89357e-05
-4.33042e-05
4.62298e-05
-5.77477e-05
4.33085e-05
-7.11272e-05
4.01203e-05
-8.3392e-05
3.67865e-05
-9.45325e-05
3.34163e-05
-0.000104528
2.99739e-05
-0.000113367
2.65231e-05
-0.000121107
2.32182e-05
-0.000127765
1.99738e-05
-0.000133387
1.68794e-05
-0.000138031
1.39535e-05
-0.000141744
1.11477e-05
-0.000144582
8.51724e-06
-0.000146602
6.06269e-06
-0.000147857
3.77697e-06
-0.000148398
1.64986e-06
-0.000148187
-6.14712e-07
-0.000147287
-2.67853e-06
-0.000145782
-4.51183e-06
-0.000143627
-6.47055e-06
-0.000140871
-8.25857e-06
-0.000137611
-9.77137e-06
-0.000133714
-1.16889e-05
-0.000129201
-1.3588e-05
-0.000124157
-1.50937e-05
-0.000118479
-1.70355e-05
-0.000112196
-1.88703e-05
-0.000105147
-2.11267e-05
-9.7473e-05
-2.30247e-05
-8.91672e-05
-2.49053e-05
-8.00358e-05
-2.73837e-05
-7.01704e-05
-2.95878e-05
-5.96532e-05
-3.15551e-05
-4.82379e-05
-3.4252e-05
-3.61002e-05
-3.64061e-05
-2.30992e-05
-3.902e-05
-9.37658e-06
-4.1157e-05
4.96225e-06
-4.30235e-05
2.01338e-05
-4.55064e-05
3.59804e-05
-4.75308e-05
5.22581e-05
-4.8828e-05
6.90317e-05
-5.03202e-05
8.60605e-05
-5.10845e-05
0.000103321
-5.17529e-05
0.000120484
-5.1437e-05
0.000137205
-5.01023e-05
0.000153423
-4.85942e-05
0.000168818
-4.61087e-05
-4.36979e-05
0.000105408
6.99775e-05
8.75978e-05
7.11259e-05
6.93193e-05
7.30008e-05
5.07417e-05
7.42022e-05
3.22471e-05
7.38533e-05
1.38982e-05
7.33128e-05
-4.06737e-06
7.17666e-05
-2.15159e-05
6.97145e-05
-3.82503e-05
6.68712e-05
-5.41388e-05
6.34999e-05
-6.91632e-05
6.00496e-05
-8.32324e-05
5.62542e-05
-9.63209e-05
5.23311e-05
-0.000108437
4.84419e-05
-0.000119561
4.44959e-05
-0.000129736
4.06882e-05
-0.000138954
3.68678e-05
-0.000147246
3.31686e-05
-0.000154668
2.96971e-05
-0.000161244
2.6302e-05
-0.000166982
2.29504e-05
-0.000171925
1.97785e-05
-0.00017611
1.67561e-05
-0.000179559
1.37827e-05
-0.00018229
1.09015e-05
-0.000184317
8.09372e-06
-0.000185629
5.26364e-06
-0.000186242
2.52254e-06
-0.000186067
-5.65309e-07
-0.000185178
-3.5314e-06
-0.000183586
-6.35751e-06
-0.00018118
-9.63354e-06
-0.000178032
-1.26026e-05
-0.000173993
-1.61642e-05
-0.000169085
-1.9698e-05
-0.000163308
-2.3133e-05
-0.0001565
-2.72447e-05
-0.000148828
-3.06918e-05
-0.000140232
-3.4393e-05
-0.000130532
-3.87961e-05
-0.000119849
-4.27167e-05
-0.000107966
-4.75951e-05
-9.50096e-05
-5.1789e-05
-8.12022e-05
-5.51944e-05
-6.63162e-05
-5.94532e-05
-5.03381e-05
-6.3984e-05
-3.37303e-05
-6.63364e-05
-1.62112e-05
-7.00167e-05
2.02611e-06
-7.28782e-05
2.06197e-05
-7.43095e-05
3.96547e-05
-7.60269e-05
5.87761e-05
-7.64002e-05
7.78648e-05
-7.62479e-05
9.6781e-05
-7.55012e-05
0.000114971
-7.26785e-05
0.00013244
-6.97416e-05
0.000148957
-6.59529e-05
0.000164152
-6.06711e-05
0.000177964
-5.51125e-05
0.000189994
-4.80701e-05
0.000200223
-4.08397e-05
0.000208531
-3.31428e-05
0.000214566
-2.40864e-05
0.000218444
-1.54708e-05
0.000219983
-6.07897e-06
0.000219077
3.60099e-06
0.000215848
1.29703e-05
0.00021035
2.20124e-05
0.000202633
3.0819e-05
0.000192765
3.93362e-05
0.000180963
4.7109e-05
0.000167389
5.4183e-05
0.000152331
6.01113e-05
0.00013594
6.53846e-05
0.000118472
6.97377e-05
0.000100187
7.30035e-05
8.14762e-05
7.47441e-05
6.22512e-05
7.66889e-05
4.3017e-05
7.68081e-05
2.38908e-05
7.63681e-05
5.03195e-06
7.53964e-05
-1.34307e-05
7.36416e-05
-3.12101e-05
7.10581e-05
-4.83194e-05
6.84077e-05
-6.4568e-05
6.49055e-05
-7.98529e-05
6.1125e-05
-9.42312e-05
5.75009e-05
-0.000107487
5.29753e-05
-0.000119675
4.87789e-05
-0.000130782
4.44098e-05
-0.000140813
4.01356e-05
-0.000149826
3.60034e-05
-0.000157635
3.12264e-05
-0.000164338
2.69003e-05
-0.000170018
2.27827e-05
-0.000174702
1.8757e-05
-0.000178587
1.55068e-05
-0.000181477
1.1648e-05
-0.000183585
8.4884e-06
-0.000185102
5.97261e-06
-0.000185821
2.80998e-06
-0.000185723