/*--------------------------------*- C++ -*----------------------------------*\
| =========                 |                                                 |
| \\      /  F ield         | OpenFOAM: The Open Source CFD Toolbox           |
|  \\    /   O peration     | Version:  3.0.1                                 |
|   \\  /    A nd           | Web:      www.OpenFOAM.org                      |
|    \\/     M anipulation  |                                                 |
\*---------------------------------------------------------------------------*/
FoamFile
{
    version     2.0;
    format      ascii;
    class       surfaceScalarField;
    location    "83.8";
    object      phi;
}
// * * * * * * * * * * * * * * * * * * * * * * * * * * * * * * * * * * * * * //

dimensions      [0 3 -1 0 0 0 0];

internalField   nonuniform List<scalar> 
42423
(
-0.00016874
3.72594e-06
-0.000171681
2.94075e-06
-0.000173926
2.24492e-06
-0.000175494
1.56829e-06
-0.000176402
9.07924e-07
-0.000176646
2.43912e-07
-0.000176138
-5.08021e-07
-0.000174912
-1.2259e-06
-0.000173061
-1.85072e-06
-0.000170466
-2.59499e-06
-0.000167076
-3.3899e-06
-0.000163007
-4.06956e-06
-0.000158042
-4.96449e-06
-0.000152353
-5.68904e-06
-0.000145693
-6.66e-06
-0.000138155
-7.53804e-06
-0.00012983
-8.32499e-06
-0.000120513
-9.31763e-06
-0.000110219
-1.02938e-05
-9.90215e-05
-1.11975e-05
-8.68151e-05
-1.22064e-05
-7.35493e-05
-1.32658e-05
-5.93485e-05
-1.42008e-05
-4.41527e-05
-1.51959e-05
-2.81603e-05
-1.59924e-05
-1.12881e-05
-1.68722e-05
6.31486e-06
-1.76031e-05
2.43789e-05
-1.80641e-05
4.29323e-05
-1.85534e-05
6.18198e-05
-1.88876e-05
8.06577e-05
-1.88379e-05
9.93888e-05
-1.87312e-05
0.000117686
-1.82976e-05
0.000135379
-1.76927e-05
0.000152211
-1.68322e-05
0.000167803
-1.55918e-05
0.000182038
-1.42351e-05
0.000194617
-1.25791e-05
0.000205296
-1.06796e-05
0.00021393
-8.63407e-06
0.000220328
-6.39792e-06
0.000224454
-4.12559e-06
0.000226224
-1.77061e-06
0.000225503
7.21191e-07
0.000222371
3.13234e-06
0.000216872
5.49859e-06
0.00020904
7.83181e-06
0.00019923
9.80995e-06
0.000187539
1.16913e-05
0.000174101
1.3438e-05
0.000159224
1.48766e-05
0.000143125
1.60989e-05
0.000126117
1.70079e-05
0.000108324
1.77932e-05
9.00003e-05
1.83237e-05
7.1448e-05
1.85522e-05
5.28725e-05
1.85756e-05
3.44781e-05
1.83944e-05
1.64463e-05
1.80318e-05
-1.13141e-06
1.75777e-05
-1.80707e-05
1.69392e-05
-3.43543e-05
1.62836e-05
-4.98024e-05
1.54481e-05
-6.43969e-05
1.45945e-05
-7.81544e-05
1.37575e-05
-9.09587e-05
1.28043e-05
-0.000102805
1.18461e-05
-0.000113762
1.09567e-05
-0.000123741
9.97924e-06
-0.000132907
9.16586e-06
-0.000141141
8.23422e-06
-0.000148498
7.35746e-06
-0.000155092
6.59343e-06
-0.000160815
5.72275e-06
-0.000165681
4.86668e-06
-0.000169738
4.0571e-06
-0.000172934
3.19605e-06
-0.000175341
2.40688e-06
-0.000176948
1.60702e-06
-0.000177675
7.26327e-07
-0.000177698
2.37765e-08
-0.000176854
-8.43968e-07
-0.000175249
-1.60509e-06
-0.000172767
-2.4826e-06
-0.000169447
-3.31931e-06
-0.000165167
-4.28095e-06
-0.000160039
-5.12791e-06
-0.000154033
-6.00598e-06
-0.000147173
-6.8594e-06
-0.00013947
-7.70341e-06
-0.000131035
-8.43533e-06
-0.000121873
-9.16151e-06
-0.00011213
-9.74302e-06
-0.000101658
-1.04721e-05
-9.04787e-05
-1.11794e-05
-7.86127e-05
-1.1866e-05
-6.59636e-05
-1.26492e-05
-5.25621e-05
-1.34016e-05
-3.84019e-05
-1.41602e-05
-2.35011e-05
-1.49009e-05
-7.90863e-06
-1.55926e-05
8.2795e-06
-1.61882e-05
2.49978e-05
-1.67183e-05
4.21193e-05
-1.71216e-05
5.94881e-05
-1.73689e-05
7.6945e-05
-1.74569e-05
9.43083e-05
-1.73634e-05
0.000111408
-1.70993e-05
0.000128016
-1.66081e-05
0.000143905
-1.58896e-05
0.000158897
-1.49916e-05
0.000172775
-1.38788e-05
0.000185258
-1.24831e-05
0.000196185
-1.09264e-05
0.000205352
-9.16703e-06
0.000212522
-7.17075e-06
0.000217615
-5.09244e-06
0.000220449
-2.83446e-06
0.000220986
-5.37096e-07
0.000219204
1.78199e-06
0.000215006
4.19852e-06
0.000208437
6.56887e-06
0.000199673
8.76313e-06
0.000188885
1.07883e-05
0.000176236
1.26495e-05
0.000161849
1.43862e-05
0.000146088
1.57609e-05
0.000129119
1.69695e-05
0.000111267
1.78524e-05
9.27791e-05
1.84874e-05
7.38331e-05
1.8946e-05
5.47892e-05
1.90439e-05
3.57641e-05
1.9025e-05
1.70629e-05
1.87012e-05
-1.19643e-06
1.82594e-05
-1.87969e-05
1.76005e-05
-3.56409e-05
1.6844e-05
-5.15919e-05
1.59509e-05
-6.65815e-05
1.49896e-05
-8.0527e-05
1.39455e-05
-9.34383e-05
1.29113e-05
-0.000105256
1.18178e-05
-0.000116007
1.07511e-05
-0.000125698
9.69063e-06
-0.000134391
8.69318e-06
-0.000142108
7.71681e-06
-0.000148903
6.79484e-06
-0.000154917
6.01404e-06
-0.000160078
5.16138e-06
-0.000164473
4.39516e-06
-0.000168096
3.62258e-06
-0.000170978
2.8824e-06
-0.000173238
2.25948e-06
-0.000174797
1.55947e-06
-0.000175695
8.97288e-07
-0.000175966
2.71884e-07
-0.000175627
-3.39544e-07
-0.000174631
-9.9602e-07
-0.00017304
-1.59078e-06
-0.000170811
-2.22926e-06
-0.000167974
-2.83671e-06
-0.000164526
-3.44792e-06
-0.000160417
-4.1092e-06
-0.000155684
-4.73341e-06
-0.00015018
-5.50375e-06
-0.000144114
-6.06617e-06
-0.000137233
-6.88097e-06
-0.000129583
-7.64984e-06
-0.000121145
-8.43781e-06
-0.000111883
-9.26254e-06
-0.000101783
-1.00999e-05
-9.07926e-05
-1.09904e-05
-7.90747e-05
-1.1718e-05
-6.64499e-05
-1.26248e-05
-5.30233e-05
-1.34267e-05
-3.88175e-05
-1.42058e-05
-2.38698e-05
-1.49478e-05
-8.19159e-06
-1.56783e-05
7.94495e-06
-1.61366e-05
2.46229e-05
-1.66781e-05
4.16492e-05
-1.70264e-05
5.88254e-05
-1.71762e-05
7.59665e-05
-1.71412e-05
9.28798e-05
-1.69134e-05
0.000109338
-1.64579e-05
0.000125102
-1.57643e-05
0.000139938
-1.48357e-05
0.000153544
-1.36067e-05
0.000165724
-1.21801e-05
0.000176195
-1.04707e-05
0.000184773
-8.57851e-06
0.000191177
-6.40352e-06
0.000195275
-4.09871e-06
0.000196933
-1.65743e-06
0.000196143
7.89243e-07
0.000192831
3.31203e-06
0.000187123
5.70866e-06
0.000179154
7.96825e-06
0.000169106
1.00486e-05
0.000157084
1.20218e-05
0.000143416
1.3668e-05
0.000128292
1.51234e-05
0.000111881
1.6411e-05
9.45968e-05
1.72844e-05
7.6599e-05
1.79977e-05
5.82467e-05
1.83523e-05
3.97397e-05
1.85069e-05
2.1358e-05
1.83817e-05
3.27655e-06
1.80814e-05
-1.4279e-05
1.75555e-05
-3.1196e-05
1.69169e-05
-4.73446e-05
1.61486e-05
-6.27218e-05
1.53771e-05
-7.71416e-05
1.44198e-05
-9.06319e-05
1.34904e-05
-0.000103092
1.246e-05
-0.000114564
1.14716e-05
-0.000125099
1.05351e-05
-0.000134646
9.54771e-06
-0.000143264
8.61717e-06
-0.000150976
7.71272e-06
-0.000157876
6.89946e-06
-0.000163965
6.08977e-06
-0.000169283
5.3173e-06
-0.000173814
4.53124e-06
-0.00017757
3.75587e-06
-0.000180674
3.10419e-06
-0.000182997
2.32303e-06
-0.000184618
1.62132e-06
-0.000185584
9.65563e-07
-0.00018597
3.85475e-07
-0.00018582
-1.50002e-07
-0.000185162
-6.57116e-07
-0.000184071
-1.09121e-06
-0.000182456
-1.61487e-06
-0.000180319
-2.13726e-06
-0.000177557
-2.76225e-06
-0.000174107
-3.44974e-06
-0.000169937
-4.17001e-06
-0.000164995
-4.94247e-06
-0.000159276
-5.71883e-06
-0.000152784
-6.49229e-06
-0.000145562
-7.2214e-06
-0.000137555
-8.00721e-06
-0.000128774
-8.7814e-06
-0.00011922
-9.55321e-06
-0.000108895
-1.03252e-05
-9.77597e-05
-1.11357e-05
-8.576e-05
-1.19997e-05
-7.3057e-05
-1.27031e-05
-5.95435e-05
-1.35135e-05
-4.52906e-05
-1.4253e-05
-3.04361e-05
-1.48545e-05
-1.50268e-05
-1.54094e-05
7.91049e-07
-1.58179e-05
1.68689e-05
-1.60779e-05
3.30536e-05
-1.61848e-05
4.91786e-05
-1.6125e-05
6.50896e-05
-1.59111e-05
8.0598e-05
-1.55084e-05
9.54536e-05
-1.48557e-05
0.00010947
-1.40161e-05
0.000122409
-1.29397e-05
0.000134012
-1.16031e-05
0.000144085
-1.00725e-05
0.000152396
-8.31176e-06
0.000158763
-6.36642e-06
0.000163032
-4.26891e-06
0.000165021
-1.98963e-06
0.000164806
2.15076e-07
0.000162339
2.46663e-06
0.000157598
4.74121e-06
0.000150772
6.82602e-06
0.000142051
8.72096e-06
0.000131513
1.05383e-05
0.000119557
1.1956e-05
0.000106461
1.3096e-05
9.24291e-05
1.40315e-05
7.77537e-05
1.46754e-05
6.2767e-05
1.49867e-05
4.74184e-05
1.53485e-05
3.21442e-05
1.52743e-05
1.68475e-05
1.52966e-05
1.74821e-06
1.50993e-05
-1.31194e-05
1.48676e-05
-2.76554e-05
1.4536e-05
-4.16259e-05
1.39705e-05
-5.50422e-05
1.34164e-05
-6.78164e-05
1.27742e-05
-7.97772e-05
1.19608e-05
-9.10003e-05
1.1223e-05
-0.000101349
1.03485e-05
-0.000110821
9.47196e-06
-0.000119457
8.6363e-06
-0.000127191
7.73431e-06
-0.000134062
6.87092e-06
-0.000140149
6.08707e-06
-0.000145454
5.30435e-06
-0.000150023
4.56972e-06
-0.000153953
3.92905e-06
-0.000157263
3.31013e-06
-0.000160048
2.78534e-06
-0.000162338
2.28984e-06
-0.00016417
1.832e-06
-0.000165614
1.44413e-06
-0.000166645
1.0314e-06
-0.000167214
5.68607e-07
-0.000167384
1.70128e-07
-0.000167028
-3.55843e-07
-0.000166108
-9.20099e-07
-0.000164578
-1.53031e-06
-0.000162277
-2.30099e-06
-0.000159206
-3.07082e-06
-0.000155288
-3.91762e-06
-0.000150297
-4.99184e-06
-0.000144324
-5.97253e-06
-0.000137177
-7.14681e-06
-0.000128916
-8.26113e-06
-0.000119536
-9.38052e-06
-0.000108862
-1.06733e-05
-9.70757e-05
-1.17868e-05
-8.43036e-05
-1.27721e-05
-7.02817e-05
-1.40219e-05
-5.53882e-05
-1.48936e-05
-3.95568e-05
-1.58314e-05
-2.29829e-05
-1.6574e-05
-5.95437e-06
-1.70285e-05
1.15588e-05
-1.75132e-05
2.93704e-05
-1.78117e-05
4.71459e-05
-1.77755e-05
6.47901e-05
-1.76443e-05
8.2076e-05
-1.72859e-05
9.86837e-05
-1.66077e-05
0.000114459
-1.57758e-05
0.000129172
-1.47122e-05
0.000142622
-1.34501e-05
0.00015466
-1.20382e-05
0.000165034
-1.03743e-05
0.000173656
-8.62185e-06
0.000180405
-6.7487e-06
0.000185219
-4.81485e-06
0.000188071
-2.85214e-06
0.000188945
-8.73143e-07
0.000187849
1.09532e-06
0.000184739
3.11046e-06
0.000179694
5.04509e-06
0.000172932
6.76164e-06
0.000164473
8.45928e-06
0.000154384
1.00884e-05
0.000142952
1.14323e-05
0.000130158
1.27934e-05
0.000116334
1.3824e-05
0.00010148
1.48541e-05
8.57149e-05
1.57653e-05
6.94143e-05
1.63006e-05
5.25601e-05
1.68542e-05
1.72039e-05
-0.000168775
7.45796e-06
-0.000171718
5.88341e-06
-0.00017397
4.49651e-06
-0.000175542
3.14018e-06
-0.000176447
1.81284e-06
-0.00017669
4.87614e-07
-0.000176182
-1.016e-06
-0.000174958
-2.45028e-06
-0.000173111
-3.69778e-06
-0.000170518
-5.18826e-06
-0.000167127
-6.78044e-06
-0.000163059
-8.13736e-06
-0.000158093
-9.93123e-06
-0.000152402
-1.13798e-05
-0.000145736
-1.33257e-05
-0.000138203
-1.50715e-05
-0.000129881
-1.66472e-05
-0.000120565
-1.86334e-05
-0.000110269
-2.05894e-05
-9.9073e-05
-2.2394e-05
-8.68659e-05
-2.44136e-05
-7.35993e-05
-2.65325e-05
-5.93917e-05
-2.84085e-05
-4.41932e-05
-3.03945e-05
-2.81961e-05
-3.19896e-05
-1.13193e-05
-3.37491e-05
6.28534e-06
-3.52078e-05
2.43567e-05
-3.61356e-05
4.29191e-05
-3.7116e-05
6.18218e-05
-3.77904e-05
8.06702e-05
-3.76864e-05
9.94084e-05
-3.74696e-05
0.000117723
-3.66123e-05
0.000135435
-3.54043e-05
0.000152279
-3.36767e-05
0.000167888
-3.12011e-05
0.000182129
-2.84764e-05
0.000194711
-2.51606e-05
0.000205399
-2.13681e-05
0.000214045
-1.72803e-05
0.000220457
-1.28102e-05
0.000224579
-8.24753e-06
0.000226349
-3.54089e-06
0.000225618
1.45235e-06
0.000222485
6.26541e-06
0.000216988
1.0996e-05
0.000209149
1.567e-05
0.000199331
1.96284e-05
0.000187631
2.33913e-05
0.000174183
2.68859e-05
0.000159296
2.97636e-05
0.000143186
3.22088e-05
0.000126167
3.40261e-05
0.000108367
3.55939e-05
9.00353e-05
3.66551e-05
7.1468e-05
3.71195e-05
5.2882e-05
3.71615e-05
3.44782e-05
3.67981e-05
1.64378e-05
3.60721e-05
-1.14701e-06
3.51624e-05
-1.8096e-05
3.38882e-05
-3.43885e-05
3.25761e-05
-4.98438e-05
3.09033e-05
-6.44452e-05
2.91959e-05
-7.82014e-05
2.75137e-05
-9.10181e-05
2.5621e-05
-0.000102871
2.36989e-05
-0.000113832
2.1918e-05
-0.000123813
1.99597e-05
-0.000132978
1.8331e-05
-0.000141213
1.64693e-05
-0.000148575
1.47197e-05
-0.000155171
1.31893e-05
-0.000160892
1.1444e-05
-0.000165755
9.72988e-06
-0.000169812
8.11403e-06
-0.000173007
6.3904e-06
-0.000175416
4.81594e-06
-0.000177027
3.21815e-06
-0.000177756
1.45496e-06
-0.000177766
3.38657e-08
-0.000176921
-1.68858e-06
-0.000175317
-3.20936e-06
-0.000172829
-4.97024e-06
-0.000169508
-6.64023e-06
-0.00016522
-8.56933e-06
-0.000160095
-1.02528e-05
-0.000154084
-1.20174e-05
-0.000147213
-1.37304e-05
-0.000139497
-1.54191e-05
-0.000131055
-1.68776e-05
-0.000121885
-1.83317e-05
-0.00011213
-1.94975e-05
-0.000101646
-2.09562e-05
-9.0448e-05
-2.23778e-05
-7.85962e-05
-2.37179e-05
-6.59519e-05
-2.52936e-05
-5.25593e-05
-2.67944e-05
-3.84069e-05
-2.83127e-05
-2.3509e-05
-2.97988e-05
-7.91741e-06
-3.11843e-05
8.28084e-06
-3.23866e-05
2.49988e-05
-3.34365e-05
4.21236e-05
-3.42465e-05
5.94945e-05
-3.474e-05
7.69578e-05
-3.49204e-05
9.43385e-05
-3.47442e-05
0.000111447
-3.42082e-05
0.000128067
-3.32281e-05
0.000143964
-3.1787e-05
0.000158968
-2.99956e-05
0.000172848
-2.77589e-05
0.000185336
-2.4971e-05
0.00019627
-2.18605e-05
0.000205443
-1.8341e-05
0.000212619
-1.43461e-05
0.000217713
-1.01865e-05
0.000220557
-5.67947e-06
0.000221086
-1.06562e-06
0.00021928
3.58723e-06
0.000215056
8.42252e-06
0.000208515
1.31097e-05
0.000199721
1.75578e-05
0.000188911
2.15975e-05
0.000176238
2.53229e-05
0.000161832
2.87919e-05
0.000146042
3.15504e-05
0.000129049
3.39631e-05
0.000111165
3.57355e-05
9.26511e-05
3.70016e-05
7.3689e-05
3.7908e-05
5.46165e-05
3.81164e-05
3.55773e-05
3.80642e-05
1.68578e-05
3.74206e-05
-1.40391e-06
3.6521e-05
-1.90268e-05
3.52234e-05
-3.58749e-05
3.3692e-05
-5.18365e-05
3.19126e-05
-6.68122e-05
2.99653e-05
-8.07453e-05
2.78785e-05
-9.36986e-05
2.58646e-05
-0.000105517
2.36362e-05
-0.00011627
2.15043e-05
-0.000125955
1.93757e-05
-0.000134644
1.73813e-05
-0.000142352
1.54257e-05
-0.000149139
1.3581e-05
-0.000155143
1.20185e-05
-0.000160303
1.03215e-05
-0.000164689
8.78074e-06
-0.000168308
7.24151e-06
-0.000171181
5.75594e-06
-0.000173447
4.52478e-06
-0.000175
3.11283e-06
-0.000175886
1.78383e-06
-0.000176157
5.42394e-07
-0.000175798
-6.98333e-07
-0.000174798
-1.99639e-06
-0.000173207
-3.18204e-06
-0.000170972
-4.46358e-06
-0.000168129
-5.67984e-06
-0.000164666
-6.91161e-06
-0.000160564
-8.21056e-06
-0.00015583
-9.46765e-06
-0.000150323
-1.10109e-05
-0.000144263
-1.21262e-05
-0.000137381
-1.37632e-05
-0.000129715
-1.5316e-05
-0.000121265
-1.6888e-05
-0.000112002
-1.85254e-05
-0.000101908
-2.01934e-05
-9.09096e-05
-2.19893e-05
-7.91879e-05
-2.34398e-05
-6.65596e-05
-2.52533e-05
-5.3126e-05
-2.68604e-05
-3.89108e-05
-2.84212e-05
-2.39548e-05
-2.99039e-05
-8.26939e-06
-3.13638e-05
7.88306e-06
-3.22892e-05
2.45693e-05
-3.33644e-05
4.15989e-05
-3.40562e-05
5.87867e-05
-3.43642e-05
7.59428e-05
-3.42973e-05
9.28689e-05
-3.38397e-05
0.000109352
-3.29415e-05
0.000125108
-3.152e-05
0.000139963
-2.9691e-05
0.000153575
-2.72185e-05
0.00016576
-2.43654e-05
0.000176238
-2.09486e-05
0.000184817
-1.71576e-05
0.000191226
-1.28127e-05
0.000195319
-8.19269e-06
0.000196977
-3.31482e-06
0.000196183
1.58259e-06
0.000192837
6.65775e-06
0.00018711
1.14358e-05
0.000179154
1.59243e-05
0.000169067
2.01352e-05
0.00015706
2.40291e-05
0.000143358
2.73697e-05
0.000128167
3.03146e-05
0.000111757
3.2821e-05
9.44483e-05
3.45926e-05
7.64432e-05
3.60028e-05
5.80694e-05
3.6726e-05
3.95527e-05
3.70235e-05
2.11557e-05
3.67787e-05
3.06788e-06
3.61692e-05
-1.45035e-05
3.51269e-05
-3.14275e-05
3.38409e-05
-4.7583e-05
3.2304e-05
-6.29618e-05
3.07559e-05
-7.73917e-05
2.88496e-05
-9.08652e-05
2.69638e-05
-0.000103321
2.49161e-05
-0.000114776
2.29258e-05
-0.000125314
2.10736e-05
-0.00013485
1.90839e-05
-0.000143454
1.72211e-05
-0.000151197
1.54558e-05
-0.000158089
1.37908e-05
-0.000164162
1.21629e-05
-0.000169463
1.06184e-05
-0.000173996
9.06385e-06
-0.000177774
7.534e-06
-0.000180854
6.18412e-06
-0.000183173
4.64196e-06
-0.000184784
3.23309e-06
-0.000185731
1.9124e-06
-0.000186119
7.73565e-07
-0.000185964
-3.05087e-07
-0.000185315
-1.30636e-06
-0.00018422
-2.18625e-06
-0.000182604
-3.23123e-06
-0.000180455
-4.28609e-06
-0.000177703
-5.51419e-06
-0.000174254
-6.89918e-06
-0.000170073
-8.35097e-06
-0.000165145
-9.86982e-06
-0.000159427
-1.14371e-05
-0.000152908
-1.30117e-05
-0.000145708
-1.44208e-05
-0.000137707
-1.60088e-05
-0.00012893
-1.75587e-05
-0.00011938
-1.91032e-05
-0.000109051
-2.06536e-05
-9.79133e-05
-2.22739e-05
-8.59065e-05
-2.40066e-05
-7.31982e-05
-2.54114e-05
-5.96689e-05
-2.7043e-05
-4.54027e-05
-2.85192e-05
-3.05295e-05
-2.97278e-05
-1.51042e-05
-3.08348e-05
7.2288e-07
-3.16451e-05
1.6808e-05
-3.21631e-05
3.30097e-05
-3.23866e-05
4.91571e-05
-3.22725e-05
6.50826e-05
-3.18368e-05
8.06031e-05
-3.1029e-05
9.54695e-05
-2.97222e-05
0.000109502
-2.80489e-05
0.000122455
-2.58922e-05
0.000134078
-2.32263e-05
0.000144159
-2.01541e-05
0.000152484
-1.66371e-05
0.000158864
-1.27459e-05
0.000163142
-8.54666e-06
0.000165131
-3.97901e-06
0.000164913
4.32998e-07
0.000162438
4.9409e-06
0.000157693
9.48629e-06
0.000150861
1.36583e-05
0.00014214
1.74422e-05
0.000131586
2.1092e-05
0.000119615
2.39267e-05
0.00010651
2.6201e-05
9.24634e-05
2.80782e-05
7.77894e-05
2.93492e-05
6.27798e-05
2.99964e-05
4.74277e-05
3.07005e-05
3.21478e-05
3.05542e-05
1.68431e-05
3.06012e-05
1.73889e-06
3.02035e-05
-1.31373e-05
2.97438e-05
-2.76786e-05
2.90773e-05
-4.16561e-05
2.79479e-05
-5.50761e-05
2.68364e-05
-6.78548e-05
2.55529e-05
-7.98197e-05
2.39257e-05
-9.10437e-05
2.24471e-05
-0.000101396
2.07004e-05
-0.000110867
1.89432e-05
-0.000119504
1.7273e-05
-0.000127238
1.54692e-05
-0.000134111
1.37438e-05
-0.000140199
1.21747e-05
-0.000145498
1.06034e-05
-0.000150069
9.14097e-06
-0.000153998
7.85783e-06
-0.000157306
6.61857e-06
-0.000160091
5.56965e-06
-0.000162382
4.58138e-06
-0.000164221
3.67062e-06
-0.000165656
2.87884e-06
-0.000166683
2.05904e-06
-0.000167262
1.14725e-06
-0.000167432
3.40651e-07
-0.000167072
-7.16452e-07
-0.000166156
-1.83605e-06
-0.00016463
-3.05604e-06
-0.000162333
-4.59814e-06
-0.000159266
-6.13831e-06
-0.000155352
-7.8314e-06
-0.000150362
-9.98192e-06
-0.00014439
-1.1944e-05
-0.000137243
-1.42947e-05
-0.000128978
-1.65252e-05
-0.000119601
-1.87577e-05
-0.000108925
-2.13494e-05
-9.71372e-05
-2.35749e-05
-8.43704e-05
-2.5539e-05
-7.03335e-05
-2.80588e-05
-5.54323e-05
-2.97949e-05
-3.95929e-05
-3.16709e-05
-2.30106e-05
-3.31563e-05
-5.9738e-06
-3.40654e-05
1.15438e-05
-3.50308e-05
2.93643e-05
-3.56323e-05
4.71503e-05
-3.55616e-05
6.48058e-05
-3.52998e-05
8.21037e-05
-3.45839e-05
9.87235e-05
-3.32275e-05
0.000114511
-3.15633e-05
0.000129233
-2.94348e-05
0.000142692
-2.69091e-05
0.000154739
-2.40852e-05
0.000165121
-2.07555e-05
0.000173748
-1.72498e-05
0.000180504
-1.35048e-05
0.000185327
-9.63713e-06
0.000188186
-5.71157e-06
0.000189057
-1.74419e-06
0.000187947
2.2057e-06
0.000184832
6.22471e-06
0.000179784
1.00937e-05
0.000173017
1.35281e-05
0.000164551
1.69249e-05
0.000154455
2.01848e-05
0.000143015
2.28725e-05
0.000130212
2.55958e-05
0.00011638
2.76565e-05
0.000101517
2.97169e-05
8.57426e-05
3.15394e-05
6.94337e-05
3.26095e-05
5.2571e-05
3.37167e-05
3.44162e-05
-0.000168836
1.11917e-05
-0.000171781
8.82834e-06
-0.000174034
6.74941e-06
-0.000175611
4.71726e-06
-0.000176516
2.71832e-06
-0.00017675
7.21201e-07
-0.000176237
-1.52866e-06
-0.000175014
-3.67365e-06
-0.000173172
-5.53919e-06
-0.000170581
-7.77993e-06
-0.000167181
-1.01803e-05
-0.000163112
-1.22063e-05
-0.000158153
-1.48906e-05
-0.000152462
-1.70708e-05
-0.000145796
-1.9992e-05
-0.000138269
-2.25986e-05
-0.000129948
-2.49673e-05
-0.000120636
-2.79463e-05
-0.000110345
-3.08796e-05
-9.91492e-05
-3.35904e-05
-8.69449e-05
-3.66179e-05
-7.36805e-05
-3.9797e-05
-5.94614e-05
-4.26277e-05
-4.42602e-05
-4.55958e-05
-2.8257e-05
-4.79929e-05
-1.13715e-05
-5.06347e-05
6.24613e-06
-5.28256e-05
2.43346e-05
-5.42241e-05
4.29139e-05
-5.56954e-05
6.18281e-05
-5.67048e-05
8.06902e-05
-5.65486e-05
9.94474e-05
-5.62269e-05
0.00011778
-5.49455e-05
0.000135512
-5.31358e-05
0.000152377
-5.05415e-05
0.000168009
-4.6834e-05
0.000182273
-4.27399e-05
0.000194875
-3.77627e-05
0.000205577
-3.20703e-05
0.000214235
-2.5939e-05
0.00022065
-1.92251e-05
0.000224773
-1.23703e-05
0.00022655
-5.31802e-06
0.000225795
2.20661e-06
0.000222659
9.4019e-06
0.000217163
1.64921e-05
0.000209318
2.35148e-05
0.00019948
2.94657e-05
0.000187764
3.51071e-05
0.000174298
4.03518e-05
0.000159392
4.467e-05
0.000143262
4.83393e-05
0.000126221
5.10667e-05
0.000108409
5.34059e-05
9.00754e-05
5.49884e-05
7.14742e-05
5.57207e-05
5.28693e-05
5.57664e-05
3.44491e-05
5.52183e-05
1.63937e-05
5.41275e-05
-1.19703e-06
5.27531e-05
-1.81551e-05
5.08463e-05
-3.44557e-05
4.88766e-05
-4.99182e-05
4.63658e-05
-6.45231e-05
4.38008e-05
-7.82832e-05
4.12738e-05
-9.11043e-05
3.8442e-05
-0.000102953
3.55477e-05
-0.000113911
3.28757e-05
-0.000123892
2.99407e-05
-0.000133057
2.74964e-05
-0.000141292
2.4704e-05
-0.000148661
2.20888e-05
-0.000155255
1.97835e-05
-0.000160981
1.71696e-05
-0.000165846
1.45947e-05
-0.000169906
1.21744e-05
-0.000173098
9.58197e-06
-0.000175505
7.22308e-06
-0.00017711
4.82334e-06
-0.00017784
2.1849e-06
-0.000177844
3.74394e-08
-0.000177
-2.53189e-06
-0.000175396
-4.81381e-06
-0.000172902
-7.46405e-06
-0.000169583
-9.95904e-06
-0.000165306
-1.28466e-05
-0.000160195
-1.53638e-05
-0.000154167
-1.80451e-05
-0.00014729
-2.0608e-05
-0.000139572
-2.31369e-05
-0.000131131
-2.53189e-05
-0.000121951
-2.75117e-05
-0.000112205
-2.92436e-05
-0.000101728
-3.14331e-05
-9.05515e-05
-3.35542e-05
-7.86943e-05
-3.55751e-05
-6.60652e-05
-3.79229e-05
-5.26832e-05
-4.01764e-05
-3.85387e-05
-4.24573e-05
-2.36458e-05
-4.46919e-05
-8.01016e-06
-4.68201e-05
8.14965e-06
-4.85465e-05
2.48833e-05
-5.01703e-05
4.20151e-05
-5.13785e-05
5.93918e-05
-5.21168e-05
7.68652e-05
-5.23939e-05
9.42447e-05
-5.21239e-05
0.000111359
-5.13229e-05
0.00012799
-4.98591e-05
0.000143904
-4.77015e-05
0.00015893
-4.50214e-05
0.000172815
-4.16437e-05
0.000185342
-3.74979e-05
0.000196287
-3.28056e-05
0.00020548
-2.7535e-05
0.000212667
-2.15331e-05
0.000217765
-1.52845e-05
0.000220637
-8.55119e-06
0.000221131
-1.56002e-06
0.000219302
5.41588e-06
0.00021509
1.26351e-05
0.000208536
1.96631e-05
0.000199737
2.63574e-05
0.000188896
3.24383e-05
0.000176166
3.80522e-05
0.000161767
4.31915e-05
0.000145987
4.733e-05
0.000128946
5.10044e-05
0.000111022
5.36587e-05
9.24502e-05
5.55736e-05
7.34925e-05
5.68656e-05
5.43823e-05
5.72265e-05
3.53225e-05
5.7124e-05
1.65821e-05
5.61609e-05
-1.68818e-06
5.47913e-05
-1.933e-05
5.28652e-05
-3.61728e-05
5.05347e-05
-5.21356e-05
4.78754e-05
-6.70947e-05
4.49243e-05
-8.10977e-05
4.18815e-05
-9.40202e-05
3.87871e-05
-0.000105825
3.54413e-05
-0.000116583
3.22622e-05
-0.000126263
2.90552e-05
-0.000134952
2.60701e-05
-0.00014266
2.31339e-05
-0.000149494
2.04148e-05
-0.00015544
1.79654e-05
-0.000160603
1.54836e-05
-0.000164981
1.31588e-05
-0.0001686
1.08606e-05
-0.000171509
8.66553e-06
-0.000173739
6.75426e-06
-0.00017529
4.66402e-06
-0.000176166
2.65956e-06
-0.000176423
7.999e-07
-0.000176063
-1.05883e-06
-0.00017507
-2.98938e-06
-0.000173468
-4.78397e-06
-0.00017125
-6.68137e-06
-0.000168411
-8.51867e-06
-0.000164892
-1.04309e-05
-0.000160848
-1.22543e-05
-0.000156121
-1.41953e-05
-0.000150659
-1.64725e-05
-0.00014454
-1.82453e-05
-0.00013765
-2.06538e-05
-0.000129986
-2.29798e-05
-0.000121544
-2.53303e-05
-0.000112288
-2.77808e-05
-0.000102197
-3.0285e-05
-9.12538e-05
-3.29325e-05
-7.94714e-05
-3.52222e-05
-6.68366e-05
-3.78883e-05
-5.33772e-05
-4.03199e-05
-3.91652e-05
-4.26333e-05
-2.41777e-05
-4.48916e-05
-8.56975e-06
-4.69719e-05
7.65346e-06
-4.85126e-05
2.43588e-05
-5.00699e-05
4.14148e-05
-5.11123e-05
5.8626e-05
-5.15756e-05
7.57968e-05
-5.14683e-05
9.27406e-05
-5.07836e-05
0.00010922
-4.94208e-05
0.000125016
-4.73159e-05
0.000139887
-4.45624e-05
0.000153524
-4.08558e-05
0.000165731
-3.65726e-05
0.000176225
-3.14433e-05
0.000184816
-2.57483e-05
0.00019125
-1.92466e-05
0.000195345
-1.22879e-05
0.000197007
-4.97694e-06
0.000196204
2.38591e-06
0.000192821
1.004e-05
0.000187081
1.71761e-05
0.000179084
2.39208e-05
0.000168993
3.02263e-05
0.000156955
3.6067e-05
0.000143225
4.10991e-05
0.000128033
4.55066e-05
0.000111614
4.92401e-05
9.42773e-05
5.19295e-05
7.6259e-05
5.4021e-05
5.78603e-05
5.51247e-05
3.93251e-05
5.55586e-05
2.09122e-05
5.51916e-05
2.81657e-06
5.42648e-05
-1.47811e-05
5.27245e-05
-3.17202e-05
5.07799e-05
-4.79223e-05
4.85062e-05
-6.32605e-05
4.60941e-05
-7.76937e-05
4.32827e-05
-9.11615e-05
4.04316e-05
-0.000103623
3.73778e-05
-0.000115108
3.44102e-05
-0.000125617
3.15835e-05
-0.000135145
2.8611e-05
-0.000143709
2.57851e-05
-0.00015149
2.32375e-05
-0.000158371
2.06713e-05
-0.000164442
1.82344e-05
-0.000169744
1.59201e-05
-0.000174273
1.35928e-05
-0.000178079
1.13403e-05
-0.000181136
9.24045e-06
-0.000183462
6.96823e-06
-0.000185068
4.839e-06
-0.000185963
2.80807e-06
-0.000186387
1.19723e-06
-0.000186228
-4.64697e-07
-0.000185584
-1.94969e-06
-0.000184483
-3.28729e-06
-0.000182863
-4.851e-06
-0.000180717
-6.43304e-06
-0.000177983
-8.24736e-06
-0.000174531
-1.03512e-05
-0.000170307
-1.25758e-05
-0.000165429
-1.47479e-05
-0.000159715
-1.71504e-05
-0.0001532
-1.95272e-05
-0.000146007
-2.1614e-05
-0.000138006
-2.40098e-05
-0.000129217
-2.6347e-05
-0.000119668
-2.86523e-05
-0.000109341
-3.09812e-05
-9.81915e-05
-3.34231e-05
-8.6217e-05
-3.59812e-05
-7.34629e-05
-3.81656e-05
-5.99123e-05
-4.05936e-05
-4.56339e-05
-4.27977e-05
-3.07287e-05
-4.46331e-05
-1.52857e-05
-4.6278e-05
5.63994e-07
-4.74949e-05
1.66765e-05
-4.82758e-05
3.29079e-05
-4.86181e-05
4.90804e-05
-4.8445e-05
6.50392e-05
-4.77957e-05
8.05629e-05
-4.65529e-05
9.54604e-05
-4.46198e-05
0.000109523
-4.21117e-05
0.000122489
-3.88583e-05
0.000134142
-3.48793e-05
0.000144253
-3.0265e-05
0.000152597
-2.49814e-05
0.000158992
-1.91411e-05
0.000163297
-1.28512e-05
0.000165289
-5.97156e-06
0.000165065
6.57154e-07
0.00016258
7.42599e-06
0.000157835
1.42306e-05
0.000150987
2.05065e-05
0.000142264
2.61653e-05
0.000131688
3.16678e-05
0.000119695
3.592e-05
0.000106572
3.93232e-05
9.25e-05
4.21505e-05
7.78386e-05
4.40105e-05
6.27757e-05
4.50592e-05
4.74211e-05
4.60551e-05
3.21336e-05
4.58416e-05
1.68144e-05
4.59204e-05
1.70738e-06
4.53105e-05
-1.31742e-05
4.46253e-05
-2.7723e-05
4.36261e-05
-4.17095e-05
4.19344e-05
-5.51299e-05
4.02567e-05
-6.79138e-05
3.83367e-05
-7.98824e-05
3.58943e-05
-9.11061e-05
3.36708e-05
-0.000101463
3.1057e-05
-0.000110932
2.84127e-05
-0.000119571
2.59114e-05
-0.000127304
2.32021e-05
-0.000134175
2.06156e-05
-0.000140261
1.82602e-05
-0.000145549
1.58916e-05
-0.000150123
1.37147e-05
-0.000154046
1.17812e-05
-0.000157352
9.92428e-06
-0.000160135
8.35299e-06
-0.000162431
6.8767e-06
-0.000164283
5.5234e-06
-0.000165702
4.29735e-06
-0.000166726
3.08352e-06
-0.000167303
1.72379e-06
-0.00016747
5.07929e-07
-0.000167112
-1.0743e-06
-0.000166204
-2.74471e-06
-0.000164686
-4.5735e-06
-0.000162397
-6.88732e-06
-0.000159338
-9.19786e-06
-0.000155431
-1.17378e-05
-0.000150447
-1.49666e-05
-0.000144478
-1.79122e-05
-0.000137331
-2.1442e-05
-0.000129069
-2.47876e-05
-0.000119697
-2.81295e-05
-0.000109017
-3.20298e-05
-9.7231e-05
-3.53606e-05
-8.4465e-05
-3.83051e-05
-7.04146e-05
-4.21092e-05
-5.55017e-05
-4.47078e-05
-3.96513e-05
-4.75214e-05
-2.30562e-05
-4.97515e-05
-6.00528e-06
-5.11164e-05
1.15322e-05
-5.25684e-05
2.93718e-05
-5.3472e-05
4.71797e-05
-5.33696e-05
6.48576e-05
-5.29777e-05
8.21771e-05
-5.19035e-05
9.88154e-05
-4.98659e-05
0.000114619
-4.73671e-05
0.000129355
-4.41703e-05
0.00014283
-4.03851e-05
0.0001549
-3.61544e-05
0.000165299
-3.11555e-05
0.000173937
-2.58871e-05
0.0001807
-2.02681e-05
0.000185518
-1.44553e-05
0.000188369
-8.56284e-06
0.000189236
-2.61092e-06
0.000188101
3.34088e-06
0.000184981
9.34436e-06
0.000179924
1.51511e-05
0.000173149
2.0303e-05
0.000164674
2.53996e-05
0.000154568
3.02906e-05
0.000143116
3.43249e-05
0.000130301
3.84105e-05
0.000116456
4.15017e-05
0.00010158
4.45929e-05
8.57918e-05
4.73271e-05
6.94689e-05
4.89324e-05
5.25915e-05
5.05941e-05
5.16438e-05
-0.000168925
1.49266e-05
-0.000171877
1.17809e-05
-0.000174136
9.0083e-06
-0.000175717
6.29803e-06
-0.00017662
3.62103e-06
-0.00017684
9.4138e-07
-0.000176319
-2.04947e-06
-0.000175097
-4.89547e-06
-0.000173268
-7.36815e-06
-0.000170676
-1.03722e-05
-0.000167264
-1.35928e-05
-0.000163195
-1.62749e-05
-0.000158247
-1.98391e-05
-0.000152552
-2.27655e-05
-0.000145878
-2.66662e-05
-0.000138365
-3.0111e-05
-0.00013005
-3.32831e-05
-0.00012074
-3.72556e-05
-0.000110459
-4.11607e-05
-9.92639e-05
-4.47859e-05
-8.70636e-05
-4.88183e-05
-7.38035e-05
-5.30572e-05
-5.9566e-05
-5.68653e-05
-4.43606e-05
-6.08012e-05
-2.83476e-05
-6.4006e-05
-1.14491e-05
-6.75333e-05
6.18829e-06
-7.04631e-05
2.42984e-05
-7.23343e-05
4.28999e-05
-7.42971e-05
6.18396e-05
-7.56445e-05
8.07282e-05
-7.54373e-05
9.95145e-05
-7.50134e-05
0.000117876
-7.3307e-05
0.000135638
-7.08984e-05
0.000152533
-6.74365e-05
0.000168193
-6.24935e-05
0.000182493
-5.70399e-05
0.000195117
-5.03874e-05
0.000205837
-4.27906e-05
0.000214519
-3.4621e-05
0.000220941
-2.56469e-05
0.000225069
-1.64981e-05
0.000226846
-7.09494e-06
0.000226061
2.99069e-06
0.000222923
1.25398e-05
0.000217425
2.19902e-05
0.000209572
3.13675e-05
0.000199705
3.93334e-05
0.000187965
4.6847e-05
0.000174472
5.38447e-05
0.000159536
5.96056e-05
0.000143375
6.45004e-05
0.000126301
6.81409e-05
0.000108471
7.12356e-05
9.01394e-05
7.33197e-05
7.14841e-05
7.4376e-05
5.285e-05
7.44005e-05
3.44056e-05
7.36626e-05
1.63279e-05
7.22052e-05
-1.27283e-06
7.03538e-05
-1.8246e-05
6.78195e-05
-3.45597e-05
6.51903e-05
-5.00323e-05
6.18384e-05
-6.46417e-05
5.84101e-05
-7.84045e-05
5.50366e-05
-9.12309e-05
5.12684e-05
-0.000103079
4.73962e-05
-0.000114036
4.38318e-05
-0.000124017
3.99224e-05
-0.000133183
3.66625e-05
-0.00014142
3.29405e-05
-0.000148797
2.94657e-05
-0.00015539
2.63772e-05
-0.000161116
2.28951e-05
-0.000165979
1.94582e-05
-0.000170046
1.62413e-05
-0.000173229
1.27645e-05
-0.000175645
9.63956e-06
-0.000177244
6.42185e-06
-0.000177974
2.91458e-06
-0.000177962
2.63339e-08
-0.000177116
-3.37878e-06
-0.000175516
-6.41327e-06
-0.000173027
-9.95331e-06
-0.00016971
-1.32762e-05
-0.000165443
-1.71136e-05
-0.000160347
-2.04594e-05
-0.000154313
-2.4079e-05
-0.000147433
-2.7488e-05
-0.000139717
-3.08535e-05
-0.000131278
-3.37581e-05
-0.000122098
-3.66913e-05
-0.000112365
-3.89773e-05
-0.000101904
-4.18935e-05
-9.07647e-05
-4.46939e-05
-7.89028e-05
-4.74371e-05
-6.62925e-05
-5.05333e-05
-5.29293e-05
-5.35397e-05
-3.88004e-05
-5.65864e-05
-2.39098e-05
-5.95825e-05
-8.27774e-06
-6.24523e-05
7.89369e-06