/*--------------------------------*- C++ -*----------------------------------*\
| =========                 |                                                 |
| \\      /  F ield         | OpenFOAM: The Open Source CFD Toolbox           |
|  \\    /   O peration     | Version:  3.0.1                                 |
|   \\  /    A nd           | Web:      www.OpenFOAM.org                      |
|    \\/     M anipulation  |                                                 |
\*---------------------------------------------------------------------------*/
FoamFile
{
    version     2.0;
    format      ascii;
    class       volVectorField;
    location    "8.8";
    object      U;
}
// * * * * * * * * * * * * * * * * * * * * * * * * * * * * * * * * * * * * * //

dimensions      [0 1 -1 0 0 0 0];

internalField   nonuniform List<vector> 
21420
(
(0.218614 -0.0011188 0)
(0.226943 -0.000915871 0)
(0.235005 -0.000682036 0)
(0.240699 -0.000434907 0)
(0.243903 -0.000176902 0)
(0.244429 7.26847e-05 0)
(0.242455 0.000326285 0)
(0.237729 0.00058904 0)
(0.230526 0.00084059 0)
(0.220894 0.0010676 0)
(0.208994 0.00128801 0)
(0.195014 0.00149238 0)
(0.179187 0.00164681 0)
(0.161777 0.00180083 0)
(0.143067 0.00189504 0)
(0.123366 0.00199133 0)
(0.102972 0.00205927 0)
(0.082207 0.00206206 0)
(0.061411 0.00206912 0)
(0.0409907 0.0020475 0)
(0.0218188 0.00197377 0)
(0.00254362 0.00191445 0)
(-0.0169547 0.00181199 0)
(-0.0348365 0.00168283 0)
(-0.051287 0.00155674 0)
(-0.0662983 0.00140876 0)
(-0.0798156 0.00126364 0)
(-0.0918009 0.00111129 0)
(-0.102218 0.00095165 0)
(-0.111052 0.000795953 0)
(-0.11829 0.000641565 0)
(-0.12391 0.000489248 0)
(-0.127931 0.00033579 0)
(-0.130333 0.000184619 0)
(-0.131267 4.21073e-05 0)
(-0.130621 -8.67804e-05 0)
(-0.128541 -0.000206535 0)
(-0.125155 -0.000318663 0)
(-0.120623 -0.000420546 0)
(-0.11519 -0.000511719 0)
(-0.109086 -0.00058597 0)
(-0.102477 -0.000650022 0)
(-0.0955171 -0.000695337 0)
(-0.0883733 -0.000728001 0)
(-0.0811392 -0.000752595 0)
(-0.0739351 -0.000758787 0)
(-0.0669009 -0.000754927 0)
(-0.0600675 -0.000747183 0)
(-0.0534893 -0.000726133 0)
(-0.0472692 -0.000699683 0)
(-0.0413419 -0.000675146 0)
(-0.0356551 -0.000644706 0)
(-0.0301291 -0.000617892 0)
(-0.0246539 -0.000590154 0)
(-0.019317 -0.000562351 0)
(-0.0141787 -0.00053915 0)
(-0.00950511 -0.000516536 0)
(-0.00538467 -0.00050254 0)
(0.0002357 -0.00047762 0)
(0.00669168 -0.000450185 0)
(0.0117417 -0.00043028 0)
(0.0158278 -0.000415574 0)
(0.019454 -0.000403313 0)
(0.0231092 -0.000391506 0)
(0.0268405 -0.000378085 0)
(0.0305303 -0.000362321 0)
(0.0341141 -0.000344319 0)
(0.0375486 -0.00032301 0)
(0.0407844 -0.00029866 0)
(0.043792 -0.000271336 0)
(0.0465245 -0.000240083 0)
(0.0489509 -0.000205925 0)
(0.0510439 -0.000168359 0)
(0.0527866 -0.000130012 0)
(0.0541525 -8.77615e-05 0)
(0.0551344 -4.47762e-05 0)
(0.055707 -2.20985e-06 0)
(0.0558348 3.71946e-05 0)
(0.0555092 7.83078e-05 0)
(0.054735 0.000116973 0)
(0.0535342 0.000152976 0)
(0.0519508 0.000182091 0)
(0.0499877 0.000209312 0)
(0.0477189 0.000233098 0)
(0.0452162 0.000251506 0)
(0.0425344 0.000266266 0)
(0.0397157 0.000277673 0)
(0.0368162 0.000285784 0)
(0.0338381 0.000287196 0)
(0.0308733 0.000289396 0)
(0.0279473 0.000287828 0)
(0.0250462 0.000280986 0)
(0.0221949 0.000276928 0)
(0.0194503 0.000267679 0)
(0.0168009 0.000257722 0)
(0.0142244 0.00024857 0)
(0.0117759 0.000239885 0)
(0.00938467 0.000229381 0)
(0.00711198 0.000221497 0)
(0.00492986 0.000213665 0)
(0.00280997 0.000206161 0)
(0.000744985 0.000200744 0)
(-0.00122889 0.000195036 0)
(-0.0031653 0.000190483 0)
(-0.00506419 0.000185212 0)
(-0.00692794 0.000180896 0)
(-0.00872717 0.000175724 0)
(-0.0104405 0.000168722 0)
(-0.0121042 0.000160152 0)
(-0.0136639 0.000148941 0)
(-0.015102 0.000136487 0)
(-0.0163757 0.000119554 0)
(-0.0174968 0.000100833 0)
(-0.0184068 8.0281e-05 0)
(-0.0191018 5.76396e-05 0)
(-0.0195662 3.40972e-05 0)
(-0.0197918 1.14414e-05 0)
(-0.0197938 -1.20923e-05 0)
(-0.0195668 -3.41699e-05 0)
(-0.019119 -5.41662e-05 0)
(-0.0184717 -7.40398e-05 0)
(-0.0176314 -9.19634e-05 0)
(-0.0166226 -0.000108493 0)
(-0.0154562 -0.000123969 0)
(-0.0141302 -0.000139076 0)
(-0.0126576 -0.000153024 0)
(-0.0110376 -0.00016781 0)
(-0.00926682 -0.000182306 0)
(-0.00734764 -0.000198558 0)
(-0.00527865 -0.000214696 0)
(-0.00302986 -0.000229841 0)
(-0.00061345 -0.000247054 0)
(0.00196778 -0.000263961 0)
(0.00472013 -0.000280765 0)
(0.00763345 -0.00029709 0)
(0.0107086 -0.000312586 0)
(0.0139241 -0.000325775 0)
(0.0172727 -0.000336657 0)
(0.0207221 -0.000346151 0)
(0.0242392 -0.000351512 0)
(0.0277958 -0.000353443 0)
(0.0313448 -0.000351119 0)
(0.0348519 -0.000343689 0)
(0.0382586 -0.000331872 0)
(0.0415192 -0.000314517 0)
(0.0445779 -0.000291273 0)
(0.0473718 -0.000263492 0)
(0.0498575 -0.000229107 0)
(0.0519745 -0.000190932 0)
(0.0536785 -0.000147378 0)
(0.0549277 -9.97913e-05 0)
(0.0556809 -4.9551e-05 0)
(0.055916 3.16942e-06 0)
(0.0556068 5.74027e-05 0)
(0.0547426 0.000112884 0)
(0.0533323 0.000167524 0)
(0.0513703 0.000220776 0)
(0.0488838 0.00027185 0)
(0.0459001 0.000319762 0)
(0.0424519 0.000364173 0)
(0.0385785 0.000403185 0)
(0.0343373 0.000437765 0)
(0.0297766 0.00046628 0)
(0.0249602 0.000488458 0)
(0.019951 0.000504935 0)
(0.0148074 0.00051485 0)
(0.00959715 0.000518667 0)
(0.00437548 0.000516454 0)
(-0.000794399 0.000508622 0)
(-0.00585728 0.000495796 0)
(-0.0107663 0.000477703 0)
(-0.0154699 0.000455642 0)
(-0.0199345 0.000429357 0)
(-0.0241158 0.000400288 0)
(-0.027987 0.000367946 0)
(-0.031523 0.000332998 0)
(-0.0346991 0.000297087 0)
(-0.0375012 0.00025935 0)
(-0.0399195 0.000220511 0)
(-0.0419456 0.000181017 0)
(-0.0435729 0.000141894 0)
(-0.0448025 0.000102648 0)
(-0.0456404 6.37906e-05 0)
(-0.046093 2.65213e-05 0)
(-0.0461745 -1.05862e-05 0)
(-0.0458879 -4.58462e-05 0)
(-0.0452515 -8.00055e-05 0)
(-0.0442801 -0.000112706 0)
(-0.0429875 -0.000143204 0)
(-0.041396 -0.000172382 0)
(-0.0395208 -0.000199547 0)
(-0.0373806 -0.000224811 0)
(-0.0350003 -0.000247337 0)
(-0.0323981 -0.000268481 0)
(-0.0295967 -0.000286939 0)
(-0.0266193 -0.000303254 0)
(-0.0234902 -0.000317338 0)
(-0.0202331 -0.000328821 0)
(-0.0168685 -0.000338037 0)
(-0.0134265 -0.000345051 0)
(-0.00992615 -0.000349033 0)
(-0.00639227 -0.000351098 0)
(-0.00285436 -0.000350824 0)
(0.000669577 -0.000348245 0)
(0.00415657 -0.000343088 0)
(0.00758237 -0.000335893 0)
(0.0109243 -0.000326991 0)
(0.0141664 -0.000315823 0)
(0.017285 -0.000303168 0)
(0.0202673 -0.000288327 0)
(0.0230963 -0.000272274 0)
(0.0257554 -0.000254884 0)
(0.0282323 -0.00023641 0)
(0.0305179 -0.000216868 0)
(0.0326012 -0.000196772 0)
(0.0344787 -0.000175536 0)
(0.0361438 -0.000154246 0)
(0.0375907 -0.000132646 0)
(0.0388196 -0.000111136 0)
(0.039832 -8.96864e-05 0)
(0.0406284 -6.86233e-05 0)
(0.0412149 -4.80267e-05 0)
(0.0415979 -2.77344e-05 0)
(0.0417816 -8.70573e-06 0)
(0.0417761 9.54547e-06 0)
(0.04159 2.70046e-05 0)
(0.041234 4.33874e-05 0)
(0.0407198 5.85487e-05 0)
(0.0400585 7.25715e-05 0)
(0.0392631 8.54605e-05 0)
(0.0383456 9.67905e-05 0)
(0.037318 0.000106992 0)
(0.0361929 0.000115875 0)
(0.0349837 0.000123778 0)
(0.0337051 0.000129982 0)
(0.0323685 0.000135161 0)
(0.0309848 0.000139099 0)
(0.0295656 0.000142115 0)
(0.0281252 0.000143764 0)
(0.0266706 0.000144462 0)
(0.0252131 0.000144552 0)
(0.0237619 0.000143262 0)
(0.0223245 0.000141766 0)
(0.0209093 0.000138953 0)
(0.0195222 0.00013611 0)
(0.0181698 0.000132151 0)
(0.0168569 0.000128224 0)
(0.0155874 0.000123443 0)
(0.0143661 0.00011876 0)
(0.0131964 0.000113545 0)
(0.0120783 0.000108072 0)
(0.0110161 0.000102664 0)
(0.0100083 9.70153e-05 0)
(0.00905825 9.14029e-05 0)
(0.00816558 8.56916e-05 0)
(0.00732814 8.0286e-05 0)
(0.00654801 7.46276e-05 0)
(0.00582296 6.92059e-05 0)
(0.00515099 6.38639e-05 0)
(0.0045312 5.88744e-05 0)
(0.00396283 5.39714e-05 0)
(0.00344361 4.91493e-05 0)
(0.00297074 4.459e-05 0)
(0.00254217 4.01875e-05 0)
(0.00215669 3.61615e-05 0)
(0.00181169 3.23044e-05 0)
(0.00150454 2.8613e-05 0)
(0.00123301 2.51792e-05 0)
(0.000994805 2.19692e-05 0)
(0.000787355 1.90071e-05 0)
(0.000609044 1.6314e-05 0)
(0.00045778 1.37872e-05 0)
(0.0003299 1.14919e-05 0)
(0.000224826 9.3781e-06 0)
(0.000139578 7.48609e-06 0)
(7.17454e-05 5.81361e-06 0)
(2.16849e-05 4.42064e-06 0)
(-1.43768e-05 3.10759e-06 0)
(-3.94472e-05 1.9787e-06 0)
(-5.39226e-05 9.9514e-07 0)
(-5.94257e-05 1.65323e-07 0)
(-5.72718e-05 -5.02588e-07 0)
(-4.86413e-05 -1.04739e-06 0)
(-3.5111e-05 -1.47992e-06 0)
(-1.75316e-05 -1.78301e-06 0)
(1.65713e-06 -1.9881e-06 0)
(2.16038e-05 -2.10383e-06 0)
(4.28399e-05 -2.13818e-06 0)
(6.39845e-05 -2.10307e-06 0)
(8.43818e-05 -2.00675e-06 0)
(0.000103459 -1.86079e-06 0)
(0.000120748 -1.67295e-06 0)
(0.000135901 -1.45584e-06 0)
(0.000148662 -1.21708e-06 0)
(0.000158882 -9.67334e-07 0)
(0.000166497 -7.15526e-07 0)
(0.000171539 -4.67443e-07 0)
(0.00017412 -2.32093e-07 0)
(0.000174427 -9.29733e-09 0)
(0.000172611 1.9255e-07 0)
(0.000168845 3.72666e-07 0)
(0.0001634 5.28867e-07 0)
(0.000156532 6.59957e-07 0)
(0.000148509 7.6547e-07 0)
(0.000139595 8.45641e-07 0)
(0.000130047 9.01371e-07 0)
(0.000120108 9.34153e-07 0)
(0.000110002 9.45974e-07 0)
(9.99308e-05 9.39201e-07 0)
(9.00676e-05 9.16461e-07 0)
(8.05584e-05 8.80516e-07 0)
(7.15198e-05 8.34146e-07 0)
(6.30402e-05 7.80049e-07 0)
(5.51808e-05 7.20749e-07 0)
(4.79785e-05 6.58534e-07 0)
(4.1448e-05 5.95399e-07 0)
(3.55856e-05 5.33027e-07 0)
(3.03723e-05 4.72774e-07 0)
(2.57774e-05 4.15681e-07 0)
(2.17612e-05 3.62487e-07 0)
(1.82785e-05 3.13669e-07 0)
(1.52806e-05 2.69468e-07 0)
(1.2718e-05 2.29937e-07 0)
(1.05415e-05 1.94973e-07 0)
(8.7041e-06 1.64364e-07 0)
(7.16162e-06 1.37816e-07 0)
(5.87339e-06 1.14983e-07 0)
(4.8026e-06 9.54986e-08 0)
(3.91642e-06 7.89881e-08 0)
(3.18593e-06 6.5087e-08 0)
(2.58594e-06 5.34509e-08 0)
(2.09475e-06 4.37616e-08 0)
(1.69381e-06 3.57315e-08 0)
(1.36742e-06 2.91046e-08 0)
(1.10233e-06 2.36564e-08 0)
(8.87487e-07 1.91924e-08 0)
(7.13696e-07 1.55458e-08 0)
(5.73343e-07 1.25748e-08 0)
(4.60159e-07 1.016e-08 0)
(3.69e-07 8.2013e-09 0)
(2.9566e-07 6.61553e-09 0)
(2.36707e-07 5.33378e-09 0)
(1.89354e-07 4.29928e-09 0)
(1.51336e-07 3.46548e-09 0)
(1.20823e-07 2.79429e-09 0)
(9.6331e-08 2.2547e-09 0)
(7.66643e-08 1.82149e-09 0)
(6.08569e-08 1.47423e-09 0)
(4.81294e-08 1.19644e-09 0)
(3.78522e-08 9.74797e-10 0)
(2.95161e-08 7.98633e-10 0)
(2.27077e-08 6.59401e-10 0)
(1.70886e-08 5.50304e-10 0)
(1.2379e-08 4.65974e-10 0)
(8.34241e-09 4.02232e-10 0)
(4.77047e-09 3.55919e-10 0)
(1.52422e-09 3.24777e-10 0)
(0.218695 -0.00335726 0)
(0.227031 -0.00274839 0)
(0.235099 -0.00204678 0)
(0.240797 -0.00130588 0)
(0.244001 -0.000531887 0)
(0.244541 0.000217133 0)
(0.242551 0.000980977 0)
(0.23783 0.00176761 0)
(0.230623 0.00252225 0)
(0.220984 0.00320342 0)
(0.209076 0.00386478 0)
(0.195089 0.00447804 0)
(0.17925 0.00494143 0)
(0.16183 0.00540357 0)
(0.143108 0.00568625 0)
(0.123395 0.00597514 0)
(0.10299 0.00617898 0)
(0.0822133 0.00618737 0)
(0.0614062 0.0062085 0)
(0.0409755 0.00614354 0)
(0.0217971 0.00592231 0)
(0.00251154 0.00574432 0)
(-0.016997 0.00543659 0)
(-0.0348827 0.00504895 0)
(-0.0513381 0.00467066 0)
(-0.0663524 0.00422666 0)
(-0.0798728 0.00379118 0)
(-0.09186 0.003334 0)
(-0.102278 0.00285503 0)
(-0.111111 0.00238794 0)
(-0.118348 0.00192454 0)
(-0.123967 0.00146752 0)
(-0.12799 0.00100696 0)
(-0.130395 0.000554596 0)
(-0.131323 0.000127149 0)
(-0.130671 -0.000259097 0)
(-0.128589 -0.000619394 0)
(-0.1252 -0.000956111 0)
(-0.120664 -0.00126202 0)
(-0.115227 -0.0015356 0)
(-0.109119 -0.00175835 0)
(-0.102505 -0.00195052 0)
(-0.0955408 -0.00208646 0)
(-0.0883929 -0.00218441 0)
(-0.081155 -0.00225824 0)
(-0.0739473 -0.00227679 0)
(-0.06691 -0.00226515 0)
(-0.0600736 -0.00224181 0)
(-0.053493 -0.00217872 0)
(-0.0472708 -0.0020996 0)
(-0.0413419 -0.00202586 0)
(-0.0356538 -0.00193395 0)
(-0.0301265 -0.00185414 0)
(-0.0246502 -0.00177038 0)
(-0.0193117 -0.00168766 0)
(-0.0141728 -0.00161759 0)
(-0.0094986 -0.00155024 0)
(-0.00537636 -0.00150862 0)
(0.000248547 -0.00143246 0)
(0.00670496 -0.00135084 0)
(0.0117536 -0.00129161 0)
(0.0158387 -0.00124756 0)
(0.0194647 -0.00121108 0)
(0.0231205 -0.00117517 0)
(0.0268527 -0.00113498 0)
(0.0305434 -0.0010881 0)
(0.0341285 -0.00103359 0)
(0.0375641 -0.000969528 0)
(0.0408003 -0.00089651 0)
(0.0438102 -0.000813112 0)
(0.046543 -0.000719997 0)
(0.04897 -0.000618707 0)
(0.0510623 -0.000506382 0)
(0.0528068 -0.00038828 0)
(0.0541717 -0.000261923 0)
(0.0551529 -0.000134333 0)
(0.0557235 -6.96415e-06 0)
(0.0558512 0.000113248 0)
(0.055523 0.000235965 0)
(0.0547478 0.00035181 0)
(0.053544 0.000458678 0)
(0.0519573 0.000547587 0)
(0.0499938 0.000628623 0)
(0.047722 0.000699762 0)
(0.0452161 0.000754344 0)
(0.0425319 0.000799661 0)
(0.0397109 0.000833944 0)
(0.0368092 0.000857526 0)
(0.033828 0.000862192 0)
(0.0308614 0.000868635 0)
(0.0279337 0.000862911 0)
(0.0250329 0.000844272 0)
(0.0221742 0.000829027 0)
(0.0194314 0.000804141 0)
(0.0167813 0.000773521 0)
(0.0142043 0.000745272 0)
(0.0117552 0.000719134 0)
(0.0093641 0.000689535 0)
(0.00708919 0.000664148 0)
(0.00490873 0.00064049 0)
(0.00278965 0.000618707 0)
(0.000723941 0.00060147 0)
(-0.00124887 0.000584795 0)
(-0.00318557 0.000570712 0)
(-0.00508281 0.000556014 0)
(-0.0069472 0.000543239 0)
(-0.00874744 0.000526531 0)
(-0.0104593 0.000505369 0)
(-0.0121228 0.000481349 0)
(-0.0136839 0.000446581 0)
(-0.0151214 0.000409488 0)
(-0.016396 0.000359049 0)
(-0.0175168 0.000301562 0)
(-0.0184275 0.000240437 0)
(-0.0191202 0.000172968 0)
(-0.0195852 0.000101949 0)
(-0.01981 3.36368e-05 0)
(-0.01981 -3.72931e-05 0)
(-0.0195818 -0.000102224 0)
(-0.019133 -0.000164246 0)
(-0.0184823 -0.000221541 0)
(-0.0176408 -0.0002768 0)
(-0.0166317 -0.000326369 0)
(-0.0154622 -0.000372061 0)
(-0.0141363 -0.000418187 0)
(-0.0126599 -0.000459059 0)
(-0.01104 -0.000503551 0)
(-0.00926868 -0.000547391 0)
(-0.00734833 -0.000596134 0)
(-0.00527779 -0.000644338 0)
(-0.00302813 -0.000690066 0)
(-0.000611144 -0.000741667 0)
(0.00197207 -0.000791696 0)
(0.00472371 -0.000843657 0)
(0.00764077 -0.000892097 0)
(0.010717 -0.000937716 0)
(0.0139345 -0.000977499 0)
(0.0172829 -0.00101168 0)
(0.020737 -0.00103832 0)
(0.0242559 -0.00105464 0)
(0.0278142 -0.0010605 0)
(0.0313663 -0.00105401 0)
(0.0348754 -0.0010313 0)
(0.0382847 -0.000996155 0)
(0.0415476 -0.000943768 0)
(0.0446091 -0.000874169 0)
(0.0474056 -0.000790176 0)
(0.0498919 -0.000688332 0)
(0.0520118 -0.000573198 0)
(0.0537176 -0.000441323 0)
(0.0549658 -0.000299855 0)
(0.0557204 -0.000148895 0)
(0.0559556 9.46372e-06 0)
(0.0556453 0.000172198 0)
(0.0547801 0.000339445 0)
(0.0533687 0.000502981 0)
(0.0514045 0.000662883 0)
(0.0489157 0.000815935 0)
(0.04593 0.000960508 0)
(0.0424762 0.00109267 0)
(0.0385997 0.00120968 0)
(0.0343553 0.00131408 0)
(0.0297903 0.00139972 0)
(0.0249699 0.00146609 0)
(0.0199571 0.00151569 0)
(0.0148089 0.00154515 0)
(0.00959465 0.0015564 0)
(0.00436888 0.00154992 0)
(-0.000804062 0.00152696 0)
(-0.00587055 0.0014876 0)
(-0.0107821 0.00143389 0)
(-0.0154892 0.00136757 0)
(-0.0199559 0.0012883 0)
(-0.0241395 0.00120131 0)
(-0.0280122 0.00110426 0)
(-0.0315495 0.000999829 0)
(-0.0347274 0.000891258 0)
(-0.0375312 0.000777568 0)
(-0.0399494 0.000661593 0)
(-0.0419759 0.000543176 0)
(-0.0436033 0.000425638 0)
(-0.0448329 0.000308004 0)
(-0.0456707 0.000191237 0)
(-0.0461224 7.94521e-05 0)
(-0.046203 -3.17761e-05 0)
(-0.0459156 -0.000137879 0)
(-0.0452783 -0.000240307 0)
(-0.0443056 -0.00033832 0)
(-0.0430123 -0.000430247 0)
(-0.0414188 -0.000517458 0)
(-0.0395419 -0.000598595 0)
(-0.0374003 -0.000674757 0)
(-0.0350184 -0.000742409 0)
(-0.0324145 -0.000805858 0)
(-0.0296113 -0.000861229 0)
(-0.0266319 -0.000910047 0)
(-0.0235017 -0.000952929 0)
(-0.0202414 -0.000986697 0)
(-0.0168754 -0.00101444 0)
(-0.0134314 -0.00103552 0)
(-0.00992901 -0.00104751 0)
(-0.00639328 -0.00105364 0)
(-0.00285344 -0.00105307 0)
(0.00067234 -0.00104508 0)
(0.00416132 -0.00102951 0)
(0.00758794 -0.00100855 0)
(0.010933 -0.000981059 0)
(0.0141757 -0.000947949 0)
(0.0172964 -0.000909527 0)
(0.0202799 -0.000865211 0)
(0.02311 -0.000817131 0)
(0.02577 -0.00076504 0)
(0.0282484 -0.000709354 0)
(0.0305345 -0.00065078 0)
(0.0326188 -0.000590502 0)
(0.0344969 -0.000526717 0)
(0.0361623 -0.000462784 0)
(0.0376094 -0.000398218 0)
(0.0388389 -0.000333366 0)
(0.0398511 -0.000269029 0)
(0.0406475 -0.000205935 0)
(0.0412339 -0.000143921 0)
(0.0416165 -8.33083e-05 0)
(0.0417999 -2.60541e-05 0)
(0.0417939 2.87455e-05 0)
(0.0416072 8.1042e-05 0)
(0.0412507 0.000130246 0)
(0.0407358 0.000175765 0)
(0.0400738 0.00021784 0)
(0.0392776 0.000256527 0)
(0.0383592 0.000290519 0)
(0.0373308 0.000321127 0)
(0.036205 0.000347794 0)
(0.0349949 0.000371456 0)
(0.0337153 0.000390125 0)
(0.0323779 0.000405645 0)
(0.0309934 0.000417463 0)
(0.0295734 0.000426467 0)
(0.0281321 0.000431479 0)
(0.0266768 0.00043352 0)
(0.0252185 0.00043382 0)
(0.0237667 0.00042991 0)
(0.0223286 0.000425448 0)
(0.0209128 0.00041703 0)
(0.0195251 0.000408411 0)
(0.0181721 0.000396596 0)
(0.0168588 0.000384748 0)
(0.0155889 0.000370419 0)
(0.0143672 0.000356383 0)
(0.013197 0.000340721 0)
(0.0120786 0.000324302 0)
(0.0110162 0.000308064 0)
(0.0100081 0.000291066 0)
(0.00905783 0.00027432 0)
(0.00816499 0.00025715 0)
(0.00732738 0.00024088 0)
(0.00654708 0.000223936 0)
(0.00582194 0.00020766 0)
(0.00514991 0.000191657 0)
(0.00453007 0.000176614 0)
(0.00396162 0.00016193 0)
(0.00344236 0.000147482 0)
(0.00296948 0.000133787 0)
(0.00254092 0.000120582 0)
(0.00215548 0.000108518 0)
(0.00181048 9.69095e-05 0)
(0.00150335 8.5848e-05 0)
(0.00123187 7.55424e-05 0)
(0.000993711 6.59128e-05 0)
(0.000786327 5.70312e-05 0)
(0.00060807 4.89287e-05 0)
(0.000456859 4.1359e-05 0)
(0.000329039 3.44699e-05 0)
(0.000224028 2.81332e-05 0)
(0.000138856 2.24613e-05 0)
(7.11123e-05 1.7416e-05 0)
(2.11171e-05 1.32628e-05 0)
(-1.48952e-05 9.31594e-06 0)
(-3.99013e-05 5.92786e-06 0)
(-5.4316e-05 2.98089e-06 0)
(-5.97535e-05 4.89625e-07 0)
(-5.75385e-05 -1.51483e-06 0)
(-4.88555e-05 -3.14842e-06 0)
(-3.52705e-05 -4.44783e-06 0)
(-1.76383e-05 -5.35582e-06 0)
(1.59565e-06 -5.96929e-06 0)
(2.15843e-05 -6.31724e-06 0)
(4.28587e-05 -6.41991e-06 0)
(6.40376e-05 -6.31409e-06 0)
(8.4465e-05 -6.02442e-06 0)
(0.000103568 -5.58598e-06 0)
(0.000120878 -5.02182e-06 0)
(0.000136048 -4.36983e-06 0)
(0.000148821 -3.65293e-06 0)
(0.000159049 -2.90312e-06 0)
(0.000166668 -2.14708e-06 0)
(0.00017171 -1.40235e-06 0)
(0.000174288 -6.96026e-07 0)
(0.00017459 -2.7166e-08 0)
(0.000172766 5.78694e-07 0)
(0.000168991 1.1193e-06 0)
(0.000163535 1.5881e-06 0)
(0.000156656 1.98152e-06 0)
(0.00014862 2.29815e-06 0)
(0.000139693 2.53871e-06 0)
(0.000130132 2.70591e-06 0)
(0.000120181 2.80421e-06 0)
(0.000110063 2.8396e-06 0)
(9.99803e-05 2.81919e-06 0)
(9.01069e-05 2.75084e-06 0)
(8.05884e-05 2.64287e-06 0)
(7.15418e-05 2.50362e-06 0)
(6.30553e-05 2.34118e-06 0)
(5.51902e-05 2.16313e-06 0)
(4.79832e-05 1.97635e-06 0)
(4.1449e-05 1.78682e-06 0)
(3.55838e-05 1.59959e-06 0)
(3.03685e-05 1.41873e-06 0)
(2.57722e-05 1.24736e-06 0)
(2.17553e-05 1.0877e-06 0)
(1.82721e-05 9.41183e-07 0)
(1.52742e-05 8.0853e-07 0)
(1.27117e-05 6.89895e-07 0)
(1.05356e-05 5.84975e-07 0)
(8.69867e-06 4.93125e-07 0)
(7.15671e-06 4.13462e-07 0)
(5.86902e-06 3.44952e-07 0)
(4.79876e-06 2.86491e-07 0)
(3.91309e-06 2.36954e-07 0)
(3.18306e-06 1.95249e-07 0)
(2.58349e-06 1.60339e-07 0)
(2.09268e-06 1.31271e-07 0)
(1.69208e-06 1.07181e-07 0)
(1.36597e-06 8.73014e-08 0)
(1.10113e-06 7.09581e-08 0)
(8.86495e-07 5.75674e-08 0)
(7.12879e-07 4.66288e-08 0)
(5.72673e-07 3.77171e-08 0)
(4.59612e-07 3.04738e-08 0)
(3.68554e-07 2.45987e-08 0)
(2.95297e-07 1.98423e-08 0)
(2.36413e-07 1.59977e-08 0)
(1.89116e-07 1.28949e-08 0)
(1.51145e-07 1.0394e-08 0)
(1.20668e-07 8.3809e-09 0)
(9.62068e-08 6.76249e-09 0)
(7.65648e-08 5.46316e-09 0)
(6.07774e-08 4.42165e-09 0)
(4.80662e-08 3.58847e-09 0)
(3.78022e-08 2.92372e-09 0)
(2.9477e-08 2.39536e-09 0)
(2.26775e-08 1.97778e-09 0)
(1.70658e-08 1.65058e-09 0)
(1.23625e-08 1.39767e-09 0)
(8.33126e-09 1.20651e-09 0)
(4.7641e-09 1.0676e-09 0)
(1.52219e-09 9.74116e-10 0)
(0.218857 -0.00559823 0)
(0.227209 -0.00458316 0)
(0.235288 -0.00341347 0)
(0.240995 -0.00218035 0)
(0.244194 -0.000903202 0)
(0.244764 0.000372405 0)
(0.242747 0.00164336 0)
(0.23803 0.00294796 0)
(0.230815 0.0042056 0)
(0.221162 0.00534132 0)
(0.20924 0.00644407 0)
(0.195235 0.00746666 0)
(0.179374 0.00823921 0)
(0.161933 0.00900971 0)
(0.143186 0.00948095 0)
(0.12345 0.00996247 0)
(0.103021 0.0103022 0)
(0.0822204 0.0103162 0)
(0.0613908 0.0103512 0)
(0.040939 0.0102426 0)
(0.0217474 0.00987343 0)
(0.00244067 0.0095765 0)
(-0.0170881 0.00906312 0)
(-0.0349812 0.00841656 0)
(-0.0514462 0.0077858 0)
(-0.0664666 0.00704553 0)
(-0.0799926 0.00631945 0)
(-0.0919833 0.00555717 0)
(-0.102402 0.00475864 0)
(-0.111234 0.00397975 0)
(-0.118469 0.00320631 0)
(-0.124085 0.00244373 0)
(-0.128108 0.00167689 0)
(-0.130524 0.000922813 0)
(-0.131433 0.000215743 0)
(-0.13077 -0.000429789 0)
(-0.128684 -0.00103256 0)
(-0.125289 -0.00159439 0)
(-0.120745 -0.00210465 0)
(-0.115298 -0.00256081 0)
(-0.10918 -0.00293212 0)
(-0.102556 -0.00325246 0)
(-0.0955816 -0.00347904 0)
(-0.0884238 -0.00364232 0)
(-0.0811763 -0.00376534 0)
(-0.0739592 -0.0037962 0)
(-0.0669135 -0.00377671 0)
(-0.0600694 -0.00373776 0)
(-0.0534819 -0.00363247 0)
(-0.0472536 -0.00350031 0)
(-0.0413201 -0.00337729 0)
(-0.0356292 -0.00322423 0)
(-0.030098 -0.00309073 0)
(-0.0246208 -0.00295153 0)
(-0.0192788 -0.00281305 0)
(-0.0141405 -0.00269642 0)
(-0.00946777 -0.00258447 0)
(-0.00534342 -0.00251838 0)
(0.00028716 -0.00238329 0)
(0.00674019 -0.00225048 0)
(0.0117827 -0.00215255 0)
(0.0158629 -0.00207922 0)
(0.0194858 -0.00201806 0)
(0.0231396 -0.00195851 0)
(0.0268704 -0.00189152 0)
(0.0305607 -0.00181321 0)
(0.0341451 -0.00172268 0)
(0.0375806 -0.00161616 0)
(0.0408165 -0.00149484 0)
(0.0438266 -0.00135581 0)
(0.0465601 -0.00119965 0)
(0.0489877 -0.00103092 0)
(0.0510806 -0.000844521 0)
(0.0528248 -0.000646652 0)
(0.0541901 -0.000436955 0)
(0.0551702 -0.000224457 0)
(0.0557408 -1.11949e-05 0)
(0.0558684 0.000190429 0)
(0.0555391 0.000394001 0)
(0.0547633 0.000586921 0)
(0.0535596 0.000764827 0)
(0.0519683 0.000913688 0)
(0.0500056 0.00104747 0)
(0.0477323 0.00116697 0)
(0.0452262 0.00125827 0)
(0.042538 0.00133295 0)
(0.0397161 0.00139053 0)
(0.0368101 0.00142923 0)
(0.0338288 0.00143788 0)
(0.0308596 0.00144857 0)
(0.0279312 0.00143747 0)
(0.0250288 0.0014092 0)
(0.0221672 0.00138061 0)
(0.0194234 0.00134069 0)
(0.0167737 0.00129011 0)
(0.0141967 0.00124369 0)
(0.0117472 0.00119764 0)
(0.00935352 0.00114772 0)
(0.0070814 0.00110668 0)
(0.00490208 0.0010676 0)
(0.00278193 0.00103066 0)
(0.000719046 0.00100248 0)
(-0.00125363 0.000974996 0)
(-0.00319029 0.000951395 0)
(-0.00508792 0.000926348 0)
(-0.00695333 0.000904795 0)
(-0.00875311 0.000877806 0)
(-0.0104656 0.000842938 0)
(-0.0121318 0.000802547 0)
(-0.0136949 0.000744206 0)
(-0.0151339 0.000683015 0)
(-0.0164122 0.000597859 0)
(-0.0175322 0.000503723 0)
(-0.018446 0.000400494 0)
(-0.0191389 0.000288333 0)
(-0.0196043 0.000170307 0)
(-0.0198298 5.56174e-05 0)
(-0.0198279 -6.19941e-05 0)
(-0.0196004 -0.000171791 0)
(-0.0191488 -0.000273247 0)
(-0.0184999 -0.000371029 0)
(-0.017653 -0.000459636 0)
(-0.0166448 -0.000544397 0)
(-0.0154745 -0.000620005 0)
(-0.0141485 -0.000697196 0)
(-0.0126724 -0.000765484 0)
(-0.0110525 -0.000839582 0)
(-0.00928086 -0.000911635 0)
(-0.00736178 -0.000993824 0)
(-0.00529126 -0.00107461 0)
(-0.00304127 -0.00114927 0)
(-0.000625475 -0.00123701 0)
(0.00195623 -0.00132094 0)
(0.00471109 -0.00140552 0)
(0.00762905 -0.00148595 0)
(0.0107044 -0.00156383 0)
(0.013924 -0.0016295 0)
(0.0172753 -0.0016863 0)
(0.0207301 -0.00173148 0)
(0.0242526 -0.00175778 0)
(0.0278141 -0.00176854 0)
(0.03137 -0.00175707 0)
(0.0348819 -0.00171997 0)
(0.0382966 -0.00166078 0)
(0.0415633 -0.00157388 0)
(0.0446292 -0.00145789 0)
(0.0474294 -0.00131819 0)
(0.0499206 -0.00114779 0)
(0.0520452 -0.000955222 0)
(0.0537528 -0.000736672 0)
(0.0550039 -0.00050036 0)
(0.0557621 -0.000247908 0)
(0.0559986 1.59195e-05 0)
(0.0556881 0.000287464 0)
(0.0548221 0.000565306 0)
(0.0534111 0.000838597 0)
(0.0514454 0.00110488 0)
(0.0489549 0.00136077 0)
(0.0459664 0.00160145 0)
(0.0425096 0.00182203 0)
(0.0386294 0.0020177 0)
(0.0343799 0.00219073 0)
(0.0298096 0.00233283 0)
(0.0249845 0.00244477 0)
(0.0199667 0.00252678 0)
(0.0148141 0.00257642 0)
(0.00959636 0.00259571 0)
(0.0043639 0.00258382 0)
(-0.000813665 0.00254493 0)
(-0.00588288 0.00248026 0)
(-0.0107978 0.00239087 0)
(-0.0155097 0.00227921 0)
(-0.0199773 0.00214831 0)
(-0.0241649 0.00200205 0)
(-0.0280391 0.00184088 0)
(-0.031578 0.00166627 0)
(-0.0347567 0.00148601 0)
(-0.037561 0.00129641 0)
(-0.0399808 0.00110264 0)
(-0.0420073 0.000904938 0)
(-0.0436343 0.00070974 0)
(-0.0448643 0.000512936 0)
(-0.0457016 0.000318961 0)
(-0.0461527 0.000132164 0)
(-0.046232 -5.34195e-05 0)
(-0.0459431 -0.000229922 0)
(-0.0453047 -0.000400686 0)
(-0.0443307 -0.00056406 0)
(-0.043036 -0.000717321 0)
(-0.0414413 -0.000863016 0)
(-0.0395631 -0.00099811 0)
(-0.0374192 -0.00112481 0)
(-0.0350356 -0.00123767 0)
(-0.0324301 -0.00134322 0)
(-0.0296251 -0.00143586 0)
(-0.0266444 -0.00151742 0)
(-0.0235114 -0.0015881 0)
(-0.0202495 -0.00164494 0)
(-0.0168819 -0.00169106 0)
(-0.0134358 -0.00172632 0)
(-0.00993156 -0.00174633 0)
(-0.00639453 -0.00175677 0)
(-0.00285178 -0.00175531 0)
(0.000675538 -0.00174185 0)
(0.00416576 -0.00171649 0)
(0.00759469 -0.00168106 0)
(0.0109411 -0.00163542 0)
(0.0141851 -0.00158017 0)
(0.017307 -0.0015165 0)
(0.0202924 -0.00144208 0)
(0.0231235 -0.00136189 0)
(0.0257842 -0.00127536 0)
(0.0282636 -0.00118241 0)
(0.0305502 -0.00108492 0)
(0.0326354 -0.000984115 0)
(0.0345138 -0.000877866 0)
(0.0361794 -0.000771494 0)
(0.0376266 -0.000663664 0)
(0.0388562 -0.000555587 0)
(0.0398681 -0.000448376 0)
(0.0406641 -0.000343372 0)
(0.0412502 -0.000239604 0)
(0.0416322 -0.000138742 0)
(0.041815 -4.31338e-05 0)
(0.041808 4.80608e-05 0)
(0.0416204 0.000135218 0)
(0.0412633 0.000217094 0)
(0.0407475 0.000293077 0)
(0.0400846 0.000363243 0)
(0.0392873 0.00042775 0)
(0.0383679 0.000484402 0)
(0.0373385 0.000535409 0)
(0.0362117 0.000579889 0)
(0.0350005 0.000619153 0)
(0.0337199 0.000650464 0)
(0.0323816 0.000676258 0)
(0.0309962 0.000695967 0)
(0.0295753 0.000710788 0)
(0.0281331 0.000719427 0)
(0.0266772 0.000722628 0)
(0.0252181 0.000723217 0)
(0.0237656 0.000716705 0)
(0.0223269 0.000709128 0)
(0.0209105 0.00069526 0)
(0.0195224 0.000680666 0)
(0.018169 0.00066115 0)
(0.0168554 0.000641235 0)
(0.0155851 0.000617389 0)
(0.0143633 0.000594048 0)
(0.0131928 0.000567901 0)
(0.0120743 0.000540556 0)
(0.0110118 0.000513454 0)
(0.0100036 0.000485024 0)
(0.00905335 0.000457321 0)
(0.00816057 0.000428642 0)
(0.00732299 0.000401376 0)
(0.00654269 0.000373256 0)
(0.00581767 0.000346099 0)
(0.0051458 0.000319488 0)
(0.00452614 0.000294238 0)
(0.00395777 0.000269804 0)
(0.00343864 0.000245838 0)
(0.00296593 0.000222947 0)
(0.00253759 0.000200964 0)
(0.00215235 0.00018089 0)
(0.00180749 0.000161458 0)
(0.00150054 0.000143056 0)
(0.00122924 0.000125874 0)
(0.000991279 0.000109832 0)
(0.000784094 9.50451e-05 0)
(0.000606011 8.14949e-05 0)
(0.00045496 6.88994e-05 0)
(0.000327301 5.74203e-05 0)
(0.00022245 4.68696e-05 0)
(0.000137443 3.74332e-05 0)
(6.98993e-05 2.90103e-05 0)
(2.00477e-05 2.20388e-05 0)
(-1.58676e-05 1.55027e-05 0)
(-4.07434e-05 9.85622e-06 0)
(-5.50415e-05 4.95673e-06 0)
(-6.03561e-05 7.97062e-07 0)
(-5.80286e-05 -2.54279e-06 0)
(-4.92526e-05 -5.26216e-06 0)
(-3.55708e-05 -7.43277e-06 0)
(-1.78462e-05 -8.94199e-06 0)
(1.46389e-06 -9.95864e-06 0)
(2.15234e-05 -1.05408e-05 0)
(4.2862e-05 -1.0711e-05 0)
(6.40977e-05 -1.05333e-05 0)
(8.45747e-05 -1.00493e-05 0)
(0.00010372 -9.31709e-06 0)
(0.000121065 -8.37554e-06 0)
(0.000136263 -7.28746e-06 0)
(0.000149055 -6.09139e-06 0)
(0.000159295 -4.8404e-06 0)
(0.000166921 -3.5791e-06 0)
(0.000171962 -2.337e-06 0)
(0.000174536 -1.15933e-06 0)
(0.00017483 -4.35556e-08 0)
(0.000172993 9.6683e-07 0)
(0.000169203 1.86832e-06 0)
(0.00016373 2.65002e-06 0)
(0.000156832 3.30599e-06 0)
(0.000148776 3.83389e-06 0)
(0.000139829 4.23489e-06 0)
(0.000130247 4.51351e-06 0)
(0.000120275 4.67723e-06 0)
(0.000110139 4.73602e-06 0)
(0.000100038 4.70173e-06 0)
(9.01489e-05 4.58753e-06 0)
(8.06163e-05 4.40724e-06 0)
(7.15575e-05 4.17481e-06 0)
(6.30608e-05 3.90373e-06 0)
(5.51874e-05 3.60666e-06 0)
(4.7974e-05 3.29505e-06 0)
(4.14351e-05 2.97888e-06 0)
(3.55666e-05 2.66658e-06 0)
(3.03494e-05 2.36493e-06 0)
(2.57522e-05 2.07914e-06 0)
(2.17351e-05 1.81291e-06 0)
(1.82525e-05 1.56861e-06 0)
(1.52556e-05 1.34744e-06 0)
(1.26945e-05 1.14966e-06 0)
(1.05199e-05 9.7476e-07 0)
(8.68458e-06 8.2166e-07 0)
(7.14423e-06 6.88883e-07 0)
(5.8581e-06 5.74707e-07 0)
(4.7893e-06 4.77283e-07 0)
(3.90496e-06 3.94737e-07 0)
(3.17615e-06 3.25245e-07 0)
(2.57765e-06 2.67081e-07 0)
(2.08778e-06 2.18653e-07 0)
(1.68799e-06 1.78521e-07 0)
(1.36257e-06 1.45405e-07 0)
(1.09832e-06 1.1818e-07 0)
(8.84181e-07 9.58754e-08 0)
(7.10981e-07 7.76558e-08 0)
(5.71122e-07 6.28127e-08 0)
(4.58347e-07 5.07489e-08 0)
(3.67526e-07 4.09642e-08 0)
(2.94463e-07 3.30427e-08 0)
(2.35738e-07 2.66402e-08 0)
(1.88571e-07 2.14729e-08 0)
(1.50705e-07 1.73082e-08 0)
(1.20315e-07 1.39558e-08 0)
(9.5923e-08 1.12607e-08 0)
(7.63376e-08 9.09706e-09 0)
(6.05961e-08 7.36275e-09 0)
(4.79221e-08 5.97534e-09 0)
(3.76884e-08 4.86842e-09 0)
(2.9388e-08 3.98863e-09 0)
(2.26088e-08 3.29331e-09 0)
(1.7014e-08 2.74848e-09 0)
(1.23249e-08 2.32737e-09 0)
(8.3059e-09 2.00909e-09 0)
(4.7496e-09 1.7778e-09 0)
(1.51757e-09 1.62203e-09 0)
(0.219101 -0.00784334 0)
(0.227475 -0.00642163 0)
(0.235572 -0.00478344 0)
(0.241293 -0.00305952 0)
(0.2445 -0.00127348 0)
(0.245082 0.000522251 0)
(0.243043 0.00231399 0)
(0.238331 0.00413103 0)
(0.231104 0.00589176 0)
(0.221428 0.00748268 0)
(0.209485 0.00902754 0)
(0.195455 0.0104602 0)
(0.179559 0.0115423 0)
(0.162087 0.0126216 0)
(0.143303 0.0132815 0)
(0.123532 0.0139556 0)
(0.103067 0.0144312 0)
(0.0822309 0.014451 0)
(0.0613675 0.0144993 0)