/*--------------------------------*- C++ -*----------------------------------*\
| =========                 |                                                 |
| \\      /  F ield         | OpenFOAM: The Open Source CFD Toolbox           |
|  \\    /   O peration     | Version:  3.0.1                                 |
|   \\  /    A nd           | Web:      www.OpenFOAM.org                      |
|    \\/     M anipulation  |                                                 |
\*---------------------------------------------------------------------------*/
FoamFile
{
    version     2.0;
    format      ascii;
    class       surfaceScalarField;
    location    "84.6";
    object      alphaPhi;
}
// * * * * * * * * * * * * * * * * * * * * * * * * * * * * * * * * * * * * * //

dimensions      [0 3 -1 0 0 0 0];

internalField   nonuniform List<scalar> 
42423
(
0.000194607
7.55164e-06
0.000185227
9.37935e-06
0.000173757
1.14703e-05
0.00016031
1.34469e-05
0.000145412
1.48985e-05
0.000129049
1.63627e-05
0.000111658
1.73909e-05
9.34074e-05
1.82505e-05
7.45611e-05
1.88463e-05
5.54212e-05
1.91399e-05
3.63252e-05
1.90959e-05
1.72793e-05
1.90459e-05
-1.20458e-06
1.84839e-05
-1.91979e-05
1.79933e-05
-3.64636e-05
1.72657e-05
-5.29348e-05
1.64712e-05
-6.84716e-05
1.55368e-05
-8.30341e-05
1.45625e-05
-9.66074e-05
1.35733e-05
-0.000109151
1.25439e-05
-0.000120668
1.1517e-05
-0.00013118
1.05121e-05
-0.000140701
9.52069e-06
-0.00014926
8.55845e-06
-0.000156901
7.64189e-06
-0.000163648
6.74625e-06
-0.00016955
5.9023e-06
-0.000174644
5.09431e-06
-0.000178944
4.3001e-06
-0.000182495
3.55059e-06
-0.000185312
2.81752e-06
-0.000187427
2.11408e-06
-0.000188832
1.40579e-06
-0.000189552
7.19492e-07
-0.000189548
-3.69705e-09
-0.000188814
-7.3412e-07
-0.000187307
-1.50651e-06
-0.000185061
-2.24662e-06
-0.000182127
-2.93401e-06
-0.000178327
-3.79996e-06
-0.000173771
-4.55621e-06
-0.000168262
-5.50874e-06
-0.000161926
-6.33633e-06
-0.000154751
-7.17509e-06
-0.000146516
-8.23498e-06
-0.000137379
-9.13638e-06
-0.000127388
-9.99113e-06
-0.000116228
-1.11607e-05
-0.000104145
-1.2083e-05
-9.116e-05
-1.29846e-05
-7.70918e-05
-1.40683e-05
-6.22364e-05
-1.48555e-05
-4.63288e-05
-1.59077e-05
-2.96443e-05
-1.66846e-05
-1.24328e-05
-1.72115e-05
5.38669e-06
-1.78195e-05
2.36554e-05
-1.82687e-05
4.20278e-05
-1.83725e-05
6.05003e-05
-1.84726e-05
7.87797e-05
-1.82794e-05
9.6752e-05
-1.79724e-05
0.000114206
-1.74544e-05
0.000130782
-1.65761e-05
0.000146322
-1.55397e-05
0.00016069
-1.43685e-05
0.000173507
-1.2817e-05
0.000184644
-1.1137e-05
0.000193909
-9.26478e-06
0.000201219
-7.30997e-06
0.000206533
-5.31373e-06
0.000209427
-2.89453e-06
0.000210155
-7.28187e-07
0.000208446
1.70946e-06
0.000204316
4.13011e-06
0.000198042
6.27372e-06
0.000189459
8.58274e-06
0.000179011
1.04484e-05
0.000166682
1.23295e-05
0.000152695
1.39864e-05
0.000137373
1.53228e-05
0.000120833
1.65402e-05
0.000103351
1.7482e-05
8.54271e-05
1.79239e-05
6.70799e-05
1.83473e-05
4.87477e-05
1.83324e-05
3.03669e-05
1.83809e-05
1.22175e-05
1.81495e-05
-5.57395e-06
1.77915e-05
-2.29638e-05
1.73898e-05
-3.98064e-05
1.68424e-05
-5.59932e-05
1.61867e-05
-7.13719e-05
1.53785e-05
-8.58219e-05
1.44498e-05
-9.92576e-05
1.34356e-05
-0.000111623
1.23654e-05
-0.00012284
1.1217e-05
-0.000132898
1.00574e-05
-0.000141793
8.89454e-06
-0.000149627
7.83457e-06
-0.000156328
6.70011e-06
-0.000162049
5.72083e-06
-0.00016678
4.73141e-06
-0.000170621
3.8407e-06
-0.000173604
2.98268e-06
-0.000175806
2.20143e-06
-0.000177259
1.45348e-06
-0.000177998
7.38673e-07
-0.000178043
4.55252e-08
-0.000177418
-6.25856e-07
-0.000176119
-1.299e-06
-0.000174229
-1.8899e-06
-0.000171688
-2.54116e-06
-0.000168468
-3.21932e-06
-0.000164639
-3.82971e-06
-0.000160126
-4.51236e-06
-0.00015496
-5.16648e-06
-0.000149088
-5.87215e-06
-0.000142532
-6.55612e-06
-0.000135236
-7.29593e-06
-0.000127212
-8.02349e-06
-0.000118416
-8.79642e-06
-0.000108851
-9.56478e-06
-9.84724e-05
-1.03791e-05
-8.72829e-05
-1.11896e-05
-7.52112e-05
-1.20718e-05
-6.24511e-05
-1.27602e-05
-4.87268e-05
-1.37243e-05
-3.43672e-05
-1.43598e-05
-1.91336e-05
-1.52336e-05
-3.28068e-06
-1.5853e-05
1.32424e-05
-1.65232e-05
3.02265e-05
-1.69842e-05
4.76001e-05
-1.73737e-05
6.51902e-05
-1.75902e-05
8.27298e-05
-1.75397e-05
0.000100076
-1.73465e-05
0.000116977
-1.69014e-05
0.000133131
-1.61538e-05
0.00014832
-1.51889e-05
0.000162256
-1.39362e-05
0.000174673
-1.24168e-05
0.000185343
-1.06705e-05
0.000194038
-8.6949e-06
0.000200584
-6.54564e-06
0.000204801
-4.21782e-06
0.000206615
-1.81357e-06
0.000205973
6.42194e-07
0.000202808
3.16473e-06
0.000197169
5.63932e-06
0.000189175
7.99371e-06
0.000178993
1.01815e-05
0.000166798
1.21951e-05
0.000152801
1.39972e-05
0.000137291
1.55095e-05
0.000120526
1.67653e-05
0.000102843
1.76827e-05
8.44258e-05
1.84175e-05
6.56698e-05
1.8756e-05
4.67843e-05
1.88855e-05
2.80281e-05
1.87561e-05
9.63183e-06
1.83963e-05
-8.22293e-06
1.78548e-05
-2.53982e-05
1.71753e-05
-4.17504e-05
1.63522e-05
-5.71669e-05
1.54165e-05
-7.1608e-05
1.44411e-05
-8.50085e-05
1.34005e-05
-9.73532e-05
1.23447e-05
-0.000108618
1.12648e-05
-0.000118947
1.03287e-05
-0.000128235
9.28829e-06
-0.000136592
8.35735e-06
-0.000144013
7.42133e-06
-0.00015057
6.55631e-06
-0.0001564
5.83075e-06
-0.000161427
5.02646e-06
-0.000165735
4.30784e-06
-0.000169349
3.61394e-06
-0.000172274
2.92514e-06
-0.000174552
2.2783e-06
-0.000176201
1.64881e-06
-0.000177208
1.00714e-06
-0.000177616
4.07793e-07
-0.000177384
-2.31414e-07
-0.000176535
-8.48859e-07
-0.000175081
-1.45403e-06
-0.000173124
-1.95729e-06
-0.000170482
-2.64205e-06
-0.000167166
-3.31586e-06
-0.00016318
-3.98559e-06
-0.000158471
-4.70962e-06
-0.000153128
-5.3422e-06
-0.000147083
-6.04573e-06
-0.000140394
-6.68846e-06
-0.000132942
-7.4519e-06
-0.000124717
-8.22492e-06
-0.000115603
-9.11421e-06
-0.000105646
-9.95701e-06
-9.47879e-05
-1.08584e-05
-8.3148e-05
-1.164e-05
-7.07444e-05
-1.24036e-05
-5.76233e-05
-1.31211e-05
-4.38437e-05
-1.37797e-05
-2.94792e-05
-1.43646e-05
-1.44702e-05
-1.5009e-05
1.1272e-06
-1.55975e-05
1.7243e-05
-1.61159e-05
3.382e-05
-1.65771e-05
5.06686e-05
-1.68487e-05
6.76389e-05
-1.69704e-05
8.4492e-05
-1.68532e-05
0.000101008
-1.65163e-05
0.000116903
-1.58953e-05
0.000131924
-1.50203e-05
0.000145848
-1.39245e-05
0.00015835
-1.25022e-05
0.000169255
-1.09047e-05
0.000178334
-9.07958e-06
0.000185387
-7.05277e-06
0.000190251
-4.86374e-06
0.000192816
-2.56569e-06
0.000192987
-1.7052e-07
0.000190718
2.26941e-06
0.000185953
4.76496e-06
0.000178876
7.0764e-06
0.000169597
9.27947e-06
0.000158304
1.12921e-05
0.000145153
1.31512e-05
0.000130465
1.46884e-05
0.000114486
1.59788e-05
9.75366e-05
1.69493e-05
7.98159e-05
1.77207e-05
6.17244e-05
1.80914e-05
4.34255e-05
1.82989e-05
2.52043e-05
1.82212e-05
7.24234e-06
1.79619e-05
-1.02454e-05
1.74878e-05
-2.71886e-05
1.69432e-05
-4.33601e-05
1.61715e-05
-5.87143e-05
1.53543e-05
-7.31083e-05
1.4394e-05
-8.65452e-05
1.3437e-05
-9.89664e-05
1.24213e-05
-0.000110384
1.14176e-05
-0.000120757
1.03728e-05
-0.000130171
9.41493e-06
-0.000138617
8.44632e-06
-0.000146144
7.52638e-06
-0.00015276
6.61632e-06
-0.000158598
5.83842e-06
-0.000163659
5.06116e-06
-0.000168028
4.36926e-06
-0.000171712
3.68452e-06
-0.000174801
3.08931e-06
-0.000177246
2.44509e-06
-0.0001791
1.85405e-06
-0.000180424
1.32415e-06
-0.000181124
7.00292e-07
-0.000181349
2.25434e-07
-0.000181027
-3.22437e-07
-0.000180141
-8.85413e-07
-0.000178738
-1.40271e-06
-0.000176783
-1.95473e-06
-0.000174305
-2.47872e-06
-0.000171239
-3.06521e-06
-0.00016761
-3.62872e-06
-0.000163473
-4.13711e-06
-0.000158676
-4.79736e-06
-0.000153189
-5.48661e-06
-0.000147021
-6.16829e-06
-0.000140255
-6.76512e-06
-0.000132642
-7.61367e-06
-0.000124321
-8.32034e-06
-0.000115185
-9.13652e-06
-0.000105272
-9.91284e-06
-9.43849e-05
-1.08871e-05
-8.26885e-05
-1.16964e-05
-6.99535e-05
-1.2735e-05
-5.61702e-05
-1.37833e-05
-4.13961e-05
-1.47742e-05
-2.55137e-05
-1.58824e-05
-8.49908e-06
-1.70147e-05
9.52541e-06
-1.80245e-05
2.81443e-05
-1.8619e-05
4.72668e-05
-1.91225e-05
6.67039e-05
-1.94372e-05
8.59932e-05
-1.92894e-05
0.0001049
-1.89071e-05
0.000123131
-1.82308e-05
0.00014043
-1.72994e-05
0.000156519
-1.60892e-05
0.000170934
-1.44142e-05
0.000183541
-1.26071e-05
0.000194025
-1.04841e-05
0.000202042
-8.01701e-06
0.000207556
-5.51407e-06
0.000210481
-2.92559e-06
0.000210462
1.96137e-08
0.00020772
2.74142e-06
0.000202181
5.53929e-06
0.000194317
7.86346e-06
0.000184201
1.01163e-05
0.000172117
1.20839e-05
0.000158258
1.3859e-05
0.000143148
1.51103e-05
0.000126821
1.63264e-05
0.000109836
1.69856e-05
9.24619e-05
1.73737e-05
7.48068e-05
1.76551e-05
5.74057e-05
1.7401e-05
4.02105e-05
1.71952e-05
2.36352e-05
1.65753e-05
7.67102e-06
1.59642e-05
-7.5681e-06
1.52391e-05
-2.19383e-05
1.43702e-05
-3.5443e-05
1.35047e-05
-4.80386e-05
1.25956e-05
-5.9754e-05
1.17154e-05
-7.05922e-05
1.08382e-05
-8.06011e-05
1.00089e-05
-8.98433e-05
9.2422e-06
-9.8368e-05
8.52477e-06
-0.000106217
7.84934e-06
-0.000113461
7.24374e-06
-0.000120129
6.66831e-06
-0.000126262
6.1326e-06
-0.000131882
5.62e-06
-0.000136997
5.11501e-06
-0.000141606
4.60857e-06
-0.000145706
4.09995e-06
-0.000149261
3.55527e-06
-0.000152255
2.99404e-06
-0.00015464
2.38469e-06
-0.000156368
1.72828e-06
-0.000157429
1.06128e-06
-0.000157766
3.36758e-07
-0.000157261
-5.04889e-07
-0.000155924
-1.33689e-06
-0.000153727
-2.19739e-06
-0.000150671
-3.05553e-06
-0.000146734
-3.93759e-06
-0.000141878
-4.85549e-06
-0.000136162
-5.71577e-06
-0.000129431
-6.7318e-06
-0.000121865
-7.56528e-06
-0.000113467
-8.3978e-06
-0.000104079
-9.38829e-06
-9.38203e-05
-1.02589e-05
-8.27273e-05
-1.1093e-05
-7.06776e-05
-1.20497e-05
-5.78389e-05
-1.28387e-05
-4.41143e-05
-1.37246e-05
-2.97172e-05
-1.43971e-05
-1.47462e-05
-1.4971e-05
9.95901e-07
-1.57421e-05
1.69286e-05
-1.59327e-05
-1.61432e-05
0.000194696
1.51056e-05
0.000185312
1.87624e-05
0.000173836
2.29465e-05
0.000160381
2.69018e-05
0.000145473
2.98064e-05
0.0001291
3.27364e-05
0.000111698
3.47924e-05
9.34357e-05
3.6513e-05
7.45788e-05
3.77032e-05
5.54304e-05
3.82882e-05
3.63226e-05
3.82038e-05
1.72706e-05
3.80979e-05
-1.22314e-06
3.69776e-05
-1.92232e-05
3.59934e-05
-3.64945e-05
3.4537e-05
-5.29701e-05
3.29468e-05
-6.85117e-05
3.10785e-05
-8.30783e-05
2.91291e-05
-9.66549e-05
2.71499e-05
-0.0001092
2.50889e-05
-0.000120718
2.30355e-05
-0.000131236
2.10292e-05
-0.000140755
1.904e-05
-0.00014931
1.71133e-05
-0.000156953
1.52856e-05
-0.000163704
1.34968e-05
-0.000169603
1.18015e-05
-0.000174694
1.01857e-05
-0.000178995
8.60025e-06
-0.000182551
7.10661e-06
-0.000185376
5.64316e-06
-0.000187486
4.22332e-06
-0.000188884
2.80449e-06
-0.000189602
1.43725e-06
-0.000189597
-8.5159e-09
-0.000188865
-1.46649e-06
-0.000187358
-3.0129e-06
-0.000185115
-4.48999e-06
-0.000182182
-5.86741e-06
-0.000178383
-7.59892e-06
-0.00017383
-9.10942e-06
-0.000168322
-1.10163e-05
-0.000161985
-1.26732e-05
-0.000154812
-1.43483e-05
-0.000146575
-1.64724e-05
-0.000137438
-1.82731e-05
-0.000127449
-1.99798e-05
-0.000116285
-2.23246e-05
-0.000104204
-2.41646e-05
-9.12155e-05
-2.5973e-05
-7.71462e-05
-2.81376e-05
-6.22921e-05
-2.97097e-05
-4.63766e-05
-3.18232e-05
-2.9689e-05
-3.33723e-05
-1.24695e-05
-3.44311e-05
5.35748e-06
-3.56466e-05
2.3636e-05
-3.65474e-05
4.20195e-05
-3.67561e-05
6.05054e-05
-3.69586e-05
7.87934e-05
-3.65676e-05
9.67774e-05
-3.59565e-05
0.000114242
-3.49192e-05
0.000130827
-3.31612e-05
0.000146383
-3.10962e-05
0.000160763
-2.87483e-05
0.000173584
-2.56381e-05
0.00018473
-2.2283e-05
0.000194002
-1.85371e-05
0.000201323
-1.46311e-05
0.000206633
-1.06234e-05
0.000209532
-5.79371e-06
0.000210271
-1.46751e-06
0.000208554
3.42606e-06
0.000204424
8.26089e-06
0.000198149
1.25479e-05
0.000189562
1.71698e-05
0.000179104
2.09067e-05
0.000166769
2.46651e-05
0.000152766
2.79894e-05
0.000137437
3.06513e-05
0.000120882
3.30954e-05
0.000103393
3.49711e-05
8.54542e-05
3.58632e-05
6.70992e-05
3.67025e-05
4.87742e-05
3.66576e-05
3.03878e-05
3.67675e-05
1.22332e-05
3.63042e-05
-5.5591e-06
3.55838e-05
-2.29485e-05
3.47791e-05
-3.97943e-05
3.36882e-05
-5.59784e-05
3.23708e-05
-7.13768e-05
3.07769e-05
-8.58409e-05
2.89137e-05
-9.92789e-05
2.68734e-05
-0.000111649
2.47351e-05
-0.000122874
2.24419e-05
-0.000132939
2.01223e-05
-0.000141836
1.77919e-05
-0.000149683
1.56814e-05
-0.000156395
1.34111e-05
-0.000162117
1.14434e-05
-0.000166848
9.46239e-06
-0.000170689
7.68117e-06
-0.000173679
5.97212e-06
-0.000175882
4.40461e-06
-0.000177337
2.9089e-06
-0.00017808
1.48097e-06
-0.000178134
1.00179e-07
-0.000177513
-1.24716e-06
-0.000176205
-2.60735e-06
-0.000174293
-3.80213e-06
-0.000171773
-5.06136e-06
-0.00016856
-6.43154e-06
-0.000164733
-7.65683e-06
-0.000160226
-9.01946e-06
-0.000155059
-1.03339e-05
-0.000149199
-1.1732e-05
-0.000142639
-1.31164e-05
-0.000135348
-1.45869e-05
-0.000127333
-1.60387e-05
-0.000118547
-1.75825e-05
-0.000108991
-1.91208e-05
-9.86122e-05
-2.07578e-05
-8.74201e-05
-2.23817e-05
-7.53498e-05
-2.41422e-05
-6.26e-05
-2.55101e-05
-4.89111e-05
-2.74134e-05
-3.45218e-05
-2.87493e-05
-1.93002e-05
-3.04553e-05
-3.43476e-06
-3.17186e-05
1.30827e-05
-3.30408e-05
3.00714e-05
-3.39731e-05
4.74444e-05
-3.47469e-05
6.50346e-05
-3.51805e-05
8.25797e-05
-3.5085e-05
9.99313e-05
-3.46983e-05
0.000116828
-3.37978e-05
0.000132993
-3.23193e-05
0.000148216
-3.04119e-05
0.000162138
-2.78587e-05
0.000174567
-2.48461e-05
0.000185256
-2.13591e-05
0.000193969
-1.74085e-05
0.000200521
-1.30981e-05
0.000204746
-8.44241e-06
0.00020657
-3.63828e-06
0.000205945
1.26758e-06
0.000202757
6.3528e-06
0.000197122
1.12742e-05
0.00018913
1.5986e-05
0.000178939
2.03716e-05
0.000166769
2.43651e-05
0.000152754
2.80127e-05
0.00013724
3.1023e-05
0.000120469
3.35367e-05
0.000102751
3.54007e-05
8.43413e-05
3.68269e-05
6.55699e-05
3.75274e-05
4.66793e-05
3.77761e-05
2.79226e-05
3.75129e-05
9.5188e-06
3.68001e-05
-8.34108e-06
3.57147e-05
-2.5492e-05
3.43263e-05
-4.18744e-05
3.27346e-05
-5.72842e-05
3.08264e-05
-7.17354e-05
2.88925e-05
-8.51388e-05
2.68039e-05
-9.74852e-05
2.46912e-05
-0.000108777
2.25562e-05
-0.000119071
2.06234e-05
-0.000128359
1.85756e-05
-0.000136715
1.67142e-05
-0.000144141
1.48473e-05
-0.00015069
1.31057e-05
-0.00015652
1.16604e-05
-0.000161549
1.00557e-05
-0.000165852
8.61111e-06
-0.00016946
7.22158e-06
-0.000172388
5.85274e-06
-0.000174667
4.55821e-06
-0.000176322
3.3038e-06
-0.000177334
2.01839e-06
-0.000177737
8.11212e-07
-0.000177501
-4.67737e-07
-0.000176652
-1.69779e-06
-0.000175231
-2.87475e-06
-0.000173248
-3.94e-06
-0.000170616
-5.27374e-06
-0.000167305
-6.62714e-06
-0.000163319
-7.97191e-06
-0.000158617
-9.41183e-06
-0.000153274
-1.06848e-05
-0.000147246
-1.20741e-05
-0.000140557
-1.33768e-05
-0.000133113
-1.48965e-05
-0.000124887
-1.64503e-05
-0.000115782
-1.82191e-05
-0.000105825
-1.99145e-05
-9.49766e-05
-2.17069e-05
-8.33353e-05
-2.32813e-05
-7.09235e-05
-2.48155e-05
-5.78225e-05
-2.62222e-05
-4.39992e-05
-2.7603e-05
-2.96766e-05
-2.86873e-05
-1.4667e-05
-3.00187e-05
9.21429e-07
-3.11861e-05
1.70482e-05
-3.22427e-05
3.36274e-05
-3.31564e-05
5.04868e-05
-3.37083e-05
6.74693e-05
-3.3953e-05
8.43403e-05
-3.37244e-05
0.00010086
-3.30365e-05
0.000116766
-3.18006e-05
0.000131803
-3.0058e-05
0.000145727
-2.78485e-05
0.000158254
-2.50289e-05
0.000169179
-2.18306e-05
0.000178275
-1.81752e-05
0.000185343
-1.41209e-05
0.000190225
-9.74579e-06
0.000192793
-5.13354e-06
0.000192972
-3.5032e-07
0.000190726
4.51622e-06
0.000185951
9.5395e-06
0.000178867
1.41603e-05
0.000169583
1.85631e-05
0.00015829
2.25852e-05
0.000145124
2.63169e-05
0.000130423
2.93896e-05
0.000114433
3.19689e-05
9.74783e-05
3.3904e-05
7.97541e-05
3.54448e-05
6.16578e-05
3.61878e-05
4.33591e-05
3.65976e-05
2.51116e-05
3.64687e-05
7.1473e-06
3.59262e-05
-1.03632e-05
3.49983e-05
-2.73221e-05
3.39022e-05
-4.34976e-05
3.23471e-05
-5.88537e-05
3.07105e-05
-7.32632e-05
2.88036e-05
-8.67016e-05
2.68755e-05
-9.91243e-05
2.48441e-05
-0.000110541
2.28342e-05
-0.000120928
2.07601e-05
-0.000130343
1.88303e-05
-0.000138791
1.68947e-05
-0.000146304
1.50392e-05
-0.000152925
1.32377e-05
-0.000158739
1.16529e-05
-0.000163795
1.01172e-05
-0.00016815
8.72455e-06
-0.000171835
7.36916e-06
-0.000174915
6.16994e-06
-0.000177358
4.88868e-06
-0.000179198
3.69364e-06
-0.000180517
2.64367e-06
-0.000181233
1.41628e-06
-0.000181422
4.14372e-07
-0.000181115
-6.28818e-07
-0.00018022
-1.78011e-06
-0.000178816
-2.80694e-06
-0.000176859
-3.91134e-06
-0.000174381
-4.95665e-06
-0.000171315
-6.13085e-06
-0.000167686
-7.25772e-06
-0.000163529
-8.2941e-06
-0.000158739
-9.58659e-06
-0.00015325
-1.09761e-05
-0.000147089
-1.23293e-05
-0.000140311
-1.35425e-05
-0.000132697
-1.52285e-05
-0.000124374
-1.66425e-05
-0.000115237
-1.82738e-05
-0.000105328
-1.98223e-05
-9.44325e-05
-2.17822e-05
-8.27408e-05
-2.33881e-05
-7.00063e-05
-2.54696e-05
-5.62262e-05
-2.75634e-05
-4.14483e-05
-2.95522e-05
-2.5561e-05
-3.17698e-05
-8.54009e-06
-3.40357e-05
9.49692e-06
-3.60617e-05
2.81229e-05
-3.72451e-05
4.72587e-05
-3.82585e-05
6.67127e-05
-3.88913e-05
8.60175e-05
-3.85943e-05
0.000104945
-3.78343e-05
0.000123191
-3.64777e-05
0.000140499
-3.46068e-05
0.000156606
-3.21962e-05
0.000171038
-2.8847e-05
0.000183653
-2.52225e-05
0.000194145
-2.09762e-05
0.000202177
-1.60484e-05
0.000207695
-1.1032e-05
0.00021062
-5.85124e-06
0.000210593
4.68255e-08
0.000207845
5.48962e-06
0.0002023
1.10836e-05
0.000194434
1.57301e-05
0.000184305
2.02452e-05
0.000172211
2.41775e-05
0.000158336
2.77341e-05
0.000143214
3.02322e-05
0.000126871
3.26694e-05
0.00010987
3.39861e-05
9.24878e-05
3.47561e-05
7.48178e-05
3.5325e-05
5.74077e-05
3.48111e-05
4.02e-05
3.44029e-05
2.36187e-05
3.31566e-05
7.64206e-06
3.19408e-05
-7.5962e-06
3.04774e-05
-2.19703e-05
2.87443e-05
-3.5479e-05
2.70133e-05
-4.80742e-05
2.51908e-05
-5.97887e-05
2.34299e-05
-7.06273e-05
2.16767e-05
-8.06357e-05
2.00173e-05
-8.98774e-05
1.8484e-05
-9.84021e-05
1.70494e-05
-0.000106252
1.56993e-05
-0.000113495
1.44868e-05
-0.000120164
1.33368e-05
-0.000126298
1.22672e-05
-0.000131918
1.12398e-05
-0.000137033
1.02296e-05
-0.000141643
9.21924e-06
-0.000145745
8.20129e-06
-0.000149302
7.11277e-06
-0.000152297
5.98858e-06
-0.000154683
4.77063e-06
-0.000156417
3.46302e-06
-0.000157481
2.12469e-06
-0.000157808
6.63902e-07
-0.000157315
-9.9788e-07
-0.000155973
-2.67882e-06
-0.000153777
-4.39308e-06
-0.000150721
-6.11172e-06
-0.000146785
-7.87382e-06
-0.000141928
-9.71232e-06
-0.000136209
-1.14351e-05
-0.000129479
-1.34618e-05
-0.000121913
-1.51312e-05
-0.000113513
-1.67977e-05
-0.000104122
-1.87795e-05
-9.38607e-05
-2.052e-05
-8.27653e-05
-2.21884e-05
-7.07116e-05
-2.41034e-05
-5.78708e-05
-2.56795e-05
-4.41433e-05
-2.74522e-05
-2.97412e-05
-2.87992e-05
-1.47677e-05
-2.99444e-05
9.80652e-07
-3.14905e-05
1.69181e-05
-3.18701e-05
-3.22938e-05
0.000194867
2.26705e-05
0.000185471
2.81587e-05
0.000173979
3.44385e-05
0.000160506
4.03745e-05
0.000145578
4.47348e-05
0.000129182
4.91321e-05
0.00011176
5.22148e-05
9.3475e-05
5.47977e-05
7.45997e-05
5.65785e-05
5.54402e-05
5.74477e-05
3.63089e-05
5.73351e-05
1.72538e-05
5.7153e-05
-1.26859e-06
5.55e-05
-1.92833e-05
5.4008e-05
-3.65646e-05
5.18183e-05
-5.3049e-05
4.94312e-05
-6.85965e-05
4.6626e-05
-8.3167e-05
4.36995e-05
-9.67462e-05
4.07291e-05
-0.000109294
3.76372e-05
-0.000120813
3.45542e-05
-0.00013133
3.15463e-05
-0.000140848
2.85582e-05
-0.000149405
2.56698e-05
-0.000157046
2.29263e-05
-0.000163794
2.02451e-05
-0.000169696
1.77037e-05
-0.000174788
1.52771e-05
-0.000179083
1.28959e-05
-0.000182638
1.06613e-05
-0.000185462
8.46673e-06
-0.000187573
6.33512e-06
-0.000188975
4.20607e-06
-0.000189678
2.1405e-06
-0.000189657
-2.99781e-08
-0.000188922
-2.20122e-06
-0.000187418
-4.51733e-06
-0.000185176
-6.73112e-06
-0.000182242
-8.80174e-06
-0.000178445
-1.13957e-05
-0.000173899
-1.3656e-05
-0.00016839
-1.65255e-05
-0.000162055
-1.90079e-05
-0.000154888
-2.1515e-05
-0.00014665
-2.47113e-05
-0.000137514
-2.74082e-05
-0.000127531
-2.99633e-05
-0.000116362
-3.34936e-05
-0.000104284
-3.62428e-05
-9.12894e-05
-3.89677e-05
-7.72175e-05
-4.22096e-05
-6.23658e-05
-4.45615e-05
-4.64368e-05
-4.77523e-05
-2.97443e-05
-5.0065e-05
-1.25131e-05
-5.16625e-05
5.32132e-06
-5.34811e-05
2.36144e-05
-5.48405e-05
4.20119e-05
-5.51537e-05
6.05123e-05
-5.54591e-05
7.88137e-05
-5.48692e-05
9.68092e-05
-5.3952e-05
0.000114295
-5.24055e-05
0.000130895
-4.9761e-05
0.000146469
-4.66701e-05
0.000160866
-4.31457e-05
0.000173691
-3.84626e-05
0.000184855
-3.34473e-05
0.000194138
-2.78202e-05
0.000201474
-2.19668e-05
0.000206791
-1.59409e-05
0.0002097
-8.70242e-06
0.000210443
-2.21086e-06
0.000208717
5.15201e-06
0.000204587
1.23911e-05
0.000198299
1.88361e-05
0.000189722
2.57468e-05
0.000179243
3.13849e-05
0.000166895
3.70134e-05
0.000152869
4.20158e-05
0.000137529
4.59915e-05
0.000120934
4.96907e-05
0.000103439
5.24661e-05
8.54758e-05
5.38265e-05
6.70981e-05
5.50804e-05
4.87694e-05
5.49865e-05
3.03592e-05
5.51778e-05
1.21936e-05
5.44699e-05
-5.60961e-06
5.3387e-05
-2.30206e-05
5.21901e-05
-3.9871e-05
5.05386e-05
-5.6091e-05
4.85906e-05
-7.14942e-05
4.61799e-05
-8.59711e-05
4.33905e-05
-9.94247e-05
4.03268e-05
-0.000111813
3.71228e-05
-0.000123053
3.36817e-05
-0.000133134
3.02032e-05
-0.000142034
2.66918e-05
-0.000149896
2.35431e-05
-0.000156622
2.01374e-05
-0.00016234
1.71617e-05
-0.000167082
1.42035e-05
-0.000170927
1.1526e-05
-0.000173907
8.95255e-06
-0.00017609
6.58755e-06
-0.00017758
4.39894e-06
-0.000178324
2.22449e-06
-0.000178373
1.48561e-07
-0.000177751
-1.8691e-06
-0.000176449
-3.90893e-06
-0.00017451
-5.74096e-06
-0.000172011
-7.56123e-06
-0.000168806
-9.63608e-06
-0.000164969
-1.14941e-05
-0.00016048
-1.35083e-05
-0.000155252
-1.5562e-05
-0.000149453
-1.75304e-05
-0.000142891
-1.96794e-05
-0.000135619
-2.18588e-05
-0.000127595
-2.40627e-05
-0.00011881
-2.63675e-05
-0.000109239
-2.86921e-05
-9.8862e-05
-3.11346e-05
-8.76873e-05
-3.35565e-05
-7.56201e-05
-3.62094e-05
-6.28634e-05
-3.8267e-05
-4.9193e-05
-4.10838e-05
-3.4786e-05
-4.31564e-05
-1.95676e-05
-4.56739e-05
-3.69196e-06
-4.75944e-05
1.28475e-05
-4.95804e-05
2.98482e-05
-5.09739e-05
4.72278e-05
-5.21267e-05
6.48133e-05
-5.27661e-05
8.23821e-05
-5.26539e-05
9.97501e-05
-5.20664e-05
0.000116656
-5.07043e-05
0.00013285
-4.8513e-05
0.000148071
-4.56334e-05
0.000162031
-4.18188e-05
0.000174497
-3.73114e-05
0.000185196
-3.20586e-05
0.000193933
-2.61453e-05
0.000200523
-1.96889e-05
0.000204743
-1.26622e-05
0.000206574
-5.46892e-06
0.000205948
1.89293e-06
0.000202736
9.56491e-06
0.000197102
1.69081e-05
0.00018909
2.39974e-05
0.000178889
3.05732e-05
0.000166688
3.65654e-05
0.000152674
4.2027e-05
0.000137148
4.65494e-05
0.00012036
5.03239e-05
0.000102591
5.31702e-05
8.4172e-05
5.52457e-05
6.53746e-05
5.63249e-05
4.64565e-05
5.66942e-05
2.76811e-05
5.62882e-05
9.2634e-06
5.52178e-05
-8.61119e-06
5.35893e-05
-2.57648e-05
5.14799e-05
-4.21631e-05
4.91329e-05
-5.75912e-05
4.62545e-05
-7.20419e-05
4.33433e-05
-8.54399e-05
4.02019e-05
-9.77767e-05
3.70281e-05
-0.000109101
3.38806e-05
-0.000119377
3.08997e-05
-0.000128664
2.7862e-05
-0.000137004
2.50543e-05
-0.000144425
2.22688e-05
-0.000150994
1.96743e-05
-0.00015681
1.74762e-05
-0.000161842
1.50886e-05
-0.000166132
1.29005e-05
-0.000169733
1.08224e-05
-0.000172675
8.79496e-06
-0.000174897
6.78025e-06
-0.000176572
4.97916e-06
-0.000177611
3.0574e-06
-0.000178004
1.20403e-06
-0.000177766
-7.05493e-07
-0.000176923
-2.54046e-06
-0.000175514
-4.28377e-06
-0.000173477
-5.97692e-06
-0.000170879
-7.87159e-06
-0.000167579
-9.92773e-06
-0.00016359
-1.19607e-05
-0.000158896
-1.4106e-05
-0.000153541
-1.60394e-05
-0.000147522
-1.8093e-05
-0.000140824
-2.00748e-05
-0.000133397
-2.23233e-05
-0.000125169
-2.46782e-05
-0.000116066
-2.73228e-05
-0.000106107
-2.98735e-05
-9.52758e-05
-3.2538e-05
-8.36294e-05
-3.49278e-05
-7.11491e-05
-3.72958e-05
-5.81028e-05
-3.92686e-05
-4.43001e-05
-4.14058e-05
-2.99525e-05
-4.3035e-05
-1.4936e-05
-4.50352e-05
6.48776e-07
-4.6771e-05
1.67943e-05
-4.83883e-05
3.33855e-05
-4.97477e-05
5.0261e-05
-5.05838e-05
6.72601e-05
-5.09521e-05
8.41598e-05
-5.06242e-05
0.000100697
-4.95741e-05
0.000116627
-4.77308e-05
0.00013169
-4.51202e-05
0.000145624
-4.1783e-05
0.00015818
-3.75848e-05
0.000169127
-3.27781e-05
0.000178248
-2.72962e-05
0.000185336
-2.12088e-05
0.000190236
-1.46457e-05
0.000192809
-7.70693e-06
0.000192973
-5.14444e-07
0.000190709
6.78067e-06
0.000185938
1.43099e-05
0.000178849
2.1249e-05
0.000169555
2.78576e-05
0.000158216
3.39237e-05
0.00014505
3.94832e-05
0.000130331
4.41083e-05
0.000114314
4.79864e-05
9.73108e-05
5.09068e-05
7.95785e-05
5.31771e-05
6.14435e-05
5.43228e-05
4.31453e-05
5.48957e-05
2.49089e-05
5.47052e-05
6.91189e-06
5.39231e-05
-1.06716e-05
5.25818e-05
-2.76094e-05
5.084e-05
-4.37911e-05
4.85288e-05
-5.9146e-05
4.60655e-05
-7.35833e-05
4.32409e-05
-8.70222e-05
4.03145e-05
-9.94439e-05
3.72659e-05
-0.000110839
3.42297e-05
-0.000121254
3.1175e-05
-0.00013066
2.82362e-05
-0.000139101
2.53357e-05
-0.000146584
2.25224e-05
-0.000153216
1.98699e-05
-0.000158995
1.74325e-05
-0.000164043
1.5165e-05
-0.000168362
1.30443e-05
-0.000172044
1.10508e-05
-0.000175102
9.22906e-06
-0.000177539
7.32537e-06
-0.000179367
5.52198e-06
-0.000180694
3.97106e-06
-0.00018142
2.14182e-06
-0.000181567
5.62351e-07
-0.000181251
-9.44948e-07
-0.000180343
-2.68764e-06
-0.000178945
-4.20454e-06
-0.000176985
-5.87174e-06
-0.0001745
-7.44127e-06
-0.000171432
-9.19876e-06
-0.0001678
-1.08896e-05
-0.000163602
-1.24915e-05
-0.000158835
-1.43542e-05
-0.000153347
-1.64635e-05
-0.000147197
-1.84793e-05
-0.000140393
-2.03463e-05
-0.00013278
-2.28422e-05
-0.000124459
-2.49637e-05
-0.000115311
-2.74215e-05
-0.000105409
-2.97242e-05
-9.45128e-05
-3.26785e-05
-8.28208e-05
-3.50802e-05
-7.00873e-05
-3.82032e-05
-5.63205e-05
-4.13302e-05
-4.15387e-05
-4.43341e-05
-2.56426e-05
-4.76661e-05
-8.60564e-06
-5.10727e-05
9.43683e-06
-5.41042e-05
2.80703e-05
-5.58786e-05
4.72327e-05
-5.74209e-05
6.67183e-05
-5.8377e-05
8.60458e-05
-5.79219e-05
0.000105003
-5.67917e-05
0.000123271
-5.47453e-05
0.000140602
-5.19381e-05
0.000156732
-4.83265e-05
0.000171193
-4.33084e-05
0.000183826
-3.78548e-05
0.000194333
-3.14838e-05
0.000202374
-2.40897e-05
0.000207908
-1.65658e-05
0.000210832
-8.77521e-06
0.000210801
7.75136e-08
0.000208033
8.25734e-06
0.000202485
1.66321e-05
0.000194609
2.36055e-05
0.000184458
3.03962e-05
0.000172346
3.62896e-05
0.000158443
4.16365e-05
0.0001433
4.53754e-05
0.00012693
4.90396e-05
0.000109902
5.10134e-05
9.25052e-05
5.21533e-05
7.48117e-05
5.30185e-05
5.73855e-05
5.22373e-05
4.01579e-05
5.16305e-05
2.3568e-05
4.97464e-05
7.56864e-06
4.79401e-05
-7.66443e-06
4.57104e-05
-2.20423e-05
4.31222e-05
-3.5556e-05
4.0527e-05
-4.815e-05
3.77848e-05
-5.98626e-05
3.51426e-05
-7.07003e-05
3.25143e-05
-8.07051e-05
3.00221e-05
-8.99441e-05
2.7723e-05
-9.84653e-05
2.55706e-05
-0.000106312
2.35464e-05
-0.000113553
2.17273e-05
-0.000120218
2.00018e-05
-0.000126351
1.84004e-05
-0.000131973
1.68617e-05
-0.000137087
1.53439e-05
-0.000141698
1.38302e-05
-0.000145801
1.23045e-05
-0.000149358
1.06691e-05
-0.000152355
8.98542e-06
-0.000154743
7.15909e-06
-0.000156479
5.19857e-06
-0.000157545
3.19127e-06
-0.000157872
9.90554e-07
-0.000157371
-1.49847e-06
-0.000156036
-4.0143e-06
-0.000153843
-6.58581e-06
-0.000150791
-9.16408e-06
-0.000146858
-1.18067e-05
-0.000141997
-1.45734e-05
-0.000136279
-1.71524e-05
-0.000129547
-2.01944e-05
-0.000121978
-2.27e-05
-0.000113583
-2.51925e-05
-0.000104188
-2.81748e-05
-9.3926e-05
-3.0782e-05
-8.28277e-05
-3.32867e-05
-7.07692e-05
-3.61618e-05
-5.79267e-05
-3.85221e-05
-4.41961e-05
-4.11828e-05
-2.97863e-05
-4.32091e-05
-1.48095e-05
-4.49213e-05
9.50977e-07
-4.7251e-05
1.68983e-05
-4.78175e-05
-4.84577e-05
0.000195125
3.02517e-05
0.000185709
3.75748e-05
0.000174193
4.59542e-05
0.000160693
5.3874e-05
0.000145734
5.96941e-05
0.000129305
6.55608e-05
0.000111852
6.96685e-05
9.35338e-05
7.31155e-05
7.46305e-05
7.54818e-05
5.54566e-05
7.66216e-05
3.62722e-05
7.65195e-05
1.72327e-05
7.61924e-05
-1.33717e-06
7.40699e-05
-1.93749e-05
7.20458e-05
-3.66719e-05
6.91153e-05
-5.31689e-05
6.59282e-05
-6.87253e-05
6.21824e-05
-8.33029e-05
5.82772e-05
-9.68871e-05
5.43132e-05
-0.000109439
5.01895e-05
-0.00012096
4.60745e-05
-0.000131476
4.20631e-05
-0.000140993
3.8075e-05
-0.000149548
3.42248e-05
-0.000157187
3.05653e-05
-0.000163935
2.69931e-05
-0.000169835
2.36039e-05
-0.000174925
2.03666e-05
-0.000179223
1.71935e-05
-0.000182779
1.42178e-05
-0.000185607
1.12951e-05
-0.000187714
8.44158e-06
-0.000189109
5.60111e-06
-0.000189798
2.82964e-06
-0.000189752
-7.60301e-08
-0.000189007
-2.94578e-06
-0.000187507
-6.01825e-06
-0.000185272
-8.96615e-06
-0.000182334
-1.17395e-05
-0.000178539
-1.51903e-05
-0.000174004
-1.81917e-05
-0.000168491
-2.20385e-05
-0.00016216
-2.53385e-05
-0.000155004
-2.86712e-05
-0.000146763
-3.29525e-05
-0.00013763
-3.6541e-05
-0.000127654
-3.9939e-05
-0.000116478
-4.46701e-05
-0.000104405
-4.83156e-05
-9.14012e-05
-5.19717e-05
-7.73248e-05
-5.62862e-05
-6.24773e-05
-5.94091e-05
-4.65286e-05
-6.3701e-05
-2.9828e-05
-6.67657e-05
-1.25791e-05
-6.89115e-05
5.26578e-06
-7.13261e-05
2.3578e-05
-7.31529e-05
4.19982e-05
-7.3574e-05
6.05183e-05
-7.39794e-05
7.88394e-05
-7.31903e-05
9.68561e-05
-7.19689e-05
0.00011437
-6.99193e-05
0.000130993
-6.63847e-05
0.000146592
-6.22685e-05
0.000161015
-5.75688e-05
0.000173851
-5.1299e-05
0.000185035
-4.46317e-05
0.000194335
-3.71195e-05
0.0002017
-2.93318e-05
0.000207015
-2.12567e-05
0.000209936
-1.16235e-05
0.000210688
-2.96283e-06
0.000208958
6.88181e-06
0.000204834
1.65154e-05
0.000198525
2.51449e-05
0.000189962
3.43098e-05
0.00017945
4.18976e-05
0.00016708
4.93827e-05
0.000153015
5.60815e-05
0.000137661
6.13457e-05
0.00012101
6.63419e-05
0.000103503
6.99732e-05
8.54885e-05
7.18411e-05
6.70741e-05
7.3495e-05
4.87337e-05
7.3327e-05
3.02823e-05
7.36293e-05
1.20963e-05
7.26561e-05
-5.73317e-06
7.12165e-05
-2.31824e-05
6.96392e-05
-4.00767e-05
6.74328e-05
-5.63257e-05
6.48395e-05
-7.17475e-05
6.16016e-05
-8.62479e-05
5.78906e-05
-9.97211e-05
5.37999e-05
-0.000112128
4.95299e-05
-0.000123388
4.4941e-05
-0.000133489
4.03043e-05
-0.000142444
3.56465e-05
-0.000150264
3.13632e-05
-0.000157007
2.68794e-05
-0.000162713
2.28684e-05
-0.000167469
1.89592e-05