/*--------------------------------*- C++ -*----------------------------------*\
| =========                 |                                                 |
| \\      /  F ield         | OpenFOAM: The Open Source CFD Toolbox           |
|  \\    /   O peration     | Version:  3.0.1                                 |
|   \\  /    A nd           | Web:      www.OpenFOAM.org                      |
|    \\/     M anipulation  |                                                 |
\*---------------------------------------------------------------------------*/
FoamFile
{
    version     2.0;
    format      ascii;
    class       volScalarField;
    location    "17.8";
    object      p;
}
// * * * * * * * * * * * * * * * * * * * * * * * * * * * * * * * * * * * * * //

dimensions      [1 -1 -2 0 0 0 0];

internalField   nonuniform List<scalar> 
21420
(
3550.13
3543.62
3538.5
3534.79
3532.54
3531.74
3532.32
3534.39
3537.95
3543.01
3549.62
3557.84
3567.7
3579.28
3592.61
3607.77
3624.79
3643.71
3664.53
3687.28
3711.93
3738.43
3766.71
3796.68
3828.17
3861.01
3894.46
3929.01
3964.17
3999.49
4034.55
4068.98
4102.35
4134.23
4164.18
4191.79
4216.71
4238.57
4257.09
4272.01
4283.14
4290.33
4293.49
4291.91
4286.25
4276.65
4263.2
4246.16
4225.74
4202.24
4176.02
4147.42
4116.83
4084.65
4051.27
4017.11
3982.57
3948.02
3913.98
3880.88
3848.3
3816.7
3786.33
3757.38
3730
3704.28
3680.3
3658.11
3637.71
3619.12
3602.33
3587.34
3574.13
3562.7
3553.03
3545.09
3538.88
3534.32
3531.43
3530.37
3530.95
3533.15
3536.93
3542.27
3549.14
3557.53
3567.42
3578.81
3591.71
3606.13
3622.12
3639.7
3658.93
3679.84
3702.44
3726.75
3752.73
3780.32
3809.42
3839.9
3871.6
3904.52
3937.91
3971.65
4005.45
4038.96
4071.8
4103.54
4133.8
4162.17
4188.27
4211.73
4232.22
4249.44
4263.14
4273.13
4279.25
4281.37
4279.55
4273.72
4263.99
4250.46
4233.31
4212.74
4189.04
4162.52
4133.55
4102.51
4069.83
4035.93
4001.27
3966.27
3931.36
3896.8
3863.15
3830.59
3799.36
3769.68
3741.69
3715.48
3691.12
3668.65
3648.07
3629.38
3612.55
3597.55
3584.36
3572.92
3563.18
3555.12
3548.69
3543.86
3540.6
3538.9
3538.77
3540.17
3543.14
3547.69
3553.83
3561.62
3571.06
3582.18
3595
3609.54
3625.82
3643.82
3663.54
3684.94
3707.99
3732.63
3758.75
3786.28
3815.1
3845.04
3875.96
3907.66
3939.92
3972.49
4005.08
4037.41
4069.16
4100
4129.59
4157.56
4183.54
4207.19
4228.15
4246.09
4260.69
4271.7
4278.88
4282.05
4281.11
4275.99
4266.78
4253.5
4236.33
4215.51
4191.35
4164.21
4134.5
4102.68
4069.25
4034.72
3999.6
3964.36
3929.48
3895.36
3862.36
3830.75
3800.75
3772.53
3746.17
3721.71
3699.17
3678.5
3659.65
3642.53
3627.09
3613.2
3600.79
3589.77
3580.05
3571.6
3564.36
3558.29
3553.42
3549.72
3547.23
3546
3546.11
3547.56
3550.47
3554.91
3560.97
3568.72
3578.27
3589.7
3603.08
3618.46
3635.9
3655.42
3677
3700.61
3726.21
3753.67
3782.89
3813.69
3845.84
3879.1
3913.24
3947.82
3982.52
4016.96
4050.76
4083.53
4114.83
4144.28
4171.48
4196.1
4217.81
4236.31
4251.38
4262.82
4270.48
4274.28
4274.13
4270.13
4262.35
4250.83
4235.76
4217.35
4195.82
4171.47
4144.58
4115.49
4084.57
4052.19
4018.73
3984.6
3950.17
3915.83
3881.89
3848.73
3816.61
3785.77
3756.43
3728.75
3702.87
3678.87
3656.83
3636.78
3618.71
3602.63
3588.51
3576.32
3566.03
3557.57
3550.92
3546.02
3542.82
3541.32
3541.66
3543.6
3547.11
3552.18
3558.75
3566.82
3576.35
3587.34
3599.77
3613.64
3628.94
3645.67
3663.81
3683.35
3704.28
3726.54
3750.12
3774.95
3800.91
3827.92
3855.85
3884.34
3913.22
3942.7
3972.4
4002.09
4031.45
4060.2
4088.05
4114.69
4139.78
4163.06
4184.24
4203.04
4219.23
4232.56
4242.87
4250.01
4253.86
4254.24
4251.18
4244.74
4234.97
4222.02
4206.08
4187.37
4166.14
4142.73
4117.46
4090.69
4062.81
4034.23
4005.54
3977.4
3951.39
3451.97
3445.47
3440.35
3436.63
3434.38
3433.58
3434.16
3436.23
3439.79
3444.84
3451.46
3459.67
3469.54
3481.1
3494.44
3509.59
3526.61
3545.52
3566.34
3589.1
3613.75
3640.24
3668.53
3698.5
3729.99
3762.84
3796.31
3830.87
3866.04
3901.37
3936.45
3970.9
4004.28
4036.18
4066.15
4093.78
4118.71
4140.6
4159.12
4174.06
4185.19
4192.39
4195.55
4193.96
4188.3
4178.7
4165.24
4148.18
4127.75
4104.24
4077.99
4049.37
4018.77
3986.57
3953.17
3919
3884.44
3849.88
3815.83
3782.73
3750.14
3718.53
3688.16
3659.21
3631.82
3606.1
3582.12
3559.93
3539.53
3520.94
3504.16
3489.16
3475.96
3464.53
3454.86
3446.92
3440.71
3436.15
3433.27
3432.21
3432.79
3434.99
3438.77
3444.11
3450.98
3459.37
3469.26
3480.65
3493.54
3507.97
3523.95
3541.53
3560.75
3581.66
3604.26
3628.58
3654.56
3682.14
3711.25
3741.73
3773.43
3806.37
3839.77
3873.52
3907.34
3940.87
3973.71
4005.48
4035.75
4064.14
4090.26
4113.74
4134.24
4151.47
4165.19
4175.18
4181.3
4183.43
4181.6
4175.77
4166.04
4152.5
4135.33
4114.75
4091.03
4064.5
4035.51
4004.45
3971.75
3937.84
3903.15
3868.14
3833.21
3798.64
3764.98
3732.41
3701.18
3671.5
3643.5
3617.29
3592.94
3570.47
3549.89
3531.2
3514.37
3499.38
3486.19
3474.75
3465.02
3456.95
3450.52
3445.69
3442.44
3440.74
3440.61
3442.01
3444.97
3449.52
3455.67
3463.45
3472.89
3484.01
3496.83
3511.37
3527.64
3545.64
3565.36
3586.77
3609.82
3634.45
3660.58
3688.12
3716.94
3746.88
3777.81
3809.52
3841.79
3874.37
3906.97
3939.31
3971.07
4001.93
4031.53
4059.52
4085.52
4109.18
4130.16
4148.11
4162.73
4173.75
4180.94
4184.12
4183.17
4178.05
4168.84
4155.54
4138.36
4117.53
4093.35
4066.19
4036.45
4004.61
3971.16
3936.61
3901.47
3866.22
3831.33
3797.2
3764.18
3732.56
3702.56
3674.34
3647.98
3623.53
3600.99
3580.32
3561.47
3544.36
3528.92
3515.04
3502.63
3491.61
3481.9
3473.45
3466.21
3460.15
3455.27
3451.57
3449.08
3447.85
3447.95
3449.41
3452.31
3456.75
3462.8
3470.55
3480.09
3491.52
3504.9
3520.28
3537.71
3557.23
3578.81
3602.42
3628.02
3655.49
3684.71
3715.51
3747.67
3780.95
3815.09
3849.69
3884.4
3918.86
3952.68
3985.46
4016.78
4046.24
4073.47
4098.1
4119.82
4138.34
4153.42
4164.86
4172.53
4176.34
4176.18
4172.18
4164.39
4152.87
4137.79
4119.36
4097.82
4073.45
4046.55
4017.44
3986.5
3954.1
3920.63
3886.48
3852.04
3817.68
3783.74
3750.57
3718.43
3687.59
3658.24
3630.56
3604.68
3580.69
3558.64
3538.59
3520.53
3504.45
3490.33
3478.15
3467.85
3459.4
3452.75
3447.85
3444.65
3443.15
3443.5
3445.43
3448.95
3454.02
3460.59
3468.66
3478.19
3489.18
3501.61
3515.48
3530.78
3547.51
3565.65
3585.19
3606.11
3628.38
3651.96
3676.79
3702.76
3729.77
3757.7
3786.2
3815.09
3844.57
3874.28
3903.98
3933.36
3962.12
3989.98
4016.63
4041.74
4065.04
4086.22
4105.04
4121.23
4134.58
4144.9
4152.04
4155.89
4156.28
4153.21
4146.76
4136.99
4124.03
4108.08
4089.35
4068.11
4044.69
4019.4
3992.62
3964.72
3936.13
3907.42
3879.27
3853.25
3353.76
3347.25
3342.14
3338.42
3336.17
3335.36
3335.95
3338.02
3341.57
3346.62
3353.23
3361.44
3371.3
3382.86
3396.19
3411.34
3428.35
3447.26
3468.08
3490.83
3515.48
3541.97
3570.26
3600.24
3631.74
3664.6
3698.1
3732.68
3767.88
3803.24
3838.34
3872.83
3906.25
3938.19
3968.2
3995.86
4020.82
4042.74
4061.29
4076.24
4087.4
4094.6
4097.79
4096.17
4090.51
4080.89
4067.41
4050.32
4029.86
4006.32
3980.04
3951.39
3920.74
3888.51
3855.08
3820.87
3786.28
3751.7
3717.63
3684.51
3651.91
3620.29
3589.91
3560.95
3533.56
3507.84
3483.86
3461.67
3441.28
3422.69
3405.91
3390.92
3377.72
3366.29
3356.62
3348.69
3342.47
3337.92
3335.05
3333.98
3334.56
3336.76
3340.55
3345.89
3352.76
3361.15
3371.03
3382.42
3395.32
3409.73
3425.71
3443.29
3462.5
3483.41
3506.01
3530.32
3556.3
3583.89
3613
3643.49
3675.21
3708.18
3741.59
3775.37
3809.21
3842.77
3875.65
3907.45
3937.76
3966.18
3992.34
4015.85
4036.38
4053.64
4067.37
4077.38
4083.51
4085.66
4083.81
4077.97
4068.23
4054.67
4037.48
4016.87
3993.12
3966.55
3937.52
3906.43
3873.69
3839.74
3805.02
3769.97
3735.02
3700.43
3666.75
3634.16
3602.92
3573.23
3545.23
3519.02
3494.67
3472.2
3451.63
3432.94
3416.12
3401.13
3387.95
3376.51
3366.78
3358.72
3352.3
3347.47
3344.21
3342.52
3342.39
3343.78
3346.75
3351.29
3357.44
3365.22
3374.65
3385.77
3398.59
3413.13
3429.39
3447.4
3467.11
3488.52
3511.57
3536.21
3562.34
3589.89
3618.71
3648.67
3679.61
3711.34
3743.62
3776.22
3808.84
3841.21
3873
3903.89
3933.52
3961.54
3987.57
4011.27
4032.28
4050.26
4064.9
4075.94
4083.15
4086.35
4085.39
4080.27
4071.05
4057.73
4040.53
4019.67
3995.45
3968.25
3938.47
3906.59
3873.09
3838.5
3803.32
3768.04
3733.11
3698.96
3665.92
3634.3
3604.29
3576.06
3549.7
3525.26
3502.72
3482.07
3463.22
3446.12
3430.69
3416.82
3404.42
3393.41
3383.7
3375.25
3368.02
3361.95
3357.07
3353.37
3350.88
3349.65
3349.74
3351.19
3354.09
3358.52
3364.56
3372.3
3381.84
3393.26
3406.63
3422
3439.43
3458.95
3480.53
3504.14
3529.74
3557.22
3586.45
3617.27
3649.44
3682.73
3716.91
3751.52
3786.27
3820.75
3854.61
3887.43
3918.79
3948.28
3975.54
4000.2
4021.95
4040.5
4055.59
4067.05
4074.73
4078.55
4078.39
4074.37
4066.58
4055.04
4039.94
4021.48
3999.92
3975.52
3948.58
3919.44
3888.47
3856.03
3822.53
3788.35
3753.88
3719.5
3685.53
3652.34
3620.19
3589.33
3559.98
3532.29
3506.41
3482.41
3460.37
3440.32
3422.26
3406.19
3392.08
3379.89
3369.6
3361.16
3354.51
3349.62
3346.42
3344.92
3345.27
3347.21
3350.73
3355.8
3362.37
3370.44
3379.97
3390.96
3403.39
3417.26
3432.56
3449.28
3467.42
3486.96
3507.89
3530.16
3553.74
3578.57
3604.54
3631.56
3659.5
3688.02
3716.92
3746.42
3776.15
3805.86
3835.27
3864.05
3891.94
3918.62
3943.76
3967.08
3988.29
4007.13
4023.34
4036.71
4047.04
4054.19
4058.05
4058.45
4055.38
4048.92
4039.13
4026.15
4010.18
3991.42
3970.16
3946.7
3921.38
3894.57
3866.64
3838.02
3809.28
3781.11
3755.07
3255.48
3248.98
3243.87
3240.16
3237.9
3237.09
3237.67
3239.74
3243.29
3248.34
3254.94
3263.14
3272.99
3284.54
3297.86
3313
3330.01
3348.91
3369.73
3392.47
3417.12
3443.62
3471.92
3501.9
3533.42
3566.3
3599.84
3634.45
3669.68
3705.09
3740.24
3774.78
3808.26
3840.25
3870.31
3898.03
3923.04
3945
3963.6
3978.58
3989.75
3996.98
4000.18
3998.53
3992.86
3983.22
3969.71
3952.59
3932.09
3908.49
3882.16
3853.45
3822.76
3790.47
3756.99
3722.73
3688.1
3653.48
3619.38
3586.23
3553.61
3521.98
3491.58
3462.62
3435.22
3409.5
3385.52
3363.33
3342.94
3324.36
3307.58
3292.6
3279.4
3267.98
3258.31
3250.38
3244.17
3239.61
3236.76
3235.69
3236.27
3238.48
3242.26
3247.6
3254.48
3262.86
3272.75
3284.13
3297.02
3311.44
3327.41
3344.97
3364.18
3385.08
3407.68
3431.99
3457.97
3485.57
3514.69
3545.19
3576.92
3609.94
3643.38
3677.19
3711.08
3744.68
3777.61
3809.46
3839.82
3868.3
3894.5
3918.06
3938.64
3955.93
3969.7
3979.73
3985.88
3988.04
3986.17
3980.33
3970.56
3956.98
3939.75
3919.1
3895.31
3868.68
3839.6
3808.45
3775.65
3741.65
3706.87
3671.78
3636.78
3602.16
3568.45
3535.84
3504.58
3474.88
3446.88
3420.67
3396.31
3373.85
3353.29
3334.61
3317.79
3302.81
3289.63
3278.2
3268.48
3260.43
3254.01
3249.18
3245.93
3244.24
3244.1
3245.5
3248.46
3253
3259.14
3266.92
3276.35
3287.46
3300.27
3314.81
3331.07
3349.07
3368.79
3390.19
3413.25
3437.9
3464.04
3491.59
3520.43
3550.4
3581.36
3613.11
3645.42
3678.05
3710.71
3743.11
3774.94
3805.87
3835.55
3863.62
3889.7
3913.45
3934.51
3952.53
3967.21
3978.29
3985.52
3988.75
3987.77
3982.66
3973.41
3960.07
3942.83
3921.92
3897.65
3870.39
3840.54
3808.59
3775.04
3740.38
3705.14
3669.81
3634.84
3600.65
3567.59
3535.95
3505.93
3477.7
3451.34
3426.9
3404.37
3383.73
3364.9
3347.82
3332.4
3318.53
3306.14
3295.15
3285.45
3277.01
3269.78
3263.71
3258.83
3255.13
3252.62
3251.4
3251.48
3252.92
3255.81
3260.22
3266.26
3273.99
3283.51
3294.92
3308.28
3323.65
3341.07
3360.58
3382.16
3405.77
3431.38
3458.86
3488.11
3518.94
3551.14
3584.46
3618.67
3653.33
3688.11
3722.65
3756.55
3789.43
3820.84
3850.38
3877.69
3902.4
3924.2
3942.78
3957.91
3969.39
3977.08
3980.9
3980.75
3976.72
3968.9
3957.34
3942.21
3923.72
3902.11
3877.66
3850.68
3821.49
3790.46
3757.98
3724.43
3690.2
3655.69
3621.26
3587.26
3554.04
3521.87
3491
3461.63
3433.93
3408.04
3384.05
3362.01
3341.96
3323.91
3307.84
3293.74
3281.56
3271.28
3262.84
3256.2
3251.31
3248.12
3246.62
3246.98
3248.92
3252.45
3257.52
3264.1
3272.16
3281.7
3292.68
3305.11
3318.98
3334.27
3351
3369.14
3388.68
3409.6
3431.87
3455.46
3480.29
3506.27
3533.31
3561.26
3589.79
3618.71
3648.24
3677.99
3707.74
3737.18
3766
3793.93
3820.65
3845.83
3869.19
3890.44
3909.32
3925.56
3938.95
3949.31
3956.48
3960.34
3960.77
3957.67
3951.2
3941.39
3928.38
3912.38
3893.58
3872.27
3848.77
3823.4
3796.54
3768.57
3739.9
3711.12
3682.91
3656.84
3157.15
3150.65
3145.55
3141.84
3139.57
3138.76
3139.34
3141.41
3144.95
3149.99
3156.58
3164.78
3174.61
3186.16
3199.46
3214.59
3231.59
3250.48
3271.29
3294.03
3318.68
3345.18
3373.49
3403.49
3435.02
3467.92
3501.53
3536.17
3571.46
3606.92
3642.14
3676.75
3710.29
3742.36
3772.5
3800.29
3825.37
3847.39
3866.03
3881.06
3892.26
3899.5
3902.72
3901.07
3895.38
3885.7
3872.16
3854.98
3834.42
3810.76
3784.36
3755.58
3724.81
3692.45
3658.9
3624.58
3589.89
3555.22
3521.09
3487.9
3455.25
3423.59
3393.18
3364.2
3336.8
3311.08
3287.1
3264.92
3244.53
3225.95
3209.18
3194.2
3181.01
3169.6
3159.93
3152.01
3145.79
3141.25
3138.41
3137.34
3137.92
3140.13
3143.91
3149.26
3156.13
3164.52
3174.4
3185.78
3198.67
3213.07
3229.03
3246.59
3265.79
3286.68
3309.27
3333.58
3359.56
3387.17
3416.3
3446.82
3478.56
3511.65
3545.12
3578.98
3612.92
3646.59
3679.59
3711.51
3741.94
3770.49
3796.76
3820.38
3841.02
3858.36
3872.17
3882.23
3888.4
3890.58
3888.69
3882.84
3873.05
3859.43
3842.15
3821.45
3797.58
3770.89
3741.73
3710.51
3677.64
3643.55
3608.71
3573.55
3538.49
3503.83
3470.08
3437.44
3406.16
3376.45
3348.44
3322.22
3297.88
3275.42
3254.86
3236.19
3219.39
3204.41
3191.24
3179.83
3170.11
3162.07
3155.65
3150.84
3147.59
3145.9
3145.76
3147.15
3150.11
3154.65
3160.78
3168.55
3177.97
3189.08
3201.89
3216.42
3232.68
3250.67
3270.39
3291.8
3314.86
3339.51
3365.66
3393.23
3422.08
3452.07
3483.06
3514.84
3547.19
3579.85
3612.56
3645.01
3676.9
3707.89
3737.63
3765.76
3791.91
3815.73
3836.84
3854.93
3869.66
3880.78
3888.04
3891.29
3890.33
3885.21
3875.93
3862.56
3845.26
3824.29
3799.95
3772.6
3742.68
3710.64
3676.99
3642.26
3606.94
3571.54
3536.52
3502.28
3469.18
3437.51
3407.48
3379.24
3352.89
3328.46
3305.95
3285.32
3266.51
3249.44
3234.04
3220.19
3207.82
3196.83
3187.15
3178.71
3171.49
3165.43
3160.54
3156.84
3154.33
3153.1
3153.16
3154.59
3157.46
3161.87
3167.88
3175.6
3185.11
3196.5
3209.85
3225.2
3242.61
3262.12
3283.69
3307.31
3332.93
3360.42
3389.69
3420.55
3452.77
3486.14
3520.39
3555.1
3589.94
3624.54
3658.52
3691.46
3722.94
3752.56
3779.93
3804.71
3826.56
3845.19
3860.36
3871.87
3879.59
3883.41
3883.27
3879.22
3871.37
3859.78
3844.61
3826.07
3804.4
3779.89
3752.84
3723.59
3692.49
3659.94
3626.32
3592.03
3557.46
3522.99
3488.94
3455.68
3423.48
3392.58
3363.2
3335.49
3309.6
3285.6
3263.56
3243.52
3225.47
3209.42
3195.32
3183.16
3172.88
3164.46
3157.82
3152.94
3149.75
3148.26
3148.62
3150.58
3154.11
3159.18
3165.76
3173.83
3183.36
3194.34
3206.77
3220.64
3235.93
3252.65
3270.79
3290.32
3311.25
3333.52
3357.11
3381.95
3407.95
3434.99
3462.97
3491.53
3520.47
3550.03
3579.82
3609.61
3639.09
3667.97
3695.95
3722.72
3747.96
3771.37
3792.67
3811.6
3827.89
3841.32
3851.7
3858.89
3862.76
3863.21
3860.1
3853.61
3843.77
3830.73
3814.67
3795.83
3774.46
3750.9
3725.46
3698.54
3670.51
3641.78
3612.95
3584.69
3558.58
3058.76
3052.27
3047.17
3043.46
3041.19
3040.38
3040.96
3043.02
3046.55
3051.58
3058.16
3066.34
3076.17
3087.7
3100.99
3116.1
3133.09
3151.97
3172.77
3195.51
3220.15
3246.66
3274.97
3304.99
3336.55
3369.48
3403.16
3437.85
3473.2
3508.73
3544.03
3578.73
3612.36
3644.52
3674.75
3702.63
3727.8
3749.89
3768.6
3783.68
3794.93
3802.19
3805.4
3803.76
3798.05
3788.33
3774.73
3757.49
3736.86
3713.12
3686.63
3657.76
3626.9
3594.45
3560.81
3526.41
3491.65
3456.92
3422.74
3389.51
3356.82
3325.13
3294.7
3265.71
3238.3
3212.58
3188.6
3166.42
3146.04
3127.47
3110.71
3095.74
3082.55
3071.14
3061.48
3053.56
3047.35
3042.81
3039.99
3038.92
3039.5
3041.71
3045.51
3050.85
3057.73
3066.11
3076
3087.37
3100.25
3114.64
3130.59
3148.13
3167.32
3188.2
3210.78
3235.09
3261.08
3288.69
3317.84
3348.39
3380.15
3413.32
3446.83
3480.75
3514.76
3548.5
3581.58
3613.59
3644.11
3672.75
3699.1
3722.81
3743.51
3760.92
3774.78
3784.88
3791.07
3793.26
3791.37
3785.5
3775.68
3762.01
3744.67
3723.9
3699.96
3673.17
3643.92
3612.6
3579.64
3545.46
3510.53
3475.29
3440.16
3405.45
3371.64
3338.96
3307.66
3277.93
3249.91
3223.7
3199.35
3176.91
3156.36
3137.7
3120.9
3105.94
3092.79
3081.38
3071.68
3063.64
3057.24
3052.43
3049.18
3047.49
3047.35
3048.74
3051.69
3056.23
3062.35
3070.12
3079.53
3090.63
3103.43
3117.95
3134.21
3152.2
3171.91
3193.33
3216.4
3241.05
3267.21
3294.8
3323.67
3353.69
3384.71
3416.53
3448.92
3481.64
3514.4
3546.91
3578.87
3609.93
3639.75
3667.96
3694.2
3718.09
3739.29
3757.45
3772.25
3783.42
3790.73
3793.99
3793.05
3787.92
3778.61
3765.19
3747.83
3726.78
3702.35
3674.9
3644.87
3612.72
3578.97
3544.13
3508.71
3473.23
3438.13
3403.83
3370.69
3338.99
3308.95
3280.7
3254.35
3229.93
3207.43
3186.82
3168.04
3150.99
3135.61
3121.79
3109.43
3098.47
3088.79
3080.37
3073.15
3067.09
3062.21
3058.5
3055.98
3054.74
3054.79
3056.2
3059.06
3063.45
3069.44
3077.14
3086.63
3098
3111.33
3126.67
3144.07
3163.57
3185.14
3208.76
3234.39
3261.9
3291.19
3322.07
3354.34
3387.75
3422.07
3456.84
3491.76
3526.43
3560.49
3593.52
3625.09
3654.8
3682.26
3707.11
3729.03
3747.73
3762.95
3774.5
3782.24
3786.07
3785.93
3781.87
3773.99
3762.35
3747.13
3728.53
3706.79
3682.21
3655.07
3625.73
3594.56
3561.92
3528.22
3493.85
3459.21
3424.67
3390.57
3357.26
3325.02
3294.09
3264.68
3236.96
3211.06
3187.06
3165.03
3144.99
3126.95
3110.91
3096.83
3084.67
3074.41
3066
3059.37
3054.5
3051.33
3049.82
3050.21
3052.17
3055.7
3060.78
3067.36
3075.43
3084.96
3095.94
3108.38
3122.24
3137.52
3154.24
3172.37
3191.91
3212.83
3235.11
3258.71
3283.55
3309.56
3336.63
3364.63
3393.22
3422.19
3451.79
3481.62
3511.46
3541.01
3569.95
3598
3624.84
3650.14
3673.62
3694.99
3713.97
3730.32
3743.79
3754.22
3761.43
3765.32
3765.78
3762.67
3756.15
3746.27
3733.18
3717.07
3698.16
3676.72
3653.08
3627.57
3600.57
3572.45
3543.66
3514.76
3486.43
3460.27
2960.31
2953.83
2948.73
2945.03
2942.76
2941.94
2942.51
2944.57
2948.09
2953.11
2959.68
2967.85
2977.65
2989.16
3002.43
3017.53
3034.51
3053.38
3074.17
3096.9
3121.54
3148.05
3176.38
3206.41
3238
3270.96
3304.73
3339.49
3374.91
3410.53
3445.92
3480.72
3514.47
3546.74
3577.08
3605.07
3630.33
3652.52
3671.31
3686.45
3697.74
3705.03
3708.25
3706.61
3700.87
3691.11
3677.44
3660.13
3639.41
3615.57
3588.97
3559.99
3529.02
3496.46
3462.73
3428.23
3393.38
3358.57
3324.34
3291.05
3258.33
3226.6
3196.15
3167.14
3139.72
3114
3090.02
3067.85
3047.47
3028.91
3012.16
2997.2
2984.02
2972.62
2962.97
2955.05
2948.85
2944.32
2941.5
2940.43
2941.03
2943.24
2947.03
2952.38
2959.26
2967.65
2977.53
2988.9
3001.76
3016.14
3032.08
3049.6
3068.78
3089.64
3112.22
3136.52
3162.51
3190.14
3219.31
3249.88
3281.66
3314.95
3348.5
3382.48
3416.58
3450.41
3483.59
3515.7
3546.33
3575.08
3601.54
3625.34
3646.13
3663.62
3677.54
3687.69
3693.9
3696.1
3694.22
3688.32
3678.45
3664.73
3647.32
3626.46
3602.42
3575.54
3546.18
3514.74
3481.66
3447.37
3412.34
3377
3341.78
3307.01
3273.14
3240.41
3209.08
3179.33
3151.3
3125.08
3100.74
3078.31
3057.77
3039.13
3022.35
3007.4
2994.26
2982.87
2973.18
2965.15
2958.76
2953.96
2950.72
2949.03
2948.88
2950.27
2953.22
2957.74
2963.86
2971.61
2981.02
2992.11
3004.9
3019.41
3035.66
3053.65
3073.37
3094.78
3117.86
3142.52
3168.7
3196.3
3225.2
3255.26
3286.31
3318.17
3350.62
3383.39
3416.22
3448.81
3480.85
3512.01
3541.92
3570.23
3596.56
3620.55
3641.85
3660.09
3674.97
3686.21
3693.57
3696.86
3695.94
3690.79
3681.45
3667.97
3650.53
3629.39
3604.85
3577.28
3547.12
3514.84
3480.95
3445.99
3410.46
3374.87
3339.68
3305.32
3272.13
3240.39
3210.32
3182.07
3155.72
3131.32
3108.84
3088.25
3069.49
3052.48
3037.13
3023.32
3010.99
3000.05
2990.39
2981.98
2974.77
2968.71
2963.83
2960.11
2957.59
2956.33
2956.37
2957.76
2960.6
2964.96
2970.93
2978.6
2988.07
2999.42
3012.73
3028.05
3045.44
3064.93
3086.5
3110.12
3135.76
3163.29
3192.6
3223.53
3255.84
3289.31
3323.7
3358.55
3393.55
3428.32
3462.48
3495.62
3527.29
3557.11
3584.67
3609.62
3631.63
3650.4
3665.68
3677.28
3685.05
3688.89
3688.75
3684.67
3676.75
3665.06
3649.78
3631.1
3609.28
3584.6
3557.37
3527.93
3496.65
3463.91
3430.11
3395.65
3360.92
3326.3
3292.13
3258.77
3226.48
3195.52
3166.08
3138.35
3112.43
3088.43
3066.4
3046.38
3028.35
3012.32
2998.25
2986.11
2975.87
2967.46
2960.86
2955.99
2952.83
2951.33
2951.73
2953.7
2957.24
2962.32
2968.91
2976.98
2986.51
2997.49
3009.92
3023.77
3039.05
3055.77
3073.9
3093.43
3114.36
3136.63
3160.24
3185.1
3211.12
3238.21
3266.23
3294.87
3323.88
3353.52
3383.41
3413.31
3442.93
3471.94
3500.08
3527
3552.38
3575.95
3597.39
3616.45
3632.86
3646.39
3656.86
3664.1
3668.01
3668.48
3665.37
3658.81
3648.89
3635.74
3619.57
3600.58
3579.05
3555.32
3529.71
3502.62
3474.41
3445.53
3416.54
3388.14
3361.92
2861.8
2855.33
2850.24
2846.54
2844.27
2843.44
2844.01
2846.06
2849.58
2854.58
2861.13
2869.28
2879.07
2890.56
2903.81
2918.89
2935.85
2954.7
2975.48
2998.2
3022.85
3049.36
3077.7
3107.75
3139.37
3172.38
3206.25
3241.07
3276.58
3312.31
3347.81
3382.73
3416.61
3449.01
3479.48
3507.6
3532.98
3555.27
3574.15
3589.37
3600.71
3608.04
3611.26
3609.63
3603.85
3594.03
3580.29
3562.89
3542.06
3518.11
3491.39
3462.28
3431.18
3398.5
3364.64
3330.04
3295.09
3260.19
3225.9
3192.54
3159.76
3128
3097.52
3068.49
3041.06
3015.33
2991.36
2969.19
2948.83
2930.28
2913.54
2898.58
2885.42
2874.03
2864.38
2856.47
2850.27
2845.76
2842.95
2841.88
2842.48
2844.7
2848.5
2853.85
2860.73
2869.12
2879
2890.36
2903.21
2917.58
2933.5
2951.01
2970.16
2991.01
3013.57
3037.87
3063.87
3091.51
3120.7
3151.31
3183.11
3216.52
3250.12
3284.19
3318.38
3352.33
3385.62
3417.86
3448.61
3477.48
3504.06
3527.97
3548.87
3566.45
3580.44
3590.64
3596.89
3599.1
3597.22
3591.29
3581.37
3567.58
3550.09
3529.13
3504.98
3477.97
3448.48
3416.92
3383.7
3349.28
3314.12
3278.67
3243.35
3208.5
3174.56
3141.79
3110.42
3080.64
3052.6
3026.39
3002.05
2979.62
2959.1
2940.47
2923.71
2908.78
2895.66
2884.28
2874.61
2866.6
2860.21
2855.42
2852.19
2850.5
2850.35
2851.74
2854.68
2859.19
2865.3
2873.05
2882.44
2893.52
2906.3
2920.8
2937.04
2955.03
2974.74
2996.16
3019.24
3043.92
3070.12
3097.74
3126.67
3156.76
3187.86
3219.77
3252.28
3285.13
3318.03
3350.71
3382.85
3414.11
3444.13
3472.55
3499
3523.11
3544.51
3562.86
3577.84
3589.15
3596.56
3599.89
3598.99
3593.83
3584.44
3570.9
3553.37
3532.12
3507.45
3479.74
3449.42
3416.99
3382.95
3347.84
3312.18
3276.46
3241.18
3206.73
3173.48
3141.7
3111.61
3083.35
3057.01
3032.62
3010.16
2989.6
2970.87
2953.89
2938.57
2924.8
2912.5
2901.58
2891.94
2883.55
2876.34
2870.29
2865.4
2861.67
2859.14
2857.87
2857.89
2859.26
2862.07
2866.41
2872.36
2880
2889.44
2900.76
2914.05
2929.35
2946.72
2966.2
2987.76
3011.39
3037.04
3064.59
3093.94
3124.9
3157.27
3190.81
3225.28
3260.22
3295.33
3330.21
3364.49
3397.75
3429.55
3459.48
3487.17
3512.23
3534.34
3553.2
3568.55
3580.21
3588.01
3591.86
3591.72
3587.62
3579.65
3567.91
3552.55
3533.79
3511.87
3487.08
3459.74
3430.18
3398.78
3365.92
3332
3297.43
3262.6
3227.89
3193.64
3160.21
3127.87
3096.86
3067.4
3039.64
3013.72
2989.72
2967.69
2947.67
2929.66
2913.65
2899.6
2887.48
2877.25
2868.86
2862.27
2857.42
2854.27
2852.78
2853.19
2855.17
2858.71
2863.8
2870.39
2878.46
2887.99
2898.97
2911.4
2925.25
2940.53
2957.24
2975.36
2994.89
3015.82
3038.1
3061.71
3086.58
3112.62
3139.73
3167.79
3196.47
3225.52
3255.22
3285.18
3315.15
3344.85
3373.96
3402.18
3429.2
3454.68
3478.34
3499.87
3519.01
3535.5
3549.1
3559.62
3566.9
3570.83
3571.32
3568.2
3561.6
3551.63
3538.42
3522.16
3503.08
3481.45
3457.61
3431.9
3404.69
3376.38
3347.39
3318.31
3289.82
3263.53
2763.23
2756.77
2751.69
2748
2745.72
2744.89
2745.46
2747.5
2751
2755.99
2762.52
2770.65
2780.42
2791.88
2805.11
2820.17
2837.1
2855.94
2876.71
2899.42
2924.06
2950.58
2978.94
3009.02
3040.67
3073.73
3107.71
3142.61
3178.22
3214.07
3249.7
3284.76
3318.78
3351.33
3381.95
3410.21
3435.73
3458.15
3477.13
3492.43
3503.84
3511.2
3514.43
3512.8
3506.98
3497.1
3483.28
3465.78
3444.83
3420.74
3393.88
3364.63
3333.38
3300.55
3266.56
3231.82
3196.76
3161.76
3127.4
3093.97
3061.13
3029.33
2998.81
2969.76
2942.32
2916.59
2892.62
2870.46
2850.1
2831.57
2814.84
2799.9
2786.74
2775.36
2765.73
2757.82
2751.63
2747.13
2744.33
2743.27
2743.88
2746.1
2749.91
2755.26
2762.15
2770.54
2780.41
2791.76
2804.6
2818.95
2834.85
2852.34
2871.47
2892.3
2914.85
2939.15
2965.15
2992.8
3022.03
3052.67
3084.5
3118.04
3151.7
3185.87
3220.17
3254.24
3287.67
3320.05
3350.94
3379.95
3406.67
3430.72
3451.73
3469.41
3483.49
3493.75
3500.04
3502.27
3500.38
3494.41
3484.44
3470.58
3452.99
3431.92
3407.64
3380.49
3350.85
3319.13
3285.76
3251.19
3215.89
3180.31
3144.87
3109.94
3075.92
3043.08
3011.67
2981.87
2953.82
2927.6
2903.27
2880.86
2860.35
2841.74
2825
2810.09
2796.99
2785.63
2775.98
2767.98
2761.61
2756.83
2753.6
2751.91
2751.76
2753.14
2756.07
2760.58
2766.68
2774.41
2783.79
2794.85
2807.62
2822.12
2838.35
2856.33
2876.04
2897.46
2920.55
2945.25
2971.46
2999.11
3028.08
3058.21
3089.36
3121.33
3153.91
3186.84
3219.83
3252.61
3284.86
3316.23
3346.38
3374.93
3401.51
3425.76
3447.29
3465.75
3480.84
3492.24
3499.72
3503.09
3502.2
3497.03
3487.6
3473.97
3456.35
3434.97
3410.15
3382.27
3351.79
3319.17
3284.96
3249.68
3213.87
3178.02
3142.62
3108.07
3074.75
3042.92
3012.81
2984.54
2958.2
2933.83
2911.4
2890.88
2872.18
2855.24
2839.95
2826.22
2813.95
2803.05
2793.44
2785.06
2777.86
2771.81
2766.92
2763.19
2760.65
2759.36
2759.35
2760.7
2763.49
2767.8
2773.71
2781.32
2790.73
2802.02
2815.28
2830.55
2847.91
2867.37
2888.93
2912.57
2938.23
2965.8
2995.19
3026.2
3058.64
3092.25
3126.81
3161.86
3197.08
3232.09
3266.51
3299.91
3331.85
3361.93
3389.75
3414.94
3437.16
3456.12
3471.56
3483.28
3491.12
3494.99
3494.85
3490.72
3482.7
3470.89
3455.45
3436.58
3414.55
3389.64
3362.17
3332.47
3300.94
3267.94
3233.89
3199.19
3164.25
3129.43
3095.1
3061.59
3029.18
2998.13
2968.63
2940.85
2914.92
2890.91
2868.9
2848.89
2830.89
2814.89
2800.87
2788.76
2778.55
2770.19
2763.61
2758.78
2755.65
2754.18
2754.58
2756.57
2760.13
2765.22
2771.82
2779.89
2789.42
2800.4
2812.82
2826.66
2841.94
2858.64
2876.76
2896.29
2917.21
2939.5
2963.12
2988
3014.06
3041.21
3069.3
3098.03
3127.14
3156.89
3186.92
3216.99
3246.78
3275.98
3304.32
3331.45
3357.04
3380.8
3402.44
3421.68
3438.25
3451.93
3462.51
3469.84
3473.79
3474.29
3471.16
3464.52
3454.49
3441.21
3424.86
3405.67
3383.92
3359.96
3334.12
3306.79
3278.35
3249.25
3220.05
3191.46
3165.09
2664.61
2658.16
2653.09
2649.4
2647.12
2646.28
2646.85
2648.88
2652.36
2657.34
2663.85
2671.95
2681.69
2693.13
2706.33
2721.36
2738.28
2757.1
2777.85
2800.56
2825.19
2851.72
2880.09
2910.2
2941.89
2975.01
3009.11
3044.1
3079.83
3115.81
3151.59
3186.8
3220.98
3253.7
3284.5
3312.92
3338.58
3361.14
3380.25
3395.64
3407.12
3414.52
3417.76
3416.13
3410.27
3400.32
3386.4
3368.78
3347.7
3323.47
3296.45
3267.03
3235.61
3202.62
3168.48
3133.6
3098.41
3063.3
3028.85
2995.33
2962.43
2930.58
2900.03
2870.96
2843.5
2817.76
2793.8
2771.64
2751.3
2732.78
2716.06
2701.14
2688
2676.63
2667
2659.11
2652.93
2648.44
2645.64
2644.59
2645.21
2647.44
2651.25
2656.61
2663.5
2671.89
2681.76
2693.1
2705.93
2720.26
2736.13
2753.6
2772.71
2793.52
2816.05
2840.34
2866.35
2894.02
2923.28
2953.97
2985.84
3019.51
3053.24
3087.52
3121.95
3156.16
3189.74
3222.27
3253.33
3282.5
3309.38
3333.57
3354.72
3372.51
3386.68
3397.01
3403.34
3405.59
3403.69
3397.69
3387.66
3373.71
3356.02
3334.82
3310.39
3283.08
3253.28
3221.38
3187.84
3153.11
3117.64
3081.92
3046.35
3011.31
2977.2
2944.3
2912.84
2883.01
2854.94
2828.73
2804.41
2782.01
2761.52
2742.93
2726.21
2711.33
2698.25
2686.91
2677.28
2669.3
2662.94
2658.17
2654.95
2653.27
2653.12
2654.49
2657.41
2661.9
2667.99
2675.71
2685.08
2696.12
2708.88
2723.36
2739.58
2757.55
2777.27
2798.69
2821.79
2846.5
2872.74
2900.42
2929.42
2959.59
2990.8
3022.84
3055.5
3088.52
3121.62
3154.51
3186.88
3218.39
3248.68
3277.37
3304.11
3328.5
3350.17
3368.77
3383.98
3395.48
3403.04
3406.45
3405.58
3400.4
3390.91
3377.2
3359.46
3337.94
3312.95
3284.89
3254.21
3221.4
3186.99
3151.52
3115.52
3079.52
3043.99
3009.34
2975.94
2944.06
2913.91
2885.64
2859.31
2834.95
2812.56
2792.07
2773.42
2756.51
2741.27
2727.57
2715.34
2704.48
2694.89
2686.53
2679.34
2673.3
2668.4
2664.66
2662.11
2660.8
2660.77
2662.09
2664.85
2669.12
2675
2682.57
2691.94
2703.2
2716.43
2731.68
2749.01
2768.46
2790.02
2813.66
2839.33
2866.93
2896.36
2927.43
2959.93
2993.63
3028.3
3063.47
3098.82
3133.97
3168.54
3202.1
3234.2
3264.44
3292.41
3317.75
3340.1
3359.18
3374.71
3386.5
3394.39
3398.28
3398.13
3393.98
3385.9
3374.01
3358.47
3339.5
3317.34
3292.29
3264.66
3234.82
3203.12
3169.98
3135.78
3100.94
3065.86
3030.93
2996.49
2962.89
2930.42
2899.31
2869.78
2841.98
2816.03
2792.02
2770.01
2750.01
2732.04
2716.06
2702.05
2689.97
2679.79
2671.44
2664.88
2660.07
2656.96
2655.5
2655.92
2657.92
2661.48
2666.58
2673.18
2681.26
2690.79
2701.76
2714.18
2728.02
2743.29
2759.98
2778.1
2797.62
2818.54
2840.83
2864.46
2889.36
2915.45
2942.62
2970.76
2999.55
3028.71
3058.54
3088.65
3118.81
3148.71
3178.03
3206.48
3233.74
3259.45
3283.34
3305.09
3324.44
3341.11
3354.87
3365.52
3372.9
3376.88
3377.39
3374.25
3367.57
3357.48
3344.11
3327.66
3308.35
3286.47
3262.37
3236.39
3208.92
3180.34
3151.1
3121.78
3093.07
3066.61
2565.93
2559.49
2554.43
2550.75
2548.47
2547.62
2548.18
2550.2
2553.67
2558.62
2565.11
2573.19
2582.9
2594.31
2607.48
2622.48
2639.37
2658.17
2678.91
2701.6
2726.23
2752.77
2781.16
2811.3
2843.04
2876.22
2910.44
2945.54
2981.4
3017.52
3053.47
3088.85
3123.22
3156.12
3187.11
3215.71
3241.55
3264.26
3283.5
3299
3310.55
3318
3321.25
3319.62
3313.72
3303.68
3289.66
3271.92
3250.69
3226.28
3199.09
3169.48
3137.88
3104.71
3070.39
3035.35
3000.02
2964.79
2930.24
2896.63
2863.67
2831.75
2801.16
2772.07
2744.6
2718.86
2694.9
2672.75
2652.42
2633.91
2617.21
2602.31
2589.18
2577.82
2568.21
2560.33
2554.16
2549.68
2546.88
2545.85
2546.48
2548.72
2552.53
2557.9
2564.79
2573.18
2583.05
2594.38
2607.19
2621.5
2637.35
2654.78
2673.87
2694.65
2717.17
2741.45
2767.47
2795.16
2824.45
2855.19
2887.13
2920.9
2954.73
2989.13
3023.71
3058.08
3091.82
3124.53
3155.77
3185.12
3212.17
3236.52
3257.82
3275.74
3290.02
3300.42
3306.81
3309.07
3307.17
3301.13
3291.03
3276.99
3259.17
3237.83
3213.24
3185.75
3155.76
3123.67
3089.94
3055.01