/*--------------------------------*- C++ -*----------------------------------*\
| =========                 |                                                 |
| \\      /  F ield         | OpenFOAM: The Open Source CFD Toolbox           |
|  \\    /   O peration     | Version:  3.0.1                                 |
|   \\  /    A nd           | Web:      www.OpenFOAM.org                      |
|    \\/     M anipulation  |                                                 |
\*---------------------------------------------------------------------------*/
FoamFile
{
    version     2.0;
    format      ascii;
    class       surfaceScalarField;
    location    "9.2";
    object      phi;
}
// * * * * * * * * * * * * * * * * * * * * * * * * * * * * * * * * * * * * * //

dimensions      [0 3 -1 0 0 0 0];

internalField   nonuniform List<scalar> 
42423
(
-4.76781e-05
-1.15609e-05
-3.49159e-05
-1.27628e-05
-2.11845e-05
-1.37321e-05
-6.63578e-06
-1.45493e-05
8.78983e-06
-1.54261e-05
2.46487e-05
-1.58593e-05
4.10514e-05
-1.64032e-05
5.76042e-05
-1.65531e-05
7.40166e-05
-1.64129e-05
9.02618e-05
-1.62456e-05
0.000106002
-1.57407e-05
0.000120885
-1.48833e-05
0.000134778
-1.38932e-05
0.000147383
-1.26061e-05
0.000158476
-1.10931e-05
0.000167802
-9.326e-06
0.000175083
-7.28112e-06
0.000180215
-5.13247e-06
0.00018302
-2.80579e-06
0.000183444
-4.23896e-07
0.000181544
1.89935e-06
0.000177182
4.36155e-06
0.000170357
6.82485e-06
0.000161469
8.8878e-06
0.000150536
1.09332e-05
0.000138007
1.25285e-05
0.000123984
1.40235e-05
0.000108743
1.524e-05
9.28822e-05
1.5861e-05
7.65465e-05
1.63355e-05
6.00437e-05
1.65027e-05
4.38804e-05
1.61632e-05
2.81589e-05
1.57214e-05
1.33593e-05
1.47996e-05
-6.78766e-07
1.4038e-05
-1.3228e-05
1.25491e-05
-2.45148e-05
1.12867e-05
-3.44836e-05
9.9687e-06
-4.30683e-05
8.58469e-06
-5.02187e-05
7.15037e-06
-5.59391e-05
5.72042e-06
-6.02222e-05
4.28306e-06
-6.31225e-05
2.90033e-06
-6.47407e-05
1.61814e-06
-6.51022e-05
3.61445e-07
-6.46894e-05
-4.12811e-07
-6.36113e-05
-1.0781e-06
-6.19702e-05
-1.64111e-06
-5.99023e-05
-2.06785e-06
-5.7515e-05
-2.38733e-06
-5.48879e-05
-2.62706e-06
-5.21308e-05
-2.75709e-06
-4.92923e-05
-2.83859e-06
-4.64545e-05
-2.83779e-06
-4.36619e-05
-2.79262e-06
-4.09273e-05
-2.73453e-06
-3.82861e-05
-2.64123e-06
-3.57405e-05
-2.54564e-06
-3.32642e-05
-2.4763e-06
-3.08154e-05
-2.4488e-06
-2.83242e-05
-2.49118e-06
-2.57986e-05
-2.52563e-06
-2.32739e-05
-2.52472e-06
-2.07586e-05
-2.51526e-06
-1.82446e-05
-2.51401e-06
-1.572e-05
-2.5246e-06
-1.31607e-05
-2.55933e-06
-1.05419e-05
-2.61876e-06
-7.8426e-06
-2.69933e-06
-5.04416e-06
-2.79845e-06
-2.146e-06
-2.89816e-06
8.94261e-07
-3.04026e-06
4.08161e-06
-3.18735e-06
7.39455e-06
-3.31294e-06
1.08117e-05
-3.41716e-06
1.43022e-05
-3.49051e-06
1.78346e-05
-3.53236e-06
2.13718e-05
-3.53726e-06
2.48746e-05
-3.50278e-06
2.83024e-05
-3.42782e-06
3.16123e-05
-3.30993e-06
3.47672e-05
-3.15481e-06
3.77259e-05
-2.95878e-06
4.04469e-05
-2.72096e-06
4.29074e-05
-2.46055e-06
4.50849e-05
-2.17743e-06
4.69421e-05
-1.85723e-06
4.84436e-05
-1.50148e-06
4.96263e-05
-1.18275e-06
5.04415e-05
-8.15164e-07
5.08773e-05
-4.35859e-07
5.09721e-05
-9.47646e-08
5.06954e-05
2.76722e-07
5.00761e-05
6.1926e-07
4.91347e-05
9.41374e-07
4.78814e-05
1.25336e-06
4.63418e-05
1.5396e-06
4.45651e-05
1.77666e-06
4.25805e-05
1.98463e-06
4.04292e-05
2.15124e-06
3.81562e-05
2.27307e-06
3.57907e-05
2.36542e-06
3.3374e-05
2.41674e-06
3.09308e-05
2.44318e-06
2.84924e-05
2.43841e-06
2.60671e-05
2.42534e-06
2.36647e-05
2.40238e-06
2.12984e-05
2.3663e-06
1.89598e-05
2.33855e-06
1.66534e-05
2.30645e-06
1.43524e-05
2.30093e-06
1.2065e-05
2.2874e-06
9.77753e-06
2.2875e-06
7.4787e-06
2.29882e-06
5.17021e-06
2.30849e-06
2.85925e-06
2.31095e-06
5.49769e-07
2.30948e-06
-1.72906e-06
2.27882e-06
-3.96113e-06
2.23207e-06
-6.11819e-06
2.15705e-06
-8.17091e-06
2.05272e-06
-1.00891e-05
1.91822e-06
-1.18501e-05
1.76095e-06
-1.34382e-05
1.58808e-06
-1.48319e-05
1.39372e-06
-1.60353e-05
1.20337e-06
-1.7035e-05
9.9977e-07
-1.78407e-05
8.05705e-07
-1.8446e-05
6.05256e-07
-1.88675e-05
4.21534e-07
-1.91279e-05
2.60419e-07
-1.92191e-05
9.11862e-08
-1.91547e-05
-6.44019e-08
-1.8936e-05
-2.18766e-07
-1.85678e-05
-3.68202e-07
-1.80444e-05
-5.23341e-07
-1.73663e-05
-6.78171e-07
-1.652e-05
-8.46275e-07
-1.55147e-05
-1.00533e-06
-1.43333e-05
-1.18136e-06
-1.29571e-05
-1.37621e-06
-1.13749e-05
-1.5822e-06
-9.57596e-06
-1.79895e-06
-7.56514e-06
-2.01083e-06
-5.32537e-06
-2.23977e-06
-2.85709e-06
-2.46828e-06
-1.53048e-07
-2.70405e-06
2.76836e-06
-2.92141e-06
5.90655e-06
-3.1382e-06
9.23884e-06
-3.33229e-06
1.27476e-05
-3.50877e-06
1.64057e-05
-3.65814e-06
2.01765e-05
-3.77081e-06
2.40244e-05
-3.84787e-06
2.78993e-05
-3.87495e-06
3.17507e-05
-3.85141e-06
3.55268e-05
-3.77607e-06
3.91693e-05
-3.64252e-06
4.26175e-05
-3.44821e-06
4.58122e-05
-3.19466e-06
4.86984e-05
-2.88621e-06
5.12129e-05
-2.51448e-06
5.33093e-05
-2.09644e-06
5.49453e-05
-1.63603e-06
5.60792e-05
-1.13394e-06
5.66851e-05
-6.05839e-07
5.67442e-05
-5.91338e-08
5.62458e-05
4.98408e-07
5.51818e-05
1.06395e-06
5.35638e-05
1.61799e-06
5.14109e-05
2.15289e-06
4.87446e-05
2.66628e-06
4.56017e-05
3.1429e-06
4.20184e-05
3.58334e-06
3.80447e-05
3.97371e-06
3.37359e-05
4.30876e-06
2.91426e-05
4.59327e-06
2.43271e-05
4.81552e-06
1.93495e-05
4.97753e-06
1.42697e-05
5.07987e-06
9.1462e-06
5.12346e-06
4.03773e-06
5.10846e-06
-9.99736e-07
5.03746e-06
-5.92002e-06
4.92028e-06
-1.06722e-05
4.75219e-06
-1.52193e-05
4.54706e-06
-1.952e-05
4.30068e-06
-2.35415e-05
4.02156e-06
-2.72596e-05
3.71807e-06
-3.06484e-05
3.38879e-06
-3.36902e-05
3.04181e-06
-3.63692e-05
2.67894e-06
-3.86816e-05
2.31241e-06
-4.06145e-05
1.93289e-06
-4.217e-05
1.55548e-06
-4.33475e-05
1.17754e-06
-4.41492e-05
8.01725e-07
-4.45888e-05
4.39524e-07
-4.46717e-05
8.29294e-08
-4.44065e-05
-2.65174e-07
-4.38117e-05
-5.94838e-07
-4.28975e-05
-9.14156e-07
-4.16793e-05
-1.21821e-06
-4.01723e-05
-1.50703e-06
-3.8401e-05
-1.77127e-06
-3.63782e-05
-2.02286e-06
-3.41244e-05
-2.25374e-06
-3.16597e-05
-2.4647e-06
-2.90054e-05
-2.65436e-06
-2.61842e-05
-2.82114e-06
-2.32179e-05
-2.9663e-06
-2.01267e-05
-3.09121e-06
-1.69337e-05
-3.19301e-06
-1.36615e-05
-3.27216e-06
-1.0331e-05
-3.33049e-06
-6.96875e-06
-3.36229e-06
-3.59279e-06
-3.37597e-06
-2.29408e-07
-3.36338e-06
3.10442e-06
-3.33383e-06
6.3874e-06
-3.28299e-06
9.60019e-06
-3.21279e-06
1.27236e-05
-3.12342e-06
1.57372e-05
-3.01359e-06
1.86282e-05
-2.89099e-06
2.13808e-05
-2.75255e-06
2.39809e-05
-2.60011e-06
2.64158e-05
-2.43495e-06
2.86756e-05
-2.25984e-06
3.07514e-05
-2.07573e-06
3.26348e-05
-1.88337e-06
3.43229e-05
-1.68818e-06
3.58107e-05
-1.48774e-06
3.70964e-05
-1.28571e-06
3.81768e-05
-1.08041e-06
3.90569e-05
-8.80069e-07
3.97377e-05
-6.8086e-07
4.02243e-05
-4.86626e-07
4.05211e-05
-2.96721e-07
4.06372e-05
-1.16161e-07
4.05814e-05
5.58172e-08
4.03581e-05
2.23333e-07
3.99822e-05
3.75891e-07
3.94588e-05
5.2339e-07
3.88044e-05
6.54357e-07
3.80246e-05
7.79871e-07
3.71361e-05
8.88412e-07
3.6146e-05
9.90113e-07
3.50705e-05
1.07558e-06
3.39171e-05
1.1533e-06
3.27002e-05
1.21692e-06
3.14319e-05
1.26833e-06
3.0121e-05
1.31088e-06
2.87798e-05
1.34126e-06
2.74174e-05
1.36237e-06
2.60444e-05
1.37303e-06
2.4667e-05
1.37733e-06
2.32967e-05
1.37034e-06
2.19396e-05
1.35709e-06
2.0603e-05
1.33655e-06
1.92913e-05
1.31177e-06
1.80105e-05
1.28081e-06
1.67663e-05
1.24418e-06
1.55622e-05
1.20412e-06
1.4402e-05
1.16017e-06
1.3287e-05
1.11498e-06
1.22199e-05
1.06708e-06
1.12029e-05
1.01696e-06
1.0237e-05
9.65961e-07
9.32269e-06
9.14286e-07
8.46051e-06
8.62183e-07
7.64982e-06
8.10685e-07
6.891e-06
7.58818e-07
6.18323e-06
7.07768e-07
5.52572e-06
6.57511e-07
4.91735e-06
6.08361e-07
4.35687e-06
5.60481e-07
3.84238e-06
5.14492e-07
3.37238e-06
4.7e-07
2.94561e-06
4.26765e-07
2.55994e-06
3.85671e-07
2.21268e-06
3.47256e-07
1.90258e-06
3.10098e-07
1.62674e-06
2.75838e-07
1.38337e-06
2.43366e-07
1.16987e-06
2.13501e-07
9.84083e-07
1.85786e-07
8.23553e-07
1.60528e-07
6.8602e-07
1.37531e-07
5.69197e-07
1.16822e-07
4.70915e-07
9.82815e-08
3.89032e-07
8.18816e-08
3.21512e-07
6.75192e-08
2.66425e-07
5.50864e-08
2.2197e-07
4.4454e-08
1.86453e-07
3.55158e-08
1.5836e-07
2.80922e-08
1.36305e-07
2.20549e-08
1.19078e-07
1.72255e-08
1.05621e-07
1.34565e-08
9.50385e-08
1.05822e-08
8.65778e-08
8.46026e-09
7.96441e-08
6.93315e-09
7.37562e-08
5.88751e-09
6.85686e-08
5.18721e-09
6.38285e-08
4.73978e-09
5.93603e-08
4.46785e-09
5.50511e-08
4.30888e-09
5.08374e-08
4.21348e-09
4.66932e-08
4.14397e-09
4.262e-08
4.07296e-09
3.86376e-08
3.98222e-09
3.47761e-08
3.86124e-09
3.10701e-08
3.70593e-09
2.75528e-08
3.51709e-09
2.42536e-08
3.29907e-09
2.11951e-08
3.05841e-09
1.83922e-08
2.80277e-09
1.58522e-08
2.53997e-09
1.35748e-08
2.27736e-09
1.15534e-08
2.02133e-09
9.77623e-09
1.77707e-09
8.22772e-09
1.54845e-09
6.88958e-09
1.3381e-09
5.74206e-09
1.14747e-09
4.76498e-09
9.77053e-10
3.9384e-09
8.26548e-10
3.2433e-09
6.95076e-10
2.66193e-09
5.81352e-10
2.17807e-09
4.83841e-10
1.77716e-09
4.00889e-10
1.44633e-09
3.30816e-10
1.17433e-09
2.71996e-10
9.51418e-10
2.22897e-10
7.69291e-10
1.8212e-10
6.20881e-10
1.48404e-10
5.00237e-10
1.20638e-10
4.0238e-10
9.78532e-11
3.2316e-10
7.9216e-11
2.59143e-10
6.40145e-11
2.07493e-10
5.16475e-11
1.65881e-10
4.16096e-11
1.324e-10
3.34797e-11
1.05491e-10
2.69079e-11
8.3885e-11
2.16055e-11
6.65495e-11
1.73349e-11
5.26474e-11
1.39016e-11
4.15007e-11
1.11464e-11
3.25606e-11
8.93996e-12
2.53834e-11
7.17707e-12
1.96108e-11
5.77256e-12
1.49533e-11
4.65754e-12
1.11769e-11
3.77647e-12
8.09239e-12
3.08457e-12
5.54667e-12
2.54583e-12
3.41563e-12
2.13118e-12
1.59865e-12
1.81714e-12
1.58441e-12
-4.77114e-05
-2.31225e-05
-3.49489e-05
-2.55264e-05
-2.12149e-05
-2.74672e-05
-6.6624e-06
-2.91027e-05
8.76584e-06
-3.08553e-05
2.46309e-05
-3.17252e-05
4.10474e-05
-3.28206e-05
5.7624e-05
-3.31307e-05
7.40444e-05
-3.28342e-05
9.02894e-05
-3.24915e-05
0.000106042
-3.14937e-05
0.00012094
-2.97825e-05
0.000134846
-2.77996e-05
0.000147463
-2.52241e-05
0.00015858
-2.22103e-05
0.00016794
-1.86868e-05
0.00017522
-1.45614e-05
0.000180336
-1.02489e-05
0.000183148
-5.6183e-06
0.000183569
-8.45638e-07
0.000181664
3.80393e-06
0.000177299
8.72608e-06
0.000170468
1.3655e-05
0.000161572
1.77837e-05
0.000150627
2.18779e-05
0.000138086
2.50689e-05
0.000124046
2.80625e-05
0.000108792
3.04942e-05
9.29147e-05
3.17379e-05
7.65633e-05
3.26866e-05
6.00457e-05
3.30201e-05
4.38695e-05
3.23392e-05
2.8137e-05
3.14537e-05
1.33161e-05
2.96203e-05
-7.15182e-07
2.80691e-05
-1.32702e-05
2.51041e-05
-2.45581e-05
2.25745e-05
-3.45266e-05
1.99371e-05
-4.31098e-05
1.71679e-05
-5.02564e-05
1.42969e-05
-5.59683e-05
1.14322e-05
-6.02503e-05
8.56504e-06
-6.31572e-05
5.80724e-06
-6.47768e-05
3.23773e-06
-6.51396e-05
7.24233e-07
-6.47267e-05
-8.25761e-07
-6.36457e-05
-2.15916e-06
-6.20014e-05
-3.2854e-06
-5.99304e-05
-4.13881e-06
-5.75402e-05
-4.77763e-06
-5.49103e-05
-5.25698e-06
-5.21505e-05
-5.51689e-06
-4.93093e-05
-5.67976e-06
-4.64691e-05
-5.67802e-06
-4.36743e-05
-5.58744e-06
-4.09376e-05
-5.47118e-06
-3.82946e-05
-5.28431e-06
-3.57475e-05
-5.09276e-06
-3.32699e-05
-4.95391e-06
-3.08199e-05
-4.89879e-06
-2.83275e-05
-4.98351e-06
-2.58009e-05
-5.05224e-06
-2.32755e-05
-5.05012e-06
-2.07599e-05
-5.03091e-06
-1.8246e-05
-5.02794e-06
-1.57218e-05
-5.0488e-06
-1.31631e-05
-5.118e-06
-1.05455e-05
-5.23639e-06
-7.84671e-06
-5.3981e-06
-5.04881e-06
-5.59635e-06
-2.15146e-06
-5.79551e-06
8.87167e-07
-6.07889e-06
4.07591e-06
-6.3761e-06
7.38959e-06
-6.62662e-06
1.08067e-05
-6.83425e-06
1.42977e-05
-6.98149e-06
1.78312e-05
-7.06594e-06
2.13698e-05
-7.0758e-06
2.48744e-05
-7.00744e-06
2.83032e-05
-6.85656e-06
3.16138e-05
-6.62061e-06
3.47687e-05
-6.30965e-06
3.77302e-05
-5.92032e-06
4.04518e-05
-5.44252e-06
4.29122e-05
-4.92097e-06
4.509e-05
-4.35522e-06
4.69458e-05
-3.71306e-06
4.84501e-05
-3.00578e-06
4.96315e-05
-2.36415e-06
5.04432e-05
-1.62688e-06
5.0885e-05
-8.77702e-07
5.09741e-05
-1.83909e-07
5.07067e-05
5.44163e-07
5.00792e-05
1.24671e-06
4.91349e-05
1.88571e-06
4.78785e-05
2.50972e-06
4.63408e-05
3.07732e-06
4.45625e-05
3.55493e-06
4.25751e-05
3.97199e-06
4.04229e-05
4.30349e-06
3.81483e-05
4.54762e-06
3.57812e-05
4.73259e-06
3.3362e-05
4.83591e-06
3.09198e-05
4.88535e-06
2.84815e-05
4.8767e-06
2.60553e-05
4.85149e-06
2.36533e-05
4.80445e-06
2.12886e-05
4.73093e-06
1.89498e-05
4.67737e-06
1.6645e-05
4.6112e-06
1.43444e-05
4.60151e-06
1.20578e-05
4.57399e-06
9.77089e-06
4.57444e-06
7.47386e-06
4.59585e-06
5.16559e-06
4.61676e-06
2.8536e-06
4.62293e-06
5.44036e-07
4.61904e-06
-1.7345e-06
4.55735e-06
-3.96703e-06
4.46461e-06
-6.12376e-06
4.31377e-06
-8.17668e-06
4.10563e-06
-1.00965e-05
3.83802e-06
-1.1857e-05
3.52141e-06
-1.3445e-05
3.17609e-06
-1.4838e-05
2.78679e-06
-1.60398e-05
2.40516e-06
-1.70398e-05
1.99971e-06
-1.78449e-05
1.61084e-06
-1.84492e-05
1.20956e-06
-1.88691e-05
8.41418e-07
-1.9129e-05
5.203e-07
-1.92187e-05
1.80861e-07
-1.91546e-05
-1.28466e-07
-1.89342e-05
-4.39224e-07
-1.85647e-05
-7.3763e-07
-1.80416e-05
-1.0465e-06
-1.73647e-05
-1.3551e-06
-1.65191e-05
-1.69189e-06
-1.55089e-05
-2.01554e-06
-1.43303e-05
-2.35988e-06
-1.29545e-05
-2.75202e-06
-1.13729e-05
-3.16388e-06
-9.5727e-06
-3.59911e-06
-7.56269e-06
-4.02084e-06
-5.32329e-06
-4.47917e-06
-2.85557e-06
-4.93602e-06
-1.50518e-07
-5.40911e-06
2.77122e-06
-5.84315e-06
5.91129e-06
-6.27828e-06
9.24327e-06
-6.66428e-06
1.27528e-05
-7.01835e-06
1.64126e-05
-7.31793e-06
2.0185e-05
-7.54324e-06
2.40354e-05
-7.69821e-06
2.7911e-05
-7.75057e-06
3.1765e-05
-7.70541e-06
3.55443e-05
-7.55537e-06
3.91888e-05
-7.28706e-06
4.26377e-05
-6.89717e-06
4.58334e-05
-6.39031e-06
4.87214e-05
-5.7743e-06
5.12382e-05
-5.03125e-06
5.33366e-05
-4.1949e-06
5.49733e-05
-3.27272e-06
5.6108e-05
-2.2686e-06
5.67142e-05
-1.21214e-06
5.67725e-05
-1.17372e-07
5.62733e-05
9.97589e-07
5.52084e-05
2.12882e-06
5.35891e-05
3.23722e-06
5.14341e-05
4.30794e-06
4.87656e-05
5.3347e-06
4.562e-05
6.28856e-06
4.20344e-05
7.16894e-06
3.80578e-05
7.95021e-06
3.37451e-05
8.62146e-06
2.9148e-05
9.19033e-06
2.43296e-05
9.63395e-06
1.93487e-05
9.9584e-06
1.42666e-05
1.01619e-05
9.13996e-06
1.02501e-05
4.02876e-06
1.02196e-05
-1.01184e-06
1.00781e-05
-5.93412e-06
9.84255e-06
-1.06889e-05
9.50693e-06
-1.52375e-05
9.09567e-06
-1.95398e-05
8.60301e-06
-2.35632e-05
8.04491e-06
-2.7282e-05
7.43685e-06
-3.06709e-05
6.77771e-06
-3.3714e-05
6.08491e-06
-3.63936e-05
5.35853e-06
-3.87062e-05
4.625e-06
-4.06392e-05
3.8659e-06
-4.21945e-05
3.1107e-06
-4.33719e-05
2.355e-06
-4.4173e-05
1.60278e-06
-4.46117e-05
8.78242e-07
-4.46941e-05
1.65286e-07
-4.44274e-05
-5.31878e-07
-4.38316e-05
-1.1906e-06
-4.29163e-05
-1.82948e-06
-4.16967e-05
-2.43781e-06
-4.01896e-05
-3.01414e-06
-3.84165e-05
-3.54439e-06
-3.63918e-05
-4.04756e-06
-3.41365e-05
-4.50906e-06
-3.16706e-05
-4.93056e-06
-2.90152e-05
-5.30976e-06
-2.61927e-05
-5.64367e-06
-2.32242e-05
-5.93481e-06
-2.01311e-05
-6.18427e-06
-1.69364e-05
-6.3877e-06
-1.36627e-05
-6.5459e-06
-1.03307e-05
-6.6625e-06
-6.96716e-06
-6.72581e-06
-3.59001e-06
-6.75311e-06
-2.24687e-07
-6.7287e-06
3.11073e-06
-6.66924e-06
6.3949e-06
-6.56716e-06
9.60967e-06
-6.42756e-06
1.27331e-05
-6.24685e-06
1.57481e-05
-6.02857e-06
1.86403e-05
-5.78317e-06
2.13936e-05
-5.50594e-06
2.39949e-05
-5.20133e-06
2.64306e-05
-4.87066e-06
2.86911e-05
-4.52035e-06
3.07674e-05
-4.15201e-06
3.26511e-05
-3.7671e-06
3.43396e-05
-3.37664e-06
3.58276e-05
-2.97578e-06
3.71133e-05
-2.57141e-06
3.8194e-05
-2.16108e-06
3.90738e-05
-1.75989e-06
3.97544e-05
-1.36149e-06
4.0241e-05
-9.73155e-07
4.05377e-05
-5.93474e-07
4.0653e-05
-2.31434e-07
4.05967e-05
1.12116e-07
4.03727e-05
4.47352e-07
3.99964e-05
7.52172e-07
3.94722e-05
1.04758e-06
3.88168e-05
1.30976e-06
3.80366e-05
1.56004e-06
3.71472e-05
1.77781e-06
3.61567e-05
1.98067e-06
3.50805e-05
2.15177e-06
3.39263e-05
2.30745e-06
3.27087e-05
2.43455e-06
3.14396e-05
2.53743e-06
3.0128e-05
2.62244e-06
2.87865e-05
2.68274e-06
2.7423e-05
2.7259e-06
2.60491e-05
2.74688e-06
2.46715e-05
2.755e-06
2.33005e-05
2.74134e-06
2.19428e-05
2.71475e-06
2.06055e-05
2.67388e-06
1.92936e-05
2.62363e-06
1.80125e-05
2.56196e-06
1.67678e-05
2.48885e-06
1.55633e-05
2.40858e-06
1.44028e-05
2.3207e-06
1.32873e-05
2.23044e-06
1.22201e-05
2.13427e-06
1.12029e-05
2.03415e-06
1.02368e-05
1.93211e-06
9.32232e-06
1.82875e-06
8.45993e-06
1.72457e-06
7.64921e-06
1.62141e-06
6.89031e-06
1.51771e-06
6.18247e-06
1.41561e-06
5.52488e-06
1.3151e-06
4.91644e-06
1.2168e-06
4.35599e-06
1.12092e-06
3.84147e-06
1.02901e-06
3.37147e-06
9.39997e-07
2.94467e-06
8.53567e-07
2.559e-06
7.71333e-07
2.21181e-06
6.94447e-07
1.90165e-06
6.20254e-07
1.62588e-06
5.516e-07
1.38257e-06
4.86677e-07
1.16909e-06
4.26981e-07
9.83343e-07
3.71527e-07
8.22862e-07
3.21007e-07
6.85389e-07
2.75001e-07
5.68623e-07
2.33586e-07
4.70401e-07
1.96502e-07
3.88577e-07
1.63703e-07
3.21117e-07
1.34978e-07
2.66085e-07
1.10116e-07
2.21685e-07
8.88523e-08
1.86219e-07
7.09805e-08
1.58174e-07
5.61365e-08
1.3616e-07
4.40668e-08
1.18972e-07
3.44126e-08
1.05547e-07
2.68802e-08
9.49918e-08
2.11368e-08
8.65536e-08
1.68976e-08
7.96373e-08
1.38486e-08
7.37627e-08
1.17614e-08
6.85843e-08
1.03648e-08
6.38503e-08
9.47316e-09
5.93856e-08
8.932e-09
5.50777e-08
8.61624e-09
5.08636e-08
8.42714e-09
4.67177e-08
8.2894e-09
4.26421e-08
8.14827e-09
3.86566e-08
7.96733e-09
3.47919e-08
7.72562e-09
3.10826e-08
7.41502e-09
2.75622e-08
7.03717e-09
2.42602e-08
6.60085e-09
2.11993e-08
6.11917e-09
1.83944e-08
5.60748e-09
1.58528e-08
5.08148e-09
1.35741e-08
4.55588e-09
1.15518e-08
4.04349e-09
9.77412e-09
3.55468e-09
8.22527e-09
3.09721e-09
6.88698e-09
2.67632e-09
5.73946e-09
2.29492e-09
4.76247e-09
1.95399e-09
3.93605e-09
1.65291e-09
3.24116e-09
1.38993e-09
2.66001e-09
1.16247e-09
2.17637e-09
9.67443e-10
1.77569e-09
8.01547e-10
1.44507e-09
6.61419e-10
1.17325e-09
5.43797e-10
9.50506e-10
4.45622e-10
7.68525e-10
3.64088e-10
6.20242e-10
2.96676e-10
4.99708e-10
2.41163e-10
4.01943e-10
1.95611e-10
3.22801e-10
1.58352e-10
2.58849e-10
1.27962e-10
2.07254e-10
1.03239e-10
1.65687e-10
8.31733e-11
1.32243e-10
6.69216e-11
1.05364e-10
5.37848e-11
8.37829e-11
4.31857e-11
6.64676e-11
3.46493e-11
5.25821e-11
2.77865e-11
4.14488e-11
2.22793e-11
3.25195e-11
1.7869e-11
2.53511e-11
1.43453e-11
1.95857e-11
1.1538e-11
1.4934e-11
9.30934e-12
1.11624e-11
7.54827e-12
8.08185e-12
6.16534e-12
5.53941e-12
5.08853e-12
3.41113e-12
4.25978e-12
1.59653e-12
3.63205e-12
3.16671e-12
-4.77756e-05
-3.46862e-05
-3.50117e-05
-3.82913e-05
-2.12728e-05
-4.12071e-05
-6.71311e-06
-4.36633e-05
8.7307e-06
-4.62999e-05
2.46204e-05
-4.76158e-05
4.10577e-05
-4.92586e-05
5.76565e-05
-4.97303e-05
7.41196e-05
-4.9298e-05
9.03955e-05
-4.87682e-05
0.000106159
-4.72582e-05
0.000121074
-4.46982e-05
0.000135008
-4.17337e-05
0.000147664
-3.7881e-05
0.000158811
-3.33581e-05
0.000168155
-2.8031e-05
0.000175432
-2.18388e-05
0.000180571
-1.53891e-05
0.000183407
-8.45517e-06
0.000183803
-1.24192e-06
0.000181857
5.75001e-06
0.000177482
1.31001e-05
0.000170641
2.04962e-05
0.000161729
2.6695e-05
0.000150762
3.28444e-05
0.0001382
3.7631e-05
0.000124132
4.21293e-05
0.000108852
4.57744e-05
9.29461e-05
4.76434e-05
7.65663e-05
4.90661e-05
6.00221e-05
4.95641e-05
4.38232e-05
4.85379e-05
2.80718e-05
4.72049e-05
1.32053e-05
4.44866e-05
-7.99012e-07
4.20733e-05
-1.3372e-05
3.76769e-05
-2.46647e-05
3.3867e-05
-3.46339e-05
2.99062e-05
-4.32139e-05
2.57479e-05
-5.03535e-05
2.14365e-05
-5.60595e-05
1.71382e-05
-6.03422e-05
1.28477e-05
-6.32452e-05
8.71015e-06
-6.4853e-05
4.84556e-06
-6.52091e-05
1.08035e-06
-6.47903e-05
-1.24457e-06
-6.37024e-05
-3.24711e-06
-6.20506e-05
-4.93721e-06
-5.9972e-05
-6.21739e-06
-5.75743e-05
-7.1754e-06
-5.49371e-05
-7.89417e-06
-5.21702e-05
-8.28375e-06
-4.93224e-05
-8.52759e-06
-4.64759e-05
-8.52457e-06
-4.36754e-05
-8.38792e-06
-4.09338e-05
-8.21279e-06
-3.82866e-05
-7.93158e-06
-3.57364e-05
-7.64297e-06
-3.32565e-05
-7.4338e-06
-3.08048e-05
-7.35045e-06
-2.83113e-05
-7.47703e-06
-2.57842e-05
-7.57939e-06
-2.32592e-05
-7.57513e-06
-2.07448e-05
-7.54524e-06
-1.82331e-05
-7.53969e-06
-1.57119e-05
-7.57001e-06
-1.31569e-05
-7.67295e-06
-1.05435e-05
-7.8498e-06
-7.84885e-06
-8.09279e-06
-5.05449e-06
-8.39071e-06
-2.15988e-06
-8.69013e-06
8.74308e-07
-9.11309e-06
4.06133e-06
-9.56313e-06
7.3739e-06
-9.93919e-06
1.0791e-05
-1.02513e-05
1.42825e-05
-1.0473e-05
1.78183e-05
-1.06017e-05
2.13592e-05
-1.06168e-05
2.48671e-05
-1.05154e-05
2.83009e-05
-1.02904e-05
3.16171e-05
-9.93673e-06
3.47738e-05
-9.46644e-06
3.77404e-05
-8.88685e-06
4.04672e-05
-8.16933e-06
4.29311e-05
-7.38492e-06
4.51113e-05
-6.53546e-06
4.69679e-05
-5.56959e-06
4.84753e-05
-4.5132e-06
4.96577e-05
-3.54657e-06
5.04693e-05
-2.43844e-06
5.09137e-05
-1.3221e-06
5.10014e-05
-2.71625e-07
5.07319e-05
8.13618e-07
5.01043e-05
1.87429e-06
4.91584e-05
2.83159e-06
4.7899e-05
3.76919e-06
4.63582e-05
4.61806e-06
4.45766e-05
5.33652e-06
4.25872e-05
5.96141e-06
4.04318e-05
6.4589e-06
3.81537e-05
6.8257e-06
3.57853e-05
7.101e-06
3.33633e-05
7.25791e-06
3.09185e-05
7.33007e-06
2.84785e-05
7.31675e-06
2.60519e-05
7.27801e-06
2.36505e-05
7.20593e-06
2.12853e-05
7.0961e-06
1.89465e-05
7.01612e-06
1.66426e-05
6.91514e-06
1.43425e-05
6.90158e-06
1.20572e-05
6.85934e-06
9.77113e-06
6.86048e-06
7.47372e-06
6.89325e-06
5.16564e-06
6.92484e-06
2.85228e-06
6.93628e-06
5.41244e-07
6.93007e-06
-1.73901e-06
6.8376e-06
-3.97358e-06
6.69917e-06
-6.13268e-06
6.47286e-06
-8.18727e-06
6.16021e-06
-1.01083e-05
5.75909e-06
-1.18712e-05
5.28421e-06
-1.34602e-05
4.76512e-06
-1.48531e-05
4.17965e-06
-1.60567e-05
3.60883e-06
-1.70554e-05
2.99837e-06
-1.78602e-05
2.41569e-06
-1.84645e-05
1.81377e-06
-1.88824e-05
1.25935e-06
-1.91431e-05
7.80973e-07
-1.92325e-05
2.70321e-07
-1.91665e-05
-1.94481e-07
-1.89447e-05
-6.61074e-07
-1.85768e-05
-1.10545e-06
-1.80545e-05
-1.56888e-06
-1.73771e-05
-2.03252e-06
-1.65305e-05
-2.53843e-06
-1.5528e-05
-3.01807e-06
-1.43457e-05
-3.54214e-06
-1.29706e-05
-4.12716e-06
-1.13896e-05
-4.7449e-06
-9.59264e-06
-5.39606e-06
-7.57999e-06
-6.03349e-06
-5.34145e-06
-6.71773e-06
-2.87011e-06
-7.40736e-06
-1.67752e-07
-8.11147e-06
2.75568e-06
-8.76659e-06
5.89569e-06
-9.41831e-06
9.22944e-06
-9.99804e-06
1.27428e-05
-1.05317e-05
1.64046e-05
-1.09797e-05
2.018e-05
-1.13186e-05
2.40334e-05
-1.15516e-05
2.79123e-05
-1.16295e-05
3.17708e-05
-1.15639e-05
3.55552e-05
-1.13398e-05
3.92046e-05
-1.09365e-05
4.26591e-05
-1.03516e-05
4.58601e-05
-9.59136e-06
4.87511e-05
-8.66534e-06
5.12715e-05
-7.55164e-06
5.33752e-05
-6.29864e-06
5.50134e-05
-4.91089e-06
5.61508e-05
-3.40607e-06
5.67596e-05
-1.82098e-06
5.68171e-05
-1.74896e-07
5.63156e-05
1.49914e-06
5.52504e-05
3.19393e-06
5.3631e-05
4.85663e-06
5.14733e-05
6.46567e-06
4.88025e-05
8.00545e-06
4.56538e-05
9.43726e-06
4.20639e-05
1.07588e-05
3.80838e-05
1.19303e-05
3.37669e-05
1.29383e-05
2.91655e-05
1.37917e-05
2.43417e-05
1.44577e-05
1.93555e-05
1.49446e-05
1.42692e-05
1.52482e-05
9.13795e-06
1.53814e-05
4.02273e-06
1.53348e-05
-1.02204e-06
1.51228e-05
-5.948e-06
1.47685e-05
-1.07063e-05
1.42652e-05
-1.52571e-05
1.36465e-05
-1.9562e-05
1.29079e-05
-2.35881e-05
1.2071e-05
-2.73088e-05
1.11575e-05
-3.06985e-05
1.01675e-05
-3.37432e-05
9.12954e-06
-3.64237e-05
8.03901e-06
-3.87365e-05
6.93786e-06
-4.067e-05
5.79935e-06
-4.22249e-05
4.66564e-06
-4.34015e-05
3.53153e-06
-4.42027e-05
2.40397e-06
-4.46402e-05
1.31576e-06
-4.47211e-05
2.46203e-07
-4.44538e-05
-7.99192e-07
-4.38568e-05
-1.78765e-06
-4.29397e-05
-2.74658e-06
-4.17177e-05
-3.65974e-06
-4.02114e-05
-4.52046e-06
-3.8436e-05
-5.3198e-06
-3.64096e-05
-6.07393e-06
-3.4153e-05
-6.76568e-06
-3.16856e-05
-7.39797e-06
-2.90291e-05
-7.96631e-06
-2.62045e-05
-8.46821e-06
-2.32337e-05
-8.90568e-06
-2.01389e-05
-9.279e-06
-1.69424e-05
-9.58423e-06
-1.36665e-05
-9.8218e-06
-1.0333e-05
-9.99604e-06
-6.96816e-06
-1.00906e-05
-3.58916e-06
-1.01321e-05
-2.22053e-07
-1.00958e-05
3.11508e-06
-1.00064e-05
6.40089e-06
-9.85296e-06
9.6171e-06
-9.64378e-06
1.27411e-05
-9.37089e-06
1.5758e-05
-9.04542e-06
1.86511e-05
-8.67625e-06
2.14052e-05
-8.26009e-06
2.40069e-05
-7.80304e-06
2.64446e-05
-7.30834e-06
2.87061e-05
-6.7818e-06
3.0783e-05
-6.22892e-06
3.26671e-05
-5.65127e-06
3.43559e-05
-5.06538e-06
3.58441e-05
-4.46398e-06
3.71294e-05
-3.85676e-06
3.82107e-05
-3.24233e-06
3.90898e-05
-2.63906e-06
3.97703e-05
-2.0419e-06
4.02561e-05
-1.45899e-06
4.05531e-05
-8.90505e-07
4.0667e-05
-3.45342e-07
4.06099e-05
1.69231e-07
4.03848e-05
6.72504e-07
4.00069e-05
1.13005e-06
3.94827e-05
1.57178e-06
3.88259e-05
1.96655e-06
3.80453e-05
2.34059e-06
3.71546e-05
2.6685e-06
3.61635e-05
2.97179e-06
3.50866e-05
3.2287e-06
3.39314e-05
3.46268e-06
3.27129e-05
3.653e-06
3.14428e-05
3.80752e-06
3.01305e-05
3.93478e-06
2.87886e-05
4.02462e-06
2.74239e-05
4.0906e-06
2.60491e-05
4.12167e-06
2.46713e-05
4.13283e-06
2.32994e-05
4.11316e-06
2.19412e-05
4.07299e-06
2.06031e-05
4.012e-06
1.92912e-05
3.93546e-06
1.80101e-05
3.84305e-06
1.67648e-05
3.73423e-06
1.55601e-05
3.61324e-06
1.43992e-05
3.48157e-06
1.32834e-05
3.3463e-06
1.22162e-05
3.20147e-06
1.11989e-05
3.05144e-06
1.02327e-05
2.89832e-06
9.31815e-06
2.74324e-06
8.45571e-06
2.587e-06
7.6451e-06
2.43201e-06
6.8863e-06
2.27652e-06
6.17854e-06
2.12336e-06
5.52103e-06
1.9726e-06
4.91268e-06
1.82515e-06
4.35222e-06
1.68138e-06
3.83808e-06
1.54315e-06
3.36829e-06
1.40978e-06
2.94155e-06
1.28031e-06
2.55593e-06
1.15695e-06
2.20917e-06
1.04121e-06
1.89898e-06
9.30442e-07
1.62346e-06
8.27114e-07
1.38033e-06
7.29805e-07
1.167e-06
6.40307e-07
9.81409e-07
5.57118e-07
8.21092e-07
4.81321e-07
6.83799e-07
4.12293e-07
5.67196e-07
3.50186e-07
4.69138e-07
2.94558e-07
3.87468e-07
2.45371e-07
3.20157e-07
2.02288e-07
2.65264e-07
1.65008e-07
2.20995e-07
1.33119e-07
1.85648e-07
1.06326e-07
1.57711e-07
8.40719e-08
1.35795e-07
6.59818e-08
1.18692e-07
5.15143e-08
1.0534e-07
4.02314e-08
9.4845e-08
3.16307e-08
8.64571e-08
2.52847e-08
7.95798e-08
2.07251e-08
7.37355e-08
1.7605e-08
6.85789e-08
1.55207e-08
6.386e-08
1.41915e-08
5.94049e-08
1.33866e-08
5.51021e-08
1.29185e-08
5.08895e-08
1.26392e-08
4.67427e-08
1.24359e-08
4.26642e-08
1.22264e-08
3.86748e-08
1.19564e-08
3.48056e-08
1.15945e-08
3.10916e-08
1.11287e-08
2.75669e-08
1.05616e-08
2.4261e-08
9.90653e-09
2.11968e-08
9.1832e-09
1.83893e-08
8.41478e-09
1.58458e-08
7.62489e-09
1.35658e-08
6.83568e-09
1.15429e-08
6.06636e-09
9.7649e-09
5.33254e-09
8.21618e-09
4.64585e-09
6.87827e-09
4.01415e-09
5.73133e-09
3.4418e-09
4.75504e-09
2.93023e-09
3.92938e-09
2.47853e-09
3.23524e-09
2.08402e-09
2.65484e-09
1.74284e-09
2.1719e-09
1.45035e-09
1.77186e-09
1.20157e-09
1.44181e-09
9.91445e-10
1.1705e-09
8.15088e-10
9.4821e-10
6.67901e-10
7.66614e-10
5.45671e-10
6.1866e-10
4.4462e-10
4.98404e-10
3.61411e-10
4.00873e-10
2.93136e-10
3.21927e-10
2.37292e-10
2.58137e-10
1.91748e-10
2.06676e-10
1.54697e-10
1.65219e-10
1.24627e-10
1.31866e-10
1.00273e-10
1.05061e-10
8.05881e-11
8.35394e-11
6.47059e-11
6.6273e-11
5.19149e-11
5.2427e-11
4.16318e-11
4.13258e-11
3.33802e-11
3.24225e-11
2.67721e-11
2.52752e-11
2.14926e-11
1.95268e-11
1.72864e-11
1.4889e-11
1.39473e-11
1.11286e-11
1.13088e-11
8.05735e-12
9.23683e-12
5.52259e-12
7.62354e-12
3.40076e-12
6.38191e-12
1.59168e-12
5.44143e-12
4.74419e-12
-4.7872e-05
-4.62532e-05
-3.51061e-05
-5.10582e-05
-2.136e-05
-5.49542e-05
-6.78931e-06
-5.82349e-05
8.67736e-06
-6.17674e-05
2.4601e-05
-6.35402e-05
4.10793e-05
-6.57378e-05
5.7719e-05
-6.63708e-05
7.42256e-05
-6.58055e-05
9.05476e-05
-6.50909e-05
0.000106354
-6.30656e-05
0.000121311
-5.9656e-05
0.000135276
-5.56986e-05
0.000147954
-5.05605e-05
0.00015913
-4.45337e-05
0.000168494
-3.73957e-05
0.000175792
-2.9138e-05
0.000180938
-2.05357e-05
0.000183771
-1.1288e-05
0.000184134
-1.60536e-06
0.000182149
7.73446e-06
0.000177758
1.74905e-05
0.000170899
2.73544e-05
0.000161965
3.56293e-05
0.000150965
4.38435e-05
0.00013837
5.02255e-05
0.000124265
5.62341e-05
0.000108942
6.10976e-05
9.29929e-05
6.35919e-05
7.65706e-05
6.54882e-05
5.99863e-05
6.61482e-05
4.37532e-05
6.47709e-05
2.79737e-05
6.29842e-05
1.30317e-05
5.94285e-05
-9.27019e-07
5.60319e-05
-1.35252e-05
5.02749e-05
-2.48247e-05
4.51665e-05
-3.47939e-05
3.98753e-05
-4.33686e-05
3.43225e-05
-5.04983e-05
2.85661e-05
-5.61916e-05
2.28314e-05
-6.04669e-05
1.7123e-05
-6.33665e-05
1.16098e-05
-6.49653e-05
6.44435e-06
-6.53135e-05
1.42848e-06
-6.4886e-05
-1.6721e-06
-6.37876e-05
-4.3455e-06
-6.21245e-05
-6.6003e-06
-6.00346e-05
-8.30734e-06
-5.76256e-05
-9.58439e-06
-5.49774e-05
-1.05424e-05
-5.22e-05
-1.10611e-05
-4.93421e-05
-1.13855e-05
-4.64862e-05
-1.13805e-05
-4.36772e-05
-1.11969e-05
-4.09281e-05
-1.09619e-05
-3.82747e-05
-1.0585e-05
-3.57197e-05
-1.0198e-05
-3.32364e-05
-9.91712e-06
-3.07822e-05
-9.80465e-06
-2.82869e-05
-9.97231e-06
-2.57591e-05
-1.01072e-05
-2.32348e-05
-1.00994e-05
-2.07224e-05
-1.00576e-05
-1.82141e-05
-1.0048e-05
-1.56974e-05
-1.00867e-05
-1.31479e-05
-1.02225e-05
-1.05407e-05
-1.04571e-05
-7.85182e-06
-1.07816e-05
-5.063e-06
-1.11795e-05
-2.17302e-06
-1.15801e-05
8.54299e-07
-1.21404e-05
4.03932e-06
-1.27482e-05
7.35041e-06
-1.32503e-05
1.07677e-05
-1.36686e-05
1.42605e-05
-1.39658e-05
1.77989e-05
-1.41402e-05
2.13442e-05
-1.4162e-05
2.48578e-05
-1.4029e-05
2.82968e-05
-1.37294e-05
3.16219e-05
-1.32618e-05
3.47844e-05
-1.2629e-05
3.77576e-05
-1.18601e-05
4.04898e-05
-1.09015e-05
4.29592e-05
-9.85438e-06
4.51452e-05
-8.72143e-06
4.70034e-05
-7.42776e-06
4.85155e-05
-6.02532e-06
4.96992e-05
-4.73028e-06
5.05095e-05
-3.24877e-06
5.09559e-05
-1.76845e-06
5.10429e-05
-3.58688e-07
5.07729e-05
1.08365e-06
5.0143e-05
2.50418e-06
4.91913e-05
3.78329e-06
4.79294e-05
5.03112e-06
4.63879e-05
6.15947e-06
4.46003e-05
7.12417e-06
4.26051e-05
7.95662e-06
4.04465e-05
8.6175e-06
3.81635e-05
9.10863e-06
3.57914e-05
9.47312e-06
3.33656e-05
9.6837e-06
3.09174e-05
9.77826e-06
2.8476e-05
9.75817e-06
2.60475e-05
9.70651e-06
2.36457e-05
9.6077e-06
2.12804e-05
9.46145e-06
1.89423e-05
9.35421e-06
1.66393e-05
9.21809e-06
1.4341e-05
9.1999e-06
1.20564e-05
9.14387e-06
9.77091e-06
9.14598e-06
7.47355e-06
9.1906e-06
5.1648e-06
9.23358e-06
2.85046e-06
9.25062e-06
5.37079e-07
9.24344e-06
-1.74551e-06
9.12018e-06
-3.9832e-06
8.93686e-06
-6.14554e-06
8.63519e-06
-8.20434e-06