/*--------------------------------*- C++ -*----------------------------------*\
| =========                 |                                                 |
| \\      /  F ield         | OpenFOAM: The Open Source CFD Toolbox           |
|  \\    /   O peration     | Version:  3.0.1                                 |
|   \\  /    A nd           | Web:      www.OpenFOAM.org                      |
|    \\/     M anipulation  |                                                 |
\*---------------------------------------------------------------------------*/
FoamFile
{
    version     2.0;
    format      ascii;
    class       volScalarField;
    location    "21.6";
    object      p;
}
// * * * * * * * * * * * * * * * * * * * * * * * * * * * * * * * * * * * * * //

dimensions      [1 -1 -2 0 0 0 0];

internalField   nonuniform List<scalar> 
21420
(
3543.3
3547.3
3552.82
3559.89
3568.55
3578.86
3590.87
3604.66
3620.25
3637.67
3656.95
3678.1
3701.12
3725.97
3752.6
3780.91
3810.78
3842.05
3874.44
3907.46
3941.49
3975.97
4010.47
4044.62
4077.97
4110.08
4140.51
4168.83
4194.68
4217.68
4237.5
4253.86
4266.52
4275.31
4280.1
4280.72
4277.24
4269.74
4258.3
4243.15
4224.5
4202.67
4177.97
4150.72
4121.35
4090.22
4057.75
4024.31
3990.28
3956
3921.92
3894.43
3862.2
3830.93
3800.92
3772.36
3745.34
3719.97
3696.28
3674.31
3654.06
3635.52
3618.69
3603.53
3590.02
3578.15
3567.89
3559.23
3552.15
3546.63
3542.68
3540.32
3539.55
3540.32
3542.67
3546.62
3552.18
3559.34
3568.11
3578.5
3590.5
3604.13
3619.37
3636.2
3654.63
3674.63
3696.18
3719.26
3743.83
3769.84
3797.23
3825.9
3855.74
3886.62
3918.3
3950.55
3983.11
4015.66
4047.86
4079.36
4109.76
4138.7
4165.78
4190.61
4212.85
4232.16
4248.22
4260.78
4269.61
4274.54
4275.38
4272.23
4264.99
4253.74
4238.63
4219.88
4197.76
4172.6
4144.78
4114.72
4082.88
4049.7
4015.65
3981.19
3946.72
3912.65
3879.34
3847.08
3816.14
3786.74
3759.05
3733.19
3709.22
3687.19
3667.09
3648.89
3632.52
3617.92
3605.01
3593.69
3583.88
3575.5
3568.48
3562.76
3558.32
3555.12
3553.19
3552.52
3553.1
3554.98
3558.22
3562.87
3568.98
3576.62
3585.85
3596.74
3609.35
3623.73
3639.91
3657.92
3677.77
3699.44
3722.9
3748.1
3774.95
3803.33
3833.1
3864.07
3896.05
3928.77
3961.94
3995.25
4028.37
4060.91
4092.5
4122.73
4151.19
4177.47
4201.2
4222
4239.57
4253.63
4263.94
4270.36
4272.74
4271.1
4265.44
4255.9
4242.56
4225.65
4205.45
4182.24
4156.37
4128.22
4098.17
4066.65
4034.04
4000.78
3967.23
3933.77
3900.73
3868.41
3837.07
3806.93
3778.2
3751.01
3725.48
3701.7
3679.71
3659.55
3641.2
3624.66
3609.91
3596.89
3585.56
3575.87
3567.78
3561.24
3556.21
3552.6
3550.43
3549.7
3550.3
3552.26
3555.56
3560.23
3566.27
3573.71
3582.59
3592.95
3604.83
3618.29
3633.37
3650.14
3668.63
3688.87
3710.87
3734.63
3760.1
3787.21
3815.86
3845.89
3877.09
3909.33
3942.1
3975.18
4008.21
4040.77
4072.45
4102.82
4131.46
4157.97
4181.96
4203.08
4221.04
4235.58
4246.51
4253.68
4257.03
4256.49
4252.17
4244.17
4232.58
4217.62
4199.51
4178.53
4154.95
4129.1
4101.3
4071.89
4041.21
4009.6
3977.39
3944.92
3912.5
3880.42
3848.94
3818.24
3788.54
3760.05
3732.93
3707.33
3683.37
3661.12
3640.66
3622.05
3605.31
3590.46
3577.5
3566.42
3557.19
3549.81
3544.22
3540.36
3538.24
3537.85
3539.06
3541.87
3546.21
3552.04
3559.33
3568.05
3578.19
3589.71
3602.59
3616.84
3632.42
3649.34
3667.59
3687.17
3708.08
3730.29
3753.76
3778.48
3804.37
3831.34
3858.78
3887.21
3916.3
3945.83
3975.53
4005.09
4034.25
4062.64
4089.96
4115.83
4139.88
4161.8
4181.24
4197.88
4211.44
4221.68
4228.39
4231.41
4230.47
4225.64
4216.98
4204.52
4188.38
4168.78
4145.99
4120.38
4092.29
4062.15
4030.41
3997.52
3963.99
3930.24
3896.74
3863.94
3832.81
3803.68
3774.68
3747.04
3721.1
3696.95
3674.67
3445.14
3449.14
3454.66
3461.73
3470.38
3480.69
3492.7
3506.48
3522.07
3539.49
3558.76
3579.92
3602.93
3627.79
3654.42
3682.73
3712.61
3743.88
3776.28
3809.3
3843.35
3877.84
3912.35
3946.52
3979.89
4012.02
4042.47
4070.81
4096.67
4119.69
4139.52
4155.9
4168.57
4177.36
4182.16
4182.78
4179.3
4171.79
4160.34
4145.17
4126.52
4104.67
4079.95
4052.68
4023.29
3992.15
3959.66
3926.21
3892.16
3857.87
3823.77
3796.27
3764.03
3732.75
3702.75
3674.18
3647.16
3621.79
3598.1
3576.13
3555.88
3537.35
3520.52
3505.36
3491.86
3479.99
3469.73
3461.07
3453.99
3448.46
3444.51
3442.16
3441.38
3442.15
3444.51
3448.46
3454.01
3461.17
3469.95
3480.33
3492.33
3505.96
3521.21
3538.03
3556.46
3576.46
3598.01
3621.09
3645.66
3671.67
3699.06
3727.74
3757.59
3788.46
3820.15
3852.42
3884.99
3917.55
3949.77
3981.28
4011.7
4040.66
4067.75
4092.6
4114.86
4134.18
4150.26
4162.83
4171.66
4176.6
4177.44
4174.28
4167.04
4155.78
4140.67
4121.9
4099.76
4074.58
4046.74
4016.67
3984.8
3951.6
3917.54
3883.06
3848.58
3814.5
3781.17
3748.9
3717.96
3688.56
3660.87
3635
3611.04
3589.01
3568.91
3550.71
3534.35
3519.75
3506.84
3495.53
3485.72
3477.34
3470.32
3464.61
3460.17
3456.97
3455.04
3454.37
3454.95
3456.83
3460.07
3464.71
3470.82
3478.45
3487.69
3498.57
3511.18
3525.55
3541.73
3559.74
3579.59
3601.26
3624.72
3649.92
3676.77
3705.16
3734.93
3765.91
3797.89
3830.62
3863.8
3897.13
3930.26
3962.83
3994.43
4024.68
4053.15
4079.46
4103.2
4124.02
4141.6
4155.67
4165.99
4172.41
4174.81
4173.16
4167.49
4157.94
4144.59
4127.68
4107.45
4084.23
4058.35
4030.17
4000.11
3968.56
3935.94
3902.66
3869.1
3835.63
3802.58
3770.24
3738.9
3708.76
3680.02
3652.83
3627.3
3603.52
3581.53
3561.37
3543.02
3526.49
3511.74
3498.72
3487.39
3477.71
3469.62
3463.08
3458.05
3454.45
3452.28
3451.55
3452.14
3454.1
3457.41
3462.07
3468.11
3475.55
3484.43
3494.78
3506.66
3520.12
3535.2
3551.97
3570.45
3590.69
3612.69
3636.45
3661.92
3689.04
3717.69
3747.72
3778.93
3811.18
3843.96
3877.06
3910.1
3942.68
3974.37
4004.76
4033.42
4059.95
4083.96
4105.09
4123.07
4137.62
4148.55
4155.73
4159.08
4158.54
4154.21
4146.21
4134.61
4119.64
4101.52
4080.52
4056.93
4031.06
4003.25
3973.82
3943.12
3911.5
3879.28
3846.8
3814.36
3782.28
3750.79
3720.08
3690.38
3661.88
3634.76
3609.15
3585.19
3562.94
3542.48
3523.87
3507.13
3492.28
3479.32
3468.24
3459.02
3451.64
3446.05
3442.19
3440.07
3439.68
3440.9
3443.71
3448.05
3453.88
3461.17
3469.9
3480.04
3491.56
3504.44
3518.68
3534.26
3551.18
3569.43
3589.01
3609.92
3632.13
3655.6
3680.32
3706.21
3733.18
3760.63
3789.07
3818.16
3847.71
3877.41
3906.99
3936.16
3964.57
3991.89
4017.78
4041.85
4063.78
4083.24
4099.89
4113.46
4123.71
4130.43
4133.45
4132.53
4127.69
4119.03
4106.56
4090.4
4070.79
4047.99
4022.36
3994.24
3964.09
3932.33
3899.43
3865.87
3832.11
3798.59
3765.78
3734.65
3705.51
3676.5
3648.86
3622.91
3598.76
3576.48
3346.92
3350.92
3356.44
3363.5
3372.15
3382.45
3394.45
3408.23
3423.81
3441.23
3460.5
3481.65
3504.67
3529.52
3556.15
3584.47
3614.36
3645.64
3678.06
3711.09
3745.16
3779.68
3814.23
3848.43
3881.84
3914
3944.49
3972.87
3998.77
4021.82
4041.68
4058.07
4070.77
4079.58
4084.38
4085.01
4081.51
4073.99
4062.52
4047.33
4028.65
4006.77
3982.01
3954.71
3925.28
3894.1
3861.58
3828.1
3794.02
3759.71
3725.58
3698.04
3665.79
3634.5
3604.49
3575.92
3548.9
3523.53
3499.84
3477.88
3457.63
3439.1
3422.27
3407.12
3393.62
3381.76
3371.5
3362.84
3355.76
3350.24
3346.29
3343.95
3343.16
3343.93
3346.28
3350.23
3355.78
3362.94
3371.71
3382.1
3394.1
3407.73
3422.97
3439.8
3458.22
3478.22
3499.77
3522.85
3547.42
3573.44
3600.83
3629.51
3659.37
3690.26
3721.96
3754.25
3786.84
3819.43
3851.67
3883.22
3913.67
3942.66
3969.79
3994.68
4016.97
4036.32
4052.42
4065.01
4073.87
4078.81
4079.68
4076.49
4069.25
4057.97
4042.83
4024.04
4001.87
3976.65
3948.77
3918.66
3886.75
3853.51
3819.42
3784.9
3750.39
3716.28
3682.93
3650.65
3619.7
3590.29
3562.59
3536.73
3512.76
3490.73
3470.64
3452.45
3436.1
3421.51
3408.61
3397.3
3387.5
3379.13
3372.12
3366.41
3361.97
3358.77
3356.84
3356.17
3356.74
3358.62
3361.86
3366.49
3372.59
3380.22
3389.45
3400.33
3412.93
3427.3
3443.47
3461.48
3481.33
3503
3526.46
3551.66
3578.52
3606.91
3636.69
3667.69
3699.69
3732.44
3765.64
3799
3832.16
3864.75
3896.39
3926.67
3955.18
3981.53
4005.3
4026.15
4043.77
4057.85
4068.2
4074.62
4077.03
4075.36
4069.69
4060.13
4046.76
4029.82
4009.56
3986.31
3960.39
3932.18
3902.08
3870.5
3837.84
3804.53
3770.94
3737.44
3704.37
3672.02
3640.66
3610.51
3581.76
3554.57
3529.04
3505.25
3483.27
3463.11
3444.77
3428.24
3413.49
3400.48
3389.15
3379.48
3371.4
3364.86
3359.83
3356.23
3354.07
3353.34
3353.94
3355.89
3359.2
3363.86
3369.9
3377.34
3386.21
3396.56
3408.43
3421.88
3436.96
3453.72
3472.2
3492.43
3514.43
3538.19
3563.66
3590.78
3619.44
3649.49
3680.72
3712.97
3745.79
3778.91
3811.98
3844.59
3876.33
3906.75
3935.45
3962.01
3986.05
4007.22
4025.22
4039.8
4050.74
4057.93
4061.29
4060.74
4056.4
4048.38
4036.77
4021.77
4003.62
3982.59
3958.97
3933.08
3905.23
3875.77
3845.05
3813.4
3781.16
3748.65
3716.19
3684.09
3652.59
3621.87
3592.15
3563.64
3536.51
3510.9
3486.93
3464.68
3444.22
3425.61
3408.87
3394.02
3381.07
3369.99
3360.77
3353.4
3347.81
3343.95
3341.85
3341.45
3342.68
3345.49
3349.83
3355.67
3362.96
3371.68
3381.82
3393.34
3406.22
3420.47
3436.05
3452.96
3471.21
3490.79
3511.69
3533.9
3557.38
3582.1
3608
3634.97
3662.43
3690.88
3719.99
3749.55
3779.28
3808.88
3838.07
3866.51
3893.87
3919.79
3943.89
3965.85
3985.34
4002.02
4015.62
4025.89
4032.62
4035.65
4034.74
4029.89
4021.22
4008.73
3992.56
3972.91
3950.08
3924.42
3896.26
3866.07
3834.27
3801.33
3767.74
3733.95
3700.4
3667.57
3636.43
3607.26
3578.24
3550.59
3524.63
3500.48
3478.2
3248.65
3252.64
3258.15
3265.21
3273.85
3284.14
3296.13
3309.9
3325.48
3342.89
3362.15
3383.3
3406.31
3431.17
3457.8
3486.13
3516.03
3547.33
3579.78
3612.83
3646.94
3681.49
3716.09
3750.35
3783.8
3816.03
3846.58
3875.01
3900.96
3924.05
3943.96
3960.39
3973.12
3981.94
3986.75
3987.4
3983.87
3976.34
3964.84
3949.61
3930.89
3908.96
3884.15
3856.79
3827.31
3796.08
3763.5
3729.98
3695.87
3661.52
3627.35
3599.76
3567.47
3536.17
3506.15
3477.57
3450.55
3425.18
3401.5
3379.54
3359.3
3340.78
3323.96
3308.81
3295.32
3283.46
3273.21
3264.55
3257.47
3251.95
3248.01
3245.66
3244.87
3245.64
3247.99
3251.94
3257.49
3264.64
3273.41
3283.8
3295.79
3309.42
3324.66
3341.49
3359.91
3379.91
3401.46
3424.54
3449.11
3475.13
3502.53
3531.22
3561.09
3592
3623.73
3656.04
3688.67
3721.29
3753.59
3785.18
3815.68
3844.72
3871.9
3896.84
3919.18
3938.57
3954.72
3967.34
3976.22
3981.18
3982.07
3978.86
3971.61
3960.31
3945.14
3926.3
3904.08
3878.81
3850.87
3820.69
3788.72
3755.43
3721.28
3686.71
3652.16
3618.01
3584.63
3552.33
3521.35
3491.93
3464.23
3438.36
3414.4
3392.38
3372.3
3354.12
3337.78
3323.2
3310.31
3299.02
3289.23
3280.87
3273.86
3268.16
3263.72
3260.52
3258.6
3257.92
3258.49
3260.36
3263.59
3268.22
3274.31
3281.93
3291.15
3302.02
3314.61
3328.97
3345.14
3363.14
3382.98
3404.66
3428.12
3453.33
3480.19
3508.59
3538.39
3569.41
3601.43
3634.21
3667.45
3700.85
3734.05
3766.69
3798.38
3828.72
3857.28
3883.68
3907.5
3928.41
3946.06
3960.18
3970.55
3976.99
3979.42
3977.73
3972.05
3962.46
3949.06
3932.08
3911.78
3888.47
3862.5
3834.24
3804.08
3772.45
3739.75
3706.38
3672.75
3639.22
3606.11
3573.74
3542.36
3512.19
3483.43
3456.23
3430.69
3406.91
3384.93
3364.77
3346.44
3329.91
3315.17
3302.17
3290.85
3281.19
3273.11
3266.58
3261.56
3257.96
3255.81
3255.08
3255.67
3257.63
3260.94
3265.6
3271.63
3279.06
3287.93
3298.27
3310.14
3323.58
3338.65
3355.4
3373.87
3394.1
3416.09
3439.84
3465.32
3492.45
3521.12
3551.19
3582.44
3614.72
3647.57
3680.74
3713.86
3746.52
3778.3
3808.78
3837.54
3864.16
3888.25
3909.46
3927.5
3942.11
3953.08
3960.28
3963.64
3963.09
3958.73
3950.69
3939.05
3924.02
3905.83
3884.76
3861.1
3835.16
3807.26
3777.76
3746.99
3715.3
3683.02
3650.48
3617.99
3585.86
3554.33
3523.59
3493.85
3465.33
3438.19
3412.57
3388.6
3366.35
3345.88
3327.27
3310.54
3295.69
3282.74
3271.66
3262.45
3255.08
3249.5
3245.65
3243.55
3243.16
3244.39
3247.21
3251.55
3257.39
3264.69
3273.41
3283.55
3295.07
3307.95
3322.19
3337.77
3354.69
3372.93
3392.51
3413.41
3435.62
3459.1
3483.82
3509.72
3536.7
3564.19
3592.65
3621.78
3651.37
3681.13
3710.76
3740
3768.48
3795.88
3821.85
3846
3868.01
3887.54
3904.26
3917.89
3928.19
3934.94
3937.98
3937.11
3932.24
3923.56
3911.05
3894.84
3875.15
3852.27
3826.55
3798.34
3768.09
3736.23
3703.23
3669.59
3635.75
3602.16
3569.29
3538.16
3508.94
3479.9
3452.24
3426.27
3402.11
3379.84
3150.32
3154.3
3159.8
3166.85
3175.48
3185.76
3197.74
3211.5
3227.07
3244.47
3263.73
3284.87
3307.88
3332.73
3359.37
3387.71
3417.63
3448.96
3481.43
3514.51
3548.66
3583.28
3617.94
3652.26
3685.8
3718.1
3748.72
3777.22
3803.24
3826.41
3846.37
3862.85
3875.61
3884.47
3889.28
3889.95
3886.4
3878.83
3867.3
3852.03
3833.24
3811.25
3786.37
3758.94
3729.39
3698.09
3665.44
3631.86
3597.69
3563.29
3529.07
3501.41
3469.09
3437.77
3407.73
3379.15
3352.13
3326.76
3303.08
3281.13
3260.9
3242.38
3225.57
3210.43
3196.95
3185.1
3174.85
3166.2
3159.12
3153.6
3149.66
3147.31
3146.52
3147.29
3149.64
3153.58
3159.13
3166.28
3175.05
3185.43
3197.43
3211.05
3226.28
3243.11
3261.53
3281.53
3303.08
3326.16
3350.73
3376.75
3404.16
3432.86
3462.75
3493.68
3525.45
3557.8
3590.47
3623.15
3655.5
3687.16
3717.73
3746.84
3774.09
3799.09
3821.49
3840.95
3857.15
3869.82
3878.73
3883.71
3884.62
3881.4
3874.12
3862.8
3847.58
3828.68
3806.39
3781.05
3753.03
3722.77
3690.72
3657.35
3623.12
3588.49
3553.88
3519.69
3486.27
3453.92
3422.93
3393.49
3365.78
3339.91
3315.95
3293.94
3273.87
3255.7
3239.38
3224.82
3211.95
3200.68
3190.9
3182.55
3175.55
3169.86
3165.42
3162.23
3160.31
3159.61
3160.18
3162.05
3165.26
3169.89
3175.96
3183.57
3192.78
3203.64
3216.22
3230.57
3246.73
3264.72
3284.56
3306.23
3329.7
3354.91
3381.79
3410.21
3440.02
3471.07
3503.12
3535.94
3569.23
3602.68
3635.94
3668.64
3700.4
3730.81
3759.45
3785.92
3809.81
3830.78
3848.48
3862.65
3873.05
3879.52
3881.95
3880.26
3874.57
3864.94
3851.5
3834.46
3814.1
3790.73
3764.69
3736.35
3706.12
3674.42
3641.65
3608.22
3574.53
3540.95
3507.8
3475.39
3443.98
3413.79
3385.02
3357.81
3332.27
3308.48
3286.5
3266.35
3248.03
3231.51
3216.78
3203.79
3192.49
3182.83
3174.76
3168.24
3163.23
3159.64
3157.49
3156.76
3157.36
3159.32
3162.62
3167.28
3173.31
3180.73
3189.59
3199.92
3211.77
3225.2
3240.26
3257
3275.47
3295.68
3317.67
3341.42
3366.9
3394.04
3422.73
3452.82
3484.11
3516.42
3549.32
3582.54
3615.72
3648.45
3680.31
3710.86
3739.69
3766.38
3790.54
3811.82
3829.91
3844.56
3855.56
3862.78
3866.14
3865.59
3861.21
3853.14
3841.46
3826.39
3808.15
3787.02
3763.29
3737.29
3709.34
3679.78
3648.95
3617.2
3584.87
3552.28
3519.75
3487.58
3456.03
3425.26
3395.49
3366.95
3339.8
3314.17
3290.18
3267.93
3247.46
3228.85
3212.12
3197.28
3184.33
3173.26
3164.06
3156.69
3151.12
3147.28
3145.19
3144.8
3146.04
3148.87
3153.21
3159.06
3166.36
3175.08
3185.23
3196.74
3209.62
3223.86
3239.44
3256.35
3274.6
3294.17
3315.07
3337.27
3360.75
3385.48
3411.39
3438.38
3465.9
3494.38
3523.54
3553.16
3582.96
3612.64
3641.93
3670.47
3697.93
3723.96
3748.17
3770.25
3789.84
3806.61
3820.3
3830.64
3837.42
3840.47
3839.63
3834.75
3826.05
3813.5
3797.25
3777.51
3754.56
3728.77
3700.48
3670.14
3638.21
3605.14
3571.43
3537.52
3503.88
3470.96
3439.82
3410.54
3381.48
3353.8
3327.82
3303.66
3281.38
3051.92
3055.9
3061.39
3068.43
3077.04
3087.31
3099.28
3113.02
3128.58
3145.96
3165.22
3186.35
3209.35
3234.21
3260.86
3289.21
3319.15
3350.51
3383.02
3416.13
3450.35
3485.03
3519.77
3554.19
3587.81
3620.2
3650.92
3679.52
3705.62
3728.87
3748.91
3765.45
3778.26
3787.15
3791.98
3792.66
3789.09
3781.48
3769.9
3754.57
3735.71
3713.64
3688.67
3661.15
3631.51
3600.12
3567.39
3533.73
3499.49
3465.04
3430.75
3403
3370.63
3339.29
3309.24
3280.65
3253.62
3228.25
3204.58
3182.64
3162.42
3143.92
3127.11
3111.99
3098.51
3086.67
3076.43
3067.78
3060.71
3055.19
3051.26
3048.9
3048.1
3048.87
3051.22
3055.16
3060.71
3067.85
3076.62
3086.99
3098.99
3112.61
3127.84
3144.66
3163.08
3183.08
3204.63
3227.7
3252.28
3278.31
3305.72
3334.44
3364.36
3395.32
3427.12
3459.52
3492.25
3525
3557.42
3589.15
3619.81
3649
3676.34
3701.43
3723.91
3743.44
3759.71
3772.43
3781.39
3786.4
3787.32
3784.1
3776.8
3765.43
3750.16
3731.19
3708.81
3683.37
3655.25
3624.89
3592.74
3559.27
3524.96
3490.24
3455.56
3421.3
3387.83
3355.45
3324.42
3294.96
3267.24
3241.37
3217.42
3195.41
3175.36
3157.21
3140.91
3126.38
3113.53
3102.27
3092.51
3084.18
3077.19
3071.51
3067.07
3063.89
3061.96
3061.26
3061.82
3063.68
3066.89
3071.49
3077.56
3085.15
3094.34
3105.19
3117.75
3132.09
3148.24
3166.23
3186.06
3207.73
3231.2
3256.42
3283.31
3311.74
3341.59
3372.66
3404.76
3437.63
3470.97
3504.49
3537.82
3570.61
3602.46
3632.95
3661.68
3688.24
3712.22
3733.26
3751.04
3765.27
3775.71
3782.2
3784.64
3782.96
3777.23
3767.56
3754.07
3736.97
3716.53
3693.08
3666.94
3638.52
3608.2
3576.4
3543.55
3510.04
3476.29
3442.64
3409.44
3376.99
3345.54
3315.32
3286.53
3259.31
3233.76
3209.97
3188
3167.86
3149.54
3133.04
3118.32
3105.34
3094.05
3084.41
3076.35
3069.84
3064.84
3061.26
3059.12
3058.39
3058.99
3060.95
3064.25
3068.9
3074.93
3082.34
3091.19
3101.51
3113.35
3126.76
3141.81
3158.53
3176.98
3197.19
3219.17
3242.92
3268.41
3295.55
3324.27
3354.38
3385.71
3418.06
3451.02
3484.32
3517.58
3550.39
3582.34
3612.99
3641.91
3668.69
3692.93
3714.28
3732.44
3747.14
3758.18
3765.42
3768.79
3768.24
3763.84
3755.73
3744
3728.87
3710.57
3689.36
3665.57
3639.49
3611.46
3581.82
3550.92
3519.1
3486.71
3454.05
3421.47
3389.27
3357.67
3326.86
3297.07
3268.5
3241.33
3215.68
3191.69
3169.43
3148.96
3130.35
3113.62
3098.78
3085.84
3074.79
3065.59
3058.24
3052.67
3048.85
3046.76
3046.38
3047.63
3050.46
3054.82
3060.67
3067.97
3076.7
3086.84
3098.36
3111.24
3125.47
3141.05
3157.96
3176.2
3195.76
3216.66
3238.87
3262.35
3287.08
3312.99
3339.99
3367.57
3396.07
3425.26
3454.92
3484.78
3514.52
3543.87
3572.48
3600.02
3626.13
3650.42
3672.57
3692.24
3709.08
3722.83
3733.22
3740.04
3743.11
3742.29
3737.42
3728.68
3716.09
3699.78
3679.97
3656.95
3631.06
3602.67
3572.24
3540.21
3507.04
3473.24
3439.26
3405.55
3372.58
3341.43
3312.07
3282.97
3255.27
3229.28
3205.11
3182.83
2953.48
2957.44
2962.92
2969.94
2978.54
2988.79
3000.74
3014.47
3030.01
3047.38
3066.62
3087.75
3110.75
3135.6
3162.26
3190.63
3220.59
3251.98
3284.55
3317.7
3351.99
3386.76
3421.59
3456.11
3489.84
3522.35
3553.18
3581.89
3608.1
3631.45
3651.57
3668.19
3681.06
3689.99
3694.84
3695.52
3691.94
3684.28
3672.64
3657.24
3638.29
3616.13
3591.05
3563.43
3533.67
3502.18
3469.35
3435.59
3401.28
3366.75
3332.38
3304.51
3272.1
3240.73
3210.66
3182.06
3155.03
3129.66
3106
3084.07
3063.86
3045.37
3028.59
3013.47
3000.01
2988.18
2977.94
2969.3
2962.23
2956.72
2952.79
2950.43
2949.63
2950.4
2952.74
2956.68
2962.22
2969.36
2978.12
2988.49
3000.48
3014.1
3029.33
3046.15
3064.57
3084.56
3106.1
3129.18
3153.76
3179.79
3207.22
3235.96
3265.9
3296.9
3328.75
3361.21
3394.01
3426.83
3459.34
3491.17
3521.92
3551.22
3578.67
3603.86
3626.44
3646.06
3662.4
3675.2
3684.2
3689.24
3690.18
3686.96
3679.63
3668.21
3652.87
3633.81
3611.33
3585.78
3557.54
3527.06
3494.79
3461.2
3426.78
3391.96
3357.19
3322.86
3289.33
3256.89
3225.83
3196.35
3168.61
3142.74
3118.79
3096.8
3076.77
3058.64
3042.37
3027.86
3015.04
3003.8
2994.07
2985.75
2978.78
2973.11
2968.68
2965.5
2963.57
2962.86
2963.41
2965.26
2968.45
2973.04
2979.09
2986.66
2995.84
3006.66
3019.21
3033.54
3049.67
3067.65
3087.48
3109.14
3132.62
3157.85
3184.75
3213.21
3243.08
3274.2
3306.35
3339.27
3372.69
3406.28
3439.7
3472.59
3504.54
3535.14
3563.98
3590.64
3614.73
3635.87
3653.73
3668.02
3678.52
3685.04
3687.49
3685.81
3680.06
3670.33
3656.77
3639.6
3619.07
3595.51
3569.27
3540.73
3510.3
3478.4
3445.45
3411.85
3378.01
3344.29
3311.02
3278.52
3247.03
3216.78
3187.96
3160.72
3135.17
3111.38
3089.41
3069.28
3050.98
3034.49
3019.79
3006.83
2995.55
2985.92
2977.88
2971.38
2966.39
2962.82
2960.7
2959.97
2960.57
2962.53
2965.83
2970.48
2976.49
2983.89
2992.73
3003.04
3014.86
3028.26
3043.28
3059.99
3078.43
3098.62
3120.59
3144.34
3169.83
3196.99
3225.73
3255.88
3287.25
3319.66
3352.69
3386.07
3419.42
3452.34
3484.4
3515.15
3544.19
3571.08
3595.42
3616.87
3635.11
3649.87
3660.96
3668.22
3671.6
3671.04
3666.62
3658.46
3646.67
3631.47
3613.09
3591.8
3567.91
3541.74
3513.62
3483.89
3452.9
3421.01
3388.53
3355.81
3323.16
3290.91
3259.26
3228.41
3198.58
3169.98
3142.78
3117.12
3093.12
3070.85
3050.39
3031.77
3015.05
3000.22
2987.28
2976.24
2967.05
2959.71
2954.15
2950.34
2948.27
2947.9
2949.16
2952
2956.36
2962.22
2969.52
2978.26
2988.4
2999.92
3012.79
3027.03
3042.6
3059.5
3077.74
3097.3
3118.19
3140.4
3163.88
3188.61
3214.54
3241.56
3269.18
3297.71
3326.94
3356.66
3386.57
3416.38
3445.82
3474.51
3502.14
3528.34
3552.73
3574.98
3594.74
3611.67
3625.49
3635.94
3642.8
3645.9
3645.1
3640.23
3631.46
3618.82
3602.45
3582.55
3559.43
3533.43
3504.93
3474.38
3442.23
3408.95
3375.04
3340.97
3307.17
3274.14
3242.96
3213.52
3184.39
3156.67
3130.66
3106.48
3084.2
2854.97
2858.92
2864.38
2871.39
2879.97
2890.2
2902.13
2915.84
2931.36
2948.72
2967.95
2989.06
3012.06
3036.91
3063.58
3091.97
3121.96
3153.39
3186.01
3219.21
3253.59
3288.46
3323.4
3358.04
3391.9
3424.54
3455.51
3484.34
3510.68
3534.14
3554.37
3571.07
3584.01
3592.98
3597.86
3598.54
3594.94
3587.23
3575.53
3560.03
3540.99
3518.71
3493.52
3465.76
3435.88
3404.26
3371.31
3337.45
3303.04
3268.43
3233.98
3205.96
3173.49
3142.09
3112.01
3083.39
3056.36
3031
3007.34
2985.42
2965.23
2946.75
2929.98
2914.89
2901.44
2889.62
2879.39
2870.76
2863.7
2858.19
2854.26
2851.9
2851.09
2851.86
2854.2
2858.13
2863.66
2870.8
2879.56
2889.93
2901.91
2915.52
2930.74
2947.56
2965.98
2985.97
3007.51
3030.59
3055.17
3081.21
3108.65
3137.41
3167.38
3198.42
3230.33
3262.86
3295.74
3328.65
3361.27
3393.21
3424.08
3453.5
3481.06
3506.37
3529.07
3548.79
3565.23
3578.1
3587.17
3592.25
3593.21
3589.98
3582.61
3571.14
3555.72
3536.56
3513.96
3488.28
3459.9
3429.27
3396.85
3363.13
3328.58
3293.65
3258.78
3224.36
3190.75
3158.27
3127.16
3097.65
3069.9
3044.02
3020.08
2998.11
2978.09
2959.99
2943.75
2929.27
2916.48
2905.27
2895.57
2887.27
2880.32
2874.65
2870.23
2867.06
2865.12
2864.41
2864.95
2866.79
2869.96
2874.53
2880.56
2888.11
2897.26
2908.07
2920.6
2934.91
2951.02
2968.99
2988.81
3010.48
3033.95
3059.19
3086.11
3114.6
3144.51
3175.67
3207.88
3240.88
3274.37
3308.06
3341.58
3374.58
3406.65
3437.37
3466.34
3493.13
3517.34
3538.59
3556.55
3570.92
3581.48
3588.04
3590.51
3588.82
3583.03
3573.25
3559.62
3542.35
3521.71
3498.04
3471.67
3443.01
3412.45
3380.42
3347.34
3313.64
3279.7
3245.89
3212.55
3179.99
3148.45
3118.16
3089.32
3062.06
3036.5
3012.71
2990.75
2970.62
2952.34
2935.87
2921.18
2908.24
2896.98
2887.37
2879.35
2872.87
2867.88
2864.33
2862.22
2861.49
2862.1
2864.06
2867.35
2871.99
2878
2885.39
2894.21
2904.5
2916.3
2929.68
2944.69
2961.37
2979.79
2999.97
3021.93
3045.68
3071.17
3098.35
3127.11
3157.3
3188.73
3221.2
3254.32
3287.8
3321.26
3354.3
3386.48
3417.37
3446.53
3473.55
3498.01
3519.56
3537.9
3552.74
3563.88
3571.18
3574.56
3573.99
3569.54
3561.32
3549.47
3534.19
3515.71
3494.33
3470.33
3444.05
3415.82
3385.99
3354.9
3322.91
3290.34
3257.53
3224.81
3192.5
3160.8
3129.89
3100.02
3071.39
3044.17
3018.49
2994.47
2972.2
2951.73
2933.11
2916.39
2901.57
2888.64
2877.61
2868.44
2861.11
2855.57
2851.77
2849.71
2849.35
2850.63
2853.48
2857.85
2863.71
2871.02
2879.76
2889.9
2901.42
2914.3
2928.53
2944.09
2960.99
2979.22
2998.77
3019.66
3041.87
3065.35
3090.09
3116.03
3143.06
3170.75
3199.31
3228.58
3258.36
3288.35
3318.25
3347.77
3376.57
3404.3
3430.62
3455.12
3477.47
3497.34
3514.36
3528.27
3538.79
3545.71
3548.85
3548.07
3543.2
3534.39
3521.69
3505.24
3485.25
3462.01
3435.88
3407.24
3376.56
3344.27
3310.86
3276.83
3242.64
3208.75
3175.64
3144.43
3114.9
3085.73
3057.97
3031.94
3007.76
2985.47
2756.4
2760.34
2765.79
2772.77
2781.33
2791.54
2803.45
2817.14
2832.64
2849.98
2869.19
2890.29
2913.28
2938.13
2964.81
2993.22
3023.25
3054.73
3087.4
3120.67
3155.14
3190.12
3225.19
3259.97
3293.98
3326.78
3357.89
3386.87
3413.35
3436.94
3457.29
3474.09
3487.11
3496.14
3501.04
3501.73
3498.1
3490.34
3478.55
3462.96
3443.8
3421.4
3396.06
3368.16
3338.13
3306.37
3273.29
3239.3
3204.78
3170.09
3135.54
3107.33
3074.81
3043.38
3013.27
2984.64
2957.61
2932.24
2908.6
2886.69
2866.52
2848.06
2831.31
2816.23
2802.8
2790.99
2780.78
2772.16
2765.1
2759.6
2755.67
2753.3
2752.49
2753.26
2755.59
2759.52
2765.05
2772.18
2780.93
2791.29
2803.27
2816.88
2832.09
2848.91
2867.32
2887.31
2908.85
2931.93
2956.51
2982.56
3010.01
3038.8
3068.8
3099.89
3131.86
3164.47
3197.44
3230.46
3263.2
3295.26
3326.27
3355.82
3383.53
3408.97
3431.8
3451.65
3468.19
3481.16
3490.29
3495.42
3496.4
3493.17
3485.76
3474.22
3458.7
3439.43
3416.69
3390.86
3362.32
3331.52
3298.95
3265.07
3230.37
3195.31
3160.32
3125.8
3092.11
3059.56
3028.4
2998.86
2971.09
2945.21
2921.28
2899.32
2879.33
2861.27
2845.05
2830.62
2817.86
2806.69
2797.01
2788.73
2781.8
2776.15
2771.74
2768.57
2766.63
2765.91
2766.44
2768.26
2771.42
2775.97
2781.97
2789.5
2798.62
2809.41
2821.91
2836.2
2852.3
2870.26
2890.07
2911.73
2935.21
2960.46
2987.4
3015.92
3045.87
3077.09
3109.36
3142.43
3176.02
3209.81
3243.45
3276.58
3308.78
3339.65
3368.77
3395.71
3420.05
3441.43
3459.5
3473.97
3484.6
3491.2
3493.68
3491.98
3486.16
3476.32
3462.59
3445.22
3424.46
3400.65
3374.14
3345.33
3314.62
3282.45
3249.24
3215.41
3181.36
3147.45
3114.03
3081.39
3049.79
3019.47
2990.59
2963.31
2937.74
2913.96
2892
2871.89
2853.62
2837.17
2822.51
2809.58
2798.35
2788.76
2780.75
2774.29
2769.32
2765.79
2763.68
2762.96
2763.57
2765.53
2768.82
2773.46
2779.45
2786.83
2795.63
2805.9
2817.68
2831.03
2846.02
2862.68
2881.08
2901.24
2923.19
2946.93
2972.43
2999.63
3028.42
3058.66
3090.15
3122.69
3155.91
3189.5
3223.08
3256.26
3288.58
3319.62
3348.94
3376.1
3400.7
3422.38
3440.82
3455.74
3466.94
3474.28
3477.67
3477.09
3472.61
3464.33
3452.4
3437.02
3418.44
3396.94
3372.83
3346.42
3318.07
3288.12
3256.91
3224.81
3192.13
3159.23
3126.42
3094.05
3062.29
3031.32
3001.4
2972.72
2945.47
2919.77
2895.74
2873.46
2852.98
2834.37
2817.66
2802.84
2789.93
2778.91
2769.75
2762.44
2756.91
2753.14
2751.08
2750.74
2752.03
2754.9
2759.28
2765.15
2772.46
2781.2
2791.35
2802.87
2815.74
2829.97
2845.53
2862.42
2880.64
2900.19
2921.07
2943.27
2966.76
2991.51
3017.46
3044.5
3072.27
3100.86
3130.19
3160.04
3190.11
3220.1
3249.73
3278.64
3306.5
3332.94
3357.57
3380.05
3400.04
3417.18
3431.18
3441.79
3448.77
3451.95
3451.19
3446.31
3437.46
3424.69
3408.16
3388.06
3364.68
3338.41
3309.62
3278.77
3246.33
3212.76
3178.59
3144.27
3110.28
3077.09
3045.84
3016.2
2986.99
2959.19
2933.14
2908.94
2886.66
2657.78
2661.7
2667.13
2674.09
2682.63
2692.81
2704.7
2718.36
2733.83
2751.15
2770.35
2791.44
2814.42
2839.27
2865.96
2894.39
2924.46
2956
2988.73
3022.06
3056.64
3091.75
3126.97
3161.91
3196.08
3229.05
3260.33
3289.48
3316.12
3339.86
3360.34
3377.26
3390.37
3399.45
3404.38
3405.07
3401.42
3393.59
3381.72
3366.02
3346.73
3324.18
3298.68
3270.62
3240.42
3208.5
3175.27
3141.14
3106.5
3071.71
3037.07
3008.62
2976.05
2944.59
2914.45
2885.81
2858.77
2833.41
2809.78
2787.88
2767.73
2749.3
2732.57
2717.51
2704.09
2692.3
2682.1
2673.49
2666.44
2660.94
2657.01
2654.65
2653.83
2654.59
2656.92
2660.84
2666.36
2673.49
2682.23
2692.59
2704.57
2718.16
2733.37
2750.19
2768.59
2788.57
2810.12
2833.19
2857.78
2883.83
2911.31
2940.12
2970.16
3001.31
3033.35
3066.05
3099.12
3132.26
3165.13
3197.34
3228.49
3258.2
3286.06
3311.66
3334.64
3354.62
3371.29
3384.35
3393.57
3398.75
3399.75
3396.51
3389.06
3377.45
3361.82
3342.42
3319.53
3293.52
3264.8
3233.82
3201.06
3167.01
3132.14
3096.93
3061.81
3027.18
2993.4
2960.77
2929.56
2899.99
2872.2
2846.31
2822.39
2800.46
2780.49
2762.46
2746.29
2731.89
2719.17
2708.04
2698.39
2690.15
2683.23
2677.6
2673.2
2670.04
2668.09
2667.36
2667.88
2669.68
2672.82
2677.34
2683.32
2690.82
2699.92
2710.67
2723.15
2737.41
2753.5
2771.44
2791.24
2812.9
2836.38
2861.65
2888.61
2917.16
2947.16
2978.44
3010.78
3043.95
3077.64
3111.55
3145.32
3178.59
3210.95
3241.98
3271.27
3298.37
3322.87
3344.39
3362.59
3377.16
3387.87
3394.52
3397.02
3395.31
3389.45
3379.53
3365.71
3348.21
3327.32
3303.35
3276.68
3247.7
3216.83
3184.5
3151.14
3117.16
3082.98
3048.96
3015.45
2982.73
2951.07
2920.7
2891.79
2864.49
2838.91
2815.12
2793.17
2773.07
2754.82
2738.39
2723.75
2710.86
2699.65
2690.08
2682.1
2675.65
2670.7
2667.18
2665.09
2664.37
2664.99
2666.95
2670.24
2674.87
2680.85
2688.21
2696.99
2707.24
2718.99
2732.32
2747.28
2763.92
2782.29
2802.43
2824.37
2848.1
2873.61
2900.82
2929.65
2959.95
2991.51
3024.13
3057.46
3091.17
3124.9
3158.22
3190.71
3221.92
3251.41
3278.73
3303.49
3325.31
3343.87
3358.89
3370.16
3377.53
3380.94
3380.35
3375.82
3367.47
3355.46
3339.98
3321.28
3299.64
3275.39
3248.85
3220.36
3190.27
3158.94
3126.71
3093.92
3060.9
3027.99
2995.56
2963.73
2932.69
2902.71
2873.99
2846.7
2820.98
2796.93
2774.64
2754.16
2735.55
2718.84
2704.04
2691.14
2680.13
2670.99
2663.7
2658.19
2654.43
2652.39
2652.07
2653.37
2656.25
2660.65
2666.52
2673.85
2682.59
2692.74
2704.26
2717.13
2731.35
2746.91
2763.79
2782
2801.54
2822.42
2844.62
2868.11
2892.87
2918.83
2945.89
2973.73
3002.37
3031.75
3061.69
3091.86
3121.95
3151.7
3180.74
3208.73
3235.32
3260.09
3282.71
3302.84
3320.1
3334.22
3344.92
3351.97
3355.2
3354.46
3349.58
3340.68
3327.84
3311.2
3290.98
3267.46
3241.02
3212.05
3181.03
3148.4
3114.67
3080.34
3045.87
3011.76
2978.49
2947.17
2917.43
2888.16
2860.32
2834.25
2810.03
2787.75
2559.1
2563
2568.41
2575.35
2583.86
2594.01
2605.87
2619.5
2634.95
2652.25
2671.42
2692.5
2715.47
2740.32
2767.02
2795.48
2825.59
2857.19
2890
2923.4
2958.1
2993.35
3028.73
3063.84
3098.2
3131.36
3162.84
3192.17
3218.98
3242.89
3263.52
3280.57
3293.77
3302.93
3307.89
3308.59
3304.9
3297
3285.03
3269.21
3249.78
3227.06
3201.38
3173.14
3142.76
3110.65
3077.25
3042.96
3008.19
2973.29
2938.58
2909.82
2877.21
2845.71
2815.56
2786.9
2759.85
2734.49
2710.87
2689
2668.86
2650.46
2633.75
2618.71
2605.32
2593.54
2583.36
2574.76
2567.71
2562.22
2558.3
2555.93
2555.11
2555.86
2558.19
2562.1
2567.62
2574.73
2583.47
2593.82
2605.79
2619.38
2634.58
2651.39
2669.8
2689.77
2711.31
2734.39
2758.97
2785.04
2812.53
2841.37
2871.46
2902.66
2934.79
2967.58
3000.77
3034.05
3067.06
3099.43
3130.75
3160.63
3188.67
3214.44
3237.58
3257.72
3274.52
3287.7
3297
3302.24
3303.27
3300.02
3292.52
3280.82
3265.09
3245.53
3222.47
3196.27
3167.35
3136.16
3103.19
3068.94
3033.9
2998.52
2963.25