/*--------------------------------*- C++ -*----------------------------------*\
| =========                 |                                                 |
| \\      /  F ield         | OpenFOAM: The Open Source CFD Toolbox           |
|  \\    /   O peration     | Version:  3.0.1                                 |
|   \\  /    A nd           | Web:      www.OpenFOAM.org                      |
|    \\/     M anipulation  |                                                 |
\*---------------------------------------------------------------------------*/
FoamFile
{
    version     2.0;
    format      ascii;
    class       surfaceScalarField;
    location    "22.8";
    object      phi;
}
// * * * * * * * * * * * * * * * * * * * * * * * * * * * * * * * * * * * * * //

dimensions      [0 3 -1 0 0 0 0];

internalField   nonuniform List<scalar> 
42423
(
0.000200758
-1.10485e-05
0.000209962
-9.2039e-06
0.000217008
-7.04578e-06
0.000221685
-4.67782e-06
0.000223999
-2.3139e-06
0.000223858
1.41475e-07
0.000221252
2.60601e-06
0.00021609
5.16223e-06
0.000208495
7.59492e-06
0.000198724
9.77066e-06
0.000186929
1.17953e-05
0.000173194
1.37346e-05
0.000157989
1.5205e-05
0.000141361
1.66286e-05
0.000123836
1.75241e-05
0.000105449
1.83878e-05
8.64632e-05
1.89854e-05
6.72622e-05
1.9201e-05
4.79912e-05
1.92709e-05
2.88664e-05
1.91249e-05
1.02004e-05
1.8666e-05
-8.01897e-06
1.82194e-05
-2.55484e-05
1.75294e-05
-4.22755e-05
1.67272e-05
-5.81246e-05
1.5849e-05
-7.30135e-05
1.4889e-05
-8.69317e-05
1.39182e-05
-9.98216e-05
1.28899e-05
-0.000111689
1.18675e-05
-0.000122553
1.0864e-05
-0.000132423
9.8701e-06
-0.000141309
8.88539e-06
-0.000149268
7.95903e-06
-0.00015631
7.04199e-06
-0.000162484
6.17432e-06
-0.00016782
5.33652e-06
-0.000172349
4.52891e-06
-0.00017608
3.73112e-06
-0.000179053
2.97272e-06
-0.000181297
2.24369e-06
-0.000182809
1.51265e-06
-0.00018365
8.40014e-07
-0.00018378
1.30331e-07
-0.000183166
-6.13716e-07
-0.000181757
-1.40914e-06
-0.000179702
-2.05531e-06
-0.000176852
-2.84922e-06
-0.000173259
-3.59302e-06
-0.000168845
-4.41459e-06
-0.000163733
-5.11218e-06
-0.000157617
-6.11582e-06
-0.000150705
-6.91174e-06
-0.000142764
-7.94086e-06
-0.000133969
-8.79516e-06
-0.000124247
-9.72216e-06
-0.000113543
-1.07042e-05
-0.000101702
-1.18407e-05
-8.91337e-05
-1.25684e-05
-7.54063e-05
-1.37274e-05
-6.09629e-05
-1.44434e-05
-4.55393e-05
-1.54236e-05
-2.93056e-05
-1.62338e-05
-1.24006e-05
-1.6905e-05
5.00421e-06
-1.74049e-05
2.29277e-05
-1.79235e-05
4.09858e-05
-1.80582e-05
5.92057e-05
-1.82199e-05
7.73077e-05
-1.81021e-05
9.51261e-05
-1.78185e-05
0.000112534
-1.74084e-05
0.000129214
-1.66793e-05
0.000144944
-1.57303e-05
0.000159601
-1.46572e-05
0.000172876
-1.32746e-05
0.000184563
-1.16874e-05
0.000194568
-1.00046e-05
0.000202607
-8.03967e-06
0.000208664
-6.05688e-06
0.000212421
-3.75697e-06
0.000213989
-1.56779e-06
0.000213319
6.69757e-07
0.000210347
2.97208e-06
0.000204936
5.41058e-06
0.000197399
7.53696e-06
0.000187656
9.74299e-06
0.000176065
1.15918e-05
0.000162589
1.34756e-05
0.000147596
1.49926e-05
0.000131148
1.64482e-05
0.000113604
1.75444e-05
9.5151e-05
1.84527e-05
7.61007e-05
1.90503e-05
5.66612e-05
1.94395e-05
3.70891e-05
1.95721e-05
1.7676e-05
1.94131e-05
-1.44289e-06
1.91189e-05
-2.00244e-05
1.85815e-05
-3.79234e-05
1.7899e-05
-5.49387e-05
1.70153e-05
-7.09915e-05
1.60528e-05
-8.60178e-05
1.50263e-05
-9.98751e-05
1.38574e-05
-0.000112621
1.27454e-05
-0.000124167
1.15461e-05
-0.000134558
1.03916e-05
-0.000143897
9.33904e-06
-0.000152122
8.22424e-06
-0.000159376
7.25424e-06
-0.000165592
6.21632e-06
-0.000170879
5.28714e-06
-0.000175374
4.49432e-06
-0.000179032
3.65826e-06
-0.000181908
2.87633e-06
-0.000184009
2.10073e-06
-0.000185404
1.3947e-06
-0.000186142
7.38231e-07
-0.000186171
2.92625e-08
-0.000185551
-6.19767e-07
-0.000184289
-1.26216e-06
-0.000182328
-1.96167e-06
-0.000179716
-2.61135e-06
-0.000176517
-3.19891e-06
-0.000172613
-3.90442e-06
-0.000168093
-4.51946e-06
-0.000162879
-5.21426e-06
-0.000156967
-5.91266e-06
-0.000150412
-6.55464e-06
-0.000143113
-7.29887e-06
-0.000135083
-8.03018e-06
-0.00012631
-8.77251e-06
-0.000116738
-9.57279e-06
-0.00010646
-1.02772e-05
-9.53145e-05
-1.1146e-05
-8.33826e-05
-1.19319e-05
-7.05778e-05
-1.28048e-05
-5.69735e-05
-1.36043e-05
-4.26181e-05
-1.43555e-05
-2.74721e-05
-1.51461e-05
-1.17257e-05
-1.57464e-05
4.63818e-06
-1.63639e-05
2.14925e-05
-1.68543e-05
3.86937e-05
-1.72012e-05
5.60802e-05
-1.73865e-05
7.34757e-05
-1.73956e-05
9.06279e-05
-1.71523e-05
0.000107346
-1.67183e-05
0.00012338
-1.6034e-05
0.000138446
-1.50658e-05
0.000152329
-1.38835e-05
0.00016477
-1.24411e-05
0.000175517
-1.07463e-05
0.00018436
-8.84352e-06
0.000191084
-6.72418e-06
0.000195532
-4.44791e-06
0.000197567
-2.03495e-06
0.000197136
4.3068e-07
0.000194171
2.96571e-06
0.000188629
5.54207e-06
0.000180706
7.92223e-06
0.000170512
1.01947e-05
0.000158297
1.22142e-05
0.000144293
1.40042e-05
0.000128794
1.54995e-05
0.000112091
1.67024e-05
9.45601e-05
1.75312e-05
7.64482e-05
1.81118e-05
5.79622e-05
1.8486e-05
3.94746e-05
1.84876e-05
2.10787e-05
1.83959e-05
3.10212e-06
1.79766e-05
-1.43985e-05
1.75006e-05
-3.12076e-05
1.68091e-05
-4.72398e-05
1.60323e-05
-6.23916e-05
1.51518e-05
-7.66039e-05
1.42123e-05
-8.97968e-05
1.31929e-05
-0.000102004
1.22073e-05
-0.000113151
1.11469e-05
-0.000123314
1.01626e-05
-0.00013252
9.20684e-06
-0.000140798
8.27802e-06
-0.000148213
7.41462e-06
-0.000154798
6.58443e-06
-0.000160587
5.78911e-06
-0.000165654
5.0676e-06
-0.000169999
4.34476e-06
-0.000173641
3.64245e-06
-0.000176614
2.97284e-06
-0.000179022
2.40815e-06
-0.000180765
1.74295e-06
-0.000181926
1.16042e-06
-0.000182518
5.92115e-07
-0.000182499
-1.90995e-08
-0.000181904
-5.95139e-07
-0.000180683
-1.22094e-06
-0.000178846
-1.83634e-06
-0.000176385
-2.46171e-06
-0.000173205
-3.18005e-06
-0.000169375
-3.82941e-06
-0.000164721
-4.65464e-06
-0.00015939
-5.33085e-06
-0.000153175
-6.21503e-06
-0.000146126
-7.04852e-06
-0.000138174
-7.95181e-06
-0.00012932
-8.85398e-06
-0.00011948
-9.84091e-06
-0.000108807
-1.06724e-05
-9.71127e-05
-1.16944e-05
-8.45423e-05
-1.25704e-05
-7.10326e-05
-1.35098e-05
-5.66486e-05
-1.4384e-05
-4.14091e-05
-1.52395e-05
-2.5524e-05
-1.58851e-05
-8.96282e-06
-1.65612e-05
8.13624e-06
-1.70991e-05
2.56229e-05
-1.74867e-05
4.33457e-05
-1.77229e-05
6.10934e-05
-1.77477e-05
7.86885e-05
-1.75951e-05
9.58979e-05
-1.72095e-05
0.000112496
-1.65983e-05
0.000128224
-1.57275e-05
0.000142841
-1.4617e-05
0.000156107
-1.32661e-05
0.000167792
-1.16855e-05
0.000177698
-9.90573e-06
0.000185672
-7.97434e-06
0.000191537
-5.86498e-06
0.000195175
-3.63774e-06
0.000196548
-1.37343e-06
0.000195649
8.99494e-07
0.000192453
3.19601e-06
0.000186981
5.47172e-06
0.000179404
7.57709e-06
0.000169851
9.55289e-06
0.00015849
1.13613e-05
0.000145504
1.29855e-05
0.000131155
1.43497e-05
0.000115613
1.55419e-05
9.91422e-05
1.64705e-05
8.19805e-05
1.71617e-05
6.43585e-05
1.7622e-05
4.64882e-05
1.78703e-05
2.85991e-05
1.78891e-05
1.08793e-05
1.77199e-05
-6.54381e-06
1.74231e-05
-2.34375e-05
1.68937e-05
-3.97661e-05
1.63286e-05
-5.53343e-05
1.55682e-05
-7.00937e-05
1.47594e-05
-8.39646e-05
1.38709e-05
-9.68996e-05
1.2935e-05
-0.000108835
1.19354e-05
-0.00011983
1.0995e-05
-0.000129793
9.96266e-06
-0.000138764
8.97089e-06
-0.000146731
7.96704e-06
-0.000153769
7.0388e-06
-0.000159821
6.05185e-06
-0.000165004
5.18221e-06
-0.000169324
4.32068e-06
-0.000172793
3.46908e-06
-0.000175486
2.69248e-06
-0.000177488
2.00209e-06
-0.000178716
1.22821e-06
-0.000179273
5.57135e-07
-0.000179204
-6.9628e-08
-0.000178377
-8.26177e-07
-0.000176977
-1.40043e-06
-0.000174957
-2.02039e-06
-0.000172252
-2.7049e-06
-0.000168939
-3.3122e-06
-0.000164897
-4.04214e-06
-0.000160205
-4.69267e-06
-0.000154702
-5.50284e-06
-0.000148605
-6.09736e-06
-0.000141446
-7.15824e-06
-0.000133678
-7.76882e-06
-0.00012498
-8.69719e-06
-0.00011541
-9.56995e-06
-0.000105008
-1.04025e-05
-9.36519e-05
-1.1356e-05
-8.13674e-05
-1.22846e-05
-6.8422e-05
-1.29454e-05
-5.44482e-05
-1.39738e-05
-3.96742e-05
-1.47741e-05
-2.43273e-05
-1.5347e-05
-8.07391e-06
-1.62534e-05
8.68369e-06
-1.67576e-05
2.60094e-05
-1.73258e-05
4.37976e-05
-1.77882e-05
6.16475e-05
-1.785e-05
7.95566e-05
-1.79092e-05
9.72843e-05
-1.77278e-05
0.000114442
-1.71575e-05
0.000130959
-1.65171e-05
0.000146503
-1.55446e-05
0.000160814
-1.43111e-05
0.000173678
-1.28631e-05
0.000184822
-1.11442e-05
0.000194107
-9.28492e-06
0.000201379
-7.27286e-06
0.000206385
-5.00523e-06
0.000209157
-2.77208e-06
0.000209633
-4.76716e-07
0.000207755
1.87844e-06
0.000203613
4.14155e-06
0.000197367
6.24648e-06
0.000189134
8.2331e-06
0.000179025
1.01084e-05
0.00016729
1.17352e-05
0.000154004
1.32855e-05
0.00013963
1.43739e-05
0.000124068
1.5562e-05
0.000107842
1.62262e-05
9.09693e-05
1.68728e-05
7.37794e-05
1.71899e-05
5.63675e-05
1.74119e-05
3.89795e-05
1.7388e-05
2.17358e-05
1.72437e-05
4.81195e-06
1.69238e-05
-1.17329e-05
1.65449e-05
-2.77329e-05
1.59999e-05
-4.30974e-05
1.53645e-05
-5.77098e-05
1.46124e-05
-7.15404e-05
1.38305e-05
-8.45206e-05
1.29802e-05
-9.65926e-05
1.20721e-05
-0.000107768
1.11758e-05
-0.000117992
1.02231e-05
-0.000127263
9.2718e-06
-0.000135588
8.32451e-06
-0.000142954
7.36578e-06
-0.000149371
6.41694e-06
-0.000154866
5.49517e-06
-0.000159435
4.56971e-06
-0.00016311
3.67461e-06
-0.00016589
2.78032e-06
-0.0001678
1.90972e-06
-0.0001689
1.09957e-06
-0.000169205
3.05777e-07
-0.000168603
-6.02537e-07
-0.000167183
-1.41989e-06
-0.000164977
-2.20648e-06
-0.000162031
-2.94534e-06
-0.000158386
-3.6452e-06
-0.000153983
-4.4035e-06
-0.0001489
-5.08221e-06
-0.00014316
-5.74066e-06
-0.00013668
-6.47997e-06
-0.000129557
-7.12231e-06
-0.000121699
-7.85796e-06
-0.000113193
-8.50643e-06
-0.00010403
-9.16296e-06
-9.40619e-05
-9.96812e-06
-8.33823e-05
-1.06796e-05
-1.14075e-05
0.000200852
-2.21161e-05
0.00021007
-1.84222e-05
0.000217127
-1.41032e-05
0.00022181
-9.36003e-06
0.000224131
-4.63535e-06
0.000223987
2.85883e-07
0.000221372
5.22101e-06
0.000216206
1.0328e-05
0.000208605
1.51956e-05
0.000198826
1.95496e-05
0.000187023
2.35982e-05
0.000173277
2.74804e-05
0.000158063
3.04196e-05
0.00014142
3.3271e-05
0.000123884
3.50603e-05
0.000105481
3.67906e-05
8.64854e-05
3.79814e-05
6.72713e-05
3.84151e-05
4.79918e-05
3.85504e-05
2.88552e-05
3.82615e-05
1.01837e-05
3.73375e-05
-8.04142e-06
3.64445e-05
-2.55767e-05
3.50647e-05
-4.23102e-05
3.34607e-05
-5.81629e-05
3.17018e-05
-7.30561e-05
2.97821e-05
-8.69761e-05
2.78382e-05
-9.98704e-05
2.57841e-05
-0.000111738
2.37353e-05
-0.000122603
2.17287e-05
-0.000132475
1.9742e-05
-0.000141361
1.77714e-05
-0.000149321
1.59196e-05
-0.000156368
1.40883e-05
-0.000162547
1.23539e-05
-0.00016788
1.06694e-05
-0.000172406
9.0547e-06
-0.000176138
7.46272e-06
-0.000179112
5.94753e-06
-0.000181361
4.49226e-06
-0.000182882
3.03389e-06
-0.000183715
1.67306e-06
-0.000183835
2.49968e-07
-0.000183219
-1.22945e-06
-0.000181814
-2.81439e-06
-0.000179754
-4.11525e-06
-0.000176913
-5.69061e-06
-0.000173321
-7.18421e-06
-0.000168908
-8.82821e-06
-0.000163796
-1.02241e-05
-0.000157685
-1.22264e-05
-0.000150774
-1.38236e-05
-0.000142839
-1.58757e-05
-0.000134034
-1.76002e-05
-0.000124317
-1.94393e-05
-0.000113615
-2.14055e-05
-0.000101768
-2.36881e-05
-8.91966e-05
-2.51398e-05
-7.54705e-05
-2.74536e-05
-6.10187e-05
-2.88953e-05
-4.55929e-05
-3.08494e-05
-2.93581e-05
-3.24687e-05
-1.24389e-05
-3.38242e-05
4.98e-06
-3.48239e-05
2.29144e-05
-3.58579e-05
4.09782e-05
-3.61221e-05
5.92108e-05
-3.64525e-05
7.73321e-05
-3.62235e-05
9.51587e-05
-3.56451e-05
0.000112584
-3.48336e-05
0.000129275
-3.33708e-05
0.000145022
-3.14768e-05
0.000159695
-2.93301e-05
0.000172984
-2.65636e-05
0.000184671
-2.33753e-05
0.000194689
-2.00226e-05
0.000202732
-1.60828e-05
0.000208799
-1.21234e-05
0.000212559
-7.51661e-06
0.000214136
-3.14518e-06
0.000213458
1.34796e-06
0.000210473
5.95656e-06
0.000205064
1.08195e-05
0.000197527
1.50745e-05
0.000187771
1.94987e-05
0.000176158
2.32041e-05
0.000162665
2.69688e-05
0.000147643
3.00151e-05
0.000131184
3.29068e-05
0.000113629
3.50997e-05
9.51651e-05
3.69164e-05
7.60923e-05
3.8123e-05
5.66447e-05
3.88871e-05
3.7059e-05
3.91578e-05
1.76214e-05
3.88508e-05
-1.51794e-06
3.82582e-05
-2.01019e-05
3.71654e-05
-3.79968e-05
3.5794e-05
-5.50257e-05
3.40442e-05
-7.10902e-05
3.21173e-05
-8.6119e-05
3.00551e-05
-9.99801e-05
2.77184e-05
-0.000112724
2.54897e-05
-0.000124278
2.31001e-05
-0.000134678
2.0791e-05
-0.000144013
1.86748e-05
-0.000152232
1.64425e-05
-0.000159476
1.44983e-05
-0.000165688
1.24291e-05
-0.000170974
1.05727e-05
-0.000175467
8.98684e-06
-0.000179115
7.30656e-06
-0.000182004
5.7654e-06
-0.000184104
4.20052e-06
-0.000185504
2.79529e-06
-0.000186241
1.47481e-06
-0.000186268
5.65685e-08
-0.000185639
-1.24914e-06
-0.000184379
-2.5225e-06
-0.000182416
-3.92381e-06
-0.000179796
-5.23157e-06
-0.000176603
-6.39168e-06
-0.000172704
-7.80391e-06
-0.000168173
-9.05018e-06
-0.000162962
-1.04252e-05
-0.000157058
-1.18174e-05
-0.000150491
-1.31217e-05
-0.000143196
-1.45936e-05
-0.000135153
-1.60731e-05
-0.000126396
-1.75297e-05
-0.000116815
-1.91539e-05
-0.000106535
-2.0557e-05
-9.53893e-05
-2.22919e-05
-8.34527e-05
-2.38685e-05
-7.06549e-05
-2.56027e-05
-5.70223e-05
-2.7237e-05
-4.26833e-05
-2.86946e-05
-2.75286e-05
-3.03008e-05
-1.17841e-05
-3.1491e-05
4.5932e-06
-3.27413e-05
2.14613e-05
-3.37225e-05
3.86659e-05
-3.44059e-05
5.60695e-05
-3.47902e-05
7.34791e-05
-3.48053e-05
9.0637e-05
-3.43102e-05
0.000107362
-3.34438e-05
0.000123412
-3.20834e-05
0.000138487
-3.01406e-05
0.00015238
-2.77774e-05
0.000164835
-2.4896e-05
0.000175591
-2.15023e-05
0.000184451
-1.77035e-05
0.000191187
-1.34605e-05
0.000195646
-8.90683e-06
0.000197694
-4.08298e-06
0.000197245
8.79781e-07
0.000194266
5.94448e-06
0.000188725
1.10827e-05
0.000180805
1.58427e-05
0.000170595
2.0405e-05
0.000158363
2.44453e-05
0.000144345
2.80229e-05
0.000128832
3.10117e-05
0.000112123
3.34115e-05
9.45684e-05
3.5086e-05
7.64459e-05
3.62344e-05
5.7947e-05
3.69848e-05
3.94436e-05
3.6991e-05
2.10422e-05
3.67974e-05
3.0557e-06
3.59631e-05
-1.44546e-05
3.50108e-05
-3.12728e-05
3.36274e-05
-4.73109e-05
3.20703e-05
-6.24674e-05
3.03082e-05
-7.66862e-05
2.84312e-05
-8.98769e-05
2.63836e-05
-0.000102084
2.44146e-05
-0.000113235
2.2298e-05
-0.000123401
2.03278e-05
-0.000132608
1.84138e-05
-0.000140883
1.65533e-05
-0.000148294
1.48263e-05
-0.000154886
1.31756e-05
-0.00016067
1.15734e-05
-0.000165736
1.01341e-05
-0.000170079
8.68749e-06
-0.000173723
7.28644e-06
-0.000176712
5.96147e-06
-0.000179105
4.80092e-06
-0.000180845
3.4833e-06
-0.000182007
2.32299e-06
-0.000182595
1.18e-06
-0.000182574
-4.04556e-08
-0.00018198
-1.18923e-06
-0.000180764
-2.43704e-06
-0.000178916
-3.68447e-06
-0.000176458
-4.91912e-06
-0.000173271
-6.36732e-06
-0.000169459
-7.64117e-06
-0.000164803
-9.3113e-06
-0.000159476
-1.06577e-05
-0.000153259
-1.24318e-05
-0.000146206
-1.41016e-05
-0.000138258
-1.59002e-05
-0.0001294
-1.77113e-05
-0.000119573
-1.96679e-05
-0.000108888
-2.13575e-05
-9.71987e-05
-2.33841e-05
-8.46182e-05
-2.51509e-05
-7.11022e-05
-2.70258e-05
-5.67168e-05
-2.87695e-05
-4.14712e-05
-3.04851e-05
-2.55821e-05
-3.17742e-05
-9.01532e-06
-3.3128e-05
8.1042e-06
-3.42186e-05
2.55992e-05
-3.49817e-05
4.33344e-05
-3.54581e-05
6.109e-05
-3.55033e-05
7.86986e-05
-3.52038e-05
9.59183e-05
-3.44292e-05
0.00011253
-3.32095e-05
0.000128267
-3.14654e-05
0.000142897
-2.92469e-05
0.000156171
-2.65398e-05
0.000167876
-2.33911e-05
0.000177796
-1.98256e-05
0.000185776
-1.5954e-05
0.000191647
-1.17357e-05
0.000195286
-7.27727e-06
0.000196666
-2.75295e-06
0.000195743
1.82161e-06
0.000192543
6.3965e-06
0.000187072
1.09422e-05
0.000179487
1.51626e-05
0.000169931
1.91084e-05
0.000158563
2.27294e-05
0.000145564
2.59843e-05
0.000131196
2.87177e-05
0.000115641
3.10977e-05
9.91648e-05
3.29462e-05
8.19968e-05
3.43296e-05
6.43596e-05
3.52593e-05
4.64757e-05
3.57541e-05
2.85718e-05
3.5793e-05
1.08361e-05
3.54556e-05
-6.58453e-06
3.48436e-05
-2.34848e-05
3.37939e-05
-3.98192e-05
3.2663e-05
-5.53927e-05
3.11417e-05
-7.01599e-05
2.95266e-05
-8.40339e-05
2.7745e-05
-9.69746e-05
2.58757e-05
-0.000108909
2.38697e-05
-0.000119914
2.20002e-05
-0.000129878
1.99268e-05
-0.00013885
1.79422e-05
-0.000146817
1.59343e-05
-0.000153849
1.4071e-05
-0.000159899
1.21021e-05
-0.00016508
1.03626e-05
-0.000169401
8.64246e-06
-0.000172872
6.93925e-06
-0.000175568
5.38837e-06
-0.00017757
4.00409e-06
-0.00017879
2.44857e-06
-0.000179342
1.10942e-06
-0.000179277
-1.34874e-07
-0.000178455
-1.64841e-06
-0.000177041
-2.81433e-06
-0.000175021
-4.04004e-06
-0.00017232
-5.40658e-06
-0.000169008
-6.62422e-06
-0.000164965
-8.08487e-06
-0.000160276
-9.3815e-06
-0.000154763
-1.10158e-05
-0.000148666
-1.21949e-05
-0.000141509
-1.43149e-05
-0.000133743
-1.55347e-05
-0.000125044
-1.73965e-05
-0.00011547
-1.91436e-05
-0.000105075
-2.07974e-05
-9.37105e-05
-2.27209e-05
-8.14197e-05
-2.45754e-05
-6.84755e-05
-2.58897e-05
-5.44969e-05
-2.79524e-05
-3.97191e-05
-2.9552e-05
-2.43691e-05
-3.0697e-05
-8.11138e-06
-3.25112e-05
8.64685e-06
-3.3516e-05
2.59796e-05
-3.46585e-05
4.37733e-05
-3.5582e-05
6.16333e-05
-3.57101e-05
7.95453e-05
-3.58212e-05
9.72803e-05
-3.54629e-05
0.000114452
-3.43295e-05
0.000130981
-3.30459e-05
0.000146544
-3.11073e-05
0.000160872
-2.86395e-05
0.000173743
-2.57342e-05
0.000184899
-2.23009e-05
0.000194194
-1.85794e-05
0.000201478
-1.45572e-05
0.000206486
-1.00134e-05
0.000209265
-5.55113e-06
0.000209742
-9.53927e-07
0.00020786
3.76104e-06
0.00020372
8.28129e-06
0.000197472
1.24943e-05
0.000189231
1.64743e-05
0.000179116
2.02232e-05
0.000167372
2.34788e-05
0.000154076
2.65819e-05
0.000139689
2.87604e-05
0.000124119
3.11316e-05
0.000107882
3.24633e-05
9.09982e-05
3.37568e-05
7.38003e-05
3.43878e-05
5.63777e-05
3.48345e-05
3.89829e-05
3.47827e-05
2.17296e-05
3.44971e-05
4.80112e-06
3.38522e-05
-1.17495e-05
3.30954e-05
-2.77563e-05
3.20067e-05
-4.31257e-05
3.0734e-05
-5.77443e-05
2.92309e-05
-7.15816e-05
2.76678e-05
-8.45651e-05
2.59637e-05
-9.66397e-05
2.41467e-05
-0.00010782
2.23561e-05
-0.000118048
2.04507e-05
-0.000127319
1.85432e-05
-0.000135641
1.66469e-05
-0.00014301
1.4734e-05
-0.000149428
1.2835e-05
-0.000154924
1.0992e-05
-0.000159494
9.13969e-06
-0.000163164
7.3438e-06
-0.000165951
5.5673e-06
-0.000167866
3.82529e-06
-0.000168959
2.19239e-06
-0.000169256
6.03125e-07
-0.000168656
-1.20281e-06
-0.000167235
-2.84137e-06
-0.000165026
-4.415e-06
-0.000162077
-5.89478e-06
-0.000158431
-7.29093e-06
-0.000154024
-8.81005e-06
-0.000148939
-1.01673e-05
-0.000143198
-1.14821e-05
-0.000136715
-1.29628e-05
-0.000129591
-1.42464e-05
-0.000121731
-1.57182e-05
-0.000113223
-1.70138e-05
-0.00010406
-1.83263e-05
-9.4091e-05
-1.99371e-05
-8.3411e-05
-2.13596e-05
-2.28158e-05
0.000201027
-3.32092e-05
0.000210277
-2.76725e-05
0.000217367
-2.1193e-05
0.000222074
-1.40672e-05
0.000224416
-6.97757e-06
0.000224237
4.65184e-07
0.000221569
7.88867e-06
0.000216391
1.55061e-05
0.000208777
2.28091e-05
0.000198983
2.93443e-05
0.000187166
3.54147e-05
0.0001734
4.12462e-05
0.000158169
4.56508e-05
0.000141505
4.99356e-05
0.000123947
5.26178e-05
0.000105519
5.52186e-05
8.65081e-05
5.69925e-05
6.72721e-05
5.76511e-05
4.79801e-05
5.78425e-05
2.88241e-05
5.74175e-05
1.01446e-05
5.60169e-05
-8.0985e-06
5.46876e-05
-2.56455e-05
5.26117e-05
-4.23897e-05
5.02049e-05
-5.82479e-05
4.756e-05
-7.31482e-05
4.46824e-05
-8.70689e-05
4.17589e-05
-9.99677e-05
3.86829e-05
-0.000111837
3.56044e-05
-0.0001227
3.25918e-05
-0.000132573
2.96148e-05
-0.000141459
2.66574e-05
-0.000149419
2.38797e-05
-0.000156462
2.11318e-05
-0.000162635
1.85271e-05
-0.000167972
1.60062e-05
-0.000172506
1.35888e-05
-0.000176234
1.11908e-05
-0.000179208
8.92135e-06
-0.000181456
6.73973e-06
-0.00018297
4.54853e-06
-0.000183796
2.49906e-06
-0.000183897
3.51104e-07
-0.000183274
-1.85335e-06
-0.000181868
-4.21972e-06
-0.000179804
-6.17954e-06
-0.00017697
-8.5251e-06
-0.00017337
-1.07833e-05
-0.000168969
-1.32292e-05
-0.000163859
-1.53341e-05
-0.000157756
-1.83298e-05
-0.000150846
-2.07341e-05
-0.00014292
-2.38016e-05
-0.000134106
-2.64139e-05
-0.000124393
-2.91527e-05
-0.0001137
-3.20977e-05
-0.000101844
-3.55448e-05
-8.92696e-05
-3.7714e-05
-7.55443e-05
-4.1179e-05
-6.10826e-05
-4.3357e-05
-4.56539e-05
-4.62782e-05
-2.94198e-05
-4.87028e-05
-1.24846e-05
-5.07595e-05
4.94938e-06
-5.22579e-05
2.28875e-05
-5.37962e-05
4.09694e-05
-5.42041e-05
5.92158e-05
-5.46989e-05
7.73557e-05
-5.43634e-05
9.52024e-05
-5.3492e-05
0.000112646
-5.22776e-05
0.000129345
-5.00696e-05
0.000145122
-4.72537e-05
0.000159814
-4.40227e-05
0.00017312
-3.9869e-05
0.000184829
-3.50847e-05
0.000194869
-3.00629e-05
0.000202927
-2.41406e-05
0.00020901
-1.82059e-05
0.000212775
-1.1282e-05
0.000214361
-4.73117e-06
0.000213664
2.04527e-06
0.000210648
8.97166e-06
0.000205242
1.62259e-05
0.000197691
2.26258e-05
0.000187928
2.92613e-05
0.000176293
3.48391e-05
0.000162773
4.04891e-05
0.000147711
4.50762e-05
0.000131239
4.93791e-05
0.000113653
5.2686e-05
9.51712e-05
5.53981e-05
7.60789e-05
5.72153e-05
5.66045e-05
5.83615e-05
3.69984e-05
5.87639e-05
1.75349e-05
5.83142e-05
-1.6223e-06
5.74154e-05
-2.02197e-05
5.57628e-05
-3.81089e-05
5.36832e-05
-5.5163e-05
5.10983e-05
-7.12377e-05
4.8192e-05
-8.62735e-05
4.50908e-05
-0.00010014
4.15855e-05
-0.000112877
3.82262e-05
-0.000124433
3.46557e-05
-0.000134852
3.12107e-05
-0.000144163
2.79854e-05
-0.000152383
2.46624e-05
-0.00015962
2.17353e-05
-0.000165831
1.86399e-05
-0.000171125
1.58672e-05
-0.000175606
1.34674e-05
-0.000179226
1.09271e-05
-0.000182134
8.67361e-06
-0.000184229
6.29525e-06
-0.000185628
4.19456e-06
-0.000186355
2.20092e-06
-0.000186385
8.70061e-08
-0.000185758
-1.87665e-06
-0.000184487
-3.79343e-06
-0.000182533
-5.87761e-06
-0.000179912
-7.85226e-06
-0.000176717
-9.58637e-06
-0.00017282
-1.17012e-05
-0.000168288
-1.35821e-05
-0.000163074
-1.56392e-05
-0.000157173
-1.77187e-05
-0.000150609
-1.96854e-05
-0.000143312
-2.18913e-05
-0.000135243
-2.41419e-05
-0.000126517
-2.62552e-05
-0.000116951
-2.87204e-05
-0.000106657
-3.08507e-05
-9.55142e-05
-3.34348e-05
-8.3571e-05
-3.58117e-05
-7.07699e-05
-3.84039e-05
-5.71332e-05
-4.08737e-05
-4.27916e-05
-4.30363e-05
-2.76307e-05
-4.54617e-05
-1.18782e-05
-4.72436e-05
4.50783e-06
-4.91273e-05
2.13932e-05
-5.06079e-05
3.86144e-05
-5.16271e-05
5.60234e-05
-5.21993e-05
7.34477e-05
-5.22296e-05
9.06339e-05
-5.14965e-05
0.000107375
-5.01851e-05
0.00012343
-4.81388e-05
0.000138546
-4.52562e-05
0.00015246
-4.16911e-05
0.000164937
-3.73736e-05
0.000175712
-3.22768e-05
0.000184589
-2.65805e-05
0.000191338
-2.02103e-05
0.000195807
-1.33754e-05
0.000197875
-6.15127e-06
0.000197404
1.35073e-06
0.000194409
8.93919e-06
0.000188867
1.66253e-05
0.000180958
2.37509e-05
0.000170713
3.06503e-05
0.000158455
3.67033e-05
0.000144417
4.20605e-05
0.000128882
4.65476e-05
0.00011216
5.01333e-05
9.457e-05
5.26758e-05
7.64027e-05
5.44017e-05
5.79006e-05
5.54869e-05
3.93798e-05
5.55117e-05
2.09667e-05
5.52104e-05
2.96171e-06
5.39681e-05
-1.45575e-05
5.25301e-05
-3.13819e-05
5.04518e-05
-4.74241e-05
4.81126e-05
-6.25931e-05
4.54772e-05
-7.68177e-05
4.26557e-05
-9.00113e-05
3.95772e-05
-0.000102215
3.66182e-05
-0.000113364
3.34475e-05
-0.000123527
3.049e-05
-0.00013273
2.76168e-05
-0.000141003
2.48268e-05
-0.000148409
2.22318e-05
-0.000154996
1.9763e-05
-0.000160778
1.73553e-05
-0.000165842
1.51981e-05
-0.000170184
1.30294e-05
-0.000173825
1.09277e-05
-0.000176823
8.95912e-06
-0.0001792
7.17828e-06
-0.000180944
5.22669e-06
-0.000182108
3.48734e-06
-0.000182695
1.76709e-06
-0.00018267
-6.52969e-08
-0.000182069
-1.79038e-06
-0.000180856
-3.65011e-06
-0.000178987
-5.55362e-06
-0.000176552
-7.35362e-06
-0.000173364
-9.5555e-06
-0.000169567
-1.14387e-05
-0.000164908
-1.39703e-05
-0.000159575
-1.59899e-05
-0.000153367
-1.86401e-05
-0.000146319
-2.11492e-05
-0.000138374
-2.38454e-05
-0.000129519
-2.65669e-05
-0.00011972
-2.94669e-05
-0.000109
-3.20771e-05
-9.73218e-05
-3.50625e-05
-8.47283e-05
-3.77444e-05
-7.12083e-05
-4.05458e-05
-5.682e-05
-4.31578e-05
-4.15645e-05
-4.57407e-05
-2.56658e-05
-4.7673e-05
-9.08927e-06
-4.97046e-05
8.04263e-06
-5.13506e-05
2.555e-05
-5.2489e-05
4.32995e-05
-5.32076e-05
6.10734e-05
-5.32773e-05
7.87009e-05
-5.28313e-05
9.59379e-05
-5.16663e-05
0.000112573
-4.98443e-05
0.000128332
-4.72244e-05
0.000142983
-4.38983e-05
0.000156278
-3.98354e-05
0.000167994
-3.51066e-05
0.000177931
-2.97624e-05
0.000185921
-2.39445e-05
0.000191801
-1.76153e-05
0.000195444
-1.09204e-05
0.000196826
-4.13498e-06
0.000195885
2.76208e-06
0.000192677
9.60496e-06
0.000187205
1.6414e-05
0.00017961
2.27578e-05
0.000170035
2.86836e-05
0.000158653
3.41109e-05
0.000145643
3.89944e-05
0.000131254
4.31065e-05
0.000115672
4.66796e-05
9.9179e-05
4.94395e-05
8.19947e-05
5.15139e-05
6.43425e-05
5.29115e-05
4.64476e-05
5.3649e-05
2.85243e-05
5.37163e-05
1.07658e-05
5.32141e-05
-6.66552e-06
5.22749e-05
-2.35765e-05
5.07049e-05
-3.99165e-05
4.90029e-05
-5.54901e-05
4.67153e-05
-7.02688e-05
4.43053e-05
-8.41458e-05
4.1622e-05
-9.70918e-05
3.88217e-05
-0.000109023
3.58011e-05
-0.000120035
3.30121e-05
-0.000130004
2.98956e-05
-0.000138967
2.69054e-05
-0.000146936
2.39031e-05
-0.000153963
2.10985e-05
-0.00016001
1.8149e-05
-0.000165185
1.55372e-05
-0.00016951
1.29677e-05
-0.000172975
1.04045e-05
-0.000175663
8.07632e-06
-0.000177668
6.00833e-06
-0.000178892
3.67296e-06
-0.000179434
1.65121e-06
-0.00017936
-2.08913e-07
-0.00017854
-2.46796e-06
-0.000177118
-4.23669e-06
-0.000175103
-6.05465e-06
-0.000172388
-8.12176e-06
-0.000169088
-9.9247e-06
-0.000165035
-1.21379e-05
-0.000160349
-1.40676e-05
-0.000154836
-1.65282e-05
-0.000148739
-1.82924e-05
-0.000141582
-2.14722e-05
-0.000133821
-2.32948e-05
-0.000125119
-2.60985e-05
-0.000115543
-2.87205e-05
-0.000105155
-3.11849e-05
-9.37845e-05
-3.40915e-05
-8.14859e-05
-3.68741e-05
-6.85458e-05
-3.88299e-05
-5.45656e-05
-4.19327e-05
-3.97753e-05
-4.43424e-05
-2.44317e-05
-4.60407e-05
-8.16384e-06
-4.87791e-05
8.60212e-06
-5.0282e-05
2.59415e-05
-5.1998e-05
4.37415e-05
-5.33821e-05
6.16109e-05
-5.35797e-05
7.95319e-05
-5.37422e-05
9.72844e-05
-5.32156e-05
0.000114466
-5.15107e-05
0.000131013
-4.95932e-05
0.000146577
-4.66713e-05
0.000160924
-4.29871e-05
0.000173814
-3.86243e-05
0.000184993
-3.34797e-05
0.000194299
-2.78854e-05
0.000201599
-2.18576e-05
0.00020662
-1.5034e-05
0.000209414
-8.34535e-06
0.000209905
-1.44491e-06
0.000208014
5.65214e-06
0.000203882
1.24132e-05
0.000197629
1.87472e-05
0.000189369
2.47343e-05
0.00017925
3.03417e-05
0.000167486
3.52433e-05
0.000154177
3.98903e-05
0.000139762
4.31754e-05
0.000124187
4.67065e-05
0.000107928
4.87221e-05
9.10259e-05
5.06593e-05
7.38159e-05
5.15978e-05
5.63762e-05
5.22741e-05
3.89719e-05
5.2187e-05
2.1704e-05
5.17649e-05
4.76977e-06
5.07864e-05
-1.17955e-05
4.96606e-05
-2.78131e-05
4.80243e-05
-4.31918e-05
4.61126e-05
-5.78164e-05
4.38555e-05
-7.16579e-05
4.15094e-05
-8.46467e-05
3.89525e-05
-9.6725e-05
3.62249e-05
-0.000107908
3.35392e-05
-0.000118137
3.06799e-05
-0.000127413
2.78189e-05
-0.000135737
2.49712e-05
-0.000143103
2.20998e-05
-0.000149519
1.92509e-05
-0.000155015
1.64876e-05
-0.000159582
1.37068e-05
-0.000163253
1.10153e-05
-0.000166032
8.3464e-06
-0.000167944
5.73641e-06
-0.000169035
3.28348e-06
-0.000169321
8.89424e-07
-0.000168713
-1.81064e-06
-0.000167302
-4.25253e-06
-0.000165079
-6.63781e-06
-0.000162132
-8.84178e-06
-0.000158483
-1.09397e-05
-0.000154077
-1.32163e-05
-0.00014899
-1.52539e-05
-0.00014325
-1.72228e-05
-0.000136766
-1.94464e-05
-0.000129642
-2.13703e-05
-0.000121782
-2.35787e-05
-0.000113275
-2.55202e-05
-0.000104113
-2.74884e-05
-9.41449e-05
-2.99052e-05
-8.34662e-05
-3.20384e-05
-3.42236e-05
0.000201288
-4.43399e-05
0.000210594
-3.69782e-05
0.000217729
-2.83284e-05
0.000222475
-1.88127e-05
0.000224821
-9.32415e-06
0.000224591
6.95415e-07
0.000221864
1.06154e-05
0.000216669
2.0701e-05
0.000209036
3.04426e-05
0.000199218
3.91626e-05
0.000187381
4.72517e-05
0.000173585
5.50416e-05
0.000158329
6.09071e-05
0.000141631
6.6633e-05
0.000124042
7.02076e-05
0.000105576
7.3684e-05
8.65421e-05
7.60267e-05
6.72736e-05
7.69196e-05
4.79626e-05
7.71535e-05
2.87775e-05
7.66026e-05
1.00861e-05
7.47083e-05
-8.18426e-06
7.29579e-05
-2.57487e-05
7.01761e-05
-4.25068e-05
6.6963e-05
-5.83757e-05
6.34288e-05
-7.32852e-05
5.95919e-05
-8.72096e-05
5.56833e-05
-0.000100112
5.15854e-05
-0.000111983
4.7475e-05
-0.000122848
4.3457e-05
-0.000132721
3.94876e-05
-0.000141607
3.55435e-05
-0.000149566
3.18387e-05
-0.00015661
2.81761e-05
-0.000162782
2.46986e-05
-0.000168117
2.1342e-05
-0.000172657
1.8128e-05
-0.000176382
1.49165e-05
-0.000179358
1.1897e-05
-0.000181606
8.9879e-06
-0.000183118
6.0603e-06
-0.00018393
3.3111e-06
-0.000183995
4.16051e-07
-0.000183357
-2.49167e-06
-0.000181951
-5.62539e-06
-0.000179882
-8.24818e-06
-0.000177056
-1.13511e-05
-0.00017345
-1.43902e-05
-0.000169063
-1.76155e-05
-0.000163956
-2.04412e-05
-0.000157863
-2.4423e-05
-0.000150955
-2.76423e-05
-0.000143045
-3.17112e-05
-0.000134216
-3.52431e-05
-0.000124509
-3.88599e-05
-0.000113796
-4.28108e-05
-0.00010196
-4.73811e-05
-8.93807e-05
-5.02931e-05
-7.56571e-05
-5.49027e-05
-6.11808e-05
-5.78334e-05
-4.57471e-05
-6.1712e-05
-2.94812e-05
-6.49687e-05
-1.25546e-05
-6.76861e-05
4.89986e-06
-6.97125e-05
2.28456e-05
-7.17419e-05
4.09485e-05
-7.2307e-05
5.92246e-05
-7.29751e-05
7.73915e-05
-7.25304e-05
9.52763e-05
-7.13768e-05
0.000112743
-6.97447e-05
0.000129447
-6.67731e-05
0.000145276
-6.30829e-05
0.000159999
-5.87464e-05
0.000173322
-5.31918e-05
0.000185069
-4.68319e-05
0.000195134
-4.01273e-05
0.000203214
-3.22209e-05
0.000209315
-2.43074e-05
0.000213091
-1.5058e-05
0.000214675
-6.31502e-06
0.000213952
2.76792e-06
0.000210908
1.20156e-05
0.000205508
2.16265e-05
0.000197934
3.02001e-05
0.00018815
3.90446e-05
0.000176477
4.65125e-05
0.000162925
5.40415e-05
0.000147794
6.02063e-05
0.000131315
6.58581e-05
0.000113692
7.03094e-05
9.51792e-05
7.39109e-05
7.60467e-05
7.63477e-05
5.65184e-05
7.78897e-05
3.69028e-05
7.83795e-05
1.74108e-05
7.78062e-05
-1.77085e-06
7.65971e-05
-2.03855e-05
7.43775e-05
-3.82868e-05
7.15845e-05
-5.53736e-05
6.8185e-05
-7.14679e-05
6.42863e-05
-8.64973e-05
6.01203e-05
-0.000100371
5.54596e-05
-0.000113106
5.09607e-05