/*--------------------------------*- C++ -*----------------------------------*\
| =========                 |                                                 |
| \\      /  F ield         | OpenFOAM: The Open Source CFD Toolbox           |
|  \\    /   O peration     | Version:  3.0.1                                 |
|   \\  /    A nd           | Web:      www.OpenFOAM.org                      |
|    \\/     M anipulation  |                                                 |
\*---------------------------------------------------------------------------*/
FoamFile
{
    version     2.0;
    format      ascii;
    class       volScalarField;
    location    "71.4";
    object      p;
}
// * * * * * * * * * * * * * * * * * * * * * * * * * * * * * * * * * * * * * //

dimensions      [1 -1 -2 0 0 0 0];

internalField   nonuniform List<scalar> 
21420
(
3618.37
3634.76
3653.02
3673.15
3695.12
3718.94
3744.57
3771.94
3800.95
3831.47
3863.31
3896.32
3930.24
3964.73
3999.48
4034.09
4068.17
4101.34
4133.16
4163.22
4191.13
4216.49
4238.93
4258.13
4273.8
4285.71
4293.69
4297.51
4297
4292.37
4283.8
4271.37
4255.31
4235.86
4213.31
4187.98
4160.26
4130.52
4099.17
4066.61
4033.25
3999.44
3965.54
3931.9
3900.81
3868.98
3838.15
3808.54
3780.33
3753.65
3728.58
3705.2
3683.53
3663.59
3645.39
3628.91
3614.14
3601.04
3589.6
3579.77
3571.54
3564.87
3559.76
3556.18
3554.15
3553.67
3554.67
3557.22
3561.32
3566.98
3574.22
3583.07
3593.54
3605.64
3619.39
3634.79
3651.83
3670.5
3690.76
3712.59
3735.94
3760.74
3786.93
3814.4
3843.06
3872.78
3903.56
3935.02
3966.92
3999.06
4031.17
4062.97
4094.13
4124.3
4153.15
4180.32
4205.47
4228.24
4248.34
4265.47
4279.38
4289.84
4296.69
4299.74
4299.03
4294.47
4286.11
4274.01
4258.32
4239.24
4217.01
4191.93
4164.36
4134.66
4103.25
4070.56
4037.03
4003.08
3969.14
3935.59
3902.77
3870.99
3840.51
3811.52
3784.21
3758.67
3734.99
3713.21
3693.34
3675.38
3659.28
3645.02
3632.52
3621.72
3612.56
3604.95
3598.82
3594.1
3590.7
3588.59
3587.7
3587.97
3589.35
3591.83
3595.39
3600.04
3605.77
3612.62
3620.63
3629.83
3640.28
3652.04
3665.15
3679.67
3695.66
3713.14
3732.14
3752.68
3774.76
3798.35
3823.41
3849.85
3877.58
3906.45
3936.52
3967.2
3998.47
4030.05
4061.64
4092.91
4123.51
4153.06
4181.17
4207.45
4231.51
4252.97
4271.48
4286.73
4298.45
4306.41
4310.45
4310.48
4306.51
4298.59
4286.8
4271.33
4252.44
4230.42
4205.61
4178.39
4149.15
4118.31
4086.29
4053.51
4020.39
3987.31
3954.64
3922.71
3891.79
3862.1
3833.83
3807.12
3782.05
3758.71
3737.13
3717.33
3699.28
3682.97
3668.33
3655.31
3643.83
3633.83
3625.23
3617.98
3612.02
3607.31
3603.81
3601.5
3600.37
3600.42
3601.62
3603.99
3607.54
3612.28
3618.25
3625.48
3633.99
3643.84
3655.06
3667.69
3681.78
3697.37
3714.51
3733.21
3753.5
3775.37
3798.81
3823.77
3850.2
3877.97
3906.98
3937.05
3968.05
3999.6
4031.5
4063.45
4095.1
4126.09
4156.02
4184.47
4211.02
4235.23
4256.7
4275.05
4289.94
4301.09
4308.26
4311.23
4310.05
4304.62
4295.01
4281.36
4263.92
4242.95
4218.82
4191.93
4162.71
4131.61
4099.09
4065.62
4031.64
3997.58
3964.02
3930.97
3898.89
3868.06
3838.7
3810.98
3785.03
3760.93
3738.72
3718.4
3699.93
3683.27
3668.34
3655.07
3643.43
3633.32
3624.7
3617.5
3611.66
3607.12
3603.79
3601.63
3600.76
3600.94
3602.19
3604.54
3607.99
3612.63
3618.55
3625.82
3634.58
3644.94
3657.01
3670.92
3686.78
3704.64
3724.59
3746.6
3770.69
3796.75
3824.64
3854.19
3885.1
3916.36
3949.11
3982.29
4015.46
4048.22
4080.11
4110.7
4139.59
4166.38
4190.7
4212.21
4230.62
4245.71
4257.28
4265.23
4269.45
4269.84
4266.55
4259.7
4249.35
4235.72
4219.06
4199.63
4177.75
4153.69
4127.78
4100.34
4071.66
4042.06
4011.82
3981.22
3950.57
3920.21
3890.89
3861.68
3833.27
3805.9
3779.74
3754.97
3731.73
3710.1
3690.15
3520.19
3536.58
3554.84
3574.97
3596.94
3620.76
3646.39
3673.76
3702.77
3733.29
3765.14
3798.16
3832.09
3866.6
3901.36
3935.99
3970.08
4003.27
4035.11
4065.18
4093.11
4118.49
4140.95
4160.16
4175.85
4187.76
4195.75
4199.59
4199.06
4194.42
4185.84
4173.41
4157.33
4137.87
4115.3
4089.96
4062.22
4032.46
4001.09
3968.52
3935.14
3901.32
3867.4
3833.76
3802.65
3770.82
3739.97
3710.36
3682.15
3655.47
3630.4
3607.02
3585.35
3565.41
3547.21
3530.74
3515.97
3502.87
3491.43
3481.61
3473.37
3466.71
3461.6
3458.02
3455.99
3455.51
3456.51
3459.06
3463.16
3468.82
3476.06
3484.9
3495.37
3507.47
3521.22
3536.62
3553.66
3572.33
3592.59
3614.42
3637.77
3662.57
3688.76
3716.24
3744.9
3774.63
3805.41
3836.88
3868.79
3900.93
3933.06
3964.87
3996.04
4026.23
4055.1
4082.28
4107.44
4130.24
4150.35
4167.49
4181.41
4191.88
4198.73
4201.79
4201.08
4196.51
4188.15
4176.04
4160.34
4141.24
4119
4093.91
4066.31
4036.59
4005.17
3972.46
3938.91
3904.95
3871
3837.43
3804.6
3772.81
3742.32
3713.34
3686.02
3660.48
3636.8
3615.02
3595.15
3577.19
3561.1
3546.84
3534.35
3523.55
3514.39
3506.79
3500.66
3495.94
3492.55
3490.44
3489.55
3489.82
3491.2
3493.68
3497.25
3501.89
3507.62
3514.47
3522.48
3531.68
3542.12
3553.88
3566.99
3581.51
3597.49
3614.97
3633.97
3654.51
3676.59
3700.18
3725.23
3751.68
3779.41
3808.3
3838.36
3869.05
3900.33
3931.93
3963.53
3994.82
4025.43
4054.99
4083.12
4109.42
4133.5
4154.97
4173.5
4188.76
4200.49
4208.46
4212.5
4212.54
4208.56
4200.64
4188.83
4173.36
4154.45
4132.41
4107.59
4080.34
4051.09
4020.23
3988.19
3955.4
3922.26
3889.16
3856.49
3824.55
3793.62
3763.93
3735.65
3708.94
3683.87
3660.53
3638.95
3619.15
3601.11
3584.79
3570.16
3557.14
3545.66
3535.67
3527.07
3519.82
3513.86
3509.16
3505.66
3503.35
3502.22
3502.27
3503.47
3505.84
3509.38
3514.13
3520.1
3527.32
3535.84
3545.68
3556.9
3569.53
3583.62
3599.21
3616.34
3635.04
3655.32
3677.19
3700.63
3725.6
3752.03
3779.81
3808.82
3838.89
3869.9
3901.46
3933.37
3965.33
3997
4028.01
4057.96
4086.43
4112.99
4137.22
4158.71
4177.08
4191.99
4203.14
4210.32
4213.31
4212.11
4206.68
4197.06
4183.4
4165.94
4144.96
4120.82
4093.9
4064.66
4033.54
4001.01
3967.52
3933.52
3899.45
3865.87
3832.81
3800.73
3769.89
3740.53
3712.8
3686.85
3662.75
3640.54
3620.22
3601.76
3585.1
3570.17
3556.91
3545.26
3535.16
3526.54
3519.35
3513.51
3508.97
3505.64
3503.48
3502.62
3502.8
3504.05
3506.39
3509.84
3514.48
3520.39
3527.66
3536.42
3546.77
3558.84
3572.74
3588.59
3606.46
3626.4
3648.41
3672.5
3698.56
3726.46
3756.02
3786.95
3818.2
3850.96
3884.17
3917.35
3950.13
3982.04
4012.64
4041.56
4068.36
4092.7
4114.23
4132.65
4147.74
4159.32
4167.27
4171.5
4171.88
4168.59
4161.73
4151.37
4137.73
4121.06
4101.62
4079.72
4055.65
4029.72
4002.26
3973.58
3943.96
3913.71
3883.1
3852.44
3822.08
3792.75
3763.53
3735.11
3707.74
3681.57
3656.79
3633.55
3611.92
3591.97
3421.94
3438.32
3456.58
3476.7
3498.67
3522.49
3548.12
3575.5
3604.52
3635.05
3666.91
3699.94
3733.89
3768.42
3803.21
3837.87
3872
3905.22
3937.1
3967.21
3995.18
4020.6
4043.08
4062.33
4078.03
4089.97
4097.96
4101.84
4101.27
4096.63
4088.04
4075.58
4059.48
4039.99
4017.39
3992.01
3964.23
3934.44
3903.03
3870.43
3837.02
3803.17
3769.23
3735.57
3704.43
3672.59
3641.73
3612.11
3583.9
3557.21
3532.15
3508.76
3487.1
3467.16
3448.97
3432.49
3417.73
3404.64
3393.2
3383.38
3375.15
3368.48
3363.38
3359.8
3357.78
3357.29
3358.29
3360.84
3364.94
3370.59
3377.83
3386.67
3397.13
3409.24
3422.98
3438.38
3455.42
3474.08
3494.35
3516.18
3539.53
3564.34
3590.53
3618.01
3646.68
3676.42
3707.21
3738.69
3770.62
3802.79
3834.93
3866.77
3897.97
3928.19
3957.09
3984.31
4009.5
4032.32
4052.46
4069.63
4083.57
4094.06
4100.92
4104
4103.26
4098.7
4090.33
4078.2
4062.48
4043.36
4021.09
3995.96
3968.33
3938.57
3907.11
3874.37
3840.78
3806.79
3772.81
3739.22
3706.37
3674.57
3644.06
3615.07
3587.74
3562.2
3538.52
3516.75
3496.89
3478.93
3462.85
3448.59
3436.1
3425.32
3416.16
3408.56
3402.44
3397.73
3394.34
3392.24
3391.36
3391.63
3393.01
3395.49
3399.06
3403.7
3409.43
3416.27
3424.27
3433.47
3443.91
3455.66
3468.76
3483.28
3499.26
3516.73
3535.73
3556.27
3578.35
3601.94
3627
3653.45
3681.19
3710.09
3740.15
3770.86
3802.16
3833.78
3865.41
3896.72
3927.37
3956.97
3985.13
4011.47
4035.58
4057.08
4075.64
4090.93
4102.68
4110.66
4114.73
4114.74
4110.76
4102.83
4091.01
4075.51
4056.57
4034.5
4009.64
3982.36
3953.07
3922.17
3890.1
3857.27
3824.1
3790.98
3758.28
3726.33
3695.38
3665.68
3637.4
3610.68
3585.61
3562.27
3540.69
3520.89
3502.86
3486.55
3471.92
3458.91
3447.44
3437.45
3428.86
3421.61
3415.66
3410.96
3407.46
3405.15
3404.03
3404.08
3405.27
3407.64
3411.19
3415.93
3421.89
3429.11
3437.63
3447.47
3458.68
3471.3
3485.39
3500.97
3518.1
3536.79
3557.08
3578.95
3602.39
3627.36
3653.79
3681.57
3710.59
3740.68
3771.71
3803.29
3835.22
3867.21
3898.91
3929.95
3959.94
3988.44
4015.04
4039.31
4060.84
4079.24
4094.17
4105.35
4112.54
4115.55
4114.34
4108.9
4099.26
4085.59
4068.1
4047.09
4022.9
3995.95
3966.66
3935.5
3902.93
3869.41
3835.38
3801.28
3767.67
3734.59
3702.49
3671.65
3642.27
3614.55
3588.59
3564.49
3542.28
3521.97
3503.51
3486.86
3471.93
3458.68
3447.04
3436.94
3428.33
3421.14
3415.31
3410.78
3407.45
3405.3
3404.44
3404.62
3405.86
3408.2
3411.65
3416.28
3422.18
3429.44
3438.19
3448.53
3460.59
3474.48
3490.32
3508.18
3528.12
3550.13
3574.22
3600.29
3628.19
3657.77
3688.73
3719.98
3752.78
3786.02
3819.23
3852.05
3884
3914.63
3943.58
3970.42
3994.79
4016.35
4034.79
4049.91
4061.5
4069.46
4073.69
4074.08
4070.78
4063.9
4053.52
4039.86
4023.16
4003.69
3981.76
3957.67
3931.71
3904.22
3875.51
3845.87
3815.59
3784.97
3754.29
3723.9
3694.56
3665.32
3636.9
3609.51
3583.34
3558.55
3535.3
3513.66
3493.71
3323.61
3339.99
3358.24
3378.35
3400.32
3424.14
3449.77
3477.15
3506.18
3536.72
3568.6
3601.66
3635.64
3670.21
3705.04
3739.75
3773.93
3807.2
3839.14
3869.3
3897.32
3922.8
3945.34
3964.62
3980.36
3992.33
4000.34
4004.26
4003.65
3998.99
3990.38
3977.89
3961.75
3942.21
3919.57
3894.13
3866.3
3836.46
3805
3772.34
3738.89
3705
3671.03
3637.34
3606.15
3574.29
3543.42
3513.79
3485.57
3458.88
3433.81
3410.43
3388.76
3368.83
3350.64
3334.18
3319.42
3306.33
3294.9
3285.08
3276.86
3270.2
3265.09
3261.52
3259.5
3259
3260.01
3262.56
3266.65
3272.3
3279.54
3288.37
3298.83
3310.93
3324.67
3340.06
3357.11
3375.77
3396.04
3417.87
3441.22
3466.03
3492.23
3519.72
3548.4
3578.15
3608.96
3640.46
3672.41
3704.61
3736.8
3768.67
3799.91
3830.18
3859.12
3886.39
3911.63
3934.5
3954.68
3971.89
3985.86
3996.37
4003.26
4006.36
4005.6
4001.04
3992.65
3980.5
3964.75
3945.59
3923.27
3898.09
3870.41
3840.6
3809.08
3776.28
3742.64
3708.6
3674.58
3640.95
3608.07
3576.25
3545.73
3516.72
3489.39
3463.84
3440.16
3418.39
3398.54
3380.59
3364.52
3350.27
3337.79
3327.02
3317.87
3310.28
3304.17
3299.47
3296.09
3293.99
3293.12
3293.39
3294.78
3297.26
3300.82
3305.46
3311.19
3318.03
3326.02
3335.21
3345.65
3357.39
3370.48
3384.99
3400.96
3418.43
3437.42
3457.96
3480.04
3503.63
3528.69
3555.15
3582.9
3611.83
3641.88
3672.63
3703.96
3735.61
3767.28
3798.64
3829.33
3858.98
3887.19
3913.58
3937.74
3959.3
3977.9
3993.23
4005.01
4013.02
4017.1
4017.11
4013.12
4005.17
3993.32
3977.78
3958.8
3936.68
3911.77
3884.43
3855.08
3824.14
3792.01
3759.14
3725.92
3692.76
3660.03
3628.04
3597.08
3567.36
3539.07
3512.34
3487.27
3463.93
3442.36
3422.56
3404.53
3388.24
3373.62
3360.62
3349.16
3339.17
3330.59
3323.36
3317.41
3312.71
3309.22
3306.91
3305.79
3305.83
3307.03
3309.4
3312.94
3317.68
3323.64
3330.86
3339.36
3349.2
3360.4
3373.02
3387.09
3402.67
3419.79
3438.48
3458.76
3480.63
3504.07
3529.04
3555.48
3583.28
3612.31
3642.42
3673.47
3705.08
3737.05
3769.08
3800.83
3831.92
3861.95
3890.52
3917.17
3941.5
3963.08
3981.53
3996.5
4007.71
4014.93
4017.95
4016.73
4011.28
4001.62
3987.91
3970.38
3949.32
3925.08
3898.06
3868.72
3837.5
3804.87
3771.29
3737.22
3703.07
3669.43
3636.32
3604.19
3573.33
3543.94
3516.21
3490.25
3466.15
3443.94
3423.64
3405.18
3388.54
3373.63
3360.38
3348.75
3338.66
3330.06
3322.88
3317.06
3312.53
3309.22
3307.07
3306.21
3306.39
3307.63
3309.97
3313.41
3318.03
3323.92
3331.17
3339.9
3350.22
3362.26
3376.14
3391.97
3409.82
3429.74
3451.76
3475.85
3501.92
3529.85
3559.45
3590.46
3621.69
3654.55
3687.84
3721.11
3753.97
3785.98
3816.67
3845.67
3872.57
3896.98
3918.58
3937.06
3952.21
3963.82
3971.79
3976.02
3976.42
3973.1
3966.2
3955.79
3942.09
3925.36
3905.85
3883.88
3859.74
3833.74
3806.21
3777.45
3747.78
3717.47
3686.81
3656.11
3625.7
3596.32
3567.07
3538.62
3511.22
3485.03
3460.23
3436.97
3415.33
3395.38
3225.21
3241.58
3259.81
3279.92
3301.88
3325.7
3351.34
3378.73
3407.77
3438.33
3470.23
3503.32
3537.34
3571.96
3606.85
3641.62
3675.87
3709.21
3741.22
3771.46
3799.56
3825.1
3847.7
3867.05
3882.84
3894.84
3902.88
3906.84
3906.2
3901.52
3892.86
3880.34
3864.14
3844.55
3821.84
3796.33
3768.43
3738.52
3706.99
3674.26
3640.75
3606.81
3572.78
3539.07
3507.81
3475.92
3445.04
3415.39
3387.16
3360.46
3335.4
3312.01
3290.35
3270.43
3252.25
3235.79
3221.03
3207.96
3196.53
3186.72
3178.51
3171.85
3166.75
3163.18
3161.16
3160.66
3161.67
3164.21
3168.3
3173.94
3181.18
3190.01
3200.46
3212.56
3226.3
3241.68
3258.72
3277.39
3297.65
3319.49
3342.84
3367.66
3393.86
3421.36
3450.06
3479.83
3510.65
3542.19
3574.18
3606.41
3638.64
3670.57
3701.86
3732.2
3761.21
3788.54
3813.84
3836.77
3857.02
3874.27
3888.28
3898.83
3905.74
3908.86
3908.1
3903.53
3895.12
3882.94
3867.14
3847.93
3825.55
3800.31
3772.55
3742.66
3711.07
3678.2
3644.49
3610.39
3576.31
3542.63
3509.71
3477.85
3447.31
3418.29
3390.95
3365.4
3341.72
3319.95
3300.11
3282.17
3266.11
3251.87
3239.41
3228.65
3219.52
3211.94
3205.84
3201.15
3197.78
3195.7
3194.83
3195.11
3196.5
3198.99
3202.55
3207.18
3212.9
3219.74
3227.73
3236.9
3247.33
3259.06
3272.14
3286.64
3302.6
3320.06
3339.05
3359.58
3381.66
3405.25
3430.32
3456.79
3484.56
3513.51
3543.57
3574.36
3605.73
3637.42
3669.14
3700.56
3731.31
3761.03
3789.31
3815.77
3840
3861.62
3880.29
3895.67
3907.48
3915.52
3919.62
3919.64
3915.64
3907.66
3895.77
3880.18
3861.14
3838.96
3813.97
3786.57
3757.14
3726.12
3693.93
3660.99
3627.71
3594.5
3561.72
3529.7
3498.71
3468.97
3440.66
3413.92
3388.85
3365.51
3343.94
3324.16
3306.14
3289.85
3275.25
3262.26
3250.82
3240.84
3232.27
3225.05
3219.11
3214.41
3210.93
3208.62
3207.5
3207.55
3208.74
3211.11
3214.65
3219.38
3225.34
3232.55
3241.04
3250.87
3262.06
3274.67
3288.74
3304.31
3321.42
3340.1
3360.37
3382.24
3405.68
3430.66
3457.1
3484.92
3513.97
3544.1
3575.19
3606.84
3638.86
3670.94
3702.74
3733.9
3764.01
3792.65
3819.38
3843.78
3865.43
3883.95
3898.98
3910.23
3917.47
3920.52
3919.29
3913.83
3904.14
3890.38
3872.79
3851.66
3827.35
3800.25
3770.83
3739.53
3706.82
3673.18
3639.04
3604.83
3571.14
3537.98
3505.83
3474.94
3445.53
3417.79
3391.83
3367.73
3345.53
3325.23
3306.79
3290.16
3275.26
3262.02
3250.4
3240.33
3231.74
3224.57
3218.76
3214.24
3210.94
3208.8
3207.94
3208.12
3209.36
3211.69
3215.12
3219.73
3225.6
3232.83
3241.54
3251.84
3263.86
3277.72
3293.53
3311.36
3331.28
3353.29
3377.38
3403.47
3431.42
3461.05
3492.13
3523.34
3556.28
3589.64
3622.97
3655.91
3687.98
3718.75
3747.83
3774.79
3799.27
3820.93
3839.46
3854.64
3866.29
3874.26
3878.49
3878.91
3875.57
3868.63
3858.18
3844.44
3827.65
3808.09
3786.06
3761.86
3735.81
3708.22
3679.42
3649.7
3619.34
3588.64
3557.9
3527.45
3498.03
3468.75
3440.28
3412.86
3386.65
3361.84
3338.57
3316.92
3296.96
3126.73
3143.08
3161.31
3181.41
3203.36
3227.18
3252.82
3280.22
3309.28
3339.86
3371.79
3404.92
3438.99
3473.67
3508.63
3543.48
3577.81
3611.25
3643.35
3673.68
3701.87
3727.5
3750.19
3769.61
3785.46
3797.5
3805.58
3809.57
3808.91
3804.2
3795.5
3782.92
3766.66
3746.99
3724.2
3698.61
3670.62
3640.61
3608.99
3576.19
3542.6
3508.59
3474.51
3440.76
3409.41
3377.49
3346.58
3316.92
3288.67
3261.97
3236.9
3213.52
3191.87
3171.95
3153.78
3137.33
3122.58
3109.52
3098.1
3088.3
3080.09
3073.44
3068.35
3064.78
3062.76
3062.26
3063.26
3065.8
3069.89
3075.53
3082.75
3091.58
3102.03
3114.12
3127.85
3143.23
3160.27
3178.93
3199.2
3221.04
3244.4
3269.22
3295.43
3322.94
3351.66
3381.45
3412.3
3443.87
3475.9
3508.19
3540.48
3572.47
3603.84
3634.24
3663.33
3690.75
3716.13
3739.14
3759.46
3776.78
3790.84
3801.43
3808.37
3811.51
3810.76
3806.17
3797.73
3785.51
3769.66
3750.38
3727.92
3702.6
3674.75
3644.77
3613.08
3580.12
3546.33
3512.15
3477.99
3444.26
3411.29
3379.39
3348.81
3319.77
3292.42
3266.87
3243.19
3221.43
3201.59
3183.67
3167.62
3153.41
3140.96
3130.22
3121.1
3113.54
3107.46
3102.78
3099.43
3097.36
3096.49
3096.78
3098.18
3100.67
3104.23
3108.86
3114.58
3121.4
3129.38
3138.54
3148.96
3160.67
3173.74
3188.23
3204.17
3221.62
3240.6
3261.13
3283.21
3306.8
3331.88
3358.36
3386.15
3415.13
3445.21
3476.04
3507.46
3539.21
3570.99
3602.48
3633.31
3663.11
3691.48
3718.03
3742.35
3764.05
3782.79
3798.24
3810.11
3818.19
3822.3
3822.33
3818.31
3810.29
3798.36
3782.71
3763.6
3741.33
3716.26
3688.76
3659.24
3628.13
3595.85
3562.83
3529.48
3496.2
3463.37
3431.3
3400.27
3370.5
3342.18
3315.43
3290.35
3267.01
3245.45
3225.67
3207.67
3191.4
3176.81
3163.84
3152.41
3142.46
3133.9
3126.69
3120.76
3116.07
3112.59
3110.29
3109.17
3109.21
3110.41
3112.77
3116.3
3121.03
3126.98
3134.18
3142.67
3152.49
3163.67
3176.27
3190.32
3205.88
3222.98
3241.65
3261.92
3283.78
3307.22
3332.2
3358.66
3386.49
3415.57
3445.73
3476.87
3508.56
3540.64
3572.79
3604.67
3635.91
3666.11
3694.84
3721.67
3746.16
3767.9
3786.5
3801.6
3812.9
3820.18
3823.26
3822.03
3816.54
3806.81
3793
3775.34
3754.12
3729.71
3702.52
3672.99
3641.59
3608.79
3575.05
3540.83
3506.56
3472.79
3439.59
3407.39
3376.47
3347.04
3319.29
3293.32
3269.22
3247.03
3226.74
3208.31
3191.7
3176.82
3163.6
3151.99
3141.93
3133.35
3126.2
3120.4
3115.9
3112.61
3110.49
3109.63
3109.81
3111.05
3113.36
3116.78
3121.38
3127.23
3134.43
3143.12
3153.4
3165.38
3179.22
3195.01
3212.82
3232.73
3254.73
3278.83
3304.93
3332.9
3362.58
3393.73
3424.93
3457.97
3491.41
3524.82
3557.85
3590.02
3620.88
3650.04
3677.09
3701.65
3723.38
3741.98
3757.21
3768.89
3776.88
3781.12
3781.54
3778.18
3771.2
3760.7
3746.9
3730.05
3710.42
3688.32
3664.05
3637.92
3610.27
3581.39
3551.61
3521.2
3490.45
3459.66
3429.17
3399.7
3370.39
3341.89
3314.44
3288.21
3263.38
3240.09
3218.43
3198.46
3028.18
3044.51
3062.72
3082.81
3104.76
3128.58
3154.22
3181.63
3210.71
3241.31
3273.28
3306.45
3340.59
3375.34
3410.39
3445.33
3479.77
3513.31
3545.52
3575.96
3604.26
3630.01
3652.79
3672.3
3688.22
3700.32
3708.43
3712.47
3711.78
3707.03
3698.28
3685.64
3669.31
3649.55
3626.66
3600.96
3572.86
3542.75
3511.02
3478.12
3444.43
3410.35
3376.19
3342.39
3310.94
3278.99
3248.06
3218.37
3190.11
3163.4
3138.33
3114.95
3093.3
3073.39
3055.23
3038.8
3024.06
3011.01
2999.6
2989.82
2981.61
2974.97
2969.88
2966.32
2964.3
2963.79
2964.8
2967.34
2971.41
2977.05
2984.26
2993.08
3003.52
3015.61
3029.33
3044.71
3061.74
3080.4
3100.67
3122.51
3145.88
3170.71
3196.93
3224.46
3253.2
3283.02
3313.89
3345.51
3377.6
3409.95
3442.3
3474.37
3505.82
3536.32
3565.51
3593.02
3618.5
3641.6
3662
3679.4
3693.53
3704.17
3711.14
3714.31
3713.57
3708.96
3700.48
3688.21
3672.3
3652.94
3630.4
3604.97
3577.01
3546.92
3515.12
3482.05
3448.15
3413.88
3379.64
3345.82
3312.8
3280.85
3250.24
3221.17
3193.81
3168.25
3144.58
3122.82
3103
3085.09
3069.06
3054.86
3042.44
3031.72
3022.62
3015.08
3009.02
3004.36
3001.03
2998.97
2998.11
2998.41
2999.82
3002.31
3005.87
3010.5
3016.2
3023.02
3030.98
3040.13
3050.53
3062.23
3075.28
3089.75
3105.69
3123.12
3142.09
3162.62
3184.69
3208.29
3233.37
3259.86
3287.68
3316.69
3346.79
3377.68
3409.16
3440.98
3472.84
3504.41
3535.33
3565.23
3593.71
3620.36
3644.79
3666.59
3685.42
3700.94
3712.88
3721
3725.14
3725.18
3721.15
3713.08
3701.09
3685.37
3666.17
3643.8
3618.62
3591.01
3561.38
3530.16
3497.78
3464.66
3431.21
3397.85
3364.96
3332.83
3301.76
3271.96
3243.62
3216.86
3191.77
3168.44
3146.88
3127.11
3109.12
3092.87
3078.31
3065.36
3053.95
3044.01
3035.47
3028.27
3022.36
3017.68
3014.2
3011.91
3010.79
3010.83
3012.03
3014.39
3017.92
3022.64
3028.58
3035.77
3044.25
3054.05
3065.22
3077.8
3091.84
3107.38
3124.47
3143.13
3163.39
3185.24
3208.69
3233.67
3260.14
3288
3317.11
3347.3
3378.5
3410.25
3442.4
3474.63
3506.6
3537.94
3568.24
3597.09
3624.03
3648.64
3670.49
3689.18
3704.36
3715.73
3723.06
3726.15
3724.93
3719.41
3709.64
3695.76
3678.01
3656.69
3632.16
3604.85
3575.2
3543.68
3510.77
3476.92
3442.61
3408.25
3374.4
3341.14
3308.89
3277.93
3248.48
3220.71
3194.73
3170.64
3148.45
3128.18
3109.77
3093.17
3078.31
3065.11
3053.52
3043.48
3034.92
3027.78
3022
3017.51
3014.24
3012.13
3011.28
3011.45
3012.69
3015
3018.4
3022.98
3028.8
3035.98
3044.64
3054.88
3066.83
3080.64
3096.4
3114.19
3134.08
3156.08
3180.19
3206.31
3234.31
3264.03
3295.28
3326.46
3359.62
3393.15
3426.67
3459.8
3492.08
3523.05
3552.32
3579.48
3604.14
3625.95
3644.62
3659.91
3671.63
3679.65
3683.9
3684.32
3680.93
3673.9
3663.34
3649.48
3632.55
3612.83
3590.64
3566.29
3540.07
3512.34
3483.39
3453.53
3423.05
3392.24
3361.39
3330.85
3301.32
3271.97
3243.44
3215.96
3189.7
3164.84
3141.54
3119.86
3099.88
2929.55
2945.86
2964.06
2984.13
3006.07
3029.88
3055.53
3082.96
3112.06
3142.69
3174.7
3207.93
3242.13
3276.97
3312.12
3347.18
3381.73
3415.4
3447.74
3478.31
3506.74
3532.61
3555.52
3575.12
3591.13
3603.29
3611.45
3615.52
3614.8
3610.02
3601.21
3588.5
3572.08
3552.21
3529.21
3503.39
3475.16
3444.92
3413.07
3380.05
3346.26
3312.08
3277.84
3243.99
3212.42
3180.43
3149.46
3119.75
3091.47
3064.75
3039.67
3016.3
2994.66
2974.76
2956.61
2940.19
2925.47
2912.43
2901.04
2891.26
2883.07
2876.44
2871.36
2867.8
2865.78
2865.27
2866.28
2868.81
2872.88
2878.5
2885.71
2894.52
2904.95
2917.03
2930.75
2946.12
2963.15
2981.81
3002.08
3023.92
3047.29
3072.13
3098.37
3125.91
3154.67
3184.53
3215.43
3247.11
3279.26
3311.67
3344.11
3376.26
3407.82
3438.43
3467.73
3495.35
3520.95
3544.16
3564.66
3582.15
3596.36
3607.06
3614.07
3617.25
3616.53
3611.9
3603.38
3591.06
3575.07
3555.62
3532.96
3507.42
3479.34
3449.11
3417.18
3383.98
3349.96
3315.57
3281.23
3247.34
3214.24
3182.24
3151.59
3122.49
3095.11
3069.55
3045.88
3024.13
3004.32
2986.43
2970.42
2956.25
2943.85
2933.15
2924.08
2916.57
2910.53
2905.89
2902.57
2900.53
2899.69
2900
2901.41
2903.91
2907.46
2912.09
2917.79
2924.59
2932.54
2941.67
2952.05
2963.73
2976.77
2991.22
3007.13
3024.55
3043.51
3064.03
3086.1
3109.7
3134.79
3161.3
3189.14
3218.19
3248.33
3279.27
3310.82
3342.72
3374.67
3406.34
3437.38
3467.4
3495.99
3522.77
3547.31
3569.24
3588.17
3603.79
3615.8
3623.97
3628.14
3628.19
3624.13
3616.02
3603.96
3588.15
3568.85
3546.36
3521.05
3493.32
3463.56
3432.22
3399.71
3366.47
3332.92
3299.47
3266.5
3234.31
3203.18
3173.35
3144.98
3118.2
3093.12
3069.78
3048.23
3028.48
3010.51
2994.28
2979.74
2966.81
2955.43
2945.51
2936.99
2929.81
2923.91
2919.24
2915.77
2913.49
2912.37
2912.41
2913.6
2915.96
2919.48
2924.2
2930.13
2937.3
2945.77
2955.55
2966.71
2979.27
2993.3
3008.82
3025.89
3044.54
3064.78
3086.64
3110.08
3135.08
3161.56
3189.44
3218.58
3248.82
3280.09
3311.9
3344.13
3376.45
3408.53
3439.99
3470.42
3499.39
3526.48
3551.22
3573.19
3592
3607.27
3618.72
3626.1
3629.22
3628
3622.45
3612.62
3598.66
3580.81
3559.37
3534.71
3507.26
3477.46
3445.8
3412.76
3378.79
3344.36
3309.9
3275.96
3242.62
3210.32
3179.32
3149.84
3122.05
3096.07
3071.97
3049.8
3029.54
3011.15
2994.57
2979.73
2966.55
2954.99
2944.96
2936.42
2929.3
2923.54
2919.08
2915.83
2913.73
2912.88
2913.06
2914.29
2916.59
2919.97
2924.53
2930.32
2937.47
2946.09
2956.29
2968.21
2981.98
2997.7
3015.47
3035.35
3057.34
3081.45
3107.59
3135.62
3165.41
3196.76
3227.93
3261.23
3294.87
3328.5
3361.76
3394.16
3425.26
3454.67
3481.94
3506.71
3528.64
3547.39
3562.75
3574.52
3582.57
3586.82
3587.24
3583.83
3576.74
3566.11
3552.16
3535.14
3515.33
3493.04
3468.58
3442.27
3414.44
3385.39
3355.45
3324.89
3294.01
3263.1
3232.5
3202.9
3173.5
3144.92
3117.41
3091.12
3066.23
3042.9
3021.21
3001.22
2830.84
2847.13
2865.31
2885.37
2907.3
2931.11
2956.76
2984.2
3013.33
3044
3076.05
3109.34
3143.62
3178.56
3213.83
3249.01
3283.7
3317.51
3350
3380.72
3409.3
3435.32
3458.36
3478.08
3494.18
3506.41
3514.62
3518.72
3517.99
3513.17
3504.29
3491.49
3474.97
3454.99
3431.85
3405.89
3377.52
3347.13
3315.14
3281.99
3248.08
3213.78
3179.45
3145.53
3113.83
3081.8
3050.79
3021.05
2992.75
2966.02
2940.94
2917.57
2895.94
2876.05
2857.92
2841.51
2826.81
2813.79
2802.41
2792.65
2784.47
2777.85
2772.77
2769.22
2767.2
2766.69
2767.69
2770.22
2774.28
2779.89
2787.09
2795.89
2806.31
2818.38
2832.09
2847.46
2864.48
2883.14
2903.41
2925.26
2948.63
2973.49
2999.74
3027.3
3056.09
3085.98
3116.92
3148.67
3180.88
3213.37
3245.9
3278.16
3309.83
3340.56
3369.99
3397.75
3423.47
3446.81
3467.43
3485.02
3499.32
3510.09
3517.15
3520.36
3519.64
3514.99
3506.43
3494.04
3477.96
3458.41
3435.63
3409.95
3381.72
3351.35
3319.26
3285.92
3251.76
3217.24
3182.79
3148.8
3115.62
3083.55
3052.85
3023.73
2996.33
2970.76
2947.09
2925.35
2905.56
2887.69
2871.71
2857.56
2845.19
2834.52
2825.48
2817.99
2811.97
2807.36
2804.07
2802.05
2801.22
2801.54
2802.96
2805.46
2809.02
2813.64
2819.33
2826.12
2834.05
2843.16
2853.52
2865.17
2878.19
2892.62
2908.51
2925.92
2944.87
2965.37
2987.44
3011.04
3036.14
3062.68
3090.55
3119.64
3149.82
3180.83
3212.45
3244.44
3276.49
3308.28
3339.44
3369.59
3398.33
3425.25
3449.93
3471.99
3491.05
3506.77
3518.87
3527.1
3531.3
3531.36
3527.28
3519.12
3506.98
3491.06
3471.64
3449.02
3423.57
3395.69
3365.78
3334.29
3301.65
3268.28
3234.61
3201.04
3167.98
3135.72
3104.54
3074.66
3046.26
3019.47
2994.38
2971.04
2949.5
2929.77
2911.82
2895.61
2881.1
2868.2
2856.85
2846.96
2838.46
2831.29
2825.41
2820.75
2817.29
2815.01
2813.9
2813.94
2815.13
2817.48
2821
2825.7
2831.62
2838.79
2847.23
2857
2868.14
2880.69
2894.69
2910.2
2927.25
2945.88
2966.11
2987.96
3011.4
3036.4
3062.91
3090.81
3120
3150.29
3181.62
3213.51
3245.84
3278.27
3310.47
3342.06
3372.63
3401.76
3428.99
3453.89
3476.01
3494.94
3510.33
3521.87
3529.3
3532.46
3531.24
3525.66
3515.76
3501.71
3483.74
3462.16
3437.35
3409.74
3379.78
3347.96
3314.76
3280.65
3246.09
3211.52
3177.47
3144.05
3111.68
3080.63
3051.11
3023.3
2997.32
2973.22
2951.06
2930.82
2912.45
2895.9
2881.09
2867.93
2856.39
2846.39
2837.87
2830.77
2825.04
2820.6
2817.37
2815.29
2814.44
2814.62
2815.84
2818.13
2821.5
2826.03
2831.79
2838.9
2847.47
2857.63
2869.51
2883.24
2898.92
2916.66
2936.52
2958.51
2982.62
3008.79
3036.86
3066.7
3098.16
3129.35
3162.8
3196.56
3230.33
3263.72
3296.28
3327.52
3357.07
3384.49
3409.39
3431.43
3450.28
3465.72
3477.55
3485.63
3489.89
3490.3
3486.86
3479.71
3469
3454.96
3437.84
3417.91
3395.51
3370.94
3344.51
3316.56
3287.42
3257.38
3226.73
3195.76
3164.77
3134.1
3104.43
3074.98
3046.35
3018.79
2992.46
2967.55
2944.2
2922.48
2902.47
2732.06
2748.33
2766.48
2786.52
2808.44
2832.24
2857.91
2885.36
2914.51
2945.23
2977.33
3010.68
3045.06
3080.11
3115.51
3150.84
3185.68
3219.65
3252.3
3283.2
3311.95
3338.13
3361.32
3381.17
3397.38
3409.69
3417.95
3422.05
3421.33
3416.47
3407.52
3394.63
3377.99
3357.87
3334.59
3308.47
3279.93
3249.38
3217.23
3183.93
3149.88
3115.46
3081.02
3047.02
3015.19
2983.1
2952.04
2922.27
2893.95
2867.21
2842.13
2818.76
2797.14
2777.27
2759.15
2742.76
2728.08
2715.08
2703.72
2693.97
2685.8
2679.19
2674.12
2670.58
2668.56
2668.05
2669.05
2671.56
2675.62
2681.22
2688.41
2697.2
2707.6
2719.66
2733.36
2748.72
2765.74
2784.39
2804.67
2826.52
2849.91
2874.77
2901.04
2928.63
2957.44
2987.38
3018.35
3050.17
3082.46
3115.05
3147.68
3180.05
3211.85
3242.73
3272.3
3300.21
3326.08
3349.56
3370.31
3388.02
3402.41
3413.26
3420.37
3423.61
3422.9
3418.23
3409.62
3397.15
3380.98
3361.31
3338.39
3312.56
3284.16
3253.62
3221.37
3187.86
3153.54
3118.88
3084.3
3050.2
3016.92
2984.79
2954.04
2924.88
2897.46
2871.88
2848.21
2826.49
2806.72
2788.87
2772.92
2758.8
2746.46
2735.82
2726.81
2719.35
2713.37
2708.78
2705.52
2703.51
2702.71
2703.04
2704.47
2706.97
2710.53
2715.14
2720.82
2727.6
2735.51
2744.6
2754.93
2766.56
2779.55
2793.96
2809.83
2827.22
2846.15
2866.65
2888.71
2912.32
2937.43
2963.98
2991.89
3021.02
3051.25
3082.33
3114.05
3146.14
3178.31
3210.22
3241.52
3271.83
3300.72
3327.8
3352.64
3374.85
3394.05
3409.89
3422.08
3430.39
3434.62
3434.69
3430.59
3422.36
3410.13
3394.11
3374.54
3351.77
3326.16
3298.11
3268.04
3236.39
3203.58
3170.06
3136.26
3102.57
3069.42
3037.07
3005.82
2975.9
2947.47
2920.66
2895.56
2872.23
2850.7
2830.98
2813.05
2796.88
2782.39
2769.53
2758.2
2748.34
2739.87
2732.73
2726.86
2722.21
2718.77
2716.5
2715.38
2715.42
2716.61
2718.96
2722.47
2727.16
2733.07
2740.22
2748.65
2758.4
2769.51
2782.04
2796.02
2811.5
2828.53
2847.15
2867.37
2889.2
2912.65
2937.66
2964.18
2992.12
3021.35
3051.71
3083.1
3115.09
3147.52
3180.07
3212.41
3244.15
3274.88
3304.18
3331.59
3356.66
3378.94
3398.02
3413.54
3425.17
3432.68
3435.87
3434.65
3429.03
3419.06
3404.9
3386.8
3365.06
3340.08
3312.29
3282.14
3250.14
3216.77
3182.5
3147.79
3113.09
3078.92
3045.41
3012.97
2981.86
2952.31
2924.48
2898.48
2874.39
2852.24
2832.02
2813.68
2797.16
2782.37
2769.25
2757.73
2747.75
2739.26
2732.19
2726.48
2722.07
2718.86
2716.8
2715.96
2716.14
2717.36
2719.63
2722.98
2727.48
2733.2
2740.26
2748.8
2758.91
2770.73
2784.41
2800.06
2817.76
2837.6
2859.58
2883.7
2909.89
2938
2967.9
2999.45
3030.76
3064.32
3098.22
3132.14
3165.69
3198.42
3229.83
3259.54
3287.11
3312.16
3334.34
3353.3
3368.83
3380.73
3388.85
3393.11
3393.51
3390.03
3382.81
3372.02
3357.88
3340.63
3320.58
3298.05
3273.34
3246.79
3218.72
3189.45
3159.3
3128.55
3097.48
3066.42
3035.67
3005.91
2976.4
2947.72
2920.11
2893.74
2868.79
2845.41
2823.67
2803.65
2633.2
2649.44
2667.57
2687.59
2709.49
2733.3
2758.97
2786.44
2815.62
2846.38
2878.53
2911.96
2946.45
2981.62
3017.16
3052.65
3087.67
3121.81
3154.65
3185.73
3214.67
3241.04
3264.39
3284.39
3300.72
3313.13
3321.44
3325.55
3324.83
3319.93
3310.9
3297.9
3281.13
3260.87
3237.42
3211.12
3182.4
3151.67
3119.34
3085.87
3051.67
3017.11
2982.56
2948.47
2916.48
2884.33
2853.23
2823.42
2795.08
2768.32
2743.24
2719.87
2698.26
2678.41
2660.31
2643.94
2629.28
2616.3
2604.95
2595.22
2587.07
2580.47
2575.42
2571.88
2569.86
2569.35
2570.34
2572.85
2576.89
2582.49
2589.66
2598.44
2608.83
2620.87
2634.57
2649.92
2666.93
2685.58
2705.85
2727.71
2751.11
2775.98
2802.27
2829.89
2858.74
2888.71
2919.73
2951.64
2984.01
3016.7
3049.44
3081.95
3113.89
3144.92
3174.66
3202.73
3228.77
3252.4
3273.3
3291.14
3305.64
3316.57
3323.75
3327.03
3326.32
3321.62
3312.96
3300.41
3284.13
3264.32
3241.25
3215.24
3186.67
3155.94
3123.5
3089.8
3055.31
3020.49
2985.76
2951.54
2918.16
2885.95
2855.14
2825.94
2798.5
2772.91