/*--------------------------------*- C++ -*----------------------------------*\
| =========                 |                                                 |
| \\      /  F ield         | OpenFOAM: The Open Source CFD Toolbox           |
|  \\    /   O peration     | Version:  3.0.1                                 |
|   \\  /    A nd           | Web:      www.OpenFOAM.org                      |
|    \\/     M anipulation  |                                                 |
\*---------------------------------------------------------------------------*/
FoamFile
{
    version     2.0;
    format      ascii;
    class       volVectorField;
    location    "70.8";
    object      U;
}
// * * * * * * * * * * * * * * * * * * * * * * * * * * * * * * * * * * * * * //

dimensions      [0 1 -1 0 0 0 0];

internalField   nonuniform List<vector> 
21420
(
(0.190451 -0.00114624 0)
(0.199642 -0.000955108 0)
(0.208158 -0.000734005 0)
(0.214421 -0.000502289 0)
(0.218315 -0.000262818 0)
(0.219756 -1.93035e-05 0)
(0.218782 0.000219883 0)
(0.215316 0.000460346 0)
(0.209489 0.00069324 0)
(0.201443 0.000900514 0)
(0.191321 0.00110168 0)
(0.179317 0.0012868 0)
(0.165654 0.0014235 0)
(0.150578 0.00156199 0)
(0.134342 0.00164428 0)
(0.117209 0.00173216 0)
(0.09942 0.0017973 0)
(0.0812216 0.00180439 0)
(0.0628407 0.00182291 0)
(0.0444424 0.0018204 0)
(0.0261639 0.00177102 0)
(0.00839431 0.00172917 0)
(-0.00862224 0.00167989 0)
(-0.0250103 0.00159645 0)
(-0.0407215 0.00152503 0)
(-0.0556246 0.00143097 0)
(-0.0696635 0.00134865 0)
(-0.0828042 0.0012618 0)
(-0.0950275 0.00116453 0)
(-0.106335 0.00107699 0)
(-0.116734 0.000989073 0)
(-0.126239 0.000898239 0)
(-0.134873 0.000814433 0)
(-0.142661 0.000729748 0)
(-0.149629 0.000650692 0)
(-0.155802 0.000573262 0)
(-0.161203 0.000496793 0)
(-0.165854 0.000423211 0)
(-0.169771 0.000350747 0)
(-0.172972 0.000278984 0)
(-0.175473 0.000208692 0)
(-0.177282 0.000138296 0)
(-0.178364 7.07985e-05 0)
(-0.178759 2.80485e-06 0)
(-0.178426 -7.13768e-05 0)
(-0.177386 -0.00014373 0)
(-0.175595 -0.00021745 0)
(-0.173046 -0.000294922 0)
(-0.169739 -0.000370538 0)
(-0.165632 -0.000449629 0)
(-0.160673 -0.000536322 0)
(-0.154875 -0.000617677 0)
(-0.148195 -0.000713933 0)
(-0.140562 -0.000796326 0)
(-0.132074 -0.000884305 0)
(-0.122642 -0.000989833 0)
(-0.112135 -0.00107508 0)
(-0.100799 -0.00116291 0)
(-0.0885397 -0.00127 0)
(-0.0752523 -0.00134384 0)
(-0.0611779 -0.00145391 0)
(-0.0462243 -0.00152555 0)
(-0.0304528 -0.00158641 0)
(-0.0140355 -0.00165733 0)
(0.00299206 -0.00170837 0)
(0.0204511 -0.0017356 0)
(0.0382003 -0.00176829 0)
(0.0560995 -0.00176821 0)
(0.0739378 -0.00176119 0)
(0.0915779 -0.00173611 0)
(0.108827 -0.00168269 0)
(0.125469 -0.00161285 0)
(0.14129 -0.00152865 0)
(0.156078 -0.00141516 0)
(0.169623 -0.00128654 0)
(0.181799 -0.00113493 0)
(0.192418 -0.000979634 0)
(0.201276 -0.000794473 0)
(0.208246 -0.000597141 0)
(0.213161 -0.000393161 0)
(0.215946 -0.000181808 0)
(0.216578 3.44922e-05 0)
(0.215091 0.000250779 0)
(0.211215 0.000463276 0)
(0.205281 0.000680558 0)
(0.197526 0.000862293 0)
(0.187749 0.00104064 0)
(0.176367 0.00119869 0)
(0.163533 0.00134187 0)
(0.149293 0.00147563 0)
(0.133903 0.00158103 0)
(0.117454 0.0016731 0)
(0.100215 0.00174256 0)
(0.0823821 0.00179187 0)
(0.0641764 0.00181669 0)
(0.0458416 0.00181819 0)
(0.0275916 0.00179762 0)
(0.00965285 0.00175761 0)
(-0.00778766 0.00170235 0)
(-0.0245751 0.00162793 0)
(-0.040563 0.0015439 0)
(-0.0556322 0.00144946 0)
(-0.0696939 0.00133959 0)
(-0.082703 0.00123699 0)
(-0.0946692 0.00113632 0)
(-0.105553 0.00103085 0)
(-0.115368 0.000926712 0)
(-0.124174 0.000823716 0)
(-0.131981 0.000722453 0)
(-0.138829 0.000634345 0)
(-0.14477 0.000548915 0)
(-0.149865 0.000463281 0)
(-0.154161 0.000388036 0)
(-0.157679 0.00031671 0)
(-0.160498 0.000246413 0)
(-0.162654 0.000176769 0)
(-0.164116 0.000116769 0)
(-0.164948 5.59367e-05 0)
(-0.16522 -2.18853e-06 0)
(-0.164904 -6.87607e-05 0)
(-0.163984 -0.000120168 0)
(-0.162444 -0.000175482 0)
(-0.160346 -0.000234379 0)
(-0.157672 -0.000288559 0)
(-0.154422 -0.000352701 0)
(-0.150573 -0.000417465 0)
(-0.146091 -0.000469391 0)
(-0.141025 -0.000540178 0)
(-0.135312 -0.00059256 0)
(-0.128961 -0.000667328 0)
(-0.121953 -0.000720703 0)
(-0.114279 -0.000799529 0)
(-0.105912 -0.000857006 0)
(-0.0968423 -0.000942983 0)
(-0.0870315 -0.00100537 0)
(-0.0764228 -0.00109199 0)
(-0.0650463 -0.00116489 0)
(-0.0528811 -0.0012479 0)
(-0.0399057 -0.00132475 0)
(-0.026138 -0.0013964 0)
(-0.0117163 -0.00147734 0)
(0.00340594 -0.00151882 0)
(0.0191138 -0.00157614 0)
(0.0352303 -0.0016178 0)
(0.0516865 -0.00164597 0)
(0.0683356 -0.00165118 0)
(0.0849768 -0.00164694 0)
(0.101455 -0.0016265 0)
(0.117583 -0.00156651 0)
(0.133092 -0.00150311 0)
(0.147797 -0.00141223 0)
(0.161446 -0.00128627 0)
(0.173754 -0.00115249 0)
(0.184559 -0.00098867 0)
(0.193618 -0.000804121 0)
(0.200759 -0.000603868 0)
(0.205809 -0.000396524 0)
(0.208649 -0.000166504 0)
(0.209202 5.58221e-05 0)
(0.207453 0.000291157 0)
(0.203277 0.0005225 0)
(0.196912 0.000743945 0)
(0.188384 0.00094221 0)
(0.177871 0.00113914 0)
(0.165526 0.00130666 0)
(0.151598 0.0014566 0)
(0.13632 0.00157602 0)
(0.119957 0.00166944 0)
(0.102792 0.00173364 0)
(0.0850708 0.00177974 0)
(0.0670793 0.00179246 0)
(0.0490525 0.00178446 0)
(0.0311717 0.00176387 0)
(0.0136147 0.00171876 0)
(-0.00340751 0.00165534 0)
(-0.0197635 0.0015941 0)
(-0.035405 0.00151607 0)
(-0.050239 0.00142406 0)
(-0.0641775 0.00133652 0)
(-0.077176 0.00124796 0)
(-0.0892299 0.00114694 0)
(-0.100368 0.00105432 0)
(-0.110561 0.000969046 0)
(-0.119842 0.000882658 0)
(-0.128233 0.000786541 0)
(-0.135747 0.000705715 0)
(-0.142433 0.000621591 0)
(-0.148315 0.000545607 0)
(-0.153435 0.000475116 0)
(-0.157866 0.000405499 0)
(-0.16164 0.000340818 0)
(-0.164778 0.000278931 0)
(-0.167332 0.00022848 0)
(-0.169307 0.000166674 0)
(-0.17065 0.000104178 0)
(-0.171375 4.15719e-05 0)
(-0.171539 -1.17468e-05 0)
(-0.171098 -7.09165e-05 0)
(-0.17015 -0.000117055 0)
(-0.168706 -0.000164533 0)
(-0.1668 -0.000209951 0)
(-0.16444 -0.000264303 0)
(-0.161525 -0.000328963 0)
(-0.157921 -0.000378624 0)
(-0.153641 -0.000460274 0)
(-0.14857 -0.000542306 0)
(-0.142651 -0.000626771 0)
(-0.135922 -0.000707536 0)
(-0.128349 -0.000790801 0)
(-0.119985 -0.000870934 0)
(-0.110797 -0.000950389 0)
(-0.100816 -0.00102224 0)
(-0.0900724 -0.00110841 0)
(-0.078514 -0.00118107 0)
(-0.0662027 -0.00126736 0)
(-0.0530742 -0.00133244 0)
(-0.0392004 -0.00141299 0)
(-0.0246272 -0.00148561 0)
(-0.00936206 -0.00153733 0)
(0.00648553 -0.00159252 0)
(0.0227509 -0.0016344 0)
(0.0393643 -0.00165633 0)
(0.0561279 -0.00166469 0)
(0.0729035 -0.00166196 0)
(0.0894975 -0.00162634 0)
(0.105686 -0.00157915 0)
(0.121262 -0.00150321 0)
(0.135988 -0.00141198 0)
(0.149657 -0.00129167 0)
(0.161981 -0.00115218 0)
(0.172744 -0.000982508 0)
(0.181715 -0.000796861 0)
(0.188698 -0.000583358 0)
(0.19348 -0.000354527 0)
(0.195886 -0.000120176 0)
(0.195906 0.000118545 0)
(0.193385 0.000375666 0)
(0.188324 0.000621967 0)
(0.180865 0.000857344 0)
(0.171099 0.00107532 0)
(0.159244 0.00127082 0)
(0.145557 0.00143904 0)
(0.130321 0.00158068 0)
(0.113846 0.00168796 0)
(0.0964369 0.00176751 0)
(0.0783571 0.00181687 0)
(0.059881 0.00184774 0)
(0.0412417 0.0018545 0)
(0.0226275 0.00183669 0)
(0.00422549 0.00181057 0)
(-0.0137753 0.00175503 0)
(-0.0311453 0.00168382 0)
(-0.0477526 0.00161444 0)
(-0.0634873 0.00151011 0)
(-0.0782049 0.00141161 0)
(-0.0918506 0.00130598 0)
(-0.10441 0.00119416 0)
(-0.115887 0.00108477 0)
(-0.126318 0.000982713 0)
(-0.135759 0.000892508 0)
(-0.144273 0.0008009 0)
(-0.151886 0.000713133 0)
(-0.158673 0.000634769 0)
(-0.164655 0.000558519 0)
(-0.169804 0.000476571 0)
(-0.17421 0.000396655 0)
(-0.177874 0.000329069 0)
(-0.180791 0.000260912 0)
(-0.183055 0.000190184 0)
(-0.184633 0.000129285 0)
(-0.185556 5.87712e-05 0)
(-0.185892 1.74794e-06 0)
(-0.185561 -6.12366e-05 0)
(-0.184578 -0.000125913 0)
(-0.182893 -0.000191744 0)
(-0.180634 -0.000261036 0)
(-0.17759 -0.00033291 0)
(-0.173808 -0.000415059 0)
(-0.169204 -0.000492838 0)
(-0.163654 -0.000591874 0)
(-0.157182 -0.000679292 0)
(-0.1497 -0.000786488 0)
(-0.141254 -0.000875363 0)
(-0.131951 -0.000953681 0)
(-0.121827 -0.0010559 0)
(-0.110847 -0.00112698 0)
(-0.0990051 -0.00119383 0)
(-0.0862854 -0.00128886 0)
(-0.0728284 -0.00135453 0)
(-0.0586766 -0.00144531 0)
(-0.0436331 -0.00152022 0)
(-0.0278801 -0.00158375 0)
(-0.0115693 -0.00166815 0)
(0.00515001 -0.00172466 0)
(0.0224034 -0.0017706 0)
(0.0403509 -0.00182466 0)
(0.0587443 -0.00184751 0)
(0.0772732 -0.00183606 0)
(0.0956893 -0.00182287 0)
(0.113738 -0.00176118 0)
(0.131101 -0.00168783 0)
(0.14752 -0.00157371 0)
(0.162652 -0.00142228 0)
(0.176186 -0.00125339 0)
(0.187867 -0.00105751 0)
(0.197468 -0.000833464 0)
(0.204814 -0.000601899 0)
(0.209778 -0.000350605 0)
(0.212214 -0.000103607 0)
(0.212089 0.000147076 0)
(0.209259 0.000411288 0)
(0.203912 0.000637948 0)
(0.196307 0.000860118 0)
(0.186584 0.00106922 0)
(0.174991 0.00122579 0)
(0.161801 0.00137936 0)
(0.147314 0.00147761 0)
(0.131817 0.0015727 0)
(0.115581 0.00164356 0)
(0.0988667 0.00166107 0)
(0.0819084 0.00168228 0)
(0.0649346 0.0016841 0)
(0.0480531 0.00164709 0)
(0.0314283 0.00162185 0)
(0.0152188 0.00155837 0)
(-0.000192678 0.00151466 0)
(-0.0149203 0.00146192 0)
(-0.0292593 0.00139226 0)
(-0.0429983 0.00133397 0)
(-0.0561008 0.00127255 0)
(-0.0685431 0.00119961 0)
(-0.0803163 0.00113614 0)
(-0.0914113 0.00107062 0)
(-0.101815 0.000996694 0)
(-0.111516 0.000928592 0)
(-0.120499 0.000852851 0)
(-0.128745 0.000780727 0)
(-0.136233 0.000705367 0)
(-0.142936 0.000624284 0)
(-0.14883 0.00054374 0)
(-0.15389 0.00046011 0)
(-0.158091 0.000373077 0)
(-0.161413 0.000285274 0)
(-0.163848 0.000194262 0)
(-0.165343 0.000103601 0)
(-0.165959 1.29807e-05 0)
(-0.165662 -7.9476e-05 0)
(-0.164412 -0.000171681 0)
(-0.162231 -0.000263041 0)
(-0.159127 -0.000354582 0)
(-0.15511 -0.000443966 0)
(-0.150189 -0.000534409 0)
(-0.144375 -0.000621208 0)
(-0.137679 -0.000706033 0)
(-0.13012 -0.000794433 0)
(-0.121701 -0.000875716 0)
(-0.110978 -0.000954622 0)
(0.190527 -0.00343955 0)
(0.199725 -0.00286604 0)
(0.208247 -0.00220259 0)
(0.214515 -0.00150737 0)
(0.218411 -0.000788334 0)
(0.219854 -5.77335e-05 0)
(0.21888 0.000659533 0)
(0.215407 0.00138152 0)
(0.209578 0.00208022 0)
(0.201525 0.00270218 0)
(0.191396 0.0033058 0)
(0.179384 0.00386128 0)
(0.165711 0.00427141 0)
(0.150625 0.00468695 0)
(0.134379 0.00493383 0)
(0.117236 0.00519744 0)
(0.0994376 0.00539287 0)
(0.0812302 0.00541404 0)
(0.062841 0.00546957 0)
(0.0444351 0.0054619 0)
(0.0261494 0.00531384 0)
(0.00837448 0.00518798 0)
(-0.00864588 0.00503999 0)
(-0.0250376 0.00478968 0)
(-0.040752 0.00457539 0)
(-0.0556566 0.00429311 0)
(-0.0696971 0.00404606 0)
(-0.0828386 0.00378549 0)
(-0.0950617 0.00349361 0)
(-0.106369 0.00323096 0)
(-0.116768 0.00296718 0)
(-0.126272 0.00269466 0)
(-0.134905 0.00244323 0)
(-0.142692 0.00218915 0)
(-0.149659 0.00195198 0)
(-0.155831 0.00171969 0)
(-0.161232 0.0014903 0)
(-0.165882 0.00126951 0)
(-0.169799 0.00105235 0)
(-0.173 0.000837091 0)
(-0.175501 0.000625638 0)
(-0.17731 0.000415582 0)
(-0.178392 0.000214627 0)
(-0.17879 6.23586e-06 0)
(-0.178457 -0.000214495 0)
(-0.177417 -0.000431132 0)
(-0.175628 -0.000652196 0)
(-0.173081 -0.000884925 0)
(-0.169776 -0.00111126 0)
(-0.16567 -0.00134846 0)
(-0.160713 -0.00160868 0)
(-0.154918 -0.00185283 0)
(-0.14824 -0.00214154 0)
(-0.140609 -0.00238868 0)
(-0.132124 -0.00265274 0)
(-0.122693 -0.00296941 0)
(-0.112189 -0.00322521 0)
(-0.100854 -0.00348867 0)
(-0.0885933 -0.00380962 0)
(-0.0753073 -0.00403173 0)
(-0.0612333 -0.00436284 0)
(-0.0462739 -0.00457723 0)
(-0.030499 -0.00475941 0)
(-0.0140779 -0.0049737 0)
(0.00295695 -0.00512594 0)
(0.0204197 -0.00521036 0)
(0.0381833 -0.00530488 0)
(0.0560932 -0.00529838 0)
(0.073932 -0.0052894 0)
(0.0915902 -0.00521129 0)
(0.108854 -0.00504118 0)
(0.125497 -0.00484567 0)
(0.141336 -0.00458762 0)
(0.156138 -0.00424131 0)
(0.169682 -0.00386878 0)
(0.181881 -0.00339938 0)
(0.192501 -0.00293942 0)
(0.201373 -0.00238158 0)
(0.208344 -0.00179296 0)
(0.21326 -0.00118423 0)
(0.216059 -0.000543879 0)
(0.216688 0.000100204 0)
(0.215187 0.00075489 0)
(0.211317 0.00138687 0)
(0.205387 0.00204135 0)
(0.197628 0.00259307 0)
(0.187842 0.00312077 0)
(0.176458 0.00359098 0)
(0.163625 0.00402591 0)
(0.14938 0.00442057 0)
(0.133988 0.00474562 0)
(0.11753 0.00501989 0)
(0.100278 0.0052246 0)
(0.0824306 0.00536941 0)
(0.0642097 0.00544628 0)
(0.0458653 0.00545158 0)
(0.0276105 0.00540014 0)
(0.00965173 0.00528682 0)
(-0.00781771 0.0051079 0)
(-0.0246256 0.00487704 0)
(-0.0406248 0.00461726 0)
(-0.0556912 0.00434621 0)
(-0.0697577 0.00403384 0)
(-0.0827812 0.00371532 0)
(-0.0947447 0.00340048 0)
(-0.105633 0.00309644 0)
(-0.11546 0.00277065 0)
(-0.124258 0.0024714 0)
(-0.132061 0.00218088 0)
(-0.138921 0.00190049 0)
(-0.144859 0.00163831 0)
(-0.149948 0.00139115 0)
(-0.154247 0.00116312 0)
(-0.157773 0.00093817 0)
(-0.160584 0.000730774 0)
(-0.162732 0.000533458 0)
(-0.164202 0.000351395 0)
(-0.16504 0.000170088 0)
(-0.165313 -1.63477e-05 0)
(-0.164994 -0.000204619 0)
(-0.16408 -0.000354879 0)
(-0.162549 -0.000519436 0)
(-0.160459 -0.000702535 0)
(-0.157797 -0.000880402 0)
(-0.154541 -0.00106319 0)
(-0.150686 -0.00124571 0)
(-0.146209 -0.00140382 0)
(-0.141152 -0.00161598 0)
(-0.135441 -0.00178234 0)
(-0.129102 -0.00199858 0)
(-0.122105 -0.00216616 0)
(-0.114438 -0.0024004 0)
(-0.106076 -0.00257157 0)
(-0.097004 -0.00282466 0)
(-0.0871992 -0.0030096 0)
(-0.0766061 -0.00327884 0)
(-0.0652258 -0.00349521 0)
(-0.0530733 -0.00374907 0)
(-0.0400995 -0.00396833 0)
(-0.0263353 -0.00419033 0)
(-0.0119081 -0.00442456 0)
(0.00321989 -0.00456198 0)
(0.0189213 -0.00473201 0)
(0.0350474 -0.00486052 0)
(0.0515204 -0.00493318 0)
(0.0681715 -0.0049693 0)
(0.0848338 -0.00494304 0)
(0.101325 -0.00486349 0)
(0.117448 -0.00471869 0)
(0.132994 -0.00451228 0)
(0.147714 -0.00422851 0)
(0.161358 -0.0038826 0)
(0.173701 -0.00345475 0)
(0.184519 -0.00296803 0)
(0.193594 -0.00242071 0)
(0.200747 -0.00182431 0)
(0.205819 -0.00117681 0)
(0.20866 -0.000514266 0)
(0.209236 0.0001674 0)
(0.207476 0.00087127 0)
(0.203308 0.00156337 0)
(0.196937 0.00222229 0)
(0.188416 0.00283399 0)
(0.177897 0.00342132 0)
(0.165544 0.00391484 0)
(0.151606 0.00437177 0)
(0.136317 0.00471812 0)
(0.119951 0.00501127 0)
(0.102772 0.00520295 0)
(0.0850408 0.00532203 0)
(0.0670444 0.00538416 0)
(0.0490034 0.00536298 0)
(0.0311046 0.00528641 0)
(0.0135448 0.00515003 0)
(-0.00347643 0.00497141 0)
(-0.0198421 0.0047877 0)
(-0.0354929 0.00453711 0)
(-0.0503215 0.00427172 0)
(-0.0642639 0.00400757 0)
(-0.0772731 0.00374657 0)
(-0.0893309 0.00344009 0)
(-0.100466 0.00316249 0)
(-0.110659 0.00290311 0)
(-0.119935 0.00264137 0)
(-0.128329 0.00236887 0)
(-0.135853 0.00211347 0)
(-0.142537 0.00186418 0)
(-0.148425 0.00163628 0)
(-0.153551 0.00141484 0)
(-0.157976 0.00121312 0)
(-0.161747 0.00103117 0)
(-0.164898 0.000844197 0)
(-0.167462 0.000675394 0)
(-0.169434 0.000483465 0)
(-0.170773 0.000317937 0)
(-0.1715 0.000137118 0)
(-0.17167 -3.37822e-05 0)
(-0.171234 -0.000208914 0)
(-0.170291 -0.000352244 0)
(-0.168858 -0.000498638 0)
(-0.166958 -0.000633793 0)
(-0.1646 -0.000784598 0)
(-0.16169 -0.000978836 0)
(-0.1581 -0.00114323 0)
(-0.153832 -0.00138771 0)
(-0.148764 -0.00162686 0)
(-0.142845 -0.00187439 0)
(-0.136122 -0.00213661 0)
(-0.128533 -0.002364 0)
(-0.120177 -0.00261335 0)
(-0.110994 -0.00284462 0)
(-0.101025 -0.00307671 0)
(-0.0902732 -0.00332305 0)
(-0.0787184 -0.0035491 0)
(-0.0664029 -0.00379899 0)
(-0.0532804 -0.00400604 0)
(-0.0393991 -0.00423403 0)
(-0.0248166 -0.00445807 0)
(-0.00953784 -0.0046118 0)
(0.00630524 -0.00478856 0)
(0.0225954 -0.0048995 0)
(0.0392042 -0.00497724 0)
(0.0559886 -0.00500973 0)
(0.0727914 -0.00497768 0)
(0.0893991 -0.00488614 0)
(0.105607 -0.00473738 0)
(0.121182 -0.00452689 0)
(0.135938 -0.00423777 0)
(0.149619 -0.00388423 0)
(0.161973 -0.00344766 0)
(0.172744 -0.00295051 0)
(0.181732 -0.00239315 0)
(0.188731 -0.00175269 0)
(0.193516 -0.00108031 0)
(0.195942 -0.000366046 0)
(0.195963 0.000356498 0)
(0.193434 0.00112136 0)
(0.188384 0.00186045 0)
(0.180924 0.00256968 0)
(0.171153 0.0032243 0)
(0.159287 0.00381632 0)
(0.145585 0.00432114 0)
(0.130328 0.00474295 0)
(0.113836 0.00506011 0)
(0.0964165 0.00530734 0)
(0.0783183 0.005456 0)
(0.0598272 0.00553056 0)
(0.0411851 0.00556258 0)
(0.0225582 0.00552142 0)
(0.0041327 0.00542682 0)
(-0.0138739 0.00526604 0)
(-0.031259 0.00506263 0)
(-0.0478798 0.0048398 0)
(-0.0636133 0.00453854 0)
(-0.0783391 0.00423438 0)
(-0.091986 0.00390427 0)
(-0.104534 0.00357656 0)
(-0.115998 0.00326044 0)
(-0.126427 0.00295751 0)
(-0.135863 0.00266431 0)
(-0.144365 0.00239931 0)
(-0.151975 0.00213923 0)
(-0.158758 0.00189763 0)
(-0.16473 0.00166885 0)
(-0.16987 0.0014338 0)
(-0.174277 0.00119734 0)
(-0.177945 0.000984781 0)
(-0.180858 0.000775573 0)
(-0.183111 0.000567214 0)
(-0.184688 0.000389815 0)
(-0.185609 0.000185134 0)
(-0.185943 7.37307e-06 0)
(-0.185615 -0.000187812 0)
(-0.184626 -0.000378144 0)
(-0.182945 -0.000572918 0)
(-0.180689 -0.000788569 0)
(-0.17764 -0.00099391 0)
(-0.173865 -0.00124575 0)
(-0.169261 -0.00147728 0)
(-0.163715 -0.00177719 0)
(-0.157244 -0.00203729 0)
(-0.149761 -0.00235823 0)
(-0.141317 -0.00262844 0)
(-0.132008 -0.00286133 0)
(-0.121884 -0.00316481 0)
(-0.110902 -0.00338285 0)
(-0.0990598 -0.00358128 0)
(-0.0863389 -0.00386575 0)
(-0.0728781 -0.00406022 0)
(-0.0587306 -0.00434073 0)
(-0.0436807 -0.00456033 0)
(-0.0279265 -0.00475034 0)
(-0.0116119 -0.00500548 0)
(0.00511205 -0.00517386 0)
(0.0223689 -0.00531146 0)
(0.0403254 -0.00547871 0)
(0.0587282 -0.00553854 0)
(0.0772681 -0.00550893 0)
(0.0956973 -0.0054756 0)
(0.113759 -0.0052898 0)
(0.131135 -0.00506646 0)
(0.147568 -0.00472203 0)
(0.162713 -0.00426996 0)
(0.176256 -0.00376718 0)
(0.187955 -0.00317134 0)
(0.197563 -0.00249845 0)
(0.204914 -0.00180331 0)
(0.209883 -0.00105054 0)
(0.212325 -0.000315337 0)
(0.212197 0.000440341 0)
(0.209355 0.00123403 0)
(0.204008 0.00191397 0)
(0.196397 0.00258098 0)
(0.186665 0.00320857 0)
(0.17506 0.00367834 0)
(0.161859 0.00413916 0)
(0.14736 0.00443392 0)
(0.131852 0.00471917 0)
(0.115605 0.00493164 0)
(0.0988812 0.00498413 0)
(0.0819144 0.00504757 0)
(0.0649329 0.00505301 0)
(0.0480462 0.00494175 0)
(0.0314151 0.00486608 0)
(0.0152021 0.00467571 0)
(-0.000211201 0.00454378 0)
(-0.0149413 0.00438589 0)
(-0.0292813 0.00417692 0)
(-0.0430216 0.00400199 0)
(-0.0561251 0.00381775 0)
(-0.0685677 0.00359892 0)
(-0.0803416 0.0034085 0)
(-0.0914373 0.00321195 0)
(-0.101841 0.00299017 0)
(-0.111544 0.00278588 0)
(-0.120527 0.00255866 0)
(-0.128775 0.0023423 0)
(-0.136263 0.00211621 0)
(-0.142967 0.00187295 0)
(-0.148862 0.00163131 0)
(-0.153923 0.0013804 0)
(-0.158125 0.00111926 0)
(-0.161447 0.000855804 0)
(-0.163882 0.000582821 0)
(-0.165381 0.000310372 0)
(-0.165996 3.94712e-05 0)
(-0.165699 -0.000238473 0)
(-0.164448 -0.000515159 0)
(-0.162267 -0.000789224 0)
(-0.159163 -0.00106385 0)
(-0.155146 -0.00133199 0)
(-0.150224 -0.00160332 0)
(-0.14441 -0.0018637 0)
(-0.137714 -0.00211817 0)
(-0.130154 -0.00238337 0)
(-0.121734 -0.00262723 0)
(-0.11101 -0.00286395 0)
(0.190679 -0.00573529 0)
(0.199893 -0.00477906 0)
(0.208426 -0.0036728 0)
(0.214701 -0.00251365 0)
(0.218601 -0.00131427 0)
(0.220051 -9.46047e-05 0)
(0.219073 0.00109919 0)
(0.215589 0.00230419 0)
(0.209756 0.0034689 0)
(0.201687 0.00450594 0)
(0.191544 0.00551236 0)
(0.179515 0.00643857 0)
(0.165821 0.00712221 0)
(0.150716 0.00781493 0)
(0.134448 0.00822637 0)
(0.117286 0.00866566 0)
(0.0994692 0.00899129 0)
(0.0812434 0.00902627 0)
(0.0628375 0.00911862 0)
(0.0444164 0.00910544 0)
(0.0261163 0.00885864 0)
(0.00833053 0.00864813 0)
(-0.00869745 0.00840127 0)
(-0.0250965 0.00798383 0)
(-0.0408172 0.00762648 0)
(-0.0557248 0.0071557 0)
(-0.0697683 0.00674375 0)
(-0.0829115 0.00630925 0)
(-0.0951339 0.00582261 0)
(-0.106441 0.00538475 0)
(-0.116838 0.00494506 0)
(-0.12634 0.00449079 0)
(-0.134972 0.00407172 0)
(-0.142756 0.00364823 0)
(-0.149722 0.00325298 0)
(-0.155892 0.00286589 0)
(-0.161291 0.00248358 0)
(-0.16594 0.00211583 0)
(-0.169856 0.0017539 0)
(-0.173055 0.00139565 0)
(-0.175555 0.00104294 0)
(-0.177366 0.000692657 0)
(-0.178451 0.000357852 0)
(-0.178847 1.01976e-05 0)
(-0.178515 -0.000358006 0)
(-0.177476 -0.00071858 0)
(-0.175687 -0.00108672 0)
(-0.173142 -0.00147544 0)
(-0.169839 -0.00185151 0)
(-0.165734 -0.00224677 0)
(-0.16078 -0.00268064 0)
(-0.154987 -0.00308787 0)
(-0.148311 -0.00356874 0)
(-0.140682 -0.00398078 0)
(-0.132197 -0.00442145 0)
(-0.122768 -0.00494882 0)
(-0.112263 -0.00537478 0)
(-0.100928 -0.00581497 0)
(-0.0886635 -0.00635015 0)
(-0.0753786 -0.00672337 0)
(-0.061301 -0.00726863 0)
(-0.0463323 -0.00762989 0)
(-0.0305514 -0.00793292 0)
(-0.0141223 -0.00829067 0)
(0.00292058 -0.00854476 0)
(0.0203956 -0.0086842 0)
(0.0381717 -0.00884557 0)
(0.0560913 -0.00883759 0)
(0.0739467 -0.00881495 0)
(0.0916218 -0.0086877 0)
(0.108897 -0.00841073 0)
(0.125558 -0.00807474 0)
(0.141413 -0.00764781 0)
(0.156229 -0.00707691 0)
(0.169793 -0.00644564 0)
(0.181997 -0.00567431 0)
(0.192629 -0.00490263 0)
(0.201522 -0.00397114 0)
(0.208499 -0.00299066 0)
(0.213418 -0.0019758 0)
(0.216227 -0.000907258 0)
(0.216857 0.000167076 0)
(0.215328 0.00125848 0)
(0.211474 0.00231463 0)
(0.205543 0.00340173 0)
(0.197762 0.00432038 0)
(0.187965 0.00519621 0)
(0.176578 0.00599553 0)
(0.163731 0.00671539 0)
(0.149465 0.0073731 0)
(0.134054 0.00790808 0)
(0.117575 0.00836755 0)
(0.1003 0.00871297 0)
(0.0824262 0.00895824 0)
(0.0641733 0.00908474 0)
(0.0458047 0.00909093 0)
(0.0275191 0.00900233 0)
(0.00952452 0.00880909 0)
(-0.00796964 0.0085131 0)
(-0.0247943 0.00813735 0)
(-0.0408095 0.00771198 0)
(-0.0558978 0.0072412 0)
(-0.0699806 0.00671923 0)
(-0.0830092 0.00619683 0)
(-0.0949762 0.00567527 0)
(-0.105873 0.00515193 0)
(-0.115695 0.00462245 0)
(-0.124495 0.00412191 0)
(-0.132303 0.00362477 0)
(-0.139154 0.00316911 0)
(-0.14509 0.00273743 0)
(-0.150179 0.00231627 0)
(-0.154472 0.00193446 0)
(-0.15799 0.00157493 0)
(-0.160809 0.0012221 0)
(-0.162956 0.000884829 0)
(-0.16443 0.000588763 0)
(-0.165261 0.000278497 0)
(-0.165524 -1.66859e-05 0)
(-0.165205 -0.000331159 0)
(-0.164304 -0.000599157 0)
(-0.162785 -0.00087393 0)
(-0.160684 -0.00117028 0)
(-0.158011 -0.00146048 0)
(-0.154756 -0.00177008 0)
(-0.150902 -0.00207049 0)
(-0.146431 -0.0023499 0)
(-0.141369 -0.0026851 0)
(-0.13566 -0.00298226 0)
(-0.129322 -0.00331689 0)
(-0.122338 -0.00361552 0)
(-0.114678 -0.00398582 0)
(-0.106319 -0.00429332 0)
(-0.0972459 -0.00469927 0)
(-0.0874401 -0.00503547 0)
(-0.0768427 -0.00544709 0)
(-0.0654758 -0.00582964 0)
(-0.05333 -0.0062547 0)
(-0.040357 -0.00660173 0)
(-0.0265983 -0.00698797 0)
(-0.0121577 -0.00736274 0)
(0.00297788 -0.00761567 0)
(0.0186757 -0.00789514 0)
(0.0348249 -0.00809287 0)
(0.0513174 -0.00823593 0)
(0.0679902 -0.00827377 0)
(0.0846648 -0.00824106 0)
(0.101173 -0.00812597 0)
(0.117327 -0.00785705 0)
(0.132885 -0.00752121 0)
(0.147617 -0.00705979 0)
(0.161278 -0.00646458 0)
(0.17364 -0.00577063 0)
(0.184488 -0.00494426 0)
(0.19359 -0.00403725 0)
(0.200754 -0.00303966 0)
(0.205829 -0.00197644 0)
(0.20869 -0.000853025 0)
(0.209266 0.000278827 0)
(0.207488 0.00145705 0)
(0.203337 0.00260892 0)
(0.196952 0.00370968 0)
(0.188415 0.00472625 0)
(0.177873 0.0057014 0)
(0.165506 0.00652872 0)
(0.15155 0.00728843 0)
(0.136248 0.00786733 0)
(0.119857 0.00836048 0)
(0.10265 0.00866678 0)
(0.0849038 0.00888423 0)
(0.0668837 0.00897993 0)
(0.0488209 0.00893617 0)
(0.0309055 0.008812 0)
(0.0133312 0.00858943 0)
(-0.00370064 0.00828948 0)
(-0.0200794 0.00797309 0)
(-0.0357337 0.00756656 0)
(-0.0505536 0.00712575 0)
(-0.0645068 0.00668103 0)
(-0.0775344 0.00623249 0)
(-0.0895885 0.00573619 0)
(-0.100721 0.00528187 0)
(-0.110912 0.00483602 0)
(-0.120182 0.00440754 0)
(-0.128576 0.00394443 0)
(-0.136096 0.00352082 0)
(-0.142777 0.0031084 0)
(-0.148661 0.00272825 0)
(-0.15378 0.0023652 0)
(-0.1582 0.00202722 0)
(-0.161979 0.00171592 0)
(-0.16513 0.00140374 0)
(-0.167693 0.00112565 0)
(-0.169657 0.000814529 0)
(-0.171006 0.000537137 0)
(-0.171735 0.00021812 0)
(-0.171896 -5.53281e-05 0)
(-0.171458 -0.000351748 0)
(-0.170509 -0.000584535 0)
(-0.169077 -0.000822818 0)
(-0.167186 -0.00105264 0)
(-0.164843 -0.00131575 0)
(-0.161929 -0.00162397 0)
(-0.158345 -0.0019066 0)
(-0.154099 -0.00231849 0)
(-0.149028 -0.00269842 0)
(-0.143109 -0.00313032 0)
(-0.136373 -0.00354516 0)
(-0.128786 -0.00395464 0)
(-0.120427 -0.00436233 0)
(-0.111245 -0.00473355 0)
(-0.101281 -0.0051215 0)
(-0.0905326 -0.00553994 0)
(-0.0789705 -0.0059103 0)
(-0.0666586 -0.00632381 0)
(-0.0535338 -0.00668384 0)
(-0.0396547 -0.00706078 0)
(-0.0250583 -0.00742583 0)
(-0.00977066 -0.00770063 0)
(0.0060844 -0.00797637 0)
(0.0223859 -0.00817265 0)
(0.0390083 -0.00830062 0)
(0.0558156 -0.00834776 0)
(0.0726373 -0.00830663 0)
(0.0892728 -0.00814808 0)
(0.105497 -0.00789981 0)
(0.121096 -0.0075385 0)
(0.135865 -0.00707174 0)
(0.149563 -0.00647537 0)
(0.161928 -0.00575469 0)
(0.172718 -0.00493329 0)
(0.18174 -0.00398095 0)
(0.188748 -0.00293047 0)
(0.193545 -0.00179768 0)
(0.195986 -0.00060151 0)
(0.195996 0.000590457 0)
(0.19346 0.00186836 0)
(0.188425 0.00310369 0)
(0.180957 0.00428506 0)
(0.171168 0.00537997 0)
(0.159278 0.00636277 0)
(0.145545 0.00720814 0)
(0.130256 0.0079132 0)
(0.113739 0.00844169 0)
(0.096288 0.00884373 0)
(0.0781678 0.0090918 0)
(0.0596709 0.0092272 0)
(0.0410078 0.00928294 0)
(0.0223608 0.00919832 0)
(0.00392249 0.00905296 0)
(-0.0141076 0.00878445 0)
(-0.0315057 0.00843988 0)
(-0.0481368 0.00806038 0)
(-0.0638729 0.00756588 0)
(-0.0785902 0.00705528 0)
(-0.0922268 0.00651162 0)
(-0.104758 0.00596214 0)
(-0.116212 0.00542689 0)
(-0.126624 0.00492139 0)
(-0.13604 0.00444252 0)
(-0.144528 0.0039997 0)
(-0.152128 0.00356309 0)
(-0.158897 0.00316286 0)
(-0.164856 0.00278474 0)
(-0.169993 0.00238912 0)
(-0.174393 0.00199066 0)
(-0.178045 0.00164273 0)
(-0.180954 0.00129582 0)
(-0.183193 0.00094639 0)
(-0.18477 0.000650035 0)
(-0.185692 0.000303384 0)
(-0.186017 1.10322e-05 0)
(-0.185683 -0.000316693 0)
(-0.184688 -0.00062372 0)
(-0.183013 -0.000957335 0)
(-0.180751 -0.00131229 0)
(-0.177712 -0.00166126 0)
(-0.173936 -0.00207206 0)
(-0.169339 -0.00246502 0)
(-0.163794 -0.00295848 0)
(-0.157328 -0.00339658 0)
(-0.149844 -0.00393002 0)
(-0.141393 -0.0043782 0)
(-0.132084 -0.00477196 0)
(-0.121958 -0.00527833 0)
(-0.110968 -0.00563737 0)
(-0.0991283 -0.00597006 0)
(-0.0864056 -0.00644214 0)
(-0.0729442 -0.00676971 0)
(-0.0587932 -0.00722948 0)
(-0.0437435 -0.00760384 0)
(-0.0279858 -0.00791798 0)
(-0.0116661 -0.00834297 0)
(0.00506435 -0.00862757 0)
(0.0223285 -0.0088569 0)
(0.0402994 -0.00912828 0)
(0.0587188 -0.00924629 0)
(0.0772767 -0.00918142 0)
(0.0957281 -0.00911716 0)
(0.113815 -0.00881373 0)
(0.131215 -0.00844722 0)
(0.14767 -0.00787572 0)
(0.16284 -0.00711981 0)
(0.176407 -0.00627938 0)
(0.188123 -0.00528897 0)
(0.197746 -0.00416685 0)
(0.205106 -0.0030106 0)
(0.210082 -0.00175559 0)
(0.212539 -0.000518251 0)
(0.212398 0.000729984 0)
(0.209536 0.00205812 0)
(0.204187 0.0031914 0)
(0.196562 0.00430441 0)
(0.186813 0.0053511 0)
(0.175185 0.00613421 0)
(0.161962 0.00690251 0)
(0.147439 0.00739365 0)
(0.13191 0.00786893 0)
(0.115642 0.00822264 0)
(0.0988993 0.00830988 0)
(0.0819162 0.00841493 0)
(0.0649202 0.00842387 0)
(0.048024 0.00823763 0)
(0.0313811 0.00811149 0)
(0.0151616 0.00779468 0)
(-0.000254622 0.00757269 0)
(-0.0149889 0.00731022 0)
(-0.0293303 0.00696189 0)
(-0.0430727 0.00667022 0)
(-0.0561777 0.00636311 0)
(-0.0686205 0.00599835 0)
(-0.0803954 0.00568097 0)
(-0.0914922 0.00535341 0)
(-0.101897 0.00498381 0)
(-0.1116 0.00464337 0)
(-0.120585 0.00426472 0)
(-0.128834 0.00390416 0)
(-0.136325 0.00352735 0)
(-0.143031 0.0031219 0)
(-0.148928 0.00271915 0)
(-0.153991 0.00230092 0)
(-0.158194 0.00186558 0)
(-0.161517 0.00142636 0)
(-0.163951 0.000971994 0)
(-0.165456 0.00051734 0)
(-0.16607 6.58251e-05 0)
(-0.165772 -0.000397563 0)
(-0.164521 -0.000858781 0)
(-0.162339 -0.00131555 0)
(-0.159235 -0.00177329 0)
(-0.155216 -0.00222018 0)
(-0.150295 -0.0026724 0)
(-0.144479 -0.00310636 0)
(-0.137781 -0.00353047 0)
(-0.130221 -0.00397251 0)
(-0.1218 -0.00437896 0)
(-0.111074 -0.00477354 0)
(0.190907 -0.00803509 0)
(0.200144 -0.00669555 0)
(0.208693 -0.00514569 0)
(0.214982 -0.0035219 0)
(0.218889 -0.00184214 0)
(0.220351 -0.00013617 0)
(0.219355 0.00154711 0)
(0.215862 0.00323071 0)
(0.210022 0.00486047 0)
(0.20193 0.00631318 0)
(0.191766 0.007723 0)
(0.179713 0.00902051 0)
(0.165987 0.00997786 0)
(0.150854 0.010948 0)
(0.134553 0.0115239 0)
(0.117362 0.0121388 0)
(0.0995165 0.0125944 0)
(0.0812631 0.0126428 0)
(0.0628322 0.0127715 0)
(0.0443882 0.0127525 0)
(0.0260665 0.0124065 0)
(0.00826447 0.0121105 0)
(-0.0087749 0.0117648 0)
(-0.025185 0.0111796 0)
(-0.0409151 0.0106788 0)
(-0.0558272 0.0100191 0)
(-0.0698753 0.00944195 0)
(-0.0830208 0.00883319 0)
(-0.0952423 0.00815154 0)
(-0.106549 0.00753827 0)
(-0.116945 0.00692258 0)
(-0.126443 0.00628645 0)
(-0.135072 0.00569973 0)
(-0.142853 0.00510685 0)
(-0.149816 0.00455355 0)
(-0.155984 0.00401173 0)
(-0.161379 0.00347668 0)
(-0.166026 0.00296209 0)
(-0.16994 0.00245597 0)
(-0.173137 0.00195515 0)
(-0.175636 0.00146091 0)
(-0.177446 0.000971487 0)
(-0.178542 0.000498953 0)
(-0.178935 9.37733e-06 0)
(-0.178602 -0.000501556 0)
(-0.177563 -0.00100606 0)
(-0.175776 -0.00152084 0)
(-0.173234 -0.00206667 0)
(-0.169933 -0.00259104 0)
(-0.16583 -0.00314437 0)
(-0.160879 -0.00375187 0)
(-0.15509 -0.00432254 0)
(-0.148417 -0.00499546 0)
(-0.14079 -0.00557234 0)
(-0.132308 -0.00619011 0)
(-0.122879 -0.00692835 0)
(-0.112376 -0.00752446 0)
(-0.10104 -0.00814215 0)
(-0.0887695 -0.00889092 0)
(-0.0754858 -0.00941958 0)
(-0.0614036 -0.0101736 0)
(-0.0464198 -0.0106845 0)
(-0.0306301 -0.0111077 0)
(-0.0141906 -0.011611 0)
(0.00286599 -0.0119694 0)
(0.0203578 -0.0121628 0)
(0.0381528 -0.0123882 0)
(0.0560941 -0.0123757 0)
(0.0739662 -0.0123497 0)
(0.0916654 -0.0121743 0)
(0.108964 -0.0117764 0)
(0.125646 -0.011314 0)
(0.141526 -0.0107195 0)
(0.156366 -0.0099157 0)
(0.169955 -0.00903359 0)