/*--------------------------------*- C++ -*----------------------------------*\
| =========                 |                                                 |
| \\      /  F ield         | OpenFOAM: The Open Source CFD Toolbox           |
|  \\    /   O peration     | Version:  3.0.1                                 |
|   \\  /    A nd           | Web:      www.OpenFOAM.org                      |
|    \\/     M anipulation  |                                                 |
\*---------------------------------------------------------------------------*/
FoamFile
{
    version     2.0;
    format      ascii;
    class       volScalarField;
    location    "49.8";
    object      p;
}
// * * * * * * * * * * * * * * * * * * * * * * * * * * * * * * * * * * * * * //

dimensions      [1 -1 -2 0 0 0 0];

internalField   nonuniform List<scalar> 
21420
(
3543.06
3537.18
3532.71
3529.64
3528
3527.76
3528.9
3531.47
3535.45
3540.85
3547.72
3556.09
3566
3577.5
3590.65
3605.5
3622.1
3640.46
3660.61
3682.56
3706.3
3731.78
3758.96
3787.74
3817.95
3849.33
3880.78
3913.98
3947.85
3981.92
4015.79
4049.09
4081.4
4112.29
4141.33
4168.1
4192.25
4213.42
4231.29
4245.61
4256.15
4262.75
4265.31
4263.74
4258.1
4248.46
4234.93
4217.75
4197.15
4173.43
4146.94
4118.06
4087.19
4054.72
4021.08
3986.7
3951.97
3917.26
3882.93
3849.45
3817.59
3786.51
3756.7
3728.37
3701.65
3676.66
3653.47
3632.09
3612.56
3594.86
3578.98
3564.89
3552.56
3541.97
3533.09
3525.9
3520.37
3516.45
3514.17
3513.55
3514.38
3516.74
3520.65
3526.1
3533.07
3541.55
3551.54
3563
3575.93
3590.34
3606.23
3623.59
3642.45
3662.8
3684.65
3707.99
3732.79
3759
3786.55
3815.32
3845.19
3875.95
3907.39
3939.26
3971.28
4003.14
4034.52
4065.05
4094.38
4122.14
4147.96
4171.47
4192.32
4210.19
4224.76
4235.77
4243.01
4246.28
4245.49
4240.61
4231.7
4218.77
4202.03
4181.7
4158.07
4131.48
4102.34
4071.06
4038.1
4003.92
3968.98
3933.75
3898.66
3864.12
3830.49
3798.1
3767.2
3738.02
3710.73
3685.44
3662.21
3641.07
3622.02
3605.01
3589.98
3576.84
3565.51
3555.89
3547.88
3541.38
3536.32
3532.62
3530.19
3529
3529.04
3530.22
3532.54
3535.99
3540.57
3546.29
3553.17
3561.24
3570.54
3581.11
3593
3606.26
3620.95
3637.12
3654.81
3674.06
3694.89
3717.3
3741.27
3766.77
3793.71
3821.98
3851.44
3882.24
3913.52
3945.34
3977.42
4009.4
4040.92
4071.58
4100.96
4128.63
4154.13
4177.04
4196.96
4213.53
4226.45
4235.48
4240.43
4241.13
4237.69
4230.1
4218.43
4202.91
4183.78
4161.35
4135.98
4108.08
4078.1
4046.49
4013.73
3980.3
3946.64
3913.17
3880.3
3848.31
3817.49
3788.06
3760.22
3734.08
3709.73
3687.21
3666.54
3647.71
3630.68
3615.42
3601.86
3589.93
3579.58
3570.73
3563.31
3557.27
3552.55
3549.09
3546.84
3545.78
3545.88
3547.08
3549.38
3552.78
3557.26
3562.85
3569.57
3577.46
3586.57
3596.93
3608.61
3621.65
3636.13
3652.07
3669.52
3688.52
3709.08
3731.2
3754.85
3779.99
3806.55
3834.39
3863.4
3893.38
3924.1
3955.3
3986.69
4017.93
4048.67
4078.52
4107.06
4133.88
4158.55
4180.66
4199.81
4215.64
4227.86
4236.19
4240.44
4240.56
4236.46
4228.26
4216.05
4200.05
4180.56
4157.94
4132.58
4104.92
4075.4
4044.5
4012.68
3980.38
3948.04
3916.05
3884.89
3854.88
3825.85
3798
3771.55
3746.65
3723.41
3701.87
3682.07
3664.01
3647.67
3632.99
3619.92
3608.4
3598.34
3589.65
3582.23
3576.02
3570.91
3566.84
3563.74
3561.59
3560.35
3560.06
3560.76
3562.53
3565.46
3569.65
3575.24
3582.35
3591.1
3601.6
3613.95
3628.2
3644.41
3662.59
3682.72
3704.76
3728.64
3754.22
3781.38
3809.91
3839.61
3869.73
3900.86
3932.33
3963.83
3994.98
4025.39
4054.74
4082.65
4108.8
4132.86
4154.53
4173.57
4189.77
4202.95
4212.99
4219.78
4223.2
4222.93
4219.32
4212.5
4202.58
4189.72
4174.09
4155.91
4135.43
4112.89
4088.58
4062.86
4036.1
4008.81
3444.9
3439.02
3434.56
3431.49
3429.84
3429.61
3430.75
3433.31
3437.29
3442.7
3449.56
3457.93
3467.83
3479.33
3492.48
3507.32
3523.92
3542.28
3562.43
3584.38
3608.11
3633.6
3660.78
3689.56
3719.78
3751.18
3782.61
3815.83
3849.71
3883.8
3917.68
3951
3983.33
4014.23
4043.3
4070.09
4094.25
4115.44
4133.32
4147.65
4158.2
4164.81
4167.38
4165.8
4160.15
4150.51
4136.96
4119.77
4099.16
4075.42
4048.92
4020.02
3989.13
3956.64
3922.99
3888.58
3853.84
3819.12
3784.78
3751.29
3719.42
3688.34
3658.52
3630.19
3603.47
3578.48
3555.28
3533.91
3514.38
3496.68
3480.8
3466.71
3454.39
3443.8
3434.93
3427.74
3422.2
3418.28
3416.01
3415.38
3416.22
3418.57
3422.49
3427.94
3434.91
3443.39
3453.37
3464.84
3477.77
3492.18
3508.06
3525.43
3544.28
3564.63
3586.48
3609.82
3634.62
3660.83
3688.38
3717.15
3747.03
3777.8
3809.25
3841.13
3873.16
3905.04
3936.43
3966.97
3996.32
4024.1
4049.93
4073.46
4094.33
4112.21
4126.79
4137.82
4145.06
4148.34
4147.55
4142.67
4133.75
4120.81
4104.06
4083.71
4060.06
4033.46
4004.3
3973
3940.02
3905.81
3870.86
3835.61
3800.51
3765.95
3732.32
3699.91
3669.01
3639.83
3612.53
3587.24
3564.01
3542.88
3523.83
3506.82
3491.8
3478.67
3467.34
3457.72
3449.71
3443.22
3438.16
3434.46
3432.04
3430.85
3430.89
3432.07
3434.39
3437.84
3442.42
3448.14
3455.02
3463.09
3472.39
3482.95
3494.84
3508.1
3522.79
3538.95
3556.64
3575.89
3596.72
3619.12
3643.1
3668.59
3695.54
3723.81
3753.27
3784.09
3815.37
3847.21
3879.3
3911.29
3942.83
3973.51
4002.91
4030.59
4056.11
4079.04
4098.98
4115.57
4128.5
4137.53
4142.5
4143.2
4139.75
4132.15
4120.48
4104.94
4085.79
4063.35
4037.96
4010.04
3980.04
3948.41
3915.63
3882.18
3848.5
3815.02
3782.14
3750.14
3719.31
3689.88
3662.03
3635.89
3611.54
3589.03
3568.36
3549.53
3532.51
3517.24
3503.69
3491.77
3481.41
3472.57
3465.15
3459.12
3454.4
3450.94
3448.69
3447.63
3447.74
3448.94
3451.24
3454.63
3459.11
3464.7
3471.42
3479.31
3488.41
3498.77
3510.45
3523.49
3537.96
3553.9
3571.35
3590.35
3610.91
3633.02
3656.68
3681.82
3708.38
3736.23
3765.24
3795.22
3825.96
3857.17
3888.57
3919.82
3950.58
3980.45
4009.01
4035.85
4060.54
4082.66
4101.83
4117.68
4129.9
4138.25
4142.51
4142.62
4138.52
4130.32
4118.09
4102.08
4082.58
4059.93
4034.56
4006.88
3977.34
3946.42
3914.58
3882.27
3849.91
3817.91
3786.74
3756.72
3727.69
3699.83
3673.37
3648.48
3625.23
3603.7
3583.9
3565.84
3549.5
3534.82
3521.76
3510.24
3500.18
3491.49
3484.09
3477.87
3472.77
3468.7
3465.61
3463.45
3462.21
3461.92
3462.62
3464.38
3467.31
3471.5
3477.08
3484.19
3492.93
3503.43
3515.77
3530.02
3546.23
3564.41
3584.54
3606.58
3630.46
3656.04
3683.2
3711.75
3741.45
3771.59
3802.72
3834.2
3865.72
3896.88
3927.31
3956.67
3984.6
4010.77
4034.84
4056.52
4075.58
4091.79
4104.97
4115.01
4121.81
4125.25
4124.96
4121.34
4114.52
4104.59
4091.72
4076.08
4057.89
4037.4
4014.84
3990.52
3964.79
3938.02
3910.71
3346.68
3340.8
3336.35
3333.28
3331.63
3331.4
3332.53
3335.1
3339.08
3344.48
3351.34
3359.7
3369.6
3381.1
3394.24
3409.08
3425.67
3444.03
3464.17
3486.12
3509.85
3535.33
3562.52
3591.31
3621.54
3652.96
3684.38
3717.63
3751.54
3785.66
3819.57
3852.92
3885.28
3916.23
3945.33
3972.16
3996.36
4017.57
4035.49
4049.84
4060.4
4067.02
4069.61
4068.01
4062.35
4052.7
4039.14
4021.92
4001.28
3977.51
3950.97
3922.03
3891.1
3858.58
3824.89
3790.45
3755.68
3720.94
3686.57
3653.07
3621.18
3590.09
3560.26
3531.92
3505.2
3480.21
3457.02
3435.65
3416.12
3398.43
3382.55
3368.47
3356.14
3345.56
3336.69
3329.5
3323.97
3320.05
3317.78
3317.16
3317.99
3320.35
3324.27
3329.72
3336.69
3345.17
3355.15
3366.61
3379.54
3393.95
3409.83
3427.19
3446.04
3466.39
3488.24
3511.58
3536.38
3562.6
3590.15
3618.93
3648.81
3679.6
3711.06
3742.96
3775.02
3806.92
3838.34
3868.92
3898.3
3926.11
3951.98
3975.54
3996.44
4014.35
4028.96
4040.01
4047.27
4050.57
4049.76
4044.88
4035.95
4023
4006.22
3985.84
3962.16
3935.52
3906.32
3874.98
3841.95
3807.71
3772.72
3737.44
3702.31
3667.72
3634.07
3601.65
3570.73
3541.54
3514.24
3488.95
3465.72
3444.6
3425.55
3408.56
3393.54
3380.42
3369.1
3359.49
3351.49
3345.01
3339.95
3336.26
3333.84
3332.66
3332.7
3333.88
3336.2
3339.65
3344.23
3349.95
3356.83
3364.89
3374.18
3384.74
3396.62
3409.88
3424.56
3440.72
3458.41
3477.65
3498.47
3520.88
3544.85
3570.35
3597.3
3625.58
3655.05
3685.89
3717.18
3749.04
3781.16
3813.18
3844.75
3875.47
3904.9
3932.62
3958.18
3981.15
4001.12
4017.74
4030.7
4039.75
4044.72
4045.44
4041.97
4034.36
4022.67
4007.1
3987.93
3965.44
3940.02
3912.06
3882.01
3850.34
3817.53
3784.04
3750.33
3716.83
3683.92
3651.9
3621.06
3591.62
3563.77
3537.62
3513.27
3490.76
3470.09
3451.27
3434.25
3419
3405.45
3393.53
3383.19
3374.35
3366.94
3360.91
3356.19
3352.74
3350.5
3349.44
3349.55
3350.75
3353.05
3356.44
3360.92
3366.51
3373.23
3381.11
3390.21
3400.56
3412.23
3425.27
3439.73
3455.67
3473.12
3492.11
3512.66
3534.78
3558.44
3583.58
3610.14
3638
3667.02
3697.02
3727.78
3759.01
3790.43
3821.72
3852.51
3882.41
3911.01
3937.89
3962.61
3984.77
4003.97
4019.85
4032.1
4040.46
4044.75
4044.84
4040.74
4032.52
4020.28
4004.24
3984.7
3962.02
3936.61
3908.89
3879.31
3848.35
3816.48
3784.13
3751.74
3719.72
3688.54
3658.5
3629.46
3601.59
3575.12
3550.22
3526.97
3505.44
3485.65
3467.59
3451.25
3436.59
3423.53
3412.02
3401.97
3393.29
3385.89
3379.69
3374.59
3370.52
3367.43
3365.28
3364.04
3363.75
3364.44
3366.19
3369.11
3373.29
3378.86
3385.96
3394.69
3405.18
3417.51
3431.75
3447.96
3466.14
3486.27
3508.32
3532.19
3557.79
3584.96
3613.51
3643.23
3673.4
3704.55
3736.06
3767.6
3798.79
3829.25
3858.65
3886.61
3912.8
3936.9
3958.61
3977.68
3993.91
4007.12
4017.17
4023.97
4027.44
4027.11
4023.49
4016.65
4006.71
3993.82
3978.16
3959.95
3939.43
3916.85
3892.51
3866.75
3839.95
3812.62
3248.4
3242.53
3238.08
3235.02
3233.37
3233.13
3234.27
3236.83
3240.81
3246.21
3253.06
3261.42
3271.31
3282.8
3295.93
3310.76
3327.34
3345.69
3365.83
3387.77
3411.5
3436.99
3464.18
3492.98
3523.23
3554.69
3586.08
3619.38
3653.34
3687.49
3721.45
3754.86
3787.27
3818.27
3847.43
3874.31
3898.56
3919.83
3937.78
3952.17
3962.76
3969.4
3971.99
3970.4
3964.72
3955.04
3941.45
3924.19
3903.51
3879.68
3853.09
3824.1
3793.11
3760.54
3726.79
3692.31
3657.49
3622.71
3588.31
3554.78
3522.86
3491.76
3461.93
3433.57
3406.85
3381.86
3358.67
3337.3
3317.78
3300.09
3284.22
3270.15
3257.83
3247.25
3238.39
3231.21
3225.67
3221.76
3219.5
3218.87
3219.7
3222.07
3225.98
3231.43
3238.4
3246.89
3256.87
3268.33
3281.26
3295.66
3311.54
3328.9
3347.74
3368.09
3389.93
3413.27
3438.07
3464.29
3491.85
3520.64
3550.54
3581.35
3612.84
3644.77
3676.86
3708.81
3740.27
3770.89
3800.32
3828.18
3854.1
3877.71
3898.66
3916.61
3931.26
3942.34
3949.63
3952.96
3952.14
3947.25
3938.3
3925.32
3908.51
3888.09
3864.35
3837.66
3808.39
3776.99
3743.91
3709.61
3674.57
3639.24
3604.06
3569.43
3535.75
3503.3
3472.36
3443.16
3415.86
3390.56
3367.34
3346.22
3327.19
3310.2
3295.2
3282.09
3270.79
3261.19
3253.21
3246.73
3241.69
3238
3235.59
3234.42
3234.46
3235.64
3237.96
3241.41
3245.99
3251.71
3258.58
3266.64
3275.92
3286.48
3298.35
3311.59
3326.27
3342.42
3360.1
3379.34
3400.15
3422.56
3446.53
3472.03
3498.99
3527.29
3556.77
3587.63
3618.95
3650.84
3682.99
3715.06
3746.68
3777.45
3806.94
3834.72
3860.34
3883.36
3903.39
3920.05
3933.05
3942.12
3947.1
3947.84
3944.35
3936.73
3925
3909.4
3890.18
3867.64
3842.16
3814.14
3784.03
3752.3
3719.42
3685.88
3652.13
3618.58
3585.64
3553.59
3522.73
3493.28
3465.42
3439.27
3414.92
3392.41
3371.75
3352.93
3335.93
3320.68
3307.14
3295.24
3284.9
3276.07
3268.67
3262.65
3257.94
3254.5
3252.26
3251.21
3251.31
3252.52
3254.82
3258.21
3262.69
3268.27
3274.99
3282.86
3291.95
3302.3
3313.96
3326.99
3341.44
3357.37
3374.81
3393.8
3414.35
3436.47
3460.12
3485.27
3511.84
3539.72
3568.75
3598.77
3629.56
3660.82
3692.28
3723.61
3754.45
3784.4
3813.06
3839.99
3864.78
3886.99
3906.24
3922.17
3934.45
3942.84
3947.14
3947.23
3943.13
3934.88
3922.61
3906.53
3886.94
3864.2
3838.73
3810.96
3781.32
3750.31
3718.38
3685.98
3653.55
3621.5
3590.29
3560.23
3531.16
3503.28
3476.8
3451.89
3428.64
3407.11
3387.32
3369.28
3352.94
3338.29
3325.24
3313.74
3303.7
3295.04
3287.65
3281.45
3276.36
3272.31
3269.22
3267.07
3265.83
3265.53
3266.21
3267.95
3270.86
3275.02
3280.58
3287.66
3296.38
3306.86
3319.18
3333.41
3349.61
3367.78
3387.91
3409.97
3433.85
3459.46
3486.64
3515.21
3544.95
3575.16
3606.35
3637.89
3669.47
3700.71
3731.21
3760.65
3788.66
3814.9
3839.05
3860.79
3879.9
3896.15
3909.38
3919.44
3926.26
3929.76
3929.4
3925.76
3918.9
3908.93
3896.02
3880.33
3862.09
3841.53
3818.92
3794.53
3768.74
3741.9
3714.54
3150.06
3144.2
3139.76
3136.7
3135.06
3134.81
3135.95
3138.51
3142.48
3147.87
3154.72
3163.07
3172.95
3184.43
3197.54
3212.37
3228.94
3247.28
3267.41
3289.35
3313.08
3338.56
3365.76
3394.58
3424.85
3456.37
3487.71
3521.08
3555.09
3589.31
3623.33
3656.8
3689.29
3720.36
3749.59
3776.55
3800.87
3822.2
3840.21
3854.64
3865.27
3871.93
3874.52
3872.94
3867.24
3857.53
3843.9
3826.59
3805.85
3781.96
3755.29
3726.22
3695.16
3662.52
3628.7
3594.15
3559.27
3524.44
3490
3456.43
3424.48
3393.36
3363.51
3335.15
3308.42
3283.43
3260.24
3238.88
3219.36
3201.68
3185.82
3171.75
3159.45
3148.88
3140.02
3132.84
3127.31
3123.41
3121.15
3120.52
3121.35
3123.72
3127.64
3133.09
3140.06
3148.54
3158.52
3169.98
3182.91
3197.31
3213.18
3230.53
3249.37
3269.71
3291.55
3314.89
3339.69
3365.91
3393.48
3422.29
3452.22
3483.05
3514.58
3546.55
3578.69
3610.69
3642.2
3672.89
3702.39
3730.31
3756.3
3779.97
3800.99
3819
3833.7
3844.82
3852.14
3855.49
3854.69
3849.79
3840.81
3827.8
3810.93
3790.45
3766.65
3739.87
3710.53
3679.05
3645.88
3611.51
3576.39
3540.99
3505.75
3471.08
3437.35
3404.87
3373.91
3344.69
3317.38
3292.09
3268.87
3247.76
3228.74
3211.77
3196.78
3183.69
3172.41
3162.83
3154.86
3148.4
3143.37
3139.69
3137.29
3136.13
3136.17
3137.36
3139.68
3143.13
3147.71
3153.42
3160.29
3168.34
3177.61
3188.16
3200.02
3213.25
3227.92
3244.06
3261.73
3280.95
3301.76
3324.16
3348.14
3373.65
3400.61
3428.93
3458.44
3489.31
3520.67
3552.61
3584.81
3616.94
3648.62
3679.46
3709.03
3736.89
3762.58
3785.68
3805.78
3822.5
3835.55
3844.66
3849.66
3850.41
3846.9
3839.25
3827.49
3811.83
3792.54
3769.94
3744.37
3716.27
3686.08
3654.27
3621.32
3587.71
3553.89
3520.28
3487.3
3455.22
3424.33
3394.86
3366.98
3340.83
3316.48
3293.98
3273.33
3254.52
3237.53
3222.3
3208.77
3196.88
3186.56
3177.74
3170.35
3164.34
3159.64
3156.2
3153.97
3152.93
3153.03
3154.24
3156.55
3159.93
3164.41
3169.99
3176.7
3184.56
3193.64
3203.98
3215.63
3228.65
3243.09
3259.01
3276.44
3295.42
3315.97
3338.08
3361.74
3386.9
3413.47
3441.36
3470.43
3500.48
3531.3
3562.6
3594.11
3625.5
3656.4
3686.43
3715.16
3742.17
3767.03
3789.32
3808.64
3824.62
3836.96
3845.37
3849.7
3849.79
3845.67
3837.4
3825.08
3808.95
3789.29
3766.48
3740.94
3713.08
3683.37
3652.28
3620.28
3587.82
3555.32
3523.22
3491.99
3461.9
3432.8
3404.89
3378.4
3353.49
3330.24
3308.71
3288.92
3270.88
3254.56
3239.92
3226.89
3215.41
3205.38
3196.73
3189.36
3183.18
3178.1
3174.05
3170.98
3168.82
3167.58
3167.28
3167.94
3169.67
3172.56
3176.7
3182.24
3189.3
3198
3208.46
3220.76
3234.98
3251.18
3269.35
3289.48
3311.53
3335.43
3361.05
3388.25
3416.84
3446.61
3476.89
3508.11
3539.7
3571.34
3602.63
3633.19
3662.7
3690.77
3717.07
3741.27
3763.06
3782.21
3798.51
3811.76
3821.85
3828.68
3832.21
3831.82
3828.15
3821.27
3811.27
3798.32
3782.59
3764.3
3743.7
3721.04
3696.6
3670.76
3643.87
3616.46
3051.67
3045.82
3041.38
3038.33
3036.69
3036.44
3037.57
3040.14
3044.1
3049.48
3056.33
3064.66
3074.53
3085.99
3099.09
3113.9
3130.46
3148.79
3168.91
3190.84
3214.57
3240.06
3267.26
3296.09
3326.4
3357.98
3389.28
3422.72
3456.81
3491.1
3525.2
3558.76
3591.33
3622.5
3651.83
3678.87
3703.28
3724.69
3742.77
3757.26
3767.93
3774.62
3777.22
3775.65
3769.92
3760.17
3746.49
3729.12
3708.3
3684.32
3657.57
3628.41
3597.25
3564.51
3530.6
3495.97
3461.02
3426.12
3391.64
3358.02
3326.03
3294.88
3265.01
3236.63
3209.9
3184.91
3161.72
3140.37
3120.86
3103.19
3087.34
3073.29
3060.99
3050.43
3041.58
3034.41
3028.89
3024.99
3022.74
3022.11
3022.94
3025.31
3029.23
3034.68
3041.66
3050.14
3060.12
3071.57
3084.49
3098.89
3114.76
3132.1
3150.94
3171.27
3193.1
3216.44
3241.24
3267.47
3295.05
3323.88
3353.84
3384.7
3416.27
3448.3
3480.5
3512.56
3544.15
3574.91
3604.49
3632.5
3658.57
3682.33
3703.42
3721.51
3736.28
3747.45
3754.81
3758.18
3757.4
3752.48
3743.47
3730.41
3713.49
3692.93
3669.04
3642.17
3612.73
3581.14
3547.88
3513.41
3478.2
3442.72
3407.4
3372.67
3338.88
3306.36
3275.37
3246.13
3218.81
3193.51
3170.3
3149.2
3130.2
3113.25
3098.28
3085.21
3073.95
3064.4
3056.45
3050.01
3045
3041.34
3038.94
3037.79
3037.84
3039.03
3041.36
3044.81
3049.38
3055.09
3061.95
3069.99
3079.25
3089.78
3101.63
3114.85
3129.5
3145.63
3163.28
3182.5
3203.3
3225.7
3249.67
3275.19
3302.17
3330.51
3360.06
3390.92
3422.34
3454.34
3486.61
3518.81
3550.58
3581.5
3611.17
3639.12
3664.92
3688.11
3708.29
3725.09
3738.2
3747.35
3752.37
3753.14
3749.62
3741.93
3730.12
3714.4
3695.03
3672.33
3646.67
3618.47
3588.17
3556.26
3523.21
3489.51
3455.61
3421.94
3388.91
3356.78
3325.85
3296.36
3268.47
3242.31
3217.96
3195.46
3174.82
3156.03
3139.05
3123.84
3110.33
3098.45
3088.15
3079.35
3071.97
3065.97
3061.29
3057.86
3055.64
3054.6
3054.71
3055.92
3058.23
3061.61
3066.09
3071.66
3078.36
3086.22
3095.28
3105.61
3117.24
3130.25
3144.68
3160.58
3178
3196.97
3217.51
3239.62
3263.28
3288.45
3315.04
3342.95
3372.04
3402.13
3432.99
3464.36
3495.93
3527.39
3558.37
3588.48
3617.31
3644.41
3669.37
3691.75
3711.15
3727.21
3739.61
3748.07
3752.41
3752.52
3748.39
3740.07
3727.7
3711.5
3691.76
3668.86
3643.21
3615.26
3585.45
3554.27
3522.18
3489.64
3457.07
3424.91
3393.64
3363.51
3334.37
3306.44
3279.93
3255.01
3231.75
3210.22
3190.45
3172.42
3156.11
3141.48
3128.47
3117.01
3107
3098.37
3091.02
3084.85
3079.8
3075.76
3072.69
3070.54
3069.3
3068.98
3069.63
3071.34
3074.21
3078.33
3083.84
3090.87
3099.55
3109.98
3122.27
3136.48
3152.66
3170.82
3190.95
3213.02
3236.92
3262.56
3289.79
3318.41
3348.21
3378.56
3409.83
3441.48
3473.19
3504.56
3535.2
3564.78
3592.93
3619.3
3643.57
3665.43
3684.64
3700.98
3714.27
3724.38
3731.23
3734.77
3734.37
3730.67
3723.75
3713.72
3700.72
3684.94
3666.6
3645.94
3623.21
3598.72
3572.81
3545.86
3518.39
2953.21
2947.37
2942.94
2939.9
2938.26
2938.01
2939.15
2941.71
2945.66
2951.04
2957.87
2966.19
2976.04
2987.49
3000.57
3015.37
3031.91
3050.22
3070.33
3092.25
3115.98
3141.46
3168.68
3197.53
3227.88
3259.54
3290.78
3324.32
3358.5
3392.87
3427.06
3460.72
3493.41
3524.69
3554.13
3581.28
3605.79
3627.3
3645.46
3660.02
3670.74
3677.46
3680.08
3678.5
3672.76
3662.96
3649.21
3631.77
3610.85
3586.78
3559.92
3530.64
3499.37
3466.52
3432.51
3397.78
3362.74
3327.76
3293.22
3259.54
3227.51
3196.32
3166.43
3138.04
3111.29
3086.3
3063.12
3041.77
3022.28
3004.62
2988.79
2974.75
2962.46
2951.91
2943.07
2935.91
2930.39
2926.5
2924.26
2923.63
2924.47
2926.84
2930.76
2936.22
2943.19
2951.67
2961.65
2973.1
2986.02
3000.41
3016.27
3033.61
3052.43
3072.76
3094.59
3117.92
3142.72
3168.96
3196.56
3225.41
3255.39
3286.31
3317.93
3350.02
3382.28
3414.42
3446.1
3476.96
3506.63
3534.74
3560.92
3584.78
3605.96
3624.14
3638.99
3650.23
3657.64
3661.03
3660.26
3655.34
3646.29
3633.18
3616.18
3595.53
3571.53
3544.55
3514.99
3483.28
3449.89
3415.3
3379.98
3344.4
3309
3274.19
3240.34
3207.76
3176.74
3147.48
3120.14
3094.84
3071.64
3050.55
3031.57
3014.64
2999.7
2986.67
2975.43
2965.91
2957.98
2951.57
2946.58
2942.93
2940.55
2939.41
2939.46
2940.66
2942.99
2946.43
2951
2956.71
2963.56
2971.59
2980.84
2991.35
3003.19
3016.39
3031.02
3047.13
3064.77
3083.98
3104.77
3127.16
3151.13
3176.66
3203.65
3232.02
3261.62
3292.48
3323.98
3356.04
3388.39
3420.68
3452.54
3483.57
3513.35
3541.42
3567.33
3590.64
3610.93
3627.82
3641
3650.2
3655.26
3656.03
3652.5
3644.77
3632.9
3617.1
3597.64
3574.83
3549.05
3520.73
3490.31
3458.27
3425.11
3391.3
3357.3
3323.54
3290.45
3258.26
3227.3
3197.77
3169.87
3143.7
3119.36
3096.86
3076.24
3057.46
3040.5
3025.31
3011.82
2999.97
2989.68
2980.9
2973.54
2967.55
2962.88
2959.46
2957.26
2956.23
2956.34
2957.56
2959.87
2963.25
2967.72
2973.29
2979.98
2987.82
2996.87
3007.18
3018.8
3031.78
3046.2
3062.09
3079.49
3098.45
3118.99
3141.09
3164.76
3189.93
3216.54
3244.47
3273.6
3303.73
3334.65
3366.08
3397.73
3429.27
3460.35
3490.57
3519.5
3546.73
3571.8
3594.29
3613.79
3629.94
3642.41
3650.93
3655.3
3655.41
3651.26
3642.9
3630.46
3614.17
3594.34
3571.33
3545.56
3517.49
3487.57
3456.28
3424.08
3391.43
3358.78
3326.54
3295.24
3265.06
3235.88
3207.91
3181.38
3156.44
3133.19
3111.66
3091.9
3073.88
3057.59
3042.98
3029.99
3018.55
3008.57
2999.96
2992.63
2986.49
2981.45
2977.43
2974.37
2972.23
2970.98
2970.65
2971.28
2972.97
2975.81
2979.9
2985.38
2992.38
3001.03
3011.44
3023.7
3037.89
3054.06
3072.22
3092.35
3114.42
3138.34
3163.99
3191.25
3219.91
3249.75
3280.19
3311.52
3343.24
3375.03
3406.49
3437.22
3466.9
3495.14
3521.6
3545.96
3567.89
3587.16
3603.56
3616.89
3627.03
3633.9
3637.46
3637.04
3633.32
3626.35
3616.27
3603.22
3587.38
3568.97
3548.24
3525.44
3500.87
3474.89
3447.87
3420.33
2854.7
2848.87
2844.45
2841.42
2839.79
2839.53
2840.67
2843.22
2847.17
2852.53
2859.35
2867.65
2877.49
2888.91
2901.98
2916.75
2933.28
2951.58
2971.67
2993.59
3017.3
3042.79
3070.02
3098.89
3129.28
3161.04
3192.21
3225.88
3260.14
3294.62
3328.92
3362.7
3395.51
3426.92
3456.49
3483.77
3508.4
3530.02
3548.29
3562.92
3573.71
3580.47
3583.1
3581.52
3575.75
3565.9
3552.08
3534.54
3513.52
3489.33
3462.34
3432.94
3401.53
3368.55
3334.42
3299.57
3264.42
3229.36
3194.74
3161.01
3128.91
3097.69
3067.77
3039.36
3012.61
2987.61
2964.44
2943.1
2923.62
2905.98
2890.16
2876.13
2863.86
2853.33
2844.5
2837.35
2831.84
2827.96
2825.72
2825.09
2825.93
2828.31
2832.24
2837.69
2844.66
2853.15
2863.12
2874.57
2887.49
2901.87
2917.72
2935.05
2953.86
2974.18
2996
3019.32
3044.13
3070.38
3097.99
3126.87
3156.9
3187.86
3219.54
3251.7
3284.05
3316.28
3348.06
3379.03
3408.82
3437.04
3463.34
3487.31
3508.62
3526.9
3541.84
3553.16
3560.62
3564.04
3563.3
3558.36
3549.26
3536.09
3519
3498.24
3474.12
3447.01
3417.3
3385.45
3351.93
3317.2
3281.75
3246.05
3210.54
3175.64
3141.72
3109.08
3078.02
3048.73
3021.38
2996.08
2972.88
2951.81
2932.85
2915.95
2901.05
2888.04
2876.84
2867.35
2859.46
2853.07
2848.1
2844.47
2842.11
2840.98
2841.04
2842.24
2844.57
2848.02
2852.59
2858.28
2865.12
2873.14
2882.37
2892.87
2904.69
2917.87
2932.48
2948.57
2966.2
2985.38
3006.17
3028.55
3052.52
3078.05
3105.07
3133.47
3163.12
3194
3225.56
3257.71
3290.15
3322.54
3354.51
3385.67
3415.58
3443.79
3469.84
3493.28
3513.69
3530.69
3543.95
3553.22
3558.31
3559.09
3555.55
3547.76
3535.82
3519.93
3500.36
3477.43
3451.51
3423.04
3392.48
3360.3
3327
3293.06
3258.95
3225.1
3191.94
3159.68
3128.66
3099.11
3071.19
3045.01
3020.67
2998.18
2977.57
2958.81
2941.88
2926.71
2913.24
2901.41
2891.15
2882.39
2875.05
2869.08
2864.43
2861.02
2858.83
2857.82
2857.93
2859.16
2861.46
2864.85
2869.31
2874.87
2881.55
2889.38
2898.41
2908.7
2920.29
2933.26
2947.66
2963.53
2980.92
2999.87
3020.39
3042.49
3066.16
3091.34
3117.97
3145.93
3175.09
3205.28
3236.27
3267.77
3299.51
3331.16
3362.35
3392.68
3421.75
3449.11
3474.31
3496.93
3516.56
3532.81
3545.37
3553.94
3558.35
3558.48
3554.3
3545.88
3533.37
3516.98
3497.03
3473.89
3447.99
3419.78
3389.72
3358.3
3325.98
3293.22
3260.45
3228.13
3196.79
3166.56
3137.32
3109.31
3082.76
3057.81
3034.54
3013.03
2993.27
2975.27
2959
2944.41
2931.45
2920.03
2910.08
2901.5
2894.2
2888.08
2883.06
2879.06
2876.02
2873.88
2872.63
2872.29
2872.89
2874.55
2877.36
2881.41
2886.86
2893.82
2902.43
2912.81
2925.05
2939.22
2955.38
2973.53
2993.65
3015.73
3039.67
3065.35
3092.64
3121.34
3151.23
3181.78
3213.18
3244.98
3276.86
3308.42
3339.26
3369.05
3397.4
3423.97
3448.42
3470.44
3489.8
3506.26
3519.64
3529.82
3536.71
3540.28
3539.84
3536.08
3529.07
3518.94
3505.82
3489.92
3471.43
3450.61
3427.72
3403.07
3377
3349.89
3322.27
2756.12
2750.31
2745.9
2742.88
2741.25
2740.99
2742.13
2744.68
2748.62
2753.97
2760.77
2769.05
2778.87
2790.27
2803.31
2818.07
2834.58
2852.85
2872.93
2894.83
2918.54
2944.04
2971.27
3000.16
3030.6
3062.48
3093.57
3127.38
3161.76
3196.34
3230.77
3264.68
3297.64
3329.2
3358.92
3386.35
3411.12
3432.87
3451.24
3465.97
3476.83
3483.64
3486.29
3484.71
3478.9
3468.99
3455.08
3437.44
3416.31
3391.97
3364.84
3335.28
3303.73
3270.6
3236.32
3201.34
3166.08
3130.91
3096.2
3062.41
3030.25
2998.98
2969.03
2940.6
2913.83
2888.84
2865.67
2844.34
2824.88
2807.26
2791.46
2777.45
2765.19
2754.67
2745.86
2738.72
2733.22
2729.35
2727.12
2726.49
2727.33
2729.72
2733.65
2739.1
2746.08
2754.56
2764.53
2775.98
2788.89
2803.27
2819.11
2836.42
2855.22
2875.53
2897.34
2920.66
2945.47
2971.73
2999.36
3028.28
3058.34
3089.36
3121.11
3153.35
3185.8
3218.14
3250.03
3281.12
3311.04
3339.4
3365.83
3389.94
3411.38
3429.77
3444.82
3456.23
3463.76
3467.22
3466.49
3461.54
3452.4
3439.14
3421.95
3401.07
3376.82
3349.55
3319.68
3287.67
3253.98
3219.09
3183.5
3147.66
3112.04
3077.03
3043.02
3010.32
2979.2
2949.88
2922.52
2897.22
2874.03
2852.98
2834.05
2817.18
2802.31
2789.34
2778.18
2768.73
2760.87
2754.51
2749.56
2745.96
2743.62
2742.5
2742.57
2743.78
2746.11
2749.56
2754.12
2759.81
2766.64
2774.64
2783.86
2794.34
2806.13
2819.29
2833.88
2849.95
2867.55
2886.72
2907.49
2929.86
2953.84
2979.38
3006.41
3034.84
3064.55
3095.46
3127.11
3159.34
3191.88
3224.39
3256.49
3287.79
3317.85
3346.22
3372.43
3396.02
3416.57
3433.69
3447.06
3456.4
3461.53
3462.32
3458.77
3450.92
3438.9
3422.9
3403.2
3380.12
3354.05
3325.42
3294.68
3262.34
3228.89
3194.81
3160.57
3126.6
3093.36
3061.03
3029.96
3000.36
2972.42
2946.23
2921.89
2899.42
2878.82
2860.09
2843.18
2828.03
2814.6
2802.8
2792.56
2783.82
2776.51
2770.56
2765.92
2762.54
2760.36
2759.35
2759.48
2760.71
2763.02
2766.4
2770.86
2776.41
2783.07
2790.88
2799.9
2810.16
2821.74
2834.68
2849.06
2864.91
2882.28
2901.21
2921.72
2943.82
2967.49
2992.68
3019.33
3047.33
3076.53
3106.78
3137.84
3169.43
3201.27
3233.03
3264.35
3294.83
3324.05
3351.56
3376.92
3399.69
3419.45
3435.83
3448.48
3457.12
3461.57
3461.7
3457.5
3449.02
3436.42
3419.92
3399.84
3376.55
3350.49
3322.13
3291.92
3260.34
3227.88
3194.98
3162.1
3129.68
3098.29
3068
3038.7
3010.64
2984.06
2959.09
2935.82
2914.31
2894.57
2876.58
2860.34
2845.77
2832.84
2821.46
2811.54
2802.99
2795.72
2789.63
2784.64
2780.66
2777.62
2775.49
2774.24
2773.88
2774.46
2776.09
2778.87
2782.88
2788.28
2795.2
2803.77
2814.11
2826.31
2840.46
2856.61
2874.75
2894.88
2916.96
2940.92
2966.63
2993.95
3022.7
3052.65
3083.31
3114.79
3146.69
3178.69
3210.36
3241.33
3271.24
3299.71
3326.4
3350.97
3373.09
3392.53
3409.07
3422.51
3432.73
3439.64
3443.22
3442.76
3438.97
3431.91
3421.71
3408.53
3392.54
3373.96
3353.05
3330.06
3305.3
3279.14
3251.93
3224.21
2657.49
2651.69
2647.3
2644.29
2642.67
2642.4
2643.54
2646.08
2650.01
2655.35
2662.13
2670.4
2680.19
2691.57
2704.58
2719.31
2735.79
2754.05
2774.11
2796
2819.7
2845.2
2872.44
2901.36
2931.85
2963.85
2994.86
3028.83
3063.33
3098.04
3132.6
3166.67
3199.79
3231.53
3261.42
3289.01
3313.94
3335.83
3354.33
3369.17
3380.11
3386.97
3389.64
3388.05
3382.21
3372.22
3358.23
3340.47
3319.2
3294.71
3267.41
3237.69
3205.96
3172.67
3138.23
3103.1
3067.7
3032.41
2997.61
2963.75
2931.51
2900.2
2870.2
2841.75
2814.98
2789.98
2766.82
2745.51
2726.06
2708.45
2692.68
2678.68
2666.45
2655.95
2647.15
2640.02
2634.53
2630.67
2628.45
2627.83
2628.68
2631.06
2634.99
2640.45
2647.43
2655.91
2665.89
2677.33
2690.23
2704.6
2720.43
2737.73
2756.52
2776.81
2798.61
2821.93
2846.74
2873.01
2900.67
2929.61
2959.73
2990.81
3022.64
3054.98
3087.53
3119.98
3152.01
3183.24
3213.3
3241.82
3268.4
3292.67
3314.24
3332.78
3347.94
3359.45
3367.05
3370.56
3369.85
3364.88
3355.68
3342.34
3325.04
3304.02
3279.61
3252.17
3222.12
3189.92
3156.04
3120.98
3085.22
3049.24
3013.47
2978.35
2944.25
2911.47
2880.3
2850.95
2823.56
2798.26
2775.08
2754.06
2735.16
2718.33
2703.5
2690.57
2679.46
2670.04
2662.22
2655.89
2650.98
2647.4
2645.08
2643.98
2644.06
2645.27
2647.61
2651.06
2655.61
2661.29
2668.11
2676.09
2685.29
2695.75
2707.51
2720.65
2735.21
2751.25
2768.83
2787.98
2808.74
2831.1
2855.08
2880.63
2907.68
2936.15
2965.91
2996.87
3028.6
3060.94
3093.6
3126.23
3158.48
3189.94
3220.18
3248.72
3275.11
3298.87
3319.58
3336.84
3350.32
3359.74
3364.92
3365.73
3362.14
3354.24
3342.13
3326.01
3306.16
3282.92
3256.67
3227.85
3196.93
3164.4
3130.77
3096.53
3062.15
3028.04
2994.72
2962.3
2931.17
2901.53
2873.56
2847.37
2823.03
2800.57
2780
2761.28
2744.4
2729.29
2715.88
2704.11
2693.91
2685.2
2677.91
2671.99
2667.37
2664
2661.84
2660.85
2660.98
2662.22
2664.53
2667.91
2672.36
2677.9
2684.55
2692.34
2701.33
2711.57
2723.12
2736.04
2750.39
2766.22
2783.57
2802.48
2822.98
2845.07
2868.74
2893.95
2920.62
2948.66
2977.92
3008.22
3039.37
3071.06
3103.01
3134.91
3166.37
3197.01
3226.39
3254.08
3279.61
3302.55
3322.47
3338.98
3351.74
3360.47
3364.96
3365.1
3360.87
3352.33
3339.62
3322.99
3302.76
3279.31
3253.07
3224.53
3194.14
3162.4
3129.78
3096.72
3063.7
3031.17
2999.74
2969.38
2940
2911.89
2885.28
2860.3
2837.02
2815.52
2795.79
2777.82
2761.6
2747.07
2734.17
2722.82
2712.94
2704.42
2697.19
2691.13
2686.17
2682.21
2679.2
2677.07
2675.81
2675.44
2675.99
2677.59
2680.32
2684.28
2689.64
2696.51
2705.04
2715.34
2727.5
2741.63
2757.75
2775.88
2796.01
2818.11
2842.08
2867.82
2895.19
2924
2954.01
2984.8
3016.36
3048.38
3080.5
3112.31
3143.41
3173.46
3202.08
3228.9
3253.6
3275.84
3295.38
3312
3325.5
3335.77
3342.7
3346.28
3345.81
3341.98
3334.87
3324.6
3311.33
3295.25
3276.57
3255.55
3232.46
3207.58
3181.3
3153.99
3126.17
2558.8
2553.02
2548.64
2545.64
2544.03
2543.77
2544.9
2547.43
2551.35
2556.67
2563.43
2571.67
2581.44
2592.79
2605.78
2620.48
2636.94
2655.17
2675.21
2697.08
2720.78
2746.27
2773.53
2802.48
2833.01
2865.13
2896.12
2930.25
2964.87
2999.72
3034.43
3068.67
3101.97
3133.9
3163.98
3191.76
3216.86
3238.91
3257.56
3272.51
3283.54
3290.46
3293.16
3291.56
3285.67
3275.61
3261.51
3243.62
3222.2
3197.54
3170.06
3140.15
3108.23
3074.75
3040.13
3004.84
2969.28
2933.86
2898.95
2865.03
2832.71
2801.33
2771.3
2742.82
2716.03
2691.04
2667.88
2646.58
2627.16
2609.57
2593.82
2579.85
2567.64
2557.16
2548.37
2541.25
2535.78
2531.93
2529.72
2529.1
2529.96
2532.35
2536.28
2541.74
2548.72
2557.21
2567.17
2578.61
2591.51
2605.87
2621.69
2638.97
2657.75
2678.02
2699.82
2723.13
2747.94
2774.22
2801.9
2830.89
2861.05
2892.21
2924.13
2956.56
2989.23
3021.82
3053.99
3085.38
3115.61
3144.29
3171.04
3195.48
3217.22
3235.9
3251.2
3262.82
3270.51
3274.07
3273.38
3268.39
3259.13
3245.69
3228.26
3207.09
3182.5
3154.87
3124.62
3092.21
3058.13