/*--------------------------------*- C++ -*----------------------------------*\
| =========                 |                                                 |
| \\      /  F ield         | OpenFOAM: The Open Source CFD Toolbox           |
|  \\    /   O peration     | Version:  3.0.1                                 |
|   \\  /    A nd           | Web:      www.OpenFOAM.org                      |
|    \\/     M anipulation  |                                                 |
\*---------------------------------------------------------------------------*/
FoamFile
{
    version     2.0;
    format      ascii;
    class       surfaceScalarField;
    location    "20.6";
    object      alphaPhi;
}
// * * * * * * * * * * * * * * * * * * * * * * * * * * * * * * * * * * * * * //

dimensions      [0 3 -1 0 0 0 0];

internalField   nonuniform List<scalar> 
42423
(
0.000207949
7.11724e-06
0.000198973
8.97642e-06
0.000187854
1.11183e-05
0.000174686
1.31688e-05
0.000159978
1.47077e-05
0.000143708
1.62703e-05
0.000126332
1.73759e-05
0.000107965
1.8367e-05
8.89086e-05
1.90559e-05
6.95008e-05
1.94079e-05
4.99767e-05
1.9524e-05
3.05999e-05
1.93768e-05
1.1569e-05
1.90309e-05
-6.95233e-06
1.85213e-05
-2.47783e-05
1.7826e-05
-4.1829e-05
1.70507e-05
-5.79612e-05
1.61322e-05
-7.31133e-05
1.51521e-05
-8.72611e-05
1.41479e-05
-0.000100348
1.30873e-05
-0.000112379
1.20305e-05
-0.000123367
1.09878e-05
-0.00013332
9.95328e-06
-0.000142277
8.95665e-06
-0.000150272
7.99533e-06
-0.000157327
7.05526e-06
-0.000163495
6.16788e-06
-0.0001688
5.30473e-06
-0.000173281
4.48119e-06
-0.000176975
3.69437e-06
-0.00017991
2.9341e-06
-0.000182096
2.18645e-06
-0.000183581
1.48496e-06
-0.000184389
8.08092e-07
-0.000184496
1.06699e-07
-0.000183874
-6.2138e-07
-0.000182498
-1.37632e-06
-0.000180423
-2.07535e-06
-0.000177591
-2.83148e-06
-0.000174006
-3.58511e-06
-0.000169684
-4.32174e-06
-0.00016446
-5.22471e-06
-0.000158473
-5.98697e-06
-0.000151724
-6.74839e-06
-0.000143937
-7.78697e-06
-0.000135303
-8.6343e-06
-0.000125872
-9.43088e-06
-0.000115295
-1.05768e-05
-0.000103785
-1.15104e-05
-9.14852e-05
-1.22999e-05
-7.8138e-05
-1.33472e-05
-6.39445e-05
-1.41935e-05
-4.86472e-05
-1.52973e-05
-3.25956e-05
-1.60516e-05
-1.59662e-05
-1.66294e-05
1.48199e-06
-1.74482e-05
1.94408e-05
-1.79588e-05
3.76442e-05
-1.82034e-05
5.60527e-05
-1.84086e-05
7.43836e-05
-1.83309e-05
9.25466e-05
-1.8163e-05
0.000110365
-1.78187e-05
0.000127478
-1.7113e-05
0.000143708
-1.62297e-05
0.000158911
-1.52035e-05
0.000172715
-1.38031e-05
0.000185049
-1.23345e-05
0.000195649
-1.06001e-05
0.000204393
-8.74383e-06
0.000211147
-6.75392e-06
0.000215778
-4.63116e-06
0.00021807
-2.29154e-06
0.000217998
7.1596e-08
0.000215564
2.43399e-06
0.000210814
4.74995e-06
0.000203744
7.07044e-06
0.000194468
9.27581e-06
0.000183099
1.13688e-05
0.000169847
1.32519e-05
0.000154979
1.48687e-05
0.000138554
1.64248e-05
0.00012097
1.75835e-05
0.000102424
1.85465e-05
8.31376e-05
1.92863e-05
6.34315e-05
1.97062e-05
4.35344e-05
1.98971e-05
2.36619e-05
1.98725e-05
4.10402e-06
1.95579e-05
-1.49688e-05
1.90728e-05
-3.34378e-05
1.8469e-05
-5.10957e-05
1.76579e-05
-6.78455e-05
1.67498e-05
-8.34953e-05
1.56498e-05
-9.79478e-05
1.44525e-05
-0.000111208
1.32606e-05
-0.000123215
1.20066e-05
-0.000134093
1.08785e-05
-0.000143606
9.51234e-06
-0.000151972
8.36598e-06
-0.000159253
7.28158e-06
-0.000165326
6.07265e-06
-0.000170346
5.01973e-06
-0.000174573
4.22752e-06
-0.000177772
3.199e-06
-0.000180135
2.36328e-06
-0.000181848
1.71271e-06
-0.000182828
9.79753e-07
-0.000183196
3.68618e-07
-0.000182946
-2.50717e-07
-0.00018208
-8.66057e-07
-0.000180618
-1.46207e-06
-0.000178549
-2.06893e-06
-0.000175878
-2.67073e-06
-0.000172584
-3.29414e-06
-0.000168661
-3.92308e-06
-0.000164085
-4.57598e-06
-0.000158868
-5.21645e-06
-0.000152914
-5.95471e-06
-0.000146413
-6.5004e-06
-0.000139115
-7.29802e-06
-0.000131068
-8.04753e-06
-0.000122262
-8.80545e-06
-0.00011263
-9.63172e-06
-0.000102141
-1.04891e-05
-9.07603e-05
-1.13811e-05
-7.84628e-05
-1.22976e-05
-6.53124e-05
-1.31504e-05
-5.1207e-05
-1.41054e-05
-3.61837e-05
-1.50234e-05
-2.03031e-05
-1.58807e-05
-3.7127e-06
-1.65904e-05
1.35847e-05
-1.72974e-05
3.14245e-05
-1.78399e-05
4.96151e-05
-1.81906e-05
6.79599e-05
-1.83449e-05
8.6261e-05
-1.83011e-05
0.000104274
-1.80136e-05
0.000121717
-1.74425e-05
0.000138332
-1.66156e-05
0.000153841
-1.55085e-05
0.000167982
-1.41414e-05
0.0001805
-1.25181e-05
0.000191183
-1.06827e-05
0.000199785
-8.60222e-06
0.000206165
-6.37968e-06
0.000210211
-4.04608e-06
0.000211874
-1.66306e-06
0.000211161
7.13194e-07
0.000207944
3.2169e-06
0.000202308
5.63616e-06
0.000194365
7.94238e-06
0.000184283
1.00824e-05
0.000172175
1.21084e-05
0.000158315
1.38592e-05
0.000142964
1.53517e-05
0.000126312
1.66517e-05
0.000108681
1.76312e-05
9.03126e-05
1.83684e-05
7.13545e-05
1.89581e-05
5.23326e-05
1.9022e-05
3.32807e-05
1.90518e-05
1.44522e-05
1.88285e-05
-3.84252e-06
1.82948e-05
-2.15048e-05
1.76623e-05
-3.83609e-05
1.68561e-05
-5.43382e-05
1.59774e-05
-6.93068e-05
1.49686e-05
-8.32452e-05
1.39384e-05
-9.60928e-05
1.28476e-05
-0.000107942
1.18496e-05
-0.000118684
1.07418e-05
-0.000128374
9.69013e-06
-0.000137247
8.87284e-06
-0.000145128
7.88074e-06
-0.000152015
6.88699e-06
-0.000158036
6.02158e-06
-0.000163095
5.05821e-06
-0.000167591
4.49593e-06
-0.000171282
3.69181e-06
-0.000174197
2.91431e-06
-0.000176471
2.27456e-06
-0.000178071
1.59945e-06
-0.000179018
9.47454e-07
-0.000179372
3.53691e-07
-0.000179014
-3.57467e-07
-0.000178032
-9.82616e-07
-0.00017636
-1.67125e-06
-0.000173997
-2.3632e-06
-0.00017096
-3.03737e-06
-0.000167219
-3.74049e-06
-0.000162731
-4.48863e-06
-0.000157451
-5.28003e-06
-0.000151402
-6.04843e-06
-0.000144591
-6.81121e-06
-0.000136931
-7.66034e-06
-0.000128456
-8.47471e-06
-0.000119124
-9.33164e-06
-0.000108882
-1.02426e-05
-9.77888e-05
-1.10931e-05
-8.5791e-05
-1.19979e-05
-7.29174e-05
-1.28736e-05
-5.916e-05
-1.37575e-05
-4.46296e-05
-1.45304e-05
-2.92928e-05
-1.53368e-05
-1.32238e-05
-1.6069e-05
3.39048e-06
-1.66144e-05
2.05678e-05
-1.71774e-05
3.81328e-05
-1.75651e-05
5.59221e-05
-1.77893e-05
7.3762e-05
-1.784e-05
9.14423e-05
-1.76803e-05
0.000108741
-1.72988e-05
0.000125394
-1.66529e-05
0.000141175
-1.57816e-05
0.000155822
-1.46465e-05
0.000168999
-1.31773e-05
0.000180624
-1.16244e-05
0.000190355
-9.73102e-06
0.000197973
-7.61891e-06
0.00020335
-5.37688e-06
0.000206299
-2.949e-06
0.000206827
-5.27989e-07
0.000204813
2.01448e-06
0.000200272
4.54095e-06
0.000193442
6.83036e-06
0.000184345
9.09701e-06
0.000173153
1.11911e-05
0.0001601
1.30535e-05
0.000145434
1.46657e-05
0.000129518
1.5916e-05
0.000112528
1.699e-05
9.48503e-05
1.7678e-05
7.67995e-05
1.80508e-05
5.858e-05
1.82195e-05
4.04843e-05
1.80957e-05
2.2685e-05
1.77992e-05
5.36813e-06
1.73169e-05
-1.1226e-05
1.65941e-05
-2.71532e-05
1.59273e-05
-4.22159e-05
1.50626e-05
-5.64311e-05
1.42152e-05
-6.98146e-05
1.33835e-05
-8.23497e-05
1.25351e-05
-9.39558e-05
1.16061e-05
-0.000104751
1.07949e-05
-0.000114722
9.97181e-06
-0.000123813
9.09052e-06
-0.000132338
8.52474e-06
-0.000140063
7.72541e-06
-0.000146977
6.91423e-06
-0.000153307
6.3298e-06
-0.000159052
5.74447e-06
-0.000164096
5.04473e-06
-0.000168336
4.23925e-06
-0.000171842
3.50693e-06
-0.000174771
2.92859e-06
-0.000176925
2.15429e-06
-0.00017834
1.41454e-06
-0.00017902
6.80602e-07
-0.000178935
-8.52481e-08
-0.000177992
-9.42818e-07
-0.000176211
-1.78127e-06
-0.000173545
-2.66645e-06
-0.000169995
-3.54927e-06
-0.000165513
-4.48231e-06
-0.00016006
-5.45322e-06
-0.000153662
-6.39723e-06
-0.000146297
-7.36552e-06
-0.000137908
-8.38894e-06
-0.000128552
-9.35565e-06
-0.000118244
-1.03084e-05
-0.000107017
-1.1227e-05
-9.48036e-05
-1.22134e-05
-8.16963e-05
-1.31074e-05
-6.77676e-05
-1.39286e-05
-5.30052e-05
-1.47625e-05
-3.75669e-05
-1.54383e-05
-2.15366e-05
-1.60304e-05
-4.97527e-06
-1.65613e-05
1.1952e-05
-1.69273e-05
2.91833e-05
-1.72314e-05
4.65753e-05
-1.7392e-05
6.39724e-05
-1.73971e-05
8.12036e-05
-1.72313e-05
9.81237e-05
-1.69201e-05
0.0001146
-1.64767e-05
0.000130355
-1.57551e-05
0.000145271
-1.49157e-05
0.000159121
-1.38501e-05
0.000171805
-1.26837e-05
0.000183117
-1.13118e-05
0.000192781
-9.66416e-06
0.00020073
-7.94951e-06
0.000206785
-6.05443e-06
0.000210752
-3.96758e-06
0.000212693
-1.94088e-06
0.000212416
2.76599e-07
0.000209859
2.55712e-06
0.00020504
4.81896e-06
0.000198064
6.97634e-06
0.000189066
8.998e-06
0.00017819
1.0876e-05
0.000165422
1.27676e-05
0.000151055
1.4367e-05
0.00013528
1.57756e-05
0.000118357
1.69226e-05
0.000100574
1.77831e-05
8.21624e-05
1.84115e-05
6.34184e-05
1.8744e-05
4.45996e-05
1.88188e-05
2.58154e-05
1.87841e-05
7.30283e-06
1.85126e-05
-1.05418e-05
1.78446e-05
-2.77459e-05
1.72041e-05
-4.41164e-05
1.63706e-05
-5.95454e-05
1.54289e-05
-7.39113e-05
1.4366e-05
-8.71946e-05
1.32833e-05
-9.93327e-05
1.2138e-05
-0.000110306
1.09731e-05
-0.000120156
9.84983e-06
-0.000128898
8.74254e-06
-0.000136557
7.65867e-06
-0.000143178
6.62124e-06
-0.000148818
5.63958e-06
-0.000153536
4.71797e-06
-0.0001574
3.86419e-06
-0.00016045
3.04985e-06
-0.000162732
2.28278e-06
-0.000164282
1.54962e-06
-0.000165171
8.88623e-07
-0.0001654
2.29509e-07
-0.000164882
-5.17725e-07
-0.000163697
-1.18539e-06
-0.0001619
-1.79728e-06
-0.000159444
-2.4556e-06
-0.000156342
-3.10201e-06
-0.000152682
-3.65973e-06
-0.000148321
-4.36134e-06
-0.00014332
-5.00107e-06
-0.000137703
-5.61707e-06
-0.000131285
-6.41812e-06
-0.000124201
-7.08345e-06
-0.000116251
-7.9502e-06
-0.000107554
-8.69761e-06
-9.81816e-05
-9.37189e-06
-8.78639e-05
-1.03178e-05
-7.6728e-05
-1.11359e-05
-6.46999e-05
-1.20281e-05
-5.16662e-05
-1.30337e-05
-3.78413e-05
-1.38249e-05
-2.29933e-05
-1.4848e-05
-7.46234e-06
-1.5531e-05
8.91601e-06
-1.63784e-05
2.59232e-05
-1.70072e-05
4.32951e-05
-1.73719e-05
-1.77439e-05
0.000208041
1.42357e-05
0.000199062
1.79553e-05
0.000187939
2.22415e-05
0.000174762
2.63451e-05
0.000160047
2.94235e-05
0.000143767
3.25504e-05
0.000126378
3.47641e-05
0.000108
3.67458e-05
8.89318e-05
3.81239e-05
6.95101e-05
3.88295e-05
4.99837e-05
3.90505e-05
3.05867e-05
3.87738e-05
1.15505e-05
3.80671e-05
-6.9752e-06
3.70469e-05
-2.48069e-05
3.56577e-05
-4.18628e-05
3.41065e-05
-5.8e-05
3.22694e-05
-7.31562e-05
3.03082e-05
-8.73072e-05
2.82989e-05
-0.000100396
2.61765e-05
-0.00011243
2.40644e-05
-0.000123422
2.19793e-05
-0.000133377
1.99086e-05
-0.000142335
1.7915e-05
-0.000150329
1.59893e-05
-0.000157385
1.41106e-05
-0.000163556
1.23397e-05
-0.000168861
1.06093e-05
-0.000173342
8.96224e-06
-0.000177034
7.38603e-06
-0.000179973
5.87306e-06
-0.000182167
4.38066e-06
-0.000183651
2.96853e-06
-0.000184455
1.61286e-06
-0.000184557
2.08706e-07
-0.00018393
-1.24912e-06
-0.000182554
-2.75184e-06
-0.000180484
-4.14542e-06
-0.000177653
-5.6629e-06
-0.000174066
-7.17176e-06
-0.000169744
-8.64328e-06
-0.000164523
-1.04457e-05
-0.000158536
-1.19747e-05
-0.000151786
-1.34977e-05
-0.000144004
-1.55694e-05
-0.000135368
-1.72708e-05
-0.000125934
-1.8865e-05
-0.000115363
-2.11475e-05
-0.000103849
-2.30247e-05
-9.15474e-05
-2.46012e-05
-7.81942e-05
-2.67004e-05
-6.40099e-05
-2.83778e-05
-4.87205e-05
-3.05868e-05
-3.26447e-05
-3.21275e-05
-1.60172e-05
-3.3257e-05
1.44935e-06
-3.49147e-05
1.94155e-05
-3.5925e-05
3.76305e-05
-3.64185e-05
5.60508e-05
-3.68289e-05
7.4381e-05
-3.66612e-05
9.25504e-05
-3.63324e-05
0.000110395
-3.56638e-05
0.000127524
-3.42413e-05
0.000143765
-3.24708e-05
0.000158968
-3.04069e-05
0.00017277
-2.76048e-05
0.00018512
-2.46851e-05
0.000195738
-2.12182e-05
0.000204504
-1.75096e-05
0.00021127
-1.35196e-05
0.000215899
-9.26087e-06
0.000218192
-4.5838e-06
0.00021812
1.43778e-07
0.000215684
4.86992e-06
0.00021094
9.49377e-06
0.000203857
1.41533e-05
0.000194572
1.8561e-05
0.000183195
2.27457e-05
0.000169939
2.65076e-05
0.000155045
2.97633e-05
0.000138601
3.28687e-05
0.000121
3.51851e-05
0.000102442
3.7104e-05
8.31258e-05
3.8603e-05
6.34045e-05
3.94276e-05
4.35e-05
3.98018e-05
2.36293e-05
3.97433e-05
4.06007e-06
3.91272e-05
-1.50335e-05
3.81665e-05
-3.35097e-05
3.69453e-05
-5.11734e-05
3.53216e-05
-6.79306e-05
3.35071e-05
-8.35818e-05
3.13011e-05
-9.80308e-05
2.89015e-05
-0.000111295
2.65247e-05
-0.000123303
2.4015e-05
-0.000134188
2.17631e-05
-0.000143696
1.90207e-05
-0.000152055
1.67248e-05
-0.000159347
1.45737e-05
-0.000165416
1.21418e-05
-0.000170416
1.00194e-05
-0.000174636
8.44763e-06
-0.000177832
6.39538e-06
-0.000180191
4.72185e-06
-0.000181905
3.42711e-06
-0.000182882
1.95653e-06
-0.000183248
7.3491e-07
-0.000183001
-4.9797e-07
-0.000182129
-1.73753e-06
-0.000180671
-2.92001e-06
-0.000178592
-4.14848e-06
-0.000175914
-5.34911e-06
-0.000172624
-6.58348e-06
-0.000168698
-7.8493e-06
-0.000164124
-9.14951e-06
-0.000158916
-1.04251e-05
-0.00015296
-1.19109e-05
-0.00014644
-1.30201e-05
-0.00013914
-1.45979e-05
-0.000131101
-1.60869e-05
-0.000122301
-1.76053e-05
-0.00011267
-1.92621e-05
-0.000102176
-2.09833e-05
-9.08011e-05
-2.27562e-05
-7.85018e-05
-2.45969e-05
-6.53417e-05
-2.63107e-05
-5.12347e-05
-2.82124e-05
-3.62133e-05
-3.00448e-05
-2.03293e-05
-3.17648e-05
-3.7197e-06
-3.32e-05
1.35779e-05
-3.45951e-05
3.14255e-05
-3.56876e-05
4.96333e-05
-3.63984e-05
6.79841e-05
-3.66958e-05
8.62969e-05
-3.6614e-05
0.000104321
-3.60379e-05
0.000121774
-3.48958e-05
0.000138403
-3.32443e-05
0.000153922
-3.10278e-05
0.000168075
-2.82945e-05
0.000180604
-2.50465e-05
0.000191288
-2.13675e-05
0.000199913
-1.7227e-05
0.000206294
-1.27602e-05
0.00021032
-8.07202e-06
0.000211987
-3.33022e-06
0.000211269
1.43123e-06
0.000208042
6.4437e-06
0.000202402
1.12762e-05
0.000194451
1.58934e-05
0.000184368
2.01651e-05
0.000172235
2.4242e-05
0.000158359
2.77345e-05
0.000142996
3.07155e-05
0.000126334
3.33134e-05
0.000108682
3.52829e-05
9.03036e-05
3.6747e-05
7.13523e-05
3.79095e-05
5.22986e-05
3.80757e-05
3.3241e-05
3.81095e-05
1.43985e-05
3.76711e-05
-3.90136e-06
3.65947e-05
-2.15757e-05
3.53366e-05
-3.84406e-05
3.37211e-05
-5.44221e-05
3.19589e-05
-6.93794e-05
2.99259e-05
-8.33159e-05
2.78749e-05
-9.61769e-05
2.57086e-05
-0.000108033
2.37063e-05
-0.00011877
2.14783e-05
-0.000128454
1.93739e-05
-0.000137316
1.77354e-05
-0.000145205
1.57693e-05
-0.000152091
1.37734e-05
-0.000158112
1.20429e-05
-0.000163159
1.01045e-05
-0.000167651
8.98825e-06
-0.000171342
7.38344e-06
-0.000174248
5.82021e-06
-0.000176521
4.54735e-06
-0.000178119
3.19772e-06
-0.00017907
1.89796e-06
-0.000179425
7.09041e-07
-0.000179061
-7.21561e-07
-0.000178075
-1.96915e-06
-0.00017641
-3.33631e-06
-0.000174043
-4.7294e-06
-0.000170999
-6.08163e-06
-0.000167265
-7.47459e-06
-0.000162774
-8.97952e-06
-0.00015749
-1.05641e-05
-0.00015144
-1.2098e-05
-0.000144631
-1.36206e-05
-0.000136971
-1.53205e-05
-0.000128495
-1.69511e-05
-0.000119162
-1.86643e-05
-0.000108918
-2.04867e-05
-9.78334e-05
-2.21777e-05
-8.58294e-05
-2.40019e-05
-7.29472e-05
-2.57559e-05
-5.9185e-05
-2.75197e-05
-4.46439e-05
-2.90716e-05
-2.93169e-05
-3.06639e-05
-1.32448e-05
-3.21412e-05
3.38693e-06
-3.32461e-05
2.05716e-05
-3.43621e-05
3.81426e-05
-3.51362e-05
5.59424e-05
-3.55892e-05
7.37928e-05
-3.56904e-05
9.14828e-05
-3.53704e-05
0.000108786
-3.46019e-05
0.000125453
-3.33202e-05
0.000141253
-3.15816e-05
0.000155907
-2.93009e-05
0.000169096
-2.63661e-05
0.000180734
-2.32621e-05
0.000190466
-1.94637e-05
0.000198082
-1.52345e-05
0.000203466
-1.07612e-05
0.000206417
-5.89975e-06
0.000206941
-1.05262e-06
0.000204917
4.03921e-06
0.000200366
9.0914e-06
0.000193532
1.3665e-05
0.000184416
1.82129e-05
0.000173213
2.2394e-05
0.000160149
2.61176e-05
0.000145467
2.93476e-05
0.000129535
3.18478e-05
0.000112531
3.39941e-05
9.48394e-05
3.53697e-05
7.67712e-05
3.61191e-05
5.85436e-05
3.64471e-05
4.04414e-05
3.6198e-05
2.26353e-05
3.56053e-05
5.31551e-06
3.46368e-05
-1.12932e-05
3.32028e-05
-2.72259e-05
3.18601e-05
-4.22902e-05
3.0127e-05
-5.65014e-05
2.84264e-05
-6.98787e-05
2.67608e-05
-8.24231e-05
2.50795e-05
-9.40389e-05
2.3222e-05
-0.000104815
2.15712e-05
-0.000114785
1.99415e-05
-0.000123874
1.81801e-05
-0.000132407
1.70571e-05
-0.000140136
1.5455e-05
-0.000147047
1.38253e-05
-0.000153372
1.26541e-05
-0.000159114
1.14873e-05
-0.000164158
1.00886e-05
-0.000168396
8.47739e-06
-0.000171897
7.00721e-06
-0.00017483
5.86236e-06
-0.000176988
4.31181e-06
-0.000178397
2.82372e-06
-0.000179071
1.35497e-06
-0.00017899
-1.66046e-07
-0.000178048
-1.88545e-06
-0.000176276
-3.55319e-06
-0.000173605
-5.33746e-06
-0.000170045
-7.10951e-06
-0.000165564
-8.96306e-06
-0.000160115
-1.09023e-05
-0.000153718
-1.27935e-05
-0.000146354
-1.47295e-05
-0.000137969
-1.67739e-05
-0.000128612
-1.87132e-05
-0.000118297
-2.06228e-05
-0.000107065
-2.24597e-05
-9.48496e-05
-2.44284e-05
-8.1743e-05
-2.6214e-05
-6.78126e-05
-2.7859e-05
-5.30457e-05
-2.95295e-05
-3.75993e-05
-3.08847e-05
-2.15701e-05
-3.20596e-05
-5.00134e-06
-3.31301e-05
1.19361e-05
-3.38648e-05
2.91745e-05
-3.44698e-05
4.65714e-05
-3.47889e-05
6.39803e-05
-3.48061e-05
8.12209e-05
-3.44719e-05
9.81532e-05
-3.38524e-05
0.000114632
-3.29551e-05
0.000130388
-3.15116e-05
0.000145325
-2.98524e-05
0.000159192
-2.77175e-05
0.000171886
-2.53775e-05
0.000183209
-2.26354e-05
0.000192881
-1.93356e-05
0.000200839
-1.59081e-05
0.000206894
-1.21096e-05
0.000210867
-7.94032e-06
0.000212817
-3.89033e-06
0.000212538
5.55619e-07
0.00020998
5.11513e-06
0.000205163
9.63583e-06
0.000198183
1.39557e-05
0.00018918
1.8001e-05
0.000178297
2.17592e-05
0.00016552
2.55445e-05
0.000151141
2.87465e-05
0.000135353
3.15635e-05
0.000118418
3.38577e-05
0.000100622
3.55785e-05
8.2198e-05
3.68356e-05
6.34411e-05
3.75009e-05
4.46115e-05
3.76484e-05
2.58141e-05
3.75815e-05
7.28937e-06
3.70373e-05
-1.05592e-05
3.56932e-05
-2.7774e-05
3.44189e-05
-4.41545e-05
3.27511e-05
-5.95893e-05
3.08638e-05
-7.39589e-05
2.87356e-05
-8.72454e-05
2.65698e-05
-9.93865e-05
2.42791e-05
-0.000110365
2.19518e-05
-0.000120221
1.97057e-05
-0.000128961
1.74824e-05
-0.000136614
1.5312e-05
-0.000143236
1.3243e-05
-0.000148875
1.12783e-05
-0.000153592
9.43535e-06
-0.000157454
7.72596e-06
-0.000160502
6.09826e-06
-0.000162787
4.56777e-06
-0.000164343
3.10506e-06
-0.000165226
1.77204e-06
-0.000165449
4.52016e-07
-0.000164931
-1.0356e-06
-0.000163744
-2.3723e-06
-0.000161948
-3.59345e-06
-0.000159491
-4.91264e-06
-0.000156388
-6.20434e-06
-0.000152731
-7.3174e-06
-0.000148369
-8.72284e-06
-0.000143364
-1.0006e-05
-0.000137747
-1.12344e-05
-0.000131331
-1.28337e-05
-0.000124251
-1.41634e-05
-0.000116296
-1.59057e-05
-0.0001076
-1.73937e-05
-9.82245e-05
-1.87472e-05
-8.79033e-05
-2.06391e-05
-7.67609e-05
-2.22782e-05
-6.47395e-05
-2.40495e-05
-5.17023e-05
-2.60709e-05
-3.78726e-05
-2.76546e-05
-2.30217e-05
-2.96989e-05
-7.48018e-06
-3.10725e-05
8.8929e-06
-3.27515e-05
2.59024e-05
-3.40168e-05
4.32803e-05
-3.47498e-05
-3.5496e-05
0.000208217
2.13637e-05
0.000199226
2.69465e-05
0.000188087
3.33798e-05
0.000174894
3.95389e-05
0.000160159
4.41585e-05
0.000143859
4.88498e-05
0.000126447
5.21767e-05
0.000108047
5.51456e-05
8.89584e-05
5.72123e-05
6.95132e-05
5.82746e-05
4.99824e-05
5.85813e-05
3.05526e-05
5.82036e-05
1.15092e-05
5.71104e-05
-7.03173e-06
5.55879e-05
-2.48765e-05
5.35025e-05
-4.1943e-05
5.11731e-05
-5.80862e-05
4.84126e-05
-7.32452e-05
4.54672e-05
-8.73992e-05
4.24528e-05
-0.000100491
3.92688e-05
-0.000112531
3.61035e-05
-0.000123525
3.2974e-05
-0.000133478
2.98613e-05
-0.000142436
2.68727e-05
-0.000150431
2.39851e-05
-0.000157484
2.11631e-05
-0.000163654
1.85102e-05
-0.000168963
1.59175e-05
-0.000173443
1.34423e-05
-0.000177131
1.10749e-05
-0.000180072
8.81367e-06
-0.000182263
6.57142e-06
-0.000183747
4.45259e-06
-0.000184538
2.40412e-06
-0.000184621
2.91376e-07
-0.000183985
-1.88514e-06
-0.000182609
-4.12779e-06
-0.00018055
-6.2043e-06
-0.000177715
-8.4974e-06
-0.000174126
-1.07614e-05
-0.000169806
-1.29628e-05
-0.00016459
-1.56623e-05
-0.000158602
-1.79627e-05
-0.000151854
-2.02452e-05
-0.000144078
-2.3346e-05
-0.00013544
-2.5909e-05
-0.000126005
-2.83001e-05
-0.000115441
-3.17106e-05
-0.000103923
-3.45429e-05
-9.16212e-05
-3.69034e-05
-7.82606e-05
-4.0061e-05
-6.40902e-05
-4.25483e-05
-4.88059e-05
-4.58711e-05
-3.26999e-05
-4.82336e-05
-1.60373e-05
-4.99196e-05
1.40848e-06
-5.23606e-05
1.93807e-05
-5.38973e-05
3.75921e-05
-5.46299e-05
5.60296e-05
-5.52665e-05
7.43822e-05
-5.50138e-05
9.25608e-05
-5.45112e-05
0.000110415
-5.35176e-05
0.000127561
-5.13877e-05
0.000143827
-4.87369e-05
0.000159055
-4.56344e-05
0.000172873
-4.14234e-05
0.000185241
-3.70533e-05
0.00019586
-3.18372e-05
0.000204639
-2.62884e-05
0.000211435
-2.03152e-05
0.000216069
-1.38958e-05
0.000218363
-6.87693e-06
0.000218291
2.15836e-07
0.000215849
7.31134e-06
0.000211114
1.42294e-05
0.00020402
2.12472e-05
0.000194728
2.78532e-05
0.000183338
3.41353e-05
0.000170075
3.97704e-05
0.000155151
4.46875e-05
0.000138685
4.93349e-05
0.000121055
5.28157e-05
0.000102483
5.56753e-05
8.31419e-05
5.79445e-05
6.34078e-05
5.91617e-05
4.34869e-05
5.97227e-05
2.36001e-05
5.96302e-05
4.01517e-06
5.87121e-05
-1.50935e-05
5.72752e-05
-3.35844e-05
5.54362e-05
-5.1258e-05
5.29952e-05
-6.80249e-05
5.02741e-05
-8.36887e-05
4.69649e-05
-9.8137e-05
4.33498e-05
-0.000111398
3.97858e-05
-0.000123409
3.60258e-05
-0.000134305
3.26596e-05
-0.00014381
2.85251e-05
-0.000152164
2.5079e-05
-0.00015947
2.18798e-05
-0.000165553
1.82252e-05
-0.000170524
1.49905e-05
-0.000174739
1.26624e-05
-0.000177909
9.56537e-06
-0.000180257
7.06999e-06
-0.000181978
5.1477e-06
-0.000182955
2.93349e-06
-0.000183318
1.09801e-06
-0.000183071
-7.44815e-07
-0.000182193
-2.61539e-06
-0.000180734
-4.37942e-06
-0.000178665
-6.21695e-06
-0.000175988
-8.02606e-06
-0.000172695
-9.87632e-06
-0.000168763
-1.1782e-05
-0.000164195
-1.3717e-05
-0.000158994
-1.56267e-05
-0.000153036
-1.78688e-05
-0.000146522
-1.95336e-05
-0.000139223
-2.18971e-05
-0.000131185
-2.41252e-05
-0.000122382
-2.64085e-05
-0.000112759
-2.88847e-05
-0.000102268
-3.14741e-05
-9.08918e-05
-3.41327e-05
-7.85857e-05
-3.6903e-05
-6.54269e-05
-3.94695e-05
-5.13174e-05
-4.23219e-05
-3.62895e-05
-4.50728e-05
-2.04063e-05
-4.7648e-05
-3.7828e-06
-4.98236e-05
1.35419e-05
-5.19199e-05
3.13969e-05
-5.35426e-05
4.96187e-05
-5.46203e-05
6.79891e-05
-5.50663e-05
8.63199e-05
-5.49448e-05
0.000104365
-5.40832e-05
0.000121841
-5.23716e-05
0.000138497
-4.99002e-05
0.000154037
-4.65677e-05
0.000168202
-4.24601e-05
0.000180746
-3.75907e-05
0.000191453
-3.20737e-05
0.000200093
-2.5867e-05
0.000206479
-1.91463e-05
0.000210515
-1.21084e-05
0.000212184
-4.99926e-06
0.000211443
2.17257e-06
0.000208201
9.68532e-06
0.000202568
1.69096e-05
0.000194605
2.38558e-05
0.000184516
3.02542e-05
0.000172356
3.64023e-05
0.000158467
4.16238e-05
0.000143087
4.60954e-05
0.000126401
4.99987e-05
0.000108717
5.29671e-05
9.03075e-05
5.51568e-05
7.1361e-05
5.6856e-05
5.22781e-05
5.71587e-05
3.3201e-05
5.71865e-05
1.43603e-05
5.65118e-05
-3.94362e-06
5.48987e-05
-2.16305e-05
5.30235e-05
-3.85206e-05
5.06112e-05
-5.452e-05
4.79584e-05
-6.94721e-05
4.48781e-05
-8.34071e-05
4.18098e-05
-9.62723e-05
3.85739e-05
-0.000108128
3.55618e-05
-0.000118858
3.22082e-05
-0.000128535
2.90513e-05
-0.0001374
2.65999e-05
-0.000145295
2.36651e-05
-0.000152182
2.06598e-05
-0.000158212
1.8073e-05
-0.000163247
1.51394e-05
-0.000167733
1.34746e-05
-0.000171417
1.10669e-05
-0.000174319
8.72267e-06
-0.000176594
6.82241e-06
-0.000178189
4.79297e-06
-0.000179151
2.86003e-06
-0.000179503
1.0609e-06
-0.000179135
-1.08953e-06
-0.000178142
-2.96185e-06
-0.000176479
-4.99949e-06
-0.000174121
-7.08772e-06
-0.00017108
-9.12214e-06
-0.000167342
-1.12128e-05
-0.000162852
-1.34696e-05
-0.000157583
-1.58335e-05
-0.00015153
-1.81503e-05
-0.000144713
-2.04381e-05
-0.000137053
-2.29807e-05
-0.000128578
-2.54258e-05
-0.000119245
-2.79977e-05
-0.000108995
-3.07363e-05
-9.79096e-05
-3.32632e-05
-8.59142e-05
-3.59973e-05
-7.30304e-05
-3.86397e-05
-5.92661e-05
-4.1284e-05
-4.47199e-05
-4.36178e-05
-2.93785e-05
-4.60054e-05
-1.33035e-05
-4.82163e-05
3.33705e-06
-4.98867e-05
2.0541e-05
-5.15661e-05
3.81269e-05
-5.27222e-05
5.59377e-05
-5.34e-05
7.3802e-05
-5.35548e-05
9.15139e-05
-5.30823e-05
0.000108844
-5.19317e-05
0.000125522
-4.99982e-05
0.000141341
-4.74016e-05
0.000156018
-4.39778e-05
0.000169223
-3.95704e-05
0.000180882
-3.49211e-05
0.000190641
-2.92229e-05
0.000198266
-2.28593e-05
0.00020366
-1.61557e-05
0.000206618
-8.85775e-06
0.000207149
-1.58355e-06
0.000205094
6.09429e-06
0.00020053
1.36553e-05
0.000193693
2.05019e-05
0.000184561
2.73456e-05
0.000173339
3.36156e-05
0.000160252
3.92042e-05
0.000145551
4.40493e-05
0.0001296
4.77983e-05
0.000112564
5.10304e-05
9.48498e-05
5.30839e-05
7.67665e-05
5.42024e-05
5.85282e-05
5.46855e-05
4.04224e-05
5.43038e-05
2.26086e-05
5.34192e-05
5.27398e-06
5.19714e-05
-1.13507e-05
4.98275e-05
-2.72933e-05
4.78028e-05
-4.23604e-05
4.51941e-05
-5.65854e-05
4.26514e-05
-6.99567e-05
4.01322e-05
-8.24943e-05
3.76171e-05
-9.41261e-05
3.48538e-05
-0.000104892
3.23371e-05
-0.000114858
2.99077e-05
-0.000123944
2.72654e-05
-0.000132487
2.56002e-05
-0.00014022
2.31883e-05
-0.000147136
2.07417e-05
-0.000153456
1.89738e-05
-0.000159184
1.72157e-05
-0.000164225
1.51292e-05
-0.000168469
1.27217e-05
-0.000171972
1.05103e-05
-0.000174914
8.80382e-06
-0.000177068
6.46627e-06
-0.000178491
4.24651e-06
-0.000179164
2.02819e-06
-0.000179078
-2.51907e-07
-0.000178132
-2.83147e-06
-0.000176362
-5.32282e-06
-0.000173698
-8.0022e-06
-0.000170144
-1.06637e-05
-0.000165656
-1.34503e-05
-0.000160204
-1.63544e-05
-0.000153818
-1.91797e-05
-0.000146444
-2.21032e-05
-0.000138062
-2.51559e-05
-0.000128707
-2.80682e-05
-0.000118397
-3.09332e-05
-0.000107146
-3.37103e-05
-9.49317e-05
-3.66429e-05
-8.18202e-05
-3.93255e-05
-6.78862e-05
-4.1793e-05
-5.31177e-05
-4.4298e-05
-3.76618e-05
-4.63406e-05
-2.16199e-05
-4.81015e-05
-5.03723e-06
-4.97128e-05
1.18947e-05
-5.07967e-05
2.91493e-05
-5.17244e-05
4.65517e-05
-5.21914e-05
6.39735e-05
-5.22279e-05
8.12306e-05
-5.17291e-05
9.81765e-05
-5.07984e-05
0.000114671
-4.94497e-05
0.000130439
-4.72796e-05
0.000145381
-4.47944e-05
0.000159258
-4.15947e-05
0.000171967
-3.80864e-05
0.000183314
-3.39824e-05
0.000192992
-2.90133e-05
0.000200966
-2.38827e-05
0.000207025
-1.81684e-05
0.000211003
-1.19185e-05
0.000212984
-5.87079e-06
0.000212691
8.48226e-07
0.00021013
7.67562e-06
0.000205329
1.44374e-05
0.000198346
2.09382e-05
0.00018934
2.70074e-05
0.000178439
3.26606e-05
0.000165647
3.83359e-05
0.000151244
4.31495e-05
0.000135442
4.73659e-05
0.000118488
5.08114e-05
0.000100674
5.33929e-05
8.22306e-05
5.52786e-05
6.34547e-05
5.62769e-05
4.46041e-05
5.64991e-05
2.57838e-05
5.64018e-05
7.2509e-06
5.55702e-05
-1.06137e-05
5.35578e-05
-2.78453e-05
5.16504e-05
-4.42363e-05
4.91421e-05
-5.96788e-05
4.63063e-05
-7.40548e-05
4.31116e-05
-8.7348e-05
3.9863e-05
-9.94957e-05
3.64268e-05
-0.000110475
3.29311e-05
-0.000120322
2.9553e-05
-0.000129058
2.62178e-05
-0.000136712
2.29668e-05
-0.000143336
1.9867e-05
-0.000148971
1.69129e-05
-0.000153685
1.41497e-05
-0.00015754
1.15802e-05
-0.000160585
9.14317e-06
-0.000162867
6.85008e-06
-0.000164416
4.65407e-06
-0.00016529
2.64595e-06
-0.000165504
6.66382e-07
-0.000164978
-1.56173e-06
-0.00016379
-3.56038e-06
-0.000161994
-5.38949e-06
-0.000159541
-7.36571e-06
-0.000156442
-9.30351e-06
-0.000152772
-1.09872e-05
-0.000148412
-1.30828e-05
-0.000143413
-1.50046e-05
-0.000137787
-1.6861e-05
-0.000131369
-1.92515e-05
-0.000124291
-2.12414e-05
-0.000116352
-2.38446e-05
-0.000107669
-2.60772e-05
-9.82849e-05
-2.8131e-05
-8.79637e-05
-3.09602e-05
-7.68171e-05
-3.34248e-05
-6.48059e-05
-3.60608e-05
-5.17657e-05
-3.91111e-05
-3.79302e-05
-4.14902e-05
-2.30762e-05
-4.45529e-05
-7.51705e-06
-4.66316e-05
8.84935e-06
-4.91179e-05
2.58639e-05
-5.10313e-05
4.32527e-05
-5.21386e-05
-5.32622e-05
0.000208481
2.85063e-05
0.000199472
3.59561e-05
0.000188311
4.45408e-05
0.00017509
5.27594e-05
0.000160327
5.89222e-05
0.000143998
6.5178e-05
0.000126549
6.96263e-05
0.000108117
7.3577e-05
8.89981e-05
7.63315e-05
6.95179e-05
7.77549e-05
4.99645e-05
7.81347e-05
3.05022e-05
7.76659e-05
1.14474e-05
7.61652e-05
-7.1178e-06
7.41531e-05
-2.49793e-05
7.1364e-05
-4.20602e-05
6.82539e-05
-5.82168e-05
6.45692e-05
-7.33839e-05
6.06343e-05
-8.75449e-05
5.66138e-05
-0.00010064
5.23643e-05
-0.000112683
4.81457e-05
-0.000123682
4.39739e-05
-0.000133635
3.98138e-05
-0.000142592
3.58299e-05
-0.000150588
3.19815e-05
-0.000157641
2.82161e-05
-0.000163812
2.46809e-05
-0.000169119
2.12246e-05
-0.000173599
1.79221e-05
-0.00017729
1.47656e-05
-0.000180232
1.17556e-05
-0.000182421
8.76059e-06
-0.000183901
5.93264e-06
-0.000184665
3.16787e-06
-0.000184716
3.42684e-07
-0.000184068
-2.53353e-06
-0.000182691
-5.50432e-06
-0.000180644
-8.25173e-06
-0.000177814
-1.13274e-05
-0.000174216
-1.43597e-05
-0.0001699
-1.72784e-05
-0.00016469
-2.08722e-05
-0.000158702
-2.39509e-05
-0.000151957
-2.69899e-05
-0.000144189
-3.11137e-05
-0.000135549
-3.45497e-05
-0.000126113
-3.77361e-05
-0.00011556
-4.22631e-05
-0.000104037
-4.60666e-05
-9.1733e-05
-4.92071e-05
-7.83613e-05
-5.34328e-05
-6.41713e-05
-5.67382e-05
-4.89247e-05
-6.11178e-05
-3.27834e-05
-6.43749e-05
-1.60814e-05
-6.66217e-05
1.33713e-06
-6.97791e-05
1.93218e-05
-7.18821e-05
3.75374e-05
-7.28455e-05
5.59922e-05
-7.37213e-05
7.4362e-05
-7.33836e-05
9.25671e-05
-7.27163e-05
0.000110451
-7.14015e-05
0.000127619
-6.8556e-05
0.000143908
-6.50255e-05
0.000159161
-6.08879e-05
0.000173009
-5.5271e-05
0.000185407
-4.94516e-05
0.000196039
-4.24694e-05
0.000204844
-3.50927e-05
0.000211677
-2.71487e-05
0.000216315
-1.85336e-05
0.000218611
-9.17249e-06
0.000218541
2.85739e-07
0.0002161
9.75185e-06
0.000211377
1.8953e-05
0.000204261
2.83624e-05
0.000194955
3.716e-05
0.000183544
4.55466e-05
0.000170286
5.3028e-05
0.000155301
5.96722e-05
0.000138803
6.58337e-05
0.000121143
7.04752e-05
0.000102551
7.42677e-05
8.31605e-05
7.73348e-05
6.34062e-05
7.8916e-05
4.34618e-05
7.96672e-05
2.35485e-05
7.95434e-05
3.93807e-06
7.83226e-05
-1.51833e-05
7.63966e-05
-3.36878e-05
7.39407e-05
-5.13865e-05
7.06938e-05
-6.81766e-05
6.70642e-05
-8.38501e-05
6.26384e-05
-9.83016e-05
5.78013e-05
-0.000111557
5.30411e-05
-0.000123567
4.80359e-05
-0.000134489
4.35816e-05
-0.000143973
3.80092e-05
-0.000152305
3.34107e-05
-0.000159643
2.92179e-05
-0.000165757
2.43389e-05
-0.000170707
1.99408e-05
-0.000174867