/*--------------------------------*- C++ -*----------------------------------*\
| =========                 |                                                 |
| \\      /  F ield         | OpenFOAM: The Open Source CFD Toolbox           |
|  \\    /   O peration     | Version:  3.0.1                                 |
|   \\  /    A nd           | Web:      www.OpenFOAM.org                      |
|    \\/     M anipulation  |                                                 |
\*---------------------------------------------------------------------------*/
FoamFile
{
    version     2.0;
    format      ascii;
    class       volScalarField;
    location    "97";
    object      p_rgh;
}
// * * * * * * * * * * * * * * * * * * * * * * * * * * * * * * * * * * * * * //

dimensions      [1 -1 -2 0 0 0 0];

internalField   nonuniform List<scalar> 
21420
(
170.391
202.427
233.91
264.357
293.368
320.396
345.062
366.948
385.728
401.139
412.935
420.924
424.99
424.926
420.772
412.664
400.752
385.165
366.148
343.985
319.018
291.58
262.049
230.837
198.343
164.975
131.1
97.0879
63.2608
30.0024
3.49157
-27.4615
-57.2827
-85.6555
-112.439
-137.537
-160.902
-182.503
-202.33
-220.395
-236.721
-251.336
-264.28
-275.585
-285.294
-293.442
-300.063
-305.188
-308.844
-311.055
-311.812
-311.117
-308.938
-305.328
-300.234
-293.655
-285.559
-275.9
-264.669
-251.825
-237.344
-221.205
-203.378
-183.873
-162.717
-139.931
-115.569
-89.7154
-62.4673
-33.9523
-4.29053
26.4366
58.9174
91.0113
123.227
155.352
187.132
218.268
248.433
277.301
304.55
329.837
352.836
373.232
390.729
405.056
415.973
423.306
426.927
426.697
422.691
414.873
403.364
388.244
369.72
348.012
323.389
296.156
266.66
235.277
202.405
168.457
133.862
99.0414
64.4074
30.347
-2.78528
-34.6855
-65.0939
-93.8074
-120.675
-145.593
-168.502
-189.385
-208.245
-225.116
-240.042
-253.08
-264.294
-273.752
-281.517
-287.654
-292.221
-295.285
-296.899
-297.096
-295.913
-293.434
-289.664
-284.631
-278.334
-270.769
-261.927
-251.775
-240.281
-227.402
-213.09
-197.302
-179.991
-161.121
-140.67
-118.628
-95.0102
-69.8542
-43.2253
-15.2179
14.0381
44.3812
75.6142
107.453
139.628
171.826
203.7
234.874
264.952
293.527
320.185
344.519
366.143
384.695
399.848
411.325
418.9
422.386
421.702
416.836
407.873
394.866
378.042
357.662
334.043
307.554
278.607
247.639
215.105
181.466
147.176
112.671
78.3537
44.6875
11.8484
-19.7894
-49.9946
-78.5783
-105.402
-130.377
-153.45
-174.603
-193.845
-211.198
-226.699
-240.392
-252.329
-262.581
-271.218
-278.317
-283.952
-288.182
-291.071
-292.684
-293.028
-292.116
-290.021
-286.708
-282.17
-276.386
-269.324
-260.95
-251.229
-240.126
-227.596
-213.601
-198.108
-181.077
-162.481
-142.303
-120.538
-97.2031
-72.338
-46.0102
-18.315
10.6159
40.6134
71.4789
102.941
134.7
166.432
197.775
228.338
257.708
285.459
311.166
334.413
354.806
371.987
385.642
395.507
401.382
403.065
400.632
394.003
383.272
368.62
350.289
328.586
303.869
276.536
247.016
215.762
183.234
149.892
116.183
82.5559
49.3383
16.9005
-14.4639
-44.5108
-73.0438
-99.9101
-124.998
-148.235
-169.58
-189.029
-206.599
-222.319
-236.233
-248.407
-258.908
-267.796
-275.143
-281.023
-285.499
-288.648
-290.499
-291.068
-290.46
-288.689
-285.777
-281.747
-276.601
-270.337
-262.956
-254.434
-244.724
-233.795
-221.587
-208.006
-192.986
-176.463
-158.363
-138.628
-117.19
-94.0195
-69.1269
-42.5592
-14.4028
15.1756
45.8166
77.0695
109.036
141.312
173.379
204.728
234.918
263.441
289.816
313.631
334.481
352.024
365.969
376.094
382.273
384.356
381.984
375.549
365.243
351.291
333.97
313.621
290.65
265.433
238.379
209.912
180.428
150.315
119.925
89.6128
59.7646
31.4051
2.99836
-24.8295
-51.8186
-77.7873
-102.627
-126.264
-148.635
-169.698
-189.403
-207.717
-224.606
-240.03
-253.953
-266.345
-277.169
-286.399
-294.004
-299.962
-304.269
-306.92
-307.882
-306.772
-303.906
-299.284
-292.945
-284.923
-275.197
-263.775
170.38
202.432
233.932
264.397
293.426
320.472
345.154
367.057
385.851
401.275
413.081
421.076
425.146
425.093
420.924
412.813
400.89
385.292
366.26
344.081
319.097
291.641
262.093
230.863
198.352
164.969
131.08
97.0546
63.2157
29.935
3.43649
-27.5356
-57.3623
-85.7373
-112.522
-137.62
-160.983
-182.583
-202.408
-220.471
-236.794
-251.407
-264.348
-275.651
-285.358
-293.504
-300.123
-305.247
-308.902
-311.112
-311.868
-311.172
-308.996
-305.386
-300.293
-293.716
-285.621
-275.965
-264.736
-251.894
-237.414
-221.278
-203.452
-183.948
-162.792
-140.005
-115.642
-89.7871
-62.5363
-34.0183
-4.35319
26.3777
58.878
90.978
123.203
155.338
187.129
218.278
248.458
277.341
304.604
329.907
352.921
373.331
390.841
405.178
416.105
423.445
427.07
426.848
422.83
415.009
403.493
388.365
369.828
348.106
323.467
296.217
266.703
235.302
202.412
168.446
133.833
98.9974
64.3491
30.2763
-2.86605
-34.7742
-65.1882
-93.9052
-120.774
-145.692
-168.601
-189.481
-208.339
-225.206
-240.129
-253.163
-264.374
-273.828
-281.59
-287.724
-292.289
-295.35
-296.963
-297.155
-295.973
-293.493
-289.723
-284.689
-278.393
-270.829
-261.988
-251.839
-240.347
-227.471
-213.161
-197.376
-180.067
-161.199
-140.75
-118.709
-95.0913
-69.9345
-43.3033
-15.2928
13.9679
44.3175
75.5594
107.409
139.595
171.806
203.695
234.886
264.982
293.575
320.251
344.604
366.245
384.813
399.98
411.468
419.052
422.548
421.856
416.987
408.019
395.002
378.165
357.769
334.131
307.624
278.656
247.668
215.115
181.457
147.15
112.629
78.3015
44.6166
11.7712
-19.8735
-50.0837
-78.6705
-105.496
-130.47
-153.542
-174.693
-193.933
-211.283
-226.781
-240.471
-252.405
-262.653
-271.287
-278.383
-284.014
-288.241
-291.129
-292.74
-293.081
-292.171
-290.075
-286.763
-282.226
-276.443
-269.383
-261.011
-251.293
-240.191
-227.663
-213.672
-198.18
-181.151
-162.557
-142.381
-120.617
-97.2817
-72.4158
-46.0858
-18.3871
10.5493
40.5536
71.4275
102.9
134.672
166.419
197.778
228.358
257.746
285.516
311.242
334.507
354.918
372.114
385.781
395.656
401.537
403.23
400.785
394.154
383.415
368.75
350.404
328.683
303.947
276.594
247.055
215.78
183.233
149.873
116.146
82.5071
49.2764
16.8286
-14.5434
-44.5959
-73.1326
-100.001
-125.089
-148.325
-169.669
-189.116
-206.683
-222.399
-236.31
-248.48
-258.977
-267.862
-275.206
-281.083
-285.556
-288.703
-290.548
-291.118
-290.509
-288.736
-285.824
-281.794
-276.648
-270.385
-263.006
-254.485
-244.777
-233.851
-221.647
-208.07
-193.053
-176.535
-158.439
-138.707
-117.272
-94.1024
-69.2096
-42.64
-14.4796
15.1045
45.7576
77.0206
109.001
141.294
173.38
204.749
234.96
263.504
289.899
313.734
334.6
352.158
366.114
376.247
382.429
384.52
382.135
375.696
365.379
351.415
334.078
313.712
290.722
265.488
238.416
209.931
180.432
150.304
119.901
89.5761
59.7166
31.3666
2.9524
-24.8819
-51.8752
-77.8465
-102.688
-126.325
-148.697
-169.76
-189.466
-207.78
-224.669
-240.094
-254.017
-266.409
-277.234
-286.464
-294.07
-300.028
-304.336
-306.986
-307.946
-306.839
-303.972
-299.349
-293.01
-284.988
-275.262
-263.839
170.358
202.442
233.976
264.477
293.541
320.623
345.34
367.275
386.098
401.547
413.373
421.382
425.456
425.426
421.227
413.11
401.167
385.545
366.485
344.274
319.255
291.764
262.179
230.914
198.369
164.955
131.038
96.9881
63.1259
29.8045
3.32211
-27.6845
-57.5217
-85.9009
-112.687
-137.785
-161.146
-182.743
-202.564
-220.622
-236.94
-251.549
-264.484
-275.783
-285.485
-293.628
-300.244
-305.365
-309.017
-311.225
-311.982
-311.281
-309.111
-305.501
-300.41
-293.836
-285.744
-276.092
-264.867
-252.029
-237.554
-221.421
-203.597
-184.096
-162.94
-140.152
-115.787
-89.9275
-62.6712
-34.147
-4.47486
26.2636
58.803
90.9154
123.157
155.313
187.128
218.304
248.513
277.425
304.72
330.052
353.097
373.536
391.072
405.433
416.379
423.734
427.366
427.162
423.117
415.293
403.763
388.617
370.056
348.306
323.636
296.352
266.802
235.365
202.438
168.437
133.79
98.9227
64.246
30.1487
-3.01384
-34.9376
-65.3629
-94.0867
-120.959
-145.876
-168.783
-189.658
-208.51
-225.371
-240.286
-253.313
-264.517
-273.964
-281.721
-287.849
-292.409
-295.466
-297.074
-297.258
-296.077
-293.595
-289.823
-284.789
-278.494
-270.932
-262.094
-251.949
-240.461
-227.59
-213.286
-197.506
-180.202
-161.339
-140.893
-118.853
-95.2366
-70.0782
-43.4426
-15.4259
13.8436
44.2069
75.4662
107.335
139.545
171.783
203.702
234.925
265.056
293.686
320.399
344.788
366.464
385.064
400.259
411.769
419.369
422.886
422.177
417.306
408.324
395.289
378.425
357.996
334.322
307.776
278.768
247.74
215.147
181.452
147.11
112.558
78.2074
44.4897
11.6295
-20.0289
-50.249
-78.8422
-105.67
-130.644
-153.713
-174.861
-194.095
-211.44
-226.933
-240.615
-252.542
-262.784
-271.41
-278.499
-284.124
-288.347
-291.232
-292.839
-293.174
-292.267
-290.171
-286.859
-282.324
-276.544
-269.488
-261.12
-251.406
-240.308
-227.785
-213.799
-198.312
-181.287
-162.697
-142.524
-120.761
-97.426
-72.5582
-46.224
-18.5182
10.4287
40.4468
71.3374
102.832
134.629
166.404
197.795
228.41
257.834
285.642
311.406
334.708
355.152
372.379
386.072
395.966
401.859
403.569
401.104
394.468
383.712
369.022
350.645
328.889
304.116
276.723
247.143
215.829
183.243
149.847
116.086
82.4205
49.1639
16.6964
-14.691
-44.7548
-73.299
-100.171
-125.261
-148.496
-169.837
-189.279
-206.84
-222.55
-236.454
-248.618
-259.108
-267.986
-275.323
-281.194
-285.663
-288.805
-290.641
-291.214
-290.602
-288.826
-285.913
-281.884
-276.739
-270.477
-263.101
-254.584
-244.881
-233.96
-221.763
-208.193
-193.185
-176.675
-158.587
-138.862
-117.432
-94.2655
-69.3727
-42.7993
-14.631
14.9645
45.6406
76.9244
108.933
141.259
173.383
204.792
235.045
263.631
290.067
313.939
334.84
352.426
366.406
376.554
382.744
384.85
382.436
375.99
365.654
351.662
334.294
313.893
290.867
265.596
238.489
209.971
180.439
150.283
119.854
89.5028
59.6203
31.2898
2.86046
-24.9868
-51.9884
-77.9649
-102.809
-126.449
-148.821
-169.885
-189.591
-207.905
-224.795
-240.22
-254.145
-266.537
-277.363
-286.594
-294.2
-300.16
-304.468
-307.119
-308.074
-306.971
-304.103
-299.479
-293.139
-285.117
-275.39
-263.967
170.325
202.457
234.043
264.596
293.715
320.85
345.618
367.602
386.469
401.955
413.811
421.84
425.922
425.919
421.688
413.558
401.584
385.925
366.823
344.562
319.492
291.947
262.308
230.991
198.395
164.934
130.976
96.8882
62.9921
29.6216
3.13726
-27.909
-57.761
-86.1465
-112.935
-138.032
-161.391
-182.983
-202.798
-220.849
-237.16
-251.761
-264.689
-275.981
-285.677
-293.814
-300.425
-305.541
-309.19
-311.393
-312.149
-311.449
-309.285
-305.674
-300.586
-294.016
-285.93
-276.283
-265.065
-252.233
-237.763
-221.635
-203.816
-184.317
-163.162
-140.373
-116.004
-90.1383
-62.8739
-34.3401
-4.65744
26.0922
58.6901
90.821
123.088
155.275
187.127
218.342
248.595
277.552
304.892
330.271
353.362
373.844
391.419
405.815
416.79
424.168
427.812
427.627
423.555
415.724
404.172
388.998
370.401
348.608
323.89
296.556
266.953
235.461
202.48
168.425
133.728
98.8124
64.0929
29.959
-3.23395
-35.1812
-65.6234
-94.3574
-121.234
-146.152
-169.054
-189.923
-208.766
-225.617
-240.521
-253.537
-264.731
-274.168
-281.915
-288.035
-292.587
-295.637
-297.239
-297.413
-296.232
-293.745
-289.973
-284.937
-278.643
-271.086
-262.252
-252.112
-240.631
-227.767
-213.472
-197.699
-180.403
-161.547
-141.105
-119.069
-95.4528
-70.2919
-43.6502
-15.6239
13.6592
44.0425
75.3279
107.226
139.471
171.749
203.713
234.986
265.17
293.855
320.623
345.067
366.795
385.442
400.679
412.223
419.846
423.385
422.67
417.79
408.786
395.721
378.816
358.339
334.611
308.006
278.938
247.849
215.198
181.446
147.051
112.453
78.0648
44.3035
11.4183
-20.2609
-50.4959
-79.0984
-105.931
-130.904
-153.97
-175.112
-194.339
-211.675
-227.158
-240.831
-252.748
-262.979
-271.594
-278.673
-284.289
-288.505
-291.384
-292.984
-293.313
-292.409
-290.312
-287.002
-282.47
-276.695
-269.644
-261.282
-251.575
-240.483
-227.967
-213.988
-198.508
-181.49
-162.906
-142.737
-120.976
-97.6413
-72.7708
-46.4301
-18.7134
10.2489
40.2877
71.2033
102.731
134.566
166.383
197.822
228.489
257.969
285.834
311.654
335.011
355.507
372.779
386.51
396.434
402.344
404.075
401.59
394.942
384.16
369.433
351.01
329.201
304.37
276.918
247.277
215.903
183.259
149.81
116.001
82.2877
48.9966
16.4995
-14.9112
-44.9919
-73.5475
-100.426
-125.518
-148.751
-170.088
-189.523
-207.075
-222.775
-236.671
-248.824
-259.304
-268.172
-275.5
-281.362
-285.824
-288.957
-290.783
-291.357
-290.74
-288.961
-286.047
-282.018
-276.874
-270.616
-263.244
-254.732
-245.036
-234.124
-221.937
-208.379
-193.383
-176.886
-158.809
-139.094
-117.673
-94.5106
-69.6177
-43.0386
-14.8583
14.7546
45.464
76.7795
108.83
141.207
173.387
204.857
235.172
263.822
290.318
314.247
335.199
352.829
366.844
377.015
383.214
385.338
382.894
376.435
366.065
352.033
334.618
314.166
291.085
265.759
238.598
210.029
180.451
150.252
119.782
89.3927
59.4753
31.1749
2.72235
-25.1443
-52.1585
-78.1427
-102.992
-126.634
-149.008
-170.072
-189.779
-208.094
-224.985
-240.411
-254.336
-266.73
-277.557
-286.789
-294.396
-300.357
-304.667
-307.317
-308.268
-307.169
-304.299
-299.674
-293.333
-285.31
-275.584
-264.16
170.281
202.476
234.131
264.755
293.946
321.152
345.989
368.039
386.963
402.499
414.395
422.451
426.545
426.562
422.312
414.156
402.139
386.432
367.273
344.948
319.809
292.192
262.479
231.093
198.429
164.906
130.892
96.755
62.8146
29.3864
2.88172
-28.2102
-58.0807
-86.4742
-113.266
-138.362
-161.718
-183.303
-203.11
-221.152
-237.453
-252.044
-264.962
-276.245
-285.932
-294.061
-300.665
-305.777
-309.42
-311.618
-312.371
-311.675
-309.516
-305.904
-300.821
-294.256
-286.177
-276.538
-265.328
-252.504
-238.042
-221.921
-204.107
-184.612
-163.459
-140.668
-116.293
-90.4197
-63.1443
-34.5976
-4.90078
25.8638
58.5388
90.6948
122.995
155.224
187.125
218.393
248.704
277.721
305.123
330.563
353.715
374.255
391.883
406.326
417.339
424.746
428.407
428.232
424.152
416.303
404.718
389.506
370.86
349.011
324.23
296.828
267.154
235.59
202.535
168.41
133.644
98.6652
63.8888
29.7057
-3.52752
-35.5062
-65.971
-94.7185
-121.601
-146.519
-169.416
-190.276
-209.108
-225.945
-240.834
-253.836
-265.016
-274.439
-282.174
-288.282
-292.825
-295.864
-297.455
-297.625
-296.438
-293.945
-290.171
-285.135
-278.842
-271.29
-262.461
-252.329
-240.857
-228.003
-213.719
-197.957
-180.671
-161.824
-141.389
-119.357
-95.7412
-70.5767
-43.9271
-15.888
13.4137
43.8225
75.1435
107.081
139.372
171.705
203.729
235.068
265.322
294.079
320.922
345.439
367.237
385.948
401.24
412.829
420.484
424.038
423.336
418.44
409.404
396.297
379.339
358.797
334.996
308.314
279.165
247.995
215.264
181.438
146.973
112.313
77.872
44.057
11.1366
-20.5708
-50.8256
-79.4405
-106.278
-131.251
-154.311
-175.446
-194.663
-211.988
-227.46
-241.119
-253.022
-263.239
-271.84
-278.905
-284.509
-288.715
-291.586
-293.178
-293.501
-292.599
-290.5
-287.193
-282.665
-276.896
-269.852
-261.498
-251.799
-240.716
-228.209
-214.24
-198.769
-181.76
-163.185
-143.021
-121.263
-97.9288
-73.0546
-46.7053
-18.974
10.0087
40.075
71.0242
102.596
134.481
166.356
197.858
228.595
258.148
286.089
311.986
335.416
355.98
373.313
387.096
397.058
402.993
404.743
402.245
395.576
384.758
369.982
351.497
329.618
304.711
277.179
247.457
216.002
183.282
149.76
115.887
82.1115
48.7733
16.2367
-15.2049
-45.3083
-73.879
-100.766
-125.86
-149.091
-170.422
-189.849
-207.389
-223.076
-236.959
-249.099
-259.564
-268.42
-275.735
-281.586
-286.037
-289.159
-290.975
-291.546
-290.924
-289.141
-286.226
-282.197
-277.055
-270.802
-263.434
-254.929
-245.242
-234.343
-222.17
-208.627
-193.648
-177.166
-159.105
-139.405
-117.994
-94.8377
-69.9448
-43.358
-15.1617
14.4752
45.2273
76.5852
108.693
141.138
173.392
204.943
235.341
264.075
290.653
314.658
335.678
353.367
367.428
377.63
383.843
385.975
383.517
377.031
366.615
352.528
335.051
314.529
291.374
265.977
238.744
210.107
180.466
150.209
119.687
89.2457
59.281
31.0222
2.53778
-25.3548
-52.3856
-78.3799
-103.235
-126.88
-149.256
-170.321
-190.029
-208.345
-225.237
-240.664
-254.591
-266.987
-277.815
-287.048
-294.657
-300.62
-304.93
-307.578
-308.532
-307.433
-304.56
-299.934
-293.592
-285.569
-275.841
-264.417
170.225
202.5
234.241
264.954
294.235
321.53
346.454
368.584
387.582
403.179
415.125
423.217
427.326
427.355
423.096
414.901
402.835
387.067
367.836
345.429
320.205
292.498
262.694
231.219
198.471
164.87
130.787
96.5884
62.5938
29.0993
2.55455
-28.5894
-58.4813
-86.8844
-113.679
-138.775
-162.126
-183.704
-203.501
-221.531
-237.819
-252.397
-265.303
-276.574
-286.251
-294.371
-300.966
-306.071
-309.708
-311.9
-312.65
-311.957
-309.803
-306.191
-301.113
-294.556
-286.486
-276.857
-265.657
-252.844
-238.391
-222.279
-204.472
-184.981
-163.829
-141.036
-116.655
-90.772
-63.4829
-34.9195
-5.20478
25.5782
58.3487
90.5361
122.878
155.16
187.121
218.457
248.84
277.932
305.41
330.928
354.156
374.768
392.463
406.964
418.027
425.47
429.151
428.981
424.902
417.028
405.403
390.142
371.436
349.515
324.655
297.168
267.405
235.75
202.604
168.39
133.539
98.4805
63.6325
29.3881
-3.8955
-35.9135
-66.4063
-95.1709
-122.061
-146.978
-169.869
-190.717
-209.535
-226.355
-241.226
-254.211
-265.372
-274.779
-282.498
-288.592
-293.122
-296.148
-297.726
-297.89
-296.695
-294.196
-290.419
-285.382
-279.092
-271.545
-262.723
-252.601
-241.14
-228.299
-214.029
-198.28
-181.007
-162.171
-141.744
-119.717
-96.1023
-70.9335
-44.2741
-16.2191
13.1064
43.5459
74.9123
106.899
139.248
171.648
203.747
235.169
265.511
294.36
321.295
345.904
367.79
386.581
401.943
413.588
421.283
424.855
424.167
419.255
410.178
397.019
379.993
359.37
335.477
308.698
279.448
248.177
215.347
181.426
146.874
112.136
77.6284
43.7493
10.7834
-20.9592
-51.239
-79.8692
-106.714
-131.685
-154.739
-175.864
-195.069
-212.38
-227.837
-241.48
-253.365
-263.564
-272.147
-279.196
-284.784
-288.978
-291.839
-293.42
-293.738
-292.836
-290.736
-287.432
-282.91
-277.147
-270.113
-261.769
-252.08
-241.008
-228.513
-214.556
-199.097
-182.099
-163.533
-143.376
-121.623
-98.2888
-73.4102
-47.0499
-19.3008
9.70745
39.808
70.7994
102.427
134.374
166.32
197.903
228.726
258.372
286.408
312.4
335.922
356.572
373.982
387.829
397.84
403.805
405.572
403.071
396.371
385.508
370.669
352.107
330.14
305.137
277.505
247.681
216.127
183.309
149.697
115.743
81.8915
48.4936
15.9075
-15.5728
-45.7045
-74.294
-101.191
-126.288
-149.517
-170.84
-190.256
-207.781
-223.453
-237.32
-249.443
-259.89
-268.73
-276.03
-281.865
-286.304
-289.411
-291.217
-291.783
-291.153
-289.366
-286.449
-282.42
-277.281
-271.034
-263.672
-255.176
-245.501
-234.616
-222.46
-208.937
-193.978
-177.518
-159.476
-139.793
-118.395
-95.247
-70.3542
-43.7579
-15.5413
14.1269
44.9285
76.3407
108.52
141.05
173.398
205.049
235.551
264.393
291.072
315.171
336.278
354.04
368.158
378.4
384.631
386.763
384.302
377.776
367.304
353.148
335.592
314.982
291.737
266.248
238.925
210.204
180.484
150.155
119.567
89.0617
59.0366
30.832
2.30639
-25.6188
-52.67
-78.6768
-103.539
-127.189
-149.567
-170.633
-190.342
-208.659
-225.552
-240.982
-254.91
-267.308
-278.138
-287.373
-294.983
-300.947
-305.257
-307.904
-308.863
-307.762
-304.887
-300.259
-293.916
-285.891
-276.163
-264.738
170.157
202.527
234.372
265.192
294.582
321.984
347.011
369.24
388.324
403.997
416.003
424.136
428.266
428.303
424.036
415.795
403.67
387.828
368.512
346.008
320.679
292.864
262.95
231.37
198.52
164.826
130.66
96.3881
62.33
28.7615
2.15395
-29.0478
-58.9634
-87.3773
-114.176
-139.271
-162.616
-184.185
-203.97
-221.986
-238.259
-252.821
-265.713
-276.97
-286.633
-294.742
-301.328
-306.423
-310.054
-312.239
-312.985
-312.294
-310.146
-306.536
-301.465
-294.916
-286.857
-277.24
-266.052
-253.251
-238.81
-222.708
-204.909
-185.425
-164.275
-141.479
-117.09
-91.1952
-63.8896
-35.3057
-5.5694
25.2343
58.12
90.3446
122.737
155.082
187.116
218.532
249.002
278.185
305.754
331.365
354.685
375.385
393.159
407.731
418.852
426.34
430.045
429.881
425.802
417.898
406.225
390.906
372.126
350.12
325.166
297.576
267.707
235.942
202.687
168.365
133.411
98.2575
63.3233
29.0058
-4.33871
-36.4038
-66.9299
-95.7152
-122.614
-147.53
-170.414
-191.248
-210.048
-226.848
-241.697
-254.66
-265.8
-275.187
-282.887
-288.964
-293.478
-296.489
-298.052
-298.208
-297.004
-294.497
-290.717
-285.679
-279.392
-271.851
-263.038
-252.927
-241.48
-228.654
-214.401
-198.667
-181.41
-162.587
-142.171
-120.151
-96.5364
-71.3628
-44.6918
-16.6173
12.7366
43.2122
74.6338
106.678
139.098
171.578
203.769
235.289
265.737
294.697
321.743
346.463
368.453
387.34
402.786
414.5
422.243
425.839
425.163
420.234
411.11
397.887
380.779
360.057
336.056
309.158
279.787
248.394
215.446
181.412
146.755
111.922
77.3334
43.3797
10.3582
-21.4269
-51.7365
-80.3851
-107.237
-132.208
-155.254
-176.367
-195.557
-212.852
-228.29
-241.913
-253.778
-263.954
-272.516
-279.544
-285.115
-289.293
-292.141
-293.711
-294.023
-293.12
-291.019
-287.718
-283.203
-277.449
-270.426
-262.094
-252.418
-241.359
-228.878
-214.935
-199.49
-182.507
-163.952
-143.803
-122.056
-98.722
-73.8378
-47.4643
-19.6943
9.34446
39.4856
70.5286
102.223
134.245
166.277
197.955
228.883
258.64
286.79
312.897
336.53
357.283
374.785
388.709
398.78
404.783
406.566
404.063
397.327
386.409
371.495
352.84
330.766
305.648
277.896
247.95
216.275
183.341
149.62
115.568
81.627
48.1568
15.5113
-16.0154
-46.1811
-74.793
-101.702
-126.803
-150.028
-171.342
-190.744
-208.253
-223.905
-237.753
-249.855
-260.282
-269.101
-276.383
-282.201
-286.623
-289.714
-291.509
-292.066
-291.428
-289.636
-286.717
-282.688
-277.552
-271.311
-263.957
-255.472
-245.811
-234.944
-222.808
-209.308
-194.374
-177.939
-159.921
-140.258
-118.878
-95.7389
-70.8464
-44.2387
-15.9975
13.709
44.5693
76.0454
108.312
140.943
173.404
205.177
235.804
264.773
291.574
315.788
336.999
354.848
369.036
379.326
385.579
387.711
385.242
378.67
368.132
353.892
336.241
315.527
292.171
266.572
239.143
210.319
180.506
150.091
119.424
88.8404
58.7407
30.6049
2.02771
-25.9366
-53.0121
-79.0336
-103.905
-127.559
-149.94
-171.008
-190.718
-209.036
-225.931
-241.362
-255.293
-267.693
-278.525
-287.762
-295.375
-301.34
-305.65
-308.296
-309.258
-308.156
-305.279
-300.648
-294.304
-286.279
-276.55
-265.123
170.076
202.558
234.524
265.469
294.987
322.514
347.661
370.004
389.191
404.951
417.029
425.211
429.365
429.411
425.129
416.838
404.645
388.717
369.301
346.682
321.233
293.292
263.249
231.544
198.577
164.774
130.511
96.1538
62.0234
28.3748
1.67712
-29.5867
-59.5274
-87.9532
-114.757
-139.851
-163.188
-184.746
-204.517
-222.516
-238.772
-253.316
-266.19
-277.431
-287.079
-295.174
-301.749
-306.835
-310.457
-312.635
-313.378
-312.688
-310.545
-306.938
-301.874
-295.335
-287.289
-277.687
-266.513
-253.726
-239.3
-223.209
-205.42
-185.943
-164.795
-141.996
-117.598
-91.6897
-64.3646
-35.7561
-5.99476
24.831
57.8531
90.1192
122.57
154.99
187.11
218.619
249.189
278.48
306.155
331.876
355.302
376.105
393.972
408.626
419.817
427.355
431.09
430.935
426.852
418.913
407.187
391.797
372.932
350.826
325.76
298.052
268.058
236.165
202.782
168.335
133.261
97.9954
62.9606
28.5579
-4.85794
-36.978
-67.5427
-96.3517
-123.261
-148.176
-171.05
-191.869
-210.647
-227.423
-242.248
-255.184
-266.3
-275.663
-283.342
-289.398
-293.894
-296.888
-298.434
-298.579
-297.364
-294.849
-291.064
-286.026
-279.742
-272.208
-263.406
-253.308
-241.877
-229.069
-214.835
-199.121
-181.882
-163.074
-142.67
-120.657
-97.0443
-71.8651
-45.1806
-17.083
12.3034
42.8204
74.3076
106.42
138.921
171.496
203.792
235.428
266
295.088
322.266
347.114
369.227
388.227
403.771
415.565
423.365
426.992
426.326
421.375
412.198
398.901
381.696
360.86
336.73
309.695
280.182
248.647
215.559
181.393
146.613
111.67
76.9863
42.9472
9.86029
-21.9745
-52.319
-80.9886
-107.849
-132.818
-155.855
-176.954
-196.127
-213.403
-228.819
-242.42
-254.26
-264.411
-272.947
-279.951
-285.501
-289.661
-292.494
-294.051
-294.357
-293.45
-291.35
-288.053
-283.546
-277.802
-270.791
-262.474
-252.813
-241.769
-229.304
-215.378
-199.95
-182.983
-164.441
-144.303
-122.561
-99.2287
-74.3379
-47.9495
-20.1551
8.91919
39.1079
70.2105
101.983
134.092
166.224
198.015
229.065
258.951
287.236
313.476
337.239
358.114
375.723
389.737
399.877
405.925
407.728
405.221
398.444
387.462
372.459
353.695
331.497
306.244
278.351
248.263
216.447
183.377
149.528
115.362
81.3174
47.7623
15.0473
-16.5333
-46.7384
-75.3763
-102.3
-127.404
-150.625
-171.929
-191.315
-208.803
-224.432
-238.258
-250.337
-260.739
-269.535
-276.796
-282.592
-286.995
-290.067
-291.849
-292.395
-291.749
-289.951
-287.03
-283.001
-277.869
-271.635
-264.289
-255.816
-246.173
-235.326
-223.214
-209.741
-194.837
-178.431
-160.441
-140.803
-119.441
-96.3137
-71.4218
-44.8008
-16.5308
13.2202
44.1473
75.6988
108.066
140.817
173.409
205.324
236.098
265.216
292.16
316.509
337.84
355.792
370.062
380.408
386.689
388.822
386.339
379.713
369.099
354.762
336.999
316.162
292.678
266.951
239.395
210.453
180.53
150.014
119.255
88.5819
58.3917
30.3417
1.70114
-26.309
-53.4124
-79.4506
-104.331
-127.991
-150.375
-171.445
-191.156
-209.475
-226.373
-241.806
-255.74
-268.142
-278.977
-288.217
-295.831
-301.798
-306.109
-308.754
-309.719
-308.616
-305.736
-301.103
-294.757
-286.731
-277.001
-265.573
169.982
202.593
234.696
265.784
295.448
323.119
348.404
370.879
390.183
406.044
418.202
426.441
430.625
430.677
426.376
418.03
405.761
389.734
370.203
347.454
321.865
293.78
263.59
231.742
198.64
164.712
130.339
95.885
61.674
27.9424
1.11992
-30.2076
-60.174
-88.6125
-115.421
-140.513
-163.843
-185.388
-205.143
-223.123
-239.358
-253.882
-266.736
-277.958
-287.589
-295.669
-302.23
-307.305
-310.918
-313.088
-313.827
-313.138
-311
-307.397
-302.342
-295.815
-287.783
-278.197
-267.04
-254.27
-239.859
-223.782
-206.005
-186.535
-165.39
-142.587
-118.18
-92.2557
-64.9081
-36.2706
-6.48095
24.3669
57.5482
89.8592
122.378
154.883
187.101
218.718
249.402
278.816
306.614
332.459
356.006
376.927
394.902
409.65
420.921
428.516
432.285
432.143
428.051
420.075
408.288
392.818
373.854
351.634
326.441
298.596
268.459
236.419
202.889
168.299
133.088
97.6936
62.5437
28.0434
-5.45408
-37.637
-68.2456
-97.0814
-124.002
-148.917
-171.779
-192.579
-211.333
-228.082
-242.878
-255.785
-266.872
-276.208
-283.861
-289.895
-294.37
-297.344
-298.872
-299.002
-297.775
-295.251
-291.461
-286.422
-280.142
-272.616
-263.826
-253.744
-242.331
-229.544
-215.331
-199.639
-182.421
-163.632
-143.242
-121.237
-97.6262
-72.4407
-45.7407
-17.6172
11.8063
42.3696
73.9335
106.122
138.717
171.399
203.817
235.585
266.299
295.535
322.863
347.859
370.113
389.242
404.899
416.784
424.65
428.313
427.657
422.681
413.445
400.061
382.746
361.779
337.502
310.308
280.633
248.934
215.687
181.37
146.449
111.38
76.5862
42.4511
9.28883
-22.603
-52.9872
-81.6808
-108.551
-133.518
-156.544
-177.626
-196.78
-214.033
-229.425
-243
-254.811
-264.933
-273.44
-280.416
-285.942
-290.082
-292.898
-294.44
-294.738
-293.828
-291.727
-288.436
-283.937
-278.206
-271.21
-262.908
-253.264
-242.239
-229.792
-215.885
-200.476
-183.527
-165.001
-144.876
-123.141
-99.8089
-74.9109
-48.506
-20.6837
8.43112
38.6741
69.8444
101.707
133.915
166.162
198.081
229.271
259.306
287.744
314.139
338.051
359.064
376.796
390.915
401.135
407.234
409.06
406.546
399.724
388.668
373.563
354.674
332.333
306.926
278.872
248.62
216.643
183.416
149.422
115.124
80.9619
47.3094
14.515
-17.1272
-47.3772
-76.0446
-102.984
-128.092
-151.309
-172.6
-191.967
-209.433
-225.036
-238.836
-250.888
-261.261
-270.03
-277.267
-283.039
-287.42
-290.472
-292.238
-292.771
-292.115
-290.31
-287.387
-283.358
-278.231
-272.005
-264.669
-256.21
-246.587
-235.763
-223.677
-210.235
-195.365
-178.994
-161.035
-141.426
-120.086
-96.9719
-72.0808
-45.4446
-17.1419
12.6597
43.6574
75.2996
107.783
140.67
173.414
205.49
236.433
265.722
292.83
317.333
338.802
356.873
371.236
381.646
387.96
390.096
387.594
380.905
370.206
355.757
337.866
316.889
293.256
267.382
239.682
210.604
180.556
149.925
119.062
88.2858
57.9877
30.0435
1.32584
-26.7367
-53.8712
-79.9281
-104.82
-128.486
-150.873
-171.944
-191.657
-209.978
-226.878
-242.314
-256.251
-268.656
-279.494
-288.736
-296.353
-302.322
-306.633
-309.278
-310.246
-309.141
-306.258
-301.623
-295.275
-287.247
-277.517
-266.088
169.874
202.629
234.889
266.139
295.967
323.799
349.241
371.863
391.3
407.274
419.524
427.827
432.045
432.102
427.779
419.373
407.018
390.88
371.218
348.323
322.576
294.328
263.972
231.963
198.708
164.64
130.144
95.5813
61.2816
27.4691
0.476405
-30.9121
-60.9036
-89.3555
-116.169
-141.26
-164.581
-186.111
-205.847
-223.806
-240.018
-254.519
-267.35
-278.551
-288.163
-296.225
-302.771
-307.834
-311.436
-313.598
-314.334
-313.645
-311.511
-307.913
-302.868
-296.354
-288.338
-278.771
-267.632
-254.881
-240.489
-224.427
-206.663
-187.202
-166.06
-143.254
-118.836
-92.8936
-65.5203
-36.8491
-7.02788
23.8405
57.2055
89.5635
122.159
154.762
187.09
218.828
249.641
279.192
307.129
333.115
356.799
377.852
395.949
410.803
422.165
429.825
433.633
433.504
429.401
421.383
409.528
393.967
374.892
352.543
327.206
299.207
268.909
236.704
203.009
168.257
132.89
97.3514
62.0716
27.4613
-6.12812
-38.3817
-69.0397
-97.9051
-124.839
-149.751
-172.6
-193.379
-212.106
-228.824
-243.587
-256.461
-267.515
-276.821
-284.446
-290.455
-294.905
-297.857
-299.365
-299.478
-298.237
-295.703
-291.907
-286.868
-280.593
-273.075
-264.299
-254.234
-242.842
-230.078
-215.891
-200.224
-183.029
-164.261
-143.886
-121.891
-98.2827
-73.0903
-46.373
-18.2205
11.2445
41.8589
73.5112
105.784
138.484
171.288
203.842
235.76
266.634
296.037
323.533
348.696
371.109
390.385
406.17
418.158
426.099
429.803
429.157
424.153
414.85
401.37
383.929
362.814
338.37
310.998
281.139
249.256
215.83
181.341
146.262
111.05
76.1326
41.8901
8.64279
-23.3132
-53.742
-82.4621
-109.343
-134.306
-157.321
-178.384
-197.515
-214.743
-230.108
-243.654
-255.433
-265.521
-273.995
-280.94
-286.439
-290.556
-293.353
-294.878
-295.167
-294.253
-292.152
-288.866
-284.378
-278.661
-271.681
-263.398
-253.773
-242.767
-230.341
-216.456
-201.069
-184.141
-165.633
-145.521
-123.794
-100.463
-75.5579
-49.1344
-21.281
7.87967
38.1833
69.4293
101.394
133.714
166.09
198.153
229.501
259.704
288.315
314.884
338.964
360.133
378.006
392.241
402.552
408.711
410.562
408.039
401.167
390.028
374.808
355.777
333.275
307.693
279.457
249.021
216.861
183.459