/*--------------------------------*- C++ -*----------------------------------*\
| =========                 |                                                 |
| \\      /  F ield         | OpenFOAM: The Open Source CFD Toolbox           |
|  \\    /   O peration     | Version:  3.0.1                                 |
|   \\  /    A nd           | Web:      www.OpenFOAM.org                      |
|    \\/     M anipulation  |                                                 |
\*---------------------------------------------------------------------------*/
FoamFile
{
    version     2.0;
    format      ascii;
    class       surfaceScalarField;
    location    "88";
    object      alphaPhi;
}
// * * * * * * * * * * * * * * * * * * * * * * * * * * * * * * * * * * * * * //

dimensions      [0 3 -1 0 0 0 0];

internalField   nonuniform List<scalar> 
42423
(
-0.000136276
9.5449e-06
-0.000144769
8.49345e-06
-0.000152351
7.58168e-06
-0.000159046
6.69524e-06
-0.000164876
5.8291e-06
-0.000169887
5.01159e-06
-0.000174119
4.23226e-06
-0.000177596
3.47669e-06
-0.000180345
2.7487e-06
-0.00018238
2.03477e-06
-0.000183722
1.34241e-06
-0.000184399
6.76667e-07
-0.000184344
-5.46171e-08
-0.000183562
-7.81908e-07
-0.000182025
-1.53713e-06
-0.000179767
-2.25778e-06
-0.000176883
-2.88465e-06
-0.000173151
-3.7316e-06
-0.000168627
-4.5237e-06
-0.000163365
-5.26196e-06
-0.000157235
-6.13085e-06
-0.000150136
-7.09872e-06
-0.000142214
-7.92207e-06
-0.000133254
-8.95951e-06
-0.000123462
-9.79253e-06
-0.000112467
-1.0995e-05
-0.000100517
-1.19496e-05
-8.75879e-05
-1.29294e-05
-7.34952e-05
-1.40927e-05
-5.84086e-05
-1.50866e-05
-4.25194e-05
-1.58892e-05
-2.55683e-05
-1.69511e-05
-7.81179e-06
-1.77566e-05
1.05899e-05
-1.84017e-05
2.95871e-05
-1.89973e-05
4.88289e-05
-1.92419e-05
6.82862e-05
-1.94573e-05
8.76981e-05
-1.94119e-05
0.000106715
-1.90166e-05
0.000125264
-1.85494e-05
0.000142963
-1.76993e-05
0.00015957
-1.66072e-05
0.000174833
-1.52622e-05
0.000188404
-1.35713e-05
0.0002002
-1.17964e-05
0.000209983
-9.78278e-06
0.000217496
-7.51365e-06
0.0002227
-5.20406e-06
0.000225499
-2.79814e-06
0.000225774
-2.75782e-07
0.000223571
2.20333e-06
0.00021887
4.70108e-06
0.000211903
6.96642e-06
0.000202752
9.15174e-06
0.000191575
1.11763e-05
0.00017855
1.30253e-05
0.000163896
1.46545e-05
0.000147945
1.59505e-05
0.000130832
1.71129e-05
0.00011294
1.78922e-05
9.4415e-05
1.8525e-05
7.55045e-05
1.89105e-05
5.64796e-05
1.90248e-05
3.75231e-05
1.89565e-05
1.88294e-05
1.86937e-05
6.0003e-07
1.82294e-05
-1.70544e-05
1.76544e-05
-3.40419e-05
1.69875e-05
-5.0194e-05
1.61521e-05
-6.55511e-05
1.53571e-05
-7.99395e-05
1.43884e-05
-9.33632e-05
1.34237e-05
-0.000105858
1.2495e-05
-0.000117297
1.14388e-05
-0.000127709
1.04121e-05
-0.000137136
9.42718e-06
-0.000145515
8.37863e-06
-0.000152972
7.45711e-06
-0.000159399
6.42685e-06
-0.000164846
5.4469e-06
-0.000169358
4.51137e-06
-0.000172872
3.51349e-06
-0.000175362
2.48991e-06
-0.000176874
1.51212e-06
-0.000177392
5.17554e-07
-0.000176904
-4.8884e-07
-0.000175487
-1.41688e-06
-0.000173263
-2.22476e-06
-0.000170303
-2.96031e-06
-0.000166697
-3.60577e-06
-0.000162515
-4.1826e-06
-0.000157833
-4.68242e-06
-0.000152569
-5.26424e-06
-0.000146728
-5.84124e-06
-0.000140261
-6.46734e-06
-0.000133174
-7.08732e-06
-0.000125392
-7.78226e-06
-0.000116808
-8.58426e-06
-0.000107577
-9.23182e-06
-9.74483e-05
-1.01286e-05
-8.6493e-05
-1.09555e-05
-7.46608e-05
-1.18323e-05
-6.20163e-05
-1.26446e-05
-4.85469e-05
-1.34695e-05
-3.42794e-05
-1.42676e-05
-1.92785e-05
-1.5001e-05
-3.58714e-06
-1.56914e-05
1.273e-05
-1.63172e-05
2.95767e-05
-1.68468e-05
4.68453e-05
-1.72687e-05
6.43268e-05
-1.74815e-05
8.19385e-05
-1.76117e-05
9.94927e-05
-1.75543e-05
0.000116747
-1.72543e-05
0.000133528
-1.67809e-05
0.000149554
-1.60265e-05
0.000164628
-1.50741e-05
0.000178479
-1.38503e-05
0.00019089
-1.24119e-05
0.000201547
-1.06563e-05
0.000210314
-8.76752e-06
0.000216916
-6.60142e-06
0.000221181
-4.26582e-06
0.000223042
-1.8604e-06
0.000222472
5.70109e-07
0.000219304
3.16813e-06
0.000213643
5.66089e-06
0.000205546
8.09697e-06
0.000195241
1.03044e-05
0.000182811
1.24299e-05
0.000168568
1.42438e-05
0.000152703
1.5865e-05
0.000135543
1.71594e-05
0.000117339
1.82043e-05
9.84247e-05
1.89142e-05
7.89404e-05
1.94842e-05
5.9306e-05
1.96344e-05
3.96999e-05
1.96062e-05
2.04113e-05
1.92886e-05
1.60717e-06
1.88041e-05
-1.64801e-05
1.80872e-05
-3.37679e-05
1.72879e-05
-5.00848e-05
1.63169e-05
-6.53342e-05
1.52494e-05
-7.94613e-05
1.41271e-05
-9.25331e-05
1.30717e-05
-0.000104418
1.18847e-05
-0.000115226
1.08087e-05
-0.00012492
9.69316e-06
-0.000133561
8.64176e-06
-0.000141175
7.61395e-06
-0.000147882
6.7067e-06
-0.000153756
5.87428e-06
-0.000158785
5.02861e-06
-0.000163033
4.24798e-06
-0.000166535
3.50174e-06
-0.000169344
2.80923e-06
-0.00017144
2.09605e-06
-0.00017306
1.62044e-06
-0.000174025
9.6498e-07
-0.000174456
4.30582e-07
-0.000174309
-1.47218e-07
-0.000173618
-6.89988e-07
-0.000172353
-1.26585e-06
-0.000170518
-1.83447e-06
-0.000168023
-2.49523e-06
-0.000165036
-2.98725e-06
-0.000161318
-3.7173e-06
-0.000156929
-4.38872e-06
-0.000151835
-5.09483e-06
-0.000145962
-5.87224e-06
-0.000139351
-6.61169e-06
-0.000131873
-7.47728e-06
-0.000123573
-8.3004e-06
-0.000114396
-9.17716e-06
-0.000104315
-1.00805e-05
-9.34014e-05
-1.09139e-05
-8.16066e-05
-1.17948e-05
-6.89726e-05
-1.26341e-05
-5.54701e-05
-1.35025e-05
-4.11303e-05
-1.43399e-05
-2.59901e-05
-1.51402e-05
-1.01104e-05
-1.58798e-05
6.41101e-06
-1.65214e-05
2.34705e-05
-1.70595e-05
4.08888e-05
-1.74184e-05
5.84995e-05
-1.76108e-05
7.60787e-05
-1.75793e-05
9.34148e-05
-1.73362e-05
0.000110275
-1.68604e-05
0.000126329
-1.60537e-05
0.000141366
-1.50369e-05
0.000155152
-1.37861e-05
0.000167405
-1.22533e-05
0.000177959
-1.0554e-05
0.000186538
-8.57952e-06
0.000193008
-6.46959e-06
0.000197147
-4.13949e-06
0.000198861
-1.71366e-06
0.000198104
7.56295e-07
0.000194838
3.26649e-06
0.000189106
5.73219e-06
0.00018101
8.09597e-06
0.000170766
1.02438e-05
0.000158542
1.22235e-05
0.000144636
1.39065e-05
0.000129265
1.53705e-05
0.000112652
1.66129e-05
9.51719e-05
1.74804e-05
7.70225e-05
1.81495e-05
5.85487e-05
1.84737e-05
3.99273e-05
1.86214e-05
2.14112e-05
1.85161e-05
3.22129e-06
1.81899e-05
-1.44285e-05
1.76497e-05
-3.14461e-05
1.70177e-05
-4.76634e-05
1.62172e-05
-6.30614e-05
1.53981e-05
-7.75061e-05
1.44447e-05
-9.10154e-05
1.35093e-05
-0.000103549
1.25331e-05
-0.000115105
1.15569e-05
-0.000125656
1.05508e-05
-0.000135284
9.62737e-06
-0.00014394
8.65683e-06
-0.000151691
7.75044e-06
-0.000158582
6.89073e-06
-0.000164608
6.02665e-06
-0.000169818
5.21006e-06
-0.000174193
4.37517e-06
-0.000177903
3.70978e-06
-0.000180865
2.96188e-06
-0.000183124
2.25928e-06
-0.000184739
1.61515e-06
-0.000185711
9.71936e-07
-0.000186135
4.23582e-07
-0.000185971
-1.6365e-07
-0.000185256
-7.14178e-07
-0.000183997
-1.25968e-06
-0.000182229
-1.76776e-06
-0.0001798
-2.4283e-06
-0.000176946
-2.8538e-06
-0.000173384
-3.56175e-06
-0.000169294
-4.09064e-06
-0.000164488
-4.80525e-06
-0.000159114
-5.37444e-06
-0.000153108
-6.00573e-06
-0.000146498
-6.60919e-06
-0.000139221
-7.27715e-06
-0.000131257
-7.9642e-06
-0.000122449
-8.80711e-06
-0.000112837
-9.612e-06
-0.000102269
-1.05678e-05
-9.07529e-05
-1.15163e-05
-7.83543e-05
-1.23985e-05
-6.50925e-05
-1.32617e-05
-5.10713e-05
-1.40211e-05
-3.63833e-05
-1.46881e-05
-2.1124e-05
-1.52593e-05
-5.3953e-06
-1.57287e-05
1.06955e-05
-1.60908e-05
2.70214e-05
-1.6326e-05
4.34392e-05
-1.64178e-05
5.97412e-05
-1.63021e-05
7.57165e-05
-1.59754e-05
9.11597e-05
-1.54433e-05
0.000105725
-1.45654e-05
0.000119321
-1.35961e-05
0.00013166
-1.23392e-05
0.00014249
-1.08298e-05
0.000151588
-9.0981e-06
0.000158839
-7.2509e-06
0.000164111
-5.27235e-06
0.000167374
-3.26315e-06
0.000168522
-1.14783e-06
0.000167642
8.79957e-07
0.000164624
3.01743e-06
0.000159653
4.97074e-06
0.000152991
6.66202e-06
0.000144619
8.37235e-06
0.000134717
9.90155e-06
0.000123341
1.13758e-05
0.000110762
1.25798e-05
9.7093e-05
1.36686e-05
8.25565e-05
1.45365e-05
6.71104e-05
1.54461e-05
5.12711e-05
1.58393e-05
3.50301e-05
1.6241e-05
1.87855e-05
1.62446e-05
2.77441e-06
1.6011e-05
-1.29757e-05
1.57501e-05
-2.81197e-05
1.5144e-05
-4.2556e-05
1.44362e-05
-5.62135e-05
1.36575e-05
-6.89604e-05
1.27469e-05
-8.07664e-05
1.18061e-05
-9.16385e-05
1.08721e-05
-0.000101526
9.88722e-06
-0.000110472
8.94667e-06
-0.000118536
8.06353e-06
-0.000125727
7.1909e-06
-0.000132137
6.41002e-06
-0.000137799
5.66196e-06
-0.000142783
4.98424e-06
-0.000147174
4.39056e-06
-0.00015101
3.83651e-06
-0.000154341
3.33052e-06
-0.000157237
2.89604e-06
-0.000159698
2.46149e-06
-0.000161779
2.08118e-06
-0.000163472
1.69217e-06
-0.000164717
1.24505e-06
-0.000165501
7.83982e-07
-0.000165802
3.01366e-07
-0.00016549
-3.11813e-07
-0.00016454
-9.50101e-07
-0.000162817
-1.72266e-06
-0.000160317
-2.50069e-06
-0.000157043
-3.2739e-06
-0.000152698
-4.34493e-06
-0.000147409
-5.28907e-06
-0.000141177
-6.23192e-06
-0.000133713
-7.46392e-06
-0.000125179
-8.53438e-06
-0.000115443
-9.7359e-06
-0.000104625
-1.08182e-05
-9.28278e-05
-1.17967e-05
-7.9821e-05
-1.30069e-05
-6.58625e-05
-1.39585e-05
-5.11194e-05
-1.47431e-05
-3.54442e-05
-1.56753e-05
-1.90332e-05
-1.6411e-05
-2.26412e-06
-1.67691e-05
1.49607e-05
-1.72248e-05
3.23697e-05
-1.74091e-05
4.97974e-05
-1.74277e-05
6.70508e-05
-1.72534e-05
8.38377e-05
-1.6787e-05
0.000100016
-1.6178e-05
0.000115382
-1.53661e-05
0.000129702
-1.43201e-05
0.000142765
-1.30627e-05
0.00015447
-1.17058e-05
0.000164659
-1.01888e-05
0.000173188
-8.5288e-06
0.000179949
-6.76065e-06
0.000184868
-4.91957e-06
0.000187919
-3.05089e-06
0.000189059
-1.13961e-06
0.000188129
9.29445e-07
0.000185168
2.96083e-06
0.000180357
4.81116e-06
0.000173755
6.60226e-06
0.000165411
8.34365e-06
0.000155614
9.79749e-06
0.000144363
1.12503e-05
1.25803e-05
-0.000136319
1.90941e-05
-0.000144814
1.69877e-05
-0.000152397
1.51645e-05
-0.000159093
1.33914e-05
-0.000164927
1.16634e-05
-0.000169945
1.00292e-05
-0.000174179
8.46712e-06
-0.000177658
6.95573e-06
-0.000180407
5.49744e-06
-0.000182438
4.06566e-06
-0.000183775
2.67899e-06
-0.000184446
1.34789e-06
-0.000184392
-1.09067e-07
-0.00018361
-1.56393e-06
-0.000182073
-3.07368e-06
-0.000179815
-4.516e-06
-0.000176932
-5.76748e-06
-0.000173199
-7.4645e-06
-0.000168679
-9.04424e-06
-0.000163419
-1.05218e-05
-0.000157291
-1.22588e-05
-0.000150189
-1.42002e-05
-0.00014227
-1.58415e-05
-0.000133311
-1.7918e-05
-0.000123519
-1.95849e-05
-0.000112522
-2.19916e-05
-0.000100572
-2.38998e-05
-8.76428e-05
-2.5859e-05
-7.35468e-05
-2.81887e-05
-5.84532e-05
-3.01803e-05
-4.2555e-05
-3.17875e-05
-2.5608e-05
-3.38982e-05
-7.84467e-06
-3.552e-05
1.05611e-05
-3.68075e-05
2.95732e-05
-3.80094e-05
4.88256e-05
-3.84944e-05
6.82899e-05
-3.89217e-05
8.77173e-05
-3.88394e-05
0.000106746
-3.80451e-05
0.000125303
-3.71065e-05
0.000143013
-3.54093e-05
0.000159639
-3.32339e-05
0.000174918
-3.05406e-05
0.000188496
-2.71498e-05
0.000200304
-2.36047e-05
0.000210093
-1.95713e-05
0.000217613
-1.50341e-05
0.000222823
-1.04139e-05
0.000225634
-5.60913e-06
0.000225909
-5.5113e-07
0.000223691
4.4209e-06
0.000218988
9.40423e-06
0.000212021
1.39331e-05
0.000202861
1.83121e-05
0.000191677
2.23603e-05
0.000178644
2.60579e-05
0.000163977
2.93219e-05
0.000148016
3.19113e-05
0.000130891
3.42377e-05
0.000112988
3.57948e-05
9.44517e-05
3.70618e-05
7.55296e-05
3.78326e-05
5.64984e-05
3.8056e-05
3.75386e-05
3.79163e-05
1.8823e-05
3.74092e-05
5.81249e-07
3.64711e-05
-1.70859e-05
3.53215e-05
-3.4083e-05
3.39847e-05
-5.02425e-05
3.23116e-05
-6.56069e-05
3.07215e-05
-8.00022e-05
2.87837e-05
-9.34329e-05
2.68543e-05
-0.00010593
2.49919e-05
-0.000117369
2.28782e-05
-0.000127783
2.08261e-05
-0.000137212
1.8856e-05
-0.000145587
1.67539e-05
-0.000153046
1.49157e-05
-0.000159474
1.28548e-05
-0.000164926
1.08989e-05
-0.000169439
9.02369e-06
-0.000172947
7.02135e-06
-0.000175431
4.97331e-06
-0.000176939
3.01989e-06
-0.000177444
1.0226e-06
-0.000176945
-9.88621e-07
-0.000175525
-2.8371e-06
-0.000173289
-4.46146e-06
-0.000170319
-5.93063e-06
-0.000166709
-7.21616e-06
-0.000162494
-8.39727e-06
-0.000157828
-9.3489e-06
-0.000152565
-1.05282e-05
-0.000146724
-1.16823e-05
-0.000140256
-1.29355e-05
-0.000133181
-1.41626e-05
-0.000125404
-1.55595e-05
-0.000116814
-1.71743e-05
-0.000107586
-1.846e-05
-9.74675e-05
-2.02477e-05
-8.65245e-05
-2.18986e-05
-7.46996e-05
-2.36574e-05
-6.20511e-05
-2.52933e-05
-4.85803e-05
-2.69405e-05
-3.43144e-05
-2.85336e-05
-1.93113e-05
-3.00042e-05
-3.61269e-06
-3.13901e-05
1.27015e-05
-3.26314e-05
2.95607e-05
-3.37062e-05
4.68279e-05
-3.45359e-05
6.43208e-05
-3.49745e-05
8.19387e-05
-3.52296e-05
9.95047e-05
-3.51204e-05
0.000116764
-3.4514e-05
0.000133556
-3.35724e-05
0.000149596
-3.20667e-05
0.000164668
-3.01462e-05
0.000178527
-2.77096e-05
0.000190943
-2.48275e-05
0.000201597
-2.13108e-05
0.000210363
-1.75337e-05
0.000216943
-1.31817e-05
0.000221229
-8.55161e-06
0.000223093
-3.72397e-06
0.0002225
1.16267e-06
0.000219336
6.33214e-06
0.000213648
1.13489e-05
0.000205534
1.62112e-05
0.000195204
2.06346e-05
0.000182767
2.48662e-05
0.000168491
2.85203e-05
0.000152609
3.17467e-05
0.000135417
3.43513e-05
0.000117185
3.64366e-05
9.82033e-05
3.78958e-05
7.87385e-05
3.89491e-05
5.90936e-05
3.92793e-05
3.94759e-05
3.92239e-05
2.01817e-05
3.85829e-05
1.38074e-06
3.76051e-05
-1.67378e-05
3.62059e-05
-3.40298e-05
3.45799e-05
-5.03431e-05
3.26302e-05
-6.55881e-05
3.04944e-05
-7.97115e-05
2.82505e-05
-9.27901e-05
2.61505e-05
-0.000104666
2.37604e-05
-0.000115469
2.16123e-05
-0.000125148
1.93713e-05
-0.000133764
1.72585e-05
-0.000141379
1.52293e-05
-0.000148127
1.34545e-05
-0.000153972
1.17192e-05
-0.000158984
1.00408e-05
-0.000163223
8.48657e-06
-0.000166714
6.99304e-06
-0.000169522
5.61711e-06
-0.000171661
4.23484e-06
-0.000173231
3.19034e-06
-0.000174175
1.90942e-06
-0.000174591
8.46815e-07
-0.000174452
-2.867e-07
-0.000173764
-1.37762e-06
-0.000172498
-2.53157e-06
-0.000170656
-3.67668e-06
-0.000168157
-4.99433e-06
-0.000165173
-5.9717e-06
-0.000161452
-7.43769e-06
-0.000157057
-8.78399e-06
-0.00015196
-1.01913e-05
-0.000146091
-1.1741e-05
-0.000139474
-1.32287e-05
-0.00013196
-1.49921e-05
-0.000123697
-1.65628e-05
-0.000114512
-1.83625e-05
-0.000104438
-2.01547e-05
-9.35144e-05
-2.18372e-05
-8.17099e-05
-2.35993e-05
-6.90772e-05
-2.52668e-05
-5.55708e-05
-2.70089e-05
-4.12307e-05
-2.868e-05
-2.60878e-05
-3.02833e-05
-1.02018e-05
-3.17659e-05
6.34066e-06
-3.30639e-05
2.34015e-05
-3.41204e-05
4.08265e-05
-3.48435e-05
5.84517e-05
-3.52361e-05
7.60318e-05
-3.51595e-05
9.33757e-05
-3.46801e-05
0.000110256
-3.37408e-05
0.000126321
-3.21192e-05
0.000141352
-3.00675e-05
0.000155147
-2.75818e-05
0.000167397
-2.45028e-05
0.000177946
-2.11036e-05
0.000186536
-1.71689e-05
0.000193025
-1.29594e-05
0.000197147
-8.26137e-06
0.000198864
-3.43027e-06
0.000198085
1.53485e-06
0.00019479
6.56163e-06
0.000189059
1.14632e-05
0.000180934
1.62209e-05
0.000170686
2.04919e-05
0.000158448
2.44608e-05
0.000144524
2.78315e-05
0.000129164
3.07302e-05
0.000112518
3.32586e-05
9.5011e-05
3.49875e-05
7.68589e-05
3.63015e-05
5.83454e-05
3.69873e-05
3.96962e-05
3.72706e-05
2.11989e-05
3.70134e-05
3.00176e-06
3.63871e-05
-1.46583e-05
3.53098e-05
-3.16678e-05
3.40272e-05
-4.78558e-05
3.24053e-05
-6.32773e-05
3.08196e-05
-7.77254e-05
2.88928e-05
-9.12305e-05
2.70145e-05
-0.000103754
2.50569e-05
-0.000115302
2.31045e-05
-0.000125864
2.11131e-05
-0.000135478
1.92417e-05
-0.000144135
1.73135e-05
-0.000151882
1.54972e-05
-0.000158767
1.37755e-05
-0.000164789
1.20491e-05
-0.000169994
1.04148e-05
-0.000174393
8.77421e-06
-0.000178075
7.39244e-06
-0.000181036
5.92256e-06
-0.000183288
4.51187e-06
-0.000184896
3.22262e-06
-0.000185863
1.9394e-06
-0.000186281
8.41908e-07
-0.000186116
-3.29283e-07
-0.000185411
-1.41882e-06
-0.000184121
-2.54933e-06
-0.000182387
-3.50138e-06
-0.000179993
-4.8227e-06
-0.000177106
-5.73999e-06
-0.000173556
-7.11252e-06
-0.000169451
-8.19493e-06
-0.000164659
-9.59676e-06
-0.000159284
-1.07493e-05
-0.000153279
-1.20114e-05
-0.000146659
-1.3229e-05
-0.000139367
-1.45688e-05
-0.000131392
-1.5939e-05
-0.000122601
-1.75974e-05
-0.000112966
-1.92468e-05
-0.000102382
-2.11521e-05
-9.08739e-05
-2.30244e-05
-7.84558e-05
-2.48166e-05
-6.51826e-05
-2.6535e-05
-5.11576e-05
-2.80461e-05
-3.6464e-05
-2.93817e-05
-2.11809e-05
-3.05425e-05
-5.44904e-06
-3.14606e-05
1.06582e-05
-3.21982e-05
2.69989e-05
-3.26668e-05
4.34189e-05
-3.28379e-05
5.97328e-05
-3.26162e-05
7.5727e-05
-3.19697e-05
9.11924e-05
-3.0909e-05
0.000105765
-2.91385e-05
0.000119375
-2.72059e-05
0.000131724
-2.46883e-05
0.00014257
-2.16764e-05
0.000151681
-1.82087e-05
0.000158942
-1.45127e-05
0.000164211
-1.05411e-05
0.000167481
-6.53293e-06
0.000168634
-2.30068e-06
0.000167748
1.76546e-06
0.000164721
6.04387e-06
0.000159747
9.94522e-06
0.000153082
1.3327e-05
0.000144701
1.67528e-05
0.000134787
1.98162e-05
0.000123408
2.27546e-05
0.000110821
2.51663e-05
9.71463e-05
2.73434e-05
8.26048e-05
2.9078e-05
6.71435e-05
3.09074e-05
5.1296e-05
3.16868e-05
3.50486e-05
3.24883e-05
1.87873e-05
3.25059e-05
2.76938e-06
3.2029e-05
-1.29938e-05
3.15133e-05
-2.81462e-05
3.02965e-05
-4.25893e-05
2.88793e-05
-5.62519e-05
2.73202e-05
-6.90035e-05
2.54985e-05
-8.08132e-05
2.36157e-05
-9.16875e-05
2.17464e-05
-0.000101576
1.97754e-05
-0.000110524
1.7895e-05
-0.000118587
1.61269e-05
-0.000125779
1.43821e-05
-0.000132186
1.28177e-05
-0.000137845
1.13205e-05
-0.000142827
9.96673e-06
-0.000147218
8.78082e-06
-0.000151054
7.67313e-06
-0.000154384
6.66012e-06
-0.000157281
5.79288e-06
-0.000159741
4.92173e-06
-0.000161821
4.16137e-06
-0.000163517
3.3877e-06
-0.000164764
2.49234e-06
-0.000165548
1.56788e-06
-0.000165846
5.99461e-07
-0.000165539
-6.19082e-07
-0.00016459
-1.89899e-06
-0.000162871
-3.4413e-06
-0.000160377
-4.99519e-06
-0.000157097
-6.55319e-06
-0.000152757
-8.68552e-06
-0.000147469
-1.05764e-05
-0.000141239
-1.24622e-05
-0.000133773
-1.493e-05
-0.000125239
-1.70688e-05
-0.000115503
-1.94721e-05
-0.000104684
-2.16372e-05
-9.28849e-05
-2.35954e-05
-7.98741e-05
-2.60178e-05
-6.5908e-05
-2.79245e-05
-5.11596e-05
-2.94916e-05
-3.5479e-05
-3.13559e-05
-1.90584e-05
-3.28317e-05
-2.27955e-06
-3.3548e-05
1.49531e-05
-3.44575e-05
3.23692e-05
-3.48253e-05
4.98096e-05
-3.48681e-05
6.70728e-05
-3.45166e-05
8.38681e-05
-3.35823e-05
0.000100059
-3.23695e-05
0.000115444
-3.07506e-05
0.00012977
-2.86465e-05
0.000142836
-2.61286e-05
0.000154549
-2.34189e-05
0.000164744
-2.03834e-05
0.000173278
-1.70626e-05
0.000180042
-1.35249e-05
0.000184964
-9.84157e-06
0.000188016
-6.10305e-06
0.000189156
-2.27995e-06
0.000188214
1.8713e-06
0.000185248
5.92699e-06
0.000180435
9.6244e-06
0.000173826
1.3211e-05
0.000165475
1.66946e-05
0.000155671
1.96018e-05
0.000144413
2.25076e-05
2.51687e-05
-0.000136399
2.86444e-05
-0.000144893
2.54815e-05
-0.000152477
2.27484e-05
-0.000159173
2.00878e-05
-0.000165006
1.74959e-05
-0.000170022
1.5045e-05
-0.000174256
1.27012e-05
-0.000177734
1.04344e-05
-0.000180481
8.24409e-06
-0.000182512
6.09693e-06
-0.000183849
4.01553e-06
-0.000184512
2.01089e-06
-0.000184452
-1.68909e-07
-0.000183664
-2.35202e-06
-0.000182127
-4.61053e-06
-0.000179871
-6.77194e-06
-0.000176992
-8.64643e-06
-0.000173259
-1.11979e-05
-0.000168742
-1.35615e-05
-0.000163487
-1.57766e-05
-0.000157353
-1.83923e-05
-0.000150258
-2.12956e-05
-0.000142342
-2.3758e-05
-0.00013339
-2.68699e-05
-0.000123602
-2.93728e-05
-0.000112601
-3.29925e-05
-0.000100654
-3.5847e-05
-8.77206e-05
-3.87925e-05
-7.36205e-05
-4.22889e-05
-5.85245e-05
-4.52763e-05
-4.26194e-05
-4.76927e-05
-2.56762e-05
-5.08416e-05
-7.89892e-06
-5.32973e-05
1.0527e-05
-5.52335e-05
2.95541e-05
-5.70366e-05
4.88186e-05
-5.7759e-05
6.83072e-05
-5.84103e-05
8.77552e-05
-5.82876e-05
0.000106794
-5.70843e-05
0.000125371
-5.56833e-05
0.000143104
-5.31423e-05
0.000159749
-4.98794e-05
0.00017505
-4.5841e-05
0.000188649
-4.07494e-05
0.000200475
-3.543e-05
0.000210273
-2.937e-05
0.000217808
-2.25692e-05
0.000223018
-1.56236e-05
0.000225833
-8.42419e-06
0.000226107
-8.25325e-07
0.000223879
6.64926e-06
0.000219162
1.41203e-05
0.000212195
2.09009e-05
0.000203021
2.74861e-05
0.000191818
3.35633e-05
0.000178773
3.91025e-05
0.000164085
4.40094e-05
0.000148102
4.78944e-05
0.000130961
5.13785e-05
0.000113037
5.3719e-05
9.44807e-05
5.56182e-05
7.55401e-05
5.67732e-05
5.64927e-05
5.71034e-05
3.75242e-05
5.68847e-05
1.87886e-05
5.61448e-05
5.32529e-07
5.47272e-05
-1.71472e-05
5.30012e-05
-3.41558e-05
5.09933e-05
-5.03217e-05
4.84774e-05
-6.56925e-05
4.60922e-05
-8.00896e-05
4.31809e-05
-9.35211e-05
4.02858e-05
-0.000106023
3.74937e-05
-0.000117469
3.43242e-05
-0.000127882
3.12394e-05
-0.000137312
2.82857e-05
-0.000145686
2.51282e-05
-0.000153152
2.23816e-05
-0.000159577
1.92788e-05
-0.000165025
1.63473e-05
-0.000169538
1.35361e-05
-0.000173052
1.0535e-05
-0.000175542
7.46298e-06
-0.000177046
4.52431e-06
-0.000177533
1.50861e-06
-0.000177024
-1.49794e-06
-0.000175599
-4.26222e-06
-0.000173351
-6.7102e-06
-0.000170378
-8.904e-06
-0.000166765
-1.0829e-05
-0.000162573
-1.25902e-05
-0.000157892
-1.40301e-05
-0.000152643
-1.57774e-05
-0.000146816
-1.75095e-05
-0.000140368
-1.93841e-05
-0.00013329
-2.12414e-05
-0.000125531
-2.33182e-05
-0.000116984
-2.57219e-05
-0.000107741
-2.77026e-05
-9.76385e-05
-3.03508e-05
-8.6701e-05
-3.28363e-05
-7.48367e-05
-3.55218e-05
-6.2198e-05
-3.79321e-05
-4.87357e-05
-4.04029e-05
-3.44784e-05
-4.2791e-05
-1.94471e-05
-4.50356e-05
-3.75631e-06
-4.70809e-05
1.25378e-05
-4.89256e-05
2.93627e-05
-5.05312e-05
4.66477e-05
-5.18209e-05
6.41639e-05
-5.24908e-05
8.17991e-05
-5.28648e-05
9.93705e-05
-5.26919e-05
0.00011664
-5.17838e-05
0.000133431
-5.03627e-05
0.000149516
-4.81525e-05
0.000164636
-4.52662e-05
0.000178494
-4.15671e-05
0.000190902
-3.72354e-05
0.000201594
-3.20032e-05
0.000210353
-2.62927e-05
0.000216954
-1.97832e-05
0.000221255
-1.28524e-05
0.00022313
-5.59854e-06
0.00022251
1.78216e-06
0.000219344
9.49871e-06
0.000213636
1.70565e-05
0.000205513
2.43337e-05
0.000195163
3.09852e-05
0.000182746
3.72827e-05
0.000168405
4.2862e-05
0.000152527
4.76242e-05
0.000135263
5.16156e-05
0.000116992
5.47077e-05
9.79803e-05
5.69074e-05
7.85029e-05
5.84265e-05
5.88354e-05
5.89468e-05
3.92036e-05
5.88557e-05
1.98839e-05
5.79026e-05
1.06563e-06
5.64234e-05
-1.70619e-05
5.43334e-05
-3.43525e-05
5.18704e-05
-5.06622e-05
4.894e-05
-6.59111e-05
4.57433e-05
-8.00927e-05
4.24322e-05
-9.31227e-05
3.91804e-05
-0.00010501
3.56476e-05
-0.000115795
3.23976e-05
-0.000125451
2.90274e-05
-0.000134052
2.58595e-05
-0.000141737
2.29138e-05
-0.000148467
2.01848e-05
-0.000154287
1.75392e-05
-0.000159282
1.50355e-05
-0.000163511
1.27163e-05
-0.000167
1.04821e-05
-0.0001698
8.41674e-06
-0.000171958
6.39292e-06
-0.000173522
4.75453e-06
-0.000174483
2.86988e-06
-0.000174831
1.19474e-06
-0.000174747
-3.70589e-07
-0.000174046
-2.07839e-06
-0.000172788
-3.78909e-06
-0.00017094
-5.52543e-06
-0.000168492
-7.44166e-06
-0.000165455
-9.0085e-06
-0.000161728
-1.11647e-05
-0.00015735
-1.31625e-05
-0.000152257
-1.52839e-05
-0.000146407
-1.7591e-05
-0.000139767
-1.98688e-05
-0.000132249
-2.25105e-05
-0.000123983
-2.48283e-05
-0.000114801
-2.7545e-05
-0.000104739
-3.02159e-05
-9.38025e-05
-3.27741e-05
-8.2001e-05
-3.54008e-05
-6.9362e-05
-3.79058e-05
-5.5852e-05
-4.05189e-05
-4.15171e-05
-4.3015e-05
-2.635e-05
-4.54504e-05
-1.04551e-05
-4.76608e-05
6.09929e-06
-4.96183e-05
2.31838e-05
-5.1205e-05
4.06223e-05
-5.2282e-05
5.82634e-05
-5.28773e-05
7.58754e-05
-5.27716e-05
9.3232e-05
-5.20368e-05
0.000110129
-5.06378e-05
0.000126223
-4.82129e-05
0.000141272
-4.51166e-05
0.000155059
-4.13698e-05
0.000167337
-3.67803e-05
0.000177896
-3.16626e-05
0.000186507
-2.57801e-05
0.000192978
-1.94304e-05
0.000197128
-1.24113e-05
0.000198848
-5.15081e-06
0.00019808
2.30348e-06
0.000194766
9.87558e-06
0.000189003
1.72254e-05
0.000180875
2.43491e-05
0.00017061
3.07572e-05
0.000158361
3.67092e-05
0.000144399
4.17935e-05
0.000128983
4.61468e-05
0.000112409
4.9832e-05
9.48254e-05
5.25713e-05
7.66623e-05
5.44645e-05
5.813e-05
5.55196e-05
3.94501e-05
5.59505e-05
2.09278e-05
5.55357e-05
2.72476e-06
5.45901e-05
-1.49478e-05
5.29824e-05
-3.1953e-05
5.10324e-05
-4.8172e-05
4.86242e-05
-6.35626e-05
4.62102e-05
-7.8019e-05
4.33491e-05
-9.15361e-05
4.05316e-05
-0.00010406
3.75812e-05
-0.000115604
3.46479e-05
-0.000126178
3.16869e-05
-0.00013578
2.88444e-05
-0.000144435
2.59679e-05
-0.00015219
2.32522e-05
-0.000159073
2.06593e-05
-0.000165083
1.8059e-05
-0.000170249
1.55802e-05
-0.000174718
1.32432e-05
-0.000178385
1.10595e-05
-0.000181343
8.88058e-06
-0.000183588
6.75742e-06
-0.000185149
4.78404e-06
-0.000186156
2.94587e-06
-0.000186576
1.26255e-06
-0.000186352
-5.53382e-07
-0.000185704
-2.0663e-06
-0.000184407
-3.8463e-06
-0.00018268
-5.22854e-06
-0.000180326
-7.17618e-06
-0.000177406
-8.66066e-06
-0.00017386
-1.06579e-05
-0.000169751
-1.23041e-05
-0.00016497
-1.43774e-05
-0.00015958
-1.61393e-05
-0.000153572
-1.80192e-05
-0.000146931
-1.98698e-05
-0.000139641
-2.18585e-05
-0.000131658
-2.39225e-05
-0.000122871
-2.63838e-05
-0.000113203
-2.89142e-05
-0.000102565
-3.17909e-05
-9.10927e-05
-3.44961e-05
-7.86553e-05
-3.7254e-05
-6.53711e-05
-3.98191e-05
-5.13326e-05
-4.20846e-05
-3.66147e-05
-4.40996e-05
-2.13257e-05
-4.58315e-05
-5.56522e-06
-4.72211e-05
1.05548e-05
-4.83182e-05
2.69081e-05
-4.90203e-05
4.33528e-05
-4.92827e-05
5.9689e-05
-4.89525e-05
7.57085e-05
-4.79893e-05
9.11867e-05
-4.63873e-05
0.000105797
-4.3749e-05
0.000119434
-4.08431e-05
0.000131812
-3.70666e-05
0.000142691
-3.2555e-05
0.000151806
-2.73239e-05
0.000159083
-2.17901e-05
0.000164367
-1.58256e-05
0.000167641
-9.80643e-06
0.000168795
-3.4549e-06
0.000167905
2.65502e-06
0.000164862
9.08707e-06
0.000159882
1.49249e-05
0.000153212
1.99976e-05
0.000144819
2.51451e-05
0.000134874
2.97619e-05
0.000123496
3.41323e-05
0.000110901
3.77606e-05
9.72169e-05
4.10278e-05
8.26611e-05
4.36338e-05
6.7179e-05
4.63896e-05
5.13119e-05
4.75538e-05
3.50669e-05
4.87334e-05
1.87693e-05
4.88034e-05
2.73584e-06
4.80625e-05
-1.30388e-05
4.7288e-05
-2.8201e-05
4.54586e-05
-4.26522e-05
4.33305e-05
-5.63218e-05
4.09897e-05
-6.90767e-05
3.82533e-05
-8.08893e-05
3.54284e-05
-9.17661e-05
3.26231e-05
-0.000101652
2.96609e-05
-0.000110603
2.68463e-05
-0.000118662
2.41855e-05
-0.000125848
2.15683e-05
-0.000132252
1.92223e-05
-0.000137908
1.69766e-05
-0.000142885
1.49437e-05
-0.000147272
1.31673e-05
-0.000151107
1.15085e-05
-0.000154434
9.98662e-06
-0.000157329
8.68858e-06
-0.000159791
7.38303e-06
-0.000161874
6.24431e-06
-0.000163571
5.08484e-06
-0.000164815
3.73684e-06
-0.000165599
2.35206e-06
-0.000165894
8.94348e-07
-0.000165593
-9.20702e-07
-0.000164646
-2.84524e-06
-0.000162935
-5.15313e-06
-0.000160454
-7.47627e-06
-0.000157168
-9.83898e-06
-0.000152835
-1.30187e-05
-0.000147552
-1.58592e-05
-0.000141327
-1.86873e-05
-0.000133859
-2.23978e-05
-0.000125326
-2.5602e-05
-0.000115588
-2.92094e-05
-0.000104769
-3.24566e-05
-9.29667e-05
-3.53979e-05
-7.99451e-05
-3.90393e-05
-6.59749e-05
-4.18948e-05
-5.12198e-05
-4.42468e-05
-3.55369e-05
-4.70387e-05
-1.9096e-05
-4.92727e-05
-2.30043e-06
-5.03435e-05
1.49508e-05
-5.17088e-05
3.23889e-05
-5.22633e-05
4.98481e-05
-5.23275e-05
6.71263e-05
-5.17949e-05
8.3944e-05
-5.04001e-05
0.000100155
-4.85808e-05
0.00011555
-4.6145e-05
0.00012989
-4.29872e-05
0.000142978
-3.92161e-05
0.000154709
-3.51497e-05
0.000164913
-3.0588e-05
0.00017345
-2.55995e-05
0.000180214
-2.02885e-05
0.000185131
-1.47586e-05
0.000188176
-9.14862e-06
0.000189315
-3.41876e-06
0.000188355
2.83123e-06
0.000185386
8.89585e-06
0.000180572
1.4438e-05
0.000173955
1.98282e-05
0.000165594
2.50555e-05
0.000155779
2.9417e-05
0.000144509
3.37769e-05
3.77698e-05
-0.000136518
3.81963e-05
-0.000145014
3.39777e-05
-0.000152599
3.03333e-05
-0.000159297
2.67854e-05
-0.00016513
2.33294e-05
-0.000170148
2.00625e-05
-0.000174384
1.69373e-05
-0.000177864
1.3915e-05
-0.000180608
1.09882e-05
-0.00018264
8.12882e-06
-0.000183974
5.34914e-06
-0.000184615
2.65153e-06
-0.000184542
-2.41757e-07
-0.000183745
-3.14866e-06
-0.000182208
-6.14734e-06
-0.000179956
-9.02404e-06
-0.000177083
-1.15194e-05
-0.000173349
-1.4932e-05
-0.000168836
-1.80745e-05
-0.000163592
-2.10211e-05
-0.000157448
-2.45356e-05
-0.000150362
-2.8382e-05
-0.000142451
-3.1669e-05
-0.00013351
-3.58112e-05
-0.000123727
-3.91558e-05
-0.000112719
-4.40004e-05
-0.000100776
-4.77903e-05
-8.78333e-05
-5.17348e-05
-7.37304e-05
-5.63918e-05
-5.86321e-05
-6.03747e-05
-4.27174e-05
-6.36075e-05
-2.57791e-05
-6.77799e-05
-7.98256e-06
-7.10939e-05
1.04723e-05
-7.36885e-05
2.95247e-05
-7.6089e-05
4.88116e-05
-7.7046e-05
6.83305e-05
-7.79293e-05
8.78146e-05
-7.77718e-05
0.000106871
-7.61412e-05
0.000125476
-7.42876e-05
0.000143239
-7.09054e-05
0.000159916
-6.6557e-05
0.00017525
-6.11749e-05
0.000188881
-5.438e-05
0.000200729
-4.7279e-05
0.000210548
-3.91881e-05
0.000218095
-3.01166e-05
0.000223313
-2.08423e-05
0.000226132
-1.12429e-05
0.0002264
-1.09323e-06
0.000224157
8.89235e-06
0.000219426
1.8851e-05
0.000212454
2.78733e-05
0.000203259
3.66801e-05
0.000192028
4.47951e-05
0.000178965
5.21656e-05
0.000164248
5.87262e-05
0.00014823
6.39116e-05
0.000131067
6.85415e-05
0.000113109
7.16772e-05
9.45234e-05
7.4204e-05
7.5555e-05
7.57415e-05
5.64835e-05
7.61748e-05
3.74911e-05
7.58771e-05
1.87353e-05
7.49006e-05
4.57463e-07
7.3005e-05
-1.72405e-05
7.06992e-05
-3.42635e-05
6.80163e-05
-5.04385e-05
6.46524e-05
-6.58229e-05
6.14766e-05
-8.02253e-05
5.75833e-05
-9.36612e-05
5.37216e-05
-0.000106168
5.00005e-05
-0.000117617
4.57736e-05
-0.000128031
4.16527e-05
-0.000137467
3.77223e-05
-0.000145836
3.34969e-05
-0.00015331
2.98555e-05
-0.000159734
2.57024e-05
-0.000165185
2.17982e-05
-0.000169703
1.80541e-05
-0.000173218
1.40498e-05
-0.000175715
9.95943e-06
-0.000177227
6.03645e-06
-0.000177696
1.97637e-06
-0.000177163
-2.03059e-06
-0.000175734
-5.692e-06
-0.000173473
-8.971e-06
-0.000170511
-1.1867e-05
-0.000166886
-1.44548e-05
-0.00016275
-1.67257e-05
-0.000158058
-1.87229e-05
-0.000152827
-2.10089e-05
-0.000147019
-2.33175e-05
-0.000140606
-2.57981e-05
-0.000133536
-2.83115e-05
-0.000125799
-3.10556e-05
-0.000117317
-3.42035e-05
-0.000108048
-3.69717e-05
-9.79644e-05
-4.04349e-05