/*--------------------------------*- C++ -*----------------------------------*\
| =========                 |                                                 |
| \\      /  F ield         | OpenFOAM: The Open Source CFD Toolbox           |
|  \\    /   O peration     | Version:  3.0.1                                 |
|   \\  /    A nd           | Web:      www.OpenFOAM.org                      |
|    \\/     M anipulation  |                                                 |
\*---------------------------------------------------------------------------*/
FoamFile
{
    version     2.0;
    format      ascii;
    class       volScalarField;
    location    "8";
    object      p;
}
// * * * * * * * * * * * * * * * * * * * * * * * * * * * * * * * * * * * * * //

dimensions      [1 -1 -2 0 0 0 0];

internalField   nonuniform List<scalar> 
21420
(
3645.76
3628.08
3611.98
3597.53
3584.74
3573.58
3564.01
3555.97
3549.43
3544.35
3540.67
3538.4
3537.54
3538.05
3539.88
3543.13
3547.84
3554.02
3561.74
3571.07
3582.08
3594.84
3609.43
3625.9
3644.31
3664.65
3686.94
3711.14
3737.18
3764.94
3794.31
3825.1
3857.06
3889.84
3923.06
3956.81
3990.69
4024.3
4057.24
4089.19
4119.76
4148.59
4175.35
4199.71
4221.38
4240.12
4255.71
4267.96
4276.73
4281.9
4283.4
4281.2
4275.22
4265.57
4252.33
4235.65
4215.69
4192.64
4166.77
4138.38
4107.85
4075.56
4041.91
4007.38
3972.44
3937.57
3903.34
3870.02
3837.84
3807.21
3778.44
3751.77
3727.37
3705.35
3685.77
3668.62
3653.88
3641.49
3631.35
3623.36
3617.39
3613.3
3610.98
3610.3
3611.08
3613.26
3616.71
3621.33
3627.06
3633.81
3641.53
3650.18
3659.74
3670.18
3681.52
3693.77
3706.93
3721.03
3736.08
3752.1
3769.07
3786.98
3805.79
3825.43
3845.82
3866.87
3888.45
3910.41
3932.6
3954.84
3976.92
3998.65
4019.79
4040.14
4059.46
4077.52
4094.12
4109.04
4122.11
4133.15
4142.03
4148.63
4152.88
4154.72
4154.14
4151.18
4145.89
4138.36
4128.7
4117.07
4103.64
4088.62
4072.23
4054.7
4036.28
4017.23
3997.79
3978.21
3958.73
3939.57
3920.93
3902.99
3885.92
3869.82
3854.8
3840.95
3828.33
3816.99
3806.96
3798.23
3790.79
3784.64
3779.73
3776.02
3773.46
3772
3771.58
3772.14
3773.61
3775.94
3779.05
3782.9
3787.41
3792.52
3798.16
3804.28
3810.81
3817.69
3824.86
3832.26
3839.82
3847.49
3855.21
3862.93
3870.6
3878.15
3885.56
3892.76
3899.72
3906.39
3912.74
3918.74
3924.34
3929.54
3934.31
3938.63
3942.48
3945.86
3948.77
3951.21
3953.17
3954.67
3955.73
3956.35
3956.55
3956.35
3955.79
3954.87
3953.63
3952.1
3950.29
3948.24
3945.98
3943.53
3940.93
3938.2
3935.36
3932.45
3929.49
3926.5
3923.5
3920.52
3917.56
3914.66
3911.81
3909.05
3906.36
3903.78
3901.29
3898.92
3896.67
3894.53
3892.51
3890.62
3888.85
3887.2
3885.67
3884.26
3882.97
3881.78
3880.71
3879.73
3878.86
3878.08
3877.38
3876.77
3876.24
3875.78
3875.39
3875.06
3874.79
3874.57
3874.39
3874.26
3874.17
3874.11
3874.08
3874.07
3874.09
3874.13
3874.18
3874.25
3874.33
3874.42
3874.52
3874.62
3874.72
3874.83
3874.94
3875.04
3875.15
3875.25
3875.34
3875.44
3875.53
3875.61
3875.69
3875.77
3875.83
3875.9
3875.95
3876
3876.05
3876.09
3876.12
3876.15
3876.17
3876.19
3876.2
3876.21
3876.22
3876.22
3876.21
3876.21
3876.2
3876.19
3876.17
3876.15
3876.13
3876.11
3876.09
3876.06
3876.03
3876.01
3875.98
3875.95
3875.92
3875.89
3875.85
3875.82
3875.79
3875.76
3875.73
3875.7
3875.67
3875.64
3875.61
3875.58
3875.55
3875.53
3875.5
3875.47
3875.45
3875.42
3875.4
3875.38
3875.35
3875.33
3875.31
3875.29
3875.27
3875.26
3875.24
3875.22
3875.21
3875.19
3875.18
3875.16
3875.15
3875.14
3875.13
3875.12
3875.11
3875.1
3875.09
3875.08
3875.07
3875.06
3875.05
3875.05
3875.04
3875.03
3875.03
3875.02
3875.02
3875.01
3875.01
3875.01
3875
3875
3874.99
3874.99
3874.99
3874.99
3874.98
3874.98
3874.98
3547.58
3529.9
3513.81
3499.36
3486.57
3475.42
3465.85
3457.81
3451.28
3446.19
3442.52
3440.24
3439.39
3439.89
3441.72
3444.98
3449.68
3455.86
3463.58
3472.9
3483.91
3496.66
3511.25
3527.72
3546.12
3566.47
3588.76
3612.96
3638.99
3666.76
3696.13
3726.93
3758.9
3791.69
3824.92
3858.68
3892.58
3926.2
3959.16
3991.12
4021.7
4050.56
4077.33
4101.7
4123.39
4142.14
4157.74
4169.99
4178.77
4183.95
4185.45
4183.24
4177.26
4167.61
4154.36
4137.67
4117.7
4094.64
4068.74
4040.35
4009.8
3977.49
3943.82
3909.27
3874.31
3839.43
3805.18
3771.85
3739.65
3709.01
3680.24
3653.57
3629.17
3607.15
3587.56
3570.42
3555.69
3543.3
3533.17
3525.18
3519.22
3515.13
3512.81
3512.14
3512.93
3515.11
3518.56
3523.19
3528.92
3535.67
3543.39
3552.05
3561.6
3572.04
3583.38
3595.63
3608.79
3622.89
3637.94
3653.96
3670.93
3688.84
3707.65
3727.29
3747.68
3768.74
3790.32
3812.29
3834.49
3856.73
3878.82
3900.56
3921.72
3942.07
3961.4
3979.47
3996.08
4011.01
4024.09
4035.14
4044.02
4050.62
4054.88
4056.72
4056.14
4053.17
4047.88
4040.34
4030.67
4019.04
4005.6
3990.57
3974.17
3956.63
3938.2
3919.13
3899.69
3880.1
3860.61
3841.44
3822.79
3804.85
3787.78
3771.68
3756.65
3742.8
3730.18
3718.84
3708.8
3700.07
3692.64
3686.49
3681.58
3677.87
3675.31
3673.85
3673.44
3674
3675.48
3677.8
3680.92
3684.77
3689.28
3694.39
3700.04
3706.17
3712.7
3719.58
3726.75
3734.15
3741.71
3749.39
3757.11
3764.83
3772.5
3780.06
3787.46
3794.67
3801.63
3808.3
3814.65
3820.65
3826.26
3831.46
3836.23
3840.54
3844.4
3847.78
3850.69
3853.13
3855.09
3856.59
3857.64
3858.26
3858.46
3858.27
3857.7
3856.79
3855.54
3854.01
3852.2
3850.15
3847.89
3845.44
3842.83
3840.1
3837.27
3834.35
3831.39
3828.4
3825.4
3822.42
3819.46
3816.56
3813.71
3810.94
3808.26
3805.67
3803.19
3800.82
3798.56
3796.42
3794.41
3792.51
3790.74
3789.09
3787.57
3786.16
3784.86
3783.68
3782.6
3781.63
3780.75
3779.97
3779.28
3778.67
3778.14
3777.68
3777.29
3776.96
3776.69
3776.47
3776.29
3776.16
3776.07
3776.01
3775.98
3775.97
3775.99
3776.03
3776.08
3776.15
3776.23
3776.32
3776.42
3776.52
3776.62
3776.73
3776.84
3776.94
3777.05
3777.15
3777.25
3777.34
3777.43
3777.51
3777.59
3777.67
3777.73
3777.8
3777.85
3777.9
3777.95
3777.99
3778.02
3778.05
3778.07
3778.09
3778.1
3778.11
3778.12
3778.12
3778.11
3778.11
3778.1
3778.09
3778.07
3778.05
3778.03
3778.01
3777.99
3777.96
3777.93
3777.91
3777.88
3777.85
3777.82
3777.79
3777.75
3777.72
3777.69
3777.66
3777.63
3777.6
3777.57
3777.54
3777.51
3777.48
3777.45
3777.43
3777.4
3777.37
3777.35
3777.32
3777.3
3777.28
3777.25
3777.23
3777.21
3777.19
3777.17
3777.16
3777.14
3777.12
3777.11
3777.09
3777.08
3777.06
3777.05
3777.04
3777.03
3777.02
3777.01
3777
3776.99
3776.98
3776.97
3776.96
3776.95
3776.95
3776.94
3776.93
3776.93
3776.92
3776.92
3776.91
3776.91
3776.91
3776.9
3776.9
3776.89
3776.89
3776.89
3776.89
3776.88
3776.88
3776.88
3449.33
3431.65
3415.56
3401.12
3388.34
3377.19
3367.62
3359.59
3353.06
3347.98
3344.31
3342.04
3341.18
3341.68
3343.51
3346.77
3351.47
3357.64
3365.35
3374.67
3385.66
3398.41
3412.99
3429.46
3447.85
3468.2
3490.48
3514.69
3540.73
3568.5
3597.88
3628.69
3660.67
3693.49
3726.74
3760.52
3794.45
3828.1
3861.09
3893.08
3923.69
3952.58
3979.38
4003.78
4025.5
4044.27
4059.89
4072.16
4080.95
4086.14
4087.65
4085.41
4079.44
4069.78
4056.52
4039.81
4019.82
3996.73
3970.8
3942.37
3911.79
3879.44
3845.73
3811.14
3776.15
3741.23
3706.95
3673.6
3641.38
3610.73
3581.94
3555.26
3530.86
3508.84
3489.26
3472.12
3457.4
3445.02
3434.9
3426.92
3420.97
3416.89
3414.59
3413.92
3414.72
3416.91
3420.37
3425
3430.73
3437.49
3445.22
3453.87
3463.42
3473.87
3485.21
3497.45
3510.61
3524.7
3539.76
3555.77
3572.74
3590.66
3609.46
3629.11
3649.51
3670.57
3692.17
3714.15
3736.36
3758.62
3780.73
3802.48
3823.66
3844.03
3863.38
3881.47
3898.09
3913.05
3926.14
3937.2
3946.1
3952.71
3956.96
3958.81
3958.22
3955.25
3949.95
3942.4
3932.72
3921.07
3907.62
3892.57
3876.14
3858.58
3840.13
3821.05
3801.58
3781.98
3762.47
3743.29
3724.62
3706.66
3689.59
3673.48
3658.45
3644.59
3631.97
3620.63
3610.6
3601.87
3594.44
3588.29
3583.38
3579.68
3577.13
3575.67
3575.27
3575.83
3577.31
3579.64
3582.77
3586.62
3591.13
3596.25
3601.9
3608.03
3614.57
3621.46
3628.63
3636.03
3643.6
3651.28
3659.01
3666.74
3674.41
3681.97
3689.38
3696.59
3703.55
3710.23
3716.58
3722.58
3728.19
3733.39
3738.16
3742.48
3746.34
3749.72
3752.63
3755.06
3757.03
3758.53
3759.58
3760.19
3760.39
3760.2
3759.63
3758.71
3757.47
3755.93
3754.12
3752.07
3749.8
3747.35
3744.74
3742.01
3739.17
3736.26
3733.29
3730.3
3727.3
3724.31
3721.36
3718.45
3715.6
3712.83
3710.15
3707.56
3705.08
3702.71
3700.45
3698.31
3696.3
3694.4
3692.63
3690.99
3689.46
3688.05
3686.75
3685.57
3684.49
3683.52
3682.65
3681.87
3681.17
3680.56
3680.03
3679.58
3679.19
3678.86
3678.58
3678.36
3678.19
3678.06
3677.96
3677.9
3677.87
3677.87
3677.89
3677.93
3677.98
3678.05
3678.13
3678.22
3678.32
3678.42
3678.52
3678.63
3678.74
3678.84
3678.95
3679.05
3679.15
3679.24
3679.33
3679.41
3679.49
3679.57
3679.63
3679.7
3679.75
3679.8
3679.85
3679.89
3679.92
3679.95
3679.97
3679.99
3680
3680.01
3680.02
3680.02
3680.01
3680.01
3680
3679.99
3679.97
3679.95
3679.93
3679.91
3679.89
3679.86
3679.83
3679.81
3679.78
3679.75
3679.72
3679.69
3679.65
3679.62
3679.59
3679.56
3679.53
3679.5
3679.47
3679.44
3679.41
3679.38
3679.35
3679.33
3679.3
3679.27
3679.25
3679.22
3679.2
3679.18
3679.15
3679.13
3679.11
3679.09
3679.07
3679.06
3679.04
3679.02
3679.01
3678.99
3678.98
3678.96
3678.95
3678.94
3678.93
3678.92
3678.91
3678.9
3678.89
3678.88
3678.87
3678.86
3678.85
3678.85
3678.84
3678.83
3678.83
3678.82
3678.82
3678.81
3678.81
3678.81
3678.8
3678.8
3678.79
3678.79
3678.79
3678.79
3678.78
3678.78
3678.78
3351
3333.32
3317.25
3302.81
3290.04
3278.89
3269.33
3261.31
3254.79
3249.71
3246.05
3243.78
3242.92
3243.41
3245.24
3248.5
3253.19
3259.35
3267.06
3276.36
3287.35
3300.09
3314.66
3331.12
3349.5
3369.84
3392.13
3416.33
3442.38
3470.16
3499.56
3530.39
3562.39
3595.23
3628.51
3662.34
3696.3
3729.99
3763.03
3795.07
3825.73
3854.67
3881.52
3905.96
3927.71
3946.52
3962.16
3974.46
3983.26
3988.47
3990
3987.73
3981.76
3972.09
3958.81
3942.07
3922.04
3898.91
3872.94
3844.46
3813.82
3781.41
3747.65
3713
3677.96
3642.99
3608.67
3575.27
3543.03
3512.35
3483.54
3456.85
3432.44
3410.43
3390.85
3373.72
3359.01
3346.65
3336.54
3328.58
3322.64
3318.58
3316.3
3315.64
3316.46
3318.65
3322.13
3326.77
3332.51
3339.27
3347
3355.66
3365.21
3375.66
3386.99
3399.23
3412.38
3426.48
3441.53
3457.54
3474.51
3492.43
3511.24
3530.9
3551.31
3572.38
3593.99
3615.99
3638.22
3660.5
3682.64
3704.42
3725.62
3746.02
3765.4
3783.52
3800.17
3815.15
3828.26
3839.35
3848.26
3854.88
3859.15
3861
3860.4
3857.42
3852.11
3844.55
3834.85
3823.17
3809.69
3794.61
3778.15
3760.56
3742.08
3722.96
3703.47
3683.84
3664.31
3645.1
3626.42
3608.44
3591.36
3575.24
3560.2
3546.34
3533.71
3522.37
3512.34
3503.61
3496.19
3490.04
3485.14
3481.44
3478.9
3477.45
3477.05
3477.62
3479.11
3481.45
3484.58
3488.44
3492.96
3498.08
3503.75
3509.88
3516.43
3523.32
3530.5
3537.91
3545.48
3553.17
3560.9
3568.64
3576.32
3583.88
3591.3
3598.51
3605.48
3612.16
3618.52
3624.52
3630.14
3635.34
3640.11
3644.43
3648.29
3651.68
3654.59
3657.02
3658.98
3660.48
3661.53
3662.14
3662.34
3662.14
3661.57
3660.65
3659.4
3657.86
3656.05
3653.99
3651.72
3649.27
3646.66
3643.92
3641.08
3638.16
3635.2
3632.2
3629.2
3626.21
3623.25
3620.34
3617.5
3614.72
3612.04
3609.45
3606.97
3604.59
3602.34
3600.2
3598.18
3596.29
3594.52
3592.87
3591.34
3589.93
3588.64
3587.46
3586.38
3585.41
3584.54
3583.76
3583.06
3582.45
3581.92
3581.47
3581.08
3580.75
3580.48
3580.26
3580.08
3579.95
3579.86
3579.8
3579.77
3579.77
3579.79
3579.83
3579.88
3579.95
3580.03
3580.12
3580.22
3580.32
3580.42
3580.53
3580.64
3580.74
3580.85
3580.95
3581.05
3581.14
3581.23
3581.31
3581.39
3581.47
3581.54
3581.6
3581.65
3581.7
3581.75
3581.79
3581.82
3581.85
3581.87
3581.89
3581.9
3581.91
3581.92
3581.92
3581.92
3581.91
3581.9
3581.89
3581.87
3581.85
3581.83
3581.81
3581.79
3581.76
3581.73
3581.71
3581.68
3581.65
3581.62
3581.59
3581.55
3581.52
3581.49
3581.46
3581.43
3581.4
3581.37
3581.34
3581.31
3581.28
3581.25
3581.23
3581.2
3581.17
3581.15
3581.12
3581.1
3581.08
3581.05
3581.03
3581.01
3580.99
3580.97
3580.96
3580.94
3580.92
3580.91
3580.89
3580.88
3580.86
3580.85
3580.84
3580.83
3580.82
3580.81
3580.8
3580.79
3580.78
3580.77
3580.76
3580.75
3580.75
3580.74
3580.73
3580.73
3580.72
3580.72
3580.71
3580.71
3580.71
3580.7
3580.7
3580.69
3580.69
3580.69
3580.69
3580.68
3580.68
3580.68
3252.59
3234.92
3218.86
3204.42
3191.67
3180.53
3170.98
3162.97
3156.46
3151.39
3147.73
3145.47
3144.61
3145.09
3146.92
3150.17
3154.86
3161.01
3168.7
3177.99
3188.96
3201.69
3216.24
3232.69
3251.07
3271.4
3293.68
3317.89
3343.95
3371.74
3401.16
3432.01
3464.05
3496.93
3530.25
3564.12
3598.14
3631.89
3664.99
3697.09
3727.82
3756.81
3783.73
3808.22
3830.03
3848.89
3864.57
3876.89
3885.72
3890.94
3892.49
3890.2
3884.23
3874.53
3861.22
3844.45
3824.38
3801.19
3775.16
3746.61
3715.9
3683.41
3649.57
3614.85
3579.73
3544.7
3510.32
3476.88
3444.59
3413.87
3385.05
3358.34
3333.92
3311.91
3292.34
3275.23
3260.53
3248.18
3238.09
3230.16
3224.24
3220.21
3217.95
3217.3
3218.14
3220.35
3223.84
3228.5
3234.24
3241.02
3248.75
3257.41
3266.96
3277.41
3288.74
3300.97
3314.12
3328.21
3343.26
3359.27
3376.24
3394.16
3412.98
3432.64
3453.07
3474.16
3495.78
3517.81
3540.07
3562.38
3584.55
3606.36
3627.6
3648.05
3667.46
3685.62
3702.31
3717.32
3730.47
3741.58
3750.51
3757.15
3761.42
3763.28
3762.68
3759.69
3754.36
3746.77
3737.05
3725.34
3711.82
3696.7
3680.2
3662.57
3644.05
3624.89
3605.35
3585.68
3566.12
3546.89
3528.18
3510.18
3493.08
3476.95
3461.9
3448.03
3435.4
3424.06
3414.02
3405.3
3397.88
3391.74
3386.85
3383.16
3380.62
3379.19
3378.8
3379.38
3380.87
3383.22
3386.36
3390.23
3394.76
3399.9
3405.57
3411.71
3418.27
3425.17
3432.36
3439.78
3447.36
3455.05
3462.8
3470.54
3478.23
3485.8
3493.23
3500.45
3507.42
3514.11
3520.47
3526.48
3532.1
3537.31
3542.08
3546.4
3550.26
3553.65
3556.56
3558.99
3560.95
3562.45
3563.5
3564.11
3564.3
3564.1
3563.53
3562.6
3561.35
3559.8
3557.98
3555.92
3553.65
3551.19
3548.58
3545.84
3542.99
3540.07
3537.1
3534.1
3531.1
3528.1
3525.14
3522.23
3519.38
3516.61
3513.92
3511.33
3508.85
3506.48
3504.22
3502.08
3500.06
3498.17
3496.4
3494.75
3493.22
3491.82
3490.52
3489.34
3488.26
3487.29
3486.42
3485.64
3484.95
3484.34
3483.81
3483.36
3482.97
3482.64
3482.37
3482.15
3481.98
3481.85
3481.75
3481.7
3481.67
3481.66
3481.68
3481.72
3481.78
3481.85
3481.93
3482.02
3482.12
3482.22
3482.32
3482.43
3482.54
3482.64
3482.75
3482.85
3482.95
3483.04
3483.13
3483.21
3483.29
3483.37
3483.44
3483.5
3483.55
3483.6
3483.65
3483.69
3483.72
3483.75
3483.77
3483.79
3483.8
3483.81
3483.82
3483.82
3483.82
3483.81
3483.8
3483.79
3483.77
3483.75
3483.73
3483.71
3483.69
3483.66
3483.63
3483.61
3483.58
3483.55
3483.52
3483.49
3483.45
3483.42
3483.39
3483.36
3483.33
3483.3
3483.27
3483.24
3483.21
3483.18
3483.15
3483.13
3483.1
3483.07
3483.05
3483.02
3483
3482.98
3482.95
3482.93
3482.91
3482.89
3482.87
3482.86
3482.84
3482.82
3482.81
3482.79
3482.78
3482.76
3482.75
3482.74
3482.73
3482.72
3482.71
3482.7
3482.69
3482.68
3482.67
3482.66
3482.65
3482.65
3482.64
3482.63
3482.63
3482.62
3482.62
3482.61
3482.61
3482.61
3482.6
3482.6
3482.59
3482.59
3482.59
3482.59
3482.58
3482.58
3482.58
3154.1
3136.45
3120.39
3105.97
3093.23
3082.11
3072.57
3064.57
3058.07
3053.01
3049.36
3047.1
3046.24
3046.71
3048.55
3051.79
3056.47
3062.61
3070.28
3079.55
3090.51
3103.21
3117.75
3134.18
3152.55
3172.88
3195.16
3219.37
3245.43
3273.24
3302.68
3333.57
3365.64
3398.57
3431.94
3465.88
3499.96
3533.78
3566.96
3599.14
3629.95
3659.02
3686.01
3710.58
3732.45
3751.37
3767.1
3779.46
3788.32
3793.56
3795.12
3792.83
3786.83
3777.11
3763.77
3746.95
3726.82
3703.57
3677.46
3648.82
3618.02
3585.44
3551.5
3516.68
3481.48
3446.36
3411.91
3378.4
3346.06
3315.31
3286.45
3259.72
3235.3
3213.28
3193.73
3176.63
3161.95
3149.63
3139.57
3131.66
3125.77
3121.76
3119.53
3118.9
3119.76
3122
3125.5
3130.18
3135.94
3142.72
3150.46
3159.12
3168.68
3179.12
3190.45
3202.67
3215.82
3229.9
3244.94
3260.95
3277.93
3295.85
3314.67
3334.35
3354.79
3375.9
3397.55
3419.61
3441.9
3464.25
3486.46
3508.32
3529.61
3550.1
3569.56
3587.77
3604.51
3619.56
3632.75
3643.89
3652.85
3659.51
3663.79
3665.65
3665.05
3662.05
3656.7
3649.08
3639.32
3627.57
3614.01
3598.84
3582.29
3564.6
3546.03
3526.82
3507.23
3487.52
3467.92
3448.64
3429.9
3411.88
3394.76
3378.61
3363.54
3349.67
3337.03
3325.69
3315.66
3306.94
3299.53
3293.4
3288.51
3284.83
3282.31
3280.89
3280.5
3281.09
3282.6
3284.97
3288.12
3292
3296.54
3301.69
3307.37
3313.53
3320.09
3327.01
3334.21
3341.64
3349.23
3356.94
3364.69
3372.45
3380.14
3387.73
3395.16
3402.39
3409.37
3416.07
3422.44
3428.45
3434.08
3439.29
3444.07
3448.39
3452.25
3455.64
3458.55
3460.98
3462.94
3464.44
3465.48
3466.09
3466.28
3466.07
3465.49
3464.56
3463.31
3461.75
3459.93
3457.87
3455.59
3453.12
3450.5
3447.75
3444.91
3441.98
3439
3436
3432.99
3430
3427.03
3424.12
3421.27
3418.49
3415.8
3413.21
3410.73
3408.35
3406.09
3403.96
3401.94
3400.05
3398.28
3396.63
3395.1
3393.69
3392.4
3391.22
3390.14
3389.17
3388.3
3387.52
3386.83
3386.23
3385.7
3385.25
3384.86
3384.53
3384.26
3384.04
3383.87
3383.74
3383.65
3383.59
3383.56
3383.56
3383.58
3383.62
3383.68
3383.75
3383.83
3383.92
3384.01
3384.12
3384.22
3384.33
3384.44
3384.54
3384.65
3384.75
3384.85
3384.94
3385.03
3385.12
3385.2
3385.27
3385.34
3385.4
3385.46
3385.51
3385.55
3385.59
3385.62
3385.65
3385.67
3385.69
3385.71
3385.71
3385.72
3385.72
3385.72
3385.71
3385.7
3385.69
3385.67
3385.65
3385.63
3385.61
3385.59
3385.56
3385.53
3385.51
3385.48
3385.45
3385.42
3385.39
3385.35
3385.32
3385.29
3385.26
3385.23
3385.2
3385.17
3385.14
3385.11
3385.08
3385.05
3385.02
3385
3384.97
3384.95
3384.92
3384.9
3384.88
3384.85
3384.83
3384.81
3384.79
3384.77
3384.76
3384.74
3384.72
3384.71
3384.69
3384.68
3384.66
3384.65
3384.64
3384.63
3384.62
3384.61
3384.6
3384.59
3384.58
3384.57
3384.56
3384.55
3384.55
3384.54
3384.53
3384.53
3384.52
3384.52
3384.51
3384.51
3384.5
3384.5
3384.5
3384.49
3384.49
3384.49
3384.49
3384.48
3384.48
3384.48
3055.54
3037.89
3021.85
3007.45
2994.72
2983.62
2974.1
2966.11
2959.62
2954.57
2950.93
2948.68
2947.82
2948.29
2950.12
2953.36
2958.02
2964.14
2971.8
2981.05
2991.98
3004.66
3019.18
3035.59
3053.94
3074.26
3096.54
3120.75
3146.83
3174.66
3204.13
3235.05
3267.18
3300.17
3333.6
3367.6
3401.77
3435.68
3468.94
3501.22
3532.13
3561.3
3588.38
3613.03
3634.98
3653.96
3669.75
3682.17
3691.06
3696.32
3697.89
3695.6
3689.58
3679.83
3666.45
3649.58
3629.38
3606.04
3579.84
3551.1
3520.18
3487.49
3453.44
3418.5
3383.19
3347.97
3313.44
3279.85
3247.45
3216.64
3187.75
3161
3136.57
3114.56
3095.01
3077.93
3063.27
3050.98
3040.95
3033.07
3027.22
3023.25
3021.05
3020.45
3021.34
3023.6
3027.12
3031.81
3037.59
3044.38
3052.13
3060.8
3070.36
3080.79
3092.12
3104.34
3117.47
3131.55
3146.58
3162.59
3179.57
3197.49
3216.33
3236.02
3256.48
3277.61
3299.3
3321.39
3343.72
3366.12
3388.38
3410.29
3431.63
3452.18
3471.7
3489.97
3506.76
3521.87
3535.1
3546.29
3555.28
3561.96
3566.26
3568.12
3567.51
3564.5
3559.12
3551.47
3541.67
3529.87
3516.25
3501.02
3484.41
3466.66
3448.02
3428.75
3409.11
3389.34
3369.69
3350.37
3331.59
3313.53
3296.39
3280.22
3265.14
3251.25
3238.61
3227.27
3217.24
3208.53
3201.12
3195
3190.13
3186.46
3183.95
3182.54
3182.17
3182.78
3184.3
3186.68
3189.84
3193.74
3198.3
3203.46
3209.15
3215.32
3221.9
3228.83
3236.05
3243.49
3251.1
3258.82
3266.59
3274.35
3282.06
3289.66
3297.1
3304.34
3311.33
3318.04
3324.42
3330.44
3336.07
3341.29
3346.07
3350.4
3354.26
3357.65
3360.56
3363
3364.95
3366.45
3367.49
3368.09
3368.27
3368.06
3367.48
3366.54
3365.28
3363.72
3361.89
3359.81
3357.53
3355.06
3352.43
3349.68
3346.82
3343.89
3340.91
3337.9
3334.89
3331.89
3328.92
3326
3323.15
3320.37
3317.68
3315.09
3312.6
3310.23
3307.97
3305.83
3303.81
3301.92
3300.15
3298.5
3296.97
3295.57
3294.27
3293.09
3292.02
3291.05
3290.18
3289.4
3288.71
3288.11
3287.58
3287.13
3286.74
3286.42
3286.15
3285.93
3285.76
3285.63
3285.54
3285.48
3285.46
3285.45
3285.48
3285.52
3285.57
3285.64
3285.73
3285.82
3285.91
3286.02
3286.12
3286.23
3286.34
3286.44
3286.55
3286.65
3286.75
3286.84
3286.93
3287.02
3287.1
3287.17
3287.24
3287.3
3287.36
3287.41
3287.45
3287.49
3287.52
3287.55
3287.58
3287.59
3287.61
3287.62
3287.62
3287.62
3287.62
3287.61
3287.6
3287.59
3287.57
3287.55
3287.53
3287.51
3287.49
3287.46
3287.43
3287.41
3287.38
3287.35
3287.32
3287.29
3287.25
3287.22
3287.19
3287.16
3287.13
3287.1
3287.07
3287.04
3287.01
3286.98
3286.95
3286.92
3286.9
3286.87
3286.85
3286.82
3286.8
3286.78
3286.75
3286.73
3286.71
3286.69
3286.67
3286.66
3286.64
3286.62
3286.61
3286.59
3286.58
3286.56
3286.55
3286.54
3286.53
3286.52
3286.51
3286.5
3286.49
3286.48
3286.47
3286.46
3286.45
3286.45
3286.44
3286.43
3286.43
3286.42
3286.42
3286.41
3286.41
3286.4
3286.4
3286.4
3286.39
3286.39
3286.39
3286.39
3286.38
3286.38
3286.38
2956.89
2939.27
2923.24
2908.86
2896.15
2885.06
2875.56
2867.59
2861.11
2856.08
2852.45
2850.21
2849.34
2849.81
2851.64
2854.86
2859.51
2865.62
2873.25
2882.47
2893.38
2906.03
2920.53
2936.92
2955.26
2975.56
2997.84
3022.06
3048.15
3076
3105.5
3136.47
3168.65
3201.71
3235.21
3269.29
3303.55
3337.57
3370.94
3403.33
3434.35
3463.63
3490.82
3515.57
3537.61
3556.68
3572.54
3585
3593.94
3599.23
3600.81
3598.51
3592.47
3582.69
3569.26
3552.32
3532.04
3508.6
3482.3
3453.44
3422.39
3389.57
3355.38
3320.31
3284.87
3249.53
3214.9
3181.23
3148.75
3117.88
3088.95
3062.18
3037.73
3015.72
2996.19
2979.13
2964.5
2952.24
2942.25
2934.41
2928.59
2924.67
2922.5
2921.94
2922.86
2925.14
2928.69
2933.41
2939.2
2946.01
2953.77
2962.44
2972
2982.43
2993.75
3005.96
3019.09
3033.15
3048.18
3064.19
3081.16
3099.09
3117.94
3137.65
3158.13
3179.29
3201.01
3223.15
3245.53
3267.98
3290.29
3312.27
3333.68
3354.3
3373.89
3392.22
3409.08
3424.25
3437.54
3448.77
3457.8
3464.51
3468.82
3470.68
3470.08
3467.04
3461.63
3453.94
3444.09
3432.23
3418.55
3403.26
3386.58
3368.75
3350.04
3330.69
3310.98
3291.15
3271.44
3252.07
3233.24
3215.14
3197.98
3181.78
3166.68
3152.78
3140.14
3128.79
3118.77
3110.06
3102.66
3096.55
3091.69
3088.04
3085.55
3084.15
3083.8
3084.43
3085.96
3088.36
3091.54
3095.45
3100.03
3105.2
3110.92
3117.1
3123.7
3130.65
3137.88
3145.33
3152.96
3160.69
3168.48
3176.26
3183.98
3191.59
3199.05
3206.3
3213.3
3220.02
3226.41
3232.44
3238.08
3243.3
3248.09
3252.43
3256.29
3259.68
3262.59
3265.02
3266.98
3268.47
3269.51
3270.1
3270.28
3270.07
3269.47
3268.53
3267.26
3265.69
3263.85
3261.77
3259.48
3257
3254.37
3251.6
3248.74
3245.8
3242.82
3239.8
3236.78
3233.78
3230.81
3227.88
3225.03
3222.25
3219.55
3216.96
3214.47
3212.09
3209.83
3207.69
3205.68
3203.78
3202.01
3200.37
3198.84
3197.43
3196.14
3194.96
3193.89
3192.92
3192.05
3191.28
3190.59
3189.99
3189.46
3189.01
3188.63
3188.3
3188.03
3187.82
3187.65
3187.52
3187.43
3187.37
3187.35
3187.35
3187.37
3187.41
3187.47
3187.54
3187.62
3187.71
3187.81
3187.92
3188.02
3188.13
3188.24
3188.34
3188.45
3188.55
3188.65
3188.74
3188.83
3188.92
3189
3189.07
3189.14
3189.2
3189.26
3189.31
3189.35
3189.39
3189.43
3189.45
3189.48
3189.49
3189.51
3189.52
3189.52
3189.52
3189.52
3189.51
3189.5
3189.49
3189.47
3189.45
3189.43
3189.41
3189.39
3189.36
3189.33
3189.31
3189.28
3189.25
3189.22
3189.19
3189.15
3189.12
3189.09
3189.06
3189.03
3189
3188.97
3188.94
3188.91
3188.88
3188.85
3188.82
3188.8
3188.77
3188.75
3188.72
3188.7
3188.68
3188.65
3188.63
3188.61
3188.59
3188.57
3188.56
3188.54
3188.52
3188.51
3188.49
3188.48
3188.46
3188.45
3188.44
3188.43
3188.42
3188.41
3188.4
3188.39
3188.38
3188.37
3188.36
3188.35
3188.35
3188.34
3188.33
3188.33
3188.32
3188.32
3188.31
3188.31
3188.3
3188.3
3188.3
3188.29
3188.29
3188.29
3188.29
3188.28
3188.28
3188.28
2858.17
2840.56
2824.56
2810.2
2797.51
2786.44
2776.96
2769.01
2762.55
2757.53
2753.92
2751.68
2750.81
2751.28
2753.1
2756.32
2760.95
2767.03
2774.63
2783.83
2794.71
2807.33
2821.8
2838.17
2856.48
2876.78
2899.05
2923.27
2949.38
2977.26
3006.8
3037.81
3070.05
3103.19
3136.78
3170.96
3205.33
3239.46
3272.96
3305.47
3336.62
3366.03
3393.34
3418.21
3440.35
3459.51
3475.45
3487.98
3496.96
3502.28
3503.88
3501.57
3495.51
3485.69
3472.2
3455.19
3434.81
3411.27
3384.84
3355.84
3324.65
3291.67
3257.32
3222.1
3186.51
3151.05
3116.3
3082.52
3049.96
3019.03
2990.05
2963.24
2938.79
2916.78
2897.26
2880.23
2865.64
2853.41
2843.46
2835.66
2829.89
2826.01
2823.89
2823.36
2824.32
2826.64
2830.22
2834.96
2840.77
2847.59
2855.36
2864.04
2873.6
2884.03
2895.34
2907.54
2920.66
2934.72
2949.74
2965.74
2982.71
3000.65
3019.51
3039.24
3059.75
3080.94
3102.7
3124.88
3147.32
3169.83
3192.21
3214.26
3235.75
3256.44
3276.11
3294.52
3311.46
3326.69
3340.04
3351.33
3360.4
3367.15
3371.48
3373.34
3372.73
3369.67
3364.23
3356.5
3346.59
3334.67
3320.92
3305.54
3288.77
3270.86
3252.07
3232.64
3212.85
3192.94
3173.16
3153.73
3134.85
3116.71
3099.53
3083.29
3068.18
3054.26
3041.61
3030.26
3020.24
3011.54
3004.15
2998.05
2993.21
2989.58
2987.1
2985.73
2985.39
2986.04
2987.59
2990.01
2993.21
2997.14
3001.73
3006.93
3012.66
3018.87
3025.48
3032.45
3039.7
3047.17
3054.81
3062.56
3070.37
3078.16
3085.9
3093.53
3101
3108.27
3115.29
3122.01
3128.41
3134.45
3140.1
3145.34
3150.13
3154.47
3158.34
3161.73
3164.64
3167.07
3169.03
3170.51
3171.54
3172.13
3172.31
3172.08
3171.48
3170.53
3169.25
3167.68
3165.83
3163.74
3161.44
3158.95
3156.31
3153.53
3150.66
3147.72
3144.72
3141.7
3138.68
3135.67
3132.69
3129.76
3126.9
3124.12
3121.42
3118.82
3116.33
3113.95
3111.69
3109.55
3107.54
3105.64
3103.87
3102.23
3100.7
3099.3
3098.01
3096.83
3095.76
3094.79
3093.92
3093.15
3092.46
3091.86
3091.34
3090.89
3090.51
3090.18
3089.92
3089.7
3089.53
3089.41
3089.32
3089.27
3089.24
3089.24
3089.26
3089.31
3089.36
3089.44
3089.52
3089.61
3089.71
3089.81
3089.92
3090.03
3090.14
3090.24
3090.35
3090.45
3090.55
3090.65
3090.74
3090.82
3090.9
3090.97
3091.04
3091.1
3091.16
3091.21
3091.26
3091.29
3091.33
3091.36
3091.38
3091.4
3091.41
3091.42
3091.42
3091.42
3091.42
3091.41
3091.4
3091.39
3091.37
3091.36
3091.33
3091.31
3091.29
3091.26
3091.24
3091.21
3091.18
3091.15
3091.12
3091.09
3091.06
3091.02
3090.99
3090.96
3090.93
3090.9
3090.87
3090.84
3090.81
3090.78
3090.75
3090.72
3090.7
3090.67
3090.65
3090.62
3090.6
3090.57
3090.55
3090.53
3090.51
3090.49
3090.47
3090.45
3090.44
3090.42
3090.41
3090.39
3090.38
3090.36
3090.35
3090.34
3090.33
3090.32
3090.3
3090.3
3090.29
3090.28
3090.27
3090.26
3090.25
3090.25
3090.24
3090.23
3090.23
3090.22
3090.22
3090.21
3090.21
3090.2
3090.2
3090.2
3090.19
3090.19
3090.19
3090.19
3090.18
3090.18
3090.18
2759.38
2741.79
2725.8
2711.46
2698.8
2687.76
2678.3
2670.37
2663.93
2658.93
2655.33
2653.1
2652.23
2652.69
2654.51
2657.71
2662.32
2668.38
2675.96
2685.12
2695.96
2708.55
2722.99
2739.33
2757.63
2777.91
2800.17
2824.4
2850.52
2878.43
2908.02
2939.09
2971.4
3004.63
3038.3
3072.59
3107.08
3141.34
3174.98
3207.64
3238.93
3268.48
3295.93
3320.93
3343.19
3362.46
3378.48
3391.08
3400.12
3405.47
3407.09
3404.78
3398.69
3388.83
3375.27
3358.17
3337.69
3314.03
3287.46
3258.31
3226.95
3193.79
3159.27
3123.88
3088.12
3052.51
3017.63
2983.74
2951.09
2920.08
2891.04
2864.21
2839.74
2817.73
2798.23
2781.23
2766.67
2754.49
2744.59
2736.84
2731.12
2727.29
2725.22
2724.73
2725.73
2728.09
2731.7
2736.47
2742.3
2749.14
2756.92
2765.61
2775.17
2785.59
2796.9
2809.09
2822.19
2836.24
2851.25
2867.25
2884.22
2902.17
2921.04
2940.79
2961.33
2982.56
3004.36
3026.6
3049.09
3071.67
3094.13
3116.26
3137.83
3158.62
3178.37
3196.87
3213.89
3229.21
3242.63
3253.98
3263.1
3269.88
3274.23
3276.1
3275.48
3272.4
3266.92
3259.13
3249.16
3237.17
3223.33
3207.87
3191.01
3173
3154.11
3134.59
3114.71
3094.72
3074.87
3055.37
3036.43
3018.24
3001.03
2984.76
2969.62
2955.69
2943.03
2931.68
2921.66
2912.96
2905.59
2899.51
2894.68
2891.07
2888.61
2887.26
2886.95
2887.61
2889.19
2891.62
2894.85
2898.8
2903.42
2908.63
2914.39
2920.61
2927.25
2934.23
2941.5
2949
2956.66
2964.43
2972.25
2980.07
2987.83
2995.47
3002.96
3010.24
3017.28
3024.02
3030.43
3036.48
3042.14
3047.39
3052.19
3056.53
3060.4
3063.8
3066.71
3069.14
3071.09
3072.57
3073.6
3074.18
3074.35
3074.12
3073.51
3072.54
3071.26
3069.67
3067.81
3065.71
3063.4
3060.9
3058.25
3055.47
3052.59
3049.63
3046.63
3043.6
3040.57
3037.55
3034.57
3031.64
3028.77
3025.98
3023.29
3020.69
3018.19
3015.81
3013.55
3011.41
3009.39
3007.5
3005.73
3004.08
3002.56
3001.16
2999.87
2998.69
2997.62
2996.66
2995.79
2995.02
2994.34
2993.73
2993.21
2992.77
2992.39
2992.06
2991.8
2991.59
2991.42
2991.29
2991.21
2991.15
2991.13
2991.13
2991.16
2991.2
2991.26
2991.33
2991.42
2991.51
2991.61
2991.71
2991.82
2991.93
2992.04
2992.14
2992.25
2992.35
2992.45
2992.55
2992.64
2992.72
2992.8
2992.88
2992.94
2993.01
2993.06
2993.11
2993.16
2993.2
2993.23
2993.26
2993.28
2993.3
2993.31
2993.32
2993.32
2993.32
2993.32
2993.31
2993.3
2993.29
2993.27
2993.26
2993.24
2993.21
2993.19
2993.16
2993.14
2993.11
2993.08
2993.05
2993.02
2992.99
2992.96
2992.92
2992.89
2992.86
2992.83
2992.8
2992.77
2992.74
2992.71
2992.68
2992.65
2992.62
2992.6
2992.57
2992.55
2992.52
2992.5
2992.47
2992.45
2992.43
2992.41
2992.39
2992.37
2992.35
2992.34
2992.32
2992.31
2992.29
2992.28
2992.26
2992.25
2992.24
2992.23
2992.22
2992.2
2992.19
2992.19
2992.18
2992.17
2992.16
2992.15
2992.15
2992.14
2992.13
2992.13
2992.12
2992.12
2992.11
2992.11
2992.1
2992.1
2992.1
2992.09
2992.09
2992.09
2992.09
2992.08
2992.08
2992.08
2660.5
2642.93
2626.97
2612.66
2600.02
2589.01
2579.58
2571.67
2565.25
2560.27
2556.68
2554.46
2553.6
2554.06
2555.86
2559.05
2563.64
2569.68
2577.22
2586.35
2597.15
2609.7
2624.1
2640.41
2658.68
2678.95
2701.21
2725.44
2751.58
2779.53
2809.16
2840.29
2872.68
2906
2939.78
2974.19
3008.81
3043.22
3077.02
3109.84
3141.29
3171
3198.61
3223.75
3246.14
3265.52
3281.65
3294.33
3303.42
3308.81
3310.45
3308.13
3302.01
3292.1
3278.48
3261.28
3240.69
3216.88
3190.16
3160.84
3129.29
3095.94
3061.22
3025.63
2989.69
2953.92
2918.9
2884.89
2852.12
2821.03
2791.93
2765.06
2740.58
2718.58
2699.1
2682.12
2667.61
2655.48
2645.63
2637.93
2632.27
2628.5
2626.48
2626.04
2627.09
2629.49
2633.13
2637.93
2643.79
2650.65
2658.45
2667.14
2676.7
2687.12
2698.41
2710.59
2723.68
2737.72
2752.72
2768.71
2785.69
2803.64
2822.53
2842.3
2862.87
2884.14
2906
2928.29
2950.86
2973.51
2996.05
3018.27
3039.94
3060.82
3080.68
3099.28
3116.39
3131.79
3145.29
3156.71
3165.89
3172.71
3177.08
3178.96
3178.33
3175.22
3169.7
3161.85
3151.81