/*--------------------------------*- C++ -*----------------------------------*\
| =========                 |                                                 |
| \\      /  F ield         | OpenFOAM: The Open Source CFD Toolbox           |
|  \\    /   O peration     | Version:  3.0.1                                 |
|   \\  /    A nd           | Web:      www.OpenFOAM.org                      |
|    \\/     M anipulation  |                                                 |
\*---------------------------------------------------------------------------*/
FoamFile
{
    version     2.0;
    format      ascii;
    class       surfaceScalarField;
    location    "94";
    object      alphaPhi;
}
// * * * * * * * * * * * * * * * * * * * * * * * * * * * * * * * * * * * * * //

dimensions      [0 3 -1 0 0 0 0];

internalField   nonuniform List<scalar> 
42423
(
-0.00010511
1.03829e-05
-0.000114506
9.3961e-06
-0.00012303
8.52411e-06
-0.000130704
7.67339e-06
-0.000137543
6.83928e-06
-0.000143587
6.04448e-06
-0.000148866
5.27856e-06
-0.000153415
4.54909e-06
-0.000157263
3.84798e-06
-0.000160418
3.15526e-06
-0.000162893
2.47462e-06
-0.000164696
1.80329e-06
-0.000165827
1.13048e-06
-0.000166352
5.25807e-07
-0.000166161
-1.91524e-07
-0.00016527
-8.90821e-07
-0.000163721
-1.54908e-06
-0.000161425
-2.29615e-06
-0.000158372
-3.05293e-06
-0.000154643
-3.72894e-06
-0.000149988
-4.65498e-06
-0.000144481
-5.50748e-06
-0.000138239
-6.24112e-06
-0.000130951
-7.28804e-06
-0.00012281
-8.1413e-06
-0.00011355
-9.26007e-06
-0.00010327
-1.02798e-05
-9.20762e-05
-1.11941e-05
-7.98063e-05
-1.22699e-05
-6.63618e-05
-1.34446e-05
-5.20006e-05
-1.43612e-05
-3.65262e-05
-1.54744e-05
-2.02344e-05
-1.62919e-05
-2.982e-06
-1.72524e-05
1.50746e-05
-1.80567e-05
3.35682e-05
-1.84936e-05
5.25781e-05
-1.901e-05
7.1887e-05
-1.93089e-05
9.11161e-05
-1.92291e-05
0.000110242
-1.91261e-05
0.000128874
-1.86324e-05
0.000146837
-1.79623e-05
0.000163914
-1.70775e-05
0.000179674
-1.57595e-05
0.000193942
-1.42684e-05
0.000206502
-1.25605e-05
0.000217082
-1.05801e-05
0.00022564
-8.55784e-06
0.000231935
-6.29524e-06
0.000235796
-3.8606e-06
0.000237271
-1.47519e-06
0.000236227
1.04387e-06
0.000232762
3.46509e-06
0.000226994
5.76809e-06
0.000218889
8.10465e-06
0.000208756
1.01331e-05
0.000196676
1.20798e-05
0.000182954
1.3722e-05
0.0001677
1.52546e-05
0.000151182
1.65178e-05
0.000133773
1.74087e-05
0.000115587
1.81862e-05
9.68411e-05
1.87458e-05
7.77894e-05
1.90518e-05
5.86816e-05
1.91077e-05
3.9787e-05
1.88946e-05
2.12374e-05
1.85497e-05
3.09918e-06
1.81382e-05
-1.44851e-05
1.75843e-05
-3.14243e-05
1.69392e-05
-4.75406e-05
1.61162e-05
-6.2809e-05
1.52685e-05
-7.72276e-05
1.44186e-05
-9.06655e-05
1.34378e-05
-0.000103097
1.24311e-05
-0.000114647
1.15507e-05
-0.000125164
1.05162e-05
-0.000134766
9.60222e-06
-0.000143352
8.58633e-06
-0.000150985
7.6326e-06
-0.00015766
6.6752e-06
-0.000163357
5.69653e-06
-0.000168013
4.65549e-06
-0.00017173
3.71708e-06
-0.00017439
2.65968e-06
-0.00017598
1.5895e-06
-0.000176543
5.62516e-07
-0.000176003
-5.40033e-07
-0.000174552
-1.45094e-06
-0.000172307
-2.24621e-06
-0.000169337
-2.97016e-06
-0.000165831
-3.5057e-06
-0.000161727
-4.10479e-06
-0.000157071
-4.65604e-06
-0.000151834
-5.23755e-06
-0.000145945
-5.88987e-06
-0.000139386
-6.55919e-06
-0.000132108
-7.27809e-06
-0.000124027
-8.08168e-06
-0.000115144
-8.88289e-06
-0.000105378
-9.76566e-06
-9.46638e-05
-1.07147e-05
-8.31657e-05
-1.14983e-05
-7.07089e-05
-1.24569e-05
-5.73543e-05
-1.33548e-05
-4.31531e-05
-1.42013e-05
-2.81606e-05
-1.49926e-05
-1.24352e-05
-1.57255e-05
3.92937e-06
-1.63646e-05
2.08698e-05
-1.69405e-05
3.82702e-05
-1.74004e-05
5.59777e-05
-1.77076e-05
7.38301e-05
-1.78525e-05
9.1679e-05
-1.78489e-05
0.000109299
-1.76198e-05
0.000126488
-1.71888e-05
0.000143036
-1.65485e-05
0.000158678
-1.56417e-05
0.000173193
-1.45158e-05
0.000186324
-1.3131e-05
0.000197783
-1.14587e-05
0.000207409
-9.62627e-06
0.000214962
-7.55299e-06
0.000220252
-5.29003e-06
0.000223147
-2.89432e-06
0.000223608
-4.61034e-07
0.00022159
2.01767e-06
0.000216985
4.60543e-06
0.000209972
7.01269e-06
0.000200654
9.31799e-06
0.000189223
1.14314e-05
0.000175854
1.3369e-05
0.000160753
1.51002e-05
0.000144233
1.65204e-05
0.000126497
1.77362e-05
0.000107884
1.8613e-05
8.86657e-05
1.92178e-05
6.90022e-05
1.96635e-05
4.93513e-05
1.96509e-05
2.97757e-05
1.95757e-05
1.0548e-05
1.92277e-05
-8.06238e-06
1.86103e-05
-2.5952e-05
1.78896e-05
-4.29763e-05
1.70243e-05
-5.90143e-05
1.6038e-05
-7.40151e-05
1.50007e-05
-8.79554e-05
1.39404e-05
-0.000100766
1.28109e-05
-0.000112505
1.17388e-05
-0.000123118
1.06133e-05
-0.000132698
9.5792e-06
-0.00014122
8.5229e-06
-0.000148725
7.50506e-06
-0.000155283
6.55737e-06
-0.000161041
5.75869e-06
-0.000165929
4.88749e-06
-0.000170048
4.11904e-06
-0.000173399
3.3507e-06
-0.000176057
2.65875e-06
-0.000178025
1.96821e-06
-0.000179369
1.34372e-06
-0.000180094
7.24522e-07
-0.000180192
9.8826e-08
-0.0001797
-4.92201e-07
-0.000178558
-1.14214e-06
-0.000176836
-1.72197e-06
-0.000174413
-2.42324e-06
-0.000171467
-2.94558e-06
-0.000167744
-3.72269e-06
-0.000163373
-4.3718e-06
-0.000158195
-5.17773e-06
-0.000152363
-5.8322e-06
-0.000145672
-6.69091e-06
-0.000138179
-7.49289e-06
-0.000129862
-8.31625e-06
-0.000120618
-9.24423e-06
-0.000110606
-1.0012e-05
-9.96671e-05
-1.09391e-05
-8.78057e-05
-1.18615e-05
-7.50729e-05
-1.27328e-05
-6.14757e-05
-1.35972e-05
-4.70274e-05
-1.44483e-05
-3.17285e-05
-1.5299e-05
-1.5624e-05
-1.61046e-05
1.12915e-06
-1.67532e-05
1.84537e-05
-1.73246e-05
3.61032e-05
-1.76496e-05
5.39088e-05
-1.78057e-05
7.1595e-05
-1.76862e-05
8.89622e-05
-1.73673e-05
0.000105759
-1.67972e-05
0.00012178
-1.60208e-05
0.000136725
-1.49451e-05
0.000150414
-1.36887e-05
0.000162577
-1.21629e-05
0.000173
-1.04237e-05
0.000181494
-8.4939e-06
0.000187805
-6.3114e-06
0.00019185
-4.04468e-06
0.000193514
-1.66362e-06
0.000192778
7.35592e-07
0.000189574
3.20444e-06
0.00018393
5.6438e-06
0.000175908
8.02176e-06
0.00016578
1.01282e-05
0.000153651
1.21286e-05
0.000139842
1.3809e-05
0.000124546
1.52961e-05
0.000108049
1.64971e-05
9.06776e-05
1.73712e-05
7.26328e-05
1.80449e-05
5.42308e-05
1.8402e-05
3.56794e-05
1.85513e-05
1.72269e-05
1.84525e-05
-9.18109e-07
1.8145e-05
-1.85601e-05
1.7642e-05
-3.56604e-05
1.71003e-05
-5.19583e-05
1.62979e-05
-6.74478e-05
1.54895e-05
-8.20101e-05
1.45623e-05
-9.5634e-05
1.36239e-05
-0.000108276
1.26415e-05
-0.000119931
1.16555e-05
-0.000130622
1.06914e-05
-0.000140371
9.74902e-06
-0.000149187
8.8161e-06
-0.000157105
7.91808e-06
-0.000164126
7.02069e-06
-0.000170304
6.17756e-06
-0.000175634
5.33041e-06
-0.000180161
4.52764e-06
-0.000183908
3.74622e-06
-0.000186947
3.03907e-06
-0.000189291
2.34452e-06
-0.000190995
1.70399e-06
-0.000192069
1.07459e-06
-0.000192608
5.3899e-07
-0.000192542
-6.5512e-08
-0.000191892
-6.49884e-07
-0.000190659
-1.23301e-06
-0.000188807
-1.85163e-06
-0.000186314
-2.49358e-06
-0.000183139
-3.17443e-06
-0.000179329
-3.8095e-06
-0.00017485
-4.47893e-06
-0.000169777
-5.07262e-06
-0.000164078
-5.69898e-06
-0.000157748
-6.32961e-06
-0.000150773
-6.97545e-06
-0.000143068
-7.70411e-06
-0.00013463
-8.43797e-06
-0.000125418
-9.21255e-06
-0.000115414
-1.00032e-05
-0.000104602
-1.08123e-05
-9.29833e-05
-1.16184e-05
-8.06033e-05
-1.23799e-05
-6.7419e-05
-1.31843e-05
-5.35843e-05
-1.38347e-05
-3.90798e-05
-1.45045e-05
-2.39493e-05
-1.51305e-05
-8.28019e-06
-1.56691e-05
7.79028e-06
-1.60705e-05
2.41433e-05
-1.63531e-05
4.0599e-05
-1.64558e-05
5.69329e-05
-1.6334e-05
7.29091e-05
-1.59762e-05
8.82262e-05
-1.53173e-05
0.000102745
-1.45184e-05
0.000116213
-1.34684e-05
0.000128275
-1.2062e-05
0.000138809
-1.05342e-05
0.000147701
-8.89219e-06
0.000154589
-6.88823e-06
0.000159605
-5.01629e-06
0.000162468
-2.86227e-06
0.000163365
-8.97643e-07
0.000162203
1.16241e-06
0.000159034
3.16857e-06
0.000154077
4.9573e-06
0.000147296
6.78044e-06
0.000138776
8.51996e-06
0.000128697
1.00797e-05
0.000117147
1.15492e-05
0.000104353
1.27946e-05
9.0346e-05
1.40067e-05
7.5307e-05
1.5039e-05
5.9607e-05
1.56999e-05
4.33753e-05
1.62317e-05
2.69283e-05
1.6447e-05
1.04964e-05
1.64319e-05
-5.73408e-06
1.62304e-05
-2.149e-05
1.57559e-05
-3.66411e-05
1.51512e-05
-5.10911e-05
1.44499e-05
-6.46893e-05
1.35982e-05
-7.73823e-05
1.2693e-05
-8.915e-05
1.17678e-05
-9.99193e-05
1.07693e-05
-0.000109738
9.81895e-06
-0.000118623
8.88484e-06
-0.0001266
7.97669e-06
-0.000133752
7.15183e-06
-0.000140118
6.36672e-06
-0.000145758
5.63992e-06
-0.000150748
4.98923e-06
-0.000155115
4.36773e-06
-0.00015894
3.82427e-06
-0.000162275
3.33501e-06
-0.000165133
2.85837e-06
-0.000167557
2.42451e-06
-0.000169529
1.97153e-06
-0.000171039
1.50968e-06
-0.000172072
1.03324e-06
-0.000172616
5.43997e-07
-0.000172524
-9.17092e-08
-0.00017177
-7.54236e-07
-0.00017025
-1.52009e-06
-0.000168005
-2.24467e-06
-0.000164902
-3.10355e-06
-0.000160823
-4.07885e-06
-0.000155823
-5.00022e-06
-0.000149855
-5.96786e-06
-0.000142715
-7.14012e-06
-0.000134552
-8.16307e-06
-0.000125214
-9.3378e-06
-0.000114814
-1.03993e-05
-0.000103446
-1.13687e-05
-9.09843e-05
-1.24615e-05
-7.75107e-05
-1.34736e-05
-6.32295e-05
-1.42812e-05
-4.80718e-05
-1.51577e-05
-3.21835e-05
-1.58883e-05
-1.57946e-05
-1.6389e-05
1.0695e-06
-1.68641e-05
1.81554e-05
-1.70859e-05
3.54194e-05
-1.7264e-05
5.25885e-05
-1.71692e-05
6.93817e-05
-1.67932e-05
8.57396e-05
-1.63579e-05
0.000101444
-1.57041e-05
0.000116202
-1.47586e-05
0.00012991
-1.37079e-05
0.000142394
-1.24839e-05
0.000153487
-1.10926e-05
0.00016305
-9.56294e-06
0.000170939
-7.88911e-06
0.000177065
-6.12689e-06
0.000181368
-4.30302e-06
0.000183784
-2.41543e-06
0.000184316
-5.31781e-07
0.000182766
1.55009e-06
0.000179267
3.49831e-06
0.000173893
5.37416e-06
0.000166685
7.20759e-06
0.000157885
8.80075e-06
0.000147482
1.04029e-05
1.18951e-05
-0.00010515
2.07686e-05
-0.000114546
1.87921e-05
-0.000123071
1.70494e-05
-0.000130745
1.53476e-05
-0.000137584
1.36784e-05
-0.000143631
1.20915e-05
-0.000148914
1.05608e-05
-0.000153462
9.09755e-06
-0.000157307
7.69336e-06
-0.000160464
6.31144e-06
-0.000162939
4.94975e-06
-0.000164742
3.60616e-06
-0.000165878
2.26654e-06
-0.000166407
1.05477e-06
-0.000166212
-3.8611e-07
-0.000165317
-1.78592e-06
-0.000163767
-3.09883e-06
-0.000161474
-4.58987e-06
-0.00015842
-6.10643e-06
-0.000154695
-7.45425e-06
-0.000150042
-9.30771e-06
-0.000144535
-1.10151e-05
-0.000138292
-1.24841e-05
-0.000131004
-1.45756e-05
-0.000122867
-1.62786e-05
-0.000113606
-1.85206e-05
-0.000103327
-2.05593e-05
-9.21335e-05
-2.23875e-05
-7.98624e-05
-2.45411e-05
-6.64102e-05
-2.68967e-05
-5.20492e-05
-2.87223e-05
-3.65723e-05
-3.09513e-05
-2.0275e-05
-3.25892e-05
-3.01718e-06
-3.45103e-05
1.50433e-05
-3.61172e-05
3.35469e-05
-3.69973e-05
5.25691e-05
-3.80323e-05
7.18851e-05
-3.86249e-05
9.11244e-05
-3.84685e-05
0.000110259
-3.82612e-05
0.000128906
-3.72788e-05
0.000146884
-3.59409e-05
0.000163972
-3.41647e-05
0.00017974
-3.15274e-05
0.000194027
-2.85558e-05
0.000206604
-2.51372e-05
0.000217186
-2.11622e-05
0.00022575
-1.71225e-05
0.000232055
-1.26001e-05
0.000235912
-7.71758e-06
0.000237398
-2.96105e-06
0.000236345
2.09671e-06
0.000232877
6.93313e-06
0.000227114
1.15311e-05
0.000219003
1.62153e-05
0.000208865
2.02708e-05
0.000196775
2.41706e-05
0.000183043
2.74535e-05
0.00016778
3.05172e-05
0.000151248
3.30501e-05
0.000133828
3.48286e-05
0.000115634
3.63799e-05
9.68763e-05
3.75039e-05
7.78176e-05
3.81104e-05
5.86922e-05
3.82331e-05
3.97862e-05
3.78006e-05
2.12283e-05
3.71075e-05
3.07823e-06
3.62882e-05
-1.45192e-05
3.51817e-05
-3.14674e-05
3.38874e-05
-4.75912e-05
3.224e-05
-6.28662e-05
3.05434e-05
-7.72891e-05
2.88415e-05
-9.07301e-05
2.68788e-05
-0.000103164
2.48648e-05
-0.000114714
2.31011e-05
-0.00012523
2.10322e-05
-0.000134836
1.9208e-05
-0.000143423
1.71734e-05
-0.00015106
1.5269e-05
-0.000157734
1.33488e-05
-0.000163421
1.13839e-05
-0.000168078
9.3118e-06
-0.000171792
7.43106e-06
-0.000174455
5.32265e-06
-0.000176039
3.17324e-06
-0.000176594
1.11723e-06
-0.000176045
-1.08916e-06
-0.000174572
-2.92451e-06
-0.000172316
-4.50326e-06
-0.00016934
-5.94585e-06
-0.000165825
-7.02176e-06
-0.000161717
-8.21296e-06
-0.000157057
-9.31609e-06
-0.000151816
-1.04795e-05
-0.000145928
-1.17783e-05
-0.000139365
-1.31217e-05
-0.000132099
-1.45452e-05
-0.000124042
-1.61388e-05
-0.000115151
-1.77737e-05
-0.000105393
-1.95242e-05
-9.46827e-05
-2.14251e-05
-8.31818e-05
-2.29994e-05
-7.07242e-05
-2.49146e-05
-5.7376e-05
-2.67032e-05
-4.3183e-05
-2.83943e-05
-2.81919e-05
-2.99839e-05
-1.24615e-05
-3.1456e-05
3.90496e-06
-3.27312e-05
2.08544e-05
-3.389e-05
3.82578e-05
-3.48038e-05
5.59731e-05
-3.5423e-05
7.38384e-05
-3.57179e-05
9.16901e-05
-3.57006e-05
0.000109311
-3.52407e-05
0.000126512
-3.43899e-05
0.000143071
-3.31072e-05
0.000158721
-3.12923e-05
0.000173249
-2.90434e-05
0.000186379
-2.62614e-05
0.000197846
-2.29249e-05
0.000207466
-1.92465e-05
0.000215011
-1.50985e-05
0.000220298
-1.05771e-05
0.000223196
-5.79244e-06
0.000223646
-9.10525e-07
0.000221592
4.07166e-06
0.000216979
9.21849e-06
0.000209955
1.40364e-05
0.000200618
1.86549e-05
0.000189162
2.28872e-05
0.000175799
2.67327e-05
0.000160647
3.02514e-05
0.000144104
3.30642e-05
0.000126387
3.54525e-05
0.000107703
3.72976e-05
8.84698e-05
3.84509e-05
6.87877e-05
3.93456e-05
4.9083e-05
3.93557e-05
2.94869e-05
3.91717e-05
1.03214e-05
3.83933e-05
-8.33856e-06
3.72703e-05
-2.62225e-05
3.57736e-05
-4.32458e-05
3.40477e-05
-5.92841e-05
3.20764e-05
-7.42927e-05
3.00093e-05
-8.82225e-05
2.78703e-05
-0.000101027
2.56149e-05
-0.000112753
2.34649e-05
-0.000123381
2.12419e-05
-0.000132937
1.91352e-05
-0.000141445
1.70303e-05
-0.000148954
1.50149e-05
-0.000155501
1.31041e-05
-0.000161251
1.15087e-05
-0.000166128
9.76482e-06
-0.000170233
8.22353e-06
-0.000173576
6.69348e-06
-0.000176227
5.31049e-06
-0.000178211
3.95153e-06
-0.000179549
2.68198e-06
-0.000180269
1.44447e-06
-0.000180353
1.83703e-07
-0.000179859
-9.87053e-07
-0.000178721
-2.27995e-06
-0.000176986
-3.457e-06
-0.000174591
-4.81827e-06
-0.000171604
-5.93227e-06
-0.000167865
-7.46131e-06
-0.000163516
-8.72149e-06
-0.000158336
-1.03576e-05
-0.000152493
-1.16744e-05
-0.000145796
-1.33879e-05
-0.000138305
-1.49844e-05
-0.000129987
-1.66342e-05
-0.000120737
-1.84944e-05
-0.000110733
-2.00155e-05
-9.97872e-05
-2.18851e-05
-8.79035e-05
-2.37452e-05
-7.51924e-05
-2.54439e-05
-6.15886e-05
-2.72012e-05
-4.71372e-05
-2.88997e-05
-3.18362e-05
-3.06e-05
-1.57353e-05
-3.22055e-05
1.03479e-06
-3.35233e-05
1.83726e-05
-3.46624e-05
3.60323e-05
-3.53094e-05
5.38397e-05
-3.56132e-05
7.15379e-05
-3.53845e-05
8.89166e-05
-3.47461e-05
0.000105725
-3.36057e-05
0.000121759
-3.2055e-05
0.000136711
-2.98973e-05
0.000150394
-2.7372e-05
0.000162562
-2.43302e-05
0.000172979
-2.08414e-05
0.000181464
-1.69787e-05
0.000187777
-1.26243e-05
0.000191819
-8.08658e-06
0.000193485
-3.33015e-06
0.000192733
1.48817e-06
0.000189513
6.42405e-06
0.000183861
1.12955e-05
0.000175824
1.60589e-05
0.000165679
2.02731e-05
0.000153537
2.42702e-05
0.000139709
2.76376e-05
0.000124438
3.05666e-05
0.000107895
3.30407e-05
9.0496e-05
3.477e-05
7.24453e-05
3.60956e-05
5.40304e-05
3.68169e-05
3.54726e-05
3.71091e-05
1.70186e-05
3.69065e-05
-1.12851e-06
3.62922e-05
-1.8804e-05
3.53175e-05
-3.58817e-05
3.41781e-05
-5.21834e-05
3.25996e-05
-6.76649e-05
3.0971e-05
-8.22281e-05
2.91255e-05
-9.58533e-05
2.72491e-05
-0.00010849
2.52782e-05
-0.000120137
2.33029e-05
-0.000130789
2.1343e-05
-0.000140569
1.95294e-05
-0.000149382
1.76289e-05
-0.000157295
1.58309e-05
-0.000164317
1.40433e-05
-0.000170496
1.2356e-05
-0.00017581
1.06444e-05
-0.000180338
9.05569e-06
-0.000184085
7.49383e-06
-0.000187123
6.07743e-06
-0.000189467
4.68878e-06
-0.000191166
3.4028e-06
-0.000192239
2.14726e-06
-0.000192767
1.06767e-06
-0.000192706
-1.26942e-07
-0.000192067
-1.28882e-06
-0.000190837
-2.46191e-06
-0.000188991
-3.6981e-06
-0.000186494
-4.99021e-06
-0.000183322
-6.34623e-06
-0.000179505
-7.62623e-06
-0.000175024
-8.9598e-06
-0.000169941
-1.01555e-05
-0.000164243
-1.13963e-05
-0.000157906
-1.26669e-05
-0.000150924
-1.39575e-05
-0.000143202
-1.54257e-05
-0.000134765
-1.68743e-05
-0.000125548
-1.843e-05
-0.000115537
-2.00141e-05
-0.000104719
-2.16301e-05
-9.30999e-05
-2.32373e-05
-8.07073e-05
-2.47724e-05
-6.75293e-05
-2.63621e-05
-5.36738e-05
-2.76901e-05
-3.91571e-05
-2.90212e-05
-2.40181e-05
-3.02696e-05
-8.34078e-06
-3.13464e-05
7.74282e-06
-3.21542e-05
2.41105e-05
-3.27208e-05
4.05774e-05
-3.29228e-05
5.69314e-05
-3.26881e-05
7.29196e-05
-3.19645e-05
8.82491e-05
-3.06469e-05
0.000102785
-2.90544e-05
0.000116269
-2.69529e-05
0.000128356
-2.41492e-05
0.000138884
-2.10622e-05
0.000147782
-1.77899e-05
0.000154679
-1.37855e-05
0.000159701
-1.00386e-05
0.000162565
-5.72585e-06
0.000163468
-1.80033e-06
0.000162296
2.33363e-06
0.000159126
6.33885e-06
0.000154171
9.91195e-06
0.000147388
1.35637e-05
0.000138858
1.70497e-05
0.000128774
2.01636e-05
0.000117219
2.31044e-05
0.000104418
2.55952e-05
9.04027e-05
2.80221e-05
7.5351e-05
3.00907e-05
5.96423e-05
3.14087e-05
4.33977e-05
3.24762e-05
2.69407e-05
3.2904e-05
1.04976e-05
3.28751e-05
-5.74532e-06
3.24733e-05
-2.15113e-05
3.15219e-05
-3.66699e-05
3.03097e-05
-5.11261e-05
2.89061e-05
-6.47298e-05
2.72019e-05
-7.7427e-05
2.53902e-05
-8.91974e-05
2.35382e-05
-9.99694e-05
2.15412e-05
-0.000109789
1.96384e-05
-0.000118674
1.77703e-05
-0.000126651
1.59531e-05
-0.000133801
1.43022e-05
-0.000140166
1.27319e-05
-0.000145804
1.12774e-05
-0.000150791
9.97685e-06
-0.000155162
8.73847e-06
-0.000158984
7.64612e-06
-0.000162316
6.66733e-06
-0.000165174
5.7165e-06
-0.000167602
4.85246e-06
-0.000169581
3.94997e-06
-0.000171092
3.02056e-06
-0.000172122
2.0636e-06
-0.000172665
1.08713e-06
-0.000172573
-1.83728e-07
-0.000171822
-1.50503e-06
-0.000170307
-3.03502e-06
-0.000168064
-4.48815e-06
-0.00016496
-6.20752e-06
-0.000160884
-8.15524e-06
-0.000155885
-9.9987e-06
-0.000149915
-1.19375e-05
-0.000142777
-1.42788e-05
-0.000134614
-1.63262e-05
-0.000125274
-1.8677e-05
-0.000114873
-2.08007e-05
-0.000103503
-2.27387e-05
-9.10381e-05
-2.49266e-05
-7.75599e-05
-2.69517e-05
-6.32727e-05
-2.85685e-05
-4.81066e-05
-3.03238e-05
-3.22131e-05
-3.17819e-05
-1.58173e-05
-3.27847e-05
1.05651e-06
-3.37379e-05
1.81567e-05
-3.41862e-05
3.54277e-05
-3.4535e-05
5.26058e-05
-3.43472e-05
6.94158e-05
-3.36033e-05
8.5779e-05
-3.27212e-05
0.000101489
-3.14142e-05
0.000116262
-2.95314e-05
0.000129977
-2.74234e-05
0.000142466
-2.49727e-05
0.000153565
-2.21914e-05
0.000163134
-1.9132e-05
0.000171029
-1.57839e-05
0.000177162
-1.22599e-05
0.000181465
-8.60685e-06
0.000183877
-4.82733e-06
0.000184406
-1.06053e-06
0.000182846
3.11027e-06
0.000179345
6.99885e-06
0.000173968
1.07514e-05
0.000166754
1.44211e-05
0.000157948
1.76074e-05
0.000147538
2.08122e-05
2.37983e-05
-0.000105223
3.11541e-05
-0.000114619
2.81878e-05
-0.000123144
2.55746e-05
-0.000130817
2.30207e-05
-0.000137657
2.05176e-05
-0.000143703
1.81376e-05
-0.000148983
1.58413e-05
-0.000153535
1.36496e-05
-0.000157384
1.15425e-05
-0.000160541
9.46761e-06
-0.000163012
7.42162e-06
-0.000164817
5.41121e-06
-0.00016596
3.40945e-06
-0.000166468
1.562e-06
-0.000166264
-5.89778e-07
-0.000165375
-2.6751e-06
-0.000163821
-4.65307e-06
-0.000161534
-6.87678e-06
-0.000158479
-9.16065e-06
-0.000154761
-1.11729e-05
-0.000150106
-1.39622e-05
-0.000144606
-1.65151e-05
-0.000138361
-1.87298e-05
-0.000131076
-2.18608e-05
-0.000122947
-2.44071e-05
-0.000113684
-2.77839e-05
-0.000103408
-3.08354e-05
-9.22184e-05
-3.35769e-05
-7.99506e-05
-3.6809e-05
-6.64869e-05
-4.03604e-05
-5.21255e-05
-4.30839e-05
-3.66427e-05
-4.64342e-05
-2.03377e-05
-4.88942e-05
-3.07175e-06
-5.17763e-05
1.50025e-05
-5.41914e-05
3.35167e-05
-5.55116e-05
5.25516e-05
-5.70672e-05
7.18858e-05
-5.79591e-05
9.11391e-05
-5.77219e-05
0.000110293
-5.7415e-05
0.000128959
-5.59453e-05
0.000146956
-5.39379e-05
0.000164065
-5.12734e-05
0.000179853
-4.73161e-05
0.000194157
-4.286e-05
0.000206756
-3.77364e-05
0.000217349
-3.17545e-05
0.000225923
-2.56964e-05
0.000232245
-1.89221e-05
0.000236098
-1.15712e-05
0.000237591
-4.4536e-06
0.000236519
3.16861e-06
0.000233045
1.04065e-05
0.000227288
1.72882e-05
0.000219165
2.4338e-05
0.000209018
3.04177e-05
0.00019691
3.62788e-05
0.000183156
4.12075e-05
0.000167881
4.57927e-05
0.000151325
4.96056e-05
0.000133882
5.22715e-05
0.000115679
5.4583e-05
9.69032e-05
5.62797e-05
7.78431e-05
5.71705e-05
5.8684e-05
5.73923e-05
3.97608e-05
5.67238e-05
2.11918e-05
5.56764e-05
3.0228e-06
5.44573e-05
-1.458e-05
5.27845e-05
-3.15357e-05
5.08431e-05
-4.76647e-05
4.8369e-05
-6.29462e-05
4.58249e-05
-7.73746e-05
4.32698e-05
-9.08176e-05
4.03217e-05
-0.000103251
3.72981e-05
-0.000114793
3.46435e-05
-0.000125312
3.15505e-05
-0.000134933
2.88289e-05
-0.000143515
2.57563e-05
-0.000151146
2.28995e-05
-0.000157818
2.00207e-05
-0.000163497
1.70622e-05
-0.000168159
1.39738e-05
-0.000171877
1.11484e-05
-0.000174562
8.00811e-06
-0.000176146
4.75647e-06
-0.000176677
1.64852e-06
-0.000176115
-1.65206e-06
-0.000174634
-4.4056e-06
-0.000172373
-6.76521e-06
-0.000169391
-8.92747e-06
-0.000165865
-1.0549e-05
-0.000161762
-1.23164e-05
-0.000157109
-1.39688e-05
-0.00015188
-1.57095e-05
-0.00014601
-1.76484e-05
-0.000139474
-1.96573e-05
-0.000132214
-2.18064e-05
-0.000124156
-2.41967e-05
-0.000115297
-2.66333e-05
-0.000105553
-2.92679e-05
-9.48484e-05
-3.213e-05
-8.33623e-05
-3.44857e-05
-7.09138e-05
-3.73632e-05
-5.75764e-05
-4.00407e-05
-4.33835e-05
-4.25873e-05
-2.8389e-05
-4.49784e-05
-1.26552e-05
-4.71899e-05
3.73474e-06
-4.91211e-05
2.06827e-05
-5.08381e-05
3.80848e-05
-5.2206e-05
5.58165e-05
-5.31546e-05
7.36876e-05
-5.3589e-05
9.15687e-05
-5.35817e-05
0.000109199
-5.28711e-05
0.000126418
-5.16091e-05
0.000142992
-4.9681e-05
0.000158671
-4.69712e-05
0.000173211
-4.35832e-05
0.000186348
-3.93984e-05
0.000197839
-3.44161e-05
0.000207469
-2.88772e-05
0.000215021
-2.26499e-05
0.000220315
-1.58715e-05
0.000223219
-8.69611e-06
0.000223675
-1.3666e-06
0.000221573
6.17403e-06
0.000216953
1.38384e-05
0.000209923
2.10657e-05
0.000200589
2.79894e-05
0.000189084
3.43923e-05
0.00017566
4.01561e-05
0.000160511
4.54005e-05
0.000143936
4.96391e-05
0.000126206
5.31833e-05
0.000107484
5.6019e-05
8.81876e-05
5.77476e-05
6.85721e-05
5.89612e-05
4.8788e-05
5.91397e-05
2.9179e-05
5.87808e-05
1.00303e-05
5.7542e-05
-8.66726e-06
5.59679e-05
-2.65663e-05
5.36726e-05
-4.35957e-05
5.10772e-05
-5.96413e-05
4.8122e-05
-7.46513e-05
4.50193e-05
-8.85683e-05
4.17873e-05
-0.000101386
3.84326e-05
-0.00011307
3.51489e-05
-0.000123753
3.19246e-05
-0.000133295
2.86774e-05
-0.000141784
2.55193e-05
-0.00014929
2.25214e-05
-0.000155871
1.96852e-05
-0.000161566
1.72032e-05
-0.000166429
1.46277e-05
-0.00017054
1.23349e-05
-0.000173899
1.00522e-05
-0.000176493
7.90493e-06
-0.000178527
5.98526e-06
-0.000179856
4.01125e-06
-0.000180575
2.16313e-06
-0.000180666
2.75437e-07
-0.000180163
-1.49017e-06
-0.000179044
-3.39955e-06
-0.000177286
-5.21473e-06
-0.000174926
-7.17855e-06
-0.00017191
-8.9476e-06
-0.000168166
-1.12054e-05
-0.00016383
-1.30573e-05
-0.000158685
-1.55028e-05
-0.000152795
-1.75644e-05
-0.000146088
-2.00948e-05
-0.000138604
-2.24689e-05
-0.000130281
-2.49571e-05
-0.000121101
-2.76745e-05
-0.000111033
-3.00831e-05
-0.000100086
-3.2832e-05
-8.81535e-05
-3.56777e-05
-7.55e-05
-3.80973e-05
-6.18733e-05
-4.08279e-05
-4.74297e-05
-4.33433e-05
-3.2125e-05
-4.59048e-05
-1.60257e-05
-4.83048e-05
7.74519e-07
-5.03236e-05
1.81165e-05
-5.20045e-05
3.58305e-05
-5.30233e-05
5.36439e-05
-5.34266e-05
7.13649e-05
-5.31056e-05
8.87627e-05
-5.21438e-05
0.000105581
-5.04245e-05
0.000121632
-4.81055e-05
0.000136599
-4.48643e-05
0.000150306
-4.10792e-05
0.000162498
-3.6522e-05
0.000172953
-3.12968e-05
0.000181411
-2.54367e-05
0.00018774
-1.89529e-05
0.000191791
-1.21383e-05
0.00019346
-4.99945e-06
0.000192689
2.25947e-06
0.000189452
9.66142e-06
0.000183767
1.69797e-05
0.000175771
2.40553e-05
0.000165587
3.04566e-05
0.00015343
3.64278e-05
0.000139567
4.15006e-05
0.000124278
4.58551e-05
0.000107725
4.95935e-05
9.02874e-05
5.22079e-05
7.22172e-05
5.41658e-05
5.37832e-05
5.52509e-05
3.52179e-05
5.56744e-05
1.67557e-05
5.53687e-05
-1.40509e-06
5.44529e-05
-1.91165e-05
5.30289e-05
-3.61808e-05
5.12424e-05
-5.24993e-05
4.89181e-05
-6.79849e-05
4.64566e-05
-8.25513e-05
4.36919e-05
-9.61774e-05
4.08752e-05
-0.000108809
3.79096e-05
-0.000120452
3.49464e-05
-0.000131112
3.20025e-05
-0.000140901
2.93187e-05
-0.000149713
2.64404e-05
-0.000157621
2.37398e-05
-0.000164631
2.10532e-05
-0.000170819
1.85437e-05
-0.00017613
1.59561e-05
-0.000180642
1.3567e-05
-0.000184407
1.12596e-05
-0.00018744
9.11031e-06
-0.000189778
7.02672e-06
-0.000191471
5.09614e-06
-0.000192561
3.23753e-06
-0.000193083
1.58985e-06
-0.000193029
-1.81036e-07
-0.000192392
-1.92543e-06
-0.000191155
-3.69889e-06
-0.000189314
-5.53937e-06
-0.000186809
-7.49463e-06
-0.000183649
-9.50587e-06
-0.000179812
-1.14637e-05
-0.00017533
-1.34412e-05
-0.000170223
-1.5262e-05
-0.000164518
-1.71014e-05
-0.000158167
-1.90175e-05
-0.000151183
-2.09417e-05
-0.000143452
-2.31568e-05
-0.000135013
-2.53122e-05
-0.000125779
-2.76648e-05
-0.000115743
-3.00499e-05
-0.000104937
-3.2436e-05
-9.33081e-05
-3.48657e-05
-8.09012e-05
-3.71793e-05
-6.77329e-05
-3.95303e-05
-5.38495e-05
-4.15735e-05
-3.93185e-05
-4.35522e-05
-2.4167e-05
-4.54211e-05
-8.47502e-06
-4.70385e-05
7.63639e-06
-4.82656e-05
2.40279e-05
-4.91123e-05
4.05082e-05
-4.94032e-05
5.68949e-05
-4.90749e-05
7.29169e-05
-4.79867e-05
8.82633e-05
-4.59934e-05
0.000102823
-4.36147e-05
0.000116334
-4.04634e-05
0.000128477
-3.62926e-05
0.000138984
-3.15696e-05
0.000147892
-2.66974e-05
0.000154806
-2.07003e-05
0.000159832
-1.50644e-05
0.000162703
-8.59708e-06
0.000163615
-2.71246e-06
0.000162427
3.52169e-06
0.000159259
9.50672e-06
0.000154306
1.48656e-05
0.000147516
2.03536e-05
0.000138969
2.55965e-05
0.00012888
3.02525e-05
0.000117316
3.46679e-05
0.000104504
3.84071e-05
9.04723e-05
4.20542e-05
7.54055e-05
4.51575e-05
5.96798e-05
4.71343e-05
4.34119e-05
4.87442e-05
2.69345e-05
4.93813e-05
1.04746e-05
4.9335e-05
-5.78204e-06
4.873e-05
-2.15622e-05
4.7302e-05
-3.67317e-05
4.54792e-05
-5.11957e-05
4.33702e-05
-6.48058e-05
4.0812e-05
-7.75049e-05
3.80892e-05
-8.92751e-05
3.53084e-05
-0.000100049
3.2315e-05
-0.000109871
2.94607e-05
-0.000118752
2.66508e-05
-0.000126722
2.39239e-05
-0.000133868
2.14476e-05
-0.00014023
1.90936e-05
-0.000145863
1.69109e-05
-0.000150849
1.49624e-05
-0.000155216
1.31061e-05
-0.000159034
1.14645e-05
-0.000162368
1.00011e-05
-0.000165225
8.5734e-06
-0.000167652
7.27954e-06
-0.000169633
5.93086e-06
-0.00017115
4.53739e-06
-0.000172189
3.10283e-06
-0.000172735
1.63277e-06
-0.000172631
-2.87086e-07
-0.00017188
-2.25688e-06
-0.000170374
-4.54075e-06
-0.000168135
-6.72662e-06
-0.000165031
-9.31203e-06
-0.000160958
-1.22279e-05
-0.000155967
-1.49904e-05
-0.000149997
-1.79073e-05
-0.00014286
-2.14154e-05
-0.000134698
-2.44882e-05
-0.000125359
-2.80161e-05
-0.000114958
-3.12021e-05
-0.000103588
-3.41086e-05
-9.11172e-05
-3.73973e-05
-7.76325e-05
-4.04365e-05
-6.33351e-05
-4.28658e-05
-4.81579e-05
-4.5501e-05
-3.2253e-05
-4.76868e-05
-1.58448e-05
-4.9193e-05
1.05033e-06
-5.06331e-05
1.81647e-05
-5.13005e-05
3.54546e-05
-5.1825e-05
5.26515e-05
-5.15441e-05
6.94731e-05
-5.04249e-05
8.5854e-05
-4.91021e-05
0.000101588
-4.71482e-05
0.000116374
-4.43173e-05
0.000130099
-4.11485e-05
0.000142602
-3.74762e-05
0.000153715
-3.33038e-05
0.000163294
-2.87116e-05
0.000171192
-2.3682e-05
0.000177321
-1.83889e-05
0.000181617
-1.29025e-05
0.000184029
-7.23948e-06
0.000184557
-1.58847e-06
0.000182983
4.6842e-06
0.000179485
1.04969e-05
0.000174105
1.61312e-05
0.000166884
2.16423e-05
0.000158067
2.64235e-05
0.000147647
3.12323e-05
3.57136e-05
-0.000105334
4.15393e-05
-0.00011473
3.75841e-05
-0.000123255
3.40993e-05
-0.000130927
3.0693e-05
-0.000137766
2.73558e-05
-0.000143812
2.41836e-05
-0.000149093
2.1123e-05
-0.000153646
1.82027e-05
-0.000157499
1.5395e-05
-0.000160656
1.26243e-05
-0.000163127
9.89341e-06
-0.000164932
7.21564e-06
-0.000166082
4.55998e-06
-0.000166559
2.03857e-06
-0.000166342
-8.0722e-07
-0.000165462
-3.55481e-06
-0.000163901
-6.21381e-06
-0.000161624
-9.1537e-06
-0.000158568
-1.22168e-05
-0.00015486
-1.48808e-05
-0.000150204
-1.86179e-05
-0.000144718
-2.20015e-05
-0.000138464
-2.49834e-05
-0.000131182
-2.91433e-05
-0.000123068
-3.25207e-05
-0.0001138
-3.70525e-05
-0.000103529
-4.11059e-05
-9.23493e-05
-4.47569e-05
-8.00839e-05
-4.90744e-05
-6.66025e-05
-5.38419e-05
-5.22387e-05
-5.74477e-05
-3.67487e-05
-6.19242e-05
-2.04324e-05
-6.52106e-05
-3.15229e-06
-6.90565e-05
1.49406e-05
-7.22844e-05
3.34721e-05
-7.40432e-05
5.25247e-05
-7.61199e-05
7.18863e-05
-7.73208e-05
9.11621e-05
-7.69977e-05
0.000110343
-7.65957e-05
0.000129038
-7.46404e-05
0.000147064
-7.1964e-05
0.000164205
-6.84144e-05
0.000180021
-6.31328e-05
0.000194352
-5.71902e-05
0.000206986
-5.03705e-05
0.000217598
-4.23667e-05
0.000226183
-3.42813e-05
0.000232525
-2.52649e-05
0.000236375
-1.5421e-05
0.000237867
-5.9453e-06
0.000236777
4.25839e-06
0.000233302
1.38817e-05
0.000227549
2.30408e-05
0.000219408
3.24792e-05
0.000209247
4.05788e-05
0.000197113
4.84125e-05
0.000183325
5.49958e-05
0.00016803
6.10876e-05
0.00015144
6.61952e-05
0.000133963
6.97489e-05
0.000115745
7.28004e-05
9.6942e-05
7.50828e-05
7.7891e-05
7.62215e-05
5.86724e-05
7.66108e-05
3.97225e-05
7.56736e-05
2.11365e-05
7.42625e-05
2.93968e-06
7.2654e-05
-1.46717e-05
7.03959e-05
-3.16416e-05
6.7813e-05
-4.77802e-05
6.45075e-05
-6.30676e-05
6.11123e-05
-7.75039e-05
5.77061e-05
-9.09489e-05
5.37666e-05
-0.000103387
4.97363e-05
-0.000114922
4.61781e-05
-0.000125436
4.20642e-05
-0.000135075
3.84685e-05
-0.000143656
3.43374e-05
-0.000151285
3.05286e-05
-0.000157954
2.66895e-05
-0.000163608
2.27155e-05
-0.000168294
1.86597e-05
-0.000172017
1.4871e-05
-0.000174727
1.0718e-05
-0.000176316
6.34511e-06
-0.000176829
2.16127e-06
-0.000176246
-2.23557e-06
-0.000174757
-5.89501e-06
-0.000172487
-9.03589e-06
-0.000169525
-1.18898e-05
-0.000165976
-1.40979e-05
-0.000161885
-1.6408e-05
-0.00015725
-1.86042e-05
-0.000152046
-2.09134e-05
-0.000146205
-2.34897e-05
-0.000139716
-2.61474e-05
-0.000132464
-2.90581e-05
-0.000124388
-3.22726e-05
-0.000115591
-3.54309e-05