/*--------------------------------*- C++ -*----------------------------------*\
| =========                 |                                                 |
| \\      /  F ield         | OpenFOAM: The Open Source CFD Toolbox           |
|  \\    /   O peration     | Version:  3.0.1                                 |
|   \\  /    A nd           | Web:      www.OpenFOAM.org                      |
|    \\/     M anipulation  |                                                 |
\*---------------------------------------------------------------------------*/
FoamFile
{
    version     2.0;
    format      ascii;
    class       surfaceScalarField;
    location    "94";
    object      phi;
}
// * * * * * * * * * * * * * * * * * * * * * * * * * * * * * * * * * * * * * //

dimensions      [0 3 -1 0 0 0 0];

internalField   nonuniform List<scalar> 
42423
(
-0.000102927
1.06016e-05
-0.000112535
9.60876e-06
-0.000121266
8.73078e-06
-0.000129139
7.87276e-06
-0.000136169
7.0303e-06
-0.000142397
6.22833e-06
-0.000147852
5.45465e-06
-0.000152571
4.7188e-06
-0.000156583
4.01168e-06
-0.000159897
3.31414e-06
-0.000162527
2.62989e-06
-0.000164482
1.95565e-06
-0.00016576
1.27723e-06
-0.000166432
6.72625e-07
-0.000166405
-2.68801e-08
-0.000165675
-7.30668e-07
-0.000164284
-1.39082e-06
-0.00016215
-2.13377e-06
-0.000159266
-2.8845e-06
-0.00015571
-3.5557e-06
-0.000151237
-4.47266e-06
-0.00014592
-5.31709e-06
-0.000139875
-6.04491e-06
-0.000132792
-7.08301e-06
-0.000124862
-7.93007e-06
-0.00011582
-9.04188e-06
-0.000105765
-1.00557e-05
-9.47961e-05
-1.09685e-05
-8.27521e-05
-1.2044e-05
-6.95337e-05
-1.32184e-05
-5.53918e-05
-1.4142e-05
-4.0126e-05
-1.52658e-05
-2.40287e-05
-1.60973e-05
-6.94978e-06
-1.70789e-05
1.09585e-05
-1.79084e-05
2.93353e-05
-1.83768e-05
4.82683e-05
-1.89331e-05
6.75444e-05
-1.92761e-05
8.67872e-05
-1.92429e-05
0.000105982
-1.91948e-05
0.000124739
-1.87573e-05
0.000142887
-1.81478e-05
0.000160211
-1.73237e-05
0.000176273
-1.60619e-05
0.000190899
-1.46264e-05
0.00020387
-1.29711e-05
0.000214906
-1.10356e-05
0.000223957
-9.05105e-06
0.000230777
-6.82018e-06
0.000235183
-4.40605e-06
0.000237215
-2.03212e-06
0.000236733
4.82354e-07
0.000233838
2.89492e-06
0.000228598
5.23969e-06
0.000220993
7.60476e-06
0.000211326
9.66712e-06
0.000199671
1.16548e-05
0.00018632
1.33507e-05
0.000171384
1.49367e-05
0.000155126
1.62576e-05
0.000137919
1.72074e-05
0.000119877
1.80416e-05
0.000101218
1.86587e-05
8.21996e-05
1.90187e-05
6.30735e-05
1.9126e-05
4.41098e-05
1.89637e-05
2.54421e-05
1.86678e-05
7.1416e-06
1.83004e-05
-1.0579e-05
1.77206e-05
-2.76863e-05
1.71074e-05
-4.39988e-05
1.63124e-05
-5.94823e-05
1.54836e-05
-7.41277e-05
1.46453e-05
-8.77991e-05
1.36715e-05
-0.000100468
1.26686e-05
-0.000112256
1.1788e-05
-0.000123008
1.07526e-05
-0.000132844
9.83566e-06
-0.000141659
8.81507e-06
-0.000149516
7.85694e-06
-0.00015641
6.89385e-06
-0.000162318
5.9085e-06
-0.00016718
4.86153e-06
-0.000171096
3.91637e-06
-0.00017395
2.85345e-06
-0.000175718
1.7686e-06
-0.000176458
7.3931e-07
-0.000176097
-3.60778e-07
-0.000174821
-1.27619e-06
-0.000172743
-2.07724e-06
-0.00016994
-2.80362e-06
-0.000166599
-3.341e-06
-0.000162658
-3.94122e-06
-0.000158165
-4.49218e-06
-0.000153093
-5.07259e-06
-0.000147371
-5.722e-06
-0.000140984
-6.38704e-06
-0.000133883
-7.10123e-06
-0.000125983
-7.89913e-06
-0.000117289
-8.69483e-06
-0.000107716
-9.57272e-06
-9.71984e-05
-1.05175e-05
-8.58993e-05
-1.12991e-05
-7.36413e-05
-1.22581e-05
-6.04828e-05
-1.31585e-05
-4.64716e-05
-1.40112e-05
-3.16593e-05
-1.48124e-05
-1.61003e-05
-1.5559e-05
1.15723e-07
-1.62161e-05
1.69314e-05
-1.68157e-05
3.4235e-05
-1.73036e-05
5.18788e-05
-1.76439e-05
6.97056e-05
-1.78268e-05
8.75718e-05
-1.78663e-05
0.000105256
-1.76846e-05
0.000122561
-1.73051e-05
0.000139281
-1.67197e-05
0.000155152
-1.58705e-05
0.000169955
-1.48032e-05
0.000183431
-1.34767e-05
0.000195292
-1.18604e-05
0.000205371
-1.00795e-05
0.000213423
-8.05137e-06
0.000219247
-5.82499e-06
0.000222703
-3.45553e-06
0.000223726
-1.02275e-06
0.000222295
1.43042e-06
0.000218269
4.02586e-06
0.0002118
6.46976e-06
0.000202994
8.80556e-06
0.000192032
1.09619e-05
0.000179081
1.29507e-05
0.000164342
1.47396e-05
0.000148119
1.62223e-05
0.000130617
1.75025e-05
0.000112172
1.84449e-05
9.30583e-05
1.91138e-05
7.34375e-05
1.96208e-05
5.37708e-05
1.96667e-05
3.41267e-05
1.96441e-05
1.47834e-05
1.93433e-05
-3.98219e-06
1.87656e-05
-2.20598e-05
1.80776e-05
-3.9298e-05
1.72382e-05
-5.55686e-05
1.62707e-05
-7.08141e-05
1.52455e-05
-8.50052e-05
1.41911e-05
-9.80681e-05
1.30629e-05
-0.000110056
1.19876e-05
-0.000120912
1.08559e-05
-0.000130725
9.81333e-06
-0.000139472
8.74734e-06
-0.000147192
7.71921e-06
-0.000153953
6.76156e-06
-0.000159906
5.95266e-06
-0.000164978
5.07197e-06
-0.000169272
4.29463e-06
-0.00017279
3.51803e-06
-0.00017561
2.81928e-06
-0.000177733
2.12315e-06
-0.000179226
1.49319e-06
-0.000180092
8.65632e-07
-0.000180335
2.4375e-07
-0.000179986
-3.49544e-07
-0.000178986
-9.99891e-07
-0.000177407
-1.57857e-06
-0.00017513
-2.27723e-06
-0.000172333
-2.79706e-06
-0.000168763
-3.57015e-06
-0.000164548
-4.21479e-06
-0.000159533
-5.01546e-06
-0.000153868
-5.66431e-06
-0.000147351
-6.51721e-06
-0.000140039
-7.3127e-06
-0.000131907
-8.13116e-06
-0.000122853
-9.0541e-06
-0.000113035
-9.81833e-06
-0.000102292
-1.07435e-05
-9.06268e-05
-1.16648e-05
-7.80891e-05
-1.25377e-05
-6.46823e-05
-1.34069e-05
-5.04164e-05
-1.42659e-05
-3.52868e-05
-1.51296e-05
-1.93346e-05
-1.59523e-05
-2.72165e-06
-1.66129e-05
1.45125e-05
-1.72342e-05
3.20955e-05
-1.75831e-05
4.98756e-05
-1.77801e-05
6.75832e-05
-1.77076e-05
8.50236e-05
-1.74404e-05
0.000101949
-1.69258e-05
0.000118157
-1.62082e-05
0.00013335
-1.51928e-05
0.000147346
-1.39963e-05
0.000159875
-1.25288e-05
0.000170719
-1.08437e-05
0.000179682
-8.96262e-06
0.000186502
-6.8209e-06
0.000191087
-4.58502e-06
0.000193311
-2.22377e-06
0.000193138
1.72903e-07
0.000190516
2.62228e-06
0.000185424
5.09145e-06
0.000177925
7.49972e-06
0.000168279
9.64541e-06
0.000156584
1.16954e-05
0.00014315
1.34339e-05
0.000128166
1.49836e-05
0.000111916
1.62505e-05
9.47249e-05
1.71909e-05
7.6796e-05
1.79289e-05
5.84482e-05
1.83477e-05
3.98942e-05
1.8554e-05
2.13876e-05
1.85066e-05
3.14357e-06
1.82441e-05
-1.4636e-05
1.77796e-05
-3.19043e-05
1.72683e-05
-4.83944e-05
1.64901e-05
-6.40932e-05
1.56988e-05
-7.88761e-05
1.47829e-05
-9.27268e-05
1.38507e-05
-0.000105597
1.28704e-05
-0.00011748
1.1883e-05
-0.000128395
1.09151e-05
-0.000138362
9.96698e-06
-0.000147389
9.02669e-06
-0.000155509
8.12044e-06
-0.000162724
7.21448e-06
-0.000169086
6.36221e-06
-0.000174592
5.50633e-06
-0.000179288
4.69568e-06
-0.000183195
3.90706e-06
-0.000186389
3.19367e-06
-0.000188883
2.49396e-06
-0.000190733
1.84977e-06
-0.000191947
1.21464e-06
-0.00019262
6.72622e-07
-0.000192692
7.21802e-08
-0.000192176
-5.15708e-07
-0.000191076
-1.10054e-06
-0.000189356
-1.71938e-06
-0.000186996
-2.36042e-06
-0.000183957
-3.03854e-06
-0.000180288
-3.66943e-06
-0.000175955
-4.33288e-06
-0.000171035
-4.91974e-06
-0.000165496
-5.53922e-06
-0.000159333
-6.163e-06
-0.00015253
-6.80311e-06
-0.000145003
-7.52739e-06
-0.000136745
-8.25777e-06
-0.000127714
-9.03074e-06
-0.000117894
-9.8207e-06
-0.000107263
-1.06307e-05
-9.58235e-05
-1.14394e-05
-8.36183e-05
-1.22052e-05
-7.06021e-05
-1.30162e-05
-5.69254e-05
-1.36767e-05
-4.25653e-05
-1.43601e-05
-2.75613e-05
-1.5004e-05
-1.19957e-05
-1.55657e-05
4.00036e-06
-1.5996e-05
2.03143e-05
-1.6314e-05
3.67721e-05
-1.64578e-05
5.31541e-05
-1.6382e-05
6.92295e-05
-1.60754e-05
8.47009e-05
-1.54714e-05
9.94303e-05
-1.47295e-05
0.000113168
-1.3738e-05
0.000125559
-1.23906e-05
0.000136476
-1.09171e-05
0.000145802
-9.32607e-06
0.000153168
-7.36583e-06
0.000158697
-5.52937e-06
0.000162101
-3.40363e-06
0.000163546
-1.44483e-06
0.000162931
6.14506e-07
0.00016031
2.62129e-06
0.000155866
4.44336e-06
0.00014957
6.29588e-06
0.000141492
8.07823e-06
0.000131804
9.6886e-06
0.000120588
1.12158e-05
0.000108063
1.25244e-05
9.42636e-05
1.37996e-05
7.93666e-05
1.48971e-05
6.37437e-05
1.56229e-05
4.75294e-05
1.62143e-05
3.10439e-05
1.64855e-05
1.45247e-05
1.65192e-05
-1.83233e-06
1.6357e-05
-1.77558e-05
1.59235e-05
-3.31008e-05
1.5345e-05
-4.77632e-05
1.46624e-05
-6.15868e-05
1.38236e-05
-7.4512e-05
1.29252e-05
-8.6514e-05
1.20021e-05
-9.75159e-05
1.10019e-05
-0.000107561
1.00454e-05
-0.000116664
9.10236e-06
-0.000124847
8.18301e-06
-0.000132192
7.34513e-06
-0.000138738
6.54626e-06
-0.000144544
5.80572e-06
-0.000149685
5.14168e-06
-0.000154194
4.50844e-06
-0.000158149
3.95468e-06
-0.000161606
3.45707e-06
-0.000164581
2.97488e-06
-0.000167118
2.53787e-06
-0.000169203
2.08446e-06
-0.000170827
1.6246e-06
-0.000171977
1.14972e-06
-0.000172644
6.66827e-07
-0.000172701
5.73886e-08
-0.000172099
-6.02304e-07
-0.000170742
-1.35719e-06
-0.00016867
-2.07186e-06
-0.000165752
-2.91847e-06
-0.000161872
-3.87999e-06
-0.00015708
-4.79178e-06
-0.000151329
-5.75114e-06
-0.000144414
-6.91452e-06
-0.00013648
-7.93384e-06
-0.000127374
-9.10626e-06
-0.000117206
-1.01683e-05
-0.000106062
-1.11435e-05
-9.38176e-05
-1.22447e-05
-8.05504e-05
-1.32672e-05
-6.64593e-05
-1.40912e-05
-5.14718e-05
-1.49874e-05
-3.57324e-05
-1.57394e-05
-1.94659e-05
-1.62666e-05
-2.6881e-06
-1.67778e-05
1.43394e-05
-1.70275e-05
3.1587e-05
-1.72476e-05
4.87796e-05
-1.71926e-05
6.56372e-05
-1.68576e-05
8.21046e-05
-1.64675e-05
9.79632e-05
-1.58586e-05
0.000112919
-1.49555e-05
0.000126867
-1.39488e-05
0.000139633
-1.27657e-05
0.000151047
-1.14138e-05
0.000160966
-9.91931e-06
0.000169241
-8.27442e-06
0.000175777
-6.53666e-06
0.000180508
-4.73125e-06
0.000183366
-2.85802e-06
0.000184339
-9.72564e-07
0.000183255
1.08373e-06
0.000180209
3.04663e-06
0.000175262
4.94657e-06
0.000168467
6.79511e-06
0.000160049
8.41803e-06
0.000149999
1.00496e-05
1.15744e-05
-0.000102966
2.12059e-05
-0.000112575
1.92174e-05
-0.000121307
1.74627e-05
-0.000129181
1.57463e-05
-0.000136211
1.40604e-05
-0.000142442
1.24592e-05
-0.0001479
1.0913e-05
-0.000152618
9.43698e-06
-0.000156627
8.02079e-06
-0.000159942
6.62918e-06
-0.000162573
5.26027e-06
-0.000164528
3.9108e-06
-0.000165811
2.56039e-06
-0.000166487
1.34834e-06
-0.000166456
-5.74148e-08
-0.000165722
-1.46523e-06
-0.00016433
-2.78242e-06
-0.000162199
-4.26518e-06
-0.000159313
-5.76955e-06
-0.000155761
-7.10782e-06
-0.000151291
-8.94307e-06
-0.000145974
-1.06342e-05
-0.000139927
-1.20916e-05
-0.000132845
-1.41655e-05
-0.000124919
-1.58561e-05
-0.000115876
-1.80841e-05
-0.000105821
-2.0111e-05
-9.48536e-05
-2.19362e-05
-8.28085e-05
-2.40893e-05
-6.95827e-05
-2.64441e-05
-5.54411e-05
-2.82838e-05
-4.01731e-05
-3.05338e-05
-2.40706e-05
-3.21999e-05
-6.98635e-06
-3.41632e-05
1.09255e-05
-3.58203e-05
2.9312e-05
-3.67633e-05
4.8257e-05
-3.78782e-05
6.754e-05
-3.85592e-05
8.6793e-05
-3.84959e-05
0.000105997
-3.83985e-05
0.000124768
-3.75286e-05
0.000142932
-3.63119e-05
0.000160265
-3.46573e-05
0.000176336
-3.21324e-05
0.000190982
-2.92721e-05
0.000203969
-2.59588e-05
0.000215007
-2.20735e-05
0.000224065
-1.81093e-05
0.000230895
-1.36504e-05
0.000235298
-8.80891e-06
0.00023734
-4.0742e-06
0.000236853
9.69535e-07
0.000233952
5.79547e-06
0.000228718
1.04745e-05
0.000221108
1.5214e-05
0.000211437
1.93383e-05
0.000199772
2.33203e-05
0.000186412
2.67106e-05
0.000171467
2.98814e-05
0.000155195
3.25296e-05
0.000137976
3.44261e-05
0.000119927
3.60908e-05
0.000101256
3.73296e-05
8.22303e-05
3.80445e-05
6.30865e-05
3.82698e-05
4.41114e-05
3.79387e-05
2.54353e-05
3.73439e-05
7.12194e-06
3.66138e-05
-1.06105e-05
3.5453e-05
-2.77274e-05
3.42243e-05
-4.40479e-05
3.26329e-05
-5.95384e-05
3.0974e-05
-7.41883e-05
2.92953e-05
-8.78631e-05
2.73462e-05
-0.000100535
2.53401e-05
-0.000112322
2.35758e-05
-0.000123075
2.1505e-05
-0.000132914
1.9675e-05
-0.00014173
1.7631e-05
-0.000149591
1.57177e-05
-0.000156483
1.3786e-05
-0.000162382
1.18079e-05
-0.000167245
9.72393e-06
-0.000171158
7.82954e-06
-0.000174014
5.70935e-06
-0.000175778
3.53264e-06
-0.000176513
1.47403e-06
-0.000176142
-7.31651e-07
-0.00017484
-2.57766e-06
-0.000172752
-4.1653e-06
-0.000169943
-5.61274e-06
-0.000166592
-6.69237e-06
-0.000162647
-7.88581e-06
-0.000158151
-8.98839e-06
-0.000153074
-1.01495e-05
-0.000147354
-1.14425e-05
-0.000140963
-1.27773e-05
-0.000133873
-1.41914e-05
-0.000125999
-1.57737e-05
-0.000117296
-1.73976e-05
-0.000107731
-1.91382e-05
-9.72175e-05
-2.10306e-05
-8.59158e-05
-2.2601e-05
-7.36572e-05
-2.45167e-05
-6.05054e-05
-2.63104e-05
-4.65026e-05
-2.8014e-05
-3.16919e-05
-2.96233e-05
-1.61281e-05
-3.11228e-05
8.91512e-08
-3.24334e-05
1.6914e-05
-3.36406e-05
3.42203e-05
-3.461e-05
5.18717e-05
-3.52953e-05
6.97111e-05
-3.56663e-05
8.758e-05
-3.57353e-05
0.000105266
-3.53702e-05
0.000122583
-3.46223e-05
0.000139313
-3.34496e-05
0.000155192
-3.175e-05
0.000170007
-2.96184e-05
0.000183483
-2.69531e-05
0.000195352
-2.37286e-05
0.000205425
-2.01533e-05
0.00021347
-1.60957e-05
0.000219292
-1.16474e-05
0.000222751
-6.91444e-06
0.000223766
-2.03826e-06
0.000222298
2.89815e-06
0.000218263
8.06084e-06
0.000211784
1.2949e-05
0.00020296
1.76294e-05
0.000191974
2.19477e-05
0.000179029
2.58959e-05
0.000164239
2.95297e-05
0.000147993
3.24678e-05
0.000130511
3.4985e-05
0.000111995
3.69609e-05
9.28655e-05
3.82431e-05
7.32258e-05
3.92604e-05
5.35053e-05
3.93872e-05
3.38406e-05
3.93088e-05
1.45589e-05
3.8625e-05
-4.25611e-06
3.75806e-05
-2.23286e-05
3.61501e-05
-3.95661e-05
3.44757e-05
-5.58373e-05
3.25419e-05
-7.10909e-05
3.0499e-05
-8.52717e-05
2.83719e-05
-9.83279e-05
2.61191e-05
-0.000110303
2.39627e-05
-0.000121174
2.1727e-05
-0.000130964
1.96036e-05
-0.000139696
1.74792e-05
-0.00014742
1.54432e-05
-0.000154171
1.35125e-05
-0.000160115
1.18967e-05
-0.000165177
1.01337e-05
-0.000169457
8.57469e-06
-0.000172967
7.02825e-06
-0.000175779
5.6316e-06
-0.000177918
4.26126e-06
-0.000179405
2.98093e-06
-0.000180267
1.72697e-06
-0.000180496
4.72968e-07
-0.000180144
-7.01504e-07
-0.000179148
-1.99552e-06
-0.000177557
-3.17024e-06
-0.000175308
-4.52627e-06
-0.00017247
-5.63507e-06
-0.000168884
-7.15615e-06
-0.000164691
-8.40754e-06
-0.000159673
-1.00331e-05
-0.000153999
-1.13387e-05
-0.000147476
-1.30404e-05
-0.000140165
-1.46239e-05
-0.000132032
-1.62639e-05
-0.000122972
-1.81141e-05
-0.000113162
-1.96281e-05
-0.000102412
-2.14937e-05
-9.07251e-05
-2.33516e-05
-7.82093e-05
-2.50535e-05
-6.4796e-05
-2.68202e-05
-5.05273e-05
-2.85347e-05
-3.53958e-05
-3.02612e-05
-1.9447e-05
-3.19012e-05
-2.81651e-06
-3.32435e-05
1.44295e-05
-3.44803e-05
3.20221e-05
-3.51756e-05
4.98037e-05
-3.55619e-05
6.75232e-05
-3.54271e-05
8.49748e-05
-3.48921e-05
0.000101912
-3.38628e-05
0.000118133
-3.24297e-05
0.000133333
-3.03928e-05
0.000147324
-2.79873e-05
0.000159858
-2.50623e-05
0.000170696
-2.16818e-05
0.000179649
-1.79165e-05
0.000186472
-1.36438e-05
0.000191055
-9.1678e-06
0.000193281
-4.44991e-06
0.000193095
3.58856e-07
0.000190456
5.26139e-06
0.000185356
1.0191e-05
0.000177843
1.50135e-05
0.000168181
1.93069e-05
0.000156473
2.34034e-05
0.00014302
2.68872e-05
0.000128062
2.99416e-05
0.000111765
3.2547e-05
9.45464e-05
3.44093e-05
7.66115e-05
3.58639e-05
5.82507e-05
3.67085e-05
3.96901e-05
3.71146e-05
2.11817e-05
3.70149e-05
2.93517e-06
3.64906e-05
-1.4878e-05
3.55927e-05
-3.21241e-05
3.45144e-05
-4.86181e-05
3.29842e-05
-6.43092e-05
3.13899e-05
-7.90933e-05
2.9567e-05
-9.29454e-05
2.77028e-05
-0.000105811
2.5736e-05
-0.000117686
2.3758e-05
-0.000128562
2.17906e-05
-0.00013856
1.99652e-05
-0.000147583
1.80502e-05
-0.000155699
1.62356e-05
-0.000162915
1.44309e-05
-0.000169278
1.27252e-05
-0.000174768
1.09963e-05
-0.000179464
9.39185e-06
-0.000183373
7.81546e-06
-0.000186565
6.38661e-06
-0.000189059
4.98756e-06
-0.000190903
3.69402e-06
-0.000192116
2.4278e-06
-0.00019278
1.33565e-06
-0.000192855
1.47574e-07
-0.00019235
-1.02018e-06
-0.000191254
-2.19707e-06
-0.00018954
-3.43371e-06
-0.000187176
-4.72393e-06
-0.00018414
-6.07454e-06
-0.000180463
-7.34617e-06
-0.000176129
-8.66773e-06
-0.000171199
-9.84964e-06
-0.000165661
-1.10767e-05
-0.00015949
-1.23337e-05
-0.000152681
-1.36129e-05
-0.000145136
-1.50721e-05
-0.00013688
-1.65137e-05
-0.000127845
-1.80663e-05
-0.000118016
-1.9649e-05
-0.00010738
-2.12668e-05
-9.59405e-05
-2.28791e-05
-8.37228e-05
-2.44229e-05
-7.07132e-05
-2.60259e-05
-5.70159e-05
-2.7374e-05
-4.26439e-05
-2.87322e-05
-2.76316e-05
-3.00164e-05
-1.20579e-05
-3.11394e-05
3.95081e-06
-3.20048e-05
2.02792e-05
-3.26425e-05
3.6748e-05
-3.29266e-05
5.31498e-05
-3.27839e-05
6.92371e-05
-3.21628e-05
8.47208e-05
-3.09551e-05
9.94678e-05
-2.94765e-05
0.000113222
-2.74922e-05
0.000125638
-2.48064e-05
0.000136549
-2.18283e-05
0.000145881
-1.8658e-05
0.000153256
-1.47411e-05
0.000158792
-1.10652e-05
0.000162193
-6.80488e-06
0.000163646
-2.89749e-06
0.000163026
1.23381e-06
0.000160401
5.24649e-06
0.000155962
8.8828e-06
0.000149664
1.25936e-05
0.000141576
1.61659e-05
0.000131884
1.93812e-05
0.000120662
2.24373e-05
0.000108132
2.50547e-05
9.43234e-05
2.76078e-05
7.94136e-05
2.98068e-05
6.37818e-05
3.12547e-05
4.75545e-05
3.24416e-05
3.10587e-05
3.29813e-05
1.4528e-05
3.30499e-05
-1.84074e-06
3.27258e-05
-1.77751e-05
3.18578e-05
-3.3128e-05
3.06979e-05
-4.7797e-05
2.93314e-05
-6.16264e-05
2.76529e-05
-7.4556e-05
2.58548e-05
-8.65609e-05
2.4007e-05
-9.75656e-05
2.20066e-05
-0.000107612
2.00915e-05
-0.000116715
1.82054e-05
-0.000124898
1.63658e-05
-0.000132241
1.46889e-05
-0.000138786
1.3091e-05
-0.000144589
1.1609e-05
-0.00014973
1.02817e-05
-0.000154241
9.01978e-06
-0.000158193
7.90688e-06
-0.000161647
6.91139e-06
-0.000164622
5.94943e-06
-0.000167163
5.07907e-06
-0.000169254
4.17571e-06
-0.00017088
3.25026e-06
-0.000172027
2.29681e-06
-0.000172693
1.33281e-06
-0.00017275
1.13853e-07
-0.000172151
-1.20078e-06
-0.000170799
-2.7094e-06
-0.000168728
-4.14248e-06
-0.00016581
-5.83729e-06
-0.000161932
-7.75746e-06
-0.000157142
-9.58172e-06
-0.000151389
-1.1504e-05
-0.000144476
-1.38275e-05
-0.000136543
-1.58676e-05
-0.000127435
-1.82138e-05
-0.000117265
-2.03385e-05
-0.00010612
-2.22881e-05
-9.38722e-05
-2.44928e-05
-8.06006e-05
-2.65389e-05
-6.65036e-05
-2.81882e-05
-5.15079e-05
-2.99832e-05
-3.57634e-05
-3.1484e-05
-1.94904e-05
-3.25396e-05
-2.70143e-06
-3.35668e-05
1.43384e-05
-3.40674e-05
3.15932e-05
-3.45025e-05
4.87946e-05
-3.4394e-05
6.56689e-05
-3.37318e-05
8.21417e-05
-3.29403e-05
9.80063e-05
-3.17233e-05
0.000112976
-2.99252e-05
0.000126932
-2.79053e-05
0.000139703
-2.55364e-05
0.000151123
-2.28341e-05
0.000161049
-1.9845e-05
0.000169329
-1.65548e-05
0.000175872
-1.30797e-05
0.000180605
-9.46354e-06
0.000183459
-5.71226e-06
0.000184431
-1.94435e-06
0.000183335
2.17882e-06
0.000180286
6.09617e-06
0.000175337
9.89487e-06
0.000168537
1.35957e-05
0.000160113
1.68417e-05
0.000150057
2.01056e-05
2.31566e-05
-0.000103041
3.181e-05
-0.000112649
2.88258e-05
-0.000121381
2.61946e-05
-0.000129253
2.36188e-05
-0.000136283
2.10906e-05
-0.000142513
1.8689e-05
-0.00014797
1.63694e-05
-0.000152691
1.41586e-05
-0.000156704
1.20335e-05
-0.000160019
9.94414e-06
-0.000162646
7.88736e-06
-0.000164603
5.86801e-06
-0.000165895
3.85189e-06
-0.000166552
2.00497e-06
-0.00016651
-9.9003e-08
-0.000165779
-2.1959e-06
-0.000164383
-4.17875e-06
-0.000162258
-6.38998e-06
-0.000159372
-8.65533e-06
-0.000155827
-1.06535e-05
-0.000151355
-1.34151e-05
-0.000146045
-1.5944e-05
-0.000139996
-1.81409e-05
-0.000132916
-2.12455e-05
-0.000124999
-2.37734e-05
-0.000115954
-2.71289e-05
-0.000105902
-3.01628e-05
-9.49385e-05
-3.28997e-05
-8.28968e-05
-3.61311e-05
-6.966e-05
-3.9681e-05
-5.55182e-05
-4.24256e-05
-4.02446e-05
-4.58074e-05
-2.41349e-05
-4.83097e-05
-7.04318e-06
-5.1255e-05
1.0882e-05
-5.37455e-05
2.92787e-05
-5.516e-05
4.8236e-05
-5.68356e-05
6.75368e-05
-5.78601e-05
8.68034e-05
-5.77625e-05
0.000106025
-5.76206e-05
0.000124816
-5.63198e-05
0.000142999
-5.44943e-05
0.000160354
-5.20124e-05
0.000176445
-4.82239e-05
0.000191108
-4.39348e-05
0.000204118
-3.89692e-05
0.000215167
-3.31223e-05
0.000224235
-2.71774e-05
0.000231083
-2.04985e-05
0.000235483
-1.32093e-05
0.000237533
-6.12389e-06
0.000237032
1.47072e-06
0.000234119
8.70833e-06
0.000228892
1.57015e-05
0.000221273
2.28327e-05
0.000211593
2.9018e-05
0.000199911
3.50027e-05
0.000186529
4.00925e-05
0.000171572
4.48387e-05
0.000155277
4.88245e-05
0.000138035
5.16677e-05
0.000119976
5.41495e-05
0.000101287
5.60185e-05
8.22596e-05
5.70721e-05
6.30822e-05
5.74472e-05
4.40899e-05
5.69311e-05
2.54024e-05
5.60314e-05
7.06893e-06
5.49472e-05
-1.06682e-05
5.31901e-05
-2.77933e-05
5.13494e-05
-4.41197e-05
4.89594e-05
-5.96173e-05
4.64716e-05
-7.42731e-05
4.39511e-05
-8.79502e-05
4.10234e-05
-0.000100621
3.80113e-05
-0.000112401
3.53558e-05
-0.000123156
3.22599e-05
-0.000133011
2.95294e-05
-0.000141822
2.64427e-05
-0.000149678
2.35727e-05
-0.000156568
2.06766e-05
-0.000162458
1.76982e-05
-0.000167327
1.45921e-05
-0.000171243
1.17461e-05
-0.00017412
8.58673e-06
-0.000175886
5.29837e-06
-0.000176597
2.18471e-06
-0.000176212
-1.11699e-06
-0.000174903
-3.88664e-06
-0.00017281
-6.2584e-06
-0.000169994
-8.42791e-06
-0.000166632
-1.0055e-05
-0.000162692
-1.18256e-05
-0.000158203
-1.34773e-05
-0.000153138
-1.52146e-05
-0.000147436
-1.71447e-05
-0.000141072
-1.91407e-05
-0.000133988
-2.12757e-05
-0.000126113
-2.36489e-05
-0.000117441
-2.6069e-05
-0.000107891
-2.86887e-05
-9.73836e-05
-3.1538e-05
-8.60967e-05
-3.38879e-05
-7.38476e-05
-3.67659e-05
-6.07069e-05
-3.94511e-05
-4.67045e-05
-4.20164e-05
-3.18908e-05
-4.4437e-05
-1.63242e-05
-4.66894e-05
-8.57438e-08
-4.8672e-05
1.67392e-05
-5.04657e-05
3.40441e-05
-5.1915e-05
5.17114e-05
-5.29627e-05
6.95562e-05
-5.35112e-05
8.74541e-05
-5.36333e-05
0.000105149
-5.30649e-05
0.000122484
-5.19575e-05
0.000139229
-5.01945e-05
0.000155136
-4.76577e-05
0.000169964
-4.44459e-05
0.000183447
-4.04363e-05
0.00019534
-3.56222e-05
0.000205425
-3.02382e-05
0.000213476
-2.41467e-05
0.000219307
-1.7478e-05
0.000222771
-1.03786e-05
0.000223801
-3.06798e-06
0.000222282
4.41703e-06
0.000218238
1.21049e-05
0.000211755
1.94316e-05
0.000202935
2.64497e-05
0.000191901
3.29819e-05
0.000178896
3.89001e-05
0.000164108
4.43177e-05
0.000147832
4.87442e-05
0.000130335
5.24821e-05
0.000111782
5.55139e-05
9.25888e-05
5.7436e-05
7.3015e-05
5.88342e-05
5.3215e-05
5.91872e-05
3.35367e-05
5.89871e-05
1.42713e-05
5.78903e-05
-4.58177e-06
5.64337e-05
-2.26699e-05
5.42382e-05
-3.99142e-05
5.172e-05
-5.61932e-05
4.88209e-05
-7.14487e-05
4.57545e-05
-8.56171e-05
4.25404e-05
-9.86874e-05
3.91893e-05
-0.000110621
3.5896e-05
-0.000121546
3.26522e-05
-0.000131322
2.938e-05
-0.000140036
2.61928e-05
-0.000147757
2.3164e-05
-0.000154542
2.02978e-05
-0.00016043
1.77851e-05
-0.000165478
1.51811e-05
-0.000169765
1.28618e-05
-0.000173291
1.05543e-05
-0.000176046
8.38645e-06
-0.000178234
6.44929e-06
-0.000179713
4.45995e-06
-0.000180574
2.58811e-06
-0.000180808
7.07423e-07
-0.000180449
-1.06124e-06
-0.000179471
-2.97319e-06
-0.000177857
-4.78468e-06
-0.000175642
-6.74067e-06
-0.000172776
-8.50175e-06
-0.000169184
-1.07476e-05
-0.000165005
-1.25864e-05
-0.000160022
-1.50161e-05
-0.0001543
-1.70609e-05
-0.000147767
-1.95734e-05
-0.000140463
-2.19281e-05
-0.000132325
-2.44016e-05
-0.000123336
-2.7104e-05
-0.000113462
-2.95018e-05
-0.000102711
-3.22446e-05
-9.0976e-05
-3.50868e-05
-7.85176e-05
-3.75119e-05
-6.50819e-05
-4.0256e-05
-5.08213e-05
-4.27954e-05
-3.56866e-05
-4.53959e-05
-1.97387e-05
-4.78491e-05
-3.07566e-06
-4.99065e-05
1.4171e-05
-5.1727e-05
3.18163e-05
-5.28209e-05
4.96036e-05
-5.33492e-05
6.73455e-05
-5.31691e-05
8.48159e-05
-5.23626e-05
0.000101763
-5.081e-05
0.000118001
-4.86676e-05
0.000133216
-4.56076e-05
0.000147231
-4.20024e-05
0.000159789
-3.76207e-05
0.000170665
-3.2558e-05
0.000179593
-2.68444e-05
0.000186432
-2.04831e-05
0.000191026
-1.37614e-05
0.000193256
-6.67996e-06
0.000193057
5.57587e-07
0.000190395
7.92312e-06
0.000185264
1.53221e-05
0.000177793
2.24848e-05
0.000168094
2.90059e-05
0.00015637
3.51269e-05
0.000142883
4.03744e-05
0.000127907
4.49175e-05
0.000111601
4.88529e-05
9.43434e-05
5.16669e-05
7.63886e-05
5.38186e-05
5.80084e-05
5.50887e-05
3.94397e-05
5.56832e-05
2.09227e-05
5.5532e-05
2.6619e-06
5.47514e-05
-1.51875e-05
5.34421e-05
-3.24209e-05
5.17478e-05
-4.89323e-05
4.94956e-05
-6.4628e-05
4.70855e-05
-7.94157e-05
4.43547e-05
-9.3269e-05
4.1556e-05
-0.00010613
3.85967e-05
-0.000118001
3.56294e-05
-0.000128885
3.26743e-05
-0.000138892
2.99726e-05
-0.000147914
2.70724e-05
-0.000156026
2.43471e-05
-0.00016323
2.16346e-05
-0.000169602
1.90974e-05
-0.000175089
1.64838e-05
-0.000179769
1.40713e-05
-0.000183695
1.17419e-05
-0.000186883
9.574e-06
-0.00018937
7.47477e-06
-0.000191208
5.53242e-06
-0.00019244
3.65921e-06
-0.000193097
1.9933e-06
-0.000193178
2.28373e-07
-0.000192676
-1.52188e-06
-0.000191572
-3.30181e-06
-0.000189862
-5.14296e-06
-0.000187491
-7.09533e-06
-0.000184467
-9.09855e-06
-0.000180769
-1.10438e-05
-0.000176434
-1.30032e-05
-0.00017148
-1.48033e-05
-0.000165935
-1.66221e-05
-0.000159751
-1.85176e-05
-0.00015294
-2.04246e-05
-0.000145385
-2.26262e-05
-0.000137128
-2.47711e-05
-0.000128075
-2.71189e-05
-0.000118222
-2.95021e-05
-0.000107598
-3.18909e-05
-9.61491e-05
-3.43283e-05
-8.39174e-05
-3.66547e-05
-7.09176e-05
-3.90258e-05
-5.71928e-05
-4.10988e-05
-4.28069e-05
-4.31181e-05
-2.77826e-05
-4.50407e-05
-1.21948e-05
-4.67272e-05
3.84099e-06
-4.80407e-05
2.01931e-05
-4.89946e-05
3.66749e-05
-4.94085e-05
5.3109e-05
-4.9218e-05
6.92298e-05
-4.82837e-05
8.47302e-05
-4.64555e-05
9.95014e-05
-4.42478e-05
0.000113281
-4.12723e-05
0.000125754
-3.72788e-05
0.000136645
-3.27195e-05
0.000145987
-2.8e-05
0.00015338
-2.21347e-05
0.00015892
-1.66052e-05
0.000162329
-1.02138e-05
0.000163793
-4.36118e-06
0.000163159
1.86796e-06
0.000160534
7.87123e-06
0.000156098
1.33185e-05
0.000149795
1.88968e-05
0.000141691
2.42697e-05
0.000131994
2.90782e-05
0.000120764
3.36668e-05
0.000108223
3.75961e-05
9.43981e-05
4.14328e-05
7.94731e-05
4.47319e-05
6.38241e-05
4.69036e-05
4.7573e-05
4.86926e-05
3.10565e-05
4.94978e-05
1.45085e-05
4.95979e-05
-1.87468e-06
4.91089e-05
-1.78237e-05
4.78069e-05
-3.31881e-05
4.60623e-05
-4.78655e-05
4.40088e-05
-6.17017e-05
4.14891e-05
-7.46337e-05
3.87867e-05
-8.66388e-05
3.60121e-05
-9.76455e-05
3.30133e-05
-0.000107695
3.01405e-05
-0.000116793
2.73038e-05
-0.00012497
2.45432e-05
-0.000132309
2.20277e-05
-0.00013885
1.96323e-05
-0.00014465
1.74083e-05
-0.000149787
1.54196e-05
-0.000154296
1.35279e-05
-0.000158244
1.18554e-05
-0.0001617
1.03669e-05
-0.000164673
8.92255e-06
-0.000167213
7.61919e-06
-0.000169306
6.2692e-06
-0.000170938
4.88168e-06
-0.000172095
3.45366e-06
-0.000172764
2.00251e-06
-0.000172808
1.57452e-07
-0.000172208
-1.80104e-06
-0.000170864
-4.0528e-06
-0.000168799
-6.20804e-06
-0.00016588
-8.75657e-06
-0.000162006
-1.16311e-05
-0.000157223
-1.43649e-05
-0.00015147
-1.72566e-05
-0.000144559
-2.07382e-05
-0.000136627
-2.38e-05
-0.00012752
-2.73209e-05
-0.00011735
-3.05084e-05
-0.000106206
-3.34325e-05
-9.39523e-05
-3.67464e-05
-8.06743e-05
-3.98168e-05
-6.65675e-05
-4.2295e-05
-5.15611e-05
-4.49897e-05
-3.58056e-05
-4.72395e-05
-1.95209e-05
-4.88243e-05
-2.71637e-06
-5.03713e-05
1.43425e-05
-5.11263e-05
3.16167e-05
-5.17767e-05
4.88368e-05
-5.16142e-05
6.57225e-05
-5.06176e-05
8.22129e-05
-4.94307e-05
9.81015e-05
-4.76119e-05
0.000113084
-4.49081e-05
0.000127051
-4.18716e-05
0.000139836
-3.83219e-05
0.00015127
-3.42683e-05
0.000161207
-2.97815e-05
0.000169491
-2.48389e-05
0.00017603
-1.96192e-05
0.000180755
-1.4188e-05
0.000183607
-8.56466e-06
0.000184581
-2.91787e-06
0.000183472
3.28775e-06
0.000180424
9.14356e-06
0.000175476
1.48433e-05
0.000168668
2.04033e-05
0.000160235
2.52745e-05
0.000150169
3.01719e-05
3.47508e-05
-0.000103152
4.24139e-05
-0.000112761
3.84348e-05
-0.000121492
3.49259e-05
-0.000129364
3.14905e-05
-0.000136393
2.81198e-05
-0.000142623
2.49186e-05
-0.00014808
2.18269e-05
-0.000152803
1.88812e-05
-0.000156819
1.60494e-05
-0.000160134
1.32596e-05
-0.000162761
1.05143e-05
-0.000164718
7.82454e-06
-0.00016602
5.15386e-06
-0.000166649
2.63495e-06
-0.000166592
-1.56717e-07
-0.000165866
-2.9215e-06
-0.000164463
-5.58189e-06
-0.000162348
-8.50508e-06
-0.00015946
-1.15431e-05
-0.000155925
-1.41885e-05
-0.000151452
-1.78884e-05
-0.000146156
-2.12402e-05
-0.000140099
-2.4198e-05
-0.000133021
-2.83227e-05
-0.000125119
-3.16757e-05
-0.000116069
-3.61789e-05
-0.000106023
-4.02088e-05
-9.50693e-05
-4.38535e-05
-8.30303e-05
-4.81701e-05
-6.97762e-05
-5.29351e-05
-5.56326e-05
-5.65693e-05
-4.03524e-05
-6.10877e-05
-2.4232e-05
-6.44301e-05
-7.12721e-06
-6.83598e-05
1.08159e-05
-7.16887e-05
2.92293e-05
-7.35735e-05
4.82038e-05
-7.58101e-05
6.75314e-05
-7.71878e-05
8.682e-05
-7.70511e-05
0.000106069
-7.68693e-05
0.000124888
-7.51394e-05
0.0001431
-7.27059e-05
0.000160487
-6.94e-05
0.000176607
-6.43437e-05
0.000191296
-5.86241e-05
0.000204342
-5.20152e-05
0.000215412
-4.41918e-05
0.000224492
-3.62573e-05
0.000231361
-2.73683e-05
0.000235759
-1.76071e-05
0.00023781
-8.17529e-06
0.000237294
1.98746e-06
0.000234373
1.16293e-05
0.000229155
2.09188e-05
0.00022152
3.04682e-05
0.000211827
3.8711e-05
0.00020012
4.67097e-05
0.000186704
5.35082e-05
0.000171727
5.98152e-05
0.000155398
6.51535e-05
0.000138122
6.89437e-05
0.000120049
7.22229e-05
0.000101332
7.4735e-05
8.23131e-05
7.60913e-05
6.30764e-05
7.66839e-05
4.40574e-05
7.59501e-05
2.53524e-05
7.47364e-05
6.98946e-06
7.33102e-05
-1.07551e-05
7.09346e-05
-2.78954e-05
6.84897e-05
-4.42326e-05
6.52966e-05
-5.97371e-05
6.1976e-05
-7.44015e-05
5.86154e-05
-8.8081e-05
5.47029e-05
-0.000100758
5.06879e-05
-0.00011253
4.71284e-05
-0.000123281
4.30104e-05
-0.000133154
3.94025e-05
-0.000141964
3.52527e-05
-0.000149817
3.14264e-05
-0.000156705
2.7564e-05
-0.00016257
2.35636e-05
-0.000167462
1.94841e-05
-0.000171384
1.56679e-05
-0.000174285
1.14875e-05
-0.000176059
7.07193e-06
-0.00017675
2.87625e-06
-0.000176343
-1.52386e-06
-0.000175026
-5.20398e-06
-0.000172924
-8.36032e-06
-0.000170128
-1.12239e-05
-0.000166744
-1.34392e-05
-0.000162816
-1.57535e-05
-0.000158344
-1.7949e-05
-0.000153305
-2.02535e-05
-0.000147632
-2.28183e-05
-0.000141313
-2.5459e-05
-0.000134239
-2.83506e-05
-0.000126345
-3.15421e-05
-0.000117736
-3.46786e-05
-0.000108199
-3.82252e-05
-9.77846e-05