/*--------------------------------*- C++ -*----------------------------------*\
| =========                 |                                                 |
| \\      /  F ield         | OpenFOAM: The Open Source CFD Toolbox           |
|  \\    /   O peration     | Version:  3.0.1                                 |
|   \\  /    A nd           | Web:      www.OpenFOAM.org                      |
|    \\/     M anipulation  |                                                 |
\*---------------------------------------------------------------------------*/
FoamFile
{
    version     2.0;
    format      ascii;
    class       volScalarField;
    location    "20";
    object      p_rgh;
}
// * * * * * * * * * * * * * * * * * * * * * * * * * * * * * * * * * * * * * //

dimensions      [1 -1 -2 0 0 0 0];

internalField   nonuniform List<scalar> 
21420
(
-231.714
-250.057
-266.819
-281.953
-295.424
-307.266
-317.506
-326.182
-333.324
-338.964
-343.129
-345.801
-346.957
-346.428
-344.437
-340.913
-335.845
-329.217
-320.989
-311.105
-299.527
-286.208
-271.097
-254.159
-235.365
-214.698
-192.165
-167.771
-141.571
-113.639
-84.0592
-52.9875
-20.6322
12.7365
46.3038
80.8888
115.803
150.578
184.778
218.012
249.839
279.853
307.637
332.805
355.028
373.999
389.449
401.169
409.003
412.843
412.571
408.288
399.959
387.716
371.771
352.362
329.749
304.237
276.196
245.998
214.042
180.737
146.491
111.726
76.8582
42.3466
9.64757
-23.1698
-55.248
-86.2021
-115.764
-143.766
-170.069
-194.58
-217.246
-238.027
-256.909
-273.882
-288.938
-302.105
-313.402
-322.85
-330.487
-336.345
-340.485
-342.928
-343.677
-342.85
-340.485
-336.606
-331.258
-324.463
-316.241
-306.618
-295.585
-283.118
-269.2
-253.778
-236.806
-218.257
-198.078
-176.242
-152.767
-127.666
-100.989
-72.8275
-43.2985
-12.5529
19.2265
51.8583
84.9765
118.338
151.619
184.469
216.51
247.349
276.574
303.775
328.549
350.509
369.295
384.59
396.131
403.716
407.203
406.444
401.602
392.655
379.726
363.047
342.873
319.51
293.306
264.641
233.917
201.55
167.963
133.572
98.7834
63.9847
29.5385
-4.22106
-37.0057
-68.5582
-98.6673
-127.159
-153.897
-178.793
-201.789
-222.869
-242.027
-259.287
-274.701
-288.313
-300.189
-310.386
-318.956
-325.965
-331.459
-335.49
-338.072
-339.212
-338.977
-337.343
-334.311
-329.868
-323.991
-316.652
-307.824
-297.467
-285.542
-272.014
-256.846
-239.993
-221.436
-201.158
-179.139
-155.414
-130.017
-103.002
-74.4793
-44.5857
-13.4905
18.6795
51.4858
84.7181
118.035
151.068
183.421
214.684
244.444
272.285
297.806
320.631
340.415
356.853
369.685
378.703
383.764
384.748
381.697
374.611
363.644
348.909
330.656
309.156
284.724
257.717
228.516
197.522
165.144
131.788
97.8532
63.7248
29.7632
-3.69867
-36.3497
-67.9251
-98.1867
-126.942
-154.033
-179.338
-202.78
-224.297
-243.867
-261.486
-277.17
-290.963
-302.912
-313.078
-321.537
-328.355
-333.617
-337.398
-339.756
-340.744
-340.453
-338.906
-336.138
-332.169
-327
-320.619
-313.005
-304.116
-293.901
-282.294
-269.214
-254.602
-238.382
-220.48
-200.844
-179.451
-156.291
-131.375
-104.765
-76.5703
-46.9296
-16.0271
15.824
48.3558
81.2316
114.074
146.475
178.002
208.213
236.668
262.942
286.632
307.373
324.849
338.79
348.978
355.265
357.56
355.901
350.279
340.835
327.678
311.044
291.197
268.433
243.075
215.479
186.004
155.03
122.937
90.0869
56.8386
23.5361
-9.47489
-41.7557
-71.1267
-101.237
-130.444
-158.369
-184.82
-209.675
-232.828
-254.221
-273.814
-291.586
-307.53
-321.648
-333.955
-344.471
-353.223
-360.248
-365.591
-369.282
-371.328
-371.647
-370.466
-367.796
-363.696
-358.209
-351.35
-343.146
-333.605
-322.717
-310.482
-296.89
-281.919
-265.559
-247.793
-228.62
-208.045
-186.077
-162.76
-138.157
-112.344
-85.4834
-57.6601
-28.9318
0.527442
30.4916
60.7358
90.9722
120.899
150.214
178.555
205.566
230.919
254.257
275.252
293.574
308.927
321.063
329.758
334.839
336.127
333.474
326.762
316.159
301.878
284.12
263.269
239.768
-231.79
-250.131
-266.89
-282.022
-295.491
-307.331
-317.569
-326.244
-333.384
-339.022
-343.186
-345.859
-347.021
-346.488
-344.496
-340.973
-335.907
-329.281
-321.055
-311.174
-299.598
-286.281
-271.173
-254.237
-235.445
-214.78
-192.247
-167.854
-141.652
-113.718
-84.1348
-53.0578
-20.695
12.684
46.2546
80.8524
115.781
150.573
184.79
218.042
249.887
279.919
307.72
332.905
355.144
374.128
389.589
401.319
409.158
413.001
412.738
408.437
400.106
387.855
371.899
352.477
329.848
304.32
276.261
246.044
214.07
180.747
146.484
111.701
76.817
42.2896
9.60009
-23.2294
-55.3177
-86.2787
-115.845
-143.85
-170.155
-194.667
-217.333
-238.112
-256.994
-273.965
-289.02
-302.185
-313.481
-322.927
-330.563
-336.42
-340.558
-342.998
-343.745
-342.918
-340.551
-336.671
-331.322
-324.526
-316.304
-306.682
-295.65
-283.185
-269.269
-253.849
-236.881
-218.333
-198.157
-176.322
-152.848
-127.746
-101.067
-72.9026
-43.3694
-12.6177
19.1695
51.8092
84.9386
118.312
151.607
184.472
216.53
247.386
276.629
303.849
328.641
350.618
369.42
384.728
396.28
403.872
407.362
406.611
401.755
392.803
379.865
363.173
342.984
319.604
293.382
264.698
233.955
201.569
167.964
133.557
98.7529
63.9405
29.4824
-4.28741
-37.0804
-68.6394
-98.7532
-127.248
-153.988
-178.883
-201.879
-222.957
-242.113
-259.371
-274.782
-288.391
-300.263
-310.457
-319.025
-326.032
-331.524
-335.554
-338.132
-339.273
-339.039
-337.405
-334.373
-329.931
-324.055
-316.718
-307.892
-297.537
-285.614
-272.088
-256.923
-240.072
-221.517
-201.24
-179.222
-155.496
-130.098
-103.082
-74.5551
-44.656
-13.5526
18.6222
51.4406
84.6856
118.017
151.065
183.435
214.717
244.495
272.354
297.892
320.734
340.534
356.985
369.828
378.853
383.919
384.91
381.848
374.759
363.784
349.038
330.772
309.256
284.807
257.781
228.562
197.55
165.154
131.781
97.8309
63.6883
29.7142
-3.75858
-36.4189
-68.0019
-98.2694
-127.029
-154.123
-179.43
-202.871
-224.388
-243.956
-261.574
-277.255
-291.045
-302.99
-313.153
-321.609
-328.424
-333.683
-337.461
-339.814
-340.802
-340.51
-338.961
-336.193
-332.224
-327.055
-320.676
-313.064
-304.177
-293.965
-282.361
-269.285
-254.677
-238.461
-220.562
-200.928
-179.537
-156.378
-131.461
-104.849
-76.6509
-47.0041
-16.0943
15.7674
48.3114
81.2015
114.06
146.478
178.024
208.255
236.729
263.021
286.73
307.487
324.977
338.929
349.125
355.417
357.721
356.05
350.424
340.974
327.807
311.16
291.299
268.52
243.146
215.533
186.04
155.051
122.943
90.0781
56.8165
23.5009
-9.52486
-41.8237
-71.1716
-101.297
-130.514
-158.443
-184.898
-209.754
-232.908
-254.3
-273.893
-291.663
-307.607
-321.723
-334.028
-344.542
-353.292
-360.315
-365.656
-369.345
-371.391
-371.708
-370.524
-367.852
-363.751
-358.264
-351.404
-343.2
-333.66
-322.773
-310.539
-296.948
-281.979
-265.62
-247.855
-228.683
-208.109
-186.141
-162.823
-138.219
-112.403
-85.5387
-57.7119
-28.9782
0.487904
30.4603
60.7145
90.9625
120.902
150.232
178.588
205.614
230.983
254.337
275.346
293.683
309.049
321.195
329.899
334.985
336.287
333.615
326.902
316.294
302.003
284.233
263.367
239.85
-231.941
-250.278
-267.033
-282.161
-295.625
-307.461
-317.696
-326.367
-333.504
-339.139
-343.3
-345.974
-347.147
-346.609
-344.614
-341.094
-336.031
-329.409
-321.187
-311.31
-299.74
-286.428
-271.324
-254.393
-235.605
-214.943
-192.411
-168.018
-141.815
-113.876
-84.2859
-53.1983
-20.8205
12.5796
46.1559
80.7798
115.739
150.563
184.815
218.102
249.983
280.051
307.888
333.106
355.376
374.387
389.871
401.618
409.469
413.319
413.069
408.736
400.4
388.135
372.157
352.707
330.046
304.484
276.389
246.137
214.126
180.768
146.471
111.654
76.7355
42.1764
9.50686
-23.3469
-55.4551
-86.4296
-116.004
-144.014
-170.323
-194.835
-217.5
-238.278
-257.157
-274.125
-289.176
-302.338
-313.63
-323.073
-330.705
-336.559
-340.693
-343.125
-343.87
-343.043
-340.671
-336.788
-331.436
-324.64
-316.418
-306.797
-295.767
-283.305
-269.394
-253.98
-237.016
-218.474
-198.301
-176.47
-152.996
-127.894
-101.211
-73.0413
-43.4998
-12.7363
19.0659
51.7218
84.8728
118.27
151.592
184.487
216.578
247.468
276.748
304.005
328.833
350.844
369.677
385.012
396.585
404.191
407.687
406.95
402.068
393.106
380.15
363.432
343.212
319.798
293.539
264.818
234.037
201.615
167.974
133.534
98.6996
63.86
29.3783
-4.4116
-37.221
-68.7926
-98.9153
-127.416
-154.159
-179.055
-202.049
-223.123
-242.274
-259.526
-274.931
-288.533
-300.398
-310.587
-319.15
-326.152
-331.641
-335.667
-338.24
-339.385
-339.149
-337.516
-334.485
-330.045
-324.172
-316.838
-308.015
-297.666
-285.746
-272.225
-257.064
-240.217
-221.666
-201.392
-179.376
-155.651
-130.251
-103.23
-74.6969
-44.7872
-13.6677
18.5169
51.3589
84.6289
117.989
151.068
183.471
214.788
244.602
272.498
298.072
320.947
340.777
357.254
370.119
379.16
384.235
385.241
382.154
375.061
364.069
349.302
331.008
309.461
284.977
257.916
228.66
197.611
165.18
131.774
97.7931
63.6227
29.6238
-3.87041
-36.5491
-68.1468
-98.4255
-127.194
-154.293
-179.602
-203.043
-224.559
-244.123
-261.737
-277.412
-291.196
-303.135
-313.29
-321.74
-328.548
-333.801
-337.574
-339.916
-340.905
-340.609
-339.058
-336.289
-332.32
-327.152
-320.775
-313.168
-304.286
-294.08
-282.483
-269.415
-254.813
-238.605
-220.712
-201.084
-179.698
-156.54
-131.622
-105.006
-76.8005
-47.1421
-16.2175
15.6649
48.233
81.1513
114.042
146.494
178.078
208.346
236.859
263.189
286.933
307.723
325.24
339.214
349.426
355.729
358.048
356.352
350.719
341.255
328.069
311.397
291.507
268.696
243.289
215.642
186.116
155.094
122.955
90.0613
56.773
23.4311
-9.62414
-41.9596
-71.2605
-101.417
-130.653
-158.592
-185.052
-209.912
-233.067
-254.459
-274.05
-291.819
-307.759
-321.872
-334.174
-344.684
-353.43
-360.449
-365.786
-369.473
-371.518
-371.831
-370.639
-367.963
-363.861
-358.372
-351.512
-343.309
-333.769
-322.884
-310.653
-297.065
-282.098
-265.742
-247.98
-228.81
-208.237
-186.268
-162.949
-138.342
-112.521
-85.6494
-57.8153
-29.0709
0.408829
30.3978
60.6718
90.9432
120.909
150.267
178.653
205.711
231.111
254.496
275.536
293.901
309.292
321.459
330.18
335.279
336.603
333.899
327.183
316.565
302.255
284.459
263.564
240.014
-232.168
-250.499
-267.248
-282.369
-295.827
-307.656
-317.885
-326.551
-333.683
-339.314
-343.47
-346.145
-347.336
-346.79
-344.791
-341.274
-336.216
-329.6
-321.384
-311.516
-299.953
-286.648
-271.552
-254.628
-235.845
-215.187
-192.658
-168.265
-142.058
-114.113
-84.5128
-53.4093
-21.009
12.4232
46.0069
80.6705
115.676
150.549
184.851
218.191
250.127
280.25
308.14
333.408
355.724
374.776
390.293
402.066
409.935
413.794
413.559
409.192
400.842
388.556
372.543
353.052
330.344
304.731
276.583
246.275
214.21
180.798
146.45
111.583
76.613
42.0058
9.36765
-23.5237
-55.6615
-86.6564
-116.244
-144.261
-170.574
-195.087
-217.751
-238.526
-257.401
-274.365
-289.411
-302.567
-313.854
-323.291
-330.917
-336.766
-340.893
-343.313
-344.061
-343.228
-340.851
-336.963
-331.607
-324.81
-316.588
-306.969
-295.942
-283.486
-269.582
-254.175
-237.219
-218.684
-198.517
-176.691
-153.219
-128.115
-101.427
-73.2491
-43.695
-12.9138
18.9106
51.5915
84.7747
118.207
151.57
184.51
216.651
247.593
276.927
304.239
329.121
351.183
370.063
385.438
397.043
404.671
408.176
407.453
402.544
393.563
380.577
363.82
343.555
320.089
293.776
264.999
234.161
201.684
167.99
133.5
98.6201
63.7398
29.2226
-4.59737
-37.4314
-69.0219
-99.1581
-127.668
-154.415
-179.311
-202.303
-223.371
-242.515
-259.758
-275.153
-288.746
-300.602
-310.782
-319.337
-326.333
-331.817
-335.837
-338.404
-339.551
-339.314
-337.681
-334.652
-330.216
-324.347
-317.017
-308.2
-297.857
-285.944
-272.429
-257.274
-240.435
-221.889
-201.62
-179.606
-155.882
-130.48
-103.453
-74.9092
-44.9837
-13.8409
18.3603
51.2369
84.5444
117.946
151.072
183.526
214.896
244.764
272.714
298.341
321.267
341.143
357.659
370.556
379.621
384.709
385.732
382.621
375.517
364.499
349.699
331.364
309.769
285.234
258.119
228.807
197.704
165.22
131.764
97.7371
63.5248
29.4887
-4.03768
-36.7437
-68.3635
-98.6592
-127.439
-154.546
-179.859
-203.301
-224.814
-244.374
-261.981
-277.647
-291.422
-303.351
-313.496
-321.936
-328.734
-333.977
-337.741
-340.072
-341.059
-340.757
-339.202
-336.432
-332.463
-327.297
-320.924
-313.323
-304.449
-294.252
-282.665
-269.608
-255.018
-238.821
-220.938
-201.318
-179.938
-156.783
-131.863
-105.242
-77.0246
-47.349
-16.4014
15.5118
48.1159
81.0764
114.014
146.519
178.158
208.485
237.056
263.442
287.239
308.076
325.635
339.642
349.878
356.196
358.53
356.814
351.167
341.678
328.462
311.752
291.819
268.961
243.504
215.806
186.229
155.158
122.972
90.036
56.7077
23.3265
-9.7726
-42.1642
-71.3932
-101.599
-130.862
-158.816
-185.285
-210.149
-233.306
-254.698
-274.287
-292.052
-307.988
-322.096
-334.393
-344.898
-353.638
-360.651
-365.98
-369.664
-371.708
-372.015
-370.813
-368.131
-364.025
-358.535
-351.674
-343.472
-333.933
-323.051
-310.824
-297.24
-282.277
-265.925
-248.167
-229
-208.428
-186.459
-163.138
-138.526
-112.698
-85.8156
-57.9707
-29.2102
0.290085
30.3039
60.6076
90.914
120.919
150.32
178.752
205.856
231.304
254.735
275.821
294.228
309.657
321.856
330.602
335.719
337.068
334.333
327.607
316.971
302.633
284.799
263.859
240.261
-232.471
-250.795
-267.535
-282.647
-296.096
-307.917
-318.138
-326.797
-333.923
-339.547
-343.697
-346.371
-347.581
-347.029
-345.027
-341.515
-336.463
-329.856
-321.648
-311.789
-300.237
-286.942
-271.856
-254.94
-236.165
-215.513
-192.987
-168.594
-142.383
-114.43
-84.8158
-53.6911
-21.2606
12.2144
45.8073
80.5245
115.592
150.529
184.9
218.31
250.319
280.514
308.476
333.811
356.188
375.294
390.857
402.665
410.558
414.428
414.205
409.809
401.435
389.117
373.059
353.512
330.742
305.061
276.84
246.46
214.322
180.839
146.423
111.488
76.4493
41.7768
9.18317
-23.76
-55.9375
-86.9593
-116.564
-144.591
-170.909
-195.424
-218.086
-238.857
-257.726
-274.684
-289.724
-302.873
-314.152
-323.582
-331.201
-337.042
-341.159
-343.567
-344.314
-343.475
-341.09
-337.196
-331.836
-325.036
-316.815
-307.197
-296.175
-283.726
-269.832
-254.436
-237.49
-218.964
-198.806
-176.985
-153.516
-128.41
-101.715
-73.5266
-43.9557
-13.1513
18.7024
51.418
84.6437
118.124
151.541
184.541
216.747
247.759
277.165
304.551
329.505
351.636
370.578
386.007
397.654
405.311
408.829
408.116
403.185
394.174
381.148
364.339
344.011
320.478
294.092
265.24
234.327
201.775
168.011
133.454
98.5136
63.579
29.0146
-4.84558
-37.7124
-69.3281
-99.4823
-128.004
-154.756
-179.653
-202.641
-223.702
-242.836
-260.068
-275.451
-289.03
-300.873
-311.042
-319.586
-326.573
-332.05
-336.061
-338.624
-339.772
-339.533
-337.902
-334.876
-330.443
-324.58
-317.257
-308.447
-298.113
-286.208
-272.701
-257.556
-240.725
-222.187
-201.924
-179.914
-156.19
-130.786
-103.75
-75.1929
-45.2465
-14.0741
18.1526
51.074
84.4313
117.889
151.077
183.598
215.039
244.98
273.003
298.701
321.694
341.631
358.2
371.139
380.235
385.342
386.372
383.254
376.129
365.073
350.229
331.838
310.18
285.577
258.389
229.004
197.828
165.273
131.751
97.662
63.3938
29.3081
-4.2612
-37.0036
-68.6529
-98.9712
-127.767
-154.885
-180.203
-203.645
-225.155
-244.708
-262.306
-277.961
-291.724
-303.639
-313.771
-322.197
-328.982
-334.212
-337.962
-340.283
-341.263
-340.955
-339.396
-336.623
-332.654
-327.49
-321.123
-313.53
-304.666
-294.481
-282.908
-269.866
-255.291
-239.109
-221.238
-201.63
-180.258
-157.106
-132.185
-105.556
-77.3242
-47.626
-16.6465
15.3072
47.9594
80.9761
113.978
146.552
178.265
208.669
237.317
263.779
287.647
308.549
326.163
340.213
350.481
356.82
359.158
357.439
351.769
342.244
328.987
312.226
292.235
269.313
243.791
216.024
186.38
155.244
122.996
90.0019
56.6204
23.1873
-9.96967
-42.438
-71.5695
-101.842
-131.141
-159.115
-185.595
-210.464
-233.624
-255.016
-274.603
-292.363
-308.294
-322.395
-334.685
-345.182
-353.915
-360.919
-366.239
-369.915
-371.963
-372.258
-371.044
-368.355
-364.245
-358.752
-351.891
-343.689
-334.152
-323.274
-311.052
-297.474
-282.516
-266.169
-248.417
-229.253
-208.684
-186.714
-163.39
-138.773
-112.935
-86.0377
-58.178
-29.396
0.131504
30.1784
60.5217
90.8746
120.932
150.391
178.883
206.049
231.56
255.054
276.2
294.664
310.144
322.386
331.165
336.305
337.679
334.92
328.175
317.514
303.136
285.251
264.252
240.589
-232.849
-251.164
-267.893
-282.994
-296.432
-308.243
-318.454
-327.104
-334.223
-339.84
-343.981
-346.653
-347.878
-347.324
-345.321
-341.815
-336.772
-330.175
-321.977
-312.131
-300.592
-287.309
-272.235
-255.331
-236.566
-215.921
-193.398
-169.005
-142.79
-114.827
-85.1951
-54.0441
-21.5756
11.9531
45.5558
80.3413
115.486
150.505
184.96
218.459
250.558
280.845
308.895
334.314
356.768
375.942
391.562
403.414
411.336
415.222
415.003
410.589
402.178
389.819
373.703
354.088
331.239
305.472
277.162
246.69
214.461
180.89
146.388
111.369
76.2443
41.4874
8.95481
-24.0564
-56.2838
-87.3389
-116.964
-145.004
-171.329
-195.845
-218.505
-239.271
-258.133
-275.084
-290.116
-303.256
-314.526
-323.946
-331.555
-337.387
-341.492
-343.888
-344.63
-343.783
-341.389
-337.488
-332.122
-325.319
-317.098
-307.483
-296.467
-284.027
-270.145
-254.761
-237.829
-219.315
-199.167
-177.354
-153.888
-128.779
-102.076
-73.874
-44.2823
-13.4491
18.4405
51.2013
84.4792
118.019
151.504
184.579
216.867
247.966
277.463
304.94
329.985
352.202
371.222
386.719
398.419
406.112
409.647
408.938
403.992
394.939
381.862
364.987
344.583
320.964
294.487
265.541
234.533
201.889
168.036
133.396
98.3797
63.3771
28.7537
-5.15666
-38.0645
-69.7116
-99.8883
-128.425
-155.184
-180.082
-203.065
-224.116
-243.237
-260.456
-275.822
-289.385
-301.212
-311.366
-319.898
-326.874
-332.341
-336.342
-338.902
-340.048
-339.808
-338.178
-335.155
-330.728
-324.872
-317.556
-308.756
-298.432
-286.539
-273.042
-257.908
-241.089
-222.56
-202.304
-180.299
-156.577
-131.168
-104.123
-75.5483
-45.5761
-14.3682
17.8939
50.8697
84.2892
117.817
151.083
183.688
215.218
245.25
273.364
299.151
322.227
342.241
358.876
371.869
381.005
386.133
387.168
384.049
376.895
365.792
350.891
332.432
310.694
286.005
258.727
229.249
197.982
165.339
131.733
97.5675
63.2293
29.0815
-4.54144
-37.3292
-69.0154
-99.3619
-128.178
-155.309
-180.633
-204.076
-225.582
-245.127
-262.713
-278.354
-292.102
-304
-314.114
-322.523
-329.292
-334.504
-338.238
-340.549
-341.518
-341.201
-339.637
-336.861
-332.893
-327.732
-321.371
-313.789
-304.937
-294.768
-283.212
-270.188
-255.632
-239.468
-221.614
-202.02
-180.659
-157.511
-132.588
-105.95
-77.6998
-47.9736
-16.9532
15.0506
47.7629
80.8498
113.931
146.593
178.399
208.898
237.644
264.201
288.157
309.139
326.823
340.928
351.236
357.599
359.941
358.221
352.524
342.954
329.644
312.819
292.755
269.755
244.149
216.297
186.568
155.35
123.025
89.9589
56.5109
23.0136
-10.2144
-42.7813
-71.7895
-102.149
-131.491
-159.49
-185.983
-210.86
-234.023
-255.414
-274.997
-292.752
-308.676
-322.769
-335.05
-345.538
-354.261
-361.255
-366.563
-370.229
-372.28
-372.561
-371.333
-368.635
-364.519
-359.023
-352.161
-343.96
-334.425
-323.552
-311.337
-297.766
-282.815
-266.475
-248.729
-229.57
-209.003
-187.033
-163.706
-139.081
-113.231
-86.3159
-58.4374
-29.6287
-0.067156
30.0209
60.4137
90.8249
120.949
150.478
179.046
206.29
231.88
255.453
276.674
295.21
310.752
323.048
331.868
337.037
338.432
335.664
328.889
318.194
303.766
285.818
264.744
241
-233.303
-251.607
-268.323
-283.411
-296.836
-308.634
-318.833
-327.473
-334.582
-340.19
-344.323
-346.992
-348.227
-347.674
-345.675
-342.175
-337.143
-330.558
-322.373
-312.542
-301.017
-287.75
-272.69
-255.801
-237.046
-216.411
-193.893
-169.499
-143.279
-115.303
-85.6512
-54.4688
-21.9542
11.6397
45.2508
80.1208
115.359
150.474
185.031
218.637
250.845
281.241
309.399
334.919
357.465
376.721
392.409
404.313
412.272
416.175
415.957
411.527
403.073
390.663
374.478
354.778
331.836
305.966
277.548
246.966
214.628
180.95
146.346
111.227
75.9976
41.1359
8.68362
-24.4136
-56.7011
-87.7956
-117.446
-145.5
-171.833
-196.352
-219.009
-239.769
-258.622
-275.563
-290.586
-303.715
-314.974
-324.383
-331.98
-337.801
-341.89
-344.275
-345.009
-344.152
-341.748
-337.839
-332.465
-325.659
-317.439
-307.826
-296.817
-284.388
-270.52
-255.152
-238.236
-219.737
-199.601
-177.797
-154.335
-129.223
-102.51
-74.2917
-44.6749
-13.8078
18.1243
50.941
84.2809
117.892
151.458
184.623
217.01
248.214
277.82
305.408
330.561
352.882
371.996
387.573
399.338
407.074
410.631
409.923
404.961
395.859
382.72
365.766
345.269
321.547
294.96
265.901
234.78
202.025
168.066
133.326
98.2179
63.1338
28.4394
-5.531
-38.4878
-70.1728
-100.376
-128.93
-155.698
-180.596
-203.574
-224.614
-243.72
-260.921
-276.268
-289.812
-301.619
-311.756
-320.272
-327.234
-332.69
-336.68
-339.234
-340.378
-340.138
-338.509
-335.49
-331.069
-325.222
-317.916
-309.126
-298.815
-286.936
-273.452
-258.331
-241.525
-223.008
-202.761
-180.761
-157.04
-131.628
-104.57
-75.9757
-45.9731
-14.7238
17.5837
50.6238
84.1177
117.73
151.09
183.796
215.432
245.573
273.797
299.69
322.868
342.973
359.689
372.746
381.929
387.085
388.125
385.002
377.814
366.656
351.687
333.144
311.311
286.518
259.131
229.543
198.165
165.417
131.711
97.453
63.0309
28.8086
-4.87884
-37.721
-69.4513
-99.8318
-128.672
-155.819
-181.15
-204.593
-226.095
-245.63
-263.201
-278.826
-292.555
-304.433
-314.527
-322.915
-329.663
-334.856
-338.57
-340.867
-341.824
-341.497
-339.927
-337.147
-333.179
-328.022
-321.669
-314.099
-305.263
-295.111
-283.577
-270.575
-256.042
-239.9
-222.066
-202.489
-181.14
-157.999
-133.073
-106.423
-78.1517
-48.3919
-17.3223
14.7415
47.526
80.6972
113.874
146.641
178.558
209.173
238.036
264.706
288.769
309.849
327.615
341.786
352.143
358.536
360.883
359.157
353.429
343.806
330.432
313.531
293.379
270.284
244.578
216.623
186.793
155.478
123.059
89.9065
56.3789
22.8057
-10.5057
-43.1937
-72.0543
-102.521
-131.914
-159.94
-186.449
-211.334
-234.502
-255.892
-275.472
-293.219
-309.134
-323.218
-335.488
-345.965
-354.676
-361.658
-366.952
-370.606
-372.658
-372.921
-371.678
-368.97
-364.847
-359.348
-352.485
-344.286
-334.753
-323.886
-311.679
-298.116
-283.174
-266.841
-249.103
-229.951
-209.387
-187.417
-164.084
-139.452
-113.588
-86.6504
-58.7493
-29.9085
-0.306231
29.8312
60.2832
90.7644
120.967
150.583
179.242
206.579
232.263
255.931
277.244
295.865
311.483
323.842
332.713
337.916
339.332
336.559
329.748
319.011
304.523
286.498
265.334
241.492
-233.833
-252.124
-268.825
-283.898
-297.307
-309.09
-319.276
-327.903
-335.001
-340.6
-344.724
-347.388
-348.628
-348.081
-346.087
-342.594
-337.576
-331.004
-322.835
-313.021
-301.514
-288.264
-273.222
-256.349
-237.608
-216.983
-194.47
-170.076
-143.849
-115.86
-86.1846
-54.9659
-22.397
11.2746
44.8904
79.8626
115.209
150.438
185.114
218.845
251.18
281.704
309.986
335.624
358.278
377.63
393.398
405.364
413.364
417.289
417.071
412.62
404.12
391.649
375.382
355.585
332.532
306.543
277.998
247.287
214.821
181.02
146.296
111.061
75.7092
40.7206
8.37038
-24.8326
-57.1905
-88.3301
-118.009
-146.08
-172.421
-196.943
-219.596
-240.35
-259.193
-276.123
-291.134
-304.251
-315.497
-324.893
-332.476
-338.284
-342.356
-344.727
-345.45
-344.582
-342.167
-338.247
-332.865
-326.056
-317.835
-308.226
-297.225
-284.809
-270.957
-255.608
-238.711
-220.23
-200.109
-178.314
-154.857
-129.741
-103.018
-74.78
-45.1341
-14.2278
17.7533
50.6369
84.0483
117.742
151.403
184.674
217.175
248.502
278.235
305.952
331.234
353.675
372.899
388.571
400.411
408.199
411.781
411.075
406.091
396.934
383.722
366.675
346.069
322.227
295.513
266.321
235.067
202.183
168.099
133.243
98.0278
62.8484
28.0712
-5.96919
-38.9831
-70.7122
-100.947
-129.521
-156.3
-181.197
-204.169
-225.195
-244.284
-261.465
-276.789
-290.31
-302.095
-312.21
-320.709
-327.655
-333.097
-337.075
-339.623
-340.763
-340.522
-338.896
-335.881
-331.467
-325.629
-318.335
-309.558
-299.262
-287.398
-273.93
-258.825
-242.034
-223.531
-203.295
-181.301
-157.583
-132.166
-105.093
-76.4755
-46.438
-15.1412
17.2214
50.3357
83.9164
117.627
151.096
183.92
215.68
245.95
274.301
300.32
323.615
343.828
360.637
373.77
383.008
388.197
389.245
386.114
378.886
367.666
352.616
333.976
312.032
287.118
259.603
229.885
198.379
165.507
131.684
97.3181
62.7981
28.489
-5.27382
-38.1795
-69.9611
-100.381
-129.249
-156.414
-181.754
-205.197
-226.693
-246.217
-263.772
-279.377
-293.084
-304.939
-315.008
-323.372
-330.097
-335.266
-338.958
-341.238
-342.181
-341.842
-340.264
-337.481
-333.513
-328.36
-322.017
-314.46
-305.642
-295.512
-284.002
-271.027
-256.521
-240.405
-222.594
-203.037
-181.702
-158.568
-133.64
-106.977
-78.6805
-48.8816
-17.7542
14.3793
47.2479
80.5175
113.806
146.695
178.743
209.493
238.492
265.295
289.484
310.677
328.54
342.789
353.204
359.63
361.986
360.25
354.486
344.803
331.354
314.362
294.108
270.901
245.078
217.004
187.055
155.625
123.098
89.8444
56.2243
22.5637
-10.8417
-43.6731
-72.367
-102.961
-132.409
-160.466
-186.994
-211.889
-235.061
-256.451
-276.025
-293.764
-309.669
-323.741
-335.999
-346.463
-355.16
-362.128
-367.407
-371.047
-373.1
-373.338
-372.081
-369.362
-365.23
-359.727
-352.863
-344.665
-335.136
-324.275
-312.078
-298.525
-283.593
-267.269
-249.54
-230.395
-209.835
-187.864
-164.527
-139.884
-114.005
-87.0414
-59.1139
-30.2358
-0.586132
29.6087
60.1298
90.6925
120.988
150.705
179.47
206.916
232.711
256.488
277.908
296.629
312.336
324.77
333.7
338.942
340.382
337.601
330.754
319.966
305.407
287.293
266.023
242.067
-234.44
-252.715
-269.4
-284.454
-297.846
-309.611
-319.782
-328.394
-335.48
-341.068
-345.182
-347.841
-349.08
-348.543
-346.557
-343.073
-338.07
-331.515
-323.363
-313.568
-302.082
-288.852
-273.829
-256.975
-238.25
-217.637
-195.131
-170.737
-144.503
-116.498
-86.796
-55.5361
-22.9052
10.8587
44.4725
79.5665
115.037
150.396
185.207
219.081
251.562
282.232
310.657
336.43
359.208
378.669
394.529
406.566
414.615
418.563
418.345
413.871
405.319
392.777
376.416
356.508
333.329
307.202
278.512
247.653
215.041
181.098
146.238
110.871
75.3798
40.2393
8.01605
-25.3151
-57.7531
-88.9433
-118.655
-146.745
-173.094
-197.619
-220.269
-241.014
-259.846
-276.762
-291.761
-304.864
-316.095
-325.476
-333.043
-338.835
-342.889
-345.245
-345.954
-345.073
-342.646
-338.714
-333.323
-326.508
-318.287
-308.683
-297.691
-285.29
-271.457
-256.129
-239.254
-220.793
-200.689
-178.906
-155.454
-130.335
-103.599
-75.3392
-45.6603
-14.7094
17.3268
50.2887
83.781
117.57
151.339
184.73
217.363
248.83
278.709
306.575
332.002
354.582
373.932
389.714
401.639
409.486
413.099
412.394
407.383
398.165
384.868
367.715
346.985
323.004
296.143
266.8
235.395
202.362
168.135
133.146
97.8088
62.5204
27.6485
-6.47191
-39.5509
-71.3304
-101.601
-130.198
-156.988
-181.886
-204.849
-225.86
-244.928
-262.086
-277.384
-290.878
-302.638
-312.729
-321.207
-328.135
-333.561
-337.526
-340.066
-341.203
-340.96
-339.337
-336.327
-331.922
-326.095
-318.815
-310.052
-299.772
-287.927
-274.476
-259.389
-242.617
-224.128
-203.905
-181.919
-158.203
-132.781
-105.693
-77.0484
-46.9713
-15.6209
16.8062
50.0049
83.6844
117.508
151.101
184.06
215.963
246.38
274.878
301.04
324.47
344.806
361.722
374.942
384.244
389.47
390.528
387.385
380.113
368.821
353.68
334.927
312.855
287.803
260.142
230.276
198.623
165.608
131.652
97.1623
62.5304
28.1219
-5.72696
-38.7052
-70.5453
-101.011
-129.911
-157.096
-182.446
-205.889
-227.378
-246.888
-264.425
-280.008
-293.689
-305.517
-315.559
-323.894
-330.592
-335.734
-339.402
-341.663
-342.588
-342.236
-340.65
-337.862
-333.894
-328.746
-322.413
-314.873
-306.076
-295.971
-284.488
-271.543
-257.068
-240.981
-223.198
-203.664
-182.346
-159.22
-134.289
-107.612
-79.2865
-49.4435
-18.2496
13.9631
46.928
80.3103
113.726
146.756
178.953
209.859
239.013
265.969
290.301
311.624
329.599
343.937
354.418
360.883
363.248
361.5
355.694
345.944
332.408
315.313
294.942
271.606
245.648
217.438
187.354
155.793
123.142
89.7721
56.0466
22.2879
-11.2205
-44.2125
-72.7352
-103.472
-132.978
-161.069
-187.618
-212.524
-235.7
-257.089
-276.658
-294.388
-310.281
-324.34
-336.583
-347.033
-355.714
-362.665
-367.926
-371.55
-373.602
-373.812
-372.54
-369.809
-365.668
-360.16
-353.295
-345.098
-335.573
-324.72
-312.533
-298.992
-284.072
-267.759
-250.04
-230.903
-210.347
-188.376
-165.033
-140.379
-114.483
-87.4891
-59.5318
-30.6111
-0.90737
29.3529
59.9528
90.6089
121.01
150.843
179.73
207.301
233.222
257.125
278.667
297.503
313.312
325.831
334.828
340.116
341.581
338.793
331.905
321.059
306.418
288.202
266.812
242.724
-235.122
-253.38
-270.046
-285.08
-298.451
-310.197
-320.35
-328.947
-336.019
-341.594
-345.698
-348.349
-349.583
-349.061
-347.084
-343.612
-338.626
-332.089
-323.957
-314.184
-302.721
-289.514
-274.513
-257.68
-238.973
-218.373
-195.875
-171.481
-145.239
-117.217
-87.486
-56.1805
-23.4797
10.3921
43.9953
79.2323
114.843
150.346
185.311
219.345
251.991
282.825
311.412
337.338
360.255
379.841
395.804
407.92
416.024
420
419.781
415.279
406.671
394.049
377.582
357.547
334.225
307.943
279.09
248.064
215.287
181.185
146.172
110.657
75.0105
39.6902
7.62087
-25.8633
-58.3902
-89.6358
-119.383
-147.494
-173.853
-198.38
-221.026
-241.762
-260.581
-277.482
-292.466
-305.555
-316.768
-326.131
-333.682
-339.455
-343.49
-345.828
-346.521
-345.625
-343.184
-339.238
-333.837
-327.017
-318.796
-309.196
-298.215
-285.83
-272.018
-256.715
-239.865
-221.428
-201.342
-179.572
-156.126
-131.005
-104.255
-75.97
-46.254
-15.2533
16.8438
49.896
83.4783
117.374
151.264
184.792
217.572
249.197
279.241
307.274
332.866
355.603
375.096
391.001
403.023
410.938
414.584
413.881
408.838
399.552
386.16
368.887
348.016
323.879
296.852
267.339
235.763
202.562
168.175
133.035
97.5602
62.1491
27.1704
-7.03986
-40.1919
-72.0281
-102.339
-130.962
-157.763
-182.661
-205.616
-226.609
-245.654
-262.785
-278.053
-291.518
-303.249
-313.313
-321.768
-328.675
-334.083
-338.034
-340.565
-341.697
-341.453
-339.833
-336.829
-332.433
-326.619
-319.354
-310.608
-300.347
-288.522
-275.091
-260.025
-243.272
-224.801
-204.592
-182.615
-158.902
-133.474
-106.369
-77.695
-47.5738
-16.1634
16.3375
49.6305
83.4213
117.372
151.105
184.217
216.28
246.862
275.526
301.85
325.433
345.908
362.944
376.262
385.636
390.905
391.975
388.817
381.495
370.124
354.878
335.999
313.783
288.573
260.748
230.714
198.895
165.721
131.614
96.9849
62.227
27.7067
-6.23896
-39.2987
-71.2046
-101.721
-130.657
-157.865
-183.226
-206.668
-228.149
-247.645
-265.16
-280.717
-294.37