/*--------------------------------*- C++ -*----------------------------------*\
| =========                 |                                                 |
| \\      /  F ield         | OpenFOAM: The Open Source CFD Toolbox           |
|  \\    /   O peration     | Version:  3.0.1                                 |
|   \\  /    A nd           | Web:      www.OpenFOAM.org                      |
|    \\/     M anipulation  |                                                 |
\*---------------------------------------------------------------------------*/
FoamFile
{
    version     2.0;
    format      ascii;
    class       volVectorField;
    location    "20";
    object      U;
}
// * * * * * * * * * * * * * * * * * * * * * * * * * * * * * * * * * * * * * //

dimensions      [0 1 -1 0 0 0 0];

internalField   nonuniform List<vector> 
21420
(
(-0.122689 0.000985086 0)
(-0.130552 0.000884291 0)
(-0.139021 0.000793052 0)
(-0.146557 0.000703843 0)
(-0.153202 0.000614744 0)
(-0.158988 0.000532016 0)
(-0.163946 0.000450587 0)
(-0.168109 0.00037395 0)
(-0.171506 0.000299654 0)
(-0.174166 0.000227026 0)
(-0.176123 0.000156287 0)
(-0.17737 8.89833e-05 0)
(-0.177952 2.65171e-05 0)
(-0.177872 -4.28471e-05 0)
(-0.177101 -0.000110462 0)
(-0.175667 -0.000176924 0)
(-0.173554 -0.00024407 0)
(-0.170752 -0.000313318 0)
(-0.16725 -0.000383749 0)
(-0.163025 -0.000455821 0)
(-0.158047 -0.000533444 0)
(-0.152289 -0.00061148 0)
(-0.145714 -0.000692366 0)
(-0.138283 -0.000782599 0)
(-0.129961 -0.000870092 0)
(-0.120709 -0.000969663 0)
(-0.110502 -0.00106211 0)
(-0.0993126 -0.00115497 0)
(-0.0871185 -0.00126449 0)
(-0.0739167 -0.00135552 0)
(-0.0597302 -0.00144245 0)
(-0.0445474 -0.001549 0)
(-0.0284524 -0.00162855 0)
(-0.0116622 -0.00171546 0)
(0.00574041 -0.00176678 0)
(0.0237071 -0.00180046 0)
(0.0421031 -0.00185287 0)
(0.0607407 -0.0018531 0)
(0.0793785 -0.00182847 0)
(0.0977821 -0.0018126 0)
(0.11572 -0.00174296 0)
(0.132938 -0.001671 0)
(0.149185 -0.00155354 0)
(0.164195 -0.00141086 0)
(0.177716 -0.00125701 0)
(0.189532 -0.00107422 0)
(0.199442 -0.000869609 0)
(0.207255 -0.000657857 0)
(0.212886 -0.000429651 0)
(0.216166 -0.000189694 0)
(0.217017 3.80811e-05 0)
(0.21551 0.000281992 0)
(0.211481 0.000504996 0)
(0.205186 0.000722768 0)
(0.196691 0.00094278 0)
(0.186179 0.00112204 0)
(0.173817 0.00130037 0)
(0.159779 0.00146197 0)
(0.144309 0.00157651 0)
(0.127674 0.00168624 0)
(0.110155 0.00175368 0)
(0.091945 0.00181359 0)
(0.0733322 0.0018483 0)
(0.0545297 0.00185004 0)
(0.035615 0.00183679 0)
(0.017223 0.00181713 0)
(-0.000405349 0.00176043 0)
(-0.0176591 0.00170566 0)
(-0.0344481 0.00163214 0)
(-0.0505747 0.00155895 0)
(-0.0659013 0.00147029 0)
(-0.0803389 0.00138084 0)
(-0.093845 0.00128931 0)
(-0.10634 0.00118244 0)
(-0.117839 0.00108718 0)
(-0.128342 0.000987901 0)
(-0.13789 0.000885254 0)
(-0.146452 0.000796597 0)
(-0.153919 0.000695353 0)
(-0.16045 0.000598049 0)
(-0.166111 0.000511772 0)
(-0.170756 0.000413248 0)
(-0.174503 0.000323988 0)
(-0.177412 0.000238388 0)
(-0.179446 0.00014612 0)
(-0.180587 7.29385e-05 0)
(-0.180941 -1.0785e-06 0)
(-0.180477 -8.57416e-05 0)
(-0.179305 -0.000154858 0)
(-0.177401 -0.000228091 0)
(-0.174839 -0.000292463 0)
(-0.171631 -0.000343966 0)
(-0.16779 -0.000406916 0)
(-0.16337 -0.000474272 0)
(-0.158354 -0.000533067 0)
(-0.152596 -0.000601507 0)
(-0.146166 -0.000663655 0)
(-0.139219 -0.000722057 0)
(-0.131492 -0.000804133 0)
(-0.123012 -0.000879394 0)
(-0.113903 -0.000928207 0)
(-0.103903 -0.00103713 0)
(-0.0930553 -0.00112022 0)
(-0.0813872 -0.00120308 0)
(-0.0687748 -0.00129686 0)
(-0.0552564 -0.001372 0)
(-0.0410074 -0.00145592 0)
(-0.0259223 -0.00153223 0)
(-0.010079 -0.00159231 0)
(0.00629505 -0.00164761 0)
(0.0231663 -0.00169493 0)
(0.0404124 -0.00172468 0)
(0.0578961 -0.0017446 0)
(0.0754541 -0.00173927 0)
(0.0928794 -0.00171576 0)
(0.109942 -0.00166915 0)
(0.126439 -0.00159557 0)
(0.142091 -0.00149994 0)
(0.156632 -0.00137698 0)
(0.169789 -0.00123171 0)
(0.181347 -0.00105683 0)
(0.191077 -0.000864281 0)
(0.198734 -0.000654164 0)
(0.204149 -0.000427782 0)
(0.207215 -0.000189024 0)
(0.207896 5.45359e-05 0)
(0.206148 0.00029432 0)
(0.201856 0.000534428 0)
(0.195338 0.000763996 0)
(0.186601 0.000971816 0)
(0.175812 0.00116183 0)
(0.163215 0.00133042 0)
(0.149026 0.00148355 0)
(0.133456 0.00160081 0)
(0.116806 0.00169702 0)
(0.0993385 0.00177119 0)
(0.0812486 0.00181735 0)
(0.0627969 0.00183946 0)
(0.0442378 0.00184204 0)
(0.0258014 0.00181926 0)
(0.00769203 0.00177706 0)
(-0.00999331 0.00172482 0)
(-0.0270535 0.0016586 0)
(-0.0433518 0.00157789 0)
(-0.0588493 0.00148761 0)
(-0.0733415 0.00138842 0)
(-0.086666 0.00127417 0)
(-0.0989782 0.00117276 0)
(-0.110321 0.00107649 0)
(-0.120679 0.000965245 0)
(-0.129963 0.000871079 0)
(-0.13809 0.000765575 0)
(-0.145428 0.000683442 0)
(-0.151891 0.000590442 0)
(-0.157268 0.000487057 0)
(-0.16182 0.000412425 0)
(-0.165528 0.00032969 0)
(-0.168409 0.000245122 0)
(-0.170599 0.000183049 0)
(-0.172046 0.000105478 0)
(-0.172797 4.77823e-05 0)
(-0.172973 -1.91118e-05 0)
(-0.172441 -8.11265e-05 0)
(-0.17125 -0.000145336 0)
(-0.169482 -0.000209502 0)
(-0.167059 -0.000267317 0)
(-0.16404 -0.000327239 0)
(-0.160431 -0.000395063 0)
(-0.156117 -0.000458798 0)
(-0.15112 -0.00052478 0)
(-0.14552 -0.000589267 0)
(-0.139221 -0.000669987 0)
(-0.13208 -0.0007384 0)
(-0.124232 -0.000809226 0)
(-0.115594 -0.000901962 0)
(-0.106186 -0.000969373 0)
(-0.0958733 -0.00108018 0)
(-0.0844378 -0.00117596 0)
(-0.0721863 -0.00125244 0)
(-0.059054 -0.00134493 0)
(-0.0450316 -0.00144214 0)
(-0.0301106 -0.00151434 0)
(-0.0143678 -0.00159553 0)
(0.00202889 -0.0016549 0)
(0.0190597 -0.00171441 0)
(0.0365927 -0.00175672 0)
(0.0544281 -0.00178177 0)
(0.0724176 -0.00178177 0)
(0.0903263 -0.00176467 0)
(0.107904 -0.00171844 0)
(0.12491 -0.00165518 0)
(0.141122 -0.00156007 0)
(0.156293 -0.00144229 0)
(0.170152 -0.00130066 0)
(0.18245 -0.00113542 0)
(0.19296 -0.000950009 0)
(0.201501 -0.00074613 0)
(0.207924 -0.000522521 0)
(0.212093 -0.00029435 0)
(0.213877 -6.32418e-05 0)
(0.21335 0.000169037 0)
(0.210348 0.000411066 0)
(0.205042 0.000637699 0)
(0.197541 0.000851959 0)
(0.187937 0.00104696 0)
(0.176436 0.0012277 0)
(0.163251 0.00139075 0)
(0.148576 0.00151503 0)
(0.132706 0.00162467 0)
(0.115876 0.00171291 0)
(0.0983044 0.00177359 0)
(0.0802443 0.00180561 0)
(0.061975 0.00181918 0)
(0.0436736 0.00181345 0)
(0.0254757 0.00179331 0)
(0.00764528 0.00174641 0)
(-0.00961696 0.00168156 0)
(-0.0262874 0.00162018 0)
(-0.0421918 0.00154036 0)
(-0.05724 0.00144583 0)
(-0.0713862 0.00135956 0)
(-0.0844959 0.00125411 0)
(-0.0967272 0.00115993 0)
(-0.107902 0.00105305 0)
(-0.117783 0.000926131 0)
(-0.12663 0.000824538 0)
(-0.134412 0.000721489 0)
(-0.141175 0.000621616 0)
(-0.147004 0.000525528 0)
(-0.151713 0.000420605 0)
(-0.155505 0.000335041 0)
(-0.158511 0.000251008 0)
(-0.160591 0.000161974 0)
(-0.161806 8.40988e-05 0)
(-0.162342 1.41656e-05 0)
(-0.162178 -4.80377e-05 0)
(-0.161301 -0.000118631 0)
(-0.159776 -0.000176806 0)
(-0.157671 -0.000235978 0)
(-0.15505 -0.000291156 0)
(-0.151889 -0.000340982 0)
(-0.148102 -0.000400207 0)
(-0.143748 -0.00045625 0)
(-0.138961 -0.000497395 0)
(-0.133598 -0.000563559 0)
(-0.127664 -0.000618884 0)
(-0.120964 -0.000702934 0)
(-0.11343 -0.000780729 0)
(-0.105301 -0.000846885 0)
(-0.0963491 -0.000932111 0)
(-0.0863798 -0.00102632 0)
(-0.0755357 -0.00112625 0)
(-0.0637773 -0.00120692 0)
(-0.0511777 -0.00130077 0)
(-0.0375374 -0.00140433 0)
(-0.0228199 -0.00149886 0)
(-0.00724414 -0.00158414 0)
(0.00915296 -0.00166587 0)
(0.0263022 -0.00172997 0)
(0.0440014 -0.0017791 0)
(0.0621047 -0.00181223 0)
(0.0804654 -0.00181838 0)
(0.0988059 -0.00181394 0)
(0.116907 -0.00177501 0)
(0.134501 -0.00170977 0)
(0.151307 -0.00161598 0)
(0.167044 -0.00149769 0)
(0.181445 -0.00134964 0)
(0.194274 -0.00117476 0)
(0.205228 -0.000984828 0)
(0.214131 -0.000782402 0)
(0.220903 -0.000558808 0)
(0.225427 -0.000320524 0)
(0.227558 -8.61523e-05 0)
(0.22736 0.000145482 0)
(0.224747 0.000382335 0)
(0.219884 0.000595493 0)
(0.212875 0.000802785 0)
(0.203879 0.000994739 0)
(0.193095 0.0011573 0)
(0.180651 0.0013112 0)
(0.166861 0.00143011 0)
(0.151885 0.00153507 0)
(0.135936 0.00162694 0)
(0.11931 0.00168617 0)
(0.102095 0.00173099 0)
(0.0845574 0.00175402 0)
(0.0669883 0.00174878 0)
(0.0493931 0.00173096 0)
(0.0321433 0.0017012 0)
(0.0152933 0.00166711 0)
(-0.000875688 0.0016019 0)
(-0.0163083 0.00153998 0)
(-0.0313484 0.00147411 0)
(-0.0456623 0.00139484 0)
(-0.0591827 0.00130831 0)
(-0.0718638 0.00122426 0)
(-0.0836259 0.00113054 0)
(-0.0944575 0.001035 0)
(-0.104358 0.000940808 0)
(-0.113308 0.000843415 0)
(-0.121305 0.000750622 0)
(-0.128338 0.000653542 0)
(-0.134416 0.000557921 0)
(-0.139554 0.000466419 0)
(-0.143753 0.000373173 0)
(-0.147052 0.000280581 0)
(-0.149475 0.000195237 0)
(-0.151046 0.000112648 0)
(-0.151835 3.68479e-05 0)
(-0.151812 -4.06717e-05 0)
(-0.150983 -0.00011724 0)
(-0.149431 -0.000188676 0)
(-0.147164 -0.000257814 0)
(-0.144208 -0.000326228 0)
(-0.140571 -0.000391831 0)
(-0.136256 -0.000460349 0)
(-0.13129 -0.000524801 0)
(-0.125662 -0.00058899 0)
(-0.119356 -0.000658346 0)
(-0.112379 -0.000722769 0)
(-0.104721 -0.000788777 0)
(-0.0963729 -0.000862893 0)
(-0.0873247 -0.0009291 0)
(-0.0775578 -0.0010066 0)
(-0.0670628 -0.0010746 0)
(-0.0558362 -0.00114265 0)
(-0.0438628 -0.00122452 0)
(-0.0311062 -0.00129113 0)
(-0.0177092 -0.00135519 0)
(-0.00372177 -0.00143115 0)
(0.0109364 -0.00148422 0)
(0.0261927 -0.00152838 0)
(0.0419474 -0.0015876 0)
(0.0581004 -0.00161158 0)
(0.074531 -0.00164825 0)
(0.0911018 -0.00164511 0)
(0.107643 -0.00162347 0)
(0.123981 -0.00161062 0)
(0.139929 -0.00155256 0)
(0.155272 -0.00147323 0)
(0.169793 -0.00139497 0)
(0.183274 -0.00127371 0)
(0.195492 -0.00114738 0)
(0.206235 -0.000985073 0)
(0.215295 -0.000805825 0)
(0.222489 -0.00061598 0)
(0.227662 -0.000407489 0)
(0.230701 -0.000189234 0)
(0.231484 3.53983e-05 0)
(0.230088 0.000262508 0)
(0.226308 0.000489129 0)
(0.220286 0.000707991 0)
(0.212096 0.000920266 0)
(0.201861 0.0011049 0)
(0.189767 0.00128596 0)
(0.173991 0.00144911 0)
(-0.122727 0.00295519 0)
(-0.130589 0.00265279 0)
(-0.139057 0.00237908 0)
(-0.146592 0.00211146 0)
(-0.153236 0.00184415 0)
(-0.15902 0.00159596 0)
(-0.163977 0.0013517 0)
(-0.168139 0.00112181 0)
(-0.171535 0.000898954 0)
(-0.174194 0.000681131 0)
(-0.176149 0.000468916 0)
(-0.177397 0.000266711 0)
(-0.177978 7.95637e-05 0)
(-0.177899 -0.000128419 0)
(-0.177128 -0.000331335 0)
(-0.175694 -0.000530666 0)
(-0.173581 -0.000732076 0)
(-0.17078 -0.000939801 0)
(-0.167279 -0.00115104 0)
(-0.163055 -0.00136728 0)
(-0.158079 -0.00160015 0)
(-0.152322 -0.00183424 0)
(-0.145748 -0.0020769 0)
(-0.13832 -0.0023476 0)
(-0.129999 -0.0026101 0)
(-0.120749 -0.00290882 0)
(-0.110543 -0.00318615 0)
(-0.0993544 -0.00346485 0)
(-0.0871613 -0.00379349 0)
(-0.073959 -0.00406664 0)
(-0.0597711 -0.0043275 0)
(-0.0445882 -0.00464747 0)
(-0.0284888 -0.00488559 0)
(-0.0116936 -0.00514704 0)
(0.0057126 -0.00530058 0)
(0.0236849 -0.00540199 0)
(0.0420881 -0.00555944 0)
(0.0607335 -0.00556022 0)
(0.0793796 -0.00548645 0)
(0.0977938 -0.00543884 0)
(0.115741 -0.00523003 0)
(0.132971 -0.00501432 0)
(0.149228 -0.00466205 0)
(0.164249 -0.0042339 0)
(0.17778 -0.00377198 0)
(0.189606 -0.0032232 0)
(0.199525 -0.00260945 0)
(0.207344 -0.00197298 0)
(0.21298 -0.00129081 0)
(0.216272 -0.00056701 0)
(0.217123 0.000112604 0)
(0.215609 0.000844991 0)
(0.211581 0.00151457 0)
(0.205287 0.00216807 0)
(0.196791 0.00282851 0)
(0.186274 0.00336662 0)
(0.173905 0.00390161 0)
(0.159859 0.00438664 0)
(0.144381 0.0047306 0)
(0.127735 0.00505972 0)
(0.110205 0.00526233 0)
(0.0919842 0.0054411 0)
(0.073361 0.00554623 0)
(0.0545466 0.00555152 0)
(0.0356226 0.00551115 0)
(0.0172213 0.00545325 0)
(-0.00041736 0.00528429 0)
(-0.0176797 0.0051171 0)
(-0.0344745 0.0048984 0)
(-0.0506093 0.00467866 0)
(-0.0659426 0.00441006 0)
(-0.0803851 0.00414197 0)
(-0.0938938 0.00387006 0)
(-0.106391 0.00355381 0)
(-0.117896 0.00326265 0)
(-0.128407 0.00296306 0)
(-0.137955 0.00265387 0)
(-0.146525 0.00238919 0)
(-0.153997 0.00208157 0)
(-0.160528 0.00179721 0)
(-0.166201 0.00152883 0)
(-0.170849 0.00123472 0)
(-0.174587 0.000972009 0)
(-0.1775 0.000720376 0)
(-0.17954 0.000442738 0)
(-0.180686 0.000216986 0)
(-0.181035 1.55291e-06 0)
(-0.180568 -0.0002494 0)
(-0.179392 -0.000462759 0)
(-0.177489 -0.00068494 0)
(-0.174933 -0.000886642 0)
(-0.17172 -0.00102934 0)
(-0.16789 -0.00122547 0)
(-0.163455 -0.00142173 0)
(-0.158438 -0.00159434 0)
(-0.152679 -0.00181002 0)
(-0.146242 -0.00199276 0)
(-0.1393 -0.00216441 0)
(-0.131567 -0.00241239 0)
(-0.123088 -0.00264994 0)
(-0.113982 -0.00279921 0)
(-0.103972 -0.00309913 0)
(-0.0931367 -0.00336962 0)
(-0.0814612 -0.00361053 0)
(-0.0688247 -0.00388405 0)
(-0.0553177 -0.00413534 0)
(-0.0410486 -0.00437271 0)
(-0.0259442 -0.00458346 0)
(-0.010117 -0.00478769 0)
(0.0062681 -0.00494985 0)
(0.0231626 -0.0050841 0)
(0.0404124 -0.00518897 0)
(0.0579242 -0.00522481 0)
(0.0754932 -0.0052101 0)
(0.0929267 -0.00514438 0)
(0.110008 -0.00500793 0)
(0.126509 -0.00479795 0)
(0.142177 -0.004508 0)
(0.156732 -0.00414185 0)
(0.169907 -0.00370249 0)
(0.181478 -0.0031816 0)
(0.191225 -0.00259352 0)
(0.1989 -0.00195084 0)
(0.204316 -0.00127248 0)
(0.207378 -0.000564419 0)
(0.208056 0.000154953 0)
(0.206297 0.000884862 0)
(0.202013 0.00160567 0)
(0.195484 0.00228649 0)
(0.186735 0.00290963 0)
(0.175949 0.0034911 0)
(0.163337 0.00400572 0)
(0.149117 0.00444524 0)
(0.13354 0.00480715 0)
(0.11687 0.00509548 0)
(0.0993841 0.00530934 0)
(0.081289 0.00545397 0)
(0.0628229 0.00552399 0)
(0.044241 0.00552335 0)
(0.0257909 0.00545736 0)
(0.00767509 0.00533795 0)
(-0.0100189 0.00518442 0)
(-0.0270929 0.00497448 0)
(-0.0434001 0.0047368 0)
(-0.058911 0.00446469 0)
(-0.0734188 0.00415933 0)
(-0.0867452 0.0038212 0)
(-0.0990561 0.00352043 0)
(-0.110402 0.00323401 0)
(-0.120771 0.00289287 0)
(-0.130058 0.00261658 0)
(-0.138186 0.002294 0)
(-0.145529 0.00205128 0)
(-0.152001 0.00176175 0)
(-0.157369 0.00145808 0)
(-0.161919 0.00123628 0)
(-0.165624 0.000987275 0)
(-0.1685 0.000741902 0)
(-0.170699 0.000550031 0)
(-0.172151 0.000319257 0)
(-0.172902 0.00014151 0)
(-0.17307 -6.16686e-05 0)
(-0.172522 -0.000237247 0)
(-0.171351 -0.000440563 0)
(-0.169572 -0.000621052 0)
(-0.167153 -0.000812139 0)
(-0.164128 -0.000983226 0)
(-0.160515 -0.00117961 0)
(-0.156208 -0.00138452 0)
(-0.151202 -0.00156635 0)
(-0.145612 -0.0017648 0)
(-0.139309 -0.00201577 0)
(-0.132156 -0.00221323 0)
(-0.124311 -0.00242829 0)
(-0.115668 -0.00271097 0)
(-0.10626 -0.00291547 0)
(-0.0959479 -0.00323709 0)
(-0.084521 -0.00354525 0)
(-0.0722595 -0.00377077 0)
(-0.0591144 -0.00403802 0)
(-0.0450747 -0.00432049 0)
(-0.0301437 -0.00453553 0)
(-0.0144019 -0.00477966 0)
(0.0019982 -0.00497126 0)
(0.0190467 -0.00514562 0)
(0.036592 -0.00527624 0)
(0.0544447 -0.00534686 0)
(0.0724386 -0.00535891 0)
(0.0903717 -0.00529067 0)
(0.107963 -0.00516182 0)
(0.124992 -0.00496548 0)
(0.141214 -0.00468413 0)
(0.156397 -0.00433037 0)
(0.170271 -0.0039028 0)
(0.182585 -0.00340465 0)
(0.193106 -0.00284712 0)
(0.201652 -0.00224103 0)
(0.208075 -0.00158024 0)
(0.212249 -0.000890977 0)
(0.214038 -0.00019334 0)
(0.213512 0.000515185 0)
(0.210498 0.00123152 0)
(0.205186 0.00190896 0)
(0.197683 0.0025574 0)
(0.188077 0.00314691 0)
(0.176552 0.00368299 0)
(0.163351 0.00416138 0)
(0.148684 0.00456168 0)
(0.132788 0.00488458 0)
(0.115928 0.00512912 0)
(0.0983535 0.005324 0)
(0.0802842 0.00542751 0)
(0.0619943 0.00546051 0)
(0.0436773 0.00543999 0)
(0.0254611 0.00537658 0)
(0.00762691 0.00523959 0)
(-0.0096429 0.00505466 0)
(-0.0263336 0.00485916 0)
(-0.0422443 0.00462481 0)
(-0.0573 0.00433891 0)
(-0.0714538 0.00407902 0)
(-0.0845683 0.00376217 0)
(-0.0968134 0.00347685 0)
(-0.108 0.00315411 0)
(-0.117877 0.00277671 0)
(-0.126719 0.00247745 0)
(-0.134509 0.00216591 0)
(-0.141273 0.00186427 0)
(-0.147111 0.00158526 0)
(-0.151823 0.0012514 0)
(-0.155605 0.00100786 0)
(-0.158611 0.000755033 0)
(-0.160691 0.00048758 0)
(-0.161908 0.000252444 0)
(-0.162441 4.3242e-05 0)
(-0.162278 -0.000148381 0)
(-0.161398 -0.000351828 0)
(-0.159868 -0.000535989 0)
(-0.157748 -0.000705941 0)
(-0.155132 -0.000867713 0)
(-0.151993 -0.00103814 0)
(-0.14818 -0.00119403 0)
(-0.143828 -0.00136015 0)
(-0.139056 -0.00150112 0)
(-0.133687 -0.00170399 0)
(-0.127748 -0.00185568 0)
(-0.121054 -0.00211225 0)
(-0.113492 -0.0023324 0)
(-0.105367 -0.00253557 0)
(-0.0964325 -0.00280405 0)
(-0.0864503 -0.00308477 0)
(-0.0756151 -0.00337358 0)
(-0.063859 -0.00362386 0)
(-0.051237 -0.0038939 0)
(-0.0376073 -0.0042301 0)
(-0.0228659 -0.00450423 0)
(-0.00727799 -0.00474618 0)
(0.00911996 -0.00500449 0)
(0.0262881 -0.00519119 0)
(0.0439951 -0.00533941 0)
(0.0621104 -0.0054341 0)
(0.0804656 -0.00548102 0)
(0.0988491 -0.00544132 0)
(0.116972 -0.00532602 0)
(0.134577 -0.00512699 0)
(0.151396 -0.00484937 0)
(0.16715 -0.00449152 0)
(0.181558 -0.00405751 0)
(0.194379 -0.00354423 0)
(0.205359 -0.00296183 0)
(0.214279 -0.00234477 0)
(0.22107 -0.00165522 0)
(0.225581 -0.000957265 0)
(0.227707 -0.00026049 0)
(0.227502 0.000432391 0)
(0.224881 0.00114762 0)
(0.220014 0.00178936 0)
(0.212998 0.00241394 0)
(0.203991 0.00298676 0)
(0.193193 0.00347256 0)
(0.18074 0.00392988 0)
(0.166942 0.00429427 0)
(0.15195 0.00460754 0)
(0.135992 0.00488271 0)
(0.119355 0.00506023 0)
(0.10213 0.00519282 0)
(0.0845814 0.00526351 0)
(0.067002 0.00524972 0)
(0.0493975 0.00519392 0)
(0.0321423 0.00510315 0)
(0.0152845 0.00500256 0)
(-0.000890009 0.00480824 0)
(-0.0163257 0.00462104 0)
(-0.0313708 0.00442215 0)
(-0.0456885 0.00418587 0)
(-0.0592124 0.00392371 0)
(-0.0718961 0.00367134 0)
(-0.0836598 0.003393 0)
(-0.0944925 0.00310661 0)
(-0.104394 0.00282246 0)
(-0.113345 0.00253175 0)
(-0.121343 0.00225047 0)
(-0.128375 0.00196114 0)
(-0.134453 0.00167522 0)
(-0.139592 0.0013983 0)
(-0.143791 0.00111922 0)
(-0.147088 0.000842847 0)
(-0.149511 0.000586661 0)
(-0.151082 0.000337744 0)
(-0.151867 0.000111463 0)
(-0.151844 -0.000121938 0)
(-0.151015 -0.000351772 0)
(-0.149462 -0.000565792 0)
(-0.147193 -0.000773137 0)
(-0.144237 -0.000978963 0)
(-0.1406 -0.0011754 0)
(-0.136285 -0.00138083 0)
(-0.131319 -0.00157446 0)
(-0.125691 -0.00176688 0)
(-0.119386 -0.00197492 0)
(-0.112409 -0.00216821 0)
(-0.104751 -0.00236616 0)
(-0.0964036 -0.00258861 0)
(-0.0873557 -0.00278723 0)
(-0.0775896 -0.00301974 0)
(-0.0670947 -0.00322379 0)
(-0.0558682 -0.00342793 0)
(-0.0438949 -0.00367362 0)
(-0.0311378 -0.00387347 0)
(-0.0177389 -0.00406579 0)
(-0.0037497 -0.00429332 0)
(0.0109108 -0.00445291 0)
(0.0261706 -0.0045855 0)
(0.041929 -0.00476318 0)
(0.058087 -0.00483521 0)
(0.0745231 -0.00494538 0)
(0.0911003 -0.00493602 0)
(0.107649 -0.00487113 0)
(0.123995 -0.00483273 0)
(0.139951 -0.00465863 0)
(0.155301 -0.0044206 0)
(0.169832 -0.00418575 0)
(0.183322 -0.00382201 0)
(0.19555 -0.00344303 0)
(0.2063 -0.00295604 0)
(0.215367 -0.00241819 0)
(0.222569 -0.00184853 0)
(0.227746 -0.00122281 0)
(0.230788 -0.000567046 0)
(0.231578 0.000105922 0)
(0.230179 0.000787036 0)
(0.226395 0.00146756 0)
(0.220371 0.00212427 0)
(0.212177 0.00276138 0)
(0.201934 0.0033154 0)
(0.189833 0.0038587 0)
(0.174047 0.00434826 0)
(-0.122804 0.00492505 0)
(-0.130664 0.00442099 0)
(-0.13913 0.00396478 0)
(-0.146662 0.00351873 0)
(-0.153303 0.00307319 0)
(-0.159085 0.00265953 0)
(-0.164039 0.00225252 0)
(-0.168199 0.00186942 0)
(-0.171593 0.00149804 0)
(-0.17425 0.00113514 0)
(-0.176202 0.000781659 0)
(-0.177451 0.000443405 0)
(-0.178032 0.00013173 0)
(-0.177952 -0.000214362 0)
(-0.177181 -0.000552212 0)
(-0.175747 -0.00088437 0)
(-0.173635 -0.0012199 0)
(-0.170836 -0.00156602 0)
(-0.167336 -0.00191797 0)
(-0.163114 -0.00227836 0)
(-0.158141 -0.00266644 0)
(-0.152386 -0.00305656 0)
(-0.145815 -0.00346103 0)
(-0.138391 -0.00391218 0)
(-0.130072 -0.00434972 0)
(-0.120825 -0.00484766 0)
(-0.11062 -0.00530988 0)
(-0.0994324 -0.00577471 0)
(-0.0872406 -0.00632259 0)
(-0.0740362 -0.00677807 0)
(-0.0598449 -0.00721312 0)
(-0.0446606 -0.00774694 0)
(-0.0285517 -0.00814268 0)
(-0.0117458 -0.00858086 0)
(0.00566872 -0.00883582 0)
(0.023653 -0.00900546 0)
(0.042071 -0.00926856 0)
(0.0607332 -0.00926985 0)
(0.0793965 -0.00914712 0)
(0.0978314 -0.00906834 0)
(0.115798 -0.0087202 0)
(0.13305 -0.00836057 0)
(0.149327 -0.00777328 0)
(0.164366 -0.00705975 0)
(0.177916 -0.00628897 0)
(0.189758 -0.00537459 0)
(0.19969 -0.00435053 0)
(0.207521 -0.00329028 0)
(0.213162 -0.00215409 0)
(0.216465 -0.000946567 0)
(0.217319 0.000184043 0)
(0.215776 0.00141045 0)
(0.211754 0.00252361 0)
(0.205455 0.00361438 0)
(0.19695 0.00471599 0)
(0.186418 0.00561374 0)
(0.174033 0.00650522 0)
(0.159969 0.00731367 0)
(0.144471 0.00788729 0)
(0.127806 0.00843594 0)
(0.110257 0.00877317 0)
(0.0920176 0.00907241 0)
(0.073376 0.00924633 0)
(0.0545428 0.00925611 0)
(0.0356061 0.00918669 0)
(0.0171914 0.00909318 0)
(-0.00046147 0.00880877 0)
(-0.0177296 0.00853216 0)
(-0.0345334 0.00816695 0)
(-0.0506779 0.00779871 0)
(-0.0660147 0.00735262 0)
(-0.080458 0.00690348 0)
(-0.0939752 0.00645119 0)
(-0.106477 0.00592116 0)
(-0.117977 0.00543859 0)
(-0.128491 0.00493964 0)
(-0.138037 0.00442479 0)
(-0.146606 0.00398373 0)
(-0.154079 0.00347432 0)
(-0.160613 0.00299288 0)
(-0.166282 0.00255662 0)
(-0.170932 0.00205856 0)
(-0.174665 0.0016197 0)
(-0.177584 0.00120108 0)
(-0.179624 0.000741594 0)
(-0.180761 0.000359424 0)
(-0.18111 -3.265e-06 0)
(-0.180636 -0.000426738 0)
(-0.179451 -0.000778251 0)
(-0.177548 -0.00114011 0)
(-0.17498 -0.00147155 0)
(-0.171779 -0.00172011 0)
(-0.167946 -0.00203713 0)
(-0.163503 -0.00236807 0)
(-0.158504 -0.00265848 0)
(-0.152738 -0.00301115 0)
(-0.146293 -0.0033189 0)
(-0.139375 -0.00361596 0)
(-0.131645 -0.00401475 0)
(-0.123152 -0.00440654 0)
(-0.114052 -0.00465919 0)
(-0.104075 -0.00518721 0)
(-0.0932389 -0.00561591 0)
(-0.0815712 -0.00602099 0)
(-0.0689086 -0.00647137 0)
(-0.0553809 -0.00688471 0)
(-0.0411283 -0.0072952 0)
(-0.0260235 -0.00764304 0)
(-0.0101846 -0.00797525 0)
(0.00620742 -0.00825299 0)
(0.0231142 -0.00846871 0)
(0.040381 -0.00863966 0)
(0.0578876 -0.00873038 0)
(0.0754772 -0.00869154 0)
(0.0929359 -0.0085777 0)
(0.110035 -0.00835247 0)
(0.126555 -0.00800077 0)
(0.142244 -0.007517 0)
(0.156828 -0.00690266 0)
(0.17003 -0.00616934 0)
(0.181623 -0.00529735 0)
(0.191377 -0.00432379 0)
(0.199055 -0.00326577 0)
(0.204485 -0.0021309 0)
(0.207564 -0.000942823 0)
(0.208243 0.000261029 0)
(0.206456 0.00147369 0)
(0.202186 0.0026763 0)
(0.195647 0.00381336 0)
(0.186889 0.00485704 0)
(0.176083 0.00582154 0)
(0.163453 0.00667505 0)
(0.149217 0.00741813 0)
(0.13361 0.00800925 0)
(0.116925 0.00849214 0)
(0.0994192 0.00885402 0)
(0.0813012 0.00908729 0)
(0.0628252 0.00920955 0)
(0.0442226 0.00921341 0)
(0.0257504 0.00910122 0)
(0.00761116 0.00889314 0)
(-0.0100915 0.00863424 0)
(-0.0271631 0.008293 0)
(-0.0434833 0.00789961 0)
(-0.0590041 0.00743829 0)
(-0.0735154 0.0069406 0)
(-0.0868525 0.00637118 0)
(-0.0991506 0.00585919 0)
(-0.110498 0.00539161 0)
(-0.120873 0.00482681 0)
(-0.130166 0.00435226 0)
(-0.138275 0.00382669 0)
(-0.14562 0.00340872 0)
(-0.152093 0.00294219 0)
(-0.157451 0.00243369 0)
(-0.161998 0.00205814 0)
(-0.165705 0.00164663 0)
(-0.168571 0.00123183 0)
(-0.170777 0.000920029 0)
(-0.17223 0.000524811 0)
(-0.17297 0.000232156 0)
(-0.173114 -9.92826e-05 0)
(-0.172564 -0.00039997 0)
(-0.171404 -0.000732207 0)
(-0.169632 -0.00104304 0)
(-0.167192 -0.00134313 0)
(-0.164178 -0.0016368 0)
(-0.160585 -0.00196755 0)
(-0.156269 -0.00230739 0)
(-0.151258 -0.00261504 0)
(-0.14569 -0.00294935 0)
(-0.139388 -0.00335907 0)
(-0.132228 -0.00369193 0)
(-0.124393 -0.00404423 0)
(-0.115736 -0.00451299 0)
(-0.106336 -0.00485745 0)
(-0.096045 -0.00538899 0)
(-0.0846145 -0.00590209 0)
(-0.072345 -0.00628153 0)
(-0.0592161 -0.0067342 0)
(-0.0451562 -0.00720315 0)
(-0.0302339 -0.00757267 0)
(-0.0144861 -0.00797952 0)
(0.00193452 -0.00827691 0)
(0.0189807 -0.00858384 0)
(0.036548 -0.00879474 0)
(0.0544211 -0.00891174 0)
(0.0724268 -0.00893149 0)
(0.0903648 -0.00883496 0)
(0.10799 -0.00860427 0)
(0.125045 -0.00827583 0)
(0.141291 -0.00780744 0)
(0.156489 -0.00721959 0)
(0.170378 -0.00651072 0)
(0.182706 -0.00568414 0)
(0.193241 -0.00475456 0)
(0.20181 -0.00374167 0)
(0.208254 -0.00262365 0)
(0.212423 -0.00149095 0)
(0.214224 -0.000317495 0)
(0.213676 0.000853032 0)
(0.210663 0.00205473 0)
(0.205356 0.00318817 0)
(0.197833 0.00425959 0)
(0.188209 0.00524185 0)
(0.176679 0.00614364 0)
(0.163457 0.0069462 0)
(0.14876 0.00759932 0)
(0.132853 0.00814156 0)
(0.115982 0.00856238 0)
(0.0983747 0.0088675 0)
(0.0802824 0.00904561 0)
(0.0619879 0.00910484 0)
(0.0436603 0.00907462 0)
(0.0254181 0.00895996 0)
(0.00756224 0.0087329 0)
(-0.00971097 0.00842651 0)
(-0.0264038 0.00810253 0)
(-0.0423319 0.00770556 0)
(-0.0573936 0.00722995 0)
(-0.0715506 0.00679769 0)
(-0.0846584 0.00627705 0)
(-0.0969085 0.00579017 0)
(-0.108109 0.0052584 0)
(-0.117982 0.00463017 0)
(-0.126817 0.00412975 0)
(-0.134604 0.00360984 0)
(-0.141376 0.00310157 0)
(-0.147216 0.00263948 0)
(-0.151914 0.0020896 0)
(-0.15569 0.00167319 0)
(-0.158696 0.0012579 0)
(-0.160774 0.000811064 0)
(-0.161989 0.000422321 0)
(-0.162511 7.27099e-05 0)
(-0.162341 -0.000252784 0)
(-0.161458 -0.000583698 0)
(-0.159918 -0.000899172 0)
(-0.157786 -0.00117683 0)
(-0.155175 -0.00144609 0)
(-0.152051 -0.00172307 0)
(-0.148242 -0.00199979 0)
(-0.14387 -0.00226602 0)
(-0.1391 -0.00249184 0)
(-0.133733 -0.00283053 0)
(-0.127813 -0.00309743 0)
(-0.121132 -0.00351622 0)
(-0.113561 -0.00389833 0)
(-0.105441 -0.00423459 0)
(-0.0965172 -0.0046587 0)
(-0.0865388 -0.005138 0)
(-0.0757259 -0.00563812 0)
(-0.0639722 -0.00604104 0)
(-0.0513428 -0.00649043 0)
(-0.0376893 -0.0070375 0)
(-0.022949 -0.0075153 0)
(-0.0073694 -0.00792261 0)
(0.00904748 -0.00832827 0)
(0.0262153 -0.00866459 0)
(0.0439378 -0.00890802 0)
(0.0620714 -0.00906004 0)
(0.0804524 -0.00912237 0)
(0.0988427 -0.00907883 0)
(0.116992 -0.00888601 0)
(0.134624 -0.00854745 0)
(0.151465 -0.00808542 0)
(0.167238 -0.00749365 0)
(0.181675 -0.0067579 0)
(0.194515 -0.00590176 0)
(0.205506 -0.00493637 0)
(0.21444 -0.00391354 0)
(0.221237 -0.00277454 0)
(0.22576 -0.00158747 0)
(0.227889 -0.000431264 0)
(0.22767 0.000721251 0)
(0.225038 0.00191639 0)
(0.220169 0.00298165 0)
(0.213146 0.00402096 0)
(0.204124 0.00498076 0)
(0.193312 0.00579003 0)
(0.18085 0.00655538 0)
(0.167029 0.0071587 0)
(0.152024 0.00768587 0)
(0.13605 0.00814028 0)
(0.119393 0.00843664 0)
(0.102154 0.00865512 0)
(0.08459 0.00877467 0)
(0.0669912 0.00875296 0)
(0.0493777 0.00866061 0)
(0.0321172 0.00850863 0)
(0.0152423 0.00833967 0)
(-0.000941498 0.00801483 0)
(-0.0163771 0.00770282 0)
(-0.0314295 0.00737331 0)
(-0.0457563 0.00697841 0)
(-0.0592803 0.00654318 0)
(-0.0719669 0.00612416 0)
(-0.0837346 0.00565704 0)
(-0.0945681 0.005176 0)
(-0.104471 0.00470614 0)
(-0.113421 0.00421869 0)
(-0.121418 0.00375193 0)
(-0.128451 0.0032693 0)
(-0.134528 0.00279158 0)
(-0.139665 0.00233069 0)
(-0.143863 0.00186653 0)
(-0.147157 0.00140694 0)
(-0.149578 0.000976988 0)
(-0.151151 0.000562649 0)
(-0.151931 0.000184711 0)
(-0.151904 -0.000204038 0)
(-0.151074 -0.00058678 0)
(-0.149518 -0.000942847 0)
(-0.147247 -0.00128819 0)
(-0.14429 -0.00163273 0)
(-0.140653 -0.00195907 0)
(-0.136338 -0.00230102 0)
(-0.131371 -0.00262464 0)
(-0.125743 -0.00294476 0)
(-0.119439 -0.00329144 0)
(-0.112463 -0.00361358 0)
(-0.104806 -0.00394329 0)
(-0.0964588 -0.00431427 0)
(-0.0874113 -0.0046453 0)
(-0.0776469 -0.00503281 0)
(-0.0671524 -0.00537295 0)
(-0.0559258 -0.00571323 0)
(-0.0439532 -0.00612282 0)
(-0.0311949 -0.00645587 0)
(-0.0177923 -0.00677702 0)
(-0.00379974 -0.00715583 0)
(0.0108652 -0.00742243 0)
(0.0261316 -0.00764374 0)
(0.0418975 -0.00794014 0)
(0.0580651 -0.00806037 0)
(0.0745121 -0.00824437 0)
(0.0911019 -0.00822892 0)
(0.107664 -0.00812097 0)
(0.124026 -0.00805725 0)
(0.139998 -0.00776725 0)
(0.155365 -0.00737053 0)
(0.169915 -0.00697917 0)
(0.18342 -0.00637286 0)
(0.195668 -0.00574117 0)
(0.206433 -0.00492928 0)
(0.215513 -0.00403252 0)
(0.222729 -0.00308259 0)
(0.227914 -0.00203921 0)
(0.230963 -0.000945996 0)
(0.231769 0.0001756 0)
(0.230354 0.00131349 0)
(0.226569 0.00244603 0)
(0.22054 0.00354161 0)
(0.212338 0.00460429 0)
(0.202079 0.00552805 0)
(0.189965 0.00643398 0)
(0.174159 0.00725028 0)
(-0.12292 0.00689453 0)
(-0.130776 0.0061887 0)
(-0.13924 0.00554993 0)
(-0.146768 0.00492541 0)
(-0.153405 0.00430163 0)
(-0.159183 0.00372251 0)
(-0.164132 0.0031528 0)
(-0.168289 0.00261655 0)
(-0.171681 0.00209674 0)
(-0.174334 0.00158899 0)
(-0.17628 0.00109536 0)
(-0.177528 0.000621913 0)
(-0.178116 0.000175771 0)
(-0.178033 -0.000301986 0)
(-0.177261 -0.000772989 0)
(-0.175827 -0.00123805 0)
(-0.173716 -0.00170743 0)
(-0.170919 -0.00219179 0)
(-0.167422 -0.00268433 0)
(-0.163202 -0.0031888 0)
(-0.158233 -0.00373202 0)
(-0.152483 -0.00427812 0)
(-0.145916 -0.00484446 0)
(-0.138496 -0.00547603 0)
(-0.130181 -0.00608869 0)
(-0.12094 -0.00678594 0)
(-0.110737 -0.00743312 0)
(-0.0995494 -0.00808451 0)
(-0.0873596 -0.00885174 0)
(-0.0741522 -0.00948995 0)
(-0.0599557 -0.0100995 0)
(-0.0447693 -0.0108475 0)
(-0.0286462 -0.0113998 0)
(-0.0118243 -0.0120185 0)
(0.00560282 -0.0123741 0)
(0.023605 -0.0126124 0)
(0.0420454 -0.0129819 0)
(0.0607324 -0.0129841 0)
(0.0794215 -0.0128125 0)
(0.0978879 -0.0127028 0)
(0.115883 -0.0122155 0)
(0.133169 -0.0117126 0)
(0.149475 -0.0108902 0)
(0.164541 -0.00989146 0)
(0.178121 -0.00881124 0)
(0.189986 -0.00753104 0)
(0.199939 -0.00609693 0)
(0.207786 -0.00461235 0)
(0.213441 -0.00301771 0)
(0.216753 -0.00133392 0)
(0.217598 0.00026785 0)
(0.216032 0.00197756 0)
(0.212014 0.00353152 0)
(0.205706 0.00506272 0)
(0.197187 0.00660642 0)
(0.186632 0.00786507 0)
(0.174223 0.009113 0)
(0.160132 0.0102447 0)
(0.144606 0.0110485 0)
(0.127912 0.0118166 0)
(0.110334 0.0122892 0)
(0.0920653 0.0127091 0)
(0.0733962 0.0129506 0)
(0.0545357 0.0129636 0)
(0.0355819 0.0128666 0)
(0.0171459 0.0127378 0)
(-0.000527973 0.0123366 0)
(-0.0178093 0.011949 0)
(-0.0346228 0.0114376 0)
(-0.0507812 0.0109219 0)
(-0.0661255 0.0102926 0)
(-0.0805671 0.00966608 0)
(-0.0940984 0.00903608 0)
(-0.106601 0.0082922 0)