/*--------------------------------*- C++ -*----------------------------------*\
| =========                 |                                                 |
| \\      /  F ield         | OpenFOAM: The Open Source CFD Toolbox           |
|  \\    /   O peration     | Version:  3.0.1                                 |
|   \\  /    A nd           | Web:      www.OpenFOAM.org                      |
|    \\/     M anipulation  |                                                 |
\*---------------------------------------------------------------------------*/
FoamFile
{
    version     2.0;
    format      ascii;
    class       volScalarField;
    location    "32.4";
    object      p_rgh;
}
// * * * * * * * * * * * * * * * * * * * * * * * * * * * * * * * * * * * * * //

dimensions      [1 -1 -2 0 0 0 0];

internalField   nonuniform List<scalar> 
21420
(
200.241
168.002
134.545
100.193
65.3428
30.3308
-4.36982
-38.3253
-71.0633
-101.201
-131.089
-160.014
-187.499
-213.29
-237.26
-259.355
-279.558
-297.888
-314.381
-329.082
-342.048
-353.336
-363.003
-371.102
-377.684
-382.794
-386.471
-388.708
-389.514
-388.88
-386.849
-383.393
-378.491
-372.118
-364.226
-354.77
-343.714
-331.001
-316.568
-300.373
-282.368
-262.522
-240.819
-217.249
-191.851
-164.696
-135.893
-105.703
-75.2493
-42.7587
-9.1515
25.1236
59.7362
94.2982
128.418
161.725
193.815
224.275
252.735
278.821
302.186
322.517
339.528
352.981
362.68
368.483
370.258
368.004
361.68
351.321
337.113
319.265
298.021
273.672
246.578
217.125
185.728
152.822
118.836
84.2007
49.3269
14.6015
-19.5738
-52.0046
-84.1717
-114.994
-144.218
-171.689
-197.293
-220.943
-242.584
-262.192
-279.765
-295.319
-308.892
-320.541
-330.331
-338.342
-344.658
-349.361
-352.54
-354.281
-354.627
-353.614
-351.336
-347.789
-342.985
-336.918
-329.574
-320.926
-310.942
-299.586
-286.819
-272.6
-256.897
-239.682
-220.928
-200.621
-178.765
-155.371
-130.473
-104.118
-76.3829
-47.3714
-17.216
13.9195
45.794
78.1703
110.764
143.252
175.276
206.445
236.352
264.575
290.687
314.281
334.965
352.381
366.215
376.202
382.147
383.837
381.369
374.654
363.782
348.94
330.365
308.355
283.261
255.485
225.467
193.668
160.563
126.635
92.3561
58.1766
24.5125
-8.26873
-39.8566
-69.9989
-98.5041
-125.236
-150.106
-173.071
-194.124
-213.282
-230.593
-246.11
-259.907
-272.059
-282.649
-291.755
-299.446
-305.784
-310.824
-314.611
-317.196
-318.592
-318.785
-317.83
-315.736
-312.481
-308.045
-302.397
-295.496
-287.291
-277.72
-266.722
-254.23
-240.175
-224.495
-207.139
-188.06
-167.23
-144.647
-120.335
-94.3525
-66.794
-37.7968
-7.53817
23.774
55.8943
88.4659
121.186
153.697
185.613
216.536
246.05
273.742
299.201
322.036
341.879
358.405
371.336
380.446
385.58
386.587
383.589
376.55
365.602
350.955
332.864
311.637
287.627
261.221
232.82
202.839
171.689
139.772
107.475
75.1583
43.152
11.7531
-18.7824
-48.2365
-76.4322
-103.229
-128.516
-152.217
-174.277
-194.664
-213.361
-230.372
-245.708
-259.395
-271.462
-281.949
-290.895
-298.345
-304.341
-308.914
-312.115
-313.953
-314.42
-313.562
-311.391
-307.884
-303.034
-296.826
-289.241
-280.256
-269.846
-257.985
-244.649
-229.812
-213.461
-195.589
-176.192
-155.277
-132.867
-109.011
-83.7787
-57.2632
-29.5958
-0.991055
28.3453
62.2967
92.9833
123.942
154.845
185.283
214.886
243.264
270.014
294.766
317.137
336.771
353.353
366.582
376.222
382.07
383.991
381.927
375.844
365.848
352.073
334.783
314.245
290.817
264.88
236.848
207.145
176.207
144.466
112.33
80.1897
48.3726
17.6346
-11.7074
-40.4309
-68.0634
-94.3891
-119.275
-142.627
-164.396
-184.569
-203.148
-220.161
-235.636
-249.613
-262.13
-273.22
-282.909
-291.215
-298.148
-303.703
-307.871
-310.637
-311.941
-311.752
-310.056
-306.745
-301.812
-295.251
-287.015
-277.104
-265.49
-252.175
-237.165
-220.475
-202.132
-182.189
-160.713
-137.785
-113.52
-88.0397
-61.4948
-34.1094
-6.33702
19.9124
48.38
77.2294
105.959
134.249
161.828
188.261
213.174
200.29
168.032
134.558
100.188
65.3209
30.2929
-4.42372
-38.3959
-71.1436
-101.264
-131.159
-160.093
-187.584
-213.376
-237.346
-259.439
-279.64
-297.967
-314.457
-329.155
-342.117
-353.402
-363.066
-371.163
-377.743
-382.851
-386.526
-388.763
-389.569
-388.936
-386.905
-383.45
-378.55
-372.178
-364.288
-354.835
-343.782
-331.072
-316.641
-300.449
-282.446
-262.603
-240.902
-217.332
-191.934
-164.777
-135.968
-105.771
-75.3199
-42.8197
-9.20075
25.0865
59.7124
94.2891
128.424
161.748
193.856
224.334
252.81
278.913
302.293
322.639
339.662
353.125
362.834
368.649
370.413
368.156
361.83
351.465
337.247
319.386
298.126
273.76
246.647
217.175
185.758
152.833
118.83
84.1781
49.2894
14.5495
-19.6495
-52.0645
-84.2514
-115.08
-144.309
-171.783
-197.388
-221.038
-242.678
-262.285
-279.856
-295.407
-308.978
-320.622
-330.41
-338.417
-344.729
-349.429
-352.605
-354.343
-354.685
-353.672
-351.394
-347.846
-343.043
-336.977
-329.635
-320.988
-311.006
-299.652
-286.887
-272.671
-256.97
-239.757
-221.005
-200.7
-178.844
-155.451
-130.552
-104.196
-76.4584
-47.4434
-17.2824
13.86
45.743
78.1297
110.735
143.238
175.278
206.464
236.389
264.631
290.762
314.374
335.076
352.507
366.354
376.351
382.302
384.003
381.521
374.805
363.925
349.071
330.482
308.454
283.341
255.545
225.506
193.686
160.561
126.614
92.3179
58.1231
24.4463
-8.34527
-39.9408
-70.0884
-98.5965
-125.33
-150.199
-173.162
-194.212
-213.368
-230.675
-246.188
-259.981
-272.129
-282.715
-291.817
-299.506
-305.842
-310.879
-314.666
-317.249
-318.644
-318.835
-317.882
-315.788
-312.534
-308.099
-302.453
-295.555
-287.352
-277.785
-266.79
-254.301
-240.249
-224.573
-207.219
-188.143
-167.315
-144.733
-120.42
-94.4361
-66.8744
-37.8721
-7.60646
23.7143
55.8449
88.4288
121.163
153.689
185.622
216.562
246.095
273.805
299.282
322.135
341.994
358.534
371.476
380.594
385.733
386.748
383.736
376.693
365.737
351.077
332.972
311.727
287.7
261.275
232.856
202.858
171.69
139.758
107.447
75.1178
43.1009
11.6932
-18.8493
-48.3087
-76.5081
-103.307
-128.596
-152.297
-174.357
-194.743
-213.439
-230.448
-245.783
-259.467
-271.532
-282.016
-290.96
-298.408
-304.402
-308.975
-312.175
-314.012
-314.476
-313.621
-311.449
-307.943
-303.094
-296.886
-289.303
-280.32
-269.911
-258.052
-244.717
-229.882
-213.532
-195.662
-176.266
-155.35
-132.94
-109.083
-83.848
-57.3284
-29.6548
-1.04031
28.3061
62.2393
92.9409
123.916
154.835
185.288
214.908
243.303
270.071
294.84
317.228
336.879
353.475
366.717
376.367
382.224
384.154
382.079
375.992
365.99
352.205
334.901
314.346
290.9
264.944
236.893
207.171
176.215
144.457
112.306
80.1531
48.3256
17.5815
-11.7697
-40.498
-68.1342
-94.4623
-119.349
-142.701
-164.469
-184.64
-203.217
-220.227
-235.7
-249.674
-262.189
-273.277
-282.965
-291.271
-298.203
-303.758
-307.927
-310.694
-311.997
-311.813
-310.118
-306.808
-301.876
-295.317
-287.082
-277.172
-265.56
-252.245
-237.237
-220.546
-202.203
-182.258
-160.781
-137.85
-113.582
-88.0973
-61.5468
-34.1555
-6.3749
19.8756
48.3526
77.2136
105.956
134.258
161.851
188.298
213.223
200.388
168.093
134.582
100.178
65.2772
30.2172
-4.53147
-38.5374
-71.3053
-101.388
-131.3
-160.252
-187.753
-213.548
-237.517
-259.607
-279.803
-298.124
-314.608
-329.299
-342.255
-353.534
-363.192
-371.284
-377.861
-382.965
-386.636
-388.874
-389.679
-389.049
-387.017
-383.564
-378.666
-372.298
-364.412
-354.964
-343.917
-331.213
-316.787
-300.601
-282.603
-262.765
-241.066
-217.497
-192.098
-164.937
-136.118
-105.906
-75.4607
-42.9409
-9.29832
25.0134
59.6659
94.272
128.439
161.796
193.938
224.451
252.962
279.098
302.51
322.884
339.932
353.415
363.143
368.97
370.734
368.462
362.133
351.756
337.517
319.629
298.337
273.937
246.787
217.277
185.822
152.859
118.821
84.137
49.2191
14.4511
-19.7935
-52.1793
-84.4044
-115.246
-144.482
-171.961
-197.568
-221.218
-242.857
-262.461
-280.027
-295.573
-309.137
-320.774
-330.554
-338.554
-344.858
-349.551
-352.721
-354.454
-354.788
-353.775
-351.495
-347.947
-343.144
-337.08
-329.74
-321.097
-311.118
-299.769
-287.009
-272.797
-257.1
-239.89
-221.141
-200.839
-178.985
-155.593
-130.692
-104.333
-76.5911
-47.569
-17.397
13.7594
45.6595
78.0669
110.697
143.228
175.299
206.52
236.482
264.76
290.93
314.578
335.314
352.776
366.647
376.664
382.627
384.346
381.843
375.122
364.226
349.347
330.727
308.665
283.514
255.677
225.596
193.734
160.57
126.584
92.2534
58.0278
24.3253
-8.48699
-40.098
-70.256
-98.7702
-125.506
-150.374
-173.334
-194.379
-213.528
-230.827
-246.332
-260.117
-272.258
-282.836
-291.932
-299.614
-305.946
-310.98
-314.763
-317.344
-318.737
-318.924
-317.974
-315.881
-312.628
-308.196
-302.554
-295.66
-287.463
-277.901
-266.914
-254.431
-240.385
-224.716
-207.368
-188.297
-167.472
-144.891
-120.578
-94.5898
-67.0216
-38.0092
-7.72942
23.6084
55.7598
88.3683
121.13
153.686
185.653
216.628
246.198
273.945
299.458
322.346
342.237
358.804
371.768
380.902
386.049
387.078
384.042
376.992
366.017
351.332
333.196
311.918
287.854
261.393
232.938
202.903
171.702
139.739
107.4
75.0457
43.0076
11.5824
-18.9741
-48.444
-76.6509
-103.454
-128.746
-152.448
-174.508
-194.892
-213.585
-230.591
-245.922
-259.601
-271.662
-282.142
-291.081
-298.525
-304.516
-309.086
-312.283
-314.117
-314.579
-313.727
-311.555
-308.05
-303.203
-296.997
-289.416
-280.436
-270.03
-258.174
-244.843
-230.01
-213.664
-195.796
-176.401
-155.486
-133.075
-109.216
-83.9768
-57.4498
-29.7643
-1.13065
28.2364
62.1301
92.8623
123.869
154.818
185.302
214.956
243.384
270.187
294.991
317.414
337.097
353.722
366.989
376.66
382.532
384.481
382.385
376.289
366.274
352.47
335.137
314.55
291.067
265.072
236.982
207.223
176.231
144.439
112.259
80.0798
48.2318
17.4753
-11.8944
-40.6322
-68.276
-94.6088
-119.498
-142.85
-164.615
-184.782
-203.355
-220.36
-235.827
-249.796
-262.307
-273.391
-283.077
-291.381
-298.313
-303.868
-308.038
-310.807
-312.11
-311.934
-310.24
-306.932
-302.005
-295.448
-287.217
-277.309
-265.699
-252.387
-237.379
-220.689
-202.345
-182.398
-160.917
-137.981
-113.706
-88.2124
-61.6506
-34.2474
-6.44989
19.8014
48.2977
77.1818
105.949
134.277
161.897
188.371
213.322
200.534
168.184
134.619
100.162
65.2115
30.1035
-4.69305
-38.7502
-71.551
-101.573
-131.511
-160.491
-188.006
-213.807
-237.774
-259.859
-280.048
-298.36
-314.834
-329.516
-342.462
-353.733
-363.382
-371.467
-378.037
-383.136
-386.802
-389.037
-389.847
-389.219
-387.184
-383.735
-378.84
-372.478
-364.599
-355.158
-344.12
-331.424
-317.007
-300.829
-282.839
-263.007
-241.313
-217.745
-192.344
-165.177
-136.344
-106.107
-75.6727
-43.123
-9.44481
24.9034
59.5958
94.246
128.46
161.867
194.062
224.627
253.19
279.376
302.835
323.251
340.336
353.85
363.603
369.441
371.224
368.927
362.588
352.192
337.922
319.994
298.655
274.202
246.996
217.43
185.917
152.898
118.808
84.0755
49.1139
14.3049
-20.0057
-52.3545
-84.6343
-115.495
-144.742
-172.227
-197.837
-221.488
-243.124
-262.723
-280.282
-295.82
-309.374
-321.001
-330.769
-338.757
-345.05
-349.733
-352.893
-354.617
-354.942
-353.928
-351.645
-348.096
-343.294
-337.233
-329.897
-321.258
-311.286
-299.943
-287.189
-272.983
-257.293
-240.089
-221.344
-201.046
-179.195
-155.803
-130.9
-104.538
-76.7881
-47.7552
-17.567
13.6108
45.5364
77.9749
110.642
143.215
175.334
206.606
236.623
264.958
291.184
314.887
335.674
353.181
367.091
377.137
383.117
384.859
382.334
375.6
364.679
349.764
331.099
308.984
283.775
255.877
225.733
193.809
160.584
126.541
92.1581
57.8863
24.1452
-8.69812
-40.3324
-70.5061
-99.0294
-125.768
-150.635
-173.59
-194.627
-213.766
-231.054
-246.547
-260.32
-272.449
-283.017
-292.103
-299.776
-306.1
-311.129
-314.907
-317.485
-318.873
-319.059
-318.111
-316.018
-312.767
-308.339
-302.703
-295.817
-287.627
-278.075
-267.097
-254.624
-240.589
-224.929
-207.59
-188.526
-167.706
-145.127
-120.813
-94.819
-67.2411
-38.2134
-7.9125
23.451
55.6337
88.2792
121.082
153.685
185.701
216.729
246.354
274.156
299.725
322.664
342.604
359.212
372.21
381.367
386.526
387.571
384.509
377.443
366.44
351.716
333.536
312.207
288.089
261.572
233.062
202.974
171.722
139.712
107.331
74.9391
42.8692
11.4177
-19.1598
-48.6456
-76.8637
-103.674
-128.97
-152.674
-174.733
-195.114
-213.803
-230.804
-246.129
-259.802
-271.856
-282.328
-291.262
-298.7
-304.685
-309.251
-312.445
-314.273
-314.736
-313.886
-311.713
-308.209
-303.364
-297.161
-289.584
-280.608
-270.207
-258.357
-245.03
-230.201
-213.86
-195.996
-176.603
-155.688
-133.278
-109.416
-84.1694
-57.6313
-29.9285
-1.26562
28.1354
61.9636
92.7444
123.798
154.794
185.324
215.027
243.506
270.362
295.218
317.691
337.424
354.093
367.398
377.099
382.995
384.961
382.854
376.739
366.702
352.867
335.492
314.855
291.317
265.265
237.117
207.301
176.255
144.412
112.188
79.9697
48.091
17.3156
-12.0817
-40.8336
-68.4888
-94.8287
-119.721
-143.072
-164.834
-184.996
-203.561
-220.558
-236.018
-249.98
-262.484
-273.563
-283.245
-291.547
-298.477
-304.033
-308.205
-310.977
-312.281
-312.117
-310.424
-307.12
-302.197
-295.646
-287.419
-277.515
-265.909
-252.599
-237.593
-220.903
-202.557
-182.607
-161.121
-138.177
-113.891
-88.3853
-61.8064
-34.3851
-6.56185
19.6895
48.2151
77.1341
105.938
134.306
161.965
188.48
213.47
200.73
168.306
134.667
100.14
65.1236
29.9519
-4.90839
-39.0349
-71.8849
-101.813
-131.791
-160.81
-188.345
-214.152
-238.118
-260.196
-280.374
-298.675
-315.137
-329.805
-342.739
-353.997
-363.635
-371.71
-378.272
-383.364
-387.022
-389.255
-390.071
-389.443
-387.407
-383.963
-379.073
-372.718
-364.848
-355.417
-344.391
-331.706
-317.299
-301.133
-283.153
-263.331
-241.642
-218.077
-192.672
-165.497
-136.645
-106.375
-75.9571
-43.366
-9.64037
24.7563
59.502
94.211
128.488
161.962
194.226
224.862
253.493
279.746
303.267
323.741
340.875
354.43
364.216
370.07
371.871
369.555
363.197
352.774
338.463
320.48
299.079
274.557
247.276
217.633
186.044
152.951
118.79
83.9931
48.9735
14.1114
-20.2783
-52.5991
-84.9433
-115.826
-145.088
-172.582
-198.197
-221.847
-243.48
-263.072
-280.623
-296.149
-309.69
-321.302
-331.055
-339.028
-345.306
-349.975
-353.122
-354.834
-355.148
-354.132
-351.844
-348.294
-343.494
-337.436
-330.105
-321.473
-311.508
-300.174
-287.429
-273.232
-257.55
-240.353
-221.614
-201.322
-179.474
-156.083
-131.178
-104.81
-77.0507
-48.0032
-17.794
13.4126
45.3723
77.8522
110.568
143.198
175.38
206.722
236.811
265.221
291.523
315.299
336.155
353.723
367.684
377.768
383.772
385.535
382.996
376.241
365.284
350.32
331.594
309.41
284.124
256.144
225.916
193.909
160.603
126.484
92.031
57.6976
23.905
-8.97993
-40.6451
-70.8397
-99.375
-126.118
-150.983
-173.931
-194.957
-214.083
-231.356
-246.834
-260.591
-272.705
-283.258
-292.33
-299.991
-306.306
-311.328
-315.1
-317.673
-319.054
-319.24
-318.293
-316.2
-312.953
-308.531
-302.902
-296.025
-287.846
-278.307
-267.342
-254.882
-240.86
-225.213
-207.886
-188.831
-168.018
-145.442
-121.126
-95.1248
-67.5339
-38.4857
-8.15702
23.2407
55.4659
88.1603
121.019
153.682
185.765
216.864
246.562
274.439
300.081
323.089
343.093
359.757
372.799
381.987
387.163
388.22
385.139
378.046
367.004
352.23
333.988
312.592
288.401
261.811
233.227
203.068
171.748
139.675
107.238
74.7967
42.6846
11.1979
-19.4075
-48.9145
-77.1474
-103.967
-129.269
-152.975
-175.032
-195.41
-214.094
-231.089
-246.405
-260.069
-272.114
-282.577
-291.502
-298.932
-304.91
-309.471
-312.659
-314.48
-314.946
-314.096
-311.923
-308.421
-303.579
-297.381
-289.809
-280.839
-270.444
-258.6
-245.279
-230.456
-214.121
-196.262
-176.872
-155.959
-133.548
-109.683
-84.4265
-57.8737
-30.1481
-1.44581
28.0065
61.735
92.5869
123.705
154.762
185.353
215.122
243.668
270.594
295.52
318.062
337.86
354.587
367.943
377.685
383.611
385.588
383.486
377.346
367.274
353.397
335.966
315.262
291.651
265.521
237.297
207.405
176.286
144.376
112.093
79.8221
47.9034
17.102
-12.3318
-41.1024
-68.7728
-95.1223
-120.019
-143.369
-165.126
-185.28
-203.836
-220.823
-236.272
-250.224
-262.72
-273.792
-283.469
-291.768
-298.697
-304.254
-308.427
-311.201
-312.512
-312.359
-310.668
-307.369
-302.454
-295.909
-287.689
-277.79
-266.188
-252.882
-237.878
-221.188
-202.84
-182.885
-161.392
-138.439
-114.139
-88.6159
-62.0144
-34.5685
-6.71049
19.5391
48.1044
77.0703
105.924
134.343
162.057
188.625
213.668
200.974
168.458
134.728
100.113
65.0133
29.7621
-5.17738
-39.3922
-72.3134
-102.104
-132.142
-161.211
-188.769
-214.583
-238.547
-260.617
-280.782
-299.068
-315.514
-330.167
-343.084
-354.327
-363.952
-372.014
-378.565
-383.648
-387.299
-389.528
-390.352
-389.721
-387.686
-384.247
-379.363
-373.018
-365.158
-355.741
-344.729
-332.058
-317.665
-301.513
-283.546
-263.735
-242.053
-218.491
-193.084
-165.898
-137.023
-106.709
-76.3152
-43.6701
-9.8852
24.572
59.3842
94.1667
128.522
162.08
194.432
225.155
253.873
280.209
303.809
324.354
341.549
355.156
364.982
370.857
372.673
370.348
363.961
353.502
339.139
321.089
299.609
274.999
247.626
217.887
186.202
153.015
118.767
83.8895
48.7975
13.8715
-20.5879
-52.9376
-85.3332
-116.242
-145.522
-173.027
-198.646
-222.297
-243.926
-263.51
-281.049
-296.561
-310.085
-321.68
-331.413
-339.367
-345.626
-350.277
-353.408
-355.103
-355.409
-354.385
-352.093
-348.542
-343.743
-337.69
-330.365
-321.742
-311.786
-300.463
-287.729
-273.543
-257.872
-240.683
-221.952
-201.667
-179.823
-156.433
-131.526
-105.15
-77.3795
-48.3137
-18.0787
13.1644
45.1664
77.698
110.476
143.176
175.437
206.865
237.046
265.55
291.947
315.815
336.756
354.401
368.425
378.559
384.593
386.372
383.83
377.043
366.042
351.017
332.215
309.942
284.56
256.478
226.146
194.034
160.626
126.412
91.8712
57.4607
23.6036
-9.33316
-41.037
-71.2574
-99.8077
-126.555
-151.418
-174.358
-195.371
-214.48
-231.734
-247.193
-260.93
-273.024
-283.559
-292.614
-300.261
-306.564
-311.576
-315.34
-317.907
-319.28
-319.467
-318.52
-316.428
-313.186
-308.77
-303.151
-296.286
-288.121
-278.597
-267.647
-255.203
-241.199
-225.569
-208.256
-189.213
-168.409
-145.837
-121.518
-95.5078
-67.9004
-38.8268
-8.46376
22.9766
55.2557
88.0111
120.939
153.679
185.845
217.032
246.821
274.792
300.525
323.621
343.705
360.438
373.536
382.765
387.961
389.026
385.932
378.802
367.71
352.872
334.555
313.073
288.793
262.11
233.434
203.185
171.78
139.63
107.122
74.6181
42.4532
10.9227
-19.7176
-49.251
-77.5025
-104.334
-129.643
-153.351
-175.407
-195.78
-214.458
-231.444
-246.751
-260.404
-272.437
-282.888
-291.802
-299.223
-305.191
-309.745
-312.926
-314.741
-315.209
-314.357
-312.185
-308.686
-303.847
-297.654
-290.089
-281.126
-270.739
-258.903
-245.59
-230.775
-214.448
-196.595
-177.209
-156.297
-133.886
-110.017
-84.7487
-58.1774
-30.4242
-1.67191
27.855
61.4384
92.3896
123.588
154.721
185.389
215.24
243.87
270.885
295.898
318.525
338.404
355.205
368.625
378.417
384.38
386.373
384.273
378.11
367.992
354.06
336.559
315.771
292.067
265.842
237.52
207.533
176.324
144.33
111.973
79.6366
47.6689
16.8338
-12.6448
-41.4388
-69.1282
-95.4897
-120.391
-143.741
-165.492
-185.636
-204.18
-221.154
-236.59
-250.53
-263.015
-274.079
-283.748
-292.043
-298.971
-304.529
-308.705
-311.481
-312.802
-312.661
-310.973
-307.681
-302.776
-296.238
-288.026
-278.133
-266.538
-253.236
-238.235
-221.545
-203.194
-183.234
-161.732
-138.766
-114.449
-88.9046
-62.2747
-34.7974
-6.89571
19.3494
47.9652
76.9901
105.906
134.39
162.171
188.807
213.915
201.268
168.64
134.8
100.079
64.8805
29.5342
-5.49991
-39.8222
-72.8465
-102.435
-132.564
-161.694
-189.28
-215.103
-239.063
-261.122
-281.273
-299.541
-315.968
-330.601
-343.499
-354.723
-364.331
-372.379
-378.917
-383.99
-387.631
-389.857
-390.687
-390.053
-388.02
-384.588
-379.712
-373.378
-365.531
-356.13
-345.134
-332.48
-318.104
-301.969
-284.017
-264.221
-242.548
-218.989
-193.578
-166.381
-137.477
-107.107
-76.7486
-44.0354
-10.1795
24.3499
59.2421
94.1126
128.563
162.222
194.678
225.507
254.329
280.764
304.458
325.09
342.359
356.026
365.9
371.804
373.633
371.302
364.88
354.378
339.951
321.82
300.245
275.531
248.045
218.191
186.391
153.092
118.738
83.764
48.5854
13.5851
-20.9345
-53.3709
-85.8052
-116.741
-146.043
-173.561
-199.186
-222.837
-244.461
-264.035
-281.56
-297.055
-310.56
-322.132
-331.843
-339.773
-346.009
-350.639
-353.75
-355.426
-355.721
-354.689
-352.391
-348.839
-344.043
-337.994
-330.677
-322.064
-312.121
-300.81
-288.088
-273.916
-258.258
-241.08
-222.359
-202.081
-180.243
-156.854
-131.944
-105.56
-77.7749
-48.6871
-18.422
12.8659
44.9184
77.5118
110.363
143.148
175.504
207.037
237.327
265.945
292.456
316.434
337.478
355.215
369.316
379.509
385.58
387.377
384.833
378.008
366.953
351.853
332.959
310.581
285.083
256.878
226.42
194.183
160.652
126.324
91.6783
57.175
23.2403
-9.75839
-41.5085
-71.76
-100.328
-127.082
-151.941
-174.87
-195.867
-214.957
-232.188
-247.623
-261.336
-273.407
-283.92
-292.955
-300.584
-306.872
-311.873
-315.629
-318.189
-319.551
-319.739
-318.791
-316.701
-313.464
-309.056
-303.449
-296.599
-288.45
-278.944
-268.014
-255.59
-241.606
-225.995
-208.7
-189.672
-168.878
-146.31
-121.99
-95.9683
-68.341
-39.237
-8.83319
22.6582
55.0028
87.831
120.841
153.674
185.94
217.233
247.133
275.215
301.059
324.26
344.439
361.257
374.422
383.698
388.921
389.991
386.886
379.711
368.559
353.644
335.235
313.651
289.262
262.467
233.681
203.325
171.818
139.574
106.982
74.4028
42.1744
10.5915
-20.0907
-49.6557
-77.9293
-104.775
-130.091
-153.802
-175.857
-196.224
-214.894
-231.871
-247.165
-260.805
-272.825
-283.262
-292.162
-299.571
-305.528
-310.074
-313.246
-315.055
-315.523
-314.671
-312.5
-309.004
-304.17
-297.983
-290.426
-281.471
-271.094
-259.268
-245.964
-231.159
-214.84
-196.994
-177.614
-156.703
-134.292
-110.418
-85.1361
-58.5428
-30.7571
-1.94543
27.6886
61.0654
92.1529
123.447
154.67
185.432
215.381
244.112
271.233
296.35
319.081
339.058
355.947
369.444
379.297
385.303
387.317
385.217
379.027
368.857
354.857
337.271
316.381
292.567
266.227
237.788
207.687
176.369
144.274
111.828
79.4124
47.3875
16.5099
-13.0207
-41.8429
-69.5554
-95.9313
-120.839
-144.187
-165.931
-186.064
-204.593
-221.551
-236.972
-250.897
-263.369
-274.422
-284.084
-292.374
-299.3
-304.859
-309.038
-311.818
-313.15
-313.022
-311.339
-308.055
-303.161
-296.633
-288.43
-278.545
-266.957
-253.662
-238.664
-221.974
-203.62
-183.653
-162.141
-139.159
-114.822
-89.2515
-62.5877
-35.0714
-7.11757
19.1195
47.7972
76.8933
105.884
134.445
162.307
189.025
214.211
201.609
168.851
134.883
100.039
64.7247
29.268
-5.87589
-40.3243
-73.4992
-102.793
-133.057
-162.261
-189.878
-215.71
-239.666
-261.712
-281.845
-300.093
-316.497
-331.107
-343.982
-355.185
-364.774
-372.804
-379.328
-384.388
-388.019
-390.241
-391.076
-390.439
-388.409
-384.985
-380.119
-373.797
-365.966
-356.583
-345.607
-332.972
-318.617
-302.501
-284.568
-264.788
-243.125
-219.571
-194.156
-166.945
-138.009
-107.569
-77.2595
-44.462
-10.5235
24.0897
59.0751
94.0482
128.609
162.386
194.964
225.917
254.861
281.413
305.216
325.949
343.305
357.043
366.973
372.911
374.753
372.414
365.956
355.4
340.9
322.674
300.989
276.151
248.534
218.545
186.61
153.181
118.703
83.6161
48.3365
13.2515
-21.3155
-53.9028
-86.3596
-117.326
-146.651
-174.185
-199.817
-223.467
-245.086
-264.648
-282.157
-297.633
-311.114
-322.661
-332.345
-340.248
-346.457
-351.061
-354.149
-355.803
-356.086
-355.043
-352.739
-349.185
-344.392
-338.349
-331.041
-322.44
-312.511
-301.215
-288.508
-274.352
-258.708
-241.543
-222.834
-202.565
-180.733
-157.346
-132.432
-106.039
-78.2372
-49.124
-18.8242
12.5164
44.6276
77.2931
110.231
143.115
175.582
207.235
237.654
266.404
293.049
317.156
338.32
356.166
370.357
380.618
386.734
388.551
386.002
379.135
368.017
352.83
333.829
311.327
285.694
257.345
226.74
194.355
160.683
126.22
91.4514
56.8397
22.8144
-10.2565
-42.0606
-72.348
-100.936
-127.697
-152.553
-175.469
-196.447
-215.514
-232.718
-248.126
-261.81
-273.853
-284.341
-293.352
-300.961
-307.232
-312.22
-315.966
-318.517
-319.868
-320.056
-319.107
-317.02
-313.789
-309.391
-303.798
-296.964
-288.834
-279.35
-268.442
-256.042
-242.081
-226.493
-209.219
-190.209
-169.426
-146.864
-122.541
-96.5069
-68.856
-39.7171
-9.26579
22.2848
54.7067
87.6196
120.727
153.667
186.05
217.466
247.495
275.708
301.681
325.005
345.297
362.213
375.457
384.789
390.044
391.12
387.999
380.773
369.551
354.545
336.029
314.325
289.809
262.884
233.968
203.487
171.862
139.508
106.817
74.1503
41.8476
10.2037
-20.5271
-50.1288
-78.4283
-105.291
-130.616
-154.33
-176.382
-196.744
-215.404
-232.369
-247.649
-261.274
-273.277
-283.698
-292.583
-299.978
-305.922
-310.457
-313.62
-315.422
-315.889
-315.037
-312.868
-309.375
-304.546
-298.367
-290.819
-281.874
-271.509
-259.693
-246.4
-231.606
-215.298
-197.461
-178.086
-157.179
-134.768
-110.887
-85.5894
-58.9706
-31.1479
-2.26888
27.491
60.6316
91.8779
123.284
154.611
185.48
215.544
244.394
271.638
296.879
319.73
339.822
356.813
370.4
380.324
386.381
388.422
386.318
380.098
369.868
355.788
338.102
317.094
293.152
266.675
238.1
207.866
176.421
144.207
111.657
79.1486
47.059
16.1292
-13.4596
-42.3151
-70.0548
-96.4474
-121.362
-144.708
-166.444
-186.563
-205.075
-222.015
-237.417
-251.324
-263.781
-274.823
-284.475
-292.76
-299.684
-305.243
-309.427
-312.211
-313.555
-313.442
-311.765
-308.492
-303.611
-297.093
-288.902
-279.026
-267.447
-254.158
-239.164
-222.475
-204.117
-184.142
-162.617
-139.619
-115.258
-89.6568
-62.9538
-35.3908
-7.37552
18.8481
47.5998
76.7797
105.857
134.509
162.466
189.278
214.556
202
169.093
134.977
99.9924
64.5455
28.9633
-6.3054
-40.8963
-74.2619
-103.189
-133.626
-162.912
-190.564
-216.405
-240.355
-262.387
-282.5
-300.724
-317.102
-331.685
-344.535
-355.713
-365.279
-373.29
-379.797
-384.843
-388.464
-390.68
-391.519
-390.879
-388.854
-385.437
-380.584
-374.277
-366.464
-357.101
-346.147
-333.535
-319.203
-303.11
-285.198
-265.436
-243.786
-220.237
-194.818
-167.591
-138.62
-108.094
-77.8503
-44.9499
-10.9174
23.7909
58.8828
93.9731
128.661
162.572
195.29
226.385
255.468
282.154
306.083
326.931
344.388
358.206
368.199
374.177
376.036
373.687
367.188
356.571
341.986
323.651
301.839
276.86
249.092
218.948
186.859
153.281
118.662
83.4447
48.05
12.8693
-21.7436
-54.5222
-86.9958
-117.996
-147.348
-174.9
-200.539
-224.189
-245.801
-265.35
-282.84
-298.293
-311.748
-323.265
-332.919
-340.79
-346.968
-351.544
-354.605
-356.235
-356.503
-355.447
-353.135
-349.58
-344.79
-338.755
-331.457
-322.87
-312.957
-301.678
-288.989
-274.85
-259.223
-242.073
-223.377
-203.119
-181.293
-157.909
-132.991
-106.587
-78.7666
-49.6247
-19.2857
12.1155
44.2935
77.0411
110.077
143.074
175.668
207.461
238.027
266.929
293.726
317.982
339.284
357.253
371.548
381.889
388.056
389.895
387.339
380.426
369.235
353.948
334.824
312.181
286.392
257.879
227.104
194.551
160.715
126.099
91.1897
56.454
22.3252
-10.8283
-42.694
-73.0222
-101.634
-128.402
-153.253
-176.155
-197.11
-216.15
-233.325
-248.7
-262.352
-274.364
-284.822
-293.806
-301.392
-307.644
-312.616
-316.35
-318.892
-320.231
-320.418
-319.468
-317.384
-314.16
-309.773
-304.195
-297.38
-289.273
-279.813
-268.931
-256.558
-242.625
-227.063
-209.813
-190.822
-170.054
-147.498
-123.172
-97.1238
-69.4462
-40.2675
-9.76216
21.8557
54.3669
87.3762
120.594
153.657
186.173
217.732
247.909
276.272
302.392
325.857
346.278
363.306
376.641
386.039
391.329
392.413
389.271
381.989
370.686
355.576
336.936
315.096
290.434
263.36
234.296
203.67
171.91
139.43
106.626
73.8599
41.4724
9.75865
-21.0277
-50.671
-78.9999
-105.881
-131.216
-154.933
-176.983
-197.338
-215.987
-232.938
-248.203
-261.81
-273.794
-284.196
-293.064
-300.443
-306.371
-310.894
-314.047
-315.843
-316.307
-315.455
-313.287
-309.799
-304.977
-298.806
-291.267
-282.335
-271.982
-260.179
-246.9
-232.119
-215.822
-197.995
-178.626
-157.723
-135.311
-111.423
-86.1088
-59.4616
-31.5975
-2.64529
27.2428
60.1558
91.566
123.097
154.542
185.535
215.729
244.715
272.101
297.482
320.471
340.694
357.804
371.494
381.499
387.615
389.687
387.577
381.323
371.026
356.855
339.051
317.912
293.82
267.187
238.456
208.069
176.478
144.129
111.459
78.8441
46.6831
15.6907
-13.9613
-42.8556
-70.6268
-97.0386
-121.96
-145.305
-167.03
-187.133
-205.626
-222.545
-237.925
-251.813
-264.253
-275.28
-284.922
-293.201
-300.122
-305.683
-309.871
-312.662
-314.018
-313.921
-312.253
-308.992
-304.125
-297.62
-289.441
-279.576
-268.007
-254.726
-239.736
-223.047
-204.685
-184.702
-163.163
-140.144
-115.757
-90.1208
-63.3734
-35.7559
-7.66894
18.5339
47.3726
76.649
105.826
134.582
162.647
189.568
214.951
202.439
169.363
135.081
99.9379
64.3424
28.6199
-6.78791
-41.5355
-75.1272
-103.631
-134.275
-163.652
-191.339
-217.189
-241.133
-263.148
-283.238
-301.433
-317.782
-332.336
-345.156
-356.307
-365.848
-373.836
-380.324
-385.355
-388.964
-391.173
-392.011
-391.373
-389.354
-385.946
-381.106
-374.815
-367.024
-357.683
-346.754
-334.168
-319.862
-303.795
-285.908
-266.166
-244.53
-220.988
-195.564
-168.32
-139.309
-108.682
-78.5231
-45.4987
-11.3619
23.4532
58.6646
93.8866
128.718
162.781
195.656
226.911
256.152
282.988
307.058
328.037
345.607
359.516
369.58
375.604
377.481
375.12
368.577
357.89
343.209
324.752
302.796
277.657
249.719
219.4
187.138
153.392
118.613
83.249
47.7247
12.4365
-22.2372
-55.2123
-87.713
-118.751
-148.134
-175.706
-201.354
-225.003
-246.606
-266.141
-283.61
-299.037
-312.462
-323.946
-333.564
-341.401
-347.543
-352.086
-355.117
-356.72
-356.972
-355.9
-353.581
-350.025
-345.238
-339.211
-331.925
-323.353
-313.458
-302.198
-289.53
-275.411
-259.803
-242.67
-223.989
-203.743
-181.925
-158.544
-133.622
-107.205
-79.3637
-50.19
-19.8074
11.6624
43.9154
76.7552
109.901
143.026
175.764
207.713
238.445
267.519
294.488
318.911
340.37
358.478
372.89
383.321
389.547
391.411
388.845
381.882
370.608
355.208
335.945
313.142
287.177
258.479
227.513
194.77
160.75
125.96
90.8922
56.0167
21.7717
-11.475
-43.4095
-73.7836
-102.42
-129.197
-154.042
-176.927
-197.857
-216.867
-234.008
-249.346
-262.962
-274.938
-285.363
-294.316
-301.876
-308.107
-313.061
-316.782
-319.311
-320.641
-320.826
-319.874
-317.793
-314.577
-310.202
-304.642
-297.848
-289.767
-280.335
-269.481
-257.139
-243.237
-227.705
-210.482
-191.513
-170.761
-148.214
-123.884
-97.8199
-70.1124
-40.889
-10.323
21.3702
53.9825
87.1001
120.442
153.644
186.311
218.03
248.373
276.905
303.192
326.816
347.383
364.539
377.976
387.447
392.779
393.87
390.704
383.359
371.965