/*--------------------------------*- C++ -*----------------------------------*\
| =========                 |                                                 |
| \\      /  F ield         | OpenFOAM: The Open Source CFD Toolbox           |
|  \\    /   O peration     | Version:  3.0.1                                 |
|   \\  /    A nd           | Web:      www.OpenFOAM.org                      |
|    \\/     M anipulation  |                                                 |
\*---------------------------------------------------------------------------*/
FoamFile
{
    version     2.0;
    format      ascii;
    class       volVectorField;
    location    "32.4";
    object      U;
}
// * * * * * * * * * * * * * * * * * * * * * * * * * * * * * * * * * * * * * //

dimensions      [0 1 -1 0 0 0 0];

internalField   nonuniform List<vector> 
21420
(
(0.165468 0.00175713 0)
(0.149896 0.00181066 0)
(0.131242 0.0018742 0)
(0.112188 0.00191321 0)
(0.0930096 0.00189219 0)
(0.0739248 0.00188553 0)
(0.0551236 0.00182766 0)
(0.0367624 0.0017861 0)
(0.0186966 0.00172633 0)
(0.00174576 0.00162742 0)
(-0.0139288 0.00154886 0)
(-0.0290206 0.0014622 0)
(-0.0431863 0.00135544 0)
(-0.0563693 0.00126042 0)
(-0.0685454 0.00115333 0)
(-0.0797118 0.00105719 0)
(-0.0898787 0.000960977 0)
(-0.099065 0.000861513 0)
(-0.107298 0.000770307 0)
(-0.11461 0.000681375 0)
(-0.121032 0.000593358 0)
(-0.126602 0.00051111 0)
(-0.131353 0.0004317 0)
(-0.135319 0.000354727 0)
(-0.138532 0.000281233 0)
(-0.141024 0.000209763 0)
(-0.142825 0.00014072 0)
(-0.143919 7.53428e-05 0)
(-0.144367 1.1794e-05 0)
(-0.144159 -5.45009e-05 0)
(-0.143288 -0.00012083 0)
(-0.141756 -0.000186491 0)
(-0.139556 -0.000253817 0)
(-0.136677 -0.000322839 0)
(-0.133105 -0.000392654 0)
(-0.128805 -0.000464454 0)
(-0.12375 -0.000541962 0)
(-0.117927 -0.000618389 0)
(-0.111297 -0.000698866 0)
(-0.103815 -0.000788856 0)
(-0.0954463 -0.000873018 0)
(-0.0861488 -0.000971601 0)
(-0.075852 -0.00106118 0)
(-0.0646434 -0.00114949 0)
(-0.0524318 -0.00125594 0)
(-0.0390503 -0.00135066 0)
(-0.024911 -0.00143218 0)
(-0.010065 -0.00153343 0)
(0.0056229 -0.00160405 0)
(0.0220527 -0.00166078 0)
(0.0392241 -0.00173929 0)
(0.0569612 -0.00177219 0)
(0.0750676 -0.00181385 0)
(0.0933855 -0.00181546 0)
(0.111675 -0.00179063 0)
(0.12969 -0.0017619 0)
(0.147223 -0.00169921 0)
(0.164029 -0.00160539 0)
(0.179836 -0.00150087 0)
(0.194378 -0.00136165 0)
(0.207435 -0.00120577 0)
(0.218829 -0.00103761 0)
(0.228349 -0.000830813 0)
(0.235738 -0.000623332 0)
(0.240931 -0.000401255 0)
(0.243804 -0.000158119 0)
(0.244218 7.11497e-05 0)
(0.242176 0.000323002 0)
(0.237593 0.000548002 0)
(0.230781 0.000778931 0)
(0.221744 0.00100087 0)
(0.210515 0.00119308 0)
(0.19739 0.00137842 0)
(0.182536 0.00153818 0)
(0.166261 0.00166527 0)
(0.148775 0.00177526 0)
(0.130434 0.00184516 0)
(0.111436 0.00190302 0)
(0.0919553 0.00193797 0)
(0.0724364 0.00193362 0)
(0.0529189 0.00192354 0)
(0.0336993 0.0018805 0)
(0.0149981 0.00182662 0)
(-0.00306488 0.00175638 0)
(-0.0203477 0.001673 0)
(-0.0368457 0.00159016 0)
(-0.052346 0.00149067 0)
(-0.0668362 0.0013839 0)
(-0.0803248 0.00128509 0)
(-0.0927512 0.00117986 0)
(-0.104091 0.00106865 0)
(-0.114367 0.000966674 0)
(-0.123587 0.000863164 0)
(-0.13174 0.000753058 0)
(-0.138846 0.000654937 0)
(-0.14495 0.000559854 0)
(-0.150108 0.000468097 0)
(-0.154371 0.000383176 0)
(-0.157812 0.000298951 0)
(-0.160475 0.00022809 0)
(-0.162384 0.00014968 0)
(-0.163563 8.76032e-05 0)
(-0.164126 2.73598e-05 0)
(-0.164037 -4.49832e-05 0)
(-0.163307 -9.11531e-05 0)
(-0.162021 -0.000160074 0)
(-0.160131 -0.0002149 0)
(-0.157644 -0.000274383 0)
(-0.154575 -0.000336209 0)
(-0.150856 -0.000395811 0)
(-0.146486 -0.000466366 0)
(-0.141441 -0.000532078 0)
(-0.135701 -0.000607477 0)
(-0.129212 -0.000675547 0)
(-0.121965 -0.000753194 0)
(-0.114008 -0.000835326 0)
(-0.105228 -0.000904911 0)
(-0.0956149 -0.000990087 0)
(-0.0852443 -0.0010665 0)
(-0.0740607 -0.00115312 0)
(-0.0620835 -0.001221 0)
(-0.0493236 -0.00130492 0)
(-0.0357626 -0.00138087 0)
(-0.0215306 -0.00145211 0)
(-0.00657763 -0.00151163 0)
(0.0090343 -0.00156941 0)
(0.0251434 -0.00161989 0)
(0.0416702 -0.00165763 0)
(0.0584908 -0.00167507 0)
(0.0754368 -0.00168364 0)
(0.0923216 -0.00166358 0)
(0.10895 -0.00162528 0)
(0.125053 -0.00156835 0)
(0.1404 -0.00148153 0)
(0.154775 -0.00135827 0)
(0.167835 -0.0012238 0)
(0.179344 -0.00105614 0)
(0.189069 -0.000871952 0)
(0.196812 -0.000659217 0)
(0.202344 -0.000439802 0)
(0.205558 -0.000201375 0)
(0.206353 4.1986e-05 0)
(0.204712 0.000281671 0)
(0.200517 0.000529651 0)
(0.194053 0.000756261 0)
(0.185343 0.000972214 0)
(0.174544 0.00116719 0)
(0.161837 0.0013509 0)
(0.14746 0.00149961 0)
(0.131676 0.00162922 0)
(0.114697 0.00173497 0)
(0.0967814 0.00181404 0)
(0.0782484 0.00185646 0)
(0.0593939 0.00188279 0)
(0.0404813 0.00187065 0)
(0.0217716 0.0018447 0)
(0.00348382 0.00178582 0)
(-0.0142079 0.00172171 0)
(-0.0311317 0.00164222 0)
(-0.0472166 0.00154926 0)
(-0.0623574 0.00145228 0)
(-0.0764675 0.00134409 0)
(-0.0894883 0.00124351 0)
(-0.101395 0.00112498 0)
(-0.112215 0.00102697 0)
(-0.121969 0.00091434 0)
(-0.130723 0.000815214 0)
(-0.138494 0.000728077 0)
(-0.145347 0.00063458 0)
(-0.151339 0.000559902 0)
(-0.156565 0.000482919 0)
(-0.161139 0.000416963 0)
(-0.165041 0.000349824 0)
(-0.168241 0.000290404 0)
(-0.1708 0.000224684 0)
(-0.172767 0.000166208 0)
(-0.174176 0.000113414 0)
(-0.175057 6.18367e-05 0)
(-0.175375 6.15255e-06 0)
(-0.175153 -4.46424e-05 0)
(-0.174434 -9.69458e-05 0)
(-0.173144 -0.000153995 0)
(-0.171338 -0.00020614 0)
(-0.16892 -0.000268653 0)
(-0.165912 -0.000330215 0)
(-0.162253 -0.000394485 0)
(-0.157891 -0.000465372 0)
(-0.152823 -0.000539431 0)
(-0.147001 -0.000617164 0)
(-0.140366 -0.000689996 0)
(-0.132942 -0.000778714 0)
(-0.124627 -0.000869749 0)
(-0.115434 -0.000954413 0)
(-0.10532 -0.00104968 0)
(-0.094252 -0.00114261 0)
(-0.0822368 -0.00123915 0)
(-0.0692885 -0.00132895 0)
(-0.055406 -0.00142105 0)
(-0.0407158 -0.00150267 0)
(-0.0252037 -0.00156949 0)
(-0.00894013 -0.00163682 0)
(0.00782695 -0.00168622 0)
(0.0250192 -0.00172395 0)
(0.0424681 -0.00173751 0)
(0.059959 -0.00173487 0)
(0.0773084 -0.00170169 0)
(0.0942821 -0.00165531 0)
(0.110634 -0.00158465 0)
(0.126137 -0.00148921 0)
(0.14054 -0.00136406 0)
(0.153589 -0.00122039 0)
(0.165052 -0.00104367 0)
(0.17467 -0.000860294 0)
(0.182262 -0.000651822 0)
(0.187709 -0.000431097 0)
(0.190897 -0.00019699 0)
(0.191724 2.97919e-05 0)
(0.19022 0.000267011 0)
(0.186294 0.000502797 0)
(0.180116 0.000724381 0)
(0.171771 0.00092802 0)
(0.161484 0.00110711 0)
(0.149457 0.00127103 0)
(0.135953 0.00140701 0)
(0.121174 0.00152172 0)
(0.105384 0.00161 0)
(0.0888337 0.00167205 0)
(0.0717377 0.00171294 0)
(0.054369 0.00173695 0)
(0.0368855 0.00173021 0)
(0.0195255 0.00170916 0)
(0.00245962 0.00167702 0)
(-0.014182 0.00162603 0)
(-0.0302453 0.00156415 0)
(-0.0456557 0.00149664 0)
(-0.0603439 0.00141212 0)
(-0.0742026 0.00133223 0)
(-0.0871958 0.00125378 0)
(-0.0993275 0.00116186 0)
(-0.110594 0.00107094 0)
(-0.121004 0.000985573 0)
(-0.130533 0.000907374 0)
(-0.139191 0.000814027 0)
(-0.146981 0.000729674 0)
(-0.153909 0.000644723 0)
(-0.160012 0.000569959 0)
(-0.165328 0.000485079 0)
(-0.169823 0.000412149 0)
(-0.173538 0.000331285 0)
(-0.176553 0.000265796 0)
(-0.178882 0.000196543 0)
(-0.180556 0.000132784 0)
(-0.181532 6.8227e-05 0)
(-0.181879 6.08607e-06 0)
(-0.181598 -5.87489e-05 0)
(-0.180692 -0.000119637 0)
(-0.179162 -0.000180922 0)
(-0.17703 -0.000241629 0)
(-0.17427 -0.000303568 0)
(-0.170852 -0.000369236 0)
(-0.16681 -0.000433922 0)
(-0.162042 -0.000507951 0)
(-0.156572 -0.000572005 0)
(-0.150384 -0.000656086 0)
(-0.143368 -0.000726064 0)
(-0.13559 -0.00080362 0)
(-0.127043 -0.000890347 0)
(-0.117644 -0.000977471 0)
(-0.107353 -0.00105115 0)
(-0.0962289 -0.00113433 0)
(-0.0843065 -0.00122338 0)
(-0.0716359 -0.00130395 0)
(-0.058035 -0.00137512 0)
(-0.0437129 -0.00146903 0)
(-0.0285308 -0.00152599 0)
(-0.0127003 -0.00160958 0)
(0.00408262 -0.00166327 0)
(0.0216287 -0.00171329 0)
(0.0392264 -0.00174552 0)
(0.0570985 -0.00177118 0)
(0.0750201 -0.00176636 0)
(0.092822 -0.00174121 0)
(0.110203 -0.00169969 0)
(0.126975 -0.00160909 0)
(0.142735 -0.00151515 0)
(0.157365 -0.00137418 0)
(0.170469 -0.00121197 0)
(0.181805 -0.00103535 0)
(0.191236 -0.000817096 0)
(0.198429 -0.000607521 0)
(0.203389 -0.000363221 0)
(0.205839 -0.000109839 0)
(0.205791 0.000134528 0)
(0.203241 0.000387033 0)
(0.198099 0.000633662 0)
(0.19062 0.000850368 0)
(0.180991 0.00105938 0)
(0.169423 0.00125002 0)
(0.15616 0.00139264 0)
(0.141438 0.00152669 0)
(0.125514 0.0016136 0)
(0.108832 0.00169025 0)
(0.0914795 0.00174024 0)
(0.0737725 0.00174635 0)
(0.0560795 0.0017568 0)
(0.0383092 0.00173001 0)
(0.0209786 0.00168903 0)
(0.00464945 0.00163279 0)
(-0.0109798 0.00156386 0)
(-0.0261799 0.00149746 0)
(-0.0407271 0.00142212 0)
(-0.0544963 0.00133332 0)
(-0.067439 0.0012507 0)
(-0.0795307 0.00116523 0)
(-0.0907554 0.00107465 0)
(-0.101121 0.000990739 0)
(-0.110643 0.000904689 0)
(-0.119344 0.000825459 0)
(-0.127254 0.000748444 0)
(-0.134399 0.000672074 0)
(-0.140805 0.000600567 0)
(-0.146498 0.000530698 0)
(-0.151494 0.000461208 0)
(-0.155805 0.000393654 0)
(-0.159435 0.000325337 0)
(-0.162384 0.000256878 0)
(-0.164647 0.000186799 0)
(-0.166196 0.00011579 0)
(-0.167027 4.60098e-05 0)
(-0.167134 -3.07357e-05 0)
(-0.166431 -0.000110215 0)
(-0.164937 -0.000190847 0)
(-0.162605 -0.000272826 0)
(-0.159427 -0.000358205 0)
(-0.155387 -0.000443703 0)
(-0.150467 -0.00053296 0)
(-0.144661 -0.000620023 0)
(-0.137962 -0.000706879 0)
(-0.13037 -0.000798565 0)
(-0.121893 -0.000883479 0)
(-0.112541 -0.000966172 0)
(-0.10233 -0.00105606 0)
(-0.0912867 -0.00113294 0)
(-0.0794412 -0.00121871 0)
(-0.0668326 -0.00128709 0)
(-0.0535102 -0.00134902 0)
(-0.0395208 -0.0014224 0)
(-0.0248622 -0.00146991 0)
(-0.00958459 -0.00150957 0)
(0.00588315 -0.00155754 0)
(0.0215059 -0.00157522 0)
(0.0374883 -0.00160503 0)
(0.0535725 -0.00159768 0)
(0.0695925 -0.00157505 0)
(0.0854041 -0.001561 0)
(0.100831 -0.00150597 0)
(0.117499 -0.00143406 0)
(0.165502 0.00527241 0)
(0.149922 0.00543296 0)
(0.131258 0.00562356 0)
(0.112195 0.00574058 0)
(0.0930072 0.00567738 0)
(0.0739144 0.00565734 0)
(0.055107 0.00548356 0)
(0.0367393 0.0053589 0)
(0.0186669 0.00517973 0)
(0.00171324 0.00488234 0)
(-0.0139634 0.00464676 0)
(-0.0290575 0.00438678 0)
(-0.0432241 0.00406645 0)
(-0.0564082 0.00378132 0)
(-0.0685838 0.00346 0)
(-0.0797502 0.00317155 0)
(-0.0899165 0.00288289 0)
(-0.0991015 0.00258454 0)
(-0.107334 0.00231094 0)
(-0.114644 0.00204412 0)
(-0.121065 0.00178011 0)
(-0.126634 0.0015334 0)
(-0.131384 0.00129521 0)
(-0.135348 0.00106431 0)
(-0.13856 0.000843856 0)
(-0.141051 0.000629512 0)
(-0.142851 0.000422436 0)
(-0.143945 0.000227228 0)
(-0.144394 3.51865e-05 0)
(-0.144186 -0.000163558 0)
(-0.143315 -0.000362271 0)
(-0.141783 -0.000559244 0)
(-0.139584 -0.000761036 0)
(-0.136706 -0.000968228 0)
(-0.133135 -0.00117774 0)
(-0.128836 -0.00139308 0)
(-0.123783 -0.00162564 0)
(-0.117962 -0.001855 0)
(-0.111334 -0.00209633 0)
(-0.103854 -0.00236633 0)
(-0.0954867 -0.00261883 0)
(-0.0861917 -0.00291468 0)
(-0.0758967 -0.00318329 0)
(-0.0646884 -0.00344838 0)
(-0.0524796 -0.00376806 0)
(-0.0390989 -0.00405133 0)
(-0.0249567 -0.00429673 0)
(-0.0101088 -0.00460046 0)
(0.00558046 -0.00481249 0)
(0.0220132 -0.00498274 0)
(0.0391897 -0.0052185 0)
(0.0569329 -0.00531708 0)
(0.075047 -0.00544272 0)
(0.0933718 -0.00544916 0)
(0.111673 -0.00537279 0)
(0.129699 -0.00528605 0)
(0.147242 -0.00509782 0)
(0.16406 -0.00481568 0)
(0.179879 -0.00450378 0)
(0.194437 -0.00408613 0)
(0.207498 -0.00362443 0)
(0.218914 -0.00310647 0)
(0.228431 -0.0025044 0)
(0.235848 -0.00186266 0)
(0.241042 -0.00120306 0)
(0.243924 -0.000472406 0)
(0.244341 0.000207386 0)
(0.242285 0.000968229 0)
(0.237712 0.00164329 0)
(0.230899 0.00233823 0)
(0.221854 0.00300097 0)
(0.21062 0.00358158 0)
(0.197484 0.00413478 0)
(0.182619 0.00461674 0)
(0.166332 0.00499777 0)
(0.14883 0.00532882 0)
(0.130475 0.00553559 0)
(0.111466 0.00571289 0)
(0.0919702 0.00581222 0)
(0.0724404 0.00580601 0)
(0.0529099 0.00577046 0)
(0.0336788 0.0056395 0)
(0.0149672 0.00548379 0)
(-0.00310701 0.0052731 0)
(-0.0203952 0.00501815 0)
(-0.036908 0.00477022 0)
(-0.0524152 0.00447096 0)
(-0.0669101 0.00415636 0)
(-0.080408 0.00384493 0)
(-0.092832 0.00354513 0)
(-0.104175 0.00321609 0)
(-0.114466 0.0028955 0)
(-0.123687 0.00258109 0)
(-0.13183 0.00227023 0)
(-0.138945 0.0019657 0)
(-0.145049 0.00166723 0)
(-0.150203 0.00139718 0)
(-0.154467 0.00113968 0)
(-0.1579 0.00090629 0)
(-0.160567 0.000680352 0)
(-0.162468 0.00045414 0)
(-0.163656 0.000258377 0)
(-0.164219 7.05904e-05 0)
(-0.164102 -0.00012571 0)
(-0.16339 -0.000290266 0)
(-0.162079 -0.000468924 0)
(-0.160201 -0.000649744 0)
(-0.157712 -0.000824839 0)
(-0.154644 -0.00100499 0)
(-0.150934 -0.00120534 0)
(-0.146553 -0.00139097 0)
(-0.141519 -0.00160792 0)
(-0.135764 -0.00181927 0)
(-0.129278 -0.00203101 0)
(-0.122037 -0.00226806 0)
(-0.114069 -0.00250639 0)
(-0.105282 -0.00271481 0)
(-0.0956772 -0.00296067 0)
(-0.0853099 -0.00321021 0)
(-0.0741074 -0.00345107 0)
(-0.0621467 -0.00367687 0)
(-0.049368 -0.00391455 0)
(-0.0358139 -0.0041356 0)
(-0.0215826 -0.00436495 0)
(-0.00662072 -0.00452992 0)
(0.00899074 -0.00471487 0)
(0.0251143 -0.00485866 0)
(0.0416493 -0.00496869 0)
(0.0584712 -0.00503523 0)
(0.0754319 -0.00504662 0)
(0.0923202 -0.00499977 0)
(0.108956 -0.0048876 0)
(0.125086 -0.00469904 0)
(0.140443 -0.00444536 0)
(0.154816 -0.00408257 0)
(0.167887 -0.00367542 0)
(0.179411 -0.00317177 0)
(0.189149 -0.00261215 0)
(0.19688 -0.00199334 0)
(0.202447 -0.00130393 0)
(0.205651 -0.000606938 0)
(0.206449 0.000121757 0)
(0.204801 0.000855237 0)
(0.200599 0.00158654 0)
(0.194122 0.0022661 0)
(0.185402 0.0029147 0)
(0.174594 0.00350499 0)
(0.161868 0.0040453 0)
(0.147488 0.00449944 0)
(0.131697 0.00490337 0)
(0.114696 0.00520075 0)
(0.0967701 0.00544723 0)
(0.0782172 0.00557186 0)
(0.0593475 0.0056468 0)
(0.0404181 0.00561202 0)
(0.0216991 0.00552758 0)
(0.00339951 0.00535988 0)
(-0.0143044 0.00515817 0)
(-0.0312316 0.00492339 0)
(-0.0473174 0.00465194 0)
(-0.0624554 0.00436398 0)
(-0.0765674 0.004035 0)
(-0.0895952 0.00372642 0)
(-0.101501 0.00337 0)
(-0.112329 0.00307511 0)
(-0.122069 0.00273841 0)
(-0.130814 0.00245415 0)
(-0.138597 0.00218432 0)
(-0.145447 0.00190115 0)
(-0.15144 0.00167815 0)
(-0.156654 0.0014434 0)
(-0.161226 0.00125357 0)
(-0.165129 0.00103977 0)
(-0.168326 0.000876647 0)
(-0.170895 0.000667702 0)
(-0.172849 0.000502914 0)
(-0.174263 0.000340602 0)
(-0.175141 0.000179942 0)
(-0.175444 1.7036e-05 0)
(-0.175229 -0.000137771 0)
(-0.174504 -0.00029461 0)
(-0.173214 -0.000459935 0)
(-0.171403 -0.000619412 0)
(-0.168994 -0.000805731 0)
(-0.165979 -0.000988954 0)
(-0.162326 -0.00119324 0)
(-0.157958 -0.00139135 0)
(-0.152895 -0.00162159 0)
(-0.147068 -0.00184898 0)
(-0.140444 -0.00208165 0)
(-0.133005 -0.00233386 0)
(-0.124696 -0.00259855 0)
(-0.115507 -0.00286979 0)
(-0.105395 -0.00315633 0)
(-0.0943118 -0.00342688 0)
(-0.0822982 -0.0037186 0)
(-0.0693506 -0.00398801 0)
(-0.0554615 -0.00426255 0)
(-0.0407809 -0.00452051 0)
(-0.0252526 -0.00471185 0)
(-0.00898563 -0.00491401 0)
(0.00778828 -0.00506145 0)
(0.0250001 -0.00516483 0)
(0.0424562 -0.00520712 0)
(0.0599574 -0.00520086 0)
(0.0773026 -0.00512013 0)
(0.0942859 -0.004983 0)
(0.110669 -0.00474831 0)
(0.126184 -0.00446022 0)
(0.140588 -0.00409914 0)
(0.153651 -0.00366437 0)
(0.165105 -0.00314748 0)
(0.17475 -0.00257039 0)
(0.182342 -0.00195507 0)
(0.187796 -0.00128927 0)
(0.190984 -0.00059834 0)
(0.191818 9.42194e-05 0)
(0.190297 0.000802782 0)
(0.186363 0.00149696 0)
(0.180182 0.00217361 0)
(0.171828 0.00278082 0)
(0.161539 0.00333126 0)
(0.149494 0.00382279 0)
(0.135977 0.0042196 0)
(0.12118 0.00456733 0)
(0.105373 0.00482294 0)
(0.088811 0.00501934 0)
(0.0717028 0.00513668 0)
(0.0543232 0.00521245 0)
(0.0368326 0.00519366 0)
(0.0194653 0.00514057 0)
(0.00238093 0.00502619 0)
(-0.0142638 0.00487709 0)
(-0.030333 0.00469402 0)
(-0.0457416 0.00448367 0)
(-0.0604273 0.00424845 0)
(-0.0743021 0.00399091 0)
(-0.0872979 0.00375143 0)
(-0.099431 0.00348246 0)
(-0.110685 0.00321615 0)
(-0.121095 0.00296735 0)
(-0.130632 0.00271222 0)
(-0.139284 0.00245069 0)
(-0.147077 0.00218821 0)
(-0.154 0.00192995 0)
(-0.16011 0.00170398 0)
(-0.16542 0.00144722 0)
(-0.169912 0.00124241 0)
(-0.173629 0.000990903 0)
(-0.176637 0.000799445 0)
(-0.178969 0.000593738 0)
(-0.180646 0.000396555 0)
(-0.181624 0.000200977 0)
(-0.181965 9.64433e-06 0)
(-0.181675 -0.000176633 0)
(-0.180773 -0.000364517 0)
(-0.17923 -0.000540766 0)
(-0.177103 -0.000725774 0)
(-0.174339 -0.000914967 0)
(-0.170929 -0.00110586 0)
(-0.166884 -0.00130589 0)
(-0.162112 -0.00151694 0)
(-0.156653 -0.00173033 0)
(-0.15045 -0.00196041 0)
(-0.143436 -0.00217578 0)
(-0.135671 -0.0024232 0)
(-0.127119 -0.00266988 0)
(-0.117715 -0.00293458 0)
(-0.107428 -0.00315825 0)
(-0.0962945 -0.00339845 0)
(-0.0843754 -0.00367201 0)
(-0.0716973 -0.00391135 0)
(-0.0580945 -0.00412245 0)
(-0.0437687 -0.00440828 0)
(-0.0285849 -0.00458484 0)
(-0.0127467 -0.0048289 0)
(0.00405221 -0.00498467 0)
(0.0215946 -0.00515052 0)
(0.0392104 -0.00523775 0)
(0.0570923 -0.00531273 0)
(0.0750281 -0.00529848 0)
(0.0928401 -0.00522662 0)
(0.110234 -0.00510044 0)
(0.12702 -0.00482848 0)
(0.142796 -0.00454316 0)
(0.157434 -0.0041335 0)
(0.170558 -0.00363654 0)
(0.181906 -0.00310185 0)
(0.191336 -0.0024633 0)
(0.198551 -0.00181717 0)
(0.203511 -0.00108753 0)
(0.205968 -0.000332723 0)
(0.205915 0.000401754 0)
(0.203353 0.00116082 0)
(0.198215 0.00190061 0)
(0.19073 0.00255073 0)
(0.181092 0.00317978 0)
(0.169513 0.00374732 0)
(0.156238 0.00417799 0)
(0.141503 0.00458095 0)
(0.125567 0.00484192 0)
(0.108872 0.00507199 0)
(0.0915073 0.00522163 0)
(0.0737918 0.00524016 0)
(0.056087 0.00527132 0)
(0.0383082 0.00519091 0)
(0.020971 0.00506798 0)
(0.00463452 0.00489865 0)
(-0.0109974 0.00469217 0)
(-0.0262021 0.00449288 0)
(-0.0407527 0.00426679 0)
(-0.0545239 0.00400034 0)
(-0.0674684 0.00375232 0)
(-0.0795611 0.00349586 0)
(-0.0907858 0.00322407 0)
(-0.101151 0.00297231 0)
(-0.110672 0.00271413 0)
(-0.119373 0.00247644 0)
(-0.127283 0.00224528 0)
(-0.134426 0.00201616 0)
(-0.140832 0.0018017 0)
(-0.146525 0.00159223 0)
(-0.15152 0.00138378 0)
(-0.155831 0.0011809 0)
(-0.159461 0.000975993 0)
(-0.162411 0.00077059 0)
(-0.164673 0.00056108 0)
(-0.166225 0.000348724 0)
(-0.167058 0.00013702 0)
(-0.167165 -9.21647e-05 0)
(-0.166463 -0.000330561 0)
(-0.16497 -0.000572439 0)
(-0.162638 -0.00081835 0)
(-0.159462 -0.00107449 0)
(-0.155422 -0.00133102 0)
(-0.150503 -0.00159876 0)
(-0.144697 -0.00186004 0)
(-0.137998 -0.0021206 0)
(-0.130406 -0.00239571 0)
(-0.121928 -0.00265048 0)
(-0.112575 -0.00289856 0)
(-0.102364 -0.00316826 0)
(-0.0913192 -0.00339897 0)
(-0.0794726 -0.00365632 0)
(-0.0668619 -0.00386147 0)
(-0.0535371 -0.0040473 0)
(-0.0395454 -0.0042675 0)
(-0.0248836 -0.00441017 0)
(-0.00960177 -0.00452938 0)
(0.00587002 -0.00467277 0)
(0.0214967 -0.00472602 0)
(0.0374841 -0.0048156 0)
(0.0535738 -0.0047936 0)
(0.0695999 -0.00472578 0)
(0.0854184 -0.00468369 0)
(0.100853 -0.0045186 0)
(0.117529 -0.0043029 0)
(0.165571 0.00879088 0)
(0.149972 0.00905828 0)
(0.131288 0.00937589 0)
(0.112205 0.00957076 0)
(0.093 0.00946503 0)
(0.0738913 0.00943133 0)
(0.0550712 0.00914122 0)
(0.0366906 0.00893343 0)
(0.0186051 0.00863513 0)
(0.00164573 0.00813753 0)
(-0.014035 0.00774519 0)
(-0.0291338 0.00731189 0)
(-0.0433022 0.00677775 0)
(-0.0564882 0.00630231 0)
(-0.0686631 0.00576659 0)
(-0.079829 0.00528573 0)
(-0.0899941 0.0048045 0)
(-0.0991763 0.00430723 0)
(-0.107406 0.00385123 0)
(-0.114714 0.00340648 0)
(-0.121132 0.0029665 0)
(-0.126698 0.00255537 0)
(-0.131446 0.00215844 0)
(-0.135408 0.00177367 0)
(-0.138617 0.0014064 0)
(-0.141105 0.00104935 0)
(-0.142903 0.000704916 0)
(-0.144 0.000378857 0)
(-0.144447 5.82713e-05 0)
(-0.144238 -0.000273289 0)
(-0.143367 -0.000603669 0)
(-0.141835 -0.000931875 0)
(-0.139637 -0.00126777 0)
(-0.136761 -0.00161347 0)
(-0.133192 -0.00196256 0)
(-0.128895 -0.00232129 0)
(-0.123844 -0.00270902 0)
(-0.118026 -0.00309174 0)
(-0.1114 -0.00349312 0)
(-0.103923 -0.00394342 0)
(-0.0955573 -0.00436433 0)
(-0.0862658 -0.00485769 0)
(-0.0759725 -0.00530491 0)
(-0.064763 -0.00574754 0)
(-0.0525575 -0.006281 0)
(-0.0391766 -0.00675078 0)
(-0.0250268 -0.00716223 0)
(-0.0101734 -0.00766887 0)
(0.0055213 -0.0080214 0)
(0.0219612 -0.00830604 0)
(0.0391492 -0.00869979 0)
(0.0569047 -0.00886436 0)
(0.0750351 -0.00907326 0)
(0.0933759 -0.0090843 0)
(0.111694 -0.00895796 0)
(0.12974 -0.00881363 0)
(0.147301 -0.00850141 0)
(0.164137 -0.00802986 0)
(0.179974 -0.00751291 0)
(0.194556 -0.00681055 0)
(0.207632 -0.00604113 0)
(0.219058 -0.00518412 0)
(0.228598 -0.00416798 0)
(0.236016 -0.00311844 0)
(0.241227 -0.00200263 0)
(0.24411 -0.000798753 0)
(0.244535 0.000349352 0)
(0.242453 0.00161325 0)
(0.237891 0.00273836 0)
(0.231075 0.00389856 0)
(0.222017 0.0050047 0)
(0.21077 0.00597084 0)
(0.197617 0.00689548 0)
(0.182731 0.00769696 0)
(0.166428 0.00833491 0)
(0.148898 0.00888335 0)
(0.130526 0.00923234 0)
(0.111496 0.00952505 0)
(0.0919786 0.0096938 0)
(0.0724267 0.0096761 0)
(0.0528807 0.00961725 0)
(0.0336319 0.00940714 0)
(0.0149003 0.00913671 0)
(-0.00318713 0.00879084 0)
(-0.0204835 0.00836786 0)
(-0.0370031 0.00794812 0)
(-0.0525212 0.00745905 0)
(-0.0670233 0.00692611 0)
(-0.0805187 0.00641595 0)
(-0.0929514 0.00590446 0)
(-0.104305 0.00535508 0)
(-0.114595 0.00482622 0)
(-0.123821 0.00431051 0)
(-0.131971 0.00377103 0)
(-0.139082 0.0032737 0)
(-0.145179 0.00278856 0)
(-0.150324 0.00233237 0)
(-0.154587 0.00190676 0)
(-0.158023 0.00149957 0)
(-0.160691 0.00113761 0)
(-0.1626 0.000757825 0)
(-0.163794 0.000425592 0)
(-0.164348 0.000117785 0)
(-0.164223 -0.000212445 0)
(-0.163497 -0.00047726 0)
(-0.162199 -0.000795935 0)
(-0.160306 -0.00107239 0)
(-0.157834 -0.00138243 0)
(-0.154758 -0.00167518 0)
(-0.151045 -0.00199293 0)
(-0.146682 -0.00233557 0)
(-0.141641 -0.00266499 0)
(-0.135889 -0.00303626 0)
(-0.129406 -0.00339112 0)
(-0.122168 -0.00377173 0)
(-0.114194 -0.00417717 0)
(-0.105411 -0.00452604 0)
(-0.0958156 -0.00494475 0)
(-0.0854391 -0.00533885 0)
(-0.0742365 -0.00576309 0)
(-0.0622658 -0.00612156 0)
(-0.0494947 -0.00652001 0)
(-0.0359447 -0.00690495 0)
(-0.0216931 -0.00725672 0)
(-0.00673284 -0.00757024 0)
(0.0088873 -0.00785786 0)
(0.0250166 -0.0081003 0)
(0.0415659 -0.00829016 0)
(0.0584027 -0.00838779 0)
(0.0753757 -0.00842291 0)
(0.0922896 -0.00833084 0)
(0.108943 -0.00814215 0)
(0.125091 -0.00783977 0)
(0.140475 -0.00740281 0)
(0.154854 -0.00681635 0)
(0.167951 -0.00612395 0)
(0.179495 -0.00529356 0)
(0.189251 -0.0043577 0)
(0.197003 -0.00331725 0)
(0.202571 -0.00218709 0)
(0.205793 -0.00100396 0)
(0.20659 0.000199247 0)
(0.204916 0.00142506 0)
(0.200732 0.00265028 0)
(0.194239 0.00378187 0)
(0.185501 0.00485734 0)
(0.174684 0.00584757 0)
(0.161941 0.00674606 0)
(0.14754 0.00750788 0)
(0.131726 0.00816616 0)
(0.114704 0.00867641 0)
(0.096754 0.00907722 0)
(0.0781839 0.00929645 0)
(0.0592892 0.00941581 0)
(0.0403428 0.00935415 0)
(0.0216084 0.00922265 0)
(0.00328402 0.00893807 0)
(-0.0144257 0.00860059 0)
(-0.0313673 0.0082118 0)
(-0.0474634 0.00774295 0)
(-0.0626012 0.00727145 0)
(-0.0767036 0.00671915 0)
(-0.0897283 0.00622246 0)
(-0.101638 0.00562191 0)
(-0.112467 0.00512244 0)
(-0.122204 0.00456617 0)
(-0.130946 0.00408966 0)
(-0.138735 0.00363725 0)
(-0.145584 0.00316946 0)
(-0.151567 0.00278963 0)
(-0.156764 0.00241081 0)
(-0.161329 0.00208497 0)
(-0.165233 0.00174454 0)
(-0.168446 0.00145353 0)
(-0.171017 0.00111851 0)
(-0.172968 0.000831121 0)
(-0.174385 0.000565721 0)
(-0.175258 0.000301481 0)
(-0.175557 3.03705e-05 0)
(-0.17534 -0.000231477 0)
(-0.174616 -0.000488265 0)
(-0.173331 -0.000772625 0)
(-0.171522 -0.00103227 0)
(-0.169114 -0.00134532 0)
(-0.166104 -0.00164646 0)
(-0.162447 -0.00198164 0)
(-0.15809 -0.00232235 0)
(-0.153031 -0.00270769 0)
(-0.147199 -0.00308052 0)
(-0.140571 -0.00346347 0)
(-0.133145 -0.00388979 0)
(-0.124838 -0.00434342 0)
(-0.115648 -0.00477478 0)
(-0.105539 -0.00525593 0)
(-0.094453 -0.00571853 0)
(-0.0824358 -0.00619616 0)
(-0.0694837 -0.00664548 0)
(-0.0555956 -0.00710727 0)
(-0.0408973 -0.00752572 0)
(-0.0253663 -0.00785691 0)
(-0.00909019 -0.00818805 0)
(0.00769335 -0.0084409 0)
(0.0249171 -0.00861747 0)
(0.0423879 -0.00869014 0)
(0.0599104 -0.00867258 0)
(0.0772828 -0.00852814 0)
(0.0942817 -0.00829967 0)
(0.11068 -0.00792501 0)
(0.126215 -0.00744194 0)
(0.140644 -0.00683064 0)
(0.153733 -0.00610816 0)
(0.165203 -0.00523924 0)
(0.174848 -0.00430122 0)
(0.182461 -0.00325464 0)
(0.187918 -0.0021614 0)
(0.191121 -0.000987442 0)
(0.191949 0.000149969 0)
(0.190411 0.0013418 0)
(0.186489 0.00251048 0)
(0.180295 0.00361605 0)
(0.171935 0.0046458 0)
(0.161617 0.00555252 0)
(0.14955 0.00636598 0)
(0.13602 0.00704047 0)
(0.121207 0.0076164 0)
(0.105378 0.00805081 0)
(0.088794 0.00836033 0)
(0.0716694 0.00857787 0)
(0.0542646 0.00868204 0)
(0.0367596 0.00866435 0)
(0.0193719 0.00855885 0)
(0.00227975 0.00837808 0)
(-0.0143732 0.00813597 0)
(-0.0304395 0.00782248 0)
(-0.0458522 0.00748007 0)
(-0.0605446 0.00707287 0)
(-0.0744054 0.00666158 0)
(-0.0874136 0.00626153 0)
(-0.0995539 0.00580111 0)
(-0.110807 0.00536084 0)
(-0.121216 0.00493619 0)
(-0.130756 0.00453006 0)
(-0.139422 0.0040783 0)
(-0.147205 0.00364631 0)
(-0.154122 0.00322613 0)
(-0.160232 0.00282988 0)
(-0.165543 0.00242064 0)
(-0.170043 0.00206538 0)
(-0.173758 0.00165665 0)
(-0.176768 0.00132814 0)
(-0.179095 0.000988916 0)
(-0.180771 0.000665372 0)
(-0.181749 0.000330774 0)
(-0.182078 1.8941e-05 0)
(-0.181786 -0.000295024 0)
(-0.18089 -0.000607453 0)
(-0.179348 -0.000906917 0)
(-0.177225 -0.00121508 0)
(-0.174463 -0.00151532 0)
(-0.171057 -0.00185266 0)
(-0.16701 -0.00217128 0)
(-0.162237 -0.00253459 0)
(-0.156778 -0.00287269 0)
(-0.150582 -0.00327109 0)
(-0.143564 -0.00363209 0)
(-0.135795 -0.00402844 0)
(-0.127248 -0.0044484 0)
(-0.117837 -0.00489009 0)
(-0.107543 -0.00525993 0)
(-0.0964223 -0.00566899 0)
(-0.0844866 -0.00611946 0)
(-0.0718052 -0.00652472 0)
(-0.0582009 -0.00686977 0)
(-0.0438609 -0.00734765 0)
(-0.0286654 -0.00763743 0)
(-0.0128288 -0.00805849 0)
(0.00399408 -0.00831138 0)
(0.0215507 -0.00858021 0)
(0.0391749 -0.00873245 0)
(0.0570703 -0.00886224 0)
(0.0750317 -0.00883348 0)
(0.0928626 -0.00871353 0)
(0.110278 -0.00850688 0)
(0.127089 -0.00805202 0)
(0.142884 -0.00758232 0)
(0.157553 -0.00688397 0)
(0.170694 -0.00606268 0)
(0.182057 -0.0051821 0)
(0.19151 -0.00409817 0)
(0.198733 -0.00303839 0)
(0.203705 -0.00181893 0)
(0.206177 -0.000549247 0)
(0.206108 0.000665683 0)
(0.203529 0.00193501 0)
(0.198398 0.00316762 0)
(0.190902 0.00425539 0)
(0.181246 0.00529508 0)
(0.169646 0.00626785 0)
(0.15635 0.00697376 0)
(0.141592 0.00763995 0)
(0.125634 0.00807322 0)
(0.108916 0.00845721 0)
(0.0915303 0.00870499 0)
(0.0738002 0.00873766 0)
(0.0560748 0.00878698 0)
(0.0382819 0.00865375 0)
(0.0209339 0.00844905 0)
(0.0045853 0.00816508 0)
(-0.0110497 0.00782174 0)
(-0.0262619 0.0074892 0)
(-0.0408175 0.00711208 0)
(-0.0545912 0.00666778 0)
(-0.0675376 0.00625411 0)
(-0.0796309 0.00582653 0)
(-0.0908546 0.0053734 0)
(-0.101219 0.00495366 0)
(-0.110737 0.00452332 0)
(-0.119437 0.00412721 0)
(-0.127344 0.00374187 0)
(-0.134484 0.0033599 0)
(-0.140889 0.0030026 0)
(-0.14658 0.00265364 0)
(-0.151574 0.00230628 0)
(-0.155884 0.00196825 0)
(-0.159515 0.00162664 0)
(-0.162464 0.0012849 0)
(-0.164726 0.000936029 0)
(-0.166284 0.000580936 0)
(-0.16712 0.000228921 0)
(-0.167226 -0.000153414 0)
(-0.166527 -0.00055101 0)
(-0.165035 -0.000953886 0)
(-0.162704 -0.00136365 0)
(-0.15953 -0.0017906 0)
(-0.155491 -0.00221821 0)
(-0.150573 -0.00266452 0)
(-0.144768 -0.00310005 0)
(-0.138068 -0.00353435 0)
(-0.130476 -0.00399297 0)
(-0.121997 -0.00441767 0)
(-0.112642 -0.0048312 0)
(-0.10243 -0.0052808 0)
(-0.0913821 -0.00566542 0)
(-0.0795332 -0.00609447 0)
(-0.0669182 -0.00643647 0)
(-0.0535885 -0.0067463 0)
(-0.0395922 -0.00711348 0)
(-0.0249244 -0.00735163 0)
(-0.00963403 -0.00755069 0)
(0.00584579 -0.00778888 0)
(0.0214802 -0.0078781 0)
(0.0374774 -0.00802776 0)
(0.0535784 -0.00799124 0)
(0.0696164 -0.00787834 0)
(0.0854485 -0.0078084 0)
(0.100896 -0.00753332 0)
(0.117588 -0.0071739 0)
(0.165675 0.0123147 0)
(0.150046 0.0126886 0)
(0.131333 0.0131331 0)
(0.112221 0.0134056 0)
(0.0929891 0.0132568 0)
(0.0738564 0.013209 0)
(0.0550175 0.0128018 0)
(0.0366176 0.0125108 0)
(0.0185121 0.0120939 0)
(0.00154424 0.0113931 0)
(-0.0141423 0.0108446 0)
(-0.0292483 0.010238 0)
(-0.0434194 0.00948953 0)
(-0.0566084 0.00882347 0)
(-0.0687819 0.00807306 0)
(-0.0799474 0.0073996 0)
(-0.0901105 0.0067257 0)
(-0.0992885 0.00602932 0)
(-0.107515 0.00539089 0)
(-0.11482 0.00476821 0)
(-0.121233 0.00415225 0)
(-0.126795 0.00357672 0)
(-0.131539 0.00302113 0)
(-0.135496 0.00248263 0)
(-0.138702 0.00196882 0)
(-0.141186 0.00146992 0)
(-0.142981 0.000988459 0)
(-0.144081 0.000530219 0)
(-0.144528 7.81184e-05 0)
(-0.144316 -0.000384275 0)
(-0.143445 -0.000844944 0)
(-0.141914 -0.00130437 0)
(-0.139718 -0.00177395 0)
(-0.136844 -0.00225856 0)
(-0.133277 -0.00274692 0)
(-0.128982 -0.00324873 0)
(-0.123936 -0.00379208 0)
(-0.118122 -0.00432868 0)
(-0.111499 -0.00488878 0)
(-0.104026 -0.00551976 0)
(-0.0956633 -0.0061092 0)
(-0.086377 -0.00680041 0)
(-0.0760863 -0.00742564 0)
(-0.0648753 -0.00804716 0)
(-0.0526743 -0.00879485 0)
(-0.0392934 -0.00944865 0)
(-0.0251326 -0.0100297 0)
(-0.0102703 -0.0107391 0)
(0.00543218 -0.0112319 0)
(0.0218828 -0.0116322 0)
(0.0390876 -0.0121841 0)
(0.0568629 -0.0124148 0)
(0.0750172 -0.0127082 0)
(0.0933814 -0.0127252 0)
(0.111725 -0.0125484 0)
(0.1298 -0.0123467 0)
(0.147388 -0.011911 0)
(0.164255 -0.0112461 0)
(0.180121 -0.0105252 0)
(0.19473 -0.00954798 0)
(0.207829 -0.00846833 0)
(0.219275 -0.00726219 0)
(0.228845 -0.00584513 0)
(0.236275 -0.00436919 0)
(0.241496 -0.00281569 0)
(0.244396 -0.00112033 0)
(0.244806 0.000493675 0)
(0.242709 0.00225801 0)
(0.23816 0.00383271 0)
(0.231339 0.00546226 0)
(0.222259 0.00701003 0)
(0.210992 0.00836438 0)