/*--------------------------------*- C++ -*----------------------------------*\
| =========                 |                                                 |
| \\      /  F ield         | OpenFOAM: The Open Source CFD Toolbox           |
|  \\    /   O peration     | Version:  3.0.1                                 |
|   \\  /    A nd           | Web:      www.OpenFOAM.org                      |
|    \\/     M anipulation  |                                                 |
\*---------------------------------------------------------------------------*/
FoamFile
{
    version     2.0;
    format      ascii;
    class       volVectorField;
    location    "20.2";
    object      U;
}
// * * * * * * * * * * * * * * * * * * * * * * * * * * * * * * * * * * * * * //

dimensions      [0 1 -1 0 0 0 0];

internalField   nonuniform List<vector> 
21420
(
(-0.0229573 0.0017006 0)
(-0.0371027 0.00160791 0)
(-0.0527792 0.00152937 0)
(-0.0676413 0.00144257 0)
(-0.0815909 0.00133699 0)
(-0.0945776 0.00124349 0)
(-0.106582 0.00113842 0)
(-0.117601 0.00104433 0)
(-0.127646 0.000950292 0)
(-0.136733 0.000852862 0)
(-0.144887 0.000763629 0)
(-0.152141 0.000676487 0)
(-0.158523 0.000589987 0)
(-0.164065 0.000509059 0)
(-0.168799 0.000429546 0)
(-0.172753 0.000353914 0)
(-0.175954 0.000280057 0)
(-0.178429 0.000207518 0)
(-0.180203 0.000136864 0)
(-0.181238 7.08817e-05 0)
(-0.181609 3.06681e-06 0)
(-0.181279 -6.7513e-05 0)
(-0.180252 -0.000137622 0)
(-0.178519 -0.000208558 0)
(-0.176066 -0.000280475 0)
(-0.172874 -0.000355805 0)
(-0.168926 -0.000431845 0)
(-0.164191 -0.000510046 0)
(-0.158641 -0.000594655 0)
(-0.152249 -0.000678416 0)
(-0.144974 -0.000765142 0)
(-0.136778 -0.000862016 0)
(-0.127637 -0.00095376 0)
(-0.117523 -0.00105861 0)
(-0.106408 -0.00115249 0)
(-0.0942907 -0.00124687 0)
(-0.0811505 -0.00135849 0)
(-0.0669777 -0.00144713 0)
(-0.0518182 -0.00152915 0)
(-0.035644 -0.00164057 0)
(-0.018714 -0.00170918 0)
(-0.00122595 -0.00179606 0)
(0.0169698 -0.00184194 0)
(0.0357136 -0.0018661 0)
(0.0547675 -0.00190546 0)
(0.0739482 -0.00189476 0)
(0.0929964 -0.00185752 0)
(0.11166 -0.00181972 0)
(0.129689 -0.00173833 0)
(0.146798 -0.00162732 0)
(0.162724 -0.0015052 0)
(0.177192 -0.00134598 0)
(0.189948 -0.00117452 0)
(0.20081 -0.000976302 0)
(0.209557 -0.000754676 0)
(0.21605 -0.000529979 0)
(0.220156 -0.000296419 0)
(0.221813 -4.72322e-05 0)
(0.221144 0.000184861 0)
(0.21795 0.000432033 0)
(0.212391 0.000649474 0)
(0.204631 0.000867187 0)
(0.194764 0.0010779 0)
(0.182992 0.00125251 0)
(0.169362 0.00141574 0)
(0.154346 0.00156265 0)
(0.138196 0.00167011 0)
(0.120733 0.00175897 0)
(0.102629 0.00181644 0)
(0.0841453 0.00186975 0)
(0.065284 0.00188231 0)
(0.046348 0.00187303 0)
(0.0274634 0.00185021 0)
(0.00914525 0.00179501 0)
(-0.00856154 0.00173993 0)
(-0.0258237 0.00167285 0)
(-0.0423954 0.00159398 0)
(-0.0581322 0.00151737 0)
(-0.0729176 0.0014207 0)
(-0.0868439 0.00133188 0)
(-0.0999028 0.00124336 0)
(-0.111932 0.00114634 0)
(-0.123023 0.00105342 0)
(-0.133251 0.000964356 0)
(-0.142556 0.00086705 0)
(-0.150925 0.000781233 0)
(-0.15835 0.000696514 0)
(-0.164876 0.000602184 0)
(-0.170497 0.000513315 0)
(-0.175187 0.00042071 0)
(-0.179039 0.000334009 0)
(-0.182072 0.000262179 0)
(-0.184248 0.000175228 0)
(-0.185566 9.42428e-05 0)
(-0.186158 1.37121e-05 0)
(-0.185811 -6.47854e-05 0)
(-0.184837 -0.000125149 0)
(-0.183262 -0.000200481 0)
(-0.180813 -0.000278473 0)
(-0.177751 -0.000327572 0)
(-0.174144 -0.000389157 0)
(-0.169688 -0.000482106 0)
(-0.164505 -0.000552975 0)
(-0.158554 -0.000628786 0)
(-0.151707 -0.00072296 0)
(-0.144016 -0.000802005 0)
(-0.135437 -0.000893643 0)
(-0.125947 -0.000987616 0)
(-0.115569 -0.00106954 0)
(-0.104289 -0.00116572 0)
(-0.0920814 -0.00125242 0)
(-0.0789589 -0.00134039 0)
(-0.0649844 -0.00142985 0)
(-0.0501736 -0.00150571 0)
(-0.0346003 -0.00158227 0)
(-0.0183495 -0.00164955 0)
(-0.00144439 -0.00169814 0)
(0.0159681 -0.00174462 0)
(0.0337403 -0.00177515 0)
(0.0517393 -0.0017941 0)
(0.0698205 -0.00179038 0)
(0.0877623 -0.00177505 0)
(0.105428 -0.00172715 0)
(0.122532 -0.00166099 0)
(0.138816 -0.00157299 0)
(0.154061 -0.00144863 0)
(0.167998 -0.0013066 0)
(0.18036 -0.00113991 0)
(0.190917 -0.00094367 0)
(0.199417 -0.000740999 0)
(0.205728 -0.00051261 0)
(0.209718 -0.000276326 0)
(0.211277 -3.48711e-05 0)
(0.210428 0.000210356 0)
(0.206983 0.000457684 0)
(0.201192 0.000687253 0)
(0.193127 0.000909069 0)
(0.182932 0.00111555 0)
(0.170736 0.00129738 0)
(0.156802 0.00145568 0)
(0.141425 0.00159748 0)
(0.124756 0.00170458 0)
(0.107121 0.00179053 0)
(0.0888072 0.00184726 0)
(0.0699489 0.001881 0)
(0.0509335 0.00188549 0)
(0.032077 0.00186511 0)
(0.0134492 0.00183426 0)
(-0.00479144 0.00178408 0)
(-0.0224999 0.00171696 0)
(-0.0393909 0.00164315 0)
(-0.0553342 0.00153394 0)
(-0.0704772 0.00145487 0)
(-0.0845673 0.00134232 0)
(-0.097476 0.00122495 0)
(-0.109362 0.00112395 0)
(-0.120122 0.00101894 0)
(-0.129837 0.000911033 0)
(-0.13864 0.000823659 0)
(-0.146381 0.000721785 0)
(-0.153163 0.000628861 0)
(-0.159118 0.000549087 0)
(-0.164226 0.000465269 0)
(-0.168544 0.000391255 0)
(-0.172125 0.000318987 0)
(-0.175011 0.000254424 0)
(-0.177232 0.00019032 0)
(-0.178779 0.000120931 0)
(-0.179651 5.25609e-05 0)
(-0.179995 8.33803e-06 0)
(-0.179732 -5.96237e-05 0)
(-0.178676 -0.000135829 0)
(-0.177059 -0.000190744 0)
(-0.174896 -0.00024061 0)
(-0.172001 -0.000325916 0)
(-0.168424 -0.000388755 0)
(-0.163921 -0.00049332 0)
(-0.15854 -0.000561908 0)
(-0.152524 -0.000641822 0)
(-0.145589 -0.000730979 0)
(-0.137802 -0.000820822 0)
(-0.129105 -0.000901181 0)
(-0.119464 -0.0009968 0)
(-0.108985 -0.00108399 0)
(-0.0975328 -0.00118438 0)
(-0.0851088 -0.00127203 0)
(-0.0718367 -0.0013632 0)
(-0.0577046 -0.00145096 0)
(-0.0426777 -0.00152497 0)
(-0.0268633 -0.00159954 0)
(-0.0104119 -0.00166306 0)
(0.00665672 -0.00171265 0)
(0.0241599 -0.00175389 0)
(0.0419711 -0.00178188 0)
(0.059939 -0.00178267 0)
(0.0778683 -0.0017677 0)
(0.0955251 -0.00173192 0)
(0.112706 -0.0016748 0)
(0.129193 -0.00159156 0)
(0.144758 -0.00148681 0)
(0.159133 -0.0013572 0)
(0.172065 -0.00120525 0)
(0.183352 -0.0010284 0)
(0.192767 -0.000832591 0)
(0.200116 -0.000618937 0)
(0.205233 -0.000393383 0)
(0.208019 -0.000162544 0)
(0.208406 7.88396e-05 0)
(0.206362 0.000323901 0)
(0.201816 0.000566943 0)
(0.194942 0.000795346 0)
(0.18579 0.00101002 0)
(0.174565 0.00121211 0)
(0.16146 0.00139475 0)
(0.146632 0.00154225 0)
(0.130468 0.00165909 0)
(0.113245 0.00175117 0)
(0.0951551 0.00182492 0)
(0.0766222 0.00186219 0)
(0.0577873 0.00186992 0)
(0.0389858 0.00185827 0)
(0.020571 0.00181037 0)
(0.00244744 0.0017652 0)
(-0.0148747 0.00167588 0)
(-0.0312005 0.0015746 0)
(-0.0467484 0.001493 0)
(-0.0612496 0.0013934 0)
(-0.0747367 0.00128612 0)
(-0.0872525 0.00118795 0)
(-0.0986198 0.00107967 0)
(-0.109082 0.000993741 0)
(-0.11864 0.000899308 0)
(-0.127204 0.00080874 0)
(-0.134952 0.000730767 0)
(-0.141919 0.000649871 0)
(-0.148199 0.000583372 0)
(-0.153809 0.000522808 0)
(-0.158681 0.00045607 0)
(-0.162979 0.00039817 0)
(-0.166758 0.000342248 0)
(-0.169872 0.000283602 0)
(-0.172359 0.000221253 0)
(-0.174364 0.000165431 0)
(-0.175742 0.000103587 0)
(-0.176427 3.92106e-05 0)
(-0.176497 -2.95422e-05 0)
(-0.175659 -0.000118905 0)
(-0.174109 -0.000188073 0)
(-0.171923 -0.000257584 0)
(-0.168754 -0.000356639 0)
(-0.164648 -0.000448346 0)
(-0.159723 -0.000538165 0)
(-0.153893 -0.000624752 0)
(-0.147074 -0.000724662 0)
(-0.139103 -0.000843403 0)
(-0.130086 -0.000938169 0)
(-0.120101 -0.001043 0)
(-0.10904 -0.00114208 0)
(-0.0969944 -0.00124652 0)
(-0.0839731 -0.00134134 0)
(-0.0699938 -0.0014324 0)
(-0.0551588 -0.00151195 0)
(-0.0395653 -0.00158903 0)
(-0.0232332 -0.00164266 0)
(-0.00629848 -0.00169821 0)
(0.0110707 -0.00173746 0)
(0.0287367 -0.00175443 0)
(0.046542 -0.00176354 0)
(0.0643155 -0.0017494 0)
(0.0819024 -0.00171376 0)
(0.0990784 -0.00166365 0)
(0.115599 -0.00159714 0)
(0.131343 -0.00150319 0)
(0.146168 -0.00139564 0)
(0.159808 -0.00127088 0)
(0.172063 -0.00112937 0)
(0.182833 -0.000971408 0)
(0.191973 -0.00079781 0)
(0.199284 -0.000611685 0)
(0.204676 -0.000421062 0)
(0.208066 -0.000215349 0)
(0.209398 -1.3495e-05 0)
(0.208767 0.000199716 0)
(0.205965 0.000413599 0)
(0.201049 0.000611021 0)
(0.194098 0.000809252 0)
(0.185158 0.00100064 0)
(0.174464 0.00117013 0)
(0.161943 0.00133089 0)
(0.147944 0.00146322 0)
(0.132769 0.00159205 0)
(0.116266 0.00169312 0)
(0.0988543 0.00175829 0)
(0.0808224 0.00182006 0)
(0.0622904 0.00185527 0)
(0.0435063 0.00185702 0)
(0.0247498 0.00185773 0)
(0.00695258 0.00182758 0)
(-0.0100936 0.00177888 0)
(-0.0271205 0.00172389 0)
(-0.0437043 0.00164428 0)
(-0.0596135 0.00156468 0)
(-0.0747108 0.00147363 0)
(-0.0888874 0.0013713 0)
(-0.10208 0.00127036 0)
(-0.114248 0.00116521 0)
(-0.125369 0.00105687 0)
(-0.135434 0.000952878 0)
(-0.144453 0.000846919 0)
(-0.152438 0.000745928 0)
(-0.159414 0.000646657 0)
(-0.165417 0.000550387 0)
(-0.170473 0.000458343 0)
(-0.174615 0.000369408 0)
(-0.177892 0.000283385 0)
(-0.180328 0.000201766 0)
(-0.181958 0.000121701 0)
(-0.182828 4.79135e-05 0)
(-0.182953 -2.5855e-05 0)
(-0.182307 -9.83497e-05 0)
(-0.180956 -0.000168448 0)
(-0.178882 -0.000238816 0)
(-0.176107 -0.000310062 0)
(-0.172625 -0.000380171 0)
(-0.168425 -0.000453472 0)
(-0.163494 -0.000526231 0)
(-0.157801 -0.000601133 0)
(-0.151327 -0.000682493 0)
(-0.144053 -0.000761707 0)
(-0.135946 -0.00084309 0)
(-0.126974 -0.000934937 0)
(-0.117114 -0.00102082 0)
(-0.106339 -0.00110847 0)
(-0.0946232 -0.00121025 0)
(-0.0819584 -0.00129896 0)
(-0.0683362 -0.00140391 0)
(-0.053766 -0.00148976 0)
(-0.0382939 -0.00157016 0)
(-0.0219409 -0.00166906 0)
(-0.00481886 -0.00173286 0)
(0.0129756 -0.00178472 0)
(0.0313839 -0.00185638 0)
(0.0502341 -0.00187833 0)
(0.0693451 -0.00191705 0)
(0.0885162 -0.00189895 0)
(0.107509 -0.00185589 0)
(0.126083 -0.00182402 0)
(0.143978 -0.00173052 0)
(0.160911 -0.00161083 0)
(0.176606 -0.00149206 0)
(0.190801 -0.00132188 0)
(0.203237 -0.00114594 0)
(0.213683 -0.00093205 0)
(0.221932 -0.000703148 0)
(0.227816 -0.000464201 0)
(0.231224 -0.000212036 0)
(0.231606 4.03557e-05 0)
(-0.0229871 0.00510221 0)
(-0.0371344 0.00482404 0)
(-0.0528139 0.00458834 0)
(-0.0676783 0.00432786 0)
(-0.0816285 0.00401106 0)
(-0.094616 0.00373052 0)
(-0.10662 0.00341524 0)
(-0.117639 0.00313295 0)
(-0.127683 0.0028508 0)
(-0.136768 0.00255849 0)
(-0.144922 0.00229077 0)
(-0.152175 0.00202933 0)
(-0.158555 0.00176985 0)
(-0.164097 0.00152698 0)
(-0.168829 0.00128843 0)
(-0.172783 0.00106155 0)
(-0.175982 0.000840135 0)
(-0.178457 0.000622446 0)
(-0.18023 0.000409944 0)
(-0.181266 0.000211794 0)
(-0.181636 9.74868e-06 0)
(-0.181307 -0.000202572 0)
(-0.18028 -0.000412975 0)
(-0.178548 -0.000625706 0)
(-0.176096 -0.000841411 0)
(-0.172905 -0.0010673 0)
(-0.168958 -0.00129541 0)
(-0.164224 -0.00153002 0)
(-0.158676 -0.00178381 0)
(-0.152286 -0.00203508 0)
(-0.145012 -0.00229524 0)
(-0.136818 -0.00258589 0)
(-0.127679 -0.00286106 0)
(-0.117566 -0.00317569 0)
(-0.106453 -0.00345737 0)
(-0.0943355 -0.0037406 0)
(-0.0811959 -0.00407554 0)
(-0.0670223 -0.00434148 0)
(-0.0518625 -0.00458785 0)
(-0.0356871 -0.00492163 0)
(-0.018752 -0.00512847 0)
(-0.00125982 -0.00538839 0)
(0.0169409 -0.00552627 0)
(0.0356911 -0.00559903 0)
(0.0547533 -0.00571726 0)
(0.0739426 -0.00568558 0)
(0.0930013 -0.00557274 0)
(0.111675 -0.00546208 0)
(0.129717 -0.00521564 0)
(0.146837 -0.00488311 0)
(0.162774 -0.00451722 0)
(0.177255 -0.0040391 0)
(0.190024 -0.00352196 0)
(0.200887 -0.00293799 0)
(0.209659 -0.00226138 0)
(0.216155 -0.00158802 0)
(0.220266 -0.000891013 0)
(0.22193 -0.000144454 0)
(0.221257 0.000552582 0)
(0.218061 0.00129541 0)
(0.212506 0.00194796 0)
(0.204743 0.00260167 0)
(0.194871 0.00323373 0)
(0.183092 0.00375885 0)
(0.169452 0.00424831 0)
(0.154425 0.00468847 0)
(0.138263 0.00501205 0)
(0.120787 0.0052784 0)
(0.102673 0.00545114 0)
(0.0841747 0.00561131 0)
(0.0652972 0.00564875 0)
(0.0463509 0.00562168 0)
(0.0274504 0.00555228 0)
(0.00912146 0.00538372 0)
(-0.00858845 0.00522376 0)
(-0.0258627 0.0050193 0)
(-0.0424402 0.00478359 0)
(-0.0581843 0.00455421 0)
(-0.0729772 0.00426284 0)
(-0.0869088 0.00400085 0)
(-0.0999754 0.00373221 0)
(-0.112006 0.00343507 0)
(-0.1231 0.00316206 0)
(-0.133335 0.00289128 0)
(-0.142643 0.00259919 0)
(-0.151012 0.00234591 0)
(-0.158442 0.00209297 0)
(-0.16497 0.00180456 0)
(-0.170585 0.00153511 0)
(-0.175272 0.00126174 0)
(-0.179122 0.00101121 0)
(-0.182164 0.000783708 0)
(-0.184347 0.00051988 0)
(-0.185664 0.000270387 0)
(-0.186233 5.14658e-05 0)
(-0.1859 -0.000209256 0)
(-0.18491 -0.000374374 0)
(-0.183328 -0.000586308 0)
(-0.180887 -0.000835588 0)
(-0.177829 -0.000991128 0)
(-0.174223 -0.00117027 0)
(-0.169756 -0.0014449 0)
(-0.164579 -0.00165703 0)
(-0.158625 -0.00188495 0)
(-0.151762 -0.00216381 0)
(-0.144087 -0.00242304 0)
(-0.135488 -0.00267814 0)
(-0.125994 -0.00296146 0)
(-0.115623 -0.00321654 0)
(-0.104342 -0.00350306 0)
(-0.092126 -0.00375826 0)
(-0.0790075 -0.00403598 0)
(-0.0650187 -0.00428888 0)
(-0.0502049 -0.00451705 0)
(-0.0346223 -0.00474668 0)
(-0.0183496 -0.00494087 0)
(-0.00145361 -0.00510259 0)
(0.0159624 -0.00524213 0)
(0.0337485 -0.00532795 0)
(0.0517662 -0.00537589 0)
(0.0698491 -0.00537638 0)
(0.0878198 -0.00531693 0)
(0.105486 -0.00518348 0)
(0.122606 -0.00498078 0)
(0.138905 -0.00470948 0)
(0.154157 -0.00435752 0)
(0.168114 -0.0039181 0)
(0.180482 -0.00342147 0)
(0.191031 -0.00285115 0)
(0.199565 -0.0022063 0)
(0.205874 -0.00153855 0)
(0.209862 -0.000834951 0)
(0.21142 -0.000110736 0)
(0.210558 0.000626637 0)
(0.207114 0.00137243 0)
(0.201329 0.00207201 0)
(0.193249 0.0027292 0)
(0.18303 0.00334062 0)
(0.170831 0.00389265 0)
(0.156888 0.00437837 0)
(0.141484 0.00479011 0)
(0.124804 0.00511462 0)
(0.107156 0.00537821 0)
(0.0888238 0.00554672 0)
(0.0699453 0.00564574 0)
(0.0509166 0.00566228 0)
(0.0320442 0.00558969 0)
(0.0134012 0.00550465 0)
(-0.00485224 0.00534772 0)
(-0.0225692 0.00514729 0)
(-0.0394653 0.00492748 0)
(-0.0554031 0.00462078 0)
(-0.0705689 0.00436152 0)
(-0.0846655 0.00402017 0)
(-0.0975618 0.00368745 0)
(-0.10946 0.00337595 0)
(-0.120225 0.00305396 0)
(-0.129938 0.00273443 0)
(-0.138752 0.00246296 0)
(-0.146486 0.00215797 0)
(-0.153252 0.00189633 0)
(-0.159209 0.00164859 0)
(-0.164312 0.00139814 0)
(-0.168629 0.001172 0)
(-0.172206 0.000949803 0)
(-0.175099 0.00076066 0)
(-0.177327 0.000561179 0)
(-0.178856 0.000365353 0)
(-0.179711 0.000172821 0)
(-0.180066 2.64022e-05 0)
(-0.17982 -0.000179816 0)
(-0.178758 -0.000410521 0)
(-0.177133 -0.000577865 0)
(-0.174962 -0.000720275 0)
(-0.172063 -0.000972486 0)
(-0.168496 -0.00116982 0)
(-0.163997 -0.00148451 0)
(-0.158622 -0.00170064 0)
(-0.152583 -0.00191469 0)
(-0.145653 -0.00219567 0)
(-0.137856 -0.00246561 0)
(-0.12916 -0.00270646 0)
(-0.119516 -0.00299408 0)
(-0.109035 -0.00325398 0)
(-0.0975741 -0.00354657 0)
(-0.0851575 -0.00382737 0)
(-0.0718739 -0.00409379 0)
(-0.0577308 -0.00434977 0)
(-0.0426982 -0.00457303 0)
(-0.0268774 -0.00480046 0)
(-0.0104189 -0.00499159 0)
(0.00664703 -0.00515229 0)
(0.0241674 -0.00525902 0)
(0.0419912 -0.00533977 0)
(0.0599704 -0.00534541 0)
(0.0779092 -0.00530776 0)
(0.0955851 -0.00519669 0)
(0.112766 -0.00504016 0)
(0.129275 -0.00477647 0)
(0.144845 -0.00446717 0)
(0.15923 -0.00407198 0)
(0.172184 -0.00360954 0)
(0.183472 -0.00309228 0)
(0.192889 -0.00250669 0)
(0.20024 -0.001868 0)
(0.205383 -0.0011745 0)
(0.208173 -0.000475988 0)
(0.208551 0.000230821 0)
(0.206491 0.000971242 0)
(0.201948 0.00170008 0)
(0.195067 0.00238773 0)
(0.185909 0.0030337 0)
(0.174665 0.00363467 0)
(0.161534 0.00417126 0)
(0.146705 0.00463469 0)
(0.130528 0.00499516 0)
(0.113285 0.00525437 0)
(0.0951805 0.00547517 0)
(0.0766273 0.00559079 0)
(0.0577717 0.00560977 0)
(0.0389521 0.00557729 0)
(0.0205267 0.0054279 0)
(0.00239041 0.0052985 0)
(-0.0149463 0.00503047 0)
(-0.0312704 0.00473711 0)
(-0.0468303 0.00447495 0)
(-0.0613367 0.00417496 0)
(-0.0748299 0.0038638 0)
(-0.0873515 0.00356746 0)
(-0.0987138 0.00323094 0)
(-0.109174 0.00298244 0)
(-0.118739 0.00269971 0)
(-0.127303 0.00242233 0)
(-0.135044 0.00219208 0)
(-0.142004 0.00196095 0)
(-0.148281 0.00174344 0)
(-0.153885 0.00157159 0)
(-0.158759 0.00137309 0)
(-0.163063 0.00119816 0)
(-0.166846 0.00102871 0)
(-0.169963 0.000843001 0)
(-0.172439 0.000657447 0)
(-0.17443 0.000506903 0)
(-0.175818 0.000314006 0)
(-0.176505 0.000111632 0)
(-0.176575 -8.63103e-05 0)
(-0.175747 -0.000367586 0)
(-0.174171 -0.000554371 0)
(-0.172001 -0.000777143 0)
(-0.168831 -0.00106769 0)
(-0.164726 -0.001356 0)
(-0.159796 -0.00160751 0)
(-0.153964 -0.00187511 0)
(-0.147145 -0.00217488 0)
(-0.139174 -0.0025385 0)
(-0.130159 -0.00282598 0)
(-0.120166 -0.00313036 0)
(-0.109113 -0.00344355 0)
(-0.0970404 -0.0037342 0)
(-0.0840078 -0.00400777 0)
(-0.070028 -0.00429082 0)
(-0.0551927 -0.00453399 0)
(-0.039588 -0.00476984 0)
(-0.0232568 -0.00494567 0)
(-0.00630416 -0.00509211 0)
(0.0110746 -0.00521114 0)
(0.0287483 -0.00526829 0)
(0.0465613 -0.00529584 0)
(0.0643447 -0.0052552 0)
(0.0819459 -0.00514443 0)
(0.0991344 -0.00498906 0)
(0.115663 -0.0047946 0)
(0.131417 -0.00451223 0)
(0.14625 -0.00418683 0)
(0.159891 -0.00381657 0)
(0.172153 -0.00339263 0)
(0.182936 -0.00290884 0)
(0.192079 -0.00239333 0)
(0.199394 -0.00183676 0)
(0.204791 -0.00126545 0)
(0.208185 -0.000648518 0)
(0.209521 -4.11113e-05 0)
(0.208881 0.000597977 0)
(0.206076 0.00124056 0)
(0.201162 0.0018336 0)
(0.19421 0.00242978 0)
(0.185263 0.00300218 0)
(0.174562 0.00351064 0)
(0.162033 0.00399401 0)
(0.148028 0.00439073 0)
(0.132843 0.0047781 0)
(0.116327 0.00508079 0)
(0.0989067 0.0052767 0)
(0.0808636 0.0054609 0)
(0.0623205 0.00556579 0)
(0.0435274 0.00556969 0)
(0.02476 0.00557192 0)
(0.00695392 0.00548127 0)
(-0.0100984 0.00533922 0)
(-0.0271333 0.00517093 0)
(-0.0437231 0.00493424 0)
(-0.0596383 0.00469457 0)
(-0.0747395 0.00442196 0)
(-0.0889194 0.00411377 0)
(-0.102115 0.00381136 0)
(-0.114285 0.00349637 0)
(-0.125406 0.00317142 0)
(-0.135471 0.00285841 0)
(-0.144491 0.00254088 0)
(-0.152476 0.00223784 0)
(-0.159451 0.00194082 0)
(-0.165454 0.00165117 0)
(-0.170508 0.00137516 0)
(-0.174648 0.00110841 0)
(-0.177924 0.000851468 0)
(-0.180362 0.000604403 0)
(-0.181993 0.000364784 0)
(-0.182858 0.000143947 0)
(-0.182982 -7.74549e-05 0)
(-0.182336 -0.000295184 0)
(-0.180986 -0.000505402 0)
(-0.178912 -0.000716398 0)
(-0.176136 -0.000930258 0)
(-0.172655 -0.00114052 0)
(-0.168456 -0.00136042 0)
(-0.163525 -0.00157865 0)
(-0.157834 -0.00180329 0)
(-0.151361 -0.00204736 0)
(-0.144088 -0.0022849 0)
(-0.135982 -0.00252912 0)
(-0.127012 -0.00280468 0)
(-0.117153 -0.00306233 0)
(-0.106378 -0.00332529 0)
(-0.0946632 -0.00363066 0)
(-0.0819982 -0.00389684 0)
(-0.0683762 -0.00421178 0)
(-0.0538048 -0.00446938 0)
(-0.0383305 -0.00471065 0)
(-0.0219749 -0.00500746 0)
(-0.00484877 -0.005199 0)
(0.0129504 -0.00535463 0)
(0.0313642 -0.00556978 0)
(0.0502216 -0.00563574 0)
(0.0693408 -0.00575201 0)
(0.0885209 -0.0056978 0)
(0.107523 -0.00556867 0)
(0.126108 -0.00547311 0)
(0.144014 -0.00519268 0)
(0.160957 -0.00483357 0)
(0.176665 -0.00447726 0)
(0.190868 -0.00396665 0)
(0.203316 -0.00343874 0)
(0.213769 -0.00279697 0)
(0.222024 -0.00211008 0)
(0.227914 -0.00139304 0)
(0.231325 -0.000636344 0)
(0.231708 0.000121033 0)
(-0.0230475 0.00850503 0)
(-0.0371994 0.00804107 0)
(-0.0528852 0.00764795 0)
(-0.067754 0.00721358 0)
(-0.0817054 0.00668535 0)
(-0.0946945 0.0062176 0)
(-0.106698 0.00569199 0)
(-0.117716 0.0052214 0)
(-0.127759 0.00475106 0)
(-0.136842 0.0042638 0)
(-0.144994 0.00381754 0)
(-0.152243 0.00338182 0)
(-0.158621 0.00294936 0)
(-0.16416 0.00254452 0)
(-0.168891 0.00214698 0)
(-0.172842 0.00176894 0)
(-0.17604 0.00140007 0)
(-0.178511 0.00103744 0)
(-0.180283 0.000683666 0)
(-0.181322 0.000353609 0)
(-0.181694 1.44712e-05 0)
(-0.181362 -0.000338343 0)
(-0.180336 -0.000688374 0)
(-0.178605 -0.0010427 0)
(-0.176154 -0.00140212 0)
(-0.172965 -0.00177839 0)
(-0.16902 -0.00215859 0)
(-0.164288 -0.0025497 0)
(-0.158743 -0.00297263 0)
(-0.152355 -0.00339139 0)
(-0.145083 -0.00382499 0)
(-0.136893 -0.00430948 0)
(-0.127755 -0.00476807 0)
(-0.117645 -0.00529261 0)
(-0.106532 -0.00576207 0)
(-0.0944142 -0.00623459 0)
(-0.0812744 -0.00679297 0)
(-0.0670978 -0.00723639 0)
(-0.0519358 -0.00764778 0)
(-0.0357565 -0.00820255 0)
(-0.0188101 -0.00855021 0)
(-0.00130784 -0.00898188 0)
(0.0169038 -0.00921243 0)
(0.0356682 -0.00933414 0)
(0.0547475 -0.00953158 0)
(0.0739544 -0.00947906 0)
(0.0930315 -0.00929088 0)
(0.111728 -0.00910498 0)
(0.129788 -0.0086986 0)
(0.146931 -0.00814049 0)
(0.162887 -0.00753298 0)
(0.177387 -0.00673567 0)
(0.190175 -0.00587137 0)
(0.201054 -0.00489486 0)
(0.20983 -0.00377881 0)
(0.216338 -0.00265374 0)
(0.220463 -0.00148584 0)
(0.222133 -0.000241009 0)
(0.221432 0.000920232 0)
(0.218235 0.0021584 0)
(0.212681 0.00324654 0)
(0.204909 0.00433751 0)
(0.195024 0.00539227 0)
(0.183228 0.00626724 0)
(0.169571 0.0070826 0)
(0.154527 0.00781903 0)
(0.138341 0.00835746 0)
(0.120843 0.00880068 0)
(0.102715 0.00909151 0)
(0.0841938 0.00935432 0)
(0.0652943 0.00941719 0)
(0.0463317 0.00936912 0)
(0.0274153 0.00925385 0)
(0.00907661 0.00898066 0)
(-0.00864261 0.00870868 0)
(-0.0259271 0.00836797 0)
(-0.0425064 0.00797348 0)
(-0.0582619 0.007591 0)
(-0.0730555 0.00710946 0)
(-0.0869974 0.00666377 0)
(-0.100065 0.00621247 0)
(-0.112085 0.00572927 0)
(-0.123182 0.00527183 0)
(-0.13342 0.00482042 0)
(-0.142726 0.00433337 0)
(-0.151089 0.00390676 0)
(-0.158516 0.00348638 0)
(-0.16504 0.00300774 0)
(-0.170652 0.00256341 0)
(-0.175341 0.00211042 0)
(-0.179191 0.00168473 0)
(-0.182239 0.00130804 0)
(-0.18442 0.000872769 0)
(-0.185742 0.000456403 0)
(-0.186318 7.90277e-05 0)
(-0.185956 -0.000339315 0)
(-0.184968 -0.000625474 0)
(-0.183413 -0.000985843 0)
(-0.180954 -0.00138809 0)
(-0.177896 -0.00165415 0)
(-0.174297 -0.00194836 0)
(-0.169845 -0.00241243 0)
(-0.164683 -0.00276854 0)
(-0.158732 -0.00314573 0)
(-0.151841 -0.0036074 0)
(-0.144157 -0.00402456 0)
(-0.135583 -0.00447495 0)
(-0.126081 -0.00492974 0)
(-0.115721 -0.00535926 0)
(-0.10444 -0.00583843 0)
(-0.0922137 -0.00625903 0)
(-0.0790996 -0.00672161 0)
(-0.0651135 -0.00715831 0)
(-0.0502913 -0.00753133 0)
(-0.0347 -0.00790974 0)
(-0.0184151 -0.00823761 0)
(-0.00151559 -0.00850352 0)
(0.0159087 -0.00873668 0)
(0.0337066 -0.00888703 0)
(0.0517373 -0.00896645 0)
(0.0698411 -0.00896051 0)
(0.0878336 -0.00886218 0)
(0.105512 -0.00864583 0)
(0.122642 -0.00831405 0)
(0.138972 -0.0078584 0)
(0.154247 -0.00726631 0)
(0.168227 -0.00653602 0)
(0.180616 -0.00569881 0)
(0.191174 -0.00475304 0)
(0.199712 -0.00370619 0)
(0.206055 -0.00256114 0)
(0.210054 -0.00137728 0)
(0.211613 -0.000184488 0)
(0.210723 0.00104561 0)
(0.207274 0.00228316 0)
(0.201488 0.00344522 0)
(0.193413 0.00455265 0)
(0.183183 0.0055793 0)
(0.170953 0.00649044 0)
(0.156992 0.00729591 0)
(0.141568 0.00799209 0)
(0.124857 0.00852548 0)
(0.107202 0.00896156 0)
(0.0888493 0.00924968 0)
(0.0699374 0.00941355 0)
(0.0508938 0.00943463 0)
(0.0320117 0.00933069 0)
(0.0133474 0.00917192 0)
(-0.00491252 0.00891531 0)
(-0.0226353 0.00858936 0)
(-0.0395559 0.00820927 0)
(-0.0554998 0.00769539 0)
(-0.0706664 0.00726881 0)
(-0.084767 0.0067077 0)
(-0.0976665 0.00613986 0)
(-0.109558 0.00562761 0)
(-0.120323 0.00508824 0)
(-0.130032 0.00455554 0)
(-0.138849 0.00410745 0)
(-0.146582 0.00359488 0)
(-0.153338 0.00315387 0)
(-0.159281 0.00274567 0)
(-0.164375 0.00232997 0)
(-0.168684 0.00195531 0)
(-0.172254 0.00159292 0)
(-0.175152 0.00127224 0)
(-0.177396 0.000938346 0)
(-0.178928 0.000602318 0)
(-0.179769 0.000278597 0)
(-0.180115 4.67081e-05 0)
(-0.1799 -0.00030039 0)
(-0.178823 -0.000678272 0)
(-0.177183 -0.000959116 0)
(-0.175032 -0.00121234 0)
(-0.172128 -0.00162303 0)
(-0.168577 -0.00194121 0)
(-0.164087 -0.00246303 0)
(-0.158708 -0.00283677 0)
(-0.152684 -0.00320192 0)
(-0.145755 -0.00366264 0)
(-0.137937 -0.00410336 0)
(-0.129239 -0.00450123 0)
(-0.119615 -0.00499681 0)
(-0.10914 -0.00542967 0)
(-0.0976772 -0.00591062 0)
(-0.0852533 -0.00637446 0)
(-0.0719689 -0.00682621 0)
(-0.0578203 -0.00725679 0)
(-0.0427797 -0.00762392 0)
(-0.0269488 -0.00799865 0)
(-0.0104842 -0.00831611 0)
(0.00658643 -0.00859223 0)
(0.0241103 -0.00877797 0)
(0.0419524 -0.00891314 0)
(0.0599561 -0.00891651 0)
(0.0779155 -0.00884799 0)
(0.0956062 -0.00866698 0)
(0.112815 -0.00839097 0)
(0.129334 -0.00796924 0)
(0.144921 -0.0074441 0)
(0.159322 -0.0068013 0)
(0.172299 -0.00602801 0)
(0.183617 -0.00514449 0)
(0.193041 -0.0041756 0)
(0.2004 -0.00312006 0)
(0.205545 -0.00196668 0)
(0.208351 -0.000800133 0)
(0.208737 0.000390782 0)
(0.20665 0.00162156 0)
(0.202117 0.00282955 0)
(0.195237 0.00398222 0)
(0.186065 0.00505974 0)
(0.174808 0.00606319 0)
(0.161655 0.00696469 0)
(0.146781 0.00771729 0)
(0.130586 0.00831944 0)
(0.113334 0.00876136 0)
(0.0952134 0.00913185 0)
(0.0766327 0.00932748 0)
(0.0577501 0.00935398 0)
(0.0389124 0.00929886 0)
(0.0204808 0.00904926 0)
(0.00231972 0.00882686 0)
(-0.0150442 0.00838763 0)
(-0.0313718 0.00788862 0)
(-0.0469184 0.00746171 0)
(-0.0614268 0.00696146 0)
(-0.074932 0.00644614 0)
(-0.0874613 0.00593497 0)
(-0.0987982 0.00538666 0)
(-0.109262 0.00497503 0)
(-0.118836 0.00449592 0)
(-0.127391 0.00403514 0)
(-0.135132 0.00364892 0)
(-0.142076 0.00325913 0)
(-0.148324 0.00290789 0)
(-0.153931 0.00262028 0)
(-0.158805 0.00229245 0)
(-0.163113 0.00199946 0)
(-0.166908 0.00170941 0)
(-0.170012 0.00140907 0)
(-0.172484 0.00110101 0)
(-0.174489 0.000839122 0)
(-0.175883 0.000529012 0)
(-0.176573 0.000185804 0)
(-0.176653 -0.000135891 0)
(-0.175826 -0.000609217 0)
(-0.174244 -0.000940942 0)
(-0.172091 -0.00129385 0)
(-0.168927 -0.00177832 0)
(-0.164814 -0.0022504 0)
(-0.159917 -0.00269417 0)
(-0.154067 -0.00312322 0)
(-0.14724 -0.0036202 0)
(-0.139273 -0.00423385 0)
(-0.130249 -0.00470597 0)
(-0.120263 -0.00521377 0)
(-0.10921 -0.00572863 0)
(-0.0971543 -0.00623552 0)
(-0.0841204 -0.00669554 0)
(-0.0701276 -0.00715732 0)
(-0.0552783 -0.0075583 0)
(-0.0396578 -0.00794392 0)
(-0.0233148 -0.00823904 0)
(-0.00636864 -0.00849935 0)
(0.0110342 -0.0086929 0)
(0.0287272 -0.00877634 0)
(0.0465498 -0.00882649 0)
(0.0643496 -0.00876261 0)
(0.0819633 -0.00857829 0)
(0.0991657 -0.00832055 0)
(0.115717 -0.00799266 0)
(0.131493 -0.00751892 0)
(0.146331 -0.00698478 0)
(0.159992 -0.00636179 0)
(0.172269 -0.00565689 0)
(0.183063 -0.00485447 0)
(0.192221 -0.00398879 0)
(0.199545 -0.00306001 0)
(0.204948 -0.00210796 0)
(0.20835 -0.00107833 0)
(0.209689 -7.09819e-05 0)
(0.209036 0.000997398 0)
(0.20623 0.00206577 0)
(0.20132 0.00305507 0)
(0.194362 0.00404982 0)
(0.185406 0.00500542 0)
(0.174694 0.00585368 0)
(0.162149 0.00665867 0)
(0.148131 0.00732079 0)
(0.132928 0.00796574 0)
(0.116393 0.00847134 0)
(0.0989563 0.00879713 0)
(0.0808972 0.00910598 0)
(0.0623349 0.00928193 0)
(0.0435287 0.00928976 0)
(0.024744 0.00929464 0)
(0.00692322 0.00914962 0)
(-0.0101386 0.00889631 0)
(-0.0271873 0.0086208 0)
(-0.0437857 0.00822338 0)
(-0.0597087 0.00782593 0)
(-0.0748161 0.00737007 0)
(-0.0890001 0.00685574 0)
(-0.102199 0.00635261 0)
(-0.114369 0.00582854 0)
(-0.12549 0.00528566 0)
(-0.135555 0.00476321 0)
(-0.144572 0.00423393 0)
(-0.152555 0.00372986 0)
(-0.159528 0.00323457 0)
(-0.165528 0.00275228 0)
(-0.170579 0.00229229 0)
(-0.174718 0.0018473 0)
(-0.177991 0.0014182 0)
(-0.180424 0.00100855 0)
(-0.182058 0.000608258 0)
(-0.182921 0.000240492 0)
(-0.183039 -0.000129191 0)
(-0.182393 -0.000492317 0)
(-0.181042 -0.000842449 0)
(-0.178967 -0.00119381 0)
(-0.176192 -0.00155053 0)
(-0.172712 -0.00190082 0)
(-0.168514 -0.00226728 0)
(-0.163585 -0.00263091 0)
(-0.157895 -0.00300519 0)
(-0.151425 -0.00341192 0)
(-0.144153 -0.00380761 0)
(-0.13605 -0.00421482 0)
(-0.127082 -0.00467414 0)
(-0.117225 -0.00510358 0)
(-0.106451 -0.0055419 0)
(-0.0947384 -0.00605098 0)
(-0.0820729 -0.00649475 0)
(-0.0684514 -0.00701989 0)
(-0.0538774 -0.00744933 0)
(-0.0383988 -0.00785173 0)
(-0.0220382 -0.0083465 0)
(-0.00490399 -0.00866667 0)
(0.0129044 -0.0089263 0)
(0.0313291 -0.00928506 0)
(0.0502009 -0.0093953 0)
(0.0693361 -0.00958953 0)
(0.0885341 -0.00949946 0)
(0.107555 -0.00928439 0)
(0.126163 -0.0091254 0)
(0.14409 -0.00865806 0)
(0.161053 -0.00805945 0)
(0.176784 -0.00746559 0)
(0.191006 -0.00661427 0)
(0.203475 -0.00573415 0)
(0.213942 -0.00466407 0)
(0.222209 -0.00351874 0)
(0.22811 -0.00232303 0)
(0.231527 -0.00106127 0)
(0.231911 0.000201754 0)
(-0.0231383 0.0119099 0)
(-0.037297 0.0112596 0)
(-0.0529923 0.0107087 0)
(-0.0678676 0.0101 0)
(-0.0818209 0.00936003 0)
(-0.0948123 0.00870479 0)
(-0.106814 0.00796862 0)
(-0.117831 0.00730954 0)
(-0.127872 0.00665088 0)
(-0.136951 0.00596859 0)
(-0.1451 0.00534374 0)
(-0.152347 0.00473372 0)
(-0.15872 0.00412827 0)
(-0.164256 0.0035615 0)
(-0.168982 0.00300503 0)
(-0.172931 0.00247592 0)
(-0.176126 0.00195984 0)
(-0.178594 0.0014531 0)
(-0.18036 0.000960115 0)
(-0.181408 0.000494139 0)
(-0.181778 1.54466e-05 0)
(-0.181446 -0.000475593 0)
(-0.180419 -0.000963799 0)
(-0.17869 -0.0014594 0)
(-0.176241 -0.00196241 0)
(-0.173055 -0.00248884 0)
(-0.169112 -0.00302107 0)
(-0.164384 -0.00356889 0)
(-0.158843 -0.00416086 0)
(-0.152459 -0.00474708 0)
(-0.145191 -0.00535416 0)
(-0.137005 -0.0060325 0)
(-0.127869 -0.00667465 0)
(-0.117763 -0.00740916 0)
(-0.106651 -0.00806628 0)
(-0.0945324 -0.008729 0)
(-0.0813923 -0.00951088 0)
(-0.0672113 -0.0101321 0)
(-0.0520458 -0.0107097 0)
(-0.0358609 -0.0114837 0)
(-0.0188975 -0.0119756 0)
(-0.00138 -0.0125777 0)
(0.0168478 -0.0129017 0)
(0.0356333 -0.0130725 0)
(0.0547386 -0.0133498 0)
(0.0739719 -0.0132771 0)
(0.0930766 -0.0130137 0)
(0.111806 -0.0127545 0)
(0.129897 -0.0121851 0)
(0.14707 -0.0114052 0)
(0.163058 -0.0105527 0)
(0.177586 -0.00943855 0)
(0.190399 -0.00822925 0)
(0.201301 -0.00685975 0)
(0.210099 -0.00529402 0)
(0.216614 -0.00372123 0)
(0.220748 -0.00209723 0)
(0.222428 -0.000333767 0)
(0.221692 0.00129755 0)
(0.218501 0.00302017 0)
(0.212942 0.00454628 0)
(0.205156 0.00607604 0)
(0.195252 0.00755369 0)
(0.18343 0.00877969 0)
(0.169747 0.00992127 0)
(0.154675 0.0109543 0)
(0.138456 0.0117074 0)
(0.120926 0.0123274 0)
(0.102777 0.0127379 0)
(0.0842227 0.013101 0)
(0.0652909 0.01319 0)