/*--------------------------------*- C++ -*----------------------------------*\
| =========                 |                                                 |
| \\      /  F ield         | OpenFOAM: The Open Source CFD Toolbox           |
|  \\    /   O peration     | Version:  3.0.1                                 |
|   \\  /    A nd           | Web:      www.OpenFOAM.org                      |
|    \\/     M anipulation  |                                                 |
\*---------------------------------------------------------------------------*/
FoamFile
{
    version     2.0;
    format      ascii;
    class       volScalarField;
    location    "24";
    object      p;
}
// * * * * * * * * * * * * * * * * * * * * * * * * * * * * * * * * * * * * * //

dimensions      [1 -1 -2 0 0 0 0];

internalField   nonuniform List<scalar> 
21420
(
3645.08
3626.47
3609.48
3594.17
3580.58
3568.69
3558.48
3549.9
3542.93
3537.55
3533.71
3531.4
3530.64
3531.43
3533.71
3537.53
3542.9
3549.8
3558.27
3568.33
3580.02
3593.36
3608.42
3625.21
3643.76
3664.08
3686.17
3710.03
3735.62
3762.87
3791.69
3821.96
3853.47
3885.96
3918.79
3952.54
3986.62
4020.62
4054.12
4086.78
4118.16
4147.87
4175.52
4200.72
4223.16
4242.51
4258.51
4270.92
4279.59
4284.39
4285.16
4281.98
4274.8
4263.72
4248.93
4230.62
4209.05
4184.5
4157.3
4127.83
4096.46
4063.6
4029.65
3995.03
3960.17
3925.57
3892.88
3859.77
3827.32
3795.92
3765.89
3737.41
3710.62
3685.63
3662.53
3641.37
3622.17
3604.95
3589.72
3576.45
3565.12
3555.72
3548.22
3542.57
3538.71
3536.59
3536.17
3537.36
3540.09
3544.34
3550.06
3557.23
3565.82
3575.78
3587.12
3599.83
3613.93
3629.44
3646.39
3664.8
3684.7
3706.08
3728.95
3753.27
3779.01
3806.08
3834.38
3863.8
3894.16
3925.32
3956.94
3988.82
4020.66
4052.16
4082.96
4112.71
4141.03
4167.53
4191.82
4213.53
4232.3
4247.8
4259.74
4267.89
4272.06
4272.1
4268.04
4259.92
4247.77
4231.8
4212.24
4189.4
4163.62
4135.28
4104.8
4072.63
4039.22
4005.02
3970.47
3936.01
3902.04
3868.88
3836.85
3806.22
3777.16
3749.85
3724.36
3700.75
3679.04
3659.19
3641.18
3624.93
3610.38
3597.46
3586.1
3576.23
3567.8
3560.76
3555.08
3550.73
3547.67
3545.91
3545.48
3546.34
3548.52
3552.05
3556.95
3563.29
3571.08
3580.39
3591.26
3603.74
3617.87
3633.69
3651.25
3670.58
3691.67
3714.5
3739.04
3765.23
3792.96
3822.07
3852.4
3883.73
3915.79
3948.28
3980.91
4013.33
4045.18
4076.1
4105.7
4133.6
4159.44
4182.86
4203.53
4221.15
4235.46
4246.23
4253.3
4256.52
4255.83
4251.24
4242.82
4230.62
4214.84
4195.68
4173.41
4148.36
4120.87
4091.32
4060.12
4027.68
3994.41
3960.72
3926.98
3893.55
3860.77
3828.9
3798.19
3768.84
3740.99
3714.78
3690.28
3667.56
3646.64
3627.54
3610.25
3594.75
3581
3568.96
3558.61
3549.88
3542.73
3537.13
3533.01
3530.36
3529.18
3529.37
3530.94
3533.9
3538.22
3543.92
3551.02
3559.52
3569.46
3580.86
3593.76
3608.18
3624.15
3641.69
3660.81
3681.5
3703.75
3727.52
3752.75
3779.36
3807.24
3836.24
3866.18
3896.82
3927.92
3959.2
3990.33
4020.96
4050.73
4079.25
4106.14
4131.03
4153.54
4173.33
4190.1
4203.57
4213.53
4219.79
4222.25
4220.84
4215.61
4206.62
4193.95
4177.83
4158.46
4136.13
4111.13
4083.79
4054.46
4023.53
3991.35
3958.33
3924.84
3891.24
3857.9
3825.23
3794.21
3763.81
3734.38
3706.24
3679.63
3654.7
3631.56
3610.27
3590.9
3573.46
3557.95
3544.36
3532.67
3522.84
3514.83
3508.58
3504.05
3501.19
3499.94
3500.23
3502.01
3505.22
3509.79
3515.7
3522.9
3531.38
3541.14
3552.16
3564.46
3578.05
3592.96
3609.21
3626.81
3645.78
3666.13
3687.85
3710.89
3735.22
3760.72
3787.2
3814.75
3843.2
3872.32
3901.87
3931.58
3961.17
3990.36
4018.82
4046.18
4072.13
4096.3
4118.37
4137.99
4154.84
4168.66
4179.19
4186.19
4189.49
4188.44
4183.3
4174.3
4161.6
4145.44
4126.23
4104.43
3546.9
3528.29
3511.31
3496
3482.41
3470.53
3460.31
3451.74
3444.77
3439.38
3435.55
3433.24
3432.48
3433.27
3435.55
3439.37
3444.74
3451.64
3460.11
3470.17
3481.85
3495.2
3510.25
3527.04
3545.58
3565.9
3587.99
3611.85
3637.44
3664.69
3693.52
3723.79
3755.31
3787.8
3820.64
3854.4
3888.5
3922.51
3956.03
3988.7
4020.1
4049.83
4077.5
4102.72
4125.17
4144.54
4160.54
4172.97
4181.64
4186.44
4187.22
4184.03
4176.85
4165.76
4150.96
4132.64
4111.06
4086.49
4059.27
4029.78
3998.4
3965.52
3931.55
3896.91
3862.04
3827.42
3794.74
3761.61
3729.15
3697.75
3667.71
3639.23
3612.43
3587.45
3564.34
3543.18
3523.99
3506.77
3491.54
3478.27
3466.94
3457.55
3450.05
3444.39
3440.54
3438.42
3438
3439.2
3441.93
3446.18
3451.9
3459.08
3467.66
3477.62
3488.96
3501.67
3515.77
3531.28
3548.23
3566.63
3586.53
3607.91
3630.78
3655.1
3680.84
3707.91
3736.22
3765.64
3796.01
3827.17
3858.81
3890.69
3922.55
3954.06
3984.88
4014.65
4042.98
4069.5
4093.81
4115.54
4134.32
4149.83
4161.79
4169.94
4174.13
4174.16
4170.1
4161.97
4149.81
4133.83
4114.26
4091.4
4065.6
4037.24
4006.74
3974.55
3941.12
3906.9
3872.34
3837.86
3803.88
3770.71
3738.68
3708.03
3678.98
3651.66
3626.17
3602.57
3580.86
3561.01
3543
3526.76
3512.21
3499.3
3487.94
3478.07
3469.64
3462.6
3456.93
3452.58
3449.51
3447.76
3447.33
3448.19
3450.37
3453.89
3458.8
3465.13
3472.92
3482.22
3493.09
3505.57
3519.69
3535.52
3553.08
3572.4
3593.49
3616.32
3640.86
3667.06
3694.78
3723.9
3754.24
3785.57
3817.64
3850.15
3882.79
3915.23
3947.09
3978.03
4007.64
4035.56
4061.42
4084.85
4105.54
4123.18
4137.5
4148.28
4155.35
4158.58
4157.88
4153.28
4144.86
4132.66
4116.86
4097.69
4075.41
4050.34
4022.83
3993.26
3962.05
3929.59
3896.3
3862.59
3828.84
3795.4
3762.61
3730.74
3700.02
3670.66
3642.81
3616.6
3592.1
3569.38
3548.46
3529.37
3512.08
3496.57
3482.83
3470.8
3460.44
3451.72
3444.57
3438.97
3434.85
3432.21
3431.02
3431.21
3432.79
3435.74
3440.07
3445.77
3452.86
3461.36
3471.3
3482.7
3495.6
3510.01
3525.98
3543.52
3562.64
3583.33
3605.58
3629.35
3654.58
3681.2
3709.08
3738.08
3768.02
3798.68
3829.79
3861.08
3892.22
3922.87
3952.65
3981.19
4008.1
4033
4055.53
4075.34
4092.12
4105.61
4115.57
4121.84
4124.3
4122.89
4117.65
4108.66
4095.98
4079.85
4060.47
4038.12
4013.1
3985.75
3956.41
3925.46
3893.26
3860.22
3826.72
3793.11
3759.76
3727.07
3696.06
3665.65
3636.21
3608.07
3581.45
3556.52
3533.37
3512.09
3492.72
3475.28
3459.77
3446.18
3434.49
3424.67
3416.66
3410.42
3405.88
3403.03
3401.78
3402.07
3403.86
3407.07
3411.64
3417.55
3424.75
3433.23
3442.99
3454.01
3466.3
3479.89
3494.8
3511.05
3528.65
3547.61
3567.97
3589.69
3612.73
3637.05
3662.56
3689.04
3716.6
3745.06
3774.18
3803.74
3833.46
3863.07
3892.27
3920.74
3948.12
3974.08
3998.27
4020.36
4039.99
4056.85
4070.69
4081.22
4088.24
4091.55
4090.48
4085.34
4076.33
4063.62
4047.45
4028.23
4006.41
3448.65
3430.04
3413.06
3397.76
3384.17
3372.29
3362.08
3353.51
3346.54
3341.16
3337.33
3335.02
3334.27
3335.04
3337.33
3341.15
3346.52
3353.42
3361.88
3371.94
3383.62
3396.96
3412
3428.79
3447.33
3467.64
3489.73
3513.59
3539.18
3566.43
3595.27
3625.55
3657.08
3689.59
3722.44
3756.22
3790.35
3824.39
3857.95
3890.65
3922.08
3951.85
3979.55
4004.81
4027.29
4046.68
4062.71
4075.16
4083.85
4088.65
4089.44
4086.23
4079.04
4067.94
4053.12
4034.78
4013.16
3988.56
3961.31
3931.78
3900.36
3867.45
3833.44
3798.78
3763.86
3729.21
3696.56
3663.4
3630.92
3599.5
3569.45
3540.96
3514.16
3489.17
3466.07
3444.91
3425.72
3408.5
3393.27
3380.01
3368.68
3359.29
3351.8
3346.15
3342.3
3340.19
3339.78
3340.97
3343.71
3347.96
3353.69
3360.86
3369.45
3379.41
3390.75
3403.45
3417.55
3433.06
3450
3468.4
3488.29
3509.67
3532.54
3556.87
3582.6
3609.68
3638
3667.42
3697.8
3728.99
3760.64
3792.55
3824.43
3855.97
3886.82
3916.62
3944.99
3971.54
3995.88
4017.64
4036.46
4052
4063.98
4072.15
4076.35
4076.38
4072.31
4064.18
4052
4035.99
4016.39
3993.5
3967.66
3939.26
3908.73
3876.5
3843.03
3808.77
3774.18
3739.67
3705.67
3672.48
3640.43
3609.77
3580.71
3553.39
3527.9
3504.3
3482.59
3462.76
3444.75
3428.51
3413.98
3401.07
3389.72
3379.85
3371.43
3364.4
3358.72
3354.37
3351.31
3349.56
3349.13
3349.99
3352.16
3355.68
3360.58
3366.91
3374.7
3384
3394.86
3407.33
3421.45
3437.27
3454.82
3474.14
3495.23
3518.06
3542.61
3568.8
3596.54
3625.67
3656.02
3687.37
3719.46
3751.99
3784.66
3817.12
3849.02
3879.98
3909.63
3937.59
3963.47
3986.94
4007.66
4025.32
4039.66
4050.46
4057.55
4060.79
4060.08
4055.48
4047.05
4034.83
4019.01
3999.81
3977.5
3952.39
3924.85
3895.25
3863.99
3831.5
3798.19
3764.45
3730.67
3697.21
3664.4
3632.5
3601.78
3572.41
3544.56
3518.34
3493.84
3471.12
3450.2
3431.11
3413.83
3398.33
3384.59
3372.56
3362.21
3353.49
3346.35
3340.75
3336.63
3334
3332.81
3333
3334.58
3337.53
3341.86
3347.56
3354.64
3363.15
3373.08
3384.48
3397.37
3411.78
3427.74
3445.28
3464.39
3485.08
3507.33
3531.11
3556.35
3582.96
3610.85
3639.87
3669.82
3700.49
3731.63
3762.94
3794.11
3824.79
3854.61
3883.18
3910.12
3935.06
3957.62
3977.46
3994.27
4007.78
4017.76
4024.04
4026.52
4025.09
4019.84
4010.84
3998.15
3981.99
3962.58
3940.2
3915.16
3887.77
3858.4
3827.41
3795.19
3762.11
3728.58
3694.94
3661.56
3628.84
3597.85
3567.43
3537.97
3509.81
3483.19
3458.25
3435.11
3413.83
3394.46
3377.02
3361.51
3347.93
3336.24
3326.42
3318.42
3312.18
3307.65
3304.81
3303.56
3303.85
3305.64
3308.86
3313.44
3319.35
3326.55
3335.03
3344.78
3355.8
3368.09
3381.68
3396.59
3412.83
3430.42
3449.39
3469.74
3491.46
3514.51
3538.83
3564.35
3590.83
3618.39
3646.87
3676.01
3705.59
3735.33
3764.96
3794.19
3822.69
3850.1
3876.09
3900.31
3922.43
3942.09
3958.98
3972.84
3983.4
3990.43
3993.77
3992.67
3987.52
3978.5
3965.77
3949.58
3930.32
3908.47
3350.32
3331.72
3314.74
3299.44
3285.87
3273.99
3263.78
3255.21
3248.26
3242.88
3239.05
3236.75
3235.99
3236.76
3239.05
3242.87
3248.24
3255.13
3263.59
3273.64
3285.31
3298.65
3313.69
3330.46
3349
3369.31
3391.4
3415.25
3440.84
3468.1
3496.95
3527.24
3558.79
3591.33
3624.19
3658.01
3692.18
3726.27
3759.87
3792.62
3824.11
3853.93
3881.69
3906.99
3929.52
3948.95
3965.02
3977.49
3986.2
3991.02
3991.83
3988.58
3981.38
3970.26
3955.41
3937.03
3915.37
3890.72
3863.42
3833.83
3802.36
3769.4
3735.34
3700.62
3665.66
3630.95
3598.33
3565.13
3532.62
3501.17
3471.11
3442.61
3415.81
3390.82
3367.72
3346.56
3327.36
3310.15
3294.93
3281.67
3270.35
3260.97
3253.48
3247.83
3243.99
3241.89
3241.5
3242.69
3245.42
3249.68
3255.42
3262.6
3271.18
3281.14
3292.48
3305.18
3319.27
3334.77
3351.71
3370.11
3389.99
3411.37
3434.23
3458.56
3484.3
3511.38
3539.71
3569.15
3599.55
3630.76
3662.44
3694.38
3726.29
3757.87
3788.77
3818.62
3847.04
3873.64
3898.04
3919.86
3938.72
3954.31
3966.32
3974.52
3978.73
3978.78
3974.69
3966.54
3954.33
3938.29
3918.64
3895.7
3869.8
3841.35
3810.75
3778.46
3744.94
3710.63
3675.99
3641.43
3607.4
3574.18
3542.1
3511.43
3482.36
3455.03
3429.55
3405.95
3384.25
3364.42
3346.43
3330.2
3315.68
3302.78
3291.43
3281.58
3273.16
3266.13
3260.46
3256.11
3253.06
3251.31
3250.87
3251.73
3253.9
3257.42
3262.31
3268.63
3276.41
3285.71
3296.56
3309.02
3323.14
3338.95
3356.5
3375.81
3396.89
3419.72
3444.27
3470.47
3498.22
3527.36
3557.73
3589.11
3621.23
3653.8
3686.51
3719.01
3750.96
3781.97
3811.67
3839.67
3865.61
3889.13
3909.89
3927.59
3941.97
3952.8
3959.9
3963.16
3962.44
3957.83
3949.38
3937.14
3921.28
3902.04
3879.68
3854.53
3826.93
3797.28
3765.97
3733.43
3700.06
3666.27
3632.46
3598.96
3566.12
3534.2
3503.46
3474.08
3446.22
3420
3395.5
3372.78
3351.86
3332.78
3315.5
3300.01
3286.28
3274.26
3263.91
3255.2
3248.06
3242.47
3238.36
3235.73
3234.54
3234.74
3236.31
3239.27
3243.59
3249.29
3256.37
3264.87
3274.8
3286.19
3299.07
3313.48
3329.44
3346.97
3366.08
3386.77
3409.02
3432.79
3458.04
3484.66
3512.56
3541.6
3571.57
3602.27
3633.44
3664.79
3696
3726.72
3756.59
3785.21
3812.21
3837.19
3859.8
3879.69
3896.54
3910.08
3920.09
3926.38
3928.87
3927.44
3922.18
3913.16
3900.44
3884.25
3864.8
3842.38
3817.29
3789.85
3760.43
3729.39
3697.12
3664
3630.42
3596.74
3563.31
3530.56
3499.6
3469.14
3439.66
3411.48
3384.84
3359.9
3336.76
3315.47
3296.11
3278.67
3263.17
3249.59
3237.92
3228.1
3220.11
3213.88
3209.36
3206.52
3205.28
3205.58
3207.38
3210.6
3215.18
3221.09
3228.29
3236.77
3246.53
3257.54
3269.83
3283.41
3298.31
3314.55
3332.14
3351.1
3371.45
3393.17
3416.22
3440.55
3466.07
3492.56
3520.14
3548.64
3577.8
3607.4
3637.18
3666.84
3696.11
3724.66
3752.11
3778.15
3802.42
3824.58
3844.29
3861.22
3875.11
3885.7
3892.77
3896.15
3895
3889.85
3880.81
3868.05
3851.81
3832.51
3810.62
3251.91
3233.32
3216.34
3201.05
3187.49
3175.61
3165.42
3156.86
3149.9
3144.53
3140.71
3138.41
3137.66
3138.42
3140.71
3144.53
3149.9
3156.79
3165.23
3175.28
3186.94
3200.27
3215.3
3232.07
3250.59
3270.9
3292.98
3316.84
3342.43
3369.69
3398.55
3428.86
3460.44
3493.01
3525.9
3559.76
3593.99
3628.14
3661.8
3694.62
3726.18
3756.07
3783.9
3809.27
3831.85
3851.35
3867.46
3879.97
3888.7
3893.53
3894.36
3891.09
3883.87
3872.73
3857.83
3839.4
3817.68
3792.96
3765.59
3735.94
3704.4
3671.36
3637.24
3602.45
3567.41
3532.64
3500.07
3466.81
3434.25
3402.78
3372.69
3344.18
3317.37
3292.38
3269.27
3248.11
3228.93
3211.72
3196.5
3183.25
3171.94
3162.56
3155.08
3149.45
3145.62
3143.52
3143.15
3144.33
3147.08
3151.35
3157.09
3164.27
3172.86
3182.82
3194.15
3206.85
3220.93
3236.43
3253.36
3271.75
3291.63
3313
3335.86
3360.19
3385.93
3413.02
3441.37
3470.82
3501.25
3532.49
3564.2
3596.18
3628.15
3659.79
3690.74
3720.66
3749.15
3775.82
3800.29
3822.17
3841.1
3856.74
3868.8
3877.04
3881.27
3881.33
3877.23
3869.05
3856.81
3840.72
3821.01
3798
3772.02
3743.49
3712.82
3680.45
3646.85
3612.47
3577.76
3543.15
3509.07
3475.81
3443.7
3413.01
3383.92
3356.59
3331.1
3307.51
3285.82
3266.01
3248.03
3231.82
3217.31
3204.42
3193.09
3183.25
3174.84
3167.82
3162.15
3157.81
3154.75
3153.01
3152.56
3153.42
3155.59
3159.1
3163.99
3170.3
3178.07
3187.35
3198.2
3210.65
3224.75
3240.55
3258.09
3277.39
3298.47
3321.3
3345.85
3372.06
3399.82
3428.99
3459.39
3490.8
3522.96
3555.58
3588.33
3620.9
3652.91
3683.98
3713.75
3741.82
3767.83
3791.41
3812.23
3829.98
3844.41
3855.27
3862.4
3865.67
3864.96
3860.34
3851.86
3839.58
3823.68
3804.38
3781.97
3756.74
3729.07
3699.35
3667.97
3635.35
3601.92
3568.08
3534.21
3500.67
3467.79
3435.84
3405.07
3375.67
3347.8
3321.58
3297.07
3274.36
3253.45
3234.37
3217.1
3201.62
3187.89
3175.88
3165.55
3156.84
3149.72
3144.13
3140.03
3137.41
3136.22
3136.42
3137.99
3140.95
3145.27
3150.96
3158.04
3166.53
3176.46
3187.84
3200.72
3215.11
3231.06
3248.59
3267.7
3288.38
3310.63
3334.41
3359.66
3386.29
3414.21
3443.27
3473.27
3504
3535.21
3566.61
3597.88
3628.66
3658.59
3687.29
3714.35
3739.4
3762.08
3782.03
3798.93
3812.52
3822.56
3828.88
3831.38
3829.95
3824.67
3815.62
3802.87
3786.63
3767.13
3744.65
3719.5
3691.99
3662.5
3631.4
3599.06
3565.88
3532.24
3498.5
3465.02
3432.22
3401.29
3370.79
3341.27
3313.08
3286.42
3261.47
3238.32
3217.04
3197.68
3180.25
3164.75
3151.18
3139.51
3129.71
3121.72
3115.51
3111
3108.17
3106.93
3107.25
3109.05
3112.28
3116.87
3122.78
3129.99
3138.47
3148.22
3159.23
3171.51
3185.09
3199.98
3216.21
3233.8
3252.75
3273.1
3294.82
3317.87
3342.21
3367.74
3394.23
3421.84
3450.36
3479.55
3509.19
3539.01
3568.72
3598.05
3626.65
3654.16
3680.27
3704.6
3726.82
3746.58
3763.57
3777.51
3788.15
3795.25
3798.66
3797.5
3792.32
3783.24
3770.45
3754.16
3734.8
3712.84
3153.43
3134.84
3117.88
3102.59
3089.04
3077.17
3066.99
3058.43
3051.49
3046.13
3042.31
3040.02
3039.26
3040.02
3042.31
3046.13
3051.49
3058.38
3066.82
3076.85
3088.5
3101.82
3116.84
3133.59
3152.11
3172.41
3194.48
3218.34
3243.93
3271.2
3300.07
3330.41
3362.02
3394.64
3427.55
3461.47
3495.77
3529.99
3563.74
3596.65
3628.29
3658.27
3686.18
3711.64
3734.3
3753.86
3770.04
3782.59
3791.36
3796.21
3797.04
3793.76
3786.52
3775.33
3760.38
3741.88
3720.09
3695.3
3667.84
3638.09
3606.47
3573.34
3539.13
3504.26
3469.13
3434.27
3401.76
3368.43
3335.81
3304.3
3274.2
3245.67
3218.85
3193.85
3170.74
3149.59
3130.4
3113.2
3097.99
3084.75
3073.45
3064.08
3056.61
3050.99
3047.17
3045.09
3044.74
3045.92
3048.68
3052.95
3058.7
3065.89
3074.48
3084.44
3095.77
3108.46
3122.53
3138.02
3154.94
3173.32
3193.19
3214.56
3237.41
3261.75
3287.5
3314.6
3342.96
3372.44
3402.89
3434.17
3465.93
3497.97
3529.99
3561.7
3592.73
3622.73
3651.3
3678.07
3702.63
3724.59
3743.61
3759.32
3771.44
3779.71
3783.97
3784.05
3779.94
3771.72
3759.43
3743.28
3723.49
3700.39
3674.33
3645.7
3614.92
3582.46
3548.76
3514.3
3479.51
3444.82
3410.68
3377.37
3345.22
3314.5
3285.4
3258.06
3232.58
3208.99
3187.31
3167.52
3149.55
3133.36
3118.87
3106
3094.69
3084.86
3076.46
3069.45
3063.79
3059.45
3056.39
3054.65
3054.21
3055.06
3057.22
3060.72
3065.6
3071.9
3079.66
3088.93
3099.77
3112.2
3126.29
3142.08
3159.61
3178.9
3199.97
3222.8
3247.36
3273.58
3301.36
3330.55
3360.99
3392.44
3424.65
3457.32
3490.15
3522.78
3554.87
3586.03
3615.88
3644.03
3670.12
3693.78
3714.68
3732.5
3746.98
3757.89
3765.05
3768.33
3767.63
3763
3754.48
3742.16
3726.2
3706.84
3684.34
3659.03
3631.28
3601.46
3569.99
3537.29
3503.78
3469.86
3435.92
3402.32
3369.39
3337.41
3306.61
3277.19
3249.31
3223.07
3198.57
3175.85
3154.95
3135.88
3118.62
3103.15
3089.44
3077.44
3067.12
3058.43
3051.31
3045.73
3041.64
3039.03
3037.84
3038.04
3039.62
3042.58
3046.9
3052.58
3059.66
3068.14
3078.05
3089.43
3102.29
3116.68
3132.62
3150.14
3169.24
3189.92
3212.17
3235.95
3261.21
3287.86
3315.8
3344.88
3374.92
3405.69
3436.96
3468.42
3499.75
3530.61
3560.62
3589.4
3616.55
3641.69
3664.45
3684.47
3701.45
3715.09
3725.17
3731.53
3734.03
3732.61
3727.31
3718.22
3705.43
3689.13
3669.57
3647.02
3621.78
3594.2
3564.62
3533.44
3501.01
3467.76
3434.04
3400.23
3366.68
3333.81
3302.93
3272.37
3242.81
3214.59
3187.92
3162.96
3139.8
3118.52
3099.16
3081.74
3066.25
3052.69
3041.04
3031.25
3023.27
3017.07
3012.57
3009.76
3008.53
3008.85
3010.67
3013.91
3018.5
3024.42
3031.63
3040.11
3049.85
3060.86
3073.14
3086.71
3101.59
3117.82
3135.39
3154.34
3174.69
3196.4
3219.46
3243.8
3269.35
3295.85
3323.48
3352.03
3381.27
3410.96
3440.83
3470.6
3499.99
3528.66
3556.25
3582.44
3606.85
3629.14
3648.98
3666.04
3680.04
3690.73
3697.87
3701.32
3700.14
3694.93
3685.82
3672.97
3656.62
3637.19
3615.14
3054.87
3036.29
3019.33
3004.06
2990.52
2978.67
2968.49
2959.95
2953.01
2947.66
2943.85
2941.57
2940.81
2941.56
2943.86
2947.68
2953.03
2959.91
2968.34
2978.36
2990
3003.3
3018.31
3035.05
3053.55
3073.84
3095.91
3119.76
3145.36
3172.63
3201.52
3231.89
3263.54
3296.2
3329.15
3363.15
3397.52
3431.84
3465.68
3498.69
3530.44
3560.53
3588.55
3614.1
3636.86
3656.51
3672.75
3685.36
3694.17
3699.04
3699.88
3696.59
3689.31
3678.08
3663.06
3644.49
3622.61
3597.71
3570.15
3540.3
3508.57
3475.33
3441.02
3406.05
3370.82
3335.84
3303.42
3269.99
3237.31
3205.76
3175.62
3147.07
3120.24
3095.23
3072.13
3050.97
3031.8
3014.61
2999.4
2986.17
2974.88
2965.53
2958.07
2952.46
2948.65
2946.59
2946.26
2947.44
2950.21
2954.5
2960.26
2967.45
2976.04
2986.01
2997.33
3010.01
3024.08
3039.55
3056.46
3074.83
3094.69
3116.05
3138.9
3163.23
3188.99
3216.11
3244.49
3273.99
3304.48
3335.81
3367.63
3399.72
3431.83
3463.61
3494.74
3524.84
3553.51
3580.39
3605.05
3627.12
3646.23
3662.03
3674.22
3682.55
3686.83
3686.92
3682.81
3674.55
3662.2
3645.97
3626.1
3602.89
3576.71
3547.96
3517.07
3484.49
3450.68
3416.11
3381.22
3346.44
3312.24
3278.86
3246.67
3215.92
3186.79
3159.44
3133.96
3110.39
3088.72
3068.94
3051
3034.84
3020.37
3007.52
2996.22
2986.41
2978.03
2971.02
2965.37
2961.03
2957.99
2956.25
2955.8
2956.64
2958.8
2962.29
2967.16
2973.45
2981.2
2990.45
3001.27
3013.69
3027.76
3043.54
3061.05
3080.33
3101.39
3124.22
3148.78
3175.02
3202.82
3232.05
3262.52
3294.02
3326.3
3359.04
3391.94
3424.66
3456.84
3488.1
3518.05
3546.31
3572.5
3596.26
3617.24
3635.14
3649.69
3660.65
3667.85
3671.15
3670.46
3665.81
3657.25
3644.88
3628.85
3609.41
3586.81
3561.41
3533.54
3503.61
3472.04
3439.23
3405.62
3371.61
3337.59
3303.93
3270.94
3238.91
3208.07
3178.63
3150.73
3124.49
3099.98
3077.27
3056.38
3037.32
3020.07
3004.62
2990.92
2978.94
2968.63
2959.95
2952.84
2947.28
2943.2
2940.59
2939.41
2939.61
2941.2
2944.15
2948.47
2954.15
2961.21
2969.69
2979.59
2990.95
3003.81
3018.18
3034.11
3051.62
3070.71
3091.39
3113.64
3137.42
3162.69
3189.36
3217.32
3246.43
3276.52
3307.34
3338.67
3370.2
3401.62
3432.57
3462.68
3491.56
3518.82
3544.06
3566.91
3587.03
3604.08
3617.8
3627.94
3634.32
3636.84
3635.42
3630.1
3620.97
3608.12
3591.76
3572.12
3549.47
3524.14
3496.46
3466.78
3435.5
3402.98
3369.63
3335.83
3301.92
3268.28
3235.33
3204.51
3173.89
3144.28
3116.03
3089.33
3064.36
3041.2
3019.92
3000.57
2983.15
2967.68
2954.13
2942.48
2932.71
2924.75
2918.56
2914.09
2911.28
2910.07
2910.41
2912.24
2915.49
2920.09
2926.01
2933.22
2941.7
2951.44
2962.44
2974.71
2988.27
3003.15
3019.36
3036.93
3055.87
3076.21
3097.92
3120.98
3145.33
3170.9
3197.41
3225.07
3253.67
3282.95
3312.69
3342.63
3372.47
3401.94
3430.7
3458.38
3484.66
3509.16
3531.55
3551.48
3568.62
3582.69
3593.44
3600.63
3604.12
3602.94
3597.69
3588.54
3575.63
3559.2
3539.67
3517.52
2956.23
2937.66
2920.72
2905.46
2891.93
2880.09
2869.92
2861.4
2854.47
2849.13
2845.33
2843.05
2842.3
2843.04
2845.34
2849.16
2854.51
2861.37
2869.79
2879.8
2891.43
2904.71
2919.7
2936.43
2954.92
2975.19
2997.25
3021.1
3046.7
3073.99
3102.9
3133.3
3164.99
3197.72
3230.71
3264.78
3299.26
3333.68
3367.63
3400.76
3432.64
3462.85
3490.99
3516.66
3539.53
3559.27
3575.6
3588.27
3597.13
3602.03
3602.88
3599.57
3592.25
3580.97
3565.88
3547.21
3525.23
3500.22
3472.54
3442.56
3410.7
3377.34
3342.91
3307.82
3272.47
3237.35
3205.03
3171.49
3138.73
3107.13
3076.96
3048.39
3021.54
2996.53
2973.43
2952.27
2933.1
2915.92
2900.73
2887.51
2876.24
2866.9
2859.45
2853.85
2850.07
2848.03
2847.72
2848.91
2851.69
2855.99
2861.76
2868.96
2877.55
2887.52
2898.83
2911.51
2925.56
2941.03
2957.92
2976.27
2996.12
3017.47
3040.32
3064.65
3090.42
3117.55
3145.95
3175.49
3206.02
3237.41
3269.29
3301.46
3333.65
3365.53
3396.76
3426.97
3455.77
3482.77
3507.56
3529.75
3548.97
3564.87
3577.15
3585.54
3589.86
3589.96
3585.84
3577.53
3565.12
3548.8
3528.81
3505.49
3479.18
3450.29
3419.26
3386.54
3352.6
3317.9
3282.9
3248.02
3213.74
3180.28
3148.04
3117.25
3088.1
3060.74
3035.26
3011.7
2990.05
2970.3
2952.38
2936.24
2921.8
2908.97
2897.7
2887.9
2879.54
2872.55
2866.9
2862.57
2859.53
2857.79
2857.34
2858.18
2860.33
2863.81
2868.67
2874.94
2882.67
2891.91
2902.71
2915.11
2929.16
2944.92
2962.42
2981.68
3002.74
3025.56
3050.13
3076.38
3104.2
3133.47
3163.99
3195.55
3227.9
3260.72
3293.72
3326.54
3358.82
3390.2
3420.27
3448.65
3474.95
3498.82
3519.91
3537.91
3552.54
3563.56
3570.8
3574.12
3573.44
3568.77
3560.17
3547.73
3531.63
3512.08
3489.38
3463.86
3435.87
3405.81
3374.11
3341.18
3307.46
3273.34
3239.23
3205.48
3172.43
3140.34
3109.47
3079.99
3052.08
3025.82
3001.32
2978.61
2957.73
2938.68
2921.45
2906.01
2892.33
2880.36
2870.07
2861.4
2854.32
2848.76
2844.7
2842.1
2840.92
2841.13
2842.72
2845.67
2849.98
2855.66
2862.71
2871.18
2881.07
2892.42
2905.26
2919.62
2935.54
2953.03
2972.11
2992.79
3015.03
3038.82
3064.1
3090.79
3118.78
3147.93
3178.06
3208.95
3240.35
3271.97
3303.49
3334.55
3364.77
3393.76
3421.14
3446.5
3469.47
3489.7
3506.85
3520.64
3530.84
3537.27
3539.8
3538.38
3533.04
3523.86
3510.95
3494.51
3474.77
3452.02
3426.58
3398.78
3368.99
3337.59
3304.95
3271.49
3237.59
3203.58
3169.84
3136.8
3106.05
3075.35
3045.68
3017.39
2990.67
2965.68
2942.52
2921.24
2901.89
2884.48
2869.02
2855.48
2843.86
2834.1
2826.16
2819.99
2815.53
2812.74
2811.54
2811.9
2813.75
2817.01
2821.62
2827.55
2834.76
2843.24
2852.98
2863.97
2876.23
2889.78
2904.64
2920.84
2938.4
2957.33
2977.66
2999.38
3022.44
3046.8
3072.39
3098.91
3126.61
3155.25
3184.59
3214.4
3244.41
3274.33
3303.89
3332.75
3360.55
3386.94
3411.55
3434.04
3454.08
3471.31
3485.47
3496.29
3503.54
3507.07
3505.88
3500.6
3491.39
3478.41
3461.89
3442.25
3419.98
2857.52
2838.96
2822.03
2806.78
2793.27
2781.45
2771.3
2762.78
2755.87
2750.54
2746.74
2744.48
2743.73
2744.47
2746.77
2750.58
2755.92
2762.78
2771.18
2781.18
2792.78
2806.05
2821.02
2837.73
2856.21
2876.47
2898.52
2922.36
2947.97
2975.26
3004.2
3034.63
3066.38
3099.17
3132.21
3166.38
3200.96
3235.51
3269.59
3302.86
3334.87
3365.23
3393.51
3419.32
3442.31
3462.16
3478.58
3491.33
3500.25
3505.17
3506.03
3502.71
3495.34
3484
3468.82
3450.05
3427.95
3402.81
3374.99
3344.87
3312.86
3279.37
3244.8
3209.58
3174.08
3138.81
3106.61
3072.93
3040.08
3008.43
2978.22
2949.62
2922.76
2897.75
2874.64
2853.49
2834.33
2817.16
2801.98
2788.77
2777.52
2768.19
2760.76
2755.18
2751.41
2749.39
2749.11
2750.31
2753.1
2757.42
2763.2
2770.41
2779.01
2788.97
2800.28
2812.95
2826.99
2842.44
2859.31
2877.65
2897.48
2918.82
2941.67
2966
2991.78
3018.93
3047.35
3076.93
3107.5
3138.97
3170.91
3203.17
3235.45
3267.45
3298.8
3329.15
3358.09
3385.22
3410.16
3432.49
3451.84
3467.85
3480.22
3488.68
3493.05
3493.17
3489.03
3480.67
3468.18
3451.76
3431.65
3408.19
3381.72
3352.68
3321.49
3288.61
3254.52
3219.68
3184.55
3149.55
3115.17
3081.64
3049.33
3018.49
2989.32
2961.95
2936.47
2912.92
2891.3
2871.57
2853.68
2837.57
2823.16
2810.36
2799.11
2789.34
2780.99
2774.02
2768.38
2764.06
2761.02
2759.28
2758.83
2759.66
2761.8
2765.27
2770.12
2776.37
2784.08
2793.3
2804.08
2816.45
2830.49
2846.23
2863.7
2882.96
2904
2926.82
2951.39
2977.66
3005.51
3034.82
3065.4
3097.03
3129.45
3162.37
3195.47
3228.41
3260.82
3292.32
3322.53
3351.05
3377.49
3401.49
3422.7
3440.8
3455.52
3466.62
3473.9
3477.25
3476.57
3471.88
3463.23
3450.72
3434.53
3414.87
3392.05
3366.38
3338.25
3308.05
3276.2
3243.14
3209.28
3175.04
3140.82
3106.98
3073.85
3041.71
3010.78
2981.28
2953.34
2927.08
2902.57
2879.86
2858.99
2839.96
2822.74
2807.32
2793.66
2781.72
2771.44
2762.8
2755.73
2750.19
2746.14
2743.55
2742.38
2742.59
2744.18
2747.13
2751.44
2757.11
2764.16
2772.61
2782.49
2793.82
2806.64
2820.98
2836.89
2854.37
2873.45
2894.11
2916.36
2940.15
2965.45
2992.15
3020.17
3049.36
3079.56
3110.52
3142
3173.72
3205.35
3236.52
3266.88
3296.01
3323.52
3349.02
3372.13
3392.48
3409.74
3423.62
3433.89
3440.36
3442.92
3441.5
3436.13
3426.89
3413.91
3397.37
3377.53
3354.67
3329.1
3301.17
3271.24
3239.7
3206.94
3173.35
3139.33
3105.21
3071.35
3038.19
3007.54
2976.74
2947
2918.66
2891.92
2866.92
2843.75
2822.47
2803.12
2785.73
2770.28
2756.76
2745.15
2735.41
2727.49
2721.35
2716.91
2714.14
2712.96
2713.34
2715.2
2718.48
2723.1
2729.03
2736.25
2744.73
2754.46
2765.44
2777.69
2791.23
2806.08
2822.27
2839.81
2858.73
2879.06
2900.77
2923.83
2948.22
2973.81
3000.36
3028.1
3056.79
3086.19
3116.07
3146.17
3176.18
3205.86
3234.83
3262.75
3289.26
3314
3336.62
3356.77
3374.12
3388.38
3399.28
3406.6
3410.16
3408.97
3403.65
3394.38
3381.31
3364.69
3344.93
3322.53
2758.72
2740.18
2723.27
2708.04
2694.54
2682.73
2672.6
2664.1
2657.21
2651.88
2648.1
2645.85
2645.1
2645.84
2648.13
2651.95
2657.28
2664.12
2672.51
2682.49
2694.07
2707.32
2722.27
2738.96
2757.42
2777.67
2799.7
2823.54
2849.15
2876.46
2905.42
2935.9
2967.7
3000.57
3033.65
3067.93
3102.64
3137.32
3171.55
3204.97
3237.15
3267.66
3296.1
3322.06
3345.2
3365.18
3381.7
3394.54
3403.52
3408.47
3409.34
3406
3398.59
3387.18
3371.9
3353.02
3330.78
3305.49
3277.51
3247.23
3215.06
3181.41
3146.69
3111.32
3075.66
3040.2
3008.15
2974.31
2941.36
2909.65
2879.39
2850.77
2823.9
2798.87
2775.76
2754.62
2735.46
2718.31
2703.14
2689.95
2678.72
2669.41
2661.99
2656.43
2652.69
2650.69
2650.43
2651.64
2654.46
2658.79
2664.59
2671.81
2680.41
2690.37
2701.68
2714.33
2728.35
2743.78
2760.64
2778.96
2798.78
2820.11
2842.95
2867.28
2893.07
2920.23
2948.69
2978.31
3008.93
3040.48
3072.5
3104.85
3137.25
3169.37
3200.86
3231.35
3260.45
3287.75
3312.84
3335.33
3354.83
3370.97
3383.45
3391.99
3396.4
3396.54
3392.38
3383.96
3371.39
3354.85
3334.61
3310.98
3284.35
3255.13
3223.76
3190.7
3156.44
3121.44
3086.16
3051.03
3016.55
2982.92
2950.54
2919.66
2890.45
2863.07
2837.6
2814.06
2792.46
2772.76
2754.91
2738.83
2724.45
2711.69
2700.47
2690.72
2682.39
2675.43
2669.81
2665.49
2662.47
2660.73
2660.27
2661.09
2663.22
2666.68
2671.51
2677.75
2685.43
2694.63
2705.38
2717.73
2731.74
2747.46
2764.91
2784.15
2805.18
2827.99
2852.58
2878.86
2906.75
2936.1
2966.74
2998.45
3030.97
3063.99
3097.21
3130.27
3162.83
3194.48
3224.84
3253.51
3280.1
3304.25
3325.59
3343.82
3358.64
3369.82
3377.16
3380.54
3379.86
3375.15
3366.44
3353.85
3337.55
3317.78
3294.81
3268.99
3240.7
3210.33
3178.32
3145.1
3111.09
3076.72
3042.38
3008.43
2975.22
2943
2912.03
2882.48
2854.52
2828.25
2803.74
2781.04
2760.18
2741.16
2723.97
2708.57
2694.93
2683
2672.75
2664.13
2657.08
2651.55
2647.52
2644.94
2643.78
2644
2645.59
2648.54
2652.85
2658.51
2665.55
2673.98
2683.84
2695.16
2707.96
2722.29
2738.17
2755.64
2774.7
2795.36
2817.61
2841.41
2866.71
2893.44
2921.5
2950.74
2981
3012.04
3043.62
3075.44
3107.2
3138.51
3169.01
3198.3
3225.97
3251.62
3274.88
3295.36
3312.75
3326.74
3337.09
3343.61
3346.19
3344.77
3339.37
3330.07
3317
3300.36
3280.4
3257.4
3231.69
3203.61
3173.53
3141.84
3108.93
3075.21
3041.05
3006.8
2972.81
2939.51
2908.98
2878.06
2848.24
2819.86
2793.09
2768.07
2744.89
2723.62
2704.28
2686.89
2671.46
2657.96
2646.37
2636.65
2628.76
2622.63
2618.22
2615.47
2614.32
2614.72
2616.6
2619.89
2624.53
2630.47
2637.68
2646.16
2655.89
2666.87
2679.1
2692.63
2707.46
2723.63
2741.16
2760.07
2780.39
2802.09
2825.17
2849.56
2875.18
2901.74
2929.53
2958.28
2987.76
3017.72
3047.91
3078.03
3107.82
3136.93
3164.99
3191.65
3216.53
3239.28
3259.57
3277.04
3291.41
3302.41
3309.8
3313.41
3312.21
3306.85
3297.51
3284.35
3267.6
3247.7
3225.15
2659.86
2641.32
2624.43
2609.22
2595.74
2583.95
2573.84
2565.36
2558.48
2553.17
2549.4
2547.15
2546.41
2547.15
2549.44
2553.25
2558.57
2565.41
2573.78
2583.73
2595.3
2608.52
2623.45
2640.12
2658.56
2678.78
2700.81
2724.64
2750.25
2777.57
2806.56
2837.08
2868.96
2901.92
2935.04
2969.45
3004.3
3039.13
3073.52
3107.11
3139.46
3170.16
3198.78
3224.91
3248.2
3268.32
3284.96
3297.9
3306.94
3311.93
3312.81
3309.45
3301.99
3290.49
3275.11
3256.1
3233.71
3208.25
3180.09
3149.64
3117.29
3083.46
3048.57
3013.04
2977.21
2941.53
2909.65
2875.62
2842.57
2810.79
2780.49
2751.83
2724.94
2699.91
2676.8
2655.66
2636.52
2619.37
2604.22
2591.05
2579.84
2570.55
2563.15
2557.61
2553.89
2551.92
2551.67
2552.92
2555.75
2560.11
2565.92
2573.15
2581.76
2591.71
2603.01
2615.65
2629.66
2645.07
2661.91
2680.21
2700.01
2721.33
2744.16
2768.49
2794.29
2821.48
2849.97
2879.63
2910.3
2941.95
2974.05
3006.51
3039.03
3071.29
3102.93
3133.59
3162.86
3190.34
3215.61
3238.27
3257.94
3274.23
3286.82
3295.46
3299.92
3300.08
3295.9
3287.42
3274.75
3258.08