/*--------------------------------*- C++ -*----------------------------------*\
| =========                 |                                                 |
| \\      /  F ield         | OpenFOAM: The Open Source CFD Toolbox           |
|  \\    /   O peration     | Version:  3.0.1                                 |
|   \\  /    A nd           | Web:      www.OpenFOAM.org                      |
|    \\/     M anipulation  |                                                 |
\*---------------------------------------------------------------------------*/
FoamFile
{
    version     2.0;
    format      ascii;
    class       volVectorField;
    location    "88.4";
    object      U;
}
// * * * * * * * * * * * * * * * * * * * * * * * * * * * * * * * * * * * * * //

dimensions      [0 1 -1 0 0 0 0];

internalField   nonuniform List<vector> 
21420
(
(0.11524 0.00183446 0)
(0.0985892 0.00186389 0)
(0.0795094 0.00190487 0)
(0.0602575 0.00192163 0)
(0.0410752 0.00188182 0)
(0.0220236 0.00185668 0)
(0.00358339 0.00177817 0)
(-0.0139521 0.00172217 0)
(-0.0308788 0.00165133 0)
(-0.0470035 0.00154969 0)
(-0.0622136 0.00146217 0)
(-0.0764487 0.00136796 0)
(-0.0896717 0.00125813 0)
(-0.101868 0.00116012 0)
(-0.113037 0.00105303 0)
(-0.123189 0.000956394 0)
(-0.132345 0.000860613 0)
(-0.140529 0.000762965 0)
(-0.147774 0.000673006 0)
(-0.154113 0.000585614 0)
(-0.159581 0.000499706 0)
(-0.164212 0.000419047 0)
(-0.168041 0.000341154 0)
(-0.1711 0.00026543 0)
(-0.173423 0.000192365 0)
(-0.17503 0.000121584 0)
(-0.175912 5.5759e-05 0)
(-0.176133 -1.17837e-05 0)
(-0.175653 -8.08572e-05 0)
(-0.174496 -0.000149653 0)
(-0.172643 -0.000218809 0)
(-0.170085 -0.000290524 0)
(-0.166801 -0.000362769 0)
(-0.16277 -0.000439844 0)
(-0.157963 -0.000517418 0)
(-0.152341 -0.000598383 0)
(-0.145873 -0.000686986 0)
(-0.13853 -0.000772784 0)
(-0.130274 -0.000862147 0)
(-0.121071 -0.000963386 0)
(-0.110904 -0.00105486 0)
(-0.0997445 -0.00116319 0)
(-0.0875818 -0.00125545 0)
(-0.0744324 -0.00134535 0)
(-0.0602658 -0.00145607 0)
(-0.0451098 -0.00153509 0)
(-0.0290031 -0.0016095 0)
(-0.0121507 -0.00171349 0)
(0.00517663 -0.00175698 0)
(0.0230755 -0.00179638 0)
(0.0415276 -0.00185187 0)
(0.0602688 -0.00185666 0)
(0.0790807 -0.00186897 0)
(0.0977659 -0.00183594 0)
(0.116075 -0.00177657 0)
(0.133747 -0.00171137 0)
(0.15056 -0.00161169 0)
(0.166269 -0.00148198 0)
(0.180621 -0.00134194 0)
(0.193412 -0.00117154 0)
(0.204421 -0.000990226 0)
(0.213479 -0.000788427 0)
(0.220403 -0.000566529 0)
(0.225079 -0.000342409 0)
(0.227421 -0.000109502 0)
(0.227366 0.000133444 0)
(0.224792 0.000365574 0)
(0.219818 0.000605079 0)
(0.212498 0.000814605 0)
(0.203007 0.00102274 0)
(0.191573 0.00123045 0)
(0.178273 0.00138681 0)
(0.163265 0.00154907 0)
(0.146918 0.00166936 0)
(0.129537 0.00176459 0)
(0.111169 0.00183673 0)
(0.092242 0.00189324 0)
(0.0730772 0.00190976 0)
(0.0536615 0.00190534 0)
(0.0344933 0.00189001 0)
(0.0157132 0.00184957 0)
(-0.0025602 0.00177737 0)
(-0.0200782 0.00170155 0)
(-0.036798 0.00160785 0)
(-0.0524746 0.00149877 0)
(-0.0670134 0.00138361 0)
(-0.0803896 0.00126866 0)
(-0.0926148 0.00116046 0)
(-0.103773 0.00106074 0)
(-0.113919 0.000961072 0)
(-0.123101 0.000864098 0)
(-0.131346 0.000774405 0)
(-0.138649 0.000684913 0)
(-0.145042 0.000592757 0)
(-0.150536 0.000498659 0)
(-0.155121 0.00041191 0)
(-0.158832 0.000327217 0)
(-0.161717 0.000243058 0)
(-0.163792 0.000160634 0)
(-0.165034 9.23995e-05 0)
(-0.165568 2.18283e-05 0)
(-0.165422 -4.96443e-05 0)
(-0.164583 -0.000117838 0)
(-0.163096 -0.000178719 0)
(-0.160981 -0.000240039 0)
(-0.158252 -0.000297391 0)
(-0.154913 -0.00036196 0)
(-0.150942 -0.00042323 0)
(-0.146307 -0.000489128 0)
(-0.141006 -0.000562403 0)
(-0.135012 -0.000628498 0)
(-0.128302 -0.000698956 0)
(-0.12086 -0.00077396 0)
(-0.112683 -0.000848795 0)
(-0.103735 -0.000923116 0)
(-0.0939919 -0.00100248 0)
(-0.0834966 -0.00108132 0)
(-0.0721797 -0.00115988 0)
(-0.0600569 -0.00123973 0)
(-0.0471701 -0.00131708 0)
(-0.0335018 -0.00139281 0)
(-0.019111 -0.00146505 0)
(-0.00398644 -0.00152368 0)
(0.0117819 -0.0015908 0)
(0.0280884 -0.00163861 0)
(0.0448432 -0.00167982 0)
(0.0619153 -0.0017076 0)
(0.0791635 -0.00171155 0)
(0.0963861 -0.00170159 0)
(0.113397 -0.00166814 0)
(0.12996 -0.00161478 0)
(0.145836 -0.00153094 0)
(0.160754 -0.00142354 0)
(0.174446 -0.00128858 0)
(0.186657 -0.00113043 0)
(0.197122 -0.000942847 0)
(0.205605 -0.000743526 0)
(0.211946 -0.000508127 0)
(0.215943 -0.000279801 0)
(0.217494 -3.77005e-05 0)
(0.216643 0.000211578 0)
(0.213137 0.000463668 0)
(0.207196 0.000703769 0)
(0.198952 0.000936038 0)
(0.188482 0.0011407 0)
(0.17598 0.00133584 0)
(0.161659 0.00150293 0)
(0.145793 0.00164219 0)
(0.128633 0.00175812 0)
(0.110479 0.00183918 0)
(0.0916426 0.0019001 0)
(0.0723834 0.00192452 0)
(0.0529898 0.00191951 0)
(0.0337422 0.0019004 0)
(0.0148784 0.00184892 0)
(-0.00341016 0.00178147 0)
(-0.020969 0.00170328 0)
(-0.0376504 0.00160969 0)
(-0.0533284 0.00150252 0)
(-0.0679577 0.00140106 0)
(-0.0815205 0.00129172 0)
(-0.0939914 0.00118215 0)
(-0.105362 0.00107688 0)
(-0.115653 0.000970608 0)
(-0.124886 0.000862569 0)
(-0.133082 0.000760574 0)
(-0.140292 0.000679461 0)
(-0.146633 0.000583245 0)
(-0.152148 0.000505839 0)
(-0.15686 0.000432729 0)
(-0.160875 0.000365108 0)
(-0.164232 0.000300236 0)
(-0.166927 0.000232387 0)
(-0.168962 0.000175473 0)
(-0.170385 0.000111756 0)
(-0.171222 5.61938e-05 0)
(-0.17153 -2.20884e-06 0)
(-0.1712 -5.71148e-05 0)
(-0.170257 -0.000121364 0)
(-0.168739 -0.000178416 0)
(-0.166591 -0.000240487 0)
(-0.163881 -0.000300462 0)
(-0.160619 -0.000354967 0)
(-0.156767 -0.000402672 0)
(-0.152303 -0.000470783 0)
(-0.147271 -0.000538071 0)
(-0.141544 -0.000591625 0)
(-0.135093 -0.000676337 0)
(-0.127945 -0.000752768 0)
(-0.119994 -0.000825001 0)
(-0.111197 -0.000913401 0)
(-0.101582 -0.000991033 0)
(-0.0910858 -0.00108038 0)
(-0.0797491 -0.00116916 0)
(-0.0675543 -0.00125239 0)
(-0.0545136 -0.00133346 0)
(-0.0407253 -0.001409 0)
(-0.0262222 -0.00146776 0)
(-0.011044 -0.00152595 0)
(0.00468883 -0.00158327 0)
(0.0208935 -0.0016254 0)
(0.0374124 -0.00165345 0)
(0.0541376 -0.0016628 0)
(0.0708917 -0.00165907 0)
(0.0874774 -0.00163219 0)
(0.103674 -0.00157815 0)
(0.119225 -0.00149965 0)
(0.133864 -0.00140032 0)
(0.147364 -0.00127757 0)
(0.159466 -0.00111971 0)
(0.169932 -0.000953036 0)
(0.178555 -0.000749546 0)
(0.185096 -0.000543325 0)
(0.189392 -0.000310714 0)
(0.191302 -7.40354e-05 0)
(0.190837 0.00017294 0)
(0.187807 0.00041642 0)
(0.18238 0.000655556 0)
(0.174664 0.000875035 0)
(0.164774 0.00108158 0)
(0.152927 0.00126687 0)
(0.139347 0.0014223 0)
(0.124311 0.00155251 0)
(0.108117 0.00166098 0)
(0.0910035 0.00173679 0)
(0.0732675 0.0017831 0)
(0.055185 0.00180365 0)
(0.0369805 0.00180775 0)
(0.0188713 0.00178492 0)
(0.00108236 0.00174177 0)
(-0.01621 0.00169016 0)
(-0.0328828 0.00162259 0)
(-0.0487919 0.00153563 0)
(-0.0638358 0.00144962 0)
(-0.0779615 0.00135748 0)
(-0.0911457 0.00125946 0)
(-0.103345 0.00116177 0)
(-0.114572 0.00107157 0)
(-0.124856 0.000971617 0)
(-0.134186 0.000878933 0)
(-0.142596 0.000790209 0)
(-0.150102 0.000700676 0)
(-0.156748 0.000619674 0)
(-0.162559 0.000534262 0)
(-0.16753 0.00045418 0)
(-0.17174 0.000381231 0)
(-0.175216 0.000308089 0)
(-0.177979 0.00024151 0)
(-0.180083 0.000176755 0)
(-0.181569 0.000117806 0)
(-0.182443 5.86218e-05 0)
(-0.182783 1.23711e-05 0)
(-0.18259 -4.16511e-05 0)
(-0.181879 -9.90812e-05 0)
(-0.180653 -0.000150164 0)
(-0.178894 -0.000197347 0)
(-0.176631 -0.000244697 0)
(-0.173884 -0.000294936 0)
(-0.170598 -0.000351039 0)
(-0.166784 -0.000408551 0)
(-0.162429 -0.00046223 0)
(-0.157444 -0.000514278 0)
(-0.151831 -0.000583316 0)
(-0.145582 -0.000651596 0)
(-0.13869 -0.000717658 0)
(-0.131035 -0.000779932 0)
(-0.122607 -0.000863285 0)
(-0.113587 -0.000934693 0)
(-0.103659 -0.00101374 0)
(-0.0929214 -0.00109179 0)
(-0.0814134 -0.00117087 0)
(-0.0691748 -0.00125383 0)
(-0.0560988 -0.00132158 0)
(-0.0421238 -0.00141413 0)
(-0.0275047 -0.00148476 0)
(-0.0122049 -0.00155559 0)
(0.00415478 -0.00161199 0)
(0.0213294 -0.00166911 0)
(0.0386565 -0.00172322 0)
(0.0563492 -0.00175966 0)
(0.074316 -0.00176913 0)
(0.0922182 -0.00176344 0)
(0.109791 -0.00172319 0)
(0.126761 -0.00164355 0)
(0.14282 -0.00152746 0)
(0.15744 -0.00138345 0)
(0.170372 -0.0011922 0)
(0.181353 -0.000982131 0)
(0.18998 -0.000735385 0)
(0.196175 -0.000474355 0)
(0.199717 -0.000206352 0)
(0.200399 8.35874e-05 0)
(0.198196 0.000362481 0)
(0.193079 0.000642308 0)
(0.185331 0.00090265 0)
(0.17511 0.00111611 0)
(0.162797 0.00132227 0)
(0.148654 0.00149035 0)
(0.13304 0.00160877 0)
(0.116287 0.00171 0)
(0.0988268 0.00175488 0)
(0.0808978 0.00178403 0)
(0.0627938 0.00179484 0)
(0.0448464 0.0017481 0)
(0.027281 0.00171248 0)
(0.0104331 0.00164559 0)
(-0.00542867 0.00156844 0)
(-0.0204722 0.00148483 0)
(-0.0348212 0.00138622 0)
(-0.0482612 0.00129501 0)
(-0.0607675 0.00120232 0)
(-0.072339 0.00110597 0)
(-0.0830062 0.00101912 0)
(-0.0928121 0.000936069 0)
(-0.101804 0.000855259 0)
(-0.11004 0.000783875 0)
(-0.117581 0.000715642 0)
(-0.124485 0.000655739 0)
(-0.130802 0.000600162 0)
(-0.136574 0.000546518 0)
(-0.141833 0.00049726 0)
(-0.146597 0.000448759 0)
(-0.150868 0.000398817 0)
(-0.154638 0.000348462 0)
(-0.157885 0.000294323 0)
(-0.160579 0.000237239 0)
(-0.162682 0.00017511 0)
(-0.164133 0.000109212 0)
(-0.1649 4.01459e-05 0)
(-0.164946 -3.72059e-05 0)
(-0.164165 -0.000119667 0)
(-0.162542 -0.000205842 0)
(-0.16002 -0.000295477 0)
(-0.156573 -0.000389418 0)
(-0.152174 -0.000484209 0)
(-0.146802 -0.000583448 0)
(-0.140444 -0.000680417 0)
(-0.133091 -0.00077641 0)
(-0.12475 -0.000877725 0)
(-0.115439 -0.000970098 0)
(-0.105181 -0.00105845 0)
(-0.0940062 -0.00115419 0)
(-0.0819643 -0.00123258 0)
(-0.0691099 -0.00131984 0)
(-0.0555084 -0.00138414 0)
(-0.0412394 -0.00143908 0)
(-0.0263587 -0.00150578 0)
(-0.010749 -0.00154267 0)
(0.00495061 -0.0015587 0)
(0.0206385 -0.0015949 0)
(0.0366946 -0.00159136 0)
(0.0527425 -0.00159787 0)
(0.068621 -0.00156344 0)
(0.0841594 -0.00151302 0)
(0.0992008 -0.00146965 0)
(0.113571 -0.00138672 0)
(0.128456 -0.00128877 0)
(0.115265 0.00550443 0)
(0.0986054 0.00559264 0)
(0.0795161 0.00571555 0)
(0.0602551 0.00576577 0)
(0.0410649 0.0056462 0)
(0.0220047 0.00557093 0)
(0.00355915 0.00533483 0)
(-0.0139805 0.00516694 0)
(-0.0309118 0.00495433 0)
(-0.047039 0.00464931 0)
(-0.0622515 0.00438669 0)
(-0.0764883 0.00410398 0)
(-0.0897113 0.00377445 0)
(-0.101908 0.00348036 0)
(-0.113076 0.00315902 0)
(-0.123228 0.00286911 0)
(-0.132383 0.00258173 0)
(-0.140565 0.00228876 0)
(-0.147809 0.00201886 0)
(-0.154147 0.00175665 0)
(-0.159613 0.00149889 0)
(-0.164243 0.00125691 0)
(-0.168071 0.00102321 0)
(-0.171129 0.000796003 0)
(-0.173451 0.000576765 0)
(-0.175057 0.000364503 0)
(-0.175939 0.000167958 0)
(-0.17616 -3.58839e-05 0)
(-0.17568 -0.000243005 0)
(-0.174523 -0.000449127 0)
(-0.172672 -0.000656521 0)
(-0.170114 -0.000871473 0)
(-0.166832 -0.00108832 0)
(-0.162801 -0.00131942 0)
(-0.157996 -0.00155217 0)
(-0.152376 -0.00179504 0)
(-0.145909 -0.00206082 0)
(-0.138568 -0.00231821 0)
(-0.130313 -0.00258625 0)
(-0.121112 -0.00289002 0)
(-0.110946 -0.00316479 0)
(-0.0997881 -0.00348922 0)
(-0.0876253 -0.00376647 0)
(-0.0744756 -0.00403601 0)
(-0.0603083 -0.00436824 0)
(-0.045151 -0.00460563 0)
(-0.029044 -0.00482827 0)
(-0.0121858 -0.00514084 0)
(0.0051471 -0.0052716 0)
(0.0230489 -0.00538992 0)
(0.0415084 -0.00555655 0)
(0.060257 -0.00557092 0)
(0.0790784 -0.00560748 0)
(0.0977719 -0.00551011 0)
(0.116092 -0.00533006 0)
(0.133774 -0.00513617 0)
(0.150599 -0.00483571 0)
(0.166318 -0.00444637 0)
(0.180682 -0.00402666 0)
(0.193483 -0.00351563 0)
(0.204503 -0.00296903 0)
(0.213565 -0.00237204 0)
(0.220505 -0.00169554 0)
(0.225184 -0.00102622 0)
(0.227535 -0.000328995 0)
(0.227477 0.000398638 0)
(0.224897 0.00109633 0)
(0.219929 0.00181527 0)
(0.212605 0.0024429 0)
(0.20311 0.00306997 0)
(0.191665 0.00369148 0)
(0.178356 0.00416201 0)
(0.163338 0.00464913 0)
(0.146976 0.00500861 0)
(0.129581 0.00529479 0)
(0.111205 0.00551147 0)
(0.0922644 0.00568325 0)
(0.0730797 0.00572756 0)
(0.0536649 0.0057164 0)
(0.0344856 0.00567732 0)
(0.0156878 0.00554312 0)
(-0.00258778 0.00533441 0)
(-0.0201097 0.00510606 0)
(-0.0368364 0.00482125 0)
(-0.0525141 0.00449631 0)
(-0.067049 0.00415071 0)
(-0.0804216 0.00380871 0)
(-0.0926463 0.00347693 0)
(-0.103801 0.00317119 0)
(-0.113937 0.0028724 0)
(-0.123108 0.00259458 0)
(-0.131349 0.00231637 0)
(-0.138652 0.00204656 0)
(-0.145043 0.0017711 0)
(-0.150536 0.00150604 0)
(-0.155135 0.00123218 0)
(-0.158857 0.000974971 0)
(-0.161745 0.000722714 0)
(-0.163821 0.000482261 0)
(-0.165071 0.000279407 0)
(-0.165609 5.8423e-05 0)
(-0.165456 -0.000144031 0)
(-0.164616 -0.000341729 0)
(-0.163144 -0.000531849 0)
(-0.161042 -0.000717236 0)
(-0.158319 -0.000906082 0)
(-0.154976 -0.00108731 0)
(-0.151006 -0.00127494 0)
(-0.14638 -0.00147598 0)
(-0.141072 -0.00168116 0)
(-0.135084 -0.00188807 0)
(-0.128378 -0.00209695 0)
(-0.120938 -0.00232114 0)
(-0.112766 -0.00255014 0)
(-0.103822 -0.00277303 0)
(-0.0940805 -0.00301595 0)
(-0.0835836 -0.00324995 0)
(-0.0722671 -0.00348127 0)
(-0.0601428 -0.0037168 0)
(-0.0472566 -0.00394891 0)
(-0.0335916 -0.00417805 0)
(-0.0192045 -0.00440002 0)
(-0.00408877 -0.0045778 0)
(0.0116801 -0.00477582 0)
(0.027985 -0.0049218 0)
(0.0447427 -0.00504273 0)
(0.0618225 -0.00511258 0)
(0.0790637 -0.00514171 0)
(0.0962907 -0.00510426 0)
(0.113296 -0.00501066 0)
(0.129864 -0.00484107 0)
(0.145745 -0.00459722 0)
(0.160667 -0.00426753 0)
(0.174359 -0.00387311 0)
(0.186577 -0.00338267 0)
(0.197038 -0.0028346 0)
(0.205533 -0.00222051 0)
(0.211862 -0.0015402 0)
(0.215864 -0.000834164 0)
(0.217414 -0.000117115 0)
(0.216554 0.000639841 0)
(0.213047 0.001388 0)
(0.207114 0.0021127 0)
(0.198859 0.00280531 0)
(0.18839 0.00342448 0)
(0.17588 0.00400334 0)
(0.161547 0.00450508 0)
(0.145667 0.00492473 0)
(0.128508 0.00527459 0)
(0.110348 0.00551916 0)
(0.091489 0.00569437 0)
(0.0722354 0.00576536 0)
(0.0528473 0.00576512 0)
(0.0335906 0.00569137 0)
(0.0147271 0.0055401 0)
(-0.00356854 0.00535154 0)
(-0.0211382 0.00510202 0)
(-0.0378128 0.00481494 0)
(-0.0534821 0.00452528 0)
(-0.068123 0.00420415 0)
(-0.0816917 0.00387353 0)
(-0.0941589 0.00354354 0)
(-0.105527 0.00323435 0)
(-0.115814 0.00289928 0)
(-0.125041 0.00258039 0)
(-0.133228 0.00228281 0)
(-0.140437 0.002027 0)
(-0.14677 0.00175723 0)
(-0.152277 0.00152228 0)
(-0.156994 0.00129718 0)
(-0.16101 0.00108871 0)
(-0.164364 0.000892976 0)
(-0.167046 0.000693307 0)
(-0.169078 0.000530278 0)
(-0.170503 0.000339244 0)
(-0.171339 0.000165346 0)
(-0.171646 -1.38414e-05 0)
(-0.171313 -0.000169778 0)
(-0.170372 -0.000361908 0)
(-0.168856 -0.000541619 0)
(-0.16671 -0.000726026 0)
(-0.16399 -0.000897973 0)
(-0.160737 -0.0010709 0)
(-0.156887 -0.00121315 0)
(-0.152428 -0.00141806 0)
(-0.147386 -0.00160994 0)
(-0.141669 -0.00178053 0)
(-0.135218 -0.0020216 0)
(-0.128077 -0.0022626 0)
(-0.120121 -0.00247119 0)
(-0.111334 -0.00274145 0)
(-0.101728 -0.00298163 0)
(-0.0912314 -0.00324321 0)
(-0.0798913 -0.00350158 0)
(-0.067701 -0.00375245 0)
(-0.0546659 -0.00399559 0)
(-0.0408805 -0.00423331 0)
(-0.0263755 -0.00440389 0)
(-0.0112147 -0.00459177 0)
(0.00452627 -0.0047456 0)
(0.0207294 -0.00487122 0)
(0.0372532 -0.00495525 0)
(0.0539743 -0.00499655 0)
(0.07074 -0.00497779 0)
(0.0873327 -0.00489257 0)
(0.103537 -0.00473876 0)
(0.119091 -0.00450957 0)
(0.133747 -0.00419494 0)
(0.147254 -0.0038286 0)
(0.159351 -0.00336541 0)
(0.169829 -0.00285722 0)
(0.178457 -0.00226469 0)
(0.18502 -0.00161917 0)
(0.189312 -0.000939417 0)
(0.191229 -0.000227964 0)
(0.190771 0.000513317 0)
(0.187744 0.00125363 0)
(0.182315 0.00195696 0)
(0.174602 0.00262803 0)
(0.164704 0.0032376 0)
(0.152861 0.00379987 0)
(0.139277 0.00426882 0)
(0.124233 0.00466144 0)
(0.108029 0.00498198 0)
(0.090896 0.00519884 0)
(0.0731649 0.00534712 0)
(0.0550748 0.00542053 0)
(0.036853 0.00541792 0)
(0.0187484 0.00535365 0)
(0.000955572 0.00523498 0)
(-0.0163502 0.00506778 0)
(-0.0330314 0.00485491 0)
(-0.0489322 0.00461008 0)
(-0.063981 0.00435744 0)
(-0.0781192 0.00406608 0)
(-0.0913005 0.00377183 0)
(-0.103503 0.00347632 0)
(-0.114727 0.00321268 0)
(-0.125011 0.00291972 0)
(-0.134346 0.00263571 0)
(-0.142759 0.00237258 0)
(-0.150271 0.00209882 0)
(-0.15692 0.00185521 0)
(-0.162729 0.00160146 0)
(-0.167701 0.00136682 0)
(-0.171915 0.00114133 0)
(-0.17538 0.00091814 0)
(-0.178137 0.000731751 0)
(-0.180243 0.000527591 0)
(-0.181724 0.000352688 0)
(-0.182591 0.000173566 0)
(-0.182923 3.19381e-05 0)
(-0.182725 -0.000138919 0)
(-0.181994 -0.000294969 0)
(-0.180763 -0.000445559 0)
(-0.179001 -0.000583453 0)
(-0.176744 -0.000741968 0)
(-0.173991 -0.000896598 0)
(-0.170698 -0.00105776 0)
(-0.166875 -0.00121861 0)
(-0.162522 -0.00139279 0)
(-0.157534 -0.00154653 0)
(-0.15191 -0.00174523 0)
(-0.145664 -0.00195247 0)
(-0.13877 -0.00215542 0)
(-0.131109 -0.00233806 0)
(-0.122681 -0.0025962 0)
(-0.113649 -0.00280361 0)
(-0.10372 -0.00304064 0)
(-0.0929793 -0.00326823 0)
(-0.0814763 -0.00351834 0)
(-0.0692244 -0.0037635 0)
(-0.0561433 -0.00396534 0)
(-0.0421664 -0.00423929 0)
(-0.0275447 -0.00445203 0)
(-0.012235 -0.00467029 0)
(0.00413072 -0.00483225 0)
(0.0213028 -0.00501362 0)
(0.0386395 -0.00516969 0)
(0.0563417 -0.00528043 0)
(0.0743217 -0.00530593 0)
(0.0922301 -0.00529592 0)
(0.10982 -0.00517566 0)
(0.126812 -0.00492754 0)
(0.142885 -0.00458347 0)
(0.157521 -0.00415028 0)
(0.170467 -0.00357681 0)
(0.18146 -0.00294791 0)
(0.190102 -0.00220486 0)
(0.196295 -0.00143428 0)
(0.199857 -0.000613659 0)
(0.200537 0.000249372 0)
(0.198313 0.00108766 0)
(0.193201 0.0019269 0)
(0.185444 0.00270875 0)
(0.175212 0.00334887 0)
(0.162885 0.00396904 0)
(0.148727 0.00446754 0)
(0.133099 0.00482677 0)
(0.11633 0.00513131 0)
(0.0988547 0.00526613 0)
(0.0809138 0.00535319 0)
(0.0627971 0.00538558 0)
(0.0448402 0.00524538 0)
(0.0272664 0.00513861 0)
(0.0104119 0.00493719 0)
(-0.00545339 0.00470576 0)
(-0.0205025 0.0044548 0)
(-0.0348533 0.00415886 0)
(-0.0482946 0.00388516 0)
(-0.0608012 0.00360703 0)
(-0.0723717 0.0033179 0)
(-0.0830378 0.00305727 0)
(-0.0928421 0.00280809 0)
(-0.101832 0.00256563 0)
(-0.110066 0.00235147 0)
(-0.117605 0.00214677 0)
(-0.124506 0.00196708 0)
(-0.130822 0.00180038 0)
(-0.136593 0.00163949 0)
(-0.141852 0.00149175 0)
(-0.146615 0.0013463 0)
(-0.150887 0.0011965 0)
(-0.154658 0.00104542 0)
(-0.157907 0.000883106 0)
(-0.160601 0.000711982 0)
(-0.162707 0.000525901 0)
(-0.164163 0.000326989 0)
(-0.16493 0.000120412 0)
(-0.164978 -0.000111369 0)
(-0.164199 -0.000358946 0)
(-0.162577 -0.000617384 0)
(-0.160057 -0.00088636 0)
(-0.156611 -0.0011682 0)
(-0.152213 -0.00145261 0)
(-0.146842 -0.00175033 0)
(-0.140484 -0.00204131 0)
(-0.13313 -0.00232926 0)
(-0.124789 -0.00263326 0)
(-0.115477 -0.00291042 0)
(-0.105217 -0.00317548 0)
(-0.0940413 -0.00346274 0)
(-0.081997 -0.00369799 0)
(-0.0691403 -0.0039598 0)
(-0.0555356 -0.00415272 0)
(-0.041263 -0.00431755 0)
(-0.0263793 -0.00451773 0)
(-0.0107637 -0.0046288 0)
(0.00494082 -0.0046763 0)
(0.0206324 -0.00478528 0)
(0.0366945 -0.00477466 0)
(0.0527488 -0.0047942 0)
(0.0686336 -0.00469095 0)
(0.0841783 -0.00453972 0)
(0.0992269 -0.00440964 0)
(0.113604 -0.00416086 0)
(0.128495 -0.00386699 0)
(0.115316 0.00917758 0)
(0.0986367 0.00932433 0)
(0.0795281 0.00952904 0)
(0.0602489 0.00961252 0)
(0.0410429 0.00941281 0)
(0.0219656 0.00928784 0)
(0.00350912 0.00889237 0)
(-0.0140388 0.00861305 0)
(-0.0309793 0.0082584 0)
(-0.0471114 0.00774967 0)
(-0.0623289 0.00731169 0)
(-0.0765689 0.00684026 0)
(-0.089792 0.00629083 0)
(-0.101989 0.00580052 0)
(-0.113155 0.0052648 0)
(-0.123306 0.00478154 0)
(-0.132459 0.00430249 0)
(-0.140639 0.00381415 0)
(-0.14788 0.00336428 0)
(-0.154216 0.00292723 0)
(-0.159679 0.00249762 0)
(-0.164306 0.00209433 0)
(-0.168132 0.00170488 0)
(-0.171187 0.0013263 0)
(-0.173506 0.000961327 0)
(-0.175111 0.000608178 0)
(-0.175995 0.000280881 0)
(-0.176215 -6.2283e-05 0)
(-0.175734 -0.000405944 0)
(-0.174578 -0.00074861 0)
(-0.172727 -0.00109409 0)
(-0.170171 -0.0014518 0)
(-0.16689 -0.00181371 0)
(-0.162863 -0.00219856 0)
(-0.15806 -0.00258663 0)
(-0.152442 -0.00299133 0)
(-0.145979 -0.0034343 0)
(-0.138639 -0.00386328 0)
(-0.130387 -0.00430997 0)
(-0.121188 -0.00481641 0)
(-0.111023 -0.00527495 0)
(-0.0998671 -0.00581492 0)
(-0.0877036 -0.00627793 0)
(-0.074552 -0.00672685 0)
(-0.060382 -0.00728082 0)
(-0.0452206 -0.00767731 0)
(-0.0291118 -0.00804685 0)
(-0.0122409 -0.00856958 0)
(0.00510424 -0.00878819 0)
(0.0230128 -0.00898586 0)
(0.0414881 -0.00926352 0)
(0.0602518 -0.00928767 0)
(0.0790917 -0.00934899 0)
(0.0978027 -0.00918613 0)
(0.116141 -0.00888712 0)
(0.133843 -0.00856348 0)
(0.150687 -0.00806376 0)
(0.166425 -0.00741362 0)
(0.180806 -0.00671671 0)
(0.193624 -0.00585915 0)
(0.204656 -0.00495321 0)
(0.213734 -0.00395202 0)
(0.220681 -0.00283253 0)
(0.225369 -0.00171136 0)
(0.227728 -0.000547649 0)
(0.227657 0.000661134 0)
(0.225065 0.00182743 0)
(0.220105 0.00302517 0)
(0.212772 0.00407141 0)
(0.203271 0.00512144 0)
(0.191808 0.00615446 0)
(0.178481 0.00693996 0)
(0.163445 0.00774963 0)
(0.147061 0.00835392 0)
(0.129646 0.00882827 0)
(0.111254 0.00919186 0)
(0.09229 0.00947116 0)
(0.0730791 0.00955223 0)
(0.0536549 0.00952861 0)
(0.0344616 0.00946448 0)
(0.0156446 0.00924301 0)
(-0.00264417 0.00889293 0)
(-0.0201734 0.00851048 0)
(-0.0369156 0.00803969 0)
(-0.0526044 0.00749192 0)
(-0.0671461 0.00691849 0)
(-0.0805222 0.00634658 0)
(-0.0927412 0.00579684 0)
(-0.10389 0.0052902 0)
(-0.114023 0.00479127 0)
(-0.123193 0.00432049 0)
(-0.13143 0.0038666 0)
(-0.138744 0.00342045 0)
(-0.145155 0.00295383 0)
(-0.150662 0.00250333 0)
(-0.155267 0.00205788 0)
(-0.159 0.00163155 0)
(-0.161903 0.0012089 0)
(-0.163987 0.000805149 0)
(-0.165251 0.000464221 0)
(-0.165789 9.6416e-05 0)
(-0.165645 -0.000240811 0)
(-0.164819 -0.00057112 0)
(-0.163357 -0.000889899 0)
(-0.161258 -0.00119924 0)
(-0.158537 -0.00150041 0)
(-0.155201 -0.00181527 0)
(-0.151232 -0.00212003 0)
(-0.146612 -0.00245425 0)
(-0.141312 -0.00280469 0)
(-0.135327 -0.00314114 0)
(-0.12863 -0.00349849 0)
(-0.121194 -0.00387306 0)
(-0.113013 -0.00425423 0)
(-0.104074 -0.004616 0)
(-0.0943397 -0.00502209 0)
(-0.083842 -0.00541543 0)
(-0.0725265 -0.00579543 0)
(-0.0604025 -0.00620264 0)
(-0.0475161 -0.00658281 0)
(-0.0338431 -0.00695896 0)
(-0.0194465 -0.00732678 0)
(-0.00433222 -0.00763131 0)
(0.0114369 -0.00795597 0)
(0.0277481 -0.00820029 0)
(0.0445089 -0.0084066 0)
(0.0616051 -0.00852649 0)
(0.0788606 -0.00856549 0)
(0.0961041 -0.00850951 0)
(0.113127 -0.00834699 0)
(0.129707 -0.00807904 0)
(0.145608 -0.0076563 0)
(0.160541 -0.00712235 0)
(0.17426 -0.00644516 0)
(0.186485 -0.00564728 0)
(0.196956 -0.00472606 0)
(0.20547 -0.00369918 0)
(0.211815 -0.00256606 0)
(0.215816 -0.00139005 0)
(0.217378 -0.000191519 0)
(0.216494 0.00106233 0)
(0.212991 0.00231892 0)
(0.207069 0.0035301 0)
(0.198801 0.00466621 0)
(0.188317 0.00571448 0)
(0.17579 0.00667224 0)
(0.161432 0.00751894 0)
(0.145533 0.00821072 0)
(0.128356 0.00879614 0)
(0.110165 0.00920238 0)
(0.0912822 0.0094947 0)
(0.0720096 0.00961903 0)
(0.0526083 0.00960538 0)
(0.0333451 0.00948337 0)
(0.0144658 0.00924505 0)
(-0.00384801 0.00891682 0)
(-0.0214254 0.00849786 0)
(-0.0381076 0.00803758 0)
(-0.0537954 0.00754793 0)
(-0.0684448 0.00699692 0)
(-0.0820188 0.00645225 0)
(-0.0944818 0.00590173 0)
(-0.105854 0.00539837 0)
(-0.116137 0.00482716 0)
(-0.125356 0.00431089 0)
(-0.133543 0.0038133 0)
(-0.140753 0.00337067 0)
(-0.147083 0.00292498 0)
(-0.152578 0.0025295 0)
(-0.157291 0.00216492 0)
(-0.161303 0.00181583 0)
(-0.164647 0.00149187 0)
(-0.167327 0.00116566 0)
(-0.169365 0.00087226 0)
(-0.170789 0.000562096 0)
(-0.171624 0.000274763 0)
(-0.171922 -2.2597e-05 0)
(-0.171591 -0.000277652 0)
(-0.170656 -0.000611292 0)
(-0.169137 -0.000901186 0)
(-0.16699 -0.00120855 0)
(-0.164272 -0.00149274 0)
(-0.161013 -0.00178234 0)
(-0.157165 -0.00204047 0)
(-0.152707 -0.00234569 0)
(-0.147661 -0.00267436 0)
(-0.141956 -0.0029796 0)
(-0.135517 -0.00337403 0)
(-0.128361 -0.00376465 0)
(-0.120407 -0.00411579 0)
(-0.111626 -0.00456322 0)
(-0.10202 -0.00496764 0)
(-0.091528 -0.00540627 0)
(-0.0801855 -0.00583935 0)
(-0.0679899 -0.00626154 0)
(-0.0549513 -0.00665506 0)
(-0.0411587 -0.0070519 0)
(-0.0266492 -0.00734722 0)
(-0.0114885 -0.00764555 0)
(0.00424995 -0.00790801 0)
(0.0204609 -0.00812002 0)
(0.0369902 -0.0082632 0)
(0.0537377 -0.00832224 0)
(0.0705222 -0.00830452 0)
(0.0871398 -0.00815302 0)
(0.103351 -0.00790542 0)
(0.118931 -0.00752103 0)
(0.133607 -0.00698765 0)
(0.147129 -0.00638075 0)
(0.159246 -0.00561223 0)
(0.169738 -0.00476893 0)
(0.178391 -0.0037645 0)
(0.184962 -0.00271344 0)
(0.189275 -0.00156391 0)
(0.191206 -0.000371871 0)
(0.19073 0.00085599 0)
(0.187706 0.00208224 0)
(0.182288 0.00326783 0)
(0.174565 0.00437945 0)
(0.16466 0.00540739 0)
(0.15279 0.00633255 0)
(0.139178 0.00711833 0)
(0.124114 0.00777132 0)
(0.107882 0.00830676 0)
(0.090738 0.00866898 0)
(0.07299 0.00892053 0)
(0.0548672 0.00903362 0)
(0.036617 0.00902473 0)
(0.0185011 0.00891894 0)
(0.000696892 0.00873937 0)
(-0.0166242 0.00844424 0)
(-0.0333137 0.00809558 0)
(-0.0492281 0.00768876 0)
(-0.064288 0.00725574 0)
(-0.0784273 0.00678025 0)
(-0.0916105 0.00629071 0)
(-0.103811 0.00580502 0)
(-0.115048 0.00535434 0)
(-0.125335 0.00485881 0)
(-0.134666 0.00439659 0)
(-0.143085 0.00395633 0)
(-0.150596 0.00350288 0)
(-0.15725 0.0030896 0)
(-0.163054 0.0026652 0)
(-0.16802 0.0022826 0)
(-0.172224 0.0018985 0)
(-0.175676 0.00153782 0)
(-0.178423 0.0012099 0)
(-0.180515 0.000878944 0)
(-0.181987 0.000584587 0)
(-0.182841 0.000292105 0)
(-0.183157 4.7788e-05 0)
(-0.18294 -0.000227282 0)
(-0.182198 -0.000489596 0)
(-0.180964 -0.000744689 0)
(-0.179198 -0.000988453 0)
(-0.176931 -0.00123661 0)
(-0.174167 -0.00148754 0)
(-0.170866 -0.00175753 0)
(-0.167041 -0.0020366 0)
(-0.162678 -0.00232374 0)
(-0.157684 -0.0025741 0)
(-0.152066 -0.00291029 0)
(-0.145814 -0.00325639 0)
(-0.138905 -0.00359585 0)
(-0.131248 -0.00389995 0)
(-0.12281 -0.00432277 0)
(-0.113769 -0.00467362 0)
(-0.103836 -0.00506555 0)
(-0.0930927 -0.00546057 0)
(-0.0815804 -0.00585725 0)
(-0.0693221 -0.0062755 0)
(-0.0562347 -0.00660686 0)
(-0.042253 -0.00707038 0)
(-0.0276237 -0.00742039 0)
(-0.0123024 -0.00778405 0)
(0.00407641 -0.00805884 0)
(0.0212461 -0.00835312 0)
(0.038592 -0.00862087 0)
(0.0563151 -0.00880339 0)
(0.0743085 -0.0088461 0)
(0.0922402 -0.00882789 0)
(0.10986 -0.00862934 0)
(0.126883 -0.00822204 0)
(0.142984 -0.00764322 0)
(0.157651 -0.00692642 0)
(0.170624 -0.0059678 0)
(0.181642 -0.00491812 0)
(0.190304 -0.00368185 0)
(0.196511 -0.00238585 0)
(0.200083 -0.00102835 0)
(0.200769 0.000414812 0)
(0.198509 0.00181544 0)
(0.193408 0.00321197 0)
(0.185634 0.0045176 0)
(0.175382 0.0055867 0)
(0.163027 0.006614 0)
(0.148841 0.00747423 0)
(0.133188 0.00805385 0)
(0.11639 0.00855755 0)
(0.0988857 0.00878129 0)
(0.0809232 0.00892527 0)
(0.0627833 0.00897852 0)
(0.0448094 0.0087458 0)
(0.0272205 0.00856774 0)
(0.0103549 0.00822972 0)
(-0.00551576 0.0078438 0)
(-0.0205747 0.00742531 0)
(-0.0349276 0.00693178 0)
(-0.0483701 0.00647532 0)
(-0.060876 0.00601154 0)
(-0.0724438 0.00552944 0)
(-0.0831068 0.00509491 0)
(-0.092907 0.00467949 0)
(-0.101892 0.00427532 0)
(-0.110121 0.0039184 0)
(-0.117655 0.00357727 0)
(-0.124553 0.00327787 0)
(-0.130865 0.00300016 0)
(-0.136634 0.00273215 0)
(-0.141891 0.0024861 0)
(-0.146654 0.00224387 0)
(-0.150926 0.00199439 0)
(-0.154699 0.00174273 0)
(-0.15795 0.00147244 0)
(-0.160648 0.00118735 0)
(-0.162755 0.000877564 0)
(-0.164219 0.000545767 0)
(-0.164991 0.00020016 0)
(-0.16504 -0.000185289 0)
(-0.164266 -0.000597851 0)
(-0.162647 -0.00102847 0)
(-0.160129 -0.00147687 0)
(-0.156686 -0.00194669 0)
(-0.15229 -0.00242085 0)
(-0.14692 -0.00291716 0)
(-0.140562 -0.00340226 0)
(-0.133208 -0.00388221 0)
(-0.124866 -0.00438903 0)
(-0.115552 -0.00485111 0)
(-0.105288 -0.00529298 0)
(-0.09411 -0.00577188 0)
(-0.0820608 -0.00616412 0)
(-0.0691997 -0.00660063 0)
(-0.0555884 -0.00692224 0)
(-0.0413088 -0.00719704 0)
(-0.0264189 -0.00753079 0)
(-0.0107916 -0.00771667 0)
(0.00492268 -0.00779506 0)
(0.0206216 -0.00797744 0)
(0.0366958 -0.00795973 0)
(0.0527627 -0.00799242 0)
(0.0686599 -0.00782037 0)
(0.0842172 -0.00756834 0)
(0.0992801 -0.00735163 0)
(0.11367 -0.00693697 0)
(0.128575 -0.00644714 0)
(0.115391 0.012856 0)
(0.0986835 0.0130609 0)
(0.0795461 0.0133472 0)
(0.0602395 0.0134636 0)
(0.04101 0.0131831 0)
(0.0219067 0.0130091 0)
(0.00343387 0.0124514 0)
(-0.0141261 0.0120615 0)
(-0.0310806 0.0115643 0)
(-0.0472202 0.0108513 0)
(-0.0624452 0.0102375 0)
(-0.0766898 0.00957699 0)
(-0.0899131 0.00880735 0)
(-0.102111 0.00812055 0)
(-0.113275 0.00737026 0)
(-0.123424 0.00669349 0)
(-0.132574 0.00602267 0)
(-0.14075 0.00533891 0)
(-0.147987 0.004709 0)
(-0.154319 0.00409711 0)
(-0.159777 0.00349562 0)
(-0.164401 0.00293107 0)
(-0.168223 0.00238598 0)
(-0.171274 0.00185638 0)
(-0.173588 0.00134661 0)
(-0.17519 0.000853408 0)
(-0.176083 0.000389008 0)
(-0.176296 -8.93323e-05 0)
(-0.175816 -0.000569472 0)
(-0.17466 -0.001048 0)
(-0.17281 -0.00153137 0)
(-0.170257 -0.00203141 0)
(-0.166979 -0.00253872 0)
(-0.162955 -0.00307701 0)
(-0.158155 -0.00362058 0)
(-0.152542 -0.00418693 0)
(-0.146083 -0.00480714 0)
(-0.138747 -0.0054077 0)
(-0.130497 -0.0060331 0)
(-0.121303 -0.00674229 0)
(-0.111139 -0.00738502 0)
(-0.099986 -0.00814054 0)
(-0.0878213 -0.0087896 0)
(-0.0746665 -0.00941799 0)
(-0.0604928 -0.0101941 0)
(-0.0453249 -0.0107507 0)
(-0.0292137 -0.0112655 0)
(-0.012324 -0.0120007 0)
(0.00503976 -0.0123079 0)
(0.0229585 -0.0125857 0)
(0.0414576 -0.0129746 0)
(0.0602442 -0.0130083 0)
(0.0791114 -0.0130951 0)
(0.0978486 -0.0128681 0)
(0.116214 -0.0124489 0)
(0.133948 -0.0119964 0)
(0.150819 -0.0112983 0)
(0.166587 -0.0103859 0)
(0.180993 -0.00941065 0)
(0.193835 -0.00821026 0)
(0.204887 -0.00694001 0)
(0.213984 -0.00554408 0)
(0.220949 -0.0039689 0)
(0.22564 -0.00240368 0)
(0.228013 -0.000778926 0)
(0.227919 0.000941856 0)
(0.225322 0.00255958 0)
(0.220369 0.00423538 0)
(0.213022 0.00570125 0)
(0.203509 0.00717883 0)
(0.192019 0.00861938 0)
(0.178669 0.009723 0)