/*--------------------------------*- C++ -*----------------------------------*\
| =========                 |                                                 |
| \\      /  F ield         | OpenFOAM: The Open Source CFD Toolbox           |
|  \\    /   O peration     | Version:  3.0.1                                 |
|   \\  /    A nd           | Web:      www.OpenFOAM.org                      |
|    \\/     M anipulation  |                                                 |
\*---------------------------------------------------------------------------*/
FoamFile
{
    version     2.0;
    format      ascii;
    class       surfaceScalarField;
    location    "23.4";
    object      alphaPhi;
}
// * * * * * * * * * * * * * * * * * * * * * * * * * * * * * * * * * * * * * //

dimensions      [0 3 -1 0 0 0 0];

internalField   nonuniform List<scalar> 
44922
(
-0.000123047
-8.36993e-06
-0.000114008
-9.0383e-06
-0.000104465
-9.54376e-06
-9.42849e-05
-1.01797e-05
-8.36576e-05
-1.06274e-05
-7.2392e-05
-1.12656e-05
-6.06784e-05
-1.17135e-05
-4.83351e-05
-1.23434e-05
-3.56175e-05
-1.27177e-05
-2.23237e-05
-1.32938e-05
-8.70705e-06
-1.36166e-05
5.49163e-06
-1.41987e-05
2.00151e-05
-1.45235e-05
3.50263e-05
-1.50112e-05
5.03387e-05
-1.53124e-05
6.56134e-05
-1.52746e-05
8.10085e-05
-1.53951e-05
9.62326e-05
-1.52241e-05
0.000111316
-1.50838e-05
0.000126013
-1.46963e-05
0.000140296
-1.42831e-05
0.00015394
-1.36445e-05
0.000166867
-1.29264e-05
0.000178892
-1.20252e-05
0.000189939
-1.10475e-05
0.000199839
-9.89964e-06
0.000208481
-8.64165e-06
0.000215724
-7.24331e-06
0.000221471
-5.74675e-06
0.000225635
-4.16443e-06
0.000228148
-2.51343e-06
0.000228958
-8.10051e-07
0.000228145
8.13226e-07
0.000225629
2.51661e-06
0.000221368
4.2609e-06
0.000215536
5.8321e-06
0.000208057
7.47819e-06
0.000199088
8.96904e-06
0.000188685
1.04037e-05
0.000177041
1.16431e-05
0.0001642
1.28419e-05
0.000150346
1.3854e-05
0.00013557
1.47759e-05
0.000120116
1.54535e-05
0.000104017
1.60993e-05
8.75491e-05
1.64676e-05
7.07717e-05
1.67775e-05
5.38425e-05
1.69292e-05
3.69309e-05
1.69115e-05
2.01134e-05
1.68175e-05
3.48966e-06
1.66237e-05
-1.27966e-05
1.62862e-05
-2.86335e-05
1.58369e-05
-4.39582e-05
1.53247e-05
-5.86857e-05
1.47276e-05
-7.27669e-05
1.40812e-05
-8.61344e-05
1.33675e-05
-9.87621e-05
1.26276e-05
-0.000110603
1.18407e-05
-0.00012165
1.10475e-05
-0.000131878
1.02282e-05
-0.000141285
9.40672e-06
-0.000149854
8.56918e-06
-0.000157589
7.735e-06
-0.000164487
6.89741e-06
-0.000170553
6.06611e-06
-0.000175789
5.23593e-06
-0.000180212
4.42344e-06
-0.000183822
3.61019e-06
-0.000186649
2.82691e-06
-0.000188714
2.06439e-06
-0.000190062
1.34831e-06
-0.000190741
6.79101e-07
-0.000190719
-2.17468e-08
-0.000190079
-6.4078e-07
-0.000188761
-1.31727e-06
-0.000186904
-1.85708e-06
-0.000184445
-2.45904e-06
-0.000181545
-2.90054e-06
-0.000178086
-3.45825e-06
-0.000174253
-3.83368e-06
-0.000169897
-4.35622e-06
-0.000165225
-4.67109e-06
-0.000160028
-5.19715e-06
-0.000154541
-5.48693e-06
-0.000148576
-5.96545e-06
-0.000142292
-6.28386e-06
-0.000135548
-6.74441e-06
-0.000128364
-7.18383e-06
-0.000120859
-7.50483e-06
-0.00011283
-8.02923e-06
-0.000104408
-8.4214e-06
-9.54265e-05
-8.98196e-06
-8.60103e-05
-9.41622e-06
-7.59675e-05
-1.00429e-05
-6.54339e-05
-1.05336e-05
-5.43552e-05
-1.10787e-05
-4.27561e-05
-1.15992e-05
-3.05729e-05
-1.21832e-05
-1.79959e-05
-1.2577e-05
-4.85241e-06
-1.31435e-05
8.67532e-06
-1.35277e-05
2.26723e-05
-1.3997e-05
3.69462e-05
-1.4274e-05
5.14988e-05
-1.45526e-05
6.62053e-05
-1.47065e-05
8.09871e-05
-1.47818e-05
9.57003e-05
-1.47132e-05
0.000110236
-1.45358e-05
0.000124458
-1.42218e-05
0.000138194
-1.37358e-05
0.000151339
-1.31458e-05
0.000163677
-1.23374e-05
0.000175127
-1.14504e-05
0.000185454
-1.03271e-05
0.00019461
-9.15627e-06
0.00020237
-7.75999e-06
0.000208714
-6.34342e-06
0.000213429
-4.71536e-06
0.000216523
-3.09429e-06
0.000217857
-1.33373e-06
0.000217527
3.29729e-07
0.00021529
2.23768e-06
0.000211308
3.98153e-06
0.000205575
5.73337e-06
0.000198163
7.41187e-06
0.000189097
9.06563e-06
0.000178525
1.05725e-05
0.000166557
1.19677e-05
0.000153345
1.32121e-05
0.000139071
1.42742e-05
0.000123882
1.51889e-05
0.000107995
1.58863e-05
9.156e-05
1.64353e-05
7.4791e-05
1.6769e-05
5.78605e-05
1.69305e-05
4.09401e-05
1.69203e-05
2.41669e-05
1.67731e-05
7.72276e-06
1.64442e-05
-8.29629e-06
1.6019e-05
-2.3762e-05
1.54657e-05
-3.85915e-05
1.48295e-05
-5.2704e-05
1.41125e-05
-6.60605e-05
1.33565e-05
-7.86083e-05
1.25478e-05
-9.03437e-05
1.17354e-05
-0.00010126
1.09166e-05
-0.000111327
1.00664e-05
-0.000120579
9.25265e-06
-0.000129019
8.43944e-06
-0.0001367
7.68099e-06
-0.000143648
6.948e-06
-0.00014987
6.22191e-06
-0.000155398
5.52854e-06
-0.000160275
4.87636e-06
-0.000164546
4.27115e-06
-0.000168218
3.6718e-06
-0.000171333
3.11565e-06
-0.00017391
2.5769e-06
-0.000176017
2.10628e-06
-0.00017766
1.64325e-06
-0.000178816
1.15573e-06
-0.000179526
7.1063e-07
-0.000179802
2.75709e-07
-0.000179624
-1.77537e-07
-0.000178943
-6.8164e-07
-0.000177805
-1.1381e-06
-0.000176125
-1.6798e-06
-0.000173998
-2.12709e-06
-0.00017133
-2.668e-06
-0.000168165
-3.16493e-06
-0.000164517
-3.64783e-06
-0.00016033
-4.18731e-06
-0.000155644
-4.68542e-06
-0.000150443
-5.20103e-06
-0.000144705
-5.73848e-06
-0.000138339
-6.36602e-06
-0.000131448
-6.89038e-06
-0.000123819
-7.62951e-06
-0.000115785
-8.03444e-06
-0.000107166
-8.61855e-06
-9.80631e-05
-9.1029e-06
-8.83254e-05
-9.73768e-06
-7.80991e-05
-1.02264e-05
-6.72937e-05
-1.08054e-05
-5.59239e-05
-1.13698e-05
-4.41217e-05
-1.18022e-05
-3.17539e-05
-1.23678e-05
-1.90151e-05
-1.27389e-05
-5.87584e-06
-1.31393e-05
7.54339e-06
-1.34193e-05
2.12653e-05
-1.37219e-05
3.51607e-05
-1.38954e-05
4.91978e-05
-1.40372e-05
6.328e-05
-1.40822e-05
7.73232e-05
-1.40433e-05
9.12437e-05
-1.39205e-05
0.000104952
-1.3708e-05
0.000118306
-1.33548e-05
0.000131231
-1.29246e-05
0.000143516
-1.22853e-05
0.00015508
-1.15642e-05
0.000165793
-1.07123e-05
0.000175485
-9.69241e-06
0.000184121
-8.63568e-06
0.000191503
-7.38239e-06
0.000197603
-6.10009e-06
0.000202254
-4.65043e-06
0.000205497
-3.24372e-06
0.000207238
-1.74062e-06
0.000207484
-2.46037e-07
0.000206134
1.35038e-06
0.000203351
2.78294e-06
0.000199113
4.23753e-06
0.000193526
5.5871e-06
0.000186622
6.9034e-06
0.000178792
7.83078e-06
0.000169609
9.18266e-06
0.000157231
1.23776e-05
0.000138642
1.85896e-05
0.00011416
2.4482e-05
9.02287e-05
2.39309e-05
7.08905e-05
1.93382e-05
5.30349e-05
1.78556e-05
1.90489e-05
3.3986e-05
-0.00012308
-1.67381e-05
-0.000114042
-1.8076e-05
-0.000104499
-1.90868e-05
-9.43192e-05
-2.03595e-05
-8.36931e-05
-2.12535e-05
-7.24265e-05
-2.25322e-05
-6.07106e-05
-2.34295e-05
-4.83657e-05
-2.46882e-05
-3.56462e-05
-2.54372e-05
-2.2351e-05
-2.6589e-05
-8.73205e-06
-2.72357e-05
5.46828e-06
-2.8399e-05
1.99944e-05
-2.90497e-05
3.50113e-05
-3.00281e-05
5.03301e-05
-3.06312e-05
6.5611e-05
-3.05556e-05
8.10124e-05
-3.07965e-05
9.62428e-05
-3.04545e-05
0.000111335
-3.01763e-05
0.00012604
-2.94007e-05
0.000140331
-2.8574e-05
0.000153983
-2.72969e-05
0.000166918
-2.58611e-05
0.000178948
-2.4056e-05
0.000190002
-2.21014e-05
0.000199909
-1.98061e-05
0.000208561
-1.72937e-05
0.000215813
-1.44958e-05
0.000221562
-1.14957e-05
0.000225729
-8.33091e-06
0.000228249
-5.03351e-06
0.000229069
-1.63052e-06
0.000228249
1.63282e-06
0.000225735
5.0306e-06
0.000221475
8.52164e-06
0.000215638
1.1669e-05
0.000208158
1.49576e-05
0.000199181
1.79467e-05
0.00018877
2.08143e-05
0.000177126
2.3287e-05
0.000164268
2.56997e-05
0.000150405
2.77174e-05
0.000135618
2.95632e-05
0.000120157
3.0914e-05
0.000104045
3.2211e-05
8.75678e-05
3.29452e-05
7.07786e-05
3.35667e-05
5.38449e-05
3.38629e-05
3.6924e-05
3.38324e-05
2.00992e-05
3.36424e-05
3.46926e-06
3.32536e-05
-1.28197e-05
3.25751e-05
-2.86619e-05
3.16791e-05
-4.39917e-05
3.06545e-05
-5.87241e-05
2.946e-05
-7.28096e-05
2.81666e-05
-8.61806e-05
2.67386e-05
-9.88117e-05
2.52587e-05
-0.000110655
2.36835e-05
-0.000121704
2.20971e-05
-0.000131933
2.04573e-05
-0.000141342
1.88157e-05
-0.000149912
1.71392e-05
-0.000157649
1.54716e-05
-0.000164547
1.37959e-05
-0.000170615
1.21338e-05
-0.000175851
1.0472e-05
-0.000180275
8.84744e-06
-0.000183889
7.22423e-06
-0.000186717
5.65502e-06
-0.000188784
4.1316e-06
-0.000190134
2.69838e-06
-0.000190808
1.35213e-06
-0.000190779
-5.07195e-08
-0.000190132
-1.28737e-06
-0.000188815
-2.63428e-06
-0.000186954
-3.71828e-06
-0.000184492
-4.9204e-06
-0.000181591
-5.80209e-06
-0.000178131
-6.91821e-06
-0.000174295
-7.66928e-06
-0.000169936
-8.71522e-06
-0.000165266
-9.34139e-06
-0.000160069
-1.03945e-05
-0.000154584
-1.09717e-05
-0.000148617
-1.19329e-05
-0.000142333
-1.2567e-05
-0.000135589
-1.34884e-05
-0.000128406
-1.43675e-05
-0.0001209
-1.50105e-05
-0.000112871
-1.60584e-05
-0.00010445
-1.68426e-05
-9.54686e-05
-1.79632e-05
-8.60504e-05
-1.88344e-05
-7.60096e-05
-2.00837e-05
-6.54721e-05
-2.10711e-05
-5.43964e-05
-2.21544e-05
-4.27951e-05
-2.32005e-05
-3.0624e-05
-2.43544e-05
-1.80365e-05
-2.51645e-05
-4.88572e-06
-2.62944e-05
8.64753e-06
-2.7061e-05
2.26582e-05
-2.80077e-05
3.69283e-05
-2.85442e-05
5.14908e-05
-2.91151e-05
6.6205e-05
-2.94208e-05
8.09936e-05
-2.95705e-05
9.57144e-05
-2.94341e-05
0.000110258
-2.90798e-05
0.000124489
-2.84523e-05
0.000138232
-2.74792e-05
0.000151393
-2.63065e-05
0.00016374
-2.46844e-05
0.000175204
-2.29143e-05
0.000185543
-2.06662e-05
0.000194713
-1.83265e-05
0.000202482
-1.55287e-05
0.000208837
-1.26983e-05
0.000213554
-9.43262e-06
0.000216656
-6.1961e-06
0.000217991
-2.66925e-06
0.000217654
6.66908e-07
0.000215405
4.48696e-06
0.000211423
7.96285e-06
0.00020569
1.14668e-05
0.000198275
1.48265e-05
0.000189201
1.81397e-05
0.000178618
2.11554e-05
0.00016664
2.3946e-05
0.000153418
2.64343e-05
0.000139133
2.85585e-05
0.000123932
3.03904e-05
0.000108032
3.17855e-05
9.15846e-05
3.28831e-05
7.48033e-05
3.35503e-05
5.78598e-05
3.38739e-05
4.09293e-05
3.38508e-05
2.41478e-05
3.35546e-05
7.69565e-06
3.28963e-05
-8.3318e-06
3.20465e-05
-2.38038e-05
3.09377e-05
-3.86414e-05
2.96671e-05
-5.27573e-05
2.82283e-05
-6.61154e-05
2.67146e-05
-7.86681e-05
2.51006e-05
-9.04077e-05
2.3475e-05
-0.000101322
2.18309e-05
-0.000111391
2.01351e-05
-0.000120642
1.85042e-05
-0.000129084
1.68811e-05
-0.000136764
1.53608e-05
-0.000143709
1.38937e-05
-0.000149927
1.24394e-05
-0.000155451
1.10526e-05
-0.000160323
9.74813e-06
-0.00016459
8.53813e-06
-0.000168261
7.34271e-06
-0.000171376
6.231e-06
-0.000173948
5.14897e-06
-0.000176059
4.21749e-06
-0.000177706
3.29014e-06
-0.000178867
2.31667e-06
-0.000179581
1.42464e-06
-0.000179857
5.51529e-07
-0.000179678
-3.56539e-07
-0.000178996
-1.36333e-06
-0.000177862
-2.27277e-06
-0.00017618
-3.36107e-06
-0.000174052
-4.25499e-06
-0.000171385
-5.33542e-06
-0.000168213
-6.33683e-06
-0.000164568
-7.29338e-06
-0.000160381
-8.37368e-06
-0.000155697
-9.37003e-06
-0.000150498
-1.03997e-05
-0.000144765
-1.14713e-05
-0.000138399
-1.27319e-05
-0.000131514
-1.37753e-05
-0.000123894
-1.52496e-05
-0.000115839
-1.60901e-05
-0.000107224
-1.72332e-05
-9.81321e-05
-1.81948e-05
-8.8394e-05
-1.94758e-05
-7.81594e-05
-2.0461e-05
-6.73529e-05
-2.1612e-05
-5.59799e-05
-2.27428e-05
-4.41695e-05
-2.36126e-05
-3.18031e-05
-2.47342e-05
-1.9072e-05
-2.547e-05
-5.91115e-06
-2.63002e-05
7.50753e-06
-2.6838e-05
2.12393e-05
-2.74537e-05
3.51446e-05
-2.78008e-05
4.91938e-05
-2.80863e-05
6.32876e-05
-2.8176e-05
7.73427e-05
-2.80984e-05
9.12697e-05
-2.78476e-05
0.000104986
-2.74245e-05
0.000118349
-2.67172e-05
0.000131285
-2.58613e-05
0.000143576
-2.45759e-05
0.000155147
-2.31349e-05
0.000165866
-2.14315e-05
0.000175561
-1.93877e-05
0.000184203
-1.72781e-05
0.000191589
-1.47683e-05
0.0001977
-1.22112e-05
0.000202356
-9.30574e-06
0.000205607
-6.49564e-06
0.000207348
-3.48098e-06
0.000207596
-4.94723e-07
0.000206235
2.71184e-06
0.000203451
5.5667e-06
0.000199214
8.47483e-06
0.000193652
1.11487e-05
0.000186731
1.38248e-05
0.000178637
1.59244e-05
0.00016945
1.83693e-05
0.000159072
2.27562e-05
0.000145583
3.20784e-05
0.000128795
4.12698e-05
0.000114017
3.87087e-05
0.000102263
3.10928e-05
8.42677e-05
3.58506e-05
4.33368e-05
5.99797e-05
-0.000123142
-2.51065e-05
-0.000114104
-2.71139e-05
-0.000104561
-2.86301e-05
-9.43802e-05
-3.05402e-05
-8.37499e-05
-3.18838e-05
-7.24783e-05
-3.38039e-05
-6.07682e-05
-3.51396e-05
-4.84217e-05
-3.70347e-05
-3.57001e-05
-3.81589e-05
-2.24033e-05
-3.98858e-05
-8.7808e-06
-4.08581e-05
5.42556e-06
-4.26054e-05
1.99601e-05
-4.35842e-05
3.49908e-05
-4.50588e-05
5.03236e-05
-4.59641e-05
6.56182e-05
-4.58502e-05
8.10353e-05
-4.62137e-05
9.62798e-05
-4.5699e-05
0.000111385
-4.52819e-05
0.000126101
-4.41167e-05
0.000140403
-4.28756e-05
0.000154065
-4.09594e-05
0.00016701
-3.88061e-05
0.000179051
-3.60964e-05
0.000190117
-3.31671e-05
0.000200033
-2.97227e-05
0.000208694
-2.59549e-05
0.000215954
-2.17556e-05
0.000221709
-1.72511e-05
0.000225883
-1.25042e-05
0.000228408
-7.55873e-06
0.000229237
-2.45992e-06
0.000228416
2.45425e-06
0.000225915
7.53083e-06
0.000221658
1.27788e-05
0.000215812
1.75155e-05
0.000208332
2.24371e-05
0.000199339
2.69405e-05
0.000188917
3.12357e-05
0.00017726
3.4944e-05
0.000164385
3.85753e-05
0.000150505
4.15969e-05
0.000135697
4.43711e-05
0.000120224
4.63867e-05
0.000104091
4.83448e-05
8.75944e-05
4.94414e-05
7.07837e-05
5.03773e-05
5.3842e-05
5.08046e-05
3.68966e-05
5.07778e-05
2.00665e-05
5.04724e-05
3.42539e-06
4.98948e-05
-1.28701e-05
4.88706e-05
-2.87222e-05
4.75312e-05
-4.40611e-05
4.59934e-05
-5.88015e-05
4.42004e-05
-7.28937e-05
4.22589e-05
-8.62703e-05
4.01152e-05
-9.89063e-05
3.78946e-05
-0.000110752
3.55296e-05
-0.000121804
3.31489e-05
-0.000132034
3.06873e-05
-0.000141446
2.82273e-05
-0.000150016
2.57096e-05
-0.000157754
2.32097e-05
-0.000164654
2.06952e-05
-0.000170723
1.82033e-05
-0.000175961
1.571e-05
-0.000180389
1.32756e-05
-0.000184014
1.08491e-05
-0.000186849
8.49034e-06
-0.000188924
6.20627e-06
-0.000190276
4.05032e-06
-0.000190928
2.00377e-06
-0.000190866
-1.11893e-07
-0.0001902
-1.95377e-06
-0.000188882
-3.95219e-06
-0.000187015
-5.58593e-06
-0.000184548
-7.38735e-06
-0.000181649
-8.701e-06
-0.000178185
-1.03815e-05
-0.000174344
-1.15111e-05
-0.000169974
-1.30846e-05
-0.000165308
-1.40073e-05
-0.000160113
-1.55898e-05
-0.000154631
-1.64542e-05
-0.000148663
-1.79009e-05
-0.000142382
-1.88475e-05
-0.000135639
-2.02316e-05
-0.000128457
-2.1549e-05
-0.000120953
-2.25146e-05
-0.000112927
-2.40853e-05
-0.000104507
-2.5262e-05
-9.55281e-05
-2.69422e-05
-8.61075e-05
-2.8255e-05
-7.6073e-05
-3.01182e-05
-6.55449e-05
-3.15993e-05
-5.44592e-05
-3.32402e-05
-4.28565e-05
-3.48031e-05
-3.06959e-05
-3.65151e-05
-1.80978e-05
-3.77626e-05
-4.9383e-06
-3.94539e-05
8.60599e-06
-4.06054e-05
2.26314e-05
-4.20331e-05
3.69029e-05
-4.28157e-05
5.14805e-05
-4.36927e-05
6.62094e-05
-4.41496e-05
8.10108e-05
-4.43719e-05
9.57427e-05
-4.4166e-05
0.000110299
-4.36359e-05
0.00012454
-4.26933e-05
0.000138289
-4.12285e-05
0.000151473
-3.94901e-05
0.000163836
-3.70478e-05
0.000175328
-3.44064e-05
0.000185682
-3.10205e-05
0.000194879
-2.75229e-05
0.000202666
-2.33157e-05
0.000209037
-1.90696e-05
0.000213753
-1.4149e-05
0.000216864
-9.30635e-06
0.000218184
-3.99008e-06
0.00021783
1.02125e-06
0.000215571
6.74552e-06
0.000211598
1.19362e-05
0.000205864
1.7201e-05
0.000198443
2.22473e-05
0.000189353
2.723e-05
0.000178752
3.17557e-05
0.000166757
3.59414e-05
0.000153518
3.9673e-05
0.000139216
4.28603e-05
0.000123993
4.56132e-05
0.000108075
4.7704e-05
9.16089e-05
4.9349e-05
7.48064e-05
5.03529e-05
5.78412e-05
5.08391e-05
4.08961e-05
5.07959e-05
2.41012e-05
5.03495e-05
7.63937e-06
4.93581e-05
-8.40503e-06
4.80909e-05
-2.38879e-05
4.64206e-05
-3.87354e-05
4.45146e-05
-5.28548e-05
4.23477e-05
-6.62168e-05
4.00766e-05
-7.87691e-05
3.76529e-05
-9.05129e-05
3.52187e-05
-0.000101425
3.27433e-05
-0.000111497
3.02065e-05
-0.000120752
2.77592e-05
-0.000129202
2.53308e-05
-0.000136891
2.30501e-05
-0.00014382
2.0823e-05
-0.000150027
1.8646e-05
-0.000155539
1.65649e-05
-0.000160405
1.46138e-05
-0.000164664
1.27969e-05
-0.00016833
1.10093e-05
-0.000171446
9.34726e-06
-0.000174016
7.71867e-06
-0.000176129
6.33074e-06
-0.000177782
4.94259e-06
-0.00017895
3.48458e-06
-0.00017967
2.14483e-06
-0.000179945
8.2669e-07
-0.000179758
-5.43587e-07
-0.000179071
-2.05027e-06
-0.000177947
-3.39684e-06
-0.000176264
-5.04471e-06
-0.000174135
-6.38349e-06
-0.000171468
-8.00212e-06
-0.00016828
-9.52494e-06
-0.000164631
-1.0943e-05
-0.000160451
-1.25533e-05
-0.000155767
-1.40541e-05
-0.000150569
-1.55972e-05
-0.000144843
-1.71975e-05
-0.000138477
-1.90978e-05
-0.000131599
-2.06533e-05
-0.000123978
-2.28709e-05
-0.000115905
-2.41634e-05
-0.000107299
-2.58385e-05
-9.8226e-05
-2.72683e-05
-8.84775e-05
-2.92243e-05
-7.82369e-05
-3.07015e-05
-6.7427e-05
-3.24219e-05
-5.60425e-05
-3.41274e-05
-4.42272e-05
-3.54278e-05
-3.18586e-05
-3.71029e-05
-1.91445e-05
-3.81841e-05
-5.96882e-06
-3.94759e-05
7.4704e-06
-4.02772e-05
2.12151e-05
-4.11984e-05
3.51372e-05
-4.1723e-05
4.92037e-05
-4.21529e-05
6.33178e-05
-4.22901e-05
7.73968e-05
-4.21775e-05
9.1327e-05
-4.17778e-05
0.000105053
-4.11508e-05
0.000118422
-4.00856e-05
0.000131374
-3.88139e-05
0.000143674
-3.6876e-05
0.000155251
-3.47117e-05
0.000165969
-3.21494e-05
0.00017567
-2.90886e-05
0.000184324
-2.59321e-05
0.000191714
-2.21581e-05
0.000197842
-1.83401e-05
0.000202498
-1.39615e-05
0.000205761
-9.75894e-06
0.000207498
-5.21813e-06
0.000207758
-7.53969e-07
0.00020638
4.0896e-06
0.000203607
8.33959e-06
0.000199358
1.27234e-05
0.000193811
1.66963e-05
0.00018688
2.07552e-05
0.000178866
2.39385e-05
0.000169653
2.7582e-05
0.000159625
3.2784e-05
0.000148628
4.30755e-05
0.000136223
5.3675e-05
0.000122541
5.23902e-05
0.000109088
4.45466e-05
9.73845e-05
4.75536e-05
5.78365e-05
8.28848e-05
-0.000123236
-3.3475e-05
-0.000114197
-3.61522e-05
-0.000104654
-3.81738e-05
-9.4473e-05
-4.0721e-05
-8.38374e-05
-4.25194e-05
-7.25602e-05
-4.5081e-05
-6.08539e-05
-4.68459e-05
-4.85056e-05
-4.9383e-05
-3.57806e-05
-5.08839e-05
-2.24813e-05
-5.31851e-05
-8.85348e-06
-5.4486e-05
5.36061e-06
-5.68195e-05
1.99069e-05
-5.81305e-05
3.49569e-05
-6.01088e-05
5.03116e-05
-6.13187e-05
6.56235e-05
-6.11622e-05
8.10622e-05
-6.16524e-05
9.6327e-05
-6.09638e-05
0.000111454
-6.04089e-05
0.000126189
-5.88516e-05
0.000140509
-5.71957e-05
0.00015419
-5.46407e-05
0.000167154
-5.17699e-05
0.000179212
-4.81545e-05
0.000190297
-4.42525e-05
0.000200232
-3.96575e-05
0.000208909
-3.46319e-05
0.000216182
-2.90285e-05
0.000221948
-2.30172e-05
0.000226132
-1.6688e-05
0.000228665
-1.00916e-05
0.0002295
-3.29468e-06
0.00022868
3.27382e-06
0.000226192
1.00185e-05
0.000221938
1.70334e-05
0.000216073
2.33801e-05
0.000208569
2.99409e-05
0.000199574
3.59352e-05
0.000189139
4.16708e-05
0.000177457
4.66262e-05
0.000164559
5.14737e-05
0.000150655
5.55006e-05
0.000135817
5.92092e-05
0.000120321
6.18825e-05
0.00010416
6.45063e-05
8.76362e-05
6.59648e-05
7.07966e-05
6.7217e-05
5.38391e-05
6.77621e-05
3.68624e-05
6.77545e-05
2.00197e-05
6.73151e-05
3.36102e-06
6.65535e-05
-1.29449e-05
6.51766e-05
-2.88114e-05
6.33976e-05
-4.41636e-05
6.13456e-05
-5.89155e-05
5.89523e-05
-7.30173e-05
5.63607e-05
-8.64014e-05
5.34993e-05
-9.9044e-05
5.05373e-05
-0.000110894
4.738e-05
-0.00012195
4.42043e-05
-0.000132183
4.09204e-05
-0.000141596
3.764e-05
-0.000150166
3.42801e-05
-0.000157905
3.09487e-05
-0.000164806
2.75959e-05
-0.000170877
2.42743e-05
-0.000176116
2.09494e-05
-0.000180546
1.77055e-05
-0.000184174
1.44766e-05
-0.000187024
1.13404e-05
-0.000189102
8.28486e-06
-0.000190449
5.39652e-06
-0.000191079
2.63398e-06
-0.000190994
-1.9666e-07
-0.000190302
-2.64581e-06
-0.000188985
-5.26954e-06
-0.000187106
-7.46459e-06
-0.000184634
-9.85925e-06
-0.000181736
-1.1599e-05
-0.000178267
-1.38506e-05
-0.00017442
-1.53579e-05
-0.000170017
-1.7488e-05
-0.000165369
-1.86553e-05
-0.000160181
-2.07777e-05
-0.000154701
-2.19339e-05
-0.000148732
-2.38695e-05
-0.000142455
-2.51247e-05
-0.000135712
-2.69747e-05
-0.000128536
-2.87248e-05
-0.000121034
-3.00167e-05
-0.00011301
-3.21094e-05
-0.000104592
-3.368e-05
-9.5618e-05
-3.59166e-05
-8.6191e-05
-3.76821e-05
-7.61684e-05
-4.01409e-05
-6.56513e-05
-4.21164e-05
-5.45555e-05
-4.43359e-05
-4.29497e-05
-4.6409e-05
-3.07971e-05
-4.86677e-05
-1.81889e-05
-5.03708e-05
-5.01993e-06
-5.26229e-05
8.54011e-06
-5.41654e-05
2.25854e-05
-5.60784e-05
3.68581e-05
-5.70884e-05
5.1455e-05
-5.82897e-05
6.62023e-05
-5.8897e-05
8.10264e-05
-5.91961e-05
9.57755e-05
-5.89151e-05
0.000110353
-5.82135e-05
0.000124613
-5.69535e-05
0.000138381
-5.49961e-05
0.000151593
-5.27021e-05
0.000163979
-4.9434e-05
0.000175508
-4.59356e-05
0.000185882
-4.13945e-05
0.000195116
-3.67572e-05
0.000202939
-3.11388e-05
0.000209321
-2.54515e-05
0.000214042
-1.88697e-05
0.00021716
-1.24243e-05
0.000218464
-5.29381e-06
0.000218102
1.3826e-06
0.000215825
9.0231e-06
0.000211861
1.58994e-05
0.000206126
2.29362e-05
0.000198697
2.96769e-05
0.000189583
3.63437e-05
0.000178958
4.23806e-05
0.000166938
4.79611e-05
0.000153674
5.29367e-05
0.000139344
5.71903e-05
0.000124091
6.08663e-05
0.000108142
6.36537e-05
9.16426e-05
6.58479e-05
7.48161e-05
6.71794e-05
5.78181e-05
6.7837e-05
4.08523e-05
6.77617e-05
2.40343e-05
6.71674e-05
7.56048e-06
6.5832e-05
-8.51108e-06
6.41624e-05
-2.40068e-05
6.19163e-05
-3.88707e-05
5.93784e-05
-5.29948e-05
5.64718e-05
-6.63645e-05
5.34463e-05
-7.89188e-05
5.02072e-05
-9.06603e-05
4.69602e-05
-0.000101572
4.36546e-05
-0.000111648
4.02829e-05
-0.000120908
3.70189e-05
-0.000129364
3.37876e-05
-0.000137053
3.07388e-05
-0.00014397
2.77399e-05
-0.000150168
2.4844e-05
-0.000155675
2.20715e-05
-0.000160527
1.94663e-05
-0.000164776
1.70453e-05
-0.000168431
1.46646e-05
-0.000171549
1.24654e-05
-0.000174124
1.02938e-05
-0.00017623
8.43662e-06
-0.000177881
6.59376e-06
-0.000179057
4.6605e-06
-0.000179785
2.87244e-06
-0.000180059
1.10077e-06
-0.000179849
-7.53856e-07
-0.000179163
-2.73593e-06
-0.000178061
-4.49922e-06
-0.000176381
-6.72479e-06
-0.000174248
-8.51642e-06
-0.00017158
-1.06699e-05
-0.000168394
-1.27105e-05
-0.000164744
-1.45934e-05
-0.000160551
-1.67462e-05
-0.000155878
-1.87276e-05
-0.00015067
-2.08044e-05
-0.00014495
-2.29175e-05
-0.000138601
-2.54476e-05
-0.000131723
-2.75313e-05
-0.000124094
-3.04999e-05
-0.000116
-3.22568e-05
-0.000107419
-3.44194e-05
-9.83672e-05
-3.63204e-05
-8.85849e-05
-3.90066e-05
-7.83468e-05
-4.09397e-05
-6.75296e-05
-4.3239e-05
-5.61293e-05
-4.55278e-05
-4.42988e-05
-4.72583e-05
-3.19277e-05
-4.9474e-05
-1.92273e-05
-5.08846e-05
-6.02606e-06
-5.26771e-05
7.41669e-06
-5.372e-05
2.11823e-05
-5.49641e-05
3.5118e-05
-5.56587e-05
4.92024e-05
-5.62373e-05
6.33389e-05
-5.64266e-05
7.74353e-05
-5.6274e-05
9.13906e-05
-5.57331e-05
0.000105122
-5.48823e-05
0.000118509
-5.34728e-05
0.000131487
-5.17921e-05
0.000143809
-4.91974e-05
0.000155401
-4.6304e-05
0.000166126
-4.28741e-05
0.000175835
-3.87977e-05
0.000184504
-3.46016e-05
0.000191894
-2.95477e-05
0.000198055
-2.45012e-05
0.000202722
-1.86282e-05
0.000205991
-1.3028e-05
0.000207722
-6.9491e-06
0.000207999
-1.03103e-06
0.000206604
5.48401e-06
0.00020385
1.10942e-05
0.000199583
1.69899e-05
0.000194012
2.22676e-05
0.000187081
2.76863e-05
0.000179063
3.19565e-05
0.000169953
3.66917e-05
0.000160225
4.2512e-05
0.000150217
5.30837e-05
0.000139763
6.41282e-05
0.000127348
6.48054e-05
0.000113282
5.86124e-05
0.000100169
6.06668e-05
7.48507e-05
8.31547e-05
-0.000123361
-4.18438e-05
-0.000114322
-4.51911e-05
-0.000104778
-4.77177e-05
-9.46016e-05
-5.08973e-05
-8.39573e-05
-5.31637e-05
-7.26768e-05
-5.63616e-05
-6.09658e-05
-5.85569e-05
-4.8617e-05
-6.17319e-05
-3.58875e-05
-6.36133e-05
-2.25846e-05
-6.64881e-05
-8.94959e-06
-6.8121e-05
5.27259e-06
-7.10417e-05
1.98331e-05
-7.2691e-05
3.49053e-05
-7.5181e-05
5.0286e-05
-7.66995e-05
6.56192e-05
-7.64954e-05
8.1088e-05
-7.71212e-05
9.63758e-05
-7.62517e-05
0.000111532
-7.55653e-05
0.000126295
-7.36145e-05
0.000140644
-7.15446e-05
0.000154355
-6.83521e-05
0.000167349
-6.47639e-05
0.000179437
-6.02427e-05
0.000190551
-5.53665e-05
0.000200514
-4.96199e-05
0.000209215
-4.3333e-05
0.000216509
-3.63231e-05
0.000222292
-2.88002e-05
0.000226492
-2.08874e-05
0.000229035
-1.26345e-05
0.000229873
-4.13362e-06
0.000229057
4.08988e-06
0.000226571
1.2505e-05
0.000222323
2.12814e-05
0.000216425
2.92779e-05
0.000208895
3.74709e-05
0.000199891
4.49398e-05
0.000189442
5.21188e-05
0.00017772
5.83485e-05
0.000164791
6.44031e-05
0.000150856
6.94358e-05
0.000135978
7.40873e-05
0.000120432
7.74282e-05
0.000104253
8.06847e-05
8.76948e-05
8.25232e-05
7.08195e-05
8.40923e-05
5.38374e-05
8.47442e-05
3.68242e-05
8.47677e-05
1.99603e-05
8.4179e-05
3.27731e-06
8.32364e-05
-1.30432e-05
8.1497e-05
-2.89285e-05
7.92829e-05
-4.42975e-05
7.67146e-05
-5.90638e-05
7.37186e-05
-7.31774e-05
7.04743e-05
-8.65706e-05
6.68925e-05
-9.92211e-05
6.31878e-05
-0.000111077
5.92355e-05
-0.000122136
5.52639e-05
-0.000132373
5.11571e-05
-0.000141786
4.70532e-05
-0.000150356
4.28502e-05
-0.000158096
3.86879e-05
-0.000164997
3.4497e-05
-0.000171067
3.03449e-05
-0.000176306
2.6188e-05
-0.000180733
2.21325e-05
-0.000184358
1.81022e-05
-0.000187213
1.41949e-05
-0.000189287
1.03588e-05
-0.000190623
6.73267e-06
-0.000191239
3.24997e-06
-0.000191145
-2.90479e-07
-0.000190437
-3.35411e-06
-0.000189105
-6.60115e-06
-0.000187225
-9.34474e-06
-0.000184749
-1.23353e-05
-0.000181849
-1.44994e-05
-0.000178372
-1.73276e-05
-0.00017452
-1.92093e-05
-0.00017011
-2.18987e-05
-0.000165431
-2.33339e-05
-0.00016027
-2.59383e-05
-0.000154793
-2.74114e-05
-0.000148823
-2.98392e-05
-0.000142552
-3.13962e-05
-0.000135808
-3.37182e-05
-0.000128642
-3.58915e-05
-0.000121142
-3.75165e-05
-0.000113122
-4.01294e-05
-0.000104707
-4.20952e-05
-9.57383e-05
-4.4885e-05
-8.62928e-05
-4.71276e-05
-7.62943e-05
-5.01394e-05
-6.57881e-05
-5.26225e-05
-5.46851e-05
-5.5439e-05
-4.30752e-05
-5.8019e-05
-3.0928e-05
-6.08149e-05
-1.83103e-05
-6.29886e-05
-5.13159e-06
-6.58016e-05
8.44385e-06
-6.77409e-05
2.25062e-05
-7.01408e-05
3.67895e-05
-7.13717e-05
5.14047e-05
-7.29049e-05
6.6174e-05
-7.36663e-05
8.10297e-05
-7.40518e-05
9.57999e-05
-7.36853e-05
0.000110415
-7.28288e-05
0.000124699
-7.12378e-05
0.000138506
-6.8803e-05
0.000151748
-6.5944e-05
0.000164173
-6.18585e-05
0.000175735
-5.74977e-05
0.00018614
-5.18002e-05
0.000195418
-4.60345e-05
0.000203258
-3.89794e-05
0.000209668
-3.1861e-05
0.000214407
-2.36085e-05
0.00021754
-1.55579e-05
0.000218839
-6.59237e-06
0.000218487
1.73464e-06
0.000216202
1.13074e-05
0.000212239
1.98621e-05
0.000206476
2.86997e-05
0.000199034
3.71187e-05
0.000189903
4.5475e-05
0.000179259
5.30239e-05
0.000167199
6.00218e-05
0.000153897
6.6238e-05
0.000139526
7.15615e-05
0.000124234
7.6158e-05
0.000108242
7.96465e-05
9.16907e-05
8.23988e-05
7.48364e-05
8.40337e-05
5.77917e-05
8.48817e-05
4.07974e-05
8.4756e-05
2.39577e-05
8.40071e-05
7.44123e-06
8.23485e-05
-8.65215e-06
8.02558e-05
-2.41443e-05
7.74085e-05
-3.90459e-05
7.42799e-05
-5.31807e-05
7.06066e-05
-6.65606e-05
6.68263e-05
-7.91205e-05
6.2767e-05
-9.08567e-05
5.86964e-05
-0.000101765
5.45625e-05
-0.000111847
5.0365e-05
-0.000121109
4.62813e-05
-0.000129567
4.2246e-05
-0.000137246
3.84172e-05
-0.000144152
3.46454e-05
-0.000150329
3.10218e-05
-0.000155851
2.75929e-05
-0.000160705
2.43205e-05
-0.000164925
2.12656e-05
-0.000168551
1.82906e-05
-0.000171672
1.55862e-05
-0.00017426
1.28822e-05
-0.000176353
1.05291e-05
-0.000177976
8.21651e-06
-0.00017918
5.86527e-06
-0.00017991
3.60244e-06
-0.000180187
1.37712e-06
-0.000179944
-9.96452e-07
-0.000179289
-3.39105e-06
-0.000178194
-5.5945e-06
-0.000176519
-8.4e-06
-0.000174379
-1.06562e-05
-0.000171714
-1.33348e-05
-0.000168529
-1.58955e-05
-0.000164884
-1.82383e-05
-0.000160671
-2.0959e-05
-0.000156031
-2.33683e-05
-0.000150803
-2.60323e-05
-0.00014509
-2.86299e-05
-0.000138759
-3.17787e-05
-0.000131874
-3.44163e-05
-0.000124248
-3.81257e-05
-0.000116163
-4.03423e-05
-0.000107585
-4.29969e-05
-9.85307e-05
-4.53751e-05
-8.87147e-05
-4.88226e-05
-7.84977e-05
-5.11568e-05
-6.7663e-05
-5.40737e-05
-5.62585e-05
-5.69324e-05
-4.44198e-05
-5.90969e-05
-3.20224e-05
-6.18714e-05
-1.93361e-05
-6.35709e-05
-6.10816e-06
-6.59051e-05
7.3301e-06
-6.71582e-05
2.11271e-05
-6.87611e-05
3.50762e-05
-6.96079e-05
4.91793e-05
-7.03403e-05
6.33394e-05
-7.05867e-05
7.74551e-05
-7.03897e-05
9.14433e-05
-6.97214e-05
0.00010517
-6.86088e-05
0.000118599
-6.69022e-05
0.000131626
-6.48185e-05
0.000143948
-6.15202e-05
0.000155585
-5.7941e-05
0.000166331
-5.36201e-05
0.00017607
-4.85361e-05
0.000184759
-4.32914e-05
0.000192161
-3.69489e-05
0.000198344
-3.06843e-05
0.000203036
-2.33206e-05
0.000206327
-1.63193e-05
0.000208038
-8.65944e-06
0.000208304
-1.29786e-06
0.000206932
6.8566e-06
0.000204172
1.38539e-05
0.000199859
2.13028e-05
0.000194272
2.78548e-05
0.000187388
3.45703e-05
0.000179359
3.99852e-05
0.000170257
4.57934e-05
0.00016067
5.20991e-05
0.000150776
6.2978e-05
0.000140536
7.43679e-05
0.000128177
7.71647e-05
0.000113794
7.2995e-05
0.000100631
7.38301e-05
8.89729e-05
8.65086e-05
-0.000123517
-5.02128e-05
-0.000114477
-5.42308e-05
-0.000104933
-5.72619e-05
-9.47624e-05
-6.1068e-05
-8.41078e-05
-6.38184e-05
-7.28241e-05
-6.76453e-05
-6.10985e-05
-7.02824e-05
-4.87558e-05
-7.40746e-05
-3.60206e-05
-7.63485e-05
-2.2713e-05
-7.97957e-05
-9.06858e-06
-8.17654e-05
5.16169e-06
-8.5272e-05
1.97399e-05
-8.72693e-05
3.48381e-05
-9.02793e-05
5.02481e-05
-9.21095e-05
6.56087e-05
-9.1856e-05
8.11096e-05
-9.26222e-05
9.64312e-05
-9.15733e-05
0.000111624
-9.07577e-05
0.000126423
-8.84139e-05
0.00014081
-8.59315e-05
0.000154561
-8.2103e-05
0.000167595
-7.77983e-05
0.000179727
-7.23743e-05
0.000190874
-6.65132e-05
0.000200871
-5.96176e-05
0.000209605
-5.20665e-05
0.000216929
-4.36472e-05
0.000222737
-3.46083e-05
0.000226953
-2.51037e-05
0.000229508
-1.5189e-05
0.000230354
-4.97961e-06
0.00022954
4.90348e-06
0.000227046
1.49991e-05
0.00022281
2.55171e-05
0.000216869
3.52191e-05
0.000209313
4.50264e-05
0.000200287
5.39657e-05
0.000189831
6.25754e-05
0.00017805
7.01295e-05
0.000165081
7.73718e-05
0.000151107
8.341e-05
0.000136182
8.90123e-05
0.000120585
9.30251e-05
0.000104373
9.68963e-05
8.77714e-05
9.91251e-05
7.08536e-05
0.00010101
5.38384e-05
0.000101759
3.67827e-05