/*--------------------------------*- C++ -*----------------------------------*\
| =========                 |                                                 |
| \\      /  F ield         | OpenFOAM: The Open Source CFD Toolbox           |
|  \\    /   O peration     | Version:  3.0.1                                 |
|   \\  /    A nd           | Web:      www.OpenFOAM.org                      |
|    \\/     M anipulation  |                                                 |
\*---------------------------------------------------------------------------*/
FoamFile
{
    version     2.0;
    format      ascii;
    class       volScalarField;
    location    "22.2";
    object      p_rgh;
}
// * * * * * * * * * * * * * * * * * * * * * * * * * * * * * * * * * * * * * //

dimensions      [1 -1 -2 0 0 0 0];

internalField   nonuniform List<scalar> 
21420
(
-40.3464
-67.7258
-95.331
-122.169
-147.756
-171.878
-194.374
-215.179
-234.241
-251.552
-267.131
-281.003
-293.203
-303.775
-312.76
-320.198
-326.124
-330.57
-333.566
-335.08
-335.103
-333.638
-330.735
-326.332
-320.401
-312.913
-303.813
-293.059
-280.606
-266.407
-250.404
-232.568
-212.872
-191.313
-167.905
-142.669
-115.678
-87.0468
-56.8971
-25.397
7.2044
40.481
74.1698
108.232
142.275
175.867
208.587
240.056
269.855
297.58
322.886
345.43
364.913
381.077
393.696
402.606
407.691
408.818
405.903
399.047
388.405
374.071
356.243
335.155
311.075
284.311
255.243
224.245
191.705
158.022
123.614
88.8872
54.1893
19.6517
-14.8043
-47.9331
-79.7014
-109.989
-138.642
-165.554
-190.623
-213.776
-234.986
-254.218
-271.459
-286.734
-300.046
-311.441
-320.968
-328.664
-334.597
-338.842
-341.471
-342.525
-342.062
-340.192
-336.94
-332.319
-326.364
-319.079
-310.433
-300.413
-288.988
-276.099
-261.71
-245.777
-228.26
-209.135
-188.381
-166
-142.016
-116.47
-89.4359
-61.0117
-31.3266
-0.542356
31.1652
63.558
96.3524
129.269
161.979
194.123
225.314
255.146
283.207
309.079
332.359
352.675
369.69
383.108
392.694
398.281
399.718
397.048
390.247
379.465
364.814
346.537
324.912
300.267
272.971
243.425
212.056
179.314
145.645
111.489
77.2708
43.3808
10.2116
-22.0167
-53.0136
-82.5825
-110.58
-136.907
-161.504
-184.339
-205.412
-224.747
-242.37
-258.321
-272.649
-285.39
-296.59
-306.285
-314.509
-321.285
-326.623
-330.544
-333.052
-334.13
-333.767
-331.983
-328.745
-324.023
-317.799
-310.037
-300.713
-289.807
-277.272
-263.078
-247.197
-229.609
-210.296
-189.251
-166.48
-142.022
-115.938
-88.3131
-59.269
-28.9613
2.4187
34.7374
67.4952
100.488
133.387
165.831
197.441
227.827
256.591
283.348
307.725
329.373
347.972
363.251
374.981
382.98
387.128
387.288
383.595
376.002
364.615
349.605
331.181
309.601
285.158
258.184
229.05
198.143
165.86
132.61
98.7986
64.8163
31.0319
-2.10422
-34.4765
-65.7066
-95.5703
-123.889
-150.521
-175.371
-198.377
-219.507
-238.761
-256.158
-271.735
-285.539
-297.631
-308.082
-316.954
-324.305
-330.194
-334.673
-337.787
-339.549
-339.971
-339.078
-336.865
-333.302
-328.344
-321.947
-314.059
-304.625
-293.567
-280.817
-266.33
-250.055
-231.948
-211.997
-190.211
-166.624
-141.308
-114.365
-85.9384
-56.2192
-25.4351
6.76657
39.0133
71.5304
103.962
135.975
167.208
197.29
225.867
252.586
277.124
299.188
318.509
334.832
347.937
357.653
363.818
366.323
365.198
360.906
353.032
341.604
326.875
308.973
288.047
264.367
238.17
209.77
179.551
147.846
115.026
81.5255
47.6798
13.8252
-19.317
-50.386
-81.2777
-111.251
-139.89
-166.943
-192.232
-215.613
-236.997
-256.335
-273.601
-288.805
-301.975
-313.162
-322.434
-329.867
-335.55
-339.52
-341.86
-342.602
-341.899
-339.76
-336.239
-331.393
-325.266
-317.879
-309.248
-299.382
-288.272
-275.913
-262.287
-247.366
-231.13
-213.559
-194.625
-174.325
-152.665
-129.664
-105.373
-79.8792
-53.2813
-25.6509
2.82829
31.9642
61.5086
91.213
120.749
149.788
177.999
204.975
230.315
253.655
274.6
292.789
307.877
319.565
327.607
331.822
332.096
-40.4078
-67.795
-95.4056
-122.247
-147.836
-171.959
-194.455
-215.258
-234.318
-251.627
-267.204
-281.073
-293.27
-303.84
-312.822
-320.258
-326.183
-330.628
-333.622
-335.136
-335.161
-333.698
-330.794
-326.393
-320.463
-312.977
-303.879
-293.128
-280.678
-266.481
-250.48
-232.647
-212.952
-191.395
-167.988
-142.75
-115.758
-87.1235
-56.9691
-25.4629
7.14696
40.4337
74.1334
108.209
142.266
175.873
208.611
240.097
269.913
297.655
322.977
345.537
365.034
381.209
393.837
402.754
407.845
408.982
406.053
399.193
388.545
374.202
356.361
335.26
311.163
284.382
255.297
224.281
191.722
158.022
123.598
88.8562
54.1455
19.5949
-14.8702
-48.0061
-79.7802
-110.073
-138.728
-165.642
-190.712
-213.866
-235.076
-254.307
-271.546
-286.82
-300.131
-311.523
-321.048
-328.742
-334.673
-338.915
-341.54
-342.589
-342.127
-340.255
-337.002
-332.38
-326.426
-319.142
-310.496
-300.479
-289.056
-276.169
-261.782
-245.852
-228.337
-209.213
-188.46
-166.08
-142.095
-116.548
-89.512
-61.0845
-31.3948
-0.604078
31.1107
63.5124
96.3177
129.247
161.971
194.13
225.338
255.189
283.268
309.159
332.457
352.79
369.819
383.249
392.844
398.437
399.883
397.201
390.397
379.607
364.945
346.654
325.013
300.35
273.034
243.469
212.08
179.319
145.632
111.46
77.2263
43.3239
10.1438
-22.0923
-53.0949
-82.6674
-110.667
-136.994
-161.59
-184.424
-205.494
-224.827
-242.448
-258.396
-272.721
-285.46
-296.658
-306.351
-314.573
-321.348
-326.686
-330.607
-333.115
-334.191
-333.831
-332.048
-328.81
-324.089
-317.866
-310.107
-300.785
-289.88
-277.347
-263.154
-247.276
-229.689
-210.378
-189.333
-166.563
-142.104
-116.018
-88.3902
-59.3418
-29.0282
2.35985
34.6878
67.4569
100.463
133.376
165.835
197.462
227.864
256.646
283.42
307.814
329.477
348.09
363.381
375.121
383.126
387.277
387.445
383.737
376.143
364.749
349.728
331.29
309.695
285.236
258.245
229.093
198.168
165.867
132.601
98.7738
64.7774
30.9789
-2.16567
-34.5485
-65.7856
-95.6546
-123.977
-150.611
-175.461
-198.467
-219.596
-238.848
-256.242
-271.816
-285.617
-297.705
-308.153
-317.022
-324.371
-330.257
-334.735
-337.848
-339.608
-340.028
-339.138
-336.925
-333.364
-328.408
-322.013
-314.128
-304.697
-293.642
-280.895
-266.411
-250.139
-232.033
-212.084
-190.297
-166.71
-141.391
-114.444
-86.0121
-56.2851
-25.4892
6.71187
38.9738
71.505
103.951
135.979
167.228
197.326
225.918
252.654
277.206
299.284
318.619
334.952
348.067
357.79
363.962
366.475
365.359
361.044
353.166
341.738
327.001
309.089
288.15
264.455
238.243
209.825
179.589
147.867
115.029
81.5131
47.6532
13.7862
-19.364
-50.4463
-81.3471
-111.327
-139.972
-167.029
-192.32
-215.702
-237.087
-256.424
-273.688
-288.889
-302.055
-313.239
-322.507
-329.936
-335.614
-339.581
-341.919
-342.661
-341.954
-339.813
-336.29
-331.443
-325.316
-317.928
-309.298
-299.433
-288.324
-275.966
-262.342
-247.423
-231.189
-213.619
-194.688
-174.389
-152.729
-129.727
-105.435
-79.9379
-53.3393
-25.7028
2.78314
31.927
61.481
91.1968
120.746
149.8
178.027
205.019
230.377
253.734
274.697
292.902
308.004
319.705
327.756
331.976
332.245
-40.5305
-67.9336
-95.5549
-122.404
-147.997
-172.121
-194.616
-215.417
-234.473
-251.777
-267.349
-281.212
-293.404
-303.97
-312.948
-320.38
-326.301
-330.743
-333.734
-335.25
-335.278
-333.817
-330.912
-326.513
-320.586
-313.105
-304.012
-293.266
-280.821
-266.629
-250.634
-232.805
-213.114
-191.559
-168.152
-142.913
-115.917
-87.2767
-57.1128
-25.5942
7.03226
40.3394
74.0608
108.161
142.248
175.887
208.658
240.179
270.031
297.807
323.161
345.751
365.275
381.473
394.12
403.051
408.153
409.314
406.351
399.485
388.824
374.464
356.599
335.469
311.34
284.526
255.404
224.352
191.758
158.023
123.568
88.7968
54.0611
19.4848
-14.9975
-48.1469
-79.9319
-110.232
-138.894
-165.811
-190.882
-214.037
-235.244
-254.473
-271.71
-286.979
-300.287
-311.674
-321.193
-328.882
-334.809
-339.046
-341.663
-342.703
-342.241
-340.366
-337.109
-332.487
-326.533
-319.251
-310.608
-300.594
-289.176
-276.293
-261.912
-245.987
-228.476
-209.355
-188.605
-166.226
-142.241
-116.691
-89.6513
-61.2174
-31.5187
-0.715555
31.0134
63.4326
96.2593
129.213
161.965
194.156
225.398
255.285
283.401
309.328
332.663
353.029
370.087
383.541
393.154
398.758
400.221
397.514
390.706
379.9
365.215
346.896
325.223
300.523
273.169
243.564
212.137
179.337
145.615
111.409
77.1468
43.22
10.0183
-22.2332
-53.247
-82.8265
-110.829
-137.157
-161.751
-184.582
-205.648
-224.975
-242.59
-258.533
-272.853
-285.587
-296.781
-306.47
-314.69
-321.462
-326.8
-330.72
-333.227
-334.301
-333.945
-332.163
-328.928
-324.209
-317.989
-310.233
-300.914
-290.013
-277.484
-263.296
-247.421
-229.838
-210.53
-189.487
-166.717
-142.258
-116.168
-88.5344
-59.4775
-29.1524
2.25141
34.5981
67.3894
100.42
133.361
165.852
197.511
227.948
256.765
283.573
308
329.693
348.335
363.649
375.407
383.425
387.583
387.765
384.033
376.433
365.024
349.981
331.518
309.893
285.401
258.376
229.189
198.228
165.893
132.593
98.7352
64.7108
30.8854
-2.2777
-34.6804
-65.9312
-95.8104
-124.139
-150.777
-175.629
-198.633
-219.759
-239.007
-256.396
-271.963
-285.758
-297.839
-308.281
-317.145
-324.488
-330.37
-334.844
-337.955
-339.711
-340.131
-339.244
-337.032
-333.475
-328.523
-322.132
-314.254
-304.829
-293.78
-281.039
-266.561
-250.294
-232.193
-212.246
-190.46
-166.871
-141.547
-114.593
-86.1505
-56.4083
-25.5892
6.61061
38.9027
71.4615
103.936
135.994
167.274
197.403
226.028
252.793
277.376
299.482
318.841
335.197
348.331
358.069
364.252
366.782
365.677
361.324
353.438
342.008
327.255
309.321
288.357
264.632
238.388
209.936
179.665
147.907
115.037
81.4882
47.5999
13.7088
-19.4578
-50.5669
-81.4861
-111.48
-140.136
-167.2
-192.496
-215.88
-237.265
-256.6
-273.86
-289.057
-302.217
-313.394
-322.654
-330.075
-335.744
-339.706
-342.038
-342.779
-342.064
-339.919
-336.393
-331.544
-325.415
-318.028
-309.398
-299.534
-288.428
-276.074
-262.452
-247.537
-231.307
-213.741
-194.812
-174.516
-152.857
-129.855
-105.559
-80.0549
-53.4555
-25.8068
2.69289
31.8525
61.4259
91.1645
120.74
149.823
178.082
205.108
230.501
253.893
274.89
293.127
308.259
319.984
328.054
332.284
332.54
-40.7147
-68.1415
-95.7789
-122.639
-148.238
-172.364
-194.857
-215.654
-234.705
-252.002
-267.566
-281.422
-293.606
-304.164
-313.135
-320.562
-326.478
-330.916
-333.902
-335.418
-335.455
-333.996
-331.089
-326.694
-320.772
-313.296
-304.211
-293.473
-281.036
-266.851
-250.864
-233.042
-213.356
-191.804
-168.398
-143.157
-116.157
-87.5067
-57.3286
-25.7914
6.85981
40.1976
73.9517
108.09
142.22
175.908
208.729
240.302
270.207
298.034
323.437
346.072
365.636
381.87
394.545
403.496
408.615
409.805
406.806
399.927
389.244
374.857
356.956
335.783
311.606
284.74
255.566
224.459
191.811
158.025
123.522
88.7075
53.9342
19.3194
-15.1884
-48.358
-80.1594
-110.472
-139.142
-166.064
-191.137
-214.291
-235.497
-254.722
-271.954
-287.217
-300.519
-311.899
-321.41
-329.092
-335.012
-339.239
-341.846
-342.877
-342.411
-340.53
-337.27
-332.646
-326.692
-319.413
-310.774
-300.766
-289.354
-276.479
-262.105
-246.188
-228.683
-209.568
-188.821
-166.444
-142.458
-116.906
-89.8593
-61.416
-31.7038
-0.882228
30.8681
63.3136
96.1724
129.163
161.958
194.195
225.488
255.429
283.6
309.583
332.972
353.387
370.49
383.98
393.62
399.239
400.722
397.99
391.174
380.34
365.622
347.26
325.538
300.785
273.373
243.709
212.222
179.366
145.589
111.334
77.0285
43.065
9.83076
-22.4437
-53.4742
-83.0643
-111.072
-137.401
-161.992
-184.818
-205.877
-225.196
-242.803
-258.738
-273.049
-285.776
-296.963
-306.648
-314.863
-321.633
-326.969
-330.887
-333.394
-334.468
-334.116
-332.336
-329.103
-324.388
-318.173
-310.421
-301.108
-290.213
-277.689
-263.507
-247.639
-230.061
-210.757
-189.717
-166.948
-142.487
-116.393
-88.7499
-59.6802
-29.3379
2.08885
34.4648
67.289
100.358
133.341
165.878
197.587
228.075
256.944
283.804
308.28
330.02
348.703
364.053
375.839
383.876
388.043
388.24
384.484
376.871
365.438
350.363
331.861
310.191
285.651
258.574
229.334
198.32
165.932
132.583
98.6783
64.6124
30.7482
-2.44654
-34.8773
-66.1486
-96.043
-124.382
-151.026
-175.879
-198.881
-220.003
-239.245
-256.625
-272.183
-285.968
-298.04
-308.471
-317.327
-324.662
-330.538
-335.007
-338.113
-339.865
-340.287
-339.401
-337.192
-333.64
-328.694
-322.311
-314.441
-305.025
-293.985
-281.255
-266.786
-250.527
-232.432
-212.488
-190.703
-167.112
-141.782
-114.817
-86.3575
-56.5926
-25.7401
6.46088
38.7968
71.3967
103.913
136.017
167.343
197.521
226.192
253.004
277.63
299.778
319.175
335.565
348.727
358.487
364.687
367.239
366.145
361.751
353.85
342.413
327.636
309.669
288.666
264.898
238.606
210.102
179.78
147.969
115.047
81.4507
47.5195
13.5899
-19.5982
-50.7482
-81.6947
-111.71
-140.382
-167.458
-192.76
-216.148
-237.533
-256.865
-274.12
-289.308
-302.459
-313.626
-322.875
-330.284
-335.938
-339.89
-342.219
-342.955
-342.229
-340.077
-336.547
-331.695
-325.564
-318.177
-309.548
-299.686
-288.584
-276.234
-262.618
-247.708
-231.483
-213.923
-194.998
-174.706
-153.049
-130.045
-105.745
-80.2304
-53.6301
-25.9628
2.55728
31.7406
61.3429
91.1156
120.73
149.857
178.165
205.242
230.687
254.132
275.18
293.465
308.641
320.404
328.502
332.747
332.985
-40.9606
-68.4191
-96.0778
-122.953
-148.559
-172.688
-195.179
-215.972
-235.015
-252.302
-267.856
-281.701
-293.875
-304.423
-313.385
-320.804
-326.714
-331.146
-334.126
-335.641
-335.692
-334.233
-331.324
-326.935
-321.019
-313.551
-304.476
-293.749
-281.323
-267.148
-251.17
-233.358
-213.679
-192.132
-168.727
-143.483
-116.476
-87.8136
-57.6166
-26.0546
6.62926
40.0079
73.8058
107.995
142.184
175.935
208.823
240.465
270.441
298.337
323.806
346.5
366.119
382.398
395.111
404.09
409.229
410.444
407.423
400.52
389.806
375.381
357.432
336.201
311.961
285.027
255.781
224.602
191.882
158.028
123.461
88.588
53.7645
19.0981
-15.443
-48.6398
-80.4632
-110.792
-139.472
-166.401
-191.477
-214.631
-235.833
-255.054
-272.279
-287.535
-300.829
-312.199
-321.699
-329.372
-335.281
-339.496
-342.088
-343.112
-342.638
-340.749
-337.483
-332.857
-326.905
-319.629
-310.996
-300.995
-289.592
-276.726
-262.364
-246.456
-228.959
-209.851
-189.11
-166.735
-142.748
-117.192
-90.1371
-61.681
-31.9508
-1.10522
30.6739
63.1547
96.0562
129.097
161.947
194.247
225.608
255.621
283.866
309.924
333.384
353.866
371.027
384.566
394.241
399.882
401.376
398.637
391.801
380.929
366.165
347.746
325.959
301.133
273.645
243.902
212.337
179.404
145.556
111.234
76.8703
42.8576
9.58041
-22.7247
-53.7776
-83.3816
-111.397
-137.726
-162.314
-185.133
-206.182
-225.491
-243.087
-259.011
-273.311
-286.029
-297.207
-306.885
-315.094
-321.86
-327.193
-331.109
-333.615
-334.692
-334.343
-332.566
-329.337
-324.627
-318.417
-310.673
-301.367
-290.48
-277.963
-263.788
-247.93
-230.359
-211.061
-190.024
-167.256
-142.794
-116.692
-89.0376
-59.9508
-29.5857
1.87042
34.2879
67.1549
100.274
133.314
165.912
197.687
228.243
257.182
284.111
308.653
330.455
349.194
364.591
376.414
384.477
388.657
388.865
385.092
377.456
365.991
350.873
332.318
310.589
285.984
258.838
229.528
198.442
165.984
132.568
98.6023
64.4811
30.5731
-2.68028
-35.1402
-66.4387
-96.3534
-124.706
-151.358
-176.213
-199.213
-220.329
-239.561
-256.931
-272.476
-286.248
-298.307
-308.726
-317.57
-324.895
-330.762
-335.224
-338.323
-340.07
-340.495
-339.61
-337.405
-333.859
-328.921
-322.549
-314.691
-305.286
-294.26
-281.543
-267.086
-250.837
-232.75
-212.812
-191.028
-167.433
-142.094
-115.115
-86.634
-56.8393
-25.9446
6.26377
38.6559
71.3101
103.884
136.048
167.436
197.677
226.411
253.284
277.97
300.174
319.621
336.056
349.255
359.045
365.269
367.844
366.76
362.331
354.406
342.954
328.144
310.134
289.079
265.252
238.897
210.324
179.932
148.05
115.062
81.4005
47.4117
13.4314
-19.7852
-50.99
-81.9732
-112.017
-140.71
-167.801
-193.113
-216.506
-237.89
-257.218
-274.465
-289.644
-302.783
-313.935
-323.17
-330.562
-336.197
-340.135
-342.461
-343.189
-342.449
-340.289
-336.752
-331.896
-325.763
-318.375
-309.749
-299.889
-288.792
-276.449
-262.839
-247.935
-231.719
-214.166
-195.247
-174.96
-153.305
-130.3
-105.993
-80.465
-53.8626
-26.1709
2.37604
31.5911
61.2319
91.0501
120.717
149.903
178.276
205.421
230.935
254.45
275.566
293.916
309.151
320.963
329.1
333.366
333.579
-41.2684
-68.7665
-96.4519
-123.345
-148.962
-173.094
-195.583
-216.368
-235.402
-252.678
-268.219
-282.051
-294.211
-304.747
-313.698
-321.107
-327.009
-331.434
-334.407
-335.921
-335.985
-334.526
-331.618
-327.236
-321.328
-313.87
-304.808
-294.093
-281.682
-267.519
-251.554
-233.754
-214.083
-192.542
-169.139
-143.891
-116.876
-88.1978
-57.9771
-26.3842
6.34015
39.7702
73.623
107.875
142.137
175.968
208.94
240.67
270.734
298.716
324.266
347.036
366.722
383.059
395.819
404.833
409.997
411.233
408.194
401.265
390.51
376.037
358.027
336.725
312.405
285.385
256.05
224.78
191.97
158.03
123.385
88.4379
53.5512
18.8202
-15.7617
-48.9927
-80.8435
-111.192
-139.886
-166.823
-191.902
-215.056
-236.254
-255.469
-272.687
-287.932
-301.217
-312.574
-322.061
-329.722
-335.617
-339.817
-342.393
-343.406
-342.921
-341.023
-337.751
-333.122
-327.171
-319.899
-311.273
-301.282
-289.89
-277.037
-262.687
-246.791
-229.305
-210.206
-189.471
-167.099
-143.111
-117.55
-90.4849
-62.0129
-32.2602
-1.38506
30.4302
62.9555
95.9103
129.012
161.933
194.312
225.758
255.86
284.199
310.349
333.899
354.465
371.699
385.299
395.019
400.686
402.188
399.451
392.585
381.667
366.844
348.355
326.486
301.569
273.985
244.143
212.479
179.451
145.512
111.108
76.6716
42.5973
9.26672
-23.0769
-54.1577
-83.779
-111.803
-138.134
-162.716
-185.526
-206.565
-225.86
-243.441
-259.352
-273.639
-286.344
-297.512
-307.181
-315.384
-322.143
-327.474
-331.388
-333.892
-334.973
-334.628
-332.854
-329.629
-324.926
-318.723
-310.987
-301.69
-290.813
-278.305
-264.141
-248.293
-230.731
-211.44
-190.408
-167.642
-143.177
-117.067
-89.3981
-60.2896
-29.8961
1.59501
34.0675
66.9867
100.168
133.278
165.954
197.811
228.453
257.479
284.495
309.12
330.999
349.807
365.264
377.134
385.23
389.427
389.641
385.858
378.189
366.683
351.511
332.89
311.086
286.4
259.168
229.769
198.594
166.049
132.55
98.5064
64.3162
30.3517
-2.97163
-35.4697
-66.8021
-96.7422
-125.112
-151.773
-176.631
-199.627
-220.736
-239.958
-257.313
-272.842
-286.599
-298.642
-309.044
-317.873
-325.186
-331.041
-335.495
-338.586
-340.328
-340.754
-339.872
-337.671
-334.133
-329.206
-322.846
-315.003
-305.613
-294.603
-281.903
-267.461
-251.225
-233.148
-213.217
-191.434
-167.835
-142.486
-115.488
-86.9806
-57.1491
-26.2043
6.02013
38.4799
71.2011
103.847
136.086
167.551
197.872
226.684
253.635
278.395
300.669
320.179
336.671
349.916
359.744
365.997
368.596
367.516
363.062
355.107
343.632
328.781
310.715
289.596
265.695
239.26
210.601
180.122
148.151
115.079
81.3373
47.2759
13.2311
-20.0186
-51.2928
-82.3219
-112.4
-141.121
-168.231
-193.555
-216.953
-238.337
-257.659
-274.897
-290.063
-303.187
-314.322
-323.538
-330.91
-336.523
-340.444
-342.763
-343.478
-342.723
-340.553
-337.008
-332.147
-326.011
-318.623
-309.999
-300.142
-289.051
-276.716
-263.115
-248.22
-232.013
-214.47
-195.558
-175.277
-153.625
-130.619
-106.304
-80.7593
-54.1527
-26.4314
2.14886
31.4035
61.0924
90.9676
120.7
149.96
178.413
205.643
231.245
254.847
276.049
294.479
309.788
321.663
329.849
334.144
334.349
-41.6385
-69.184
-96.9015
-123.817
-149.445
-173.581
-196.067
-216.845
-235.867
-253.129
-268.655
-282.47
-294.615
-305.136
-314.073
-321.471
-327.363
-331.78
-334.745
-336.259
-336.334
-334.876
-331.971
-327.596
-321.699
-314.253
-305.207
-294.507
-282.112
-267.964
-252.014
-234.228
-214.568
-193.034
-169.633
-144.382
-117.356
-88.6596
-58.4106
-26.7805
5.99198
39.4839
73.4026
107.731
142.081
176.008
209.081
240.915
271.085
299.171
324.818
347.68
367.447
383.853
396.669
405.725
410.917
412.175
409.118
402.158
391.357
376.826
358.741
337.353
312.937
285.814
256.372
224.992
192.075
158.033
123.292
88.2567
53.2939
18.4854
-16.1448
-49.4171
-81.3008
-111.673
-140.384
-167.33
-192.413
-215.567
-236.76
-255.967
-273.176
-288.41
-301.683
-313.025
-322.496
-330.142
-336.02
-340.202
-342.759
-343.758
-343.26
-341.351
-338.071
-333.44
-327.491
-320.223
-311.606
-301.626
-290.248
-277.409
-263.074
-247.193
-229.721
-210.632
-189.905
-167.536
-143.548
-117.98
-90.9029
-62.4118
-32.6322
-1.72201
30.1367
62.7155
95.7342
128.91
161.915
194.388
225.936
256.147
284.597
310.859
334.518
355.183
372.506
386.179
395.953
401.653
403.165
400.426
393.526
382.553
367.66
349.085
327.117
302.092
274.392
244.431
212.649
179.507
145.459
110.956
76.4318
42.2833
8.88916
-23.5006
-54.6149
-84.2569
-112.291
-138.623
-163.2
-185.999
-207.024
-226.303
-243.867
-259.762
-274.032
-286.723
-297.878
-307.536
-315.731
-322.484
-327.811
-331.722
-334.225
-335.309
-334.968
-333.199
-329.98
-325.284
-319.091
-311.364
-302.078
-291.212
-278.716
-264.564
-248.729
-231.178
-211.895
-190.869
-168.105
-143.638
-117.518
-89.8316
-60.6971
-30.2694
1.26191
33.8034
66.7838
100.04
133.235
166.004
197.96
228.705
257.836
284.956
309.681
331.653
350.545
366.073
377.999
386.134
390.352
390.57
386.778
379.07
367.514
352.277
333.577
311.683
286.899
259.564
230.058
198.776
166.126
132.527
98.3904
64.1168
30.0818
-3.31914
-35.8659
-67.2391
-97.2098
-125.6
-152.272
-177.133
-200.125
-221.225
-240.434
-257.773
-273.283
-287.02
-299.043
-309.426
-318.238
-325.535
-331.377
-335.819
-338.901
-340.639
-341.065
-340.185
-337.991
-334.462
-329.548
-323.204
-315.378
-306.006
-295.015
-282.336
-267.911
-251.692
-233.627
-213.703
-191.922
-168.319
-142.956
-115.937
-87.3977
-57.5224
-26.5203
5.73023
38.2686
71.0696
103.802
136.131
167.69
198.107
227.012
254.055
278.906
301.265
320.85
337.409
350.711
360.583
366.872
369.496
368.418
363.943
355.955
344.447
329.545
311.413
290.216
266.227
239.696
210.934
180.349
148.273
115.099
81.2607
47.1117
12.9875
-20.2981
-51.6568
-82.7411
-112.862
-141.615
-168.748
-194.086
-217.49
-238.874
-258.19
-275.417
-290.567
-303.672
-314.786
-323.98
-331.328
-336.916
-340.817
-343.123
-343.824
-343.052
-340.87
-337.316
-332.448
-326.308
-318.92
-310.299
-300.447
-289.362
-277.038
-263.447
-248.562
-232.367
-214.834
-195.932
-175.658
-154.01
-131.003
-106.679
-81.1136
-54.5009
-26.7444
1.87542
31.1775
60.924
90.8676
120.679
150.027
178.577
205.91
231.616
255.324
276.629
295.155
310.553
322.504
330.749
335.082
335.29
-42.0714
-69.6722
-97.427
-124.368
-150.01
-174.15
-196.632
-217.401
-236.41
-253.655
-269.163
-282.959
-295.086
-305.589
-314.511
-321.895
-327.775
-332.184
-335.141
-336.654
-336.739
-335.282
-332.381
-328.016
-322.131
-314.699
-305.671
-294.99
-282.614
-268.485
-252.552
-234.781
-215.134
-193.608
-170.21
-144.955
-117.917
-89.1994
-58.9173
-27.2441
5.58418
39.1489
73.1443
107.562
142.013
176.053
209.244
241.201
271.495
299.701
325.463
348.431
368.293
384.78
397.661
406.767
411.99
413.265
410.193
403.2
392.346
377.746
359.576
338.086
313.558
286.316
256.748
225.24
192.196
158.034
123.182
88.0439
52.9917
18.0931
-16.5926
-49.9134
-81.8355
-112.236
-140.966
-167.922
-193.01
-216.163
-237.351
-256.549
-273.747
-288.966
-302.225
-313.551
-323.003
-330.632
-336.49
-340.651
-343.188
-344.168
-343.656
-341.734
-338.445
-333.811
-327.863
-320.601
-311.994
-302.028
-290.666
-277.844
-263.527
-247.663
-230.206
-211.13
-190.411
-168.047
-144.058
-118.483
-91.3915
-62.8782
-33.0675
-2.11636
29.7928
62.4343
95.5274
128.79
161.893
194.475
226.143
256.48
285.061
311.454
335.239
356.022
373.448
387.206
397.045
402.784
404.308
401.564
394.625
383.588
368.613
349.937
327.854
302.702
274.867
244.767
212.847
179.57
145.396
110.777
76.1502
41.915
8.44713
-23.9966
-55.1496
-84.8159
-112.861
-139.195
-163.764
-186.551
-207.56
-226.819
-244.364
-260.24
-274.491
-287.164
-298.305
-307.951
-316.136
-322.881
-328.203
-332.112
-334.614
-335.701
-335.364
-333.601
-330.39
-325.703
-319.52
-311.804
-302.531
-291.679
-279.196
-265.058
-249.238
-231.7
-212.427
-191.408
-168.647
-144.176
-118.045
-90.3384
-61.1737
-30.706
0.87054
33.4952
66.5455
99.8894
133.184
166.061
198.133
228.998
258.252
285.493
310.335
332.415
351.405
367.017
379.009
387.19
391.433
391.656
387.85
380.1
368.485
353.171
334.379
312.38
287.481
260.025
230.395
198.988
166.215
132.499
98.2537
63.8823
29.7628
-3.72349
-36.3292
-67.7504
-97.7565
-126.17
-152.856
-177.72
-200.707
-221.796
-240.99
-258.309
-273.797
-287.511
-299.511
-309.871
-318.662
-325.942
-331.769
-336.198
-339.269
-341.001
-341.427
-340.55
-338.363
-334.846
-329.947
-323.62
-315.815
-306.464
-295.497
-282.84
-268.437
-252.236
-234.186
-214.271
-192.493
-168.884
-143.507
-116.461
-87.8859
-57.9601
-26.8935
5.39406
38.0218
70.9155
103.749
136.183
167.85
198.379
227.395
254.546
279.502
301.959
321.633
338.271
351.638
361.564
367.893
370.544
369.468
364.971
356.949
345.399
330.438
312.229
290.941
266.848
240.204
211.322
180.614
148.414
115.121
81.1705
46.9184
12.703
-20.6234
-52.0823
-83.2312
-113.401
-142.192
-169.352
-194.706
-218.117
-239.501
-258.809
-276.023
-291.155
-304.239
-315.328
-324.496
-331.816
-337.376
-341.254
-343.542
-344.225
-343.435
-341.24
-337.674
-332.799
-326.655
-319.266
-310.649
-300.802
-289.725
-277.412
-263.833
-248.961
-232.779
-215.259
-196.369
-176.103
-154.459
-131.451
-107.117
-81.5282
-54.9075
-27.11
1.55535
30.9125
60.7262
90.7495
120.653
150.105
178.768
206.221
232.049
255.88
277.305
295.945
311.446
323.486
331.801
336.18
336.402
-42.5674
-70.2313
-98.0288
-124.999
-150.657
-174.801
-197.279
-218.037
-237.031
-254.257
-269.743
-283.519
-295.624
-306.107
-315.011
-322.379
-328.247
-332.645
-335.595
-337.106
-337.198
-335.745
-332.85
-328.495
-322.624
-315.209
-306.202
-295.542
-283.188
-269.079
-253.167
-235.414
-215.782
-194.265
-170.871
-145.611
-118.559
-89.8176
-59.4979
-27.7753
5.11603
38.7646
72.8473
107.366
141.935
176.103
209.429
241.526
271.963
300.307
326.2
349.29
369.261
385.841
398.797
407.958
413.216
414.508
411.421
404.392
393.479
378.8
360.53
338.925
314.269
286.889
257.176
225.522
192.333
158.034
123.055
87.799
52.6437
17.6429
-17.1056
-50.4822
-82.448
-112.88
-141.631
-168.6
-193.693
-216.846
-238.027
-257.214
-274.4
-289.603
-302.846
-314.153
-323.584
-331.192
-337.027
-341.164
-343.678
-344.637
-344.108
-342.171
-338.873
-334.235
-328.288
-321.032
-312.438
-302.487
-291.143
-278.341
-264.044
-248.201
-230.761
-211.699
-190.991
-168.632
-144.642
-119.059
-91.9509
-63.4125
-33.5663
-2.56849
29.398
62.1112
95.2893
128.65
161.866
194.574
226.378
256.86
285.59
312.133
336.064
356.982
374.527
388.383
398.294
404.078
405.618
402.864
395.882
384.773
369.703
350.913
328.697
303.399
275.41
245.151
213.072
179.641
145.322
110.57
75.8262
41.4915
7.93987
-24.5657
-55.7627
-85.4564
-113.515
-139.85
-164.411
-187.182
-208.173
-227.41
-244.932
-260.786
-275.016
-287.669
-298.793
-308.424
-316.598
-323.335
-328.652
-332.559
-335.059
-336.148
-335.817
-334.061
-330.858
-326.181
-320.01
-312.306
-303.048
-292.212
-279.745
-265.624
-249.82
-232.296
-213.035
-192.024
-169.267
-144.792
-118.648
-90.919
-61.7199
-31.2063
0.420472
33.1422
66.2711
99.7155
133.124
166.124
198.329
229.333
258.727
286.107
311.082
333.288
352.39
368.098
380.164
388.399
392.671
392.899
389.076
381.279
369.596
354.194
335.297
313.177
288.147
260.552
230.779
199.229
166.315
132.465
98.0956
63.6122
29.3945
-4.18561
-36.8602
-68.3364
-98.383
-126.824
-153.524
-178.391
-201.373
-222.45
-241.626
-258.923
-274.385
-288.073
-300.047
-310.381
-319.148
-326.406
-332.216
-336.63
-339.69
-341.416
-341.84
-340.967
-338.789
-335.284
-330.402
-324.096
-316.314
-306.988
-296.047
-283.417
-269.039
-252.86
-234.826
-214.922
-193.147
-169.532
-144.137
-117.063
-88.4457
-58.4629
-27.3246
5.01145
37.7391
70.7383
103.687
136.242
168.033
198.691
227.832
255.107
280.184
302.754
322.529
339.257
352.7
362.686
369.062
371.74
370.666
366.149
358.089
346.49
331.459
313.162
291.77
267.558
240.785
211.766
180.915
148.574
115.146
81.0662
46.6957
12.3785
-20.9968
-52.5703
-83.7925
-114.019
-142.853
-170.043
-195.416
-218.836
-240.219
-259.518
-276.716
-291.827
-304.886
-315.948
-325.085
-332.374
-337.903
-341.753
-344.019
-344.682
-343.872
-341.662
-338.083
-333.199
-327.052
-319.661
-311.048
-301.207
-290.14
-277.84
-264.276
-249.417
-233.251
-215.745
-196.868
-176.612
-154.973
-131.964
-107.619
-82.0033
-55.3731
-27.5286
1.1882
30.6082
60.4983
90.6128
120.621
150.192
178.985
206.575
232.544
256.515
278.077
296.847
312.467
324.61
333.006
337.44
337.684
-43.1273
-70.8621
-98.7074
-125.71
-151.385
-175.534
-198.008
-218.754
-237.73
-254.935
-270.397
-284.148
-296.229
-306.69
-315.573
-322.924
-328.777
-333.163
-336.105
-337.613
-337.71
-336.263
-333.376
-329.034
-323.179
-315.783
-306.799
-296.163
-283.834
-269.749
-253.859
-236.126
-216.511
-195.006
-171.615
-146.35
-119.283
-90.5146
-60.1531
-28.3749
4.58672
38.3305
72.5109
107.144
141.845
176.157
209.636
241.892
272.489
300.988
327.03
350.257
370.35
387.035
400.077
409.3
414.596
415.903
412.802
405.734
394.755
379.986
361.605
339.87
315.069
287.534
257.657
225.837
192.487
158.033
122.911
87.5214
52.249
17.134
-17.6844
-51.1242
-83.1391
-113.607
-142.382
-169.364
-194.462
-217.614
-238.788
-257.963
-275.135
-290.32
-303.544
-314.83
-324.237
-331.821
-337.631
-341.742
-344.229
-345.164
-344.615
-342.663
-339.353
-334.711
-328.765
-321.517
-312.936
-303.003
-291.679
-278.899
-264.626
-248.806
-231.385
-212.341
-191.644
-169.291
-145.3
-119.708
-92.5817
-64.0149
-34.1293
-3.07916
28.952
61.7458
95.0192
128.491
161.833
194.682
226.64
257.286
286.185
312.898
336.993
358.063
375.741
389.708
399.703
405.538
407.094
404.329
397.298
386.108
370.932
352.012
329.646
304.184
276.019
245.581
213.323
179.718
145.236
110.334
75.4588
41.0118
7.36649
-25.2085
-56.4548
-86.179
-114.252
-140.588
-165.139
-187.893
-208.862
-228.076
-245.572
-261.4
-275.606
-288.237
-299.342
-308.957
-317.118
-323.846
-329.157
-333.06
-335.561
-336.652
-336.326
-334.578
-331.385
-326.719
-320.561
-312.871
-303.63
-292.812
-280.362
-266.26
-250.474
-232.967
-213.72
-192.719
-169.965
-145.486
-119.329
-91.5738
-62.3361
-31.7706
-0.0877714
32.7426
65.9596
99.5176
133.054
166.194
198.548
229.708
259.26
286.797
311.924
334.27
353.499
369.315
381.467
389.762
394.066
394.3
390.457
382.607
370.847
355.347
336.33
314.074
288.896
261.145
231.211
199.498
166.427
132.426
97.9156
63.3058
28.9764
-4.70642
-37.4595