/*--------------------------------*- C++ -*----------------------------------*\
| =========                 |                                                 |
| \\      /  F ield         | OpenFOAM: The Open Source CFD Toolbox           |
|  \\    /   O peration     | Version:  3.0.1                                 |
|   \\  /    A nd           | Web:      www.OpenFOAM.org                      |
|    \\/     M anipulation  |                                                 |
\*---------------------------------------------------------------------------*/
FoamFile
{
    version     2.0;
    format      ascii;
    class       volScalarField;
    location    "60";
    object      p_rgh;
}
// * * * * * * * * * * * * * * * * * * * * * * * * * * * * * * * * * * * * * //

dimensions      [1 -1 -2 0 0 0 0];

internalField   nonuniform List<scalar> 
21420
(
-248.264
-266.748
-283.559
-298.682
-312.123
-323.929
-334.139
-342.801
-349.954
-355.635
-359.877
-362.696
-364.089
-364.097
-362.75
-359.985
-355.791
-350.149
-343.023
-334.369
-324.14
-312.291
-298.768
-283.517
-266.51
-247.709
-227.104
-204.686
-180.468
-154.514
-126.884
-97.677
-67.0704
-35.1103
-2.34108
31.1373
65.0379
98.9965
132.633
165.574
197.386
227.654
255.954
281.883
305.103
325.286
342.138
355.429
364.972
370.625
372.258
369.641
363.029
352.505
338.17
320.293
299.097
274.856
247.923
218.662
187.481
154.78
120.962
86.4527
51.6546
16.939
-17.3455
-50.8291
-82.2012
-113.17
-142.809
-170.913
-197.335
-221.967
-244.743
-265.623
-284.582
-301.625
-316.763
-330.03
-341.452
-351.052
-358.875
-364.972
-369.383
-372.144
-373.289
-372.844
-370.916
-367.518
-362.694
-356.482
-348.909
-339.989
-329.729
-318.12
-305.143
-290.769
-274.956
-257.663
-238.864
-218.532
-196.657
-173.242
-148.319
-121.946
-94.2057
-65.1997
-34.8912
-3.86282
27.8553
60.0221
92.3536
124.535
156.228
187.07
216.687
244.689
270.685
294.287
315.122
332.838
347.117
357.687
364.336
366.835
365.225
359.445
349.578
335.726
318.128
297.055
272.828
245.822
216.444
185.131
152.334
118.513
84.1251
49.6142
15.4005
-18.1292
-50.624
-81.7951
-111.396
-139.233
-165.171
-189.128
-211.06
-230.964
-248.873
-264.841
-278.942
-291.259
-301.879
-310.896
-318.4
-324.473
-329.189
-332.616
-334.813
-335.827
-335.681
-334.351
-331.919
-328.365
-323.678
-317.837
-310.803
-302.545
-293.026
-282.193
-270.002
-256.414
-241.384
-224.87
-206.842
-187.275
-166.152
-143.47
-119.25
-93.5396
-66.4189
-38.0029
-8.45634
22.1709
53.4056
85.1115
116.976
148.655
179.768
209.911
238.658
265.578
290.24
312.227
331.149
346.66
358.458
366.314
370.033
369.522
364.818
355.985
343.109
326.447
306.287
282.981
256.928
228.566
198.354
166.76
134.254
101.289
68.2932
35.6574
3.74502
-27.1748
-56.8452
-85.0682
-111.699
-136.639
-159.824
-181.229
-200.855
-218.727
-234.884
-249.377
-262.26
-273.599
-283.46
-291.899
-298.975
-304.744
-309.256
-312.551
-314.685
-315.67
-315.51
-314.271
-311.928
-308.475
-303.895
-298.165
-291.244
-283.092
-273.673
-262.937
-250.838
-237.329
-222.376
-205.941
-187.996
-168.527
-147.537
-125.045
-101.092
-75.7358
-49.0669
-21.1994
7.72122
37.524
68.0615
98.878
129.747
160.341
190.293
219.214
246.701
272.346
295.732
316.466
334.192
348.58
359.321
366.193
369.033
367.71
362.33
352.86
339.457
322.381
301.917
278.437
252.36
224.093
194.08
162.802
130.695
98.2174
65.7938
33.7935
2.7249
-26.427
-54.7434
-81.7922
-107.345
-131.253
-153.435
-173.856
-192.514
-209.447
-224.71
-238.382
-250.556
-261.33
-270.803
-279.069
-286.213
-292.302
-297.385
-301.491
-304.624
-306.769
-307.876
-307.869
-306.691
-304.265
-300.462
-295.197
-288.359
-279.856
-269.609
-257.545
-243.622
-227.819
-210.128
-190.575
-169.225
-146.149
-121.452
-95.2928
-67.8145
-39.1193
-9.23108
23.6126
54.3335
84.7218
114.693
143.96
172.226
199.211
224.584
248.05
269.324
288.144
304.309
317.621
327.926
335.126
339.17
340.042
337.746
332.174
323.37
311.548
296.881
-248.342
-266.824
-283.632
-298.753
-312.191
-323.994
-334.202
-342.862
-350.013
-355.692
-359.933
-362.752
-364.144
-364.153
-362.806
-360.041
-355.848
-350.208
-343.084
-334.433
-324.207
-312.36
-298.839
-283.592
-266.587
-247.788
-227.185
-204.768
-180.551
-154.595
-126.964
-97.7521
-67.1401
-35.1738
-2.39564
31.0935
65.0065
98.9796
132.632
165.591
197.421
227.707
256.025
281.972
305.208
325.406
342.271
355.572
365.123
370.781
372.424
369.793
363.176
352.646
338.303
320.413
299.202
274.944
247.994
218.715
187.515
154.796
120.961
86.4352
51.6226
16.8942
-17.4013
-50.8919
-82.2739
-113.248
-142.891
-170.998
-197.422
-222.055
-244.83
-265.708
-284.666
-301.708
-316.844
-330.109
-341.528
-351.126
-358.948
-365.043
-369.452
-372.212
-373.353
-372.908
-370.979
-367.579
-362.755
-356.542
-348.969
-340.05
-329.791
-318.183
-305.209
-290.837
-275.026
-257.736
-238.939
-218.609
-196.735
-173.321
-148.397
-122.022
-94.2794
-65.2703
-34.9542
-3.91964
27.8071
59.9843
92.3279
124.523
156.23
187.089
216.722
244.741
270.755
294.375
315.226
332.958
347.25
357.83
364.486
366.997
365.376
359.593
349.719
335.856
318.245
297.155
272.909
245.883
216.486
185.152
152.336
118.496
84.09
49.5633
15.3356
-18.2057
-50.7102
-81.8884
-111.494
-139.334
-165.273
-189.229
-211.159
-231.06
-248.965
-264.929
-279.025
-291.337
-301.953
-310.966
-318.466
-324.535
-329.249
-332.673
-334.867
-335.88
-335.73
-334.403
-331.97
-328.417
-323.732
-317.891
-310.859
-302.604
-293.086
-282.255
-270.067
-256.481
-241.454
-224.943
-206.917
-187.352
-166.23
-143.548
-119.329
-93.6168
-66.4934
-38.0729
-8.51775
22.1108
53.3572
85.0747
116.953
148.646
179.776
209.937
238.704
265.643
290.324
312.329
331.268
346.793
358.603
366.467
370.196
369.678
364.969
356.13
343.244
326.567
306.39
283.065
256.992
228.609
198.376
166.763
134.238
101.256
68.2452
35.5968
3.67426
-27.2536
-56.9296
-85.1562
-111.789
-136.729
-159.914
-181.317
-200.94
-218.809
-234.963
-249.451
-262.331
-273.667
-283.525
-291.961
-299.034
-304.801
-309.311
-312.605
-314.737
-315.719
-315.56
-314.321
-311.978
-308.526
-303.947
-298.218
-291.299
-283.15
-273.733
-262.999
-250.902
-237.397
-222.445
-206.012
-188.069
-168.601
-147.612
-125.119
-101.165
-75.8076
-49.1356
-21.2637
7.66261
37.4726
68.0212
98.8489
129.731
160.34
190.308
219.247
246.753
272.416
295.82
316.571
334.313
348.715
359.468
366.347
369.192
367.876
362.484
353.009
339.597
322.508
302.028
278.53
252.433
224.147
194.113
162.815
130.69
98.1945
65.7554
33.742
2.66703
-26.4944
-54.8173
-81.8704
-107.426
-131.334
-153.516
-173.934
-192.589
-209.519
-224.777
-238.445
-250.615
-261.384
-270.852
-279.115
-286.255
-292.342
-297.424
-301.529
-304.663
-306.81
-307.919
-307.914
-306.742
-304.319
-300.52
-295.259
-288.425
-279.926
-269.682
-257.622
-243.701
-227.899
-210.208
-190.655
-169.304
-146.225
-121.525
-95.3605
-67.8764
-39.1745
-9.27651
23.5806
54.3142
84.7134
114.696
143.976
172.256
199.255
224.642
248.122
269.409
288.24
304.414
317.736
328.047
335.252
339.298
340.177
337.868
332.294
323.486
311.657
296.981
-248.498
-266.976
-283.778
-298.894
-312.327
-324.124
-334.328
-342.983
-350.13
-355.806
-360.045
-362.863
-364.254
-364.266
-362.917
-360.153
-355.963
-350.327
-343.207
-334.56
-324.339
-312.498
-298.983
-283.741
-266.741
-247.947
-227.347
-204.932
-180.715
-154.758
-127.122
-97.9024
-67.279
-35.3009
-2.50466
31.0059
64.9441
98.9459
132.63
165.624
197.49
227.814
256.168
282.15
305.419
325.646
342.537
355.858
365.424
371.092
372.757
370.094
363.472
352.929
338.569
320.654
299.413
275.122
248.136
218.821
187.584
154.828
120.958
86.4006
51.5591
16.8051
-17.5121
-51.0162
-82.4185
-113.404
-143.054
-171.167
-197.593
-222.226
-245
-265.877
-284.831
-301.869
-317.001
-330.261
-341.676
-351.269
-359.087
-365.178
-369.583
-372.34
-373.47
-373.028
-371.095
-367.693
-362.866
-356.652
-349.079
-340.16
-329.902
-318.298
-305.328
-290.96
-275.153
-257.868
-239.076
-218.75
-196.878
-173.464
-148.539
-122.161
-94.4133
-65.3985
-35.0656
-4.01925
27.7249
59.9231
92.2906
124.513
156.249
187.14
216.806
244.861
270.91
294.565
315.45
333.212
347.531
358.132
364.802
367.336
365.692
359.906
350.017
336.133
318.494
297.37
273.088
246.023
216.585
185.211
152.355
118.478
84.0371
49.4787
15.223
-18.3415
-50.8653
-82.0578
-111.673
-139.519
-165.46
-189.414
-211.34
-231.235
-249.132
-265.088
-279.175
-291.478
-302.085
-311.09
-318.582
-324.644
-329.352
-332.772
-334.963
-335.973
-335.82
-334.493
-332.06
-328.508
-323.825
-317.986
-310.959
-302.708
-293.194
-282.367
-270.184
-256.604
-241.581
-225.075
-207.053
-187.492
-166.373
-143.693
-119.473
-93.7588
-66.6301
-38.2007
-8.62927
22.004
53.273
85.0138
116.919
148.642
179.805
210.003
238.807
265.785
290.504
312.546
331.519
347.072
358.906
366.786
370.535
370.004
365.288
356.435
343.527
326.822
306.611
283.247
257.133
228.709
198.435
166.782
134.219
101.204
68.1635
35.4899
3.54699
-27.3969
-57.0842
-85.318
-111.955
-136.895
-160.078
-181.478
-201.096
-218.959
-235.106
-249.588
-262.46
-273.79
-283.642
-292.072
-299.14
-304.903
-309.408
-312.699
-314.829
-315.805
-315.649
-314.409
-312.067
-308.617
-304.04
-298.314
-291.399
-283.254
-273.841
-263.113
-251.02
-237.52
-222.573
-206.144
-188.204
-168.738
-147.75
-125.258
-101.302
-75.9402
-49.262
-21.3815
7.55622
37.3803
67.9513
98.8012
129.709
160.348
190.349
219.323
246.864
272.564
296.005
316.79
334.563
348.992
359.767
366.662
369.517
368.213
362.797
353.312
339.881
322.764
302.252
278.718
252.582
224.255
194.179
162.842
130.679
98.149
65.679
33.6391
2.55176
-26.6291
-54.9653
-82.0268
-107.587
-131.496
-153.677
-174.092
-192.741
-209.662
-224.912
-238.57
-250.731
-261.491
-270.951
-279.206
-286.341
-292.423
-297.502
-301.607
-304.741
-306.89
-308.005
-308.004
-306.843
-304.426
-300.636
-295.383
-288.557
-280.067
-269.829
-257.775
-243.858
-228.059
-210.369
-190.815
-169.461
-146.377
-121.669
-95.4959
-68.0004
-39.2851
-9.36828
23.5177
54.276
84.6965
114.702
144.009
172.317
199.345
224.76
248.267
269.578
288.432
304.626
317.965
328.29
335.503
339.554
340.446
338.114
332.535
323.719
311.874
297.181
-248.733
-267.204
-283.998
-299.106
-312.531
-324.32
-334.516
-343.165
-350.307
-355.978
-360.212
-363.029
-364.42
-364.434
-363.083
-360.322
-356.136
-350.505
-343.391
-334.751
-324.538
-312.705
-299.199
-283.964
-266.972
-248.184
-227.589
-205.178
-180.962
-155.002
-127.359
-98.128
-67.4875
-35.4917
-2.66838
30.8743
64.8501
98.8952
132.627
165.673
197.595
227.973
256.383
282.418
305.735
326.007
342.935
356.287
365.876
371.558
373.248
370.552
363.919
353.355
338.968
321.016
299.73
275.389
248.35
218.979
187.686
154.876
120.954
86.3485
51.4635
16.6713
-17.6781
-51.2025
-82.636
-113.637
-143.299
-171.419
-197.85
-222.484
-245.257
-266.13
-285.079
-302.11
-317.236
-330.49
-341.898
-351.484
-359.295
-365.381
-369.779
-372.528
-373.65
-373.208
-371.269
-367.862
-363.032
-356.815
-349.241
-340.324
-330.068
-318.468
-305.504
-291.143
-275.343
-258.065
-239.28
-218.959
-197.09
-173.677
-148.751
-122.367
-94.6117
-65.5911
-35.2277
-4.16605
27.6042
59.8338
92.2373
124.5
156.281
187.219
216.936
245.043
271.146
294.854
315.79
333.598
347.956
358.589
365.279
367.841
366.175
360.382
350.469
336.553
318.871
297.697
273.36
246.236
216.738
185.303
152.388
118.454
83.9607
49.3546
15.057
-18.5426
-51.095
-82.3094
-111.939
-139.793
-165.737
-189.689
-211.609
-231.495
-249.381
-265.324
-279.397
-291.686
-302.28
-311.273
-318.754
-324.806
-329.505
-332.918
-335.103
-336.109
-335.954
-334.626
-332.192
-328.642
-323.963
-318.128
-311.105
-302.861
-293.353
-282.534
-270.358
-256.785
-241.77
-225.271
-207.256
-187.701
-166.586
-143.908
-119.688
-93.9696
-66.833
-38.3902
-8.79657
21.8477
53.1489
84.9246
116.869
148.638
179.852
210.103
238.964
266
290.777
312.874
331.898
347.495
359.364
367.267
371.033
370.507
365.773
356.896
343.956
327.207
306.944
283.523
257.348
228.862
198.526
166.813
134.195
101.128
68.0431
35.3319
3.35819
-27.6097
-57.314
-85.5586
-112.202
-137.143
-160.323
-181.717
-201.328
-219.182
-235.319
-249.79
-262.652
-273.973
-283.815
-292.237
-299.297
-305.053
-309.552
-312.838
-314.964
-315.934
-315.78
-314.539
-312.197
-308.75
-304.178
-298.456
-291.546
-283.408
-274.002
-263.28
-251.195
-237.702
-222.762
-206.339
-188.403
-168.942
-147.956
-125.463
-101.505
-76.1371
-49.4499
-21.5564
7.39829
37.2434
67.8483
98.731
129.677
160.361
190.411
219.437
247.033
272.787
296.282
317.12
334.939
349.409
360.218
367.136
370.004
368.713
363.272
353.767
340.308
323.15
302.588
279
252.806
224.417
194.28
162.883
130.663
98.0806
65.5642
33.4846
2.37851
-26.8316
-55.1874
-82.2617
-107.83
-131.741
-153.919
-174.328
-192.968
-209.878
-225.115
-238.759
-250.905
-261.651
-271.099
-279.343
-286.468
-292.544
-297.619
-301.722
-304.859
-307.011
-308.133
-308.141
-306.995
-304.587
-300.809
-295.569
-288.756
-280.277
-270.05
-258.004
-244.094
-228.299
-210.611
-191.056
-169.697
-146.606
-121.887
-95.6991
-68.1865
-39.4517
-9.50787
23.4248
54.2188
84.671
114.712
144.059
172.409
199.479
224.936
248.484
269.833
288.72
304.944
318.308
328.653
335.88
339.938
340.843
338.487
332.898
324.068
312.201
297.48
-249.046
-267.507
-284.292
-299.388
-312.802
-324.582
-334.768
-343.408
-350.542
-356.207
-360.435
-363.249
-364.641
-364.658
-363.305
-360.547
-356.366
-350.742
-343.636
-335.006
-324.803
-312.982
-299.486
-284.262
-267.281
-248.501
-227.913
-205.507
-181.292
-155.328
-127.676
-98.4292
-67.7663
-35.7464
-2.88701
30.6984
64.7243
98.827
132.623
165.739
197.733
228.186
256.669
282.774
306.157
326.488
343.467
356.86
366.479
372.178
373.884
371.178
364.521
353.924
339.501
321.498
300.152
275.744
248.634
219.19
187.823
154.94
120.949
86.2786
51.3355
16.4927
-17.8995
-51.4511
-82.9271
-113.95
-143.627
-171.757
-198.193
-222.828
-245.599
-266.467
-285.41
-302.433
-317.55
-330.795
-342.193
-351.77
-359.573
-365.65
-370.039
-372.778
-373.893
-373.447
-371.5
-368.087
-363.253
-357.033
-349.458
-340.541
-330.289
-318.695
-305.738
-291.385
-275.594
-258.327
-239.551
-219.237
-197.371
-173.96
-149.032
-122.642
-94.8756
-65.849
-35.442
-4.36148
27.4436
59.7153
92.1667
124.483
156.323
187.325
217.11
245.288
271.462
295.24
316.243
334.113
348.525
359.2
365.917
368.501
366.834
361.022
351.073
337.114
319.375
298.134
273.723
246.521
216.942
185.426
152.432
118.423
83.8591
49.1893
14.8359
-18.8107
-51.401
-82.6447
-112.294
-140.159
-166.107
-190.056
-211.967
-231.841
-249.712
-265.638
-279.693
-291.964
-302.54
-311.517
-318.983
-325.021
-329.709
-333.112
-335.289
-336.288
-336.133
-334.801
-332.367
-328.82
-324.145
-318.315
-311.3
-303.065
-293.565
-282.754
-270.59
-257.027
-242.021
-225.531
-207.526
-187.978
-166.869
-144.194
-119.974
-94.2504
-67.103
-38.6428
-9.02208
21.6418
52.984
84.806
116.804
148.633
179.914
210.237
239.175
266.289
291.143
313.313
332.405
348.06
359.976
367.911
371.691
371.18
366.425
357.513
344.529
327.722
307.39
283.892
257.636
229.066
198.647
166.854
134.162
101.027
67.8827
35.1213
3.10641
-27.8934
-57.6203
-85.8794
-112.53
-137.473
-160.649
-182.036
-201.637
-219.478
-235.602
-250.059
-262.908
-274.216
-284.045
-292.456
-299.506
-305.252
-309.743
-313.023
-315.142
-316.106
-315.954
-314.711
-312.371
-308.927
-304.36
-298.644
-291.742
-283.613
-274.216
-263.504
-251.427
-237.945
-223.014
-206.599
-188.67
-169.213
-148.23
-125.737
-101.775
-76.3994
-49.7001
-21.7894
7.1877
37.0602
67.7118
98.6375
129.635
160.378
190.494
219.589
247.257
273.085
296.652
317.559
335.441
349.964
360.818
367.768
370.653
369.374
363.911
354.377
340.877
323.664
303.037
279.377
253.104
224.632
194.413
162.936
130.642
97.9889
65.4108
33.2785
2.14672
-27.1022
-55.4842
-82.5754
-108.153
-132.067
-154.242
-174.643
-193.27
-210.165
-225.385
-239.01
-251.137
-261.865
-271.296
-279.525
-286.638
-292.705
-297.775
-301.876
-305.015
-307.172
-308.302
-308.325
-307.196
-304.802
-301.04
-295.817
-289.021
-280.557
-270.344
-258.31
-244.409
-228.619
-210.933
-191.376
-170.012
-146.911
-122.176
-95.9704
-68.4354
-39.6753
-9.69982
23.306
54.1432
84.6368
114.725
144.124
172.53
199.658
225.172
248.773
270.172
289.105
305.367
318.766
329.138
336.383
340.451
341.364
338.992
333.384
324.533
312.637
297.88
-249.438
-267.887
-284.658
-299.741
-313.142
-324.908
-335.082
-343.712
-350.836
-356.492
-360.714
-363.522
-364.917
-364.935
-363.583
-360.828
-356.654
-351.038
-343.942
-335.325
-325.135
-313.327
-299.845
-284.635
-267.666
-248.897
-228.318
-205.917
-181.704
-155.736
-128.072
-98.8065
-68.1157
-36.0651
-3.16085
30.4778
64.5664
98.7412
132.618
165.821
197.906
228.452
257.027
283.219
306.684
327.09
344.132
357.576
367.233
372.955
374.667
371.964
365.277
354.639
340.167
322.102
300.68
276.189
248.99
219.454
187.993
155.019
120.941
86.1906
51.175
16.2689
-18.1764
-51.7624
-83.2921
-114.341
-144.037
-172.178
-198.621
-223.258
-246.027
-266.889
-285.823
-302.836
-317.943
-331.177
-342.563
-352.128
-359.92
-365.987
-370.364
-373.09
-374.198
-373.744
-371.789
-368.369
-363.529
-357.306
-349.728
-340.812
-330.565
-318.978
-306.031
-291.688
-275.909
-258.655
-239.889
-219.584
-197.724
-174.315
-149.384
-122.985
-95.2053
-66.1729
-35.7092
-4.60663
27.2424
59.5667
92.0782
124.462
156.376
187.458
217.327
245.593
271.856
295.723
316.81
334.757
349.236
359.965
366.717
369.319
367.661
361.823
351.831
337.816
320.006
298.682
274.178
246.878
217.197
185.58
152.487
118.383
83.7317
48.9819
14.5589
-19.1464
-51.7843
-83.0646
-112.739
-140.617
-166.57
-190.515
-212.415
-232.273
-250.126
-266.03
-280.063
-292.311
-302.865
-311.821
-319.268
-325.29
-329.963
-333.354
-335.521
-336.511
-336.35
-335.02
-332.586
-329.042
-324.372
-318.55
-311.544
-303.319
-293.83
-283.031
-270.879
-257.328
-242.334
-225.857
-207.863
-188.325
-167.222
-144.553
-120.332
-94.6016
-67.441
-38.9593
-9.30638
21.3852
52.7777
84.6573
116.722
148.627
179.991
210.405
239.438
266.649
291.6
313.863
333.039
348.768
360.742
368.718
372.517
372.016
367.243
358.286
345.246
328.366
307.948
284.353
257.995
229.32
198.798
166.906
134.12
100.9
67.6815
34.8573
2.79079
-28.2486
-58.0039
-86.2811
-112.941
-137.885
-161.057
-182.434
-202.023
-219.849
-235.956
-250.395
-263.228
-274.519
-284.333
-292.729
-299.767
-305.501
-309.982
-313.254
-315.364
-316.323
-316.171
-314.926
-312.588
-309.148
-304.588
-298.88
-291.987
-283.869
-274.484
-263.782
-251.718
-238.248
-223.329
-206.923
-189.003
-169.553
-148.572
-126.079
-102.112
-76.7278
-50.0133
-22.0813
6.92363
36.83
67.5416
98.5199
129.582
160.398
190.597
219.78
247.538
273.457
297.115
318.108
336.068
350.659
361.57
368.558
371.467
370.194
364.715
355.141
341.59
324.307
303.599
279.847
253.476
224.902
194.579
163.002
130.614
97.8736
65.2185
33.0208
1.85566
-27.4415
-55.8561
-82.968
-108.557
-132.476
-154.646
-175.037
-193.649
-210.525
-225.722
-239.324
-251.428
-262.133
-271.542
-279.752
-286.851
-292.907
-297.97
-302.069
-305.21
-307.373
-308.513
-308.555
-307.446
-305.07
-301.328
-296.127
-289.352
-280.908
-270.712
-258.693
-244.802
-229.02
-211.336
-191.778
-170.407
-147.293
-122.539
-96.31
-68.7471
-39.9567
-9.9465
23.1628
54.0495
84.5937
114.741
144.206
172.682
199.882
225.466
249.134
270.596
289.585
305.897
319.338
329.743
337.012
341.091
342.01
339.628
333.995
325.116
313.182
298.38
-249.908
-268.343
-285.098
-300.165
-313.55
-325.3
-335.46
-344.076
-351.189
-356.835
-361.048
-363.851
-365.246
-365.266
-363.915
-361.165
-356.999
-351.393
-344.31
-335.707
-325.532
-313.741
-300.276
-285.083
-268.129
-249.372
-228.804
-206.41
-182.2
-156.226
-128.549
-99.2602
-68.5364
-36.4479
-3.49035
30.2121
64.3758
98.6371
132.611
165.919
198.114
228.771
257.457
283.754
307.317
327.812
344.931
358.436
368.139
373.888
375.606
372.905
366.185
355.499
340.967
322.826
301.314
276.723
249.417
219.77
188.198
155.113
120.931
86.084
50.9815
15.9996
-18.5092
-52.1373
-83.7315
-114.811
-144.53
-172.685
-199.136
-223.775
-246.54
-267.395
-286.319
-303.321
-318.415
-331.635
-343.006
-352.557
-360.337
-366.392
-370.754
-373.465
-374.564
-374.102
-372.136
-368.707
-363.86
-357.632
-350.052
-341.138
-330.896
-319.317
-306.382
-292.052
-276.288
-259.048
-240.296
-220.001
-198.148
-174.741
-149.806
-123.398
-95.6007
-66.5606
-36.0326
-4.90259
27
59.3876
91.9712
124.435
156.439
187.617
217.588
245.959
272.33
296.303
317.492
335.531
350.091
360.884
367.679
370.303
368.653
362.786
352.743
338.659
320.764
299.339
274.725
247.305
217.503
185.764
152.552
118.334
83.5775
48.7319
14.2252
-19.5506
-52.2458
-83.5697
-113.273
-141.168
-167.126
-191.066
-212.953
-232.793
-250.622
-266.501
-280.507
-292.727
-303.255
-312.186
-319.61
-325.612
-330.268
-333.645
-335.799
-336.779
-336.609
-335.281
-332.849
-329.308
-324.645
-318.831
-311.837
-303.625
-294.148
-283.363
-271.226
-257.69
-242.711
-226.248
-208.268
-188.741
-167.648
-144.983
-120.762
-95.0239
-67.8475
-39.3404
-9.65092
21.0782
52.5294
84.4779
116.623
148.618
180.083
210.605
239.753
267.081
292.148
314.522
333.8
349.618
361.662
369.687
373.511
373.019
368.225
359.217
346.108
329.139
308.617
284.907
258.426
229.625
198.979
166.967
134.068
100.747
67.4387
34.5392
2.41059
-28.6762
-58.4652
-86.7642
-113.435
-138.381
-161.547
-182.913
-202.487
-220.294
-236.381
-250.8
-263.612
-274.884
-284.679
-293.057
-300.079
-305.801
-310.269
-313.531
-315.631
-316.585
-316.43
-315.185
-312.849
-309.414
-304.862
-299.163
-292.281
-284.176
-274.805
-264.117
-252.068
-238.612
-223.706
-207.313
-189.403
-169.961
-148.984
-126.491
-102.518
-77.1224
-50.39
-22.4324
6.60581
36.5515
67.3373
98.3774
129.516
160.422
190.72
220.007
247.874
273.903
297.671
318.768
336.821
351.494
362.472
369.509
372.445
371.178
365.681
356.061
342.446
325.08
304.274
280.413
253.923
225.225
194.778
163.081
130.579
97.7342
64.9868
32.7112
1.50437
-27.8505
-56.3035
-83.44
-109.043
-132.967
-155.131
-175.51
-194.104
-210.956
-226.127
-239.702
-251.776
-262.454
-271.837
-280.025
-287.105
-293.148
-298.203
-302.299
-305.444
-307.615
-308.767
-308.831
-307.745
-305.391
-301.674
-296.499
-289.749
-281.33
-271.154
-259.152
-245.275
-229.501
-211.82
-192.259
-170.881
-147.752
-122.976
-96.7182
-69.122
-40.2962
-10.2486
22.9956
53.9372
84.5413
114.759
144.304
172.864
200.15
225.819
249.568
271.106
290.162
306.534
320.025
330.471
337.767
341.86
342.783
340.392
334.73
325.817
313.837
298.98
-250.457
-268.876
-285.612
-300.66
-314.025
-325.757
-335.9
-344.5
-351.6
-357.235
-361.439
-364.234
-365.63
-365.651
-364.302
-361.559
-357.403
-351.808
-344.739
-336.152
-325.996
-314.225
-300.779
-285.605
-268.668
-249.927
-229.372
-206.985
-182.778
-156.798
-129.106
-99.7911
-69.029
-36.8954
-3.87602
29.9007
64.1519
98.5142
132.601
166.032
198.355
229.143
257.957
284.378
308.056
328.655
345.864
359.441
369.196
374.977
376.708
374.001
367.246
356.504
341.902
323.672
302.054
277.345
249.914
220.138
188.435
155.222
120.918
85.9584
50.7544
15.6842
-18.8984
-52.5767
-84.2458
-115.36
-145.105
-173.277
-199.738
-224.378
-247.14
-267.987
-286.898
-303.886
-318.965
-332.169
-343.524
-353.058
-360.823
-366.863
-371.209
-373.904
-374.99
-374.518
-372.541
-369.101
-364.246
-358.013
-350.43
-341.518
-331.281
-319.713
-306.791
-292.476
-276.729
-259.507
-240.77
-220.487
-198.643
-175.239
-150.3
-123.881
-96.0618
-66.9765
-36.4489
-5.25066
26.716
59.1774
91.8451
124.403
156.51
187.801
217.891
246.386
272.882
296.979
318.287
336.436
351.089
361.958
368.805
371.454
369.81
363.91
353.808
339.645
321.648
300.106
275.362
247.804
217.859
185.977
152.626
118.276
83.396
48.4386
13.834
-20.0239
-52.7862
-84.1609
-113.899
-141.813
-167.776
-191.71
-213.583
-233.4
-251.203
-267.051
-281.025
-293.213
-303.71
-312.612
-320.01
-325.988
-330.623
-333.983
-336.123
-337.092
-336.927
-335.586
-333.155
-329.62
-324.963
-319.159
-312.178
-303.981
-294.519
-283.75
-271.631
-258.112
-243.15
-226.705
-208.74
-189.227
-168.144
-145.486
-121.264
-95.5178
-68.3231
-39.7868
-10.0564
20.7204
52.2385
84.267
116.505
148.606
180.189
210.838
240.119
267.585
292.788
315.292
334.689
350.611
362.738
370.821
374.675
374.189
369.372
360.305
347.115
330.043
309.399
285.553
258.928
229.981
199.189
167.036
134.007
100.566
67.1535
34.1662
1.96511
-29.1768
-59.0051
-87.3293
-114.013
-138.961
-162.12
-183.473
-203.028
-220.814
-236.877
-251.272
-264.06
-275.309
-285.082
-293.44
-300.445
-306.15
-310.603
-313.854
-315.942
-316.89
-316.732
-315.486
-313.153
-309.724
-305.181
-299.492
-292.625
-284.535
-275.179
-264.508
-252.476
-239.037
-224.147
-207.769
-189.87
-170.437
-149.465
-126.971
-102.993
-77.5839
-50.8307
-22.8432
6.23388
36.2235
67.0984
98.2093
129.439
160.448
190.861
220.272
248.266
274.423
298.319
319.538
337.701
352.469
363.526
370.619
373.588
372.327
366.808
357.137
343.447
325.982
305.062
281.073
254.445
225.602
195.01
163.171
130.537
97.5702
64.7152
32.3495
1.09176
-28.3298
-56.8268
-83.9918
-109.611
-133.539
-155.699
-176.063
-194.635
-211.46
-226.601
-240.142
-252.183
-262.827
-272.181
-280.343
-287.401
-293.428
-298.474
-302.568
-305.716
-307.897
-309.064
-309.152
-308.093
-305.765
-302.078
-296.933
-290.213
-281.821
-271.671
-259.688
-245.828
-230.063
-212.385
-192.822
-171.434
-148.289
-123.486
-97.1951
-69.5603
-40.6941
-10.6063
22.8039
53.8062
84.479
114.778
144.417
173.076
200.463
226.232
250.075
271.701
290.836
307.277
320.828
331.32
338.648
342.759
343.686
341.284
335.589
326.636
314.602
299.681
-251.084
-269.484
-286.2
-301.225
-314.569
-326.28
-336.403
-344.986
-352.07
-357.692
-361.885
-364.673
-366.067
-366.09
-364.744
-362.009
-357.863
-352.281
-345.229
-336.661
-326.526
-314.777
-301.355
-286.202
-269.285
-250.562
-230.021
-207.644
-183.44
-157.454
-129.745
-100.4
-69.594
-37.4081
-4.31851
29.5429
63.894
98.3718
132.588
166.16
198.63
229.567
258.53
285.092
308.901
329.62
346.932
360.591
370.407
376.223
377.969
375.254
368.461
357.655
342.971
324.64
302.901
278.057
250.483
220.559
188.706
155.345
120.902
85.8132
50.4931
15.322
-19.3446
-53.0818
-84.8353
-115.99
-145.764
-173.955
-200.426
-225.069
-247.826
-268.663
-287.561
-304.533
-319.595
-332.78
-344.115
-353.63
-361.379
-367.402
-371.73
-374.407
-375.478
-374.994
-373.002
-369.552
-364.687
-358.447
-350.862
-341.952
-331.722
-320.166
-307.258
-292.961
-277.235
-260.032
-241.312
-221.044
-199.209
-175.809
-150.866
-124.433
-96.5894
-67.4513
-36.9285
-5.65084
26.3897
58.9354
91.6995
124.365
156.591
188.01
218.236
246.872
273.513
297.752
319.196
337.47
352.232
363.188
370.094
372.774
371.133
365.197
355.029
340.773
322.661
300.984
276.09
248.374
218.266
186.221
152.71
118.208
83.1865
48.1012
13.3844
-20.5671
-53.4064
-84.8389
-114.615
-142.551
-168.521
-192.448
-214.303
-234.096
-251.867
-267.681
-281.617
-293.769
-304.231
-313.099
-320.467
-326.417
-331.03
-334.37
-336.493
-337.45
-337.28
-335.935
-333.504
-329.975
-325.327
-319.535
-312.569
-304.387
-294.943
-284.194
-272.094
-258.595
-243.653
-227.228
-209.281
-189.783
-168.713
-146.062
-121.84
-96.0837
-68.8683
-40.2991
-10.5221
20.3097
51.9042
84.0241
116.369
148.591
180.308
211.102
240.537
268.16
293.519
316.173
335.707
351.747
363.97
372.119
376.009
375.529
370.683
361.55
348.268
331.077
310.294
286.292
259.502
230.386
199.427
167.114
133.935
100.357
66.8251
33.7376
1.45348
-29.7513
-59.6243
-87.977
-114.675
-139.625
-162.776
-184.114
-203.647
-221.409
-237.445
-251.811
-264.572
-275.795
-285.543
-293.878
-300.862
-306.548
-310.986
-314.223
-316.298
-317.239
-317.077
-315.83
-313.5
-310.078
-305.545
-299.87
-293.017
-284.945
-275.607
-264.955
-252.943
-239.523
-224.652
-208.29
-190.406
-170.983
-150.016
-127.522
-103.536
-78.1128
-51.3359
-23.3141
5.80733
35.8448
66.8251
98.0147
129.348
160.477
191.021
220.574
248.713
275.017
299.059
320.419
338.708
353.584
364.733
371.891
374.896
373.643
368.098
358.369
344.593
327.015
305.964
281.828
255.041
226.032
195.274
163.274
130.487
97.3808
64.4031
31.9352
0.616588
-28.8805
-57.4267
-84.624
-110.262
-134.195
-156.348
-176.695
-195.243
-212.037
-227.141
-240.645
-252.647
-263.255
-272.574
-280.706
-287.74
-293.748
-298.783
-302.874
-306.027
-308.218
-309.404
-309.519
-308.489
-306.193
-302.54
-297.43
-290.744
-282.384
-272.262
-260.302
-246.46
-230.706
-213.032
-193.467
-172.067
-148.903
-124.07
-97.741
-70.062
-41.1508
-11.0203
22.5878
53.6558
84.406
114.799
144.545
173.318
200.821
226.703
250.654
272.381
291.607
308.127
321.746
332.291
339.656
343.787
344.719
342.303
336.574
327.572
315.476
300.482
-251.79
-270.169
-286.861
-301.862
-315.18
-326.868
-336.968
-345.531
-352.598
-358.206
-362.387
-365.166
-366.559
-366.584
-365.242
-362.514
-358.38
-352.813
-345.78
-337.233
-327.122
-315.399
-302.002
-286.873
-269.979
-251.276
-230.753
-208.386
-184.185
-158.192
-130.465
-101.087
-70.2323
-37.9869
-4.8185
29.1379
63.6013
98.2091
132.571
166.302
198.938
230.043
259.173
285.894
309.852
330.707
348.134
361.887
371.77
377.627
379.384
376.665
369.829
358.953
344.175
325.73
303.854
278.859
251.122
221.031
189.009
155.482
120.881
85.6477
50.197
14.9123
-19.8484
-53.6537
-85.5007
-116.699
-146.507
-174.719
-201.202
-225.847
-248.599
-269.424
-288.307
-305.26
-320.303
-333.468
-344.78
-354.275
-362.005
-368.008
-372.316
-374.974
-376.027
-375.529
-373.522
-370.058
-365.184
-358.936
-351.348
-342.44
-332.218
-320.674
-307.783
-293.508
-277.803
-260.623
-241.923
-221.671
-199.848
-176.452
-151.505
-125.057
-97.185
-67.9954
-37.4623
-6.10303
26.0207
58.6612
91.5334
124.32
156.68
188.243
218.623
247.419
274.222
298.622
320.219
338.635
353.52
364.574
371.548
374.263
372.623
366.647
356.404
342.045
323.801
301.972
276.91
249.014
218.722
186.493
152.802
118.129
82.9482
47.719
12.8752
-21.1812
-54.1075
-85.6049
-115.425
-143.385
-169.361
-193.279
-215.115
-234.879
-252.615
-268.389
-282.285
-294.395
-304.816
-313.647
-320.98
-326.9
-331.487
-334.805
-336.91
-337.852
-337.67
-336.325
-333.897
-330.374
-325.737
-319.958
-313.008
-304.845
-295.421
-284.693
-272.615
-259.139
-244.22
-227.817
-209.89
-190.41
-169.354
-146.711
-122.489
-96.7224
-69.4839
-40.8778
-11.0486
19.8453
51.5257
83.7482
116.213
148.571
180.44
211.398
241.006
268.807
294.342
317.164
336.853
353.028
365.358
373.583
377.513
377.04
372.161
362.955
349.568
332.243
311.301
287.124
260.148
230.841
199.694
167.2
133.851
100.12
66.4522
33.2523
0.87478
-30.4003
-60.3236
-88.7082
-115.421
-140.373
-163.516
-184.835
-204.345
-222.078
-238.084
-252.419