/*--------------------------------*- C++ -*----------------------------------*\
| =========                 |                                                 |
| \\      /  F ield         | OpenFOAM: The Open Source CFD Toolbox           |
|  \\    /   O peration     | Version:  3.0.1                                 |
|   \\  /    A nd           | Web:      www.OpenFOAM.org                      |
|    \\/     M anipulation  |                                                 |
\*---------------------------------------------------------------------------*/
FoamFile
{
    version     2.0;
    format      ascii;
    class       volScalarField;
    location    "24.2";
    object      p_rgh;
}
// * * * * * * * * * * * * * * * * * * * * * * * * * * * * * * * * * * * * * //

dimensions      [1 -1 -2 0 0 0 0];

internalField   nonuniform List<scalar> 
21420
(
-47.5722
-74.8331
-102.417
-129.24
-154.789
-178.838
-201.222
-221.876
-240.749
-257.834
-273.156
-286.742
-298.634
-308.881
-317.529
-324.626
-330.212
-334.329
-337.014
-338.241
-338.019
-336.359
-333.31
-328.824
-322.866
-315.418
-306.435
-295.867
-283.666
-269.779
-254.153
-236.749
-217.525
-196.47
-173.578
-148.855
-122.368
-94.2057
-64.4699
-33.3004
-0.953118
31.4718
65.1323
99.1823
133.279
167.007
199.961
231.764
262.001
290.262
316.191
339.431
359.668
376.626
390.06
399.785
405.658
407.548
405.488
399.428
389.477
375.714
358.318
337.532
313.628
286.913
257.778
226.605
193.805
159.819
125.062
89.9554
54.9082
20.054
-14.9878
-48.5505
-80.6732
-111.249
-140.124
-167.183
-192.339
-215.52
-236.688
-255.831
-272.957
-288.084
-301.233
-312.455
-321.816
-329.361
-335.158
-339.313
-341.903
-342.963
-342.482
-340.648
-337.491
-333.036
-327.298
-320.271
-311.939
-302.285
-291.259
-278.809
-264.905
-249.491
-232.52
-213.965
-193.799
-172.016
-148.63
-123.673
-97.2074
-69.3215
-40.1377
-9.80748
21.5331
53.5557
86.047
118.716
151.229
183.223
214.315
244.097
272.156
298.073
321.439
341.871
359.015
372.563
382.262
387.921
389.363
386.655
379.728
368.711
353.736
335.042
312.913
287.679
259.72
229.448
197.31
163.77
129.298
94.3593
59.4089
24.866
-8.89106
-41.5547
-72.857
-102.6
-130.639
-156.881
-181.273
-203.796
-224.468
-243.321
-260.397
-275.751
-289.432
-301.5
-312.019
-321.035
-328.595
-334.75
-339.537
-342.987
-345.138
-345.987
-345.489
-343.725
-340.639
-336.198
-330.373
-323.111
-314.37
-304.098
-292.229
-278.717
-263.506
-246.556
-227.848
-207.37
-185.136
-161.186
-135.58
-108.418
-79.8264
-49.9652
-19.0281
12.7692
45.0983
77.6869
110.213
142.328
173.665
203.851
232.508
259.26
283.747
305.624
324.567
340.29
352.551
361.143
365.916
366.728
363.635
356.582
345.694
331.077
312.941
291.532
267.152
240.144
210.885
179.77
147.215
113.643
79.4638
45.0769
10.8576
-22.8468
-55.7026
-87.4605
-117.885
-146.792
-174.035
-199.514
-223.164
-244.945
-264.842
-282.864
-299.035
-313.384
-325.952
-336.791
-345.947
-353.473
-359.425
-363.857
-366.831
-368.373
-368.492
-367.274
-364.716
-360.829
-355.612
-349.06
-341.167
-331.91
-321.263
-309.199
-295.691
-280.71
-264.221
-246.204
-226.647
-205.547
-182.916
-158.791
-133.23
-106.31
-78.1093
-48.608
-18.4063
12.3962
43.5586
74.7997
105.793
136.217
165.686
193.831
220.27
244.648
266.603
285.826
302.006
314.882
324.212
329.789
331.58
329.702
324.424
315.365
302.692
286.762
267.685
245.727
221.15
194.272
165.47
135.055
103.417
70.95
37.9729
4.80412
-28.2198
-60.8419
-91.866
-120.563
-149.049
-176.587
-202.81
-227.448
-250.318
-271.303
-290.313
-307.304
-322.252
-335.165
-346.075
-355.031
-362.096
-367.357
-370.877
-372.726
-372.912
-371.632
-368.903
-364.796
-359.359
-352.628
-344.635
-335.384
-324.888
-313.156
-300.174
-285.927
-270.404
-253.581
-235.441
-215.977
-195.192
-173.084
-149.69
-125.081
-99.3584
-72.4743
-44.617
-15.9613
13.2788
42.8892
72.596
102.12
131.181
159.425
186.488
212.028
235.658
257.017
275.741
291.493
303.961
312.853
317.896
-47.6353
-74.9043
-102.493
-129.321
-154.871
-178.921
-201.305
-221.957
-240.828
-257.91
-273.23
-286.813
-298.702
-308.946
-317.592
-324.686
-330.271
-334.386
-337.069
-338.296
-338.075
-336.417
-333.367
-328.881
-322.926
-315.48
-306.499
-295.934
-283.735
-269.851
-254.229
-236.827
-217.605
-196.552
-173.661
-148.938
-122.449
-94.2847
-64.5453
-33.3711
-1.01706
31.4251
65.0946
99.1565
133.267
167.01
199.981
231.802
262.057
290.335
316.281
339.537
359.788
376.757
390.201
399.934
405.813
407.711
405.641
399.577
389.622
375.85
358.442
337.642
313.722
286.989
257.836
226.644
193.825
159.821
125.047
89.9253
54.8645
19.9967
-15.0545
-48.6246
-80.7534
-111.333
-140.212
-167.273
-192.43
-215.611
-236.779
-255.92
-273.044
-288.169
-301.316
-312.536
-321.894
-329.437
-335.232
-339.384
-341.97
-343.023
-342.544
-340.708
-337.55
-333.095
-327.357
-320.331
-312.001
-302.349
-291.325
-278.878
-264.976
-249.564
-232.596
-214.043
-193.879
-172.097
-148.711
-123.753
-97.2857
-69.3967
-40.2081
-9.87145
21.4751
53.5075
86.01
118.692
151.219
183.23
214.338
244.139
272.216
298.152
321.537
341.985
359.145
372.705
382.413
388.079
389.53
386.809
379.881
368.856
353.87
335.162
313.016
287.764
259.785
229.493
197.335
163.776
129.284
94.328
59.3619
24.8056
-8.96221
-41.6342
-72.9423
-102.688
-130.73
-156.972
-181.362
-203.884
-224.553
-243.403
-260.475
-275.826
-289.504
-301.57
-312.086
-321.099
-328.658
-334.81
-339.596
-343.045
-345.196
-346.042
-345.547
-343.783
-340.698
-336.259
-330.436
-323.176
-314.438
-304.169
-292.302
-278.793
-263.584
-246.637
-227.931
-207.454
-185.22
-161.269
-135.661
-108.496
-79.8996
-50.0323
-19.0873
12.7188
45.0589
77.6598
110.199
142.329
173.682
203.885
232.558
259.327
283.83
305.723
324.68
340.416
352.687
361.287
366.065
366.884
363.78
356.726
345.831
331.205
313.056
291.632
267.236
240.21
210.932
179.799
147.226
113.637
79.4416
45.0402
10.808
-22.9076
-55.7723
-87.5375
-117.967
-146.878
-174.123
-199.603
-223.253
-245.033
-264.928
-282.948
-299.117
-313.464
-326.029
-336.865
-346.019
-353.542
-359.491
-363.921
-366.894
-368.432
-368.552
-367.333
-364.774
-360.888
-355.671
-349.12
-341.227
-331.972
-321.326
-309.265
-295.759
-280.779
-264.292
-246.278
-226.721
-205.622
-182.991
-158.866
-133.303
-106.38
-78.1757
-48.6648
-18.4558
12.3561
43.5292
74.7831
105.792
136.231
165.716
193.878
220.334
244.729
266.7
285.938
302.131
315.019
324.359
329.955
331.761
329.858
324.557
315.503
302.829
286.889
267.799
245.826
221.232
194.337
165.517
135.085
103.431
70.9477
37.9554
4.77405
-28.2604
-60.8897
-91.9189
-120.63
-149.12
-176.664
-202.891
-227.532
-250.404
-271.39
-290.4
-307.39
-322.336
-335.247
-346.154
-355.106
-362.167
-367.425
-370.941
-372.786
-372.972
-371.688
-368.957
-364.849
-359.411
-352.679
-344.686
-335.435
-324.94
-313.208
-300.227
-285.981
-270.46
-253.639
-235.5
-216.038
-195.254
-173.146
-149.751
-125.138
-99.4186
-72.529
-44.6658
-16.0035
13.2446
42.8641
72.5816
102.118
131.192
159.451
186.53
212.086
235.733
257.11
275.85
291.617
304.097
313
318.049
-47.7614
-75.0467
-102.647
-129.481
-155.036
-179.087
-201.469
-222.119
-240.986
-258.063
-273.378
-286.955
-298.838
-309.077
-317.717
-324.807
-330.388
-334.5
-337.178
-338.406
-338.188
-336.532
-333.481
-328.997
-323.044
-315.602
-306.626
-296.067
-283.874
-269.996
-254.379
-236.982
-217.765
-196.715
-173.826
-149.103
-122.612
-94.4423
-64.6953
-33.5116
-1.14365
31.3319
65.02
99.1055
133.245
167.019
200.023
231.879
262.169
290.482
316.461
339.748
360.027
377.021
390.485
400.233
406.123
408.039
405.944
399.879
389.911
376.122
358.691
337.863
313.91
287.143
257.953
226.723
193.867
159.828
125.02
89.8671
54.7796
19.8848
-15.1843
-48.7686
-80.909
-111.498
-140.382
-167.446
-192.604
-215.785
-236.95
-256.088
-273.208
-288.329
-301.471
-312.686
-322.037
-329.575
-335.366
-339.511
-342.088
-343.129
-342.654
-340.814
-337.654
-333.197
-327.46
-320.437
-312.11
-302.461
-291.442
-279.001
-265.105
-249.698
-232.735
-214.186
-194.025
-172.245
-148.859
-123.9
-97.4286
-69.5335
-40.3357
-9.98646
21.3721
53.4237
85.9486
118.656
151.212
183.254
214.396
244.233
272.348
298.321
321.742
342.225
359.414
373
382.726
388.404
389.872
387.128
380.198
369.155
354.147
335.411
313.232
287.944
259.926
229.594
197.395
163.796
129.266
94.2753
59.2779
24.695
-9.09428
-41.7828
-73.1025
-102.856
-130.9
-157.142
-181.53
-204.048
-224.711
-243.555
-260.621
-275.965
-289.638
-301.698
-312.208
-321.216
-328.771
-334.92
-339.703
-343.149
-345.299
-346.142
-345.65
-343.888
-340.805
-336.369
-330.551
-323.296
-314.563
-304.3
-292.439
-278.935
-263.732
-246.788
-228.086
-207.611
-185.377
-161.424
-135.813
-108.641
-80.0361
-50.1568
-19.1965
12.6272
44.9892
77.6147
110.181
142.341
173.725
203.961
232.668
259.47
284.006
305.929
324.915
340.676
352.968
361.583
366.37
367.206
364.079
357.023
346.115
331.469
313.294
291.841
267.411
240.351
211.036
179.866
147.257
113.634
79.4067
44.9763
10.7185
-23.019
-55.9017
-87.6811
-118.121
-147.039
-174.289
-199.77
-223.419
-245.197
-265.089
-283.105
-299.269
-313.611
-326.171
-337.001
-346.15
-353.668
-359.612
-364.039
-367.009
-368.538
-368.66
-367.44
-364.88
-360.994
-355.778
-349.229
-341.338
-332.086
-321.444
-309.386
-295.884
-280.908
-264.425
-246.414
-226.861
-205.763
-183.132
-159.006
-133.439
-106.512
-78.2999
-48.77
-18.5471
12.2836
43.4778
74.7571
105.795
136.265
165.783
193.977
220.467
244.895
266.899
286.166
302.386
315.296
324.657
330.281
332.107
330.18
324.837
315.782
303.106
287.145
268.027
246.024
221.397
194.467
165.611
135.145
103.457
70.9431
37.9206
4.71486
-28.3416
-60.9849
-92.0252
-120.763
-149.264
-176.819
-203.054
-227.701
-250.577
-271.564
-290.573
-307.561
-322.504
-335.409
-346.31
-355.256
-362.311
-367.561
-371.07
-372.906
-373.09
-371.801
-369.066
-364.954
-359.515
-352.781
-344.787
-335.536
-325.042
-313.312
-300.334
-286.091
-270.573
-253.754
-235.619
-216.159
-195.376
-173.269
-149.872
-125.252
-99.539
-72.6384
-44.7633
-16.0876
13.1762
42.8142
72.5529
102.113
131.215
159.503
186.615
212.204
235.885
257.295
276.068
291.864
304.371
313.295
318.356
-47.9508
-75.2604
-102.877
-129.722
-155.283
-179.336
-201.717
-222.362
-241.223
-258.293
-273.599
-287.168
-299.042
-309.273
-317.906
-324.989
-330.564
-334.671
-337.343
-338.569
-338.359
-336.705
-333.651
-329.17
-323.222
-315.787
-306.817
-296.266
-284.083
-270.213
-254.604
-237.215
-218.004
-196.96
-174.074
-149.35
-122.855
-94.6788
-64.9205
-33.7225
-1.33343
31.1912
64.9077
99.0288
133.21
167.032
200.086
231.994
262.338
290.703
316.731
340.065
360.386
377.416
390.912
400.682
406.588
408.525
406.406
400.333
390.346
376.531
359.064
338.194
314.193
287.373
258.129
226.842
193.93
159.837
124.979
89.7798
54.652
19.7167
-15.3789
-48.9847
-81.1425
-111.744
-140.637
-167.706
-192.865
-216.044
-237.206
-256.339
-273.453
-288.567
-301.702
-312.909
-322.251
-329.781
-335.565
-339.701
-342.264
-343.295
-342.817
-340.972
-337.808
-333.349
-327.614
-320.594
-312.271
-302.629
-291.617
-279.183
-265.296
-249.897
-232.941
-214.398
-194.242
-172.465
-149.08
-124.119
-97.6421
-69.7378
-40.5263
-10.1583
21.2188
53.2991
85.8573
118.602
151.201
183.291
214.485
244.376
272.547
298.576
322.052
342.585
359.82
373.443
383.198
388.893
390.382
387.613
380.675
369.607
354.565
335.787
313.558
288.214
260.138
229.746
197.486
163.828
129.241
94.1972
59.153
24.53
-9.29145
-42.0048
-73.3419
-103.105
-131.154
-157.396
-181.78
-204.292
-224.948
-243.782
-260.839
-276.173
-289.837
-301.888
-312.39
-321.39
-328.939
-335.083
-339.861
-343.305
-345.454
-346.295
-345.804
-344.044
-340.965
-336.534
-330.722
-323.474
-314.749
-304.495
-292.643
-279.147
-263.951
-247.015
-228.318
-207.846
-185.612
-161.657
-136.04
-108.859
-80.2402
-50.3428
-19.3596
12.4908
44.8855
77.5479
110.155
142.359
173.791
204.076
232.833
259.686
284.27
306.24
325.269
341.068
353.39
362.028
366.83
367.685
364.534
357.473
346.542
331.866
313.653
292.155
267.677
240.563
211.193
179.968
147.306
113.631
79.3557
44.8818
10.5855
-23.1849
-56.0944
-87.8953
-118.351
-147.28
-174.536
-200.02
-223.668
-245.442
-265.329
-283.339
-299.495
-313.83
-326.382
-337.204
-346.345
-353.855
-359.793
-364.214
-367.179
-368.697
-368.821
-367.598
-365.037
-361.152
-355.937
-349.391
-341.504
-332.255
-321.618
-309.566
-296.071
-281.101
-264.624
-246.618
-227.069
-205.973
-183.344
-159.215
-133.644
-106.709
-78.4858
-48.927
-18.6832
12.1753
43.4012
74.7188
105.8
136.316
165.883
194.127
220.668
245.145
267.197
286.509
302.768
315.713
325.103
330.759
332.606
330.67
325.275
316.207
303.521
287.528
268.37
246.321
221.644
194.662
165.753
135.235
103.497
70.936
37.8682
4.62194
-28.4641
-61.1274
-92.1857
-120.962
-149.479
-177.05
-203.299
-227.955
-250.836
-271.825
-290.833
-307.818
-322.755
-335.653
-346.546
-355.482
-362.526
-367.764
-371.262
-373.089
-373.268
-371.971
-369.23
-365.113
-359.67
-352.933
-344.939
-335.689
-325.195
-313.469
-300.494
-286.255
-270.741
-253.928
-235.797
-216.341
-195.561
-173.454
-150.054
-125.423
-99.7197
-72.8024
-44.9098
-16.2141
13.0734
42.739
72.5097
102.106
131.249
159.582
186.741
212.38
236.112
257.573
276.395
292.236
304.783
313.737
318.816
-48.2035
-75.5456
-103.184
-130.044
-155.612
-179.668
-202.046
-222.686
-241.539
-258.599
-273.894
-287.451
-299.314
-309.534
-318.157
-325.232
-330.799
-334.898
-337.562
-338.785
-338.588
-336.933
-333.877
-329.4
-323.46
-316.032
-307.072
-296.532
-284.361
-270.503
-254.904
-237.526
-218.324
-197.286
-174.404
-149.681
-123.181
-94.9944
-65.2209
-34.004
-1.58675
31.0027
64.7574
98.9261
133.164
167.048
200.17
232.148
262.562
290.997
317.092
340.489
360.865
377.944
391.48
401.281
407.208
409.157
407.033
400.944
390.927
377.076
359.562
338.635
314.57
287.68
258.363
227.001
194.014
159.849
124.923
89.6629
54.4814
19.4916
-15.6385
-49.273
-81.4541
-112.073
-140.977
-168.052
-193.213
-216.391
-237.548
-256.675
-273.78
-288.884
-302.01
-313.206
-322.536
-330.056
-335.829
-339.951
-342.499
-343.523
-343.035
-341.182
-338.014
-333.552
-327.819
-320.804
-312.487
-302.852
-291.85
-279.427
-265.551
-250.162
-233.216
-214.682
-194.532
-172.759
-149.374
-124.41
-97.927
-70.0105
-40.7809
-10.3885
21.0146
53.1328
85.7354
118.531
151.187
183.34
214.603
244.567
272.812
298.916
322.465
343.066
360.361
374.035
383.827
389.545
391.051
388.27
381.314
370.21
355.123
336.287
313.992
288.575
260.421
229.948
197.607
163.869
129.207
94.0927
58.9861
24.3096
-9.55481
-42.3012
-73.6613
-103.438
-131.494
-157.735
-182.115
-204.618
-225.263
-244.085
-261.129
-276.45
-290.102
-302.142
-312.633
-321.623
-329.163
-335.3
-340.072
-343.512
-345.66
-346.498
-346.009
-344.252
-341.178
-336.754
-330.95
-323.712
-314.998
-304.756
-292.915
-279.43
-264.245
-247.318
-228.627
-208.159
-185.925
-161.967
-136.344
-109.15
-80.5125
-50.5913
-19.5778
12.3091
44.7472
77.4587
110.12
142.383
173.878
204.229
233.054
259.973
284.623
306.655
325.741
341.59
353.954
362.623
367.443
368.311
365.152
358.075
347.113
332.396
314.131
292.575
268.031
240.846
211.403
180.104
147.37
113.627
79.2874
44.7555
10.408
-23.4063
-56.3518
-88.1812
-118.658
-147.601
-174.865
-200.352
-223.999
-245.769
-265.65
-283.65
-299.797
-314.122
-326.663
-337.474
-346.605
-354.106
-360.034
-364.447
-367.403
-368.912
-369.036
-367.809
-365.247
-361.363
-356.15
-349.606
-341.724
-332.481
-321.851
-309.807
-296.32
-281.358
-264.889
-246.89
-227.346
-206.254
-183.625
-159.494
-133.916
-106.973
-78.7343
-49.1363
-18.8649
12.0305
43.2988
74.6681
105.808
136.385
166.016
194.327
220.936
245.479
267.596
286.968
303.28
316.27
325.698
331.39
333.261
331.317
325.878
316.781
304.076
288.04
268.828
246.717
221.973
194.922
165.941
135.355
103.55
70.9263
37.798
4.49934
-28.6283
-61.3166
-92.4015
-121.227
-149.766
-177.359
-203.625
-228.293
-251.182
-272.174
-291.18
-308.16
-323.09
-335.979
-346.859
-355.782
-362.812
-368.035
-371.517
-373.335
-373.505
-372.197
-369.448
-365.324
-359.877
-353.137
-345.14
-335.891
-325.4
-313.677
-300.707
-286.473
-270.966
-254.159
-236.034
-216.583
-195.807
-173.701
-150.297
-125.653
-99.9599
-73.0211
-45.1053
-16.383
12.936
42.6385
72.4518
102.097
131.293
159.686
186.909
212.615
236.415
257.943
276.83
292.732
305.331
314.327
319.431
-48.5198
-75.9025
-103.568
-130.447
-156.025
-180.083
-202.459
-223.092
-241.935
-258.982
-274.263
-287.806
-299.655
-309.861
-318.472
-325.535
-331.092
-335.183
-337.838
-339.059
-338.869
-337.215
-334.16
-329.688
-323.756
-316.339
-307.391
-296.865
-284.708
-270.865
-255.28
-237.915
-218.724
-197.694
-174.817
-150.094
-123.588
-95.3895
-65.5968
-34.356
-1.90387
30.7656
64.5687
98.797
133.105
167.069
200.275
232.34
262.843
291.364
317.543
341.018
361.465
378.605
392.191
402.03
407.982
409.942
407.821
401.709
391.655
377.758
360.185
339.187
315.04
288.063
258.655
227.199
194.119
159.864
124.853
89.516
54.2672
19.2091
-15.9635
-49.6341
-81.8443
-112.484
-141.403
-168.486
-193.649
-216.824
-237.976
-257.094
-274.188
-289.28
-302.395
-313.577
-322.893
-330.398
-336.158
-340.263
-342.793
-343.811
-343.306
-341.444
-338.271
-333.806
-328.075
-321.066
-312.756
-303.131
-292.141
-279.733
-265.87
-250.494
-233.561
-215.037
-194.895
-173.127
-149.743
-124.776
-98.2836
-70.352
-41.1
-10.6776
20.7594
52.9242
85.5822
118.441
151.169
183.401
214.749
244.804
273.143
299.341
322.982
343.668
361.038
374.775
384.615
390.361
391.881
389.098
382.113
370.965
355.821
336.914
314.535
289.027
260.775
230.201
197.759
163.921
129.163
93.9612
58.7766
24.033
-9.88509
-42.6726
-74.0615
-103.855
-131.919
-158.16
-182.533
-205.026
-225.657
-244.464
-261.491
-276.797
-290.434
-302.46
-312.936
-321.914
-329.444
-335.572
-340.337
-343.771
-345.916
-346.736
-346.265
-344.513
-341.444
-337.029
-331.235
-324.009
-315.308
-305.081
-293.255
-279.783
-264.612
-247.696
-229.013
-208.55
-186.318
-162.356
-136.723
-109.513
-80.8536
-50.9028
-19.8515
12.0817
44.5737
77.3465
110.076
142.413
173.987
204.42
233.329
260.333
285.064
307.174
326.331
342.244
354.659
363.367
368.211
369.087
365.929
358.829
347.827
333.059
314.73
293.1
268.474
241.2
211.665
180.275
147.451
113.621
79.2013
44.5969
10.1853
-23.6837
-56.6743
-88.5392
-119.042
-148.002
-175.278
-200.768
-224.413
-246.178
-266.05
-284.04
-300.175
-314.487
-327.016
-337.813
-346.931
-354.418
-360.335
-364.738
-367.682
-369.184
-369.304
-368.073
-365.509
-361.626
-356.415
-349.876
-341.999
-332.763
-322.142
-310.108
-296.631
-281.68
-265.22
-247.23
-227.693
-206.605
-183.978
-159.843
-134.257
-107.302
-79.0463
-49.398
-19.0923
11.8482
43.1703
74.6045
105.817
136.47
166.182
194.576
221.271
245.896
268.095
287.541
303.92
316.968
326.444
332.175
334.071
332.118
326.642
317.509
304.771
288.68
269.4
247.213
222.384
195.247
166.177
135.504
103.616
70.9136
37.7096
4.34407
-28.835
-61.5525
-92.6737
-121.558
-150.124
-177.746
-204.033
-228.717
-251.614
-272.61
-291.615
-308.589
-323.509
-336.386
-347.252
-356.158
-363.171
-368.374
-371.837
-373.644
-373.799
-372.479
-369.72
-365.588
-360.135
-353.391
-345.392
-336.145
-325.655
-313.937
-300.974
-286.746
-271.247
-254.449
-236.331
-216.886
-196.114
-174.009
-150.602
-125.942
-100.26
-73.2945
-45.3501
-16.5947
12.7637
42.5123
72.3788
102.084
131.349
159.816
187.119
212.909
236.793
258.405
277.374
293.353
306.018
315.066
320.202
-48.9002
-76.3316
-104.029
-130.931
-156.521
-180.582
-202.955
-223.579
-242.41
-259.442
-274.706
-288.232
-300.063
-310.253
-318.849
-325.898
-331.444
-335.524
-338.17
-339.388
-339.202
-337.551
-334.498
-330.033
-324.112
-316.707
-307.774
-297.264
-285.126
-271.299
-255.731
-238.382
-219.205
-198.184
-175.314
-150.59
-124.077
-95.8643
-66.0484
-34.7783
-2.28513
30.4791
64.341
98.6408
133.034
167.093
200.399
232.569
263.179
291.805
318.084
341.653
362.184
379.398
393.045
402.929
408.913
410.887
408.764
402.628
392.531
378.577
360.933
339.85
315.606
288.524
259.006
227.435
194.243
159.881
124.768
89.3386
54.0088
18.8686
-16.354
-50.0682
-82.3134
-112.979
-141.914
-169.007
-194.172
-217.344
-238.49
-257.597
-274.679
-289.757
-302.857
-314.023
-323.321
-330.81
-336.553
-340.637
-343.147
-344.155
-343.631
-341.759
-338.578
-334.112
-328.382
-321.379
-313.079
-303.466
-292.491
-280.099
-266.253
-250.893
-233.974
-215.463
-195.331
-173.569
-150.187
-125.215
-98.7124
-70.7628
-41.4839
-11.0261
20.4526
52.673
85.3973
118.332
151.145
183.473
214.925
245.088
273.539
299.851
323.602
344.39
361.851
375.663
385.561
391.343
392.876
390.093
383.073
371.873
356.659
337.666
315.187
289.569
261.2
230.504
197.94
163.982
129.11
93.8022
58.5237
23.6997
-10.283
-43.1196
-74.543
-104.357
-132.429
-158.67
-183.035
-205.515
-226.13
-244.919
-261.927
-277.213
-290.832
-302.841
-313.301
-322.263
-329.78
-335.898
-340.653
-344.082
-346.221
-347.036
-346.573
-344.825
-341.764
-337.359
-331.577
-324.365
-315.681
-305.472
-293.663
-280.208
-265.052
-248.15
-229.478
-209.021
-186.789
-162.823
-137.179
-109.951
-81.2639
-51.2776
-20.1813
11.8083
44.3645
77.2109
110.022
142.448
174.117
204.649
233.659
260.763
285.594
307.796
327.04
343.029
355.506
364.26
369.134
370.02
366.862
359.733
348.686
333.856
315.45
293.73
269.005
241.624
211.979
180.478
147.546
113.613
79.0971
44.4054
9.91696
-24.0176
-57.0626
-88.9699
-119.504
-148.485
-175.773
-201.269
-224.911
-246.669
-266.532
-284.509
-300.628
-314.926
-327.438
-338.219
-347.321
-354.794
-360.696
-365.086
-368.016
-369.511
-369.625
-368.39
-365.824
-361.942
-356.734
-350.2
-342.329
-333.102
-322.492
-310.469
-297.004
-282.065
-265.618
-247.639
-228.109
-207.027
-184.401
-160.263
-134.668
-107.699
-79.4224
-49.7125
-19.3658
11.6275
43.0157
74.5278
105.827
136.572
166.382
194.876
221.673
246.397
268.694
288.23
304.69
317.807
327.339
333.116
335.037
333.075
327.565
318.389
305.607
289.449
270.088
247.807
222.878
195.636
166.459
135.682
103.694
70.8976
37.6029
4.15567
-29.0854
-61.8359
-93.0032
-121.952
-150.554
-178.21
-204.523
-229.226
-252.134
-273.133
-292.136
-309.103
-324.013
-336.874
-347.723
-356.61
-363.601
-368.781
-372.222
-374.013
-374.152
-372.816
-370.046
-365.905
-360.445
-353.696
-345.694
-336.449
-325.962
-314.249
-301.294
-287.074
-271.584
-254.796
-236.687
-217.25
-196.484
-174.38
-150.967
-126.289
-100.62
-73.6226
-45.6443
-16.8495
12.5561
42.3601
72.2904
102.068
131.414
159.971
187.37
213.26
237.247
258.96
278.028
294.097
306.843
315.954
321.13
-49.3449
-76.8331
-104.569
-131.496
-157.1
-181.165
-203.533
-224.148
-242.964
-259.979
-275.223
-288.728
-300.54
-310.71
-319.288
-326.322
-331.854
-335.923
-338.558
-339.773
-339.589
-337.942
-334.893
-330.434
-324.526
-317.137
-308.22
-297.729
-285.612
-271.807
-256.257
-238.927
-219.766
-198.757
-175.894
-151.17
-124.649
-96.4192
-66.5761
-35.2709
-2.73099
30.1423
64.0736
98.4571
132.949
167.119
200.544
232.837
263.571
292.319
318.716
342.394
363.024
380.324
394.042
403.98
410
411.991
409.865
403.7
393.554
379.534
361.806
340.624
316.266
289.061
259.415
227.711
194.388
159.9
124.668
89.1301
53.7054
18.4696
-16.8107
-50.5759
-82.8618
-113.557
-142.512
-169.615
-194.784
-217.952
-239.089
-258.185
-275.252
-290.312
-303.396
-314.544
-323.821
-331.29
-337.013
-341.073
-343.561
-344.555
-344.01
-342.126
-338.937
-334.467
-328.74
-321.745
-313.456
-303.857
-292.9
-280.527
-266.7
-251.358
-234.457
-215.961
-195.84
-174.086
-150.705
-125.728
-99.2135
-71.243
-41.9333
-11.4345
20.0937
52.3789
85.1801
118.203
151.117
183.556
215.128
245.419
274.002
300.445
324.325
345.233
362.801
376.702
386.666
392.49
394.039
391.253
384.194
372.934
357.638
338.544
315.949
290.201
261.695
230.857
198.15
164.053
129.046
93.615
58.2269
23.3089
-10.7491
-43.6428
-75.1063
-104.944
-133.026
-159.266
-183.621
-206.087
-226.682
-245.449
-262.435
-277.698
-291.296
-303.286
-313.725
-322.67
-330.173
-336.278
-341.023
-344.445
-346.575
-347.392
-346.932
-345.189
-342.136
-337.743
-331.976
-324.781
-316.117
-305.927
-294.139
-280.704
-265.567
-248.681
-230.02
-209.57
-187.341
-163.369
-137.712
-110.462
-81.744
-51.7161
-20.5675
11.4883
44.1195
77.0515
109.958
142.488
174.268
204.915
234.043
261.266
286.211
308.523
327.868
343.945
356.495
365.304
370.212
371.111
367.951
360.789
349.688
334.786
316.29
294.466
269.624
242.119
212.345
180.715
147.657
113.602
78.974
44.1806
9.60241
-24.4087
-57.5172
-89.4738
-120.044
-149.05
-176.352
-201.853
-225.493
-247.242
-267.093
-285.055
-301.158
-315.437
-327.932
-338.694
-347.777
-355.232
-361.117
-365.492
-368.407
-369.893
-369.999
-368.759
-366.192
-362.31
-357.106
-350.578
-342.715
-333.498
-322.9
-310.89
-297.44
-282.516
-266.082
-248.116
-228.596
-207.521
-184.896
-160.753
-135.148
-108.162
-79.8638
-50.0798
-19.6858
11.3679
42.8346
74.4374
105.837
136.69
166.614
195.225
222.142
246.983
269.394
289.034
305.589
318.787
328.385
334.212
336.16
334.191
328.646
319.423
306.584
290.347
270.89
248.501
223.455
196.09
166.787
135.89
103.784
70.8777
37.4771
3.93917
-29.3799
-62.1694
-93.3896
-122.41
-151.056
-178.752
-205.096
-229.82
-252.741
-273.745
-292.745
-309.704
-324.601
-337.445
-348.272
-357.136
-364.103
-369.257
-372.671
-374.444
-374.563
-373.21
-370.427
-366.274
-360.805
-354.051
-346.046
-336.803
-326.32
-314.613
-301.667
-287.457
-271.977
-255.201
-237.102
-217.675
-196.915
-174.814
-151.395
-126.695
-101.042
-74.0056
-45.9883
-17.1477
12.3128
42.1815
72.1861
102.049
131.489
160.151
187.663
213.67
237.776
259.607
278.79
294.967
307.807
316.992
322.216
-49.8546
-77.4076
-105.187
-132.144
-157.763
-181.832
-204.196
-224.799
-243.598
-260.593
-275.814
-289.296
-301.084
-311.233
-319.791
-326.807
-332.323
-336.378
-339.003
-340.213
-340.029
-338.388
-335.343
-330.892
-325
-317.627
-308.73
-298.261
-286.168
-272.386
-256.859
-239.55
-220.407
-199.412
-176.557
-151.834
-125.304
-97.0546
-67.1802
-35.8344
-3.24173
29.7544
63.7657
98.245
132.851
167.148
200.708
233.141
264.019
292.908
319.438
343.241
363.985
381.384
395.182
405.182
411.243
413.254
411.123
404.926
394.725
380.629
362.806
341.509
317.02
289.675
259.882
228.025
194.552
159.921
124.551
88.8899
53.3563
18.0116
-17.3339
-51.1577
-83.4902
-114.22
-143.197
-170.312
-195.483
-218.648
-239.775
-258.857
-275.907
-290.948
-304.012
-315.139
-324.393
-331.838
-337.538
-341.571
-344.033
-345.003
-344.442
-342.545
-339.347
-334.874
-329.15
-322.163
-313.887
-304.304
-293.366
-281.016
-267.211
-251.89
-235.009
-216.531
-196.423
-174.676
-151.298
-126.316
-99.7872
-71.7933
-42.4488
-11.9028
19.6823
52.0411
84.9301
118.055
151.083
183.649
215.358
245.796
274.529
301.124
325.151
346.198
363.888
377.89
387.931
393.804
395.373
392.58
385.478
374.148
358.758
339.548
316.819
290.924
262.26
231.261
198.39
164.131
128.972
93.3991
57.8852
22.8598
-11.2845
-44.2431
-75.7521
-105.616
-133.71
-159.948
-184.293
-206.741
-227.314
-246.056
-263.016
-278.254
-291.827
-303.793
-314.211
-323.135
-330.622
-336.711
-341.445
-344.858
-346.98
-347.798
-347.341
-345.605
-342.562
-338.183
-332.431
-325.257
-316.614
-306.448
-294.684
-281.271
-266.156
-249.288
-230.64
-210.199
-187.971
-163.994
-138.322
-111.048
-82.2944
-52.2187
-21.0107
11.1212
43.8379
76.8676
109.884
142.532
174.439
205.218
234.481
261.84
286.917
309.354
328.815
344.994
357.627
366.498
371.446
372.361
369.195
361.998
350.836
335.851
317.252
295.308
270.333
242.685
212.763
180.985
147.782
113.589
78.8315
43.9218
9.24092
-24.8574
-58.0387
-90.0514
-120.663
-149.696
-177.015
-202.522
-226.158
-247.899
-267.736
-285.68
-301.763
-316.022
-328.496
-339.236
-348.298
-355.732
-361.599
-365.956
-368.854
-370.329
-370.426
-369.18
-366.611
-362.73
-357.53
-351.009
-343.156
-333.95
-323.366
-311.372
-297.938
-283.031
-266.613
-248.661
-229.153
-208.085
-185.462
-161.315
-135.697
-108.692
-80.3716
-50.5
-20.0532
11.0692
42.6268
74.3326
105.848
136.823
166.877
195.623
222.678
247.652
270.194
289.955
306.618
319.909
329.582
335.465
337.441
335.466
329.885
320.61
307.704
291.376
271.809
249.295
224.114
196.608
167.162
136.126
103.886
70.8529
37.3321
3.69256
-29.7204
-62.5587
-93.8298
-122.93
-151.629
-179.372
-205.752
-230.501
-253.436
-274.445
-293.442
-310.391
-325.273
-338.097
-348.901
-357.738
-364.677
-369.801
-373.185
-374.933
-375.032
-373.658
-370.861
-366.696
-361.217
-354.457
-346.448
-337.208
-326.728
-315.028
-302.093
-287.894
-272.425
-255.664
-237.577
-218.161
-197.409
-175.311
-151.885
-127.158
-101.526
-74.4435
-46.3823
-17.4897
12.0334
41.9758
72.0655
102.024
131.574
160.356
187.996
214.138
238.379
260.346
279.661
295.962
308.91
318.181
323.46
-50.4297
-78.0556
-105.884
-132.874
-158.51
-182.583
-204.942
-225.531
-244.313
-261.284
-276.479
-289.935
-301.697
-311.821
-320.356
-327.351
-332.85
-336.89
-339.504
-340.708
-340.522
-338.888
-335.849
-331.408
-325.532
-318.179
-309.304
-298.859
-286.794
-273.038
-257.537
-240.252
-221.13
-200.15
-177.304
-152.582
-126.043
-97.7711
-67.8613
-36.4691
-3.81763
29.3145
63.4164
98.0038
132.739
167.179
200.891
233.483
264.522
293.569
320.251
344.196
365.067
382.577
396.467
406.536
412.644
414.676
412.538
406.308
396.045
381.863
363.931
342.506
317.87
290.366
260.406
228.378
194.736
159.942
124.418
88.6172
52.9605
17.494
-17.9242
-51.8143
-84.1992
-114.967
-143.968
-171.097
-196.272
-219.431
-240.548
-259.614
-276.644
-291.663
-304.705
-315.809
-325.036
-332.455
-338.129
-342.132
-344.565
-345.507
-344.928
-343.015
-339.807
-335.331
-329.61
-322.632
-314.37
-304.807
-293.891
-281.565
-267.786
-252.49
-235.631
-217.172
-197.079
-175.342
-151.966
-126.979
-100.434
-72.414
-43.0308
-12.4317
19.2173
51.6591
84.6466
117.885
151.043
183.752
215.616
246.218
275.122
301.888
326.081
347.284
365.112
379.23
389.357
395.285
396.876
394.074
386.925
375.516
360.02
340.68
317.8
291.737
262.896
231.713
198.658
164.218
128.886
93.1536
57.4977
22.3516
-11.89
-44.9215
-76.4811
-106.375
-134.481
-160.718
-185.049
-207.477
-228.026
-246.739
-263.67
-278.879
-292.424
-304.364
-314.758
-323.659
-331.126
-337.199
-341.919
-345.323
-347.437
-348.254
-347.802
-346.073
-343.041
-338.677
-332.944
-325.791
-317.174
-307.034
-295.296
-281.91
-266.819
-249.971
-231.339
-210.907
-188.683
-164.698
-139.01
-111.709
-82.9155
-52.7863
-21.5117
10.7065
43.5192
76.6588
109.798
142.58
174.63
205.559
234.974
262.485
287.712
310.29
329.881
346.175
358.902
367.844
372.838
373.77
370.597
363.359
352.13
337.051
318.335
296.256
271.13
243.321
213.233
181.288
147.921
113.572
78.6691
43.6284