/*--------------------------------*- C++ -*----------------------------------*\
| =========                 |                                                 |
| \\      /  F ield         | OpenFOAM: The Open Source CFD Toolbox           |
|  \\    /   O peration     | Version:  3.0.1                                 |
|   \\  /    A nd           | Web:      www.OpenFOAM.org                      |
|    \\/     M anipulation  |                                                 |
\*---------------------------------------------------------------------------*/
FoamFile
{
    version     2.0;
    format      ascii;
    class       volScalarField;
    location    "55.2";
    object      p;
}
// * * * * * * * * * * * * * * * * * * * * * * * * * * * * * * * * * * * * * //

dimensions      [1 -1 -2 0 0 0 0];

internalField   nonuniform List<scalar> 
21420
(
3780
3808.72
3838.29
3868.71
3911.39
3944.03
3977.2
4010.43
4043.41
4075.82
4107.18
4137.03
4164.99
4190.59
4213.48
4233.27
4249.66
4262.44
4271.38
4276.36
4277.18
4274.4
4267.5
4256.61
4241.88
4223.58
4201.96
4177.36
4150.16
4120.73
4089.48
4056.84
4023.21
3989.03
3954.66
3920.47
3886.83
3854.46
3823.08
3792.95
3764.26
3737.17
3711.77
3688.14
3666.31
3646.31
3628.13
3611.73
3597.09
3584.17
3572.92
3563.29
3555.22
3548.68
3543.64
3540.04
3537.88
3537.17
3537.9
3540.03
3543.59
3548.6
3555.12
3563.15
3572.76
3584.01
3596.95
3611.62
3628.06
3646.31
3666.38
3688.27
3711.92
3737.29
3764.27
3792.74
3822.53
3853.48
3885.45
3918.28
3951.32
3984.33
4017.04
4049.16
4080.31
4110.17
4138.35
4164.5
4188.24
4209.24
4227.19
4241.81
4252.9
4260.28
4263.85
4263.44
4259.25
4251.24
4239.46
4224.1
4205.36
4183.47
4158.72
4131.41
4101.89
4070.53
4037.72
4003.85
3969.36
3934.65
3900.11
3866.11
3832.99
3801.05
3770.52
3741.62
3714.49
3689.25
3665.95
3644.63
3625.3
3607.93
3592.49
3578.93
3567.22
3557.3
3549.11
3542.62
3537.75
3534.45
3532.67
3532.39
3533.47
3535.9
3539.63
3544.62
3550.83
3558.26
3566.89
3576.73
3587.8
3600.13
3613.75
3628.71
3645.05
3662.8
3682.01
3702.69
3724.86
3748.48
3773.54
3799.97
3827.67
3856.54
3886.53
3917.14
3948.25
3979.6
4010.85
4041.67
4071.67
4100.46
4127.62
4152.76
4175.46
4195.33
4212.01
4225.18
4234.55
4239.91
4241.04
4237.99
4230.73
4219.34
4203.97
4184.88
4162.39
4136.87
4108.73
4078.41
4046.37
4013.09
3979.03
3944.64
3910.34
3876.52
3843.54
3811.68
3781.18
3752.26
3725.09
3699.77
3676.39
3654.97
3635.5
3617.94
3602.24
3588.31
3576.05
3565.38
3556.18
3548.38
3541.91
3536.69
3532.68
3529.85
3528.16
3527.63
3528.19
3529.85
3532.6
3536.45
3541.43
3547.55
3554.86
3563.4
3573.22
3584.37
3596.91
3610.87
3626.31
3643.26
3661.76
3681.8
3703.4
3726.54
3751.17
3777.23
3804.6
3833.19
3863.32
3893.76
3924.78
3956.09
3987.36
4018.21
4048.26
4077.07
4104.22
4129.28
4151.82
4171.44
4187.79
4200.55
4209.46
4214.33
4214.95
4211.48
4203.83
4192.11
4176.55
4157.41
4135.02
4109.77
4082.11
4052.49
4021.39
3989.27
3956.59
3923.79
3891.24
3859.29
3828.26
3798.34
3769.75
3742.63
3717.1
3693.24
3671.1
3650.72
3632.11
3615.24
3600.08
3586.59
3574.69
3564.3
3555.37
3547.8
3541.54
3536.56
3532.85
3530.33
3528.91
3528.68
3529.65
3531.85
3535.32
3540.12
3546.3
3553.95
3563.14
3573.98
3586.55
3600.91
3617.16
3635.35
3655.48
3677.56
3701.57
3727.33
3754.73
3783.52
3814.96
3851.73
3888.05
3923.95
3959.64
3994.65
4028.82
4061.67
4092.82
4121.97
4148.7
4172.61
4193.42
4210.79
4224.46
4234.21
4239.88
4241.48
4240.49
4235.67
4226.88
4214.32
4198.18
4178.64
4156.02
4130.69
4102.97
4073.29
4042.11
4009.8
3976.77
3943.45
3910.19
3877.31
3845.03
3813.78
3783.8
3755.21
3728.14
3702.67
3678.87
3656.8
3636.45
3617.84
3600.95
3585.75
3572.21
3560.31
3550
3541.24
3534.01
3528.26
3523.95
3521.05
3519.55
3681.83
3710.55
3740.14
3770.55
3813.22
3845.88
3879.06
3912.31
3945.3
3977.73
4009.11
4038.98
4066.97
4092.58
4115.49
4135.29
4151.7
4164.49
4173.43
4178.42
4179.27
4176.46
4169.55
4158.66
4143.92
4125.6
4103.97
4079.34
4052.13
4022.68
3991.41
3958.75
3925.11
3890.91
3856.52
3822.32
3788.68
3756.29
3724.91
3694.77
3666.08
3638.99
3613.58
3589.95
3568.13
3548.13
3529.95
3513.56
3498.92
3486
3474.76
3465.12
3457.06
3450.52
3445.48
3441.88
3439.72
3439.02
3439.74
3441.87
3445.43
3450.44
3456.96
3464.99
3474.59
3485.84
3498.78
3513.44
3529.89
3548.13
3568.2
3590.08
3613.74
3639.11
3666.1
3694.56
3724.37
3755.32
3787.3
3820.14
3853.19
3886.21
3918.94
3951.07
3982.24
4012.11
4040.31
4066.47
4090.23
4111.25
4129.21
4143.85
4154.94
4162.33
4165.9
4165.5
4161.29
4153.28
4141.49
4126.12
4107.37
4085.47
4060.7
4033.37
4003.84
3972.46
3939.62
3905.75
3871.24
3836.51
3801.95
3767.94
3734.82
3702.87
3672.34
3643.43
3616.3
3591.05
3567.76
3546.44
3527.11
3509.74
3494.3
3480.75
3469.05
3459.13
3450.94
3444.45
3439.59
3436.29
3434.52
3434.23
3435.31
3437.74
3441.48
3446.47
3452.68
3460.11
3468.74
3478.58
3489.65
3501.97
3515.59
3530.55
3546.88
3564.64
3583.84
3604.52
3626.68
3650.31
3675.37
3701.8
3729.51
3758.38
3788.38
3818.99
3850.12
3881.47
3912.74
3943.58
3973.59
4002.4
4029.58
4054.74
4077.45
4097.34
4114.04
4127.22
4136.6
4141.97
4143.11
4140.05
4132.79
4121.39
4106.01
4086.9
4064.39
4038.85
4010.69
3980.35
3948.29
3915
3880.92
3846.5
3812.19
3778.36
3745.37
3713.5
3683
3654.08
3626.9
3601.58
3578.2
3556.78
3537.31
3519.76
3504.06
3490.13
3477.88
3467.21
3458.02
3450.23
3443.75
3438.54
3434.53
3431.7
3430.02
3429.49
3430.05
3431.7
3434.45
3438.3
3443.28
3449.4
3456.71
3465.25
3475.06
3486.21
3498.74
3512.71
3528.14
3545.09
3563.59
3583.63
3605.23
3628.36
3653
3679.05
3706.44
3735.02
3765.17
3795.61
3826.64
3857.96
3889.25
3920.12
3950.18
3979.02
4006.19
4031.26
4053.82
4073.46
4089.82
4102.59
4111.51
4116.39
4117.02
4113.53
4105.88
4094.16
4078.58
4059.42
4037.01
4011.75
3984.07
3954.43
3923.3
3891.16
3858.47
3825.65
3793.09
3761.13
3730.09
3700.17
3671.58
3644.45
3618.92
3595.06
3572.93
3552.55
3533.93
3517.06
3501.91
3488.42
3476.52
3466.15
3457.21
3449.64
3443.39
3438.42
3434.71
3432.19
3430.76
3430.54
3431.51
3433.7
3437.17
3441.96
3448.14
3455.79
3464.97
3475.81
3488.38
3502.73
3518.98
3537.16
3557.29
3579.38
3603.39
3629.15
3656.55
3685.35
3716.78
3753.58
3789.91
3825.81
3861.52
3896.55
3930.73
3963.6
3994.76
4023.94
4050.69
4074.62
4095.44
4112.82
4126.51
4136.27
4141.94
4143.54
4142.54
4137.72
4128.92
4116.36
4100.21
4080.65
4058.01
4032.66
4004.93
3975.23
3944.03
3911.7
3878.66
3845.32
3812.05
3779.15
3746.86
3715.61
3685.63
3657.04
3629.96
3604.49
3580.7
3558.62
3538.27
3519.66
3502.77
3487.58
3474.05
3462.15
3451.84
3443.08
3435.85
3430.1
3425.79
3422.9
3421.39
3583.59
3612.32
3641.92
3672.34
3714.99
3747.67
3780.88
3814.16
3847.19
3879.65
3911.07
3940.99
3969.01
3994.67
4017.61
4037.44
4053.88
4066.69
4075.65
4080.65
4081.54
4078.68
4071.76
4060.85
4046.09
4027.74
4006.07
3981.41
3954.16
3924.68
3893.37
3860.67
3826.99
3792.76
3758.35
3724.12
3690.46
3658.06
3626.66
3596.52
3567.82
3540.72
3515.32
3491.69
3469.87
3449.87
3431.69
3415.31
3400.68
3387.77
3376.52
3366.89
3358.84
3352.3
3347.26
3343.67
3341.51
3340.8
3341.53
3343.66
3347.21
3352.23
3358.73
3366.76
3376.36
3387.61
3400.53
3415.19
3431.63
3449.87
3469.93
3491.82
3515.48
3540.85
3567.85
3596.32
3626.13
3657.1
3689.1
3721.96
3755.03
3788.08
3820.83
3852.99
3884.19
3914.09
3942.33
3968.52
3992.32
4013.36
4031.35
4046.01
4057.12
4064.52
4068.1
4067.71
4063.48
4055.46
4043.66
4028.27
4009.49
3987.56
3962.76
3935.4
3905.83
3874.41
3841.55
3807.63
3773.09
3738.33
3703.75
3669.72
3636.57
3604.61
3574.07
3545.15
3518.02
3492.77
3469.48
3448.16
3428.84
3411.47
3396.04
3382.5
3370.8
3360.88
3352.71
3346.22
3341.36
3338.07
3336.3
3336.01
3337.1
3339.54
3343.27
3348.26
3354.48
3361.91
3370.54
3380.37
3391.44
3403.76
3417.37
3432.33
3448.65
3466.4
3485.61
3506.28
3528.44
3552.07
3577.13
3603.57
3631.28
3660.15
3690.17
3720.8
3751.95
3783.33
3814.63
3845.49
3875.54
3904.38
3931.6
3956.79
3979.55
3999.47
4016.2
4029.41
4038.81
4044.19
4045.35
4042.27
4035
4023.59
4008.18
3989.04
3966.5
3940.92
3912.71
3882.33
3850.24
3816.9
3782.78
3748.34
3713.99
3680.14
3647.14
3615.25
3584.73
3555.8
3528.62
3503.3
3479.92
3458.51
3439.05
3421.5
3405.81
3391.89
3379.65
3368.99
3359.81
3352.02
3345.55
3340.34
3336.34
3333.5
3331.83
3331.3
3331.86
3333.51
3336.26
3340.11
3345.08
3351.2
3358.51
3367.04
3376.85
3387.99
3400.52
3414.48
3429.91
3446.86
3465.35
3485.39
3506.98
3530.12
3554.75
3580.82
3608.21
3636.78
3666.97
3697.42
3728.47
3759.82
3791.13
3822.04
3852.13
3881
3908.21
3933.33
3955.92
3975.6
3991.99
4004.79
4013.72
4018.61
4019.27
4015.75
4008.09
3996.35
3980.74
3961.55
3939.11
3913.8
3886.08
3856.4
3825.23
3793.05
3760.33
3727.48
3694.89
3662.92
3631.86
3601.93
3573.32
3546.2
3520.66
3496.8
3474.67
3454.29
3435.68
3418.82
3403.67
3390.19
3378.3
3367.93
3359
3351.44
3345.19
3340.23
3336.52
3334
3332.57
3332.35
3333.31
3335.5
3338.97
3343.76
3349.93
3357.57
3366.74
3377.57
3390.13
3404.47
3420.71
3438.89
3459.02
3481.11
3505.12
3530.88
3558.29
3587.09
3618.53
3655.37
3691.72
3727.65
3763.38
3798.44
3832.65
3865.56
3896.76
3925.98
3952.76
3976.73
3997.59
4015
4028.7
4038.48
4044.17
4045.76
4044.74
4039.92
4031.11
4018.53
4002.35
3982.77
3960.09
3934.7
3906.93
3877.2
3845.96
3813.6
3780.52
3747.16
3713.86
3680.95
3648.64
3617.37
3587.38
3558.78
3531.7
3506.23
3482.44
3460.36
3440.02
3421.42
3404.53
3389.34
3375.81
3363.92
3353.61
3344.86
3337.63
3331.88
3327.58
3324.68
3323.17
3485.27
3514.02
3543.64
3574.07
3616.7
3649.4
3682.66
3715.99
3749.07
3781.59
3813.06
3843.04
3871.12
3896.84
3919.83
3939.72
3956.19
3969.03
3978.02
3983.04
3983.98
3981.07
3974.13
3963.18
3948.39
3930
3908.28
3883.57
3856.26
3826.72
3795.35
3762.61
3728.88
3694.6
3660.14
3625.88
3592.19
3559.76
3528.35
3498.19
3469.48
3442.37
3416.97
3393.34
3371.52
3351.53
3333.36
3316.98
3302.36
3289.46
3278.22
3268.6
3260.55
3254.02
3248.98
3245.4
3243.24
3242.54
3243.26
3245.39
3248.94
3253.95
3260.45
3268.47
3278.06
3289.3
3302.22
3316.87
3333.3
3351.53
3371.59
3393.48
3417.14
3442.52
3469.52
3498
3527.83
3558.82
3590.85
3623.74
3656.85
3689.93
3722.72
3754.91
3786.16
3816.12
3844.4
3870.65
3894.49
3915.58
3933.61
3948.31
3959.45
3966.87
3970.45
3970.08
3965.82
3957.79
3945.96
3930.54
3911.72
3889.75
3864.9
3837.49
3807.87
3776.4
3743.48
3709.52
3674.93
3640.12
3605.5
3571.43
3538.26
3506.27
3475.71
3446.79
3419.65
3394.4
3371.11
3349.8
3330.48
3313.13
3297.7
3284.17
3272.48
3262.57
3254.4
3247.92
3243.07
3239.78
3238.03
3237.74
3238.84
3241.28
3245.02
3250.01
3256.23
3263.66
3272.29
3282.12
3293.18
3305.49
3319.1
3334.04
3350.36
3368.11
3387.3
3407.98
3430.13
3453.76
3478.82
3505.26
3532.98
3561.87
3591.92
3622.57
3653.75
3685.16
3716.51
3747.42
3777.52
3806.41
3833.68
3858.93
3881.74
3901.72
3918.49
3931.74
3941.18
3946.57
3947.76
3944.66
3937.38
3925.94
3910.49
3891.31
3868.71
3843.07
3814.8
3784.36
3752.2
3718.81
3684.64
3650.14
3615.75
3581.86
3548.83
3516.92
3486.38
3457.44
3430.25
3404.94
3381.56
3360.15
3340.7
3323.16
3307.49
3293.58
3281.36
3270.71
3261.54
3253.76
3247.3
3242.09
3238.09
3235.26
3233.59
3233.06
3233.62
3235.28
3238.03
3241.88
3246.84
3252.96
3260.25
3268.78
3278.59
3289.72
3302.24
3316.19
3331.61
3348.56
3367.04
3387.07
3408.67
3431.8
3456.44
3482.51
3509.91
3538.48
3568.72
3599.18
3630.26
3661.65
3693
3723.96
3754.11
3783.04
3810.3
3835.48
3858.13
3877.86
3894.3
3907.13
3916.09
3921
3921.67
3918.13
3910.46
3898.68
3883.04
3863.79
3841.29
3815.93
3788.14
3758.4
3727.17
3694.94
3662.16
3629.27
3596.65
3564.64
3533.56
3503.61
3474.99
3447.86
3422.33
3398.46
3376.33
3355.96
3337.36
3320.5
3305.37
3291.9
3280.02
3269.66
3260.74
3253.19
3246.95
3241.99
3238.29
3235.76
3234.34
3234.12
3235.08
3237.26
3240.72
3245.49
3251.65
3259.28
3268.43
3279.25
3291.8
3306.13
3322.36
3340.54
3360.66
3382.75
3406.76
3432.53
3459.95
3488.76
3520.2
3557.12
3593.5
3629.46
3665.22
3700.32
3734.59
3767.55
3798.81
3828.08
3854.92
3878.94
3899.85
3917.3
3931.04
3940.84
3946.55
3948.14
3947.09
3942.27
3933.45
3920.84
3904.63
3884.99
3862.26
3836.82
3809
3779.2
3747.91
3715.49
3682.37
3648.97
3615.63
3582.69
3550.34
3519.06
3489.06
3460.45
3433.36
3407.89
3384.1
3362.03
3341.69
3323.09
3306.21
3291.03
3277.51
3265.62
3255.32
3246.58
3239.35
3233.61
3229.31
3226.41
3224.9
3386.88
3415.66
3445.31
3475.75
3518.33
3551.07
3584.4
3617.79
3650.94
3683.53
3715.08
3745.15
3773.31
3799.1
3822.17
3842.12
3858.64
3871.53
3880.55
3885.58
3886.57
3883.62
3876.65
3865.67
3850.82
3832.37
3810.59
3785.81
3758.42
3728.81
3697.37
3664.55
3630.75
3596.41
3561.9
3527.58
3493.86
3461.4
3429.95
3399.77
3371.05
3343.94
3318.53
3294.91
3273.1
3253.11
3234.95
3218.58
3203.97
3191.08
3179.85
3170.24
3162.2
3155.68
3150.65
3147.07
3144.92
3144.21
3144.93
3147.06
3150.62
3155.61
3162.11
3170.12
3179.7
3190.92
3203.83
3218.47
3234.89
3253.11
3273.17
3295.05
3318.72
3344.1
3371.11
3399.61
3429.46
3460.47
3492.55
3525.48
3558.63
3591.76
3624.6
3656.85
3688.17
3718.18
3746.54
3772.85
3796.76
3817.91
3835.99
3850.74
3861.92
3869.36
3872.95
3872.6
3868.32
3860.26
3848.4
3832.94
3814.07
3792.04
3767.13
3739.65
3709.96
3678.42
3645.42
3611.39
3576.74
3541.87
3507.19
3473.08
3439.87
3407.85
3377.27
3348.33
3321.19
3295.94
3272.65
3251.35
3232.04
3214.7
3199.29
3185.76
3174.08
3164.19
3156.03
3149.56
3144.72
3141.44
3139.7
3139.42
3140.53
3142.97
3146.72
3151.72
3157.94
3165.36
3173.99
3183.81
3194.87
3207.17
3220.77
3235.7
3252.01
3269.75
3288.94
3309.6
3331.75
3355.38
3380.44
3406.89
3434.63
3463.53
3493.61
3524.3
3555.51
3586.98
3618.38
3649.35
3679.51
3708.48
3735.83
3761.15
3784.03
3804.08
3820.92
3834.22
3843.7
3849.12
3850.33
3847.23
3839.92
3828.44
3812.94
3793.7
3771.03
3745.31
3716.96
3686.43
3654.19
3620.72
3586.47
3551.91
3517.47
3483.52
3450.46
3418.51
3387.95
3359
3331.8
3306.48
3283.11
3261.7
3242.27
3224.75
3209.09
3195.2
3182.99
3172.36
3163.21
3155.44
3148.99
3143.79
3139.8
3136.98
3135.32
3134.78
3135.35
3137
3139.75
3143.6
3148.56
3154.66
3161.95
3170.47
3180.27
3191.39
3203.9
3217.84
3233.25
3250.18
3268.66
3288.69
3310.28
3333.41
3358.06
3384.14
3411.55
3440.12
3470.42
3500.89
3532.01
3563.46
3594.87
3625.89
3656.11
3685.12
3712.46
3737.71
3760.44
3780.23
3796.73
3809.62
3818.62
3823.54
3824.24
3820.68
3812.98
3801.17
3785.47
3766.16
3743.58
3718.14
3690.27
3660.44
3629.13
3596.82
3563.97
3531.02
3498.35
3466.31
3435.19
3405.22
3376.59
3349.45
3323.91
3300.05
3277.92
3257.55
3238.96
3222.12
3206.99
3193.54
3181.67
3171.33
3162.43
3154.88
3148.66
3143.71
3140.01
3137.48
3136.07
3135.84
3136.79
3138.97
3142.41
3147.17
3153.32
3160.92
3170.06
3180.86
3193.4
3207.72
3223.93
3242.1
3262.22
3284.3
3308.32
3334.1
3361.52
3390.36
3421.79
3458.82
3495.23
3531.23
3567.04
3602.2
3636.53
3669.56
3700.9
3730.25
3757.17
3781.26
3802.23
3819.74
3833.53
3843.37
3849.1
3850.69
3849.62
3844.78
3835.94
3823.29
3807.02
3787.33
3764.53
3739.01
3711.11
3681.24
3649.87
3617.39
3584.2
3550.74
3517.36
3484.38
3451.99
3420.67
3390.66
3362.04
3334.95
3309.47
3285.68
3263.62
3243.29
3224.7
3207.83
3192.65
3179.14
3167.26
3156.97
3148.23
3141.01
3135.27
3130.97
3128.08
3126.56
3288.42
3317.23
3346.92
3377.38
3419.89
3452.69
3486.1
3519.58
3552.81
3585.48
3617.14
3647.3
3675.57
3701.46
3724.62
3744.64
3761.24
3774.17
3783.24
3788.29
3789.31
3786.34
3779.33
3768.3
3753.39
3734.87
3713.01
3688.13
3660.65
3630.94
3599.41
3566.5
3532.62
3498.2
3463.62
3429.24
3395.47
3362.96
3331.49
3301.28
3272.55
3245.43
3220.02
3196.39
3174.59
3154.61
3136.46
3120.11
3105.51
3092.63
3081.42
3071.82
3063.79
3057.28
3052.26
3048.69
3046.54
3045.83
3046.55
3048.68
3052.23
3057.22
3063.71
3071.7
3081.27
3092.48
3105.37
3119.99
3136.4
3154.61
3174.66
3196.55
3220.22
3245.61
3272.63
3301.15
3331.03
3362.07
3394.2
3427.18
3460.38
3493.57
3526.48
3558.8
3590.19
3620.29
3648.73
3675.13
3699.11
3720.34
3738.5
3753.3
3764.53
3772
3775.61
3775.26
3770.98
3762.88
3750.98
3735.46
3716.53
3694.42
3669.44
3641.87
3612.09
3580.46
3547.38
3513.26
3478.53
3443.59
3408.84
3374.67
3341.41
3309.35
3278.75
3249.79
3222.64
3197.39
3174.1
3152.81
3133.51
3116.18
3100.79
3087.28
3075.61
3065.73
3057.59
3051.13
3046.3
3043.04
3041.31
3041.04
3042.16
3044.61
3048.36
3053.37
3059.59
3067.02
3075.64
3085.46
3096.5
3108.8
3122.38
3137.3
3153.6
3171.32
3190.5
3211.16
3233.3
3256.93
3282
3308.45
3336.21
3365.13
3395.26
3425.98
3457.24
3488.77
3520.24
3551.29
3581.54
3610.59
3638.03
3663.44
3686.42
3706.55
3723.47
3736.84
3746.37
3751.83
3753.05
3749.96
3742.62
3731.1
3715.54
3696.21
3673.45
3647.63
3619.18
3588.54
3556.2
3522.63
3488.3
3453.65
3419.13
3385.12
3352.02
3320.03
3289.44
3260.46
3233.26
3207.94
3184.57
3163.18
3143.75
3126.26
3110.62
3096.75
3084.57
3073.96
3064.83
3057.08
3050.64
3045.45
3041.47
3038.65
3036.99
3036.46
3037.03
3038.69
3041.43
3045.27
3050.22
3056.32
3063.6
3072.11
3081.89
3093
3105.5
3119.42
3134.83
3151.75
3170.21
3190.23
3211.82
3234.96
3259.6
3285.69
3313.13
3341.74
3372.02
3402.55
3433.74
3465.24
3496.73
3527.83
3558.14
3587.24
3614.68
3640.03
3662.85
3682.73
3699.31
3712.26
3721.31
3726.26
3726.97
3723.4
3715.66
3703.8
3688.03
3668.64
3645.97
3620.42
3592.44
3562.51
3531.1
3498.7
3465.77
3432.74
3400.01
3367.91
3336.76
3306.76
3278.11
3250.96
3225.41
3201.55
3179.42
3159.07
3140.49
3123.66
3108.55
3095.12
3083.27
3072.94
3064.06
3056.53
3050.32
3045.38
3041.69
3039.16
3037.75
3037.52
3038.47
3040.63
3044.06
3048.8
3054.92
3062.51
3071.63
3082.4
3094.92
3109.22
3125.42
3143.57
3163.69
3185.77
3209.8
3235.58
3263.01
3291.86
3323.31
3360.47
3396.93
3432.97
3468.85
3504.07
3538.49
3571.61
3603.04
3632.48
3659.5
3683.68
3704.74
3722.32
3736.17
3746.05
3751.8
3753.39
3752.32
3747.45
3738.58
3725.88
3709.55
3689.77
3666.88
3641.27
3613.28
3583.31
3551.85
3519.29
3486.02
3452.49
3419.05
3386.01
3353.56
3322.22
3292.19
3263.55
3236.45
3210.97
3187.19
3165.13
3144.8
3126.22
3109.37
3094.2
3080.7
3068.83
3058.55
3049.82
3042.61
3036.88
3032.59
3029.69
3028.17
3189.89
3218.73
3248.47
3278.97
3321.36
3354.24
3387.76
3421.33
3454.66
3487.45
3519.22
3549.51
3577.9
3603.91
3627.17
3647.29
3663.97
3676.97
3686.08
3691.17
3692.19
3689.21
3682.17
3671.08
3656.1
3637.49
3615.53
3590.54
3562.95
3533.13
3501.48
3468.47
3434.48
3399.97
3365.3
3330.85
3297.02
3264.46
3232.95
3202.72
3173.96
3146.83
3121.41
3097.79
3076
3056.04
3037.9
3021.56
3006.98
2994.12
2982.92
2973.34
2965.32
2958.82
2953.81
2950.25
2948.11
2947.39
2948.12
2950.25
2953.79
2958.77
2965.24
2973.22
2982.77
2993.96
3006.84
3021.44
3037.83
3056.03
3076.07
3097.96
3121.63
3147.03
3174.08
3202.62
3232.52
3263.6
3295.8
3328.84
3362.11
3395.36
3428.35
3460.76
3492.24
3522.44
3550.98
3577.48
3601.56
3622.89
3641.13
3656
3667.28
3674.8
3678.42
3678.08
3673.78
3665.64
3653.69
3638.11
3619.1
3596.91
3571.82
3544.16
3514.27
3482.54
3449.35
3415.13
3380.29
3345.26
3310.43
3276.2
3242.88
3210.78
3180.14
3151.16
3124
3098.74
3075.46
3054.18
3034.9
3017.59
3002.21
2988.72
2977.07
2967.21
2959.08
2952.64
2947.82
2944.58
2942.86
2942.61
2943.74
2946.2
2949.96
2954.97
2961.2
2968.62
2977.24
2987.05
2998.08
3010.37
3023.94
3038.84
3055.13
3072.83
3092
3112.64
3134.78
3158.4
3183.48
3209.95
3237.72
3266.66
3296.85
3327.61
3358.94
3390.54
3422.09
3453.23
3483.58
3512.74
3540.29
3565.82
3588.9
3609.14
3626.16
3639.61
3649.21
3654.71
3655.95
3652.86
3645.49
3633.91
3618.27
3598.85
3575.98
3550.04
3521.46
3490.7
3458.23
3424.54
3390.1
3355.36
3320.75
3286.66
3253.51
3221.47
3190.85
3161.85
3134.63
3109.3
3085.94
3064.56
3045.16
3027.68
3012.07
2998.23
2986.08
2975.49
2966.39
2958.66
2952.23
2947.06
2943.08
2940.28
2938.63
2938.1
2938.67
2940.32
2943.07
2946.9
2951.85
2957.94
2965.2
2973.69
2983.46
2994.56
3007.04
3020.95
3036.34
3053.24
3071.69
3091.71
3113.29
3136.42
3161.08
3187.18
3214.64
3243.33
3273.55
3304.17
3335.42
3367
3398.58
3429.78
3460.2
3489.41
3516.96
3542.43
3565.36
3585.35
3602.02
3615.05
3624.15
3629.13
3629.86
3626.28
3618.5
3606.57
3590.72
3571.23
3548.45
3522.78
3494.68
3464.61
3433.08
3400.57
3367.53
3334.42
3301.61
3269.46
3238.26
3208.23
3179.55
3152.39
3126.83
3102.97
3080.85
3060.51
3041.94
3025.12
3010.04
2996.63
2984.8
2974.5
2965.63
2958.12
2951.93
2947.01
2943.31
2940.79
2939.38
2939.15
2940.09
2942.24
2945.65
2950.37
2956.47
2964.03
2973.12
2983.87
2996.36
3010.64
3026.82
3044.96
3065.07
3087.15
3111.19
3136.98
3164.42
3193.28
3224.76
3262.07
3298.58
3334.68
3370.63
3405.94
3440.46
3473.69
3505.23
3534.79
3561.92
3586.21
3607.36
3625.03
3638.95
3648.88
3654.67
3656.27
3655.18
3650.28
3641.37
3628.61
3612.19
3592.32
3569.33
3543.61
3515.5
3485.42
3453.85
3421.18
3387.82
3354.2
3320.69
3287.59
3255.08
3223.7
3193.64
3164.99
3137.87
3112.4
3088.61
3066.56
3046.25
3027.68
3010.83
2995.68
2982.2
2970.34
2960.07
2951.35
2944.15
2938.43
2934.14
2931.25
2929.73
3091.28
3120.17
3149.97
3180.52
3222.75
3255.73
3289.38
3323.07
3356.51
3389.42
3421.34
3451.77
3480.31
3506.45
3529.83
3550.06
3566.84
3579.92
3589.08
3594.2
3595.24
3592.25
3585.16
3574
3558.94
3540.23
3518.15
3493.04
3465.32
3435.36
3403.58
3370.44
3336.34
3301.71
3266.94
3232.4
3198.51
3165.9
3134.33
3104.07
3075.29
3048.15
3022.73
2999.11
2977.32
2957.38
2939.26
2922.94
2908.37
2895.53
2884.35
2874.79
2866.79
2860.3
2855.3
2851.75
2849.62
2848.9
2849.62
2851.75
2855.29
2860.26
2866.72
2874.68
2884.21
2895.38
2908.23
2922.81
2939.19
2957.37
2977.41
2999.29
3022.96
3048.38
3075.44
3104.01
3133.95
3165.07
3197.34
3230.46
3263.8
3297.14
3330.22
3362.73
3394.32
3424.63
3453.29
3479.9
3504.11
3525.54
3543.88
3558.84
3570.18
3577.74
3581.39
3581.05
3576.74
3568.55
3556.54
3540.88
3521.78
3499.49
3474.29
3446.51
3416.5
3384.64
3351.33
3316.99
3282.04
3246.9
3211.98
3177.66
3144.28
3112.12
3081.45
3052.44
3025.27
3000.01
2976.74
2955.47
2936.2
2918.91
2903.56
2890.09
2878.46
2868.61
2860.5
2854.08
2849.28
2846.06
2844.36
2844.12
2845.26
2847.74
2851.51
2856.53
2862.75
2870.18
2878.79
2888.6
2899.62
2911.88
2925.44
2940.32
2956.59
2974.28
2993.43
3014.06
3036.19
3059.81
3084.89
3111.38
3139.17
3168.13
3198.4
3229.21
3260.61
3292.29
3323.94
3355.19
3385.66
3414.94
3442.62
3468.28
3491.49
3511.85
3528.98
3542.53
3552.2
3557.75
3559.01
3555.93
3548.52
3536.87
3521.14
3501.61
3478.61
3452.53
3423.8
3392.9
3360.29
3326.46
3291.89
3257.03
3222.32
3188.14
3154.93
3122.83
3092.17
3063.14
3035.9
3010.58
2987.22
2965.86
2946.48
2929.03
2913.45
2899.65
2887.52
2876.97
2867.89
2860.18
2853.78
2848.62
2844.66
2841.86
2840.21
2839.69
2840.26
2841.92
2844.66
2848.49
2853.42
2859.5
2866.75
2875.23
2884.98
2896.06
2908.51
2922.41
2937.78
2954.67
2973.11
2993.11
3014.69
3037.82
3062.48
3088.6
3116.09
3144.84
3175.02
3205.74
3237.07
3268.74
3300.42
3331.74
3362.28
3391.62
3419.31
3444.91
3467.98
3488.09
3504.87
3517.99
3527.16
3532.18
3532.92
3529.33
3521.5
3509.5
3493.55
3473.95
3451.03
3425.22
3396.96
3366.75
3335.08
3302.43
3269.28
3236.06
3203.16
3170.94
3139.69
3109.62
3080.92
3053.74
3028.18
3004.32
2982.2
2961.87
2943.31
2926.52
2911.46
2898.07
2886.28
2876
2867.16
2859.67
2853.49
2848.58
2844.9
2842.38
2840.98
2840.74
2841.68
2843.81
2847.2
2851.89
2857.96
2865.49
2874.55
2885.27
2897.73
2911.98
2928.14
2946.27
2966.37
2988.45
3012.5
3038.3
3065.76
3094.62
3126.13
3163.62
3200.18
3236.35
3272.39
3307.8
3342.43
3375.8
3407.46
3437.16
3464.42
3488.84
3510.11
3527.88
3541.88
3551.88
3557.7
3559.31
3558.21
3553.27
3544.32
3531.48
3514.97
3494.98
3471.86
3446.01
3417.77
3387.56
3355.86
3323.07
3289.6
3255.88
3222.28
3189.12
3156.52
3125.1
3095.02
3066.34
3039.22
3013.74
2989.96
2967.91
2947.61
2929.06
2912.23
2897.1
2883.63
2871.78
2861.53
2852.82
2845.63
2839.92
2835.64
2832.75
2831.23
2992.59
3021.54
3051.41
3082.05
3124.03
3157.16
3190.96
3224.78
3258.35
3291.4
3323.48
3354.08
3382.78
3409.08
3432.61
3452.96
3469.85
3483.01
3492.24
3497.4
3498.44
3495.45
3488.31
3477.07
3461.91
3443.09
3420.87
3395.62
3367.74
3337.63
3305.71
3272.42
3238.18
3203.43
3168.55
3133.91
3099.94
3067.26
3035.64
3005.34
2976.53
2949.38
2923.96
2900.34
2878.57
2858.64
2840.54
2824.24
2809.7
2796.88
2785.72
2776.17
2768.19
2761.72
2756.74
2753.19
2751.07
2750.36
2751.08
2753.2
2756.73
2761.69
2768.13
2776.08
2785.58
2796.73
2809.55
2824.11
2840.46
2858.63
2878.66
2900.53
2924.21
2949.64
2976.73
3005.33
3035.32
3066.49
3098.82
3132.03
3165.46
3198.9
3232.08
3264.71
3296.42
3326.86
3355.65
3382.41
3406.74
3428.3
3446.75
3461.81
3473.23
3480.84
3484.51
3484.17
3479.84
3471.6
3459.53
3443.78
3424.58
3402.17
3376.85
3348.93
3318.78
3286.77
3253.32
3218.84
3183.76
3148.5
3113.47
3079.06
3045.6
3013.38
2982.66
2953.64
2926.44
2901.19
2877.92
2856.67
2837.42
2820.16
2804.83
2791.38
2779.77
2769.95
2761.86
2755.46
2750.68
2747.48
2745.8
2745.57
2746.73
2749.23
2753.01
2758.03
2764.26
2771.69
2780.29
2790.09
2801.09
2813.34
2826.88
2841.74
2857.99
2875.66
2894.79
2915.41
2937.53
2961.15
2986.24
3012.74
3040.56
3069.56
3099.87
3130.75
3162.24
3194.02
3225.78
3257.15
3287.75
3317.18
3345.01
3370.81
3394.17
3414.68
3431.94
3445.6
3455.35
3460.96
3462.25
3459.17
3451.72
3439.99
3424.16
3404.5
3381.35
3355.11
3326.21
3295.14
3262.36
3228.38
3193.66
3158.67
3123.84
3089.56
3056.28
3024.11
2993.4
2964.34
2937.09
2911.76
2888.41
2867.07
2847.72
2830.3
2814.75
2800.99
2788.9
2778.39
2769.34
2761.66
2755.28
2750.13
2746.18
2743.39
2741.76
2741.24
2741.81
2743.47
2746.21
2750.03
2754.96
2761.02
2768.25
2776.71
2786.44
2797.5
2809.93
2823.81
2839.16
2856.03
2874.45
2894.45
2916.01
2939.15
2963.81
2989.95
3017.47
3046.28
3076.45
3107.26
3138.68
3170.46
3202.25
3233.7
3264.38
3293.87
3321.72
3347.48
3370.7
3390.95
3407.86
3421.08
3430.32
3435.39
3436.15
3432.55
3424.66
3412.58
3396.52
3376.78
3353.71
3327.73
3299.31
3268.93
3237.09
3204.29
3171
3137.66
3104.67
3072.37
3041.05
3010.94
2982.21
2955.01
2929.44
2905.58
2883.47
2863.15
2844.61
2827.84
2812.81
2799.45
2787.69
2777.45
2768.63
2761.16
2755.01
2750.11
2746.44
2743.93
2742.53
2742.29
2743.21
2745.33
2748.69
2753.36
2759.4
2766.89
2775.91
2786.6
2799.02
2813.24
2829.37
2847.49
2867.58
2889.67
2913.72
2939.53
2967.01
2995.89
3027.41
3065.12
3101.75
3137.99
3174.12
3209.66
3244.42
3277.93
3309.74
3339.6
3367.02
3391.57
3412.98
3430.87
3444.97
3455.03
3460.9
3462.52
3461.4
3456.42
3447.41
3434.49
3417.87
3397.75
3374.49
3348.49
3320.09
3289.73
3257.89
3224.96
3191.36
3157.53
3123.83
3090.6
3057.89
3026.44
2996.32
2967.62
2940.48
2915
2891.22
2869.18
2848.9
2830.36
2813.55
2798.44
2784.99
2773.16
2762.92
2754.23
2747.05
2741.35
2737.08
2734.19
2732.67
2893.83
2922.83
2952.79
2983.56
3025.19
3058.53
3092.51
3126.46
3160.17
3193.39
3225.65
3256.44
3285.33
3311.81
3335.5
3355.99
3372.99
3386.26
3395.57
3400.76
3401.81
3398.81
3391.61
3380.3
3365.03
3346.06
3323.7
3298.28
3270.24
3239.96
3207.86
3174.41
3140.02
3105.13
3070.11
3035.37
3001.32
2968.55
2936.88
2906.53
2877.7
2850.53
2825.1
2801.49
2779.73
2759.82
2741.74
2725.46
2710.95
2698.15
2687.02
2677.49
2669.53
2663.08
2658.11
2654.58
2652.47
2651.78
2652.48
2654.6
2658.12
2663.06
2669.49
2677.41
2686.88
2698
2710.8
2725.33
2741.66
2759.81
2779.82
2801.7
2825.38
2850.83
2877.94
2906.58
2936.61
2967.84
3000.25
3033.57
3067.09
3100.64
3133.94
3166.69
3198.54
3229.13
3258.07
3284.98
3309.47
3331.17
3349.75
3364.91
3376.42
3384.08
3387.79
3387.46
3383.1
3374.81
3362.65
3346.81
3327.49
3304.95
3279.48
3251.41
3221.1
3188.93
3155.32
3120.68
3085.45
3050.06
3014.9
2980.39
2946.85
2914.56
2883.8
2854.74
2827.53
2802.27
2779.01
2757.78
2738.56
2721.32
2706.01
2692.6
2681.01
2671.21
2663.15
2656.77
2652.02
2648.84
2647.18
2646.97
2648.15
2650.66
2654.46
2659.49
2665.73
2673.15
2681.75
2691.53
2702.52
2714.75
2728.26
2743.1
2759.33
2776.97
2796.08
2816.69
2838.8
2862.42
2887.51
2914.03
2941.88
2970.94
3001.28
3032.25
3063.83
3095.72
3127.61
3159.12
3189.87
3219.46
3247.45
3273.43
3296.95
3317.62
3335.02
3348.81
3358.67
3364.34
3365.65
3362.57
3355.08
3343.26
3327.31
3307.51
3284.19
3257.77
3228.69
3197.42
3164.46
3130.3
3095.42
3060.28
3025.32
2990.92
2957.56
2925.31
2894.55
2865.46
2838.19
2812.86
2789.52
2768.2
2748.87
2731.49
2715.99
2702.26
2690.22
2679.74
2670.73
2663.08
2656.72
2651.59
2647.66
2644.88
2643.25
2642.74
2643.32
2644.98
2647.71
2651.53
2656.44
2662.49
2669.71
2678.14
2687.85
2698.88
2711.29
2725.14
2740.47
2757.32
2775.73
2795.71
2817.26
2840.4
2865.07
2891.23
2918.79
2947.65
2977.83
3008.73
3040.25
3072.14
3104.07
3135.67
3166.51
3196.17
3224.2
3250.13
3273.52
3293.94
3310.99
3324.32
3333.65
3338.77
3339.55
3335.93
3327.98
3315.8
3299.62
3279.73
3256.49
3230.32
3201.71
3171.14
3139.12
3106.14
3072.7
3039.22
3006.12
2973.73
2942.35
2912.18
2883.42
2856.2
2830.62
2806.76
2784.66
2764.36
2745.84
2729.09
2714.1
2700.77
2689.04
2678.83
2670.04
2662.6
2656.47
2651.6
2647.93
2645.43
2644.04
2643.79
2644.71
2646.8
2650.14
2654.77
2660.77
2668.22
2677.2
2687.85
2700.23
2714.42
2730.52
2748.62
2768.7
2790.78
2814.85
2840.69
2868.18
2897.08
2928.61
2966.57
3003.27
3039.59
3075.84
3111.5
3146.41
3180.09
3212.07
3242.1
3269.69
3294.41
3315.97
3333.99
3348.2
3358.34
3364.26
3365.89
3364.75
3359.73
3350.66
3337.64
3320.89
3300.63
3277.21
3251.04
3222.47
3191.94
3159.93
3126.84
3093.1
3059.14
3025.34
2992.02
2959.19
2927.7
2897.54
2868.82
2841.67
2816.18
2792.4
2770.38
2750.11
2731.59
2714.8
2699.71
2686.28
2674.47
2664.25
2655.58
2648.41
2642.72
2638.46
2635.58
2634.05
2795
2824.06
2854.11
2885.08
2926.2
2959.83
2994.01
3028.12
3061.99
3095.39
3127.85
3158.85
3187.95
3214.63
3238.49
3259.14
3276.28
3289.66
3299.05
3304.29
3305.33
3302.34
3295.08
3283.67
3268.27
3249.16
3226.63
3201.03
3172.8
3142.33
3110.04
3076.41
3041.85
3006.79
2971.64
2936.77
2902.63
2869.77
2838.04
2807.64
2778.78
2751.59
2726.16
2702.56
2680.81
2660.92
2642.86
2626.61
2612.13
2599.36
2588.25
2578.75
2570.81
2564.38
2559.43
2555.91
2553.82
2553.14
2553.82
2555.94
2559.45
2564.38
2570.78
2578.68
2588.12
2599.21
2611.98
2626.48
2642.78
2660.91
2680.91
2702.78
2726.47
2751.93
2779.07
2807.76
2837.84
2869.13
2901.62
2935.06
2968.69
3002.35
3035.79
3068.68
3100.69
3131.44
3160.55
3187.63
3212.29
3234.15
3252.87
3268.15
3279.75
3287.48
3291.22
3290.89
3286.51
3278.16
3265.92
3249.96
3230.52
3207.83
3182.2
3153.96
3123.47
3091.12
3057.33
3022.52
2987.12
2951.58
2916.29
2881.66
2848.02
2815.66
2784.84
2755.75
2728.52
2703.26
2680.01
2658.8
2639.6
2622.39
2607.12
2593.74
2582.18