/*--------------------------------*- C++ -*----------------------------------*\
| =========                 |                                                 |
| \\      /  F ield         | OpenFOAM: The Open Source CFD Toolbox           |
|  \\    /   O peration     | Version:  3.0.1                                 |
|   \\  /    A nd           | Web:      www.OpenFOAM.org                      |
|    \\/     M anipulation  |                                                 |
\*---------------------------------------------------------------------------*/
FoamFile
{
    version     2.0;
    format      ascii;
    class       surfaceScalarField;
    location    "35.6";
    object      alphaPhi;
}
// * * * * * * * * * * * * * * * * * * * * * * * * * * * * * * * * * * * * * //

dimensions      [0 3 -1 0 0 0 0];

internalField   nonuniform List<scalar> 
42423
(
-0.000123388
1.53335e-07
-0.000122936
-4.52225e-07
-0.000121856
-1.08008e-06
-0.000120137
-1.7187e-06
-0.000117702
-2.43476e-06
-0.000114595
-3.10699e-06
-0.000110609
-3.98605e-06
-0.000105914
-4.6955e-06
-0.000100603
-5.31047e-06
-9.42707e-05
-6.33249e-06
-8.71412e-05
-7.1295e-06
-7.90797e-05
-8.06153e-06
-7.00683e-05
-9.01141e-06
-6.01106e-05
-9.9578e-06
-4.90395e-05
-1.10711e-05
-3.70107e-05
-1.20288e-05
-2.40855e-05
-1.29253e-05
-1.00851e-05
-1.40004e-05
4.87302e-06
-1.49582e-05
2.06341e-05
-1.57612e-05
3.73081e-05
-1.6674e-05
5.48324e-05
-1.75244e-05
7.28071e-05
-1.79748e-05
9.13121e-05
-1.8505e-05
0.000110131
-1.88192e-05
0.000129053
-1.89221e-05
0.000147894
-1.88405e-05
0.000166213
-1.83197e-05
0.000183929
-1.77156e-05
0.000200749
-1.68201e-05
0.000216347
-1.55983e-05
0.000230506
-1.41591e-05
0.000242909
-1.24025e-05
0.000253417
-1.05079e-05
0.00026181
-8.39362e-06
0.000267841
-6.03105e-06
0.000271448
-3.60664e-06
0.000272542
-1.09415e-06
0.00027107
1.47181e-06
0.000267011
4.05975e-06
0.000260475
6.53559e-06
0.000251682
8.79247e-06
0.00024078
1.09023e-05
0.000227889
1.28907e-05
0.00021324
1.46494e-05
0.000197125
1.61148e-05
0.000179795
1.73303e-05
0.000161529
1.82659e-05
0.000142496
1.90327e-05
0.000123063
1.94329e-05
0.000103504
1.9559e-05
8.39884e-05
1.9516e-05
6.46505e-05
1.9338e-05
4.56858e-05
1.89647e-05
2.73222e-05
1.83636e-05
9.67732e-06
1.76449e-05
-7.23535e-06
1.69127e-05
-2.33053e-05
1.60699e-05
-3.84697e-05
1.51645e-05
-5.2714e-05
1.42442e-05
-6.59795e-05
1.32655e-05
-7.83107e-05
1.23312e-05
-8.96615e-05
1.13508e-05
-0.000100048
1.03867e-05
-0.000109545
9.49709e-06
-0.000118107
8.56128e-06
-0.000125759
7.65234e-06
-0.000132599
6.84049e-06
-0.000138547
5.9472e-06
-0.000143759
5.21243e-06
-0.000148196
4.43698e-06
-0.000151856
3.65975e-06
-0.000154839
2.98279e-06
-0.000157161
2.32267e-06
-0.00015872
1.55849e-06
-0.00015964
9.20065e-07
-0.000159866
2.25992e-07
-0.000159298
-5.67732e-07
-0.000158051
-1.247e-06
-0.000156015
-2.03645e-06
-0.00015319
-2.82516e-06
-0.000149552
-3.63749e-06
-0.000145051
-4.50174e-06
-0.000139567
-5.4837e-06
-0.00013307
-6.49711e-06
-0.000125452
-7.61817e-06
-0.000116735
-8.71749e-06
-0.000106688
-1.00467e-05
-9.54301e-05
-1.12582e-05
-8.27845e-05
-1.26456e-05
-6.90345e-05
-1.37502e-05
-5.40567e-05
-1.49778e-05
-3.80711e-05
-1.59857e-05
-2.1237e-05
-1.68342e-05
-3.64502e-06
-1.7592e-05
1.44632e-05
-1.81083e-05
3.30077e-05
-1.85445e-05
5.17979e-05
-1.87902e-05
7.07219e-05
-1.89241e-05
8.9629e-05
-1.89072e-05
0.000108293
-1.86636e-05
0.000126584
-1.82913e-05
0.000144288
-1.77041e-05
0.000161179
-1.68912e-05
0.000177075
-1.58958e-05
0.000191678
-1.46033e-05
0.000204784
-1.31063e-05
0.000216148
-1.13643e-05
0.000225536
-9.38772e-06
0.000232773
-7.23738e-06
0.000237733
-4.95983e-06
0.000240197
-2.46418e-06
0.000240251
-5.34954e-08
0.000237721
2.5295e-06
0.000232671
5.05082e-06
0.000225169
7.50191e-06
0.000215404
9.76448e-06
0.000203482
1.19222e-05
0.000189608
1.38736e-05
0.000174099
1.55092e-05
0.00015713
1.69697e-05
0.000138991
1.81387e-05
0.000120032
1.89593e-05
0.000100498
1.9534e-05
8.07061e-05
1.97915e-05
6.08254e-05
1.98807e-05
4.11816e-05
1.96438e-05
2.19376e-05
1.9244e-05
3.31951e-06
1.86181e-05
-1.45813e-05
1.79008e-05
-3.15851e-05
1.70038e-05
-4.76597e-05
1.60746e-05
-6.26974e-05
1.50377e-05
-7.66966e-05
1.39992e-05
-8.96335e-05
1.29369e-05
-0.000101512
1.18785e-05
-0.000112336
1.08241e-05
-0.000122133
9.79651e-06
-0.000130917
8.78423e-06
-0.000138709
7.79242e-06
-0.000145521
6.81207e-06
-0.00015143
5.90855e-06
-0.000156446
5.01596e-06
-0.000160599
4.15289e-06
-0.000163888
3.28903e-06
-0.000166365
2.47728e-06
-0.000168098
1.73277e-06
-0.000169108
1.0104e-06
-0.000169394
2.86191e-07
-0.000168959
-4.35112e-07
-0.000167898
-1.06167e-06
-0.000166169
-1.72857e-06
-0.000163813
-2.35554e-06
-0.000160786
-3.02753e-06
-0.00015704
-3.74635e-06
-0.000152689
-4.35055e-06
-0.000147514
-5.17447e-06
-0.000141731
-5.78315e-06
-0.000135103
-6.62877e-06
-0.000127799
-7.30356e-06
-0.000119668
-8.13128e-06
-0.000110695
-8.97324e-06
-0.000100923
-9.77171e-06
-9.02685e-05
-1.06543e-05
-7.88053e-05
-1.14632e-05
-6.64478e-05
-1.23576e-05
-5.32321e-05
-1.32157e-05
-3.9158e-05
-1.40742e-05
-2.42291e-05
-1.49289e-05
-8.59412e-06
-1.5635e-05
7.70979e-06
-1.6304e-05
2.4612e-05
-1.69022e-05
4.1939e-05
-1.73271e-05
5.95582e-05
-1.76193e-05
7.72738e-05
-1.77156e-05
9.49631e-05
-1.76893e-05
0.000112445
-1.74816e-05
0.000129405
-1.69607e-05
0.000145679
-1.62737e-05
0.000160961
-1.52824e-05
0.000175004
-1.40432e-05
0.000187556
-1.25514e-05
0.000198354
-1.07982e-05
0.00020712
-8.76582e-06
0.000213693
-6.57364e-06
0.000217909
-4.216e-06
0.000219672
-1.76314e-06
0.000218906
7.66364e-07
0.000215586
3.31977e-06
0.000209764
5.82271e-06
0.000201636
8.12703e-06
0.000191332
1.03043e-05
0.00017903
1.23017e-05
0.000165041
1.39899e-05
0.00014962
1.54203e-05
0.000133008
1.66122e-05
0.00011553
1.74785e-05
9.74449e-05
1.80847e-05
7.90109e-05
1.8434e-05
6.04728e-05
1.85382e-05
4.20167e-05
1.84561e-05
2.39308e-05
1.80859e-05
6.35381e-06
1.75769e-05
-1.05532e-05
1.6907e-05
-2.67205e-05
1.61673e-05
-4.20836e-05
1.53631e-05
-5.6518e-05
1.44345e-05
-7.00505e-05
1.35325e-05
-8.26518e-05
1.26013e-05
-9.43128e-05
1.1661e-05
-0.000105061
1.07483e-05
-0.000114898
9.83708e-06
-0.000123831
8.93299e-06
-0.000131878
8.04654e-06
-0.000139009
7.13133e-06
-0.000145243
6.2341e-06
-0.000150532
5.28853e-06
-0.000154949
4.41771e-06
-0.000158512
3.56223e-06
-0.000161199
2.68774e-06
-0.000163135
1.93535e-06
-0.000164301
1.16621e-06
-0.000164838
5.36713e-07
-0.00016458
-2.5801e-07
-0.00016368
-8.994e-07
-0.000162076
-1.60475e-06
-0.00015982
-2.25517e-06
-0.000157057
-2.76322e-06
-0.000153619
-3.43771e-06
-0.000149598
-4.02186e-06
-0.000144977
-4.62019e-06
-0.000139707
-5.27001e-06
-0.00013396
-5.7469e-06
-0.000127486
-6.47445e-06
-0.000120371
-7.11529e-06
-0.000112552
-7.81869e-06
-0.000104024
-8.52852e-06
-9.47406e-05
-9.28299e-06
-8.47369e-05
-1.00038e-05
-7.38709e-05
-1.0866e-05
-6.22938e-05
-1.15772e-05
-4.98735e-05
-1.24203e-05
-3.66364e-05
-1.32371e-05
-2.26537e-05
-1.39828e-05
-7.92339e-06
-1.47303e-05
7.4566e-06
-1.538e-05
2.34609e-05
-1.60043e-05
3.99703e-05
-1.65095e-05
5.68596e-05
-1.68893e-05
7.39615e-05
-1.71019e-05
9.11146e-05
-1.71531e-05
0.000108072
-1.69573e-05
0.000124587
-1.65149e-05
0.000140413
-1.58261e-05
0.000155312
-1.48991e-05
0.000168983
-1.36714e-05
0.000181154
-1.21708e-05
0.000191586
-1.04317e-05
0.000200068
-8.4827e-06
0.000206359
-6.29118e-06
0.000210329
-3.96956e-06
0.000211797
-1.46774e-06
0.000210861
9.35862e-07
0.000207346
3.515e-06
0.00020133
6.01576e-06
0.000193111
8.21905e-06
0.000182865
1.02459e-05
0.000170817
1.20475e-05
0.00015728
1.35373e-05
0.000142583
1.46968e-05
0.000127071
1.55117e-05
0.000111037
1.60333e-05
9.48254e-05
1.6212e-05
7.85644e-05
1.62609e-05
6.2476e-05
1.60883e-05
4.68145e-05
1.56615e-05
3.16106e-05
1.52039e-05
1.69807e-05
1.46299e-05
3.11202e-06
1.38686e-05
-1.05759e-05
1.36879e-05
-2.36451e-05
1.30692e-05
-3.5997e-05
1.23519e-05
-4.77215e-05
1.17244e-05
-5.88061e-05
1.10846e-05
-6.92225e-05
1.04165e-05
-7.90656e-05
9.84308e-06
-8.83125e-05
9.24691e-06
-9.68928e-05
8.58035e-06
-0.000104848
7.95503e-06
-0.000112091
7.24299e-06
-0.000118641
6.54992e-06
-0.000124478
5.83719e-06
-0.00012957
5.09177e-06
-0.000133945
4.37575e-06
-0.000137596
3.65061e-06
-0.000140526
2.92962e-06
-0.000142775
2.24937e-06
-0.000144356
1.58107e-06
-0.000145287
9.30575e-07
-0.000145602
3.15252e-07
-0.000145053
-5.49182e-07
-0.000143768
-1.28487e-06
-0.000141803
-1.96525e-06
-0.000139064
-2.73855e-06
-0.000135683
-3.38091e-06
-0.000131624
-4.05965e-06
-0.000126733
-4.89037e-06
-0.000121212
-5.52094e-06
-0.00011466
-6.55194e-06
-0.000107309
-7.35145e-06
-9.91146e-05
-8.19434e-06
-8.99612e-05
-9.15341e-06
-7.96661e-05
-1.0295e-05
-6.85664e-05
-1.10998e-05
-5.64212e-05
-1.21451e-05
-4.34062e-05
-1.3015e-05
-2.93192e-05
-1.4087e-05
-1.44298e-05
-1.48894e-05
1.00682e-06
-1.54366e-05
1.71537e-05
-1.61469e-05
3.38277e-05
-1.6674e-05
5.07835e-05
-1.69558e-05
6.79759e-05
-1.71924e-05
8.52464e-05
-1.72705e-05
0.000102408
-1.71621e-05
0.0001193
-1.68916e-05
0.000135638
-1.63381e-05
0.000151284
-1.56459e-05
0.000166035
-1.47507e-05
0.000179703
-1.36688e-05
0.000192091
-1.23873e-05
0.000203043
-1.0952e-05
0.000212417
-9.37486e-06
0.000220024
-7.60635e-06
0.000225745
-5.72103e-06
0.000229539
-3.79418e-06
0.00023134
-1.80139e-06
0.000231014
3.26446e-07
0.00022858
2.4339e-06
0.000224017
4.56324e-06
0.000217348
6.66908e-06
0.000208862
8.48531e-06
0.000198549
1.0313e-05
0.00018669
1.18589e-05
0.00017338
1.331e-05
0.00015881
1.45703e-05
0.000143191
1.56192e-05
0.000126721
1.64702e-05
0.000109651
1.70698e-05
9.21231e-05
1.75278e-05
7.4321e-05
1.78021e-05
5.65144e-05
1.78066e-05
3.88134e-05
1.77009e-05
2.1319e-05
1.74945e-05
4.34512e-06
1.69738e-05
-1.23332e-05
1.66783e-05
1.59615e-05
-0.000123417
3.10253e-07
-0.000122967
-9.01635e-07
-0.00012189
-2.15704e-06
-0.000120176
-3.43345e-06
-0.000117743
-4.86695e-06
-0.000114639
-6.21179e-06
-0.000110652
-7.97295e-06
-0.000105956
-9.39164e-06
-0.000100651
-1.06148e-05
-9.43153e-05
-1.26685e-05
-8.71704e-05
-1.42744e-05
-7.91267e-05
-1.61053e-05
-7.01128e-05
-1.80254e-05
-6.01616e-05
-1.9909e-05
-4.90881e-05
-2.21446e-05
-3.70582e-05
-2.40588e-05
-2.41267e-05
-2.58568e-05
-1.01243e-05
-2.80028e-05
4.83628e-06
-2.99189e-05
2.06029e-05
-3.15279e-05
3.72734e-05
-3.33445e-05
5.48073e-05
-3.50584e-05
7.27883e-05
-3.59558e-05
9.13135e-05
-3.70302e-05
0.000110142
-3.76482e-05
0.000129064
-3.78435e-05
0.000147926
-3.77032e-05
0.000166257
-3.66507e-05
0.000183982
-3.54403e-05
0.000200821
-3.36596e-05
0.000216434
-3.12113e-05
0.000230597
-2.83225e-05
0.000243017
-2.48218e-05
0.000253537
-2.10284e-05
0.00026193
-1.67865e-05
0.000267966
-1.20671e-05
0.000271584
-7.22497e-06
0.000272683
-2.1928e-06
0.000271194
2.96044e-06
0.000267131
8.12242e-06
0.000260597
1.30699e-05
0.000251796
1.75932e-05
0.000240887
2.18113e-05
0.000227988
2.57898e-05
0.000213325
2.93122e-05
0.000197204
3.22362e-05
0.000179858
3.46761e-05
0.000161585
3.65384e-05
0.000142545
3.80734e-05
0.000123091
3.88863e-05
0.00010352
3.91303e-05
8.39891e-05
3.90466e-05
6.46541e-05
3.8673e-05
4.56964e-05
3.79223e-05
2.73046e-05
3.67554e-05
9.65039e-06
3.52991e-05
-7.26687e-06
3.38299e-05
-2.33339e-05
3.21369e-05
-3.84994e-05
3.033e-05
-5.27478e-05
2.84926e-05
-6.60155e-05
2.65332e-05
-7.83476e-05
2.46633e-05
-8.96994e-05
2.27025e-05
-0.000100086
2.07735e-05
-0.000109585
1.89958e-05
-0.000118147
1.71238e-05
-0.000125799
1.53041e-05
-0.000132638
1.36792e-05
-0.000138584
1.18933e-05
-0.000143796
1.0424e-05
-0.000148233
8.87455e-06
-0.00015189
7.31686e-06
-0.000154867
5.95927e-06
-0.000157188
4.64334e-06
-0.000158749
3.11988e-06
-0.000159663
1.83404e-06
-0.000159885
4.47542e-07
-0.00015931
-1.1426e-06
-0.000158056
-2.50088e-06
-0.000156016
-4.07635e-06
-0.000153183
-5.65867e-06
-0.000149538
-7.28277e-06
-0.000145031
-9.008e-06
-0.000139547
-1.09684e-05
-0.000133043
-1.30009e-05
-0.000125424
-1.5237e-05
-0.000116716
-1.74256e-05
-0.00010668
-2.00836e-05
-9.542e-05
-2.25181e-05
-8.27825e-05
-2.52833e-05
-6.90378e-05
-2.74949e-05
-5.40703e-05
-2.99455e-05
-3.80814e-05
-3.19746e-05
-2.12548e-05
-3.36609e-05
-3.66448e-06
-3.51824e-05
1.44505e-05
-3.62233e-05
3.29936e-05
-3.70877e-05
5.17881e-05
-3.75848e-05
7.07174e-05
-3.78534e-05
8.96295e-05
-3.78193e-05
0.000108298
-3.73319e-05
0.000126611
-3.66046e-05
0.000144311
-3.54047e-05
0.000161216
-3.37957e-05
0.000177129
-3.1809e-05
0.00019176
-2.92342e-05
0.000204877
-2.62234e-05
0.000216248
-2.27353e-05
0.000225655
-1.87951e-05
0.000232902
-1.44839e-05
0.000237869
-9.92676e-06
0.000240345
-4.94015e-06
0.000240387
-9.59193e-08
0.000237847
5.06951e-06
0.0002328
1.00976e-05
0.000225295
1.50074e-05
0.000215518
1.95408e-05
0.000203591
2.38499e-05
0.000189696
2.77686e-05
0.000174164
3.10407e-05
0.000157169
3.3965e-05
0.000139027
3.62803e-05
0.00012005
3.79364e-05
0.000100494
3.90905e-05
8.06779e-05
3.96074e-05
6.07961e-05
3.97625e-05
4.11439e-05
3.9296e-05
2.18792e-05
3.85088e-05
3.24146e-06
3.72559e-05
-1.46557e-05
3.5798e-05
-3.16672e-05
3.40153e-05
-4.77474e-05
3.21548e-05
-6.27968e-05
3.00872e-05
-7.68086e-05
2.8011e-05
-8.97408e-05
2.58691e-05
-0.000101619
2.3757e-05
-0.000112445
2.16504e-05
-0.000122241
1.9592e-05
-0.00013103
1.75737e-05
-0.000138825
1.55875e-05
-0.000145642
1.36286e-05
-0.000151526
1.17931e-05
-0.000156557
1.00465e-05
-0.000160709
8.30474e-06
-0.000163994
6.57411e-06
-0.000166498
4.98175e-06
-0.000168221
3.4557e-06
-0.000169232
2.02088e-06
-0.000169507
5.61789e-07
-0.000169077
-8.65319e-07
-0.000168007
-2.13174e-06
-0.000166276
-3.45917e-06
-0.000163911
-4.72051e-06
-0.000160895
-6.04394e-06
-0.000157148
-7.49298e-06
-0.000152803
-8.69587e-06
-0.000147633
-1.03444e-05
-0.00014185
-1.15662e-05
-0.000135221
-1.3258e-05
-0.000127916
-1.46078e-05
-0.000119785
-1.62626e-05
-0.000110808
-1.79501e-05
-0.000101029
-1.95509e-05
-9.03692e-05
-2.13141e-05
-7.89007e-05
-2.29317e-05
-6.65376e-05
-2.47208e-05
-5.33197e-05
-2.64335e-05
-3.92302e-05
-2.81638e-05
-2.43108e-05
-2.98484e-05
-8.69031e-06
-3.12555e-05
7.64629e-06
-3.26406e-05
2.45661e-05
-3.38221e-05
4.18992e-05
-3.46602e-05
5.9538e-05
-3.52581e-05
7.72586e-05
-3.54363e-05
9.49595e-05
-3.53902e-05
0.000112457
-3.49789e-05
0.000129431
-3.39353e-05
0.000145715
-3.25577e-05
0.000161019
-3.05862e-05
0.000175078
-2.81021e-05
0.00018764
-2.51139e-05
0.000198449
-2.16075e-05
0.00020723
-1.75466e-05
0.000213823
-1.3166e-05
0.000218045
-8.4382e-06
0.000219817
-3.53566e-06
0.000219039
1.54483e-06
0.00021571
6.64899e-06
0.000209882
1.16499e-05
0.000201738
1.62713e-05
0.00019143
2.06126e-05
0.000179112
2.46193e-05
0.00016511
2.79919e-05
0.000149671
3.08594e-05
0.000133047
3.32364e-05
0.000115557
3.4969e-05
9.74432e-05
3.61982e-05
7.89868e-05
3.68904e-05
6.04359e-05
3.70892e-05
4.19861e-05
3.69059e-05
2.38849e-05
3.61871e-05
6.29071e-06
3.51712e-05
-1.0628e-05
3.38258e-05
-2.67949e-05
3.23342e-05
-4.21654e-05
3.07336e-05
-5.66126e-05
2.88817e-05
-7.01485e-05
2.70684e-05
-8.27489e-05
2.52017e-05
-9.44156e-05
2.33277e-05
-0.000105163
2.14957e-05
-0.000114999
1.96728e-05
-0.000123933
1.78677e-05
-0.000131979
1.60921e-05
-0.00013912
1.42728e-05
-0.000145357
1.24709e-05
-0.000150643
1.05748e-05
-0.000155056
8.8307e-06
-0.000158622
7.12749e-06
-0.000161319
5.3846e-06
-0.000163247
3.86385e-06
-0.000164389
2.30869e-06
-0.000164945
1.09179e-06
-0.000164687
-5.15943e-07
-0.000163763
-1.82274e-06
-0.00016219
-3.17812e-06
-0.000159931
-4.51436e-06
-0.00015716
-5.53393e-06
-0.000153713
-6.88427e-06
-0.000149706
-8.02912e-06
-0.000145085
-9.24138e-06
-0.000139809
-1.05455e-05
-0.000134068
-1.1488e-05
-0.000127597
-1.29462e-05
-0.000120467
-1.42451e-05
-0.000112653
-1.56323e-05
-0.000104129
-1.70528e-05
-9.4841e-05
-1.85708e-05
-8.48308e-05
-2.00141e-05
-7.40011e-05
-2.16956e-05
-6.2394e-05
-2.31843e-05
-4.9963e-05
-2.48513e-05
-3.67222e-05
-2.64778e-05
-2.27391e-05
-2.7966e-05
-7.96693e-06
-2.95025e-05
7.38647e-06
-3.07335e-05
2.34059e-05
-3.20238e-05
3.99291e-05
-3.30327e-05
5.68209e-05
-3.37812e-05
7.39364e-05
-3.42175e-05
9.11103e-05
-3.4327e-05
0.000108077
-3.39242e-05
0.000124611
-3.3049e-05
0.000140455
-3.16698e-05
0.000155357
-2.98014e-05
0.000169044
-2.73585e-05
0.000181237
-2.43634e-05
0.000191684
-2.0879e-05
0.000200179
-1.69776e-05
0.000206481
-1.25931e-05
0.00021046
-7.94853e-06
0.000211936
-2.94369e-06
0.00021099
1.88092e-06
0.000207473
7.03246e-06
0.000201455
1.20333e-05
0.00019323
1.64442e-05
0.000182969
2.05072e-05
0.00017091
2.41057e-05
0.000157361
2.70869e-05
0.000142647
2.94099e-05
0.000127117
3.10419e-05
0.000111066
3.2084e-05
9.48306e-05
3.24477e-05
7.8551e-05
3.25405e-05
6.24448e-05
3.21944e-05
4.6788e-05
3.13183e-05
3.15502e-05
3.04417e-05
1.69035e-05
2.92766e-05
3.04489e-06
2.77273e-05
-1.06743e-05
2.74071e-05
-2.37481e-05
2.6143e-05
-3.60985e-05
2.47023e-05
-4.7825e-05
2.34509e-05
-5.89095e-05
2.21692e-05
-6.93192e-05
2.08262e-05
-7.9158e-05
1.96818e-05
-8.84027e-05
1.84917e-05
-9.69791e-05
1.71568e-05
-0.000104929
1.59051e-05
-0.000112168
1.44814e-05
-0.000118714
1.30962e-05
-0.000124548
1.16714e-05
-0.000129638
1.01812e-05
-0.000134016
8.75449e-06
-0.000137672
7.30582e-06
-0.000140595
5.85331e-06
-0.000142838
4.49184e-06
-0.000144416
3.15969e-06
-0.00014534
1.8544e-06
-0.000145653
6.27882e-07
-0.000145104
-1.0975e-06
-0.000143817
-2.57195e-06
-0.000141855
-3.92811e-06
-0.000139116
-5.47753e-06
-0.000135745
-6.75109e-06
-0.000131689
-8.11562e-06
-0.000126804
-9.77614e-06
-0.000121272
-1.10528e-05
-0.000114726
-1.30975e-05
-0.000107374
-1.47035e-05
-9.91763e-05
-1.63923e-05
-8.9989e-05
-1.83407e-05
-7.97235e-05
-2.05606e-05
-6.86222e-05
-2.22011e-05
-5.64905e-05
-2.42769e-05
-4.34399e-05
-2.60656e-05
-2.936e-05
-2.8167e-05
-1.44654e-05
-2.9784e-05
9.71375e-07
-3.08735e-05
1.71241e-05
-3.22996e-05
3.38043e-05
-3.33542e-05
5.07688e-05
-3.39204e-05
6.79703e-05
-3.43939e-05
8.52546e-05
-3.45548e-05
0.000102427
-3.43349e-05
0.000119335
-3.37988e-05
0.000135679
-3.2683e-05
0.000151335
-3.13013e-05
0.000166106
-2.95214e-05
0.000179781
-2.73442e-05
0.000192175
-2.47811e-05
0.00020314
-2.19172e-05
0.000212517
-1.87523e-05
0.000220129
-1.52185e-05
0.000225868
-1.14602e-05
0.00022966
-7.58533e-06
0.000231456
-3.59832e-06
0.000231124
6.59237e-07
0.000228683
4.87438e-06
0.00022412
9.12675e-06
0.000217446
1.3343e-05
0.000208955
1.69754e-05
0.000198634
2.06346e-05
0.000186771
2.3722e-05
0.000173447
2.66335e-05
0.000158864
2.91533e-05
0.000143238
3.12451e-05
0.00012676
3.29487e-05
0.000109674
3.41555e-05
9.21396e-05
3.50619e-05
7.43284e-05
3.56133e-05
5.65147e-05
3.56202e-05
3.88029e-05
3.54127e-05
2.13026e-05
3.49948e-05
4.32158e-06
3.39548e-05
-1.23616e-05
3.33614e-05
3.19281e-05
-0.000123467
4.6698e-07
-0.000123018
-1.35019e-06
-0.000121943
-3.23265e-06
-0.000120231
-5.14528e-06
-0.000117801
-7.2963e-06
-0.000114699
-9.31421e-06
-0.000110712
-1.196e-05
-0.000106014
-1.40895e-05
-0.000100722
-1.59065e-05
-9.4375e-05
-1.90161e-05
-8.72344e-05
-2.14149e-05
-7.91938e-05
-2.4146e-05
-7.01829e-05
-2.70363e-05
-6.023e-05
-2.9862e-05
-4.91706e-05
-3.32041e-05
-3.71436e-05
-3.60857e-05
-2.41993e-05
-3.88012e-05
-1.01947e-05
-4.20074e-05
4.77311e-06
-4.48868e-05
2.0555e-05
-4.73098e-05
3.72346e-05
-5.00241e-05
5.47824e-05
-5.26063e-05
7.27745e-05
-5.39479e-05
9.13045e-05
-5.55602e-05
0.000110156
-5.64995e-05
0.000129097
-5.67844e-05
0.000147977
-5.65833e-05
0.000166327
-5.50011e-05
0.00018408
-5.31932e-05
0.000200935
-5.05148e-05
0.000216565
-4.68409e-05
0.000230752
-4.25102e-05
0.000243186
-3.72559e-05
0.00025372
-3.15623e-05
0.000262128
-2.5195e-05
0.000268184
-1.81229e-05
0.00027181
-1.08508e-05
0.000272903
-3.28563e-06
0.000271379
4.48402e-06
0.000267309
1.2192e-05
0.000260777
1.96025e-05
0.00025196
2.64097e-05
0.000241041
3.27308e-05
0.000228125
3.87058e-05
0.000213436
4.40004e-05
0.000197309
4.83634e-05
0.00017993
5.20549e-05
0.000161646
5.48226e-05
0.000142602
5.71174e-05
0.000123104
5.83843e-05
0.000103509
5.87249e-05
8.3949e-05
5.86069e-05
6.46275e-05
5.79945e-05
4.56931e-05
5.68567e-05
2.72527e-05
5.51958e-05
9.59295e-06
5.29587e-05
-7.32424e-06
5.07471e-05
-2.33991e-05
4.82117e-05
-3.85684e-05
4.54993e-05
-5.28187e-05
4.27429e-05
-6.60843e-05
3.97988e-05
-7.84138e-05
3.69928e-05
-8.97639e-05
3.40526e-05
-0.000100149
3.11589e-05
-0.000109644
2.84908e-05
-0.000118201
2.56807e-05
-0.000125849
2.29516e-05
-0.000132684
2.05149e-05
-0.000138621
1.78298e-05
-0.00014382
1.56235e-05
-0.000148249
1.33034e-05
-0.000151898
1.09657e-05
-0.000154879
8.93969e-06
-0.000157183
6.94796e-06
-0.000158735
4.67117e-06
-0.000159665
2.76434e-06
-0.000159887
6.69132e-07
-0.000159301
-1.72819e-06
-0.00015804
-3.76211e-06
-0.000155992
-6.12461e-06
-0.00015315
-8.50005e-06
-0.000149497
-1.09365e-05
-0.000144983
-1.35219e-05
-0.000139496
-1.64558e-05
-0.000132986
-1.95112e-05
-0.000125368
-2.28543e-05
-0.000116656
-2.61382e-05
-0.000106635
-3.01042e-05
-9.53898e-05
-3.37638e-05
-8.27706e-05
-3.79026e-05
-6.90291e-05
-4.12364e-05
-5.40714e-05
-4.49033e-05
-3.80972e-05
-4.79489e-05
-2.12917e-05
-5.04664e-05
-3.69867e-06
-5.27755e-05
1.44229e-05
-5.43449e-05
3.29599e-05
-5.56248e-05
5.17525e-05
-5.63775e-05
7.06851e-05
-5.6786e-05
8.96101e-05
-5.67443e-05
0.000108287
-5.60093e-05
0.000126597
-5.49143e-05
0.000144324
-5.31318e-05
0.000161246
-5.07181e-05
0.000177159
-4.77212e-05
0.000191822
-4.38981e-05
0.000204981
-3.9382e-05
0.000216366
-3.41199e-05
0.000225792
-2.82215e-05
0.000233051
-2.17432e-05
0.000238015
-1.48903e-05
0.000240502
-7.42779e-06
0.000240518
-1.1163e-07
0.000237981
7.60661e-06
0.000232936
1.51423e-05
0.000225421
2.25223e-05
0.000215621
2.93417e-05
0.000203683
3.57878e-05
0.000189773
4.16785e-05
0.000174212
4.66017e-05
0.00015718
5.09972e-05
0.000139029
5.44311e-05
0.000120031
5.69349e-05
0.000100461
5.86597e-05
8.06098e-05
5.94591e-05
6.07082e-05
5.96641e-05
4.10334e-05
5.89709e-05
2.17588e-05
5.77834e-05
3.10743e-06
5.59073e-05
-1.47906e-05
5.3696e-05
-3.18159e-05
5.10407e-05
-4.78969e-05
4.82358e-05
-6.29617e-05
4.51521e-05
-7.69673e-05
4.20166e-05
-8.99002e-05
3.8802e-05
-0.000101777
3.56335e-05
-0.000112598
3.24717e-05
-0.000122392
2.93862e-05
-0.000131185
2.63668e-05
-0.000138981
2.33834e-05
-0.000145793
2.0441e-05
-0.000151647
1.76466e-05
-0.000156703
1.51028e-05
-0.000160855
1.24567e-05
-0.000164148
9.86708e-06
-0.000166663
7.49636e-06
-0.000168367
5.16043e-06
-0.000169373
3.02689e-06
-0.000169643
8.31242e-07
-0.000169213
-1.2954e-06
-0.000168136
-3.20852e-06
-0.000166407
-5.18806e-06
-0.000164023
-7.10434e-06
-0.000161034
-9.03344e-06
-0.000157284
-1.12423e-05
-0.000152938
-1.30426e-05
-0.000147768
-1.55145e-05
-0.000141987
-1.73465e-05
-0.000135369
-1.98761e-05
-0.000128062
-2.19153e-05
-0.000119931
-2.43927e-05
-0.000110956
-2.69257e-05
-0.000101171
-2.9336e-05
-9.04918e-05
-3.1993e-05
-7.90294e-05
-3.43942e-05
-6.66661e-05
-3.70841e-05
-5.34367e-05
-3.96629e-05
-3.93153e-05
-4.22853e-05
-2.44468e-05
-4.47169e-05
-8.81798e-06
-4.68843e-05
7.55811e-06
-4.90167e-05
2.44904e-05
-5.07545e-05
4.18325e-05
-5.20024e-05
5.94797e-05
-5.29053e-05
7.7213e-05
-5.31697e-05
9.49252e-05
-5.31024e-05
0.00011244
-5.24934e-05
0.000129425
-5.09207e-05
0.000145737
-4.88699e-05
0.000161063
-4.5912e-05
0.000175139
-4.21786e-05
0.00018773
-3.77047e-05
0.000198569
-3.24464e-05
0.000207362
-2.63398e-05
0.000213968
-1.97715e-05
0.0002182
-1.26705e-05
0.000219982
-5.31811e-06
0.000219182
2.34541e-06
0.000215833
9.99714e-06
0.000209997
1.74864e-05
0.000201833
2.44348e-05
0.000191521
3.09251e-05
0.000179182
3.69582e-05
0.000165169
4.20046e-05
0.000149693
4.63361e-05
0.000133054
4.98754e-05
0.000115561
5.2462e-05
9.74027e-05
5.43563e-05
7.89247e-05
5.53685e-05
6.03505e-05
5.56633e-05
4.19047e-05
5.53518e-05
2.37796e-05
5.43122e-05
6.16831e-06
5.27825e-05
-1.07632e-05
5.07573e-05
-2.69261e-05
4.84972e-05
-4.23028e-05
4.61103e-05
-5.67568e-05
4.33357e-05
-7.02939e-05
4.06055e-05
-8.29002e-05
3.78081e-05
-9.45607e-05
3.49882e-05
-0.000105292
3.2227e-05
-0.000115128
2.95083e-05
-0.000124073
2.68133e-05
-0.000132133
2.41523e-05
-0.000139276
2.14159e-05
-0.000145507
1.87013e-05
-0.000150797
1.58653e-05
-0.000155209
1.32428e-05
-0.000158767
1.06854e-05
-0.000161465
8.0827e-06
-0.000163385
5.78348e-06
-0.00016451
3.43379e-06
-0.000165073
1.6552e-06
-0.000164829
-7.60718e-07
-0.000163884
-2.76706e-06
-0.000162322
-4.74069e-06
-0.000160053
-6.78332e-06
-0.000157281
-8.30609e-06
-0.000153821
-1.03437e-05
-0.000149829
-1.20211e-05
-0.000145199
-1.38714e-05
-0.000139975
-1.577e-05
-0.000134197
-1.72653e-05
-0.000127735
-1.94087e-05
-0.00012058
-2.13995e-05
-0.000112783
-2.34293e-05
-0.000104255
-2.55814e-05
-9.49684e-05
-2.78573e-05
-8.49555e-05
-3.0027e-05
-7.41571e-05
-3.2494e-05
-6.2526e-05
-3.48154e-05
-5.00818e-05
-3.72955e-05
-3.68336e-05
-3.9726e-05
-2.28461e-05
-4.19536e-05
-8.06427e-06
-4.42843e-05
7.28391e-06
-4.60817e-05
2.33118e-05
-4.80517e-05
3.98464e-05
-4.95673e-05
5.67496e-05
-5.06844e-05
7.38761e-05
-5.1344e-05
9.10684e-05
-5.15193e-05
0.000108056
-5.09116e-05
0.000124608
-4.96015e-05
0.000140467
-4.7529e-05
0.00015539
-4.47238e-05
0.000169104
-4.10731e-05
0.000181333
-3.65921e-05
0.000191801
-3.13473e-05
0.000200316
-2.54926e-05
0.000206647
-1.89241e-05
0.000210628
-1.19298e-05
0.00021211
-4.42529e-06
0.000211137
2.85424e-06
0.000207613
1.05556e-05
0.00020161
1.80362e-05
0.000193384
2.46703e-05
0.000183109
3.07826e-05
0.000171047
3.61672e-05
0.000157482
4.06517e-05
0.000142747
4.41453e-05
0.000127191
4.65974e-05
0.000111119
4.8156e-05
9.4854e-05
4.87126e-05
7.85429e-05
4.88515e-05
6.23931e-05
4.83442e-05
4.67208e-05
4.69905e-05
3.14547e-05
4.57078e-05
1.67807e-05
4.39505e-05
2.94722e-06
4.15607e-05
-1.0833e-05
4.11874e-05
-2.39136e-05
3.92236e-05
-3.62609e-05
3.70496e-05
-4.7987e-05
3.51771e-05
-5.90677e-05
3.32499e-05
-6.94669e-05
3.12254e-05
-7.92986e-05
2.95135e-05
-8.85365e-05
2.77296e-05
-9.71049e-05
2.57252e-05
-0.000105047
2.38475e-05
-0.000112278
2.17126e-05
-0.00011882
1.9638e-05
-0.000124651
1.75024e-05
-0.000129741
1.5271e-05
-0.000134121
1.31341e-05
-0.000137774
1.09594e-05
-0.000140703
8.78232e-06
-0.000142953
6.74222e-06
-0.000144523
4.72936e-06
-0.000145432
2.76353e-06
-0.000145718
9.13604e-07
-0.000145159
-1.65686e-06
-0.000143866
-3.86464e-06
-0.000141906
-5.88788e-06
-0.000139166
-8.21787e-06
-0.000135817
-1.00999e-05
-0.000131762
-1.21708e-05
-0.000126892
-1.46457e-05
-0.000121311
-1.66337e-05
-0.000114805
-1.96036e-05
-0.000107453
-2.20554e-05
-9.92563e-05
-2.45893e-05
-9.00403e-05
-2.75567e-05
-7.98008e-05
-3.08001e-05
-6.87005e-05
-3.33014e-05
-5.6566e-05
-3.64115e-05
-4.35008e-05
-3.91308e-05
-2.94235e-05
-4.22442e-05
-1.45217e-05
-4.46859e-05
9.22658e-07
-4.63178e-05
1.70898e-05
-4.84667e-05
3.37831e-05
-5.00476e-05
5.07627e-05
-5.09e-05
6.79787e-05
-5.161e-05
8.52776e-05
-5.18538e-05
0.000102469
-5.15265e-05
0.000119392
-5.07219e-05
0.000135756
-4.90466e-05
0.000151437
-4.6983e-05
0.000166221
-4.43049e-05
0.000179913
-4.10366e-05
0.000192329
-3.71964e-05
0.000203303
-3.2892e-05
0.000212696
-2.81455e-05
0.000220331
-2.28528e-05
0.000226072
-1.72012e-05
0.000229865
-1.13787e-05
0.000231678
-5.41099e-06
0.000231316
1.02038e-06
0.000228842
7.34864e-06
0.000224275
1.36938e-05
0.000217593
2.00255e-05
0.000209094
2.54742e-05
0.000198757
3.09709e-05
0.000186883
3.55959e-05
0.000173543
3.99738e-05
0.000158939
4.37572e-05
0.000143304
4.68804e-05
0.000126815
4.94372e-05
0.0001097
5.12704e-05
9.21574e-05
5.26049e-05
7.43321e-05
5.34386e-05
5.65085e-05
5.34438e-05
3.87775e-05
5.31437e-05
2.1268e-05
5.25043e-05
4.27393e-06
5.09488e-05
-1.24198e-05
5.00551e-05
4.79036e-05
-0.000123542
6.23693e-07
-0.000123095
-1.79766e-06
-0.000122021
-4.30631e-06
-0.000120314
-6.85227e-06
-0.000117889
-9.72159e-06
-0.00011479
-1.24128e-05
-0.000110802
-1.59477e-05
-0.000106101
-1.87908e-05
-0.000100831
-2.1177e-05
-9.44668e-05
-2.53799e-05
-8.73325e-05
-2.85492e-05
-7.92971e-05
-3.21814e-05
-7.02885e-05
-3.60449e-05
-6.03341e-05
-3.98165e-05
-4.93042e-05
-4.4234e-05
-3.72725e-05
-4.81174e-05
-2.43096e-05
-5.17642e-05
-1.03016e-05
-5.60154e-05
4.68324e-06
-5.98717e-05
2.04797e-05
-6.31064e-05
3.71792e-05
-6.67236e-05
5.4743e-05
-7.01702e-05
7.27536e-05
-7.19585e-05
9.13052e-05
-7.41119e-05
0.000110176
-7.53701e-05
0.000129142
-7.57503e-05
0.00014805
-7.54913e-05
0.000166441
-7.3393e-05
0.000184224
-7.09763e-05
0.000201107
-6.73979e-05
0.000216768
-6.25018e-05
0.000230985
-5.6727e-05
0.000243447
-4.97178e-05
0.000254004
-4.21192e-05
0.000262432
-3.36234e-05
0.000268513
-2.42038e-05
0.000272134
-1.44716e-05
0.000273224
-4.37547e-06
0.000271663
6.0449e-06
0.000267582
1.62729e-05
0.000261047
2.61373e-05
0.000252207
3.52495e-05
0.000241271
4.36665e-05
0.000228329
5.16479e-05
0.000213604
5.87255e-05
0.000197472
6.4495e-05
0.000180039
6.94886e-05
0.000161736
7.31252e-05
0.000142684
7.61697e-05
0.000123123
7.79447e-05
0.000103494
7.83536e-05
8.38966e-05
7.82048e-05
6.45856e-05
7.73055e-05
4.56296e-05
7.58127e-05
2.71766e-05
7.36487e-05
9.50805e-06
7.06273e-05
-7.41014e-06
6.76653e-05
-2.34937e-05
6.42953e-05
-3.86662e-05
6.06717e-05
-5.29191e-05
5.69959e-05
-6.61835e-05
5.30632e-05
-7.85123e-05
4.93216e-05
-8.98584e-05
4.53987e-05
-0.000100235
4.15358e-05
-0.000109724
3.79792e-05
-0.000118276
3.42325e-05
-0.000125912
3.05881e-05
-0.000132739
2.73418e-05
-0.000138664
2.37544e-05
-0.000143853
2.08127e-05
-0.000148278
1.77283e-05
-0.000151905
1.45933e-05
-0.00015486
1.18943e-05
-0.000157142
9.23036e-06
-0.000158687
6.21574e-06
-0.000159641
3.71846e-06
-0.000159878
9.06262e-07
-0.000159288
-2.3185e-06
-0.000158023
-5.0277e-06
-0.00015596
-8.1871e-06
-0.000153096
-1.13645e-05
-0.000149433
-1.45996e-05
-0.000144915
-1.80397e-05
-0.000139411
-2.19604e-05
-0.000132891
-2.60309e-05
-0.000125275
-3.04707e-05
-0.000116563
-3.48505e-05
-0.00010657
-4.00971e-05
-9.53406e-05
-4.49931e-05
-8.27557e-05
-5.04876e-05
-6.90199e-05
-5.49723e-05
-5.4075e-05
-5.98482e-05
-3.81205e-05
-6.39034e-05
-2.13443e-05
-6.72427e-05
-3.76127e-06
-7.03586e-05
1.43627e-05
-7.2469e-05
3.28925e-05
-7.41546e-05
5.16906e-05
-7.51756e-05
7.06503e-05
-7.57457e-05
8.95985e-05
-7.56925e-05
0.000108273
-7.46841e-05
0.000126595
-7.32362e-05
0.000144355
-7.08912e-05
0.000161282
-6.76457e-05