/*--------------------------------*- C++ -*----------------------------------*\
| =========                 |                                                 |
| \\      /  F ield         | OpenFOAM: The Open Source CFD Toolbox           |
|  \\    /   O peration     | Version:  3.0.1                                 |
|   \\  /    A nd           | Web:      www.OpenFOAM.org                      |
|    \\/     M anipulation  |                                                 |
\*---------------------------------------------------------------------------*/
FoamFile
{
    version     2.0;
    format      ascii;
    class       volVectorField;
    location    "8.2";
    object      U;
}
// * * * * * * * * * * * * * * * * * * * * * * * * * * * * * * * * * * * * * //

dimensions      [0 1 -1 0 0 0 0];

internalField   nonuniform List<vector> 
21420
(
(-0.0191495 0.00159188 0)
(-0.0314386 0.00150821 0)
(-0.0459709 0.00143557 0)
(-0.0598334 0.00135429 0)
(-0.0728811 0.00125531 0)
(-0.0850334 0.00116523 0)
(-0.096249 0.00106373 0)
(-0.106504 0.00097014 0)
(-0.115794 0.000875213 0)
(-0.124118 0.000776818 0)
(-0.131489 0.000684338 0)
(-0.137928 0.000593359 0)
(-0.143458 0.000503667 0)
(-0.14811 0.000418443 0)
(-0.151916 0.000335195 0)
(-0.154914 0.000254702 0)
(-0.157147 0.000176121 0)
(-0.158573 0.000104357 0)
(-0.15923 3.80246e-05 0)
(-0.159162 -3.777e-05 0)
(-0.15838 -0.000113815 0)
(-0.156874 -0.000187403 0)
(-0.154624 -0.000261384 0)
(-0.15162 -0.000337794 0)
(-0.147847 -0.000414246 0)
(-0.14329 -0.000495047 0)
(-0.137933 -0.000574333 0)
(-0.131752 -0.000655563 0)
(-0.124724 -0.000743952 0)
(-0.116847 -0.000825459 0)
(-0.10812 -0.000906065 0)
(-0.098541 -0.000995612 0)
(-0.0881537 -0.00106758 0)
(-0.0770105 -0.00114954 0)
(-0.065169 -0.00120787 0)
(-0.0527235 -0.00125744 0)
(-0.0397478 -0.00131571 0)
(-0.0262712 -0.00134572 0)
(-0.0125788 -0.00135995 0)
(0.0011855 -0.00138244 0)
(0.0150753 -0.0013768 0)
(0.0289178 -0.00137376 0)
(0.0425832 -0.00134537 0)
(0.0559415 -0.00130441 0)
(0.0688781 -0.00126327 0)
(0.081297 -0.00120464 0)
(0.0930969 -0.00113456 0)
(0.104185 -0.00106152 0)
(0.114486 -0.000977111 0)
(0.123917 -0.000879406 0)
(0.132367 -0.000783439 0)
(0.139783 -0.000673864 0)
(0.146105 -0.000558973 0)
(0.151255 -0.000434648 0)
(0.1551 -0.000298129 0)
(0.157539 -0.000164534 0)
(0.158535 -2.11106e-05 0)
(0.158104 0.000138222 0)
(0.156054 0.00029187 0)
(0.152349 0.000451166 0)
(0.146982 0.000596141 0)
(0.140095 0.000747172 0)
(0.131925 0.000894493 0)
(0.122352 0.00102048 0)
(0.111379 0.00113816 0)
(0.0992751 0.00124019 0)
(0.0862182 0.00131601 0)
(0.0725792 0.00138897 0)
(0.0584046 0.00143495 0)
(0.0436923 0.00146819 0)
(0.0287861 0.00147646 0)
(0.0138506 0.00146769 0)
(-0.000977418 0.00144993 0)
(-0.0154526 0.00140887 0)
(-0.0294234 0.00135307 0)
(-0.0427669 0.00128855 0)
(-0.0553311 0.00120641 0)
(-0.0670519 0.00112145 0)
(-0.0778496 0.00102633 0)
(-0.0876252 0.000928309 0)
(-0.0963771 0.00082386 0)
(-0.104145 0.000723153 0)
(-0.110865 0.000622353 0)
(-0.116563 0.000522975 0)
(-0.121317 0.000424104 0)
(-0.125105 0.000336338 0)
(-0.127978 0.000250249 0)
(-0.130076 0.000168865 0)
(-0.131418 9.64407e-05 0)
(-0.132056 3.4733e-05 0)
(-0.132006 -3.27743e-05 0)
(-0.131376 -8.69385e-05 0)
(-0.13025 -0.000134067 0)
(-0.128676 -0.000183278 0)
(-0.126612 -0.000222233 0)
(-0.124142 -0.000262713 0)
(-0.121335 -0.000298579 0)
(-0.118124 -0.000336894 0)
(-0.114544 -0.000376025 0)
(-0.110566 -0.000416641 0)
(-0.106149 -0.000459955 0)
(-0.101246 -0.000503716 0)
(-0.0958965 -0.000554875 0)
(-0.0900957 -0.000602037 0)
(-0.0837546 -0.000654108 0)
(-0.076858 -0.000710373 0)
(-0.0693867 -0.000764689 0)
(-0.0613912 -0.000819304 0)
(-0.052896 -0.000872934 0)
(-0.0438377 -0.000924468 0)
(-0.0342421 -0.000972438 0)
(-0.0241969 -0.00101643 0)
(-0.0137357 -0.00105705 0)
(-0.00290118 -0.00109078 0)
(0.00823517 -0.00111874 0)
(0.0196081 -0.00113495 0)
(0.0311216 -0.00114447 0)
(0.0426583 -0.0011469 0)
(0.054123 -0.00113295 0)
(0.0654313 -0.00110698 0)
(0.0764198 -0.00107066 0)
(0.086978 -0.00101973 0)
(0.0969491 -0.000957224 0)
(0.106214 -0.000881111 0)
(0.114663 -0.000794468 0)
(0.122178 -0.000693878 0)
(0.128639 -0.000582027 0)
(0.133923 -0.00046687 0)
(0.138004 -0.000340962 0)
(0.140795 -0.000212333 0)
(0.142239 -7.99107e-05 0)
(0.142381 4.97993e-05 0)
(0.141207 0.000183572 0)
(0.138688 0.000311539 0)
(0.134935 0.000432752 0)
(0.129995 0.000545813 0)
(0.123952 0.000651013 0)
(0.116905 0.000744471 0)
(0.108987 0.000823627 0)
(0.100328 0.000894265 0)
(0.091047 0.000947659 0)
(0.0812834 0.000987946 0)
(0.0711893 0.00101327 0)
(0.0609135 0.00102479 0)
(0.050577 0.00102364 0)
(0.0402941 0.00100695 0)
(0.0302383 0.000986981 0)
(0.0205061 0.000951241 0)
(0.0111349 0.000908649 0)
(0.00224245 0.000857872 0)
(-0.00611498 0.000801068 0)
(-0.0138869 0.000740653 0)
(-0.021033 0.000676538 0)
(-0.0275197 0.000610644 0)
(-0.03333 0.000543373 0)
(-0.0384678 0.000476182 0)
(-0.0429228 0.000408295 0)
(-0.0467064 0.000342435 0)
(-0.0498301 0.000277501 0)
(-0.0523136 0.000215194 0)
(-0.0541757 0.00015452 0)
(-0.0554491 9.83433e-05 0)
(-0.0561656 4.45635e-05 0)
(-0.0563519 -7.35609e-06 0)
(-0.0560354 -5.5244e-05 0)
(-0.0552466 -0.000100277 0)
(-0.0540209 -0.000142006 0)
(-0.052394 -0.000181294 0)
(-0.0503938 -0.000216686 0)
(-0.0480482 -0.000248506 0)
(-0.0453891 -0.000278187 0)
(-0.0424488 -0.000304463 0)
(-0.0392628 -0.000327294 0)
(-0.0358605 -0.000347263 0)
(-0.0322735 -0.00036424 0)
(-0.0285336 -0.000378406 0)
(-0.0246651 -0.000388725 0)
(-0.0206981 -0.000396866 0)
(-0.0166729 -0.000401475 0)
(-0.0126138 -0.000403797 0)
(-0.00854468 -0.000403213 0)
(-0.00449495 -0.000399717 0)
(-0.000493737 -0.000393875 0)
(0.00343464 -0.000385429 0)
(0.00726685 -0.000374532 0)
(0.0109786 -0.000361521 0)
(0.0145454 -0.000346417 0)
(0.0179487 -0.000328972 0)
(0.0211737 -0.00030996 0)
(0.0242011 -0.000289829 0)
(0.0270149 -0.000268031 0)
(0.0296043 -0.000245367 0)
(0.0319594 -0.000221738 0)
(0.0340711 -0.00019749 0)
(0.0359348 -0.000172557 0)
(0.0375503 -0.00014756 0)
(0.0389165 -0.000122864 0)
(0.0400319 -9.83455e-05 0)
(0.0409024 -7.42673e-05 0)
(0.0415336 -5.08669e-05 0)
(0.0419321 -2.84793e-05 0)
(0.0421066 -6.72317e-06 0)
(0.0420727 1.36158e-05 0)
(0.0418395 3.28432e-05 0)
(0.0414176 5.07196e-05 0)
(0.0408218 6.72293e-05 0)
(0.0400671 8.23555e-05 0)
(0.0391646 9.5998e-05 0)
(0.0381333 0.000108522 0)
(0.0369893 0.000118957 0)
(0.0357431 0.000128113 0)
(0.0344118 0.000135808 0)
(0.0330103 0.000142025 0)
(0.0315502 0.00014696 0)
(0.0300492 0.000150771 0)
(0.028521 0.000152854 0)
(0.0269737 0.00015395 0)
(0.0254211 0.000153938 0)
(0.0238718 0.000152814 0)
(0.022337 0.000151436 0)
(0.0208277 0.000148378 0)
(0.0193492 0.000144926 0)
(0.0179083 0.000140809 0)
(0.0165108 0.000136098 0)
(0.0151617 0.000131268 0)
(0.0138676 0.000125624 0)
(0.0126311 0.000119802 0)
(0.0114532 0.000113766 0)
(0.0103358 0.000107491 0)
(0.00928107 0.000101593 0)
(0.00829147 9.50255e-05 0)
(0.00736559 8.87387e-05 0)
(0.00650213 8.24445e-05 0)
(0.00569928 7.63041e-05 0)
(0.00495933 7.05363e-05 0)
(0.00428067 6.45057e-05 0)
(0.00365865 5.88384e-05 0)
(0.00309114 5.33016e-05 0)
(0.00257778 4.8498e-05 0)
(0.00211729 4.32747e-05 0)
(0.0017048 3.85678e-05 0)
(0.00133702 3.40374e-05 0)
(0.00101286 3.02384e-05 0)
(0.000730724 2.60899e-05 0)
(0.000486187 2.24522e-05 0)
(0.000275001 1.90304e-05 0)
(9.83191e-05 1.61942e-05 0)
(-4.72839e-05 1.32916e-05 0)
(-0.000167839 1.06859e-05 0)
(-0.000263563 8.33921e-06 0)
(-0.00033687 6.22728e-06 0)
(-0.000390069 4.34449e-06 0)
(-0.000425367 2.66472e-06 0)
(-0.000444765 1.1875e-06 0)
(-0.000450179 -1.04271e-07 0)
(-0.000443475 -1.21848e-06 0)
(-0.000426342 -2.17832e-06 0)
(-0.000400288 -2.98757e-06 0)
(-0.000366646 -3.6571e-06 0)
(-0.00032694 -4.21584e-06 0)
(-0.000282368 -4.64588e-06 0)
(-0.000233823 -4.97447e-06 0)
(-0.000182424 -5.20813e-06 0)
(-0.000129047 -5.35911e-06 0)
(-7.45454e-05 -5.43341e-06 0)
(-1.94398e-05 -5.44828e-06 0)
(3.5658e-05 -5.39822e-06 0)
(9.00212e-05 -5.29936e-06 0)
(0.000143251 -5.15782e-06 0)
(0.000194948 -4.97985e-06 0)
(0.000244769 -4.7714e-06 0)
(0.000292431 -4.53798e-06 0)
(0.000337698 -4.28449e-06 0)
(0.000380382 -4.01518e-06 0)
(0.000420337 -3.73397e-06 0)
(0.000457453 -3.44468e-06 0)
(0.000491659 -3.15079e-06 0)
(0.000522915 -2.8554e-06 0)
(0.000551212 -2.56104e-06 0)
(0.000576558 -2.27036e-06 0)
(0.000598989 -1.98595e-06 0)
(0.000618561 -1.70577e-06 0)
(0.000635333 -1.43256e-06 0)
(0.000649366 -1.16764e-06 0)
(0.000660728 -9.11533e-07 0)
(0.000669497 -6.62608e-07 0)
(0.000675751 -4.25221e-07 0)
(0.000679566 -2.01579e-07 0)
(0.000681147 4.48049e-09 0)
(0.000680751 2.00646e-07 0)
(0.000678489 3.84556e-07 0)
(0.000674431 5.55947e-07 0)
(0.000668689 7.149e-07 0)
(0.000661381 8.61189e-07 0)
(0.000652633 9.94308e-07 0)
(0.000642577 1.11398e-06 0)
(0.00063135 1.22032e-06 0)
(0.000619081 1.31414e-06 0)
(0.000605895 1.39606e-06 0)
(0.000591907 1.46678e-06 0)
(0.000577229 1.52677e-06 0)
(0.000561967 1.57651e-06 0)
(0.000546221 1.61637e-06 0)
(0.000530094 1.64667e-06 0)
(0.000513681 1.66805e-06 0)
(0.000497068 1.68135e-06 0)
(0.000480336 1.68739e-06 0)
(0.000463554 1.68696e-06 0)
(0.000446786 1.6806e-06 0)
(0.00043009 1.66886e-06 0)
(0.00041352 1.65214e-06 0)
(0.000397125 1.63081e-06 0)
(0.000380951 1.60536e-06 0)
(0.000365039 1.57632e-06 0)
(0.000349423 1.54421e-06 0)
(0.000334134 1.50953e-06 0)
(0.000319194 1.47267e-06 0)
(0.000304626 1.43405e-06 0)
(0.000290447 1.39398e-06 0)
(0.000276669 1.35275e-06 0)
(0.000263305 1.31065e-06 0)
(0.000250362 1.26786e-06 0)
(0.000237847 1.22458e-06 0)
(0.000225765 1.18102e-06 0)
(0.000214118 1.13738e-06 0)
(0.000202906 1.09387e-06 0)
(0.000192128 1.05065e-06 0)
(0.000181779 1.00786e-06 0)
(0.000171857 9.65627e-07 0)
(0.000162354 9.24036e-07 0)
(0.000153265 8.83177e-07 0)
(0.000144581 8.43152e-07 0)
(0.000136295 8.0405e-07 0)
(0.000128396 7.65943e-07 0)
(0.000120874 7.28904e-07 0)
(0.000113719 6.9297e-07 0)
(0.000106919 6.58177e-07 0)
(0.000100463 6.24543e-07 0)
(9.4339e-05 5.92083e-07 0)
(8.85356e-05 5.60817e-07 0)
(8.30406e-05 5.30755e-07 0)
(7.78419e-05 5.01904e-07 0)
(7.29274e-05 4.74269e-07 0)
(6.82849e-05 4.47838e-07 0)
(6.39023e-05 4.22603e-07 0)
(5.97678e-05 3.9854e-07 0)
(5.58697e-05 3.75624e-07 0)
(5.21966e-05 3.53826e-07 0)
(4.87374e-05 3.33109e-07 0)
(4.54814e-05 3.13435e-07 0)
(4.24183e-05 2.94769e-07 0)
(3.95381e-05 2.77068e-07 0)
(3.68309e-05 2.60291e-07 0)
(3.42877e-05 2.44392e-07 0)
(3.18999e-05 2.29324e-07 0)
(2.96598e-05 2.15042e-07 0)
(2.7086e-05 2.015e-07 0)
(-0.0191765 0.00477605 0)
(-0.0314667 0.00452496 0)
(-0.0460021 0.00430695 0)
(-0.0598671 0.00406308 0)
(-0.072916 0.0037661 0)
(-0.0850696 0.00349585 0)
(-0.0962854 0.00319128 0)
(-0.106541 0.0029105 0)
(-0.115831 0.00262567 0)
(-0.124155 0.00233044 0)
(-0.131525 0.002053 0)
(-0.137962 0.00178007 0)
(-0.143491 0.00151099 0)
(-0.148142 0.00125529 0)
(-0.151947 0.00100557 0)
(-0.154944 0.000764216 0)
(-0.157174 0.000529698 0)
(-0.1586 0.000316767 0)
(-0.159263 0.000110948 0)
(-0.159192 -0.000115179 0)
(-0.158411 -0.000341398 0)
(-0.156905 -0.000562088 0)
(-0.154655 -0.000784014 0)
(-0.151652 -0.0010132 0)
(-0.14788 -0.00124255 0)
(-0.143325 -0.00148498 0)
(-0.137969 -0.00172281 0)
(-0.13179 -0.0019665 0)
(-0.124763 -0.00223163 0)
(-0.116886 -0.0024763 0)
(-0.108159 -0.00271815 0)
(-0.0985801 -0.00298687 0)
(-0.0881917 -0.00320286 0)
(-0.0770473 -0.00344882 0)
(-0.0652032 -0.00362386 0)
(-0.052755 -0.00377264 0)
(-0.0397763 -0.00394751 0)
(-0.0262954 -0.00403769 0)
(-0.0125989 -0.00408025 0)
(0.00116917 -0.00414776 0)
(0.0150623 -0.00413138 0)
(0.0289102 -0.00412181 0)
(0.0425806 -0.00403631 0)
(0.055944 -0.00391387 0)
(0.068886 -0.00379084 0)
(0.0813099 -0.00361508 0)
(0.0931153 -0.00340481 0)
(0.104209 -0.00318582 0)
(0.114518 -0.00293212 0)
(0.123947 -0.00264396 0)
(0.132411 -0.00235112 0)
(0.139833 -0.00202187 0)
(0.146167 -0.00167356 0)
(0.151321 -0.0013048 0)
(0.155171 -0.000897299 0)
(0.157618 -0.000494814 0)
(0.158622 -6.51567e-05 0)
(0.158194 0.00041353 0)
(0.156146 0.00087477 0)
(0.152445 0.00135408 0)
(0.147078 0.00178794 0)
(0.140191 0.00224147 0)
(0.132015 0.0026846 0)
(0.122436 0.00306205 0)
(0.111458 0.00341564 0)
(0.0993422 0.00372246 0)
(0.0862751 0.00394759 0)
(0.0726286 0.0041683 0)
(0.058443 0.00430777 0)
(0.0437187 0.00440504 0)
(0.0287999 0.00443432 0)
(0.0138513 0.00440485 0)
(-0.000984208 0.0043494 0)
(-0.0154745 0.00422908 0)
(-0.0294542 0.00406336 0)
(-0.0428097 0.00386328 0)
(-0.0553811 0.00362211 0)
(-0.0671116 0.00336704 0)
(-0.0779133 0.00307969 0)
(-0.0876959 0.00278458 0)
(-0.096453 0.00247336 0)
(-0.104223 0.00216978 0)
(-0.110944 0.00186901 0)
(-0.116647 0.00156779 0)
(-0.121399 0.0012733 0)
(-0.125187 0.00100797 0)
(-0.12806 0.0007509 0)
(-0.130155 0.000508806 0)
(-0.131495 0.000290298 0)
(-0.132134 0.000100939 0)
(-0.13208 -9.89708e-05 0)
(-0.131448 -0.000262258 0)
(-0.130325 -0.000407075 0)
(-0.128741 -0.000549745 0)
(-0.126672 -0.000662494 0)
(-0.124202 -0.000789344 0)
(-0.121395 -0.000897211 0)
(-0.118195 -0.00101696 0)
(-0.114599 -0.00112777 0)
(-0.110622 -0.00124712 0)
(-0.106204 -0.00137841 0)
(-0.101301 -0.00151287 0)
(-0.0959504 -0.00166607 0)
(-0.0901521 -0.00180937 0)
(-0.0838119 -0.00196739 0)
(-0.0769057 -0.00212687 0)
(-0.0694327 -0.00229345 0)
(-0.0614356 -0.00246097 0)
(-0.052936 -0.00261831 0)
(-0.0438752 -0.00277619 0)
(-0.0342753 -0.00291827 0)
(-0.024226 -0.00305049 0)
(-0.0137576 -0.00317344 0)
(-0.00291833 -0.00327541 0)
(0.008228 -0.0033548 0)
(0.0195958 -0.00341461 0)
(0.0311295 -0.00343168 0)
(0.0426727 -0.00344071 0)
(0.0541471 -0.00339889 0)
(0.0654603 -0.00332328 0)
(0.0764565 -0.00321482 0)
(0.0870231 -0.00306104 0)
(0.0970043 -0.00287285 0)
(0.106278 -0.00264441 0)
(0.114732 -0.00238556 0)
(0.122255 -0.00208268 0)
(0.128711 -0.00175441 0)
(0.134018 -0.00139516 0)
(0.138097 -0.00102255 0)
(0.140887 -0.000639503 0)
(0.142334 -0.000239497 0)
(0.142475 0.000149072 0)
(0.141297 0.000551012 0)
(0.138778 0.000934673 0)
(0.135021 0.00129882 0)
(0.130077 0.00163929 0)
(0.124026 0.00195323 0)
(0.116973 0.00223433 0)
(0.109048 0.00247199 0)
(0.100382 0.00268379 0)
(0.091092 0.00284482 0)
(0.0813179 0.00296482 0)
(0.0712178 0.00304163 0)
(0.0609328 0.00307577 0)
(0.0505879 0.00307183 0)
(0.0402988 0.00302192 0)
(0.0302369 0.00296281 0)
(0.0204966 0.00285544 0)
(0.0111177 0.00272565 0)
(0.00222224 0.0025742 0)
(-0.00613867 0.00240454 0)
(-0.0139147 0.00222245 0)
(-0.0210632 0.00203024 0)
(-0.0275518 0.00183361 0)
(-0.033367 0.00162971 0)
(-0.038504 0.00142873 0)
(-0.0429601 0.00122507 0)
(-0.0467445 0.0010271 0)
(-0.0498671 0.000833076 0)
(-0.052351 0.000645574 0)
(-0.0542113 0.000464957 0)
(-0.055488 0.000293974 0)
(-0.0562007 0.00013348 0)
(-0.056386 -2.22025e-05 0)
(-0.0560681 -0.000165955 0)
(-0.0552784 -0.000301315 0)
(-0.0540505 -0.000425966 0)
(-0.0524223 -0.000544072 0)
(-0.0504202 -0.000650392 0)
(-0.0480729 -0.000746032 0)
(-0.0454121 -0.0008349 0)
(-0.0424697 -0.000913792 0)
(-0.0392816 -0.000982235 0)
(-0.035878 -0.00104263 0)
(-0.0322879 -0.00109275 0)
(-0.0285461 -0.00113557 0)
(-0.0246756 -0.0011666 0)
(-0.0207065 -0.00119111 0)
(-0.0166791 -0.0012049 0)
(-0.0126179 -0.00121186 0)
(-0.00854656 -0.00121003 0)
(-0.0044954 -0.00119999 0)
(-0.000491234 -0.00118179 0)
(0.00343894 -0.00115652 0)
(0.00727291 -0.001124 0)
(0.0109864 -0.00108499 0)
(0.014555 -0.0010397 0)
(0.01796 -0.000987286 0)
(0.0211864 -0.000930195 0)
(0.0242152 -0.00086976 0)
(0.0270297 -0.000804709 0)
(0.0296211 -0.000735978 0)
(0.0319768 -0.000665375 0)
(0.0340892 -0.000592658 0)
(0.0359536 -0.000517938 0)
(0.0375695 -0.0004428 0)
(0.038936 -0.000368711 0)
(0.0400516 -0.000295101 0)
(0.0409219 -0.000222933 0)
(0.0415529 -0.000152729 0)
(0.0419517 -8.51331e-05 0)
(0.0421256 -2.03659e-05 0)
(0.0420911 4.1e-05 0)
(0.0418574 9.86072e-05 0)
(0.0414349 0.000152247 0)
(0.0408384 0.000201795 0)
(0.040083 0.000247193 0)
(0.0391797 0.000288091 0)
(0.0381475 0.000325725 0)
(0.0370026 0.000357022 0)
(0.0357555 0.000384498 0)
(0.0344233 0.000407589 0)
(0.0330209 0.00042625 0)
(0.0315599 0.000441013 0)
(0.030058 0.000452492 0)
(0.0285288 0.00045873 0)
(0.0269808 0.000462015 0)
(0.0254273 0.000461978 0)
(0.0238773 0.000458666 0)
(0.0223417 0.000454357 0)
(0.0208316 0.000445294 0)
(0.0193526 0.000434919 0)
(0.0179111 0.000422559 0)
(0.016513 0.000408437 0)
(0.0151634 0.000393859 0)
(0.0138689 0.000377018 0)
(0.0126319 0.000359508 0)
(0.0114536 0.000341397 0)
(0.010336 0.000322602 0)
(0.00928094 0.000304798 0)
(0.00829101 0.000285164 0)
(0.00736495 0.000266283 0)
(0.0065013 0.000247397 0)
(0.00569836 0.000228948 0)
(0.00495824 0.000211667 0)
(0.00427943 0.000193561 0)
(0.00365736 0.000176557 0)
(0.00308987 0.000159951 0)
(0.00257644 0.000145496 0)
(0.00211586 0.000129851 0)
(0.0017034 0.000115726 0)
(0.00133571 0.000102173 0)
(0.00101155 9.06706e-05 0)
(0.000729369 7.82871e-05 0)
(0.000484915 6.73678e-05 0)
(0.000273834 5.7079e-05 0)
(9.72107e-05 4.85997e-05 0)
(-4.83831e-05 3.98727e-05 0)
(-0.000168859 3.20554e-05 0)
(-0.00026451 2.50147e-05 0)
(-0.000337743 1.86779e-05 0)
(-0.000390871 1.30286e-05 0)
(-0.000426097 7.98828e-06 0)
(-0.000445423 3.55612e-06 0)
(-0.000450767 -3.19652e-07 0)
(-0.000443996 -3.66264e-06 0)
(-0.000426799 -6.54257e-06 0)
(-0.000400681 -8.97042e-06 0)
(-0.000366981 -1.09778e-05 0)
(-0.000327219 -1.26565e-05 0)
(-0.00028259 -1.39452e-05 0)
(-0.000233994 -1.49308e-05 0)
(-0.000182547 -1.56316e-05 0)
(-0.000129126 -1.60842e-05 0)
(-7.4584e-05 -1.63065e-05 0)
(-1.94406e-05 -1.6351e-05 0)
(3.56928e-05 -1.62001e-05 0)
(9.00866e-05 -1.59031e-05 0)
(0.000143344 -1.54781e-05 0)
(0.000195065 -1.49437e-05 0)
(0.000244909 -1.4318e-05 0)
(0.000292589 -1.36173e-05 0)
(0.000337872 -1.28563e-05 0)
(0.000380569 -1.2048e-05 0)
(0.000420535 -1.12041e-05 0)
(0.000457659 -1.03358e-05 0)
(0.00049187 -9.45377e-06 0)
(0.00052313 -8.5673e-06 0)
(0.000551429 -7.68413e-06 0)
(0.000576775 -6.81206e-06 0)
(0.000599204 -5.95792e-06 0)
(0.000618774 -5.11722e-06 0)
(0.000635542 -4.29766e-06 0)
(0.00064957 -3.5024e-06 0)
(0.000660926 -2.73385e-06 0)
(0.000669689 -1.98687e-06 0)
(0.000675935 -1.2746e-06 0)
(0.000679739 -6.03665e-07 0)
(0.000681311 1.46307e-08 0)
(0.000680907 6.03088e-07 0)
(0.000678636 1.15486e-06 0)
(0.00067457 1.66921e-06 0)
(0.000668818 2.14607e-06 0)
(0.000661502 2.58478e-06 0)
(0.000652744 2.98418e-06 0)
(0.00064268 3.34321e-06 0)
(0.000631444 3.66216e-06 0)
(0.000619167 3.94354e-06 0)
(0.000605973 4.18923e-06 0)
(0.000591979 4.40137e-06 0)
(0.000577294 4.58127e-06 0)
(0.000562025 4.73042e-06 0)
(0.000546273 4.84995e-06 0)
(0.00053014 4.94081e-06 0)
(0.000513721 5.00487e-06 0)
(0.000497103 5.04472e-06 0)
(0.000480366 5.06277e-06 0)
(0.000463579 5.06143e-06 0)
(0.000446807 5.04231e-06 0)
(0.000430108 5.00705e-06 0)
(0.000413534 4.95686e-06 0)
(0.000397136 4.89283e-06 0)
(0.00038096 4.81645e-06 0)
(0.000365045 4.7293e-06 0)
(0.000349427 4.63292e-06 0)
(0.000334135 4.52886e-06 0)
(0.000319193 4.41826e-06 0)
(0.000304624 4.30235e-06 0)
(0.000290442 4.18213e-06 0)
(0.000276664 4.05843e-06 0)
(0.000263298 3.9321e-06 0)
(0.000250354 3.80371e-06 0)
(0.000237838 3.67385e-06 0)
(0.000225756 3.54316e-06 0)
(0.000214108 3.41222e-06 0)
(0.000202895 3.28168e-06 0)
(0.000192117 3.15202e-06 0)
(0.000181768 3.02364e-06 0)
(0.000171845 2.89693e-06 0)
(0.000162343 2.77215e-06 0)
(0.000153253 2.64956e-06 0)
(0.000144569 2.52948e-06 0)
(0.000136283 2.41216e-06 0)
(0.000128384 2.29784e-06 0)
(0.000120862 2.18671e-06 0)
(0.000113707 2.0789e-06 0)
(0.000106908 1.97452e-06 0)
(0.000100452 1.87362e-06 0)
(9.43282e-05 1.77623e-06 0)
(8.85251e-05 1.68243e-06 0)
(8.30304e-05 1.59224e-06 0)
(7.78321e-05 1.50569e-06 0)
(7.29179e-05 1.42278e-06 0)
(6.82757e-05 1.34349e-06 0)
(6.38935e-05 1.26778e-06 0)
(5.97594e-05 1.19559e-06 0)
(5.58616e-05 1.12684e-06 0)
(5.21889e-05 1.06145e-06 0)
(4.873e-05 9.99297e-07 0)
(4.54744e-05 9.40277e-07 0)
(4.24116e-05 8.84277e-07 0)
(3.95317e-05 8.31175e-07 0)
(3.68249e-05 7.80846e-07 0)
(3.4282e-05 7.33151e-07 0)
(3.18944e-05 6.87949e-07 0)
(2.96545e-05 6.45102e-07 0)
(2.7081e-05 6.04478e-07 0)
(-0.019232 0.00796135 0)
(-0.031526 0.00754257 0)
(-0.0460681 0.007179 0)
(-0.059938 0.0067724 0)
(-0.0729892 0.00627728 0)
(-0.0851454 0.0058267 0)
(-0.0963616 0.00531896 0)
(-0.106618 0.0048509 0)
(-0.115908 0.00437604 0)
(-0.12423 0.00388388 0)
(-0.131598 0.00342146 0)
(-0.138034 0.00296657 0)
(-0.143561 0.00251804 0)
(-0.148209 0.00209178 0)
(-0.152012 0.00167576 0)
(-0.155005 0.00127431 0)
(-0.15723 0.000885252 0)
(-0.158663 0.000525781 0)
(-0.15932 0.000183513 0)
(-0.159251 -0.000194529 0)
(-0.15847 -0.000569152 0)
(-0.156963 -0.000936686 0)
(-0.154715 -0.00130648 0)
(-0.151713 -0.00168842 0)
(-0.147943 -0.00207063 0)
(-0.143389 -0.00247472 0)
(-0.138034 -0.00287112 0)
(-0.131856 -0.00327736 0)
(-0.124831 -0.00371928 0)
(-0.116954 -0.00412725 0)
(-0.108225 -0.0045305 0)
(-0.0986437 -0.00497858 0)
(-0.0882509 -0.0053389 0)
(-0.0771022 -0.00574896 0)
(-0.0652518 -0.00604081 0)
(-0.0527965 -0.00628884 0)
(-0.0398102 -0.0065802 0)
(-0.026319 -0.00673033 0)
(-0.0126127 -0.00680248 0)
(0.00116374 -0.0069149 0)
(0.0150661 -0.00688725 0)
(0.0289236 -0.00687159 0)
(0.0426029 -0.00672892 0)
(0.0559751 -0.00652443 0)
(0.0689267 -0.00631893 0)
(0.0813586 -0.00602628 0)
(0.0931719 -0.00567593 0)
(0.104274 -0.00531105 0)
(0.114589 -0.00488913 0)
(0.124025 -0.00440875 0)
(0.13249 -0.00392369 0)
(0.139922 -0.00337213 0)
(0.146258 -0.00279398 0)
(0.151426 -0.00217318 0)
(0.155283 -0.00149133 0)
(0.157731 -0.000826908 0)
(0.158743 -0.000113657 0)
(0.158311 0.000690606 0)
(0.156265 0.00145902 0)
(0.152563 0.00225648 0)
(0.147195 0.00298034 0)
(0.140307 0.00373729 0)
(0.132122 0.00447668 0)
(0.122531 0.00510422 0)
(0.111544 0.00569518 0)
(0.099411 0.0062062 0)
(0.0863354 0.00658139 0)
(0.0726771 0.00695233 0)
(0.0584709 0.0071808 0)
(0.0437377 0.00734714 0)
(0.0287956 0.00739272 0)
(0.0138377 0.00734279 0)
(-0.00100567 0.00725184 0)
(-0.0155132 0.00705239 0)
(-0.0295088 0.00677126 0)
(-0.042864 0.00644438 0)
(-0.0554487 0.00603902 0)
(-0.0671897 0.00561254 0)
(-0.0779926 0.00513378 0)
(-0.0877726 0.00464598 0)
(-0.0965414 0.00412204 0)
(-0.104309 0.00361524 0)
(-0.111028 0.00311339 0)
(-0.116729 0.00261526 0)
(-0.121477 0.00211791 0)
(-0.125251 0.00168463 0)
(-0.128133 0.0012518 0)
(-0.130229 0.000840203 0)
(-0.131557 0.000484006 0)
(-0.132186 0.000170226 0)
(-0.13213 -0.00016233 0)
(-0.13149 -0.000436905 0)
(-0.130369 -0.000680088 0)
(-0.128781 -0.000921279 0)
(-0.126713 -0.0011081 0)
(-0.124231 -0.00130792 0)
(-0.121425 -0.00149594 0)
(-0.118229 -0.00169316 0)
(-0.11464 -0.00188486 0)
(-0.110666 -0.00208379 0)
(-0.106244 -0.00229643 0)
(-0.101339 -0.00251371 0)
(-0.0959906 -0.00277549 0)
(-0.0901949 -0.00301639 0)
(-0.0838593 -0.00327947 0)
(-0.0769621 -0.00355198 0)
(-0.0694785 -0.00381825 0)
(-0.0614783 -0.00409861 0)
(-0.0529815 -0.00436701 0)
(-0.0439151 -0.00462502 0)
(-0.0343224 -0.0048692 0)
(-0.0242649 -0.00508677 0)
(-0.0137877 -0.00528711 0)
(-0.00294382 -0.00545811 0)
(0.00820582 -0.00559451 0)
(0.019585 -0.00568942 0)
(0.0311159 -0.00572779 0)
(0.0426746 -0.00573508 0)
(0.0541614 -0.00566621 0)
(0.0654833 -0.00553933 0)
(0.0764924 -0.00535838 0)
(0.0870576 -0.00511019 0)
(0.097057 -0.00479073 0)
(0.106344 -0.00440721 0)
(0.114807 -0.00397585 0)
(0.122339 -0.00347163 0)
(0.128801 -0.00292504 0)
(0.134105 -0.00233408 0)
(0.138199 -0.00170171 0)
(0.140995 -0.00106187 0)
(0.14244 -0.000401823 0)
(0.142578 0.000248644 0)
(0.141394 0.000919103 0)
(0.138877 0.00155901 0)
(0.135115 0.00216634 0)
(0.130161 0.00273232 0)
(0.124103 0.00325642 0)
(0.117042 0.0037252 0)
(0.109108 0.00412344 0)
(0.100431 0.00447573 0)
(0.0911281 0.00474338 0)
(0.081342 0.00494233 0)
(0.0712318 0.00507117 0)
(0.0609365 0.00512893 0)
(0.0505803 0.00512133 0)
(0.040284 0.00503781 0)
(0.0302141 0.0049404 0)
(0.020464 0.00475994 0)
(0.0110802 0.00454379 0)
(0.0021788 0.00429073 0)
(-0.00618576 0.00400818 0)
(-0.0139639 0.00370547 0)
(-0.0211145 0.00338471 0)
(-0.0276065 0.00305561 0)
(-0.0334207 0.00271644 0)
(-0.0385579 0.0023808 0)
(-0.0430135 0.00204179 0)
(-0.0467963 0.00171195 0)
(-0.0499178 0.00138821 0)
(-0.0523993 0.00107639 0)
(-0.0542593 0.000774039 0)
(-0.0555329 0.000489558 0)
(-0.0562439 0.000222002 0)
(-0.0564253 -3.73568e-05 0)
(-0.0561052 -0.000277101 0)
(-0.0553131 -0.000502732 0)
(-0.0540831 -0.000710956 0)
(-0.052452 -0.000906916 0)
(-0.0504467 -0.00108401 0)
(-0.0480973 -0.00124431 0)
(-0.0454343 -0.00139167 0)
(-0.0424892 -0.00152341 0)
(-0.0392987 -0.0016375 0)
(-0.0358927 -0.00173809 0)
(-0.0323007 -0.00182219 0)
(-0.0285559 -0.00189314 0)
(-0.0246829 -0.00194461 0)
(-0.0207114 -0.00198536 0)
(-0.0166818 -0.00200859 0)
(-0.0126186 -0.00202023 0)
(-0.00854501 -0.00201713 0)
(-0.00449171 -0.0020003 0)
(-0.000485929 -0.00197041 0)
(0.00344648 -0.00192804 0)
(0.00728252 -0.00187351 0)
(0.0109977 -0.00180844 0)
(0.014568 -0.00173302 0)
(0.0179745 -0.00164599 0)
(0.021202 -0.00155052 0)
(0.0242319 -0.0014498 0)
(0.0270474 -0.00134132 0)
(0.0296391 -0.00122718 0)
(0.0319959 -0.001109 0)
(0.0341089 -0.000987614 0)
(0.0359735 -0.000863424 0)
(0.0375894 -0.0007379 0)
(0.0389557 -0.000614465 0)
(0.0400709 -0.000491809 0)
(0.0409408 -0.000371449 0)
(0.041571 -0.000254559 0)
(0.0419691 -0.000141991 0)
(0.0421429 -3.37849e-05 0)
(0.0421068 6.87288e-05 0)
(0.041872 0.000164537 0)
(0.0414486 0.000253931 0)
(0.0408511 0.000336538 0)
(0.0400944 0.000412222 0)
(0.0391902 0.000480269 0)
(0.0381567 0.000543127 0)
(0.0370104 0.00059526 0)
(0.0357623 0.000641053 0)
(0.0344289 0.000679539 0)
(0.0330253 0.000710662 0)
(0.0315634 0.00073512 0)
(0.0300604 0.000754377 0)
(0.0285301 0.000764736 0)
(0.0269812 0.000770201 0)
(0.0254269 0.000770143 0)
(0.0238763 0.000764758 0)
(0.02234 0.000757112 0)
(0.0208291 0.000742347 0)
(0.0193496 0.000724987 0)
(0.0179076 0.000704369 0)
(0.0165092 0.000680864 0)
(0.0151593 0.000656254 0)
(0.0138643 0.000628591 0)
(0.0126272 0.000599238 0)
(0.0114488 0.000569046 0)
(0.0103311 0.000537801 0)
(0.00927599 0.00050783 0)
(0.00828592 0.000475348 0)
(0.00735996 0.000443817 0)
(0.00649636 0.000412342 0)
(0.00569363 0.000381518 0)
(0.00495357 0.000352797 0)
(0.00427479 0.000322592 0)
(0.00365291 0.000294258 0)
(0.00308577 0.00026667 0)
(0.00257246 0.000242317 0)
(0.00211193 0.000216412 0)
(0.00169974 0.00019286 0)
(0.0013324 0.000170369 0)
(0.00100839 0.000150929 0)
(0.000726292 0.00013048 0)
(0.00048211 0.000112263 0)
(0.000271355 9.50804e-05 0)
(9.49376e-05 8.098e-05 0)
(-5.05705e-05 6.64132e-05 0)
(-0.000170822 5.33936e-05 0)
(-0.000266277 4.16611e-05 0)
(-0.000339326 3.11009e-05 0)
(-0.000392283 2.16869e-05 0)
(-0.000427349 1.32878e-05 0)
(-0.000446521 5.9025e-06 0)
(-0.00045172 -5.55738e-07 0)
(-0.000444817 -6.12558e-06 0)
(-0.000427499 -1.09244e-05 0)
(-0.000401266 -1.49695e-05 0)
(-0.000367467 -1.83103e-05 0)
(-0.000327609 -2.11128e-05 0)
(-0.000282889 -2.3256e-05 0)
(-0.000234216 -2.48976e-05 0)
(-0.000182698 -2.60643e-05 0)
(-0.000129213 -2.68176e-05 0)
(-7.46173e-05 -2.71865e-05 0)
(-1.94246e-05 -2.72596e-05 0)
(3.57539e-05 -2.70066e-05 0)
(9.0184e-05 -2.65107e-05 0)
(0.000143473 -2.58014e-05 0)
(0.00019522 -2.49099e-05 0)
(0.000245085 -2.38662e-05 0)
(0.000292783 -2.26977e-05 0)
(0.00033808 -2.14288e-05 0)
(0.000380789 -2.0081e-05 0)
(0.000420761 -1.86739e-05 0)
(0.00045789 -1.72264e-05 0)
(0.000492103 -1.57559e-05 0)
(0.000523362 -1.42782e-05 0)
(0.000551658 -1.28061e-05 0)
(0.000576999 -1.13531e-05 0)
(0.000599424 -9.92835e-06 0)
(0.000618988 -8.52685e-06 0)
(0.000635748 -7.16082e-06 0)
(0.000649768 -5.83531e-06 0)
(0.000661117 -4.55454e-06 0)
(0.000669871 -3.30856e-06 0)
(0.000676105 -2.12162e-06 0)
(0.000679896 -1.00394e-06 0)
(0.000681456 2.6652e-08 0)
(0.000681043 1.00745e-06 0)
(0.000678761 1.92714e-06 0)
(0.000674685 2.78432e-06 0)
(0.000668923 3.57907e-06 0)
(0.000661597 4.31025e-06 0)
(0.000652829 4.97586e-06 0)
(0.000642754 5.57414e-06 0)
(0.000631508 6.10558e-06 0)
(0.000619223 6.57442e-06 0)
(0.000606021 6.98379e-06 0)
(0.000592018 7.33721e-06 0)
(0.000577326 7.63696e-06 0)
(0.00056205 7.88548e-06 0)
(0.000546291 8.0846e-06 0)
(0.000530152 8.23592e-06 0)
(0.000513727 8.34257e-06 0)
(0.000497104 8.40887e-06 0)
(0.000480362 8.43886e-06 0)
(0.000463571 8.43653e-06 0)
(0.000446796 8.40459e-06 0)
(0.000430092 8.34577e-06 0)
(0.000413515 8.26204e-06 0)
(0.000397114 8.15526e-06 0)
(0.000380935 8.02789e-06 0)
(0.000365018 7.88257e-06 0)
(0.000349398 7.72188e-06 0)
(0.000334104 7.54839e-06 0)
(0.000319162 7.36401e-06 0)
(0.000304591 7.17079e-06 0)
(0.000290409 6.97037e-06 0)
(0.00027663 6.76418e-06 0)
(0.000263263 6.55359e-06 0)
(0.000250319 6.33959e-06 0)
(0.000237803 6.12312e-06 0)
(0.00022572 5.90528e-06 0)
(0.000214073 5.68702e-06 0)
(0.000202861 5.46943e-06 0)
(0.000192082 5.25332e-06 0)
(0.000181734 5.03934e-06 0)
(0.000171812 4.82813e-06 0)
(0.00016231 4.62015e-06 0)
(0.000153221 4.41583e-06 0)
(0.000144538 4.21568e-06 0)
(0.000136252 4.02014e-06 0)
(0.000128354 3.82959e-06 0)
(0.000120833 3.64438e-06 0)
(0.000113679 3.4647e-06 0)
(0.00010688 3.29072e-06 0)
(0.000100425 3.12255e-06 0)
(9.43029e-05 2.96024e-06 0)
(8.85007e-05 2.8039e-06 0)
(8.3007e-05 2.65358e-06 0)
(7.78097e-05 2.50932e-06 0)
(7.28964e-05 2.37114e-06 0)
(6.82552e-05 2.23899e-06 0)
(6.38739e-05 2.11282e-06 0)
(5.97407e-05 1.99251e-06 0)
(5.58439e-05 1.87793e-06 0)
(5.2172e-05 1.76894e-06 0)
(4.8714e-05 1.66536e-06 0)
(4.54592e-05 1.567e-06 0)
(4.23972e-05 1.47367e-06 0)
(3.9518e-05 1.38517e-06 0)
(3.68119e-05 1.30129e-06 0)
(3.42697e-05 1.22181e-06 0)
(3.18828e-05 1.14648e-06 0)
(2.96435e-05 1.07507e-06 0)
(2.70707e-05 1.00737e-06 0)
(-0.0193154 0.0111486 0)
(-0.0316151 0.0105617 0)
(-0.0461671 0.0100522 0)
(-0.0600444 0.00948264 0)
(-0.073099 0.0087891 0)
(-0.0852592 0.00815798 0)
(-0.0964758 0.00744687 0)
(-0.106734 0.00679134 0)
(-0.116023 0.00612628 0)
(-0.124342 0.00543709 0)
(-0.131709 0.00478958 0)
(-0.138142 0.00415262 0)
(-0.143664 0.00352456 0)
(-0.148309 0.00292782 0)
(-0.152108 0.00234592 0)
(-0.155097 0.00178537 0)
(-0.157314 0.00124217 0)
(-0.158749 0.000735801 0)
(-0.159415 0.000246463 0)
(-0.15934 -0.000275639 0)