/*--------------------------------*- C++ -*----------------------------------*\
| =========                 |                                                 |
| \\      /  F ield         | OpenFOAM: The Open Source CFD Toolbox           |
|  \\    /   O peration     | Version:  3.0.1                                 |
|   \\  /    A nd           | Web:      www.OpenFOAM.org                      |
|    \\/     M anipulation  |                                                 |
\*---------------------------------------------------------------------------*/
FoamFile
{
    version     2.0;
    format      ascii;
    class       volVectorField;
    location    "68.6";
    object      U;
}
// * * * * * * * * * * * * * * * * * * * * * * * * * * * * * * * * * * * * * //

dimensions      [0 1 -1 0 0 0 0];

internalField   nonuniform List<vector> 
21420
(
(0.221336 0.000499255 0)
(0.215789 0.000717962 0)
(0.207457 0.000931316 0)
(0.197085 0.00113132 0)
(0.184876 0.00129039 0)
(0.171054 0.00144767 0)
(0.15586 0.00155286 0)
(0.139555 0.00166077 0)
(0.122393 0.0017455 0)
(0.104629 0.00177131 0)
(0.0865118 0.00180659 0)
(0.0682679 0.00181953 0)
(0.0501006 0.00178112 0)
(0.0321455 0.00175557 0)
(0.0141551 0.00168659 0)
(-0.00266451 0.00163791 0)
(-0.0182977 0.00157293 0)
(-0.0336624 0.0014793 0)
(-0.0481919 0.00139842 0)
(-0.0618271 0.00131189 0)
(-0.0745341 0.0012115 0)
(-0.0863032 0.00112212 0)
(-0.0971359 0.00103175 0)
(-0.107042 0.000936465 0)
(-0.116044 0.000849866 0)
(-0.124167 0.000761595 0)
(-0.131444 0.000680657 0)
(-0.137908 0.00060221 0)
(-0.143591 0.000525158 0)
(-0.148526 0.000452996 0)
(-0.152744 0.000383143 0)
(-0.156271 0.00031506 0)
(-0.159132 0.000249109 0)
(-0.161348 0.000184279 0)
(-0.162928 0.00012181 0)
(-0.163854 6.03809e-05 0)
(-0.164176 -3.52895e-06 0)
(-0.163839 -6.93527e-05 0)
(-0.162835 -0.000134581 0)
(-0.161163 -0.000203045 0)
(-0.158802 -0.000271759 0)
(-0.155734 -0.000344785 0)
(-0.151942 -0.000417497 0)
(-0.147378 -0.000493122 0)
(-0.142016 -0.000577161 0)
(-0.135844 -0.000654527 0)
(-0.128823 -0.000736129 0)
(-0.120911 -0.000830363 0)
(-0.112097 -0.000912245 0)
(-0.102401 -0.000996203 0)
(-0.0917159 -0.00109708 0)
(-0.0801588 -0.00118101 0)
(-0.067653 -0.00128043 0)
(-0.0542176 -0.0013645 0)
(-0.0399704 -0.00142634 0)
(-0.0249828 -0.00153033 0)
(-0.00945255 -0.00158245 0)
(0.00667897 -0.001628 0)
(0.0233626 -0.00168748 0)
(0.0405436 -0.00171201 0)
(0.0579982 -0.00173679 0)
(0.0755697 -0.00173752 0)
(0.0930718 -0.00171038 0)
(0.110262 -0.00167588 0)
(0.126965 -0.00162045 0)
(0.142977 -0.00153545 0)
(0.158071 -0.00144448 0)
(0.17207 -0.00131919 0)
(0.184753 -0.00119082 0)
(0.196023 -0.00103878 0)
(0.205619 -0.000872972 0)
(0.213472 -0.000685116 0)
(0.219398 -0.00049564 0)
(0.223278 -0.000286888 0)
(0.22508 -8.43029e-05 0)
(0.224752 0.000135565 0)
(0.222251 0.000337439 0)
(0.217588 0.000548948 0)
(0.210917 0.000754308 0)
(0.202356 0.000931153 0)
(0.191921 0.00111213 0)
(0.179869 0.00126898 0)
(0.166332 0.00140184 0)
(0.151519 0.00151482 0)
(0.135741 0.0016047 0)
(0.119184 0.00167103 0)
(0.102058 0.00171505 0)
(0.0846435 0.0017265 0)
(0.0671712 0.0017415 0)
(0.0497306 0.00172606 0)
(0.0324634 0.00170244 0)
(0.0155202 0.00166715 0)
(-0.00103964 0.00162031 0)
(-0.0170861 0.00156499 0)
(-0.0325101 0.00149667 0)
(-0.0472149 0.00142268 0)
(-0.0610989 0.00133832 0)
(-0.0741047 0.00124248 0)
(-0.0861681 0.00114299 0)
(-0.0972181 0.00104327 0)
(-0.107205 0.000945277 0)
(-0.116162 0.00083873 0)
(-0.124111 0.0007391 0)
(-0.131067 0.000643999 0)
(-0.137089 0.00055211 0)
(-0.142221 0.000467551 0)
(-0.14651 0.000383763 0)
(-0.150006 0.000311747 0)
(-0.152753 0.000237174 0)
(-0.154764 0.000163581 0)
(-0.156071 9.98062e-05 0)
(-0.15672 3.21046e-05 0)
(-0.156724 -3.35831e-05 0)
(-0.156117 -9.28219e-05 0)
(-0.154857 -0.000147085 0)
(-0.152989 -0.00021354 0)
(-0.150535 -0.000270651 0)
(-0.147438 -0.000339877 0)
(-0.143742 -0.000403815 0)
(-0.139396 -0.000454577 0)
(-0.134399 -0.000527141 0)
(-0.128784 -0.000590205 0)
(-0.1225 -0.000653882 0)
(-0.115547 -0.000723076 0)
(-0.107905 -0.000791776 0)
(-0.0995734 -0.000861086 0)
(-0.0905241 -0.000938877 0)
(-0.0807133 -0.00100287 0)
(-0.0701477 -0.00108701 0)
(-0.0588316 -0.00116748 0)
(-0.0467219 -0.0012293 0)
(-0.0338087 -0.00132222 0)
(-0.0201819 -0.00139782 0)
(-0.00573848 -0.00145628 0)
(0.00942238 -0.00152876 0)
(0.0251279 -0.00158582 0)
(0.0413553 -0.00163067 0)
(0.0579626 -0.00166152 0)
(0.0748117 -0.00167535 0)
(0.0917095 -0.00167176 0)
(0.108471 -0.0016498 0)
(0.12486 -0.00160121 0)
(0.140635 -0.001533 0)
(0.155594 -0.00142378 0)
(0.169409 -0.00130907 0)
(0.181874 -0.00116161 0)
(0.19274 -0.000993137 0)
(0.201826 -0.000802271 0)
(0.208881 -0.000599604 0)
(0.21381 -0.00037706 0)
(0.216437 -0.00014298 0)
(0.216732 8.48109e-05 0)
(0.214577 0.000337023 0)
(0.209929 0.000574782 0)
(0.202984 0.000803601 0)
(0.193791 0.00101738 0)
(0.182542 0.00121255 0)
(0.169417 0.00138802 0)
(0.154665 0.00153897 0)
(0.138544 0.0016534 0)
(0.12135 0.00175379 0)
(0.103364 0.00181623 0)
(0.0848593 0.00185403 0)
(0.0661178 0.00186723 0)
(0.0473589 0.00185548 0)
(0.028799 0.00182369 0)
(0.0106511 0.00178141 0)
(-0.00694062 0.00171357 0)
(-0.023813 0.00163779 0)
(-0.039838 0.00154705 0)
(-0.0549587 0.0014562 0)
(-0.06911 0.00135341 0)
(-0.0822661 0.00125164 0)
(-0.0944087 0.00115442 0)
(-0.10554 0.00106395 0)
(-0.11568 0.000954716 0)
(-0.124838 0.000858984 0)
(-0.133036 0.000768861 0)
(-0.140335 0.000684824 0)
(-0.146808 0.0006002 0)
(-0.152508 0.000521444 0)
(-0.157438 0.000452162 0)
(-0.161614 0.000376518 0)
(-0.16508 0.000311127 0)
(-0.167855 0.000241521 0)
(-0.169925 0.000170961 0)
(-0.171254 0.000101687 0)
(-0.171899 3.39606e-05 0)
(-0.171874 -3.36845e-05 0)
(-0.171182 -9.94242e-05 0)
(-0.16986 -0.000159105 0)
(-0.167935 -0.000222293 0)
(-0.165483 -0.000274141 0)
(-0.162459 -0.000318863 0)
(-0.158891 -0.000378839 0)
(-0.15483 -0.000437893 0)
(-0.150106 -0.000493832 0)
(-0.144677 -0.000570984 0)
(-0.138512 -0.000652346 0)
(-0.131498 -0.00074006 0)
(-0.123616 -0.00082602 0)
(-0.11486 -0.000912213 0)
(-0.105242 -0.000999088 0)
(-0.0947506 -0.00107676 0)
(-0.0834523 -0.00115675 0)
(-0.0713791 -0.00123542 0)
(-0.0585778 -0.00130803 0)
(-0.0450132 -0.00138353 0)
(-0.0306826 -0.00145698 0)
(-0.0156699 -0.00152101 0)
(3.59731e-05 -0.00158557 0)
(0.0162907 -0.00163675 0)
(0.0329446 -0.0016623 0)
(0.0498342 -0.00168404 0)
(0.0667669 -0.0016726 0)
(0.0835095 -0.00164558 0)
(0.0998465 -0.00159171 0)
(0.115545 -0.00151824 0)
(0.13037 -0.00142356 0)
(0.144126 -0.0012989 0)
(0.156503 -0.00115085 0)
(0.167257 -0.000977119 0)
(0.176135 -0.000784443 0)
(0.182962 -0.000563655 0)
(0.187519 -0.000335557 0)
(0.189671 -9.24402e-05 0)
(0.1894 0.000149588 0)
(0.186563 0.000400709 0)
(0.181274 0.000646713 0)
(0.173634 0.000872158 0)
(0.163768 0.00108109 0)
(0.151879 0.00126992 0)
(0.138236 0.00143518 0)
(0.123121 0.00156319 0)
(0.10681 0.00166986 0)
(0.0895957 0.00174313 0)
(0.0717961 0.00178685 0)
(0.0536873 0.0018017 0)
(0.035527 0.00180176 0)
(0.0175134 0.00177108 0)
(-0.000145154 0.00173086 0)
(-0.017245 0.00167044 0)
(-0.0336633 0.00159415 0)
(-0.0492828 0.00150885 0)
(-0.0640472 0.00142576 0)
(-0.077943 0.00133561 0)
(-0.0909388 0.0012425 0)
(-0.10305 0.00115534 0)
(-0.114275 0.00106766 0)
(-0.124621 0.000989101 0)
(-0.134108 0.000895238 0)
(-0.142735 0.000814573 0)
(-0.150505 0.00073063 0)
(-0.157449 0.000648191 0)
(-0.163591 0.000569058 0)
(-0.168966 0.000492568 0)
(-0.173582 0.00042896 0)
(-0.177484 0.000350644 0)
(-0.180697 0.000286317 0)
(-0.183224 0.000219231 0)
(-0.185092 0.000153897 0)
(-0.186325 9.2375e-05 0)
(-0.18698 3.473e-05 0)
(-0.186968 -2.40656e-05 0)
(-0.186269 -9.37735e-05 0)
(-0.18499 -0.000154655 0)
(-0.183126 -0.000215558 0)
(-0.180557 -0.000270054 0)
(-0.177324 -0.000346043 0)
(-0.173549 -0.000412682 0)
(-0.16899 -0.00047516 0)
(-0.163658 -0.000554881 0)
(-0.157778 -0.000619892 0)
(-0.150996 -0.000702738 0)
(-0.143377 -0.000781512 0)
(-0.135043 -0.000871201 0)
(-0.12584 -0.000966142 0)
(-0.115679 -0.00105285 0)
(-0.104457 -0.00115668 0)
(-0.0921732 -0.00127006 0)
(-0.0787296 -0.00136786 0)
(-0.0641948 -0.00148332 0)
(-0.048566 -0.00158798 0)
(-0.0319312 -0.00167501 0)
(-0.0144219 -0.00176346 0)
(0.00388094 -0.00182661 0)
(0.0225742 -0.00185745 0)
(0.0414568 -0.00189284 0)
(0.0604611 -0.0018901 0)
(0.0793919 -0.00187296 0)
(0.0980478 -0.00183116 0)
(0.116095 -0.00174742 0)
(0.133214 -0.0016492 0)
(0.149205 -0.00151925 0)
(0.163763 -0.00134785 0)
(0.176528 -0.00116341 0)
(0.187299 -0.000953326 0)
(0.195849 -0.00070511 0)
(0.201931 -0.000460336 0)
(0.205401 -0.000196047 0)
(0.206214 5.9172e-05 0)
(0.204377 0.000323667 0)
(0.199745 0.000587954 0)
(0.192683 0.00081034 0)
(0.183372 0.0010278 0)
(0.172006 0.0012297 0)
(0.158861 0.00137483 0)
(0.144241 0.00151429 0)
(0.128489 0.00159722 0)
(0.11185 0.00167325 0)
(0.094679 0.00172527 0)
(0.0771829 0.00172244 0)
(0.0596753 0.0017238 0)
(0.0422536 0.00169873 0)
(0.0252162 0.00164446 0)
(0.00908682 0.00158589 0)
(-0.00616996 0.00151451 0)
(-0.0208095 0.00144634 0)
(-0.0348761 0.00137227 0)
(-0.0481898 0.00128599 0)
(-0.0607228 0.00120976 0)
(-0.072475 0.00113348 0)
(-0.0834548 0.00105286 0)
(-0.0936882 0.000981803 0)
(-0.103205 0.00090833 0)
(-0.112035 0.000843276 0)
(-0.120205 0.000779863 0)
(-0.127734 0.000714697 0)
(-0.134636 0.000654102 0)
(-0.140917 0.000592937 0)
(-0.14657 0.000528865 0)
(-0.151585 0.000465348 0)
(-0.155943 0.00039921 0)
(-0.159619 0.000329324 0)
(-0.162583 0.000257259 0)
(-0.164814 0.000180677 0)
(-0.166243 0.000102788 0)
(-0.166915 2.28724e-05 0)
(-0.16676 -6.24761e-05 0)
(-0.165699 -0.000149849 0)
(-0.163747 -0.000238722 0)
(-0.160886 -0.000329737 0)
(-0.157104 -0.00042065 0)
(-0.152397 -0.000513959 0)
(-0.146765 -0.00060466 0)
(-0.140209 -0.000694024 0)
(-0.132741 -0.000787212 0)
(-0.124376 -0.000872969 0)
(-0.115135 -0.000955565 0)
(-0.105041 -0.00104425 0)
(-0.0941277 -0.00111965 0)
(-0.0824298 -0.00120274 0)
(-0.0699882 -0.00126845 0)
(-0.0568488 -0.00132752 0)
(-0.0430272 -0.00139684 0)
(-0.0283785 -0.0014421 0)
(-0.0116043 -0.00148035 0)
(0.221427 0.00149811 0)
(0.215875 0.00215439 0)
(0.207538 0.00279461 0)
(0.197159 0.00339476 0)
(0.18494 0.00387205 0)
(0.171109 0.00434398 0)
(0.155905 0.00465954 0)
(0.139589 0.0049833 0)
(0.122418 0.0052375 0)
(0.104644 0.00531484 0)
(0.0865178 0.00542065 0)
(0.0682655 0.00545938 0)
(0.0500911 0.00534406 0)
(0.0321291 0.00526726 0)
(0.0141347 0.0050603 0)
(-0.00268905 0.00491408 0)
(-0.0183271 0.00471914 0)
(-0.0336943 0.00443816 0)
(-0.0482259 0.00419544 0)
(-0.0618625 0.00393572 0)
(-0.0745695 0.00363453 0)
(-0.0863389 0.00336636 0)
(-0.0971713 0.00309524 0)
(-0.107077 0.00280936 0)
(-0.116077 0.00254953 0)
(-0.124199 0.0022847 0)
(-0.131475 0.00204191 0)
(-0.137938 0.00180658 0)
(-0.14362 0.00157545 0)
(-0.148554 0.00135897 0)
(-0.152771 0.00114948 0)
(-0.156297 0.000945065 0)
(-0.159157 0.000747425 0)
(-0.161372 0.000553609 0)
(-0.162954 0.000364856 0)
(-0.16388 0.000180494 0)
(-0.164201 -9.44982e-06 0)
(-0.163866 -0.000207886 0)
(-0.162863 -0.000403544 0)
(-0.161191 -0.00060891 0)
(-0.158832 -0.000815084 0)
(-0.155765 -0.00103412 0)
(-0.151976 -0.00125235 0)
(-0.147413 -0.00147919 0)
(-0.142053 -0.00173122 0)
(-0.135883 -0.0019634 0)
(-0.128863 -0.00220816 0)
(-0.120953 -0.00249091 0)
(-0.112141 -0.00273657 0)
(-0.102446 -0.00298837 0)
(-0.0917626 -0.00329097 0)
(-0.0802059 -0.00354307 0)
(-0.0677011 -0.00384101 0)
(-0.0542646 -0.00409387 0)
(-0.0400176 -0.00427851 0)
(-0.0250281 -0.00459183 0)
(-0.00949208 -0.00474741 0)
(0.00664101 -0.00488465 0)
(0.0233299 -0.00506331 0)
(0.0405174 -0.00513646 0)
(0.0579783 -0.00521267 0)
(0.0755603 -0.00521152 0)
(0.0930692 -0.00513336 0)
(0.11027 -0.00503193 0)
(0.126986 -0.0048635 0)
(0.14301 -0.00460633 0)
(0.158118 -0.00432685 0)
(0.172116 -0.00396821 0)
(0.184824 -0.00356706 0)
(0.19609 -0.00312585 0)
(0.205711 -0.00261167 0)
(0.213556 -0.00206528 0)
(0.219506 -0.00148156 0)
(0.223383 -0.000858135 0)
(0.22519 -0.000254666 0)
(0.224854 0.000404749 0)
(0.222348 0.00101296 0)
(0.21769 0.00164221 0)
(0.211018 0.00226798 0)
(0.202447 0.00279632 0)
(0.192006 0.00333635 0)
(0.17994 0.00380492 0)
(0.166396 0.00420189 0)
(0.151581 0.00455413 0)
(0.135785 0.00481235 0)
(0.119224 0.00501122 0)
(0.102092 0.00514244 0)
(0.0846768 0.00518555 0)
(0.0671894 0.00522654 0)
(0.0497449 0.00516891 0)
(0.0324813 0.00510488 0)
(0.0155344 0.00499478 0)
(-0.00102648 0.00486161 0)
(-0.0170843 0.00469237 0)
(-0.0325211 0.00448991 0)
(-0.0472405 0.00426544 0)
(-0.0611359 0.00401249 0)
(-0.0741447 0.0037321 0)
(-0.0862172 0.00343618 0)
(-0.0972797 0.00312627 0)
(-0.107273 0.00283423 0)
(-0.116232 0.0025135 0)
(-0.124182 0.00221898 0)
(-0.131143 0.00193138 0)
(-0.137171 0.00165544 0)
(-0.142304 0.00139601 0)
(-0.14659 0.00115211 0)
(-0.150092 0.000926287 0)
(-0.152832 0.000702381 0)
(-0.154836 0.000496776 0)
(-0.15615 0.000294195 0)
(-0.156791 0.000100514 0)
(-0.156799 -9.21938e-05 0)
(-0.156202 -0.00028683 0)
(-0.154945 -0.000453169 0)
(-0.153073 -0.00064971 0)
(-0.150619 -0.000819356 0)
(-0.14752 -0.00101241 0)
(-0.143826 -0.00120951 0)
(-0.139482 -0.00136603 0)
(-0.134486 -0.00157423 0)
(-0.128875 -0.00176783 0)
(-0.122603 -0.00196496 0)
(-0.115654 -0.0021678 0)
(-0.108014 -0.00236933 0)
(-0.0996869 -0.00258047 0)
(-0.0906391 -0.00281225 0)
(-0.08084 -0.00301898 0)
(-0.0702808 -0.003258 0)
(-0.0589758 -0.00350702 0)
(-0.0468585 -0.00369262 0)
(-0.0339508 -0.00396131 0)
(-0.0203227 -0.00419585 0)
(-0.00589107 -0.00437073 0)
(0.00926904 -0.00458563 0)
(0.0249739 -0.004756 0)
(0.0412057 -0.00489428 0)
(0.0578137 -0.0049849 0)
(0.0746637 -0.00503831 0)
(0.0915714 -0.0050203 0)
(0.108343 -0.00494691 0)
(0.124738 -0.00480455 0)
(0.140526 -0.00459326 0)
(0.155478 -0.00428921 0)
(0.169325 -0.00392742 0)
(0.181785 -0.00349032 0)
(0.192685 -0.00297812 0)
(0.201772 -0.00241445 0)
(0.208856 -0.00179276 0)
(0.213773 -0.00114162 0)
(0.216423 -0.000428628 0)
(0.216714 0.000257512 0)
(0.214555 0.00100373 0)
(0.209922 0.0017242 0)
(0.202977 0.00240407 0)
(0.193787 0.00305131 0)
(0.182539 0.00362827 0)
(0.169417 0.00416803 0)
(0.154654 0.00460952 0)
(0.138527 0.00496579 0)
(0.12132 0.00526362 0)
(0.103321 0.00545059 0)
(0.084803 0.00556041 0)
(0.0660543 0.00558906 0)
(0.0472903 0.00556903 0)
(0.0287176 0.00547116 0)
(0.0105626 0.00534378 0)
(-0.00703469 0.00513791 0)
(-0.0239079 0.00490727 0)
(-0.0399356 0.00463894 0)
(-0.055059 0.00436217 0)
(-0.0692051 0.00406544 0)
(-0.082366 0.00376064 0)
(-0.0945158 0.00345523 0)
(-0.105645 0.00317824 0)
(-0.115773 0.00286977 0)
(-0.124933 0.0025853 0)
(-0.133139 0.00230616 0)
(-0.140434 0.00204771 0)
(-0.146903 0.00180146 0)
(-0.152602 0.00156215 0)
(-0.157529 0.0013525 0)
(-0.161706 0.00113317 0)
(-0.165177 0.000926526 0)
(-0.167949 0.000717983 0)
(-0.170018 0.000513511 0)
(-0.171355 0.000315739 0)
(-0.172008 9.8288e-05 0)
(-0.171985 -0.000108284 0)
(-0.17129 -0.000304879 0)
(-0.169963 -0.000475147 0)
(-0.168043 -0.000660915 0)
(-0.165595 -0.000825447 0)
(-0.162574 -0.000960351 0)
(-0.159009 -0.00113785 0)
(-0.154957 -0.00131821 0)
(-0.150241 -0.0014832 0)
(-0.144819 -0.00171613 0)
(-0.138652 -0.00195548 0)
(-0.131644 -0.00220793 0)
(-0.123772 -0.00246807 0)
(-0.115023 -0.00273209 0)
(-0.105405 -0.00299186 0)
(-0.0949229 -0.00324143 0)
(-0.0836233 -0.00347169 0)
(-0.0715482 -0.0037084 0)
(-0.0587455 -0.00392066 0)
(-0.0451918 -0.00415008 0)
(-0.030865 -0.00436902 0)
(-0.0158572 -0.00456652 0)
(-0.000143032 -0.00475176 0)
(0.0161235 -0.0049109 0)
(0.0327822 -0.00499721 0)
(0.0496812 -0.00505438 0)
(0.0666194 -0.00501747 0)
(0.0833716 -0.0049408 0)
(0.0997257 -0.00477875 0)
(0.11544 -0.0045583 0)
(0.130277 -0.00427492 0)
(0.144052 -0.00390163 0)
(0.156445 -0.00345565 0)
(0.16721 -0.00294188 0)
(0.176104 -0.00235463 0)
(0.182943 -0.0016975 0)
(0.187516 -0.00100796 0)
(0.189673 -0.000287389 0)
(0.189405 0.000445498 0)
(0.186571 0.00119613 0)
(0.181292 0.00193629 0)
(0.173655 0.00261443 0)
(0.163791 0.00324855 0)
(0.151894 0.003815 0)
(0.138233 0.00429452 0)
(0.123113 0.00469691 0)
(0.106785 0.00500852 0)
(0.0895623 0.005226 0)
(0.0717566 0.00535788 0)
(0.0536369 0.00541726 0)
(0.0354615 0.00540462 0)
(0.0174409 0.00531591 0)
(-0.000224678 0.00518304 0)
(-0.0173311 0.00500581 0)
(-0.033756 0.00477688 0)
(-0.0493826 0.00453414 0)
(-0.0641561 0.00426847 0)
(-0.0780471 0.00400199 0)
(-0.0910409 0.00373467 0)
(-0.103163 0.00346646 0)
(-0.114392 0.00319502 0)
(-0.124739 0.00296669 0)
(-0.134231 0.00269397 0)
(-0.142863 0.00244385 0)
(-0.150634 0.0021886 0)
(-0.157578 0.00194667 0)
(-0.163722 0.00170652 0)
(-0.169088 0.00147616 0)
(-0.173699 0.00128116 0)
(-0.177603 0.00105796 0)
(-0.180814 0.000852821 0)
(-0.183332 0.000655092 0)
(-0.185191 0.000462444 0)
(-0.186423 0.000275131 0)
(-0.187071 9.28559e-05 0)
(-0.187042 -6.72128e-05 0)
(-0.186349 -0.000275155 0)
(-0.185067 -0.00046449 0)
(-0.183193 -0.000651188 0)
(-0.180623 -0.000817323 0)
(-0.177392 -0.0010376 0)
(-0.17361 -0.00123511 0)
(-0.169047 -0.00142001 0)
(-0.163718 -0.00166641 0)
(-0.157833 -0.00186108 0)
(-0.151052 -0.00210385 0)
(-0.143441 -0.00235317 0)
(-0.135097 -0.00260979 0)
(-0.125896 -0.00289879 0)
(-0.115738 -0.00315723 0)
(-0.104518 -0.00346966 0)
(-0.0922344 -0.00381095 0)
(-0.0787915 -0.00410814 0)
(-0.0642502 -0.00444839 0)
(-0.0486218 -0.00476479 0)
(-0.0319791 -0.00502544 0)
(-0.0144623 -0.00529099 0)
(0.00384955 -0.00547871 0)
(0.0225507 -0.00557309 0)
(0.041443 -0.00568269 0)
(0.060462 -0.00566817 0)
(0.0793963 -0.00562661 0)
(0.0980709 -0.00549308 0)
(0.116131 -0.00524424 0)
(0.133264 -0.00494669 0)
(0.149268 -0.00455823 0)
(0.163839 -0.00404401 0)
(0.176615 -0.00349391 0)
(0.187398 -0.00284839 0)
(0.195954 -0.00213419 0)
(0.202042 -0.00140231 0)
(0.20553 -0.00058456 0)
(0.206335 0.000176465 0)
(0.204482 0.000970645 0)
(0.199853 0.00176361 0)
(0.192786 0.00243146 0)
(0.183465 0.00308415 0)
(0.172089 0.00369014 0)
(0.158931 0.00412555 0)
(0.144299 0.00454406 0)
(0.128533 0.00479282 0)
(0.111882 0.00502083 0)
(0.0946993 0.00517694 0)
(0.077193 0.00516826 0)
(0.0596756 0.00517234 0)
(0.0422458 0.00509686 0)
(0.0252016 0.00493428 0)
(0.00906743 0.0047578 0)
(-0.00619136 0.00454386 0)
(-0.0208348 0.00433933 0)
(-0.0349034 0.00411699 0)
(-0.0482176 0.0038581 0)
(-0.060751 0.00362934 0)
(-0.072503 0.00340044 0)
(-0.0834818 0.00315855 0)
(-0.0937145 0.00294538 0)
(-0.10323 0.00272496 0)
(-0.112059 0.0025298 0)
(-0.120229 0.00233959 0)
(-0.127757 0.00214411 0)
(-0.134659 0.00196237 0)
(-0.140941 0.00177896 0)
(-0.146595 0.00158674 0)
(-0.151611 0.00139615 0)
(-0.15597 0.00119779 0)
(-0.159646 0.000988232 0)
(-0.162611 0.000771802 0)
(-0.164843 0.000542339 0)
(-0.166277 0.00030843 0)
(-0.166948 6.84156e-05 0)
(-0.166794 -0.000187088 0)
(-0.165734 -0.000449443 0)
(-0.163783 -0.000716073 0)
(-0.160922 -0.000989097 0)
(-0.15714 -0.00126188 0)
(-0.152434 -0.00154186 0)
(-0.146802 -0.00181395 0)
(-0.140245 -0.00208208 0)
(-0.132777 -0.00236168 0)
(-0.124412 -0.00261897 0)
(-0.115169 -0.00286679 0)
(-0.105074 -0.0031329 0)
(-0.094159 -0.0033591 0)
(-0.0824597 -0.00360843 0)
(-0.0700158 -0.00380557 0)
(-0.0568739 -0.00398282 0)
(-0.04305 -0.00419081 0)
(-0.0283986 -0.00432664 0)
(-0.0116198 -0.00444142 0)
(0.22161 0.00249815 0)
(0.216047 0.00359245 0)
(0.207698 0.00466002 0)
(0.197305 0.00566074 0)
(0.185067 0.00645644 0)
(0.171217 0.00724326 0)
(0.155991 0.00776917 0)
(0.139656 0.00830885 0)
(0.122465 0.00873251 0)
(0.104671 0.00886115 0)
(0.086527 0.00903734 0)
(0.0682577 0.00910163 0)
(0.0500689 0.00890906 0)
(0.0320932 0.00878051 0)
(0.0140909 0.00843504 0)
(-0.00274124 0.00819182 0)
(-0.0183893 0.00786641 0)
(-0.0337613 0.00739765 0)
(-0.0482971 0.0069929 0)
(-0.0619363 0.00655974 0)
(-0.0746433 0.00605757 0)
(-0.086413 0.0056105 0)
(-0.0972449 0.00515852 0)
(-0.107148 0.00468195 0)
(-0.116147 0.00424887 0)
(-0.124266 0.00380742 0)
(-0.131539 0.00340278 0)
(-0.138 0.00301057 0)
(-0.143678 0.00262541 0)
(-0.14861 0.00226466 0)
(-0.152825 0.00191556 0)
(-0.15635 0.00157505 0)
(-0.159208 0.00124596 0)
(-0.161421 0.000922872 0)
(-0.163003 0.000608429 0)
(-0.163932 0.000302042 0)
(-0.164255 -1.70905e-05 0)
(-0.163918 -0.000346694 0)
(-0.162916 -0.000672384 0)
(-0.161246 -0.00101455 0)
(-0.158888 -0.00135818 0)
(-0.155823 -0.00172313 0)
(-0.152036 -0.00208703 0)
(-0.147475 -0.00246502 0)
(-0.142117 -0.00288494 0)
(-0.135949 -0.00327205 0)
(-0.12893 -0.00367999 0)
(-0.121023 -0.00415134 0)
(-0.112211 -0.00456083 0)
(-0.102516 -0.00498045 0)
(-0.0918345 -0.0054847 0)
(-0.0802761 -0.00590558 0)
(-0.0677709 -0.00640142 0)
(-0.0543294 -0.00682446 0)
(-0.0400817 -0.00713018 0)
(-0.0250858 -0.00765562 0)
(-0.0095373 -0.00791346 0)
(0.00660027 -0.00814251 0)
(0.0232993 -0.00844118 0)
(0.0404986 -0.00856286 0)
(0.0579719 -0.00868974 0)
(0.0755667 -0.00868948 0)
(0.0930927 -0.00855678 0)
(0.110308 -0.00838698 0)
(0.127038 -0.00810914 0)
(0.143078 -0.00768182 0)
(0.1582 -0.00722005 0)
(0.17222 -0.00660906 0)
(0.184933 -0.00595415 0)
(0.196216 -0.005206 0)
(0.205846 -0.00436339 0)
(0.213708 -0.00343673 0)
(0.219662 -0.00247905 0)
(0.223547 -0.00142914 0)
(0.225359 -0.000426498 0)
(0.225011 0.000673023 0)
(0.222495 0.00168937 0)
(0.21785 0.00273753 0)
(0.211165 0.00377989 0)
(0.202583 0.00466335 0)
(0.192134 0.00556351 0)
(0.180051 0.006347 0)
(0.166488 0.00700473 0)
(0.151655 0.00758773 0)
(0.135845 0.00802626 0)
(0.11927 0.008358 0)
(0.102111 0.00857516 0)
(0.0846786 0.00864513 0)
(0.0671738 0.00870788 0)
(0.0497181 0.00862458 0)
(0.0324437 0.00851344 0)
(0.0154843 0.0083297 0)
(-0.0010908 0.00810558 0)
(-0.0171689 0.00783002 0)
(-0.0326273 0.00748789 0)
(-0.0473668 0.00711366 0)
(-0.0612891 0.00669126 0)
(-0.0743207 0.00622082 0)
(-0.0864081 0.00572418 0)
(-0.0974741 0.00521069 0)
(-0.107476 0.00472804 0)
(-0.116441 0.00419129 0)
(-0.124396 0.00369735 0)
(-0.131366 0.00321675 0)
(-0.137395 0.00275714 0)
(-0.142526 0.0023316 0)
(-0.146813 0.00191999 0)
(-0.150312 0.00154246 0)
(-0.153042 0.00117755 0)
(-0.155046 0.000827726 0)
(-0.156361 0.000492135 0)
(-0.157009 0.000162422 0)
(-0.15702 -0.000160411 0)
(-0.156418 -0.000478586 0)
(-0.155155 -0.000737963 0)
(-0.153281 -0.00107402 0)
(-0.150828 -0.00136788 0)
(-0.147737 -0.0016917 0)
(-0.144036 -0.00201835 0)
(-0.139691 -0.00227149 0)
(-0.134704 -0.00262629 0)
(-0.129088 -0.00294578 0)
(-0.122817 -0.00327165 0)
(-0.115873 -0.00361862 0)
(-0.108234 -0.00395272 0)
(-0.0999109 -0.00430037 0)
(-0.0908604 -0.00468549 0)
(-0.0810617 -0.00502694 0)
(-0.0705166 -0.00542748 0)
(-0.0592034 -0.00583122 0)
(-0.0470892 -0.0061684 0)
(-0.0341756 -0.00659338 0)
(-0.0205375 -0.00699261 0)
(-0.00611129 -0.00728609 0)
(0.00903589 -0.00764922 0)
(0.0247586 -0.00792065 0)
(0.0409957 -0.00816348 0)
(0.0576229 -0.00830523 0)
(0.0744869 -0.00839115 0)
(0.0914038 -0.00837121 0)
(0.10819 -0.00825185 0)
(0.124598 -0.008007 0)
(0.140407 -0.00766336 0)
(0.155391 -0.0071401 0)
(0.169249 -0.00655382 0)
(0.18174 -0.00582383 0)
(0.192659 -0.00496103 0)
(0.201766 -0.00402917 0)
(0.208858 -0.00299345 0)
(0.213789 -0.00189938 0)
(0.216434 -0.000720536 0)
(0.216725 0.000435744 0)
(0.214559 0.00167917 0)
(0.209936 0.00286921 0)
(0.202987 0.00400965 0)
(0.193796 0.00508175 0)
(0.182539 0.00605694 0)
(0.16939 0.00694577 0)
(0.154613 0.00768605 0)
(0.138473 0.00829334 0)
(0.121231 0.00876968 0)
(0.103196 0.0090835 0)
(0.0846593 0.00926738 0)
(0.0658868 0.00933158 0)
(0.0470963 0.00928189 0)
(0.0285228 0.00911973 0)
(0.0103517 0.00890927 0)
(-0.00726043 0.00855876 0)
(-0.0241421 0.00818529 0)
(-0.0401804 0.0077348 0)
(-0.0553119 0.00727514 0)
(-0.0694718 0.00677342 0)
(-0.0826261 0.00625987 0)
(-0.0947594 0.0057651 0)
(-0.10589 0.00530414 0)
(-0.116027 0.00478096 0)
(-0.125186 0.00430277 0)
(-0.133389 0.0038415 0)
(-0.140683 0.00341741 0)
(-0.147156 0.00299932 0)
(-0.152841 0.00260159 0)
(-0.157763 0.00226324 0)
(-0.161937 0.00188412 0)
(-0.165401 0.00154805 0)
(-0.168171 0.0011997 0)
(-0.170245 0.000857088 0)
(-0.171595 0.000524033 0)
(-0.172246 0.00016511 0)
(-0.172218 -0.0001774 0)
(-0.171511 -0.000501929 0)
(-0.170186 -0.000797842 0)
(-0.168264 -0.00110676 0)
(-0.165808 -0.00137379 0)
(-0.16279 -0.00159764 0)
(-0.159232 -0.00189458 0)
(-0.155176 -0.00219348 0)
(-0.150467 -0.00246222 0)
(-0.145056 -0.00285621 0)
(-0.138892 -0.00325701 0)
(-0.131886 -0.0036858 0)
(-0.124014 -0.0041192 0)
(-0.115268 -0.00455497 0)
(-0.105648 -0.00498738 0)
(-0.0951651 -0.0053966 0)
(-0.0838721 -0.0057891 0)
(-0.0717837 -0.00617396 0)
(-0.0589897 -0.00655136 0)
(-0.0454322 -0.00690182 0)
(-0.0311067 -0.00728235 0)
(-0.0160885 -0.00761532 0)
(-0.000369191 -0.00792388 0)
(0.0159189 -0.00818423 0)
(0.0325881 -0.0083271 0)
(0.0495017 -0.00842632 0)
(0.0664557 -0.00836929 0)
(0.0832229 -0.00823788 0)
(0.0995966 -0.00796009 0)
(0.115323 -0.0076119 0)
(0.1302 -0.00712226 0)
(0.14399 -0.00650628 0)
(0.156408 -0.00576217 0)
(0.167188 -0.00490625 0)
(0.176112 -0.00392476 0)
(0.182963 -0.00283305 0)
(0.18755 -0.00168133 0)
(0.18972 -0.000474816 0)
(0.189443 0.000737233 0)
(0.186613 0.00199929 0)
(0.181328 0.00322814 0)
(0.173675 0.004355 0)
(0.163797 0.00541621 0)
(0.151885 0.00635823 0)
(0.138202 0.00717098 0)
(0.123045 0.00782839 0)
(0.106692 0.00834978 0)
(0.0894485 0.00871958 0)
(0.0716175 0.00893608 0)
(0.0534802 0.00902664 0)
(0.0352829 0.00900756 0)
(0.0172451 0.00885501 0)
(-0.000429407 0.00864711 0)
(-0.017555 0.00835379 0)
(-0.033996 0.00796724 0)
(-0.0496315 0.0075571 0)
(-0.0644039 0.00711581 0)
(-0.0782973 0.00667447 0)
(-0.0912953 0.00622011 0)
(-0.103419 0.00577775 0)
(-0.11464 0.0053336 0)
(-0.124998 0.0049466 0)
(-0.134492 0.00447975 0)
(-0.143115 0.00407603 0)
(-0.150887 0.00365206 0)
(-0.157825 0.00323983 0)
(-0.163959 0.00284312 0)
(-0.16931 0.00246526 0)
(-0.173915 0.00212938 0)
(-0.177809 0.00175913 0)
(-0.181004 0.00142007 0)
(-0.183513 0.00109046 0)
(-0.185359 0.00076822 0)
(-0.186584 0.000457066 0)
(-0.187206 0.000159961 0)
(-0.187174 -0.000113801 0)
(-0.186476 -0.000464498 0)
(-0.185181 -0.000777115 0)
(-0.183295 -0.00108676 0)
(-0.180722 -0.00135668 0)
(-0.177488 -0.00172802 0)
(-0.173699 -0.00206333 0)
(-0.169137 -0.00237262 0)
(-0.1638 -0.00277528 0)
(-0.157909 -0.00310517 0)
(-0.151139 -0.00350659 0)
(-0.14352 -0.00391394 0)
(-0.135185 -0.00435252 0)
(-0.125976 -0.0048324 0)
(-0.115828 -0.00526122 0)
(-0.10461 -0.00578091 0)
(-0.092328 -0.00635341 0)
(-0.0788828 -0.00683978 0)
(-0.0643444 -0.00741891 0)
(-0.0487079 -0.00794383 0)
(-0.0320556 -0.00837658 0)
(-0.0145269 -0.00882154 0)
(0.00380441 -0.00913813 0)
(0.0225211 -0.00929071 0)
(0.0414281 -0.00947187 0)
(0.0604668 -0.00945462 0)
(0.0794227 -0.00937828 0)
(0.0981166 -0.00916095 0)
(0.116201 -0.00874501 0)
(0.133358 -0.00825122 0)
(0.149387 -0.00760122 0)
(0.16398 -0.00674368 0)
(0.176776 -0.0058234 0)
(0.187575 -0.00477185 0)
(0.196149 -0.00352609 0)
(0.20225 -0.00231286 0)
(0.20575 -0.000972344 0)
(0.206551 0.000291319 0)
(0.204665 0.00161998 0)
(0.200045 0.0029393 0)
(0.192964 0.00405493 0)
(0.183625 0.00514355 0)
(0.172229 0.00615412 0)
(0.159047 0.00687985 0)
(0.14439 0.00757754 0)
(0.128599 0.00799201 0)
(0.111925 0.00837165 0)
(0.0947197 0.00863174 0)
(0.0771948 0.0086166 0)
(0.0596595 0.00862331 0)
(0.0422151 0.00849661 0)
(0.0251587 0.00822625 0)
(0.0090164 0.00793007 0)
(-0.00624502 0.007574 0)
(-0.0208953 0.00723282 0)
(-0.0349665 0.00686197 0)
(-0.048281 0.00643025 0)
(-0.0608142 0.00604881 0)
(-0.0725649 0.00566715 0)
(-0.0835411 0.00526392 0)
(-0.0937717 0.00490862 0)
(-0.103284 0.00454127 0)
(-0.112111 0.00421605 0)
(-0.12028 0.00389913 0)
(-0.127806 0.00357343 0)
(-0.134709 0.00327065 0)
(-0.14099 0.00296511 0)
(-0.146645 0.00264483 0)
(-0.151662 0.00232723 0)
(-0.156024 0.00199663 0)
(-0.159702 0.00164748 0)
(-0.162669 0.0012868 0)
(-0.164901 0.000904849 0)
(-0.166344 0.000513516 0)
(-0.167015 0.000114185 0)
(-0.166862 -0.000311209 0)
(-0.165805 -0.000748864 0)
(-0.163854 -0.00119337 0)
(-0.160995 -0.00164829 0)
(-0.157213 -0.00210306 0)
(-0.152507 -0.00256983 0)
(-0.146875 -0.00302332 0)
(-0.140317 -0.00347028 0)
(-0.132848 -0.00393636 0)
(-0.124481 -0.00436525 0)
(-0.115235 -0.00477836 0)
(-0.105139 -0.00522198 0)
(-0.0942203 -0.00559905 0)
(-0.0825181 -0.00601471 0)
(-0.0700697 -0.00634337 0)
(-0.0569227 -0.00663888 0)
(-0.0430943 -0.00698565 0)
(-0.0284376 -0.00721214 0)
(-0.0116503 -0.00740357 0)
(0.221884 0.00350019 0)
(0.216305 0.00503329 0)
(0.207939 0.00652897 0)
(0.197525 0.00793094 0)
(0.185256 0.00904538 0)
(0.17138 0.0101475 0)
(0.15612 0.0108837 0)
(0.139756 0.0116394 0)
(0.122536 0.0122325 0)
(0.104712 0.0124121 0)
(0.0865406 0.0126584 0)
(0.0682459 0.0127479 0)
(0.0500354 0.0124775 0)
(0.0320392 0.0122963 0)
(0.0140252 0.011811 0)
(-0.00281952 0.0114727 0)
(-0.0184827 0.0110155 0)
(-0.033862 0.0103582 0)
(-0.0484041 0.00979105 0)
(-0.0620472 0.00918416 0)
(-0.0747541 0.0084807 0)
(-0.0865244 0.00785446 0)
(-0.0973553 0.00722142 0)
(-0.107255 0.00655409 0)
(-0.116251 0.00594768 0)
(-0.124366 0.00532954 0)
(-0.131636 0.00476301 0)
(-0.138092 0.00421395 0)
(-0.143767 0.00367481 0)
(-0.148695 0.00316988 0)
(-0.152907 0.00268138 0)
(-0.156428 0.00220497 0)
(-0.159284 0.00174477 0)
(-0.161495 0.00129333 0)
(-0.163076 0.000853269 0)
(-0.164015 0.000420236 0)
(-0.164332 -2.67486e-05 0)
(-0.163996 -0.000485346 0)
(-0.162994 -0.000941292 0)
(-0.161327 -0.00141986 0)
(-0.158971 -0.00190083 0)
(-0.15591 -0.00241167 0)
(-0.152126 -0.00292121 0)
(-0.147568 -0.00345028 0)
(-0.142214 -0.00403807 0)
(-0.136047 -0.00458019 0)
(-0.129032 -0.00515141 0)
(-0.121128 -0.00581152 0)
(-0.112318 -0.00638485 0)
(-0.102622 -0.00697247 0)
(-0.0919427 -0.00767817 0)
(-0.0803816 -0.00826899 0)
(-0.067876 -0.00896149 0)
(-0.0544273 -0.00955757 0)
(-0.0401784 -0.00998416 0)
(-0.0251736 -0.0107205 0)
(-0.00960502 -0.0110808 0)
(0.00653882 -0.0114028 0)
(0.0232531 -0.0118219 0)
(0.04047 -0.011993 0)
(0.0579627 -0.0121716 0)
(0.0755768 -0.0121699 0)
(0.093126 -0.0119859 0)
(0.110365 -0.0117492 0)
(0.127118 -0.0113606 0)
(0.143182 -0.0107604 0)
(0.158325 -0.0101125 0)
(0.172368 -0.00926424 0)
(0.185098 -0.00834045 0)
(0.196403 -0.0072999 0)
(0.20605 -0.00611286 0)
(0.213931 -0.00482079 0)
(0.219895 -0.00347774 0)
(0.223786 -0.00200684 0)