/*--------------------------------*- C++ -*----------------------------------*\
| =========                 |                                                 |
| \\      /  F ield         | OpenFOAM: The Open Source CFD Toolbox           |
|  \\    /   O peration     | Version:  3.0.1                                 |
|   \\  /    A nd           | Web:      www.OpenFOAM.org                      |
|    \\/     M anipulation  |                                                 |
\*---------------------------------------------------------------------------*/
FoamFile
{
    version     2.0;
    format      ascii;
    class       volVectorField;
    location    "10.8";
    object      U;
}
// * * * * * * * * * * * * * * * * * * * * * * * * * * * * * * * * * * * * * //

dimensions      [0 1 -1 0 0 0 0];

internalField   nonuniform List<vector> 
21420
(
(0.193987 -0.00112032 0)
(0.202884 -0.000928689 0)
(0.211136 -0.000707515 0)
(0.217133 -0.000475432 0)
(0.22076 -0.000234427 0)
(0.221906 9.05697e-06 0)
(0.220647 0.000247945 0)
(0.216864 0.000490458 0)
(0.210721 0.000725645 0)
(0.202331 0.000935839 0)
(0.191838 0.0011404 0)
(0.179426 0.00132955 0)
(0.165319 0.00146977 0)
(0.149761 0.00161238 0)
(0.133008 0.00169732 0)
(0.115326 0.00178882 0)
(0.096964 0.00185672 0)
(0.0781771 0.00186407 0)
(0.0591952 0.00188336 0)
(0.040181 0.00188069 0)
(0.0214086 0.00182877 0)
(0.00321297 0.00178385 0)
(-0.0143583 0.00172862 0)
(-0.0312651 0.00163965 0)
(-0.0473807 0.0015623 0)
(-0.0626145 0.00146116 0)
(-0.0769108 0.0013718 0)
(-0.0902354 0.00127745 0)
(-0.102566 0.00117267 0)
(-0.113905 0.00107762 0)
(-0.124261 0.000982153 0)
(-0.13365 0.000884052 0)
(-0.142096 0.00079308 0)
(-0.149629 0.000701937 0)
(-0.156279 0.000616485 0)
(-0.162077 0.000533408 0)
(-0.167055 0.000452315 0)
(-0.171245 0.000374822 0)
(-0.174672 0.000299783 0)
(-0.177371 0.000226756 0)
(-0.17937 0.000155782 0)
(-0.180657 8.95268e-05 0)
(-0.181283 2.56145e-05 0)
(-0.181216 -4.45433e-05 0)
(-0.180457 -0.000113841 0)
(-0.179036 -0.000181951 0)
(-0.176897 -0.000254762 0)
(-0.174019 -0.000331262 0)
(-0.170399 -0.000404719 0)
(-0.165969 -0.000484636 0)
(-0.160656 -0.00057749 0)
(-0.154439 -0.000663081 0)
(-0.147254 -0.000768578 0)
(-0.139063 -0.000859643 0)
(-0.129874 -0.00095507 0)
(-0.119623 -0.00107023 0)
(-0.108293 -0.00116469 0)
(-0.0959854 -0.00125339 0)
(-0.0826859 -0.00136387 0)
(-0.0684554 -0.00144329 0)
(-0.0534057 -0.00154129 0)
(-0.0375148 -0.00160918 0)
(-0.0209568 -0.00166279 0)
(-0.00388605 -0.00171321 0)
(0.0136406 -0.00174717 0)
(0.0314437 -0.00175959 0)
(0.049335 -0.00177292 0)
(0.0671589 -0.00175644 0)
(0.0847586 -0.00173285 0)
(0.101981 -0.00169055 0)
(0.118663 -0.00161932 0)
(0.134628 -0.00153919 0)
(0.149637 -0.00144106 0)
(0.163501 -0.00131543 0)
(0.176051 -0.00117905 0)
(0.187076 -0.00102488 0)
(0.196448 -0.000849992 0)
(0.203973 -0.000656264 0)
(0.209486 -0.000445539 0)
(0.212847 -0.000224651 0)
(0.213923 1.01642e-07 0)
(0.212737 0.000237593 0)
(0.209042 0.000476565 0)
(0.203029 0.000711545 0)
(0.194726 0.000934536 0)
(0.184234 0.00113981 0)
(0.171723 0.00133476 0)
(0.157389 0.00150434 0)
(0.141432 0.0016526 0)
(0.124119 0.00177247 0)
(0.105743 0.00186747 0)
(0.0865836 0.00193812 0)
(0.0668863 0.00196941 0)
(0.0469464 0.00198072 0)
(0.0270675 0.00196404 0)
(0.00748579 0.00192131 0)
(-0.0115289 0.00185318 0)
(-0.0297443 0.00176459 0)
(-0.0469785 0.00166048 0)
(-0.0630966 0.0015376 0)
(-0.077975 0.00140421 0)
(-0.0914836 0.00127428 0)
(-0.103624 0.00114317 0)
(-0.114454 0.00101 0)
(-0.124014 0.000890604 0)
(-0.132392 0.000770568 0)
(-0.139674 0.000666247 0)
(-0.145908 0.000579381 0)
(-0.151268 0.000492031 0)
(-0.155879 0.000422834 0)
(-0.15981 0.000356867 0)
(-0.163137 0.000300715 0)
(-0.165905 0.000249947 0)
(-0.168182 0.000205543 0)
(-0.170012 0.000160182 0)
(-0.1714 0.000117484 0)
(-0.172356 7.3858e-05 0)
(-0.172874 2.90769e-05 0)
(-0.172906 -2.13081e-05 0)
(-0.172402 -6.86359e-05 0)
(-0.171383 -0.000132475 0)
(-0.169748 -0.00019185 0)
(-0.16747 -0.000259738 0)
(-0.164485 -0.000334672 0)
(-0.160717 -0.000410406 0)
(-0.156092 -0.000496785 0)
(-0.150586 -0.000593888 0)
(-0.144093 -0.000692907 0)
(-0.136579 -0.000796874 0)
(-0.127995 -0.000905131 0)
(-0.118309 -0.00101704 0)
(-0.10749 -0.00112773 0)
(-0.0955544 -0.00123905 0)
(-0.0825056 -0.00135013 0)
(-0.0683617 -0.00145363 0)
(-0.0532167 -0.00154992 0)
(-0.0371589 -0.00163655 0)
(-0.0202739 -0.00170578 0)
(-0.00272158 -0.0017653 0)
(0.0153305 -0.0018117 0)
(0.0337177 -0.00183476 0)
(0.0522185 -0.00183633 0)
(0.0706262 -0.0018153 0)
(0.0887325 -0.00177332 0)
(0.10629 -0.00170506 0)
(0.123045 -0.00161545 0)
(0.13878 -0.00150292 0)
(0.153297 -0.00136999 0)
(0.166368 -0.0012173 0)
(0.177782 -0.00104909 0)
(0.187398 -0.000857733 0)
(0.195111 -0.000661531 0)
(0.200784 -0.00045775 0)
(0.204331 -0.000250834 0)
(0.205746 -3.88084e-05 0)
(0.205109 0.000167239 0)
(0.202295 0.000375734 0)
(0.197514 0.000570504 0)
(0.190853 0.000750035 0)
(0.18244 0.000916847 0)
(0.17241 0.00106415 0)
(0.160984 0.00120047 0)
(0.148361 0.00130848 0)
(0.134707 0.0013971 0)
(0.120251 0.00146852 0)
(0.105191 0.00151734 0)
(0.0897345 0.00154703 0)
(0.074076 0.00155762 0)
(0.0583981 0.00155099 0)
(0.0428614 0.00152902 0)
(0.0276119 0.0014962 0)
(0.0128062 0.00144333 0)
(-0.0014501 0.0013864 0)
(-0.0150872 0.0013205 0)
(-0.0280249 0.00124676 0)
(-0.0401973 0.00116857 0)
(-0.0515726 0.00108829 0)
(-0.0621183 0.00100455 0)
(-0.0718199 0.000920742 0)
(-0.0806723 0.00083597 0)
(-0.0886782 0.000751867 0)
(-0.0958416 0.000668252 0)
(-0.102174 0.000587468 0)
(-0.107687 0.000507298 0)
(-0.112398 0.000429211 0)
(-0.116324 0.00035182 0)
(-0.11948 0.000275606 0)
(-0.121877 0.00020086 0)
(-0.123527 0.000127677 0)
(-0.124439 5.61913e-05 0)
(-0.124654 -1.39609e-05 0)
(-0.124138 -8.4605e-05 0)
(-0.122925 -0.000156169 0)
(-0.121004 -0.000224789 0)
(-0.118393 -0.000293085 0)
(-0.115091 -0.000361066 0)
(-0.111106 -0.0004288 0)
(-0.106442 -0.000495518 0)
(-0.101119 -0.000562477 0)
(-0.0951208 -0.000627366 0)
(-0.0884598 -0.000691114 0)
(-0.0811728 -0.000753043 0)
(-0.0732804 -0.000812569 0)
(-0.0647981 -0.000867717 0)
(-0.0557762 -0.000922568 0)
(-0.0462362 -0.000970566 0)
(-0.0362452 -0.00101416 0)
(-0.0258471 -0.00104893 0)
(-0.015091 -0.00108045 0)
(-0.00406519 -0.00110264 0)
(0.00713417 -0.00111954 0)
(0.018456 -0.00112462 0)
(0.0297688 -0.00112284 0)
(0.0409939 -0.0011054 0)
(0.0520467 -0.00108219 0)
(0.0627974 -0.001047 0)
(0.0731143 -0.00100238 0)
(0.0829177 -0.00094336 0)
(0.092124 -0.000876978 0)
(0.100603 -0.000801341 0)
(0.108242 -0.000715385 0)
(0.114984 -0.000622654 0)
(0.120777 -0.000522502 0)
(0.125525 -0.000417917 0)
(0.129174 -0.000307185 0)
(0.131718 -0.0001976 0)
(0.133156 -8.68425e-05 0)
(0.133471 2.23361e-05 0)
(0.132679 0.000132361 0)
(0.130802 0.000235294 0)
(0.127945 0.000332859 0)
(0.12412 0.000423116 0)
(0.119413 0.000506702 0)
(0.113929 0.000581858 0)
(0.107752 0.000644265 0)
(0.100983 0.000697817 0)
(0.0937267 0.000740612 0)
(0.0860894 0.000772571 0)
(0.078157 0.000794087 0)
(0.0700695 0.00080978 0)
(0.0619368 0.00080933 0)
(0.0538117 0.00080241 0)
(0.0457954 0.000787264 0)
(0.0379669 0.000764895 0)
(0.030392 0.000735886 0)
(0.0231125 0.000702187 0)
(0.0162199 0.000666606 0)
(0.00974225 0.000622403 0)
(0.0037063 0.000575955 0)
(-0.00184845 0.000529991 0)
(-0.00693874 0.000481535 0)
(-0.0115409 0.000432095 0)
(-0.0156461 0.000382679 0)
(-0.0192552 0.000333674 0)
(-0.022374 0.000285384 0)
(-0.0250114 0.000238114 0)
(-0.0271809 0.000192434 0)
(-0.0288981 0.000148491 0)
(-0.0301817 0.000106349 0)
(-0.0310517 6.6502e-05 0)
(-0.0315307 2.88673e-05 0)
(-0.0316436 -6.49118e-06 0)
(-0.0314084 -3.96355e-05 0)
(-0.0308533 -7.04804e-05 0)
(-0.0299994 -9.88496e-05 0)
(-0.02887 -0.000124973 0)
(-0.0274896 -0.000148768 0)
(-0.0258804 -0.000170428 0)
(-0.0240643 -0.000189674 0)
(-0.022065 -0.000206787 0)
(-0.0199044 -0.000221657 0)
(-0.0176042 -0.00023453 0)
(-0.0151851 -0.00024512 0)
(-0.0126689 -0.000253739 0)
(-0.0100763 -0.000260312 0)
(-0.0074268 -0.000264928 0)
(-0.00474017 -0.000267685 0)
(-0.00203872 -0.000268609 0)
(0.000665933 -0.000267356 0)
(0.00335598 -0.000264878 0)
(0.00600694 -0.000260632 0)
(0.00860713 -0.000254836 0)
(0.0111413 -0.000247636 0)
(0.0135956 -0.000239018 0)
(0.0159568 -0.000229264 0)
(0.018213 -0.000218326 0)
(0.0203538 -0.000206379 0)
(0.0223696 -0.000193593 0)
(0.0242521 -0.000180058 0)
(0.0259948 -0.00016592 0)
(0.0275917 -0.000151241 0)
(0.0290386 -0.00013617 0)
(0.0303323 -0.000120901 0)
(0.0314712 -0.000105455 0)
(0.0324548 -9.00312e-05 0)
(0.0332837 -7.47568e-05 0)
(0.0339595 -5.96505e-05 0)
(0.0344848 -4.49055e-05 0)
(0.0348637 -3.05668e-05 0)
(0.0351008 -1.66503e-05 0)
(0.0352015 -3.33431e-06 0)
(0.0351718 9.24986e-06 0)
(0.0350157 2.12365e-05 0)
(0.0347428 3.24026e-05 0)
(0.0343607 4.28787e-05 0)
(0.033877 5.25936e-05 0)
(0.0332997 6.14289e-05 0)
(0.0326371 6.9519e-05 0)
(0.0318975 7.67006e-05 0)
(0.0310891 8.31318e-05 0)
(0.0302204 8.87478e-05 0)
(0.0292996 9.34565e-05 0)
(0.0283348 9.74632e-05 0)
(0.0273338 0.000100709 0)
(0.0263043 0.000103121 0)
(0.0252534 0.000104932 0)
(0.0241881 0.000105986 0)
(0.0231146 0.000106519 0)
(0.0220392 0.000106478 0)
(0.0209672 0.000105812 0)
(0.0199039 0.00010475 0)
(0.0188539 0.000103245 0)
(0.0178215 0.000101262 0)
(0.0168104 9.90081e-05 0)
(0.0158239 9.63748e-05 0)
(0.014865 9.35503e-05 0)
(0.013936 9.05004e-05 0)
(0.0130389 8.7206e-05 0)
(0.0121756 8.38198e-05 0)
(0.0113473 8.03145e-05 0)
(0.0105549 7.66805e-05 0)
(0.00979934 7.30372e-05 0)
(0.00908082 6.93668e-05 0)
(0.0083995 6.56658e-05 0)
(0.00775524 6.2021e-05 0)
(0.0071477 5.83941e-05 0)
(0.00657632 5.48537e-05 0)
(0.00604043 5.1387e-05 0)
(0.00553917 4.79917e-05 0)
(0.00507159 4.47138e-05 0)
(0.00463663 4.15449e-05 0)
(0.00423311 3.84841e-05 0)
(0.00385979 3.55596e-05 0)
(0.00351538 3.27575e-05 0)
(0.00319853 3.0097e-05 0)
(0.00290789 2.75711e-05 0)
(0.00264207 2.51766e-05 0)
(0.00239969 2.2922e-05 0)
(0.00217941 2.08008e-05 0)
(0.00197986 1.8809e-05 0)
(0.00179973 1.69487e-05 0)
(0.00163772 1.52125e-05 0)
(0.00149259 1.36003e-05 0)
(0.00136311 1.21059e-05 0)
(0.00124812 1.07243e-05 0)
(0.0011465 9.45213e-06 0)
(0.00104519 8.28385e-06 0)
(0.194063 -0.00336177 0)
(0.202968 -0.00278677 0)
(0.211225 -0.0021231 0)
(0.217226 -0.00142682 0)
(0.220855 -0.000704177 0)
(0.222006 2.85688e-05 0)
(0.220744 0.000743858 0)
(0.216956 0.00147178 0)
(0.210811 0.00217744 0)
(0.202414 0.00280814 0)
(0.191914 0.00342197 0)
(0.179495 0.00398952 0)
(0.165377 0.00441024 0)
(0.14981 0.00483813 0)
(0.133046 0.00509295 0)
(0.115354 0.00536745 0)
(0.0969824 0.00557115 0)
(0.0781861 0.00559309 0)
(0.0591956 0.00565092 0)
(0.0401734 0.00564287 0)
(0.0213934 0.00548728 0)
(0.00319147 0.00535188 0)
(-0.014384 0.00518629 0)
(-0.0312944 0.00491929 0)
(-0.0474135 0.00468715 0)
(-0.062649 0.00438371 0)
(-0.0769471 0.00411557 0)
(-0.0902725 0.00383245 0)
(-0.102603 0.0035181 0)
(-0.113942 0.00323286 0)
(-0.124298 0.00294643 0)
(-0.133685 0.00265211 0)
(-0.142131 0.00237913 0)
(-0.149662 0.00210566 0)
(-0.156311 0.00184941 0)
(-0.162108 0.00160018 0)
(-0.167086 0.00135679 0)
(-0.171274 0.00112441 0)
(-0.174702 0.00089891 0)
(-0.1774 0.000680535 0)
(-0.179397 0.000468467 0)
(-0.180687 0.000269336 0)
(-0.181311 7.92258e-05 0)
(-0.181245 -0.000132846 0)
(-0.180488 -0.000341737 0)
(-0.179069 -0.000545875 0)
(-0.176932 -0.000763716 0)
(-0.174056 -0.000993446 0)
(-0.170439 -0.00121377 0)
(-0.166012 -0.00145354 0)
(-0.160703 -0.0017321 0)
(-0.15449 -0.00198885 0)
(-0.147308 -0.00230522 0)
(-0.139121 -0.00257896 0)
(-0.129933 -0.00286489 0)
(-0.119684 -0.0032105 0)
(-0.108355 -0.00349371 0)
(-0.0960461 -0.00375849 0)
(-0.0827478 -0.0040942 0)
(-0.0685136 -0.00433033 0)
(-0.0534591 -0.00462563 0)
(-0.0375649 -0.00482878 0)
(-0.0209962 -0.00498505 0)
(-0.00392588 -0.00514582 0)
(0.0136162 -0.00524145 0)
(0.0314273 -0.00527897 0)
(0.0493301 -0.00532171 0)
(0.0671641 -0.00527075 0)
(0.0847747 -0.00520041 0)
(0.102009 -0.00507058 0)
(0.118702 -0.00485727 0)
(0.134679 -0.00461811 0)
(0.1497 -0.00432749 0)
(0.16357 -0.00395791 0)
(0.176133 -0.00354524 0)
(0.187188 -0.00306357 0)
(0.196559 -0.00254724 0)
(0.204085 -0.00196912 0)
(0.209604 -0.00133613 0)
(0.212965 -0.000681221 0)
(0.214053 3.88162e-07 0)
(0.212852 0.000711381 0)
(0.209158 0.00143162 0)
(0.203133 0.00213046 0)
(0.194825 0.00280062 0)
(0.18433 0.00343084 0)
(0.171801 0.0040058 0)
(0.157453 0.00451372 0)
(0.141483 0.00495807 0)
(0.124151 0.00531829 0)
(0.105755 0.00559813 0)
(0.0865846 0.00580985 0)
(0.0668841 0.00591789 0)
(0.0469294 0.00595729 0)
(0.0270299 0.00588894 0)
(0.00743503 0.00576394 0)
(-0.0115936 0.00555787 0)
(-0.0298199 0.00529173 0)
(-0.0470675 0.00497158 0)
(-0.0631797 0.00461718 0)
(-0.0780555 0.00422678 0)
(-0.0915735 0.00381916 0)
(-0.103713 0.00343122 0)
(-0.114544 0.00303077 0)
(-0.124105 0.00266758 0)
(-0.132476 0.0023095 0)
(-0.139752 0.00199784 0)
(-0.145983 0.00173636 0)
(-0.151342 0.00147613 0)
(-0.155944 0.00126644 0)
(-0.159871 0.00107262 0)
(-0.163196 0.000901578 0)
(-0.165961 0.000747471 0)
(-0.168237 0.000616805 0)
(-0.170065 0.000480334 0)
(-0.171455 0.000350814 0)
(-0.172412 0.000219344 0)
(-0.172929 8.21838e-05 0)
(-0.172958 -6.40302e-05 0)
(-0.172468 -0.000222083 0)
(-0.171425 -0.000388086 0)
(-0.169801 -0.000574969 0)
(-0.167528 -0.000776397 0)
(-0.164546 -0.00100405 0)
(-0.160776 -0.00123018 0)
(-0.156165 -0.00150576 0)
(-0.150643 -0.0017817 0)
(-0.144152 -0.00207824 0)
(-0.136642 -0.00238974 0)
(-0.12806 -0.00271507 0)
(-0.11837 -0.00304749 0)
(-0.107554 -0.00338784 0)
(-0.0956159 -0.00372507 0)
(-0.0825527 -0.00405072 0)
(-0.0684062 -0.00436002 0)
(-0.0532602 -0.00465179 0)
(-0.0371883 -0.00490388 0)
(-0.0203116 -0.00513133 0)
(-0.0027431 -0.00530746 0)
(0.015328 -0.00543141 0)
(0.0337281 -0.00550284 0)
(0.052238 -0.00550941 0)
(0.0706549 -0.00544733 0)
(0.0887733 -0.00532111 0)
(0.106345 -0.00511683 0)
(0.12311 -0.00485113 0)
(0.138856 -0.00451169 0)
(0.153386 -0.0041102 0)
(0.166468 -0.00365152 0)
(0.17789 -0.00314788 0)
(0.187505 -0.00258551 0)
(0.195225 -0.00199178 0)
(0.200904 -0.00137599 0)
(0.204466 -0.000741804 0)
(0.20587 -0.000116396 0)
(0.205226 0.000503965 0)
(0.202408 0.00112936 0)
(0.197625 0.00171167 0)
(0.190957 0.0022519 0)
(0.182531 0.00274855 0)
(0.172496 0.00319283 0)
(0.161057 0.00360125 0)
(0.148425 0.00392695 0)
(0.134763 0.00419783 0)
(0.120289 0.00440473 0)
(0.105221 0.00455362 0)
(0.0897546 0.00464283 0)
(0.0740868 0.00467451 0)
(0.0583978 0.00465449 0)
(0.042847 0.00458435 0)
(0.0275923 0.00448812 0)
(0.0127843 0.00433568 0)
(-0.00147962 0.00416125 0)
(-0.0151239 0.00396059 0)
(-0.0280638 0.00374084 0)
(-0.0402409 0.00350727 0)
(-0.0516214 0.00326318 0)
(-0.062168 0.0030136 0)
(-0.071871 0.00276267 0)
(-0.080725 0.00250824 0)
(-0.088731 0.00225532 0)
(-0.0958943 0.00200664 0)
(-0.102226 0.0017622 0)
(-0.107741 0.00152242 0)
(-0.112453 0.00128673 0)
(-0.116379 0.0010547 0)
(-0.119534 0.000826402 0)
(-0.121931 0.00060212 0)
(-0.123581 0.00038223 0)
(-0.124491 0.000170006 0)
(-0.124709 -4.60957e-05 0)
(-0.124193 -0.000258113 0)
(-0.122971 -0.00046546 0)
(-0.121054 -0.000673672 0)
(-0.118443 -0.000878977 0)
(-0.115138 -0.00108298 0)
(-0.111154 -0.00128835 0)
(-0.106491 -0.00149119 0)
(-0.10116 -0.00168629 0)
(-0.0951628 -0.00188093 0)
(-0.0885009 -0.00207334 0)
(-0.0812108 -0.00225897 0)
(-0.0733163 -0.00243922 0)
(-0.0648356 -0.00260857 0)
(-0.0558025 -0.00276691 0)
(-0.0462604 -0.00291141 0)
(-0.0362668 -0.00304299 0)
(-0.0258641 -0.00314633 0)
(-0.0151032 -0.00324229 0)
(-0.00407719 -0.00331395 0)
(0.00713539 -0.00335875 0)
(0.0184611 -0.003373 0)
(0.0297796 -0.00336931 0)
(0.0410114 -0.00331727 0)
(0.0520692 -0.00324739 0)
(0.062826 -0.00314258 0)
(0.0731502 -0.00300824 0)
(0.0829598 -0.00283047 0)
(0.092171 -0.00263205 0)
(0.100655 -0.00240555 0)
(0.1083 -0.00214772 0)
(0.115045 -0.00186836 0)
(0.120841 -0.00156843 0)
(0.125593 -0.00125407 0)
(0.129243 -0.000923884 0)
(0.131787 -0.00059505 0)
(0.133228 -0.000258497 0)
(0.133541 6.69036e-05 0)
(0.132744 0.000397482 0)
(0.130866 0.000706271 0)
(0.128006 0.000999131 0)
(0.124177 0.00126983 0)
(0.119467 0.00152084 0)
(0.113977 0.00174614 0)
(0.107795 0.00193395 0)
(0.10102 0.00209381 0)
(0.0937582 0.00222268 0)
(0.0861153 0.00231874 0)
(0.078178 0.00238284 0)
(0.0700848 0.00243047 0)
(0.0619453 0.00242852 0)
(0.0538162 0.0024081 0)
(0.0457953 0.00236258 0)
(0.0379628 0.00229567 0)
(0.0303834 0.00220794 0)
(0.0231018 0.0021068 0)
(0.0162058 0.00200041 0)
(0.00972484 0.00186751 0)
(0.00368752 0.00172851 0)
(-0.00186856 0.00159038 0)
(-0.00696048 0.00144491 0)
(-0.0115635 0.00129656 0)
(-0.0156692 0.00114834 0)
(-0.0192793 0.00100069 0)
(-0.0223979 0.000856125 0)
(-0.025035 0.000714547 0)
(-0.0272044 0.000577387 0)
(-0.0289211 0.00044549 0)
(-0.0302041 0.000319076 0)
(-0.0310734 0.000199406 0)
(-0.0315513 8.67545e-05 0)
(-0.0316636 -1.98245e-05 0)
(-0.0314273 -0.000119209 0)
(-0.0308708 -0.000211515 0)
(-0.0300161 -0.000296677 0)
(-0.0288854 -0.000375046 0)
(-0.027504 -0.000446709 0)
(-0.0258933 -0.00051136 0)
(-0.0240762 -0.000569199 0)
(-0.0220756 -0.000620519 0)
(-0.019914 -0.000665396 0)
(-0.0176123 -0.000703713 0)
(-0.0151921 -0.000735531 0)
(-0.0126748 -0.000761412 0)
(-0.010081 -0.000781213 0)
(-0.00743037 -0.000795015 0)
(-0.0047427 -0.000803227 0)
(-0.00204013 -0.000806019 0)
(0.000665602 -0.000802356 0)
(0.0033565 -0.000794841 0)
(0.00600837 -0.000782039 0)
(0.00860935 -0.000764789 0)
(0.0111444 -0.000743057 0)
(0.0135994 -0.000717205 0)
(0.0159612 -0.000687951 0)
(0.0182181 -0.000655111 0)
(0.0203593 -0.000619255 0)
(0.0223755 -0.000581007 0)
(0.0242586 -0.000540242 0)
(0.0260015 -0.00049786 0)
(0.0275987 -0.000453809 0)
(0.0290457 -0.000408585 0)
(0.0303396 -0.000362768 0)
(0.0314785 -0.000316415 0)
(0.0324622 -0.000270112 0)
(0.033291 -0.000224349 0)
(0.0339666 -0.000179045 0)
(0.0344919 -0.000134692 0)
(0.0348706 -9.1701e-05 0)
(0.0351074 -4.99917e-05 0)
(0.035208 -9.97233e-06 0)
(0.0351778 2.77457e-05 0)
(0.0350214 6.37111e-05 0)
(0.0347483 9.72157e-05 0)
(0.0343658 0.000128651 0)
(0.0338818 0.000157799 0)
(0.0333041 0.000184308 0)
(0.0326411 0.000208581 0)
(0.0319011 0.000230127 0)
(0.0310924 0.000249422 0)
(0.0302233 0.000266271 0)
(0.0293021 0.000280398 0)
(0.028337 0.000292418 0)
(0.0273357 0.000302156 0)
(0.0263058 0.00030939 0)
(0.0252546 0.000314821 0)
(0.0241889 0.000317983 0)
(0.0231152 0.000319581 0)
(0.0220395 0.000319456 0)
(0.0209673 0.000317459 0)
(0.0199038 0.000314271 0)
(0.0188536 0.000309754 0)
(0.017821 0.000303803 0)
(0.0168097 0.000297039 0)
(0.0158231 0.000289137 0)
(0.0148641 0.000280663 0)
(0.0139349 0.000271511 0)
(0.0130378 0.000261627 0)
(0.0121744 0.000251467 0)
(0.011346 0.000240949 0)
(0.0105537 0.000230046 0)
(0.00979802 0.000219115 0)
(0.00907948 0.000208102 0)
(0.00839815 0.000196998 0)
(0.00775389 0.000186063 0)
(0.00714636 0.000175181 0)
(0.006575 0.00016456 0)
(0.00603913 0.000154159 0)
(0.0055379 0.000143973 0)
(0.00507036 0.000134138 0)
(0.00463544 0.000124631 0)
(0.00423196 0.000115448 0)
(0.00385869 0.000106675 0)
(0.00351433 9.8268e-05 0)
(0.00319753 9.02862e-05 0)
(0.00290693 8.27085e-05 0)
(0.00264116 7.55249e-05 0)
(0.00239884 6.87611e-05 0)
(0.0021786 6.23977e-05 0)
(0.00197911 5.64222e-05 0)
(0.00179902 5.08414e-05 0)
(0.00163707 4.56331e-05 0)
(0.00149198 4.07964e-05 0)
(0.00136255 3.63134e-05 0)
(0.0012476 3.21687e-05 0)
(0.00114602 2.83525e-05 0)
(0.00104475 2.48478e-05 0)
(0.194215 -0.00560558 0)
(0.203135 -0.00464684 0)
(0.211403 -0.00354021 0)
(0.217413 -0.00237958 0)
(0.221046 -0.00117583 0)
(0.222207 4.90308e-05 0)
(0.220934 0.00124226 0)
(0.217139 0.00245505 0)
(0.210991 0.00363091 0)
(0.202579 0.00468247 0)
(0.192065 0.00570595 0)
(0.17963 0.00665229 0)
(0.165491 0.00735363 0)
(0.149905 0.00806698 0)
(0.133118 0.00849161 0)
(0.115407 0.00894913 0)
(0.0970154 0.00928855 0)
(0.0781999 0.00932475 0)
(0.0591919 0.00942089 0)
(0.0401537 0.00940726 0)
(0.021358 0.00914813 0)
(0.0031435 0.0089212 0)
(-0.0144403 0.00864532 0)
(-0.031358 0.00819998 0)
(-0.0474841 0.00781271 0)
(-0.0627229 0.00730673 0)
(-0.0770244 0.00685962 0)
(-0.0903516 0.00638753 0)
(-0.102681 0.0058635 0)
(-0.11402 0.00538795 0)
(-0.124375 0.00491045 0)
(-0.133759 0.00441986 0)
(-0.142203 0.00396475 0)
(-0.149732 0.00350887 0)
(-0.156378 0.00308203 0)
(-0.162173 0.00266675 0)
(-0.167148 0.00226132 0)
(-0.171334 0.00187433 0)
(-0.174759 0.00149911 0)
(-0.177455 0.00113511 0)
(-0.179451 0.000781611 0)
(-0.180745 0.000448688 0)
(-0.181367 0.000129658 0)
(-0.181299 -0.000220807 0)
(-0.180543 -0.000570873 0)
(-0.179126 -0.000910021 0)
(-0.176989 -0.00127212 0)
(-0.174116 -0.00165526 0)
(-0.170502 -0.0020223 0)
(-0.166078 -0.00242191 0)
(-0.160773 -0.00288622 0)
(-0.154563 -0.00331415 0)
(-0.147385 -0.00384183 0)
(-0.139199 -0.00429786 0)
(-0.130012 -0.00477424 0)
(-0.119764 -0.00535049 0)
(-0.108433 -0.00582271 0)
(-0.096122 -0.00626443 0)
(-0.0828208 -0.00682701 0)
(-0.0685814 -0.00721691 0)
(-0.05352 -0.0077123 0)
(-0.0376157 -0.00804885 0)
(-0.0210395 -0.00831367 0)
(-0.0039533 -0.00857354 0)
(0.0135929 -0.00874264 0)
(0.0314161 -0.00879934 0)
(0.0493337 -0.0088699 0)
(0.0671788 -0.00878759 0)
(0.0848025 -0.00866981 0)
(0.102053 -0.00845758 0)
(0.118755 -0.0081034 0)
(0.134744 -0.00770383 0)
(0.149785 -0.00721401 0)
(0.16368 -0.0065893 0)
(0.17625 -0.00591054 0)
(0.187315 -0.00511282 0)
(0.196701 -0.00424943 0)
(0.204243 -0.00328547 0)
(0.209773 -0.00223025 0)
(0.213143 -0.0011366 0)
(0.214241 1.49061e-06 0)
(0.213016 0.00119054 0)
(0.209328 0.00238547 0)
(0.203304 0.00355394 0)
(0.194983 0.00466967 0)
(0.184475 0.00571366 0)
(0.171933 0.00668009 0)
(0.157569 0.00752745 0)
(0.141582 0.00826962 0)
(0.12422 0.0088725 0)
(0.105804 0.00933392 0)
(0.0866121 0.00968985 0)
(0.0668811 0.00986132 0)
(0.0469047 0.009924 0)
(0.0269926 0.00982329 0)
(0.00738207 0.00961296 0)
(-0.0116688 0.00926814 0)
(-0.0299134 0.00882145 0)
(-0.0471711 0.00829244 0)
(-0.0633025 0.00768916 0)
(-0.0781799 0.00703338 0)
(-0.0916902 0.00636975 0)
(-0.10383 0.00571876 0)
(-0.11466 0.00504856 0)
(-0.124214 0.00444572 0)
(-0.132582 0.00384858 0)
(-0.13984 0.00332619 0)
(-0.146066 0.00289571 0)
(-0.151421 0.00245523 0)
(-0.156014 0.00210694 0)
(-0.159933 0.00178351 0)
(-0.163254 0.0015006 0)
(-0.16601 0.00124791 0)
(-0.168289 0.00102394 0)
(-0.170116 0.000798937 0)
(-0.171505 0.000583787 0)
(-0.172468 0.000362971 0)
(-0.172982 0.000138677 0)
(-0.173013 -0.000107627 0)
(-0.172514 -0.000359175 0)
(-0.171488 -0.000649455 0)
(-0.169867 -0.000958354 0)
(-0.1676 -0.00129643 0)
(-0.164623 -0.00168094 0)
(-0.160862 -0.00205726 0)
(-0.156244 -0.00249666 0)
(-0.150727 -0.00296475 0)
(-0.144245 -0.0034635 0)
(-0.13674 -0.00398413 0)
(-0.128161 -0.00452932 0)
(-0.118479 -0.00508995 0)
(-0.107659 -0.00564577 0)
(-0.0957099 -0.00620379 0)
(-0.0826454 -0.00675165 0)
(-0.068496 -0.00726892 0)
(-0.053343 -0.00775545 0)
(-0.0372697 -0.00818605 0)
(-0.0203699 -0.00854642 0)
(-0.00279074 -0.00884561 0)
(0.0152929 -0.00905526 0)
(0.0337098 -0.0091743 0)
(0.0522367 -0.00918783 0)
(0.0706722 -0.00908148 0)
(0.0888085 -0.0088743 0)
(0.106399 -0.00853282 0)
(0.123183 -0.00809229 0)
(0.138946 -0.0075246 0)
(0.153492 -0.00685824 0)
(0.166588 -0.00609178 0)
(0.178027 -0.00524992 0)
(0.187662 -0.0043016 0)
(0.195383 -0.00331473 0)
(0.201064 -0.00229249 0)
(0.204626 -0.00124608 0)
(0.20604 -0.000187109 0)
(0.205374 0.000838318 0)
(0.202554 0.00188243 0)
(0.19777 0.00285374 0)
(0.191092 0.00375652 0)
(0.182655 0.00458667 0)
(0.172604 0.00532473 0)
(0.161148 0.00600377 0)
(0.148498 0.00654593 0)
(0.134822 0.00699654 0)
(0.120336 0.00734571 0)
(0.105249 0.00759227 0)
(0.0897665 0.00774053 0)
(0.0740847 0.00779362 0)
(0.0583836 0.0077614 0)
(0.0428229 0.00764554 0)
(0.027553 0.00747823 0)
(0.012734 0.00722411 0)
(-0.00153291 0.00693527 0)
(-0.0151806 0.00660352 0)
(-0.028126 0.00623655 0)
(-0.040308 0.00584564 0)
(-0.0516884 0.00544065 0)
(-0.0622377 0.00502286 0)
(-0.071942 0.00460383 0)
(-0.0807961 0.00417862 0)
(-0.0888007 0.00375706 0)
(-0.095963 0.0033443 0)
(-0.102294 0.00293648 0)
(-0.107807 0.00253782 0)
(-0.112519 0.00214355 0)
(-0.116443 0.00175722 0)
(-0.119597 0.00137682 0)
(-0.121994 0.00100332 0)
(-0.123644 0.000637502 0)
(-0.124554 0.000283147 0)
(-0.124766 -7.46217e-05 0)
(-0.124248 -0.000427719 0)
(-0.123029 -0.000776692 0)
(-0.121111 -0.00112333 0)
(-0.1185 -0.00146692 0)
(-0.115197 -0.00180776 0)
(-0.11121 -0.00214644 0)
(-0.106544 -0.00248174 0)
(-0.101214 -0.00281371 0)
(-0.095217 -0.0031348 0)
(-0.0885539 -0.00345635 0)
(-0.0812635 -0.00376819 0)
(-0.073365 -0.00406533 0)
(-0.0648787 -0.00434496 0)
(-0.0558443 -0.00461205 0)
(-0.0462991 -0.0048527 0)
(-0.0363001 -0.00507458 0)
(-0.0258949 -0.00524812 0)
(-0.0151284 -0.00540461 0)
(-0.0040923 -0.00552127 0)
(0.00712703 -0.00559824 0)
(0.0184563 -0.00562531 0)
(0.029786 -0.00561677 0)
(0.0410267 -0.00553119 0)
(0.0520901 -0.00541387 0)
(0.0628563 -0.00523866 0)
(0.0731901 -0.00501678 0)
(0.0830073 -0.00472056 0)
(0.0922259 -0.00438953 0)
(0.100719 -0.0040098 0)
(0.10837 -0.00358447 0)
(0.115122 -0.00311342 0)
(0.120922 -0.00261434 0)
(0.125678 -0.00209135 0)
(0.129331 -0.00154012 0)
(0.131877 -0.000988367 0)
(0.133317 -0.000430576 0)
(0.133629 0.000111455 0)
(0.132822 0.000663026 0)
(0.130945 0.00117788 0)
(0.128081 0.0016665 0)
(0.124246 0.00211816 0)
(0.119529 0.00253594 0)
(0.114031 0.00291092 0)
(0.107841 0.00322453 0)
(0.101059 0.00349172 0)
(0.0937877 0.00370595 0)
(0.0861359 0.00386611 0)
(0.0781925 0.00397179 0)
(0.0700909 0.00405272 0)
(0.0619425 0.00404921 0)
(0.0538069 0.00401445 0)
(0.04578 0.00393862 0)
(0.037942 0.0038271 0)
(0.0303586 0.00368137 0)
(0.0230741 0.00351086 0)
(0.0161741 0.003335 0)
(0.00968868 0.00311216 0)
(0.00365057 0.00288192 0)
(-0.00190637 0.00265083 0)
(-0.00699959 0.00240825 0)
(-0.0116029 0.00216092 0)
(-0.0157084 0.00191395 0)
(-0.0193176 0.00166814 0)
(-0.0224358 0.00142684 0)
(-0.025072 0.00119061 0)
(-0.0272401 0.000962084 0)
(-0.0289554 0.000742149 0)
(-0.0302369 0.000531461 0)
(-0.0311046 0.000332009 0)
(-0.0315809 0.00014415 0)
(-0.0316907 -3.32416e-05 0)
(-0.0314526 -0.00019894 0)
(-0.0308943 -0.000352854 0)
(-0.0300377 -0.000494804 0)
(-0.0289054 -0.000625511 0)
(-0.027522 -0.000744732 0)
(-0.0259095 -0.000852528 0)
(-0.0240907 -0.000949028 0)
(-0.0220884 -0.00103462 0)
(-0.0199249 -0.00110918 0)
(-0.0176216 -0.00117313 0)
(-0.0151998 -0.00122622 0)
(-0.0126809 -0.0012694 0)
(-0.0100853 -0.00130218 0)
(-0.00743323 -0.00132528 0)
(-0.00474413 -0.00133903 0)
(-0.00204003 -0.00134355 0)
(0.00066721 -0.00133755 0)
(0.00335925 -0.00132496 0)
(0.00601237 -0.00130369 0)
(0.00861459 -0.00127479 0)
(0.0111508 -0.00123859 0)
(0.0136067 -0.00119553 0)
(0.0159695 -0.00114673 0)
(0.0182272 -0.00109204 0)
(0.0203692 -0.00103223 0)
(0.0223861 -0.000968365 0)
(0.0242696 -0.000900504 0)
(0.026013 -0.000829839 0)
(0.0276105 -0.000756406 0)
(0.0290578 -0.000681026 0)
(0.0303518 -0.000604655 0)
(0.0314908 -0.000527397 0)
(0.0324744 -0.000450161 0)
(0.0333031 -0.000373832 0)
(0.0339786 -0.000298344 0)
(0.0345035 -0.000224398 0)
(0.0348819 -0.000152743 0)
(0.0351182 -8.32669e-05 0)
(0.0352183 -1.65836e-05 0)
(0.0351875 4.62901e-05 0)
(0.0350306 0.000106268 0)
(0.0347569 0.000162118 0)
(0.0343738 0.000214521 0)
(0.0338892 0.000263105 0)
(0.0333109 0.000307288 0)
(0.0326472 0.000347745 0)
(0.0319065 0.000383655 0)
(0.0310972 0.000415813 0)
(0.0302274 0.000443893 0)
(0.0293056 0.000467435 0)
(0.0283398 0.000487465 0)
(0.0273379 0.000503691 0)
(0.0263075 0.000515743 0)
(0.0252558 0.00052479 0)
(0.0241896 0.000530054 0)
(0.0231154 0.00053271 0)
(0.0220392 0.000532498 0)
(0.0209666 0.000529162 0)
(0.0199027 0.000523843 0)
(0.0188522 0.000516309 0)
(0.0178193 0.000506384 0)
(0.0168078 0.000495106 0)
(0.015821 0.000481931 0)
(0.0148617 0.000467801 0)
(0.0139324 0.000452543 0)
(0.0130352 0.000436064 0)
(0.0121717 0.000419126 0)
(0.0113432 0.000401593 0)
(0.0105508 0.000383417 0)
(0.00979511 0.000365195 0)
(0.00907656 0.000346838 0)
(0.00839524 0.000328328 0)
(0.00775101 0.000310099 0)
(0.00714352 0.000291961 0)
(0.00657222 0.000274256 0)
(0.00603641 0.00025692 0)
(0.00553526 0.000239941 0)
(0.0050678 0.000223549 0)
(0.00463297 0.000207703 0)
(0.00422959 0.000192397 0)
(0.00385642 0.000177774 0)
(0.00351216 0.000163763 0)
(0.00319547 0.000150459 0)
(0.00290498 0.00013783 0)
(0.00263932 0.000125857 0)
(0.00239711 0.000114584 0)
(0.00217697 0.000103979 0)
(0.00197758 9.40202e-05 0)
(0.0017976 8.47191e-05 0)
(0.00163574 7.60392e-05 0)
(0.00149075 6.79785e-05 0)
(0.00136141 6.05074e-05 0)
(0.00124655 5.36002e-05 0)
(0.00114505 4.72405e-05 0)
(0.00104388 4.14001e-05 0)
(0.194444 -0.00785335 0)
(0.203387 -0.00651017 0)
(0.211671 -0.00495988 0)
(0.217694 -0.00333446 0)
(0.221334 -0.00164939 0)
(0.222508 6.55525e-05 0)
(0.221215 0.00174735 0)
(0.217418 0.0034415 0)
(0.211261 0.00508719 0)
(0.202826 0.00656017 0)
(0.192292 0.00799394 0)
(0.179833 0.00931973 0)
(0.165661 0.0103019 0)
(0.150047 0.011301 0)
(0.133227 0.0118953 0)
(0.115486 0.0125359 0)
(0.0970647 0.0130109 0)
(0.0782204 0.0130609 0)
(0.0591863 0.0131948 0)
(0.0401241 0.0131752 0)
(0.0213049 0.0128125 0)
(0.00307136 0.0124929 0)
(-0.0145248 0.0121068 0)
(-0.0314535 0.0114825 0)
(-0.0475901 0.0109396 0)
(-0.0628338 0.0102306 0)
(-0.0771404 0.00960413 0)
(-0.0904702 0.00894276 0)
(-0.102799 0.00820883 0)
(-0.114137 0.00754279 0)
(-0.12449 0.00687406 0)
(-0.133871 0.00618713 0)
(-0.142312 0.00554982 0)
(-0.149837 0.00491153 0)
(-0.15648 0.00431424 0)
(-0.162271 0.00373304 0)
(-0.167242 0.00316579 0)
(-0.171424 0.00262473 0)
(-0.174845 0.00209989 0)
(-0.177539 0.00159068 0)
(-0.17953 0.00109636 0)
(-0.180827 0.000626672 0)
(-0.181455 0.000170541 0)
(-0.181381 -0.000310711 0)
(-0.180626 -0.00080065 0)
(-0.17921 -0.00127431 0)
(-0.177076 -0.00177987 0)
(-0.174206 -0.00231638 0)
(-0.170596 -0.00282989 0)
(-0.166177 -0.00338939 0)
(-0.160879 -0.00403956 0)
(-0.154673 -0.00463866 0)
(-0.147501 -0.00537742 0)
(-0.139318 -0.0060165 0)
(-0.130133 -0.00668394 0)
(-0.119885 -0.00749129 0)
(-0.108551 -0.00815259 0)
(-0.0962369 -0.00877079 0)
(-0.0829311 -0.00956113 0)
(-0.068686 -0.0101105 0)