/*--------------------------------*- C++ -*----------------------------------*\
| =========                 |                                                 |
| \\      /  F ield         | OpenFOAM: The Open Source CFD Toolbox           |
|  \\    /   O peration     | Version:  3.0.1                                 |
|   \\  /    A nd           | Web:      www.OpenFOAM.org                      |
|    \\/     M anipulation  |                                                 |
\*---------------------------------------------------------------------------*/
FoamFile
{
    version     2.0;
    format      ascii;
    class       surfaceScalarField;
    location    "17.8";
    object      phi;
}
// * * * * * * * * * * * * * * * * * * * * * * * * * * * * * * * * * * * * * //

dimensions      [0 3 -1 0 0 0 0];

internalField   nonuniform List<scalar> 
42423
(
-0.000155433
2.9991e-06
-0.000157572
2.13874e-06
-0.000158978
1.40613e-06
-0.00015961
6.31844e-07
-0.000159507
-1.02876e-07
-0.000158701
-8.05569e-07
-0.000157121
-1.58017e-06
-0.000154798
-2.32286e-06
-0.000151733
-3.06576e-06
-0.000147789
-3.94381e-06
-0.000143011
-4.77768e-06
-0.000137461
-5.55028e-06
-0.000130944
-6.51679e-06
-0.000123565
-7.37869e-06
-0.000115222
-8.3432e-06
-0.000105977
-9.24511e-06
-9.59307e-05
-1.00463e-05
-8.49913e-05
-1.09394e-05
-7.32334e-05
-1.1758e-05
-6.0849e-05
-1.23844e-05
-4.77514e-05
-1.30976e-05
-3.40908e-05
-1.36607e-05
-2.00528e-05
-1.4038e-05
-5.64601e-06
-1.44068e-05
8.90012e-06
-1.45461e-05
2.35458e-05
-1.46457e-05
3.816e-05
-1.46142e-05
5.25516e-05
-1.43917e-05
6.66044e-05
-1.40527e-05
8.02033e-05
-1.35989e-05
9.31421e-05
-1.29389e-05
0.00010532
-1.21779e-05
0.000116621
-1.13009e-05
0.00012693
-1.03091e-05
0.000136163
-9.23315e-06
0.000144184
-8.02082e-06
0.00015097
-6.78592e-06
0.000156417
-5.44756e-06
0.00016048
-4.06288e-06
0.000163116
-2.63614e-06
0.000164276
-1.15922e-06
0.000164118
1.57705e-07
0.000162564
1.55376e-06
0.00015935
3.21405e-06
0.000154702
4.64828e-06
0.00014853
6.17182e-06
0.000140818
7.71201e-06
0.000131822
8.9955e-06
0.000121509
1.03138e-05
0.000110128
1.13802e-05
9.77718e-05
1.23566e-05
8.45818e-05
1.31901e-05
7.0829e-05
1.37528e-05
5.6581e-05
1.4248e-05
4.21903e-05
1.43906e-05
2.77091e-05
1.44813e-05
1.32904e-05
1.44187e-05
-8.42511e-07
1.41329e-05
-1.46157e-05
1.37732e-05
-2.79698e-05
1.33541e-05
-4.07695e-05
1.27997e-05
-5.30141e-05
1.22446e-05
-6.46204e-05
1.16063e-05
-7.55051e-05
1.08847e-05
-8.56902e-05
1.01851e-05
-9.50705e-05
9.3803e-06
-0.000103601
8.53008e-06
-0.000111352
7.75176e-06
-0.000118189
6.83631e-06
-0.00012421
6.02174e-06
-0.000129395
5.18424e-06
-0.000133659
4.26461e-06
-0.000137133
3.4741e-06
-0.000139822
2.68881e-06
-0.000141602
1.78016e-06
-0.000142709
1.10638e-06
-0.000143066
3.57624e-07
-0.00014263
-4.3635e-07
-0.000141617
-1.01344e-06
-0.00013991
-1.70663e-06
-0.000137604
-2.30605e-06
-0.000134792
-2.81221e-06
-0.000131331
-3.4607e-06
-0.000127374
-3.95669e-06
-0.000122939
-4.43556e-06
-0.000117847
-5.09121e-06
-0.000112409
-5.43799e-06
-0.000106243
-6.16606e-06
-9.97477e-05
-6.49572e-06
-9.26008e-05
-7.14692e-06
-8.49881e-05
-7.61271e-06
-7.68124e-05
-8.17576e-06
-6.81257e-05
-8.68666e-06
-5.88929e-05
-9.23286e-06
-4.91159e-05
-9.77699e-06
-3.8791e-05
-1.03249e-05
-2.79274e-05
-1.08636e-05
-1.65791e-05
-1.13483e-05
-4.7544e-06
-1.18247e-05
7.48147e-06
-1.22359e-05
2.00647e-05
-1.25832e-05
3.28955e-05
-1.28308e-05
4.58636e-05
-1.29681e-05
5.87786e-05
-1.2915e-05
7.15411e-05
-1.27626e-05
8.39278e-05
-1.23867e-05
9.57889e-05
-1.18612e-05
0.00010694
-1.11508e-05
0.000117193
-1.02529e-05
0.000126355
-9.1626e-06
0.000134272
-7.91665e-06
0.000140822
-6.55044e-06
0.000145878
-5.05551e-06
0.000149333
-3.45573e-06
0.000151075
-1.74135e-06
0.00015113
-5.48629e-08
0.000149419
1.71019e-06
0.000145973
3.44622e-06
0.000140849
5.12399e-06
0.000134143
6.70644e-06
0.000125961
8.18155e-06
0.000116465
9.49636e-06
0.000105844
1.06204e-05
9.42567e-05
1.15877e-05
8.19157e-05
1.23409e-05
6.90047e-05
1.2911e-05
5.57341e-05
1.32706e-05
4.22551e-05
1.3479e-05
2.87536e-05
1.35015e-05
1.53663e-05
1.33873e-05
2.17025e-06
1.31961e-05
-1.06272e-05
1.27974e-05
-2.29851e-05
1.23579e-05
-3.48068e-05
1.18217e-05
-4.60572e-05
1.12504e-05
-5.66774e-05
1.06202e-05
-6.66734e-05
9.99605e-06
-7.60425e-05
9.36906e-06
-8.47406e-05
8.69814e-06
-9.28185e-05
8.07791e-06
-0.000100242
7.42354e-06
-0.000107046
6.80398e-06
-0.000113228
6.18203e-06
-0.000118792
5.56395e-06
-0.000123745
4.95262e-06
-0.000128117
4.37187e-06
-0.000131949
3.83239e-06
-0.000135211
3.26254e-06
-0.000137925
2.71318e-06
-0.000140055
2.13079e-06
-0.00014161
1.55424e-06
-0.000142577
9.67075e-07
-0.000142935
3.58681e-07
-0.000142663
-2.72685e-07
-0.000141745
-9.18093e-07
-0.000140138
-1.60716e-06
-0.000137851
-2.28651e-06
-0.000134844
-3.00746e-06
-0.000131086
-3.75729e-06
-0.000126616
-4.46988e-06
-0.000121364
-5.25265e-06
-0.000115347
-6.0164e-06
-0.000108543
-6.80408e-06
-0.000100961
-7.58267e-06
-9.2638e-05
-8.32261e-06
-8.35536e-05
-9.08444e-06
-7.37441e-05
-9.80947e-06
-6.32453e-05
-1.04988e-05
-5.21208e-05
-1.11245e-05
-4.04133e-05
-1.17075e-05
-2.81984e-05
-1.2215e-05
-1.55678e-05
-1.26305e-05
-2.60696e-06
-1.29609e-05
1.05719e-05
-1.31788e-05
2.38522e-05
-1.32803e-05
3.7107e-05
-1.32549e-05
5.02142e-05
-1.31072e-05
6.30298e-05
-1.28157e-05
7.54316e-05
-1.24018e-05
8.72774e-05
-1.18458e-05
9.84085e-05
-1.11311e-05
0.000108734
-1.03255e-05
0.0001181
-9.3662e-06
0.00012641
-8.30956e-06
0.000133553
-7.1436e-06
0.000139442
-5.88859e-06
0.000144005
-4.56267e-06
0.000147181
-3.17601e-06
0.000148934
-1.75368e-06
0.000149247
-3.12991e-07
0.000148121
1.12661e-06
0.000145536
2.58464e-06
0.000141524
4.01202e-06
0.000136158
5.36576e-06
0.000129478
6.6805e-06
0.000121571
7.90635e-06
0.000112534
9.03691e-06
0.000102464
1.007e-05
9.14799e-05
1.09845e-05
7.97119e-05
1.1768e-05
6.72937e-05
1.24182e-05
5.43729e-05
1.29208e-05
4.10984e-05
1.32745e-05
2.76176e-05
1.34808e-05
1.40551e-05
1.35625e-05
5.37591e-07
1.35175e-05
-1.27694e-05
1.3307e-05
-2.57587e-05
1.29893e-05
-3.83018e-05
1.25431e-05
-5.02912e-05
1.19894e-05
-6.16515e-05
1.13603e-05
-7.23145e-05
1.06631e-05
-8.22552e-05
9.94067e-06
-9.13702e-05
9.11495e-06
-9.96696e-05
8.29943e-06
-0.000107134
7.46431e-06
-0.000113758
6.62421e-06
-0.000119503
5.74465e-06
-0.000124394
4.89136e-06
-0.0001285
4.10618e-06
-0.000131763
3.26242e-06
-0.000134223
2.46017e-06
-0.000135903
1.68008e-06
-0.000136881
9.78396e-07
-0.00013714
2.58948e-07
-0.000136733
-4.07584e-07
-0.00013571
-1.02241e-06
-0.000134071
-1.63973e-06
-0.000131865
-2.20594e-06
-0.00012913
-2.73503e-06
-0.000125916
-3.21382e-06
-0.000122174
-3.74165e-06
-0.000117906
-4.26814e-06
-0.00011319
-4.71608e-06
-0.000107933
-5.25693e-06
-0.000102147
-5.78616e-06
-9.5816e-05
-6.33084e-06
-8.89073e-05
-6.90874e-06
-8.14145e-05
-7.49279e-06
-7.33079e-05
-8.10665e-06
-6.45471e-05
-8.76083e-06
-5.51496e-05
-9.39746e-06
-4.50795e-05
-1.00701e-05
-3.43734e-05
-1.07061e-05
-2.30362e-05
-1.13372e-05
-1.11026e-05
-1.19336e-05
1.33711e-06
-1.24397e-05
1.42533e-05
-1.29162e-05
2.75024e-05
-1.32491e-05
4.099e-05
-1.34876e-05
5.45738e-05
-1.35838e-05
6.8081e-05
-1.35072e-05
8.13834e-05
-1.33025e-05
9.42369e-05
-1.28535e-05
0.000106519
-1.22818e-05
0.000117987
-1.1468e-05
0.000128474
-1.04873e-05
0.000137837
-9.36344e-06
0.000145874
-8.03704e-06
0.000152466
-6.59186e-06
0.000157505
-5.03878e-06
0.00016089
-3.38458e-06
0.000162596
-1.70611e-06
0.000162598
-1.9435e-09
0.000160858
1.73935e-06
0.000157438
3.42013e-06
0.000152441
4.99716e-06
0.000145978
6.46264e-06
0.000138091
7.88783e-06
0.000129056
9.03423e-06
0.000118898
1.0158e-05
0.000107882
1.10168e-05
9.61472e-05
1.17343e-05
8.38451e-05
1.23021e-05
7.11972e-05
1.26479e-05
5.82628e-05
1.29343e-05
4.54051e-05
1.28578e-05
3.24877e-05
1.29173e-05
1.98337e-05
1.2654e-05
7.39899e-06
1.24347e-05
-4.60728e-06
1.20063e-05
-1.61907e-05
1.15834e-05
-2.73411e-05
1.11504e-05
-3.79335e-05
1.05924e-05
-4.79723e-05
1.00387e-05
-5.74481e-05
9.4758e-06
-6.62974e-05
8.84938e-06
-7.45278e-05
8.2303e-06
-8.21352e-05
7.60741e-06
-8.9121e-05
6.98579e-06
-9.54898e-05
6.36888e-06
-0.000101251
5.76114e-06
-0.000106335
5.08445e-06
-0.000110832
4.49676e-06
-0.00011466
3.82806e-06
-0.000117823
3.16229e-06
-0.000120338
2.51546e-06
-0.000122118
1.7798e-06
-0.00012324
1.12254e-06
-0.000123643
4.0272e-07
-0.000123253
-3.90551e-07
-0.000122159
-1.09354e-06
-0.000120387
-1.77191e-06
-0.000117856
-2.53146e-06
-0.000114644
-3.21131e-06
-0.000110827
-3.81771e-06
-0.000106098
-4.72867e-06
-0.00010077
-5.32786e-06
-9.46421e-05
-6.12796e-06
-8.77796e-05
-6.8625e-06
-8.03075e-05
-7.47215e-06
-7.19807e-05
-8.32678e-06
-6.2952e-05
-9.02867e-06
-5.32952e-05
-9.65679e-06
-4.28236e-05
-1.04716e-05
-3.1852e-05
-1.09716e-05
-2.01757e-05
-1.16763e-05
-7.99826e-06
-1.21775e-05
4.50345e-06
-1.25017e-05
1.7325e-05
-1.28215e-05
3.03966e-05
-1.30716e-05
4.35467e-05
-1.31501e-05
5.66584e-05
-1.31117e-05
6.9651e-05
-1.29927e-05
8.23458e-05
-1.26948e-05
9.46182e-05
-1.22724e-05
0.000106317
-1.16984e-05
0.000117231
-1.09147e-05
0.000127326
-1.00948e-05
0.000136364
-9.03769e-06
0.00014429
-7.92666e-06
0.000150981
-6.69093e-06
0.000156303
-5.32163e-06
0.000160244
-3.94092e-06
0.000162692
-2.44807e-06
0.000163623
-9.31127e-07
0.000163111
5.11815e-07
0.000161025
2.08665e-06
0.000157458
3.56622e-06
0.000152519
4.93943e-06
0.000146142
6.37641e-06
0.000138648
7.49497e-06
0.000129927
8.72032e-06
0.000120344
9.58364e-06
0.000109798
1.05456e-05
9.85903e-05
1.12077e-05
8.67894e-05
1.18008e-05
7.45568e-05
1.22326e-05
6.20272e-05
1.25297e-05
4.93643e-05
1.26629e-05
3.67315e-05
1.26327e-05
2.4228e-05
1.25036e-05
1.19161e-05
1.23119e-05
-2.02423e-07
1.21185e-05
-1.18728e-05
1.16704e-05
-2.30363e-05
1.11635e-05
1.0515e-05
-0.000155475
6.00849e-06
-0.000157616
4.27996e-06
-0.00015903
2.81976e-06
-0.000159672
1.27446e-06
-0.000159569
-2.06779e-07
-0.000158756
-1.61795e-06
-0.000157177
-3.15914e-06
-0.000154855
-4.64516e-06
-0.000151789
-6.13146e-06
-0.000147845
-7.88786e-06
-0.000143067
-9.55598e-06
-0.000137518
-1.10996e-05
-0.000131005
-1.30289e-05
-0.000123622
-1.47619e-05
-0.000115284
-1.66816e-05
-0.000106033
-1.84958e-05
-9.59857e-05
-2.00937e-05
-8.50422e-05
-2.18829e-05
-7.32762e-05
-2.3524e-05
-6.08828e-05
-2.47778e-05
-4.77794e-05
-2.6201e-05
-3.41145e-05
-2.73256e-05
-2.00718e-05
-2.80806e-05
-5.65752e-06
-2.88212e-05
8.90059e-06
-2.91043e-05
2.3555e-05
-2.93002e-05
3.81738e-05
-2.9233e-05
5.25857e-05
-2.88036e-05
6.66433e-05
-2.81104e-05
8.02393e-05
-2.7195e-05
9.31856e-05
-2.58852e-05
0.000105377
-2.43695e-05
0.0001167
-2.26239e-05
0.000127014
-2.06229e-05
0.000136248
-1.84677e-05
0.000144269
-1.60412e-05
0.000151053
-1.35705e-05
0.000156504
-1.08978e-05
0.000160573
-8.13223e-06
0.000163213
-5.27681e-06
0.000164383
-2.32826e-06
0.000164223
3.1747e-07
0.000162662
3.11424e-06
0.000159447
6.42938e-06
0.000154797
9.29789e-06
0.000148626
1.23432e-05
0.000140907
1.54306e-05
0.00013191
1.79931e-05
0.000121588
2.0635e-05
0.0001102
2.27685e-05
9.78369e-05
2.47197e-05
8.46327e-05
2.63942e-05
7.08744e-05
2.75111e-05
5.66133e-05
2.85091e-05
4.22133e-05
2.87906e-05
2.77256e-05
2.89689e-05
1.32901e-05
2.88542e-05
-8.57465e-07
2.82805e-05
-1.46413e-05
2.7557e-05
-2.80041e-05
2.67169e-05
-4.08119e-05
2.56075e-05
-5.30627e-05
2.44955e-05
-6.46647e-05
2.32082e-05
-7.55427e-05
2.17627e-05
-8.57263e-05
2.03686e-05
-9.51135e-05
1.87675e-05
-0.000103646
1.70625e-05
-0.000111401
1.55068e-05
-0.000118238
1.3673e-05
-0.000124259
1.20431e-05
-0.000129443
1.0368e-05
-0.000133708
8.5298e-06
-0.000137177
6.94287e-06
-0.000139864
5.37556e-06
-0.000141646
3.56282e-06
-0.000142751
2.21116e-06
-0.000143106
7.12494e-07
-0.000142666
-8.76428e-07
-0.000141654
-2.02567e-06
-0.000139944
-3.41637e-06
-0.00013763
-4.62001e-06
-0.000134824
-5.61812e-06
-0.000131368
-6.91658e-06
-0.000127413
-7.91136e-06
-0.000122975
-8.87416e-06
-0.000117883
-1.01826e-05
-0.000112452
-1.08695e-05
-0.000106291
-1.23273e-05
-9.97982e-05
-1.29882e-05
-9.26523e-05
-1.42929e-05
-8.5049e-05
-1.52159e-05
-7.68683e-05
-1.63566e-05
-6.81868e-05
-1.73682e-05
-5.89405e-05
-1.84791e-05
-4.91627e-05
-1.95548e-05
-3.88412e-05
-2.06465e-05
-2.79549e-05
-2.17499e-05
-1.66302e-05
-2.26731e-05
-4.79442e-06
-2.36605e-05
7.45286e-06
-2.44832e-05
2.00348e-05
-2.51652e-05
3.28701e-05
-2.56662e-05
4.58429e-05
-2.59409e-05
5.87833e-05
-2.58555e-05
7.1554e-05
-2.55333e-05
8.39462e-05
-2.47789e-05
9.5823e-05
-2.3738e-05
0.000106987
-2.2315e-05
0.000117233
-2.04983e-05
0.000126403
-1.83326e-05
0.000134336
-1.585e-05
0.000140893
-1.31078e-05
0.00014595
-1.01125e-05
0.000149416
-6.92164e-06
0.000151165
-3.49063e-06
0.000151216
-1.0613e-07
0.000149501
3.42519e-06
0.000146048
6.89999e-06
0.000140913
1.02588e-05
0.000134204
1.34155e-05
0.000126023
1.63623e-05
0.000116517
1.90027e-05
0.000105879
2.1258e-05
9.42774e-05
2.31893e-05
8.194e-05
2.46783e-05
6.9021e-05
2.58301e-05
5.57328e-05
2.65588e-05
4.22413e-05
2.69705e-05
2.8735e-05
2.70077e-05
1.53293e-05
2.6793e-05
2.13621e-06
2.63892e-05
-1.06682e-05
2.56018e-05
-2.30296e-05
2.47194e-05
-3.48576e-05
2.36497e-05
-4.6105e-05
2.24978e-05
-5.67195e-05
2.12346e-05
-6.67231e-05
1.99997e-05
-7.6098e-05
1.87439e-05
-8.48011e-05
1.74013e-05
-9.28781e-05
1.6155e-05
-0.000100303
1.48479e-05
-0.000107103
1.36043e-05
-0.000113284
1.23628e-05
-0.000118849
1.1129e-05
-0.000123805
9.9086e-06
-0.000128178
8.74492e-06
-0.000132004
7.65854e-06
-0.000135267
6.52587e-06
-0.000137982
5.42851e-06
-0.000140116
4.26403e-06
-0.000141672
3.11089e-06
-0.000142636
1.93034e-06
-0.000142999
7.21641e-07
-0.000142723
-5.48096e-07
-0.000141799
-1.84204e-06
-0.000140198
-3.20839e-06
-0.000137913
-4.57173e-06
-0.000134907
-6.01379e-06
-0.000131145
-7.51887e-06
-0.000126682
-8.93265e-06
-0.000121427
-1.05077e-05
-0.000115402
-1.20412e-05
-0.000108598
-1.36085e-05
-0.000101012
-1.51682e-05
-9.26963e-05
-1.66388e-05
-8.36072e-05
-1.81735e-05
-7.37896e-05
-1.96271e-05
-6.32885e-05
-2.09998e-05
-5.21587e-05
-2.22543e-05
-4.04479e-05
-2.34183e-05
-2.82266e-05
-2.44363e-05
-1.55896e-05
-2.52675e-05
-2.6258e-06
-2.59247e-05
1.05628e-05
-2.63675e-05
2.38547e-05
-2.65722e-05
3.71152e-05
-2.65154e-05
5.02279e-05
-2.622e-05
6.30536e-05
-2.56413e-05
7.54552e-05
-2.48034e-05
8.73115e-05
-2.37021e-05
9.84535e-05
-2.22732e-05
0.000108781
-2.06534e-05
0.000118157
-1.87414e-05
0.000126469
-1.66223e-05
0.000133619
-1.42932e-05
0.000139517
-1.17865e-05
0.000144078
-9.124e-06
0.000147252
-6.34986e-06
0.000149007
-3.50901e-06
0.000149321
-6.27242e-07
0.000148191
2.25705e-06
0.000145605
5.17035e-06
0.000141589
8.02852e-06
0.000136215
1.074e-05
0.000129532
1.33628e-05
0.000121624
1.5815e-05
0.000112578
1.80824e-05
0.000102502
2.01457e-05
9.15113e-05
2.19756e-05
7.97353e-05
2.35439e-05
6.731e-05
2.48435e-05
5.43773e-05
2.58535e-05
4.10949e-05
2.65569e-05
2.76079e-05
2.69678e-05
1.40364e-05
2.7134e-05
5.07027e-07
2.70468e-05
-1.28075e-05
2.66215e-05
-2.57987e-05
2.59804e-05
-3.83529e-05
2.50973e-05
-5.035e-05
2.39866e-05
-6.17074e-05
2.27176e-05
-7.23701e-05
2.13258e-05
-8.23096e-05
1.98802e-05
-9.14323e-05
1.82377e-05
-9.97413e-05
1.66084e-05
-0.000107205
1.49283e-05
-0.000113829
1.32482e-05
-0.000119573
1.14883e-05
-0.000124471
9.78989e-06
-0.000128563
8.19737e-06
-0.000131824
6.52376e-06
-0.000134285
4.92078e-06
-0.000135967
3.36288e-06
-0.000136947
1.95827e-06
-0.000137202
5.13253e-07
-0.000136793
-8.16574e-07
-0.000135763
-2.05236e-06
-0.000134129
-3.27326e-06
-0.000131915
-4.42034e-06
-0.000129181
-5.46883e-06
-0.000125963
-6.43209e-06
-0.000122214
-7.4907e-06
-0.00011795
-8.53201e-06
-0.00011323
-9.4353e-06
-0.000107975
-1.05121e-05
-0.000102188
-1.15737e-05
-9.58606e-05
-1.2658e-05
-8.89499e-05
-1.38195e-05
-8.14579e-05
-1.49848e-05
-7.33477e-05
-1.62169e-05
-6.45932e-05
-1.75153e-05
-5.519e-05
-1.88008e-05
-4.51144e-05
-2.01457e-05
-3.44024e-05
-2.14181e-05
-2.30579e-05
-2.26817e-05
-1.11266e-05
-2.3865e-05
1.32106e-06
-2.48875e-05
1.42507e-05
-2.58459e-05
2.7497e-05
-2.64954e-05
4.09928e-05
-2.69835e-05
5.45859e-05
-2.71769e-05
6.81041e-05
-2.70254e-05
8.14165e-05
-2.66149e-05
9.42764e-05
-2.57135e-05
0.000106574
-2.45789e-05
0.00011805
-2.29447e-05
0.000128547
-2.0984e-05
0.000137915
-1.87318e-05
0.000145956
-1.60777e-05
0.000152555
-1.31908e-05
0.0001576
-1.0084e-05
0.000160991
-6.77584e-06
0.000162706
-3.42086e-06
0.000162698
5.58357e-09
0.000160946
3.49192e-06
0.00015752
6.84616e-06
0.000152517
9.99937e-06
0.000146051
1.29286e-05
0.000138153
1.57857e-05
0.000129116
1.80714e-05
0.000118941
2.03335e-05
0.000107925
2.20327e-05
9.61772e-05
2.34819e-05
8.38682e-05
2.4611e-05
7.12133e-05
2.53029e-05
5.82731e-05
2.58745e-05
4.53994e-05
2.57315e-05
3.24807e-05
2.5836e-05
1.98239e-05
2.53108e-05
7.3934e-06
2.48652e-05
-4.63294e-06
2.40326e-05
-1.62256e-05
2.3176e-05
-2.73841e-05
2.23089e-05
-3.79743e-05
2.11827e-05
-4.80197e-05
2.00841e-05
-5.7497e-05
1.89531e-05
-6.63488e-05
1.77012e-05
-7.45815e-05
1.6463e-05
-8.2188e-05
1.52139e-05
-8.91771e-05
1.39749e-05
-9.55475e-05
1.27392e-05
-0.000101311
1.15242e-05
-0.000106394
1.01683e-05
-0.000110895
8.99718e-06
-0.000114722
7.65558e-06
-0.000117887
6.32668e-06
-0.000120399
5.02752e-06
-0.000122186
3.56684e-06
-0.000123314
2.2504e-06
-0.000123718
8.06942e-07
-0.000123324
-7.84039e-07
-0.000122229
-2.18914e-06
-0.000120451
-3.55013e-06
-0.000117918
-5.06369e-06
-0.000114707
-6.4225e-06
-0.000110869
-7.65633e-06
-0.000106157
-9.44058e-06
-0.000100829
-1.06557e-05
-9.46969e-05
-1.226e-05
-8.78354e-05
-1.3724e-05
-8.0363e-05
-1.49446e-05
-7.20314e-05
-1.66584e-05
-6.30007e-05
-1.80594e-05
-5.33363e-05
-1.93211e-05
-4.28649e-05
-2.0943e-05
-3.18898e-05
-2.19467e-05
-2.02054e-05
-2.33607e-05
-8.02435e-06
-2.43586e-05
4.48145e-06
-2.50075e-05
1.73098e-05
-2.56499e-05
3.03878e-05
-2.61497e-05
4.355e-05
-2.63123e-05
5.6669e-05
-2.62308e-05
6.96653e-05
-2.59889e-05
8.23678e-05
-2.53973e-05
9.46502e-05
-2.45549e-05
0.000106357
-2.34055e-05
0.000117286
-2.1843e-05
0.0001274
-2.02091e-05
0.00013644
-1.80775e-05
0.000144362
-1.58493e-05
0.00015106
-1.33883e-05
0.00015639
-1.06521e-05
0.000160343
-7.89392e-06
0.000162789
-4.89425e-06
0.000163717
-1.85838e-06
0.000163199
1.02893e-06
0.00016111
4.17648e-06
0.000157539
7.13652e-06
0.000152598
9.88067e-06
0.000146215
1.27593e-05
0.000138717
1.49935e-05
0.000129988
1.74489e-05
0.000120396
1.9176e-05
0.000109846
2.10954e-05
9.86264e-05
2.24269e-05
8.68191e-05
2.36081e-05
7.45773e-05
2.44744e-05
6.20415e-05
2.50655e-05
4.93699e-05
2.53344e-05
3.67309e-05
2.52718e-05
2.42205e-05
2.50139e-05
1.19066e-05
2.46258e-05
-2.19761e-07
2.42449e-05
-1.18926e-05
2.33431e-05
-2.30593e-05
2.23303e-05
2.10328e-05
-0.000155548
9.02759e-06
-0.000157699
6.43094e-06
-0.00015911
4.23115e-06
-0.000159739
1.90296e-06
-0.000159631
-3.14615e-07
-0.000158817
-2.43185e-06
-0.000157237
-4.7394e-06
-0.000154915
-6.96675e-06
-0.000151854
-9.19299e-06
-0.000147907
-1.18343e-05
-0.000143131
-1.43325e-05
-0.000137582
-1.6648e-05
-0.000131069
-1.95427e-05
-0.000123693
-2.21378e-05
-0.000115342
-2.50325e-05
-0.000106089
-2.77488e-05
-9.60408e-05
-3.01418e-05
-8.50889e-05
-3.28348e-05
-7.33318e-05
-3.52811e-05
-6.09266e-05
-3.7183e-05
-4.78127e-05
-3.9315e-05
-3.41402e-05
-4.09981e-05
-2.00869e-05
-4.2134e-05
-5.6741e-06
-4.3234e-05
8.91057e-06
-4.3689e-05
2.35766e-05
-4.39662e-05
3.82137e-05
-4.38702e-05
5.2635e-05
-4.32248e-05
6.6708e-05
-4.21834e-05
8.03281e-05
-4.08152e-05
9.32824e-05
-3.88395e-05
0.00010548
-3.65667e-05
0.000116808
-3.39528e-05
0.000127132
-3.09463e-05
0.000136381
-2.77171e-05
0.000144412
-2.40722e-05
0.000151213
-2.03713e-05
0.000156671
-1.63554e-05
0.000160745
-1.22072e-05
0.000163389
-7.92032e-06
0.00016455
-3.48895e-06
0.00016437
4.96688e-07
0.000162787
4.69785e-06
0.000159576
9.64005e-06
0.000154914
1.39603e-05
0.000148743
1.85143e-05
0.00014101
2.31627e-05
0.000132007
2.69967e-05
0.000121687
3.0955e-05
0.000110274
3.41813e-05
9.79022e-05
3.70916e-05
8.46772e-05
3.96192e-05
7.09057e-05
4.12826e-05
5.6633e-05
4.27819e-05
4.22181e-05
4.32055e-05
2.77205e-05
4.34664e-05
1.32687e-05
4.33061e-05
-8.8945e-07
4.24386e-05
-1.46828e-05
4.13503e-05
-2.80519e-05
4.0086e-05
-4.08611e-05
3.84167e-05
-5.31134e-05
3.67477e-05
-6.47174e-05
3.48123e-05
-7.55977e-05
3.2643e-05
-8.57785e-05
3.05495e-05
-9.51685e-05
2.81575e-05
-0.000103699
2.55935e-05
-0.000111446
2.32532e-05
-0.000118283
2.05097e-05
-0.000124306
1.80663e-05
-0.000129487
1.55492e-05
-0.000133755
1.27977e-05
-0.000137216
1.04035e-05
-0.000139899
8.05879e-06
-0.000141687
5.35094e-06
-0.000142789
3.31292e-06
-0.000143138
1.06223e-06
-0.000142701
-1.31368e-06
-0.000141682
-3.04522e-06
-0.000139972
-5.12601e-06
-0.000137661
-6.9308e-06
-0.000134855
-8.42427e-06
-0.000131396
-1.03757e-05
-0.00012744
-1.18672e-05
-0.000123006
-1.33088e-05
-0.000117925
-1.52634e-05
-0.000112491
-1.6303e-05
-0.000106338
-1.84812e-05
-9.98572e-05
-1.94686e-05
-9.27057e-05
-2.14444e-05
-8.51156e-05
-2.28061e-05
-7.69273e-05
-2.45449e-05
-6.82503e-05
-2.60452e-05
-5.8999e-05
-2.77304e-05
-4.92248e-05
-2.93291e-05
-3.89073e-05
-3.0964e-05
-2.80228e-05
-3.26344e-05
-1.66973e-05
-3.39987e-05
-4.85304e-06
-3.55048e-05
7.40527e-06
-3.67416e-05
1.99925e-05
-3.77524e-05
3.28382e-05
-3.8512e-05
4.58173e-05
-3.892e-05
5.87847e-05
-3.88229e-05
7.15725e-05
-3.83212e-05
8.39706e-05
-3.7177e-05
9.586e-05
-3.56274e-05
0.000107032
-3.34869e-05
0.000117295
-3.07612e-05
0.000126482
-2.75204e-05
0.000134425
-2.37929e-05
0.000140992
-1.9674e-05
0.00014606
-1.51809e-05
0.000149522
-1.03833e-05
0.000151283
-5.25221e-06
0.000151331
-1.54375e-07
0.000149609
5.1471e-06
0.000146155
1.03542e-05
0.000141009
1.5405e-05
0.000134295
2.01291e-05
0.000126102
2.45554e-05
0.000116585
2.85199e-05
0.000105935
3.19076e-05
9.43105e-05
3.48142e-05
8.19616e-05
3.70273e-05
6.90299e-05
3.87617e-05
5.57259e-05
3.98628e-05
4.22188e-05
4.04777e-05
2.86997e-05
4.05267e-05
1.52747e-05
4.0218e-05
2.0871e-06
3.95768e-05
-1.07208e-05
3.84097e-05
-2.30894e-05
3.70879e-05
-3.4928e-05
3.54884e-05
-4.61809e-05
3.37507e-05
-5.68033e-05
3.1857e-05
-6.6793e-05
2.99894e-05
-7.61716e-05
2.81225e-05
-8.48783e-05
2.6108e-05
-9.29477e-05
2.42244e-05
-0.000100377
2.22769e-05
-0.000107175
2.04023e-05
-0.000113357
1.85453e-05
-0.000118922
1.66935e-05
-0.000123869
1.48561e-05
-0.000128241
1.31172e-05
-0.000132083
1.15005e-05
-0.000135335
9.77733e-06
-0.000138046
8.13923e-06
-0.000140184
6.40252e-06
-0.000141746
4.67251e-06
-0.000142713
2.89722e-06
-0.000143067
1.07641e-06
-0.000142793
-8.22139e-07
-0.00014187
-2.76489e-06
-0.000140273
-4.80537e-06
-0.000137988
-6.85738e-06
-0.000134984
-9.01754e-06
-0.000131225
-1.12776e-05
-0.000126757
-1.34007e-05
-0.000121505
-1.57604e-05
-0.000115481
-1.80651e-05
-0.000108681
-2.04082e-05
-0.000101095
-2.27539e-05
-9.27689e-05
-2.49652e-05
-8.3683e-05
-2.72594e-05
-7.3858e-05
-2.9452e-05
-6.33605e-05
-3.14974e-05
-5.2222e-05
-3.33929e-05
-4.05032e-05
-3.51371e-05
-2.82768e-05
-3.66627e-05
-1.56314e-05
-3.7913e-05
-2.65594e-06
-3.89002e-05
1.0543e-05
-3.95664e-05
2.38388e-05
-3.9868e-05
3.71142e-05
-3.97908e-05
5.02373e-05
-3.93431e-05
6.30724e-05
-3.84765e-05
7.54897e-05
-3.72207e-05
8.73518e-05
-3.55643e-05
9.85025e-05
-3.34239e-05
0.000108842
-3.09932e-05
0.000118228
-2.81267e-05
0.000126551
-2.49459e-05
0.000133707
-2.14485e-05
0.000139607
-1.76867e-05
0.000144176
-1.36933e-05
0.000147354
-9.52779e-06
0.000149109
-5.26409e-06
0.000149424
-9.42781e-07
0.000148282
3.39922e-06
0.000145693
7.76009e-06
0.00014168
1.20414e-05
0.000136298
1.61219e-05
0.00012961
2.00502e-05
0.000121695
2.37306e-05
0.000112644
2.71329e-05
0.000102557
3.02328e-05
9.15536e-05
3.29793e-05
7.97651e-05
3.53324e-05
6.73259e-05
3.72827e-05
5.43892e-05
3.87903e-05
4.11017e-05
3.98444e-05
2.75956e-05
4.04738e-05
1.40081e-05
4.07216e-05
4.74809e-07
4.05801e-05
-1.28494e-05
3.99457e-05
-2.58462e-05
3.89773e-05
-3.84086e-05
3.76597e-05
-5.04171e-05
3.59951e-05
-6.17836e-05
3.4084e-05
-7.24444e-05
3.19867e-05
-8.23911e-05
2.98269e-05
-9.15171e-05
2.73637e-05
-9.98214e-05
2.49126e-05
-0.000107286
2.23931e-05
-0.00011391
1.98717e-05
-0.000119655
1.72338e-05
-0.000124562
1.46969e-05
-0.000128644
1.22792e-05
-0.000131907
9.78618e-06
-0.000134368
7.38262e-06
-0.000136044
5.03816e-06
-0.000137014
2.92892e-06
-0.000137264
7.63159e-07
-0.000136858
-1.22252e-06
-0.000135819
-3.09176e-06
-0.000134181
-4.91069e-06
-0.000131972
-6.62961e-06
-0.000129233
-8.20755e-06
-0.000126017
-9.64888e-06
-0.000122266
-1.1241e-05
-0.000118001
-1.27973e-05
-0.000113282
-1.41546e-05
-0.000108029
-1.57645e-05
-0.000102242
-1.7361e-05
-9.59199e-05
-1.89803e-05
-8.90134e-05
-2.0726e-05
-8.15167e-05
-2.24815e-05
-7.34059e-05
-2.43277e-05
-6.46486e-05
-2.62727e-05
-5.52519e-05
-2.81975e-05
-4.51772e-05
-3.02204e-05
-3.44612e-05
-3.21341e-05
-2.31053e-05
-3.40376e-05
-1.11788e-05
-3.57915e-05
1.28178e-06
-3.73481e-05
1.4219e-05
-3.87831e-05
2.74754e-05
-3.97519e-05
4.09817e-05
-4.04897e-05
5.45803e-05
-4.07755e-05
6.81161e-05
-4.05613e-05
8.14475e-05
-3.99463e-05
9.4324e-05
-3.859e-05
0.000106621
-3.68759e-05
0.000118117
-3.44406e-05
0.000128638
-3.15047e-05
0.000138015
-2.81092e-05
0.000146069
-2.41322e-05
0.000152676
-1.97978e-05
0.000157724
-1.51312e-05
0.000161122
-1.01739e-05
0.000162838
-5.13733e-06
0.000162805
3.84429e-08
0.000161059
5.23799e-06
0.00015763
1.02755e-05
0.000152621
1.50081e-05
0.000146143
1.94061e-05
0.000138237
2.36922e-05
0.000129199
2.71089e-05
0.000118996
3.05373e-05
0.000107974
3.30547e-05
9.62107e-05
3.52449e-05
8.38919e-05
3.69298e-05
7.12228e-05
3.7972e-05
5.82771e-05
3.88202e-05
4.53823e-05
3.86263e-05
3.24611e-05
3.87572e-05
1.9803e-05
3.7969e-05
7.38237e-06
3.72858e-05
-4.66828e-06
3.60833e-05
-1.62726e-05
3.47803e-05
-2.744e-05
3.34763e-05
-3.80325e-05
3.17752e-05
-4.80861e-05
3.01378e-05
-5.75593e-05
2.84263e-05
-6.64155e-05
2.65574e-05
-7.46509e-05
2.46984e-05
-8.22535e-05
2.28165e-05
-8.92447e-05
2.09661e-05
-9.56113e-05
1.91058e-05
-0.000101378
1.7291e-05
-0.000106461
1.52516e-05
-0.000110966
1.35015e-05
-0.000114792
1.14816e-05
-0.00011795
9.48486e-06
-0.000120465
7.54305e-06
-0.000122254
5.35572e-06
-0.000123378
3.37416e-06
-0.000123777
1.20614e-06
-0.00012339
-1.17109e-06
-0.000122303
-3.2762e-06
-0.000120512
-5.34143e-06
-0.000117983
-7.59305e-06
-0.000114762
-9.64276e-06
-0.000110913
-1.15059e-05
-0.000106213
-1.41402e-05
-0.000100886
-1.59823e-05
-9.4753e-05
-1.83935e-05
-8.78927e-05
-2.05843e-05
-8.04245e-05
-2.24128e-05
-7.20871e-05
-2.49959e-05
-6.30564e-05
-2.70901e-05
-5.33871e-05
-2.89904e-05
-4.29146e-05
-3.14155e-05
-3.19378e-05
-3.29235e-05
-2.0245e-05
-3.50535e-05
-8.05746e-06
-3.65461e-05
4.45514e-06
-3.75201e-05
1.72943e-05
-3.84891e-05
3.03852e-05
-3.92406e-05
4.35573e-05
-3.94844e-05
5.66926e-05
-3.93661e-05
6.97048e-05
-3.90011e-05
8.24203e-05
-3.81129e-05
9.47154e-05
-3.68499e-05
0.000106433
-3.51232e-05
0.000117373
-3.27834e-05
0.000127499
-3.0335e-05
0.000136557
-2.7135e-05
0.0001445
-2.37926e-05
0.000151202
-2.00905e-05
0.000156536
-1.59862e-05
0.000160498
-1.1856e-05
0.000162946
-7.34173e-06
0.000163877
-2.78962e-06
0.000163335
1.57027e-06
0.000161228
6.2839e-06
0.000157651
1.07137e-05
0.000152705
1.48259e-05
0.000146314
1.9151e-05
0.000138808
2.24989e-05
0.000130068
2.61887e-05
0.00012046
2.87848e-05
0.000109908
3.16471e-05
9.86676e-05
3.36673e-05
8.68525e-05
3.54232e-05
7.4597e-05
3.67298e-05
6.20533e-05
3.76092e-05
4.9369e-05
3.80186e-05
3.67203e-05
3.79205e-05
2.41995e-05
3.75347e-05
1.18847e-05
3.69406e-05
-2.57267e-07
3.63868e-05
-1.19355e-05
3.50214e-05
-2.31075e-05
3.35022e-05
3.15543e-05
-0.000155653
1.20573e-05
-0.000157822
8.59974e-06
-0.000159242
5.65139e-06
-0.00015985
2.51102e-06
-0.000159724
-4.40621e-07
-0.000158908
-3.24814e-06
-0.000157327
-6.32109e-06
-0.000155005
-9.28777e-06
-0.000151951
-1.22478e-05
-0.000147998
-1.57869e-05
-0.000143225
-1.91054e-05
-0.000137679
-2.21941e-05
-0.00013116
-2.60613e-05
-0.000123799
-2.94989e-05
-0.000115429
-3.34028e-05
-0.000106178
-3.70003e-05
-9.61273e-05
-4.01921e-05
-8.51632e-05
-4.3799e-05
-7.34165e-05
-4.70279e-05
-6.09829e-05
-4.96166e-05
-4.7858e-05
-5.24399e-05
-3.41769e-05
-5.46792e-05
-2.0108e-05
-5.62029e-05
-5.69898e-06
-5.76431e-05
8.93022e-06
-5.83182e-05
2.36262e-05
-5.86622e-05
3.82855e-05
-5.85296e-05
5.27259e-05
-5.76652e-05
6.68192e-05
-5.62768e-05
8.0454e-05
-5.44499e-05
9.34268e-05
-5.18124e-05
0.000105643
-4.87827e-05
0.000116987
-4.52968e-05
0.000127325
-4.12847e-05
0.000136586
-3.6978e-05
0.000144628
-3.21147e-05
0.000151438
-2.71806e-05
0.000156907
-2.18249e-05
0.000160988
-1.62879e-05
0.000163648
-1.05805e-05
0.0001648
-4.64074e-06
0.000164583
7.13213e-07
0.000162972
6.30883e-06
0.000159775
1.28373e-05
0.000155087
1.86483e-05
0.000148918
2.46837e-05
0.000141165
3.09154e-05
0.000132152
3.60091e-05
0.00012184
4.12673e-05
0.000110384
4.56375e-05
9.79995e-05
4.94761e-05
8.47425e-05
5.28761e-05
7.09532e-05
5.50719e-05
5.6664e-05
5.70711e-05
4.22238e-05
5.76457e-05
2.77126e-05
5.79776e-05
1.3233e-05
5.77856e-05
-9.41621e-07
5.66132e-05
-1.47468e-05
5.51555e-05
-2.81278e-05
5.3467e-05
-4.09395e-05
5.12284e-05
-5.31912e-05
4.89995e-05
-6.4794e-05
4.64151e-05
-7.5674e-05
4.3523e-05
-8.58552e-05
4.07306e-05
-9.52505e-05
3.75529e-05
-0.000103777
3.412e-05
-0.000111518
3.09937e-05
-0.000118356
2.73482e-05
-0.000124374
2.40843e-05
-0.000129539
2.07141e-05
-0.000133803
1.70617e-05
-0.000137257
1.38575e-05
-0.000139937
1.07386e-05
-0.000141727
7.14171e-06
-0.000142824
4.40976e-06
-0.000143182
1.42004e-06
-0.000142757
-1.73838e-06
-0.00014173
-4.07263e-06
-0.000140013
-6.84259e-06
-0.000137709
-9.23532e-06
-0.0001349
-1.12332e-05
-0.000131438
-1.38379e-05
-0.000127493
-1.58118e-05
-0.000123051
-1.77505e-05
-0.000117986
-2.03286e-05
-0.000112552
-2.17369e-05
-0.000106411
-2.46224e-05
-9.99436e-05
-2.5936e-05
-9.2786e-05
-2.8602e-05
-8.52117e-05
-3.03805e-05
-7.70182e-05
-3.27383e-05
-6.83563e-05
-3.47072e-05
-5.90885e-05
-3.69982e-05
-4.93381e-05
-3.90795e-05
-3.90016e-05
-4.13005e-05
-2.81239e-05
-4.35122e-05
-1.67897e-05
-4.53329e-05
-4.93918e-06
-4.73553e-05
7.3329e-06
-4.90137e-05
1.9934e-05
-5.03535e-05
3.27956e-05
-5.13737e-05
4.57853e-05
-5.19097e-05
5.87596e-05