/*--------------------------------*- C++ -*----------------------------------*\
| =========                 |                                                 |
| \\      /  F ield         | OpenFOAM: The Open Source CFD Toolbox           |
|  \\    /   O peration     | Version:  3.0.1                                 |
|   \\  /    A nd           | Web:      www.OpenFOAM.org                      |
|    \\/     M anipulation  |                                                 |
\*---------------------------------------------------------------------------*/
FoamFile
{
    version     2.0;
    format      ascii;
    class       surfaceScalarField;
    location    "16.4";
    object      alphaPhi;
}
// * * * * * * * * * * * * * * * * * * * * * * * * * * * * * * * * * * * * * //

dimensions      [0 3 -1 0 0 0 0];

internalField   nonuniform List<scalar> 
42423
(
9.70849e-05
1.7642e-05
7.92316e-05
1.78533e-05
6.09822e-05
1.82494e-05
4.25115e-05
1.84707e-05
2.41802e-05
1.83313e-05
6.02011e-06
1.81601e-05
-1.17485e-05
1.77686e-05
-2.89349e-05
1.71864e-05
-4.5355e-05
1.64201e-05
-6.08867e-05
1.55318e-05
-7.55162e-05
1.46295e-05
-8.91615e-05
1.36452e-05
-0.000101803
1.26413e-05
-0.000113448
1.16449e-05
-0.000124074
1.06259e-05
-0.000133729
9.65504e-06
-0.000142417
8.68879e-06
-0.00015016
7.7427e-06
-0.000157009
6.84933e-06
-0.000162975
5.96568e-06
-0.000168104
5.12855e-06
-0.000172446
4.34195e-06
-0.000176003
3.55778e-06
-0.000178825
2.82158e-06
-0.000180936
2.11082e-06
-0.000182334
1.39834e-06
-0.000183089
7.55102e-07
-0.000183145
5.60356e-08
-0.000182424
-7.21543e-07
-0.000181037
-1.38696e-06
-0.000178968
-2.06896e-06
-0.000176061
-2.90641e-06
-0.000172468
-3.59376e-06
-0.000168012
-4.45607e-06
-0.000162771
-5.24029e-06
-0.000156785
-5.98597e-06
-0.000149795
-6.99053e-06
-0.000141915
-7.87981e-06
-0.000133251
-8.66401e-06
-0.000123454
-9.79732e-06
-0.000112749
-1.0705e-05
-0.000100991
-1.1758e-05
-8.81285e-05
-1.28624e-05
-7.45337e-05
-1.35949e-05
-5.98659e-05
-1.46678e-05
-4.41487e-05
-1.57172e-05
-2.7897e-05
-1.62517e-05
-1.07454e-05
-1.71516e-05
7.12455e-06
-1.787e-05
2.53338e-05
-1.82093e-05
4.39398e-05
-1.8606e-05
6.2582e-05
-1.86422e-05
8.12067e-05
-1.86248e-05
9.96105e-05
-1.84038e-05
0.00011735
-1.77394e-05
0.000134302
-1.69518e-05
0.000150373
-1.60718e-05
0.000165027
-1.46539e-05
0.000178311
-1.32839e-05
0.00018987
-1.15594e-05
0.000199616
-9.74543e-06
0.000207403
-7.78724e-06
0.000212952
-5.54886e-06
0.000216285
-3.33364e-06
0.000217316
-1.03097e-06
0.000215942
1.37431e-06
0.000212246
3.69569e-06
0.000206245
6.00099e-06
0.000198067
8.17803e-06
0.000187809
1.02582e-05
0.000175679
1.21301e-05
0.000161805
1.38742e-05
0.000146406
1.53992e-05
0.000129783
1.6623e-05
0.000112194
1.75889e-05
9.37795e-05
1.84145e-05
7.49524e-05
1.88271e-05
5.57748e-05
1.91777e-05
3.66797e-05
1.90951e-05
1.77394e-05
1.89403e-05
-9.3398e-07
1.86734e-05
-1.90574e-05
1.81234e-05
-3.65052e-05
1.74478e-05
-5.32191e-05
1.67139e-05
-6.90634e-05
1.58443e-05
-8.39534e-05
1.48899e-05
-9.78524e-05
1.38989e-05
-0.000110751
1.28984e-05
-0.000122543
1.17924e-05
-0.000133255
1.07112e-05
-0.000142887
9.6326e-06
-0.000151418
8.5312e-06
-0.000158865
7.44672e-06
-0.00016536
6.49504e-06
-0.000170785
5.42483e-06
-0.000175254
4.46887e-06
-0.000178809
3.55465e-06
-0.000181506
2.6973e-06
-0.000183393
1.88708e-06
-0.000184489
1.09568e-06
-0.000184911
4.22433e-07
-0.000184722
-1.88658e-07
-0.000183785
-9.37035e-07
-0.000182234
-1.55157e-06
-0.000180064
-2.16969e-06
-0.00017723
-2.83447e-06
-0.000173763
-3.4666e-06
-0.000169639
-4.12444e-06
-0.000164825
-4.81393e-06
-0.000159313
-5.51194e-06
-0.000153073
-6.23962e-06
-0.000146115
-6.95783e-06
-0.000138383
-7.73229e-06
-0.000129861
-8.52246e-06
-0.000120576
-9.28512e-06
-0.000110458
-1.0118e-05
-9.95045e-05
-1.09532e-05
-8.77486e-05
-1.1756e-05
-7.5175e-05
-1.25736e-05
-6.1773e-05
-1.34021e-05
-4.75385e-05
-1.42345e-05
-3.26334e-05
-1.49052e-05
-1.69509e-05
-1.56826e-05
-6.45601e-07
-1.63054e-05
1.62157e-05
-1.68614e-05
3.35002e-05
-1.72845e-05
5.10875e-05
-1.75874e-05
6.88068e-05
-1.77194e-05
8.64146e-05
-1.7608e-05
0.000103744
-1.73295e-05
0.000120524
-1.67799e-05
0.000136487
-1.59638e-05
0.000151416
-1.49289e-05
0.000164959
-1.35426e-05
0.000176926
-1.19673e-05
0.00018706
-1.0134e-05
0.000195122
-8.06191e-06
0.000200923
-5.8019e-06
0.000204316
-3.39263e-06
0.000205262
-9.46246e-07
0.000203709
1.5528e-06
0.000199597
4.11184e-06
0.000193048
6.54921e-06
0.000184225
8.82287e-06
0.000173287
1.09383e-05
0.000160419
1.28676e-05
0.000145901
1.45184e-05
0.000129963
1.59375e-05
0.000112942
1.70216e-05
9.51272e-05
1.78146e-05
7.68301e-05
1.82971e-05
5.82566e-05
1.85734e-05
3.97298e-05
1.85268e-05
2.1478e-05
1.82518e-05
3.69531e-06
1.77827e-05
-1.34582e-05
1.71535e-05
-2.98459e-05
1.63877e-05
-4.54056e-05
1.55597e-05
-6.00883e-05
1.46827e-05
-7.37981e-05
1.37098e-05
-8.66257e-05
1.28277e-05
-9.84896e-05
1.18639e-05
-0.000109434
1.0944e-05
-0.00011949
1.00562e-05
-0.00012871
9.21988e-06
-0.000137078
8.36807e-06
-0.000144649
7.57083e-06
-0.000151448
6.79939e-06
-0.000157548
6.0999e-06
-0.000162913
5.36505e-06
-0.000167594
4.68143e-06
-0.000171608
4.01373e-06
-0.000175007
3.39887e-06
-0.000177723
2.71611e-06
-0.000179818
2.09468e-06
-0.000181215
1.39747e-06
-0.000181985
7.69438e-07
-0.000182086
1.01667e-07
-0.000181461
-6.25137e-07
-0.000180076
-1.38512e-06
-0.000177923
-2.15313e-06
-0.000174948
-2.97515e-06
-0.000171121
-3.82708e-06
-0.000166397
-4.72403e-06
-0.000160751
-5.64538e-06
-0.000154128
-6.62357e-06
-0.000146528
-7.59934e-06
-0.00013796
-8.56853e-06
-0.000128393
-9.56635e-06
-0.000117879
-1.05141e-05
-0.000106396
-1.14832e-05
-9.40133e-05
-1.23829e-05
-8.07813e-05
-1.3232e-05
-6.67292e-05
-1.40522e-05
-5.19665e-05
-1.47627e-05
-3.65196e-05
-1.54469e-05
-2.04833e-05
-1.60363e-05
-4.00598e-06
-1.64774e-05
1.28726e-05
-1.68786e-05
2.99944e-05
-1.71218e-05
4.72378e-05
-1.72434e-05
6.44756e-05
-1.72379e-05
8.15062e-05
-1.70306e-05
9.82036e-05
-1.66975e-05
0.000114377
-1.61733e-05
0.00012983
-1.54536e-05
0.000144375
-1.45442e-05
0.000157796
-1.34214e-05
0.000169929
-1.21326e-05
0.000180544
-1.0616e-05
0.000189442
-8.89722e-06
0.000196488
-7.04652e-06
0.000201492
-5.00383e-06
0.000204282
-2.79013e-06
0.000204854
-5.71619e-07
0.000203104
1.74962e-06
0.000198982
4.12195e-06
0.000192555
6.42684e-06
0.000183852
8.70349e-06
0.000173106
1.07454e-05
0.000160417
1.26898e-05
0.000146026
1.43902e-05
0.000130175
1.58516e-05
0.000113128
1.70462e-05
9.51708e-05
1.79576e-05
7.66001e-05
1.85708e-05
5.7697e-05
1.89031e-05
3.87346e-05
1.89623e-05
1.99998e-05
1.87348e-05
1.61106e-06
1.83888e-05
-1.61455e-05
1.77565e-05
-3.30794e-05
1.69339e-05
-4.90913e-05
1.60119e-05
-6.40933e-05
1.5002e-05
-7.80382e-05
1.39449e-05
-9.08481e-05
1.28099e-05
-0.000102534
1.16864e-05
-0.000113125
1.05902e-05
-0.000122667
9.54223e-06
-0.000131171
8.50428e-06
-0.000138716
7.54448e-06
-0.000145338
6.62208e-06
-0.000151091
5.75354e-06
-0.00015609
4.99868e-06
-0.00016029
4.20005e-06
-0.000163793
3.50285e-06
-0.00016663
2.83736e-06
-0.000168859
2.22914e-06
-0.000170478
1.61847e-06
-0.000171526
1.04816e-06
-0.000171993
4.67013e-07
-0.00017193
-6.32361e-08
-0.00017129
-6.39493e-07
-0.000170045
-1.24488e-06
-0.000168232
-1.81329e-06
-0.000165776
-2.45616e-06
-0.000162664
-3.11154e-06
-0.000158883
-3.78147e-06
-0.00015434
-4.54305e-06
-0.000149026
-5.31335e-06
-0.000142905
-6.12128e-06
-0.000135901
-7.00448e-06
-0.000127959
-7.94166e-06
-0.000119181
-8.77826e-06
-0.000109371
-9.80988e-06
-9.86013e-05
-1.07697e-05
-8.68048e-05
-1.17965e-05
-7.4013e-05
-1.27919e-05
-6.03028e-05
-1.37102e-05
-4.55821e-05
-1.47208e-05
-2.99839e-05
-1.55982e-05
-1.37152e-05
-1.62687e-05
3.33385e-06
-1.70491e-05
2.09021e-05
-1.75683e-05
3.88671e-05
-1.7965e-05
5.69953e-05
-1.81283e-05
7.51712e-05
-1.8176e-05
9.31085e-05
-1.79374e-05
0.000110482
-1.7374e-05
0.000127188
-1.67061e-05
0.000142976
-1.57872e-05
0.000157491
-1.4515e-05
0.000170655
-1.31648e-05
0.000182069
-1.14134e-05
0.000191636
-9.56748e-06
0.000199201
-7.56472e-06
0.000204477
-5.27662e-06
0.000207514
-3.03707e-06
0.000208158
-6.43305e-07
0.000206455
1.7024e-06
0.000202408
4.04703e-06
0.00019614
6.26826e-06
0.000187704
8.43617e-06
0.000177263
1.04408e-05
0.000165076
1.21865e-05
0.000151301
1.37749e-05
0.0001362
1.51014e-05
0.000120135
1.60646e-05
0.000103262
1.68736e-05
8.58429e-05
1.74188e-05
6.82929e-05
1.75499e-05
5.06722e-05
1.76207e-05
3.3113e-05
1.75593e-05
1.60714e-05
1.70415e-05
-5.19721e-07
1.65911e-05
-1.64779e-05
1.59581e-05
-3.16557e-05
1.51778e-05
-4.59933e-05
1.43376e-05
-5.94145e-05
1.34212e-05
-7.18833e-05
1.24689e-05
-8.33652e-05
1.14819e-05
-9.38641e-05
1.04989e-05
-0.000103401
9.5372e-06
-0.000111975
8.57416e-06
-0.000119618
7.64267e-06
-0.000126362
6.74364e-06
-0.00013225
5.88772e-06
-0.000137334
5.08447e-06
-0.00014164
4.30634e-06
-0.000145197
3.55679e-06
-0.000148046
2.84926e-06
-0.000150222
2.17529e-06
-0.000151765
1.54298e-06
-0.000152702
9.37186e-07
-0.00015303
3.28083e-07
-0.000152711
-3.18517e-07
-0.000151791
-9.20074e-07
-0.000150234
-1.5573e-06
-0.000148119
-2.11552e-06
-0.00014543
-2.68818e-06
-0.000142055
-3.37529e-06
-0.000138124
-3.93078e-06
-0.000133577
-4.54751e-06
-0.000128308
-5.26908e-06
-0.000122459
-5.84881e-06
-0.000115904
-6.55505e-06
-0.000108651
-7.25253e-06
-0.000100801
-7.84994e-06
-9.21974e-05
-8.604e-06
-8.29452e-05
-9.25218e-06
-7.30895e-05
-9.85571e-06
-6.24845e-05
-1.06051e-05
-5.13545e-05
-1.113e-05
-3.95012e-05
-1.18533e-05
-2.711e-05
-1.23912e-05
-1.42612e-05
-1.28489e-05
-8.94054e-07
-1.33671e-05
1.28791e-05
-1.37731e-05
2.69457e-05
-1.40666e-05
4.13121e-05
-1.43665e-05
5.5757e-05
-1.4445e-05
7.02386e-05
-1.44816e-05
8.45602e-05
-1.43217e-05
9.8486e-05
-1.39258e-05
0.000111957
-1.34709e-05
0.000124762
-1.2805e-05
-1.21259e-05
9.71041e-05
3.5291e-05
7.92434e-05
3.57139e-05
6.09862e-05
3.65066e-05
4.25077e-05
3.69492e-05
2.41724e-05
3.66665e-05
6.00063e-06
3.63319e-05
-1.17719e-05
3.55412e-05
-2.89643e-05
3.43788e-05
-4.53909e-05
3.28467e-05
-6.09267e-05
3.10676e-05
-7.55591e-05
2.92619e-05
-8.92101e-05
2.72963e-05
-0.000101852
2.52833e-05
-0.000113498
2.32912e-05
-0.00012413
2.12572e-05
-0.000133783
1.93085e-05
-0.000142474
1.73792e-05
-0.000150222
1.54912e-05
-0.00015707
1.36972e-05
-0.000163035
1.19309e-05
-0.000168162
1.02549e-05
-0.000172507
8.68764e-06
-0.000176073
7.12316e-06
-0.000178887
5.63607e-06
-0.000180998
4.22189e-06
-0.000182405
2.80509e-06
-0.000183152
1.50224e-06
-0.000183195
9.90287e-08
-0.000182476
-1.44056e-06
-0.000181089
-2.77377e-06
-0.000179026
-4.13266e-06
-0.000176116
-5.81587e-06
-0.000172524
-7.18578e-06
-0.000168071
-8.90895e-06
-0.000162831
-1.04809e-05
-0.000156846
-1.19706e-05
-0.000149859
-1.39781e-05
-0.000141976
-1.57622e-05
-0.000133312
-1.73283e-05
-0.000123517
-1.95922e-05
-0.00011281
-2.14121e-05
-0.000101046
-2.35218e-05
-8.81945e-05
-2.57141e-05
-7.45892e-05
-2.72003e-05
-5.99251e-05
-2.9332e-05
-4.41999e-05
-3.14424e-05
-2.79406e-05
-3.25111e-05
-1.07869e-05
-3.43054e-05
7.09321e-06
-3.57502e-05
2.53109e-05
-3.64271e-05
4.39289e-05
-3.72241e-05
6.2582e-05
-3.72954e-05
8.12167e-05
-3.72596e-05
9.96382e-05
-3.68253e-05
0.000117392
-3.5493e-05
0.000134351
-3.39115e-05
0.000150443
-3.21631e-05
0.000165091
-2.93026e-05
0.000178392
-2.65845e-05
0.00018997
-2.31382e-05
0.000199712
-1.94875e-05
0.000207511
-1.55859e-05
0.000213075
-1.11129e-05
0.000216412
-6.67107e-06
0.000217447
-2.06582e-06
0.000216064
2.75767e-06
0.000212373
7.38627e-06
0.000206369
1.20048e-05
0.000198183
1.63646e-05
0.000187923
2.05176e-05
0.000175776
2.42771e-05
0.000161895
2.77552e-05
0.000146485
3.08094e-05
0.00012985
3.32583e-05
0.000112246
3.51929e-05
9.38169e-05
3.68435e-05
7.49766e-05
3.76675e-05
5.57822e-05
3.83722e-05
3.66827e-05
3.81946e-05
1.77346e-05
3.78885e-05
-9.50073e-07
3.73581e-05
-1.90857e-05
3.62591e-05
-3.65448e-05
3.49069e-05
-5.32696e-05
3.34386e-05
-6.91203e-05
3.1695e-05
-8.4017e-05
2.97865e-05
-9.79203e-05
2.78022e-05
-0.000110828
2.58063e-05
-0.000122637
2.36008e-05
-0.00013335
2.14244e-05
-0.00014297
1.92524e-05
-0.000151498
1.70597e-05
-0.000158975
1.49231e-05
-0.000165454
1.29745e-05
-0.000170877
1.08475e-05
-0.000175346
8.93828e-06
-0.000178904
7.11264e-06
-0.000181603
5.39658e-06
-0.000183493
3.77692e-06
-0.000184585
2.18727e-06
-0.000184986
8.24053e-07
-0.000184795
-3.79616e-07
-0.000183865
-1.86751e-06
-0.00018232
-3.09695e-06
-0.000180143
-4.34596e-06
-0.000177308
-5.6703e-06
-0.000173846
-6.92836e-06
-0.000169717
-8.25346e-06
-0.00016491
-9.62091e-06
-0.000159393
-1.10292e-05
-0.000153145
-1.24869e-05
-0.000146187
-1.39162e-05
-0.000138459
-1.54604e-05
-0.000129935
-1.70461e-05
-0.000120645
-1.8575e-05
-0.000110528
-2.02354e-05
-9.95762e-05
-2.19051e-05
-8.782e-05
-2.35122e-05
-7.52497e-05
-2.5144e-05
-6.18292e-05
-2.68227e-05
-4.76159e-05
-2.84479e-05
-3.26847e-05
-2.98364e-05
-1.69895e-05
-3.13779e-05
-6.90875e-07
-3.26041e-05
1.61832e-05
-3.37356e-05
3.34879e-05
-3.45893e-05
5.10757e-05
-3.51752e-05
6.88063e-05
-3.54501e-05
8.64351e-05
-3.52369e-05
0.000103762
-3.46569e-05
0.000120557
-3.3575e-05
0.000136546
-3.19522e-05
0.000151485
-2.98684e-05
0.000165047
-2.71051e-05
0.000177024
-2.39441e-05
0.000187158
-2.02683e-05
0.000195235
-1.61391e-05
0.000201045
-1.16116e-05
0.000204437
-6.7849e-06
0.000205382
-1.89123e-06
0.000203823
3.11216e-06
0.000199715
8.21984e-06
0.000193159
1.31047e-05
0.000184325
1.76573e-05
0.000173385
2.18782e-05
0.000160501
2.57517e-05
0.000145958
2.9061e-05
0.000130011
3.18846e-05
0.000112973
3.40593e-05
9.51431e-05
3.56445e-05
7.68346e-05
3.66057e-05
5.82446e-05
3.71635e-05
3.97166e-05
3.70549e-05
2.14763e-05
3.64921e-05
3.65814e-06
3.56008e-05
-1.34982e-05
3.43099e-05
-2.98885e-05
3.2778e-05
-4.54582e-05
3.11295e-05
-6.01499e-05
2.93744e-05
-7.38611e-05
2.7421e-05
-8.66871e-05
2.56538e-05
-9.85477e-05
2.37245e-05
-0.000109495
2.18915e-05
-0.000119557
2.01183e-05
-0.000128777
1.84393e-05
-0.00013714
1.67317e-05
-0.00014471
1.51411e-05
-0.000151515
1.36043e-05
-0.000157615
1.22e-05
-0.000162977
1.07263e-05
-0.000167659
9.36351e-06
-0.000171677
8.03166e-06
-0.000175069
6.79174e-06
-0.000177789
5.43519e-06
-0.000179885
4.19086e-06
-0.000181287
2.79968e-06
-0.000182052
1.53419e-06
-0.000182154
2.04163e-07
-0.00018153
-1.24965e-06
-0.000180144
-2.77054e-06
-0.000177998
-4.29931e-06
-0.000175023
-5.95002e-06
-0.000171189
-7.66163e-06
-0.000166469
-9.44371e-06
-0.000160827
-1.12871e-05
-0.000154202
-1.32484e-05
-0.000146606
-1.5196e-05
-0.000138033
-1.71417e-05
-0.000128464
-1.91345e-05
-0.000117955
-2.10232e-05
-0.000106465
-2.29739e-05
-9.40735e-05
-2.4774e-05
-8.08437e-05
-2.64618e-05
-6.67847e-05
-2.81112e-05
-5.20103e-05
-2.95372e-05
-3.6562e-05
-3.08953e-05
-2.052e-05
-3.20783e-05
-4.03061e-06
-3.29668e-05
1.28459e-05
-3.37552e-05
2.99792e-05
-3.42552e-05
4.72391e-05
-3.45034e-05
6.44845e-05
-3.44834e-05
8.15172e-05
-3.40634e-05
9.82269e-05
-3.34072e-05
0.000114418
-3.23643e-05
0.000129874
-3.09096e-05
0.000144431
-2.91012e-05
0.000157863
-2.6854e-05
0.00017
-2.4269e-05
0.000180635
-2.12517e-05
0.000189546
-1.78079e-05
0.000196587
-1.40875e-05
0.000201606
-1.00229e-05
0.000204407
-5.59113e-06
0.000204969
-1.13389e-06
0.000203214
3.50474e-06
0.000199093
8.24273e-06
0.000192662
1.28584e-05
0.000183958
1.74077e-05
0.000173197
2.15063e-05
0.000160496
2.53909e-05
0.000146097
2.8789e-05
0.000130236
3.17123e-05
0.000113172
3.41111e-05
9.51976e-05
3.59316e-05
7.66209e-05
3.71475e-05
5.77086e-05
3.78155e-05
3.874e-05
3.7931e-05
1.99643e-05
3.75105e-05
1.58354e-06
3.67695e-05
-1.61796e-05
3.55197e-05
-3.31301e-05
3.38845e-05
-4.91561e-05
3.20379e-05
-6.41541e-05
3.00001e-05
-7.80945e-05
2.78854e-05
-9.09094e-05
2.56249e-05
-0.000102598
2.33753e-05
-0.000113187
2.11786e-05
-0.000122731
1.90867e-05
-0.000131243
1.70162e-05
-0.000138783
1.50844e-05
-0.000145395
1.32339e-05
-0.000151147
1.15057e-05
-0.000156143
9.99498e-06
-0.00016035
8.40721e-06
-0.000163854
7.00709e-06
-0.000166691
5.67407e-06
-0.000168914
4.45215e-06
-0.000170526
3.23008e-06
-0.000171577
2.099e-06
-0.000172054
9.4448e-07
-0.000171982
-1.35499e-07
-0.000171335
-1.28673e-06
-0.000170096
-2.48385e-06
-0.000168291
-3.61799e-06
-0.000165832
-4.91501e-06
-0.000162718
-6.2256e-06
-0.000158939
-7.56021e-06
-0.000154402
-9.08005e-06
-0.00014909
-1.06257e-05
-0.000142965
-1.22463e-05
-0.000135965
-1.40048e-05
-0.000128035
-1.58713e-05
-0.000119244
-1.75694e-05
-0.000109435
-1.96185e-05
-9.86602e-05
-2.15447e-05
-8.68717e-05
-2.3585e-05
-7.40763e-05
-2.55872e-05
-6.03539e-05
-2.74328e-05
-4.56316e-05
-2.94431e-05
-3.00407e-05
-3.11891e-05
-1.37543e-05
-3.25552e-05
3.29961e-06
-3.41031e-05
2.08776e-05
-3.51464e-05
3.88548e-05
-3.59422e-05
5.69887e-05
-3.62622e-05
7.51838e-05
-3.63712e-05
9.31245e-05
-3.58781e-05
0.000110506
-3.47553e-05
0.000127251
-3.3451e-05
0.000143025
-3.15622e-05
0.000157549
-2.90386e-05
0.00017074
-2.63561e-05
0.000182149
-2.28224e-05
0.000191731
-1.91495e-05
0.00019931
-1.51438e-05
0.000204587
-1.05539e-05
0.000207639
-6.08851e-06
0.000208277
-1.28205e-06
0.000206572
3.40734e-06
0.000202531
8.08805e-06
0.000196261
1.25382e-05
0.000187816
1.68813e-05
0.000177367
2.08895e-05
0.000165173
2.43812e-05
0.000151384
2.75635e-05
0.00013627
3.02152e-05
0.000120195
3.21401e-05
0.000103306
3.37618e-05
8.58749e-05
3.48503e-05
6.83145e-05
3.51104e-05
5.06802e-05
3.52549e-05
3.31118e-05
3.51276e-05
1.60635e-05
3.40898e-05
-5.35265e-07
3.31899e-05
-1.65016e-05
3.19245e-05
-3.16874e-05
3.03636e-05
-4.60298e-05
2.868e-05
-5.94543e-05
2.68456e-05
-7.19296e-05
2.49442e-05
-8.34159e-05
2.29681e-05
-9.39149e-05
2.09979e-05
-0.000103453
1.90749e-05
-0.000112031
1.71522e-05
-0.00011967
1.52821e-05
-0.000126412
1.34857e-05
-0.000132301
1.17764e-05
-0.000137384
1.01678e-05
-0.000141689
8.61126e-06
-0.000145247
7.11459e-06
-0.000148099
5.70122e-06
-0.00015028
4.35653e-06
-0.000151818
3.08091e-06
-0.000152748
1.8675e-06
-0.000153074
6.53605e-07
-0.000152756
-6.36435e-07
-0.000151835
-1.84142e-06
-0.000150283
-3.10884e-06
-0.000148162
-4.23611e-06
-0.000145472
-5.37856e-06
-0.0001421
-6.7475e-06
-0.00013817
-7.86072e-06
-0.000133624
-9.09315e-06
-0.000128353
-1.054e-05
-0.000122505
-1.16976e-05
-0.00011595
-1.31097e-05
-0.000108695
-1.45073e-05
-0.000100843
-1.5702e-05
-9.22378e-05
-1.72093e-05
-8.29874e-05
-1.85026e-05
-7.31303e-05
-1.97128e-05
-6.25227e-05
-2.12127e-05
-5.13856e-05
-2.22671e-05
-3.95295e-05
-2.37095e-05
-2.71338e-05
-2.47869e-05
-1.42814e-05
-2.57013e-05
-9.12982e-07
-2.67356e-05
1.2858e-05
-2.75442e-05
2.69294e-05
-2.81381e-05
4.13004e-05
-2.87376e-05
5.57437e-05
-2.88883e-05
7.02315e-05
-2.89695e-05
8.45646e-05
-2.86548e-05
9.84937e-05
-2.78549e-05
0.000111974
-2.69514e-05
0.000124793
-2.56242e-05
-2.42597e-05
9.71397e-05
5.29566e-05
7.92625e-05
5.35912e-05
6.09891e-05
5.47801e-05
4.24956e-05
5.54426e-05
2.41546e-05
5.50075e-05
5.95981e-06
5.45267e-05
-1.18261e-05
5.33271e-05
-2.90303e-05
5.1583e-05
-4.54645e-05
4.92808e-05
-6.10073e-05
4.66103e-05
-7.56473e-05
4.3902e-05
-8.92998e-05
4.09487e-05
-0.000101945
3.79284e-05
-0.000113595
3.49414e-05
-0.000124225
3.18871e-05
-0.00013388
2.89633e-05
-0.000142571
2.60707e-05
-0.000150316
2.32356e-05
-0.000157166
2.05473e-05
-0.000163133
1.78985e-05
-0.00016826
1.53814e-05
-0.000172605
1.30322e-05
-0.000176164
1.06822e-05
-0.00017898
8.45256e-06
-0.000181096
6.3382e-06
-0.000182491
4.19961e-06
-0.000183222
2.23344e-06
-0.000183257
1.33763e-07
-0.000182532
-2.16522e-06
-0.000181144
-4.16162e-06
-0.000179091
-6.18589e-06
-0.000176174
-8.73269e-06
-0.000172586
-1.07745e-05
-0.000168139
-1.3356e-05
-0.000162897
-1.57223e-05
-0.000156915
-1.79526e-05
-0.000149935
-2.09587e-05
-0.000142049
-2.36476e-05
-0.000133387
-2.59911e-05
-0.000123597
-2.93821e-05
-0.000112887
-3.21223e-05
-0.000101121
-3.52872e-05
-8.82849e-05
-3.85505e-05
-7.46621e-05
-4.08231e-05
-6.00082e-05
-4.3986e-05
-4.42681e-05
-4.71826e-05
-2.7999e-05
-4.87802e-05
-1.08433e-05
-5.14612e-05
7.0568e-06
-5.36504e-05
2.52823e-05
-5.46526e-05
4.39124e-05
-5.58543e-05
6.25831e-05
-5.59661e-05
8.12371e-05
-5.59137e-05
9.9675e-05
-5.52633e-05
0.000117444
-5.32621e-05
0.000134423
-5.08906e-05
0.000150527
-4.82669e-05
0.000165196
-4.39715e-05
0.000178504
-3.98929e-05
0.000190093
-3.47271e-05
0.00019986
-2.9255e-05
0.000207662
-2.33875e-05
0.000213233
-1.66839e-05
0.000216586
-1.00246e-05
0.000217626
-3.10541e-06
0.000216229
4.15474e-06
0.000212546
1.10688e-05
0.00020654
1.80107e-05
0.000198346
2.45588e-05
0.000188082
3.07818e-05
0.000175921
3.64382e-05
0.000162025
4.16513e-05
0.000146587
4.62471e-05
0.000129928
4.99174e-05
0.0001123
5.28206e-05
9.38598e-05
5.52842e-05
7.50028e-05
5.65245e-05
5.57783e-05
5.75967e-05
3.66667e-05
5.73064e-05
1.7703e-05
5.68522e-05
-9.90911e-07
5.60521e-05
-1.91391e-05
5.44072e-05
-3.66201e-05
5.23879e-05
-5.33525e-05
5.0171e-05
-6.92001e-05
4.75425e-05
-8.41052e-05
4.46915e-05
-9.80188e-05
4.17158e-05
-0.000110927
3.8714e-05
-0.000122742
3.54162e-05
-0.000133462
3.21447e-05
-0.000143094
2.88838e-05
-0.000151626
2.55922e-05
-0.000159106
2.24028e-05
-0.000165565
1.94333e-05
-0.000170999
1.62813e-05
-0.000175459
1.33985e-05
-0.000179008
1.06617e-05
-0.000181704
8.09213e-06
-0.000183596
5.66963e-06
-0.000184694
3.28457e-06
-0.000185104
1.23459e-06
-0.000184877
-6.06506e-07
-0.000183944
-2.80092e-06
-0.000182408
-4.6324e-06
-0.000180233
-6.52097e-06
-0.000177393
-8.51063e-06
-0.000173929
-1.03929e-05
-0.000169798
-1.23842e-05
-0.000164999
-1.44194e-05
-0.000159492
-1.65368e-05
-0.000153245
-1.87333e-05
-0.000146276
-2.08854e-05
-0.000138548
-2.31883e-05
-0.000130032
-2.55619e-05
-0.000120744
-2.7863e-05
-0.00011062
-3.03597e-05
-9.96788e-05
-3.28461e-05
-8.78991e-05
-3.5292e-05
-7.53422e-05
-3.77009e-05
-6.19281e-05
-4.02368e-05
-4.77283e-05
-4.26478e-05
-3.27779e-05
-4.47868e-05
-1.70706e-05
-4.70852e-05
-7.57568e-07
-4.89172e-05
1.61209e-05
-5.06142e-05
3.34426e-05
-5.1911e-05
5.10525e-05
-5.27853e-05
6.87896e-05
-5.31873e-05
8.64348e-05
-5.28822e-05
0.000103791
-5.20136e-05
0.000120604
-5.03881e-05
0.000136607
-4.79552e-05
0.00015156
-4.48213e-05
0.000165156
-4.0701e-05
0.000177161
-3.59493e-05
0.000187311
-3.04183e-05
0.000195407
-2.42355e-05
0.000201239
-1.74436e-05
0.000204626
-1.01719e-05
0.000205563
-2.82795e-06
0.000203984
4.69107e-06
0.000199875
1.2328e-05
0.000193312
1.9668e-05
0.00018446
2.6509e-05
0.000173504
3.28349e-05
0.000160603
3.86524e-05
0.000146025
4.36389e-05
0.000130068
4.78413e-05
0.000113014
5.11134e-05
9.51647e-05
5.3494e-05
7.68051e-05
5.49652e-05
5.82151e-05
5.57534e-05
3.96739e-05
5.55962e-05
2.14267e-05
5.47393e-05
3.57946e-06
5.3448e-05
-1.35937e-05
5.14831e-05
-2.99875e-05
4.91718e-05
-4.55465e-05
4.66884e-05
-6.02454e-05
4.40733e-05
-7.39635e-05
4.11392e-05
-8.67902e-05
3.84804e-05
-9.86497e-05
3.5584e-05
-0.000109587
3.28287e-05
-0.00011965
3.01817e-05
-0.000128865
2.76542e-05
-0.000137228
2.50949e-05
-0.000144797
2.27094e-05
-0.000151599
2.0407e-05
-0.000157696
1.8297e-05
-0.00016306
1.60902e-05
-0.000167743
1.40462e-05
-0.000171769
1.20575e-05
-0.000175151
1.01738e-05
-0.000177865
8.14964e-06
-0.000179953
6.27836e-06
-0.000181366
4.21301e-06
-0.000182143
2.31099e-06
-0.000182237
2.9811e-07
-0.00018161
-1.8764e-06
-0.000180228
-4.15286e-06
-0.00017808
-6.44703e-06
-0.000175113
-8.91706e-06
-0.000171285
-1.1489e-05
-0.000166564
-1.41654e-05
-0.000160919
-1.69319e-05
-0.000154295
-1.98723e-05
-0.0001467
-2.27909e-05
-0.000138133
-2.57083e-05
-0.000128566
-2.87023e-05
-0.000118042
-3.15473e-05
-0.000106553
-3.44625e-05
-9.41564e-05
-3.71705e-05
-8.09221e-05
-3.96962e-05
-6.6867e-05
-4.21664e-05
-5.20843e-05
-4.43199e-05
-3.6619e-05
-4.63607e-05
-2.05741e-05
-4.81232e-05
-4.07707e-06
-4.94639e-05
1.28181e-05
-5.06504e-05
2.99549e-05
-5.1392e-05
4.72246e-05
-5.17732e-05
6.44927e-05
-5.17515e-05
8.15437e-05
-5.11145e-05
9.82599e-05
-5.01234e-05
0.000114458
-4.85622e-05
0.000129938
-4.63895e-05
0.000144513
-4.36769e-05
0.00015797
-4.03102e-05
0.000170118
-3.6418e-05
0.000180759
-3.18927e-05
0.00018969
-2.6739e-05
0.000196751
-2.11483e-05
0.000201774
-1.50452e-05
0.000204583
-8.40011e-06
0.000205152
-1.70336e-06
0.00020338
5.27696e-06
0.000199252
1.23705e-05
0.0001928
1.93103e-05
0.000184103
2.61051e-05
0.000173334
3.22753e-05
0.000160619
3.81057e-05
0.000146194
4.32136e-05
0.000130316
4.75905e-05
0.000113237
5.11896e-05
9.52375e-05
5.39316e-05
7.66273e-05
5.57577e-05
5.76904e-05
5.67524e-05
3.87167e-05
5.69047e-05
1.99004e-05
5.63268e-05
1.51697e-06
5.5153e-05
-1.62627e-05
5.32994e-05
-3.32165e-05
5.08383e-05
-4.92474e-05
4.80689e-05
-6.42555e-05
4.50081e-05
-7.81984e-05
4.18282e-05
-9.10105e-05
3.8437e-05
-0.000102698
3.50626e-05
-0.000113286
3.17666e-05
-0.000122821
2.86216e-05
-0.000131339
2.55346e-05
-0.00013887
2.26153e-05
-0.000145484
1.9848e-05
-0.000151238
1.72596e-05
-0.000156216
1.49734e-05
-0.000160414
1.26044e-05
-0.000163913
1.05066e-05
-0.000166755
8.51569e-06
-0.000168978
6.67528e-06
-0.000170593
4.84573e-06
-0.000171636
3.14112e-06
-0.000172107
1.41605e-06
-0.000172044
-1.98811e-07
-0.000171394
-1.93631e-06
-0.000170148
-3.73009e-06
-0.000168346
-5.4197e-06
-0.000165897
-7.36422e-06
-0.000162789
-9.33369e-06
-0.000159003
-1.13457e-05
-0.000154471
-1.36126e-05
-0.000149169
-1.59273e-05
-0.000143044
-1.83711e-05
-0.000136043
-2.10066e-05
-0.000128138
-2.37761e-05
-0.000119328
-2.63789e-05
-0.000109523
-2.94236e-05
-9.8747e-05
-3.23211e-05
-8.69538e-05
-3.53783e-05
-7.41654e-05
-3.83757e-05
-6.04404e-05
-4.11578e-05
-4.57126e-05
-4.41709e-05
-3.01355e-05
-4.67662e-05
-1.38118e-05
-4.88789e-05
3.25313e-06
-5.11681e-05
2.08338e-05
-5.27271e-05
3.88278e-05
-5.39363e-05
5.69752e-05
-5.44096e-05
7.51906e-05
-5.45867e-05
9.31463e-05
-5.38338e-05
0.000110541
-5.21497e-05
0.000127323
-5.0233e-05
0.000143103
-4.73424e-05
0.000157642
-4.3578e-05
0.000170839
-3.95535e-05
0.000182268
-3.42514e-05
0.000191872
-2.87534e-05
0.000199438
-2.27093e-05
0.000204723
-1.58389e-05
0.000207804
-9.17028e-06
0.000208432
-1.90994e-06
0.00020673
5.10933e-06
0.000202706
1.2112e-05
0.000196431
1.88132e-05
0.00018797
2.53422e-05
0.000177509
3.13507e-05
0.000165296
3.65937e-05
0.000151484
4.13757e-05
0.000136352
4.53477e-05
0.000120257
4.82346e-05
0.000103342
5.06769e-05
8.58947e-05
5.22976e-05
6.83148e-05
5.26903e-05
5.06498e-05
5.292e-05
3.30796e-05
5.26978e-05
1.60214e-05
5.1148e-05
-5.89468e-07
4.98008e-05
-1.65663e-05
4.79013e-05
-3.17604e-05
4.55577e-05
-4.61073e-05
4.30269e-05
-5.95374e-05
4.02757e-05
-7.2019e-05
3.74258e-05
-8.35017e-05
3.44508e-05
-9.40005e-05
3.14967e-05
-0.00010354
2.86147e-05
-0.000112116
2.57279e-05
-0.000119755
2.29206e-05
-0.000126497
2.02285e-05
-0.000132382
1.76613e-05
-0.000137461
1.52464e-05
-0.000141766
1.29161e-05
-0.000145329
1.06774e-05
-0.000148176
8.54865e-06
-0.000150351
6.53124e-06
-0.000151887
4.61746e-06
-0.000152815
2.79573e-06
-0.000153128
9.66563e-07
-0.000152803
-9.62084e-07
-0.000151881
-2.76318e-06
-0.000150338
-4.6518e-06
-0.000148208
-6.36622e-06
-0.000145518
-8.06814e-06
-0.000142147
-1.01191e-05
-0.00013822
-1.17881e-05
-0.000133679
-1.36335e-05
-0.000128406
-1.58132e-05
-0.000122555
-1.75487e-05
-0.000116007
-1.96574e-05
-0.000108746
-2.17687e-05
-0.000100894
-2.35539e-05
-9.22922e-05
-2.58112e-05
-8.30296e-05
-2.77652e-05
-7.31647e-05
-2.95777e-05
-6.25766e-05
-3.18009e-05
-5.14183e-05
-3.34255e-05
-3.9562e-05
-3.55659e-05
-2.71734e-05
-3.71755e-05
-1.43122e-05
-3.85625e-05
-9.37713e-07
-4.01101e-05
1.2838e-05
-4.13199e-05
2.691e-05
-4.22102e-05
4.12874e-05
-4.3115e-05
5.57395e-05
-4.33405e-05
7.02324e-05
-4.34623e-05
8.45762e-05
-4.29987e-05
9.85218e-05
-4.18006e-05
0.000112017
-4.04467e-05
0.000124854
-3.84616e-05
-3.64113e-05
9.71931e-05
7.0647e-05
7.92911e-05
7.14932e-05
6.09933e-05
7.30778e-05
4.24772e-05
7.39588e-05
2.4129e-05
7.33557e-05
5.89872e-06
7.27569e-05
-1.19077e-05
7.11336e-05
-2.91296e-05
6.88049e-05
-4.55771e-05
6.57283e-05
-6.11316e-05
6.21648e-05
-7.5781e-05
5.85514e-05
-8.94387e-05
5.46064e-05
-0.000102088
5.05781e-05
-0.000113741
4.65943e-05
-0.000124374
4.25203e-05
-0.00013403
3.86187e-05
-0.000142718
3.47592e-05
-0.000150463
3.09805e-05
-0.000157317
2.74006e-05
-0.000163287
2.38686e-05
-0.00016842
2.05143e-05
-0.000172752
1.73651e-05
-0.000176311
1.42412e-05
-0.00017913
1.12714e-05
-0.000181242
8.45004e-06
-0.000182634
5.59109e-06
-0.000183342
2.9422e-06
-0.000183353
1.43839e-07
-0.000182619
-2.89901e-06
-0.000181227
-5.55303e-06
-0.00017918
-8.23325e-06
-0.000176262
-1.1651e-05
-0.000172678
-1.43582e-05
-0.00016824
-1.77936e-05
-0.000162998
-2.0965e-05
-0.000157019
-2.39311e-05
-0.00015005
-2.7928e-05
-0.00014216
-3.15376e-05
-0.000133499
-3.46518e-05
-0.000123717
-3.91643e-05
-0.000113002
-4.28372e-05
-0.000101235
-4.70544e-05
-8.84269e-05
-5.13588e-05
-7.47716e-05
-5.44784e-05
-6.01341e-05
-5.86236e-05
-4.43728e-05
-6.29439e-05
-2.80865e-05
-6.50666e-05
-1.09286e-05
-6.86192e-05
6.99845e-06
-7.15775e-05
2.5239e-05
-7.28932e-05
4.38896e-05
-7.45049e-05
6.2579e-05
-7.46557e-05
8.12601e-05
-7.45949e-05
9.973e-05
-7.37332e-05
0.000117515
-7.10473e-05
0.000134534
-6.79099e-05
0.000150652
-6.43848e-05
0.000165339
-5.86588e-05
0.000178671
-5.32249e-05
0.000190277
-4.63328e-05
0.000200067
-3.90456e-05
0.000207885
-3.12048e-05
0.000213467
-2.22661e-05
0.000216835
-1.33923e-05
0.00021788
-4.1508e-06
0.000216479
5.5561e-06
0.000212808
1.47389e-05
0.000206796
2.4023e-05
0.000198592
3.27627e-05
0.000188322
4.10516e-05
0.000176133
4.86271e-05
0.000162212
5.55731e-05
0.000146741
6.17178e-05
0.00013005
6.66089e-05
0.000112375
7.04954e-05
9.39168e-05
7.37423e-05
7.50342e-05
7.54072e-05
5.57707e-05
7.68603e-05
3.66444e-05
7.64327e-05
1.76435e-05
7.5853e-05
-1.06449e-06
7.47601e-05
-1.92209e-05
7.25635e-05
-3.6722e-05
6.9889e-05
-5.34639e-05
6.69128e-05
-6.93211e-05
6.33996e-05
-8.42485e-05
5.96189e-05
-9.81913e-05
5.56585e-05
-0.000111078
5.16003e-05
-0.000122895
4.72331e-05
-0.000133613
4.28626e-05
-0.00014325
3.85215e-05
-0.000151803
3.41444e-05
-0.000159295
2.9895e-05
-0.000165744
2.58825e-05
-0.000171174
2.17115e-05
-0.000175625
1.78493e-05
-0.000179175
1.42118e-05
-0.000181863
1.07803e-05
-0.000183743
7.54921e-06
-0.000184837
4.37901e-06
-0.000185266