/*--------------------------------*- C++ -*----------------------------------*\
| =========                 |                                                 |
| \\      /  F ield         | OpenFOAM: The Open Source CFD Toolbox           |
|  \\    /   O peration     | Version:  3.0.1                                 |
|   \\  /    A nd           | Web:      www.OpenFOAM.org                      |
|    \\/     M anipulation  |                                                 |
\*---------------------------------------------------------------------------*/
FoamFile
{
    version     2.0;
    format      ascii;
    class       volVectorField;
    location    "61.4";
    object      U;
}
// * * * * * * * * * * * * * * * * * * * * * * * * * * * * * * * * * * * * * //

dimensions      [0 1 -1 0 0 0 0];

internalField   nonuniform List<vector> 
21420
(
(-0.122971 -0.000711798 0)
(-0.116314 -0.000801506 0)
(-0.107794 -0.00088914 0)
(-0.0983617 -0.000978386 0)
(-0.0879852 -0.00107829 0)
(-0.0766473 -0.0011706 0)
(-0.0643348 -0.00127537 0)
(-0.0510464 -0.00136659 0)
(-0.0367999 -0.00145357 0)
(-0.0215732 -0.00155656 0)
(-0.00549906 -0.00163349 0)
(0.0112961 -0.00169745 0)
(0.0288431 -0.00178021 0)
(0.0469899 -0.00181947 0)
(0.0655743 -0.00187573 0)
(0.084422 -0.0018796 0)
(0.103321 -0.00185996 0)
(0.122046 -0.00185401 0)
(0.14036 -0.00178768 0)
(0.157995 -0.00169479 0)
(0.174677 -0.0016058 0)
(0.190146 -0.00146309 0)
(0.204133 -0.0012972 0)
(0.216383 -0.00112297 0)
(0.226674 -0.000915124 0)
(0.234811 -0.000694735 0)
(0.240632 -0.000456825 0)
(0.244057 -0.000210985 0)
(0.244963 3.65354e-05 0)
(0.243415 0.000285829 0)
(0.239202 0.000541916 0)
(0.232613 0.000769415 0)
(0.223715 0.000997423 0)
(0.212671 0.00118579 0)
(0.199697 0.00137279 0)
(0.185004 0.00154316 0)
(0.168841 0.00165329 0)
(0.151495 0.00176684 0)
(0.133223 0.00185749 0)
(0.114288 0.00188559 0)
(0.0949399 0.00192069 0)
(0.075416 0.00190332 0)
(0.0559879 0.00189399 0)
(0.0368433 0.0018572 0)
(0.0180158 0.00178485 0)
(0.000452986 0.00173244 0)
(-0.0160352 0.0016552 0)
(-0.032137 0.00155857 0)
(-0.0473616 0.00146874 0)
(-0.0616371 0.00137266 0)
(-0.074919 0.00126776 0)
(-0.0871948 0.00116897 0)
(-0.0984682 0.00106599 0)
(-0.108752 0.000969482 0)
(-0.118063 0.000873628 0)
(-0.126432 0.000779479 0)
(-0.133897 0.000691686 0)
(-0.140478 0.000603359 0)
(-0.146207 0.000520314 0)
(-0.151124 0.000439755 0)
(-0.155252 0.000361855 0)
(-0.158643 0.000287433 0)
(-0.161261 0.000214069 0)
(-0.163102 0.000139937 0)
(-0.164213 7.49777e-05 0)
(-0.164625 1.76027e-06 0)
(-0.164248 -7.72302e-05 0)
(-0.163188 -0.000145533 0)
(-0.161373 -0.000233454 0)
(-0.158739 -0.000303033 0)
(-0.155377 -0.000377837 0)
(-0.151217 -0.000463439 0)
(-0.146151 -0.000539727 0)
(-0.14035 -0.000613922 0)
(-0.133745 -0.000707281 0)
(-0.126294 -0.000784911 0)
(-0.118057 -0.000879649 0)
(-0.108877 -0.000968412 0)
(-0.0988023 -0.00104477 0)
(-0.0878472 -0.00112394 0)
(-0.0761112 -0.00121433 0)
(-0.063624 -0.00129788 0)
(-0.0502041 -0.00136265 0)
(-0.0359881 -0.00144853 0)
(-0.0211669 -0.00152922 0)
(-0.0053586 -0.0015846 0)
(0.011149 -0.00165505 0)
(0.0280909 -0.00171432 0)
(0.045549 -0.00175237 0)
(0.0633637 -0.00178449 0)
(0.0813741 -0.00179097 0)
(0.0993385 -0.00177815 0)
(0.117039 -0.00173703 0)
(0.134212 -0.00167058 0)
(0.150631 -0.00158065 0)
(0.166026 -0.0014683 0)
(0.180134 -0.00133209 0)
(0.192745 -0.00117755 0)
(0.203672 -0.00099317 0)
(0.212697 -0.000793023 0)
(0.21966 -0.000582242 0)
(0.224417 -0.000355297 0)
(0.226825 -0.000129255 0)
(0.226908 0.000107893 0)
(0.224529 0.000356104 0)
(0.219659 0.000601132 0)
(0.212481 0.000825254 0)
(0.203053 0.00104105 0)
(0.19152 0.00124271 0)
(0.178058 0.00142643 0)
(0.16289 0.00158569 0)
(0.14628 0.00171121 0)
(0.128472 0.00181415 0)
(0.109765 0.00189559 0)
(0.0904232 0.00193742 0)
(0.0707607 0.00196491 0)
(0.0510439 0.00195358 0)
(0.0314896 0.00192091 0)
(0.0123539 0.00187634 0)
(-0.00619632 0.00180608 0)
(-0.0240004 0.00172607 0)
(-0.0409121 0.00163095 0)
(-0.0568355 0.00152974 0)
(-0.0717094 0.00142483 0)
(-0.0854974 0.0013114 0)
(-0.098156 0.00120364 0)
(-0.109684 0.00108589 0)
(-0.120102 0.000978655 0)
(-0.129402 0.000873794 0)
(-0.137656 0.000761957 0)
(-0.144889 0.000661181 0)
(-0.151096 0.000576327 0)
(-0.156388 0.000478976 0)
(-0.160817 0.000398842 0)
(-0.164385 0.000310404 0)
(-0.16717 0.000234119 0)
(-0.169192 0.000169788 0)
(-0.170484 9.35522e-05 0)
(-0.171141 3.69498e-05 0)
(-0.171157 -2.9191e-05 0)
(-0.170577 -8.07519e-05 0)
(-0.169439 -0.00014589 0)
(-0.167743 -0.000187092 0)
(-0.165578 -0.000249519 0)
(-0.162827 -0.000297277 0)
(-0.159508 -0.000352171 0)
(-0.155648 -0.000408531 0)
(-0.151217 -0.000468526 0)
(-0.146191 -0.000527418 0)
(-0.140532 -0.000594805 0)
(-0.134208 -0.00067108 0)
(-0.127128 -0.000727874 0)
(-0.119317 -0.000811705 0)
(-0.110732 -0.00088237 0)
(-0.101384 -0.000968196 0)
(-0.0912101 -0.00104857 0)
(-0.0802081 -0.00114066 0)
(-0.0683171 -0.00121113 0)
(-0.0555859 -0.00130533 0)
(-0.0420193 -0.00138786 0)
(-0.0276286 -0.00146208 0)
(-0.0125251 -0.00153324 0)
(0.0032293 -0.0015835 0)
(0.0195426 -0.00163559 0)
(0.036233 -0.00167306 0)
(0.0531912 -0.00169381 0)
(0.0702634 -0.00168652 0)
(0.0871872 -0.00166131 0)
(0.103734 -0.00161902 0)
(0.119717 -0.00154609 0)
(0.134831 -0.00144787 0)
(0.148822 -0.00132689 0)
(0.161463 -0.00117166 0)
(0.172464 -0.000999752 0)
(0.181584 -0.000807158 0)
(0.188652 -0.000590545 0)
(0.193451 -0.000359669 0)
(0.195826 -0.000119118 0)
(0.195784 0.000123993 0)
(0.193224 0.000376654 0)
(0.188185 0.00061715 0)
(0.180813 0.000846521 0)
(0.171249 0.00104701 0)
(0.159683 0.00124089 0)
(0.146344 0.00140719 0)
(0.131457 0.00154531 0)
(0.115266 0.00166205 0)
(0.0980534 0.00174609 0)
(0.0800985 0.00181185 0)
(0.0617059 0.0018389 0)
(0.0431589 0.00184103 0)
(0.0247062 0.001817 0)
(0.00660296 0.00177695 0)
(-0.0110024 0.00171432 0)
(-0.027944 0.00164459 0)
(-0.044056 0.00155905 0)
(-0.0592703 0.00146368 0)
(-0.0735281 0.00136253 0)
(-0.0867825 0.00126192 0)
(-0.0990163 0.00117211 0)
(-0.110246 0.00106139 0)
(-0.120503 0.000969593 0)
(-0.129775 0.000870905 0)
(-0.138098 0.000784291 0)
(-0.145527 0.000694784 0)
(-0.152124 0.000611375 0)
(-0.15795 0.000542571 0)
(-0.163065 0.000472287 0)
(-0.167514 0.000408456 0)
(-0.171312 0.00034875 0)
(-0.174475 0.00027798 0)
(-0.177019 0.000220046 0)
(-0.178925 0.000161936 0)
(-0.180245 0.000100198 0)
(-0.180991 5.23001e-05 0)
(-0.181174 -9.7413e-06 0)
(-0.18079 -6.25536e-05 0)
(-0.17985 -0.0001213 0)
(-0.178382 -0.00018222 0)
(-0.176285 -0.000226874 0)
(-0.1736 -0.000293023 0)
(-0.170344 -0.000353876 0)
(-0.166439 -0.000416751 0)
(-0.161914 -0.000479327 0)
(-0.156735 -0.00054377 0)
(-0.150918 -0.000619553 0)
(-0.144346 -0.000677746 0)
(-0.137056 -0.000756365 0)
(-0.129047 -0.000833027 0)
(-0.120244 -0.000907514 0)
(-0.110672 -0.000991028 0)
(-0.100302 -0.00107249 0)
(-0.0890974 -0.00114741 0)
(-0.0770612 -0.00122748 0)
(-0.0643316 -0.00130543 0)
(-0.0508131 -0.0013719 0)
(-0.0365979 -0.00143991 0)
(-0.0217787 -0.00150049 0)
(-0.0063718 -0.00154834 0)
(0.00947993 -0.00158655 0)
(0.0256673 -0.0016137 0)
(0.0420406 -0.0016277 0)
(0.058433 -0.00162091 0)
(0.074656 -0.00159313 0)
(0.0904607 -0.00154172 0)
(0.105623 -0.00146826 0)
(0.119917 -0.00136409 0)
(0.133068 -0.00123449 0)
(0.144794 -0.0010873 0)
(0.154904 -0.000918077 0)
(0.163168 -0.000716591 0)
(0.169353 -0.000508018 0)
(0.173326 -0.000278988 0)
(0.174916 -4.20493e-05 0)
(0.17413 0.000199844 0)
(0.170795 0.000452191 0)
(0.165061 0.000684555 0)
(0.157012 0.00091151 0)
(0.14678 0.00111526 0)
(0.134593 0.00129465 0)
(0.120699 0.00145578 0)
(0.105391 0.0015826 0)
(0.0889634 0.00168008 0)
(0.0716847 0.00174606 0)
(0.0538948 0.00179248 0)
(0.0358617 0.00179851 0)
(0.0177962 0.0017855 0)
(2.07221e-05 0.00175405 0)
(-0.0172675 0.00169317 0)
(-0.0340082 0.00162949 0)
(-0.0499321 0.00154721 0)
(-0.0649409 0.00144719 0)
(-0.0790078 0.00134923 0)
(-0.0920101 0.00123508 0)
(-0.103903 0.00112886 0)
(-0.114579 0.00101603 0)
(-0.124105 0.000890527 0)
(-0.132489 0.000781434 0)
(-0.139608 0.000659606 0)
(-0.14558 0.000554176 0)
(-0.150524 0.000449294 0)
(-0.154511 0.000359212 0)
(-0.157692 0.000281257 0)
(-0.160196 0.000209128 0)
(-0.162175 0.000152365 0)
(-0.163741 0.000111493 0)
(-0.16483 6.50297e-05 0)
(-0.165483 2.17036e-05 0)
(-0.165752 -8.10974e-06 0)
(-0.165553 -4.99852e-05 0)
(-0.164988 -7.41573e-05 0)
(-0.16409 -0.000106808 0)
(-0.162776 -0.000144098 0)
(-0.161156 -0.000172531 0)
(-0.159237 -0.000205723 0)
(-0.156862 -0.000252622 0)
(-0.1541 -0.000288999 0)
(-0.15093 -0.00033371 0)
(-0.147221 -0.000390901 0)
(-0.142975 -0.000444684 0)
(-0.138087 -0.000518879 0)
(-0.132509 -0.000585109 0)
(-0.12618 -0.000663131 0)
(-0.118941 -0.00076202 0)
(-0.110749 -0.000853061 0)
(-0.101621 -0.000949722 0)
(-0.0914009 -0.00106943 0)
(-0.0800546 -0.00116924 0)
(-0.0675813 -0.00129259 0)
(-0.0539434 -0.00138612 0)
(-0.0393974 -0.00147674 0)
(-0.0239132 -0.00158613 0)
(-0.00763162 -0.00164914 0)
(0.00915804 -0.00169325 0)
(0.0265071 -0.0017545 0)
(0.0442247 -0.00176133 0)
(0.0620313 -0.00177692 0)
(0.0796957 -0.00173845 0)
(0.096932 -0.00167232 0)
(0.113476 -0.00160703 0)
(0.129093 -0.00149454 0)
(0.143523 -0.00135872 0)
(0.156526 -0.0012152 0)
(0.167901 -0.00104024 0)
(0.17747 -0.000855864 0)
(0.185078 -0.000652509 0)
(0.190621 -0.000439055 0)
(0.194026 -0.000225412 0)
(0.195233 -1.08606e-05 0)
(0.194312 0.000202819 0)
(0.191148 0.000411832 0)
(0.185966 0.000610806 0)
(0.178876 0.000798062 0)
(0.170037 0.000954638 0)
(0.159637 0.00110579 0)
(0.147877 0.00121905 0)
(0.134968 0.00132946 0)
(0.12111 0.00142174 0)
(0.106505 0.0014718 0)
(0.0913464 0.001526 0)
(0.0758065 0.00156413 0)
(0.0600411 0.00156445 0)
(0.0441897 0.00157417 0)
(0.02835 0.00155003 0)
(0.0122917 0.0015372 0)
(-0.00306914 0.00151622 0)
(-0.0176843 0.0014665 0)
(-0.0322803 0.00142699 0)
(-0.0463869 0.00137927 0)
(-0.0599261 0.00131014 0)
(-0.0728386 0.00125024 0)
(-0.0850704 0.00117266 0)
(-0.0965752 0.00110296 0)
(-0.107312 0.00102805 0)
(-0.117239 0.000941566 0)
(-0.126336 0.000860198 0)
(-0.135612 0.000775 0)
(-0.123005 -0.00213527 0)
(-0.116349 -0.00240441 0)
(-0.10783 -0.00266732 0)
(-0.098399 -0.00293507 0)
(-0.0880238 -0.00323481 0)
(-0.0766862 -0.00351177 0)
(-0.0643742 -0.00382612 0)
(-0.0510851 -0.00409983 0)
(-0.0368372 -0.00436086 0)
(-0.0216094 -0.00466998 0)
(-0.00553195 -0.00490081 0)
(0.0112674 -0.00509264 0)
(0.0288185 -0.00534113 0)
(0.0469712 -0.00545902 0)
(0.0655622 -0.00562796 0)
(0.0844178 -0.00563965 0)
(0.103325 -0.00558079 0)
(0.12206 -0.00556305 0)
(0.140385 -0.00536412 0)
(0.15803 -0.00508543 0)
(0.174724 -0.00481853 0)
(0.190202 -0.00439032 0)
(0.204198 -0.00389259 0)
(0.216459 -0.00336988 0)
(0.226757 -0.00274588 0)
(0.234901 -0.00208606 0)
(0.240728 -0.0013696 0)
(0.244158 -0.000629163 0)
(0.245068 0.000107218 0)
(0.243511 0.000856329 0)
(0.239297 0.00162586 0)
(0.232706 0.00230854 0)
(0.223802 0.00299284 0)
(0.21275 0.00355812 0)
(0.199768 0.0041192 0)
(0.185066 0.00463047 0)
(0.168893 0.00496088 0)
(0.151537 0.00530155 0)
(0.133254 0.00557352 0)
(0.114309 0.00565775 0)
(0.0949515 0.00576297 0)
(0.0754195 0.00571082 0)
(0.0559821 0.00568283 0)
(0.0368294 0.00557254 0)
(0.0179995 0.00535459 0)
(0.0004318 0.00519796 0)
(-0.0160625 0.0049661 0)
(-0.0321665 0.00467611 0)
(-0.0473935 0.00440656 0)
(-0.0616709 0.00411825 0)
(-0.0749534 0.00380354 0)
(-0.08723 0.00350715 0)
(-0.0985036 0.00319827 0)
(-0.108788 0.00290827 0)
(-0.118098 0.0026212 0)
(-0.126467 0.00233863 0)
(-0.133932 0.00207499 0)
(-0.140513 0.00181004 0)
(-0.146243 0.00156218 0)
(-0.151161 0.00132011 0)
(-0.15529 0.001087 0)
(-0.15868 0.00086373 0)
(-0.161303 0.000642376 0)
(-0.163147 0.000417311 0)
(-0.16426 0.000225263 0)
(-0.164672 6.22092e-06 0)
(-0.164299 -0.000232314 0)
(-0.16324 -0.000436603 0)
(-0.161429 -0.000700611 0)
(-0.158794 -0.000908524 0)
(-0.155434 -0.00113117 0)
(-0.151277 -0.00139152 0)
(-0.146209 -0.00161736 0)
(-0.140411 -0.00184252 0)
(-0.133804 -0.0021196 0)
(-0.126364 -0.00236343 0)
(-0.118113 -0.00263187 0)
(-0.108943 -0.00291285 0)
(-0.0988514 -0.00312943 0)
(-0.087905 -0.00337423 0)
(-0.076165 -0.00363952 0)
(-0.0636791 -0.00389465 0)
(-0.050252 -0.00409292 0)
(-0.0360339 -0.00434253 0)
(-0.0212027 -0.00458857 0)
(-0.00538636 -0.00475975 0)
(0.0111247 -0.00495921 0)
(0.0280729 -0.00514738 0)
(0.0455374 -0.00527534 0)
(0.0633739 -0.00535995 0)
(0.0813984 -0.00538077 0)
(0.0993898 -0.00532791 0)
(0.11709 -0.00521157 0)
(0.134265 -0.00502319 0)
(0.150697 -0.00475222 0)
(0.166112 -0.0044019 0)
(0.180227 -0.00399608 0)
(0.192852 -0.00352018 0)
(0.203776 -0.00297615 0)
(0.212797 -0.00238061 0)
(0.219765 -0.00174443 0)
(0.224516 -0.00108179 0)
(0.226945 -0.000381843 0)
(0.227022 0.000327661 0)
(0.224629 0.00106684 0)
(0.21976 0.00178796 0)
(0.212591 0.00247515 0)
(0.203149 0.0031294 0)
(0.1916 0.00372996 0)
(0.178128 0.00427012 0)
(0.162951 0.00475006 0)
(0.146329 0.0051412 0)
(0.128506 0.00544953 0)
(0.10978 0.00568309 0)
(0.0904245 0.00581031 0)
(0.0707388 0.00588993 0)
(0.0510023 0.00585614 0)
(0.031438 0.00576683 0)
(0.012286 0.0056379 0)
(-0.00628433 0.00542325 0)
(-0.0240981 0.00517864 0)
(-0.0410156 0.00489526 0)
(-0.0569503 0.0045899 0)
(-0.0718355 0.00427041 0)
(-0.085626 0.00393281 0)
(-0.098292 0.00361176 0)
(-0.109829 0.00325629 0)
(-0.120252 0.00293409 0)
(-0.129558 0.00261919 0)
(-0.137812 0.00229385 0)
(-0.14505 0.0019868 0)
(-0.151266 0.00173387 0)
(-0.156565 0.00143265 0)
(-0.16099 0.0011933 0)
(-0.164562 0.00093428 0)
(-0.167348 0.000697035 0)
(-0.169368 0.000515537 0)
(-0.170668 0.00028106 0)
(-0.171324 0.000112036 0)
(-0.171349 -9.53075e-05 0)
(-0.170773 -0.000247962 0)
(-0.169623 -0.000428995 0)
(-0.167941 -0.00057025 0)
(-0.165763 -0.000747563 0)
(-0.163011 -0.000887161 0)
(-0.159685 -0.00106204 0)
(-0.155827 -0.00122352 0)
(-0.151397 -0.00140646 0)
(-0.146374 -0.00158336 0)
(-0.140716 -0.00179247 0)
(-0.13437 -0.00200488 0)
(-0.127306 -0.00219942 0)
(-0.11948 -0.00242701 0)
(-0.110922 -0.00266405 0)
(-0.101546 -0.00290535 0)
(-0.0913697 -0.00314609 0)
(-0.0803529 -0.00342006 0)
(-0.068462 -0.00364657 0)
(-0.0557215 -0.00391669 0)
(-0.0421438 -0.00416312 0)
(-0.0277472 -0.00438482 0)
(-0.012634 -0.00460599 0)
(0.00312761 -0.00476094 0)
(0.0194513 -0.00491847 0)
(0.0361609 -0.00501473 0)
(0.0531287 -0.00507959 0)
(0.0702054 -0.00506701 0)
(0.0871435 -0.00500028 0)
(0.103721 -0.0048608 0)
(0.119722 -0.00463437 0)
(0.134846 -0.0043488 0)
(0.148853 -0.00398175 0)
(0.161506 -0.00352545 0)
(0.172517 -0.00301513 0)
(0.181665 -0.00242084 0)
(0.188738 -0.00177263 0)
(0.193545 -0.0010747 0)
(0.195926 -0.000357212 0)
(0.195882 0.00036758 0)
(0.19332 0.00113409 0)
(0.188277 0.00185107 0)
(0.180894 0.00252416 0)
(0.17133 0.00315208 0)
(0.159752 0.00372948 0)
(0.146399 0.00421776 0)
(0.131501 0.00463999 0)
(0.11529 0.00498326 0)
(0.0980615 0.00524329 0)
(0.0800831 0.00543321 0)
(0.0616755 0.00550742 0)
(0.0431155 0.00552551 0)
(0.0246426 0.00546032 0)
(0.00652006 0.00533234 0)
(-0.0110943 0.0051429 0)
(-0.0280472 0.00492834 0)
(-0.0441671 0.00467944 0)
(-0.0593912 0.00439249 0)
(-0.0736586 0.00409081 0)
(-0.0869204 0.0037853 0)
(-0.0991638 0.00350859 0)
(-0.11039 0.0031888 0)
(-0.120653 0.00291794 0)
(-0.12994 0.00261568 0)
(-0.13827 0.00234413 0)
(-0.145696 0.00208584 0)
(-0.152293 0.00183974 0)
(-0.158121 0.00162935 0)
(-0.163235 0.00142351 0)
(-0.167691 0.00121857 0)
(-0.17149 0.001043 0)
(-0.174654 0.000836842 0)
(-0.177197 0.000656477 0)
(-0.179101 0.00049084 0)
(-0.180427 0.00029218 0)
(-0.18117 0.000160963 0)
(-0.181361 -3.0987e-05 0)
(-0.180978 -0.000187396 0)
(-0.180035 -0.000367914 0)
(-0.178557 -0.000536713 0)
(-0.176472 -0.000692948 0)
(-0.173783 -0.00088064 0)
(-0.170523 -0.00106633 0)
(-0.166618 -0.00125487 0)
(-0.162081 -0.00143838 0)
(-0.156909 -0.00164179 0)
(-0.151075 -0.0018548 0)
(-0.144512 -0.0020343 0)
(-0.137219 -0.00227838 0)
(-0.129194 -0.00249561 0)
(-0.120396 -0.00273802 0)
(-0.110803 -0.00296511 0)
(-0.100452 -0.0032308 0)
(-0.0892265 -0.00343609 0)
(-0.0771958 -0.00368608 0)
(-0.0644479 -0.00392332 0)
(-0.0509185 -0.00411329 0)
(-0.0367013 -0.00431835 0)
(-0.0218737 -0.00450563 0)
(-0.00645706 -0.00464617 0)
(0.00939701 -0.00477425 0)
(0.0255902 -0.00486193 0)
(0.041986 -0.00488775 0)
(0.0583947 -0.00486648 0)
(0.0746332 -0.00477852 0)
(0.0904551 -0.00462211 0)
(0.105632 -0.00440146 0)
(0.119939 -0.00408972 0)
(0.133089 -0.00372096 0)
(0.144845 -0.00326686 0)
(0.154965 -0.00274202 0)
(0.163222 -0.00216306 0)
(0.16943 -0.00151932 0)
(0.173403 -0.000833298 0)
(0.174992 -0.000132223 0)
(0.174204 0.000596451 0)
(0.170863 0.00135797 0)
(0.165119 0.00205196 0)
(0.157058 0.00272906 0)
(0.146824 0.00334639 0)
(0.134629 0.00389723 0)
(0.120714 0.00436708 0)
(0.105397 0.00474689 0)
(0.0889618 0.0050354 0)
(0.0716771 0.00524235 0)
(0.0538764 0.00536882 0)
(0.0358378 0.00539453 0)
(0.0177669 0.00535691 0)
(-1.01428e-05 0.00526452 0)
(-0.0173086 0.00508865 0)
(-0.0340555 0.00488065 0)
(-0.0499802 0.00464674 0)
(-0.0649977 0.00434249 0)
(-0.079065 0.0040422 0)
(-0.0920653 0.00371095 0)
(-0.103962 0.00338756 0)
(-0.114638 0.00304898 0)
(-0.124167 0.00267737 0)
(-0.132555 0.00233882 0)
(-0.139667 0.00197872 0)
(-0.145641 0.00166555 0)
(-0.150584 0.0013485 0)
(-0.154563 0.0010785 0)
(-0.15774 0.000846599 0)
(-0.160241 0.000626503 0)
(-0.162213 0.000457695 0)
(-0.163779 0.000333571 0)
(-0.164865 0.000194075 0)
(-0.165515 6.47085e-05 0)
(-0.165783 -2.5706e-05 0)
(-0.165581 -0.000148934 0)
(-0.165015 -0.000222095 0)
(-0.164117 -0.000319729 0)
(-0.162803 -0.000432071 0)
(-0.161183 -0.000517198 0)
(-0.159265 -0.000617233 0)
(-0.156891 -0.000757526 0)
(-0.15413 -0.000865976 0)
(-0.150961 -0.000999455 0)
(-0.147255 -0.00117303 0)
(-0.143011 -0.00133368 0)
(-0.138126 -0.00155639 0)
(-0.132551 -0.00175575 0)
(-0.126225 -0.00198888 0)
(-0.118989 -0.00228571 0)
(-0.110799 -0.00255786 0)
(-0.101673 -0.00284941 0)
(-0.0914542 -0.00320796 0)
(-0.0801077 -0.00350756 0)
(-0.067633 -0.00387767 0)
(-0.0539933 -0.00415879 0)
(-0.0394449 -0.00443101 0)
(-0.0239547 -0.00475871 0)
(-0.00766594 -0.00494777 0)
(0.00913033 -0.00508037 0)
(0.0264878 -0.00526435 0)
(0.0442145 -0.00528493 0)
(0.0620317 -0.0053318 0)
(0.0797065 -0.00521638 0)
(0.096953 -0.00501808 0)
(0.113509 -0.00482224 0)
(0.129136 -0.00448453 0)
(0.143575 -0.00407734 0)
(0.156588 -0.00364657 0)
(0.16797 -0.00312147 0)
(0.177546 -0.00256802 0)
(0.185159 -0.00195769 0)
(0.190703 -0.00132118 0)
(0.194114 -0.000673517 0)
(0.195323 -3.18573e-05 0)
(0.194395 0.000608802 0)
(0.191227 0.00123579 0)
(0.186042 0.00183285 0)
(0.178947 0.00239479 0)
(0.1701 0.00286458 0)
(0.159693 0.00331812 0)
(0.147924 0.00365788 0)
(0.135007 0.00398919 0)
(0.121141 0.00426598 0)
(0.106528 0.0044161 0)
(0.0913629 0.00457866 0)
(0.0758167 0.00469301 0)
(0.0600456 0.00469389 0)
(0.0441892 0.00472298 0)
(0.0283451 0.00465049 0)
(0.0122831 0.00461219 0)
(-0.00308138 0.0045488 0)
(-0.0176998 0.00439982 0)
(-0.0322992 0.00428126 0)
(-0.0464087 0.00413807 0)
(-0.05995 0.00393064 0)
(-0.0728648 0.00375093 0)
(-0.0850982 0.00351815 0)
(-0.0966049 0.00330903 0)
(-0.107343 0.00308428 0)
(-0.117271 0.00282481 0)
(-0.12637 0.00258069 0)
(-0.135647 0.00232507 0)
(-0.123072 -0.00355834 0)
(-0.116419 -0.00400695 0)
(-0.107902 -0.00444517 0)
(-0.0984727 -0.00489151 0)
(-0.0880999 -0.00539116 0)
(-0.0767626 -0.00585288 0)
(-0.0644516 -0.00637699 0)
(-0.0511608 -0.00683333 0)
(-0.0369101 -0.00726858 0)
(-0.0216798 -0.00778394 0)
(-0.00559556 -0.00816912 0)
(0.0112124 -0.00848917 0)
(0.0287717 -0.00890376 0)
(0.0469367 -0.00910051 0)
(0.0655413 -0.00938249 0)
(0.0844132 -0.00940222 0)
(0.103338 -0.00930435 0)
(0.122093 -0.00927515 0)
(0.140438 -0.00894369 0)
(0.158102 -0.00847921 0)
(0.17482 -0.00803448 0)
(0.190319 -0.00732058 0)
(0.204333 -0.00649075 0)
(0.216614 -0.00561928 0)
(0.226926 -0.00457915 0)
(0.235085 -0.00347814 0)
(0.240919 -0.0022838 0)
(0.244357 -0.00105298 0)
(0.245285 0.000181753 0)
(0.243694 0.0014313 0)
(0.239486 0.00271074 0)
(0.232886 0.00384915 0)
(0.223971 0.00499035 0)
(0.2129 0.00593302 0)
(0.199902 0.0068684 0)
(0.185181 0.00772098 0)
(0.168985 0.00827173 0)
(0.151608 0.00883949 0)
(0.133304 0.00929272 0)
(0.114337 0.00943288 0)
(0.0949605 0.00960797 0)
(0.075412 0.00952069 0)
(0.0559559 0.00947389 0)
(0.0367866 0.00929043 0)
(0.0179522 0.00892407 0)
(0.000374978 0.00866568 0)
(-0.0161312 0.00827788 0)
(-0.0322392 0.00779432 0)
(-0.0474705 0.00734479 0)
(-0.0617506 0.00686399 0)
(-0.0750334 0.00633943 0)
(-0.0873103 0.00584512 0)
(-0.0985824 0.00533037 0)
(-0.108864 0.00484724 0)
(-0.118173 0.00436854 0)
(-0.126539 0.00389793 0)
(-0.134002 0.00345866 0)
(-0.14058 0.00301773 0)
(-0.146307 0.00260509 0)
(-0.151223 0.00219924 0)
(-0.155351 0.00181219 0)
(-0.15874 0.00143904 0)
(-0.161359 0.0010726 0)
(-0.163204 0.000696564 0)
(-0.164321 0.000373997 0)
(-0.164729 1.05705e-05 0)
(-0.164357 -0.000387518 0)
(-0.1633 -0.000728021 0)
(-0.161492 -0.0011683 0)
(-0.158854 -0.00151235 0)
(-0.155499 -0.00188811 0)
(-0.15134 -0.00231818 0)
(-0.146274 -0.00269475 0)
(-0.140477 -0.00307165 0)
(-0.133877 -0.00353393 0)
(-0.126432 -0.00393388 0)
(-0.118192 -0.00439615 0)
(-0.109013 -0.00484764 0)
(-0.0989171 -0.0052154 0)
(-0.0879798 -0.00562746 0)
(-0.0762435 -0.00607025 0)
(-0.0637507 -0.00649511 0)
(-0.0503158 -0.0068142 0)
(-0.0361139 -0.00724719 0)
(-0.0212633 -0.00764414 0)
(-0.00544199 -0.00793671 0)
(0.0110603 -0.0082765 0)
(0.0280207 -0.00858375 0)
(0.0455034 -0.00878464 0)
(0.0633471 -0.00893514 0)
(0.081386 -0.00896871 0)
(0.0993875 -0.00888603 0)
(0.117099 -0.00869046 0)
(0.134291 -0.00836815 0)
(0.150736 -0.00791858 0)
(0.166155 -0.00734386 0)
(0.180282 -0.00666246 0)
(0.19292 -0.0058699 0)
(0.203848 -0.00496154 0)
(0.21287 -0.00397112 0)
(0.219838 -0.00291673 0)
(0.2246 -0.00179616 0)
(0.227028 -0.000639872 0)
(0.227095 0.000548737 0)
(0.224689 0.00177784 0)
(0.219843 0.00299123 0)
(0.212659 0.00413147 0)
(0.203194 0.00521075 0)
(0.191629 0.00621527 0)
(0.178149 0.0071279 0)
(0.162952 0.00792768 0)
(0.146299 0.00856645 0)
(0.128455 0.00908408 0)
(0.109699 0.00947748 0)
(0.0903258 0.00969695 0)
(0.0706179 0.00982454 0)
(0.050852 0.00976885 0)
(0.0312699 0.00961972 0)
(0.0120929 0.00939202 0)
(-0.00649223 0.0090396 0)
(-0.0243143 0.00863042 0)
(-0.0412345 0.00815848 0)
(-0.0571683 0.00765327 0)
(-0.0720606 0.00712364 0)
(-0.0858534 0.00655597 0)
(-0.0985307 0.00602516 0)
(-0.110069 0.0054307 0)
(-0.120488 0.00489719 0)
(-0.1298 0.00436435 0)
(-0.138054 0.00381908 0)
(-0.145282 0.00332198 0)
(-0.15151 0.00288105 0)
(-0.156803 0.00238724 0)
(-0.161217 0.00198557 0)
(-0.164786 0.00156683 0)
(-0.167564 0.00117293 0)
(-0.169593 0.000845452 0)
(-0.170896 0.000474501 0)
(-0.171551 0.000184927 0)
(-0.171574 -0.000149629 0)
(-0.170996 -0.00041593 0)
(-0.169848 -0.00071367 0)
(-0.16816 -0.000954988 0)
(-0.165984 -0.00124664 0)
(-0.163226 -0.00147955 0)
(-0.159892 -0.00176715 0)
(-0.15604 -0.00204682 0)
(-0.151607 -0.00233504 0)
(-0.146596 -0.00265008 0)
(-0.140927 -0.00297803 0)
(-0.134587 -0.00334126 0)
(-0.127524 -0.00366001 0)
(-0.119722 -0.00405106 0)
(-0.111159 -0.00443642 0)
(-0.101781 -0.00484179 0)
(-0.0915989 -0.00524781 0)
(-0.0805701 -0.00569518 0)
(-0.068675 -0.00608208 0)
(-0.0559394 -0.00652576 0)
(-0.0423669 -0.00694697 0)
(-0.027963 -0.00731613 0)
(-0.0128331 -0.00767175 0)
(0.00294367 -0.0079386 0)
(0.01928 -0.00819763 0)
(0.0359928 -0.00836746 0)
(0.0529687 -0.00847435 0)
(0.0700669 -0.00843894 0)
(0.0870222 -0.00833292 0)
(0.103626 -0.00810625 0)
(0.119651 -0.00772766 0)
(0.134793 -0.00725513 0)
(0.148824 -0.00664536 0)
(0.161497 -0.00587381 0)
(0.172532 -0.00502199 0)
(0.181703 -0.00403931 0)
(0.188791 -0.0029591 0)
(0.193601 -0.00179475 0)
(0.195991 -0.00059491 0)
(0.195943 0.000608801 0)
(0.19337 0.0018924 0)
(0.188335 0.00308237 0)
(0.180947 0.00422369 0)
(0.171353 0.00525103 0)
(0.159758 0.00620801 0)
(0.146387 0.00704124 0)
(0.131469 0.00773526 0)
(0.11524 0.00831507 0)
(0.097984 0.00874528 0)
(0.0799861 0.00905536 0)
(0.0615654 0.00919608 0)
(0.0429764 0.00921503 0)
(0.0244801 0.00910399 0)
(0.00633621 0.00888702 0)
(-0.0112886 0.00857154 0)
(-0.0282508 0.00821857 0)
(-0.0443874 0.00780948 0)
(-0.0596226 0.00732038 0)
(-0.0738908 0.00682302 0)
(-0.0871499 0.00631462 0)
(-0.0993928 0.00584107 0)
(-0.110616 0.00532233 0)
(-0.120881 0.00485668 0)
(-0.130168 0.00436522 0)
(-0.138497 0.00391064 0)
(-0.145928 0.00347514 0)
(-0.15252 0.00306515 0)
(-0.158348 0.00271511 0)
(-0.163463 0.00237011 0)
(-0.167903 0.00203597 0)
(-0.171703 0.00174027 0)
(-0.174872 0.00138688 0)
(-0.177402 0.00109619 0)
(-0.179306 0.000817234 0)
(-0.18063 0.000496759 0)
(-0.181385 0.00026491 0)
(-0.181583 -5.77793e-05 0)
(-0.181191 -0.000309319 0)
(-0.180237 -0.00060641 0)
(-0.178768 -0.000895386 0)
(-0.17668 -0.00115803 0)
(-0.174005 -0.00147288 0)
(-0.170736 -0.00177094 0)
(-0.166834 -0.00209874 0)
(-0.162295 -0.00239526 0)
(-0.15712 -0.00273771 0)
(-0.151285 -0.00308449 0)
(-0.144731 -0.00340103 0)
(-0.137437 -0.00379031 0)
(-0.129408 -0.00417226 0)
(-0.120596 -0.00454767 0)
(-0.111015 -0.00495061 0)
(-0.100656 -0.0053724 0)
(-0.0894416 -0.00573354 0)
(-0.0774147 -0.00614945 0)
(-0.0646508 -0.00653967 0)
(-0.0511187 -0.0068534 0)
(-0.0369046 -0.0072066 0)
(-0.0220648 -0.00751257 0)
(-0.00663848 -0.00774493 0)
(0.00922203 -0.00795315 0)
(0.0254277 -0.00809238 0)
(0.0418344 -0.00814768 0)
(0.0582611 -0.00811536 0)
(0.0745247 -0.00796619 0)
(0.0903641 -0.00771147 0)
(0.105564 -0.00734304 0)
(0.119892 -0.00682796 0)
(0.13307 -0.00619618 0)
(0.144841 -0.00544338 0)
(0.154969 -0.00458247 0)
(0.163246 -0.00359993 0)
(0.169463 -0.00253683 0)
(0.173442 -0.00139871 0)
(0.175052 -0.000213849 0)
(0.174253 0.000998375 0)
(0.170906 0.00226061 0)
(0.165164 0.00342644 0)
(0.157091 0.00455384 0)
(0.146842 0.00557978 0)
(0.134634 0.00649304 0)
(0.120709 0.00728073 0)
(0.105381 0.0079159 0)
(0.088933 0.00839897 0)
(0.0716376 0.00873665 0)
(0.0538297 0.0089521 0)
(0.0357785 0.00899942 0)
(0.0176995 0.00892917 0)
(-8.91434e-05 0.00877603 0)
(-0.0173979 0.00848062 0)
(-0.0341388 0.00814131 0)
(-0.050072 0.00774285 0)
(-0.0650958 0.0072381 0)
(-0.0791619 0.00674202 0)
(-0.0921641 0.00618391 0)
(-0.104055 0.00564515 0)
(-0.11474 0.00508524 0)
(-0.124268 0.0044573 0)
(-0.132654 0.00390285 0)
(-0.139759 0.00330185 0)
(-0.145736 0.00277591 0)
(-0.150671 0.00224874 0)
(-0.154638 0.00179684 0)
(-0.157809 0.00141058 0)
(-0.160299 0.00104327 0)
(-0.162262 0.000757942 0)
(-0.163818 0.000552969 0)
(-0.164905 0.000322371 0)
(-0.165548 0.00010657 0)
(-0.165812 -4.2146e-05 0)
(-0.16561 -0.000249185 0)
(-0.165041 -0.000370249 0)
(-0.164142 -0.000533015 0)
(-0.16283 -0.000720056 0)
(-0.161211 -0.000862029 0)
(-0.159295 -0.00102963 0)
(-0.156924 -0.00125836 0)
(-0.154164 -0.0014398 0)
(-0.150999 -0.00166022 0)
(-0.147298 -0.00195617 0)
(-0.14306 -0.00222126 0)
(-0.138181 -0.00259296 0)
(-0.132613 -0.00292629 0)
(-0.126293 -0.00331394 0)
(-0.119065 -0.00380919 0)
(-0.11088 -0.00425993 0)
(-0.101757 -0.00474959 0)
(-0.0915407 -0.0053461 0)
(-0.0801943 -0.00584575 0)
(-0.0677176 -0.00646263 0)
(-0.054075 -0.00693261 0)
(-0.0395219 -0.00738721 0)
(-0.0240208 -0.00793233 0)
(-0.00771862 -0.00824785 0)
(0.00908996 -0.0084697 0)
(0.0264632 -0.00877665 0)
(0.0442072 -0.00881122 0)
(0.0620447 -0.00888965 0)
(0.0797392 -0.00869726 0)
(0.0970049 -0.00836679 0)
(0.113583 -0.00804043 0)
(0.129228 -0.00747749 0)
(0.143685 -0.00679839 0)
(0.156717 -0.00608028 0)
(0.168113 -0.00520483 0)
(0.177701 -0.00428224 0)
(0.185323 -0.00326552 0)
(0.190873 -0.00220132 0)
(0.194288 -0.00112287 0)
(0.195503 -5.23209e-05 0)
(0.194558 0.00101645 0)
(0.191383 0.0020612 0)
(0.186193 0.00305657 0)
(0.179086 0.0039936 0)
(0.170223 0.00477674 0)
(0.159801 0.00553287 0)
(0.148014 0.00609903 0)
(0.135082 0.00665139 0)
(0.1212 0.0071126 0)
(0.106571 0.00736254 0)
(0.0913926 0.00763328 0)
(0.0758341 0.0078237 0)
(0.0600518 0.00782489 0)
(0.0441853 0.00787314 0)
(0.0283327 0.00775208 0)
(0.0122635 0.0076883 0)
(-0.00310799 0.00758244 0)
(-0.017733 0.00733412 0)
(-0.0323389 0.00713635 0)
(-0.046454 0.0068976 0)
(-0.0599992 0.00655177 0)
(-0.0729186 0.0062522 0)
(-0.0851549 0.00586415 0)
(-0.0966653 0.00551554 0)
(-0.107407 0.00514091 0)
(-0.117337 0.00470838 0)
(-0.126437 0.00430144 0)
(-0.135717 0.00387534 0)
(-0.123173 -0.00498079 0)
(-0.116525 -0.00560889 0)
(-0.108011 -0.00622248 0)
(-0.0985833 -0.00684755 0)
(-0.088214 -0.00754721 0)
(-0.0768773 -0.00819386 0)
(-0.0645677 -0.00892802 0)
(-0.0512744 -0.00956721 0)
(-0.0370193 -0.010177 0)
(-0.0217856 -0.0108985 0)
(-0.00569111 -0.0114391 0)
(0.0111297 -0.0118882 0)
(0.0287015 -0.0124693 0)
(0.0468849 -0.0127453 0)
(0.0655098 -0.0131408 0)
(0.0844059 -0.013169 0)
(0.103357 -0.0130325 0)
(0.122143 -0.0129924 0)
(0.140517 -0.0125285 0)
(0.158212 -0.0118782 0)
(0.174965 -0.0112558 0)
(0.190493 -0.0102559 0)
(0.204534 -0.0090936 0)
(0.216846 -0.00787297 0)
(0.227181 -0.00641575 0)
(0.235361 -0.00487452 0)
(0.241208 -0.00320318 0)
(0.244661 -0.00147644 0)
(0.245595 0.00026065 0)
(0.243971 0.00201272 0)
(0.239774 0.00379621 0)
(0.233157 0.00539236 0)
(0.224225 0.00699128 0)
(0.213126 0.00831212 0)
(0.200102 0.00962221 0)
(0.185353 0.0108167 0)
(0.169122 0.011588 0)
(0.151714 0.0123828 0)
(0.133378 0.0130171 0)
(0.114379 0.013213 0)
(0.0949736 0.0134576 0)
(0.0754004 0.0133345 0)
(0.0559163 0.0132685 0)
(0.0367219 0.0130128 0)
(0.0178811 0.012493 0)
(0.00028977 0.0121378 0)
(-0.0162349 0.0115911 0)
(-0.0323485 0.0109137 0)
(-0.0475863 0.0102838 0)
(-0.0618702 0.00961012 0)
(-0.0751537 0.0088756 0)
(-0.0874308 0.00818311 0)
(-0.0987005 0.00746249 0)
(-0.10898 0.00678599 0)
(-0.118286 0.00611566 0)
(-0.126647 0.00545662 0)
(-0.134107 0.00484201 0)
(-0.14068 0.0042255 0)
(-0.146404 0.00364701 0)
(-0.151316 0.00307832 0)
(-0.155441 0.0025386 0)
(-0.158827 0.00201373 0)
(-0.161447 0.00150316 0)
(-0.163289 0.000975855 0)
(-0.164415 0.000520524 0)
(-0.164818 1.10406e-05 0)
(-0.164445 -0.000543644 0)
(-0.163392 -0.00102205 0)
(-0.161587 -0.0016338 0)
(-0.158946 -0.00211934 0)
(-0.155595 -0.00264062 0)
(-0.151439 -0.00324752 0)
(-0.14637 -0.00377116 0)
(-0.140586 -0.00430326 0)