/*--------------------------------*- C++ -*----------------------------------*\
| =========                 |                                                 |
| \\      /  F ield         | OpenFOAM: The Open Source CFD Toolbox           |
|  \\    /   O peration     | Version:  3.0.1                                 |
|   \\  /    A nd           | Web:      www.OpenFOAM.org                      |
|    \\/     M anipulation  |                                                 |
\*---------------------------------------------------------------------------*/
FoamFile
{
    version     2.0;
    format      ascii;
    class       surfaceScalarField;
    location    "90.8";
    object      phi;
}
// * * * * * * * * * * * * * * * * * * * * * * * * * * * * * * * * * * * * * //

dimensions      [0 3 -1 0 0 0 0];

internalField   nonuniform List<scalar> 
42423
(
0.000192738
-1.09636e-05
0.000201828
-9.08941e-06
0.000208616
-6.78827e-06
0.000212995
-4.37865e-06
0.000214854
-1.85886e-06
0.000214303
5.50336e-07
0.00021124
3.06322e-06
0.000205607
5.63266e-06
0.000197561
8.0468e-06
0.000187358
1.02022e-05
0.000175157
1.2201e-05
0.000161075
1.40822e-05
0.000145499
1.55765e-05
0.000128661
1.68375e-05
0.000110813
1.78479e-05
9.22715e-05
1.85418e-05
7.31289e-05
1.91426e-05
5.39187e-05
1.92102e-05
3.46154e-05
1.93033e-05
1.56281e-05
1.89873e-05
-3.01609e-06
1.86442e-05
-2.11234e-05
1.81073e-05
-3.8505e-05
1.73816e-05
-5.50552e-05
1.65502e-05
-7.07212e-05
1.5666e-05
-8.5416e-05
1.46948e-05
-9.91465e-05
1.37305e-05
-0.000111859
1.27129e-05
-0.000123566
1.17064e-05
-0.000134284
1.07182e-05
-0.000144022
9.7377e-06
-0.000152815
8.79294e-06
-0.000160687
7.87282e-06
-0.000167677
6.98987e-06
-0.000173825
6.14746e-06
-0.000179135
5.30991e-06
-0.000183641
4.50608e-06
-0.000187381
3.74041e-06
-0.000190353
2.97159e-06
-0.000192581
2.22797e-06
-0.000194064
1.48321e-06
-0.000194877
8.12972e-07
-0.000194946
6.86316e-08
-0.000194242
-7.03743e-07
-0.000192735
-1.50697e-06
-0.000190496
-2.23857e-06
-0.000187532
-2.96449e-06
-0.000183646
-3.88602e-06
-0.000178994
-4.65215e-06
-0.000173566
-5.42772e-06
-0.000167117
-6.44931e-06
-0.000159807
-7.30913e-06
-0.000151492
-8.31572e-06
-0.00014212
-9.37165e-06
-0.000131976
-1.01442e-05
-0.00012065
-1.13262e-05
-0.000108384
-1.22661e-05
-9.5221e-05
-1.31626e-05
-8.10534e-05
-1.41677e-05
-6.60227e-05
-1.50308e-05
-5.00934e-05
-1.59292e-05
-3.33397e-05
-1.67538e-05
-1.60568e-05
-1.72829e-05
1.74639e-06
-1.78032e-05
2.00213e-05
-1.8275e-05
3.83835e-05
-1.83622e-05
5.68515e-05
-1.84681e-05
7.50838e-05
-1.82323e-05
9.30303e-05
-1.79466e-05
0.000110404
-1.73741e-05
0.00012697
-1.65658e-05
0.000142604
-1.56339e-05
0.00015695
-1.43456e-05
0.000169877
-1.29272e-05
0.000181222
-1.13457e-05
0.000190748
-9.52599e-06
0.000198265
-7.51644e-06
0.000203699
-5.43404e-06
0.000206989
-3.28994e-06
0.000207876
-8.8688e-07
0.000206541
1.33474e-06
0.000202853
3.68759e-06
0.000197012
5.84069e-06
0.00018915
7.86223e-06
0.000179354
9.79665e-06
0.000167843
1.15105e-05
0.00015477
1.30732e-05
0.000140205
1.45644e-05
0.000124292
1.5913e-05
0.000107272
1.70206e-05
8.93048e-05
1.7967e-05
7.06371e-05
1.86678e-05
5.15854e-05
1.90516e-05
3.23935e-05
1.91919e-05
1.32934e-05
1.91001e-05
-5.44592e-06
1.87393e-05
-2.36577e-05
1.82118e-05
-4.11323e-05
1.74746e-05
-5.7727e-05
1.65947e-05
-7.33328e-05
1.56058e-05
-8.78519e-05
1.45191e-05
-0.000101271
1.34193e-05
-0.000113546
1.22743e-05
-0.000124688
1.1142e-05
-0.0001347
1.00122e-05
-0.000143606
8.90663e-06
-0.00015148
7.87357e-06
-0.000158411
6.93128e-06
-0.000164358
5.947e-06
-0.000169442
5.08378e-06
-0.000173686
4.24366e-06
-0.0001771
3.41412e-06
-0.000179724
2.62439e-06
-0.000181682
1.95786e-06
-0.000182867
1.18508e-06
-0.000183396
5.29201e-07
-0.00018321
-1.85962e-07
-0.000182359
-8.51333e-07
-0.000180828
-1.53122e-06
-0.000178636
-2.19192e-06
-0.000175779
-2.85702e-06
-0.000172266
-3.51296e-06
-0.000168056
-4.20952e-06
-0.000163217
-4.83958e-06
-0.000157627
-5.58963e-06
-0.00015129
-6.33725e-06
-0.000144356
-6.93356e-06
-0.0001366
-7.7565e-06
-0.000128064
-8.53605e-06
-0.000118792
-9.27175e-06
-0.000108657
-1.01351e-05
-9.77014e-05
-1.09557e-05
-8.58885e-05
-1.18129e-05
-7.31702e-05
-1.27183e-05
-5.97805e-05
-1.33898e-05
-4.54713e-05
-1.43092e-05
-3.0465e-05
-1.50063e-05
-1.47225e-05
-1.57426e-05
1.61176e-06
-1.63343e-05
1.84336e-05
-1.68218e-05
3.56202e-05
-1.71867e-05
5.30334e-05
-1.74132e-05
7.04655e-05
-1.74321e-05
8.77373e-05
-1.72718e-05
0.000104621
-1.68838e-05
0.000120888
-1.62673e-05
0.000136288
-1.53999e-05
0.000150552
-1.42639e-05
0.000163452
-1.28997e-05
0.000174773
-1.13218e-05
0.0001842
-9.42706e-06
0.000191627
-7.42684e-06
0.000196874
-5.24659e-06
0.000199765
-2.8917e-06
0.000200287
-5.21368e-07
0.000198431
1.85586e-06
0.000194068
4.36307e-06
0.000187367
6.70087e-06
0.000178465
8.90216e-06
0.000167491
1.09739e-05
0.000154682
1.28092e-05
0.000140266
1.4416e-05
0.000124513
1.57528e-05
0.000107632
1.68807e-05
8.99803e-05
1.76518e-05
7.17921e-05
1.81881e-05
5.33363e-05
1.84558e-05
3.48282e-05
1.8508e-05
1.64428e-05
1.83854e-05
-1.55891e-06
1.80017e-05
-1.90308e-05
1.74719e-05
-3.58481e-05
1.68172e-05
-5.18735e-05
1.60254e-05
-6.70138e-05
1.51403e-05
-8.12069e-05
1.41931e-05
-9.44275e-05
1.32206e-05
-0.000106654
1.22266e-05
-0.000117907
1.12533e-05
-0.00012825
1.03429e-05
-0.000137576
9.32572e-06
-0.000145964
8.38835e-06
-0.000153432
7.46779e-06
-0.000160022
6.59004e-06
-0.000165744
5.72178e-06
-0.000170618
4.8745e-06
-0.000174742
4.12312e-06
-0.000178101
3.35978e-06
-0.000180728
2.62692e-06
-0.000182627
1.89905e-06
-0.000183885
1.25772e-06
-0.000184565
6.80398e-07
-0.000184655
8.90659e-08
-0.00018418
-4.74793e-07
-0.000183171
-1.0086e-06
-0.000181637
-1.53405e-06
-0.000179547
-2.09005e-06
-0.000177054
-2.49303e-06
-0.000173947
-3.10709e-06
-0.000170208
-3.73942e-06
-0.000165819
-4.38827e-06
-0.000160704
-5.11572e-06
-0.000154913
-5.79096e-06
-0.000148363
-6.55008e-06
-0.000141107
-7.25565e-06
-0.000133302
-7.80472e-06
-0.000124717
-8.5856e-06
-0.000115446
-9.27029e-06
-0.000105354
-1.00925e-05
-9.43846e-05
-1.09691e-05
-8.2492e-05
-1.18926e-05
-6.96299e-05
-1.28622e-05
-5.58487e-05
-1.37812e-05
-4.12189e-05
-1.46298e-05
-2.58795e-05
-1.53395e-05
-9.984e-06
-1.58955e-05
6.33754e-06
-1.63216e-05
2.29086e-05
-1.6571e-05
3.96087e-05
-1.67001e-05
5.62671e-05
-1.66584e-05
7.27664e-05
-1.64993e-05
8.89335e-05
-1.61672e-05
0.000104565
-1.56318e-05
0.000119452
-1.48867e-05
0.000133321
-1.38692e-05
0.000145909
-1.25875e-05
0.000156932
-1.10232e-05
0.000166158
-9.22605e-06
0.000173312
-7.154e-06
0.00017832
-5.00805e-06
0.000181036
-2.71644e-06
0.000181462
-4.26017e-07
0.000179504
1.95824e-06
0.000175237
4.26704e-06
0.000168774
6.46271e-06
0.000160194
8.5803e-06
0.000149676
1.05177e-05
0.000137428
1.22479e-05
0.000123716
1.37127e-05
0.000108761
1.49544e-05
9.28601e-05
1.59011e-05
7.62649e-05
1.65951e-05
5.92187e-05
1.70462e-05
4.18387e-05
1.738e-05
2.44475e-05
1.73911e-05
7.16581e-06
1.72817e-05
-9.8077e-06
1.69735e-05
-2.63431e-05
1.65354e-05
-4.23672e-05
1.60242e-05
-5.76606e-05
1.52934e-05
-7.22305e-05
1.45699e-05
-8.59612e-05
1.37307e-05
-9.88515e-05
1.28903e-05
-0.000110829
1.19773e-05
-0.000121845
1.10162e-05
-0.000131912
1.00665e-05
-0.000141081
9.16893e-06
-0.000149438
8.35758e-06
-0.000156956
7.51838e-06
-0.000163793
6.83667e-06
-0.000170014
6.22095e-06
-0.000175602
5.58763e-06
-0.000180544
4.94257e-06
-0.000184826
4.28174e-06
-0.00018833
3.50402e-06
-0.000191027
2.6974e-06
-0.000192881
1.85359e-06
-0.000194017
1.13575e-06
-0.000194379
3.62449e-07
-0.000194007
-3.72574e-07
-0.000192999
-1.00801e-06
-0.000191472
-1.52628e-06
-0.00018939
-2.08219e-06
-0.000186833
-2.55721e-06
-0.000183795
-3.03754e-06
-0.00018014
-3.65529e-06
-0.000175875
-4.26499e-06
-0.000170902
-4.97328e-06
-0.000165089
-5.81254e-06
-0.000158403
-6.68635e-06
-0.000150614
-7.78937e-06
-0.000141904
-8.70921e-06
-0.000132132
-9.77239e-06
-0.000121476
-1.06565e-05
-0.000110009
-1.14662e-05
-9.75759e-05
-1.24336e-05
-8.43842e-05
-1.31917e-05
-7.05998e-05
-1.37844e-05
-5.59812e-05
-1.46186e-05
-4.08382e-05
-1.5143e-05
-2.50278e-05
-1.58105e-05
-8.5589e-06
-1.64689e-05
8.30877e-06
-1.68677e-05
2.57216e-05
-1.74128e-05
4.35967e-05
-1.78752e-05
6.15685e-05
-1.79718e-05
7.96248e-05
-1.80563e-05
9.75749e-05
-1.79501e-05
0.000115058
-1.74832e-05
0.000131884
-1.68257e-05
0.000147668
-1.57843e-05
0.000162272
-1.46039e-05
0.000175337
-1.30647e-05
0.000186514
-1.1177e-05
0.000195757
-9.24296e-06
0.000202776
-7.01992e-06
0.000207447
-4.67048e-06
0.000209755
-2.30788e-06
0.000209599
1.55785e-07
0.000207032
2.56729e-06
0.000202169
4.86262e-06
0.000195005
7.1639e-06
0.000185876
9.12862e-06
0.000175041
1.08359e-05
0.000162497
1.25437e-05
0.000148747
1.37497e-05
0.000133914
1.48336e-05
0.00011831
1.56038e-05
0.0001023
1.60101e-05
8.59155e-05
1.63841e-05
6.95846e-05
1.63309e-05
5.3385e-05
1.61995e-05
3.73908e-05
1.59942e-05
2.19771e-05
1.54137e-05
6.96586e-06
1.50112e-05
-7.38897e-06
1.43548e-05
-2.11893e-05
1.38003e-05
-3.43638e-05
1.31745e-05
-4.68892e-05
1.25253e-05
-5.88041e-05
1.19149e-05
-7.00922e-05
1.12881e-05
-8.07499e-05
1.06578e-05
-9.08069e-05
1.0057e-05
-0.000100245
9.43789e-06
-0.000109052
8.8068e-06
-0.000117238
8.18593e-06
-0.000124771
7.53364e-06
-0.000131659
6.88764e-06
-0.000137876
6.21721e-06
-0.000143406
5.52951e-06
-0.000148223
4.81784e-06
-0.000152314
4.09077e-06
-0.000155669
3.35466e-06
-0.000158267
2.59831e-06
-0.00016007
1.8033e-06
-0.000161092
1.02203e-06
-0.000161287
1.9438e-07
-0.000160573
-7.13395e-07
-0.000158966
-1.60701e-06
-0.000156491
-2.47501e-06
-0.000153119
-3.37288e-06
-0.000148882
-4.2361e-06
-0.000143732
-5.14999e-06
-0.000137729
-6.00308e-06
-0.00013088
-6.84895e-06
-0.0001231
-7.78006e-06
-0.00011449
-8.61003e-06
-9.43271e-06
0.000192829
-2.19402e-05
0.000201931
-1.81918e-05
0.000208729
-1.35857e-05
0.000213114
-8.76411e-06
0.000214986
-3.73033e-06
0.000214432
1.10413e-06
0.000211359
6.13578e-06
0.000205722
1.12697e-05
0.000197669
1.61001e-05
0.000187458
2.04132e-05
0.000175248
2.44107e-05
0.000161154
2.81761e-05
0.00014557
3.11614e-05
0.000128719
3.36879e-05
0.000110856
3.57113e-05
9.2303e-05
3.70945e-05
7.31463e-05
3.82993e-05
5.39267e-05
3.84298e-05
3.46104e-05
3.86195e-05
1.56181e-05
3.79796e-05
-3.03354e-06
3.72958e-05
-2.11473e-05
3.6221e-05
-3.85347e-05
3.47691e-05
-5.50899e-05
3.31054e-05
-7.07603e-05
3.13364e-05
-8.54589e-05
2.93934e-05
-9.91934e-05
2.74649e-05
-0.000111907
2.5427e-05
-0.000123615
2.34136e-05
-0.000134334
2.14374e-05
-0.000144072
1.94757e-05
-0.000152866
1.75872e-05
-0.000160741
1.57476e-05
-0.00016773
1.39792e-05
-0.000173879
1.22962e-05
-0.000179193
1.06236e-05
-0.0001837
9.01327e-06
-0.000187438
7.47855e-06
-0.00019041
5.94353e-06
-0.000192642
4.46045e-06
-0.000194135
2.97541e-06
-0.000194948
1.62618e-06
-0.000195007
1.27347e-07
-0.000194299
-1.41112e-06
-0.000192793
-3.01316e-06
-0.000190556
-4.47544e-06
-0.000187596
-5.92457e-06
-0.000183709
-7.77283e-06
-0.00017906
-9.30147e-06
-0.000173633
-1.0855e-05
-0.000167187
-1.28953e-05
-0.000159877
-1.46192e-05
-0.000151555
-1.66373e-05
-0.00014219
-1.87363e-05
-0.000132045
-2.02898e-05
-0.000120722
-2.26491e-05
-0.000108451
-2.45374e-05
-9.529e-05
-2.63235e-05
-8.11148e-05
-2.83429e-05
-6.60836e-05
-3.0062e-05
-5.01464e-05
-3.18665e-05
-3.33779e-05
-3.35223e-05
-1.60948e-05
-3.45661e-05
1.7131e-06
-3.56111e-05
1.9999e-05
-3.65609e-05
3.83686e-05
-3.67319e-05
5.68471e-05
-3.69466e-05
7.50877e-05
-3.6473e-05
9.30554e-05
-3.59143e-05
0.000110439
-3.47574e-05
0.000127018
-3.3145e-05
0.000142658
-3.12744e-05
0.000157019
-2.87057e-05
0.000169955
-2.58642e-05
0.000181313
-2.27038e-05
0.00019085
-1.90629e-05
0.000198371
-1.50368e-05
0.000203809
-1.08728e-05
0.000207099
-6.57959e-06
0.000207995
-1.78282e-06
0.000206651
2.6782e-06
0.000202967
7.37194e-06
0.000197151
1.16563e-05
0.000189261
1.57523e-05
0.000179459
1.95991e-05
0.000167947
2.30224e-05
0.000154874
2.61458e-05
0.0001403
2.91387e-05
0.000124389
3.18234e-05
0.000107383
3.40272e-05
8.94063e-05
3.59434e-05
7.0732e-05
3.7342e-05
5.16667e-05
3.8117e-05
3.24582e-05
3.84003e-05
1.33461e-05
3.82122e-05
-5.41796e-06
3.75034e-05
-2.36502e-05
3.64441e-05
-4.11406e-05
3.49649e-05
-5.77543e-05
3.32084e-05
-7.33749e-05
3.12264e-05
-8.79049e-05
2.90491e-05
-0.000101335
2.68497e-05
-0.00011362
2.45589e-05
-0.000124765
2.22869e-05
-0.000134786
2.00334e-05
-0.0001437
1.78206e-05
-0.000151569
1.57422e-05
-0.000158505
1.38676e-05
-0.000164458
1.18998e-05
-0.000169541
1.01669e-05
-0.00017378
8.48302e-06
-0.000177198
6.83209e-06
-0.000179824
5.2503e-06
-0.000181786
3.91951e-06
-0.000182973
2.3721e-06
-0.000183504
1.06014e-06
-0.000183325
-3.64774e-07
-0.000182476
-1.70012e-06
-0.00018095
-3.05784e-06
-0.00017876
-4.38143e-06
-0.000175903
-5.71463e-06
-0.0001724
-7.01531e-06
-0.000168204
-8.40549e-06
-0.000163353
-9.69054e-06
-0.00015777
-1.1173e-05
-0.000151452
-1.26556e-05
-0.000144524
-1.38607e-05
-0.000136775
-1.55058e-05
-0.000128218
-1.70931e-05
-0.000118984
-1.85056e-05
-0.000108864
-2.02552e-05
-9.79111e-05
-2.19089e-05
-8.61172e-05
-2.36068e-05
-7.34128e-05
-2.54228e-05
-6.00124e-05
-2.67902e-05
-4.57197e-05
-2.86019e-05
-3.06993e-05
-3.00267e-05
-1.49569e-05
-3.14851e-05
1.37317e-06
-3.26644e-05
1.82142e-05
-3.3663e-05
3.54122e-05
-3.43847e-05
5.28295e-05
-3.48306e-05
7.02742e-05
-3.48768e-05
8.75742e-05
-3.4572e-05
0.000104462
-3.37718e-05
0.000120758
-3.25628e-05
0.000136162
-3.08045e-05
0.00015046
-2.85619e-05
0.000163372
-2.58114e-05
0.000174691
-2.26414e-05
0.000184155
-1.88911e-05
0.000191593
-1.48649e-05
0.000196833
-1.04859e-05
0.000199754
-5.81313e-06
0.000200286
-1.05318e-06
0.000198418
3.72373e-06
0.000194074
8.70688e-06
0.000187379
1.33957e-05
0.000178494
1.77871e-05
0.0001675
2.19685e-05
0.000154681
2.56278e-05
0.000140249
2.8848e-05
0.000124469
3.1533e-05
0.000107594
3.37551e-05
8.99406e-05
3.53055e-05
7.17465e-05
3.63823e-05
5.3272e-05
3.69303e-05
3.47398e-05
3.70402e-05
1.63562e-05
3.6769e-05
-1.65207e-06
3.601e-05
-1.91375e-05
3.49574e-05
-3.59561e-05
3.36358e-05
-5.19793e-05
3.20486e-05
-6.71301e-05
3.02911e-05
-8.13234e-05
2.83865e-05
-9.45424e-05
2.64396e-05
-0.000106782
2.44662e-05
-0.000118035
2.25062e-05
-0.000128378
2.0686e-05
-0.000137709
1.86567e-05
-0.000146096
1.67754e-05
-0.000153561
1.49325e-05
-0.000160157
1.31859e-05
-0.000165885
1.145e-05
-0.000170766
9.7555e-06
-0.00017491
8.2673e-06
-0.000178262
6.71184e-06
-0.000180889
5.25375e-06
-0.000182787
3.7975e-06
-0.000184016
2.48619e-06
-0.000184722
1.38655e-06
-0.000184816
1.83163e-07
-0.000184356
-9.35226e-07
-0.000183352
-2.0121e-06
-0.00018182
-3.06622e-06
-0.000179757
-4.15325e-06
-0.000177251
-4.99927e-06
-0.000174153
-6.20512e-06
-0.00017043
-7.46201e-06
-0.000166048
-8.7708e-06
-0.000160937
-1.02262e-05
-0.000155144
-1.15838e-05
-0.000148605
-1.30894e-05
-0.000141366
-1.44947e-05
-0.000133538
-1.56331e-05
-0.000124952
-1.71713e-05
-0.000115665
-1.85573e-05
-0.000105596
-2.01613e-05
-9.46409e-05
-2.19245e-05
-8.27428e-05
-2.37907e-05
-6.98769e-05
-2.57282e-05
-5.60905e-05
-2.75676e-05
-4.14629e-05
-2.92575e-05
-2.61013e-05
-3.07011e-05
-1.0137e-05
-3.18599e-05
6.14765e-06
-3.26062e-05
2.27368e-05
-3.31602e-05
3.94564e-05
-3.34198e-05
5.61198e-05
-3.33218e-05
7.26482e-05
-3.30278e-05
8.88315e-05
-3.23505e-05
0.000104471
-3.12712e-05
0.000119375
-2.97905e-05
0.000133265
-2.77599e-05
0.000145872
-2.51946e-05
0.000156911
-2.20624e-05
0.000166145
-1.84594e-05
0.000173326
-1.43349e-05
0.000178345
-1.00273e-05
0.000181075
-5.44707e-06
0.000181495
-8.45946e-07
0.000179527
3.92663e-06
0.000175255
8.53896e-06
0.000168782
1.29353e-05
0.000160203
1.71599e-05
0.000149686
2.1034e-05
0.000137418
2.45157e-05
0.00012368
2.74511e-05
0.000108724
2.99102e-05
9.27966e-05
3.18287e-05
7.61747e-05
3.3217e-05
5.90915e-05
3.41294e-05
4.17279e-05
3.47436e-05
2.4332e-05
3.4787e-05
7.05144e-06
3.45622e-05
-9.92203e-06
3.3947e-05
-2.64556e-05
3.30689e-05
-4.24842e-05
3.20528e-05
-5.77753e-05
3.05844e-05
-7.23338e-05
2.91283e-05
-8.60878e-05
2.74846e-05
-9.89655e-05
2.57681e-05
-0.000110937
2.39489e-05
-0.000121956
2.20354e-05
-0.000132022
2.01328e-05
-0.000141179
1.83253e-05
-0.000149527
1.67059e-05
-0.000157044
1.50356e-05
-0.00016386
1.36525e-05
-0.000170089
1.24498e-05
-0.000175678
1.11764e-05
-0.000180626
9.89037e-06
-0.000184905
8.56085e-06
-0.000188411
7.01066e-06
-0.00019111
5.39576e-06
-0.000192977
3.72079e-06
-0.000194103
2.26179e-06
-0.000194454
7.13446e-07
-0.000194077
-7.49662e-07
-0.000193071
-2.01448e-06
-0.000191531
-3.066e-06
-0.000189454
-4.15888e-06
-0.000186891
-5.11984e-06
-0.000183851
-6.07756e-06
-0.000180203
-7.30357e-06
-0.000175939
-8.5291e-06
-0.000170972
-9.94017e-06
-0.000165159
-1.16254e-05
-0.000158474
-1.33717e-05
-0.000150684
-1.55795e-05
-0.000141973
-1.74206e-05
-0.000132199
-1.95459e-05
-0.000121538
-2.13174e-05
-0.000110057
-2.29478e-05
-9.76285e-05
-2.48617e-05
-8.44342e-05
-2.63861e-05
-7.06482e-05
-2.75704e-05
-5.60298e-05
-2.92371e-05
-4.08874e-05
-3.02855e-05
-2.50804e-05
-3.16175e-05
-8.59644e-06
-3.29529e-05
8.27824e-06
-3.37424e-05
2.5701e-05
-3.48356e-05
4.35874e-05
-3.57617e-05
6.15682e-05
-3.59526e-05
7.96398e-05
-3.61279e-05
9.76066e-05
-3.5917e-05
0.0001151
-3.4977e-05
0.000131942
-3.36675e-05
0.000147744
-3.1586e-05
0.000162359
-2.92195e-05
0.000175443
-2.61482e-05
0.00018663
-2.23645e-05
0.000195874
-1.84869e-05
0.000202909
-1.40548e-05
0.000207584
-9.3454e-06
0.000209884
-4.60842e-06
0.000209726
3.13645e-07
0.000207148
5.14488e-06
0.000202284
9.72713e-06
0.000195112
1.43355e-05
0.000185977
1.82641e-05
0.000175129
2.16835e-05
0.000162571
2.51016e-05
0.00014881
2.75106e-05
0.000133961
2.96824e-05
0.000118348
3.12173e-05
0.000102326
3.20319e-05
8.5929e-05
3.27809e-05
6.95898e-05
3.26701e-05
5.33772e-05
3.24121e-05
3.73812e-05
3.19902e-05
2.19646e-05
3.08303e-05
6.95524e-06
3.00205e-05
-7.40756e-06
2.87176e-05
-2.12115e-05
2.76042e-05
-3.43883e-05
2.63514e-05
-4.69165e-05
2.50535e-05
-5.8834e-05
2.38324e-05
-7.01242e-05
2.25783e-05
-8.07811e-05
2.13146e-05
-9.08383e-05
2.01142e-05
-0.000100276
1.88759e-05
-0.000109085
1.76157e-05
-0.000117274
1.63749e-05
-0.000124811
1.50704e-05
-0.000131706
1.37824e-05
-0.000137923
1.24345e-05
-0.000143448
1.10547e-05
-0.000148268
9.63739e-06
-0.000152364
8.18712e-06
-0.000155719
6.70986e-06
-0.000158315
5.19423e-06
-0.000160122
3.61041e-06
-0.000161144
2.04409e-06
-0.000161336
3.85531e-07
-0.000160618
-1.43076e-06
-0.000159013
-3.21262e-06
-0.000156537
-4.95072e-06
-0.000153162
-6.74762e-06
-0.000148924
-8.47401e-06
-0.000143772
-1.03023e-05
-0.000137767
-1.20078e-05
-0.000130917
-1.36991e-05
-0.000123135
-1.55618e-05
-0.000114524
-1.72217e-05
-1.88675e-05
0.000193011
-3.29435e-05
0.000202149
-2.73295e-05
0.000208971
-2.04083e-05
0.00021338
-1.31723e-05
0.000215267
-5.61757e-06
0.000214664
1.70662e-06
0.000211555
9.24553e-06
0.000205908
1.69164e-05
0.000197841
2.41672e-05
0.000187613
3.06409e-05
0.000175388
3.66359e-05
0.000161273
4.22909e-05
0.000145679
4.67554e-05
0.000128803
5.05633e-05
0.000110916
5.35992e-05
9.23437e-05
5.56664e-05
7.3164e-05
5.7479e-05
5.39287e-05
5.76651e-05
3.45908e-05
5.79574e-05
1.55917e-05
5.69787e-05
-3.08256e-06
5.59701e-05
-2.12094e-05
5.43479e-05
-3.86062e-05
5.21659e-05
-5.51688e-05
4.96679e-05
-7.0846e-05
4.70137e-05
-8.55489e-05
4.40962e-05
-9.92847e-05
4.12008e-05
-0.000111999
3.81412e-05
-0.000123709
3.51234e-05
-0.00013443
3.21582e-05
-0.000144165
2.9211e-05
-0.000152959
2.63809e-05
-0.000160833
2.36217e-05
-0.000167819
2.09655e-05
-0.000173968
1.84448e-05
-0.00017928
1.59363e-05
-0.00018379
1.35226e-05
-0.000187529
1.1218e-05
-0.000190501
8.91531e-06
-0.000192734
6.69338e-06
-0.00019422
4.46204e-06
-0.000195021
2.42705e-06
-0.00019507
1.75667e-07
-0.000194359
-2.12185e-06
-0.000192853
-4.51879e-06
-0.000190618
-6.71112e-06
-0.000187664
-8.87838e-06
-0.000183776
-1.16611e-05
-0.00017913
-1.39474e-05
-0.000173703
-1.62821e-05
-0.000167262
-1.93359e-05
-0.00015995
-2.19317e-05
-0.000151626
-2.49612e-05
-0.000142268
-2.80941e-05
-0.000132123
-3.04345e-05
-0.000120804
-3.39685e-05
-0.000108528
-3.68132e-05
-9.5368e-05
-3.94836e-05
-8.11887e-05
-4.25222e-05
-6.61528e-05
-4.50979e-05
-5.02106e-05
-4.78088e-05
-3.34372e-05
-5.02957e-05
-1.61417e-05
-5.18617e-05
1.67957e-06
-5.34325e-05
1.99831e-05
-5.48645e-05
3.83547e-05
-5.51036e-05
5.68474e-05
-5.54393e-05
7.5101e-05
-5.47266e-05
9.3078e-05
-5.38913e-05
0.000110481
-5.21601e-05
0.000127078
-4.97425e-05
0.000142729
-4.69256e-05
0.000157108
-4.30848e-05
0.000170069
-3.88253e-05
0.000181439
-3.40734e-05
0.000190988
-2.86125e-05
0.000198516
-2.25647e-05
0.000203965
-1.6322e-05
0.000207259
-9.87349e-06
0.000208167
-2.69048e-06
0.000206805
4.03955e-06
0.000203119
1.10582e-05
0.000197317
1.74588e-05
0.000189404
2.36644e-05
0.000179588
2.94155e-05
0.000168066
3.45447e-05
0.000154983
3.92282e-05
0.0001404
4.37217e-05
0.000124467
4.77571e-05
0.000107446
5.10484e-05
8.94528e-05
5.39362e-05
7.07556e-05
5.60393e-05
5.16612e-05
5.72113e-05
3.24157e-05
5.76458e-05
1.32634e-05
5.73644e-05
-5.5267e-06
5.62935e-05
-2.37864e-05
5.47038e-05
-4.13047e-05
5.24831e-05
-5.79307e-05
4.98345e-05
-7.35738e-05
4.68695e-05
-8.81233e-05
4.35986e-05
-0.000101568
4.02943e-05
-0.00011386
3.6851e-05
-0.000125017
3.34434e-05
-0.000135039
3.00558e-05
-0.000143923
2.67046e-05
-0.000151863
2.36819e-05
-0.000158774
2.07795e-05
-0.000164726
1.78516e-05
-0.0001698
1.52406e-05
-0.000174029
1.27123e-05
-0.000177459
1.02619e-05
-0.000180127
7.91867e-06
-0.000182037
5.82866e-06
-0.000183234
3.5693e-06
-0.000183756
1.58256e-06
-0.000183581
-5.39822e-07
-0.000182737
-2.54421e-06
-0.000181211
-4.58411e-06
-0.000179012
-6.57983e-06
-0.00017617
-8.55671e-06
-0.000172657
-1.05291e-05
-0.000168476
-1.25856e-05
-0.000163618
-1.45486e-05
-0.000158058
-1.67329e-05
-0.000151787
-1.89268e-05
-0.00014481
-2.08379e-05
-0.000137066
-2.32503e-05
-0.000128505
-2.56535e-05
-0.000119268
-2.77434e-05
-0.000109158
-3.03645e-05
-9.81909e-05
-3.28764e-05
-8.64336e-05
-3.53641e-05
-7.37947e-05
-3.80618e-05
-6.03269e-05
-4.02581e-05
-4.60367e-05
-4.28922e-05
-3.10049e-05
-4.50586e-05
-1.52659e-05
-4.72241e-05
1.08069e-06
-4.90111e-05
1.79392e-05
-5.05215e-05
3.51532e-05
-5.15988e-05
5.26219e-05
-5.22994e-05
7.0063e-05
-5.2318e-05
8.73678e-05
-5.18768e-05
0.000104283
-5.06872e-05
0.000120622
-4.89023e-05
0.000136035
-4.62173e-05
0.000150354
-4.28803e-05
0.00016328
-3.87379e-05
0.000174617
-3.39782e-05
0.000184114
-2.83886e-05
0.000191569
-2.23199e-05
0.000196823
-1.57401e-05
0.000199752
-8.74231e-06
0.000200286
-1.58727e-06
0.000198389
5.62123e-06
0.000194046
1.30493e-05
0.000187361
2.00807e-05
0.000178415
2.6733e-05
0.000167432
3.29522e-05
0.000154628
3.84313e-05
0.000140141
4.3335e-05
0.000124338
4.73364e-05
0.000107457
5.06354e-05
8.9814e-05
5.29488e-05
7.1561e-05
5.46352e-05
5.30573e-05
5.5434e-05
3.44932e-05
5.56043e-05
1.61016e-05
5.51606e-05
-1.91576e-06
5.40273e-05
-1.94147e-05
5.24563e-05
-3.6232e-05
5.04532e-05
-5.22725e-05
4.80891e-05
-6.74294e-05
4.54479e-05
-8.16215e-05
4.25785e-05
-9.48372e-05
3.96554e-05
-0.000107062
3.66906e-05
-0.000118358
3.38031e-05
-0.000128686
3.10131e-05
-0.000138011
2.79821e-05
-0.000146388
2.51525e-05
-0.00015386
2.24049e-05
-0.000160448
1.97739e-05
-0.000166152
1.71538e-05
-0.000171102
1.4705e-05
-0.000175232
1.23977e-05
-0.00017858
1.00593e-05
-0.0001812
7.87459e-06
-0.000183093
5.68992e-06
-0.000184314
3.70725e-06
-0.000185014
2.08653e-06
-0.000185096
2.65397e-07
-0.000184644
-1.38692e-06
-0.000183639
-3.01723e-06
-0.000182103
-4.60241e-06
-0.000180094
-6.16243e-06
-0.00017754
-7.55286e-06
-0.000174442
-9.30326e-06
-0.000170742
-1.11621e-05
-0.000166362
-1.31511e-05
-0.000161252
-1.53364e-05
-0.000155448
-1.73878e-05
-0.000148913
-1.96245e-05
-0.000141702
-2.1705e-05
-0.000133842
-2.34935e-05
-0.000125264
-2.57492e-05
-0.00011592
-2.79008e-05
-0.000105918
-3.01637e-05
-9.49679e-05
-3.28747e-05
-8.30602e-05
-3.56985e-05
-7.02006e-05
-3.85878e-05
-5.63841e-05
-4.13841e-05
-4.17557e-05
-4.3886e-05
-2.63811e-05
-4.60757e-05
-1.03919e-05
-4.78491e-05
5.90119e-06
-4.88993e-05
2.2515e-05
-4.97741e-05
3.92428e-05
-5.01476e-05
5.59244e-05
-5.00035e-05
7.2454e-05
-4.95574e-05
8.86581e-05
-4.85546e-05
0.000104328
-4.69407e-05
0.00011926
-4.47228e-05
0.00013318
-4.16801e-05
0.000145803
-3.78172e-05
0.000156857
-3.31169e-05
0.000166093
-2.76957e-05
0.0001733
-2.15411e-05
0.000178334
-1.50616e-05
0.000181075
-8.18831e-06
0.000181454
-1.22478e-06
0.000179498
5.88273e-06
0.00017522
1.2817e-05
0.000168731
1.94241e-05
0.000160146
2.57448e-05
0.000149632
3.15479e-05
0.000137344
3.68041e-05
0.000123549
4.12462e-05
0.000108561
4.4898e-05
9.26169e-05
4.77725e-05
7.59761e-05
4.98578e-05
5.88695e-05
5.1236e-05
4.15112e-05
5.21019e-05
2.4097e-05
5.22012e-05
6.81509e-06
5.18441e-05
-1.01634e-05
5.09255e-05
-2.67255e-05
4.9631e-05
-4.27166e-05
4.80439e-05
-5.80023e-05
4.58701e-05
-7.25318e-05
4.36579e-05
-8.63114e-05
4.12643e-05
-9.91789e-05
3.86355e-05
-0.000111149
3.59188e-05
-0.000122156
3.30429e-05
-0.000132211
3.01877e-05
-0.000141387
2.75008e-05
-0.000149692
2.50109e-05
-0.000157195
2.25391e-05
-0.000163993
2.04505e-05
-0.000170221
1.86779e-05
-0.000175804
1.67595e-05
-0.000180754
1.48398e-05
-0.000185032
1.28388e-05
-0.000188539
1.05181e-05
-0.000191224
8.08012e-06
-0.00019312
5.61708e-06
-0.000194221
3.36246e-06
-0.000194558
1.05059e-06
-0.000194173
-1.13401e-06
-0.000193168
-3.01994e-06
-0.000191599
-4.63462e-06
-0.000189527
-6.2315e-06
-0.00018696
-7.68621e-06
-0.000183917
-9.12078e-06
-0.000180274
-1.09472e-05
-0.000176012
-1.27908e-05
-0.000171057
-1.48951e-05
-0.000165245
-1.74374e-05
-0.000158563
-2.00534e-05
-0.000150775
-2.33674e-05
-0.00014206
-2.61361e-05
-0.000132282
-2.93239e-05
-0.000121615
-3.19844e-05
-0.000110106
-3.4457e-05
-9.76994e-05
-3.72682e-05
-8.45002e-05
-3.95853e-05
-7.07083e-05
-4.13624e-05
-5.60888e-05
-4.38566e-05
-4.09462e-05
-4.54282e-05
-2.51506e-05
-4.74131e-05
-8.6447e-06
-4.94589e-05
8.23765e-06
-5.06248e-05
2.56727e-05
-5.22707e-05
4.35727e-05
-5.36618e-05
6.15699e-05
-5.39499e-05
7.96626e-05
-5.42207e-05
9.764e-05
-5.38944e-05
0.000115162
-5.24993e-05
0.000132031
-5.05361e-05
0.000147854
-4.74093e-05
0.000162503
-4.3869e-05
0.000175614
-3.9259e-05
0.000186811
-3.35608e-05
0.000196067
-2.77436e-05
0.000203113
-2.11007e-05
0.000207797
-1.40292e-05
0.000210105
-6.9166e-06
0.000209928
4.90432e-07
0.000207323
7.7497e-06
0.000202453
1.45974e-05
0.000195267
2.1521e-05
0.000186126
2.74056e-05
0.000175254
3.25558e-05
0.000162673
3.76821e-05
0.000148893
4.12907e-05
0.000134018
4.45576e-05
0.000118392
4.68424e-05
0.000102348
4.80759e-05
8.59309e-05
4.91984e-05
6.95782e-05
4.90228e-05
5.33421e-05
4.86482e-05
3.73491e-05
4.79831e-05
2.19285e-05
4.62509e-05
6.93988e-06
4.50091e-05
-7.45551e-06
4.3113e-05
-2.12641e-05
4.14127e-05
-3.44423e-05
3.95296e-05
-4.6972e-05
3.75831e-05
-5.88897e-05
3.57501e-05
-7.01813e-05
3.38699e-05
-8.0841e-05
3.19743e-05
-9.08989e-05
3.01721e-05
-0.000100335
2.83118e-05
-0.000109145
2.64256e-05
-0.000117334
2.4564e-05
-0.000124869
2.26058e-05
-0.000131764
2.06772e-05
-0.00013799
1.866e-05
-0.000143516
1.6581e-05
-0.000148336
1.44578e-05
-0.000152431
1.22822e-05
-0.000155789
1.00678e-05
-0.000158389
7.79376e-06
-0.000160196
5.41768e-06
-0.000161214
3.06228e-06
-0.000161402
5.73148e-07
-0.000160683
-2.14965e-06
-0.000159078
-4.81731e-06
-0.000156603
-7.42556e-06
-0.000153229
-1.01218e-05
-0.000148991
-1.2712e-05
-0.000143839
-1.54549e-05
-0.000137834
-1.80127e-05
-0.000130983
-2.05497e-05
-0.0001232
-2.33446e-05
-0.000114588
-2.58344e-05
-2.83039e-05
0.000193278
-4.3981e-05
0.000202467
-3.65185e-05
0.000209334
-2.7275e-05
0.000213774
-1.76127e-05
0.000215677
-7.52005e-06
0.00021501
2.37353e-06
0.000211848
1.24075e-05
0.000206187
2.25774e-05
0.000198098
3.22556e-05
0.000187846
4.08935e-05
0.000175597
4.88845e-05
0.000161451
5.6437e-05
0.000145846
6.23608e-05
0.000128917
6.74923e-05
0.000111006
7.15099e-05
9.24046e-05
7.42676e-05
7.31908e-05
7.66928e-05
5.39317e-05
7.69242e-05
3.45614e-05
7.73277e-05
1.55526e-05
7.59875e-05
-3.15658e-06
7.46792e-05
-2.13027e-05
7.2494e-05
-3.87143e-05
6.95775e-05
-5.52893e-05
6.62429e-05
-7.09754e-05
6.26998e-05
-8.56853e-05
5.88061e-05
-9.94257e-05
5.49412e-05
-0.000112143
5.08584e-05
-0.000123854
4.68348e-05
-0.000134574
4.28778e-05
-0.000144309
3.89463e-05
-0.000153102
3.51735e-05
-0.000160972
3.14924e-05
-0.000167959
2.79521e-05
-0.000174105
2.45912e-05
-0.000179417
2.12483e-05
-0.000183934
1.80393e-05
-0.00018767
1.49535e-05
-0.000190643
1.18886e-05
-0.00019288
8.93083e-06
-0.000194367
5.94829e-06
-0.000195148
3.20895e-06
-0.000195171
1.97863e-07
-0.000194449
-2.84348e-06
-0.000192944
-6.02352e-06
-0.000190711
-8.94481e-06
-0.000187767
-1.18225e-05
-0.000183876
-1.5552e-05
-0.000179236
-1.85872e-05
-0.000173808
-2.17096e-05
-0.000167377
-2.57678e-05
-0.000160061
-2.92474e-05
-0.000151734
-3.32879e-05
-0.000142386
-3.7442e-05
-0.000132242
-4.05785e-05
-0.000120929
-4.52821e-05
-0.000108646
-4.90957e-05
-9.54867e-05
-5.26433e-05
-8.13007e-05
-5.67083e-05
-6.62607e-05
-6.0138e-05
-5.03156e-05
-6.37539e-05
-3.35284e-05
-6.70829e-05
-1.62178e-05
-6.91723e-05
1.62643e-06
-7.12768e-05
1.99507e-05
-7.31888e-05
3.83296e-05
-7.34826e-05
5.68417e-05
-7.39514e-05
7.51203e-05
-7.30053e-05
9.31101e-05
-7.18812e-05
0.000110542
-6.95919e-05
0.000127165
-6.63657e-05
0.000142836
-6.25971e-05
0.000157241
-5.74892e-05
0.000170237
-5.18211e-05
0.000181627
-4.54644e-05
0.000191189
-3.81745e-05
0.000198731
-3.01066e-05
0.000204193
-2.17832e-05
0.000207483
-1.31644e-05
0.000208409
-3.61623e-06
0.000207033
5.41586e-06
0.000203349
1.47423e-05
0.000197546
2.32617e-05
0.000189599
3.16106e-05
0.000179758
3.92574e-05
0.000168217
4.6085e-05
0.000155104
5.23415e-05
0.000140503
5.83229e-05
0.000124533
6.3727e-05
0.000107482
6.80992e-05
8.94579e-05
7.19602e-05
7.07226e-05
7.47747e-05
5.15678e-05
7.63661e-05
3.22836e-05
7.69301e-05
1.3067e-05
7.6581e-05
-5.76844e-06
7.5129e-05
-2.40748e-05
7.30101e-05
-4.16252e-05
7.00336e-05
-5.82824e-05
6.64917e-05
-7.39505e-05
6.25376e-05
-8.85141e-05
5.81623e-05
-0.000101971
5.37508e-05
-0.000114274
4.91543e-05
-0.000125426