/*--------------------------------*- C++ -*----------------------------------*\
| =========                 |                                                 |
| \\      /  F ield         | OpenFOAM: The Open Source CFD Toolbox           |
|  \\    /   O peration     | Version:  3.0.1                                 |
|   \\  /    A nd           | Web:      www.OpenFOAM.org                      |
|    \\/     M anipulation  |                                                 |
\*---------------------------------------------------------------------------*/
FoamFile
{
    version     2.0;
    format      ascii;
    class       volScalarField;
    location    "15.8";
    object      p_rgh;
}
// * * * * * * * * * * * * * * * * * * * * * * * * * * * * * * * * * * * * * //

dimensions      [1 -1 -2 0 0 0 0];

internalField   nonuniform List<scalar> 
21420
(
-283.347
-290.617
-296.692
-301.561
-305.254
-307.808
-309.146
-309.259
-308.121
-305.695
-301.939
-296.804
-290.24
-282.194
-272.615
-261.468
-248.702
-234.297
-218.257
-200.586
-181.303
-160.479
-138.141
-114.39
-89.6394
-57.5047
-28.0658
1.00613
29.7117
57.802
84.9769
110.938
135.251
157.552
177.444
194.601
208.754
219.687
227.004
232.038
234.19
233.265
229.289
222.415
212.913
201.036
187.157
171.759
155.418
138.673
121.979
105.69
90.0956
75.41
61.8032
49.3614
38.089
27.9132
18.6825
10.3305
2.86937
-3.52436
-7.34328
-11.0545
-14.2644
-16.9685
-19.211
-21.0489
-22.5391
-23.7364
-24.6881
-25.4378
-26.0216
-26.4724
-26.8152
-27.07
-27.25
-27.3407
-27.3459
-27.2549
-27.041
-26.6691
-26.0961
-25.2742
-24.1526
-22.6787
-20.8068
-18.4963
-15.7194
-12.4639
-8.7295
-4.52737
0.119485
5.22858
10.6151
16.275
22.1435
28.1456
34.2007
40.2261
46.1394
51.8597
57.3091
62.4151
67.1118
71.3418
75.0584
78.2273
80.8276
82.8528
84.3103
85.2209
85.6139
85.5322
85.0195
84.1228
82.8897
81.3645
79.5862
77.5873
75.3931
73.0209
70.4816
67.7796
64.9145
61.8825
58.6775
55.2918
51.7174
47.9473
43.9757
39.7998
35.4214
30.8477
26.0934
21.1811
16.1431
11.0207
5.86455
0.732566
-4.3064
-9.1846
-13.83
-18.1714
-22.1411
-25.6774
-28.7269
-31.246
-33.2027
-34.5777
-35.3601
-35.5508
-35.1654
-34.2215
-32.7472
-30.7774
-28.3528
-25.52
-22.3303
-18.838
-15.0995
-11.1713
-7.10746
-2.95831
1.22859
5.42466
9.59898
13.7318
17.8119
21.8358
25.8064
29.7314
33.6214
37.4878
41.341
45.1878
49.0302
52.8633
56.6744
60.4426
64.1384
67.7246
71.157
74.3866
77.3607
80.0255
82.3275
84.2156
85.6424
86.5657
86.9494
86.7648
85.9908
84.6173
82.6392
80.0645
76.9122
73.2134
69.0122
64.3648
59.3383
54.0086
48.4584
42.7733
37.0393
31.3391
25.7489
20.3356
15.155
10.2502
5.65136
1.3795
-2.56714
-6.18932
-9.49767
-12.5082
-15.2399
-17.712
-19.9422
-21.9449
-23.7296
-25.301
-26.6575
-27.7925
-28.6942
-29.347
-29.7328
-29.8308
-29.6205
-29.084
-28.203
-26.9632
-25.3536
-23.3671
-21.0018
-18.261
-15.1531
-11.6921
-7.89681
-3.79135
0.596512
5.23662
10.0855
15.1086
20.2664
25.5183
30.8226
36.1375
41.4212
46.6321
51.7292
56.672
61.4204
65.9349
70.1769
74.1085
77.6927
80.8939
83.6783
86.0141
87.8729
89.2294
90.0629
90.356
90.098
89.285
87.9202
86.0098
83.5672
80.6144
77.1833
73.311
69.0418
64.425
59.5214
54.3956
49.109
43.729
38.3269
32.9634
27.7051
22.6061
17.7214
13.0908
8.74954
4.72391
1.53826
-1.54047
-4.24949
-6.57895
-8.53246
-10.1223
-11.3675
-12.2915
-12.9236
-13.2926
-13.4125
-13.3175
-13.0401
-12.6115
-12.0613
-11.4172
-10.7049
-9.94758
-9.16621
-8.379
-7.60161
-6.84696
-6.12548
-5.44502
-4.81118
-4.22741
-3.69529
-3.21484
-2.78479
-2.40287
-2.06611
-1.77108
-1.51408
-1.29133
-1.09914
-0.933932
-0.792403
-0.671492
-0.568447
-0.480797
-0.40637
-0.343258
-0.289801
-0.244567
-0.206322
-0.174007
-0.14672
-0.12369
-0.104262
-0.0878782
-0.0740675
-0.0624295
-0.0526255
-0.044369
-0.0374181
-0.0315682
-0.0266468
-0.0225087
-0.0190314
-0.016112
-0.013664
-0.0116151
-0.00990522
-0.00848422
-0.00731111
-0.00635268
-0.00558272
-0.00498147
-0.00453535
-0.00423702
-0.00408608
-283.394
-290.662
-296.738
-301.609
-305.304
-307.856
-309.195
-309.309
-308.173
-305.75
-301.997
-296.865
-290.303
-282.26
-272.685
-261.54
-248.777
-234.372
-218.333
-200.661
-181.377
-160.551
-138.208
-114.452
-89.6933
-57.5688
-28.1177
0.967468
29.6887
57.797
84.9913
110.973
135.309
157.631
177.543
194.718
208.886
219.832
227.149
232.185
234.332
233.398
229.41
222.52
213
201.105
187.206
171.789
155.431
138.67
121.963
105.663
90.0606
75.3689
61.7578
49.3135
38.0402
27.8642
18.6339
10.2829
2.82536
-3.55084
-7.37786
-11.086
-14.2934
-16.9949
-19.2348
-21.07
-22.5579
-23.753
-24.7027
-25.4506
-26.0329
-26.4823
-26.8241
-27.078
-27.2574
-27.3481
-27.3538
-27.2635
-27.0506
-26.6801
-26.1087
-25.2886
-24.1688
-22.6967
-20.8263
-18.5168
-15.7407
-12.4854
-8.75065
-4.54785
0.0997274
5.21245
10.6005
16.2629
22.1343
28.1394
34.1977
40.2263
46.1428
51.8661
57.3185
62.4271
67.1261
71.358
75.076
78.2458
80.8464
82.8714
84.3282
85.2375
85.6291
85.5456
85.0311
84.1325
82.8978
81.371
79.5915
77.5917
75.3969
73.0243
70.4849
67.783
64.9181
61.8864
58.6818
55.2965
51.7224
47.9525
43.9811
39.8052
35.4265
30.8523
26.0971
21.1836
16.144
11.0196
5.86117
0.72667
-4.31498
-9.19592
-13.844
-18.188
-22.1601
-25.6984
-28.7494
-31.2697
-33.2272
-34.6025
-35.3847
-35.5751
-35.1889
-34.244
-32.7684
-30.797
-28.3706
-25.536
-22.3442
-18.8498
-15.1092
-11.1788
-7.11312
-2.96228
1.22593
5.42308
9.59812
13.7313
17.8115
21.8353
25.8055
29.73
33.6195
37.4855
41.3383
45.185
49.0275
52.8611
56.673
60.4423
64.1396
67.7275
71.1619
74.3935
77.3698
80.0367
82.3408
84.2308
85.6593
86.5841
86.9691
86.7851
86.0117
84.6383
82.6599
80.0844
76.9309
73.2303
69.0268
64.3767
59.3472
54.0143
48.4607
42.7723
37.0351
31.332
25.7393
20.3239
15.1417
10.2358
5.63644
1.36454
-2.5819
-6.20355
-9.51119
-12.5209
-15.2518
-17.7231
-19.9528
-21.955
-23.7395
-25.3109
-26.6677
-27.8031
-28.7054
-29.359
-29.7456
-29.8443
-29.6349
-29.099
-28.2187
-26.9794
-25.37
-23.3837
-21.0184
-18.2773
-15.169
-11.7073
-7.91116
-3.80469
0.58434
5.22576
10.0761
15.1006
20.26
25.5134
30.8194
36.1359
41.4212
46.6337
51.7324
56.6767
61.4267
65.9428
70.1863
74.1194
77.7051
80.9077
83.6934
86.0304
87.8902
89.2476
90.0818
90.3755
90.1174
89.3045
87.9394
86.0285
83.585
80.631
77.1983
73.3242
69.053
64.434
59.5279
54.3995
49.1104
43.7278
38.3232
32.9574
27.6969
22.5961
17.7096
13.0778
8.73608
4.7125
1.5221
-1.55547
-4.26389
-6.59275
-8.54549
-10.1344
-11.3785
-12.3014
-12.9324
-13.3
-13.4187
-13.3224
-13.0437
-12.614
-12.0628
-11.4177
-10.7046
-9.94653
-9.16455
-8.37686
-7.59909
-6.84416
-6.1225
-5.44195
-4.8081
-4.22438
-3.69238
-3.21208
-2.78221
-2.4005
-2.06395
-1.76913
-1.51234
-1.2898
-1.09779
-0.932754
-0.791381
-0.670609
-0.567687
-0.480146
-0.405813
-0.342782
-0.289396
-0.244222
-0.206029
-0.173758
-0.146509
-0.123511
-0.10411
-0.0877497
-0.0739587
-0.0623373
-0.0525474
-0.0443029
-0.0373621
-0.0315208
-0.0266067
-0.0224747
-0.0190025
-0.0160874
-0.0136431
-0.0115974
-0.00989001
-0.00847116
-0.00729982
-0.00634285
-0.00557406
-0.00497373
-0.00452828
-0.00423041
-0.00407972
-283.49
-290.753
-296.832
-301.703
-305.402
-307.952
-309.292
-309.41
-308.277
-305.858
-302.111
-296.984
-290.429
-282.393
-272.823
-261.683
-248.925
-234.523
-218.484
-200.812
-181.524
-160.691
-138.341
-114.572
-89.7988
-57.6936
-28.2186
0.893094
29.6458
57.7904
85.024
111.049
135.428
157.795
177.748
194.957
209.153
220.126
227.445
232.486
234.623
233.67
229.657
222.737
213.181
201.246
187.308
171.853
155.459
138.667
121.934
105.612
89.9931
75.2888
61.6688
49.2193
37.9442
27.7676
18.538
10.1889
2.73815
-3.60287
-7.44553
-11.1478
-14.3504
-17.0466
-19.2811
-21.1112
-22.5943
-23.7849
-24.7306
-25.4749
-26.054
-26.5007
-26.8402
-27.0923
-27.2703
-27.3609
-27.3675
-27.2786
-27.0675
-26.6995
-26.1311
-25.3144
-24.1979
-22.729
-20.8613
-18.5539
-15.7789
-12.5237
-8.78798
-4.58357
0.0657186
5.18578
10.5773
16.2447
22.1221
28.1335
34.1982
40.2334
46.1563
51.8859
57.3441
62.4582
67.1618
71.3976
75.1186
78.2902
80.8915
82.916
84.3712
85.2781
85.6669
85.5795
85.0612
84.159
82.9207
81.3908
79.6087
77.6069
75.4106
73.0372
70.4974
67.7955
64.9309
61.8997
58.6956
55.3108
51.7373
47.9678
43.9965
39.8204
35.441
30.8656
26.1085
21.1924
16.1494
11.0211
5.85795
0.718336
-4.32876
-9.21527
-13.8689
-18.218
-22.1948
-25.7371
-28.7915
-31.3142
-33.2732
-34.6491
-35.4308
-35.6206
-35.2328
-34.2858
-32.8075
-30.833
-28.4031
-25.5645
-22.3686
-18.8698
-15.1248
-11.1902
-7.12061
-2.9663
1.22468
5.42408
9.60068
13.7348
17.8154
21.8389
25.8086
29.7323
33.6209
37.4861
41.3383
45.1848
49.0277
52.8623
56.6759
60.4475
64.1477
67.7391
71.1774
74.4132
77.3938
80.065
82.3732
84.267
85.6989
86.6265
87.0142
86.8313
86.0589
84.6857
82.7067
80.1295
76.9733
73.2692
69.061
64.4055
59.3698
54.0303
48.4698
42.7747
37.031
31.3219
25.724
20.3044
15.1189
10.2109
5.61021
1.33822
-2.60794
-6.22864
-9.53492
-12.5431
-15.2723
-17.7423
-19.9707
-21.9722
-23.7563
-25.3278
-26.6851
-27.8214
-28.725
-29.38
-29.7681
-29.8684
-29.6605
-29.126
-28.2469
-27.0085
-25.3997
-23.4136
-21.0481
-18.3064
-15.1971
-11.7341
-7.93616
-3.82756
0.563893
5.20808
10.0613
15.0889
20.2514
25.5081
30.8173
36.1372
41.4257
46.6415
51.7435
56.691
61.4442
65.9634
70.21
74.1462
77.7348
80.9402
83.7284
86.0678
87.9297
89.2888
90.1243
90.4191
90.1609
89.348
87.9821
86.0698
83.6244
80.6679
77.2319
73.3539
69.0783
64.4547
59.5433
54.4095
49.1151
43.7272
38.3171
32.9468
27.6814
22.5769
17.6866
13.0523
8.70956
4.68994
1.49016
-1.58522
-4.29253
-6.62022
-8.57146
-10.1585
-11.4006
-12.3212
-12.9499
-13.3149
-13.4309
-13.332
-13.0509
-12.619
-12.0657
-11.4187
-10.7039
-9.94443
-9.16124
-8.37256
-7.59402
-6.83854
-6.11652
-5.4358
-4.80193
-4.21833
-3.68654
-3.20656
-2.77706
-2.39575
-2.05963
-1.76524
-1.50887
-1.28672
-1.09509
-0.9304
-0.789338
-0.668844
-0.566168
-0.478843
-0.404698
-0.341831
-0.288585
-0.243533
-0.205443
-0.173261
-0.146087
-0.123153
-0.103807
-0.087493
-0.0737412
-0.0621532
-0.0523916
-0.044171
-0.0372504
-0.0314262
-0.0265265
-0.0224068
-0.0189449
-0.0160385
-0.0136015
-0.0115619
-0.00985967
-0.0084451
-0.00727731
-0.00632324
-0.00555679
-0.00495828
-0.00451419
-0.00421723
-0.004067
-283.633
-290.889
-296.969
-301.848
-305.55
-308.096
-309.438
-309.56
-308.433
-306.022
-302.282
-297.164
-290.618
-282.591
-273.03
-261.899
-249.146
-234.749
-218.712
-201.037
-181.744
-160.903
-138.539
-114.754
-89.9575
-57.8806
-28.3703
0.781083
29.5809
57.7799
85.0725
111.162
135.608
158.04
178.054
195.317
209.554
220.559
227.897
232.939
235.058
234.078
230.028
223.061
213.451
201.459
187.46
171.948
155.502
138.663
121.89
105.536
89.8914
75.1685
61.5352
49.0777
37.7999
27.6224
18.394
10.0477
2.60645
-3.68123
-7.54614
-11.2405
-14.4359
-17.1243
-19.3507
-21.1731
-22.6489
-23.8328
-24.7725
-25.5114
-26.0858
-26.5283
-26.8644
-27.1138
-27.2898
-27.3803
-27.3881
-27.3011
-27.0928
-26.7286
-26.1647
-25.353
-24.2415
-22.7776
-20.9137
-18.6093
-15.836
-12.5811
-8.8439
-4.63702
0.014766
5.1459
10.5426
16.2177
22.1038
28.1247
34.1992
40.2442
46.1768
51.9158
57.3829
62.505
67.2158
71.4574
75.1828
78.3571
80.9594
82.9831
84.4361
85.3391
85.7236
85.6305
85.1067
84.1988
82.9552
81.4206
79.6346
77.6298
75.4314
73.0567
70.5163
67.8144
64.9502
61.9197
58.7164
55.3325
51.7598
47.9908
44.0197
39.8433
35.4629
30.8857
26.1257
21.2057
16.1578
11.0233
5.8532
0.7059
-4.34939
-9.24427
-13.9061
-18.263
-22.2469
-25.7953
-28.8545
-31.3809
-33.3422
-34.719
-35.5002
-35.6889
-35.2987
-34.3484
-32.8663
-30.887
-28.4518
-25.6073
-22.4051
-18.8998
-15.1482
-11.2073
-7.13176
-2.97227
1.22289
5.42567
9.60462
13.7401
17.8212
21.8444
25.8132
29.7357
33.6229
37.4869
41.3383
45.1846
49.0281
52.8641
56.6801
60.4553
64.1599
67.7566
71.2007
74.4428
77.4299
80.1076
82.4219
84.3215
85.7584
86.6904
87.0816
86.9008
86.13
84.7571
82.7769
80.1973
77.0371
73.3275
69.1125
64.4487
59.4038
54.0543
48.4836
42.7782
37.0248
31.3068
25.7012
20.2751
15.0848
10.1734
5.57086
1.29867
-2.64704
-6.26629
-9.57052
-12.5763
-15.3032
-17.771
-19.9977
-21.9979
-23.7816
-25.3531
-26.7112
-27.8489
-28.7543
-29.4115
-29.8019
-29.9045
-29.6991
-29.1666
-28.2892
-27.0521
-25.4442
-23.4585
-21.0927
-18.3502
-15.2394
-11.7742
-7.97367
-3.86189
0.533207
5.18157
10.0392
15.0713
20.2386
25.5002
30.8143
36.1391
41.4326
46.6533
51.7601
56.7125
61.4705
65.9944
70.2457
74.1864
77.7793
80.9889
83.7811
86.124
87.989
89.3506
90.188
90.4844
90.2262
89.4133
88.0462
86.1318
83.6836
80.7233
77.2822
73.3984
69.1162
64.4856
59.5665
54.4244
49.1222
43.7263
38.3081
32.9308
27.6581
22.548
17.6521
13.0141
8.66969
4.65567
1.44257
-1.62978
-4.3355
-6.66145
-8.61042
-10.1946
-11.4336
-12.3509
-12.9762
-13.3373
-13.4493
-13.3465
-13.0618
-12.6264
-12.07
-11.4202
-10.7029
-9.94125
-9.15625
-8.36609
-7.58641
-6.8301
-6.10755
-5.42656
-4.79266
-4.20924
-3.67779
-3.19827
-2.76932
-2.38863
-2.05315
-1.75941
-1.50366
-1.28212
-1.09104
-0.926871
-0.786274
-0.666198
-0.563891
-0.47689
-0.403028
-0.340405
-0.287371
-0.2425
-0.204565
-0.172516
-0.145455
-0.122618
-0.103353
-0.0871082
-0.0734154
-0.0618774
-0.052158
-0.0439733
-0.037083
-0.0312844
-0.0264065
-0.022305
-0.0188586
-0.0159652
-0.0135391
-0.0115087
-0.00981421
-0.00840606
-0.00724359
-0.00629386
-0.00553092
-0.00493514
-0.00449308
-0.00419748
-0.00404794
-283.826
-291.072
-297.151
-302.044
-305.745
-308.288
-309.633
-309.761
-308.641
-306.239
-302.51
-297.404
-290.869
-282.855
-273.306
-262.186
-249.442
-235.05
-219.015
-201.338
-182.038
-161.185
-138.805
-114.996
-90.1697
-58.13
-28.573
0.631234
29.4937
57.7653
85.1366
111.312
135.846
158.367
178.463
195.796
210.089
221.128
228.504
233.543
235.639
234.623
230.523
223.493
213.812
201.741
187.664
172.075
155.558
138.657
121.831
105.434
89.7553
75.0076
61.3568
48.8887
37.607
27.4287
18.2019
9.85898
2.42926
-3.78598
-7.67875
-11.3639
-14.5499
-17.2278
-19.4436
-21.2555
-22.7216
-23.8967
-24.8283
-25.5601
-26.128
-26.565
-26.8966
-27.1424
-27.3158
-27.4061
-27.4155
-27.3311
-27.1265
-26.7674
-26.2096
-25.4045
-24.2998
-22.8423
-20.9837
-18.6834
-15.9124
-12.6579
-8.91863
-4.70838
-0.0534576
5.09262
10.496
16.1814
22.0794
28.1129
34.2003
40.2584
46.204
51.9555
57.4344
62.5674
67.2876
71.5371
75.2683
78.4462
81.0498
83.0726
84.5225
85.4205
85.7989
85.6986
85.1671
84.2517
83.001
81.4602
79.669
77.6602
75.459
73.0826
70.5414
67.8395
64.9758
61.9462
58.7441
55.3613
51.7896
48.0214
44.0506
39.8738
35.4921
30.9124
26.1487
21.2235
16.1688
11.0263
5.84684
0.689264
-4.37697
-9.28302
-13.9559
-18.3232
-22.3164
-25.873
-28.9388
-31.4699
-33.4343
-34.8122
-35.5929
-35.7801
-35.3867
-34.4321
-32.9446
-30.9592
-28.5168
-25.6645
-22.4539
-18.9398
-15.1795
-11.2301
-7.14668
-2.98026
1.22051
5.42776
9.60986
13.7472
17.8288
21.8517
25.8193
29.7401
33.6256
37.4879
41.3382
45.1842
49.0283
52.8663
56.6857
60.4655
64.176
67.7797
71.2317
74.4822
77.4779
80.1642
82.4868
84.394
85.8377
86.7754
87.1711
86.9938
86.2249
84.8521
82.8706
80.2877
77.1222
73.4053
69.1811
64.5063
59.4491
54.0863
48.5018
42.7828
37.0164
31.2865
25.6705
20.2359
15.0391
10.1233
5.51832
1.2457
-2.69931
-6.31661
-9.61809
-12.6208
-15.3444
-17.8093
-20.0336
-22.0323
-23.8152
-25.3869
-26.7461
-27.8856
-28.7934
-29.4535
-29.847
-29.9528
-29.7505
-29.2208
-28.3457
-27.1104
-25.5037
-23.5184
-21.1523
-18.4086
-15.2959
-11.8279
-8.02379
-3.90778
0.492168
5.14614
10.0096
15.0478
20.2215
25.4895
30.8102
36.1416
41.4416
46.6689
51.7822
56.7411
61.5054
66.0357
70.2931
74.2399
77.8387
81.0538
83.8512
86.1988
88.068
89.433
90.2729
90.5711
90.3137
89.5004
88.1317
86.2145
83.7625
80.797
77.3494
73.4577
69.1668
64.5268
59.5975
54.4444
49.1315
43.7251
38.2959
32.9094
27.6271
22.5093
17.606
12.9629
8.61639
4.6092
1.37976
-1.68904
-4.39279
-6.71645
-8.66239
-10.2428
-11.4777
-12.3905
-13.0112
-13.3671
-13.4737
-13.3658
-13.0762
-12.6363
-12.0757
-11.4222
-10.7015
-9.937
-9.14957
-8.35746
-7.57625
-6.81884
-6.09558
-5.41423
-4.7803
-4.19711
-3.66612
-3.18721
-2.75901
-2.37913
-2.04451
-1.75163
-1.49673
-1.27598
-1.08566
-0.922169
-0.782194
-0.662673
-0.560858
-0.474289
-0.400803
-0.338507
-0.285754
-0.241124
-0.203396
-0.171524
-0.144613
-0.121904
-0.102748
-0.0865961
-0.0729817
-0.0615102
-0.0518471
-0.0437101
-0.0368602
-0.0310957
-0.0262466
-0.0221695
-0.0187437
-0.0158676
-0.0134561
-0.011438
-0.0097537
-0.0083541
-0.00719869
-0.00625476
-0.00549648
-0.00490435
-0.00446499
-0.0041712
-0.00402257
-284.068
-291.304
-297.381
-302.285
-305.984
-308.527
-309.877
-310.012
-308.902
-306.511
-302.795
-297.703
-291.184
-283.185
-273.652
-262.545
-249.813
-235.428
-219.395
-201.714
-182.406
-161.538
-139.137
-115.299
-90.436
-58.4418
-28.8268
0.443251
29.3837
57.7459
85.2156
111.498
136.144
158.775
178.975
196.396
210.758
221.84
229.257
234.295
236.364
235.304
231.143
224.035
214.263
202.095
187.917
172.232
155.628
138.649
121.756
105.305
89.5846
74.8058
61.1334
48.6522
37.3653
27.1861
17.9615
9.62257
2.20513
-3.91691
-7.84235
-11.518
-14.6924
-17.3573
-19.5596
-21.3585
-22.8125
-23.9765
-24.8981
-25.6208
-26.1808
-26.6109
-26.9368
-27.1782
-27.3484
-27.4385
-27.4496
-27.3684
-27.1687
-26.8158
-26.2657
-25.4689
-24.3728
-22.9234
-21.0715
-18.7763
-16.0082
-12.754
-9.01224
-4.79767
-0.139045
5.02585
10.4374
16.1358
22.0487
28.0979
34.2016
40.2762
46.2379
52.0051
57.4988
62.6453
67.3774
71.6366
75.3752
78.5577
81.1629
83.1845
84.6304
85.5223
85.8929
85.7837
85.2426
84.3177
83.0582
81.5095
79.7118
77.698
75.4933
73.1148
70.5726
67.8707
65.0077
61.9793
58.7786
55.3972
51.8269
48.0596
44.0891
39.9119
35.5286
30.9458
26.1774
21.2457
16.1827
11.03
5.83889
0.668439
-4.41149
-9.33154
-14.0182
-18.3985
-22.4036
-25.9703
-29.0442
-31.5814
-33.5495
-34.9288
-35.7091
-35.8941
-35.4967
-34.5369
-33.0428
-31.0494
-28.5982
-25.7361
-22.5149
-18.99
-15.2187
-11.2586
-7.16533
-2.99026
1.21756
5.43039
9.61643
13.7561
17.8385
21.8608
25.8269
29.7456
33.6288
37.4891
41.3379
45.1835
49.0285
52.8689
56.6924
60.478
64.196
67.8084
71.2702
74.5313
77.5378
80.2349
82.5678
84.4845
85.9368
86.8816
87.2829
87.11
86.3435
84.971
82.9878
80.4008
77.2286
73.5026
69.2668
64.5783
59.5056
54.1262
48.5245
42.7884
37.0057
31.2609
25.6319
20.1867
14.9817
10.0604
5.45254
1.1792
-2.76482
-6.37964
-9.67763
-12.6763
-15.396
-17.8572
-20.0786
-22.0752
-23.8572
-25.4292
-26.7896
-27.9314
-28.8423
-29.5061
-29.9034
-30.0132
-29.8148
-29.2885
-28.4164
-27.1834
-25.5782
-23.5935
-21.227
-18.4819
-15.3666
-11.8951
-8.08657
-3.96527
0.440733
5.10178
9.97255
15.0184
20.1999
25.4761
30.805
36.1446
41.4529
46.6883
51.8098
56.7767
61.549
66.0871
70.3524
74.3066
77.9128
81.1349
83.9387
86.2923
88.1666
89.5359
90.379
90.6793
90.423
89.6093
88.2385
86.3179
83.861
80.8892
77.4333
73.5319
69.23
64.5783
59.6362
54.4693
49.143
43.7234
38.2807
32.8824
27.5883
22.4608
17.5483
12.8987
8.54944
4.54995
1.30217
-1.7629
-4.4644
-6.78524
-8.7274
-10.3032
-11.5329
-12.4402
-13.0551
-13.4043
-13.5043
-13.3899
-13.0942
-12.6486
-12.0828
-11.4246
-10.6997
-9.93165
-9.1412
-8.34662
-7.56352
-6.80473
-6.08059
-5.39881
-4.76483
-4.18194
-3.65151
-3.17339
-2.74612
-2.36727
-2.03372
-1.74192
-1.48806
-1.26832
-1.07893
-0.9163
-0.777101
-0.658275
-0.557074
-0.471044
-0.398028
-0.336138
-0.283736
-0.239408
-0.201938
-0.170286
-0.143564
-0.121014
-0.101994
-0.0859573
-0.0724407
-0.0610521
-0.0514594
-0.0433818
-0.0365822
-0.0308603
-0.0260472
-0.0220005
-0.0186003
-0.0157458
-0.0133526
-0.0113497
-0.00967823
-0.00828929
-0.00714271
-0.006206
-0.00545352
-0.00486594
-0.00442996
-0.00413843
-0.00399094
-284.359
-291.584
-297.659
-302.569
-306.27
-308.813
-310.168
-310.312
-309.214
-306.837
-303.137
-298.062
-291.562
-283.582
-274.066
-262.977
-250.257
-235.881
-219.851
-202.167
-182.849
-161.963
-139.537
-115.665
-90.7567
-58.816
-29.1319
0.216851
29.2505
57.7213
85.3092
111.721
136.502
159.265
179.59
197.118
211.564
222.699
230.155
235.194
237.235
236.124
231.888
224.685
214.805
202.519
188.221
172.421
155.711
138.638
121.665
105.15
89.3786
74.5629
60.8648
48.3681
37.0743
26.8944
17.6729
9.33825
1.93214
-4.07329
-8.03595
-11.7026
-14.8636
-17.5126
-19.6987
-21.4821
-22.9216
-24.0721
-24.9817
-25.6936
-26.244
-26.6658
-26.9849
-27.221
-27.3874
-27.4773
-27.4904
-27.413
-27.2191
-26.8739
-26.3329
-25.5463
-24.4605
-23.0206
-21.177
-18.8879
-16.1234
-12.8696
-9.12481
-4.90483
-0.24182
4.9453
10.3666
16.0809
22.0117
28.0799
34.2031
40.2974
46.2786
52.0646
57.5761
62.7389
67.4852
71.7562
75.5036
78.6916
81.2989
83.3189
84.7601
85.6445
86.0057
85.8858
85.3331
84.3968
83.1266
81.5685
79.763
77.7432
75.5342
73.1532
70.6099
67.9081
65.046
62.0189
58.8199
55.4403
51.8716
48.1055
44.1355
39.9576
35.5724
30.9861
26.212
21.2725
16.1995
11.0346
5.82942
0.643476
-4.45293
-9.38982
-14.093
-18.4891
-22.5083
-26.0872
-29.171
-31.7155
-33.6881
-35.069
-35.8488
-36.0311
-35.629
-34.6627
-33.1606
-31.1579
-28.696
-25.8221
-22.5882
-19.0502
-15.2657
-11.2928
-7.18763
-3.00215
1.21412
5.43365
9.62445
13.7668
17.8501
21.8717
25.836
29.7522
33.6326
37.4903
41.3374
45.1824
49.0285
52.8718
56.7003
60.4929
64.2198
67.8427
71.3164
74.5901
77.6097
80.3197
82.6651
84.5933
86.0557
87.0092
87.4172
87.2495
86.4859
85.1138
83.1285
80.5366
77.3565
73.6195
69.3698
64.6649
59.5735
54.1741
48.5517
42.795
36.9927
31.23
25.5854
20.1273
14.9126
9.98469
5.37345
1.09914
-2.8436
-6.45538
-9.74915
-12.743
-15.4579
-17.9147
-20.1325
-22.1267
-23.9076
-25.4798
-26.8418
-27.9863
-28.901
-29.5691
-29.9712
-30.0858
-29.8921
-29.3699
-28.5013
-27.2711
-25.6677
-23.6836
-21.3167
-18.5698
-15.4516
-11.9759
-8.16201
-4.03435
0.378892
5.04849
9.92799
14.9829
20.174
25.4599
30.7987
36.1481
41.4663
46.7116
51.8428
56.8194
61.6013
66.1489
70.4234
74.3868
78.0017
81.2322
84.0439
86.4046
88.2851
89.6595
90.5065
90.8093
90.5543
89.7399
88.3668
86.4421
83.9794
81
77.5342
73.621
69.3059
64.64
59.6827
54.4993
49.1568
43.7213
38.2625
32.8497
27.5418
22.4022
17.4789
12.8214
8.46877
4.47743
1.21029
-1.85127
-4.55036
-6.86786
-8.80549
-10.3756
-11.5991
-12.4999
-13.1079
-13.449
-13.5409
-13.4188
-13.1158
-12.6634
-12.0913
-11.4274
-10.6976
-9.92517
-9.1311
-8.33358
-7.54819
-6.78776
-6.06256
-5.38026
-4.74625
-4.16371
-3.63398
-3.1568
-2.73065
-2.35303
-2.02077
-1.73026
-1.47768
-1.25914
-1.07087
-0.909267
-0.770999
-0.653006
-0.552541
-0.467158
-0.394705
-0.333303
-0.281321
-0.237353
-0.200193
-0.168804
-0.142307
-0.119949
-0.101091
-0.0851926
-0.0717932
-0.0605038
-0.0509952
-0.0429889
-0.0362496
-0.0305786
-0.0258086
-0.0217983
-0.0184288
-0.0156002
-0.0132287
-0.0112441
-0.00958791
-0.00821173
-0.0070757
-0.00614764
-0.00540212
-0.00481998
-0.00438803
-0.0040992
-0.00395308
-284.699
-291.913
-297.983
-302.898
-306.6
-309.146
-310.509
-310.663
-309.578
-307.217
-303.535
-298.481
-292.003
-284.045
-274.551
-263.481
-250.777
-236.411
-220.384
-202.695
-183.366
-162.46
-140.005
-116.092
-91.1326
-59.2528
-29.4885
-0.0483546
29.0936
57.6908
85.4165
111.98
136.917
159.837
180.308
197.962
212.505
223.704
231.2
236.242
238.253
237.082
232.758
225.445
215.437
203.013
188.575
172.639
155.806
138.623
121.558
104.967
89.137
74.2783
60.5506
48.0361
36.734
26.5532
17.3359
9.00589
1.60769
-4.25366
-8.25882
-11.9178
-15.0633
-17.6939
-19.861
-21.6261
-23.0486
-24.1837
-25.0792
-25.7784
-26.3177
-26.7298
-27.0409
-27.2707
-27.4327
-27.5225
-27.5379
-27.4649
-27.2778
-26.9415
-26.4114
-25.6366
-24.5628
-23.1342
-21.3003
-19.0185
-16.2582
-13.0048
-9.25645
-5.02979
-0.360934
4.84988
10.2834
16.0165
21.9683
28.0587
34.2048
40.3221
46.3261
52.1341
57.6664
62.8482
67.6112
71.896
75.6537
78.8481
81.4577
83.476
84.9117
85.7873
86.1374
86.0049
85.4386
84.4889
83.2062
81.6371
79.8224
77.7956
75.5818
73.1978
70.6533
67.9515
65.0904
62.0651
58.8681
55.4906
51.9237
48.159
44.1896
40.0111
35.6237
31.0331
26.2525
21.3039
16.2192
11.0401
5.8185
0.614406
-4.50128
-9.45787
-14.1805
-18.5949
-22.6307
-26.224
-29.3193
-31.8721
-33.85
-35.2329
-36.012
-36.1912
-35.7835
-34.8097
-33.2983
-31.2846
-28.8102
-25.9225
-22.6739
-19.1204
-15.3205
-11.3327
-7.21355
-3.01586
1.21025
5.43761
9.63396
13.7795
17.8637
21.8846
25.8466
29.7598
33.6369
37.4917
41.3367
45.181
49.0283
52.875
56.7092
60.51
64.2473
67.8826
71.3701
74.6586
77.6935
80.4187
82.7786
84.7202
86.1946
87.1582
87.5742
87.4124
86.6522
85.2807
83.2929
80.6953
77.506
73.7561
69.4902
64.766
59.6529
54.2299
48.5833
42.8025
36.9773
31.1937
25.5308
20.0578
14.8317
9.89608
5.28092
1.00543
-2.93572
-6.5439
-9.83268
-12.8209
-15.53
-17.9816
-20.1953
-22.1866
-23.9662
-25.5387
-26.9026
-28.0504
-28.9694
-29.6426
-30.0502
-30.1706
-29.9823
-29.465
-28.6006
-27.3736
-25.7722
-23.789
-21.4215
-18.6726
-15.5509
-12.0702
-8.25017
-4.11509
0.3066
4.98628
9.87593
14.9416
20.1437
25.441
30.7913
36.1523
41.482
46.7387
51.8813
56.8692
61.6622
66.2209
70.5063
74.4802
78.1054
81.3457
84.1665
86.5355
88.4233
89.8038
90.6553
90.9611
90.7074
89.8924
88.5166
86.5872
84.1176
81.1292
77.652
73.7252
69.3946
64.7121
59.7369
54.5344
49.1726
43.7186
38.2414
32.8114
27.4876
22.3336
17.3978
12.7307
8.37401
4.39128
1.1046
-1.95407
-4.65069
-6.96438
-8.89673
-10.4603
-11.6764
-12.5696
-13.1695
-13.5011
-13.5837
-13.4524
-13.1409
-12.6805
-12.1011
-11.4307
-10.695
-9.91755
-9.11924
-8.3183
-7.53026
-6.76791
-6.04149
-5.35859
-4.72453
-4.14243
-3.61351
-3.13744
-2.7126
-2.33643
-2.00568
-1.71668
-1.46557
-1.24843
-1.06147
-0.901076
-0.763894
-0.646872
-0.547265
-0.462635
-0.390837
-0.330003
-0.278511
-0.234963
-0.198162
-0.167081
-0.140845
-0.118709
-0.100041
-0.0843031
-0.07104
-0.0598662
-0.0504554
-0.0425319
-0.0358627
-0.030251
-0.0255311
-0.021563
-0.0182292
-0.0154307
-0.0130846
-0.0111212
-0.00948288
-0.00812153
-0.00699779
-0.00607978
-0.00534235
-0.00476653
-0.00433928
-0.00405359
-0.00390906
-285.088
-292.29
-298.355
-303.271
-306.976
-309.526
-310.897
-311.064
-309.994
-307.652
-303.991
-298.96
-292.506
-284.574
-275.104
-264.057
-251.371
-237.017
-220.994
-203.3
-183.958
-163.029
-140.541
-116.583
-91.5644
-59.7521
-29.8967
-0.352767
28.9124
57.6536
85.5368
112.274
137.391
160.491
181.13
198.929
213.585
224.855
232.395
237.442
239.419
238.179
233.756
226.314
216.16
203.577
188.978
172.887
155.913
138.605
121.434
104.756
88.8591
73.9514
60.1902
47.6555
36.3441
26.1625
16.9507
8.62551
1.22834
-4.45537
-8.51061
-12.1638
-15.2916
-17.901
-20.0464
-21.7906
-23.1937
-24.3109
-25.1904
-25.8751
-26.4017
-26.8027
-27.1047
-27.3275
-27.4842
-27.574
-27.5918
-27.5239
-27.3446
-27.0187
-26.5009
-25.7397
-24.6797
-23.2642
-21.4416
-19.1681
-16.4127
-13.1596
-9.40733
-5.17244
-0.492439
4.73546
10.1874
15.9427
21.9186
28.0344
34.2066
40.3503
46.3804
52.2137
57.7698
62.9734
67.7556
72.0561
75.8257
79.0275
81.6397
83.6559
85.0852
85.9508
86.288
86.141
85.5592
84.5941
83.297
81.7153
79.8901
77.8553
75.6359
73.2486
70.7027
68.0011
65.1412
62.1178
58.9231
55.548
51.9833
48.2203
44.2515
40.0725
35.6826
31.0872
26.2991
21.3402
16.242
11.0466
5.80618
0.581285
-4.5565
-9.53571
-14.2806
-18.716
-22.771
-26.3805
-29.4891
-32.0516
-34.0354
-35.4206
-36.1989
-36.3743
-35.9603
-34.978
-33.4559
-31.4296
-28.9409
-26.0374
-22.7718
-19.2008
-15.3831
-11.3781
-7.24299
-3.03128
1.20603
5.44239
9.64509
13.7942
17.8796
21.8994
25.8589
29.7686
33.6419
37.4932
41.3358
45.1793
49.0278
52.8784
56.7192
60.5293
64.2786
67.928
71.4314
74.7369
77.7893
80.5318
82.9084
84.8654
86.3535
87.3287
87.7538
87.5988
86.8425
85.4716
83.4812
80.877
77.6771
73.9126
69.6281
64.8817
59.7437
54.2939
48.6194
42.811
36.9595
31.1518
25.468
19.9778
14.7388
9.7944
5.17484
0.897999
-3.04124
-6.64521
-9.92822
-12.9099
-15.6124
-18.0581
-20.2669
-22.255
-24.0331
-25.6059
-26.9719
-28.1235
-29.0474
-29.7266
-30.1406
-30.2675
-30.0854
-29.5737
-28.7141
-27.4908
-25.8918
-23.9096
-21.5415
-18.7903
-15.6645
-12.1783
-8.35107
-4.20752
0.223831
4.91514
9.81636
14.8942
20.109
25.4193
30.7828
36.157
41.4999
46.7697
51.9253
56.9261
61.7319
66.3032
70.601
74.5871
78.224
81.4755
84.3068
86.6853
88.5815
89.9688
90.8256
91.1348
90.8827
90.0669
88.6881
86.7533
84.2758
81.2771
77.7869
73.8445
69.4961
64.7945
59.7989
54.5746
49.1907
43.7154
38.2173
32.7673
27.4255
22.2547
17.3049
12.6263
8.26438
4.29161
0.985566
-2.07126
-4.76545
-7.07488
-9.00122
-10.5572
-11.7648
-12.6494
-13.24
-13.5607
-13.6324
-13.4908
-13.1695
-12.7
-12.1123
-11.4343
-10.6919
-9.90874
-9.1056
-8.30074
-7.50968
-6.74515
-6.01734
-5.33377
-4.69968
-4.11807
-3.59009
-3.11529
-2.69197
-2.31745
-1.98843
-1.70117
-1.45175
-1.23622
-1.05076
-0.891735
-0.755793
-0.639879
-0.541252
-0.45748
-0.386431
-0.326244
-0.275309
-0.23224
-0.195849
-0.165118
-0.13918
-0.117298
-0.0988452
-0.0832901
-0.0701822
-0.0591399
-0.0498406
-0.0420115
-0.0354221
-0.0298779
-0.0252151
-0.0212952
-0.0180021
-0.0152378
-0.0129205
-0.0109814
-0.00936329
-0.00801884
-0.00690908
-0.00600252
-0.0052743
-0.00470568
-0.00428378
-0.00400166
-0.00385894
-285.526
-292.715
-298.774
-303.69
-307.398
-309.954
-311.334
-311.514
-310.461
-308.14
-304.504
-299.499
-293.073
-285.169
-275.728
-264.706
-252.041
-237.7
-221.681
-203.983
-184.626
-163.672
-141.146
-117.137
-92.053
-60.314
-30.3571
-0.696908
28.7059
57.6087
85.6691
112.601
137.923
161.225
182.055
200.019
214.803
226.156
233.742
238.794
240.734
239.418
234.88
227.295
216.974
204.212
189.43
173.165
156.031
138.582
121.291
104.516
88.5444
73.5815
59.7826
47.2259
35.9045
25.7218
16.5175
8.19772
0.789312
-4.67429
-8.79166
-12.4408
-15.5487
-18.1341
-20.2549
-21.9755
-23.3567
-24.4539
-25.3153
-25.9837
-26.496
-26.8845
-27.1762
-27.391
-27.5417
-27.6317
-27.6521
-27.5898
-27.4194
-27.1053
-26.6015
-25.8556
-24.8114
-23.4107
-21.6009
-19.3369
-16.5871
-13.3344
-9.57769
-5.33287
-0.635094
4.6005
10.0786
15.8593
21.8625
28.0069
34.2086
40.3821
46.4415
52.3033
57.8863
63.1145
67.9183
72.2367
76.0196
79.2298
81.845
83.8588
85.2808
86.135
86.4577
86.2941
85.6948
84.7123
83.399
81.8029
79.966
77.9221
75.6965
73.3055
70.7581
68.0566
65.1982
62.177
58.985
55.6126
52.0505
48.2893
44.3214
40.1417
35.7491
31.1483
26.3519
21.3813
16.268
11.0543
5.79254
0.544152
-4.6186
-9.62335
-14.3933
-18.8526
-22.929
-26.5571
-29.6805
-32.2539
-34.2444
-35.6322
-36.4095
-36.5807
-36.1595
-35.1675
-33.6335
-31.593
-29.0881
-26.1668
-22.8821
-19.2912
-15.4535
-11.4291
-7.27588
-3.04831
1.20157
5.44808
9.65792
13.8111
17.8976
21.9163
25.8728
29.7785
33.6474
37.4947
41.3344
45.1769
49.027
52.8818
56.73
60.5507
64.3134
67.9788