/*--------------------------------*- C++ -*----------------------------------*\
| =========                 |                                                 |
| \\      /  F ield         | OpenFOAM: The Open Source CFD Toolbox           |
|  \\    /   O peration     | Version:  3.0.1                                 |
|   \\  /    A nd           | Web:      www.OpenFOAM.org                      |
|    \\/     M anipulation  |                                                 |
\*---------------------------------------------------------------------------*/
FoamFile
{
    version     2.0;
    format      ascii;
    class       surfaceScalarField;
    location    "67";
    object      phi;
}
// * * * * * * * * * * * * * * * * * * * * * * * * * * * * * * * * * * * * * //

dimensions      [0 3 -1 0 0 0 0];

internalField   nonuniform List<scalar> 
42423
(
0.000145899
-1.30432e-05
0.000159488
-1.35895e-05
0.000173595
-1.41071e-05
0.000188001
-1.44064e-05
0.000202969
-1.49678e-05
0.000218144
-1.51752e-05
0.000233652
-1.55074e-05
0.000249262
-1.56098e-05
0.000264636
-1.53747e-05
0.000279817
-1.51804e-05
0.000294566
-1.47488e-05
0.00030855
-1.39846e-05
0.000321656
-1.31054e-05
0.000333693
-1.20371e-05
0.000344383
-1.06907e-05
0.000353503
-9.11946e-06
0.000360842
-7.33933e-06
0.000366262
-5.41978e-06
0.000369643
-3.38095e-06
0.000370935
-1.29176e-06
0.000370063
8.71373e-07
0.00036699
3.07306e-06
0.000361603
5.38709e-06
0.000354278
7.32484e-06
0.000345059
9.21876e-06
0.000334233
1.0826e-05
0.000322045
1.2188e-05
0.000308457
1.35882e-05
0.000293881
1.45757e-05
0.000278626
1.52551e-05
0.000262695
1.59309e-05
0.000246424
1.62711e-05
0.000230007
1.64171e-05
0.00021363
1.63775e-05
0.000197489
1.6141e-05
0.000181601
1.58874e-05
0.000166156
1.54448e-05
0.000151254
1.49027e-05
0.000136907
1.43468e-05
0.000123216
1.36909e-05
0.000110232
1.29837e-05
9.79976e-05
1.22346e-05
8.65245e-05
1.14731e-05
7.5826e-05
1.06985e-05
6.59041e-05
9.9219e-06
5.6752e-05
9.15218e-06
4.83904e-05
8.36158e-06
4.08144e-05
7.57595e-06
3.39978e-05
6.81664e-06
2.7925e-05
6.07275e-06
2.25847e-05
5.34032e-06
1.79081e-05
4.67662e-06
1.39137e-05
3.99436e-06
1.05059e-05
3.40785e-06
7.61872e-06
2.88717e-06
5.20952e-06
2.4092e-06
3.20375e-06
2.00577e-06
1.54414e-06
1.65961e-06
1.88318e-07
1.35582e-06
-8.84873e-07
1.07319e-06
-1.73482e-06
8.49949e-07
-2.37324e-06
6.38421e-07
-2.83901e-06
4.65769e-07
-3.08922e-06
2.50207e-07
-3.00292e-06
-8.63069e-08
-2.66178e-06
-3.41136e-07
-1.9632e-06
-6.98585e-07
-9.86394e-07
-9.76811e-07
3.34129e-07
-1.32053e-06
2.01335e-06
-1.67923e-06
4.11316e-06
-2.09981e-06
6.64434e-06
-2.53119e-06
9.65017e-06
-3.00583e-06
1.31233e-05
-3.47311e-06
1.69614e-05
-3.83815e-06
2.13234e-05
-4.36196e-06
2.60954e-05
-4.77201e-06
3.14773e-05
-5.38193e-06
3.77777e-05
-6.30044e-06
4.46752e-05
-6.8975e-06
5.2601e-05
-7.92578e-06
6.16501e-05
-9.04911e-06
7.17831e-05
-1.01331e-05
8.31192e-05
-1.1336e-05
9.56578e-05
-1.25386e-05
0.000109306
-1.3648e-05
0.000123912
-1.46063e-05
0.000139334
-1.54224e-05
0.000155309
-1.59745e-05
0.000171626
-1.63174e-05
0.000188034
-1.64079e-05
0.000204287
-1.6253e-05
0.000220121
-1.58337e-05
0.000235247
-1.51266e-05
0.000249453
-1.42053e-05
0.000262459
-1.3006e-05
0.000273963
-1.15043e-05
0.000283855
-9.89178e-06
0.000291938
-8.08282e-06
0.000298068
-6.13078e-06
0.000302203
-4.13428e-06
0.000304175
-1.97247e-06
0.0003041
7.50048e-08
0.000301956
2.14359e-06
0.00029768
4.27623e-06
0.000291482
6.19845e-06
0.000283454
8.02813e-06
0.000273746
9.70797e-06
0.000262533
1.12128e-05
0.000249916
1.26168e-05
0.000236198
1.37183e-05
0.000221573
1.4625e-05
0.000206113
1.54592e-05
0.000190187
1.59261e-05
0.000173868
1.63199e-05
0.00015743
1.64377e-05
0.000141027
1.64023e-05
0.000124821
1.62069e-05
0.000109027
1.57935e-05
9.36914e-05
1.53358e-05
7.90068e-05
1.46846e-05
6.50579e-05
1.39489e-05
5.18679e-05
1.31901e-05
3.9511e-05
1.23569e-05
2.79859e-05
1.15251e-05
1.73196e-05
1.06663e-05
7.47714e-06
9.84245e-06
-1.47217e-06
8.9493e-06
-9.61743e-06
8.14526e-06
-1.67967e-05
7.17932e-06
-2.30576e-05
6.26088e-06
-2.84909e-05
5.43331e-06
-3.29419e-05
4.45097e-06
-3.6516e-05
3.57411e-06
-3.92003e-05
2.68431e-06
-4.11264e-05
1.92605e-06
-4.23145e-05
1.18806e-06
-4.28566e-05
5.42147e-07
-4.28844e-05
2.78209e-08
-4.24571e-05
-4.27346e-07
-4.16453e-05
-8.11732e-07
-4.04814e-05
-1.16391e-06
-3.90141e-05
-1.4673e-06
-3.71736e-05
-1.84056e-06
-3.4961e-05
-2.21256e-06
-3.23539e-05
-2.60708e-06
-2.93054e-05
-3.04855e-06
-2.57617e-05
-3.54371e-06
-2.17142e-05
-4.04749e-06
-1.70691e-05
-4.64509e-06
-1.18218e-05
-5.24728e-06
-5.87283e-06
-5.94901e-06
6.37549e-07
-6.51039e-06
7.93552e-06
-7.29798e-06
1.60162e-05
-8.08073e-06
2.48899e-05
-8.87368e-06
3.45807e-05
-9.69082e-06
4.51322e-05
-1.05514e-05
5.65513e-05
-1.14191e-05
6.88478e-05
-1.22966e-05
8.20468e-05
-1.3199e-05
9.61621e-05
-1.41153e-05
0.000111158
-1.49962e-05
0.00012697
-1.58119e-05
0.0001436
-1.66301e-05
0.000160872
-1.72718e-05
0.000178697
-1.78244e-05
0.000196843
-1.81462e-05
0.000215118
-1.82751e-05
0.000233268
-1.81503e-05
0.000251035
-1.77666e-05
0.000268167
-1.71319e-05
0.000284388
-1.62212e-05
0.000299528
-1.51408e-05
0.000313307
-1.37786e-05
0.000325523
-1.22157e-05
0.000335914
-1.03909e-05
0.000344339
-8.4251e-06
0.000350596
-6.25746e-06
0.000354448
-3.85142e-06
0.000355866
-1.41837e-06
0.000354791
1.07495e-06
0.000351069
3.72168e-06
0.000344711
6.35868e-06
0.000335935
8.77525e-06
0.000324946
1.09896e-05
0.00031195
1.29954e-05
0.000297182
1.47678e-05
0.000281059
1.61233e-05
0.000263813
1.72458e-05
0.000245842
1.79708e-05
0.000227471
1.83713e-05
0.000208875
1.85964e-05
0.000190333
1.85415e-05
0.000171989
1.83447e-05
0.000154055
1.79338e-05
0.000136672
1.73825e-05
0.000119855
1.68168e-05
0.000103715
1.6141e-05
8.84118e-05
1.53027e-05
7.39591e-05
1.44528e-05
6.03773e-05
1.35818e-05
4.775e-05
1.26273e-05
3.60727e-05
1.16773e-05
2.53616e-05
1.0711e-05
1.55345e-05
9.82716e-06
6.59978e-06
8.93467e-06
-1.55188e-06
8.15166e-06
-8.86551e-06
7.31363e-06
-1.54035e-05
6.53803e-06
-2.12495e-05
5.84598e-06
-2.64158e-05
5.16628e-06
-3.09648e-05
4.54902e-06
-3.48712e-05
3.90634e-06
-3.83147e-05
3.44349e-06
-4.11245e-05
2.80983e-06
-4.33513e-05
2.22675e-06
-4.50448e-05
1.69357e-06
-4.60416e-05
9.96734e-07
-4.63847e-05
3.43153e-07
-4.61052e-05
-2.7956e-07
-4.51251e-05
-9.80045e-07
-4.3491e-05
-1.63411e-06
-4.11642e-05
-2.32677e-06
-3.80867e-05
-3.07752e-06
-3.44483e-05
-3.63842e-06
-2.99489e-05
-4.49936e-06
-2.4797e-05
-5.15189e-06
-1.88505e-05
-5.94652e-06
-1.23242e-05
-6.52632e-06
-5.00921e-06
-7.31499e-06
2.81423e-06
-7.82344e-06
1.13959e-05
-8.58171e-06
2.06322e-05
-9.23629e-06
3.0637e-05
-1.00048e-05
4.14037e-05
-1.07666e-05
5.30383e-05
-1.16346e-05
6.5571e-05
-1.25328e-05
7.90132e-05
-1.34422e-05
9.33991e-05
-1.43859e-05
0.000108677
-1.52779e-05
0.000124826
-1.61491e-05
0.000141707
-1.68813e-05
0.000159165
-1.74572e-05
0.000177024
-1.78596e-05
0.00019507
-1.80455e-05
0.000213087
-1.80173e-05
0.000230794
-1.77073e-05
0.000247938
-1.71443e-05
0.000264271
-1.63321e-05
0.000279576
-1.53053e-05
0.000293543
-1.39669e-05
0.000306007
-1.24646e-05
0.000316687
-1.06799e-05
0.000325404
-8.71681e-06
0.000332035
-6.63062e-06
0.000336411
-4.37639e-06
0.000338454
-2.04255e-06
0.00033818
2.73523e-07
0.000335476
2.70448e-06
0.000330241
5.23505e-06
0.000322758
7.48255e-06
0.000313063
9.69461e-06
0.000301345
1.1718e-05
0.000287744
1.3601e-05
0.000272544
1.51999e-05
0.000255917
1.66276e-05
0.000238199
1.77177e-05
0.000219687
1.85119e-05
0.000200713
1.89743e-05
0.000181512
1.9201e-05
0.000162452
1.90604e-05
0.00014383
1.86212e-05
0.000125946
1.78845e-05
0.000109073
1.68727e-05
9.34364e-05
1.56368e-05
7.92734e-05
1.4163e-05
6.67956e-05
1.24777e-05
5.58009e-05
1.09948e-05
4.62115e-05
9.58931e-06
3.78713e-05
8.34026e-06
3.05709e-05
7.30035e-06
2.42341e-05
6.33685e-06
1.86788e-05
5.55531e-06
1.37091e-05
4.96963e-06
9.27553e-06
4.43362e-06
5.26448e-06
4.01105e-06
1.62358e-06
3.6409e-06
-2.20414e-06
3.82771e-06
-6.0362e-06
3.83206e-06
-9.62059e-06
3.58439e-06
-1.28442e-05
3.22363e-06
-1.56527e-05
2.80846e-06
-1.79674e-05
2.31471e-06
-1.97183e-05
1.75089e-06
-2.08653e-05
1.14699e-06
-2.14071e-05
5.41831e-07
-2.12359e-05
-1.71201e-07
-2.0285e-05
-9.50942e-07
-1.87136e-05
-1.57134e-06
-1.65488e-05
-2.16485e-06
-1.38979e-05
-2.65089e-06
-1.08465e-05
-3.05141e-06
-7.3746e-06
-3.47189e-06
-3.53975e-06
-3.83485e-06
5.75845e-07
-4.1156e-06
5.28479e-06
-4.70895e-06
1.03872e-05
-5.10243e-06
1.61725e-05
-5.78533e-06
2.27715e-05
-6.59892e-06
2.99768e-05
-7.20534e-06
3.80922e-05
-8.11539e-06
4.7242e-05
-9.1498e-06
5.71925e-05
-9.95059e-06
6.82472e-05
-1.10547e-05
8.01979e-05
-1.19507e-05
9.32215e-05
-1.30236e-05
0.000107246
-1.40247e-05
0.000121896
-1.46498e-05
0.000137317
-1.54212e-05
0.000153496
-1.61785e-05
0.000170013
-1.65174e-05
0.000186912
-1.68988e-05
0.000203925
-1.7013e-05
0.000220922
-1.69968e-05
0.00023777
-1.68486e-05
0.000254025
-1.62554e-05
0.000269587
-1.55619e-05
0.00028425
-1.46623e-05
0.000297758
-1.35087e-05
0.000310006
-1.22478e-05
0.00032076
-1.0754e-05
0.000329882
-9.12239e-06
0.000337165
-7.28266e-06
0.000342559
-5.39365e-06
0.000346008
-3.44936e-06
0.000347375
-1.36707e-06
0.000346646
7.29163e-07
0.000343797
2.84918e-06
0.00033891
4.88646e-06
0.00033199
6.92041e-06
0.000323347
8.64297e-06
0.000313042
1.03052e-05
0.000301367
1.16749e-05
0.000288535
1.28317e-05
0.000274547
1.39877e-05
0.000259777
1.47704e-05
0.000244479
1.52979e-05
0.000228675
1.58036e-05
0.000212655
1.60204e-05
0.000196549
1.61059e-05
0.000180555
1.5994e-05
0.000164755
1.58002e-05
0.000149195
1.55595e-05
0.000134088
1.51075e-05
0.000119451
1.4637e-05
1.41527e-05
0.000145875
-2.60863e-05
0.000159466
-2.71805e-05
0.000173581
-2.82224e-05
0.000187998
-2.88234e-05
0.000202967
-2.99372e-05
0.000218152
-3.03601e-05
0.000233682
-3.10372e-05
0.000249295
-3.1223e-05
0.00026467
-3.07498e-05
0.000279858
-3.03689e-05
0.000294621
-2.95118e-05
0.000308626
-2.79893e-05
0.000321763
-2.6242e-05
0.000333803
-2.40779e-05
0.000344479
-2.13665e-05
0.000353608
-1.82487e-05
0.000360954
-1.46851e-05
0.000366385
-1.08505e-05
0.000369785
-6.7813e-06
0.000371084
-2.59077e-06
0.00037018
1.77567e-06
0.000367102
6.15046e-06
0.000361714
1.07754e-05
0.000354383
1.46559e-05
0.000345155
1.84463e-05
0.000334319
2.16618e-05
0.000322122
2.43856e-05
0.000308523
2.71873e-05
0.000293936
2.91623e-05
0.000278671
3.05199e-05
0.00026273
3.18717e-05
0.00024645
3.25513e-05
0.000230025
3.28428e-05
0.00021364
3.2762e-05
0.000197493
3.2288e-05
0.000181598
3.17824e-05
0.000166151
3.08921e-05
0.000151244
2.98092e-05
0.000136895
2.86965e-05
0.000123201
2.73848e-05
0.000110216
2.5968e-05
9.798e-05
2.4471e-05
8.65048e-05
2.29483e-05
7.58045e-05
2.13988e-05
6.58821e-05
1.98442e-05
5.67273e-05
1.8307e-05
4.83648e-05
1.67241e-05
4.07883e-05
1.51524e-05
3.39706e-05
1.36343e-05
2.7902e-05
1.21414e-05
2.25614e-05
1.06809e-05
1.78844e-05
9.3536e-06
1.38938e-05
7.98492e-06
1.04861e-05
6.8156e-06
7.60037e-06
5.77289e-06
5.19454e-06
4.81503e-06
3.18778e-06
4.01253e-06
1.52986e-06
3.31753e-06
1.80143e-07
2.70554e-06
-8.97303e-07
2.15063e-06
-1.74766e-06
1.70031e-06
-2.39001e-06
1.28076e-06
-2.85643e-06
9.3219e-07
-3.11028e-06
5.0405e-07
-3.02809e-06
-1.68496e-07
-2.69846e-06
-6.70776e-07
-2.00106e-06
-1.39599e-06
-1.02916e-06
-1.94872e-06
2.97935e-07
-2.64763e-06
1.98157e-06
-3.36287e-06
4.08021e-06
-4.19847e-06
6.61921e-06
-5.0702e-06
9.63866e-06
-6.0253e-06
1.31233e-05
-6.9578e-06
1.69737e-05
-7.6885e-06
2.13573e-05
-8.74558e-06
2.61461e-05
-9.56088e-06
3.15403e-05
-1.07761e-05
3.78639e-05
-1.26241e-05
4.47819e-05
-1.38156e-05
5.27295e-05
-1.58733e-05
6.18035e-05
-1.81231e-05
7.19589e-05
-2.02886e-05
8.33126e-05
-2.26897e-05
9.58724e-05
-2.50986e-05
0.00010954
-2.73153e-05
0.000124159
-2.92252e-05
0.000139588
-3.0852e-05
0.000155574
-3.19602e-05
0.000171917
-3.2661e-05
0.000188337
-3.28274e-05
0.000204598
-3.25139e-05
0.000220434
-3.16704e-05
0.000235572
-3.02641e-05
0.000249787
-2.84204e-05
0.000262778
-2.59972e-05
0.00027431
-2.30366e-05
0.000284196
-1.97771e-05
0.000292295
-1.61828e-05
0.000298431
-1.22663e-05
0.000302546
-8.24931e-06
0.000304555
-3.98152e-06
0.000304504
1.26289e-07
0.000302298
4.34884e-06
0.000298033
8.54195e-06
0.000291862
1.23689e-05
0.000283801
1.60898e-05
0.000274075
1.94339e-05
0.000262831
2.24568e-05
0.000250227
2.52201e-05
0.000236496
2.74496e-05
0.000221816
2.93052e-05
0.000206377
3.08976e-05
0.000190422
3.18813e-05
0.000174096
3.26458e-05
0.000157651
3.28828e-05
0.000141216
3.2838e-05
0.000125002
3.24207e-05
0.000109185
3.16103e-05
9.38088e-05
3.07119e-05
7.91036e-05
2.93898e-05
6.51277e-05
2.79248e-05
5.19196e-05
2.63982e-05
3.95439e-05
2.47327e-05
2.79973e-05
2.30716e-05
1.72993e-05
2.13643e-05
7.46032e-06
1.96815e-05
-1.53467e-06
1.79443e-05
-9.68442e-06
1.6295e-05
-1.68802e-05
1.43751e-05
-2.31772e-05
1.25579e-05
-2.85931e-05
1.08492e-05
-3.30669e-05
8.92485e-06
-3.66566e-05
7.16376e-06
-3.9348e-05
5.37576e-06
-4.12592e-05
3.83718e-06
-4.2452e-05
2.38086e-06
-4.29935e-05
1.08367e-06
-4.30236e-05
5.79278e-08
-4.25788e-05
-8.72095e-07
-4.17926e-05
-1.598e-06
-4.06353e-05
-2.32117e-06
-3.915e-05
-2.9526e-06
-3.73044e-05
-3.68616e-06
-3.51104e-05
-4.40656e-06
-3.25082e-05
-5.20931e-06
-2.94545e-05
-6.10224e-06
-2.59047e-05
-7.0935e-06
-2.18517e-05
-8.1005e-06
-1.72054e-05
-9.29142e-06
-1.19601e-05
-1.04926e-05
-6.04745e-06
-1.18617e-05
5.04271e-07
-1.30621e-05
7.80558e-06
-1.45993e-05
1.58942e-05
-1.61694e-05
2.47771e-05
-1.77566e-05
3.44696e-05
-1.93833e-05
4.50234e-05
-2.11053e-05
5.64446e-05
-2.28403e-05
6.87439e-05
-2.45959e-05
8.19541e-05
-2.64092e-05
9.60646e-05
-2.82258e-05
0.000111061
-2.99931e-05
0.000126894
-3.16446e-05
0.000143515
-3.32513e-05
0.000160789
-3.45457e-05
0.000178628
-3.56633e-05
0.000196777
-3.62954e-05
0.000215062
-3.65601e-05
0.000233215
-3.63034e-05
0.000251024
-3.55754e-05
0.000268128
-3.42363e-05
0.000284367
-3.24602e-05
0.000299505
-3.02788e-05
0.000313285
-2.75583e-05
0.000325508
-2.44386e-05
0.000335932
-2.08152e-05
0.000344346
-1.68393e-05
0.000350609
-1.25196e-05
0.000354494
-7.73684e-06
0.000355937
-2.86144e-06
0.00035482
2.19212e-06
0.000351094
7.44752e-06
0.000344738
1.27148e-05
0.000335978
1.75345e-05
0.000324949
2.20188e-05
0.000311907
2.60378e-05
0.000297129
2.95455e-05
0.000281008
3.22449e-05
0.000263758
3.44954e-05
0.000245795
3.5934e-05
0.000227398
3.67679e-05
0.000208752
3.72426e-05
0.000190208
3.7085e-05
0.000171915
3.66377e-05
0.000153941
3.5908e-05
0.00013655
3.47735e-05
0.000119732
3.36348e-05
0.000103595
3.22785e-05
8.82771e-05
3.06201e-05
7.38291e-05
2.89008e-05
6.02513e-05
2.71596e-05
4.76116e-05
2.5267e-05
3.59561e-05
2.33328e-05
2.5191e-05
2.14761e-05
1.53652e-05
1.96529e-05
6.42351e-06
1.78764e-05
-1.68807e-06
1.62632e-05
-8.9909e-06
1.46165e-05
-1.55257e-05
1.30728e-05
-2.13656e-05
1.16859e-05
-2.65267e-05
1.03274e-05
-3.10762e-05
9.09855e-06
-3.50156e-05
7.84565e-06
-3.84265e-05
6.8544e-06
-4.12457e-05
5.62906e-06
-4.34625e-05
4.44358e-06
-4.51533e-05
3.38439e-06
-4.61582e-05
2.00159e-06
-4.64635e-05
6.48454e-07
-4.62233e-05
-5.19771e-07
-4.52219e-05
-1.98145e-06
-4.35852e-05
-3.27084e-06
-4.12785e-05
-4.63349e-06
-3.82302e-05
-6.12576e-06
-3.4547e-05
-7.32166e-06
-3.00762e-05
-8.97019e-06
-2.49215e-05
-1.03066e-05
-1.89592e-05
-1.19087e-05
-1.2436e-05
-1.30495e-05
-5.1353e-06
-1.46157e-05
2.70864e-06
-1.56674e-05
1.12695e-05
-1.71426e-05
2.05091e-05
-1.84758e-05
3.05034e-05
-1.99991e-05
4.12759e-05
-2.15392e-05
5.29272e-05
-2.32859e-05
6.5439e-05
-2.50446e-05
7.88805e-05
-2.68837e-05
9.32712e-05
-2.87766e-05
0.000108563
-3.05695e-05
0.000124692
-3.22783e-05
0.00014159
-3.37792e-05
0.000159049
-3.49167e-05
0.000176918
-3.57279e-05
0.000194981
-3.61083e-05
0.000213006
-3.60423e-05
0.000230719
-3.54208e-05
0.000247865
-3.42908e-05
0.000264251
-3.27172e-05
0.00027953
-3.05843e-05
0.000293541
-2.79786e-05
0.000306002
-2.49251e-05
0.000316699
-2.13771e-05
0.000325444
-1.74623e-05
0.000332065
-1.32511e-05
0.000336428
-8.73929e-06
0.000338484
-4.09929e-06
0.000338195
5.63162e-07
0.000335507
5.39214e-06
0.00033028
1.04625e-05
0.000322788
1.49739e-05
0.000313098
1.93846e-05
0.000301367
2.34493e-05
0.000287733
2.72345e-05
0.000272545
3.03885e-05
0.000255939
3.32333e-05
0.0002382
3.54569e-05
0.000219682
3.70303e-05
0.000200693
3.79626e-05
0.000181491
3.84036e-05
0.000162433
3.81182e-05
0.000143807
3.72472e-05
0.000125909
3.57822e-05
0.00010903
3.37522e-05
9.33845e-05
3.12819e-05
7.92122e-05
2.83353e-05
6.67259e-05
2.4964e-05
5.57217e-05
2.1999e-05
4.61242e-05
1.91869e-05
3.77761e-05
1.66883e-05
3.047e-05
1.46065e-05
2.4129e-05
1.26778e-05
1.85711e-05
1.11132e-05
1.36025e-05
9.93823e-06
9.17438e-06
8.86171e-06
5.16732e-06
8.01812e-06
1.5268e-06
7.28141e-06
-2.31833e-06
7.67284e-06
-6.14279e-06
7.65653e-06
-9.71718e-06
7.15878e-06
-1.29318e-05
6.4383e-06
-1.57332e-05
5.60979e-06
-1.80411e-05
4.62261e-06
-1.97855e-05
3.49531e-06
-2.09263e-05
2.28775e-06
-2.14619e-05
1.07746e-06
-2.12846e-05
-3.48513e-07
-2.03275e-05
-1.90804e-06
-1.87506e-05
-3.14825e-06
-1.65819e-05
-4.33349e-06
-1.39265e-05
-5.30637e-06
-1.08745e-05
-6.10336e-06
-7.39932e-06
-6.9471e-06
-3.56173e-06
-7.67245e-06
5.50845e-07
-8.22818e-06
5.25459e-06
-9.41271e-06
1.03514e-05
-1.01993e-05
1.61284e-05
-1.15623e-05
2.27143e-05
-1.31849e-05
2.99144e-05
-1.44054e-05
3.8018e-05
-1.6219e-05
4.71563e-05
-1.82881e-05
5.70987e-05
-1.9893e-05
6.81402e-05
-2.20962e-05
8.0104e-05
-2.39145e-05
9.31216e-05
-2.60413e-05
0.000107138
-2.80411e-05
0.000121812
-2.93241e-05
0.000137256
-3.08648e-05
0.000153436
-3.23582e-05
0.000169963
-3.3045e-05
0.000186887
-3.38222e-05
0.000203905
-3.40312e-05
0.00022092
-3.40118e-05
0.000237789
-3.37182e-05
0.00025405
-3.25163e-05
0.000269626
-3.1138e-05
0.000284301
-2.9337e-05
0.000297818
-2.70261e-05
0.000310079
-2.45087e-05
0.000320839
-2.15134e-05
0.000329971
-1.82549e-05
0.000337266
-1.45779e-05
0.000342663
-1.07905e-05
0.00034611
-6.89664e-06
0.000347492
-2.74824e-06
0.000346751
1.4694e-06
0.000343889
5.71135e-06
0.000339004
9.7713e-06
0.000332079
1.38458e-05
0.000323429
1.72926e-05
0.000313115
2.06189e-05
0.000301432
2.3358e-05
0.000288592
2.5672e-05
0.000274595
2.79848e-05
0.000259816
2.95493e-05
0.000244509
3.06053e-05
0.000228697
3.16157e-05
0.000212669
3.20483e-05
0.000196555
3.22191e-05
0.000180555
3.19947e-05
0.000164749
3.16061e-05
0.000149184
3.11246e-05
0.000134072
3.02194e-05
0.00011943
2.92782e-05
2.83095e-05
0.000145831
-3.91339e-05
0.000159432
-4.07815e-05
0.000173558
-4.23482e-05
0.000187984
-4.32499e-05
0.000202975
-4.49282e-05
0.000218189
-4.55734e-05
0.000233731
-4.65793e-05
0.000249368
-4.68605e-05
0.000264779
-4.61613e-05
0.000279976
-4.55658e-05
0.000294749
-4.42843e-05
0.000308772
-4.20122e-05
0.000321919
-3.93895e-05
0.000333995
-3.61534e-05
0.00034469
-3.20614e-05
0.000353828
-2.73874e-05
0.000361179
-2.20356e-05
0.000366615
-1.62866e-05
0.000370009
-1.01757e-05
0.000371313
-3.89463e-06
0.000370363
2.72532e-06
0.00036726
9.25403e-06
0.000361868
1.61672e-05
0.000354526
2.19972e-05
0.000345285
2.76877e-05
0.000334433
3.25134e-05
0.000322219
3.66001e-05
0.000308602
4.08044e-05
0.000293997
4.37668e-05
0.000278715
4.58017e-05
0.000262758
4.78289e-05
0.000246463
4.88465e-05
0.000230023
4.92828e-05
0.000213626
4.91589e-05
0.000197469
4.84453e-05
0.000181562
4.76888e-05
0.00016611
4.63441e-05
0.000151198
4.47217e-05
0.000136844
4.30503e-05
0.000123146
4.10825e-05
0.000110164
3.89508e-05
9.79252e-05
3.67093e-05
8.64473e-05
3.44262e-05
7.5743e-05
3.21031e-05
6.58216e-05
2.97657e-05
5.6664e-05
2.74646e-05
4.83029e-05
2.50853e-05
4.07279e-05
2.27274e-05
3.39194e-05
2.04429e-05
2.78466e-05
1.82142e-05
2.25087e-05
1.60188e-05
1.7832e-05
1.40303e-05
1.385e-05
1.19669e-05
1.04445e-05
1.02211e-05
7.5634e-06
8.65401e-06
5.16573e-06
7.2127e-06
3.16878e-06
6.00948e-06
1.50908e-06
4.97723e-06
1.68161e-07
4.04646e-06
-9.0924e-07
3.22803e-06
-1.75706e-06
2.54813e-06
-2.40032e-06
1.92402e-06
-2.86667e-06
1.39854e-06
-3.12285e-06
7.60227e-07
-3.04209e-06
-2.49256e-07
-2.71618e-06
-9.96694e-07
-2.0258e-06
-2.08637e-06
-1.0441e-06
-2.93043e-06
2.84162e-07
-3.97589e-06
1.96804e-06
-5.04675e-06
4.07591e-06
-6.30635e-06
6.62749e-06
-7.62179e-06
9.66396e-06
-9.06178e-06
1.31698e-05
-1.04636e-05
1.70482e-05
-1.1567e-05
2.14573e-05
-1.31547e-05
2.62676e-05
-1.43712e-05
3.16874e-05
-1.61959e-05
3.80355e-05
-1.89723e-05
4.49834e-05
-2.07635e-05
5.29663e-05
-2.38563e-05
6.2077e-05
-2.72338e-05
7.22667e-05
-3.04783e-05
8.36504e-05
-3.40735e-05
9.6234e-05
-3.76821e-05
0.000109922
-4.10031e-05
0.000124556
-4.38593e-05
0.00014
-4.62966e-05
0.000156002
-4.79617e-05
0.000172361
-4.90206e-05
0.000188807
-4.92733e-05
0.000205095
-4.88018e-05
0.000220923
-4.74984e-05
0.000236062
-4.5403e-05
0.000250298
-4.26562e-05
0.000263243
-3.89429e-05
0.000274823
-3.4616e-05
0.000284737
-2.96915e-05
0.000292877
-2.43223e-05
0.00029898
-1.83695e-05
0.000303072
-1.23417e-05
0.000305111
-6.0204e-06
0.000305009
2.28156e-07
0.000302812
6.54616e-06
0.000298569
1.2785e-05
0.000292382
1.85556e-05
0.000284324
2.41477e-05
0.000274574
2.91839e-05
0.000263302
3.37287e-05
0.000250686
3.7836e-05
0.00023694
4.1196e-05
0.000222234
4.40113e-05
0.000206797
4.63343e-05
0.000190797
4.7882e-05
0.000174448
4.89939e-05
0.000158026
4.93054e-05
0.000141563
4.93005e-05
0.000125299
4.86852e-05
0.000109399
4.75098e-05
9.39914e-05
4.61198e-05
7.92614e-05
4.41198e-05
6.52343e-05
4.19519e-05
5.19912e-05
3.96412e-05
3.95812e-05
3.71427e-05
2.80105e-05
3.46423e-05
1.72646e-05
3.21102e-05
7.38497e-06
2.95611e-05
-1.65743e-06
2.69867e-05
-9.79075e-06
2.44283e-05
-1.70326e-05
2.1617e-05
-2.33754e-05
1.89007e-05
-2.87888e-05
1.62625e-05
-3.32825e-05
1.34186e-05
-3.68844e-05
1.07657e-05
-3.95999e-05
8.09133e-06
-4.14869e-05
5.72417e-06
-4.26906e-05
3.58451e-06
-4.32399e-05
1.63293e-06
-4.32692e-05
8.72747e-08
-4.28346e-05
-1.3067e-06
-4.2037e-05
-2.39562e-06
-4.08818e-05
-3.47634e-06
-3.93665e-05
-4.46791e-06
-3.75587e-05
-5.49403e-06
-3.53812e-05
-6.58402e-06
-3.27786e-05
-7.81191e-06
-2.97228e-05
-9.15802e-06
-2.61714e-05
-1.06449e-05
-2.21136e-05
-1.21584e-05
-1.7472e-05
-1.3933e-05
-1.22224e-05
-1.57422e-05
-6.33633e-06
-1.77478e-05
2.68421e-07
-1.96669e-05
7.57229e-06
-2.19032e-05
1.56631e-05
-2.42602e-05
2.45453e-05
-2.66388e-05
3.42424e-05
-2.90804e-05
4.47885e-05
-3.16514e-05
5.62013e-05
-3.42531e-05
6.85273e-05
-3.69219e-05
8.17401e-05
-3.9622e-05
9.586e-05
-4.23457e-05
0.000110853
-4.49862e-05
0.00012668
-4.74716e-05
0.00014332
-4.98916e-05
0.0001606
-5.18257e-05
0.000178428
-5.34911e-05
0.000196637
-5.45045e-05
0.000214931
-5.48543e-05
0.000233105
-5.44772e-05
0.000250912
-5.3382e-05
0.00026805
-5.13745e-05
0.000284308
-4.87182e-05
0.000299447
-4.54183e-05
0.000313252
-4.13627e-05
0.000325482
-3.66695e-05
0.000335969
-3.13023e-05
0.000344367
-2.5237e-05
0.00035063
-1.87824e-05
0.000354537
-1.16443e-05
0.000355995
-4.31917e-06
0.000354844
3.34312e-06
0.000351074
1.12172e-05
0.000344742
1.90469e-05
0.000335986
2.62912e-05
0.000324904
3.31005e-05
0.000311825
3.9117e-05
0.000297038
4.43321e-05
0.000280861
4.84218e-05
0.000263622
5.17347e-05
0.000245675
5.38808e-05
0.00022718
5.5263e-05
0.000208545
5.58776e-05
0.000189979
5.56512e-05
0.000171681
5.49352e-05
0.000153695
5.38947e-05
0.000136268
5.21996e-05
0.00011944
5.04636e-05
0.000103335
4.83833e-05
8.80005e-05
4.59544e-05
7.35496e-05
4.33517e-05
6.00109e-05
4.06983e-05
4.7372e-05
3.79059e-05
3.56643e-05
3.50405e-05
2.49239e-05
3.22165e-05
1.50926e-05
2.94842e-05
6.15823e-06
2.68107e-05
-1.93645e-06
2.43579e-05
-9.20343e-06
2.18834e-05
-1.5756e-05
1.96254e-05
-2.15876e-05
1.75175e-05
-2.67449e-05
1.54847e-05
-3.12962e-05
1.36499e-05
-3.52538e-05
1.18032e-05
-3.86478e-05
1.02484e-05
-4.14723e-05
8.45355e-06
-4.37252e-05
6.69648e-06
-4.53704e-05
5.0296e-06
-4.63926e-05
3.02385e-06
-4.66937e-05
9.49514e-07
-4.6453e-05
-7.60514e-07
-4.53973e-05
-3.03715e-06
-4.37574e-05
-4.91075e-06
-4.15012e-05
-6.88963e-06
-3.84773e-05
-9.14968e-06
-3.47292e-05
-1.10698e-05
-3.03234e-05
-1.3376e-05
-2.51691e-05
-1.54609e-05
-1.92637e-05
-1.78141e-05
-1.26548e-05
-1.96584e-05
-5.42677e-06
-2.18438e-05
2.49881e-06
-2.3593e-05
1.10428e-05
-2.56866e-05
2.02923e-05
-2.77253e-05
3.0265e-05
-2.99719e-05
4.10431e-05
-3.23173e-05
5.2682e-05
-3.49248e-05
6.51996e-05
-3.75622e-05
7.86649e-05
-4.0349e-05
9.30301e-05
-4.31418e-05
0.000108339
-4.5878e-05
0.00012447
-4.84095e-05
0.000141368
-5.06773e-05
0.000158853
-5.24023e-05
0.000176735
-5.36092e-05
0.000194828
-5.42018e-05
0.000212847
-5.40616e-05
0.000230586
-5.31593e-05
0.000247758
-5.14626e-05
0.000264145
-4.91039e-05
0.000279466
-4.59055e-05
0.000293528
-4.20405e-05
0.000305977
-3.73741e-05
0.00031668
-3.20808e-05
0.000325441
-2.6223e-05
0.000332081
-1.98911e-05
0.000336454
-1.31118e-05
0.000338528
-6.17393e-06
0.000338214
8.76979e-07
0.000335459
8.14781e-06
0.000330301
1.56206e-05
0.000322736
2.2538e-05
0.000313068
2.90532e-05
0.000301321
3.51965e-05
0.000287671
4.08842e-05
0.000272446
4.56132e-05
0.000255888
4.97915e-05
0.000238178
5.31664e-05
0.000219638
5.55704e-05
0.000200621
5.69803e-05
0.000181415
5.7609e-05
0.000162356
5.71778e-05
0.000143731
5.58717e-05
0.000125833
5.36803e-05
0.00010895
5.06356e-05
9.32982e-05
4.69333e-05
7.91178e-05
4.25158e-05
6.66231e-05
3.74588e-05
5.56096e-05
3.30124e-05
4.60023e-05
2.87942e-05
3.76437e-05
2.50469e-05
3.03255e-05
2.19247e-05
2.39753e-05
1.90281e-05
1.84139e-05
1.66745e-05
1.34441e-05
1.4908e-05
9.02213e-06
1.32837e-05
5.02213e-06
1.20181e-05
1.38162e-06
1.09219e-05
-2.48526e-06
1.15397e-05
-6.3041e-06
1.14754e-05
-9.86697e-06
1.07216e-05
-1.30676e-05
9.63894e-06
-1.58572e-05
8.39936e-06
-1.81551e-05
6.92053e-06
-1.989e-05
5.23017e-06
-2.10226e-05
3.42038e-06
-2.15498e-05
1.6047e-06
-2.13563e-05
-5.42077e-07
-2.03875e-05
-2.87678e-06
-1.88017e-05
-4.73405e-06
-1.66266e-05
-6.50865e-06
-1.39637e-05
-7.96921e-06
-1.09111e-05
-9.15597e-06
-7.43143e-06
-1.04268e-05
-3.59063e-06
-1.15132e-05
5.13748e-07
-1.23326e-05
5.21268e-06
-1.41117e-05
1.03005e-05
-1.52871e-05
1.60672e-05
-1.7329e-05
2.26401e-05
-1.97578e-05
2.98262e-05
-2.15915e-05
3.79165e-05
-2.43093e-05
4.70399e-05
-2.74115e-05
5.6969e-05
-2.98221e-05
6.80058e-05
-3.3133e-05
7.99563e-05
-3.5865e-05
9.29637e-05
-3.90487e-05
0.000106997
-4.20748e-05
0.000121671
-4.39982e-05
0.000137132
-4.63256e-05
0.000153355
-4.85809e-05
0.000169897
-4.95872e-05
0.000186847
-5.07722e-05
0.000203893
-5.10774e-05
0.000220926
-5.10445e-05
0.000237823
-5.06158e-05
0.000254109
-4.8802e-05
0.000269711
-4.67401e-05
0.000284413
-4.40388e-05
0.000297942
-4.05552e-05
0.000310222
-3.67892e-05
0.000320996
-3.22875e-05
0.00033014
-2.73982e-05
0.000337442
-2.18804e-05
0.000342841
-1.61898e-05
0.0003463
-1.03549e-05
0.000347687
-4.13574e-06
0.000346911
2.24592e-06
0.000344034
8.58815e-06
0.00033915
1.4655e-05
0.000332217
2.07793e-05
0.000323556
2.59536e-05
0.000313227
3.09477e-05
0.000301528
3.50562e-05
0.000288672
3.85279e-05
0.000274658
4.19989e-05
0.000259865
4.43422e-05
0.00024454
4.59302e-05
0.000228714
4.74422e-05
0.000212673
4.80888e-05
0.00019655
4.83429e-05
0.000180538
4.80059e-05
0.000164725
4.74197e-05
0.000149152
4.66975e-05
0.000134034
4.53373e-05
0.000119387
4.39251e-05
4.24715e-05
0.000145765
-5.21877e-05
0.00015938
-5.43962e-05
0.000173524
-5.64921e-05
0.000187975
-5.77017e-05
0.000202996
-5.9949e-05
0.000218242
-6.08195e-05
0.000233822
-6.21588e-05
0.000249496
-6.25348e-05
0.000264942
-6.16072e-05
0.000280172
-6.07956e-05
0.000294974
-5.90865e-05
0.00030902
-5.60581e-05
0.000322182
-5.25518e-05
0.000334279
-4.82511e-05
0.000345
-4.2782e-05
0.000354151
-3.65387e-05
0.000361518
-2.94024e-05
0.000366963
-2.17318e-05
0.000370355
-1.35671e-05
0.000371646
-5.18557e-06
0.00037063
3.74112e-06
0.000367498
1.23859e-05
0.000362099
2.15661e-05
0.000354742
2.93545e-05
0.000345479
3.695e-05
0.000334604
4.33886e-05
0.000322364
4.884e-05
0.000308721
5.44479e-05
0.000294089
5.83983e-05
0.000278782
6.1109e-05
0.0002628
6.3811e-05
0.000246482
6.51643e-05
0.000230021
6.5744e-05
0.000213605
6.55748e-05
0.000197432
6.46179e-05
0.000181511
6.36098e-05
0.000166049
6.18059e-05
0.000151121
5.96503e-05
0.000136768
5.74029e-05
0.000123066
5.47847e-05
0.000110088
5.19285e-05
9.7847e-05
4.89503e-05
8.63661e-05
4.59072e-05
7.56506e-05
4.28185e-05
6.57172e-05
3.96991e-05
5.65692e-05
3.66125e-05
4.82151e-05
3.34393e-05
4.06369e-05
3.03056e-05
3.3838e-05
2.72418e-05
2.77663e-05
2.42858e-05
2.24294e-05
2.13557e-05
1.77531e-05
1.87066e-05
1.37827e-05
1.59373e-05
1.03804e-05
1.36233e-05
7.50534e-06
1.15291e-05
5.12001e-06
9.59803e-06
3.14008e-06
7.98942e-06
1.48087e-06
6.63643e-06
1.48799e-07
5.37852e-06
-9.27283e-07
4.30411e-06
-1.77199e-06
3.39283e-06
-2.41654e-06
2.56856e-06
-2.8821e-06
1.8641e-06
-3.14227e-06
1.02039e-06
-3.06516e-06
-3.26373e-07
-2.74195e-06
-1.31991e-06
-2.05287e-06
-2.77545e-06
-1.06967e-06
-3.91364e-06
2.6259e-07
-5.30816e-06
1.94784e-06
-6.73201e-06
4.06458e-06
-8.4231e-06
6.64018e-06
-1.01974e-05
9.70474e-06
-1.21264e-05
1.32425e-05
-1.40013e-05
1.71566e-05
-1.54811e-05
2.15988e-05
-1.75969e-05
2.64447e-05
-1.92171e-05
3.1893e-05
-2.16443e-05
3.82791e-05
-2.53585e-05
4.52736e-05
-2.7758e-05
5.33113e-05
-3.18941e-05
6.24857e-05
-3.64082e-05
7.27282e-05
-4.07209e-05
8.41512e-05
-4.54965e-05
9.67687e-05
-5.02996e-05
0.000110479
-5.4713e-05
0.000125135
-5.85163e-05
0.000140612
-6.17733e-05
0.000156641
-6.39909e-05
0.000173029
-6.54082e-05
0.000189507
-6.57513e-05
0.000205822
-6.51174e-05
0.00022166
-6.3336e-05
0.000236841
-6.05839e-05
0.000251035
-5.68507e-05
0.000264051
-5.19585e-05
0.000275609
-4.61742e-05
0.000285516
-3.95987e-05
0.000293629
-3.24352e-05
0.000299783
-2.45231e-05
0.000303878
-1.64369e-05
0.000305901
-8.04326e-06
0.000305787
3.4142e-07
0.000303574
8.75975e-06
0.000299324
1.70347e-05
0.000293105
2.4775e-05
0.000285057
3.21949e-05
0.000275282
3.89591e-05
0.000263992
4.50184e-05
0.000251402
5.04269e-05
0.000237597
5.5001e-05
0.000222857
5.87506e-05
0.00020745
6.17419e-05
0.00019136
6.39718e-05
0.000175006
6.53479e-05
0.000158439
6.58721e-05
0.000141923
6.58165e-05
0.000125614
6.49947e-05
0.000109688
6.34352e-05
9.42713e-05
6.15367e-05
7.95438e-05
5.88473e-05