/*--------------------------------*- C++ -*----------------------------------*\
| =========                 |                                                 |
| \\      /  F ield         | OpenFOAM: The Open Source CFD Toolbox           |
|  \\    /   O peration     | Version:  3.0.1                                 |
|   \\  /    A nd           | Web:      www.OpenFOAM.org                      |
|    \\/     M anipulation  |                                                 |
\*---------------------------------------------------------------------------*/
FoamFile
{
    version     2.0;
    format      ascii;
    class       surfaceScalarField;
    location    "37";
    object      phi;
}
// * * * * * * * * * * * * * * * * * * * * * * * * * * * * * * * * * * * * * //

dimensions      [0 3 -1 0 0 0 0];

internalField   nonuniform List<scalar> 
42423
(
8.75808e-05
-1.8453e-05
0.000105987
-1.84061e-05
0.000123942
-1.79552e-05
0.000141101
-1.71591e-05
0.00015746
-1.6359e-05
0.000172626
-1.51665e-05
0.000186414
-1.3788e-05
0.000198567
-1.21534e-05
0.00020881
-1.02429e-05
0.000216956
-8.14609e-06
0.000222828
-5.87236e-06
0.000226328
-3.50016e-06
0.000227394
-1.06613e-06
0.000225956
1.43784e-06
0.000222007
3.9494e-06
0.000215586
6.42031e-06
0.000206814
8.77184e-06
0.000195957
1.08571e-05
0.000183175
1.27824e-05
0.000168613
1.45613e-05
0.000152643
1.59708e-05
0.00013554
1.71027e-05
0.000117444
1.80954e-05
9.86779e-05
1.87664e-05
7.95614e-05
1.91164e-05
6.03669e-05
1.91944e-05
4.12434e-05
1.91235e-05
2.24304e-05
1.88129e-05
4.05866e-06
1.83718e-05
-1.38437e-05
1.79024e-05
-3.09822e-05
1.71384e-05
-4.72448e-05
1.62626e-05
-6.25997e-05
1.53549e-05
-7.69685e-05
1.43688e-05
-9.03485e-05
1.33799e-05
-0.000102696
1.23476e-05
-0.000114023
1.13265e-05
-0.00012436
1.03377e-05
-0.000133719
9.35846e-06
-0.000142119
8.40042e-06
-0.000149603
7.48423e-06
-0.000156192
6.58887e-06
-0.000161936
5.74365e-06
-0.000166871
4.93472e-06
-0.000171015
4.14423e-06
-0.000174385
3.37008e-06
-0.000177008
2.62268e-06
-0.000178873
1.86508e-06
-0.000180043
1.17063e-06
-0.000180555
5.12101e-07
-0.000180278
-2.77881e-07
-0.000179279
-9.9835e-07
-0.000177493
-1.78674e-06
-0.00017508
-2.41231e-06
-0.000171832
-3.24782e-06
-0.000167818
-4.01414e-06
-0.00016302
-4.79783e-06
-0.00015748
-5.54022e-06
-0.000151049
-6.43135e-06
-0.00014372
-7.32902e-06
-0.000135435
-8.28509e-06
-0.000126248
-9.18665e-06
-0.000116219
-1.00292e-05
-0.000105232
-1.09867e-05
-9.32592e-05
-1.19733e-05
-8.0553e-05
-1.27062e-05
-6.68771e-05
-1.3676e-05
-5.23971e-05
-1.44801e-05
-3.71326e-05
-1.52646e-05
-2.10119e-05
-1.61207e-05
-4.45683e-06
-1.65552e-05
1.25411e-05
-1.6998e-05
3.00037e-05
-1.74626e-05
4.75798e-05
-1.75762e-05
6.53231e-05
-1.77433e-05
8.29362e-05
-1.76132e-05
0.000100297
-1.73607e-05
0.000117234
-1.69371e-05
0.000133571
-1.63368e-05
0.00014909
-1.55191e-05
0.000163529
-1.44397e-05
0.000176759
-1.32301e-05
0.000188542
-1.17828e-05
0.000198632
-1.00899e-05
0.00020699
-8.35787e-06
0.000213362
-6.37212e-06
0.00021759
-4.22791e-06
0.000219635
-2.04532e-06
0.000219407
2.27717e-07
0.000216939
2.46831e-06
0.000212173
4.76577e-06
0.00020515
7.02274e-06
0.000196062
9.08761e-06
0.000185018
1.10447e-05
0.000172178
1.28398e-05
0.000157794
1.43838e-05
0.000142074
1.57204e-05
0.000125232
1.68412e-05
0.000107463
1.77688e-05
8.90861e-05
1.83774e-05
7.03115e-05
1.87746e-05
5.13988e-05
1.89127e-05
3.24996e-05
1.88992e-05
1.39273e-05
1.85723e-05
-4.17829e-06
1.81056e-05
-2.1625e-05
1.74467e-05
-3.83049e-05
1.66799e-05
-5.41022e-05
1.57973e-05
-6.89248e-05
1.48226e-05
-8.27209e-05
1.37961e-05
-9.54364e-05
1.27154e-05
-0.000107117
1.16807e-05
-0.000117686
1.0569e-05
-0.000127211
9.52453e-06
-0.000135684
8.47392e-06
-0.000143176
7.49183e-06
-0.000149745
6.56829e-06
-0.000155369
5.6248e-06
-0.000160158
4.78821e-06
-0.000164083
3.92507e-06
-0.000167187
3.10401e-06
-0.000169569
2.38276e-06
-0.00017115
1.58043e-06
-0.000172118
9.67946e-07
-0.000172371
2.527e-07
-0.000172003
-3.67885e-07
-0.000170955
-1.04762e-06
-0.000169315
-1.63965e-06
-0.000167072
-2.24321e-06
-0.000164258
-2.8138e-06
-0.000160876
-3.38219e-06
-0.000156923
-3.95301e-06
-0.000152475
-4.44822e-06
-0.000147404
-5.07092e-06
-0.000141862
-5.54242e-06
-0.000135658
-6.20408e-06
-0.000128963
-6.69432e-06
-0.000121629
-7.33462e-06
-0.000113702
-7.92689e-06
-0.000105115
-8.58658e-06
-9.58194e-05
-9.29602e-06
-8.58612e-05
-9.95819e-06
-7.51852e-05
-1.06761e-05
-6.38081e-05
-1.13772e-05
-5.16566e-05
-1.21515e-05
-3.89254e-05
-1.27312e-05
-2.54376e-05
-1.34878e-05
-1.13291e-05
-1.41086e-05
3.39555e-06
-1.47247e-05
1.85746e-05
-1.51791e-05
3.41495e-05
-1.5575e-05
5.00193e-05
-1.58699e-05
6.60422e-05
-1.6023e-05
8.20825e-05
-1.60404e-05
9.79733e-05
-1.58908e-05
0.000113536
-1.55628e-05
0.000128531
-1.49947e-05
0.000142781
-1.42506e-05
0.000156023
-1.32415e-05
0.000168063
-1.20405e-05
0.000178656
-1.0593e-05
0.000187622
-8.96639e-06
0.000194727
-7.10525e-06
0.000199849
-5.12191e-06
0.000202796
-2.94704e-06
0.000203527
-7.3058e-07
0.000201995
1.5312e-06
0.000198147
3.84818e-06
0.000192063
6.08432e-06
0.000183825
8.23815e-06
0.000173595
1.02297e-05
0.000161591
1.20038e-05
0.00014801
1.35812e-05
0.000133197
1.48131e-05
0.0001173
1.58964e-05
0.000100665
1.6635e-05
8.34838e-05
1.71813e-05
6.59996e-05
1.74842e-05
4.84235e-05
1.75761e-05
3.09491e-05
1.74743e-05
1.38024e-05
1.71467e-05
-2.84482e-06
1.66472e-05
-1.8831e-05
1.59862e-05
-3.40396e-05
1.52085e-05
-4.83638e-05
1.43242e-05
-6.17369e-05
1.33731e-05
-7.41762e-05
1.24393e-05
-8.56227e-05
1.14464e-05
-9.61017e-05
1.0479e-05
-0.00010577
9.66868e-06
-0.000114449
8.67904e-06
-0.000122301
7.85128e-06
-0.000129265
6.96412e-06
-0.000135397
6.13226e-06
-0.000140818
5.4206e-06
-0.000145409
4.59154e-06
-0.000149282
3.87248e-06
-0.000152449
3.16752e-06
-0.000155088
2.63919e-06
-0.000157062
1.97354e-06
-0.000158564
1.50162e-06
-0.000159534
9.70341e-07
-0.000159992
4.57812e-07
-0.000160021
2.96103e-08
-0.000159546
-4.75789e-07
-0.000158647
-8.9858e-07
-0.000157215
-1.43219e-06
-0.000155371
-1.84373e-06
-0.000152945
-2.42639e-06
-0.000150156
-2.78865e-06
-0.000146718
-3.43847e-06
-0.000142826
-3.89216e-06
-0.000138306
-4.51932e-06
-0.000133128
-5.17795e-06
-0.00012729
-5.83868e-06
-0.000120704
-6.58594e-06
-0.000113439
-7.26496e-06
-0.000105372
-8.06664e-06
-9.64771e-05
-8.89502e-06
-8.68391e-05
-9.63812e-06
-7.63599e-05
-1.04792e-05
-6.50493e-05
-1.13107e-05
-5.29229e-05
-1.21264e-05
-3.99133e-05
-1.30096e-05
-2.60919e-05
-1.38215e-05
-1.15326e-05
-1.45593e-05
3.7427e-06
-1.52754e-05
1.9634e-05
-1.58913e-05
3.5973e-05
-1.63391e-05
5.27103e-05
-1.67374e-05
6.96026e-05
-1.68924e-05
8.65287e-05
-1.69261e-05
0.000103268
-1.6739e-05
0.000119542
-1.6274e-05
0.000135128
-1.55863e-05
0.000149797
-1.46689e-05
0.000163303
-1.35067e-05
0.000175357
-1.20537e-05
0.000185703
-1.03458e-05
0.000194189
-8.48607e-06
0.000200604
-6.41578e-06
0.000204812
-4.20796e-06
0.00020675
-1.93808e-06
0.000206369
3.81338e-07
0.00020364
2.72903e-06
0.000198587
5.05228e-06
0.00019137
7.21697e-06
0.000182084
9.28642e-06
0.000170897
1.11869e-05
0.000158037
1.28596e-05
0.000143758
1.42789e-05
0.000128326
1.54324e-05
0.000111975
1.63509e-05
9.49504e-05
1.70245e-05
7.74619e-05
1.74884e-05
5.97815e-05
1.76804e-05
4.21226e-05
1.76588e-05
2.46762e-05
1.74464e-05
7.59326e-06
1.70829e-05
-8.93288e-06
1.65261e-05
-2.48364e-05
1.59035e-05
-4.00443e-05
1.52079e-05
-5.44798e-05
1.44354e-05
-6.80642e-05
1.35844e-05
-8.0767e-05
1.27028e-05
-9.25514e-05
1.17844e-05
-0.000103411
1.08594e-05
-0.000113321
9.91042e-06
-0.000122304
8.9827e-06
-0.000130386
8.08193e-06
-0.000137485
7.09933e-06
-0.000143678
6.19295e-06
-0.000148939
5.26074e-06
-0.000153365
4.42591e-06
-0.000156955
3.59055e-06
-0.0001597
2.74416e-06
-0.000161686
1.98667e-06
-0.000162897
1.21057e-06
-0.000163381
4.83791e-07
-0.000162998
-3.82369e-07
-0.000161818
-1.17985e-06
-0.000159948
-1.87011e-06
-0.000157354
-2.59441e-06
-0.000154182
-3.1724e-06
-0.000150255
-3.92621e-06
-0.000145826
-4.4295e-06
-0.000140912
-4.91412e-06
-0.000135337
-5.57444e-06
-0.000129385
-5.9528e-06
-0.000122778
-6.6063e-06
-0.000115454
-7.32432e-06
-0.000107645
-7.80902e-06
-9.90749e-05
-8.57021e-06
-8.97453e-05
-9.32958e-06
-7.96521e-05
-1.00933e-05
-6.86064e-05
-1.10457e-05
-5.66669e-05
-1.19395e-05
-4.3835e-05
-1.2832e-05
-2.97828e-05
-1.40522e-05
-1.49073e-05
-1.48756e-05
8.95405e-07
-1.58028e-05
1.76466e-05
-1.67513e-05
3.49586e-05
-1.73121e-05
5.28207e-05
-1.78621e-05
7.1132e-05
-1.83113e-05
8.94295e-05
-1.82977e-05
0.000107606
-1.81767e-05
0.000125347
-1.77413e-05
0.000142455
-1.71076e-05
0.00015861
-1.61549e-05
0.000173435
-1.48253e-05
0.000186745
-1.33097e-05
0.000198313
-1.15683e-05
0.000207877
-9.56387e-06
0.000215328
-7.4515e-06
0.000220474
-5.14588e-06
0.000223265
-2.79099e-06
0.000223703
-4.3767e-07
0.000221705
1.99761e-06
0.000217283
4.42172e-06
0.00021071
6.57277e-06
0.000201946
8.76428e-06
0.000191364
1.05815e-05
0.000179105
1.22595e-05
0.000165459
1.3646e-05
0.000150675
1.47835e-05
0.000134807
1.58686e-05
0.000118374
1.64323e-05
0.00010137
1.70047e-05
8.40811e-05
1.72884e-05
6.67483e-05
1.73328e-05
4.94174e-05
1.73309e-05
3.22951e-05
1.71223e-05
1.56533e-05
1.66418e-05
-5.2183e-07
1.61751e-05
-1.61143e-05
1.55925e-05
-3.10759e-05
1.49616e-05
-4.53111e-05
1.42352e-05
-5.87479e-05
1.34368e-05
-7.13869e-05
1.26391e-05
-8.31711e-05
1.17841e-05
-9.40649e-05
1.08938e-05
-0.000104077
1.00119e-05
-0.000113175
9.09809e-06
-0.000121381
8.20598e-06
-0.00012868
7.29917e-06
-0.000135068
6.38749e-06
-0.000140548
5.48013e-06
-0.000145132
4.58396e-06
-0.000148815
3.68349e-06
-0.000151608
2.79296e-06
-0.000153501
1.89259e-06
-0.000154527
1.02645e-06
-0.000154697
1.7028e-07
-0.000153912
-7.85093e-07
-0.000152241
-1.67132e-06
-2.55294e-06
8.75904e-05
-3.69143e-05
0.000106006
-3.68225e-05
0.000123974
-3.59229e-05
0.000141147
-3.43329e-05
0.000157519
-3.27307e-05
0.000172703
-3.03511e-05
0.000186512
-2.75967e-05
0.000198673
-2.4315e-05
0.000208921
-2.0491e-05
0.000217074
-1.63001e-05
0.000222953
-1.1751e-05
0.000226462
-7.00933e-06
0.000227532
-2.13653e-06
0.00022608
2.88945e-06
0.000222126
7.90328e-06
0.0002157
1.28459e-05
0.000206921
1.75509e-05
0.000196058
2.17197e-05
0.000183264
2.55769e-05
0.000168694
2.91304e-05
0.00015271
3.19548e-05
0.000135592
3.42204e-05
0.000117487
3.62003e-05
9.87088e-05
3.7545e-05
7.95764e-05
3.82488e-05
6.03703e-05
3.84004e-05
4.12349e-05
3.82588e-05
2.24108e-05
3.7637e-05
4.04339e-06
3.67391e-05
-1.38692e-05
3.58149e-05
-3.10126e-05
3.42818e-05
-4.72813e-05
3.25313e-05
-6.26389e-05
3.07124e-05
-7.70113e-05
2.87412e-05
-9.0395e-05
2.67636e-05
-0.000102745
2.46976e-05
-0.000114074
2.26552e-05
-0.000124413
2.06771e-05
-0.00013377
1.87151e-05
-0.00014217
1.6801e-05
-0.000149655
1.49693e-05
-0.000156248
1.31815e-05
-0.000161996
1.14919e-05
-0.000166929
9.86748e-06
-0.00017107
8.28515e-06
-0.000174442
6.74158e-06
-0.000177063
5.24382e-06
-0.000178932
3.73467e-06
-0.000180106
2.34419e-06
-0.000180613
1.01954e-06
-0.000180338
-5.52729e-07
-0.00017934
-1.99653e-06
-0.000177556
-3.57125e-06
-0.000175135
-4.83352e-06
-0.000171898
-6.48432e-06
-0.000167887
-8.02545e-06
-0.000163088
-9.59717e-06
-0.000157551
-1.10772e-05
-0.000151107
-1.28749e-05
-0.000143788
-1.46485e-05
-0.000135507
-1.65658e-05
-0.000126319
-1.83743e-05
-0.000116283
-2.00655e-05
-0.000105304
-2.19656e-05
-9.33344e-05
-2.39433e-05
-8.06164e-05
-2.54243e-05
-6.69355e-05
-2.73569e-05
-5.24492e-05
-2.89664e-05
-3.71714e-05
-3.05425e-05
-2.10503e-05
-3.22419e-05
-4.49089e-06
-3.31147e-05
1.25087e-05
-3.39978e-05
2.99811e-05
-3.49351e-05
4.75649e-05
-3.51602e-05
6.53206e-05
-3.54992e-05
8.29481e-05
-3.52409e-05
0.000100316
-3.47292e-05
0.000117262
-3.38826e-05
0.000133612
-3.26877e-05
0.000149142
-3.10491e-05
0.000163584
-2.88816e-05
0.000176834
-2.64805e-05
0.000188632
-2.35811e-05
0.000198732
-2.01895e-05
0.000207097
-1.67229e-05
0.000213483
-1.2758e-05
0.000217699
-8.44424e-06
0.000219748
-4.09416e-06
0.000219513
4.62509e-07
0.000217035
4.94604e-06
0.000212269
9.53126e-06
0.00020524
1.40516e-05
0.00019613
1.81978e-05
0.000185079
2.20959e-05
0.000172217
2.57019e-05
0.000157828
2.87725e-05
0.00014209
3.14587e-05
0.000125215
3.37152e-05
0.000107459
3.5525e-05
8.90738e-05
3.67627e-05
7.02893e-05
3.7559e-05
5.13712e-05
3.78306e-05
3.2454e-05
3.78164e-05
1.38962e-05
3.713e-05
-4.23459e-06
3.62364e-05
-2.16847e-05
3.48967e-05
-3.83675e-05
3.33627e-05
-5.41738e-05
3.16036e-05
-6.90031e-05
2.96519e-05
-8.28011e-05
2.75941e-05
-9.55223e-05
2.54366e-05
-0.000107189
2.33469e-05
-0.000117754
2.11341e-05
-0.00012728
1.90505e-05
-0.000135758
1.69525e-05
-0.000143243
1.49764e-05
-0.000149818
1.31438e-05
-0.000155439
1.12461e-05
-0.000160224
9.57316e-06
-0.000164157
7.85804e-06
-0.000167258
6.20474e-06
-0.000169635
4.7591e-06
-0.000171231
3.17713e-06
-0.000172184
1.92109e-06
-0.000172434
5.02601e-07
-0.000172078
-7.24682e-07
-0.00017103
-2.09482e-06
-0.000169391
-3.2787e-06
-0.000167147
-4.48775e-06
-0.000164331
-5.62949e-06
-0.000160953
-6.76048e-06
-0.000157
-7.90584e-06
-0.000152554
-8.89395e-06
-0.000147485
-1.01401e-05
-0.000141946
-1.10812e-05
-0.000135742
-1.24082e-05
-0.000129053
-1.33834e-05
-0.000121694
-1.46942e-05
-0.00011379
-1.58308e-05
-0.000105206
-1.71702e-05
-9.59029e-05
-1.85997e-05
-8.59488e-05
-1.99124e-05
-7.52744e-05
-2.13506e-05
-6.38977e-05
-2.27539e-05
-5.17851e-05
-2.42643e-05
-3.90229e-05
-2.54935e-05
-2.55286e-05
-2.69823e-05
-1.14112e-05
-2.82262e-05
3.31934e-06
-2.94554e-05
1.85068e-05
-3.03667e-05
3.40865e-05
-3.11548e-05
4.99659e-05
-3.17494e-05
6.59932e-05
-3.20505e-05
8.20347e-05
-3.20821e-05
9.79349e-05
-3.17911e-05
0.000113506
-3.11338e-05
0.000128505
-2.99941e-05
0.000142787
-2.85332e-05
0.000156036
-2.64904e-05
0.000168094
-2.40986e-05
0.000178693
-2.11918e-05
0.00018766
-1.79339e-05
0.000194767
-1.42124e-05
0.000199913
-1.02682e-05
0.00020286
-5.89342e-06
0.000203593
-1.4635e-06
0.000202073
3.05025e-06
0.00019821
7.71108e-06
0.000192123
1.21714e-05
0.000183884
1.64769e-05
0.000173649
2.04649e-05
0.00016162
2.40327e-05
0.000148041
2.716e-05
0.000133218
2.96364e-05
0.000117303
3.18116e-05
0.000100665
3.32724e-05
8.34774e-05
3.4369e-05
6.59776e-05
3.49839e-05
4.84036e-05
3.51501e-05
3.09164e-05
3.49614e-05
1.37609e-05
3.43022e-05
-2.89795e-06
3.3306e-05
-1.88877e-05
3.19759e-05
-3.40983e-05
3.04191e-05
-4.84312e-05
2.86571e-05
-6.18041e-05
2.67461e-05
-7.42417e-05
2.48769e-05
-8.56918e-05
2.28965e-05
-9.61593e-05
2.09465e-05
-0.000105824
1.93338e-05
-0.000114507
1.7362e-05
-0.000122361
1.57049e-05
-0.000129334
1.39369e-05
-0.000135475
1.22735e-05
-0.000140889
1.08346e-05
-0.000145476
9.17815e-06
-0.000149349
7.7458e-06
-0.000152515
6.33349e-06
-0.000155153
5.27754e-06
-0.000157139
3.95965e-06
-0.00015863
2.9919e-06
-0.000159605
1.94541e-06
-0.000160064
9.17316e-07
-0.000160093
5.80437e-08
-0.000159618
-9.50351e-07
-0.000158719
-1.79789e-06
-0.000157297
-2.85397e-06
-0.00015545
-3.69084e-06
-0.000153048
-4.82796e-06
-0.000150241
-5.59644e-06
-0.000146803
-6.87617e-06
-0.000142911
-7.78411e-06
-0.000138398
-9.03244e-06
-0.000133228
-1.0348e-05
-0.000127387
-1.16792e-05
-0.000120817
-1.31566e-05
-0.000113543
-1.45388e-05
-0.000105472
-1.61378e-05
-9.65806e-05
-1.77864e-05
-8.69427e-05
-1.92761e-05
-7.64718e-05
-2.09501e-05
-6.51512e-05
-2.26314e-05
-5.30192e-05
-2.42586e-05
-4.00136e-05
-2.60153e-05
-2.61936e-05
-2.76416e-05
-1.16272e-05
-2.91259e-05
3.65462e-06
-3.05573e-05
1.95459e-05
-3.17827e-05
3.58968e-05
-3.26901e-05
5.26453e-05
-3.34861e-05
6.95487e-05
-3.37959e-05
8.64834e-05
-3.38609e-05
0.000103219
-3.34744e-05
0.000119517
-3.25725e-05
0.000135121
-3.11901e-05
0.000149809
-2.93574e-05
0.000163311
-2.70088e-05
0.000175397
-2.41394e-05
0.000185784
-2.07337e-05
0.00019425
-1.69514e-05
0.000200672
-1.28382e-05
0.000204887
-8.42304e-06
0.000206826
-3.87704e-06
0.000206441
7.65649e-07
0.000203709
5.46122e-06
0.000198656
1.01054e-05
0.00019144
1.4433e-05
0.000182142
1.85841e-05
0.000170953
2.23754e-05
0.000158083
2.57299e-05
0.000143792
2.85693e-05
0.000128355
3.08691e-05
0.000111993
3.27127e-05
9.49582e-05
3.40597e-05
7.74619e-05
3.49847e-05
5.97666e-05
3.53756e-05
4.20941e-05
3.53312e-05
2.46414e-05
3.48991e-05
7.55336e-06
3.41708e-05
-8.97943e-06
3.30589e-05
-2.48839e-05
3.18079e-05
-4.01e-05
3.0424e-05
-5.4538e-05
2.88734e-05
-6.81298e-05
2.71761e-05
-8.08417e-05
2.54147e-05
-9.26294e-05
2.35721e-05
-0.000103491
2.17209e-05
-0.000113406
1.98252e-05
-0.000122382
1.79589e-05
-0.000130469
1.61688e-05
-0.000137572
1.42028e-05
-0.00014376
1.23808e-05
-0.000149019
1.05196e-05
-0.000153441
8.84766e-06
-0.000157034
7.1837e-06
-0.000159769
5.47914e-06
-0.000161763
3.98089e-06
-0.000162977
2.42406e-06
-0.000163452
9.58685e-07
-0.000163058
-7.76367e-07
-0.000161885
-2.35258e-06
-0.000160011
-3.74374e-06
-0.000157417
-5.18892e-06
-0.000154243
-6.34597e-06
-0.000150313
-7.85671e-06
-0.000145877
-8.86526e-06
-0.000140963
-9.82808e-06
-0.000135388
-1.11493e-05
-0.000129439
-1.19027e-05
-0.000122822
-1.3223e-05
-0.000115505
-1.46412e-05
-0.000107697
-1.56167e-05
-9.91354e-05
-1.71322e-05
-8.98058e-05
-1.86593e-05
-7.971e-05
-2.01891e-05
-6.86715e-05
-2.20843e-05
-5.67279e-05
-2.38831e-05
-4.38989e-05
-2.56612e-05
-2.98346e-05
-2.81166e-05
-1.49603e-05
-2.97499e-05
8.47985e-07
-3.16112e-05
1.76088e-05
-3.35123e-05
3.49284e-05
-3.46318e-05
5.28021e-05
-3.57359e-05
7.11302e-05
-3.66395e-05
8.94383e-05
-3.66059e-05
0.000107631
-3.63701e-05
0.00012539
-3.54998e-05
0.000142508
-3.42254e-05
0.000158683
-3.23309e-05
0.000173523
-2.96647e-05
0.00018684
-2.66276e-05
0.00019842
-2.31477e-05
0.000207988
-1.91322e-05
0.000215445
-1.49091e-05
0.000220598
-1.0299e-05
0.000223399
-5.59213e-06
0.000223833
-8.71669e-07
0.000221824
4.00667e-06
0.000217398
8.84758e-06
0.000210817
1.3154e-05
0.000202046
1.75347e-05
0.000191454
2.1174e-05
0.000179185
2.4528e-05
0.000165527
2.73046e-05
0.000150734
2.95761e-05
0.000134852
3.17506e-05
0.000118406
3.28782e-05
0.000101394
3.40167e-05
8.40937e-05
3.45884e-05
6.67558e-05
3.46706e-05
4.94163e-05
3.46704e-05
3.22854e-05
3.42532e-05
1.5636e-05
3.32911e-05
-5.41127e-07
3.23522e-05
-1.61373e-05
3.11886e-05
-3.11053e-05
2.99295e-05
-4.53441e-05
2.84739e-05
-5.8782e-05
2.68746e-05
-7.14221e-05
2.52792e-05
-8.32108e-05
2.35728e-05
-9.41052e-05
2.17881e-05
-0.000104121
2.00277e-05
-0.000113222
1.81988e-05
-0.00012143
1.64144e-05
-0.000128728
1.45975e-05
-0.000135113
1.27723e-05
-0.000140593
1.09594e-05
-0.000145176
9.1675e-06
-0.000148858
7.36502e-06
-0.000151649
5.58461e-06
-0.000153542
3.78506e-06
-0.000154566
2.05103e-06
-0.000154734
3.38167e-07
-0.000153948
-1.57093e-06
-0.000152276
-3.34415e-06
-5.1076e-06
8.76107e-05
-5.53931e-05
0.000106049
-5.52607e-05
0.000124042
-5.39168e-05
0.000141243
-5.15341e-05
0.000157641
-4.91289e-05
0.000172861
-4.55711e-05
0.000186695
-4.14316e-05
0.000198877
-3.6497e-05
0.000209154
-3.07682e-05
0.000217341
-2.4487e-05
0.00022324
-1.76505e-05
0.000226749
-1.0518e-05
0.000227793
-3.18115e-06
0.000226284
4.39796e-06
0.000222314
1.18734e-05
0.000215877
1.92827e-05
0.000207079
2.63488e-05
0.000196207
3.25915e-05
0.000183395
3.83892e-05
0.000168813
4.37124e-05
0.000152809
4.79579e-05
0.000135662
5.13672e-05
0.000117544
5.43185e-05
9.87507e-05
5.63383e-05
7.95874e-05
5.7412e-05
6.03616e-05
5.76261e-05
4.12059e-05
5.74145e-05
2.2362e-05
5.64809e-05
4.00732e-06
5.50937e-05
-1.39327e-05
5.37549e-05
-3.10858e-05
5.14348e-05
-4.73635e-05
4.8809e-05
-6.27233e-05
4.60722e-05
-7.70994e-05
4.31172e-05
-9.04827e-05
4.01469e-05
-0.000102836
3.70509e-05
-0.000114166
3.39855e-05
-0.00012451
3.10202e-05
-0.000133861
2.80666e-05
-0.000142264
2.52035e-05
-0.000149746
2.24517e-05
-0.000156333
1.97682e-05
-0.00016208
1.72389e-05
-0.000167018
1.48058e-05
-0.000171159
1.24259e-05
-0.000174528
1.01106e-05
-0.000177146
7.8616e-06
-0.000179015
5.60359e-06
-0.000180188
3.51801e-06
-0.000180678
1.50887e-06
-0.000180398
-8.32637e-07
-0.000179398
-2.99674e-06
-0.000177612
-5.35664e-06
-0.000175185
-7.26082e-06
-0.000171958
-9.71132e-06
-0.000167951
-1.20328e-05
-0.000163151
-1.43969e-05
-0.000157615
-1.66128e-05
-0.000151163
-1.93276e-05
-0.000143862
-2.19491e-05
-0.000135582
-2.48462e-05
-0.000126393
-2.75631e-05
-0.000116366
-3.00923e-05
-0.000105386
-3.29463e-05
-9.34118e-05
-3.59172e-05
-8.06878e-05
-3.81483e-05
-6.70015e-05
-4.10434e-05
-5.25104e-05
-4.34577e-05
-3.72116e-05
-4.58414e-05
-2.10956e-05
-4.8358e-05
-4.52629e-06
-4.96842e-05
1.24758e-05
-5.1e-05
2.99514e-05
-5.24107e-05
4.755e-05
-5.2759e-05
6.53107e-05
-5.326e-05
8.2955e-05
-5.28852e-05
0.000100337
-5.21118e-05
0.000117296
-5.08412e-05
0.000133666
-4.90577e-05
0.000149206
-4.65898e-05
0.000163671
-4.33465e-05
0.000176944
-3.97537e-05
0.000188747
-3.53835e-05
0.000198896
-3.03387e-05
0.000207249
-2.50761e-05
0.000213643
-1.91524e-05
0.000217854
-1.26555e-05
0.000219917
-6.15681e-06
0.00021966
7.19582e-07
0.000217164
7.44149e-06
0.00021241
1.42849e-05
0.000205369
2.10932e-05
0.000196232
2.7334e-05
0.000185195
3.31335e-05
0.00017228
3.86168e-05
0.000157874
4.31782e-05
0.000142123
4.72096e-05
0.000125216
5.0622e-05
0.000107442
5.32991e-05
8.90329e-05
5.51718e-05
7.02255e-05
5.63664e-05
5.12923e-05
5.67638e-05
3.23512e-05
5.67575e-05
1.3776e-05
5.57052e-05
-4.35594e-06
5.43684e-05
-2.18139e-05
5.23547e-05
-3.85031e-05
5.00519e-05
-5.43248e-05
4.74252e-05
-6.91646e-05
4.44917e-05
-8.29649e-05
4.13943e-05
-9.56938e-05
3.81655e-05
-0.000107347
3.49997e-05
-0.000117917
3.17042e-05
-0.000127436
2.85701e-05
-0.000135913
2.54294e-05
-0.000143388
2.24514e-05
-0.000149961
1.9717e-05
-0.000155592
1.6877e-05
-0.000160336
1.43168e-05
-0.000164295
1.18168e-05
-0.000167384
9.2938e-06
-0.000169775
7.15026e-06
-0.000171403
4.80487e-06
-0.000172322
2.84052e-06
-0.000172539
7.1937e-07
-0.000172193
-1.07077e-06
-0.000171148
-3.13965e-06
-0.000169512
-4.91524e-06
-0.000167272
-6.72731e-06
-0.000164442
-8.4596e-06
-0.000161066
-1.01363e-05
-0.000157116
-1.18562e-05
-0.000152671
-1.33392e-05
-0.000147605
-1.52058e-05
-0.000142066
-1.66206e-05
-0.000135862
-1.86122e-05
-0.000129175
-2.00705e-05
-0.000121809
-2.20601e-05
-0.00011391
-2.37299e-05
-0.000105325
-2.57552e-05
-9.60306e-05
-2.78939e-05
-8.60747e-05
-2.98684e-05
-7.54031e-05
-3.20223e-05
-6.40255e-05
-3.41316e-05
-5.19379e-05
-3.63519e-05
-3.91552e-05
-3.82764e-05
-2.56565e-05
-4.04811e-05
-1.15258e-05
-4.2357e-05
3.21132e-06
-4.41926e-05
1.84106e-05
-4.55661e-05
3.39991e-05
-4.67435e-05
4.98916e-05
-4.7642e-05
6.59262e-05
-4.80852e-05
8.19763e-05
-4.81323e-05
9.79011e-05
-4.7716e-05
0.000113468
-4.67012e-05
0.000128497
-4.50233e-05
0.0001428
-4.28364e-05
0.000156066
-3.97557e-05
0.00016815
-3.61834e-05
0.000178764
-3.18058e-05
0.000187758
-2.69284e-05
0.000194881
-2.13352e-05
0.000200017
-1.54041e-05
0.000202978
-8.85471e-06
0.000203715
-2.20045e-06
0.000202185
4.58027e-06
0.000198316
1.15802e-05
0.000192226
1.82609e-05
0.000183973
2.47294e-05
0.000173748
3.06903e-05
0.000161668
3.61122e-05
0.000148066
4.07622e-05
0.000133184
4.45187e-05
0.00011729
4.77051e-05
0.000100634
4.99282e-05
8.34475e-05
5.15557e-05
6.59093e-05
5.25221e-05
4.83245e-05
5.27348e-05
3.08119e-05
5.24741e-05
1.36425e-05
5.14715e-05
-3.02682e-06
4.99754e-05
-1.90292e-05
4.79784e-05
-3.42453e-05
4.56351e-05
-4.85871e-05
4.29988e-05
-6.19603e-05
4.01192e-05
-7.43922e-05
3.73088e-05
-8.58451e-05
3.43494e-05
-9.63267e-05
3.1428e-05
-0.000105964
2.8971e-05
-0.000114656
2.60545e-05
-0.000122508
2.35562e-05
-0.00012948
2.09096e-05
-0.000135624
1.84174e-05
-0.000141021
1.62315e-05
-0.000145611
1.37682e-05
-0.000149479
1.16132e-05
-0.000152678
9.53326e-06
-0.000155274
7.87353e-06
-0.000157276
5.96135e-06
-0.000158747
4.46242e-06
-0.000159721
2.91946e-06
-0.000160182
1.37853e-06
-0.000160202
7.82478e-08
-0.000159731
-1.42145e-06
-0.000158826
-2.70264e-06
-0.000157412
-4.2685e-06
-0.000155563
-5.53975e-06
-0.000153184
-7.20651e-06
-0.00015035
-8.43095e-06
-0.000146923
-1.03028e-05
-0.00014303
-1.16777e-05
-0.000138517
-1.35452e-05
-0.000133359
-1.55061e-05
-0.000127515
-1.75232e-05
-0.000120964
-1.97074e-05
-0.000113686
-2.18172e-05
-0.000105606
-2.42173e-05
-9.67132e-05
-2.66797e-05
-8.7075e-05
-2.89144e-05
-7.66065e-05
-3.14187e-05
-6.52868e-05
-3.39512e-05
-5.31558e-05
-3.63896e-05
-4.01463e-05
-3.90249e-05
-2.63265e-05
-4.14615e-05
-1.17512e-05
-4.37013e-05
3.5392e-06
-4.58479e-05
1.94363e-05
-4.768e-05
3.58046e-05
-4.90585e-05
5.25751e-05
-5.02567e-05
6.94881e-05
-5.0709e-05
8.64393e-05
-5.08122e-05
0.000103185
-5.02199e-05
0.000119507
-4.88948e-05
0.000135134
-4.68171e-05
0.000149843
-4.40672e-05
0.000163366
-4.05312e-05
0.000175481
-3.62554e-05
0.000185888
-3.11407e-05
0.000194367
-2.54307e-05
0.000200799
-1.92703e-05
0.000205018
-1.26417e-05
0.000206963
-5.82257e-06
0.000206562
1.16685e-06
0.00020382
8.20324e-06
0.000198766
1.51595e-05
0.00019153
2.16689e-05
0.000182209
2.79047e-05
0.000171014
3.35699e-05
0.000158124
3.86203e-05
0.000143816
4.2877e-05
0.000128357
4.63284e-05
0.000111976
4.90938e-05
9.49263e-05
5.1109e-05
7.74112e-05
5.24997e-05
5.96909e-05
5.30958e-05
4.20041e-05
5.3018e-05
2.45419e-05
5.23613e-05
7.43541e-06
5.12772e-05
-9.1192e-06
4.96134e-05
-2.50565e-05
4.77452e-05
-4.0241e-05
4.56084e-05
-5.46525e-05
4.32849e-05
-6.82574e-05
4.0781e-05
-8.09814e-05
3.81387e-05
-9.27683e-05
3.53589e-05
-0.000103631
3.25832e-05
-0.00011355
2.97443e-05
-0.000122508
2.69167e-05
-0.000130592
2.42537e-05
-0.000137702
2.1312e-05
-0.000143879
1.85587e-05
-0.000149133
1.5773e-05
-0.000153543
1.32581e-05
-0.000157141
1.07811e-05
-0.000159865
8.20341e-06
-0.00016187
5.98595e-06
-0.000163076
3.63029e-06
-0.000163526
1.40795e-06
-0.000163114
-1.18826e-06
-0.000161976
-3.49057e-06
-0.000160071
-5.64806e-06
-0.000157478
-7.7824e-06
-0.000154297
-9.52665e-06
-0.000150365
-1.17893e-05
-0.000145928
-1.33018e-05
-0.000141013
-1.47437e-05
-0.000135433
-1.67293e-05
-0.000129483
-1.78524e-05
-0.000122851
-1.9855e-05
-0.000115554
-2.19386e-05
-0.000107753
-2.34177e-05
-9.92026e-05
-2.56826e-05
-8.98749e-05
-2.79871e-05
-7.97793e-05
-3.02847e-05
-6.87513e-05
-3.31125e-05
-5.6803e-05
-3.58315e-05
-4.3987e-05
-3.84773e-05
-2.9907e-05
-4.21966e-05
-1.50317e-05
-4.46253e-05
7.8225e-07
-4.74253e-05
1.75561e-05
-5.02862e-05
3.48896e-05
-5.19654e-05
5.27781e-05
-5.36246e-05
7.11266e-05
-5.49881e-05
8.94594e-05
-5.49388e-05
0.000107674
-5.45852e-05
0.000125455
-5.32808e-05
0.000142602
-5.13725e-05
0.0001588
-4.85287e-05
0.000173664
-4.45284e-05
0.000187006
-3.99704e-05
0.000198606
-3.47477e-05
0.000208188
-2.87145e-05
0.000215667
-2.23879e-05
0.000220837
-1.54687e-05
0.000223643
-8.39872e-06
0.000224052
-1.28047e-06
0.000221998
6.06076e-06
0.000217576
1.32686e-05
0.000210974
1.97559e-05
0.000202194
2.6315e-05
0.000191582
3.17855e-05
0.000179299
3.68113e-05
0.000165619
4.09844e-05
0.000150812
4.43837e-05
0.00013491
4.76519e-05
0.000118438
4.935e-05
0.000101417
5.10384e-05
8.40973e-05
5.19076e-05
6.67534e-05
5.20144e-05
4.94011e-05
5.20226e-05
3.22577e-05
5.13965e-05
1.55952e-05
4.99536e-05
-5.88072e-07
4.85354e-05
-1.61917e-05
4.67922e-05
-3.11652e-05
4.4903e-05
-4.54107e-05
4.27195e-05
-5.88552e-05
4.03191e-05
-7.14965e-05
3.79205e-05
-8.32892e-05
3.53655e-05
-9.41817e-05
3.26805e-05
-0.000104199
3.00448e-05
-0.000113299
2.72986e-05
-0.000121506
2.46218e-05
-0.000128807
2.18983e-05
-0.00013519
1.91554e-05
-0.000140665
1.64343e-05
-0.000145245
1.37479e-05
-0.000148926
1.10457e-05
-0.000151719
8.37729e-06
-0.000153614
5.68101e-06
-0.000154638
3.07471e-06
-0.000154802
5.02234e-07
-0.000154015
-2.35774e-06
-0.000152342
-5.01784e-06
-7.66284e-06
8.76406e-05
-7.38975e-05
0.000106114
-7.37342e-05
0.000124146
-7.19494e-05
0.000141389
-6.87775e-05
0.000157832
-6.55719e-05
0.0001731
-6.08397e-05
0.000186982
-5.5313e-05
0.000199206
-4.87218e-05
0.000209518
-4.10802e-05
0.000217733
-3.27028e-05
0.000223648
-2.35653e-05
0.00022717
-1.40404e-05
0.000228199
-4.20981e-06
0.000226607
5.98996e-06
0.000222598
1.58818e-05
0.000216143
2.57371e-05
0.000207318
3.51737e-05
0.000196431
4.34789e-05
0.000183591
5.12286e-05
0.00016899
5.83137e-05
0.000152961
6.39869e-05
0.000135767
6.85605e-05
0.000117629
7.2457e-05
9.88171e-05
7.51499e-05
7.96044e-05
7.66246e-05
6.0349e-05
7.68814e-05
4.11632e-05
7.66003e-05
2.229e-05
7.5354e-05
3.95461e-06
7.3429e-05
-1.40289e-05
7.17383e-05
-3.11953e-05
6.86012e-05
-4.74835e-05
6.50972e-05
-6.28498e-05
6.14384e-05
-7.72319e-05
5.74993e-05
-9.06184e-05
5.35334e-05
-0.000102974
4.94069e-05
-0.000114308
4.53186e-05
-0.000124655
4.13676e-05
-0.000134002
3.74134e-05
-0.000142404
3.36058e-05
-0.000149885
2.99322e-05
-0.000156471
2.63551e-05
-0.000162217
2.29842e-05
-0.000167155
1.97436e-05
-0.000171296
1.65673e-05
-0.000174665
1.34796e-05
-0.000177282
1.04788e-05
-0.000179157
7.47809e-06
-0.000180333
4.6943e-06
-0.000180783
1.95871e-06
-0.000180487
-1.12822e-06
-0.000179485
-3.99925e-06
-0.000177699
-7.14261e-06
-0.000175264
-9.69548e-06
-0.000172049
-1.29262e-05
-0.000168048
-1.60342e-05
-0.000163248
-1.91965e-05
-0.000157715
-2.21463e-05
-0.000151252
-2.57904e-05
-0.000143978
-2.92238e-05
-0.000135697
-3.31269e-05
-0.000126511
-3.67492e-05
-0.00011649
-4.01132e-05
-0.000105508
-4.39286e-05
-9.35313e-05
-4.78938e-05
-8.07978e-05
-5.08819e-05
-6.71021e-05
-5.47392e-05
-5.26005e-05
-5.79593e-05
-3.7262e-05
-6.118e-05
-2.11657e-05
-6.44544e-05
-4.58039e-06
-6.62696e-05
1.24225e-05
-6.8003e-05
2.99031e-05
-6.98915e-05
4.75203e-05
-7.03763e-05
6.52984e-05
-7.10383e-05
8.29678e-05
-7.05548e-05
0.000100364
-6.95084e-05
0.000117351
-6.78282e-05
0.000133749
-6.54555e-05
0.0001493
-6.21412e-05
0.000163795
-5.78415e-05
0.000177104
-5.3063e-05
0.000188919
-4.7198e-05
0.000199123
-4.05431e-05
0.000207467
-3.34202e-05
0.000213889
-2.55743e-05
0.000218082
-1.68491e-05
0.000220149
-8.22379e-06
0.000219866
1.00284e-06
0.000217352
9.95477e-06
0.000212572
1.90652e-05
0.000205534
2.81308e-05
0.000196379
3.64892e-05
0.000185297
4.42158e-05
0.000172371
5.15424e-05
0.000157937
5.76121e-05
0.000142155
6.29914e-05
0.000125216
6.7561e-05
0.00010742
7.10956e-05
8.89652e-05
7.36262e-05
7.01251e-05
7.52064e-05
5.11424e-05
7.57464e-05
3.2203e-05
7.56969e-05
1.3602e-05
7.43062e-05
-4.53526e-06
7.25056e-05