/*--------------------------------*- C++ -*----------------------------------*\
| =========                 |                                                 |
| \\      /  F ield         | OpenFOAM: The Open Source CFD Toolbox           |
|  \\    /   O peration     | Version:  3.0.1                                 |
|   \\  /    A nd           | Web:      www.OpenFOAM.org                      |
|    \\/     M anipulation  |                                                 |
\*---------------------------------------------------------------------------*/
FoamFile
{
    version     2.0;
    format      ascii;
    class       surfaceScalarField;
    location    "76";
    object      phi;
}
// * * * * * * * * * * * * * * * * * * * * * * * * * * * * * * * * * * * * * //

dimensions      [0 3 -1 0 0 0 0];

internalField   nonuniform List<scalar> 
42423
(
7.7992e-05
1.23422e-05
6.6762e-05
1.123e-05
5.6544e-05
1.0218e-05
4.73123e-05
9.23167e-06
3.90912e-05
8.22114e-06
3.17832e-05
7.30796e-06
2.53866e-05
6.39663e-06
1.98059e-05
5.58071e-06
1.49884e-05
4.81748e-06
1.08707e-05
4.11767e-06
7.40343e-06
3.46731e-06
4.58238e-06
2.82105e-06
2.27167e-06
2.31071e-06
4.65342e-07
1.80632e-06
-8.93055e-07
1.35839e-06
-1.79e-06
8.96943e-07
-2.26676e-06
4.76758e-07
-2.29205e-06
2.52906e-08
-1.87609e-06
-4.1597e-07
-1.09484e-06
-7.81251e-07
9.34099e-08
-1.18825e-06
1.78007e-06
-1.68666e-06
3.87688e-06
-2.09682e-06
6.54585e-06
-2.66897e-06
9.71292e-06
-3.16709e-06
1.34545e-05
-3.7416e-06
1.78012e-05
-4.34669e-06
2.25588e-05
-4.75765e-06
2.7956e-05
-5.39722e-06
3.40096e-05
-6.05357e-06
4.04771e-05
-6.46747e-06
4.76139e-05
-7.13682e-06
5.53015e-05
-7.6877e-06
6.37094e-05
-8.40794e-06
7.28607e-05
-9.15127e-06
8.24943e-05
-9.63361e-06
9.28368e-05
-1.03426e-05
0.000104036
-1.11988e-05
0.00011575
-1.1714e-05
0.000128225
-1.24757e-05
0.000141408
-1.3183e-05
0.000155291
-1.38835e-05
0.000169994
-1.47024e-05
0.000185126
-1.51327e-05
0.000200707
-1.55809e-05
0.000216836
-1.61284e-05
0.000233073
-1.62376e-05
0.000249313
-1.62403e-05
0.000265571
-1.6258e-05
0.000281405
-1.58336e-05
0.000296666
-1.52616e-05
0.000311136
-1.447e-05
0.000324594
-1.34574e-05
0.000336907
-1.23132e-05
0.00034775
-1.0844e-05
0.000356914
-9.16329e-06
0.00036429
-7.3762e-06
0.000369627
-5.33745e-06
0.00037295
-3.32288e-06
0.000374088
-1.13851e-06
0.000373291
7.97757e-07
0.00037039
2.90033e-06
0.000365277
5.11333e-06
0.000358172
7.10494e-06
0.000349264
8.90787e-06
0.000338559
1.0705e-05
0.000326327
1.22319e-05
0.000312688
1.36388e-05
0.000297816
1.48722e-05
0.000281775
1.60411e-05
0.000264595
1.71793e-05
0.00024645
1.81458e-05
0.000227505
1.89447e-05
0.000207962
1.95429e-05
0.000188122
1.98402e-05
0.000168329
1.97928e-05
0.000148815
1.95139e-05
0.000129961
1.88535e-05
0.000112033
1.79282e-05
9.51476e-05
1.68857e-05
7.945e-05
1.56976e-05
6.50513e-05
1.43987e-05
5.19402e-05
1.31111e-05
4.00647e-05
1.18755e-05
2.94089e-05
1.06557e-05
1.98617e-05
9.54725e-06
1.13201e-05
8.54154e-06
3.96007e-06
7.36006e-06
-2.17134e-06
6.1314e-06
-8.0543e-06
5.88296e-06
-1.33521e-05
5.29782e-06
-1.8119e-05
4.76685e-06
-2.24054e-05
4.28643e-06
-2.61853e-05
3.77992e-06
-2.94579e-05
3.27259e-06
-3.22733e-05
2.81536e-06
-3.46196e-05
2.34633e-06
-3.64376e-05
1.81803e-06
-3.76982e-05
1.26057e-06
-3.85592e-05
8.6095e-07
-3.89141e-05
3.54962e-07
-3.87877e-05
-1.26455e-07
-3.81656e-05
-6.22106e-07
-3.71429e-05
-1.02266e-06
-3.56039e-05
-1.53898e-06
-3.36142e-05
-1.9897e-06
-3.11466e-05
-2.46761e-06
-2.81739e-05
-2.97269e-06
-2.46741e-05
-3.49988e-06
-2.06375e-05
-4.03655e-06
-1.60233e-05
-4.61427e-06
-1.08895e-05
-5.13375e-06
-5.13039e-06
-5.75914e-06
1.26395e-06
-6.39436e-06
8.26368e-06
-6.99975e-06
1.59356e-05
-7.67189e-06
2.42571e-05
-8.32162e-06
3.32478e-05
-8.9907e-06
4.29263e-05
-9.67856e-06
5.33303e-05
-1.0404e-05
6.44393e-05
-1.1109e-05
7.63057e-05
-1.18665e-05
8.88998e-05
-1.25941e-05
0.000102195
-1.32952e-05
0.0001162
-1.40053e-05
0.000130807
-1.46071e-05
0.000145976
-1.51688e-05
0.000161562
-1.55865e-05
0.000177507
-1.59446e-05
0.000193573
-1.60667e-05
0.000209629
-1.60557e-05
0.000225536
-1.59069e-05
0.000241018
-1.54824e-05
0.00025596
-1.49421e-05
0.000270168
-1.42077e-05
0.000283426
-1.32583e-05
0.000295595
-1.21695e-05
0.000306475
-1.08795e-05
0.000315841
-9.36576e-06
0.000323614
-7.77391e-06
0.000329522
-5.90819e-06
0.00033349
-3.96792e-06
0.0003354
-1.90944e-06
0.000335205
1.94833e-07
0.00033281
2.39472e-06
0.000328161
4.64889e-06
0.000321421
6.73944e-06
0.000312701
8.72034e-06
0.000302135
1.0566e-05
0.000289915
1.22202e-05
0.000276259
1.36552e-05
0.000261407
1.4852e-05
0.000245662
1.57447e-05
0.000229122
1.65406e-05
0.000212225
1.68965e-05
0.000195206
1.7019e-05
0.000178307
1.68994e-05
0.000161812
1.64949e-05
0.000145861
1.59506e-05
0.000130656
1.52054e-05
0.000116275
1.43802e-05
0.000102807
1.34683e-05
9.02188e-05
1.25884e-05
7.85687e-05
1.165e-05
6.7819e-05
1.07496e-05
5.79467e-05
9.87227e-06
4.89038e-05
9.04292e-06
4.06773e-05
8.22647e-06
3.32053e-05
7.472e-06
2.64309e-05
6.77438e-06
2.03469e-05
6.08393e-06
1.49479e-05
5.39898e-06
1.01935e-05
4.75444e-06
6.08841e-06
4.10503e-06
2.57527e-06
3.51312e-06
-3.68038e-07
2.94329e-06
-2.80961e-06
2.44156e-06
-4.72628e-06
1.91665e-06
-6.1168e-06
1.39051e-06
-6.96333e-06
8.4651e-07
-7.28199e-06
3.18658e-07
-7.01802e-06
-2.63986e-07
-6.20693e-06
-8.111e-07
-4.80412e-06
-1.40281e-06
-2.91292e-06
-1.8912e-06
-5.09971e-07
-2.40296e-06
2.30703e-06
-2.817e-06
5.63312e-06
-3.32609e-06
9.37387e-06
-3.74076e-06
1.35336e-05
-4.15976e-06
1.80914e-05
-4.55778e-06
2.30791e-05
-4.98766e-06
2.84898e-05
-5.41071e-06
3.43493e-05
-5.85951e-06
4.07297e-05
-6.38047e-06
4.76457e-05
-6.91602e-06
5.51731e-05
-7.52741e-06
6.34057e-05
-8.23253e-06
7.23274e-05
-8.92172e-06
8.19791e-05
-9.65173e-06
9.2367e-05
-1.03879e-05
0.000103457
-1.10901e-05
0.000115305
-1.18475e-05
0.000127878
-1.25729e-05
0.000141201
-1.33238e-05
0.00015528
-1.40788e-05
0.000170093
-1.48126e-05
0.000185625
-1.55329e-05
0.000201793
-1.61673e-05
0.000218488
-1.66949e-05
0.000235528
-1.70401e-05
0.000252762
-1.72347e-05
0.000269932
-1.71698e-05
0.000286816
-1.6884e-05
0.000303181
-1.63656e-05
0.000318773
-1.55916e-05
0.000333347
-1.45738e-05
0.000346688
-1.33411e-05
0.00035856
-1.18726e-05
0.000368747
-1.01862e-05
0.000377018
-8.27153e-06
0.000383172
-6.15427e-06
0.000387057
-3.88469e-06
0.000388546
-1.48959e-06
0.000387618
9.28098e-07
0.000384058
3.56049e-06
0.000377897
6.1602e-06
0.000369339
8.55806e-06
0.000358557
1.0782e-05
0.000345798
1.27592e-05
0.000331374
1.44242e-05
0.000315592
1.57814e-05
0.000298753
1.68392e-05
0.000281173
1.75802e-05
0.000263086
1.80867e-05
0.0002447
1.83859e-05
0.000226227
1.84726e-05
0.000207831
1.83962e-05
0.000189691
1.81404e-05
0.000172022
1.76686e-05
0.000154999
1.70232e-05
0.000138823
1.61757e-05
0.000123637
1.51863e-05
0.000109618
1.40184e-05
9.68373e-05
1.27811e-05
8.52937e-05
1.15436e-05
7.49225e-05
1.03711e-05
6.56555e-05
9.26701e-06
5.73813e-05
8.27419e-06
5.00194e-05
7.36193e-06
4.34973e-05
6.52204e-06
3.77509e-05
5.74636e-06
3.27513e-05
4.99959e-06
2.84554e-05
4.29589e-06
2.48349e-05
3.62051e-06
2.18699e-05
2.96506e-06
1.95357e-05
2.33416e-06
1.78137e-05
1.72196e-06
1.66661e-05
1.14766e-06
1.60461e-05
6.19986e-07
1.58754e-05
1.70684e-07
1.61153e-05
-2.39946e-07
1.6672e-05
-5.56642e-07
1.74538e-05
-7.81822e-07
1.83952e-05
-9.41464e-07
1.95454e-05
-1.15017e-06
2.08945e-05
-1.34915e-06
2.23899e-05
-1.49536e-06
2.40308e-05
-1.64089e-06
2.57936e-05
-1.76285e-06
2.7685e-05
-1.8914e-06
2.97349e-05
-2.04985e-06
3.19371e-05
-2.20227e-06
3.4415e-05
-2.47792e-06
3.72722e-05
-2.85715e-06
4.06093e-05
-3.33711e-06
4.45715e-05
-3.96227e-06
4.93308e-05
-4.75927e-06
5.49465e-05
-5.61572e-06
6.18409e-05
-6.89449e-06
6.99323e-05
-8.09138e-06
7.9129e-05
-9.19676e-06
8.94727e-05
-1.03437e-05
0.000100944
-1.14717e-05
0.00011332
-1.23759e-05
0.000126639
-1.33188e-05
0.000140684
-1.40455e-05
0.000155339
-1.46551e-05
0.000170536
-1.51968e-05
0.000186026
-1.54902e-05
0.000201771
-1.57454e-05
0.000217745
-1.59733e-05
0.000233758
-1.6014e-05
0.000249801
-1.60425e-05
0.000265788
-1.59876e-05
0.00028159
-1.58018e-05
0.000297182
-1.55917e-05
0.000312336
-1.51548e-05
0.000327007
-1.46705e-05
0.000340904
-1.38976e-05
0.000353768
-1.28643e-05
0.000365413
-1.16454e-05
0.000375587
-1.01738e-05
0.000384071
-8.48355e-06
0.000390608
-6.53735e-06
0.000395021
-4.4129e-06
0.000397252
-2.23183e-06
0.000397133
1.18713e-07
0.000394947
2.18607e-06
0.0003909
4.04666e-06
0.000384928
5.97214e-06
0.000377226
7.70185e-06
0.000367871
9.35473e-06
0.000356866
1.10056e-05
0.000344655
1.22104e-05
0.000331275
1.33802e-05
0.000317107
1.4168e-05
0.000302273
1.48337e-05
0.000286841
1.54319e-05
0.000271207
1.56342e-05
0.000255481
1.57252e-05
0.000239748
1.57334e-05
0.000224317
1.54308e-05
0.000209238
1.50794e-05
0.000194717
1.45209e-05
0.000180801
1.39159e-05
0.000167539
1.32613e-05
0.000155067
1.24726e-05
0.000143379
1.16874e-05
0.000132482
1.08975e-05
0.000122414
1.00681e-05
0.000113128
9.28613e-06
0.000104585
8.54258e-06
9.67633e-05
7.82163e-06
8.95908e-05
7.17252e-06
8.30275e-05
6.56327e-06
7.69996e-05
6.02792e-06
7.14569e-05
5.54268e-06
6.63637e-05
5.09317e-06
6.16717e-05
4.69207e-06
5.73449e-05
4.32674e-06
5.33647e-05
3.98019e-06
4.97085e-05
3.6562e-06
4.63743e-05
3.33417e-06
4.33555e-05
3.01885e-06
4.06588e-05
2.69667e-06
3.83018e-05
2.35704e-06
3.62973e-05
2.00446e-06
3.46721e-05
1.62526e-06
3.34375e-05
1.23453e-06
3.2631e-05
8.06484e-07
3.22651e-05
3.6592e-07
3.24066e-05
-1.41489e-07
3.30642e-05
-6.57572e-07
3.42571e-05
-1.19297e-06
3.59917e-05
-1.73456e-06
-2.27126e-06
7.79517e-05
2.46842e-05
6.67224e-05
2.24592e-05
5.65056e-05
2.04348e-05
4.72753e-05
1.8462e-05
3.90556e-05
1.64408e-05
3.17494e-05
1.46142e-05
2.53548e-05
1.27912e-05
1.97763e-05
1.11592e-05
1.49612e-05
9.63261e-06
1.08526e-05
8.22622e-06
7.38023e-06
6.93968e-06
4.55508e-06
5.6462e-06
2.25201e-06
4.61377e-06
4.4492e-07
3.61341e-06
-9.11371e-07
2.71468e-06
-1.80763e-06
1.7932e-06
-2.28425e-06
9.53371e-07
-2.30953e-06
5.05652e-08
-1.8941e-06
-8.31407e-07
-1.11366e-06
-1.5617e-06
7.83331e-08
-2.38026e-06
1.75863e-06
-3.36697e-06
3.85285e-06
-4.19105e-06
6.52064e-06
-5.33677e-06
9.68506e-06
-6.33152e-06
1.34205e-05
-7.47708e-06
1.77666e-05
-8.6928e-06
2.25198e-05
-9.51087e-06
2.7917e-05
-1.07945e-05
3.39679e-05
-1.21044e-05
4.04315e-05
-1.29311e-05
4.75756e-05
-1.4281e-05
5.52608e-05
-1.53729e-05
6.36644e-05
-1.68116e-05
7.28172e-05
-1.83041e-05
8.24506e-05
-1.92671e-05
9.27924e-05
-2.06845e-05
0.00010399
-2.23967e-05
0.000115703
-2.34265e-05
0.000128185
-2.49578e-05
0.00014136
-2.63588e-05
0.000155243
-2.7766e-05
0.000169963
-2.94225e-05
0.000185102
-3.02719e-05
0.000200684
-3.11633e-05
0.00021682
-3.22649e-05
0.000233066
-3.24834e-05
0.000249316
-3.24907e-05
0.000265589
-3.25305e-05
0.000281428
-3.16736e-05
0.000296701
-3.05346e-05
0.000311186
-2.89551e-05
0.00032466
-2.69311e-05
0.000336981
-2.46343e-05
0.000347846
-2.17087e-05
0.000357028
-1.83461e-05
0.00036442
-1.47678e-05
0.000369766
-1.06843e-05
0.000373091
-6.64772e-06
0.000374233
-2.28032e-06
0.000373424
1.60691e-06
0.000370521
5.80284e-06
0.000365406
1.02277e-05
0.000358297
1.42147e-05
0.000349381
1.78229e-05
0.000338667
2.14196e-05
0.000326425
2.44734e-05
0.000312777
2.72865e-05
0.000297897
2.97531e-05
0.000281851
3.20865e-05
0.00026467
3.43604e-05
0.000246524
3.62915e-05
0.000227582
3.78864e-05
0.000208044
3.90814e-05
0.000188211
3.96727e-05
0.000168427
3.95775e-05
0.000148923
3.90173e-05
0.000130082
3.76948e-05
0.000112161
3.58489e-05
9.529e-05
3.37568e-05
7.96164e-05
3.13712e-05
6.52384e-05
2.87767e-05
5.21423e-05
2.62072e-05
4.02833e-05
2.37345e-05
2.96362e-05
2.13028e-05
2.01082e-05
1.90752e-05
1.16283e-05
1.70214e-05
4.19045e-06
1.47979e-05
-1.93139e-06
1.22532e-05
-7.80739e-06
1.17589e-05
-1.30989e-05
1.05894e-05
-1.78602e-05
9.5281e-06
-2.21418e-05
8.56799e-06
-2.59238e-05
7.562e-06
-2.92156e-05
6.56431e-06
-3.20167e-05
5.61651e-06
-3.43585e-05
4.68815e-06
-3.61744e-05
3.63384e-06
-3.74825e-05
2.56874e-06
-3.83098e-05
1.68819e-06
-3.86588e-05
7.04007e-07
-3.85348e-05
-2.50504e-07
-3.79482e-05
-1.20872e-06
-3.68969e-05
-2.0739e-06
-3.53486e-05
-3.08736e-06
-3.33782e-05
-3.96009e-06
-3.09098e-05
-4.936e-06
-2.79398e-05
-5.9427e-06
-2.44448e-05
-6.99487e-06
-2.04271e-05
-8.05428e-06
-1.58009e-05
-9.24049e-06
-1.06586e-05
-1.02761e-05
-4.91435e-06
-1.15035e-05
1.47967e-06
-1.27884e-05
8.48671e-06
-1.40068e-05
1.61734e-05
-1.53587e-05
2.44753e-05
-1.66236e-05
3.34576e-05
-1.7973e-05
4.31747e-05
-1.93958e-05
5.35551e-05
-2.07845e-05
6.46653e-05
-2.22193e-05
7.65454e-05
-2.37467e-05
8.90981e-05
-2.51469e-05
0.000102422
-2.66189e-05
0.00011642
-2.80036e-05
0.000131077
-2.92646e-05
0.00014622
-3.03119e-05
0.000161857
-3.12235e-05
0.000177757
-3.18447e-05
0.000193864
-3.21741e-05
0.000209896
-3.20883e-05
0.000225791
-3.18016e-05
0.000241299
-3.09908e-05
0.000256246
-2.98888e-05
0.000270456
-2.8418e-05
0.000283729
-2.6532e-05
0.000295925
-2.43659e-05
0.000306763
-2.17177e-05
0.000316122
-1.87242e-05
0.000323867
-1.55198e-05
0.00032979
-1.18313e-05
0.000333739
-7.91634e-06
0.000335639
-3.80956e-06
0.000335418
4.15585e-07
0.000332993
4.81875e-06
0.000328328
9.31388e-06
0.000321565
1.35021e-05
0.000312817
1.74684e-05
0.000302227
2.11566e-05
0.000289974
2.4473e-05
0.00027629
2.73384e-05
0.000261406
2.97358e-05
0.000245606
3.15447e-05
0.000229065
3.30817e-05
0.00021216
3.3801e-05
0.000195135
3.40445e-05
0.000178189
3.38456e-05
0.00016166
3.30235e-05
0.000145687
3.19231e-05
0.000130489
3.04038e-05
0.000116098
2.87708e-05
0.000102618
2.69485e-05
9.00267e-05
2.51796e-05
7.83764e-05
2.33003e-05
6.76146e-05
2.15113e-05
5.77399e-05
1.97469e-05
4.87004e-05
1.80823e-05
4.04707e-05
1.64561e-05
3.29945e-05
1.49481e-05
2.62312e-05
1.35376e-05
2.01557e-05
1.21594e-05
1.47578e-05
1.07969e-05
1.00137e-05
9.4985e-06
5.91282e-06
8.20584e-06
2.40272e-06
7.02319e-06
-5.30302e-07
5.87628e-06
-2.95477e-06
4.866e-06
-4.87175e-06
3.83361e-06
-6.2409e-06
2.75964e-06
-7.1115e-06
1.71709e-06
-7.42236e-06
6.29495e-07
-7.18161e-06
-5.04748e-07
-6.36321e-06
-1.62951e-06
-4.97118e-06
-2.79487e-06
-3.04964e-06
-3.81275e-06
-6.56506e-07
-4.7961e-06
2.17514e-06
-5.64865e-06
5.49357e-06
-6.64453e-06
9.2356e-06
-7.4828e-06
1.34012e-05
-8.3254e-06
1.79629e-05
-9.11944e-06
2.29479e-05
-9.97269e-06
2.83555e-05
-1.08183e-05
3.42131e-05
-1.17171e-05
4.05838e-05
-1.27512e-05
4.75008e-05
-1.38331e-05
5.50311e-05
-1.50577e-05
6.32559e-05
-1.64573e-05
7.21785e-05
-1.78444e-05
8.18237e-05
-1.92969e-05
9.2211e-05
-2.07753e-05
0.00010331
-2.21892e-05
0.000115152
-2.36899e-05
0.000127715
-2.51357e-05
0.00014104
-2.6649e-05
0.000155123
-2.81614e-05
0.000169946
-2.96357e-05
0.00018549
-3.10777e-05
0.000201665
-3.23421e-05
0.000218357
-3.33874e-05
0.000235419
-3.41022e-05
0.000252672
-3.44873e-05
0.000269851
-3.43488e-05
0.000286752
-3.37856e-05
0.000303124
-3.27377e-05
0.000318726
-3.11933e-05
0.000333312
-2.91598e-05
0.000346668
-2.66972e-05
0.000358558
-2.37633e-05
0.00036875
-2.03778e-05
0.000377029
-1.65511e-05
0.000383202
-1.23278e-05
0.000387095
-7.7777e-06
0.000388592
-2.9869e-06
0.000387642
1.87843e-06
0.000384078
7.12393e-06
0.000377934
1.23045e-05
0.00036937
1.71222e-05
0.000358576
2.15758e-05
0.000345804
2.55303e-05
0.000331353
2.88759e-05
0.000315558
3.15763e-05
0.000298713
3.36833e-05
0.000281119
3.51741e-05
0.000263021
3.61851e-05
0.000244629
3.67778e-05
0.000226142
3.6959e-05
0.000207735
3.68036e-05
0.000189603
3.62719e-05
0.000171928
3.53442e-05
0.000154882
3.40687e-05
0.000138698
3.23599e-05
0.000123518
3.03662e-05
0.000109493
2.80435e-05
9.67053e-05
2.55685e-05
8.51647e-05
2.30841e-05
7.47963e-05
2.07395e-05
6.55254e-05
1.85379e-05
5.72517e-05
1.65479e-05
4.98988e-05
1.47148e-05
4.33769e-05
1.30439e-05
3.76359e-05
1.14873e-05
3.26364e-05
9.99906e-06
2.83292e-05
8.6031e-06
2.47061e-05
7.24352e-06
2.17467e-05
5.92449e-06
1.94181e-05
4.66278e-06
1.76975e-05
3.44248e-06
1.65406e-05
2.30459e-06
1.59172e-05
1.2434e-06
1.57527e-05
3.35113e-07
1.59975e-05
-4.84706e-07
1.65479e-05
-1.10703e-06
1.73319e-05
-1.56592e-06
1.82777e-05
-1.88724e-06
1.94228e-05
-2.29524e-06
2.07755e-05
-2.70183e-06
2.22754e-05
-2.99533e-06
2.39208e-05
-3.2863e-06
2.56946e-05
-3.53662e-06
2.75873e-05
-3.78416e-06
2.96319e-05
-4.09441e-06
3.18431e-05
-4.41355e-06
3.43301e-05
-4.96496e-06
3.71823e-05
-5.70936e-06
4.05184e-05
-6.67319e-06
4.44825e-05
-7.92643e-06
4.9242e-05
-9.51884e-06
5.48573e-05
-1.12311e-05
6.17502e-05
-1.37874e-05
6.98366e-05
-1.61779e-05
7.90289e-05
-1.83892e-05
8.93678e-05
-2.06828e-05
0.000100837
-2.29407e-05
0.00011321
-2.4749e-05
0.000126525
-2.66338e-05
0.000140568
-2.80895e-05
0.000155224
-2.93111e-05
0.000170423
-3.0396e-05
0.000185916
-3.0983e-05
0.000201666
-3.14965e-05
0.000217646
-3.1953e-05
0.000233666
-3.20345e-05
0.000249717
-3.20938e-05
0.000265716
-3.19862e-05
0.000281523
-3.16091e-05
0.00029712
-3.11898e-05
0.000312278
-3.03131e-05
0.000326916
-2.93084e-05
0.000340753
-2.77349e-05
0.00035361
-2.57214e-05
0.000365321
-2.33567e-05
0.000375473
-2.0326e-05
0.000383884
-1.68945e-05
0.000390486
-1.31393e-05
0.000394903
-8.83101e-06
0.000397097
-4.42564e-06
0.000397062
1.53216e-07
0.000394969
4.27886e-06
0.000390959
8.05613e-06
0.000384999
1.19325e-05
0.000377294
1.54067e-05
0.000367933
1.8715e-05
0.000356921
2.20181e-05
0.000344703
2.44281e-05
0.000331315
2.67682e-05
0.000317139
2.83435e-05
0.000302298
2.9675e-05
0.000286858
3.08714e-05
0.000271216
3.12757e-05
0.000255484
3.14574e-05
0.000239744
3.14734e-05
0.000224307
3.08675e-05
0.000209223
3.01639e-05
0.000194697
2.90463e-05
0.000180778
2.78356e-05
0.000167513
2.65254e-05
0.000155039
2.49473e-05
0.00014335
2.33761e-05
0.000132452
2.17954e-05
0.000122383
2.01372e-05
0.000113097
1.85723e-05
0.000104553
1.70858e-05
9.67307e-05
1.56442e-05
8.9557e-05
1.43462e-05
8.29899e-05
1.31304e-05
7.69649e-05
1.20528e-05
7.14274e-05
1.10802e-05
6.63397e-05
1.01808e-05
6.16508e-05
9.38092e-06
5.73252e-05
8.6524e-06
5.33475e-05
7.95783e-06
4.96929e-05
7.31083e-06
4.63598e-05
6.66727e-06
4.33414e-05
6.03727e-06
4.06444e-05
5.39364e-06
3.82865e-05
4.71498e-06
3.62815e-05
4.00938e-06
3.46556e-05
3.25117e-06
3.34202e-05
2.46991e-06
3.26129e-05
1.61378e-06
3.22458e-05
7.33025e-07
3.23866e-05
-2.82293e-07
3.30432e-05
-1.31419e-06
3.42351e-05
-2.38482e-06
3.5969e-05
-3.46846e-06
-4.54274e-06
7.787e-05
3.70269e-05
6.66414e-05
3.36878e-05
5.64263e-05
3.065e-05
4.71985e-05
2.76897e-05
3.89818e-05
2.46575e-05
3.1679e-05
2.19171e-05
2.52884e-05
1.91818e-05
1.97146e-05
1.6733e-05
1.49044e-05
1.44428e-05
1.08059e-05
1.23247e-05
7.33362e-06
1.0412e-05
4.49864e-06
8.48118e-06
2.21211e-06
6.9003e-06
4.03911e-07
5.42161e-06
-9.48601e-07
4.06719e-06
-1.84321e-06
2.6878e-06
-2.31924e-06
1.4294e-06
-2.34451e-06
7.58284e-08
-1.92978e-06
-1.24615e-06
-1.15097e-06
-2.34052e-06
4.82272e-08
-3.57946e-06
1.72176e-06
-5.04052e-06
3.81555e-06
-6.28485e-06
6.4826e-06
-8.00384e-06
9.64778e-06
-9.49672e-06
1.33829e-05
-1.12122e-05
1.77292e-05
-1.30392e-05
2.24797e-05
-1.42613e-05
2.78753e-05
-1.61902e-05
3.3929e-05
-1.81582e-05
4.03874e-05
-1.93895e-05
4.75265e-05
-2.14201e-05
5.52053e-05
-2.30518e-05
6.36058e-05
-2.52122e-05
7.27597e-05
-2.74581e-05
8.23922e-05
-2.88996e-05
9.27296e-05
-3.10219e-05
0.000103927
-3.35942e-05
0.000115636
-3.51362e-05
0.000128113
-3.74343e-05
0.000141288
-3.95338e-05
0.000155176
-4.16545e-05
0.000169898
-4.41451e-05
0.000185044
-4.54178e-05
0.000200637
-4.67559e-05
0.000216785
-4.84138e-05
0.000233044
-4.87421e-05
0.000249308
-4.87551e-05
0.000265596
-4.88183e-05
0.000281449
-4.75264e-05
0.000296748
-4.58341e-05
0.000311253
-4.34603e-05
0.000324742
-4.04202e-05
0.000337094
-3.69868e-05
0.000347979
-3.25933e-05
0.000357182
-2.75499e-05
0.000364599
-2.2185e-05
0.000369964
-1.60485e-05
0.000373314
-9.99857e-06
0.000374457
-3.42342e-06
0.000373601
2.46276e-06
0.000370683
8.72102e-06
0.000365565
1.53454e-05
0.000358446
2.13334e-05
0.000349519
2.67501e-05
0.000338789
3.21493e-05
0.000326531
3.6732e-05
0.00031287
4.09472e-05
0.000297979
4.46438e-05
0.00028193
4.81357e-05
0.00026475
5.15404e-05
0.00024661
5.44317e-05
0.000227677
5.68191e-05
0.000208154
5.86047e-05
0.00018834
5.94861e-05
0.000168576
5.93419e-05
0.000149096
5.84973e-05
0.000130279
5.6512e-05
0.000112388
5.37391e-05
9.55437e-05
5.06014e-05
7.98959e-05
4.7019e-05
6.5554e-05
4.31186e-05
5.24858e-05
3.92754e-05
4.06679e-05
3.55524e-05
3.00366e-05
3.19341e-05
2.05425e-05
2.85693e-05
1.21118e-05
2.54521e-05
4.6573e-06
2.22524e-05
-1.50721e-06
1.84177e-05
-7.36755e-06
1.76193e-05
-1.26468e-05
1.58686e-05
-1.74006e-05
1.42819e-05
-2.16733e-05
1.28407e-05
-2.54459e-05
1.13346e-05
-2.87494e-05
9.8678e-06
-3.15589e-05
8.42604e-06
-3.38842e-05
7.01344e-06
-3.56507e-05
5.40029e-06
-3.70332e-05
3.95128e-06
-3.78559e-05
2.51087e-06
-3.81885e-05
1.03664e-06
-3.80792e-05
-3.59866e-07
-3.74632e-05
-1.82464e-06
-3.64027e-05
-3.13447e-06
-3.49014e-05
-4.58867e-06
-3.29072e-05
-5.95431e-06
-3.04521e-05
-7.39105e-06
-2.75007e-05
-8.89411e-06
-2.40139e-05
-1.04817e-05
-2.00055e-05
-1.20627e-05
-1.54258e-05
-1.38202e-05
-1.02294e-05
-1.54724e-05
-4.4333e-06
-1.72996e-05
1.89548e-06
-1.91172e-05
8.90407e-06
-2.10155e-05
1.65453e-05
-2.3e-05
2.48879e-05
-2.49662e-05
3.3851e-05
-2.69361e-05
4.35304e-05
-2.90753e-05
5.39312e-05
-3.11853e-05
6.50414e-05
-3.33297e-05
7.68867e-05
-3.55921e-05
8.94663e-05
-3.77266e-05
0.000102811
-3.99635e-05
0.000116786
-4.1979e-05
0.000131421
-4.38996e-05
0.00014661
-4.55019e-05
0.000162224
-4.68369e-05
0.00017815
-4.77714e-05
0.000194249
-4.82726e-05
0.00021035
-4.81893e-05
0.000226207
-4.76597e-05
0.000241732
-4.65154e-05
0.000256695
-4.48522e-05
0.000270916
-4.26389e-05
0.000284218
-3.98345e-05
0.000296351
-3.64988e-05
0.000307205
-3.25722e-05
0.000316573
-2.80928e-05
0.00032429
-2.32364e-05
0.000330216
-1.77578e-05
0.000334143
-1.18437e-05
0.000336025
-5.69118e-06
0.000335744
6.96195e-07
0.000333261
7.3014e-06
0.000328576
1.39989e-05
0.000321767
2.03108e-05
0.00031297
2.62653e-05
0.000302337
3.17898e-05
0.000290034
3.67761e-05
0.000276295
4.10769e-05
0.000261357
4.46732e-05
0.000245505
4.73973e-05
0.000228925
4.96617e-05
0.00021199
5.07354e-05
0.000194848
5.11866e-05
0.000177914
5.07794e-05
0.00016132
4.96176e-05
0.000145373
4.78698e-05
0.000130128
4.56489e-05
0.000115709
4.31896e-05
0.000102229
4.04286e-05
8.96321e-05
3.77764e-05
7.79895e-05
3.49429e-05
6.72382e-05
3.22626e-05
5.73627e-05
2.96223e-05
4.83263e-05
2.71187e-05
4.01057e-05
2.46767e-05
3.26321e-05
2.24217e-05
2.58683e-05
2.03014e-05
1.97947e-05
1.8233e-05
1.4403e-05
1.61885e-05
9.66748e-06
1.4234e-05
5.58271e-06
1.22906e-05
2.08877e-06
1.05171e-05
-8.47174e-07
8.8122e-06
-3.28077e-06
7.29957e-06
-5.17779e-06
5.73061e-06
-6.55634e-06
4.13816e-06
-7.38305e-06
2.54379e-06
-7.67615e-06
9.22572e-07
-7.46062e-06
-7.20289e-07
-6.62881e-06
-2.46133e-06
-5.28241e-06
-4.14129e-06
-3.37621e-06
-5.71896e-06
-9.48952e-07
-7.22336e-06
1.92077e-06
-8.51839e-06
5.2479e-06
-9.97167e-06
8.98873e-06
-1.12236e-05
1.31565e-05
-1.24932e-05
1.77239e-05
-1.36869e-05
2.27132e-05
-1.4962e-05
2.81177e-05
-1.62228e-05
3.39647e-05
-1.75641e-05
4.03293e-05
-1.91157e-05
4.72396e-05
-2.07434e-05
5.47678e-05
-2.2586e-05
6.29871e-05
-2.46765e-05
7.19017e-05
-2.6759e-05
8.15473e-05
-2.89426e-05
9.19337e-05
-3.11617e-05
0.000103026
-3.32816e-05
0.000114866
-3.55296e-05
0.000127424
-3.76944e-05
0.000140749
-3.99737e-05
0.000154838
-4.22503e-05
0.00016967
-4.44677e-05
0.000185221
-4.66293e-05
0.000201415
-4.85358e-05
0.000218126
-5.00989e-05
0.000235202
-5.1178e-05
0.000252477
-5.17623e-05
0.000269673
-5.15447e-05
0.000286593
-5.07065e-05
0.000302987
-4.9131e-05
0.000318608
-4.6815e-05
0.000333214
-4.37655e-05
0.000346591
-4.00743e-05
0.000358499
-3.56721e-05
0.000368713
-3.05914e-05
0.000377008
-2.48467e-05
0.000383195
-1.85144e-05
0.000387109
-1.1692e-05
0.000388631
-4.50964e-06
0.000387637
2.87256e-06
0.000384051
1.07098e-05
0.000377914
1.84417e-05
0.000369349
2.56869e-05
0.000358545
3.23801e-05
0.000345747
3.8328e-05
0.000331268
4.33544e-05
0.000315443
4.74009e-05
0.000298573
5.05532e-05
0.000280968
5.27797e-05
0.000262855
5.42979e-05
0.000244442
5.51903e-05
0.000225944
5.54573e-05
0.000207525
5.52222e-05
0.000189378
5.44186e-05
0.000171696
5.3026e-05
0.00015464
5.11246e-05
0.000138432
4.85677e-05
0.000123235
4.55632e-05
0.000109218
4.20608e-05
9.6429e-05
3.83575e-05
8.48924e-05
3.46207e-05
7.45298e-05
3.11021e-05
6.5266e-05
2.78016e-05
5.69907e-05
2.48232e-05
4.96373e-05
2.20681e-05
4.31177e-05
1.95636e-05
3.73773e-05
1.72276e-05
3.23781e-05
1.49983e-05
2.80749e-05
1.29063e-05
2.44517e-05
1.08668e-05
2.14879e-05
8.88829e-06
1.91587e-05
6.99189e-06
1.74446e-05
5.15657e-06
1.62971e-05
3.45213e-06
1.56768e-05
1.86372e-06
1.55173e-05
4.94603e-07
1.57673e-05
-7.34773e-07
1.63168e-05
-1.6565e-06
1.71027e-05
-2.35179e-06
1.8063e-05
-2.84758e-06
1.92224e-05
-3.45469e-06
2.05723e-05
-4.05174e-06
2.20816e-05
-4.5046e-06
2.37358e-05
-4.94052e-06
2.55239e-05
-5.32466e-06
2.74347e-05
-5.695e-06
2.94915e-05
-6.15125e-06
3.17075e-05
-6.62955e-06
3.42006e-05
-7.45813e-06
3.70624e-05
-8.5712e-06
4.04053e-05
-1.0016e-05
4.4377e-05
-1.18982e-05
4.91405e-05
-1.42824e-05
5.4753e-05
-1.68437e-05
6.16445e-05
-2.0679e-05
6.97293e-05
-2.42627e-05
7.89129e-05
-2.75729e-05
8.9245e-05
-3.10149e-05
0.000100709
-3.44045e-05
0.000113073
-3.7114e-05
0.000126384
-3.99441e-05
0.000140424
-4.213e-05
0.000155077
-4.3964e-05
0.000170281
-4.56008e-05
0.000185777
-4.6479e-05
0.000201532
-4.72514e-05
0.000217525
-4.79461e-05
0.000233555
-4.80649e-05
0.000249615
-4.81538e-05
0.000265621
-4.79928e-05
0.000281432
-4.74205e-05
0.000297019
-4.67765e-05
0.000312146
-4.5441e-05
0.000326747
-4.39096e-05
0.000340561
-4.15494e-05
0.000353369
-3.8529e-05
0.000365004
-3.49925e-05
0.000375132
-3.04538e-05
0.00038353
-2.52924e-05
0.000390081
-1.96909e-05
0.000394501
-1.32515e-05
0.000396822
-6.74696e-06
0.000396955
2.05173e-08
0.000395012
6.22093e-06
0.000391091
1.19773e-05
0.000385141
1.78822e-05
0.000377426
2.31211e-05
0.000368052
2.80889e-05
0.000357024
3.30463e-05
0.00034479
3.66621e-05
0.000331385
4.01728e-05
0.000317193
4.25356e-05
0.000302335
4.45323e-05
0.00028688
4.63265e-05
0.000271224
4.6932e-05
0.000255478
4.72032e-05
0.000239725
4.7226e-05
0.000224277
4.63155e-05
0.000209182
4.52583e-05
0.000194649
4.35799e-05
0.000180723
4.17617e-05
0.000167454
3.97943e-05
0.000154976
3.74251e-05
0.000143286
3.50662e-05
0.000132388
3.26932e-05
0.00012232
3.02044e-05
0.000113037
2.78562e-05
0.000104497
2.56251e-05
9.66786e-05
2.34628e-05
8.951e-05
2.15148e-05
8.29485e-05
1.96919e-05
7.6928e-05
1.80733e-05
7.1393e-05
1.66152e-05
6.63062e-05
1.52676e-05
6.16196e-05
1.40675e-05
5.7297e-05
1.2975e-05
5.33199e-05
1.1935e-05
4.96657e-05
1.0965e-05
4.63331e-05
9.99983e-06
4.33142e-05
9.05623e-06
4.06164e-05
8.09142e-06
3.82574e-05
7.074e-06
3.62515e-05
6.0152e-06
3.46235e-05
4.8792e-06
3.33867e-05
3.70675e-06
3.2578e-05
2.42243e-06
3.22083e-05
1.10275e-06
3.23475e-05
-4.21495e-07
3.30022e-05
-1.96892e-06
3.41923e-05
-3.57487e-06
3.5925e-05
-5.20124e-06
-6.81314e-06
7.77473e-05
4.93707e-05
6.65198e-05
4.49153e-05
5.63073e-05
4.08625e-05
4.70833e-05
3.69137e-05
3.8871e-05
3.28698e-05
3.1575e-05
2.92131e-05
2.51889e-05
2.55678e-05
1.96221e-05
2.22997e-05
1.48192e-05
1.92457e-05
1.07283e-05
1.64156e-05
7.26641e-06
1.38739e-05
4.42209e-06
1.13255e-05
2.15235e-06
9.17004e-06
3.43071e-07
7.23088e-06
-1.00434e-06
5.4146e-06
-1.89646e-06
3.57991e-06
-2.37159e-06
1.90453e-06
-2.39759e-06
1.01831e-07
-1.98313e-06
-1.66062e-06
-1.20673e-06
-3.11692e-06
2.65415e-09
-4.78885e-06
1.66577e-06
-6.70364e-06
3.76017e-06
-8.37926e-06
6.42888e-06
-1.06726e-05
9.59098e-06
-1.26588e-05
1.33269e-05
-1.49481e-05
1.76716e-05
-1.73839e-05
2.24186e-05
-1.90084e-05
2.78136e-05
-2.15852e-05
3.38643e-05
-2.42088e-05
4.03176e-05
-2.58429e-05
4.74527e-05
-2.85553e-05
5.51226e-05
-3.07217e-05
6.35193e-05
-3.3609e-05
7.26742e-05
-3.66131e-05
8.22984e-05
-3.85239e-05
9.26298e-05
-4.13534e-05
0.000103828
-4.47921e-05
0.000115531
-4.684e-05
0.000128005
-4.99079e-05
0.000141176
-5.2705e-05
0.000155064
-5.55428e-05
0.000169802
-5.88831e-05
0.000184955
-6.05708e-05
0.000200556
-6.23572e-05
0.000216729
-6.45862e-05
0.000233008
-6.50213e-05
0.000249278
-6.50259e-05
0.000265605
-6.51453e-05
0.000281481
-6.34028e-05
0.000296809
-6.11617e-05
0.000311344
-5.79962e-05
0.000324864
-5.394e-05
0.000337257
-4.93798e-05
0.00034818
-4.35164e-05
0.000357412
-3.67826e-05
0.000364877
-2.96498e-05
0.000370272
-2.14429e-05
0.000373654
-1.33816e-05
0.000374798
-4.56665e-06
0.00037388
3.37994e-06
0.000370927
1.16739e-05
0.000365802
2.04708e-05
0.000358669
2.84662e-05
0.000349723
3.56956e-05
0.000338971
4.29014e-05
0.000326687
4.90157e-05
0.000313005
5.46292e-05
0.0002981
5.95492e-05
0.000282046
6.41895e-05
0.000264868
6.87187e-05
0.000246737
7.25623e-05
0.00022782
7.57364e-05
0.000208317
7.81071e-05
0.000188529
7.92739e-05
0.000168794
7.9077e-05
0.000149345
7.79462e-05
0.000130562
7.52948e-05
0.000112716
7.15854e-05
9.59172e-05
6.74003e-05
8.03137e-05
6.26224e-05
6.60234e-05
5.74089e-05
5.29959e-05
5.23028e-05
4.1229e-05
4.73193e-05
3.06316e-05
4.25316e-05
2.1171e-05
3.80299e-05
1.27769e-05
3.38462e-05
5.37972e-06
2.96497e-05
-8.99647e-07
2.46971e-05
-6.71572e-06
2.34354e-05
-1.19712e-05
2.1124e-05
-1.67129e-05
1.90236e-05
-2.09856e-05
1.71134e-05
-2.47509e-05
1.50999e-05
-2.80228e-05
1.31397e-05
-3.08404e-05
1.12436e-05
-3.31526e-05
9.32569e-06
-3.50142e-05
7.26186e-06
-3.63309e-05
5.26796e-06
-3.71396e-05
3.31962e-06
-3.74838e-05
1.38085e-06
-3.7386e-05
-4.57664e-07
-3.67931e-05
-2.41755e-06
-3.57432e-05
-4.18439e-06
-3.42353e-05
-6.09653e-06
-3.22409e-05
-7.94877e-06
-2.97769e-05
-9.85502e-06
-2.6816e-05
-1.18551e-05
-2.33627e-05
-1.3935e-05
-1.93662e-05
-1.60592e-05
-1.47967e-05
-1.83897e-05
-9.6335e-06
-2.06356e-05
-3.87756e-06
-2.30556e-05
2.52042e-06
-2.55152e-05
9.52303e-06
-2.80181e-05
1.71524e-05
-3.06294e-05
2.54697e-05
-3.32836e-05
3.4484e-05
-3.59504e-05
4.41245e-05
-3.87159e-05
5.45004e-05
-4.15613e-05
6.56021e-05
-4.44314e-05
7.74358e-05
-4.7426e-05
9.00402e-05
-5.03311e-05
0.000103336
-5.32596e-05
0.000117336