/*--------------------------------*- C++ -*----------------------------------*\
| =========                 |                                                 |
| \\      /  F ield         | OpenFOAM: The Open Source CFD Toolbox           |
|  \\    /   O peration     | Version:  3.0.1                                 |
|   \\  /    A nd           | Web:      www.OpenFOAM.org                      |
|    \\/     M anipulation  |                                                 |
\*---------------------------------------------------------------------------*/
FoamFile
{
    version     2.0;
    format      ascii;
    class       volScalarField;
    location    "17.4";
    object      p;
}
// * * * * * * * * * * * * * * * * * * * * * * * * * * * * * * * * * * * * * //

dimensions      [1 -1 -2 0 0 0 0];

internalField   nonuniform List<scalar> 
21420
(
3614.95
3631.65
3650.2
3670.58
3692.75
3716.73
3742.48
3769.89
3798.88
3829.34
3861.05
3893.69
3927.27
3961.48
3995.93
4030.23
4063.95
4096.75
4128.19
4157.85
4185.34
4210.29
4232.28
4251.01
4266.2
4277.6
4285.05
4288.34
4286.98
4281.46
4271.96
4258.57
4241.48
4220.97
4197.33
4170.89
4142.08
4111.27
4078.87
4045.33
4011.06
3976.46
3941.89
3907.85
3875.74
3843.64
3812.63
3782.97
3754.83
3728.34
3703.6
3680.65
3659.52
3640.21
3622.71
3606.98
3593
3580.74
3570.13
3561.16
3553.77
3547.93
3543.63
3540.82
3539.52
3539.74
3541.4
3544.55
3549.22
3555.46
3563.31
3572.8
3583.96
3596.84
3611.44
3627.79
3645.9
3665.7
3687.19
3710.32
3735.02
3761.21
3788.8
3817.67
3847.66
3878.56
3911.37
3943.65
3976.33
4009.06
4041.49
4073.23
4103.92
4133.16
4160.58
4185.79
4208.44
4228.21
4244.83
4258.03
4267.61
4273.46
4275.45
4273.54
4267.73
4258.18
4244.95
4228.22
4208.22
4185.22
4159.51
4131.41
4101.3
4069.52
4036.46
4002.53
3968.11
3933.61
3899.4
3865.85
3833.27
3801.96
3772.14
3744
3717.68
3693.28
3670.83
3650.37
3631.87
3615.32
3600.67
3587.88
3576.86
3567.58
3559.97
3554
3549.6
3546.75
3545.45
3545.7
3547.45
3550.74
3555.56
3561.95
3569.9
3579.45
3590.62
3603.42
3617.86
3633.94
3651.69
3671.11
3692.19
3714.88
3739.14
3764.9
3792.04
3820.43
3849.89
3880.18
3912.06
3943.49
3975.18
4006.79
4038.02
4068.54
4098.03
4126.17
4152.63
4177.1
4199.28
4218.87
4235.61
4249.26
4259.59
4266.42
4269.62
4269.08
4264.72
4256.57
4244.63
4229.02
4209.89
4187.43
4161.92
4133.7
4103.15
4070.68
4036.75
4001.85
3966.47
3931.1
3896.19
3862.18
3829.43
3798.26
3768.91
3741.55
3716.3
3693.2
3672.25
3653.41
3636.61
3621.74
3608.69
3597.36
3587.63
3579.39
3572.55
3567.03
3562.74
3559.63
3557.65
3556.79
3557.07
3558.46
3561.02
3564.77
3569.81
3576.21
3584.03
3593.4
3604.38
3617.09
3631.63
3648.06
3666.44
3686.81
3709.17
3733.52
3759.78
3787.87
3817.64
3848.89
3881.39
3915.03
3949.15
3983.57
4017.89
4051.72
4084.6
4116.13
4145.88
4173.44
4198.44
4220.53
4239.4
4254.8
4266.51
4274.36
4278.28
4278.27
4274.21
4266.28
4254.61
4239.36
4220.74
4199.02
4174.49
4147.49
4118.37
4087.48
4055.21
4021.92
3988
3953.82
3919.71
3886.04
3853.09
3821.13
3790.41
3761.12
3733.41
3707.42
3683.22
3660.89
3640.45
3621.93
3605.31
3590.58
3577.71
3566.65
3557.36
3549.8
3543.93
3539.68
3536.97
3535.75
3536.31
3538.41
3542
3547.08
3553.64
3561.68
3571.24
3582.34
3595
3609.27
3625.17
3642.72
3661.96
3682.86
3705.44
3729.7
3755.58
3783.05
3812.09
3842.59
3874.52
3900.18
3932.3
3964.96
3997.65
4030.04
4061.82
4092.55
4121.88
4149.43
4174.85
4197.83
4218.07
4235.29
4249.28
4259.87
4266.91
4270.32
4270.01
4266.04
4258.51
4247.49
4233.16
4215.75
4195.5
4172.7
4147.68
4120.78
4092.35
4062.75
4032.36
4001.53
3970.6
3939.94
3910.03
3884.58
3856.56
3829.46
3803.64
3779.3
3756.56
3735.47
3716.07
3698.4
3682.45
3668.22
3655.69
3644.8
3635.5
3516.78
3533.47
3552.02
3572.4
3594.57
3618.55
3644.3
3671.71
3700.71
3731.16
3762.88
3795.53
3829.13
3863.34
3897.81
3932.12
3965.86
3998.68
4030.14
4059.81
4087.33
4112.29
4134.3
4153.04
4168.24
4179.66
4187.11
4190.42
4189.04
4183.51
4174.01
4160.6
4143.5
4122.98
4099.32
4072.87
4044.03
4013.2
3980.79
3947.23
3912.94
3878.33
3843.75
3809.7
3777.57
3745.47
3714.46
3684.79
3656.64
3630.16
3605.42
3582.47
3561.34
3542.03
3524.53
3508.81
3494.83
3482.57
3471.97
3462.99
3455.61
3449.77
3445.47
3442.66
3441.36
3441.58
3443.24
3446.38
3451.06
3457.3
3465.15
3474.63
3485.79
3498.67
3513.27
3529.62
3547.72
3567.53
3589.02
3612.15
3636.85
3663.04
3690.64
3719.51
3749.51
3780.43
3813.2
3845.51
3878.2
3910.95
3943.39
3975.15
4005.85
4035.11
4062.54
4087.77
4110.44
4130.22
4146.85
4160.07
4169.66
4175.51
4177.51
4175.58
4169.78
4160.22
4146.98
4130.24
4110.22
4087.2
4061.48
4033.37
4003.23
3971.44
3938.37
3904.42
3869.99
3835.47
3801.25
3767.68
3735.1
3703.78
3673.95
3645.81
3619.49
3595.09
3572.64
3552.18
3533.69
3517.14
3502.5
3489.71
3478.69
3469.41
3461.81
3455.83
3451.44
3448.59
3447.29
3447.54
3449.29
3452.58
3457.4
3463.78
3471.74
3481.29
3492.45
3505.25
3519.69
3535.77
3553.52
3572.94
3594.01
3616.7
3640.97
3666.73
3693.87
3722.27
3751.73
3782.04
3813.91
3845.36
3877.06
3908.68
3939.92
3970.46
3999.97
4028.12
4054.59
4079.08
4101.26
4120.87
4137.63
4151.28
4161.62
4168.46
4171.67
4171.12
4166.76
4158.62
4146.67
4131.05
4111.9
4089.43
4063.91
4035.67
4005.09
3972.6
3938.66
3903.74
3868.34
3832.95
3798.03
3764
3731.24
3700.07
3670.71
3643.36
3618.1
3595
3574.06
3555.23
3538.43
3523.56
3510.52
3499.19
3489.47
3481.24
3474.4
3468.88
3464.59
3461.48
3459.5
3458.65
3458.93
3460.32
3462.87
3466.62
3471.66
3478.05
3485.87
3495.23
3506.21
3518.92
3533.46
3549.88
3568.26
3588.62
3610.98
3635.33
3661.6
3689.69
3719.46
3750.72
3783.23
3816.88
3851.01
3885.44
3919.78
3953.62
3986.53
4018.07
4047.84
4075.42
4100.44
4122.54
4141.42
4156.84
4168.56
4176.41
4180.34
4180.32
4176.26
4168.33
4156.64
4141.39
4122.76
4101.02
4076.47
4049.45
4020.31
3989.41
3957.12
3923.82
3889.89
3855.69
3821.57
3787.89
3754.93
3722.96
3692.24
3662.94
3635.23
3609.23
3585.04
3562.71
3542.27
3523.75
3507.13
3492.4
3479.53
3468.47
3459.19
3451.64
3445.76
3441.52
3438.8
3437.6
3438.15
3440.25
3443.84
3448.92
3455.48
3463.52
3473.07
3484.18
3496.84
3511.1
3527
3544.55
3563.78
3584.68
3607.26
3631.52
3657.4
3684.88
3713.91
3744.41
3776.33
3802.07
3834.18
3866.84
3899.54
3931.95
3963.73
3994.48
4023.83
4051.4
4076.83
4099.83
4120.07
4137.31
4151.31
4161.9
4168.95
4172.37
4172.05
4168.08
4160.55
4149.51
4135.18
4117.75
4097.48
4074.67
4049.64
4022.72
3994.28
3964.66
3934.26
3903.41
3872.47
3841.79
3811.86
3786.44
3758.41
3731.29
3705.47
3681.13
3658.38
3637.29
3617.9
3600.23
3584.28
3570.05
3557.52
3546.63
3537.33
3418.53
3435.22
3453.76
3474.13
3496.31
3520.29
3546.03
3573.46
3602.46
3632.92
3664.65
3697.32
3730.93
3765.17
3799.66
3834
3867.78
3900.63
3932.13
3961.84
3989.39
4014.39
4036.43
4055.21
4070.43
4081.86
4089.33
4092.68
4091.26
4085.72
4076.2
4062.78
4045.65
4025.1
4001.4
3974.92
3946.04
3915.18
3882.73
3849.14
3814.81
3780.18
3745.57
3711.49
3679.34
3647.23
3616.2
3586.53
3558.38
3531.89
3507.15
3484.2
3463.08
3443.77
3426.28
3410.56
3396.59
3384.33
3373.74
3364.77
3357.38
3351.55
3347.25
3344.44
3343.14
3343.37
3345.02
3348.16
3352.83
3359.07
3366.91
3376.4
3387.55
3400.42
3415.02
3431.37
3449.47
3469.28
3490.77
3513.9
3538.6
3564.8
3592.4
3621.28
3651.29
3682.24
3714.98
3747.32
3780.05
3812.82
3845.28
3877.08
3907.81
3937.11
3964.58
3989.84
4012.54
4032.35
4049.01
4062.25
4071.85
4077.71
4079.72
4077.78
4071.97
4062.4
4049.14
4032.37
4012.33
3989.28
3963.52
3935.38
3905.21
3873.38
3840.28
3806.3
3771.83
3737.29
3703.04
3669.45
3636.85
3605.52
3575.68
3547.53
3521.21
3496.81
3474.37
3453.91
3435.42
3418.88
3404.25
3391.46
3380.45
3371.18
3363.58
3357.61
3353.21
3350.36
3349.07
3349.32
3351.07
3354.35
3359.18
3365.56
3373.51
3383.06
3394.22
3407.02
3421.45
3437.53
3455.27
3474.69
3495.77
3518.46
3542.72
3568.49
3595.64
3624.04
3653.52
3683.85
3715.71
3747.19
3778.91
3810.56
3841.83
3872.39
3901.93
3930.11
3956.61
3981.13
4003.34
4022.97
4039.76
4053.44
4063.79
4070.65
4073.88
4073.32
4068.96
4060.8
4048.85
4033.21
4014.04
3991.53
3965.98
3937.71
3907.09
3874.56
3840.57
3805.61
3770.18
3734.75
3699.8
3665.75
3632.97
3601.78
3572.42
3545.06
3519.81
3496.72
3475.78
3456.96
3440.17
3425.31
3412.28
3400.97
3391.25
3383.03
3376.2
3370.68
3366.4
3363.29
3361.31
3360.46
3360.74
3362.13
3364.67
3368.42
3373.45
3379.84
3387.65
3397
3407.97
3420.67
3435.2
3451.62
3469.98
3490.35
3512.7
3537.05
3563.32
3591.42
3621.2
3652.47
3685
3718.67
3752.83
3787.29
3821.67
3855.54
3888.48
3920.06
3949.87
3977.48
4002.54
4024.67
4043.58
4059.02
4070.75
4078.62
4082.57
4082.53
4078.46
4070.51
4058.81
4043.53
4024.88
4003.11
3978.53
3951.48
3922.31
3891.37
3859.05
3825.72
3791.75
3757.53
3723.39
3689.68
3656.7
3624.72
3593.99
3564.68
3536.96
3510.96
3486.77
3464.44
3444.01
3425.49
3408.88
3394.15
3381.28
3370.23
3360.95
3353.4
3347.53
3343.29
3340.58
3339.39
3339.93
3342.04
3345.63
3350.7
3357.26
3365.29
3374.85
3385.95
3398.6
3412.86
3428.75
3446.3
3465.53
3486.43
3509.01
3533.27
3559.15
3586.63
3615.66
3646.15
3678.04
3703.94
3736.04
3768.7
3801.43
3833.86
3865.67
3896.45
3925.83
3953.43
3978.89
4001.92
4022.19
4039.45
4053.47
4064.08
4071.13
4074.56
4074.24
4070.26
4062.71
4051.66
4037.31
4019.86
3999.56
3976.72
3951.65
3924.7
3896.23
3866.58
3836.15
3805.27
3774.31
3743.6
3713.62
3688.26
3660.18
3633.05
3607.22
3582.88
3560.13
3539.04
3519.65
3501.98
3486.04
3471.81
3459.28
3448.4
3439.1
3320.21
3336.89
3355.42
3375.79
3397.96
3421.94
3447.69
3475.12
3504.13
3534.61
3566.35
3599.04
3632.68
3666.96
3701.5
3735.88
3769.71
3802.61
3834.16
3863.93
3891.54
3916.59
3938.68
3957.5
3972.76
3984.22
3991.71
3995.09
3993.65
3988.09
3978.55
3965.09
3947.93
3927.33
3903.58
3877.04
3848.11
3817.19
3784.68
3751.04
3716.67
3681.99
3647.35
3613.24
3581.05
3548.92
3517.87
3488.19
3460.03
3433.54
3408.8
3385.86
3364.74
3345.44
3327.95
3312.24
3298.28
3286.02
3275.44
3266.47
3259.09
3253.27
3248.97
3246.16
3244.87
3245.09
3246.74
3249.88
3254.55
3260.78
3268.62
3278.09
3289.24
3302.11
3316.7
3333.05
3351.15
3370.95
3392.44
3415.58
3440.28
3466.49
3494.1
3522.99
3553.02
3584.01
3616.7
3649.1
3681.86
3714.67
3747.18
3779.03
3809.81
3839.16
3866.68
3891.99
3914.74
3934.6
3951.29
3964.56
3974.19
3980.06
3982.09
3980.13
3974.31
3964.72
3951.43
3934.63
3914.55
3891.45
3865.64
3837.45
3807.23
3775.35
3742.19
3708.16
3673.65
3639.06
3604.78
3571.16
3538.53
3507.18
3477.33
3449.17
3422.85
3398.44
3376.01
3355.55
3337.07
3320.54
3305.92
3293.14
3282.14
3272.88
3265.29
3259.32
3254.93
3252.08
3250.8
3251.04
3252.79
3256.07
3260.89
3267.27
3275.22
3284.76
3295.92
3308.71
3323.14
3339.21
3356.96
3376.37
3397.44
3420.13
3444.4
3470.18
3497.34
3525.76
3555.26
3585.62
3617.47
3648.98
3680.74
3712.43
3743.74
3774.34
3803.92
3832.14
3858.69
3883.25
3905.51
3925.18
3942
3955.71
3966.1
3972.97
3976.22
3975.66
3971.3
3963.14
3951.16
3935.5
3916.29
3893.74
3868.14
3839.81
3809.13
3776.54
3742.49
3707.47
3671.98
3636.51
3601.51
3567.42
3534.62
3503.41
3474.03
3446.67
3421.42
3398.33
3377.41
3358.6
3341.83
3326.98
3313.97
3302.67
3292.97
3284.76
3277.94
3272.43
3268.16
3265.06
3263.08
3262.23
3262.5
3263.89
3266.43
3270.17
3275.19
3281.56
3289.36
3298.7
3309.66
3322.34
3336.86
3353.27
3371.63
3391.98
3414.34
3438.68
3464.96
3493.07
3522.86
3554.16
3586.72
3620.4
3654.61
3689.12
3723.54
3757.46
3790.46
3822.1
3851.96
3879.63
3904.73
3926.92
3945.87
3961.34
3973.1
3980.98
3984.95
3984.88
3980.81
3972.85
3961.12
3945.81
3927.11
3905.3
3880.67
3853.57
3824.35
3793.36
3760.99
3727.61
3693.6
3659.34
3625.16
3591.42
3558.41
3526.41
3495.66
3466.34
3438.62
3412.61
3388.42
3366.09
3345.66
3327.14
3310.54
3295.82
3282.96
3271.91
3262.64
3255.1
3249.24
3244.99
3242.29
3241.12
3241.66
3243.76
3247.35
3252.42
3258.97
3267.01
3276.56
3287.65
3300.3
3314.55
3330.44
3347.98
3367.21
3388.1
3410.68
3434.93
3460.82
3488.3
3517.33
3547.82
3579.67
3605.8
3637.87
3670.55
3703.3
3735.77
3767.63
3798.45
3827.88
3855.53
3881.04
3904.1
3924.41
3941.71
3955.76
3966.39
3973.46
3976.88
3976.58
3972.58
3965.01
3953.94
3939.55
3922.06
3901.72
3878.84
3853.72
3826.73
3798.2
3768.51
3738.04
3707.12
3676.12
3645.37
3615.32
3590.05
3561.9
3534.74
3508.91
3484.56
3461.8
3440.71
3421.32
3403.66
3387.72
3373.5
3360.98
3350.1
3340.81
3221.81
3238.48
3257.01
3277.37
3299.54
3323.51
3349.26
3376.7
3405.72
3436.22
3467.99
3500.71
3534.39
3568.71
3603.3
3637.75
3671.65
3704.62
3736.25
3766.08
3793.77
3818.89
3841.05
3859.93
3875.23
3886.73
3894.25
3897.66
3896.2
3890.62
3881.04
3867.54
3850.32
3829.67
3805.85
3779.24
3750.23
3719.24
3686.66
3652.94
3618.51
3583.77
3549.08
3514.93
3482.68
3450.53
3419.47
3389.76
3361.6
3335.11
3310.37
3287.43
3266.31
3247.02
3229.54
3213.84
3199.89
3187.65
3177.07
3168.12
3160.74
3154.92
3150.63
3147.83
3146.54
3146.75
3148.4
3151.54
3156.2
3162.42
3170.25
3179.72
3190.86
3203.72
3218.3
3234.65
3252.74
3272.55
3294.04
3317.18
3341.89
3368.1
3395.72
3424.63
3454.68
3485.72
3518.37
3550.83
3583.64
3616.51
3649.08
3680.99
3711.84
3741.26
3768.84
3794.22
3817.04
3836.95
3853.7
3867.01
3876.67
3882.56
3884.6
3882.63
3876.8
3867.18
3853.85
3837
3816.87
3793.71
3767.84
3739.58
3709.29
3677.34
3644.11
3610.02
3575.45
3540.8
3506.46
3472.8
3440.14
3408.75
3378.89
3350.72
3324.39
3299.99
3277.56
3257.11
3238.64
3222.12
3207.51
3194.75
3183.76
3174.51
3166.93
3160.97
3156.58
3153.74
3152.46
3152.69
3154.44
3157.73
3162.54
3168.92
3176.86
3186.4
3197.55
3210.34
3224.76
3240.83
3258.56
3277.98
3299.05
3321.74
3346.02
3371.8
3398.97
3427.41
3456.94
3487.34
3519.18
3550.74
3582.55
3614.29
3645.65
3676.31
3705.94
3734.22
3760.83
3785.45
3807.76
3827.49
3844.36
3858.11
3868.54
3875.44
3878.71
3878.17
3873.8
3865.62
3853.62
3837.92
3818.66
3796.05
3770.38
3741.98
3711.22
3678.55
3644.42
3609.32
3573.75
3538.21
3503.16
3469.02
3436.17
3404.94
3375.55
3348.18
3322.93
3299.86
3278.94
3260.15
3243.4
3228.58
3215.59
3204.31
3194.63
3186.44
3179.63
3174.14
3169.87
3166.78
3164.8
3163.96
3164.23
3165.61
3168.14
3171.87
3176.88
3183.23
3191.01
3200.34
3211.28
3223.94
3238.45
3254.84
3273.18
3293.53
3315.88
3340.22
3366.51
3394.63
3424.44
3455.77
3488.37
3522.09
3556.35
3590.91
3625.4
3659.4
3692.47
3724.18
3754.11
3781.85
3807.03
3829.28
3848.28
3863.8
3875.59
3883.5
3887.47
3887.4
3883.33
3875.33
3863.56
3848.2
3829.45
3807.58
3782.89
3755.72
3726.43
3695.38
3662.94
3629.5
3595.44
3561.12
3526.89
3493.11
3460.07
3428.04
3397.26
3367.92
3340.19
3314.18
3289.98
3267.65
3247.23
3228.72
3212.12
3197.41
3184.56
3173.53
3164.27
3156.73
3150.87
3146.63
3143.94
3142.78
3143.33
3145.43
3149.01
3154.09
3160.63
3168.66
3178.2
3189.29
3201.93
3216.17
3232.05
3249.59
3268.81
3289.69
3312.27
3336.52
3362.41
3389.89
3418.93
3449.41
3481.22
3507.63
3539.68
3572.38
3605.17
3637.69
3669.6
3700.49
3729.98
3757.69
3783.26
3806.38
3826.75
3844.09
3858.18
3868.84
3875.92
3879.35
3879.06
3875.04
3867.45
3856.34
3841.91
3824.37
3803.97
3781.03
3755.85
3728.79
3700.2
3670.45
3639.92
3608.96
3577.9
3547.1
3516.94
3491.79
3463.56
3436.37
3410.51
3386.16
3363.4
3342.31
3322.92
3305.26
3289.33
3275.12
3262.6
3251.73
3242.45
3123.34
3140
3158.52
3178.87
3201.03
3225
3250.76
3278.2
3307.24
3337.76
3369.56
3402.32
3436.04
3470.43
3505.09
3539.62
3573.59
3606.66
3638.37
3668.3
3696.08
3721.29
3743.54
3762.49
3777.85
3789.4
3796.95
3800.39
3798.92
3793.31
3783.68
3770.13
3752.85
3732.11
3708.22
3681.51
3652.41
3621.32
3588.65
3554.85
3520.34
3485.53
3450.78
3416.57
3384.25
3352.07
3320.98
3291.26
3263.09
3236.59
3211.85
3188.91
3167.81
3148.53
3131.06
3115.37
3101.43
3089.2
3078.64
3069.69
3062.33
3056.52
3052.23
3049.44
3048.15
3048.36
3050
3053.13
3057.79
3064
3071.82
3081.28
3092.41
3105.26
3119.84
3136.18
3154.27
3174.07
3195.56
3218.71
3243.43
3269.65
3297.28
3326.21
3356.29
3387.38
3420
3452.52
3485.4
3518.33
3550.98
3582.96
3613.9
3643.4
3671.08
3696.54
3719.44
3739.43
3756.23
3769.6
3779.3
3785.22
3787.26
3785.3
3779.44
3769.78
3756.4
3739.49
3719.29
3696.06
3670.1
3641.76
3611.38
3579.35
3546.04
3511.86
3477.21
3442.5
3408.09
3374.38
3341.67
3310.25
3280.36
3252.18
3225.84
3201.44
3179.02
3158.59
3140.13
3123.63
3109.03
3096.28
3085.31
3076.07
3068.5
3062.55
3058.17
3055.34
3054.06
3054.29
3056.04
3059.32
3064.13
3070.5
3078.44
3087.97
3099.12
3111.9
3126.31
3142.37
3160.1
3179.51
3200.58
3223.27
3247.55
3273.34
3300.54
3329.01
3358.57
3389.02
3420.84
3452.47
3484.34
3516.14
3547.56
3578.29
3607.99
3636.35
3663.03
3687.72
3710.11
3729.9
3746.83
3760.64
3771.11
3778.05
3781.33
3780.82
3776.45
3768.24
3756.21
3740.47
3721.14
3698.47
3672.71
3644.22
3613.36
3580.58
3546.35
3511.15
3475.49
3439.86
3404.74
3370.54
3337.65
3306.38
3276.97
3249.59
3224.35
3201.28
3180.39
3161.63
3144.9
3130.1
3117.14
3105.89
3096.23
3088.06
3081.27
3075.79
3071.54
3068.45
3066.49
3065.64
3065.9
3067.28
3069.8
3073.52
3078.51
3084.85
3092.61
3101.91
3112.83
3125.47
3139.95
3156.32
3174.65
3194.99
3217.33
3241.68
3267.97
3296.11
3325.95
3357.31
3389.95
3423.72
3458.04
3492.69
3527.26
3561.34
3594.5
3626.3
3656.33
3684.16
3709.43
3731.75
3750.82
3766.4
3778.24
3786.17
3790.15
3790.08
3785.99
3777.95
3766.14
3750.73
3731.91
3709.96
3685.19
3657.94
3628.57
3597.43
3564.91
3531.4
3497.26
3462.87
3428.58
3394.74
3361.65
3329.59
3298.78
3269.42
3241.68
3215.66
3191.46
3169.13
3148.71
3130.21
3113.63
3098.93
3086.09
3075.07
3065.82
3058.3
3052.45
3048.21
3045.53
3044.39
3044.94
3047.03
3050.62
3055.69
3062.23
3070.25
3079.78
3090.86
3103.49
3117.72
3133.6
3151.12
3170.33
3191.21
3213.78
3238.04
3263.92
3291.41
3320.45
3350.92
3382.68
3409.44
3441.47
3474.19
3507.03
3539.61
3571.6
3602.56
3632.13
3659.92
3685.56
3708.76
3729.19
3746.59
3760.73
3771.42
3778.53
3781.97
3781.68
3777.64
3770.01
3758.87
3744.38
3726.78
3706.31
3683.29
3658.03
3630.9
3602.23
3572.41
3541.8
3510.77
3479.65
3448.79
3418.51
3393.48
3365.15
3337.92
3312.05
3287.68
3264.92
3243.83
3224.45
3206.8
3190.87
3176.67
3164.16
3153.3
3144.03
3024.8
3041.44
3059.94
3080.29
3102.44
3126.41
3152.17
3179.63
3208.68
3239.23
3271.06
3303.87
3337.65
3372.11
3406.85
3441.47
3475.55
3508.72
3540.54
3570.59
3598.48
3623.8
3646.14
3665.18
3680.62
3692.22
3699.8
3703.27
3701.79
3696.16
3686.47
3672.85
3655.49
3634.67
3610.67
3583.86
3554.65
3523.44
3490.66
3456.75
3422.14
3387.25
3352.43
3318.16
3285.76
3253.54
3222.42
3192.68
3164.49
3137.99
3113.25
3090.32
3069.22
3049.95
3032.5
3016.83
3002.91
2990.69
2980.14
2971.21
2963.86
2958.05
2953.77
2950.99
2949.7
2949.9
2951.54
2954.67
2959.32
2965.52
2973.33
2982.77
2993.89
3006.72
3021.3
3037.63
3055.72
3075.52
3097.01
3120.16
3144.89
3171.12
3198.77
3227.72
3257.84
3288.98
3321.58
3354.18
3387.13
3420.14
3452.87
3484.95
3515.99
3545.6
3573.38
3598.94
3621.94
3642.02
3658.9
3672.33
3682.07
3688.02
3690.08
3688.11
3682.23
3672.52
3659.09
3642.11
3621.82
3598.49
3572.44
3543.99
3513.51
3481.38
3447.97
3413.69
3378.95
3344.15
3309.67
3275.89
3243.13
3211.67
3181.75
3153.55
3127.21
3102.81
3080.39
3059.97
3041.54
3025.05
3010.48
2997.74
2986.79
2977.57
2970.02
2964.07
2959.7
2956.88
2955.6
2955.83
2957.58
2960.85
2965.66
2972.03
2979.96
2989.48
3000.62
3013.39
3027.79
3043.84
3061.57
3080.97
3102.03
3124.73
3149.02
3174.82
3202.04
3230.53
3260.14
3290.66
3322.45
3354.16
3386.11
3417.98
3449.48
3480.28
3510.07
3538.52
3565.29
3590.07
3612.54
3632.41
3649.42
3663.3
3673.83
3680.81
3684.11
3683.62
3679.25
3671.01
3658.95
3643.14
3623.75
3600.98
3575.13
3546.52
3515.55
3482.64
3448.29
3412.97
3377.2
3341.47
3306.25
3271.98
3239.03
3207.72
3178.29
3150.91
3125.67
3102.62
3081.75
3063.01
3046.31
3031.55
3018.62
3007.4
2997.77
2989.62
2982.86
2977.4
2973.16
2970.08
2968.12
2967.28
2967.54
2968.9
2971.42
2975.12
2980.09
2986.4
2994.14
3003.41
3014.31
3026.92
3041.38
3057.73
3076.04
3096.36
3118.7
3143.04
3169.35
3197.5
3227.37
3258.77
3291.47
3325.3
3359.7
3394.43
3429.1
3463.28
3496.55
3528.47
3558.61
3586.56
3611.92
3634.34
3653.5
3669.14
3681.03
3688.99
3692.99
3692.92
3688.81
3680.72
3668.86
3653.37
3634.47
3612.43
3587.57
3560.22
3530.74
3499.51
3466.89
3433.28
3399.06
3364.58
3330.23
3296.32
3263.18
3231.07
3200.23
3170.85
3143.08
3117.06
3092.85
3070.53
3050.12
3031.63
3015.05
3000.37
2987.54
2976.54
2967.3
2959.79
2953.95
2949.73
2947.07
2945.93
2946.49
2948.58
2952.17
2957.23
2963.76
2971.78
2981.3
2992.37
3004.99
3019.21
3035.07
3052.58
3071.78
3092.65
3115.22
3139.47
3165.36
3192.85
3221.89
3252.35
3284.08
3311.21
3343.23
3375.97
3408.88
3441.53
3473.61
3504.66
3534.33
3562.21
3587.95
3611.23
3631.74
3649.21
3663.41
3674.14
3681.28
3684.73
3684.44
3680.39
3672.72
3661.52
3646.97
3629.29
3608.74
3585.63
3560.27
3533.04
3504.28
3474.36
3443.68
3412.57
3381.38
3350.43
3320.03
3295.1
3266.67
3239.4
3213.51
3189.13
3166.37
3145.28
3125.9
3108.25
3092.34
3078.14
3065.65
3054.8
3045.54
2926.18
2942.81
2961.29
2981.62
3003.77
3027.74
3053.5
3080.97
3110.05
3140.62
3172.5
3205.36
3239.21
3273.75
3308.59
3343.32
3377.51
3410.8
3442.76
3472.93
3500.95
3526.4
3548.86
3568.01
3583.53
3595.19
3602.82
3606.32
3604.82
3599.16
3589.41
3575.72
3558.27
3537.33
3513.22
3486.28
3456.94
3425.6
3392.69
3358.66
3323.94
3288.94
3254.03
3219.69
3187.2
3154.94
3123.78
3094.01
3065.81
3039.3
3014.56
2991.64
2970.55
2951.3
2933.87
2918.21
2904.31
2892.11
2881.58
2872.66
2865.32
2859.53
2855.26
2852.48
2851.19
2851.39
2853.02
2856.15
2860.78
2866.97
2874.77
2884.2
2895.3
2908.12
2922.68
2939.01
2957.09
2976.89
2998.39
3021.54
3046.28
3072.53
3100.2
3129.17
3159.32
3190.52
3223.11
3255.79
3288.82
3321.93
3354.76
3386.96
3418.11
3447.84
3475.74
3501.43
3524.54
3544.72
3561.69
3575.2
3585
3590.98
3593.05
3591.08
3585.16
3575.41
3561.91
3544.84
3524.45
3501.02
3474.85
3446.29
3415.69
3383.43
3349.9
3315.51
3280.66
3245.76
3211.19
3177.33
3144.51
3113
3083.05
3054.83
3028.48
3004.09
2981.68
2961.28
2942.86
2926.39
2911.84
2899.13
2888.2
2879
2871.46
2865.53
2861.18
2858.36
2857.08
2857.31
2859.06
2862.33
2867.13
2873.49
2881.41
2890.92
2902.05
2914.81
2929.2
2945.25
2962.96
2982.35
3003.41
3026.11
3050.41
3076.23
3103.47
3132
3161.65
3192.25
3224.01
3255.82
3287.85
3319.8
3351.39
3382.3
3412.19
3440.73
3467.61
3492.49
3515.06
3535.03
3552.12
3566.08
3576.67
3583.7
3587.04
3586.57
3582.19
3573.93
3561.82
3545.95
3526.47
3503.61
3477.63
3448.89
3417.78
3384.73
3350.23
3314.78
3278.87
3243.02
3207.7
3173.34
3140.33
3108.97
3079.52
3052.12
3026.89
3003.86
2983.01
2964.31
2947.65
2932.92
2920.03
2908.85
2899.25
2891.13
2884.4
2878.96
2874.73
2871.67
2869.72
2868.88
2869.12
2870.48
2872.98
2876.66
2881.62
2887.9
2895.61
2904.85
2915.71
2928.3
2942.72
2959.04
2977.34
2997.64
3019.97
3044.32
3070.63
3098.81
3128.71
3160.16
3192.93
3226.82
3261.32
3296.15
3330.93
3365.24
3398.64
3430.69
3460.96
3489.03
3514.52
3537.05
3556.3
3572.02
3583.97
3591.97
3595.98
3595.92
3591.77
3583.64
3571.71
3556.15
3537.15
3515
3490.03
3462.56
3432.97
3401.62
3368.89
3335.17
3300.84
3266.27
3231.83
3197.85
3164.64
3132.48
3101.6
3072.19
3044.41
3018.37
2994.16
2971.84
2951.44
2932.96
2916.4
2901.73
2888.92
2877.93
2868.71
2861.22
2855.4
2851.19
2848.54
2847.42
2847.98
2850.07
2853.65
2858.71
2865.24
2873.24
2882.76
2893.81
2906.41
2920.62
2936.47
2953.96
2973.15
2994.02
3016.58
3040.83
3066.72
3094.22
3123.26
3153.72
3185.4
3212.95
3244.95
3277.74
3310.71
3343.46
3375.64
3406.8
3436.57
3464.57
3490.41
3513.8
3534.4
3551.95
3566.22
3577
3584.17
3587.64
3587.34
3583.27
3575.56
3564.3
3549.68
3531.91
3511.25
3488.03
3462.57
3435.23
3406.36
3376.33
3345.55
3314.35
3283.08
3252.05
3221.53
3196.64
3168.12
3140.81
3114.89
3090.5
3067.73
3046.65
3027.27
3009.64
2993.73
2979.55
2967.07
2956.23
2946.99
2827.49
2844.09
2862.56
2882.88
2905.01
2928.98
2954.75
2982.23
3011.34
3041.94
3073.87
3106.79
3140.71
3175.35
3210.3
3245.16
3279.48
3312.91
3345.02
3375.34
3403.51
3429.11
3451.71
3470.96
3486.58
3498.32
3505.99
3509.52
3508.01
3502.31
3492.51
3478.72
3461.17
3440.11
3415.86
3388.77
3359.28
3327.79
3294.73
3260.56
3225.71
3190.6
3155.6
3121.16
3088.58
3056.27
3025.07
2995.27
2967.05
2940.53
2915.79
2892.88
2871.8
2852.57
2835.15
2819.52
2805.64
2793.46
2782.94
2774.04
2766.72
2760.94
2756.68
2753.91
2752.62
2752.82
2754.45
2757.56
2762.19
2768.36
2776.14
2785.55
2796.64
2809.44
2823.99
2840.31
2858.38
2878.18
2899.68
2922.84
2947.59
2973.86
3001.55
3030.55
3060.74
3092
3124.59
3157.36
3190.49
3223.7
3256.65
3288.98
3320.27
3350.14
3378.18
3404
3427.24
3447.54
3464.61
3478.2
3488.07
3494.09
3496.18
3494.2
3488.25
3478.44
3464.85
3447.69
3427.19
3403.63
3377.33
3348.63
3317.9
3285.5
3251.84
3217.32
3182.34
3147.33
3112.65
3078.71
3045.81
3014.25
2984.26
2956.02
2929.67
2905.27
2882.88
2862.49
2844.1
2827.66
2813.13
2800.45
2789.55
2780.37
2772.85
2766.93
2762.59
2759.78
2758.5
2758.73
2760.48
2763.74
2768.54
2774.88
2782.8
2792.3
2803.42
2816.16
2830.54
2846.57
2864.27
2883.66
2904.72
2927.42
2951.73
2977.57
3004.83
3033.4
3063.11
3093.78
3125.54
3157.45
3189.57
3221.62
3253.31
3284.32
3314.33
3342.99
3369.98
3394.98
3417.67
3437.75
3454.94
3468.99
3479.66
3486.74
3490.12
3489.67
3485.29
3477
3464.84
3448.89
3429.32
3406.33
3380.22
3351.33
3320.06
3286.85
3252.18
3216.57
3180.51
3144.52
3109.08
3074.63
3041.54
3010.13
2980.64
2953.24
2928.01
2905
2884.19
2865.52
2848.9
2834.22
2821.37
2810.23
2800.67
2792.59
2785.88
2780.47
2776.26
2773.21
2771.27
2770.43
2770.67
2772.02
2774.5
2778.16
2783.09
2789.34
2797.01
2806.23
2817.05
2829.6
2843.99
2860.28
2878.55
2898.84
2921.15
2945.5
2971.83
3000.03
3029.97
3061.48
3094.32
3128.29
3162.89
3197.84
3232.75
3267.2
3300.74
3332.95
3363.37
3391.59
3417.21
3439.87
3459.23
3475.04
3487.06
3495.11
3499.14
3499.07
3494.9
3486.7
3474.7
3459.04
3439.93
3417.67
3392.57
3364.97
3335.24
3303.75
3270.9
3237.05
3202.6
3167.93
3133.39
3099.32
3066.04
3033.82
3002.89
2973.45
2945.64
2919.6
2895.39
2873.07
2852.67
2834.21
2817.66
2803.02
2790.23
2779.26
2770.06
2762.58
2756.78
2752.58
2749.95
2748.84
2749.41
2751.5
2755.08
2760.14
2766.66
2774.65
2784.15
2795.19
2807.78
2821.96
2837.79
2855.28
2874.45
2895.31
2917.86
2942.11
2968
2995.5
3024.56
3055.01
3086.66
3114.65
3146.64
3179.48
3212.54
3245.39
3277.68
3308.96
3338.87
3366.99
3392.96
3416.46
3437.17
3454.81
3469.16
3480
3487.21
3490.69
3490.39
3486.3
3478.53
3467.2
3452.5
3434.63
3413.86
3390.52
3364.93
3337.45
3308.46
3278.31
3247.41
3216.11
3184.74
3153.62
3122.99
3098.11
3069.5
3042.14
3016.2
2991.8
2969.03
2947.94
2928.57
2910.94
2895.05
2880.89
2868.42
2857.6
2848.37
2728.72
2745.3
2763.75
2784.05
2806.17
2830.14
2855.91
2883.41
2912.54
2943.19
2975.16
3008.16
3042.17
3076.91
3111.99
3146.98
3181.46
3215.05
3247.32
3277.81
3306.15
3331.92
3354.66
3374.06
3389.79
3401.6
3409.33
3412.87
3411.37
3405.63
3395.75
3381.87
3364.19
3343
3318.59
3291.34
3261.68
3230.02
3196.79
3162.46
3127.47
3092.23
3057.11
3022.58
2989.89
2957.52
2926.27
2896.44
2868.2
2841.67
2816.93
2794.03
2772.97
2753.76
2736.37
2720.76
2706.9
2694.74
2684.25
2675.37
2668.06
2662.29
2658.04
2655.28
2654
2654.19
2655.81
2658.92
2663.53
2669.69
2677.44
2686.84
2697.9
2710.69
2725.23
2741.54
2759.6
2779.4
2800.9
2824.07
2848.83
2875.12
2902.83
2931.86
2962.1
2993.42
3026.03
3058.89
3092.12
3125.45
3158.54
3191.01
3222.45
3252.48
3280.68
3306.65
3330.04
3350.47
3367.66
3381.35
3391.29
3397.35
3399.46
3397.48
3391.48
3381.61
3367.93
3350.66
3330.03
3306.34
3279.89
3251.04
3220.15
3187.6
3153.78
3119.11
3084
3048.85
3014.06
2980.02
2947.04
2915.42
2885.39
2857.13
2830.76
2806.37
2783.99
2763.62
2745.25
2728.84
2714.35
2701.69
2690.82
2681.66
2674.17
2668.27
2663.93
2661.14
2659.86
2660.09
2661.83
2665.09
2669.88
2676.22
2684.12
2693.61
2704.72
2717.45
2731.81
2747.83
2765.52
2784.9
2805.95
2828.65
2852.97
2878.83
2906.13
2934.74
2964.5
2995.26
3027.03
3059.04
3091.26
3123.42
3155.23
3186.37
3216.5
3245.29
3272.42
3297.55
3320.37
3340.57
3357.87
3372.02
3382.78
3389.93
3393.35
3392.92
3388.54
3380.22
3368
3351.97
3332.28
3309.16
3282.9
3253.84
3222.39
3188.99
3154.14
3118.34
3082.11
3045.97
3010.4
2975.83
2942.65
2911.19
2881.67
2854.25
2829.03
2806.05
2785.27
2766.64
2750.07
2735.44
2722.64
2711.55
2702.03
2693.99
2687.32
2681.93
2677.75
2674.71
2672.78
2671.94
2672.17
2673.51
2675.97
2679.61
2684.51
2690.73
2698.36
2707.53
2718.32
2730.83
2745.18
2761.43
2779.67
2799.94
2822.25
2846.59
2872.93
2901.16
2931.15
2962.72
2995.64
3029.7
3064.42
3099.51
3134.56
3169.17
3202.88
3235.25
3265.84
3294.22
3320.01
3342.81
3362.3
3378.21
3390.31
3398.41
3402.45
3402.39
3398.17
3389.92
3377.83
3362.07
3342.83
3320.44
3295.19
3267.44
3237.56
3205.92
3172.92
3138.93
3104.35
3069.55
3034.9
3000.73
2967.37
2935.08
2904.1
2874.62
2846.8
2820.74
2796.52
2774.21
2753.82
2735.37
2718.85
2704.22
2691.46
2680.51
2671.33
2663.88
2658.09
2653.91
2651.3
2650.21
2650.78
2652.88
2656.45
2661.5
2668.01
2675.99
2685.48
2696.5
2709.07
2723.24
2739.05
2756.51
2775.67
2796.52
2819.06
2843.31
2869.21
2896.72
2925.78
2956.23
2987.86
3016.31
3048.3
3081.2
3114.35
3147.32
3179.74
3211.17
3241.22
3269.48
3295.59
3319.21
3340.05
3357.8
3372.23
3383.14
3390.4
3393.89
3393.59
3389.47
3381.64
3370.24
3355.44
3337.45
3316.55
3293.07
3267.34
3239.72
3210.58
3180.3
3149.27
3117.85
3086.38
3055.16
3024.43
2999.49
2970.8
2943.4
2917.44
2893.02
2870.24
2849.15
2829.79
2812.18
2796.3
2782.15
2769.7
2758.9
2749.69
2629.88
2646.44
2664.86
2685.14
2707.25
2731.21
2756.99
2784.5
2813.67
2844.36
2876.39
2909.47
2943.57
2978.43
3013.65
3048.8
3083.44
3117.21
3149.66
3180.35
3208.88
3234.82
3257.74
3277.28
3293.13
3305.04
3312.83
3316.37
3314.88
3309.1
3299.14
3285.15
3267.34
3245.99
3221.42
3193.98
3164.13
3132.28
3098.87
3064.36
3029.2
2993.82
2958.58
2923.94
2891.13
2858.7
2827.4
2797.53
2769.26
2742.73
2717.99
2695.1
2674.06
2654.87
2637.5
2621.92
2608.08
2595.96
2585.48
2576.62
2569.34
2563.59
2559.35
2556.59
2555.31
2555.51
2557.12
2560.21
2564.81
2570.95
2578.69
2588.06
2599.1
2611.87
2626.39
2642.69
2660.75
2680.54
2702.05
2725.22
2750
2776.3
2804.04
2833.11
2863.4
2894.78
2927.41
2960.37
2993.73
3027.19
3060.43
3093.05
3124.67
3154.87
3183.24
3209.39
3232.94
3253.52
3270.84
3284.64
3294.66
3300.77
3302.9
3300.91
3294.87
3284.92
3271.15
3253.75
3232.98
3209.13
3182.52
3153.5
3122.43
3089.71
3055.73
3020.89
2985.62
2950.33
2915.41
2881.26
2848.19
2816.51
2786.43
2758.14
2731.76
2707.37
2685.01