/*--------------------------------*- C++ -*----------------------------------*\
| =========                 |                                                 |
| \\      /  F ield         | OpenFOAM: The Open Source CFD Toolbox           |
|  \\    /   O peration     | Version:  3.0.1                                 |
|   \\  /    A nd           | Web:      www.OpenFOAM.org                      |
|    \\/     M anipulation  |                                                 |
\*---------------------------------------------------------------------------*/
FoamFile
{
    version     2.0;
    format      ascii;
    class       volVectorField;
    location    "10";
    object      U;
}
// * * * * * * * * * * * * * * * * * * * * * * * * * * * * * * * * * * * * * //

dimensions      [0 1 -1 0 0 0 0];

internalField   nonuniform List<vector> 
21420
(
(-0.10745 0.00094715 0)
(-0.114374 0.000847715 0)
(-0.122478 0.000756045 0)
(-0.129633 0.000664816 0)
(-0.135878 0.000573033 0)
(-0.141226 0.000485824 0)
(-0.145702 0.000400032 0)
(-0.149334 0.000318112 0)
(-0.152154 0.000238065 0)
(-0.154205 0.000159646 0)
(-0.155451 8.74522e-05 0)
(-0.155959 1.67965e-05 0)
(-0.155727 -5.75687e-05 0)
(-0.154767 -0.00013177 0)
(-0.153074 -0.000205751 0)
(-0.150635 -0.000280183 0)
(-0.147439 -0.000355706 0)
(-0.143469 -0.000434427 0)
(-0.138709 -0.000513176 0)
(-0.133137 -0.00059352 0)
(-0.126734 -0.000679643 0)
(-0.119482 -0.000762562 0)
(-0.111369 -0.000845648 0)
(-0.102386 -0.0009368 0)
(-0.092547 -0.00101605 0)
(-0.0818801 -0.00110442 0)
(-0.0704324 -0.00117308 0)
(-0.0582783 -0.00123351 0)
(-0.045491 -0.001303 0)
(-0.0321635 -0.00134397 0)
(-0.0184159 -0.00137268 0)
(-0.00436282 -0.00140879 0)
(0.0098682 -0.00141238 0)
(0.0241365 -0.0014211 0)
(0.0383067 -0.00139795 0)
(0.0522281 -0.0013605 0)
(0.0657585 -0.00132442 0)
(0.0787684 -0.00126277 0)
(0.0911282 -0.00118868 0)
(0.102718 -0.00111295 0)
(0.113437 -0.00102036 0)
(0.123191 -0.000922823 0)
(0.13191 -0.000813431 0)
(0.139516 -0.00069835 0)
(0.14594 -0.000580578 0)
(0.151139 -0.000452442 0)
(0.155056 -0.000315074 0)
(0.157622 -0.000181693 0)
(0.158776 -4.37431e-05 0)
(0.158508 0.000107084 0)
(0.156669 0.000255962 0)
(0.153345 0.000413501 0)
(0.14856 0.000559571 0)
(0.142135 0.000706645 0)
(0.13431 0.000854812 0)
(0.12515 0.000980354 0)
(0.114483 0.00110003 0)
(0.102812 0.00121064 0)
(0.0902617 0.0012938 0)
(0.0765879 0.00136412 0)
(0.0625231 0.00141274 0)
(0.0481693 0.00145113 0)
(0.0331908 0.00146582 0)
(0.0184459 0.00146337 0)
(0.0040388 0.00145099 0)
(-0.0104242 0.00142505 0)
(-0.024643 0.00138276 0)
(-0.0384847 0.00133426 0)
(-0.0517944 0.0012766 0)
(-0.0644084 0.00120668 0)
(-0.0763409 0.00113039 0)
(-0.0873487 0.00104771 0)
(-0.0974926 0.000958642 0)
(-0.106774 0.000869738 0)
(-0.114994 0.00077123 0)
(-0.122313 0.000673453 0)
(-0.128603 0.000584439 0)
(-0.133874 0.000484805 0)
(-0.138352 0.00039611 0)
(-0.141844 0.000311421 0)
(-0.144434 0.000224391 0)
(-0.146288 0.000150597 0)
(-0.147313 7.37366e-05 0)
(-0.147648 9.21641e-06 0)
(-0.147328 -5.71276e-05 0)
(-0.146301 -0.000117008 0)
(-0.144739 -0.000170669 0)
(-0.142622 -0.000227519 0)
(-0.140013 -0.000278546 0)
(-0.136905 -0.000323275 0)
(-0.133365 -0.000376149 0)
(-0.129299 -0.000415504 0)
(-0.1248 -0.000465898 0)
(-0.119867 -0.000512255 0)
(-0.114453 -0.000559396 0)
(-0.108508 -0.000610225 0)
(-0.102093 -0.000666394 0)
(-0.0951171 -0.000718117 0)
(-0.0875576 -0.000782426 0)
(-0.0793302 -0.000843524 0)
(-0.0704935 -0.000911754 0)
(-0.0609675 -0.000977429 0)
(-0.0507506 -0.00104854 0)
(-0.0398387 -0.00111108 0)
(-0.0283131 -0.0011819 0)
(-0.0161248 -0.00123519 0)
(-0.00333807 -0.00129034 0)
(0.00991123 -0.00133077 0)
(0.0234919 -0.00136525 0)
(0.0373443 -0.00138472 0)
(0.0513202 -0.00138079 0)
(0.0651856 -0.00136697 0)
(0.0787896 -0.00133227 0)
(0.0919439 -0.00127299 0)
(0.104404 -0.001197 0)
(0.115983 -0.00109814 0)
(0.126471 -0.000979554 0)
(0.135655 -0.000842544 0)
(0.143388 -0.000690966 0)
(0.149532 -0.000523367 0)
(0.153931 -0.000349252 0)
(0.156546 -0.000168483 0)
(0.157309 1.10424e-05 0)
(0.156272 0.000193067 0)
(0.153422 0.000368117 0)
(0.148882 0.000533944 0)
(0.142738 0.000684408 0)
(0.135134 0.00082051 0)
(0.126232 0.000944449 0)
(0.116169 0.00104514 0)
(0.105158 0.00113488 0)
(0.0934007 0.00120234 0)
(0.081039 0.00125116 0)
(0.0682566 0.00128141 0)
(0.0552422 0.00129833 0)
(0.0421529 0.00129779 0)
(0.0291261 0.00128645 0)
(0.0162884 0.00125947 0)
(0.00377177 0.00122404 0)
(-0.00834482 0.00118101 0)
(-0.0199851 0.00112948 0)
(-0.0310997 0.00107513 0)
(-0.0416419 0.00101481 0)
(-0.0515456 0.00095165 0)
(-0.0608318 0.000890191 0)
(-0.0694891 0.000823411 0)
(-0.0774688 0.000761676 0)
(-0.0848048 0.000698262 0)
(-0.0915236 0.000634304 0)
(-0.0976049 0.000572805 0)
(-0.103076 0.000510434 0)
(-0.107944 0.000451517 0)
(-0.112209 0.000394736 0)
(-0.115871 0.000332238 0)
(-0.118948 0.000278694 0)
(-0.121449 0.000221647 0)
(-0.123398 0.000164799 0)
(-0.124769 0.000106516 0)
(-0.125552 5.06494e-05 0)
(-0.125811 -3.87386e-06 0)
(-0.125461 -6.21688e-05 0)
(-0.124553 -0.000116082 0)
(-0.123071 -0.000175603 0)
(-0.121024 -0.000232911 0)
(-0.118358 -0.000292198 0)
(-0.115106 -0.000350314 0)
(-0.111281 -0.000412869 0)
(-0.106831 -0.000470821 0)
(-0.101754 -0.000532533 0)
(-0.0960589 -0.000592737 0)
(-0.089785 -0.000657222 0)
(-0.0828826 -0.000713408 0)
(-0.0753538 -0.00077412 0)
(-0.0672403 -0.000831062 0)
(-0.0585874 -0.000888358 0)
(-0.0493758 -0.000939091 0)
(-0.0396644 -0.000987682 0)
(-0.0295081 -0.00102868 0)
(-0.0189356 -0.0010631 0)
(-0.00806007 -0.00109622 0)
(0.00310358 -0.00111424 0)
(0.0144055 -0.00112965 0)
(0.0257805 -0.00113071 0)
(0.0371757 -0.00112129 0)
(0.0484053 -0.00110489 0)
(0.059383 -0.00107426 0)
(0.0700121 -0.0010306 0)
(0.0801457 -0.000980216 0)
(0.0897074 -0.000914905 0)
(0.0985496 -0.000837364 0)
(0.106563 -0.000753931 0)
(0.113706 -0.00065805 0)
(0.11983 -0.000557119 0)
(0.124895 -0.000446722 0)
(0.128825 -0.000332286 0)
(0.131592 -0.00021824 0)
(0.133204 -9.82433e-05 0)
(0.133587 1.73551e-05 0)
(0.132829 0.000130719 0)
(0.130937 0.00024432 0)
(0.127943 0.000347154 0)
(0.123935 0.00044623 0)
(0.118994 0.000535351 0)
(0.113172 0.000611463 0)
(0.106625 0.000685955 0)
(0.0994549 0.000742507 0)
(0.0917332 0.000788576 0)
(0.0835758 0.000823674 0)
(0.0751501 0.000846494 0)
(0.0665675 0.000860299 0)
(0.0578801 0.000862386 0)
(0.0492129 0.000854957 0)
(0.0406778 0.000836527 0)
(0.0323635 0.000813628 0)
(0.0243222 0.000782519 0)
(0.0166203 0.000744672 0)
(0.00931299 0.000699384 0)
(0.00248064 0.000658135 0)
(-0.00386037 0.000606947 0)
(-0.00971864 0.000555513 0)
(-0.0150494 0.000502069 0)
(-0.0198387 0.000448716 0)
(-0.0240887 0.000394609 0)
(-0.0277963 0.000340967 0)
(-0.0309688 0.000288551 0)
(-0.0336175 0.000237268 0)
(-0.0357567 0.000187372 0)
(-0.0374045 0.000139449 0)
(-0.0385806 9.38846e-05 0)
(-0.0393083 5.09567e-05 0)
(-0.0396146 1.00808e-05 0)
(-0.0395206 -2.84452e-05 0)
(-0.0390521 -6.42924e-05 0)
(-0.038237 -9.75787e-05 0)
(-0.0370983 -0.000128168 0)
(-0.0356623 -0.000156304 0)
(-0.0339566 -0.000181997 0)
(-0.032005 -0.000205272 0)
(-0.0298323 -0.000225554 0)
(-0.0274637 -0.000243981 0)
(-0.0249238 -0.000259732 0)
(-0.0222373 -0.000273091 0)
(-0.019429 -0.000283942 0)
(-0.0165205 -0.000292806 0)
(-0.0135318 -0.000299418 0)
(-0.0104933 -0.000303425 0)
(-0.00742448 -0.000305586 0)
(-0.00433979 -0.000305803 0)
(-0.0012655 -0.000303901 0)
(0.00177911 -0.000300029 0)
(0.00477693 -0.000294521 0)
(0.00771159 -0.000287268 0)
(0.0105631 -0.000278413 0)
(0.0133174 -0.000267894 0)
(0.0159619 -0.000256288 0)
(0.0184808 -0.000243332 0)
(0.0208633 -0.000229246 0)
(0.0231005 -0.000214257 0)
(0.0251818 -0.000198494 0)
(0.0271008 -0.000181958 0)
(0.0288495 -0.000164999 0)
(0.0304257 -0.000147593 0)
(0.0318265 -0.000130004 0)
(0.0330481 -0.000112359 0)
(0.0340919 -9.45126e-05 0)
(0.0349594 -7.71493e-05 0)
(0.035652 -6.00509e-05 0)
(0.0361738 -4.3177e-05 0)
(0.0365318 -2.70315e-05 0)
(0.0367286 -1.1597e-05 0)
(0.0367738 3.29519e-06 0)
(0.0366757 1.72539e-05 0)
(0.0364387 3.05792e-05 0)
(0.0360753 4.28356e-05 0)
(0.0355924 5.42967e-05 0)
(0.0349998 6.47561e-05 0)
(0.0343072 7.43191e-05 0)
(0.0335235 8.28282e-05 0)
(0.0326596 9.04616e-05 0)
(0.0317245 9.7029e-05 0)
(0.030728 0.000102674 0)
(0.0296799 0.000107373 0)
(0.0285892 0.000111179 0)
(0.0274648 0.000114106 0)
(0.026315 0.000116201 0)
(0.025148 0.000117526 0)
(0.0239713 0.000118124 0)
(0.0227918 0.000118018 0)
(0.0216162 0.000117306 0)
(0.0204505 0.000115994 0)
(0.0193001 0.000114188 0)
(0.01817 0.000111921 0)
(0.0170645 0.000109221 0)
(0.0159874 0.000106192 0)
(0.014942 0.00010286 0)
(0.0139312 9.92479e-05 0)
(0.0129572 9.54453e-05 0)
(0.012022 9.14724e-05 0)
(0.0111272 8.73544e-05 0)
(0.0102737 8.31645e-05 0)
(0.00946244 7.89032e-05 0)
(0.00869372 7.46355e-05 0)
(0.00796765 7.03725e-05 0)
(0.00728409 6.61274e-05 0)
(0.00664261 6.19488e-05 0)
(0.00604258 5.78459e-05 0)
(0.00548315 5.38303e-05 0)
(0.00496328 4.99365e-05 0)
(0.00448178 4.61635e-05 0)
(0.00403732 4.25366e-05 0)
(0.00362845 3.90574e-05 0)
(0.00325368 3.57289e-05 0)
(0.00291142 3.25646e-05 0)
(0.00260006 2.9564e-05 0)
(0.00231794 2.67276e-05 0)
(0.0020634 2.40608e-05 0)
(0.00183476 2.15595e-05 0)
(0.00163036 1.9225e-05 0)
(0.00144856 1.70527e-05 0)
(0.00128775 1.50381e-05 0)
(0.00114636 1.31778e-05 0)
(0.00102289 1.14659e-05 0)
(0.000915862 9.89651e-06 0)
(0.000823885 8.46419e-06 0)
(0.00074561 7.16262e-06 0)
(0.000679753 5.98591e-06 0)
(0.000625093 4.92734e-06 0)
(0.000580473 3.98008e-06 0)
(0.000544805 3.13728e-06 0)
(0.000517063 2.39232e-06 0)
(0.000496291 1.73743e-06 0)
(0.000481591 1.16369e-06 0)
(0.000472086 6.63667e-07 0)
(0.000466842 2.335e-07 0)
(0.000465617 -1.24419e-07 0)
(0.000468082 -4.14994e-07 0)
(0.000473318 -6.48872e-07 0)
(0.000480723 -8.32021e-07 0)
(0.000489783 -9.69262e-07 0)
(0.000500043 -1.0651e-06 0)
(0.000511097 -1.12383e-06 0)
(0.000522584 -1.14975e-06 0)
(0.00053419 -1.14678e-06 0)
(0.000545642 -1.11913e-06 0)
(0.000556706 -1.0706e-06 0)
(0.000567191 -1.00482e-06 0)
(0.000576939 -9.25357e-07 0)
(0.000585827 -8.35351e-07 0)
(0.000593766 -7.37675e-07 0)
(0.000600691 -6.34927e-07 0)
(0.000606562 -5.29219e-07 0)
(0.000611359 -4.22338e-07 0)
(0.000615076 -3.15672e-07 0)
(0.000617723 -2.10104e-07 0)
(0.000619314 -1.06286e-07 0)
(0.000619873 -4.47108e-09 0)
(0.000619012 9.52502e-08 0)
(-0.107487 0.00284145 0)
(-0.11441 0.00254316 0)
(-0.122514 0.00226814 0)
(-0.129668 0.00199444 0)
(-0.135912 0.00171909 0)
(-0.14126 0.00145755 0)
(-0.145735 0.0012002 0)
(-0.149365 0.00095429 0)
(-0.152184 0.000714224 0)
(-0.154234 0.000478965 0)
(-0.155481 0.0002619 0)
(-0.155987 5.11417e-05 0)
(-0.155756 -0.000172533 0)
(-0.154797 -0.000395236 0)
(-0.153104 -0.000617115 0)
(-0.150666 -0.00084039 0)
(-0.14747 -0.00106696 0)
(-0.143502 -0.00130311 0)
(-0.138742 -0.00153934 0)
(-0.133172 -0.00178041 0)
(-0.12677 -0.0020388 0)
(-0.119519 -0.00228753 0)
(-0.111406 -0.00253687 0)
(-0.102424 -0.00281043 0)
(-0.0925836 -0.00304818 0)
(-0.0819157 -0.00331339 0)
(-0.0704659 -0.00351951 0)
(-0.058309 -0.00370077 0)
(-0.045519 -0.00390933 0)
(-0.0321876 -0.00403233 0)
(-0.0184358 -0.00411838 0)
(-0.00437809 -0.00422706 0)
(0.00985772 -0.00423773 0)
(0.0241315 -0.00426393 0)
(0.0383066 -0.00419463 0)
(0.0522331 -0.00408207 0)
(0.0657695 -0.00397382 0)
(0.0787849 -0.0037889 0)
(0.091148 -0.00356782 0)
(0.102744 -0.00333899 0)
(0.113468 -0.00306087 0)
(0.123228 -0.00276872 0)
(0.131945 -0.00244482 0)
(0.139563 -0.00209276 0)
(0.145991 -0.00174052 0)
(0.151195 -0.00135832 0)
(0.155109 -0.000950388 0)
(0.157692 -0.000540003 0)
(0.158846 -0.000133584 0)
(0.15858 0.00032077 0)
(0.156746 0.000767159 0)
(0.153427 0.00124011 0)
(0.148643 0.00167845 0)
(0.142218 0.00211965 0)
(0.134392 0.00256451 0)
(0.125229 0.00294177 0)
(0.114557 0.00330046 0)
(0.10288 0.00363264 0)
(0.0903216 0.00388306 0)
(0.0766393 0.00409265 0)
(0.0625666 0.00423923 0)
(0.0482016 0.00435494 0)
(0.0332138 0.00439905 0)
(0.0184597 0.0043907 0)
(0.00404486 0.00435504 0)
(-0.0104275 0.00427648 0)
(-0.0246558 0.00414994 0)
(-0.0385052 0.00400347 0)
(-0.0518189 0.00383029 0)
(-0.0644418 0.00361895 0)
(-0.0763827 0.0033926 0)
(-0.0873943 0.0031458 0)
(-0.0975433 0.0028758 0)
(-0.106833 0.00260694 0)
(-0.115052 0.00231415 0)
(-0.122368 0.00202509 0)
(-0.128673 0.00175137 0)
(-0.133951 0.00145513 0)
(-0.13842 0.00119017 0)
(-0.141911 0.00093488 0)
(-0.144507 0.000672005 0)
(-0.146361 0.000452567 0)
(-0.147384 0.00022485 0)
(-0.147727 2.54166e-05 0)
(-0.1474 -0.000172115 0)
(-0.146373 -0.000350577 0)
(-0.14481 -0.000515209 0)
(-0.142697 -0.000679116 0)
(-0.140082 -0.000837219 0)
(-0.136983 -0.000973324 0)
(-0.133432 -0.00112942 0)
(-0.129376 -0.00124942 0)
(-0.124869 -0.00139898 0)
(-0.119949 -0.00154451 0)
(-0.114508 -0.00167008 0)
(-0.108586 -0.00183938 0)
(-0.102149 -0.00199282 0)
(-0.0952031 -0.00216618 0)
(-0.0876121 -0.00233954 0)
(-0.0794063 -0.00253586 0)
(-0.0705482 -0.00272945 0)
(-0.0610261 -0.00293393 0)
(-0.0508018 -0.00314321 0)
(-0.0399135 -0.00334679 0)
(-0.0283597 -0.00354309 0)
(-0.0161645 -0.00370464 0)
(-0.0033659 -0.00386809 0)
(0.00986718 -0.00400618 0)
(0.0234791 -0.00409268 0)
(0.0373444 -0.00415097 0)
(0.0513065 -0.00415321 0)
(0.065205 -0.0040993 0)
(0.0788222 -0.00399738 0)
(0.0919768 -0.00382494 0)
(0.104459 -0.00359119 0)
(0.116043 -0.0033014 0)
(0.12655 -0.00293334 0)
(0.135744 -0.00253144 0)
(0.143484 -0.00207539 0)
(0.149634 -0.00157004 0)
(0.154039 -0.00105131 0)
(0.156657 -0.000505699 0)
(0.157423 2.96297e-05 0)
(0.156378 0.000579584 0)
(0.153528 0.00110495 0)
(0.148977 0.00159821 0)
(0.142834 0.00205215 0)
(0.13523 0.00246954 0)
(0.126307 0.00282956 0)
(0.116241 0.00313697 0)
(0.105218 0.0034078 0)
(0.0934455 0.00360415 0)
(0.0810802 0.00375448 0)
(0.0682934 0.00385063 0)
(0.0552636 0.00389391 0)
(0.0421646 0.00389637 0)
(0.0291272 0.00385747 0)
(0.016286 0.00378006 0)
(0.00376126 0.00367336 0)
(-0.00836026 0.0035433 0)
(-0.0200079 0.00339076 0)
(-0.0311264 0.00322722 0)
(-0.0416706 0.00304346 0)
(-0.0515809 0.00285774 0)
(-0.0608704 0.00266871 0)
(-0.0695237 0.00247064 0)
(-0.0775134 0.00228402 0)
(-0.0848484 0.00209415 0)
(-0.0915617 0.00190619 0)
(-0.0976521 0.00171696 0)
(-0.103121 0.0015334 0)
(-0.10799 0.00135635 0)
(-0.112256 0.00118243 0)
(-0.115917 0.000998848 0)
(-0.118996 0.000837536 0)
(-0.121502 0.000661622 0)
(-0.123449 0.00049462 0)
(-0.124821 0.000318412 0)
(-0.125604 0.000155676 0)
(-0.125861 -1.34343e-05 0)
(-0.125514 -0.000186605 0)
(-0.124602 -0.000348392 0)
(-0.123132 -0.000532473 0)
(-0.12107 -0.000694541 0)
(-0.11841 -0.000876504 0)
(-0.115157 -0.00105123 0)
(-0.111333 -0.00124 0)
(-0.106881 -0.00141059 0)
(-0.101804 -0.00159935 0)
(-0.0961112 -0.00177842 0)
(-0.0898299 -0.00197151 0)
(-0.0829378 -0.00214721 0)
(-0.0753919 -0.00231991 0)
(-0.0672882 -0.00249723 0)
(-0.0586234 -0.00266327 0)
(-0.0494093 -0.00281769 0)
(-0.0396962 -0.00296204 0)
(-0.0295337 -0.0030877 0)
(-0.0189613 -0.0031916 0)
(-0.00807269 -0.00328803 0)
(0.00308648 -0.00334859 0)
(0.0144033 -0.00338936 0)
(0.0257848 -0.00339327 0)
(0.0371853 -0.00336365 0)
(0.0484222 -0.00331577 0)
(0.059408 -0.00322538 0)
(0.0700415 -0.00309484 0)
(0.080186 -0.00294056 0)
(0.089756 -0.00274517 0)
(0.0985938 -0.00252099 0)
(0.106628 -0.00225796 0)
(0.113773 -0.00197416 0)
(0.119899 -0.00167255 0)
(0.12497 -0.00133944 0)
(0.128901 -0.000998348 0)
(0.131669 -0.000655915 0)
(0.133283 -0.000293822 0)
(0.133666 4.92345e-05 0)
(0.132904 0.000393314 0)
(0.131012 0.00073296 0)
(0.128014 0.00104188 0)
(0.124003 0.00133933 0)
(0.119057 0.00160682 0)
(0.113231 0.00183488 0)
(0.106678 0.00205885 0)
(0.0995002 0.00222826 0)
(0.0917723 0.00236685 0)
(0.0836088 0.002471 0)
(0.0751767 0.0025414 0)
(0.0665877 0.00258209 0)
(0.0578941 0.00258799 0)
(0.0492203 0.00256592 0)
(0.0406805 0.00251033 0)
(0.0323621 0.00244222 0)
(0.0243149 0.00234801 0)
(0.0166092 0.00223467 0)
(0.00929959 0.00209997 0)
(0.00246309 0.00197394 0)
(-0.00388028 0.00182123 0)
(-0.0097404 0.00166687 0)
(-0.0150727 0.00150722 0)
(-0.0198645 0.00134588 0)
(-0.0241143 0.00118402 0)
(-0.0278227 0.00102304 0)
(-0.0309959 0.000866033 0)
(-0.0336446 0.000711781 0)
(-0.0357833 0.00056213 0)
(-0.0374309 0.000418324 0)
(-0.0386068 0.000281868 0)
(-0.0393337 0.000152744 0)
(-0.0396392 3.002e-05 0)
(-0.0395436 -8.53037e-05 0)
(-0.0390744 -0.000193021 0)
(-0.0382582 -0.000292854 0)
(-0.0371182 -0.000384724 0)
(-0.0356811 -0.000469156 0)
(-0.0339739 -0.000546182 0)
(-0.0320209 -0.000616047 0)
(-0.0298472 -0.000677148 0)
(-0.0274766 -0.000732032 0)
(-0.0249354 -0.000779434 0)
(-0.0222476 -0.000819639 0)
(-0.0194375 -0.00085205 0)
(-0.0165277 -0.000878715 0)
(-0.0135373 -0.000898444 0)
(-0.0104973 -0.000910674 0)
(-0.00742709 -0.000917096 0)
(-0.00434085 -0.000917661 0)
(-0.00126507 -0.000911996 0)
(0.0017806 -0.00090065 0)
(0.00478037 -0.000883638 0)
(0.0077161 -0.00086206 0)
(0.0105689 -0.000835522 0)
(0.0133245 -0.000803889 0)
(0.01597 -0.000769117 0)
(0.0184899 -0.000730268 0)
(0.0208736 -0.000687878 0)
(0.0231115 -0.000642987 0)
(0.0251937 -0.000595651 0)
(0.027113 -0.000546238 0)
(0.0288629 -0.000494979 0)
(0.0304394 -0.000442859 0)
(0.0318406 -0.000390139 0)
(0.0330624 -0.00033718 0)
(0.0341065 -0.000283581 0)
(0.0349741 -0.000231501 0)
(0.0356667 -0.000180222 0)
(0.0361884 -0.000129541 0)
(0.036546 -8.12651e-05 0)
(0.0367431 -3.45842e-05 0)
(0.0367878 9.86944e-06 0)
(0.0366892 5.18123e-05 0)
(0.0364518 9.17767e-05 0)
(0.036088 0.000128574 0)
(0.0356045 0.000162953 0)
(0.0350113 0.000194358 0)
(0.0343182 0.000223038 0)
(0.0335339 0.000248579 0)
(0.0326693 0.000271483 0)
(0.0317336 0.000291186 0)
(0.0307364 0.000308127 0)
(0.0296876 0.000322223 0)
(0.0285963 0.000333643 0)
(0.0274712 0.000342425 0)
(0.0263208 0.000348705 0)
(0.0251532 0.000352678 0)
(0.0239758 0.000354472 0)
(0.0227958 0.00035415 0)
(0.0216197 0.00035201 0)
(0.0204535 0.00034807 0)
(0.0193026 0.000342647 0)
(0.0181721 0.00033584 0)
(0.0170662 0.000327735 0)
(0.0159888 0.000318643 0)
(0.014943 0.000308643 0)
(0.0139319 0.000297801 0)
(0.0129576 0.000286389 0)
(0.0120222 0.000274465 0)
(0.0111271 0.000262107 0)
(0.0102735 0.000249533 0)
(0.00946204 0.000236745 0)
(0.00869318 0.000223938 0)
(0.007967 0.000211145 0)
(0.00728333 0.000198406 0)
(0.00664178 0.000185867 0)
(0.00604169 0.000173556 0)
(0.00548221 0.000161506 0)
(0.00496232 0.000149822 0)
(0.0044808 0.000138501 0)
(0.00403634 0.000127618 0)
(0.00362748 0.000117179 0)
(0.00325271 0.000107192 0)
(0.00291048 9.76978e-05 0)
(0.00259914 8.86947e-05 0)
(0.00231706 8.01842e-05 0)
(0.00206255 7.2183e-05 0)
(0.00183395 6.46784e-05 0)
(0.0016296 5.76742e-05 0)
(0.00144784 5.11568e-05 0)
(0.00128707 4.51124e-05 0)
(0.00114573 3.95314e-05 0)
(0.0010223 3.43953e-05 0)
(0.000915318 2.96869e-05 0)
(0.000823384 2.53898e-05 0)
(0.000745152 2.1485e-05 0)
(0.000679336 1.79548e-05 0)
(0.000624716 1.47791e-05 0)
(0.000580134 1.19373e-05 0)
(0.000544502 9.40892e-06 0)
(0.000516794 7.17392e-06 0)
(0.000496054 5.20951e-06 0)
(0.000481382 3.48857e-06 0)
(0.000471903 1.98825e-06 0)
(0.000466686 6.97276e-07 0)
(0.000465487 -3.75825e-07 0)
(0.000467976 -1.24722e-06 0)
(0.000473233 -1.94865e-06 0)
(0.000480657 -2.49792e-06 0)
(0.000489734 -2.90947e-06 0)
(0.000500009 -3.19682e-06 0)
(0.000511077 -3.37285e-06 0)
(0.000522577 -3.45042e-06 0)
(0.000534194 -3.44135e-06 0)
(0.000545655 -3.35827e-06 0)
(0.000556727 -3.21254e-06 0)
(0.000567218 -3.01504e-06 0)
(0.000576971 -2.77653e-06 0)
(0.000585863 -2.5064e-06 0)
(0.000593805 -2.21327e-06 0)
(0.000600732 -1.90494e-06 0)
(0.000606603 -1.58774e-06 0)
(0.000611401 -1.26704e-06 0)
(0.000615118 -9.46999e-07 0)
(0.000617764 -6.30272e-07 0)
(0.000619355 -3.1877e-07 0)
(0.000619913 -1.32214e-08 0)
(0.000619051 2.85948e-07 0)
(-0.107563 0.00473567 0)
(-0.114484 0.00423851 0)
(-0.122588 0.00378013 0)
(-0.129741 0.00332392 0)
(-0.135983 0.00286493 0)
(-0.141328 0.00242908 0)
(-0.145801 0.0020002 0)
(-0.14943 0.00159024 0)
(-0.152245 0.00119047 0)
(-0.15429 0.000798806 0)
(-0.15554 0.000435404 0)
(-0.156047 8.45732e-05 0)
(-0.155815 -0.000288105 0)
(-0.154855 -0.000658758 0)
(-0.153163 -0.00102837 0)
(-0.150726 -0.00140042 0)
(-0.147531 -0.00177801 0)
(-0.143565 -0.00217156 0)
(-0.138806 -0.00256526 0)
(-0.133237 -0.00296709 0)
(-0.126837 -0.00339779 0)
(-0.119587 -0.00381243 0)
(-0.111474 -0.00422817 0)
(-0.102491 -0.00468433 0)
(-0.0926484 -0.0050808 0)
(-0.0819777 -0.00552304 0)
(-0.0705221 -0.00586675 0)
(-0.0583585 -0.00616912 0)
(-0.0455617 -0.00651689 0)
(-0.0322215 -0.00672206 0)
(-0.0184601 -0.00686526 0)
(-0.00439237 -0.00704724 0)
(0.0098537 -0.00706472 0)
(0.0241391 -0.00710843 0)
(0.0383251 -0.00699285 0)
(0.0522619 -0.00680538 0)
(0.0658096 -0.00662459 0)
(0.0788349 -0.00631637 0)
(0.0912073 -0.00594801 0)
(0.102812 -0.00556717 0)
(0.113544 -0.00510168 0)
(0.123311 -0.00461578 0)
(0.132035 -0.00407621 0)
(0.139654 -0.0034922 0)
(0.146091 -0.00289856 0)
(0.151301 -0.00226343 0)
(0.15522 -0.00158648 0)
(0.157794 -0.000909188 0)
(0.15897 -0.000215027 0)
(0.158696 0.000536689 0)
(0.156863 0.00127882 0)
(0.153547 0.00206708 0)
(0.14876 0.00279811 0)
(0.142331 0.00353321 0)
(0.1345 0.00427576 0)
(0.125326 0.0049048 0)
(0.114644 0.00550237 0)
(0.102957 0.00605713 0)
(0.0903805 0.00647359 0)
(0.0766865 0.00682369 0)
(0.062601 0.00706821 0)
(0.0482193 0.00726147 0)
(0.033216 0.00733254 0)
(0.0184553 0.00732107 0)
(0.00402781 0.0072614 0)
(-0.0104535 0.00713 0)
(-0.0246902 0.00691898 0)
(-0.03855 0.0066727 0)
(-0.0518668 0.00638388 0)
(-0.0644984 0.00603495 0)
(-0.0764443 0.00565549 0)
(-0.0874651 0.00524271 0)
(-0.0976172 0.00479375 0)
(-0.106905 0.0043457 0)
(-0.115132 0.00385637 0)
(-0.122447 0.00337175 0)
(-0.128741 0.00292559 0)
(-0.134032 0.00242765 0)
(-0.1385 0.00197969 0)
(-0.141979 0.00156064 0)
(-0.144575 0.00112197 0)
(-0.146428 0.000753187 0)
(-0.147453 0.000374806 0)
(-0.147789 4.09136e-05 0)
(-0.147455 -0.000284536 0)
(-0.146425 -0.000586886 0)
(-0.144857 -0.00085363 0)
(-0.142759 -0.00114575 0)
(-0.140126 -0.00138752 0)
(-0.137034 -0.00162595 0)
(-0.133472 -0.00187378 0)
(-0.129423 -0.00208688 0)
(-0.124917 -0.00232763 0)
(-0.119996 -0.00257454 0)
(-0.11456 -0.0027884 0)
(-0.108634 -0.00305642 0)
(-0.102203 -0.00332404 0)
(-0.0952553 -0.00360533 0)
(-0.0876786 -0.00390595 0)
(-0.079469 -0.004225 0)
(-0.070616 -0.00455425 0)
(-0.0610861 -0.0048824 0)
(-0.0508652 -0.00524147 0)
(-0.0399708 -0.00557343 0)
(-0.028425 -0.00591068 0)
(-0.0162183 -0.00617972 0)
(-0.00341438 -0.00644726 0)
(0.00983449 -0.00667186 0)
(0.0234472 -0.00683339 0)
(0.0373275 -0.00691709 0)
(0.0513052 -0.00692433 0)
(0.0652114 -0.00684173 0)
(0.0788559 -0.00665788 0)
(0.0920233 -0.00638085 0)
(0.104522 -0.0059889 0)
(0.116125 -0.00550012 0)
(0.126633 -0.00490717 0)
(0.135859 -0.00421354 0)
(0.14361 -0.0034573 0)
(0.149758 -0.00262868 0)
(0.154179 -0.00174616 0)
(0.156795 -0.000846193 0)
(0.157566 4.77341e-05 0)
(0.156508 0.000970888 0)
(0.153657 0.0018423 0)
(0.149099 0.00266573 0)
(0.142941 0.00342014 0)
(0.135325 0.0041136 0)
(0.126399 0.00472479 0)
(0.116315 0.00523296 0)
(0.105274 0.0056784 0)
(0.0934881 0.00601059 0)
(0.0811039 0.00625774 0)
(0.0683059 0.00641651 0)
(0.055272 0.00649801 0)
(0.0421549 0.00649457 0)
(0.0291091 0.00643038 0)
(0.016258 0.00630187 0)
(0.00372504 0.00612279 0)
(-0.00839863 0.00590773 0)
(-0.0200587 0.00565219 0)
(-0.0311809 0.0053731 0)
(-0.0417163 0.0050797 0)
(-0.0516383 0.00476129 0)
(-0.0609274 0.00444515 0)
(-0.0695736 0.00412007 0)
(-0.0775646 0.00381052 0)
(-0.0849071 0.00348656 0)
(-0.0916155 0.00317502 0)
(-0.0977002 0.0028667 0)
(-0.103176 0.00255415 0)
(-0.108044 0.00225666 0)
(-0.1123 0.00197571 0)
(-0.115968 0.00166485 0)
(-0.119048 0.00139083 0)
(-0.121551 0.0011066 0)
(-0.123498 0.000820395 0)
(-0.124869 0.000537314 0)
(-0.125662 0.000252068 0)
(-0.125905 -1.68958e-05 0)
(-0.125564 -0.00031298 0)
(-0.124648 -0.000578087 0)
(-0.12318 -0.000887795 0)
(-0.121123 -0.00116143 0)
(-0.118458 -0.00145682 0)
(-0.115209 -0.00175398 0)
(-0.111381 -0.00206504 0)
(-0.106937 -0.00235801 0)
(-0.101854 -0.00265995 0)
(-0.0961672 -0.00296954 0)
(-0.0898803 -0.00328431 0)
(-0.0829825 -0.00357514 0)
(-0.0754427 -0.00386867 0)
(-0.0673347 -0.00415956 0)
(-0.0586723 -0.00444447 0)
(-0.049449 -0.00469299 0)
(-0.0397389 -0.0049432 0)
(-0.0295649 -0.00514365 0)
(-0.018992 -0.00532363 0)
(-0.0080953 -0.00547986 0)
(0.00307169 -0.00558041 0)
(0.0143937 -0.00565326 0)
(0.0257896 -0.00565336 0)
(0.0371881 -0.00561368 0)
(0.0484378 -0.00552699 0)
(0.0594391 -0.00537351 0)
(0.0700756 -0.00516277 0)
(0.0802282 -0.00490548 0)
(0.0898133 -0.00457148 0)
(0.09866 -0.00420412 0)
(0.106693 -0.00377022 0)
(0.113851 -0.00328668 0)
(0.119985 -0.00278697 0)
(0.125053 -0.00223923 0)
(0.128993 -0.00166123 0)
(0.131764 -0.00109122 0)
(0.133372 -0.00049597 0)
(0.133763 8.30743e-05 0)
(0.132989 0.000659903 0)
(0.131096 0.00122227 0)
(0.128095 0.00173817 0)
(0.124077 0.00223255 0)
(0.119122 0.00267972 0)
(0.11329 0.00306091 0)
(0.106728 0.00343172 0)
(0.0995414 0.00371576 0)
(0.0918032 0.00394581 0)
(0.0836325 0.0041171 0)
(0.0751916 0.00424047 0)
(0.0665929 0.00430465 0)
(0.0578924 0.00431507 0)
(0.0492089 0.00427719 0)
(0.0406642 0.0041855 0)
(0.03234 0.00407119 0)
(0.0242872 0.00391419 0)
(0.0165769 0.00372583 0)
(0.00926408 0.00350172 0)
(0.00242567 0.00328863 0)
(-0.00392064 0.00303592 0)
(-0.00978159 0.0027787 0)
(-0.0151161 0.00251177 0)
(-0.0199076 0.00224301 0)
(-0.0241567 0.00197349 0)
(-0.0278643 0.00170571 0)
(-0.031038 0.00144252 0)
(-0.033685 0.00118599 0)
(-0.0358217 0.000936968 0)
(-0.0374675 0.00069751 0)
(-0.0386433 0.000468841 0)
(-0.0393677 0.000254222 0)
(-0.0396708 4.98197e-05 0)
(-0.0395732 -0.00014259 0)
(-0.0391018 -0.000321924 0)
(-0.0382837 -0.000488745 0)
(-0.0371414 -0.000641383 0)
(-0.0357024 -0.000782187 0)
(-0.0339935 -0.00091087 0)
(-0.0320381 -0.00102688 0)
(-0.0298624 -0.00112899 0)
(-0.0274903 -0.00122054 0)
(-0.0249469 -0.00129928 0)
(-0.0222572 -0.0013664 0)
(-0.0194453 -0.00142057 0)
(-0.0165337 -0.00146468 0)
(-0.0135417 -0.00149783 0)
(-0.0104996 -0.00151812 0)
(-0.00742789 -0.00152875 0)
(-0.00434037 -0.00152996 0)
(-0.00126267 -0.00152009 0)
(0.00178448 -0.00150141 0)
(0.00478534 -0.00147311 0)
(0.00772261 -0.00143682 0)
(0.0105765 -0.00139296 0)
(0.0133334 -0.00134 0)
(0.0159799 -0.00128192 0)
(0.0185006 -0.00121737 0)
(0.0208851 -0.00114674 0)
(0.0231239 -0.00107166 0)
(0.0252066 -0.000992821 0)
(0.0271264 -0.00091046 0)
(0.0288764 -0.000825367 0)
(0.0304535 -0.000737955 0)
(0.0318547 -0.000650159 0)
(0.0330766 -0.000561986 0)
(0.0341203 -0.000472825 0)
(0.0349879 -0.000385724 0)
(0.0356803 -0.000300203 0)
(0.0362016 -0.000215856 0)
(0.0365586 -0.000135352 0)
(0.0367551 -5.77692e-05 0)
(0.0367995 1.6736e-05 0)
(0.0366999 8.65198e-05 0)
(0.036462 0.000153048 0)
(0.0360975 0.000214445 0)
(0.0356133 0.000271697 0)
(0.0350194 0.000324108 0)
(0.0343254 0.000371861 0)
(0.0335403 0.000414457 0)
(0.032675 0.000452626 0)
(0.0317385 0.00048545 0)
(0.0307405 0.000513703 0)
(0.029691 0.000537183 0)
(0.028599 0.000556211 0)
(0.0274732 0.000570844 0)
(0.0263221 0.000581307 0)
(0.0251539 0.00058792 0)
(0.023976 0.000590901 0)
(0.0227954 0.000590358 0)
(0.0216188 0.000586783 0)
(0.0204522 0.000580207 0)
(0.019301 0.000571161 0)
(0.0181701 0.000559807 0)
(0.0170638 0.000546291 0)
(0.0159861 0.00053113 0)
(0.0149402 0.000514455 0)
(0.0139288 0.000496378 0)
(0.0129545 0.00047735 0)
(0.0120189 0.000457479 0)
(0.0111238 0.000436868 0)
(0.0102701 0.000415905 0)
(0.0094586 0.000394587 0)
(0.00868974 0.000373238 0)
(0.00796357 0.000351912 0)
(0.00727995 0.000330677 0)
(0.00663845 0.000309775 0)
(0.00603843 0.000289252 0)
(0.00547904 0.000269167 0)
(0.00495925 0.000249691 0)
(0.00447784 0.000230821 0)
(0.00403349 0.000212681 0)
(0.00362475 0.000195281 0)
(0.00325012 0.000178635 0)
(0.00290801 0.00016281 0)
(0.00259681 0.000147804 0)
(0.00231486 0.00013362 0)
(0.00206049 0.000120284 0)
(0.00183202 0.000107777 0)
(0.0016278 9.61033e-05 0)
(0.00144617 8.52413e-05 0)
(0.00128553 7.51679e-05 0)
(0.0011443 6.58667e-05 0)
(0.00102099 5.73072e-05 0)
(0.000914121 4.94605e-05 0)
(0.000822294 4.22995e-05 0)
(0.000744164 3.57922e-05 0)
(0.000678445 2.99094e-05 0)
(0.000623916 2.46173e-05 0)
(0.000579421 1.98819e-05 0)
(0.000543869 1.56687e-05 0)
(0.000516237 1.19434e-05 0)
(0.000495564 8.67133e-06 0)
(0.000480954 5.8046e-06 0)
(0.000471532 3.30388e-06 0)
(0.000466372 1.15147e-06 0)
(0.000465229 -6.35002e-07 0)
(0.000467767 -2.08625e-06 0)
(0.000473067 -3.25459e-06 0)
(0.000480529 -4.1694e-06 0)
(0.000489641 -4.85472e-06 0)
(0.000499948 -5.33304e-06 0)
(0.000511043 -5.62584e-06 0)
(0.000522568 -5.75457e-06 0)
(0.000534206 -5.73889e-06 0)
(0.000545685 -5.5999e-06 0)
(0.000556773 -5.35651e-06 0)
(0.000567276 -5.02689e-06 0)
(0.000577038 -4.62895e-06 0)
(0.000585938 -4.17834e-06 0)
(0.000593885 -3.68946e-06 0)
(0.000600814 -3.17528e-06 0)
(0.000606688 -2.64638e-06 0)
(0.000611485 -2.1117e-06 0)
(0.000615202 -1.57816e-06 0)
(0.000617847 -1.05021e-06 0)
(0.000619436 -5.30952e-07 0)
(0.000619993 -2.15579e-08 0)
(0.000619129 4.7708e-07 0)
(-0.107676 0.0066298 0)
(-0.114596 0.00593372 0)
(-0.122699 0.00529193 0)
(-0.12985 0.00465316 0)
(-0.136088 0.00401044 0)
(-0.141431 0.00340022 0)
(-0.1459 0.00279972 0)
(-0.149526 0.00222592 0)
(-0.152338 0.00166707 0)
(-0.154375 0.00112154 0)
(-0.155627 0.000611099 0)
(-0.156139 0.000109895 0)
(-0.155902 -0.000405976 0)
(-0.154943 -0.000922311 0)
(-0.153252 -0.00143942 0)
(-0.150815 -0.00196016 0)
(-0.147623 -0.00248873 0)
(-0.143658 -0.00303961 0)
(-0.138902 -0.00359079 0)
(-0.133336 -0.00415338 0)
(-0.126938 -0.00475643 0)
(-0.119689 -0.00533722 0)
(-0.111576 -0.00591955 0)
(-0.102593 -0.00655857 0)
(-0.0927457 -0.00711429 0)
(-0.0820707 -0.00773382 0)
(-0.0706064 -0.0082151 0)
(-0.0584329 -0.00863955 0)
(-0.045626 -0.00912646 0)
(-0.0322724 -0.00941387 0)
(-0.0184968 -0.00961456 0)
(-0.00441411 -0.00987035 0)
(0.0098475 -0.00989444 0)
(0.0241502 -0.00995575 0)
(0.0383525 -0.0097938 0)
(0.052305 -0.00953124 0)
(0.0658699 -0.00927818 0)
(0.0789095 -0.00884627 0)
(0.0912953 -0.00833046 0)
(0.102914 -0.00779718 0)
(0.113656 -0.00714571 0)