/*--------------------------------*- C++ -*----------------------------------*\
| =========                 |                                                 |
| \\      /  F ield         | OpenFOAM: The Open Source CFD Toolbox           |
|  \\    /   O peration     | Version:  3.0.1                                 |
|   \\  /    A nd           | Web:      www.OpenFOAM.org                      |
|    \\/     M anipulation  |                                                 |
\*---------------------------------------------------------------------------*/
FoamFile
{
    version     2.0;
    format      ascii;
    class       volScalarField;
    location    "63.2";
    object      p;
}
// * * * * * * * * * * * * * * * * * * * * * * * * * * * * * * * * * * * * * //

dimensions      [1 -1 -2 0 0 0 0];

internalField   nonuniform List<scalar> 
21420
(
3752.53
3778.84
3806.88
3830.95
3862.2
3894.71
3928.07
3961.89
3995.86
4029.69
4062.98
4095.31
4126.32
4155.54
4182.55
4206.91
4228.23
4246.18
4260.48
4270.89
4277.28
4279.42
4277.44
4271.28
4261.06
4246.95
4229.16
4207.96
4183.71
4156.75
4127.47
4096.32
4063.73
4030.15
3995.98
3961.66
3927.56
3893.99
3861.44
3830.47
3800.41
3771.65
3744.38
3718.77
3694.87
3672.74
3652.38
3633.79
3616.95
3601.81
3588.35
3576.5
3566.24
3557.51
3550.3
3544.55
3540.27
3537.42
3536.03
3536.11
3537.63
3540.65
3545.2
3551.3
3558.99
3568.33
3579.33
3592.04
3606.51
3622.73
3640.74
3660.52
3682.06
3705.3
3730.19
3756.65
3784.58
3813.85
3844.37
3876.15
3908.44
3941.14
3974.04
4006.87
4039.31
4071.01
4101.62
4130.74
4157.99
4182.99
4205.36
4224.77
4240.94
4253.6
4262.56
4267.69
4268.77
4265.96
4259.2
4248.51
4234.05
4216.03
4194.66
4170.24
4143.11
4113.63
4082.22
4049.3
4015.34
3980.77
3946.04
3911.57
3877.75
3844.9
3813.32
3783.24
3754.85
3728.28
3703.61
3680.9
3660.16
3641.38
3624.52
3609.56
3596.43
3585.08
3575.44
3567.46
3561.07
3556.2
3552.78
3550.77
3550.12
3550.76
3552.64
3555.76
3560.09
3565.63
3572.39
3580.4
3589.69
3600.31
3612.31
3625.74
3640.66
3657.12
3675.16
3694.82
3716.11
3739.02
3763.54
3789.6
3817.13
3846
3876.05
3907.13
3938.92
3971.16
4003.55
4035.73
4067.32
4097.92
4127.12
4154.5
4179.64
4202.14
4221.61
4237.72
4250.15
4258.68
4263.1
4263.33
4259.33
4251.19
4238.99
4222.95
4203.34
4180.5
4154.82
4126.7
4096.62
4065.01
4032.35
3999.08
3965.62
3932.38
3899.71
3867.94
3837.33
3808.11
3780.45
3754.45
3730.21
3707.75
3687.09
3668.2
3651.06
3635.61
3621.8
3609.56
3598.84
3589.57
3581.7
3575.17
3569.94
3565.96
3563.2
3561.65
3561.28
3562.06
3564.02
3567.19
3571.59
3577.26
3584.23
3592.55
3602.26
3613.39
3625.99
3640.09
3655.74
3672.95
3691.76
3712.16
3734.17
3757.74
3782.84
3809.38
3837.25
3866.32
3896.4
3927.32
3958.73
3990.39
4021.97
4053.12
4083.47
4112.62
4140.17
4165.71
4188.83
4209.14
4226.29
4239.97
4249.89
4255.87
4257.7
4255.44
4249.04
4238.57
4224.24
4206.27
4184.99
4160.76
4133.99
4105.14
4074.65
4042.98
4010.59
3977.9
3945.32
3913.2
3881.87
3851.6
3822.61
3795.08
3769.12
3744.82
3722.23
3701.37
3682.24
3664.8
3649.02
3634.86
3622.28
3611.21
3601.61
3593.41
3586.55
3581.03
3576.77
3573.67
3571.75
3570.97
3571.29
3572.71
3575.22
3578.83
3583.58
3589.48
3596.56
3604.89
3614.49
3625.44
3637.84
3651.76
3667.3
3684.54
3703.55
3724.38
3747.05
3771.53
3797.76
3825.63
3854.94
3885.41
3916.6
3948.48
3980.69
4012.79
4044.31
4074.86
4104
4131.3
4156.39
4178.89
4198.5
4214.91
4227.9
4237.31
4243.03
4244.9
4242.86
4237.06
4227.67
4214.86
4198.91
4180.12
4158.78
4135.23
4109.85
4082.97
4054.93
4026.08
3996.73
3967.17
3937.66
3908.53
3880.86
3852.89
3825.65
3799.32
3774.04
3749.93
3727.08
3705.57
3685.48
3666.87
3649.78
3634.28
3620.38
3608.13
3597.55
3588.66
3581.46
3575.96
3572.13
3654.34
3680.64
3708.67
3732.81
3764.05
3796.56
3829.93
3863.76
3897.74
3931.58
3964.89
3997.24
4028.26
4057.51
4084.54
4108.92
4130.25
4148.21
4162.52
4172.95
4179.34
4181.49
4179.49
4173.33
4163.11
4148.98
4131.18
4109.97
4085.7
4058.72
4029.42
3998.25
3965.64
3932.04
3897.86
3863.52
3829.41
3795.83
3763.28
3732.3
3702.24
3673.46
3646.2
3620.59
3596.69
3574.56
3554.2
3535.62
3518.78
3503.64
3490.18
3478.34
3468.08
3459.35
3452.14
3446.4
3442.11
3439.26
3437.87
3437.95
3439.47
3442.49
3447.04
3453.14
3460.82
3470.16
3481.16
3493.87
3508.33
3524.55
3542.56
3562.34
3583.88
3607.12
3632.01
3658.48
3686.41
3715.69
3746.21
3778
3810.3
3843
3875.92
3908.76
3941.21
3972.93
4003.56
4032.7
4059.96
4084.97
4107.36
4126.79
4142.97
4155.64
4164.61
4169.74
4170.83
4168.01
4161.24
4150.55
4136.08
4118.04
4096.66
4072.23
4045.07
4015.57
3984.14
3951.21
3917.23
3882.64
3847.9
3813.41
3779.58
3746.72
3715.13
3685.05
3656.66
3630.09
3605.42
3582.71
3561.97
3543.19
3526.34
3511.38
3498.25
3486.91
3477.27
3469.29
3462.91
3458.04
3454.62
3452.61
3451.97
3452.6
3454.49
3457.61
3461.93
3467.47
3474.24
3482.24
3491.53
3502.15
3514.15
3527.58
3542.49
3558.95
3576.99
3596.65
3617.93
3640.85
3665.36
3691.43
3718.95
3747.83
3777.89
3808.98
3840.77
3873.03
3905.43
3937.63
3969.23
3999.86
4029.07
4056.47
4081.63
4104.14
4123.63
4139.75
4152.2
4160.74
4165.16
4165.39
4161.39
4153.24
4141.03
4124.97
4105.35
4082.5
4056.79
4028.66
3998.55
3966.92
3934.24
3900.95
3867.48
3834.23
3801.55
3769.77
3739.16
3709.93
3682.26
3656.27
3632.02
3609.57
3588.91
3570.02
3552.88
3537.44
3523.63
3511.4
3500.68
3491.41
3483.54
3477.01
3471.79
3467.81
3465.05
3463.5
3463.13
3463.91
3465.87
3469.04
3473.44
3479.1
3486.07
3494.39
3504.1
3515.23
3527.82
3541.93
3557.57
3574.78
3593.58
3613.99
3635.99
3659.56
3684.66
3711.2
3739.09
3768.16
3798.25
3829.17
3860.59
3892.27
3923.86
3955.03
3985.4
4014.57
4042.13
4067.69
4090.82
4111.15
4128.32
4142.01
4151.94
4157.93
4159.76
4157.5
4151.09
4140.62
4126.27
4108.29
4086.98
4062.74
4035.95
4007.08
3976.57
3944.88
3912.47
3879.77
3847.17
3815.05
3783.71
3753.43
3724.44
3696.9
3670.94
3646.64
3624.05
3603.2
3584.07
3566.63
3550.86
3536.7
3524.12
3513.05
3503.46
3495.26
3488.4
3482.88
3478.62
3475.53
3473.61
3472.82
3473.15
3474.56
3477.08
3480.69
3485.43
3491.33
3498.41
3506.73
3516.33
3527.28
3539.68
3553.6
3569.13
3586.36
3605.37
3626.2
3648.87
3673.34
3699.58
3727.45
3756.77
3787.25
3818.45
3850.34
3882.57
3914.68
3946.22
3976.79
4005.95
4033.27
4058.37
4080.9
4100.51
4116.94
4129.94
4139.36
4145.08
4146.96
4144.9
4139.09
4129.7
4116.88
4100.92
4082.11
4060.75
4037.19
4011.79
3984.89
3956.84
3927.98
3898.62
3869.05
3839.53
3810.39
3782.72
3754.74
3727.49
3701.16
3675.88
3651.77
3628.91
3607.4
3587.31
3568.7
3551.61
3536.11
3522.21
3509.96
3499.38
3490.49
3483.29
3477.79
3473.96
3556.05
3582.35
3610.36
3634.63
3665.84
3698.36
3731.75
3765.59
3799.6
3833.47
3866.81
3899.19
3930.26
3959.54
3986.61
4011.03
4032.4
4050.39
4064.72
4075.16
4081.56
4083.74
4081.71
4075.55
4065.3
4051.15
4033.32
4012.08
3987.77
3960.75
3931.41
3900.21
3867.56
3833.93
3799.72
3765.35
3731.21
3697.62
3665.05
3634.06
3603.98
3575.2
3547.94
3522.32
3498.43
3476.3
3455.95
3437.37
3420.53
3405.4
3391.94
3380.11
3369.85
3361.13
3353.92
3348.18
3343.89
3341.05
3339.66
3339.73
3341.25
3344.27
3348.82
3354.91
3362.59
3371.92
3382.92
3395.63
3410.08
3426.3
3444.3
3464.09
3485.62
3508.86
3533.76
3560.23
3588.17
3617.45
3647.99
3679.8
3712.11
3744.84
3777.77
3810.64
3843.12
3874.87
3905.53
3934.7
3962
3987.05
4009.47
4028.93
4045.13
4057.82
4066.81
4071.94
4073.06
4070.21
4063.44
4052.73
4038.24
4020.18
3998.77
3974.3
3947.1
3917.57
3886.1
3853.13
3819.11
3784.49
3749.71
3715.2
3681.35
3648.47
3616.87
3586.77
3558.38
3531.8
3507.14
3484.43
3463.7
3444.92
3428.08
3413.12
3400
3388.66
3379.04
3371.06
3364.68
3359.82
3356.41
3354.4
3353.77
3354.4
3356.29
3359.41
3363.73
3369.27
3376.03
3384.04
3393.32
3403.93
3415.92
3429.35
3444.26
3460.71
3478.74
3498.4
3519.68
3542.59
3567.11
3593.18
3620.71
3649.59
3679.67
3710.77
3742.58
3774.87
3807.3
3839.52
3871.16
3901.82
3931.08
3958.51
3983.71
4006.26
4025.78
4041.93
4054.4
4062.96
4067.4
4067.61
4063.61
4055.45
4043.21
4027.13
4007.47
3984.58
3958.84
3930.66
3900.51
3868.85
3836.13
3802.81
3769.31
3736.03
3703.33
3671.53
3640.9
3611.67
3584
3558
3533.76
3511.3
3490.65
3471.77
3454.64
3439.2
3425.4
3413.17
3402.46
3393.19
3385.33
3378.81
3373.58
3369.61
3366.85
3365.31
3364.93
3365.71
3367.68
3370.84
3375.23
3380.89
3387.86
3396.18
3405.88
3417.01
3429.6
3443.69
3459.33
3476.54
3495.34
3515.74
3537.74
3561.32
3586.42
3612.96
3640.85
3669.94
3700.05
3730.98
3762.43
3794.12
3825.75
3856.95
3887.35
3916.55
3944.16
3969.75
3992.92
4013.28
4030.48
4044.19
4054.15
4060.15
4062
4059.71
4053.3
4042.81
4028.43
4010.42
3989.09
3964.8
3937.97
3909.06
3878.51
3846.78
3814.34
3781.61
3748.99
3716.84
3685.48
3655.19
3626.19
3598.64
3572.68
3548.38
3525.8
3504.95
3485.82
3468.39
3452.62
3438.47
3425.89
3414.84
3405.24
3397.05
3390.2
3384.69
3380.43
3377.34
3375.42
3374.64
3374.96
3376.38
3378.89
3382.5
3387.24
3393.14
3400.21
3408.53
3418.12
3429.06
3441.45
3455.36
3470.88
3488.11
3507.11
3527.94
3550.6
3575.08
3601.32
3629.2
3658.53
3689.04
3720.25
3752.17
3784.43
3816.58
3848.15
3878.76
3907.95
3935.31
3960.45
3983
4002.65
4019.1
4032.12
4041.54
4047.27
4049.16
4047.09
4041.27
4031.85
4019.01
4003.02
3984.18
3962.8
3939.2
3913.77
3886.85
3858.77
3829.88
3800.49
3770.91
3741.37
3712.22
3684.53
3656.54
3629.29
3602.95
3577.66
3553.54
3530.68
3509.17
3489.08
3470.46
3453.38
3437.87
3423.97
3411.72
3401.14
3392.25
3385.06
3379.55
3375.73
3457.67
3483.96
3511.95
3536.41
3567.59
3600.11
3633.52
3667.39
3701.44
3735.35
3768.74
3801.18
3832.3
3861.64
3888.77
3913.25
3934.66
3952.7
3967.07
3977.53
3983.95
3986.14
3984.09
3977.91
3967.64
3953.46
3935.59
3914.29
3889.93
3862.86
3833.46
3802.19
3769.49
3735.81
3701.55
3667.13
3632.96
3599.34
3566.75
3535.74
3505.65
3476.86
3449.59
3423.97
3400.08
3377.96
3357.61
3339.04
3322.21
3307.09
3293.64
3281.81
3271.56
3262.85
3255.64
3249.91
3245.62
3242.78
3241.4
3241.46
3242.98
3245.99
3250.53
3256.62
3264.3
3273.62
3284.61
3297.31
3311.76
3327.97
3345.97
3365.75
3387.28
3410.53
3435.43
3461.91
3489.86
3519.15
3549.7
3581.54
3613.88
3646.63
3679.6
3712.5
3745.03
3776.83
3807.53
3836.76
3864.11
3889.21
3911.68
3931.18
3947.42
3960.15
3969.16
3974.3
3975.44
3972.57
3965.78
3955.05
3940.54
3922.43
3900.97
3876.45
3849.21
3819.61
3788.08
3755.05
3720.98
3686.31
3651.48
3616.93
3583.04
3550.14
3518.52
3488.41
3460.01
3433.43
3408.77
3386.06
3365.34
3346.57
3329.73
3314.79
3301.68
3290.35
3280.73
3272.77
3266.4
3261.54
3258.14
3256.14
3255.51
3256.15
3258.04
3261.16
3265.49
3271.02
3277.78
3285.78
3295.05
3305.66
3317.64
3331.05
3345.96
3362.4
3380.43
3400.07
3421.35
3444.26
3468.78
3494.85
3522.4
3551.29
3581.39
3612.51
3644.36
3676.67
3709.14
3741.42
3773.11
3803.82
3833.13
3860.62
3885.87
3908.48
3928.05
3944.24
3956.75
3965.33
3969.8
3970
3965.99
3957.81
3945.54
3929.42
3909.71
3886.76
3860.96
3832.72
3802.51
3770.79
3738.02
3704.64
3671.1
3637.78
3605.04
3573.22
3542.58
3513.33
3485.65
3459.65
3435.41
3412.96
3392.31
3373.44
3356.32
3340.89
3327.1
3314.88
3304.18
3294.92
3287.06
3280.55
3275.33
3271.36
3268.61
3267.07
3266.69
3267.47
3269.43
3272.59
3276.98
3282.63
3289.6
3297.91
3307.6
3318.72
3331.3
3345.4
3361.03
3378.23
3397.02
3417.42
3439.42
3463
3488.1
3514.66
3542.56
3571.66
3601.79
3632.75
3664.23
3695.96
3727.63
3758.88
3789.33
3818.58
3846.24
3871.89
3895.11
3915.53
3932.78
3946.52
3956.51
3962.52
3964.39
3962.09
3955.67
3945.15
3930.74
3912.68
3891.29
3866.94
3840.06
3811.08
3780.47
3748.69
3716.2
3683.42
3650.76
3618.57
3587.19
3556.88
3527.86
3500.31
3474.34
3450.05
3427.46
3406.62
3387.5
3370.08
3354.32
3340.18
3327.61
3316.56
3306.97
3298.79
3291.95
3286.45
3282.18
3279.1
3277.19
3276.41
3276.73
3278.15
3280.66
3284.27
3289
3294.89
3301.97
3310.27
3319.85
3330.78
3343.16
3357.06
3372.56
3389.78
3408.77
3429.59
3452.25
3476.73
3502.98
3530.88
3560.23
3590.76
3622.01
3653.96
3686.27
3718.47
3750.09
3780.76
3810.01
3837.42
3862.61
3885.21
3904.9
3921.38
3934.43
3943.87
3949.61
3951.52
3949.41
3943.58
3934.14
3921.26
3905.23
3886.35
3864.91
3841.27
3815.79
3788.83
3760.71
3731.78
3702.36
3672.74
3643.18
3614.01
3586.29
3558.29
3531.02
3504.68
3479.38
3455.26
3432.39
3410.88
3390.78
3372.16
3355.08
3339.57
3325.67
3313.42
3302.84
3293.95
3286.75
3281.25
3277.43
3359.19
3385.48
3413.44
3438.15
3469.28
3501.81
3535.24
3569.16
3603.25
3637.23
3670.67
3703.19
3734.39
3763.81
3791.02
3815.57
3837.05
3855.15
3869.56
3880.06
3886.49
3888.71
3886.64
3880.44
3870.13
3855.9
3837.97
3816.61
3792.18
3765.03
3735.55
3704.21
3671.44
3637.68
3603.36
3568.88
3534.66
3501
3468.4
3437.36
3407.24
3378.44
3351.16
3325.54
3301.65
3279.53
3259.2
3240.64
3223.82
3208.71
3195.27
3183.45
3173.21
3164.5
3157.3
3151.57
3147.29
3144.45
3143.07
3143.13
3144.64
3147.65
3152.18
3158.27
3165.93
3175.24
3186.22
3198.92
3213.36
3229.56
3247.56
3267.34
3288.87
3312.12
3337.03
3363.51
3391.47
3420.78
3451.35
3483.24
3515.61
3548.4
3581.41
3614.36
3646.94
3678.8
3709.57
3738.87
3766.29
3791.46
3813.99
3833.56
3849.85
3862.62
3871.65
3876.82
3877.97
3875.09
3868.28
3857.52
3842.96
3824.8
3803.28
3778.69
3751.37
3721.71
3690.1
3656.99
3622.84
3588.1
3553.22
3518.61
3484.68
3451.74
3420.09
3389.96
3361.55
3334.97
3310.31
3287.61
3266.89
3248.13
3231.31
3216.38
3203.29
3191.97
3182.36
3174.41
3168.05
3163.21
3159.81
3157.83
3157.2
3157.85
3159.74
3162.86
3167.19
3172.72
3179.47
3187.46
3196.73
3207.33
3219.3
3232.7
3247.59
3264.02
3282.04
3301.68
3322.95
3345.86
3370.38
3396.46
3424.01
3452.92
3483.04
3514.2
3546.09
3578.45
3610.98
3643.31
3675.07
3705.85
3735.24
3762.81
3788.13
3810.81
3830.45
3846.7
3859.26
3867.87
3872.36
3872.56
3868.54
3860.33
3848.02
3831.84
3812.06
3789.04
3763.16
3734.84
3704.55
3672.74
3639.9
3606.46
3572.85
3539.48
3506.7
3474.84
3444.17
3414.91
3387.22
3361.22
3336.98
3314.54
3293.89
3275.04
3257.93
3242.51
3228.73
3216.53
3205.84
3196.59
3188.74
3182.24
3177.03
3173.07
3170.32
3168.78
3168.4
3169.18
3171.14
3174.29
3178.67
3184.32
3191.28
3199.58
3209.26
3220.37
3232.95
3247.03
3262.65
3279.85
3298.64
3319.03
3341.03
3364.61
3389.71
3416.28
3444.2
3473.33
3503.48
3534.47
3566
3597.78
3629.5
3660.81
3691.33
3720.66
3748.39
3774.11
3797.41
3817.89
3835.2
3849
3859.02
3865.06
3866.95
3864.64
3858.19
3847.64
3833.17
3815.05
3793.59
3769.17
3742.2
3713.14
3682.45
3650.6
3618.04
3585.2
3552.48
3520.25
3488.84
3458.5
3429.46
3401.9
3375.93
3351.63
3329.05
3308.21
3289.11
3271.7
3255.95
3241.82
3229.26
3218.22
3208.65
3200.48
3193.65
3188.15
3183.89
3180.82
3178.91
3178.13
3178.46
3179.88
3182.39
3185.99
3190.72
3196.6
3203.67
3211.96
3221.53
3232.45
3244.8
3258.68
3274.17
3291.38
3310.35
3331.16
3353.82
3378.3
3404.56
3432.48
3461.86
3492.42
3523.71
3555.72
3588.09
3620.35
3652.05
3682.79
3712.12
3739.6
3764.86
3787.52
3807.27
3823.8
3836.88
3846.35
3852.09
3854.02
3851.89
3846.04
3836.55
3823.63
3807.54
3788.6
3767.1
3743.4
3717.86
3690.83
3662.66
3633.68
3604.21
3574.56
3544.97
3515.76
3488.01
3459.99
3432.71
3406.35
3381.04
3356.91
3334.04
3312.52
3292.42
3273.79
3256.71
3241.19
3227.3
3215.05
3204.47
3195.57
3188.38
3182.88
3179.06
3260.63
3286.91
3314.84
3339.84
3370.92
3403.46
3436.93
3470.9
3505.05
3539.09
3572.62
3605.23
3636.52
3666.05
3693.35
3718
3739.57
3757.73
3772.21
3782.75
3789.2
3791.43
3789.36
3783.12
3772.77
3758.48
3740.48
3719.03
3694.51
3667.27
3637.69
3606.26
3573.39
3539.54
3505.14
3470.59
3436.3
3402.6
3369.97
3338.9
3308.76
3279.94
3252.65
3227.03
3203.14
3181.03
3160.71
3142.16
3125.35
3110.26
3096.83
3085.02
3074.79
3066.1
3058.91
3053.18
3048.91
3046.07
3044.68
3044.74
3046.25
3049.25
3053.78
3059.85
3067.5
3076.8
3087.77
3100.45
3114.88
3131.08
3149.07
3168.84
3190.38
3213.63
3238.55
3265.04
3293.02
3322.35
3352.94
3384.88
3417.29
3450.13
3483.19
3516.21
3548.86
3580.8
3611.65
3641.03
3668.54
3693.79
3716.41
3736.05
3752.41
3765.23
3774.3
3779.48
3780.65
3777.77
3770.93
3760.13
3745.52
3727.29
3705.7
3681.02
3653.61
3623.85
3592.14
3558.94
3524.7
3489.87
3454.9
3420.23
3386.24
3353.25
3321.57
3291.42
3263
3236.41
3211.75
3189.07
3168.36
3149.62
3132.81
3117.89
3104.82
3093.51
3083.93
3075.99
3069.64
3064.81
3061.44
3059.46
3058.84
3059.49
3061.4
3064.52
3068.84
3074.37
3081.12
3089.1
3098.36
3108.94
3120.89
3134.28
3149.16
3165.57
3183.58
3203.21
3224.47
3247.38
3271.9
3297.99
3325.55
3354.49
3384.64
3415.84
3447.78
3480.2
3512.79
3545.2
3577.05
3607.92
3637.4
3665.06
3690.48
3713.25
3732.97
3749.3
3761.91
3770.57
3775.08
3775.29
3771.25
3763
3750.64
3734.38
3714.53
3691.41
3665.43
3637.01
3606.62
3574.71
3541.77
3508.25
3474.57
3441.13
3408.3
3376.4
3345.69
3316.41
3288.71
3262.7
3238.46
3216.03
3195.4
3176.56
3159.46
3144.06
3130.3
3118.12
3107.44
3098.21
3090.37
3083.88
3078.68
3074.72
3071.99
3070.45
3070.07
3070.85
3072.8
3075.94
3080.32
3085.96
3092.9
3101.19
3110.87
3121.97
3134.53
3148.6
3164.21
3181.4
3200.18
3220.57
3242.56
3266.14
3291.26
3317.84
3345.77
3374.93
3405.12
3436.16
3467.74
3499.58
3531.37
3562.76
3593.36
3622.78
3650.6
3676.42
3699.8
3720.37
3737.76
3751.62
3761.69
3767.76
3769.67
3767.35
3760.87
3750.27
3735.75
3717.55
3696
3671.48
3644.41
3615.25
3584.46
3552.51
3519.86
3486.94
3454.16
3421.88
3390.42
3360.05
3330.98
3303.41
3277.43
3253.13
3230.56
3209.73
3190.64
3173.24
3157.51
3143.39
3130.85
3119.83
3110.27
3102.11
3095.3
3089.81
3085.56
3082.49
3080.59
3079.82
3080.15
3081.56
3084.07
3087.67
3092.39
3098.27
3105.32
3113.6
3123.15
3134.05
3146.39
3160.24
3175.71
3192.89
3211.86
3232.65
3255.3
3279.79
3306.06
3334
3363.41
3394.03
3425.36
3457.44
3489.89
3522.24
3554.02
3584.85
3614.27
3641.84
3667.19
3689.94
3709.75
3726.35
3739.47
3748.97
3754.73
3756.66
3754.52
3748.63
3739.09
3726.11
3709.95
3690.94
3669.36
3645.58
3619.96
3592.86
3564.62
3535.58
3506.05
3476.35
3446.72
3417.48
3389.69
3361.64
3334.34
3307.96
3282.64
3258.5
3235.62
3214.09
3193.98
3175.36
3158.27
3142.75
3128.85
3116.6
3106.02
3097.13
3089.94
3084.45
3080.63
3161.97
3188.25
3216.14
3241.47
3272.5
3305.05
3338.56
3372.6
3406.82
3440.95
3474.58
3507.29
3538.71
3568.35
3595.78
3620.54
3642.21
3660.46
3675
3685.59
3692.07
3694.31
3692.24
3685.97
3675.56
3661.2
3643.1
3621.56
3596.93
3569.57
3539.89
3508.33
3475.35
3441.4
3406.9
3372.27
3337.9
3304.13
3271.48
3240.36
3210.19
3181.35
3154.06
3128.43
3104.55
3082.44
3062.13
3043.6
3026.81
3011.73
2998.32
2986.53
2976.32
2967.63
2960.45
2954.73
2950.46
2947.63
2946.24
2946.29
2947.8
2950.79
2955.31
2961.37
2969.01
2978.29
2989.25
3001.91
3016.33
3032.52
3050.5
3070.27
3091.8
3115.06
3139.99
3166.5
3194.49
3223.85
3254.46
3286.47
3318.93
3351.82
3384.95
3418.04
3450.78
3482.81
3513.76
3543.24
3570.86
3596.22
3618.93
3638.66
3655.1
3667.98
3677.1
3682.31
3683.49
3680.6
3673.73
3662.88
3648.21
3629.9
3608.22
3583.44
3555.92
3526.04
3494.21
3460.9
3426.54
3391.61
3356.55
3321.79
3287.74
3254.7
3222.97
3192.8
3164.36
3137.77
3113.11
3090.43
3069.74
3051.01
3034.23
3019.33
3006.27
2994.99
2985.42
2977.51
2971.18
2966.36
2963
2961.04
2960.43
2961.09
2963
2966.13
2970.45
2975.98
2982.71
2990.68
2999.93
3010.49
3022.43
3035.8
3050.66
3067.06
3085.05
3104.66
3125.92
3148.82
3173.35
3199.44
3227.03
3255.99
3286.17
3317.43
3349.42
3381.91
3414.59
3447.09
3479.04
3510.02
3539.61
3567.39
3592.92
3615.8
3635.62
3652.03
3664.72
3673.43
3677.96
3678.19
3674.13
3665.83
3653.4
3637.07
3617.11
3593.88
3567.78
3539.23
3508.72
3476.7
3443.65
3410.02
3376.25
3342.73
3309.83
3277.88
3247.14
3217.83
3190.11
3164.1
3139.87
3117.44
3096.83
3078
3060.92
3045.55
3031.81
3019.64
3008.98
2999.77
2991.95
2985.46
2980.27
2976.33
2973.61
2972.07
2971.69
2972.47
2974.41
2977.55
2981.91
2987.54
2994.47
3002.75
3012.41
3023.5
3036.05
3050.11
3065.7
3082.88
3101.65
3122.03
3144.02
3167.6
3192.73
3219.32
3247.28
3276.47
3306.71
3337.8
3369.44
3401.36
3433.24
3464.72
3495.42
3524.94
3552.88
3578.8
3602.3
3622.97
3640.45
3654.39
3664.52
3670.62
3672.55
3670.23
3663.71
3653.06
3638.46
3620.16
3598.5
3573.87
3546.68
3517.39
3486.49
3454.43
3421.67
3388.66
3355.8
3323.45
3291.94
3261.52
3232.43
3204.84
3178.86
3154.56
3132
3111.18
3092.1
3074.72
3059
3044.91
3032.38
3021.38
3011.83
3003.69
2996.9
2991.42
2987.17
2984.12
2982.22
2981.46
2981.79
2983.21
2985.71
2989.3
2994.02
2999.89
3006.92
3015.19
3024.72
3035.59
3047.9
3061.73
3077.18
3094.34
3113.28
3134.06
3156.7
3181.19
3207.48
3235.45
3264.9
3295.57
3326.97
3359.13
3391.67
3424.12
3456.01
3486.95
3516.48
3544.16
3569.61
3592.45
3612.35
3629.02
3642.2
3651.74
3657.51
3659.45
3657.29
3651.36
3641.76
3628.71
3612.47
3593.36
3571.69
3547.82
3522.11
3494.92
3466.59
3437.48
3407.88
3378.12
3348.44
3319.16
3291.31
3263.24
3235.91
3209.52
3184.18
3160.02
3137.13
3115.6
3095.49
3076.86
3059.76
3044.24
3030.34
3018.09
3007.51
2998.62
2991.44
2985.94
2982.13
3063.22
3089.49
3117.36
3143.04
3174.02
3206.59
3240.16
3274.26
3308.57
3342.8
3376.54
3409.38
3440.93
3470.72
3498.29
3523.18
3544.97
3563.32
3577.94
3588.6
3595.11
3597.36
3595.28
3588.96
3578.5
3564.05
3545.85
3524.2
3499.44
3471.95
3442.12
3410.44
3377.33
3343.25
3308.64
3273.9
3239.44
3205.6
3172.93
3141.76
3111.55
3082.69
3055.38
3029.75
3005.87
2983.78
2963.48
2944.97
2928.2
2913.14
2899.75
2887.98
2877.78
2869.11
2861.93
2856.23
2851.96
2849.14
2847.74
2847.79
2849.29
2852.28
2856.78
2862.82
2870.45
2879.71
2890.65
2903.3
2917.7
2933.88
2951.85
2971.62
2993.15
3016.41
3041.36
3067.88
3095.89
3125.27
3155.92
3188.01
3220.52
3253.48
3286.69
3319.87
3352.7
3384.84
3415.91
3445.51
3473.25
3498.73
3521.56
3541.39
3557.92
3570.88
3580.06
3585.3
3586.49
3583.59
3576.68
3565.78
3551.03
3532.64
3510.84
3485.94
3458.29
3428.28
3396.32
3362.86
3328.38
3293.32
3258.15
3223.29
3189.17
3156.06
3124.29
3094.09
3065.63
3039.03
3014.38
2991.71
2971.04
2952.33
2935.57
2920.69
2907.66
2896.4
2886.85
2878.96
2872.65
2867.85
2864.51
2862.57
2861.97
2862.64
2864.56
2867.69
2872.01
2877.53
2884.26
2892.22
2901.45
2911.99
2923.91
2937.26
2952.09
2968.47
2986.45
3006.05
3027.3
3050.19
3074.72
3100.82
3128.43
3157.42
3187.64
3218.96
3251.02
3283.6
3316.37
3348.98
3381.05
3412.15
3441.88
3469.79
3495.45
3518.46
3538.4
3554.91
3567.68
3576.45
3581.02
3581.26
3577.18
3568.82
3556.32
3539.88
3519.8
3496.44
3470.2
3441.51
3410.85
3378.7
3345.51
3311.77
3277.89
3244.28
3211.3
3179.29
3148.51
3119.17
3091.43
3065.42
3041.19
3018.77
2998.18
2979.37
2962.32
2946.96
2933.25
2921.1
2910.46
2901.27
2893.47
2887
2881.82
2877.89
2875.18
2873.64
2873.26
2874.04
2875.97
2879.1
2883.46
2889.07
2895.99
2904.25
2913.9
2924.97
2937.51
2951.55
2967.13
2984.29
3003.05
3023.42
3045.41
3068.99
3094.13
3120.74
3148.73
3177.96
3208.25
3239.39
3271.11
3303.12
3335.09
3366.68
3397.5
3427.15
3455.21
3481.27
3504.89
3525.69
3543.27
3557.3
3567.5
3573.65
3575.6
3573.27
3566.71
3556
3541.31
3522.9
3501.11
3476.34
3449.01
3419.58
3388.53
3356.34
3323.47
3290.35
3257.39
3224.97
3193.39
3162.93
3133.8
3106.19
3080.2
3055.91
3033.35
3012.55
2993.48
2976.12
2960.43
2946.35
2933.85
2922.87
2913.34
2905.22
2898.45
2892.98
2888.75
2885.71
2883.82
2883.06
2883.39
2884.81
2887.31
2890.89
2895.6
2901.46
2908.48
2916.72
2926.23
2937.08
2949.36
2963.16
2978.57
2995.7
3014.62
3035.38
3058.02
3082.51
3108.82
3136.82
3166.32
3197.05
3228.52
3260.77
3293.42
3325.99
3358.01
3389.07
3418.74
3446.55
3472.12
3495.08
3515.08
3531.83
3545.07
3554.65
3560.44
3562.38
3560.21
3554.22
3544.55
3531.42
3515.08
3495.88
3474.1
3450.11
3424.29
3397
3368.58
3339.37
3309.7
3279.87
3250.12
3220.8
3192.9
3164.79
3137.44
3111.01
3085.66
3061.49
3038.58
3017.04
2996.92
2978.28
2961.19
2945.67
2931.76
2919.51
2908.93
2900.05
2892.86
2887.37
2883.56
2964.38
2990.65
3018.5
3044.55
3075.48
3108.07
3141.7
3175.89
3210.3
3244.64
3278.52
3311.5
3343.21
3373.16
3400.88
3425.93
3447.85
3466.32
3481.04
3491.76
3498.31
3500.58
3498.49
3492.12
3481.58
3467.04
3448.73
3426.94
3402.03
3374.39
3344.41
3312.57
3279.31
3245.09
3210.35
3175.49
3140.93
3107.01
3074.32
3043.08
3012.83
2983.94
2956.62
2930.98
2907.11
2885.03
2864.75
2846.26
2829.51
2814.48
2801.11
2789.35
2779.17
2770.52
2763.36
2757.66
2753.41
2750.58
2749.19
2749.24
2750.73
2753.7
2758.19
2764.21
2771.82
2781.07
2791.99
2804.62
2819
2835.16
2853.13
2872.89
2894.42
2917.69
2942.64
2969.19
2997.23
3026.63
3057.32
3089.5
3122.07
3155.11
3188.4
3221.68
3254.62
3286.88
3318.09
3347.83
3375.71
3401.33
3424.29
3444.25
3460.88
3473.92
3483.16
3488.44
3489.64
3486.74
3479.78
3468.82
3453.99
3435.49
3413.57
3388.53
3360.74
3330.56
3298.45
3264.84
3230.2
3195.01
3159.71
3124.75
3090.53
3057.35
3025.52
2995.28
2966.8
2940.2
2915.56
2892.9
2872.24
2853.56
2836.82
2821.98
2808.97
2797.74
2788.22
2780.35
2774.06
2769.29
2765.97
2764.05
2763.46
2764.15
2766.07
2769.2
2773.52
2779.04
2785.75
2793.7
2802.91
2813.43
2825.32
2838.65
2853.46
2869.82
2887.77
2907.36
2928.59
2951.49
2976.01
3002.13
3029.76
3058.78
3089.05
3120.45
3152.58
3185.25
3218.14
3250.87
3283.07
3314.32
3344.19
3372.26
3398.07
3421.23
3441.3
3457.93
3470.8
3479.64
3484.24
3484.49
3480.39
3471.97
3459.38
3442.82
3422.61
3399.1
3372.7
3343.85
3313.02
3280.71
3247.38
3213.49
3179.49
3145.77
3112.71
3080.63
3049.79
3020.42
2992.67
2966.65
2942.43
2920.03
2899.45
2880.66
2863.64
2848.31
2834.62
2822.5
2811.89
2802.72
2794.93
2788.48
2783.32
2779.41
2776.7
2775.17
2774.79
2775.56
2777.49
2780.61
2784.95
2790.55
2797.45
2805.7
2815.33
2826.38
2838.9
2852.92
2868.49
2885.63
2904.37
2924.74
2946.72
2970.31
2995.45
3022.08
3050.11
3079.38
3109.73
3140.94
3172.75
3204.86
3236.94
3268.66
3299.61
3329.4
3357.61
3383.82
3407.59
3428.52
3446.22
3460.36
3470.64
3476.84
3478.81
3476.48
3469.87
3459.08
3444.29
3425.76
3403.83
3378.89
3351.4
3321.81
3290.6
3258.26
3225.24
3192
3158.94
3126.42
3094.77
3064.26
3035.1
3007.46
2981.46
2957.17
2934.63
2913.84
2894.79
2877.45
2861.78
2847.73
2835.26
2824.3
2814.79
2806.69
2799.94
2794.49
2790.27
2787.24
2785.37
2784.61
2784.95
2786.36
2788.86
2792.44
2797.14
2802.98
2809.98
2818.2
2827.68
2838.5
2850.75
2864.51
2879.89
2896.99
2915.88
2936.62
2959.25
2983.75
3010.07
3038.11
3067.67
3098.47
3130.02
3162.38
3195.15
3227.86
3260.02
3291.23
3321.05
3349.01
3374.72
3397.8
3417.92
3434.76
3448.09
3457.71
3463.53
3465.47
3463.27
3457.23
3447.48
3434.25
3417.8
3398.48
3376.57
3352.46
3326.52
3299.1
3270.57
3241.27
3211.51
3181.59
3151.78
3122.41
3094.43
3066.29
3038.9
3012.45
2987.08
2962.89
2939.97
2918.41
2898.29
2879.65
2862.54
2847.02
2833.12
2820.86
2810.29
2801.4
2794.22
2788.73
2784.93
2865.45
2891.73
2919.56
2945.99
2976.87
3009.5
3043.2
3077.48
3112
3146.47
3180.49
3213.64
3245.53
3275.66
3303.57
3328.79
3350.86
3369.46
3384.29
3395.09
3401.68
3403.96
3401.86
3395.44
3384.82
3370.16
3351.72
3329.78
3304.71
3276.9
3246.74
3214.73
3181.3
3146.93
3112.03
3077.05
3042.37
3008.35
2975.63
2944.32
2914.03
2885.11
2857.77
2832.13
2808.27
2786.2
2765.95
2747.47
2730.75
2715.74
2702.4
2690.67
2680.51
2671.87
2664.73
2659.04
2654.79
2651.97
2650.58
2650.62
2652.1
2655.06
2659.54
2665.54
2673.13
2682.35
2693.25
2705.86
2720.23
2736.37
2754.32
2774.08
2795.61
2818.89
2843.86
2870.42
2898.48
2927.92
2958.65
2990.93
3023.58
3056.69
3090.08
3123.47
3156.55
3188.95
3220.3
3250.2
3278.24
3304.01
3327.13
3347.22
3363.97
3377.11
3386.42
3391.74
3392.96
3390.05
3383.04
3372
3357.08
3338.46
3316.4
3291.21
3263.25
3232.9
3200.6
3166.82
3132.01
3096.66
3061.23
3026.14
2991.81
2958.55
2926.67
2896.39
2867.89
2841.28
2816.64
2794
2773.37
2754.71
2738
2723.19
2710.21
2699.01
2689.51
2681.67
2675.41
2670.66
2667.37
2665.47
2664.9
2665.6
2667.53
2670.67
2674.99
2680.49
2687.2
2695.13
2704.32
2714.82
2726.68
2739.98
2754.76
2771.1
2789.03
2808.59
2829.81
2852.7
2877.23
2903.36
2931.01
2960.08
2990.4
3021.87
3054.09
3086.87
3119.88
3152.75
3185.1
3216.52
3246.56
3274.8
3300.79
3324.1
3344.33
3361.1
3374.07
3382.99
3387.64
3387.9
3383.76
3375.28
3362.58
3345.9
3325.54
3301.86
3275.27
3246.23
3215.22
3182.73
3149.23
3115.19
3081.06
3047.22
3014.06
2981.9
2951.01
2921.59
2893.82
2867.8
2843.58
2821.19
2800.64
2781.88
2764.88
2749.58
2735.93
2723.84
2713.25
2704.11
2696.35
2689.92
2684.77
2680.87
2678.18
2676.65
2676.28
2677.04
2678.96
2682.07
2686.39
2691.98
2698.86
2707.09
2716.7
2727.73
2740.23
2754.23
2769.78
2786.9
2805.63
2825.98
2847.96
2871.55
2896.7
2923.36
2951.42
2980.74
3011.15
3042.45
3074.35
3106.57
3138.78
3170.64
3201.74
3231.7
3260.08
3286.45
3310.38
3331.47
3349.32
3363.57
3373.94
3380.2
3382.19
3379.85
3373.2
3362.32
3347.41
3328.74
3306.64
3281.53
3253.85
3224.07
3192.69
3160.17
3127
3093.62
3060.44
3027.82
2996.09
2965.52
2936.32
2908.65
2882.65
2858.36
2835.83
2815.05
2796.03
2778.72
2763.07
2749.05
2736.6
2725.67
2716.19
2708.11
2701.39
2695.96
2691.75
2688.74
2686.87
2686.12
2686.46
2687.88
2690.37
2693.94
2698.63
2704.46
2711.44
2719.64
2729.09
2739.87
2752.08
2765.8
2781.14
2798.2
2817.06
2837.78
2860.4
2884.9
2911.24
2939.32
2968.95
2999.82
3031.46
3063.95
3096.86
3129.72
3162.04
3193.43
3223.41
3251.53
3277.4
3300.63
3320.88
3337.83
3351.24
3360.92
3366.76
3368.7
3366.48
3360.38
3350.54
3337.2
3320.63
3301.16
3279.12
3254.86
3228.78
3201.24
3172.58
3143.16
3113.3
3083.29
3053.4
3023.97
2995.92
2967.74
2940.31
2913.83
2888.43
2864.22
2841.29
2819.72
2799.59
2780.94
2763.83
2748.31
2734.4
2722.15
2711.57
2702.69
2695.51
2690.03
2686.23
2766.43
2792.72
2820.54
2847.36
2878.19
2910.86
2944.65
2979.04
3013.68
3048.29
3082.48
3115.81
3147.89
3178.23
3206.34
3231.75
3254
3272.74
3287.69
3298.57
3305.22
3307.51
3305.4
3298.91
3288.2
3273.43
3254.84
3232.73
3207.48
3179.48
3149.12
3116.91
3083.3
3048.75
3013.69
2978.56
2943.75
2909.63
2876.88
2845.49
2815.15
2786.19
2758.84
2733.2
2709.34
2687.29
2667.06
2648.61
2631.92
2616.94
2603.62
2591.92
2581.78
2573.16
2566.03
2560.36
2556.12
2553.31
2551.91
2551.95
2553.42
2556.37
2560.82
2566.81
2574.37
2583.57
2594.44
2607.03
2621.37
2637.5
2655.44
2675.19
2696.72
2720.01
2744.99
2771.57
2799.67
2829.14
2859.92
2892.32
2925.04
2958.24
2991.74
3025.26
3058.47
3091.03
3122.55
3152.62
3180.84
3206.79
3230.07
3250.31
3267.2
3280.44
3289.83
3295.2
3296.44
3293.51
3286.45
3275.34
3260.3
3241.55
3219.34
3193.98
3165.83
3135.28
3102.79
3068.81
3033.81
2998.29
2962.7
2927.47
2893.03
2859.68
2827.73
2797.41
2768.88
2742.27
2717.64
2695.02
2674.4
2655.78
2639.1
2624.32
2611.37
2600.2
2590.74
2582.93
2576.7
2571.98
2568.72