/*--------------------------------*- C++ -*----------------------------------*\
| =========                 |                                                 |
| \\      /  F ield         | OpenFOAM: The Open Source CFD Toolbox           |
|  \\    /   O peration     | Version:  3.0.1                                 |
|   \\  /    A nd           | Web:      www.OpenFOAM.org                      |
|    \\/     M anipulation  |                                                 |
\*---------------------------------------------------------------------------*/
FoamFile
{
    version     2.0;
    format      ascii;
    class       volScalarField;
    location    "94.8";
    object      p;
}
// * * * * * * * * * * * * * * * * * * * * * * * * * * * * * * * * * * * * * //

dimensions      [1 -1 -2 0 0 0 0];

internalField   nonuniform List<scalar> 
21420
(
4258.14
4276.13
4290.47
4301.04
4307.76
4310.5
4309
4303.46
4294.01
4280.7
4263.69
4243.27
4219.72
4193.37
4164.59
4133.75
4101.24
4067.51
4032.97
3998.03
3963.13
3928.68
3895.16
3864.26
3833.25
3803.22
3774.55
3747.47
3722.11
3698.53
3676.77
3656.83
3638.7
3622.35
3607.75
3594.84
3583.58
3573.92
3565.83
3559.27
3554.2
3550.6
3548.45
3547.77
3548.59
3550.97
3554.86
3560.28
3567.29
3575.93
3586.22
3598.23
3611.98
3627.53
3644.91
3664.12
3685.15
3708.02
3732.65
3758.99
3786.95
3816.38
3847.14
3879.03
3911.83
3945.27
3979.07
4012.9
4046.44
4079.32
4111.17
4141.66
4170.4
4197.04
4221.27
4242.77
4261.23
4276.41
4288.07
4296.02
4300.12
4300.23
4296.43
4288.62
4276.91
4261.48
4242.5
4220.23
4194.97
4167.04
4136.78
4104.58
4070.83
4035.94
4000.32
3964.39
3928.55
3893.2
3858.7
3825.38
3793.53
3763.37
3735.09
3708.81
3684.64
3662.59
3642.68
3624.89
3609.18
3595.5
3583.77
3573.93
3565.92
3559.66
3555.09
3552.14
3550.76
3550.91
3552.57
3555.63
3560.11
3565.97
3573.2
3581.8
3591.77
3603.12
3615.87
3630.05
3645.69
3662.82
3681.46
3701.66
3723.42
3746.75
3771.63
3798.02
3825.83
3854.98
3885.31
3916.66
3948.79
3981.41
4014.23
4046.91
4079.08
4110.34
4140.29
4168.51
4194.58
4218.11
4238.71
4256.04
4269.77
4279.66
4285.48
4287.05
4284.4
4277.47
4266.38
4251.26
4232.34
4209.93
4184.38
4156.11
4125.54
4093.14
4059.4
4024.77
3989.73
3954.71
3920.12
3886.31
3853.61
3822.26
3792.48
3764.43
3738.21
3713.89
3691.51
3671.06
3652.53
3635.87
3621.05
3608
3596.68
3587.01
3578.95
3572.42
3567.37
3563.75
3561.49
3560.58
3561
3562.72
3565.71
3570
3575.6
3582.52
3590.78
3600.41
3611.44
3623.89
3637.8
3653.2
3670.12
3688.58
3708.61
3730.21
3753.37
3778.04
3804.16
3831.65
3860.36
3890.16
3920.85
3952.21
3983.96
4015.81
4047.42
4078.44
4108.49
4137.16
4164.04
4188.73
4210.81
4229.9
4245.65
4257.75
4265.96
4270.08
4269.95
4265.62
4257.11
4244.5
4228.01
4207.91
4184.54
4158.27
4129.54
4098.82
4066.56
4033.26
3999.39
3965.39
3931.7
3898.66
3866.61
3835.81
3806.46
3778.72
3752.71
3728.52
3706.18
3685.7
3667.07
3650.27
3635.25
3621.96
3610.33
3600.3
3591.81
3584.8
3579.2
3574.96
3572.02
3570.34
3569.92
3570.75
3572.75
3575.95
3580.32
3585.85
3592.57
3600.48
3609.62
3619.99
3631.65
3644.62
3658.96
3674.72
3691.93
3710.64
3730.87
3752.64
3775.95
3800.78
3827.08
3854.79
3883.78
3913.92
3943.16
3974.4
4006
4037.53
4068.58
4098.73
4127.49
4154.39
4178.99
4200.83
4219.53
4234.74
4246.16
4253.61
4256.93
4256.04
4250.95
4241.77
4228.68
4211.96
4191.93
4168.99
4143.55
4116.03
4086.91
4056.63
4025.64
3994.35
3963.17
3932.44
3902.7
3873.83
3845.76
3818.65
3792.68
3767.97
3744.57
3722.51
3701.81
3682.46
3664.48
3647.85
3632.59
3618.7
3606.2
3595.11
3585.45
3577.26
3570.58
3565.43
3561.84
3559.87
3559.56
3561.12
3564.44
3569.5
3576.29
3584.82
3595.07
3607
3620.63
3635.9
3652.79
3671.23
3691.13
3712.44
3735.06
4160.16
4178.16
4192.51
4203.09
4209.81
4212.56
4211.07
4205.52
4196.06
4182.74
4165.72
4145.28
4121.72
4095.35
4066.55
4035.69
4003.17
3969.42
3934.86
3899.9
3864.99
3830.53
3796.98
3766.11
3735.09
3705.05
3676.37
3649.29
3623.93
3600.35
3578.59
3558.65
3540.53
3524.18
3509.57
3496.67
3485.41
3475.76
3467.67
3461.11
3456.04
3452.44
3450.29
3449.62
3450.43
3452.81
3456.7
3462.12
3469.13
3477.76
3488.05
3500.06
3513.81
3529.35
3546.73
3565.94
3586.97
3609.84
3634.47
3660.82
3688.77
3718.21
3748.97
3780.88
3813.68
3847.13
3880.94
3914.79
3948.34
3981.23
4013.1
4043.6
4072.36
4099.02
4123.27
4144.78
4163.25
4178.45
4190.11
4198.07
4202.18
4202.29
4198.48
4190.67
4178.95
4163.51
4144.52
4122.24
4096.96
4069.01
4038.73
4006.52
3972.75
3937.83
3902.2
3866.25
3830.4
3795.03
3760.53
3727.2
3695.34
3665.17
3636.89
3610.61
3586.44
3564.39
3544.49
3526.7
3510.99
3497.31
3485.59
3475.75
3467.74
3461.48
3456.92
3453.98
3452.6
3452.75
3454.4
3457.47
3461.95
3467.81
3475.04
3483.64
3493.61
3504.96
3517.71
3531.88
3547.52
3564.64
3583.29
3603.49
3625.25
3648.58
3673.45
3699.84
3727.66
3756.81
3787.14
3818.5
3850.64
3883.28
3916.11
3948.8
3980.99
4012.27
4042.23
4070.47
4096.56
4120.1
4140.72
4158.07
4171.82
4181.71
4187.54
4189.12
4186.46
4179.53
4168.43
4153.29
4134.36
4111.93
4086.37
4058.07
4027.48
3995.06
3961.3
3926.66
3891.6
3856.57
3821.96
3788.14
3755.43
3724.07
3694.29
3666.24
3640.02
3615.7
3593.32
3572.87
3554.34
3537.69
3522.87
3509.83
3498.5
3488.84
3480.78
3474.26
3469.21
3465.59
3463.33
3462.42
3462.85
3464.56
3467.56
3471.85
3477.44
3484.36
3492.62
3502.25
3513.27
3525.72
3539.63
3555.03
3571.95
3590.41
3610.44
3632.03
3655.19
3679.86
3705.99
3733.48
3762.2
3792
3822.7
3854.07
3885.83
3917.69
3949.32
3980.35
4010.42
4039.11
4066.01
4090.71
4112.81
4131.92
4147.68
4159.8
4168.01
4172.15
4172.01
4167.68
4159.17
4146.55
4130.04
4109.93
4086.53
4060.25
4031.5
4000.75
3968.47
3935.15
3901.26
3867.25
3833.54
3800.5
3768.44
3737.63
3708.27
3680.53
3654.53
3630.33
3607.99
3587.51
3568.89
3552.09
3537.08
3523.79
3512.16
3502.14
3493.65
3486.64
3481.05
3476.81
3473.87
3472.19
3471.77
3472.6
3474.61
3477.8
3482.17
3487.71
3494.42
3502.33
3511.47
3521.84
3533.49
3546.46
3560.8
3576.55
3593.76
3612.47
3632.7
3654.47
3677.78
3702.6
3728.9
3756.61
3785.61
3815.75
3845.02
3876.27
3907.87
3939.42
3970.49
4000.66
4029.44
4056.37
4080.98
4102.84
4121.56
4136.78
4148.22
4155.67
4159
4158.1
4153
4143.82
4130.72
4113.98
4093.93
4070.97
4045.51
4017.98
3988.83
3958.54
3927.53
3896.23
3865.03
3834.3
3804.55
3775.68
3747.6
3720.48
3694.52
3669.8
3646.4
3624.35
3603.64
3584.3
3566.32
3549.69
3534.43
3520.54
3508.04
3496.95
3487.29
3479.1
3472.42
3467.27
3463.68
3461.7
3461.39
3462.96
3466.27
3471.34
3478.13
3486.65
3496.9
3508.83
3522.46
3537.73
3554.62
3573.06
3592.96
3614.27
3636.9
4062.29
4080.32
4094.69
4105.28
4112.02
4114.76
4113.3
4107.73
4098.26
4084.91
4067.87
4047.4
4023.81
3997.4
3968.57
3937.67
3905.11
3871.33
3836.74
3801.75
3766.8
3732.31
3698.73
3667.9
3636.86
3606.8
3578.11
3551.02
3525.66
3502.08
3480.32
3460.39
3442.27
3425.93
3411.33
3398.43
3387.18
3377.53
3369.45
3362.89
3357.82
3354.22
3352.08
3351.4
3352.22
3354.59
3358.47
3363.9
3370.9
3379.53
3389.81
3401.81
3415.56
3431.1
3448.47
3467.68
3488.71
3511.58
3536.22
3562.56
3590.52
3619.97
3650.75
3682.66
3715.49
3748.96
3782.79
3816.66
3850.24
3883.16
3915.07
3945.59
3974.38
4001.07
4025.35
4046.89
4065.39
4080.61
4092.3
4100.27
4104.38
4104.51
4100.68
4092.86
4081.14
4065.68
4046.66
4024.35
3999.04
3971.05
3940.74
3908.48
3874.68
3839.73
3804.06
3768.08
3732.2
3696.81
3662.28
3628.93
3597.06
3566.88
3538.59
3512.32
3488.14
3466.1
3446.2
3428.42
3412.72
3399.04
3387.33
3377.5
3369.5
3363.24
3358.68
3355.75
3354.37
3354.53
3356.18
3359.25
3363.73
3369.59
3376.82
3385.42
3395.39
3406.74
3419.48
3433.66
3449.29
3466.41
3485.05
3505.24
3527
3550.33
3575.21
3601.59
3629.42
3658.57
3688.92
3720.29
3752.45
3785.11
3817.97
3850.69
3882.91
3914.22
3944.22
3972.49
3998.62
4022.2
4042.86
4060.23
4074.01
4083.92
4089.76
4091.36
4088.68
4081.74
4070.63
4055.47
4036.51
4014.04
3988.44
3960.1
3929.47
3897.01
3863.21
3828.53
3793.44
3758.37
3723.74
3689.9
3657.17
3625.8
3596.01
3567.96
3541.74
3517.42
3495.04
3474.6
3456.07
3439.43
3424.62
3411.58
3400.26
3390.61
3382.55
3376.03
3370.99
3367.37
3365.12
3364.21
3364.64
3366.35
3369.35
3373.64
3379.23
3386.15
3394.4
3404.03
3415.05
3427.5
3441.41
3456.8
3473.71
3492.17
3512.19
3533.79
3556.94
3581.62
3607.75
3635.24
3663.97
3693.79
3724.5
3755.89
3787.67
3819.56
3851.21
3882.28
3912.38
3941.1
3968.05
3992.79
4014.92
4034.06
4049.86
4062
4070.23
4074.38
4074.25
4069.9
4061.38
4048.74
4032.21
4012.06
3988.63
3962.3
3933.51
3902.72
3870.4
3837.04
3803.12
3769.07
3735.34
3702.27
3670.2
3639.37
3610.01
3582.26
3556.25
3532.06
3509.72
3489.25
3470.63
3453.84
3438.83
3425.55
3413.93
3403.91
3395.43
3388.43
3382.84
3378.6
3375.67
3373.99
3373.57
3374.41
3376.42
3379.61
3383.98
3389.51
3396.22
3404.14
3413.26
3423.64
3435.28
3448.25
3462.58
3478.33
3495.53
3514.23
3534.45
3556.22
3579.53
3604.35
3630.65
3658.37
3687.37
3717.52
3746.83
3778.1
3809.73
3841.31
3872.41
3902.62
3931.44
3958.41
3983.07
4004.97
4023.71
4038.96
4050.42
4057.89
4061.23
4060.32
4055.21
4046.01
4032.89
4016.12
3996.04
3973.04
3947.54
3919.96
3890.78
3860.45
3829.41
3798.08
3766.85
3736.1
3706.35
3677.47
3649.38
3622.26
3596.29
3571.57
3548.18
3526.12
3505.42
3486.08
3468.1
3451.48
3436.22
3422.33
3409.83
3398.73
3389.07
3380.88
3374.19
3369.04
3365.45
3363.47
3363.16
3364.72
3368.04
3373.1
3379.89
3388.42
3398.66
3410.6
3424.22
3439.5
3456.39
3474.83
3494.74
3516.05
3538.68
3964.53
3982.6
3997.01
4007.63
4014.38
4017.13
4015.69
4010.1
4000.61
3987.23
3970.15
3949.63
3925.99
3899.54
3870.65
3839.7
3807.08
3773.25
3738.61
3703.57
3668.58
3634.03
3600.4
3569.64
3538.56
3508.47
3479.77
3452.67
3427.31
3403.73
3381.98
3362.06
3343.94
3327.61
3313.02
3300.12
3288.88
3279.24
3271.16
3264.61
3259.55
3255.95
3253.81
3253.13
3253.94
3256.31
3260.19
3265.61
3272.61
3281.23
3291.51
3303.5
3317.24
3332.77
3350.14
3369.34
3390.37
3413.24
3437.88
3464.23
3492.2
3521.66
3552.45
3584.39
3617.24
3650.74
3684.61
3718.52
3752.14
3785.11
3817.06
3847.63
3876.47
3903.21
3927.53
3949.12
3967.66
3982.91
3994.62
4002.62
4006.75
4006.9
4003.03
3995.21
3983.47
3967.97
3948.92
3926.57
3901.21
3873.17
3842.8
3810.49
3776.63
3741.63
3705.91
3669.88
3633.95
3598.52
3563.96
3530.59
3498.69
3468.5
3440.2
3413.93
3389.75
3367.72
3347.82
3330.05
3314.36
3300.7
3288.99
3279.17
3271.18
3264.94
3260.38
3257.45
3256.08
3256.25
3257.91
3260.98
3265.46
3271.32
3278.55
3287.15
3297.12
3308.46
3321.2
3335.37
3350.99
3368.11
3386.74
3406.93
3428.68
3452.01
3476.89
3503.28
3531.11
3560.27
3590.63
3622.03
3654.22
3686.91
3719.81
3752.57
3784.84
3816.2
3846.26
3874.58
3900.77
3924.4
3945.11
3962.53
3976.34
3986.29
3992.15
3993.77
3991.07
3984.13
3972.99
3957.79
3938.78
3916.27
3890.6
3862.2
3831.51
3798.99
3765.12
3730.39
3695.25
3660.14
3625.46
3591.59
3558.84
3527.45
3497.65
3469.59
3443.37
3419.05
3396.68
3376.24
3357.73
3341.09
3326.29
3313.26
3301.95
3292.31
3284.26
3277.75
3272.72
3269.11
3266.86
3265.96
3266.39
3268.1
3271.09
3275.38
3280.97
3287.88
3296.13
3305.75
3316.77
3329.21
3343.11
3358.5
3375.41
3393.86
3413.88
3435.47
3458.63
3483.31
3509.44
3536.94
3565.69
3595.52
3626.26
3657.67
3689.49
3721.41
3753.11
3784.23
3814.37
3843.15
3870.15
3894.95
3917.13
3936.33
3952.17
3964.34
3972.6
3976.76
3976.65
3972.29
3963.74
3951.07
3934.5
3914.31
3890.82
3864.43
3835.58
3804.72
3772.35
3738.93
3704.95
3670.86
3637.08
3603.98
3571.88
3541.04
3511.66
3483.91
3457.9
3433.7
3411.37
3390.9
3372.29
3355.51
3340.51
3327.24
3315.63
3305.62
3297.15
3290.16
3284.58
3280.35
3277.42
3275.74
3275.33
3276.16
3278.18
3281.37
3285.74
3291.27
3297.98
3305.89
3315.01
3325.38
3337.01
3349.97
3364.3
3380.03
3397.23
3415.92
3436.13
3457.9
3481.2
3506.02
3532.33
3560.05
3589.06
3619.22
3648.6
3679.89
3711.56
3743.19
3774.34
3804.61
3833.5
3860.53
3885.24
3907.2
3926
3941.29
3952.78
3960.27
3963.62
3962.72
3957.58
3948.35
3935.19
3918.38
3898.24
3875.19
3849.63
3821.99
3792.76
3762.37
3731.28
3699.9
3668.63
3637.86
3608.1
3579.21
3551.11
3523.97
3498
3473.28
3449.88
3427.83
3407.13
3387.8
3369.82
3353.2
3337.94
3324.05
3311.55
3300.46
3290.79
3282.6
3275.91
3270.75
3267.16
3265.18
3264.87
3266.42
3269.74
3274.8
3281.59
3290.12
3300.36
3312.29
3325.92
3341.19
3358.09
3376.53
3396.44
3417.76
3440.39
3866.89
3885.01
3899.47
3910.13
3916.9
3919.65
3918.24
3912.63
3903.11
3889.69
3872.56
3851.98
3828.27
3801.75
3772.79
3741.76
3709.07
3675.17
3640.46
3605.36
3570.31
3535.7
3502
3471.34
3440.19
3410.06
3381.34
3354.24
3328.87
3305.3
3283.55
3263.64
3245.53
3229.21
3214.63
3201.75
3190.52
3180.89
3172.82
3166.27
3161.21
3157.62
3155.48
3154.8
3155.6
3157.97
3161.85
3167.26
3174.25
3182.86
3193.13
3205.12
3218.85
3234.37
3251.73
3270.93
3291.96
3314.82
3339.46
3365.82
3393.8
3423.28
3454.09
3486.06
3518.95
3552.49
3586.4
3620.37
3654.04
3687.07
3719.08
3749.72
3778.62
3805.42
3829.81
3851.45
3870.04
3885.34
3897.09
3905.12
3909.26
3909.43
3905.55
3897.71
3885.94
3870.41
3851.3
3828.89
3803.47
3775.36
3744.92
3712.53
3678.6
3643.52
3607.73
3571.64
3535.66
3500.17
3465.57
3432.16
3400.24
3370.03
3341.72
3315.44
3291.27
3269.24
3249.36
3231.6
3215.92
3202.27
3190.58
3180.78
3172.79
3166.56
3162.02
3159.1
3157.74
3157.92
3159.57
3162.65
3167.14
3173
3180.23
3188.83
3198.79
3210.12
3222.86
3237.02
3252.63
3269.74
3288.37
3308.54
3330.29
3353.61
3378.49
3404.89
3432.73
3461.91
3492.29
3523.71
3555.94
3588.68
3621.63
3654.45
3686.78
3718.21
3748.34
3776.74
3803
3826.71
3847.48
3864.96
3878.83
3888.81
3894.7
3896.34
3893.63
3886.67
3875.5
3860.25
3841.18
3818.6
3792.86
3764.37
3733.59
3700.99
3667.05
3632.24
3597.03
3561.86
3527.13
3493.22
3460.43
3429.02
3399.2
3371.13
3344.91
3320.6
3298.23
3277.81
3259.3
3242.68
3227.89
3214.87
3203.58
3193.94
3185.91
3179.41
3174.39
3170.78
3168.54
3167.65
3168.07
3169.79
3172.78
3177.07
3182.66
3189.56
3197.81
3207.42
3218.43
3230.87
3244.76
3260.14
3277.04
3295.49
3315.5
3337.09
3360.24
3384.92
3411.07
3438.58
3467.34
3497.2
3527.96
3559.42
3591.28
3623.25
3655.01
3686.19
3716.4
3745.26
3772.33
3797.2
3819.46
3838.72
3854.61
3866.84
3875.14
3879.32
3879.22
3874.84
3866.27
3853.56
3836.93
3816.67
3793.11
3766.64
3737.7
3706.76
3674.31
3640.81
3606.76
3572.6
3538.77
3505.63
3473.5
3442.63
3413.23
3385.47
3359.45
3335.26
3312.93
3292.47
3273.88
3257.11
3242.12
3228.86
3217.26
3207.27
3198.82
3191.83
3186.26
3182.04
3179.12
3177.45
3177.04
3177.87
3179.9
3183.09
3187.46
3192.99
3199.69
3207.59
3216.71
3227.07
3238.69
3251.64
3265.96
3281.68
3298.86
3317.54
3337.75
3359.5
3382.8
3407.62
3433.93
3461.66
3490.68
3520.86
3550.33
3581.65
3613.37
3645.06
3676.28
3706.63
3735.6
3762.71
3787.51
3809.55
3828.41
3843.76
3855.3
3862.81
3866.17
3865.28
3860.11
3850.84
3837.64
3820.76
3800.55
3777.43
3751.79
3724.07
3694.75
3664.3
3633.13
3601.7
3570.37
3539.56
3509.81
3480.9
3452.77
3425.63
3399.64
3374.92
3351.53
3329.48
3308.78
3289.45
3271.48
3254.86
3239.61
3225.72
3213.22
3202.12
3192.46
3184.26
3177.56
3172.4
3168.81
3166.82
3166.5
3168.05
3171.37
3176.43
3183.22
3191.75
3201.99
3213.92
3227.55
3242.82
3259.72
3278.16
3298.08
3319.4
3342.05
3769.36
3787.56
3802.07
3812.77
3819.57
3822.34
3820.94
3815.32
3805.75
3792.28
3775.09
3754.44
3730.65
3704.04
3674.98
3643.87
3611.09
3577.1
3542.31
3507.13
3472
3437.31
3403.51
3372.98
3341.76
3311.58
3282.84
3255.73
3230.36
3206.79
3185.05
3165.14
3147.05
3130.74
3116.18
3103.31
3092.09
3082.47
3074.41
3067.87
3062.82
3059.23
3057.09
3056.42
3057.21
3059.58
3063.45
3068.85
3075.83
3084.43
3094.69
3106.66
3120.38
3135.89
3153.24
3172.43
3193.46
3216.32
3240.96
3267.33
3295.33
3324.83
3355.67
3387.67
3420.6
3454.19
3488.17
3522.2
3555.94
3589.04
3621.13
3651.85
3680.83
3707.71
3732.17
3753.88
3772.55
3787.9
3799.71
3807.77
3811.94
3812.12
3808.23
3800.37
3788.56
3772.97
3753.81
3731.32
3705.82
3677.62
3647.09
3614.61
3580.58
3545.42
3509.54
3473.37
3437.31
3401.77
3367.11
3333.65
3301.69
3271.46
3243.14
3216.86
3192.69
3170.67
3150.8
3133.05
3117.4
3103.76
3092.09
3082.3
3074.34
3068.12
3063.59
3060.68
3059.34
3059.52
3061.18
3064.27
3068.76
3074.62
3081.85
3090.45
3100.4
3111.73
3124.46
3138.61
3154.21
3171.31
3189.92
3210.09
3231.83
3255.15
3280.03
3306.43
3334.28
3363.48
3393.89
3425.35
3457.62
3490.41
3523.43
3556.32
3588.73
3620.25
3650.47
3678.96
3705.31
3729.11
3749.97
3767.53
3781.46
3791.5
3797.42
3799.08
3796.37
3789.38
3778.16
3762.86
3743.71
3721.04
3695.2
3666.61
3635.73
3603.02
3568.98
3534.07
3498.78
3463.53
3428.74
3394.77
3361.94
3330.5
3300.67
3272.59
3246.36
3222.05
3199.7
3179.28
3160.79
3144.19
3129.41
3116.41
3105.13
3095.51
3087.49
3081.01
3076
3072.41
3070.17
3069.29
3069.71
3071.43
3074.42
3078.71
3084.29
3091.19
3099.43
3109.04
3120.04
3132.46
3146.35
3161.72
3178.61
3197.04
3217.05
3238.63
3261.78
3286.47
3312.62
3340.15
3368.94
3398.82
3429.63
3461.13
3493.04
3525.08
3556.91
3588.16
3618.47
3647.41
3674.57
3699.53
3721.89
3741.23
3757.2
3769.49
3777.83
3782.04
3781.95
3777.56
3768.95
3756.19
3739.5
3719.15
3695.5
3668.93
3639.89
3608.84
3576.28
3542.69
3508.54
3474.31
3440.41
3407.22
3375.04
3344.14
3314.72
3286.94
3260.92
3236.73
3214.41
3193.96
3175.38
3158.62
3143.65
3130.41
3118.83
3108.86
3100.42
3093.45
3087.89
3083.68
3080.77
3079.11
3078.69
3079.54
3081.57
3084.76
3089.13
3094.65
3101.35
3109.25
3118.36
3128.7
3140.32
3153.25
3167.55
3183.26
3200.43
3219.09
3239.29
3261.03
3284.32
3309.14
3335.46
3363.2
3392.24
3422.43
3452.01
3483.37
3515.15
3546.92
3578.23
3608.68
3637.76
3664.97
3689.87
3712
3730.95
3746.38
3757.97
3765.52
3768.88
3767.99
3762.81
3753.48
3740.21
3723.26
3702.97
3679.74
3654
3626.19
3596.78
3566.23
3534.98
3503.47
3472.07
3441.21
3411.47
3382.53
3354.38
3327.21
3301.22
3276.5
3253.11
3231.06
3210.37
3191.05
3173.08
3156.47
3141.21
3127.33
3114.82
3103.73
3094.06
3085.86
3079.16
3073.99
3070.39
3068.4
3068.07
3069.62
3072.94
3078
3084.79
3093.31
3103.55
3115.48
3129.11
3144.39
3161.28
3179.73
3199.66
3220.99
3243.65
3671.95
3690.23
3704.81
3715.57
3722.4
3725.19
3723.8
3718.17
3708.55
3695.02
3677.75
3657.01
3633.12
3606.4
3577.24
3546.01
3513.12
3479.03
3444.14
3408.87
3373.65
3338.86
3304.95
3274.57
3243.25
3213.02
3184.25
3157.13
3131.75
3108.19
3086.46
3066.57
3048.49
3032.2
3017.65
3004.8
2993.59
2983.99
2975.94
2969.41
2964.37
2960.78
2958.65
2957.97
2958.76
2961.12
2964.98
2970.38
2977.35
2985.94
2996.18
3008.13
3021.84
3037.34
3054.68
3073.86
3094.88
3117.74
3142.39
3168.76
3196.78
3226.3
3257.18
3289.23
3322.21
3355.86
3389.91
3424.01
3457.84
3491.03
3523.21
3554.02
3583.1
3610.08
3634.63
3656.43
3675.17
3690.6
3702.46
3710.57
3714.76
3714.96
3711.07
3703.17
3691.32
3675.67
3656.43
3633.86
3608.25
3579.95
3549.31
3516.72
3482.59
3447.32
3411.34
3375.06
3338.92
3303.3
3268.57
3235.06
3203.06
3172.8
3144.47
3118.18
3094.01
3072
3052.15
3034.42
3018.78
3005.17
2993.52
2983.76
2975.81
2969.61
2965.1
2962.2
2960.87
2961.07
2962.74
2965.83
2970.32
2976.19
2983.42
2992.01
3001.96
3013.28
3026
3040.14
3055.73
3072.81
3091.41
3111.57
3133.3
3156.61
3181.49
3207.9
3235.76
3264.98
3295.43
3326.92
3359.26
3392.12
3425.21
3458.19
3490.7
3522.32
3552.65
3581.25
3607.71
3631.62
3652.58
3670.23
3684.25
3694.34
3700.3
3701.98
3699.27
3692.26
3680.98
3665.6
3646.37
3623.59
3597.63
3568.92
3537.91
3505.08
3470.91
3435.9
3400.5
3365.16
3330.29
3296.26
3263.38
3231.9
3202.04
3173.95
3147.72
3123.42
3101.07
3080.68
3062.2
3045.62
3030.86
3017.88
3006.62
2997.02
2989.02
2982.55
2977.56
2973.97
2971.75
2970.87
2971.3
2973.02
2976.01
2980.29
2985.87
2992.77
3001
3010.59
3021.58
3034
3047.87
3063.23
3080.1
3098.53
3118.52
3140.1
3163.25
3187.94
3214.11
3241.66
3270.47
3300.39
3331.24
3362.79
3394.78
3426.89
3458.8
3490.16
3520.56
3549.61
3576.89
3601.96
3624.42
3643.87
3659.93
3672.29
3680.69
3684.92
3684.85
3680.45
3671.8
3658.98
3642.2
3621.75
3597.99
3571.29
3542.13
3510.96
3478.27
3444.56
3410.31
3375.98
3342
3308.74
3276.51
3245.57
3216.13
3188.33
3162.31
3138.12
3115.8
3095.37
3076.8
3060.07
3045.12
3031.9
3020.34
3010.38
3001.96
2995.01
2989.46
2985.27
2982.37
2980.72
2980.3
2981.16
2983.19
2986.39
2990.75
2996.28
3002.97
3010.85
3019.95
3030.29
3041.89
3054.81
3069.09
3084.78
3101.92
3120.57
3140.75
3162.49
3185.77
3210.59
3236.91
3264.66
3293.72
3323.93
3353.64
3385.05
3416.91
3448.77
3480.19
3510.76
3539.96
3567.3
3592.33
3614.57
3633.63
3649.13
3660.79
3668.38
3671.77
3670.87
3665.66
3656.27
3642.93
3625.88
3605.49
3582.14
3556.29
3528.35
3498.82
3468.16
3436.82
3405.21
3373.73
3342.81
3313.08
3284.11
3255.92
3228.74
3202.74
3178.01
3154.62
3132.58
3111.9
3092.58
3074.62
3058.01
3042.76
3028.88
3016.37
3005.27
2995.6
2987.4
2980.69
2975.52
2971.91
2969.92
2969.57
2971.12
2974.44
2979.5
2986.28
2994.8
3005.04
3016.98
3030.6
3045.88
3062.78
3081.23
3101.17
3122.51
3145.18
3574.66
3593.03
3607.7
3618.51
3625.39
3628.19
3626.81
3621.17
3611.5
3597.89
3580.53
3559.69
3535.69
3508.85
3479.56
3448.2
3415.18
3380.97
3345.96
3310.58
3275.25
3240.35
3206.3
3176.12
3144.68
3114.39
3085.58
3058.44
3033.07
3009.51
2987.79
2967.91
2949.85
2933.58
2919.05
2906.22
2895.03
2885.44
2877.41
2870.89
2865.85
2862.28
2860.15
2859.47
2860.25
2862.61
2866.46
2871.84
2878.8
2887.37
2897.6
2909.54
2923.23
2938.71
2956.04
2975.21
2996.22
3019.07
3043.73
3070.12
3098.16
3127.71
3158.63
3190.72
3223.76
3257.49
3291.62
3325.81
3359.74
3393.03
3425.32
3456.24
3485.44
3512.52
3537.18
3559.08
3577.92
3593.42
3605.36
3613.52
3617.75
3617.96
3614.06
3606.13
3594.22
3578.51
3559.17
3536.5
3510.78
3482.36
3451.59
3418.87
3384.61
3349.21
3313.11
3276.73
3240.48
3204.76
3169.96
3136.39
3104.34
3074.05
3045.69
3019.4
2995.24
2973.24
2953.4
2935.7
2920.09
2906.5
2894.87
2885.13
2877.21
2871.03
2866.54
2863.66
2862.35
2862.56
2864.24
2867.34
2871.83
2877.7
2884.93
2893.52
2903.46
2914.78
2927.48
2941.61
2957.18
2974.25
2992.84
3012.98
3034.7
3058.01
3082.88
3109.29
3137.18
3166.42
3196.91
3228.45
3260.85
3293.79
3326.97
3360.05
3392.67
3424.42
3454.87
3483.6
3510.2
3534.23
3555.31
3573.07
3587.18
3597.35
3603.36
3605.05
3602.35
3595.3
3583.96
3568.5
3549.15
3526.25
3500.16
3471.3
3440.14
3407.16
3372.86
3337.71
3302.19
3266.74
3231.78
3197.68
3164.74
3133.22
3103.33
3075.23
3049
3024.7
3002.36
2981.98
2963.53
2946.97
2932.24
2919.28
2908.04
2898.46
2890.48
2884.03
2879.06
2875.49
2873.28
2872.41
2872.84
2874.56
2877.55
2881.83
2887.4
2894.29
2902.51
2912.09
2923.07
2935.47
2949.33
2964.67
2981.54
2999.95
3019.93
3041.5
3064.65
3089.35
3115.52
3143.09
3171.94
3201.9
3232.8
3264.42
3296.49
3328.69
3360.7
3392.16
3422.69
3451.86
3479.27
3504.48
3527.06
3546.63
3562.8
3575.25
3583.71
3587.98
3587.92
3583.51
3574.8
3561.91
3545.04
3524.47
3500.57
3473.74
3444.42
3413.1
3380.27
3346.43
3312.05
3277.61
3243.53
3210.19
3177.9
3146.92
3117.45
3089.64
3063.6
3039.42
3017.11
2996.7
2978.15
2961.44
2946.51
2933.31
2921.78
2911.85
2903.45
2896.51
2890.99
2886.81
2883.92
2882.28
2881.86
2882.73
2884.77
2887.97
2892.33
2897.85
2904.54
2912.41
2921.5
2931.82
2943.4
2956.3
2970.57
2986.23
3003.35
3021.98
3042.15
3063.87
3087.14
3111.96
3138.28
3166.05
3195.13
3225.37
3255.22
3286.7
3318.64
3350.61
3382.16
3412.86
3442.21
3469.7
3494.87
3517.25
3536.43
3552.04
3563.77
3571.41
3574.82
3573.91
3568.67
3559.21
3545.78
3528.63
3508.1
3484.63
3458.63
3430.55
3400.89
3370.1
3338.64
3306.92
3275.35
3244.36
3214.65
3185.64
3157.41
3130.2
3104.19
3079.46
3056.07
3034.04
3013.37
2994.06
2976.1
2959.5
2944.25
2930.37
2917.86
2906.76
2897.09
2888.87
2882.16
2876.98
2873.37
2871.37
2871.01
2872.55
2875.87
2880.93
2887.71
2896.23
2906.47
2918.4
2932.02
2947.3
2964.21
2982.67
3002.61
3023.96
3046.66
3477.48
3495.96
3510.72
3521.61
3528.53
3531.37
3529.99
3524.32
3514.59
3500.91
3483.45
3462.48
3438.35
3411.37
3381.93
3350.43
3317.26
3282.91
3247.76
3212.26
3176.82
3141.79
3107.57
3077.61
3046.03
3015.67
2986.83
2959.67
2934.3
2910.74
2889.03
2869.17
2851.14
2834.89
2820.38
2807.57
2796.4
2786.83
2778.82
2772.31
2767.29
2763.72
2761.59
2760.91
2761.69
2764.03
2767.88
2773.25
2780.19
2788.74
2798.95
2810.87
2824.54
2840
2857.32
2876.47
2897.47
2920.33
2944.99
2971.39
2999.46
3029.04
3060.01
3092.16
3125.27
3159.08
3193.3
3227.59
3261.63
3295.05
3327.46
3358.51
3387.83
3415.05
3439.83
3461.85
3480.79
3496.39
3508.4
3516.62
3520.89
3521.11
3517.21
3509.24
3497.28
3481.47
3462.04
3439.25
3413.4
3384.84
3353.92
3321.05
3286.64
3251.1
3214.86
3178.35
3141.98
3106.16
3071.27
3037.63
3005.53
2975.2
2946.82
2920.52
2896.37
2874.38
2854.57
2836.9
2821.31
2807.75
2796.15
2786.44
2778.54
2772.39
2767.92
2765.06
2763.77
2763.99
2765.68
2768.79
2773.29
2779.16
2786.39
2794.97
2804.91
2816.21
2828.91
2843.01
2858.57
2875.62
2894.19
2914.32
2936.03
2959.32
2984.2
3010.62
3038.52
3067.8
3098.32
3129.92
3162.4
3195.42
3228.71
3261.91
3294.66
3326.54
3357.14
3386.02
3412.76
3436.95
3458.17
3476.05
3490.26
3500.51
3506.58
3508.3
3505.59
3498.5
3487.09
3471.53
3452.07
3429.02
3402.77
3373.74
3342.42
3309.27
3274.8
3239.5
3203.84
3168.28
3133.22
3099.02
3066.02
3034.45
3004.54
2976.41
2950.18
2925.89
2903.57
2883.21
2864.78
2848.24
2833.54
2820.61
2809.39
2799.84
2791.88
2785.46
2780.5
2776.95
2774.76
2773.89
2774.33
2776.05
2779.04
2783.31
2788.88
2795.75
2803.96
2813.53
2824.5
2836.89
2850.73
2866.06
2882.9
2901.3
2921.27
2942.83
2965.98
2990.68
3016.87
3044.47
3073.35
3103.36
3134.32
3166.01
3198.17
3230.47
3262.59
3294.18
3324.85
3354.17
3381.72
3407.08
3429.82
3449.52
3465.81
3478.36
3486.89
3491.21
3491.17
3486.73
3477.97
3464.99
3448.01
3427.31
3403.26
3376.26
3346.78
3315.29
3282.29
3248.29
3213.76
3179.2
3145.01
3111.58
3079.23
3048.2
3018.69
2990.86
2964.81
2940.63
2918.34
2897.94
2879.42
2862.73
2847.83
2834.66
2823.15
2813.25
2804.87
2797.96
2792.46
2788.29
2785.43
2783.8
2783.37
2784.26
2786.31
2789.51
2793.86
2799.38
2806.06
2813.92
2822.99
2833.3
2844.87
2857.74
2871.98
2887.62
2904.72
2923.33
2943.47
2965.17
2988.44
3013.25
3039.58
3067.36
3096.47
3126.75
3156.76
3188.3
3220.34
3252.44
3284.14
3315
3344.52
3372.17
3397.51
3420.05
3439.36
3455.08
3466.91
3474.61
3478.03
3477.12
3471.83
3462.31
3448.77
3431.5
3410.83
3387.2
3361.04
3332.8
3302.98
3272.05
3240.45
3208.61
3176.93
3145.84
3116.18
3087.11
3058.84
3031.6
3005.57
2980.84
2957.46
2935.43
2914.77
2895.47
2877.52
2860.93
2845.68
2831.8
2819.3
2808.19
2798.51
2790.29
2783.57
2778.39
2774.77
2772.75
2772.38
2773.92
2777.24
2782.3
2789.08
2797.59
2807.83
2819.76
2833.38
2848.66
2865.57
2884.04
2903.99
2925.36
2948.07
3380.41
3399.02
3413.89
3424.86
3431.84
3434.7
3433.33
3427.63
3417.84
3404.06
3386.49
3365.39
3341.11
3313.96
3284.37
3252.69
3219.37
3184.85
3149.56
3113.92
3078.34
3043.17
3008.76
2979.06
2947.3
2916.86
2887.99
2860.82
2835.44
2811.89
2790.2
2770.36
2752.34
2736.12
2721.64
2708.85
2697.71
2688.16
2680.16
2673.67
2668.66
2665.1
2662.98
2662.3
2663.06
2665.4
2669.24
2674.59
2681.51
2690.05
2700.23
2712.13
2725.78
2741.22
2758.52
2777.66
2798.65
2821.51
2846.18
2872.59
2900.68
2930.3
2961.32
2993.54
3026.72
3060.62
3094.95
3129.36
3163.53
3197.08
3229.63
3260.82
3290.29
3317.65
3342.56
3364.72
3383.78
3399.48
3411.59
3419.88
3424.19
3424.43
3420.52
3412.5
3400.47
3384.58
3365.03
3342.11
3316.11
3287.39
3256.31
3223.27
3188.69
3152.99
3116.6
3079.94
3043.44
3007.5
2972.51
2938.78
2906.62
2876.25
2847.86
2821.55
2797.4
2775.43
2755.64
2738
2722.44
2708.92
2697.35
2687.67
2679.81
2673.68
2669.23
2666.4
2665.12
2665.36
2667.06
2670.18
2674.69
2680.57
2687.8
2696.37
2706.3
2717.59
2730.27
2744.36
2759.9
2776.93
2795.48
2815.58
2837.28
2860.57
2885.44
2911.87
2939.79
2969.1
2999.67
3031.33
3063.91
3097.02
3130.42
3163.76
3196.65
3228.69
3259.45
3288.51
3315.42
3339.76
3361.14
3379.17
3393.5
3403.84
3409.97
3411.72
3409.01
3401.87
3390.39
3374.72
3355.11
3331.9
3305.47
3276.26
3244.74
3211.4
3176.76
3141.28
3105.47
3069.77
3034.59
3000.3
2967.22
2935.6
2905.65
2877.51
2851.27
2826.99
2804.69
2784.35
2765.95
2749.44
2734.76
2721.86
2710.68
2701.15
2693.22
2686.82
2681.89
2678.36
2676.18
2675.32
2675.77
2677.48
2680.47
2684.74
2690.3
2697.17
2705.36
2714.92
2725.87
2738.24
2752.06
2767.37
2784.2
2802.58
2822.54
2844.09
2867.23
2891.94
2918.15
2945.77
2974.69
3004.76
3035.78
3067.56
3099.82
3132.23
3164.49
3196.22
3227.04
3256.52
3284.25
3309.78
3332.67
3352.53
3368.96
3381.62
3390.24
3394.6
3394.58
3390.13
3381.3
3368.23
3351.12
3330.27
3306.05
3278.87
3249.19
3217.51
3184.32
3150.14
3115.46
3080.74
3046.44
3012.91
2980.48
2949.39
2919.84
2891.99
2865.94
2841.76
2819.48
2799.1
2780.6
2763.94
2749.07
2735.93
2724.46
2714.58
2706.24
2699.36
2693.87
2689.73
2686.88
2685.26
2684.83
2685.74
2687.8
2691
2695.35
2700.86
2707.53
2715.38
2724.44
2734.73
2746.27
2759.13
2773.33
2788.94
2806.01
2824.6
2844.72
2866.4
2889.66
2914.47
2940.81
2968.6
2997.74
3028.06
3058.24
3089.86
3122.02
3154.26
3186.12
3217.16
3246.87
3274.72
3300.24
3322.95
3342.42
3358.28
3370.2
3377.97
3381.42
3380.5
3375.16
3365.55
3351.9
3334.48
3313.65
3289.85
3263.51
3235.09
3205.1
3174
3142.25
3110.27
3078.46
3047.25
3017.67
2988.54
2960.2
2932.93
2906.89
2882.16
2858.78
2836.76
2816.11
2796.82
2778.89
2762.3
2747.06
2733.18
2720.67
2709.56
2699.88
2691.65
2684.92
2679.73
2676.1
2674.07
2673.69
2675.23
2678.54
2683.6
2690.37
2698.89
2709.12
2721.04
2734.67
2749.95
2766.87
2785.34
2805.3
2826.68
2849.42
3283.46
3302.22
3317.2
3328.26
3335.3
3338.2
3336.83
3331.1
3321.24
3307.36
3289.66
3268.4
3243.96
3216.64
3186.86
3155
3121.49
3086.8
3051.34
3015.55
2979.83
2944.5
2909.87
2880.44
2848.5
2817.98
2789.07
2761.88
2736.5
2712.96
2691.28
2671.46
2653.48
2637.28
2622.83
2610.07
2598.95
2589.43
2581.45
2574.97
2569.97
2566.42
2564.3
2563.62
2564.38
2566.71
2570.54
2575.87
2582.77
2591.29
2601.45
2613.32
2626.94
2642.36
2659.64
2678.77
2699.75
2722.6
2747.28
2773.71
2801.83
2831.49
2862.56
2894.85
2928.13
2962.13
2996.57
3031.11
3065.42
3099.12
3131.83
3163.18
3192.81
3220.33
3245.4
3267.69
3286.9
3302.72
3314.92
3323.29
3327.65
3327.92
3323.98
3315.93
3303.82
3287.82
3268.15
3245.08
3218.91
3190.01
3158.75
3125.52
3090.76
3054.88
3018.31
2981.49
2944.84
2908.78
2873.67
2839.86
2807.63
2777.21
2748.79
2722.48
2698.34
2676.39
2656.63
2639.01
2623.49
2610.01
2598.48
2588.83
2581
2574.9
2570.48
2567.67
2566.42
2566.68
2568.39
2571.52
2576.04
2581.92
2589.15
2597.72
2607.64
2618.92
2631.58
2645.65
2661.16
2678.17