/*--------------------------------*- C++ -*----------------------------------*\
| =========                 |                                                 |
| \\      /  F ield         | OpenFOAM: The Open Source CFD Toolbox           |
|  \\    /   O peration     | Version:  3.0.1                                 |
|   \\  /    A nd           | Web:      www.OpenFOAM.org                      |
|    \\/     M anipulation  |                                                 |
\*---------------------------------------------------------------------------*/
FoamFile
{
    version     2.0;
    format      ascii;
    class       volScalarField;
    location    "43";
    object      p_rgh;
}
// * * * * * * * * * * * * * * * * * * * * * * * * * * * * * * * * * * * * * //

dimensions      [1 -1 -2 0 0 0 0];

internalField   nonuniform List<scalar> 
21420
(
165.489
197.547
228.921
259.144
287.831
314.442
338.596
359.882
377.98
392.631
403.598
410.696
413.651
412.033
406.265
396.598
383.05
365.837
345.214
321.466
294.968
266.069
235.154
202.685
169.085
134.805
100.249
65.7773
31.9395
-0.432379
-32.3542
-63.1989
-92.6928
-120.651
-146.949
-171.494
-194.241
-215.167
-234.271
-251.573
-267.106
-280.909
-293.028
-303.508
-312.394
-319.731
-325.557
-329.909
-332.797
-334.201
-334.169
-332.712
-329.781
-325.352
-319.398
-311.885
-302.769
-291.988
-279.52
-265.32
-249.363
-231.639
-212.128
-190.855
-167.86
-143.194
-116.934
-89.1909
-60.0757
-29.7463
1.66841
34.5226
67.3999
100.391
133.28
165.783
197.579
228.331
257.683
285.281
310.789
333.851
354.141
371.369
385.257
395.571
402.154
404.847
403.601
398.403
389.336
376.458
359.952
340.022
316.927
290.966
262.482
231.845
199.456
165.734
131.112
96.0278
60.913
26.1904
-7.78485
-40.6635
-72.1522
-102.015
-130.073
-156.201
-180.324
-202.408
-222.453
-240.483
-256.545
-270.697
-283.005
-293.54
-302.366
-309.554
-315.173
-319.281
-321.937
-323.178
-323.035
-321.597
-318.862
-314.855
-309.587
-303.063
-295.279
-286.221
-275.863
-264.172
-251.111
-236.634
-220.697
-203.254
-184.269
-163.714
-141.577
-117.869
-92.6188
-65.8866
-37.7702
-8.39861
22.0641
53.4305
85.3755
117.64
149.903
181.81
212.977
243.009
271.496
298.03
322.211
343.651
361.996
376.921
388.151
395.467
398.661
397.728
392.593
383.348
370.083
353.021
332.425
308.622
281.994
252.959
221.972
189.5
156.013
121.971
87.8124
53.9484
20.7502
-11.4567
-42.3997
-71.8593
-99.6714
-125.723
-149.945
-172.309
-192.816
-211.489
-228.372
-243.517
-256.978
-268.817
-279.097
-287.887
-295.246
-301.244
-305.945
-309.412
-311.685
-312.791
-312.757
-311.611
-309.331
-305.896
-301.282
-295.456
-288.372
-279.992
-270.278
-259.187
-246.669
-232.68
-217.184
-200.141
-181.523
-161.314
-139.518
-116.156
-91.2728
-64.9455
-37.2767
-8.40871
21.4813
52.2134
83.4397
114.903
146.28
177.22
207.349
236.277
263.611
288.952
311.906
332.1
349.176
362.819
372.766
378.82
380.793
378.763
372.667
362.635
348.844
331.542
311.034
287.667
261.826
233.917
204.362
173.594
142.033
110.088
78.1373
46.5299
15.5696
-14.4833
-43.4104
-71.0354
-97.2244
-121.88
-144.935
-166.355
-186.128
-204.261
-220.78
-235.726
-249.141
-261.083
-271.598
-280.732
-288.555
-295.115
-300.439
-304.588
-307.567
-309.375
-310.03
-309.559
-307.938
-305.169
-301.243
-296.152
-289.891
-282.425
-273.732
-263.798
-252.582
-240.047
-226.138
-210.807
-194.036
-175.786
-156.039
-134.793
-112.055
-87.8601
-62.3172
-35.7248
-9.04257
19.2974
48.589
78.4191
108.418
138.257
167.541
195.879
222.918
248.277
271.616
292.609
310.966
326.449
338.857
348.028
353.866
356.241
354.721
349.77
341.524
330.051
315.534
298.204
278.337
256.218
232.171
206.521
179.605
151.773
123.338
94.5984
65.8473
37.3403
9.35721
-17.7606
-41.7592
-66.8692
-91.2629
-114.603
-136.746
-157.621
-177.179
-195.392
-212.252
-227.749
-241.888
-254.672
-266.11
-276.217
-285.009
-292.5
-298.709
-303.649
-307.341
-309.802
-311.027
-310.669
-309.005
165.482
197.557
228.948
259.19
287.894
314.523
338.694
359.997
378.108
392.771
403.747
410.853
413.832
412.193
406.42
396.745
383.186
365.961
345.322
321.557
295.041
266.123
235.19
202.702
169.084
134.788
100.217
65.7339
31.8849
-0.496899
-32.4256
-63.2757
-92.7734
-120.734
-147.033
-171.577
-194.323
-215.248
-234.349
-251.649
-267.179
-280.979
-293.096
-303.573
-312.457
-319.792
-325.616
-329.966
-332.854
-334.257
-334.228
-332.77
-329.84
-325.413
-319.46
-311.95
-302.836
-292.058
-279.592
-265.394
-249.439
-231.717
-212.208
-190.935
-167.94
-143.272
-117.011
-89.2642
-60.1455
-29.812
1.60753
34.4808
67.3658
100.367
133.266
165.783
197.593
228.36
257.728
285.342
310.866
333.943
354.247
371.488
385.387
395.709
402.297
404.999
403.743
398.543
389.471
376.584
360.066
340.123
317.012
291.034
262.531
231.877
199.468
165.728
131.089
95.9877
60.8573
26.1221
-7.86485
-40.7527
-72.2482
-102.115
-130.176
-156.305
-180.427
-202.509
-222.55
-240.577
-256.636
-270.784
-283.089
-293.62
-302.442
-309.628
-315.244
-319.351
-322.004
-323.241
-323.099
-321.659
-318.923
-314.916
-309.648
-303.125
-295.342
-286.285
-275.929
-264.241
-251.182
-236.707
-220.773
-203.333
-184.35
-163.797
-141.661
-117.953
-92.702
-65.9679
-37.8481
-8.47148
21.9981
53.373
85.3287
117.605
149.883
181.804
212.989
243.038
271.542
298.095
322.294
343.751
362.112
377.051
388.291
395.615
398.819
397.877
392.74
383.489
370.214
353.138
332.526
308.705
282.056
253.002
221.994
189.503
155.997
121.937
87.7636
53.8863
20.6771
-11.5385
-42.4878
-71.9516
-99.766
-125.819
-150.04
-172.402
-192.906
-211.576
-228.456
-243.598
-257.056
-268.891
-279.168
-287.955
-295.311
-301.306
-306.005
-309.469
-311.741
-312.844
-312.812
-311.665
-309.386
-305.952
-301.34
-295.516
-288.434
-280.056
-270.345
-259.256
-246.74
-232.754
-217.26
-200.219
-181.602
-161.395
-139.599
-116.237
-91.3528
-65.0231
-37.3504
-8.47705
21.4199
52.1615
83.3984
114.874
146.265
177.221
207.366
236.311
263.662
289.021
311.994
332.204
349.295
362.951
372.908
378.968
380.95
378.908
372.809
362.768
348.965
331.649
311.124
287.739
261.88
233.952
204.379
173.593
142.016
110.056
78.0927
46.4746
15.5055
-14.5543
-43.4866
-71.1151
-97.3062
-121.962
-145.018
-166.437
-186.207
-204.338
-220.855
-235.797
-249.21
-261.148
-271.66
-280.791
-288.611
-295.168
-300.491
-304.637
-307.616
-309.421
-310.078
-309.607
-307.985
-305.217
-301.291
-296.201
-289.941
-282.476
-273.785
-263.852
-252.639
-240.106
-226.199
-210.871
-194.103
-175.855
-156.109
-134.864
-112.124
-87.928
-62.382
-35.7829
-9.10143
19.2465
48.549
78.3914
108.404
138.258
167.557
195.911
222.967
248.341
271.695
292.702
311.071
326.565
338.981
348.157
353.998
356.38
354.851
349.899
341.647
330.165
315.637
298.294
278.414
256.28
232.219
206.554
179.623
151.778
123.332
94.5818
65.8207
37.3046
9.30919
-17.8254
-41.7921
-66.9176
-91.3186
-114.662
-136.806
-157.681
-177.239
-195.452
-212.31
-227.807
-241.945
-254.727
-266.164
-276.271
-285.061
-292.551
-298.759
-303.699
-307.39
-309.851
-311.074
-310.717
-309.053
165.469
197.577
229.003
259.28
288.022
314.686
338.891
360.226
378.365
393.051
404.047
411.167
414.195
412.51
406.733
397.04
383.459
366.207
345.538
321.74
295.187
266.232
235.26
202.736
169.083
134.753
100.153
65.6467
31.7761
-0.625749
-32.5684
-63.4293
-92.9345
-120.9
-147.2
-171.744
-194.487
-215.409
-234.505
-251.8
-267.324
-281.119
-293.23
-303.702
-312.582
-319.913
-325.734
-330.08
-332.967
-334.368
-334.345
-332.885
-329.956
-325.533
-319.584
-312.078
-302.969
-292.196
-279.735
-265.542
-249.591
-231.872
-212.365
-191.092
-168.096
-143.426
-117.161
-89.4076
-60.2818
-29.9401
1.48919
34.401
67.3014
100.321
133.245
165.788
197.627
228.425
257.824
285.471
311.027
334.135
354.47
371.736
385.658
395.998
402.598
405.317
404.041
398.84
389.757
376.854
360.313
340.342
317.2
291.188
262.65
231.959
199.513
165.736
131.062
95.9271
60.7657
26.0054
-8.0048
-40.9109
-72.4199
-102.296
-130.361
-156.491
-180.611
-202.689
-222.725
-240.745
-256.797
-270.938
-283.235
-293.759
-302.575
-309.755
-315.366
-319.468
-322.118
-323.345
-323.206
-321.763
-319.026
-315.018
-309.75
-303.228
-295.448
-286.393
-276.041
-264.357
-251.303
-236.834
-220.905
-203.47
-184.492
-163.942
-141.808
-118.1
-92.8476
-66.1095
-37.983
-8.5962
21.887
53.2793
85.2562
117.557
149.862
181.815
213.032
243.117
271.657
298.247
322.482
343.973
362.364
377.331
388.592
395.931
399.156
398.194
393.057
383.791
370.496
353.392
332.747
308.89
282.202
253.107
222.059
189.527
155.984
121.89
87.6859
53.7822
20.551
-11.6819
-42.6439
-72.1163
-99.9351
-125.989
-150.209
-172.567
-193.067
-211.73
-228.605
-243.74
-257.19
-269.02
-279.29
-288.07
-295.42
-301.41
-306.105
-309.565
-311.833
-312.932
-312.902
-311.756
-309.478
-306.047
-301.439
-295.618
-288.539
-280.166
-270.46
-259.376
-246.865
-232.883
-217.394
-200.358
-181.744
-161.54
-139.745
-116.382
-91.4954
-65.1608
-37.4803
-8.59628
21.3149
52.0754
83.3334
114.834
146.253
177.239
207.417
236.397
263.783
289.178
312.186
332.429
349.551
363.232
373.209
379.28
381.279
379.214
373.111
363.052
349.225
331.88
311.321
287.9
262.004
234.038
204.429
173.608
141.999
110.009
78.0207
46.3811
15.3944
-14.6792
-43.6217
-71.2573
-97.4527
-122.111
-145.166
-166.583
-186.351
-204.477
-220.989
-235.926
-249.332
-261.265
-271.771
-280.898
-288.713
-295.265
-300.585
-304.727
-307.705
-309.508
-310.169
-309.696
-308.075
-305.308
-301.384
-296.296
-290.037
-282.576
-273.888
-263.959
-252.75
-240.222
-226.32
-210.997
-194.233
-175.99
-156.247
-135.003
-112.262
-88.0624
-62.5102
-35.8981
-9.21784
19.146
48.4702
78.3371
108.377
138.26
167.59
195.976
223.064
248.47
271.854
292.889
311.282
326.796
339.229
348.417
354.263
356.659
355.11
350.157
341.892
330.393
315.843
298.475
278.568
256.404
232.314
206.619
179.661
151.79
123.319
94.5485
65.7675
37.2334
9.21335
-17.9554
-41.8572
-67.0146
-91.4301
-114.779
-136.926
-157.801
-177.358
-195.57
-212.428
-227.922
-242.058
-254.838
-266.273
-276.377
-285.165
-292.654
-298.859
-303.798
-307.488
-309.948
-311.168
-310.813
-309.149
165.449
197.606
229.085
259.417
288.213
314.931
339.187
360.57
378.751
393.473
404.495
411.635
414.725
412.995
407.204
397.481
383.869
366.578
345.862
322.013
295.405
266.394
235.367
202.786
169.08
134.701
100.058
65.5143
31.6138
-0.818984
-32.7828
-63.6598
-93.1763
-121.148
-147.451
-171.994
-194.734
-215.65
-234.74
-252.027
-267.543
-281.329
-293.432
-303.897
-312.77
-320.095
-325.911
-330.252
-333.135
-334.536
-334.519
-333.058
-330.132
-325.714
-319.77
-312.27
-303.169
-292.403
-279.95
-265.764
-249.818
-232.104
-212.6
-191.329
-168.331
-143.657
-117.385
-89.623
-60.4865
-30.1325
1.3116
34.281
67.2046
100.253
133.212
165.795
197.677
228.522
257.969
285.665
311.269
334.425
354.804
372.111
386.066
396.434
403.051
405.791
404.499
399.293
390.19
377.262
360.686
340.675
317.486
291.423
262.832
232.085
199.584
165.752
131.024
95.8396
60.6311
25.8337
-8.21174
-41.1453
-72.6744
-102.564
-130.636
-156.768
-180.885
-202.957
-222.984
-240.995
-257.035
-271.166
-283.452
-293.965
-302.772
-309.943
-315.546
-319.641
-322.284
-323.501
-323.363
-321.916
-319.177
-315.169
-309.901
-303.38
-295.603
-286.552
-276.205
-264.528
-251.482
-237.02
-221.1
-203.672
-184.701
-164.157
-142.026
-118.319
-93.0631
-66.3191
-38.1823
-8.78035
21.723
53.1419
85.1506
117.488
149.835
181.834
213.101
243.238
271.834
298.478
322.767
344.309
362.747
377.754
389.048
396.409
399.66
398.679
393.537
384.25
370.923
353.777
333.083
309.171
282.424
253.268
222.158
189.567
155.968
121.823
87.5724
53.629
20.3646
-11.8942
-42.8754
-72.3605
-100.186
-126.242
-150.46
-172.813
-193.305
-211.96
-228.824
-243.949
-257.39
-269.21
-279.471
-288.24
-295.583
-301.564
-306.252
-309.706
-311.968
-313.063
-313.036
-311.89
-309.614
-306.188
-301.584
-295.769
-288.696
-280.33
-270.631
-259.553
-247.049
-233.075
-217.593
-200.563
-181.955
-161.754
-139.961
-116.597
-91.707
-65.3651
-37.6728
-8.77303
21.1598
51.9489
83.2385
114.776
146.237
177.269
207.496
236.528
263.968
289.417
312.477
332.771
349.939
363.658
373.663
379.752
381.77
379.682
373.568
363.482
349.618
332.229
311.62
288.145
262.192
234.171
204.506
173.633
141.975
109.942
77.9152
46.2435
15.2304
-14.8642
-43.8221
-71.4683
-97.6702
-122.331
-145.386
-166.801
-186.563
-204.683
-221.188
-236.117
-249.515
-261.439
-271.937
-281.057
-288.865
-295.41
-300.725
-304.862
-307.836
-309.641
-310.305
-309.83
-308.21
-305.445
-301.524
-296.438
-290.182
-282.725
-274.043
-264.12
-252.916
-240.396
-226.501
-211.186
-194.43
-176.192
-156.454
-135.212
-112.469
-88.2642
-62.7027
-36.0713
-9.39311
18.9949
48.3518
78.2554
108.336
138.263
167.64
196.074
223.21
248.663
272.093
293.169
311.598
327.144
339.601
348.806
354.66
357.072
355.504
350.547
342.261
330.735
316.153
298.746
278.799
256.59
232.456
206.717
179.717
151.807
123.301
94.4984
65.6878
37.1268
9.07007
-18.1509
-41.9546
-67.1609
-91.5979
-114.956
-137.105
-157.982
-177.538
-195.749
-212.603
-228.095
-242.227
-255.004
-266.436
-276.537
-285.321
-292.807
-299.01
-303.947
-307.635
-310.093
-311.31
-310.957
-309.293
165.421
197.644
229.194
259.598
288.467
315.257
339.582
361.029
379.266
394.034
405.094
412.26
415.403
413.649
407.834
398.071
384.416
367.072
346.295
322.378
295.697
266.61
235.508
202.853
169.076
134.632
99.9292
65.3367
31.3976
-1.07678
-33.0691
-63.9675
-93.4991
-121.48
-147.786
-172.329
-195.064
-215.972
-235.053
-252.329
-267.834
-281.609
-293.702
-304.156
-313.02
-320.337
-326.146
-330.481
-333.359
-334.762
-334.751
-333.289
-330.365
-325.954
-320.017
-312.527
-303.435
-292.68
-280.237
-266.06
-250.122
-232.413
-212.914
-191.644
-168.645
-143.966
-117.686
-89.9104
-60.7596
-30.3894
1.07504
34.1202
67.075
100.162
133.168
165.804
197.744
228.65
258.162
285.924
311.591
334.811
355.25
372.61
386.611
397.015
403.655
406.411
405.12
399.9
390.77
377.807
361.185
341.119
317.868
291.738
263.074
232.254
199.679
165.774
130.975
95.7233
60.4516
25.6054
-8.48761
-41.4577
-73.0138
-102.921
-131.002
-157.136
-181.25
-203.314
-223.33
-241.327
-257.353
-271.469
-283.74
-294.239
-303.033
-310.193
-315.785
-319.87
-322.503
-323.714
-323.572
-322.119
-319.377
-315.368
-310.101
-303.582
-295.809
-286.764
-276.424
-264.756
-251.719
-237.269
-221.359
-203.941
-184.979
-164.442
-142.316
-118.61
-93.3503
-66.5981
-38.4477
-9.02569
21.5042
52.9595
85.0101
117.396
149.799
181.859
213.193
243.401
272.069
298.787
323.148
344.759
363.259
378.321
389.658
397.048
400.319
399.338
394.182
384.863
371.493
354.292
333.533
309.547
282.721
253.483
222.292
189.622
155.948
121.733
87.4212
53.4247
20.116
-12.1773
-43.1839
-72.686
-100.521
-126.579
-150.794
-173.14
-193.622
-212.265
-229.117
-244.229
-257.657
-269.464
-279.712
-288.468
-295.798
-301.77
-306.447
-309.892
-312.146
-313.24
-313.212
-312.068
-309.796
-306.374
-301.778
-295.969
-288.905
-280.548
-270.858
-259.789
-247.295
-233.331
-217.858
-200.837
-182.236
-162.04
-140.249
-116.884
-91.9889
-65.6373
-37.9294
-9.00868
20.9525
51.7807
83.1121
114.699
146.217
177.31
207.603
236.704
264.214
289.735
312.867
333.228
350.456
364.227
374.271
380.383
382.418
380.316
374.179
364.056
350.144
332.695
312.019
288.472
262.445
234.348
204.61
173.667
141.944
109.853
77.7746
46.06
15.0117
-15.1108
-44.0893
-71.7495
-97.96
-122.625
-145.679
-167.09
-186.847
-204.958
-221.453
-236.371
-249.759
-261.672
-272.158
-281.269
-289.067
-295.603
-300.913
-305.042
-308.011
-309.822
-310.484
-310.008
-308.39
-305.628
-301.709
-296.627
-290.375
-282.924
-274.25
-264.334
-253.139
-240.628
-226.743
-211.438
-194.692
-176.463
-156.731
-135.491
-112.746
-88.5339
-62.9596
-36.3017
-9.62784
18.793
48.1936
78.1461
108.28
138.266
167.706
196.205
223.405
248.921
272.411
293.542
312.021
327.608
340.097
349.326
355.189
357.61
356.04
351.069
342.753
331.191
316.567
299.109
279.106
256.839
232.645
206.848
179.792
151.829
123.276
94.4313
65.5816
36.985
8.88003
-18.4118
-42.0844
-67.3578
-91.8226
-115.192
-137.346
-158.223
-177.778
-195.986
-212.838
-228.325
-242.454
-255.226
-266.653
-276.749
-285.53
-293.011
-299.211
-304.145
-307.83
-310.285
-311.502
-311.149
-309.485
165.387
197.692
229.33
259.824
288.786
315.665
340.075
361.602
379.91
394.737
405.843
413.042
416.223
414.46
408.619
398.808
385.099
367.689
346.836
322.834
296.061
266.881
235.684
202.936
169.071
134.544
99.7675
65.1135
31.1274
-1.39937
-33.4274
-64.3527
-93.9032
-121.895
-148.206
-172.747
-195.476
-216.375
-235.444
-252.707
-268.198
-281.959
-294.038
-304.481
-313.333
-320.641
-326.441
-330.768
-333.639
-335.046
-335.037
-333.576
-330.658
-326.255
-320.327
-312.848
-303.768
-293.026
-280.595
-266.429
-250.502
-232.801
-213.307
-192.038
-169.037
-144.352
-118.061
-90.27
-61.1012
-30.711
0.779385
33.9183
66.9126
100.047
133.112
165.815
197.827
228.81
258.403
286.246
311.995
335.294
355.808
373.234
387.292
397.743
404.412
407.181
405.9
400.66
391.497
378.49
361.81
341.675
318.346
292.131
263.378
232.465
199.797
165.801
130.913
95.5773
60.2267
25.3192
-8.83339
-41.8491
-73.4388
-103.368
-131.461
-157.597
-181.706
-203.76
-223.761
-241.742
-257.75
-271.847
-284.101
-294.582
-303.36
-310.506
-316.083
-320.155
-322.776
-323.982
-323.832
-322.373
-319.628
-315.617
-310.35
-303.835
-296.067
-287.028
-276.697
-265.04
-252.016
-237.58
-221.683
-204.278
-185.328
-164.799
-142.679
-118.974
-93.7099
-66.9475
-38.7799
-9.33308
21.2296
52.7313
84.834
117.281
149.753
181.891
213.309
243.604
272.364
299.173
323.624
345.321
363.9
379.029
390.42
397.847
401.138
400.167
394.99
385.631
372.207
354.936
334.095
310.017
283.092
253.752
222.459
189.689
155.921
121.62
87.2312
53.1685
19.8044
-12.5321
-43.5704
-73.0936
-100.94
-127.002
-151.213
-173.55
-194.019
-212.647
-229.483
-244.579
-257.99
-269.781
-280.013
-288.752
-296.069
-302.026
-306.692
-310.125
-312.371
-313.462
-313.433
-312.291
-310.022
-306.607
-302.02
-296.22
-289.166
-280.82
-271.142
-260.084
-247.602
-233.651
-218.19
-201.179
-182.587
-162.398
-140.61
-117.243
-92.3419
-65.978
-38.2507
-9.30373
20.6918
51.5705
82.9536
114.602
146.19
177.36
207.735
236.923
264.522
290.133
313.354
333.799
351.104
364.939
375.032
381.173
383.222
381.114
374.945
364.776
350.802
333.279
312.518
288.881
262.76
234.569
204.739
173.709
141.905
109.74
77.5981
45.83
14.7375
-15.4197
-44.4238
-72.1016
-98.3227
-122.992
-146.047
-167.453
-187.201
-205.302
-221.784
-236.689
-250.064
-261.963
-272.435
-281.534
-289.32
-295.845
-301.147
-305.268
-308.232
-310.046
-310.708
-310.231
-308.615
-305.856
-301.942
-296.864
-290.617
-283.173
-274.507
-264.601
-253.417
-240.918
-227.045
-211.753
-195.019
-176.801
-157.076
-135.84
-113.092
-88.8718
-63.2812
-36.5895
-9.92313
18.5399
47.9952
78.0089
108.211
138.27
167.789
196.368
223.649
249.243
272.808
294.009
312.549
328.188
340.718
349.976
355.854
358.277
356.713
351.722
343.369
331.762
317.084
299.562
279.49
257.149
232.882
207.011
179.884
151.856
123.244
94.3468
65.449
36.8081
8.64421
-18.7372
-42.2474
-67.6068
-92.1047
-115.487
-137.646
-158.525
-178.079
-196.283
-213.131
-228.613
-242.736
-255.503
-266.924
-277.015
-285.79
-293.266
-299.461
-304.392
-308.074
-310.524
-311.742
-311.389
-309.725
165.344
197.748
229.492
260.096
289.167
316.154
340.668
362.291
380.684
395.581
406.743
413.98
417.186
415.425
409.559
399.694
385.921
368.432
347.485
323.381
296.498
267.205
235.895
203.035
169.064
134.437
99.572
64.8444
30.8023
-1.78701
-33.8582
-64.8158
-94.389
-122.393
-148.709
-173.249
-195.971
-216.858
-235.913
-253.161
-268.635
-282.379
-294.442
-304.87
-313.709
-321.004
-326.794
-331.113
-333.977
-335.387
-335.38
-333.921
-331.009
-326.615
-320.698
-313.232
-304.167
-293.441
-281.025
-266.873
-250.958
-233.266
-213.778
-192.512
-169.508
-144.816
-118.511
-90.7021
-61.5116
-31.0976
0.424205
33.6753
66.7168
99.9077
133.045
165.826
197.926
229.002
258.692
286.633
312.478
335.874
356.477
373.983
388.111
398.617
405.321
408.106
406.834
401.573
392.37
379.309
362.56
342.342
318.92
292.603
263.742
232.718
199.939
165.832
130.837
95.4014
59.9557
24.9744
-9.24981
-42.3203
-73.9503
-103.905
-132.012
-158.151
-182.254
-204.295
-224.28
-242.24
-258.227
-272.302
-284.534
-294.993
-303.753
-310.88
-316.441
-320.498
-323.105
-324.301
-324.144
-322.678
-319.928
-315.916
-310.65
-304.138
-296.376
-287.346
-277.026
-265.382
-252.373
-237.953
-222.072
-204.683
-185.746
-165.228
-143.114
-119.411
-94.1423
-67.3677
-39.1793
-9.70302
20.8984
52.457
84.6216
117.142
149.698
181.928
213.446
243.848
272.717
299.637
324.196
345.997
364.67
379.88
391.337
398.809
402.122
401.161
395.96
386.554
373.065
355.711
334.77
310.582
283.537
254.075
222.658
189.769
155.888
121.483
87.0019
52.8597
19.4291
-12.9594
-44.0356
-73.5839
-101.444
-127.509
-151.716
-174.042
-194.496
-213.106
-229.922
-244.999
-258.39
-270.161
-280.374
-289.094
-296.393
-302.334
-306.984
-310.404
-312.641
-313.728
-313.697
-312.557
-310.294
-306.888
-302.31
-296.521
-289.479
-281.147
-271.483
-260.439
-247.971
-234.036
-218.588
-201.59
-183.009
-162.828
-141.043
-117.674
-92.7664
-66.3875
-38.6371
-9.65871
20.3771
51.3177
82.7623
114.485
146.157
177.419
207.893
237.185
264.891
290.611
313.938
334.485
351.882
365.794
375.946
382.124
384.185
382.073
375.865
365.64
351.592
333.979
313.118
289.371
263.138
234.834
204.894
173.758
141.857
109.604
77.385
45.5528
14.4072
-15.7915
-44.8264
-72.5251
-98.7587
-123.434
-146.488
-167.889
-187.627
-205.715
-222.182
-237.07
-250.429
-262.312
-272.767
-281.852
-289.624
-296.134
-301.427
-305.54
-308.498
-310.313
-310.974
-310.498
-308.885
-306.13
-302.22
-297.148
-290.907
-283.471
-274.817
-264.922
-253.75
-241.265
-227.408
-212.131
-195.412
-177.207
-157.492
-136.259
-113.508
-89.2782
-63.6677
-36.9327
-10.28
18.2354
47.7562
77.8435
108.127
138.274
167.887
196.563
223.941
249.63
273.286
294.57
313.183
328.885
341.465
350.757
356.653
359.079
357.519
352.504
344.11
332.448
317.705
300.106
279.951
257.522
233.165
207.206
179.995
151.889
123.205
94.2445
65.2897
36.5964
8.36468
-19.1255
-42.4462
-67.91
-92.4451
-115.842
-138.007
-158.887
-178.439
-196.64
-213.482
-228.959
-243.076
-255.836
-267.25
-277.334
-286.102
-293.573
-299.762
-304.688
-308.366
-310.812
-312.029
-311.676
-310.012
165.293
197.813
229.681
260.412
289.613
316.726
341.36
363.095
381.587
396.567
407.794
415.074
418.294
416.546
410.651
400.727
386.879
369.298
348.243
324.02
297.008
267.582
236.14
203.15
169.054
134.312
99.3418
64.5288
30.4218
-2.24008
-34.3619
-65.3573
-94.9567
-122.976
-149.297
-173.835
-196.549
-217.422
-236.461
-253.69
-269.144
-282.869
-294.913
-305.323
-314.147
-321.428
-327.207
-331.515
-334.373
-335.783
-335.779
-334.322
-331.418
-327.034
-321.132
-313.681
-304.633
-293.925
-281.527
-267.392
-251.49
-233.81
-214.329
-193.065
-170.059
-145.358
-119.038
-91.2068
-61.991
-31.5496
0.00867374
33.3913
66.4871
99.7436
132.965
165.838
198.041
229.224
259.029
287.085
313.043
336.551
357.259
374.858
389.066
399.637
406.384
409.189
407.923
402.638
393.39
380.266
363.435
343.121
319.589
293.154
264.167
233.013
200.103
165.867
130.748
95.195
59.6386
24.5695
-9.73782
-42.8719
-74.5489
-104.534
-132.657
-158.799
-182.895
-204.921
-224.886
-242.822
-258.784
-272.833
-285.039
-295.474
-304.211
-311.317
-316.859
-320.898
-323.489
-324.674
-324.508
-323.034
-320.279
-316.265
-310.999
-304.491
-296.736
-287.716
-277.409
-265.78
-252.789
-238.388
-222.526
-205.155
-186.234
-165.729
-143.624
-119.922
-94.6479
-67.8591
-39.6468
-10.1362
20.5101
52.1362
84.3721
116.978
149.631
181.971
213.605
244.131
273.128
300.177
324.864
346.785
365.568
380.874
392.407
399.933
403.274
402.321
397.092
387.633
374.068
356.615
335.559
311.24
284.057
254.45
222.89
189.861
155.848
121.322
86.7324
52.4974
18.9893
-13.4596
-44.58
-74.1575
-102.032
-128.102
-152.304
-174.617
-195.053
-213.641
-230.435
-245.489
-258.857
-270.605
-280.795
-289.494
-296.771
-302.693
-307.326
-310.73
-312.956
-314.037
-314.005
-312.868
-310.611
-307.215
-302.649
-296.873
-289.846
-281.529
-271.881
-260.853
-248.402
-234.484
-219.053
-202.07
-183.502
-163.33
-141.549
-118.179
-93.2626
-66.8664
-39.0893
-10.074
20.0075
51.0219
82.5376
114.347
146.118
177.487
208.077
237.49
265.321
291.168
314.62
335.286
352.79
366.794
377.014
383.235
385.313
383.193
376.941
366.65
352.514
334.797
313.817
289.944
263.578
235.142
205.073
173.815
141.799
109.444
77.1349
45.2279
14.0203
-16.2266
-45.2973
-73.0203
-99.2684
-123.95
-147.003
-168.398
-188.125
-206.197
-222.647
-237.516
-250.855
-262.719
-273.154
-282.223
-289.979
-296.472
-301.754
-305.857
-308.81
-310.625
-311.285
-310.81
-309.2
-306.449
-302.545
-297.479
-291.245
-283.819
-275.177
-265.296
-254.139
-241.671
-227.831
-212.573
-195.871
-177.681
-157.976
-136.748
-113.995
-89.7539
-64.1193
-37.332
-10.6997
17.8786
47.4763
77.6496
108.027
138.278
168.001
196.79
224.281
250.082
273.843
295.225
313.924
329.699
342.337
351.669
357.588
360.02
358.457
353.415
344.974
333.25
318.43
300.741
280.489
257.956
233.495
207.433
180.124
151.925
123.159
94.1242
65.1036
36.3497
8.04445
-19.5714
-42.6874
-68.2702
-92.8446
-116.258
-138.429
-159.309
-178.86
-197.057
-213.893
-229.363
-243.472
-256.224
-267.63
-277.706
-286.467
-293.93
-300.113
-305.034
-308.707
-311.148
-312.364
-312.01
-310.347
165.233
197.885
229.896
260.773
290.122
317.379
342.15
364.015
382.62
397.695
408.996
416.325
419.562
417.825
411.899
401.91
387.976
370.29
349.11
324.749
297.591
268.013
236.419
203.28
169.041
134.166
99.076
64.1656
29.9854
-2.75901
-34.9389
-65.9777
-95.607
-123.644
-149.971
-174.506
-197.21
-218.068
-237.088
-254.295
-269.727
-283.43
-295.452
-305.842
-314.647
-321.913
-327.678
-331.976
-334.825
-336.236
-336.233
-334.781
-331.886
-327.514
-321.626
-314.195
-305.166
-294.479
-282.101
-267.984
-252.099
-234.432
-214.959
-193.698
-170.689
-145.978
-119.64
-91.7846
-62.5395
-32.0667
-0.468413
33.0663
66.2229
99.5544
132.872
165.85
198.171
229.477
259.412
287.6
313.687
337.324
358.153
375.858
390.16
400.806
407.6
410.429
409.167
403.858
394.557
381.361
364.437
344.012
320.355
293.783
264.652
233.35
200.29
165.907
130.645
94.9575
59.2808
24.0978
-10.2984
-43.5049
-75.2353
-105.255
-133.395
-159.541
-183.628
-205.638
-225.579
-243.488
-259.421
-273.439
-285.616
-296.024
-304.734
-311.817
-317.337
-321.356
-323.928
-325.1
-324.923
-323.441
-320.68
-316.664
-311.399
-304.896
-297.147
-288.138
-277.847
-266.236
-253.265
-238.885
-223.045
-205.696
-186.793
-166.302
-144.207
-120.507
-95.227
-68.4222
-40.1827
-10.6332
20.0636
51.7688
84.085
116.789
149.554
182.017
213.785
244.453
273.597
300.794
325.626
347.686
366.596
382.011
393.633
401.221
404.594
403.648
398.389
388.867
375.215
357.649
336.46
311.993
284.65
254.879
223.154
189.965
155.8
121.136
86.4221
52.0809
18.4843
-14.0335
-45.2044
-74.815
-102.707
-128.782
-152.977
-175.275
-195.69
-214.254
-231.022
-246.049
-259.391
-271.113
-281.277
-289.95
-297.204
-303.103
-307.716
-311.103
-313.316
-314.391
-314.357
-313.223
-310.973
-307.589
-303.036
-297.275
-290.265
-281.966
-272.335
-261.326
-248.895
-234.997
-219.584
-202.619
-184.066
-163.904
-142.128
-118.757
-93.8309
-67.4151
-39.6076
-10.55
19.5824
50.6826
82.2788
114.187
146.071
177.563
208.285
237.838
265.812
291.803
315.4
336.201
353.829
367.938
378.238
384.508
386.604
384.473
378.173
367.806
353.57
335.732
314.617
290.597
264.081
235.493
205.276
173.877
141.731
109.258
76.8468
44.8547
13.5761
-16.7258
-45.8371
-73.5876
-99.8523
-124.541
-147.594
-168.98
-188.694
-206.749
-223.179
-238.026
-251.343
-263.184
-273.598
-282.647
-290.384
-296.859
-302.127
-306.22
-309.166
-310.981
-311.639
-311.166
-309.56
-306.814
-302.916
-297.858
-291.632
-284.216
-275.589
-265.724
-254.584
-242.134
-228.315
-213.077
-196.395
-178.223
-158.531
-137.308
-114.553
-90.2993
-64.6361
-37.7904
-11.184
17.4691
47.1549
77.4267
107.912
138.282
168.131
197.049
224.67
250.598
274.48
295.974
314.772
330.63
343.334
352.714
358.658
361.097
359.531
354.457
345.964
334.168
319.259
301.467
281.103
258.452
233.871
207.692
180.269
151.966
123.105
93.9854
64.8903
36.0686
7.68633
-20.0619
-42.9852
-68.6904
-93.3044
-116.734
-138.911
-159.793
-179.341
-197.533
-214.362
-229.824
-243.925
-256.668
-268.065
-278.131
-286.883
-294.338
-300.514
-305.429
-309.096
-311.532
-312.746
-312.392
-310.73
165.163
197.965
230.136
261.178
290.694
318.113
343.04
365.05
383.783
398.965
410.35
417.735
420.994
419.263
413.301
403.241
389.212
371.408
350.087
325.57
298.247
268.498
236.732
203.425
169.025
134
98.7742
63.7534
29.4922
-3.34434
-35.5899
-66.6778
-96.3404
-124.396
-150.73
-175.262
-197.954
-218.795
-237.794
-254.976
-270.383
-284.06
-296.057
-306.425
-315.209
-322.458
-328.208
-332.494
-335.335
-336.744
-336.744
-335.296
-332.413
-328.053
-322.183
-314.772
-305.767
-295.103
-282.747
-268.651
-252.785
-235.132
-215.668
-194.41
-171.4
-146.678
-120.318
-92.4356
-63.1576
-32.6484
-1.00857
32.7002
65.9232
99.3391
132.765
165.862
198.316
229.761
259.841
288.179
314.413
338.194
359.159
376.985
391.393
402.122
408.972
411.824
410.568
405.232
395.873
382.594
365.566
345.015
321.217
294.491
265.198
233.727
200.499
165.949
130.527
94.6881
58.8761
23.5635
-10.9324
-44.2201
-76.0106
-106.069
-134.228
-160.378
-184.455
-206.445
-226.359
-244.238
-260.137
-274.122
-286.266
-296.642
-305.323
-312.379
-317.875
-321.871
-324.423
-325.578
-325.389
-323.898
-321.132
-317.112
-311.848
-305.35
-297.61
-288.614
-278.339
-266.748
-253.8
-239.445
-223.63
-206.305
-187.422
-166.949
-144.864
-121.167
-95.8802
-69.0574
-40.7876
-11.1943
19.5578
51.3539
83.7595
116.573
149.465
182.068
213.987
244.814
274.124
301.487
326.484
348.701
367.753
383.293
395.014
402.672
406.083
405.142
399.85
390.26
376.508
358.815
337.475
312.84
285.317
255.36
223.449
190.079
155.744
120.924
86.0699
51.6092
17.913
-14.682
-45.9095
-75.5573
-103.469
-129.548
-153.735
-176.016
-196.408
-214.944
-231.682
-246.68
-259.992
-271.684
-281.82
-290.464
-297.691
-303.565
-308.155
-311.522
-313.721
-314.788
-314.752
-313.621
-311.38
-308.009
-303.471
-297.728
-290.736
-282.457
-272.847
-261.859
-249.45
-235.574
-220.183
-203.237
-184.701
-164.551
-142.781
-119.409
-94.4716
-68.0343
-40.1929
-11.0871
19.1008
50.2994
81.9848
114.006
146.016
177.648
208.519
238.227
266.363
292.518
316.276
337.232
355
369.227
379.617
385.944
388.061
385.915
379.561
369.109
354.76