/*--------------------------------*- C++ -*----------------------------------*\
| =========                 |                                                 |
| \\      /  F ield         | OpenFOAM: The Open Source CFD Toolbox           |
|  \\    /   O peration     | Version:  3.0.1                                 |
|   \\  /    A nd           | Web:      www.OpenFOAM.org                      |
|    \\/     M anipulation  |                                                 |
\*---------------------------------------------------------------------------*/
FoamFile
{
    version     2.0;
    format      ascii;
    class       volVectorField;
    location    "88.6";
    object      U;
}
// * * * * * * * * * * * * * * * * * * * * * * * * * * * * * * * * * * * * * //

dimensions      [0 1 -1 0 0 0 0];

internalField   nonuniform List<vector> 
21420
(
(0.419493 -0.00114292 0)
(0.429328 -0.000987205 0)
(0.438352 -0.000801237 0)
(0.445455 -0.000601011 0)
(0.450473 -0.000389288 0)
(0.45332 -0.000166705 0)
(0.45385 5.73715e-05 0)
(0.452246 0.000275998 0)
(0.448239 0.000503567 0)
(0.44211 0.000710277 0)
(0.43392 0.000910813 0)
(0.423813 0.00109902 0)
(0.411975 0.00124934 0)
(0.398611 0.00139777 0)
(0.383944 0.00150009 0)
(0.368209 0.00160267 0)
(0.351632 0.00168599 0)
(0.334443 0.0017167 0)
(0.316877 0.0017533 0)
(0.299139 0.00177176 0)
(0.281421 0.00174235 0)
(0.263916 0.00172225 0)
(0.246778 0.00168775 0)
(0.230137 0.00161792 0)
(0.214114 0.00155855 0)
(0.198802 0.00147401 0)
(0.184273 0.00139924 0)
(0.170576 0.00131928 0)
(0.157739 0.00122683 0)
(0.145782 0.00114213 0)
(0.134707 0.00105665 0)
(0.124506 0.000967953 0)
(0.115162 0.000885017 0)
(0.106654 0.00080221 0)
(0.098953 0.000724367 0)
(0.0920268 0.000649313 0)
(0.0858419 0.000576896 0)
(0.0803635 0.000508385 0)
(0.0755562 0.000443048 0)
(0.0713857 0.000380867 0)
(0.0678187 0.000322151 0)
(0.0648258 0.000267084 0)
(0.0623813 0.000214386 0)
(0.0604618 0.000163109 0)
(0.0590439 0.000113557 0)
(0.0581024 6.53451e-05 0)
(0.0576147 1.78352e-05 0)
(0.057589 -3.00691e-05 0)
(0.0580482 -7.70877e-05 0)
(0.0589945 -0.000122851 0)
(0.060423 -0.00017056 0)
(0.062334 -0.000217219 0)
(0.0647372 -0.000267419 0)
(0.0676544 -0.000318031 0)
(0.0710831 -0.000366991 0)
(0.0750401 -0.000422618 0)
(0.0795858 -0.000480004 0)
(0.0846901 -0.000532931 0)
(0.0904024 -0.000599055 0)
(0.0967767 -0.000661079 0)
(0.103837 -0.000735926 0)
(0.111697 -0.000812422 0)
(0.120355 -0.00088915 0)
(0.129867 -0.000980026 0)
(0.140377 -0.00107494 0)
(0.15186 -0.0011637 0)
(0.164305 -0.00126059 0)
(0.177727 -0.00134642 0)
(0.19193 -0.00141793 0)
(0.206826 -0.00147695 0)
(0.222127 -0.00149273 0)
(0.237398 -0.00147803 0)
(0.252161 -0.00141211 0)
(0.266079 -0.00133806 0)
(0.279061 -0.00122774 0)
(0.2909 -0.00111858 0)
(0.30163 -0.000990857 0)
(0.31105 -0.000884007 0)
(0.319702 -0.000817934 0)
(0.327759 -0.000715845 0)
(0.33491 -0.000684871 0)
(0.342376 -0.000669385 0)
(0.350114 -0.000664533 0)
(0.358158 -0.000683383 0)
(0.366583 -0.000685502 0)
(0.375056 -0.000636972 0)
(0.383089 -0.000563456 0)
(0.390191 -0.000445905 0)
(0.395883 -0.000287528 0)
(0.399603 -0.000115033 0)
(0.400923 6.65485e-05 0)
(0.399915 0.00029027 0)
(0.396287 0.000539201 0)
(0.390497 0.000759384 0)
(0.382559 0.000948673 0)
(0.37261 0.00111544 0)
(0.360934 0.00127074 0)
(0.347784 0.00140083 0)
(0.333284 0.00150327 0)
(0.31765 0.00159178 0)
(0.301188 0.00165962 0)
(0.284199 0.00169812 0)
(0.26696 0.00171529 0)
(0.249729 0.00170026 0)
(0.2327 0.00167735 0)
(0.21603 0.0016259 0)
(0.199901 0.00157385 0)
(0.184359 0.00150997 0)
(0.169514 0.00143426 0)
(0.155429 0.00135666 0)
(0.142133 0.00128029 0)
(0.129618 0.00120294 0)
(0.117925 0.00112066 0)
(0.107039 0.00103907 0)
(0.096971 0.000954104 0)
(0.087767 0.000876658 0)
(0.0793885 0.000789358 0)
(0.0718363 0.000703506 0)
(0.0651766 0.000619637 0)
(0.0593681 0.000540952 0)
(0.05437 0.000455033 0)
(0.0502084 0.000368507 0)
(0.046867 0.000302225 0)
(0.0442366 0.000216278 0)
(0.0423679 0.000152076 0)
(0.041193 8.49341e-05 0)
(0.0406576 1.97015e-05 0)
(0.0407365 -3.07213e-05 0)
(0.0413957 -9.10448e-05 0)
(0.0425807 -0.00014524 0)
(0.0442466 -0.000188799 0)
(0.0464162 -0.000234951 0)
(0.0490318 -0.000271852 0)
(0.05196 -0.000317225 0)
(0.0553204 -0.000353088 0)
(0.059051 -0.00038338 0)
(0.0630658 -0.000413502 0)
(0.0673884 -0.000446911 0)
(0.0720038 -0.000462459 0)
(0.0767686 -0.000490111 0)
(0.0818055 -0.000505203 0)
(0.0870799 -0.000537872 0)
(0.0925779 -0.000554287 0)
(0.0982658 -0.000577281 0)
(0.104189 -0.000590972 0)
(0.1103 -0.000619371 0)
(0.116708 -0.000654492 0)
(0.123489 -0.000689425 0)
(0.130641 -0.000724853 0)
(0.138181 -0.000770686 0)
(0.146182 -0.000812826 0)
(0.154674 -0.000866661 0)
(0.163695 -0.000918425 0)
(0.173261 -0.000972032 0)
(0.183361 -0.00102223 0)
(0.193964 -0.00107463 0)
(0.205096 -0.00112126 0)
(0.216673 -0.00117116 0)
(0.228674 -0.00120722 0)
(0.241044 -0.00124368 0)
(0.253715 -0.0012653 0)
(0.266569 -0.00128224 0)
(0.279515 -0.00128294 0)
(0.292472 -0.00127477 0)
(0.305276 -0.00125531 0)
(0.317796 -0.00122181 0)
(0.329897 -0.00117321 0)
(0.341425 -0.00110748 0)
(0.352182 -0.00102768 0)
(0.362031 -0.000914139 0)
(0.370702 -0.000802512 0)
(0.378103 -0.000665185 0)
(0.384041 -0.000515083 0)
(0.388394 -0.000344972 0)
(0.390966 -0.000170566 0)
(0.391708 1.32285e-05 0)
(0.390604 0.000206455 0)
(0.387459 0.000402427 0)
(0.382508 0.000589437 0)
(0.375625 0.000770021 0)
(0.36696 0.000945449 0)
(0.356647 0.00108982 0)
(0.34498 0.00121613 0)
(0.332166 0.00133099 0)
(0.318371 0.00140282 0)
(0.303923 0.00145541 0)
(0.289051 0.0014884 0)
(0.273974 0.00150158 0)
(0.258897 0.00149837 0)
(0.243912 0.00146933 0)
(0.22926 0.00143636 0)
(0.215072 0.00138117 0)
(0.20146 0.00131354 0)
(0.188554 0.00124748 0)
(0.176389 0.00117001 0)
(0.165033 0.00108432 0)
(0.154499 0.00100791 0)
(0.144779 0.000920732 0)
(0.135931 0.000843165 0)
(0.127884 0.000751261 0)
(0.120715 0.00067323 0)
(0.114327 0.000586711 0)
(0.108772 0.000514382 0)
(0.10399 0.000448525 0)
(0.0998546 0.000371257 0)
(0.0963817 0.00031804 0)
(0.0935018 0.000257982 0)
(0.0911404 0.000205583 0)
(0.089241 0.000162937 0)
(0.0877689 0.000136839 0)
(0.0865601 0.000113055 0)
(0.0855502 7.58703e-05 0)
(0.0848654 7.00827e-05 0)
(0.0842807 4.18242e-05 0)
(0.083871 2.6873e-05 0)
(0.0836928 1.38166e-05 0)
(0.08363 -1.19412e-05 0)
(0.0837798 -1.91355e-05 0)
(0.084133 -3.76992e-05 0)
(0.0845988 -5.36788e-05 0)
(0.0852589 -6.65769e-05 0)
(0.0860947 -9.28023e-05 0)
(0.0871339 -0.000106065 0)
(0.0883461 -0.000132022 0)
(0.0898564 -0.00017029 0)
(0.0917896 -0.000207649 0)
(0.0941391 -0.000244852 0)
(0.0969088 -0.000303793 0)
(0.100225 -0.000363594 0)
(0.10425 -0.000433893 0)
(0.109054 -0.00050991 0)
(0.114654 -0.000598761 0)
(0.121126 -0.000680924 0)
(0.128445 -0.000779103 0)
(0.136725 -0.000864864 0)
(0.14595 -0.00095245 0)
(0.156069 -0.0010475 0)
(0.167061 -0.00113619 0)
(0.178934 -0.00123175 0)
(0.191728 -0.00131142 0)
(0.205352 -0.00140272 0)
(0.219924 -0.00148058 0)
(0.235324 -0.00157089 0)
(0.251512 -0.00165718 0)
(0.268564 -0.00172208 0)
(0.286268 -0.00179118 0)
(0.304492 -0.00183638 0)
(0.323106 -0.00184848 0)
(0.341789 -0.00185068 0)
(0.360304 -0.00181902 0)
(0.37836 -0.00175966 0)
(0.395661 -0.00165931 0)
(0.411807 -0.00153032 0)
(0.426489 -0.00137637 0)
(0.4394 -0.00116529 0)
(0.45012 -0.000951969 0)
(0.45846 -0.000702645 0)
(0.464184 -0.000431252 0)
(0.467057 -0.000154886 0)
(0.467209 0.000119894 0)
(0.464394 0.000424468 0)
(0.458329 0.000701828 0)
(0.449631 0.000958939 0)
(0.438285 0.00120209 0)
(0.424677 0.00142026 0)
(0.409064 0.00161009 0)
(0.391639 0.00177019 0)
(0.373013 0.00188943 0)
(0.353557 0.00196589 0)
(0.334084 0.00201739 0)
(0.314692 0.00202671 0)
(0.295032 0.00199563 0)
(0.275585 0.00194043 0)
(0.25678 0.00186695 0)
(0.238711 0.00176753 0)
(0.221733 0.00164749 0)
(0.205926 0.00152837 0)
(0.191275 0.00139937 0)
(0.178022 0.00127028 0)
(0.166054 0.00114282 0)
(0.155596 0.00101422 0)
(0.146709 0.000886142 0)
(0.138975 0.000766217 0)
(0.132437 0.000648581 0)
(0.127021 0.000549938 0)
(0.12234 0.000466832 0)
(0.118453 0.000395148 0)
(0.115024 0.00035289 0)
(0.111853 0.000316033 0)
(0.108952 0.000296369 0)
(0.106081 0.00028416 0)
(0.103259 0.000275378 0)
(0.100507 0.000262175 0)
(0.0978058 0.000251868 0)
(0.0952462 0.00023006 0)
(0.0928944 0.00020466 0)
(0.0908306 0.000168997 0)
(0.0891023 0.000133128 0)
(0.0877566 9.01982e-05 0)
(0.0868181 4.64237e-05 0)
(0.0862888 2.82268e-06 0)
(0.0862747 -3.42415e-05 0)
(0.0867608 -7.01856e-05 0)
(0.0876363 -0.000107733 0)
(0.0888845 -0.000143247 0)
(0.0904831 -0.000175003 0)
(0.0924321 -0.000211805 0)
(0.0947517 -0.000248332 0)
(0.0974705 -0.000292586 0)
(0.100634 -0.00034254 0)
(0.104314 -0.00039435 0)
(0.108606 -0.00045912 0)
(0.113576 -0.000531685 0)
(0.119319 -0.000608958 0)
(0.125942 -0.000703189 0)
(0.133512 -0.000796458 0)
(0.142095 -0.000905482 0)
(0.151726 -0.00100961 0)
(0.16243 -0.0011093 0)
(0.174217 -0.0012256 0)
(0.187062 -0.00132347 0)
(0.200896 -0.00140728 0)
(0.215635 -0.00150763 0)
(0.231177 -0.00157123 0)
(0.247389 -0.00164773 0)
(0.264131 -0.00168364 0)
(0.28121 -0.00169489 0)
(0.298432 -0.0017188 0)
(0.315622 -0.00169612 0)
(0.332554 -0.00164781 0)
(0.349007 -0.00160729 0)
(0.364784 -0.00152145 0)
(0.379659 -0.00141277 0)
(0.393411 -0.00130389 0)
(0.405843 -0.00115771 0)
(0.416761 -0.0010055 0)
(0.425988 -0.000826005 0)
(0.433366 -0.000634251 0)
(0.438767 -0.000434861 0)
(0.442103 -0.000224328 0)
(0.44329 -9.41836e-06 0)
(0.442486 0.000200407 0)
(0.439447 0.000412472 0)
(0.434322 0.000605929 0)
(0.427261 0.000790952 0)
(0.418409 0.000964728 0)
(0.407949 0.00110501 0)
(0.396091 0.0012391 0)
(0.383045 0.00135484 0)
(0.369033 0.0014247 0)
(0.354284 0.00149603 0)
(0.339012 0.00152197 0)
(0.323423 0.0015531 0)
(0.307695 0.00156762 0)
(0.291984 0.00154305 0)
(0.276453 0.00152835 0)
(0.259565 0.00150278 0)
(0.419554 -0.00342963 0)
(0.429397 -0.00296242 0)
(0.438428 -0.00240448 0)
(0.445537 -0.00180365 0)
(0.450559 -0.00116807 0)
(0.453407 -0.000499456 0)
(0.453947 0.000170476 0)
(0.452331 0.000828755 0)
(0.448323 0.00151133 0)
(0.442191 0.00213125 0)
(0.433996 0.00273306 0)
(0.423883 0.00329781 0)
(0.412036 0.00374882 0)
(0.398664 0.00419419 0)
(0.383987 0.00450114 0)
(0.368243 0.00480891 0)
(0.351657 0.00505888 0)
(0.334459 0.00515096 0)
(0.316885 0.00526071 0)
(0.299139 0.00531605 0)
(0.281415 0.00522773 0)
(0.263903 0.00516735 0)
(0.246759 0.00506379 0)
(0.230114 0.00485419 0)
(0.214087 0.00467601 0)
(0.198773 0.00442228 0)
(0.184242 0.00419791 0)
(0.170543 0.00395796 0)
(0.157706 0.00368057 0)
(0.145749 0.00342642 0)
(0.134674 0.00316995 0)
(0.124473 0.00290382 0)
(0.115131 0.002655 0)
(0.106623 0.00240657 0)
(0.0989233 0.00217303 0)
(0.0919983 0.00194785 0)
(0.0858147 0.00173065 0)
(0.0803375 0.00152518 0)
(0.0755314 0.00132932 0)
(0.0713621 0.0011428 0)
(0.0677964 0.000966728 0)
(0.0648046 0.000800731 0)
(0.0623608 0.000642608 0)
(0.0604418 0.000488893 0)
(0.0590243 0.000340222 0)
(0.058083 0.000195736 0)
(0.0575947 5.26808e-05 0)
(0.0575692 -9.01712e-05 0)
(0.0580292 -0.000231133 0)
(0.0589746 -0.000368289 0)
(0.0604022 -0.00051161 0)
(0.0623123 -0.000651489 0)
(0.0647143 -0.000802077 0)
(0.0676301 -0.000954032 0)
(0.0710573 -0.00110075 0)
(0.0750124 -0.00126749 0)
(0.0795561 -0.00143979 0)
(0.0846586 -0.00159794 0)
(0.0903674 -0.00179747 0)
(0.0967397 -0.00198229 0)
(0.103797 -0.00220642 0)
(0.111652 -0.00243785 0)
(0.120307 -0.00266806 0)
(0.129817 -0.00293809 0)
(0.140323 -0.00322734 0)
(0.151808 -0.00348931 0)
(0.164247 -0.00378539 0)
(0.177682 -0.00403688 0)
(0.191893 -0.0042499 0)
(0.206797 -0.0044384 0)
(0.222118 -0.00448187 0)
(0.237403 -0.00444025 0)
(0.252212 -0.00423154 0)
(0.266133 -0.00402187 0)
(0.279157 -0.00369916 0)
(0.291006 -0.00338329 0)
(0.301729 -0.00298951 0)
(0.311192 -0.00263389 0)
(0.319841 -0.00243346 0)
(0.327937 -0.00214492 0)
(0.335099 -0.00205272 0)
(0.342604 -0.00201258 0)
(0.350372 -0.00200342 0)
(0.358444 -0.00204909 0)
(0.366891 -0.00204093 0)
(0.375379 -0.0019281 0)
(0.383431 -0.00169788 0)
(0.390558 -0.00133978 0)
(0.396256 -0.000876909 0)
(0.399979 -0.000361305 0)
(0.401323 0.000208282 0)
(0.400301 0.000874943 0)
(0.396664 0.00162391 0)
(0.390865 0.00227394 0)
(0.38292 0.00284922 0)
(0.372976 0.00334863 0)
(0.361278 0.00380716 0)
(0.34811 0.0041861 0)
(0.333616 0.00451635 0)
(0.317965 0.00478377 0)
(0.301492 0.00498208 0)
(0.284479 0.00509863 0)
(0.267226 0.00513248 0)
(0.250001 0.00511126 0)
(0.232949 0.00501401 0)
(0.216287 0.00489354 0)
(0.200127 0.00471469 0)
(0.184586 0.00451929 0)
(0.169752 0.00431007 0)
(0.155663 0.00407765 0)
(0.142348 0.00383722 0)
(0.129833 0.00360322 0)
(0.118142 0.00336177 0)
(0.107258 0.00311962 0)
(0.0971852 0.00286975 0)
(0.0879739 0.00261567 0)
(0.0796025 0.00237767 0)
(0.0720469 0.00211236 0)
(0.0653871 0.0018569 0)
(0.059582 0.00160956 0)
(0.0545828 0.00136213 0)
(0.0504269 0.00112102 0)
(0.0470594 0.000885986 0)
(0.0444648 0.000676745 0)
(0.0425787 0.000449688 0)
(0.0414132 0.000257258 0)
(0.0408873 6.86463e-05 0)
(0.0409484 -0.000112509 0)
(0.0416194 -0.000272849 0)
(0.0428127 -0.000422529 0)
(0.0444707 -0.000574614 0)
(0.0466474 -0.000709881 0)
(0.0492553 -0.000822016 0)
(0.0521916 -0.000942375 0)
(0.0555551 -0.00105692 0)
(0.0592923 -0.00115399 0)
(0.0632977 -0.00124755 0)
(0.0676229 -0.00133112 0)
(0.0722379 -0.00139244 0)
(0.0770138 -0.00146396 0)
(0.0820235 -0.00154747 0)
(0.0873289 -0.00159339 0)
(0.0928006 -0.00166912 0)
(0.0985016 -0.0017202 0)
(0.104407 -0.00178947 0)
(0.110521 -0.00186724 0)
(0.116931 -0.00196469 0)
(0.123712 -0.00206452 0)
(0.130861 -0.00217707 0)
(0.138403 -0.0023039 0)
(0.146393 -0.00244783 0)
(0.154891 -0.00259953 0)
(0.163912 -0.00275091 0)
(0.173479 -0.00291827 0)
(0.183578 -0.00307507 0)
(0.194189 -0.00323836 0)
(0.205328 -0.00337397 0)
(0.216916 -0.00350369 0)
(0.228916 -0.00362804 0)
(0.241298 -0.00371963 0)
(0.253957 -0.00379984 0)
(0.26682 -0.00384407 0)
(0.279778 -0.00385853 0)
(0.292738 -0.00383532 0)
(0.305549 -0.00378105 0)
(0.318089 -0.00366648 0)
(0.330188 -0.00353301 0)
(0.341718 -0.00332097 0)
(0.352494 -0.0030735 0)
(0.362317 -0.0027713 0)
(0.371028 -0.00240335 0)
(0.378422 -0.00200023 0)
(0.384362 -0.00154796 0)
(0.388718 -0.00103627 0)
(0.391293 -0.000499207 0)
(0.392017 3.56207e-05 0)
(0.390888 0.000610163 0)
(0.387727 0.00119311 0)
(0.382759 0.00177666 0)
(0.375856 0.00231308 0)
(0.367169 0.00282946 0)
(0.356829 0.00327724 0)
(0.345133 0.00366659 0)
(0.33228 0.00397949 0)
(0.318461 0.00421919 0)
(0.303986 0.00438053 0)
(0.289083 0.00447554 0)
(0.273968 0.00449785 0)
(0.258862 0.00449233 0)
(0.243857 0.0044197 0)
(0.229183 0.00430806 0)
(0.214971 0.00414916 0)
(0.201343 0.00395774 0)
(0.18841 0.00374152 0)
(0.176216 0.00350123 0)
(0.164847 0.00327016 0)
(0.154282 0.00301702 0)
(0.144559 0.00276646 0)
(0.135671 0.00251824 0)
(0.12764 0.00226737 0)
(0.120442 0.00202164 0)
(0.114067 0.00177743 0)
(0.108483 0.00153239 0)
(0.10368 0.00132543 0)
(0.0995784 0.00113138 0)
(0.0960881 0.000937992 0)
(0.0932061 0.000778235 0)
(0.0908474 0.000623348 0)
(0.0889502 0.000494691 0)
(0.0874722 0.000402481 0)
(0.0862667 0.00031551 0)
(0.0852797 0.00023991 0)
(0.0845879 0.000205781 0)
(0.0840236 0.00014672 0)
(0.0835813 7.23878e-05 0)
(0.0834247 5.76389e-05 0)
(0.0833819 -1.69841e-05 0)
(0.0835469 -6.47033e-05 0)
(0.0838986 -0.00011508 0)
(0.0843607 -0.000183 0)
(0.0850241 -0.000216041 0)
(0.0858936 -0.000257325 0)
(0.0869251 -0.000321396 0)
(0.0881391 -0.000413594 0)
(0.0896697 -0.000497154 0)
(0.0915975 -0.000611901 0)
(0.0939533 -0.000742315 0)
(0.096739 -0.000891259 0)
(0.100043 -0.00109749 0)
(0.104079 -0.00129403 0)
(0.108871 -0.00153081 0)
(0.114479 -0.0017831 0)
(0.120945 -0.00204021 0)
(0.128275 -0.00232694 0)
(0.136549 -0.00260282 0)
(0.145766 -0.00287785 0)
(0.155896 -0.00314218 0)
(0.166901 -0.0033987 0)
(0.178774 -0.00368013 0)
(0.191563 -0.00393314 0)
(0.205214 -0.00419429 0)
(0.219753 -0.00446496 0)
(0.235151 -0.00471202 0)
(0.25136 -0.00497018 0)
(0.268417 -0.00517421 0)
(0.286128 -0.00536865 0)
(0.304361 -0.005503 0)
(0.322976 -0.00555438 0)
(0.341675 -0.005552 0)
(0.360198 -0.00546625 0)
(0.378292 -0.00525925 0)
(0.395578 -0.00499322 0)
(0.411751 -0.00459887 0)
(0.426465 -0.00411195 0)
(0.439362 -0.00352497 0)
(0.450116 -0.00284133 0)
(0.458473 -0.00209791 0)
(0.464211 -0.00127864 0)
(0.467089 -0.00045774 0)
(0.467235 0.000353482 0)
(0.464369 0.0012609 0)
(0.458329 0.00209677 0)
(0.449639 0.00288498 0)
(0.438299 0.0036145 0)
(0.424666 0.00426019 0)
(0.409043 0.00484735 0)
(0.391602 0.00530904 0)
(0.372952 0.00565381 0)
(0.353501 0.00590617 0)
(0.334019 0.00605868 0)
(0.314624 0.00608918 0)
(0.294947 0.00599035 0)
(0.275495 0.00582032 0)
(0.256698 0.00559025 0)
(0.238638 0.00529965 0)
(0.221658 0.00494496 0)
(0.205852 0.00458723 0)
(0.1912 0.00420078 0)
(0.17794 0.00381124 0)
(0.165972 0.00343069 0)
(0.155508 0.00304344 0)
(0.146615 0.00265997 0)
(0.138876 0.00229919 0)
(0.132332 0.0019448 0)
(0.126914 0.00165023 0)
(0.122233 0.0014001 0)
(0.118348 0.00118569 0)
(0.114922 0.00105666 0)
(0.111757 0.000948997 0)
(0.108861 0.000885687 0)
(0.105997 0.000854009 0)
(0.103182 0.000819942 0)
(0.100438 0.000791806 0)
(0.0977427 0.000751135 0)
(0.0951893 0.000691347 0)
(0.0928422 0.000609348 0)
(0.0907839 0.000511782 0)
(0.0890605 0.000395892 0)
(0.0877185 0.000264644 0)
(0.0867842 0.0001365 0)
(0.0862595 8.2103e-06 0)
(0.0862495 -0.000102965 0)
(0.0867385 -0.000211075 0)
(0.0876153 -0.000323471 0)
(0.0888652 -0.000429619 0)
(0.0904646 -0.000524815 0)
(0.0924133 -0.00063513 0)
(0.094732 -0.000744573 0)
(0.0974486 -0.000876985 0)
(0.10061 -0.00102469 0)
(0.104288 -0.00118099 0)
(0.108576 -0.0013777 0)
(0.113542 -0.00159561 0)
(0.119283 -0.00182647 0)
(0.125902 -0.00210921 0)
(0.13347 -0.002389 0)
(0.14205 -0.002716 0)
(0.151681 -0.00302855 0)
(0.162385 -0.003328 0)
(0.174173 -0.00367693 0)
(0.18702 -0.00397067 0)
(0.200857 -0.00422211 0)
(0.215601 -0.00452333 0)
(0.231148 -0.00471424 0)
(0.247366 -0.00494365 0)
(0.264115 -0.00505163 0)
(0.281201 -0.00508539 0)
(0.298432 -0.00515726 0)
(0.31563 -0.00508922 0)
(0.33257 -0.0049443 0)
(0.349033 -0.00482278 0)
(0.364818 -0.00456525 0)
(0.379701 -0.00423917 0)
(0.393462 -0.00391257 0)
(0.405901 -0.00347392 0)
(0.416828 -0.00301728 0)
(0.42606 -0.00247861 0)
(0.433443 -0.00190322 0)
(0.438847 -0.00130465 0)
(0.442187 -0.000671036 0)
(0.443381 -2.91457e-05 0)
(0.442573 0.000600228 0)
(0.439523 0.00123741 0)
(0.434397 0.00181786 0)
(0.427331 0.00237341 0)
(0.418473 0.00289491 0)
(0.408005 0.00331583 0)
(0.396138 0.00371815 0)
(0.383084 0.00406541 0)
(0.369063 0.00427494 0)
(0.354305 0.00448892 0)
(0.339025 0.00456665 0)
(0.323429 0.00465997 0)
(0.307695 0.00470345 0)
(0.291978 0.00462966 0)
(0.276443 0.00458547 0)
(0.25955 0.00450867 0)
(0.419676 -0.00571885 0)
(0.429536 -0.00494002 0)
(0.43858 -0.00400979 0)
(0.445701 -0.00300799 0)
(0.450732 -0.00194806 0)
(0.453583 -0.000835443 0)
(0.454139 0.000283813 0)
(0.452497 0.00138655 0)
(0.448495 0.00252008 0)
(0.442353 0.00355369 0)
(0.434146 0.00455727 0)
(0.424021 0.00549893 0)
(0.412155 0.00625081 0)
(0.398767 0.00699331 0)
(0.38407 0.00750487 0)
(0.368308 0.00801788 0)
(0.351705 0.0084345 0)
(0.334489 0.00858778 0)
(0.316898 0.00877054 0)
(0.299136 0.0088626 0)
(0.281398 0.00871508 0)
(0.263874 0.00861419 0)
(0.246718 0.00844131 0)
(0.230065 0.00809165 0)
(0.214031 0.0077944 0)
(0.198712 0.00737124 0)
(0.184176 0.00699704 0)
(0.170474 0.00659691 0)
(0.157637 0.00613439 0)
(0.145679 0.00571066 0)
(0.134605 0.0052831 0)
(0.124406 0.00483944 0)
(0.115065 0.00442467 0)
(0.10656 0.00401057 0)
(0.0988623 0.00362132 0)
(0.0919399 0.00324603 0)
(0.085759 0.00288412 0)
(0.0802844 0.00254178 0)
(0.075481 0.0022156 0)
(0.0713143 0.00190478 0)
(0.0677513 0.00161109 0)
(0.0647619 0.00133359 0)
(0.0623197 0.00106994 0)
(0.0604019 0.00081406 0)
(0.0589856 0.000566033 0)
(0.0580449 0.000325305 0)
(0.0575566 8.75875e-05 0)
(0.0575322 -0.000150479 0)
(0.057994 -0.000385127 0)
(0.0589384 -0.000613588 0)
(0.0603655 -0.000852649 0)
(0.0622752 -0.00108574 0)
(0.0646763 -0.00133664 0)
(0.0675914 -0.00158991 0)
(0.0710176 -0.00183432 0)
(0.0749714 -0.00211219 0)
(0.0795139 -0.00239931 0)
(0.0846147 -0.00266302 0)
(0.0903219 -0.00299485 0)
(0.0966909 -0.00330385 0)
(0.103745 -0.00367691 0)
(0.111596 -0.00406159 0)
(0.120247 -0.00444576 0)
(0.129752 -0.00489709 0)
(0.140258 -0.0053766 0)
(0.151739 -0.00581619 0)
(0.164183 -0.00630887 0)
(0.177623 -0.00673329 0)
(0.191852 -0.00708829 0)
(0.206785 -0.00739747 0)
(0.222136 -0.00747372 0)
(0.237448 -0.00740575 0)
(0.252309 -0.00706592 0)
(0.266269 -0.00671375 0)
(0.279345 -0.00616751 0)
(0.291222 -0.0056383 0)
(0.301965 -0.00498994 0)
(0.31143 -0.0044056 0)
(0.320074 -0.00407695 0)
(0.328214 -0.00357413 0)
(0.335411 -0.00341649 0)
(0.342977 -0.00336661 0)
(0.350801 -0.00335531 0)
(0.358926 -0.00341896 0)
(0.367388 -0.0033985 0)
(0.375907 -0.00320291 0)
(0.383985 -0.00283557 0)
(0.391155 -0.00224895 0)
(0.396873 -0.0014756 0)
(0.40061 -0.00060403 0)
(0.40197 0.000354053 0)
(0.400918 0.00147187 0)
(0.397276 0.00271053 0)
(0.39148 0.00379538 0)
(0.383514 0.00474986 0)
(0.373556 0.00558555 0)
(0.361842 0.00634712 0)
(0.348663 0.00699467 0)
(0.334141 0.00752299 0)
(0.318471 0.00797436 0)
(0.301977 0.00830452 0)
(0.284943 0.00849673 0)
(0.267679 0.00856547 0)
(0.250431 0.0085094 0)
(0.233375 0.00837386 0)
(0.216694 0.00814274 0)
(0.200531 0.00786997 0)
(0.184983 0.00753633 0)
(0.170137 0.00717531 0)
(0.156043 0.00679298 0)
(0.142733 0.00640257 0)
(0.13022 0.00600707 0)
(0.118523 0.00560014 0)
(0.107639 0.0051999 0)
(0.0975678 0.00477821 0)
(0.0883635 0.00437041 0)
(0.079986 0.0039538 0)
(0.072438 0.00352267 0)
(0.065782 0.00309675 0)
(0.0599724 0.00268885 0)
(0.0549762 0.00226865 0)
(0.0508202 0.00186466 0)
(0.0474648 0.00148885 0)
(0.0448584 0.00110583 0)
(0.0429895 0.000756804 0)
(0.0418205 0.000420323 0)
(0.0413001 0.000113938 0)
(0.0413734 -0.000179927 0)
(0.0420341 -0.000459152 0)
(0.043235 -0.000705164 0)
(0.0448964 -0.000958045 0)
(0.0470717 -0.0011852 0)
(0.0496773 -0.0013739 0)
(0.0526169 -0.00157672 0)
(0.0559883 -0.00176164 0)
(0.0597285 -0.00192108 0)
(0.0637146 -0.00209044 0)
(0.0680485 -0.00221884 0)
(0.072665 -0.00232343 0)
(0.0774397 -0.00244401 0)
(0.0824572 -0.00256659 0)
(0.0877339 -0.0026729 0)
(0.0932073 -0.00277745 0)
(0.0989036 -0.00287495 0)
(0.10482 -0.00297356 0)
(0.110934 -0.00311169 0)
(0.117337 -0.00327477 0)
(0.124111 -0.00344193 0)
(0.13125 -0.00362793 0)
(0.138781 -0.00384188 0)
(0.146768 -0.00407509 0)
(0.155265 -0.00433494 0)
(0.164286 -0.00458795 0)
(0.173853 -0.00486538 0)
(0.183952 -0.00512082 0)
(0.194561 -0.00538818 0)
(0.205696 -0.00562709 0)
(0.217285 -0.00584443 0)
(0.229293 -0.00604734 0)
(0.241675 -0.00620892 0)
(0.254341 -0.00633317 0)
(0.267213 -0.00640187 0)
(0.280185 -0.00642277 0)
(0.293138 -0.00640018 0)
(0.305964 -0.0062881 0)
(0.318501 -0.00612432 0)
(0.330622 -0.00587717 0)
(0.342156 -0.00554501 0)
(0.352946 -0.00513168 0)
(0.362798 -0.00460071 0)
(0.3715 -0.00401916 0)
(0.378902 -0.00333405 0)
(0.384842 -0.00257218 0)
(0.389183 -0.00173802 0)
(0.391759 -0.000834276 0)
(0.392477 6.52757e-05 0)
(0.391306 0.00102654 0)
(0.388139 0.0020023 0)
(0.383132 0.00296034 0)
(0.376192 0.00386215 0)
(0.367469 0.00472716 0)
(0.357081 0.00546746 0)
(0.345337 0.00611112 0)
(0.332444 0.00665672 0)
(0.318553 0.00703379 0)
(0.304032 0.00730671 0)
(0.289078 0.00745711 0)
(0.273927 0.00752037 0)
(0.25877 0.00749503 0)
(0.243725 0.00737199 0)
(0.229012 0.00718727 0)
(0.21475 0.00691772 0)
(0.20108 0.0066026 0)
(0.188109 0.0062473 0)
(0.175874 0.00584413 0)
(0.164467 0.00544676 0)
(0.153881 0.00504216 0)
(0.144121 0.00461274 0)
(0.135213 0.00420995 0)
(0.127146 0.0037679 0)
(0.119934 0.00336905 0)
(0.113532 0.00295288 0)
(0.107951 0.00257135 0)
(0.103139 0.00221581 0)
(0.0990172 0.00187301 0)
(0.0955432 0.00157573 0)
(0.0926546 0.00128949 0)
(0.0903012 0.00103826 0)
(0.0884168 0.000820925 0)
(0.0869547 0.000676985 0)
(0.0857641 0.000531066 0)
(0.0847778 0.000386366 0)
(0.0840978 0.000340761 0)
(0.0835338 0.000230343 0)
(0.083117 0.000127216 0)
(0.0829487 7.40879e-05 0)
(0.0829201 -3.87583e-05 0)
(0.0831136 -0.000109728 0)
(0.0834804 -0.000191357 0)
(0.0839585 -0.000290034 0)
(0.0846301 -0.000356971 0)
(0.0854979 -0.000451299 0)
(0.0865483 -0.000532575 0)
(0.0877741 -0.000681637 0)
(0.0893011 -0.000850342 0)
(0.0912435 -0.00102732 0)
(0.0936084 -0.00123408 0)
(0.0963788 -0.00150484 0)
(0.0996853 -0.00182158 0)
(0.103717 -0.0021632 0)
(0.10851 -0.00255365 0)
(0.114109 -0.00298293 0)
(0.120577 -0.00340231 0)
(0.127911 -0.0038851 0)
(0.13619 -0.00433766 0)
(0.145419 -0.00477547 0)
(0.155542 -0.00524102 0)
(0.16654 -0.00567994 0)
(0.178421 -0.0061399 0)
(0.191217 -0.00655951 0)
(0.204871 -0.00699694 0)
(0.219421 -0.00742855 0)
(0.234811 -0.00785755 0)
(0.251022 -0.00828756 0)
(0.2681 -0.00862503 0)
(0.285812 -0.00895846 0)
(0.304066 -0.00918232 0)
(0.322702 -0.00926128 0)
(0.341406 -0.00926606 0)
(0.359971 -0.00909651 0)
(0.378075 -0.00878955 0)
(0.395398 -0.00831831 0)
(0.411607 -0.0076643 0)
(0.42635 -0.00686162 0)
(0.439282 -0.00586175 0)
(0.450042 -0.00476452 0)
(0.458431 -0.00349974 0)
(0.464174 -0.00214037 0)
(0.467065 -0.00077877 0)
(0.467193 0.000601199 0)
(0.46427 0.00211446 0)
(0.458268 0.00349791 0)
(0.449574 0.00480553 0)
(0.438231 0.00602588 0)
(0.42457 0.0071087 0)
(0.40892 0.00807304 0)
(0.391468 0.00885816 0)
(0.372793 0.00943662 0)
(0.353322 0.00984296 0)
(0.333827 0.0100987 0)
(0.314422 0.0101457 0)
(0.294746 0.00998474 0)
(0.27529 0.00970012 0)
(0.256505 0.00932046 0)
(0.238452 0.00883303 0)
(0.221489 0.00823933 0)
(0.205699 0.00764323 0)
(0.191052 0.00700041 0)
(0.177796 0.00635284 0)
(0.165833 0.00571735 0)
(0.155368 0.00507428 0)
(0.146472 0.00443412 0)
(0.138731 0.00383367 0)
(0.132176 0.00324336 0)
(0.126757 0.00275053 0)
(0.122073 0.0023337 0)
(0.118188 0.00197492 0)
(0.11477 0.00176054 0)
(0.111608 0.00157878 0)
(0.108723 0.00147548 0)
(0.10587 0.00141909 0)
(0.103064 0.00136759 0)
(0.10033 0.00131318 0)
(0.0976447 0.00125237 0)
(0.0950984 0.00114908 0)
(0.0927599 0.00101663 0)
(0.090708 0.000847478 0)
(0.0889903 0.000660619 0)
(0.0876557 0.000444187 0)
(0.0867297 0.000228692 0)
(0.0862126 1.23645e-05 0)
(0.0862092 -0.000172394 0)
(0.0867028 -0.000352699 0)
(0.087582 -0.000539611 0)
(0.0888347 -0.000715853 0)
(0.0904354 -0.000874039 0)
(0.0923833 -0.00105717 0)
(0.0946999 -0.00123898 0)
(0.0974127 -0.00145845 0)
(0.10057 -0.00170275 0)
(0.104242 -0.00196469 0)
(0.108523 -0.00229454 0)
(0.113483 -0.00265786 0)
(0.119217 -0.0030422 0)
(0.12583 -0.00351397 0)
(0.133393 -0.00398077 0)
(0.141969 -0.00452596 0)
(0.151597 -0.00504793 0)
(0.162301 -0.00554714 0)
(0.174091 -0.00612876 0)
(0.186943 -0.00661879 0)
(0.200787 -0.007038 0)
(0.215538 -0.00754042 0)
(0.231096 -0.00785891 0)
(0.247326 -0.00824159 0)
(0.264089 -0.00842174 0)
(0.28119 -0.00847815 0)
(0.298437 -0.00859821 0)
(0.315651 -0.00848484 0)
(0.332607 -0.00824328 0)
(0.349088 -0.0080409 0)
(0.364889 -0.00761158 0)
(0.379787 -0.007068 0)
(0.393567 -0.00652368 0)
(0.40602 -0.00579234 0)
(0.416963 -0.005031 0)
(0.426206 -0.00413283 0)
(0.433598 -0.00317333 0)
(0.43901 -0.00217533 0)
(0.442353 -0.00112276 0)
(0.443567 -4.58456e-05 0)
(0.442741 0.000999298 0)
(0.439675 0.00206219 0)
(0.434547 0.00303021 0)
(0.427471 0.00395766 0)
(0.418601 0.00482736 0)
(0.408114 0.0055291 0)
(0.396232 0.00619981 0)
(0.383161 0.00677868 0)
(0.369121 0.00712775 0)
(0.354346 0.0074843 0)
(0.33905 0.00761356 0)
(0.32344 0.00776888 0)
(0.307692 0.0078411 0)
(0.291964 0.00771776 0)
(0.27642 0.00764383 0)
(0.259519 0.00751557 0)
(0.41986 -0.00801227 0)
(0.429744 -0.00692162 0)
(0.438808 -0.0056185 0)
(0.445946 -0.0042152 0)
(0.450991 -0.00273051 0)
(0.453848 -0.00117504 0)
(0.454422 0.000397746 0)
(0.452749 0.00195065 0)
(0.448753 0.00353067 0)
(0.442595 0.00497869 0)
(0.434372 0.00638476 0)
(0.424227 0.00770394 0)
(0.412334 0.00875695 0)
(0.398921 0.00979692 0)
(0.384195 0.0105131 0)
(0.368407 0.0112314 0)
(0.351776 0.0118147 0)
(0.334533 0.0120288 0)
(0.316918 0.0122844 0)
(0.299132 0.0124129 0)
(0.281374 0.0122057 0)
(0.26383 0.0120639 0)
(0.246657 0.0118213 0)
(0.229992 0.0113311 0)
(0.213946 0.0109144 0)
(0.19862 0.0103213 0)
(0.184078 0.00979695 0)
(0.170372 0.00923631 0)
(0.157533 0.00858838 0)
(0.145575 0.00799483 0)
(0.134501 0.00739599 0)
(0.124305 0.00677468 0)
(0.114966 0.00619384 0)
(0.106465 0.00561401 0)
(0.0987707 0.00506901 0)
(0.0918522 0.00454363 0)
(0.0856754 0.00403704 0)
(0.0802049 0.00355791 0)
(0.0754053 0.00310157 0)
(0.0712426 0.0026667 0)
(0.0676834 0.00225527 0)
(0.0646977 0.0018657 0)
(0.0622579 0.00149602 0)
(0.060342 0.00113824 0)
(0.0589275 0.000791055 0)
(0.0579877 0.000453766 0)
(0.0574995 0.000122041 0)
(0.0574777 -0.000211028 0)
(0.0579406 -0.000538973 0)
(0.0588841 -0.000858744 0)
(0.0603105 -0.00119367 0)
(0.0622194 -0.00151992 0)
(0.0646194 -0.00187106 0)
(0.0675331 -0.00222567 0)
(0.0709579 -0.00256774 0)
(0.0749096 -0.00295661 0)
(0.0794502 -0.00335862 0)
(0.0845487 -0.00372749 0)
(0.0902527 -0.00419234 0)
(0.0966181 -0.0046241 0)
(0.103667 -0.00514634 0)
(0.111512 -0.00568508 0)
(0.120156 -0.00622331 0)
(0.129655 -0.00685416 0)
(0.140155 -0.00752803 0)
(0.151635 -0.00814149 0)
(0.164085 -0.0088348 0)
(0.177537 -0.00942833 0)
(0.191793 -0.00993038 0)
(0.206757 -0.0103721 0)
(0.222166 -0.0104764 0)
(0.237526 -0.0103854 0)
(0.252462 -0.00990818 0)
(0.266483 -0.00941023 0)
(0.279624 -0.0086547 0)
(0.29152 -0.00790811 0)
(0.302295 -0.00698701 0)
(0.311747 -0.00616566 0)
(0.320427 -0.00571136 0)
(0.328609 -0.00501969 0)
(0.33588 -0.00480213 0)
(0.343542 -0.00473819 0)
(0.351446 -0.00471688 0)
(0.359632 -0.00480402 0)
(0.368125 -0.00478042 0)
(0.376678 -0.00450755 0)
(0.384806 -0.00398771 0)
(0.392039 -0.00315854 0)
(0.397796 -0.00209323 0)
(0.401554 -0.00085909 0)
(0.402919 0.000514788 0)
(0.401812 0.00209218 0)
(0.398191 0.00381005 0)
(0.392388 0.00531935 0)
(0.3844 0.00665286 0)
(0.374414 0.00782252 0)
(0.362664 0.00888919 0)
(0.349459 0.00978361 0)
(0.334918 0.0105485 0)
(0.319217 0.0111752 0)
(0.302694 0.0116338 0)
(0.285633 0.0119008 0)