/*--------------------------------*- C++ -*----------------------------------*\
| =========                 |                                                 |
| \\      /  F ield         | OpenFOAM: The Open Source CFD Toolbox           |
|  \\    /   O peration     | Version:  3.0.1                                 |
|   \\  /    A nd           | Web:      www.OpenFOAM.org                      |
|    \\/     M anipulation  |                                                 |
\*---------------------------------------------------------------------------*/
FoamFile
{
    version     2.0;
    format      ascii;
    class       volScalarField;
    location    "79";
    object      p;
}
// * * * * * * * * * * * * * * * * * * * * * * * * * * * * * * * * * * * * * //

dimensions      [1 -1 -2 0 0 0 0];

internalField   nonuniform List<scalar> 
21420
(
4040.86
4073.21
4104.81
4135.16
4163.84
4190.31
4214.17
4235.04
4252.57
4266.48
4276.54
4282.57
4284.34
4281.83
4275.16
4264.5
4249.93
4231.7
4210.08
4185.41
4158.07
4128.45
4096.94
4064
4030.07
3995.59
3961
3926.77
3893.9
3861.34
3829.64
3799.14
3770.06
3742.59
3716.81
3692.83
3670.66
3650.32
3631.8
3615.09
3600.15
3586.94
3575.42
3565.55
3557.29
3550.59
3545.44
3541.79
3539.65
3539.04
3539.93
3542.28
3546.16
3551.58
3558.59
3567.2
3577.44
3589.39
3603.04
3618.44
3635.6
3654.52
3675.2
3697.62
3721.72
3747.42
3774.63
3803.22
3833.06
3863.97
3895.82
3928.94
3961.85
3994.72
4027.32
4059.34
4090.48
4120.39
4148.72
4175.11
4199.24
4220.76
4239.36
4254.76
4266.69
4274.96
4279.39
4279.84
4276.39
4268.97
4257.68
4242.63
4224.03
4202.1
4177.14
4149.46
4119.43
4087.43
4053.91
4019.28
3984.02
3948.56
3913.35
3878.81
3845.29
3813.11
3782.56
3753.83
3727.06
3702.35
3679.74
3659.23
3640.8
3624.4
3609.95
3597.38
3586.61
3577.55
3570.14
3564.29
3559.95
3557.03
3555.5
3555.34
3556.47
3558.87
3562.52
3567.42
3573.56
3580.95
3589.61
3599.56
3610.84
3623.49
3637.55
3653.08
3670.13
3688.73
3708.92
3730.73
3754.14
3779.13
3805.63
3833.57
3862.8
3893.15
3924.43
3956.36
3988.65
4020.99
4053.02
4084.36
4114.61
4143.37
4170.22
4194.77
4216.63
4235.45
4250.9
4262.7
4270.65
4274.55
4274.31
4269.95
4261.54
4249.14
4232.98
4213.32
4190.47
4164.8
4136.72
4106.65
4075.04
4042.33
4008.95
3975.33
3941.86
3908.89
3876.74
3845.69
3815.96
3787.74
3761.16
3736.33
3713.31
3692.14
3672.8
3655.3
3639.59
3625.62
3613.35
3602.7
3593.62
3586.03
3579.87
3575.07
3571.58
3569.33
3568.27
3568.38
3569.68
3572.1
3575.66
3580.37
3586.26
3593.36
3601.69
3611.3
3622.26
3634.61
3648.41
3663.72
3680.57
3698.99
3718.97
3740.5
3763.54
3788.03
3813.89
3841.01
3869.28
3898.53
3928.58
3959.2
3990.12
4021.06
4051.7
4081.68
4110.63
4138.15
4163.85
4187.34
4208.24
4226.2
4240.9
4252.06
4259.45
4262.9
4262.33
4257.71
4249.11
4236.61
4220.42
4200.83
4178.15
4152.77
4125.1
4095.56
4064.6
4032.66
4000.15
3967.48
3935.03
3903.13
3872.1
3842.19
3813.62
3786.57
3761.16
3737.49
3715.61
3695.54
3677.29
3660.83
3646.14
3633.16
3621.83
3612.07
3603.8
3596.94
3591.4
3587.09
3583.95
3581.93
3580.97
3581.08
3582.16
3584.25
3587.33
3591.42
3596.54
3602.7
3609.89
3618.16
3627.55
3638.1
3649.84
3662.85
3677.2
3692.97
3710.21
3728.99
3749.36
3771.34
3794.95
3820.15
3846.84
3874.84
3903.36
3933.34
3964.07
3995.12
4026.06
4056.52
4086.06
4114.21
4140.58
4164.76
4186.39
4205.11
4220.63
4232.73
4241.24
4246.03
4246.98
4244.04
4237.34
4227.04
4213.37
4196.6
4177.01
4154.95
4130.8
4104.91
4077.69
4049.49
4020.66
3991.56
3962.49
3933.71
3905.48
3878.09
3851.76
3826.15
3801.54
3778.05
3755.73
3734.63
3714.78
3696.19
3678.88
3662.86
3648.13
3634.71
3622.61
3611.84
3602.41
3594.33
3587.62
3582.27
3578.29
3575.69
3574.48
3574.69
3576.37
3579.53
3584.17
3942.75
3975.13
4006.74
4037.11
4065.81
4092.29
4116.18
4137.06
4154.6
4168.53
4178.6
4184.64
4186.41
4183.89
4177.22
4166.55
4151.97
4133.72
4112.09
4087.4
4060.04
4030.39
3998.87
3965.92
3931.96
3897.47
3862.86
3828.62
3795.75
3763.18
3731.47
3700.96
3671.88
3644.4
3618.63
3594.64
3572.47
3552.14
3533.62
3516.91
3501.98
3488.77
3477.25
3467.38
3459.12
3452.43
3447.28
3443.63
3441.49
3440.89
3441.77
3444.12
3448
3453.42
3460.43
3469.03
3479.27
3491.21
3504.87
3520.26
3537.42
3556.34
3577.03
3599.45
3623.54
3649.24
3676.46
3705.06
3734.9
3765.81
3797.67
3830.8
3863.72
3896.6
3929.21
3961.25
3992.41
4022.33
4050.67
4077.08
4101.23
4122.76
4141.38
4156.79
4168.73
4177
4181.44
4181.9
4178.44
4171.01
4159.72
4144.66
4126.05
4104.11
4079.13
4051.43
4021.37
3989.36
3955.82
3921.17
3885.89
3850.42
3815.19
3780.63
3747.1
3714.92
3684.36
3655.63
3628.86
3604.15
3581.54
3561.04
3542.61
3526.21
3511.77
3499.2
3488.44
3479.38
3471.97
3466.12
3461.78
3458.87
3457.34
3457.18
3458.32
3460.71
3464.37
3469.27
3475.4
3482.79
3491.45
3501.4
3512.68
3525.32
3539.38
3554.91
3571.95
3590.55
3610.75
3632.55
3655.96
3680.95
3707.46
3735.39
3764.63
3794.99
3826.28
3858.22
3890.52
3922.88
3954.92
3986.27
4016.54
4045.32
4072.19
4096.76
4118.64
4137.47
4152.93
4164.75
4172.7
4176.62
4176.36
4172
4163.59
4151.18
4135.01
4115.33
4092.46
4066.78
4038.67
4008.58
3976.95
3944.22
3910.83
3877.2
3843.71
3810.73
3778.57
3747.51
3717.78
3689.55
3662.97
3638.14
3615.13
3593.95
3574.62
3557.12
3541.41
3527.45
3515.18
3504.53
3495.45
3487.87
3481.71
3476.92
3473.42
3471.18
3470.12
3470.23
3471.54
3473.95
3477.51
3482.22
3488.11
3495.2
3503.53
3513.14
3524.1
3536.44
3550.24
3565.55
3582.4
3600.82
3620.8
3642.33
3665.37
3689.86
3715.72
3742.85
3771.12
3800.37
3830.43
3861.06
3892
3922.95
3953.6
3983.59
4012.56
4040.1
4065.82
4089.33
4110.25
4128.22
4142.93
4154.1
4161.5
4164.96
4164.38
4159.76
4151.16
4138.64
4122.45
4102.83
4080.14
4054.74
4027.04
3997.49
3966.52
3934.55
3902.03
3869.35
3836.88
3804.98
3773.93
3744.01
3715.44
3688.39
3662.98
3639.31
3617.42
3597.36
3579.11
3562.66
3547.97
3534.99
3523.66
3513.9
3505.64
3498.78
3493.25
3488.94
3485.8
3483.79
3482.84
3482.93
3484.02
3486.11
3489.19
3493.28
3498.4
3504.55
3511.75
3520.02
3529.41
3539.94
3551.68
3564.69
3579.04
3594.81
3612.04
3630.82
3651.19
3673.17
3696.78
3721.98
3748.67
3776.68
3805.2
3835.2
3865.94
3897
3927.96
3958.44
3987.99
4016.16
4042.55
4066.75
4088.39
4107.12
4122.66
4134.77
4143.28
4148.08
4149.03
4146.08
4139.37
4129.07
4115.38
4098.6
4079
4056.92
4032.75
4006.85
3979.61
3951.39
3922.55
3893.44
3864.36
3835.58
3807.33
3779.94
3753.61
3727.99
3703.39
3679.89
3657.57
3636.47
3616.62
3598.03
3580.72
3564.7
3549.97
3536.56
3524.46
3513.69
3504.26
3496.18
3489.46
3484.11
3480.14
3477.53
3476.33
3476.54
3478.21
3481.37
3486.02
3844.64
3877.05
3908.7
3939.11
3967.85
3994.37
4018.29
4039.2
4056.77
4070.72
4080.81
4086.86
4088.66
4086.12
4079.44
4068.75
4054.14
4035.86
4014.2
3989.47
3962.08
3932.39
3900.83
3867.84
3833.85
3799.32
3764.67
3730.4
3697.55
3664.95
3633.23
3602.7
3573.62
3546.14
3520.36
3496.38
3474.21
3453.87
3435.37
3418.66
3403.73
3390.53
3379.02
3369.15
3360.89
3354.21
3349.05
3345.41
3343.27
3342.67
3343.55
3345.9
3349.77
3355.2
3362.2
3370.8
3381.04
3392.97
3406.62
3422.01
3439.17
3458.08
3478.77
3501.19
3525.29
3550.99
3578.22
3606.82
3636.67
3667.6
3699.47
3732.63
3765.57
3798.47
3831.11
3863.17
3894.35
3924.31
3952.69
3979.13
4003.3
4024.87
4043.51
4058.95
4070.91
4079.2
4083.65
4084.13
4080.64
4073.21
4061.9
4046.82
4028.18
4006.22
3981.2
3953.47
3923.38
3891.33
3857.74
3823.06
3787.74
3752.23
3716.98
3682.39
3648.84
3616.65
3586.08
3557.33
3530.56
3505.85
3483.25
3462.75
3444.34
3427.94
3413.51
3400.95
3390.19
3381.15
3373.74
3367.9
3363.56
3360.65
3359.13
3358.98
3360.11
3362.51
3366.16
3371.06
3377.2
3384.58
3393.24
3403.19
3414.46
3427.1
3441.15
3456.68
3473.71
3492.31
3512.5
3534.3
3557.7
3582.7
3609.21
3637.15
3666.4
3696.77
3728.07
3760.04
3792.37
3824.75
3856.82
3888.21
3918.51
3947.32
3974.23
3998.84
4020.75
4039.61
4055.1
4066.94
4074.91
4078.84
4078.58
4074.22
4065.79
4053.36
4037.16
4017.45
3994.55
3968.82
3940.68
3910.55
3878.88
3846.12
3812.69
3779.03
3745.51
3712.51
3680.34
3649.26
3619.52
3591.28
3564.7
3539.87
3516.86
3495.68
3476.36
3458.86
3443.16
3429.2
3416.94
3406.3
3397.23
3389.65
3383.5
3378.71
3375.22
3372.98
3371.92
3372.04
3373.34
3375.76
3379.31
3384.02
3389.91
3397
3405.32
3414.93
3425.88
3438.22
3452.01
3467.31
3484.16
3502.57
3522.56
3544.09
3567.13
3591.62
3617.49
3644.62
3672.9
3702.17
3732.24
3762.89
3793.85
3824.83
3855.5
3885.53
3914.53
3942.1
3967.86
3991.4
4012.35
4030.36
4045.09
4056.28
4063.71
4067.19
4066.59
4061.96
4053.35
4040.82
4024.59
4004.95
3982.21
3956.78
3929.04
3899.45
3868.44
3836.44
3803.89
3771.18
3738.69
3706.76
3675.7
3645.77
3617.19
3590.13
3564.72
3541.04
3519.16
3499.1
3480.86
3464.41
3449.73
3436.76
3425.43
3415.68
3407.43
3400.58
3395.05
3390.75
3387.62
3385.6
3384.66
3384.75
3385.84
3387.93
3391.01
3395.1
3400.22
3406.37
3413.56
3421.83
3431.21
3441.74
3453.47
3466.47
3480.82
3496.58
3513.81
3532.58
3552.94
3574.92
3598.53
3623.73
3650.43
3678.45
3706.98
3737
3767.77
3798.86
3829.85
3860.36
3889.95
3918.16
3944.59
3968.82
3990.49
4009.26
4024.82
4036.95
4045.47
4050.27
4051.24
4048.26
4041.55
4031.22
4017.51
4000.7
3981.07
3958.96
3934.75
3908.82
3881.55
3853.3
3824.44
3795.3
3766.2
3737.4
3709.14
3681.74
3655.4
3629.78
3605.17
3581.68
3559.36
3538.26
3518.41
3499.82
3482.51
3466.49
3451.76
3438.35
3426.25
3415.48
3406.05
3397.97
3391.25
3385.9
3381.93
3379.32
3378.12
3378.33
3380
3383.16
3387.8
3746.52
3778.98
3810.69
3841.16
3869.95
3896.52
3920.5
3941.46
3959.08
3973.06
3983.18
3989.24
3991.07
3988.5
3981.82
3971.09
3956.45
3938.13
3916.42
3891.63
3864.18
3834.44
3802.82
3769.77
3735.73
3701.14
3666.45
3632.12
3599.3
3566.67
3534.91
3504.37
3475.27
3447.79
3422.01
3398.03
3375.86
3355.53
3337.03
3320.34
3305.41
3292.22
3280.71
3270.86
3262.6
3255.92
3250.77
3247.13
3245
3244.4
3245.27
3247.62
3251.49
3256.91
3263.91
3272.5
3282.73
3294.66
3308.3
3323.69
3340.84
3359.75
3380.44
3402.86
3426.96
3452.67
3479.9
3508.52
3538.38
3569.32
3601.21
3634.42
3667.39
3700.32
3733
3765.1
3796.33
3826.33
3854.76
3881.25
3905.47
3927.08
3945.77
3961.24
3973.23
3981.55
3986.01
3986.51
3983
3975.56
3964.23
3949.12
3930.44
3908.43
3883.37
3855.58
3825.43
3793.32
3759.68
3724.94
3689.57
3654.01
3618.71
3584.09
3550.5
3518.29
3487.7
3458.95
3432.17
3407.47
3384.87
3364.38
3345.97
3329.59
3315.17
3302.62
3291.88
3282.84
3275.45
3269.62
3265.29
3262.38
3260.87
3260.72
3261.85
3264.25
3267.91
3272.81
3278.94
3286.33
3294.98
3304.92
3316.18
3328.82
3342.86
3358.38
3375.41
3393.99
3414.18
3435.97
3459.38
3484.37
3510.89
3538.84
3568.1
3598.49
3629.83
3661.82
3694.18
3726.6
3758.72
3790.16
3820.52
3849.38
3876.35
3901.01
3922.97
3941.88
3957.41
3969.29
3977.28
3981.22
3980.97
3976.59
3968.14
3955.68
3939.44
3919.68
3896.73
3870.95
3842.75
3812.56
3780.83
3748.01
3714.54
3680.83
3647.28
3614.24
3582.04
3550.94
3521.18
3492.94
3466.35
3441.52
3418.5
3397.34
3378.02
3360.53
3344.84
3330.89
3318.63
3308.01
3298.94
3291.37
3285.23
3280.45
3276.97
3274.73
3273.68
3273.81
3275.1
3277.52
3281.07
3285.78
3291.66
3298.74
3307.06
3316.66
3327.6
3339.93
3353.72
3369.01
3385.85
3404.26
3424.24
3445.77
3468.82
3493.32
3519.19
3546.34
3574.63
3603.91
3634.01
3664.69
3695.68
3726.69
3757.41
3787.49
3816.53
3844.16
3869.97
3893.57
3914.57
3932.62
3947.39
3958.62
3966.06
3969.56
3968.96
3964.33
3955.69
3943.13
3926.86
3907.17
3884.38
3858.89
3831.1
3801.45
3770.38
3738.33
3705.73
3672.98
3640.45
3608.49
3577.4
3547.45
3518.86
3491.79
3466.37
3442.7
3420.82
3400.76
3382.52
3366.09
3351.42
3338.45
3327.14
3317.4
3309.16
3302.32
3296.8
3292.51
3289.39
3287.38
3286.44
3286.53
3287.62
3289.71
3292.79
3296.88
3301.99
3308.14
3315.32
3323.59
3332.96
3343.49
3355.21
3368.2
3382.53
3398.28
3415.5
3434.26
3454.61
3476.59
3500.2
3525.41
3552.12
3580.16
3608.7
3638.75
3669.56
3700.69
3731.74
3762.3
3791.95
3820.21
3846.69
3870.98
3892.7
3911.51
3927.1
3939.26
3947.8
3952.61
3953.59
3950.59
3943.86
3933.5
3919.76
3902.9
3883.22
3861.06
3836.81
3810.83
3783.51
3755.22
3726.31
3697.14
3668.01
3639.18
3610.91
3583.5
3557.14
3531.52
3506.9
3483.41
3461.08
3439.99
3420.14
3401.55
3384.24
3368.22
3353.5
3340.08
3327.98
3317.21
3307.78
3299.71
3292.99
3287.64
3283.66
3281.06
3279.86
3280.06
3281.73
3284.89
3289.54
3648.39
3680.93
3712.71
3743.25
3772.12
3798.77
3822.81
3843.84
3861.52
3875.55
3885.71
3891.78
3893.64
3891.07
3884.36
3873.59
3858.89
3840.52
3818.74
3793.88
3766.36
3736.54
3704.84
3671.72
3637.6
3602.94
3568.18
3533.79
3501
3468.32
3436.53
3405.96
3376.85
3349.35
3323.57
3299.59
3277.43
3257.11
3238.62
3221.94
3207.02
3193.84
3182.34
3172.49
3164.25
3157.57
3152.43
3148.8
3146.67
3146.06
3146.93
3149.28
3153.15
3158.56
3165.55
3174.14
3184.36
3196.28
3209.91
3225.29
3242.43
3261.34
3282.02
3304.45
3328.55
3354.27
3381.51
3410.14
3440.03
3470.99
3502.91
3536.18
3569.18
3602.16
3634.88
3667.04
3698.33
3728.39
3756.88
3783.43
3807.72
3829.39
3848.14
3863.66
3875.7
3884.04
3888.52
3889.03
3885.51
3878.06
3866.7
3851.55
3832.82
3810.75
3785.62
3757.76
3727.53
3695.35
3661.63
3626.81
3591.37
3555.75
3520.39
3485.71
3452.09
3419.84
3389.23
3360.46
3333.68
3308.98
3286.39
3265.91
3247.52
3231.16
3216.75
3204.23
3193.49
3184.47
3177.09
3171.27
3166.95
3164.06
3162.56
3162.41
3163.55
3165.95
3169.61
3174.51
3180.64
3188.02
3196.66
3206.6
3217.85
3230.47
3244.51
3260.01
3277.03
3295.61
3315.78
3337.57
3360.98
3385.97
3412.5
3440.46
3469.74
3500.16
3531.53
3563.56
3595.98
3628.45
3660.63
3692.13
3722.56
3751.5
3778.54
3803.27
3825.3
3844.28
3859.86
3871.78
3879.8
3883.76
3883.53
3879.12
3870.64
3858.14
3841.85
3822.03
3799
3773.15
3744.87
3714.6
3682.8
3649.9
3616.36
3582.6
3548.99
3515.91
3483.67
3452.55
3422.76
3394.51
3367.91
3343.08
3320.07
3298.91
3279.6
3262.12
3246.44
3232.5
3220.26
3209.65
3200.6
3193.04
3186.91
3182.14
3178.67
3176.44
3175.39
3175.53
3176.82
3179.23
3182.78
3187.49
3193.36
3200.44
3208.75
3218.34
3229.26
3241.58
3255.36
3270.64
3287.48
3305.88
3325.86
3347.39
3370.44
3394.94
3420.83
3447.99
3476.3
3505.61
3535.73
3566.45
3597.48
3628.55
3659.33
3689.46
3718.58
3746.28
3772.16
3795.82
3816.89
3835
3849.83
3861.1
3868.57
3872.09
3871.5
3866.85
3858.18
3845.58
3829.26
3809.5
3786.64
3761.07
3733.2
3703.47
3672.33
3640.22
3607.55
3574.74
3542.17
3510.16
3479.04
3449.07
3420.45
3393.37
3367.95
3344.27
3322.4
3302.35
3284.12
3267.69
3253.03
3240.08
3228.78
3219.06
3210.83
3204.01
3198.5
3194.23
3191.11
3189.12
3188.18
3188.28
3189.37
3191.45
3194.53
3198.61
3203.72
3209.86
3217.04
3225.3
3234.67
3245.18
3256.89
3269.87
3284.19
3299.92
3317.13
3335.87
3356.22
3378.19
3401.79
3427.01
3453.74
3481.81
3510.35
3540.45
3571.32
3602.51
3633.62
3664.25
3693.97
3722.31
3748.87
3773.23
3795.01
3813.88
3829.52
3841.72
3850.28
3855.1
3856.09
3853.06
3846.31
3835.91
3822.12
3805.2
3785.46
3763.24
3738.92
3712.87
3685.48
3657.14
3628.18
3598.96
3569.79
3540.93
3512.63
3485.2
3458.83
3433.19
3408.57
3385.07
3362.75
3341.66
3321.81
3303.22
3285.92
3269.9
3255.18
3241.76
3229.66
3218.89
3209.47
3201.39
3194.67
3189.32
3185.34
3182.74
3181.54
3181.74
3183.41
3186.57
3191.21
3550.26
3582.88
3614.76
3645.4
3674.36
3701.1
3725.23
3746.35
3764.09
3778.19
3788.39
3794.49
3796.37
3793.8
3787.05
3776.23
3761.48
3743.03
3721.17
3696.22
3668.6
3638.68
3606.88
3573.67
3539.46
3504.72
3469.86
3435.39
3402.66
3369.92
3338.07
3307.47
3278.34
3250.83
3225.05
3201.07
3178.92
3158.61
3140.13
3123.46
3108.56
3095.39
3083.9
3074.07
3065.83
3059.17
3054.03
3050.41
3048.28
3047.66
3048.53
3050.88
3054.74
3060.15
3067.13
3075.71
3085.92
3097.83
3111.45
3126.82
3143.95
3162.85
3183.53
3205.96
3230.06
3255.8
3283.05
3311.7
3341.61
3372.6
3404.55
3437.9
3470.95
3503.98
3536.76
3568.99
3600.35
3630.49
3659.06
3685.7
3710.06
3731.81
3750.63
3766.21
3778.3
3786.69
3791.19
3791.71
3788.19
3780.71
3769.31
3754.11
3735.32
3713.17
3687.96
3660.01
3629.69
3597.41
3563.59
3528.68
3493.15
3457.44
3422.01
3387.27
3353.59
3321.3
3290.66
3261.88
3235.1
3210.4
3187.82
3167.36
3148.99
3132.64
3118.26
3105.75
3095.04
3086.04
3078.67
3072.87
3068.56
3065.68
3064.19
3064.05
3065.19
3067.6
3071.26
3076.15
3082.28
3089.66
3098.3
3108.22
3119.46
3132.07
3146.1
3161.59
3178.59
3197.15
3217.32
3239.1
3262.5
3287.5
3314.03
3342.02
3371.32
3401.77
3433.18
3465.26
3497.74
3530.28
3562.54
3594.13
3624.64
3653.67
3680.8
3705.62
3727.74
3746.79
3762.45
3774.42
3782.48
3786.46
3786.24
3781.82
3773.3
3760.75
3744.39
3724.49
3701.38
3675.42
3647.04
3616.68
3584.78
3551.8
3518.17
3484.33
3450.66
3417.52
3385.24
3354.08
3324.27
3296
3269.4
3244.56
3221.55
3200.4
3181.1
3163.63
3147.97
3134.05
3121.82
3111.23
3102.19
3094.65
3088.53
3083.78
3080.32
3078.1
3077.06
3077.21
3078.49
3080.9
3084.45
3089.15
3095.02
3102.08
3110.38
3119.96
3130.87
3143.18
3156.94
3172.21
3189.03
3207.43
3227.4
3248.94
3271.99
3296.5
3322.4
3349.58
3377.91
3407.25
3437.41
3468.18
3499.26
3530.39
3561.24
3591.46
3620.66
3648.44
3674.41
3698.16
3719.32
3737.5
3752.4
3763.72
3771.24
3774.78
3774.2
3769.53
3760.83
3748.17
3731.78
3711.94
3688.99
3663.32
3635.35
3605.53
3574.3
3542.1
3509.35
3476.47
3443.84
3411.78
3380.62
3350.61
3321.97
3294.87
3269.44
3245.77
3223.89
3203.85
3185.63
3169.22
3154.57
3141.64
3130.36
3120.66
3112.45
3105.64
3100.15
3095.9
3092.8
3090.82
3089.88
3089.98
3091.07
3093.16
3096.23
3100.31
3105.42
3111.55
3118.72
3126.97
3136.33
3146.83
3158.52
3171.48
3185.78
3201.5
3218.68
3237.41
3257.74
3279.71
3303.31
3328.53
3355.28
3383.4
3411.94
3442.11
3473.04
3504.31
3535.49
3566.22
3596.03
3624.46
3651.11
3675.56
3697.42
3716.36
3732.07
3744.31
3752.91
3757.74
3758.73
3755.69
3748.9
3738.45
3724.6
3707.61
3687.79
3665.48
3641.07
3614.94
3587.48
3559.06
3530.04
3500.76
3471.54
3442.64
3414.31
3386.86
3360.46
3334.82
3310.19
3286.69
3264.36
3243.27
3223.42
3204.84
3187.53
3171.52
3156.8
3143.39
3131.29
3120.52
3111.09
3103.02
3096.3
3090.95
3086.97
3084.37
3083.17
3083.36
3085.04
3088.19
3092.84
3452.12
3484.84
3516.84
3547.59
3576.67
3603.52
3627.76
3648.97
3666.8
3680.97
3691.23
3697.37
3699.27
3696.69
3689.91
3679.03
3664.2
3645.66
3623.7
3598.64
3570.91
3540.87
3508.96
3475.64
3441.32
3406.47
3371.51
3336.94
3304.26
3271.44
3239.54
3208.9
3179.75
3152.23
3126.45
3102.47
3080.33
3060.03
3041.56
3024.91
3010.02
2996.87
2985.4
2975.58
2967.35
2960.7
2955.57
2951.95
2949.83
2949.21
2950.07
2952.42
2956.28
2961.68
2968.65
2977.21
2987.41
2999.31
3012.91
3028.27
3045.39
3064.29
3084.97
3107.39
3131.5
3157.25
3184.52
3213.19
3243.13
3274.15
3306.14
3339.58
3372.69
3405.78
3438.64
3470.95
3502.4
3532.63
3561.3
3588.03
3612.49
3634.33
3653.23
3668.89
3681.05
3689.48
3694.02
3694.55
3691.03
3683.52
3672.07
3656.81
3637.94
3615.7
3590.39
3562.33
3531.9
3499.5
3465.57
3430.55
3394.9
3359.1
3323.57
3288.76
3255.01
3222.68
3192.01
3163.21
3136.42
3111.72
3089.16
3068.71
3050.36
3034.04
3019.68
3007.2
2996.52
2987.54
2980.19
2974.41
2970.12
2967.25
2965.77
2965.63
2966.78
2969.2
2972.86
2977.75
2983.88
2991.25
2999.88
3009.79
3021.02
3033.61
3047.62
3063.09
3080.08
3098.63
3118.78
3140.55
3163.95
3188.95
3215.5
3243.5
3272.83
3303.32
3334.78
3366.93
3399.48
3432.1
3464.45
3496.14
3526.76
3555.9
3583.14
3608.07
3630.29
3649.44
3665.18
3677.22
3685.32
3689.33
3689.12
3684.68
3676.12
3663.5
3647.06
3627.07
3603.84
3577.78
3549.28
3518.79
3486.78
3453.69
3419.96
3386.03
3352.28
3319.08
3286.74
3255.54
3225.7
3197.41
3170.79
3145.95
3122.95
3101.8
3082.52
3065.07
3049.42
3035.53
3023.32
3012.74
3003.72
2996.2
2990.1
2985.36
2981.92
2979.71
2978.68
2978.83
2980.11
2982.53
2986.07
2990.76
2996.62
3003.68
3011.96
3021.53
3032.42
3044.71
3058.45
3073.71
3090.52
3108.91
3128.88
3150.41
3173.47
3197.99
3223.91
3251.1
3279.47
3308.84
3339.05
3369.87
3401.02
3432.23
3463.16
3493.47
3522.77
3550.66
3576.74
3600.6
3621.85
3640.13
3655.11
3666.5
3674.06
3677.62
3677.06
3672.37
3663.62
3650.9
3634.43
3614.49
3591.43
3565.64
3537.56
3507.62
3476.28
3443.97
3411.13
3378.17
3345.46
3313.34
3282.13
3252.07
3223.41
3196.29
3170.85
3147.18
3125.31
3105.27
3087.07
3070.67
3056.05
3043.14
3031.88
3022.2
3014.01
3007.22
3001.76
2997.52
2994.44
2992.47
2991.54
2991.64
2992.74
2994.82
2997.89
3001.97
3007.07
3013.19
3020.35
3028.59
3037.93
3048.42
3060.1
3073.03
3087.31
3103.01
3120.17
3138.88
3159.2
3181.15
3204.75
3229.98
3256.76
3284.92
3313.47
3343.71
3374.73
3406.08
3437.37
3468.2
3498.12
3526.66
3553.42
3577.98
3599.94
3618.97
3634.74
3647.04
3655.68
3660.52
3661.52
3658.47
3651.62
3641.12
3627.19
3610.11
3590.2
3567.79
3543.28
3517.05
3489.5
3460.99
3431.88
3402.54
3373.25
3344.31
3315.95
3288.46
3262.04
3236.38
3211.75
3188.24
3165.92
3144.82
3124.98
3106.4
3089.1
3073.09
3058.37
3044.96
3032.86
3022.09
3012.67
3004.59
2997.87
2992.52
2988.54
2985.94
2984.74
2984.93
2986.61
2989.76
2994.4
3353.97
3386.82
3418.95
3449.83
3479.05
3506.03
3530.38
3551.71
3569.65
3583.91
3594.23
3600.4
3602.33
3599.74
3592.92
3581.97
3567.06
3548.42
3526.34
3501.16
3473.29
3443.11
3411.07
3377.61
3343.17
3308.19
3273.11
3238.41
3205.82
3172.91
3140.93
3110.25
3081.07
3053.54
3027.76
3003.78
2981.65
2961.37
2942.92
2926.28
2911.41
2898.28
2886.82
2877.02
2868.81
2862.16
2857.05
2853.44
2851.32
2850.7
2851.55
2853.9
2857.75
2863.14
2870.1
2878.65
2888.83
2900.71
2914.3
2929.65
2946.76
2965.64
2986.32
3008.74
3032.86
3058.62
3085.92
3114.61
3144.58
3175.65
3207.67
3241.22
3274.4
3307.57
3340.51
3372.92
3404.47
3434.81
3463.59
3490.44
3515.01
3536.96
3555.96
3571.71
3583.94
3592.43
3597
3597.54
3594.02
3586.48
3574.97
3559.64
3540.68
3518.34
3492.91
3464.72
3434.16
3401.63
3367.55
3332.4
3296.63
3260.71
3225.08
3190.17
3156.36
3123.97
3093.26
3064.44
3037.64
3012.95
2990.4
2969.98
2951.65
2935.36
2921.03
2908.58
2897.92
2888.97
2881.65
2875.89
2871.61
2868.76
2867.3
2867.17
2868.33
2870.75
2874.41
2879.3
2885.42
2892.79
2901.4
2911.3
2922.52
2935.1
2949.08
2964.53
2981.5
3000.03
3020.17
3041.93
3065.33
3090.33
3116.89
3144.91
3174.28
3204.82
3236.33
3268.55
3301.19
3333.91
3366.36
3398.16
3428.91
3458.18
3485.55
3510.6
3532.95
3552.21
3568.05
3580.16
3588.33
3592.36
3592.16
3587.71
3579.08
3566.4
3549.86
3529.75
3506.41
3480.2
3451.57
3420.94
3388.79
3355.58
3321.74
3287.7
3253.86
3220.58
3188.17
3156.92
3127.05
3098.73
3072.11
3047.26
3024.26
3003.13
2983.86
2966.43
2950.81
2936.93
2924.75
2914.19
2905.2
2897.69
2891.62
2886.9
2883.47
2881.27
2880.26
2880.41
2881.7
2884.1
2887.65
2892.33
2898.18
2905.22
2913.49
2923.04
2933.91
2946.18
2959.9
2975.14
2991.94
3010.32
3030.29
3051.82
3074.88
3099.42
3125.35
3152.57
3180.96
3210.38
3240.64
3271.53
3302.76
3334.05
3365.09
3395.51
3424.92
3452.94
3479.14
3503.12
3524.49
3542.88
3557.95
3569.42
3577.04
3580.63
3580.08
3575.37
3566.57
3553.78
3537.2
3517.15
3493.96
3468.04
3439.82
3409.74
3378.27
3345.84
3312.89
3279.83
3247.03
3214.84
3183.57
3153.47
3124.77
3097.63
3072.18
3048.51
3026.64
3006.62
2988.43
2972.06
2957.45
2944.56
2933.33
2923.67
2915.51
2908.75
2903.31
2899.1
2896.04
2894.08
2893.16
2893.27
2894.37
2896.45
2899.51
2903.58
2908.67
2914.79
2921.94
2930.17
2939.5
2949.96
2961.62
2974.53
2988.78
3004.45
3021.59
3040.28
3060.57
3082.52
3106.12
3131.36
3158.16
3186.39
3214.93
3245.27
3276.38
3307.84
3339.23
3370.19
3400.24
3428.91
3455.8
3480.48
3502.56
3521.69
3537.55
3549.91
3558.59
3563.46
3564.46
3561.38
3554.49
3543.91
3529.89
3512.72
3492.7
3470.17
3445.55
3419.2
3391.53
3362.92
3333.72
3304.29
3274.94
3245.94
3217.53
3190.02
3163.57
3137.9
3113.25
3089.74
3067.41
3046.32
3026.48
3007.9
2990.6
2974.6
2959.88
2946.48
2934.38
2923.61
2914.19
2906.11
2899.39
2894.04
2890.06
2887.46
2886.26
2886.45
2888.12
2891.27
2895.91
3255.81
3288.8
3321.08
3352.12
3381.49
3408.62
3433.12
3454.58
3472.63
3486.99
3497.38
3503.61
3505.55
3502.96
3496.09
3485.07
3470.05
3451.3
3429.09
3403.76
3375.73
3345.4
3313.2
3279.6
3245
3209.89
3174.67
3139.83
3107.34
3074.31
3042.25
3011.52
2982.31
2954.77
2928.98
2905.01
2882.89
2862.62
2844.19
2827.57
2812.73
2799.61
2788.18
2778.39
2770.2
2763.57
2758.47
2754.86
2752.75
2752.13
2752.98
2755.33
2759.17
2764.55
2771.49
2780.02
2790.19
2802.05
2815.62
2830.95
2848.05
2866.92
2887.59
2910.02
2934.15
2959.92
2987.24
3015.96
3045.97
3077.08
3109.16
3142.83
3176.08
3209.33
3242.38
3274.89
3306.56
3337.03
3365.93
3392.91
3417.61
3439.68
3458.8
3474.65
3486.97
3495.52
3500.13
3500.7
3497.17
3489.59
3478.02
3462.61
3443.55
3421.08
3395.52
3367.19
3336.47
3303.78
3269.56
3234.25
3198.34
3162.28
3126.53
3091.52
3057.62
3025.16
2994.41
2965.57
2938.77
2914.08
2891.55
2871.15
2852.86
2836.6
2822.31
2809.89
2799.26
2790.34
2783.05
2777.31
2773.05
2770.22
2768.77
2768.65
2769.82
2772.25
2775.91
2780.8
2786.92
2794.27
2802.88
2812.76
2823.96
2836.52
2850.48
2865.91
2882.86
2901.37
2921.48
2943.24
2966.62
2991.63
3018.2
3046.26
3075.66
3106.25
3137.83
3170.14
3202.87
3235.7
3268.28
3300.21
3331.1
3360.51
3388.03
3413.23
3435.72
3455.11
3471.05
3483.26
3491.49
3495.56
3495.36
3490.89
3482.21
3469.44
3452.8
3432.56
3409.07
3382.71
3353.91
3323.13
3290.83
3257.46
3223.49
3189.33
3155.38
3122.02
3089.54
3058.23
3028.32
2999.97
2973.33
2948.49
2925.5
2904.37
2885.12
2867.72
2852.11
2838.26
2826.11
2815.58
2806.61
2799.13
2793.08
2788.38
2784.97
2782.79
2781.79
2781.95
2783.23
2785.64
2789.17
2793.85
2799.69
2806.72
2814.97
2824.5
2835.35
2847.59
2861.29
2876.51
2893.29
2911.66
2931.62
2953.16
2976.23
3000.77
3026.72
3053.97
3082.4
3111.87
3142.19
3173.15
3204.47
3235.86
3267.01
3297.56
3327.11
3355.27
3381.61
3405.73
3427.24
3445.75
3460.93
3472.49
3480.17
3483.8
3483.26
3478.53
3469.67
3456.79
3440.11
3419.92
3396.58
3370.5
3342.12
3311.89
3280.27
3247.71
3214.63
3181.46
3148.56
3116.29
3084.94
3054.79
3026.05
2998.89
2973.43
2949.75
2927.9
2907.89
2889.72
2873.36
2858.78
2845.92
2834.72
2825.09
2816.96
2810.23
2804.82
2800.63
2797.6
2795.66
2794.75
2794.86
2795.96
2798.03
2801.09
2805.16
2810.24
2816.34
2823.48
2831.7
2841.01
2851.45
2863.08
2875.97
2890.19
2905.83
2922.94
2941.6
2961.88
2983.8
3007.4
3032.66
3059.49
3087.79
3116.32
3146.77
3177.99
3209.56
3241.09
3272.19
3302.39
3331.21
3358.25
3383.07
3405.28
3424.53
3440.49
3452.93
3461.66
3466.55
3467.55
3464.45
3457.49
3446.84
3432.72
3415.43
3395.28
3372.62
3347.86
3321.38
3293.59
3264.85
3235.55
3206.03
3176.59
3147.52
3119.08
3091.52
3065.04
3039.35
3014.69
2991.18
2968.85
2947.76
2927.92
2909.35
2892.06
2876.05
2861.34
2847.94
2835.84
2825.08
2815.65
2807.57
2800.85
2795.5
2791.52
2788.92
2787.72
2787.91
2789.58
2792.73
2797.36
3157.64
3190.79
3223.25
3254.46
3284.01
3311.3
3335.95
3357.56
3375.75
3390.22
3400.7
3406.98
3408.94
3406.34
3399.42
3388.31
3373.19
3354.31
3331.94
3306.44
3278.25
3247.74
3215.36
3181.59
3146.83
3111.56
3076.18
3041.17
3008.8
2975.64
2943.49
2912.71
2883.47
2855.91
2830.12
2806.16
2784.05
2763.8
2745.39
2728.79
2713.97
2700.88
2689.48
2679.71
2671.53
2664.92
2659.82
2656.23
2654.13
2653.5
2654.35
2656.69
2660.52
2665.89
2672.82
2681.33
2691.47
2703.32
2716.87
2732.17
2749.26
2768.12
2788.79
2811.22
2835.35
2861.14
2888.48
2917.25
2947.29
2978.45
3010.58
3044.4
3077.74
3111.08
3144.24
3176.88
3208.68
3239.28
3268.34
3295.46
3320.3
3342.52
3361.77
3377.73
3390.14
3398.77
3403.43
3404.01
3400.48
3392.85
3381.22
3365.71
3346.53
3323.93
3298.21
3269.72
3238.83
3205.97
3171.57
3136.09
3100.01
3063.8
3027.92
2992.79
2958.8
2926.27
2895.47
2866.6
2839.79
2815.11
2792.6
2772.23
2753.97
2737.75
2723.5
2711.12
2700.53
2691.64
2684.38
2678.66
2674.43
2671.63
2670.19
2670.09
2671.27
2673.7
2677.36
2682.25
2688.37
2695.71
2704.3
2714.17
2725.35
2737.88
2751.82
2767.22
2784.14
2802.63
2822.73
2844.46
2867.85
2892.86
2919.45
2947.53
2976.98
3007.63
3039.28
3071.68
3104.52
3137.47
3170.19
3202.28
3233.32
3262.9
3290.59
3315.96
3338.6
3358.13
3374.2
3386.51
3394.82
3398.93
3398.74
3394.24
3385.49
3372.63
3355.86
3335.48
3311.82
3285.29
3256.31
3225.35
3192.87
3159.35
3125.22
3090.93
3056.86
3023.39
2990.84
2959.46
2929.5
2901.13
2874.48
2849.63
2826.64
2805.54
2786.3
2768.92
2753.35
2739.53
2727.4
2716.9
2707.96
2700.51
2694.48
2689.81
2686.43
2684.26
2683.28
2683.44
2684.73
2687.13
2690.66
2695.33
2701.15
2708.17
2716.4
2725.9
2736.72
2748.94
2762.61
2777.81
2794.57
2812.93
2832.88
2854.42
2877.5
2902.06
2928.03
2955.31
2983.78
3013.3
3043.69
3074.74
3106.15
3137.66
3168.94
3199.63
3229.33
3257.65
3284.15
3308.44
3330.09
3348.75
3364.05
3375.71
3383.46
3387.13
3386.6
3381.85
3372.92
3359.95
3343.14
3322.8
3299.29
3273.04
3244.48
3214.08
3182.29
3149.57
3116.35
3083.05
3050.04
3017.67
2986.25
2956.04
2927.26
2900.07
2874.6
2850.92
2829.07
2809.07
2790.92
2774.59
2760.04
2747.21
2736.04
2726.45
2718.35
2711.65
2706.27
2702.12
2699.11
2697.19
2696.29
2696.4
2697.51
2699.58
2702.63
2706.69
2711.76
2717.85
2724.98
2733.18
2742.47
2752.89
2764.5
2777.35
2791.54
2807.14
2824.22
2842.85
2863.1
2885.02
2908.61
2933.87
2960.75
2989.13
3017.64
3048.22
3079.56
3111.27
3142.94
3174.2
3204.57
3233.56
3260.77
3285.75
3308.11
3327.49
3343.56
3356.08
3364.87
3369.79
3370.79
3367.66
3360.64
3349.89
3335.66
3318.24
3297.95
3275.14
3250.22
3223.59
3195.65
3166.79
3137.37
3107.74
3078.21
3049.07
3020.57
2992.98
2966.46
2940.75
2916.08
2892.56
2870.23
2849.13
2829.3
2810.74
2793.45
2777.45
2762.75
2749.34
2737.25
2726.49
2717.06
2708.98
2702.26
2696.91
2692.93
2690.33
2689.12
2689.31
2690.98
2694.13
2698.76
3059.46
3092.79
3125.44
3156.85
3186.59
3214.06
3238.89
3260.67
3279.01
3293.61
3304.18
3310.52
3312.5
3309.89
3302.91
3291.71
3276.46
3257.43
3234.9
3209.22
3180.83
3150.13
3117.55
3083.59
3048.66
3013.21
2977.65
2942.44
2910.23
2876.9
2844.66
2813.81
2784.54
2756.97
2731.17
2707.22
2685.12
2664.89
2646.51
2629.94
2615.15
2602.08
2590.7
2580.95
2572.8
2566.2
2561.12
2557.54
2555.44
2554.82
2555.66
2558
2561.82
2567.17
2574.08
2582.57
2592.69
2604.51
2618.04
2633.33
2650.39
2669.24
2689.9
2712.33
2736.48
2762.29
2789.66
2818.46
2848.55
2879.77
2911.95
2945.94
2979.36
3012.81
3046.09
3078.87
3110.82
3141.58
3170.79
3198.08
3223.09
3245.46
3264.85
3280.95
3293.46
3302.17
3306.88
3307.49
3303.94
3296.27
3284.56
3268.95
3249.64
3226.89
3201
3172.33
3141.25
3108.19
3073.59
3037.93
3001.66
2965.28
2929.25
2893.99
2859.89
2827.29
2796.44
2767.54
2740.72
2716.05
2693.56
2673.22
2655
2638.82
2624.61
2612.28
2601.73
2592.88
2585.65
2579.96
2575.76
2572.98
2571.56
2571.47
2572.66