/*--------------------------------*- C++ -*----------------------------------*\
| =========                 |                                                 |
| \\      /  F ield         | OpenFOAM: The Open Source CFD Toolbox           |
|  \\    /   O peration     | Version:  3.0.1                                 |
|   \\  /    A nd           | Web:      www.OpenFOAM.org                      |
|    \\/     M anipulation  |                                                 |
\*---------------------------------------------------------------------------*/
FoamFile
{
    version     2.0;
    format      ascii;
    class       volScalarField;
    location    "29.6";
    object      p_rgh;
}
// * * * * * * * * * * * * * * * * * * * * * * * * * * * * * * * * * * * * * //

dimensions      [1 -1 -2 0 0 0 0];

internalField   nonuniform List<scalar> 
22680
(
-367.036
-364.032
-359.95
-354.754
-348.398
-340.839
-332.024
-321.916
-310.46
-297.628
-283.368
-267.664
-250.478
-231.799
-211.626
-189.963
-166.826
-142.274
-116.335
-89.079
-60.4363
-30.1813
3.64125
35.6641
67.9861
100.421
132.96
165.254
197.134
228.194
258.193
286.738
313.568
338.358
360.845
380.854
398.179
412.685
424.251
432.804
438.301
440.681
440.35
436.985
430.612
421.352
409.293
394.58
377.367
357.842
336.205
312.661
287.464
260.84
233.034
204.269
174.777
144.757
114.42
84.0498
54.2122
24.3724
-5.10094
-34.0526
-62.3255
-89.8103
-116.39
-141.979
-166.489
-189.854
-212.003
-232.886
-252.457
-270.675
-287.509
-302.931
-316.926
-329.482
-340.594
-350.261
-358.492
-365.292
-370.678
-374.666
-377.263
-378.479
-378.331
-376.866
-374.094
-370.02
-364.675
-358.066
-350.205
-341.114
-330.797
-319.267
-306.533
-292.616
-277.521
-261.273
-243.876
-225.349
-205.709
-184.98
-163.174
-140.323
-116.453
-91.6123
-65.8356
-39.1891
-11.7355
16.4811
45.198
74.3503
103.788
133.345
162.83
192.036
220.735
248.695
275.665
301.397
325.636
348.133
368.642
386.933
402.786
416.004
426.415
433.875
438.241
439.483
437.545
432.425
424.138
412.78
398.466
381.347
361.613
339.485
315.208
289.048
261.291
232.231
202.166
171.397
140.215
108.902
77.7168
46.8874
16.6553
-12.8067
-41.337
-68.8029
-95.1009
-120.151
-143.896
-166.304
-187.358
-207.058
-225.415
-242.45
-258.194
-272.68
-285.943
-298.02
-308.942
-318.736
-327.433
-335.059
-341.622
-347.13
-351.588
-355.011
-357.387
-358.706
-358.955
-358.115
-356.161
-353.053
-348.76
-343.241
-336.452
-328.35
-318.898
-308.07
-295.837
-282.188
-267.116
-250.626
-232.731
-213.452
-192.82
-170.869
-147.652
-123.22
-97.6468
-71.0128
-43.4126
-14.9628
14.2006
43.9478
74.1339
104.479
134.805
164.911
194.583
223.591
251.705
278.687
304.307
328.339
350.578
370.827
388.922
404.717
418.11
429.018
437.322
443.164
446.692
447.856
447.198
445.238
442.11
-367.095
-364.093
-360.013
-354.821
-348.467
-340.911
-332.101
-321.996
-310.542
-297.713
-283.455
-267.753
-250.569
-231.891
-211.719
-190.055
-166.917
-142.363
-116.421
-89.1636
-60.5197
-30.267
3.59201
35.6194
67.948
100.393
132.945
165.255
197.153
228.231
258.251
286.814
313.663
338.471
360.972
380.994
398.331
412.845
424.419
432.976
438.475
440.862
440.516
437.149
430.772
421.504
409.434
394.71
377.483
357.944
336.292
312.733
287.522
260.883
233.063
204.284
174.78
144.749
114.403
84.024
54.1758
24.3293
-5.15009
-34.1072
-62.3849
-89.8739
-116.457
-142.049
-166.561
-189.929
-212.08
-232.965
-252.537
-270.756
-287.591
-303.014
-317.009
-329.565
-340.676
-350.343
-358.573
-365.372
-370.757
-374.744
-377.34
-378.555
-378.406
-376.94
-374.167
-370.092
-364.747
-358.137
-350.277
-341.185
-330.868
-319.338
-306.604
-292.687
-277.592
-261.345
-243.947
-225.421
-205.781
-185.052
-163.246
-140.395
-116.524
-91.6821
-65.9036
-39.2541
-11.7953
16.426
45.1504
74.3108
103.758
133.326
162.823
192.042
220.756
248.731
275.716
301.464
325.719
348.232
368.756
387.061
402.927
416.156
426.576
434.043
438.419
439.656
437.718
432.595
424.304
412.937
398.612
381.481
361.732
339.588
315.294
289.116
261.341
232.262
202.18
171.394
140.196
108.868
77.67
46.83
16.5881
-12.8816
-41.4178
-68.8881
-95.1887
-120.24
-143.986
-166.393
-187.445
-207.143
-225.497
-242.53
-258.271
-272.755
-286.015
-298.089
-309.009
-318.802
-327.498
-335.122
-341.685
-347.191
-351.65
-355.074
-357.451
-358.77
-359.021
-358.182
-356.23
-353.124
-348.833
-343.317
-336.531
-328.431
-318.981
-308.155
-295.922
-282.275
-267.202
-250.713
-232.818
-213.537
-192.905
-170.952
-147.733
-123.298
-97.7219
-71.0838
-43.479
-15.0238
14.1469
43.9019
74.0972
104.453
134.79
164.908
194.593
223.615
251.743
278.739
304.374
328.42
350.672
370.933
389.038
404.84
418.239
429.147
437.527
443.306
446.788
447.91
447.23
445.157
441.285
-367.212
-364.215
-360.141
-354.954
-348.607
-341.057
-332.253
-322.154
-310.707
-297.883
-283.63
-267.932
-250.751
-232.075
-211.904
-190.239
-167.099
-142.541
-116.594
-89.3324
-60.6863
-30.4368
3.49225
35.5297
67.8716
100.336
132.915
165.257
197.191
228.307
258.365
286.967
313.853
338.695
361.226
381.275
398.634
413.167
424.754
433.321
438.823
441.22
440.85
437.478
431.091
421.808
409.717
394.968
377.715
358.148
336.467
312.877
287.637
260.969
233.121
204.316
174.787
144.735
114.37
83.972
54.103
24.2432
-5.24843
-34.2165
-62.5037
-90.001
-116.591
-142.189
-166.707
-190.079
-212.234
-233.122
-252.698
-270.918
-287.755
-303.179
-317.174
-329.73
-340.841
-350.506
-358.734
-365.532
-370.915
-374.899
-377.493
-378.706
-378.556
-377.087
-374.312
-370.236
-364.89
-358.279
-350.418
-341.326
-331.008
-319.478
-306.743
-292.827
-277.732
-261.485
-244.087
-225.561
-205.921
-185.193
-163.386
-140.534
-116.661
-91.8155
-66.033
-39.3771
-11.9077
16.3237
45.063
74.2398
103.706
133.296
162.817
192.063
220.805
248.81
275.826
301.606
325.892
348.437
368.99
387.323
403.214
416.466
426.905
434.385
438.778
440.009
438.072
432.943
424.641
413.258
398.911
381.754
361.976
339.799
315.471
289.258
261.446
232.331
202.213
171.393
140.164
108.807
77.5829
46.7212
16.46
-13.0249
-41.573
-69.0518
-95.3577
-120.412
-144.158
-166.563
-187.613
-207.307
-225.656
-242.683
-258.419
-272.897
-286.151
-298.221
-309.137
-318.926
-327.62
-335.242
-341.804
-347.306
-351.768
-355.192
-357.57
-358.891
-359.144
-358.308
-356.359
-353.258
-348.973
-343.462
-336.68
-328.584
-319.139
-308.316
-296.086
-282.439
-267.367
-250.877
-232.981
-213.699
-193.064
-171.108
-147.885
-123.445
-97.8628
-71.2165
-43.6024
-15.1362
14.0486
43.8197
74.0335
104.409
134.769
164.911
194.622
223.671
251.827
278.853
304.516
328.59
350.868
371.153
389.279
405.096
418.506
429.415
437.784
443.581
447
448.053
447.29
445.137
440.903
-367.389
-364.399
-360.333
-355.155
-348.816
-341.276
-332.481
-322.392
-310.953
-298.138
-283.893
-268.201
-251.025
-232.352
-212.182
-190.515
-167.371
-142.807
-116.853
-89.5855
-60.936
-30.6911
3.34204
35.3947
67.7561
100.25
132.87
165.259
197.247
228.42
258.537
287.197
314.139
339.032
361.608
381.696
399.089
413.65
425.257
433.837
439.345
441.75
441.359
437.973
431.571
422.263
410.141
395.356
378.063
358.454
336.728
313.094
287.809
261.098
233.208
204.363
174.798
144.713
114.319
83.8938
53.9937
24.1139
-5.39604
-34.3805
-62.682
-90.1917
-116.792
-142.4
-166.925
-190.304
-212.465
-233.359
-252.938
-271.162
-288.001
-303.426
-317.422
-329.977
-341.087
-350.751
-358.977
-365.772
-371.151
-375.132
-377.721
-378.936
-378.781
-377.308
-374.53
-370.452
-365.104
-358.492
-350.63
-341.537
-331.219
-319.688
-306.953
-293.036
-277.942
-261.695
-244.297
-225.772
-206.132
-185.403
-163.596
-140.742
-116.866
-92.0154
-66.2268
-39.5613
-12.0766
16.1712
44.9326
74.1338
103.628
133.251
162.809
192.095
220.88
248.93
275.993
301.82
326.154
348.745
369.343
387.718
403.648
416.932
427.399
434.899
439.311
440.546
438.606
433.466
425.148
413.74
399.361
382.165
362.343
340.118
315.738
289.471
261.604
232.435
202.264
171.393
140.116
108.716
77.4529
46.558
16.2684
-13.2395
-41.8053
-69.2969
-95.6109
-120.669
-144.416
-166.819
-187.865
-207.552
-225.894
-242.913
-258.64
-273.109
-286.356
-298.418
-309.327
-319.113
-327.802
-335.421
-341.98
-347.48
-351.944
-355.368
-357.747
-359.072
-359.328
-358.498
-356.554
-353.459
-349.181
-343.678
-336.903
-328.814
-319.375
-308.556
-296.33
-282.685
-267.614
-251.123
-233.226
-213.94
-193.302
-171.341
-148.112
-123.665
-98.0734
-71.4148
-43.7868
-15.3044
13.9009
43.6972
73.9392
104.346
134.738
164.916
194.666
223.756
251.955
279.023
304.73
328.846
351.163
371.483
389.64
405.481
418.908
429.825
438.181
443.991
447.369
448.316
447.367
445.017
440.314
-367.624
-364.644
-360.588
-355.421
-349.095
-341.568
-332.786
-322.709
-311.283
-298.478
-284.243
-268.56
-251.391
-232.722
-212.553
-190.884
-167.735
-143.163
-117.199
-89.9227
-61.2686
-31.0306
3.14206
35.214
67.601
100.134
132.808
165.261
197.322
228.57
258.767
287.503
314.519
339.481
362.117
382.259
399.697
414.294
425.928
434.526
440.042
442.448
442.045
438.637
432.213
422.871
410.706
395.874
378.527
358.861
337.077
313.382
288.038
261.269
233.323
204.426
174.811
144.683
114.252
83.7888
53.8479
23.9414
-5.59306
-34.5995
-62.92
-90.4462
-117.061
-142.681
-167.217
-190.604
-212.774
-233.674
-253.259
-271.487
-288.329
-303.756
-317.753
-330.307
-341.416
-351.078
-359.3
-366.092
-371.467
-375.442
-378.027
-379.243
-379.08
-377.602
-374.82
-370.739
-365.389
-358.776
-350.913
-341.819
-331.5
-319.968
-307.233
-293.316
-278.222
-261.975
-244.577
-226.053
-206.413
-185.683
-163.876
-141.019
-117.14
-92.2821
-66.4856
-39.8073
-12.3035
15.9684
44.7586
73.9922
103.525
133.191
162.798
192.137
220.979
249.09
276.215
302.106
326.502
349.156
369.814
388.246
404.225
417.555
428.058
435.585
440.017
441.265
439.321
434.166
425.825
414.383
399.961
382.713
362.833
340.543
316.093
289.755
261.815
232.573
202.331
171.392
140.052
108.594
77.2795
46.3396
16.0123
-13.5262
-42.1155
-69.6241
-95.9489
-121.012
-144.76
-167.161
-188.2
-207.879
-226.211
-243.219
-258.934
-273.392
-286.629
-298.681
-309.581
-319.361
-328.045
-335.659
-342.214
-347.715
-352.178
-355.603
-357.985
-359.312
-359.573
-358.75
-356.813
-353.727
-349.459
-343.966
-337.2
-329.12
-319.69
-308.877
-296.655
-283.013
-267.943
-251.452
-233.552
-214.263
-193.62
-171.652
-148.416
-123.959
-98.3544
-71.6796
-44.0331
-15.529
13.7029
43.5331
73.814
104.261
134.697
164.923
194.724
223.869
252.125
279.251
305.016
329.187
351.557
371.925
390.122
405.997
419.446
430.371
438.723
444.51
447.841
448.727
447.562
444.934
439.759
-367.917
-364.949
-360.907
-355.755
-349.444
-341.933
-333.166
-323.105
-311.694
-298.903
-284.68
-269.008
-251.847
-233.184
-213.016
-191.345
-168.19
-143.608
-117.631
-90.3441
-61.6844
-31.4575
2.89415
34.9871
67.4054
99.9878
132.73
165.263
197.414
228.758
259.053
287.886
314.994
340.042
362.754
382.962
400.456
415.099
426.769
435.389
440.915
443.317
442.905
439.47
433.017
423.631
411.414
396.521
379.107
359.371
337.513
313.742
288.324
261.483
233.467
204.504
174.828
144.645
114.167
83.6564
53.6655
23.7257
-5.83968
-34.8736
-63.2179
-90.7646
-117.397
-143.032
-167.581
-190.98
-213.159
-234.068
-253.66
-271.894
-288.739
-304.169
-318.167
-330.721
-341.827
-351.486
-359.705
-366.492
-371.861
-375.829
-378.409
-379.624
-379.453
-377.969
-375.182
-371.099
-365.746
-359.131
-351.267
-342.171
-331.851
-320.319
-307.583
-293.665
-278.573
-262.325
-244.927
-226.404
-206.764
-186.034
-164.225
-141.366
-117.482
-92.6162
-66.8094
-40.1155
-12.5891
15.7155
44.5406
73.8145
103.395
133.116
162.783
192.189
221.103
249.289
276.492
302.462
326.938
349.67
370.403
388.905
404.948
418.334
428.883
436.444
440.899
442.163
440.215
435.041
426.671
415.188
400.711
383.399
363.445
341.074
316.538
290.11
262.079
232.746
202.415
171.391
139.972
108.44
77.062
46.0654
15.6913
-13.8854
-42.5042
-70.0339
-96.3721
-121.442
-145.191
-167.588
-188.619
-208.288
-226.607
-243.602
-259.302
-273.745
-286.969
-299.009
-309.899
-319.67
-328.348
-335.956
-342.507
-348.008
-352.471
-355.897
-358.281
-359.612
-359.88
-359.064
-357.136
-354.062
-349.806
-344.325
-337.572
-329.504
-320.083
-309.279
-297.062
-283.424
-268.354
-251.863
-233.96
-214.666
-194.017
-172.042
-148.795
-124.327
-98.7061
-72.0114
-44.3415
-15.8104
13.4537
43.327
73.6575
104.154
134.645
164.931
194.797
224.01
252.337
279.535
305.372
329.614
352.049
372.477
390.726
406.642
420.12
431.056
439.404
445.168
448.432
449.25
447.826
444.848
439.224
-368.27
-365.316
-361.29
-356.155
-349.862
-342.371
-333.623
-323.581
-312.188
-299.414
-285.206
-269.547
-252.396
-233.738
-213.573
-191.899
-168.736
-144.143
-118.149
-90.8495
-62.1839
-31.9747
2.60096
34.7133
67.168
99.8101
132.634
165.263
197.524
228.982
259.396
288.345
315.565
340.717
363.519
383.806
401.369
416.067
427.778
436.426
441.963
444.361
443.937
440.471
433.982
424.543
412.264
397.297
379.804
359.982
338.036
314.174
288.667
261.739
233.639
204.596
174.846
144.598
114.064
83.496
53.4467
23.4666
-6.13614
-35.2031
-63.5759
-91.1471
-117.801
-143.454
-168.018
-191.431
-213.622
-234.541
-254.141
-272.382
-289.232
-304.665
-318.664
-331.216
-342.321
-351.976
-360.19
-366.971
-372.335
-376.295
-378.869
-380.08
-379.901
-378.41
-375.617
-371.53
-366.175
-359.557
-351.691
-342.594
-332.272
-320.739
-308.003
-294.084
-278.993
-262.744
-245.347
-226.825
-207.186
-186.456
-164.645
-141.783
-117.893
-93.018
-67.1983
-40.4861
-12.934
15.4121
44.2783
73.6002
103.237
133.024
162.765
192.251
221.251
249.527
276.824
302.89
327.461
350.286
371.11
389.696
405.816
419.269
429.874
437.477
441.961
443.241
441.288
436.094
427.689
416.155
401.613
384.223
364.181
341.712
317.072
290.535
262.395
232.952
202.514
171.388
139.873
108.255
76.7996
45.7349
15.3047
-14.3178
-42.9718
-70.5268
-96.881
-121.959
-145.708
-168.101
-189.123
-208.779
-227.083
-244.061
-259.744
-274.17
-287.378
-299.403
-310.28
-320.042
-328.712
-336.313
-342.859
-348.359
-352.822
-356.249
-358.637
-359.973
-360.248
-359.441
-357.524
-354.464
-350.223
-344.757
-338.019
-329.965
-320.556
-309.761
-297.551
-283.916
-268.849
-252.356
-234.449
-215.151
-194.494
-172.51
-149.251
-124.768
-99.1287
-72.4105
-44.7125
-16.1487
13.1541
43.0777
73.4691
104.026
134.582
164.94
194.883
224.178
252.591
279.876
305.8
330.126
352.64
373.141
391.452
407.418
420.93
431.882
440.225
445.962
449.142
449.856
448.213
444.855
438.735
-368.681
-365.744
-361.737
-356.622
-350.351
-342.881
-334.156
-324.136
-312.764
-300.01
-285.82
-270.175
-253.036
-234.386
-214.224
-192.546
-169.373
-144.766
-118.755
-91.4388
-62.7695
-32.5836
2.26571
34.3916
66.8874
99.5995
132.52
165.262
197.651
229.244
259.796
288.881
316.231
341.504
364.412
384.793
402.434
417.197
428.958
437.636
443.188
445.583
445.141
441.642
435.109
425.609
413.256
398.204
380.617
360.695
338.645
314.678
289.066
262.036
233.838
204.703
174.867
144.541
113.941
83.3075
53.1917
23.1637
-6.48276
-35.5881
-63.9943
-91.594
-118.272
-143.946
-168.529
-191.957
-214.163
-235.093
-254.703
-272.951
-289.807
-305.243
-319.243
-331.795
-342.897
-352.548
-360.757
-367.531
-372.887
-376.839
-379.405
-380.612
-380.422
-378.924
-376.124
-372.034
-366.674
-360.054
-352.186
-343.087
-332.763
-321.229
-308.493
-294.574
-279.483
-263.234
-245.838
-227.317
-207.678
-186.948
-165.135
-142.27
-118.374
-93.4878
-67.6525
-40.9198
-13.3385
15.0575
43.971
73.3488
103.052
132.915
162.742
192.322
221.422
249.804
277.211
303.389
328.071
351.006
371.935
390.62
406.83
420.362
431.031
438.685
443.201
444.499
442.542
437.324
428.878
417.284
402.667
385.186
365.039
342.457
317.695
291.032
262.763
233.191
202.629
171.384
139.757
108.037
76.4907
45.3485
14.8518
-14.8241
-43.5191
-71.1034
-97.4762
-122.563
-146.314
-168.7
-189.712
-209.353
-227.639
-244.597
-260.26
-274.666
-287.855
-299.863
-310.725
-320.475
-329.136
-336.729
-343.27
-348.768
-353.231
-356.66
-359.051
-360.393
-360.677
-359.881
-357.978
-354.933
-350.709
-345.261
-338.54
-330.502
-321.108
-310.324
-298.122
-284.492
-269.426
-252.931
-235.021
-215.716
-195.051
-173.056
-149.784
-125.283
-99.6224
-72.8772
-45.1466
-16.5443
12.8041
42.784
73.2483
103.875
134.508
164.949
194.982
224.373
252.886
280.274
306.298
330.723
353.33
373.915
392.3
408.325
421.878
432.849
441.188
446.89
449.984
450.562
448.706
444.946
438.315
-369.15
-366.233
-362.247
-357.155
-350.909
-343.464
-334.765
-324.771
-313.423
-300.691
-286.521
-270.894
-253.768
-235.127
-214.969
-193.286
-170.102
-145.479
-119.447
-92.1115
-63.4426
-33.2874
1.89223
34.0206
66.5615
99.3546
132.386
165.257
197.793
229.541
260.253
289.494
316.994
342.405
365.434
385.922
403.654
418.491
430.308
439.022
444.589
446.98
446.521
442.982
436.399
426.828
414.391
399.241
381.547
361.51
339.341
315.253
289.522
262.374
234.064
204.823
174.889
144.474
113.796
83.0921
52.9007
22.8168
-6.8799
-36.0292
-64.4733
-92.1057
-118.812
-144.51
-169.113
-192.559
-214.781
-235.725
-255.345
-273.603
-290.465
-305.905
-319.907
-332.457
-343.555
-353.202
-361.404
-368.172
-373.518
-377.461
-380.018
-381.216
-381.018
-379.51
-376.705
-372.609
-367.245
-360.622
-352.752
-343.651
-333.325
-321.79
-309.052
-295.133
-280.043
-263.794
-246.399
-227.879
-208.241
-187.51
-165.695
-142.827
-118.924
-94.0259
-68.1725
-41.417
-13.8033
14.6512
43.6183
73.0596
102.839
132.79
162.714
192.401
221.617
250.12
277.653
303.958
328.769
351.829
372.879
391.677
407.99
421.612
432.356
440.067
444.621
445.938
443.977
438.733
430.239
418.577
403.873
386.287
366.022
343.309
318.407
291.599
263.183
233.464
202.759
171.377
139.623
107.786
76.1348
44.9048
14.332
-15.405
-44.1467
-71.7645
-98.1581
-123.255
-147.007
-169.387
-190.386
-210.009
-228.275
-245.21
-260.85
-275.232
-288.399
-300.388
-311.234
-320.969
-329.619
-337.205
-343.74
-349.236
-353.698
-357.129
-359.524
-360.874
-361.166
-360.383
-358.495
-355.469
-351.264
-345.836
-339.136
-331.117
-321.74
-310.968
-298.775
-285.15
-270.085
-253.59
-235.675
-216.363
-195.689
-173.681
-150.394
-125.873
-100.188
-73.4119
-45.6444
-16.9974
12.4034
42.4452
72.9945
103.701
134.421
164.958
195.095
224.595
253.223
280.727
306.868
331.406
354.12
374.802
393.271
409.364
422.965
433.957
442.295
447.956
450.958
451.386
449.291
445.133
437.976
-369.678
-366.782
-362.82
-357.755
-351.537
-344.12
-335.451
-325.486
-314.164
-301.458
-287.311
-271.703
-254.592
-235.962
-215.807
-194.12
-170.924
-146.281
-120.226
-92.8668
-64.2009
-34.0928
1.48471
33.598
66.188
99.0735
132.23
165.25
197.952
229.874
260.767
290.184
317.852
343.421
366.586
387.194
405.029
419.95
431.829
440.584
446.169
448.554
448.078
444.494
437.85
428.201
415.669
400.408
382.593
362.427
340.124
315.9
290.032
262.752
234.317
204.957
174.912
144.397
113.629
82.8488
52.5737
22.4254
-7.32798
-36.5266
-65.0133
-92.6825
-119.42
-145.144
-169.771
-193.237
-215.476
-236.435
-256.069
-274.336
-291.206
-306.65
-320.653
-333.202
-344.296
-353.938
-362.133
-368.892
-374.229
-378.16
-380.707
-381.892
-381.687
-380.17
-377.357
-373.257
-367.887
-361.26
-353.389
-344.285
-333.956
-322.42
-309.682
-295.763
-280.673
-264.424
-247.03
-228.511
-208.875
-188.143
-166.327
-143.454
-119.544
-94.6325
-68.7589
-41.9782
-14.3295
14.1931
43.2193
72.7319
102.597
132.646
162.681
192.489
221.834
250.474
278.148
304.598
329.553
352.754
373.941
392.867
409.297
423.021
433.849
441.624
446.223
447.56
445.595
440.32
431.773
420.035
405.232
387.528
367.129
344.268
319.209
292.237
263.654
233.77
202.903
171.367
139.468
107.5
75.7318
44.4022
13.7442
-16.0615
-44.8557
-72.5107
-98.9276
-124.035
-147.788
-170.16
-191.145
-210.748
-228.99
-245.9
-261.513
-275.87
-289.011
-300.978
-311.805
-321.525
-330.163
-337.739
-344.268
-349.761
-354.223
-357.657
-360.056
-361.414
-361.717
-360.947
-359.077
-356.071
-351.889
-346.484
-339.807
-331.81
-322.45
-311.693
-299.51
-285.891
-270.829
-254.331
-236.411
-217.091
-196.406
-174.385
-151.08
-126.538
-100.825
-74.0152
-46.2061
-17.509
11.9512
42.06
72.7083
103.504
134.321
164.966
195.219
224.844
253.6
281.236
307.509
332.175
355.009
375.802
394.366
410.537
424.192
435.209
443.547
449.16
452.065
452.334
449.984
445.424
437.737
-370.264
-367.392
-363.457
-358.421
-352.234
-344.849
-336.212
-326.28
-314.989
-302.312
-288.19
-272.604
-255.509
-236.891
-216.74
-195.048
-171.839
-147.174
-121.091
-93.7036
-65.0392
-35.0074
1.04616
33.1205
65.7642
98.7545
132.053
165.237
198.125
230.242
261.337
290.95
318.807
344.55
367.867
388.609
406.559
421.573
433.522
442.322
447.927
450.307
449.811
446.179
439.466
429.729
417.09
401.706
383.755
363.445
340.992
316.617
290.598
263.171
234.595
205.103
174.934
144.307
113.438
82.5772
52.2098
21.989
-7.8275
-37.0808
-65.6148
-93.3245
-120.096
-145.85
-170.502
-193.99
-216.25
-237.225
-256.873
-275.152
-292.029
-307.478
-321.483
-334.031
-345.121
-354.756
-362.943
-369.692
-375.018
-378.938
-381.473
-382.644
-382.43
-380.903
-378.083
-373.975
-368.6
-361.97
-354.096
-344.989
-334.658
-323.12
-310.382
-296.463
-281.372
-265.125
-247.732
-229.214
-209.579
-188.847
-167.029
-144.152
-120.232
-95.3079
-69.4124
-42.604
-14.9186
13.6829
42.7732
72.3649
102.324
132.483
162.641
192.584
222.074
250.866
278.698
305.308
330.424
353.784
375.123
394.191
410.752
424.589
435.512
443.359
448.005
449.366
447.395
442.088
433.481
421.658
406.745
388.91
368.36
345.334
320.1
292.946
264.177
234.108
203.061
171.353
139.294
107.179
75.2803
43.8397
13.0871
-16.7946
-45.6469
-73.343
-99.7855
-124.905
-148.658
-171.022
-191.989
-211.571
-229.786
-246.667
-262.249
-276.577
-289.692
-301.634
-312.44
-322.142
-330.766
-338.333
-344.855
-350.343
-354.806
-358.242
-360.647
-362.013
-362.328
-361.574
-359.723
-356.739
-352.582
-347.204
-340.553
-332.58
-323.241
-312.499
-300.328
-286.716
-271.655
-255.155
-237.23
-217.901
-197.204
-175.168
-151.844
-127.278
-101.534
-74.6877
-46.8317
-18.0795
11.446
41.627
72.3899
103.284
134.208
164.972
195.355
225.117
254.018
281.801
308.221
333.029
355.999
376.914
395.585
411.844
425.56
436.608
444.946
450.506
453.304
453.411
450.794
445.834
437.62
-370.907
-368.063
-364.157
-359.154
-353
-345.651
-337.051
-327.154
-315.897
-303.251
-289.157
-273.595
-256.52
-237.915
-217.768
-196.071
-172.847
-148.157
-122.042
-94.6206
-65.954
-36.0348
0.578335
32.5831
65.2873
98.3952
131.851
165.217
198.312
230.645
261.963
291.794
319.859
345.795
369.279
390.17
408.245
423.363
435.388
444.239
449.865
452.238
451.721
448.039
441.246
431.413
418.654
403.134
385.035
364.565
341.947
317.404
291.218
263.629
234.899
205.26
174.956
144.204
113.222
82.2774
51.8081
21.5071
-8.37896
-37.6924
-66.2781
-94.0323
-120.842
-146.628
-171.308
-194.82
-217.101
-238.095
-257.759
-276.05
-292.936
-308.39
-322.396
-334.943
-346.028
-355.656
-363.834
-370.573
-375.887
-379.794
-382.316
-383.472
-383.246
-381.709
-378.881
-374.765
-369.384
-362.75
-354.873
-345.764
-335.43
-323.891
-311.152
-297.233
-282.142
-265.896
-248.505
-229.987
-210.354
-189.622
-167.804
-144.921
-120.992
-96.0524
-70.1337
-43.2951
-15.572
13.1207
42.2791
71.9572
102.021
132.301
162.595
192.686
222.335
251.295
279.301
306.089
331.382
354.916
376.423
395.65
412.354
426.317
437.344
445.272
449.97
451.357
449.381
444.038
435.366
423.447
408.413
390.433
369.717
346.509
321.08
293.725
264.751
234.479
203.233
171.334
139.098
106.822
74.7792
43.2164
12.3598
-17.6055
-46.5215
-74.2625
-100.733
-125.865
-149.618
-171.971
-192.92
-212.476
-230.663
-247.511
-263.06
-277.355
-290.439
-302.354
-313.138
-322.821
-331.43
-338.985
-345.499
-350.984
-355.447
-358.886
-361.296
-362.671
-362.999
-362.262
-360.433
-357.474
-353.345
-347.996
-341.374
-333.427
-324.111
-313.387
-301.229
-287.623
-272.565
-256.063
-238.131
-218.793
-198.082
-176.03
-152.686
-128.094
-102.317
-75.4295
-47.5223
-18.7096
10.8869
41.1454
72.0388
103.038
134.08
164.976
195.502
225.416
254.475
282.421
309.003
333.97
357.088
378.141
396.93
413.288
427.072
438.156
446.492
451.997
454.679
454.618
451.729
446.376
437.638
-371.609
-368.794
-364.92
-359.952
-353.836
-346.527
-337.966
-328.108
-316.888
-304.276
-290.214
-274.678
-257.624
-239.033
-218.891
-197.19
-173.949
-149.231
-123.078
-95.6165
-66.9403
-37.1733
0.0785093
31.9785
64.7537
97.9935
131.623
165.19
198.511
231.082
262.646
292.715
321.008
347.155
370.822
391.875
410.088
425.319
437.428
446.334
451.985
454.353
453.808
450.073
443.193
433.254
420.362
404.693
386.43
365.787
342.987
318.26
291.892
264.126
235.226
205.427
174.975
144.087
112.983
81.947
51.3676
20.9787
-8.98288
-38.362
-67.0039
-94.8062
-121.656
-147.478
-172.188
-195.726
-218.031
-239.045
-258.726
-277.03
-293.926
-309.386
-323.394
-335.938
-347.018
-356.638
-364.807
-371.534
-376.835
-380.728
-383.235
-384.376
-384.136
-382.588
-379.75
-375.626
-370.24
-363.602
-355.721
-346.609
-336.272
-324.732
-311.992
-298.073
-282.981
-266.737
-249.347
-230.831
-211.199
-190.468
-168.649
-145.761
-121.822
-96.8663
-70.9235
-44.0523
-16.2912
12.5066
41.7359
71.5079
101.686
132.097
162.54
192.793
222.617
251.761
279.957
306.939
332.427
356.152
377.843
397.243
414.105
428.206
439.348
447.364
452.12
453.535
451.554
446.171
437.426
425.404
410.237
392.097
371.199
347.792
322.151
294.574
265.376
234.88
203.416
171.31
138.88
106.427
74.2275
42.5307
11.5607
-18.4954
-47.4807
-75.2702
-101.77
-126.916
-150.668
-173.009
-193.938
-213.466
-231.62
-248.433
-263.945
-278.204
-291.255
-303.14
-313.898
-323.56
-332.153
-339.696
-346.202
-351.684
-356.145
-359.587
-362.004
-363.389
-363.731
-363.013
-361.206
-358.275
-354.177
-348.861
-342.27
-334.352
-325.061
-314.357
-302.213
-288.615
-273.558
-257.054
-239.115
-219.767
-199.042
-176.972
-153.605
-128.985
-103.173
-76.2411
-48.2786
-19.4001
10.2717
40.6146
71.6553
102.766
133.936
164.976
195.658
225.74
254.972
283.097
309.856
334.996
358.278
379.482
398.402
414.869
428.729
439.855
448.188
453.637
456.193
455.964
452.798
447.058
437.817
-372.367
-369.585
-365.746
-360.816
-354.741
-347.475
-338.957
-329.142
-317.962
-305.389
-291.359
-275.853
-258.823
-240.247
-220.111
-198.404
-175.147
-150.398
-124.201
-96.6893
-67.9908
-38.4082
-0.46954
31.2971
64.1597
97.5473
131.368
165.154
198.723
231.552
263.384
293.714
322.255
348.631
372.498
393.727
412.09
427.444
439.645
448.612
454.289
456.649
456.073
452.281
445.309
435.251
422.216
406.384
387.942
367.11
344.113
319.185
292.62
264.66
235.577
205.604
174.991
143.955
112.722
81.5824
50.8872
20.4035
-9.6401
-39.0901
-67.7926
-95.6466
-122.541
-148.4
-173.142
-196.709
-219.039
-240.075
-259.774
-278.093
-295
-310.466
-324.475
-337.017
-348.092
-357.703
-365.862
-372.576
-377.863
-381.741
-384.231
-385.357
-385.101
-383.54
-380.692
-376.559
-371.167
-364.524
-356.639
-347.524
-337.185
-325.643
-312.902
-298.982
-283.891
-267.649
-250.26
-231.747
-212.116
-191.387
-169.566
-146.673
-122.724
-97.7501
-71.7827
-44.8765
-17.0777
11.8407
41.1424
71.0156
101.318
131.873
162.476
192.906
222.919
252.263
280.667
307.859
333.558
357.491
379.383
398.972
416.006
430.257
441.525
449.636
454.456
455.901
453.914
448.489
439.665
427.531
412.218
393.904
372.808
349.183
323.31
295.493
266.051
235.312
203.611
171.279
138.638
105.993
73.6238
41.781
10.6884
-19.4658
-48.5258
-76.3674
-102.899
-128.059
-151.81
-174.137
-195.043
-214.541
-232.658
-249.431
-264.904
-279.123
-292.137
-303.99
-314.72
-324.36
-332.936
-340.465
-346.962
-352.44
-356.901
-360.346
-362.77
-364.165
-364.523
-363.824
-362.043
-359.142
-355.078
-349.797
-343.241
-335.356
-326.092
-315.41
-303.28
-289.69
-274.636
-258.129
-240.182
-220.822
-200.082
-177.994
-154.603
-129.954
-104.104
-77.1231
-49.1014
-20.1517
9.60114
40.031
71.2396
102.466
133.775
164.972
195.823
226.087
255.508
283.826
310.78
336.109
359.57
380.938
400.002
416.588
430.534
441.708
450.038
455.43
457.85
457.458
454.012
447.896
438.181
-373.183
-370.435
-366.634
-361.746
-355.716
-348.496
-340.025
-330.257
-319.12
-306.588
-292.595
-277.12
-260.115
-241.557
-221.428
-199.715
-176.44
-151.657
-125.412
-97.8383
-69.0954
-39.6971
-1.10898
30.5264
63.5014
97.054
131.083
165.107
198.944
232.055
264.178
294.79
323.6
350.224
374.306
395.726
414.251
429.738
442.039
451.072
456.776
459.13
458.519
454.661
447.594
437.405
424.216
408.207
389.572
368.533
345.323
320.178
293.399
265.232
235.95
205.79
175.002
143.807
112.438
81.1822
50.3663
19.7805
-10.3515
-39.8776
-68.6447
-96.5541
-123.495
-149.395
-174.172
-197.769
-220.126
-241.186
-260.904
-279.239
-296.158
-311.63
-325.641
-338.181
-349.249
-358.851
-366.998
-373.698
-378.97
-382.831
-385.304
-386.414
-386.139
-384.565
-381.706
-377.562
-372.164
-365.517
-357.627
-348.509
-338.168
-326.624
-313.881
-299.961
-284.871
-268.63
-251.243
-232.732
-213.104
-192.376
-170.554
-147.657
-123.698
-98.7048
-72.711
-45.7678
-17.9343
11.1227
40.4968
70.4787
100.915
131.625
162.402
193.023
223.241
252.801
281.428
308.849
334.777
358.935
381.043
400.836
418.057
432.471
443.875
452.091
456.981
458.458
456.463
450.992
442.084
429.827
414.357
395.856
374.545
350.684
324.56
296.483
266.776
235.774
203.817
171.24
138.371
105.519
72.9662
40.9657
9.74137
-20.5185
-49.6583
-77.5556
-104.12
-129.294
-153.043
-175.355
-196.235
-215.7
-233.778
-250.508
-265.937
-280.113
-293.087
-304.905
-315.605
-325.221
-333.777
-341.292
-347.78
-353.252
-357.713
-361.162
-363.594
-365
-365.374
-364.697
-362.944
-360.076
-356.048
-350.806
-344.288
-336.438
-327.204
-316.545
-304.431
-290.85
-275.798
-259.288
-241.333
-221.96
-201.204
-179.096
-155.68
-130.999
-105.108
-78.0769
-49.9918
-20.9653
8.87576
39.3912
70.7923
102.138
133.597
164.962
195.997
226.456
256.082
284.61
311.774
337.308
360.963
382.51
401.731
418.448
432.49
443.718
452.047
457.378
459.682
459.112
455.38
448.9
438.73
-374.056
-371.346
-367.585
-362.742
-356.759
-349.59
-341.17
-331.452
-320.362
-307.874
-293.921
-278.48
-261.502
-242.964
-222.842
-201.124
-177.83
-153.011
-126.711
-99.0631
-70.243
-40.9182
-1.96316
29.6534
62.775
96.5115
130.765
165.048
199.175
232.591
265.028
295.944
325.044
351.935
376.248
397.873
416.573
432.204
444.613
453.716
459.448
461.793
461.148
457.217
450.047
439.718
426.362
410.162
391.318
370.058
346.618
321.239
294.231
265.84
236.344
205.983
175.008
143.642
112.127
80.7476
49.8044
19.1092
-11.1179
-40.7251
-69.5611
-97.5293
-124.52
-150.463
-175.277
-198.906
-221.293
-242.377
-262.117
-280.469
-297.399
-312.88
-326.892
-339.428
-350.49
-360.082
-368.216
-374.902
-380.157
-383.999