/*--------------------------------*- C++ -*----------------------------------*\
| =========                 |                                                 |
| \\      /  F ield         | OpenFOAM: The Open Source CFD Toolbox           |
|  \\    /   O peration     | Version:  3.0.1                                 |
|   \\  /    A nd           | Web:      www.OpenFOAM.org                      |
|    \\/     M anipulation  |                                                 |
\*---------------------------------------------------------------------------*/
FoamFile
{
    version     2.0;
    format      ascii;
    class       volScalarField;
    location    "34.4";
    object      p;
}
// * * * * * * * * * * * * * * * * * * * * * * * * * * * * * * * * * * * * * //

dimensions      [1 -1 -2 0 0 0 0];

internalField   nonuniform List<scalar> 
21420
(
4144.63
4114.32
4082.47
4049.39
4015.45
3980.98
3946.44
3912.2
3878.71
3846.61
3818.42
3789.11
3760.83
3734.08
3709.06
3685.87
3664.54
3645.05
3627.39
3611.51
3597.37
3584.9
3574.06
3564.78
3557
3550.68
3545.78
3542.26
3540.1
3539.3
3539.86
3541.76
3545.04
3549.74
3555.89
3563.54
3572.72
3583.52
3595.99
3610.18
3626.18
3644.01
3663.73
3685.36
3708.91
3734.34
3761.61
3790.66
3821.38
3852.29
3885.22
3919.13
3953.73
3988.63
4023.4
4057.66
4090.95
4122.82
4152.85
4180.63
4205.78
4227.95
4246.83
4262.16
4273.73
4281.36
4284.93
4284.31
4279.56
4270.77
4258.03
4241.56
4221.6
4198.42
4172.38
4143.84
4113.22
4080.95
4047.45
4013.15
3978.47
3943.8
3909.5
3875.91
3843.26
3811.75
3781.58
3752.93
3725.92
3700.65
3677.18
3655.56
3635.83
3618.01
3602.1
3588.08
3575.92
3565.58
3556.99
3550.11
3544.86
3541.18
3539
3538.29
3539.06
3541.22
3544.79
3549.79
3556.25
3564.17
3573.6
3584.57
3597.11
3611.26
3627.03
3644.44
3663.5
3684.21
3706.53
3730.44
3755.86
3782.74
3810.95
3840.38
3870.88
3902.32
3934.38
3966.86
3999.5
4031.99
4063.98
4095.11
4124.99
4153.22
4179.41
4203.15
4224.06
4241.8
4256.06
4266.57
4273.14
4275.57
4273.9
4268.04
4258.08
4244.12
4226.38
4205.1
4180.61
4153.26
4123.47
4091.67
4058.34
4023.94
3988.97
3953.88
3919.13
3885.1
3852.17
3820.62
3790.71
3762.6
3736.41
3712.21
3690.03
3669.83
3651.6
3635.25
3620.71
3607.91
3596.75
3587.15
3579.04
3572.33
3566.98
3562.93
3560.12
3558.54
3558.18
3558.96
3560.91
3564.03
3568.32
3573.79
3580.49
3588.45
3597.7
3608.3
3620.31
3633.79
3648.83
3665.48
3683.8
3703.84
3725.62
3749.14
3774.38
3801.26
3829.69
3859.52
3890.56
3922.62
3955.34
3988.43
4021.53
4054.25
4086.15
4116.8
4145.75
4172.54
4196.75
4217.97
4235.84
4250.06
4260.36
4266.59
4268.57
4266.41
4260.06
4249.67
4235.45
4217.65
4196.61
4172.68
4146.28
4117.83
4087.75
4056.48
4024.44
3992.01
3959.57
3927.45
3895.93
3865.27
3835.67
3807.31
3780.32
3754.79
3730.8
3708.4
3687.61
3668.43
3650.86
3634.88
3620.48
3607.6
3596.22
3586.3
3577.79
3570.68
3564.92
3560.51
3557.41
3555.67
3555.31
3556.28
3558.65
3562.44
3567.69
3574.41
3582.66
3592.44
3603.8
3616.76
3631.33
3647.52
3665.33
3684.76
3705.78
3728.36
3752.45
3777.95
3804.76
3832.71
3861.54
3890.92
3925.93
3957.94
3990.28
4022.51
4054.17
4084.85
4114.12
4141.53
4166.67
4189.15
4208.6
4224.73
4237.28
4246.03
4250.79
4251.37
4249.2
4243.09
4232.96
4218.88
4200.98
4179.55
4154.96
4127.61
4097.98
4066.51
4033.7
4000.02
3965.91
3931.76
3897.58
3863.37
3830.69
3799.5
3769.89
3741.95
3715.74
3691.36
3668.84
3648.21
3629.48
3612.63
3597.65
3584.49
3573.1
3563.42
3555.4
3548.97
3544.07
3540.63
3538.64
3538.12
3538.99
3541.29
3545.01
3550.2
3556.9
3565.14
3574.97
3586.42
3599.55
3614.39
3630.96
3649.27
3669.32
3691.11
3714.56
3739.64
3766.24
3794.27
3823.6
3854.01
3884.43
3915.92
3948.14
3980.69
4013.07
4044.94
4076.03
4105.81
4133.81
4046.59
4016.26
3984.4
3951.3
3917.34
3882.86
3848.3
3814.05
3780.54
3748.41
3720.28
3690.94
3662.65
3635.89
3610.88
3587.69
3566.35
3546.87
3529.21
3513.34
3499.2
3486.74
3475.89
3466.61
3458.84
3452.53
3447.63
3444.11
3441.94
3441.15
3441.71
3443.6
3446.89
3451.58
3457.73
3465.37
3474.56
3485.35
3497.82
3512.01
3528
3545.83
3565.54
3587.18
3610.73
3636.16
3663.43
3692.48
3723.19
3754.13
3787.06
3820.98
3855.6
3890.51
3925.3
3959.57
3992.88
4024.77
4054.82
4082.61
4107.78
4129.97
4148.86
4164.2
4175.78
4183.42
4186.99
4186.36
4181.61
4172.82
4160.07
4143.59
4123.61
4100.42
4074.36
4045.8
4015.16
3982.87
3949.35
3915.03
3880.34
3845.66
3811.35
3777.74
3745.09
3713.57
3683.4
3654.75
3627.74
3602.46
3578.99
3557.37
3537.65
3519.83
3503.92
3489.9
3477.74
3467.41
3458.83
3451.94
3446.7
3443.02
3440.84
3440.13
3440.9
3443.06
3446.63
3451.64
3458.09
3466.01
3475.44
3486.4
3498.94
3513.09
3528.86
3546.27
3565.33
3586.03
3608.36
3632.26
3657.69
3684.57
3712.78
3742.22
3772.72
3804.17
3836.23
3868.73
3901.39
3933.88
3965.89
3997.03
4026.93
4055.19
4081.39
4105.15
4126.08
4143.83
4158.1
4168.62
4175.2
4177.64
4175.96
4170.1
4160.13
4146.16
4128.4
4107.11
4082.6
4055.23
4025.42
3993.6
3960.25
3925.83
3890.84
3855.74
3820.97
3786.93
3753.99
3722.44
3692.52
3664.41
3638.22
3614.02
3591.84
3571.65
3553.41
3537.07
3522.54
3509.74
3498.59
3488.99
3480.88
3474.18
3468.83
3464.78
3461.97
3460.39
3460.03
3460.82
3462.77
3465.88
3470.17
3475.64
3482.34
3490.29
3499.54
3510.14
3522.14
3535.63
3550.66
3567.3
3585.62
3605.66
3627.44
3650.96
3676.2
3703.08
3731.51
3761.35
3792.4
3824.47
3857.2
3890.31
3923.42
3956.15
3988.08
4018.74
4047.71
4074.52
4098.75
4119.99
4137.88
4152.1
4162.42
4168.66
4170.64
4168.46
4162.11
4151.72
4137.48
4119.67
4098.61
4074.66
4048.24
4019.77
3989.67
3958.39
3926.33
3893.89
3861.43
3829.3
3797.77
3767.11
3737.51
3709.14
3682.14
3656.62
3632.63
3610.23
3589.43
3570.26
3552.69
3536.72
3522.31
3509.44
3498.06
3488.14
3479.64
3472.52
3466.77
3462.35
3459.26
3457.52
3457.15
3458.13
3460.49
3464.28
3469.53
3476.25
3484.49
3494.28
3505.64
3518.59
3533.16
3549.35
3567.16
3586.59
3607.61
3630.19
3654.28
3679.78
3706.6
3734.56
3763.4
3792.81
3827.75
3859.8
3892.16
3924.41
3956.08
3986.78
4016.06
4043.49
4068.65
4091.15
4110.62
4126.77
4139.33
4148.08
4152.86
4153.44
4151.26
4145.15
4135.01
4120.92
4103.01
4081.56
4056.94
4029.58
3999.93
3968.44
3935.6
3901.91
3867.78
3833.62
3799.42
3765.2
3732.52
3701.33
3671.71
3643.77
3617.56
3593.18
3570.66
3550.03
3531.3
3514.45
3499.47
3486.32
3474.93
3465.26
3457.23
3450.8
3445.91
3442.48
3440.49
3439.96
3440.84
3443.13
3446.85
3452.04
3458.74
3466.98
3476.8
3488.25
3501.38
3516.22
3532.79
3551.1
3571.15
3592.93
3616.38
3641.47
3668.07
3696.1
3725.43
3755.85
3786.27
3817.78
3850.01
3882.57
3914.96
3946.85
3977.95
4007.75
4035.77
3948.61
3918.25
3886.35
3853.21
3819.22
3784.71
3750.12
3715.84
3682.29
3650.11
3622.08
3592.7
3564.39
3537.62
3512.61
3489.42
3468.09
3448.61
3430.96
3415.09
3400.96
3388.5
3377.67
3368.39
3360.62
3354.31
3349.42
3345.9
3343.74
3342.94
3343.5
3345.39
3348.68
3353.37
3359.51
3367.15
3376.33
3387.12
3399.58
3413.76
3429.75
3447.57
3467.28
3488.91
3512.46
3537.88
3565.16
3594.21
3624.92
3655.91
3688.85
3722.78
3757.42
3792.36
3827.18
3861.49
3894.84
3926.76
3956.85
3984.68
4009.88
4032.1
4051.03
4066.39
4077.99
4085.64
4089.23
4088.57
4083.82
4075.02
4062.25
4045.74
4025.73
4002.51
3976.41
3947.82
3917.14
3884.81
3851.25
3816.9
3782.18
3747.47
3713.14
3679.52
3646.85
3615.32
3585.15
3556.49
3529.47
3504.19
3480.72
3459.11
3439.38
3421.57
3405.66
3391.65
3379.49
3369.16
3360.59
3353.71
3348.47
3344.8
3342.62
3341.92
3342.69
3344.85
3348.42
3353.42
3359.87
3367.79
3377.21
3388.17
3400.71
3414.85
3430.61
3448.02
3467.08
3487.79
3510.11
3534.02
3559.45
3586.33
3614.55
3644
3674.51
3705.97
3738.05
3770.57
3803.25
3835.77
3867.81
3898.99
3928.92
3957.21
3983.45
4007.24
4028.21
4045.99
4060.29
4070.83
4077.42
4079.88
4078.18
4072.32
4062.33
4048.34
4030.56
4009.23
3984.69
3957.28
3927.43
3895.57
3862.17
3827.72
3792.69
3757.56
3722.76
3688.7
3655.73
3624.17
3594.24
3566.12
3539.93
3515.74
3493.56
3473.38
3455.15
3438.82
3424.29
3411.5
3400.36
3390.77
3382.66
3375.97
3370.62
3366.57
3363.77
3362.2
3361.84
3362.62
3364.57
3367.69
3371.97
3377.44
3384.14
3392.09
3401.33
3411.92
3423.92
3437.4
3452.42
3469.06
3487.37
3507.4
3529.18
3552.7
3577.94
3604.83
3633.27
3663.11
3694.18
3726.27
3759.02
3792.15
3825.3
3858.07
3890.03
3920.73
3949.74
3976.59
4000.86
4022.13
4040.05
4054.3
4064.64
4070.88
4072.88
4070.68
4064.32
4053.91
4039.65
4021.8
4000.7
3976.72
3950.27
3921.75
3891.62
3860.3
3828.21
3795.74
3763.26
3731.11
3699.56
3668.88
3639.27
3610.9
3583.9
3558.37
3534.38
3511.98
3491.19
3472.01
3454.45
3438.48
3424.08
3411.21
3399.84
3389.92
3381.42
3374.31
3368.56
3364.15
3361.05
3359.31
3358.94
3359.92
3362.28
3366.07
3371.31
3378.03
3386.27
3396.05
3407.4
3420.36
3434.92
3451.11
3468.92
3488.34
3509.36
3531.95
3556.04
3581.55
3608.38
3636.35
3665.22
3694.69
3729.49
3761.61
3794.01
3826.3
3858
3888.73
3918.05
3945.52
3970.72
3993.25
4012.75
4028.93
4041.52
4050.3
4055.09
4055.69
4053.49
4047.38
4037.22
4023.11
4005.16
3983.68
3959.02
3931.61
3901.92
3870.39
3837.51
3803.79
3769.63
3735.44
3701.21
3666.97
3634.28
3603.08
3573.45
3545.5
3519.29
3494.91
3472.39
3451.76
3433.04
3416.2
3401.22
3388.07
3376.69
3367.02
3359.01
3352.58
3347.69
3344.26
3342.28
3341.75
3342.62
3344.92
3348.64
3353.82
3360.52
3368.75
3378.57
3390.01
3403.14
3417.97
3434.54
3452.84
3472.89
3494.67
3518.13
3543.22
3569.82
3597.86
3627.2
3657.62
3688.07
3719.59
3751.84
3784.42
3816.84
3848.76
3879.89
3909.72
3937.78
3850.7
3820.28
3788.32
3755.14
3721.09
3686.53
3651.9
3617.57
3583.98
3551.71
3523.84
3494.38
3466.04
3439.26
3414.25
3391.06
3369.74
3350.27
3332.63
3316.77
3302.65
3290.2
3279.38
3270.11
3262.35
3256.04
3251.15
3247.64
3245.48
3244.69
3245.24
3247.13
3250.41
3255.09
3261.23
3268.87
3278.04
3288.81
3301.26
3315.44
3331.41
3349.23
3368.93
3390.56
3414.1
3439.53
3466.8
3495.86
3526.56
3557.63
3590.58
3624.53
3659.21
3694.19
3729.06
3763.43
3796.82
3828.81
3858.95
3886.84
3912.09
3934.36
3953.32
3968.72
3980.35
3988.01
3991.63
3990.94
3986.19
3977.36
3964.57
3948.03
3927.97
3904.69
3878.54
3849.89
3819.15
3786.77
3753.16
3718.76
3683.99
3649.24
3614.88
3581.23
3548.54
3517
3486.81
3458.14
3431.12
3405.84
3382.37
3360.75
3341.03
3323.22
3307.32
3293.31
3281.17
3270.85
3262.28
3255.42
3250.18
3246.51
3244.34
3243.66
3244.42
3246.58
3250.15
3255.15
3261.59
3269.5
3278.92
3289.88
3302.41
3316.54
3332.3
3349.71
3368.76
3389.47
3411.79
3435.7
3461.14
3488.02
3516.26
3545.72
3576.25
3607.72
3639.83
3672.38
3705.1
3737.66
3769.74
3800.97
3830.95
3859.3
3885.59
3909.44
3930.45
3948.28
3962.62
3973.19
3979.8
3982.28
3980.56
3974.69
3964.69
3950.67
3932.84
3911.47
3886.87
3859.4
3829.49
3797.57
3764.11
3729.6
3694.52
3659.33
3624.49
3590.39
3557.4
3525.82
3495.87
3467.75
3441.56
3417.37
3395.2
3375.03
3356.81
3340.49
3325.98
3313.2
3302.07
3292.49
3284.39
3277.71
3272.37
3268.32
3265.52
3263.96
3263.59
3264.38
3266.33
3269.45
3273.73
3279.2
3285.89
3293.83
3303.06
3313.65
3325.64
3339.1
3354.11
3370.74
3389.05
3409.07
3430.84
3454.36
3479.6
3506.5
3534.94
3564.81
3595.9
3628.01
3660.8
3693.98
3727.17
3759.99
3792
3822.77
3851.84
3878.75
3903.07
3924.4
3942.36
3956.65
3967.01
3973.27
3975.29
3973.06
3966.69
3956.25
3941.94
3924.05
3902.9
3878.86
3852.35
3823.78
3793.59
3762.22
3730.08
3697.56
3665.05
3632.86
3601.3
3570.6
3540.97
3512.59
3485.58
3460.05
3436.06
3413.66
3392.87
3373.7
3356.15
3340.19
3325.79
3312.93
3301.56
3291.65
3283.16
3276.05
3270.3
3265.89
3262.79
3261.06
3260.68
3261.65
3264.01
3267.79
3273.03
3279.75
3287.98
3297.76
3309.11
3322.05
3336.62
3352.8
3370.61
3390.03
3411.05
3433.64
3457.74
3483.25
3510.09
3538.08
3567
3596.56
3631.17
3663.38
3695.84
3728.18
3759.93
3790.71
3820.09
3847.61
3872.87
3895.45
3915
3931.23
3943.86
3952.67
3957.48
3958.11
3955.88
3949.77
3939.59
3925.43
3907.44
3885.9
3861.19
3833.72
3803.96
3772.37
3739.43
3705.65
3671.45
3637.22
3602.94
3568.68
3535.96
3504.75
3475.11
3447.15
3420.94
3396.56
3374.04
3353.42
3334.7
3317.86
3302.9
3289.75
3278.38
3268.72
3260.72
3254.3
3249.41
3245.99
3244.02
3243.48
3244.36
3246.65
3250.36
3255.55
3262.23
3270.46
3280.27
3291.71
3304.82
3319.65
3336.21
3354.51
3374.56
3396.34
3419.8
3444.89
3471.5
3499.55
3528.9
3559.33
3589.82
3621.35
3653.63
3686.25
3718.72
3750.68
3781.86
3811.74
3839.85
3752.84
3722.35
3690.33
3657.07
3622.96
3588.33
3553.64
3519.25
3485.58
3453.21
3425.55
3396
3367.61
3340.82
3315.8
3292.62
3271.31
3251.85
3234.22
3218.38
3204.27
3191.83
3181.02
3171.76
3164.01
3157.72
3152.83
3149.33
3147.17
3146.38
3146.92
3148.81
3152.09
3156.77
3162.9
3170.52
3179.68
3190.44
3202.88
3217.04
3233
3250.81
3270.5
3292.12
3315.66
3341.08
3368.36
3397.43
3428.12
3459.28
3492.25
3526.23
3560.96
3596
3630.93
3665.37
3698.84
3730.9
3761.12
3789.08
3814.4
3836.73
3855.75
3871.2
3882.86
3890.55
3894.18
3893.49
3888.71
3879.86
3867.03
3850.43
3830.32
3806.97
3780.75
3752.02
3721.21
3688.75
3655.07
3620.6
3585.77
3550.97
3516.56
3482.88
3450.17
3418.6
3388.4
3359.72
3332.69
3307.41
3283.93
3262.32
3242.6
3224.8
3208.9
3194.9
3182.77
3172.46
3163.91
3157.05
3151.83
3148.17
3146.01
3145.34
3146.09
3148.25
3151.82
3156.82
3163.25
3171.16
3180.57
3191.52
3204.04
3218.17
3233.92
3251.32
3270.37
3291.07
3313.4
3337.31
3362.75
3389.65
3417.9
3447.37
3477.93
3509.43
3541.57
3574.17
3606.92
3639.54
3671.68
3702.98
3733.03
3761.45
3787.82
3811.73
3832.82
3850.71
3865.09
3875.7
3882.33
3884.84
3883.11
3877.23
3867.19
3853.13
3835.25
3813.82
3789.14
3761.6
3731.6
3699.6
3666.06
3631.47
3596.31
3561.06
3526.16
3492.02
3458.99
3427.38
3397.42
3369.28
3343.09
3318.91
3296.75
3276.59
3258.39
3242.08
3227.59
3214.83
3203.71
3194.15
3186.07
3179.39
3174.06
3170.02
3167.23
3165.67
3165.31
3166.1
3168.05
3171.16
3175.44
3180.9
3187.58
3195.52
3204.74
3215.31
3227.29
3240.74
3255.74
3272.35
3290.65
3310.66
3332.43
3355.94
3381.18
3408.09
3436.55
3466.44
3497.56
3529.71
3562.54
3595.77
3629.03
3661.91
3694
3724.85
3754
3780.99
3805.39
3826.78
3844.81
3859.15
3869.55
3875.83
3877.86
3875.61
3869.21
3858.73
3844.38
3826.42
3805.2
3781.09
3754.49
3725.85
3695.58
3664.14
3631.93
3599.37
3566.8
3534.58
3502.98
3472.25
3442.6
3414.21
3387.19
3361.66
3337.67
3315.27
3294.49
3275.32
3257.77
3241.82
3227.43
3214.58
3203.22
3193.32
3184.83
3177.73
3171.98
3167.57
3164.48
3162.75
3162.36
3163.33
3165.69
3169.46
3174.69
3181.4
3189.63
3199.4
3210.74
3223.68
3238.24
3254.42
3272.22
3291.65
3312.67
3335.26
3359.36
3384.89
3411.75
3439.76
3468.73
3498.4
3532.78
3565.1
3597.65
3630.05
3661.87
3692.73
3722.17
3749.77
3775.1
3797.75
3817.37
3833.66
3846.34
3855.19
3860.03
3860.69
3858.45
3852.32
3842.11
3827.9
3809.85
3788.23
3763.44
3735.88
3706.04
3674.37
3641.36
3607.51
3573.24
3538.96
3504.61
3470.32
3437.58
3406.34
3376.69
3348.72
3322.51
3298.12
3275.61
3254.99
3236.27
3219.45
3204.49
3191.36
3180
3170.36
3162.36
3155.95
3151.08
3147.66
3145.7
3145.16
3146.03
3148.32
3152.03
3157.21
3163.88
3172.1
3181.9
3193.33
3206.44
3221.26
3237.81
3256.11
3276.15
3297.93
3321.39
3346.49
3373.11
3401.17
3430.53
3460.98
3491.51
3523.07
3555.39
3588.06
3620.58
3652.6
3683.85
3713.8
3741.97
3655.05
3624.47
3592.35
3559.01
3524.81
3490.11
3455.34
3420.88
3387.12
3354.61
3327.21
3297.53
3269.09
3242.29
3217.27
3194.1
3172.8
3153.35
3135.73
3119.91
3105.82
3093.4
3082.6
3073.36
3065.62
3059.33
3054.46
3050.96
3048.81
3048.01
3048.55
3050.44
3053.72
3058.38
3064.5
3072.11
3081.26
3092
3104.43
3118.57
3134.52
3152.31
3171.99
3193.59
3217.13
3242.55
3269.83
3298.91
3329.59
3360.88
3393.86
3427.88
3462.67
3497.78
3532.79
3567.32
3600.89
3633.04
3663.35
3691.41
3716.81
3739.22
3758.31
3773.81
3785.52
3793.24
3796.88
3796.19
3791.4
3782.51
3769.63
3752.97
3732.78
3709.35
3683.03
3654.2
3623.3
3590.75
3556.97
3522.42
3487.52
3452.65
3418.19
3384.47
3351.72
3320.13
3289.9
3261.21
3234.17
3208.89
3185.41
3163.8
3144.09
3126.29
3110.41
3096.42
3084.3
3074
3065.47
3058.63
3053.42
3049.77
3047.62
3046.95
3047.71
3049.87
3053.44
3058.43
3064.86
3072.76
3082.16
3093.1
3105.61
3119.72
3135.47
3152.86
3171.91
3192.61
3214.93
3238.85
3264.3
3291.2
3319.47
3348.97
3379.56
3411.08
3443.27
3475.92
3508.74
3541.42
3573.64
3605.01
3635.15
3663.66
3690.12
3714.13
3735.29
3753.26
3767.71
3778.37
3785.03
3787.56
3785.83
3779.93
3769.85
3755.74
3737.79
3716.27
3691.51
3663.87
3633.77
3601.66
3568.02
3533.33
3498.09
3462.75
3427.78
3393.57
3360.5
3328.85
3298.87
3270.73
3244.54
3220.36
3198.21
3178.07
3159.89
3143.6
3129.13
3116.39
3105.3
3095.75
3087.68
3081.02
3075.7
3071.68
3068.89
3067.34
3066.97
3067.77
3069.72
3072.83
3077.1
3082.56
3089.23
3097.16
3106.37
3116.92
3128.88
3142.32
3157.3
3173.89
3192.17
3212.17
3233.93
3257.44
3282.69
3309.6
3338.08
3367.99
3399.15
3431.35
3464.24
3497.54
3530.88
3563.85
3596.03
3626.98
3656.22
3683.31
3707.81
3729.29
3747.4
3761.8
3772.24
3778.55
3780.59
3778.33
3771.9
3761.36
3746.94
3728.91
3707.6
3683.39
3656.7
3627.96
3597.6
3566.07
3533.78
3501.14
3468.52
3436.24
3404.6
3373.84
3344.17
3315.76
3288.73
3263.19
3239.2
3216.81
3196.03
3176.87
3159.33
3143.39
3129.01
3116.17
3104.83
3094.93
3086.45
3079.36
3073.61
3069.21
3066.12
3064.38
3063.99
3064.95
3067.3
3071.07
3076.29
3083
3091.21
3100.98
3112.32
3125.25
3139.8
3155.97
3173.77
3193.19
3214.21
3236.8
3260.91
3286.46
3313.34
3341.39
3370.42
3400.21
3434.33
3466.79
3499.43
3531.92
3563.82
3594.76
3624.3
3651.99
3677.41
3700.16
3719.86
3736.23
3748.97
3757.87
3762.75
3763.43
3761.2
3755.04
3744.79
3730.52
3712.39
3690.68
3665.78
3638.12
3608.18
3576.4
3543.29
3509.35
3475
3440.66
3406.22
3371.89
3339.12
3307.86
3278.19
3250.21
3223.99
3199.6
3177.09
3156.48
3137.77
3120.96
3106.02
3092.9
3081.56
3071.93
3063.94
3057.55
3052.68
3049.27
3047.32
3046.78
3047.65
3049.94
3053.64
3058.81
3065.47
3073.68
3083.47
3094.89
3107.98
3122.79
3139.33
3157.62
3177.67
3199.44
3222.9
3248.01
3274.64
3302.72
3332.1
3362.57
3393.15
3424.74
3457.12
3489.85
3522.44
3554.53
3585.85
3615.89
3644.15
3557.32
3526.63
3494.4
3460.95
3426.66
3391.86
3357
3322.45
3288.6
3255.91
3228.82
3198.98
3170.49
3143.67
3118.66
3095.49
3074.2
3054.77
3037.17
3021.37
3007.3
2994.9
2984.12
2974.89
2967.17
2960.89
2956.03
2952.54
2950.39
2949.6
2950.13
2952.02
2955.29
2959.94
2966.05
2973.64
2982.77
2993.5
3005.9
3020.03
3035.95
3053.72
3073.39
3094.98
3118.51
3143.93
3171.22
3200.3
3230.98
3262.4
3295.41
3329.48
3364.34
3399.54
3434.65
3469.28
3502.96
3535.23
3565.65
3593.82
3619.33
3641.83
3661
3676.58
3688.34
3696.09
3699.75
3699.06
3694.24
3685.31
3672.37
3655.64
3635.35
3611.82
3585.39
3556.45
3525.43
3492.76
3458.88
3424.23
3389.24
3354.29
3319.76
3286
3253.2
3221.58
3191.33
3162.62
3135.58
3110.28
3086.81
3065.2
3045.49
3027.7
3011.83
2997.86
2985.75
2975.47
2966.96
2960.14
2954.94
2951.31
2949.18
2948.51
2949.27
2951.43
2955
2959.98
2966.4
2974.29
2983.68
2994.61
3007.11
3021.21
3036.95
3054.33
3073.38
3094.07
3116.39
3140.31
3165.77
3192.69
3220.98
3250.5
3281.13
3312.69
3344.94
3377.64
3410.53
3443.3
3475.6
3507.07
3537.32
3565.94
3592.51
3616.62
3637.89
3655.94
3670.47
3681.19
3687.9
3690.44
3688.72
3682.79
3672.67
3658.49
3640.46
3618.85
3593.97
3566.21
3535.99
3503.76
3470
3435.19
3399.83
3364.4
3329.34
3295.06
3261.93
3230.24
3200.23
3172.08
3145.89
3121.72
3099.58
3079.46
3061.31
3045.05
3030.6
3017.89
3006.81
2997.29
2989.24
2982.6
2977.29
2973.28
2970.5
2968.96
2968.6
2969.39
2971.34
2974.45
2978.72
2984.17
2990.83
2998.74
3007.94
3018.47
3030.41
3043.83
3058.78
3075.36
3093.62
3113.61
3135.35
3158.86
3184.11
3211.03
3239.54
3269.48
3300.69
3332.94
3365.91
3399.28
3432.71
3465.79
3498.08
3529.15
3558.51
3585.72
3610.33
3631.93
3650.12
3664.6
3675.1
3681.43
3683.49
3681.22
3674.74
3664.14
3649.64
3631.51
3610.1
3585.77
3558.97
3530.11
3499.64
3468
3435.62
3402.9
3370.2
3337.86
3306.16
3275.37
3245.67
3217.24
3190.2
3164.65
3140.66
3118.27
3097.5
3078.35
3060.82
3044.89
3030.53
3017.7
3006.37
2996.49
2988.02
2980.93
2975.19
2970.79
2967.7
2965.96
2965.57
2966.52
2968.87
2972.63
2977.84
2984.53
2992.74
3002.49
3013.82
3026.75
3041.29
3057.45
3075.25
3094.66
3115.68
3138.28
3162.4
3187.96
3214.87
3242.96
3272.06
3301.99
3335.83
3368.44
3401.2
3433.78
3465.78
3496.83
3526.48
3554.28
3579.81
3602.66
3622.47
3638.93
3651.75
3660.72
3665.63
3666.33
3664.11
3657.92
3647.62
3633.28
3615.05
3593.23
3568.21
3540.42
3510.35
3478.45
3445.23
3411.18
3376.74
3342.31
3307.78
3273.4
3240.59
3209.3
3179.61
3151.62
3125.39
3101
3078.49
3057.88
3039.19
3022.39
3007.46
2994.36
2983.04
2973.43
2965.46
2959.08
2954.23
2950.83
2948.88
2948.35
2949.22
2951.5
2955.19
2960.35
2967
2975.19
2984.97
2996.37
3009.45
3024.25
3040.78
3059.07
3079.1
3100.88
3124.34
3149.45
3176.1
3204.19
3233.6
3264.09
3294.74
3326.37
3358.81
3391.61
3424.28
3456.47
3487.88
3518.02
3546.38
3459.65
3428.83
3396.48
3362.91
3328.49
3293.58
3258.62
3223.97
3190
3157.12
3130.37
3100.35
3071.8
3044.97
3019.95
2996.8
2975.52
2956.11
2938.54
2922.75
2908.7
2896.33
2885.57
2876.37
2868.66
2862.4
2857.54
2854.06
2851.92
2851.13
2851.66
2853.54
2856.8
2861.45
2867.54
2875.11
2884.22
2894.93
2907.31
2921.41
2937.31
2955.06
2974.71
2996.29
3019.81
3045.23
3072.52
3101.62
3132.3
3163.86
3196.89
3231.02
3265.97
3301.27
3336.5
3371.25
3405.06
3437.46
3468.02
3496.32
3521.95
3544.56
3563.83
3579.48
3591.31
3599.11
3602.78
3602.1
3597.24
3588.26
3575.25
3558.43
3538.04
3514.39
3487.83
3458.75
3427.59
3394.8
3360.79
3326.03
3290.93
3255.89
3221.28
3187.46
3154.62
3122.95
3092.68
3063.95
3036.89
3011.59
2988.12
2966.51
2946.81
2929.03
2913.17
2899.21
2887.13
2876.87
2868.38
2861.58
2856.41
2852.79
2850.67
2850.02
2850.78
2852.94
2856.5
2861.48
2867.89
2875.77
2885.15
2896.06
2908.54
2922.63
2938.36
2955.73
2974.77
2995.46
3017.78
3041.71
3067.17
3094.11
3122.42
3151.97
3182.64
3214.25
3246.55
3279.33
3312.3
3345.16
3377.57
3409.16
3439.53
3468.28
3494.97
3519.21
3540.6
3558.76
3573.37
3584.17
3590.92
3593.48
3591.77
3585.81
3575.64
3561.38
3543.26
3521.53
3496.53
3468.63
3438.27
3405.89
3371.98
3337.04
3301.55
3266
3230.84
3196.48
3163.28
3131.54
3101.5
3073.34
3047.14
3022.99
3000.87
2980.77
2962.65
2946.42
2932
2919.32
2908.27
2898.77
2890.75
2884.12
2878.83
2874.83
2872.07
2870.53
2870.17
2870.97
2872.92
2876.02
2880.28
2885.72
2892.38
2900.27
2909.45
2919.97
2931.89
2945.27
2960.2
2976.75
2994.99
3014.96
3036.7
3060.2
3085.45
3112.39
3140.92
3170.9
3202.16
3234.47
3267.52
3301
3334.54
3367.74
3400.16
3431.36
3460.87
3488.22
3512.97
3534.68
3552.99
3567.55
3578.12
3584.49
3586.55
3584.27
3577.74
3567.07
3552.48
3534.24
3512.69
3488.24
3461.3
3432.3
3401.7
3369.94
3337.45
3304.62
3271.84
3239.43
3207.67
3176.83
3147.1
3118.65
3091.59
3066.04
3042.05
3019.66
2998.9
2979.76
2962.25
2946.33
2931.98
2919.17
2907.85
2897.98
2889.53
2882.45
2876.72
2872.32
2869.24
2867.49
2867.09
2868.04
2870.37
2874.12
2879.32
2886
2894.2
2903.94
2915.26
2928.18
2942.71
2958.86
2976.65
2996.06
3017.09
3039.69
3063.81
3089.39
3116.33
3144.46
3173.65
3203.72
3237.28
3270.05
3302.94
3335.63
3367.75
3398.92
3428.7
3456.62
3482.29
3505.27
3525.19
3541.76
3554.68
3563.72
3568.68
3569.39
3567.19
3560.97
3550.61
3536.18
3517.84
3495.88
3470.73
3442.8
3412.57
3380.53
3347.17
3312.99
3278.44
3243.92
3209.28
3174.85
3141.98
3110.66
3080.95
3052.94
3026.7
3002.31
2979.8
2959.21
2940.52
2923.74
2908.83
2895.76
2884.45
2874.86
2866.92
2860.56
2855.72
2852.34
2850.39
2849.86
2850.73
2853
2856.69
2861.83
2868.47
2876.64
2886.4
2897.79
2910.85
2925.63
2942.16
2960.43
2980.46
3002.23
3025.7
3050.82
3077.49
3105.6
3135.03
3165.56
3196.27
3227.94
3260.46
3293.35
3326.12
3358.41
3389.93
3420.19
3448.67
3362.04
3331.07
3298.58
3264.87
3230.32
3195.28
3160.2
3125.44
3091.35
3058.25
3031.85
3001.63
2973.03
2946.17
2921.16
2898.02
2876.76
2857.37
2839.82
2824.06
2810.04
2797.7
2786.96
2777.78
2770.09
2763.85
2759.01
2755.53
2753.4
2752.6
2753.14
2755.01
2758.26
2762.9
2768.97
2776.52
2785.6
2796.29
2808.64
2822.71
2838.59
2856.32
2875.94
2897.51
2921.02
2946.44
2973.74
3002.85
3033.54
3065.24
3098.31
3132.52
3167.56
3202.97
3238.33
3273.23
3307.19
3339.74
3370.46
3398.9
3424.67
3447.41
3466.79
3482.54
3494.43
3502.28
3505.97
3505.29
3500.41
3491.37
3478.28
3461.35
3440.84
3417.05
3390.34
3361.11
3329.8
3296.85
3262.7
3227.8
3192.58
3157.43
3122.74
3088.86
3055.96
3024.25
2993.94
2965.2
2938.13
2912.82
2889.34
2867.74
2848.05
2830.28
2814.43
2800.5
2788.43
2778.2
2769.73
2762.96
2757.81
2754.21
2752.11
2751.47
2752.23
2754.39
2757.95
2762.92
2769.32
2777.18
2786.55
2797.44
2809.91
2823.99
2839.7
2857.06
2876.09
2896.77
2919.1
2943.03
2968.51
2995.46
3023.79
3053.38
3084.09
3115.76
3148.13
3180.99
3214.06
3247.03
3279.56
3311.28
3341.79
3370.68
3397.52
3421.91
3443.43
3461.71
3476.43
3487.3
3494.11
3496.7
3494.99
3488.99
3478.76
3464.42
3446.19
3424.33
3399.18
3371.13
3340.6
3308.05
3273.98
3238.88
3203.24
3167.56
3132.28
3097.82
3064.55
3032.76
3002.69
2974.5
2948.31
2924.16
2902.07
2882
2863.9
2847.71
2833.33
2820.68
2809.66
2800.2
2792.2
2785.59
2780.32
2776.33
2773.59
2772.05
2771.7
2772.51
2774.46
2777.55
2781.81
2787.24
2793.88
2801.75
2810.92
2821.41
2833.3
2846.65
2861.55
2878.08
2896.29
2916.24
2937.96
2961.46
2986.71
3013.66
3042.22
3072.25
3103.57
3135.96
3169.1
3202.69
3236.35
3269.69
3302.26
3333.62
3363.29
3390.8
3415.7
3437.56
3455.99
3470.66
3481.3
3487.71
3489.78
3487.48
3480.9
3470.15
3455.45
3437.08
3415.39
3390.79
3363.68
3334.53
3303.79
3271.88
3239.26
3206.32
3173.44
3140.95
3109.13
3078.23
3048.46
3019.98
2992.91
2967.35
2943.36
2920.98
2900.23
2881.1
2863.6
2847.7
2833.37
2820.58
2809.28
2799.42
2790.98
2783.92
2778.19
2773.8
2770.72
2768.97
2768.56
2769.5
2771.82
2775.56
2780.75
2787.42
2795.6
2805.33
2816.64
2829.54
2844.06
2860.2
2877.98
2897.39
2918.42
2941.02
2965.16
2990.76
3017.73
3045.91
3075.18
3105.41
3138.69
3171.63
3204.66
3237.48
3269.73
3301.03
3330.96
3359.04
3384.85
3407.97
3428.03
3444.73
3457.75
3466.88
3471.9
3472.63
3470.44
3464.19
3453.76
3439.22
3420.75
3398.66
3373.33
3345.23
3314.84
3282.63
3249.11
3214.8
3180.12
3145.49
3110.72
3076.22
3043.31
3011.94
2982.2
2954.18
2927.93
2903.54
2881.03
2860.45
2841.78
2825.01
2810.13
2797.08
2785.8
2776.23
2768.31
2761.97
2757.15
2753.78
2751.85
2751.32
2752.19
2754.45
2758.13
2763.25
2769.88
2778.03
2787.77
2799.14
2812.18
2826.95
2843.45
2861.71
2881.74
2903.51
2926.98
2952.11
2978.8
3006.93
3036.4
3066.97
3097.74
3129.47
3162.07
3195.07
3227.95
3260.35
3292
3322.39
3351.01
3264.49
3233.36
3200.7
3166.83
3132.13
3096.95
3061.74
3026.85
2992.64
2959.34
2933.22
2902.82
2874.16
2847.29
2822.28
2799.15
2777.91
2758.55
2741.03
2725.3
2711.31
2698.99
2688.29
2679.13
2671.46
2665.24
2660.41
2656.95
2654.83
2654.03
2654.56
2656.43
2659.67
2664.29
2670.34
2677.87
2686.92
2697.58
2709.9
2723.95
2739.79
2757.49
2777.09
2798.64
2822.14
2847.56
2874.87
2903.99
2934.72
2966.54
2999.67
3033.95
3069.1
3104.65
3140.16
3175.22
3209.35
3242.07
3272.96
3301.57
3327.49
3350.38
3369.88
3385.73
3397.71
3405.61
3409.33
3408.65
3403.73
3394.62
3381.44
3364.4
3343.75
3319.81
3292.93
3263.53
3232.04
3198.92
3164.61
3129.56
3094.2
3058.94
3024.14
2990.19
2957.23
2925.47
2895.13
2866.36
2839.27
2813.96
2790.48
2768.89
2749.2
2731.44
2715.61
2701.7
2689.66
2679.46
2671.02
2664.27
2659.15
2655.58
2653.49
2652.86
2653.63
2655.79
2659.34
2664.3
2670.69
2678.54
2687.88
2698.76
2711.21
2725.27
2740.96
2758.31
2777.33
2798.01
2820.34
2844.27
2869.76
2896.74
2925.1
2954.73
2985.49
3017.22
3049.67
3082.62
3115.79
3148.88
3181.55
3213.41
3244.08
3273.14
3300.15
3324.7
3346.37
3364.79
3379.63
3390.59
3397.46
3400.08
3398.37
3392.34
3382.04
3367.6
3349.25
3327.24
3301.93
3273.7
3242.98
3210.25
3175.99
3140.71
3104.91
3069.07
3033.66
2999.09
2965.73
2933.88
2903.77
2875.57
2849.38
2825.25
2803.18
2783.14
2765.08
2748.92
2734.58
2721.97
2710.99
2701.56
2693.59
2687.01
2681.76
2677.79
2675.05
2673.53
2673.18
2674
2675.94
2679.04
2683.28
2688.7
2695.32
2703.18
2712.32
2722.79
2734.64
2747.97
2762.84
2779.33
2797.51
2817.43
2839.14
2862.63
2887.89
2914.86
2943.45
2973.53
3004.91
3037.39
3070.64
3104.35
3138.15
3171.64
3204.39
3235.93
3265.78
3293.47
3318.55
3340.56
3359.13
3373.92
3384.64
3391.1
3393.19
3390.87
3384.22
3373.38
3358.55
3340.04
3318.19
3293.41
3266.13
3236.81
3205.89
3173.83
3141.07
3108
3075
3042.41
3010.52
2979.57
2949.76
2921.25
2894.16
2868.59
2844.6
2822.22
2801.48
2782.37
2764.89
2749.01
2734.69
2721.92
2710.64
2700.81
2692.38
2685.33
2679.61
2675.22
2672.14
2670.39
2669.97
2670.9
2673.22
2676.94
2682.12
2688.77
2696.94
2706.65
2717.94
2730.83
2745.34
2761.47
2779.25
2798.65
2819.67
2842.28
2866.43
2892.06
2919.06
2947.3
2976.66
3007.04
3040.05
3073.19
3106.36
3139.32
3171.71
3203.18
3233.26
3261.51
3287.49
3310.78
3331
3347.83
3360.98
3370.2
3375.28
3376.04
3373.86
3367.57
3357.06
3342.41
3323.8
3301.54
3276.03
3247.74
3217.15
3184.76
3151.06
3116.58
3081.76
3047
3012.1
2977.53
2944.55
2913.15
2883.38
2855.33
2829.08
2804.68
2782.18
2761.6
2742.95
2726.21
2711.35
2698.32
2687.07
2677.53
2669.64
2663.32
2658.52
2655.17
2653.25
2652.72
2653.59
2655.84
2659.51
2664.62
2671.22
2679.35
2689.07
2700.42
2713.44
2728.18
2744.67
2762.92
2782.94
2804.71
2828.18
2853.32
2880.03
2908.19
2937.7
2968.33
2999.14
3030.94
3063.65
3096.76
3129.76
3162.29
3194.09
3224.63
3253.41
3167
3135.69
3102.85
3068.8
3033.93
2998.59
2963.23
2928.22
2893.88
2860.41
2834.44
2803.91
2775.2
2748.32
2723.31
2700.2
2678.98
2659.65
2642.16
2626.47
2612.51
2600.22
2589.55
2580.42
2572.78
2566.57
2561.77
2558.32
2556.2
2555.4
2555.93
2557.79
2561.02
2565.62
2571.65
2579.16
2588.18
2598.8
2611.09
2625.1
2640.92
2658.58
2678.16
2699.69
2723.17
2748.59
2775.91
2805.06
2835.82
2867.75
2900.95
2935.33
2970.61
3006.31
3041.98
3077.21
3111.53
3144.45
3175.53
3204.32
3230.42
3253.47
3273.11
3289.08
3301.15
3309.11
3312.86
3312.17
3307.21
3298.04
3284.75
3267.58
3246.78
3222.66
3195.59
3166
3134.32
3101
3066.51
3031.3
2995.79
2960.39
2925.49
2891.46
2858.43
2826.62
2796.23
2767.44
2740.34
2715.02
2691.54
2669.95
2650.27
2632.53
2616.72
2602.83
2590.82
2580.64
2572.23
2565.52
2560.43
2556.88
2554.82
2554.2
2554.97
2557.14
2560.68
2565.63
2572
2579.83
2589.16
2600.02
2612.45
2626.48
2642.16
2659.5
2678.5
2699.18
2721.5
2745.44
2770.95
2797.95
2826.34
2856.02
2886.83
2918.62
2951.16
2984.21
3017.5
3050.73
3083.55
3115.58
3146.43