/*--------------------------------*- C++ -*----------------------------------*\
| =========                 |                                                 |
| \\      /  F ield         | OpenFOAM: The Open Source CFD Toolbox           |
|  \\    /   O peration     | Version:  3.0.1                                 |
|   \\  /    A nd           | Web:      www.OpenFOAM.org                      |
|    \\/     M anipulation  |                                                 |
\*---------------------------------------------------------------------------*/
FoamFile
{
    version     2.0;
    format      ascii;
    class       volVectorField;
    location    "54";
    object      U;
}
// * * * * * * * * * * * * * * * * * * * * * * * * * * * * * * * * * * * * * //

dimensions      [0 1 -1 0 0 0 0];

internalField   nonuniform List<vector> 
21420
(
(-0.128417 0.000995217 0)
(-0.136634 0.000894564 0)
(-0.145206 0.000803227 0)
(-0.152845 0.000714022 0)
(-0.159595 0.00062509 0)
(-0.165484 0.000542316 0)
(-0.170546 0.000460895 0)
(-0.174813 0.00038406 0)
(-0.178312 0.000309431 0)
(-0.181067 0.000236439 0)
(-0.183107 0.000164959 0)
(-0.18443 9.52672e-05 0)
(-0.185049 2.8417e-05 0)
(-0.18499 -4.13741e-05 0)
(-0.18422 -0.000112171 0)
(-0.182747 -0.000183031 0)
(-0.180549 -0.000254862 0)
(-0.177611 -0.0003294 0)
(-0.173915 -0.000405566 0)
(-0.169434 -0.000483991 0)
(-0.164139 -0.000567846 0)
(-0.157999 -0.000652097 0)
(-0.150978 -0.000739119 0)
(-0.143042 -0.000835009 0)
(-0.134158 -0.00092774 0)
(-0.124296 -0.00103165 0)
(-0.113437 -0.00112776 0)
(-0.101563 -0.00122365 0)
(-0.088664 -0.00133458 0)
(-0.0747515 -0.00142667 0)
(-0.059853 -0.00151358 0)
(-0.0439905 -0.00161927 0)
(-0.027199 -0.00169012 0)
(-0.00969083 -0.00178412 0)
(0.00838223 -0.00182802 0)
(0.0269722 -0.00185604 0)
(0.0459168 -0.00190234 0)
(0.0650262 -0.00189417 0)
(0.0840505 -0.00186074 0)
(0.102749 -0.0018368 0)
(0.120884 -0.00175718 0)
(0.138196 -0.00167648 0)
(0.154433 -0.00154885 0)
(0.16933 -0.00139682 0)
(0.182641 -0.00123357 0)
(0.194155 -0.00104192 0)
(0.203678 -0.00083222 0)
(0.211039 -0.000611977 0)
(0.216121 -0.000380509 0)
(0.218851 -0.000137583 0)
(0.219174 9.63314e-05 0)
(0.217028 0.000343414 0)
(0.212372 0.000567085 0)
(0.205489 0.000787069 0)
(0.196407 0.00100498 0)
(0.185291 0.00117941 0)
(0.172366 0.00135216 0)
(0.157834 0.00150927 0)
(0.141928 0.0016169 0)
(0.124882 0.00172241 0)
(0.106991 0.00178156 0)
(0.0884841 0.00183653 0)
(0.0696084 0.00186717 0)
(0.0506265 0.00186285 0)
(0.0316637 0.00185073 0)
(0.0130396 0.00181758 0)
(-0.00470193 0.00177889 0)
(-0.021885 0.00171546 0)
(-0.0387497 0.00163698 0)
(-0.0549003 0.00156 0)
(-0.0702066 0.00146869 0)
(-0.084611 0.00137588 0)
(-0.0981051 0.0012843 0)
(-0.110559 0.00118161 0)
(-0.122022 0.00108095 0)
(-0.132537 0.000985309 0)
(-0.142037 0.000878827 0)
(-0.150529 0.00079342 0)
(-0.158013 0.000690647 0)
(-0.164573 0.000594472 0)
(-0.170241 0.000505783 0)
(-0.1749 0.00040686 0)
(-0.17856 0.000318748 0)
(-0.181353 0.000228772 0)
(-0.183239 0.000135995 0)
(-0.184204 4.50885e-05 0)
(-0.184315 -4.14123e-05 0)
(-0.183462 -0.000119082 0)
(-0.181881 -0.00020013 0)
(-0.179568 -0.000269264 0)
(-0.176558 -0.000338313 0)
(-0.172871 -0.000399804 0)
(-0.168503 -0.000463963 0)
(-0.163524 -0.00052769 0)
(-0.157901 -0.000589682 0)
(-0.151632 -0.000656184 0)
(-0.144683 -0.000723952 0)
(-0.137035 -0.000792917 0)
(-0.128667 -0.000866418 0)
(-0.119527 -0.000945097 0)
(-0.109584 -0.00102988 0)
(-0.0987798 -0.00111 0)
(-0.0871266 -0.00119542 0)
(-0.0746648 -0.00127273 0)
(-0.0614024 -0.00135448 0)
(-0.0473418 -0.00143044 0)
(-0.0325382 -0.00150468 0)
(-0.0170448 -0.00156483 0)
(-0.000947182 -0.00161897 0)
(0.0156545 -0.00166789 0)
(0.0326624 -0.00170378 0)
(0.0499329 -0.00171873 0)
(0.0673039 -0.00172084 0)
(0.0846037 -0.0017075 0)
(0.101641 -0.0016705 0)
(0.118207 -0.00161329 0)
(0.134081 -0.00153418 0)
(0.149039 -0.00142552 0)
(0.162819 -0.00129889 0)
(0.175173 -0.00114468 0)
(0.185879 -0.000974572 0)
(0.194711 -0.000778125 0)
(0.201473 -0.000562084 0)
(0.206001 -0.000333989 0)
(0.208139 -9.69406e-05 0)
(0.207901 0.000143951 0)
(0.205132 0.000393351 0)
(0.199909 0.000636724 0)
(0.192361 0.000861279 0)
(0.182603 0.00106797 0)
(0.170808 0.00126774 0)
(0.15716 0.00143729 0)
(0.141907 0.00158406 0)
(0.125314 0.00170563 0)
(0.10766 0.00179556 0)
(0.0892249 0.00186165 0)
(0.0702833 0.0018954 0)
(0.0511106 0.00190134 0)
(0.0319931 0.00188954 0)
(0.0131465 0.00185312 0)
(-0.0052616 0.00179844 0)
(-0.0230139 0.00173066 0)
(-0.0399972 0.00164058 0)
(-0.0560829 0.00154761 0)
(-0.0711257 0.00144154 0)
(-0.0851075 0.00133502 0)
(-0.0980108 0.00122638 0)
(-0.109809 0.00111173 0)
(-0.120486 0.00101262 0)
(-0.130104 0.000901804 0)
(-0.138698 0.000799836 0)
(-0.14629 0.000703144 0)
(-0.152931 0.000619528 0)
(-0.158704 0.000535769 0)
(-0.163701 0.000455547 0)
(-0.167915 0.000378477 0)
(-0.171385 0.000313927 0)
(-0.17419 0.000241478 0)
(-0.176322 0.000174143 0)
(-0.177801 0.000125814 0)
(-0.178712 6.5801e-05 0)
(-0.179123 1.29634e-05 0)
(-0.178935 -4.42194e-05 0)
(-0.178221 -9.30187e-05 0)
(-0.176994 -0.00014874 0)
(-0.175174 -0.00020874 0)
(-0.172736 -0.000273364 0)
(-0.169654 -0.000337163 0)
(-0.165939 -0.000399734 0)
(-0.161537 -0.000466387 0)
(-0.156454 -0.000538855 0)
(-0.150649 -0.00061048 0)
(-0.144109 -0.000684029 0)
(-0.136799 -0.000761768 0)
(-0.128692 -0.000845188 0)
(-0.119743 -0.000927712 0)
(-0.109967 -0.00101046 0)
(-0.0993585 -0.00109007 0)
(-0.0879392 -0.00117543 0)
(-0.0756554 -0.00126137 0)
(-0.0625242 -0.001337 0)
(-0.0485954 -0.00142263 0)
(-0.0338833 -0.00149348 0)
(-0.0184534 -0.00156362 0)
(-0.00238213 -0.0016198 0)
(0.0141892 -0.00166682 0)
(0.0311631 -0.00169819 0)
(0.0483819 -0.00171447 0)
(0.0656581 -0.00170842 0)
(0.0827881 -0.00168348 0)
(0.0995351 -0.0016331 0)
(0.115664 -0.00156176 0)
(0.130934 -0.00146389 0)
(0.145116 -0.0013446 0)
(0.158005 -0.00120896 0)
(0.169346 -0.00103672 0)
(0.178913 -0.000856428 0)
(0.186496 -0.000641706 0)
(0.191904 -0.000423713 0)
(0.194995 -0.000191005 0)
(0.195695 4.74172e-05 0)
(0.193979 0.000291097 0)
(0.189702 0.00053794 0)
(0.18313 0.000764837 0)
(0.174324 0.000975943 0)
(0.163457 0.00117289 0)
(0.150782 0.00134055 0)
(0.136554 0.00147993 0)
(0.121026 0.0015981 0)
(0.104474 0.00168574 0)
(0.0871692 0.0017464 0)
(0.0693874 0.00177771 0)
(0.0514229 0.00178652 0)
(0.0334861 0.00176972 0)
(0.0157865 0.00173898 0)
(-0.00149757 0.00169615 0)
(-0.0182568 0.001628 0)
(-0.0343234 0.00155467 0)
(-0.0495723 0.00147952 0)
(-0.0639864 0.00138665 0)
(-0.0775058 0.00129394 0)
(-0.0900539 0.00119819 0)
(-0.101627 0.00109759 0)
(-0.112222 0.0010083 0)
(-0.121877 0.000910828 0)
(-0.130612 0.000820837 0)
(-0.138437 0.000735187 0)
(-0.14541 0.000650576 0)
(-0.151571 0.000568774 0)
(-0.156933 0.000494649 0)
(-0.1615 0.000416172 0)
(-0.165352 0.000348291 0)
(-0.16851 0.000276164 0)
(-0.170921 0.000205872 0)
(-0.172645 0.000140566 0)
(-0.173678 7.05355e-05 0)
(-0.174077 4.59982e-06 0)
(-0.173861 -4.25991e-05 0)
(-0.173079 -0.000109292 0)
(-0.171757 -0.00016288 0)
(-0.169863 -0.00020446 0)
(-0.167454 -0.000259499 0)
(-0.164575 -0.000314246 0)
(-0.161129 -0.00036839 0)
(-0.157116 -0.000422935 0)
(-0.152554 -0.000480072 0)
(-0.147412 -0.000539561 0)
(-0.141602 -0.000605326 0)
(-0.135128 -0.000675984 0)
(-0.127937 -0.000749686 0)
(-0.119997 -0.000821691 0)
(-0.111305 -0.000901989 0)
(-0.101833 -0.000976298 0)
(-0.0915818 -0.00105549 0)
(-0.0805501 -0.00113012 0)
(-0.0687515 -0.00120988 0)
(-0.0561834 -0.00128055 0)
(-0.042921 -0.00134821 0)
(-0.0289966 -0.00141182 0)
(-0.0144613 -0.00146943 0)
(0.000625491 -0.0015154 0)
(0.0161611 -0.00155628 0)
(0.0320019 -0.0015787 0)
(0.0480021 -0.00159095 0)
(0.0640417 -0.00158295 0)
(0.0799565 -0.00155911 0)
(0.0955245 -0.00151378 0)
(0.110489 -0.00145256 0)
(0.1247 -0.00135671 0)
(0.137948 -0.00124719 0)
(0.14989 -0.00112175 0)
(0.160442 -0.000966533 0)
(0.169449 -0.000803125 0)
(0.17669 -0.000621779 0)
(0.182056 -0.000439428 0)
(0.185582 -0.000245919 0)
(0.187078 -5.50401e-05 0)
(0.186671 0.000147349 0)
(0.184278 0.000331716 0)
(0.180057 0.000521172 0)
(0.174015 0.000693156 0)
(0.166192 0.000855419 0)
(0.156933 0.00102508 0)
(0.145998 0.00116661 0)
(0.133637 0.00128694 0)
(0.120163 0.00140937 0)
(0.105605 0.0015036 0)
(0.0901496 0.00155837 0)
(0.074139 0.00161784 0)
(0.0579242 0.00161738 0)
(0.0414716 0.00161916 0)
(0.0251215 0.00159768 0)
(0.00959744 0.00153972 0)
(-0.00521307 0.00148709 0)
(-0.0195001 0.00141212 0)
(-0.0331049 0.00132445 0)
(-0.0458705 0.00123482 0)
(-0.0577144 0.0011388 0)
(-0.068597 0.00103977 0)
(-0.0785134 0.000943401 0)
(-0.087477 0.00084768 0)
(-0.0955199 0.000757642 0)
(-0.102677 0.000671069 0)
(-0.109009 0.000591199 0)
(-0.11458 0.000519027 0)
(-0.119451 0.000453399 0)
(-0.1237 0.000393616 0)
(-0.127387 0.000340011 0)
(-0.13057 0.000291523 0)
(-0.13329 0.000247474 0)
(-0.13557 0.000206003 0)
(-0.137444 0.00016465 0)
(-0.138914 0.000122599 0)
(-0.139943 8.05247e-05 0)
(-0.140516 3.54937e-05 0)
(-0.140618 -1.54294e-05 0)
(-0.140173 -7.29454e-05 0)
(-0.139143 -0.000135875 0)
(-0.137437 -0.000203885 0)
(-0.134999 -0.000280202 0)
(-0.13177 -0.000361617 0)
(-0.127675 -0.000449038 0)
(-0.122661 -0.000544926 0)
(-0.116676 -0.000641849 0)
(-0.109677 -0.000747955 0)
(-0.101642 -0.000850088 0)
(-0.0925488 -0.000951825 0)
(-0.0823898 -0.00106333 0)
(-0.0711903 -0.00116061 0)
(-0.0589828 -0.00125268 0)
(-0.0458085 -0.00135609 0)
(-0.0317292 -0.00143309 0)
(-0.0168475 -0.00149857 0)
(-0.00130827 -0.00157605 0)
(0.0147836 -0.00161575 0)
(0.0313243 -0.0016675 0)
(0.0481393 -0.00167584 0)
(0.0650445 -0.00166524 0)
(0.0818619 -0.00166471 0)
(0.098404 -0.0016177 0)
(0.114469 -0.00155154 0)
(0.129863 -0.00149046 0)
(0.144393 -0.00138745 0)
(0.157872 -0.00128526 0)
(0.170121 -0.00114849 0)
(0.180974 -0.000998359 0)
(0.190281 -0.000843899 0)
(0.197919 -0.000670205 0)
(0.203781 -0.000489305 0)
(0.207789 -0.000304009 0)
(0.209905 -0.000112434 0)
(0.210075 7.91869e-05 0)
(0.208373 0.000269183 0)
(0.204714 0.000456882 0)
(0.199223 0.000632026 0)
(0.191977 0.00080279 0)
(0.181892 0.000963769 0)
(-0.128456 0.00298559 0)
(-0.136671 0.00268361 0)
(-0.145242 0.00240961 0)
(-0.15288 0.002142 0)
(-0.159628 0.00187522 0)
(-0.165516 0.00162693 0)
(-0.170577 0.00138271 0)
(-0.174843 0.0011522 0)
(-0.178341 0.000928337 0)
(-0.181095 0.000709399 0)
(-0.183134 0.000495038 0)
(-0.184458 0.000285761 0)
(-0.185076 8.564e-05 0)
(-0.185018 -0.000123862 0)
(-0.184248 -0.00033634 0)
(-0.182776 -0.000548915 0)
(-0.180578 -0.000764384 0)
(-0.177641 -0.000987984 0)
(-0.173947 -0.00121652 0)
(-0.169466 -0.00145177 0)
(-0.164173 -0.00170333 0)
(-0.158035 -0.00195611 0)
(-0.151015 -0.00221718 0)
(-0.14308 -0.00250485 0)
(-0.134197 -0.00278307 0)
(-0.124337 -0.00309485 0)
(-0.113479 -0.00338323 0)
(-0.101605 -0.00367092 0)
(-0.0887062 -0.00400379 0)
(-0.0747927 -0.00428014 0)
(-0.0598924 -0.00454092 0)
(-0.044028 -0.00485816 0)
(-0.0272334 -0.00507118 0)
(-0.00972065 -0.00535245 0)
(0.00835872 -0.00548445 0)
(0.0269544 -0.00556876 0)
(0.0459066 -0.0057079 0)
(0.0650243 -0.00568345 0)
(0.0840573 -0.00558323 0)
(0.102766 -0.00551158 0)
(0.120911 -0.00527278 0)
(0.138234 -0.00503069 0)
(0.154481 -0.00464766 0)
(0.169388 -0.00419206 0)
(0.18271 -0.00370221 0)
(0.194232 -0.0031276 0)
(0.203763 -0.00249682 0)
(0.211131 -0.00183481 0)
(0.216219 -0.00113815 0)
(0.218955 -0.000411447 0)
(0.219279 0.000283912 0)
(0.217119 0.00103014 0)
(0.212469 0.00170083 0)
(0.205584 0.00236138 0)
(0.196499 0.00301535 0)
(0.185376 0.0035388 0)
(0.172444 0.00405716 0)
(0.157904 0.00452856 0)
(0.141989 0.00485155 0)
(0.124934 0.00516793 0)
(0.107032 0.00534569 0)
(0.0885161 0.00551096 0)
(0.0696301 0.00560274 0)
(0.0506377 0.00558926 0)
(0.0316648 0.00555257 0)
(0.0130355 0.00545505 0)
(-0.00471498 0.00533803 0)
(-0.021909 0.00514765 0)
(-0.0387799 0.00491202 0)
(-0.0549369 0.00468095 0)
(-0.0702478 0.0044076 0)
(-0.0846579 0.00412986 0)
(-0.098158 0.0038489 0)
(-0.110611 0.00354588 0)
(-0.122078 0.00324807 0)
(-0.132597 0.00295466 0)
(-0.142094 0.00263753 0)
(-0.150591 0.00238006 0)
(-0.158074 0.00207177 0)
(-0.164633 0.00178856 0)
(-0.170304 0.00151516 0)
(-0.174959 0.00121853 0)
(-0.178622 0.000956515 0)
(-0.181412 0.00068177 0)
(-0.183298 0.000406292 0)
(-0.184263 0.000139587 0)
(-0.184373 -0.00012909 0)
(-0.183519 -0.000364211 0)
(-0.181925 -0.000594245 0)
(-0.179618 -0.000810546 0)
(-0.17661 -0.00101812 0)
(-0.172927 -0.00120449 0)
(-0.168556 -0.00139525 0)
(-0.163581 -0.00157987 0)
(-0.157969 -0.00177753 0)
(-0.15169 -0.00196192 0)
(-0.144752 -0.00216814 0)
(-0.137116 -0.00238214 0)
(-0.128746 -0.00260117 0)
(-0.119615 -0.00284597 0)
(-0.109663 -0.00308864 0)
(-0.0988613 -0.00332995 0)
(-0.0872065 -0.00358113 0)
(-0.0747534 -0.00382761 0)
(-0.0614798 -0.00407037 0)
(-0.047408 -0.00429888 0)
(-0.0325949 -0.00450633 0)
(-0.0171052 -0.00470576 0)
(-0.000995629 -0.00486527 0)
(0.015618 -0.00500358 0)
(0.0326318 -0.0051034 0)
(0.0499029 -0.00516712 0)
(0.0672864 -0.0051751 0)
(0.0846003 -0.00511929 0)
(0.10165 -0.00501565 0)
(0.118231 -0.00484014 0)
(0.134113 -0.00460575 0)
(0.149074 -0.004284 0)
(0.162857 -0.0039091 0)
(0.175224 -0.00344366 0)
(0.185941 -0.00291993 0)
(0.194777 -0.0023304 0)
(0.201541 -0.00168775 0)
(0.206073 -0.000998407 0)
(0.208217 -0.000288166 0)
(0.20797 0.00043777 0)
(0.205183 0.00118062 0)
(0.199953 0.00189956 0)
(0.192404 0.00258301 0)
(0.182635 0.00322088 0)
(0.170817 0.0037998 0)
(0.157155 0.00431597 0)
(0.141881 0.00475292 0)
(0.125273 0.00511192 0)
(0.107603 0.00538931 0)
(0.0891465 0.00557927 0)
(0.070194 0.00568776 0)
(0.0510096 0.00570999 0)
(0.031876 0.00567388 0)
(0.0130115 0.0055568 0)
(-0.00540546 0.00539294 0)
(-0.0231657 0.00519134 0)
(-0.0401511 0.00492221 0)
(-0.0562368 0.00464289 0)
(-0.0712928 0.0043234 0)
(-0.0852774 0.00400778 0)
(-0.0981836 0.00366643 0)
(-0.109968 0.0033358 0)
(-0.120648 0.00303855 0)
(-0.130268 0.00270142 0)
(-0.138858 0.0024019 0)
(-0.146447 0.00210125 0)
(-0.153086 0.00186146 0)
(-0.158863 0.00159836 0)
(-0.163845 0.0013641 0)
(-0.168048 0.00114372 0)
(-0.171519 0.000930075 0)
(-0.174315 0.000723695 0)
(-0.176442 0.000526008 0)
(-0.177927 0.000373154 0)
(-0.178838 0.000195691 0)
(-0.17924 3.00517e-05 0)
(-0.179043 -0.00012819 0)
(-0.178338 -0.000284331 0)
(-0.177115 -0.000451643 0)
(-0.175292 -0.000638617 0)
(-0.172837 -0.000807578 0)
(-0.169766 -0.00100876 0)
(-0.166051 -0.00120258 0)
(-0.161649 -0.00141266 0)
(-0.156552 -0.00161207 0)
(-0.150754 -0.00183261 0)
(-0.14421 -0.00205827 0)
(-0.136901 -0.00229652 0)
(-0.128779 -0.00253239 0)
(-0.119836 -0.00278395 0)
(-0.110059 -0.00303325 0)
(-0.0994555 -0.00327981 0)
(-0.0880194 -0.0035327 0)
(-0.0757304 -0.00377613 0)
(-0.0626113 -0.00402635 0)
(-0.0486618 -0.00426488 0)
(-0.0339493 -0.00447902 0)
(-0.0185152 -0.004693 0)
(-0.00243893 -0.00486167 0)
(0.0141442 -0.00500644 0)
(0.031131 -0.00508968 0)
(0.0483588 -0.00514093 0)
(0.0656421 -0.00513288 0)
(0.0827825 -0.00505373 0)
(0.0995377 -0.00490072 0)
(0.115677 -0.00468864 0)
(0.130951 -0.00440503 0)
(0.145145 -0.00404227 0)
(0.158043 -0.00362648 0)
(0.169388 -0.00311642 0)
(0.178961 -0.00257217 0)
(0.186548 -0.00193234 0)
(0.19196 -0.00127362 0)
(0.195056 -0.000564503 0)
(0.195755 0.000143871 0)
(0.194024 0.000879982 0)
(0.189741 0.0016121 0)
(0.183157 0.00229337 0)
(0.17434 0.00293219 0)
(0.163458 0.00351685 0)
(0.150769 0.00402205 0)
(0.136526 0.00444967 0)
(0.120978 0.00479672 0)
(0.10441 0.00505572 0)
(0.0870895 0.00523668 0)
(0.0692973 0.00533489 0)
(0.0513206 0.00536294 0)
(0.0333739 0.00530967 0)
(0.0156673 0.00521779 0)
(-0.00163038 0.00509051 0)
(-0.018398 0.00488222 0)
(-0.0344704 0.00466607 0)
(-0.0497285 0.00443249 0)
(-0.0641431 0.0041589 0)
(-0.077666 0.00388481 0)
(-0.0902237 0.00358617 0)
(-0.101783 0.0032955 0)
(-0.112379 0.00302252 0)
(-0.122032 0.00272869 0)
(-0.130758 0.00246194 0)
(-0.138585 0.00220063 0)
(-0.145551 0.00194909 0)
(-0.151716 0.00170925 0)
(-0.157076 0.00147122 0)
(-0.161628 0.00125841 0)
(-0.165479 0.00103807 0)
(-0.168634 0.000832956 0)
(-0.171056 0.000610603 0)
(-0.172773 0.00041124 0)
(-0.173792 0.000215383 0)
(-0.174188 2.3757e-05 0)
(-0.173976 -0.000139154 0)
(-0.173185 -0.000330661 0)
(-0.171862 -0.000484853 0)
(-0.169973 -0.000617037 0)
(-0.167566 -0.000792294 0)
(-0.164673 -0.00094342 0)
(-0.161228 -0.0011087 0)
(-0.157219 -0.00126714 0)
(-0.15265 -0.00143978 0)
(-0.147507 -0.00162228 0)
(-0.141705 -0.001829 0)
(-0.135216 -0.00202597 0)
(-0.128025 -0.00224658 0)
(-0.120091 -0.00247427 0)
(-0.111387 -0.00269983 0)
(-0.101923 -0.00292826 0)
(-0.0916706 -0.00316983 0)
(-0.0806422 -0.00339898 0)
(-0.0688355 -0.0036249 0)
(-0.0562681 -0.00384283 0)
(-0.0430009 -0.00404701 0)
(-0.0290711 -0.00423843 0)
(-0.0145321 -0.00440586 0)
(0.000555899 -0.00455236 0)
(0.0161002 -0.00466714 0)
(0.0319449 -0.00473981 0)
(0.0479538 -0.00478038 0)
(0.0640048 -0.00475176 0)
(0.0799321 -0.00468054 0)
(0.0955185 -0.00454734 0)
(0.110506 -0.00435662 0)
(0.124722 -0.00407698 0)
(0.137997 -0.00374641 0)
(0.149954 -0.00335986 0)
(0.160505 -0.00290632 0)
(0.169532 -0.00241106 0)
(0.176783 -0.00185942 0)
(0.182148 -0.00132002 0)
(0.18568 -0.000738678 0)
(0.187181 -0.000169468 0)
(0.18677 0.000446454 0)
(0.184371 0.000992842 0)
(0.180151 0.00156586 0)
(0.174102 0.00207868 0)
(0.166279 0.00256482 0)
(0.157014 0.00307897 0)
(0.146069 0.00350028 0)
(0.133704 0.00386193 0)
(0.120222 0.00422948 0)
(0.105652 0.0045116 0)
(0.0901876 0.00467648 0)
(0.0741655 0.00485416 0)
(0.0579388 0.00485442 0)
(0.0414785 0.00485784 0)
(0.0251173 0.00479383 0)
(0.00958544 0.00462123 0)
(-0.00523062 0.00446248 0)
(-0.0195247 0.00423679 0)
(-0.0331334 0.00397336 0)
(-0.0459024 0.00370481 0)
(-0.0577485 0.00341629 0)
(-0.0686315 0.00312013 0)
(-0.0785481 0.00283017 0)
(-0.087511 0.00254323 0)
(-0.0955528 0.00227275 0)
(-0.102708 0.00201354 0)
(-0.109038 0.00177344 0)
(-0.114606 0.00155693 0)
(-0.119475 0.00136006 0)
(-0.123721 0.00118063 0)
(-0.127407 0.00102011 0)
(-0.130588 0.000874756 0)
(-0.133307 0.000742405 0)
(-0.135586 0.000618118 0)
(-0.13746 0.000494574 0)
(-0.138931 0.00036786 0)
(-0.139963 0.000241117 0)
(-0.140536 0.000107339 0)
(-0.14064 -4.58832e-05 0)
(-0.140198 -0.000218544 0)
(-0.13917 -0.000407208 0)
(-0.137467 -0.000611266 0)
(-0.135032 -0.000840277 0)
(-0.131805 -0.00108449 0)
(-0.127713 -0.0013468 0)
(-0.122701 -0.00163453 0)
(-0.116718 -0.00192533 0)
(-0.10972 -0.00224365 0)
(-0.101686 -0.00255017 0)
(-0.0925921 -0.00285542 0)
(-0.082433 -0.00319004 0)
(-0.0712321 -0.00348201 0)
(-0.0590223 -0.00375823 0)
(-0.0458459 -0.00406855 0)
(-0.0317628 -0.00429964 0)
(-0.0168764 -0.00449627 0)
(-0.00133253 -0.00472856 0)
(0.0147651 -0.00484777 0)
(0.0313118 -0.00500321 0)
(0.0481337 -0.00502821 0)
(0.0650462 -0.00499646 0)
(0.0818714 -0.00499494 0)
(0.098421 -0.00485387 0)
(0.114493 -0.00465538 0)
(0.129896 -0.00447213 0)
(0.144433 -0.0041631 0)
(0.15792 -0.00385649 0)
(0.170176 -0.00344612 0)
(0.181033 -0.00299564 0)
(0.190347 -0.00253219 0)
(0.197988 -0.002011 0)
(0.203854 -0.00146818 0)
(0.207864 -0.000912105 0)
(0.209981 -0.000334777 0)
(0.210154 0.000234998 0)
(0.208445 0.000807769 0)
(0.204787 0.0013707 0)
(0.199292 0.00189641 0)
(0.192042 0.00240881 0)
(0.181952 0.00289184 0)
(-0.128533 0.0049757 0)
(-0.136746 0.00447234 0)
(-0.145315 0.00401564 0)
(-0.152951 0.00356962 0)
(-0.159696 0.00312499 0)
(-0.165581 0.00271121 0)
(-0.17064 0.00230424 0)
(-0.174903 0.00192008 0)
(-0.178399 0.00154704 0)
(-0.181152 0.00118222 0)
(-0.183188 0.000825314 0)
(-0.184514 0.000475806 0)
(-0.185132 0.000143071 0)
(-0.185073 -0.000206443 0)
(-0.184305 -0.000560425 0)
(-0.182832 -0.000914619 0)
(-0.180635 -0.00127364 0)
(-0.177701 -0.0016463 0)
(-0.174008 -0.00202715 0)
(-0.16953 -0.00241918 0)
(-0.164239 -0.0028384 0)
(-0.158104 -0.00325974 0)
(-0.151087 -0.00369484 0)
(-0.143155 -0.00417432 0)
(-0.134274 -0.00463809 0)
(-0.124416 -0.00515783 0)
(-0.113559 -0.0056386 0)
(-0.101684 -0.00611822 0)
(-0.0887864 -0.00667323 0)
(-0.0748703 -0.00713404 0)
(-0.0599657 -0.00756888 0)
(-0.0440969 -0.00809809 0)
(-0.0272953 -0.00845403 0)
(-0.00977276 -0.00892175 0)
(0.00831967 -0.00914258 0)
(0.0269276 -0.00928358 0)
(0.0458955 -0.00951599 0)
(0.0650304 -0.00947544 0)
(0.0840811 -0.00930853 0)
(0.102812 -0.00918941 0)
(0.120975 -0.00879138 0)
(0.138322 -0.00838796 0)
(0.154588 -0.00774957 0)
(0.169513 -0.00698956 0)
(0.182853 -0.00617298 0)
(0.19439 -0.00521434 0)
(0.203934 -0.00416379 0)
(0.211312 -0.00306127 0)
(0.216407 -0.00190295 0)
(0.219152 -0.000687903 0)
(0.219475 0.000478762 0)
(0.217288 0.0017188 0)
(0.212645 0.00283456 0)
(0.205752 0.0039372 0)
(0.196655 0.0050278 0)
(0.185516 0.00590055 0)
(0.172568 0.00676477 0)
(0.15801 0.00755025 0)
(0.142076 0.00808897 0)
(0.125 0.00861644 0)
(0.107079 0.00891245 0)
(0.0885444 0.00918788 0)
(0.0696404 0.00934072 0)
(0.0506321 0.00931789 0)
(0.0316438 0.0092571 0)
(0.0130061 0.00909604 0)
(-0.00475549 0.00889811 0)
(-0.021966 0.00858161 0)
(-0.038843 0.00818834 0)
(-0.0550066 0.00780352 0)
(-0.0703232 0.00734809 0)
(-0.0847359 0.00688192 0)
(-0.0982342 0.00641936 0)
(-0.110693 0.00591278 0)
(-0.122163 0.00540987 0)
(-0.132683 0.00492585 0)
(-0.142173 0.00439515 0)
(-0.150672 0.0039688 0)
(-0.15816 0.00345458 0)
(-0.164718 0.00297724 0)
(-0.170387 0.00252677 0)
(-0.175038 0.00203374 0)
(-0.178701 0.0015946 0)
(-0.181493 0.00113872 0)
(-0.18339 0.000678377 0)
(-0.18436 0.000226915 0)
(-0.184463 -0.000215149 0)
(-0.183607 -0.000601173 0)
(-0.182021 -0.000997668 0)
(-0.179714 -0.0013494 0)
(-0.176709 -0.00169713 0)
(-0.17303 -0.00200553 0)
(-0.168671 -0.00232455 0)
(-0.163706 -0.00263498 0)
(-0.158099 -0.00295642 0)
(-0.151833 -0.00326858 0)
(-0.144908 -0.00361505 0)
(-0.137275 -0.00396969 0)
(-0.128912 -0.00433512 0)
(-0.119782 -0.00473515 0)
(-0.10984 -0.00515328 0)
(-0.0990465 -0.00554465 0)
(-0.0874017 -0.00597767 0)
(-0.0749484 -0.00637391 0)
(-0.0616676 -0.00678148 0)
(-0.0475856 -0.00716169 0)
(-0.0327716 -0.00752091 0)
(-0.0172657 -0.00783779 0)
(-0.00114839 -0.00811178 0)
(0.0154739 -0.00834383 0)
(0.0324949 -0.00851634 0)
(0.049783 -0.00860564 0)
(0.0671797 -0.00861971 0)
(0.0845048 -0.00854038 0)
(0.101572 -0.00836385 0)
(0.118176 -0.00807134 0)
(0.134083 -0.00767347 0)
(0.149059 -0.00714204 0)
(0.162865 -0.00650708 0)
(0.17525 -0.00573754 0)
(0.185977 -0.00487195 0)
(0.194832 -0.00388903 0)
(0.201615 -0.0028119 0)
(0.206158 -0.00166769 0)
(0.208317 -0.000475887 0)
(0.208054 0.000727083 0)
(0.205258 0.0019723 0)
(0.200029 0.00317461 0)
(0.192462 0.00431022 0)
(0.18268 0.00536475 0)
(0.170845 0.0063382 0)
(0.157161 0.0071962 0)
(0.141867 0.0079282 0)
(0.125238 0.00852818 0)
(0.107545 0.00899156 0)
(0.089063 0.00930722 0)
(0.0700808 0.00948138 0)
(0.0508698 0.00952109 0)
(0.0317181 0.00945919 0)
(0.0128365 0.00926918 0)
(-0.00559589 0.00899906 0)
(-0.0233687 0.00864234 0)
(-0.0403623 0.00820718 0)
(-0.0564479 0.007733 0)
(-0.0715114 0.0072247 0)
(-0.0855081 0.00666953 0)
(-0.0984078 0.00611987 0)
(-0.110191 0.00556361 0)
(-0.12087 0.00504999 0)
(-0.13049 0.00450891 0)
(-0.139078 0.00399677 0)
(-0.146657 0.00351132 0)
(-0.153304 0.00310188 0)
(-0.159077 0.00266037 0)
(-0.164044 0.00227543 0)
(-0.168236 0.00189874 0)
(-0.1717 0.00155418 0)
(-0.174498 0.0012072 0)
(-0.176616 0.000877275 0)
(-0.178109 0.000621579 0)
(-0.179035 0.000320451 0)
(-0.179422 5.15993e-05 0)
(-0.179218 -0.000205045 0)
(-0.178515 -0.000477977 0)
(-0.177295 -0.0007526 0)
(-0.175472 -0.00105252 0)
(-0.17303 -0.00135751 0)
(-0.169965 -0.00168525 0)
(-0.166249 -0.00200501 0)
(-0.16184 -0.00234603 0)
(-0.156751 -0.00268888 0)
(-0.150959 -0.00305895 0)
(-0.144411 -0.00342883 0)
(-0.137094 -0.00381884 0)
(-0.128985 -0.00422343 0)
(-0.120044 -0.0046472 0)
(-0.11026 -0.00505593 0)
(-0.0996514 -0.00545778 0)
(-0.088222 -0.00589205 0)
(-0.0759374 -0.00630048 0)
(-0.0628101 -0.00669828 0)
(-0.0488586 -0.00711312 0)
(-0.0341402 -0.00747138 0)
(-0.0186968 -0.00781921 0)
(-0.00260141 -0.00810651 0)
(0.0139887 -0.00834395 0)
(0.0309792 -0.00849618 0)
(0.0482266 -0.00857389 0)
(0.0655333 -0.00855382 0)
(0.0826911 -0.00842565 0)
(0.0994672 -0.00817357 0)
(0.115629 -0.00781705 0)
(0.130931 -0.00733342 0)
(0.145141 -0.00673504 0)
(0.158058 -0.00604787 0)
(0.169421 -0.00519396 0)
(0.179012 -0.00428587 0)
(0.186612 -0.00321715 0)
(0.192026 -0.00212304 0)
(0.19513 -0.000947238 0)
(0.19583 0.000238341 0)
(0.194085 0.00146557 0)
(0.189823 0.00269359 0)
(0.183222 0.00382991 0)
(0.17439 0.00489065 0)
(0.163486 0.0058632 0)
(0.150766 0.00670516 0)
(0.136492 0.00742166 0)
(0.120924 0.00799878 0)
(0.104341 0.00843245 0)
(0.0869981 0.00873308 0)
(0.069191 0.0088954 0)
(0.0511903 0.00894353 0)
(0.0332265 0.00885156 0)
(0.0155071 0.00870664 0)
(-0.0018086 0.00847832 0)
(-0.0185836 0.00813863 0)
(-0.0346543 0.00778186 0)
(-0.0499211 0.00739372 0)
(-0.0643496 0.00692957 0)
(-0.0778805 0.00647308 0)
(-0.0904427 0.00598401 0)
(-0.102002 0.00549148 0)
(-0.112596 0.00503162 0)
(-0.122242 0.00454733 0)
(-0.13096 0.00409873 0)
(-0.138781 0.00367275 0)
(-0.145752 0.00325504 0)
(-0.151917 0.00283959 0)
(-0.157265 0.00245445 0)
(-0.161811 0.00209797 0)
(-0.165657 0.00173191 0)
(-0.168821 0.00138754 0)
(-0.171239 0.001022 0)
(-0.172953 0.000686536 0)
(-0.17398 0.000359608 0)
(-0.174372 3.09179e-05 0)
(-0.174155 -0.000233955 0)
(-0.173365 -0.000538899 0)
(-0.172044 -0.000814305 0)
(-0.170155 -0.00103671 0)
(-0.167742 -0.00131492 0)
(-0.164851 -0.00157506 0)
(-0.16142 -0.00185148 0)
(-0.157412 -0.00210524 0)
(-0.152846 -0.00239971 0)
(-0.147701 -0.00271024 0)
(-0.141886 -0.00303599 0)
(-0.135404 -0.00338041 0)
(-0.128218 -0.00375014 0)
(-0.120282 -0.00411535 0)
(-0.11159 -0.00450251 0)
(-0.102127 -0.00488824 0)
(-0.0918709 -0.00527948 0)
(-0.0808436 -0.00565657 0)
(-0.0690426 -0.0060483 0)
(-0.0564655 -0.00640694 0)
(-0.0431918 -0.00674763 0)
(-0.0292523 -0.00706299 0)
(-0.0147076 -0.00735099 0)
(0.000393236 -0.00758293 0)
(0.0159442 -0.00778304 0)
(0.0318062 -0.00789998 0)
(0.0478398 -0.00796932 0)
(0.0639139 -0.00792346 0)
(0.0798712 -0.00780724 0)
(0.0954858 -0.00757981 0)
(0.1105 -0.00727048 0)
(0.12475 -0.00679488 0)
(0.138045 -0.00624604 0)
(0.150027 -0.00561063 0)
(0.160602 -0.00484325 0)
(0.169647 -0.00401639 0)
(0.176907 -0.00310994 0)
(0.182283 -0.0021992 0)
(0.185822 -0.00123494 0)
(0.187338 -0.000279402 0)
(0.186909 0.000742599 0)
(0.184504 0.00165692 0)
(0.180289 0.0026117 0)
(0.174228 0.00346592 0)
(0.166407 0.00427862 0)
(0.157128 0.00513165 0)
(0.146167 0.00583484 0)
(0.133796 0.00643956 0)
(0.120303 0.00705297 0)
(0.105709 0.00752279 0)
(0.0902311 0.00779791 0)
(0.0741883 0.00809249 0)
(0.0579386 0.00809445 0)
(0.0414682 0.00809853 0)
(0.0250861 0.00798869 0)
(0.00954145 0.0077086 0)
(-0.00528406 0.00743946 0)
(-0.0195893 0.0070636 0)
(-0.0332041 0.00662485 0)
(-0.045978 0.00617748 0)
(-0.0578258 0.00569626 0)
(-0.0687092 0.00519897 0)
(-0.0786249 0.00471774 0)
(-0.0875852 0.00423791 0)
(-0.0956237 0.00378705 0)
(-0.102774 0.00335535 0)
(-0.109098 0.00295498 0)
(-0.114661 0.00259444 0)
(-0.119525 0.00226599 0)
(-0.123766 0.00196686 0)
(-0.127447 0.00169988 0)
(-0.130625 0.00145738 0)
(-0.13334 0.00123749 0)
(-0.135618 0.00103066 0)
(-0.137492 0.000823731 0)
(-0.138963 0.00061452 0)
(-0.139998 0.000402741 0)
(-0.140577 0.000178528 0)
(-0.140682 -7.60115e-05 0)
(-0.140246 -0.000363622 0)
(-0.139222 -0.000677808 0)
(-0.137524 -0.00101782 0)
(-0.135095 -0.00139963 0)
(-0.131873 -0.00180661 0)
(-0.127785 -0.00224392 0)
(-0.122778 -0.00272362 0)
(-0.116798 -0.00320839 0)
(-0.109803 -0.00373894 0)
(-0.101769 -0.00425019 0)
(-0.0926751 -0.00475904 0)
(-0.0825158 -0.00531707 0)
(-0.0713118 -0.00580396 0)
(-0.0590976 -0.00626445 0)
(-0.0459167 -0.00678187 0)
(-0.0318261 -0.00716724 0)
(-0.0169304 -0.00749529 0)
(-0.00137741 -0.00788268 0)
(0.0147315 -0.0080816 0)
(0.0312904 -0.00834098 0)
(0.0481261 -0.0083827 0)
(0.0650528 -0.00832986 0)
(0.0818935 -0.00832751 0)
(0.0984581 -0.00809235 0)
(0.114545 -0.00776143 0)
(0.129964 -0.00745602 0)
(0.144515 -0.00694088 0)
(0.158018 -0.00642978 0)
(0.170286 -0.00574557 0)
(0.181154 -0.00499451 0)
(0.19048 -0.00422184 0)
(0.198128 -0.00335284 0)
(0.203999 -0.00244773 0)
(0.208013 -0.00151986 0)
(0.210132 -0.000562977 0)
(0.210314 0.00039647 0)
(0.20859 0.00134695 0)
(0.204931 0.0022848 0)
(0.199429 0.00316183 0)
(0.192172 0.00401619 0)
(0.182072 0.00482154 0)
(-0.128649 0.00696539 0)
(-0.136859 0.00626056 0)
(-0.145424 0.00562109 0)
(-0.153057 0.00499662 0)
(-0.159797 0.00437416 0)
(-0.165679 0.00379491 0)
(-0.170733 0.00322526 0)
(-0.174993 0.00268752 0)
(-0.178487 0.00216541 0)
(-0.181237 0.0016548 0)
(-0.183269 0.00115622 0)
(-0.184594 0.000668304 0)
(-0.185219 0.00019709 0)
(-0.185156 -0.000290195 0)
(-0.184389 -0.000784422 0)
(-0.182917 -0.00127998 0)
(-0.180722 -0.00178247 0)
(-0.17779 -0.0023043 0)
(-0.174101 -0.00283723 0)
(-0.169626 -0.00338595 0)
(-0.164339 -0.00397282 0)
(-0.158208 -0.00456265 0)
(-0.151194 -0.00517183 0)
(-0.143267 -0.00584314 0)
(-0.134389 -0.00649258 0)
(-0.124535 -0.00722042 0)
(-0.113679 -0.00789375 0)
(-0.101804 -0.00856554 0)
(-0.0889067 -0.00934297 0)
(-0.0749866 -0.00998856 0)
(-0.0600758 -0.0105978 0)
(-0.0442005 -0.0113395 0)
(-0.0273882 -0.0118391 0)
(-0.00985102 -0.0124933 0)
(0.00826081 -0.012804 0)
(0.0268872 -0.013002 0)
(0.0458787 -0.0133283 0)
(0.0650393 -0.013272 0)
(0.0841165 -0.0130386 0)
(0.102879 -0.0128724 0)
(0.121071 -0.0123152 0)
(0.138452 -0.0117506 0)
(0.154747 -0.0108567 0)
(0.1697 -0.00979243 0)
(0.18307 -0.00864921 0)
(0.194628 -0.00730671 0)
(0.204192 -0.0058346 0)
(0.211586 -0.00429094 0)
(0.216691 -0.00266807 0)
(0.219449 -0.000961611 0)
(0.219751 0.000681053 0)
(0.217549 0.00240947 0)
(0.212909 0.00396858 0)
(0.206003 0.00551549 0)
(0.196889 0.00704369 0)
(0.185726 0.00826626 0)
(0.172753 0.00947675 0)
(0.158167 0.0105765 0)
(0.142205 0.0113311 0)
(0.125099 0.0120698 0)
(0.107148 0.0124838 0)
(0.088586 0.0128694 0)
(0.0696548 0.0130827 0)
(0.0506227 0.0130506 0)
(0.0316112 0.0129642 0)
(0.0129624 0.0127455 0)
(-0.0048175 0.0124582 0)
(-0.0220533 0.0120168 0)
(-0.0389365 0.0114665 0)
(-0.0551118 0.0109278 0)
(-0.0704378 0.0102871 0)
(-0.0848522 0.00963593 0)